/*--------------------------------*- C++ -*----------------------------------*\
| =========                 |                                                 |
| \\      /  F ield         | OpenFOAM: The Open Source CFD Toolbox           |
|  \\    /   O peration     | Version:  4.1                                   |
|   \\  /    A nd           | Web:      www.OpenFOAM.org                      |
|    \\/     M anipulation  |                                                 |
\*---------------------------------------------------------------------------*/
FoamFile
{
    version     2.0;
    format      ascii;
    class       volScalarField;
    location    "10";
    object      p;
}
// * * * * * * * * * * * * * * * * * * * * * * * * * * * * * * * * * * * * * //

dimensions      [0 2 -2 0 0 0 0];

internalField   nonuniform List<scalar> 
1680
(
-6.02838
-3.99135
-1.65075
-2.52828
-3.42982
-1.94562
-2.66577
-3.5787
-1.92125
-3.02368
-3.54634
-3.23248
-3.99194
-2.34742
-3.8532
-4.9538
-4.03024
-7.06276
-0.842736
-10.7411
-1.55609
-29.8429
-0.0857736
-2.09204
-1.07204
0.303592
1.37919
2.34194
4.11484
4.49998
7.86163
-19.3436
-1.64642
-1.78118
-0.712509
-0.203011
1.04852
0.759006
5.31304
-0.173507
-48.331
-20.1247
-16.6246
3.02986
-2.80114
-2.39618
1.52431
11.3203
8.053
8.49709
10.8366
10.756
10.7774
10.7755
10.783
10.777
10.8708
10.8877
10.8146
10.896
-19.6968
18.9079
-15.774
1.2368
-17.2288
-21.4619
-20.5441
-4.81985
4.23012
2.72578
-8.13043
-15.4954
-3.93108
-0.725697
-3.54349
-1.9001
-9.12124
3.308
15.618
-28.6406
19.4304
-19.681
0.907574
-18.9924
-23.2287
-22.9783
-5.96449
0.728847
1.72573
-7.0724
-14.321
-3.81576
-0.816218
-3.01468
-0.870577
-4.98195
3.69862
10.906
-37.6146
20.0377
-23.6113
0.72429
-20.5602
-24.6793
-25.1477
-7.05469
-2.70161
0.838194
-5.79318
-12.4463
-3.58636
-0.896492
-2.81609
-0.450793
-3.03283
1.10862
13.8576
-47.1414
21.0974
-27.657
0.676488
-21.8942
-25.6947
-26.9154
-7.93157
-5.11695
0.186565
-4.3927
-10.0852
-3.33353
-0.963962
-2.69214
-0.371155
-2.03124
-1.05387
20.202
-57.3231
22.601
-31.9353
0.724369
-22.9531
-26.1929
-28.1709
-8.48981
-6.24367
-0.154452
-3.13662
-7.64007
-3.08881
-1.02794
-2.55859
-0.588015
-1.59356
-1.51348
18.0584
-68.0401
24.3088
-36.2959
0.84826
-23.6992
-26.2031
-28.8904
-8.74426
-6.41978
-0.256805
-2.17187
-5.58433
-2.85975
-1.08576
-2.44306
-0.698427
-1.54843
-1.04228
2.6708
-79.1733
25.7513
-40.567
1.07042
-24.1111
-25.8365
-29.1322
-8.76993
-6.0584
-0.196504
-1.52962
-4.18593
-2.64101
-1.1401
-2.33083
-0.843782
-1.46575
-1.26169
-0.97407
-90.5942
26.6413
-44.5296
1.40279
-24.1681
-25.1386
-28.948
-8.61721
-5.46093
-0.0210987
-1.17243
-3.36164
-2.43459
-1.1919
-2.2296
-0.957072
-1.43296
-1.57534
-0.904968
-103.807
27.2708
-48.0191
1.83613
-23.8687
-23.9805
-28.3251
-8.2944
-4.89794
0.135253
-1.00382
-2.76788
-2.25251
-1.23802
-2.13691
-1.06514
-1.42007
-1.54352
-0.936969
-118.334
27.8974
-50.8792
2.37306
-23.168
-22.1265
-27.2243
-7.8069
-4.48042
0.109641
-0.933878
-2.17672
-2.10041
-1.2805
-2.05294
-1.15966
-1.41033
-1.71858
-1.04763
-137.952
28.974
-53.668
2.99559
-22.1453
-19.4288
-25.6176
-7.23252
-4.16807
-0.0427714
-0.918037
-1.87939
-1.99083
-1.32058
-1.97705
-1.24286
-1.40911
-1.73668
-1.16995
-156.32
30.2329
-55.3605
3.75494
-20.6707
-16.0514
-23.4888
-6.74391
-3.959
-0.252779
-0.949309
-1.76654
-1.90366
-1.36204
-1.91302
-1.32021
-1.41335
-1.79727
-1.24837
-193.16
32.8539
-57.8114
4.60504
-19.2243
-12.4538
-21.0023
-6.40426
-3.84812
-0.501213
-1.00289
-1.709
-1.83388
-1.40102
-1.85642
-1.38822
-1.42218
-1.84237
-1.33733
-208.62
34.5253
-56.2591
5.73556
-16.9657
-9.09709
-18.4378
-6.06301
-3.73414
-0.732462
-1.0553
-1.66402
-1.75489
-1.41556
-1.78564
-1.42483
-1.41319
-1.8401
-1.40233
-311.826
39.809
-61.1514
6.86812
-16.1829
-6.39497
-16.4765
-5.88513
-3.68731
-0.973136
-1.11641
-1.65703
-1.71161
-1.45025
-1.74467
-1.47942
-1.42446
-1.85914
-1.46187
-248.213
35.9341
-48.7769
8.4562
-12.0478
-4.48733
-15.6725
-6.28252
-3.95321
-1.37805
-1.26165
-1.76063
-1.78189
-1.58181
-1.80631
-1.63475
-1.52992
-2.00469
-1.64999
-678.119
48.0662
-70.2194
9.74008
-15.6854
-3.39103
-13.3732
-5.46134
-3.68145
-1.45532
-1.23941
-1.62561
-1.60789
-1.46499
-1.63039
-1.51886
-1.41484
-1.84232
-1.54942
39.0742
13.0731
-14.8073
10.8929
-2.34531
-2.71138
-8.46916
-2.88555
-2.43558
-0.883002
-0.888377
-1.16093
-1.11295
-1.02454
-1.14921
-1.05294
-0.992281
-1.28129
-1.06108
-2262.81
56.883
-107.431
13.105
-26.3557
-2.55428
-19.3917
-8.42014
-5.75683
-3.05569
-2.01144
-2.57925
-2.4471
-2.37581
-2.4454
-2.51467
-2.22417
-2.89514
-2.57466
3462.83
-170.678
99.7606
3.56789
32.638
-1.8181
-29.9672
-15.1197
-9.77797
-5.72878
-3.34338
-4.12008
-3.91789
-3.85938
-3.8676
-4.12271
-3.61312
-4.71597
-4.36426
100.439
99.7481
99.351
98.4225
97.4836
96.4807
95.4609
94.4044
93.3447
92.2912
91.2133
90.2275
89.0978
87.8461
86.7139
85.6058
84.6282
83.579
82.9019
81.5816
80.2172
80.6807
80.8463
81.0588
81.2095
81.2972
81.3576
81.3582
81.3355
81.2611
81.1678
81.0375
80.8613
80.6561
80.4443
80.1992
79.9772
79.7166
79.4781
79.1776
88.9145
88.6271
88.4874
88.2823
88.1238
87.9326
87.7599
87.5687
87.385
87.1876
86.995
86.7873
86.5901
86.3708
86.1672
85.9353
85.7363
85.4881
85.3075
84.9846
85.9913
86.0077
86.0216
86.0121
86.0196
86.001
85.9933
85.9665
85.9448
85.9087
85.8752
85.8288
85.7862
85.7288
85.6814
85.6114
85.5651
85.4811
85.4381
85.3283
88.0389
87.9339
87.9013
87.8224
87.7768
87.708
87.6565
87.5923
87.5377
87.475
87.4192
87.3559
87.3004
87.2344
87.1815
87.1102
87.0643
86.9826
86.9518
86.8466
88.0949
88.0434
88.0343
87.9908
87.9726
87.934
87.9098
87.8737
87.8457
87.8102
87.7803
87.7439
87.7139
87.6749
87.6472
87.6033
87.5815
87.5285
87.5193
87.4528
88.959
88.8889
88.871
88.8167
88.7892
88.7425
88.7105
88.668
88.6337
88.5934
88.5586
88.5189
88.4851
88.4443
88.4137
88.3691
88.3452
88.2926
88.2815
88.2157
89.4684
89.4089
89.3944
89.3474
89.3246
89.2838
89.2565
89.2194
89.1895
89.1544
89.1237
89.0891
89.059
89.0232
88.996
88.9563
88.9352
88.8878
88.8782
88.8182
90.091
90.0304
90.0144
89.9671
89.943
89.902
89.8737
89.8365
89.806
89.771
89.7397
89.7055
89.6748
89.6397
89.6117
89.5731
89.5511
89.505
89.4942
89.4351
90.6352
90.5783
90.5631
90.5185
90.4957
90.457
90.4301
90.395
90.3658
90.3329
90.3027
90.2706
90.2407
90.2079
90.1805
90.1443
90.1226
90.079
90.068
90.0114
91.1792
91.1242
91.1091
91.0659
91.0436
91.0061
90.9798
90.9459
90.9174
90.8856
90.856
90.8253
90.7958
90.7647
90.7372
90.7031
90.6811
90.6398
90.6283
90.5738
91.6915
91.6394
91.6246
91.5836
91.562
91.5263
91.5011
91.4687
91.4413
91.4111
91.3824
91.3535
91.3246
91.2956
91.2683
91.2367
91.2145
91.1759
91.1641
91.1121
92.1854
92.1356
92.1212
92.0819
92.061
92.0268
92.0025
91.9715
91.9451
91.9163
91.8885
91.8612
91.8329
91.8059
91.7788
91.7497
91.7272
91.6914
91.6791
91.6298
92.6573
92.6102
92.5959
92.5586
92.5383
92.5057
92.4822
92.4526
92.4271
92.3996
92.3728
92.3469
92.3193
92.2942
92.2671
92.2406
92.2176
92.1849
92.1719
92.1253
93.1082
93.0643
93.0504
93.0153
92.9961
92.9651
92.943
92.9149
92.8905
92.8645
92.8388
92.8143
92.7876
92.7643
92.7372
92.7134
92.6894
92.6601
92.6458
92.6023
93.5268
93.4863
93.4729
93.4402
93.4228
93.3938
93.3734
93.3477
93.3252
93.3015
93.2779
93.2554
93.2308
93.2098
93.1837
93.1636
93.1388
93.1139
93.0983
93.0589
93.9216
93.8843
93.8697
93.8374
93.8212
93.7928
93.7727
93.7485
93.7264
93.7039
93.6816
93.6602
93.6375
93.6182
93.5937
93.5778
93.5522
93.534
93.5182
93.484
94.321
94.2937
94.2824
94.2499
94.237
94.2115
94.1918
94.1692
94.1471
94.1242
94.1007
94.0768
94.0517
94.0279
93.9996
93.9794
93.9453
93.9303
93.9041
93.8665
94.595
94.586
94.601
94.5804
94.5806
94.5733
94.5686
94.5634
94.5577
94.5513
94.5437
94.5342
94.5222
94.5075
94.4871
94.4662
94.4277
94.4063
94.3344
94.2775
94.5604
94.5021
94.5402
94.5509
94.5685
94.5862
94.6051
94.6258
94.6484
94.6735
94.7013
94.7324
94.7671
94.806
94.8495
94.8985
94.9512
95.0199
95.0611
95.2243
10.8729
10.7271
10.7286
10.7499
10.726
10.7555
10.7042
10.5988
10.7705
10.8294
8.15404
9.13686
10.1204
0.966034
-1.75888
1.06447
5.74961
-19.1656
-11.0206
-11.2451
-20.747
-21.8282
-26.9003
-28.6703
-29.1818
-27.3926
-23.7694
-23.2511
-26.968
-5.40245
-2.91617
-0.821298
0.744047
1.58448
0.668686
-3.62921
-11.187
-18.4169
-46.1691
-27.0088
-37.2944
-20.6289
-37.0347
-29.6403
-33.687
-27.8463
-20.0061
-29.4021
-23.8813
-25.3757
-22.1027
-19.3064
-24.3824
-22.5539
-23.5541
-26.5665
-26.702
-26.8308
-26.7613
-26.8044
20.3528
17.3378
17.1985
15.6054
19.8657
16.868
15.4024
13.0079
11.6779
11.0021
13.191
18.8359
34.0838
48.7637
39.9372
-9.57591
-70.2728
-64.2029
-34.4951
20.2557
17.2043
17.0215
15.2106
19.9411
16.7904
15.0856
12.5636
11.351
10.7556
12.9554
18.4109
33.3158
47.7814
38.5682
-11.8004
-74.39
-68.4513
-35.6798
20.0384
17.1941
16.7621
14.4135
19.907
16.133
13.9953
11.9089
11.1328
10.4603
12.4658
17.4509
31.7558
45.8096
35.9548
-15.0698
-79.8986
-76.5361
-38.4663
19.7946
17.1299
16.7437
13.8197
18.7886
14.7704
12.7359
11.1618
10.7814
9.98045
11.6994
15.9099
29.3699
42.8701
32.3958
-19.239
-86.1185
-84.4506
-41.867
19.7528
17.2424
17.3165
13.1179
16.9278
12.9871
11.2673
10.2868
10.3632
9.35081
10.6585
13.788
26.1864
39.0199
28.1975
-23.7482
-92.0637
-91.8189
-45.3141
19.8109
17.63
18.4279
13.1902
15.1122
10.9233
9.60634
9.25567
9.89924
8.60798
9.39962
11.1887
22.3534
34.4228
23.7032
-28.2376
-97.258
-98.038
-49.4447
19.9892
18.0953
19.0679
13.3534
13.257
8.65674
7.77
8.08134
9.4146
7.8294
8.06431
8.33551
18.1352
29.3429
19.1329
-32.3515
-101.141
-102.592
-52.7498
20.1359
18.5245
19.0674
13.3123
11.2883
6.18234
5.75846
6.89597
9.09384
7.21044
6.836
5.53111
13.8214
24.0315
14.6708
-35.6465
-103.454
-105.152
-55.1136
20.0384
18.7208
18.4655
13.0497
9.20031
3.56938
3.72188
5.83263
8.9346
6.8891
5.95252
2.91535
9.51743
18.6463
10.478
-37.6731
-103.923
-105.519
-56.1417
19.8588
18.4752
17.2579
12.4868
6.92479
0.83136
2.00766
5.28864
9.14194
6.95821
5.36616
0.233357
5.09749
13.3038
6.69696
-38.1874
-102.066
-103.827
-54.9649
20.0624
17.9021
15.4047
11.5258
4.49365
-1.16059
1.37963
5.18943
9.07091
6.68967
4.41067
-2.89784
0.567246
8.24541
3.50438
-37.1146
-97.8578
-100.266
-52.9563
20.8792
17.2641
13.0476
10.2392
2.14655
-2.48502
0.0951116
4.66177
8.80075
6.25489
2.2537
-6.51879
-3.45427
4.01838
1.17783
-34.5382
-92.2743
-94.9633
-48.0482
22.1548
17.4926
10.4749
8.82722
-0.0996395
-4.01229
-1.5345
4.02265
8.57029
5.75734
-1.12796
-10.0333
-6.07554
1.43899
0.013685
-30.9099
-86.9114
-88.6528
-46.0145
22.494
18.137
7.76519
7.44019
-2.29267
-5.90315
-3.2823
3.08341
8.40144
5.45383
-4.67631
-12.3751
-6.75622
0.698235
-0.134849
-26.5278
-80.2702
-82.2672
-37.2693
20.8864
18.5778
4.88761
6.15322
-4.46511
-8.00622
-5.28889
2.04908
8.46677
5.39287
-7.67541
-13.7839
-6.12805
0.840751
-0.104816
-21.72
-67.6052
-71.7906
-30.9554
17.1775
18.6939
1.83009
4.99425
-6.65697
-10.2459
-7.53082
0.917203
8.72721
5.49402
-9.66941
-15.134
-5.17561
0.908521
-0.546479
-17.4123
-51.8643
-51.9567
-7.08196
11.6129
18.5915
-1.40038
3.97094
-8.87239
-12.5931
-9.98962
-0.256734
8.98745
5.54375
-10.3585
-16.3679
-4.257
0.537419
-1.63526
-13.7436
-37.5922
-31.9752
7.67259
4.65863
18.4191
-4.79009
3.08242
-11.0815
-14.9716
-12.6001
-1.43633
8.94737
5.29557
-10.1171
-16.9281
-3.69711
-0.0380328
-3.27072
-10.6258
-26.8827
-15.7475
12.2021
-3.15043
18.3505
-8.32451
2.32787
-13.2398
-17.288
-15.2825
-2.58799
8.33178
4.65702
-9.55834
-16.7862
-3.84374
-0.354977
-4.48658
-7.38199
-20.037
-4.7414
13.3807
-11.2691
18.4561
-11.9849
1.71055
-15.3012
-19.466
-17.9533
-3.70198
6.84645
3.74341
-8.93144
-16.248
-4.01835
-0.569493
-4.35009
-4.04238
-14.7086
0.319246
14.9543
725.267
643.045
594.113
538.144
489.329
442.2
398.339
356.868
317.787
280.809
245.766
212.479
180.783
150.674
122.279
94.842
68.3695
46.7556
22.2925
-14.4619
45.2476
22.7406
30.9181
19.9035
17.3132
10.7815
6.01404
0.914783
-3.44049
-7.29036
-10.3747
-12.6343
-13.9406
-14.1375
-12.9367
-10.431
-7.24976
-3.51262
-0.327578
0.561713
23.144
15.1938
22.7155
14.9063
16.1091
11.8472
9.63237
6.08017
2.74839
-0.920133
-4.62334
-8.38909
-12.0359
-15.3307
-17.8671
-19.3203
-20.0345
-20.7574
-22.1355
-22.371
4.03728
-1.51377
0.139124
-7.18007
-7.69751
-13.0719
-15.7427
-19.831
-23.1118
-26.5984
-29.7539
-32.7208
-35.3129
-37.3221
-38.4771
-38.5579
-38.2719
-37.6287
-37.2486
-35.358
-18.5307
-21.3903
-18.4215
-21.9493
-19.0926
-21.1551
-19.7868
-20.2154
-19.5641
-19.1962
-18.5501
-17.8079
-16.9183
-15.8135
-14.4645
-12.6159
-10.5374
-7.79718
-5.40385
-1.78699
5.27579
5.566
9.54678
8.37236
12.5217
12.4392
15.3092
16.6168
18.7213
20.6149
22.6101
24.6461
26.7015
28.7989
30.9115
33.1187
35.3217
37.7474
39.7709
42.4426
36.8683
38.2181
41.3209
40.7216
44.1601
44.2459
46.6375
47.6244
49.1931
50.3966
51.5171
52.437
53.1638
53.7867
54.5161
55.5515
56.9589
58.6277
59.9439
61.1496
52.9813
54.1109
55.791
55.3129
57.5609
57.3575
59.0652
59.5089
60.6285
61.2732
61.9701
62.4792
62.9165
63.2141
63.288
62.9434
62.2141
61.1058
60.8825
60.3134
66.7979
65.258
66.0632
64.3705
65.467
64.1931
64.7693
63.8876
63.6933
62.7148
61.6482
59.9028
57.5395
54.3329
50.4846
46.4104
42.9736
41.3898
40.7813
36.9771
22.0127
16.301
15.0216
10.4104
8.34891
4.02203
1.12859
-3.00912
-6.39128
-10.1251
-13.2053
-15.9893
-18.0836
-19.5872
-20.3559
-20.6708
-20.9265
-21.1571
-22.3888
-24.3806
-24.3754
-29.7075
-30.4663
-33.9796
-35.4278
-38.6348
-40.5822
-43.5077
-45.7509
-48.2089
-50.218
-52.0895
-53.7129
-55.1633
-56.385
-57.4141
-58.0283
-57.8971
-57.4665
-54.6473
-32.582
-33.7948
-33.3314
-34.6768
-34.3491
-35.4099
-35.4597
-36.2568
-36.6351
-37.1795
-37.4773
-37.5905
-37.3821
-36.7354
-35.5478
-33.6286
-31.1964
-28.0875
-25.7904
-22.2714
-11.1808
-9.41803
-7.39523
-6.38478
-4.49395
-3.36266
-1.64566
-0.215244
1.4324
3.07938
4.81581
6.63765
8.53883
10.5459
12.604
14.7601
16.8242
18.9472
20.5602
22.9947
9.21629
11.4223
13.8281
15.6036
17.6003
19.0544
20.7716
22.2533
23.7765
25.224
26.6234
27.9752
29.2624
30.5064
31.6731
32.8308
33.8705
35.023
35.8277
37.0118
25.3178
27.6298
29.4016
31.0464
32.6649
33.9127
35.3192
36.506
37.7064
38.8227
39.8958
40.9344
41.9482
42.973
44.0194
45.165
46.3219
47.6733
48.678
50.1143
47.9807
49.738
50.4395
51.4587
52.3175
53.0373
53.8921
54.612
55.4059
56.1859
57.0133
57.891
58.8372
59.8559
60.9574
62.0994
63.227
64.3242
65.0722
65.9459
59.4339
60.8451
61.0997
62.1411
62.8363
63.6675
64.5943
65.467
66.311
66.9496
67.286
67.1396
66.4182
65.086
63.3652
61.7128
60.9691
60.9192
61.4725
61.251
79.732
79.518
78.1863
77.8643
77.5229
77.3911
76.8761
75.9257
74.5956
72.7875
70.4635
67.5765
64.1406
60.3035
56.5621
53.5804
51.7253
50.7606
51.0236
49.4455
53.474
51.252
48.6246
46.7494
44.6329
42.0293
39.329
37.0662
35.1722
33.4232
31.7807
30.2126
28.6749
27.1859
25.785
24.5276
23.6337
23.5679
23.9817
22.1918
47.9994
45.8766
45.7429
44.8525
43.4552
41.599
39.4569
37.0994
34.4589
31.574
28.6588
25.7852
22.7907
19.9767
17.5315
15.4953
13.8906
12.642
11.2159
9.35918
)
;

boundaryField
{
    outletWallLeft
    {
        type            fixedValue;
        value           uniform 0;
    }
    fineWallsLeft
    {
        type            zeroGradient;
    }
    fineFrontAndBackLeft
    {
        type            zeroGradient;
    }
    fineplugLeft
    {
        type            cyclicAMI;
        value           nonuniform List<scalar> 
20
(
80.0398
84.6952
79.4636
78.3196
77.7725
77.2453
76.6445
75.9919
75.4987
74.7329
74.543
77.5
70.9489
69.9206
69.2286
68.4441
67.9123
67.015
67.3841
65.2306
)
;
    }
    symmetryWallLeft
    {
        type            cyclicAMI;
        value           nonuniform List<scalar> 
20
(
10.8844
15.2861
1.81363
-11.9149
-2.97124
-3.94679
-0.647595
-3.97472
-15.8717
-8.53093
3.23459
5.53829
-4.26092
-19.2487
-20.4639
-16.265
1.47367
-13.8794
18.682
-15.4829
)
;
    }
    inletOutletLeft
    {
        type            cyclicAMI;
        value           nonuniform List<scalar> 
20
(
65.2306
67.3841
67.015
67.9123
68.4441
69.2286
69.9206
70.9489
77.5
74.543
74.7329
75.4987
75.9919
76.6445
77.2453
77.7725
78.3196
79.4636
84.6952
80.0398
)
;
    }
    inletLeft
    {
        type            zeroGradient;
    }
    inletWallsLeft
    {
        type            zeroGradient;
    }
    inletFacesLeft
    {
        type            zeroGradient;
    }
    fineWallsRight
    {
        type            zeroGradient;
    }
    outletWallRight
    {
        type            zeroGradient;
    }
    fineplugRight
    {
        type            cyclicAMI;
        value           nonuniform List<scalar> 
20
(
3.33795
4.6071
4.73354
5.37845
6.55989
8.54671
11.2275
13.5823
19.6575
21.8465
24.6759
27.4029
29.8283
31.8824
33.4129
34.0384
33.6446
32.9109
35.1848
32.9977
)
;
    }
    fineFrontAndBackRight
    {
        type            zeroGradient;
    }
    symmetryWallRight
    {
        type            cyclicAMI;
        value           nonuniform List<scalar> 
20
(
10.8844
15.2861
1.81363
-11.9149
-2.97124
-3.94679
-0.647595
-3.97472
-15.8717
-8.53093
3.23459
5.53829
-4.26092
-19.2487
-20.4639
-16.265
1.47367
-13.8794
18.682
-15.4829
)
;
    }
    inletOutletRight
    {
        type            cyclicAMI;
        value           nonuniform List<scalar> 
20
(
3.33795
4.6071
4.73354
5.37845
6.55989
8.54671
11.2275
13.5823
19.6575
21.8465
24.6759
27.4029
29.8283
31.8824
33.4129
34.0384
33.6446
32.9109
35.1848
32.9977
)
;
    }
    inletRight
    {
        type            zeroGradient;
    }
    inletWallsRight
    {
        type            zeroGradient;
    }
    inletFacesRight
    {
        type            zeroGradient;
    }
}


// ************************************************************************* //
