/*--------------------------------*- C++ -*----------------------------------*\
| =========                 |                                                 |
| \\      /  F ield         | OpenFOAM: The Open Source CFD Toolbox           |
|  \\    /   O peration     | Version:  4.1                                   |
|   \\  /    A nd           | Web:      www.OpenFOAM.org                      |
|    \\/     M anipulation  |                                                 |
\*---------------------------------------------------------------------------*/
FoamFile
{
    version     2.0;
    format      ascii;
    class       surfaceScalarField;
    location    "10";
    object      phi;
}
// * * * * * * * * * * * * * * * * * * * * * * * * * * * * * * * * * * * * * //

dimensions      [0 3 -1 0 0 0 0];

internalField   nonuniform List<scalar> 
3120
(
4611.5
-56.6906
4611.5
4609.65
1.84277
4609.65
4695.81
-86.1635
4799.55
-103.734
4799.55
4965.17
-165.63
5158.39
-193.217
5158.39
5422.17
-263.786
5422.17
5751.44
-329.273
6150.21
-398.771
6150.21
6650.44
-500.235
6650.44
7392.43
-741.994
7730.67
-338.231
7730.67
8306.81
10878.2
-1585.59
11864
12827.1
13793.2
14766.2
15745.8
16731.1
17721.6
18716.8
19718.3
18099.2
2619.22
19120.2
20149.3
21183.7
22223.5
23267.2
24342.8
25449.1
26197
19855.2
6341.79
19855.2
19855.2
12515.7
7339.53
12515.7
12515.7
12515.7
5325.87
7189.8
5325.87
5325.87
-35.8708
5361.65
-36.1579
-36.4329
-36.5415
-682.584
646.043
-682.594
-682.603
-682.622
-468.328
-214.315
-957.544
27940.3
-1797.6
14500.3
-2623.31
18024.1
-2567.16
13764.6
-2981.36
14443.5
-3176.62
5741.84
-2679.85
-5586.99
-1685.63
-12397
-500.771
-9858.57
-278.412
6294.57
-36.6287
6378.59
353.343
-5179.87
-112.158
-8770.66
-48.8129
-3534.02
-1001.67
-4646.84
-4824.3
-8482.65
-7456.08
-12738
-4993.52
-11327.8
-5646.27
-368.696
28457
-1062.44
15194
-2247.66
19209.3
-2288.09
13805.1
-2653.3
14808.8
-2889.04
5977.58
-2426.97
-6049.06
-1526.56
-13297.4
-388.003
-10997.1
50.7922
5855.77
316.911
6112.47
510.032
-5372.99
-102.517
-8158.11
-232.373
-3404.17
-762.418
-4116.79
-3783.75
-5461.33
-7320.9
-9200.82
-6940.88
-11707.9
-11941.1
21.8218
28628.5
-356.553
15572.4
-1757.84
20610.6
-1985.08
14032.3
-2313.18
15136.9
-2559.73
6224.13
-2107.83
-6500.96
-1335.09
-14070.2
-489.312
-11842.9
180.412
5186.05
673.252
5619.63
661.881
-5361.62
-70.6778
-7425.56
-213.849
-3261
-395.027
-3935.61
-2325.91
-3530.44
-5740.53
-5786.2
-7529.46
-9918.92
-14108.9
230.249
28639.5
201.096
15601.6
-1207.7
22019.4
-1646.14
14470.7
-1966.49
15457.2
-2199.77
6457.4
-1728.82
-6971.91
-1101.34
-14697.7
-720.713
-12223.5
132.565
4332.77
928.972
4823.22
736.147
-5168.8
-34.7323
-6654.68
-172.296
-3123.43
-138.527
-3969.38
-801.288
-2867.68
-3363.04
-3224.45
-6627.99
-6653.98
-13547.1
318.72
28614.1
541.156
15379.1
-701.765
23262.3
-1272.7
15041.7
-1619.06
15803.6
-1849.41
6687.76
-1346.13
-7475.19
-853.583
-15190.2
-951.103
-12126
-12.0616
3393.73
1009.34
3801.82
687.962
-4847.42
-36.1532
-5930.56
-133.172
-3026.41
-153.793
-3948.76
65.5753
-3087.05
-830.99
-2327.88
-4208.71
-3276.26
-10416.3
313.266
28649.2
653.943
15038.4
-319.193
24235.5
-885.326
15607.8
-1277.07
16195.3
-1545.2
6955.89
-1026.53
-7993.86
-651.757
-15565
-1103
-11674.8
-186.147
2476.87
887.794
2727.88
517.731
-4477.36
-90.1793
-5322.65
-96.0162
-3020.58
-127.383
-3917.4
-25.4254
-3189.01
213.942
-2567.25
-1341.85
-1720.48
-5416.34
180.341
28873.4
567.551
14651.2
-93.708
24896.7
-523.462
16037.6
-947.298
16619.2
-1278.57
7287.16
-784.016
-8488.41
-543.154
-15805.8
-1188.13
-11029.8
-333.624
1622.37
643.709
1750.55
306.391
-4140.04
-145.902
-4870.36
-69.4281
-3097.05
-103.091
-3883.73
9.38942
-3301.48
10.82
-2568.68
650.262
-2359.92
-2146.85
-98.1466
29427.5
353.366
14199.7
-25.6877
25275.8
-235.642
16247.5
-639.463
17023
-1002.09
7649.79
-567.499
-8923
-515.683
-15857.7
-1239.36
-10306.1
-378.833
761.84
435.591
936.121
166.27
-3870.72
-152.933
-4551.16
-47.798
-3202.19
-82.9811
-3848.55
13.212
-3397.68
113.011
-2668.48
886.628
-3133.54
-2845.82
-489.329
30420.9
75.2606
13635.1
-91.0872
25442.1
-55.7975
16212.2
-369.698
17336.9
-677.641
7957.73
-309.901
-9290.74
-503.973
-15663.6
-1233.19
-9576.89
-282.951
-188.399
385.186
267.985
113.406
-3598.94
-125.616
-4312.13
-30.9377
-3296.86
-65.1298
-3814.36
17.3866
-3480.19
148.497
-2799.59
301.485
-3286.52
-2882.55
-905.596
31873.6
-245.687
12975.2
-261.861
25458.3
5.96096
15944.4
-161.107
17503.9
-313.805
8110.43
16.7201
-9621.27
-443.048
-15203.8
-1171.11
-8848.83
-147.342
-1212.17
448.742
-328.101
84.6833
-3234.88
-98.8507
-4128.6
-18.8368
-3376.88
-50.0706
-3783.13
24.0329
-3554.3
139.42
-2914.98
434.243
-3581.35
-3190.3
-1366.13
33839.4
-669.408
12278.5
-511.704
25300.6
-53.687
15486.4
-48.3978
17498.7
27.7717
8034.26
377.599
-9971.1
-322.341
-14503.9
-1091.08
-8080.08
-349.065
-1954.18
176.265
-853.43
35.855
-3094.47
-78.825
-4013.92
-10.5334
-3445.17
-37.1037
-3756.56
26.7554
-3618.16
139.249
-3027.47
285.303
-3727.4
-3405.23
-1910.77
36380.7
-1243.06
11610.8
-827.57
24885.1
-242.896
14901.7
-57.9643
17313.7
281.156
7695.14
684.739
-10374.7
-206.852
-13612.3
-1001.68
-7285.26
-491.751
-2464.11
-18.7104
-1326.47
14.2842
-3127.46
-61.0925
-3938.55
-5.17476
-3501.09
-25.6725
-3736.06
30.1613
-3673.99
129.218
-3126.53
249.859
-3848.04
-3554.14
-2811.3
39899.9
-2085.24
10884.7
-1234.49
24034.4
-584.127
14251.3
-210.587
16940.2
416.491
7068.06
851.102
-10809.3
-184.463
-12576.7
-919.466
-6550.25
-507.047
-2876.53
-89.1427
-1744.37
3.74089
-3220.35
-46.8236
-3887.98
-2.00094
-3545.91
-15.5521
-3722.51
31.2259
-3720.77
118.475
-3213.77
224.036
-3953.59
-3659.37
-3752.95
44338
-2951.65
10083.4
-1722.98
22805.7
-1035.83
13564.2
-455.193
16359.5
440.795
6172.08
819.568
-11188.1
-287.806
-11469.3
-850.986
-5987.07
-486.213
-3241.3
-119.896
-2110.69
-0.186431
-3340.06
-35.8153
-3852.35
-0.0409418
-3581.69
-6.98944
-3715.56
30.3703
-3758.13
105.596
-3289
164.802
-4012.8
-3758.36
-5498.89
50728.5
-4184.89
8769.43
-2242.31
20863.1
-1549.01
12870.9
-742.483
15553
367.593
5062
620.487
-11441
-455.139
-10393.7
-774.661
-5667.55
-447.945
-3568.02
-126.614
-2432.02
0.616278
-3467.29
-27.774
-3823.96
1.53103
-3610.99
-0.325932
-3713.7
27.4975
-3785.95
92.4704
-3353.97
137.136
-4057.46
-3814.43
-6081.49
57434.7
-4679.77
7367.71
-2677.95
18861.3
-1920.65
12113.6
-883.006
14515.4
323.802
3855.19
375.118
-11492.3
-575.245
-9443.36
-673.495
-5569.3
-400.288
-3841.23
-117.776
-2714.54
3.00651
-3588.07
-22.1528
-3798.8
3.06833
-3636.21
4.17535
-3714.81
22.7322
-3804.51
80.7029
-3411.94
120.115
-4096.88
-3859.95
-9796.74
68656.8
-6750.3
4321.27
-2685.9
14796.9
-2236.99
11664.7
-1048.2
13326.6
194.238
2612.75
209.669
-11507.7
-586.943
-8646.74
-555.364
-5600.88
-342.143
-4054.45
-100.469
-2956.21
5.24707
-3693.79
-17.9123
-3775.64
4.59721
-3658.72
5.76073
-3715.97
17.8883
-3816.64
67.9447
-3461.99
82.8264
-4111.76
-3880.85
-7039.67
75620.6
-4270.95
1552.55
-3102.48
13628.4
-2209.21
10771.4
-805.741
11923.1
333.813
1473.2
150.994
-11324.9
-541.433
-7954.32
-456.279
-5686.04
-285.147
-4225.58
-80.135
-3161.22
7.54816
-3781.47
-14.4958
-3753.6
6.05032
-3679.27
4.68291
-3714.61
14.3186
-3826.27
55.7756
-3503.45
62.8131
-4118.79
-3904.2
-11314.6
90542.1
-7043.96
-2718.08
-440.25
7024.73
-2257.63
12588.8
-1102.32
10767.8
123.605
247.277
97.2662
-11298.5
-464.004
-7393.05
-367.083
-5782.96
-234.061
-4358.6
-46.9997
-3348.28
5.67959
-3834.15
-10.9114
-3737.01
5.9947
-3696.17
5.03181
-3713.64
5.51012
-3826.75
50.6341
-3548.57
22.731
-4090.89
-3879.63
-23532.3
-3118.86
-13602.1
-1821.11
-860.737
1862.67
58.3099
-188.958
-151.275
-104.433
0.765908
-1.42246
-3.72959
2.07357
5.36536
-6.43966
31.5961
19.2595
-15.0055
-561.142
49.0983
-1049.91
103.258
-1039.93
143.102
-1002.93
176.711
-999.783
204.029
-1000.3
225.796
-1001.4
242.563
-1002.01
255.236
-1003.18
264.579
-1004.53
268.873
-1005.79
272.224
-1003.46
258.101
-1006.91
239.463
-1010.47
217.819
-1012.77
193.596
-1015.58
167.811
-1017.95
146.646
-1054.38
120.277
-1079.94
-627.606
44.3457
-605.488
53.3694
-1058.94
44.1958
-1030.76
41.7092
-1000.45
42.5745
-1000.65
43.444
-1001.17
44.1426
-1002.1
44.5039
-1002.38
44.6172
-1003.29
43.9598
-1003.87
43.0701
-1004.9
46.5058
-1006.89
46.6639
-1007.07
44.3963
-1008.2
40.6761
-1009.05
35.4453
-1010.35
29.5048
-1012.01
20.01
-1044.88
10.5541
-1070.48
-617.052
24.1209
-629.609
26.7053
-1061.52
23.01
-1027.06
22.7387
-1000.18
22.7152
-1000.63
22.4448
-1000.9
22.0031
-1001.66
21.3833
-1001.76
20.4645
-1002.37
19.316
-1002.72
17.6786
-1003.26
14.3678
-1003.58
11.589
-1004.29
8.55126
-1005.16
5.05806
-1005.56
1.00344
-1006.29
-3.92246
-1007.09
-11.6663
-1037.14
-13.937
-1068.21
-630.989
20.4562
-650.065
20.7882
-1061.85
16.3927
-1022.67
14.4329
-998.217
12.7856
-998.978
11.1043
-999.215
9.35574
-999.909
7.57166
-999.972
5.71709
-1000.52
3.74979
-1000.75
1.70915
-1001.22
-0.199636
-1001.68
-2.47431
-1002.01
-5.03217
-1002.6
-7.75852
-1002.83
-10.7284
-1003.33
-14.2091
-1003.61
-21.7127
-1029.64
-22.8189
-1067.11
-653.808
19.6825
-669.748
18.8068
-1060.98
14.2959
-1018.15
12.1334
-996.055
10.1301
-996.975
8.08289
-997.168
5.98947
-997.815
3.89326
-997.876
1.75228
-998.376
-0.413701
-998.587
-2.63072
-999.004
-4.97474
-999.331
-7.3027
-999.684
-9.71264
-1000.19
-12.1475
-1000.4
-14.6269
-1000.85
-17.4763
-1000.76
-24.0658
-1023.05
-25.186
-1065.99
-678.994
19.8311
-689.579
18.4573
-1059.6
13.9835
-1013.68
11.8862
-993.958
9.89903
-994.988
7.88146
-995.151
5.81955
-995.754
3.76078
-995.817
1.67127
-996.287
-0.43584
-996.48
-2.56494
-996.875
-4.71654
-997.18
-6.89606
-997.504
-9.14129
-997.947
-11.3834
-998.154
-13.6446
-998.585
-16.0903
-998.311
-21.855
-1017.28
-23.8203
-1064.02
-702.814
20.2693
-709.849
18.2769
-1057.61
13.8519
-1009.26
11.8124
-991.918
9.85685
-993.032
7.8717
-993.166
5.8524
-993.734
3.84439
-993.81
1.81472
-994.257
-0.217442
-994.448
-2.25975
-994.833
-4.32465
-995.115
-6.38134
-995.448
-8.4777
-995.851
-10.5483
-996.084
-12.6263
-996.507
-14.776
-996.161
-19.7302
-1012.33
-22.3406
-1061.41
-725.154
20.476
-730.325
17.9072
-1055.04
13.6444
-1004.99
11.7307
-990.005
9.85504
-991.157
7.95487
-991.266
6.02046
-991.8
4.09785
-991.887
2.15391
-992.314
0.209369
-992.504
-1.74417
-992.88
-3.71235
-993.147
-5.67414
-993.486
-7.67142
-993.854
-9.63893
-994.117
-11.6201
-994.526
-13.6053
-994.176
-18.0591
-1007.87
-21.2667
-1058.2
-746.421
20.5508
-750.876
17.3564
-1051.85
13.3014
-1000.94
11.4929
-988.197
9.68635
-989.35
7.85958
-989.439
6.0004
-989.941
4.15372
-990.041
2.28584
-990.446
0.419622
-990.638
-1.45595
-991.004
-3.3439
-991.259
-5.22432
-991.606
-7.13693
-991.941
-9.01879
-992.235
-10.9216
-992.623
-12.7842
-992.314
-16.8615
-1003.8
-20.6371
-1054.43
-767.058
20.5013
-771.377
16.6828
-1048.03
12.87
-997.126
11.1656
-986.492
9.42782
-987.613
7.67573
-987.687
5.89142
-988.157
4.11956
-988.269
2.32546
-988.652
0.534085
-988.847
-1.26865
-989.202
-3.08166
-989.446
-4.88972
-989.798
-6.72829
-990.103
-8.53759
-990.426
-10.3751
-990.785
-12.1412
-990.548
-15.9198
-1000.02
-20.2684
-1050.08
-787.327
20.4014
-791.779
15.9555
-1043.58
12.4012
-993.572
10.7886
-984.88
9.11543
-985.94
7.43335
-986.005
5.71979
-986.444
4.01859
-986.568
2.29436
-986.928
0.574072
-987.127
-1.1597
-987.468
-2.90141
-987.705
-4.64102
-988.058
-6.40868
-988.335
-8.14932
-988.685
-9.92391
-989.011
-11.6043
-988.867
-15.1099
-996.513
-20.039
-1045.15
-807.366
20.2753
-812.054
15.2057
-1038.51
11.9184
-990.285
10.39
-983.352
8.78042
-984.33
7.16695
-984.392
5.52264
-984.799
3.89052
-984.936
2.23465
-985.272
0.583916
-985.476
-1.08257
-985.802
-2.75426
-986.033
-4.42747
-986.385
-6.12542
-986.637
-7.79951
-987.011
-9.51161
-987.299
-11.1138
-987.265
-14.3563
-993.271
-19.8716
-1039.64
-827.237
20.1446
-832.199
14.4528
-1032.82
11.4373
-987.269
9.98585
-981.9
8.43975
-982.784
6.89389
-982.846
5.31785
-983.224
3.75368
-983.372
2.16523
-983.684
0.582844
-983.894
-1.01738
-984.202
-2.61984
-984.431
-4.22807
-984.777
-5.85643
-985.009
-7.46534
-985.402
-9.11425
-985.65
-10.6441
-985.736
-13.626
-990.289
-19.7299
-1033.53
-846.967
20.0184
-852.218
13.7035
-1026.51
10.9629
-984.529
9.58327
-980.521
8.10219
-981.304
6.62466
-981.369
5.11711
-981.716
3.62112
-981.876
2.10051
-982.163
0.586098
-982.379
-0.947753
-982.668
-2.48109
-982.898
-4.02537
-983.233
-5.58365
-983.451
-7.12911
-983.857
-8.71394
-984.065
-10.1772
-984.273
-12.9009
-987.565
-19.5928
-1026.84
-866.56
19.9097
-872.128
12.9646
-1019.56
10.5006
-982.065
9.18892
-979.209
7.7744
-979.889
6.36641
-979.961
4.92713
-980.277
3.49911
-980.448
2.04664
-980.711
0.599157
-980.932
-0.868045
-981.201
-2.33262
-981.433
-3.8137
-981.752
-5.30045
-981.964
-6.78427
-982.373
-8.30269
-982.547
-9.7044
-982.871
-12.1724
-985.098
-19.4469
-1019.57
-886.007
19.8436
-891.971
12.2548
-1011.97
10.0742
-979.884
8.83294
-977.968
7.4893
-978.546
6.15512
-978.627
4.78458
-978.907
3.423
-979.087
2.03673
-979.325
0.651003
-979.547
-0.754039
-979.796
-2.15675
-980.031
-3.58112
-980.328
-5.00087
-980.545
-6.43161
-980.943
-7.88327
-981.095
-9.23062
-981.524
-11.4479
-982.88
-19.2852
-1011.73
-905.292
19.8668
-911.838
11.6131
-1003.72
9.74409
-978.015
8.60072
-976.825
7.34914
-977.294
6.1109
-977.389
4.82695
-977.623
3.54386
-977.804
2.23358
-978.015
0.913347
-978.226
-0.429115
-978.454
-1.77738
-978.682
-3.15518
-978.95
-4.52516
-979.175
-5.92965
-979.538
-7.33332
-979.692
-8.6675
-980.189
-10.6721
-980.876
-19.0372
-1003.36
-924.329
20.0761
-931.914
11.1014
-994.746
9.58914
-976.503
8.60406
-975.84
7.48239
-976.173
6.37065
-976.277
5.20196
-976.454
4.01673
-976.619
2.79894
-976.797
1.55763
-976.985
0.289108
-977.185
-0.997258
-977.396
-2.31842
-977.629
-3.6395
-977.854
-5.02044
-978.157
-6.37945
-978.333
-7.75898
-978.81
-9.59862
-979.036
-18.42
-994.542
-942.749
20.7985
-952.713
11.0691
-985.016
9.96423
-975.398
9.2511
-975.127
8.35671
-975.278
7.4314
-975.352
6.42314
-975.446
5.3517
-975.547
4.21256
-975.658
3.00842
-975.781
1.74115
-975.918
0.416587
-976.072
-0.967641
-976.245
-2.38519
-976.436
-3.87437
-976.668
-5.32807
-976.879
-6.87855
-977.26
-8.53105
-977.384
-17.5626
-985.51
-960.312
22.2871
12.2709
11.8725
11.7455
11.4673
11.1154
10.6694
10.1222
9.46436
8.68332
7.76527
6.69363
5.44872
4.01233
2.34421
0.465079
-1.79446
-4.17813
-14.6882
-468.445
-133.71
-334.807
-133.893
-134.084
-134.146
-2372.12
2237.97
-2372.13
-2372.13
-2372.13
-7368.67
4996.54
-7368.67
-7368.67
-14244.8
6876.1
-14244.8
-14244.8
-14244.8
-21732.5
7487.71
-21732.5
-21732.5
-28223.8
6491.31
-27889.5
-27502.5
-27173.5
-26859
-26488.2
-26006.4
-25379.2
-24600.7
-29323.2
5631.23
-28280.4
-27109.4
-25814.2
-24388.5
-22823.3
-21128.9
-19377.5
-17706.4
-16232.3
-14748.6
-248.295
-14106.8
-14106.8
-14654.8
548.044
-14478.8
-175.966
-14478.8
-13876.9
-601.922
-13876.9
-12743.8
-1133.05
-11037.5
-1706.36
-11037.5
-8822.19
-2215.29
-8822.19
-6165.54
-2656.65
-3421.81
-2743.73
-3421.81
-745.874
-2675.93
1063.16
-1809.03
1063.17
1271.9
-208.722
1271.9
1271.9
1053.74
-1053.74
1469
-415.269
1240.54
228.464
-299.99
1540.53
-418.453
118.463
-1787.54
1369.08
-3371.65
1584.12
-4374.23
1002.58
-4828.57
454.336
-4909.58
81.0101
-4583.85
-325.725
-3803.25
-780.605
-2136.26
-1666.98
829.116
-2965.38
4400.34
-3571.23
7404.5
-3004.16
6926.11
478.401
2145.08
4781.03
3416.98
704.002
-1757.74
1094.21
-805.475
1201.32
121.349
-99.1947
2841.05
-2177.07
2196.34
-4148.31
3340.32
-5216.32
2652.12
-5515.84
1302.09
-5556.16
494.664
-5483.2
8.04861
-5135.3
-673.627
-4351.63
-1564.28
-2696.91
-3321.71
73.4999
-5735.79
3579.57
-7077.3
6651.79
-6076.38
7808.55
-678.353
4763.49
7826.09
7971.76
506.286
-2264.02
204.875
-504.064
497.967
-171.743
-482.204
3821.22
-3337.14
5051.27
-5039.75
5042.94
-5509.17
3121.54
-5720.21
1513.13
-5894.6
669.052
-5909.79
23.2365
-5608.89
-974.521
-4870.88
-2302.29
-3304
-4888.59
-737.062
-8302.73
2621.91
-10436.3
5490.3
-8944.77
6955.34
-2143.39
5566.57
9214.86
11729.3
268.366
-2532.39
-193.629
-42.0692
-685.211
319.839
-2044.17
5180.18
-4322.26
7329.36
-5387.38
6108.06
-5707.78
3441.95
-6027.04
1832.39
-6248.02
890.03
-6284.18
59.3982
-6012.99
-1245.72
-5342.2
-2973.08
-3916.21
-6314.58
-1579.29
-10639.6
1524.56
-13540.1
4314.23
-11734.4
5861.12
-3690.27
5427.41
9648.57
14480.8
-348.753
-2183.64
-1738.29
1347.47
-3033.64
1615.18
-3881.37
6027.91
-5021.64
8469.63
-5620.8
6707.22
-5976.78
3797.93
-6314.94
2170.55
-6498.29
1073.38
-6509.46
70.5653
-6244.69
-1510.48
-5674.48
-3543.3
-4468.86
-7520.2
-2432.78
-12675.7
364.793
-16337.7
3062.38
-14432
4639.28
-5267.17
4814.95
9472.9
16552
-652.233
-1531.4
-2545.29
3240.53
-4328.05
3397.93
-4915.98
6615.84
-5404.37
8958.02
-5840.17
7143.02
-6224.71
4182.46
-6479.29
2425.14
-6542.61
1136.7
-6449.62
-22.4163
-6182.26
-1777.85
-5801.37
-3924.19
-4931.53
-8390.03
-3264.42
-14342.8
-810.064
-18792.1
1773.79
-17015.9
3380.98
-6874.36
3936.1
8917.78
17831.5
-703.736
-827.668
-2652.25
5189.05
-4664.78
5410.46
-5251.27
7202.33
-5593.04
9299.8
-6034.38
7584.36
-6359.64
4507.72
-6407.8
2473.29
-6203.88
932.779
-5925.87
-300.425
-5747.89
-1955.83
-5742.17
-3929.9
-5320.12
-8812.08
-4059.27
-15603.7
-1957.71
-20893.6
473.049
-19446.6
2095.71
-8497.02
2925.79
8087.69
18542
-539.086
-288.582
-2283.97
6933.94
-4498.59
7625.08
-5277.28
7981.02
-5696.93
9719.45
-6153.54
8040.97
-6262.84
4617.02
-5867.49
2077.94
-5203.02
268.317
-4836.35
-667.101
-5075
-1717.18
-5660.24
-3344.66
-5677.89
-8794.43
-4787.44
-16494.1
-3046.21
-22634.8
-843.514
-21649.3
789.048
-10129.6
1862.96
7013.79
18698.6
-248.589
-39.9931
-1670.58
8355.93
-4122.74
10077.2
-5206.82
9065.1
-5763.74
10276.4
-6089.82
8367.05
-5543.74
4070.93
-4213.39
747.598
-3234.54
-710.536
-3504.49
-397.149
-4614.76
-606.911
-5755.57
-2203.85
-6003.99
-8546.02
-5395.23
-17102.9
-4045.22
-23984.8
-2144.62
-23549.9
-518.199
-11756
723.911
5771.68
18289.4
-95.5936
55.6003
-1271.45
9531.79
-3771.94
12577.7
-5108.33
10401.5
-5690.85
10858.9
-5358.15
8034.35
-3484.44
2197.22
-1497.6
-1239.24
-1203.61
-1004.53
-2784.56
1183.8
-4708.21
1316.73
-5987.88
-924.178
-6172.41
-8361.48
-5775.95
-17499.4
-4907.38
-24853.4
-3395.63
-25061.7
-1797.26
-13354.4
-363.303
4337.72
17324.2
-510.738
566.339
-1564.85
10585.9
-3635.54
14648.4
-4952.93
11718.9
-5341.79
11247.8
-4386.79
7079.35
-2733.2
543.636
-1572.2
-2400.24
-1097.56
-1479.17
-2576.72
2662.96
-4866.65
3606.66
-5992.05
201.218
-5923.93
-8429.6
-5766.66
-17656.6
-5568.68
-25051.4
-4570.73
-26059.6
-2912.55
-15012.5
-1219.52
2644.69
15928.7
-1773.01
2339.35
-2431.75
11244.6
-3714.76
15931.4
-4722.16
12726.3
-4901.19
11426.8
-3992.63
6170.79
-3016.86
-432.141
-2101.76
-3315.34
-1225.46
-2355.47
-2365.84
3803.34
-4553.32
5794.14
-5354.28
1002.17
-4976.89
-8806.99
-5239.58
-17393.9
-5972.34
-24318.6
-5672.31
-26359.7
-3822.67
-16862.2
-1998.95
820.967
14477.8
-2969.07
5308.41
-3289.6
11565.2
-3858.93
16500.8
-4460.98
13328.3
-4571.26
11537.1
-4009.6
5609.13
-3309.01
-1132.74
-2355.26
-4269.08
-1492.04
-3218.69
-2310.29
4621.6
-3980.95
7464.8
-4044.81
1066.04
-3349.43
-9502.38
-4317.76
-16425.6
-6122.73
-22513.7
-6695.86
-25786.5
-4677.02
-18881
-2295.11
-1560.95
11934.4
-3649.7
8958.12
-3775.81
11691.3
-3928.12
16653.1
-4215.06
13615.3
-4365.03
11687
-4070.52
5314.62
-3477.2
-1726.06
-2520.28
-5226
-1749.27
-3989.7
-2333.4
5205.74
-3305
8436.39
-2544.15
305.192
-1752.77
-10293.8
-3514.98
-14663.4
-6129.69
-19899
-7558.02
-24358.2
-6313.47
-20125.6
-4075.67
-3798.75
13490
-3853.9
12812
-3888.27
11725.6
-3873.88
16638.7
-3995.63
13737
-4231.38
11922.8
-4110.66
5193.9
-3551.98
-2284.74
-2588.91
-6189.07
-1912.23
-4666.38
-2352.87
5646.37
-2624.47
8707.99
-1520.47
-798.8
-1071.85
-10742.4
-3373.8
-12361.4
-6166.98
-17105.8
-8029.86
-22495.3
-8434.94
-19720.5
-7029.07
-5204.62
12952.2
-3744.12
16556.1
-3774.19
11755.7
-3721.25
16585.7
-3789.52
13805.3
-4116.56
12249.8
-4100.59
5177.93
-3542.51
-2842.82
-2553.71
-7177.87
-1930.39
-5289.71
-2279.12
5995.1
-2018.75
8447.62
-1017.53
-1800.03
-1181.41
-10578.5
-3769.1
-9773.74
-6270.16
-14604.7
-7856.22
-20909.3
-9265.18
-18311.5
-9076.84
-5392.96
11363.1
-3425.04
19981.2
-3559.93
11890.6
-3520.71
16546.5
-3577.32
13861.9
-3980.37
12652.9
-4023.52
5221.08
-3455.6
-3410.73
-2425.04
-8208.43
-1775.01
-5939.74
-2051.76
6271.84
-1560.82
7956.69
-666.151
-2694.7
-1239.88
-10004.8
-3916.13
-7097.49
-6210.44
-12310.4
-7310.6
-19809.1
-8598.73
-17023.4
-9057.9
-4933.79
9181.27
-2938.78
22920
-3289.94
12241.8
-3313.06
16569.6
-3346.76
13895.6
-3799.36
13105.5
-3875.7
5297.42
-3300.93
-3985.5
-2234.75
-9274.61
-1479.22
-6695.27
-1677.6
6470.22
-1148.69
7427.78
-332.566
-3510.82
-797.824
-9539.52
-3088.72
-4806.59
-5515.95
-9883.18
-6795.57
-18529.5
-7282.53
-16536.4
-7371.88
-4844.45
6805.92
-2311.33
25231.3
-2935.55
12866
-3111.34
16745.4
-3097.2
13881.4
-3566.81
13575.1
-3671.3
5401.91
-3104.58
-4552.21
-2028.78
-10350.4
-1121.14
-7602.91
-1215.11
6564.19
-752.044
6964.72
-39.76
-4223.1
-156.983
-9422.3
-1375.44
-3588.14
-3857.44
-7401.18
-6330
-16056.9
-6464.61
-16401.8
-5289
-6020.05
3754.88
-1648.95
-2443.2
-2896.17
-2835.5
-3289.76
-3434.44
-2896.43
-1844.04
-773.247
-725.987
-381.643
185.15
-0.983646
-118.444
-1919.93
-5671.57
-6703.66
-3858.47
-662.61
1637.61
-1071.22
1383.61
-1489.07
1392.85
-1822.64
1308.57
-2117.36
1269.72
-2361.86
1219.51
-2564.22
1177.36
-2724.07
1134.85
-2843.66
1094.59
-2923.91
1055.25
-2965.17
1016.25
-2965.23
975.064
-2918.32
928.09
-2814.3
870.979
-2638.8
799.497
-2376.78
712.98
-2015.25
613.47
-1526.53
486.282
-862.508
310.973
112.492
-211.918
1849.52
-478.176
1649.86
-758.315
1672.98
-1001.36
1551.61
-1236.94
1505.3
-1443.73
1426.29
-1630.54
1364.17
-1793.57
1297.88
-1935.52
1236.53
-2055.71
1175.45
-2151.47
1112.01
-2213.12
1036.72
-2219.6
934.571
-2133.68
785.054
-1914.2
580.022
-1559.68
358.452
-1128.4
182.195
-676.179
34.0573
-252.494
-112.715
-140.002
-180.015
2029.54
-380.333
1850.18
-546.03
1838.68
-673.193
1678.78
-790.933
1623.03
-878.23
1513.58
-952.978
1438.91
-1008.13
1353.03
-1049.99
1278.39
-1077.05
1202.5
-1089.89
1124.84
-1085.54
1032.37
-1057.14
906.171
-989.921
717.83
-866.915
457.014
-693.627
185.162
-540.772
29.3377
-423.844
-82.8738
-255.889
-280.672
-395.891
-4.27562
2033.81
-67.3924
1913.29
-94.9539
1866.24
-105.031
1688.85
-112.682
1630.68
-102.205
1503.1
-85.603
1422.31
-55.211
1322.64
-14.3244
1237.5
38.5284
1149.65
100.643
1062.73
165.681
967.331
218.044
853.805
229.05
706.822
167.905
518.156
48.4219
304.639
-20.6539
98.4001
-14.1626
-89.3762
-66.5681
-228.271
-462.46
106.869
1926.94
84.5365
1935.62
118.376
1832.4
161.109
1646.12
210.988
1580.8
266.54
1447.55
329.071
1359.78
398.283
1253.42
476.412
1159.37
562.571
1063.49
655.794
969.5
749.267
873.857
829.203
773.868
870.958
665.064
844.34
544.772
736.92
412.056
558.805
276.513
346.779
122.646
171.034
-52.5295
-291.426
125.072
1801.87
134.084
1926.61
181.716
1784.77
235.949
1591.88
297.215
1519.54
358.668
1386.09
425.418
1293.03
495.014
1183.83
568.383
1086
642.466
989.405
714.759
897.207
780.546
808.07
833.996
720.416
866.439
632.621
866.822
544.389
821.417
457.459
721.772
376.157
548.717
295.7
295.545
200.641
4.11881
75.7461
1726.12
114.016
1888.34
163.86
1734.92
213.964
1541.78
265.942
1467.56
321.102
1330.93
376.758
1237.37
436.647
1123.94
499.099
1023.54
569.376
919.127
650.208
816.374
743.618
714.658
843.305
620.729
933.933
541.993
991.062
487.258
982.392
466.128
879.974
478.574
663.647
512.026
353.621
510.664
357.74
-13.5377
1739.66
22.209
1852.59
42.8228
1714.31
40.5076
1544.09
36.4088
1471.66
19.2914
1348.05
-7.58567
1264.25
-37.0915
1153.44
-56.7742
1043.23
-49.5652
911.919
-4.84253
771.652
82.2661
627.551
205.493
497.503
351.955
395.532
501.247
337.968
616.316
351.06
640.035
454.855
524.563
627.498
279.121
756.107
636.861
-138.153
1877.81
-213.907
1928.34
-300.827
1801.22
-424.531
1667.79
-554.783
1601.91
-709.074
1502.34
-877.053
1432.22
-1051.49
1327.88
-1214.47
1206.2
-1352.56
1050.01
-1460.24
879.335
-1534.48
701.791
-1567.85
530.87
-1543.8
371.482
-1445.26
239.418
-1257.94
163.74
-967.777
164.693
-582.087
241.808
-206.176
380.194
430.685
-11.0438
1888.85
-168.201
2085.5
-285.734
1918.76
-395.344
1777.41
-505.05
1711.61
-620.305
1617.59
-738.983
1550.9
-861.22
1450.12
-986.842
1331.82
-1115.72
1178.88
-1249.45
1013.08
-1386.94
839.277
-1522.63
666.566
-1641.27
490.119
-1714.18
312.326
-1691.93
141.493
-1529.91
2.67504
-1173.2
-114.9
-599.977
-193.027
-169.292
283.427
1605.43
201.414
2167.52
100.052
2020.12
54.3729
1823.08
42.4823
1723.5
40.8819
1619.19
50.59
1541.19
58.3401
1442.37
56.0654
1334.1
32.9465
1202
-11.7371
1057.76
-75.5774
903.117
-151.543
742.532
-235.125
573.703
-319.999
397.201
-384.376
205.871
-393.048
11.3495
-396.991
-110.957
-306.174
-283.843
-475.466
436.591
1168.84
528.041
2076.07
483.078
2065.09
478.846
1827.32
531.655
1670.7
603.507
1547.34
691.915
1452.79
781.512
1352.77
865.844
1249.77
931.263
1136.58
972.614
1016.41
985.186
890.546
966.091
761.629
909.307
630.488
808.295
498.214
652.137
362.03
439.084
224.405
263.416
64.715
104.192
-124.616
-371.274
328.735
840.102
445.503
1959.3
452.313
2058.28
467.806
1811.82
519.753
1618.75
585.557
1481.54
659.253
1379.09
732.291
1279.74
801.02
1181.04
857.908
1079.69
897.735
976.583
915.72
872.562
908.409
768.94
872.754
666.143
806.492
564.477
707.8
460.722
577.774
354.432
411.126
231.364
205.494
81.0176
-165.78
109.975
730.13
150.105
1919.17
190.037
2018.34
233.415
1768.45
285.842
1566.33
342.102
1425.28
399.555
1321.64
454.525
1224.77
504.689
1130.88
546.415
1037.97
576.13
946.871
590.878
857.816
589.325
770.495
572.058
683.412
540.746
595.791
494.014
507.456
424.379
424.068
316.407
339.338
156.535
240.892
-9.24447
-60.9692
791.101
-58.4646
1916.67
9.55611
1950.33
73.1109
1704.9
133.341
1506.1
193.972
1364.65
253.783
1261.83
309.383
1169.17
359.081
1081.18
402.422
994.633
440.376
908.918
475.545
822.649
512.038
734.003
551.679
643.773
587.47
560.001
597.476
497.452
552.71
468.834
428.975
463.073
225.356
444.512
216.112
-142.155
933.26
-127.329
1901.85
-14.5593
1837.56
77.629
1612.71
151.297
1432.43
220.778
1295.18
291.991
1190.62
365.44
1095.73
442.551
1004.07
526.741
910.446
622.311
813.35
731.441
713.521
850.242
615.203
961.301
532.716
1028.79
492.511
1008.82
517.424
876.62
601.035
635.541
704.153
334.239
745.814
550.351
-128.462
1061.72
-139.007
1912.39
-57.3222
1755.87
40.6416
1514.75
122.618
1350.46
182.09
1235.7
238.367
1134.34
305.838
1028.26
392.66
917.25
503.511
799.596
639.118
677.743
793.021
559.619
946.638
461.586
1065.94
413.42
1106.18
452.269
1031.14
592.462
834.792
797.383
548.039
990.906
244.105
1049.75
794.456
-49.3399
1111.06
-58.6226
1921.67
-142.464
1839.72
-236.777
1609.06
-311.093
1424.77
-367.549
1292.16
-413.676
1180.47
-455.234
1069.81
-489.881
951.899
-514.706
824.422
-526.995
690.033
-523.335
555.959
-498.65
436.902
-444.582
359.354
-353.453
361.141
-230.963
469.973
-110.365
676.785
-34.8494
915.391
-18.6277
1033.53
775.828
226.755
884.309
514.469
1633.96
543.297
1810.89
338.439
1813.92
30.9272
1732.29
-268.804
1591.89
-528.156
1439.82
-757.665
1299.32
-972.6
1166.83
-1182.82
1034.64
-1389.15
896.364
-1582.38
749.192
-1741.3
595.817
-1823.72
441.778
-1782.73
320.151
-1584.32
271.562
-1228.9
321.372
-773.308
459.795
-324.832
585.053
450.995
242.47
641.026
977.816
1120.58
1101.49
998.961
873.678
747.294
618.936
482.556
336.095
176.519
-6.17245
-191.55
-353.18
-452.469
-445.571
-314.75
-116.673
)
;

boundaryField
{
    outletWallLeft
    {
        type            calculated;
        value           nonuniform List<scalar> 
40
(
-102.504
-148.065
-193.315
-241.211
-293.348
-348.373
-404.517
-455.934
-504.036
-547.155
-599.693
-630.503
-707.908
-685.107
-891.587
-624.767
-1425.35
75.8588
-3606.95
4387.48
-4554.81
-3917.06
-4078.56
-3586.61
-3814.95
-3716.94
-3701.98
-3734.7
-3831.96
-3453.48
-4405.44
-5820.64
-7145.78
-9494.19
-2476.13
9807.42
807.797
17508
-23131.6
109687
)
;
    }
    fineWallsLeft
    {
        type            calculated;
        value           uniform 0;
    }
    fineFrontAndBackLeft
    {
        type            calculated;
        value           nonuniform List<scalar> 
880
(
-2.75854e-15
3.58602e-15
-4.75261e-14
4.29489e-14
-4.41277e-13
-1.04483e-12
-3.44861e-13
-1.19878e-12
-1.38086e-12
-3.41889e-13
-1.1044e-12
-2.93741e-13
-8.92663e-13
-1.02575e-12
-2.74561e-13
-9.53887e-13
-2.74226e-13
-8.17421e-13
-9.28591e-13
-2.40115e-13
-5.1276e-14
8.98882e-13
-4.24396e-13
-4.98382e-13
-4.94515e-13
-6.96499e-13
-6.9629e-13
-6.71198e-13
-6.97691e-13
-6.922e-13
-7.38487e-13
-5.73444e-12
-7.99375e-13
-8.16724e-13
-8.4191e-13
-8.62667e-13
-8.6774e-13
-8.73944e-13
-8.43715e-13
-1.01555e-12
-1.13611e-11
-1.56232e-12
-1.45571e-12
-8.72936e-12
-1.32176e-12
-1.2949e-12
-1.26161e-12
-6.91485e-12
-9.6951e-13
-9.61988e-13
-3.45708e-12
-2.6835e-13
-1.58005e-13
1.81306e-13
2.04488e-11
1.50167e-12
1.87807e-12
1.78942e-12
1.10493e-11
1.76599e-12
3.51004e-12
1.09259e-11
9.34345e-12
-3.49968e-12
-1.05213e-11
-1.39672e-11
-2.0797e-11
-1.74915e-11
-8.78901e-12
-6.32065e-12
-1.07701e-11
-9.44911e-12
-2.36491e-12
4.48239e-14
6.00499e-13
-4.97807e-12
-1.43511e-11
-1.02299e-11
7.46093e-12
1.28235e-12
6.34928e-12
8.26209e-12
-2.33225e-12
-1.04056e-11
-1.5272e-11
-2.23158e-11
-1.86355e-11
-7.77896e-12
-3.80834e-12
-1.00324e-11
-7.84314e-12
-1.78597e-12
9.52071e-14
2.24838e-14
-2.88695e-12
-1.25893e-11
-1.61338e-11
-2.98745e-12
3.2116e-13
2.61857e-12
6.49025e-12
-9.35229e-13
-9.93892e-12
-1.63498e-11
-2.46223e-11
-2.08145e-11
-7.27149e-12
-1.37206e-12
-8.6076e-12
-5.76368e-12
-1.22497e-12
4.02558e-14
4.22192e-14
-1.20194e-12
-7.97976e-12
-1.42935e-11
-1.40287e-11
6.99168e-14
3.21128e-13
4.1477e-12
3.77111e-13
-9.06336e-12
-1.71811e-11
-2.70459e-11
-2.32969e-11
-7.20414e-12
4.93709e-13
-6.6836e-12
-3.68424e-12
-6.89826e-13
1.84764e-15
3.47109e-14
-4.89928e-14
-3.59595e-12
-1.06884e-11
-1.45991e-11
8.95467e-14
-7.13124e-13
1.84591e-12
1.30403e-12
-7.81548e-12
-1.75806e-11
-2.81325e-11
-2.44934e-11
-6.99777e-12
1.52253e-12
-4.58878e-12
-1.87839e-12
-2.43325e-13
-1.83507e-15
-6.79839e-15
3.35524e-14
2.17411e-13
-5.22826e-12
-1.33228e-11
1.1366e-13
-1.08048e-12
1.03689e-13
1.68437e-12
-6.32515e-12