/*--------------------------------*- C++ -*----------------------------------*\
| =========                 |                                                 |
| \\      /  F ield         | OpenFOAM: The Open Source CFD Toolbox           |
|  \\    /   O peration     | Version:  4.1                                   |
|   \\  /    A nd           | Web:      www.OpenFOAM.org                      |
|    \\/     M anipulation  |                                                 |
\*---------------------------------------------------------------------------*/
FoamFile
{
    version     2.0;
    format      ascii;
    class       volScalarField;
    location    "29";
    object      p;
}
// * * * * * * * * * * * * * * * * * * * * * * * * * * * * * * * * * * * * * //

dimensions      [0 2 -2 0 0 0 0];

internalField   nonuniform List<scalar> 
1280
(
-1.61131e+16
-1.17538e+16
-1.2024e+16
-1.59151e+16
-1.72711e+16
-1.83676e+16
-2.05118e+16
-2.23369e+16
-2.32218e+16
-2.44316e+16
-2.71323e+16
-2.82825e+16
-2.93022e+16
-3.20626e+16
-3.32959e+16
-3.42745e+16
-3.71067e+16
-3.81913e+16
-3.96386e+16
-4.15351e+16
-4.31264e+16
-4.44124e+16
-4.59521e+16
-4.72915e+16
-4.84541e+16
-4.9965e+16
-5.44461e+16
-5.36909e+16
-5.46286e+16
-5.61093e+16
-5.74099e+16
-5.8697e+16
-6.00232e+16
-6.13642e+16
-6.27144e+16
-6.41041e+16
-6.54849e+16
-6.69747e+16
-6.83329e+16
-7.00662e+16
-8.2116e+16
-7.68716e+16
-7.81656e+16
-8.18034e+16
-8.30459e+16
-8.67989e+16
-9.13869e+16
-9.54256e+16
-9.74118e+16
-1.01599e+17
-1.09458e+17
-1.12439e+17
-1.1836e+17
-1.26026e+17
-1.33039e+17
-1.35962e+17
-1.44357e+17
-1.53754e+17
-1.62799e+17
-1.63681e+17
-1.78273e+17
-1.8268e+17
-1.90501e+17
-1.97684e+17
-2.0445e+17
-2.11188e+17
-2.17838e+17
-2.24384e+17
-2.30917e+17
-2.37317e+17
-2.43952e+17
-2.50037e+17
-2.57478e+17
-2.93855e+17
-2.85504e+17
-2.95209e+17
-3.08216e+17
-3.20526e+17
-3.32594e+17
-3.47847e+17
-3.77443e+17
-3.76032e+17
-3.76831e+17
-4.07594e+17
-4.49714e+17
-4.69199e+17
-5.12371e+17
-5.82185e+17
-6.04248e+17
-6.58479e+17
-7.71393e+17
-8.39351e+17
-1.13953e+18
-1.31946e+18
-1.56611e+18
-1.13814e+18
-6.79863e+18
-5.32552e+18
2.15317e+17
5.98324e+17
1.06868e+15
1.36117e+14
5.23094e+14
5.50111e+14
9.74436e+14
1.52598e+15
2.47909e+15
4.01095e+15
6.53783e+15
1.07223e+16
1.77357e+16
2.95755e+16
4.93009e+16
8.17156e+16
1.3472e+17
2.1956e+17
5.22767e+17
1.12899e+18
-5.63316e+18
-4.75968e+14
-6.46954e+13
-1.74444e+14
-2.4617e+14
-4.77025e+14
-7.82699e+14
-1.32509e+15
-2.22068e+15
-3.78233e+15
-6.65172e+15
-1.22397e+16
-2.36093e+16
-4.81616e+16
-9.69757e+16
-1.53052e+17
-1.85262e+17
-2.35406e+17
-2.37615e+15
-1.03636e+17
3.3135e+13
7.27947e+13
1.85403e+14
2.29099e+14
3.63826e+14
5.31337e+14
7.80823e+14
1.1325e+15
1.63451e+15
2.33938e+15
3.20658e+15
3.67387e+15
7.66043e+14
-1.20973e+16
-4.01608e+16
-7.29696e+16
-1.23901e+17
-3.86165e+17
-8.75254e+17
1.50712e+14
3.90307e+13
1.13254e+14
1.02973e+14
1.72049e+14
2.1227e+14
2.80514e+14
3.44289e+14
3.97751e+14
3.69488e+14
-5.21377e+13
-1.84736e+15
-8.06996e+15
-2.27862e+16
-4.27088e+16
-7.08182e+16
-1.13357e+17
-2.18257e+17
-3.85307e+17
9.17001e+13
5.29628e+13
8.61442e+13
7.1894e+13
9.62727e+13
9.53089e+13
8.36859e+13
1.48055e+13
-1.75602e+14
-6.56602e+14
-1.88591e+15
-4.97115e+15
-1.25428e+16
-2.60749e+16
-4.39631e+16
-6.84968e+16
-1.07451e+17
-2.13655e+17
-3.91222e+17
8.63915e+13
4.53574e+13
8.43252e+13
7.56525e+13
9.7744e+13
9.74965e+13
8.24688e+13
7.36128e+12
-1.9795e+14
-7.13771e+14
-1.98686e+15
-4.98455e+15
-1.17746e+16
-2.31351e+16
-3.89279e+16
-6.28012e+16
-9.83761e+16
-1.67847e+17
-2.74065e+17
8.57783e+13
3.11692e+13
7.16577e+13
6.00061e+13
7.36848e+13
6.09555e+13
2.76852e+13
-7.59931e+13
-3.27543e+14
-9.2498e+14
-2.30555e+15
-5.33851e+15
-1.14778e+16
-2.16425e+16
-3.64095e+16
-5.82031e+16
-8.91426e+16
-1.43056e+17
-2.24517e+17
7.71341e+13
2.26954e+13
5.91117e+13
4.42287e+13
4.918e+13
2.48062e+13
-2.74524e+13
-1.65327e+14
-4.7753e+14
-1.16578e+15
-2.62758e+15
-5.6163e+15
-1.1006e+16
-1.99724e+16
-3.32017e+16
-5.25194e+16
-7.93059e+16
-1.18044e+17
-1.70761e+17
6.75577e+13
1.66881e+13
4.9112e+13
3.22773e+13
3.1833e+13
-3.35717e+11
-6.72984e+13
-2.29152e+14
-5.76102e+14
-1.30109e+15
-2.75839e+15
-5.52733e+15
-1.03489e+16
-1.83568e+16
-3.03609e+16
-4.73243e+16
-7.01506e+16
-1.00329e+17
-1.38547e+17
5.81649e+13
1.17941e+13
4.02148e+13
2.19176e+13
1.73908e+13
-2.1215e+13
-9.9106e+13
-2.7509e+14
-6.37805e+14
-1.36539e+15
-2.76716e+15
-5.29499e+15
-9.68893e+15
-1.68856e+16
-2.75082e+16
-4.21893e+16
-6.14816e+16
-8.49841e+16
-1.12245e+17
4.89084e+13
8.01198e+12
3.25294e+13
1.31069e+13
4.94543e+12
-3.78546e+13
-1.21957e+14
-3.03351e+14
-6.66907e+14
-1.37352e+15
-2.68343e+15
-5.02127e+15
-9.02794e+15
-1.54364e+16
-2.47765e+16
-3.74095e+16
-5.35982e+16
-7.24002e+16
-9.27226e+16
4.0323e+13
5.07613e+12
2.61005e+13
6.09778e+12
-4.83559e+12
-4.88497e+13
-1.34463e+14
-3.13806e+14
-6.65265e+14
-1.33393e+15
-2.56005e+15
-4.72639e+15
-8.35175e+15
-1.40116e+16
-2.21493e+16
-3.29167e+16
-4.64263e+16
-6.15133e+16
-7.69964e+16
3.27334e+13
2.7752e+12
2.06283e+13
8.72396e+11
-1.16735e+13
-5.4339e+13
-1.37746e+14
-3.08572e+14
-6.41508e+14
-1.27314e+15
-2.42152e+15
-4.40286e+15
-7.64443e+15
-1.26052e+16
-1.96407e+16
-2.8743e+16
-3.99517e+16
-5.19121e+16
-6.45565e+16
2.63642e+13
1.04196e+12
1.59338e+13
-2.59127e+12
-1.55763e+13
-5.49883e+13
-1.33144e+14
-2.9372e+14
-6.08758e+14
-1.20155e+15
-2.25429e+15
-4.03723e+15
-6.9049e+15
-1.12104e+16
-1.72346e+16
-2.48535e+16
-3.40695e+16
-4.30448e+16
-5.23886e+16
2.06973e+13
-1.49533e+11
1.18713e+13
-4.56814e+12
-1.69918e+13
-5.14923e+13
-1.23782e+14
-2.75246e+14
-5.69187e+14
-1.10942e+15
-2.05713e+15
-3.63905e+15
-6.14422e+15
-9.84379e+15
-1.49601e+16
-2.13002e+16
-2.88595e+16
-3.5749e+16
-4.27e+16
1.64704e+13
-7.69176e+11
8.62906e+12
-5.21372e+12
-1.59429e+13
-4.61455e+13
-1.13589e+14
-2.53678e+14
-5.20516e+14
-1.00619e+15
-1.8488e+15
-3.23688e+15
-5.40788e+15
-8.56942e+15
-1.28968e+16
-1.81595e+16
-2.43624e+16
-2.97402e+16
-3.50553e+16
1.13802e+13
-1.20528e+12
5.80035e+12
-5.13244e+12
-1.38174e+13
-4.00689e+13
-1.00847e+14
-2.23726e+14
-4.55947e+14
-8.73907e+14
-1.59104e+15
-2.75859e+15
-4.56339e+15
-7.15685e+15
-1.06698e+16
-1.48603e+16
-1.97522e+16
-2.37447e+16
-2.79626e+16
1.0932e+13
-8.75696e+11
4.19366e+12
-3.64282e+12
-1.10221e+13
-3.17992e+13
-8.0583e+13
-1.78123e+14
-3.61504e+14
-6.89315e+14
-1.24798e+15
-2.15067e+15
-3.5366e+15
-5.51258e+15
-8.17773e+15
-1.13161e+16
-1.49866e+16
-1.77395e+16
-2.12619e+16
-3.43813e+11
-1.11775e+12
1.43828e+12
-3.33754e+12
-9.73476e+12
-3.0141e+13
-8.06492e+13
-1.82691e+14
-3.75103e+14
-7.19464e+14
-1.30685e+15
-2.25662e+15
-3.71601e+15
-5.79944e+15
-8.61328e+15
-1.1929e+16
-1.57889e+16
-1.84347e+16
-2.1641e+16
1.87282e+13
1.52898e+10
4.05483e+12
3.24029e+10
-7.44238e+12
-3.11963e+13
-8.5675e+13
-1.94414e+14
-3.98249e+14
-7.61257e+14
-1.37726e+15
-2.36816e+15
-3.88045e+15
-6.02647e+15
-8.89289e+15
-1.22483e+16
-1.60321e+16
-1.85215e+16
-2.13751e+16
-5.61111e+16
-5.5838e+16
-5.57017e+16
-5.56084e+16
-5.5525e+16
-5.54588e+16
-5.54571e+16
-5.54899e+16
-5.55051e+16
-5.55356e+16
-5.55886e+16
-5.56599e+16
-5.57473e+16
-5.58491e+16
-5.59633e+16
-5.60915e+16
-5.62266e+16
-5.63855e+16
-5.65237e+16
-5.67667e+16
-5.55439e+16
-5.55651e+16
-5.55661e+16
-5.55594e+16
-5.55543e+16
-5.555e+16
-5.55495e+16
-5.55545e+16
-5.55621e+16
-5.55733e+16
-5.55883e+16
-5.56067e+16
-5.5628e+16
-5.56522e+16
-5.56791e+16
-5.57083e+16
-5.57378e+16
-5.57695e+16
-5.57965e+16
-5.58364e+16
-5.55032e+16
-5.55051e+16
-5.5503e+16
-5.55028e+16
-5.55038e+16
-5.55048e+16
-5.55056e+16
-5.55068e+16
-5.55085e+16
-5.55107e+16
-5.55136e+16
-5.55172e+16
-5.55215e+16
-5.55266e+16
-5.55324e+16
-5.55391e+16
-5.55461e+16
-5.55542e+16
-5.55613e+16
-5.55724e+16
-5.5496e+16
-5.54965e+16
-5.54974e+16
-5.54982e+16
-5.54993e+16
-5.55005e+16
-5.55019e+16
-5.55035e+16
-5.5505e+16
-5.55066e+16
-5.55081e+16
-5.55097e+16
-5.55113e+16
-5.5513e+16
-5.55147e+16
-5.55164e+16
-5.55181e+16
-5.55199e+16
-5.55214e+16
-5.55239e+16
-5.54966e+16
-5.54965e+16
-5.54966e+16
-5.54967e+16
-5.54968e+16
-5.54969e+16
-5.54971e+16
-5.54973e+16
-5.54976e+16
-5.5498e+16
-5.54985e+16
-5.54989e+16
-5.54995e+16
-5.55e+16
-5.55006e+16
-5.55012e+16
-5.55019e+16
-5.55025e+16
-5.55031e+16
-5.5504e+16
-5.5497e+16
-5.5497e+16
-5.54971e+16
-5.54972e+16
-5.54973e+16
-5.54973e+16
-5.54974e+16
-5.54976e+16
-5.54977e+16
-5.54978e+16
-5.54979e+16
-5.54981e+16
-5.54983e+16
-5.54984e+16
-5.54986e+16
-5.54987e+16
-5.54989e+16
-5.54991e+16
-5.54992e+16
-5.54995e+16
-5.54963e+16
-5.54963e+16
-5.54963e+16
-5.54964e+16
-5.54964e+16
-5.54965e+16
-5.54965e+16
-5.54966e+16
-5.54966e+16
-5.54967e+16
-5.54967e+16
-5.54968e+16
-5.54969e+16
-5.54969e+16
-5.5497e+16
-5.54971e+16
-5.54972e+16
-5.54972e+16
-5.54973e+16
-5.54974e+16
-5.54964e+16
-5.54964e+16
-5.54964e+16
-5.54964e+16
-5.54964e+16
-5.54964e+16
-5.54965e+16
-5.54965e+16
-5.54965e+16
-5.54965e+16
-5.54965e+16
-5.54966e+16
-5.54966e+16
-5.54966e+16
-5.54966e+16
-5.54967e+16
-5.54967e+16
-5.54967e+16
-5.54967e+16
-5.54968e+16
-5.54963e+16
-5.54963e+16
-5.54963e+16
-5.54963e+16
-5.54964e+16
-5.54964e+16
-5.54964e+16
-5.54964e+16
-5.54964e+16
-5.54964e+16
-5.54964e+16
-5.54964e+16
-5.54964e+16
-5.54964e+16
-5.54964e+16
-5.54964e+16
-5.54965e+16
-5.54965e+16
-5.54965e+16
-5.54965e+16
-5.54964e+16
-5.54964e+16
-5.54964e+16
-5.54964e+16
-5.54964e+16
-5.54964e+16
-5.54964e+16
-5.54964e+16
-5.54964e+16
-5.54964e+16
-5.54964e+16
-5.54964e+16
-5.54964e+16
-5.54964e+16
-5.54964e+16
-5.54964e+16
-5.54964e+16
-5.54964e+16
-5.54964e+16
-5.54964e+16
-5.54963e+16
-5.54963e+16
-5.54963e+16
-5.54963e+16
-5.54963e+16
-5.54963e+16
-5.54963e+16
-5.54963e+16
-5.54963e+16
-5.54963e+16
-5.54963e+16
-5.54964e+16
-5.54964e+16
-5.54964e+16
-5.54964e+16
-5.54964e+16
-5.54964e+16
-5.54964e+16
-5.54964e+16
-5.54964e+16
-5.54964e+16
-5.54964e+16
-5.54964e+16
-5.54964e+16
-5.54964e+16
-5.54964e+16
-5.54963e+16
-5.54963e+16
-5.54963e+16
-5.54963e+16
-5.54963e+16
-5.54963e+16
-5.54963e+16
-5.54963e+16
-5.54963e+16
-5.54963e+16
-5.54963e+16
-5.54963e+16
-5.54963e+16
-5.54963e+16
-5.54964e+16
-5.54964e+16
-5.54964e+16
-5.54964e+16
-5.54964e+16
-5.54964e+16
-5.54964e+16
-5.54964e+16
-5.54964e+16
-5.54964e+16
-5.54964e+16
-5.54964e+16
-5.54964e+16
-5.54964e+16
-5.54964e+16
-5.54964e+16
-5.54964e+16
-5.54964e+16
-5.54963e+16
-5.54963e+16
-5.54963e+16
-5.54963e+16
-5.54963e+16
-5.54964e+16
-5.54964e+16
-5.54964e+16
-5.54964e+16
-5.54964e+16
-5.54964e+16
-5.54964e+16
-5.54964e+16
-5.54964e+16
-5.54964e+16
-5.54964e+16
-5.54964e+16
-5.54964e+16
-5.54964e+16
-5.54964e+16
-5.54964e+16
-5.54964e+16
-5.54962e+16
-5.54962e+16
-5.54962e+16
-5.54962e+16
-5.54962e+16
-5.54963e+16
-5.54963e+16
-5.54963e+16
-5.54963e+16
-5.54963e+16
-5.54963e+16
-5.54963e+16
-5.54963e+16
-5.54963e+16
-5.54963e+16
-5.54963e+16
-5.54963e+16
-5.54963e+16
-5.54963e+16
-5.54964e+16
-5.54963e+16
-5.54963e+16
-5.54963e+16
-5.54963e+16
-5.54963e+16
-5.54963e+16
-5.54963e+16
-5.54963e+16
-5.54963e+16
-5.54963e+16
-5.54963e+16
-5.54964e+16
-5.54964e+16
-5.54964e+16
-5.54964e+16
-5.54964e+16
-5.54964e+16
-5.54964e+16
-5.54963e+16
-5.54963e+16
-5.54978e+16
-5.54979e+16
-5.54978e+16
-5.54978e+16
-5.54976e+16
-5.54975e+16
-5.54975e+16
-5.54974e+16
-5.54973e+16
-5.54972e+16
-5.54972e+16
-5.54971e+16
-5.54971e+16
-5.5497e+16
-5.5497e+16
-5.54969e+16
-5.54969e+16
-5.54969e+16
-5.54968e+16
-5.54968e+16
-5.54973e+16
-5.54975e+16
-5.54974e+16
-5.54974e+16
-5.54974e+16
-5.54973e+16
-5.54973e+16
-5.54973e+16
-5.54973e+16
-5.54972e+16
-5.54972e+16
-5.54972e+16
-5.54972e+16
-5.54972e+16
-5.54972e+16
-5.54972e+16
-5.54971e+16
-5.54971e+16
-5.54971e+16
-5.54971e+16
-5.54964e+16
-5.54965e+16
-5.54966e+16
-5.54966e+16
-5.54967e+16
-5.54968e+16
-5.54968e+16
-5.54968e+16
-5.54969e+16
-5.54969e+16
-5.54969e+16
-5.54969e+16
-5.54969e+16
-5.5497e+16
-5.5497e+16
-5.5497e+16
-5.5497e+16
-5.5497e+16
-5.5497e+16
-5.5497e+16
-5.54963e+16
-5.54963e+16
-5.54963e+16
-5.54963e+16
-5.54963e+16
-5.54964e+16
-5.54964e+16
-5.54965e+16
-5.54965e+16
-5.54965e+16
-5.54965e+16
-5.54966e+16
-5.54966e+16
-5.54966e+16
-5.54966e+16
-5.54967e+16
-5.54967e+16
-5.54967e+16
-5.54967e+16
-5.54967e+16
-2.38464e+17
-2.38465e+17
-2.38467e+17
-2.38468e+17
-2.3847e+17
-2.38472e+17
-2.38473e+17
-2.38475e+17
-2.38476e+17
-2.38478e+17
-2.38479e+17
-2.3848e+17
-2.38481e+17
-2.38482e+17
-2.38483e+17
-2.38483e+17
-2.38483e+17
-2.38484e+17
-2.38484e+17
-2.38484e+17
-2.38484e+17
-2.38486e+17
-2.38488e+17
-2.38488e+17
-2.38488e+17
-2.38488e+17
-2.38488e+17
-2.38488e+17
-2.38488e+17
-2.38488e+17
-2.38488e+17
-2.38487e+17
-2.38487e+17
-2.38486e+17
-2.38486e+17
-2.38486e+17
-2.38486e+17
-2.38485e+17
-2.38485e+17
-2.38485e+17
-2.38492e+17
-2.38491e+17
-2.38491e+17
-2.3849e+17
-2.38489e+17
-2.38488e+17
-2.38487e+17
-2.38486e+17
-2.38485e+17
-2.38485e+17
-2.38484e+17
-2.38484e+17
-2.38484e+17
-2.38484e+17
-2.38484e+17
-2.38483e+17
-2.38483e+17
-2.38483e+17
-2.38483e+17
-2.38483e+17
-2.3848e+17
-2.38479e+17
-2.38479e+17
-2.38479e+17
-2.3848e+17
-2.3848e+17
-2.3848e+17
-2.3848e+17
-2.3848e+17
-2.3848e+17
-2.3848e+17
-2.3848e+17
-2.3848e+17
-2.3848e+17
-2.3848e+17
-2.3848e+17
-2.3848e+17
-2.3848e+17
-2.3848e+17
-2.3848e+17
-2.38479e+17
-2.38479e+17
-2.38479e+17
-2.38479e+17
-2.3848e+17
-2.3848e+17
-2.3848e+17
-2.3848e+17
-2.3848e+17
-2.3848e+17
-2.3848e+17
-2.3848e+17
-2.3848e+17
-2.3848e+17
-2.3848e+17
-2.3848e+17
-2.3848e+17
-2.3848e+17
-2.3848e+17
-2.3848e+17
-2.3848e+17
-2.3848e+17
-2.3848e+17
-2.3848e+17
-2.3848e+17
-2.3848e+17
-2.3848e+17
-2.3848e+17
-2.3848e+17
-2.3848e+17
-2.3848e+17
-2.3848e+17
-2.3848e+17
-2.3848e+17
-2.3848e+17
-2.3848e+17
-2.3848e+17
-2.3848e+17
-2.3848e+17
-2.3848e+17
-2.3848e+17
-2.3848e+17
-2.3848e+17
-2.3848e+17
-2.3848e+17
-2.3848e+17
-2.3848e+17
-2.3848e+17
-2.3848e+17
-2.3848e+17
-2.3848e+17
-2.3848e+17
-2.3848e+17
-2.3848e+17
-2.3848e+17
-2.3848e+17
-2.3848e+17
-2.3848e+17
-2.3848e+17
-2.3848e+17
-2.3848e+17
-2.3848e+17
-2.3848e+17
-2.3848e+17
-2.3848e+17
-2.3848e+17
-2.3848e+17
-2.3848e+17
-2.3848e+17
-2.3848e+17
-2.3848e+17
-2.3848e+17
-2.3848e+17
-2.3848e+17
-2.3848e+17
-2.3848e+17
-2.3848e+17
-2.3848e+17
-2.3848e+17
-2.3848e+17
-2.3848e+17
-2.3848e+17
-2.3848e+17
-2.3848e+17
-2.3848e+17
-2.3848e+17
-2.3848e+17
-2.3848e+17
-2.3848e+17
-2.3848e+17
-2.3848e+17
-2.3848e+17
-2.3848e+17
-2.3848e+17
-2.3848e+17
-2.3848e+17
-2.3848e+17
-2.3848e+17
-2.3848e+17
-2.3848e+17
-2.3848e+17
-2.3848e+17
-2.3848e+17
-2.3848e+17
-2.3848e+17
-2.3848e+17
-2.3848e+17
-2.3848e+17
-2.3848e+17
-2.3848e+17
-2.3848e+17
-2.3848e+17
-2.3848e+17
-2.3848e+17
-2.3848e+17
-2.3848e+17
-2.3848e+17
-2.3848e+17
-2.3848e+17
-2.3848e+17
-2.3848e+17
-2.3848e+17
-2.3848e+17
-2.3848e+17
-2.3848e+17
-2.3848e+17
-2.3848e+17
-2.3848e+17
-2.3848e+17
-2.3848e+17
-2.3848e+17
-2.3848e+17
-2.3848e+17
-2.3848e+17
-2.3848e+17
-2.3848e+17
-2.3848e+17
-2.3848e+17
-2.3848e+17
-2.3848e+17
-2.3848e+17
-2.3848e+17
-2.3848e+17
-2.3848e+17
-2.3848e+17
-2.3848e+17
-2.3848e+17
-2.3848e+17
-2.3848e+17
-2.3848e+17
-2.3848e+17
-2.3848e+17
-2.3848e+17
-2.3848e+17
-2.3848e+17
-2.3848e+17
-2.3848e+17
-2.3848e+17
-2.3848e+17
-2.3848e+17
-2.3848e+17
-2.3848e+17
-2.3848e+17
-2.3848e+17
-2.3848e+17
-2.3848e+17
-2.3848e+17
-2.3848e+17
-2.3848e+17
-2.3848e+17
-2.3848e+17
-2.3848e+17
-2.3848e+17
-2.3848e+17
-2.3848e+17
-2.3848e+17
-2.3848e+17
-2.3848e+17
-2.3848e+17
-2.3848e+17
-2.38481e+17
-2.38481e+17
-2.38481e+17
-2.38481e+17
-2.38481e+17
-2.38481e+17
-2.38481e+17
-2.38481e+17
-2.38481e+17
-2.38481e+17
-2.38481e+17
-2.38481e+17
-2.38481e+17
-2.38481e+17
-2.3848e+17
-2.3848e+17
-2.3848e+17
-2.3848e+17
-2.3848e+17
-2.3848e+17
-2.38484e+17
-2.38484e+17
-2.38484e+17
-2.38484e+17
-2.38484e+17
-2.38484e+17
-2.38484e+17
-2.38484e+17
-2.38484e+17
-2.38484e+17
-2.38484e+17
-2.38483e+17
-2.38482e+17
-2.38482e+17
-2.38481e+17
-2.3848e+17
-2.38479e+17
-2.38479e+17
-2.38478e+17
-2.38478e+17
-2.38488e+17
-2.3849e+17
-2.38491e+17
-2.38492e+17
-2.38494e+17
-2.38494e+17
-2.38495e+17
-2.38495e+17
-2.38495e+17
-2.38494e+17
-2.38492e+17
-2.38491e+17
-2.38488e+17
-2.38486e+17
-2.38483e+17
-2.3848e+17
-2.38478e+17
-2.38476e+17
-2.38474e+17
-2.38473e+17
-2.38539e+17
-2.38543e+17
-2.38546e+17
-2.38549e+17
-2.38551e+17
-2.38552e+17
-2.38552e+17
-2.38551e+17
-2.38548e+17
-2.38544e+17
-2.38538e+17
-2.38531e+17
-2.38522e+17
-2.38512e+17
-2.385e+17
-2.38488e+17
-2.38477e+17
-2.38467e+17
-2.38459e+17
-2.38453e+17
-2.38613e+17
-2.38648e+17
-2.38668e+17
-2.38692e+17
-2.3871e+17
-2.38725e+17
-2.38732e+17
-2.38732e+17
-2.38723e+17
-2.38704e+17
-2.38676e+17
-2.38638e+17
-2.38594e+17
-2.38546e+17
-2.38494e+17
-2.3844e+17
-2.38389e+17
-2.38343e+17
-2.38304e+17
-2.38305e+17
-2.39511e+17
-2.39548e+17
-2.39588e+17
-2.39611e+17
-2.39615e+17
-2.39591e+17
-2.39538e+17
-2.3946e+17
-2.39361e+17
-2.39244e+17
-2.39121e+17
-2.39004e+17
-2.38892e+17
-2.38786e+17
-2.38691e+17
-2.38609e+17
-2.38548e+17
-2.385e+17
-2.38455e+17
-2.38487e+17
-2.40097e+17
-2.41254e+17
-2.41847e+17
-2.4241e+17
-2.42749e+17
-2.42969e+17
-2.43053e+17
-2.4297e+17
-2.42784e+17
-2.42547e+17
-2.42276e+17
-2.42003e+17
-2.41746e+17
-2.4151e+17
-2.41304e+17
-2.41133e+17
-2.41013e+17
-2.40947e+17
-2.40905e+17
-2.4099e+17
)
;

boundaryField
{
    outletWall
    {
        type            fixedValue;
        value           uniform 0;
    }
    fineWalls
    {
        type            zeroGradient;
    }
    fineFrontAndBack
    {
        type            zeroGradient;
    }
    fineplugLeft
    {
        type            cyclicAMI;
        value           nonuniform List<scalar> 
20
(
-5.94266e+16
-5.88855e+16
-5.85033e+16
-5.80783e+16
-5.7694e+16
-5.73135e+16
-5.69521e+16
-5.66025e+16
-5.62673e+16
-5.59529e+16
-5.56504e+16
-5.53298e+16
-5.51301e+16
-5.53421e+16
-5.436e+16
-5.41108e+16
-5.3945e+16
-5.37518e+16
-5.35528e+16
-5.35142e+16
)
;
    }
    fineplugRight
    {
        type            cyclicAMI;
        value           nonuniform List<scalar> 
20
(
-2.28446e+17
-2.2926e+17
-2.30858e+17
-2.32347e+17
-2.33796e+17
-2.3528e+17
-2.36775e+17
-2.38274e+17
-2.39786e+17
-2.41285e+17
-2.42828e+17
-2.44234e+17
-2.45872e+17
-2.48829e+17
-2.51476e+17
-2.53241e+17
-2.55571e+17
-2.57583e+17
-2.59522e+17
-2.61647e+17
)
;
    }
    inletOutletLeft
    {
        type            cyclicAMI;
        value           nonuniform List<scalar> 
20
(
-5.94266e+16
-5.88855e+16
-5.85033e+16
-5.80783e+16
-5.7694e+16
-5.73135e+16
-5.69521e+16
-5.66025e+16
-5.62673e+16
-5.59529e+16
-5.56504e+16
-5.53298e+16
-5.51301e+16
-5.53421e+16
-5.436e+16
-5.41108e+16
-5.3945e+16
-5.37518e+16
-5.35528e+16
-5.35142e+16
)
;
    }
    inletLeft
    {
        type            zeroGradient;
    }
    inletWallsLeft
    {
        type            zeroGradient;
    }
    inletFacesLeft
    {
        type            zeroGradient;
    }
    inletOutletRight
    {
        type            cyclicAMI;
        value           nonuniform List<scalar> 
20
(
-2.28446e+17
-2.2926e+17
-2.30858e+17
-2.32347e+17
-2.33796e+17
-2.3528e+17
-2.36775e+17
-2.38274e+17
-2.39786e+17
-2.41285e+17
-2.42828e+17
-2.44234e+17
-2.45872e+17
-2.48829e+17
-2.51476e+17
-2.53241e+17
-2.55571e+17
-2.57583e+17
-2.59522e+17
-2.61647e+17
)
;
    }
    inletRight
    {
        type            zeroGradient;
    }
    inletWallsRight
    {
        type            zeroGradient;
    }
    inletFacesRight
    {
        type            zeroGradient;
    }
}


// ************************************************************************* //
