/*--------------------------------*- C++ -*----------------------------------*\
| =========                 |                                                 |
| \\      /  F ield         | OpenFOAM: The Open Source CFD Toolbox           |
|  \\    /   O peration     | Version:  4.1                                   |
|   \\  /    A nd           | Web:      www.OpenFOAM.org                      |
|    \\/     M anipulation  |                                                 |
\*---------------------------------------------------------------------------*/
FoamFile
{
    version     2.0;
    format      ascii;
    class       surfaceScalarField;
    location    "29";
    object      phi;
}
// * * * * * * * * * * * * * * * * * * * * * * * * * * * * * * * * * * * * * //

dimensions      [0 3 -1 0 0 0 0];

internalField   nonuniform List<scalar> 
2360
(
2.26135e+11
2.06989e+11
1.91415e+10
2.06996e+11
2.06991e+11
1.88367e+11
1.86299e+10
1.88363e+11
1.88367e+11
1.88363e+11
1.87254e+11
1.11393e+09
1.87253e+11
1.87259e+11
1.89761e+11
-2.50433e+09
1.89765e+11
1.89761e+11
1.91186e+11
-1.41842e+09
1.91185e+11
1.91194e+11
1.87134e+11
4.05809e+09
1.87138e+11
1.87133e+11
1.84842e+11
1.82718e+11
1.80881e+11
1.7923e+11
1.77804e+11
1.76539e+11
1.78144e+11
-2.36689e+09
1.7756e+11
1.7702e+11
1.76605e+11
1.76376e+11
1.76361e+11
1.76608e+11
1.77159e+11
1.78039e+11
1.793e+11
1.80963e+11
1.83149e+11
1.85879e+11
1.89596e+11
2.29446e+11
-3.98467e+10
2.29445e+11
2.29445e+11
2.29445e+11
2.71339e+11
-4.18921e+10
2.71337e+11
2.71341e+11
2.71338e+11
3.1437e+11
-4.30265e+10
3.14369e+11
3.14373e+11
3.5622e+11
-4.18474e+10
3.56223e+11
3.56224e+11
3.56227e+11
3.98163e+11
-4.19362e+10
3.98169e+11
3.9817e+11
3.98175e+11
4.29121e+11
-3.09466e+10
4.21453e+11
4.13822e+11
4.07383e+11
4.01996e+11
3.97543e+11
3.9396e+11
3.91217e+11
3.89287e+11
3.88149e+11
3.87818e+11
3.88284e+11
3.89497e+11
3.91362e+11
4.94269e+11
-1.00371e+11
4.9746e+11
5.01426e+11
5.06273e+11
5.12217e+11
5.19443e+11
5.29544e+11
5.29547e+11
5.29554e+11
7.11367e+11
-1.81814e+11
7.1137e+11
7.11367e+11
9.23563e+11
-2.12195e+11
9.2356e+11
9.23561e+11
1.17255e+12
-2.48986e+11
1.17255e+12
1.17255e+12
1.7843e+12
-6.1175e+11
1.7843e+12
1.7843e+12
1.7843e+12
-3.65226e+12
5.43656e+12
-3.65226e+12
-3.65226e+12
1.41865e+12
-5.07091e+12
-7.12015e+10
-3.36244e+09
-6.57081e+10
-1.32273e+10
-9.33538e+10
2.51539e+09
-1.16164e+11
1.57163e+09
-1.48159e+11
2.49798e+09
-1.88154e+11
3.62081e+09
-2.39916e+11
5.41937e+09
-3.06632e+11
8.05004e+09
-3.92997e+11
1.17557e+10
-5.04918e+11
1.66819e+10
-6.50564e+11
2.33791e+10
-8.42711e+11
3.47467e+10
-1.1035e+12
6.04218e+10
-1.46464e+12
1.10921e+11
-1.93928e+12
1.63082e+11
-2.48314e+12
1.47301e+11
-3.03391e+12
-1.7896e+11
-2.53708e+12
-1.69364e+12
-4.37735e+12
-1.8691e+10
2.64922e+10
-1.7482e+10
-1.44367e+10
-2.32279e+10
8.26084e+09
-2.91969e+10
7.54011e+09
-4.14299e+10
1.47306e+10
-5.56403e+10
1.78306e+10
-7.46109e+10
2.43895e+10
-9.89555e+10
3.2394e+10
-1.31427e+11
4.42269e+10
-1.77656e+11
6.29102e+10
-2.48083e+11
9.38055e+10
-3.55121e+11
1.41785e+11
-4.9894e+11
2.04241e+11
-6.45993e+11
2.57973e+11
-7.26289e+11
2.43379e+11
-7.55297e+11
1.7631e+11
-1.21631e+12
2.82051e+11
-2.67647e+12
-2.33485e+11
-1.61726e+12
-1.65216e+09
2.72993e+10
-1.22562e+10
-3.83293e+09
-1.34957e+10
9.50033e+09
-1.80065e+10
1.2051e+10
-2.30757e+10
1.98e+10
-3.00573e+10
2.48123e+10
-3.88328e+10
3.31654e+10
-5.03709e+10
4.39323e+10
-6.61667e+10
6.00234e+10
-8.87105e+10
8.54543e+10
-1.2053e+11
1.25626e+11
-1.59533e+11
1.80789e+11
-1.89049e+11
2.33758e+11
-1.62126e+11
2.31051e+11
-2.90488e+10
1.10305e+11
1.60109e+11
-1.28454e+10
5.06919e+11
-6.47553e+10
8.93987e+11
-6.20552e+11
-1.33502e+12
4.07678e+09
1.92609e+10
-7.37981e+09
7.62327e+09
-9.91947e+09
1.20399e+10
-1.27862e+10
1.49175e+10
-1.51109e+10
2.21248e+10
-1.87205e+10
2.84218e+10
-2.30787e+10
3.75238e+10
-2.87613e+10
4.96149e+10
-3.59771e+10
6.72395e+10
-4.42484e+10
9.37259e+10
-5.09297e+10
1.32308e+11
-4.76535e+10
1.77513e+11
-1.69878e+10
2.03094e+11
7.45849e+10
1.39481e+11
1.96517e+11
-1.16233e+10
3.04048e+11
-1.20375e+11
4.09969e+11
-1.70674e+11
3.69366e+11
-5.79946e+11
-1.21463e+12
1.63491e+08
1.56808e+10
-4.63407e+09
1.24206e+10
-6.74774e+09
1.41537e+10
-8.28115e+09
1.64511e+10
-9.33239e+09
2.31764e+10
-1.06383e+10
2.9728e+10
-1.19826e+10
3.88687e+10
-1.32973e+10
5.09301e+10
-1.3937e+10
6.78801e+10
-1.1759e+10
9.15486e+10
-1.47315e+09
1.22023e+11
2.47655e+10
1.51276e+11
7.55444e+10
1.52317e+11
1.54147e+11
6.08795e+10
2.19103e+11
-7.6577e+10
2.7503e+11
-1.76301e+11
3.68372e+11
-2.64012e+11
3.69926e+11
-5.81496e+11
-1.0569e+12
-2.42591e+09
1.46827e+10
-3.88939e+09
1.3884e+10
-4.80711e+09
1.50717e+10
-5.63452e+09
1.72789e+10
-5.7873e+09
2.33298e+10
-5.67365e+09
2.9615e+10
-4.99547e+09
3.81915e+10
-3.25439e+09
4.91898e+10
8.14014e+08
6.38129e+10
9.67809e+09
8.26857e+10
2.82887e+10
1.03414e+11
6.12346e+10
1.18332e+11
1.16386e+11
9.71686e+10
1.75873e+11
1.3957e+09
2.10893e+11
-1.11594e+11
2.40821e+11
-2.06226e+11
2.81506e+11
-3.04694e+11
2.6953e+11
-5.69516e+11
-9.69177e+11
-3.37828e+09
1.46526e+10
-3.23077e+09
1.37363e+10
-3.45427e+09
1.52954e+10
-3.70681e+09
1.75316e+10
-3.18849e+09
2.28119e+10
-2.0946e+09
2.85214e+10
9.28651e+07
3.60046e+10
4.05317e+09
4.523e+10
1.11495e+10
5.67174e+10
2.36499e+10
7.0186e+10
4.54823e+10
8.15831e+10
7.96781e+10
8.4137e+10
1.30191e+11
4.66571e+10
1.74456e+11
-4.28685e+10
1.942e+11
-1.31336e+11
2.11126e+11
-2.23151e+11
2.35889e+11
-3.29455e+11
2.0914e+11
-5.42763e+11
-8.60406e+11
-3.43474e+09
1.5027e+10
-2.45432e+09
1.27561e+10
-2.32918e+09
1.51708e+10
-2.06995e+09
1.72732e+10
-1.0046e+09
2.17477e+10
9.45998e+08
2.65719e+10
4.34145e+09
3.26107e+10
9.90786e+09
3.9665e+10
1.88907e+10
4.77364e+10
3.3358e+10
5.57206e+10
5.55813e+10
5.93624e+10
9.03634e+10
4.93578e+10
1.32269e+11
4.75509e+09
1.59624e+11
-7.02209e+10
1.74389e+11
-1.46098e+11
1.84516e+11
-2.33274e+11
1.92563e+11
-3.37497e+11
1.51883e+11
-5.02077e+11
-7.39462e+11
-2.99983e+09
1.53374e+10
-1.77227e+09
1.15283e+10
-1.37583e+09
1.47745e+10
-6.90622e+08
1.6588e+10
8.60751e+08
2.01966e+10
3.54158e+09
2.38912e+10
7.83327e+09
2.83194e+10
1.44888e+10
3.30097e+10
2.46135e+10
3.76125e+10
3.99878e+10
4.03469e+10
6.23939e+10
3.69572e+10
9.53102e+10
1.64422e+10
1.27899e+11
-2.78326e+10
1.45557e+11
-8.78786e+10
1.56006e+11
-1.56546e+11
1.61779e+11
-2.39047e+11
1.62377e+11
-3.38094e+11
1.31597e+11
-4.71295e+11
-6.498e+11
-2.40103e+09
1.53852e+10
-1.20271e+09
1.03304e+10
-5.65871e+08
1.41384e+10
5.07098e+08
1.55162e+10
2.46313e+09
1.8242e+10
5.70245e+09
2.06536e+10
1.06497e+10
2.33742e+10
1.80448e+10
2.56168e+10
2.89573e+10
2.67026e+10
4.47998e+10
2.45072e+10
6.7889e+10
1.38714e+10
9.52039e+10
-1.08695e+10
1.16627e+11
-4.92528e+10
1.29886e+11
-1.01134e+11
1.38156e+11
-1.64813e+11
1.41227e+11
-2.42114e+11
1.36594e+11
-3.33456e+11
1.10087e+11
-4.44782e+11
-5.81552e+11
-1.81305e+09
1.51576e+10
-7.24897e+08
9.24191e+09
1.23793e+08
1.32897e+10
1.55822e+09
1.40817e+10
3.82413e+09
1.59763e+10
7.46502e+09
1.70128e+10
1.29189e+10
1.79208e+10
2.08966e+10
1.76391e+10
3.24647e+10
1.51349e+10
4.89903e+10
7.98175e+09
6.96207e+10
-6.75861e+09
8.91268e+10
-3.03758e+10
1.04213e+11
-6.43395e+10
1.15081e+11
-1.12002e+11
1.21717e+11
-1.71449e+11
1.22844e+11
-2.43241e+11
1.15736e+11
-3.26347e+11
9.4492e+10
-4.23536e+11
-5.30087e+11
-1.27976e+09
1.46768e+10
-2.83793e+08
8.24672e+09
7.05656e+08
1.23011e+10
2.41726e+09
1.23716e+10
4.93293e+09
1.34626e+10
8.87883e+09
1.30692e+10
1.47632e+10
1.20392e+10
2.33662e+10
9.03896e+09
3.54811e+10
3.02328e+09
5.03698e+10
-6.90396e+09
6.55869e+10
-2.19726e+10
7.94712e+10
-4.42573e+10
9.18294e+10
-7.66946e+10
1.01202e+11
-1.21372e+11
1.0644e+11
-1.76683e+11
1.06013e+11
-2.4281e+11
9.75668e+10
-3.17895e+11
7.98188e+10
-4.05781e+11
-4.92152e+11
-8.28137e+08
1.399e+10
1.23664e+08
7.29445e+09
1.19766e+09
1.12271e+10
3.07052e+09
1.04986e+10
5.79294e+09
1.07404e+10
9.99207e+09
8.86987e+09
1.6434e+10
5.59725e+09
2.53878e+10
8.49255e+07
3.58802e+10
-7.46938e+09
4.68987e+10
-1.79232e+10
5.81977e+10
-3.32722e+10
6.97179e+10
-5.57782e+10
8.03623e+10
-8.73396e+10
8.8338e+10
-1.29348e+11
9.23074e+10
-1.80652e+11
9.05519e+10
-2.41055e+11
8.13253e+10
-3.08668e+11
6.35275e+10
-3.87983e+11
-4.68475e+11
-5.04912e+08
1.31896e+10
4.87959e+08
6.30273e+09
1.6169e+09
1.00989e+10
3.52716e+09
8.59065e+09
6.40863e+09
7.86165e+09
1.09531e+10
4.32869e+09
1.75007e+10
-9.47128e+08
2.48933e+10
-7.30478e+09
3.26071e+10
-1.51804e+10
4.12215e+10
-2.65347e+10
5.07823e+10
-4.28302e+10
6.0671e+10
-6.56639e+10
6.97255e+10
-9.63908e+10
7.63413e+10
-1.3596e+11
7.92242e+10
-1.83531e+11
7.64933e+10
-2.38319e+11
6.64373e+10
-2.98607e+11
4.20636e+10
-3.63602e+11
-4.28768e+11
-2.69547e+08
1.23558e+10
7.6743e+08
5.26528e+09
1.94376e+09
8.92274e+09
3.78361e+09
6.75093e+09
6.87154e+09
4.77352e+09
1.15012e+10
-3.01382e+08
1.66417e+10
-6.08838e+09
2.19981e+10
-1.26621e+10
2.83124e+10
-2.14955e+10
3.56837e+10
-3.3907e+10
4.38643e+10
-5.10117e+10
5.22196e+10
-7.40202e+10
5.97878e+10
-1.0396e+11
6.51817e+10
-1.41355e+11
6.71999e+10
-1.8555e+11
6.40774e+10
-2.35198e+11
5.42797e+10
-2.8881e+11
3.3214e+10
-3.42536e+11
-3.91501e+11
-6.63991e+07
1.14706e+10
9.96033e+08
4.20423e+09
2.15284e+09
7.76671e+09
3.90546e+09
5.00101e+09
7.0326e+09
1.65003e+09
1.07918e+10
-4.05774e+09
1.44843e+10
-9.7784e+09
1.88725e+10
-1.7048e+10
2.42178e+10
-2.68382e+10
3.04399e+10
-4.01265e+10
3.72807e+10
-5.78497e+10
4.42046e+10
-8.09412e+10
5.04129e+10
-1.10165e+11
5.47091e+10
-1.45647e+11
5.60392e+10
-1.86876e+11
5.27671e+10
-2.31921e+11
4.38114e+10
-2.79848e+11
2.78213e+10
-3.26539e+11
-3.65087e+11
3.73762e+07
1.07216e+10
1.05737e+09
3.18407e+09
2.19014e+09
6.63447e+09
3.91791e+09
3.27391e+09
6.64625e+09
-1.07781e+09
9.19396e+09
-6.60568e+09
1.21361e+10
-1.27208e+10
1.57615e+10
-2.06737e+10
2.016e+10
-3.12368e+10
2.52492e+10
-4.52159e+10
3.08133e+10
-6.3414e+10
3.64018e+10
-8.65299e+10
4.13634e+10
-1.15127e+11
4.46949e+10
-1.48979e+11
4.55157e+10
-1.87697e+11
4.22697e+10
-2.28675e+11
3.4459e+10
-2.72037e+11
2.05355e+10
-3.12615e+11
-3.47061e+11
2.23692e+08
9.76606e+09
1.20312e+09
2.20487e+09
2.18771e+09
5.64985e+09
3.64744e+09
1.81479e+09
5.69475e+09
-3.12496e+09
7.61732e+09
-8.52844e+09
9.969e+09
-1.50727e+10
1.28975e+10
-2.36024e+10
1.64442e+10
-3.47837e+10
2.05376e+10
-4.93095e+10
2.49965e+10
-6.78731e+10
2.94525e+10
-9.09859e+10
3.33814e+10
-1.19056e+11
3.59605e+10
-1.51558e+11
3.64602e+10
-1.88197e+11
3.34081e+10
-2.25623e+11
2.65132e+10
-2.65143e+11
1.17969e+10
-2.97899e+11
-3.34149e+11
-2.00073e+08
9.9909e+09
5.06412e+08
1.49853e+09
1.82641e+09
4.33006e+09
3.40601e+09
2.35719e+08
4.92788e+09
-4.64661e+09
6.34095e+09
-9.94141e+09
8.14696e+09
-1.68786e+10
1.04462e+10
-2.59015e+10
1.32378e+10
-3.75751e+10
1.64521e+10
-5.25238e+10
1.99322e+10
-7.1353e+10
2.33854e+10
-9.44389e+10
2.63734e+10
-1.22044e+11
2.82869e+10
-1.53471e+11
2.84338e+10
-1.88344e+11
2.58157e+10
-2.23005e+11
1.94066e+10
-2.58733e+11
3.59204e+09
-2.82084e+11
-3.11926e+11
2.38021e+08
1.69725e+09
3.0103e+09
3.20127e+09
2.84963e+09
3.12278e+09
3.8571e+09
4.86142e+09
6.0894e+09
7.498e+09
9.00057e+09
1.04738e+10
1.16828e+10
1.24369e+10
1.22474e+10
1.11443e+10
7.61782e+09
1.87913e+09
3.09652e+09
-8.09075e+08
5.45124e+09
-2.4234e+08
6.09059e+09
1.20294e+09
6.47461e+09
1.25339e+09
6.75287e+09
1.1427e+09
6.91739e+09
1.09457e+09
6.86021e+09
8.2259e+08
6.80327e+09
6.53972e+08
6.81675e+09
5.48163e+08
6.8021e+09
4.41138e+08
6.72415e+09
3.21107e+08
6.56518e+09
1.84481e+08
6.30321e+09
2.43115e+07
5.92412e+09
-1.61355e+08
5.41496e+09
-3.65709e+08
4.75986e+09
-5.96414e+08
3.9379e+09
-8.4157e+08
2.91108e+09
-1.15807e+09
1.62172e+09
-1.44067e+09
-2.09508e+09
-1.72854e+08
-6.42017e+08
-1.31562e+08
-2.92348e+08
4.23284e+08
6.47732e+08
9.60153e+08
7.13614e+08
1.47286e+09
6.30397e+08
1.98331e+09
5.8241e+08
2.33779e+09
4.68541e+08
2.64202e+09
3.48519e+08
2.9421e+09
2.48499e+08
3.21627e+09
1.66085e+08
3.44758e+09
9.00738e+07
3.6165e+09
1.49224e+07
3.69691e+09
-5.59416e+07
3.66198e+09
-1.26834e+08
3.49783e+09
-2.01614e+08
3.18783e+09
-2.86595e+08
2.72508e+09
-3.79069e+08
2.06669e+09
-4.99948e+08
1.23982e+09
-6.14161e+08
-8.55261e+08
-8.74007e+08
2.29875e+08
-1.3051e+09
1.36899e+08
-8.70679e+08
2.11796e+08
-4.48548e+08
2.88478e+08
-1.09634e+08
2.88451e+08
1.89709e+08
2.78416e+08
4.28054e+08
2.27798e+08
6.16064e+08
1.57052e+08
7.69991e+08
9.31897e+07
8.93096e+08
4.0383e+07
9.87595e+08
-5.25092e+06
1.04981e+09
-4.91212e+07
1.08198e+09
-8.84757e+07
1.07848e+09
-1.24445e+08
1.03695e+09
-1.6033e+08
9.50757e+08
-2.00904e+08
8.1685e+08
-2.45254e+08
6.22345e+08
-3.0547e+08
3.67805e+08
-3.59654e+08
-4.87449e+08
-5.66663e+07
2.87382e+08
-9.14744e+07
1.72101e+08
1.58302e+07
1.05471e+08
1.92098e+08
1.12124e+08
3.77084e+08
1.04056e+08
5.6501e+08
9.01859e+07
7.23304e+08
6.99992e+07
8.35108e+08
4.49807e+07
9.08703e+08
2.01339e+07
9.50631e+08
-1.70963e+06
9.64714e+08
-1.87986e+07
9.49536e+08
-3.39715e+07
9.10376e+08
-4.87517e+07
8.50487e+08
-6.44302e+07
7.72461e+08
-8.17569e+07
6.74099e+08
-1.02277e+08
5.54748e+08
-1.25404e+08
4.06587e+08
-1.56797e+08
2.34712e+08
-1.87185e+08
-2.52745e+08
9.86875e+07
1.85881e+08
1.10158e+08
1.56682e+08
1.20346e+08
9.20774e+07
1.68571e+08
6.02729e+07
2.26818e+08
4.37774e+07
2.82938e+08
3.16006e+07
3.30269e+08
2.12265e+07
3.61923e+08
1.14233e+07
3.79215e+08
1.62665e+06
3.84602e+08
-8.64898e+06
3.83114e+08
-1.83239e+07
3.75403e+08
-2.74743e+07
3.6237e+08
-3.66198e+07
3.43263e+08
-4.62642e+07
3.17271e+08
-5.66368e+07
2.82782e+08
-6.84928e+07
2.3794e+08
-8.12734e+07
1.78791e+08
-9.83015e+07
1.04179e+08
-1.13293e+08
-1.48564e+08
1.07429e+08
7.87049e+07
1.66786e+08
9.72977e+07
1.88968e+08
7.01244e+07
2.06628e+08
4.25203e+07
2.26778e+08
2.39405e+07
2.4622e+08
1.21445e+07
2.63517e+08
4.29003e+06
2.76508e+08
-1.49785e+06
2.84296e+08
-5.79475e+06
2.85338e+08
-9.56763e+06
2.8065e+08
-1.3318e+07
2.70662e+08
-1.73245e+07
2.5606e+08
-2.17345e+07
2.36721e+08
-2.67492e+07
2.12754e+08
-3.24301e+07
1.83621e+08
-3.91955e+07
1.49254e+08
-4.6744e+07
1.08021e+08
-5.69227e+07
6.13601e+07
-6.64802e+07
-8.72072e+07
4.99308e+07
2.86382e+07
1.01092e+08
4.60773e+07
1.29552e+08
4.14185e+07
1.41989e+08
2.99066e+07
1.46442e+08
1.91684e+07
1.47475e+08
1.09027e+07
1.46702e+08
4.71287e+06
1.45161e+08
-133297
1.43034e+08
-4.00158e+06
1.40566e+08
-7.21827e+06
1.37056e+08
-1.01099e+07
1.32583e+08
-1.29269e+07
1.26369e+08
-1.58275e+07
1.18517e+08
-1.89659e+07
1.08204e+08
-2.24002e+07
9.52891e+07
-2.63813e+07
7.89963e+07
-3.07269e+07
5.83739e+07
-3.65597e+07
3.33581e+07
-4.17459e+07
-5.3841e+07
2.98802e+07
1.18564e+06
6.60534e+07
1.16097e+07
9.32628e+07
1.49044e+07
1.10538e+08
1.37436e+07
1.19584e+08
1.07518e+07
1.23965e+08
7.54631e+06
1.24701e+08
4.71727e+06
1.23193e+08
2.38752e+06
1.197e+08
279906
1.15093e+08
-1.65623e+06
1.09275e+08
-3.50872e+06
1.02617e+08
-5.37441e+06
9.48945e+07
-7.31429e+06
8.61639e+07
-9.42237e+06
7.63152e+07
-1.17218e+07
6.50236e+07
-1.43781e+07
5.22651e+07
-1.72959e+07
3.75083e+07
-2.11512e+07
2.12711e+07
-2.4775e+07
-3.25707e+07
4.89013e+06
-2.89709e+06
1.87172e+07
-1.99975e+06
3.27559e+07
1.09845e+06
4.36782e+07
3.03621e+06
5.11703e+07
3.44531e+06
5.60574e+07
2.92025e+06
5.89198e+07
2.01818e+06
6.05893e+07
1.01549e+06
6.1047e+07
-46495.1
6.07921e+07
-1.10385e+06
5.95132e+07
-2.14756e+06
5.76271e+07
-3.21003e+06
5.46546e+07
-4.32459e+06
5.09921e+07
-5.53153e+06
4.61282e+07
-6.84927e+06
4.02713e+07
-8.36601e+06
3.29289e+07
-1.00366e+07
2.39599e+07
-1.2254e+07
1.34344e+07
-1.43145e+07
-1.9131e+07
7.14701e+06
-8.60301e+06
1.46347e+07
-8.55161e+06
2.1932e+07
-5.32514e+06
2.80755e+07
-2.3693e+06
3.29237e+07
-695739
3.64862e+07
44817.9
3.89569e+07
216367
4.071e+07
-73147.5
4.16219e+07
-323172
4.1489e+07
-343674
4.03566e+07
-433351
3.85146e+07
-767531
3.60508e+07
-1.31111e+06
3.30755e+07
-1.99782e+06
2.95708e+07
-2.78877e+06
2.54259e+07
-3.71813e+06
2.05752e+07
-4.76401e+06
1.48436e+07
-6.09991e+06
8.44645e+06
-7.42901e+06
-1.06788e+07
6.64892e+06
-1.43488e+07
1.15519e+07
-1.26255e+07
1.5394e+07
-8.36226e+06
1.82301e+07
-4.31925e+06
2.03578e+07
-2.05305e+06
2.17683e+07
-510697
2.32855e+07
-648099
2.61276e+07
-2.24132e+06
2.91791e+07
-2.87578e+06
3.11996e+07
-1.79729e+06
3.1355e+07
-149824
3.02625e+07
857541
2.83575e+07
1.01387e+06
2.61612e+07
710068
2.35817e+07
259272
2.05715e+07
-227885
1.69099e+07
-757101
1.25469e+07
-1.3632e+06
7.55775e+06
-1.93546e+06
-3.11072e+06
6.77986e+06
-2.03849e+07
8.69908e+06
-1.37837e+07
1.17672e+07
-1.06673e+07
1.5288e+07
-7.10276e+06
1.81634e+07
-4.20519e+06
2.09899e+07
-2.6879e+06
2.3374e+07
-2.42222e+06
2.47307e+07
-3.09002e+06
2.54046e+07
-2.9715e+06
2.55823e+07
-1.47116e+06
2.53739e+07
619938
2.44574e+07
2.24287e+06
2.30746e+07
2.95067e+06
2.12307e+07
3.03614e+06
1.92295e+07
2.88442e+06
1.68444e+07
2.68702e+06
1.40765e+07
2.54727e+06
1.10862e+07
2.20821e+06
7.94574e+06
1.97404e+06
4.84518e+06
-1.46278e+06
-1.78108e+07
-3.37791e+06
-1.0698e+07
-4.11868e+06
-8.47221e+06
-1.8237e+06
-7.19877e+06
1.92773e+06
-5.4523e+06
5.94615e+06
-4.91539e+06
9.1251e+06
-4.39055e+06
1.07609e+07
-3.73447e+06
1.18218e+07
-3.04904e+06
1.33421e+07
-2.19496e+06
1.56766e+07
-979758
1.71829e+07
1.24495e+06
1.78967e+07
2.79202e+06
1.81512e+07
3.20214e+06
1.70145e+07
4.56115e+06
1.44453e+07
5.69444e+06
1.12579e+07
6.22612e+06
7.85026e+06
6.2212e+06
4.05217e+06
6.50765e+06
8.90548e+06
-8.40101e+06
-8.79565e+06
-1.04024e+07
-8.12137e+06
-1.07256e+07
-7.60455e+06
-1.236e+07
-4.95409e+06
-1.27669e+07
-4.5271e+06
-1.3579e+07
-3.50499e+06
-1.37422e+07
-3.70257e+06
-1.31671e+07
-3.72362e+06
-1.14146e+07
-4.15579e+06
-8.33299e+06
-4.63996e+06
-2.73065e+06
-5.49543e+06
6.10795e+06
-6.41652e+06
1.53867e+07
-5.40712e+06
2.14796e+07
-2.44286e+06
2.56962e+07
780013
2.62007e+07
5.43349e+06
2.14365e+07
1.12441e+07
1.29549e+07
1.49804e+07
3.48345e+06
1.63903e+07
1.23937e+07
-5.38279e+07
4.52052e+07
-6.27066e+07
924324
-5.00906e+07
-2.00564e+07
-4.11809e+07
-1.36548e+07
-2.96694e+07
-1.57982e+07
-2.15266e+07
-1.13337e+07
-1.41881e+07
-1.06333e+07
-8.75633e+06
-8.66271e+06
-4.09979e+06
-8.12696e+06
-289106
-7.62614e+06
2.75942e+06
-7.33258e+06
4.55827e+06
-7.03977e+06
6.78561e+06
-6.61138e+06
1.11249e+07
-6.0516e+06
1.71294e+07
-4.50028e+06
2.3758e+07
-759801
2.94901e+07
5.78593e+06
2.99852e+07
1.4672e+07
1.9083e+07
2.7491e+07
3.14784e+07
-1.00144e+08
1.45402e+08
-1.68047e+08
6.88724e+07
-1.88505e+08
447188
-1.89546e+08
-1.25733e+07
-1.84428e+08
-2.08695e+07
-1.75741e+08
-1.99765e+07
-1.6722e+08
-1.91005e+07
-1.57681e+08
-1.81523e+07
-1.47781e+08
-1.79663e+07
-1.37433e+08
-1.79198e+07
-1.26839e+08
-1.78644e+07
-1.16031e+08
-1.77905e+07
-1.04711e+08
-1.78687e+07
-9.27952e+07
-1.79095e+07
-7.97701e+07
-1.74532e+07
-6.39561e+07
-1.65143e+07
-4.32543e+07
-1.48414e+07
-1.93281e+07
-9.14599e+06
-929040
9.22709e+06
3.05498e+07
-2.64551e+07
1.71874e+08
-9.66469e+07
1.39087e+08
-1.48879e+08
5.26997e+07
-1.69795e+08
8.36384e+06
-1.77345e+08
-1.33034e+07
-1.76118e+08
-2.11852e+07
-1.72126e+08
-2.30759e+07
-1.66372e+08
-2.38891e+07
-1.59921e+08
-2.43994e+07
-1.53118e+08
-2.47064e+07
-1.46417e+08
-2.45461e+07
-1.40212e+08
-2.39796e+07
-1.34067e+08
-2.39945e+07
-1.27346e+08
-2.46147e+07
-1.19468e+08
-2.5311e+07
-1.09912e+08
-2.60524e+07
-9.74245e+07
-2.73146e+07
-7.71203e+07
-2.94333e+07
-4.14273e+07
-2.64385e+07
-1.08771e+07
6.27537e+07
1.09132e+08
8.58552e+07
1.15996e+08
7.30818e+07
6.54896e+07
5.53455e+07
2.61189e+07
3.79334e+07
4.13378e+06
2.23438e+07
-5.57061e+06
9.06615e+06
-9.76247e+06
-2.49272e+06
-1.22951e+07
-1.24211e+07
-1.44169e+07
-2.05627e+07
-1.65104e+07
-2.62356e+07
-1.87935e+07
-2.94159e+07
-2.07359e+07
-3.15033e+07
-2.18435e+07
-3.30809e+07
-2.29963e+07
-3.39814e+07
-2.4364e+07
-3.40328e+07
-2.5968e+07
-3.3642e+07
-2.76756e+07
-3.25178e+07
-3.05322e+07
-2.55839e+07
-3.33423e+07
-3.64607e+07
7.2247e+07
3.68929e+07
1.45615e+08
4.26325e+07
1.83449e+08
2.76619e+07
1.9336e+08
1.62133e+07
1.87594e+08
9.90798e+06
1.76278e+08
5.75198e+06
1.64057e+08
2.46907e+06
1.51789e+08
-19379.4
1.39213e+08
-1.82898e+06
1.25989e+08
-3.27711e+06
1.11855e+08
-4.64652e+06
9.71976e+07
-6.06775e+06
8.29532e+07
-7.5848e+06
6.92053e+07
-9.23596e+06
5.59157e+07
-1.10576e+07
4.31388e+07
-1.31763e+07
3.09844e+07
-1.55054e+07
1.90886e+07
-1.86188e+07
7.50206e+06
-2.17351e+07
-2.89584e+07
3.69078e+07
7.95472e+07
1.07218e+08
1.23437e+08
1.33354e+08
1.39111e+08
1.4159e+08
1.41576e+08
1.39758e+08
1.36487e+08
1.31851e+08
1.2579e+08
1.18217e+08
1.08988e+08
9.79428e+07
8.47755e+07
6.92809e+07
5.06741e+07
2.89574e+07
-3.54952e+08
3.55008e+08
-4.59421e+08
1.04511e+08
-4.75454e+08
1.60838e+07
-4.81821e+08
6.40867e+06
-4.70553e+08
-1.12141e+07
-4.61193e+08
-9.31553e+06
-4.51646e+08
-9.48833e+06
-4.37737e+08
-1.38619e+07
-4.21912e+08
-1.57627e+07
-4.07337e+08
-1.45262e+07
-3.92154e+08
-1.51217e+07
-3.71785e+08
-2.03201e+07
-3.47367e+08
-2.4356e+07
-3.20081e+08
-2.72338e+07
-2.89892e+08
-3.01177e+07
-2.55274e+08
-3.45592e+07
-2.06975e+08
-4.82386e+07
-1.39189e+08
-6.7718e+07
-6.30219e+07
-7.60455e+07
-6.30183e+07
-2.73024e+08
6.28075e+08
-5.49728e+08
3.81258e+08
-6.60935e+08
1.27342e+08
-6.81318e+08
2.68379e+07
-6.58246e+08
-3.42295e+07
-6.17118e+08
-5.03909e+07
-5.72541e+08
-5.39915e+07
-5.27213e+08
-5.91196e+07
-4.82031e+08
-6.08474e+07
-4.35741e+08
-6.07145e+07
-3.86974e+08
-6.37442e+07
-3.36609e+08
-7.05226e+07
-2.85817e+08
-7.49252e+07
-2.34761e+08
-7.80489e+07
-1.8278e+08
-8.17655e+07
-1.30107e+08
-8.69304e+07
-8.68604e+07
-9.12418e+07
-6.09728e+07
-9.34047e+07
-4.28702e+07
-9.3942e+07
-1.05886e+08
1.99131e+08
4.28996e+08
2.05692e+08
3.74755e+08
1.69922e+08
1.63203e+08
1.70571e+08
2.62824e+07
1.72616e+08
-3.61799e+07
1.78592e+08
-5.62795e+07
1.84897e+08
-6.01955e+07
1.85551e+08
-5.96819e+07
1.83454e+08
-5.86381e+07
1.80741e+08
-5.78976e+07
1.74619e+08
-5.74981e+07
1.61552e+08
-5.73327e+07
1.44352e+08
-5.75781e+07
1.25012e+08
-5.8564e+07
1.03971e+08
-6.05447e+07
8.0946e+07
-6.3743e+07
5.78084e+07
-6.79423e+07
3.61374e+07
-7.15646e+07
1.78645e+07
-7.54869e+07
-8.802e+07
2.80136e+08
1.48907e+08
5.02726e+08
1.52204e+08
5.92381e+08
7.35896e+07
5.9975e+08
1.89607e+07
5.68539e+08
-4.92106e+06
5.26897e+08
-1.45821e+07
4.85857e+08
-1.90974e+07
4.47995e+08
-2.17537e+07
4.13094e+08
-2.36695e+07
3.80405e+08
-2.51329e+07
3.49185e+08
-2.62048e+07
3.18882e+08
-2.6947e+07
2.8884e+08
-2.74595e+07
2.58174e+08
-2.78106e+07
2.25728e+08
-2.80095e+07
1.9009e+08
-2.80156e+07
1.49904e+08
-2.76841e+07
1.05989e+08
-2.75644e+07
5.78196e+07
-2.71952e+07
-3.01959e+07
1.10548e+08
3.85606e+07
2.14817e+08
4.80796e+07
2.51169e+08
3.73934e+07
2.46647e+08
2.3653e+07
2.29158e+08
1.27606e+07
2.097e+08
5.08223e+06
1.91002e+08
-166850
1.73227e+08
-3.74464e+06
1.561e+08
-6.28072e+06
1.39354e+08
-8.13088e+06
1.22942e+08
-9.51546e+06
1.06856e+08
-1.05811e+07
9.11277e+07
-1.14274e+07
7.57589e+07
-1.21385e+07
6.08921e+07
-1.2782e+07
4.66294e+07
-1.3418e+07
3.34104e+07
-1.41388e+07
2.13054e+07
-1.50978e+07
1.1084e+07
-1.65117e+07
-1.91059e+07
2.014e+07
1.89562e+07
4.64703e+07
2.21255e+07
6.50541e+07
1.9131e+07
7.64544e+07
1.25959e+07
8.2911e+07
6.62799e+06
8.57573e+07
2.61269e+06
8.58952e+07
49999.5
8.41453e+07
-1.60288e+06
8.09896e+07
-2.76306e+06
7.68735e+07
-3.61076e+06
7.1963e+07
-4.2427e+06
6.65241e+07
-4.7181e+06
6.05362e+07
-5.07008e+06
5.41495e+07
-5.31839e+06
4.72821e+07
-5.49039e+06
3.98957e+07
-5.59175e+06
3.17259e+07
-5.63908e+06
2.27336e+07
-5.73008e+06
1.2499e+07
-5.75814e+06
-6.59399e+06
6.65672e+06
1.3571e+07
1.81467e+07
1.16128e+07
2.97399e+07
8.31326e+06
3.79315e+07
5.20166e+06
4.22714e+07
3.01902e+06
4.3981e+07
1.7305e+06
4.39013e+07
924163
4.28152e+07
344830
4.0979e+07
-103226
3.86878e+07
-443151
3.59446e+07
-691339
3.2981e+07
-862094
2.96803e+07
-961008
2.62399e+07
-989784
2.26233e+07
-967865
1.88039e+07
-884715
1.46261e+07
-751125
1.02998e+07
-598966
6.18582e+06
-455150
-386737
7.12103e+06
7.64287e+06
1.33072e+07
6.36931e+06
1.79132e+07
4.60316e+06
2.04341e+07
3.57858e+06
2.13986e+07
2.96317e+06
2.15283e+07
2.59842e+06
2.11294e+07
2.35854e+06
2.04219e+07
2.18437e+06
1.94127e+07
2.06117e+06
1.82189e+07
1.9823e+06
1.67636e+07
1.94789e+06
1.52733e+07
1.94962e+06
1.35415e+07
1.98851e+06
1.18774e+07
2.06142e+06
1.01944e+07
2.15054e+06
8.51137e+06
2.27158e+06
6.48516e+06
2.41231e+06
4.6852e+06
2.60872e+06
3.49359e+06
2.69216e+06
3.16233e+06
5.01341e+06
8.139e+06
7.93592e+06
7.68297e+06
9.54862e+06
7.04066e+06
1.01582e+07
6.80756e+06
1.05141e+07
6.57584e+06
1.04637e+07
6.45843e+06
1.05363e+07
6.33571e+06
1.02147e+07
6.25963e+06
1.01081e+07
6.16551e+06
9.58829e+06
6.10447e+06
9.26646e+06
6.02501e+06
8.67192e+06
5.97722e+06
8.32668e+06
5.90747e+06
7.65351e+06
5.88777e+06
7.40844e+06
5.86721e+06
6.5309e+06
5.91597e+06
5.62022e+06
6.03694e+06
4.56e+06
6.3378e+06
3.62684e+06
6.60977e+06
6.78313e+06
664007
8.73475e+06
887274
8.9107e+06
200175
9.03405e+06
-420382
9.10088e+06
-1.74642e+06
9.04687e+06
-2.61108e+06
8.99841e+06
-4.16703e+06
8.86445e+06
-4.98816e+06
8.73784e+06
-6.5839e+06
8.51948e+06
-7.20755e+06
8.30787e+06
-8.66744e+06
8.00212e+06
-8.93982e+06
7.69964e+06
-1.01375e+07
7.2972e+06
-9.94449e+06
6.88146e+06
-1.02748e+07
6.31192e+06
-9.24913e+06
5.64283e+06
-8.35056e+06
4.79446e+06
-6.35865e+06
4.01951e+06
-3.67487e+06
3.51794e+06
3.08897e+06
-7.5706e+06
1.7062e+07
-1.35597e+07
1.51793e+07
-1.82939e+07
1.47142e+07
-2.26451e+07
1.41723e+07
-2.64923e+07
1.38266e+07
-3.00634e+07
1.34637e+07
-3.35207e+07
1.30984e+07
-3.65605e+07
1.2683e+07
-3.96764e+07
1.2187e+07
-4.21217e+07
1.15931e+07
-4.46745e+07
1.08343e+07
-4.61166e+07
9.86893e+06
-4.73837e+07
8.55724e+06
-4.67224e+07
6.79059e+06
-4.49263e+07
4.36068e+06
-4.01945e+07
1.16672e+06
-3.29861e+07
-2.84946e+06
-2.23542e+07
-7.0757e+06
-9.91611e+06
-9.83009e+06
-6.86767e+06
-1.18635e+07
2.31476e+07
-2.32963e+07
2.17526e+07
-3.36003e+07
2.154e+07
-4.38312e+07
2.11727e+07
-5.33786e+07
2.0917e+07
-6.28219e+07
2.05624e+07
-7.1787e+07
2.01151e+07
-8.03693e+07
1.94849e+07
-8.83981e+07
1.86132e+07
-9.55933e+07
1.73815e+07
-1.01701e+08
1.56303e+07
-1.06156e+08
1.3122e+07
-1.08302e+08
9.55836e+06
-1.07228e+08
4.62745e+06
-1.01977e+08
-1.97686e+06
-9.12802e+07
-1.04481e+07
-7.41438e+07
-2.07006e+07
-5.05936e+07
-3.13299e+07
-2.34257e+07
-3.81746e+07
-3.02811e+07
-2.46179e+07
5.01438e+07
-4.56436e+07
4.45236e+07
-6.59255e+07
4.3372e+07
-8.53903e+07
4.19274e+07
-1.04278e+08
4.0971e+07
-1.22556e+08
3.98911e+07
-1.40144e+08
3.86345e+07
-1.56783e+08
3.69609e+07
-1.72142e+08
3.46816e+07
-1.85649e+08
3.15e+07
-1.96523e+08
2.70455e+07
-2.03814e+08
2.08102e+07
-2.06017e+08
1.22489e+07
-2.01971e+08
814300
-1.8952e+08
-1.40191e+07
-1.67252e+08
-3.26514e+07
-1.32981e+08
-5.45355e+07
-8.79786e+07
-7.60251e+07
-3.79368e+07
-8.77821e+07
-6.82625e+07
-4.21169e+07
8.61155e+07
-8.31947e+07
8.11879e+07
-1.2337e+08
7.97038e+07
-1.62513e+08
7.81774e+07
-2.0121e+08
7.67619e+07
-2.38411e+08
7.49146e+07
-2.74621e+08
7.23963e+07
-3.08346e+08
6.89122e+07
-3.39896e+08
6.40859e+07
-3.67302e+08
5.73831e+07
-3.90122e+08
4.8011e+07
-4.05613e+08
3.49188e+07
-4.11995e+08
1.69049e+07
-4.05115e+08
-7.3345e+06
-3.81497e+08
-3.91913e+07
-3.35673e+08
-7.96068e+07
-2.64667e+08
-1.26648e+08
-1.70935e+08
-1.70887e+08
-7.07649e+07
-1.89747e+08
-1.39062e+08
-1.01905e+08
1.871e+08
-1.86768e+08
1.6594e+08
-2.69731e+08
1.61937e+08
-3.47803e+08
1.5631e+08
-4.24373e+08
1.52617e+08
-4.97918e+08
1.48545e+08
-5.70126e+08
1.4387e+08
-6.38794e+08
1.37578e+08
-7.04183e+08
1.28672e+08
-7.62656e+08
1.15705e+08
-8.12241e+08
9.67733e+07
-8.47161e+08
6.95117e+07
-8.62505e+08
3.13656e+07
-8.49874e+08
-2.04547e+07
-8.0144e+08
-8.85325e+07
-7.06471e+08
-1.75231e+08
-5.56641e+08
-2.77189e+08
-3.54983e+08
-3.7338e+08
-1.37294e+08
-4.08861e+08
-2.76425e+08
-1.50784e+08
3.3111e+08
-3.14104e+08
3.25329e+08
-4.79337e+08
3.22739e+08
-6.45418e+08
3.20099e+08
-8.12656e+08
3.16331e+08
-9.75654e+08
3.09945e+08
-1.13429e+09
2.99419e+08
-1.28153e+09
2.835e+08
-1.41628e+09
2.60594e+08
-1.53064e+09
2.28839e+08
-1.62217e+09
1.85739e+08
-1.68215e+09
1.2821e+08
-1.70577e+09
5.24937e+07
-1.68109e+09
-4.64498e+07
-1.5959e+09
-1.75938e+08
-1.42499e+09
-3.47411e+08
-1.14402e+09
-5.59843e+08
-7.43906e+08
-7.75063e+08
-2.85849e+08
-8.6957e+08
-5.62268e+08
-5.016e+08
8.38817e+08
-8.93067e+08
7.22875e+08
-1.25667e+09
6.89303e+08
-1.57815e+09
6.46073e+08
-1.87248e+09
6.12436e+08
-2.13617e+09
5.77329e+08
-2.37729e+09
5.41742e+08
-2.59392e+09
5.03112e+08
-2.79173e+09
4.59066e+08
-2.96696e+09
4.06308e+08
-3.12048e+09
3.3962e+08
-3.24111e+09
2.50386e+08
-3.31579e+09
1.27356e+08
-3.31838e+09
-4.30167e+07
-3.21077e+09
-2.83384e+08
-2.93667e+09
-6.21454e+08
-2.43682e+09
-1.05929e+09
-1.66914e+09
-1.5426e+09
-7.01837e+08
-1.8367e+09
-1.26416e+09
-3.46846e+08
1.18335e+09
-9.39247e+08
1.31609e+09
-1.57045e+09
1.3179e+09
-2.23423e+09
1.31071e+09
-2.91692e+09
1.29239e+09
-3.60217e+09
1.26328e+09
-4.28225e+09
1.21909e+09
-4.93381e+09
1.15505e+09
-5.54896e+09
1.07147e+09
-6.10172e+09
9.58994e+08
-6.56343e+09
7.98836e+08
-6.88298e+09
5.69382e+08
-7.00683e+09
2.488e+08
-6.89116e+09
-1.59718e+08
-6.4997e+09
-6.76943e+08
-5.80116e+09
-1.32143e+09
-4.75959e+09
-2.10216e+09
-3.32181e+09
-2.98174e+09
-1.50129e+09
-3.65932e+09
-2.76551e+09
-2.54684e+09
3.73175e+09
-4.70271e+09
3.4758e+09
-6.70096e+09
3.31577e+09
-8.4447e+09
3.05736e+09
-9.93796e+09
2.7845e+09
-1.1148e+10
2.47565e+09
-1.20352e+10
2.10479e+09
-1.26258e+10
1.74722e+09
-1.29626e+10
1.40651e+09
-1.29883e+10
9.85485e+08
-1.26846e+10
4.93251e+08
-1.20635e+10
-5.18307e+07
-1.11551e+10
-6.61651e+08
-9.98644e+09
-1.32936e+09
-8.6061e+09
-2.05944e+09
-7.07459e+09
-2.85464e+09
-5.44173e+09
-3.73675e+09
-3.6907e+09
-4.73476e+09
-1.68894e+09
-5.66391e+09
-4.4546e+09
-6.36609e+09
-1.01151e+10
-1.27334e+10
-1.45191e+10
-1.5694e+10
-1.64031e+10
-1.68371e+10
-1.69562e+10
-1.67611e+10
-1.62375e+10
-1.54107e+10
-1.43242e+10
-1.30582e+10
-1.16443e+10
-1.01251e+10
-8.5251e+09
-6.88009e+09
-5.17537e+09
-3.21605e+09
)
;

boundaryField
{
    outletWall
    {
        type            calculated;
        value           nonuniform List<scalar> 
60
(
1.41865e+12
-3.23064e+12
1.19681e+12
7.29736e+11
3.96554e+11
3.1156e+11
2.50221e+11
2.0037e+11
1.574e+11
1.22267e+11
9.52396e+10
7.46098e+10