/*--------------------------------*- C++ -*----------------------------------*\
| =========                 |                                                 |
| \\      /  F ield         | OpenFOAM: The Open Source CFD Toolbox           |
|  \\    /   O peration     | Version:  4.1                                   |
|   \\  /    A nd           | Web:      www.OpenFOAM.org                      |
|    \\/     M anipulation  |                                                 |
\*---------------------------------------------------------------------------*/
FoamFile
{
    version     2.0;
    format      ascii;
    class       volVectorField;
    location    "29";
    object      U;
}
// * * * * * * * * * * * * * * * * * * * * * * * * * * * * * * * * * * * * * //

dimensions      [0 1 -1 0 0 0 0];

internalField   nonuniform List<vector> 
1280
(
(-8.87666e-11 1.12295e+08 -1.75817e+06)
(1.29748e-09 9.58451e+07 1.16459e+07)
(-6.42595e-09 6.45515e+07 7.63145e+06)
(-4.06237e-09 6.72248e+07 4.35422e+06)
(-3.60408e-09 8.909e+07 1.30115e+07)
(-2.86025e-09 5.95065e+07 6.4815e+06)
(3.21711e-09 6.63324e+07 4.38337e+06)
(-2.37873e-08 5.94272e+07 4.41755e+06)
(5.70048e-08 7.94628e+07 649816)
(6.0921e-08 6.07869e+07 -401811)
(6.13214e-08 6.00186e+07 636697)
(-1.64411e-07 8.18606e+07 286788)
(-1.27301e-07 6.15363e+07 -94896.5)
(-9.15516e-08 6.07879e+07 9354.81)
(-3.17799e-07 8.31583e+07 3.5839e+06)
(-1.96808e-07 6.22673e+07 2.08917e+06)
(-1.42075e-07 6.08018e+07 530117)
(-1.4271e-07 8.76043e+07 8.86279e+06)
(-7.14694e-08 5.77073e+07 4.2877e+06)
(-7.75361e-08 6.97976e+07 5.98602e+06)
(7.62604e-09 6.31669e+07 -2.4827e+06)
(3.4847e-08 6.14914e+07 -3.58962e+06)
(-2.40748e-09 6.25102e+07 -2.74795e+06)
(-2.98802e-08 6.07788e+07 -1.5059e+06)
(-3.85752e-08 6.17786e+07 504379)
(-3.54322e-08 5.60312e+07 1.6228e+06)
(-3.21077e-08 1.08188e+08 1.14435e+07)
(-2.2706e-08 6.12274e+07 5.95995e+06)
(-1.76614e-08 5.91712e+07 2.50168e+06)
(-1.31185e-08 6.01868e+07 -120478)
(-9.27145e-09 5.98728e+07 -1.24671e+06)
(-6.13377e-09 5.96727e+07 -1.38493e+06)
(-3.61956e-09 5.98566e+07 -786724)
(3.51443e-10 6.00378e+07 377126)
(6.30974e-09 6.0407e+07 1.92284e+06)
(1.46708e-08 6.05227e+07 3.81338e+06)
(2.10422e-08 6.13955e+07 5.85701e+06)
(3.25594e-08 6.07529e+07 8.43094e+06)
(3.53003e-08 6.35212e+07 1.04625e+07)
(1.37903e-07 5.94852e+07 1.54935e+07)
(1.0721e-10 1.38802e+08 -9.51044e+06)
(-4.17818e-08 7.45748e+07 -7.51482e+06)
(-2.63186e-08 7.70952e+07 -6.32053e+06)
(-5.83318e-08 7.2268e+07 -2.34678e+06)
(-2.59154e-07 1.1495e+08 -1.96757e+07)
(-1.59074e-07 8.3883e+07 -1.34875e+07)
(-1.16342e-07 9.62244e+07 -1.02815e+07)
(-6.37242e-08 8.65088e+07 -4.50662e+06)
(-3.37441e-07 1.27808e+08 -1.68792e+07)
(8.23449e-08 1.02322e+08 -9.88143e+06)
(3.72788e-07 1.00186e+08 -5.7291e+06)
(3.61086e-07 1.54308e+08 -1.45204e+07)
(1.85423e-07 1.10506e+08 -9.90559e+06)
(1.35433e-07 1.26137e+08 -8.44253e+06)
(9.22984e-08 1.12466e+08 -3.99783e+06)
(9.85441e-08 1.72471e+08 -9.96814e+06)
(-6.74204e-09 1.23972e+08 -5.9371e+06)
(-9.31426e-09 1.42511e+08 -3.16525e+06)
(5.69232e-09 1.22381e+08 -59150.5)
(-1.96695e-07 2.16254e+08 3.92064e+06)
(-1.39779e-07 1.43829e+08 -2.29178e+07)
(-1.18352e-07 1.37164e+08 -2.52331e+07)
(-9.6651e-08 1.38417e+08 -2.1935e+07)
(-7.43498e-08 1.37311e+08 -1.78609e+07)
(-5.66177e-08 1.3565e+08 -1.39035e+07)
(-4.26564e-08 1.34552e+08 -9.92841e+06)
(-3.24686e-08 1.33502e+08 -5.84732e+06)
(-2.57647e-08 1.32648e+08 -1.62121e+06)
(-2.01856e-08 1.31538e+08 2.68065e+06)
(-1.79576e-08 1.31355e+08 7.24606e+06)
(-1.93616e-08 1.29134e+08 1.17799e+07)
(-2.16392e-08 1.32008e+08 1.65573e+07)
(-2.27339e-08 1.22247e+08 2.18326e+07)
(1.26169e-08 2.68315e+08 -2.24913e+07)
(-2.95118e-08 1.66006e+08 2.51075e+06)
(-2.49338e-08 1.66515e+08 548107)
(-3.43985e-08 1.7248e+08 -187662)
(-3.56472e-08 1.72661e+08 2.62044e+06)
(-1.38244e-07 1.78675e+08 4.79198e+06)
(-1.83133e-07 1.71379e+08 1.7708e+07)
(5.20146e-08 2.28512e+08 -1.10968e+07)
(7.74006e-08 1.60413e+08 -4.15142e+06)
(6.84655e-08 2.59414e+08 -1.02726e+08)
(2.70908e-08 2.3053e+08 -6.83948e+07)
(5.08797e-08 2.33585e+08 -3.82988e+07)
(-3.33013e-07 3.42587e+08 -1.08644e+08)
(-2.83714e-07 3.00081e+08 -6.74818e+07)
(-2.64293e-07 2.95384e+08 -3.63373e+07)
(-4.6714e-07 4.52039e+08 -1.48714e+08)
(-2.60462e-07 3.7316e+08 -1.02717e+08)
(-8.72566e-08 3.80098e+08 -5.51018e+07)
(-6.31476e-07 6.09976e+08 -2.70186e+08)
(-6.03267e-07 5.30069e+08 -2.06095e+08)
(-4.68273e-07 6.77253e+08 -4.84148e+07)
(-2.57847e-07 4.89572e+08 -5.53174e+08)
(-1.15321e-06 9.73824e+08 5.61404e+09)
(-1.97392e-06 -1.10982e+09 1.09928e+10)
(-2.37194e-06 -1.9027e+09 1.32117e+10)
(1.87304e-06 -3.67123e+09 -9.94946e+09)
(1.62904e-05 -9.67764e+09 -9.03731e+10)
(-9.74193e-09 8.14699e+07 9.34597e+07)
(-5.21136e-09 2.51485e+07 3.37855e+07)
(-9.32345e-09 5.38619e+07 7.26734e+07)
(-1.15825e-08 5.63206e+07 8.39338e+07)
(-1.56246e-08 7.01541e+07 1.09202e+08)
(-2.07191e-08 8.43661e+07 1.37797e+08)
(-2.76651e-08 1.02577e+08 1.75679e+08)
(-3.70204e-08 1.24737e+08 2.24107e+08)
(-4.97614e-08 1.52234e+08 2.86835e+08)
(-6.71751e-08 1.86802e+08 3.68035e+08)
(-9.10422e-08 2.31688e+08 4.73335e+08)
(-1.23878e-07 2.92902e+08 6.10667e+08)
(-1.69614e-07 3.81912e+08 7.93455e+08)
(-2.3475e-07 5.19475e+08 1.04521e+09)
(-3.27804e-07 7.25977e+08 1.39513e+09)
(-4.52729e-07 9.79017e+08 1.84579e+09)
(-5.9464e-07 1.19545e+09 2.29002e+09)
(-6.84763e-07 1.1358e+09 2.50195e+09)
(-4.68393e-07 4.99083e+07 2.25144e+09)
(-1.75252e-09 -3.51816e+07 8.2082e+06)
(-2.06881e-09 -1.01065e+07 1.3902e+07)
(-5.05798e-09 -3.30085e+07 1.78755e+07)
(-6.24652e-09 -3.56562e+07 1.99863e+07)
(-8.71638e-09 -4.35161e+07 2.93801e+07)
(-1.19043e-08 -5.30134e+07 3.95514e+07)
(-1.63819e-08 -6.45932e+07 5.33926e+07)
(-2.25212e-08 -7.88089e+07 7.10341e+07)
(-3.09568e-08 -9.61694e+07 9.39124e+07)
(-4.25366e-08 -1.17744e+08 1.25036e+08)
(-5.84201e-08 -1.46188e+08 1.7086e+08)
(-7.97854e-08 -1.87853e+08 2.42047e+08)
(-1.06411e-07 -2.56166e+08 3.50279e+08)
(-1.33324e-07 -3.7314e+08 4.88617e+08)
(-1.47651e-07 -5.54586e+08 5.95494e+08)
(-1.36697e-07 -7.29516e+08 6.09615e+08)
(-1.31943e-07 -5.89753e+08 6.86489e+08)
(-2.7739e-07 3.94099e+08 1.28706e+09)
(-6.6978e-07 1.73191e+09 3.17009e+09)
(-5.86259e-11 -1.25681e+07 -5.09467e+06)
(-1.08751e-09 1.16973e+07 8.55566e+06)
(-2.68892e-09 4.72699e+06 1.05793e+07)
(-3.47198e-09 6.3176e+06 1.28e+07)
(-4.93177e-09 3.91533e+06 1.66813e+07)
(-6.83594e-09 5.44908e+06 2.17634e+07)
(-9.53539e-09 5.23849e+06 2.81639e+07)
(-1.32645e-08 4.94816e+06 3.64198e+07)
(-1.84474e-08 3.00519e+06 4.73553e+07)
(-2.56239e-08 -1.98522e+06 6.26279e+07)
(-3.53439e-08 -1.15711e+07 8.46437e+07)
(-4.75989e-08 -2.46213e+07 1.1486e+08)
(-6.055e-08 -3.3019e+07 1.49327e+08)
(-6.88497e-08 -1.51192e+07 1.65293e+08)
(-6.33558e-08 6.11888e+07 1.10434e+08)
(-3.51911e-08 1.74297e+08 -6.81081e+07)
(-1.05043e-08 6.61984e+07 -2.37779e+08)
(-1.08523e-08 -1.36529e+08 -5.63982e+08)
(1.26718e-07 -1.19934e+08 -8.5314e+08)
(2.66952e-10 -3.36557e+06 -2.93259e+06)
(-5.20701e-10 -3.7076e+06 794947)
(-1.52988e-09 -2.94422e+06 8.42816e+06)
(-2.0401e-09 -4.27818e+06 9.18463e+06)
(-2.91703e-09 -5.86608e+06 1.1478e+07)
(-4.08583e-09 -7.73732e+06 1.38792e+07)
(-5.74333e-09 -1.02001e+07 1.71726e+07)
(-8.05124e-09 -1.35066e+07 2.12491e+07)
(-1.12835e-08 -1.83138e+07 2.65645e+07)
(-1.57684e-08 -2.57366e+07 3.30983e+07)
(-2.17814e-08 -3.71388e+07 4.00749e+07)
(-2.917e-08 -5.20195e+07 4.34765e+07)
(-3.63845e-08 -6.24567e+07 3.47819e+07)
(-3.81811e-08 -4.43766e+07 -2.8007e+06)
(-2.83311e-08 1.79553e+07 -1.21034e+08)
(-1.52482e-08 3.90052e+07 -2.03123e+08)
(-7.29755e-09 4.19373e+07 -3.11946e+08)
(-1.9581e-10 3.06058e+08 -3.56136e+08)
(2.68546e-09 6.77632e+08 -2.52491e+08)
(2.79975e-10 -5.99016e+06 1.64121e+06)
(-3.78539e-10 -3.55277e+06 616385)
(-9.19733e-10 -5.30551e+06 5.85929e+06)
(-1.24827e-09 -6.37721e+06 6.00109e+06)
(-1.78986e-09 -8.996e+06 7.42148e+06)
(-2.52591e-09 -1.15319e+07 8.20858e+06)
(-3.57074e-09 -1.50092e+07 9.40627e+06)
(-5.03542e-09 -1.95773e+07 1.04974e+07)
(-7.10354e-09 -2.60049e+07 1.15231e+07)
(-1.00076e-08 -3.53289e+07 1.13868e+07)
(-1.39024e-08 -4.83267e+07 7.60776e+06)
(-1.81448e-08 -6.25233e+07 -6.07689e+06)
(-2.12248e-08 -6.93815e+07 -3.4041e+07)
(-1.99473e-08 -4.84425e+07 -8.89665e+07)
(-1.22296e-08 -2.41633e+06 -1.66434e+08)
(-5.14558e-09 4.35071e+07 -1.96973e+08)
(-4.25347e-10 7.63748e+07 -2.70976e+08)
(1.40676e-09 1.53639e+08 -3.30756e+08)
(8.46295e-09 2.73254e+08 -2.60828e+08)
(1.93391e-10 -5.33136e+06 5.58722e+06)
(-2.90635e-10 -4.21294e+06 894223)
(-5.70593e-10 -4.79856e+06 4.46673e+06)
(-7.82692e-10 -5.44357e+06 4.11034e+06)
(-1.12445e-09 -7.63578e+06 4.94547e+06)
(-1.59534e-09 -9.75306e+06 4.75018e+06)
(-2.26538e-09 -1.27249e+07 4.58456e+06)
(-3.22181e-09 -1.66642e+07 3.64785e+06)
(-4.57236e-09 -2.21734e+07 1.58504e+06)
(-6.3321e-09 -2.94814e+07 -3.23008e+06)
(-8.45411e-09 -3.81081e+07 -1.31942e+07)
(-1.04287e-08 -4.51682e+07 -3.44186e+07)
(-1.12498e-08 -4.13465e+07 -6.65021e+07)
(-9.17603e-09 -6.51514e+06 -1.26e+08)
(-5.5793e-09 3.91061e+07 -1.65125e+08)
(-5.10559e-10 6.89043e+07 -1.83984e+08)
(4.1957e-09 9.62486e+07 -2.19647e+08)
(3.50785e-09 2.05708e+08 -2.43324e+08)
(-2.2793e-09 3.74219e+08 -1.96984e+08)
(1.04071e-10 -4.70245e+06 7.78853e+06)
(-2.15097e-10 -4.71123e+06 496920)
(-3.60013e-10 -4.98804e+06 3.6301e+06)
(-4.97909e-10 -5.70662e+06 2.71423e+06)
(-7.1645e-10 -7.53909e+06 3.13334e+06)
(-1.02282e-09 -9.50783e+06 2.24481e+06)
(-1.4762e-09 -1.21954e+07 1.10998e+06)
(-2.06067e-09 -1.55413e+07 -1.34648e+06)
(-2.82255e-09 -1.9756e+07 -5.55552e+06)
(-3.74336e-09 -2.49738e+07 -1.32289e+07)
(-4.70049e-09 -3.00528e+07 -2.64122e+07)
(-5.42765e-09 -3.27123e+07 -4.95154e+07)
(-5.29231e-09 -2.24353e+07 -8.25971e+07)
(-3.86895e-09 8.10511e+06 -1.32942e+08)
(-1.64598e-09 3.84537e+07 -1.55091e+08)
(8.44751e-09 6.94934e+07 -1.66337e+08)
(1.04535e-08 1.05735e+08 -1.86222e+08)
(3.45271e-09 1.80201e+08 -2.03067e+08)
(4.63674e-10 2.88883e+08 -1.37462e+08)
(4.43595e-11 -4.88692e+06 8.38556e+06)
(-1.52439e-10 -4.4673e+06 -134294)
(-2.29478e-10 -5.10154e+06 2.94988e+06)
(-3.19782e-10 -5.84431e+06 1.51246e+06)
(-4.62437e-10 -7.47442e+06 1.61328e+06)
(-6.64049e-10 -9.27294e+06 128564)
(-8.3648e-10 -1.15344e+07 -1.83926e+06)
(-1.20226e-09 -1.4235e+07 -5.4556e+06)
(-1.61266e-09 -1.7489e+07 -1.11719e+07)
(-2.00077e-09 -2.10654e+07 -2.04361e+07)
(-2.45842e-09 -2.35146e+07 -3.53169e+07)
(-2.40507e-09 -2.24617e+07 -5.70676e+07)
(-1.68507e-09 -8.79969e+06 -9.3479e+07)
(-3.47222e-09 1.92667e+07 -1.24402e+08)
(1.35549e-08 4.69991e+07 -1.39641e+08)
(2.71467e-08 7.67692e+07 -1.48913e+08)
(1.45846e-08 1.11483e+08 -1.57281e+08)
(1.69298e-09 1.74958e+08 -1.6107e+08)
(-4.08528e-10 2.7014e+08 -7.73685e+07)
(1.30766e-11 -5.06445e+06 8.09776e+06)
(-1.04478e-10 -4.03029e+06 -727346)
(-1.47411e-10 -4.99027e+06 2.3818e+06)
(-2.07198e-10 -5.65484e+06 492868)
(-2.98419e-10 -7.01841e+06 324492)
(-3.76751e-10 -8.44699e+06 -1.68739e+06)
(-1.16825e-09 -1.01814e+07 -4.33398e+06)
(-9.32394e-10 -1.21458e+07 -8.76761e+06)
(-8.74545e-10 -1.4269e+07 -1.547e+07)
(-1.16691e-09 -1.60522e+07 -2.56319e+07)
(6.57946e-12 -1.611e+07 -4.10361e+07)
(-4.03174e-09 -1.09773e+07 -6.27925e+07)
(7.61693e-09 4.74125e+06 -9.56142e+07)
(-5.49164e-10 2.67528e+07 -1.14963e+08)
(6.08378e-08 5.00463e+07 -1.25723e+08)
(4.59747e-08 7.80218e+07 -1.3239e+08)
(1.09414e-08 1.12117e+08 -1.35475e+08)
(-6.88441e-10 1.59886e+08 -1.33044e+08)
(-1.61201e-09 2.25419e+08 -7.52355e+07)
(-5.10705e-13 -5.11696e+06 7.45584e+06)
(-7.00231e-11 -3.62097e+06 -1.22608e+06)
(-9.52978e-11 -4.8078e+06 1.90345e+06)
(-1.33905e-10 -5.3514e+06 -374892)
(-1.84708e-10 -6.40152e+06 -811214)
(-4.14551e-10 -7.41293e+06 -3.21581e+06)
(4.15586e-09 -8.60712e+06 -6.39603e+06)
(8.08847e-10 -9.76541e+06 -1.13944e+07)
(-4.10055e-10 -1.07196e+07 -1.8751e+07)
(8.16621e-10 -1.07986e+07 -2.95602e+07)
(-1.32354e-08 -8.55414e+06 -4.50449e+07)
(8.25156e-08 -474224 -6.79541e+07)
(5.87824e-08 1.33969e+07 -8.93965e+07)
(7.35187e-09 3.14596e+07 -1.03064e+08)
(1.18249e-07 5.33514e+07 -1.11703e+08)
(3.59951e-08 7.99472e+07 -1.16831e+08)
(1.37419e-09 1.11533e+08 -1.16543e+08)
(-1.28276e-09 1.51816e+08 -1.09254e+08)
(9.33222e-10 2.03963e+08 -6.63384e+07)
(-5.22772e-12 -5.08401e+06 6.71284e+06)
(-4.62804e-11 -3.24276e+06 -1.61623e+06)
(-6.17916e-11 -4.57018e+06 1.48472e+06)
(-8.51799e-11 -4.9388e+06 -1.10693e+06)
(-1.10971e-10 -5.69444e+06 -1.82262e+06)
(-1.43583e-10 -6.27614e+06 -4.47608e+06)
(-2.95956e-09 -6.89056e+06 -8.06842e+06)
(-2.60881e-10 -7.23394e+06 -1.35058e+07)
(-1.28775e-10 -7.01295e+06 -2.13831e+07)
(5.59854e-10 -5.51901e+06 -3.27413e+07)
(-1.31678e-09 -985642 -4.87915e+07)
(-2.15459e-09 7.40467e+06 -6.65515e+07)
(-4.28508e-09 1.90955e+07 -8.0728e+07)
(-9.09601e-10 3.53944e+07 -9.14593e+07)
(-1.30419e-08 5.57454e+07 -9.87694e+07)
(-8.24137e-09 8.04294e+07 -1.02515e+08)
(-1.48105e-09 1.09352e+08 -1.00313e+08)
(7.5728e-12 1.43369e+08 -9.08605e+07)
(6.31858e-09 1.82537e+08 -6.16215e+07)
(-6.15385e-12 -4.97026e+06 5.98079e+06)
(-3.0306e-11 -2.89776e+06 -1.92144e+06)
(-3.97847e-11 -4.25594e+06 1.06179e+06)
(-5.24298e-11 -4.40811e+06 -1.66764e+06)
(-7.30983e-11 -4.9041e+06 -2.67876e+06)
(1.24299e-10 -5.01839e+06 -5.48212e+06)
(-1.99093e-09 -5.01667e+06 -9.42192e+06)
(-1.40502e-09 -4.49255e+06 -1.52326e+07)
(-7.21478e-10 -3.10547e+06 -2.37863e+07)
(-3.07769e-10 -11695.4 -3.52298e+07)
(-1.269e-10 5.21746e+06 -4.8294e+07)
(1.77499e-11 1.26252e+07 -6.02183e+07)
(3.05788e-10 2.34636e+07 -7.12475e+07)
(6.99543e-11 3.87224e+07 -8.05417e+07)
(1.3733e-09 5.77449e+07 -8.66838e+07)
(1.34558e-09 8.06227e+07 -8.93127e+07)
(4.13599e-10 1.06801e+08 -8.56004e+07)
(-7.26332e-12 1.3743e+08 -7.54888e+07)
(1.89065e-09 1.68745e+08 -5.42832e+07)
(-5.75594e-12 -4.7677e+06 5.30257e+06)
(-1.95794e-11 -2.57728e+06 -2.14251e+06)
(-2.53337e-11 -3.91208e+06 630877)
(-3.07693e-11 -3.8052e+06 -2.07361e+06)
(-5.33174e-11 -4.03162e+06 -3.34736e+06)
(1.55866e-10 -3.66955e+06 -6.27339e+06)
(-6.57855e-10 -2.99311e+06 -1.04963e+07)
(-8.35915e-10 -1.58654e+06 -1.69872e+07)
(-5.6242e-10 921733 -2.52245e+07)
(-2.64231e-10 4.43803e+06 -3.42602e+07)
(-8.50399e-11 9.32936e+06 -4.34122e+07)
(-1.59788e-11 1.66735e+07 -5.29665e+07)
(-2.4291e-11 2.72864e+07 -6.23847e+07)
(-2.91542e-12 4.16404e+07 -7.04702e+07)
(-1.45051e-10 5.9284e+07 -7.54388e+07)
(-1.96325e-10 8.02379e+07 -7.71808e+07)
(-8.68345e-11 1.03855e+08 -7.20705e+07)
(1.98874e-11 1.31769e+08 -6.24745e+07)
(-6.64294e-10 1.59294e+08 -4.41305e+07)
(-5.0683e-12 -4.53375e+06 4.68603e+06)
(-1.22557e-11 -2.26485e+06 -2.21925e+06)
(-1.58059e-11 -3.54277e+06 170087)
(-1.70664e-11 -3.17354e+06 -2.34553e+06)
(-3.47665e-11 -3.10821e+06 -3.82532e+06)
(5.21046e-11 -2.23526e+06 -6.86186e+06)
(1.25011e-12 -788609 -1.15381e+07)
(-6.25869e-12 1.39826e+06 -1.75764e+07)
(1.21395e-11 3.9564e+06 -2.36679e+07)
(1.94425e-11 7.45498e+06 -3.03771e+07)
(1.32481e-11 1.26792e+07 -3.79411e+07)
(4.93484e-12 2.02121e+07 -4.61673e+07)
(3.12017e-12 3.05172e+07 -5.42034e+07)
(-1.67105e-14 4.39952e+07 -6.10759e+07)
(1.56031e-11 6.03377e+07 -6.49595e+07)
(2.7661e-11 7.9382e+07 -6.60236e+07)
(1.56129e-11 1.0053e+08 -5.97594e+07)
(1.00952e-11 1.2448e+08 -5.04236e+07)
(-5.11002e-10 1.49287e+08 -1.67846e+07)
(-4.39375e-12 -4.20437e+06 4.09784e+06)
(-7.3333e-12 -1.91628e+06 -2.17872e+06)
(-9.53775e-12 -3.15181e+06 -256204)
(-9.0823e-12 -2.53744e+06 -2.50827e+06)
(-1.68972e-11 -2.11042e+06 -4.08094e+06)
(-5.11097e-12 -711975 -7.46687e+06)
(-1.9477e-12 1.29563e+06 -1.16975e+07)
(-3.29953e-13 3.39951e+06 -1.58566e+07)
(-5.29178e-13 6.09741e+06 -2.06361e+07)
(-1.44257e-12 1.00468e+07 -2.63195e+07)
(-1.54656e-12 1.55988e+07 -3.28191e+07)
(-8.68691e-13 2.319e+07 -3.98256e+07)
(-5.01339e-13 3.32304e+07 -4.65508e+07)
(1.09767e-15 4.59635e+07 -5.22991e+07)
(-1.74384e-12 6.11447e+07 -5.52573e+07)
(-3.88187e-12 7.84202e+07 -5.5841e+07)
(-2.60726e-12 9.725e+07 -4.93337e+07)
(1.15156e-12 1.16573e+08 -4.07987e+07)
(-6.04002e-10 1.34909e+08 -1.00527e+07)
(-3.75138e-12 -4.06742e+06 3.60885e+06)
(-4.13354e-12 -1.60448e+06 -2.13604e+06)
(-5.41097e-12 -2.78217e+06 -614258)
(-4.70468e-12 -1.9733e+06 -2.54414e+06)
(-6.00939e-12 -1.11172e+06 -4.28949e+06)
(-3.32304e-12 839342 -7.4838e+06)
(-9.74193e-13 2.74491e+06 -1.03688e+07)
(-1.09594e-13 5.03841e+06 -1.36503e+07)
(5.12887e-14 8.18949e+06 -1.76706e+07)
(1.29811e-13 1.25164e+07 -2.24923e+07)
(1.77771e-13 1.83597e+07 -2.79471e+07)
(1.31597e-13 2.60841e+07 -3.37858e+07)
(8.23156e-14 3.59773e+07 -3.93114e+07)
(4.98803e-15 4.81409e+07 -4.4025e+07)
(2.04492e-13 6.23828e+07 -4.61884e+07)
(5.43605e-13 7.8154e+07 -4.64475e+07)
(6.13873e-13 9.50119e+07 -4.0008e+07)
(-7.7833e-12 1.1159e+08 -3.28181e+07)
(4.97262e-10 1.25701e+08 -1.05025e+07)
(-3.0965e-12 -3.37638e+06 3.00287e+06)
(-2.17967e-12 -1.13914e+06 -1.91037e+06)
(-2.76806e-12 -2.33591e+06 -831468)
(-2.29468e-12 -1.32131e+06 -2.44131e+06)
(-1.42817e-12 -20369 -4.46294e+06)
(-2.14165e-13 1.85844e+06 -6.50853e+06)
(1.24574e-13 3.80061e+06 -8.72254e+06)
(6.08421e-14 6.32264e+06 -1.14166e+07)
(4.34023e-15 9.68636e+06 -1.47368e+07)
(-1.33694e-14 1.4185e+07 -1.86928e+07)
(-2.1684e-14 2.01023e+07 -2.31382e+07)
(-1.91808e-14 2.7696e+07 -2.78761e+07)
(-1.32677e-14 3.71765e+07 -3.23004e+07)
(-1.76063e-15 4.85199e+07 -3.60663e+07)
(-2.52837e-14 6.15702e+07 -3.75876e+07)
(-7.78953e-14 7.5588e+07 -3.76585e+07)
(-8.19691e-14 9.04028e+07 -3.14619e+07)
(-7.86696e-13 1.04711e+08 -2.60559e+07)
(1.81364e-10 1.16231e+08 -6.19511e+06)
(-2.24471e-12 -4.26675e+06 2.81024e+06)
(-1.11044e-12 -1.11372e+06 -1.96432e+06)
(-1.15728e-12 -2.1712e+06 -1.00778e+06)
(-8.69246e-13 -1.02709e+06 -2.35319e+06)
(-1.52852e-13 589653 -3.97545e+06)
(8.58163e-14 2.27215e+06 -5.43794e+06)
(2.4459e-14 4.16617e+06 -7.18862e+06)
(-7.49842e-15 6.64855e+06 -9.36216e+06)
(-3.99047e-15 9.94645e+06 -1.20429e+07)
(7.82713e-16 1.42873e+07 -1.52316e+07)
(2.7724e-15 1.99039e+07 -1.8801e+07)
(2.81782e-15 2.69903e+07 -2.25946e+07)
(2.11683e-15 3.57079e+07 -2.61058e+07)
(4.20274e-16 4.59475e+07 -2.90896e+07)
(3.29642e-15 5.76307e+07 -3.01721e+07)
(1.1303e-14 6.98363e+07 -3.01445e+07)
(1.60104e-14 8.28895e+07 -2.43713e+07)
(-2.5144e-13 9.48922e+07 -2.02861e+07)
(7.99489e-11 1.06739e+08 1.87203e+06)
(-2.0021e-12 -724700 1.12482e+06)
(-6.18135e-13 -69535.3 -569954)
(-4.44651e-13 -1.2023e+06 -681683)
(-1.87758e-13 184546 -2.22187e+06)
(1.49233e-13 1.60138e+06 -3.59425e+06)
(6.41752e-14 3.50339e+06 -4.59302e+06)
(2.37949e-15 6.12317e+06 -5.90854e+06)
(-1.99053e-15 9.55061e+06 -7.60611e+06)
(8.44967e-18 1.39956e+07 -9.71295e+06)
(5.28907e-18 1.97136e+07 -1.22152e+07)
(-3.32256e-16 2.69579e+07 -1.50019e+07)
(-4.1272e-16 3.58978e+07 -1.79416e+07)
(-3.37567e-16 4.6666e+07 -2.06255e+07)
(-8.7177e-17 5.90235e+07 -2.28598e+07)
(-4.49266e-16 7.28602e+07 -2.35549e+07)
(-1.66352e-15 8.67859e+07 -2.33315e+07)
(-2.70626e-15 1.01374e+08 -1.8299e+07)
(4.68418e-14 1.1189e+08 -1.46038e+07)
(-5.76561e-11 1.23995e+08 1.25977e+07)
(6.89836e-13 -9.16347e+06 5.48271e+06)
(4.71204e-13 -1.43481e+06 -3.02445e+06)
(4.9436e-13 -2.6558e+06 -1.89164e+06)
(5.65715e-13 -1.09459e+06 -3.05469e+06)
(1.7693e-13 2.00355e+06 -2.37417e+06)
(4.21992e-15 4.8398e+06 -2.32426e+06)
(-4.28994e-15 8.09551e+06 -2.81965e+06)
(-2.96243e-16 1.22127e+07 -3.55037e+06)
(5.27884e-17 1.74938e+07 -4.47003e+06)
(7.94284e-18 2.42014e+07 -5.55712e+06)
(3.93646e-17 3.25686e+07 -6.75279e+06)
(5.38309e-17 4.27235e+07 -7.98906e+06)
(4.60976e-17 5.47096e+07 -9.0823e+06)
(1.33691e-17 6.81931e+07 -9.93751e+06)
(5.7833e-17 8.28612e+07 -1.01014e+07)
(2.16247e-16 9.72276e+07 -9.80404e+06)
(6.8269e-16 1.11279e+08 -7.45523e+06)
(-8.7554e-14 1.1942e+08 -5.82063e+06)
(9.6237e-11 1.29061e+08 8.91046e+06)
(3.62587e-07 856201 -2.41371e+07)
(5.08854e-07 -6.62806e+06 -2.91849e+07)
(2.91182e-07 -4.63983e+06 -2.85959e+07)
(1.32629e-07 -1.90374e+06 -2.63861e+07)
(4.53142e-08 23259.3 -2.35867e+07)
(1.4568e-09 1.92801e+06 -2.20263e+07)
(-2.15764e-08 4.82538e+06 -1.42522e+07)
(-3.03975e-08 7.02531e+06 -1.19243e+07)
(-3.31295e-08 8.00696e+06 -9.98093e+06)
(-3.30275e-08 9.22124e+06 -7.43586e+06)
(-3.07718e-08 1.07605e+07 -4.51365e+06)
(-2.69403e-08 1.23669e+07 -1.10242e+06)
(-1.73221e-08 1.42227e+07 2.98888e+06)
(1.02492e-08 1.61603e+07 7.69276e+06)
(5.67387e-08 1.81941e+07 1.28474e+07)
(1.23833e-07 2.00477e+07 1.86398e+07)
(2.01621e-07 2.24626e+07 2.47879e+07)
(3.16442e-07 2.34754e+07 3.2681e+07)
(5.00904e-07 2.94078e+07 3.99006e+07)
(1.12448e-06 2.11124e+07 5.58528e+07)
(2.58825e-06 6.13146e+06 2.61642e+07)
(7.64709e-06 8.47505e+06 1.34461e+07)
(1.68159e-06 -8.00158e+06 -1.49365e+07)
(8.71684e-07 -7.94842e+06 -1.62663e+07)
(8.07341e-07 -6.04318e+06 -1.4416e+07)
(7.5616e-07 -3.98382e+06 -1.33423e+07)
(8.55657e-07 -1.92991e+06 -1.07511e+07)
(9.26316e-07 31182.6 -8.54987e+06)
(9.55047e-07 1.56512e+06 -6.93835e+06)
(9.71255e-07 2.85542e+06 -5.65475e+06)
(9.94362e-07 4.03427e+06 -4.47196e+06)
(1.01022e-06 5.09713e+06 -3.2886e+06)
(1.02107e-06 6.05333e+06 -2.07374e+06)
(9.9094e-07 6.83759e+06 -724411)
(9.74862e-07 7.48766e+06 767462)
(1.03939e-06 7.92981e+06 2.49024e+06)
(1.03856e-06 8.32974e+06 4.38793e+06)
(1.1841e-06 8.25352e+06 6.87174e+06)
(1.49605e-06 9.02035e+06 9.3057e+06)
(2.13817e-06 6.44018e+06 1.44273e+07)
(1.97643e-06 -2.52349e+06 -2.1033e+06)
(3.10111e-06 -3.86069e+06 -1.97419e+06)
(2.24563e-06 -5.05047e+06 -4.84936e+06)
(2.48829e-06 -4.89262e+06 -6.13388e+06)
(2.5472e-06 -4.12251e+06 -5.94339e+06)
(1.43598e-06 -3.26765e+06 -5.73064e+06)
(6.48236e-07 -2.0633e+06 -4.57786e+06)
(3.99961e-07 -717891 -2.91235e+06)
(3.22902e-07 497572 -1.4109e+06)
(2.87175e-07 1.50508e+06 -132871)
(2.5244e-07 2.38406e+06 1.04088e+06)
(2.74341e-07 3.18067e+06 2.18388e+06)
(3.93413e-07 3.8371e+06 3.17835e+06)
(5.55212e-07 4.34757e+06 4.04674e+06)
(7.44451e-07 4.77801e+06 4.87929e+06)
(9.74379e-07 5.10874e+06 5.78952e+06)
(1.22836e-06 5.52162e+06 6.75871e+06)
(1.56357e-06 5.60368e+06 8.05934e+06)
(1.95736e-06 6.61279e+06 9.22442e+06)
(2.57319e-06 4.84594e+06 1.19911e+07)
(1.34768e-06 -2.607e+06 -4.90718e+06)
(1.41731e-06 -1.95897e+06 -2.38443e+06)
(1.62524e-06 -1.14347e+06 -1.83667e+06)
(1.92922e-06 -1.37035e+06 -2.58079e+06)
(1.39416e-06 -955566 -2.56817e+06)
(4.08429e-06 -465836 -2.3774e+06)
(4.34159e-06 108776 -2.01636e+06)
(3.94027e-06 667951 -1.52537e+06)
(3.84314e-06 1.12404e+06 -1.0539e+06)
(3.74145e-06 1.45293e+06 -676791)
(3.875e-06 1.67217e+06 -399858)
(3.72231e-06 1.80503e+06 -149448)
(3.89143e-06 1.88955e+06 100549)
(3.79053e-06 1.9433e+06 379945)
(3.66767e-06 1.9907e+06 706847)
(3.75053e-06 2.02603e+06 1.1132e+06)
(3.75345e-06 2.10634e+06 1.58996e+06)
(3.60298e-06 2.10015e+06 2.24846e+06)
(3.65942e-06 2.42701e+06 2.90504e+06)
(3.58156e-06 1.82378e+06 4.29168e+06)
(7.79314e-07 -1.78037e+06 -3.73229e+06)
(7.97173e-07 -1.46176e+06 -2.70321e+06)
(8.29351e-07 -533674 -1.35727e+06)
(9.31468e-07 -253077 -901457)
(6.57678e-07 -20940.7 -700289)
(1.08147e-06 213517 -493670)
(1.3155e-06 445648 -268718)
(1.2357e-06 660459 -25798.1)
(9.92237e-07 853826 234094)
(6.76812e-07 1.02302e+06 502384)
(4.12195e-07 1.15913e+06 737806)
(2.0743e-07 1.2672e+06 947404)
(4.73787e-08 1.35703e+06 1.14576e+06)
(-7.25886e-08 1.43363e+06 1.34478e+06)
(-1.70355e-07 1.50605e+06 1.55047e+06)
(-2.61089e-07 1.56144e+06 1.77958e+06)
(-3.47063e-07 1.64261e+06 2.02124e+06)
(-4.50694e-07 1.63662e+06 2.34522e+06)
(-5.62887e-07 1.88018e+06 2.62781e+06)
(-7.37112e-07 1.37766e+06 3.33031e+06)
(3.63989e-07 -920392 -1.94081e+06)
(4.2968e-07 -935909 -2.0705e+06)
(3.76627e-07 -449832 -1.40213e+06)
(3.26193e-07 -97242.4 -850477)
(2.53341e-07 121068 -530245)
(1.79842e-07 265057 -351723)
(1.35855e-07 363574 -246023)
(9.97472e-08 433358 -176086)
(6.75456e-08 484827 -123674)
(4.10046e-08 523333 -69272.6)
(2.13676e-08 554199 -6155.65)
(8.99888e-09 580361 68098)
(3.11634e-09 604114 154980)
(2.45587e-09 626098 257121)
(6.18398e-09 650103 375577)
(1.41286e-08 670892 517757)
(2.708e-08 708408 677869)
(4.90083e-08 713629 891687)
(8.01132e-08 840179 1.09326e+06)
(1.41731e-07 636801 1.51786e+06)
(1.394e-07 -342559 -622399)
(2.00843e-07 -428278 -1.00793e+06)
(1.70443e-07 -253155 -840495)
(1.2236e-07 -47385.2 -547959)
(8.74927e-08 109543 -299469)
(5.30882e-08 218453 -116969)
(3.00165e-08 295170 17990.2)
(1.8344e-08 354269 126274)
(1.11217e-08 397182 208993)
(6.44676e-09 429625 274241)
(3.54876e-09 454859 329605)
(1.89142e-09 475625 381132)
(1.01461e-09 493584 432372)
(5.37806e-10 509305 486976)
(1.44751e-10 524999 546028)
(-4.71469e-10 536338 615054)
(-1.72526e-09 557468 689943)
(-4.54573e-09 550912 793919)
(-1.02198e-08 629851 884770)
(-2.6002e-08 462763 1.11497e+06)
(2.99889e-08 -64444.3 -152310)
(6.26238e-08 -110981 -362998)
(6.10153e-08 -68011.2 -397369)
(4.58103e-08 9954.08 -338921)
(3.16292e-08 81807.5 -257442)
(2.07141e-08 135894 -184684)
(1.31448e-08 172797 -127724)
(8.44689e-09 196293 -85472.9)
(5.36983e-09 211020 -49588.7)
(3.35165e-09 221425 -16065.1)
(2.05507e-09 229747 17477.2)
(1.24026e-09 236957 52765)
(7.34758e-10 243906 90842.2)
(4.2401e-10 250676 133032)
(2.38694e-10 258703 179812)
(1.46615e-10 265786 233846)
(1.5782e-10 279201 293310)
(3.91958e-10 280381 370831)
(1.14827e-09 328388 441868)
(4.62406e-09 247272 593172)
(-1.30062e-09 25549.6 60753.3)
(5.63723e-09 18739.4 -6893.44)
(1.07667e-08 12211.2 -69304.8)
(1.14887e-08 22951.1 -93094.2)
(9.45077e-09 45491.9 -84674.8)
(6.92502e-09 70845.9 -60928.8)
(4.77214e-09 93942.7 -32838.1)
(3.17428e-09 113864 -5087.88)
(2.06802e-09 131558 22755.3)
(1.30995e-09 146099 48358.3)
(8.00884e-10 157562 71632)
(4.69267e-10 166752 93684.4)
(2.60495e-10 174081 115496)
(1.34805e-10 180059 138446)
(6.29104e-11 185488 162907)
(2.35882e-11 189271 191106)
(1.31215e-12 195923 221783)
(-2.63297e-11 193665 263555)
(-1.00619e-10 220972 302121)
(-7.94914e-10 163505 393695)
(1.40588e-10 45469.4 73544.4)
(2.74296e-11 68468 83034.2)
(-1.78221e-10 62419.9 46963.4)
(-1.79031e-11 55233.7 10573.6)
(2.37788e-10 55054.3 -10113.9)
(3.47302e-10 59145 -17365.9)
(3.24268e-10 64759.2 -17396.8)
(2.43509e-10 70628.1 -14032.4)
(1.58215e-10 76192.3 -9011.23)
(9.1048e-11 80663.2 -2276.71)
(4.45573e-11 84011 6330.84)
(1.56227e-11 86692.6 16840)
(-4.11114e-14 89178.2 29168)
(-6.75053e-12 91515.5 43346.6)
(-8.20501e-12 94143.7 59419.7)
(-6.98162e-12 96386.9 78111.4)
(-4.60562e-12 100285 99100)
(-5.28848e-13 100351 126436)
(4.02039e-12 116204 152279)
(1.3262e-10 87716.3 212610)
(-2.27045e-11 84652.8 161968)
(-8.63982e-12 115344 158431)
(1.35831e-11 78333.7 97832.7)
(1.31225e-11 55557.7 45722)
(3.96489e-12 45892.4 16938.5)
(-3.30223e-12 41417.1 2728.92)
(-8.44822e-12 40662.7 -1042.76)
(-8.91488e-12 49914.1 6049)
(-8.26149e-12 59327.5 10217.2)
(-6.8901e-12 62135.4 4987.09)
(-5.15314e-12 61285.1 -358.887)
(-3.4472e-12 59791 -66.3463)
(-2.13599e-12 59175.4 4939.87)
(-1.18324e-12 59242.2 12556.2)
(-4.74075e-13 59645.1 21600.6)
(5.32067e-14 59929.3 32274.8)
(4.23703e-13 60197.9 44309.1)
(2.3823e-13 59369.9 59085.6)
(2.04053e-12 62314.8 74129.3)
(-2.34874e-11 47207.9 114117)
(3.09889e-12 127185 287088)
(8.17449e-13 178594 233166)
(-1.53423e-12 100185 158571)
(-1.43392e-12 74613.2 86566.8)
(-3.4163e-13 55917.5 45933.3)
(-8.99634e-16 46587.5 11017.8)
(3.03049e-13 50355.6 18175)
(8.78616e-13 80070.1 59817.3)
(1.03966e-12 91482.3 75035.8)
(5.58189e-13 74856.1 47153.7)
(-2.99928e-13 49286 1107.16)
(-6.18988e-13 29308.1 -30997.9)
(-3.58624e-13 19895.3 -41450.1)
(-6.40849e-14 17103.5 -40134)
(6.83207e-14 15272.2 -35833.6)
(8.69908e-14 12439.7 -32134.3)
(7.52062e-14 8185.33 -28342.8)
(3.98876e-14 5530.71 -24957.4)
(1.77592e-13 -7532.39 -24196.8)
(-1.99072e-12 -14527.4 -27067.6)
(-1.91008e-14 134963 359243)
(2.00636e-14 170486 211011)
(2.0152e-13 82442.4 185360)
(9.1937e-14 89245.3 152993)
(3.49849e-16 73205.3 114604)
(2.33313e-14 65112.1 92333.4)
(-1.04701e-14 59727.7 68210.1)
(-7.79327e-14 45946.9 42001.8)
(-8.5613e-14 34304.8 20442.3)
(-5.35725e-14 25329.9 1113.48)
(7.32057e-15 17792.9 -19218.2)
(7.97202e-15 10995 -38554.4)
(1.45002e-14 5988.56 -50961.2)
(2.96845e-14 3430.31 -56738.8)
(3.1447e-14 1261.68 -58843.6)
(2.10417e-14 -4054.87 -59658.2)
(4.63391e-15 -12608.5 -63459)
(9.34624e-17 -19122.4 -63333.2)
(-1.00917e-13 -46777.8 -66856.7)
(1.68922e-12 -50586.2 -156575)
(-9.18906e-14 90193.8 231448)
(-1.40503e-14 68470.1 159385)
(-7.06366e-15 68149.9 109438)
(9.95302e-15 32911.9 103258)
(1.04327e-14 42195.2 94182.4)
(7.26615e-15 34182.5 95141.4)
(5.30351e-15 36590.4 100119)
(4.6639e-15 41594.5 107015)
(4.74424e-15 44679.6 109545)
(3.78324e-15 46691.9 106416)
(5.99139e-15 50840.9 97876.9)
(1.38537e-14 57204.7 73292.8)
(1.18866e-14 56644.6 42830)
(3.67098e-15 43605.2 6020.51)
(-8.28052e-16 24940.3 -42576.2)
(-2.37655e-15 17250.1 -75848.9)
(-3.71401e-15 4486.48 -86191.4)
(2.26272e-16 -4770.13 -83848)
(-5.09888e-14 -19868.3 -78360.1)
(9.28222e-13 -15454.4 -44255.4)
(-5.97419e-13 -68079 -55744.9)
(3.96518e-14 -186860 44831.3)
(-1.21005e-13 -35075.6 107320)
(-2.80083e-15 -104462 16856.7)
(-2.22938e-15 -79792.3 26686.8)
(-2.72252e-15 -63749.5 -13696.4)
(-2.5427e-15 -70182.5 -17249.3)
(-2.10002e-15 -56560.5 -28957.7)
(-1.63006e-15 -48409.8 -25455.8)
(-1.12801e-15 -37260.7 -21353.1)
(-7.6112e-16 -27755.8 -12744.2)
(-7.02617e-16 -20678.4 -5762.62)
(-3.4558e-16 -23615.1 -19551.9)
(-7.2479e-17 -31553.4 -39416.9)
(-1.72251e-16 -46746.1 -71509.2)
(-7.03405e-16 -50006.8 -157727)
(-1.05955e-15 -151256 -295006)
(1.01281e-15 -146116 -395779)
(-1.6139e-14 -223698 -435804)
(1.91593e-13 -158051 -355034)
(5.87431e-13 -943607 -1.40365e+06)
(-1.57257e-13 -320920 -150356)
(-1.61509e-13 -209715 451549)
(1.46492e-14 -108872 334845)
(9.86125e-16 -223800 383529)
(-4.92672e-16 -161043 305882)
(4.67356e-16 -203334 276474)
(6.56933e-16 -192798 237214)
(5.03641e-16 -185461 222867)
(3.55461e-16 -169226 213761)
(2.12414e-16 -149552 210851)
(1.00533e-16 -126871 212429)
(2.6725e-17 -103989 214046)
(-1.25848e-17 -86969.7 204847)
(-3.27945e-17 -78709.2 177834)
(-4.66897e-17 -72626.9 137296)
(4.78084e-17 -76896.4 66882.1)
(9.10858e-16 -151260 -118781)
(4.53097e-15 -351885 -512881)
(2.35989e-14 -332720 -723507)
(3.55041e-12 -2.06546e+06 -2.91033e+06)
(1.79147e-12 -823196 -1.81792e+06)
(6.91313e-13 -658270 -312498)