/*--------------------------------*- C++ -*----------------------------------*\
| =========                 |                                                 |
| \\      /  F ield         | OpenFOAM: The Open Source CFD Toolbox           |
|  \\    /   O peration     | Version:  4.1                                   |
|   \\  /    A nd           | Web:      www.OpenFOAM.org                      |
|    \\/     M anipulation  |                                                 |
\*---------------------------------------------------------------------------*/
FoamFile
{
    version     2.0;
    format      ascii;
    class       volScalarField;
    location    "2";
    object      epsilon;
}
// * * * * * * * * * * * * * * * * * * * * * * * * * * * * * * * * * * * * * //

dimensions      [0 2 -3 0 0 0 0];

internalField   nonuniform List<scalar> 
1280
(
0.00100477
0.00047827
0.00083449
0.000807732
0.000392324
0.000690716
0.000683014
0.00067182
0.000336283
0.000591031
0.000578669
0.00029328
0.000516836
0.000510255
0.000274536
0.00048069
0.00046382
0.00020611
0.000366283
0.000381408
0.0343148
0.0376294
0.0362167
0.0330394
0.0296834
0.0269479
0.016137
0.0147703
0.0134955
0.0123113
0.0103975
0.00871799
0.00729038
0.00627383
0.00530793
0.00475916
0.00361113
0.00468989
0.00103615
0.0109442
0.000122882
0.000217568
0.000214988
0.000214506
0.000133563
0.000288016
0.000346883
0.000397353
0.000300592
0.00045517
0.000451431
0.000272742
0.000342572
0.000300379
0.000261755
0.000125199
0.000207801
0.000209832
0.000213117
0.000120448
0.0106952
0.00114174
0.00468596
0.00365503
0.00493968
0.00533881
0.00651391
0.00737547
0.00900158
0.0105496
0.0126194
0.0136665
0.0149172
0.0161062
0.0270686
0.0304198
0.0331897
0.0369103
0.0381591
0.0352267
0.000392269
0.000377133
0.000212187
0.00047636
0.00049393
0.000282034
0.000524102
0.000531178
0.000301332
0.000594611
0.000607779
0.000345723
0.000690795
0.000702802
0.000710998
0.000403744
0.000831238
0.000859244
0.000492417
0.00103459
3.01527e-05
4.24721e-05
5.39829e-05
7.42614e-05
0.000104745
0.000154638
0.000235927
0.000366593
0.000564862
0.000833853
0.0011243
0.00122351
0.00114315
0.00065816
0.00024193
0.000122374
9.80683e-05
6.01456e-05
5.22617e-05
3.48324e-05
4.64499e-05
5.94955e-05
8.21422e-05
0.000116034
0.000172024
0.000264329
0.000414947
0.000642763
0.000934723
0.00124578
0.00140361
0.00143468
0.00139571
0.000241637
0.000126665
9.6318e-05
5.80902e-05
5.16328e-05
3.75247e-05
5.12901e-05
6.56439e-05
9.06229e-05
0.000127292
0.000187526
0.000285969
0.000444779
0.000678757
0.000939139
0.00117566
0.00129227
0.00135178
0.00159816
0.00171835
0.000145426
9.31998e-05
5.62247e-05
4.78185e-05
4.23687e-05
5.81248e-05
7.44567e-05
0.000102834
0.00014413
0.000212099
0.000322667
0.00049841
0.000742592
0.000916323
0.000968094
0.000961039
0.000967458
0.00113329
0.00143944
0.000136753
9.01362e-05
5.37782e-05
4.92418e-05
4.71864e-05
6.48846e-05
8.27223e-05
0.000113923
0.000158471
0.000231411
0.000347321
0.000524174
0.000751116
0.000846826
0.000859823
0.000845017
0.000897753
0.00092832
0.000919777
0.00135696
8.52194e-05
5.03923e-05
4.89066e-05
5.23642e-05
7.19252e-05
9.14635e-05
0.000125696
0.000173029
0.000250836
0.000370401
0.000538924
0.000721596
0.000868164
0.00096064
0.00114504
0.00131207
0.00131359
0.00078798
0.000686371
0.000102579
5.47556e-05
7.20821e-05
5.70249e-05
7.76008e-05
9.69086e-05
0.000131395
0.000179488
0.000258522
0.000377347
0.00053496
0.000696034
0.000840052
0.000971801
0.00129148
0.00192082
0.00216189
0.00132647
0.000935332
0.00110111
0.000712082
0.00377045
6.04515e-05
8.12817e-05
9.71687e-05
0.000128351
0.000164645
0.00022908
0.000329709
0.000470614
0.000629571
0.000768342
0.00092379
0.00144433
0.00251859
0.00281538
0.00168342
0.000999356
0.000941403
0.0010693
0.00133045
6.33965e-05
8.52722e-05
9.96328e-05
0.000126239
0.000156262
0.00020793
0.000288153
0.00040815
0.00055786
0.000732031
0.00105333
0.00203199
0.0032274
0.00377039
0.00399794
0.00346441
0.00243907
0.00230792
0.00243522
6.54448e-05
8.76505e-05
9.98353e-05
0.000125513
0.000151704
0.000191903
0.00024813
0.000333085
0.00045903
0.000668767
0.0013146
0.00269971
0.00340526
0.00421786
0.0063807
0.00756577
0.00845623
0.00816019
0.00876035
7.03186e-05
9.50011e-05
0.000108643
0.000137517
0.000168499
0.000217436
0.000287203
0.000383738
0.000520473
0.000704721
0.00130633
0.00309035
0.00400781
0.00487797
0.00736316
0.00869765
0.00990198
0.00961091
0.0102236
7.24257e-05
9.87529e-05
0.000114433
0.000148665
0.000191847
0.000261758
0.000369317
0.000529723
0.000728078
0.000929435
0.00122118
0.00241308
0.00401388
0.00486894
0.00517943
0.00452301
0.00296487
0.00271268
0.00280253
7.01947e-05
9.5607e-05
0.000118012
0.000152459
0.00020328
0.000290594
0.000430583
0.000626163
0.000845154
0.00102917
0.00118979
0.00182205
0.00330517
0.00395879
0.00226674
0.00108472
0.000926951
0.0010793
0.00135319
6.87389e-05
9.59214e-05
0.000119195
0.000164675
0.000228596
0.000334332
0.00049558
0.00071058
0.000932433
0.00112402
0.00129818
0.00169857
0.00257752
0.00302802
0.00176837
0.000976541
0.00113396
0.000718122
0.0038345
6.2922e-05
8.5942e-05
0.000108177
0.000149314
0.000209141
0.00030919
0.00046697
0.00069251
0.000947245
0.00114914
0.00130424
0.00155855
0.00186819
0.00188414
0.000890126
0.000689747
0.000104374
5.27604e-05
6.90765e-05
5.72744e-05
7.77404e-05
9.86599e-05
0.00013609
0.000190565
0.000280171
0.000422617
0.000637033
0.000908509
0.00108515
0.00110502
0.00109957
0.00115027
0.00114273
0.00100578
0.00151563
8.68913e-05
4.81365e-05
4.67491e-05
5.15859e-05
6.87574e-05
8.70136e-05
0.000119667
0.000167305
0.000246263
0.000374447
0.00057937
0.000875874
0.00112818
0.00120781
0.0012084
0.00119964
0.00127331
0.00145589
0.000317213
9.1998e-05
5.12357e-05
4.68474e-05
4.7113e-05
6.22941e-05
7.91949e-05
0.000108733
0.000151526
0.000221198
0.00033326
0.000513244
0.000783228
0.00110631
0.00137928
0.00144989
0.00147367
0.00169117
0.00197884
0.000150903
9.27244e-05
5.30646e-05
4.57583e-05
4.38472e-05
5.5203e-05
6.883e-05
9.25278e-05
0.000128219
0.000187014
0.0002833
0.000442032
0.000690992
0.00102732
0.00138986
0.00155944
0.00157065
0.00148005
0.000315966
0.00012994
9.59922e-05
5.472e-05
4.87141e-05
3.96223e-05
5.31219e-05
6.60404e-05
8.88279e-05
0.000122714
0.000177483
0.000265358
0.000406029
0.000619585
0.000907635
0.00121813
0.00134672
0.00125223
0.000747858
0.000260148
0.000124112
9.68748e-05
5.62443e-05
4.94589e-05
0.28921
0.0840581
0.0686676
0.0522577
0.0397178
0.0248328
0.0157192
0.00651918
0.00127712
0.000377411
9.64827e-05
8.06216e-05
6.58743e-05
5.72244e-05
4.85002e-05
4.28935e-05
3.43858e-05
9.64573e-06
0.00451468
0.154689
0.314303
0.0711746
0.0813591
0.0659684
0.0449105
0.0252051
0.013856
0.00585126
0.00185316
0.000538086
0.000138285
0.000103628
1.784e-05
3.9199e-05
3.69939e-05
6.78242e-06
1.36354e-06
8.03531e-06
0.0022669
0.113052
0.350604
0.0828165
0.124003
0.101135
0.0690293
0.0352118
0.0160743
0.00594139
0.00160151
0.000421757
0.000120504
2.78121e-05
8.1609e-06
2.95964e-06
1.64003e-06
8.67677e-07
4.17242e-07
3.94752e-06
0.00125955
0.0773881
0.380878
0.0922292
0.167367
0.143049
0.0888322
0.041513
0.0161652
0.00545376
0.0013904
0.000323148
7.26004e-05
2.24945e-05
6.26632e-06
3.18253e-06
1.59323e-06
8.42555e-07
4.12732e-07
3.28074e-06
0.000969766
0.0533607
0.416007
0.109495
0.238857
0.21274
0.124896
0.0482154
0.0168337
0.00455473
0.00111307
0.000243871
7.21201e-05
1.72581e-05
6.63588e-06
3.1044e-06
1.47176e-06
8.57592e-07
4.14408e-07
1.95765e-06
0.000564132
0.0363826
0.45455
0.11974
0.312464
0.277644
0.139375
0.0481498
0.0126379
0.00291243
0.000627107
0.000157029
3.97033e-05
1.3684e-05
6.05458e-06
2.93279e-06
1.47949e-06
8.39168e-07
4.13234e-07
1.61358e-06
0.00059179
0.0236488
0.500183
0.122643
0.346413
0.300762
0.130797
0.0323617
0.00658752
0.00144082
0.000346876
9.67813e-05
3.3888e-05
1.28563e-05
5.02903e-06
2.72767e-06
1.42145e-06
7.61965e-07
3.84131e-07
1.2549e-06
0.000559036
0.0145731
0.553499
0.11361
0.342316
0.238582
0.0568049
0.00879902
0.00160572
0.000440577
0.000145657
5.23557e-05
2.10868e-05
8.9743e-06
4.42476e-06
2.47837e-06
1.39098e-06
7.61452e-07
3.86294e-07
1.08483e-06
0.00059656
0.00842704
0.609568
0.0947912
0.188183
0.0718866
0.0194623
0.00571802
0.00132091
0.000354738
0.000119631
4.61133e-05
2.02435e-05
8.98466e-06
4.28797e-06
2.28215e-06
1.23959e-06
7.19587e-07
3.77392e-07
9.38205e-07
0.000660774
0.00453842
0.654259
0.0782999
0.0586236
0.0153799
0.00155134
0.000539477
0.000386476
0.000222813
9.27904e-05
3.6491e-05
1.36207e-05
6.68508e-06
3.63437e-06
2.08722e-06
1.13353e-06
6.64178e-07
3.57964e-07
8.32574e-07
0.000743183
0.00226101
0.671142
0.0684636
0.0216467
0.00682968
0.0018993
0.00109274
0.000431714
0.000135086
5.06007e-05
2.21816e-05
1.03842e-05
5.1849e-06
2.98487e-06
1.69328e-06
9.36377e-07
5.74739e-07
3.22677e-07
7.25536e-07
0.000834661
0.00105455
0.656011
0.067192
0.0105505
0.00243491
0.00132071
0.000299736
8.70135e-05
3.75894e-05
1.79676e-05
9.46886e-06
5.32243e-06
3.03463e-06
1.65537e-06
9.41232e-07
5.52818e-07
3.58104e-07
2.11892e-07
6.07933e-07
0.000941113
0.000481002
0.622325
0.0826529
0.0109753
0.00259289
0.000628229
0.00018388
6.08212e-05
2.19092e-05
8.76469e-06
4.06677e-06
2.0344e-06
1.10947e-06
6.51463e-07
4.04509e-07
2.48519e-07
1.76812e-07
1.22294e-07
5.44173e-07
0.00101257
0.00022757
0.582369
0.0874172
0.00777011
0.000744481
9.44711e-05
1.34113e-05
8.61304e-07
7.66669e-07
4.5368e-07
5.07857e-07
4.14922e-07
3.16032e-07
2.24099e-07
1.5515e-07
1.07508e-07
8.9121e-08
6.25843e-08
4.95181e-07
0.00120094
0.00011705
0.531885
0.0672563
0.00411559
0.000466824
4.68467e-05
9.0322e-06
1.57894e-06
5.54252e-07
4.65559e-07
3.16335e-07
1.69425e-07
1.06692e-07
6.98988e-08
4.61377e-08
3.2169e-08
2.28257e-08
1.93149e-08
5.36397e-07
0.00133769
6.6963e-05
0.4574
0.040397
0.000794628
0.000169474
1.77756e-06
6.43221e-07
3.34248e-07
2.37815e-07
8.39551e-08
2.94957e-08
2.66795e-08
1.87988e-08
1.69883e-08
1.57198e-08
1.31381e-08
7.0073e-09
8.50256e-09
4.67297e-07
0.00137596
0.000103087
0.360557
0.0130262
0.00261777
5.49352e-06
1.612e-06
8.53378e-07
2.84589e-07
2.00579e-07
1.58944e-07
1.15568e-07
9.23e-08
7.71992e-08
6.46318e-08
5.13222e-08
3.88616e-08
2.17648e-08
3.36529e-08
1.13704e-07
0.00033508
9.05696e-05
0.260067
0.0100517
1.48107e-05
9.41178e-06
8.84541e-06
8.05221e-06
7.45169e-06
6.81446e-06
6.24487e-06
5.69297e-06
5.17085e-06
4.67643e-06
4.21347e-06
3.72205e-06
3.00584e-06
1.96471e-06
4.3092e-06
2.14322e-06
0.000187359
0.000305157
0.193874
0.024419
0.00110138
0.00104139
0.00101348
0.000973943
0.000940982
0.000906622
0.000874631
0.000842957
0.000811179
0.000778724
0.000746159
0.000711286
0.000654601
0.000569414
0.00118902
0.00431342
0.0155691
0.0134042
0.16219
0.722953
0.706247
0.706484
0.706434
0.706511
0.706464
0.706348
0.706365
0.706404
0.706451
0.706376
0.706237
0.706396
0.706466
0.706405
0.706284
0.703864
0.899603
0.167927
0.162188
0.722939
0.706243
0.706497
0.706364
0.706413
0.706432
0.706448
0.706463
0.706509
0.706384
0.706273
0.706391
0.706446
0.706468
0.706432
0.706297
0.70386
0.899453
0.167923
0.193865
0.0235817
0.0011009
0.00104096
0.00101196
0.000972173
0.000939777
0.0009066
0.000874643
0.000843073
0.00080958
0.000777083
0.000746416
0.000710809
0.0006538
0.000570129
0.00121098
0.00441005
0.0156916
0.0135367
0.260035
0.00978972
1.50387e-05
9.38003e-06
8.861e-06
8.04723e-06
7.43688e-06
6.80539e-06
6.23715e-06
5.68646e-06
5.15857e-06
4.66512e-06
4.21009e-06
3.7166e-06
2.99751e-06
1.96491e-06
4.667e-06
1.21313e-05
0.000553778
0.000359333
0.360542
0.0131154
0.00263823
2.83855e-06
9.94558e-07
4.8429e-07
3.22781e-07
1.88474e-07
1.3841e-07
1.09762e-07
8.74816e-08
7.66772e-08
6.32866e-08
5.24157e-08
3.82283e-08
2.18857e-08
3.56101e-08
2.68513e-07
0.000395551
0.000109681
0.457463
0.0404628
0.000936743
4.28648e-05
5.28423e-06
8.6178e-07
3.33228e-07
1.68141e-07
1.06643e-07
7.00202e-08
5.2005e-08
4.33183e-08
3.58016e-08
2.83859e-08
2.05619e-08
1.15235e-08
1.21824e-08
7.08126e-07
0.00157752
0.000125221
0.532063
0.0668523
0.0038737
0.00018308
7.83012e-06
2.92764e-06
8.34373e-07
4.16644e-07
2.46825e-07
1.58046e-07
1.04971e-07
7.38678e-08
5.48179e-08
4.04015e-08
3.00976e-08
2.37515e-08
1.88927e-08
7.68723e-07
0.00154174
8.29017e-05
0.582628
0.088143
0.00773998
0.0008748
0.00013477
1.6299e-05
3.96706e-06
1.23378e-06
6.49726e-07
4.16669e-07
2.91779e-07
2.01224e-07
1.39705e-07
1.07693e-07
7.87362e-08
6.8699e-08
6.07305e-08
6.938e-07
0.00137869
0.000140099
0.622486
0.0827249
0.0109914
0.00185099
0.000355152
8.80243e-05
2.14993e-05
6.81771e-06
2.58537e-06
1.29133e-06
7.87915e-07
5.51951e-07
3.87277e-07
2.65461e-07
1.72137e-07
1.329e-07
9.80049e-08
6.8169e-07
0.0011815
0.000266675
0.655975
0.067952
0.0126147
0.00374588
0.00107265
0.000216753
5.76751e-05
1.85237e-05
7.39822e-06
3.44394e-06
1.82074e-06
1.07185e-06
6.79169e-07
4.57544e-07
3.14556e-07
2.34719e-07
1.75412e-07
7.10494e-07
0.00107571
0.000550836
0.671028
0.0686522
0.0177021
0.00483556
0.00154222
0.000726192
0.000251966
6.91864e-05
2.34128e-05
9.65962e-06
4.67963e-06
2.42926e-06
1.40674e-06
8.68661e-07
5.27031e-07
3.68544e-07
2.26067e-07
7.9025e-07
0.000969788
0.00117943
0.654336
0.0785088
0.0669842
0.0175294
0.00461927
0.00114339
0.000362056
0.000118369
4.35701e-05
1.80545e-05
8.60834e-06
4.36288e-06
2.29633e-06
1.3113e-06
7.53125e-07
4.81326e-07
2.88864e-07
9.40342e-07
0.000858679
0.00247477
0.609808
0.0945386
0.187674
0.0638496
0.011702
0.00135218
0.000336789
0.000164122
6.92102e-05
2.64619e-05
1.0779e-05
5.45138e-06
2.89547e-06
1.57323e-06
8.64041e-07
5.33306e-07
3.00663e-07
1.07872e-06
0.000765247
0.00487849
0.553751
0.112973
0.329335
0.22364
0.0479458
0.00932628
0.00214471
0.00035875
9.97805e-05
3.14864e-05
1.2996e-05
6.14606e-06
3.20321e-06
1.7417e-06
9.42725e-07
5.5635e-07
3.28605e-07
1.30618e-06
0.000691321
0.00892125
0.500299
0.121449
0.334145
0.285805
0.118968
0.0263683
0.004844
0.000953554
0.000233535
6.61263e-05
1.82153e-05
7.43894e-06
3.64481e-06
1.86472e-06
1.00792e-06
5.73292e-07
3.39154e-07
1.46053e-06
0.000643924
0.0152268
0.454532
0.117461
0.300231
0.265455
0.133944
0.0443449
0.0108866
0.00227963
0.000427897
9.68466e-05
2.58421e-05
9.45243e-06
3.76574e-06
2.02706e-06
1.05521e-06
6.02457e-07
3.49849e-07
2.1274e-06
0.000677491
0.0244513
0.415909
0.106058
0.228773
0.202919
0.119627
0.0455761
0.0150233
0.00412366
0.000933135
0.000192219
4.09492e-05
1.2206e-05
5.23015e-06
2.13303e-06
1.13468e-06
6.36537e-07
3.5465e-07
2.22555e-06
0.000598524
0.037335
0.380842
0.0891508
0.160036
0.137461
0.0857109
0.0403182
0.0162329
0.00473942
0.00128042
0.000319254
6.56327e-05
2.26085e-05
5.76965e-06
2.43817e-06
1.20395e-06
6.80537e-07
3.5104e-07
4.48458e-06
0.00115949
0.054458
0.350606
0.079911
0.119116
0.0981228
0.0677243
0.0335462
0.0160335
0.00594815
0.00155987
0.000400527
8.23123e-05
4.36428e-06
2.5193e-06
2.31939e-06
1.24237e-06
7.16718e-07
3.48715e-07
4.19717e-06
0.0011767
0.0785833
0.314502
0.0697527
0.0774535
0.0635691
0.0437701
0.0275149
0.01397
0.00590699
0.00191298
0.000613959
0.000149051
0.000112953
2.65796e-05
4.23193e-05
3.76617e-05
1.48551e-06
3.82741e-07
9.19175e-06
0.00325242
0.114446
0.289435
0.0830901
0.0671515
0.0516903
0.0397575
0.0265119
0.0163457
0.00701729
0.00151762
0.000429856
9.80906e-05
8.33778e-05
6.68347e-05
5.94506e-05
4.87926e-05
4.43958e-05
3.49648e-05
1.06825e-05
0.00465868
0.15541
)
;

boundaryField
{
    outletWall
    {
        type            zeroGradient;
    }
    fineWalls
    {
        Cmu             0.09;
        kappa           0.41;
        E               9.8;
        type            epsilonWallFunction;
        value           nonuniform List<scalar> 
60
(
0.000381408
0.000366283
0.00020611
0.00046382
0.00048069
0.000274536
0.000510255
0.000516836
0.00029328
0.000578669
0.000591031
0.000336283
0.00067182
0.000683014
0.000690716
0.000392324
0.000807732
0.00083449
0.00047827
0.00100477
0.000120448
0.000213117
0.000209832
0.000207801
0.000125199
0.000261755
0.000300379
0.000342572
0.000272742
0.000451431
0.00045517
0.000300592
0.000397353
0.000346883
0.000288016
0.000133563
0.000214506
0.000214988
0.000217568
0.000122882
0.00103459
0.000492417
0.000859244
0.000831238
0.000403744
0.000710998
0.000702802
0.000690795
0.000345723
0.000607779
0.000594611
0.000301332
0.000531178
0.000524102
0.000282034
0.00049393
0.00047636
0.000212187
0.000377133
0.000392269
)
;
    }
    fineFrontAndBack
    {
        type            zeroGradient;
    }
    fineplugLeft
    {
        type            cyclicAMI;
        value           nonuniform List<scalar> 
20
(
0.12594
0.00381897
0.000945695
0.00070926
0.000928612
0.00101462
0.0012062
0.00140272
0.00164902
0.0017931
0.00210089
0.0037208
0.00816941
0.0157667
0.0252558
0.0377109
0.048414
0.0621774
0.0747723
0.238231
)
;
    }
    fineplugRight
    {
        type            cyclicAMI;
        value           nonuniform List<scalar> 
20
(
0.126467
0.0039553
0.000945739
0.000716597
0.00095982
0.00100997
0.00125424
0.00140374
0.00165485
0.00177251
0.00211745
0.00394739
0.00859727
0.0163184
0.0266232
0.0378899
0.0479902
0.0611032
0.0741039
0.238593
)
;
    }
    inletOutletLeft
    {
        type            cyclicAMI;
        value           nonuniform List<scalar> 
20
(
0.12594
0.00381897
0.000945695
0.00070926
0.000928612
0.00101462
0.0012062
0.00140272
0.00164902
0.0017931
0.00210089
0.0037208
0.00816941
0.0157667
0.0252558
0.0377109
0.048414
0.0621774
0.0747723
0.238231
)
;
    }
    inletLeft
    {
        type            fixedValue;
        value           uniform 2180.89;
    }
    inletWallsLeft
    {
        Cmu             0.09;
        kappa           0.41;
        E               9.8;
        type            epsilonWallFunction;
        value           nonuniform List<scalar> 
40
(
0.16219
0.193874
0.260067
0.360557
0.4574
0.531885
0.582369
0.622325
0.656011
0.671142
0.654259
0.609568
0.553499
0.500183
0.45455
0.416007
0.380878
0.350604
0.314303
0.28921
0.154689
0.113052
0.0773881
0.0533607
0.0363826
0.0236488
0.0145731
0.00842704
0.00453842
0.00226101
0.00105455
0.000481002
0.00022757
0.00011705
6.6963e-05
0.000103087
9.05696e-05
0.000305157
0.0134042
0.167927
)
;
    }
    inletFacesLeft
    {
        type            zeroGradient;
    }
    inletOutletRight
    {
        type            cyclicAMI;
        value           nonuniform List<scalar> 
20
(
0.126467
0.0039553
0.000945739
0.000716597
0.00095982
0.00100997
0.00125424
0.00140374
0.00165485
0.00177251
0.00211745
0.00394739
0.00859727
0.0163184
0.0266232
0.0378899
0.0479902
0.0611032
0.0741039
0.238593
)
;
    }
    inletRight
    {
        type            fixedValue;
        value           uniform 2180.89;
    }
    inletWallsRight
    {
        Cmu             0.09;
        kappa           0.41;
        E               9.8;
        type            epsilonWallFunction;
        value           nonuniform List<scalar> 
40
(
0.289435
0.314502
0.350606
0.380842
0.415909
0.454532
0.500299
0.553751
0.609808
0.654336
0.671028
0.655975
0.622486
0.582628
0.532063
0.457463
0.360542
0.260035
0.193865
0.162188
0.167923
0.0135367
0.000359333
0.000109681
0.000125221
8.29017e-05
0.000140099
0.000266675
0.000550836
0.00117943
0.00247477
0.00487849
0.00892125
0.0152268
0.0244513
0.037335
0.054458
0.0785833
0.114446
0.15541
)
;
    }
    inletFacesRight
    {
        type            zeroGradient;
    }
}


// ************************************************************************* //
