/*--------------------------------*- C++ -*----------------------------------*\
| =========                 |                                                 |
| \\      /  F ield         | OpenFOAM: The Open Source CFD Toolbox           |
|  \\    /   O peration     | Version:  4.1                                   |
|   \\  /    A nd           | Web:      www.OpenFOAM.org                      |
|    \\/     M anipulation  |                                                 |
\*---------------------------------------------------------------------------*/
FoamFile
{
    version     2.0;
    format      ascii;
    class       volScalarField;
    location    "2";
    object      k;
}
// * * * * * * * * * * * * * * * * * * * * * * * * * * * * * * * * * * * * * //

dimensions      [0 2 -2 0 0 0 0];

internalField   nonuniform List<scalar> 
1280
(
0.245301
0.217797
0.216104
0.211349
0.190247
0.189958
0.188481
0.186416
0.171512
0.171106
0.168759
0.156699
0.15664
0.15541
0.150407
0.149738
0.146391
0.125582
0.12628
0.130018
0.189821
0.219405
0.239364
0.2492
0.250226
0.244644
0.183154
0.178867
0.174413
0.164234
0.150486
0.135493
0.122501
0.110672
0.101093
0.0926284
0.0854857
0.0792016
0.0753335
0.0987592
0.0976952
0.096323
0.0948058
0.0936837
0.0968209
0.101082
0.108787
0.117285
0.145967
0.12775
0.126868
0.136889
0.109258
0.102128
0.0966918
0.093951
0.092348
0.0936811
0.0953282
0.0967934
0.0979299
0.0742769
0.0781595
0.0843912
0.0914868
0.0999342
0.109428
0.121198
0.134008
0.148791
0.162199
0.172054
0.175953
0.179939
0.241395
0.247611
0.247784
0.239622
0.221386
0.192443
0.132443
0.128719
0.127987
0.148973
0.15244
0.15309
0.158175
0.159498
0.159521
0.171808
0.174294
0.17467
0.189865
0.192063
0.193623
0.193879
0.215377
0.220306
0.222015
0.250072
0.0321467
0.036247
0.0398947
0.0447847
0.0515508
0.0611163
0.0747359
0.0935144
0.117453
0.14377
0.166505
0.179789
0.173701
0.151035
0.0900378
0.0673306
0.0428151
0.0251101
0.0259947
0.0338778
0.0381818
0.042069
0.0472194
0.0543242
0.064385
0.0788003
0.0989061
0.124979
0.154106
0.178886
0.193827
0.196737
0.192196
0.123045
0.0719188
0.042985
0.0251647
0.0260721
0.0351749
0.039654
0.0437636
0.0490397
0.0562211
0.0663139
0.0807583
0.100949
0.127123
0.155591
0.176327
0.184645
0.188127
0.204553
0.24341
0.086409
0.0433227
0.0248964
0.0259595
0.0369371
0.0415967
0.0458147
0.0511287
0.05825
0.068109
0.0819894
0.100924
0.124643
0.148607
0.159944
0.155537
0.150694
0.159823
0.190196
0.134827
0.0446141
0.0245239
0.0269367
0.0391676
0.0440047
0.0483317
0.0537066
0.0608228
0.0704942
0.0836089
0.0999331
0.117051
0.12956
0.129398
0.124113
0.12456
0.127949
0.138686
0.192415
0.0460491
0.0235319
0.025703
0.0417167
0.0467403
0.051165
0.0566017
0.0637406
0.0733321
0.085981
0.100268
0.112339
0.119305
0.123077
0.129192
0.139645
0.135373
0.110989
0.106515
0.0771596
0.0259619
0.0322401
0.0444786
0.0497347
0.0543572
0.0599356
0.0671217
0.0768102
0.0898632
0.105102
0.11901
0.12926
0.138278
0.155262
0.176158
0.17161
0.128868
0.0995934
0.110042
0.0574586
0.0927341
0.0469914
0.0523838
0.0571477
0.062734
0.0697253
0.0786962
0.0906058
0.105348
0.121379
0.136133
0.15214
0.185873
0.227374
0.217139
0.158637
0.0999926
0.0753686
0.0728299
0.0837671
0.0487926
0.0539949
0.0584346
0.0635167
0.0695878
0.0773452
0.0880453
0.10266
0.120985
0.141431
0.170703
0.235205
0.296561
0.298147
0.285218
0.260979
0.214089
0.173805
0.172322
0.0509613
0.0560374
0.0602248
0.0647827
0.0700822
0.0766629
0.0854716
0.0973379
0.112935
0.134424
0.184178
0.296066
0.35802
0.38601
0.453636
0.5224
0.524746
0.503431
0.549256
0.0561144
0.0620981
0.0672323
0.0729427
0.079611
0.0880036
0.0992875
0.114502
0.133303
0.15513
0.202603
0.346463
0.430162
0.455852
0.532191
0.607383
0.608924
0.582227
0.622819
0.0588626
0.0652658
0.0711128
0.0777938
0.0859251
0.0966849
0.111422
0.130966
0.154804
0.179708
0.211378
0.288645
0.38175
0.383282
0.360583
0.329439
0.269304
0.206858
0.196319
0.0596897
0.0664149
0.0726924
0.0804439
0.089921
0.102286
0.118444
0.138179
0.159234
0.17806
0.196803
0.236445
0.295499
0.279615
0.193302
0.111925
0.0756829
0.0733591
0.0841751
0.0580898
0.0646628
0.0708924
0.078367
0.0879851
0.101045
0.118577
0.139079
0.157722
0.17088
0.181851
0.202901
0.228663
0.218259
0.151892
0.104997
0.113479
0.0577915
0.09241
0.056283
0.0627673
0.068778
0.0758744
0.0848491
0.0966319
0.111631
0.127988
0.141621
0.150592
0.155941
0.163827
0.176477
0.167333
0.126879
0.109444
0.0860459
0.0260155
0.0307728
0.0545516
0.0608094
0.0665187
0.0732026
0.0815939
0.0926179
0.107077
0.124677
0.142867
0.155668
0.155504
0.149263
0.148622
0.147742
0.149169
0.200697
0.0500241
0.0233368
0.0243994
0.0531947
0.0591838
0.064587
0.0709329
0.0789566
0.0896166
0.104116
0.123373
0.146966
0.170646
0.182453
0.176797
0.169616
0.17633
0.204493
0.158324
0.0475061
0.0243605
0.0255784
0.0522231
0.0578036
0.0627609
0.0687403
0.0764493
0.0868881
0.101426
0.121383
0.147088
0.17559
0.198135
0.20793
0.211189
0.228696
0.274263
0.0973144
0.0459589
0.0245968
0.0245751
0.0516979
0.0570351
0.0615843
0.0673452
0.0748663
0.0851788
0.0996028
0.119355
0.144769
0.173753
0.200307
0.218124
0.222713
0.220287
0.153728
0.0803564
0.0450972
0.0246517
0.0245989
0.0501411
0.0552596
0.059395
0.0647443
0.0717556
0.0814
0.0948604
0.113125
0.136316
0.162536
0.186946
0.202993
0.198479
0.175328
0.107011
0.0743315
0.0444878
0.0243377
0.0244113
1.01361
0.567143
0.649014
0.56883
0.482537
0.37095
0.276924
0.183032
0.116399
0.0665205
0.0359158
0.0166612
0.00656019
0.0020898
0.000638159
0.000147117
2.36181e-05
0.000187646
0.0139563
0.610919
1.07095
0.534084
0.726635
0.623249
0.508739
0.35473
0.246581
0.144949
0.0826295
0.0391498
0.016941
0.00587277
0.00212771
0.000686882
0.000268897
0.000128492
7.35833e-05
0.000180973
0.0154813
0.493694
1.15179
0.579071
0.882327
0.770656
0.603971
0.410932
0.270568
0.153441
0.0814351
0.0368185
0.014858
0.00512686
0.00182872
0.000662153
0.000306038
0.000137624
7.32166e-05
0.000158411
0.0144868
0.395589
1.21677
0.619265
1.06585
0.943495
0.705815
0.453972
0.277004
0.14771
0.0726113
0.0308608
0.0118497
0.00406227
0.00148392
0.00058124
0.000278652
0.000132881
7.03932e-05
0.000122963
0.0123513
0.310554
1.29033
0.65628
1.28617
1.16325
0.824962
0.497889
0.277161
0.137823
0.0625929
0.0250787
0.00917198
0.00319705
0.00122671
0.000520335
0.000257379
0.000128714
6.83507e-05
9.59388e-05
0.0103033
0.23992
1.36899
0.674962
1.51122
1.39499
0.933778
0.50975
0.254474
0.115076
0.0477112
0.0178637
0.00638065
0.00234597
0.000979919
0.000456199
0.000234866
0.000122781
6.60635e-05
7.24142e-05
0.00835579
0.179126
1.46008
0.650937
1.67177
1.53464
0.936372
0.453842
0.199056
0.0800372
0.0297529
0.0105562
0.0039056
0.00161889
0.000768351
0.000393415
0.000211378
0.000114776
6.31621e-05
5.9452e-05
0.00714572
0.128912
1.56291
0.574365
1.6323
1.40219
0.756143
0.316103
0.120805
0.0428824
0.0147807
0.00550298
0.00237143
0.00116395
0.000618945
0.00033937
0.000188236
0.000105107
5.94172e-05
5.07949e-05
0.00627048
0.0888547
1.66583
0.471123
1.31467
0.959618
0.422237
0.141672
0.0452628
0.0159365
0.00658062
0.00311977
0.00163922
0.000909892
0.000515433
0.000292658
0.000165584
9.42512e-05
5.47416e-05
4.49438e-05
0.0056391
0.0583616
1.74242
0.361232
0.708333
0.355151
0.134416
0.0480552
0.0177669
0.00771677
0.00393302
0.0021792
0.00125723
0.000732171
0.00042476
0.000244863
0.000140358
8.11527e-05
4.84039e-05
3.98584e-05
0.00512588
0.0364192
1.76739
0.286248
0.213144
0.08351
0.0351701
0.0155005
0.00792016
0.00438569
0.00256214
0.00152325
0.000908189
0.000539249
0.000317323
0.000185488
0.000107979
6.36948e-05
3.92194e-05
3.40226e-05
0.00472628
0.0218666
1.73934
0.272203
0.0832452
0.0343359
0.0161375
0.00828193
0.00458573
0.00261207
0.00152796
0.000907911
0.000542901
0.000324935
0.000193992
0.000115596
6.89551e-05
4.20704e-05
2.7168e-05
2.66684e-05
0.00451731
0.0130787
1.6829
0.286648
0.0658959
0.0215616
0.0090392
0.00417097
0.00212951
0.00115544
0.000656907
0.000385453
0.000230657
0.000139615
8.50282e-05
5.21558e-05
3.23771e-05
2.08793e-05
1.45367e-05
1.83855e-05
0.00443131
0.00813578
1.61503
0.286923
0.0510579
0.0124756
0.00396328
0.00147817
0.000653721
0.000321225
0.000171223
9.67378e-05
5.70132e-05
3.4664e-05
2.15961e-05
1.38075e-05
9.11056e-06
6.4099e-06
5.05277e-06
1.1363e-05
0.00430969
0.00542636
1.52169
0.232566
0.028857
0.00446963
0.000987616
0.000271836
9.65259e-05
4.01633e-05
1.90845e-05
1.00128e-05
5.71094e-06
3.47487e-06
2.23353e-06
1.51986e-06
1.10132e-06
8.93936e-07
8.63999e-07
7.76123e-06
0.00426818
0.00432431
1.37393
0.1399
0.00947405
0.000767744
0.000104819
1.83501e-05
4.47579e-06
1.30935e-06
4.92763e-07
2.20515e-07
1.13546e-07
6.36366e-08
3.83187e-08
2.44052e-08
1.65833e-08
1.37474e-08
1.17753e-08
6.01096e-06
0.00417098
0.0056374
1.16954
0.0519516
0.000299307
4.24749e-06
1.9292e-07
1.83738e-08
5.34883e-09
2.53358e-09
1.54481e-09
1.06591e-09
8.40812e-10
7.00734e-10
5.92023e-10
4.96246e-10
4.08599e-10
3.08067e-10
5.29177e-10
1.752e-06
0.00116141
0.00529205
0.939277
0.00763377
6.59953e-08
2.89529e-08
2.76222e-08
2.48153e-08
2.30846e-08
2.11423e-08
1.94319e-08
1.77384e-08
1.6126e-08
1.45757e-08
1.31239e-08
1.16913e-08
9.92355e-09
7.28328e-09
3.672e-08
5.49878e-06
0.00186957
0.0112431
0.773489
0.00127228
2.10427e-06
1.97023e-06
1.91722e-06
1.84189e-06
1.78053e-06
1.71793e-06
1.65763e-06
1.59706e-06
1.53595e-06
1.47457e-06
1.41365e-06
1.34863e-06
1.25842e-06
1.14796e-06
1.76182e-05
0.0025353
0.0277881
0.157592
0.687008
0.000703308
0.000668178
0.000667887
0.000667984
0.000667946
0.000667965
0.00066799
0.000667989
0.000667983
0.000667975
0.000667995
0.000668028
0.000667995
0.000667989
0.000668018
0.000667997
0.000671153
0.00198738
0.840512
0.687006
0.000703311
0.000668179
0.000667884
0.000668
0.000667968
0.000667971
0.000667967
0.000667968
0.00066796
0.00066799
0.000668017
0.000667994
0.000667984
0.000667989
0.000668012
0.000667995
0.000671153
0.00198721
0.840513
0.773465
0.00127833
2.10428e-06
1.97031e-06
1.91733e-06
1.842e-06
1.78065e-06
1.71804e-06
1.65783e-06
1.59723e-06
1.53615e-06
1.47474e-06
1.41374e-06
1.34869e-06
1.25831e-06
1.15184e-06
1.90278e-05
0.00262523
0.0282004
0.15871
0.939198
0.00767512
6.95129e-08
2.8911e-08
2.77081e-08
2.49074e-08
2.31566e-08
2.12003e-08
1.94838e-08
1.77838e-08
1.61728e-08
1.4615e-08
1.31481e-08
1.17097e-08
9.93721e-09
7.29659e-09
3.90988e-08
3.14622e-05
0.00278181
0.0125042
1.16952
0.0518445
0.000317995
4.58168e-06
2.26413e-07
1.84657e-08
5.31368e-09
2.35126e-09
1.43002e-09
1.02404e-09
8.17804e-10
6.90072e-10
5.81122e-10
4.90097e-10
4.00175e-10
3.00514e-10
5.26775e-10
3.56157e-06
0.00136637
0.00602155
1.37404
0.139635
0.00937742
0.000834414
0.000117287
2.10978e-05
5.18385e-06
1.53276e-06
5.54218e-07
2.33806e-07
1.13243e-07
6.11157e-08
3.5956e-08
2.29149e-08
1.57849e-08
1.30447e-08
1.1418e-08
8.12413e-06
0.00483957
0.0064349
1.522
0.232419
0.0288644
0.00467115
0.00103875
0.000284913
9.9438e-05
4.06331e-05
1.91381e-05
1.00085e-05
5.69023e-06
3.46072e-06
2.2279e-06
1.52185e-06
1.10939e-06
9.06475e-07
8.84872e-07
9.69825e-06
0.00500821
0.0050044
1.61552
0.286282
0.0511672
0.0126188
0.00404553
0.00152837
0.00067633
0.000331721
0.000176627
9.97755e-05
5.88187e-05
3.57937e-05
2.23286e-05
1.42923e-05
9.44828e-06
6.6721e-06
5.27054e-06
1.31831e-05
0.00499207
0.00612107
1.68324
0.287081
0.0655815
0.0223442
0.0095393
0.00445798
0.00229095
0.00124575
0.000708134
0.00041499
0.000247777
0.000149541
9.07978e-05
5.5542e-05
3.44017e-05
2.2158e-05
1.54194e-05
2.06027e-05
0.00507519
0.00905815
1.73937
0.273175
0.0814962
0.0338669
0.0170477
0.00898057
0.00502041
0.00287502
0.00168563
0.00100226
0.000599005
0.0003578
0.000212799
0.000126186
7.48856e-05
4.54792e-05
2.92047e-05
2.96595e-05
0.00518839
0.0143581
1.76714
0.286657
0.20067
0.0790889
0.0345416
0.0161428
0.00865504
0.00490767
0.00288465
0.00171496
0.00101981
0.000603245
0.000353547
0.000205559
0.000118907
6.9699e-05
4.26071e-05
3.79356e-05
0.00542145
0.0236364
1.74234
0.356191
0.670685
0.341129
0.121582
0.0411286
0.0168617
0.00804185
0.00432029
0.00244951
0.00141923
0.000825379
0.000477284
0.000273854
0.000155961
8.95205e-05
5.29085e-05
4.47063e-05
0.00588239
0.0387931
1.6661
0.46033
1.24657
0.911628
0.400566
0.15053
0.0553697
0.0194552
0.00764707
0.00356736
0.00187047
0.00103511
0.00058347
0.000329543
0.000185282
0.000104674
6.01519e-05
5.09005e-05
0.00646715
0.0613996
1.56332
0.55843
1.55607
1.34639
0.737606
0.318157
0.12363
0.0459266
0.0170342
0.00649912
0.00277977
0.00134434
0.000706397
0.000384478
0.00021191
0.000117422
6.55318e-05
5.80935e-05
0.00715282
0.0925098
1.46032
0.629153
1.59721
1.47783
0.914312
0.452637
0.20324
0.0860267
0.034479
0.0129027
0.00482464
0.001953
0.000897024
0.000451079
0.000239697
0.000129032
6.99283e-05
6.87143e-05
0.00805381
0.133007
1.36896
0.650169
1.4463
1.34481
0.909387
0.504049
0.256681
0.120574
0.0535311
0.0218117
0.00820223
0.00298107
0.00118722
0.000533499
0.00026896
0.000139156
7.35101e-05
8.36804e-05
0.00924557
0.183455
1.29012
0.632907
1.23314
1.12195
0.802998
0.490018
0.27808
0.142412
0.0682951
0.0296668
0.0117966
0.00422885
0.00154438
0.000623185
0.00029794
0.000147088
7.64189e-05
0.000112134
0.0112413
0.244358
1.21663
0.598903
1.02411
0.908798
0.685524
0.444545
0.274413
0.151208
0.0781191
0.0355924
0.014894
0.00538198
0.00190418
0.000710584
0.00032597
0.000152969
7.9014e-05
0.000140199
0.0130821
0.315096
1.15169
0.562735
0.849276
0.739965
0.583028
0.400485
0.266037
0.154815
0.085933
0.0413057
0.0177843
0.00707771
0.00268307
0.00086657
0.000364458
0.000159737
8.24348e-05
0.000184245
0.0154627
0.399971
1.07132
0.520359
0.702243
0.598017
0.489798
0.339712
0.239859
0.144663
0.0861231
0.043063
0.0198965
0.0078252
0.00299462
0.000903539
0.000327166
0.000160991
8.62926e-05
0.000202881
0.0155042
0.497844
1.01403
0.556577
0.628792
0.54481
0.460924
0.351243
0.264575
0.178344
0.116548
0.0682091
0.0382877
0.0188268
0.00773492
0.00249426
0.000744045
0.000177388
2.59966e-05
0.000211785
0.0141646
0.613725
)
;

boundaryField
{
    outletWall
    {
        type            calculated;
        value           nonuniform List<scalar> 
60
(
0.250072
0.0259947
0.0251101
0.0428151
0.0673306
0.0900378
0.151035
0.173701
0.179789
0.166505
0.14377
0.117453
0.0935144
0.0747359
0.0611163
0.0515508
0.0447847
0.0398947
0.036247
0.0321467
0.0501411
0.0516979
0.0522231
0.0531947
0.0545516
0.056283
0.0580898
0.0596897
0.0588626
0.0561144
0.0509613
0.0487926
0.0469914
0.0444786
0.0417167
0.0391676
0.0369371
0.0351749
0.0338778
0.0321467
0.245301
0.0244113
0.0243377
0.0444878
0.0743315
0.107011
0.175328
0.198479
0.202993
0.186946
0.162536
0.136316
0.113125
0.0948604
0.0814
0.0717556
0.0647443
0.059395
0.0552596
0.0501411
)
;
    }
    fineWalls
    {
        type            calculated;
        value           nonuniform List<scalar> 
60
(
0.130018
0.12628
0.125582
0.146391
0.149738
0.150407
0.15541
0.15664
0.156699
0.168759
0.171106
0.171512
0.186416
0.188481
0.189958
0.190247
0.211349
0.216104
0.217797
0.245301
0.0967934
0.0953282
0.0936811
0.092348
0.093951
0.0966918
0.102128
0.109258
0.136889
0.126868
0.12775
0.145967
0.117285
0.108787
0.101082
0.0968209
0.0936837
0.0948058
0.096323
0.0976952
0.250072
0.222015
0.220306
0.215377
0.193879
0.193623
0.192063
0.189865
0.17467
0.174294
0.171808
0.159521
0.159498
0.158175
0.15309
0.15244
0.148973
0.127987
0.128719
0.132443
)
;
    }
    fineFrontAndBack
    {
        type            calculated;
        value           nonuniform List<scalar> 
960
(
0.245301
0.217797
0.216104
0.211349
0.190247
0.189958
0.188481
0.186416
0.171512
0.171106
0.168759
0.156699
0.15664
0.15541
0.150407
0.149738
0.146391
0.125582
0.12628
0.130018
0.189821
0.219405
0.239364
0.2492
0.250226
0.244644
0.183154
0.178867
0.174413
0.164234
0.150486
0.135493
0.122501
0.110672
0.101093
0.0926284
0.0854857
0.0792016
0.0753335
0.0987592
0.0976952
0.096323
0.0948058
0.0936837
0.0968209
0.101082
0.108787
0.117285
0.145967
0.12775
0.126868
0.136889
0.109258
0.102128
0.0966918
0.093951
0.092348
0.0936811
0.0953282
0.0967934
0.0979299
0.0742769
0.0781595
0.0843912
0.0914868
0.0999342
0.109428
0.121198
0.134008
0.148791
0.162199
0.172054
0.175953
0.179939
0.241395
0.247611
0.247784
0.239622
0.221386
0.192443
0.132443
0.128719
0.127987
0.148973
0.15244
0.15309
0.158175
0.159498
0.159521
0.171808
0.174294
0.17467
0.189865
0.192063
0.193623
0.193879
0.215377
0.220306
0.222015
0.250072
0.0321467
0.036247
0.0398947
0.0447847
0.0515508
0.0611163
0.0747359
0.0935144
0.117453
0.14377
0.166505
0.179789
0.173701
0.151035
0.0900378
0.0673306
0.0428151
0.0251101
0.0259947
0.0338778
0.0381818
0.042069
0.0472194
0.0543242
0.064385
0.0788003
0.0989061
0.124979
0.154106
0.178886
0.193827
0.196737
0.192196
0.123045
0.0719188
0.042985
0.0251647
0.0260721
0.0351749
0.039654
0.0437636
0.0490397
0.0562211
0.0663139
0.0807583
0.100949
0.127123
0.155591
0.176327
0.184645
0.188127
0.204553
0.24341
0.086409
0.0433227
0.0248964
0.0259595
0.0369371
0.0415967
0.0458147
0.0511287
0.05825
0.068109
0.0819894
0.100924
0.124643
0.148607
0.159944
0.155537
0.150694
0.159823
0.190196
0.134827
0.0446141
0.0245239
0.0269367
0.0391676
0.0440047
0.0483317
0.0537066
0.0608228
0.0704942
0.0836089
0.0999331
0.117051
0.12956
0.129398
0.124113
0.12456
0.127949
0.138686
0.192415
0.0460491
0.0235319
0.025703
0.0417167
0.0467403
0.051165
0.0566017
0.0637406
0.0733321
0.085981
0.100268
0.112339
0.119305
0.123077
0.129192
0.139645
0.135373
0.110989
0.106515
0.0771596
0.0259619
0.0322401
0.0444786
0.0497347
0.0543572
0.0599356
0.0671217
0.0768102
0.0898632
0.105102
0.11901
0.12926
0.138278
0.155262
0.176158
0.17161
0.128868
0.0995934
0.110042
0.0574586
0.0927341
0.0469914
0.0523838
0.0571477
0.062734
0.0697253
0.0786962
0.0906058
0.105348
0.121379
0.136133
0.15214
0.185873
0.227374
0.217139
0.158637
0.0999926
0.0753686
0.0728299
0.0837671
0.0487926
0.0539949
0.0584346
0.0635167
0.0695878
0.0773452
0.0880453
0.10266
0.120985
0.141431
0.170703
0.235205
0.296561
0.298147
0.285218
0.260979
0.214089
0.173805
0.172322
0.0509613
0.0560374
0.0602248
0.0647827
0.0700822
0.0766629
0.0854716
0.0973379
0.112935
0.134424
0.184178
0.296066
0.35802
0.38601
0.453636
0.5224
0.524746
0.503431
0.549256
0.0561144
0.0620981
0.0672323
0.0729427
0.079611
0.0880036
0.0992875
0.114502
0.133303
0.15513
0.202603
0.346463
0.430162
0.455852
0.532191
0.607383
0.608924
0.582227
0.622819
0.0588626
0.0652658
0.0711128
0.0777938
0.0859251
0.0966849
0.111422
0.130966
0.154804
0.179708
0.211378
0.288645
0.38175
0.383282
0.360583
0.329439
0.269304
0.206858
0.196319
0.0596897
0.0664149
0.0726924
0.0804439
0.089921
0.102286
0.118444
0.138179
0.159234
0.17806
0.196803
0.236445
0.295499
0.279615
0.193302
0.111925
0.0756829
0.0733591
0.0841751
0.0580898
0.0646628
0.0708924
0.078367
0.0879851
0.101045
0.118577
0.139079
0.157722
0.17088
0.181851
0.202901
0.228663
0.218259
0.151892
0.104997
0.113479
0.0577915
0.09241
0.056283
0.0627673
0.068778
0.0758744
0.0848491
0.0966319
0.111631
0.127988
0.141621
0.150592
0.155941
0.163827
0.176477
0.167333
0.126879
0.109444
0.0860459
0.0260155
0.0307728
0.0545516
0.0608094
0.0665187
0.0732026
0.0815939
0.0926179
0.107077
0.124677
0.142867
0.155668
0.155504
0.149263
0.148622
0.147742
0.149169
0.200697
0.0500241
0.0233368
0.0243994
0.0531947
0.0591838
0.064587
0.0709329
0.0789566
0.0896166
0.104116
0.123373
0.146966
0.170646
0.182453
0.176797
0.169616
0.17633
0.204493
0.158324
0.0475061
0.0243605
0.0255784
0.0522231
0.0578036
0.0627609
0.0687403
0.0764493
0.0868881
0.101426
0.121383
0.147088
0.17559
0.198135
0.20793
0.211189
0.228696
0.274263
0.0973144
0.0459589
0.0245968
0.0245751
0.0516979
0.0570351
0.0615843
0.0673452
0.0748663
0.0851788
0.0996028
0.119355
0.144769
0.173753
0.200307
0.218124
0.222713
0.220287
0.153728
0.0803564
0.0450972
0.0246517
0.0245989
0.0501411
0.0552596
0.059395
0.0647443
0.0717556
0.0814
0.0948604
0.113125
0.136316
0.162536
0.186946
0.202993
0.198479
0.175328
0.107011
0.0743315
0.0444878
0.0243377
0.0244113
0.245301
0.217797
0.216104
0.211349
0.190247
0.189958
0.188481
0.186416
0.171512
0.171106
0.168759
0.156699
0.15664
0.15541
0.150407
0.149738
0.146391
0.125582
0.12628
0.130018
0.189821
0.219405
0.239364
0.2492
0.250226
0.244644
0.183154
0.178867
0.174413
0.164234
0.150486
0.135493
0.122501
0.110672
0.101093
0.0926284
0.0854857
0.0792016
0.0753335
0.0987592
0.0976952
0.096323
0.0948058
0.0936837
0.0968209
0.101082
0.108787
0.117285
0.145967
0.12775
0.126868
0.136889
0.109258
0.102128
0.0966918
0.093951
0.092348
0.0936811
0.0953282
0.0967934
0.0979299
0.0742769
0.0781595
0.0843912
0.0914868
0.0999342
0.109428
0.121198
0.134008
0.148791
0.162199
0.172054
0.175953
0.179939
0.241395
0.247611
0.247784
0.239622
0.221386
0.192443
0.132443
0.128719
0.127987
0.148973
0.15244
0.15309
0.158175
0.159498
0.159521
0.171808
0.174294
0.17467
0.189865
0.192063
0.193623
0.193879
0.215377
0.220306
0.222015
0.250072
0.0321467
0.036247
0.0398947
0.0447847
0.0515508
0.0611163
0.0747359
0.0935144
0.117453
0.14377
0.166505
0.179789
0.173701
0.151035
0.0900378
0.0673306
0.0428151
0.0251101
0.0259947
0.0338778
0.0381818
0.042069
0.0472194
0.0543242
0.064385
0.0788003
0.0989061
0.124979
0.154106
0.178886
0.193827
0.196737
0.192196
0.123045
0.0719188
0.042985
0.0251647
0.0260721
0.0351749
0.039654
0.0437636
0.0490397
0.0562211
0.0663139
0.0807583
0.100949
0.127123
0.155591
0.176327
0.184645
0.188127
0.204553
0.24341
0.086409
0.0433227
0.0248964
0.0259595
0.0369371
0.0415967
0.0458147
0.0511287
0.05825
0.068109
0.0819894
0.100924
0.124643
0.148607
0.159944
0.155537
0.150694
0.159823
0.190196
0.134827
0.0446141
0.0245239
0.0269367
0.0391676
0.0440047
0.0483317
0.0537066
0.0608228
0.0704942
0.0836089
0.0999331
0.117051
0.12956
0.129398
0.124113
0.12456
0.127949
0.138686
0.192415
0.0460491
0.0235319
0.025703
0.0417167
0.0467403
0.051165
0.0566017
0.0637406
0.0733321
0.085981
0.100268
0.112339
0.119305
0.123077
0.129192
0.139645
0.135373
0.110989
0.106515
0.0771596
0.0259619
0.0322401
0.0444786
0.0497347
0.0543572
0.0599356
0.0671217
0.0768102
0.0898632
0.105102
0.11901
0.12926
0.138278
0.155262
0.176158
0.17161
0.128868
0.0995934
0.110042
0.0574586
0.0927341
0.0469914
0.0523838
0.0571477
0.062734
0.0697253
0.0786962
0.0906058
0.105348
0.121379
0.136133
0.15214
0.185873
0.227374
0.217139
0.158637
0.0999926
0.0753686
0.0728299
0.0837671
0.0487926
0.0539949
0.0584346
0.0635167
0.0695878
0.0773452
0.0880453
0.10266
0.120985
0.141431
0.170703
0.235205
0.296561
0.298147
0.285218
0.260979
0.214089
0.173805
0.172322
0.0509613
0.0560374
0.0602248
0.0647827
0.0700822
0.0766629
0.0854716
0.0973379
0.112935
0.134424
0.184178
0.296066
0.35802
0.38601
0.453636
0.5224
0.524746
0.503431
0.549256
0.0561144
0.0620981
0.0672323
0.0729427
0.079611
0.0880036
0.0992875
0.114502
0.133303
0.15513
0.202603
0.346463
0.430162
0.455852
0.532191
0.607383
0.608924
0.582227
0.622819
0.0588626
0.0652658
0.0711128
0.0777938
0.0859251
0.0966849
0.111422
0.130966
0.154804
0.179708
0.211378
0.288645
0.38175
0.383282
0.360583
0.329439
0.269304
0.206858
0.196319
0.0596897
0.0664149
0.0726924
0.0804439
0.089921
0.102286
0.118444
0.138179
0.159234
0.17806
0.196803
0.236445
0.295499
0.279615
0.193302
0.111925
0.0756829
0.0733591
0.0841751
0.0580898
0.0646628
0.0708924
0.078367
0.0879851
0.101045
0.118577
0.139079
0.157722
0.17088
0.181851
0.202901
0.228663
0.218259
0.151892
0.104997
0.113479
0.0577915
0.09241
0.056283
0.0627673
0.068778
0.0758744
0.0848491
0.0966319
0.111631
0.127988
0.141621
0.150592
0.155941
0.163827
0.176477
0.167333
0.126879
0.109444
0.0860459
0.0260155
0.0307728
0.0545516
0.0608094
0.0665187
0.0732026
0.0815939
0.0926179
0.107077
0.124677
0.142867
0.155668
0.155504
0.149263
0.148622
0.147742
0.149169
0.200697
0.0500241
0.0233368
0.0243994
0.0531947
0.0591838
0.064587
0.0709329
0.0789566
0.0896166
0.104116
0.123373
0.146966
0.170646
0.182453
0.176797
0.169616
0.17633
0.204493
0.158324
0.0475061
0.0243605
0.0255784
0.0522231
0.0578036
0.0627609
0.0687403
0.0764493
0.0868881
0.101426
0.121383
0.147088
0.17559
0.198135
0.20793
0.211189
0.228696
0.274263
0.0973144
0.0459589
0.0245968
0.0245751
0.0516979
0.0570351
0.0615843
0.0673452
0.0748663
0.0851788
0.0996028
0.119355
0.144769
0.173753
0.200307
0.218124
0.222713
0.220287
0.153728
0.0803564
0.0450972
0.0246517
0.0245989
0.0501411
0.0552596
0.059395
0.0647443
0.0717556
0.0814
0.0948604
0.113125
0.136316
0.162536
0.186946
0.202993
0.198479
0.175328
0.107011
0.0743315
0.0444878
0.0243377
0.0244113
)
;
    }
    fineplugLeft
    {
        type            cyclicAMI;
        value           nonuniform List<scalar> 
20
(
0.508487
0.0262317
0.0159904
0.017116
0.0186434
0.0207292
0.0238063
0.0297484
0.0404275
0.0588299
0.0860633
0.128002
0.182199
0.266261
0.345689
0.436075
0.504904
0.567084
0.497595
0.848856
)
;
    }
    fineplugRight
    {
        type            cyclicAMI;
        value           nonuniform List<scalar> 
20
(
0.510566
0.0261871
0.0158013
0.016899
0.0184393
0.0205821
0.0238811
0.0304275
0.041863
0.0603884
0.087007
0.127649
0.177866
0.254951
0.329273
0.418261
0.485405
0.550958
0.489539
0.849713
)
;
    }
    inletOutletLeft
    {
        type            cyclicAMI;
        value           nonuniform List<scalar> 
20
(
0.508487
0.0262317
0.0159904
0.017116
0.0186434
0.0207292
0.0238063
0.0297484
0.0404275
0.0588299
0.0860633
0.128002
0.182199
0.266261
0.345689
0.436075
0.504904
0.567084
0.497595
0.848856
)
;
    }
    inletLeft
    {
        type            calculated;
        value           uniform 1.13;
    }
    inletWallsLeft
    {
        type            calculated;
        value           nonuniform List<scalar> 
40
(
0.687008
0.773489
0.939277
1.16954
1.37393
1.52169
1.61503
1.6829
1.73934
1.76739
1.74242
1.66583
1.56291
1.46008
1.36899
1.29033
1.21677
1.15179
1.07095
1.01361
0.610919
0.493694
0.395589
0.310554
0.23992
0.179126
0.128912
0.0888547
0.0583616
0.0364192
0.0218666
0.0130787
0.00813578
0.00542636
0.00432431
0.0056374
0.00529205
0.0112431
0.157592
0.840512
)
;
    }
    inletFacesLeft
    {
        type            calculated;
        value           nonuniform List<scalar> 
800
(
1.01361
0.567143
0.649014
0.56883
0.482537
0.37095
0.276924
0.183032
0.116399
0.0665205
0.0359158
0.0166612
0.00656019
0.0020898
0.000638159
0.000147117
2.36181e-05
0.000187646
0.0139563
0.610919
1.07095
0.534084
0.726635
0.623249
0.508739
0.35473
0.246581
0.144949
0.0826295
0.0391498
0.016941
0.00587277
0.00212771
0.000686882
0.000268897
0.000128492
7.35833e-05
0.000180973
0.0154813
0.493694
1.15179
0.579071
0.882327
0.770656
0.603971
0.410932
0.270568
0.153441
0.0814351
0.0368185
0.014858
0.00512686
0.00182872
0.000662153
0.000306038
0.000137624
7.32166e-05
0.000158411
0.0144868
0.395589
1.21677
0.619265
1.06585
0.943495
0.705815
0.453972
0.277004
0.14771
0.0726113
0.0308608
0.0118497
0.00406227
0.00148392
0.00058124
0.000278652
0.000132881
7.03932e-05
0.000122963
0.0123513
0.310554
1.29033
0.65628
1.28617
1.16325
0.824962
0.497889
0.277161
0.137823
0.0625929
0.0250787
0.00917198
0.00319705
0.00122671
0.000520335
0.000257379
0.000128714
6.83507e-05
9.59388e-05
0.0103033
0.23992
1.36899
0.674962
1.51122
1.39499
0.933778
0.50975
0.254474
0.115076
0.0477112
0.0178637
0.00638065
0.00234597
0.000979919
0.000456199
0.000234866
0.000122781
6.60635e-05
7.24142e-05
0.00835579
0.179126
1.46008
0.650937
1.67177
1.53464
0.936372
0.453842
0.199056
0.0800372
0.0297529
0.0105562
0.0039056
0.00161889
0.000768351
0.000393415
0.000211378
0.000114776
6.31621e-05
5.9452e-05
0.00714572
0.128912
1.56291
0.574365
1.6323
1.40219
0.756143
0.316103
0.120805
0.0428824
0.0147807
0.00550298
0.00237143
0.00116395
0.000618945
0.00033937
0.000188236
0.000105107
5.94172e-05
5.07949e-05
0.00627048
0.0888547
1.66583
0.471123
1.31467
0.959618
0.422237
0.141672
0.0452628
0.0159365
0.00658062
0.00311977
0.00163922
0.000909892
0.000515433
0.000292658
0.000165584
9.42512e-05
5.47416e-05
4.49438e-05
0.0056391
0.0583616
1.74242
0.361232
0.708333
0.355151
0.134416
0.0480552
0.0177669
0.00771677
0.00393302
0.0021792
0.00125723
0.000732171
0.00042476
0.000244863
0.000140358
8.11527e-05
4.84039e-05
3.98584e-05
0.00512588
0.0364192
1.76739
0.286248
0.213144
0.08351
0.0351701
0.0155005
0.00792016
0.00438569
0.00256214
0.00152325
0.000908189
0.000539249
0.000317323
0.000185488
0.000107979
6.36948e-05
3.92194e-05
3.40226e-05
0.00472628
0.0218666
1.73934
0.272203
0.0832452
0.0343359
0.0161375
0.00828193
0.00458573
0.00261207
0.00152796
0.000907911
0.000542901
0.000324935
0.000193992
0.000115596
6.89551e-05
4.20704e-05
2.7168e-05
2.66684e-05
0.00451731
0.0130787
1.6829
0.286648
0.0658959
0.0215616
0.0090392
0.00417097
0.00212951
0.00115544
0.000656907
0.000385453
0.000230657
0.000139615
8.50282e-05
5.21558e-05
3.23771e-05
2.08793e-05
1.45367e-05
1.83855e-05
0.00443131
0.00813578
1.61503
0.286923
0.0510579
0.0124756
0.00396328
0.00147817
0.000653721
0.000321225
0.000171223
9.67378e-05
5.70132e-05
3.4664e-05
2.15961e-05
1.38075e-05
9.11056e-06
6.4099e-06
5.05277e-06
1.1363e-05
0.00430969
0.00542636
1.52169
0.232566
0.028857
0.00446963
0.000987616
0.000271836
9.65259e-05
4.01633e-05
1.90845e-05
1.00128e-05
5.71094e-06
3.47487e-06
2.23353e-06
1.51986e-06
1.10132e-06
8.93936e-07
8.63999e-07
7.76123e-06
0.00426818
0.00432431
1.37393
0.1399
0.00947405
0.000767744
0.000104819
1.83501e-05
4.47579e-06
1.30935e-06
4.92763e-07
2.20515e-07
1.13546e-07
6.36366e-08
3.83187e-08
2.44052e-08
1.65833e-08
1.37474e-08
1.17753e-08
6.01096e-06
0.00417098
0.0056374
1.16954
0.0519516
0.000299307
4.24749e-06
1.9292e-07
1.83738e-08
5.34883e-09
2.53358e-09
1.54481e-09
1.06591e-09
8.40812e-10
7.00734e-10
5.92023e-10
4.96246e-10
4.08599e-10
3.08067e-10
5.29177e-10
1.752e-06
0.00116141
0.00529205
0.939277
0.00763377
6.59953e-08
2.89529e-08
2.76222e-08
2.48153e-08
2.30846e-08
2.11423e-08
1.94319e-08
1.77384e-08
1.6126e-08
1.45757e-08
1.31239e-08
1.16913e-08
9.92355e-09
7.28328e-09
3.672e-08
5.49878e-06
0.00186957
0.0112431
0.773489
0.00127228
2.10427e-06
1.97023e-06
1.91722e-06
1.84189e-06
1.78053e-06
1.71793e-06
1.65763e-06
1.59706e-06
1.53595e-06
1.47457e-06
1.41365e-06
1.34863e-06
1.25842e-06
1.14796e-06
1.76182e-05
0.0025353
0.0277881
0.157592
0.687008