/*--------------------------------*- C++ -*----------------------------------*\
| =========                 |                                                 |
| \\      /  F ield         | OpenFOAM: The Open Source CFD Toolbox           |
|  \\    /   O peration     | Version:  4.1                                   |
|   \\  /    A nd           | Web:      www.OpenFOAM.org                      |
|    \\/     M anipulation  |                                                 |
\*---------------------------------------------------------------------------*/
FoamFile
{
    version     2.0;
    format      ascii;
    class       volScalarField;
    location    "2";
    object      nut;
}
// * * * * * * * * * * * * * * * * * * * * * * * * * * * * * * * * * * * * * //

dimensions      [0 2 -1 0 0 0 0];

internalField   nonuniform List<scalar> 
1280
(
5.38985
8.92637
5.03671
4.97711
8.30297
4.70175
4.68108
4.65539
7.87275
4.45824
4.4294
7.53517
4.2726
4.26005
7.41615
4.19802
4.15838
6.88651
3.91825
3.98898
0.0945034
0.115135
0.142381
0.169164
0.189842
0.199888
0.187091
0.194944
0.202866
0.197181
0.196024
0.189521
0.185256
0.175706
0.173286
0.162256
0.182132
0.120378
0.492941
0.0802072
6.99036
3.83801
3.76268
3.6824
6.31677
3.19282
3.07056
3.11565
6.37934
3.22695
3.20888
6.1834
3.13614
3.12509
3.2146
6.34519
3.69361
3.76422
3.83766
7.00059
0.0807018
0.434893
0.11733
0.175366
0.152497
0.168355
0.165447
0.179243
0.17955
0.18887
0.187628
0.194947
0.186787
0.180925
0.193746
0.181395
0.166489
0.140006
0.115596
0.094618
4.02452
3.95395
6.94789
4.19299
4.23423
7.47889
4.2964
4.31034
7.60036
4.46781
4.49842
7.94236
4.69659
4.72386
4.74557
8.37913
5.02243
5.08366
9.00895
5.44008
3.08453
2.78409
2.65348
2.43074
2.28338
2.1739
2.1307
2.14691
2.19799
2.23096
2.2193
2.37771
2.37544
3.11937
3.0158
3.33409
1.68232
0.943489
1.16367
2.96544
2.82468
2.67722
2.44297
2.28899
2.16882
2.11424
2.12176
2.18709
2.28664
2.31181
2.40894
2.42806
2.38197
5.63903
3.67512
1.72651
0.981124
1.18486
2.9675
2.7592
2.62588
2.38836
2.23481
2.11052
2.05257
2.06208
2.14277
2.31997
2.38012
2.37444
2.35635
2.35631
3.10319
4.62082
1.81242
0.992175
1.26835
2.89817
2.67916
2.53717
2.28788
2.11875
1.9684
1.87501
1.83927
1.88291
2.16908
2.37827
2.26552
2.11253
2.02851
2.26179
11.9635
1.98741
1.00651
1.32617
2.92604
2.68596
2.54147
2.27869
2.101
1.9327
1.81141
1.71469
1.64167
1.78399
1.75263
1.64064
1.5554
1.58716
1.88202
2.45557
2.23948
0.988991
1.21575
2.99108
2.73366
2.57597
2.29393
2.11328
1.92948
1.79629
1.67895
1.574
1.47556
1.41917
1.31187
1.33763
1.25559
1.40698
1.48767
5.22351
1.10786
1.2978
3.12234
2.86877
2.74407
2.46056
2.25909
2.05392
1.92604
1.8584
1.83139
1.79005
1.77082
1.67989
1.45399
1.22601
1.12677
0.954416
0.989759
0.417275
0.205271
3.28754
3.03839
3.02492
2.75961
2.6575
2.43312
2.24091
2.12242
2.10611
2.17077
2.25504
2.15284
1.84742
1.50723
1.34542
0.900447
0.54306
0.446438
0.474671
3.37975
3.07709
3.08446
2.87624
2.78905
2.58935
2.42121
2.32393
2.36145
2.45925
2.48976
2.45028
2.45255
2.12186
1.8313
1.7694
1.69125
1.17801
1.09746
3.57148
3.22437
3.26971
3.00935
2.9138
2.75633
2.64976
2.56007
2.50067
2.43178
2.32235
2.92215
3.38773
3.17942
2.90261
3.24636
2.93066
2.79526
3.09935
4.03014
3.65317
3.74454
3.48217
3.38525
3.20562
3.08918
3.07493
3.07274
3.07336
2.82801
3.49582
4.15528
3.83399
3.46189
3.81739
3.37013
3.17441
3.41479
4.30554
3.88208
3.9773
3.66374
3.4636
3.21411
3.02544
2.91413
2.96229
3.12723
3.29293
3.10741
3.26766
2.71547
2.25928
2.15956
2.20152
1.41968
1.23771
4.56811
4.15225
4.0299
3.82011
3.5799
3.24033
2.93231
2.74435
2.70011
2.7726
2.92978
2.76149
2.37773
1.77747
1.48358
1.0394
0.556136
0.448753
0.471251
4.41814
3.92316
3.79475
3.35646
3.04784
2.7485
2.55345
2.44993
2.4011
2.33801
2.29266
2.18137
1.82572
1.41588
1.17419
1.01602
1.02206
0.418574
0.200434
4.53102
4.12576
3.93558
3.47003
3.09812
2.71805
2.40174
2.12891
1.90563
1.77613
1.67806
1.54985
1.50036
1.33751
1.62768
1.56291
6.38424
1.15451
1.2338
4.67625
4.28092
4.03635
3.54381
3.14423
2.75556
2.44167
2.19611
2.02199
2.0098
1.9695
1.82357
1.72825
1.71913
1.9911
2.39185
2.59194
1.01824
1.14611
4.93683
4.5849
4.31464
3.7841
3.3536
2.93508
2.60549
2.36442
2.21939
2.32303
2.48052
2.328
2.15836
2.19765
2.58505
7.11186
2.20781
1.04242
1.25691
5.20986
4.82731
4.47635
3.91115
3.47138
3.07172
2.77815
2.58366
2.48606
2.50824
2.56163
2.68375
2.72387
2.78337
3.42111
5.64807
2.05016
1.02611
1.18786
5.48588
5.30351
4.95913
4.41147
3.93424
3.49166
3.15165
2.90046
2.72973
2.64486
2.59816
2.74588
2.84219
2.95083
6.73145
4.47241
1.9068
0.99952
1.11795
5.71072
5.17349
4.80765
4.24714
3.77624
3.35996
3.05197
2.83662
2.69921
2.61957
2.58215
2.75377
2.83133
3.69934
3.96168
4.00657
1.83871
0.947815
1.08437
0.319724
0.344388
0.552076
0.557259
0.527618
0.49871
0.439068
0.46249
0.954788
1.05521
1.20327
0.309887
0.0587976
0.00686865
0.000755711
4.54127e-05
1.46e-06
0.000328539
0.00388291
0.217145
0.328425
0.360692
0.584076
0.529943
0.518663
0.449314
0.394933
0.323164
0.331588
0.256359
0.186786
0.0299537
0.0228389
0.00108326
0.000175908
0.000219085
0.000357383
0.000366833
0.00951528
0.194035
0.340542
0.364409
0.565025
0.528519
0.475599
0.431612
0.409887
0.356645
0.37268
0.289276
0.164877
0.0850573
0.0368806
0.0133327
0.00513974
0.00196461
0.00115631
0.000572119
0.0149958
0.181994
0.349842
0.37422
0.610896
0.560063
0.504725
0.446804
0.4272
0.360054
0.34128
0.26525
0.174068
0.0660244
0.0316264
0.00955391
0.00438621
0.00188611
0.00108053
0.000414784
0.014158
0.162665
0.360201
0.354018
0.623307
0.572448
0.490413
0.462724
0.410701
0.375337
0.316788
0.23211
0.104981
0.0533026
0.0204094
0.00784929
0.0040509
0.00173864
0.00101461
0.000423152
0.0169361
0.142391
0.371072
0.342423
0.657804
0.630803
0.563046
0.485694
0.461163
0.40922
0.326694
0.182897
0.0922881
0.0361972
0.0142738
0.00638661
0.0033556
0.00161679
0.000950539
0.000292483
0.0106182
0.12211
0.38359
0.310941
0.726107
0.704747
0.603312
0.572823
0.541342
0.400144
0.229682
0.103625
0.040511
0.0183467
0.0105652
0.00510685
0.00282897
0.001556
0.000934707
0.000253494
0.00822044
0.10263
0.397184
0.261339
0.700512
0.741685
0.905866
1.02203
0.817976
0.375646
0.134989
0.0520563
0.0240022
0.0135867
0.00779214
0.00418237
0.00229259
0.00130576
0.000822525
0.000214053
0.00593185
0.0843196
0.409714
0.210738
0.826597
1.1529
0.824442
0.315911
0.13959
0.0644347
0.0325787
0.0189959
0.0119462
0.00829318
0.00557617
0.0033777
0.00199068
0.00111105
0.000714635
0.000193769
0.00433121
0.0675449
0.417635
0.149987
0.770273
0.7381
1.04819
0.385257
0.0735094
0.0240532
0.0150034
0.0117125
0.0104442
0.00721707
0.00446788
0.00258537
0.00156417
0.000892408
0.000589066
0.000171735
0.00318188
0.0527958
0.418884
0.107713
0.188886
0.0919008
0.0586131
0.0197885
0.0130772
0.0128147
0.011676
0.00941434
0.00714859
0.00504755
0.00303612
0.00182871
0.00112065
0.000635302
0.000429018
0.000143588
0.00240864
0.040807
0.41505
0.0992456
0.0591139
0.0435768
0.0177462
0.0205952
0.0217507
0.0163361
0.0116943
0.00783487
0.00498396
0.00313133
0.00204604
0.00127771
0.000774093
0.000444823
0.000313505
0.000105288
0.00195146
0.0320057
0.409581
0.0894712
0.0356077
0.0161369
0.0117054
0.00851498
0.00671039
0.00548414
0.00443113
0.00328803
0.00235364
0.00158121
0.000998801
0.00060523
0.00037963
0.000221902
0.000155513
5.59054e-05
0.00174534
0.0261773
0.403094
0.0847569
0.0301954
0.0188153
0.0149642
0.014663
0.0446551
0.0121131
0.00581588
0.00165842
0.000705062
0.000342192
0.000187307
0.000110591
6.94848e-05
4.14921e-05
3.67143e-05
2.34674e-05
0.00139191
0.0226406
0.391812
0.0723772
0.0182101
0.00385152
0.00187387
0.000736315
0.000531086
0.000261936
7.0409e-05
2.85235e-05
1.73252e-05
1.01856e-05
6.42329e-06
4.50605e-06
3.39335e-06
3.15088e-06
3.47837e-06
1.01069e-05
0.00122566
0.0251328
0.371427
0.043604
0.010166
0.00031302
0.000556288
4.71151e-05
5.39403e-06
6.48807e-07
2.60298e-07
1.48374e-07
4.34915e-08
1.93878e-08
7.7788e-09
3.41004e-09
1.88388e-09
2.42736e-09
1.46769e-09
6.95884e-06
0.00113792
0.0277458
0.34143
0.0186476
3.07996e-06
2.95567e-07
2.07795e-09
3.56042e-11
9.04778e-12
2.88023e-12
1.35129e-12
8.84803e-13
6.89348e-13
5.72448e-13
4.8806e-13
4.31849e-13
3.86649e-13
3.92444e-13
7.48897e-13
2.42959e-06
0.000362297
0.0278297
0.305313
0.000521773
2.64662e-11
8.01597e-12
7.7632e-12
6.88282e-12
6.43622e-12
5.90358e-12
5.44188e-12
4.97431e-12
4.52621e-12
4.08873e-12
3.67897e-12
3.30512e-12
2.94857e-12
2.42995e-12
2.81612e-11
1.26972e-06
0.00167901
0.0372811
0.277736
5.96594e-06
3.61833e-10
3.35477e-10
3.26416e-10
3.13498e-10
3.03222e-10
2.92972e-10
2.82744e-10
2.7232e-10
2.61747e-10
2.51297e-10
2.41041e-10
2.30135e-10
2.1773e-10
2.08291e-10
2.34952e-08
0.000134115
0.00446372
0.166753
0.261904
6.15778e-08
5.68945e-08
5.6826e-08
5.68465e-08
5.68337e-08
5.68407e-08
5.68543e-08
5.68528e-08
5.68486e-08
5.68436e-08
5.6853e-08
5.68698e-08
5.68514e-08
5.68448e-08
5.68545e-08
5.68607e-08
5.75967e-08
3.95141e-07
0.378625
0.261905
6.15796e-08
5.6895e-08
5.68244e-08
5.68547e-08
5.68453e-08
5.68444e-08
5.68425e-08
5.68413e-08
5.68362e-08
5.68514e-08
5.68651e-08
5.68516e-08
5.68455e-08
5.68444e-08
5.68514e-08
5.68592e-08
5.75969e-08
3.95139e-07
0.378635
0.277731
6.23671e-06
3.61995e-10
3.35643e-10
3.26943e-10
3.14108e-10
3.03651e-10
2.93019e-10
2.82806e-10
2.72341e-10
2.6233e-10
2.51886e-10
2.4099e-10
2.30312e-10
2.17957e-10
2.09436e-10
2.69081e-08
0.000140648
0.00456127
0.16747
0.305299
0.000541556
2.89176e-11
8.01984e-12
7.79784e-12
6.93828e-12
6.48938e-12
5.9439e-12
5.47778e-12
5.00555e-12
4.56332e-12
4.12079e-12
3.69554e-12
3.32039e-12
2.9649e-12
2.43859e-12
2.94802e-11
7.34365e-06
0.00125765
0.0391613
0.341428
0.0184445
3.44961e-06
6.65575e-07
4.63889e-09
6.33675e-11
7.87273e-12
2.63994e-12
1.3297e-12
8.59861e-13
6.88057e-13
5.58939e-13
4.80247e-13
4.12425e-13
3.77013e-13
3.71375e-13
7.01326e-13
4.25169e-06
0.000424794
0.0297529
0.371438
0.0433683
0.00844868
0.00146186
0.000234294
4.64859e-05
7.25782e-06
1.25753e-06
2.59221e-07
7.02637e-08
2.21933e-08
7.76027e-09
3.25e-09
1.66485e-09
1.09059e-09
1.32901e-09
9.63136e-10
8.38852e-06
0.00133623
0.0297611
0.391839
0.0727224
0.0193571
0.0107263
0.0124022
0.00249546
0.00106656
0.000356647
0.000133551
5.70426e-05
2.7761e-05
1.45922e-05
8.14911e-06
5.15927e-06
3.68025e-06
3.1136e-06
3.73e-06
1.10118e-05
0.00146419
0.0271883
0.403158
0.0836843
0.0304429
0.0163822
0.0109295
0.0128985
0.0103775
0.00802691
0.00432142
0.0021503
0.00106714
0.000573027
0.000321184
0.00017071
0.000102041
5.832e-05
4.11666e-05
2.25445e-05
0.00162681
0.0240692
0.409645
0.0896635
0.0352171
0.0242754
0.0230601
0.0203197
0.0219711
0.0204863
0.0174562
0.0120027
0.00701268
0.00364637
0.00191589
0.00104589
0.000618768
0.00033249
0.000218338
5.6041e-05
0.00196207
0.027691
0.415087
0.0988375
0.047385
0.0275576
0.0243847
0.0334876
0.0393308
0.0401603
0.0345653
0.0262512
0.017736
0.0107496
0.00600071
0.00313206
0.00160451
0.000793086
0.000437611
0.000111432
0.00225223
0.0336835
0.418834
0.107724
0.204731
0.11642
0.0696275
0.0322961
0.0267571
0.0313309
0.0319872
0.0274026
0.0200018
0.0134821
0.00799695
0.00437787
0.00241447
0.00118633
0.000722718
0.000163898
0.0027277
0.0426316
0.417548
0.145442
0.604376
0.597467
0.288008
0.133149
0.0706761
0.049172
0.0385549
0.02991
0.0210587
0.0140532
0.00892816
0.00514726
0.00290676
0.00149847
0.000872168
0.000191291
0.00362676
0.054729
0.409685
0.201731
0.745194
1.17144
1.23405
1.50819
0.819275
0.207563
0.0760435
0.0432828
0.0292123
0.0176891
0.0105818
0.0062126
0.00357582
0.00184904
0.00108308
0.000216161
0.00491889
0.0695484
0.397214
0.248431
0.661703
0.729514
1.02127
0.976827
0.641388
0.52915
0.261722
0.120734
0.053512
0.0264645
0.0140202
0.00763857
0.00428707
0.00223046
0.00117618
0.000232539
0.00666066
0.086336
0.383629
0.293333
0.687121
0.687739
0.632412
0.699294
0.767464
0.698496
0.458143
0.226584
0.11501
0.0461462
0.019869
0.00982051
0.00513032
0.00261373
0.00129763
0.000290956
0.00906589
0.104565
0.371076
0.323893
0.627054
0.613159
0.555671
0.515637
0.544677
0.57396
0.602719
0.442119
0.234303
0.084614
0.0336865
0.012637
0.00616991
0.00289281
0.00139013
0.000296238
0.0113555
0.123879
0.360165
0.339922
0.598222
0.558298
0.485113
0.474164
0.463252
0.442642
0.44986
0.412086
0.305852
0.13186
0.0410429
0.0163862
0.00704086
0.00305896
0.00148198
0.000508486
0.0190019
0.14394
0.349794
0.362101
0.589813
0.54075
0.49346
0.441137
0.417501
0.43418
0.428947
0.357126
0.304191
0.115307
0.05656
0.0186384
0.00794311
0.00309454
0.00160064
0.000394466
0.0132839
0.164085
0.340483
0.356651
0.544966
0.50222
0.451728
0.430301
0.397281
0.362647
0.426063
0.383381
0.345822
1.03304
0.257173
0.029139
0.00962247
0.00320411
0.00175385
0.000727911
0.0182871
0.183219
0.328441
0.349371
0.573028
0.506317
0.493285
0.377483
0.370646
0.318852
0.348957
0.271839
0.239036
0.0487905
0.0303653
0.0017362
0.000255788
0.00157026
0.001751
0.000403021
0.00665169
0.194908
0.319738
0.33554
0.529909
0.5168
0.48093
0.41881
0.385422
0.407935
0.80554
0.974103
1.34503
0.3826
0.080566
0.00941822
0.00102114
6.37895e-05
1.73958e-06
0.000377883
0.00387604
0.218128
)
;

boundaryField
{
    outletWall
    {
        type            calculated;
        value           nonuniform List<scalar> 
60
(
5.44008
1.16367
0.943489
1.68232
3.33409
3.0158
3.11937
2.37544
2.37771
2.2193
2.23096
2.19799
2.14691
2.1307
2.1739
2.28338
2.43074
2.65348
2.78409
3.08453
5.71072
5.48588
5.20986
4.93683
4.67625
4.53102
4.41814
4.56811
4.30554
4.03014
3.57148
3.37975
3.28754
3.12234
2.99108
2.92604
2.89817
2.9675
2.96544
3.08453
5.38985
1.08437
0.947815
1.83871
4.00657
3.96168
3.69934
2.83133
2.75377
2.58215
2.61957
2.69921
2.83662
3.05197
3.35996
3.77624
4.24714
4.80765
5.17349
5.71072
)
;
    }
    fineWalls
    {
        type            nutkWallFunction;
        Cmu             0.09;
        kappa           0.41;
        E               9.8;
        value           nonuniform List<scalar> 
60
(
0.263017
0.259454
0.440446
0.278017
0.280972
0.479308
0.285901
0.286956
0.488607
0.297136
0.299063
0.509746
0.311297
0.312906
0.314051
0.535144
0.330133
0.333588
0.570196
0.353978
0.393683
0.227503
0.225658
0.224152
0.388225
0.229018
0.234947
0.242475
0.463106
0.260018
0.260862
0.477259
0.250644
0.241986
0.23382
0.393735
0.225661
0.22692
0.22861
0.395397
0.357185
0.575351
0.336609
0.333062
0.539912
0.316872
0.315675
0.313979
0.514126
0.301656
0.299635
0.492713
0.289393
0.288269
0.483298
0.283332
0.280299
0.444379
0.261785
0.265299
)
;
    }
    fineFrontAndBack
    {
        type            calculated;
        value           nonuniform List<scalar> 
960
(
5.38985
8.92637
5.03671
4.97711
8.30297
4.70175
4.68108
4.65539
7.87275
4.45824
4.4294
7.53517
4.2726
4.26005
7.41615
4.19802
4.15838
6.88651
3.91825
3.98898
0.0945034
0.115135
0.142381
0.169164
0.189842
0.199888
0.187091
0.194944
0.202866
0.197181
0.196024
0.189521
0.185256
0.175706
0.173286
0.162256
0.182132
0.120378
0.492941
0.0802072
6.99036
3.83801
3.76268
3.6824
6.31677
3.19282
3.07056
3.11565
6.37934
3.22695
3.20888
6.1834
3.13614
3.12509
3.2146
6.34519
3.69361
3.76422
3.83766
7.00059
0.0807018
0.434893
0.11733
0.175366
0.152497
0.168355
0.165447
0.179243
0.17955
0.18887
0.187628
0.194947
0.186787
0.180925
0.193746
0.181395
0.166489
0.140006
0.115596
0.094618
4.02452
3.95395
6.94789
4.19299
4.23423
7.47889
4.2964
4.31034
7.60036
4.46781
4.49842
7.94236
4.69659
4.72386
4.74557
8.37913
5.02243
5.08366
9.00895
5.44008
3.08453
2.78409
2.65348
2.43074
2.28338
2.1739
2.1307
2.14691
2.19799
2.23096
2.2193
2.37771
2.37544
3.11937
3.0158
3.33409
1.68232
0.943489
1.16367
2.96544
2.82468
2.67722
2.44297
2.28899
2.16882
2.11424
2.12176
2.18709
2.28664
2.31181
2.40894
2.42806
2.38197
5.63903
3.67512
1.72651
0.981124
1.18486
2.9675
2.7592
2.62588
2.38836
2.23481
2.11052
2.05257
2.06208
2.14277
2.31997
2.38012
2.37444
2.35635
2.35631
3.10319
4.62082
1.81242
0.992175
1.26835
2.89817
2.67916
2.53717
2.28788
2.11875
1.9684
1.87501
1.83927
1.88291
2.16908
2.37827
2.26552
2.11253
2.02851
2.26179
11.9635
1.98741
1.00651
1.32617
2.92604
2.68596
2.54147
2.27869
2.101
1.9327
1.81141
1.71469
1.64167
1.78399
1.75263
1.64064
1.5554
1.58716
1.88202
2.45557
2.23948
0.988991
1.21575
2.99108
2.73366
2.57597
2.29393
2.11328
1.92948
1.79629
1.67895
1.574
1.47556
1.41917
1.31187
1.33763
1.25559
1.40698
1.48767
5.22351
1.10786
1.2978
3.12234
2.86877
2.74407
2.46056
2.25909
2.05392
1.92604
1.8584
1.83139
1.79005
1.77082
1.67989
1.45399
1.22601
1.12677
0.954416
0.989759
0.417275
0.205271
3.28754
3.03839
3.02492
2.75961
2.6575
2.43312
2.24091
2.12242
2.10611
2.17077
2.25504
2.15284
1.84742
1.50723
1.34542
0.900447
0.54306
0.446438
0.474671
3.37975
3.07709
3.08446
2.87624
2.78905
2.58935
2.42121
2.32393
2.36145
2.45925
2.48976
2.45028
2.45255
2.12186
1.8313
1.7694
1.69125
1.17801
1.09746
3.57148
3.22437
3.26971
3.00935
2.9138
2.75633
2.64976
2.56007
2.50067
2.43178
2.32235
2.92215
3.38773
3.17942
2.90261
3.24636
2.93066
2.79526
3.09935
4.03014
3.65317
3.74454
3.48217
3.38525
3.20562
3.08918
3.07493
3.07274
3.07336
2.82801
3.49582
4.15528
3.83399
3.46189
3.81739
3.37013
3.17441
3.41479
4.30554
3.88208
3.9773
3.66374
3.4636
3.21411
3.02544
2.91413
2.96229
3.12723
3.29293
3.10741
3.26766
2.71547
2.25928
2.15956
2.20152
1.41968
1.23771
4.56811
4.15225
4.0299
3.82011
3.5799
3.24033
2.93231
2.74435
2.70011
2.7726
2.92978
2.76149
2.37773
1.77747
1.48358
1.0394
0.556136
0.448753
0.471251
4.41814
3.92316
3.79475
3.35646
3.04784
2.7485
2.55345
2.44993
2.4011
2.33801
2.29266
2.18137
1.82572
1.41588
1.17419
1.01602
1.02206
0.418574
0.200434
4.53102
4.12576
3.93558
3.47003
3.09812
2.71805
2.40174
2.12891
1.90563
1.77613
1.67806
1.54985
1.50036
1.33751
1.62768
1.56291
6.38424
1.15451
1.2338
4.67625
4.28092
4.03635
3.54381
3.14423
2.75556
2.44167
2.19611
2.02199
2.0098
1.9695
1.82357
1.72825
1.71913
1.9911
2.39185
2.59194
1.01824
1.14611
4.93683
4.5849
4.31464
3.7841
3.3536
2.93508
2.60549
2.36442
2.21939
2.32303
2.48052
2.328
2.15836
2.19765
2.58505
7.11186
2.20781
1.04242
1.25691
5.20986
4.82731
4.47635
3.91115
3.47138
3.07172
2.77815
2.58366
2.48606
2.50824
2.56163
2.68375
2.72387
2.78337
3.42111
5.64807
2.05016
1.02611
1.18786
5.48588
5.30351
4.95913
4.41147
3.93424
3.49166
3.15165
2.90046
2.72973
2.64486
2.59816
2.74588
2.84219
2.95083
6.73145
4.47241
1.9068
0.99952
1.11795
5.71072
5.17349
4.80765
4.24714
3.77624
3.35996
3.05197
2.83662
2.69921
2.61957
2.58215
2.75377
2.83133
3.69934
3.96168
4.00657
1.83871
0.947815
1.08437
5.38985
8.92637
5.03671
4.97711
8.30297
4.70175
4.68108
4.65539
7.87275
4.45824
4.4294
7.53517
4.2726
4.26005
7.41615
4.19802
4.15838
6.88651
3.91825
3.98898
0.0945034
0.115135
0.142381
0.169164
0.189842
0.199888
0.187091
0.194944
0.202866
0.197181
0.196024
0.189521
0.185256
0.175706
0.173286
0.162256
0.182132
0.120378
0.492941
0.0802072
6.99036
3.83801
3.76268
3.6824
6.31677
3.19282
3.07056
3.11565
6.37934
3.22695
3.20888
6.1834
3.13614
3.12509
3.2146
6.34519
3.69361
3.76422
3.83766
7.00059
0.0807018
0.434893
0.11733
0.175366
0.152497
0.168355
0.165447
0.179243
0.17955
0.18887
0.187628
0.194947
0.186787
0.180925
0.193746
0.181395
0.166489
0.140006
0.115596
0.094618
4.02452
3.95395
6.94789
4.19299
4.23423
7.47889
4.2964
4.31034
7.60036
4.46781
4.49842
7.94236
4.69659
4.72386
4.74557
8.37913
5.02243
5.08366
9.00895
5.44008
3.08453
2.78409
2.65348
2.43074
2.28338
2.1739
2.1307
2.14691
2.19799
2.23096
2.2193
2.37771
2.37544
3.11937
3.0158
3.33409
1.68232
0.943489
1.16367
2.96544
2.82468
2.67722
2.44297
2.28899
2.16882
2.11424
2.12176
2.18709
2.28664
2.31181
2.40894
2.42806
2.38197
5.63903
3.67512
1.72651
0.981124
1.18486
2.9675
2.7592
2.62588
2.38836
2.23481
2.11052
2.05257
2.06208
2.14277
2.31997
2.38012
2.37444
2.35635
2.35631
3.10319
4.62082
1.81242
0.992175
1.26835
2.89817
2.67916
2.53717
2.28788
2.11875
1.9684
1.87501
1.83927
1.88291
2.16908
2.37827
2.26552
2.11253
2.02851
2.26179
11.9635
1.98741
1.00651
1.32617
2.92604
2.68596
2.54147
2.27869
2.101
1.9327
1.81141
1.71469
1.64167
1.78399
1.75263
1.64064
1.5554
1.58716
1.88202
2.45557
2.23948
0.988991
1.21575
2.99108
2.73366
2.57597
2.29393
2.11328
1.92948
1.79629
1.67895
1.574
1.47556
1.41917
1.31187
1.33763
1.25559
1.40698
1.48767
5.22351
1.10786
1.2978
3.12234
2.86877
2.74407
2.46056
2.25909
2.05392
1.92604
1.8584
1.83139
1.79005
1.77082
1.67989
1.45399
1.22601
1.12677
0.954416
0.989759
0.417275
0.205271
3.28754
3.03839
3.02492
2.75961
2.6575
2.43312
2.24091
2.12242
2.10611
2.17077
2.25504
2.15284
1.84742
1.50723
1.34542
0.900447
0.54306
0.446438
0.474671
3.37975
3.07709
3.08446
2.87624
2.78905
2.58935
2.42121
2.32393
2.36145
2.45925
2.48976
2.45028
2.45255
2.12186
1.8313
1.7694
1.69125
1.17801
1.09746
3.57148
3.22437
3.26971
3.00935
2.9138
2.75633
2.64976
2.56007
2.50067
2.43178
2.32235
2.92215
3.38773
3.17942
2.90261
3.24636
2.93066
2.79526
3.09935
4.03014
3.65317
3.74454
3.48217
3.38525
3.20562
3.08918
3.07493
3.07274
3.07336
2.82801
3.49582
4.15528
3.83399
3.46189
3.81739
3.37013
3.17441
3.41479
4.30554
3.88208
3.9773
3.66374
3.4636
3.21411
3.02544
2.91413
2.96229
3.12723
3.29293
3.10741
3.26766
2.71547
2.25928
2.15956
2.20152
1.41968
1.23771
4.56811
4.15225
4.0299
3.82011
3.5799
3.24033
2.93231
2.74435
2.70011
2.7726
2.92978
2.76149
2.37773
1.77747
1.48358
1.0394
0.556136
0.448753
0.471251
4.41814
3.92316
3.79475
3.35646
3.04784
2.7485
2.55345
2.44993
2.4011
2.33801
2.29266
2.18137
1.82572
1.41588
1.17419
1.01602
1.02206
0.418574
0.200434
4.53102
4.12576
3.93558
3.47003
3.09812
2.71805
2.40174
2.12891
1.90563
1.77613
1.67806
1.54985
1.50036
1.33751
1.62768
1.56291
6.38424
1.15451
1.2338
4.67625
4.28092
4.03635
3.54381
3.14423
2.75556
2.44167
2.19611
2.02199
2.0098
1.9695
1.82357
1.72825
1.71913
1.9911
2.39185
2.59194
1.01824
1.14611
4.93683
4.5849
4.31464
3.7841
3.3536
2.93508
2.60549
2.36442
2.21939
2.32303
2.48052
2.328
2.15836
2.19765
2.58505
7.11186
2.20781
1.04242
1.25691
5.20986
4.82731
4.47635
3.91115
3.47138
3.07172
2.77815
2.58366
2.48606
2.50824
2.56163
2.68375
2.72387
2.78337
3.42111
5.64807
2.05016
1.02611
1.18786
5.48588
5.30351
4.95913
4.41147
3.93424
3.49166
3.15165
2.90046
2.72973
2.64486
2.59816
2.74588
2.84219
2.95083
6.73145
4.47241
1.9068
0.99952
1.11795
5.71072
5.17349
4.80765
4.24714
3.77624
3.35996
3.05197
2.83662
2.69921
2.61957
2.58215
2.75377
2.83133
3.69934
3.96168
4.00657
1.83871
0.947815
1.08437
)
;
    }
    fineplugLeft
    {
        type            cyclicAMI;
        value           nonuniform List<scalar> 
20
(
0.189757
0.101695
0.0243385
0.0364276
0.0324876
0.0352618
0.0406362
0.0840893
0.285814
1.00182
0.883605
0.804403
0.408981
0.410416
0.438946
0.460063
0.47964
0.470137
0.298538
0.27468
)
;
    }
    fineplugRight
    {
        type            cyclicAMI;
        value           nonuniform List<scalar> 
20
(
0.190643
0.0900794
0.0237682
0.0350746
0.0305504
0.034488
0.0406241
0.100302
0.34199
1.1138
0.816808
0.683421
0.363705
0.362169
0.373798
0.421023
0.446738
0.451928
0.291551
0.274714
)
;
    }
    inletOutletLeft
    {
        type            cyclicAMI;
        value           nonuniform List<scalar> 
20
(
0.189757
0.101695
0.0243385
0.0364276
0.0324876
0.0352618
0.0406362
0.0840893
0.285814
1.00182
0.883605
0.804403
0.408981
0.410416
0.438946
0.460063
0.47964
0.470137
0.298538
0.27468
)
;
    }
    inletLeft
    {
        type            calculated;
        value           uniform 5.26945e-05;
    }
    inletWallsLeft
    {
        type            nutkWallFunction;
        Cmu             0.09;
        kappa           0.41;
        E               9.8;
        value           nonuniform List<scalar> 
40
(
0.0206749
0.0218365
0.0238826
0.0264258
0.028466
0.0298414
0.0306736
0.0312626
0.0317429
0.0319785
0.0317689
0.0311157
0.0302122
0.029277
0.0284187
0.0276526
0.0269132
0.0262398
0.0253731
0.0247369
0.0195862
0.0177554
0.016034
0.0143447
0.0127402
0.0111401
0.00957923
0.00807697
0.00666291
0.00537047
0.00425435
0.00336529
0.00271073
0.00225428
0.00203302
0.00229377
0.00222871
0.00314113
0.010504
0.0226895
)
;
    }
    inletFacesLeft
    {
        type            calculated;
        value           nonuniform List<scalar> 
800
(
0.319724
0.344388
0.552076
0.557259
0.527618
0.49871
0.439068
0.46249
0.954788
3.98248e+11
1.16095e+11
2.49836e+10
3.87325e+09
3.93054e+08
3.66522e+07
1.94791e+06
50203.1
0.000328539
0.00388291
0.217145
0.328425
0.360692
0.584076
0.529943
0.518663
0.449314
0.394933
0.323164
0.331588
0.256359
0.186786
0.0299537
0.0228389
0.00108326
0.000175908
0.000219085
0.000357383
0.000366833
0.00951528
0.194035
0.340542
0.364409
0.565025
0.528519
0.475599
0.431612
0.409887
0.356645
0.37268
0.289276
0.164877
0.0850573
0.0368806
0.0133327
0.00513974
0.00196461
0.00115631
0.000572119
0.0149958
0.181994
0.349842
0.37422
0.610896
0.560063
0.504725
0.446804
0.4272
0.360054
0.34128
0.26525
0.174068
0.0660244
0.0316264
0.00955391
0.00438621
0.00188611
0.00108053
0.000414784
0.014158
0.162665
0.360201
0.354018
0.623307
0.572448
0.490413
0.462724
0.410701
0.375337
0.316788
0.23211
0.104981
0.0533026
0.0204094
0.00784929
0.0040509
0.00173864
0.00101461
0.000423152
0.0169361
0.142391
0.371072
0.342423
0.657804
0.630803
0.563046
0.485694
0.461163
0.40922
0.326694
0.182897
0.0922881
0.0361972
0.0142738
0.00638661
0.0033556
0.00161679
0.000950539
0.000292483
0.0106182
0.12211
0.38359
0.310941
0.726107
0.704747
0.603312
0.572823
0.541342
0.400144
0.229682
0.103625
0.040511
0.0183467
0.0105652
0.00510685
0.00282897
0.001556
0.000934707
0.000253494
0.00822044
0.10263
0.397184
0.261339
0.700512
0.741685
0.905866
1.02203
0.817976
0.375646
0.134989
0.0520563
0.0240022
0.0135867
0.00779214
0.00418237
0.00229259
0.00130576
0.000822525
0.000214053
0.00593185
0.0843196
0.409714
0.210738
0.826597
1.1529
0.824442
0.315911
0.13959
0.0644347
0.0325787
0.0189959
0.0119462
0.00829318
0.00557617
0.0033777
0.00199068
0.00111105
0.000714635
0.000193769
0.00433121
0.0675449
0.417635
0.149987
0.770273
0.7381
1.04819
2.07837e+11
0.0735094
0.0240532
0.0150034
0.0117125
0.0104442
0.00721707
0.00446788
0.00258537
0.00156417
0.000892408
0.000589066
0.000171735
0.00318188
0.0527958
0.418884
0.107713
0.188886
0.0919008
0.0586131
0.0197885
0.0130772
0.0128147
0.011676
0.00941434
0.00714859
0.00504755
0.00303612
0.00182871
0.00112065
0.000635302
0.000429018
0.000143588
0.00240864
0.040807
0.41505
0.0992456
0.0591139
0.0435768
0.0177462
0.0205952
0.0217507
0.0163361
0.0116943
0.00783487
0.00498396
0.00313133
0.00204604
0.00127771
0.000774093
0.000444823
0.000313505
0.000105288
0.00195146
0.0320057
0.409581
0.0894712
0.0356077
0.0161369
0.0117054
0.00851498
0.00671039
0.00548414
0.00443113
0.00328803
0.00235364
0.00158121
0.000998801
0.00060523
0.00037963
0.000221902
0.000155513
5.59054e-05
0.00174534
0.0261773
0.403094
0.0847569
0.0301954
0.0188153
0.0149642
0.014663
0.0446551
9.28672e+06
0.00581588
0.00165842
0.000705062
0.000342192
0.000187307
0.000110591
6.94848e-05
4.14921e-05
3.67143e-05
2.34674e-05
0.00139191
0.0226406
0.391812
0.0723772
0.0182101
0.00385152
0.00187387
0.000736315
0.000531086
0.000261936
7.0409e-05
2.85235e-05
1.73252e-05
1.01856e-05
6.42329e-06
4.50605e-06
3.39335e-06
3.15088e-06
3.47837e-06
1.01069e-05
0.00122566
0.0251328
0.371427
0.043604
0.010166
5.30488e+07
0.000556288
30305.4
5.39403e-06
6.48807e-07
2.60298e-07
1.48374e-07
4.34915e-08
1.93878e-08
7.7788e-09
3.41004e-09
1.88388e-09
2.42736e-09
1.46769e-09
6.95884e-06
0.00113792
0.0277458
0.34143
0.0186476
8.06261e+06
2.95567e-07
2.07795e-09
3.56042e-11
9.04778e-12
2.88023e-12
1.35129e-12
8.84803e-13
6.89348e-13
5.72448e-13
4.8806e-13
4.31849e-13
3.86649e-13
3.92444e-13
7.48897e-13
2.42959e-06
0.000362297
0.0278297
0.305313
0.000521773
2.64662e-11
8.01597e-12
7.7632e-12
6.88282e-12
6.43622e-12
5.90358e-12
5.44188e-12
4.97431e-12
4.52621e-12
4.08873e-12
3.67897e-12
3.30512e-12
2.94857e-12
2.42995e-12
2.81612e-11
1.26972e-06
0.00167901
0.0372811
0.277736
5.96594e-06
3.61833e-10
3.35477e-10
3.26416e-10
3.13498e-10
3.03222e-10
2.92972e-10
2.82744e-10
2.7232e-10
2.61747e-10
2.51297e-10
2.41041e-10
2.30135e-10
2.1773e-10
2.08291e-10
2.34952e-08
0.000134115
0.00446372
0.166753
0.261904
6.15778e-08
5.68945e-08
5.6826e-08
5.68465e-08
5.68337e-08
5.68407e-08
5.68543e-08
5.68528e-08
5.68486e-08
5.68436e-08
5.6853e-08
5.68698e-08
5.68514e-08
5.68448e-08
5.68545e-08
5.68607e-08
5.75967e-08
3.95141e-07
0.378625
0.319724
0.344388
0.552076
0.557259
0.527618
0.49871
0.439068
0.46249
0.954788
3.98248e+11
1.16095e+11
2.49836e+10
3.87325e+09
3.93054e+08
3.66522e+07
1.94791e+06
50203.1
0.000328539
0.00388291
0.217145
0.328425
0.360692
0.584076
0.529943
0.518663
0.449314
0.394933
0.323164
0.331588
0.256359
0.186786
0.0299537
0.0228389
0.00108326
0.000175908
0.000219085
0.000357383
0.000366833
0.00951528
0.194035
0.340542
0.364409
0.565025
0.528519
0.475599
0.431612
0.409887
0.356645
0.37268
0.289276
0.164877
0.0850573
0.0368806
0.0133327
0.00513974
0.00196461
0.00115631
0.000572119
0.0149958
0.181994
0.349842
0.37422
0.610896
0.560063
0.504725
0.446804
0.4272
0.360054
0.34128
0.26525
0.174068
0.0660244
0.0316264
0.00955391
0.00438621
0.00188611
0.00108053
0.000414784
0.014158
0.162665
0.360201
0.354018
0.623307
0.572448
0.490413
0.462724
0.410701
0.375337
0.316788
0.23211
0.104981
0.0533026
0.0204094
0.00784929
0.0040509
0.00173864
0.00101461
0.000423152
0.0169361
0.142391
0.371072
0.342423
0.657804
0.630803
0.563046
0.485694
0.461163
0.40922
0.326694
0.182897
0.0922881
0.0361972
0.0142738
0.00638661
0.0033556
0.00161679
0.000950539
0.000292483
0.0106182
0.12211
0.38359
0.310941
0.726107
0.704747
0.603312
0.572823
0.541342
0.400144
0.229682
0.103625
0.040511
0.0183467
0.0105652
0.00510685
0.00282897
0.001556
0.000934707
0.000253494
0.00822044
0.10263
0.397184
0.261339
0.700512
0.741685
0.905866
1.02203
0.817976
0.375646
0.134989
0.0520563
0.0240022
0.0135867
0.00779214
0.00418237
0.00229259
0.00130576
0.000822525
0.000214053
0.00593185
0.0843196
0.409714
0.210738
0.826597
1.1529
0.824442
0.315911
0.13959
0.0644347
0.0325787
0.0189959
0.0119462
0.00829318
0.00557617
0.0033777
0.00199068
0.00111105
0.000714635
0.000193769
0.00433121
0.0675449
0.417635
0.149987
0.770273
0.7381
1.04819
2.07837e+11
0.0735094