/*--------------------------------*- C++ -*----------------------------------*\
| =========                 |                                                 |
| \\      /  F ield         | OpenFOAM: The Open Source CFD Toolbox           |
|  \\    /   O peration     | Version:  4.1                                   |
|   \\  /    A nd           | Web:      www.OpenFOAM.org                      |
|    \\/     M anipulation  |                                                 |
\*---------------------------------------------------------------------------*/
FoamFile
{
    version     2.0;
    format      ascii;
    class       volScalarField;
    location    "2";
    object      p;
}
// * * * * * * * * * * * * * * * * * * * * * * * * * * * * * * * * * * * * * //

dimensions      [0 2 -2 0 0 0 0];

internalField   nonuniform List<scalar> 
1280
(
-0.377984
1.75619
1.74049
1.04868
4.078
3.58378
2.99852
4.01441
6.08583
6.37894
5.33018
8.40875
8.63361
7.28918
10.5082
11.1427
10.2231
11.3777
15.7321
8.24791
18.7738
28.2583
33.0486
35.7925
39.8887
45.8211
42.7016
47.5831
46.1555
46.5089
46.9438
46.5866
46.8643
46.2791
46.3341
45.5297
44.7972
44.9503
41.3779
43.0235
23.5245
26.4918
27.3312
27.2647
26.0441
27.2294
26.8753
26.9629
26.562
26.8308
26.8367
26.6156
26.9894
26.9
27.2596
26.048
27.2708
27.354
26.5176
23.4632
43.2278
41.6437
45.2284
45.1147
45.8644
46.6861
46.656
47.2672
47.0147
47.4019
47.0003
46.6826
48.0942
43.5256
46.1489
40.2246
36.1127
33.3727
28.5666
19.0635
8.55075
15.9929
11.6129
10.4464
11.3498
10.7025
7.46956
8.79547
8.55584
5.46482
6.49617
6.18591
4.11001
3.0791
3.65188
4.13719
1.09527
1.77307
1.78258
-0.364542
0.0095294
0.0327923
0.0509418
0.0753295
0.102254
0.13668
0.181313
0.242362
0.32256
0.412168
0.474869
0.409667
-0.403614
-1.96914
-4.89878
-4.001
-1.0455
1.2649
2.3003
0.0244369
0.0859446
0.133591
0.195439
0.261412
0.343651
0.448041
0.589374
0.772146
0.973654
1.1494
1.19645
-0.37591
-4.63694
-5.80169
-5.66092
-1.91449
2.27002
3.59794
0.0394075
0.143015
0.224419
0.32881
0.439982
0.57773
0.752244
0.988971
1.29498
1.62342
1.88935
1.96937
-0.0926187
-5.84713
-4.97161
-7.49369
-2.28067
3.31342
4.55992
0.0501347
0.19145
0.300957
0.441234
0.588866
0.769444
0.995741
1.3008
1.68731
2.06321
2.26424
2.22153
0.290617
-4.59981
-5.59673
-7.98006
-2.8975
4.69992
6.24362
0.0588346
0.237341
0.372261
0.545844
0.726304
0.943817
1.21237
1.57007
2.00438
2.32683
2.16591
1.48814
-0.723341
-3.46429
-5.50218
-7.24354
-4.96194
6.16076
7.12512
0.0647758
0.278102
0.43349
0.635192
0.841562
1.08517
1.37905
1.7664
2.21902
2.3921
1.53935
0.0284785
-2.31902
-2.66995
-3.6934
-8.66983
-4.01727
8.757
10.27
0.0686352
0.314517
0.485914
0.711041
0.937287
1.19731
1.49794
1.86824
2.2565
2.18321
0.710931
-0.65484
-1.43175
0.489008
-0.705236
-12.3439
-5.88252
8.77728
10.2866
0.0703195
0.344927
0.527529
0.770681
1.01058
1.27791
1.56957
1.92182
2.31428
2.12729
0.658629
-0.241768
0.781189
3.97258
4.07667
-4.85202
1.25922
17.1271
10.8182
0.0708493
0.368519
0.558306
0.814091
1.0612
1.32532
1.59742
1.94285
2.32406
2.0932
0.916896
0.387311
2.58608
5.92188
6.06451
1.9662
14.3994
31.8161
20.7808
0.0700547
0.380895
0.573515
0.835344
1.08644
1.35249
1.62334
1.97833
2.38062
2.20856
1.19165
0.946364
3.59882
6.51344
6.28685
4.06792
17.8759
32.6822
24.8307
0.0698964
0.380482
0.573345
0.835127
1.08563
1.35029
1.61814
1.96769
2.36283
2.17139
1.15252
0.926299
3.65164
6.56426
6.28711
3.89369
17.7018
32.6506
24.7719
0.0719903
0.370144
0.561246
0.8175
1.06377
1.32495
1.59069
1.92752
2.30748
2.07265
0.842687
0.203032
2.41903
5.90426
6.23844
2.02258
14.3888
31.865
20.8692
0.0733631
0.349898
0.535349
0.779909
1.01974
1.28504
1.57128
1.91451
2.2987
2.10028
0.53456
-0.516369
0.498556
3.99014
4.66147
-4.45037
1.15166
16.939
10.9235
0.073146
0.322164
0.497583
0.724864
0.951442
1.20941
1.50424
1.86551
2.24582
2.1673
0.603405
-0.916499
-1.73467
0.471261
0.0495987
-12.2367
-6.15569
8.38748
10.4839
0.0703964
0.287893
0.44818
0.652687
0.859956
1.1021
1.39154
1.77192
2.21567
2.37809
1.46186
-0.188223
-2.60522
-2.71058
-2.97649
-8.66201
-4.35264
8.4655
10.3481
0.0649525
0.248334
0.388498
0.565188
0.746938
0.963623
1.22889
1.58108
2.00795
2.31976
2.11415
1.3403
-0.890473
-3.3125
-4.74725
-6.70321
-5.37228
5.94118
7.16881
0.0556663
0.202
0.316376
0.459798
0.60885
0.789026
1.01286
1.31349
1.69328
2.05754
2.22661
2.1382
0.276965
-4.27807
-5.27752
-7.33915
-3.17826
4.52104
6.2675
0.0439035
0.152181
0.237579
0.344844
0.457516
0.595241
0.768151
1.00174
1.30244
1.62104
1.86699
1.93449
-0.0217314
-5.52532
-4.56228
-7.2841
-2.40022
3.18401
4.57339
0.0261909
0.0906058
0.140662
0.204402
0.271607
0.354036
0.457597
0.597127
0.776648
0.972023
1.13702
1.18373
-0.334965
-4.59933
-5.28301
-5.51706
-2.01153
2.16944
3.59907
0.00944694
0.0337342
0.0529267
0.0781635
0.105884
0.140872
0.185709
0.246585
0.325861
0.413144
0.473127
0.414507
-0.378193
-2.02553
-4.58908
-3.87739
-1.08839
1.20855
2.30202
126.851
125.831
124.827
123.178
122.096
119.953
118.679
116.994
115.845
114.118
113.25
111.747
111.295
110.07
110.052
108.89
109.195
108.107
108.564
107.433
107.757
108.597
108.621
108.701
109.186
108.967
109.397
109.027
109.241
108.816
108.886
108.361
108.44
107.774
107.973
107.198
107.54
106.731
107.151
106.299
114.298
114.527
114.321
113.912
114.141
113.72
113.893
113.534
113.593
113.238
113.276
112.862
112.974
112.462
112.69
112.074
112.398
111.736
112.076
111.369
111.855
112.387
112.219
111.995
112.376
112.154
112.459
112.278
112.451
112.278
112.414
112.201
112.391
112.089
112.369
111.977
112.321
111.902
112.221
111.832
113.232
113.765
113.49
113.197
113.544
113.343
113.554
113.403
113.481
113.339
113.403
113.235
113.355
113.123
113.321
113.025
113.274
112.966
113.185
112.919
112.64
113.348
113.022
112.781
113.199
113.101
113.317
113.242
113.311
113.241
113.296
113.208
113.303
113.171
113.318
113.145
113.323
113.149
113.298
113.154
111.996
112.837
112.492
112.269
112.798
112.782
113.025
113.006
113.084
113.07
113.126
113.098
113.174
113.119
113.222
113.145
113.26
113.188
113.279
113.223
110.504
111.407
111.144
110.923
111.626
111.63
111.965
111.998
112.138
112.197
112.291
112.339
112.431
112.459
112.554
112.568
112.656
112.672
112.733
112.753
109.574
110.387
110.264
109.958
110.807
110.572
110.97
110.95
111.13
111.226
111.343
111.441
111.548
111.632
111.729
111.803
111.882
111.95
111.998
112.051
109.548
110.348
110.462
110.063
110.898
110.396
110.777
110.609
110.738
110.81
110.897
110.989
111.082
111.179
111.272
111.372
111.45
111.548
111.595
111.668
107.577
108.623
109.071
108.671
109.632
109.217
109.625
109.628
109.759
109.878
109.998
110.139
110.282
110.439
110.59
110.764
110.903
111.088
111.18
111.355
100.879
102.399
103.31
103.01
104.201
104.105
104.662
104.977
105.328
105.701
106.061
106.435
106.808
107.194
107.565
107.963
108.301
108.721
108.948
109.401
88.8587
90.7897
92.2775
91.9214
93.5715
93.7447
94.619
95.2707
95.9438
96.6493
97.347
98.0588
98.7724
99.4989
100.205
100.945
101.592
102.368
102.819
103.716
72.8474
74.5902
76.9442
76.0751
78.4491
78.4808
79.7622
80.5688
81.5009
82.4535
83.4087
84.3874
85.3724
86.375
87.3539
88.3729
89.2743
90.3428
91.0042
92.2314
55.0197
55.6522
58.8299
57.1973
60.4684
60.042
61.9091
62.7488
63.9992
65.1941
66.4246
67.684
68.9467
70.2223
71.4571
72.7078
73.8092
75.0394
75.7957
77.0869
40.3733
39.0936
42.2798
39.3165
42.8742
41.5394
43.5257
44.0228
45.3769
46.6347
48.1065
49.7001
51.4016
53.2179
55.0669
57.001
58.7978
60.6267
61.7265
63.4899
42.1813
39.1682
41.9449
36.2352
37.7748
34.145
33.6017
31.6648
30.6572
29.5938
28.925
28.5068
28.373
28.5177
28.8302
29.593
30.7565
32.7844
34.6814
37.4031
31.276
24.8869
32.8165
25.8354
27.7001
24.2553
22.8872
20.2586
17.9569
15.3865
12.8838
10.3599
7.86941
5.37576
2.93107
1.1591
0.64604
1.96516
3.15782
5.65451
54.3624
31.7131
39.4489
27.7973
24.531
17.3297
11.8287
6.03944
0.96655
-3.56234
-7.32322
-10.2386
-12.2224
-13.2112
-13.1555
-11.9549
-9.525
-6.94334
-5.27209
-2.80845
753.876
670.638
621.272
564.453
515.045
467.326
423
381.149
341.817
304.727
269.744
236.676
205.295
175.518
147.432
120.404
95.3598
76.8307
54.0477
15.7511
753.794
670.556
621.19
564.371
514.963
467.243
422.916
381.064
341.731
304.64
269.655
236.585
205.204
175.426
147.342
120.317
95.2745
76.7445
53.9585
15.6586
54.288
31.6363
39.3726
27.7196
24.4536
17.2518
11.751
5.96165
0.889107
-3.63941
-7.39956
-10.314
-12.2962
-13.2827
-13.2246
-12.0212
-9.58857
-7.00379
-5.33725
-2.88394
31.1524
24.7566
32.683
25.6957
27.5559
24.1051
22.7311
20.0959
17.7871
15.2089
12.6979
10.1651
7.66538
5.1624
2.70827
0.928874
0.410944
1.72136
2.907
5.3929
41.9329
38.914
41.6862
35.9698
37.5027
33.8652
33.3136
31.3679
30.3511
29.278
28.5993
28.171
28.0269
28.1617
28.4646
29.219
30.3788
32.4074
34.306
37.0265
40.0905
38.8104
41.9963
39.0305
42.5944
41.2558
43.2444
43.7418
45.0974
46.3561
47.8295
49.4249
51.1287
52.9478
54.8
56.738
58.5385
60.3718
61.4729
63.2414
54.778
55.4117
58.5903
56.9612
60.2308
59.8066
61.6754
62.5135
63.7652
64.9612
66.1924
67.4524
68.7159
69.9923
71.228
72.48
73.5822
74.8142
75.571
76.8636
72.6206
74.3625
76.7178
75.8476
78.2265
78.2549
79.5411
80.346
81.2786
82.2311
83.1861
84.1648
85.1499
86.1529
87.1324
88.1524
89.0546
90.1243
90.7865
92.0136
88.6343
90.5632
92.0487
91.6925
93.3436
93.516
94.3934
95.0454
95.7202
96.4271
97.1265
97.8404
98.5565
99.2858
99.9947
100.738
101.387
102.167
102.619
103.52
100.622
102.144
103.051
102.755
103.946
103.861
104.422
104.743
105.101
105.48
105.848
106.23
106.613
107.008
107.388
107.795
108.142
108.57
108.803
109.264
107.337
108.394
108.845
108.468
109.412
109.007
109.417
109.439
109.589
109.731
109.873
110.033
110.193
110.367
110.533
110.72
110.871
111.068
111.168
111.354
109.457
110.277
110.408
110.027
110.859
110.377
110.769
110.69
110.824
110.902
110.995
111.093
111.193
111.296
111.395
111.501
111.585
111.69
111.743
111.823
109.628
110.455
110.354
110.061
110.916
110.713
111.118
111.109
111.281
111.374
111.493
111.593
111.703
111.791
111.893
111.972
112.056
112.131
112.184
112.243
110.554
111.466
111.219
111.001
111.711
111.713
112.073
112.11
112.262
112.325
112.426
112.482
112.582
112.618
112.721
112.742
112.838
112.862
112.931
112.956
112.162
113.017
112.691
112.475
113.004
112.99
113.237
113.216
113.298
113.281
113.341
113.316
113.397
113.347
113.455
113.384
113.504
113.438
113.534
113.482
112.931
113.65
113.341
113.103
113.519
113.422
113.636
113.555
113.621
113.538
113.592
113.5
113.598
113.468
113.618
113.447
113.628
113.456
113.61
113.467
113.584
114.125
113.864
113.574
113.92
113.719
113.928
113.775
113.852
113.697
113.759
113.583
113.703
113.472
113.669
113.375
113.625
113.318
113.539
113.271
112.237
112.772
112.615
112.39
112.771
112.547
112.85
112.666
112.838
112.658
112.796
112.576
112.766
112.465
112.743
112.353
112.698
112.278
112.601
112.206
114.621
114.857
114.663
114.257
114.493
114.073
114.249
113.891
113.955
113.594
113.637
113.224
113.336
112.829
113.057
112.446
112.77
112.111
112.454
111.744
108.247
109.08
109.103
109.179
109.661
109.431
109.851
109.466
109.666
109.225
109.282
108.751
108.835
108.182
108.388
107.623
107.966
107.163
107.583
106.728
127.045
126.03
125.047
123.418
122.366
120.254
119.014
117.371
116.265
114.605
113.734
112.303
111.822
110.577
110.511
109.332
109.62
108.529
108.981
107.857
)
;

boundaryField
{
    outletWall
    {
        type            fixedValue;
        value           uniform 0;
    }
    fineWalls
    {
        type            zeroGradient;
    }
    fineFrontAndBack
    {
        type            zeroGradient;
    }
    fineplugLeft
    {
        type            cyclicAMI;
        value           nonuniform List<scalar> 
20
(
94.5512
95.1271
95.4754
96.3156
96.2178
97.3084
97.3121
98.4089
98.7148
99.9885
100.597
101.907
103.112
110.04
105.126
105.655
105.701
106.472
106.316
105.236
)
;
    }
    fineplugRight
    {
        type            cyclicAMI;
        value           nonuniform List<scalar> 
20
(
94.9312
95.5138
95.8689
96.719
96.6382
97.7462
97.7928
98.9108
99.2456
100.468
101.084
102.349
103.516
110.43
105.433
105.938
105.957
106.712
106.537
105.449
)
;
    }
    inletOutletLeft
    {
        type            cyclicAMI;
        value           nonuniform List<scalar> 
20
(
94.5512
95.1271
95.4754
96.3156
96.2178
97.3084
97.3121
98.4089
98.7148
99.9885
100.597
101.907
103.112
110.04
105.126
105.655
105.701
106.472
106.316
105.236
)
;
    }
    inletLeft
    {
        type            zeroGradient;
    }
    inletWallsLeft
    {
        type            zeroGradient;
    }
    inletFacesLeft
    {
        type            zeroGradient;
    }
    inletOutletRight
    {
        type            cyclicAMI;
        value           nonuniform List<scalar> 
20
(
94.9312
95.5138
95.8689
96.719
96.6382
97.7462
97.7928
98.9108
99.2456
100.468
101.084
102.349
103.516
110.43
105.433
105.938
105.957
106.712
106.537
105.449
)
;
    }
    inletRight
    {
        type            zeroGradient;
    }
    inletWallsRight
    {
        type            zeroGradient;
    }
    inletFacesRight
    {
        type            zeroGradient;
    }
}


// ************************************************************************* //
