/*--------------------------------*- C++ -*----------------------------------*\
| =========                 |                                                 |
| \\      /  F ield         | OpenFOAM: The Open Source CFD Toolbox           |
|  \\    /   O peration     | Version:  4.1                                   |
|   \\  /    A nd           | Web:      www.OpenFOAM.org                      |
|    \\/     M anipulation  |                                                 |
\*---------------------------------------------------------------------------*/
FoamFile
{
    version     2.0;
    format      ascii;
    class       surfaceScalarField;
    location    "2";
    object      phi;
}
// * * * * * * * * * * * * * * * * * * * * * * * * * * * * * * * * * * * * * //

dimensions      [0 3 -1 0 0 0 0];

internalField   nonuniform List<scalar> 
2360
(
5112.86
5653.71
-540.845
5653.7
5653.71
6217.12
-563.42
6217.13
6217.12
6217.12
6669.4
-452.277
6669.4
6669.4
7113.86
-444.463
7113.86
7113.87
7163.33
-49.4757
7163.34
7163.32
8547.47
-1384.15
8547.45
8547.44
9342.86
10305.9
11235.8
12133.3
13033.9
13927.6
8804.38
6050.11
9761.91
10738.8
11732.9
12735.7
13751.7
14763.4
15790.5
16800.5
17836.2
18840.9
19898.8
20815.5
21997.5
4543.99
17453.5
4543.98
4543.98
4543.98
522.524
4021.46
522.524
522.522
522.523
81.0034
441.517
81.0039
81.001
-537.573
618.576
-537.578
-537.576
-537.581
-4579.69
4042.12
-4579.7
-4579.71
-4579.71
-22023.5
17443.8
-20843
-19925.9
-18868.2
-17863.8
-16828.4
-15818.6
-14791.8
-13780.4
-12764.5
-11761.7
-10767.6
-9790.4
-8832.82
-13907.3
6001.43
-13013.7
-12112.7
-11214.7
-10284.2
-9320.82
-8524.92
-8524.93
-8524.94
-7149.28
-1375.65
-7149.29
-7149.28
-7102.11
-47.1796
-7102.1
-7102.1
-6656.45
-445.65
-6656.45
-6656.45
-6203.46
-452.992
-6203.45
-6203.46
-6203.45
-5639.97
-563.487
-5639.97
-5639.97
-5099.25
-540.713
-445.965
-972.969
-504.497
-1606.37
-585.28
-2010.04
-689.989
-2452.89
-820.053
-2901.86
-980.731
-3394.08
-1180.42
-3941.58
-1433.8
-4568.63
-1761.12
-5294.5
-2171.63
-6153.59
-2611.98
-7269.4
-2898.5
-8739.53
-2577.42
-9161.6
-992.49
-3851.01
374.052
5692.57
900.616
10581.4
972.388
11553.9
906.328
10791.2
8583.89
-632.008
-937.064
-708.571
-1529.81
-817.387
-1901.22
-957.608
-2312.67
-1131.92
-2727.55
-1348.44
-3177.55
-1622.86
-3667.16
-1985.46
-4206.03
-2484.42
-4795.55
-3170.95
-5467.06
-4034.28
-6406.06
-4864.9
-7908.91
-4873.45
-9153.05
-2400.25
-6324.22
197.401
3094.92
747.903
10030.9
730.403
11571.4
751.825
10769.8
8772.23
-758.909
-893.652
-846.934
-1441.78
-973.474
-1774.68
-1135.74
-2150.4
-1337.3
-2525.99
-1588.99
-2925.86
-1916.24
-3339.91
-2371.91
-3750.36
-3044.95
-4122.5
-4049.97
-4462.04
-5442.7
-5013.33
-6984.99
-6366.63
-7676.3
-8461.73
-5405.76
-8594.76
-1003.68
-1307.16
581.532
8445.71
405.245
11747.7
503.653
10671.4
8822.89
-896.137
-836.812
-1003.73
-1334.19
-1153.84
-1624.57
-1344.16
-1960.08
-1579.02
-2291.12
-1874.36
-2630.52
-2273.67
-2940.61
-2870.25
-3153.78
-3813.86
-3178.89
-5276.05
-2999.85
-7301.66
-2987.73
-9504.17
-4164.12
-10793.7
-7172.17
-9107.8
-10280.7
-3293.73
-7121.22
210.191
4941.79
46.4928
11911.4
221.953
10495.9
8599.18
-1036.07
-763.404
-1167.03
-1203.23
-1343.4
-1448.19
-1564.13
-1739.36
-1834.66
-2020.59
-2179.73
-2285.45
-2670.95
-2449.39
-3454.32
-2370.41
-4720.83
-1912.38
-6589.7
-1130.98
-8891.39
-686.044
-10959.1
-2096.38
-11990.5
-6140.82
-11022
-11249.1
-6572.52
-11570.7
-1361.56
-269.175
-191.832
10741.7
-556.405
10860.5
7995.59
-1183.04
-669.831
-1342.02
-1044.25
-1548.21
-1242.01
-1803.14
-1484.42
-2114.51
-1709.23
-2518.71
-1881.24
-3115.57
-1852.53
-4078.19
-1407.79
-5526.17
-464.394
-7321.33
664.177
-8941.05
933.674
-9521.11
-1516.32
-9259.87
-6402.06
-9228.97
-11280
-8521.1
-12278.6
-4240.44
-4549.83
-607.368
7108.58
553.658
9699.47
7173.59
-1340.27
-552.787
-1531.94
-852.583
-1771.88
-1002.06
-2066.12
-1190.18
-2424.84
-1350.51
-2888.26
-1417.82
-3540.72
-1200.08
-4453.27
-495.244
-5522.34
604.677
-6453.61
1595.45
-6618.56
1098.62
-5711.71
-2423.17
-5230.62
-6883.15
-6983.64
-9526.99
-9928.33
-9333.92
-8797.01
-5681.15
-4023.29
2334.86
-2308.44
7984.62
10866.6
-1508.9
-408.991
-1738.62
-622.86
-2017.46
-723.227
-2356.95
-850.698
-2764.15
-943.306
-3254.11
-927.862
-3819.55
-634.636
-4382.88
68.0843
-4812.37
1034.17
-4896.39
1679.47
-4275.78
478.013
-3696.08
-3002.88
-4883.24
-5695.99
-8562.65
-5847.57
-13430
-4466.55
-16369
-2742.23
-15822.4
1788.35
-15837.4
7999.59
12472.9
-1682.12
-236.56
-1954.54
-350.434
-2277.25
-400.517
-2664.58
-463.374
-3108.48
-499.4
-3577.45
-458.89
-3973.44
-238.653
-4141.31
235.958
-3962.38
855.234
-3404.83
1121.93
-2889.37
-37.4484
-3761.51
-2130.74
-6583.43
-2874.07
-10567.6
-1863.41
-14410.6
-623.523
-16943.4
-209.423
-16703.9
1548.84
-13076.8
4372.52
3438.22
-1822.2
-38.8844
-2133.21
-39.4241
-2496.01
-37.7195
-2925.1
-34.2815
-3394.2
-30.2993
-3826.93
-26.1598
-4045.38
-20.2015
-3801.2
-8.21987
-2964.61
18.6409
-1934.4
91.7185
-2162.3
190.447
-4455.5
162.46
-7337.65
8.07278
-9049.87
-151.188
-9499.52
-173.873
-9714
5.05539
-8289.45
124.285
-4004.19
87.2628
52.6
-1805.84
157.858
-2114.12
268.863
-2474.36
322.514
-2901.87
393.23
-3371.14
438.967
-3807.64
410.345
-4035.03
207.182
-3798.17
-245.073
-2934.56
-844.971
-1771.64
-1071.2
-1824.5
243.3
-4116.76
2454.73
-7178.36
3069.67
-9069.93
1740.38
-9561.17
317.367
-9658.37
102.255
-8143.78
-1390.3
-3856.82
-4199.7
-3362.71
-1643.25
328.895
-1912.47
538.084
-2232.1
642.141
-2617.34
778.469
-3061.01
882.632
-3533.7
883.038
-3939.11
612.593
-4118.57
-65.6126
-3935.35
-1028.19
-3301.29
-1705.26
-2560.65
-497.334
-3231.85
3125.92
-6088.27
5926.1
-10269.4
5921.52
-14250
4297.94
-16854.5
2706.81
-16675.7
-1569.1
-13061.8
-7813.6
-12403.1
-1458.59
471.378
-1687.57
767.066
-1966.23
920.8
-2305.43
1117.67
-2712.67
1289.87
-3204.03
1374.4
-3772.1
1180.66
-4337.34
499.626
-4765.7
-599.828
-4835.4
-1635.57
-4120.65
-1212.08
-3346.57
2351.83
-4384.21
6963.74
-8095.23
9632.54
-13139
9341.72
-16365.5
5933.34
-15976
-1958.59
-15917.6
-7872.07
-10867.2
-1285.7
587.117
-1478.39
959.755
-1720.94
1163.35
-2017.85
1414.58
-2378.77
1650.78
-2843.13
1838.75
-3493.2
1830.74
-4398.9
1405.33
-5460.63
461.905
-6389.25
-706.942
-6536.07
-1065.26
-5526.09
1341.86
-4863.42
6301.07
-6516.17
11285.3
-9644.96
12470.5
-8925.14
5213.53
-4204.78
-6678.96
-2342.63
-9734.22
-7159.71
-1125.05
678.726
-1285.48
1120.19
-1496.28
1374.14
-1756.71
1675.01
-2073.1
1967.18
-2480.13
2245.78
-3075.45
2426.05
-4031.77
2361.65
-5473.74
1903.87
-7271.12
1090.44
-8904.51
568.126
-9459.16
1896.51
-9089.64
5931.56
-8982.66
11178.3
-8468.59
11956.4
-4394.41
1139.34
-651.922
-10421.4
584.147
-10970.3
-7959.72
-973.813
749.518
-1106.18
1252.56
-1288.6
1556.56
-1516.86
1903.27
-1794.72
2245.04
-2145.19
2596.25
-2638.15
2919.02
-3419.86
3143.36
-4686.35
3170.37
-6565.09
2969.18
-8891.34
2894.37
-10982.7
3987.88
-12020.1
6968.94
-11103
10261.2
-6847.91
7701.33
-1499.07
-4209.5
-136.533
-11784
-548.738
-10558.1
-8557.94
-829.292
803.964
-938.623
1361.89
-1095.63
1713.57
-1294.68
2102.32
-1538.44
2488.8
-1841.31
2899.12
-2245.38
3323.09
-2844.06
3742.03
-3790.13
4116.44
-5261.65
4440.7
-7312.2
4944.92
-9557.73
6233.41
-10915
8326.21
-9345.13
8691.36
-3541.71
1897.91
182.443
-7933.65
77.8044
-11679.3
216.296
-10696.6
-8786.11
-689.838
845.897
-780.415
1452.47
-913.976
1847.13
-1084.89
2273.24
-1295.82
2699.73
-1556.27
3159.57
-1890.36
3657.17
-2350.7
4202.37
-3027.87
4793.61
-4041.22
5454.05
-5455.53
6359.22
-7041.46
7819.34
-7814.93
9099.68
-5686.53
6562.96
-1171.89
-2616.73
601.157
-9706.7
416.552
-11494.7
501.989
-10782
-8736.4
-557.703
883.127
-639.294
1534.06
-755.332
1963.17
-903.93
2421.84
-1087.69
2883.49
-1313.89
3385.76
-1596.88
3940.16
-1966.38
4571.88
-2471.17
5298.4
-3165.54
6148.42
-4046.42
7240.11
-4913.69
8686.61
-4985.51
9171.51
-2585.15
4162.59
129.525
-5331.41
755.655
-10332.8
732.394
-11471.5
749.5
-10799.1
-8550.32
-386.335
-449.451
-535.732
-646.68
-783.931
-952.536
-1160.05
-1420.57
-1754.01
-2170.47
-2621.37
-2931
-2651.25
-1091.43
340.016
892.839
970.624
907.058
112.571
-908.023
203.999
-1054.49
276.829
-1002.73
344.212
-964.969
422.24
-978.626
492.629
-964.101
530.251
-964.501
527.737
-954.984
509.035
-958.155
475.15
-960.226
431.381
-959.036
383.943
-968.543
332.738
-960.453
285.252
-979.607
235.357
-960.18
191.575
-991.874
144.05
-957.167
101.484
-1015.41
40.2345
-855.444
-1141.71
56.1994
-964.237
55.0202
-1053.33
53.5629
-1001.29
50.2782
-961.699
45.4684
-973.831
40.4407
-959.089
47.117
-971.193
57.2493
-965.132
66.8045
-967.724
74.2727
-967.709
79.6688
-964.446
82.4584
-971.347
83.0338
-961.041
80.4651
-977.051
76.7667
-956.492
69.324
-984.442
62.9435
-950.794
50.1889
-1002.66
51.932
-857.193
-1089.78
37.5535
-1001.8
77.5967
-1093.39
108.313
-1032.02
123.584
-976.983
125.543
-975.803
126.917
-960.478
121.217
-965.506
116.421
-960.35
109.923
-961.24
103.232
-961.032
96.4667
-957.693
88.0775
-962.972
81.3202
-954.296
71.6486
-967.392
65.6181
-950.474
54.7045
-973.539
49.7667
-945.865
36.9411
-989.843
45.5589
-865.819
-1044.22
26.4223
-1028.24
84.7768
-1151.75
124.195
-1071.44
139.652
-992.448
136.381
-972.539
130.961
-955.066
123.577
-958.13
117.828
-954.609
111.143
-954.562
104.295
-954.193
97.5182
-950.925
89.2834
-954.745
82.7938
-947.815
73.3288
-957.935
67.6749
-944.828
56.7558
-962.626
52.2172
-941.332
39.0314
-976.663
51.6081
-878.402
-992.612
22.7032
-1050.95
110.829
-1239.89
174.329
-1134.96
200.502
-1018.63
197.06
-969.109
186.691
-944.712
173.528
-944.98
162.384
-943.478
150.758
-942.95
138.981
-942.431
127.611
-939.568
114.95
-942.097
104.405
-937.282
90.9505
-944.492
81.7255
-935.614
67.2565
-948.167
59.5652
-933.649
42.9939
-960.1
53.8455
-889.261
-938.766
25.8755
-1076.83
137.292
-1351.31
217.441
-1215.11
249.106
-1050.3
245.759
-965.765
231.713
-930.67
216.32
-929.59
202.673
-929.834
189.078
-929.357
174.97
-928.326
161.212
-925.812
146.187
-927.076
132.785
-923.882
116.651
-928.362
103.873
-922.839
86.3072
-930.604
74.2748
-921.618
53.661
-939.488
57.9781
-893.58
-880.788
40.9767
-1117.81
160.965
-1471.3
238.476
-1292.62
262.943
-1074.78
258.671
-961.498
245.641
-917.646
233.354
-917.31
221.922
-918.409
210.322
-917.763
197.555
-915.566
184.483
-912.745
169.808
-912.407
155.765
-909.843
139.046
-911.648
124.284
-908.08
105.227
-911.551
89.597
-905.99
65.7525
-915.646
61.011
-888.841
-819.777
70.3363
-1188.14
169.35
-1570.31
214.132
-1337.4
219.588
-1080.23
219.359
-961.264
217.161
-915.443
216.75
-916.894
214.644
-916.298
210.748
-913.863
204.12
-908.932
195.585
-904.206
184.441
-901.258
172.437
-897.836
157.442
-896.649
142.666
-893.302
123.792
-892.673
105.711
-887.908
79.4668
-889.4
63.5384
-872.911
-756.239
99.5647
-1287.72
144.349
-1615.1
147.168
-1340.23
150.076
-1083.14
172.17
-983.366
193.507
-936.79
210.407
-933.804
220.64
-926.543
225.631
-918.865
225.457
-908.77
221.134
-899.893
212.817
-892.952
201.95
-886.976
187.583
-882.291
171.611
-877.336
151.505
-872.574
129.388
-865.794
98.749
-858.765
68.4045
-842.57
-687.834
100.431
-1388.15
86.8435
-1601.51
90.6289
-1344.01
135.051
-1127.56
196.432
-1044.74
247.972
-988.324
281.543
-967.37
301.261
-946.256
310.117
-927.717
311.044
-909.693
305.53
-894.375
294.472
-881.89
279.116
-871.616
259.453
-862.626
236.372
-854.251
208.59
-844.789
176.077
-833.277
133.789
-816.473
82.9513
-791.729
-604.883
63.6447
-1451.79
48.7281
-1586.59
109.79
-1405.07
209.12
-1226.89
301.033
-1136.66
373.511
-1060.8
419.316
-1013.18
446.052
-972.993
457.515
-939.18
457.857
-910.035
448.907
-885.424
431.982
-864.965
408.298
-847.931
378.439
-832.765
342.773
-818.584
300.556
-802.569
250.579
-783.297
188.139
-754.03
110.593
-714.179
-494.29
22.6945
-1474.47
78.8363
-1642.72
192.237
-1518.46
310.415
-1345.05
412.391
-1238.62
493.905
-1142.3
551.668
-1070.92
589.208
-1010.52
609.241
-959.199
614.399
-915.18
606.436
-877.448
586.805
-845.322
556.722
-817.836
517.012
-793.044
467.906
-769.465
408.743
-743.395
338.089
-712.634
251.436
-667.367
144.946
-607.675
-349.344
30.0334
-1504.5
150.721
-1763.41
269.915
-1637.65
373.498
-1448.63
474.666
-1339.78
561.187
-1228.82
632.307
-1142.04
684.698
-1062.91
718.782
-993.278
735.217
-931.612
734.886
-877.111
718.689
-829.122
687.437
-786.577
641.73
-747.334
581.772
-709.5
507.106
-668.724
417.024
-622.545
308.176
-558.512
174.651
-474.138
-174.693
95.2606
-1599.75
203.381
-1871.51
292.773
-1727.03
370.229
-1526.08
462.045
-1431.59
543.766
-1310.53
619.776
-1218.04
681.308
-1124.43
728.056
-1040.01
757.991
-961.535
770.209
-889.319
763.953
-822.855
738.75
-761.363
694.356
-702.93
630.897
-646.031
548.597
-586.414
448.099
-522.04
327.395
-437.799
175.039
-321.764
0.346981
162.675
-1762.42
200.398
-1909.23
248.684
-1775.31
298.974
-1576.36
369.315
-1501.92
431.012
-1372.21
494.656
-1281.67
549.67
-1179.43
597.249
-1087.58
633.219
-997.496
655.455
-911.547
661.307
-828.698
648.969
-749.017
617.214
-671.166
565.496
-594.303
492.85
-513.76
398.87
-428.054
282.477
-321.399
133.623
-172.891
133.97
167.058
-1929.46
140.43
-1882.59
168.032
-1802.9
204.403
-1612.71
252.863
-1550.37
297.937
-1417.27
346.623
-1330.35
393.017
-1225.81
438.577
-1133.13
479.594
-1038.5
514.534
-946.478
540.987
-855.138
557.808
-765.831
563.003
-676.35
550.042
-581.334
504.906
-468.615
416.058
-339.2
289.754
-195.085
139.517
-22.6394
273.487
76.0629
-2005.52
18.4339
-1824.96
23.4199
-1807.88
45.5678
-1634.86
70.6057
-1575.4
109.687
-1456.35
153.878
-1374.53
207.409
-1279.34
267.931
-1193.65
335.127
-1105.69
408.695
-1020.04
489.248
-935.686
577.959
-854.536
670.132
-768.518
741.307
-652.504
741.69
-468.994
624.628
-222.132
369.87
59.6827
158.23
189.011
431.717
-127.359
-1878.16
-291.155
-1661.16
-410.592
-1688.44
-485.605
-1559.84
-549.971
-1511.03
-579.423
-1426.89
-592.741
-1361.21
-582.274
-1289.8
-553.463
-1222.46
-504.89
-1154.26
-437.296
-1087.63
-349.413
-1023.57
-241.584
-962.359
-120.337
-889.76
-8.30362
-764.531
56.901
-534.191
49.0519
-214.264
21.8573
86.898
-45.9066
256.786
385.81
-221.352
-1656.81
-479.239
-1403.27
-752.737
-1414.94
-982.039
-1330.54
-1201.03
-1292.04
-1385.67
-1242.25
-1546.33
-1200.55
-1677.68
-1158.45
-1782.35
-1117.78
-1859.57
-1077.04
-1910.85
-1036.35
-1938.17
-996.242
-1944.16
-956.368
-1924.28
-909.637
-1853.51
-835.296
-1680.96
-706.745
-1370.1
-525.117
-943.244
-339.959
-488.271
-198.182
-102.461
-681.804
-1110.07
-1550.01
-1905.55
-2222.59
-2489.84
-2715.39
-2898.84
-3041.62
-3143.65
-3205
-3226.24
-3207.61
-3142.25
-3002.54
-2734.28
-2284.4
-1649.36
-872.539
-681.803
1656.8
-1110.07
1403.26
-1550.01
1414.94
-1905.56
1330.55
-2222.61
1292.06
-2489.89
1242.28
-2715.48
1200.59
-2898.97
1158.49
-3041.79
1117.83
-3143.87
1077.08
-3205.26
1036.39
-3226.54
996.274
-3207.91
956.377
-3142.5
909.584
-3002.63
835.132
-2734.12
706.497
-2284.06
524.936
-1649.01
339.954
-872.347
198.341
102.653
-221.418
1878.22
-479.425
1661.27
-753.03
1688.55
-982.462
1559.98
-1201.59
1511.19
-1386.4
1427.08
-1547.24
1361.43
-1678.78
1290.04
-1783.66
1222.71
-1861.1
1154.52
-1912.61
1087.9
-1940.15
1023.82
-1946.34
962.568
-1926.57
889.814
-1855.75
764.309
-1682.81
533.559
-1371.19
213.325
-943.402
-87.8333
-488.167
-256.889
-385.513
-127.508
2005.73
-291.4
1825.16
-410.975
1808.13
-486.139
1635.14
-550.659
1575.71
-580.285
1456.71
-593.781
1374.92
-583.503
1279.76
-554.887
1194.1
-506.518
1106.16
-439.128
1020.51
-351.451
936.149
-243.837
854.958
-122.846
768.827
-11.1097
652.578
53.9637
468.492
46.5704
220.734
20.1968
-61.4423
-46.9587
-189.724
-432.472
75.8709
1929.86
18.3644
1882.67
23.3764
1803.12
45.53
1612.99
70.5683
1550.68
109.656
1417.63
153.846
1330.74
207.381
1226.23
267.904
1133.58
335.116
1038.95
408.715
946.914
489.329
855.539
578.119
766.171
670.351
676.598
741.5
581.431
741.574
468.42
623.713
338.597
368.07
194.205
157.286
21.0649
-275.186
166.86
1763.01
140.298
1909.24
168.008
1775.41
204.439
1576.57
252.842
1502.28
297.849
1372.62
346.407
1282.18
392.699
1179.94
438.198
1088.08
479.198
997.953
514.177
911.939
540.716
829.005
557.663
749.227
563
671.266
550.168
594.267
505.059
513.532
416.113
427.546
289.792
320.531
139.648
171.216
-135.538
162.652
1600.36
200.11
1871.78
248.296
1727.23
298.514
1526.35
368.732
1432.07
430.315
1311.05
493.812
1218.69
548.685
1125.07
596.16
1040.61
632.104
962.013
654.413
889.633
660.414
823.008
648.259
761.384
616.691
702.837
565.138
645.822
492.607
586.067
398.661
521.494
282.226
436.968
133.257
320.19
-2.28082
95.5968
1504.77
203.147
1764.24
292.084
1638.3
369.14
1449.3
460.652
1340.56
542.244
1229.46
618.287
1142.65
679.883
1063.48
726.69
993.807
756.722
931.986
769.1
877.257
763.051
829.061
738.062
786.376
693.861
747.041
630.553
709.133
548.354
668.268
447.893
621.957
327.119
557.743
174.521
472.792
172.241
30.59
1474.18
150.924
1643.91
269.405
1519.82
372.142
1346.57
472.753
1239.95
559.035
1143.18
630.251
1071.44
682.882
1010.86
717.236
959.456
733.932
915.292
733.842
877.35
717.874
845.031
686.829
817.423
641.308
792.564
581.497
768.946
506.944
742.822
416.926
711.978
308.056
666.614
174.344
606.508
346.584
23.1416
1451.05
79.8664
1587.19
192.73
1406.96
310.113
1229.2
411.314
1138.76
492.036
1062.47
549.576
1013.91
587.35
973.09
607.751
939.062
613.238
909.814
605.534
885.061
586.114
864.458
556.208
847.335
516.653
832.126
467.673
817.932
408.618
801.883
338.029
782.57
251.339
753.308
144.703
713.15
491.287
63.6835
1387.36
49.8211
1601.05
111.41
1345.38
211.398
1129.21
303.634
1046.52
374.881
991.223
419.55
969.238
445.803
946.838
457.548
927.318
458.15
909.212
449.359
893.853
432.532
881.286
408.906
870.962
379.072
861.961
343.402
853.603
301.162
844.124
251.103
832.63
188.441
815.971
110.699
790.894
601.986
100.09
1287.28
86.8747
1614.27
91.7337
1340.52
137.549
1083.4
200.386
983.686
252.691
938.922
286.208
935.724
305.543
927.507
314.074
918.79
314.661
908.628
308.783
899.733
297.361
892.71
281.655
886.67
261.652
881.966
238.242
877.015
210.135
872.232
177.25
865.516
134.466
858.756
83.403
841.958
685.389
99.2764
1188
143.881
1569.66
147.217
1337.18
150.797
1079.81
173.84
960.637
196.746
916.009
214.615
917.847
224.887
917.226
229.123
914.547
228.253
909.49
223.384
904.596
214.631
901.455
203.404
897.891
188.736
896.627
172.512
893.233
152.172
892.566
129.789
887.896
98.826
889.716
68.629
872.152
754.018
70.3689
1117.63
169.468
1470.56
214.558
1292.09
220.409
1073.96
220.451
960.595
218.879
917.579
218.663
918.064
216.304
919.585
211.817
919.033
204.647
916.659
195.759
913.483
184.409
912.804
172.283
910.016
157.226
911.683
142.428
908.03
123.53
911.464
105.402
906.023
79.1121
916.004
63.5727
887.69
817.591
40.822
1076.8
161.195
1350.18
238.951
1214.32
263.319
1049.59
258.841
965.064
246.009
930.402
234.041
930.024
222.78
930.837
211.123
930.682
198.166
929.608
184.892
926.749
170.065
927.621
155.924
924.15
139.153
928.445
124.366
922.81
105.275
930.548
89.6178
921.675
65.8122
939.805
61.269
892.228
878.86
25.4466
1051.34
137.365
1238.26
217.654
1134.03
249.044
1018.19
245.411
968.691
231.4
944.408
216.29
945.128
202.973
944.148
189.677
943.972
175.775
943.503
162.066
940.453
146.993
942.688
133.51
937.628
117.326
944.622
104.477
935.654
86.8529
948.168
74.7695
933.755
54.2386
960.332
58.4404
888.022
937.3
22.2258
1029.11
110.665
1149.81
174.08
1070.61
199.979
992.282
196.3
972.362
185.861
954.838
172.808
958.173
161.932
955.015
150.709
955.188
139.385
954.818
128.324
951.507
115.804
955.199
105.26
948.165
91.8052
958.069
82.4724
944.981
67.955
962.679
60.1488
941.557
43.632
976.845
54.1209
877.53
991.421
26.1462
1002.96
84.3648
1091.59
123.512
1031.46
138.83
976.96
135.429
975.758
129.956
960.307
122.598
965.527
117.006
960.603
110.599
961.59
104.076
961.336
97.5842
957.994
89.5794
963.2
83.1841
954.555
73.7926
967.456
68.0722
950.696
57.1401
973.607
52.4774
946.215
39.267
990.051
51.405
865.387
1042.83
37.5053
965.45
77.0627
1052.03
107.468
1001.05
122.696
961.728
124.499
973.952
125.796
959.006
119.936
971.384
115.149
965.386
108.686
968.05
102.17
967.848
95.5768
964.584
87.4319
971.341
80.8685
961.116
71.3644
976.957
65.4269
956.63
54.5853
984.446
49.6895
951.109
36.8819
1002.86
45.1032
857.164
1087.93
55.9766
909.47
53.501
1054.5
51.5642
1002.98
48.3315
964.958
43.4363
978.844
38.2871
964.152
44.7841
964.883
54.9317
955.235
64.5761
958.402
72.2894
960.132
77.7471
959.124
80.5971
968.488
81.5843
960.126
79.3059
979.234
76.0677
959.868
68.9221
991.59
62.9733
957.058
50.5124
1015.32
51.8818
855.796
1139.81
113.567
204.671
277.196
344.143
421.94
492.438
530.418
528.08
509.331
475.312
431.671
384.262
332.996
285.382
235.523
191.713
144.323
101.948
40.6387
)
;

boundaryField
{
    outletWall
    {
        type            calculated;
        value           nonuniform List<scalar> 
60
(
-5099.25
-8218.28
-10725.2
-11625.7
-11108
-7059.11
2266.08
8840.51
9026.05
7709.75
6564.11
5621.82
4822.01
4141.27
3554.75
3031.93
2557.6
2090.82
1664.9
999.76
357.349
520.472
647.905
774.845
903.021
1033.44
1169.96
1316.1
1472.22
1609.1
1624.53
1509.68
1365.1
1223.23
1089.46
962.661
839.296
715.498
596.103
419.174
-5112.86
-8184.1
-10735.6
-11549.3
-10885.7
-6762.85
2602.77
8891.76
8996.23
7691.01
6564.88
5631.84
4832.4
4147.67
3554.37
3020.74
2532.78
2049.45
1597.18
912.113
)
;
    }
    fineWalls
    {
        type            calculated;
        value           uniform 0;
    }
    fineFrontAndBack
    {
        type            calculated;
        value           nonuniform List<scalar> 
960
(
1.59097e-16
-2.3801e-14
8.35671e-15
7.88477e-15
3.74151e-14
-3.38411e-14
-3.94244e-14
1.34564e-13
-1.92223e-12
-5.77278e-13
-5.6317e-13
5.34647e-12
1.91117e-12
1.60336e-12
1.52829e-11
2.50892e-12
1.69087e-12
1.28629e-11
3.53678e-12
4.46294e-12
6.03972e-13
2.58208e-13
7.3084e-13
1.0406e-12
8.1064e-13
-1.15397e-12
-8.46334e-11
-6.80522e-12
-8.04635e-12
-8.99637e-12
-9.78568e-12
-1.05491e-11
-1.13404e-11
-1.20546e-11
-1.27113e-11
-1.30864e-11
-1.34474e-11
-1.33236e-11
-1.34155e-11
-1.32976e-11
-3.40861e-10
-4.06139e-11
-2.56568e-11
-1.35591e-11
2.95028e-11
7.66076e-12
1.42231e-12
-8.83895e-12
-9.9661e-12
-1.5501e-12
-1.25911e-13
-1.00366e-10
-2.31344e-11
-1.67954e-11
-1.00296e-11
-2.22888e-11
1.57401e-11
2.66481e-11
4.10136e-11
3.40357e-10
1.32358e-11
1.34076e-11
1.32953e-11
1.34704e-11
1.30934e-11
1.26786e-11
1.19872e-11
1.12935e-11
1.05126e-11
9.80992e-12
9.03827e-12
8.13731e-12
7.07615e-12
1.0492e-10
2.39019e-12
9.1488e-13
9.54955e-13
1.38761e-12
1.81037e-12
1.27107e-12
4.20207e-12
5.01055e-12
3.12454e-11
6.77372e-12
5.93775e-12
1.98959e-11
8.58415e-13
-4.18433e-13
-5.50219e-12
-4.46381e-13
8.61001e-13
7.71589e-12
2.19743e-13
1.81892e-13
1.60065e-13
3.03148e-13
-3.74345e-14
-1.74913e-13
-1.29086e-12
-4.08878e-14
-3.39424e-11
3.77436e-10
7.4668e-10
7.56747e-10
3.33576e-10
6.6549e-11
4.93115e-10
1.22532e-09
1.5222e-09
1.29712e-09
9.18556e-10
5.79334e-10
2.64023e-10
9.51318e-12
-4.65003e-11
-1.83405e-11
-1.93181e-12
-5.20119e-13
-6.69475e-13
-4.9393e-10
-2.35666e-10
1.66862e-10
1.11374e-10
-5.64747e-10
-1.06332e-09
-5.12153e-10
6.92458e-10
1.49004e-09
1.52188e-09
1.12569e-09
6.26937e-10
1.82205e-10
-6.54647e-11
-6.43337e-11
-2.11087e-11
-2.02681e-12
-2.72385e-13
-6.86763e-13
-1.88979e-09
-2.38484e-09
-1.98062e-09
-1.93525e-09
-2.79616e-09
-3.78767e-09
-3.42083e-09
-1.61523e-09
2.46053e-10
1.06215e-09
9.13014e-10
4.16569e-10
1.51684e-11
-1.27098e-10
-6.89762e-11
-2.04575e-11
-3.73358e-12
-4.601e-13
-5.54743e-13
-5.19525e-09
-6.93273e-09
-6.06313e-09
-5.70303e-09
-7.19703e-09
-9.36638e-09
-9.15209e-09
-5.74749e-09
-1.66527e-09
4.71499e-10
6.38457e-10
1.83508e-10
-1.17402e-10
-1.68657e-10
-8.89476e-11
-4.57504e-12
-5.86512e-12
-1.40208e-12
-3.04393e-12
-1.12104e-08
-1.40487e-08
-1.19225e-08
-1.15112e-08
-1.47493e-08
-1.87283e-08
-1.7822e-08
-1.10499e-08
-3.52185e-09
8.50972e-11
4.16751e-10
2.26459e-11
-1.14652e-10
-3.94241e-11
3.46655e-11
1.46217e-12
1.10912e-12
4.38984e-12
1.37186e-11
-1.97302e-08
-2.24161e-08
-1.86556e-08
-1.95616e-08
-2.60075e-08
-3.15144e-08
-2.79472e-08
-1.58578e-08
-4.40237e-09
1.3451e-10
3.67752e-10
9.72566e-11
2.8986e-10
6.31659e-10
5.83338e-10
1.33638e-10
-1.58619e-11
-1.98159e-11
-4.98285e-11
-2.86906e-08
-2.94436e-08
-2.53375e-08
-2.98829e-08
-4.00935e-08
-4.52988e-08
-3.69186e-08
-1.88937e-08
-4.39433e-09
3.10132e-10
5.39753e-10
6.19915e-10
1.29298e-09
1.8223e-09
1.289e-09
2.7246e-10
-7.99296e-12
3.50885e-11
9.66428e-11
-3.41839e-08
-3.26679e-08
-3.1571e-08
-4.13994e-08
-5.36571e-08
-5.59348e-08
-4.2608e-08
-2.08095e-08
-4.9571e-09
3.68851e-10
1.1035e-09
1.44738e-09
2.23632e-09
2.45117e-09
1.32375e-09
2.79267e-10
2.86414e-10
4.47083e-10
5.40227e-10
-3.17651e-08
-3.11727e-08
-3.65698e-08
-5.0296e-08
-6.07596e-08
-5.88525e-08
-4.42288e-08
-2.44762e-08
-9.77792e-09
-2.28495e-09
6.03042e-10
1.76985e-09
2.4619e-09
1.95132e-09
6.32428e-10
1.0606e-10
3.92142e-10
5.1428e-10
3.57981e-10
-1.8003e-08
-2.46234e-08
-3.63416e-08
-4.89533e-08
-5.42482e-08
-4.99049e-08
-3.91886e-08
-2.64526e-08
-1.4752e-08
-5.85918e-09
-5.50547e-10
1.74053e-09
2.05653e-09
9.13494e-10
-3.84122e-10
-5.0373e-10
5.21661e-11
2.53388e-10
4.6401e-11
1.04414e-08
-8.33492e-09
-2.09529e-08
-2.72287e-08
-2.75449e-08
-2.29254e-08
-1.4939e-08
-6.76143e-09
-1.74063e-09
1.236e-10
6.61368e-10
1.36215e-09
1.7232e-09
9.38663e-10
-1.55529e-10
-4.79523e-10
-3.32414e-10
-2.61271e-10
-1.81042e-10
2.61006e-08
8.23318e-09
-8.32183e-09
-1.5158e-08
-1.44788e-08
-1.05853e-08
-5.83087e-09
-1.5864e-09
4.36466e-10
5.75436e-10
3.54129e-10
7.13616e-10
1.18451e-09
9.1443e-10
7.50681e-11
-3.73979e-10
-4.31222e-10
-4.4053e-10
-3.39819e-10
2.99419e-08
1.97214e-08
2.3273e-09
-6.84952e-09
-7.21451e-09
-3.91741e-09
-1.17853e-09
2.99852e-10
6.27368e-10
3.20857e-10
8.9481e-11
2.22145e-10
5.56147e-10
6.21357e-10
1.3535e-10
-3.19431e-10
-4.33297e-10
-4.43048e-10
-5.43266e-10
2.46908e-08
2.24546e-08
8.73487e-09
-1.07193e-09
-3.04837e-09
-5.38345e-10
1.28594e-09
1.32135e-09
6.79204e-10
1.94657e-10
8.61214e-12
1.86115e-11
1.26228e-10
2.07767e-10
4.33015e-11
-1.72542e-10
-1.00801e-10
-3.37348e-11
-9.16388e-11
1.58837e-08
1.80566e-08
9.98289e-09
2.08514e-09
-6.82149e-10
8.81348e-10
2.30495e-09
1.92904e-09
8.91693e-10
2.27747e-10
1.85771e-11
-6.25551e-12
-4.25271e-12
-6.5229e-12
-4.07102e-11
-6.73463e-11
8.71752e-12
1.86321e-11
4.37722e-11
8.07903e-09
1.0849e-08
7.37239e-09
2.64105e-09
3.89727e-10
1.244e-09
2.33974e-09
2.05005e-09
1.06764e-09
3.3959e-10
5.79758e-11
1.13214e-11
8.14558e-12
-5.38668e-12
-1.89083e-11
-7.91977e-12
1.01086e-12
-5.89348e-12
-1.2105e-11
3.18906e-09
4.6862e-09
3.53573e-09
1.49196e-09
4.74686e-10
1.09734e-09
1.86172e-09
1.7315e-09
1.03681e-09
4.12351e-10
1.05676e-10
2.89212e-11
2.44115e-11
2.5681e-11
1.61994e-11
5.22692e-12
4.67092e-13
6.44786e-14
1.84726e-12
9.21947e-10
1.13454e-09
6.18185e-10
-2.37466e-12
3.74792e-11
7.42157e-10
1.25869e-09
1.19932e-09
8.06736e-10
3.84209e-10
1.24944e-10
3.94485e-11
2.49051e-11
2.80669e-11
1.85777e-11
2.42476e-12
6.38518e-13
-8.61131e-13
-7.70536e-13
1.67538e-10
-2.20629e-10
-7.47184e-10
-9.53192e-10
-4.45349e-10
3.65456e-10
7.58062e-10
7.00407e-10
5.07339e-10
2.81145e-10
1.06585e-10
3.8442e-11
1.91841e-11
1.82254e-11
8.10796e-12
2.77956e-12
2.64269e-13
-6.71122e-13
-3.12262e-13
-1.42724e-11
-3.97044e-10
-8.18225e-10
-9.57305e-10
-5.45069e-10
5.72977e-11
3.09292e-10
2.50339e-10
1.74902e-10
1.09029e-10
4.3094e-11
1.6424e-11
6.27324e-12
6.64026e-12
4.90435e-12
2.55342e-12
3.28428e-13
-7.36412e-13
-3.75507e-13
-1.59097e-16
2.3801e-14
-8.35671e-15
-7.88477e-15
-3.74151e-14
3.38411e-14
3.94244e-14
-1.34564e-13
1.92223e-12
5.77278e-13
5.6317e-13
-5.34647e-12
-1.91117e-12
-1.60336e-12
-1.52829e-11
-2.50892e-12
-1.69087e-12
-1.28629e-11
-3.53678e-12
-4.46294e-12
-6.03972e-13
-2.58208e-13
-7.3084e-13
-1.0406e-12
-8.1064e-13
1.15397e-12
8.46334e-11
6.80522e-12
8.04635e-12
8.99637e-12
9.78568e-12
1.05491e-11
1.13404e-11
1.20546e-11
1.27113e-11
1.30864e-11
1.34474e-11
1.33236e-11
1.34155e-11
1.32976e-11
3.40861e-10
4.06139e-11
2.56568e-11
1.35591e-11
-2.95028e-11
-7.66076e-12
-1.42231e-12
8.83895e-12
9.9661e-12
1.5501e-12
1.25911e-13
1.00366e-10
2.31344e-11
1.67954e-11
1.00296e-11
2.22888e-11
-1.57401e-11
-2.66481e-11
-4.10136e-11
-3.40357e-10
-1.32358e-11
-1.34076e-11
-1.32953e-11
-1.34704e-11
-1.30934e-11
-1.26786e-11
-1.19872e-11
-1.12935e-11
-1.05126e-11
-9.80992e-12
-9.03827e-12
-8.13731e-12
-7.07615e-12
-1.0492e-10
-2.39019e-12
-9.1488e-13
-9.54955e-13
-1.38761e-12
-1.81037e-12
-1.27107e-12
-4.20207e-12
-5.01055e-12
-3.12454e-11
-6.77372e-12
-5.93775e-12
-1.98959e-11
-8.58415e-13
4.18433e-13
5.50219e-12
4.46381e-13
-8.61001e-13
-7.71589e-12
-2.19743e-13
-1.81892e-13
-1.60065e-13
-3.03148e-13
3.74345e-14
1.74913e-13
1.29086e-12
4.08878e-14
3.39424e-11
-3.77436e-10
-7.4668e-10
-7.56747e-10
-3.33576e-10
-6.6549e-11
-4.93115e-10
-1.22532e-09
-1.5222e-09
-1.29712e-09
-9.18556e-10
-5.79334e-10
-2.64023e-10
-9.51318e-12
4.65003e-11
1.83405e-11
1.93181e-12
5.20119e-13
6.69475e-13
4.9393e-10
2.35666e-10
-1.66862e-10
-1.11374e-10
5.64747e-10
1.06332e-09
5.12153e-10
-6.92458e-10
-1.49004e-09
-1.52188e-09
-1.12569e-09
-6.26937e-10
-1.82205e-10
6.54647e-11
6.43337e-11
2.11087e-11
2.02681e-12
2.72385e-13
6.86763e-13
1.88979e-09
2.38484e-09
1.98062e-09
1.93525e-09
2.79616e-09
3.78767e-09
3.42083e-09
1.61523e-09
-2.46053e-10
-1.06215e-09
-9.13014e-10
-4.16569e-10
-1.51684e-11
1.27098e-10
6.89762e-11
2.04575e-11
3.73358e-12
4.601e-13
5.54743e-13
5.19525e-09
6.93273e-09
6.06313e-09
5.70303e-09
7.19703e-09
9.36638e-09
9.15209e-09
5.74749e-09
1.66527e-09
-4.71499e-10
-6.38457e-10
-1.83508e-10
1.17402e-10
1.68657e-10
8.89476e-11
4.57504e-12
5.86512e-12
1.40208e-12
3.04393e-12
1.12104e-08
1.40487e-08
1.19225e-08
1.15112e-08
1.47493e-08
1.87283e-08
1.7822e-08
1.10499e-08
3.52185e-09
-8.50972e-11
-4.16751e-10
-2.26459e-11
1.14652e-10
3.94241e-11
-3.46655e-11
-1.46217e-12
-1.10912e-12
-4.38984e-12
-1.37186e-11
1.97302e-08
2.24161e-08
1.86556e-08
1.95616e-08
2.60075e-08
3.15144e-08
2.79472e-08
1.58578e-08
4.40237e-09
-1.3451e-10
-3.67752e-10
-9.72566e-11
-2.8986e-10
-6.31659e-10
-5.83338e-10
-1.33638e-10
1.58619e-11
1.98159e-11
4.98285e-11
2.86906e-08
2.94436e-08
2.53375e-08
2.98829e-08
4.00935e-08
4.52988e-08