/*--------------------------------*- C++ -*----------------------------------*\
| =========                 |                                                 |
| \\      /  F ield         | OpenFOAM: The Open Source CFD Toolbox           |
|  \\    /   O peration     | Version:  4.1                                   |
|   \\  /    A nd           | Web:      www.OpenFOAM.org                      |
|    \\/     M anipulation  |                                                 |
\*---------------------------------------------------------------------------*/
FoamFile
{
    version     2.0;
    format      ascii;
    class       volSymmTensorField;
    location    "2";
    object      R;
}
// * * * * * * * * * * * * * * * * * * * * * * * * * * * * * * * * * * * * * //

dimensions      [0 2 -2 0 0 0 0];

internalField   nonuniform List<symmTensor> 
1280
(
(0.204111 -2.19472e-18 -1.60811e-19 0.18569 -0.02174 0.100802)
(0.179887 -2.36395e-18 3.28561e-20 0.163101 -0.0232292 0.0926069)
(0.178636 -2.10291e-18 -5.56586e-20 0.162564 -0.0225988 0.0910076)
(0.174976 -1.94711e-18 -4.91183e-20 0.159165 -0.0218723 0.0885571)
(0.156884 -2.00484e-18 4.44572e-20 0.143941 -0.0221563 0.0796689)
(0.15641 -2.05048e-18 1.46041e-19 0.143523 -0.0247159 0.0799836)
(0.154918 -3.17378e-18 5.35953e-19 0.141931 -0.0287802 0.0801119)
(0.15313 -2.31456e-18 3.07071e-19 0.140867 -0.0285918 0.0788348)
(0.140466 -4.58706e-18 7.16607e-19 0.130409 -0.0289353 0.0721496)
(0.140194 -4.88268e-18 1.09919e-18 0.130547 -0.0277122 0.0714713)
(0.138501 -5.74032e-18 1.43575e-18 0.128805 -0.0267773 0.0702111)
(0.128265 -4.56455e-18 1.17387e-18 0.120726 -0.0261432 0.0644065)
(0.128235 -3.74992e-18 6.69144e-20 0.120962 -0.0253417 0.0640818)
(0.127455 -3.43716e-18 -5.67125e-19 0.120025 -0.0247044 0.0633403)
(0.123316 -3.88435e-19 -6.71219e-19 0.117705 -0.0245583 0.0597922)
(0.122653 2.9597e-18 -3.68402e-18 0.117011 -0.0241441 0.0598125)
(0.120029 2.99966e-18 -4.43058e-18 0.114042 -0.0229383 0.0587119)
(0.102231 2.79493e-18 -4.55202e-18 0.0970769 -0.0208793 0.0518561)
(0.10269 2.41182e-18 -5.08827e-18 0.0978312 -0.0198849 0.0520385)
(0.104485 2.91209e-18 -5.64588e-18 0.0973427 -0.0216003 0.0582088)
(0.138781 1.10819e-17 -1.28661e-17 0.0977449 -0.0192445 0.143115)
(0.151751 8.94535e-18 -2.87127e-17 0.107479 -0.0196958 0.179579)
(0.160864 -1.63375e-17 -3.31102e-17 0.124543 -0.00593137 0.193322)
(0.164852 -1.73903e-17 -3.42915e-17 0.133877 0.00689581 0.199672)
(0.16425 3.52901e-17 -2.02704e-17 0.136897 0.0122197 0.199304)
(0.159997 7.78159e-17 -6.96259e-18 0.135189 0.0146303 0.194103)
(0.114133 1.0293e-16 -5.18493e-17 0.091544 -0.00986636 0.160631)
(0.110081 1.0683e-16 -6.65175e-17 0.0862355 -0.011224 0.161417)
(0.105385 1.21852e-16 -8.59776e-17 0.0822274 -0.015981 0.161214)
(0.0982561 1.27207e-16 -8.89959e-17 0.0779071 -0.0175874 0.152305)
(0.0898596 1.29069e-16 -8.25024e-17 0.0725744 -0.0165104 0.138538)
(0.0812203 1.2955e-16 -7.15373e-17 0.0662113 -0.0139404 0.123553)
(0.0737025 1.2928e-16 -5.96002e-17 0.0609524 -0.011356 0.110347)
(0.0669154 1.26485e-16 -4.74218e-17 0.0556108 -0.00887359 0.0988183)
(0.0613228 1.21568e-16 -3.67233e-17 0.0513953 -0.00699457 0.0894688)
(0.0563591 1.14716e-16 -2.68552e-17 0.0474326 -0.00534668 0.0814651)
(0.0521706 1.06254e-16 -2.00094e-17 0.0439206 -0.00455686 0.0748802)
(0.0483629 9.6906e-17 -1.24971e-17 0.0411345 -0.00322434 0.0689057)
(0.046263 9.06017e-17 -8.48383e-18 0.0393953 -0.002512 0.0650087)
(0.0609435 8.16739e-17 -7.92213e-18 0.0560819 0.0114551 0.080493)
(0.0603047 7.85013e-17 -6.81891e-18 0.0583408 0.01485 0.0767449)
(0.0597469 6.64901e-17 6.29077e-18 0.0629415 0.0156371 0.0699575)
(0.0590858 6.0175e-17 9.17966e-18 0.0657228 0.0172734 0.0648029)
(0.0588339 5.40606e-17 1.26634e-17 0.0672942 0.0164782 0.0612393)
(0.0615084 5.15567e-17 1.77467e-17 0.0721967 0.0205062 0.0599368)
(0.067464 7.25897e-17 4.1721e-17 0.072816 0.0113944 0.0618844)
(0.0733237 1.02421e-16 7.74699e-17 0.0752109 0.00852794 0.0690404)
(0.0810307 7.75721e-17 8.69614e-17 0.0856687 -0.00743391 0.0678701)
(0.102934 -7.90325e-17 5.29333e-17 0.130056 -0.0282723 0.0589439)
(0.09504 -1.47512e-17 5.34882e-17 0.10906 -0.0169954 0.0514002)
(0.0939646 -1.15029e-17 4.70932e-17 0.106415 -0.00851645 0.0533556)
(0.0942844 -9.31036e-17 1.10123e-16 0.112388 -0.00574486 0.067106)
(0.0755711 -4.08383e-17 8.99014e-17 0.0801812 0.00017453 0.0627632)
(0.0702455 -2.71826e-17 6.09771e-17 0.0759531 -0.00662755 0.0580574)
(0.0652712 -4.97002e-18 3.34759e-17 0.0732504 -0.0103695 0.0548621)
(0.0598574 2.11e-17 2.71134e-18 0.0707737 -0.0191117 0.0572709)
(0.057906 4.23432e-17 -1.15859e-17 0.0668276 -0.0162819 0.0599624)
(0.0582467 5.06149e-17 -1.12584e-17 0.0657081 -0.0172427 0.0634073)
(0.0589816 5.75075e-17 -9.98054e-18 0.0630663 -0.0157224 0.0686085)
(0.0596556 6.88357e-17 1.8365e-18 0.0579416 -0.0149991 0.0759897)
(0.0603352 7.22831e-17 1.24337e-18 0.0557224 -0.0116957 0.0798022)
(0.0454984 8.04135e-17 1.13998e-18 0.0389602 0.00232681 0.0640951)
(0.0475978 8.62057e-17 4.61315e-18 0.0407268 0.00300368 0.0679944)
(0.0513561 9.47387e-17 1.11126e-17 0.0435203 0.00429903 0.0739061)
(0.0554987 1.0242e-16 1.70793e-17 0.0470309 0.00506328 0.0804441)
(0.0604302 1.07904e-16 2.56577e-17 0.0510112 0.00665816 0.0884269)
(0.06595 1.10978e-16 3.48164e-17 0.0552203 0.00847189 0.0976863)
(0.0726768 1.12145e-16 4.51897e-17 0.0605548 0.010902 0.109164)
(0.0800608 1.10858e-16 5.52223e-17 0.0657307 0.0134801 0.122224)
(0.0885448 1.08957e-16 6.44645e-17 0.0719384 0.0161325 0.1371)
(0.0967113 1.05393e-16 6.96165e-17 0.0770151 0.0173433 0.150671)
(0.103624 9.76179e-17 6.6296e-17 0.0810838 0.0159248 0.159401)
(0.10802 8.23945e-17 5.03383e-17 0.0846967 0.0113637 0.159189)
(0.111953 7.87146e-17 4.06974e-17 0.0897555 0.0100996 0.158169)
(0.157683 5.35545e-17 3.17128e-18 0.133049 -0.0132494 0.192058)
(0.162372 1.996e-17 1.49279e-17 0.135326 -0.0108161 0.197524)
(0.163769 -1.69116e-17 2.58856e-17 0.133288 -0.00540321 0.198512)
(0.160794 -5.2261e-18 2.56085e-17 0.125285 0.0070174 0.193164)
(0.152788 2.72029e-17 2.44001e-17 0.109583 0.0199728 0.1804)
(0.140419 2.8847e-17 9.48827e-18 0.100519 0.0188911 0.143947)
(0.106255 1.85311e-17 -4.14656e-19 0.0990902 0.0219974 0.0595404)
(0.104494 1.74765e-17 -1.68126e-18 0.0996036 0.020277 0.0533401)
(0.104006 1.88837e-17 -4.32249e-19 0.0988015 0.0213256 0.0531656)
(0.12196 2.01165e-17 -6.82268e-18 0.115922 0.0233185 0.0600652)
(0.124678 2.07223e-17 -4.58188e-18 0.118998 0.0245421 0.0612037)
(0.12533 2.07376e-17 -6.97598e-19 0.119697 0.0249569 0.0611535)
(0.129524 1.5824e-17 -2.49079e-18 0.122056 0.0250713 0.0647701)
(0.130372 1.44147e-17 -2.81002e-18 0.123066 0.025723 0.0655566)
(0.130368 1.41577e-17 -3.82759e-18 0.122797 0.0265515 0.0658772)
(0.140779 1.85408e-17 -3.20568e-18 0.131019 0.0271815 0.0718175)
(0.142575 2.17048e-17 -3.2556e-18 0.132866 0.0281413 0.0731464)
(0.142814 2.6259e-17 -2.55768e-18 0.132693 0.0294058 0.073832)
(0.155697 3.54106e-17 7.52037e-19 0.143329 0.0290726 0.0807039)
(0.157586 3.8442e-17 1.43115e-18 0.144484 0.0292808 0.0820562)
(0.159135 3.9443e-17 1.67362e-18 0.146158 0.0251765 0.0819528)
(0.159582 4.31792e-17 1.94318e-18 0.146572 0.022523 0.0816048)
(0.177973 4.31613e-17 1.88997e-18 0.162058 0.0222131 0.0907217)
(0.181757 4.65405e-17 2.02399e-18 0.165576 0.0229584 0.0932785)
(0.183003 5.20144e-17 2.06372e-18 0.166103 0.023608 0.0949251)
(0.207617 4.17852e-17 1.67977e-18 0.188984 0.022149 0.103544)
(0.0182015 -1.34462e-14 -7.47992e-15 0.0161388 0.00803328 0.0299531)
(0.0204968 -1.39935e-14 -6.31396e-15 0.0175196 0.00833118 0.0344776)
(0.0226414 -1.30598e-14 -4.75912e-15 0.0184812 0.00778629 0.0386667)
(0.0253692 -1.20648e-14 -3.48223e-15 0.0203657 0.00789746 0.0438344)
(0.0290286 -1.06149e-14 -1.20886e-15 0.023162 0.00855408 0.050911)
(0.0340497 -8.24227e-15 1.60094e-15 0.0273012 0.0101563 0.0608817)
(0.0410193 -5.24089e-15 3.11399e-15 0.0334152 0.0132787 0.0750372)
(0.0503961 -2.53236e-15 2.40897e-15 0.0422821 0.0187149 0.0943505)
(0.0620432 -8.95837e-16 6.13487e-16 0.0545769 0.0272602 0.118285)
(0.0744832 -3.2087e-16 -6.88588e-16 0.0703918 0.0390808 0.142666)
(0.0848895 -2.72468e-16 -1.05674e-15 0.088731 0.0524996 0.15939)
(0.0907168 -2.95766e-16 -9.0265e-16 0.10717 0.0634271 0.16169)
(0.0881702 -2.19269e-16 -5.70568e-16 0.119468 0.0643376 0.139765)
(0.078477 -1.43882e-16 -3.06677e-16 0.12526 0.0549472 0.0983332)
(0.0514956 -6.98988e-17 -1.65849e-16 0.0853884 0.020559 0.0431916)
(0.0383942 -4.99103e-17 -1.39361e-17 0.0726929 -0.00240505 0.023574)
(0.0250449 -2.17759e-17 -5.65726e-19 0.0416657 -0.00319468 0.0189196)
(0.0149372 -7.41027e-18 -3.9826e-19 0.0215877 -0.00216111 0.0136953)
(0.017347 4.68794e-20 -7.03776e-20 0.018335 0.0020141 0.0163074)
(0.0192018 -1.67936e-14 -9.32669e-15 0.0164449 0.00794371 0.032109)
(0.0216098 -1.7345e-14 -7.73071e-15 0.017825 0.00810244 0.0369287)
(0.0238759 -1.61181e-14 -5.55026e-15 0.018903 0.0075116 0.0413592)
(0.0267349 -1.50377e-14 -3.99969e-15 0.0208393 0.00750905 0.0468646)
(0.0305535 -1.35354e-14 -1.27602e-15 0.023644 0.00800704 0.054451)
(0.0357849 -1.0892e-14 2.16648e-15 0.0277461 0.00943336 0.0652391)
(0.0430663 -7.25927e-15 4.14951e-15 0.0337917 0.0124429 0.0807426)
(0.0529387 -3.70883e-15 3.43183e-15 0.0426355 0.0179976 0.102238)
(0.0653578 -1.39384e-15 1.23104e-15 0.0551454 0.0271878 0.129455)
(0.0787564 -5.0623e-16 -5.31405e-16 0.071706 0.0404923 0.157749)
(0.0897282 -3.71064e-16 -1.13426e-15 0.0915862 0.0559993 0.176457)
(0.0960321 -3.1959e-16 -9.34908e-16 0.113753 0.0696324 0.177869)
(0.0972486 -1.58255e-16 -4.93544e-16 0.13717 0.0772362 0.159057)
(0.0955022 -3.63429e-17 -1.77129e-16 0.16184 0.0785468 0.127051)
(0.0655426 -5.86247e-17 -1.3149e-16 0.12093 0.040727 0.0596162)
(0.0403295 -4.92569e-17 -1.12399e-17 0.0786491 -0.00257187 0.024859)
(0.0251836 -2.25946e-17 -7.80172e-19 0.0420683 -0.00204543 0.0187181)
(0.015038 -7.8355e-18 -5.05714e-19 0.0218162 -0.00134309 0.0134753)
(0.0174087 -2.74893e-19 -3.45889e-20 0.0185443 0.0026811 0.0161911)
(0.0200702 -2.10416e-14 -1.10126e-14 0.0166333 0.00726355 0.0336462)
(0.0225559 -2.11547e-14 -8.68493e-15 0.0180888 0.007323 0.0386633)
(0.0249314 -1.95541e-14 -5.68726e-15 0.0193145 0.00664854 0.0432814)
(0.0278542 -1.85089e-14 -3.93964e-15 0.0212882 0.00642381 0.048937)
(0.0317062 -1.70657e-14 -6.97627e-16 0.0240301 0.00655953 0.056706)
(0.0369274 -1.40529e-14 3.631e-15 0.0279286 0.0074792 0.0677718)
(0.0441594 -9.4896e-15 6.31955e-15 0.0335809 0.00986419 0.0837762)
(0.0539522 -4.79396e-15 5.54192e-15 0.0418223 0.0147604 0.106124)
(0.0662264 -1.69814e-15 2.60248e-15 0.053536 0.0233532 0.134484)
(0.0790686 -5.53513e-16 2.25446e-17 0.0690016 0.0360375 0.163112)
(0.088038 -3.48209e-16 -9.80291e-16 0.0870831 0.0501124 0.177533)
(0.0914264 -1.66584e-16 -7.58105e-16 0.107702 0.0612851 0.170161)
(0.0928611 9.91427e-17 -2.81209e-16 0.134692 0.0692745 0.148701)
(0.0999504 2.24516e-16 -1.48858e-17 0.177485 0.081314 0.13167)
(0.116615 5.79316e-17 1.75254e-17 0.233971 0.101459 0.136235)
(0.0465839 -3.2388e-17 -1.67849e-18 0.0985575 0.00194643 0.0276766)
(0.025363 -2.25333e-17 -4.35329e-19 0.0424803 -0.000933591 0.0188022)
(0.0149262 -7.98458e-18 -5.90424e-19 0.0216877 -0.000371536 0.0131789)
(0.0174068 -6.46196e-19 6.2207e-19 0.0186193 0.00339694 0.0158929)
(0.0211565 -2.47883e-14 -1.23423e-14 0.0169818 0.00671843 0.0357359)
(0.0237327 -2.40994e-14 -9.0046e-15 0.0185085 0.0066662 0.0409522)
(0.0261736 -2.23886e-14 -5.33667e-15 0.0198418 0.00586579 0.0456141)
(0.0291263 -2.18585e-14 -3.66804e-15 0.0218227 0.00535778 0.0513083)
(0.0329538 -2.06766e-14 3.89052e-16 0.0244519 0.00501861 0.0590943)
(0.0380441 -1.70262e-14 6.30202e-15 0.0280283 0.005226 0.0701456)
(0.0449521 -1.10712e-14 1.01455e-14 0.0329995 0.00661156 0.0860271)
(0.0540552 -5.00886e-15 9.05444e-15 0.0399982 0.0101595 0.107795)
(0.0650689 -1.31042e-15 4.73248e-15 0.0497186 0.016868 0.134499)
(0.0757563 -1.83422e-16 9.18275e-16 0.0621805 0.0266497 0.159278)
(0.0805904 -3.72521e-17 -6.11404e-16 0.0754437 0.0355889 0.163854)
(0.0786644 1.83242e-16 -4.8798e-16 0.0891597 0.0387733 0.14325)
(0.0765049 4.4324e-16 -1.55708e-16 0.108207 0.0390064 0.116677)
(0.0798202 5.41686e-16 3.01916e-18 0.140692 0.0459958 0.0991333)
(0.0917275 4.50111e-16 1.3419e-16 0.193063 0.067933 0.0956016)
(0.0675199 2.2035e-17 3.43407e-17 0.151842 0.0376596 0.0502926)
(0.0258718 -1.9999e-17 1.90268e-19 0.0438656 -0.000869112 0.0194908)
(0.0146839 -7.01998e-18 -7.7983e-19 0.0214042 0.000958867 0.0129598)
(0.0178668 1.10301e-18 7.81271e-19 0.0199921 0.00482639 0.0160145)
(0.0224839 -2.65373e-14 -1.22098e-14 0.0175723 0.00620116 0.038279)
(0.0251564 -2.50033e-14 -7.96687e-15 0.0192028 0.00599892 0.0436502)
(0.0276758 -2.41318e-14 -4.42666e-15 0.0206756 0.00501306 0.048312)
(0.0306827 -2.48164e-14 -3.02217e-15 0.0227183 0.00412748 0.0540122)
(0.0345285 -2.39314e-14 2.70254e-15 0.0253162 0.00315743 0.0618008)
(0.0395301 -1.93233e-14 1.11947e-14 0.0286569 0.00238336 0.0728014)
(0.0460469 -1.1864e-14 1.62914e-14 0.0329418 0.00228812 0.0882291)
(0.0538872 -4.67632e-15 1.38639e-14 0.0382856 0.00357212 0.107693)
(0.0619075 -7.54803e-16 6.95629e-15 0.0446351 0.00650286 0.12756)
(0.0677135 1.87568e-16 1.55929e-15 0.0514796 0.00986235 0.139927)
(0.0679773 3.00305e-16 -3.45893e-16 0.0576515 0.01037 0.133168)
(0.066093 5.06852e-16 -3.92919e-16 0.064856 0.00673876 0.117277)
(0.0662821 6.7437e-16 -2.86035e-16 0.0755076 0.00425026 0.10733)
(0.0665999 6.6636e-16 -2.32049e-16 0.0919076 0.0112107 0.0973912)
(0.0693777 5.26819e-16 -2.64166e-17 0.125133 0.035605 0.0828603)
(0.0916558 1.93952e-16 1.32992e-16 0.194632 0.0784717 0.0985416)
(0.0263965 -2.23632e-17 -1.37086e-18 0.0467629 0.00134739 0.0189389)
(0.0142708 -8.27149e-18 -3.63976e-19 0.0196922 0.00147544 0.0131007)
(0.017493 -4.74528e-18 1.27193e-18 0.0199164 0.00386944 0.0139966)
(0.0239828 -2.3969e-14 -9.85485e-15 0.0183244 0.00566421 0.0411262)
(0.026766 -2.2428e-14 -5.65736e-15 0.0200917 0.00529284 0.0466229)
(0.0293744 -2.38797e-14 -3.5223e-15 0.0217484 0.00408085 0.0512071)
(0.0324546 -2.62472e-14 -1.90619e-15 0.0239335 0.00273551 0.0568153)
(0.0363593 -2.54484e-14 6.86749e-15 0.0266435 0.000983126 0.0644783)
(0.0413678 -2.00497e-14 1.85772e-14 0.0300052 -0.00105134 0.0752911)
(0.0477105 -1.19887e-14 2.42295e-14 0.0340617 -0.0031247 0.0901899)
(0.0546714 -4.54369e-15 1.90475e-14 0.0384994 -0.00485628 0.107365)
(0.0605729 -6.31539e-16 8.55101e-15 0.0428439 -0.00637706 0.12126)
(0.0643865 3.27186e-16 1.57746e-15 0.0473375 -0.00870187 0.126886)
(0.0669458 5.62254e-16 -3.86743e-16 0.0525509 -0.0113792 0.126657)
(0.0704603 7.27902e-16 -4.52638e-16 0.0592566 -0.0140152 0.128666)
(0.0751698 7.41634e-16 -4.17027e-16 0.0651929 -0.0130424 0.138928)
(0.0710452 5.29269e-16 -5.13139e-16 0.0656742 -0.0045255 0.134027)
(0.0571702 2.97862e-16 -3.0158e-16 0.0683989 0.0149453 0.0964093)
(0.0528048 1.11594e-16 -2.72366e-17 0.088974 0.0424386 0.0712516)
(0.0391 -2.97324e-17 -2.04234e-17 0.0768013 0.0249393 0.038418)
(0.0152433 -3.08124e-18 -3.08822e-19 0.023294 0.00281483 0.0133863)
(0.0200466 1.61953e-17 1.57874e-17 0.0260198 0.00915333 0.0184138)
(0.0256031 -1.50395e-14 -5.64563e-15 0.0192411 0.00505721 0.0441129)
(0.0285289 -1.54955e-14 -3.1908e-15 0.0212163 0.00452505 0.0497243)
(0.031293 -2.05376e-14 -3.23081e-15 0.0231776 0.00309196 0.0542439)
(0.0345068 -2.43435e-14 1.70857e-16 0.0256759 0.00125195 0.0596885)
(0.038515 -2.35382e-14 1.31849e-14 0.0287646 -0.00136826 0.0669637)
(0.043679 -1.88248e-14 2.75943e-14 0.0326755 -0.0048083 0.0772659)
(0.0503977 -1.24646e-14 3.26948e-14 0.0376597 -0.00907061 0.0916691)
(0.0581339 -5.89998e-15 2.44851e-14 0.0436511 -0.0139071 0.108418)
(0.0653531 -1.52178e-15 1.07015e-14 0.050392 -0.0187487 0.122276)
(0.0710213 3.50007e-16 2.01548e-15 0.0570123 -0.0216966 0.130486)
(0.0764451 9.223e-16 -2.27868e-16 0.0640003 -0.022782 0.136111)
(0.0855961 9.31695e-16 -9.74859e-17 0.0727102 -0.0216719 0.152217)
(0.094844 5.79934e-16 -1.65847e-16 0.075855 -0.0151658 0.181617)
(0.088978 1.78277e-16 -6.465e-16 0.0696616 -0.00780391 0.18458)
(0.0658213 1.35816e-17 -4.84197e-16 0.0596763 0.00879872 0.132238)
(0.0505988 2.76533e-17 -8.30159e-17 0.0626482 0.0332622 0.0859398)
(0.0528718 9.12864e-17 7.64468e-17 0.0821908 0.0504386 0.0850216)
(0.0301172 8.63875e-17 1.01948e-16 0.0353186 0.0205603 0.0494814)
(0.0536638 8.877e-17 9.80126e-17 0.0450569 0.0204393 0.0867475)
(0.0271173 1.82333e-15 -1.74262e-15 0.0201937 0.0042275 0.0466718)
(0.0301434 -2.98047e-15 -2.32146e-15 0.0224252 0.00357728 0.0521991)
(0.0330442 -1.10175e-14 -3.35503e-15 0.024806 0.00200513 0.0564452)
(0.0363368 -1.49497e-14 3.81472e-15 0.0277859 -0.000233232 0.0613454)
(0.040343 -1.48992e-14 2.03278e-14 0.0315124 -0.00356943 0.0675952)
(0.0452648 -1.42349e-14 3.50086e-14 0.0362363 -0.00809452 0.0758913)
(0.0515638 -1.38864e-14 3.874e-14 0.0423549 -0.0137103 0.0872928)
(0.0592141 -1.12089e-14 2.97736e-14 0.0499497 -0.0197886 0.101532)
(0.0675629 -6.36077e-15 1.52093e-14 0.058448 -0.0248898 0.116746)
(0.0756511 -1.73884e-15 4.618e-15 0.0660752 -0.0265713 0.130539)
(0.0849399 2.9955e-16 1.01517e-15 0.0737433 -0.0236912 0.145596)
(0.10242 4.03567e-16 8.28678e-16 0.0826234 -0.0158198 0.186703)
(0.120417 -1.53352e-16 -3.00165e-17 0.0913148 -0.0144055 0.243015)
(0.111162 -5.09266e-16 -7.72288e-16 0.0855304 -0.0183305 0.237585)
(0.0808272 -3.25686e-16 -4.04059e-16 0.0693468 -0.0120405 0.167099)
(0.0533435 -1.97108e-17 6.78204e-17 0.0535638 0.0055875 0.0930779)
(0.0419965 1.34792e-16 1.34118e-16 0.0436987 0.0225957 0.0650419)
(0.0423584 1.19285e-16 1.02145e-16 0.0409987 0.0155169 0.0623027)
(0.0512516 8.90752e-17 4.30244e-17 0.0466791 0.0030611 0.0696036)
(0.0283012 2.78135e-14 -2.19347e-15 0.0211245 0.00289945 0.0481594)
(0.0312629 1.78994e-14 -4.58553e-15 0.0236287 0.00224595 0.0530982)
(0.0340613 1.06223e-14 -3.09469e-15 0.026485 0.000759378 0.0563228)
(0.0371701 8.87068e-15 7.7853e-15 0.0300675 -0.00148904 0.0597958)
(0.040804 7.27043e-15 2.31711e-14 0.0345655 -0.00492829 0.0638062)
(0.0452202 5.0608e-16 3.38036e-14 0.040249 -0.00974425 0.0692212)
(0.0510068 -9.93457e-15 3.65664e-14 0.0474888 -0.0159467 0.077595)
(0.0586299 -1.63575e-14 3.20537e-14 0.0563123 -0.0228325 0.0903774)
(0.0680911 -1.36245e-14 2.21239e-14 0.0654114 -0.0285298 0.108467)
(0.0790292 -6.86036e-15 1.1693e-14 0.0730324 -0.0302692 0.1308)
(0.0949127 -2.05106e-15 5.21163e-15 0.0797247 -0.0244917 0.166768)
(0.126982 -6.16193e-16 1.81613e-15 0.0952988 -0.0174232 0.24813)
(0.154545 -1.15691e-15 -3.23057e-16 0.119176 -0.0331427 0.319401)
(0.15151 -1.48783e-15 -5.07225e-16 0.131219 -0.0622834 0.313566)
(0.141269 -1.17988e-15 4.68322e-16 0.145327 -0.088929 0.283839)
(0.12751 -7.22278e-16 7.80463e-16 0.160342 -0.0993839 0.234107)
(0.105572 -3.76359e-16 4.46599e-16 0.160119 -0.0823695 0.162487)
(0.0881192 -1.92176e-16 1.8907e-16 0.143658 -0.058721 0.115834)
(0.0890762 -1.97745e-16 1.40667e-16 0.142731 -0.0607888 0.112838)
(0.0297211 6.41888e-14 -1.30739e-14 0.0224232 0.000687809 0.0497783)
(0.03265 5.19143e-14 -1.22378e-14 0.0253623 0.000252153 0.0540626)
(0.0353724 5.1033e-14 -4.20036e-15 0.0289869 -0.000696779 0.0560903)
(0.03826 5.47044e-14 7.62085e-15 0.0336439 -0.0021609 0.0576615)
(0.0415515 5.44265e-14 1.69938e-14 0.0397363 -0.0043651 0.0588765)
(0.0454212 4.58628e-14 2.02532e-14 0.0475617 -0.00745071 0.0603429)
(0.0502997 3.14011e-14 1.93696e-14 0.057232 -0.011537 0.0634115)
(0.0565765 1.53366e-14 1.7537e-14 0.0677349 -0.0166292 0.0703645)
(0.0647237 3.5561e-15 1.53057e-14 0.0766993 -0.0220455 0.0844466)
(0.0761467 -9.07662e-16 1.19172e-14 0.0806147 -0.0252586 0.112087)
(0.101939 -1.27176e-15 7.8932e-15 0.0819746 -0.0234324 0.184443)
(0.157683 -1.44219e-15 2.53469e-15 0.119736 -0.0331371 0.314712)
(0.189704 -1.82545e-15 -7.11314e-16 0.164663 -0.0629498 0.361674)
(0.204195 -2.10345e-15 -1.82838e-16 0.21507 -0.103795 0.352755)
(0.233818 -2.39189e-15 1.70364e-15 0.278537 -0.155608 0.394917)
(0.261886 -2.88811e-15 3.23487e-15 0.338961 -0.206045 0.443953)
(0.259406 -2.94443e-15 2.91221e-15 0.381249 -0.218803 0.408838)
(0.247358 -2.419e-15 1.82491e-15 0.408136 -0.212293 0.351367)
(0.271682 -1.90609e-15 1.26038e-15 0.448999 -0.235915 0.377831)
(0.0326804 8.61133e-14 -3.75854e-14 0.0246398 -0.00164091 0.0549086)
(0.0361626 7.81479e-14 -2.59397e-14 0.0280875 -0.000893501 0.059946)
(0.0394988 7.8061e-14 -3.02672e-15 0.0323918 0.000470297 0.062574)
(0.0431189 8.14018e-14 1.43713e-14 0.038014 0.00247343 0.0647527)
(0.0472614 8.116e-14 2.47822e-14 0.0454391 0.00533713 0.0665215)
(0.0522005 7.36921e-14 2.84042e-14 0.0551419 0.00920784 0.0686648)
(0.0584673 6.0791e-14 2.64565e-14 0.067394 0.0142064 0.0727137)
(0.0665583 4.39937e-14 2.06248e-14 0.0812201 0.0202785 0.081226)
(0.0764339 2.56782e-14 1.32338e-14 0.0933637 0.0261799 0.0968088)
(0.0881867 1.03948e-14 6.78726e-15 0.0978061 0.0277301 0.124266)
(0.11303 6.31751e-16 2.31383e-15 0.0924881 0.0193079 0.199688)
(0.184233 -1.67978e-15 -3.29332e-16 0.138194 0.0310354 0.3705)
(0.226973 -1.59584e-15 -2.81663e-15 0.192999 0.0748035 0.440353)
(0.240735 -9.6066e-16 -2.87174e-15 0.25028 0.130137 0.420688)
(0.27404 -6.75506e-16 -1.59469e-15 0.324456 0.190544 0.465885)
(0.304621 -1.30041e-15 -1.16083e-15 0.393791 0.24286 0.516354)
(0.301267 -2.22636e-15 -1.60108e-15 0.443035 0.255062 0.473547)
(0.285993 -2.33447e-15 -1.61254e-15 0.472129 0.247577 0.406332)
(0.30825 -1.63144e-15 -1.05479e-15 0.512481 0.26929 0.424907)
(0.0339782 6.62836e-14 -5.14037e-14 0.0252846 -0.00435296 0.0584623)
(0.0376632 6.56787e-14 -4.22894e-14 0.0283719 -0.003385 0.0644965)
(0.0413674 5.88098e-14 -1.58882e-14 0.0320576 -0.00139009 0.0688006)
(0.0454935 5.22771e-14 5.54441e-15 0.0367511 0.00156508 0.073343)
(0.0503997 4.53272e-14 1.56877e-14 0.0427921 0.00601105 0.0786583)
(0.0565633 3.48891e-14 1.74043e-14 0.0506995 0.0122632 0.0861072)
(0.0645824 2.18984e-14 1.39891e-14 0.0609345 0.0204613 0.0973279)
(0.0747901 1.04392e-14 8.04979e-15 0.0733386 0.0298217 0.113803)
(0.0870324 3.06503e-15 2.48592e-15 0.0859287 0.0379569 0.136646)
(0.100265 -3.71052e-16 -2.97693e-16 0.0959902 0.0409467 0.163162)
(0.117577 -1.5456e-15 -6.33256e-16 0.102168 0.0328183 0.203012)
(0.155827 -1.81505e-15 -3.43576e-16 0.116052 0.0183897 0.305411)
(0.197493 -1.41475e-15 -1.68735e-15 0.148127 0.0385157 0.417881)
(0.193063 -5.75591e-16 -2.13896e-15 0.16173 0.0761058 0.411771)
(0.177045 -1.89107e-16 -1.1417e-15 0.177866 0.111201 0.366254)
(0.159157 -1.95658e-16 -4.40592e-16 0.197876 0.12845 0.301844)
(0.130534 -2.44443e-16 -2.67603e-16 0.197556 0.11005 0.210518)
(0.103246 -1.69656e-16 -1.59522e-16 0.169454 0.0753158 0.141016)
(0.0999571 -1.38208e-16 -1.016e-16 0.163068 0.0729 0.129613)
(0.0342171 4.08548e-14 -4.69062e-14 0.025367 -0.00607167 0.0597952)
(0.0380266 4.82323e-14 -4.59008e-14 0.0281531 -0.00510184 0.0666501)
(0.0418922 4.32607e-14 -2.46471e-14 0.0313058 -0.00294256 0.0721869)
(0.0464895 3.46518e-14 -1.47303e-15 0.0354259 5.95986e-05 0.0789723)
(0.0519712 2.63325e-14 9.53897e-15 0.0405739 0.00450568 0.0872969)
(0.0588071 1.77193e-14 1.00908e-14 0.0471968 0.0105695 0.0985682)
(0.0674035 8.86743e-15 5.98555e-15 0.0556758 0.0181958 0.113808)
(0.0776552 2.27082e-15 1.55562e-15 0.0660189 0.0266181 0.132684)
(0.0885572 -4.42137e-16 -7.82873e-16 0.077354 0.033883 0.152558)
(0.0987955 -1.1148e-15 -1.29224e-15 0.0872778 0.0366711 0.170046)
(0.109765 -1.27786e-15 -9.84586e-16 0.0966236 0.0331516 0.187218)
(0.130355 -1.57844e-15 -6.80203e-16 0.105855 0.0211861 0.236681)
(0.155964 -1.26731e-15 -1.07128e-15 0.116735 0.0179768 0.318299)
(0.142271 -4.84776e-16 -1.36339e-15 0.106998 0.0235756 0.309962)
(0.0974997 -3.6968e-17 -7.59117e-16 0.0816655 0.0176807 0.207438)
(0.0591598 8.84162e-17 -2.48959e-16 0.0590303 -0.00145294 0.105661)
(0.0424088 1.32087e-16 -1.27075e-16 0.0438981 -0.0217137 0.0650588)
(0.0427522 1.13493e-16 -8.82149e-17 0.041547 -0.0154715 0.0624192)
(0.0516154 9.32659e-17 -4.41953e-17 0.046917 -0.00296025 0.0698178)
(0.0331938 1.65706e-14 -3.21992e-14 0.024839 -0.00722099 0.0581469)
(0.0368822 2.81602e-14 -3.79073e-14 0.027289 -0.00639188 0.0651544)
(0.0406427 2.90023e-14 -2.66258e-14 0.0299331 -0.00439932 0.071209)
(0.0450033 2.26464e-14 -6.38417e-15 0.0333506 -0.00185083 0.0783801)
(0.0504231 1.5349e-14 4.80696e-15 0.0375992 0.00173572 0.0879478)
(0.0574326 9.13222e-15 5.55956e-15 0.0430065 0.00644873 0.101651)
(0.0664867 4.05647e-15 1.91124e-15 0.0498411 0.0123521 0.120826)
(0.0768788 8.16129e-16 -8.89791e-16 0.0579856 0.019156 0.143294)
(0.0864767 -3.5039e-16 -1.44579e-15 0.0670028 0.0260216 0.161965)
(0.09368 -5.55973e-16 -1.08322e-15 0.0755563 0.0302714 0.172523)
(0.100335 -6.48088e-16 -8.19739e-16 0.0844382 0.031909 0.17893)
(0.111733 -9.05824e-16 -8.27384e-16 0.0956129 0.0307327 0.198456)
(0.123017 -8.93843e-16 -9.38648e-16 0.098045 0.0214143 0.236265)
(0.112854 -3.92995e-16 -9.55899e-16 0.0865484 0.0127746 0.237115)
(0.0771383 5.27481e-18 -5.29856e-16 0.067451 -0.00529037 0.159194)
(0.0533576 1.63361e-16 -2.35709e-16 0.0649523 -0.0323206 0.0916833)
(0.0544348 1.88373e-16 -1.82175e-16 0.0844937 -0.0524574 0.0880303)
(0.0302589 8.46461e-17 -9.0589e-17 0.0357013 -0.020863 0.0496228)
(0.0536257 9.05411e-17 -9.30859e-17 0.044935 -0.0200438 0.0862593)
(0.0320504 -1.13185e-16 -1.7664e-14 0.0243774 -0.00833112 0.0561384)
(0.0356529 1.13638e-14 -2.60637e-14 0.0265717 -0.00771005 0.06331)
(0.0392275 1.69094e-14 -2.31794e-14 0.028779 -0.00593489 0.0695494)
(0.0433076 1.44461e-14 -8.39076e-15 0.0316804 -0.00393852 0.0767607)
(0.0482792 9.19652e-15 1.78125e-15 0.0351908 -0.00137532 0.0862282)
(0.0544745 4.70607e-15 3.14643e-15 0.0394298 0.00157055 0.0993593)
(0.0620009 1.83204e-15 2.00211e-16 0.0443021 0.0045708 0.11696)
(0.0699267 4.0229e-16 -1.74289e-15 0.0493442 0.00708234 0.136706)
(0.0765368 -2.60746e-17 -1.57479e-15 0.0541648 0.00923788 0.152541)
(0.0813831 -1.44248e-16 -8.73511e-16 0.0596348 0.0124911 0.160167)
(0.0848701 -2.2915e-16 -5.8285e-16 0.066117 0.0161841 0.160895)
(0.0893664 -3.34841e-16 -6.01704e-16 0.0743236 0.0199296 0.163963)
(0.0950161 -4.02844e-16 -6.93037e-16 0.0809574 0.0194052 0.17698)
(0.0876714 -2.08484e-16 -6.38626e-16 0.078016 0.0100639 0.16898)
(0.0651549 3.47618e-17 -3.51381e-16 0.0743466 -0.0113403 0.114256)
(0.0544989 1.5934e-16 -1.63424e-16 0.0904307 -0.0420999 0.0739578)
(0.0430149 5.4623e-17 -3.61724e-17 0.0849037 -0.0302824 0.0441732)
(0.0152201 2.15305e-19 1.66087e-18 0.0234884 -0.00308454 0.0133225)
(0.0191155 1.13223e-17 -6.57217e-18 0.0248063 -0.00884216 0.0176238)
(0.0309355 -8.28407e-15 -7.76442e-15 0.024109 -0.00947209 0.0540587)
(0.034394 3.93073e-16 -1.53214e-14 0.0260647 -0.00903076 0.0611601)
(0.0377578 7.60317e-15 -1.67696e-14 0.0278979 -0.00744711 0.0673817)
(0.0415627 8.27509e-15 -7.48574e-15 0.0304401 -0.0059507 0.0744025)
(0.0461567 5.31664e-15 3.93772e-16 0.0335451 -0.00429958 0.0834859)
(0.0518788 2.20785e-15 1.9162e-15 0.0373657 -0.00286143 0.0959913)
(0.059026 5.4574e-16 -3.35635e-16 0.0419969 -0.00221302 0.113131)
(0.067382 9.00224e-17 -1.92946e-15 0.047518 -0.00316343 0.134454)
(0.075791 7.89786e-17 -1.7397e-15 0.0539407 -0.00593886 0.156003)
(0.0816693 3.82401e-17 -9.78271e-16 0.0608015 -0.00906454 0.168866)
(0.0819132 -4.45527e-17 -5.15711e-16 0.0671967 -0.00912126 0.161898)
(0.0796591 -1.03958e-16 -4.20042e-16 0.0748352 -0.00427806 0.144031)
(0.0792686 -1.24102e-16 -4.37652e-16 0.0857684 -0.000357213 0.132206)
(0.0771123 -5.26311e-17 -3.83985e-16 0.100723 -0.00695413 0.117649)
(0.0748493 6.84293e-17 -2.14804e-16 0.13087 -0.0329673 0.0926184)
(0.0955099 1.10798e-16 -7.92546e-17 0.201511 -0.0815025 0.104374)
(0.0284034 -6.97621e-18 2.53283e-18 0.0514794 -0.00265076 0.0201653)
(0.014132 -4.70204e-18 1.93473e-18 0.0195763 -0.0016785 0.0129653)
(0.0166199 -6.00478e-18 3.09696e-18 0.0189226 -0.00379681 0.0132563)
(0.0300036 -1.00473e-14 -3.01006e-15 0.0240826 -0.0106905 0.0523032)
(0.0333108 -4.53599e-15 -8.37472e-15 0.0258147 -0.0103939 0.0592421)
(0.0364834 1.88452e-15 -1.06132e-14 0.0273091 -0.00893857 0.0653814)
(0.0400745 3.9386e-15 -5.05683e-15 0.0296018 -0.00783279 0.0721894)
(0.0444357 2.70725e-15 3.25606e-16 0.0325313 -0.00689588 0.0809461)
(0.0499429 7.21962e-16 1.41127e-15 0.0363437 -0.0065802 0.0929466)
(0.057106 -2.68541e-16 -3.43085e-16 0.0414045 -0.00758147 0.109722)
(0.066271 -2.50305e-16 -1.67243e-15 0.0483248 -0.0109178 0.13215)
(0.0771454 2.11391e-17 -1.62894e-15 0.0578534 -0.017517 0.158933)
(0.0876643 9.88649e-17 -1.01619e-15 0.0702256 -0.0272801 0.183402)
(0.0926335 3.69383e-17 -5.18577e-16 0.0839948 -0.036569 0.188277)
(0.090046 -1.84823e-17 -3.21464e-16 0.0984026 -0.0396441 0.165146)
(0.0866562 -2.45419e-17 -2.81851e-16 0.118405 -0.0391524 0.134171)
(0.0884664 1.52454e-17 -2.3181e-16 0.152494 -0.0460292 0.111699)
(0.09875 7.07785e-17 -1.29133e-16 0.207559 -0.0697911 0.102677)
(0.0780719 8.4254e-18 -8.49184e-18 0.177303 -0.0467045 0.0612722)
(0.0274083 -8.44302e-18 4.28989e-18 0.0472511 0.000485449 0.0203527)
(0.0145703 -2.8385e-18 2.27604e-18 0.0213454 -0.00128196 0.0128054)
(0.0169814 -3.54176e-19 1.23561e-18 0.0190068 -0.00472129 0.0151686)
(0.0292512 -8.49862e-15 -1.62919e-15 0.0243591 -0.0119695 0.0508358)
(0.0323516 -5.22422e-15 -5.05022e-15 0.0258725 -0.0117431 0.0573831)
(0.0352851 -5.70496e-16 -6.36885e-15 0.0270205 -0.0103132 0.0632162)
(0.038669 1.40355e-15 -2.60401e-15 0.0291166 -0.00946868 0.0696949)
(0.0428496 1.00439e-15 9.13162e-16 0.0319759 -0.00904169 0.0780731)
(0.0482479 -1.6959e-16 1.32062e-15 0.0359315 -0.00950589 0.0895967)
(0.0554766 -7.35137e-16 -1.81274e-16 0.041519 -0.0115752 0.105856)
(0.0650807 -5.3439e-16 -1.25139e-15 0.0495753 -0.0162984 0.12811)
(0.077073 -1.30928e-16 -1.30594e-15 0.0611025 -0.0248511 0.156002)
(0.0898878 5.96083e-17 -8.89253e-16 0.0767733 -0.0378403 0.18452)
(0.0995467 5.13344e-17 -4.69383e-16 0.0962078 -0.0531963 0.200516)
(0.103355 1.81314e-18 -2.51447e-16 0.119233 -0.0661006 0.193273)
(0.104427 -1.82455e-17 -1.73592e-16 0.149447 -0.0752876 0.168505)
(0.111623 -1.19108e-17 -1.10281e-16 0.197715 -0.0892533 0.148054)
(0.13079 -2.28524e-17 -7.34134e-18 0.264444 -0.114373 0.153293)
(0.0521047 -1.84563e-17 7.04892e-18 0.112328 -0.00390436 0.0301962)