/*--------------------------------*- C++ -*----------------------------------*\
| =========                 |                                                 |
| \\      /  F ield         | OpenFOAM: The Open Source CFD Toolbox           |
|  \\    /   O peration     | Version:  4.1                                   |
|   \\  /    A nd           | Web:      www.OpenFOAM.org                      |
|    \\/     M anipulation  |                                                 |
\*---------------------------------------------------------------------------*/
FoamFile
{
    version     2.0;
    format      ascii;
    class       volVectorField;
    location    "2";
    object      U;
}
// * * * * * * * * * * * * * * * * * * * * * * * * * * * * * * * * * * * * * //

dimensions      [0 1 -1 0 0 0 0];

internalField   nonuniform List<vector> 
1280
(
(1.14975e-19 1.67165 0.0300482)
(-4.04521e-18 2.01726 -0.175042)
(6.03918e-18 1.80061 -0.150587)
(5.69812e-18 1.88647 -0.146551)
(6.35906e-18 2.2803 -0.322902)
(-2.44561e-17 1.90559 -0.259909)
(-2.8491e-17 2.16244 -0.263587)
(1.19441e-16 2.03625 -0.244462)
(-2.81893e-16 2.47731 -0.344652)
(-4.17184e-16 2.11029 -0.317156)
(-4.28236e-16 2.27161 -0.348668)
(1.2505e-15 2.62989 -0.480454)
(1.42179e-15 2.21543 -0.439609)
(1.20952e-15 2.43406 -0.504063)
(2.89525e-15 2.76361 -0.531936)
(1.81313e-15 2.14548 -0.603162)
(1.22194e-15 2.53515 -0.65511)
(2.18618e-15 2.17874 -1.27352)
(2.55594e-15 3.10128 -0.470912)
(3.22525e-15 1.56486 -3.48195)
(2.47783e-15 2.84548 1.81614)
(1.05932e-15 2.94985 3.91467)
(2.99832e-15 2.80087 4.93734)
(4.26913e-15 3.24675 5.39302)
(3.3257e-15 3.15226 5.407)
(-4.73423e-15 3.64187 6.10127)
(-1.7841e-14 2.32528 6.39011)
(-2.79188e-14 5.36925 13.4991)
(-3.30107e-14 5.8249 15.0403)
(-3.69082e-14 5.91244 16.2569)
(-4.01464e-14 6.01028 16.8986)
(-4.32782e-14 5.92225 17.1788)
(-4.65246e-14 6.01261 17.0726)
(-4.9455e-14 5.80189 17.0076)
(-5.21491e-14 5.98689 16.6467)
(-5.36878e-14 5.71271 16.6504)
(-5.51687e-14 5.96012 16.1606)
(-5.4661e-14 5.74054 16.6456)
(-5.50381e-14 5.84065 15.5294)
(-5.45544e-14 5.81664 16.864)
(-5.93318e-14 5.92933 14.7139)
(-3.26216e-14 2.46408 6.61694)
(-2.06078e-14 1.45034 3.79601)
(-1.06356e-14 1.43729 1.34648)
(6.53252e-15 1.14783 -1.35377)
(6.15322e-15 -0.185396 -1.01524)
(1.14241e-15 0.261984 -1.91132)
(-7.09955e-15 0.475239 -2.41535)
(-2.73508e-15 0.661405 -0.863022)
(-2.50982e-15 -0.115646 0.182534)
(-1.01133e-16 0.166159 0.297872)
(-1.74702e-14 -0.640197 -0.658415)
(-1.85818e-14 -0.47397 -2.36196)
(-1.34903e-14 -0.268488 -1.91339)
(-8.05594e-15 0.185869 -1.05739)
(-3.87969e-15 -1.1561 -1.3402)
(1.28959e-14 -1.44669 1.37119)
(2.14041e-14 -1.4631 3.81801)
(3.29427e-14 -2.47639 6.62944)
(5.957e-14 -5.95703 14.7067)
(5.43007e-14 -5.82461 16.8451)
(5.50056e-14 -5.85228 15.5231)
(5.45449e-14 -5.74888 16.6383)
(5.52631e-14 -5.96999 16.1608)
(5.37163e-14 -5.72173 16.6498)
(5.20147e-14 -5.99672 16.6424)
(4.91781e-14 -5.81052 17.0001)
(4.63325e-14 -6.02223 17.0645)
(4.31285e-14 -5.93109 17.1752)
(4.02458e-14 -6.0201 16.898)
(3.70801e-14 -5.92114 16.2525)
(3.33838e-14 -5.83056 15.0212)
(2.90304e-14 -5.37518 13.4595)
(2.21174e-14 -2.31439 6.30749)
(9.80592e-15 -3.64134 6.0604)
(3.75335e-15 -3.14437 5.40977)
(3.91777e-15 -3.23692 5.42104)
(5.69277e-15 -2.79056 4.95074)
(7.42717e-15 -2.94589 3.89847)
(5.21464e-15 -2.83869 1.78952)
(3.03673e-15 -1.55787 -3.49114)
(3.62099e-15 -3.0945 -0.460111)
(5.31046e-15 -2.17259 -1.26883)
(4.89519e-15 -2.53152 -0.661488)
(4.29105e-15 -2.13971 -0.604683)
(3.76434e-15 -2.7589 -0.52995)
(6.71138e-16 -2.43136 -0.511379)
(-2.61781e-16 -2.21059 -0.443369)
(-7.64297e-16 -2.62497 -0.48104)
(-3.43822e-16 -2.26839 -0.354884)
(6.22223e-16 -2.10547 -0.321267)
(1.66989e-15 -2.47197 -0.344999)
(1.80983e-16 -2.03242 -0.248357)
(1.31449e-16 -2.15762 -0.266932)
(1.15675e-16 -1.90093 -0.261435)
(5.1523e-17 -2.27377 -0.32166)
(-2.7053e-17 -1.88226 -0.146753)
(-1.26405e-16 -1.79608 -0.150461)
(-2.6946e-16 -2.01104 -0.173763)
(-2.95485e-17 -1.66732 0.0305318)
(-3.77138e-15 0.332237 0.349583)
(4.19374e-14 0.552813 0.392922)
(8.29644e-14 0.694255 0.448435)
(8.4083e-14 0.849042 0.526776)
(3.7064e-14 1.00633 0.623307)
(7.39433e-15 1.17961 0.74343)
(5.47906e-14 1.37392 0.891158)
(1.36146e-13 1.59939 1.07611)
(1.69133e-13 1.86443 1.31323)
(1.44124e-13 2.17746 1.6214)
(1.02062e-13 2.56088 1.99684)
(6.43704e-14 3.00878 2.35051)
(2.93359e-14 2.97253 2.48349)
(1.05702e-15 0.790496 1.77771)
(-5.1667e-15 -2.13321 -0.0410976)
(-2.03783e-15 -3.61609 -0.610655)
(-2.14645e-16 -3.86113 -0.905343)
(-5.7791e-17 -3.59782 -0.719386)
(-7.43861e-17 -2.79505 -0.794114)
(-5.48811e-14 0.317072 0.497481)
(-2.61851e-14 0.519834 0.554015)
(1.85402e-14 0.64832 0.628139)
(1.23749e-14 0.789764 0.733593)
(-6.27497e-14 0.932886 0.862698)
(-1.18146e-13 1.089 1.02383)
(-5.69059e-14 1.26113 1.22371)
(7.69398e-14 1.45537 1.48084)
(1.6556e-13 1.67625 1.82761)
(1.69098e-13 1.93758 2.31256)
(1.25077e-13 2.29603 2.97144)
(6.96597e-14 2.81823 3.73858)
(2.02449e-14 3.12236 4.36666)
(-7.27385e-15 1.76076 3.80202)
(-7.14819e-15 -1.76108 0.225635)
(-2.34542e-15 -3.53774 -0.572789)
(-2.25201e-16 -3.84866 -0.707852)
(-3.0265e-17 -3.58191 -0.547102)
(-7.6307e-17 -2.88658 -0.679279)
(-2.09977e-13 0.306741 0.597665)
(-2.64982e-13 0.497928 0.663989)
(-2.20069e-13 0.616142 0.74946)
(-2.15028e-13 0.748178 0.872059)
(-3.10684e-13 0.880884 1.02128)
(-4.20852e-13 1.02388 1.20756)
(-3.80093e-13 1.17703 1.441)
(-1.7947e-13 1.34054 1.75235)
(2.73392e-14 1.51093 2.19955)
(1.18016e-13 1.69579 2.87445)
(1.01446e-13 1.96224 3.87494)
(4.62855e-14 2.44296 5.17874)
(1.68538e-15 2.97939 6.45954)
(-1.4122e-14 2.48445 6.41301)
(-7.66402e-15 -0.507939 2.47715)
(-2.27305e-15 -3.09847 -0.648842)
(-4.14842e-16 -3.88179 -0.413558)
(-5.11222e-17 -3.59261 -0.316745)
(-6.16381e-17 -2.92872 -0.461319)
(-5.7725e-13 0.289305 0.701758)
(-7.70304e-13 0.463589 0.787048)
(-6.73681e-13 0.56744 0.888436)
(-6.3367e-13 0.686039 1.03333)
(-7.9967e-13 0.803963 1.20753)
(-1.04071e-12 0.927823 1.4242)
(-1.0169e-12 1.05096 1.70009)
(-6.3861e-13 1.16129 2.08875)
(-1.8503e-13 1.23917 2.69282)
(5.23887e-14 1.28044 3.662)
(7.09396e-14 1.37878 5.13287)
(2.03897e-14 1.79328 7.02273)
(-1.30447e-14 2.63592 8.81795)
(-1.87396e-14 3.19329 9.21424)
(-9.88306e-15 1.4529 5.92108)
(-5.08338e-16 -2.47992 -0.280607)
(-6.5168e-16 -3.99531 -0.190922)
(-1.55787e-16 -3.53721 0.0225731)
(-3.38215e-16 -3.00233 -0.30208)
(-1.2456e-12 0.268397 0.805661)
(-1.56096e-12 0.425157 0.91455)
(-1.32472e-12 0.514639 1.03393)
(-1.27902e-12 0.619482 1.20339)
(-1.63881e-12 0.722105 1.40422)
(-2.08092e-12 0.824315 1.65358)
(-1.98022e-12 0.907602 1.97975)
(-1.22777e-12 0.939155 2.47085)
(-3.91317e-13 0.878666 3.28237)
(9.45525e-15 0.719928 4.58171)
(4.63057e-14 0.615517 6.40609)
(2.51621e-15 0.994002 8.40607)
(-1.27391e-14 2.16303 9.87252)
(-4.38046e-15 3.65887 10.1156)
(3.85172e-15 3.3334 8.25808)
(1.62463e-16 -0.953808 2.76032)
(1.23236e-16 -3.83979 -0.497956)
(4.8776e-16 -3.432 0.624029)
(1.52429e-15 -2.63409 0.46128)
(-2.19224e-12 0.240629 0.912577)
(-2.49067e-12 0.376748 1.05053)
(-2.07284e-12 0.45058 1.19054)
(-2.17351e-12 0.539827 1.38768)
(-2.88972e-12 0.624798 1.61838)
(-3.5016e-12 0.699297 1.90585)
(-3.10524e-12 0.725185 2.29264)
(-1.76198e-12 0.639498 2.89865)
(-4.89152e-13 0.39223 3.89092)
(1.49455e-14 0.0335453 5.31068)
(4.08613e-14 -0.139247 6.90733)
(1.08063e-14 0.447137 7.99392)
(3.22067e-14 1.98424 7.89768)
(7.01844e-14 3.86883 7.50887)
(6.48153e-14 4.36552 7.86647)
(1.48487e-14 1.10219 6.4472)
(-1.76243e-15 -3.46836 0.60105)
(-2.20176e-15 -3.91934 0.192503)
(-5.5365e-15 -2.86782 -0.976105)
(-3.18784e-12 0.205923 1.02537)
(-3.27151e-12 0.318913 1.19759)
(-2.81527e-12 0.376896 1.36107)
(-3.32032e-12 0.449197 1.58947)
(-4.45483e-12 0.514206 1.85492)
(-5.03319e-12 0.554603 2.18643)
(-4.10207e-12 0.509981 2.62777)
(-2.0993e-12 0.302438 3.2719)
(-4.88259e-13 -0.0710786 4.13919)
(3.44591e-14 -0.453882 5.05584)
(5.99726e-14 -0.445793 5.73316)
(6.88794e-14 0.574435 5.30131)
(1.43665e-13 2.25017 4.22613)
(2.02478e-13 3.61509 4.43564)
(1.43222e-13 3.83821 7.18102)
(3.02733e-14 2.23432 9.56158)
(-8.88106e-16 -0.937394 5.0424)
(3.89872e-15 -2.29049 1.43332)
(1.07381e-14 -1.80021 2.86506)
(-3.79821e-12 0.162777 1.14494)
(-3.62976e-12 0.249116 1.35678)
(-3.50789e-12 0.29089 1.54747)
(-4.59994e-12 0.343997 1.8119)
(-5.9619e-12 0.385967 2.1172)
(-6.21498e-12 0.390543 2.48952)
(-4.73422e-12 0.290566 2.93487)
(-2.31217e-12 0.0285508 3.43013)
(-5.50789e-13 -0.335789 3.86003)
(4.09834e-14 -0.613983 4.15747)
(1.22611e-13 -0.310723 4.04027)
(1.6082e-13 0.999506 3.10745)
(2.4848e-13 2.28242 3.02436)
(2.72352e-13 2.69986 5.06301)
(1.47083e-13 2.30384 9.18818)
(3.10297e-14 1.36145 13.36)
(3.18238e-14 -0.745493 13.8789)
(4.96759e-14 -3.14374 12.3044)
(6.00252e-14 -5.38059 14.2877)
(-3.52946e-12 0.109895 1.26662)
(-3.46363e-12 0.165372 1.52164)
(-4.06331e-12 0.190556 1.74357)
(-5.58845e-12 0.222402 2.04831)
(-6.75107e-12 0.242663 2.39346)
(-6.53917e-12 0.229255 2.78717)
(-4.91431e-12 0.135769 3.17714)
(-2.71958e-12 -0.0711358 3.44331)
(-1.08644e-12 -0.346848 3.44382)
(-2.53884e-13 -0.497961 3.16183)
(6.70047e-14 -0.0309751 2.55225)
(1.9665e-13 0.973531 2.29393)
(2.73545e-13 1.49735 3.91374)
(2.16813e-13 1.20214 7.01855)
(7.02697e-14 0.680129 10.6038)
(1.17844e-14 0.37675 13.5737)
(4.35713e-14 -0.706572 14.5707)
(5.71423e-14 -2.46136 13.0611)
(3.97757e-14 -3.13804 9.02012)
(-2.00033e-12 0.0481259 1.3633)
(-2.73593e-12 0.0678894 1.65664)
(-4.03796e-12 0.0763211 1.90734)
(-5.43925e-12 0.0864017 2.24876)
(-6.02758e-12 0.0900601 2.62727)
(-5.54498e-12 0.0759053 3.02955)
(-4.35446e-12 0.0212718 3.35104)
(-2.93918e-12 -0.0908262 3.38905)
(-1.63911e-12 -0.231934 2.92885)
(-6.5102e-13 -0.271945 2.01091)
(-6.11718e-14 0.0205119 1.28135)
(1.93292e-13 0.3933 2.33963)
(2.28504e-13 0.407442 4.99377)
(1.01499e-13 0.0650825 7.20289)
(-4.29773e-14 -0.23264 7.91063)
(-5.597e-14 -0.222815 8.15505)
(5.79624e-15 -0.277365 7.83462)
(2.81542e-14 -0.291521 5.61252)
(5.15567e-15 0.635133 1.66514)
(1.16016e-12 -0.0219703 1.35052)
(-9.26103e-13 -0.0412448 1.64205)
(-2.32811e-12 -0.0507913 1.89015)
(-3.02542e-12 -0.0631441 2.22984)
(-3.06055e-12 -0.0694209 2.60747)
(-2.54727e-12 -0.0579609 3.0109)
(-1.65972e-12 -0.00709471 3.33754)
(-7.5127e-13 0.0976582 3.38532)
(-1.93403e-13 0.222517 2.92734)
(1.37334e-14 0.219408 1.96321)
(7.34853e-14 -0.148894 1.0617)
(1.5135e-13 -0.51417 1.99354)
(1.91467e-13 -0.427757 4.7693)
(1.04296e-13 0.0307086 7.16257)
(-1.7281e-14 0.354993 7.98384)
(-5.32804e-14 0.239081 8.18794)
(-3.69349e-14 0.20858 7.70897)
(-2.90301e-14 0.235883 5.48198)
(-2.01158e-14 -0.665555 1.57559)
(2.90007e-12 -0.083734 1.23537)
(9.14798e-13 -0.137831 1.48814)
(-9.24647e-13 -0.164275 1.70696)
(-1.68423e-12 -0.199078 2.00963)
(-1.60876e-12 -0.223153 2.3534)
(-1.17614e-12 -0.214846 2.74808)
(-6.47875e-13 -0.128836 3.14337)
(-1.76267e-13 0.0700253 3.42013)
(4.84963e-14 0.346195 3.4288)
(6.39373e-14 0.506914 3.13085)
(3.93476e-14 0.0210483 2.41018)
(7.92907e-14 -1.04966 1.89426)
(1.31612e-13 -1.59074 3.42701)
(1.01603e-13 -1.21121 6.67728)
(8.3409e-15 -0.602893 10.4449)
(-4.15532e-14 -0.338346 13.4718)
(-4.79136e-14 0.650292 14.5237)
(-4.89478e-14 2.39272 13.058)
(-3.77577e-14 3.11126 8.99936)
(3.32688e-12 -0.135695 1.10385)
(2.19127e-12 -0.220377 1.3143)
(2.58589e-13 -0.263413 1.50478)
(-7.61058e-13 -0.319488 1.76921)
(-8.01612e-13 -0.365431 2.07404)
(-4.35268e-13 -0.375689 2.44685)
(-1.30948e-13 -0.283766 2.8941)
(3.33169e-14 -0.0301259 3.39195)
(6.97075e-14 0.332996 3.82222)
(3.56508e-14 0.624382 4.11608)
(9.94233e-15 0.339284 3.98045)
(2.46828e-14 -1.00418 2.91407)
(6.17941e-14 -2.3437 2.63384)
(6.90397e-14 -2.74546 4.61881)
(1.50389e-14 -2.27939 8.84418)
(-3.54924e-14 -1.38396 13.2284)
(-4.81441e-14 0.665904 14.0096)
(-4.92275e-14 3.09582 12.4256)
(-6.03629e-14 5.36643 14.2978)
(2.74343e-12 -0.178729 0.98059)
(2.49496e-12 -0.29063 1.15186)
(9.70541e-13 -0.350181 1.31742)
(-1.19103e-13 -0.425344 1.54824)
(-3.38708e-13 -0.49424 1.81571)
(-5.98161e-14 -0.540336 2.14885)
(1.42883e-13 -0.503485 2.59017)
(1.46817e-13 -0.303396 3.23041)
(7.54672e-14 0.0704425 4.09006)
(2.16286e-14 0.468781 5.00049)
(9.56904e-16 0.490505 5.68231)
(2.06795e-15 -0.5262 5.21728)
(1.40253e-14 -2.24294 4.00189)
(2.30852e-14 -3.63702 4.04644)
(4.81128e-15 -3.8656 6.77685)
(-1.91713e-14 -2.36386 9.50951)
(-1.12001e-14 0.775613 5.31092)
(-3.74831e-15 2.2669 1.46422)
(-1.01821e-14 1.80863 2.87088)
(1.76485e-12 -0.212722 0.865404)
(2.00629e-12 -0.348755 1.00162)
(1.10921e-12 -0.424927 1.14506)
(2.31682e-13 -0.517208 1.34666)
(-7.57943e-14 -0.605902 1.58201)
(9.79276e-14 -0.685381 1.87321)
(2.56106e-13 -0.71743 2.26099)
(2.14338e-13 -0.637289 2.86345)
(9.9077e-14 -0.389991 3.84878)
(2.53052e-14 -0.0192066 5.26445)
(2.06412e-15 0.181336 6.87011)
(-6.95057e-16 -0.380287 7.97161)
(-4.72524e-16 -1.92189 7.81883)
(-7.24767e-16 -3.84676 7.30361)
(-4.52335e-15 -4.46291 7.64908)
(-7.48292e-15 -1.4041 6.58591)
(9.68613e-16 3.3309 0.730976)
(2.07024e-15 3.96063 0.129437)
(4.86358e-15 2.85722 -0.97537)
(8.9767e-13 -0.239926 0.755429)
(1.20544e-12 -0.397877 0.861622)
(8.19155e-13 -0.491024 0.985267)
(2.9345e-13 -0.599279 1.16076)
(4.3303e-14 -0.705467 1.36805)
(1.38223e-13 -0.811879 1.62318)
(2.59971e-13 -0.899889 1.9526)
(2.27783e-13 -0.935608 2.44337)
(1.18627e-13 -0.875484 3.25242)
(3.77322e-14 -0.707704 4.55365)
(6.44175e-15 -0.579617 6.39317)
(1.25793e-15 -0.929046 8.42004)
(9.05064e-16 -2.08805 9.89963)
(-5.9852e-16 -3.63703 10.1367)
(-2.10092e-15 -3.50026 8.365)
(-8.79975e-16 0.632409 3.10373)
(1.12318e-16 3.77251 -0.579769)
(-6.54831e-16 3.4644 0.597854)
(-1.345e-15 2.61846 0.467923)
(3.5434e-13 -0.259495 0.647585)
(5.20689e-13 -0.436387 0.730328)
(3.92859e-13 -0.545657 0.836497)
(1.65773e-13 -0.66831 0.988315)
(5.27428e-14 -0.789807 1.17009)
(1.21927e-13 -0.917345 1.39401)
(2.06858e-13 -1.0442 1.67521)
(1.92389e-13 -1.15779 2.06651)
(1.15202e-13 -1.23649 2.67138)
(4.58167e-14 -1.2718 3.64368)
(1.17417e-14 -1.352 5.12742)
(3.21347e-15 -1.74115 7.04668)
(2.71239e-15 -2.57761 8.88392)
(2.85344e-15 -3.20394 9.3464)
(1.79993e-15 -1.64858 6.19153)
(5.80769e-16 2.31337 -0.153939)
(5.18991e-17 3.96558 -0.24892)
(7.16429e-18 3.54743 0.0184594)
(2.05251e-16 2.98933 -0.294369)
(1.02439e-13 -0.276936 0.540986)
(1.2606e-13 -0.472109 0.605926)
(6.86872e-14 -0.597417 0.696552)
(-2.63851e-16 -0.734084 0.825842)
(4.16436e-15 -0.870459 0.982766)
(8.24619e-14 -1.01672 1.17695)
(1.39854e-13 -1.17275 1.41709)
(1.33258e-13 -1.33866 1.73313)
(8.96373e-14 -1.5097 2.18339)
(4.26899e-14 -1.69033 2.86208)
(1.38827e-14 -1.9436 3.87302)
(4.38317e-15 -2.40647 5.20281)
(2.76723e-15 -2.94846 6.52935)
(3.11854e-15 -2.54201 6.57144)
(2.06419e-15 0.295782 2.78443)
(2.69418e-16 2.95928 -0.667184)
(7.09465e-17 3.8638 -0.42742)
(-9.56813e-17 3.59851 -0.323818)
(-8.56151e-17 2.91678 -0.45617)
(1.86153e-14 -0.285716 0.434364)
(-2.45143e-14 -0.493712 0.493407)
(-8.30204e-14 -0.630593 0.573218)
(-1.0591e-13 -0.777206 0.685115)
(-4.94832e-14 -0.924434 0.821708)
(4.06062e-14 -1.08386 0.99112)
(8.42291e-14 -1.25845 1.19884)
(7.7823e-14 -1.45456 1.46241)
(5.6371e-14 -1.67597 1.81423)
(3.12383e-14 -1.93424 2.30387)
(1.18428e-14 -2.28325 2.97135)
(4.27134e-15 -2.79434 3.75915)
(2.13157e-15 -3.11476 4.42616)
(2.02505e-15 -1.847 3.93659)
(9.00884e-16 1.63856 0.372312)
(3.0884e-16 3.44349 -0.584058)
(2.93632e-17 3.81883 -0.709361)
(-7.45691e-17 3.5849 -0.550591)
(-3.46958e-17 2.87454 -0.675)
(-1.58582e-15 -0.303422 0.298154)
(-4.4116e-14 -0.530515 0.344879)
(-9.09139e-14 -0.680624 0.40471)
(-1.06367e-13 -0.840846 0.487929)
(-6.05632e-14 -1.00258 0.589967)
(6.36642e-15 -1.17936 0.716566)
(3.43658e-14 -1.37587 0.871032)
(2.78155e-14 -1.60264 1.06228)
(1.94336e-14 -1.86757 1.30501)
(1.21144e-14 -2.17758 1.61781)
(4.78823e-15 -2.55443 1.99865)
(1.82489e-15 -2.99795 2.36432)
(6.97026e-16 -2.98808 2.52245)
(7.37806e-16 -0.913112 1.87449)
(5.44928e-16 2.03367 0.0130766)
(2.83713e-16 3.54299 -0.604407)
(3.6492e-17 3.83506 -0.898322)
(-8.18236e-17 3.60033 -0.723862)
(-4.1723e-17 2.78383 -0.791849)
(-2.14603e-16 8.00616 14.3709)
(-6.30497e-15 10.6278 17.1944)
(-5.38348e-15 9.60074 16.3334)
(-5.38788e-15 9.92775 15.6243)
(-4.52188e-15 9.62797 15.6971)
(-2.64279e-15 9.96901 15.4211)
(-1.59084e-15 9.66619 15.051)
(-8.88981e-16 9.70841 14.8675)
(-6.9144e-16 9.62408 14.8708)
(6.44957e-16 9.57096 14.9081)
(1.53857e-15 9.60848 14.9157)
(1.84323e-15 9.40022 15.0908)
(1.66137e-15 9.61497 15.022)
(1.84403e-15 9.16931 15.3383)
(1.82797e-15 9.68031 15.0947)
(1.90346e-15 8.86073 15.5935)
(1.60488e-15 9.80769 15.1071)
(1.42048e-15 8.59784 16.0251)
(1.71491e-15 9.0917 13.5424)
(1.07068e-15 9.3304 18.3451)
(1.30661e-16 8.0216 14.139)
(-8.43029e-15 9.51901 15.6508)
(-6.47628e-15 8.30086 14.8844)
(-6.38744e-15 8.82343 14.4021)
(-6.18313e-15 8.26644 14.7158)
(-7.91302e-15 8.73604 14.5105)
(-5.40485e-15 8.45884 14.8184)
(-4.52813e-15 8.73044 14.7289)
(-5.49094e-15 8.63632 14.8006)
(-5.28582e-15 8.67887 14.8083)
(-5.78877e-15 8.77299 14.7631)
(-6.00037e-15 8.60891 14.8861)
(-6.19399e-15 8.90733 14.7123)
(-6.50662e-15 8.48753 14.9846)
(-6.53269e-15 9.0658 14.6369)
(-6.18602e-15 8.30386 15.1091)
(-6.39441e-15 9.24944 14.5411)
(-6.47322e-15 8.16268 15.4053)
(-6.31675e-15 8.61963 13.0051)
(-5.95967e-15 8.76686 16.9586)
(6.03486e-17 8.58455 15.3157)
(-3.32443e-15 10.0483 16.5969)
(-2.41933e-15 8.95296 15.77)
(-2.24675e-15 9.25005 15.0467)
(-1.66646e-15 8.74352 15.1184)
(-5.73767e-15 9.0343 14.8807)
(-4.50851e-15 8.7768 14.9566)
(-3.39342e-15 8.8958 14.867)
(-3.3862e-15 8.81002 14.8847)
(-3.27248e-15 8.79113 14.8833)
(-3.22302e-15 8.844 14.8323)
(-2.99676e-15 8.68473 14.9242)
(-3.1537e-15 8.90511 14.7815)
(-3.15917e-15 8.55278 15.0034)
(-2.86931e-15 9.0108 14.7188)
(-3.34384e-15 8.3814 15.1096)
(-2.97656e-15 9.15311 14.6404)
(-3.00551e-15 8.27112 15.3764)
(-3.16351e-15 8.57892 13.2896)
(-2.47042e-15 8.7148 16.5128)
(-2.24343e-17 8.80414 15.5869)
(9.75452e-16 10.2657 17.1027)
(8.51531e-16 9.19224 16.039)
(7.43882e-16 9.25285 15.0662)
(7.26668e-16 8.71739 14.9559)
(-3.33596e-15 8.92556 14.7206)
(-2.73385e-15 8.71039 14.7958)
(-2.16938e-15 8.80448 14.7261)
(-2.48614e-15 8.73134 14.7334)
(-2.42393e-15 8.70648 14.7281)
(-2.58531e-15 8.74359 14.6761)
(-2.19868e-15 8.60834 14.7457)
(-2.66651e-15 8.7778 14.623)
(-2.42536e-15 8.49614 14.8026)
(-2.2989e-15 8.85033 14.5676)
(-2.72245e-15 8.35673 14.8841)
(-2.49071e-15 8.94922 14.5026)
(-2.40353e-15 8.28669 15.1166)
(-2.96632e-15 8.43854 13.3899)
(-2.43754e-15 8.48295 15.6497)
(-8.89601e-18 9.09761 16.0187)
(-1.94526e-16 10.9075 18.3084)
(-1.97339e-16 9.84521 16.9028)
(-1.72134e-16 9.52278 15.4476)
(-2.00528e-16 8.90192 14.9465)
(7.58778e-16 8.94583 14.6454)
(8.29185e-16 8.78017 14.6651)
(6.31962e-16 8.81585 14.6273)
(6.77124e-16 8.76127 14.6194)
(6.5847e-16 8.7161 14.6139)
(6.58823e-16 8.72987 14.5661)
(6.40774e-16 8.61709 14.6142)
(6.75072e-16 8.72258 14.5249)
(6.80079e-16 8.51587 14.657)
(6.35121e-16 8.75042 14.4901)
(7.19287e-16 8.39838 14.7218)
(6.64739e-16 8.79857 14.449)
(6.78468e-16 8.35108 14.9233)
(7.01756e-16 8.3854 13.6254)
(6.22864e-16 8.26138 14.8851)
(6.66767e-18 9.34413 16.3321)
(-4.31692e-18 11.7635 19.849)
(-3.88888e-18 10.6239 18.0257)
(-4.5384e-18 9.83546 15.9032)
(-9.8392e-19 9.00633 14.8803)
(-1.33221e-16 8.88331 14.431)
(-1.53159e-16 8.74813 14.4183)
(-1.23145e-16 8.76017 14.4098)
(-1.24318e-16 8.71802 14.4009)
(-1.30641e-16 8.667 14.3903)
(-1.33585e-16 8.66026 14.3501)
(-1.40572e-16 8.57281 14.3793)
(-1.42678e-16 8.62475 14.3208)
(-1.49133e-16 8.48423 14.4096)
(-1.45878e-16 8.61444 14.3039)
(-1.53718e-16 8.38669 14.4576)
(-1.51937e-16 8.61349 14.284)
(-1.46302e-16 8.35268 14.6232)
(-1.22886e-16 8.29459 13.7406)
(-1.30082e-16 7.94808 14.0061)
(-7.64392e-19 9.65457 16.8002)
(1.30788e-17 12.8769 21.7264)
(1.42197e-17 11.4585 19.3591)
(1.35695e-17 10.1484 16.4125)
(1.78635e-17 9.02017 14.8341)
(-1.64621e-18 8.76511 14.204)
(-1.85302e-17 8.65103 14.1825)
(-1.73759e-17 8.67098 14.1984)
(-1.24829e-17 8.63771 14.1924)
(-8.80793e-18 8.59078 14.1709)
(-5.56373e-18 8.56928 14.1339)
(-2.57743e-18 8.50417 14.1433)
(-7.08887e-19 8.51629 14.1039)
(1.10663e-18 8.42429 14.1525)
(2.12595e-18 8.47567 14.0888)
(3.04073e-18 8.33776 14.1738)
(4.70786e-18 8.43148 14.0711)
(3.51061e-18 8.29673 14.2821)
(-4.5276e-18 8.18893 13.7513)
(1.37229e-17 7.56108 13.0942)
(-7.33611e-19 10.1281 17.6037)
(-1.61509e-18 14.0316 23.5492)
(-1.14277e-18 12.0103 20.4188)
(-9.12263e-19 10.2446 16.664)
(-1.99371e-18 8.8625 14.7565)
(5.45664e-18 8.61171 14.0378)
(1.1039e-17 8.5213 14.0481)
(1.04596e-17 8.57511 14.0656)
(9.06966e-18 8.54613 14.0515)
(9.08486e-18 8.50771 14.0048)
(9.12859e-18 8.47469 13.9549)
(9.11301e-18 8.42385 13.9346)
(8.94106e-18 8.4061 13.8951)
(8.76641e-18 8.34404 13.9015)
(8.6265e-18 8.33801 13.8555)
(8.71978e-18 8.25493 13.8769)
(8.1478e-18 8.2509 13.8084)
(7.73249e-18 8.1797 13.8946)
(6.51579e-18 8.03532 13.6001)
(1.33114e-18 7.09395 12.1337)
(4.67558e-19 10.8794 18.9549)
(-1.25571e-18 14.8634 24.7676)
(-1.97253e-18 11.9829 20.7323)
(-2.06354e-18 10.1186 16.5754)
(-2.83717e-18 8.71449 14.8195)
(1.43954e-18 8.63392 14.131)
(3.82237e-18 8.54111 14.1656)
(3.23114e-18 8.62233 14.1306)
(2.52429e-18 8.57482 14.0703)
(1.81596e-18 8.52425 13.9649)
(1.29229e-18 8.46677 13.8696)
(9.16021e-19 8.40767 13.7991)
(6.75363e-19 8.35804 13.7334)
(5.13195e-19 8.29836 13.6904)
(2.73519e-19 8.24625 13.6335)
(2.90947e-20 8.17549 13.5928)
(-7.67646e-20 8.09823 13.5146)
(2.53609e-20 8.0203 13.4746)
(1.52121e-18 7.82502 13.2614)
(1.0929e-19 6.55721 11.1402)
(-1.58314e-19 11.8161 20.6557)
(8.12211e-19 14.9963 24.9179)
(1.16222e-18 11.5951 20.4948)
(1.13034e-18 10.2213 16.7392)
(1.58864e-18 9.02483 15.4254)
(-1.89835e-18 9.06394 14.6807)
(-4.31068e-18 8.89407 14.556)
(-4.09131e-18 8.91898 14.3711)
(-3.44118e-18 8.81637 14.1934)
(-3.13874e-18 8.71043 13.9883)
(-2.95913e-18 8.6031 13.8114)
(-2.82298e-18 8.50402 13.6691)
(-2.70541e-18 8.40822 13.5518)
(-2.62401e-18 8.31753 13.4512)
(-2.47436e-18 8.215 13.3562)
(-2.36198e-18 8.11229 13.2509)
(-2.2069e-18 7.96266 13.1206)
(-2.16845e-18 7.81323 12.9447)
(-2.58671e-18 7.51571 12.6593)
(-8.25558e-19 5.93385 10.0204)
(3.78791e-20 12.5796 22.0532)
(-2.83041e-19 14.5843 24.3545)
(-3.7227e-19 11.761 20.8522)
(-3.41402e-19 11.0168 17.9443)
(-4.92982e-19 9.98727 16.7109)
(6.8934e-19 9.87035 15.7206)
(1.66333e-18 9.56274 15.1987)
(1.76603e-18 9.40326 14.7368)
(1.62472e-18 9.20339 14.3411)
(1.55004e-18 9.01129 13.9916)
(1.51951e-18 8.83185 13.6972)
(1.50134e-18 8.66704 13.4555)
(1.48014e-18 8.50781 13.257)
(1.46781e-18 8.35749 13.0811)
(1.4274e-18 8.18964 12.9185)
(1.40581e-18 8.01837 12.7326)
(1.34833e-18 7.77525 12.5085)
(1.33367e-18 7.5062 12.1668)
(1.37052e-18 7.02963 11.69)
(5.50261e-19 5.16111 8.57542)
(-6.84428e-21 12.8352 22.6257)
(7.24546e-20 14.5847 24.4699)
(8.8351e-20 12.8485 22.3869)
(7.75605e-20 12.2119 19.8112)
(1.16232e-19 11.1692 18.2684)
(-1.64722e-19 10.7546 16.9253)
(-4.40827e-19 10.29 15.9805)
(-5.08848e-19 9.94404 15.2058)
(-4.87385e-19 9.62994 14.5594)
(-4.71792e-19 9.33471 14.0113)
(-4.70271e-19 9.06304 13.5474)
(-4.73932e-19 8.81186 13.1588)
(-4.76917e-19 8.57017 12.8325)
(-4.81881e-19 8.33648 12.541)
(-4.80374e-19 8.08095 12.2665)
(-4.84815e-19 7.811 11.9587)
(-4.78693e-19 7.43985 11.5891)
(-4.86383e-19 7.0189 11.0285)
(-4.83911e-19 6.28645 10.278)
(-2.36478e-19 4.1608 6.61668)
(9.48586e-22 12.7561 22.7574)
(-1.44387e-20 15.7054 26.0875)
(-1.69124e-20 14.1073 24.3479)
(-1.43254e-20 13.385 21.5882)
(-2.18438e-20 12.2074 19.855)
(2.95823e-20 11.6306 18.2348)
(8.63413e-20 11.0155 16.982)
(1.05632e-19 10.5178 15.8977)
(1.03767e-19 10.0689 14.9643)
(1.0074e-19 9.65032 14.1573)
(1.00853e-19 9.26284 13.4596)
(1.02808e-19 8.90033 12.859)
(1.05236e-19 8.54975 12.3388)
(1.08415e-19 8.2044 11.8667)
(1.11002e-19 7.82926 11.4149)
(1.15328e-19 7.42753 10.9193)
(1.18329e-19 6.89137 10.3416)
(1.25713e-19 6.29667 9.50693)
(1.29212e-19 5.25616 8.41981)
(8.15889e-20 2.9198 4.11073)
(-1.02714e-22 12.9567 23.5468)
(2.34755e-21 17.3696 28.1807)
(2.72295e-21 14.9201 26.05)
(2.23309e-21 14.3687 22.9966)
(3.37949e-21 12.9694 21.3792)
(-4.41143e-21 12.4208 19.5867)
(-1.34587e-20 11.6464 18.1702)
(-1.69441e-20 11.0339 16.8197)
(-1.67958e-20 10.4435 15.6121)
(-1.61754e-20 9.88921 14.5222)
(-1.60648e-20 9.36709 13.5441)
(-1.63826e-20 8.86901 12.6691)
(-1.69274e-20 8.38022 11.8813)
(-1.77177e-20 7.89143 11.1472)
(-1.86108e-20 7.36301 10.4363)
(-1.99612e-20 6.8011 9.67863)
(-2.14149e-20 6.08544 8.83783)
(-2.40847e-20 5.31705 7.70466)
(-2.68175e-20 3.95444 6.20016)
(-2.63528e-20 1.55155 1.29953)
(8.63681e-24 13.7909 25.6907)
(-3.26633e-22 18.6468 29.4151)
(-3.79936e-22 15.0544 27.0999)
(-3.02822e-22 15.1184 23.972)
(-4.48197e-22 13.3512 22.6774)
(6.01722e-22 12.9943 20.7458)
(1.81072e-21 12.0112 19.3151)
(2.27615e-21 11.3478 17.7834)
(2.23677e-21 10.6216 16.3941)
(2.11493e-21 9.94507 15.0684)
(2.06136e-21 9.28525 13.825)
(2.07753e-21 8.64024 12.6555)
(2.14139e-21 7.99378 11.5526)
(2.25529e-21 7.34273 10.4907)
(2.41074e-21 6.64803 9.45375)
(2.65747e-21 5.929 8.38119)
(2.97728e-21 5.05342 7.24757)
(3.56434e-21 4.12921 5.79826)
(4.46942e-21 2.39576 3.74783)
(2.4132e-21 0.289388 -1.12863)
(-4.30606e-25 14.867 28.5789)
(4.03609e-23 19.1055 29.3686)
(4.68229e-23 14.7077 27.5697)
(3.63804e-23 15.6538 24.5798)
(5.25348e-23 13.4193 23.5756)
(-7.77978e-23 13.3331 21.5162)
(-2.2084e-22 12.1345 20.1536)
(-2.70936e-22 11.5108 18.5325)
(-2.60242e-22 10.6895 17.0884)
(-2.39808e-22 9.96187 15.6327)
(-2.27566e-22 9.2164 14.222)
(-2.23915e-22 8.47995 12.8312)
(-2.26365e-22 7.73236 11.4704)
(-2.34866e-22 6.98841 10.1229)
(-2.49301e-22 6.19222 8.77794)
(-2.76255e-22 5.35415 7.35092)
(-3.19222e-22 4.27881 5.81872)
(-4.0378e-22 3.12226 3.93852)
(-6.90721e-22 0.870136 1.2981)
(2.29211e-21 -0.912579 -3.43054)
(-2.76889e-26 15.3512 30.6929)
(-4.65109e-24 18.8278 28.4497)
(-5.31087e-24 14.2527 27.8111)
(-4.00657e-24 15.7235 24.9519)
(-5.83062e-24 13.2654 24.0521)
(1.02788e-23 13.2864 22.0293)
(2.60209e-23 12.045 20.7332)
(3.02003e-23 11.4976 19.153)
(2.78448e-23 10.6926 17.7615)
(2.46695e-23 10.034 16.3202)
(2.23967e-23 9.34394 14.9136)
(2.09333e-23 8.69345 13.507)
(1.99432e-23 8.06066 12.1324)
(1.93262e-23 7.45408 10.739)
(1.91426e-23 6.70044 9.17446)
(1.9966e-23 5.68158 7.15047)
(2.2329e-23 4.09747 4.72402)
(2.95082e-23 2.46669 2.20696)
(-8.51621e-25 -0.0900636 -0.377594)
(4.68595e-22 -1.68353 -4.71458)
(2.34891e-26 14.548 31.1512)
(4.88371e-25 18.3098 27.8034)
(5.04313e-25 13.6512 27.8753)
(3.91729e-25 14.7186 25.4026)
(2.87399e-25 12.5951 24.4428)
(-1.37795e-24 12.2405 22.7822)
(-2.55035e-24 11.155 21.5431)
(-2.64915e-24 10.5122 20.177)
(-2.35082e-24 9.75534 18.9203)
(-2.07616e-24 9.12708 17.6457)
(-1.90839e-24 8.51243 16.4117)
(-1.82209e-24 7.98519 15.222)
(-1.79715e-24 7.52733 14.1043)
(-1.82412e-24 7.03751 12.8651)
(-1.84286e-24 6.09001 10.896)
(-1.82642e-24 4.25586 7.35668)
(-1.85209e-24 1.26828 2.378)
(3.22788e-24 -1.41711 -3.12746)
(5.22658e-23 -3.89721 -4.91398)
(-5.5804e-23 -3.3646 -8.19961)
(-4.7366e-27 11.4612 28.811)
(-4.48207e-26 17.1227 25.3808)
(-4.06767e-26 12.1659 25.7505)
(-2.46282e-26 12.7682 24.0612)
(1.43278e-26 11.0357 23.3242)
(1.27285e-25 10.3507 22.2538)
(1.69185e-25 9.35846 21.3537)
(1.51353e-25 8.57589 20.4238)
(1.25165e-25 7.80373 19.5229)
(1.06592e-25 7.10566 18.6207)
(9.55478e-26 6.46145 17.7291)
(8.92309e-26 5.88711 16.868)
(8.48479e-26 5.35949 16.0111)
(7.90062e-26 4.72698 14.9025)
(8.17831e-26 3.62574 12.878)
(1.6375e-25 1.69506 9.16934)
(3.32775e-25 -0.760102 4.03358)
(-7.52907e-25 -2.69018 -0.607612)
(-9.99034e-24 -3.40585 -3.2334)
(-4.49326e-23 -2.20766 -3.77595)
(8.12378e-28 2.69915 17.1307)
(2.78366e-27 8.07312 13.7671)
(1.88959e-27 5.1779 14.6615)
(2.83722e-28 4.97744 14.2773)
(-2.45148e-27 4.02777 14.2573)
(-6.04071e-27 3.44103 14.0997)
(-6.17305e-27 2.83978 13.963)
(-4.90611e-27 2.34327 13.794)
(-3.85466e-27 1.90599 13.6083)
(-3.1963e-27 1.53997 13.3971)
(-2.80169e-27 1.23943 13.1602)
(-2.53955e-27 1.00692 12.8988)
(-2.28582e-27 0.847868 12.6339)
(-1.99497e-27 0.793076 12.4048)
(-2.27044e-27 0.892295 12.2367)
(-4.87088e-27 1.1374 12.0773)
(-7.63855e-27 1.56901 11.6848)
(1.40499e-26 2.45232 10.6596)
(1.21084e-25 2.85404 9.15502)
(3.03536e-25 -0.0277117 7.04645)
(-8.12352e-28 -2.6991 17.1306)
(-2.7871e-27 -8.0731 13.767)
(-1.89889e-27 -5.17788 14.6614)
(-2.95221e-28 -4.9774 14.2773)
(2.44085e-27 -4.02773 14.2572)
(6.04211e-27 -3.44099 14.0997)
(6.15294e-27 -2.83972 13.9631)
(4.87668e-27 -2.34315 13.7942)
(3.82293e-27 -1.90578 13.6085)
(3.17457e-27 -1.53965 13.3973)
(2.78867e-27 -1.23897 13.1602)
(2.52832e-27 -1.00637 12.8988)
(2.27703e-27 -0.847369 12.6341)
(1.99839e-27 -0.79286 12.4055)
(2.29887e-27 -0.892559 12.2378)
(4.82927e-27 -1.13816 12.0785)
(6.90814e-27 -1.57004 11.6855)
(-1.72027e-26 -2.45339 10.6601)
(-1.28978e-25 -2.85505 9.15568)
(-3.13749e-25 0.0274784 7.04705)
(4.73341e-27 -11.4615 28.8114)
(4.48457e-26 -17.1225 25.381)
(4.08179e-26 -12.1657 25.751)
(2.48576e-26 -12.7679 24.0619)
(-1.39532e-26 -11.0352 23.3252)
(-1.27487e-25 -10.3501 22.255)
(-1.68842e-25 -9.35761 21.3551)
(-1.50616e-25 -8.57481 20.4254)
(-1.24092e-25 -7.80231 19.5247)
(-1.05707e-25 -7.10386 18.6225)
(-9.50312e-26 -6.45916 17.7308)
(-8.88105e-26 -5.88422 16.8695)
(-8.44365e-26 -5.35565 16.0117)
(-7.88506e-26 -4.72145 14.9007)
(-8.28919e-26 -3.61786 12.8724)
(-1.66058e-25 -1.68603 9.16112)
(-3.1852e-25 0.766494 4.02799)
(8.67574e-25 2.69099 -0.607391)
(1.03649e-23 3.40264 -3.22814)
(4.53187e-23 2.20505 -3.76818)
(-2.3471e-26 -14.5487 31.1527)
(-4.88435e-25 -18.3109 27.8064)
(-5.05646e-25 -13.6523 27.8779)
(-3.93494e-25 -14.7193 25.4058)
(-2.94571e-25 -12.5961 24.4465)
(1.37993e-24 -12.2413 22.7865)
(2.54654e-24 -11.1558 21.5478)
(2.64016e-24 -10.5129 20.1822)
(2.33195e-24 -9.75585 18.9257)
(2.05597e-24 -9.12726 17.6514)
(1.89617e-24 -8.51225 16.4174)
(1.81368e-24 -7.9845 15.2276)
(1.78871e-24 -7.52584 14.1092)
(1.81385e-24 -7.03423 12.8676)
(1.83356e-24 -6.08286 10.8933)
(1.81658e-24 -4.24014 7.34178)
(1.8509e-24 -1.24081 2.34482)
(-3.73352e-24 1.4435 -3.16974)