/*--------------------------------*- C++ -*----------------------------------*\
| =========                 |                                                 |
| \\      /  F ield         | OpenFOAM: The Open Source CFD Toolbox           |
|  \\    /   O peration     | Version:  4.1                                   |
|   \\  /    A nd           | Web:      www.OpenFOAM.org                      |
|    \\/     M anipulation  |                                                 |
\*---------------------------------------------------------------------------*/
FoamFile
{
    version     2.0;
    format      ascii;
    class       volScalarField;
    location    "11";
    object      p;
}
// * * * * * * * * * * * * * * * * * * * * * * * * * * * * * * * * * * * * * //

dimensions      [0 2 -2 0 0 0 0];

internalField   nonuniform List<scalar> 
1280
(
0.365634
1.0632
1.17317
1.17098
1.24144
1.67406
1.66435
1.69848
1.83073
1.81648
1.42367
1.78778
1.48687
0.487521
1.0443
-0.0500501
-1.9422
-1.93841
-2.86057
-10.0172
-5.01457
11.3795
31.1786
37.6174
38.8232
43.6761
9.02482
24.5964
22.9984
22.1263
20.9539
19.3199
17.4777
15.367
13.8175
12.9613
14.7372
17.0989
22.1147
19.5192
-42.2345
-0.0328396
12.8293
17.2827
38.9143
37.3322
38.2152
40.9115
45.1466
44.9903
45.0227
45.2358
41.3041
38.9581
38.0038
38.7045
18.122
13.8094
1.45945
-41.8579
19.4014
21.8881
16.8973
14.5091
12.7041
13.487
14.9447
16.9481
18.6827
20.1946
21.255
22.0029
23.3707
7.94861
41.9511
37.0911
35.8823
29.4811
9.71059
-6.68299
-11.7163
-4.54743
-1.1764
-0.862048
0.389471
2.7623
2.34666
2.63169
3.44042
3.35989
3.30126
3.4663
3.41604
3.21684
3.04035
2.73999
2.2706
1.50181
0.639034
0.595046
-0.320314
-0.750219
0.342762
1.79684
4.67544
1.86926
1.93528
1.4623
0.445179
-2.04404
-1.82545
-10.4612
-5.41062
0.250938
1.81648
1.57616
0.751499
0.387814
0.582401
-0.501737
-0.905772
1.1791
4.2263
9.92401
5.12111
5.33503
2.90738
0.894571
-3.00641
-4.84321
-16.3167
-7.80386
0.607533
3.39116
3.47865
1.93406
1.08192
1.50497
-0.672362
-1.15724
1.57065
5.38679
12.5214
8.05649
8.02699
4.53803
1.77219
-3.28947
-10.6262
-18.7421
-9.47192
1.94489
5.47526
5.5703
3.19917
1.72259
2.29668
-0.973105
-1.95484
1.56781
6.20355
14.1645
10.3893
9.66692
5.04984
1.8923
-3.5164
-16.8014
-18.8966
-12.403
3.24616
7.84182
7.92377
4.53129
2.37966
2.94798
-1.3853
-2.92519
1.32461
6.6617
14.5368
10.7584
10.1556
4.39786
0.837504
-4.08545
-17.309
-16.5931
-15.066
4.48283
10.172
10.2989
5.69253
2.57055
3.22047
-1.96169
-3.87435
0.837042
6.68742
13.7351
10.0776
9.38769
2.57391
-1.28082
-4.8969
-13.3456
-15.023
-16.2412
5.49024
12.3793
12.376
6.73793
3.15816
3.36697
-2.79193
-4.65353
0.193743
6.50154
12.3041
8.30235
7.19996
0.896339
-2.52693
-4.32579
-8.37297
-15.91
-16.0855
6.28639
14.6884
13.7753
6.85277
1.8913
-0.62458
-3.84879
-5.05166
-0.38893
6.41551
11.0418
6.33618
4.93401
0.95348
-1.1721
-1.19222
-3.64717
-16.4513
-14.5225
6.16586
16.1837
14.1677
7.91768
3.85748
7.77146
-5.01097
-4.84642
-0.572724
6.85382
10.719
6.17847
3.8056
2.51674
1.58888
2.56983
0.0494044
-16.3843
-13.9009
7.12474
18.1988
13.7349
7.89369
11.1952
50.5944
-6.25655
-4.06692
-0.23876
7.86786
11.4735
8.21636
3.55536
4.32776
4.2309
6.26896
4.62266
-10.8007
-11.6153
1.99135
8.14565
7.18894
6.70062
15.5581
53.8634
-7.59965
-2.88707
0.798219
9.83341
12.4823
9.53772
4.0612
5.94375
6.63955
9.75391
9.1877
-3.5335
-7.15543
-2.08597
-1.50688
0.173338
5.35503
15.4848
53.7412
-8.08413
-1.04295
2.90039
11.0741
12.1687
9.3016
5.64141
7.03421
8.75342
12.7361
13.2232
2.21287
-3.84927
-5.09564
-10.8566
-10.8963
-0.628242
12.2776
52.1238
-7.88214
-1.87526
2.42544
10.628
11.7605
8.69574
6.16763
7.70969
10.3378
14.7814
15.9837
6.01582
-1.56668
-9.71668
-23.2943
-20.3056
-3.74118
11.8941
14.1524
-7.12931
-2.90615
1.6584
8.92231
9.67087
7.9548
6.28643
8.01219
11.1151
15.3858
16.8222
7.86744
-0.189297
-13.7292
-27.4403
-22.1468
-2.7936
8.02076
5.8359
-5.98963
-3.848
0.709623
7.09823
8.0528
7.19549
6.15333
7.91428
11.1036
15.0487
15.9183
8.03751
-0.384547
-17.714
-27.7084
-25.3636
-3.91455
6.66056
7.23467
-4.57032
-4.47091
0.276982
5.4419
6.38952
6.1986
5.72331
7.46133
10.5296
14.3481
13.9585
6.8513
-1.53408
-20.8274
-26.8211
-25.0953
-4.08968
4.35057
4.72766
-2.91837
-4.25227
0.0877818
4.01014
4.96277
5.14894
5.01246
6.64048
9.49217
13.3356
11.904
5.27066
-2.25873
-20.8757
-26.1093
-22.9949
-3.83071
2.78539
3.80317
-1.45705
-3.37462
0.133858
2.91377
3.76361
4.14407
4.25417
5.71002
8.17988
11.8736
9.64213
3.65075
-2.39593
-16.5472
-23.1123
-18.0281
-3.29896
1.62293
2.55369
-0.464581
-2.89448
-0.196231
1.87494
2.66534
3.12082
3.37928
4.64209
6.6582
9.61619
6.38247
2.39783
-1.36823
-9.20482
-13.817
-11.536
-2.77738
0.787695
1.73943
-0.129865
-2.11366
-0.688081
0.312993
0.69023
0.924925
1.16741
1.93367
3.05708
4.60387
1.80146
0.471878
-0.766715
-2.82817
-4.34736
-4.20468
-0.795651
0.61104
0.900987
139.495
139.104
137.159
135.932
133.534
131.155
128.544
125.936
122.932
120.161
117.65
115.402
113.474
111.834
110.479
109.262
108.36
107.491
107.081
105.603
94.6132
96.5829
96.0962
96.926
97.3607
98.1016
98.7566
99.3705
99.9804
100.522
101.043
101.53
101.999
102.452
102.924
103.446
104.047
104.797
105.4
106.01
90.7551
92.0913
91.8508
92.2682
92.4469
92.7085
93.0332
93.296
93.6093
93.9138
94.2496
94.6217
95.0407
95.5309
96.0929
96.7842
97.5188
98.4605
99.1216
100.172
61.7868
64.5707
66.6504
68.8008
70.5784
72.1004
73.5993
74.8976
76.143
77.2664
78.3065
79.2717
80.1664
81.0246
81.8297
82.6609
83.4208
84.3347
84.9723
86.0132
37.8571
40.3579
44.3117
47.8649
51.0216
53.6511
56.252
58.6132
60.8832
62.9921
64.946
66.747
68.3845
69.8924
71.2503
72.5442
73.6769
74.8823
75.7303
76.962
17.4319
18.2052
20.388
22.0743
23.9595
25.5158
27.4177
29.2669
31.3213
33.4558
35.6964
38.0015
40.3206
42.6332
44.8549
47.0536
49.1003
51.3936
53.3659
56.3544
12.205
8.54063
6.43067
3.49232
1.45513
-1.23114
-3.33293
-5.66259
-7.40941
-8.76529
-9.39243
-9.32593
-8.51138
-7.00242
-4.92823
-2.42887
0.0574933
2.6342
4.68668
8.49598
46.4086
39.6851
36.8829
32.2589
28.6078
23.9043
19.6255
14.6724
9.99799
5.22693
0.81664
-3.27116
-6.75616
-9.48892
-11.1928
-11.9516
-11.8831
-11.2967
-11.3639
-10.0795
100.569
95.6506
93.9194
90.2719
88.2338
84.8435
82.3521
79.2306
76.6446
73.954
71.6253
69.3956
67.4168
65.605
64.0739
62.8187
61.9286
61.8648
60.9019
56.5556
129.322
129.499
130.19
129.719
130.525
129.884
129.983
128.898
127.745
125.663
123.004
119.503
115.318
110.643
105.998
101.953
98.9699
97.429
97.2192
94.5358
104.959
107.039
108.712
109.396
111.584
112.438
114.452
115.815
117.543
118.94
120.161
120.91
121.037
120.365
118.95
117.091
115.72
115.119
115.5
115.39
89.9269
91.7007
93.8174
93.9126
96.332
96.7143
98.4577
99.3579
100.583
101.638
102.696
103.777
104.915
106.14
107.45
108.813
110.144
111.522
112.553
113.794
62.6406
64.2043
67.1456
67.0895
70.335
70.8427
73.268
74.6151
76.4758
78.151
79.8565
81.5538
83.2334
84.9302
86.6333
88.4174
90.1764
92.1128
93.6385
95.6366
34.257
34.1478
37.3172
36.2129
39.5242
39.1756
41.5571
42.3767
44.1328
45.5985
47.2701
48.9951
50.8022
52.732
54.7454
56.9312
59.1269
61.7412
63.9516
67.3536
14.6917
11.6234
13.7043
10.524
12.3018
9.79833
10.3778
8.94983
8.67653
7.865
7.39398
7.00991
7.01751
7.61342
8.82564
10.494
12.2369
14.4114
16.046
19.6059
36.3728
31.0304
31.8541
26.5663
26.7846
22.7166
21.5068
18.5319
16.4893
13.8848
11.4813
8.97494
6.68505
4.74098
3.27441
2.06742
1.11354
0.615104
-0.260423
1.29448
87.4876
81.8944
83.7565
76.4657
76.2732
71.2405
68.9512
65.3486
62.5326
59.5663
56.9194
54.4644
52.3498
50.5488
48.9307
47.3462
45.7336
43.8086
40.6586
38.0782
89.0882
82.5156
91.1682
84.615
87.2463
84.4111
83.7985
81.8618
80.27
78.3913
76.5796
74.8282
73.3218
72.1531
71.2859
70.6245
70.2315
69.9942
69.5676
68.6756
92.1473
70.2092
78.4746
67.7717
65.2775
58.9204
54.2214
49.1804
44.8043
40.8736
37.6365
35.1765
33.6415
33.1566
33.881
35.6741
38.2825
42.6198
47.6871
49.3393
778.77
696.264
647.177
591.105
542.251
495.168
451.424
410.14
371.302
334.612
299.88
266.892
235.438
205.439
176.914
149.098
122.098
99.5996
74.322
39.6649
775.904
693.397
644.31
588.237
539.383
492.299
448.554
407.269
368.431
331.741
297.008
264.02
232.565
202.565
174.04
146.222
119.222
96.7212
71.4399
36.7913
89.2691
67.3312
75.5968
64.8943
62.4001
56.0432
51.3444
46.3036
41.9278
37.9974
34.7605
32.3009
30.7663
30.2816
31.0062
32.7995
35.4073
39.7459
44.8195
46.4755
86.227
79.6577
88.3132
81.7629
84.3971
81.565
80.9555
79.0221
77.4336
75.5585
73.7503
72.0028
70.5002
69.3349
68.4706
67.8121
67.4213
67.1867
66.7644
65.8787
84.7053
79.116
80.9816
73.6942
73.506
68.4772
66.1922
62.5939
59.7821
56.8202
54.1776
51.7267
49.6158
47.818
46.2023
44.6199
43.0097
41.0872
37.9394
35.3539
33.5952
28.2511
29.0755
23.7865
24.0042
19.9358
18.7253
15.75
13.7071
11.1024
8.69922
6.19365
3.9055
1.96376
0.499368
-0.706435
-1.65948
-2.15894
-3.03688
-1.48329
11.8659
8.79431
10.8747
7.69388
9.4702
6.96642
7.545
6.11638
5.84273
5.03077
4.55981
4.1761
4.18468
4.78149
5.99321
7.6589
9.39856
11.5707
13.2052
16.7663
31.4103
31.2994
34.4705
33.3665
36.6785
36.3302
38.7125
39.5321
41.2888
42.7544
44.4261
46.1508
47.9576
49.8873
51.9009
54.0877
56.2852
58.9023
61.1158
64.521
59.8126
61.377
64.3207
64.2661
67.5137
68.023
70.4503
71.7989
73.6614
75.3381
77.0454
78.7446
80.4265
82.126
83.8319
85.619
87.3806
89.319
90.8465
92.8478
87.1032
88.8788
90.9981
91.0952
93.5169
93.9018
95.6478
96.552
97.7819
98.8425
99.909
100.999
102.145
103.378
104.692
106.056
107.386
108.765
109.798
111.044
102.196
104.285
105.967
106.659
108.855
109.718
111.739
113.109
114.842
116.243
117.463
118.206
118.323
117.639
116.217
114.361
113.005
112.427
112.823
112.722
126.56
126.757
127.452
126.988
127.798
127.16
127.259
126.173
125.017
122.934
120.275
116.78
112.611
107.962
103.348
99.3341
96.3768
94.8482
94.6485
91.9894
98.0983
93.2025
91.4865
87.8579
85.8368
82.4659
79.9936
76.8917
74.3231
71.6479
69.3297
67.1058
65.1274
63.3121
61.7738
60.5081
59.6152
59.5686
58.6309
54.2884
43.9573
37.2312
34.4261
29.7973
26.1394
21.4289
17.1417
12.1805
7.50291
2.73077
-1.67652
-5.75464
-9.22307
-11.9335
-13.6153
-14.352
-14.2603
-13.6627
-13.7284
-12.4613
9.59012
5.90957
3.79372
0.849589
-1.19205
-3.88099
-5.98332
-8.30995
-10.0477
-11.3911
-12.0033
-11.9216
-11.0944
-9.57743
-7.50287
-5.01158
-2.53878
0.0264868
2.07502
5.88044
14.7742
15.5408
17.7211
19.4049
21.289
22.8454
24.7478
26.5973
28.6521
30.7859
33.0245
35.3256
37.6387
39.9439
42.1578
44.3505
46.3935
48.6886
50.6668
53.6609
35.1709
37.6767
41.6423
45.2055
48.3706
51.0074
53.6147
55.9818
58.2567
60.3698
62.3271
64.131
65.7712
67.2817
68.6428
69.9405
71.0773
72.2872
73.1389
74.3764
59.182
61.9699
64.0597
66.2174
68.0007
69.5277
71.0303
72.3316
73.5794
74.7045
75.7459
76.712
77.6075
78.4663
79.2719
80.1035
80.8638
81.7779
82.416
83.4578
88.0931
89.4399
89.209
89.63
89.8134
90.0787
90.4071
90.6734
90.9905
91.299
91.6393
92.0159
92.4398
92.9349
93.5016
94.198
94.9375
95.885
96.5518
97.6103
92.2365
94.2091
93.7179
94.542
94.9722
95.7082
96.358
96.9672
97.5736
98.1128
98.6331
99.1192
99.5882
100.042
100.518
101.045
101.653
102.411
103.019
103.638
136.952
136.532
134.514
133.227
130.777
128.353
125.708
123.084
120.101
117.358
114.883
112.677
110.794
109.197
107.885
106.709
105.848
105.022
104.646
103.213
)
;

boundaryField
{
    outletWall
    {
        type            fixedValue;
        value           uniform 0;
    }
    fineWalls
    {
        type            zeroGradient;
    }
    fineFrontAndBack
    {
        type            zeroGradient;
    }
    fineplugLeft
    {
        type            cyclicAMI;
        value           nonuniform List<scalar> 
20
(
88.3863
90.0877
89.4123
89.6355
90.0015
91.1468
92.5403
94.2749
96.1852
98.311
100.554
102.945
105.668
114.954
113.659
114.592
116.269
115.963
113.559
110.593
)
;
    }
    fineplugRight
    {
        type            cyclicAMI;
        value           nonuniform List<scalar> 
20
(
86.4511
88.0944
87.3968
87.5804
87.9079
89.0052
90.3467
92.0245
93.8778
95.9457
98.1376
100.482
103.141
112.318
111.072
112.039
113.758
113.508
111.168
108.225
)
;
    }
    inletOutletLeft
    {
        type            cyclicAMI;
        value           nonuniform List<scalar> 
20
(
88.3863
90.0877
89.4123
89.6355
90.0015
91.1468
92.5403
94.2749
96.1852
98.311
100.554
102.945
105.668
114.954
113.659
114.592
116.269
115.963
113.559
110.593
)
;
    }
    inletLeft
    {
        type            zeroGradient;
    }
    inletWallsLeft
    {
        type            zeroGradient;
    }
    inletFacesLeft
    {
        type            zeroGradient;
    }
    inletOutletRight
    {
        type            cyclicAMI;
        value           nonuniform List<scalar> 
20
(
86.4511
88.0944
87.3968
87.5804
87.9079
89.0052
90.3467
92.0245
93.8778
95.9457
98.1376
100.482
103.141
112.318
111.072
112.039
113.758
113.508
111.168
108.225
)
;
    }
    inletRight
    {
        type            zeroGradient;
    }
    inletWallsRight
    {
        type            zeroGradient;
    }
    inletFacesRight
    {
        type            zeroGradient;
    }
}


// ************************************************************************* //
