/*--------------------------------*- C++ -*----------------------------------*\
| =========                 |                                                 |
| \\      /  F ield         | OpenFOAM: The Open Source CFD Toolbox           |
|  \\    /   O peration     | Version:  4.1                                   |
|   \\  /    A nd           | Web:      www.OpenFOAM.org                      |
|    \\/     M anipulation  |                                                 |
\*---------------------------------------------------------------------------*/
FoamFile
{
    version     2.0;
    format      ascii;
    class       surfaceScalarField;
    location    "11";
    object      phi;
}
// * * * * * * * * * * * * * * * * * * * * * * * * * * * * * * * * * * * * * //

dimensions      [0 3 -1 0 0 0 0];

internalField   nonuniform List<scalar> 
2360
(
-2233.67
-353.055
-1880.61
-353.061
-353.056
1493.83
-1846.89
1493.83
1493.82
1493.83
3270.84
-1777.01
3270.84
3270.83
5178.68
-1907.84
5178.67
5178.68
7509.92
-2331.25
7509.92
7509.92
10960.3
-3450.4
10960.3
10960.3
11696.4
13321.6
15002.6
16521.7
17868.5
19085.4
17687.9
2539.72
18745
19733.8
20653.4
21499
22263.1
22939.4
23537
24093
24678.9
25372.3
26215.4
27147.6
27920.6
17040
10880.6
17040
17040
17040
6705.24
10334.8
6705.24
6705.24
6705.24
110.2
6595.04
110.206
110.207
-5934.32
6044.53
-5934.32
-5934.32
-5934.32
-16275.9
10341.6
-16275.9
-16275.9
-16275.9
-27646.9
11371
-26877.4
-25947.9
-25106.4
-24413.7
-23827.8
-23271.4
-22673.4
-21996.6
-21231.6
-20384.5
-19462.8
-18471.4
-17411.4
-19082.3
2814.08
-17865.1
-16518.5
-15000.5
-13320.8
-11696.4
-10961
-10961
-10961
-6648.99
-4312.03
-6648.99
-6648.99
-3453.13
-3195.86
-3453.13
-3453.13
-931.375
-2521.75
-931.375
-931.373
1150.93
-2082.3
1150.93
1150.93
1150.94
2913.26
-1762.32
2913.26
2913.26
4516.32
-1603.06
-854.7
2433.67
-827.522
8095.17
-745.88
9776.05
-610.217
9686.46
-246.864
6575.73
-430.725
-7719.81
-1194.74
-12320.3
-2160.39
-14325.4
-2430.29
-15504.9
-1396.41
-13864.6
1417.21
-1176.28
2550.68
12545.4
2977.56
16834.5
2859.79
15048.4
2571.07
10555.5
2364.93
5541.32
2234.53
1637.96
1987.66
-611.69
-2539.63
-653.551
2598.89
-901.791
8343.41
-991.135
9865.4
-978.684
9674.01
-650.077
6247.12
-1821.24
-6548.65
-3348.67
-10792.9
-4730.09
-12943.9
-5100.52
-15134.5
-3759.6
-15205.5
212.323
-5148.21
2252.93
10504.8
2619.66
16467.7
2608.01
15060
2491.33
10672.2
2499.31
5533.34
2496.94
1640.33
2182.23
-296.981
-2119.73
-622.293
2682.48
-935.411
8656.53
-1290.78
10220.8
-1498.72
9881.96
-1658.23
6406.63
-3396.74
-4810.14
-5199.73
-8989.9
-6746.14
-11397.5
-7284.51
-14596.1
-5900.13
-16589.9
-1347.7
-9700.63
1614.66
7542.47
1996.69
16085.7
2110.79
14945.9
2230.65
10552.3
2549.54
5214.45
2745.05
1444.82
2479.56
-31.4876
-1722.48
-1070.61
2512.06
-1154.61
8740.53
-1618.58
10684.7
-2102.94
10366.3
-2813.93
7117.63
-5074.4
-2549.67
-7259.13
-6805.17
-9029.22
-9627.45
-9730.29
-13895.1
-8385.77
-17934.4
-3469.51
-14616.9
534.387
3538.57
1092.89
15527.2
1351.97
14686.8
1780.58
10123.7
2512.53
4482.5
2936.35
1020.99
2830.97
73.8895
-1413.26
-2070.95
2125.07
-1802.75
8472.33
-2104.61
10986.6
-2710.65
10972.4
-3891.79
8298.76
-6699.72
258.266
-9061.53
-4443.36
-10683.9
-8005.06
-11316.5
-13262.5
-10354.9
-18896
-6391.24
-18580.6
-1354.07
-1498.61
-3.27765
14176.4
303.537
14380
1190.79
9236.45
2508.23
3165.05
3223.11
306.112
3316.06
-19.0588
-1293.06
-3568.22
1629.55
-2981.49
7885.59
-2945.73
10950.8
-3410.11
11436.7
-4764.45
9653.11
-7762.06
3255.87
-9794.25
-2411.17
-10546.8
-7252.49
-10654.1
-13155.2
-10320.2
-19229.9
-8239.54
-20661.3
-3464.91
-6273.24
-1349.98
12061.5
-901.523
13931.6
494.419
7840.51
2485.8
1173.67
3644.03
-852.118
4001.14
-376.171
-1603.95
-5513.59
1148.52
-4691.56
7063.56
-4258.19
10517.5
-4352.77
11531.3
-5401.61
10701.9
-7761.46
5615.72
-8543.49
-1629.13
-7752.6
-8043.38
-7082.04
-13825.8
-7568.5
-18743.4
-8085.11
-20144.6
-5508.88
-8849.47
-3226.88
9779.49
-2290.04
12994.7
188.598
5361.87
2349.64
-987.378
3325.57
-1828.05
3214.8
-265.396
4424.92
-7892.81
769.578
-6902.22
6072.97
-6077.73
9692.96
-5687.88
11141.5
-6007.19
11021.3
-6774.93
6383.46
-5681.83
-2722.23
-3832.43
-9892.77
-3085.16
-14573
-4240.9
-17587.7
-6956.77
-17428.8
-7202.02
-8604.22
-4877.12
7454.59
-2903.38
11021
-1827.2
4285.69
-3216.33
401.748
-5301.34
256.959
-7400.13
1833.39
8395.8
-10638.4
538.675
-9531.3
4965.91
-8357.1
8518.77
-7448.89
10233.3
-6765.14
10337.5
-5515.1
5133.42
-3200.5
-5036.83
-1815.65
-11277.6
-1987.09
-14401.6
-3537.28
-16037.5
-6987.71
-13978.3
-8874.54
-6717.39
-7170.42
5750.46
-7159.89
11010.4
-11308.4
8434.23
-15058.7
4152
-15464.3
662.62
-14119.9
488.992
4617.44
-13701.2
517.221
-12539
3803.75
-11024.7
7004.4
-9538.83
8747.41
-7523.59
8322.27
-4256.46
1866.29
-1882.29
-7411
-1736.34
-11423.6
-2719.95
-13418
-4866.09
-13891.4
-8695.78
-10148.6
-11831.8
-3581.34
-11925.9
5844.58
-12566.8
11651.3
-15113.3
10980.8
-15804
4842.69
-14281.4
-859.974
-11734
-2058.47
-1072.01
-17465
1118.41
-16767.8
3106.52
-14726.3
4962.99
-11724.8
5745.88
-7195.59
3793.05
-2728.21
-2601.09
-1423.49
-8715.72
-2004.26
-10842.8
-3189.89
-12232.4
-6011.38
-11069.9
-10082
-6077.99
-13303.7
-359.629
-14359.5
6900.35
-14937.4
12229.2
-15989.2
12032.5
-16336.9
5190.4
-15174.1
-2022.71
-12406
-4826.66
-6882.92
-19088.2
2238.21
-18620.3
2638.65
-15321.8
1664.4
-10079.7
503.793
-4428.49
-1858.14
-1516.69
-5512.88
-1479.86
-8752.56
-1947.65
-10375
-3182.33
-10997.7
-6520.81
-7731.39
-10572
-2026.76
-13310.1
2378.4
-14642.8
8233.02
-15760.6
13347.1
-16721.7
12993.6
-15936.6
4405.26
-13886.8
-4072.51
-12950.2
-5763.21
-9498.37
-16215.6
2753.52
-14348
771.002
-10117.7
-2565.88
-5710.68
-3903.23
-2714.18
-4854.64
-1569.86
-6657.2
-1394.1
-8928.32
-1713.21
-10055.9
-3000.14
-9710.75
-6457.05
-4274.47
-10282.5
1798.69
-12787.9
4883.8
-14154.3
9599.42
-14732.2
13925
-12863.5
11124.8
-7644.9
-813.332
-3980.21
-7737.2
-5666.91
-4076.51
-4284.71
-12044.7
2528.57
-9653.09
-1620.63
-6687.68
-5531.29
-4306.52
-6284.39
-2453.91
-6707.24
-1391.7
-7719.41
-1150.61
-9169.42
-1479.01
-9727.5
-2571.26
-8618.5
-5419.87
-1425.86
-8686.02
5064.85
-11169.1
7366.85
-12382.6
10812.9
-11810
13352.4
-7793.45
7108.34
-3346.28
-5260.5
-1060.55
-10022.9
889.506
-6026.57
-855.499
-8578.94
1968.7
-6514.04
-3685.53
-4597.77
-7447.56
-3129.47
-7752.69
-1900.68
-7936.04
-1147.68
-8472.4
-962.178
-9354.92
-1213.55
-9476.13
-1940.28
-7891.77
-3726.82
360.679
-6119.54
7457.56
-8336.28
9583.59
-9224.85
11701.5
-7921.59
12049.2
-3654.14
2840.89
-894.619
-8020.02
28.4201
-10946
1424.18
-7422.33
-2881.71
-5901.39
1254.4
-4292.2
-5294.71
-3157.1
-8582.66
-2354.03
-8555.75
-1573.94
-8716.13
-984.597
-9061.75
-774.515
-9565
-924.794
-9325.85
-1349.17
-7467.4
-2040.48
1051.99
-3425.16
8842.25
-5009.34
11167.8
-5540.24
12232.4
-4135.49
10644.4
-695.618
-598.976
1095.71
-9811.35
1434.82
-11285.1
1687.99
-7675.5
-3524.97
-3949.04
476.07
-2866.76
-6376.98
-2370.63
-9078.79
-1928.51
-8997.88
-1338.85
-9305.79
-823.594
-9577.01
-602.057
-9786.54
-653.089
-9274.82
-874.883
-7245.61
-671.342
848.449
-1219.74
9390.65
-1961.33
11909.4
-2066.84
12337.9
-554.868
9132.44
1601.44
-2755.28
2449.55
-10659.5
2021.47
-10857
1686.08
-7340.12
-3746.73
-2734.4
-251.282
-2154.99
-6956.39
-2021.76
-9212.03
-1659.79
-9359.84
-1151.85
-9813.73
-703.815
-10025
-466.389
-10024
-395.659
-9345.55
-394.027
-7247.24
314.139
140.283
350.102
9354.68
446.635
11812.8
958.157
11826.4
2356.01
7734.59
3485.97
-3885.25
3135.24
-10308.7
2242.39
-9964.15
1785.66
-6883.39
-3738.08
-2182.79
-845.179
-1953.09
-7186.08
-1841.2
-9323.92
-1457.26
-9743.78
-1025.97
-10245
-629.579
-10421.4
-354.979
-10298.6
-160.888
-9539.64
36.8082
-7444.93
910.854
-733.763
1294.85
8970.69
1867.19
11240.5
2789.18
10904.4
3959.15
6564.61
4196.63
-4122.73
3233.63
-9345.73
2394.69
-9125.2
2016.6
-6505.3
-3568.37
-2196.04
-1922.29
-1693.17
-1344.43
-974.412
-594.772
-266.094
18.9757
308.093
995.445
1583.66
2230.96
3053.9
3753.6
3778.27
3204.19
2634.97
2234.77
27.0374
-763.133
260.788
-1858.92
457.487
-1877.78
598.844
-1660.42
710.274
-1458.27
802.72
-1309.31
852.943
-1192.38
894.666
-1098.86
918.011
-1012.18
923.886
-925.454
914.997
-836.727
895.17
-744.294
866.782
-647.926
825.132
-555.909
759.427
-490.36
658.707
-485.13
521.743
-556.45
358.004
-679.416
186.364
-760.515
-586.631
-19.1388
-744
-24.6133
-1853.45
13.0035
-1915.4
53.3367
-1700.76
96.0487
-1500.99
138.388
-1351.66
188.379
-1242.38
238.833
-1149.32
291.803
-1065.15
350.458
-984.115
418.027
-904.301
497.73
-824.003
590.955
-741.155
689.988
-654.946
771.162
-571.537
792.851
-506.822
716.704
-480.305
527.863
-490.576
271.987
-504.641
-314.644
-133.846
-610.159
-156.7
-1830.6
-61.3494
-2010.75
40.6029
-1802.72
129.164
-1589.55
207.837
-1430.34
279.939
-1314.49
346.721
-1216.1
406.362
-1124.8
457.48
-1035.24
500.188
-947.013
536.243
-860.062
569.303
-774.219
602.628
-688.276
632.707
-601.619
640.779
-514.897
597.78
-437.308
475.192
-367.99
268.7
-298.152
-45.9442
-167.817
-442.347
-226.191
-1772.22
-159.634
-2077.31
-72.8115
-1889.54
4.64538
-1667.01
75.6389
-1501.33
144.245
-1383.1
209.345
-1281.21
268.338
-1183.8
318.48
-1085.38
357.369
-985.906
383.714
-886.411
397.836
-788.344
401.431
-691.875
396.797
-596.988
382.163
-500.266
346.815
-401.963
270.786
-291.963
134.711
-162.084
88.7669
37.9401
-480.293
24.9923
-1759.28
66.5542
-2118.88
134.9
-1957.89
208.752
-1740.87
284.868
-1577.45
361.328
-1459.56
434.367
-1354.25
499.926
-1249.36
554.161
-1139.62
593.922
-1025.67
616.571
-909.065
619.985
-791.761
602.696
-674.589
564.062
-558.358
503.89
-440.098
420.249
-318.324
305.064
-176.782
147.796
-4.82243
236.562
414.596
-894.891
581.708
-1926.39
590.86
-2128.03
588.468
-1955.5
624.396
-1776.8
688.555
-1641.61
766.471
-1537.48
842.42
-1430.2
907.588
-1314.53
955.302
-1187.34
983.168
-1053.54
989.329
-915.227
971.764
-774.197
927.632
-630.458
853.51
-484.237
745.858
-332.447
602.467
-174.935
407.539
18.1434
204.17
198.544
440.733
566.485
-1461.38
779.01
-2138.92
713.772
-2062.79
639.7
-1881.43
637.928
-1775.03
677.138
-1680.82
734.156
-1594.5
783.176
-1479.22
813.419
-1344.77
818.28
-1192.2
799.41
-1034.67
756.18
-871.999
686.477
-704.496
587.127
-531.11
455.848
-352.96
301.449
-178.051
157.95
-31.4416
53.3699
122.717
-38.94
290.849
401.793
307.157
-1768.53
260.804
-2092.57
92.3951
-1894.38
-32.3781
-1756.66
-111.917
-1695.49
-176.359
-1616.38
-238.065
-1532.79
-310.442
-1406.84
-397.384
-1257.83
-497.801
-1091.78
-606.851
-925.619
-721.961
-756.887
-840.405
-586.052
-955.765
-415.75
-1054.39
-254.339
-1114.73
-117.712
-1105.13
-41.0429
-951.465
-30.9469
-580.759
-79.8591
-178.967
-67.478
-1701.06
-229.71
-1930.34
-379.933
-1744.17
-527.881
-1608.71
-686.554
-1536.82
-860.507
-1442.43
-1042.89
-1350.4
-1228.05
-1221.69
-1412.01
-1073.87
-1593.29
-910.508
-1771.59
-747.319
-1941.06
-587.422
-2085.9
-441.211
-2175.85
-325.805
-2163.5
-266.686
-1996.53
-284.692
-1651.15
-386.419
-1124.62
-557.479
-479.026
-725.453
-657.993
-168.226
-1532.83
-206.151
-1892.41
-248.588
-1701.73
-346.62
-1510.68
-464.806
-1418.63
-605.258
-1301.98
-749.681
-1205.98
-882.667
-1088.71
-987.361
-969.174
-1057.6
-840.266
-1092.2
-712.721
-1089.15
-590.465
-1045.12
-485.247
-955.558
-415.362
-815.903
-406.341
-619.702
-480.891
-378.109
-628.012
-144.277
-791.311
-10.973
-858.757
-668.966
-14.7293
-1518.11
44.2158
-1951.36
98.7551
-1756.27
128.564
-1540.49
152.476
-1442.54
168.155
-1317.66
181.979
-1219.8
204.916
-1111.64
248.537
-1012.8
323.09
-914.82
431.409
-821.04
571.921
-730.977
733.384
-646.711
891.421
-573.399
1004.89
-519.813
1022.18
-498.173
904.036
-509.871
651.337
-538.611
321.073
-528.492
-347.892
77.6056
-1595.71
124.978
-1998.73
174.677
-1805.96
229.726
-1595.53
290.656
-1503.47
353.849
-1380.85
419.277
-1285.23
487.574
-1179.94
557.77
-1082.99
631.224
-988.27
707.162
-896.973
784.348
-808.16
858.816
-721.174
921.298
-635.879
954.297
-552.808
929.569
-473.442
821.282
-401.581
612.723
-330.05
323.589
-239.353
-24.3031
149.835
-1745.54
176.736
-2025.63
216.201
-1845.43
269.154
-1648.49
333.921
-1568.23
394.374
-1441.3
458.771
-1349.62
522.358
-1243.52
586.999
-1147.63
648.887
-1050.16
705.37
-953.454
751.926
-854.715
783.611
-752.857
794.645
-646.912
779.121
-537.282
728.027
-422.346
629.741
-303.292
467.769
-168.075
244.169
-15.7468
219.866
176.889
-1922.43
168.733
-2017.47
206.355
-1883.04
259.853
-1701.98
327.074
-1635.45
391.182
-1505.4
463.733
-1422.17
538.964
-1318.75
621.941
-1230.6
708.598
-1136.81
794.916
-1039.77
869.218
-929.014
915.803
-799.439
919.885
-650.99
876.464
-493.858
785.884
-331.762
647.699
-165.104
447.385
32.2441
225.812
205.832
445.678
123.981
-2046.4
78.3369
-1971.82
97.5027
-1902.21
128.263
-1732.74
168.762
-1675.95
213.361
-1550
267.932
-1476.74
330.494
-1381.31
403.818
-1303.92
483.151
-1216.14
560.317
-1116.93
614.74
-983.434
621.284
-805.98
569.695
-599.398
480.6
-404.758
374.941
-226.099
268.108
-58.2647
176.978
123.381
53.1336
329.682
498.812
7.6076
-2054.01
-62.724
-1901.49
-96.3535
-1868.57
-124.871
-1704.22
-153.04
-1647.77
-172.71
-1530.33
-191.03
-1458.41
-201.583
-1370.75
-208.049
-1297.45
-210.743
-1213.44
-217.204
-1110.47
-238.182
-962.45
-280.173
-763.984
-328.419
-551.144
-355.69
-377.479
-359.399
-222.38
-361.681
-55.9749
-359.428
121.135
-294.777
265.036
204.035
-69.7365
-1984.27
-161.73
-1809.49
-237.469
-1792.83
-307.16
-1634.52
-379.354
-1575.58
-441.722
-1467.95
-507.599
-1392.54
-569.502
-1308.85
-633.309
-1233.64
-694.774
-1151.97
-750.022
-1055.22
-784.569
-927.902
-778.368
-770.182
-721.588
-607.921
-631.347
-467.717
-527.559
-326.165
-435.878
-147.651
-345.401
30.6616
-259.402
179.042
-55.367
-156.693
-1827.58
-346.92
-1619.26
-498.081
-1641.67
-618.621
-1513.98
-729.459
-1464.74
-816.415
-1381
-893.529
-1315.42
-956.946
-1245.43
-1010.34
-1180.25
-1048.3
-1114.01
-1059.06
-1044.46
-1020.77
-966.195
-914.103
-876.843
-744.455
-777.569
-541.835
-670.336
-317.443
-550.555
-67.1651
-397.924
132.185
-168.684
210.585
100.646
155.218
-182.227
-1645.35
-414.407
-1387.08
-660.101
-1395.97
-864.943
-1309.14
-1061.11
-1268.57
-1225.79
-1216.31
-1368.82
-1172.4
-1485.9
-1128.35
-1579.42
-1086.72
-1647.25
-1046.18
-1685.12
-1006.58
-1684.92
-966.392
-1638.56
-923.2
-1541.95
-874.177
-1395.4
-816.883
-1196.89
-749.074
-931.905
-662.904
-571.325
-529.263
-162.377
-308.3
-7.15894
-670.346
-1082.43
-1503.4
-1837.54
-2131.11
-2372.42
-2569.82
-2723.16
-2834.89
-2906.07
-2937.65
-2929.04
-2877.24
-2776.42
-2618.3
-2392.37
-2080.28
-1634.54
-967.841
-670.361
1645.37
-1082.46
1387.1
-1503.45
1395.99
-1837.6
1309.16
-2131.19
1268.59
-2372.51
1216.33
-2569.92
1172.41
-2723.28
1128.36
-2835.02
1086.74
-2906.21
1046.19
-2937.8
1006.6
-2929.2
966.402
-2877.41
923.206
-2776.59
874.183
-2618.49
816.9
-2392.6
749.112
-2080.57
662.975
-1634.91
529.337
-968.089
308.183
6.91069
-182.207
1827.58
-414.352
1619.25
-660.014
1641.66
-864.81
1513.96
-1060.93
1464.71
-1225.55
1380.96
-1368.51
1315.37
-1485.51
1245.37
-1578.96
1180.18
-1646.7
1113.94
-1684.49
1044.39
-1684.23
966.144
-1637.85
876.833
-1541.29
777.618
-1394.84
670.459
-1196.49
550.764
-931.75
398.231
-571.485
169.075
-162.796
-100.501
-155.885
-156.614
1984.2
-346.777
1809.41
-497.869
1792.75
-618.34
1634.43
-729.109
1575.48
-815.998
1467.85
-893.048
1392.42
-956.404
1308.73
-1009.73
1233.52
-1047.62
1151.83
-1058.28
1055.05
-1019.86
927.726
-913.111
770.084
-743.493
608.004
-540.951
467.92
-316.52
326.337
-66.1631
147.883
133.187
-30.2657
211.228
-178.531
55.3428
-69.7854
2053.98
-161.791
1901.42
-237.562
1868.53
-307.305
1704.18
-379.551
1647.73
-441.99
1530.29
-507.946
1458.38
-569.944
1370.73
-633.856
1297.43
-695.419
1213.4
-750.721
1110.35
-785.218
962.226
-778.847
763.716
-721.863
551.022
-631.46
377.52
-527.526
222.408
-435.578
55.9396
-344.656
-121.183
-258.429
-264.752
-203.086
7.45381
2046.53
-62.9315
1971.81
-96.6583
1902.26
-125.289
1732.81
-153.581
1676.02
-173.38
1550.09
-191.844
1476.85
-202.551
1381.44
-209.189
1304.07
-212.074
1216.29
-218.744
1117.03
-239.918
983.407
-282.005
805.81
-330.171
599.196
-357.285
404.643
-360.954
226.088
-363.323
58.3189
-360.81
-123.689
-295.621
-329.935
-498.707
123.896
1922.64
78.1556
2017.55
97.2418
1883.17
127.922
1702.13
168.33
1635.62
212.846
1505.58
267.33
1422.37
329.811
1318.96
403.048
1230.84
482.282
1137.06
559.31
1040
613.53
929.187
619.835
799.506
568.102
650.93
479.06
493.687
373.657
331.494
267.273
164.705
176.327
-32.7397
52.6378
-206.243
-446.069
176.985
1745.65
168.748
2025.79
206.337
1845.58
259.822
1648.65
327.034
1568.41
391.141
1441.47
463.701
1349.81
538.952
1243.72
621.963
1147.83
708.661
1050.36
795.018
953.647
869.332
854.875
915.886
752.954
919.891
646.927
876.377
537.203
785.711
422.162
647.42
302.999
447.01
167.673
225.569
15.2017
-220.5
150.034
1595.62
176.858
1998.97
216.262
1806.18
269.183
1595.73
333.946
1503.64
394.383
1381.04
458.772
1285.42
522.349
1180.14
586.996
1083.18
648.902
988.453
705.411
897.138
751.983
808.302
783.638
721.3
794.588
635.976
778.941
552.85
727.726
473.378
629.37
401.356
467.422
329.622
243.929
238.698
23.4289
77.9149
1517.71
125.278
1951.61
174.939
1756.52
230.018
1540.65
291.024
1442.64
354.277
1317.79
419.768
1219.94
488.087
1111.82
558.247
1013.02
631.557
915.147
707.251
821.447
784.126
731.431
858.239
647.191
920.368
573.85
953.175
520.046
928.49
498.065
820.418
509.43
612.171
537.871
323.328
527.546
346.757
-14.3557
1532.06
44.6523
1892.6
99.3401
1701.83
129.426
1510.57
153.657
1418.41
169.725
1301.72
183.99
1205.67
207.399
1088.41
251.463
968.96
326.405
840.204
435.086
712.766
575.951
590.565
737.694
485.448
895.74
415.804
1008.78
407.001
1025.21
481.641
906.046
628.593
652.474
791.443
321.651
858.369
668.408
-167.93
1699.99
-205.18
1929.85
-247.009
1743.66
-344.478
1608.04
-462.107
1536.04
-601.948
1441.56
-745.677
1349.4
-877.863
1220.6
-981.686
1072.78
-1050.99
909.513
-1084.61
746.378
-1080.56
586.521
-1035.62
440.507
-945.419
325.602
-805.607
267.189
-609.905
285.94
-369.771
388.458
-138.634
560.305
-8.74629
728.481
659.661
-68.559
1768.55
-230.722
2092.01
-380.803
1893.74
-528.892
1756.12
-687.886
1695.03
-862.241
1615.91
-1045.03
1532.18
-1230.5
1406.07
-1414.66
1256.94
-1596.03
1090.87
-1774.34
924.692
-1943.75
755.925
-2088.36
585.113
-2177.74
414.979
-2164.52
253.975
-1996.78
118.191
-1650.57
42.2452
-1123.05
32.7872
-477.741
83.1672
181.92
305.905
1462.64
258.782
2139.13
90.0743
2062.45
-35.0191
1881.21
-115.043
1775.05
-180.086
1680.95
-242.483
1594.58
-315.567
1479.15
-403.166
1344.54
-504.143
1191.85
-613.708
1034.25
-729.316
871.531
-848.185
703.98
-963.783
530.575
-1062.39
352.575
-1122.44
178.236
-1111.86
31.6668
-956.063
-123.014
-582.407
-290.493
-400.487
566.499
896.14
778.832
1926.79
713.205
2128.07
638.731
1955.68
636.6
1777.18
675.433
1642.12
731.996
1538.01
780.457
1430.69
810.078
1314.92
814.309
1187.61
794.848
1053.71
751.075
915.3
680.896
774.154
581.192
630.276
449.881
483.879
296.195
331.915
153.817
174.032
50.2933
-19.504
-40.8746
-199.336
-441.362
415.646
480.49
583.317
1759.12
592.311
2119.07
589.597
1958.39
625.335
1741.44
689.424
1578.02
767.322
1460.11
843.236
1354.77
908.331
1249.82
955.939
1140
983.699
1025.95
989.762
909.235
972.109
791.804
927.896
674.486
853.681
558.092
745.934
439.659
602.288
317.675
406.817
175.962
203.709
3.76671
-237.653
38.57
441.913
25.8288
1771.86
67.3574
2077.54
135.698
1890.05
209.579
1667.55
285.737
1501.86
362.25
1383.59
435.336
1281.68
500.922
1184.23
555.162
1085.76
594.903
986.204
617.514
886.619
620.878
788.437
603.512
691.847
564.743
596.858
504.36
500.038
420.448
401.585
305.061
291.345
147.725
161.095
-89.9276
-168.185
610.094
-226.833
1830.5
-160.505
2011.21
-73.6607
1803.2
3.92835
1589.96
75.081
1430.71
143.843
1314.83
209.105
1216.41
268.259
1125.07
318.553
1035.46
357.581
947.173
384.044
860.153
398.191
774.287
401.658
688.378
396.753
601.759
381.814
514.973
346.263
437.134
270.258
367.347
134.428
296.918
44.5008
-134.334
744.425
-157.249
1853.41
-61.633
1915.59
40.4384
1701.13
128.978
1501.42
207.628
1352.05
279.725
1242.73
346.443
1149.69
405.967
1065.54
456.918
984.505
499.401
904.688
535.157
824.393
567.93
741.512
601.027
655.279
630.968
571.816
639.055
506.885
596.263
479.925
474.058
489.55
267.998
502.976
312.499
-20.8513
765.274
-26.9856
1859.55
10.9747
1877.63
51.7732
1660.33
94.8312
1458.36
137.419
1309.46
187.639
1192.51
238.563
1098.77
292.098
1012.01
351.319
925.282
419.385
836.62
499.493
744.282
592.96
648.043
691.957
556.281
772.832
490.94
794.065
485.65
717.459
556.532
528.302
678.706
272.198
759.081
584.697
29.8571
265.051
462.953
605.262
717.081
809.322
858.687
897.383
918.004
921.635
911.103
890.355
861.595
819.897
754.427
654.226
518.035
355.29
184.816
)
;

boundaryField
{
    outletWall
    {
        type            calculated;
        value           nonuniform List<scalar> 
60
(
4516.32
2924.23
858.552
-1507.56
-5335.18
-10266.8
-14930.6
-17261.3
-13678.9
-1637.35
12830.8
15774.8
15291
13084.3
7903.68
-6939.08
-9822.12
-9857.69
-8122.35
-2466.38
2616.06
2776.68
3461.75
4727.36
6615.69
9138.81
12269.7
15700.3
17968.4
16863.8
13722.7
10869.3
8271.75
5994.63
4063.74
2457.94
1241.03
538.7
488.33
887.412
2233.67
-3214.21
-6105.09
-8555.98
-8771.65
-4147.4
5864.92
10081.4
10593.2
8382.48
-1421.12
-7734.05
-9824.71
-10627.2
-10801.1
-10615
-10092.5
-9553.04
-7459.83
-1265.2
)
;
    }
    fineWalls
    {
        type            calculated;
        value           uniform 0;
    }
    fineFrontAndBack
    {
        type            calculated;
        value           nonuniform List<scalar> 
960
(
2.49251e-13
1.00323e-12
8.63915e-13
2.80085e-14
1.09273e-12
2.46462e-13
2.21448e-13
3.08769e-13
5.30336e-13
4.33521e-14
1.53277e-13
3.9683e-12
9.29335e-13
6.44149e-13
2.7517e-12
4.46905e-14
-4.78434e-13
-3.81939e-12
-8.63976e-13
-1.41593e-12
-9.75324e-14
-4.17472e-13
-4.44655e-13
-4.64218e-13
-4.5253e-13
-4.86056e-13
-5.72831e-13
-2.70394e-13
-1.7538e-13
-2.17805e-14
2.75105e-13
6.52805e-13
1.04374e-12
1.31912e-12
1.33968e-12
1.06056e-12
6.62905e-13
3.24627e-13
1.41849e-13
-2.76152e-14
7.8186e-12
1.02424e-12
2.75781e-13
-7.97529e-13
3.33189e-13
1.01961e-12
1.49849e-12
-4.51686e-13
3.9758e-11
2.66738e-11
6.60132e-11
7.45548e-11
4.7483e-13
2.55254e-12
1.9259e-12
8.10376e-12
2.26598e-13
-1.05961e-12
-1.93686e-12
-1.28443e-11
-4.52102e-14
-2.43099e-13
-3.796e-13
-7.33929e-13
-1.15789e-12
-1.38415e-12
-1.31009e-12
-1.04653e-12
-6.84336e-13
-3.28614e-13
-7.80526e-14
6.27639e-14
1.5908e-13
-2.09719e-12
3.42433e-13
2.65798e-13
2.38504e-13
1.78405e-13
9.89855e-14
-2.87874e-13
-8.38941e-13
-1.10227e-12
-4.44143e-12
-4.86379e-13
-2.57303e-13
-2.05655e-13
1.72956e-14
2.89344e-13
1.79031e-12
2.80723e-13
8.92802e-13
6.88769e-12
2.57575e-12
1.31115e-12
2.74478e-13
-8.21586e-13
-1.96092e-13
5.60772e-16
-7.91154e-13
-3.26037e-13
1.62787e-11
1.91737e-11
1.86939e-11
1.89727e-11
1.89625e-11
1.83425e-11
1.81874e-11
2.01295e-11
2.44683e-11
2.84271e-11
2.79826e-11
1.94131e-11
9.92487e-12
3.13036e-12
-3.13847e-13
-1.53322e-12
-1.76003e-12
-1.70253e-12
-1.41722e-12
1.81776e-11
1.95423e-11
1.86392e-11
1.89295e-11
1.89293e-11
1.8811e-11
2.16829e-11
2.83475e-11
3.50975e-11
3.6584e-11
3.08947e-11
2.13366e-11
1.0959e-11
3.50071e-12
-1.52445e-13
-1.4645e-12
-1.77818e-12
-1.70793e-12
-2.07789e-12
1.85208e-11
2.0954e-11
1.90644e-11
1.88758e-11
1.88143e-11
2.07735e-11
2.75993e-11
3.62627e-11
4.12164e-11
3.90645e-11
3.08197e-11
2.31087e-11
1.26923e-11
4.35405e-12
8.68919e-14
-1.45176e-12
-1.87053e-12
-1.72187e-12
-3.08272e-12
1.61357e-11
2.20281e-11
2.04834e-11
1.92826e-11
1.88758e-11
2.4552e-11
3.51083e-11
4.31413e-11
4.47836e-11
3.95348e-11
2.95655e-11
2.07516e-11
1.51369e-11
5.92204e-12
5.22687e-13
-1.43449e-12
-1.99065e-12
-2.11939e-12
-1.92713e-12
1.32405e-11
2.1826e-11
2.2278e-11
2.04882e-11
1.95848e-11
2.87844e-11
4.12466e-11
4.50998e-11
4.13439e-11
3.32155e-11
2.45368e-11
1.85008e-11
1.71493e-11
7.43186e-12
1.10726e-12
-1.23874e-12
-1.87336e-12
-2.39593e-12
-2.16978e-12
1.26344e-11
2.20349e-11
2.35756e-11
2.20991e-11
2.10268e-11
3.07795e-11
4.16773e-11
3.72531e-11
2.61456e-11
1.6367e-11
1.27613e-11
1.46608e-11
1.61213e-11
9.00804e-12
1.62672e-12
-5.30557e-13
-1.72314e-12
-4.33654e-13
-4.16923e-12
1.48811e-11
2.42251e-11
2.44375e-11
2.34035e-11
2.27774e-11
2.99775e-11
3.19982e-11
1.68146e-11
5.19248e-13
-6.6707e-12
-3.13732e-12
8.30517e-12
1.43575e-11
1.03435e-11
2.1794e-12
8.244e-14
-2.59442e-12
2.71533e-12
-1.11191e-11
1.79776e-11
2.76458e-11
2.58622e-11
2.48214e-11
2.46175e-11
2.70766e-11
1.43649e-11
-8.40976e-12
-2.05209e-11
-2.01149e-11
-1.27782e-11
3.14188e-12
1.29078e-11
8.66001e-12
2.52748e-12
3.99292e-12
-2.11502e-12
-1.46445e-11
-2.1831e-11
1.88955e-11
2.84315e-11
2.53979e-11
2.52347e-11
2.67469e-11
2.42244e-11
-3.72041e-12
-2.359e-11
-2.50087e-11
-1.79383e-11
-1.00779e-11
4.44887e-12
1.22618e-11
8.47642e-12
1.24658e-11
2.04585e-11
2.01106e-11
1.51347e-11
1.01969e-11
1.88994e-11
3.38196e-11
2.91091e-11
2.63411e-11
2.39402e-11
9.47294e-12
-2.15425e-11
-2.75909e-11
-2.13592e-11
-1.3588e-11
-3.57282e-12
1.13561e-11
1.46068e-11
1.38959e-11
1.81344e-11
1.46788e-11
-4.08104e-12
1.1113e-11
6.20098e-11
5.18082e-12
2.74135e-11
3.16091e-11
2.98178e-11
2.1908e-11
1.80014e-12
-1.86078e-11
-2.63232e-11
-1.93164e-11
-1.34883e-11
-2.74624e-12
1.23261e-11
1.94039e-11
1.97933e-11
1.87061e-11
7.57287e-12
1.90528e-14
2.24089e-11
5.45927e-11
-1.49358e-11
9.90239e-13
8.2742e-12
6.02403e-12
-8.3678e-12
-2.82771e-11
-3.01519e-11
-2.27375e-11
-1.93312e-11
-1.45815e-11
-5.49154e-12
7.76407e-12
1.48292e-11
1.31069e-11
3.1373e-12
-1.0231e-11
-9.78272e-12
-2.01744e-12
2.19101e-12
-3.06763e-11
-2.90248e-11
-2.98982e-11
-3.21847e-11
-3.27231e-11
-2.92853e-11
-2.468e-11
-2.2354e-11
-1.96276e-11
-1.5227e-11
-1.02917e-11
-4.05623e-12
1.18615e-12
-7.38775e-13
-8.87959e-12
-9.50413e-12
1.59185e-12
7.4091e-12
1.44921e-11
-3.65225e-11
-3.83786e-11
-3.58354e-11
-3.2918e-11
-2.9064e-11
-2.58105e-11
-2.38715e-11
-2.23648e-11
-2.00555e-11
-1.59018e-11
-1.44928e-11
-1.39045e-11
-1.15591e-11
-1.09664e-11
-1.1555e-11
-5.93881e-12
-2.98118e-12
6.1271e-13
1.29432e-11
-3.6651e-11
-3.82873e-11
-3.37862e-11
-2.99302e-11
-2.64326e-11
-2.44488e-11
-2.35458e-11
-2.25351e-11
-2.05322e-11
-1.6088e-11
-1.48128e-11
-1.77727e-11
-1.86737e-11
-1.63299e-11
-1.22365e-11
-8.79928e-12
-3.42166e-12
8.80352e-13
3.61561e-12
-3.46352e-11
-3.58361e-11
-3.0136e-11
-2.64807e-11
-2.43026e-11
-2.37443e-11
-2.36271e-11
-2.27729e-11
-2.08674e-11
-1.65e-11
-1.33019e-11
-1.63778e-11
-2.03346e-11
-1.95085e-11
-1.39879e-11
-9.94242e-12
-2.02341e-12
1.72251e-12
1.94605e-12
-3.14566e-11
-3.16904e-11
-2.59068e-11
-2.38325e-11
-2.33829e-11
-2.37226e-11
-2.38056e-11
-2.2884e-11
-2.10435e-11
-1.75371e-11
-1.27013e-11
-1.29238e-11
-1.75608e-11
-2.02357e-11
-1.79459e-11
-7.07505e-12
-7.30738e-13
1.69286e-12
1.18816e-12
-2.74041e-11
-2.6901e-11
-2.28104e-11
-2.27074e-11
-2.32911e-11
-2.38261e-11
-2.38717e-11
-2.29194e-11
-2.11364e-11
-1.83622e-11
-1.39074e-11
-1.09391e-11
-1.25375e-11
-1.54387e-11
-1.26557e-11
-4.42484e-12
-9.22535e-14
1.71947e-12
1.91187e-12
-2.32579e-11
-2.31251e-11
-2.16327e-11
-2.2582e-11
-2.33572e-11
-2.38379e-11
-2.38785e-11
-2.29391e-11
-2.11813e-11
-1.84707e-11
-1.54147e-11
-1.14757e-11
-9.58063e-12
-9.64932e-12
-6.68098e-12
-2.47767e-12
2.36016e-13
1.89631e-12
1.76374e-12
-1.81998e-11
-2.17378e-11
-2.15768e-11
-2.26051e-11
-2.33385e-11
-2.38155e-11
-2.38848e-11
-2.29539e-11
-2.11856e-11
-1.83248e-11
-1.59677e-11
-1.25742e-11
-9.2649e-12
-6.88185e-12
-4.73686e-12
-1.67832e-12
6.00453e-13
2.08636e-12
1.68824e-12
-2.49251e-13
-1.00323e-12
-8.63915e-13
-2.80085e-14
-1.09273e-12
-2.46462e-13
-2.21448e-13
-3.08769e-13
-5.30336e-13
-4.33521e-14
-1.53277e-13
-3.9683e-12
-9.29335e-13
-6.44149e-13
-2.7517e-12
-4.46905e-14
4.78434e-13
3.81939e-12
8.63976e-13
1.41593e-12
9.75324e-14
4.17472e-13
4.44655e-13
4.64218e-13
4.5253e-13
4.86056e-13
5.72831e-13
2.70394e-13
1.7538e-13
2.17805e-14
-2.75105e-13
-6.52805e-13
-1.04374e-12
-1.31912e-12
-1.33968e-12
-1.06056e-12
-6.62905e-13
-3.24627e-13
-1.41849e-13
2.76152e-14
-7.8186e-12
-1.02424e-12
-2.75781e-13
7.97529e-13
-3.33189e-13
-1.01961e-12
-1.49849e-12
4.51686e-13
-3.9758e-11
-2.66738e-11
-6.60132e-11
-7.45548e-11
-4.7483e-13
-2.55254e-12
-1.9259e-12
-8.10376e-12
-2.26598e-13
1.05961e-12
1.93686e-12
1.28443e-11
4.52102e-14
2.43099e-13
3.796e-13
7.33929e-13
1.15789e-12
1.38415e-12
1.31009e-12
1.04653e-12
6.84336e-13
3.28614e-13
7.80526e-14
-6.27639e-14
-1.5908e-13
2.09719e-12
-3.42433e-13
-2.65798e-13
-2.38504e-13
-1.78405e-13
-9.89855e-14
2.87874e-13
8.38941e-13
1.10227e-12
4.44143e-12
4.86379e-13
2.57303e-13
2.05655e-13
-1.72956e-14
-2.89344e-13
-1.79031e-12
-2.80723e-13
-8.92802e-13
-6.88769e-12
-2.57575e-12
-1.31115e-12
-2.74478e-13
8.21586e-13
1.96092e-13
-5.60772e-16
7.91154e-13
3.26037e-13
-1.62787e-11
-1.91737e-11
-1.86939e-11
-1.89727e-11
-1.89625e-11
-1.83425e-11
-1.81874e-11
-2.01295e-11
-2.44683e-11
-2.84271e-11
-2.79826e-11
-1.94131e-11
-9.92487e-12
-3.13036e-12
3.13847e-13
1.53322e-12
1.76003e-12
1.70253e-12
1.41722e-12
-1.81776e-11
-1.95423e-11
-1.86392e-11
-1.89295e-11
-1.89293e-11
-1.8811e-11
-2.16829e-11
-2.83475e-11
-3.50975e-11
-3.6584e-11
-3.08947e-11
-2.13366e-11
-1.0959e-11
-3.50071e-12
1.52445e-13
1.4645e-12
1.77818e-12
1.70793e-12
2.07789e-12
-1.85208e-11
-2.0954e-11
-1.90644e-11
-1.88758e-11
-1.88143e-11
-2.07735e-11
-2.75993e-11
-3.62627e-11
-4.12164e-11
-3.90645e-11
-3.08197e-11
-2.31087e-11
-1.26923e-11
-4.35405e-12
-8.68919e-14
1.45176e-12
1.87053e-12
1.72187e-12
3.08272e-12
-1.61357e-11
-2.20281e-11
-2.04834e-11
-1.92826e-11
-1.88758e-11
-2.4552e-11
-3.51083e-11
-4.31413e-11
-4.47836e-11
-3.95348e-11
-2.95655e-11
-2.07516e-11
-1.51369e-11
-5.92204e-12
-5.22687e-13
1.43449e-12
1.99065e-12
2.11939e-12
1.92713e-12
-1.32405e-11
-2.1826e-11
-2.2278e-11
-2.04882e-11
-1.95848e-11
-2.87844e-11
-4.12466e-11
-4.50998e-11
-4.13439e-11
-3.32155e-11
-2.45368e-11
-1.85008e-11
-1.71493e-11
-7.43186e-12
-1.10726e-12
1.23874e-12
1.87336e-12
2.39593e-12
2.16978e-12
-1.26344e-11
-2.20349e-11
-2.35756e-11
-2.20991e-11
-2.10268e-11
-3.07795e-11
-4.16773e-11
-3.72531e-11