/*--------------------------------*- C++ -*----------------------------------*\
| =========                 |                                                 |
| \\      /  F ield         | OpenFOAM: The Open Source CFD Toolbox           |
|  \\    /   O peration     | Version:  4.1                                   |
|   \\  /    A nd           | Web:      www.OpenFOAM.org                      |
|    \\/     M anipulation  |                                                 |
\*---------------------------------------------------------------------------*/
FoamFile
{
    version     2.0;
    format      ascii;
    class       volVectorField;
    location    "11";
    object      U;
}
// * * * * * * * * * * * * * * * * * * * * * * * * * * * * * * * * * * * * * //

dimensions      [0 1 -1 0 0 0 0];

internalField   nonuniform List<vector> 
1280
(
(1.80127e-16 -0.728959 -1.71684)
(1.70508e-16 0.0534209 -1.45063)
(9.16166e-16 -0.324485 -0.710528)
(2.0241e-17 -0.107528 -0.732952)
(1.8572e-16 0.340659 -1.40632)
(1.78111e-16 0.337299 -0.975886)
(1.60035e-16 0.500295 -0.943405)
(2.84578e-16 0.603691 -0.91684)
(-1.61095e-17 0.985392 -1.46807)
(3.13295e-17 0.999196 -1.10807)
(9.74893e-17 1.20054 -1.0215)
(8.11164e-16 1.63304 -1.64314)
(6.69473e-16 1.561 -1.30257)
(4.70315e-16 1.82848 -1.24973)
(5.15201e-16 2.37346 -2.09831)
(3.22967e-17 2.20245 -1.76156)
(-3.45751e-16 2.63919 -1.66415)
(-6.49142e-16 3.01648 -3.14902)
(-6.32577e-16 3.43758 -1.96938)
(-1.02325e-15 3.10035 -3.90615)
(-4.00133e-16 3.47183 -0.544958)
(-1.71271e-15 3.81756 5.56232)
(-1.82423e-15 3.53643 8.45867)
(-1.90449e-15 3.94677 9.3009)
(-1.85653e-15 4.21183 8.92607)
(-1.99408e-15 4.85654 8.63531)
(-1.20755e-16 3.94301 4.87496)
(-1.10931e-15 7.93065 10.7334)
(-7.19508e-16 8.2285 11.4682)
(-8.9356e-17 8.40355 12.3072)
(1.12864e-15 8.50758 13.0178)
(2.67817e-15 8.53201 13.4256)
(4.28201e-15 8.4873 13.4722)
(5.41176e-15 8.38492 13.323)
(5.49613e-15 8.29632 13.2364)
(4.351e-15 8.14877 13.379)
(2.71961e-15 8.12202 13.7205)
(1.3318e-15 7.95256 14.0343)
(5.81944e-16 8.16198 14.3183)
(-1.13293e-16 7.98456 12.6718)
(1.36094e-15 11.3127 12.2875)
(8.2268e-16 6.78368 7.78075)
(2.21511e-16 5.71587 7.35472)
(-5.9856e-16 4.98676 6.97602)
(3.942e-16 4.21658 7.65206)
(8.18965e-16 2.63888 5.02285)
(1.2036e-15 2.21014 4.92771)
(-3.628e-16 1.59151 4.98563)
(9.044e-15 0.605622 3.78905)
(2.14248e-14 0.62253 1.7822)
(5.30227e-14 -0.521812 0.619974)
(1.29773e-14 -0.456525 3.41715)
(3.81389e-16 -1.33901 4.92395)
(2.05023e-15 -1.94559 4.80836)
(1.54691e-15 -2.37534 4.89819)
(1.41058e-15 -3.91615 7.49741)
(2.25908e-16 -4.75077 6.91817)
(-8.51094e-16 -5.44692 7.28367)
(-1.55571e-15 -6.50796 7.71195)
(-2.70889e-15 -11.1122 12.2219)
(-1.85478e-16 -7.9028 12.5959)
(-9.97329e-16 -8.07496 14.2503)
(-1.55733e-15 -7.86625 13.9795)
(-3.01099e-15 -8.03346 13.6891)
(-4.7503e-15 -8.06013 13.3813)
(-5.67856e-15 -8.20836 13.2802)
(-5.37475e-15 -8.30003 13.4125)
(-4.29346e-15 -8.4074 13.6117)
(-2.80753e-15 -8.46002 13.6221)
(-1.34816e-15 -8.44612 13.271)
(-3.20216e-16 -8.3524 12.6068)
(2.57493e-16 -8.18808 11.8017)
(6.52637e-16 -7.90389 11.0813)
(-4.42095e-16 -3.87456 5.19568)
(1.40485e-15 -4.83527 8.73773)
(1.09045e-15 -4.20334 8.97677)
(9.78476e-16 -3.94791 9.28744)
(7.31919e-16 -3.5433 8.39266)
(4.06094e-16 -3.82748 5.45673)
(-1.18102e-15 -3.48169 -0.686472)
(-6.06281e-16 -3.10551 -4.07521)
(-8.17086e-16 -3.43952 -2.13391)
(-7.54863e-16 -2.69261 -3.42894)
(-3.51494e-16 -2.3913 -1.76885)
(-1.85946e-16 -1.91923 -1.93689)
(7.13812e-17 -1.74227 -2.35817)
(3.70997e-17 -1.28042 -1.25885)
(2.33702e-16 -1.01284 -1.44471)
(2.55159e-16 -0.68155 -1.88343)
(2.21408e-16 -0.464105 -1.06554)
(6.63741e-16 -0.247419 -1.23409)
(1.52142e-15 0.159393 -1.62084)
(2.07312e-15 0.212067 -1.03434)
(9.47537e-16 0.404063 -0.99099)
(1.98358e-16 0.517564 -0.957433)
(-1.39636e-16 0.957099 -1.37895)
(-1.41711e-16 0.884384 -1.03169)
(-3.91696e-18 1.08546 -0.875125)
(-1.50655e-16 1.31475 -1.14739)
(-2.35618e-16 1.46052 -1.19221)
(1.80874e-15 -0.793845 0.745456)
(2.13042e-15 -2.68989 0.67883)
(2.0771e-15 -3.29119 0.690645)
(2.10808e-15 -3.30356 0.556468)
(2.10694e-15 -2.4264 0.402649)
(2.03806e-15 2.58314 0.131456)
(2.02083e-15 4.32517 0.517404)
(2.23661e-15 5.06299 1.48277)
(2.71869e-15 5.24968 2.11265)
(3.15857e-15 4.34671 1.97442)
(3.10918e-15 -0.562826 -0.0900118)
(2.15701e-15 -4.40404 -1.83009)
(1.10276e-15 -5.69028 -2.47844)
(3.47818e-16 -4.98068 -2.49963)
(-3.48719e-17 -3.4498 -2.26017)
(-1.70358e-16 -1.80656 -2.02034)
(-1.95559e-16 -0.5193 -1.90593)
(-1.8917e-16 0.274239 -1.80191)
(-1.57469e-16 0.951873 -1.54387)
(2.01973e-15 -0.852571 0.442605)
(2.17136e-15 -2.74188 0.623185)
(2.07102e-15 -3.25342 0.85322)
(2.10328e-15 -3.19802 0.808622)
(2.10326e-15 -2.05906 0.580992)
(2.09011e-15 2.4827 0.808546)
(2.40921e-15 3.85268 2.11053)
(3.14972e-15 4.51296 3.51448)
(3.89972e-15 5.09923 4.35587)
(4.06489e-15 4.84511 4.1769)
(3.43274e-15 1.02821 1.84692)
(2.37074e-15 -4.04457 -1.78647)
(1.21767e-15 -5.60223 -2.18287)
(3.88968e-16 -5.04004 -2.21171)
(-1.69383e-17 -3.55418 -2.1183)
(-1.62722e-16 -1.85647 -2.0306)
(-1.97576e-16 -0.552288 -2.08888)
(-1.8977e-16 0.131121 -2.03127)
(-2.30877e-16 0.741861 -1.64504)
(2.05786e-15 -0.900031 0.492741)
(2.32822e-15 -2.84226 0.514477)
(2.11827e-15 -3.32865 1.01034)
(2.09731e-15 -3.23871 1.15373)
(2.09048e-15 -2.08209 1.08611)
(2.30817e-15 1.77312 1.95918)
(3.06659e-15 3.3183 3.61319)
(4.02918e-15 4.08643 5.10698)
(4.5796e-15 4.97149 6.12195)
(4.34051e-15 5.2764 6.02502)
(3.42441e-15 2.4805 3.77163)
(2.56764e-15 -2.95213 -1.24384)
(1.41026e-15 -5.41607 -1.68431)
(4.83783e-16 -5.02025 -1.70022)
(9.65465e-18 -3.56807 -1.79073)
(-1.61306e-16 -1.8324 -1.92898)
(-2.07837e-16 -0.544517 -2.25377)
(-1.91319e-16 0.0724562 -2.25337)
(-3.42524e-16 0.663159 -1.95822)
(1.79286e-15 -0.891182 1.07294)
(2.44757e-15 -2.9277 0.694224)
(2.27593e-15 -3.4915 1.18148)
(2.14251e-15 -3.36112 1.52691)
(2.09731e-15 -2.20693 1.74655)
(2.728e-15 1.32884 3.17573)
(3.90092e-15 2.67571 5.22765)
(4.79348e-15 3.51213 6.93095)
(4.97595e-15 4.75545 8.10011)
(4.39276e-15 5.77748 8.09468)
(3.28506e-15 4.12039 5.97003)
(2.30573e-15 -1.9788 -0.0389075)
(1.68187e-15 -5.28701 -1.01168)
(6.58005e-16 -4.94919 -0.944141)
(5.80763e-17 -3.47773 -1.2665)
(-1.59388e-16 -1.65655 -1.71011)
(-2.21183e-16 -0.436719 -2.37589)
(-2.35487e-16 -0.0957286 -2.44347)
(-2.14126e-16 0.463217 -2.39725)
(1.47117e-15 -0.806609 2.078)
(2.42511e-15 -2.90339 1.37318)
(2.47533e-15 -3.64123 1.56929)
(2.27647e-15 -3.55753 1.94175)
(2.17609e-15 -2.52052 2.38839)
(3.19827e-15 0.452017 4.31537)
(4.58296e-15 1.87152 6.77947)
(5.01109e-15 2.9102 8.39793)
(4.59377e-15 4.51273 9.39109)
(3.69061e-15 6.18329 9.44273)
(2.72632e-15 5.62051 7.91352)
(2.05565e-15 -0.535217 2.7025)
(1.90548e-15 -5.04143 -0.370911)
(8.25762e-16 -4.85077 0.135395)
(1.23028e-16 -3.27866 -0.584483)
(-1.37638e-16 -1.35233 -1.42806)
(-2.08151e-16 -0.242694 -2.59582)
(-2.66215e-16 0.131327 -2.68419)
(-2.41087e-16 0.497 -3.0274)
(1.40382e-15 -0.643356 3.41337)
(2.44833e-15 -2.74673 2.54084)
(2.61951e-15 -3.68878 2.35937)
(2.45545e-15 -3.75397 2.54332)
(2.33632e-15 -2.97667 3.00547)
(3.41995e-15 -0.563448 5.10733)
(4.63082e-15 1.0983 7.74715)
(4.13923e-15 2.45337 8.67073)
(2.90507e-15 4.35512 8.89125)
(1.81856e-15 6.43199 8.84524)
(1.41792e-15 6.72838 8.40506)
(1.62898e-15 1.45441 5.29445)
(1.79126e-15 -4.41259 0.640279)
(1.00089e-15 -4.74065 1.31864)
(1.80746e-16 -2.87613 0.222036)
(-5.89507e-17 -0.80071 -1.12611)
(-1.9146e-16 -0.026417 -2.75282)
(-4.81838e-17 -0.287764 -3.26799)
(-4.63248e-16 0.131147 -3.65718)
(1.65345e-15 -0.468044 5.03323)
(2.69168e-15 -2.50769 4.15205)
(2.71527e-15 -3.61354 3.60204)
(2.60039e-15 -3.8638 3.47559)
(2.53083e-15 -3.422 3.6887)
(3.33084e-15 -1.53622 5.4521)
(3.55535e-15 0.550978 7.39745)
(1.86829e-15 2.41007 6.93765)
(5.76942e-17 4.43514 5.97249)
(-7.41189e-16 6.39801 5.81223)
(-3.48591e-16 7.03198 6.80321)
(9.22796e-16 2.78623 6.72523)
(1.59528e-15 -3.61338 2.58576)
(1.14927e-15 -4.56637 2.50024)
(2.42155e-16 -2.38507 1.29822)
(9.16001e-18 -0.0607923 -1.78681)
(-2.88269e-16 0.74805 -1.72053)
(3.01704e-16 0.975171 -3.78699)
(-1.23546e-15 1.7937 -1.44841)
(1.99751e-15 -0.310128 6.9505)
(3.07176e-15 -2.19648 6.1744)
(2.87358e-15 -3.3964 5.27908)
(2.75794e-15 -3.81527 4.81843)
(2.73528e-15 -3.68411 4.60174)
(3.00852e-15 -2.14255 5.53324)
(1.5961e-15 0.585163 5.69014)
(-9.34418e-16 2.93858 3.8368)
(-2.2801e-15 4.76126 2.55324)
(-2.23499e-15 6.07594 2.56412)
(-1.4198e-15 6.39156 4.47639)
(3.49097e-16 3.13007 7.25362)
(1.4342e-15 -2.92967 4.81833)
(9.62223e-16 -4.0567 3.04891)
(2.80831e-16 -1.1491 1.69658)
(4.43658e-16 0.766533 1.38913)
(-2.35002e-16 0.350762 4.20962)
(-1.62717e-15 -0.877741 4.70161)
(-2.42567e-15 -4.71495 7.03633)
(2.09951e-15 -0.207184 9.13718)
(3.15906e-15 -1.8514 8.52971)
(2.82199e-15 -3.06641 7.32857)
(2.80386e-15 -3.61066 6.55643)
(2.97188e-15 -3.65119 5.82323)
(2.6916e-15 -2.106 5.54581)
(-4.13379e-16 1.23256 3.6516)
(-2.62111e-15 3.62231 1.65915)
(-2.77875e-15 4.92931 1.38691)
(-1.99314e-15 5.64606 1.89487)
(-1.11977e-15 5.2623 3.95427)
(4.94319e-16 2.72088 7.89648)
(1.36242e-15 -1.95648 6.92569)
(9.41824e-16 -3.42121 4.76479)
(1.38509e-15 -1.94423 7.1343)
(2.27317e-15 -1.07493 11.8202)
(2.23452e-15 -0.490825 13.3626)
(1.68164e-15 -0.620498 12.61)
(1.13299e-15 -2.15851 10.3137)
(2.09993e-15 -0.151115 11.5378)
(3.75774e-15 -1.46125 11.1951)
(3.23435e-15 -2.61151 9.7018)
(2.92679e-15 -3.20488 8.62077)
(2.66002e-15 -3.24504 7.2625)
(1.05255e-15 -1.39228 5.31722)
(-2.58434e-15 2.12089 1.87947)
(-3.06566e-15 3.88859 1.16433)
(-2.37324e-15 4.67306 1.76344)
(-1.50978e-15 5.04914 2.73851)
(-3.9698e-16 4.04597 5.31569)
(1.66154e-15 1.72168 9.37769)
(1.62298e-15 -1.84864 10.3332)
(1.54398e-15 -3.78861 9.37646)
(1.89211e-15 -3.4414 11.5797)
(1.63097e-15 -1.58509 13.6459)
(-4.53449e-16 0.0559811 12.7635)
(1.23477e-15 0.251567 11.215)
(6.88998e-15 -0.360044 7.6145)
(5.75646e-16 -0.168738 14.1741)
(3.04595e-15 -1.06867 14.7992)
(3.51212e-15 -2.05562 13.1666)
(3.31309e-15 -2.6495 11.3139)
(2.43422e-15 -2.31318 8.23306)
(2.00015e-16 0.134645 3.77408)
(-1.91755e-15 2.81018 0.894442)
(-2.9248e-15 3.72452 1.37804)
(-2.14626e-15 4.27135 1.99882)
(-1.49871e-15 4.21406 3.28751)
(-3.05138e-16 2.70848 6.6699)
(1.36957e-15 0.606179 10.3118)
(2.15599e-15 -2.09599 11.8325)
(2.19925e-15 -3.96079 12.0099)
(2.07846e-15 -3.8739 12.9141)
(8.4143e-16 -1.69335 13.7441)
(2.11698e-18 0.436718 13.4996)
(2.48987e-15 1.16458 11.9564)
(6.06586e-15 1.12903 8.10314)
(-1.65953e-15 -0.574738 15.1047)
(1.10027e-16 -1.05136 16.5527)
(9.19355e-16 -1.3033 14.5086)
(6.69337e-16 -1.19204 10.958)
(-9.29756e-16 -0.184252 5.86152)
(-3.1419e-15 1.66463 1.56604)
(-3.35021e-15 2.93737 1.0184)
(-2.52639e-15 3.51194 1.39689)
(-2.14791e-15 3.87871 1.8678)
(-1.62017e-15 3.16864 3.41314)
(-6.10171e-16 1.32723 7.37056)
(8.62675e-16 -0.375891 10.4181)
(1.64768e-15 -2.50441 11.7384)
(1.45632e-15 -4.21142 12.6123)
(3.48589e-16 -4.17019 13.701)
(-1.13678e-15 -1.68062 14.192)
(-1.08697e-15 1.02562 12.3213)
(-2.2416e-16 2.13986 10.9848)
(2.43445e-16 2.93017 10.1004)
(-3.40848e-15 -0.915799 13.2169)
(-3.22497e-15 -0.673555 13.6554)
(-3.32202e-15 0.227145 10.2833)
(-3.57608e-15 0.852686 6.47842)
(-3.6359e-15 1.36674 3.07244)
(-3.25392e-15 2.02115 1.5358)
(-2.74222e-15 2.93159 1.11151)
(-2.48378e-15 3.40942 1.17789)
(-2.18084e-15 3.44665 1.68374)
(-1.69189e-15 1.98439 3.30546)
(-1.14352e-15 0.000993676 7.34018)
(-4.50692e-16 -1.20345 9.96796)
(1.31795e-16 -2.98092 11.3121)
(-8.20861e-17 -4.64832 12.2607)
(-9.86621e-16 -4.3617 12.389)
(-1.05601e-15 -1.13799 9.07187)
(1.76873e-16 1.72636 3.52939)
(8.23233e-16 1.54787 2.97808)
(1.61023e-15 4.52654 6.11511)
(-4.05806e-15 -0.922374 10.3587)
(-4.26429e-15 0.165453 9.57521)
(-3.98171e-15 1.487 6.51288)
(-3.65756e-15 1.79465 4.55053)
(-3.22934e-15 1.95171 2.67864)
(-2.86783e-15 2.41344 1.44976)
(-2.65239e-15 3.02893 0.906318)
(-2.48498e-15 3.29798 0.988635)
(-2.22839e-15 3.02838 1.47241)
(-1.76687e-15 0.88689 2.81831)
(-1.61031e-15 -1.18883 6.104)
(-1.54494e-15 -2.04822 8.51889)
(-1.28435e-15 -3.42755 10.0498)
(-1.21848e-15 -4.63046 10.6288)
(-1.28389e-15 -3.10056 9.15357)
(-6.59868e-16 1.48263 3.90803)
(-3.31242e-16 3.27417 1.34628)
(6.80789e-17 1.41523 0.305018)
(1.43813e-15 -1.6258 -1.41279)
(-4.07233e-15 -0.769381 7.73857)
(-4.25414e-15 0.932972 6.45882)
(-3.75402e-15 2.2219 4.35684)
(-3.32558e-15 2.40953 3.24656)
(-2.93696e-15 2.50624 2.01391)
(-2.71654e-15 2.72919 1.17905)
(-2.6162e-15 3.08664 0.767742)
(-2.5039e-15 3.19144 0.821125)
(-2.28135e-15 2.72626 1.19301)
(-1.78755e-15 0.0832836 2.03976)
(-1.64586e-15 -2.15921 4.1153)
(-1.97474e-15 -2.86333 6.18443)
(-2.07485e-15 -3.77479 7.65156)
(-1.81444e-15 -4.25097 7.83944)
(-1.35962e-15 -1.68 5.40986)
(-9.77698e-16 2.21609 0.82423)
(-3.80185e-16 3.4991 0.244022)
(9.78169e-17 2.43555 -0.298249)
(4.01734e-16 1.31527 -2.19835)
(-3.84835e-15 -0.552058 5.60578)
(-3.98179e-15 1.54383 4.18821)
(-3.34844e-15 2.74526 2.88068)
(-2.9423e-15 2.76942 2.34836)
(-2.70028e-15 2.79566 1.61211)
(-2.63826e-15 2.92609 1.0258)
(-2.62523e-15 3.15428 0.644776)
(-2.53032e-15 3.12807 0.637182)
(-2.3186e-15 2.53943 0.897812)
(-1.83333e-15 -0.372234 1.26539)
(-1.47799e-15 -2.79407 2.19953)
(-1.81975e-15 -3.51385 3.58037)
(-2.2594e-15 -4.00526 4.69502)
(-2.16761e-15 -3.73104 4.74311)
(-1.55421e-15 -0.22123 2.19188)
(-1.10471e-15 3.02952 -1.0345)
(-2.24824e-16 3.78739 -1.16934)
(1.9139e-16 2.57757 -1.1826)
(2.16228e-16 0.940462 -1.62814)
(-3.49518e-15 -0.303115 3.98099)
(-3.52115e-15 1.97219 2.61476)
(-2.87854e-15 2.98794 2.06347)
(-2.64805e-15 2.94516 1.87401)
(-2.5981e-15 3.01851 1.3665)
(-2.63585e-15 3.12053 0.874108)
(-2.64507e-15 3.23226 0.523697)
(-2.54267e-15 3.0985 0.47487)
(-2.33817e-15 2.44181 0.612001)
(-1.94857e-15 -0.480935 0.590952)
(-1.41125e-15 -3.12159 0.776409)
(-1.43597e-15 -3.93028 1.3201)
(-1.9512e-15 -4.14903 1.8549)
(-2.24841e-15 -3.3105 1.85964)
(-1.99398e-15 1.0504 -0.667549)
(-7.86117e-16 3.53388 -2.42806)
(-8.11931e-17 3.74131 -1.92991)
(1.88096e-16 2.53043 -1.38188)
(1.32018e-16 1.31028 -1.42981)
(-3.0449e-15 -0.0159456 2.86758)
(-2.989e-15 2.23785 1.74524)
(-2.53449e-15 3.06052 1.75693)
(-2.52305e-15 3.05365 1.61051)
(-2.5879e-15 3.18669 1.17314)
(-2.64734e-15 3.26545 0.752176)
(-2.65242e-15 3.293 0.440439)
(-2.5466e-15 3.08543 0.334172)
(-2.34849e-15 2.38877 0.330587)
(-2.04024e-15 -0.278668 -0.00825939)
(-1.54527e-15 -3.18272 -0.19891)
(-1.21545e-15 -4.00792 -0.32798)
(-1.39305e-15 -4.06915 -0.495959)
(-1.71541e-15 -2.84008 -0.921072)
(-1.40619e-15 0.901688 -2.82097)
(-4.91649e-16 3.54975 -3.23425)
(-1.02504e-17 3.50123 -2.1673)
(1.91052e-16 2.36445 -1.52217)
(2.1243e-16 1.23177 -1.44092)
(-2.58421e-15 0.212293 2.23239)
(-2.56945e-15 2.42781 1.51443)
(-2.40363e-15 3.09487 1.6631)
(-2.50911e-15 3.17542 1.40678)
(-2.59524e-15 3.33403 1.03348)
(-2.64866e-15 3.38985 0.68053)
(-2.65316e-15 3.35811 0.38323)
(-2.54879e-15 3.10063 0.206061)
(-2.35347e-15 2.3721 0.0676885)
(-2.0523e-15 -0.075907 -0.391871)
(-1.71275e-15 -3.08418 -0.869294)
(-1.27507e-15 -3.90722 -1.26999)
(-1.06451e-15 -3.86198 -1.88178)
(-1.07215e-15 -2.45647 -2.68669)
(-7.42331e-16 1.2966 -3.82072)
(-2.75297e-16 3.32446 -3.26515)
(2.6224e-17 3.18678 -2.23967)
(2.10702e-16 2.23897 -1.72977)
(1.95971e-16 1.24408 -1.62802)
(-2.0222e-15 0.441268 2.11121)
(-2.41531e-15 2.43414 1.62546)
(-2.39743e-15 3.16629 1.55058)
(-2.51168e-15 3.35604 1.27192)
(-2.59317e-15 3.53373 0.971998)
(-2.64617e-15 3.59796 0.653255)
(-2.65387e-15 3.54584 0.341069)
(-2.55044e-15 3.29406 0.10163)
(-2.35395e-15 2.62518 -0.131998)
(-2.03609e-15 0.656489 -0.459305)
(-1.77419e-15 -2.83058 -1.1029)
(-1.39713e-15 -3.56175 -1.55291)
(-1.02943e-15 -3.39008 -2.17393)
(-7.6465e-16 -1.94895 -2.89987)
(-5.26318e-16 1.38197 -3.33781)
(-1.8648e-16 2.90481 -2.96551)
(6.6717e-17 2.86109 -2.40877)
(2.31817e-16 2.05872 -1.97909)
(1.87582e-16 1.10836 -1.73809)
(-1.48844e-18 7.79184 13.3954)
(-4.79794e-15 17.1324 29.4645)
(-3.81433e-15 18.1525 29.8935)
(-3.83819e-15 16.3962 26.5892)
(-4.10612e-15 14.8438 23.3598)
(-5.9987e-15 13.6275 20.9453)
(-5.92716e-15 12.6001 18.8695)
(-5.69148e-15 11.7797 17.3656)
(-5.21435e-15 11.0029 15.8766)
(-4.8718e-15 10.1458 14.3406)
(-3.39242e-15 9.21739 12.7451)
(-1.45736e-15 8.22101 11.0766)
(6.61279e-16 7.19267 9.37293)
(2.17808e-15 6.26256 7.88676)
(2.13706e-15 5.7204 7.09911)
(-8.65483e-16 5.83512 7.63088)
(-5.35089e-15 6.79865 9.62434)
(-8.92134e-15 8.03065 12.447)
(-9.929e-15 8.83234 14.0851)
(-1.06026e-14 6.45535 11.3737)
(-1.86563e-16 7.03507 11.2738)
(-4.22694e-15 15.9686 28.1918)
(-2.59405e-15 16.4394 28.2712)
(-2.8112e-15 14.4053 24.8871)
(-3.18003e-15 12.8279 21.8982)
(-5.31496e-15 11.6332 19.7144)
(-4.52437e-15 10.8149 18.1523)
(-4.69241e-15 10.1531 16.8064)
(-4.84693e-15 9.55133 15.6053)
(-5.91244e-15 8.99783 14.449)
(-6.31675e-15 8.45522 13.2937)
(-7.20916e-15 7.91184 12.1019)
(-6.82533e-15 7.35278 10.83)
(-6.98649e-15 6.76982 9.48039)
(-6.9356e-15 6.25843 8.24856)
(-6.85047e-15 5.97813 7.54611)
(-7.91787e-15 6.04006 7.72748)
(-9.21915e-15 6.3419 8.66524)
(-9.47335e-15 6.29265 9.51594)
(-1.06348e-14 4.40711 6.92525)
(-9.48915e-17 6.55102 11.0815)
(-1.29829e-15 16.0608 28.6351)
(-7.93593e-16 17.4108 30.4738)
(-5.58673e-16 15.741 27.2465)
(-1.03918e-15 14.0865 24.0889)
(-2.47302e-15 12.8949 21.689)
(-1.54887e-15 11.9868 19.9045)
(-1.29167e-15 11.2742 18.4057)
(-1.71017e-15 10.6046 17.039)
(-2.12287e-15 9.95676 15.7225)
(-2.4267e-15 9.30886 14.4417)
(-2.81525e-15 8.65801 13.1809)
(-3.23617e-15 7.99447 11.9196)
(-3.55387e-15 7.31718 10.6298)
(-3.73832e-15 6.61391 9.30575)
(-3.82179e-15 5.94039 8.02456)
(-4.13286e-15 5.31824 7.03296)
(-4.93854e-15 4.88156 6.41587)
(-5.51407e-15 4.1553 6.00302)
(-8.63983e-15 2.2114 2.72588)
(7.0866e-17 4.78606 7.98741)
(3.18279e-16 15.571 27.7924)
(1.80347e-16 17.7819 31.481)
(1.8473e-16 16.1683 28.307)
(2.52828e-16 14.3108 24.9059)
(-1.46755e-15 13.0574 22.4019)
(-1.1304e-15 12.1307 20.615)
(-1.35022e-15 11.3953 19.0801)
(-1.39018e-15 10.6749 17.6318)
(-1.7924e-15 9.95288 16.1882)
(-1.75547e-15 9.21038 14.7514)
(-1.9807e-15 8.45814 13.335)
(-2.42053e-15 7.69632 11.9547)
(-2.97719e-15 6.9362 10.6011)
(-3.59126e-15 6.14633 9.2611)
(-4.22152e-15 5.35417 7.87799)
(-4.3795e-15 4.45811 6.48901)
(-5.13795e-15 3.59725 4.98823)
(-5.73978e-15 2.17329 3.28489)
(-1.79125e-14 0.16794 -0.981275)
(-2.36114e-17 3.54843 5.64239)
(-8.00207e-17 15.6124 26.7548)
(-4.37719e-17 18.7906 32.446)
(-5.26163e-17 17.4874 29.8285)
(-7.53467e-17 15.5574 26.3687)
(3.24807e-16 14.2544 23.7631)
(3.36633e-16 13.3079 21.9025)
(3.35173e-16 12.5415 20.2934)
(3.90874e-16 11.7785 18.736)
(4.42344e-16 10.9799 17.1432)
(4.65546e-16 10.1315 15.5111)
(5.47935e-16 9.24099 13.8581)
(6.69727e-16 8.31455 12.2128)
(8.09547e-16 7.3699 10.589)
(9.22535e-16 6.3852 8.99828)
(1.00159e-15 5.3834 7.39002)
(1.07973e-15 4.23959 5.73055)
(1.2447e-15 3.05086 3.80189)
(1.83625e-15 1.1213 1.37487)
(-3.40578e-15 -0.495462 -2.31409)
(2.54507e-18 5.69663 9.19641)
(1.97126e-17 17.0836 27.4041)
(1.45903e-17 20.0731 32.7867)
(1.52168e-17 18.8205 30.4592)
(2.57765e-17 16.8991 27.2479)
(-7.14726e-17 15.6782 24.8281)
(-1.00072e-16 14.771 23.0603)
(-9.84236e-17 14.0056 21.4256)
(-1.08132e-16 13.1757 19.75)
(-1.20377e-16 12.2586 17.9591)
(-1.30816e-16 11.2454 16.0767)
(-1.48266e-16 10.157 14.133)
(-1.63013e-16 9.00253 12.1604)
(-1.65274e-16 7.79639 10.1713)
(-1.49646e-16 6.51651 8.17998)
(-1.21291e-16 5.18338 6.14469)
(-9.34698e-17 3.66946 4.05149)
(-7.08705e-17 2.08252 1.59606)
(-1.01848e-16 -0.404964 -1.26799)
(8.09201e-16 -1.66068 -4.95634)
(-8.36767e-20 10.8132 18.3913)
(-3.90611e-18 20.236 31.9145)
(-4.10817e-18 20.2771 32.7536)
(-4.07168e-18 18.6499 29.7958)
(-6.71481e-18 17.0447 27.5319)
(1.32934e-17 16.2668 25.8162)
(2.37394e-17 15.453 24.4015)
(2.46833e-17 14.6846 22.7589)
(2.58246e-17 13.6608 20.8987)
(2.72292e-17 12.5069 18.7996)
(2.79487e-17 11.2059 16.587)
(2.82422e-17 9.82741 14.2953)
(2.54138e-17 8.35457 11.9485)
(1.73517e-17 6.7944 9.53919)
(4.06412e-18 5.12109 7.0718)
(-1.45715e-17 3.3595 4.52302)
(-3.82486e-17 1.45067 1.9938)
(-5.0356e-17 -0.406994 -1.04493)
(-2.20774e-16 -2.93306 -3.7178)
(1.07399e-15 -3.08557 -7.76085)
(-1.58501e-20 14.8929 26.41)
(7.44534e-19 20.7363 33.8129)
(9.23294e-19 17.6787 30.6406)
(9.14897e-19 16.45 28.0118)
(1.42831e-18 15.2211 27.0012)
(-3.09454e-18 14.7287 25.8223)
(-5.3023e-18 13.6607 24.5917)
(-5.44381e-18 12.5895 22.7065)
(-5.8793e-18 11.03 20.4576)
(-6.62114e-18 9.42047 17.8981)
(-7.02279e-18 7.67554 15.3061)
(-6.06088e-18 5.93418 12.6394)
(-2.38049e-18 4.09507 9.87972)
(4.96223e-18 2.20137 6.99569)
(1.3262e-17 0.268531 4.00505)
(7.6595e-18 -1.55926 1.15533)
(-1.91379e-17 -2.83744 -0.971303)
(-2.25251e-17 -3.89734 -3.01657)
(7.32594e-17 -5.00851 -5.29949)
(3.22569e-16 -2.77209 -4.14691)
(2.64936e-21 15.3389 27.8383)
(-1.4844e-19 17.8473 30.4386)
(-1.72404e-19 14.9136 27.4984)
(-1.78165e-19 14.3405 25.8673)
(-5.7676e-20 13.0562 24.9715)
(8.04089e-19 12.2938 23.6969)
(1.12401e-18 10.9428 22.3313)
(9.73541e-19 9.52706 20.3074)
(2.86496e-19 7.70387 17.9287)
(-9.60742e-19 5.88028 15.3298)
(-2.07155e-18 4.00407 12.7571)
(-2.49643e-18 2.17364 10.179)
(-2.00804e-18 0.362818 7.62983)
(6.43253e-19 -1.2809 5.22494)
(6.33189e-18 -2.55674 3.20518)
(1.01094e-17 -3.21361 1.80424)
(2.43375e-18 -2.87322 1.51241)
(-1.54749e-17 -0.916985 3.20491)
(-2.49757e-17 2.40967 6.80405)
(-1.3983e-17 3.64423 8.17053)
(1.59553e-21 13.49 24.4633)
(2.0254e-20 16.747 28.912)
(1.65605e-20 14.3161 26.1041)
(1.00536e-20 13.3555 23.5522)
(-3.01542e-20 11.8532 22.2282)
(-1.12058e-19 11.0067 20.5938)
(-3.15509e-20 9.63038 19.1271)
(1.32686e-20 8.36295 17.1928)
(-3.30313e-19 6.78913 15.028)
(-1.06737e-18 5.25723 12.6089)
(-1.45566e-18 3.72492 10.1735)
(-6.07453e-19 2.3629 7.84911)
(1.71804e-18 1.29121 5.91928)
(5.15655e-18 0.777786 4.79304)
(8.34694e-18 1.13755 5.0137)
(8.76311e-18 2.6201 6.99272)
(5.52214e-18 5.06447 10.4467)
(1.78552e-18 7.67987 14.0756)
(1.39964e-18 9.30382 15.7153)
(2.96949e-18 6.62344 12.3523)
(-5.6809e-22 12.7459 22.9506)
(-7.91848e-22 17.6528 29.5289)
(2.01022e-21 14.9394 26.4789)
(3.16054e-21 14.069 23.1638)
(5.41875e-21 12.4931 21.6504)
(9.65716e-21 11.923 19.688)
(-4.49024e-21 10.7564 18.188)
(-8.08166e-21 9.99547 16.4969)
(-7.03086e-21 9.07507 14.9614)
(-1.02663e-19 8.31922 13.3855)
(-3.67312e-19 7.599 11.8624)
(-6.37402e-19 6.99607 10.3911)
(-5.51825e-19 6.52205 9.05461)
(4.9492e-20 6.24324 8.01399)
(7.51746e-19 6.25933 7.5164)
(6.73972e-19 6.59398 7.8474)
(-7.10275e-19 7.20707 8.92733)
(-2.6626e-18 7.56995 10.3121)
(-3.44196e-18 7.31919 10.7466)
(-1.87043e-18 4.948 8.23523)
(1.65625e-22 13.1541 23.6832)
(-6.15544e-22 18.521 30.4643)
(-1.63552e-21 15.5778 27.5117)
(-1.84936e-21 14.8542 24.1928)
(-7.93676e-22 13.3462 22.7008)
(2.09559e-21 12.8552 20.8326)
(4.50686e-21 11.881 19.3394)
(-2.73818e-22 11.1869 17.7263)
(5.60504e-22 10.4395 16.2491)
(4.80714e-20 9.77528 14.8393)
(1.53177e-19 9.15398 13.4991)
(2.26194e-19 8.56026 12.2073)
(1.20731e-19 7.98504 10.9427)
(-2.3304e-19 7.41053 9.70814)
(-7.56684e-19 6.83647 8.53705)
(-1.28655e-18 6.27586 7.52739)
(-1.71266e-18 5.72349 6.80637)
(-1.99021e-18 5.16249 6.29805)
(-1.80482e-18 4.10909 5.5471)
(-8.84799e-19 2.07949 2.46235)
(-4.30229e-23 14.0551 25.4589)
(2.56699e-22 19.2311 31.0641)
(5.3589e-22 15.8099 28.0848)
(5.77042e-22 15.4795 24.9262)
(1.44922e-22 13.8569 23.5808)
(-1.01621e-21 13.4648 21.6707)
(-1.64524e-21 12.4419 20.216)
(-5.97747e-22 11.761 18.5831)
(-1.72119e-21 10.9699 17.0714)
(-1.26457e-20 10.2372 15.5625)
(-2.82041e-20 9.50673 14.0909)
(-1.78993e-20 8.78001 12.6496)
(5.19795e-20 8.0454 11.2392)
(1.78317e-19 7.29486 9.85174)
(3.04599e-19 6.48772 8.47008)
(3.51083e-19 5.62025 7.04128)
(2.77445e-19 4.58144 5.55451)
(1.48808e-19 3.45062 3.86353)
(1.32565e-19 1.64052 1.82101)
(3.49117e-20 0.070296 -1.65804)
(9.88462e-24 15.2768 28.285)
(-6.8711e-23 19.7502 31.2938)
(-1.33029e-22 15.8552 28.7308)
(-1.41376e-22 16.2072 25.8316)
(-2.82433e-23 14.3219 24.7054)
(2.65498e-22 14.1583 22.7105)
(3.82549e-22 13.0228 21.3415)
(2.14299e-22 12.4607 19.7079)
(8.83541e-22 11.6874 18.2654)
(3.55904e-21 11.0288 16.7713)
(5.17906e-21 10.3244 15.2631)
(-2.34181e-21 9.56913 13.6616)
(-2.34757e-20 8.69645 11.9335)
(-4.81939e-20 7.67516 10.057)
(-4.95913e-20 6.46934 8.06144)
(4.01813e-21 5.14087 5.9479)
(1.23151e-19 3.58905 3.76146)
(3.12418e-19 1.98945 1.26233)
(5.03544e-19 -0.471894 -1.4047)
(4.48317e-19 -1.67146 -5.1146)
(-1.95652e-24 16.2208 30.9559)
(1.54287e-23 19.7208 30.8749)
(2.68516e-23 15.7008 29.3154)
(2.83599e-23 16.6606 26.654)
(1.40233e-23 14.4458 25.7404)
(-4.18477e-23 14.5332 23.7472)
(-1.28258e-22 13.2578 22.5636)
(-2.6816e-22 12.8585 21.0277)
(-3.85626e-22 12.0851 19.7676)
(1.48027e-22 11.5214 18.3868)
(2.37062e-21 10.8039 16.92)
(5.54176e-21 9.92275 15.1271)
(4.75041e-21 8.69441 12.8872)
(-6.55051e-21 7.1173 10.2239)
(-3.01926e-20 5.33074 7.42712)
(-6.42806e-20 3.52542 4.62935)
(-1.1407e-19 1.58475 1.86419)
(-1.1962e-19 -0.2315 -1.44043)
(2.18077e-19 -2.86765 -4.15356)
(5.56672e-19 -3.20124 -7.94087)
(4.03299e-25 16.2738 31.9538)
(-3.70049e-24 19.0214 29.7473)
(-6.82674e-24 15.1851 29.1694)
(-6.25401e-25 16.2406 26.6115)
(2.14667e-23 13.8859 25.7818)
(9.41242e-24 13.9206 23.8994)
(-1.50649e-22 12.5604 22.8326)
(-2.96612e-22 12.121 21.4366)
(4.63916e-22 11.2451 20.3239)
(3.03065e-21 10.5906 19.0165)
(5.17358e-21 9.62078 17.4495)
(-1.73986e-21 8.29848 15.1621)
(-2.88211e-20 6.37844 11.98)
(-7.27051e-20 4.17208 8.3349)
(-1.01036e-19 2.28026 5.19228)
(-9.69965e-20 0.687679 2.56475)
(-1.24186e-19 -0.64791 0.299789)
(-8.99388e-20 -1.95648 -2.25311)
(2.82155e-19 -4.71756 -5.92228)
(5.51655e-19 -3.65947 -7.15196)
(-6.07289e-26 15.3899 30.9996)
(-1.13367e-25 18.3096 28.493)
(4.32345e-25 14.3115 28.0722)
(1.05544e-23 15.2176 25.566)
(2.45015e-23 13.0171 24.663)
(-2.73834e-23 12.7323 22.9287)
(-2.22379e-22 11.5068 21.7822)
(-3.10657e-22 10.8325 20.474)
(5.88589e-22 9.94515 19.3233)
(2.90729e-21 9.11298 18.0292)
(3.28798e-21 8.03146 16.4025)
(-7.39488e-21 6.60475 14.0919)
(-3.69694e-20 4.8322 11.0979)
(-7.72392e-20 3.16365 8.09042)
(-9.84936e-20 1.97298 5.75686)
(-5.82682e-20 0.818109 3.40925)
(7.07202e-20 -0.81463 0.147862)
(2.35793e-19 -2.20914 -2.63907)
(3.99025e-19 -2.68775 -3.10491)
(3.44701e-19 -0.783882 -0.152945)
(-5.50243e-26 14.0144 30.2388)
(-8.71978e-25 17.9281 27.3354)
(3.06701e-25 13.2125 27.1971)
(1.16307e-23 14.1243 24.8168)
(2.48763e-23 12.0153 23.8719)
(-1.9651e-23 11.5289 22.2719)
(-1.82897e-22 10.3889 21.0743)
(-3.30072e-22 9.62964 19.7882)
(-7.34808e-23 8.77936 18.608)
(5.62111e-22 7.9933 17.3758)
(-1.65106e-23 7.14053 16.0142)
(-4.58397e-21 6.22431 14.3971)
(-1.38354e-20 5.28206 12.5253)
(-2.36463e-20 4.41685 10.5194)
(-2.67199e-20 3.64486 8.5039)
(-1.39901e-20 2.86618 6.43014)
(3.11865e-20 1.96784 3.98533)
(1.34857e-19 0.680685 0.599252)
(3.40011e-19 -1.27593 -3.15625)
(3.64076e-19 0.528721 0.582979)
(-7.1598e-26 11.1008 28.4004)
(-4.72035e-25 17.0246 24.8269)
(6.30022e-25 11.9691 25.2159)
(8.89292e-24 12.6593 23.4609)
(2.24743e-23 10.9173 22.6904)
(5.82482e-24 10.2656 21.5684)
(-1.2147e-22 9.27649 20.6278)
(-4.31835e-22 8.51228 19.6613)
(-8.51064e-22 7.75598 18.7516)
(-1.00431e-21 7.09329 17.8726)
(-3.12007e-22 6.49566 17.0323)
(1.39601e-21 5.96983 16.1927)
(3.25378e-21 5.48664 15.2835)
(3.90246e-21 5.01632 14.2236)
(3.04411e-21 4.53415 12.9517)
(2.58701e-21 3.97332 11.3945)
(8.52818e-21 3.20368 9.35446)
(3.49388e-20 2.1823 6.31215)
(9.87069e-20 0.70887 1.68112)
(1.59656e-19 -1.28879 -3.08948)
(-5.87564e-26 2.60882 17.056)
(-1.53069e-25 8.053 13.6858)
(7.09233e-25 5.18659 14.5282)
(4.32821e-24 5.00069 14.1326)
(8.4453e-24 4.08877 14.0863)
(-3.07133e-24 3.53585 13.9076)
(-6.12504e-23 2.97697 13.7472)
(-1.82033e-22 2.52712 13.5589)
(-3.14208e-22 2.14276 13.3568)
(-3.28276e-22 1.83167 13.1328)
(-1.00966e-22 1.58367 12.8817)
(3.54532e-22 1.39619 12.5983)
(8.39657e-22 1.26925 12.2823)
(1.06189e-21 1.21641 11.9318)
(7.98726e-22 1.25795 11.5404)
(-4.59412e-24 1.3652 11.1224)
(-1.26377e-21 1.56015 10.635)
(-2.59791e-21 2.08701 9.77389)
(-2.67715e-21 2.14531 8.41619)
(2.01546e-23 -0.285396 6.04318)
(5.86424e-26 -2.6089 17.0561)
(1.26824e-25 -8.05303 13.6859)
(-7.81702e-25 -5.18662 14.5284)
(-4.31616e-24 -5.0007 14.1328)
(-7.90836e-24 -4.08876 14.0865)
(4.59781e-24 -3.53583 13.9079)
(6.32925e-23 -2.97694 13.7475)
(1.82667e-22 -2.52707 13.5592)
(3.12043e-22 -2.14269 13.3571)
(3.26582e-22 -1.83155 13.1331)
(1.09132e-22 -1.58349 12.8819)
(-3.26962e-22 -1.39595 12.5984)
(-7.93758e-22 -1.26897 12.2823)
(-1.01458e-21 -1.21612 11.9319)
(-7.73826e-22 -1.25765 11.5404)
(-6.64425e-24 -1.36489 11.1225)
(1.21799e-21 -1.55982 10.6351)
(2.52579e-21 -2.08635 9.77403)
(2.6051e-21 -2.14399 8.41588)
(-2.92227e-23 0.285482 6.04096)
(7.78469e-26 -11.1009 28.4008)
(4.27671e-25 -17.025 24.8272)
(-9.43751e-25 -11.9693 25.2162)
(-9.38382e-24 -12.6598 23.4611)
(-2.13351e-23 -10.9178 22.6906)
(9.02629e-25 -10.2661 21.5685)
(1.36809e-22 -9.27711 20.6279)
(4.52948e-22 -8.51301 19.6614)
(8.70436e-22 -7.75685 18.7516)
(1.02432e-21 -7.09433 17.8727)
(3.61528e-22 -6.4969 17.0324)
(-1.27483e-21 -5.97121 16.1927)
(-3.05371e-21 -5.48808 15.2835)
(-3.67e-21 -5.01777 14.2237)
(-2.82619e-21 -4.53566 12.9521)
(-2.37207e-21 -3.97492 11.3954)
(-8.18534e-21 -3.20526 9.35639)
(-3.40155e-20 -2.18345 6.31419)
(-9.63601e-20 -0.706758 1.67759)
(-1.56085e-19 1.2979 -3.10326)
(7.30127e-26 -14.0141 30.2384)
(8.18027e-25 -17.9282 27.3347)
(-9.53026e-25 -13.2123 27.1964)
(-1.27771e-23 -14.1244 24.8158)
(-2.30296e-23 -12.0153 23.8709)
(3.14925e-23 -11.5291 22.2707)
(2.10049e-22 -10.389 21.0729)
(3.73806e-22 -9.62981 19.7866)
(1.35967e-22 -8.77954 18.6062)
(-4.9305e-22 -7.99351 17.3739)
(3.71378e-25 -7.14093 16.0123)
(4.27636e-21 -6.22529 14.3958)
(1.30583e-20 -5.28409 12.5253)
(2.24732e-20 -4.42002 10.5212)
(2.54565e-20 -3.64898 8.50771)
(1.30088e-20 -2.87152 6.43607)
(-3.11451e-20 -1.97478 3.99367)
(-1.32111e-19 -0.68874 0.608875)
(-3.32501e-19 1.26906 -3.14896)
(-3.55291e-19 -0.527751 0.573081)
(8.74528e-26 -15.3893 30.9982)
(8.98578e-26 -18.309 28.4919)