/*--------------------------------*- C++ -*----------------------------------*\
| =========                 |                                                 |
| \\      /  F ield         | OpenFOAM: The Open Source CFD Toolbox           |
|  \\    /   O peration     | Version:  4.1                                   |
|   \\  /    A nd           | Web:      www.OpenFOAM.org                      |
|    \\/     M anipulation  |                                                 |
\*---------------------------------------------------------------------------*/
FoamFile
{
    version     2.0;
    format      ascii;
    class       volScalarField;
    location    "9";
    object      p;
}
// * * * * * * * * * * * * * * * * * * * * * * * * * * * * * * * * * * * * * //

dimensions      [0 2 -2 0 0 0 0];

internalField   nonuniform List<scalar> 
1280
(
-4.16453
-0.757102
-1.15762
-2.04039
-1.53337
-1.54859
-1.94531
-1.99998
-1.80104
-1.86297
-2.39772
-2.09817
-2.25599
-3.00044
-2.73946
-3.28069
-4.35651
-4.0414
-4.2017
-7.89315
-4.70572
1.60558
7.34297
9.09549
10.7952
15.1652
3.04271
14.1902
14.4802
16.3031
17.7835
19.1312
20.6787
22.1738
23.8237
25.1946
27.185
28.16
32.9594
28.097
-40.6909
-9.37481
-3.86712
-2.96931
2.41711
2.10424
2.55156
2.93403
4.26849
4.01304
3.96985
4.2833
3.26739
2.29473
1.74855
4.90443
-11.3138
-17.9518
-21.4139
-17.0508
-37.9472
-30.8226
-26.412
-21.3797
-16.8229
-12.3642
-8.19248
-4.26305
-0.773971
2.0195
5.04507
7.69466
4.58865
37.0986
26.3825
22.2946
15.4169
-1.38267
-16.8586
-24.9784
-32.4823
-19.4487
-15.3933
-15.2716
-11.1861
-8.51116
-9.20728
-6.68303
-5.61946
-6.20354
-4.59658
-4.06592
-4.55676
-4.37421
-3.35041
-3.05668
-4.32349
-2.3026
-1.24896
-9.00552
8138.32
-1906.24
-1829.95
202.619
-10.6339
37.5478
-13.0379
-12.5549
-20.4454
-17.433
-5.01637
0.255429
-0.58564
-3.03377
-3.11613
-1.57416
-0.807118
-1.73299
-3.3946
-4513.62
-216.096
-1120.55
-87.7833
-18.0086
-27.7035
-5.54992
-7.67696
-13.5732
-8.8899
-2.57421
0.433377
-0.856576
-2.3899
-1.4376
-0.5061
-0.260544
-0.961505
-2.20024
457.106
-979.583
169.204
16.9304
3.99648
2.98852
-8.61972
-8.52885
-16.0993
-4.54223
-0.125039
0.690177
-1.90078
-3.41629
-0.27847
0.244459
-0.028659
-0.508735
-1.1917
-1083.81
-988.756
-141.795
-34.3762
-16.9538
-11.8146
-5.81704
-12.6753
-19.056
-9.71177
2.63839
2.52455
-4.46644
-7.29001
-0.77777
0.403352
-0.0736619
-1.00156
-1.80423
-72.0326
-584.039
-176.418
-65.5699
-5.21453
-3.78738
-4.8802
-13.2998
-18.6512
-11.2491
9.2149
5.42077
-8.37121
-12.9633
-0.743688
1.39395
0.0188186
-1.56708
-2.43282
-193.007
-448.241
-104.222
-93.1212
7.5712
-3.40207
-1.1417
-10.3013
-17.21
-10.2858
17.1963
8.0141
-12.0496
-17.8252
-0.430365
3.24736
0.0605561
-2.58687
-2.77044
55.4929
-319.541
-23.589
-95.0594
28.2059
2.79157
2.48416
-5.93731
-15.8244
-9.47859
21.6578
10.4339
-14.5032
-17.6078
0.0339188
5.02397
-0.83936
-4.89514
-5.68705
119.193
-195.366
74.928
-80.0719
37.0946
8.1736
6.58776
-1.848
-14.4507
-9.4351
19.5002
12.2446
-14.0163
-16.6534
-0.454722
6.55128
1.64139
-4.19023
-5.07195
201.506
-109.838
155.761
-55.1895
35.4038
9.87087
9.07076
2.30924
-10.8929
-9.34057
12.6624
9.40394
-10.2345
-14.8093
-0.175737
6.58168
3.97789
8.39712
26.0829
225.008
-54.9709
204.207
-30.3898
35.5206
2.83377
10.1249
6.88708
-3.74323
-8.35315
4.93258
4.81022
-4.57941
-8.3664
-1.60794
2.81774
6.75726
20.7175
24.7694
228.008
-40.2355
213.732
-26.0285
40.0825
-1.80816
11.2859
12.3725
5.00792
-8.0725
-2.00847
0.1422
-2.15925
-3.96048
-2.02124
2.20318
7.95997
24.4662
20.6448
217.789
-71.0199
185.243
-41.8463
39.704
-5.99567
12.1557
17.3528
11.5842
-10.2952
-6.75164
-0.177002
2.73272
0.914657
-3.84584
-1.41265
3.45064
19.1417
29.1532
153.904
-141.781
115.033
-63.1656
31.6029
-11.0586
11.9327
20.7995
13.5668
-12.7989
-9.22386
1.21778
3.475
0.482157
-7.73954
-4.78114
0.943992
3.76871
-1.96347
93.5695
-257.198
24.7272
-76.4134
15.5205
-17.2283
10.584
22.0288
11.2467
-14.4302
-12.0671
1.42396
3.44651
-0.710338
-7.97804
-5.36623
-0.976275
-1.46576
-2.9707
-145.397
-393.016
-60.2331
-77.5314
-9.71825
-26.0666
8.83012
19.533
6.74968
-14.7914
-13.7748
0.912741
2.89563
-1.29765
-6.93843
-5.7209
-0.538389
-0.2735
-0.0934681
-37.0815
-508.586
-155.254
-61.5107
-38.3537
-37.2685
5.86109
13.674
3.34574
-13.5368
-14.1448
0.204438
2.12281
-1.01944
-5.53757
-5.05146
-1.09604
-1.15868
-1.35086
-919.457
-825.61
-182.288
-41.388
-63.8581
-51.4043
1.39074
8.08559
2.00633
-10.2597
-11.4805
0.0330327
1.37434
-0.518706
-3.62053
-3.35263
-0.920523
-0.898308
-0.818176
474.537
-893.99
106.877
10.5188
-88.5954
-53.8977
5.7167
3.47221
3.29195
-4.92283
-6.66952
0.565876
0.814654
-0.200195
-1.74592
-1.9652
-0.682359
-0.711665
-0.872833
-4135.2
-261.352
-1080.7
-74.7421
-47.8115
-53.447
0.876249
-2.02327
-0.389046
-2.02283
-4.16528
-0.54079
0.361574
-0.417367
-0.815838
-1.52878
-1.26764
-1.19107
-1.50134
7753.04
-1874.39
-1682.83
204.583
-112.953
-85.5008
-17.4991
1.72936
5.41466
0.836656
-3.46573
-2.73713
0.344107
0.849383
-0.353485
-1.78614
-2.06783
-1.79795
-2.25936
90.4291
89.5109
88.844
87.9816
87.0262
85.9365
84.8743
83.8211
82.7047
81.658
80.7186
79.8416
79.0621
78.3525
77.7518
77.2073
76.7935
76.3988
76.241
75.7942
74.339
74.7053
74.8285
74.9813
75.1072
75.1562
75.189
75.1294
75.055
74.9241
74.7771
74.5946
74.4059
74.1863
73.9778
73.7344
73.5251
73.2707
73.0214
72.7662
81.1509
80.8959
80.7808
80.5917
80.4482
80.2749
80.1182
79.9496
79.7854
79.6101
79.4395
79.2573
79.0828
78.8933
78.7193
78.5189
78.3538
78.1324
77.98
77.6851
79.2384
79.2257
79.2263
79.1995
79.1943
79.1609
79.1415
79.1018
79.0697
79.0226
78.9798
78.9244
78.8743
78.8096
78.757
78.6807
78.6335
78.5405
78.5062
78.3846
80.9767
80.8792
80.8533
80.7781
80.7379
80.6737
80.6271
80.5678
80.5184
80.4609
80.4103
80.3527
80.3026
80.2426
80.1956
80.13
80.0918
80.0128
79.9971
79.8941
81.219
81.1636
81.1549
81.109
81.0902
81.0506
81.0261
80.9898
80.9623
80.9273
80.8985
80.8636
80.8354
80.7988
80.7738
80.7329
80.7156
80.6646
80.6656
80.6033
82.0429
81.9748
81.9593
81.9064
81.8808
81.8359
81.8059
81.7656
81.7337
81.6959
81.6638
81.6271
81.5964
81.559
81.5321
81.4914
81.4718
81.423
81.4191
81.3605
82.5871
82.5275
82.5137
82.4667
82.4443
82.404
82.3772
82.3409
82.312
82.2779
82.2484
82.2151
82.1866
82.1525
82.1272
82.0897
82.0709
82.0259
82.0197
81.9647
83.2059
83.1458
83.1304
83.0834
83.0599
83.0194
82.9918
82.9552
82.9255
82.8913
82.8608
82.8276
82.7979
82.764
82.7372
82.6999
82.6793
82.6347
82.6256
82.5697
83.7572
83.7004
83.6853
83.6407
83.618
83.5794
83.5527
83.5178
83.4889
83.4562
83.4263
83.3946
83.3652
83.3329
83.3059
83.2704
83.2492
83.2064
83.196
83.1409
84.3014
84.2466
84.2314
84.1883
84.166
84.1287
84.1025
84.0686
84.0402
84.0086
83.9791
83.9487
83.9193
83.8884
83.8612
83.8274
83.8056
83.7646
83.7534
83.6995
84.8155
84.7633
84.7486
84.7074
84.6859
84.6502
84.6249
84.5925
84.5651
84.535
84.5063
84.4774
84.4486
84.4196
84.3924
84.3609
84.3388
84.3002
84.2885
84.2368
85.3097
85.2599
85.2454
85.2062
85.1852
85.1511
85.1267
85.0957
85.0692
85.0404
85.0126
84.9853
84.957
84.9301
84.9029
84.8738
84.8513
84.8156
84.8033
84.754
85.7822
85.7351
85.7207
85.6834
85.6631
85.6304
85.607
85.5773
85.5518
85.5243
85.4974
85.4715
85.4439
85.4188
85.3917
85.3652
85.3421
85.3094
85.2963
85.2498
86.2333
86.1894
86.1755
86.1404
86.1211
86.0901
86.068
86.0398
86.0155
85.9895
85.9638
85.9392
85.9124
85.8891
85.862
85.8382
85.8142
85.7848
85.7706
85.727
86.6522
86.6116
86.5982
86.5655
86.5481
86.519
86.4987
86.473
86.4504
86.4267
86.4031
86.3806
86.3559
86.335
86.3088
86.2887
86.2639
86.2389
86.2234
86.1839
87.047
87.0097
86.9951
86.9628
86.9466
86.9182
86.8981
86.8738
86.8517
86.8292
86.8069
86.7855
86.7628
86.7435
86.719
86.7031
86.6774
86.6592
86.6434
86.6092
87.4465
87.4192
87.4078
87.3754
87.3624
87.3369
87.3172
87.2947
87.2725
87.2496
87.2261
87.2022
87.1771
87.1532
87.125
87.1048
87.0707
87.0556
87.0294
86.9918
87.7205
87.7115
87.7265
87.7059
87.7061
87.6988
87.6941
87.6888
87.6832
87.6768
87.6691
87.6597
87.6477
87.6329
87.6126
87.5916
87.5531
87.5318
87.4599
87.403
87.686
87.6277
87.6658
87.6765
87.694
87.7117
87.7306
87.7513
87.7739
87.799
87.8269
87.8579
87.8926
87.9315
87.975
88.024
88.0767
88.1453
88.1866
88.3498
640.983
557.995
508.622
452.135
402.895
355.376
311.196
269.476
230.236
193.205
158.229
125.118
93.6642
63.8351
35.761
8.71138
-16.8435
-36.5103
-59.8583
-97.1648
-52.9263
-75.9188
-68.078
-79.5353
-82.6302
-89.6327
-94.9198
-100.505
-105.359
-109.684
-113.238
-115.969
-117.781
-118.592
-118.31
-116.927
-114.417
-111.341
-109.169
-107.148
-75.4394
-82.522
-74.4449
-81.5442
-79.7275
-83.2773
-84.7741
-87.5662
-90.0747
-92.8893
-95.6947
-98.5777
-101.454
-104.259
-106.821
-108.632
-109.346
-108.399
-107.374
-105.465
-69.4955
-72.8405
-69.8561
-75.8316
-74.475
-78.3045
-79.2032
-81.4046
-82.8259
-84.2563
-85.3715
-86.2393
-86.8316
-87.0909
-86.9833
-86.2299
-84.7468
-82.1605
-79.3741
-76.2081
-65.5435
-66.1255
-62.4023
-64.6465
-60.3945
-61.0368
-58.1738
-57.0216
-54.8393
-52.933
-50.8538
-48.8448
-46.9292
-45.2203
-43.7778
-42.5313
-41.0553
-38.9731
-37.1432
-35.0791
-42.4487
-42.3296
-39.5792
-41.0393
-37.7466
-38.5837
-36.351
-36.215
-35.0411
-34.6689
-34.2248
-34.1152
-34.1376
-34.337
-34.6282
-35.0045
-35.4688
-36.0586
-36.3691
-37.4944
-41.1961
-44.061
-42.9028
-45.9933
-44.8309
-47.2549
-46.8973
-48.5048
-48.9063
-50.085
-50.9345
-52.082
-53.292
-54.8667
-56.8661
-59.3657
-62.0072
-63.7876
-65.5736
-69.6144
-84.9256
-90.3988
-90.9249
-95.6082
-96.8853
-101.226
-103.497
-107.572
-110.719
-114.664
-118.093
-121.495
-124.348
-126.733
-128.438
-129.624
-130.2
-130.162
-130.736
-130.111
-119.902
-123.935
-123.545
-126.63
-126.699
-129.44
-130.116
-132.252
-133.32
-134.776
-135.543
-135.985
-135.855
-135.274
-134.297
-132.966
-131.531
-129.713
-128.179
-124.712
-109.444
-109.473
-107.511
-107.96
-105.888
-105.861
-104.176
-103.456
-102.072
-100.916
-99.5519
-98.1323
-96.6069
-94.9547
-93.205
-91.2287
-89.1696
-86.5421
-84.2704
-80.8848
-80.9399
-79.0076
-76.8257
-76.0447
-73.732
-72.7206
-70.7589
-69.3542
-67.6726
-66.108
-64.5279
-62.9598
-61.4136
-59.8538
-58.313
-56.7103
-55.1906
-53.5044
-52.2527
-50.348
-60.2228
-58.0636
-56.203
-55.1707
-53.324
-52.344
-50.8192
-49.6777
-48.419
-47.2456
-46.0879
-44.9385
-43.7982
-42.6369
-41.472
-40.2321
-39.0245
-37.6293
-36.6057
-35.1058
-42.1328
-39.9617
-38.465
-37.3532
-35.8045
-34.8735
-33.5323
-32.4641
-31.2709
-30.0998
-28.9046
-27.693
-26.4874
-25.2925
-24.0953
-22.847
-21.5778
-20.1682
-19.1667
-17.9191
-21.5109
-19.3583
-18.1608
-16.8139
-15.3842
-14.2822
-12.9445
-11.9457
-11.0519
-10.5735
-10.5425
-11.0995
-12.2163
-13.6971
-15.0231
-15.6985
-15.297
-14.4866
-13.6471
-13.7954
-8.31097
-8.00821
-8.58727
-8.78777
-9.32115
-10.2723
-11.2701
-12.6912
-14.2814
-16.1716
-18.2131
-20.3978
-22.664
-24.9446
-26.9799
-28.4349
-29.1476
-29.5726
-29.2432
-30.5899
-11.8848
-14.8871
-17.8619
-20.4589
-22.4706
-24.1191
-25.4404
-26.9464
-28.5451
-30.5028
-32.8653
-35.8179
-39.354
-43.2446
-46.9594
-49.9662
-51.6221
-51.1698
-50.2723
-53.9049
-56.492
-62.4067
-67.1124
-70.9709
-74.5494
-78.7393
-83.3821
-88.2023
-92.6935
-96.6872
-100.08
-102.874
-104.955
-106.237
-106.694
-106.442
-105.746
-105.235
-106.457
-109.862
-111.72
-118.765
-123.702
-126.025
-128.898
-131.848
-134.688
-137.39
-139.871
-142.291
-144.766
-147.36
-150.011
-152.574
-154.85
-156.676
-157.965
-158.641
-159.283
-157.414
-179.963
-179.373
-175.861
-169.568
-164.713
-160.9
-158.297
-156.516
-155.457
-154.952
-154.826
-154.874
-154.86
-154.513
-153.683
-152.165
-150.235
-147.591
-145.252
-141.181
-104.929
-101.783
-97.9442
-93.9469
-92.2432
-90.8587
-91.3913
-92.3058
-93.2033
-93.9424
-94.5086
-94.7158
-94.4608
-93.6697
-92.3628
-90.4741
-88.2433
-85.3949
-82.836
-79.0793
)
;

boundaryField
{
    outletWall
    {
        type            fixedValue;
        value           uniform 0;
    }
    fineWalls
    {
        type            zeroGradient;
    }
    fineFrontAndBack
    {
        type            zeroGradient;
    }
    fineplugLeft
    {
        type            cyclicAMI;
        value           nonuniform List<scalar> 
20
(
66.2548
67.5847
66.751
66.8718
66.8048
66.9662
67.1168
67.3854
67.6996
68.1316
68.587
69.0598
69.895
75.5694
71.7822
71.78
72.2044
72.5438
71.9298
71.4021
)
;
    }
    fineplugRight
    {
        type            cyclicAMI;
        value           nonuniform List<scalar> 
20
(
-70.8529
-72.4333
-73.5983
-74.8706
-75.7439
-76.363
-76.5743
-76.4212
-75.9274
-75.203
-74.1449
-73.0237
-72.9269
-76.781
-67.4105
-69.3356
-72.0742
-78.6319
-84.7977
-88.9386
)
;
    }
    inletOutletLeft
    {
        type            cyclicAMI;
        value           nonuniform List<scalar> 
20
(
66.2548
67.5847
66.751
66.8718
66.8048
66.9662
67.1168
67.3854
67.6996
68.1316
68.587
69.0598
69.895
75.5694
71.7822
71.78
72.2044
72.5438
71.9298
71.4021
)
;
    }
    inletLeft
    {
        type            zeroGradient;
    }
    inletWallsLeft
    {
        type            zeroGradient;
    }
    inletFacesLeft
    {
        type            zeroGradient;
    }
    inletOutletRight
    {
        type            cyclicAMI;
        value           nonuniform List<scalar> 
20
(
-70.8529
-72.4333
-73.5983
-74.8706
-75.7439
-76.363
-76.5743
-76.4212
-75.9274
-75.203
-74.1449
-73.0237
-72.9269
-76.781
-67.4105
-69.3356
-72.0742
-78.6319
-84.7977
-88.9386
)
;
    }
    inletRight
    {
        type            zeroGradient;
    }
    inletWallsRight
    {
        type            zeroGradient;
    }
    inletFacesRight
    {
        type            zeroGradient;
    }
}


// ************************************************************************* //
