/*--------------------------------*- C++ -*----------------------------------*\
| =========                 |                                                 |
| \\      /  F ield         | OpenFOAM: The Open Source CFD Toolbox           |
|  \\    /   O peration     | Version:  4.1                                   |
|   \\  /    A nd           | Web:      www.OpenFOAM.org                      |
|    \\/     M anipulation  |                                                 |
\*---------------------------------------------------------------------------*/
FoamFile
{
    version     2.0;
    format      ascii;
    class       surfaceScalarField;
    location    "9";
    object      phi;
}
// * * * * * * * * * * * * * * * * * * * * * * * * * * * * * * * * * * * * * //

dimensions      [0 3 -1 0 0 0 0];

internalField   nonuniform List<scalar> 
2360
(
3344.59
3231
113.583
3231
3231
3308.81
-77.8088
3308.81
3308.81
3308.81
3686
-377.185
3686
3686
4396.39
-710.401
4396.39
4396.39
5452.43
-1056.04
5452.43
5452.43
7469.89
-2017.45
7469.9
7469.9
8035.95
9006.36
9984.65
10940.2
11896.3
12860.3
8348.96
5495.48
9354.67
10368.3
11387.9
12412.2
13440.8
14473.1
15508.9
16547
17587.3
18631.8
19716.3
20803.3
21474.4
5671.66
15802.7
5671.66
5671.67
5671.67
-2247.56
7919.23
-2247.56
-2247.56
-2247.56
-39.5894
-2207.97
-39.5802
-39.575
-3234.45
3194.87
-3234.44
-3234.45
-3234.44
-15192.1
11957.7
-15192.1
-15192.1
-15192.1
-28788
13596
-28784
-28603.2
-28307.8
-27901.9
-27394.1
-26785.6
-26076.3
-25263.5
-24344.3
-23315.2
-22172.4
-20910.5
-19524.3
-23063.4
5082.32
-21419.1
-19627.4
-17743.1
-15999
-14863.2
-14370.6
-14370.6
-14370.6
-10101.7
-4268.93
-10101.7
-10101.7
-7678.03
-2423.65
-7678.03
-7678.03
-6177.17
-1500.86
-6177.17
-6177.17
-5284.64
-892.528
-5284.64
-5284.64
-5284.64
-4887.24
-397.402
-4887.24
-4887.24
-4908.82
21.5736
-67757.2
-117684
31624
-30860.6
-34938.1
120891
-22716.8
-27244.9
-5241.37
-15503.7
-6325.14
-7935.46
3012.58
-4180.01
2747.24
6080.42
337.483
9796.56
-1509.61
8731.32
-2038.11
3726.22
-433.626
-2193.9
767.245
533.049
117.991
3649.19
-309.711
3442.35
-241.628
2050.49
230.571
1161.65
224.379
2360
3611.85
-8267.9
-86846.1
-24397.3
-14731.2
-10513.9
107008
-13214.5
-24544.3
-7547.22
-21171
-6781.78
-8700.9
-1827.94
-9133.86
3319.22
933.267
2932.8
10183
32.0321
11632.1
-1689.43
5447.68
155.36
-4038.69
1418.66
-730.244
507.784
4560.07
-345.949
4296.08
-387.76
2092.3
409.054
364.833
438.693
2330.36
3653.14
13605.4
-103007
-3811.67
2685.89
-708.145
103904
-7292.66
-17959.8
-8111.22
-20352.4
-6984.03
-9828.09
-4891.21
-11226.7
346.443
-4304.39
3249.59
7279.83
1865.9
13015.8
-77.5004
7391.09
1048.57
-5164.76
1901.74
-1583.41
808.835
5652.97
-138.869
5243.79
-150.594
2104.02
552.722
-338.486
688.156
2194.92
3448.77
-13747.5
-83105
-21764.9
10703.3
-9835.09
91974.6
-12893.8
-14901.1
-10369.3
-22876.9
-9846.43
-10350.9
-7532.25
-13540.9
-2383.39
-9453.25
1523.94
3372.51
1524.21
13015.5
717.102
8198.2
1890.74
-6338.4
2427.91
-2120.58
1249.44
6831.45
41.9422
6451.29
165.461
1980.51
917.866
-1090.89
1133.36
1979.44
3081.27
-12672.1
-69917.9
-16696.9
14728.1
-8455.16
83732.8
-10260.5
-13095.8
-11018.2
-22119.2
-10546.3
-10822.8
-9633.88
-14453.3
-6008.84
-13078.3
-1615.05
-1021.28
-263.973
11664.4
557.826
7376.4
1718.21
-7498.79
1847.33
-2249.69
1213.8
7464.97
111.652
7553.43
523.683
1568.47
1312.55
-1879.76
1738.24
1553.74
2395.87
-13600.5
-54723.2
-14796.7
15924.3
-4279.4
73215.5
-6174.06
-11201.1
-10459.7
-17833.5
-10675.6
-10606.9
-10386.9
-14741.9
-8415.86
-15049.3
-4925.42
-4511.73
-2701.97
9440.97
-1174
5848.43
-1105.22
-7567.57
-117.266
-3237.65
670.636
6677.07
-149.602
8373.67
820.23
598.638
1819
-2878.53
2937.87
434.878
1064.83
-14304.3
-41000
-13500.2
15120.3
-18.3904
59733.7
-1961.48
-9258.04
-7950.74
-11844.3
-9437.28
-9120.41
-9772.08
-14407.1
-9269.73
-15551.7
-7524.47
-6256.99
-5425.45
7341.95
-4718.41
5141.38
-5680.18
-6605.79
-3143.8
-5774.03
-669.872
4203.14
-772.82
8476.61
175.097
-349.283
1361.97
-4065.4
1415.99
380.864
7563.14
-15988.7
-26612.2
-13128.4
12260
2599.66
44005.7
1519.93
-8178.3
-4501.28
-5823.07
-8130.89
-5490.8
-8813.4
-13724.6
-9564.04
-14801
-9555.3
-6265.74
-8421.09
6207.75
-8872.57
5592.86
-10491.9
-4986.49
-8294.92
-7970.99
-3620.98
-470.805
-1133.81
5989.44
-3003.11
1520.02
-6521.67
-546.841
-9718.67
3577.86
11440.4
-17490.4
-12889.6
-13077.2
7846.82
3898.09
27030.4
2373.47
-6653.68
-2603.25
-846.349
-7723.77
-370.274
-8632.91
-12815.5
-10334.2
-13099.7
-11930.9
-4669.06
-11865.5
6142.32
-12450.8
6178.18
-13718.3
-3719.03
-13259.9
-8429.34
-10619.8
-3110.96
-9041.18
4410.86
-11720.6
4199.45
-14345.1
2077.61
-14516.9
3749.72
8881.19
-17909
-1538.59
-12930.4
2868.22
4876.09
9223.92
-2620.2
842.618
-6192.46
2725.91
-7822.91
1260.18
-8978.48
-11659.9
-11356.4
-10721.8
-14161.7
-1863.78
-14576.6
6557.28
-13953.2
5554.76
-13843
-3829.23
-14603
-7669.37
-15193.4
-2520.51
-14740
3957.44
-14248.6
3708.06
-12984.2
813.218
-9634.94
400.421
2441.12
-17776.4
8973.78
-13001.2
-1907.04
5509.56
-9286.8
-2040.02
8392.2
-6057.98
6743.88
-7428.69
2630.89
-8808.36
-10280.2
-11612.3
-7917.88
-15011.6
1535.57
-15346.2
6891.87
-13172.7
3381.27
-11882.3
-5119.65
-13405.7
-6146.03
-14757
-1169.15
-14166.5
3366.96
-12733
2274.49
-10843.7
-1076.06
-6803.05
-3640.22
-6569.9
-18004.3
22372.3
-13913
-5998.35
4275.74
-27475.5
241.312
12426.6
-5579.6
12564.8
-6740.16
3791.46
-7671.73
-9348.67
-10218.4
-5371.25
-13388.3
4705.47
-12701.7
6205.32
-9017.81
-302.625
-8136.88
-6000.58
-12365.7
-1917.19
-15980.7
2445.78
-16446.2
3832.46
-15725.6
1553.9
-14858.1
-1943.57
-13119.4
-5378.91
-11770
-17020.3
37147.4
-14124
-8894.66
2984.39
-44583.9
666.359
14744.7
-5894.41
19125.6
-6022.87
3919.93
-5687.1
-9684.45
-7195.88
-3862.47
-9928.42
7438.01
-8641.14
4918.04
-5442.92
-3500.84
-4989.71
-6453.79
-8345.16
1438.26
-11075.2
5175.82
-10439.3
3196.57
-8198.91
-686.504
-8131.37
-2011.11
-11440.9
-2069.35
-7408.26
-15308.6
51426.9
-14244.9
-9958.42
1155.88
-59984.6
-653.325
16553.9
-6658.26
25130.5
-5377.17
2638.85
-3655.26
-11406.4
-3750.6
-3767.12
-6199.75
9887.16
-5569.71
4288.01
-3736.95
-5333.6
-3236.08
-6954.66
-4589.56
2791.75
-5589.23
6175.5
-3612.37
1219.7
-776.624
-3522.25
1178.79
-3966.52
1355.01
-2245.57
-557.78
-13736.7
66436
-14529.2
-9165.94
-1473.46
-73040.3
-3161.45
18241.9
-7281.65
29250.7
-4772.84
130.031
-2334.89
-13844.3
-1272.53
-4829.47
-2922.12
11536.8
-3169.28
4535.17
-2218.67
-6284.21
-1612.08
-7561.24
-1647.76
2827.42
-1848.33
6376.08
-911.297
282.669
-28.1094
-4405.43
27.9892
-4022.62
747.488
-2965.07
-1827.74
-10456.1
77179.8
-14534.9
-5087.07
-4180.56
-83394.7
-5757.62
19818.9
-7743.09
31236.2
-4003.19
-3609.85
-1423.33
-16424.2
-274.316
-5978.47
-325.682
11588.1
-940.127
5149.62
-832.295
-6392.03
-771.766
-7621.77
74.7695
1980.94
535.761
5915.09
614.722
203.719
602.979
-4393.69
554.05
-3973.69
685.955
-3096.98
-2197.82
-15636.4
98296.3
-21151.1
427.607
-6479.24
-98066.5
-9056.17
22395.8
-7195.46
29375.5
-2084.26
-8721.05
26.4207
-18534.8
-193.162
-5758.89
1082.76
10312.2
991.939
5240.44
390.755
-5790.85
-312.807
-6918.2
502.663
1165.49
1327.03
5090.73
1318.01
212.734
780.066
-3855.74
441.782
-3635.41
355.349
-3010.55
-2552.87
11711.6
83814.8
-3905.39
16044.6
208.031
-102180
-4236.61
26840.5
-2432.93
27571.8
3258.22
-14412.2
2205.02
-17481.6
-449.03
-3104.84
1213.21
8649.98
1949.42
4504.24
1091.21
-4932.64
-114.95
-5712.03
8.14145
1042.42
1123.42
3975.45
1289.26
46.9002
762.472
-3328.95
396.032
-3268.97
152.485
-2767
-2777.57
-7385.49
112796
-22860.8
31519.9
-8410.83
-116630
-9621.87
28051.5
1965.12
15984.8
7485.7
-19932.8
2126.08
-12122
-1339.33
360.568
523.473
6787.18
1946.8
3080.91
1058.44
-4044.27
-726.323
-3927.27
-622.585
938.684
552.268
2800.6
1066.9
-467.731
606.022
-2868.07
185.206
-2848.15
-49.6118
-2532.18
-2904.99
-68359.3
30921.2
-33506.3
-20564.6
8998.28
2918.75
-4041.12
-5080.31
-831.756
1523.89
376.152
-1466.93
-1705.39
19.9564
907.215
236.217
-22.5691
-13.714
18.5174
-584.557
114.317
-1066.19
180.664
-1044.63
235.242
-1010.07
286.475
-1007.37
329.788
-1007.31
347.357
-1001.7
343.06
-1001.44
333.133
-1003.76
319.035
-1005.46
302.03
-1007.33
282.615
-1009.23
261.353
-1011.01
238.724
-1013.16
215.036
-1014.48
190.598
-1015.83
167.077
-1020.99
151.125
-1068.5
123.81
-1059.72
-547.264
34.3315
-618.888
28.7036
-1060.56
11.2048
-1027.13
1.91218
-1000.78
-3.15598
-1002.3
-7.50854
-1002.95
-3.24423
-1005.97
1.41943
-1006.1
4.64187
-1006.98
6.85708
-1007.68
8.20736
-1008.68
8.65408
-1009.68
8.27828
-1010.63
7.06663
-1011.95
5.21578
-1012.63
2.82098
-1013.43
-0.179491
-1017.99
-6.72608
-1061.95
-8.75398
-1057.69
-556.018
22.1582
-641.047
26.1305
-1064.54
25.6764
-1026.68
26.519
-1001.62
26.5355
-1002.32
26.0456
-1002.46
22.9169
-1002.84
19.8403
-1003.03
16.5957
-1003.74
13.0542
-1004.13
9.15726
-1004.78
4.87934
-1005.4
0.255081
-1006.01
-4.78364
-1006.91
-10.0747
-1007.34
-15.665
-1007.84
-23.0818
-1010.57
-35.4143
-1049.62
-31.6385
-1061.47
-587.656
16.4569
-657.504
15.0174
-1063.1
9.87911
-1021.54
7.00735
-998.752
4.54129
-999.856
2.13677
-1000.06
0.208637
-1000.91
-1.82989
-1000.99
-3.99912
-1001.57
-6.29576
-1001.84
-8.7424
-1002.34
-11.3834
-1002.76
-14.2179
-1003.18
-17.3309
-1003.8
-20.6292
-1004.04
-24.0917
-1004.38
-29.144
-1005.52
-41.2172
-1037.54
-37.7339
-1064.95
-625.39
16.6338
-674.139
15.1916
-1061.66
11.3593
-1017.71
9.05851
-996.452
6.68865
-997.487
4.2755
-997.648
1.65203
-998.289
-0.973905
-998.364
-3.66072
-998.884
-6.3891
-999.11
-9.17776
-999.547
-12.0381
-999.899
-14.9541
-1000.26
-17.9769
-1000.78
-21.0239
-1001
-24.0433
-1001.36
-27.964
-1001.6
-38.2052
-1027.3
-37.1498
-1066
-662.54
17.7827
-691.921
15.9873
-1059.86
11.6865
-1013.41
9.39117
-994.157
7.15472
-995.25
4.90322
-995.396
2.62793
-996.014
0.342084
-996.078
-1.98951
-996.553
-4.35152
-996.748
-6.75236
-997.146
-9.20452
-997.447
-11.6883
-997.778
-14.2501
-998.217
-16.8205
-998.425
-19.3756
-998.806
-22.344
-998.628
-30.3955
-1019.25
-31.8041
-1064.6
-694.344
19.0485
-710.97
16.8883
-1057.7
12.6361
-1009.15
10.5081
-992.029
8.42031
-993.163
6.31101
-993.287
4.15374
-993.857
2.00621
-993.931
-0.167852
-994.379
-2.34749
-994.569
-4.54153
-994.952
-6.75742
-995.232
-8.97357
-995.562
-11.2321
-995.958
-13.4689
-996.189
-15.6914
-996.584
-18.0586
-996.261
-24.1772
-1013.13
-26.873
-1061.9
-721.217
19.8451
-730.815
17.2101
-1055.07
13.0139
-1004.96
11.0444
-990.059
9.1
-991.218
7.13591
-991.323
5.13754
-991.858
3.1503
-991.944
1.14034
-992.369
-0.870725
-992.557
-2.89188
-992.931
-4.92847
-993.195
-6.95884
-993.531
-9.02348
-993.894
-11.059
-994.153
-13.0953
-994.548
-15.1564
-994.2
-20.1201
-1008.17
-23.5262
-1058.49
-744.743
20.255
-751.07
17.0427
-1051.85
13.0169
-1000.93
11.1807
-988.223
9.34104
-989.379
7.48364
-989.466
5.593
-989.968
3.71544
-990.066
1.81676
-990.47
-0.0795017
-990.661
-1.98454
-991.026
-3.90054
-991.279
-5.8084
-991.623
-7.74643
-991.956
-9.65279
-992.247
-11.5728
-992.628
-13.4561
-992.317
-17.7303
-1003.9
-21.6514
-1054.57
-766.395
20.3781
-771.448
16.5561
-1048.03
12.7516
-997.127
11.0332
-986.505
9.28025
-987.626
7.51404
-987.699
5.71577
-988.169
3.93039
-988.281
2.12311
-988.663
0.319214
-988.857
-1.49541
-989.211
-3.31936
-989.455
-5.13743
-989.805
-6.98449
-990.109
-8.80127
-990.43
-10.6425
-990.787
-12.4119
-990.547
-16.2584
-1000.05
-20.6872
-1050.14
-787.082
20.3548
-791.803
15.9088
-1043.58
12.3563
-993.574
10.7375
-984.886
9.0578
-985.946
7.36964
-986.011
5.65003
-986.449
3.94309
-986.574
2.21334
-986.933
0.487987
-987.132
-1.25045
-987.473
-2.9962
-987.709
-4.73927
-988.062
-6.50952
-988.338
-8.25208
-988.687
-10.0268
-989.012
-11.7066
-988.868
-15.233
-996.522
-20.1999
-1045.18
-807.282
20.2597
-812.062
15.1903
-1038.52
11.9029
-990.287
10.372
-983.355
8.75982
-984.333
7.14391
-984.395
5.4972
-984.802
3.8628
-984.939
2.20477
-985.275
0.552092
-985.479
-1.11613
-985.804
-2.78928
-986.036
-4.46363
-986.388
-6.16232
-986.639
-7.83676
-987.013
-9.54848
-987.3
-11.1498
-987.266
-14.398
-993.274
-19.9294
-1039.65
-827.211
20.1399
-832.202
14.4482
-1032.82
11.4324
-987.271
9.98006
-981.902
8.43301
-982.786
6.88625
-982.848
5.30931
-983.225
3.7443
-983.374
2.15505
-983.685
0.571964
-983.895
-1.02889
-984.203
-2.63184
-984.432
-4.24045
-984.779
-5.869
-985.011
-7.47794
-985.404
-9.12658
-985.651
-10.6559
-985.737
-13.6392
-990.291
-19.7493
-1033.54
-846.96
20.0172
-852.219
13.7024
-1026.51
10.9616
-984.53
9.58172
-980.522
8.10035
-981.305
6.62256
-981.37
5.11474
-981.717
3.6185
-981.877
2.09765
-982.164
0.58302
-982.381
-0.951024
-982.669
-2.48451
-982.899
-4.0289
-983.234
-5.58723
-983.452
-7.13267
-983.858
-8.7174
-984.066
-10.1805
-984.273
-12.9045
-987.566
-19.5987
-1026.84
-866.559
19.9095
-872.128
12.9644
-1019.56
10.5004
-982.066
9.1887
-979.21
7.77414
-979.89
6.36611
-979.962
4.92678
-980.278
3.49872
-980.449
2.04621
-980.712
0.59869
-980.933
-0.868559
-981.202
-2.33317
-981.434
-3.81427
-981.753
-5.30104
-981.965
-6.78486
-982.374
-8.30328
-982.548
-9.70498
-982.872
-12.173
-985.098
-19.4483
-1019.57
-886.007
19.8436
-891.972
12.2549
-1011.97
10.0744
-979.885
8.83319
-977.969
7.48961
-978.546
6.15548
-978.627
4.785
-978.907
3.42345
-979.087
2.03722
-979.325
0.651504
-979.547
-0.753524
-979.796
-2.15624
-980.031
-3.58061
-980.328
-5.00039
-980.545
-6.43113
-980.943
-7.88285
-981.096
-9.23026
-981.524
-11.4476
-982.881
-19.2852
-1011.73
-905.293
19.8668
-911.838
11.6132
-1003.72
9.74425
-978.016
8.60093
-976.825
7.3494
-977.294
6.11121
-977.389
4.82729
-977.623
3.54424
-977.804
2.23398
-978.015
0.913768
-978.227
-0.42869
-978.454
-1.77694
-978.683
-3.15476
-978.95
-4.52474
-979.175
-5.92926
-979.538
-7.33296
-979.692
-8.6672
-980.19
-10.6719
-980.876
-19.037
-1003.36
-924.33
20.0761
-931.914
11.1014
-994.746
9.58924
-976.503
8.60421
-975.84
7.48258
-976.173
6.37088
-976.277
5.20222
-976.454
4.01702
-976.619
2.79926
-976.797
1.55797
-976.985
0.289461
-977.185
-0.996897
-977.396
-2.31806
-977.629
-3.63915
-977.854
-5.0201
-978.157
-6.37914
-978.333
-7.75872
-978.81
-9.59841
-979.036
-18.4198
-994.542
-942.749
20.7985
-952.713
11.0692
-985.016
9.96433
-975.398
9.25125
-975.127
8.35689
-975.278
7.43161
-975.352
6.42338
-975.446
5.35197
-975.547
4.21286
-975.658
3.00873
-975.781
1.74148
-975.918
0.416921
-976.072
-0.967309
-976.245
-2.38487
-976.436
-3.87407
-976.668
-5.32779
-976.879
-6.87831
-977.26
-8.53087
-977.384
-17.5625
-985.51
-960.312
22.2872
12.271
11.8726
11.7456
11.4674
11.1155
10.6696
10.1224
9.46459
8.68357
7.76554
6.6939
5.449
4.0126
2.34447
0.465323
-1.79425
-4.17797
-14.6881
-677.704
1652.72
-1101.41
1398.72
-1534.32
1407.92
-1883.28
1323.97
-2193.65
1285.38
-2454.18
1235.53
-2672.72
1193.55
-2848.68
1150.96
-2983.63
1109.96
-3077.81
1069.19
-3131.6
1028.8
-3144.61
988.019
-3114.02
944.413
-3030.3
891.284
-2872.54
817.243
-2609.03
711.491
-2203.97
569.951
-1625.54
396.567
-874.712
224.179
100.288
-212.364
1865.1
-471.037
1657.41
-744.952
1681.84
-976.114
1555.15
-1198.1
1507.38
-1386.95
1424.4
-1552.79
1359.41
-1690.47
1288.65
-1802.74
1222.24
-1889.18
1155.64
-1951
1090.63
-1987.77
1024.79
-1995.27
951.921
-1960.15
856.173
-1856.83
713.926
-1648.4
503.066
-1307.48
229.031
-860.708
-50.1987
-422.711
-213.812
-322.422
-135.199
2000.31
-302.973
1825.21
-429.794
1808.68
-512.687
1638.06
-584.182
1578.88
-622.541
1462.78
-643.888
1380.77
-642.738
1287.52
-623.065
1202.58
-584.441
1117.04
-527.881
1034.08
-454.068
951.003
-365.304
863.168
-267.412
758.299
-172.138
618.665
-93.8867
424.839
-37.7607
172.959
18.0191
-105.925
-25.4998
-170.268
-347.922
37.0498
1963.28
20.6608
1841.62
35.7488
1793.6
70.1451
1603.69
105.516
1543.52
160.535
1407.79
222.137
1319.17
297.625
1212.06
382.479
1117.73
475.908
1023.63
575.68
934.311
680.042
846.656
784.43
758.779
877.048
665.69
935.302
560.41
920.883
439.263
784.525
309.315
478.445
200.155
222.374
85.8022
-125.548
63.0806
1900.23
85.5831
1819.16
126.244
1752.97
168.267
1561.72
208.917
1502.9
257.127
1359.64
301.786
1274.54
350.703
1163.2
399.41
1069.04
454.443
968.65
517.452
871.316
592.663
771.482
684.599
666.846
794.235
556.071
901.367
453.277
953.354
387.278
894.913
367.755
710.118
384.945
406.468
389.445
280.919
-11.4907
1911.72
-19.0597
1826.73
-29.6415
1763.56
-58.5547
1590.64
-85.8684
1530.21
-125.097
1398.88
-175.923
1325.37
-236.157
1223.45
-296.647
1129.53
-338.785
1010.8
-351.095
883.617
-324.744
745.134
-253.719
595.806
-139.354
441.697
2.8987
310.997
151.573
238.573
278.49
240.814
332.138
331.28
236.877
484.69
517.796
-82.6163
1994.34
-178.569
1922.69
-263.848
1848.84
-371.87
1698.66
-479.713
1638.06
-604.37
1523.54
-741.292
1462.29
-890.618
1372.77
-1042.26
1281.17
-1179.73
1148.27
-1292.08
995.963
-1373.2
826.251
-1424.9
647.514
-1448.72
465.509
-1429.23
291.508
-1326.71
136.057
-1117.52
31.6188
-776.646
-9.59233
-336.498
44.5405
181.299
31.3138
1963
-107.499
2061.48
-183.752
1925.07
-254.289
1769.18
-320.341
1704.09
-387.044
1590.21
-450.142
1525.36
-511.823
1434.43
-575.346
1344.67
-643.521
1216.42
-715.312
1067.73
-789.245
900.154
-867.209
725.455
-947.69
545.962
-1020.87
364.661
-1072.44
187.601
-1075.54
34.7052
-937.922
-147.224
-578.699
-314.702
-397.4
237.224
1725.77
159.32
2139.38
126.879
1957.5
134.569
1761.48
163.97
1674.67
196.489
1557.68
244.502
1477.34
298.71
1380.2
355.078
1288.28
395.03
1176.45
411.335
1051.41
399.106
912.364
358.886
765.66
291.859
612.969
201.231
455.269
101.279
287.516
33.1505
102.795
-17.2385
-96.8696
-85.1734
-246.789
-482.574
314.438
1411.33
339.694
2114.13
331.778
1965.42
366.531
1726.73
434.472
1606.73
503.624
1488.54
584.8
1396.16
669.919
1295.09
759.722
1198.48
840.183
1095.99
902.692
988.898
938.928
876.13
945.054
759.526
917.837
640.183
853.745
519.351
746.869
394.384
584.613
265.039
370.728
116.998
182.235
-58.3146
-300.34
243.396
1167.94
311.134
2046.39
322.319
1954.23
353.172
1695.89
410.596
1549.31
469.5
1429.64
532.404
1333.25
594.741
1232.77
657.458
1135.75
714.437
1039.03
759.784
943.541
786.945
848.977
791.109
755.351
769.374
661.92
720.43
568.281
642.564
472.243
532.523
375.065
382.904
266.592
189.869
134.684
-110.471
122.119
1045.84
174.549
1993.98
209.093
1919.7
246.174
1658.83
297.984
1497.5
352.063
1375.59
406.238
1279.08
456.45
1182.58
502.418
1089.78
542.103
999.364
573.874
911.763
596.84
826.03
611.762
740.414
619.172
654.52
615.92
571.516
590.121
498.038
522.993
442.178
394.661
394.904
198.202
331.102
87.7303
2.43051
1043.42
45.4463
1950.98
115.104
1850.05
176.743
1597.21
244.527
1429.73
314.883
1305.26
384.56
1209.41
451.942
1115.22
517.846
1023.88
584.753
932.476
656.419
840.092
736.603
745.86
824.302
652.705
908.089
570.738
961.533
518.06
947.816
511.75
838.748
551.237
624.412
609.228
333.541
621.951
421.272
-123.485
1166.9
-77.7703
1905.26
36.5535
1735.71
113.825
1519.93
170.399
1373.14
224.379
1251.27
288.332
1145.44
370.39
1033.16
477.371
916.882
615.026
794.813
783.723
671.382
973.933
555.641
1158.43
468.192
1292.56
436.6
1327.23
483.382
1231.95
607.018
1008.01
775.174
683.538
933.694
328.416
977.062
749.688
-149.032
1315.91
-202.528
1958.73
-205.328
1738.5
-206.534
1521.11
-236.299
1402.89
-282.604
1297.55
-319.047
1181.87
-334.816
1048.9
-325.393
907.448
-290.597
759.989
-234.069
614.843
-162.308
483.851
-81.2133
387.088
7.28576
348.075
103.441
387.218
193.904
516.542
239.022
730.053
201.688
971.026
90.0577
1088.69
839.745
61.5491
1254.3
51.0977
1969.13
-131.535
1921.09
-361.124
1750.64
-589.725
1631.46
-813.761
1521.53
-1028.38
1396.46
-1236.46
1256.94
-1442.67
1113.64
-1650.14
967.422
-1855.5
820.185
-2044.57
672.904
-2186.47
528.979
-2233.58
395.17
-2137.21
290.837
-1869.08
248.416
-1429.17
290.128
-866.31
408.153
-325.301
547.671
514.445
417.226
837.065
845.971
1540.37
847.461
1919.59
565.055
2033.01
238.764
1957.74
-55.4881
1815.72
-322.496
1663.47
-575.646
1510.03
-820.4
1358.41
-1058.99
1205.97
-1289.77
1051
-1507.68
890.79
-1702.81
724.155
-1858.85
551.205
-1947.59
379.615
-1918.33
219.176
-1704.41
76.2528
-1251.34
-44.8619
-586.299
-117.296
-71.8529
541.069
295.982
1080.89
1000.53
1154.18
1846.3
994.477
2192.69
800.252
2151.97
627.587
1988.35
471.73
1819.33
322.984
1658.74
180.8
1500.61
46.0965
1340.64
-80.2726
1177.39
-198.743
1009.24
-310.866
836.318
-417.577
657.924
-513.108
475.2
-581.583
287.692
-604.887
99.6151
-555.032
-94.6618
-375.945
-296.324
-447.798
252.162
43.785
210.602
1042.06
118.225
1938.68
115.081
2195.81
165.535
2101.51
233.99
1919.88
311.059
1742.26
388.856
1580.92
463.539
1425.94
529.905
1274.25
583.045
1124.26
617.213
975.064
626.91
826.635
606.657
678.178
552.603
529.268
464.739
375.569
349.843
214.528
224.854
30.3513
72.3884
-143.837
-375.41
-448.799
-542.544
-347.905
-36.371
273.442
549.063
748.109
942.76
1106.81
1238.27
1333.4
1389.26
1403.08
1371.89
1292.67
1160.53
969.108
704.043
379.465
)
;

boundaryField
{
    outletWall
    {
        type            calculated;
        value           nonuniform List<scalar> 
60
(
-4908.82
-3365.89
-2353.81
-1633.85
-2118.57
-3014.65
-2999.94
-1733.92
589.423
-3197.72
-6884.23
-7386.8
-5815.09
-5157.71
9019.23
-1971.73
15023.5
-54329.3
-68520.7
159863
24986.9
-21595.7
2769.92
-5480.13
-287.641
-1272.4
1029.12
2245.13
4605.77
7264.04
6557.94
3767.78
1600.85
581.112
-1594.24
-515.024
-6154.52
2555.61
-22570.2
25578.1
-3344.59
-2805.12
-2541.04
-2589.36
-2197.07
-1354.99
1075.26
1177.14
-2084.19
-2896.53
725.263
2538.63
1399.75
-5162.13
-13853.2
-13578.1
15109.8
-52202.5
-67760.6
156168
)
;
    }
    fineWalls
    {
        type            calculated;
        value           uniform 0;
    }
    fineFrontAndBack
    {
        type            calculated;
        value           nonuniform List<scalar> 
960
(
-3.74945e-16
5.16998e-14
-5.05877e-14
-4.25475e-14
-5.73082e-14
-1.6427e-14
4.27911e-14
-1.19374e-13
6.58602e-13
1.87712e-13
4.02546e-13
-7.68558e-13
-6.82705e-13
-5.83252e-13
-5.59709e-12
-1.53341e-12
-1.55832e-12
-6.97831e-12
-9.58135e-13
-1.38478e-12
-5.328e-14
-4.60205e-13
-5.14353e-13
-5.83478e-13
-5.55364e-13
-7.31835e-13
-1.17744e-11
-8.92041e-13
-8.73646e-13
-9.19267e-13
-9.47046e-13
-9.57714e-13
-9.45475e-13
-9.4441e-13
-9.79153e-13
-9.64488e-13
-9.82666e-13
-9.8799e-13
-9.21264e-13
-1.10822e-12
-2.24406e-11
-2.7327e-12
-2.55271e-12
-2.73388e-12
-4.88542e-12
3.08935e-12
6.17102e-12
9.44126e-12
1.71333e-10
6.42786e-11
4.36115e-11
4.0376e-11
-2.60554e-13
5.34947e-13
3.79882e-13
2.93395e-12
6.36745e-13
7.30101e-13
7.62906e-13
7.73221e-12
3.44087e-13
1.74161e-13
1.65149e-13
1.24119e-13
9.57534e-14
6.20119e-14
2.10319e-14
-1.39234e-14
-5.92717e-14
-1.13319e-13
-1.71031e-13
-2.24671e-13
-2.70259e-13
-2.91906e-12
-3.21169e-13
-2.99033e-13
-3.23175e-13
-3.71014e-13
-5.46956e-13
-4.37845e-13
-8.95969e-13
-1.385e-12
-7.61717e-12
-1.78057e-12
-1.81889e-12
-9.32228e-12
-1.53077e-12
-1.46512e-12
-6.72668e-12
-9.44887e-13
-1.15118e-12
-3.71327e-12
1.90068e-13
2.00649e-13
1.98499e-13
1.15123e-12
1.84064e-13
1.63456e-13
5.64185e-13
-1.85013e-14
-8.58743e-09
1.00143e-09
5.4265e-10
-4.9472e-11
1.02752e-10
1.13617e-10
-7.00496e-12
-1.20195e-11
-6.25194e-13
2.42466e-13
-1.05642e-12
-1.93036e-13
6.36789e-14
-1.76205e-15
2.94591e-15
-2.259e-16
1.48613e-16
-3.82235e-16
2.27462e-14
2.34876e-09
3.56614e-10
7.38401e-10
1.12034e-11
1.241e-11
-1.17176e-11
-2.13938e-12
-8.3452e-12
2.56324e-12
1.25183e-11
4.66016e-12
-7.59896e-13
9.50208e-13
8.8424e-14
-2.71042e-14
3.02851e-15
-4.35683e-16
1.62746e-15
-7.08587e-14
-6.60023e-13
3.27376e-10
7.93537e-10
1.15098e-11
2.24036e-11
-3.33426e-12
-9.95073e-12
-7.04811e-12
1.66753e-12
2.11455e-11
1.52105e-11
1.52286e-12
2.31504e-12
6.44556e-13
-3.71593e-14
-8.4116e-16
-1.83873e-15
-4.46256e-15
2.06434e-13
5.32698e-10
8.63968e-10
7.09754e-10
5.31294e-12
4.99857e-12
-1.45548e-11
-1.7228e-11
-1.26008e-11
2.28162e-12
2.15171e-11
1.90682e-11
3.75734e-12
4.948e-12
2.36484e-12
3.27507e-13
-6.08678e-14
8.95163e-15
-1.49945e-14
9.73646e-13
4.54217e-10
8.80049e-10
6.14198e-10
1.02963e-10
-6.8627e-12
-2.6436e-11
-2.6972e-11
-1.91419e-11
1.70238e-12
1.64563e-11
1.62055e-11
5.77638e-12
8.74646e-12
5.24662e-12
1.44921e-12
-3.94055e-14
1.89869e-13
-5.28829e-13
3.14151e-12
4.91083e-10
7.68581e-10
5.43108e-10
1.84679e-10
-4.83083e-12
-3.94708e-11
-3.58993e-11
-2.56337e-11
-3.41979e-12
1.12489e-11
1.08617e-11
8.52732e-12
1.13651e-11
8.12848e-12
3.12417e-12
3.67399e-13
5.95451e-13
-1.04935e-12
4.36917e-12
5.05815e-10
6.60137e-10
4.94921e-10
2.6615e-10
1.18479e-11
-4.97466e-11
-4.25573e-11
-2.90807e-11
-5.25639e-12
8.90807e-12
8.07754e-12
9.51006e-12
1.00828e-11
8.69971e-12
4.76688e-12
1.34993e-12
1.43675e-12
2.43084e-12
-1.57959e-12
5.13717e-10
5.85728e-10
4.59672e-10
3.01127e-10
4.81009e-11
-5.5369e-11
-4.74045e-11
-2.95281e-11
-3.75391e-12
9.15737e-12
7.51493e-12
6.47642e-12
6.24368e-12
7.25107e-12
4.45577e-12
1.87673e-12
3.70937e-12
4.11844e-12
6.11853e-12
4.98896e-10
5.3304e-10
4.31507e-10
2.74933e-10
5.89446e-11
-5.70333e-11
-5.38673e-11
-2.96106e-11
-7.18727e-13
1.06734e-11
4.95193e-12
-3.22654e-12
-1.74368e-12
8.1427e-12
6.73912e-12
5.88514e-12
8.35401e-12
8.22959e-12
7.21319e-12
3.90265e-10
4.65539e-10
4.02514e-10
1.96385e-10
-2.96196e-11
-5.70943e-11
-5.83739e-11
-3.15919e-11
-1.71673e-13
9.09889e-12
-5.34634e-12
-2.19798e-11
-1.47222e-11
5.77501e-12
1.71069e-11
1.02365e-11
5.25114e-12
1.80967e-12
1.26431e-11
-2.24122e-11
-8.53452e-12
4.0053e-11
6.71588e-11
-2.23622e-11
-4.80478e-11
-5.29578e-11
-3.54269e-11
-8.07981e-12
-3.92985e-12
-1.58409e-11
-2.53617e-11
-2.462e-11
-2.04739e-11
-1.15496e-11
-1.93283e-11
-3.38616e-11
-2.91877e-11
2.45522e-11
-1.52057e-10
-1.31993e-10
-9.94382e-11
-1.64338e-11
-7.18612e-12
-5.07023e-11
-6.4152e-11
-3.69282e-11
-1.77204e-11
-1.49672e-11
-1.47948e-11
-1.27162e-11
-2.01535e-11
-3.11e-11
-3.13107e-11
-3.06729e-11
-3.06997e-11
-3.08929e-11
-2.81986e-11
-1.72638e-10
-1.18613e-10
-8.98177e-11
-4.10526e-11
7.26282e-13
-5.32782e-11
-5.993e-11
-3.65373e-11
-2.34091e-11
-1.97318e-11
-1.37745e-11
-1.14502e-11
-1.69619e-11
-2.7455e-11
-2.70366e-11
-2.04198e-11
-1.73733e-11
-2.14836e-11
-2.92093e-11
-1.69931e-10
-1.19269e-10
-9.01739e-11
-2.78411e-11
-6.03061e-13
-5.66655e-11
-4.9335e-11
-2.99625e-11
-2.66948e-11
-2.28572e-11
-1.79044e-11
-1.2341e-11
-1.19942e-11
-2.16688e-11
-2.02259e-11
-8.56562e-12
-2.65071e-12
1.95009e-12
4.70162e-13
-1.58508e-10
-1.20793e-10
-9.08728e-11
-6.5314e-12
-8.42921e-12
-5.91385e-11
-3.82334e-11
-1.6287e-11
-2.82217e-11
-2.52403e-11
-2.0612e-11
-9.84625e-12
-5.28815e-12
-1.52191e-11
-1.74379e-11
-7.34453e-12
-2.18434e-12
-9.72028e-13
3.28795e-12
-1.47673e-10
-1.21869e-10
-9.25629e-11
-1.37698e-12
-1.7216e-11
-6.20066e-11
-3.94459e-11
-5.04429e-12
-2.56713e-11
-2.64734e-11
-2.1297e-11
-6.81641e-12
-1.20036e-12
-7.96332e-12
-1.31608e-11
-4.276e-12
-7.27961e-13
2.07598e-13
9.59354e-13
-1.45729e-10
-1.20818e-10
-9.39591e-11
-7.65377e-12
-2.71072e-11
-8.02605e-11
-5.6749e-11
-3.92029e-12
-1.7758e-11
-2.39899e-11
-1.81047e-11
-4.2822e-12
5.58064e-14
-2.62871e-12
-6.21717e-12
-1.23676e-12
1.40625e-13
5.50949e-14
-7.61607e-14
-9.00026e-11
-1.35137e-10
-9.33788e-11
-1.74787e-11
-3.41449e-11
-9.26412e-11
-7.11467e-11
-1.12367e-11
-9.12887e-12
-1.75814e-11
-1.10171e-11
-1.91725e-12
2.13747e-13
-3.73884e-13
-1.936e-12
-1.50923e-13
5.76297e-14
-1.09799e-14
-4.44922e-14
-3.02221e-10
-1.25671e-10
-8.08473e-11
-2.05635e-11
-4.14794e-11
-5.70306e-11
-5.0437e-11
-1.31275e-11
-3.54161e-12
-1.07293e-11
-4.21128e-12
-3.04983e-13
1.09532e-13
1.14137e-13
-2.46257e-13
1.00147e-14
3.70968e-15
2.39931e-15
1.55132e-14
6.32624e-10
-1.21643e-10
-5.60551e-11
-2.22077e-11
-2.67112e-11
-1.05959e-11
-3.11592e-12
-1.21338e-12
-1.75025e-12
-4.89975e-12
-2.73422e-13
1.27814e-13
2.52433e-14
1.21875e-13
1.0471e-13
6.40442e-15
-4.24332e-15
-1.07311e-16
-1.02538e-15
3.74945e-16
-5.16998e-14
5.05877e-14
4.25475e-14
5.73082e-14
1.6427e-14
-4.27911e-14
1.19374e-13
-6.58602e-13
-1.87712e-13
-4.02546e-13
7.68558e-13
6.82705e-13
5.83252e-13
5.59709e-12
1.53341e-12
1.55832e-12
6.97831e-12
9.58135e-13
1.38478e-12
5.328e-14
4.60205e-13
5.14353e-13
5.83478e-13
5.55364e-13
7.31835e-13
1.17744e-11
8.92041e-13
8.73646e-13
9.19267e-13
9.47046e-13
9.57714e-13
9.45475e-13
9.4441e-13
9.79153e-13
9.64488e-13
9.82666e-13
9.8799e-13
9.21264e-13
1.10822e-12
2.24406e-11
2.7327e-12
2.55271e-12
2.73388e-12
4.88542e-12
-3.08935e-12
-6.17102e-12
-9.44126e-12
-1.71333e-10
-6.42786e-11
-4.36115e-11
-4.0376e-11
2.60554e-13
-5.34947e-13
-3.79882e-13
-2.93395e-12
-6.36745e-13
-7.30101e-13
-7.62906e-13
-7.73221e-12
-3.44087e-13
-1.74161e-13
-1.65149e-13
-1.24119e-13
-9.57534e-14
-6.20119e-14
-2.10319e-14
1.39234e-14
5.92717e-14
1.13319e-13
1.71031e-13
2.24671e-13
2.70259e-13
2.91906e-12
3.21169e-13
2.99033e-13
3.23175e-13
3.71014e-13
5.46956e-13
4.37845e-13
8.95969e-13
1.385e-12
7.61717e-12
1.78057e-12
1.81889e-12
9.32228e-12
1.53077e-12
1.46512e-12
6.72668e-12
9.44887e-13
1.15118e-12
3.71327e-12
-1.90068e-13
-2.00649e-13
-1.98499e-13
-1.15123e-12
-1.84064e-13
-1.63456e-13
-5.64185e-13
1.85013e-14
8.58743e-09
-1.00143e-09
-5.4265e-10
4.9472e-11
-1.02752e-10
-1.13617e-10
7.00496e-12
1.20195e-11
6.25194e-13
-2.42466e-13
1.05642e-12
1.93036e-13
-6.36789e-14
1.76205e-15
-2.94591e-15
2.259e-16
-1.48613e-16
3.82235e-16
-2.27462e-14
-2.34876e-09
-3.56614e-10
-7.38401e-10
-1.12034e-11
-1.241e-11
1.17176e-11
2.13938e-12
8.3452e-12
-2.56324e-12
-1.25183e-11
-4.66016e-12
7.59896e-13
-9.50208e-13
-8.8424e-14
2.71042e-14
-3.02851e-15
4.35683e-16
-1.62746e-15
7.08587e-14
6.60023e-13
-3.27376e-10
-7.93537e-10
-1.15098e-11
-2.24036e-11
3.33426e-12
9.95073e-12
7.04811e-12
-1.66753e-12
-2.11455e-11
-1.52105e-11
-1.52286e-12
-2.31504e-12
-6.44556e-13
3.71593e-14
8.4116e-16
1.83873e-15
4.46256e-15
-2.06434e-13
-5.32698e-10
-8.63968e-10
-7.09754e-10
-5.31294e-12
-4.99857e-12
1.45548e-11
1.7228e-11
1.26008e-11
-2.28162e-12
-2.15171e-11
-1.90682e-11
-3.75734e-12
-4.948e-12
-2.36484e-12
-3.27507e-13
6.08678e-14
-8.95163e-15
1.49945e-14
-9.73646e-13
-4.54217e-10
-8.80049e-10
-6.14198e-10
-1.02963e-10
6.8627e-12
2.6436e-11
2.6972e-11
1.91419e-11
-1.70238e-12
-1.64563e-11
-1.62055e-11
-5.77638e-12
-8.74646e-12
-5.24662e-12
-1.44921e-12
3.94055e-14
-1.89869e-13
5.28829e-13
-3.14151e-12
-4.91083e-10
-7.68581e-10