/*--------------------------------*- C++ -*----------------------------------*\
| =========                 |                                                 |
| \\      /  F ield         | OpenFOAM: The Open Source CFD Toolbox           |
|  \\    /   O peration     | Version:  4.1                                   |
|   \\  /    A nd           | Web:      www.OpenFOAM.org                      |
|    \\/     M anipulation  |                                                 |
\*---------------------------------------------------------------------------*/
FoamFile
{
    version     2.0;
    format      ascii;
    class       volScalarField;
    location    "16";
    object      p;
}
// * * * * * * * * * * * * * * * * * * * * * * * * * * * * * * * * * * * * * //

dimensions      [0 2 -2 0 0 0 0];

internalField   nonuniform List<scalar> 
1280
(
1.09616
3.6654
4.37677
4.22024
5.31653
6.81399
5.45679
4.43752
3.88345
4.58241
0.955034
0.421729
0.987333
-4.64562
-3.98376
-3.53741
-10.5396
-8.46321
-6.18059
-16.8263
-10.921
2.09964
21.6754
32.7461
34.371
36.3951
15.4221
25.8399
28.6927
27.6869
26.7632
25.8352
24.3609
22.5597
20.6236
18.4391
16.3622
13.8046
12.1
7.91115
6.80439
20.1974
23.8896
26.7259
37.7195
36.7636
36.8346
36.8091
37.0323
36.8724
36.6179
36.261
35.9642
34.2514
33.4122
38.8334
18.827
11.7053
4.27725
-0.295122
-1.94617
3.05587
4.9272
8.1464
10.7353
13.6127
16.2487
18.8161
21.0567
22.9291
24.7912
26.1371
24.8423
45.6964
53.8738
51.5052
48.9248
37.6167
19.3973
8.00545
2.93029
12.6747
18.3684
19.5663
22.3464
25.0061
25.691
26.2136
26.4964
26.2263
25.7752
24.8229
22.8508
20.7083
19.5637
17.4967
12.4468
7.77251
3.27498
3.3716
-0.1332
0.0986751
0.223727
1.36041
2.97179
1.59439
1.92408
1.4984
1.19406
0.40596
-2.09741
-4.51986
-2.69773
-19.1068
-11.6449
-7.60175
-0.448703
3.7602
5.24605
-0.431463
0.118188
0.420498
2.22124
4.93687
2.99486
2.72021
-0.20404
-2.76607
-4.07938
-5.20117
-1.25566
-3.23415
-23.7601
-10.5835
-0.869468
7.13448
13.2016
13.7281
-0.798801
0.0199195
0.429549
2.14798
5.1126
3.61092
3.1046
0.0166046
-3.09692
-4.64763
-7.7026
-6.46156
-16.1926
-26.0777
-12.6206
2.14454
12.127
20.1774
21.023
-1.21487
-0.347664
0.239323
1.91371
4.71029
3.46945
1.66911
-0.512641
-4.19203
-4.86535
-7.75802
-8.07845
-23.4662
-27.5151
-16.7359
3.87047
16.354
26.343
26.8069
-1.74449
-1.0545
-0.300937
1.39329
3.97315
3.11175
0.0777052
-0.377826
-4.05894
-3.81962
-6.78548
-9.28384
-27.936
-27.6155
-19.2003
6.06106
20.7954
32.1439
31.8152
-2.37925
-2.07457
-1.24177
0.528093
2.9709
2.60547
-1.43954
-0.551648
-4.13923
-2.99148
-5.3661
-8.61432
-29.3443
-27.2124
-20.5318
7.67704
24.7202
38.4497
36.65
-3.01763
-3.26029
-2.44385
-0.592644
1.77703
1.96734
-2.81509
-0.928547
-3.9594
-1.99397
-3.67364
-6.84085
-27.0755
-25.5422
-21.1378
8.83213
27.9235
44.125
38.1746
-3.65244
-4.45136
-3.77054
-1.88077
0.414469
1.22541
-4.16554
-1.80246
-3.56121
-0.82328
-1.45787
-3.63081
-21.6912
-21.904
-19.7768
9.69096
29.3378
50.8008
42.9138
-4.54767
-5.78866
-5.24734
-3.23924
-1.04822
0.47727
-5.27311
-2.97385
-2.73976
0.590079
1.21076
0.693143
-14.896
-17.3028
-16.9748
9.31804
28.4801
45.6448
67.0011
-5.38386
-7.14687
-6.49286
-4.56686
-2.4864
-0.154452
-5.85105
-4.30565
-1.51853
2.17451
4.17474
5.97368
-6.86886
-12.3673
-14.3155
7.83868
24.4518
44.1798
49.6046
-5.22335
-7.6434
-7.39583
-5.70641
-3.73692
-0.531701
-5.5496
-5.43887
-0.0191072
3.84041
7.23127
11.9669
2.70635
-5.06307
-9.69894
5.82215
16.4044
37.3862
46.8381
-4.85019
-7.43595
-7.81212
-6.46051
-4.61707
-0.565947
-4.07143
-5.8941
1.53795
5.37676
10.1683
18.1025
12.039
3.4833
-3.83025
3.98711
10.7782
43.1412
63.6054
-4.50264
-6.84802
-7.73931
-6.74951
-4.9916
-0.278496
-1.49823
-5.50459
2.95094
6.52153
12.7639
23.8318
19.473
10.9101
2.10645
4.08689
1.67214
7.20137
17.9295
-4.0329
-6.21824
-7.48188
-6.73038
-4.9361
0.132037
1.70564
-4.50284
4.06674
7.15216
14.6544
28.2044
23.7951
15.7506
6.72458
0.975459
-19.5391
-33.4107
-14.8559
-3.59038
-5.60445
-6.96487
-6.27284
-4.32884
0.501985
4.88509
-3.28811
4.72497
7.34013
15.4834
30.2321
25.0296
17.7473
8.95277
-0.813319
-22.1863
-26.2969
-12.5133
-3.12647
-5.18965
-6.54249
-5.8358
-3.58823
0.42207
6.58675
-2.14586
4.71254
7.07824
15.1395
29.4527
23.2255
17.1118
8.72155
-3.57892
-26.9636
-29.3945
-17.0839
-2.68966
-4.57387
-5.47589
-4.43701
-1.93723
0.136979
5.02471
-1.02909
4.07415
6.33027
13.6487
26.0924
19.8254
14.5771
7.045
-5.85502
-27.2867
-30.5171
-15.6879
-2.19387
-4.27663
-5.14603
-4.1287
-1.43618
0.471243
1.906
0.0207086
3.18849
5.40798
11.5629
21.0987
14.7133
10.6901
4.69386
-6.57726
-23.3773
-27.1489
-11.7641
-1.75198
-2.83454
-2.40588
-0.567938
1.41706
2.69424
-0.354713
0.0710621
1.93766
4.00441
8.96418
15.3983
9.01094
6.67135
3.13416
-4.19283
-14.2797
-16.9158
-6.81266
-0.795547
-1.43195
-2.47255
-3.327
-3.03406
0.447305
-0.780585
-0.438362
-0.114744
0.645921
3.1428
6.12316
2.75241
1.2144
0.0930471
-2.05669
-4.3375
-5.20021
-1.58185
-22.6423
-18.1999
-13.5805
-9.55031
-7.54414
-5.94169
-5.38344
-4.84877
-4.33941
-3.79705
-3.24286
-2.61285
-1.88978
-1.0563
-0.131326
0.929433
2.02528
3.32813
4.41287
5.90572
-71.1534
-68.5158
-64.99
-60.5474
-56.9304
-53.6866
-50.8212
-48.3163
-46.1032
-44.133
-42.2977
-40.5126
-38.7164
-36.8376
-34.9077
-32.8656
-30.9224
-28.7731
-27.1085
-24.3765
-66.5051
-69.1102
-68.7618
-67.1777
-66.6317
-66.4709
-66.4707
-66.6892
-67.0519
-67.5581
-68.1036
-68.5779
-68.8258
-68.6425
-67.9441
-66.6055
-64.9053
-62.7515
-61.1367
-58.2779
-29.6567
-35.7127
-40.6333
-44.4654
-48.0819
-51.6206
-54.7999
-57.7905
-60.4838
-63.1001
-65.6749
-68.2937
-70.9111
-73.4078
-75.5937
-77.2257
-78.1531
-78.6522
-79.0665
-77.2819
21.5097
15.8143
11.5041
7.0484
2.59764
-2.16704
-6.64545
-11.0387
-14.9489
-18.4922
-21.4727
-23.906
-25.6556
-26.6901
-27.0612
-26.9284
-26.4867
-26.2103
-27.3581
-30.6791
55.6688
53.813
52.6348
51.7559
51.3793
50.5518
49.9106
48.8462
47.6319
45.8701
43.5199
40.26
35.9633
30.7603
25.3292
20.5225
17.1714
15.9665
16.0091
12.5181
45.0071
46.0716
46.2377
46.4571
46.7688
46.7413
46.9463
46.8273
46.7635
46.5565
46.3587
46.1502
45.9196
45.5851
45.0977
44.3514
43.4787
42.4093
42.1937
41.0593
31.3962
33.6775
35.0721
36.2434
37.8018
38.7119
40.0094
40.871
41.7138
42.2552
42.5586
42.6026
42.4939
42.4157
42.6682
43.4023
44.5905
45.8625
46.809
47.4001
8.72131
11.0122
12.8404
13.8629
15.7963
16.7877
18.3921
19.6071
20.9599
22.2441
23.5104
24.7579
25.9723
27.1736
28.3759
29.669
30.995
32.5387
33.7337
35.2245
-12.4107
-10.4064
-8.30512
-7.55994
-5.24582
-4.28442
-2.35233
-0.984107
0.652608
2.17917
3.71513
5.23744
6.7329
8.22822
9.6954
11.2102
12.6526
14.2768
15.5092
17.247
-38.8883
-38.4058
-36.3532
-36.6094
-34.3417
-34.1191
-32.2275
-31.2496
-29.5964
-28.1057
-26.391
-24.5843
-22.6662
-20.6357
-18.5628
-16.3748
-14.2457
-11.8116
-9.80491
-6.66454
-55.3662
-58.3723
-57.6509
-60.324
-59.9291
-62.3378
-62.6085
-64.4352
-65.2159
-66.4758
-67.1497
-67.5372
-67.3312
-66.5483
-65.2029
-63.3472
-61.2989
-58.9027
-57.0559
-53.4265
-30.1758
-35.1512
-35.4722
-39.691
-40.6138
-44.5242
-46.3648
-50.0119
-52.7577
-56.3765
-59.6359
-63.0188
-66.0408
-68.7072
-70.7899
-72.4413
-73.4774
-73.6964
-74.1196
-72.4656
11.8257
8.26963
9.06544
5.46752
6.03603
3.06948
2.80706
0.627602
-0.328017
-1.99841
-3.2118
-4.58578
-5.82379
-7.18253
-8.69214
-10.5242
-12.5825
-14.3635
-16.5897
-20.1332
23.0886
22.7091
25.337
23.6265
26.799
25.712
27.8213
27.6655
28.6163
28.6387
28.7259
28.3869
27.868
27.1196
26.2285
25.1364
23.8767
22.8602
22.2814
20.6418
-1.02354
-1.54103
1.96133
-0.222998
3.89386
3.18559
6.02085
7.08983
9.30064
11.2152
13.3837
15.4889
17.512
19.2844
20.6581
21.522
22.2487
23.4378
24.9298
26.793
-2.26211
-5.45672
-2.50911
-8.387
-6.9982
-10.7537
-11.5775
-13.7172
-15.0619
-16.4316
-17.4837
-18.2923
-18.8221
-19.0245
-18.8876
-18.184
-16.8389
-14.5348
-11.8621
-8.92244
-10.3582
-17.2873
-9.13426
-16.1167
-14.2021
-17.6253
-19.008
-21.6626
-24.0384
-26.7067
-29.3656
-32.0928
-34.807
-37.4553
-39.898
-41.6457
-42.3944
-41.4605
-40.3812
-38.3831
11.1024
-11.8517
-3.99817
-15.4234
-18.4981
-25.472
-30.7324
-36.2889
-41.1129
-45.4082
-48.9328
-51.6335
-53.416
-54.2032
-53.9059
-52.5153
-50.0061
-46.8042
-44.5014
-42.4144
705.034
622.049
572.687
516.214
466.992
419.498
375.348
333.662
294.463
257.476
222.55
189.492
158.095
128.312
100.251
73.1692
47.5575
27.8753
4.58594
-32.6466
690.575
607.59
558.228
501.755
452.534
405.04
360.889
319.203
280.004
243.017
208.09
175.032
143.634
113.851
85.7894
58.7077
33.0964
13.4142
-9.87596
-47.1095
-3.35172
-26.306
-18.4523
-29.8776
-32.9522
-39.926
-45.1863
-50.7428
-55.5667
-59.862
-63.3865
-66.0871
-67.8696
-68.6567
-68.3592
-66.9682
-64.4586
-61.2579
-58.9566
-56.8706
-24.822
-31.7528
-23.6005
-30.5842
-28.6706
-32.0951
-33.4789
-36.1349
-38.512
-41.1818
-43.8421
-46.5707
-49.2864
-51.9359
-54.3795
-56.1278
-56.8762
-55.9423
-54.8639
-52.8682
-16.7551
-19.952
-17.0047
-22.884
-21.4962
-25.2529
-26.0779
-28.2187
-29.5647
-30.9353
-31.9883
-32.7978
-33.3284
-33.5318
-33.3958
-32.6928
-31.3477
-29.0422
-26.37
-23.4292
-15.5035
-16.0223
-12.5176
-14.7029
-10.5845
-11.2925
-8.45695
-7.38766
-5.17758
-3.26395
-1.09734
1.00591
3.0266
4.7972
6.17063
7.03797
7.77304
8.97415
10.4707
12.3355
8.5933
8.22087
10.8505
9.14352
12.3176
11.2335
13.3444
13.1917
14.1452
14.1715
14.2631
13.9296
13.4168
12.6754
11.7924
10.7107
9.46279
8.45386
7.88047
6.25073
-2.49329
-6.03903
-5.23736
-8.82724
-8.24954
-11.2074
-11.4596
-13.6294
-14.5749
-16.2359
-17.441
-18.8085
-20.0429
-21.4018
-22.916
-24.7547
-26.818
-28.5999
-30.8242
-34.3767
-44.4972
-49.4766
-49.7999
-54.0239
-54.9501
-58.8655
-60.711
-64.3635
-67.1143
-70.7383
-74.0013
-77.3874
-80.4103
-83.0759
-85.1563
-86.8014
-87.8309
-88.0463
-88.4705
-86.8258
-69.8092
-72.8264
-72.1089
-74.787
-74.3972
-76.8101
-77.0852
-78.9156
-79.6987
-80.9603
-81.6337
-82.02
-81.8118
-81.0272
-79.6822
-77.8286
-75.7839
-73.3924
-71.548
-67.9182
-53.3846
-52.9071
-50.8532
-51.1101
-48.8419
-48.6196
-46.7272
-45.7494
-44.0955
-42.6051
-40.8905
-39.0844
-37.1671
-35.1379
-33.0662
-30.8792
-28.7503
-26.3142
-24.304
-21.1597
-26.8724
-24.8676
-22.7635
-22.017
-19.7006
-18.7376
-16.8034
-15.4336
-13.7952
-12.2672
-10.7299
-9.20641
-7.70985
-6.21342
-4.74496
-3.22864
-1.78449
-0.158319
1.07616
2.8174
-5.73424
-3.44042
-1.60873
-0.583947
1.35193
2.34556
3.95192
5.16867
6.52288
7.80824
9.0753
10.3235
11.5384
12.7406
13.9441
15.239
16.567
18.1127
19.3098
20.8034
16.9779
19.2606
20.6571
21.8284
23.3867
24.2954
25.5909
26.4503
27.2905
27.8301
28.1334
28.1798
28.078
28.011
28.2774
29.0241
30.2197
31.4952
32.4431
33.0389
30.586
31.6638
31.8378
32.0669
32.3885
32.3715
32.5874
32.4811
32.431
32.239
32.0569
31.8643
31.6468
31.3212
30.8327
30.0715
29.1789
28.0924
27.8683
26.7309
41.5487
39.7157
38.5561
37.6919
37.3202
36.4931
35.8475
34.7742
33.5457
31.7641
29.3876
26.0939
21.7531
16.5006
11.0189
6.16659
2.77299
1.52775
1.54439
-1.96567
7.60988
1.93567
-2.39723
-6.8911
-11.3767
-16.176
-20.6938
-25.1333
-29.0946
-32.6933
-35.7313
-38.2234
-40.0301
-41.1156
-41.5309
-41.4392
-41.0382
-40.8022
-41.9799
-45.3185
-42.8182
-48.8689
-53.9659
-57.9875
-61.7457
-65.4059
-68.688
-71.7637
-74.5243
-77.1913
-79.8001
-82.4444
-85.0843
-87.6031
-89.8189
-91.4874
-92.4605
-93.0135
-93.4713
-91.7536
-80.1147
-82.7067
-82.7641
-81.4789
-81.1247
-81.0718
-81.1224
-81.3629
-81.724
-82.2125
-82.7295
-83.1729
-83.3938
-83.1872
-82.4721
-81.1227
-79.4196
-77.2777
-75.6824
-72.8904
-94.7901
-92.445
-87.6514
-81.7041
-76.8513
-72.6875
-69.0942
-65.97
-63.2191
-60.7726
-58.5104
-56.3477
-54.2223
-52.0619
-49.8967
-47.6699
-45.5907
-43.3721
-41.6892
-39.0202
-34.7634
-30.8867
-26.1921
-21.9987
-19.6936
-17.7036
-16.7324
-16.3088
-15.9904
-15.538
-15.0434
-14.4642
-13.7811
-12.9874
-12.1061
-11.1117
-10.083
-8.90325
-7.903
-6.59428
)
;

boundaryField
{
    outletWall
    {
        type            fixedValue;
        value           uniform 0;
    }
    fineWalls
    {
        type            zeroGradient;
    }
    fineFrontAndBack
    {
        type            zeroGradient;
    }
    fineplugLeft
    {
        type            cyclicAMI;
        value           nonuniform List<scalar> 
20
(
6.30681
5.9503
5.42343
4.89266
4.43137
4.01966
3.6669
3.36035
3.07675
2.75836
2.49974
2.26702
1.28897
-3.01769
2.52566
0.83888
-1.09103
-6.52931
-14.14
-20.298
)
;
    }
    fineplugRight
    {
        type            cyclicAMI;
        value           nonuniform List<scalar> 
20
(
-5.66465
-5.71123
-6.13716
-6.4371
-6.74228
-6.96233
-7.14016
-7.26166
-7.36005
-7.44887
-7.47214
-7.56487
-8.07861
-9.6338
-3.38815
-5.4538
-7.81402
-13.4303
-20.8299
-26.2096
)
;
    }
    inletOutletLeft
    {
        type            cyclicAMI;
        value           nonuniform List<scalar> 
20
(
6.30681
5.9503
5.42343
4.89266
4.43137
4.01966
3.6669
3.36035
3.07675
2.75836
2.49974
2.26702
1.28897
-3.01769
2.52566
0.83888
-1.09103
-6.52931
-14.14
-20.298
)
;
    }
    inletLeft
    {
        type            zeroGradient;
    }
    inletWallsLeft
    {
        type            zeroGradient;
    }
    inletFacesLeft
    {
        type            zeroGradient;
    }
    inletOutletRight
    {
        type            cyclicAMI;
        value           nonuniform List<scalar> 
20
(
-5.66465
-5.71123
-6.13716
-6.4371
-6.74228
-6.96233
-7.14016
-7.26166
-7.36005
-7.44887
-7.47214
-7.56487
-8.07861
-9.6338
-3.38815
-5.4538
-7.81402
-13.4303
-20.8299
-26.2096
)
;
    }
    inletRight
    {
        type            zeroGradient;
    }
    inletWallsRight
    {
        type            zeroGradient;
    }
    inletFacesRight
    {
        type            zeroGradient;
    }
}


// ************************************************************************* //
