/*--------------------------------*- C++ -*----------------------------------*\
| =========                 |                                                 |
| \\      /  F ield         | OpenFOAM: The Open Source CFD Toolbox           |
|  \\    /   O peration     | Version:  4.1                                   |
|   \\  /    A nd           | Web:      www.OpenFOAM.org                      |
|    \\/     M anipulation  |                                                 |
\*---------------------------------------------------------------------------*/
FoamFile
{
    version     2.0;
    format      ascii;
    class       surfaceScalarField;
    location    "16";
    object      phi;
}
// * * * * * * * * * * * * * * * * * * * * * * * * * * * * * * * * * * * * * //

dimensions      [0 3 -1 0 0 0 0];

internalField   nonuniform List<scalar> 
2360
(
-5125.5
-482.86
-4642.64
-482.861
-482.86
3852.2
-4335.07
3852.21
3852.2
3852.21
7742.77
-3890.56
7742.77
7742.77
10957.5
-3214.73
10957.5
10957.5
13087
-2129.53
13087
13087
14875
-1787.96
14875
14875
15430.3
16816
18608.3
20370.3
21975.9
23428.3
16802
7997.36
18052.9
19208
20271.8
21246.9
22135.2
22940
23664.8
24314.1
24890.6
25395.6
25824.6
26171.2
26377.6
9832.83
16544.8
9832.83
9832.83
9832.83
21.0323
9811.8
21.0351
21.0408
21.0406
1026.39
-1005.35
1026.39
1026.39
-3721.45
4747.84
-3721.45
-3721.45
-3721.45
-16377.7
12656.3
-16377.7
-16377.7
-16377.7
-28700.9
12323.2
-28482.3
-28126.6
-27690.3
-27180.9
-26601.6
-25951.3
-25226.9
-24424.2
-23539.1
-22568.8
-21511.3
-20364.3
-19124.1
-21522.9
3755.39
-20067.2
-18458.8
-16696.1
-14908.3
-13535.5
-12956.3
-12956.3
-12956.3
-7217.02
-5739.29
-7217.02
-7217.02
-2518.48
-4698.55
-2518.48
-2518.48
1837.91
-4356.39
1837.91
1837.91
5920.65
-4082.74
5920.65
5920.65
5920.65
10462.4
-4541.76
10462.4
10462.4
15188.9
-4726.5
1921.3
-3112.94
1656.66
-2484.86
1049.86
-1361.4
754.9
4055.48
40.1152
4746.42
-2102.38
-3547.45
-4625.79
-6025.67
-6948.15
-8370.02
-8908.86
-11414
-10062.4
-16103.5
-9782
-21461
-6777.65
-22701.8
-1493.89
-9589.7
1268.8
15798.2
2709.54
26097
4168.83
28237.4
4966.83
23911.1
5429.49
15064.3
1847.8
2676.32
-3069.99
2265.32
-2073.87
1187.18
-283.254
573.964
4668.69
-542.466
5862.85
-3665.09
-424.83
-6406.77
-3283.99
-8075.62
-6701.17
-8964.23
-10525.4
-9428.03
-15639.7
-9500.22
-21388.8
-7595.03
-24607
-1906.78
-15277.9
1283.89
12607.5
2372.6
25008.3
3832.02
26778
4718.69
23024.5
5080.68
14702.3
2386.72
3092.74
-2937.64
2608.7
-1589.83
1386.17
939.279
490.618
5564.24
-796.528
7150
-4012.87
2791.51
-6402.41
-894.447
-7012.32
-6091.26
-6781.37
-10756.3
-6450.81
-15970.2
-6618.75
-21220.8
-6261.4
-24964.3
-2335.88
-19203.5
767.038
9504.62
1866.1
23909.2
3295.12
25349
4297.43
22022.2
4617.28
14382.4
2921.26
3511.5
-2745.41
2955.21
-1033.53
1647.64
2246.84
500.149
6711.74
-776.837
8426.98
-3687.88
5702.56
-5958.94
1376.61
-6043.1
-6007.1
-5220.08
-11579.3
-4276.6
-16913.7
-4049.7
-21447.7
-4335.24
-24678.8
-2892.81
-20645.9
-352.708
6964.52
1364.77
22191.7
2563.65
24150.1
3648.49
20937.3
4170.27
13860.6
2735.14
3764.72
-2523.6
3183.83
-452.645
1877.57
3553.11
558.777
8030.53
-767.468
9753.23
-3314.72
8249.81
-5515.39
3577.28
-5489.29
-6033.2
-4597.89
-12470.7
-3547.47
-17964.1
-3100.51
-21894.7
-3358.07
-24421.2
-3454.29
-20549.7
-1265.42
4775.66
707.929
20218.4
1523.95
23334.1
2758.61
19702.7
3748.84
12870.4
1785.44
3785.39
-2298.75
3204.76
127.984
1956.9
4800.97
584.492
9402.94
-817.066
11154.8
-3097.67
10530.4
-5266.52
5746.13
-5331.69
-5968.03
-4547.14
-13255.3
-3703.67
-18807.6
-3513.35
-22085
-3823.15
-24111.4
-4369.42
-20003.4
-2390.12
2796.36
-624.117
18452.4
180.913
22529.1
1525.33
18358.2
3464.14
10931.6
-489.714
3629.91
-2072.71
3019.52
738.372
1813.72
6006.77
499.038
10717.6
-930.097
12583.9
-3038.59
12638.9
-5129.14
7836.67
-5185.05
-5912.11
-4387.66
-14052.7
-3804.53
-19390.7
-4110.89
-21778.6
-4892.38
-23329.9
-5931.26
-18964.5
-4424.27
1289.37
-2623.85
16652
-1413.53
21318.7
-19.1409
16963.9
2534.16
8378.29
5799.83
3420.78
-1824.71
2708.48
1450.67
1459.82
7255.43
261.905
11915.5
-1127.91
13973.7
-3098.75
14609.7
-4989.32
9727.24
-4878.42
-6023.01
-4014.21
-14916.9
-3788.27
-19616.7
-4600.7
-20966.2
-5947.27
-21983.4
-7582.26
-17329.5
-6699.79
406.904
-4814.77
14766.9
-3204.41
19708.4
-1978.15
15737.6
-4445.35
10845.5
13677.7
3151.69
-1465.5
2201.58
2400.78
845.068
8611.95
-184.949
12945.6
-1483.65
15272.4
-3279.35
16405.4
-4818.51
11266.4
-4431.36
-6410.16
-3575.01
-15773.2
-3835.8
-19355.9
-5052.86
-19749.1
-6872.62
-20163.6
-9001.8
-15200.4
-8419.26
-175.63
-6537.08
12884.8
-5255.96
18427.2
-6484.68
16966.3
-10801
15161.8
15532.9
2522.29
-719.111
1120.37
3802.71
-188.788
9921.1
-953.639
13710.4
-2084.03
16402.8
-3589.25
17910.7
-4597.95
12275.1
-3878.61
-7129.5
-3204.44
-16447.4
-3996.99
-18563.3
-5437.4
-18308.7
-7682.05
-17919
-10391.6
-12490.8
-10217.4
-349.805
-8723.28
11390.6
-8486.67
18190.6
-10527.9
19007.6
-11065.5
15699.4
9215.27
908.278
911.951
-869.505
5580.5
-1619.89
10671.5
-2066.63
14157.2
-2926.85
17263.1
-4008.64
18992.4
-4313.78
12580.2
-3251.14
-8192.14
-2961.36
-16737.2
-4182.88
-17341.8
-5621.94
-16869.7
-8291.53
-15249.4
-11755
-9027.4
-12577.4
472.676
-11820.3
10633.5
-11598.8
17969.1
-11651.8
19060.5
-8102.48
12150.1
107.434
-1716.97
2575.84
-2951.34
6814.86
-3136.07
10856.2
-3350.18
14371.3
-3905.01
17817.9
-4484.9
19572.3
-3958.38
12053.7
-2641.53
-9508.98
-2857.67
-16521.1
-4262.35
-15937.1
-5516.73
-15615.3
-8500.01
-12266.1
-12493.5
-5033.95
-14204.6
2183.77
-14157.1
10586.1
-13703.6
17515.7
-13274.9
18631.8
-12517.7
11392.9
-2598.48
-3878.08
3489.43
-4502.12
7438.91
-4504.21
10858.3
-4600.72
14467.8
-4897.35
18114.5
-4953.5
19628.5
-3511.08
10611.3
-2196.71
-10823.4
-2889.17
-15828.6
-4126.16
-14700.1
-5121.53
-14619.9
-8148.49
-9239.14
-12295.1
-887.335
-14561.3
4449.96
-15417.2
11442
-16026.7
18125.1
-17206.3
19811.5
-18052.3
12238.9
-4105.99
-5295.39
4088.69
-5683.18
7826.7
-5687.49
10862.6
-5748.82
14529.1
-5858.26
18224
-5359.26
19129.5
-2929.67
8181.71
-1945.53
-11807.5
-2990.06
-14784.1
-3752.54
-13937.7
-4475.48
-13897
-7014.4
-6700.22
-10859.9
2958.21
-13325.5
6915.48
-14574.5
12691
-14853.3
18403.9
-13274.7
18232.9
-8425.67
7389.85
-4534.3
-6424.6
4530.69
-6732.03
8134.13
-6786.24
10916.8
-6858.54
14601.4
-6797.24
18162.7
-5636.54
17968.8
-2294.6
4839.76
-1814.47
-12287.6
-2994.89
-13603.7
-3225.54
-13707
-3658.89
-13463.6
-5083.2
-5275.91
-8267.64
6142.64
-10717.6
9365.42
-11817.9
13791.3
-11240.2
17826.2
-7984.42
14977.1
-2526.58
1932
-8848.84
-7422.17
4848.84
-7716.39
8428.34
-7892.22
11092.7
-8026.42
14735.6
-7711.87
17848.1
-5658.71
15915.6
-1853.16
1034.22
-1860.18
-12280.6
-2787.6
-12676.2
-2677.66
-13816.9
-2842.8
-13298.5
-2917.81
-5200.89
-5082.87
8307.7
-7310.64
11593.2
-8147.15
14627.8
-7031.86
16710.9
-3645.75
11591
-31.0219
-1682.72
-11009.4
-8584.93
5014.46
-8819.09
8662.51
-9117.27
11390.8
-9256.51
14874.8
-8395.33
16986.9
-5042.31
12562.6
-1582.42
-2425.67
-2108.88
-11754.1
-2435.36
-12349.8
-2192.93
-14059.4
-2117.94
-13373.5
-1186.24
-6132.59
-2042.28
9163.74
-3689.89
13240.8
-4384.73
15322.7
-3293.13
15619.3
-269.53
8567.37
2413.01
-4365.26
-11811.1
-10046
5023.79
-10192.2
8808.76
-10551.6
11750.2
-10474.9
14798.1
-8602.56
15114.6
-3917.82
7877.89
-1447.14
-4896.35
-2295.42
-10905.9
-2091.04
-12554.1
-1781.07
-14369.4
-1452.72
-13701.8
-33.5822
-7551.73
309.531
8820.62
-189.807
13740.1
-416.414
15549.3
656.797
14546.1
3195.65
6028.51
4896.02
-6065.64
-10805.6
-12553.5
5007.21
-12534.9
8790.22
-12413.8
11629
-11240.3
13624.6
-7761.68
11636
-3090.36
3206.56
-1774.15
-6212.56
-2249.39
-10430.6
-1848.44
-12955.1
-1443.68
-14774.1
-929.047
-14216.5
574.415
-9055.19
1616.41
7778.63
2355.54
13001
3066.64
14838.2
4436.94
13175.8
5911.17
4554.29
5939.88
-6094.35
-9200.83
-14351.1
-13907.9
-12614.7
-9967.48
-5800.6
-2580.14
-2159.01
-2128.17
-1715.03
-1205.76
-618.898
476.5
1771.37
3078.47
4286.98
5582.2
6211.64
5812.11
-635.784
80.5177
-558.045
-1463.47
-282.855
-2067.55
15.0864
-2059.88
273.594
-1864.16
496.31
-1675.05
646.638
-1521.43
787.542
-1391.84
904.303
-1271.85
995.248
-1154.7
1058.54
-1038.38
1093.07
-922.918
1097.65
-809.29
1070.51
-697.752
1009.83
-588.627
912.854
-479.498
776.863
-368.94
592.781
-244.954
335.979
-89.8117
129.572
113.615
-33.1003
-95.1373
-1254.72
-133.869
-2028.82
-64.8462
-2128.9
32.8774
-1961.89
140.378
-1782.55
258.316
-1639.37
377.128
-1510.65
487.919
-1382.64
583.235
-1250.02
658.55
-1113.7
710.592
-974.961
736.606
-835.305
734.045
-695.192
700.907
-555.49
634.792
-413.385
535.348
-269.496
400.669
-110.276
224.219
86.6376
353.791
490.338
-523.44
727.91
-1492.29
737.092
-2038.01
699.484
-2091.29
684.837
-1947.24
698.8
-1796.51
728.314
-1668.88
759.682
-1542.02
784.925
-1407.88
800.394
-1265.49
803.736
-1117.04
790.491
-961.717
755.541
-800.355
694.352
-634.005
601.534
-462.674
472.03
-283.881
311.41
-108.878
155.465
45.6661
35.4572
206.643
389.248
630.58
-1154.02
1073.31
-1935.03
1051.83
-2016.52
848.016
-1887.48
668.773
-1768
537.933
-1665.68
425.753
-1556.7
309.913
-1426.18
187.596
-1285.57
60.8623
-1138.76
-67.4376
-988.743
-195.36
-833.796
-322.036
-673.682
-446.132
-509.91
-560.855
-347.953
-652.824
-191.914
-698.429
-63.2745
-652.26
-0.504614
-443.217
-2.40224
-53.9697
303.092
-1457.12
405.447
-2037.38
225.209
-1836.29
-12.4387
-1649.83
-219.597
-1560.84
-410.984
-1474.29
-602.247
-1365.44
-798.219
-1230.21
-996.86
-1086.93
-1197.41
-938.211
-1398.59
-787.562
-1595.68
-636.705
-1776.66
-492.709
-1917.89
-368.681
-1979.86
-285.985
-1902.48
-269.29
-1629.65
-336.111
-1150.92
-479.227
-521.332
-631.995
-575.302
-90.9364
-1366.18
-206.643
-1921.68
-343.632
-1699.3
-478.333
-1515.13
-632.298
-1406.88
-807.073
-1299.52
-983.281
-1189.23
-1151.07
-1062.42
-1307.49
-930.509
-1452.74
-792.961
-1583.46
-656.842
-1688.37
-531.793
-1747.66
-433.416
-1733.94
-382.405
-1616.67
-403.253
-1375.04
-510.922
-1012.92
-698.227
-584.991
-907.161
-212.414
-1004.57
-787.716
-152.749
-1213.43
-135.225
-1939.2
-59.8329
-1774.69
-33.6212
-1541.35
-44.4458
-1396.05
-68.066
-1275.9
-82.2989
-1175
-76.4287
-1068.29
-44.7522
-962.186
16.0126
-853.727
105.894
-746.724
220.17
-646.069
348.115
-561.361
474.959
-509.25
578.411
-506.706
626.571
-559.082
582.81
-654.466
431.547
-755.898
207.182
-780.206
-580.535
-49.6377
-1163.79
3.84806
-1992.69
87.8811
-1858.72
151.28
-1604.74
211.14
-1455.91
271.253
-1336.01
336.091
-1239.84
410.561
-1142.76
498.518
-1050.14
604.665
-959.874
729.99
-872.049
869.417
-785.496
1008.07
-700.012
1117.6
-618.786
1161.01
-550.113
1106.91
-504.984
940.745
-488.297
669.807
-484.959
343.549
-453.949
-236.986
79.3983
-1243.19
130.743
-2044.03
181.771
-1909.75
234.684
-1657.66
298.863
-1520.09
364.328
-1401.48
429.15
-1304.66
490.341
-1203.95
547.727
-1107.53
600.618
-1012.77
649.109
-920.54
694.09
-830.478
736.078
-742
771.696
-654.405
789.416
-567.833
766.943
-482.511
680.291
-401.645
511.369
-316.036
267.349
-209.928
30.3637
190.11
-1433.3
246.537
-2100.46
270.172
-1933.38
309.514
-1697
370.094
-1580.67
430.267
-1461.65
493.171
-1367.56
554.181
-1264.96
614.707
-1168.05
669.793
-1067.85
714.775
-965.522
744.106
-859.809
753.968
-751.861
742.028
-642.465
706.787
-532.591
644.082
-419.807
546.275
-303.837
399.965
-169.726
202.287
-12.2487
232.65
272.228
-1705.53
298.114
-2126.35
303.603
-1938.87
344.714
-1738.11
413.65
-1649.61
481.071
-1529.07
558.035
-1444.53
637.269
-1344.2
721.902
-1252.69
800.764
-1146.71
865.823
-1030.58
907.518
-901.503
920.163
-764.506
899.432
-621.734
842.768
-475.927
746.64
-323.677
608.358
-165.555
415.937
22.6956
207.436
196.253
440.087
238.414
-1943.94
181.612
-2069.54
167.847
-1925.11
191.678
-1761.94
237.321
-1695.25
283.949
-1575.7
346.257
-1506.84
415.266
-1413.2
491.72
-1329.14
557.653
-1212.65
603.591
-1076.52
620.127
-918.038
604.289
-748.668
553.97
-571.414
470.724
-392.681
356.457
-209.408
234.213
-43.3104
133.343
123.567
16.8469
312.751
456.934
67.3305
-2011.27
-58.4817
-1943.73
-116.522
-1867.07
-164.33
-1714.13
-205.734
-1653.84
-246.069
-1535.36
-279.939
-1472.97
-309.363
-1383.78
-337.207
-1301.3
-369.773
-1180.08
-409.25
-1037.04
-455.511
-871.777
-509.801
-694.377
-571.802
-509.412
-632.499
-331.983
-681.111
-160.795
-709.196
-15.2252
-668.192
82.5643
-462.4
106.959
-5.46644
-63.8416
-1947.43
-165.193
-1842.38
-245.276
-1786.98
-342.245
-1617.16
-438.582
-1557.51
-546.221
-1427.72
-662.916
-1356.27
-789.023
-1257.67
-920.543
-1169.77
-1045.06
-1055.56
-1153.18
-928.92
-1237.7
-787.252
-1300.55
-631.527
-1347.45
-462.509
-1374.86
-304.579
-1342.79
-192.86
-1197.82
-160.192
-892.774
-222.486
-433.42
-352.395
-438.886
-31.2377
-1916.19
-59.8608
-1813.75
-90.1826
-1756.66
-140.36
-1566.98
-187.884
-1509.98
-248.392
-1367.21
-319.4
-1285.26
-401.551
-1175.52
-487.155
-1084.17
-558.379
-984.337
-601.073
-886.225
-604.621
-783.702
-561.925
-674.223
-471.995
-552.438
-348.795
-427.777
-205.514
-336.14
-52.6113
-313.094
78.6401
-353.736
118.309
-392.062
-320.577
52.2706
-1968.46
71.5992
-1833.08
106.074
-1791.13
139.159
-1600.07
170.956
-1541.78
207.915
-1404.17
239.585
-1316.93
272.909
-1208.84
303.862
-1115.12
340.264
-1020.74
385.6
-931.56
445.507
-843.608
526.523
-755.239
635.448
-661.361
762.981
-555.31
860.4
-433.558
848.877
-301.57
691.208
-196.068
399.726
-100.579
79.1484
29.1325
-1997.59
15.0978
-1819.05
27.7111
-1803.75
60.0026
-1632.36
91.6694
-1573.44
144.2
-1456.7
201.825
-1374.55
273.894
-1280.91
354.592
-1195.82
444.049
-1110.19
539.534
-1027.04
639.633
-943.706
740.818
-856.423
834.314
-754.857
901.468
-622.463
906.086
-438.176
803.133
-198.617
517.979
89.0869
250.595
166.807
329.743
-134.159
-1863.43
-298.324
-1654.88
-423.022
-1679.05
-503.484
-1551.9
-573.07
-1503.86
-609.209
-1420.56
-628.571
-1355.19
-625.363
-1284.12
-603.844
-1217.34
-563.714
-1150.32
-506.076
-1084.68
-431.425
-1018.36
-341.353
-946.495
-240.682
-855.527
-140.52
-722.625
-56.3552
-522.34
1.16141
-256.133
44.2761
45.9738
-7.32187
218.405
322.421
-210.291
-1653.14
-466.776
-1398.39
-738.195
-1407.63
-966.597
-1323.49
-1185.65
-1284.8
-1371.4
-1234.81
-1533.91
-1192.69
-1668.08
-1149.95
-1776.63
-1108.79
-1859.09
-1067.86
-1916.54
-1027.24
-1948.66
-986.237
-1952.32
-942.838
-1916.69
-891.154
-1819.26
-820.054
-1624.5
-717.103
-1305.05
-575.577
-860.11
-398.967
-419.998
-221.707
-97.5762
-678.142
-1101.54
-1534.17
-1882.66
-2192.46
-2452.27
-2669.96
-2844.9
-2978.69
-3071.55
-3123.79
-3135.02
-3102.86
-3019.02
-2864.07
-2606.17
-2206.75
-1630.72
-877.424
-678.136
1653.14
-1101.53
1398.39
-1534.15
1407.63
-1882.65
1323.49
-2192.45
1284.8
-2452.26
1234.81
-2669.95
1192.69
-2844.9
1149.95
-2978.69
1108.8
-3071.56
1067.86
-3123.81
1027.25
-3135.06
986.255
-3102.92
942.855
-3019.08
891.158
-2864.1
820.029
-2606.15
717.047
-2206.67
575.518
-1630.62
398.948
-877.375
221.759
97.6248
-210.313
1863.45
-466.821
1654.9
-738.266
1679.07
-966.698
1551.93
-1185.79
1503.89
-1371.57
1420.6
-1534.11
1355.23
-1668.32
1284.16
-1776.91
1217.39
-1859.42
1150.38
-1916.92
1084.74
-1949.09
1018.43
-1952.79
946.555
-1917.17
855.541
-1819.68
722.541
-1624.76
522.124
-1305.02
255.785
-860.011
-46.0651
-419.965
-218.286
-322.34
-134.196
1997.65
-298.408
1819.12
-423.145
1803.81
-503.65
1632.43
-573.276
1573.52
-609.461
1456.78
-628.868
1374.64
-625.707
1281
-604.236
1195.92
-564.15
1110.29
-506.55
1027.15
-431.93
943.807
-341.889
856.515
-241.258
754.911
-141.146
622.43
-57.0288
438.009
0.516285
198.245
43.8507
-89.3948
-7.56525
-166.868
-329.905
29.1757
1968.47
15.0962
1833.2
27.7087
1791.2
59.9942
1600.15
91.6699
1541.84
144.194
1404.26
201.824
1317.01
273.89
1208.94
354.592
1115.21
444.052
1020.83
539.543
931.655
639.645
843.706
740.821
755.34
834.261
661.471
901.282
555.41
905.66
433.632
802.317
301.589
517.027
195.896
250.026
100.135
-79.8791
52.3839
1916.09
71.7487
1813.83
106.293
1756.65
139.488
1566.96
171.39
1509.94
208.491
1367.16
240.327
1285.18
273.855
1175.41
305.034
1084.04
341.654
984.216
387.175
886.135
447.23
783.652
528.342
674.229
637.235
552.58
764.49
428.156
861.322
336.8
849.138
313.773
691.192
353.842
399.78
391.548
319.901
-30.9717
1947.06
-59.3064
1842.17
-89.359
1786.71
-139.237
1616.83
-186.471
1557.17
-246.658
1427.35
-317.345
1355.86
-399.152
1257.22
-484.404
1169.29
-555.277
1055.09
-597.641
928.499
-600.872
786.884
-557.86
631.217
-467.646
462.367
-344.228
304.738
-200.792
193.364
-48.0967
161.079
82.0467
223.699
120
353.595
439.901
-64.06
2011.12
-165.303
1943.41
-245.417
1866.82
-342.485
1713.9
-438.92
1653.61
-546.712
1535.14
-663.591
1472.74
-789.926
1383.55
-921.666
1301.03
-1046.35
1179.77
-1154.56
1036.71
-1239.09
871.411
-1301.84
693.97
-1348.51
509.035
-1375.43
331.659
-1342.58
160.511
-1196.73
15.2287
-891.163
-81.8639
-432.141
-105.427
7.76046
66.8349
1944.29
-59.0888
2069.34
-117.305
1925.04
-165.359
1761.96
-207.034
1695.28
-247.657
1575.76
-281.848
1506.93
-311.621
1413.33
-339.84
1329.25
-372.759
1212.69
-412.542
1076.49
-459.06
917.929
-513.587
748.497
-575.785
571.232
-636.628
392.503
-685.394
209.275
-713.469
43.303
-671.578
-123.755
-464.187
-312.818
-456.426
238.239
1706.05
181.181
2126.39
167.271
1938.95
190.951
1738.28
236.42
1649.82
282.891
1529.29
345.035
1444.79
413.881
1344.48
490.143
1252.99
555.854
1146.98
601.556
1030.79
617.862
901.624
601.823
764.537
551.38
621.675
468.118
475.765
353.999
323.395
232.2
165.102
131.887
-23.441
15.8295
-196.76
-440.597
272.468
1433.58
298.245
2100.62
303.642
1933.55
344.722
1697.2
413.651
1580.89
481.079
1461.86
558.073
1367.8
637.357
1265.2
722.05
1168.29
800.956
1068.08
866.038
965.706
907.735
859.927
920.374
751.898
899.639
642.41
842.964
532.439
746.807
419.552
608.429
303.481
415.738
169.25
207.334
11.6434
-233.263
190.461
1243.12
246.91
2044.17
270.469
1909.99
309.785
1657.88
370.378
1520.29
430.571
1401.67
493.513
1304.85
554.571
1204.14
615.156
1107.71
670.303
1012.93
715.335
920.674
744.684
830.577
754.515
742.067
742.479
654.445
707.098
567.821
644.239
482.411
546.308
401.412
399.937
315.621
202.263
209.318
-31.0001
79.7083
1163.41
131.071
1992.8
182.049
1859.01
234.924
1605
299.087
1456.13
364.537
1336.22
429.34
1240.05
490.501
1142.98
547.852
1050.36
600.692
960.087
649.096
872.269
693.947
785.725
735.757
700.257
771.208
618.992
788.754
550.275
766.15
505.015
679.514
488.048
510.778
484.357
266.996
453.101
235.996
-49.352
1212.76
4.04215
1939.41
87.9952
1775.06
151.493
1541.5
211.539
1396.08
271.86
1275.9
336.889
1175.02
411.51
1068.35
499.563
962.305
605.716
853.933
730.933
747.051
870.12
646.537
1008.55
561.831
1117.83
509.709
1161.16
506.941
1107.05
559.126
940.968
654.131
670.104
755.22
343.812
779.393
579.808
-152.635
1365.39
-134.448
1921.22
-58.5265
1699.14
-31.9596
1514.94
-42.3367
1406.46
-65.4359
1299
-79.1431
1188.73
-72.7738
1061.98
-40.6278
930.157
20.5969
792.706
110.945
656.701
225.654
531.825
353.979
433.503
481.041
382.644
584.367
403.614
631.93
511.561
587.093
698.968
434.436
907.877
208.63
1005.2
788.438
-92.1852
1457.58
-207.804
2036.84
-343.716
1835.05
-477.592
1648.81
-631.146
1560.01
-805.596
1473.44
-981.435
1364.56
-1148.82
1229.37
-1304.8
1086.14
-1449.54
937.439
-1579.59
786.753
-1683.64
635.876
-1742.05
491.909
-1727.44
368.039
-1609.61
285.785
-1367.89
269.84
-1006.48
337.555
-580.24
481.636
-210.149
635.107
578.289
303.552
1154.03
404.676
1935.71
224.409
2015.31
-12.2117
1885.43
-218.459
1766.26
-409.212
1664.2
-599.951
1555.3
-795.432
1424.85
-993.622
1284.33
-1193.79
1137.6
-1394.64
987.605
-1591.51
832.748
-1772.46
672.86
-1913.63
509.206
-1975.37
347.522
-1897.9
192.372
-1625.32
64.9727
-1147.26
3.57555
-519.155
7.00298
59.134
640.497
513.529
1087.5
1488.72
1066.95
2035.86
863.236
2089.15
684.101
1945.39
553.283
1795.01
440.898
1667.69
324.677
1541.07
201.842
1407.16
74.4237
1265.02
-54.8037
1116.83
-183.748
961.691
-311.333
800.444
-436.517
634.389
-552.384
463.388
-645.534
285.521
-692.376
111.814
-647.219
-41.5826
-441.117
-199.1
-381.983
514.969
-1.43971
765.902
1237.78
773.254
2028.51
730.299
2132.1
710.034
1965.66
719.776
1785.27
746.721
1640.74
776.399
1511.39
800.466
1383.1
815.046
1250.44
817.673
1114.2
803.724
975.641
767.905
836.262
705.73
696.564
611.697
557.42
480.964
416.254
319.046
273.732
160.309
117.154
37.3919
-76.1836
-344.591
58.1914
-59.6314
-139.037
1435.01
-171.07
2060.54
-96.1051
2057.14
7.61988
1861.93
121.664
1671.23
245.765
1516.64
369.381
1387.77
483.722
1268.75
581.771
1152.39
659.203
1036.77
712.756
922.087
739.673
809.345
737.385
698.852
703.899
590.907
636.874
483.278
536.302
374.303
400.637
252.819
224.948
99.5054
-119.643
-638.844
-576.651
-303.876
-9.41021
244.128
459.649
619.669
767.298
889.05
983.887
1050.32
1087.37
1093.97
1068.44
1009.06
913.081
777.914
594.42
338.291
)
;

boundaryField
{
    outletWall
    {
        type            calculated;
        value           nonuniform List<scalar> 
60
(
15188.9
-1144.81
-15526.9
-24709.1
-29696.7
-27537.7
-18560.9
4305.93
19697.4
21180.5
17257
13374.7
10692.4
8549.08
5689.95
-4031.64
-3760.51
1968.19
2749.51
3095.44
14339.7
12570.1
10036.7
8419.32
7104.02
5982.59
4696.13
2964.49
53.0794
-2539.34
-3268.68
-3510.91
-3668.77
-3855.96
-4010.24
-3986.53
-3703.74
-3225.09
-2719.27
-1903.8
5125.5
-8031.37
-5694.82
3924.85
11880.6
13629.7
11693.9
6483.76
-10150.6
-14803.3
-15283.4
-13368.2
-10461.5
-6633.7
-13.8952
7469.15
10977.4
10335.9
8347.05
5018.55
)
;
    }
    fineWalls
    {
        type            calculated;
        value           uniform 0;
    }
    fineFrontAndBack
    {
        type            calculated;
        value           nonuniform List<scalar> 
960
(
-1.26468e-12
-4.43221e-12
-7.55348e-13
-1.03913e-12
-5.80798e-12
-7.08469e-13
-1.17046e-12
-4.65161e-13
-2.47874e-12
-9.72468e-13
-1.69678e-12
-1.41923e-11
-3.6342e-12
-4.02046e-12
-2.61019e-11
-4.04907e-12
-2.38104e-12
-5.58719e-12
3.96375e-13
9.7886e-13
1.91298e-13
1.6348e-13
8.35189e-14
4.035e-15
-4.84704e-14
-1.57659e-13
-3.60793e-12
-2.61887e-13
-3.24238e-13
-3.92767e-13
-4.60094e-13
-5.23161e-13
-5.80234e-13
-6.22672e-13
-6.44856e-13
-6.42568e-13
-5.79254e-13
-4.84696e-13
-2.97194e-13
-3.57063e-13
6.08952e-12
2.49827e-12
2.73735e-12
2.69245e-12
2.57264e-11
1.43709e-11
2.22927e-11
2.85525e-11
1.90643e-10
4.28077e-11
4.81564e-11
6.81302e-11
-2.69633e-12
-1.83154e-12
-2.43779e-12
-1.83429e-11
-3.48544e-12
-3.37458e-12
-2.77001e-12
-4.43309e-12
4.97434e-13
4.098e-13
6.36449e-13
7.46005e-13
8.25321e-13
8.4638e-13
8.43544e-13
8.22988e-13
7.82785e-13
7.25884e-13
6.69301e-13
6.13112e-13
5.61374e-13
1.02187e-11
5.13094e-13
4.66812e-13
4.99167e-13
5.30394e-13
5.85924e-13
6.26435e-13
3.38638e-12
3.49764e-12
2.34145e-11
6.79549e-12
7.04977e-12
3.13982e-11
5.69008e-12
4.42245e-12
5.36495e-12
-2.53552e-12
-1.43979e-11
-5.09539e-11
1.5912e-12
7.435e-12
1.23451e-11
5.98207e-11
1.45387e-11
1.78574e-11
9.0943e-11
1.46137e-11
-9.67545e-12
-9.89378e-12
-1.23428e-11
-2.19254e-11
-2.43233e-11
-1.47866e-11
4.95183e-12
6.50119e-12
1.95811e-12
3.81132e-12
6.99208e-12
4.49233e-12
-8.10883e-12
-2.43353e-11
-3.26338e-11
-2.12959e-11
-6.14284e-12
2.81443e-12
-1.3669e-11
-1.44549e-11
-1.4391e-11
-1.42669e-11
-2.13316e-11
-2.42068e-11
-9.81353e-12
5.07057e-12
3.59067e-12
3.47129e-12
7.82378e-12
1.02845e-11
9.15585e-12
-1.50562e-12
-2.52793e-11
-3.27531e-11
-2.21777e-11
-7.44501e-12
3.34602e-12
-2.30785e-11
-1.5919e-11
-1.54516e-11
-1.51808e-11
-2.08422e-11
-2.40519e-11
-1.03302e-11
5.41805e-12
2.10863e-12
-1.49892e-12
-2.24717e-12
-2.0005e-12
5.76409e-13
-1.76525e-12
-2.46088e-11
-3.26682e-11
-2.33786e-11
-9.08614e-12
2.99117e-12
-4.491e-12
-1.43153e-11
-1.37744e-11
-1.53724e-11
-2.07378e-11
-2.39886e-11
-1.22374e-11
3.12374e-12
-4.8243e-12
-1.31149e-11
-1.64372e-11
-1.63843e-11
-1.13954e-11
-6.00305e-12
-2.02875e-11
-3.23665e-11
-2.46755e-11
-1.05685e-11
2.01209e-12
-1.00539e-12
-8.29516e-12
-8.19677e-12
-1.39483e-11
-2.0986e-11
-2.4086e-11
-1.29808e-11
1.00427e-12
-1.32884e-11
-2.37127e-11
-2.55517e-11
-2.3889e-11
-1.83973e-11
-9.73578e-12
-1.79055e-11
-3.20369e-11
-2.49439e-11
-1.1334e-11
1.18511e-12
-9.70584e-12
8.24179e-13
1.13417e-13
-1.06227e-11
-2.09982e-11
-2.42986e-11
-1.27492e-11
2.45379e-13
-1.89675e-11
-2.82787e-11
-2.67209e-11
-2.35014e-11
-1.78779e-11
-8.47924e-12
-1.78854e-11
-3.03041e-11
-2.37525e-11
-1.14912e-11
4.6671e-13
-1.43595e-11
8.9702e-12
7.66576e-12
-6.35714e-12
-2.02785e-11
-2.43677e-11
-1.19911e-11
9.52274e-13
-2.03041e-11
-2.75093e-11
-2.41771e-11
-2.1176e-11
-1.53256e-11
-3.77193e-12
-1.55951e-11
-2.7098e-11
-2.24243e-11
-1.11416e-11
9.32264e-14
8.16633e-12
1.26269e-11
1.17785e-11
-2.87341e-12
-1.91008e-11
-2.4029e-11
-1.06414e-11
2.80129e-12
-1.90181e-11
-2.50877e-11
-2.19172e-11
-2.00126e-11
-1.42189e-11
1.55427e-12
-1.1497e-11
-2.52196e-11
-2.12075e-11
-8.74422e-12
-1.00931e-12
-6.71197e-12
1.24157e-11
1.2053e-11
-1.8938e-12
-1.81109e-11
-2.29106e-11
-8.78897e-12
4.19154e-12
-1.7034e-11
-2.3101e-11
-2.06651e-11
-1.95364e-11
-1.45521e-11
6.53487e-12
-4.20492e-12
-2.5215e-11
-1.87857e-11
-8.98881e-12
-1.43112e-11
-2.86545e-11
1.07073e-11
8.48027e-12
-4.20643e-12
-1.74007e-11
-2.06206e-11
-4.89656e-12
1.08521e-11
-1.57433e-11
-2.17082e-11
-1.96345e-11
-1.87247e-11
-1.37161e-11
1.01323e-11
1.36984e-11
-5.23128e-12
-1.84087e-11
-1.50293e-11
-2.46421e-11
-4.59778e-12
8.20536e-12
1.63541e-12
-7.71618e-12
-1.6392e-11
-1.64785e-11
-6.84775e-13
8.48595e-12
-1.40157e-11
-2.08489e-11
-1.85514e-11
-1.77244e-11
-9.86462e-12
9.50392e-12
1.24299e-11
-2.15491e-12
-1.57987e-11
-1.84942e-11
-1.14097e-11
7.80395e-11
8.39822e-12
-8.59178e-13
-8.19954e-12
-1.33498e-11
-1.01529e-11
4.71765e-12
8.91383e-12
-1.36337e-11
-2.02612e-11
-1.75725e-11
-1.81823e-11
-1.18919e-11
9.23329e-12
1.65392e-11
4.80311e-12
-3.88008e-12
4.311e-13
2.37797e-11
4.87062e-11
1.33288e-11
4.16099e-12
-2.88885e-12
-6.30198e-12
-1.7669e-12
1.0222e-11
1.02712e-11
-1.43982e-11
-1.92803e-11
-1.70188e-11
-1.81275e-11
-1.34504e-11
5.80926e-12
1.65571e-11
1.21852e-11
9.04495e-12
1.59392e-11
2.47601e-11
1.42255e-11
1.7377e-11
1.17851e-11
6.23858e-12
3.64906e-12
7.25582e-12
1.47565e-11
9.59527e-12
-1.67058e-11
-1.76159e-11
-1.69117e-11
-1.80664e-11
-1.56817e-11
-1.40012e-12
9.22642e-12
1.18044e-11
1.24551e-11
1.42866e-11
6.23512e-12
-1.37464e-11
1.88438e-11
1.68079e-11
1.40736e-11
1.27289e-11
1.49467e-11
1.7858e-11
7.09091e-12
-1.92619e-11
-1.60894e-11
-1.70032e-11
-1.78814e-11
-1.76727e-11
-1.14874e-11
-2.33113e-12
5.3529e-12
8.78131e-12
5.68925e-12
-7.76433e-12
-1.27398e-11
1.92095e-11
1.87346e-11
1.83139e-11
1.86868e-11
2.02779e-11
1.89933e-11
2.13351e-12
-1.94155e-11
-1.54563e-11
-1.70276e-11
-1.77534e-11
-1.82191e-11
-1.8449e-11
-1.43263e-11
-5.10416e-12
2.56169e-12
-2.1361e-13
-1.49672e-11
-1.1698e-11
1.98522e-11
1.99709e-11
2.05837e-11
2.21396e-11
2.29789e-11
1.67769e-11
-7.18246e-12
-1.71046e-11
-1.55247e-11
-1.6904e-11
-1.77126e-11
-1.80715e-11
-1.96999e-11
-2.15564e-11
-1.67794e-11
-6.53457e-12
-3.57303e-12
-1.94278e-11
-1.5293e-11
2.01921e-11
2.12655e-11
2.21556e-11
2.3593e-11
2.19814e-11
9.55594e-12
-1.73658e-11
-1.51545e-11
-1.56665e-11
-1.67542e-11
-1.76771e-11
-1.80698e-11
-1.83902e-11
-2.15603e-11
-2.33447e-11
-1.77083e-11
-1.30351e-11
-1.87872e-11
-1.44299e-11
2.04704e-11
2.24591e-11
2.30029e-11
2.24145e-11
1.59981e-11
-1.24362e-12
-1.85075e-11
-1.4836e-11
-1.56181e-11
-1.66558e-11
-1.76298e-11
-1.80785e-11
-1.77271e-11
-1.85489e-11
-2.16522e-11
-2.20178e-11
-2.06457e-11
-1.69183e-11
-1.03897e-11
1.56939e-11
1.77391e-11
1.64089e-11
1.23282e-11
2.32888e-12
-1.24494e-11
-1.65071e-11
-1.50107e-11
-1.55249e-11
-1.65977e-11
-1.75977e-11
-1.80776e-11
-1.76343e-11
-1.6629e-11
-1.67467e-11
-1.72556e-11
-1.66562e-11
-1.24129e-11
-8.17931e-12
1.26468e-12
4.43221e-12
7.55348e-13
1.03913e-12
5.80798e-12
7.08469e-13
1.17046e-12
4.65161e-13
2.47874e-12
9.72468e-13
1.69678e-12
1.41923e-11
3.6342e-12
4.02046e-12
2.61019e-11
4.04907e-12
2.38104e-12
5.58719e-12
-3.96375e-13
-9.7886e-13
-1.91298e-13
-1.6348e-13
-8.35189e-14
-4.035e-15
4.84704e-14
1.57659e-13
3.60793e-12
2.61887e-13
3.24238e-13
3.92767e-13
4.60094e-13
5.23161e-13
5.80234e-13
6.22672e-13
6.44856e-13
6.42568e-13
5.79254e-13
4.84696e-13
2.97194e-13
3.57063e-13
-6.08952e-12
-2.49827e-12
-2.73735e-12
-2.69245e-12
-2.57264e-11
-1.43709e-11
-2.22927e-11
-2.85525e-11
-1.90643e-10
-4.28077e-11
-4.81564e-11
-6.81302e-11
2.69633e-12
1.83154e-12
2.43779e-12
1.83429e-11
3.48544e-12
3.37458e-12
2.77001e-12
4.43309e-12
-4.97434e-13
-4.098e-13
-6.36449e-13
-7.46005e-13
-8.25321e-13
-8.4638e-13
-8.43544e-13
-8.22988e-13
-7.82785e-13
-7.25884e-13
-6.69301e-13
-6.13112e-13
-5.61374e-13
-1.02187e-11
-5.13094e-13
-4.66812e-13
-4.99167e-13
-5.30394e-13
-5.85924e-13
-6.26435e-13
-3.38638e-12
-3.49764e-12
-2.34145e-11
-6.79549e-12
-7.04977e-12
-3.13982e-11
-5.69008e-12
-4.42245e-12
-5.36495e-12
2.53552e-12
1.43979e-11
5.09539e-11
-1.5912e-12
-7.435e-12
-1.23451e-11
-5.98207e-11
-1.45387e-11
-1.78574e-11
-9.0943e-11
-1.46137e-11
9.67545e-12
9.89378e-12
1.23428e-11
2.19254e-11
2.43233e-11
1.47866e-11
-4.95183e-12
-6.50119e-12
-1.95811e-12
-3.81132e-12
-6.99208e-12
-4.49233e-12
8.10883e-12
2.43353e-11
3.26338e-11
2.12959e-11
6.14284e-12
-2.81443e-12
1.3669e-11
1.44549e-11
1.4391e-11
1.42669e-11
2.13316e-11
2.42068e-11
9.81353e-12
-5.07057e-12
-3.59067e-12
-3.47129e-12
-7.82378e-12
-1.02845e-11
-9.15585e-12
1.50562e-12
2.52793e-11
3.27531e-11
2.21777e-11
7.44501e-12
-3.34602e-12
2.30785e-11
1.5919e-11
1.54516e-11
1.51808e-11
2.08422e-11
2.40519e-11
1.03302e-11
-5.41805e-12
-2.10863e-12
1.49892e-12
2.24717e-12
2.0005e-12
-5.76409e-13
1.76525e-12
2.46088e-11
3.26682e-11
2.33786e-11
9.08614e-12
-2.99117e-12
4.491e-12
1.43153e-11
1.37744e-11
1.53724e-11
2.07378e-11
2.39886e-11
1.22374e-11
-3.12374e-12
4.8243e-12
1.31149e-11
1.64372e-11
1.63843e-11
1.13954e-11
6.00305e-12
2.02875e-11
3.23665e-11
2.46755e-11
1.05685e-11
-2.01209e-12
1.00539e-12
8.29516e-12
8.19677e-12
1.39483e-11
2.0986e-11
2.4086e-11
1.29808e-11
-1.00427e-12
1.32884e-11
2.37127e-11
2.55517e-11
2.3889e-11
1.83973e-11
9.73578e-12
1.79055e-11
3.20369e-11
2.49439e-11
1.1334e-11
-1.18511e-12
9.70584e-12
-8.24179e-13
-1.13417e-13
1.06227e-11
2.09982e-11
2.42986e-11
1.27492e-11
-2.45379e-13
1.89675e-11