/*--------------------------------*- C++ -*----------------------------------*\
| =========                 |                                                 |
| \\      /  F ield         | OpenFOAM: The Open Source CFD Toolbox           |
|  \\    /   O peration     | Version:  4.1                                   |
|   \\  /    A nd           | Web:      www.OpenFOAM.org                      |
|    \\/     M anipulation  |                                                 |
\*---------------------------------------------------------------------------*/
FoamFile
{
    version     2.0;
    format      ascii;
    class       volVectorField;
    location    "16";
    object      U;
}
// * * * * * * * * * * * * * * * * * * * * * * * * * * * * * * * * * * * * * //

dimensions      [0 1 -1 0 0 0 0];

internalField   nonuniform List<vector> 
1280
(
(-9.13948e-16 -1.71124 -3.5202)
(-7.53297e-16 0.265928 -3.39782)
(-3.1989e-16 -0.778595 -2.30847)
(-7.50953e-16 -0.010817 -2.40614)
(-9.87122e-16 1.20207 -2.99935)
(-5.11992e-16 0.837018 -2.10502)
(-8.45858e-16 1.37777 -2.16104)
(-2.86026e-16 1.49246 -2.02872)
(-5.17165e-16 2.69169 -2.53091)
(-7.26747e-16 2.40382 -1.78417)
(-1.22622e-15 2.71719 -1.81986)
(-2.39223e-15 3.91888 -2.36828)
(-2.62686e-15 3.38882 -1.6132)
(-2.92222e-15 3.74112 -1.57203)
(-4.54788e-15 4.76667 -1.90512)
(-2.92616e-15 4.04266 -1.39243)
(-1.72072e-15 4.40573 -1.41101)
(-9.49597e-16 5.31396 -2.01841)
(2.8645e-16 4.6348 -1.53756)
(7.07396e-16 4.59811 -2.12525)
(7.84814e-16 4.93533 -1.13414)
(6.70688e-16 5.00037 3.56037)
(3.42642e-16 4.94651 7.78697)
(1.65539e-17 5.09463 9.79984)
(-1.98853e-16 5.33482 10.5009)
(-6.46808e-16 5.76634 10.7445)
(-7.60564e-16 4.34501 8.35671)
(-1.07441e-15 8.30476 13.4556)
(-1.33021e-15 8.24385 13.3129)
(-1.61135e-15 8.32567 12.962)
(-1.88757e-15 8.35061 12.5455)
(-2.1463e-15 8.34312 12.1247)
(-2.38045e-15 8.34111 11.7622)
(-2.55455e-15 8.33011 11.514)
(-2.64556e-15 8.31167 11.4117)
(-2.63618e-15 8.26154 11.4271)
(-2.37643e-15 8.2093 11.5182)
(-1.9885e-15 8.08091 11.5436)
(-1.21926e-15 8.03088 11.6583)
(-1.46488e-15 7.73114 11.4448)
(1.05997e-15 8.29975 12.9631)
(2.00665e-15 4.4338 8.95592)
(2.19868e-15 3.50099 8.94985)
(2.33067e-15 2.42835 9.24791)
(5.81782e-15 1.04753 7.24921)
(1.15429e-14 4.20598 -1.54978)
(1.79058e-14 -0.686539 -1.68876)
(2.29338e-14 -0.362559 -2.848)
(3.88125e-14 -0.271828 -4.01922)
(3.58395e-14 0.131962 -3.9255)
(3.86798e-14 0.539373 -4.25263)
(1.1859e-14 0.998641 0.518703)
(-2.16572e-15 -0.648176 5.52449)
(-1.47112e-15 -1.15295 5.38822)
(-1.95806e-15 -1.92279 5.9655)
(-3.19284e-15 -2.91302 10.24)
(-2.75498e-15 -4.48719 10.1575)
(-2.71051e-15 -5.76478 10.1757)
(-2.22491e-15 -6.85131 10.0934)
(-7.70458e-16 -10.0981 13.5098)
(2.04075e-15 -8.49402 11.2747)
(1.68123e-15 -8.83004 11.4424)
(2.61107e-15 -8.8479 11.3222)
(3.06053e-15 -8.98454 11.2825)
(3.38593e-15 -9.02322 11.184)
(3.47233e-15 -9.07168 11.1533)
(3.46069e-15 -9.08146 11.2331)
(3.37636e-15 -9.08642 11.4471)
(3.21142e-15 -9.07992 11.7608)
(2.97799e-15 -9.06949 12.1144)
(2.74585e-15 -9.02414 12.4411)
(2.51533e-15 -8.94838 12.6751)
(2.30307e-15 -8.93641 12.7003)
(2.15415e-15 -4.3006 6.9661)
(2.105e-15 -4.99349 11.3588)
(1.91513e-15 -4.63962 10.8605)
(2.04786e-15 -4.43675 9.87109)
(2.17598e-15 -4.36168 7.36602)
(2.40379e-15 -4.45229 2.48965)
(2.56999e-15 -4.40606 -2.59479)
(2.44023e-15 -3.97588 -3.89445)
(2.52766e-15 -3.79839 -3.61714)
(3.97952e-15 -3.35335 -4.88427)
(4.91092e-15 -2.58354 -2.72918)
(5.09468e-15 -1.99977 -3.19562)
(6.3299e-15 -1.61003 -4.11897)
(4.11207e-15 -1.09291 -2.51665)
(3.19599e-15 -0.576704 -2.83228)
(2.25032e-15 -0.153993 -3.75295)
(-1.83235e-15 0.308168 -2.67826)
(-1.0405e-14 0.773591 -2.26209)
(-6.63849e-15 1.31116 -3.23813)
(1.27626e-15 1.56588 -2.47706)
(5.37308e-15 2.06403 -2.54804)
(8.92149e-15 2.28391 -2.33487)
(1.01671e-14 3.26794 -3.51584)
(1.05067e-14 3.24983 -2.56281)
(1.29051e-14 3.85607 -2.21414)
(1.54688e-14 4.01305 -3.14692)
(1.05609e-14 4.99299 -3.24123)
(-1.07505e-15 1.03026 -1.57784)
(-1.09931e-15 0.89894 -1.63738)
(-1.37142e-15 0.609217 -1.07189)
(-2.43616e-15 -1.31914 -0.727421)
(-2.70258e-15 -1.47622 -0.575866)
(-1.64295e-15 1.73507 0.589413)
(5.50203e-16 2.75104 2.87078)
(7.22355e-16 3.47065 4.85148)
(2.17568e-16 4.36518 6.72442)
(4.2348e-16 5.69555 8.11959)
(7.76898e-16 7.07774 8.66059)
(4.99148e-16 6.69702 7.65998)
(-9.00981e-16 1.52483 3.42682)
(-2.70392e-15 -5.896 -0.665038)
(-3.62597e-15 -9.05072 -1.54131)
(-2.36621e-15 -9.79293 -2.96035)
(-6.82538e-16 -8.18978 -4.00046)
(3.12714e-16 -5.16064 -4.27987)
(-1.51878e-15 -0.455743 -4.81325)
(-1.60611e-15 1.04297 -2.2464)
(-1.599e-15 0.756791 -2.24288)
(-1.58521e-15 0.279488 -1.44989)
(-2.37018e-15 -1.38781 -0.598078)
(-2.68964e-15 -1.68869 -0.491792)
(-1.09039e-15 0.638978 1.5558)
(5.63397e-16 1.35372 4.4895)
(3.98964e-16 2.25782 6.23416)
(3.85699e-16 3.39826 7.22489)
(8.69308e-16 5.14619 7.70851)
(1.14272e-15 7.21961 8.02462)
(1.01732e-15 8.22152 7.76451)
(-1.67291e-16 4.51792 4.77967)
(-2.80881e-15 -4.87778 -1.16353)
(-3.63924e-15 -8.51795 -1.29515)
(-2.46419e-15 -9.17625 -2.64315)
(-8.27223e-16 -7.82912 -3.74729)
(3.7178e-16 -4.93937 -4.14202)
(-2.56428e-15 -0.759752 -4.22771)
(-1.76878e-15 1.00365 -2.65725)
(-1.71685e-15 0.609238 -2.54279)
(-1.68675e-15 -0.10269 -1.74389)
(-2.3158e-15 -1.68425 -0.602461)
(-2.67244e-15 -2.15847 -0.333694)
(-1.1478e-15 -0.353687 1.76971)
(6.02006e-16 0.759901 4.8748)
(2.34292e-16 2.15501 5.85809)
(-1.66546e-16 3.54686 5.83039)
(-2.49686e-16 5.23668 5.45293)
(-2.22277e-16 7.06132 5.32753)
(6.40454e-17 8.29145 5.6375)
(-1.96138e-16 5.94194 4.82742)
(-2.73432e-15 -3.50668 -0.614231)
(-3.62981e-15 -8.14973 -0.970661)
(-2.59762e-15 -8.6532 -2.15386)
(-1.00957e-15 -7.50294 -3.32982)
(3.32352e-16 -4.83928 -3.86848)
(-4.99e-16 -0.846569 -3.72117)
(-1.59059e-15 0.951893 -3.04843)
(-1.53049e-15 0.438404 -2.85622)
(-1.70805e-15 -0.528517 -2.0334)
(-2.3042e-15 -2.03139 -0.727851)
(-2.6654e-15 -2.59195 -0.197147)
(-1.35971e-15 -1.44013 1.54785)
(3.47083e-16 -0.0858898 4.61925)
(-5.36033e-16 1.94809 5.32751)
(-1.45721e-15 3.6571 4.76662)
(-1.82636e-15 5.41867 3.89767)
(-1.82048e-15 7.06928 3.25857)
(-1.26615e-15 8.3233 3.40906)
(-6.67006e-16 6.87831 3.94439)
(-2.25417e-15 -2.6901 1.1179)
(-3.59628e-15 -7.73952 -0.812803)
(-2.74172e-15 -8.22796 -1.53556)
(-1.17428e-15 -7.16875 -2.71611)
(2.23566e-16 -4.74478 -3.41518)
(-1.1171e-16 -1.07135 -3.47747)
(-9.21684e-16 0.877117 -3.2759)
(-9.10752e-16 0.241597 -3.05203)
(-1.54981e-15 -0.970254 -2.23661)
(-2.33178e-15 -2.4463 -0.902934)
(-2.67622e-15 -3.0197 -0.0942392)
(-1.44232e-15 -2.35114 1.39624)
(1.11585e-16 -0.818667 4.20822)
(-1.47649e-15 2.03139 4.92879)
(-2.63474e-15 4.03669 4.26828)
(-2.83908e-15 5.83547 3.34629)
(-2.65434e-15 7.22401 2.59098)
(-2.04414e-15 8.15367 2.4973)
(-1.08175e-15 6.93284 3.29178)
(-1.98949e-15 -1.93734 2.58505)
(-3.55966e-15 -7.05568 -0.688486)
(-2.77154e-15 -7.8885 -0.625844)
(-1.25933e-15 -6.8012 -1.88295)
(1.31679e-16 -4.48484 -2.78078)
(-1.07843e-15 -0.734252 -3.50079)
(9.15754e-17 0.806789 -3.28503)
(1.26019e-17 0.0612539 -3.07552)
(-1.1803e-15 -1.39318 -2.2655)
(-2.33313e-15 -2.9058 -1.00662)
(-2.69985e-15 -3.47734 -0.0133477)
(-1.41658e-15 -3.14791 1.37305)
(2.72643e-17 -1.55862 3.90047)
(-2.1075e-15 1.99029 4.77903)
(-3.14207e-15 4.28654 4.17806)
(-2.96899e-15 6.14599 3.34593)
(-2.61126e-15 7.37087 2.84584)
(-1.98643e-15 8.12598 2.93385)
(-9.42137e-16 6.79481 3.66434)
(-1.98726e-15 -1.32708 3.58833)
(-3.36712e-15 -6.43688 0.292563)
(-2.63916e-15 -7.67452 0.570686)
(-1.27679e-15 -6.34098 -0.833568)
(5.18567e-17 -4.12051 -1.81829)
(-1.5955e-15 -0.619376 -4.19823)
(9.96689e-16 0.725753 -3.14412)
(8.51751e-16 -0.138214 -2.95491)
(-7.06349e-16 -1.80297 -2.0937)
(-2.25317e-15 -3.36181 -0.942006)
(-2.70752e-15 -3.95634 0.0793726)
(-1.33235e-15 -3.874 1.45071)
(1.05808e-16 -2.27305 3.73755)
(-2.25601e-15 1.96995 4.69223)
(-3.05659e-15 4.5471 4.03074)
(-2.68634e-15 6.39127 3.22732)
(-2.35288e-15 7.35377 3.12878)
(-1.70284e-15 7.95497 3.65536)
(-4.19103e-16 6.52792 4.71401)
(-1.73279e-15 -0.711142 5.03831)
(-3.01089e-15 -5.85813 2.39063)
(-2.49158e-15 -7.34911 1.78495)
(-1.23795e-15 -5.91927 0.610525)
(1.03585e-17 -3.1425 -0.803215)
(9.0737e-16 1.27167 -2.8587)
(1.40299e-15 0.645937 -2.97392)
(1.30872e-15 -0.367263 -2.78173)
(-3.19268e-16 -2.20445 -1.75701)
(-2.12231e-15 -3.78204 -0.691227)
(-2.66989e-15 -4.42986 0.235483)
(-1.18237e-15 -4.55341 1.60994)
(3.11255e-16 -2.94993 3.68072)
(-2.11312e-15 1.96406 4.52024)
(-2.78752e-15 4.81887 3.68084)
(-2.43525e-15 6.53522 2.96253)
(-2.22362e-15 7.16099 3.36285)
(-1.57988e-15 7.59386 4.2449)
(1.72696e-16 6.07793 5.85337)
(-1.27744e-15 -0.295991 6.6507)
(-2.80217e-15 -5.2546 4.63771)
(-2.35639e-15 -6.87993 3.18438)
(-9.7158e-16 -5.39939 2.22101)
(-1.12145e-16 -2.73095 0.794936)
(-7.45774e-16 -4.97787 6.63604)
(1.37953e-15 0.578228 -2.81591)
(1.33922e-15 -0.59909 -2.51409)
(-2.10422e-16 -2.61973 -1.17994)
(-2.01233e-15 -4.15954 -0.248811)
(-2.54562e-15 -4.88214 0.549223)
(-9.76552e-16 -5.18807 1.87771)
(4.65727e-16 -3.5399 3.70632)
(-1.89266e-15 2.0397 4.24026)
(-2.56678e-15 5.11674 3.18097)
(-2.29612e-15 6.53976 2.74643)
(-2.17071e-15 6.8103 3.65452)
(-1.6169e-15 7.05761 4.70852)
(7.26096e-16 5.45624 6.90418)
(-4.67213e-16 -0.0377376 7.9936)
(-2.80167e-15 -4.61504 6.16878)
(-2.0873e-15 -6.26175 4.5408)
(-9.98757e-16 -5.10445 4.24811)
(-1.59013e-15 -4.18456 6.59262)
(-3.18383e-15 -4.9262 11.1574)
(1.1897e-15 0.446567 -2.56675)
(9.42253e-16 -0.931461 -1.74495)
(-4.67381e-16 -3.11441 -0.166733)
(-1.93342e-15 -4.46718 0.462978)
(-2.29118e-15 -5.29565 1.12688)
(-5.44062e-16 -5.74986 2.29329)
(1.26926e-15 -3.98083 3.78966)
(-1.74926e-15 2.22668 3.84411)
(-2.41202e-15 5.38765 2.60077)
(-2.18161e-15 6.36053 2.7313)
(-2.08052e-15 6.3481 3.93557)
(-1.56684e-15 6.37809 5.06356)
(1.12581e-15 4.66786 7.86892)
(1.52204e-15 0.194104 9.38842)
(-3.03858e-16 -3.94177 7.7574)
(-2.04541e-15 -6.01787 6.61528)
(-1.66993e-15 -6.20644 7.57361)
(-2.73801e-15 -6.03452 9.89299)
(-5.10865e-16 -4.74571 8.50477)
(9.11706e-16 0.0137075 -1.89075)
(1.81712e-16 -1.59972 0.201978)
(-8.57353e-16 -3.49562 1.2015)
(-1.82134e-15 -4.66829 1.48229)
(-1.83094e-15 -5.63562 1.96803)
(-7.60861e-17 -6.1906 2.85407)
(8.82247e-16 -4.21496 3.90091)
(-1.5573e-15 2.5187 3.32574)
(-2.31655e-15 5.56635 2.01338)
(-2.06127e-15 6.00917 2.93749)
(-1.96938e-15 5.84876 4.03869)
(-1.09607e-15 5.55477 5.25824)
(1.05599e-15 3.61809 8.65753)
(1.3811e-15 0.0273207 10.9153)
(-2.39435e-16 -3.65138 10.1371)
(-1.75541e-15 -6.09697 9.43077)
(-2.05491e-15 -6.39604 9.96629)
(-1.26774e-15 -4.21306 9.35247)
(8.67105e-15 -0.992998 3.96264)
(9.33135e-16 -0.647119 0.296924)
(-9.54642e-17 -2.14239 2.33695)
(-9.1106e-16 -3.61712 2.56446)
(-1.48331e-15 -4.76728 2.64732)
(-1.1281e-15 -5.87006 2.9459)
(5.24184e-16 -6.47008 3.50908)
(9.90426e-16 -4.18601 4.00376)
(-1.51486e-15 2.92573 2.69262)
(-2.25124e-15 5.58433 1.58374)
(-1.9525e-15 5.54518 3.21625)
(-2.02026e-15 5.38744 3.89204)
(-1.32132e-15 4.59666 5.2112)
(1.02592e-15 2.3495 9.02874)
(1.83768e-15 -0.380276 11.8026)
(5.33679e-16 -3.44553 11.9434)
(-4.3112e-16 -5.8593 11.5676)
(4.79e-17 -6.36532 11.3738)
(2.64218e-15 -4.55263 10.5947)
(5.4118e-15 -1.18288 9.87084)
(1.48098e-15 -1.05164 2.59076)
(4.62333e-16 -2.4115 3.76602)
(-3.20983e-16 -3.62613 3.73506)
(-7.0022e-16 -4.81526 3.75908)
(-1.96323e-16 -6.00876 3.91977)
(1.13577e-15 -6.57704 4.19743)
(1.14125e-15 -3.86053 4.05216)
(-1.5998e-15 3.39485 1.95057)
(-2.14226e-15 5.42613 1.55615)
(-1.89098e-15 5.07472 3.31633)
(-2.01416e-15 5.00992 3.56206)
(-1.49449e-15 3.55635 4.8485)
(6.45473e-16 0.944768 8.80132)
(1.83967e-15 -1.09204 11.7261)
(1.35391e-15 -3.62599 12.5981)
(1.00499e-15 -5.86052 13.0275)
(1.77102e-15 -6.12202 13.728)
(2.75112e-15 -2.58085 14.9406)
(1.58061e-15 4.57065 14.9943)
(1.93077e-15 -1.27998 3.99488)
(1.30946e-15 -2.54898 4.75662)
(6.93176e-16 -3.61084 4.72024)
(4.05451e-16 -4.82722 4.7478)
(8.06202e-16 -6.06566 4.84354)
(1.63961e-15 -6.5058 4.88884)
(1.06614e-15 -3.21878 3.98164)
(-1.85619e-15 3.81154 1.10276)
(-1.95732e-15 5.12493 1.96932)
(-1.87907e-15 4.72351 3.08821)
(-2.00738e-15 4.7244 3.16228)
(-1.74241e-15 2.5671 4.11481)
(-1.55568e-16 -0.394547 7.68258)
(1.02516e-15 -1.87578 10.4634)
(1.3116e-15 -4.01408 11.7691)
(1.3839e-15 -6.17585 12.4516)
(1.5874e-15 -6.80964 12.384)
(6.92791e-16 -4.83924 9.89822)
(-1.52738e-15 -1.17642 4.12886)
(2.09376e-15 -1.44428 5.04609)
(1.86754e-15 -2.67261 5.60531)
(1.56373e-15 -3.63661 5.6225)
(1.41432e-15 -4.86477 5.67866)
(1.66075e-15 -6.08861 5.75821)
(1.98422e-15 -6.24709 5.55826)
(7.87879e-16 -2.25563 3.69906)
(-2.14021e-15 4.06133 0.390054)
(-1.78771e-15 4.7312 2.45598)
(-1.88924e-15 4.56571 2.61779)
(-1.98682e-15 4.53315 2.75098)
(-1.96363e-15 1.84966 3.08753)
(-1.27638e-15 -1.59532 5.57867)
(-2.59014e-16 -2.73937 8.22677)
(5.94766e-16 -4.4514 9.64402)
(9.75701e-16 -6.11267 10.0121)
(6.32139e-16 -5.53514 8.8519)
(-8.62703e-16 -1.07683 4.58171)
(-1.41553e-15 3.11706 -0.72594)
(2.13439e-15 -1.5771 5.96377)
(2.08162e-15 -2.74207 6.36718)
(2.03488e-15 -3.62857 6.5008)
(2.07631e-15 -4.85542 6.64599)
(2.2531e-15 -6.0107 6.7299)
(2.11036e-15 -5.7254 6.13044)
(2.37057e-16 -1.0099 3.06977)
(-2.15728e-15 4.14007 0.350878)
(-1.71737e-15 4.3447 2.58505)
(-1.89196e-15 4.57106 2.1379)
(-1.9726e-15 4.43909 2.31585)
(-2.02435e-15 1.61535 2.08968)
(-2.04988e-15 -2.46253 3.07092)
(-1.59181e-15 -3.50175 5.38836)
(-5.67129e-16 -4.73389 6.79627)
(2.84633e-16 -5.7529 6.75527)
(-2.37344e-17 -4.34979 5.15845)
(-1.66303e-15 0.2734 1.2593)
(-1.29978e-15 3.18427 -1.70374)
(2.2058e-15 -1.65462 7.04837)
(2.21899e-15 -2.88691 7.23334)
(2.28707e-15 -3.788 7.46957)
(2.45995e-15 -4.99418 7.72023)
(2.55321e-15 -5.91127 7.69636)
(1.8641e-15 -4.87137 6.3175)
(-7.98051e-16 0.40868 1.84671)
(-1.90051e-15 4.05196 1.08326)
(-1.72497e-15 4.11963 2.31864)
(-1.87822e-15 4.64745 1.79899)
(-1.96807e-15 4.4362 1.84517)
(-2.00794e-15 1.84273 1.34588)
(-2.18887e-15 -3.07916 0.963553)
(-2.39516e-15 -4.22197 2.40595)
(-1.86438e-15 -5.00812 3.73531)
(-7.26064e-16 -5.36519 3.56472)
(-3.97003e-16 -3.34184 2.16302)
(-2.15864e-15 1.03901 -1.37929)
(-1.69922e-15 4.04936 -3.17336)
(2.24357e-15 -1.69029 8.38302)
(2.36283e-15 -2.86277 8.34842)
(2.46174e-15 -3.76086 8.64076)
(2.62144e-15 -4.86902 8.94186)
(2.44238e-15 -5.37349 8.50329)
(1.06177e-15 -3.49662 5.83214)
(-1.92953e-15 1.33617 0.661951)
(-1.68383e-15 3.77253 1.82596)
(-1.74073e-15 4.11552 1.95113)
(-1.86158e-15 4.72309 1.56861)
(-1.96412e-15 4.4868 1.38636)
(-2.00776e-15 2.28026 0.74985)
(-2.04335e-15 -2.97734 -0.368998)
(-2.39558e-15 -4.58069 -0.214068)
(-2.59386e-15 -5.18048 0.516976)
(-1.96759e-15 -5.00722 0.189422)
(-1.44835e-15 -2.31172 -1.08664)
(-2.08746e-15 1.81007 -4.14796)
(-1.60332e-15 3.80954 -4.26127)
(2.27449e-15 -1.65144 10.4913)
(2.49546e-15 -3.02957 10.4229)
(2.55587e-15 -4.14153 10.4664)
(2.4905e-15 -5.10676 10.2165)
(1.77756e-15 -4.81867 8.51337)
(-1.3818e-16 -1.8983 4.37667)
(-2.05639e-15 1.92583 0.887441)
(-1.64844e-15 3.5167 2.01311)
(-1.73535e-15 4.24799 1.72501)
(-1.85064e-15 4.8332 1.37367)
(-1.95886e-15 4.60473 1.01426)
(-2.00872e-15 2.70988 0.338463)
(-1.96968e-15 -2.83908 -1.00386)
(-2.06099e-15 -4.59756 -1.79409)
(-2.4058e-15 -5.21998 -2.13792)
(-2.44642e-15 -4.75185 -2.95652)
(-2.29397e-15 -1.82239 -4.33801)
(-1.87981e-15 2.07544 -5.4604)
(-1.15441e-15 3.39062 -4.55886)
(1.74377e-15 -1.6836 11.9558)
(1.97101e-15 -2.80528 11.9555)
(1.82321e-15 -3.50929 11.2266)
(1.3698e-15 -3.7797 9.80281)
(2.58765e-16 -2.66546 6.82465)
(-1.38327e-15 -0.0465175 2.7302)
(-1.83412e-15 2.1769 1.67098)
(-1.66785e-15 3.47388 1.9139)
(-1.72499e-15 4.43574 1.63508)
(-1.84419e-15 5.07972 1.22738)
(-1.9553e-15 4.94796 0.775903)
(-2.00862e-15 3.44406 0.216652)
(-1.95937e-15 -2.23406 -0.902423)
(-1.84766e-15 -3.95068 -2.10956)
(-1.86074e-15 -4.58877 -3.02687)
(-1.91729e-15 -3.99882 -4.10846)
(-1.85069e-15 -1.2859 -5.17705)
(-1.37921e-15 1.91336 -5.15728)
(-9.08812e-16 2.70792 -4.55432)
(9.22209e-17 5.56487 10.7993)
(9.30075e-16 13.5079 25.7771)
(4.12483e-16 18.0658 32.5547)
(3.35025e-16 17.9061 31.4543)
(3.05037e-16 16.6577 28.2432)
(1.50939e-17 15.4064 25.2155)
(-2.77781e-16 14.2843 22.7049)
(-4.98112e-16 13.396 20.6395)
(-7.1718e-16 12.6201 18.8419)
(-1.03204e-15 11.8652 17.1785)
(-1.36826e-15 11.0934 15.5761)
(-1.79246e-15 10.2904 14.0135)
(-2.31832e-15 9.45014 12.4944)
(-2.91702e-15 8.57899 11.0189)
(-3.55642e-15 7.65903 9.58756)
(-4.28565e-15 6.70034 8.17629)
(-5.13497e-15 5.63111 6.76946)
(-6.28946e-15 4.52352 5.2798)
(-7.35374e-15 3.0137 3.62769)
(-1.06146e-14 1.29726 0.742675)
(9.14065e-16 -3.74113 -7.96448)
(2.67396e-15 11.0312 19.491)
(1.25713e-15 17.759 31.2597)
(1.12406e-15 18.2799 32.1245)
(1.23178e-15 16.8653 29.3227)
(1.34432e-15 15.4607 26.5327)
(1.37019e-15 14.4241 24.3412)
(1.13111e-15 13.5421 22.3768)
(1.0158e-15 12.6743 20.4645)
(8.46351e-16 11.7642 18.5131)
(7.49587e-16 10.7943 16.5279)
(5.07371e-16 9.77653 14.5311)
(3.43946e-16 8.71279 12.5498)
(9.76172e-17 7.6162 10.5915)
(-1.92589e-16 6.45847 8.66627)
(-5.64768e-16 5.26761 6.72562)
(-1.05929e-15 3.89595 4.74806)
(-2.02642e-15 2.49939 2.46017)
(-2.15792e-15 0.0119335 -0.553268)
(-8.47029e-15 -1.04219 -4.19398)
(-2.1247e-16 1.24152 2.3123)
(1.21185e-15 12.2986 18.9371)
(7.74476e-16 19.4816 31.0372)
(6.12505e-16 20.6155 33.2605)
(5.91072e-16 19.1947 30.9283)
(1.07372e-15 17.6459 28.2108)
(8.42047e-16 16.417 26.0183)
(7.75543e-16 15.351 24.0471)
(7.77023e-16 14.2484 22.0467)
(8.18628e-16 13.0788 19.9448)
(8.32742e-16 11.8383 17.7641)
(8.44908e-16 10.5401 15.5223)
(1.03133e-15 9.17691 13.2386)
(1.08344e-15 7.75623 10.9176)
(1.20273e-15 6.24479 8.57416)
(1.5132e-15 4.66917 6.17356)
(2.01267e-15 2.91373 3.77614)
(1.13878e-15 1.30126 1.28036)
(-9.4183e-16 -1.43579 -1.62762)
(-8.89464e-15 -2.36421 -6.33531)
(2.12496e-17 7.84789 13.41)
(-1.39632e-16 17.5324 26.8725)
(-1.2496e-16 20.5409 31.6001)
(-9.76332e-17 19.8583 31.0298)
(-1.47341e-16 18.1657 28.9342)
(8.46146e-16 16.8014 27.0167)
(7.29017e-16 15.5325 25.2832)
(8.99754e-16 14.2092 23.3508)
(9.81704e-16 12.7117 21.2248)
(1.09701e-15 11.1402 18.9514)
(1.42408e-15 9.4824 16.5816)
(1.44145e-15 7.74874 14.0838)
(2.26355e-15 5.94531 11.4621)
(2.80862e-15 4.11592 8.73413)
(3.75279e-15 2.23534 5.89922)
(5.57297e-15 0.318298 2.91152)
(1.01374e-14 -1.45899 0.0287145)
(1.05675e-14 -2.84623 -2.24509)
(2.2124e-15 -4.14903 -4.40931)
(-3.08963e-15 -2.89339 -4.96085)
(-1.13732e-18 12.5986 21.9438)
(1.28651e-17 19.8809 32.5838)
(1.01066e-17 18.1873 30.3598)
(8.44819e-18 15.8504 26.9487)
(1.72775e-17 14.3653 25.3665)
(-1.76075e-16 13.3686 24.1403)
(-1.77308e-16 11.9885 22.5222)
(-1.72545e-16 10.4362 20.4308)
(-1.73449e-16 8.72612 18.2092)
(-1.82409e-16 7.02132 15.9252)
(-1.96012e-16 5.26503 13.6069)
(-1.78764e-16 3.48345 11.2156)
(-2.33949e-17 1.68167 8.77548)
(2.48072e-16 -0.0492207 6.36203)
(5.60724e-17 -1.58655 4.10581)
(-1.35962e-15 -2.72295 2.1764)
(-3.73924e-15 -3.09146 0.956523)
(-5.07976e-15 -2.12044 1.23936)
(-3.95596e-15 0.306572 3.48585)
(-1.00044e-15 2.02641 5.25098)
(-2.90193e-19 12.9643 22.8219)
(2.91303e-19 17.2429 30.0527)
(1.72605e-18 14.4588 26.0677)
(2.28346e-18 13.0219 23.7148)
(5.62406e-18 11.9009 22.5285)
(1.86408e-17 10.8229 21.0703)
(1.04968e-17 9.38035 19.3207)
(4.59309e-18 7.86882 17.2336)
(-3.69245e-18 6.24437 15.0328)
(-2.77469e-17 4.6253 12.7335)
(-6.92127e-17 2.9951 10.4174)
(-7.52809e-17 1.45391 8.17844)
(8.76447e-18 0.123655 6.21182)
(7.17276e-18 -0.738555 4.84608)
(-5.25791e-16 -0.761531 4.60344)
(-1.67087e-15 0.439643 6.06563)
(-2.55818e-15 2.97787 9.38588)
(-2.1557e-15 6.26847 13.5447)
(-7.13211e-16 8.76358 16.0072)
(2.75983e-16 6.51803 12.5289)
(6.49716e-20 11.0625 19.4823)
(-8.79691e-19 16.6456 29.2739)
(-1.29736e-18 15.0246 26.4329)
(-1.41366e-18 13.4441 23.1368)
(-8.82203e-19 12.0207 21.0011)
(1.76707e-18 11.0735 19.1631)
(5.10109e-18 9.98084 17.5257)
(8.00034e-18 8.9971 15.717)
(1.21655e-17 7.93581 13.864)
(1.59525e-17 6.94461 11.9341)
(1.54888e-17 6.02672 10.0619)
(9.88768e-18 5.34419 8.44727)
(6.14717e-18 4.95575 7.32949)
(1.95527e-17 4.98005 7.0033)
(6.66032e-17 5.62449 7.76757)
(1.80802e-16 6.74229 9.54243)
(3.98748e-16 8.20471 11.9574)
(6.43672e-16 9.22182 14.2597)
(6.54723e-16 9.44656 14.8562)
(2.2249e-16 6.60026 11.6382)
(-4.62716e-22 10.175 17.8084)
(3.48991e-19 17.6263 30.3707)
(4.43927e-19 16.1923 28.1449)
(4.97913e-19 14.4233 24.2574)
(2.13202e-19 12.916 21.9193)
(-1.36446e-18 12.1491 20.061)
(-2.39775e-18 11.3186 18.5977)
(-3.00628e-18 10.6626 17.1317)
(-3.91198e-18 9.99802 15.7361)
(-4.89237e-18 9.40309 14.3587)
(-5.25922e-18 8.84948 12.9922)
(-4.84675e-18 8.32165 11.6081)
(-4.89443e-18 7.82 10.2247)
(-6.77254e-18 7.35621 8.96076)
(-1.03788e-17 7.02338 8.06586)
(-1.68907e-17 6.87752 7.82444)
(-3.24149e-17 6.92978 8.28152)
(-6.63925e-17 6.92473 9.06253)
(-1.19906e-16 6.36855 9.21484)
(-1.27328e-16 4.11249 6.2949)
(-1.826e-21 10.4284 18.0704)
(-1.08467e-19 18.393 30.9893)
(-1.31082e-19 16.8809 29.0968)
(-1.50378e-19 15.1623 25.1754)
(-6.9682e-20 13.6637 22.9383)
(4.35305e-19 12.9376 21.1094)
(7.65284e-19 12.1047 19.6157)
(9.08198e-19 11.3922 18.0953)
(1.06049e-18 10.6585 16.6411)
(1.23395e-18 9.95898 15.2395)
(1.37646e-18 9.28742 13.9015)
(1.49879e-18 8.63978 12.6213)
(1.68839e-18 8.00672 11.3754)
(1.91892e-18 7.37817 10.1419)
(1.88561e-18 6.7342 8.92521)
(1.41106e-18 6.09601 7.77736)
(8.1641e-19 5.41326 6.80941)
(7.09361e-19 4.73386 5.93511)
(3.06553e-18 3.53502 4.85786)
(1.49556e-17 1.45505 1.17404)
(5.00231e-22 11.5946 20.146)
(2.99226e-20 19.3306 31.8818)
(3.66967e-20 17.2691 29.6416)
(4.27009e-20 15.768 25.8016)
(2.47429e-20 14.2535 23.8036)
(-1.09538e-19 13.6141 21.9797)
(-2.1055e-19 12.7238 20.4924)
(-2.5119e-19 12.0033 18.9118)
(-2.75842e-19 11.2268 17.3979)
(-2.99255e-19 10.4752 15.8831)
(-3.21487e-19 9.71141 14.384)
(-3.47438e-19 8.9278 12.8949)
(-3.65456e-19 8.11484 11.4211)
(-3.20064e-19 7.27571 9.96248)
(-1.2624e-19 6.38494 8.51753)
(2.41044e-19 5.45917 7.04023)
(7.42507e-19 4.37972 5.51742)
(1.62916e-18 3.23986 3.75302)
(3.79145e-18 1.35339 1.54893)
(8.3509e-18 -0.207028 -2.15606)
(-1.00251e-23 13.5984 24.0249)
(-7.6366e-21 20.2868 32.7932)
(-9.88291e-21 17.2518 29.8956)
(-1.15023e-20 16.382 26.4653)
(-8.16866e-21 14.8267 24.8821)
(2.33781e-20 14.3996 23.0421)
(5.0611e-20 13.4375 21.63)
(6.15291e-20 12.8306 20.0485)
(6.5099e-20 12.0776 18.5744)
(6.77345e-20 11.362 16.9983)
(7.04385e-20 10.5445 15.3408)
(7.08673e-20 9.63393 13.5683)
(5.9594e-20 8.61433 11.7115)
(2.10259e-20 7.50596 9.79461)
(-5.36071e-20 6.29245 7.84895)
(-1.49071e-19 5.00986 5.84339)
(-2.45147e-19 3.52469 3.77957)
(-3.08787e-19 1.98156 1.37116)
(-1.16944e-18 -0.461628 -1.31924)
(5.84383e-18 -1.69226 -5.11852)
(-3.1464e-23 15.6577 28.533)
(1.8714e-21 20.4258 32.7096)
(2.56875e-21 16.6412 29.8581)
(2.95187e-21 16.7127 27.1272)
(1.96173e-21 14.9188 25.9994)
(-5.94098e-21 14.7954 24.1473)
(-1.33345e-20 13.6649 22.9709)
(-1.55257e-20 13.2746 21.4816)
(-1.31255e-20 12.4694 20.1541)
(-8.33334e-21 11.7536 18.4862)
(-2.79044e-21 10.7289 16.5882)
(3.82808e-21 9.55851 14.409)
(1.41734e-20 8.2001 12.0735)
(3.0496e-20 6.72724 9.62641)
(5.16855e-20 5.13381 7.12825)
(7.03163e-20 3.44841 4.52686)
(7.26322e-20 1.57522 1.90911)
(5.07223e-20 -0.199457 -1.1533)
(-9.58498e-19 -2.7546 -3.80612)
(2.61315e-18 -3.07691 -7.68644)
(1.03061e-23 16.5828 31.1571)
(-4.52486e-22 19.1841 30.8664)
(-5.84777e-22 15.5869 29.2724)
(-6.99557e-22 16.1585 26.9759)
(-8.39786e-22 14.0176 26.0576)
(5.25975e-23 13.981 24.2331)
(9.67082e-22 12.5994 23.3005)
(3.03416e-21 12.241 21.9203)
(7.79993e-21 11.1451 20.6799)
(1.43238e-20 10.1806 18.7885)
(2.0708e-20 8.68714 16.5312)
(2.69687e-20 7.1237 13.8761)
(3.30689e-20 5.35265 11.0517)
(3.75917e-20 3.54543 8.10463)
(4.29195e-20 1.72201 5.165)
(5.4832e-20 -0.152041 2.19226)
(4.59863e-20 -1.64471 -0.279899)
(-2.21915e-19 -2.91929 -2.63665)
(-9.04984e-19 -4.97154 -5.72623)
(-5.84747e-19 -3.39062 -5.88572)
(-1.88415e-24 16.0006 30.5725)
(1.15679e-22 17.8276 28.7786)
(1.75923e-22 14.6449 28.001)
(1.44744e-22 15.0873 25.5779)
(-3.49097e-22 12.8569 24.6317)
(-1.58326e-21 12.6187 22.7936)
(-2.23326e-21 11.1522 21.7907)
(-5.28858e-22 10.5074 20.4037)
(3.97359e-21 9.24687 19.078)
(9.62806e-21 8.02429 17.198)
(1.55681e-20 6.44636 15.0006)
(2.40458e-20 4.84316 12.5018)
(3.64816e-20 3.10675 9.78574)
(4.95584e-20 1.36597 6.94673)
(4.66865e-20 -0.240403 4.32639)
(-3.3447e-20 -1.67369 1.91085)
(-2.75598e-19 -2.78299 -0.251907)
(-6.32122e-19 -2.59245 -0.804475)
(-8.56988e-19 -0.498535 1.52116)
(-4.9106e-19 1.69865 4.73547)
(-1.69094e-25 15.1485 29.3761)
(-1.85998e-23 17.7734 27.9242)
(-1.03278e-23 14.0191 26.9862)
(-2.12188e-23 14.891 24.1723)
(-1.57249e-22 12.3595 23.2736)
(-5.42827e-22 12.2969 21.1085)
(-1.09623e-21 10.6763 19.9059)
(-1.16926e-21 10.017 18.2541)
(-2.00882e-22 8.81039 16.8735)
(1.45367e-21 7.81598 15.2399)
(3.56609e-21 6.66248 13.5422)
(7.88473e-21 5.56589 11.6833)
(1.62181e-20 4.39309 9.6046)
(2.36293e-20 3.16839 7.229)
(1.51855e-20 2.09643 4.95615)
(-1.68946e-20 1.75654 3.87309)
(-4.37285e-20 2.66558 4.93956)
(-1.25208e-20 4.39293 7.34096)
(9.03099e-20 5.85892 9.05302)
(1.93631e-19 4.56544 8.4948)
(6.98988e-26 15.0487 29.7759)
(6.69139e-24 18.4504 28.0928)
(1.38102e-23 14.1975 27.2711)
(2.06605e-24 15.5642 24.262)
(-8.65674e-23 12.9972 23.3998)
(-3.18822e-22 13.1146 21.1732)
(-7.36338e-22 11.6697 19.844)
(-1.37197e-21 11.1062 18.106)
(-2.10994e-21 10.161 16.6567)
(-2.64724e-21 9.45379 15.1963)
(-2.88721e-21 8.72849 13.8502)
(-3.24788e-21 8.08035 12.5303)
(-4.08021e-21 7.45788 11.2204)
(-4.54445e-21 6.85377 9.84493)
(-2.50241e-21 6.2153 8.31337)
(3.47311e-21 5.50357 6.65975)
(1.2643e-20 4.68828 4.99233)
(2.0502e-20 3.93636 3.90325)
(2.88369e-20 3.02051 3.25435)
(4.85021e-20 1.66074 1.32675)
(1.42169e-26 15.1163 30.6966)
(2.14748e-24 18.7117 28.2147)
(7.15971e-24 14.2508 27.7717)
(-1.28498e-23 15.6892 24.9162)
(-1.17189e-22 13.329 24.0136)
(-3.44748e-22 13.3088 22.0327)
(-6.44016e-22 12.1524 20.7117)
(-8.96411e-22 11.6009 19.1585)
(-1.02397e-21 10.8666 17.7621)
(-1.05583e-21 10.2542 16.3585)
(-1.04318e-21 9.64815 15.0011)
(-9.99286e-22 9.06853 13.6533)
(-8.77853e-22 8.47381 12.2769)
(-4.92448e-22 7.81897 10.7876)
(5.06959e-22 6.98478 9.07006)
(2.15778e-21 5.89823 6.98759)
(4.20766e-21 4.417 4.62384)
(2.97381e-21 2.97051 2.52284)
(4.11553e-21 0.76984 0.339676)
(2.8986e-20 -0.555444 -2.86901)
(4.92537e-26 14.2822 30.8736)
(2.05216e-24 18.3488 27.8263)
(4.75273e-24 13.5716 27.755)
(-1.54577e-23 14.6296 25.3212)
(-1.05879e-22 12.5325 24.3776)
(-2.88085e-22 12.1556 22.74)
(-4.9456e-22 11.0807 21.5098)
(-5.99614e-22 10.4218 20.1602)
(-5.33727e-22 9.66998 18.921)
(-3.9786e-22 9.03909 17.6773)
(-3.77632e-22 8.4257 16.4681)
(-4.36154e-22 7.85754 15.25)
(5.99811e-23 7.26429 13.9461)
(2.45279e-21 6.5171 12.3254)
(8.19474e-21 5.34758 10)
(1.74132e-20 3.50253 6.47701)
(2.75886e-20 0.614623 1.68163)
(1.97204e-20 -2.04181 -4.39885)
(4.4807e-21 -3.58847 -5.00946)
(3.83192e-20 -2.82275 -6.94491)
(-7.13136e-26 11.295 28.689)
(2.52809e-25 17.1 25.2175)
(1.86148e-24 12.1012 25.6019)
(-2.09199e-24 12.7184 23.915)
(-3.08048e-23 10.9824 23.1824)
(-9.72102e-23 10.302 22.112)
(-1.79904e-22 9.30051 21.21)
(-2.32757e-22 8.51244 20.2716)
(-2.36992e-22 7.72898 19.3679)
(-2.48113e-22 7.02552 18.4684)
(-3.45972e-22 6.36968 17.5796)
(-4.46001e-22 5.75855 16.6761)
(-3.76771e-23 5.14386 15.6811)
(1.89085e-21 4.42837 14.4014)
(6.37219e-21 3.45605 12.5123)
(1.34463e-20 2.08811 9.68149)
(2.1467e-20 0.393087 5.84193)
(2.74758e-20 -1.31091 1.47861)
(2.82182e-20 -2.54092 -2.14044)
(2.26879e-20 -1.93994 -3.32325)
(-8.23037e-26 2.62821 17.0757)
(-2.4254e-25 8.04612 13.7297)
(6.69816e-25 5.17485 14.5853)
(4.622e-24 4.96869 14.2062)
(1.13469e-23 4.03666 14.1765)
(1.63157e-23 3.45784 14.014)
(1.45229e-23 2.86791 13.8676)
(7.96864e-24 2.38125 13.6889)
(5.94044e-24 1.95593 13.4926)
(9.5747e-24 1.60405 13.2745)
(-1.40116e-23 1.32256 13.0389)
(-1.48037e-22 1.1176 12.7944)
(-5.02901e-22 0.997714 12.5596)
(-1.12623e-21 0.985677 12.3481)
(-1.87314e-21 1.10719 12.1434)
(-2.3837e-21 1.32491 11.8995)
(-2.32439e-21 1.66346 11.4687)
(-1.72443e-21 2.41744 10.4826)
(-9.58196e-22 2.71907 8.96892)
(-3.31486e-22 -0.104356 6.7965)
(8.05509e-26 -2.62818 17.0757)
(2.35741e-25 -8.04611 13.7296)
(-6.61012e-25 -5.17485 14.5852)
(-4.53134e-24 -4.9687 14.2062)
(-1.11e-23 -4.03666 14.1765)
(-1.59246e-23 -3.45785 14.014)
(-1.41393e-23 -2.86792 13.8675)
(-7.79356e-24 -2.38126 13.6888)
(-6.0299e-24 -1.95594 13.4926)
(-9.69556e-24 -1.60406 13.2745)
(1.43237e-23 -1.32257 13.039)
(1.49074e-22 -1.11761 12.7945)
(5.03888e-22 -0.997765 12.5598)
(1.12424e-21 -0.985809 12.3486)
(1.86329e-21 -1.10743 12.144)
(2.36243e-21 -1.32525 11.9001)
(2.29443e-21 -1.66385 11.4691)
(1.6955e-21 -2.41786 10.483)
(9.39598e-22 -2.71943 8.96924)
(3.24793e-22 0.104281 6.79673)
(6.99534e-26 -11.2951 28.689)
(-2.42873e-25 -17.0999 25.2176)
(-1.81664e-24 -12.1011 25.602)
(2.03955e-24 -12.7183 23.9151)
(3.00748e-23 -10.9822 23.1826)
(9.48531e-23 -10.3018 22.1122)
(1.75325e-22 -9.30028 21.2103)
(2.26456e-22 -8.51216 20.2719)
(2.30556e-22 -7.72865 19.3682)
(2.43165e-22 -7.02515 18.4689)
(3.42748e-22 -6.36927 17.5801)
(4.42678e-22 -5.75808 16.6767)
(3.26861e-23 -5.1432 15.6815)
(-1.88999e-21 -4.4273 14.4012)
(-6.33407e-21 -3.45441 12.5111)
(-1.3309e-20 -2.08614 9.67931)
(-2.11674e-20 -0.391603 5.83977)
(-2.70261e-20 1.31111 1.47779)
(-2.77554e-20 2.53981 -2.13881)
(-2.22918e-20 1.93878 -3.32125)
(-4.79001e-26 -14.2825 30.8742)
(-2.02293e-24 -18.3489 27.8269)
(-4.66341e-24 -13.5718 27.7556)
(1.51086e-23 -14.6297 25.3219)
(1.03496e-22 -12.5326 24.3784)
(2.814e-22 -12.1557 22.7409)
(4.82505e-22 -11.0807 21.5107)
(5.83953e-22 -10.4218 20.1612)
(5.18888e-22 -9.66986 18.9221)
(3.88199e-22 -9.03894 17.6784)
(3.74249e-22 -8.42554 16.4694)
(4.3545e-22 -7.85739 15.2515)
(-6.30767e-23 -7.26401 13.9474)
(-2.45361e-21 -6.51628 12.3259)
(-8.16117e-21 -5.34563 9.99865)
(-1.72776e-20 -3.49855 6.47264)
(-2.72828e-20 -0.607355 1.67224)
(-1.95571e-20 2.04561 -4.40475)
(-5.01765e-21 3.59037 -5.00867)
(-3.77327e-20 2.82241 -6.9451)
(-1.6827e-26 -15.117 30.6975)