/*--------------------------------*- C++ -*----------------------------------*\
| =========                 |                                                 |
| \\      /  F ield         | OpenFOAM: The Open Source CFD Toolbox           |
|  \\    /   O peration     | Version:  4.1                                   |
|   \\  /    A nd           | Web:      www.OpenFOAM.org                      |
|    \\/     M anipulation  |                                                 |
\*---------------------------------------------------------------------------*/
FoamFile
{
    version     2.0;
    format      ascii;
    class       volScalarField;
    location    "20";
    object      p;
}
// * * * * * * * * * * * * * * * * * * * * * * * * * * * * * * * * * * * * * //

dimensions      [0 2 -2 0 0 0 0];

internalField   nonuniform List<scalar> 
1280
(
1.38603
0.326985
2.6163
3.38289
5.39556
6.10782
6.1372
6.5082
6.99866
7.12299
6.96333
6.72839
6.09237
4.98969
4.00998
2.06948
-0.709904
-3.74128
-6.46633
-17.9756
-13.1113
-5.09072
11.3517
29.5756
37.8322
43.102
47.8346
25.9091
28.9551
27.5543
25.6933
23.922
21.3775
18.3084
14.934
11.2505
7.39843
3.16727
-0.601134
-7.08804
3.52571
1.95703
5.15019
10.7954
21.2503
20.4736
20.5271
20.6254
20.0825
20.8082
20.7672
19.711
20.1005
20.7282
20.8173
20.0649
9.70693
6.08637
3.13429
-7.37291
-6.70478
1.0953
5.99165
11.4342
16.4387
21.2802
25.7734
29.9381
33.5707
36.2695
39.0464
42.0288
39.2377
42.4775
51.9075
48.181
41.4364
23.4771
6.67911
-2.29431
-8.95799
7.07936
2.82043
8.25188
14.0987
16.634
18.965
20.5497
20.4556
18.7794
17.8838
16.7952
13.223
9.82863
10.0932
9.78378
3.52223
-2.14748
-3.80043
3.21483
-0.0503507
-0.166447
-0.400425
-0.646119
-1.02565
-1.74832
-1.76567
-1.02296
-0.483721
0.392796
1.38318
2.21142
3.55903
6.11986
8.15672
7.00672
2.04003
-0.25735
0.0734735
-0.277491
-0.559568
-0.832971
-1.50647
-2.6926
-5.07385
-6.24395
-5.26393
-3.69921
-1.71634
1.09101
4.26222
9.61193
16.2244
20.7227
18.2339
6.14629
-0.174483
0.530084
-0.420402
-0.923848
-1.57579
-2.87695
-5.14959
-9.74529
-11.7918
-9.52181
-5.75491
-2.81724
0.978559
5.21507
12.2761
21.019
27.5507
25.913
9.92153
-1.91185
-1.19478
-0.480576
-1.17878
-2.18785
-4.17997
-7.60933
-14.6823
-17.2505
-13.799
-7.91408
-3.88097
0.989369
6.27622
14.9237
26.0142
34.9868
33.3866
13.9356
-6.60579
-6.12772
-0.46147
-1.25987
-2.7359
-5.526
-10.2011
-19.6755
-21.4514
-17.4345
-10.1405
-5.10975
0.833591
7.26843
17.5874
31.1477
42.5631
39.6554
15.6509
-16.8332
-19.6677
-0.383138
-1.11105
-3.11153
-6.70735
-12.5224
-23.1848
-23.8898
-19.6531
-11.947
-6.18213
0.581405
7.95496
19.5512
35.3669
50.3525
44.3737
16.0424
-27.2555
-32.4984
-0.248857
-0.846133
-3.3022
-7.63145
-14.3243
-24.7692
-24.6607
-20.8631
-13.314
-7.09774
0.23397
8.30312
20.636
37.4957
55.5688
47.3776
16.0497
-35.5114
-40.1077
-0.0955872
-0.547135
-3.32837
-8.22161
-15.4491
-24.5917
-24.5319
-21.4738
-14.3122
-7.91548
-0.243937
8.26236
20.8617
38.1979
52.9813
46.0731
23.6995
-8.34831
-17.561
0.087871
-0.157745
-3.20731
-8.47664
-15.8314
-23.4262
-23.9196
-21.4409
-14.9473
-8.62314
-0.847413
7.78485
19.991
34.8648
42.6067
38.4227
23.469
19.9334
23.7962
0.275923
0.239081
-3.01283
-8.47182
-15.5295
-21.7197
-22.6735
-20.7914
-15.2213
-9.1926
-1.5399
6.95459
18.3561
30.3222
35.6716
33.1103
23.5386
25.0445
19.8856
0.400746
0.491261
-2.8015
-8.22981
-14.7479
-19.7187
-21.0223
-19.7433
-15.1582
-9.58581
-2.25154
5.92244
16.4414
27.2258
35.4505
32.0032
24.4735
26.7183
17.1965
0.490694
0.778019
-2.52013
-7.78215
-13.6184
-17.6677
-19.239
-18.4672
-14.7849
-9.77873
-2.95138
4.69731
14.1729
22.4136
25.3078
18.0922
12.7002
18.4753
24.5833
0.507566
1.13589
-2.12651
-7.12818
-12.3289
-15.7717
-17.466
-17.0521
-14.1316
-9.73827
-3.56205
3.37471
11.3247
14.8682
12.0822
10.0495
10.5786
16.9053
6.57898
0.396037
1.57142
-1.63611
-6.27744
-10.8625
-13.9481
-15.6415
-15.4808
-13.2153
-9.48829
-4.12291
1.95946
8.21325
8.13496
8.99409
10.5458
10.2255
11.3524
7.29962
0.16507
2.23836
-0.929502
-5.37199
-9.50502
-12.2394
-13.8173
-13.8063
-12.0655
-8.96659
-4.38703
0.934617
5.63627
3.45872
12.8973
8.13501
10.1849
10.7095
8.60039
-0.0928432
3.26636
0.312862
-4.00306
-7.8462
-10.3748
-11.7932
-11.894
-10.6281
-8.24757
-4.6694
-0.382933
2.76307
-1.315
11.5408
7.05263
8.46651
8.79203
8.06457
0.0261856
3.95127
0.952519
-3.3073
-6.55811
-8.73716
-9.8561
-9.93746
-9.01222
-7.17921
-4.19425
-0.30399
1.86657
-2.41937
5.94594
6.26847
7.15461
7.76802
7.29913
0.631238
4.39415
3.18496
-0.798336
-4.42543
-6.52405
-7.48782
-7.59055
-7.00198
-5.90987
-4.21614
-2.06298
-0.976804
2.60415
2.20408
5.5937
5.59347
6.26728
6.09033
0.915189
3.99058
2.24819
-1.48193
-3.44305
-4.74816
-5.28485
-5.35235
-5.08969
-4.39528
-2.43857
1.10656
1.64088
5.35921
-0.0240085
4.32352
3.8406
4.49068
4.17988
0.535975
2.59212
3.29464
2.62948
0.405302
-1.36982
-2.05206
-2.26107
-2.13432
-1.93917
-2.34867
-4.87862
-8.33363
-0.14253
-2.34437
0.430872
-0.660837
0.243091
1.09665
-20.5751
-18.409
-16.1427
-14.452
-14.5065
-15.2904
-17.4862
-20.0298
-22.526
-24.7441
-26.6161
-27.9934
-28.8372
-29.1337
-28.9553
-28.229
-27.1942
-25.3874
-23.6768
-20.8389
-91.002
-91.3653
-87.922
-83.4676
-80.685
-78.8535
-77.8405
-77.5358
-77.8085
-78.4607
-79.1957
-79.7632
-79.9729
-79.6914
-78.9518
-77.7222
-76.2818
-74.3923
-72.7907
-69.815
-14.7888
-22.0769
-27.2902
-30.4838
-33.933
-37.4075
-40.7964
-44.2815
-47.8932
-51.7493
-55.7242
-59.6457
-63.2671
-66.3625
-68.7556
-70.2343
-70.7993
-71.34
-72.4215
-72.2171
29.6881
25.5041
21.7441
18.2983
14.7461
11.0127
7.59859
4.40395
1.57431
-1.04295
-3.37274
-5.45619
-7.20214
-8.55463
-9.48638
-9.99416
-9.88648
-9.11039
-9.5078
-13.2558
54.5225
53.7792
52.8608
52.7009
52.7521
52.5037
52.1689
51.3714
50.2252
48.3937
45.7705
42.0737
37.2748
31.6393
25.9521
21.1509
17.8906
16.5152
16.7189
14.2109
36.7109
38.1329
38.5687
39.3235
40.0164
40.6462
41.5209
42.2805
43.1409
43.9212
44.6311
45.0925
45.1746
44.6974
43.5634
41.9321
40.5474
39.5443
39.5967
38.9234
22.8764
25.1325
26.4448
27.6598
29.0311
29.8895
31.0073
31.7897
32.5685
33.1835
33.7194
34.2216
34.7812
35.5027
36.4918
37.7079
39.039
40.3248
41.2422
42.1211
-0.331775
2.12977
4.09382
5.42859
7.36656
8.5629
10.2034
11.5179
12.9105
14.2219
15.4926
16.7285
17.9294
19.1308
20.3503
21.6777
23.0285
24.5842
25.7843
27.3395
-20.1907
-18.0677
-15.9279
-14.9103
-12.6818
-11.5206
-9.60019
-8.12903
-6.45649
-4.88058
-3.31291
-1.76949
-0.263947
1.234
2.69806
4.21016
5.64607
7.26298
8.49176
10.2528
-47.3613
-46.8395
-44.9726
-45.0418
-42.9856
-42.591
-40.7909
-39.7283
-38.0792
-36.5485
-34.8061
-32.9773
-31.0489
-29.0247
-26.9739
-24.8083
-22.6933
-20.2217
-18.1328
-14.9042
-62.2962
-65.7081
-65.415
-68.1674
-68.2494
-70.7305
-71.3619
-73.3141
-74.2995
-75.6176
-76.2805
-76.5794
-76.2246
-75.291
-73.8391
-71.9185
-69.8741
-67.5456
-65.7071
-62.0256
-32.5412
-37.9609
-38.737
-43.1415
-44.597
-48.7226
-51.0686
-55.0435
-58.2303
-62.1917
-65.7411
-69.3224
-72.4129
-75.0569
-77.0054
-78.3436
-78.967
-78.894
-79.2287
-77.8391
12.9547
9.36347
9.75565
6.34253
6.53318
3.69064
3.21718
1.04863
0.0144806
-1.68322
-2.92985
-4.3654
-5.71912
-7.28711
-9.03523
-11.0239
-13.0388
-14.438
-16.2359
-20.145
25.9947
26.0515
28.0535
26.6482
29.1422
28.0564
29.654
29.1605
29.6286
29.1313
28.6563
27.7238
26.6081
25.2742
23.8521
22.3729
20.9777
19.9998
19.6408
17.8876
1.21736
2.16773
5.79101
4.93295
9.07477
9.08134
12.1194
13.3727
15.5682
17.303
19.0948
20.6236
21.83
22.5411
22.7158
22.4618
22.3551
22.9431
24.0404
25.2068
-22.6645
-24.0032
-20.3418
-23.0991
-19.1966
-20.2539
-17.9053
-17.1052
-15.3943
-13.7743
-11.9369
-9.95207
-7.84055
-5.6036
-3.30621
-0.923379
1.37481
3.80515
5.7508
8.55978
-22.177
-26.2577
-23.9017
-30.3494
-29.7065
-34.1816
-35.7685
-38.7297
-40.8825
-43.105
-44.9987
-46.6592
-48.0062
-48.9411
-49.3007
-48.7345
-47.1389
-44.5616
-42.815
-39.7915
-14.7716
-22.4623
-14.7236
-22.2999
-20.9216
-24.9647
-26.9621
-30.2961
-33.3694
-36.7896
-40.2297
-43.7779
-47.3223
-50.7314
-53.7187
-55.8453
-56.3218
-56.028
-56.274
-54.9693
9.26395
-13.6071
-5.61843
-16.9291
-19.8086
-26.6165
-31.6655
-37.0112
-41.5996
-45.6443
-48.8983
-51.3053
-52.7535
-53.1532
-52.4308
-50.3641
-46.9596
-43.7313
-41.3584
-39.9798
697.687
614.969
565.755
509.432
460.317
412.897
368.78
327.087
287.836
250.751
215.674
182.417
150.793
120.804
92.6055
65.4663
39.7371
19.5104
-4.28041
-41.5631
705.714
622.997
573.783
517.461
468.347
420.927
376.81
335.117
295.867
258.781
223.704
190.447
158.822
128.833
100.634
73.4944
47.764
27.5343
3.74163
-33.5405
17.3087
-5.56193
2.42714
-8.88307
-11.7621
-18.5695
-23.618
-28.9633
-33.5512
-37.5954
-40.849
-43.2556
-44.7032
-45.1023
-44.379
-42.3107
-38.9055
-35.6769
-33.3021
-31.9257
-6.7324
-14.4248
-6.68708
-14.2647
-12.8875
-16.932
-18.9308
-22.2662
-25.3411
-28.7629
-32.2047
-35.7547
-39.3008
-42.7112
-45.6993
-47.8257
-48.3014
-48.0099
-48.2598
-46.957
-14.1774
-18.2611
-15.9074
-22.3569
-21.7166
-26.1942
-27.7837
-30.7478
-32.9034
-35.129
-37.0258
-38.6894
-40.0393
-40.9769
-41.3384
-40.7731
-39.1776
-36.6025
-34.8589
-31.8354
-14.6952
-16.0359
-12.3744
-15.1324
-11.2302
-12.2882
-9.93997
-9.1401
-7.42932
-5.80928
-3.97159
-1.98641
0.125414
2.3626
4.65995
7.0427
9.34112
11.7724
13.7202
16.5322
9.21464
10.1643
13.7897
12.9312
17.0746
17.0819
20.1204
21.3744
23.5693
25.3036
27.0936
28.6206
29.8255
30.536
30.7122
30.4645
30.3689
30.9696
32.0722
33.2403
33.9575
34.021
36.0238
34.6219
37.117
36.0342
37.6332
37.1433
37.6145
37.1222
36.6525
35.7268
34.6193
33.2953
31.8848
30.4189
29.0363
28.0654
27.7107
25.9671
21.0786
17.4982
17.8952
14.4902
14.6891
11.855
11.3907
9.23102
8.20561
6.51604
5.27579
3.84453
2.49227
0.922427
-0.831196
-2.82835
-4.84997
-6.2473
-8.03941
-11.9545
-24.4402
-29.8637
-30.6417
-35.0508
-36.5099
-40.6402
-42.9906
-46.9703
-50.1611
-54.1262
-57.6782
-61.2597
-64.3484
-66.9891
-68.9327
-70.2659
-70.8831
-70.8081
-71.1466
-69.7679
-54.3032
-57.7269
-57.437
-60.1939
-60.2805
-62.7653
-63.4005
-65.3558
-66.3432
-67.6625
-68.3254
-68.6236
-68.2686
-67.3364
-65.8876
-63.9727
-61.9358
-59.6136
-57.7782
-54.0983
-39.4461
-38.9283
-37.0608
-37.1314
-35.0753
-34.6818
-32.882
-31.8208
-30.1727
-28.6439
-26.9033
-25.077
-23.1512
-21.1298
-19.0813
-16.9168
-14.8018
-12.3274
-10.235
-7.00303
-12.208
-10.0869
-7.9471
-6.9308
-4.70255
-3.54209
-1.62164
-0.150555
1.52238
3.09879
4.66721
6.21154
7.71805
9.21714
10.6823
12.1956
13.6325
15.2499
16.4791
18.2413
7.61545
10.0754
12.037
13.3707
15.3073
16.5028
18.1422
19.4551
20.8458
22.1546
23.4226
24.6558
25.8549
27.0555
28.2745
29.6005
30.9481
32.4988
33.6939
35.2476
30.777
33.0235
34.3236
35.5231
36.8841
37.7324
38.8414
39.6196
40.3997
41.0251
41.583
42.1182
42.7165
43.4726
44.4745
45.6874
47.0018
48.2711
49.1771
50.0648
44.7303
46.143
46.5722
47.3355
48.0295
48.6654
49.5535
50.329
51.2084
52.0106
52.7314
53.1845
53.2385
52.6932
51.4958
49.8432
48.4661
47.5054
47.5919
46.9544
62.2993
61.5975
60.6023
60.4184
60.4837
60.275
59.964
59.1822
58.0511
56.2421
53.6551
50.0197
45.3076
39.7733
34.204
29.5056
26.3155
24.9589
25.1897
22.7881
38.546
34.5582
30.882
27.6123
24.202
20.5486
17.1766
14.0396
11.2725
8.71042
6.41753
4.34651
2.58997
1.20903
0.23168
-0.331606
-0.269833
0.513177
0.186493
-3.52721
-4.51587
-11.7906
-17.1368
-20.3573
-23.8695
-27.385
-30.7906
-34.2775
-37.8924
-41.7582
-45.7474
-49.675
-53.291
-56.3843
-58.7782
-60.2565
-60.8313
-61.4127
-62.5466
-62.4857
-83.5177
-83.8196
-80.3173
-75.5592
-72.5245
-70.5127
-69.3924
-69.0069
-69.2155
-69.8156
-70.5082
-71.0345
-71.2056
-70.8982
-70.1443
-68.9138
-67.4739
-65.5868
-63.9774
-61.0324
-9.19326
-7.11072
-4.9219
-3.42383
-3.78883
-4.94569
-7.63715
-10.2387
-12.6604
-14.8559
-16.7041
-18.0491
-18.8721
-19.167
-19.006
-18.3235
-17.3359
-15.5966
-13.9411
-11.1785
)
;

boundaryField
{
    outletWall
    {
        type            fixedValue;
        value           uniform 0;
    }
    fineWalls
    {
        type            zeroGradient;
    }
    fineFrontAndBack
    {
        type            zeroGradient;
    }
    fineplugLeft
    {
        type            cyclicAMI;
        value           nonuniform List<scalar> 
20
(
-18.0887
-19.0617
-19.6765
-20.2757
-20.3331
-20.1774
-19.6453
-18.7942
-17.6103
-16.1542
-14.2844
-12.2298
-10.842
-10.0587
-3.61195
-4.03876
-5.64645
-10.6438
-15.7453
-19.0823
)
;
    }
    fineplugRight
    {
        type            cyclicAMI;
        value           nonuniform List<scalar> 
20
(
-10.2838
-10.9338
-11.279
-11.5819
-11.371
-10.9487
-10.1789
-9.11008
-7.72512
-6.1094
-4.07548
-1.72253
-0.343445
-1.93872
6.42495
6.60513
5.54822
0.757895
-4.35276
-7.81347
)
;
    }
    inletOutletLeft
    {
        type            cyclicAMI;
        value           nonuniform List<scalar> 
20
(
-18.0887
-19.0617
-19.6765
-20.2757
-20.3331
-20.1774
-19.6453
-18.7942
-17.6103
-16.1542
-14.2844
-12.2298
-10.842
-10.0587
-3.61195
-4.03876
-5.64645
-10.6438
-15.7453
-19.0823
)
;
    }
    inletLeft
    {
        type            zeroGradient;
    }
    inletWallsLeft
    {
        type            zeroGradient;
    }
    inletFacesLeft
    {
        type            zeroGradient;
    }
    inletOutletRight
    {
        type            cyclicAMI;
        value           nonuniform List<scalar> 
20
(
-10.2838
-10.9338
-11.279
-11.5819
-11.371
-10.9487
-10.1789
-9.11008
-7.72512
-6.1094
-4.07548
-1.72253
-0.343445
-1.93872
6.42495
6.60513
5.54822
0.757895
-4.35276
-7.81347
)
;
    }
    inletRight
    {
        type            zeroGradient;
    }
    inletWallsRight
    {
        type            zeroGradient;
    }
    inletFacesRight
    {
        type            zeroGradient;
    }
}


// ************************************************************************* //
