/*--------------------------------*- C++ -*----------------------------------*\
| =========                 |                                                 |
| \\      /  F ield         | OpenFOAM: The Open Source CFD Toolbox           |
|  \\    /   O peration     | Version:  4.1                                   |
|   \\  /    A nd           | Web:      www.OpenFOAM.org                      |
|    \\/     M anipulation  |                                                 |
\*---------------------------------------------------------------------------*/
FoamFile
{
    version     2.0;
    format      ascii;
    class       surfaceScalarField;
    location    "20";
    object      phi;
}
// * * * * * * * * * * * * * * * * * * * * * * * * * * * * * * * * * * * * * //

dimensions      [0 3 -1 0 0 0 0];

internalField   nonuniform List<scalar> 
2360
(
-9226.74
-5639.59
-3587.15
-5639.59
-5639.59
-2223.05
-3416.54
-2223.05
-2223.05
-2223.05
843.867
-3066.91
843.868
843.867
3815.24
-2971.37
3815.24
3815.24
7499.75
-3684.51
7499.75
7499.75
12568
-5068.29
12568
12568
13036.6
14177.8
15941.4
17824.5
19589.6
21197.8
17811.1
4896.07
19181.8
20440.3
21587.8
22624.7
23551.6
24369.9
25082
25691.6
26200.7
26612.1
26921.3
27126.3
27171.9
13276.2
13895.8
13276.1
13276.1
13276.1
766.808
12509.3
766.808
766.81
766.81
-413.279
1180.09
-413.277
-413.276
-926.624
513.349
-926.623
-926.621
-926.621
-12863.8
11937.2
-12863.8
-12863.8
-12863.8
-27993
15129.2
-27930
-27714.2
-27399.4
-26985
-26473.8
-25862.4
-25148.2
-24327.4
-23397.6
-22357.3
-21206.5
-19944.4
-18569.3
-23798.7
6743.48
-22202.9
-20451
-18583
-16838.9
-15715.8
-15236.5
-15236.5
-15236.5
-10123.3
-5113.2
-10123.3
-10123.3
-3348.83
-6774.49
-3348.83
-3348.83
3463.1
-6811.92
3463.1
3463.1
9558.85
-6095.75
9558.85
9558.85
9558.85
14968.2
-5409.34
14968.2
14968.2
19971.9
-5003.71
-945.64
-2137.66
-600.307
-5051.11
5.40285
-7192.7
641.213
-8423.84
1314.41
-8610.9
1922.92
-8628.9
1646.62
-1996.62
835.964
8426.46
283.865
15906.5
-151.892
18724.6
-417.445
20254.1
-446.681
22120.9
-92.338
24238.1
551.449
21763.2
1501.55
15163.2
2851.9
7013.73
3843.3
-455.77
4732.37
-1778.22
-352.615
-935.403
-2330.33
-395.888
-5590.62
369.953
-7958.54
1214.19
-9268.08
2154.29
-9551
2787.57
-9262.18
2092.96
-1302.01
897.915
9621.51
185.708
16618.7
-289.87
19200.2
-583.041
20547.3
-661.064
22198.9
-332.288
23909.3
359.842
21071.1
1597.79
13925.2
3809.9
4801.61
5586.39
-2232.25
6160.17
-2352
398.209
-287.131
-2270.36
-53.2036
-5824.55
644.299
-8656.04
1520.73
-10144.5
2559.82
-10590.1
2981.44
-9683.8
2030.28
-350.854
811.458
10840.3
-14.804
17444.9
-522.275
19707.6
-857.005
20882
-997.199
22339.1
-713.366
23625.5
1.31035
20356.4
1537.13
12389.4
4583.41
1755.33
7201.5
-4850.34
7741.22
-2891.72
2043.68
368.71
-2050.33
358.597
-5814.44
951.375
-9248.82
1817.65
-11010.8
2808.33
-11580.8
2879.48
-9754.95
1564.04
964.592
439.322
11965
-352.137
18236.4
-849.051
20204.6
-1217.67
21250.7
-1431.22
22552.7
-1227.98
23422.2
-545.526
19674
1299.57
10544.3
5264.46
-2209.56
8667.95
-8253.83
9385.08
-3608.85
4616.84
818.259
-1867.48
774.143
-5770.32
1240.34
-9715.02
2016.73
-11787.2
2681.51
-12245.6
2138
-9211.44
555.83
2546.77
-252.326
12773.2
-828.33
18812.4
-1274.5
20650.7
-1671.18
21647.3
-1965.93
22847.4
-1879.16
23335.5
-1268.31
19063.1
1371.83
7904.16
5312.6
-6150.32
7994.75
-10936
9043.18
-4657.28
6885.53
1001.16
-1784.38
1068.46
-5837.62
1454.86
-10101.4
2030.06
-12362.4
2036.71
-12252.2
578.071
-7752.8
-829.842
3954.68
-1167.7
13111.1
-1405.13
19049.8
-1778.97
21024.6
-2209.04
22077.4
-2589.9
23228.3
-2673.37
23418.9
-2219.86
18609.6
475.316
5208.98
1968.59
-7643.6
1864.51
-10831.9
3454.53
-6247.3
5226.85
983.742
-1824.94
1212.05
-6065.93
1525.79
-10415.2
1725.04
-12561.6
861
-11388.2
-1236.86
-5654.93
-2209.93
4927.75
-2145.4
13046.5
-2047.58
18952
-2341.92
21318.9
-2817.51
22553
-3288.42
23699.2
-3527.58
23658.1
-3152.63
18234.7
-3130.35
5186.7
-5616.29
-5157.66
-6892.98
-9555.21
-5061.63
-8078.65
6908.7
891.133
-1936.39
1200.21
-6375
1363.03
-10578
987.229
-12185.8
-617.441
-9783.5
-2771.38
-3500.99
-3339.92
5496.28
-3068.88
12775.5
-2747.36
18630.5
-2962.54
21534.1
-3484.32
23074.8
-4031.29
24246.1
-4412.32
24039.1
-4924.65
18747
-7740.7
8002.75
-11391.3
-1507.02
-13522.1
-7424.47
-15058.8
-6541.89
6979.07
709.714
-2050.94
990.961
-6656.25
876.062
-10463.1
-149.79
-11160
-2099.78
-7833.51
-3911.79
-1688.99
-4249.59
5834.09
-3919.3
12445.2
-3508.48
18219.7
-3651.29
21676.9
-4194.76
23618.2
-4780.4
24831.8
-5228.5
24487.2
-6137.58
19656.1
-8468.27
10333.4
-10283.9
308.626
-12308.8
-5399.63
-14438.2
-4412.44
4478.07
272.777
-2217.79
512.774
-6896.24
32.2381
-9982.55
-1477.88
-9649.86
-3427.09
-5884.3
-4829.19
-286.881
-5029.52
6034.42
-4723.16
12138.8
-4322.08
17818.6
-4407.07
21761.9
-4939.14
24150.3
-5537.47
25430.1
-5959.87
24909.6
-6512.64
20208.8
-7116.4
10937.2
-7591.16
783.394
-8395.29
-4595.51
-7088.05
-5719.68
-2096.63
-394.228
-2461.35
-237.281
-7053.19
-1074.84
-9144.99
-2792.72
-7931.97
-4529.62
-4147.4
-5576.59
760.089
-5734.94
6192.77
-5498.34
11902.2
-5160.17
17480.4
-5209.9
21811.6
-5708.19
24648.6
-6305.03
26027
-6733.64
25338.2
-7538.91
21014.1
-9781.41
13179.7
-12780.6
3782.58
-13660.1
-3716.06
-10464.3
-8915.43
-11380.8
-1006.48
-2558.93
-1165.59
-6894.08
-2272.2
-8038.38
-3956.24
-6247.94
-5411.91
-2691.73
-6203.88
1552.07
-6384.58
6373.47
-6238.27
11755.9
-5985.16
17227.3
-6024.65
21851.1
-6476.94
25100.9
-7078.3
26628.3
-7740.04
26000
-9286.72
22560.8
-11822.8
15715.8
-13176.9
5136.69
-13573.4
-3319.53
-14486.7
-8002.15
-13358.2
-1651.51
-2388.54
-2190.15
-6355.44
-3415.03
-6813.51
-4921.47
-4741.5
-6122.03
-1491.17
-6771.84
2201.88
-6990.32
6591.95
-6932.79
11698.4
-6768.36
17062.9
-6814.32
21897.1
-7218.47
25505
-7882.15
27292
-8936.17
27054
-10368.9
23993.6
-9396.87
14743.7
-4441.42
181.239
-2970.16
-4790.78
-7960.64
-3011.67
-7423.03
-2325.26
-1873.17
-3217.89
-5462.81
-4435.61
-5595.79
-5720.99
-3456.11
-6719.28
-492.884
-7305.31
2787.91
-7564.65
6851.29
-7581.3
11715
-7492.75
16974.3
-7549.22
21953.5
-7929.89
25885.7
-8743.81
28105.9
-10044.9
28355.1
-10227
24175.6
-4975.16
9491.85
304.285
-5098.21
2319.46
-6805.96
2825.19
-3517.41
298.225
-2946.08
-933.261
-4167.44
-4241.45
-5342.71
-4420.52
-6424.15
-2374.66
-7281.85
364.808
-7842.47
3348.53
-8139.01
7147.83
-8214.15
11790.2
-8180.99
16941.2
-8247.4
22020
-8641.77
26280.1
-9601.27
29065.4
-10721.7
29475.6
-9198.79
22652.7
-2541.11
2834.16
1100.29
-8739.6
1146.6
-6852.27
2781.05
-5151.86
-1989.02
-3271.99
577.099
-4951.51
-2561.93
-6230.97
-3141.06
-7106.19
-1499.44
-7793.5
1052.12
-8347.84
3902.87
-8685.65
7485.63
-8813.33
11917.8
-8820.82
16948.7
-8900.5
22099.6
-9336.48
26716.1
-10320.2
30049.1
-10742.8
29898.2
-7326.71
19236.6
-1634.53
-2858.02
304.998
-10679.1
1473.08
-8020.34
2655.16
-6333.94
-3018.37
-2653.1
2769.04
-5367.58
152.555
-7208.94
-1299.7
-8059.11
-649.27
-8500.19
1493.2
-8906.04
4308.73
-9209.79
7789.38
-9364.07
12072.1
-9417.27
17001.9
-9549.47
22231.8
-10043.6
27210.2
-10841.4
30846.9
-10156
29212.7
-4811.89
13892.6
-430.64
-7239.27
106.638
-11216.4
1611
-9524.7
2634.44
-7357.38
-3355.3
-1437.3
4975.97
-5278.79
3994.04
-8076.8
1498.31
-9086.21
360.137
-9356.08
1763.07
-9543.23
4495.88
-9710.32
7956.47
-9829.23
12191
-9912.65
17085.3
-10125.5
22444.7
-10694.9
27779.6
-11180.2
31332.2
-9314.48
27347
-3174.47
7752.56
92.8816
-10506.6
379.152
-11502.7
1802.73
-10948.3
2719.47
-8274.12
-3702.75
407.048
6455.56
-3885.96
8287.05
-8689.36
6301.71
-10805.6
2476.36
-10882.7
1840.16
-10577.9
4191.12
-10358.2
7736.76
-10271.8
12104.6
-10383.3
17196.8
-10834.8
22896.2
-11575.7
28520.5
-11439.6
31196.1
-7945.84
23853.2
-2162.01
1968.73
-60.6435
-12608
630.249
-12193.6
1919.83
-12237.9
2896.45
-9250.74
-4222.84
2465.31
-515.435
-6409.43
-11155.8
-12581.6
-12658.9
-12492.8
-12371.2
-12458.3
-12743.4
-12731.2
-10973.6
-6062.63
-1217.43
-143.761
748.072
2002.91
3068.4
-278.353
-190.185
-240.832
-1178.76
-15.9186
-1988.54
261.891
-2160.84
516.579
-2019.81
739.483
-1831.07
898.36
-1668.27
1053.68
-1526.01
1181.47
-1386.36
1279.61
-1245.56
1346.54
-1103.9
1381.13
-961.437
1381.61
-818.75
1345.04
-675.614
1267.61
-532.097
1142.72
-384.285
960.333
-228.957
697.884
-46.7436
379.086
113.755
333.447
303.641
-493.828
471.347
-1346.46
447.592
-1964.79
390.607
-2103.85
357.993
-1987.2
359.479
-1832.56
386.601
-1695.4
420.366
-1559.78
451.422
-1417.42
473.968
-1268.11
485.292
-1115.23
481.959
-958.106
459.825
-796.618
415.125
-630.915
346.087
-463.06
254.803
-293.003
147.328
-121.485
52.6909
47.8905
-30.395
196.838
303.052
570.56
-1064.39
1067.27
-1843.17
1076.97
-1974.49
850.418
-1877.3
613.287
-1750.07
417.466
-1636.74
243.138
-1521.07
73.8155
-1390.46
-91.6799
-1251.93
-251.515
-1108.28
-405.034
-961.712
-552.387
-810.755
-693.227
-655.78
-825.092
-499.052
-939.304
-348.85
-1012.13
-220.184
-1000.51
-133.105
-845.395
-107.222
-503.865
-144.695
-200.813
263.942
-1328.33
424.765
-2004
277.912
-1827.64
15.6618
-1615.05
-235.197
-1499.21
-465.569
-1406.37
-687.693
-1298.95
-907.282
-1170.87
-1124.6
-1034.61
-1340.84
-892.048
-1555.19
-747.362
-1761.09
-604.852
-1943.12
-473.749
-2072.9
-369.27
-2104.68
-317.076
-1979.08
-345.785
-1645.36
-466.822
-1102.69
-649.892
-453.656
-793.731
-654.469
-76.8172
-1251.52
-159.248
-1921.57
-276.218
-1710.67
-384.85
-1506.42
-504.274
-1379.79
-642.759
-1267.88
-781.523
-1160.18
-910.032
-1042.36
-1023.94
-920.704
-1121.73
-794.255
-1200.66
-668.43
-1255.46
-550.052
-1274.02
-455.195
-1236.96
-406.333
-1120.89
-433.143
-913.344
-553.334
-634.408
-745.759
-342.313
-941.988
-122.017
-1014.03
-776.486
-147.025
-1104.49
-129.546
-1939.05
-31.4023
-1808.81
32.782
-1570.6
59.3357
-1406.34
71.5942
-1280.14
90.998
-1179.59
127.197
-1078.56
185.76
-979.267
270.8
-879.296
382.763
-780.393
516.887
-684.176
659.931
-598.239
789.227
-535.63
870.673
-514.588
864.904
-547.565
744.343
-625.198
516.434
-714.079
239.025
-736.62
-537.461
-67.9044
-1036.59
-22.0433
-1984.91
71.0004
-1901.86
142.902
-1642.51
211.193
-1474.63
280.578
-1349.53
352.962
-1251.97
430.819
-1156.42
516.151
-1064.6
611.823
-974.969
718.988
-887.558
836.24
-801.429
953.713
-715.712
1050.77
-632.686
1095.18
-559
1052.48
-504.865
904.363
-477.08
652.901
-462.616
341.332
-425.05
-196.129
70.2248
-1106.81
116.699
-2031.38
169.552
-1954.71
221.48
-1694.43
283.757
-1536.91
348.205
-1413.98
411.876
-1315.64
471.27
-1215.81
525.898
-1119.23
574.605
-1023.68
617.062
-930.014
653.868
-838.235
686.389
-748.232
712.945
-659.242
725.104
-571.159
703.729
-483.489
625.683
-399.035
471.554
-308.487
243.681
-197.176
47.5518
207.761
-1314.57
275.305
-2098.93
296.932
-1976.34
331.52
-1729.02
389.794
-1595.18
450.937
-1475.12
515.33
-1380.04
578.056
-1278.54
639.325
-1180.5
693.709
-1078.06
736.221
-972.527
761.568
-863.583
766.247
-752.911
748.383
-641.378
707.122
-529.897
639.432
-415.8
538.823
-298.424
392.839
-162.502
197.426
-1.76154
244.978
313.851
-1628.43
361.284
-2146.36
354.289
-1969.34
385.772
-1760.51
452.646
-1662.06
522.341
-1544.81
602.463
-1460.16
684.822
-1360.9
770.053
-1265.73
846.196
-1154.2
906.048
-1032.38
941.44
-898.974
947.98
-759.45
922.248
-615.646
861.056
-468.705
760.134
-314.878
616.047
-154.338
415.336
38.2093
207.098
206.477
452.075
278.001
-1906.43
226.651
-2095.01
192.005
-1934.7
205.645
-1774.14
247.483
-1703.9
293.292
-1590.62
355.352
-1522.22
422.858
-1428.41
493.401
-1336.27
549.489
-1210.29
583.604
-1066.49
586.877
-902.247
558.231
-730.804
498.242
-555.657
405.913
-376.376
286.805
-195.771
172.372
-39.9047
81.6203
128.961
-19.9219
308.019
432.154
73.4962
-1979.92
-65.4994
-1956.01
-141.548
-1858.65
-201.02
-1714.67
-253.124
-1651.79
-303.611
-1540.13
-347.742
-1478.09
-388.89
-1387.26
-430.186
-1294.97
-476.59
-1163.89
-531.113
-1011.97
-596.939
-836.419
-673.715
-654.027
-755.494
-473.876
-832.28
-299.589
-891.218
-136.832
-910.089
-21.0331
-818.826
37.6978
-534.16
23.3533
-102.006
-85.2495
-1894.67
-191.599
-1849.67
-282.112
-1768.13
-391.904
-1604.88
-502.742
-1540.95
-627.282
-1415.59
-762.342
-1343.03
-907.333
-1242.27
-1054.78
-1147.53
-1192.39
-1026.28
-1314.1
-890.254
-1417.24
-733.279
-1504.31
-566.956
-1570.5
-407.688
-1589.66
-280.425
-1512.78
-213.716
-1302.51
-231.301
-931.092
-333.723
-426.545
-481.192
-528.551
-46.3832
-1848.29
-61.6292
-1834.42
-90.2037
-1739.56
-141.682
-1553.4
-191.668
-1490.96
-257.466
-1349.8
-335.152
-1265.34
-423.889
-1153.53
-512.83
-1058.58
-584.236
-954.869
-623.399
-851.089
-616.976
-739.701
-561.434
-622.497
-463.301
-505.821
-334.693
-409.031
-182.766
-365.642
-20.322
-393.743
107.37
-461.413
125.963
-499.784
-402.589
55.6403
-1903.93
87.034
-1865.81
127.488
-1780.01
162.676
-1588.59
197.994
-1526.28
234.736
-1386.54
266.529
-1297.13
299.242
-1186.24
330.386
-1089.73
368.427
-992.908
418.944
-901.606
492.337
-813.092
595.208
-725.368
724.048
-634.659
853.601
-538.583
928.948
-440.989
887.713
-352.508
698.957
-272.657
384.751
-185.577
-17.8374
85.4976
-1989.42
96.708
-1877.02
140.535
-1823.84
190.653
-1638.7
242.078
-1577.71
301.871
-1446.33
363.979
-1359.24
433.343
-1255.6
506.475
-1162.86
582.85
-1069.28
659.764
-978.519
734.377
-887.705
802.436
-793.427
856.47
-688.692
882.669
-564.782
855.308
-413.627
761.471
-258.671
594.123
-105.309
336.465
72.0803
318.628
29.0856
-2018.51
-5.21371
-1842.72
-1.94855
-1827.1
19.4867
-1660.14
44.2451
-1602.46
86.264
-1488.35
135.768
-1408.74
197.703
-1317.54
270.515
-1235.67
354.665
-1153.43
449.603
-1073.46
551.913
-990.014
652.623
-894.136
732.617
-768.687
757.341
-589.505
672.949
-329.235
453.554
-39.2746
240.713
107.534
87.0903
225.704
405.718
-154.579
-1863.93
-338.298
-1659
-482.074
-1683.33
-582.998
-1559.21
-673.252
-1512.21
-730.559
-1431.04
-771.945
-1367.35
-791.087
-1298.39
-792.596
-1234.16
-775.537
-1170.49
-740.84
-1108.15
-688.963
-1041.89
-621.763
-961.336
-542.411
-848.038
-454.854
-677.062
-360.586
-423.503
-274.583
-125.277
-212.701
45.6513
-159.401
172.405
246.317
-216.826
-1647.1
-482.418
-1393.41
-763.015
-1402.73
-1003.26
-1318.96
-1234.98
-1280.5
-1435.25
-1230.77
-1613.62
-1188.98
-1765.31
-1146.71
-1893.25
-1106.22
-1997.45
-1066.29
-2078.7
-1026.91
-2134
-986.586
-2153.77
-941.568
-2117.12
-884.683
-1987.31
-806.877
-1709.02
-701.793
-1264.37
-569.924
-798.499
-420.22
-362.166
-263.928
-115.85
-672.105
-1090.51
-1518.24
-1862.21
-2167.7
-2423.47
-2637.45
-2809.16
-2940.38
-3031.67
-3083.57
-3095.16
-3061.73
-2971.41
-2803.29
-2530.08
-2125
-1570.22
-859.15
-672.083
1647.08
-1090.47
1393.39
-1518.18
1402.71
-1862.13
1318.95
-2167.6
1280.48
-2423.35
1230.75
-2637.32
1188.97
-2809.01
1146.69
-2940.21
1106.21
-3031.48
1066.27
-3083.38
1026.89
-3094.95
986.572
-3061.5
941.547
-2971.15
884.65
-2802.98
806.838
-2529.76
701.774
-2124.72
569.965
-1570.07
420.349
-859.122
264.049
115.878
-216.835
1863.92
-482.447
1659
-763.062
1683.32
-1003.34
1559.22
-1235.08
1512.22
-1435.39
1431.06
-1613.8
1367.38
-1765.53
1298.42
-1893.52
1234.2
-1997.79
1170.54
-2079.1
1108.2
-2134.45
1041.93
-2154.25
961.339
-2117.56
847.967
-1987.6
676.878
-1709.03
423.2
-1264.2
125.139
-798.365
-45.4893
-361.987
-172.329
-246.108
-154.639
2018.56
-338.407
1842.77
-482.237
1827.16
-583.219
1660.2
-673.536
1602.54
-730.905
1488.43
-772.359
1408.83
-791.569
1317.63
-793.15
1235.78
-776.168
1153.55
-741.552
1073.59
-689.763
990.143
-622.652
894.228
-543.375
768.691
-455.839
589.343
-361.497
328.858
-275.4
39.0429
-213.319
-107.569
-159.731
-225.916
-405.84
29.0581
1989.5
-5.29796
1877.13
-2.0712
1823.93
19.3266
1638.81
44.0533
1577.81
86.0415
1446.44
135.517
1359.35
197.428
1255.72
270.218
1162.99
354.355
1069.42
449.29
978.655
551.601
887.831
652.304
793.526
732.256
688.739
756.851
564.747
672.225
413.484
452.765
258.503
240.182
105.014
86.7477
-72.4811
-319.092
85.5924
1903.91
96.7441
1865.97
140.577
1780.1
190.7
1588.68
242.151
1526.36
301.949
1386.64
364.08
1297.22
433.452
1186.35
506.604
1089.84
582.996
993.025
659.927
901.723
734.542
813.217
802.564
725.504
856.506
634.798
882.557
538.697
855.018
441.023
761.111
352.41
593.759
272.367
336.193
185.085
17.1014
55.7859
1848.12
87.1871
1834.57
127.707
1739.58
163
1553.39
198.426
1490.93
235.31
1349.76
267.274
1265.26
300.194
1153.43
331.564
1058.47
369.82
954.77
420.51
851.033
493.998
739.728
596.868
622.635
725.581
506.084
854.82
409.458
929.655
366.188
887.955
394.11
699.036
461.286
384.869
499.251
401.971
-46.0915
1894.21
-61.0345
1849.52
-89.3171
1767.86
-140.477
1604.55
-190.155
1540.61
-255.615
1415.22
-332.96
1342.61
-421.328
1241.8
-509.885
1147.02
-580.903
1025.79
-619.695
889.825
-612.913
732.947
-557.007
566.729
-458.52
407.597
-329.639
280.578
-177.696
214.246
-15.837
232.25
110.503
334.946
127.326
482.429
529.297
-85.5339
1979.75
-191.714
1955.7
-282.242
1858.39
-392.129
1714.44
-503.066
1651.55
-627.766
1539.92
-763.02
1477.86
-908.234
1387.01
-1055.87
1294.66
-1193.61
1163.52
-1315.36
1011.58
-1418.44
836.027
-1505.33
653.615
-1571.18
473.446
-1589.82
299.214
-1512.35
136.783
-1301.55
21.4507
-929.715
-36.8919
-425.546
-21.7398
103.751
72.8958
1906.85
-66.1928
2094.78
-142.394
1934.59
-202.105
1774.15
-254.487
1703.93
-305.273
1590.7
-349.744
1522.33
-391.262
1428.53
-432.945
1336.35
-479.705
1210.28
-534.532
1066.41
-600.614
902.11
-677.612
730.612
-759.578
555.413
-836.486
376.122
-895.405
195.701
-913.892
39.9379
-821.519
-129.265
-535.255
-308.004
-431.505
277.802
1629.05
226.159
2146.43
191.35
1969.4
204.826
1760.67
246.473
1662.28
292.111
1545.07
353.989
1460.45
421.306
1361.21
491.616
1266.04
547.442
1154.46
581.291
1032.56
584.331
899.07
555.49
759.453
495.358
615.545
402.996
468.483
284.183
314.514
170.359
153.762
80.0003
-38.9066
-21.0111
-206.993
-452.516
314.184
1314.87
361.546
2099.07
354.45
1976.49
385.896
1729.23
452.766
1595.41
522.478
1475.35
602.644
1380.29
685.06
1278.8
770.341
1180.76
846.506
1078.29
906.355
972.708
941.735
863.691
948.258
752.93
922.505
641.298
861.277
529.711
760.283
415.507
616.026
298.02
415.119
162
206.991
1.13561
-245.525
208.276
1106.59
275.88
2031.46
297.391
1954.98
331.952
1694.66
390.242
1537.12
451.402
1414.19
515.821
1315.87
578.583
1216.04
639.904
1119.43
694.345
1023.85
736.909
930.143
762.292
838.307
766.97
748.252
749.045
659.223
707.639
571.117
639.766
483.379
538.99
398.796
392.894
308.097
197.376
196.653
-48.1492
70.67
1035.92
117.229
1984.9
169.72
1902.49
221.317
1643.07
283.421
1475.02
347.716
1349.9
411.241
1252.34
470.481
1156.8
524.944
1064.97
573.446
975.35
615.597
887.992
651.94
801.964
683.845
716.347
709.764
633.305
721.588
559.293
700.343
504.625
622.886
476.253
469.633
461.349
242.578
423.708
194.429
-66.9237
1102.84
-20.4297
1938.41
73.3178
1808.74
145.085
1571.3
212.968
1407.13
282.057
1280.81
354.077
1180.32
431.296
1079.58
515.534
980.732
609.482
881.401
714.52
782.954
829.576
686.908
945.519
600.403
1042.28
536.546
1087.05
514.518
1045.89
545.783
899.961
622.185
650.747
710.564
340.776
733.679
535.205
-142.473
1245.32
-126.966
1922.9
-30.4286
1712.2
35.773
1505.1
64.7826
1378.12
78.9842
1266.61
99.9597
1159.35
137.497
1042.04
197.148
921.081
283.083
795.466
395.871
670.165
530.801
551.978
674.482
456.721
803.68
407.348
883.35
434.848
874.039
555.094
749.265
746.959
518.089
941.739
239.257
1012.51
774.462
-63.1042
1308.42
-138.05
1997.85
-256.779
1830.93
-367.418
1615.74
-484.595
1495.3
-618.912
1400.92
-753.511
1293.95
-877.921
1166.45
-987.552
1030.71
-1080.85
888.763
-1155.68
744.998
-1207.51
603.802
-1225.04
474.249
-1189.14
371.455
-1075.46
321.163
-872.915
352.55
-603.488
477.532
-325.088
663.339
-117.18
804.604
657.282
274.065
1034.35
460.006
1811.91
326.323
1964.62
60.8019
1881.26
-197.169
1753.27
-432.579
1636.33
-657.996
1519.36
-880.188
1388.64
-1099.63
1250.15
-1317.57
1106.7
-1533.64
961.072
-1741.68
811.842
-1926.07
658.635
-2057.77
503.153
-2090.47
353.866
-1965.39
227.473
-1632.86
145
-1091.57
122.052
-445.705
158.733
211.577
562.41
471.945
1079.69
1294.62
1102.69
1941.61
877.573
2106.38
634.446
1996.4
431.346
1839.43
250.769
1699.94
75.8379
1563.57
-94.7479
1420.74
-259.022
1270.98
-416.11
1118.16
-566.051
961.782
-708.515
801.099
-841.311
635.949
-956.144
468.699
-1028.35
299.675
-1012.15
128.81
-847.707
-42.3961
-498.759
-190.214
-287.182
299.189
172.756
455.27
1138.54
426.968
1969.92
372.501
2160.84
342.836
2026.06
344.857
1837.41
371.56
1673.24
405.608
1529.52
437.251
1389.1
460.213
1248.01
472.013
1106.36
469.598
964.197
448.77
821.926
405.522
679.198
338.057
536.164
248.815
388.917
143.71
233.914
50.6116
50.7025
-31.8773
-107.726
-319.059
-306.566
-291.074
-65.3165
227.575
501.704
743.338
902.499
1056.91
1183.91
1281.11
1347.23
1381.63
1382.75
1347.71
1272.53
1150.21
969.727
705.603
382.064
)
;

boundaryField
{
    outletWall
    {
        type            calculated;
        value           nonuniform List<scalar> 
60
(
19971.9
81.2716
889.148
-535.634
-8364.08
-16113.3
-22407
-24592.4
-22091.7
-19988.6
-18288.8
-15354.4
-7615.8
2272.92
8020.39
7937.71
7788.03
6586.99
4705.77
2091.48
-3072.98
-1886.64
-769.627
461.157
1761.63
2006.17
1809.89
1481.13
1104.05
637.793
-105.925
-595.171
-779.684
-943.178
-1084.26
-1001.11
-588.741
227.161
1128.07
991.821
9226.74
-4741.59
-10316.2
-13492.7
-13085.4
-13681.7
-2876.47
18942.2
29438.5
28508.3
23181.2
17284
11983
7570.68
4268.35
3265.97
7222.76
12195.7
11267.8
7063.23
)
;
    }
    fineWalls
    {
        type            calculated;
        value           uniform 0;
    }
    fineFrontAndBack
    {
        type            calculated;
        value           nonuniform List<scalar> 
960
(
-2.80283e-12
-2.21869e-11
-5.25352e-12
-7.00125e-12
-4.193e-11
-6.03339e-12
-2.63262e-12
-5.10444e-12
-9.86858e-11
-3.53777e-11
-6.98816e-11
-1.92347e-10
-1.278e-12
9.07652e-12
3.79126e-11
4.2954e-12
4.3875e-12
1.39082e-11
2.26183e-12
2.07367e-12
4.31964e-13
5.4287e-13
4.09633e-13
3.26589e-13
2.95658e-13
2.00398e-13
2.4656e-13
2.83036e-14
-8.28448e-14
-2.03948e-13
-3.52878e-13
-4.95599e-13
-6.44853e-13
-7.91647e-13
-9.29556e-13
-1.04984e-12
-1.12886e-12
-1.19777e-12
-1.20269e-12
-1.28257e-12
-2.22621e-11
-1.29236e-12
-3.18307e-14
1.76613e-13
3.27036e-11
1.49889e-11
2.74665e-11
4.42874e-11
4.36236e-10
-2.235e-12
3.15243e-12
2.36209e-11
3.18545e-12
2.39357e-12
9.96535e-13
-2.14287e-12
-2.01322e-14
9.23565e-13
1.90959e-12
2.71797e-11
1.49623e-12
1.35549e-12
1.34054e-12
1.27209e-12
1.20466e-12
1.11717e-12
1.02635e-12
9.22724e-13
8.03711e-13
6.79803e-13
5.54487e-13
4.56554e-13
3.89483e-13
1.0877e-11
3.15933e-13
3.0818e-13
3.2975e-13
3.02258e-13
1.91002e-13
2.40086e-13
1.29386e-12
7.53431e-13
2.0217e-12
1.75762e-12
2.37091e-12
2.07955e-11
7.07348e-12
3.49062e-12
1.3323e-12
1.23193e-13
-5.121e-13
9.26412e-13
3.30564e-12
4.44597e-12
5.70906e-12
2.36118e-11
4.86735e-12
5.49281e-12
2.2175e-11
5.87229e-12
5.25994e-12
6.26655e-12
4.28143e-12
-2.0358e-13
-9.95631e-12
-1.39539e-11
-1.48067e-11
-1.68055e-11
-1.51584e-11
-1.44857e-11
-1.384e-11
-1.09385e-11
-1.50219e-11
-2.30799e-11
-3.14311e-11
-2.89805e-11
-2.53768e-11
-1.66047e-11
-3.28809e-11
1.12498e-11
1.10145e-11
9.98349e-12
5.96007e-12
-8.18214e-12
-1.41397e-11
-1.34954e-11
-1.64061e-11
-1.52147e-11
-1.44897e-11
-1.37877e-11
-1.09588e-11
-1.50917e-11
-2.3083e-11
-3.1316e-11
-2.94736e-11
-2.85438e-11
-2.06674e-11
-3.6201e-11
1.22398e-11
1.22266e-11
1.09272e-11
7.92642e-12
-7.72252e-12
-1.39856e-11
-1.22829e-11
-1.55678e-11
-1.52179e-11
-1.44936e-11
-1.36913e-11
-1.10006e-11
-1.52455e-11
-2.31677e-11
-3.12534e-11
-2.99611e-11
-3.01595e-11
-2.55051e-11
-3.43563e-11
1.30159e-11
1.22132e-11
1.09149e-11
8.89451e-12
-7.75627e-12
-1.28672e-11
-1.04096e-11
-1.42742e-11
-1.51198e-11
-1.44904e-11
-1.35412e-11
-1.1073e-11
-1.55126e-11
-2.34462e-11
-3.12734e-11
-3.05974e-11
-2.90657e-11
-2.56915e-11
-3.50919e-11
1.27879e-11
1.17919e-11
1.03138e-11
8.22073e-12
-8.52589e-12
-1.05703e-11
-8.44267e-12
-1.31614e-11
-1.49246e-11
-1.44811e-11
-1.33293e-11
-1.11975e-11
-1.5929e-11
-2.39607e-11
-3.13915e-11
-2.98744e-11
-2.04925e-11
-1.40892e-11
-3.26636e-11
1.26692e-11
1.15868e-11
9.76045e-12
6.32811e-12
-9.53014e-12
-7.20722e-12
-7.33455e-12
-1.23453e-11
-1.45543e-11
-1.44502e-11
-1.30577e-11
-1.13945e-11
-1.65581e-11
-2.49104e-11
-3.17267e-11
-1.69825e-11
-2.96844e-12
7.11319e-12
-2.14974e-11
1.27733e-11
1.13252e-11
9.20013e-12
3.5076e-12
-1.019e-11
-3.70154e-12
-7.50906e-12
-1.17059e-11
-1.39424e-11
-1.43241e-11
-1.27582e-11
-1.17048e-11
-1.74519e-11
-2.61632e-11
-2.84041e-11
-1.25418e-12
6.44339e-12
1.53259e-11
9.18292e-12
1.28249e-11
1.07243e-11
8.21834e-12
1.19748e-13
-1.01734e-11
-6.88778e-13
-7.53054e-12
-1.12775e-11
-1.317e-11
-1.40004e-11
-1.24802e-11
-1.22698e-11
-1.89284e-11
-2.77776e-11
-2.19537e-11
-6.23175e-13
2.90434e-12
1.77965e-11
3.85719e-11
1.23624e-11
9.72253e-12
6.43708e-12
-3.28491e-12
-1.02082e-11
3.70993e-12
-1.15559e-11
-1.03656e-11
-1.23641e-11
-1.33755e-11
-1.20454e-11
-1.26114e-11
-2.0545e-11
-2.51691e-11
-1.2163e-11
-8.44945e-14
4.15048e-12
3.1503e-12
-6.0053e-13
1.11178e-11
8.32984e-12
3.72991e-12
-6.02579e-12
-1.27176e-11
1.57579e-11
2.72734e-11
-1.45868e-11
-1.10085e-11
-1.24619e-11
-1.24648e-11
-1.65999e-11
-2.21922e-11
-3.31903e-11
-3.20429e-11
1.96261e-11
1.96169e-11
5.87237e-11
7.87459e-11
9.42654e-12
6.56517e-12
4.69512e-13
-7.41437e-12
-1.87951e-11
-3.2564e-11
-1.25402e-11
-1.05167e-11
-1.01288e-11
-1.16849e-11
-1.30713e-11
-1.85467e-11
-2.58203e-11
-3.82562e-11
-3.18903e-11
-1.50705e-11
-2.42895e-11
7.54198e-11
3.54889e-10
8.1509e-12
4.47645e-12
-2.77375e-12
-8.78343e-12
-1.2259e-11
-2.27189e-11
-2.18995e-11
-7.16154e-12
-1.01868e-11
-1.12907e-11
-1.37249e-11
-2.04323e-11
-2.99773e-11
-3.15267e-11
-7.56243e-12
-1.72569e-13
-1.1873e-11
-1.66035e-11
-7.26712e-12
6.88653e-12
2.00861e-12
-5.74417e-12
-1.05587e-11
-9.50632e-12
-1.02803e-11
-1.20686e-11
-7.97959e-12
-1.03618e-11
-1.11963e-11
-1.48638e-11
-2.36466e-11
-3.06227e-11
-1.56569e-11
1.01261e-11
-2.50099e-12
-1.3641e-11
-1.38391e-11
-2.41807e-11
5.47537e-12
-5.27382e-13
-8.37934e-12
-1.25627e-11
-9.86037e-12
-6.86451e-12
-7.39205e-12
-8.53601e-12
-9.85127e-12
-1.14619e-11
-1.71002e-11
-2.68589e-11
-2.6254e-11
-4.05082e-13
1.27031e-11
-1.60256e-11
-1.27139e-11
-1.26695e-11
-1.49391e-11
4.22165e-12
-2.63903e-12
-1.04392e-11
-1.48828e-11
-1.2788e-11
-8.94348e-12
-7.50326e-12
-8.20538e-12
-9.6017e-12
-1.3053e-11
-2.07938e-11
-2.87753e-11
-1.92334e-11
8.15648e-12
8.26457e-12
-1.13564e-11
-1.18589e-11
-1.25172e-11
-3.27903e-11
3.92389e-12
-3.71117e-12
-1.14622e-11
-1.66755e-11
-1.67413e-11
-1.34932e-11
-1.08067e-11
-1.01802e-11
-1.19921e-11
-1.71869e-11
-2.55313e-11
-2.89081e-11
-1.25992e-11
9.96499e-12
5.2291e-13
-5.83918e-12
-1.07164e-11
-1.77951e-11
-1.38039e-11
5.07912e-12
-3.02551e-12
-1.10123e-11
-1.66821e-11
-1.93264e-11
-1.84676e-11
-1.66118e-11
-1.59151e-11
-1.80421e-11
-2.36108e-11
-2.99291e-11
-2.71759e-11
-7.58551e-12
7.62504e-12
-8.10931e-12
-5.87797e-12
-1.11174e-11
-1.84319e-11
2.72122e-11
5.84829e-12
-1.27386e-14
-8.26847e-12
-1.39401e-11
-1.86147e-11
-2.12632e-11
-2.20192e-11
-2.26917e-11
-2.51126e-11
-2.94564e-11
-3.1752e-11
-2.35072e-11
-4.24829e-12
4.12562e-12
-9.02345e-12
-5.9282e-12
-1.15841e-11
-1.62116e-11
7.03226e-12
5.6027e-12
3.69861e-12
-3.35115e-12
-8.45464e-12
-1.45328e-11
-2.06849e-11
-2.50708e-11
-2.8227e-11
-3.12052e-11
-3.34279e-11
-3.09719e-11
-1.88585e-11
-2.34056e-12
5.46e-13
-7.65102e-12
-5.89573e-12
-1.19234e-11
-1.53042e-11
-1.61849e-11
3.77211e-12
4.42955e-12
2.02474e-12
-1.46438e-12
-4.15864e-12
-9.96807e-12
-1.6189e-11
-2.1246e-11
-2.47292e-11
-2.52572e-11
-2.07582e-11
-1.09099e-11
-2.04068e-12
-3.63964e-12
-7.27271e-12
-5.91792e-12
-1.22433e-11
-1.60013e-11
-2.03784e-11
2.80283e-12
2.21869e-11
5.25352e-12
7.00125e-12
4.193e-11
6.03339e-12
2.63262e-12
5.10444e-12
9.86858e-11
3.53777e-11
6.98816e-11
1.92347e-10
1.278e-12
-9.07652e-12
-3.79126e-11
-4.2954e-12
-4.3875e-12
-1.39082e-11
-2.26183e-12
-2.07367e-12
-4.31964e-13
-5.4287e-13
-4.09633e-13
-3.26589e-13
-2.95658e-13
-2.00398e-13
-2.4656e-13
-2.83036e-14
8.28448e-14
2.03948e-13
3.52878e-13
4.95599e-13
6.44853e-13
7.91647e-13
9.29556e-13
1.04984e-12
1.12886e-12
1.19777e-12
1.20269e-12
1.28257e-12
2.22621e-11
1.29236e-12
3.18307e-14
-1.76613e-13
-3.27036e-11
-1.49889e-11
-2.74665e-11
-4.42874e-11
-4.36236e-10
2.235e-12
-3.15243e-12
-2.36209e-11
-3.18545e-12
-2.39357e-12
-9.96535e-13
2.14287e-12
2.01322e-14
-9.23565e-13
-1.90959e-12
-2.71797e-11
-1.49623e-12
-1.35549e-12
-1.34054e-12
-1.27209e-12
-1.20466e-12
-1.11717e-12
-1.02635e-12
-9.22724e-13
-8.03711e-13
-6.79803e-13
-5.54487e-13
-4.56554e-13
-3.89483e-13
-1.0877e-11
-3.15933e-13
-3.0818e-13
-3.2975e-13
-3.02258e-13
-1.91002e-13
-2.40086e-13
-1.29386e-12
-7.53431e-13
-2.0217e-12
-1.75762e-12
-2.37091e-12
-2.07955e-11
-7.07348e-12
-3.49062e-12
-1.3323e-12
-1.23193e-13
5.121e-13
-9.26412e-13
-3.30564e-12
-4.44597e-12
-5.70906e-12
-2.36118e-11
-4.86735e-12
-5.49281e-12
-2.2175e-11
-5.87229e-12
-5.25994e-12
-6.26655e-12
-4.28143e-12
2.0358e-13
9.95631e-12
1.39539e-11
1.48067e-11
1.68055e-11
1.51584e-11
1.44857e-11
1.384e-11
1.09385e-11
1.50219e-11
2.30799e-11
3.14311e-11
2.89805e-11
2.53768e-11
1.66047e-11
3.28809e-11
-1.12498e-11
-1.10145e-11
-9.98349e-12
-5.96007e-12
8.18214e-12
1.41397e-11
1.34954e-11
1.64061e-11
1.52147e-11
1.44897e-11
1.37877e-11
1.09588e-11
1.50917e-11
2.3083e-11
3.1316e-11
2.94736e-11
2.85438e-11
2.06674e-11
3.6201e-11
-1.22398e-11
-1.22266e-11
-1.09272e-11
-7.92642e-12
7.72252e-12
1.39856e-11
1.22829e-11
1.55678e-11
1.52179e-11
1.44936e-11
1.36913e-11
1.10006e-11
1.52455e-11
2.31677e-11
3.12534e-11
2.99611e-11
3.01595e-11
2.55051e-11
3.43563e-11
-1.30159e-11
-1.22132e-11
-1.09149e-11
-8.89451e-12
7.75627e-12
1.28672e-11
1.04096e-11
1.42742e-11
1.51198e-11
1.44904e-11
1.35412e-11
1.1073e-11
1.55126e-11
2.34462e-11
3.12734e-11
3.05974e-11
2.90657e-11
2.56915e-11
3.50919e-11
-1.27879e-11
-1.17919e-11
-1.03138e-11
-8.22073e-12
8.52589e-12
1.05703e-11
8.44267e-12
1.31614e-11
1.49246e-11
1.44811e-11
1.33293e-11
1.11975e-11
1.5929e-11
2.39607e-11
3.13915e-11
2.98744e-11
2.04925e-11
1.40892e-11
3.26636e-11
-1.26692e-11
-1.15868e-11
-9.76045e-12
-6.32811e-12
9.53014e-12
7.20722e-12
7.33455e-12
1.23453e-11