/*--------------------------------*- C++ -*----------------------------------*\
| =========                 |                                                 |
| \\      /  F ield         | OpenFOAM: The Open Source CFD Toolbox           |
|  \\    /   O peration     | Version:  4.1                                   |
|   \\  /    A nd           | Web:      www.OpenFOAM.org                      |
|    \\/     M anipulation  |                                                 |
\*---------------------------------------------------------------------------*/
FoamFile
{
    version     2.0;
    format      ascii;
    class       volVectorField;
    location    "20";
    object      U;
}
// * * * * * * * * * * * * * * * * * * * * * * * * * * * * * * * * * * * * * //

dimensions      [0 1 -1 0 0 0 0];

internalField   nonuniform List<vector> 
1280
(
(-2.02553e-15 -3.0176 -3.17263)
(-3.77571e-15 -1.94681 -2.9078)
(-3.78088e-15 -2.29245 -2.21186)
(-5.05962e-15 -1.66988 -2.33177)
(-7.1264e-15 -1.50622 -2.98226)
(-4.36017e-15 -1.06472 -2.02595)
(-1.90252e-15 -0.758662 -2.13552)
(-3.53337e-15 -0.454315 -2.07571)
(-1.7244e-14 0.06485 -2.63884)
(-2.55666e-14 0.159933 -1.75804)
(-5.05016e-14 0.439433 -1.30711)
(-3.24003e-14 0.916203 -2.47138)
(-9.23578e-16 1.05777 -2.19993)
(6.60783e-15 1.44881 -2.08409)
(6.63891e-15 2.12386 -3.31576)
(3.10417e-15 2.10134 -2.71017)
(3.17073e-15 2.7081 -2.47691)
(2.36383e-15 3.08482 -4.43645)
(1.63819e-15 3.84049 -3.41219)
(1.49858e-15 3.60579 -4.593)
(1.77216e-15 4.36522 -2.17813)
(2.22716e-15 4.19015 1.23087)
(1.68055e-15 4.31045 6.21802)
(1.33985e-15 4.28152 9.20058)
(1.21296e-15 4.4749 10.4073)
(8.22145e-16 4.92329 11.0569)
(5.19758e-17 3.3305 6.54846)
(1.16117e-16 8.6456 13.1286)
(-3.39876e-16 8.64024 13.2421)
(-8.36711e-16 8.77022 13.1222)
(-1.44771e-15 8.84278 12.8482)
(-2.03323e-15 8.8477 12.4597)
(-2.64555e-15 8.83941 12.0097)
(-3.24778e-15 8.81643 11.5562)
(-3.81356e-15 8.77759 11.1592)
(-4.30704e-15 8.72133 10.8531)
(-4.63123e-15 8.64798 10.6816)
(-4.91395e-15 8.52963 10.5644)
(-4.9341e-15 8.43627 10.613)
(-5.26184e-15 8.11285 10.229)
(-3.87505e-15 8.79213 12.8973)
(-1.03804e-15 5.68766 9.45431)
(-2.55668e-17 4.72317 9.34952)
(1.69684e-16 3.60341 9.58326)
(6.19337e-15 1.54793 8.74521)
(1.20393e-14 0.734297 3.34312)
(2.20614e-14 0.105536 1.26831)
(3.55722e-14 0.542533 -0.917651)
(8.19483e-14 -0.171032 -3.90749)
(-2.19262e-15 -0.480171 -3.70037)
(2.13463e-15 0.330885 -4.02689)
(4.11156e-15 -0.927676 -3.14942)
(2.5586e-15 -0.677976 -2.02459)
(1.92254e-15 -0.168786 -0.945407)
(8.00429e-16 -0.482185 1.32649)
(-3.72997e-16 -1.78477 7.89344)
(1.26925e-17 -3.48527 9.10665)
(7.41819e-16 -4.55229 8.78994)
(1.5338e-15 -5.40698 8.88943)
(4.67873e-15 -9.23019 12.3243)
(6.13837e-15 -8.42132 9.79278)
(5.56099e-15 -8.74212 10.1097)
(5.49966e-15 -8.81684 10.0517)
(5.21885e-15 -8.92506 10.1918)
(4.94218e-15 -8.98586 10.4313)
(4.58328e-15 -9.03515 10.8374)
(4.21068e-15 -9.07228 11.353)
(3.78553e-15 -9.0982 11.9261)
(3.29728e-15 -9.11197 12.4813)
(2.78894e-15 -9.11945 12.9515)
(2.27482e-15 -9.06036 13.2816)
(1.87304e-15 -8.90629 13.4297)
(1.59788e-15 -8.93302 13.299)
(2.29291e-15 -4.42181 6.48718)
(1.29614e-15 -6.05367 9.62626)
(1.26433e-15 -5.59122 8.99543)
(1.35282e-15 -5.34182 7.96183)
(1.24003e-15 -5.31497 5.27428)
(7.83599e-16 -5.13254 0.697914)
(9.84968e-16 -5.29968 -2.3354)
(9.35037e-16 -4.43619 -4.54327)
(5.44485e-16 -4.661 -3.29056)
(3.43608e-16 -4.47677 -4.77721)
(1.27019e-15 -3.62763 -3.96018)
(1.71339e-15 -2.80097 -3.78808)
(3.82613e-15 -2.73702 -4.74968)
(5.34824e-15 -1.42919 -3.33055)
(2.75899e-15 -0.718082 -3.62274)
(6.51758e-16 -0.334532 -4.95875)
(-1.03942e-16 0.692422 -3.67269)
(-5.63051e-16 1.44505 -3.49138)
(7.46395e-16 2.12049 -4.80363)
(2.46252e-15 2.57926 -3.46815)
(3.21298e-15 3.31649 -3.43904)
(4.12579e-15 3.58477 -3.17097)
(4.01304e-15 4.81403 -4.40268)
(3.51751e-15 4.62935 -3.14005)
(3.96356e-15 5.50176 -2.82068)
(3.80472e-15 5.37503 -3.74961)
(4.24375e-15 6.56622 -3.79993)
(5.84438e-16 0.688173 0.827028)
(6.96283e-16 1.56991 0.748377)
(4.75714e-16 2.21268 0.253507)
(-2.262e-17 2.61272 -0.263832)
(-1.10626e-15 2.65751 -0.808393)
(-1.55043e-15 2.67718 -1.3691)
(-1.64519e-15 0.687146 -1.82914)
(-1.86728e-15 -2.58355 -0.937539)
(-1.68427e-15 -5.14231 -0.452985)
(-1.60953e-15 -6.12113 -0.0206391)
(-1.53778e-15 -6.68655 0.273028)
(-1.21538e-15 -7.38052 0.424653)
(-1.6691e-15 -8.20472 0.321303)
(-2.56444e-15 -7.48416 -0.171801)
(-3.49235e-15 -5.40419 -0.756639)
(-3.22005e-15 -2.82661 -1.7565)
(-2.81964e-15 -0.151099 -2.90717)
(-1.84497e-15 0.339692 -3.51125)
(-3.65343e-15 0.0451367 -4.53434)
(1.24998e-15 0.756223 0.950832)
(1.22384e-15 1.80068 0.599767)
(1.10928e-15 2.55501 0.0529669)
(6.6223e-16 2.97309 -0.668672)
(-9.09127e-16 3.04828 -1.36415)
(-1.57108e-15 3.04068 -2.19706)
(-1.49948e-15 0.620877 -2.42531)
(-1.8229e-15 -3.00366 -1.10937)
(-1.69052e-15 -5.42366 -0.388989)
(-1.60997e-15 -6.32511 0.0834966)
(-1.53196e-15 -6.79307 0.396584)
(-1.21765e-15 -7.36661 0.585045)
(-1.67685e-15 -7.98943 0.511497)
(-2.56478e-15 -7.08327 0.023954)
(-3.47956e-15 -4.77535 -0.66104)
(-3.27485e-15 -1.90669 -2.06389)
(-3.17154e-15 0.473878 -4.02816)
(-2.29638e-15 0.762866 -5.31542)
(-4.02233e-15 0.0786594 -4.88659)
(1.35998e-15 0.798174 0.204266)
(1.35852e-15 1.93255 0.259827)
(1.21413e-15 2.76908 -0.177918)
(8.80713e-16 3.22681 -0.895622)
(-8.58057e-16 3.34241 -1.65409)
(-1.55396e-15 3.16585 -2.55906)
(-1.36477e-15 0.287554 -2.34836)
(-1.72976e-15 -3.42271 -1.13686)
(-1.69088e-15 -5.68006 -0.231759)
(-1.6104e-15 -6.49108 0.269326)
(-1.52126e-15 -6.90666 0.598404)
(-1.22229e-15 -7.4172 0.842733)
(-1.69394e-15 -7.9094 0.813079)
(-2.57419e-15 -6.89044 0.354059)
(-3.4726e-15 -4.38998 -0.407289)
(-3.32901e-15 -1.18792 -2.31051)
(-3.35105e-15 1.05396 -5.02601)
(-2.8339e-15 0.805714 -6.89009)
(-3.81737e-15 -0.348011 -5.87587)
(1.44621e-15 0.711685 -0.480439)
(1.35702e-15 1.95267 -0.147889)
(1.21277e-15 2.99978 -0.456078)
(9.88279e-16 3.53578 -1.12863)
(-8.61808e-16 3.71734 -1.92189)
(-1.42969e-15 3.30175 -2.67554)
(-1.15663e-15 0.0202038 -1.99212)
(-1.58603e-15 -3.80058 -0.823531)
(-1.67998e-15 -5.952 0.063503)
(-1.61005e-15 -6.65189 0.542404)
(-1.50458e-15 -7.01971 0.870202)
(-1.23034e-15 -7.4785 1.17469)
(-1.72362e-15 -7.8411 1.20587)
(-2.60514e-15 -6.68326 0.815075)
(-3.47483e-15 -3.87919 0.0132014)
(-3.39971e-15 -0.0091992 -2.47412)
(-3.22952e-15 2.13601 -5.8814)
(-2.85461e-15 1.1023 -8.35079)
(-3.89911e-15 -1.11056 -7.19017)
(1.42087e-15 0.650344 -0.831253)
(1.31022e-15 1.9244 -0.546838)
(1.14597e-15 3.17049 -0.744887)
(9.13414e-16 3.81267 -1.32108)
(-9.47321e-16 4.01605 -2.06515)
(-1.17447e-15 3.24684 -2.2787)
(-9.38074e-16 -0.519237 -1.11899)
(-1.46238e-15 -4.16416 -0.115739)
(-1.65829e-15 -6.19923 0.500923)
(-1.60902e-15 -6.81437 0.900631)
(-1.48103e-15 -7.14726 1.22125)
(-1.24416e-15 -7.56008 1.58125)
(-1.76989e-15 -7.78243 1.69225)
(-2.6623e-15 -6.44956 1.40956)
(-3.48795e-15 -3.15284 0.567995)
(-3.31938e-15 1.50008 -3.0716)
(-2.27694e-15 3.42023 -5.4272)
(-1.56547e-15 1.47045 -7.55873)
(-3.62929e-15 -1.67759 -7.41135)
(1.40769e-15 0.593568 -0.903557)
(1.28742e-15 1.91498 -0.787631)
(1.08449e-15 3.30714 -0.985352)
(7.03124e-16 4.04965 -1.43759)
(-1.0589e-15 4.15788 -1.96753)
(-8.00803e-16 2.92038 -1.26171)
(-8.1495e-16 -1.17091 0.32608)
(-1.3717e-15 -4.35792 0.868895)
(-1.61715e-15 -6.34162 1.04401)
(-1.60558e-15 -6.95321 1.31598)
(-1.45086e-15 -7.2846 1.647)
(-1.26606e-15 -7.67206 2.05233)
(-1.83978e-15 -7.7764 2.26452)
(-2.76782e-15 -6.27689 2.16407)
(-3.52519e-15 -2.22976 1.25953)
(-1.88695e-15 2.61478 -2.07916)
(-3.29827e-16 3.89465 -0.967543)
(7.90355e-16 1.69837 -1.48802)
(-2.3886e-15 -2.78505 -4.28772)
(1.41926e-15 0.592823 -0.790843)
(1.25836e-15 1.97373 -0.875911)
(1.02224e-15 3.42791 -1.12842)
(3.89733e-16 4.19565 -1.41113)
(-1.13222e-15 4.01947 -1.47647)
(-4.11282e-16 2.25635 0.232813)
(-8.3434e-16 -1.54577 1.73366)
(-1.30065e-15 -4.37765 1.88265)
(-1.54916e-15 -6.35739 1.65851)
(-1.59156e-15 -7.06387 1.76829)
(-1.41758e-15 -7.43406 2.13306)
(-1.30053e-15 -7.81382 2.57926)
(-1.9391e-15 -7.83488 2.90334)
(-2.90702e-15 -6.11724 2.95893)
(-3.15601e-15 -1.37145 1.9543)
(-1.39353e-16 2.40233 3.34122)
(7.15932e-16 3.48779 6.17362)
(1.70288e-15 3.19947 5.8921)
(1.02032e-15 -0.112406 3.12648)
(1.42499e-15 0.624074 -0.66104)
(1.19159e-15 2.07248 -0.85208)
(9.13149e-16 3.51668 -1.12667)
(1.33053e-17 4.18084 -1.13976)
(-1.13038e-15 3.57975 -0.502559)
(-7.65309e-17 1.48361 1.71271)
(-8.36726e-16 -1.75416 2.78057)
(-1.25305e-15 -4.30966 2.75967)
(-1.46333e-15 -6.2757 2.31922)
(-1.5556e-15 -7.14817 2.27083)
(-1.38668e-15 -7.60094 2.66456)
(-1.36331e-15 -7.9856 3.15728)
(-2.10315e-15 -7.93877 3.56519)
(-3.0864e-15 -6.07059 3.75093)
(-2.4393e-15 -1.94465 4.30354)
(-6.92417e-17 1.01921 8.62852)
(3.22704e-16 2.61206 10.4687)
(1.97739e-15 1.38367 12.2471)
(4.28577e-15 -4.9976 12.827)
(1.3736e-15 0.663522 -0.51444)
(1.08028e-15 2.17401 -0.696388)
(7.15231e-16 3.53557 -0.9267)
(-3.6499e-16 3.94364 -0.526217)
(-1.13424e-15 2.94335 0.795144)
(4.12214e-16 0.822399 2.84126)
(-1.28399e-15 -1.90921 3.5723)
(-1.15174e-15 -4.20557 3.49386)
(-1.37379e-15 -6.14364 3.00648)
(-1.48617e-15 -7.20701 2.84921)
(-1.33838e-15 -7.78143 3.2333)
(-1.40127e-15 -8.17687 3.7698)
(-2.28277e-15 -8.08218 4.19489)
(-2.79656e-15 -6.38406 4.47233)
(-1.35144e-15 -3.16043 5.72649)
(-9.38828e-18 0.212842 8.34029)
(4.61165e-16 2.43854 9.00822)
(3.50034e-16 2.56821 11.4707)
(-6.67256e-17 -0.668105 12.477)
(1.23531e-15 0.697747 -0.118923)
(9.25537e-16 2.26059 -0.357142)
(4.14434e-16 3.44145 -0.461752)
(-6.69532e-16 3.4975 0.419936)
(-1.41306e-15 2.27222 2.07144)
(1.75088e-15 0.283848 3.73429)
(4.28375e-15 -1.99332 4.22998)
(-1.62075e-15 -4.09478 4.1415)
(-1.22317e-15 -6.00225 3.70513)
(-1.38466e-15 -7.24328 3.50356)
(-1.38498e-15 -7.96288 3.8377)
(-1.88034e-15 -8.37549 4.40298)
(-2.4658e-15 -8.2365 4.8182)
(-3.68782e-15 -6.6862 5.08246)
(-4.20439e-15 -3.69734 5.7589)
(2.18067e-15 -0.365936 6.05382)
(2.17965e-15 1.15613 6.80701)
(6.52485e-15 0.655313 7.01242)
(8.74955e-15 -1.56168 4.90698)
(1.04739e-15 0.78707 0.494141)
(7.29463e-16 2.34849 0.147824)
(5.2168e-17 3.21864 0.287723)
(-8.23819e-16 2.93589 1.51941)
(-2.08834e-15 1.64553 3.16727)
(-3.61822e-15 -0.109972 4.43252)
(-2.53966e-15 -2.03928 4.8056)
(-1.16852e-15 -3.99965 4.74534)
(-1.12542e-15 -5.87616 4.39935)
(-1.29832e-15 -7.26385 4.20361)
(-1.45236e-15 -8.13659 4.4751)
(-2.06074e-15 -8.57737 5.04485)
(-2.86893e-15 -8.37013 5.45712)
(-4.25069e-15 -6.82351 5.75294)
(-3.54337e-15 -3.85301 6.76216)
(-1.6745e-15 -0.553082 9.58137)
(-2.69884e-15 1.67818 11.8221)
(8.37997e-15 3.08548 10.7951)
(3.94321e-14 3.16405 6.81929)
(9.05656e-16 0.853456 0.892364)
(4.97383e-16 2.35565 0.762369)
(-3.08195e-16 2.88217 1.22134)
(-9.75937e-16 2.35293 2.58328)
(-1.36211e-15 1.11153 4.04085)
(-2.52433e-15 -0.405797 4.99298)
(-2.43327e-15 -2.09182 5.32056)
(-7.95727e-16 -3.93516 5.31477)
(-1.13187e-15 -5.77678 5.06805)
(-1.25453e-15 -7.27631 4.9081)
(-1.52499e-15 -8.29463 5.12825)
(-2.27026e-15 -8.7726 5.67085)
(-3.33081e-15 -8.5232 6.11661)
(-3.50297e-15 -7.19013 6.76713)
(-8.4027e-16 -4.81249 8.69264)
(-1.91743e-17 -1.59165 11.0733)
(-1.31922e-15 1.1847 10.949)
(-1.84483e-15 3.10038 11.5932)
(-8.07457e-16 3.8822 12.492)
(7.6517e-16 0.847835 1.21956)
(2.23179e-16 2.24014 1.49523)
(-6.38241e-16 2.47854 2.20105)
(-1.17319e-15 1.81284 3.50901)
(-1.05626e-15 0.682691 4.7198)
(-1.14226e-15 -0.62254 5.47931)
(-1.34096e-15 -2.15436 5.79675)
(-8.86621e-16 -3.90073 5.8488)
(-1.15131e-15 -5.7074 5.69547)
(-1.24403e-15 -7.2908 5.58493)
(-1.65153e-15 -8.43926 5.76754)
(-2.62739e-15 -8.97921 6.26461)
(-3.40252e-15 -8.80653 6.8551)
(-1.73965e-15 -7.81421 8.03199)
(1.12513e-15 -5.51643 9.28158)
(-2.77888e-16 -1.72977 6.3984)
(-1.51567e-15 0.902115 1.0628)
(-1.53768e-15 2.01579 3.6077)
(-2.68675e-15 5.59507 9.87924)
(6.08374e-16 0.741376 1.51658)
(-5.8598e-17 2.00348 2.29254)
(-9.31038e-16 2.06875 3.12636)
(-1.39586e-15 1.3439 4.28381)
(-1.0956e-15 0.298782 5.2708)
(-7.62723e-16 -0.845733 5.91948)
(-8.21339e-16 -2.24096 6.25079)
(-9.48446e-16 -3.89837 6.35256)
(-1.09459e-15 -5.6675 6.27553)
(-1.27355e-15 -7.3061 6.21157)
(-1.90003e-15 -8.56149 6.36626)
(-2.98433e-15 -9.21124 6.84874)
(-2.91711e-15 -9.22249 7.70479)
(-4.50091e-17 -8.17044 9.06208)
(1.41146e-15 -4.34103 7.98371)
(-1.78062e-15 1.22692 0.274526)
(-1.41266e-15 2.21303 -0.742172)
(-1.40773e-15 0.347269 -3.25759)
(-1.6599e-15 -0.881771 -0.556207)
(4.69072e-16 0.514298 1.73188)
(-2.93226e-16 1.65031 3.04995)
(-1.15991e-15 1.67419 3.96744)
(-1.65364e-15 0.974075 4.95553)
(-1.42089e-15 0.0441135 5.76535)
(-9.9372e-16 -1.00633 6.35926)
(-8.33695e-16 -2.32291 6.70853)
(-9.11709e-16 -3.90943 6.85274)
(-1.06686e-15 -5.6476 6.83238)
(-1.45033e-15 -7.32994 6.80165)
(-2.31042e-15 -8.69815 6.94057)
(-3.19725e-15 -9.53151 7.4582)
(-2.13704e-15 -9.68692 8.52665)
(9.06276e-16 -7.96743 9.40583)
(9.18285e-16 -2.22782 5.74922)
(-1.26183e-15 2.38879 -1.26388)
(-1.31765e-15 2.27443 -0.706853)
(-1.3908e-15 1.69694 -1.24258)
(-3.64337e-15 0.542452 -3.61116)
(4.35988e-16 0.165864 1.61922)
(-4.12352e-16 1.15496 3.58989)
(-1.27358e-15 1.24171 4.76536)
(-1.85284e-15 0.571415 5.64008)
(-1.86015e-15 -0.313216 6.21201)
(-1.49924e-15 -1.2375 6.76635)
(-1.20074e-15 -2.44823 7.14327)
(-1.13113e-15 -3.95341 7.32962)
(-1.33246e-15 -5.64737 7.35553)
(-1.90965e-15 -7.34813 7.34497)
(-2.83681e-15 -8.81503 7.48676)
(-3.21201e-15 -9.83235 8.06844)
(-1.39991e-15 -9.94625 9.11581)
(1.10722e-15 -7.09641 8.87556)
(5.81011e-17 0.335292 3.00666)
(-6.48798e-16 3.37642 0.0518387)
(-1.19071e-15 2.36511 -0.64573)
(-1.97724e-15 1.82902 -1.82079)
(-1.53377e-15 0.891565 -2.66168)
(5.64347e-16 -0.527577 0.52629)
(-3.36168e-16 0.551013 3.6002)
(-1.22359e-15 0.937599 5.51196)
(-1.85356e-15 0.513156 6.52854)
(-2.14738e-15 -0.349639 6.89835)
(-2.05195e-15 -1.34732 7.26236)
(-1.84576e-15 -2.53428 7.57685)
(-1.76834e-15 -3.98749 7.77021)
(-2.00468e-15 -5.6492 7.83436)
(-2.62343e-15 -7.3861 7.8611)
(-3.32546e-15 -9.00593 8.05306)
(-3.01955e-15 -10.2245 8.67852)
(-8.42835e-16 -10.0149 9.37907)
(8.47227e-16 -5.7068 7.6187)
(-9.01035e-16 1.80572 0.234419)
(-6.53107e-16 3.7316 0.611511)
(-1.23527e-15 2.95843 -0.798091)
(-2.04799e-15 2.34587 -1.90615)
(3.02358e-15 1.106 -2.47053)
(6.4981e-16 -1.36821 -0.585609)
(-1.4154e-18 -0.70292 2.81664)
(-9.18719e-16 -0.26748 6.06499)
(-1.5489e-15 -0.248243 7.44207)
(-2.0683e-15 -0.702832 7.70968)
(-2.36257e-15 -1.54775 7.87385)
(-2.44658e-15 -2.66915 8.02601)
(-2.5213e-15 -4.06757 8.15502)
(-2.79029e-15 -5.69087 8.22495)
(-3.27294e-15 -7.43464 8.29595)
(-3.528e-15 -9.11574 8.5789)
(-2.61191e-15 -10.2911 9.24161)
(-4.72032e-16 -9.40364 9.4063)
(4.58402e-16 -3.68219 6.06832)
(-1.00261e-15 2.95856 -0.681978)
(-6.58689e-16 3.72354 0.446139)
(-1.28713e-15 3.39081 -1.03605)
(-1.80129e-15 2.56705 -1.99124)
(7.81363e-16 1.12188 -2.50677)
(6.22522e-16 -1.96418 -1.55368)
(4.10957e-16 -1.94706 0.790782)
(-3.7235e-16 -0.554463 5.73902)
(-9.39405e-16 0.235101 8.78403)
(-1.61476e-15 -0.380622 9.20854)
(-2.29832e-15 -1.41296 8.92737)
(-2.78565e-15 -2.61832 8.69829)
(-3.13634e-15 -4.04831 8.56366)
(-3.46725e-15 -5.68717 8.5559)
(-3.71421e-15 -7.52202 8.75235)
(-3.44132e-15 -9.43097 9.30585)
(-2.09539e-15 -10.6963 9.97365)
(-2.60062e-16 -8.9688 9.11596)
(6.06667e-17 -1.6157 4.01254)
(-8.50113e-16 3.99681 -0.219663)
(-6.55081e-16 3.89649 0.184291)
(-1.32482e-15 3.84752 -1.17804)
(-1.70047e-15 2.89153 -2.0459)
(-1.79832e-15 1.3261 -2.74265)
(4.19123e-16 -2.339 -2.55116)
(4.92172e-16 -3.65302 -1.58303)
(2.24971e-16 -3.89477 2.44776)
(-1.62709e-16 -2.2184 8.23588)
(-4.62072e-16 -1.00444 10.3737)
(-1.10756e-15 -1.41862 10.5985)
(-1.79877e-15 -2.53948 10.4935)
(-2.36067e-15 -4.01277 10.3261)
(-2.74769e-15 -5.77422 10.2907)
(-2.80636e-15 -7.73817 10.4707)
(-2.30646e-15 -9.53561 10.7642)
(-1.21221e-15 -9.92464 10.4584)
(-2.26742e-16 -6.57631 7.88007)
(-4.04405e-16 0.732943 2.0308)
(-8.08079e-16 4.48459 0.164884)
(-6.57547e-16 4.32612 0.0362368)
(-1.36036e-15 4.4339 -1.25697)
(-1.77792e-15 3.38935 -2.09056)
(-2.26427e-15 1.5586 -3.03918)
(1.92015e-15 4.79521 8.76083)
(4.44531e-15 11.6289 21.3868)
(2.82416e-15 18.3215 32.1885)
(2.42538e-15 19.7166 33.7536)
(2.60862e-15 18.7831 31.1823)
(2.82804e-15 17.4618 27.9981)
(2.50009e-15 16.1951 25.2381)
(2.12673e-15 15.1876 22.92)
(1.92782e-15 14.2269 20.7501)
(2.02891e-15 13.2452 18.66)
(1.75734e-15 12.2287 16.6131)
(1.60413e-15 11.1705 14.6005)
(1.34917e-15 10.0653 12.6319)
(9.95172e-16 8.92199 10.708)
(5.33556e-16 7.71395 8.83446)
(-2.21452e-17 6.46166 6.97585)
(-5.89602e-16 5.03398 5.1308)
(-1.45227e-15 3.59174 3.16137)
(-3.12408e-15 1.49165 1.10303)
(-7.18547e-15 -0.117803 -2.20716)
(-1.01528e-15 -0.152077 -0.0590591)
(4.42166e-15 9.98694 15.68)
(3.01161e-15 18.0573 29.4849)
(2.3106e-15 19.9406 33.1464)
(2.50181e-15 18.8229 31.3587)
(2.96924e-15 17.2691 28.7246)
(2.90877e-15 16.0111 26.4883)
(2.83825e-15 14.8801 24.4083)
(2.92848e-15 13.7061 22.2683)
(3.46916e-15 12.4725 20.0269)
(3.58769e-15 11.1783 17.7228)
(4.03972e-15 9.833 15.3647)
(4.39984e-15 8.41931 12.9621)
(5.30807e-15 6.94306 10.5108)
(6.22548e-15 5.36393 8.01787)
(7.18471e-15 3.71881 5.42783)
(7.83021e-15 1.82605 2.73116)
(9.93069e-15 0.0241888 -0.260024)
(9.98175e-15 -2.55005 -2.95319)
(-9.26607e-16 -2.48621 -6.55302)
(-1.42938e-16 7.34134 12.9632)
(5.69696e-16 16.4218 25.1197)
(6.42099e-16 20.0411 30.5642)
(5.12052e-16 20.0162 31.2262)
(4.83822e-16 18.4252 29.4314)
(1.14266e-15 16.7961 27.3081)
(9.65928e-16 15.2661 25.3312)
(1.14487e-15 13.729 23.2498)
(1.41191e-15 12.0779 21.0267)
(1.74055e-15 10.4009 18.7047)
(2.32302e-15 8.71759 16.3484)
(2.88475e-15 7.0228 13.9193)
(4.01613e-15 5.28153 11.396)
(5.73842e-15 3.50579 8.77848)
(7.96761e-15 1.70858 6.11011)
(7.99216e-15 -0.0286308 3.41885)
(4.05477e-15 -1.66691 0.660546)
(6.93321e-16 -3.18693 -2.06974)
(4.42757e-17 -3.98987 -3.99308)
(-1.53701e-15 -2.20496 -2.95152)
(4.70219e-17 11.4826 19.9112)
(-1.87997e-16 19.2069 31.6152)
(-2.37373e-16 18.2411 30.1716)
(-2.02277e-16 15.6671 26.5001)
(-2.68758e-16 13.8351 24.3762)
(3.28097e-16 12.6364 23.0123)
(4.95576e-16 11.2312 21.4189)
(8.01897e-16 9.67649 19.4523)
(1.0992e-15 8.01065 17.3631)
(1.52486e-15 6.33581 15.2038)
(2.10159e-15 4.61938 13)
(2.89682e-15 2.88805 10.7414)
(4.2269e-15 1.16254 8.45266)
(6.1917e-15 -0.46674 6.20328)
(8.62202e-15 -1.81252 4.20709)
(9.22688e-15 -2.51106 2.89862)
(6.13507e-15 -2.04742 2.91954)
(2.00978e-15 -0.0142017 4.74102)
(7.68794e-16 2.95091 7.63739)
(1.01551e-15 3.55871 7.79894)
(-9.00586e-18 12.0151 20.9147)
(4.48672e-17 17.1804 30.0188)
(5.17697e-17 14.5962 26.0146)
(4.72964e-17 12.7814 23.1219)
(-5.86409e-18 11.6321 21.6594)
(-2.63496e-16 10.5571 20.1521)
(-2.82721e-16 9.22674 18.4304)
(-3.43872e-16 7.8414 16.4484)
(-4.03442e-16 6.35879 14.3412)
(-4.46654e-16 4.86988 12.117)
(-3.82918e-16 3.38989 9.87985)
(-3.14749e-16 2.03381 7.77451)
(-7.0206e-16 0.955366 6.06082)
(-1.9346e-15 0.422359 5.13574)
(-3.57994e-15 0.820802 5.57061)
(-4.37992e-15 2.44698 7.80738)
(-3.54819e-15 5.1285 11.5625)
(-1.63787e-15 7.99585 15.4501)
(-6.9993e-17 9.71014 17.0649)
(1.853e-16 6.82433 12.7782)
(8.56407e-19 10.2403 17.8724)
(-7.42374e-18 16.5933 29.3004)
(-7.62044e-18 15.3247 26.8281)
(-6.81656e-18 13.6748 23.4543)
(4.14334e-18 12.2278 21.0292)
(5.86589e-17 11.2583 19.097)
(5.80389e-17 10.2856 17.5049)
(6.29245e-17 9.44349 15.856)
(6.00732e-17 8.55689 14.2056)
(5.20373e-17 7.73815 12.5143)
(3.98834e-17 6.96099 10.8413)
(3.41957e-17 6.27608 9.2519)
(1.54232e-17 5.81394 7.98373)
(-7.88473e-17 5.69861 7.33952)
(-2.34352e-16 6.11189 7.67945)
(-2.14963e-16 7.02073 9.12457)
(1.48628e-16 8.23531 11.2907)
(6.49263e-16 9.03714 13.4472)
(7.38499e-16 9.05263 14.0657)
(2.11911e-16 6.34555 10.993)
(-3.27615e-20 9.22865 16.0509)
(8.86953e-19 17.4786 30.3363)
(7.49654e-19 16.5917 28.801)
(5.64205e-19 14.6936 24.8458)
(-1.02661e-18 13.1169 22.2203)
(-8.32992e-18 12.2686 20.28)
(-7.80623e-18 11.4766 18.7946)
(-7.00495e-18 10.8339 17.3596)
(-4.56754e-18 10.1917 15.9854)
(3.55828e-19 9.59812 14.6365)
(5.86144e-18 9.03214 13.2997)
(7.01763e-18 8.48047 11.9492)
(4.68203e-18 7.93085 10.5737)
(1.06637e-17 7.40237 9.2702)
(4.26448e-17 6.97318 8.24799)
(1.17092e-16 6.71397 7.78791)
(2.3018e-16 6.64671 7.99883)
(3.00787e-16 6.58077 8.56796)
(1.88146e-16 5.98472 8.64695)
(-4.68612e-17 3.76663 5.57833)
(-5.82761e-21 9.27226 15.915)
(-2.22005e-20 18.1622 30.7787)
(4.06878e-20 17.303 29.7585)
(8.85439e-20 15.4088 25.7358)
(2.31888e-19 13.8117 23.197)
(7.41383e-19 12.9887 21.2861)
(3.52464e-19 12.1638 19.7678)
(-8.45788e-20 11.4463 18.2598)
(-7.99686e-19 10.712 16.8063)
(-2.06335e-18 10.0007 15.3958)
(-3.43652e-18 9.31146 14.0433)
(-3.73881e-18 8.6407 12.7466)
(-2.70812e-18 7.98311 11.4895)
(-2.34908e-18 7.32824 10.2433)
(-5.90782e-18 6.65218 9.00353)
(-1.7547e-17 5.97818 7.80303)
(-4.47619e-17 5.24745 6.7458)
(-9.44665e-17 4.52402 5.74619)
(-1.43334e-16 3.26854 4.54581)
(-1.44967e-16 1.18883 0.684364)
(2.66805e-21 10.5377 18.0869)
(-3.40662e-20 19.1808 31.6956)
(-5.71293e-20 17.8307 30.3565)
(-7.07507e-20 16.0757 26.3655)
(-6.5206e-20 14.4824 24.0551)
(4.96347e-20 13.7462 22.1808)
(2.42416e-19 12.8827 20.6719)
(3.92468e-19 12.1576 19.1061)
(5.78761e-19 11.3868 17.5862)
(8.64299e-19 10.6244 16.0551)
(1.16086e-18 9.8395 14.5246)
(1.27273e-18 9.02698 12.9963)
(1.17045e-18 8.18197 11.483)
(1.17097e-18 7.31184 9.98902)
(1.69196e-18 6.39221 8.51517)
(3.12474e-18 5.44166 7.01251)
(6.46305e-18 4.33686 5.46188)
(1.40412e-17 3.17538 3.65989)
(3.32351e-17 1.24653 1.39492)
(6.25287e-18 -0.292968 -2.32838)
(-9.12e-22 12.8696 22.4559)
(1.55262e-20 20.372 32.9437)
(2.40445e-20 17.8439 30.5132)
(2.83342e-20 16.6295 26.8982)
(2.25818e-20 15.084 25.0893)
(-4.3464e-20 14.573 23.2673)
(-1.19194e-19 13.6659 21.8457)
(-1.69041e-19 13.0492 20.2829)
(-2.121e-19 12.2949 18.7794)
(-2.66343e-19 11.5428 17.1509)
(-3.22038e-19 10.6781 15.4267)
(-3.58434e-19 9.72065 13.595)
(-3.80403e-19 8.66316 11.696)
(-4.25709e-19 7.52705 9.7516)
(-5.14001e-19 6.29514 7.78957)
(-6.2025e-19 4.99871 5.77476)
(-7.79704e-19 3.49711 3.70364)
(-1.0773e-18 1.94491 1.29206)
(-1.56004e-18 -0.52375 -1.41008)
(2.70992e-17 -1.74939 -5.22274)
(2.85913e-22 15.3735 27.7328)
(-5.13595e-21 20.6664 33.1786)
(-7.97423e-21 17.0289 30.1831)
(-9.2693e-21 16.7958 27.3898)
(-7.64396e-21 15.1247 26.1833)
(1.34404e-20 14.9238 24.4147)
(3.76734e-20 13.8711 23.2445)
(5.35521e-20 13.448 21.7691)
(6.4042e-20 12.606 20.358)
(7.40131e-20 11.7988 18.571)
(8.41801e-20 10.6881 16.5636)
(9.43206e-20 9.44817 14.3092)
(1.05888e-19 8.03941 11.9368)
(1.20501e-19 6.53563 9.48482)
(1.31116e-19 4.9124 6.97193)
(1.14931e-19 3.18955 4.34655)
(2.9786e-20 1.27453 1.70914)
(6.19159e-20 -0.509808 -1.4154)
(-3.86959e-18 -3.0217 -3.95328)
(1.89969e-17 -3.19631 -7.93031)
(-7.39881e-23 16.5263 30.7901)
(1.60716e-21 19.2256 31.178)
(2.41517e-21 15.6733 29.2396)
(2.76245e-21 16.0487 27.0854)
(1.95617e-21 14.0695 26.1355)
(-5.0695e-21 13.9313 24.4221)
(-1.20727e-20 12.631 23.4986)
(-1.53969e-20 12.1865 22.1013)
(-1.61288e-20 11.0003 20.6982)
(-1.54443e-20 9.89955 18.6358)
(-1.20855e-20 8.31144 16.2522)
(-5.70245e-21 6.65765 13.4926)
(6.16687e-22 4.82594 10.6324)
(5.3378e-21 3.00353 7.73548)
(-2.8828e-21 1.12541 4.76106)
(-9.1432e-20 -0.731098 1.82954)
(-2.69959e-19 -2.11867 -0.451264)
(7.06172e-20 -3.43514 -2.85503)
(2.37974e-18 -5.04344 -5.62904)
(7.19972e-18 -3.09905 -4.96617)
(1.19794e-23 15.8458 29.9754)
(-4.9078e-22 17.6156 28.8498)
(-7.08998e-22 14.6338 27.7773)
(-8.49601e-22 14.8211 25.4873)
(-4.68709e-22 12.7569 24.4919)
(1.5931e-21 12.3999 22.7521)
(3.59629e-21 10.9821 21.7496)
(4.90111e-21 10.2353 20.3282)
(5.82387e-21 8.87694 18.8623)
(7.96114e-21 7.54287 16.8496)
(1.47874e-20 5.85955 14.5076)
(2.76871e-20 4.10785 11.8033)
(3.72452e-20 2.26658 8.98406)
(1.27472e-20 0.544376 6.27059)
(-1.09371e-19 -0.988266 3.81899)
(-3.71744e-19 -2.20553 1.67457)
(-5.86843e-19 -2.7227 0.318718)
(-3.21021e-19 -1.69704 0.937876)
(4.37024e-19 1.01489 4.04673)
(5.25353e-19 2.81602 6.72449)
(-1.54064e-25 14.8665 28.3532)
(1.38741e-22 17.5498 28.0822)
(2.00089e-22 14.0531 26.6375)
(2.13176e-22 14.5667 23.8968)
(-4.56647e-23 12.2515 22.9203)
(-7.67183e-22 12.0539 20.7979)
(-1.26802e-21 10.4779 19.5655)
(-1.35284e-21 9.759 17.8869)
(-1.2266e-21 8.51176 16.4406)
(-3.93278e-22 7.46889 14.728)
(4.03852e-21 6.23552 12.8909)
(1.55405e-20 5.00266 10.7706)
(2.44874e-20 3.73093 8.47229)
(-1.15406e-20 2.63598 6.27522)
(-1.41359e-19 2.02362 4.7866)
(-3.16175e-19 2.34843 4.84082)
(-3.70279e-19 3.74237 6.69121)
(-2.33835e-19 5.5173 9.21617)
(-5.81424e-20 6.86183 10.7148)
(2.75463e-20 5.14642 9.52631)
(1.20533e-25 14.8562 28.6436)
(-3.32688e-23 18.3324 28.4914)
(-4.5793e-23 14.3628 27.0116)
(-5.20218e-23 15.2954 24.0292)
(-1.75285e-23 12.9575 23.0794)
(8.7567e-23 12.9434 20.8548)
(9.26653e-23 11.5288 19.4805)
(-4.55594e-23 10.921 17.7079)
(-2.37592e-22 9.96275 16.2193)
(-4.73875e-22 9.23117 14.7264)
(-1.02679e-21 8.50107 13.356)
(-2.19185e-21 7.86766 12.0395)
(-3.31442e-21 7.28498 10.7328)
(-1.50034e-21 6.72761 9.3636)
(6.89827e-21 6.1793 7.9316)
(2.17782e-20 5.65598 6.6313)
(4.27967e-20 5.22473 5.72186)
(7.52165e-20 4.77615 5.29578)
(1.2164e-19 3.99766 4.9009)
(1.55448e-19 2.35841 2.97809)
(-4.78008e-26 15.3209 30.0218)
(8.16563e-24 18.9231 29.0142)
(1.17513e-23 14.7315 27.8587)
(6.7491e-24 15.886 24.9616)
(-2.58778e-23 13.6117 23.9933)
(-9.54395e-23 13.5749 21.924)
(-1.56559e-22 12.3809 20.5473)
(-1.88512e-22 11.7843 18.9095)
(-2.11049e-22 10.9984 17.4286)
(-2.39679e-22 10.3088 15.9426)
(-2.66897e-22 9.62909 14.5018)
(-3.38642e-22 8.96566 13.0885)
(-5.87955e-22 8.2974 11.6823)
(-1.11286e-21 7.59351 10.2385)
(-1.71145e-21 6.77834 8.68822)
(-2.07462e-21 5.8145 6.96089)
(-1.56166e-21 4.59409 5.12927)
(-3.47444e-22 3.25388 3.06881)
(-7.01714e-21 1.2305 0.732106)
(1.69552e-20 -0.237125 -2.55287)
(3.47126e-27 15.3796 31.1243)
(-1.11886e-24 18.9154 28.6679)
(-1.03148e-24 14.4755 28.2156)
(-6.55952e-24 15.9 25.4278)
(-2.49618e-23 13.537 24.5463)
(-5.28353e-23 13.5342 22.5982)
(-7.64005e-23 12.3628 21.3238)
(-7.96135e-23 11.8311 19.8034)
(-7.90578e-23 11.0934 18.4598)
(-1.3083e-22 10.4978 17.0961)
(-2.38739e-22 9.89977 15.7717)
(-2.05468e-22 9.32132 14.4174)
(4.19339e-22 8.67776 12.9494)
(2.17288e-21 7.86211 11.2001)
(5.30189e-21 6.6912 8.97635)
(8.73062e-21 5.02806 6.11733)
(9.28402e-21 3.07238 3.32058)
(7.05467e-21 1.31631 0.869133)
(8.95627e-22 -1.41153 -1.89873)
(-1.2635e-20 -2.17635 -6.13389)
(-2.21994e-26 14.3826 31.0052)
(7.44704e-25 18.3321 28.013)
(1.46523e-24 13.6368 27.9401)
(-2.10959e-24 14.6026 25.573)
(-1.50836e-23 12.5269 24.6435)
(-3.27237e-23 12.1072 23.0514)
(-4.09023e-23 11.0186 21.8514)
(-4.34694e-23 10.3341 20.5414)
(-8.23884e-23 9.56466 19.3486)
(-2.04816e-22 8.92432 18.1683)
(-3.29907e-22 8.30229 17.025)
(-5.60472e-23 7.69121 15.8112)
(1.43381e-21 6.95083 14.3348)
(5.20503e-21 5.88078 12.2346)
(1.18161e-20 4.13944 8.95892)
(1.79349e-20 1.30393 3.82976)
(1.20447e-20 -1.89718 -2.27223)
(-1.41059e-21 -2.88956 -4.33842)
(-1.08709e-21 -4.12373 -5.34483)
(-4.36432e-21 -2.95148 -6.46256)
(-6.30445e-26 11.2707 28.5873)
(5.01088e-26 17.0188 25.1561)
(1.09758e-24 12.0427 25.5417)
(2.17324e-24 12.63 23.8733)
(1.16966e-24 10.8841 23.1527)
(-1.30357e-24 10.1819 22.0965)
(-2.36905e-24 9.15997 21.2102)
(-8.73878e-24 8.34938 20.2912)
(-4.80035e-23 7.54425 19.4129)
(-1.47113e-22 6.81855 18.5461)
(-2.49971e-22 6.13365 17.6863)
(-1.02605e-22 5.46861 16.7751)
(7.78338e-22 4.75513 15.6833)
(2.90733e-21 3.90242 14.2019)
(6.36749e-21 2.83166 12.109)
(1.02771e-20 1.58375 9.28253)
(1.26518e-20 0.379946 5.85377)
(1.17299e-20 -0.606067 2.42255)
(8.71518e-21 -1.34647 -0.394669)
(3.67795e-21 -1.20911 -1.93268)
(-2.44862e-26 2.60931 17.036)
(4.83014e-26 8.04143 13.6835)
(5.5443e-25 5.17442 14.5382)
(1.69623e-24 4.97728 14.155)
(3.06032e-24 4.05062 14.1211)
(4.38843e-24 3.47827 13.9547)
(6.95333e-24 2.89413 13.8052)
(1.24416e-23 2.41314 13.6241)
(1.54112e-23 1.99271 13.426)
(-9.54653e-24 1.6462 13.2098)
(-1.14978e-22 1.37404 12.9871)
(-3.6315e-22 1.18708 12.7752)
(-7.74969e-22 1.09531 12.5906)
(-1.27195e-21 1.11476 12.4232)
(-1.67116e-21 1.25708 12.2191)
(-1.77175e-21 1.47522 11.9157)
(-1.49463e-21 1.7957 11.4025)
(-9.74343e-22 2.5083 10.378)
(-4.76111e-22 2.74715 8.87566)
(-1.16146e-22 -0.138603 6.72161)
(2.38113e-26 -2.60924 17.0358)
(-4.90392e-26 -8.0414 13.6833)
(-5.47148e-25 -5.17441 14.5381)
(-1.66949e-24 -4.97731 14.1548)
(-3.00533e-24 -4.05067 14.1209)
(-4.31029e-24 -3.47835 13.9545)
(-6.92321e-24 -2.89423 13.8049)
(-1.26921e-23 -2.41326 13.6238)
(-1.62574e-23 -1.99286 13.4257)
(8.48328e-24 -1.64638 13.2095)
(1.16658e-22 -1.37426 12.9869)
(3.75442e-22 -1.18739 12.775)
(8.10986e-22 -1.09571 12.5906)
(1.34516e-21 -1.11524 12.4232)
(1.78469e-21 -1.25756 12.2189)
(1.90802e-21 -1.47563 11.9153)
(1.61823e-21 -1.79597 11.4019)
(1.05516e-21 -2.50831 10.3773)
(5.12837e-22 -2.74691 8.87504)
(1.2444e-22 0.138801 6.72111)
(6.15152e-26 -11.2705 28.5869)
(-4.18692e-26 -17.0185 25.1558)
(-1.06849e-24 -12.0424 25.5414)
(-2.14508e-24 -12.6297 23.873)
(-1.23445e-24 -10.8838 23.1525)
(9.60787e-25 -10.1815 22.0963)
(1.45498e-24 -9.15955 21.21)
(7.10723e-24 -8.3489 20.291)
(4.66232e-23 -7.54371 19.4128)
(1.49071e-22 -6.81794 18.5461)
(2.58059e-22 -6.13292 17.6863)
(1.07558e-22 -5.46769 16.775)
(-8.20893e-22 -4.75391 15.6829)
(-3.09664e-21 -3.90095 14.2011)
(-6.83546e-21 -2.83033 12.1081)
(-1.10853e-20 -1.58343 9.28252)
(-1.36434e-20 -0.381433 5.85593)
(-1.25499e-20 0.602738 2.42768)
(-9.20498e-21 1.34283 -0.389447)
(-3.87295e-21 1.20748 -1.92913)
(2.39597e-26 -14.3828 31.0053)
(-7.50745e-25 -18.3319 28.0134)
(-1.47921e-24 -13.6369 27.9404)
(2.03697e-24 -14.6024 25.5735)
(1.48344e-23 -12.5268 24.6441)
(3.20128e-23 -12.107 23.0521)
(3.92013e-23 -11.0183 21.8522)
(4.05008e-23 -10.3338 20.5424)
(7.94752e-23 -9.5643 19.3497)
(2.06464e-22 -8.92392 18.1697)
(3.4113e-22 -8.30181 17.0265)
(6.59819e-23 -7.69046 15.8125)
(-1.48938e-21 -6.94943 14.3353)
(-5.49554e-21 -5.87821 12.2333)
(-1.26118e-20 -4.13476 8.95425)
(-1.92092e-20 -1.29697 3.82073)
(-1.25674e-20 1.90136 -2.2774)