/*--------------------------------*- C++ -*----------------------------------*\
| =========                 |                                                 |
| \\      /  F ield         | OpenFOAM: The Open Source CFD Toolbox           |
|  \\    /   O peration     | Version:  4.1                                   |
|   \\  /    A nd           | Web:      www.OpenFOAM.org                      |
|    \\/     M anipulation  |                                                 |
\*---------------------------------------------------------------------------*/
FoamFile
{
    version     2.0;
    format      ascii;
    class       volScalarField;
    location    "17";
    object      nut;
}
// * * * * * * * * * * * * * * * * * * * * * * * * * * * * * * * * * * * * * //

dimensions      [0 2 -1 0 0 0 0];

internalField   nonuniform List<scalar> 
1280
(
6.59267
11.8933
6.59442
6.68214
12.4039
6.78931
6.83231
7.0382
13.5101
7.59983
7.77584
15.0228
8.42447
8.54563
16.4968
9.32559
9.51221
18.8278
10.6639
10.7317
0.47555
0.47874
0.541174
0.657727
0.815613
1.04431
1.13223
1.31583
1.60601
1.85152
2.06549
2.26749
2.45827
2.66262
2.82019
2.94492
3.02814
3.07277
3.09952
2.74048
35.4256
19.4284
18.994
18.5545
31.502
16.0305
15.3696
15.0367
27.2836
14.5133
14.4951
27.168
14.9038
15.1879
15.7926
31.0069
18.2371
18.6407
19.0458
34.7466
2.64159
2.9522
2.95775
2.91325
2.83744
2.72006
2.56879
2.37209
2.18251
1.98886
1.77543
1.52946
1.25068
1.09034
1.0196
0.787408
0.645565
0.537127
0.477951
0.462486
10.5823
10.5107
18.6083
9.31329
9.08972
16.0451
8.22919
8.07315
14.3417
7.37722
7.20269
12.7527
6.62838
6.42797
6.37438
11.6343
6.27472
6.20405
11.1891
6.18331
104.008
98.0883
63.0801
35.146
19.8627
14.4439
13.5456
15.6783
24.6182
46.1525
89.5624
110.833
80.8958
44.9476
28.8855
24.4012
23.5554
23.495
20.8839
108.818
109.617
68.9854
36.8534
20.9218
15.8049
14.6727
16.0735
27.3066
62.2393
110.682
125.948
86.1395
44.2769
25.5148
23.6028
24.4836
25.859
24.5987
113.417
121.856
79.691
43.1295
24.2934
17.4045
13.6162
15.5003
31.9246
90.1142
131.054
139.775
88.9733
37.6623
19.6329
22.5891
26.361
28.8218
28.385
109.569
127.17
84.965
42.9322
22.2088
14.5525
11.1971
16.1155
42.2918
120.178
147.65
144.699
85.9634
27.5246
14.7506
22.6398
28.4339
32.2725
29.9889
97.8416
118.53
88.9273
49.0085
25.0426
14.5254
11.7959
20.4532
52.1269
130.529
166.165
139.822
75.1085
18.928
12.4095
22.8401
29.6756
31.662
25.8465
80.5371
97.4838
77.152
44.2352
24.4035
15.3091
16.7876
31.885
60.9147
114.631
165.23
132.002
59.6742
14.0114
12.4311
26.3572
37.9635
35.9002
15.5298
64.8317
74.4451
64.5756
40.4002
25.1116
20.2021
25.4433
43.1525
61.8685
81.9914
116.844
104.659
46.3972
13.1348
18.1227
35.7652
42.3444
37.8674
3.32351
53.8465
56.2676
52.0942
37.2516
30.1348
29.3653
36.0171
45.3831
52.7376
57.8956
63.2292
63.4017
33.8143
24.6873
39.5519
43.2333
26.2223
13.602
9.79714
49.8138
48.8183
46.3525
39.94
38.2934
38.5212
42.5766
41.3764
43.0832
45.9806
45.2443
42.6044
44.7469
52.5606
47.1716
30.0332
17.9761
16.6174
18.694
48.8599
46.3432
43.9944
42.0012
43.0839
44.2831
40.5828
35.6488
41.3735
48.6993
47.6256
43.7638
45.4028
45.1002
30.5582
19.9493
17.9854
18.9858
22.859
49.5575
46.7204
44.1184
42.0993
43.6122
44.2391
38.9915
32.7225
35.7721
42.1062
42.3758
45.3537
64.1206
53.1345
30.5958
19.2895
18.4423
19.8018
23.5091
49.7862
48.453
46.2375
42.318
42.0457
41.207
40.2455
37.137
38.9901
45.1774
52.3719
53.5745
62.9806
81.894
50.7501
25.7476
17.145
17.2933
19.4819
51.8919
52.8839
50.1548
42.3023
36.6788
33.6891
36.0959
45.9048
58.1992
80.5833
97.7959
56.8875
29.8815
52.9012
70.7039
42.8588
23.2702
14.8587
10.416
56.7978
65.0055
62.0872
48.1295
33.9048
26.4117
28.0479
43.7325
76.0288
139.121
150.535
77.7124
18.0672
19.767
46.9584
54.6332
53.3554
42.9302
3.53935
70.5155
90.4442
83.5316
63.2464
40.1495
25.6647
22.2229
33.3951
80.2562
172.762
169.934
84.7984
17.9668
9.65397
23.1094
42.6447
57.4142
49.052
16.9272
87.6149
120.026
105.568
76.7237
47.4715
30.191
23.1163
31.2289
71.5656
153.085
155.659
89.5823
22.3293
8.14884
16.5256
29.2631
38.5917
38.8256
29.1206
103.251
142.396
117.419
79.5754
47.6255
32.805
28.0083
34.6428
61.2669
123.755
145.461
94.9854
28.4423
9.83599
14.54
26.1717
32.8689
38.4533
35.5968
113.715
150.137
115.772
76.9591
46.7561
33.7705
31.5122
37.9102
55.3473
100.907
133.928
98.8374
36.6816
13.333
15.0028
24.5056
28.8382
32.7786
32.2831
116.576
141.247
104.346
69.4694
42.505
31.407
31.0825
37.4133
50.8971
84.4339
120.543
98.7283
44.908
18.2042
16.8911
22.684
25.952
28.7934
26.549
114.399
129.047
95.4314
65.371
40.4243
29.0478
28.2012
33.9348
44.9727
70.9181
107.227
95.6461
49.967
23.5333
20.0546
22.2427
23.1967
24.8218
21.5296
0.655652
2.58251
1.61244
2.91903
5.85998
8.46892
9.69542
9.67655
9.02785
8.18724
7.38504
6.84812
6.53445
6.27618
6.12067
5.99353
5.69582
5.07126
3.67033
0.53594
0.623032
2.5474
1.431
3.48558
7.28513
10.0811
10.5495
9.56652
8.41686
7.46412
6.77012
6.35969
6.13951
6.06508
6.05267
6.04934
5.90574
5.52863
4.25626
0.5089
0.607336
2.28756
1.42954
3.20955
6.62848
9.95837
10.0347
8.65034
7.55458
6.90295
6.49927
6.253
6.14717
6.14845
6.19649
6.27114
6.22127
5.90113
4.50888
0.51888
0.581016
2.01135
0.971104
2.4774
4.95509
8.22275
9.07292
8.06982
7.03469
6.40251
6.15884
6.10144
6.18743
6.36495
6.54921
6.73021
6.76461
6.54298
5.07418
0.502291
0.555598
1.78833
0.794848
1.91813
3.16974
6.36725
7.6536
7.09539
6.35972
5.89317
5.73566
5.81656
6.00681
6.2851
6.58803
6.89955
7.0366
6.82241
5.10877
0.49716
0.520249
1.73547
0.446101
0.890103
1.25113
5.03805
7.08924
7.57353
6.73363
5.84471
5.42924
5.39214
5.59822
5.96662
6.37716
6.80095
7.01043
6.79253
5.03539
0.492773
0.47051
2.3827
0.330851
0.261048
0.495149
3.42588
5.89957
7.16019
6.64436
5.48083
4.91072
4.817
5.00057
5.37461
5.82809
6.31344
6.53967
6.21943
4.62961
0.492082
0.439715
1.86627
0.226373
0.072114
0.215005
2.18616
5.83434
7.49988
6.01242
4.73606
4.31796
4.27327
4.4344
4.75483
5.15648
5.60344
5.8032
5.41649
4.07838
0.510871
0.445118
1.07897
0.108447
0.0207733
0.112694
1.26323
3.78228
5.99428
4.79286
3.87485
3.66063
3.75152
3.9929
4.36092
4.79437
5.24284
5.47911
5.12666
3.80422
0.539004
0.465311
0.306809
0.0249441
0.0222852
0.466386
2.66486
7.15377
6.74486
4.27627
3.59576
3.5444
3.72166
4.04909
4.50252
5.06586
5.66964
6.14626
6.02631
4.3369
0.551929
0.465487
0.146092
0.00471213
0.00618591
0.238572
1.02024
4.42512
7.01566
5.98019
5.55383
5.25841
5.17595
5.39368
5.99353
6.96996
7.98324
8.49413
7.77747
4.9053
0.483921
0.444999
0.0429492
0.0295121
0.0918557
413.629
12.0318
13.219
14.5128
14.0214
12.6018
11.3804
10.3847
9.5505
8.67387
7.4708
5.69053
4.03441
3.16756
3.96744
0.228593
0.426859
0.0376734
0.0116394
0.0255161
4.66453
13.4981
29.9398
14.3631
14.153
13.669
12.4724
11.2975
10.3924
9.16976
6.28907
2.53074
0.91672
2.14617
4.48339
2.025e-16
0.417243
0.0405504
0.00841223
0.00410072
2.25024
1.77966
28.6639
4.54047
5.49271
6.49157
7.60893
8.55788
8.85669
5.29375
11.5367
4.67874
6.38561
1.75408
3.33627e-11
0.035852
0.398298
0.0424103
0.00876606
0.00526831
0.00644465
0.0248116
0.0154511
0.328284
0.715263
0.444756
0.43689
0.422878
0.423506
0.22655
3.39076
7.1964
6.18156
0.209902
0.00778835
0.0518674
0.372927
0.0436069
0.0119203
0.000683648
0.000216811
9.91707e-05
3.70961e-05
9.81555e-06
1.34102e-05
1.63993e-05
2.1564e-05
2.668e-05
2.25216e-05
2.21353e-05
3.76662e-06
1.63476e-05
0.000108908
0.000321638
0.00221344
0.0398074
0.340138
0.00675307
7.65143e-06
6.70065e-10
1.22878e-11
2.23091e-12
5.77669e-12
5.60905e-12
3.17906e-12
2.91991e-12
2.31877e-12
3.09807e-12
3.51155e-12
3.61308e-10
9.45606e-07
8.94787e-05
0.000121099
0.00011033
0.00404372
0.0473618
0.302232
0.00135743
1.73991e-10
4.11109e-11
2.59316e-11
2.39447e-11
3.42507e-11
3.14398e-11
2.56951e-11
2.32034e-11
2.03029e-11
1.89142e-11
9.28871e-11
2.35513e-07
9.7451e-05
0.00134488
0.00839911
0.0178663
0.00831709
0.0540892
0.277852
1.28905e-05
9.8328e-10
9.21626e-10
8.98994e-10
8.642e-10
8.36401e-10
8.07397e-10
7.79654e-10
7.52208e-10
7.25374e-10
6.97708e-10
6.65538e-10
6.23147e-10
5.65831e-10
7.39402e-10
1.03468e-07
2.54571e-05
0.001172
0.146345
0.262857
6.89789e-08
6.38722e-08
6.39e-08
6.38926e-08
6.39135e-08
6.39038e-08
6.38777e-08
6.38807e-08
6.38798e-08
6.38991e-08
6.38915e-08
6.38697e-08
6.38951e-08
6.38969e-08
6.3899e-08
6.38472e-08
6.26727e-08
2.61979e-07
0.291617
0.262857
6.89773e-08
6.38719e-08
6.39009e-08
6.38973e-08
6.39016e-08
6.3905e-08
6.39014e-08
6.38832e-08
6.39043e-08
6.38925e-08
6.3872e-08
6.3885e-08
6.38866e-08
6.38881e-08
6.38994e-08
6.38481e-08
6.26724e-08
2.61833e-07
0.29154
0.277848
1.29237e-05
9.83257e-10
9.21646e-10
8.99033e-10
8.64251e-10
8.36443e-10
8.07489e-10
7.79741e-10
7.52279e-10
7.25468e-10
6.97766e-10
6.65611e-10
6.23522e-10
5.67823e-10
9.94259e-10
2.15102e-07
3.18437e-05
0.0010549
0.140265
0.302211
0.00125385
1.74198e-10
4.2347e-11
5.51332e-11
5.1313e-11
3.26902e-11
2.95575e-11
2.43397e-11
2.32466e-11
2.02189e-11
2.06366e-11
1.97354e-09
4.17373e-06
0.000341214
0.00156239
0.00375349
0.00448635
0.000336276
0.0407834
0.340152
0.00607054
5.22681e-06
5.47096e-10
3.31263e-11
9.82639e-12
5.20727e-12
4.93528e-12
2.10484e-12
2.57371e-12
1.96559e-12
2.61193e-12
1.42693e-12
3.15936e-09
5.48623e-06
0.000426754
0.000431033
0.000392569
0.000136087
0.0332926
0.372974
0.0426063
0.012161
0.00636024
0.000104675
1.29574e-05
2.60962e-05
1.13863e-05
1.68739e-06
1.14783e-06
1.03886e-06
7.06945e-07
1.14518e-05
2.39293e-07
3.81574e-06
4.91471e-05
4.23644e-05
9.60751e-05
0.00012334
0.0250781
0.398325
0.0443384
0.0110488
0.00394155
0.000429662
0.0133936
7.89554
0.0225898
0.20903
0.689103
0.0342713
1.38059
0.446135
0.0266092
0.276205
0.0135171
0.000616068
0.00443662
0.000820017
0.0319056
0.417241
0.0381714
0.0075902
0.00517948
0.557845
4.39215
2.7031
0.988101
0.931459
0.25949
0.371689
0.434335
7.17763
2181.26
5.09976e-25
9.68211e-26
5.86788e-26
2.33298e-25
0.00208489
0.0776499
0.425877
0.0301096
0.00917899
0.244914
2.27601
3.55459
4.52455
2.74843
1.4731
0.917689
0.595895
0.208539
0.11013
6.24385e-24
0.228225
6.51897
1.57739e-24
5.61593
0.00655331
0.129453
0.444447
0.0560543
0.0348327
1.12224
5.76682
6.88032
6.36786
5.22534
4.17296
3.82739
4.1973
4.85485
5.88376
6.47648
5.95319
4.06333
1.74443
0.927711
1.88669
0.30366
0.465055
0.116916
0.0656541
1.03383
1.85123
1.86566
1.67072
1.71779
1.87675
2.20317
2.6447
3.16711
3.74077
4.49022
5.46559
6.46546
7.20283
6.85537
4.33646
0.479754
0.466638
0.481865
0.111619
1.16163
2.78701
2.26389
1.92904
1.85218
1.93228
2.18532
2.4986
2.87942
3.31014
3.84033
4.48719
5.18796
5.76688
5.71811
4.15434
0.548379
0.446236
0.731595
0.242205
0.816514
3.60496
3.89261
3.04849
2.63546
2.49311
2.63295
2.87583
3.19858
3.57961
4.0138
4.48707
4.97046
5.28627
5.04406
3.80084
0.54374
0.439568
2.27568
0.387094
1.28199
6.00375
6.51901
4.83318
3.98145
3.63574
3.59192
3.69536
3.90744
4.16936
4.52788
4.95352
5.44549
5.74741
5.47851
4.17916
0.51982
0.472311
2.43186
0.42246
1.68628
6.7973
8.09058
6.64989
5.4796
4.80395
4.50183
4.42746
4.53655
4.7824
5.15986
5.60793
6.11487
6.41579
6.18677
4.65684
0.500886
0.522097
1.74524
0.508932
2.5563
8.18532
9.0726
7.78393
6.59138
5.78117
5.32581
5.1289
5.14501
5.35583
5.69047
6.05902
6.45692
6.68554
6.54743
4.94247
0.491938
0.557583
1.79462
0.860953
3.21548
7.81171
8.48386
7.45678
6.50928
5.93455
5.62338
5.52237
5.58834
5.72933
5.94496
6.17315
6.41879
6.53135
6.39065
4.86368
0.488189
0.582801
1.99726
0.98936
3.58271
8.57924
10.1611
8.92991
7.61951
6.73545
6.20104
5.95771
5.88013
5.90788
6.0119
6.11241
6.21352
6.21589
6.05632
4.8289
0.488555
0.609019
2.28833
1.44851
3.43245
8.52231
10.1532
9.54851
8.27011
7.29578
6.70127
6.30939
6.03319
5.88584
5.82903
5.80561
5.81171
5.73708
5.50264
4.33167
0.50556
0.624688
2.49766
1.33517
3.47794
7.2808
10.2579
10.5619
9.46165
8.2469
7.31938
6.62387
6.17841
5.92056
5.79572
5.71886
5.65965
5.49763
5.20131
4.12481
0.495509
0.656667
2.56445
1.56755
2.77788
5.48294
7.97965
9.20857
9.28382
8.73879
7.87917
7.10158
6.56225
6.21823
5.96322
5.7795
5.62753
5.31358
4.75684
3.52556
0.526006
)
;

boundaryField
{
    outletWall
    {
        type            calculated;
        value           nonuniform List<scalar> 
60
(
6.18331
20.8839
23.495
23.5554
24.4012
28.8855
44.9476
80.8958
110.833
89.5624
46.1525
24.6182
15.6783
13.5456
14.4439
19.8627
35.146
63.0801
98.0883
104.008
114.399
116.576
113.715
103.251
87.6149
70.5155
56.7978
51.8919
49.7862
49.5575
48.8599
49.8138
53.8465
64.8317
80.5371
97.8416
109.569
113.417
108.818
104.008
6.59267
21.5296
24.8218
23.1967
22.2427
20.0546
23.5333
49.967
95.6461
107.227
70.9181
44.9727
33.9348
28.2012
29.0478
40.4243
65.371
95.4314
129.047
114.399
)
;
    }
    fineWalls
    {
        type            nutkWallFunction;
        Cmu             0.09;
        kappa           0.41;
        E               9.8;
        value           nonuniform List<scalar> 
60
(
0.655671
0.651784
1.11213
0.585479
0.574693
0.982111
0.529476
0.522431
0.89937
0.484614
0.47432
0.813981
0.441382
0.429269
0.426736
0.751193
0.42042
0.415246
0.72211
0.415143
1.98077
1.12425
1.10173
1.07927
1.77913
0.942639
0.90866
0.892672
1.57076
0.869638
0.870663
1.57706
0.90015
0.918877
0.955983
1.80589
1.09694
1.12137
1.14549
2.01724
0.390942
0.681878
0.392171
0.396354
0.707328
0.40225
0.405417
0.41725
0.771024
0.451045
0.461282
0.860984
0.50197
0.511064
0.956803
0.561042
0.573981
1.09993
0.642989
0.647097
)
;
    }
    fineFrontAndBack
    {
        type            calculated;
        value           nonuniform List<scalar> 
960
(
6.59267
11.8933
6.59442
6.68214
12.4039
6.78931
6.83231
7.0382
13.5101
7.59983
7.77584
15.0228
8.42447
8.54563
16.4968
9.32559
9.51221
18.8278
10.6639
10.7317
0.47555
0.47874
0.541174
0.657727
0.815613
1.04431
1.13223
1.31583
1.60601
1.85152
2.06549
2.26749
2.45827
2.66262
2.82019
2.94492
3.02814
3.07277
3.09952
2.74048
35.4256
19.4284
18.994
18.5545
31.502
16.0305
15.3696
15.0367
27.2836
14.5133
14.4951
27.168
14.9038
15.1879
15.7926
31.0069
18.2371
18.6407
19.0458
34.7466
2.64159
2.9522
2.95775
2.91325
2.83744
2.72006
2.56879
2.37209
2.18251
1.98886
1.77543
1.52946
1.25068
1.09034
1.0196
0.787408
0.645565
0.537127
0.477951
0.462486
10.5823
10.5107
18.6083
9.31329
9.08972
16.0451
8.22919
8.07315
14.3417
7.37722
7.20269
12.7527
6.62838
6.42797
6.37438
11.6343
6.27472
6.20405
11.1891
6.18331
104.008
98.0883
63.0801
35.146
19.8627
14.4439
13.5456
15.6783
24.6182
46.1525
89.5624
110.833
80.8958
44.9476
28.8855
24.4012
23.5554
23.495
20.8839
108.818
109.617
68.9854
36.8534
20.9218
15.8049
14.6727
16.0735
27.3066
62.2393
110.682
125.948
86.1395
44.2769
25.5148
23.6028
24.4836
25.859
24.5987
113.417
121.856
79.691
43.1295
24.2934
17.4045
13.6162
15.5003
31.9246
90.1142
131.054
139.775
88.9733
37.6623
19.6329
22.5891
26.361
28.8218
28.385
109.569
127.17
84.965
42.9322
22.2088
14.5525
11.1971
16.1155
42.2918
120.178
147.65
144.699
85.9634
27.5246
14.7506
22.6398
28.4339
32.2725
29.9889
97.8416
118.53
88.9273
49.0085
25.0426
14.5254
11.7959
20.4532
52.1269
130.529
166.165
139.822
75.1085
18.928
12.4095
22.8401
29.6756
31.662
25.8465
80.5371
97.4838
77.152
44.2352
24.4035
15.3091
16.7876
31.885
60.9147
114.631
165.23
132.002
59.6742
14.0114
12.4311
26.3572
37.9635
35.9002
15.5298
64.8317
74.4451
64.5756
40.4002
25.1116
20.2021
25.4433
43.1525
61.8685
81.9914
116.844
104.659
46.3972
13.1348
18.1227
35.7652
42.3444
37.8674
3.32351
53.8465
56.2676
52.0942
37.2516
30.1348
29.3653
36.0171
45.3831
52.7376
57.8956
63.2292
63.4017
33.8143
24.6873
39.5519
43.2333
26.2223
13.602
9.79714
49.8138
48.8183
46.3525
39.94
38.2934
38.5212
42.5766
41.3764
43.0832
45.9806
45.2443
42.6044
44.7469
52.5606
47.1716
30.0332
17.9761
16.6174
18.694
48.8599
46.3432
43.9944
42.0012
43.0839
44.2831
40.5828
35.6488
41.3735
48.6993
47.6256
43.7638
45.4028
45.1002
30.5582
19.9493
17.9854
18.9858
22.859
49.5575
46.7204
44.1184
42.0993
43.6122
44.2391
38.9915
32.7225
35.7721
42.1062
42.3758
45.3537
64.1206
53.1345
30.5958
19.2895
18.4423
19.8018
23.5091
49.7862
48.453
46.2375
42.318
42.0457
41.207
40.2455
37.137
38.9901
45.1774
52.3719
53.5745
62.9806
81.894
50.7501
25.7476
17.145
17.2933
19.4819
51.8919
52.8839
50.1548
42.3023
36.6788
33.6891
36.0959
45.9048
58.1992
80.5833
97.7959
56.8875
29.8815
52.9012
70.7039
42.8588
23.2702
14.8587
10.416
56.7978
65.0055
62.0872
48.1295
33.9048
26.4117
28.0479
43.7325
76.0288
139.121
150.535
77.7124
18.0672
19.767
46.9584
54.6332
53.3554
42.9302
3.53935
70.5155
90.4442
83.5316
63.2464
40.1495
25.6647
22.2229
33.3951
80.2562
172.762
169.934
84.7984
17.9668
9.65397
23.1094
42.6447
57.4142
49.052
16.9272
87.6149
120.026
105.568
76.7237
47.4715
30.191
23.1163
31.2289
71.5656
153.085
155.659
89.5823
22.3293
8.14884
16.5256
29.2631
38.5917
38.8256
29.1206
103.251
142.396
117.419
79.5754
47.6255
32.805
28.0083
34.6428
61.2669
123.755
145.461
94.9854
28.4423
9.83599
14.54
26.1717
32.8689
38.4533
35.5968
113.715
150.137
115.772
76.9591
46.7561
33.7705
31.5122
37.9102
55.3473
100.907
133.928
98.8374
36.6816
13.333
15.0028
24.5056
28.8382
32.7786
32.2831
116.576
141.247
104.346
69.4694
42.505
31.407
31.0825
37.4133
50.8971
84.4339
120.543
98.7283
44.908
18.2042
16.8911
22.684
25.952
28.7934
26.549
114.399
129.047
95.4314
65.371
40.4243
29.0478
28.2012
33.9348
44.9727
70.9181
107.227
95.6461
49.967
23.5333
20.0546
22.2427
23.1967
24.8218
21.5296
6.59267
11.8933
6.59442
6.68214
12.4039
6.78931
6.83231
7.0382
13.5101
7.59983
7.77584
15.0228
8.42447
8.54563
16.4968
9.32559
9.51221
18.8278
10.6639
10.7317
0.47555
0.47874
0.541174
0.657727
0.815613
1.04431
1.13223
1.31583
1.60601
1.85152
2.06549
2.26749
2.45827
2.66262
2.82019
2.94492
3.02814
3.07277
3.09952
2.74048
35.4256
19.4284
18.994
18.5545
31.502
16.0305
15.3696
15.0367
27.2836
14.5133
14.4951
27.168
14.9038
15.1879
15.7926
31.0069
18.2371
18.6407
19.0458
34.7466
2.64159
2.9522
2.95775
2.91325
2.83744
2.72006
2.56879
2.37209
2.18251
1.98886
1.77543
1.52946
1.25068
1.09034
1.0196
0.787408
0.645565
0.537127
0.477951
0.462486
10.5823
10.5107
18.6083
9.31329
9.08972
16.0451
8.22919
8.07315
14.3417
7.37722
7.20269
12.7527
6.62838
6.42797
6.37438
11.6343
6.27472
6.20405
11.1891
6.18331
104.008
98.0883
63.0801
35.146
19.8627
14.4439
13.5456
15.6783
24.6182
46.1525
89.5624
110.833
80.8958
44.9476
28.8855
24.4012
23.5554
23.495
20.8839
108.818
109.617
68.9854
36.8534
20.9218
15.8049
14.6727
16.0735
27.3066
62.2393
110.682
125.948
86.1395
44.2769
25.5148
23.6028
24.4836
25.859
24.5987
113.417
121.856
79.691
43.1295
24.2934
17.4045
13.6162
15.5003
31.9246
90.1142
131.054
139.775
88.9733
37.6623
19.6329
22.5891
26.361
28.8218
28.385
109.569
127.17
84.965
42.9322
22.2088
14.5525
11.1971
16.1155
42.2918
120.178
147.65
144.699
85.9634
27.5246
14.7506
22.6398
28.4339
32.2725
29.9889
97.8416
118.53
88.9273
49.0085
25.0426
14.5254
11.7959
20.4532
52.1269
130.529
166.165
139.822
75.1085
18.928
12.4095
22.8401
29.6756
31.662
25.8465
80.5371
97.4838
77.152
44.2352
24.4035
15.3091
16.7876
31.885
60.9147
114.631
165.23
132.002
59.6742
14.0114
12.4311
26.3572
37.9635
35.9002
15.5298
64.8317
74.4451
64.5756
40.4002
25.1116
20.2021
25.4433
43.1525
61.8685
81.9914
116.844
104.659
46.3972
13.1348
18.1227
35.7652
42.3444
37.8674
3.32351
53.8465
56.2676
52.0942
37.2516
30.1348
29.3653
36.0171
45.3831
52.7376
57.8956
63.2292
63.4017
33.8143
24.6873
39.5519
43.2333
26.2223
13.602
9.79714
49.8138
48.8183
46.3525
39.94
38.2934
38.5212
42.5766
41.3764
43.0832
45.9806
45.2443
42.6044
44.7469
52.5606
47.1716
30.0332
17.9761
16.6174
18.694
48.8599
46.3432
43.9944
42.0012
43.0839
44.2831
40.5828
35.6488
41.3735
48.6993
47.6256
43.7638
45.4028
45.1002
30.5582
19.9493
17.9854
18.9858
22.859
49.5575
46.7204
44.1184
42.0993
43.6122
44.2391
38.9915
32.7225
35.7721
42.1062
42.3758
45.3537
64.1206
53.1345
30.5958
19.2895
18.4423
19.8018
23.5091
49.7862
48.453
46.2375
42.318
42.0457
41.207
40.2455
37.137
38.9901
45.1774
52.3719
53.5745
62.9806
81.894
50.7501
25.7476
17.145
17.2933
19.4819
51.8919
52.8839
50.1548
42.3023
36.6788
33.6891
36.0959
45.9048
58.1992
80.5833
97.7959
56.8875
29.8815
52.9012
70.7039
42.8588
23.2702
14.8587
10.416
56.7978
65.0055
62.0872
48.1295
33.9048
26.4117
28.0479
43.7325
76.0288
139.121
150.535
77.7124
18.0672
19.767
46.9584
54.6332
53.3554
42.9302
3.53935
70.5155
90.4442
83.5316
63.2464
40.1495
25.6647
22.2229
33.3951
80.2562
172.762
169.934
84.7984
17.9668
9.65397
23.1094
42.6447
57.4142
49.052
16.9272
87.6149
120.026
105.568
76.7237
47.4715
30.191
23.1163
31.2289
71.5656
153.085
155.659
89.5823
22.3293
8.14884
16.5256
29.2631
38.5917
38.8256
29.1206
103.251
142.396
117.419
79.5754
47.6255
32.805
28.0083
34.6428
61.2669
123.755
145.461
94.9854
28.4423
9.83599
14.54
26.1717
32.8689
38.4533
35.5968
113.715
150.137
115.772
76.9591
46.7561
33.7705
31.5122
37.9102
55.3473
100.907
133.928
98.8374
36.6816
13.333
15.0028
24.5056
28.8382
32.7786
32.2831
116.576
141.247
104.346
69.4694
42.505
31.407
31.0825
37.4133
50.8971
84.4339
120.543
98.7283
44.908
18.2042
16.8911
22.684
25.952
28.7934
26.549
114.399
129.047
95.4314
65.371
40.4243
29.0478
28.2012
33.9348
44.9727
70.9181
107.227
95.6461
49.967
23.5333
20.0546
22.2427
23.1967
24.8218
21.5296
)
;
    }
    fineplugLeft
    {
        type            cyclicAMI;
        value           nonuniform List<scalar> 
20
(
0.976849
3.55617
4.67156
5.16228
5.38381
5.46058
5.55347
5.71922
5.93199
6.32113
6.9201
7.54349
8.0044
8.72172
6.984
4.8511
2.46677
1.39819
2.16176
0.619631
)
;
    }
    fineplugRight
    {
        type            cyclicAMI;
        value           nonuniform List<scalar> 
20
(
0.949123
3.41089
4.39702
4.83351
5.06951
5.16761
5.28433
5.449
5.68631
6.07904
6.65843
7.29693
7.67719
8.28546
6.58764
4.54383
2.35142
1.36147
2.14715
0.617831
)
;
    }
    inletOutletLeft
    {
        type            cyclicAMI;
        value           nonuniform List<scalar> 
20
(
0.976849
3.55617
4.67156
5.16228
5.38381
5.46058
5.55347
5.71922
5.93199
6.32113
6.9201
7.54349
8.0044
8.72172
6.984
4.8511
2.46677
1.39819
2.16176
0.619631
)
;
    }
    inletLeft
    {
        type            calculated;
        value           uniform 5.26945e-05;
    }
    inletWallsLeft
    {
        type            nutkWallFunction;
        Cmu             0.09;
        kappa           0.41;
        E               9.8;
        value           nonuniform List<scalar> 
40
(
0.0207467
0.0218356
0.023597
0.026316
0.0286504
0.0304468
0.0317828
0.0324594
0.0337328
0.0351666
0.0351543
0.0337411
0.0333623
0.0355175
0.0389783
0.0414238
0.0431757
0.0449842
0.0460602
0.0482904
0.0400652
0.0381907
0.0388833
0.0377315
0.0373747
0.0370695
0.0370214
0.0383276
0.0402772
0.0411705
0.036453
0.0182412
0
0.00334152
0.00468039
0.00367612
0.00430772
0.00486318
0.0121027
0.0228314
)
;
    }
    inletFacesLeft
    {
        type            calculated;
        value           nonuniform List<scalar> 
800
(
0.655652
2.58251
1.61244
2.91903
5.85998
8.46892
9.69542
9.67655
9.02785
8.18724
7.38504
6.84812
6.53445
6.27618
6.12067
5.99353
5.69582
5.07126
3.67033
0.53594
0.623032
2.5474
1.431
3.48558
7.28513
10.0811
10.5495
9.56652
8.41686
7.46412
6.77012
6.35969
6.13951
6.06508
6.05267
6.04934
5.90574
5.52863
4.25626
0.5089
0.607336
2.28756
1.42954
3.20955
6.62848
9.95837
10.0347
8.65034
7.55458
6.90295
6.49927
6.253
6.14717
6.14845
6.19649
6.27114
6.22127
5.90113
4.50888
0.51888
0.581016
2.01135
0.971104
2.4774
4.95509
8.22275
9.07292
8.06982
7.03469
6.40251
6.15884
6.10144
6.18743
6.36495
6.54921
6.73021
6.76461
6.54298
5.07418
0.502291
0.555598
1.78833
0.794848
1.91813
3.16974
6.36725
7.6536
7.09539
6.35972
5.89317
5.73566
5.81656
6.00681
6.2851
6.58803
6.89955
7.0366
6.82241
5.10877
0.49716
0.520249
1.73547
0.446101
0.890103
1.25113
5.03805
7.08924
7.57353
6.73363
5.84471
5.42924
5.39214
5.59822
5.96662
6.37716
6.80095
7.01043
6.79253
5.03539
0.492773
0.47051
2.3827
0.330851
0.261048
0.495149
3.42588
5.89957
7.16019
6.64436
5.48083
4.91072
4.817
5.00057
5.37461
5.82809
6.31344
6.53967
6.21943
4.62961
0.492082
0.439715
1.86627
0.226373
0.072114
0.215005
2.18616
5.83434
7.49988
6.01242
4.73606
4.31796
4.27327
4.4344
4.75483
5.15648
5.60344
5.8032
5.41649
4.07838
0.510871
0.445118
1.07897
0.108447
0.0207733
0.112694
1.26323
3.78228
5.99428
4.79286
3.87485
3.66063
3.75152
3.9929
4.36092
4.79437
5.24284
5.47911
5.12666
3.80422
0.539004
0.465311
0.306809
0.0249441
0.0222852
0.466386
2.66486
7.15377
6.74486
4.27627
3.59576
3.5444
3.72166
4.04909
4.50252
5.06586
5.66964
6.14626
6.02631
4.3369
0.551929
0.465487
0.146092
0.00471213
0.00618591
0.238572
1.02024
4.42512
7.01566
5.98019
5.55383
5.25841
5.17595
5.39368
5.99353
6.96996
7.98324
8.49413
7.77747
4.9053
0.483921
0.444999
0.0429492
0.0295121
0.0918557
413.629
12.0318
13.219
14.5128
14.0214
12.6018
11.3804
10.3847
9.5505
8.67387
7.4708
5.69053
4.03441
3.16756
3.96744
0.228593
0.426859
0.0376734
0.0116394
0.0255161
4.66453
13.4981
29.9398
14.3631
14.153
13.669
12.4724
11.2975
10.3924
9.16976
6.28907
2.53074
0.91672
2.14617
4.48339
2.025e-16
0.417243
0.0405504
0.00841223
0.00410072
2.25024
1.77966
28.6639
4.54047
5.49271
6.49157
7.60893
8.55788
8.85669
5.29375
11.5367
4.67874
6.38561
1.75408
3.33627e-11
0.035852
0.398298
0.0424103
0.00876606
0.00526831
0.00644465
0.0248116
0.0154511
0.328284
0.715263
0.444756
0.43689
0.422878
0.423506
0.22655
3.39076
7.1964
6.18156
0.209902
0.00778835
0.0518674
0.372927
0.0436069
0.0119203
0.000683648
0.000216811
9.91707e-05
3.70961e-05
9.81555e-06
1.34102e-05
1.63993e-05
2.1564e-05
2.668e-05
2.25216e-05
2.21353e-05
3.76662e-06
1.63476e-05
0.000108908
0.000321638
0.00221344
0.0398074
0.340138
0.00675307
7.65143e-06
6.70065e-10
1.22878e-11
2.23091e-12
5.77669e-12
5.60905e-12
3.17906e-12
2.91991e-12
2.31877e-12
3.09807e-12
3.51155e-12
3.61308e-10
9.45606e-07
8.94787e-05
0.000121099
0.00011033
0.00404372
0.0473618
0.302232
0.00135743
1.73991e-10
4.11109e-11
2.59316e-11
2.39447e-11
3.42507e-11
3.14398e-11
2.56951e-11
2.32034e-11
2.03029e-11
1.89142e-11
9.28871e-11
2.35513e-07
9.7451e-05
0.00134488
0.00839911
0.0178663
0.00831709
0.0540892
0.277852
1.28905e-05
9.8328e-10
9.21626e-10
8.98994e-10
8.642e-10
8.36401e-10
8.07397e-10
7.79654e-10
7.52208e-10
7.25374e-10
6.97708e-10
6.65538e-10
6.23147e-10
5.65831e-10
7.39402e-10
1.03468e-07
2.54571e-05
0.001172
0.146345
0.262857
6.89789e-08
6.38722e-08
6.39e-08
6.38926e-08
6.39135e-08
6.39038e-08
6.38777e-08
6.38807e-08
6.38798e-08
6.38991e-08
6.38915e-08
6.38697e-08
6.38951e-08
6.38969e-08
6.3899e-08
6.38472e-08
6.26727e-08
2.61979e-07
0.291617
0.655652
2.58251
1.61244
2.91903
5.85998
8.46892
9.69542
9.67655
9.02785
8.18724
7.38504
6.84812
6.53445
6.27618
6.12067
5.99353
5.69582
5.07126
3.67033
0.53594
0.623032
2.5474
1.431
3.48558
7.28513
10.0811
10.5495
9.56652
8.41686
7.46412
6.77012
6.35969
6.13951
6.06508
6.05267
6.04934
5.90574
5.52863
4.25626
0.5089
0.607336
2.28756
1.42954
3.20955
6.62848
9.95837
10.0347
8.65034
7.55458
6.90295
6.49927
6.253
6.14717
6.14845
6.19649
6.27114
6.22127
5.90113
4.50888
0.51888
0.581016
2.01135
0.971104
2.4774
4.95509
8.22275
9.07292
8.06982
7.03469
6.40251
6.15884
6.10144
6.18743
6.36495
6.54921
6.73021
6.76461
6.54298
5.07418
0.502291
0.555598
1.78833
0.794848
1.91813
3.16974
6.36725
7.6536
7.09539
6.35972
5.89317
5.73566
5.81656
6.00681
6.2851
6.58803
6.89955
7.0366
6.82241
5.10877
0.49716
0.520249
1.73547
0.446101
0.890103
1.25113
5.03805
7.08924
7.57353
6.73363
5.84471
5.42924
5.39214
5.59822
5.96662
6.37716
6.80095
7.01043
6.79253
5.03539
0.492773
0.47051
2.3827
0.330851
0.261048
0.495149
3.42588
5.89957
7.16019
6.64436
5.48083
4.91072
4.817
5.00057
5.37461
5.82809
6.31344
6.53967
6.21943
4.62961
0.492082
0.439715
1.86627
0.226373
0.072114
0.215005
2.18616
5.83434
7.49988
6.01242
4.73606
4.31796
4.27327
4.4344
4.75483
5.15648
5.60344
5.8032
5.41649
4.07838
0.510871
0.445118
1.07897
0.108447
0.0207733
0.112694
1.26323
3.78228
5.99428
4.79286
3.87485
3.66063
3.75152
3.9929
4.36092
4.79437
5.24284
5.47911
5.12666
3.80422
0.539004
0.465311
0.306809
0.0249441
0.0222852
0.466386
2.66486
7.15377
6.74486
4.27627
3.59576
3.5444
3.72166
4.04909
4.50252
5.06586
5.66964
6.14626
6.02631
4.3369
0.551929
0.465487
0.146092
0.00471213
0.00618591
0.238572
1.02024
4.42512
7.01566
5.98019
5.55383
5.25841
5.17595
5.39368
5.99353
6.96996
7.98324
8.49413
7.77747
4.9053
0.483921
0.444999
0.0429492
0.0295121
0.0918557
413.629
12.0318
13.219
14.5128
14.0214
12.6018
11.3804
10.3847
9.5505
8.67387
7.4708
5.69053
4.03441
3.16756
3.96744
0.228593
0.426859
0.0376734
0.0116394
0.0255161
4.66453
13.4981
29.9398
14.3631
14.153
13.669
12.4724
11.2975
10.3924
9.16976
6.28907
2.53074
0.91672
2.14617
4.48339
2.025e-16
0.417243
0.0405504
0.00841223
0.00410072
2.25024
1.77966
28.6639
4.54047
5.49271
6.49157
7.60893
8.55788
8.85669
5.29375
11.5367
4.67874
6.38561
1.75408
3.33627e-11
0.035852
0.398298
0.0424103
0.00876606
0.00526831
0.00644465
0.0248116
0.0154511
0.328284
0.715263
0.444756
0.43689
0.422878
0.423506
0.22655
3.39076
7.1964
6.18156
0.209902
0.00778835
0.0518674
0.372927
0.0436069
0.0119203
0.000683648
0.000216811
9.91707e-05
3.70961e-05
9.81555e-06
1.34102e-05
1.63993e-05
2.1564e-05
2.668e-05
2.25216e-05
2.21353e-05
3.76662e-06
1.63476e-05
0.000108908
0.000321638
0.00221344
0.0398074
0.340138
0.00675307
7.65143e-06
6.70065e-10
1.22878e-11
2.23091e-12
5.77669e-12
5.60905e-12
3.17906e-12
2.91991e-12
2.31877e-12
3.09807e-12
3.51155e-12
3.61308e-10
9.45606e-07
8.94787e-05
0.000121099
0.00011033
0.00404372
0.0473618
0.302232
0.00135743
1.73991e-10
4.11109e-11
2.59316e-11
2.39447e-11
3.42507e-11
3.14398e-11
2.56951e-11
2.32034e-11
2.03029e-11
1.89142e-11
9.28871e-11
2.35513e-07
9.7451e-05
0.00134488
0.00839911
0.0178663
0.00831709
0.0540892
0.277852
1.28905e-05
9.8328e-10
9.21626e-10
8.98994e-10
8.642e-10
8.36401e-10
8.07397e-10
7.79654e-10
7.52208e-10
7.25374e-10
6.97708e-10
6.65538e-10
6.23147e-10
5.65831e-10
7.39402e-10
1.03468e-07
2.54571e-05
0.001172
0.146345
0.262857
6.89789e-08
6.38722e-08
6.39e-08
6.38926e-08
6.39135e-08
6.39038e-08
6.38777e-08
6.38807e-08
6.38798e-08
6.38991e-08
6.38915e-08
6.38697e-08
6.38951e-08
6.38969e-08
6.3899e-08
6.38472e-08
6.26727e-08
2.61979e-07
0.291617
)
;
    }
    inletOutletRight
    {