/*--------------------------------*- C++ -*----------------------------------*\
| =========                 |                                                 |
| \\      /  F ield         | OpenFOAM: The Open Source CFD Toolbox           |
|  \\    /   O peration     | Version:  4.1                                   |
|   \\  /    A nd           | Web:      www.OpenFOAM.org                      |
|    \\/     M anipulation  |                                                 |
\*---------------------------------------------------------------------------*/
FoamFile
{
    version     2.0;
    format      ascii;
    class       volScalarField;
    location    "17";
    object      p;
}
// * * * * * * * * * * * * * * * * * * * * * * * * * * * * * * * * * * * * * //

dimensions      [0 2 -2 0 0 0 0];

internalField   nonuniform List<scalar> 
1280
(
0.262515
0.404995
0.783592
0.762939
1.01732
1.03323
0.832467
0.867417
0.525602
0.204144
-0.502185
-0.506906
-1.48712
-3.29222
-2.73712
-6.14819
-8.41973
-12.862
-10.5773
-34.6967
-11.1028
10.1949
18.7314
15.1776
13.46
23.1114
6.58219
7.56712
4.2916
3.93398
2.62859
1.18382
-0.110585
-1.96835
-3.3785
-4.94634
-3.95033
-0.823364
5.52536
10.2311
-28.4933
-11.1508
-3.41448
1.20361
12.9206
12.6977
12.8963
13.3385
12.3167
13.0783
13.3578
12.5084
13.1748
13.1831
13.5608
12.8864
2.0703
-2.46889
-8.02399
-12.3944
5.24429
-0.207966
-3.5483
-3.36355
-2.24275
-0.0387143
1.43134
2.95795
3.9934
4.91095
5.62771
6.11044
6.37398
-12.0404
26.4518
20.8026
18.8609
19.9613
7.31307
-12.3556
-26.0311
-11.1235
-12.356
-11.3892
-8.17166
-5.98899
-7.61784
-4.91037
-3.70526
-4.7664
-3.0697
-2.40037
-2.70081
-2.54568
-1.68013
-0.796952
-1.66374
-0.819544
-0.410135
-0.71119
-0.891055
-1.35505
-1.97438
-1.38424
-0.32821
-0.619892
-0.200419
0.232528
0.310821
0.108072
-0.166008
-0.111176
0.324847
0.42493
0.093438
-0.167429
-0.29128
-0.474231
-0.0177539
-1.53223
0.360928
1.01126
0.401806
0.367911
-1.89735
-0.609409
0.538464
0.901488
0.77054
0.297024
0.406719
1.53132
1.73313
0.528078
-0.540552
-0.884587
-0.963
-0.484175
-2.08478
-1.8838
-1.33826
-0.118996
-0.347233
-2.13077
-1.07132
0.554257
0.922474
0.744136
0.0751215
0.363018
2.53595
3.25778
0.84867
-1.36122
-2.02675
-1.9984
-0.925645
-1.73176
-2.75814
-1.8606
0.0197007
-1.10692
-1.03009
-2.36294
0.384064
0.935643
1.10213
-0.0523285
0.317145
3.84068
4.70352
1.18285
-2.18608
-2.93682
-2.5071
-0.959747
-1.0713
-3.42731
-2.1143
0.11713
-0.434296
-0.498214
-3.45998
-0.0313907
1.02347
1.49516
-0.593385
-0.189298
5.09017
5.75018
1.40534
-3.03517
-4.70837
-4.19581
-1.61132
-0.492132
-2.26176
-0.596936
1.15896
0.503962
-1.42362
-4.0872
-0.683105
1.5308
1.93562
-1.32017
-0.963231
6.19211
6.46606
1.4779
-3.8701
-4.72061
-3.45817
-1.2016
-0.418533
-1.24058
0.592526
2.27108
1.39137
-2.34723
-4.41877
-0.936625
2.58532
1.8299
-3.0022
-2.7433
5.98222
6.29968
1.11182
-5.49497
-6.66674
-6.48565
-1.74012
-0.622447
-0.315284
1.69147
3.61723
2.406
-2.603
-4.33863
-0.817419
4.05618
2.5552
-2.90102
-3.39919
5.00423
5.38294
1.6311
-4.09854
-4.86088
0.384403
1.72367
-0.863551
0.523801
2.78323
5.29862
3.77076
-2.12218
-4.08085
-0.740304
4.73753
1.96447
-3.44518
-3.10999
5.19084
6.20897
2.69142
-1.53977
2.47836
19.1923
22.949
-1.0269
1.35796
3.99564
7.47053
5.74683
-0.355213
-3.32933
-1.45238
3.2679
-0.053971
-4.29947
-1.4494
3.80924
2.41952
-2.32332
-2.49585
7.42936
32.5999
18.7103
-1.13477
2.10281
5.28389
10.0607
8.23834
2.73737
-1.58097
-1.92286
0.385357
-6.03849
-9.00863
0.658135
5.36946
0.69233
-6.7998
-4.51026
8.06864
31.0838
14.9763
-1.20978
2.75052
6.63979
13.0504
10.9721
6.37432
0.630716
-1.82388
-2.74334
-13.3849
-15.9917
1.73444
5.47921
-4.75551
-15.5616
-8.06451
8.49152
20.453
24.6537
-1.23565
3.28469
7.97206
16.3503
13.6485
9.50856
2.53778
-1.66117
-5.70369
-19.5069
-20.8562
4.78122
7.63517
-6.16495
-16.3591
-7.78112
11.3212
12.1737
0.953624
-1.23159
3.63046
8.91663
18.8944
15.4491
11.3962
4.13118
-1.38806
-7.60286
-21.7295
-23.3468
4.65771
9.28265
-4.90877
-14.3687
-5.87449
6.72984
4.79561
-2.75717
-1.20283
3.73485
9.16573
19.6885
16.0059
11.8443
4.89552
-1.31094
-9.07385
-22.5501
-24.6548
2.78138
9.46603
-2.42039
-10.6529
-4.26591
5.05433
5.21398
-0.206865
-1.12598
3.58398
8.66494
18.4456
14.7683
10.8343
4.62136
-1.19436
-8.8395
-19.791
-22.4655
0.793187
8.1326
-1.07522
-5.94408
-2.53029
3.25159
3.12883
0.528145
-0.979466
3.1453
7.48197
15.5765
12.0678
8.87822
3.61117
-1.0011
-6.75237
-13.9549
-17.4304
-0.281107
6.21806
-0.735482
-3.83255
-1.87772
2.28746
2.56083
1.0403
-0.769402
2.49144
5.85574
11.7798
8.1226
6.32797
2.35855
-0.816655
-4.3368
-8.19779
-11.5503
-0.476294
4.2805
-0.414899
-2.33402
-1.15364
1.49357
1.63992
0.757673
-0.700186
1.73337
4.30201
8.27299
4.15013
3.83501
1.15381
-0.548492
-1.97973
-3.51282
-6.39775
-0.388465
2.67783
-0.326157
-1.44897
-0.784388
0.896474
1.11052
0.654431
-0.523774
0.434887
1.56658
2.69653
0.777819
0.92743
0.46033
-0.210171
-0.703083
-1.07483
-2.42706
-0.526844
0.781434
-0.424625
-0.777999
-0.41953
0.285536
0.348592
0.260122
173.441
170.262
168.178
167.503
163.963
160.82
156.695
154.617
150.566
147.906
144.997
142.539
140.517
138.569
137.396
135.614
135.142
133.199
133.89
132.105
121.873
121.496
122.646
124.298
123.801
124.163
122.908
122.876
122.355
122.336
122.276
122.329
122.382
122.402
122.676
122.569
123.3
122.901
124.338
123.853
141.538
140.482
141.906
142.453
142.068
141.831
141.466
140.701
140.254
139.642
139.22
138.85
138.589
138.35
138.431
138.221
138.975
138.536
139.933
139.507
124.779
124.157
126.008
126.205
126.831
126.287
126.609
126.017
126.026
125.649
125.578
125.437
125.492
125.478
125.837
125.812
126.714
126.503
128.096
128.404
131.62
131.022
132.766
132.457
133.708
132.644
133.115
132.432
132.258
131.854
131.587
131.318
131.226
130.968
131.186
130.862
131.484
131.034
132.372
132.401
123.686
124.022
125.669
125.486
127.736
126.392
127.112
126.983
126.744
126.838
126.588
126.618
126.677
126.568
127.01
126.822
127.642
127.553
129.052
129.39
118.607
119.679
120.807
120.715
124.149
122.211
122.941
123.719
123.22
123.937
123.6
123.923
124.022
124.082
124.607
124.6
125.603
125.812
127.617
128.111
106.645
108.441
108.741
108.751
113.632
110.523
111.043
113.017
112.116
113.411
113.059
113.565
113.765
114.01
114.641
114.95
116.173
116.803
119.026
119.852
95.7015
97.8292
96.7393
96.6075
102.943
98.4316
98.4833
101.486
100.276
101.706
101.424
101.835
102.13
102.405
103.074
103.609
104.883
105.847
108.236
109.286
86.9224
89.0278
85.8594
85.3806
93.235
86.5685
85.38
89.3899
87.636
88.3612
87.896
87.5986
87.6451
87.4083
87.733
88.0213
88.8787
89.7491
91.6549
93.0094
88.987
90.6193
86.5249
85.7047
92.6004
86.933
85.0412
88.0406
86.8996
86.0836
85.5989
84.3201
83.9894
82.833
82.5954
81.7604
81.9465
81.3388
82.5377
82.9107
93.7332
94.8096
96.0315
94.6058
95.0197
90.6171
92.9535
90.6463
92.4704
90.5084
91.5177
90.1621
90.492
89.5176
89.5872
88.9077
89.4425
89.0826
89.7318
89.0122
84.6065
86.6605
88.194
87.37
90.4526
88.3113
90.7467
88.2016
90.3285
88.8393
89.9608
89.3399
89.8923
89.7414
90.0265
90.0634
90.3876
90.5953
90.4519
91.1297
66.4226
68.1971
70.6684
69.9459
73.5485
72.6557
75.862
74.268
77.0393
77.4635
78.9681
79.607
80.3864
81.1062
81.8182
82.4823
83.1282
84.1526
85.3205
87.1247
43.4588
42.6779
44.5399
42.085
44.1612
42.0749
43.118
41.9715
41.9758
41.4391
41.1314
40.788
40.5543
40.6677
41.4454
43.4673
45.7724
47.7805
49.0668
51.6703
59.4337
56.161
57.0756
52.6688
53.4758
50.1453
49.6756
47.4877
46.2749
44.5325
43.0165
41.356
39.785
38.3835
37.3337
36.6007
36.0969
35.747
35.1866
36.2117
98.7522
94.7179
96.638
89.9666
90.1592
85.6062
83.7754
80.6631
78.3481
75.9076
73.7821
71.8198
70.147
68.8089
67.746
66.76
65.8375
64.6859
62.9309
61.2371
96.7078
90.9576
99.3227
92.8367
95.3792
92.5098
91.834
89.8579
88.23
86.334
84.497
82.6756
81.0195
79.6729
78.6978
77.952
77.4626
77.5002
77.6239
77.394
101.786
80.3123
88.6273
77.8816
75.4366
69.081
64.4196
59.4205
55.1122
51.2696
48.1328
45.7632
44.2948
43.8655
44.6545
46.5146
49.1832
53.3273
57.8968
60.2382
788.915
706.454
657.521
601.293
552.394
505.219
461.402
420.046
381.161
344.458
309.759
276.845
245.48
215.568
187.15
159.452
132.574
110.694
86.261
49.4588
734.989
652.465
603.491
547.116
498.042
450.605
406.473
364.741
325.435
288.269
253.084
219.694
187.935
157.847
129.61
102.475
76.6861
56.3508
32.6129
-5.23523
48.8921
26.5312
34.6039
23.2708
20.4794
13.6714
8.65157
3.29997
-1.30238
-5.38006
-8.68289
-11.1504
-12.6575
-13.0999
-12.3396
-10.1316
-6.861
-3.76899
-1.52263
-0.683321
22.4781
15.0626
22.3235
14.4348
15.4528
10.9969
8.59657
4.79966
1.25941
-2.67033
-6.6398
-10.7404
-14.8091
-18.6324
-21.8436
-23.919
-24.361
-24.2674
-24.9383
-23.6734
8.62618
4.72803
6.57523
-0.193033
-0.0034531
-4.90641
-6.9238
-10.2992
-12.8412
-15.4204
-17.6294
-19.5419
-21.0363
-21.9522
-22.0578
-20.8932
-18.6259
-15.6353
-13.6666
-9.94246
5.39079
5.82817
9.88927
7.9355
12.5986
12.5135
15.8197
17.7443
20.5091
23.3237
26.3971
29.6337
32.8093
35.675
37.9413
40.6434
43.9669
46.9682
49.1764
51.6253
47.2358
48.1037
50.2442
48.7932
51.8272
50.8044
52.2618
51.2198
51.9733
52.1303
52.034
51.5266
51.1779
47.7944
45.946
48.6786
49.4322
50.5237
50.8199
50.7627
11.1008
9.64245
9.24572
5.85348
5.63548
1.76057
0.479039
-2.76289
-4.68636
-7.22864
-10.3278
-11.6077
-16.9147
14.9987
51.9284
49.3483
48.5421
46.7415
45.2669
46.6468
8.9667
9.18434
10.5892
9.5923
11.7855
10.9292
12.8177
12.7344
13.9133
14.8147
15.5275
17.461
18.856
19.8393
20.8439
16.5153
18.7637
20.699
11.4795
14.6475
20.0158
21.2278
22.6402
21.5385
23.9456
22.6544
24.6054
24.057
25.214
25.4459
26.314
26.9167
28.2477
28.6655
30.6524
30.3822
33.0623
36.0828
35.0408
37.8984
40.7316
43.4673
44.9235
45.3101
47.6544
48.0559
49.9848
50.7173
52.2858
53.3708
54.9733
56.3962
58.0702
59.6061
61.1755
62.6517
64.2155
66.3586
68.0822
71.601
62.7116
66.0985
67.0768
68.1284
69.9117
70.4233
71.9501
72.5274
73.5854
74.2397
75.0716
75.721
76.3039
76.7523
77.1091
77.3995
78.1463
78.6364
80.3155
81.4755
76.1628
78.7661
79.027
80.119
80.7428
80.8983
81.5159
81.4936
81.8762
81.8056
81.9701
81.7587
81.704
81.1538
80.9837
80.2261
80.5221
80.0465
81.6243
81.4824
78.5023
79.6241
79.4419
80.3641
79.8779
79.6824
79.4838
78.8375
78.6811
77.9229
77.6879
76.8441
76.6076
75.5225
75.4325
74.1623
74.5998
73.5604
75.0831
74.7377
74.7488
74.6562
74.6571
75.3506
74.4086
74.1265
73.5927
72.7718
72.4617
71.4996
71.3278
70.4167
70.4677
69.6408
70.016
69.2313
70.1332
69.3499
71.2218
71.2207
70.2286
70.0024
70.7461
71.798
71.2333
71.2624
71.0307
70.591
70.5814
70.0693
70.2887
69.9381
70.4765
70.3249
71.2716
71.2702
72.723
72.7996
74.92
75.462
78.1848
77.9998
79.279
80.681
80.3383
80.6041
80.4105
80.2456
80.2549
80.0324
80.2967
80.1896
80.7481
80.7584
81.6836
81.7507
83.1264
83.2024
85.0538
85.4539
78.1602
78.2188
79.6351
81.3365
80.9103
81.3967
81.0746
81.1443
81.0833
81.0506
81.2812
81.2945
81.818
81.8531
82.6833
82.6508
83.8391
83.7361
85.3899
85.8071
94.2315
93.6466
94.6601
96.0821
95.1962
95.4116
94.5913
94.3904
93.837
93.5107
93.2804
92.9703
93.042
92.7234
93.0914
92.6685
93.4561
92.872
94.2358
94.1304
80.2143
80.549
81.3515
83.5131
82.8294
83.41
82.7869
83.0683
82.7159
82.8871
82.8195
82.9021
83.0868
83.0718
83.5259
83.3917
84.2629
83.9141
85.3797
85.4706
129.852
128.25
126.244
127.066
123.399
121.441
118.145
115.651
112.491
110.077
107.649
105.587
103.866
102.152
101.159
99.6738
99.5067
97.8958
98.6179
97.405
)
;

boundaryField
{
    outletWall
    {
        type            fixedValue;
        value           uniform 0;
    }
    fineWalls
    {
        type            zeroGradient;
    }
    fineFrontAndBack
    {
        type            zeroGradient;
    }
    fineplugLeft
    {
        type            cyclicAMI;
        value           nonuniform List<scalar> 
20
(
107.73
108.217
106.395
107.323
107.502
109.241
110.461
112.392
114.268
116.523
119.112
121.311
125.207
139.626
133.279
133.863
137.038
138.288
138.249
136.532
)
;
    }
    fineplugRight
    {
        type            cyclicAMI;
        value           nonuniform List<scalar> 
20
(
78.9729
78.8527
77.607
78.9327
79.2905
80.9198
82.008
83.6845
85.2687
87.1017
89.1872
91.215
93.7956
103.341
102.443
102.88
105.425
104.987
104.062
101.41
)
;
    }
    inletOutletLeft
    {
        type            cyclicAMI;
        value           nonuniform List<scalar> 
20
(
107.73
108.217
106.395
107.323
107.502
109.241
110.461
112.392
114.268
116.523
119.112
121.311
125.207
139.626
133.279
133.863
137.038
138.288
138.249
136.532
)
;
    }
    inletLeft
    {
        type            zeroGradient;
    }
    inletWallsLeft
    {
        type            zeroGradient;
    }
    inletFacesLeft
    {
        type            zeroGradient;
    }
    inletOutletRight
    {
        type            cyclicAMI;
        value           nonuniform List<scalar> 
20
(
78.9729
78.8527
77.607
78.9327
79.2905
80.9198
82.008
83.6845
85.2687
87.1017
89.1872
91.215
93.7956
103.341
102.443
102.88
105.425
104.987
104.062
101.41
)
;
    }
    inletRight
    {
        type            zeroGradient;
    }
    inletWallsRight
    {
        type            zeroGradient;
    }
    inletFacesRight
    {
        type            zeroGradient;
    }
}


// ************************************************************************* //
