/*--------------------------------*- C++ -*----------------------------------*\
| =========                 |                                                 |
| \\      /  F ield         | OpenFOAM: The Open Source CFD Toolbox           |
|  \\    /   O peration     | Version:  4.1                                   |
|   \\  /    A nd           | Web:      www.OpenFOAM.org                      |
|    \\/     M anipulation  |                                                 |
\*---------------------------------------------------------------------------*/
FoamFile
{
    version     2.0;
    format      ascii;
    class       surfaceScalarField;
    location    "17";
    object      phi;
}
// * * * * * * * * * * * * * * * * * * * * * * * * * * * * * * * * * * * * * //

dimensions      [0 3 -1 0 0 0 0];

internalField   nonuniform List<scalar> 
2360
(
-2218.51
-392.287
-1826.22
-392.287
-392.287
1556.16
-1948.44
1556.16
1556.16
1556.16
3559.01
-2002.86
3559.01
3559.01
5812.41
-2253.4
5812.42
5812.41
8711.87
-2899.45
8711.87
8711.87
13624.5
-4912.6
13624.5
13624.5
14971.4
16706.1
18194.1
19464.1
20714.8
22052.8
17317.6
5946.95
18416.8
19399.3
20284.9
21082
21797.3
22423.4
22965.6
23434.6
23889.1
24430.8
25187.7
26140.6
27177.5
11519.9
15657.6
11519.9
11519.9
11519.9
-647.783
12167.7
-647.783
-647.784
-647.784
-517.287
-130.498
-517.287
-517.288
-96.57
-420.717
-96.5732
-96.5723
-96.5751
-11907.9
11811.4
-11907.9
-11907.9
-11907.9
-26472.2
14564.2
-25540.6
-24760.5
-24152.8
-23635.4
-23091.4
-22481.1
-21789.9
-21028.8
-20199.9
-19309.9
-18356.3
-17341.7
-16258.7
-20693.2
5584.68
-19467.4
-18165
-16782
-15305.5
-13601.6
-12556.8
-12556.8
-12556.8
-9448.59
-3108.19
-9448.59
-9448.59
-7630.37
-1818.22
-7630.37
-7630.37
-6149.47
-1480.89
-6149.47
-6149.47
-5039.71
-1109.76
-5039.71
-5039.71
-5039.71
-4222.88
-816.831
-4222.88
-4222.88
-3591.46
-631.426
-10302.1
-7549.44
-9145.4
-9560.17
-6275.36
-8869.32
-2873.35
-5843.72
-1069.91
916.446
-1215.87
5185.78
-1350.17
5693.08
-1293.38
5796.57
-1096.14
6027.05
-737.017
5126.81
-336.863
3846.71
10.7825
3347.13
320.62
2545.94
752.562
-1158.82
1098.42
-2429.08
1234.8
-588.144
1145.92
1334.71
1056.66
3683.62
3598.64
-13333.4
-7060.92
-12765.2
-10128.4
-9955.53
-11679
-5420.92
-10378.3
-1540.03
-2964.44
-1124.16
4769.92
-1590.18
6159.1
-1496.21
5702.6
-1225.77
5756.6
-756.178
4657.22
-292.711
3383.24
-4.21426
3058.63
258.31
2283.41
843.006
-1743.51
1386.05
-2972.13
1541.01
-743.105
1316.39
1559.33
1092.18
3907.84
3873.99
-14160.8
-6746.35
-13690.4
-10598.9
-11758.6
-13610.8
-8216.47
-13920.4
-3105.43
-8075.48
-1141.02
2805.51
-1933.9
6951.98
-1953.1
5721.8
-1583.39
5386.89
-970.857
4044.69
-337.775
2750.16
-30.9448
2751.8
157.363
2095.1
786.46
-2372.61
1405.02
-3590.69
1732.46
-1070.54
1568.86
1722.92
1223.13
4253.57
3987.36
-13415
-7090.46
-12294.2
-11719.7
-10988.2
-14916.8
-9151.81
-15756.8
-5221.62
-12005.7
-1995.73
-420.38
-2270.68
7226.92
-2729.28
6180.4
-2242.56
4900.17
-1434.03
3236.16
-578.07
1894.19
-191.514
2365.24
-36.2844
1939.87
388.392
-2797.28
852.986
-4055.28
1356.38
-1573.94
1429.1
1650.2
1309.12
4373.55
3815.58
-10891.8
-8163.77
-9187.51
-13424
-8467.58
-15636.7
-8205.13
-16019.2
-6491.17
-13719.6
-3185.88
-3725.67
-2626.21
6667.25
-3472.4
7026.6
-2932.04
4359.8
-1765.07
2069.2
-743.65
872.77
-440.084
2061.68
-554.703
2054.49
-490.008
-2861.98
-41.0279
-4504.26
885.4
-2500.36
1277.87
1257.72
1255.26
4396.16
3252.63
-8162.42
-9387.2
-6602.73
-14983.7
-6288.19
-15951.2
-6693.78
-15613.6
-6618.96
-13794.4
-4425.67
-5918.96
-3156.77
5398.34
-3653.91
7523.74
-3180.7
3886.59
-1700.48
588.988
-772.832
-54.8831
-893.983
2182.83
-1485.78
2646.29
-1690.51
-2657.25
-1316.85
-4877.92
-427.863
-3389.35
209.494
620.366
1238.83
3366.82
1383.26
-6521.93
-10163.5
-5607.46
-15898.2
-5447.81
-16110.9
-5856.97
-15204.5
-6466.14
-13185.3
-5561.67
-6823.42
-4065.46
3902.13
-3697.13
7155.41
-3142.26
3331.72
-2197.42
-355.851
-2254.85
2.55031
-2718.75
2646.72
-3048.57
2976.11
-3501.92
-2203.9
-4021.38
-4358.46
-3575.01
-3835.73
-1082.07
-1872.57
908.691
1376.05
7876.63
-5784.15
-10456.4
-5337.66
-16344.6
-5184.51
-16264.1
-5585.56
-14803.4
-6481.43
-12289.4
-6428.25
-6876.6
-5190.01
2663.89
-4367.68
6333.08
-4498.94
3462.98
-5258.77
403.976
-5400.17
143.949
-4438.48
1685.03
-4353.19
2890.82
-6743.74
186.647
-9548.65
-1553.54
-10399.3
-2985.05
-9684.54
-2587.35
-10569.9
2261.45
11870.9
-5315.97
-10446.2
-5111.4
-16549.2
-4980.22
-16395.2
-5523.39
-14260.2
-6764.46
-11048.3
-7309.49
-6331.57
-6609.48
1963.88
-6529.21
6252.81
-8339.17
5272.94
-10278.3
2343.07
-9886.55
-247.761
-8264.95
63.4335
-9074.97
3700.84
-13276.2
4387.88
-16696.9
1867.17
-17318.7
-2363.22
-16586.4
-3319.68
-15154.1
829.136
8528.17
-4955.83
-10268.8
-4897.86
-16607.2
-4833.67
-16459.4
-5594.6
-13499.3
-7343.53
-9299.42
-8602.32
-5072.77
-8637.16
1998.72
-9399.45
7015.1
-12089.8
7963.33
-14874
5127.27
-15399.6
277.849
-14244.6
-1091.59
-13989.5
3445.69
-15393.3
5791.67
-16191.8
2665.74
-15275.2
-3279.84
-13016.2
-5578.66
-8642.92
-3544.18
-535.472
-4675.25
-10037.2
-4707.68
-16574.8
-4758.9
-16408.2
-5769.02
-12489.2
-8095.6
-6972.85
-10085.6
-3082.73
-10785.2
2698.28
-11783.7
8013.63
-14070.3
10249.9
-16288.4
7345.38
-16704.6
694.066
-15862.3
-1933.95
-15585.9
3169.3
-16258.6
6464.41
-16893
3300.13
-16482.5
-3690.31
-15033.6
-7027.58
-10746.6
-7831.2
-11412.6
-4412.55
-9846.86
-4489.21
-16498.1
-4689.02
-16208.4
-5926.82
-11251.4
-8756.79
-4142.87
-11237.3
-602.257
-12322.7
3783.66
-13116
8806.98
-14414.3
11548.2
-15530.2
8461.29
-15455.2
619.085
-14891.8
-2497.4
-14764.5
3042.02
-13962.8
5662.75
-11997.5
1334.79
-10668.1
-5019.66
-12333.4
-5362.34
-14520.9
-5643.66
-13765.8
-4130.04
-9767.73
-4199.45
-16428.7
-4517.03
-15890.8
-5826.81
-9941.61
-8907.87
-1061.81
-11592
2081.89
-12865.1
5056.74
-13290.9
9232.81
-13314.9
11572.2
-12772.2
7918.61
-11434.6
-718.542
-10356.2
-3575.78
-10166.2
2852.04
-7947.3
3443.83
-3635.61
-2976.9
-1030.06
-7625.22
-2815.13
-3577.27
-9018.15
559.354
-7126.34
-3833.94
-9818.48
-3853.99
-16408.6
-4185.45
-15559.3
-5192.33
-8934.74
-7948.01
1693.86
-10553.8
4687.71
-11990.5
6493.37
-12263.4
9505.78
-11580.2
10888.9
-10344.1
6682.55
-8482.66
-2580
-6001.08
-6057.35
-4277.02
1127.97
-1810.65
977.468
647.066
-5434.62
997.974
-7976.12
2058.73
-4638.02
2219
399.083
1039.61
-3524.48
-9939.11
-3506.68
-16426.5
-3766.17
-15299.8
-4230.12
-8470.79
-6307.82
3771.57
-8579.3
6959.19
-9854.49
7768.56
-9913.06
9564.35
-8895.79
9871.62
-7393.98
5180.75
-5527.59
-4446.39
-3022.64
-8562.31
254.986
-2149.66
2245.46
-1013.01
2392.34
-5581.49
1583.87
-7167.65
1377.96
-4432.12
3144.12
-1367.07
-728.872
-3216.98
-10031.7
-3205.33
-16438.1
-3353.94
-15151.2
-3279.69
-8545.03
-4604
5095.87
-6421.17
8776.36
-7295.71
8643.11
-6926.13
9194.78
-5527.64
8473.13
-3771.68
3424.78
-2312.5
-5905.57
-1320.47
-9554.33
1071.46
-4541.59
2800.52
-2742.07
2379.53
-5160.51
1556.57
-6344.69
1484.14
-4359.68
2282.06
-2164.99
-1346.26
-2960.51
-10052
-2965.83
-16432.8
-2996.69
-15120.4
-2523.55
-9018.17
-3147.81
5720.13
-4533.68
10162.2
-5097.55
9206.98
-4350.65
8447.87
-2623.66
6746.15
-711.309
1512.43
25.1502
-6642.03
-26.617
-9502.57
1123.23
-5691.43
2230.19
-3849.03
2121.29
-5051.61
1604.91
-5828.31
1505.24
-4260.01
1924.07
-2583.83
-1675.59
-2781.11
-10034.1
-2773.31
-16440.6
-2700.29
-15193.4
-1981.68
-9736.79
-2024.96
5763.41
-3018.4
11155.7
-3507.01
9695.59
-2676.94
7617.81
-947.104
5016.31
690.474
-125.149
818.583
-6770.14
522.096
-9206.08
1283.57
-6452.91
2001.23
-4566.69
2007.7
-5058.07
1745.23
-5565.84
1762.83
-4277.61
1945.43
-2766.42
-1733.02
-2654.73
-10024.5
-2614.19
-16481.1
-2484.44
-15323.1
-1661.75
-10559.5
-1234.96
5336.63
-1804.53
11725.2
-2400.93
10292
-1816.15
7033.03
-415.081
3615.24
786.934
-1327.16
831.87
-6815.08
797.727
-9171.94
1383.58
-7038.76
1833.9
-5017.01
1894.03
-5118.2
1808.66
-5480.48
1875.54
-4344.49
1990.4
-2881.29
-1691.06
-2567.43
-2496.04
-2360.09
-1695.33
-897.34
-859.626
-1295.84
-1078.38
-257.107
547.462
827.656
1018.17
1366.18
1690.26
1850.4
1911.2
1980.62
2061.43
212.62
-1559.54
397.05
-1919.14
520.352
-1611.27
603.112
-1352.77
705.54
-1353.18
819.328
-1451.74
773.348
-1165.83
738.069
-1063.86
700.265
-944.694
679.84
-865.246
667.012
-784.291
653.87
-702.106
627.226
-599.437
583.164
-498.147
519.316
-405.152
441.591
-376.766
343.359
-443.522
223.86
-637.381
103.698
-832.718
-933.243
14.3462
-1573.89
-10.5614
-1894.23
12.6513
-1634.49
26.0199
-1366.14
7.55571
-1334.72
3.55554
-1447.74
-74.1957
-1088.08
-109.469
-1028.59
-104.559
-949.606
-61.4436
-908.364
5.04108
-850.778
87.6558
-784.723
179.432
-691.216
272.259
-590.976
349.831
-482.727
388.161
-415.098
350.49
-405.853
231.726
-518.619
98.2739
-699.269
-834.969
-37.8844
-1536.01
-3.3821
-1928.74
72.2806
-1710.16
113.147
-1407.01
98.7605
-1320.33
90.804
-1439.79
122.246
-1119.52
132.577
-1038.92
155.542
-972.574
176.057
-928.88
192.976
-867.7
212.406
-804.155
239.87
-718.683
275.13
-626.237
297.55
-505.149
286.705
-404.255
231.164
-350.313
153.584
-441.041
85.1022
-630.789
-749.866
-21.5056
-1514.51
4.57753
-1954.82
56.049
-1761.63
76.8969
-1427.86
95.8482
-1339.28
96.7929
-1440.73
143.473
-1166.2
148.422
-1043.87
146.295
-970.447
142.502
-925.089
135.263
-860.462
129.116
-798.009
124.632
-714.2
131.183
-632.789
141.61
-515.577
146.763
-409.409
133.638
-337.189
103.917
-411.322
68.3809
-595.253
-681.486
-26.8753
-1487.64
-10.2944
-1971.41
27.469
-1799.4
35.214
-1435.61
56.8493
-1360.92
60.9048
-1444.79
102.132
-1207.43
120.222
-1061.96
125.331
-975.558
129.406
-929.166
130.386
-861.444
129.655
-797.28
127.133
-711.68
131.149
-636.807
150.729
-535.159
178.086
-436.767
188.463
-347.566
163.59
-386.45
105.254
-536.92
-576.231
0.0500728
-1487.69
16.7558
-1988.11
47.4882
-1830.13
59.2938
-1447.42
90.0533
-1391.68
110.324
-1465.06
142.118
-1239.23
169.828
-1089.67
186.561
-992.292
198.49
-941.095
206.292
-869.247
207.773
-798.762
203.922
-707.829
193.668
-626.553
193.274
-534.765
207.942
-451.436
223.755
-363.379
201.39
-364.085
121.171
-456.702
-455.06
35.0039
-1522.69
43.7703
-1996.88
62.5468
-1848.91
78.3089
-1463.18
115.118
-1428.49
148.989
-1498.93
172.593
-1262.83
212.209
-1129.29
249.291
-1029.37
277.648
-969.453
297.869
-889.469
307.263
-808.157
310.368
-710.934
300.372
-616.558
286.606
-521
276.415
-441.246
271.219
-358.183
230.893
-323.76
131.721
-357.529
-323.339
79.8427
-1602.53
74.7462
-1991.78
85.7642
-1859.92
113.982
-1491.4
154.115
-1468.62
189.408
-1534.23
205.018
-1278.44
248.629
-1172.9
296.547
-1077.29
334.06
-1006.96
362.75
-918.158
379.801
-825.207
391.446
-722.578
389.283
-614.395
372.071
-503.787
338.904
-408.078
298.263
-317.543
231.042
-256.538
125.735
-252.221
-197.604
98.3047
-1700.84
74.2961
-1967.78
75.7931
-1861.42
115.137
-1530.74
149.24
-1502.73
167.734
-1552.72
182.743
-1293.45
220.863
-1211.02
264.784
-1121.21
297.705
-1039.89
327.567
-948.022
348.621
-846.263
369.409
-743.367
378.405
-623.392
367.301
-492.683
333.168
-373.947
285.549
-269.924
217.306
-188.296
118.082
-152.998
-79.5218
75.2016
-1776.04
45.7994
-1938.37
34.004
-1849.63
88.1178
-1584.86
113.459
-1528.07
98.2641
-1537.53
122.523
-1317.71
145.521
-1234.02
176.826
-1152.52
196.548
-1059.61
219.513
-970.987
235.733
-862.483
254.826
-762.46
262.578
-631.145
244.544
-474.649
208.522
-337.925
168.915
-230.316
124.817
-144.199
39.6416
-67.8222
-39.8802
30.3985
-1806.44
15.0719
-1923.05
-24.3569
-1810.2
23.712
-1632.93
45.0498
-1549.41
-11.8069
-1480.67
19.1551
-1348.67
23.0314
-1237.9
34.0764
-1163.56
36.2108
-1061.74
40.2922
-975.068
39.5798
-861.771
37.9076
-760.788
30.0041
-623.241
3.29261
-447.938
-34.4988
-300.133
-80.5625
-184.252
-127.065
-97.6952
-110.697
-84.1894
-150.577
12.4972
-1818.94
15.3684
-1925.92
-7.01402
-1787.82
-0.345609
-1639.6
7.13203
-1556.89
-41.4627
-1432.08
-36.6841
-1353.45
-41.0678
-1233.51
-47.9243
-1156.71
-54.3081
-1055.36
-63.5849
-965.79
-72.3099
-853.046
-86.3432
-746.753
-90.4521
-619.132
-74.4202
-463.968
-43.0557
-331.496
-12.8533
-214.452
-11.0145
-99.5321
10.8992
-106.1
-139.678
45.1181
-1864.06
61.2554
-1942.06
89.7153
-1816.28
91.9917
-1641.87
101.875
-1566.77
101.502
-1431.7
96.9178
-1348.87
101.65
-1238.24
99.2545
-1154.31
100.362
-1056.47
100.161
-965.589
108.217
-861.102
117.161
-755.697
138.378
-640.349
184.334
-509.922
235.688
-382.85
272.264
-251.028
282.007
-109.275
194.548
-18.6399
54.8701
82.6938
-1946.75
88.7216
-1948.08
120.045
-1847.6
151.87
-1673.7
190.425
-1605.32
227.497
-1468.77
263.186
-1384.56
303.39
-1278.45
338.936
-1189.86
378.201
-1095.73
418.813
-1006.2
466.335
-908.623
509.639
-799.001
537.289
-667.997
550.049
-522.682
536.946
-369.747
497.241
-211.322
434.292
-46.3245
265.921
149.733
320.791
84.8196
-2031.57
66.6639
-1929.93
92.5372
-1873.47
120.449
-1701.61
158.73
-1643.6
203.673
-1513.71
255.081
-1435.96
311.429
-1334.79
373.592
-1252.02
442.633
-1164.77
514.868
-1078.43
580.317
-974.07
613.388
-832.071
583.542
-638.149
492.687
-431.826
375.642
-252.701
258.954
-94.6334
158.786
53.8455
65.6733
242.848
386.465
8.64826
-2040.21
-44.1431
-1877.13
-68.379
-1849.23
-89.496
-1680.49
-110.264
-1622.83
-124.012
-1499.96
-136.166
-1423.8
-142.287
-1328.67
-144.097
-1250.2
-141.077
-1167.79
-136.918
-1082.59
-141.283
-969.701
-169.426
-803.923
-222.458
-585.112
-274.822
-379.455
-296.608
-230.909
-295.188
-96.043
-274.097
32.7625
-216.033
184.791
170.432
-53.2918
-1986.92
-128.382
-1802.04
-188.04
-1789.57
-240.156
-1628.37
-294.265
-1568.72
-336.697
-1457.53
-381.856
-1378.65
-420.984
-1289.54
-461.194
-1209.99
-499.702
-1129.28
-537.602
-1044.69
-567.445
-939.858
-571.423
-799.944
-523.694
-632.84
-423.432
-479.716
-301.79
-352.549
-198.551
-199.281
-151.694
-14.0923
-126.755
159.853
43.6767
-150.853
-1836.07
-329.797
-1623.1
-472.214
-1647.15
-581.771
-1518.81
-680.754
-1469.74
-753.019
-1385.26
-813.081
-1318.58
-856.292
-1246.33
-887.856
-1178.43
-906.686
-1110.45
-909.02
-1042.35
-879.636
-969.241
-793.621
-885.959
-636.561
-789.9
-434.23
-682.046
-229.137
-557.641
-36.5932
-391.822
82.186
-132.868
125.738
116.304
169.415
-191.358
-1644.71
-428.293
-1386.16
-676.93
-1398.52
-884.234
-1311.51
-1082.52
-1271.45
-1248.4
-1219.39
-1391.43
-1175.55
-1506.68
-1131.08
-1596.74
-1088.37
-1661.08
-1046.1
-1698.75
-1004.69
-1704.34
-963.642
-1669.13
-921.172
-1585.68
-873.345
-1452.61
-815.123
-1268.55
-741.7
-1016.89
-643.474
-654.394
-495.369
-251.392
-286.697
-81.9774
-669.707
-1080.87
-1504.38
-1840.89
-2137.33
-2381.72
-2582.27
-2738.35
-2851.72
-2922.81
-2952.5
-2941.14
-2887.32
-2785.66
-2625.78
-2392.48
-2060.96
-1581.33
-893.023
-668.348
1643.35
-1082.87
1389.53
-1509.91
1402.05
-1852.89
1317.98
-2157.83
1279.94
-2413.22
1230.4
-2627.13
1188.91
-2799.04
1146.92
-2931
1106.96
-3023.97
1067.97
-3078.76
1029.78
-3093.77
990.015
-3062.53
943.758
-2971.42
883.897
-2799.68
803.26
-2522.5
697.819
-2117.46
569.968
-1567.38
424.92
-857.466
265.087
117.534
-226.154
1869.51
-498.216
1661.6
-783.847
1687.68
-1030.89
1565.03
-1269.89
1518.95
-1478.5
1439
-1666.13
1376.55
-1828.32
1309.11
-1968.2
1246.85
-2085.66
1185.44
-2180.17
1124.29
-2245.15
1055
-2265.46
964.066
-2213.81
832.255
-2047.46
636.908
-1719.61
369.97
-1259.28
109.64
-796.619
-37.7371
-345.097
-186.429
-227.563
-165.278
2034.8
-358.446
1854.77
-512.101
1841.34
-624.658
1677.59
-725.672
1619.97
-794.427
1507.76
-847.25
1429.37
-877.569
1339.44
-889.513
1258.79
-882.029
1177.96
-855.864
1098.13
-811.301
1010.44
-749.48
902.25
-671.325
754.105
-576.703
542.293
-466.412
259.688
-364.254
7.49361
-272.414
-129.566
-184.288
-274.546
-411.85
40.2191
1994.58
-0.774798
1895.77
3.83399
1836.73
27.3506
1654.07
57.2035
1590.12
105.164
1459.8
163.723
1370.82
235.73
1267.43
320.895
1173.63
419.788
1079.07
530.733
987.191
645.923
895.254
748.625
799.55
811.266
691.467
792.605
560.957
652.556
399.74
415.809
244.246
216.08
70.1689
55.027
-113.485
-356.823
103.512
1891.07
118.405
1880.88
170.329
1784.81
221.847
1602.56
276.965
1535.01
333.057
1403.71
387.213
1316.67
444.75
1209.9
501.502
1116.89
557.148
1023.42
615.814
928.532
691.415
819.657
813.996
676.974
961.096
544.371
1009.1
512.96
901.23
507.613
721.331
424.15
488.055
303.453
253.039
121.543
-103.784
-6.76589
1897.83
-28.295
1902.4
-47.2251
1803.74
-79.2269
1634.55
-111.749
1567.53
-147.597
1439.56
-188.906
1357.98
-222.395
1243.38
-266.153
1160.64
-310.45
1067.71
-359.38
977.463
-377.376
837.648
-410.086
709.689
-408.752
543.037
-495.728
599.945
-333.073
344.963
-279.545
370.631
-229.481
253.405
-123.281
15.3662
-227.064
-9.62603
1907.45
-10.1644
1902.94
-11.5327
1805.11
-20.056
1643.07
-35.3582
1582.83
-72.0108
1476.2
-117.557
1403.51
-140.559
1266.37
-138.767
1158.84
-106.591
1035.52
-60.4811
931.338
-8.42402
785.584
-34.9138
736.179
-143.445
651.568
-371.128
827.641
-371.986
345.841
-259.614
258.283
-166.446
160.278
-177.905
26.8682
-404.969
36.6682
1870.78
2.46519
1937.13
-2.61207
1810.18
-13.6308
1654.07
-21.8664
1591.06
-31.103
1485.43
-38.003
1410.41
-52.8556
1281.2
-64.2826
1170.26
-64.9711
1036.19
-50.712
917.072
-38.416
773.267
33.2225
664.543
96.3005
588.483
181.68
742.266
18.4515
509.071
-1.24642
277.986
-30.8806
189.923
-31.2811
27.2869
-436.25
138.395
1732.38
99.421
1976.1
110.758
1798.84
131.616
1633.21
166.689
1555.99
213.562
1438.55
275.985
1347.99
325.612
1231.57
364.703
1131.17
387.015
1013.87
407.025
897.064
406.062
774.228
416.852
653.756
452.457
552.877
658.96
535.766
679.514
488.519
568.897
388.608
450.026
308.8
325.02
152.302
-111.23
180.459
1551.92
161.486
1995.06
167.889
1792.43
193.989
1607.11
238.036
1511.94
292.164
1384.42
359.246
1280.9
422.707
1168.11
477.92
1075.95
511.333
980.455
521.786
886.611
507.918
788.093
478.69
682.984
486.959
544.606
583.801
438.926
638.848
433.472
604.668
422.789
513.599
399.87
320.958
344.947
209.728
127.639
1424.28
127.392
1995.31
132.09
1787.73
147.427
1591.77
175.966
1483.4
213.212
1347.17
256.62
1237.49
301.802
1122.92
339.35
1038.4
363.556
956.246
370.043
880.123
372.153
785.981
379.936
675.2
400.424
524.116
406.177
433.173
405.116
434.532
403.559
424.347
363.136
440.294
231.105
476.978
440.833
30.0512
1394.22
32.8813
1992.47
41.6016
1779
42.3658
1591
46.2337
1479.52
49.8726
1343.52
54.6959
1232.66
66.1472
1111.47
73.8365
1030.71
80.1708
949.907
89.9939
870.296
118.699
757.272
160.869
633.027
180.701
504.281
181.645
432.227
210.922
405.253
255.488
379.779
252.769
443.011
171.171
558.574
612.005
-36.283
1430.5
-33.982
1990.17
-20.9017
1765.92
-30.5807
1600.68
-43.5195
1492.46
-67.6322
1367.63
-96.1942
1261.23
-118.109
1133.38
-130.414
1043.01
-130.487
949.977
-112.318
852.125
-78.918
723.869
-49.1789
603.286
-48.7519
503.852
-26.1776
409.651
33.5077
345.566
95.0284
318.258
121.071
416.968
89.115
590.529
701.12
-32.2621
1462.76
-27.231
1985.13
-9.03881
1747.73
-14.7086
1606.34
-19.8397
1497.59
-33.1031
1380.9
-52.7125
1280.83
-78.2543
1158.92
-90.9149
1055.67
-90.4359
949.495
-77.8619
839.548
-71.5076
717.512
-79.3416
611.117
-98.2995
522.808
-96.9509
408.3
-77.8825
326.496
-46.9269
287.301
-12.8718
382.911
-3.55725
581.212
697.562
17.7377
1445.02
28.2537
1974.61
53.4935
1722.48
62.3173
1597.52
75.826
1484.08
89.7653
1366.95
103.528
1267.07
103.955
1158.49
106.241
1053.38
108.7
947.034
108.879
839.366
91.3329
735.056
62.055
640.393
30.2287
554.632
-6.47885
445.005
-40.1128
360.128
-52.8547
300.041
-43.1134
373.169
-33.9804
572.077
663.582
45.8997
1399.11
54.8315
1965.68
80.3896
1696.92
96.2001
1581.71
115.793
1464.49
139.279
1343.47
167.755
1238.59
188.143
1138.1
204.059
1037.46
211.247
939.844
208.995
841.616
193.107
750.942
171.548
661.95
146.64
579.538
110.349
481.295
75.8591
394.616
52.2865
323.613
35.4171
390.037
10.5818
596.91
674.164
53.7259
1345.39
66.6592
1952.75
96.372
1667.21
114.576
1563.5
129.745
1449.32
147.4
1325.81
170.1
1215.89
187.802
1120.4
200.614
1024.65
206.094
934.364
204.311
843.398
196.303
758.95
183.84
674.413
165.709
597.669
140.508
506.496
117.552
417.571
97.1815
343.983
76.6656
410.552
43.847
629.728
718.011
38.1398
1307.25
57.1479
1933.74
107.204
1617.15
135.522
1535.18
163.255
1421.58
192.506
1296.56
226.954
1181.44
253.643
1093.71
270.128
1008.17
275.212
929.28
271.842
846.768
260.62
770.171
243.468
691.564
222.422
618.713
198.978
529.94
169.538
447.011
129.956
383.566
96.1338
444.374
70.1736
655.689
788.184
80.3937
1226.85
81.8688
1932.26
87.8636
1611.16
106.756
1516.29
119.535
1408.8
120.269
1295.83
131.609
1170.1
145.793
1079.52
158.327
995.633
166.216
921.391
169.682
843.302
169.048
770.805
168.009
692.604
170.941
615.783
176.625
524.256
175.417
448.22
150.79
408.194
101.619
493.547
63.3242
693.986
851.509
181.993
410.436
545.1
678.392
784.71
854.766
874.747
871.21
852.245
820.054
773.391
715.245
646.736
571.307
485.327
389.544
280.298
166.165
80.0435
)
;

boundaryField
{
    outletWall
    {
        type            calculated;
        value           nonuniform List<scalar> 
60
(
-3591.46
-3173.4
-3594.36
-1245.84
451.765
2083.23
726.873
-2855.77
-3694.77
-4246.86
-5485.93
-6224.28
-5853.36
-5558.78
-5039.82
-2719.89
2441.71
5999.28
8403.44
7622.73
2602.67
2645.19
2763.21
2980.76
3309.58
3645.11
3884.69
4050.91
4222.23
4443.65
4778.42
5305.78
6077.05
7298.23
9385.85
11965.1
13759.1
13846.3
12844.9
10228.8
2218.51
-1455.85
-2962.09
-4413.92
-5541.27
-5278.35
-5341.09
-7386.77
-9362.45
-7095.27
-2131.73
2793.96
6815.58
10728.2
11687.5
4538.64
-11224.3
-15459.1
-16552.5
-10059.8
)
;
    }
    fineWalls
    {
        type            calculated;
        value           uniform 0;
    }
    fineFrontAndBack
    {
        type            calculated;
        value           nonuniform List<scalar> 
960
(
-4.40549e-13
2.32482e-13
6.44968e-13
-1.73094e-13
-1.91093e-12
-3.78793e-13
-3.90719e-13
-2.10141e-13
-2.49751e-12
-5.01375e-13
-4.16442e-13
-2.04651e-12
-4.49154e-13
-4.0305e-13
-4.7468e-12
-1.17853e-12
-1.24882e-12
-4.88794e-12
-8.63172e-13
-1.27009e-12
-6.76213e-14
-4.35268e-13
-4.89479e-13
-5.27036e-13
-5.01925e-13
-4.86327e-13
-5.64353e-12
-4.85316e-13
-4.89747e-13
-5.02836e-13
-5.22021e-13
-5.45294e-13
-5.80988e-13
-6.36687e-13
-7.11205e-13
-8.05054e-13
-8.24833e-13
-7.63286e-13
-6.2778e-13
-6.11921e-13
-1.07192e-11
-1.38703e-12
-1.57129e-12
-1.94488e-12
-6.2177e-12
-1.81289e-12
-4.62403e-12
6.14037e-13
1.8285e-10
2.32998e-11
1.40998e-11
4.89566e-11
9.37117e-12
1.24198e-11
9.60143e-12
9.71879e-12
5.06585e-13
7.72419e-13
9.48524e-13
1.02761e-11
6.05824e-13
7.59398e-13
8.7692e-13
8.6789e-13
7.80265e-13
6.88617e-13
6.21989e-13
5.68224e-13
5.29151e-13
5.03772e-13
4.98243e-13
4.80548e-13
4.61625e-13
-1.7709e-12
2.496e-13
7.06066e-14
-2.28376e-14
-1.47224e-13
-2.70789e-13
-6.72063e-13
-3.16514e-12
-3.546e-12
-1.90914e-11
-2.87923e-12
-3.25652e-12
-1.80352e-11
-2.23606e-12
-2.61686e-12
-1.36849e-11
-1.62657e-12
-2.22156e-12
-1.11841e-11
-6.915e-13
-8.94689e-13
-8.99154e-13
-5.56567e-12
-2.22304e-13
-3.41682e-13
-2.2414e-12
3.25816e-13
-4.54877e-11
-3.26688e-11
-2.45171e-11
-1.4895e-11
-1.14151e-11
-1.9264e-11
-2.21754e-11
-2.08793e-11
-1.95142e-11
-2.129e-11
-2.40431e-11
-3.69475e-11
-5.27861e-11
-5.64051e-11
-5.595e-11
-5.4363e-11
-5.22434e-11
-4.51409e-11
-4.00791e-11
-3.62287e-11
-3.18861e-11
-2.9902e-11
-2.11536e-11
-1.23369e-11
-1.95754e-11
-2.18148e-11
-1.72961e-11
-1.45231e-11
-1.62269e-11
-2.08074e-11
-3.55759e-11
-5.06321e-11
-5.18956e-11
-5.28905e-11
-5.23446e-11
-5.26671e-11
-4.6531e-11
-4.11538e-11
-2.37694e-11
-2.07908e-11
-2.11036e-11
-1.88998e-11
-1.20655e-11
-1.03442e-11
-2.29528e-11
-1.33492e-11
-6.54233e-12
-9.85078e-12
-1.78591e-11
-2.92203e-11
-4.55421e-11
-4.67743e-11
-4.66692e-11
-4.56601e-11
-4.47627e-11
-4.48141e-11
-4.23678e-11
-1.19913e-11
-5.80836e-12
-4.86333e-12
-9.07694e-12
-1.12877e-11
1.67897e-12
-6.42152e-12
-3.16427e-12
-2.88688e-13
-1.38228e-11
-2.02071e-11
-2.69091e-11
-3.59371e-11
-3.58367e-11
-4.06151e-11
-4.44479e-11
-3.99695e-11
-4.10364e-11
-4.25534e-11
-1.42677e-13
7.83394e-12
6.64621e-12
3.26873e-12
-6.94455e-12
-2.61258e-12
2.94096e-11
2.00813e-11
-6.9211e-12
-3.49922e-11
-3.77916e-11
-2.69474e-11
-2.54852e-11
-2.7532e-11
-4.52446e-11
-4.81577e-11
-4.16834e-11
-3.81896e-11
-3.93634e-11
9.89922e-12
1.25983e-11
4.50003e-12
9.77269e-12
3.462e-12
-2.12178e-11
1.86088e-11
2.01653e-11
-4.13891e-11
-7.99529e-11
-7.02139e-11
-4.2072e-11
-2.65197e-11
-3.29201e-11
-4.57316e-11
-3.91902e-11
-5.03388e-11
-3.64853e-11
-4.01033e-11
1.29062e-11
3.96851e-12
-6.32189e-12
1.17326e-11
1.68953e-11
-3.25109e-11
-5.74707e-11
-4.41093e-11
-8.76191e-11
-9.58208e-11
-7.08125e-11
-5.65541e-11
-3.65816e-11
-4.4154e-11
-3.48303e-11
-2.27776e-11
-3.24618e-11
-4.61377e-11
-3.94051e-11
9.29872e-12
-7.35209e-12
-1.18938e-11
1.4401e-11
3.12421e-11
-2.3279e-11
-1.07256e-10
-1.09594e-10
-9.95489e-11
-6.33642e-11
-5.27874e-11
-5.90759e-11
-5.16179e-11
-3.54657e-11
-1.85447e-11
-1.4812e-11
-1.75686e-11
-1.7349e-11
-5.03315e-12
9.29949e-12
-8.40049e-12
-9.4225e-12
1.77232e-11
4.60624e-11
2.33171e-13
-9.94762e-11
-1.14875e-10
-7.3567e-11
-3.3821e-11
-3.52028e-11
-4.51591e-11
-4.45091e-11
-2.44465e-11
-8.07383e-12
-8.15584e-13
5.19267e-13
6.44569e-13
5.27334e-12
1.6658e-11
-1.32474e-12
-5.38565e-12
1.72771e-11
5.95186e-11
3.29438e-11
-5.58008e-11
-7.61371e-11
-3.89737e-11
-5.23508e-12
-1.4797e-12
-1.34958e-11
-2.15183e-11
-1.10579e-11
3.47129e-12
6.88331e-12
7.64732e-12
1.92754e-11
3.48533e-11
2.52436e-11
4.97461e-12
-5.81538e-12
9.70361e-12
6.31967e-11
6.23176e-11
-2.1325e-12
-3.03441e-11
-9.31877e-12
1.46099e-11
1.92896e-11
1.43036e-11
9.69893e-12
2.03246e-12
-7.16108e-12
-1.94653e-11
-1.95711e-11
-4.86626e-12
6.12924e-11
2.79653e-11
5.36985e-12
-1.1063e-11
-4.33491e-12
5.14544e-11
6.83024e-11
3.00966e-11
5.13583e-12
6.60451e-12
1.08871e-11
3.60853e-12
5.5654e-13
3.6132e-12
-3.32938e-13
-9.51624e-12
-1.06414e-11
-8.88386e-12
-1.74371e-11
-2.00648e-11
2.88947e-11
4.04286e-12
-1.25715e-11
-1.49604e-11
3.69565e-11
6.5004e-11
4.34928e-11
2.51889e-11
1.66031e-11
1.2864e-11
6.72071e-12
1.36965e-14
-5.23413e-12
-9.53988e-12
-8.67036e-12
6.58469e-13
5.95576e-12
-2.98382e-12
-1.06836e-11
2.65903e-11
1.59565e-12
-9.83585e-12
-1.81575e-11
2.46236e-11
5.897e-11
4.98699e-11
3.61326e-11
2.45453e-11
1.45838e-11
-1.87975e-12
-1.13257e-11
-5.02415e-12
-9.67974e-12
-9.74135e-12
-5.96894e-14
3.76532e-12
4.76827e-12
3.13747e-12
1.60722e-11
-3.8344e-12
-7.83777e-12
-1.96942e-11
7.70421e-12
4.96511e-11
5.23165e-11
4.18365e-11
3.05866e-11
1.52663e-11
-7.80472e-12
-1.64839e-11
-1.37175e-11
-8.23191e-12
-2.19576e-12
2.09829e-12
2.13083e-12
-8.38718e-13
3.53814e-12
-1.28516e-13
-9.70158e-12
-7.84955e-12
-1.9704e-11
-9.91362e-12
2.95715e-11
4.56444e-11
4.05589e-11
3.09131e-11
1.35499e-11
-8.24284e-12
-1.56389e-11
-1.23493e-11
-1.00002e-11
-5.21249e-12
-1.22702e-12
-2.83284e-12
-3.72196e-12
-3.61576e-12
-1.39666e-11
-1.25489e-11
-8.546e-12
-1.79471e-11
-2.00602e-11
3.73702e-12
2.4345e-11
2.48494e-11
1.74553e-11
3.70158e-12
-1.23057e-11
-1.71237e-11
-9.40086e-12
-3.79361e-12
-1.09242e-12
-1.39509e-12
-1.86785e-12
-2.1795e-12
-2.61583e-12
-1.94764e-11
-1.30677e-11
-8.12923e-12
-1.55285e-11
-2.19436e-11
-1.63288e-11
-4.86364e-12
-2.21237e-12
-5.20365e-12
-1.42672e-11
-2.05285e-11
-1.65165e-11
-7.10676e-12
-2.35461e-12
-1.09417e-12
-1.31335e-12
-1.89039e-12
-2.27586e-12
-2.82114e-12
-1.76515e-11
-1.17781e-11
-7.02338e-12
-1.3466e-11
-1.98765e-11
-2.51739e-11
-2.89713e-11
-3.01642e-11
-2.83077e-11
-2.96117e-11
-2.55517e-11
-1.31792e-11
-4.76046e-12
-1.50337e-12
-1.12293e-12
-1.67879e-12
-2.2452e-12
-2.51643e-12
-3.24353e-12
-1.51507e-11
-1.11942e-11
-5.89611e-12
-1.23346e-11
-1.75032e-11
-2.41387e-11
-3.48485e-11
-4.08326e-11
-3.60494e-11
-3.26116e-11
-2.40191e-11
-1.11921e-11
-3.4735e-12
-1.32831e-12
-1.28923e-12
-1.8084e-12
-2.30423e-12
-2.54019e-12
-3.61967e-12
4.40549e-13
-2.32482e-13
-6.44968e-13
1.73094e-13
1.91093e-12
3.78793e-13
3.90719e-13
2.10141e-13
2.49751e-12
5.01375e-13
4.16442e-13
2.04651e-12
4.49154e-13
4.0305e-13
4.7468e-12
1.17853e-12
1.24882e-12
4.88794e-12
8.63172e-13
1.27009e-12
6.76213e-14
4.35268e-13
4.89479e-13
5.27036e-13
5.01925e-13
4.86327e-13
5.64353e-12
4.85316e-13
4.89747e-13
5.02836e-13
5.22021e-13
5.45294e-13
5.80988e-13
6.36687e-13
7.11205e-13
8.05054e-13
8.24833e-13
7.63286e-13
6.2778e-13
6.11921e-13
1.07192e-11
1.38703e-12
1.57129e-12
1.94488e-12
6.2177e-12
1.81289e-12
4.62403e-12
-6.14037e-13
-1.8285e-10
-2.32998e-11
-1.40998e-11
-4.89566e-11
-9.37117e-12
-1.24198e-11
-9.60143e-12
-9.71879e-12
-5.06585e-13
-7.72419e-13
-9.48524e-13
-1.02761e-11
-6.05824e-13
-7.59398e-13
-8.7692e-13
-8.6789e-13
-7.80265e-13
-6.88617e-13
-6.21989e-13
-5.68224e-13
-5.29151e-13
-5.03772e-13
-4.98243e-13
-4.80548e-13
-4.61625e-13
1.7709e-12
-2.496e-13
-7.06066e-14
2.28376e-14
1.47224e-13
2.70789e-13
6.72063e-13
3.16514e-12
3.546e-12
1.90914e-11
2.87923e-12
3.25652e-12
1.80352e-11
2.23606e-12
2.61686e-12
1.36849e-11
1.62657e-12
2.22156e-12
1.11841e-11
6.915e-13
8.94689e-13
8.99154e-13
5.56567e-12
2.22304e-13
3.41682e-13
2.2414e-12
-3.25816e-13
4.54877e-11
3.26688e-11
2.45171e-11
1.4895e-11
1.14151e-11
1.9264e-11
2.21754e-11
2.08793e-11
1.95142e-11
2.129e-11
2.40431e-11
3.69475e-11
5.27861e-11
5.64051e-11
5.595e-11
5.4363e-11
5.22434e-11
4.51409e-11
4.00791e-11
3.62287e-11
3.18861e-11
2.9902e-11
2.11536e-11
1.23369e-11
1.95754e-11
2.18148e-11
1.72961e-11
1.45231e-11
1.62269e-11
2.08074e-11
3.55759e-11
5.06321e-11
5.18956e-11
5.28905e-11
5.23446e-11
5.26671e-11
4.6531e-11
4.11538e-11
2.37694e-11
2.07908e-11
2.11036e-11
1.88998e-11
1.20655e-11
1.03442e-11
2.29528e-11
1.33492e-11
6.54233e-12
9.85078e-12
1.78591e-11
2.92203e-11
4.55421e-11
4.67743e-11
4.66692e-11
4.56601e-11
4.47627e-11
4.48141e-11
4.23678e-11
1.19913e-11
5.80836e-12
4.86333e-12
9.07694e-12
1.12877e-11
-1.67897e-12
6.42152e-12
3.16427e-12
2.88688e-13
1.38228e-11
2.02071e-11
2.69091e-11
3.59371e-11
3.58367e-11
4.06151e-11
4.44479e-11
3.99695e-11
4.10364e-11
4.25534e-11
1.42677e-13
-7.83394e-12
-6.64621e-12
-3.26873e-12
6.94455e-12
2.61258e-12
-2.94096e-11
-2.00813e-11
6.9211e-12
3.49922e-11
3.77916e-11
2.69474e-11
2.54852e-11
2.7532e-11
4.52446e-11
4.81577e-11
4.16834e-11
3.81896e-11
3.93634e-11
-9.89922e-12
-1.25983e-11
-4.50003e-12
-9.77269e-12
-3.462e-12