/*--------------------------------*- C++ -*----------------------------------*\
| =========                 |                                                 |
| \\      /  F ield         | OpenFOAM: The Open Source CFD Toolbox           |
|  \\    /   O peration     | Version:  4.1                                   |
|   \\  /    A nd           | Web:      www.OpenFOAM.org                      |
|    \\/     M anipulation  |                                                 |
\*---------------------------------------------------------------------------*/
FoamFile
{
    version     2.0;
    format      ascii;
    class       volVectorField;
    location    "17";
    object      U;
}
// * * * * * * * * * * * * * * * * * * * * * * * * * * * * * * * * * * * * * //

dimensions      [0 1 -1 0 0 0 0];

internalField   nonuniform List<vector> 
1280
(
(-3.18373e-16 -0.719243 -1.51332)
(3.95125e-17 -0.145743 -1.33207)
(4.66102e-16 -0.293896 -0.813717)
(-1.25091e-16 -0.0545392 -0.988627)
(-3.24782e-16 0.123182 -1.60061)
(-2.73744e-16 0.334541 -1.16166)
(-2.82363e-16 0.5437 -1.15367)
(-1.41133e-16 0.654842 -1.0695)
(-4.40424e-16 1.00362 -1.6619)
(-3.64319e-16 1.09898 -1.24855)
(-2.97454e-16 1.31841 -1.09231)
(-3.70077e-16 1.71191 -1.87669)
(-3.24592e-16 1.77566 -1.49655)
(-2.91273e-16 2.04275 -1.33866)
(-9.03633e-16 2.72047 -2.41687)
(-8.51694e-16 2.52258 -2.02422)
(-9.02492e-16 3.1968 -1.68714)
(-8.30752e-16 2.61724 -3.91086)
(-6.44427e-16 4.93389 -1.74531)
(-9.17858e-16 2.49834 -6.28323)
(-2.77421e-16 4.61016 2.75678)
(-1.78571e-15 4.62967 7.54747)
(-2.00812e-15 4.62989 9.02025)
(-2.1622e-15 5.03173 9.44991)
(-2.05918e-15 4.98753 10.0171)
(-1.99519e-15 5.37863 11.4669)
(-1.18968e-15 4.14219 8.91099)
(-1.99104e-15 8.30319 13.7501)
(-2.00922e-15 8.49089 13.6023)
(-2.06292e-15 8.40122 13.332)
(-2.14162e-15 8.37245 12.975)
(-2.2371e-15 8.29548 12.5998)
(-2.38354e-15 8.23945 12.1765)
(-2.61205e-15 8.1167 11.7978)
(-2.91776e-15 8.06684 11.4796)
(-3.30278e-15 7.88893 11.4128)
(-3.38393e-15 7.87722 11.7712)
(-3.13143e-15 7.67496 12.8316)
(-2.57551e-15 7.75266 14.1659)
(-2.51044e-15 7.59412 15.1888)
(-1.86584e-15 9.42902 15.2472)
(-1.11408e-15 5.33453 10.1218)
(-1.26208e-15 3.99122 9.90965)
(-1.55739e-15 3.07332 9.87766)
(-9.11441e-16 0.677639 8.26861)
(-1.45613e-15 0.12868 1.95289)
(-3.71408e-15 -0.535963 -1.25725)
(4.93203e-16 0.425395 -3.02971)
(3.258e-14 0.149137 -5.74458)
(1.85292e-14 -0.717191 -3.07609)
(1.12394e-14 0.388084 -2.5301)
(8.5216e-15 -0.970181 -5.12885)
(7.52704e-15 -0.687236 -4.07199)
(9.97573e-15 0.115399 -2.99531)
(7.71199e-15 0.00980874 -0.779658)
(1.6917e-15 -0.927652 8.15449)
(4.11619e-16 -3.20025 9.62676)
(6.20417e-16 -4.18293 9.20366)
(7.61867e-16 -5.32154 9.24824)
(1.69117e-15 -8.63654 14.051)
(2.48543e-15 -7.49788 14.0196)
(3.11548e-15 -7.62359 13.1016)
(3.59762e-15 -7.58388 12.5333)
(3.56057e-15 -7.78799 12.4401)
(3.20109e-15 -7.81215 12.8631)
(2.8251e-15 -7.97932 13.3716)
(2.55175e-15 -8.0302 13.8904)
(2.33118e-15 -8.1497 14.2786)
(2.17088e-15 -8.19292 14.5745)
(2.06676e-15 -8.26278 14.7339)
(2.04408e-15 -8.26128 14.8008)
(1.97148e-15 -8.26445 14.7305)
(1.89385e-15 -8.14881 14.5435)
(-3.73312e-16 -4.42421 9.43229)
(1.024e-15 -4.84734 11.2049)
(2.89668e-16 -4.58685 10.4819)
(-9.36928e-17 -4.51068 9.82105)
(-6.03996e-16 -4.10009 8.73785)
(-1.11093e-15 -4.32497 7.32246)
(-2.75718e-15 -4.0832 1.53163)
(-2.28736e-15 -2.98162 -4.2524)
(-2.58461e-15 -4.31879 -1.24695)
(-3.24477e-15 -3.24642 -2.62557)
(-2.08074e-15 -3.31676 -1.17345)
(-2.3534e-15 -2.85836 -1.37246)
(-3.18747e-15 -3.22519 -1.59733)
(-1.61594e-15 -2.60573 -0.876564)
(-1.90822e-15 -2.3977 -0.965719)
(-2.39979e-15 -2.58376 -1.15634)
(-1.15505e-15 -2.10446 -0.560807)
(-1.60546e-15 -1.96748 -0.639524)
(-1.97917e-15 -2.14667 -0.788402)
(-5.11834e-16 -1.67361 -0.374537)
(-6.46568e-16 -1.75514 -0.418859)
(-6.49795e-16 -1.54174 -0.400162)
(-9.45939e-16 -1.78113 -0.459147)
(-1.60653e-16 -1.39085 -0.140717)
(-2.46924e-16 -1.36638 -0.158622)
(-3.65671e-16 -1.482 -0.162541)
(2.35459e-16 -1.16485 0.0662308)
(-5.05419e-15 2.55574 8.53062)
(-3.62987e-15 2.85583 8.633)
(-2.72413e-15 2.10822 6.61703)
(-1.655e-15 0.932601 3.83819)
(-1.26834e-15 -0.846912 0.926318)
(-2.14044e-15 -1.68169 0.88414)
(-2.46394e-15 -1.85609 1.13425)
(-2.31992e-15 -1.95619 1.11339)
(-2.16825e-15 -2.07611 1.04339)
(-2.36555e-15 -1.81994 0.785464)
(-2.67146e-15 -1.40019 0.445963)
(-4.10528e-15 -1.21785 0.115531)
(-5.86512e-15 -0.938795 -0.140161)
(-6.26724e-15 0.283536 -0.399736)
(-6.21667e-15 0.711848 -0.842173)
(-6.04033e-15 0.149204 -0.985261)
(-5.80482e-15 -0.414784 -1.0794)
(-5.01565e-15 -1.18372 -0.821386)
(-4.45324e-15 -1.07249 -0.959814)
(-4.02541e-15 2.46168 10.722)
(-3.5429e-15 3.42938 11.4786)
(-3.32244e-15 3.64115 9.79507)
(-2.3504e-15 2.81169 6.80684)
(-1.37077e-15 0.122207 2.19038)
(-2.17504e-15 -1.73575 0.465948)
(-2.42386e-15 -1.9441 1.34512)
(-1.92179e-15 -1.91743 1.29888)
(-1.61368e-15 -1.95898 1.20066)
(-1.80299e-15 -1.62205 0.846162)
(-2.31193e-15 -1.19237 0.421133)
(-3.95287e-15 -1.04001 0.0679169)
(-5.62579e-15 -0.781451 -0.0773445)
(-5.76618e-15 0.467132 -0.363393)
(-5.87672e-15 0.890654 -1.01492)
(-5.81607e-15 0.22557 -1.27923)
(-5.8519e-15 -0.50217 -1.30305)
(-5.17011e-15 -1.30635 -0.888903)
(-4.57265e-15 -1.30992 -0.952833)
(-2.64105e-15 2.25322 11.5536)
(-2.31009e-15 3.36972 12.0349)
(-2.34484e-15 4.21509 10.7821)
(-2.09998e-15 4.14529 8.80678)
(-1.34061e-15 1.8969 4.87909)
(-1.14936e-15 -1.41116 0.368529)
(-2.55031e-15 -2.19164 1.47535)
(-1.48324e-15 -1.88245 1.73001)
(-7.26925e-16 -1.86374 1.53639)
(-1.09453e-15 -1.46011 1.10646)
(-1.98435e-15 -1.04954 0.521188)
(-3.2467e-15 -0.992184 0.0449841)
(-5.06024e-15 -0.73367 -0.0204619)
(-5.19714e-15 0.674946 -0.278818)
(-5.18546e-15 1.10213 -0.965907)
(-5.07334e-15 0.306071 -1.34255)
(-4.97363e-15 -0.492829 -1.57119)
(-4.97934e-15 -1.26058 -1.04474)
(-4.70754e-15 -1.25899 -1.0467)
(-1.33237e-15 2.23763 11.4735)
(-6.45373e-16 3.68569 10.8839)
(-5.4037e-16 4.84364 9.60202)
(-1.00855e-15 5.12636 8.69612)
(-1.25419e-15 3.51994 6.57867)
(1.86552e-16 -0.53459 2.09951)
(-7.13502e-16 -2.41975 1.27466)
(-3.51585e-16 -1.93572 2.44549)
(-3.20765e-17 -1.72704 2.12577)
(-1.53586e-15 -1.24243 1.60947)
(-2.24523e-15 -0.79176 0.79758)
(-2.9899e-15 -0.852811 0.172541)
(-3.99301e-15 -0.677666 0.098789)
(-3.98186e-15 0.885805 -0.093432)
(-4.51278e-15 1.28977 -0.449785)
(-4.93866e-15 0.414348 -0.911491)
(-4.44105e-15 -0.709478 -1.39495)
(-4.5596e-15 -1.63193 -0.997557)
(-4.72815e-15 -1.4352 -1.26166)
(-1.5853e-17 2.48593 9.96865)
(8.70437e-16 4.13919 8.19849)
(7.38467e-16 5.11213 7.10346)
(3.63192e-16 5.38588 6.99445)
(-7.71617e-16 4.4663 6.69912)
(-2.90287e-16 0.769809 4.07749)
(3.26773e-15 -2.39125 1.32875)
(2.23125e-15 -2.18781 2.95935)
(-7.69011e-16 -1.53367 2.84868)
(-3.88802e-15 -0.9139 2.03029)
(-4.19907e-15 -0.467171 0.940874)
(-2.99415e-15 -0.724172 0.309871)
(-2.83169e-15 -0.624678 0.341114)
(-3.05911e-15 0.974752 0.532148)
(-5.02718e-15 1.4155 0.410937)
(-5.35086e-15 0.641986 -0.277186)
(-4.63148e-15 -0.254965 -1.22377)
(-4.24328e-15 -1.16952 -0.92853)
(-4.37371e-15 -1.04701 -1.30038)
(1.09991e-15 2.95208 7.81684)
(1.39981e-15 4.79172 5.80319)
(5.00003e-16 5.29307 5.18817)
(1.08585e-15 5.28447 5.28095)
(3.84667e-16 4.67439 5.88433)
(-2.35754e-15 1.74344 5.13865)
(2.06764e-15 -2.0555 2.31028)
(2.24059e-15 -2.48676 2.87521)
(-4.59879e-15 -1.36969 3.21491)
(-8.88366e-15 -0.474969 2.07847)
(-7.80154e-15 -0.127101 0.802879)
(-4.67466e-15 -0.667819 0.501054)
(-2.94664e-15 -0.782924 0.864554)
(-3.65779e-15 0.889644 1.58686)
(-5.08128e-15 1.57978 1.35743)
(-4.35446e-15 0.993081 0.920058)
(-5.59319e-15 -0.783806 -0.244318)
(-4.05393e-15 -1.97111 -0.143972)
(-4.45592e-15 -1.20672 -2.20618)
(1.43403e-15 3.30899 6.08112)
(4.40945e-16 5.19756 4.7983)
(-7.02432e-16 5.34367 4.53571)
(1.30362e-15 5.12615 4.532)
(1.87725e-15 4.52216 5.23096)
(-3.61233e-15 2.2171 5.56679)
(-6.38564e-15 -1.53293 3.75204)
(-4.90103e-15 -2.53205 2.96033)
(-9.73545e-15 -1.22161 3.17279)
(-1.06468e-14 0.117181 2.06873)
(-7.86805e-15 0.213274 1.66637)
(-6.28379e-15 -0.754792 2.1028)
(-4.06462e-15 -0.972805 2.27656)
(-4.906e-15 0.88601 2.80895)
(-3.87003e-15 1.71284 3.12358)
(-2.53084e-15 1.38261 3.6545)
(-3.60687e-15 0.618139 2.25786)
(-5.12641e-15 0.283714 -0.399998)
(-4.37835e-15 0.464473 -1.41731)
(1.03319e-15 3.46969 5.07189)
(-8.16899e-16 5.4007 4.56563)
(-1.32153e-15 5.39743 4.3226)
(1.60011e-15 5.01045 4.30235)
(3.47134e-15 4.26939 5.00573)
(-2.58656e-15 2.33706 5.8361)
(-1.19173e-14 -1.06721 4.91176)
(-1.21771e-14 -2.24892 3.68493)
(-1.1061e-14 -1.02625 3.54039)
(-7.04047e-15 0.0693621 3.98003)
(-5.86527e-15 -0.260476 4.86265)
(-6.56399e-15 -1.00684 4.15402)
(-5.73533e-15 -0.966451 3.08504)
(-3.94064e-15 0.668276 4.2104)
(-2.06053e-15 1.1752 7.07706)
(-1.64578e-15 1.114 8.88956)
(-1.95206e-15 0.596936 8.45038)
(-1.92766e-15 -1.37688 7.60912)
(-5.59239e-16 -5.62737 9.95696)
(1.03328e-15 3.50274 4.43844)
(-9.33387e-16 5.49614 4.40577)
(-1.04694e-15 5.44614 4.11028)
(1.96924e-15 4.85895 4.16742)
(5.11805e-15 3.92607 5.03838)
(2.59079e-17 2.2623 6.28563)
(-1.10529e-14 -0.699081 5.92231)
(-1.27639e-14 -1.98966 5.04527)
(-8.17411e-15 -1.30275 5.77483)
(-3.75789e-15 -0.332132 8.16752)
(-3.91142e-15 0.172013 9.02127)
(-5.01768e-15 -0.111481 7.46329)
(-4.94546e-15 -1.0215 6.1938)
(-2.71628e-15 -0.920949 8.96246)
(-8.97092e-16 -0.229626 13.1992)
(-9.06204e-17 0.805753 14.674)
(5.76964e-17 0.979017 14.2114)
(7.16188e-17 -0.461511 13.2864)
(5.85927e-16 -2.79913 11.9849)
(1.85089e-15 3.46081 4.00725)
(-1.47193e-16 5.53527 4.22545)
(-5.98405e-16 5.48262 3.93992)
(1.91967e-15 4.64495 4.08402)
(6.61318e-15 3.43695 5.2459)
(3.66042e-15 1.96468 7.04247)
(-6.16277e-15 -0.599556 7.31427)
(-8.45968e-15 -2.15989 7.04603)
(-4.33041e-15 -2.19762 8.56536)
(-5.81676e-16 -1.2601 11.6273)
(-1.64411e-16 -0.0616349 13.2043)
(-1.47359e-15 0.0541897 12.4295)
(-2.39092e-15 -1.36621 11.2636)
(-1.22865e-15 -1.90019 12.0748)
(4.18137e-16 -0.928154 13.6256)
(7.64812e-16 0.790454 13.39)
(8.49702e-16 1.19903 12.0969)
(2.14171e-15 -0.305774 9.20428)
(3.87259e-15 -2.58077 5.58611)
(2.80484e-15 3.38439 3.73524)
(5.52735e-16 5.53552 4.02118)
(-6.46153e-16 5.48895 3.83183)
(1.07818e-15 4.35159 4.05515)
(7.02185e-15 2.75611 5.57598)
(6.92417e-15 1.40719 7.9547)
(-2.85964e-16 -0.742551 8.87399)
(-3.37157e-15 -2.50702 9.07834)
(-1.03542e-15 -3.09292 10.5113)
(1.62333e-15 -2.12126 12.9978)
(2.14329e-15 -0.109468 14.193)
(1.58929e-15 0.645455 13.5522)
(1.07766e-15 -0.980501 12.8722)
(2.25828e-16 -2.01473 13.1416)
(-7.95675e-16 -0.90189 14.0187)
(-2.16281e-15 1.38997 14.1339)
(-2.17456e-15 2.5821 13.3333)
(-5.40695e-16 2.83309 11.4504)
(6.81027e-15 3.19957 6.79768)
(3.10725e-15 3.307 3.55661)
(5.96651e-16 5.51349 3.75569)
(-1.22923e-15 5.44718 3.73715)
(-4.81657e-16 3.96958 4.01626)
(5.71715e-15 1.88292 5.89469)
(7.58915e-15 0.628173 8.71979)
(3.34406e-15 -1.06696 10.0377)
(5.70648e-16 -2.83726 10.4807)
(7.33835e-16 -3.73215 11.3355)
(1.20968e-15 -2.74657 12.7631)
(4.00948e-16 -0.30241 13.1801)
(6.18378e-17 0.677172 12.4009)
(4.01467e-16 -1.08275 12.4323)
(-3.69931e-17 -2.20225 12.2495)
(-1.05736e-15 -1.13596 11.1214)
(-1.18237e-15 1.12962 8.81269)
(-9.87095e-16 2.12279 8.88492)
(-1.93746e-15 2.53925 11.6641)
(-2.22942e-15 3.77511 12.511)
(3.21052e-15 3.25708 3.41781)
(4.49207e-16 5.48379 3.42049)
(-1.39683e-15 5.35246 3.59324)
(-1.66226e-15 3.51082 3.84918)
(4.10628e-15 0.855578 5.91878)
(7.22267e-15 -0.247341 8.93022)
(4.83253e-15 -1.45565 10.4297)
(2.79877e-15 -3.02966 10.9931)
(1.84479e-15 -3.95427 11.1236)
(1.42933e-15 -2.86876 11.1532)
(7.46745e-16 -0.113478 10.2077)
(1.52183e-18 0.908557 8.58106)
(-5.8157e-16 -0.969402 8.71689)
(-1.05999e-15 -1.57413 8.37103)
(-9.63374e-16 0.18344 4.99279)
(7.31632e-17 2.19038 0.987584)
(6.61751e-16 1.19792 0.421797)
(-3.31536e-16 1.23771 4.38672)
(-1.18707e-15 6.01093 10.6672)
(2.95447e-15 3.25465 3.28036)
(1.77295e-16 5.46775 3.06439)
(-1.09287e-15 5.23688 3.37633)
(-2.0175e-15 3.096 3.49125)
(2.73595e-15 -0.167252 5.24385)
(6.55222e-15 -1.15107 7.99647)
(5.5411e-15 -1.92664 9.63112)
(4.01473e-15 -3.1271 10.3383)
(2.72725e-15 -3.76508 10.0769)
(1.62042e-15 -2.43672 9.29648)
(-2.08861e-16 0.577482 8.02077)
(-1.25841e-15 1.49537 5.84598)
(-5.58239e-16 -0.960571 4.09211)
(-1.07553e-15 -0.731278 3.33731)
(-1.08237e-15 1.80077 -0.180819)
(-6.63216e-18 2.85738 -1.10196)
(4.18369e-16 1.49965 -0.740921)
(5.29807e-16 -1.27816 -2.61299)
(3.48607e-16 -1.30905 -0.742888)
(1.7858e-15 3.29148 3.0784)
(-4.26045e-16 5.47128 2.75323)
(-8.70863e-16 5.13558 3.10924)
(-2.18824e-15 2.85224 3.05332)
(8.56024e-16 -0.977594 4.08643)
(5.51679e-15 -1.97868 6.41959)
(5.81295e-15 -2.40915 7.90855)
(4.6485e-15 -3.20711 8.50315)
(3.39851e-15 -3.47977 8.00652)
(1.69626e-15 -1.99946 6.88266)
(-8.67191e-16 1.16589 5.51519)
(-1.83154e-15 2.57367 3.45411)
(-1.52417e-15 0.172434 1.35921)
(-9.14657e-16 -0.0600928 -1.26716)
(-2.43973e-16 1.78772 -2.45926)
(2.33143e-16 2.47787 -1.68908)
(2.36759e-16 1.52038 -1.05825)
(-9.31909e-17 0.551762 -1.21745)
(3.93127e-16 0.327784 -4.08299)
(-1.42796e-17 3.33508 2.79403)
(-1.07795e-15 5.47989 2.52968)
(-8.72173e-16 5.06579 2.82872)
(-2.18933e-15 2.79854 2.65436)
(-1.10151e-15 -1.52033 2.90158)
(3.28572e-15 -2.65348 4.76149)
(5.0716e-15 -2.76682 5.96485)
(4.50654e-15 -3.16868 6.18168)
(3.43479e-15 -3.0954 5.36063)
(1.50554e-15 -1.45312 3.9024)
(-9.15871e-16 1.79633 2.45785)
(-1.73765e-15 3.15179 1.18409)
(-1.37215e-15 1.28466 0.878133)
(-1.11113e-15 0.761197 -2.27264)
(-5.79166e-16 1.82435 -2.43615)
(-1.36336e-16 2.28247 -1.62057)
(-3.1476e-16 1.46615 -1.05803)
(-4.13551e-16 0.502196 -1.3768)
(-4.01751e-16 0.216064 -2.40676)
(-1.55185e-15 3.35296 2.51366)
(-1.39432e-15 5.48032 2.38892)
(-9.49556e-16 5.03834 2.56701)
(-1.99412e-15 2.9064 2.33473)
(-2.22891e-15 -1.86843 1.95831)
(4.15225e-16 -3.19209 3.27085)
(2.705e-15 -2.98642 4.31135)
(2.76104e-15 -2.96327 4.17212)
(1.93948e-15 -2.57315 3.0821)
(4.11286e-16 -0.865728 1.31968)
(-1.3673e-15 2.12528 -0.0579307)
(-1.90263e-15 3.22454 -0.156927)
(-1.04454e-15 1.7632 0.111975)
(-4.21512e-16 1.11564 -1.72471)
(-1.21379e-16 1.67781 -2.01777)
(-1.5501e-16 1.98196 -1.57125)
(-2.07539e-16 1.42641 -1.17305)
(-2.42166e-16 0.87405 -1.30776)
(-2.90648e-16 0.660515 -1.8736)
(-2.16404e-15 3.34632 2.3253)
(-1.45196e-15 5.47692 2.28561)
(-9.03248e-16 5.04831 2.34548)
(-1.72539e-15 3.12414 2.07758)
(-2.43817e-15 -1.91456 1.31817)
(-1.81431e-15 -3.57115 2.02125)
(-5.40405e-16 -3.14595 3.03813)
(-2.45819e-16 -2.66808 2.79763)
(-5.78183e-16 -1.93462 1.66743)
(-1.58524e-15 -0.159841 -0.0821375)
(-2.28095e-15 2.28896 -1.00411)
(-1.83517e-15 3.10865 -0.475381)
(-7.8964e-16 2.03787 -0.446766)
(-2.61623e-16 1.43049 -1.54206)
(-1.21574e-16 1.68675 -1.80655)
(-1.45927e-16 1.89662 -1.57075)
(-2.10043e-16 1.41933 -1.38552)
(-2.52874e-16 0.875875 -1.53149)
(-3.1346e-16 0.492792 -1.68444)
(-1.96127e-15 3.34653 2.22235)
(-1.30867e-15 5.48082 2.18326)
(-7.80375e-16 5.06994 2.17825)
(-1.49622e-15 3.34118 1.89955)
(-2.2085e-15 -1.89151 0.980641)
(-2.7971e-15 -3.87169 1.01083)
(-3.21904e-15 -3.30717 2.02894)
(-3.35158e-15 -2.4124 1.96574)
(-3.1453e-15 -1.44269 1.05913)
(-3.29019e-15 0.211353 -0.375664)
(-2.83907e-15 2.22397 -0.878346)
(-1.46436e-15 3.02649 -0.578061)
(-5.2894e-16 2.24739 -0.784202)
(-1.67041e-16 1.61147 -1.43553)
(-1.2477e-16 1.70027 -1.62946)
(-1.86532e-16 1.82799 -1.54282)
(-2.49466e-16 1.42882 -1.50254)
(-2.79603e-16 0.946504 -1.61151)
(-3.60393e-16 0.642615 -1.67953)
(-1.68342e-15 3.34464 2.17702)
(-1.24379e-15 5.5155 2.09391)
(-6.55123e-16 5.15793 2.06537)
(-1.37052e-15 3.74653 1.85407)
(-1.9448e-15 -1.59226 1.02855)
(-2.68208e-15 -3.91064 0.419908)
(-3.87206e-15 -3.57114 1.02058)
(-4.53696e-15 -2.27532 1.14262)
(-4.00549e-15 -0.938466 0.654545)
(-3.62351e-15 0.713905 -0.239322)
(-2.66879e-15 2.35184 -0.642241)
(-1.24357e-15 3.10899 -0.759555)
(-3.85945e-16 2.45672 -0.949112)
(-1.4759e-16 1.75611 -1.30368)
(-1.43248e-16 1.73898 -1.51572)
(-2.00934e-16 1.83869 -1.57263)
(-2.56026e-16 1.47215 -1.62179)
(-2.82244e-16 0.986035 -1.67428)
(-4.02185e-16 0.491085 -1.75475)
(6.24536e-17 14.5502 24.7002)
(-5.23773e-15 18.4403 31.1388)
(-4.91218e-15 16.2165 26.0848)
(-5.25618e-15 13.6405 21.8081)
(-4.81347e-15 13.6481 21.3406)
(-4.64472e-15 14.6511 22.7042)
(-3.8357e-15 13.0885 19.6789)
(-3.73839e-15 11.5828 17.5723)
(-4.05228e-15 10.3651 15.3608)
(-4.54687e-15 9.1745 13.5625)
(-5.13056e-15 8.27728 11.943)
(-5.80378e-15 7.33988 10.4601)
(-6.66467e-15 6.44173 8.84817)
(-7.77607e-15 5.40562 7.3291)
(-9.03463e-15 4.65435 5.99496)
(-1.00897e-14 4.16422 5.73125)
(-9.5728e-15 5.19829 7.3115)
(-7.83874e-15 6.77889 11.1865)
(-5.93342e-15 9.14441 14.5933)
(-5.79331e-15 8.72321 15.8573)
(-1.35688e-17 14.0341 23.9558)
(-5.00941e-15 16.2025 28.335)
(-4.03503e-15 13.9753 23.9001)
(-5.0392e-15 11.6081 20.1617)
(-4.61803e-15 11.9619 20.5367)
(-5.34017e-15 12.7714 22.14)
(-4.26322e-15 9.44745 16.3333)
(-4.70562e-15 8.5803 15.3297)
(-5.35493e-15 7.85366 13.8804)
(-5.97071e-15 7.41454 13.2416)
(-6.52738e-15 7.14713 12.3776)
(-7.17384e-15 6.58314 11.335)
(-8.07652e-15 5.98006 9.78862)
(-9.08708e-15 5.12644 8.19079)
(-1.00712e-14 4.56479 6.66516)
(-1.06238e-14 4.16439 6.05446)
(-1.01207e-14 4.70435 6.5285)
(-8.99125e-15 5.39276 8.61872)
(-7.2112e-15 7.11909 11.2607)
(-6.24369e-15 7.35214 13.2157)
(1.32527e-17 13.7855 24.1083)
(-1.57096e-15 17.0631 29.6981)
(-1.32035e-15 15.284 26.1398)
(-1.80875e-15 12.6357 21.6672)
(-1.88818e-15 12.1052 20.3919)
(-3.76898e-15 12.9705 22.3014)
(-2.37101e-15 10.1381 17.0429)
(-2.29954e-15 9.56372 16.213)
(-2.57879e-15 9.14585 15.2253)
(-2.85616e-15 8.70451 14.5903)
(-2.97229e-15 8.34281 13.6791)
(-3.08897e-15 7.66925 12.6889)
(-3.41537e-15 7.08346 11.3601)
(-3.66907e-15 6.14585 9.87692)
(-4.29205e-15 5.34373 8.07453)
(-5.0947e-15 4.30804 6.60745)
(-5.46821e-15 4.08415 5.84942)
(-5.2259e-15 4.33432 7.22702)
(-4.01681e-15 6.39797 10.1178)
(-3.33169e-15 6.80137 12.2473)
(1.39913e-17 13.2887 23.3612)
(4.12381e-16 17.2608 29.7939)
(3.57559e-16 15.4798 26.6286)
(4.29264e-16 12.6537 21.7561)
(4.20006e-16 12.0106 20.326)
(-2.57166e-15 12.8431 22.0702)
(-2.54399e-15 10.4254 17.4742)
(-2.58512e-15 9.3755 15.8279)
(-2.84881e-15 8.92505 14.781)
(-3.09286e-15 8.32766 14.0763)
(-3.16376e-15 7.96125 13.1075)
(-3.48194e-15 7.16955 12.1438)
(-4.01263e-15 6.63838 10.8429)
(-4.46891e-15 5.59792 9.48092)
(-5.53064e-15 4.78966 7.55709)
(-6.69775e-15 3.53921 5.91936)
(-7.04423e-15 3.41088 5.01889)
(-6.07025e-15 3.68291 6.43613)
(-4.44671e-15 5.96164 9.4065)
(-3.72686e-15 6.10085 11.0244)
(-4.35376e-18 12.9718 23.1019)
(-1.01562e-16 17.6802 30.2595)
(-8.53452e-17 15.772 27.4767)
(-9.81284e-17 12.8813 22.085)
(-8.70626e-17 12.1552 20.8142)
(5.45112e-16 12.8612 22.2092)
(5.25892e-16 10.8768 18.3617)
(5.19022e-16 9.50701 16.2424)
(5.83986e-16 9.05992 15.0264)
(6.52129e-16 8.40489 14.3329)
(6.82018e-16 8.09451 13.3118)
(7.20699e-16 7.25873 12.3541)
(8.0619e-16 6.81063 11.077)
(8.64252e-16 5.83071 9.9356)
(9.90543e-16 5.22822 8.25418)
(1.10575e-15 3.94695 6.62655)
(1.13591e-15 3.70197 5.30595)
(1.13489e-15 3.62749 6.16948)
(8.46459e-16 5.77757 8.84722)
(7.62488e-16 5.40947 9.83545)
(1.19182e-18 12.7016 22.7373)
(2.42787e-17 18.0164 30.4433)
(1.89247e-17 15.8857 27.935)
(2.15517e-17 13.1036 22.1356)
(1.8546e-17 12.315 21.0973)
(-1.07741e-16 12.9698 22.2709)
(-1.02488e-16 11.2718 18.8126)
(-1.01474e-16 9.67068 16.4559)
(-1.12976e-16 9.19181 15.0147)
(-1.27598e-16 8.50061 14.2817)
(-1.3402e-16 8.178 13.2197)
(-1.43291e-16 7.3472 12.2026)
(-1.56803e-16 6.81052 10.8451)
(-1.66764e-16 5.85609 9.68177)
(-1.80691e-16 5.29864 8.23435)
(-1.96972e-16 4.15258 6.83343)
(-2.16069e-16 3.79315 5.40865)
(-2.25129e-16 3.49721 5.74113)
(-1.62855e-16 5.14112 7.6983)
(-2.19129e-16 4.37255 7.94097)
(-3.04896e-19 12.803 23.0032)
(-5.482e-18 18.4194 30.7061)
(-4.11401e-18 15.9294 28.3501)
(-4.64031e-18 13.4578 22.367)
(-4.10295e-18 12.648 21.6961)
(2.09725e-17 13.2843 22.7879)
(2.01879e-17 11.699 19.3021)
(1.97411e-17 10.03 17.058)
(2.1508e-17 9.59789 15.5022)
(2.43295e-17 8.8731 14.658)
(2.60293e-17 8.48509 13.5082)
(2.80762e-17 7.67507 12.3557)
(3.05203e-17 7.00189 10.9156)
(3.29973e-17 6.07571 9.57845)
(3.58198e-17 5.42496 8.2024)
(3.9977e-17 4.50161 7.03996)
(4.713e-17 4.03726 5.75532)
(5.50186e-17 3.47101 5.44373)
(3.83403e-17 4.33271 6.32999)
(4.92198e-17 3.32257 6.00857)
(6.69716e-20 13.2876 23.8762)
(1.17442e-18 18.7103 30.7549)
(8.97908e-19 15.8424 28.5602)
(9.79384e-19 13.9087 22.6817)
(9.42193e-19 13.0216 22.2798)
(-4.01423e-18 13.5907 23.3479)
(-4.02918e-18 12.0327 19.5668)
(-3.82699e-18 10.3997 17.7)
(-4.12594e-18 10.0948 16.1824)
(-4.67698e-18 9.29159 15.1834)
(-5.08862e-18 8.78808 13.8732)
(-5.52219e-18 7.94621 12.5241)
(-6.03714e-18 7.14661 10.9728)
(-6.72994e-18 6.19079 9.40554)
(-7.62331e-18 5.35108 7.84097)
(-8.80526e-18 4.4285 6.54879)
(-1.05843e-17 3.79643 5.27738)
(-1.40058e-17 3.01424 4.53037)
(-1.17347e-17 3.32518 4.68617)
(-1.10609e-17 2.20315 3.97036)
(-1.30189e-20 14.1315 25.4342)
(-2.47093e-19 18.7726 30.5318)
(-1.96878e-19 15.6185 28.6692)
(-2.05827e-19 14.4329 23.2097)
(-2.15628e-19 13.3549 22.9108)
(7.90945e-19 13.7321 23.8575)
(8.41869e-19 12.2162 19.7696)
(7.74214e-19 10.713 18.3892)
(8.23536e-19 10.4713 16.9641)
(9.32636e-19 9.61311 15.7983)
(1.02366e-18 8.96096 14.3751)
(1.11774e-18 8.11034 12.8635)
(1.23119e-18 7.22095 11.2564)
(1.41033e-18 6.23864 9.49431)
(1.65533e-18 5.19802 7.65518)
(1.94918e-18 4.1431 6.00189)
(2.35838e-18 3.27502 4.48685)
(3.32062e-18 2.35305 3.35533)
(4.01464e-18 2.31262 3.06157)
(3.96071e-18 1.17751 2.07537)
(2.42301e-21 14.9492 26.9268)
(5.25901e-20 18.5137 30.0375)
(4.32926e-20 15.3218 28.6363)
(4.29395e-20 14.9541 23.9274)
(4.85196e-20 13.5388 23.3497)
(-1.54805e-19 13.6395 23.9462)
(-1.69764e-19 12.2143 20.0498)
(-1.60006e-19 10.9667 18.8894)
(-1.71349e-19 10.5318 17.5578)
(-1.93429e-19 9.77832 16.2247)
(-2.10073e-19 8.91803 14.8236)
(-2.2781e-19 8.153 13.2053)
(-2.55212e-19 7.1665 11.6463)
(-3.13333e-19 6.17643 9.71654)
(-3.94982e-19 4.85555 7.53349)
(-4.77218e-19 3.65694 5.53197)
(-5.51968e-19 2.6079 3.84697)
(-6.63247e-19 1.68808 2.46811)
(-1.01551e-18 1.25851 1.69062)
(-1.38691e-18 0.273623 0.484903)
(-4.79599e-22 15.4029 27.6922)
(-1.14589e-20 18.0688 29.5794)
(-9.66353e-21 15.1157 28.2652)
(-9.54332e-21 15.2804 24.825)
(-9.75725e-21 13.5047 23.6449)
(3.4714e-20 13.3536 23.3446)
(3.53555e-20 11.9443 20.4884)
(3.34537e-20 11.1725 19.0681)
(3.63056e-20 10.2037 17.8909)
(4.1757e-20 9.73259 16.3658)
(4.71407e-20 8.58838 15.0414)
(5.4084e-20 7.9312 13.3243)
(5.98297e-20 6.79199 11.8083)
(5.10184e-20 5.75438 9.70095)
(1.35759e-20 4.09037 7.07044)
(-2.42199e-21 2.79176 4.86885)
(7.24079e-20 1.79316 3.24489)
(1.57233e-19 0.851908 1.98189)
(-2.10865e-19 0.0903553 0.418194)
(-9.19283e-19 0.187155 0.815248)
(1.008e-22 15.4595 27.836)
(2.54224e-21 17.8024 29.544)
(2.14829e-21 15.2424 27.3425)
(1.61755e-21 15.1473 25.4407)
(2.21451e-21 13.4618 24.0481)
(-5.94583e-21 13.2669 22.1694)
(-6.97953e-21 11.5656 20.9869)
(-7.67634e-21 11.3268 19.015)
(-8.49763e-21 9.91669 17.8909)
(-9.50313e-21 9.57882 16.285)
(-9.98235e-21 8.30837 14.9343)
(-1.03972e-20 7.63083 13.1646)
(-1.32375e-20 6.41706 11.5695)
(-3.19967e-20 5.34988 9.44373)
(-9.35195e-20 3.6383 6.67795)
(-1.56739e-19 2.38356 4.32931)
(-1.11435e-19 1.38395 2.38025)
(-9.73873e-20 0.427538 0.965555)
(-4.99741e-19 1.40445 2.08306)
(-1.17274e-18 1.78737 3.62458)
(-2.03263e-23 15.4753 28.1589)
(-5.6443e-22 18.2721 29.7331)
(-4.73733e-22 15.255 27.707)
(-3.70693e-22 15.3848 25.0038)
(-4.60112e-22 13.4271 23.8532)
(1.58179e-21 13.3104 21.8875)
(2.12451e-21 11.7601 20.6604)
(2.57097e-21 11.4508 18.9364)
(2.69801e-21 10.2022 17.6979)
(2.45468e-21 9.72252 16.1852)
(2.35062e-21 8.62532 14.7815)
(3.24763e-21 7.85114 13.0815)
(5.75235e-21 6.76241 11.4063)
(9.74669e-21 5.83842 9.60377)
(8.72595e-21 4.67234 7.59333)
(-2.98897e-21 3.8307 5.85599)
(-4.62577e-20 2.95337 4.19668)
(-1.60523e-19 1.79141 2.08468)
(-2.0029e-19 1.18484 1.18786)
(-1.24879e-18 0.778605 0.65115)
(4.00853e-24 15.8691 29.2195)
(1.24024e-22 18.7522 30.0431)
(1.03263e-22 15.4013 28.1937)
(9.27396e-23 15.8765 25.5216)
(1.45772e-22 13.8303 24.3514)
(-1.78551e-22 13.6425 22.1634)
(-1.88336e-22 12.2182 20.8406)
(-1.94364e-22 11.8689 19.1569)
(-3.80672e-22 10.8008 17.8015)
(-4.9363e-22 10.212 16.2997)
(-6.5103e-22 9.37259 14.906)
(-7.19542e-22 8.64817 13.3898)
(-6.2811e-22 7.79552 11.8187)
(3.61039e-22 6.89995 10.0707)
(8.41357e-21 5.74339 8.07333)
(1.42242e-20 4.54436 5.90708)
(-1.22468e-20 3.04524 3.51002)
(-5.1417e-20 1.68879 1.20513)
(-5.87732e-20 0.219952 -0.856076)
(-4.96717e-19 -0.764078 -2.86065)
(-5.85917e-25 16.3295 30.8111)
(-2.8083e-23 19.0496 30.0357)
(-2.58079e-23 15.4473 28.8084)
(-2.28347e-23 16.353 26.1406)
(-3.1852e-23 14.1134 25.2082)
(2.69217e-23 14.1916 23.176)
(2.12017e-23 12.874 21.9124)
(3.6748e-23 12.4151 20.3276)
(2.5066e-22 11.5951 18.9736)
(7.22475e-22 10.9867 17.5862)
(1.02919e-21 10.3254 16.2307)
(-7.32753e-22 9.62093 14.7514)
(-8.52067e-21 8.69621 12.9642)
(-2.49357e-20 7.40015 10.6788)
(-3.41594e-20 5.8094 8.15924)
(-2.17344e-20 4.13404 5.59478)
(-1.82488e-20 2.42248 3.1402)
(-2.63959e-20 0.760675 0.531198)
(-2.53811e-20 -1.84086 -2.92404)
(-2.23976e-19 -2.35223 -5.9707)
(3.19825e-25 16.3078 31.6363)
(5.29185e-24 18.6874 29.2893)
(6.70153e-25 15.0211 28.7839)
(-3.42078e-24 16.0682 26.158)
(-8.94076e-24 13.6666 25.3068)
(-4.47113e-23 13.7176 23.3412)
(-5.47454e-23 12.2961 22.2159)
(7.83292e-23 11.8272 20.7014)
(5.43587e-22 10.8982 19.5127)
(1.25325e-21 10.2746 18.2228)
(4.97721e-22 9.47166 16.9274)
(-7.36774e-21 8.51241 15.2126)
(-3.23575e-20 6.98706 12.6543)
(-7.75557e-20 4.81116 9.0355)
(-1.13124e-19 2.53263 5.30233)
(-9.52485e-20 0.789354 2.44518)
(-4.51234e-20 -0.521805 0.199567)
(-2.16693e-20 -1.56892 -1.67073)
(-5.58029e-20 -3.4884 -4.40456)
(-1.17644e-19 -2.87162 -5.64879)
(5.40572e-26 15.5097 30.943)
(-2.50906e-24 18.1798 28.2518)
(-5.87135e-24 14.2727 27.9077)
(-1.14347e-23 15.2325 25.3366)
(-2.23322e-23 12.9965 24.4182)
(-3.44897e-23 12.7504 22.6029)
(-1.05632e-23 11.4953 21.386)
(1.90269e-22 10.8186 19.9696)
(7.53658e-22 9.92527 18.7401)
(1.37399e-21 9.16675 17.4829)
(-2.63486e-22 8.29255 16.141)
(-1.03981e-20 7.19449 14.3538)
(-3.64996e-20 5.64541 11.7636)
(-7.17418e-20 3.8376 8.56615)
(-8.62984e-20 2.42629 5.84828)
(-7.25436e-20 1.56912 3.95965)
(-6.56334e-20 0.574624 1.7018)
(-7.03047e-20 -0.655908 -0.814743)
(-7.55424e-20 -1.82063 -2.2486)
(-6.41927e-20 -0.960333 -0.735554)
(5.314e-26 14.1881 30.3583)
(-4.64378e-25 17.903 27.3298)
(-2.8117e-24 13.2736 27.249)
(-6.67147e-24 14.2096 24.8472)
(-1.54239e-23 12.1009 23.8981)
(-2.75453e-23 11.6391 22.2716)
(-1.79934e-24 10.5029 21.0397)
(1.6458e-22 9.7522 19.6971)
(5.68355e-22 8.91277 18.464)
(9.73363e-22 8.1686 17.2259)
(2.29045e-22 7.40091 15.9562)
(-3.72982e-21 6.58511 14.5116)
(-1.21855e-20 5.69041 12.7912)
(-2.36878e-20 4.80999 10.8389)
(-3.50133e-20 4.04094 8.83093)
(-4.42732e-20 3.2685 6.77794)
(-5.37641e-20 2.16637 4.22276)
(-7.12277e-20 0.50877 0.361322)
(-1.06706e-19 -1.36205 -3.1375)
(-1.15411e-19 -0.708839 -1.41451)
(-3.44836e-26 11.2367 28.4673)
(-2.4087e-25 16.9834 24.87)
(-4.08273e-25 11.9754 25.2866)
(-1.33032e-24 12.6671 23.5347)
(-6.15203e-24 10.921 22.7748)
(-1.65223e-23 10.272 21.658)
(-1.62371e-23 9.2806 20.719)
(4.28635e-23 8.51211 19.7412)
(2.49274e-22 7.74436 18.8026)
(7.56521e-22 7.06297 17.8768)
(1.76414e-21 6.44227 16.9873)
(3.25911e-21 5.89884 16.1263)
(4.58317e-21 5.40953 15.2397)
(4.50997e-21 4.92864 14.2074)
(2.02861e-21 4.39071 12.8861)
(-3.58334e-21 3.68397 11.1263)
(-1.39395e-20 2.66037 8.67987)
(-3.10731e-20 1.31153 5.15694)
(-5.11641e-20 -0.252513 0.732195)
(-4.91453e-20 -1.12572 -2.35866)
(-1.08282e-26 2.65578 17.0605)
(1.54155e-25 8.07389 13.685)
(6.57834e-25 5.1847 14.5523)
(6.76445e-25 5.01168 14.1489)
(-2.42369e-24 4.08984 14.1077)
(-1.07027e-23 3.53398 13.9296)
(-1.61519e-23 2.96799 13.7697)
(1.29407e-23 2.51062 13.5786)
(1.33174e-22 2.11802 13.3707)
(3.96589e-22 1.80073 13.139)
(8.02502e-22 1.55073 12.8805)
(1.27858e-21 1.36599 12.592)
(1.72068e-21 1.24483 12.2769)
(2.05473e-21 1.20023 11.9372)
(2.27287e-21 1.25595 11.567)
(2.43547e-21 1.3847 11.1775)
(2.57972e-21 1.60825 10.7181)
(2.50231e-21 2.21757 9.85345)
(1.76468e-21 2.42823 8.48048)
(4.16307e-22 -0.239085 6.37777)
(-4.1442e-27 -2.6456 17.0228)
(-1.51603e-26 -8.05997 13.6586)
(-4.59067e-26 -5.17249 14.5377)
(-1.23312e-25 -4.99473 14.1433)
(2.21222e-26 -4.06234 14.1116)
(1.06919e-24 -3.49294 13.9433)
(3.46016e-24 -2.90771 13.7931)
(4.98993e-24 -2.42627 13.6106)
(-2.87272e-24 -2.00523 13.4131)
(-3.47581e-23 -1.66151 13.2054)
(-1.00103e-22 -1.39894 13.0076)
(-1.84347e-22 -1.22954 12.8383)
(-2.45678e-22 -1.15798 12.7005)
(-2.46994e-22 -1.18995 12.558)
(-1.97254e-22 -1.32958 12.3394)
(-1.43126e-22 -1.53296 11.9926)
(-1.10547e-22 -1.83239 11.438)
(-8.26327e-23 -2.52387 10.3898)
(-4.49242e-23 -2.76393 8.86784)
(-9.35567e-24 0.134601 6.71801)
(7.92096e-29 -11.3752 28.587)
(3.55774e-26 -16.9419 25.1416)
(3.82968e-27 -12.0128 25.5483)
(7.17952e-25 -12.5906 23.8835)
(3.56979e-24 -10.8338 23.1742)
(9.08381e-24 -10.1228 22.1263)
(1.35692e-23 -9.08831 21.2501)
(6.70428e-24 -8.26467 20.3422)
(-2.17218e-23 -7.44664 19.4802)
(-6.05718e-23 -6.70775 18.6347)
(-6.08372e-23 -6.00252 17.7875)
(3.54678e-23 -5.29726 16.8509)
(2.28026e-22 -4.52117 15.6737)
(4.47936e-22 -3.61052 14.0748)
(6.54782e-22 -2.54948 11.9092)
(8.86844e-22 -1.42703 9.11829)
(1.1142e-21 -0.39857 5.86452)
(1.16567e-21 0.476326 2.6213)
(9.4796e-22 1.23939 -0.261994)
(3.91025e-22 1.10286 -1.63326)
(-2.85938e-26 -14.5906 31.1348)
(-6.22619e-25 -18.2364 28.0581)
(-7.43837e-25 -13.6885 28.0457)
(1.44702e-24 -14.5966 25.7174)
(8.9234e-24 -12.5325 24.8032)
(2.14521e-23 -12.098 23.2379)
(2.99487e-23 -11.0023 22.0632)
(1.79607e-23 -10.3152 20.7864)
(-2.79218e-23 -9.54684 19.6349)
(-7.77463e-23 -8.91364 18.4998)
(-2.16223e-23 -8.28495 17.3777)
(2.83673e-22 -7.61763 16.0942)
(8.67014e-22 -6.72837 14.384)
(1.54897e-21 -5.39112 11.8337)
(2.05627e-21 -3.26144 7.8829)
(2.1217e-21 -0.223227 2.30314)