/*--------------------------------*- C++ -*----------------------------------*\
| =========                 |                                                 |
| \\      /  F ield         | OpenFOAM: The Open Source CFD Toolbox           |
|  \\    /   O peration     | Version:  4.1                                   |
|   \\  /    A nd           | Web:      www.OpenFOAM.org                      |
|    \\/     M anipulation  |                                                 |
\*---------------------------------------------------------------------------*/
FoamFile
{
    version     2.0;
    format      ascii;
    class       volVectorField;
    location    "15";
    object      U;
}
// * * * * * * * * * * * * * * * * * * * * * * * * * * * * * * * * * * * * * //

dimensions      [0 1 -1 0 0 0 0];

internalField   nonuniform List<vector> 
1280
(
(2.65011e-18 16.5804 0.302541)
(-6.28391e-17 20.6068 -1.47205)
(-2.03993e-17 17.9949 -1.30545)
(1.98198e-17 18.379 -1.24288)
(2.61073e-17 23.1877 -3.82685)
(-1.57383e-16 19.1025 -3.33182)
(2.49109e-16 21.6456 -3.52206)
(-1.79583e-15 20.4105 -3.21649)
(2.37843e-15 25.8987 -7.34232)
(2.74489e-15 22.8718 -6.0058)
(4.55762e-15 24.3101 -5.3083)
(-2.85824e-15 29.6538 -11.3036)
(-6.47915e-15 26.789 -9.57245)
(-5.9942e-15 28.8518 -8.77861)
(-1.71045e-14 36.0046 -17.5867)
(-1.66329e-14 32.0022 -14.8328)
(-1.59381e-14 36.8135 -14.1889)
(-1.66239e-14 36.0055 -26.2748)
(-1.24154e-14 46.0174 -20.3236)
(-1.20746e-14 34.9756 -36.2281)
(-1.0902e-14 44.8862 48.0853)
(-1.16336e-14 44.5091 73.437)
(-6.2633e-15 46.4088 87.6226)
(-3.98341e-15 48.1391 96.6453)
(-3.15739e-15 48.6763 102.891)
(-2.8287e-15 50.9653 107.554)
(-2.48048e-15 51.2713 84.1639)
(2.0639e-15 82.0048 128.616)
(8.66653e-15 82.3576 128.813)
(1.59836e-14 81.7095 126.031)
(2.32198e-14 80.822 121.948)
(3.07653e-14 79.6691 117.782)
(3.6164e-14 78.4813 114.303)
(3.24458e-14 77.2794 111.867)
(2.05112e-14 76.4548 110.615)
(5.83714e-15 75.6095 110.769)
(-6.65748e-15 76.2055 112.346)
(-1.62105e-14 75.7072 114.56)
(-2.42534e-14 78.8815 115.653)
(-3.39851e-14 77.9068 103.384)
(-3.9644e-14 108.582 101.05)
(-3.11799e-14 66.7723 68.4475)
(-3.1788e-14 60.3153 68.4613)
(-2.91678e-14 51.1075 67.5489)
(-1.66675e-14 44.6957 76.3277)
(-1.00089e-14 28.2599 47.0229)
(-1.20313e-14 24.447 41.9425)
(-1.0344e-14 19.1869 33.9011)
(7.93611e-15 14.796 25.729)
(1.94494e-14 7.30397 7.66837)
(2.29621e-14 7.03173 3.88797)
(2.33029e-14 3.10462 6.54785)
(9.77867e-15 -1.59897 14.2882)
(7.76013e-15 -2.7991 24.1662)
(8.49919e-15 -7.07087 35.2859)
(1.84899e-14 -18.9778 74.6237)
(2.20319e-14 -29.9664 80.4485)
(2.54067e-14 -41.1707 81.7709)
(3.2319e-14 -48.2656 78.7853)
(5.3548e-14 -82.0128 111.513)
(4.17423e-14 -74.4984 101.078)
(3.32814e-14 -75.2645 101.848)
(2.51377e-14 -75.4189 99.4399)
(1.61045e-14 -76.2284 98.1509)
(8.27644e-15 -77.4067 97.511)
(3.23176e-15 -78.3197 98.2963)
(1.44677e-15 -79.3238 100.363)
(3.37342e-16 -80.0516 103.37)
(-9.43454e-16 -80.5584 106.616)
(-1.30054e-15 -80.7738 109.739)
(-3.24981e-16 -80.7743 112.748)
(3.981e-16 -80.3512 116.251)
(8.70637e-16 -79.907 120.025)
(1.75492e-14 -42.512 73.2873)
(4.5857e-15 -46.6333 102.796)
(4.20195e-15 -42.6657 99.5757)
(2.2341e-15 -41.2647 96.5652)
(-1.1257e-16 -38.3635 89.8992)
(-9.73286e-16 -35.9224 76.4797)
(1.99618e-16 -35.4515 53.2611)
(7.67562e-16 -24.454 -31.611)
(1.09508e-15 -37.475 -23.8793)
(2.89537e-15 -21.222 -29.838)
(-1.21805e-15 -24.5163 -13.9965)
(-2.81309e-16 -19.5843 -16.2773)
(8.83273e-16 -19.8528 -19.6683)
(-2.95036e-16 -14.4134 -9.63186)
(1.31964e-15 -12.5746 -11.3668)
(3.60899e-15 -11.0397 -14.8448)
(1.8672e-15 -8.00489 -7.92272)
(4.23501e-15 -6.4939 -9.38972)
(7.93192e-15 -4.56478 -12.8083)
(1.37544e-15 -2.61501 -7.47752)
(2.65315e-16 -1.51295 -8.32183)
(1.09102e-15 -0.218174 -8.81087)
(3.12695e-15 2.08925 -12.4578)
(1.09714e-15 3.16324 -8.39923)
(5.21679e-16 4.76865 -7.03319)
(8.07053e-16 5.38426 -10.2141)
(-1.04194e-15 8.30732 -10.2798)
(1.67237e-14 -16.4435 34.9436)
(2.92701e-14 -35.6176 29.0703)
(3.21557e-14 -40.0046 28.4913)
(3.42857e-14 -45.0596 25.6425)
(3.53494e-14 -46.8851 23.3478)
(3.57509e-14 -45.535 20.9169)
(3.57929e-14 -40.4834 18.3294)
(3.56614e-14 -27.9408 14.9697)
(3.48166e-14 13.1713 2.60465)
(3.20318e-14 28.3408 -8.3808)
(2.7668e-14 30.1546 -3.81935)
(2.09533e-14 24.0316 -10.9827)
(1.91297e-14 -4.7621 -18.4908)
(2.28701e-14 -24.8208 -24.151)
(2.41308e-14 -29.4547 -25.6331)
(2.19975e-14 -22.8057 -23.0505)
(1.65693e-14 -11.7174 -19.3777)
(9.42768e-15 -5.47094 -16.04)
(6.0758e-15 1.50082 -14.5283)
(1.79775e-14 -15.2652 32.5571)
(3.05284e-14 -34.048 28.6511)
(3.23799e-14 -39.1824 28.2981)
(3.44332e-14 -43.714 25.8224)
(3.54117e-14 -45.4929 23.729)
(3.57636e-14 -43.9354 21.501)
(3.58035e-14 -38.3085 18.9877)
(3.56443e-14 -21.8452 13.7099)
(3.39623e-14 19.2696 -3.02418)
(2.87762e-14 30.0238 -5.34913)
(2.19728e-14 30.6789 3.86396)
(1.44938e-14 28.7528 -2.54412)
(1.3114e-14 -1.12479 -10.208)
(1.98405e-14 -23.4094 -21.0709)
(2.32582e-14 -29.9473 -23.5001)
(2.23777e-14 -24.6049 -21.7439)
(1.77758e-14 -13.6266 -18.9506)
(1.10764e-14 -7.10529 -16.554)
(7.41365e-15 -0.730367 -14.0282)
(1.88404e-14 -14.7181 28.1586)
(3.21161e-14 -33.396 27.6702)
(3.28492e-14 -38.6566 27.9837)
(3.45322e-14 -42.8708 26.1417)
(3.54891e-14 -44.7422 24.3075)
(3.57838e-14 -43.2099 22.4318)
(3.58323e-14 -37.0596 20.1992)
(3.55548e-14 -17.1771 13.1251)
(3.19951e-14 20.7619 -4.82481)
(2.60498e-14 27.0038 2.84063)
(2.00062e-14 29.5366 9.98468)
(1.43613e-14 29.6796 9.22317)
(1.42473e-14 1.53063 3.99954)
(1.63379e-14 -19.8383 -13.5472)
(2.06279e-14 -29.0131 -18.7988)
(2.18554e-14 -25.1474 -19.1665)
(1.8707e-14 -14.0203 -18.1633)
(1.26408e-14 -7.55494 -16.9234)
(8.15576e-15 -0.46094 -15.3138)
(1.8057e-14 -15.0879 23.6501)
(3.25428e-14 -33.9154 26.1319)
(3.38737e-14 -38.5727 27.5988)
(3.46493e-14 -42.3053 26.7055)
(3.55109e-14 -44.1079 25.2316)
(3.5826e-14 -42.5383 23.8125)
(3.58894e-14 -35.4219 22.0035)
(3.51926e-14 -11.2671 12.8922)
(2.88626e-14 21.9773 -2.1348)
(2.36588e-14 24.0904 11.123)
(1.93443e-14 28.6251 17.7165)
(1.48409e-14 30.4936 22.8861)
(1.43437e-14 8.25611 17.8245)
(1.39717e-14 -15.0802 -2.02139)
(1.76906e-14 -27.0132 -10.6758)
(2.01537e-14 -24.7971 -14.4664)
(1.86777e-14 -14.3393 -16.6664)
(1.36274e-14 -9.03757 -17.3855)
(1.02899e-14 -2.52126 -18.7823)
(1.48861e-14 -15.8256 21.3429)
(3.08571e-14 -35.0236 24.4514)
(3.49212e-14 -38.9183 27.1146)
(3.51225e-14 -41.9856 27.3709)
(3.54514e-14 -43.5787 26.5993)
(3.58704e-14 -41.9447 25.6551)
(3.59519e-14 -33.3787 24.0721)
(3.40798e-14 -5.42417 12.9251)
(2.47396e-14 20.0604 4.92678)
(2.13151e-14 18.9758 20.6867)
(1.89424e-14 24.6815 27.1878)
(1.50703e-14 30.1162 37.5326)
(1.46797e-14 13.0911 34.6707)
(1.34986e-14 -9.49076 15.1354)
(1.53686e-14 -23.4248 1.37227)
(1.80772e-14 -22.6492 -6.54087)
(1.78058e-14 -11.8567 -13.8932)
(1.38153e-14 -6.27916 -17.6251)
(1.30896e-14 -1.61348 -24.0408)
(1.06817e-14 -16.3621 22.2973)
(2.72564e-14 -36.2103 23.6135)
(3.48023e-14 -39.6957 26.6679)
(3.60217e-14 -42.1106 27.8887)
(3.55183e-14 -43.3623 28.2944)
(3.58849e-14 -41.5368 28.0263)
(3.58913e-14 -31.2392 26.2917)
(3.11623e-14 -1.23624 14.6018)
(1.93829e-14 17.3001 17.5324)
(1.84578e-14 16.6617 33.4151)
(1.79433e-14 21.5395 36.295)
(1.48108e-14 26.4224 54.3489)
(1.52052e-14 16.9314 53.3208)
(1.41293e-14 -2.67711 38.1043)
(1.42598e-14 -18.0351 19.5955)
(1.60593e-14 -19.04 6.45827)
(1.64405e-14 -10.8045 -9.65141)
(1.33459e-14 -8.28279 -15.8942)
(1.46861e-14 -1.07739 -39.5577)
(7.69061e-15 -16.3637 26.6631)
(2.2932e-14 -36.8195 24.7127)
(3.28443e-14 -40.5585 26.7133)
(3.66864e-14 -42.6781 28.2708)
(3.5939e-14 -43.5951 29.9924)
(3.59215e-14 -41.2301 30.7934)
(3.5489e-14 -28.9014 28.6894)
(2.58757e-14 0.0348029 22.8959)
(1.29828e-14 12.0099 40.8839)
(1.38519e-14 11.4963 53.8179)
(1.50662e-14 17.3593 55.4302)
(1.26164e-14 23.2384 76.5626)
(1.48535e-14 19.8474 72.9049)
(1.5401e-14 3.66143 62.0881)
(1.49572e-14 -10.5919 43.1156)
(1.56938e-14 -10.1875 26.029)
(1.71651e-14 3.12389 8.53669)
(1.99427e-14 11.1599 -0.6908)
(2.23543e-14 8.52724 -17.1983)
(7.7349e-15 -15.5862 33.9912)
(1.99439e-14 -36.3356 28.2147)
(2.97501e-14 -41.0159 27.9773)
(3.63651e-14 -43.478 28.9302)
(3.665e-14 -44.318 31.4174)
(3.6026e-14 -41.2363 33.5106)
(3.40107e-14 -28.5829 32.8199)
(1.98094e-14 -5.80676 42.0117)
(6.35599e-15 3.96806 72.2976)
(5.2886e-15 7.88658 87.1893)
(4.73378e-15 13.2799 91.4528)
(6.35812e-15 21.5113 91.7698)
(1.12615e-14 22.2936 92.0178)
(1.5865e-14 9.45286 84.2683)
(1.76753e-14 -3.92594 70.6909)
(2.12455e-14 -7.14866 64.5356)
(3.09827e-14 -4.52931 81.15)
(4.34009e-14 -10.1851 110.611)
(5.342e-14 -34.9067 119.327)
(1.1255e-14 -14.002 43.4044)
(2.02042e-14 -34.5715 33.9718)
(2.70244e-14 -40.7039 31.1395)
(3.4934e-14 -44.1121 30.5395)
(3.72866e-14 -45.3469 32.6251)
(3.69495e-14 -41.9806 35.6291)
(3.38869e-14 -31.4429 37.0365)
(1.70937e-14 -15.0426 51.2262)
(6.76294e-16 -4.88978 80.6343)
(-6.85813e-15 4.9809 94.8009)
(-1.03906e-14 14.5029 97.461)
(-7.75895e-15 21.7664 99.4356)
(9.03296e-16 22.5706 103.613)
(1.15264e-14 11.8657 102.795)
(1.80243e-14 -2.85542 96.7705)
(2.12517e-14 -11.5893 95.201)
(2.61271e-14 -11.2851 105.099)
(2.83393e-14 -4.35123 115.363)
(2.68718e-14 -3.02717 102.701)
(1.71366e-14 -11.6953 54.0984)
(2.48681e-14 -31.6413 41.6697)
(2.64699e-14 -39.4757 36.4482)
(3.32863e-14 -44.1386 33.73)
(3.71808e-14 -46.2911 34.1487)
(3.52378e-14 -43.2216 37.1683)
(2.48347e-14 -34.9073 40.3179)
(1.5347e-14 -23.5689 54.9188)
(-8.29132e-15 -13.7758 81.1746)
(-2.31985e-14 0.737136 91.5338)
(-2.60901e-14 12.6983 88.2814)
(-2.37061e-14 19.8507 91.1527)
(-1.61179e-14 20.854 101.194)
(-3.98997e-15 12.0945 107.582)
(7.39845e-15 -1.87491 105.402)
(9.47088e-15 -11.5453 101.239)
(1.00112e-14 -12.5365 97.5087)
(7.5001e-15 -5.34812 86.8815)
(9.15623e-15 2.78703 53.6876)
(2.1576e-14 -8.87377 65.5773)
(3.24468e-14 -27.7592 51.1121)
(2.94194e-14 -37.3528 43.6466)
(3.29252e-14 -43.2674 38.8377)
(3.6577e-14 -46.6821 36.7837)
(3.62363e-14 -44.5959 38.6622)
(3.24889e-14 -38.4845 42.6923)
(1.23918e-14 -31.0436 56.2924)
(-1.42596e-14 -19.5694 76.3504)
(-2.75884e-14 1.81771 74.3065)
(-2.53325e-14 14.1243 62.432)
(-2.6239e-14 16.4319 69.6664)
(-2.757e-14 15.9 85.6767)
(-2.3715e-14 10.4696 100.143)
(-1.54121e-14 0.0403663 103.919)
(-1.13595e-14 -7.90245 100.714)
(-1.3044e-14 -5.99038 96.6494)
(-1.75671e-14 7.40404 90.2776)
(-1.38819e-14 22.5115 66.1688)
(2.05681e-14 -5.75962 77.6652)
(3.7865e-14 -23.1151 62.5471)
(3.44737e-14 -34.3856 52.358)
(3.5088e-14 -41.4505 45.6654)
(3.73055e-14 -46.1871 40.963)
(3.80515e-14 -45.6787 40.7563)
(3.21977e-14 -41.8799 44.6079)
(9.08456e-15 -36.7894 56.8846)
(-1.62069e-14 -21.2571 68.1072)
(-2.04688e-14 6.20468 48.855)
(-1.413e-14 14.9207 33.7794)
(-1.9033e-14 10.4921 47.3881)
(-2.51034e-14 8.60571 64.982)
(-2.93392e-14 4.66096 83.4218)
(-3.0844e-14 -2.39295 98.6779)
(-3.08377e-14 -8.83477 105.085)
(-3.42817e-14 -7.26339 110.226)
(-3.76935e-14 7.938 111.142)
(-3.31544e-14 32.0788 95.923)
(1.27044e-14 -2.67753 89.7214)
(3.53687e-14 -17.8405 76.8595)
(3.67485e-14 -30.4716 63.2275)
(3.79099e-14 -38.7695 54.0649)
(3.91296e-14 -44.7171 46.4947)
(3.88628e-14 -46.1361 43.8964)
(2.96554e-14 -44.8591 47.2492)
(5.28168e-15 -40.31 57.9957)
(-1.62677e-14 -17.093 57.5487)
(-1.37479e-14 14.7805 23.581)
(-8.76743e-15 15.1106 17.6076)
(-1.32717e-14 3.87704 30.9282)
(-1.93168e-14 1.56859 46.1732)
(-2.44134e-14 -2.83628 59.6712)
(-2.99238e-14 -8.48048 73.6897)
(-3.35636e-14 -12.0988 81.7517)
(-3.44463e-14 -7.17205 74.8907)
(-3.09735e-14 11.395 52.8751)
(-3.42735e-14 48.0207 54.4564)
(4.88459e-16 -0.660902 99.3487)
(2.28107e-14 -12.6053 93.2619)
(3.04479e-14 -25.1731 78.0689)
(3.55741e-14 -34.7362 66.3452)
(3.7604e-14 -42.1 55.8466)
(3.5339e-14 -46.0261 51.3411)
(2.29633e-14 -47.3576 54.069)
(-1.36773e-16 -40.8657 60.2162)
(-1.64036e-14 -7.79968 43.0875)
(-1.14059e-14 21.8753 5.11077)
(-9.10906e-15 12.8953 15.6388)
(-9.8684e-15 -0.892497 19.5376)
(-1.38875e-14 -3.10258 30.0078)
(-1.77286e-14 -6.43431 37.7748)
(-2.19664e-14 -10.6617 43.1179)
(-2.24011e-14 -8.97077 39.6854)
(-1.36963e-14 3.07306 17.3728)
(-1.55421e-15 13.3229 -0.694887)
(7.56854e-16 4.94704 -12.2971)
(-1.20862e-14 -0.635382 102.976)
(4.47121e-15 -9.22217 106.236)
(1.45139e-14 -19.7863 95.1746)
(2.27221e-14 -29.8692 84.5799)
(2.62681e-14 -38.7382 73.3137)
(2.31145e-14 -45.4771 67.4132)
(1.07321e-14 -48.203 66.2998)
(-7.11031e-15 -35.9951 59.6012)
(-1.60967e-14 5.91274 20.682)
(-1.12333e-14 25.2129 1.85461)
(-9.46583e-15 10.0156 15.8142)
(-8.20383e-15 -1.80466 13.5685)
(-1.0051e-14 -5.47573 18.3019)
(-1.16649e-14 -7.81585 20.9701)
(-1.30865e-14 -9.26754 19.4001)
(-1.17716e-14 -3.0543 11.7641)
(-5.92938e-15 9.18643 -1.88437)
(-1.63745e-15 20.9887 -3.19613)
(1.94039e-15 12.5238 -23.3612)
(-2.18483e-14 -2.68468 98.9066)
(-1.19201e-14 -9.14979 109.321)
(-4.20271e-15 -16.6665 105.887)
(3.04233e-15 -25.9226 101.218)
(6.77253e-15 -35.2573 92.7116)
(4.71864e-15 -43.2772 85.0406)
(-3.50563e-15 -43.9951 74.7102)
(-1.2885e-14 -23.3977 48.2355)
(-1.37539e-14 16.1939 -3.89501)
(-1.2056e-14 22.9997 8.26955)
(-9.49446e-15 8.73518 12.4308)
(-6.96217e-15 -2.40875 8.36568)
(-7.45217e-15 -6.20122 9.34474)
(-7.8692e-15 -7.19434 10.166)
(-7.53726e-15 -6.93683 6.16203)
(-6.16891e-15 0.0181429 0.0117792)
(-3.13985e-15 9.69889 -7.88642)
(-5.3018e-16 21.5493 -5.43151)
(1.306e-15 16.6389 -14.363)
(-2.79243e-14 -5.50976 89.2967)
(-2.26525e-14 -11.4921 103.059)
(-1.815e-14 -16.8456 104.77)
(-1.37732e-14 -24.7087 105.339)
(-1.09618e-14 -32.5114 99.7001)
(-1.11262e-14 -38.413 89.1423)
(-1.38212e-14 -33.3242 67.4102)
(-1.54606e-14 -5.13766 24.9932)
(-1.29483e-14 20.516 -5.12359)
(-1.22532e-14 19.1793 9.30238)
(-9.94635e-15 10.5258 7.84057)
(-7.16008e-15 -1.33878 0.355464)
(-5.7266e-15 -7.08885 -0.34958)
(-5.81895e-15 -6.68371 2.72537)
(-4.85787e-15 -5.10329 -0.873321)
(-3.62354e-15 2.2084 -5.07496)
(-1.26176e-15 11.1699 -10.9861)
(1.51268e-16 22.3423 -6.55951)
(-2.43092e-16 19.1089 -9.95355)
(-3.06737e-14 -9.07622 77.2862)
(-2.82013e-14 -14.876 90.832)
(-2.54404e-14 -17.6382 93.7732)
(-2.30337e-14 -23.5288 95.6534)
(-2.07991e-14 -28.5321 89.792)
(-1.92436e-14 -30.0471 74.8458)
(-1.75688e-14 -18.3314 43.7991)
(-1.41842e-14 8.55998 -3.20851)
(-1.3629e-14 20.4263 3.66884)
(-1.21863e-14 18.0395 6.21406)
(-1.03583e-14 11.9498 5.34384)
(-7.87953e-15 2.16482 0.134379)
(-5.5574e-15 -6.6829 -5.67526)
(-4.59962e-15 -6.81938 -4.19171)
(-3.54267e-15 -3.77635 -5.50098)
(-2.20956e-15 3.9026 -8.82833)
(-1.66958e-18 10.9143 -10.8861)
(1.70525e-16 20.7622 -5.79402)
(-1.73619e-16 19.8117 -7.78618)
(-3.2328e-14 -11.3658 66.7123)
(-3.1168e-14 -17.4637 79.5055)
(-2.79844e-14 -19.1559 80.4847)
(-2.57452e-14 -23.5097 78.7889)
(-2.32009e-14 -24.6954 68.857)
(-2.04339e-14 -20.2371 49.4636)
(-1.67583e-14 -3.43786 17.1992)
(-1.37749e-14 11.0505 -3.3186)
(-1.36286e-14 17.8295 4.71827)
(-1.22988e-14 18.5007 4.16865)
(-1.05498e-14 12.7051 3.29934)
(-7.99159e-15 3.8987 -0.383885)
(-5.95155e-15 -5.88798 -5.8882)
(-4.23665e-15 -6.73713 -7.17197)
(-3.02036e-15 -3.30835 -8.71434)
(-1.21825e-15 4.3775 -9.81194)
(3.13221e-16 10.0911 -8.38309)
(9.624e-17 20.4793 -4.91692)
(-1.15945e-16 20.2464 -6.80167)
(-2.86311e-14 -14.967 49.0821)
(-3.12639e-14 -20.4219 58.6518)
(-2.73267e-14 -17.1282 57.8937)
(-2.3797e-14 -17.9027 52.2627)
(-2.03355e-14 -15.4714 40.4693)
(-1.75762e-14 -8.34639 23.7838)
(-1.47575e-14 4.44916 3.754)
(-1.43692e-14 11.6844 2.7907)
(-1.3565e-14 17.0945 3.72862)
(-1.2378e-14 18.8129 3.05185)
(-1.06369e-14 13.9533 2.06754)
(-7.98169e-15 6.54552 -0.0945893)
(-5.78859e-15 -4.4447 -3.82317)
(-3.82602e-15 -5.38589 -5.76905)
(-2.5353e-15 -2.6215 -7.65262)
(-4.95143e-16 3.85634 -6.88414)
(4.60908e-16 9.05854 -6.58449)
(5.48462e-17 20.1107 -4.62816)
(-1.49404e-16 19.2194 -7.09877)
(-9.78019e-15 117.016 202.483)
(-6.26369e-14 146.407 249.831)
(-4.76061e-14 145.629 243.672)
(-4.36842e-14 137.868 227.476)
(-4.23921e-14 128.851 208.729)
(-3.95988e-14 118.357 189.927)
(-2.32859e-14 106.67 168.805)
(-2.21698e-15 95.1552 150.733)
(2.52876e-14 82.2375 129.288)
(5.47295e-14 68.2787 106.914)
(8.3752e-14 55.2938 85.7719)
(1.16435e-13 44.2391 68.0393)
(1.41526e-13 36.6904 56.5532)
(1.23011e-13 34.8708 55.4958)
(6.86421e-14 40.8914 68.1065)
(1.27965e-14 54.9713 94.857)
(-1.94899e-14 75.5107 129.725)
(-3.25106e-14 92.827 163.246)
(-3.89295e-14 102.738 173.524)
(-5.38834e-14 76.788 139.482)
(-8.53943e-15 96.7279 165.862)
(-5.54793e-14 124.437 222.41)
(-4.07729e-14 126.526 221.484)
(-4.1972e-14 117.315 208.187)
(-4.71196e-14 107.424 188.505)
(-6.33225e-14 96.0773 169.781)
(-4.62507e-14 86.8458 152.734)
(-3.34524e-14 78.0941 136.916)
(-2.75149e-14 70.7791 122.478)
(-2.28315e-14 64.5602 108.699)
(-1.84972e-14 59.0791 95.0456)
(-1.16302e-14 54.1048 81.5137)
(-9.1218e-15 50.8722 70.5144)
(-1.35546e-14 51.6393 67.0602)
(-3.19804e-14 58.3713 74.978)
(-5.58381e-14 70.0338 95.231)
(-6.48914e-14 85.0435 122.399)
(-6.22854e-14 95.565 148.444)
(-5.38684e-14 97.5636 156.063)
(-7.15873e-14 74.1597 128.392)
(5.33667e-16 95.8591 163.042)
(-1.19414e-14 136.137 237.916)
(-1.02555e-14 142.507 241.104)
(-1.09665e-14 134.835 227.911)
(-1.12864e-14 126.021 208.419)
(-4.0806e-14 115.755 188.854)
(-3.3979e-14 107.491 171.685)
(-3.04452e-14 100.961 157.868)
(-3.7016e-14 95.8409 146.038)
(-4.27357e-14 91.3178 135.014)
(-4.47215e-14 86.9751 123.893)
(-4.72136e-14 82.491 112.191)
(-4.96613e-14 77.9794 100.044)
(-5.01917e-14 73.839 88.9533)
(-5.04334e-14 71.2816 81.7951)
(-5.06279e-14 71.1479 81.9364)
(-5.05948e-14 73.464 89.8085)
(-4.89344e-14 75.3288 101.048)
(-4.50788e-14 70.833 104.495)
(-6.03131e-14 49.2381 77.6498)
(4.50226e-16 97.2424 163.682)
(5.08748e-15 144.233 248.534)
(4.13362e-15 149.176 250.515)
(4.15451e-15 139.96 234.539)
(5.84483e-15 129.576 214.229)
(-1.4655e-14 119.016 194.72)
(-1.70365e-14 110.323 177.912)
(-1.65921e-14 103.235 163.823)
(-2.03546e-14 97.1917 151.667)
(-2.4298e-14 91.717 140.601)
(-2.74747e-14 86.4568 130.105)
(-3.1309e-14 81.2778 119.806)
(-3.6034e-14 76.0157 109.372)
(-3.62091e-14 70.6524 98.5708)
(-3.59542e-14 65.1166 87.7818)
(-3.77504e-14 60.0051 78.0973)
(-3.96222e-14 54.9351 71.1576)
(-4.33133e-14 50.2948 65.8863)
(-4.50758e-14 40.2918 58.1079)
(-6.87149e-14 19.7036 24.02)
(-1.77546e-16 104.479 175.396)
(-1.24437e-15 155.438 264.59)
(-1.01498e-15 156.368 261.2)
(-9.75715e-16 145.274 241.478)
(-1.52399e-15 133.998 220.489)
(4.83006e-15 123.948 201.522)
(6.04262e-15 115.761 185.696)
(5.43524e-15 108.949 171.85)
(6.09375e-15 102.589 159.039)
(7.03145e-15 96.3037 146.561)
(7.58871e-15 89.8598 134.318)
(8.14491e-15 83.3191 122.377)
(7.95198e-15 76.6675 110.886)
(6.67985e-15 70.0312 99.7189)
(5.31111e-15 63.0322 88.665)
(4.70418e-15 55.8441 77.0492)
(5.15455e-15 47.2116 64.8434)
(6.75521e-15 38.1572 50.5349)
(9.47364e-15 22.2401 31.3683)
(1.51478e-14 4.21178 -3.63875)
(3.24919e-17 118.369 198.026)
(2.02082e-16 167.947 281.122)
(1.65503e-16 162.521 269.644)
(1.49288e-16 150.971 247.386)
(2.52942e-16 140.083 227.605)
(-8.89073e-16 131.882 210.2)
(-1.19969e-15 124.853 195.585)
(-1.05797e-15 118.807 181.657)
(-1.06546e-15 112.39 167.754)
(-1.10027e-15 105.456 153.24)
(-1.05661e-15 97.793 138.269)
(-9.15817e-16 89.5737 123.052)
(-5.6024e-16 80.8399 107.928)
(-3.4019e-17 71.7964 93.0146)
(4.82306e-16 62.1539 78.4392)
(8.60849e-16 52.205 63.626)
(1.00921e-15 40.496 48.1944)
(9.32239e-16 28.0641 29.3697)
(3.1537e-16 6.08874 3.30199)
(8.39742e-15 -8.84158 -33.6068)
(-3.28083e-18 140.393 239.085)
(-2.09449e-17 178.928 296.895)
(-1.49057e-17 165.376 277.596)
(-1.14906e-17 155.825 256.374)
(-2.57499e-17 146.169 240.322)
(1.14888e-16 140.807 226.188)
(1.52913e-16 135.156 213.975)
(1.25631e-16 129.886 200.032)
(1.07059e-16 122.646 184.358)
(8.37189e-17 114.257 166.724)
(4.23698e-17 104.586 148.176)
(-2.66584e-17 94.2386 129.112)
(-1.33074e-16 83.1315 109.906)
(-2.64077e-16 71.3737 90.4864)
(-3.99375e-16 58.4943 70.9692)
(-5.31233e-16 44.7829 50.8034)
(-6.66057e-16 28.847 30.504)
(-7.4301e-16 13.2892 7.66008)
(-6.79738e-16 -11.8125 -19.4752)
(1.67093e-15 -21.9266 -58.1162)
(-3.84907e-20 156.674 275.046)
(3.59805e-19 175.048 294.822)
(-8.26904e-19 157.561 276.36)
(-1.09901e-18 150.998 260.109)
(1.06494e-18 141.314 248.699)
(-1.39483e-17 137.315 238.449)
(-1.47195e-17 130.621 228.839)
(-8.72401e-18 123.298 213.936)
(-3.52002e-18 111.634 195.059)
(3.935e-18 98.8002 172.975)
(1.43901e-17 84.4915 150.281)
(2.96312e-17 70.0053 126.884)
(5.59588e-17 54.5504 102.672)
(1.00319e-16 38.2085 76.8989)
(1.55192e-16 20.7492 49.5821)
(1.73633e-16 1.95338 20.0959)
(1.51969e-19 -15.3578 -7.48077)
(-4.51428e-16 -24.6758 -26.7908)
(-6.83199e-16 -43.8734 -51.3271)
(-3.99724e-16 -33.14 -62.9391)
(1.6285e-19 152.471 273.838)
(6.22425e-19 157.689 273.063)
(8.10037e-19 143.042 260.71)
(7.45473e-19 135.728 246.51)
(2.53589e-19 125.112 236.891)
(1.57811e-19 119.324 228.055)
(-1.22848e-18 109.677 218.096)
(-2.7915e-18 98.0655 201.083)
(-4.26757e-18 82.0218 179.316)
(-6.96343e-18 65.541 155.162)
(-1.28192e-17 48.5498 131.457)
(-1.90163e-17 31.8262 107.55)
(-1.22458e-17 14.5235 83.0871)
(1.43777e-17 -2.60536 58.1606)
(2.49068e-17 -18.3104 34.3989)
(-4.85097e-17 -30.4671 13.6619)
(-2.15148e-16 -36.3493 -1.49786)
(-3.73926e-16 -30.5612 -4.47316)
(-3.9614e-16 -10.5963 11.6841)
(-1.97583e-16 9.32138 31.441)
(-7.21943e-20 135.833 244.031)
(-2.26636e-19 146.633 255.861)
(-2.4493e-19 130.211 237.996)
(-1.66376e-19 120.563 219.579)
(1.83462e-19 108.793 209.481)
(6.85798e-19 101.465 198.538)
(1.0861e-18 89.8094 187.598)
(1.64405e-18 77.4163 170.731)
(2.55963e-18 61.4698 150.186)
(2.44936e-18 45.6555 127.105)
(-4.78156e-19 29.6896 104.082)
(-1.0478e-18 14.7917 81.4235)
(1.45123e-17 1.50619 60.7187)
(4.65405e-17 -7.73147 44.8512)
(6.14411e-17 -9.37655 39.233)
(2.59193e-17 0.774029 50.3948)
(-3.51801e-17 23.6833 80.085)
(-5.71363e-17 53.3742 117.916)
(-1.98333e-17 76.4791 140.579)
(1.83556e-17 58.9337 113.019)
(2.04187e-20 128.745 229.121)
(5.47825e-20 149.758 253.586)
(5.57472e-20 130.231 230.46)
(2.565e-20 122.348 205.861)
(-9.34757e-20 109.526 193.883)
(-2.65433e-19 103.988 177.554)
(-3.78033e-19 92.9151 165.304)
(-4.10524e-19 85.3317 149.963)
(-2.15367e-19 74.9553 134.999)
(3.86158e-20 66.2199 118.033)
(-5.31634e-19 57.3949 101.633)
(-2.17345e-18 50.9959 86.8438)
(-2.91962e-18 47.5638 76.5751)
(-5.4697e-19 47.9917 72.3505)
(4.59231e-18 52.7234 75.4781)
(9.60538e-18 61.0909 86.3304)
(1.34444e-17 71.7773 102.02)
(1.70533e-17 78.3182 117.444)
(1.72185e-17 77.6256 119.648)
(6.62945e-18 54.9815 94.8356)
(-4.43857e-21 129.853 231.901)
(-1.14463e-20 158.516 263.686)
(-1.12652e-20 135.174 238.197)
(-3.43336e-21 129.799 212.84)
(2.56443e-20 117.072 201.22)
(6.74019e-20 113.413 184.769)
(9.21741e-20 104.028 172.618)
(9.89677e-20 98.8405 158.652)
(5.028e-20 92.1891 147.027)
(-4.55108e-20 87.3728 135.545)
(-3.80939e-22 82.6634 124.784)
(3.61477e-19 78.5613 114.102)
(7.9012e-19 74.6348 103.44)
(6.96265e-19 70.7333 93.1138)
(-3.01744e-19 67.0496 84.1665)
(-2.20428e-18 63.8956 78.2871)
(-4.84615e-18 61.2426 76.2108)
(-7.72677e-18 58.0299 75.9513)
(-9.27013e-18 49.6716 70.9581)
(-6.48633e-18 29.5725 43.3589)
(8.25489e-22 134.714 241.279)
(2.15403e-21 164.386 269.687)
(2.01992e-21 137.346 243.486)
(2.85812e-22 134.787 218.974)
(-5.93338e-21 121.303 208.253)
(-1.47698e-20 118.542 191.944)
(-1.89068e-20 109.273 180.253)
(-1.74399e-20 104.155 166.298)
(-5.22865e-21 97.1695 154.063)
(1.03105e-20 91.3595 141.689)
(-1.00794e-20 85.4138 130.118)
(-9.59996e-20 79.8162 119.011)
(-1.94289e-19 74.3145 108.395)
(-1.8042e-19 68.9367 98.0634)
(3.31196e-20 63.2736 87.8635)
(4.45322e-19 57.3472 77.3549)
(1.05469e-18 49.8726 66.477)
(1.96103e-18 41.5136 53.936)
(3.06523e-18 27.0612 37.4023)
(4.24432e-18 8.03613 3.05716)
(-1.35105e-22 142.102 257.881)
(-3.56986e-22 168.001 271.352)
(-3.10008e-22 138.397 249.138)
(3.78923e-23 140.282 225.701)
(1.28889e-21 124.666 216.175)
(3.09823e-21 123.476 198.997)
(3.78305e-21 113.137 187.782)
(2.56393e-21 108.797 173.579)
(-1.43415e-21 101.592 161.653)
(-4.59958e-21 96.109 148.988)
(2.49344e-21 90.0442 136.872)
(2.19314e-20 84.1916 124.508)
(3.49998e-20 77.9152 111.989)
(1.18855e-20 71.2074 98.9733)
(-5.99569e-20 63.3595 85.3924)
(-1.62006e-19 54.4522 70.4673)
(-2.66797e-19 42.9003 53.9693)
(-3.73933e-19 30.4093 34.1826)
(-6.75536e-19 9.20018 8.81223)
(9.41137e-19 -6.30844 -27.7699)
(1.93002e-23 148.92 276.189)
(4.43282e-23 169.482 270.3)
(1.92791e-23 139.365 255.935)
(-2.98974e-23 145.486 233.534)
(-1.52821e-22 127.644 225.371)
(-3.20386e-22 128.405 208.036)
(-4.7509e-22 117.206 197.844)
(-8.01499e-22 114.166 184.037)
(-1.28476e-21 107.142 173.108)
(-2.20627e-21 102.763 161.231)
(-3.85929e-21 97.4062 149.899)
(-3.81776e-21 92.1612 137.487)
(4.65851e-21 85.5468 123.487)
(2.87711e-20 77.0348 106.637)
(6.8006e-20 65.3785 86.7615)
(1.08147e-19 51.5037 64.1253)
(1.2674e-19 34.6021 40.5288)
(1.13316e-19 18.3879 14.9934)
(-1.05486e-19 -8.55785 -14.5493)
(-1.0793e-19 -19.791 -52.1645)
(-1.86003e-24 150.42 286.037)
(-6.45532e-24 166.573 265.033)
(-4.24802e-24 137.301 258.618)
(4.82343e-23 145.084 237.036)
(1.98208e-22 125.622 230.119)
(2.77057e-22 126.969 213.575)
(-1.97889e-22 114.925 204.774)
(-1.59342e-21 112.33 192.212)
(-3.37143e-21 104.912 182.942)
(-3.4914e-21 100.833 172.52)
(8.44576e-22 94.986 162.356)
(1.21627e-20 88.6932 149.598)
(3.39532e-20 79.0021 132.294)
(6.94856e-20 64.5936 107.457)
(1.09155e-19 45.0389 76.1436)
(1.23644e-19 24.7973 43.9528)
(1.02518e-19 3.35104 13.6575)
(2.01484e-19 -8.46355 -14.842)
(-1.40934e-20 -31.8122 -37.9637)
(-3.07741e-19 -31.49 -69.7724)
(-1.86428e-25 143.829 279.442)
(-5.741e-24 160.514 255.666)
(-5.85336e-24 130.588 251.319)
(4.531e-23 137.133 230.643)
(1.47262e-22 118.665 223.479)
(8.19509e-23 117.434 208.563)
(-5.85938e-22 106.477 199.532)
(-2.02793e-21 101.906 188.294)
(-3.44638e-21 94.5047 179.324)
(-2.89796e-21 89.0065 169.698)
(2.66619e-21 81.9899 159.45)
(1.87836e-20 73.4151 145.434)
(5.42767e-20 60.3437 124.219)
(1.08135e-19 41.9093 93.3012)
(1.41015e-19 21.7627 58.8993)
(9.19809e-20 6.87029 32.7132)
(-4.31685e-20 -5.62709 9.31777)
(-2.02695e-19 -22.4465 -21.1832)
(-3.1304e-19 -33.1881 -39.1087)
(-2.94745e-19 -20.9376 -27.7562)
(2.13402e-26 131.693 269.137)
(-2.91918e-24 155.071 243.805)
(8.56903e-25 119.459 241.646)
(4.79132e-23 126.299 221.718)
(1.24748e-22 108.036 214.437)
(3.70236e-23 104.888 200.765)
(-5.53113e-22 94.6646 191.337)
(-1.74886e-21 88.7967 180.616)
(-2.97341e-21 81.5368 171.298)
(-2.91566e-21 75.358 161.709)
(5.27419e-22 68.5061 151.555)
(1.08833e-20 60.7217 138.933)
(3.11725e-20 50.983 122.066)
(5.37322e-20 39.7506 100.495)
(5.13619e-20 29.086 76.8788)
(-4.78931e-21 20.6788 55.0089)
(-1.13876e-19 13.4646 35.0106)
(-2.52241e-19 5.99034 12.9798)
(-4.14828e-19 -3.51489 -11.5592)
(-4.5918e-19 5.85008 16.5332)
(-1.24115e-25 107.871 253.132)
(-2.45596e-24 147.713 223.573)
(-2.49991e-24 107.1 226.497)
(2.09234e-23 113.29 211.056)
(7.43887e-23 97.1536 205.227)
(7.09915e-23 92.3539 195.42)
(-2.01273e-22 83.3082 187.776)
(-9.40621e-22 76.9639 179.545)
(-2.05771e-21 70.234 171.913)
(-3.0388e-21 64.3984 164.312)
(-3.30077e-21 58.834 156.846)
(-2.92507e-21 53.8036 149.281)
(-2.63482e-21 49.2913 141.431)
(-2.40728e-21 45.336 132.726)
(-1.27009e-21 41.6834 122.236)
(-6.09565e-22 37.7186 108.895)
(-6.70971e-21 32.0471 91.2438)
(-2.836e-20 23.3798 65.8543)
(-6.9105e-20 11.0106 28.496)
(-9.60991e-20 -2.98058 -11.9287)
(2.91278e-26 35.8092 158.061)
(-5.99574e-25 78.5353 130.504)
(-1.51219e-24 52.8369 138.547)
(3.16538e-24 52.8473 134.357)
(2.26389e-23 44.479 134.237)
(4.86827e-23 40.2485 132.477)
(2.64085e-23 35.3959 131.088)
(-1.46947e-22 31.6714 129.366)
(-5.78627e-22 28.405 127.598)
(-1.32113e-21 25.8496 125.742)
(-2.32534e-21 23.9014 123.833)
(-3.3917e-21 22.5539 121.786)
(-4.14091e-21 21.7276 119.475)
(-4.10705e-21 21.3969 116.802)
(-2.96121e-21 21.7531 113.696)
(-7.31165e-22 22.8774 110.255)
(2.04664e-21 24.4561 106.655)
(4.30673e-21 28.5699 100.574)
(4.66902e-21 31.5566 88.3659)
(2.12863e-21 7.00576 65.0784)
(-6.26514e-26 -35.8163 158.074)
(1.10421e-25 -78.5394 130.518)
(2.64851e-25 -52.8403 138.562)
(1.33787e-25 -52.8491 134.372)
(-2.46896e-26 -44.4802 134.252)
(2.3578e-24 -40.2493 132.493)
(1.24559e-23 -35.397 131.104)
(2.97317e-23 -31.6733 129.383)
(2.80999e-23 -28.4082 127.614)
(-5.7793e-23 -25.8541 125.758)
(-3.0453e-22 -23.9067 123.846)
(-7.20175e-22 -22.5588 121.794)
(-1.17655e-21 -21.7308 119.475)
(-1.45828e-21 -21.3978 116.794)
(-1.44698e-21 -21.7521 113.681)
(-1.28637e-21 -22.8751 110.237)
(-1.3083e-21 -24.4537 106.642)
(-1.65858e-21 -28.5644 100.579)
(-1.8366e-21 -31.5381 88.3958)
(-9.04145e-22 -6.99699 65.094)
(3.0283e-25 -107.868 253.135)
(1.20856e-25 -147.732 223.564)
(-3.60481e-25 -107.11 226.485)
(-1.2748e-24 -113.315 211.033)
(-2.21125e-24 -97.1808 205.199)
(-1.22021e-24 -92.3911 195.382)
(1.22993e-24 -83.3527 187.73)
(-8.2702e-24 -77.0174 179.489)
(-5.58789e-23 -70.2968 171.846)
(-1.40464e-22 -64.472 164.234)
(-1.64089e-22 -58.9221 156.761)
(6.53567e-23 -53.9126 149.199)
(6.22868e-22 -49.427 141.358)
(1.13887e-21 -45.4998 132.664)
(9.37303e-22 -41.8727 122.196)
(2.05554e-22 -37.9317 108.904)
(1.63696e-21 -32.2758 91.3436)
(1.04802e-20 -23.5921 66.0617)
(2.84635e-20 -11.1603 28.6773)
(3.8843e-20 3.05218 -12.3427)
(-1.02883e-24 -131.659 269.082)
(-2.6523e-26 -155.057 243.708)
(1.66438e-24 -119.422 241.553)
(3.84267e-24 -126.283 221.596)
(7.25324e-24 -108.005 214.308)
(1.25379e-23 -104.866 200.617)
(8.59128e-24 -94.6349 191.177)
(-4.65375e-23 -88.7677 180.438)
(-1.90493e-22 -81.5022 171.104)
(-2.76113e-22 -75.3197 161.495)
(2.38204e-22 -68.4591 151.317)
(2.04038e-21 -60.666 138.666)
(5.21373e-21 -50.9334 121.782)
(9.55968e-21 -39.7663 100.265)
(1.72811e-20 -29.255 76.8483)
(3.50242e-20 -21.0817 55.354)
(6.88635e-20 -14.1724 35.8521)
(1.0413e-19 -6.9663 14.2562)
(8.13633e-20 2.75403 -10.672)
(8.09095e-20 -6.75504 17.2956)
(3.84186e-24 -143.746 279.244)
(8.69269e-25 -160.379 255.506)
(-4.60671e-24 -130.478 251.136)
(-1.10952e-23 -136.99 230.487)
(-1.79626e-23 -118.54 223.319)
(-2.45537e-23 -117.278 208.416)
(-4.13312e-23 -106.323 199.38)
(-1.26974e-22 -101.718 188.148)