/*--------------------------------*- C++ -*----------------------------------*\
| =========                 |                                                 |
| \\      /  F ield         | OpenFOAM: The Open Source CFD Toolbox           |
|  \\    /   O peration     | Version:  4.1                                   |
|   \\  /    A nd           | Web:      www.OpenFOAM.org                      |
|    \\/     M anipulation  |                                                 |
\*---------------------------------------------------------------------------*/
FoamFile
{
    version     2.0;
    format      ascii;
    class       volScalarField;
    location    "15";
    object      p;
}
// * * * * * * * * * * * * * * * * * * * * * * * * * * * * * * * * * * * * * //

dimensions      [0 2 -2 0 0 0 0];

internalField   nonuniform List<scalar> 
1280
(
0.225603
0.185917
0.548723
0.468877
0.650969
0.569247
0.344284
0.344946
0.0371405
-0.458717
-1.19409
-0.966781
-2.23475
-4.14747
-3.34898
-6.66142
-9.35354
-11.97
-9.37421
-30.1842
-9.8439
12.0085
24.5839
20.8158
18.2419
27.6017
24.1209
13.5898
12.1766
11.1409
9.15594
7.31189
5.98071
4.58789
4.07772
3.74806
6.41945
9.92527
20.6438
23.2825
-29.9645
-3.32135
4.71807
8.72145
22.3912
21.7504
21.4416
21.2982
20.1589
21.3048
20.7535
19.9028
20.9721
20.2938
19.6286
20.1041
6.49951
1.6013
-8.53675
-34.8309
20.0305
15.6401
5.52175
1.91315
0.105796
1.65299
2.87171
4.86521
6.53043
8.28845
9.8877
11.1677
12.042
-3.25587
31.8921
25.4804
23.5676
24.0466
11.3166
-8.75487
-23.6072
-7.79041
-9.62115
-8.63431
-5.68187
-3.50848
-5.20809
-2.76794
-1.74798
-2.9467
-1.48971
-0.976075
-1.39861
-1.43947
-0.754332
0.0120886
-1.01701
-0.365383
-0.0364466
-0.515408
0.0498826
1.41912
0.619949
-0.360468
-0.505365
-0.169785
0.0364655
0.020671
-0.303785
-0.611186
-0.403574
0.0708583
0.0831268
-0.190018
-0.176934
-0.129987
0.033135
0.0310679
0.307516
0.151813
3.04561
1.52098
0.53534
0.240522
0.21172
0.217447
0.0656037
-0.421661
-1.01635
-0.371476
1.08569
0.861938
-0.160794
-0.222698
-0.152822
0.155617
0.269575
0.313632
0.481784
5.17459
2.84234
1.041
0.20323
0.214155
0.274185
0.110778
-0.904295
-2.04189
-0.823772
1.77106
1.3264
-0.463251
-0.566084
-0.403063
0.133968
0.211417
0.240357
-0.141626
5.81885
3.20455
1.5707
0.589672
0.569468
0.367196
0.0290909
-1.40719
-2.93647
-1.30101
2.75595
1.9155
-0.675479
-0.882962
-0.708147
0.228956
0.528975
0.699533
-1.09359
5.66599
2.36891
0.828189
-0.0460794
0.399732
0.421927
-0.225192
-1.51753
-4.15876
-1.58311
4.01753
2.15046
-1.40964
-1.72173
-1.05637
0.245544
0.402278
0.144241
-2.67303
3.97341
-0.252518
-1.47489
-1.71119
-0.542137
0.210794
-0.0103333
-1.43906
-5.25441
-2.14668
5.33308
2.16226
-2.15639
-2.86823
-1.84345
0.469905
1.54693
1.15517
-4.31995
1.063
-4.00384
-4.65365
-3.7976
-1.80151
-0.23293
0.506422
-1.07908
-4.82817
-3.07475
6.66506
1.9456
-2.92508
-3.40246
-2.31165
0.167716
0.142162
-1.12138
-5.78982
-2.98213
-7.92888
-7.06465
-4.84845
-2.12396
-0.00193921
1.53657
0.240241
-4.46118
-3.87878
6.81538
1.74983
-3.77236
-4.60661
-3.40531
1.53204
5.87791
5.00098
-6.66431
-6.73516
-11.0448
-8.12027
-4.79188
-1.50622
1.11036
3.20895
2.49511
-4.06533
-3.33588
6.86961
2.2001
-3.06763
-3.07052
-2.56864
0.371299
13.1365
29.479
-6.93951
-9.30753
-13.1697
-8.22424
-4.23496
-0.583774
2.44177
5.13644
5.99684
0.543956
-0.304895
3.51794
-1.20007
-4.22117
0.522399
3.16283
7.12377
27.3971
20.2743
-6.76765
-10.5725
-14.3242
-7.84346
-3.63156
0.234684
3.53519
6.72854
8.96589
6.76589
6.14179
2.0523
-7.29079
-8.7911
0.223223
4.23433
7.53379
29.7448
23.5562
-6.29991
-10.7688
-14.4837
-7.22477
-3.09689
0.800112
4.08383
7.63483
11.1595
12.1077
11.631
-0.748869
-15.5029
-14.6332
2.59997
8.74067
5.70425
17.1905
28.6343
-5.58487
-10.524
-14.0219
-6.50319
-2.42132
1.41962
4.26653
7.29985
11.2652
14.8387
15.5356
-2.87097
-21.1646
-18.3127
1.52835
10.7448
3.74349
-1.82792
-3.31093
-4.75305
-10.5898
-13.2396
-5.70984
-1.58018
2.26623
4.7476
6.97283
10.206
13.9836
14.9381
-4.99707
-21.2766
-17.6229
1.86021
8.96282
0.301883
-6.02023
-3.60941
-3.869
-11.2546
-12.0477
-4.89051
-0.829789
2.93349
5.27665
6.75038
8.63254
11.3833
12.8618
-7.91614
-22.1646
-18.7084
1.43418
8.28973
2.88863
-1.62908
-1.08147
-3.18119
-12.2496
-10.4189
-4.11913
-0.307124
3.16415
5.39097
6.51686
7.2131
8.34318
9.69774
-7.69746
-20.6277
-17.7932
0.678758
5.90418
1.22097
-2.5853
-1.41944
-2.13554
-11.967
-8.47158
-3.3445
-0.0214863
2.94539
4.86117
5.78333
5.92832
6.23444
6.81642
-5.20738
-15.9338
-13.4818
-0.0403401
3.46548
1.15715
-0.754042
-0.000446793
-1.33728
-9.68218
-6.25051
-2.44507
0.193779
2.54782
4.00529
4.64313
4.50833
4.21018
4.11788
-2.1875
-8.58839
-7.5176
-0.248111
1.82312
0.54246
-0.782103
-0.185969
0.190683
-6.7765
-4.53813
-1.80911
0.27949
2.13808
3.20247
3.52672
3.16564
2.42787
1.86187
-0.379907
-3.49623
-3.84522
-0.410599
0.978601
0.409461
-0.196862
0.224442
0.258188
-3.65945
-2.91377
-1.43767
-0.3609
0.607984
1.18547
1.33416
1.09352
0.624316
0.181428
-0.342742
-1.03647
-1.49357
-0.252543
0.341392
0.10842
-0.163431
-0.00611495
104.961
103.201
102.003
102.057
99.7274
96.8464
93.5821
91.2581
88.4373
86.5951
84.9681
83.5135
82.4535
81.3467
80.6585
79.5469
79.1517
77.837
78.8298
78.7258
50.524
49.1988
49.845
50.7798
50.2852
49.9703
48.5301
47.8895
46.9354
46.501
45.9889
45.5904
44.994
44.1717
43.1782
41.8676
41.5678
40.796
42.7801
43.1484
83.7741
81.5175
82.414
82.2982
81.3218
80.7852
79.6532
79.0405
77.9338
77.1616
75.9056
74.8228
73.3915
71.725
70.1638
67.9723
67.1326
65.218
66.1807
64.6886
75.7776
74.7857
76.6304
76.6284
76.9925
76.5007
76.3058
75.8465
75.4929
75.317
74.8352
74.8878
74.6204
74.7137
75.0245
75.0826
76.0211
75.6115
76.9367
76.109
82.4091
81.4127
83.2777
82.6229
83.8626
82.5864
82.8595
81.9431
81.5486
81.1196
80.4302
80.369
79.8305
79.9811
80.1289
80.4347
81.5932
81.6542
83.3863
83.1386
79.0522
78.6224
80.0716
79.2158
81.3698
79.2552
79.8977
79.1122
78.6687
78.3413
77.5878
77.4327
76.8312
76.7149
76.6069
76.4954
77.2397
76.9819
78.7107
78.7045
81.2678
81.7009
82.4179
81.8259
84.9867
82.2805
82.9864
82.9086
82.1873
82.3385
81.5052
81.4173
80.9069
80.5252
80.4646
79.9184
80.4236
79.9376
81.4516
81.3544
75.2254
77.0498
77.0531
77.0786
81.6827
78.4334
79.0863
80.5241
79.4331
80.4588
79.8124
80.0876
79.9284
79.7405
79.9664
79.6274
80.3438
80.2468
82.0378
82.2619
64.5746
67.7035
66.7909
67.2203
73.5328
69.6675
69.9611
73.1205
72.0315
73.6001
73.4482
73.9403
74.2005
74.3385
74.7804
74.88
75.7455
76.1509
78.1761
78.8861
45.1305
48.9758
46.766
47.5077
56.2227
51.2673
50.9596
56.1923
55.6295
57.5066
58.3658
59.3774
60.6145
61.6884
63.024
64.27
65.8196
67.4483
69.6562
71.9764
26.6943
29.0472
24.9395
24.5037
31.8046
26.6882
24.8365
28.0781
27.3218
26.5591
26.3534
25.3707
25.2743
24.781
24.9865
25.448
26.6557
28.3846
30.8743
33.6692
36.0067
36.6757
36.9058
35.5326
37.7206
34.7751
36.5099
33.8613
35.0125
32.6962
33.0449
31.2244
30.9322
29.543
29.0665
28.0807
28.0166
27.7429
28.3186
27.7265
35.3308
37.2317
38.7201
37.9799
41.2334
39.7091
42.5751
41.3261
43.5573
42.9059
44.2279
44.0987
44.7944
44.8099
45.0495
44.8049
44.9505
44.7828
44.4393
44.4693
13.403
14.1621
15.9806
14.42
17.3729
15.2019
18.9133
18.1257
20.346
20.6184
22.0272
23.2335
24.7972
26.6091
28.5343
30.4225
31.6831
33.5602
35.0962
36.8765
11.202
9.86849
11.1979
8.73052
10.244
8.15705
8.81899
7.42759
7.19932
6.3545
5.76989
5.12639
4.68426
4.51142
4.95476
6.53184
8.13042
9.31033
9.69388
11.1554
25.4707
22.951
24.5012
20.6793
22.241
19.6625
19.9908
18.6778
18.3562
17.5963
17.1279
16.5918
16.1732
15.8139
15.482
15.0884
14.7397
14.4969
13.6967
13.5844
49.758
46.6184
48.8809
42.7575
43.4707
39.4199
38.113
35.5185
33.7184
31.8019
30.2
28.7816
27.6242
26.6995
25.989
25.4323
24.932
24.7032
24.5275
23.941
43.0188
37.2608
45.5054
38.9549
41.3729
38.4203
37.6292
35.5576
33.8156
31.7978
29.8234
27.8427
25.9543
24.1925
22.6613
21.4105
20.6696
21.1317
21.8177
22.1355
54.3044
32.5686
40.7679
29.8627
27.3071
20.8782
16.189
11.2219
7.00208
3.31338
0.392397
-1.70867
-2.89282
-3.06233
-2.09733
-0.190215
2.88846
7.73996
11.4086
13.2983
742.609
660.057
611.058
554.742
505.755
458.491
414.591
373.165
334.229
297.497
262.801
229.944
198.712
169.019
140.884
113.482
87.0297
65.9087
41.8583
4.85966
760.239
677.636
628.626
572.342
523.422
476.269
432.513
391.256
352.495
315.925
281.353
248.558
217.333
187.588
159.305
131.711
104.845
82.6091
58.195
22.6551
69.9631
48.6282
56.8842
46.1866
43.6774
37.2856
32.5207
27.3861
22.872
18.7543
15.2697
12.4998
10.5865
9.62529
9.75284
10.9393
12.9059
15.8569
19.5189
22.3949
69.5437
64.5508
73.3602
67.4476
70.5009
68.1806
68.0379
66.6028
65.5128
64.1612
62.9031
61.7485
60.8817
60.3595
60.1387
60.1479
60.1825
60.0068
60.3282
61.9074
86.8525
83.5054
85.9256
79.8356
80.7148
76.8036
75.6769
73.2247
71.57
69.75
68.2286
66.8369
65.7507
64.7655
63.7741
62.7445
61.8332
60.8829
59.1854
57.1756
46.5244
42.245
42.8118
37.7445
37.9336
33.9852
32.9106
30.0333
28.0916
25.6576
23.4495
21.2954
19.3891
18.18
17.5022
17.0085
16.7008
15.8318
14.7428
16.9041
10.917
9.3521
11.187
8.31945
10.0257
7.53418
9.07691
8.16086
8.44863
7.82247
7.87971
8.34077
8.80565
12.2085
14.0999
14.3849
14.1086
14.5079
14.1699
16.5735
46.5082
48.1218
50.7024
50.3089
54.0202
53.9823
57.2178
58.238
60.5271
62.4622
63.8614
67.385
65.7713
50.6854
12.1792
12.1339
12.7798
13.7935
13.7143
16.1189
46.0167
47.0944
47.7234
46.0866
47.2502
45.041
45.2315
43.2646
42.4589
41.0796
39.1468
37.7534
36.1835
33.7547
33.1393
31.1822
33.6701
38.6253
32.9793
38.5234
60.4584
62.8364
64.2359
64.4909
66.8143
66.6046
68.5378
68.5886
70.2609
71.0435
72.6498
73.5079
75.0307
75.3962
76.572
77.9204
80.4784
83.8424
82.6792
85.3657
81.153
83.6723
84.4941
85.0606
86.5292
86.7886
88.0504
88.2177
89.2275
89.4108
90.4391
90.6201
91.3634
91.3885
91.5349
91.6862
91.8554
92.3479
92.9869
94.8183
88.5039
90.2429
90.2298
90.3643
91.0389
90.5873
91.1693
90.6007
90.9256
90.4127
90.6955
90.3634
90.5493
90.3161
90.4212
90.326
90.7252
90.7593
92.1559
92.7506
90.3352
91.687
91.6722
91.8566
92.349
91.7633
92.2444
91.573
91.7714
91.233
91.3139
91.0198
91.1523
91.0176
91.407
91.478
92.3998
92.7822
94.8664
95.3101
94.9008
96.2051
96.7724
97.4693
97.9733
97.7009
98.1537
97.7533
98.019
97.7015
97.8512
97.6618
97.884
97.7554
98.3314
98.3652
99.5468
99.869
102.015
102.612
103.196
104.071
105.044
106.063
106.177
106.129
106.156
105.838
105.923
105.569
105.668
105.309
105.506
105.111
105.608
105.158
106.096
105.836
107.55
107.891
104.848
105.179
106.337
107.55
107.196
107.271
106.899
106.606
106.435
106.031
106.041
105.633
105.831
105.4
105.878
105.3
106.171
105.58
107.194
107.469
110.9
110.561
111.746
112.993
112.328
112.49
111.868
111.591
111.185
110.79
110.646
110.299
110.4
110.095
110.489
110.144
111.017
110.55
112.19
112.363
105.618
105.553
106.935
108.602
107.986
108.462
107.848
107.908
107.577
107.531
107.523
107.541
107.836
107.974
108.637
108.919
110.171
110.425
112.23
112.652
124.78
123.921
125.02
126.345
125.361
125.536
124.431
124.241
123.408
123.122
122.593
122.297
122.103
121.869
122.053
121.923
122.719
122.423
123.684
122.944
100.85
100.093
100.356
101.886
100.385
100.686
99.2895
99.2886
98.4456
98.4492
98.0632
98.0738
97.9595
97.8115
97.8923
97.4185
97.7624
96.9825
98.2515
97.6063
141.329
138.949
136.652
137.103
132.89
130.838
127.286
124.959
121.806
119.577
117.283
115.399
113.831
112.226
111.246
109.533
109.101
107.376
108.46
107.518
)
;

boundaryField
{
    outletWall
    {
        type            fixedValue;
        value           uniform 0;
    }
    fineWalls
    {
        type            zeroGradient;
    }
    fineFrontAndBack
    {
        type            zeroGradient;
    }
    fineplugLeft
    {
        type            cyclicAMI;
        value           nonuniform List<scalar> 
20
(
67.6371
67.1926
64.2546
64.6052
64.3872
65.3423
65.9949
67.1589
68.2732
69.8057
71.5043
73.1852
75.7245
85.6838
82.9974
83.4303
85.8088
86.5195
84.9624
82
)
;
    }
    fineplugRight
    {
        type            cyclicAMI;
        value           nonuniform List<scalar> 
20
(
90.0201
89.8959
87.0055
87.6632
87.6478
89.3273
90.355
92.038
93.6256
95.4844
97.6388
99.6782
102.376
112.443
111.049
111.408
114.396
114.131
113.422
111.313
)
;
    }
    inletOutletLeft
    {
        type            cyclicAMI;
        value           nonuniform List<scalar> 
20
(
67.6371
67.1926
64.2546
64.6052
64.3872
65.3423
65.9949
67.1589
68.2732
69.8057
71.5043
73.1852
75.7245
85.6838
82.9974
83.4303
85.8088
86.5195
84.9624
82
)
;
    }
    inletLeft
    {
        type            zeroGradient;
    }
    inletWallsLeft
    {
        type            zeroGradient;
    }
    inletFacesLeft
    {
        type            zeroGradient;
    }
    inletOutletRight
    {
        type            cyclicAMI;
        value           nonuniform List<scalar> 
20
(
90.0201
89.8959
87.0055
87.6632
87.6478
89.3273
90.355
92.038
93.6256
95.4844
97.6388
99.6782
102.376
112.443
111.049
111.408
114.396
114.131
113.422
111.313
)
;
    }
    inletRight
    {
        type            zeroGradient;
    }
    inletWallsRight
    {
        type            zeroGradient;
    }
    inletFacesRight
    {
        type            zeroGradient;
    }
}


// ************************************************************************* //
