/*--------------------------------*- C++ -*----------------------------------*\
| =========                 |                                                 |
| \\      /  F ield         | OpenFOAM: The Open Source CFD Toolbox           |
|  \\    /   O peration     | Version:  4.1                                   |
|   \\  /    A nd           | Web:      www.OpenFOAM.org                      |
|    \\/     M anipulation  |                                                 |
\*---------------------------------------------------------------------------*/
FoamFile
{
    version     2.0;
    format      ascii;
    class       surfaceScalarField;
    location    "15";
    object      phi;
}
// * * * * * * * * * * * * * * * * * * * * * * * * * * * * * * * * * * * * * //

dimensions      [0 3 -1 0 0 0 0];

internalField   nonuniform List<scalar> 
2360
(
-1927.01
-50.5575
-1876.46
-50.5564
-50.5573
1797.95
-1848.5
1797.95
1797.95
1797.95
3783.66
-1985.71
3783.66
3783.66
6195.1
-2411.44
6195.1
6195.1
9007.74
-2812.63
9007.74
9007.74
13265.6
-4257.86
13265.6
13265.6
14535.2
16321.3
17880.1
19159.5
20425.5
21744.6
17679.1
5337.62
18835.4
19854.4
20737.2
21500.4
22163.9
22742
23249.8
23708
24170.3
24725.2
25507.4
26538.9
27428
13059.8
14368.2
13059.8
13059.8
13059.8
859.834
12200
859.835
859.833
859.834
957.416
-97.5838
957.417
957.415
416.726
540.691
416.721
416.723
416.719
-11776.8
12193.5
-11776.8
-11776.8
-11776.8
-26975.8
15199
-25891.8
-24778
-23933.5
-23372.8
-22932.9
-22494.7
-21994.3
-21415.3
-20743.8
-19975.2
-19100.2
-18116.4
-17018.8
-20881.7
5064.49
-19609.3
-18279.8
-16863.5
-15360.3
-13634.8
-12540.3
-12540.3
-12540.3
-9298.19
-3242.11
-9298.19
-9298.19
-7419.97
-1878.22
-7419.97
-7419.97
-5948.09
-1471.88
-5948.09
-5948.08
-4839.49
-1108.6
-4839.49
-4839.49
-4839.49
-4024.48
-815.01
-4024.48
-4024.48
-3399.48
-625
-3683.96
-2930.52
-4708.17
-8812.45
-5305.02
-9844.76
-4725.54
-7232.17
-3291.4
-4360.82
-1991.91
-2183.64
-1423.94
-323.631
-1239.23
1330.08
-1003.32
3385.21
-733.524
5300.24
-452.623
5895.34
-88.7504
4660.61
297.531
2767.76
606.771
2016.27
785.833
2022.58
895.875
2662.57
908.249
2591.48
973.049
3784.37
3641.13
-4740.83
-2277.61
-6142.62
-7410.66
-7282.45
-8704.93
-7031.79
-7482.82
-5441.96
-5950.65
-3400.27
-4225.34
-1981.62
-1742.28
-1423.76
772.227
-1095.09
3056.54
-807.085
5012.23
-547.416
5635.67
-108.477
4221.67
415.59
2243.69
753.99
1677.87
866.162
1910.41
885.748
2642.99
882.775
2594.45
981.346
3685.8
3807.47
-6021.71
-1572.56
-7601.94
-5830.43
-9170.23
-7136.63
-9416.43
-7236.62
-8140.05
-7227.03
-5807.85
-6557.53
-3315.7
-4234.44
-1858.11
-685.36
-1342.5
2540.93
-1058.68
4728.42
-820.874
5397.86
-261.434
3662.23
557.004
1425.26
1010.68
1224.2
1034.43
1886.66
949.642
2727.77
914.57
2629.52
1043.85
3556.52
3742.72
-7503.52
-575.612
-9539.66
-3794.29
-11532.5
-5143.81
-12192.8
-6576.33
-11331.3
-8088.55
-9127.11
-8761.68
-5899.1
-7462.45
-2851.11
-3733.35
-1442.21
1132.03
-1254.84
4541.05
-1175.84
5318.86
-592.757
3079.15
662.438
170.062
1346.76
539.876
1221.34
2012.08
959.614
2989.5
834.138
2755
1088.64
3302.01
3359.48
-9253.27
808.864
-11641.9
-1405.65
-13691.7
-3094.01
-14515.5
-5752.49
-14089.8
-8514.33
-12480.3
-10371.1
-9490.61
-10452.2
-5430.58
-7793.38
-2222.8
-2075.76
-1297.3
3615.55
-1447.5
5469.06
-962.767
2594.41
554.044
-1346.75
1348.08
-254.156
1098.8
2261.35
752.083
3336.22
767.797
2739.28
1204.3
2865.5
2685.56
-10975.2
2561.66
-13441.1
1060.31
-14973
-1562.19
-15421.7
-5303.77
-15168.1
-8767.92
-14345.4
-11193.8
-12438.4
-12359.2
-8913.88
-11317.9
-4586.91
-6402.73
-2186.78
1215.42
-2009.82
5292.09
-1631.36
2215.95
-659.122
-2318.99
-294.094
-619.183
-348.712
2315.97
-420.118
3407.62
-293.744
2612.91
1169.89
1401.87
613.347
-12048.6
4373.62
-14072.7
3084.38
-14594
-1040.85
-14247.4
-5650.42
-13888.5
-9126.79
-13789.9
-11292.4
-13318.9
-12830.2
-11363.3
-13273.6
-7513.05
-10252.9
-4078.08
-2219.54
-3130.65
4344.66
-2973.52
2058.82
-2846.57
-2445.93
-2387.39
-1078.36
-1475.08
1403.66
-780.152
2712.7
278.001
1554.75
1323.6
356.262
7001.44
-12122.8
5941.81
-13303.9
4265.47
-12711.1
-1633.63
-11593.1
-6768.39
-10961.7
-9758.16
-11229.3
-11024.9
-11969.5
-12090
-11961.6
-13281.5
-9848.02
-12366.5
-6200.63
-5866.94
-4219.62
2363.66
-4920.41
2759.61
-6691.45
-674.901
-6284.53
-1485.28
-3678.6
-1202.27
-1741.25
775.348
-3008.7
2822.2
-8251.85
5599.41
13948.6
-11350.1
7161.47
-11746.1
4661.52
-10482.9
-2896.84
-9004.4
-8246.93
-8107.31
-10655.3
-8281.13
-10851
-9496.02
-10875.1
-10980.8
-11796.7
-11168
-12179.3
-9111.36
-7923.53
-7772.99
1025.29
-10229.4
5215.97
-13928.9
3024.68
-14878.2
-535.991
-13806.5
-2273.95
-12805.2
-225.95
-13351
3367.99
-14476.9
6725.25
11665.2
-10080.3
8104.09
-10075.9
4657.11
-8677.1
-4295.67
-7156.5
-9767.53
-6199.69
-11612.1
-6228.18
-10822.5
-7320.41
-9782.84
-9413.75
-9703.36
-11533.6
-10059.5
-12137.9
-7319.23
-12013.4
900.808
-13769.2
6971.81
-16434.8
5690.22
-17398.6
427.844
-17042
-2630.56
-16398.9
-868.996
-15172.4
2141.5
-11102.5
2655.34
1103.38
-8761.72
8858.08
-8639.59
4534.98
-7303.38
-5631.88
-5826.4
-11244.5
-5032.58
-12405.9
-5115.89
-10739.2
-5939.27
-8959.47
-7908.08
-7734.54
-10891.5
-7076.14
-13224.7
-4985.96
-14126
1802.11
-15431.2
8276.97
-17109.7
7368.74
-17493
811.085
-16657.3
-3466.24
-15351
-2175.25
-13594.9
385.388
-9583.46
-1356.11
-8577.67
-7907.85
9379.85
-7613.77
4240.9
-6302.85
-6942.8
-4971.24
-12576.1
-4448.19
-12928.9
-4603.63
-10583.8
-5160.71
-8402.4
-6561
-6334.25
-9478.04
-4159.1
-12804.9
-1659.11
-14438.1
3435.37
-15241.4
9080.18
-15498
7625.42
-14784
97.066
-15082.6
-3167.68
-16735.2
-522.61
-17209.8
859.988
-15882.4
-2683.49
-12260.1
-7829.66
9433.23
-6962.83
3374.08
-5550.51
-8355.13
-4469.66
-13657
-4161.9
-13236.7
-4299.8
-10445.9
-4684.29
-8017.91
-5327.02
-5691.52
-6898.46
-2587.66
-9841.7
1284.13
-12185.6
5779.23
-12430.7
9325.34
-10167.5
5362.22
-6862.8
-3207.66
-5300.67
-4729.82
-6586.52
763.241
-8358.69
2632.16
-10381.3
-660.861
-8273.25
-8248.12
8761.97
-6454.08
1580.03
-4858.83
-9950.38
-4012.66
-14503.1
-3754.75
-13494.6
-3785.79
-10414.8
-4161.28
-7642.42
-4636.93
-5215.88
-4983.6
-2240.99
-6080.21
2380.74
-8073.44
7772.47
-8453.81
9705.71
-6238.44
3146.84
-4265.78
-5180.31
-2603.54
-6392.06
-581.776
-1258.52
1683.72
366.657
2054.81
-1031.95
-880.816
-8378.58
7370.73
-5812.06
-986.48
-4152
-11610.4
-3510.44
-15144.7
-3236.47
-13768.6
-3086.16
-10565.1
-3329.16
-7399.42
-3822.24
-4722.8
-3872.6
-2190.63
-3456.53
1964.67
-3849.65
8165.59
-4220.66
10076.7
-2640.56
1566.75
-1342.39
-6478.48
-508.023
-7226.43
1009.06
-2775.6
2005.04
-629.321
2991.35
-2018.26
-2147.33
-7710.13
5616.43
-4946.9
-3749.71
-3472.95
-13084.4
-3042.38
-15575.3
-2777.76
-14033.2
-2493.24
-10849.7
-2461.53
-7431.13
-2776.49
-4407.84
-2955.38
-2011.75
-2192.33
1201.63
-696.812
6670.07
-153.74
9533.65
535.979
877.027
1495.98
-7438.48
1778.19
-7508.65
2501.64
-3499.05
3035.22
-1162.9
2965.69
-1948.73
-1994.27
-6447.61
3888.79
-3994.32
-6202.99
-2911.43
-14167.3
-2666.37
-15820.3
-2404.13
-14295.4
-2083.95
-11169.8
-1835.94
-7679.14
-1790.45
-4453.33
-1863.9
-1938.3
-1339.74
677.463
813.521
4516.81
2798.85
7548.33
3367.87
308.004
3071.51
-7142.12
2512.81
-6949.95
2596.71
-3582.95
2807.1
-1373.28
2700.57
-1842.19
-1705.15
-5094.31
2435.16
-3205.63
-8091.67
-2541.33
-14831.6
-2390.92
-15970.7
-2122.68
-14563.7
-1811.62
-11480.9
-1486.63
-8004.14
-1209.54
-4730.41
-1020.81
-2127.04
-605.424
262.082
1040.74
2870.65
3257.21
5331.86
3917.16
-351.946
2955.44
-6180.41
2112.4
-6106.91
2136.16
-3606.71
2401.99
-1639.11
2311.8
-1752
-1379.06
-4084.61
1155.43
-2703.91
-9472.36
-2359.38
-15176.1
-2200.25
-16129.9
-1943.42
-14820.5
-1646.58
-11777.7
-1313.33
-8337.4
-962.051
-5081.68
-614.078
-2475.01
-201.861
-150.135
782.54
1886.24
2400.81
3713.58
2930.47
-881.597
2150.99
-5400.93
1725.65
-5681.57
1835.34
-3716.4
2027.55
-1831.33
2001.87
-1726.31
-1225.7
-3388.62
-2556.54
-2289.54
-2086.75
-1845.73
-1567.25
-1261.88
-930.022
-563.621
-151.786
458.977
1332.21
1852.61
1840.11
1824.37
1901.87
2000.33
2016.78
281.229
-1550.79
508.916
-2013.81
631.588
-1681.45
706.178
-1353.97
847.908
-1407.78
997.026
-1468.25
1010.16
-1285.2
968.109
-1114.29
862.402
-913.28
723.278
-743.623
567.495
-607.396
398.367
-494.416
217.148
-396.863
35.4038
-326.05
-118.909
-303.885
-206.818
-374.408
-200.185
-561.488
-113.925
-868.532
-21.4151
-1124
-910.463
103.717
-1654.5
65.4363
-1975.53
39.4924
-1655.5
31.5798
-1346.06
59.3668
-1435.57
99.163
-1508.04
9.39742
-1195.43
-65.3146
-1039.57
-133.896
-844.697
-171.714
-705.801
-189.668
-589.439
-199.35
-484.73
-211.984
-384.226
-225.523
-312.508
-231.807
-297.598
-218.026
-388.186
-178.091
-601.422
-130.723
-915.899
-113.438
-1141.29
-1023.9
-26.901
-1627.6
-48.065
-1954.36
-18.2777
-1685.28
1.98915
-1366.32
-15.6098
-1417.96
-18.3408
-1505.31
-87.8472
-1125.92
-71.5623
-1055.86
5.04853
-921.304
134.758
-835.507
281.834
-736.513
431.289
-634.182
561.795
-514.729
656.917
-407.627
689.379
-330.058
636.359
-335.164
488.896
-453.957
280.563
-707.565
65.1941
-925.916
-958.707
-20.728
-1606.86
-38.579
-1936.5
-14.1556
-1709.7
-10.6535
-1369.82
-39.0289
-1389.59
-52.5572
-1491.78
-85.5651
-1092.91
-73.6379
-1067.78
-19.5262
-975.414
67.3123
-922.343
172.246
-841.444
294.914
-756.848
421.042
-640.854
534.768
-521.351
604.619
-399.907
603.334
-333.877
509.679
-360.301
335.018
-532.903
138.922
-729.818
-819.785
-9.16381
-1597.69
-27.8944
-1917.77
4.25321
-1741.84
19.2169
-1384.78
5.28665
-1375.65
2.34992
-1488.84
16.575
-1107.13
12.0689
-1063.27
25.4336
-988.775
47.9176
-944.823
76.1571
-869.68
119.433
-800.121
178.986
-700.403
254.083
-596.445
317.033
-462.854
340.366
-357.208
295.862
-315.796
191.75
-428.789
87.7446
-625.81
-732.04
-2.95399
-1594.74
-12.7151
-1908
20.2828
-1774.84
35.7869
-1400.28
40.7028
-1380.57
38.6121
-1486.75
75.4702
-1143.99
73.0662
-1060.87
72.0675
-987.774
70.3271
-943.081
65.2555
-864.606
61.7741
-796.637
65.4286
-704.056
85.3642
-616.379
116.51
-493.998
144.212
-384.909
138.984
-310.566
98.9278
-388.732
58.7953
-585.676
-673.245
-6.93238
-1587.8
-9.00587
-1905.92
19.9151
-1803.75
32.4852
-1412.84
39.3898
-1387.47
33.8484
-1481.2
68.7389
-1178.88
79.8135
-1071.94
84.1383
-992.097
86.2122
-945.152
88.2382
-866.63
86.7631
-795.159
87.1981
-704.489
92.1606
-621.339
114.542
-516.378
149.451
-419.816
172.495
-333.608
156.91
-373.146
100.886
-529.651
-572.359
6.62005
-1594.42
23.6954
-1923
54.2798
-1834.33
80.6093
-1439.17
95.9281
-1402.78
98.5422
-1483.82
132.413
-1212.75
161.969
-1101.49
185.072
-1015.2
200.26
-960.338
215.108
-881.477
221.56
-801.61
226.704
-709.632
226.505
-621.139
235.73
-525.602
253.075
-437.16
269.344
-349.877
242.911
-346.713
149.355
-436.094
-423.003
30.8021
-1625.21
61.2822
-1953.47
87.0197
-1860.06
129.97
-1482.11
160.596
-1433.4
171.32
-1494.53
214.189
-1255.61
266.414
-1153.71
317.384
-1066.17
353.472
-996.419
384.573
-912.574
403.041
-820.072
414.492
-721.079
414.212
-620.856
410.32
-521.707
400.905
-427.743
384.977
-333.948
327.312
-289.048
200.086
-308.867
-222.917
52.4082
-1677.62
84.6748
-1985.73
95.1339
-1870.52
159.291
-1546.26
203.47
-1477.58
207.171
-1498.23
268.236
-1316.68
333.312
-1218.79
399.337
-1132.19
447.263
-1044.34
491.244
-956.554
524.427
-853.254
551.974
-748.627
567.029
-635.909
566.928
-521.607
547.939
-408.753
511.849
-297.858
434.312
-211.511
276.97
-151.527
54.0537
59.566
-1737.18
86.4366
-2012.6
69.308
-1853.39
144.492
-1621.44
202.198
-1535.28
180.269
-1476.3
241.755
-1378.16
289.589
-1266.62
339.454
-1182.05
378.642
-1083.53
418.978
-996.889
454.319
-888.594
490.948
-785.256
513.558
-658.519
495.616
-503.666
439.436
-352.573
367.955
-226.378
232.075
-75.6334
30.1546
50.39
84.2082
42.1943
-1779.37
35.7493
-2006.15
9.13571
-1826.77
43.0303
-1655.33
70.9422
-1563.19
28.9772
-1434.33
19.9463
-1369.13
5.85371
-1252.53
-10.9564
-1165.24
-29.0579
-1065.43
-51.768
-974.181
-75.3741
-864.988
-99.2905
-761.342
-136.214
-621.597
-226.471
-413.412
-347.729
-231.319
-385.466
-188.644
-341.986
-119.117
-228.555
-63.047
-144.347
74.6255
-1853.99
50.553
-1982.08
58.9081
-1835.13
68.8896
-1665.31
90.768
-1585.07
96.2365
-1439.8
77.7952
-1350.69
68.1881
-1242.92
64.7711
-1161.83
62.319
-1062.98
50.5854
-962.448
35.8322
-850.235
11.5828
-737.094
-7.50569
-602.508
-3.41044
-417.509
-6.54064
-228.19
-40.3907
-154.796
-15.9268
-143.582
62.0493
-141.026
-82.2981
113.174
-1967.17
80.3574
-1949.27
100.735
-1855.51
120.072
-1684.66
155.04
-1620.04
196.693
-1481.45
242.073
-1396.07
294.838
-1295.69
352.824
-1219.82
413.141
-1123.3
467.661
-1016.97
506.179
-888.755
513.434
-744.351
509.474
-598.55
561.033
-469.069
654.994
-322.152
662.318
-162.12
553.919
-35.1863
319.296
93.5922
236.998
54.5229
-2021.7
-6.56377
-1888.18
-17.5456
-1844.53
-29.3542
-1672.85
-34.5435
-1614.86
-29.3109
-1486.69
-11.3685
-1414.02
9.64461
-1316.7
26.493
-1236.67
46.7244
-1143.53
65.2399
-1035.49
74.1473
-897.669
71.5732
-741.783
63.531
-590.512
57.2875
-462.828
71.154
-336.02
101.512
-192.48
121.314
-54.9947
53.171
161.727
290.169
-10.4988
-2011.21
-58.8546
-1839.83
-89.4854
-1813.91
-123.057
-1639.29
-158.814
-1579.11
-193.752
-1451.76
-235.302
-1372.48
-276.484
-1275.53
-319.776
-1193.39
-360.934
-1102.38
-393.907
-1002.53
-405.241
-886.341
-381.803
-765.227
-320.764
-651.558
-245.292
-538.308
-179.4
-401.922
-139.867
-232.026
-48.556
-146.321
-86.0844
199.242
204.085
-29.3388
-1981.87
-75.2367
-1793.94
-107.414
-1781.73
-132.871
-1613.83
-158.38
-1553.6
-172.359
-1437.79
-187.622
-1357.22
-197.611
-1265.54
-206.641
-1184.36
-207.189
-1101.84
-190.268
-1019.45
-143.373
-933.24
-65.0679
-843.538
31.2304
-747.862
128.666
-635.751
207.398
-480.66
198.787
-223.426
-12.1593
64.6121
-38.9232
225.994
165.161
-135.666
-1846.21
-298.257
-1631.35
-423.515
-1656.48
-510.779
-1526.57
-586.973
-1477.41
-632.859
-1391.9
-664.944
-1325.14
-677.451
-1253.04
-675.566
-1186.25
-657.356
-1120.05
-621.786
-1055.02
-567.018
-988.011
-494.719
-915.84
-409.751
-832.832
-317.235
-728.269
-218.739
-579.159
-111.215
-330.958
-90.8241
44.2118
1.55216
133.609
166.713
-199.698
-1646.51
-441.832
-1389.22
-696.595
-1401.72
-907.587
-1315.58
-1108.94
-1276.06
-1276.12
-1224.72
-1419.7
-1181.56
-1534.93
-1137.81
-1625.37
-1095.81
-1691.41
-1054.01
-1734.34
-1012.1
-1753.38
-968.974
-1745.72
-923.499
-1705.18
-873.376
-1619.96
-813.488
-1463.37
-735.753
-1168.08
-626.251
-659.59
-464.278
-252.72
-273.265
-86.0064
-671.513
-1085.73
-1512.45
-1853.03
-2154.09
-2403.82
-2610.38
-2773.19
-2894
-2973.01
-3010.11
-3004.08
-2952.58
-2850.96
-2689.45
-2450.2
-2101.45
-1590.73
-888.994
-673.433
1648.44
-1086.91
1388.48
-1512.73
1400.82
-1850.68
1312.94
-2148.01
1272.34
-2392.65
1219.64
-2593.13
1175.48
-2749.26
1131.13
-2863.49
1089.23
-2936.96
1048.47
-2970.66
1008.7
-2963.93
968.277
-2913.84
924.91
-2815.34
876.494
-2662.33
821.998
-2447.13
759.795
-2147.43
675.305
-1688.47
516.03
-951.709
238.244
23.291
-180.395
1828.83
-403.547
1611.63
-638.063
1635.34
-828.727
1503.61
-1009.34
1452.95
-1155.95
1366.25
-1278.85
1298.38
-1373.32
1225.6
-1441.97
1157.89
-1482.78
1089.28
-1491.82
1017.74
-1461.56
938.016
-1385.64
848.993
-1265.94
756.796
-1116.44
672.491
-950.993
594.353
-763.817
488.129
-541.664
293.877
-262.82
-40.6003
-239.529
-131.323
1960.16
-296.717
1777.03
-423.882
1762.51
-520.823
1600.55
-607.84
1539.97
-670.724
1429.14
-723.781
1351.44
-763.879
1265.7
-794.269
1188.28
-807.49
1102.5
-787.422
997.671
-707.007
857.602
-546.604
688.591
-322.59
532.783
-79.6627
429.565
161.648
353.045
393.127
256.651
527.004
160.001
389.747
96.6575
150.218
-70.3787
2030.54
-157.847
1864.5
-233.049
1837.71
-308.008
1675.51
-385.72
1617.68
-458.922
1502.34
-539.292
1431.81
-619.069
1345.48
-702.4
1271.61
-783.445
1183.55
-851.555
1065.78
-879.575
885.623
-843.516
652.532
-761.771
451.039
-643.171
310.965
-481.052
190.926
-289.036
64.635
-96.3653
-32.6698
0.0876115
0.204346
150.305
-23.344
2053.88
-107.707
1948.87
-163.73
1893.74
-219.017
1730.8
-272.59
1671.26
-318.099
1547.85
-355.167
1468.88
-388.562
1378.88
-425.222
1308.27
-461.007
1219.34
-503.399
1108.17
-563.631
945.858
-660.96
749.861
-723.827
513.907
-756.333
343.47
-788.315
222.907
-820.082
96.4009
-853.089
0.336155
-595.349
-257.538
-445.043
98.2963
1955.59
63.6179
1983.55
84.7673
1872.59
112.392
1703.18
147.494
1636.16
191.642
1503.71
248.781
1411.74
312.116
1315.55
377.304
1243.09
444.77
1151.88
496.779
1056.17
525.258
917.383
495.744
779.374
405.586
604.066
195.765
553.291
99.3151
319.355
-28.3356
224.043
-52.5226
24.5132
-139.144
-170.919
-584.187
94.8077
1860.78
62.0091
2016.35
68.9708
1865.63
78.9667
1693.19
100.469
1614.66
136.721
1467.46
176.548
1371.92
214.675
1277.43
239.792
1217.98
257.422
1134.26
255.296
1058.3
242.763
929.919
232.022
790.115
181.422
654.665
35.0616
699.648
-34.8504
389.262
-33.1105
222.294
109.752
-118.36
26.5331
-87.7057
-557.654
101.439
1759.35
113.897
2003.9
149.189
1830.34
191.358
1651.03
240.321
1565.7
285.025
1422.76
326.69
1330.26
388.638
1215.48
459.934
1146.68
539.271
1054.92
622.103
975.468
699.61
852.415
755.645
734.079
815.738
594.573
895.235
620.149
756.681
527.816
645.764
333.21
343.43
183.972
163.536
92.185
-394.118
73.9679
1685.38
96.2982
1981.57
125.483
1801.16
154.915
1621.6
184.728
1535.89
202.743
1404.75
213.3
1319.7
240.62
1188.17
282.604
1104.7
336.325
1001.21
404.517
907.277
491.513
765.421
581.264
644.329
668.435
507.404
739.64
548.945
729.735
537.722
650.348
412.597
504.031
330.29
377.682
218.534
-16.436
53.1407
1632.24
61.0736
1973.64
75.6218
1786.61
84.9425
1612.28
92.4666
1528.36
88.1827
1409.03
80.1068
1327.78
75.0392
1193.23
84.8886
1094.85
105.535
980.559
143.335
869.477
183.946
724.81
226.673
601.602
248.319
485.757
320.707
476.557
413.637
444.792
448.851
377.383
408.909
370.232
276.545
350.899
260.109
69.2561
1562.99
62.46
1980.43
65.4825
1783.59
66.0338
1611.73
70.0724
1524.32
66.0798
1413.02
62.2916
1331.56
49.7903
1205.74
46.2124
1098.43
47.0146
979.758
54.8619
861.63
47.1174
732.555
29.8138
618.906
0.106401
515.465
52.0012
424.662
145.785
351.008
208.312
314.856
215.55
362.993
136.872
429.577
396.981
99.6035
1463.38
94.8356
1985.2
94.4903
1783.93
98.3912
1607.82
114.43
1508.28
131.711
1395.74
154.833
1308.44
165.327
1195.24
174.725
1089.03
178.711
975.769
176.342
863.997
152.548
756.347
112.909
658.542
71.9682
556.403
76.4919
420.136
101.858
325.64
125.311
291.402
128.182
360.122
78.5631
479.194
475.544
100.198
1363.18
105.955
1979.44
111.734
1778.15
119.551
1600
141.403
1486.43
170.59
1366.55
209.769
1269.26
243.004
1162
269.506
1062.52
283.504
961.77
284.103
863.397
268.497
771.953
245.583
681.455
224.412
577.574
201.971
442.577
174.484
353.126
159.541
306.344
140.305
379.358
81.6101
537.888
557.154
63.1599
1300.02
70.4762
1972.12
83.8967
1764.73
89.3068
1594.59
103.598
1472.14
123.16
1346.99
150.281
1242.14
177.459
1134.82
201.951
1038.03
217.908
945.81
226.514
854.789
231.07
767.395
237.006
675.517
235.852
578.725
212.81
465.617
185.341
380.595
172.075
319.609
151.091
400.341
90.5624
598.414
647.716
28.3514
1271.66
36.5055
1963.96
61.1451
1740.09
65.6701
1590.06
74.8007
1463.01
86.4866
1335.3
99.7815
1228.84
109.799
1124.81
121.064
1026.76
132.329
934.544
144.238
842.878
156.426
755.205
163.808
668.134
156.111
586.421
132.817
488.91
116.085
397.325
105.59
330.103
91.6797
414.251
63.4725
626.62
711.189
4.76618
1266.89
11.3061
1957.42
43.6446
1707.75
51.3644
1582.34
68.11
1446.26
88.3701
1315.04
110.454
1206.76
121.894
1113.36
128.22
1020.43
132.147
930.615
133.774
841.248
130.966
758.011
121.845
677.254
109.84
598.423
98.7946
499.954
89.9623
406.156
69.3478
350.717
43.3031
440.295
31.1474
638.775
742.336
2.2867
1264.61
17.4159
1942.29
63.6933
1661.47
77.1292
1568.91
96.3177
1427.07
112
1299.36
137.735
1181.02
156.28
1094.82
164.686
1012.03
163.093
932.207
155.178
849.161
144.511
768.677
138.935
682.829
144.414
592.943
154.194
490.172
153.757
406.592
127.744
376.729
78.6751
489.363
32.6227
684.826
774.959
-40.4258
1305.03
-34.6907
1936.55
14.4489
1612.33
21.9305
1561.42
25.2456
1423.75
16.689
1307.91
28.522
1169.19
57.3306
1066.01
96.0817
973.273
136.492
891.795
182.411
803.242
236.813
714.274
305.681
613.96
381.884
516.739
443.729
428.326
456.558
393.763
394.157
439.128
265.847
617.673
117.874
832.798
892.833
29.1185
1275.91
14.5987
1951.07
0.121657
1626.8
5.16707
1556.38
-10.0525
1438.97
-49.4481
1347.31
-86.5714
1206.31
-101.342
1080.78
-84.3071
956.238
-37.4852
844.972
33.8813
731.875
123.47
624.685
223.241
514.188
322.648
417.333
409.192
341.781
458.245
344.71
428.475
468.899
294.303
751.845
110.288
1016.81
1003.12
181.452
407.003
530.587
670.683
780.138
855.053
859.729
842.956
815.403
785.392
748.574
701.806
637.022
553.94
457.468
362.317
270.539
177.813
80.8674
)
;

boundaryField
{
    outletWall
    {
        type            calculated;
        value           nonuniform List<scalar> 
60
(
-3399.48
-3293.09
-3849.17
-2603.85
-2772.61
-2201.64
-2325.51
-3154.04
-5024.48
-6176.24
-5570.04
-3621.12
-1514.79
-244.342
884.152
2926.68
6652.69
10441.6
9836.67
3448.52
4198.08
5364.33
6547.93
8175.25
9464.43
9769.81
8919.38
7776.28
7386.08
8007.73
9137.72
10130.4
10554.6
10236.7
9222.39
7868.79
6506.56
5316.66
4087.93
3165.96
1927.02
-1085.38
-1742.77
-1929.78
-3793.91
-5665.83
-5388.42
-1402
2840.34
1275.48
-561.97
-2841.41
-5413.55
-8642.76
-12056.2
-15061.5
-16332.6
-15443.1
-10304.4
345.969
)
;
    }
    fineWalls
    {
        type            calculated;
        value           uniform 0;
    }
    fineFrontAndBack
    {
        type            calculated;
        value           nonuniform List<scalar> 
960
(
-3.41688e-13
-1.64308e-13
4.23508e-13
2.03269e-13
-6.19783e-13
-7.99945e-14
1.51822e-14
1.53286e-13
-7.7536e-13
-2.07701e-13
-9.40086e-14
-1.29069e-12
-2.29601e-13
-9.1291e-14
-4.00273e-12
-9.20315e-13
-9.23949e-13
-2.78195e-12
-5.29702e-13
-7.11507e-13
-6.51387e-14
-2.14185e-13
-2.33303e-13
-2.56706e-13
-2.40206e-13
-2.48976e-13
-2.38512e-12
-3.12417e-13
-3.40283e-13
-3.79431e-13
-4.28761e-13
-4.94959e-13
-5.76647e-13
-6.72108e-13
-7.74414e-13
-8.7294e-13
-9.30585e-13
-9.26657e-13
-7.96389e-13
-6.99804e-13
-1.99122e-11
-3.20218e-12
-3.21135e-12
-3.19898e-12
-9.4647e-12
-4.31198e-12
-6.33975e-12
3.47655e-12
1.92112e-10
-1.68955e-12
2.42735e-12
6.42073e-11
1.41667e-11
1.24604e-11
4.64309e-12
1.2018e-11
1.50752e-12
1.22074e-12
9.60495e-13
7.74721e-12
5.08147e-13
5.09021e-13
6.81214e-13
7.66821e-13
7.36461e-13
6.21098e-13
5.0267e-13
4.09326e-13
3.31988e-13
2.66611e-13
2.1518e-13
1.79811e-13
1.45439e-13
-5.70638e-12
-1.41372e-14
-1.05066e-13
-1.43505e-13
-2.06236e-13
-2.77298e-13
-5.70509e-13
-2.88384e-12
-3.07262e-12
-1.76748e-11
-2.6853e-12
-2.89631e-12
-1.54079e-11
-2.01273e-12
-2.19397e-12
-1.165e-11
-1.32727e-12
-1.44558e-12
-7.08229e-12
-5.08583e-13
-6.11014e-13
-6.11594e-13
-3.9614e-12
-1.49661e-13
-2.7508e-13
-1.96914e-12
2.36497e-13
-7.08996e-11
-6.58484e-11
-5.7902e-11
-5.29054e-11
-2.98522e-11
-6.00884e-12
-6.4536e-12
-2.23551e-11
-2.4797e-11
-2.63679e-11
-2.86832e-11
-4.00003e-11
-5.27466e-11
-5.48709e-11
-5.31523e-11
-4.9136e-11
-4.56187e-11
-3.88187e-11
-3.10668e-11
-6.36961e-11
-6.78291e-11
-6.35575e-11
-5.8496e-11
-4.35216e-11
-1.85002e-11
1.0012e-11
4.98643e-12
-1.35967e-11
-2.06204e-11
-2.73258e-11
-4.03405e-11
-5.09012e-11
-5.14218e-11
-5.24642e-11
-4.9924e-11
-4.68047e-11
-3.97915e-11
-3.20245e-11
-4.99896e-11
-6.16011e-11
-5.75673e-11
-4.62519e-11
-4.30033e-11
-3.95571e-11
-1.6208e-11
2.65013e-11
2.69249e-11
8.44802e-13
-2.02684e-11
-3.62142e-11
-4.7401e-11
-4.74091e-11
-5.16835e-11
-4.89251e-11
-4.5353e-11
-3.99692e-11
-3.33977e-11
-3.58832e-11
-5.6986e-11
-4.71523e-11
-3.35048e-11
-3.46517e-11
-4.28993e-11
-4.96348e-11
-4.11724e-11
-1.34444e-11
-1.81931e-11
-1.57504e-11
-2.99788e-11
-3.98943e-11
-3.57516e-11
-4.27274e-11
-4.51859e-11
-4.31249e-11
-3.88536e-11
-3.41567e-11
-3.50735e-11
-5.15663e-11
-3.86294e-11
-2.80499e-11
-2.78006e-11
-3.12512e-11
-4.28025e-11
-6.32122e-11
-8.1096e-11
-6.68197e-11
-3.36398e-11
-2.45329e-11
-3.15234e-11
-2.1492e-11
-2.59235e-11
-3.8057e-11
-3.74998e-11
-3.60002e-11
-3.27111e-11
-3.95078e-11
-4.65114e-11
-3.45088e-11
-2.82913e-11
-2.45635e-11
-2.24862e-11
-2.82113e-11
-4.53573e-11
-6.86991e-11
-7.61094e-11
-4.67518e-11
-1.89625e-11
-3.42741e-11
-4.29248e-11
-3.9577e-11
-4.91161e-11
-4.30167e-11
-3.38091e-11
-3.39052e-11
-4.54412e-11
-4.58372e-11
-3.25992e-11
-2.30095e-11
-1.57916e-11
-1.29342e-11
-1.49573e-11
-2.36365e-11
-4.05798e-11
-5.79857e-11
-4.73069e-11
-2.89462e-11
-4.65751e-11
-4.05778e-11
-4.5713e-11
-4.34543e-11
-4.28385e-11
-4.22152e-11
-3.7808e-11
-5.17015e-11
-4.3099e-11
-1.94159e-11
-4.50628e-13
6.07683e-12
1.80877e-12
-2.53395e-12
-3.83719e-12
-1.42253e-11
-4.13358e-11
-5.82956e-11
-4.70986e-11
-2.89092e-11
-1.08625e-11
-1.89683e-11
-3.00276e-11
-3.40307e-11
-2.42982e-11
-8.86197e-12
-5.79659e-11
-3.22433e-11
1.29564e-11
3.66993e-11
3.11618e-11
1.95706e-11
1.21314e-11
1.07337e-11
4.81753e-12
-1.9061e-11
-5.0524e-11
-3.90394e-11
-1.06965e-11
-1.94025e-12
-5.44775e-12
-9.5625e-12
-1.02285e-11
-3.28841e-12
7.4764e-12
-6.45439e-11
-1.27014e-11
4.93267e-11
5.19736e-11
3.01355e-11
2.67946e-11
2.93922e-11
2.52599e-11
1.85615e-11
5.59309e-12
-1.88099e-11
-2.06717e-11
3.95767e-12
1.0167e-11
9.49671e-12
8.44079e-12
7.99438e-12
1.77235e-11
4.22902e-11
-6.32286e-11
6.49208e-12
5.56268e-11
1.99475e-11
-3.176e-12
1.25062e-11
3.69557e-11
3.37777e-11
2.50511e-11
2.05611e-11
1.3131e-11
5.34604e-12
8.86388e-12
8.9448e-12
1.21684e-11
2.52881e-11
3.75022e-11
4.53742e-11
9.36336e-11
-5.19136e-11
7.19907e-12
2.05351e-11
-2.37747e-11
-3.06267e-11
-1.39058e-11
1.33055e-11
3.12525e-11
2.65834e-11
1.87904e-11
1.47567e-11
9.55207e-12
-2.59506e-12
-1.79407e-11
-2.4784e-11
-3.01703e-11
-3.04018e-11
-2.88226e-11
-2.55093e-11
-2.90189e-11
-1.8571e-12
-1.14216e-11
-3.56293e-11
-3.14611e-11
-2.62336e-11
-1.09275e-11
1.55654e-11
2.71156e-11
2.29495e-11
1.04526e-11
2.96656e-12
-3.2919e-12
-2.32287e-12
2.88394e-12
-5.14834e-12
-1.63811e-11
-1.29699e-11
-1.82008e-11
3.80739e-12
-1.15924e-12
-1.67572e-11
-2.6993e-11
-2.51397e-11
-2.66668e-11
-2.41929e-11
-7.9798e-12
1.1728e-11
1.92715e-11
1.01429e-11
-2.03127e-12
-1.87904e-12
8.49627e-13
1.08789e-12
6.34016e-12
4.60541e-12
8.54307e-12
1.42912e-11
3.32212e-11
6.00188e-12
-1.23416e-11
-2.17015e-11
-2.36963e-11
-2.31477e-11
-2.5064e-11
-2.52933e-11
-1.05585e-11
3.23945e-12
5.66408e-12
-3.24598e-12
-1.19709e-11
-9.72131e-12
-3.94943e-12
1.26351e-12
8.49557e-12
3.20259e-12
5.69552e-12
4.62729e-11
8.88916e-12
-8.29811e-12
-1.92382e-11
-2.22253e-11
-2.07003e-11
-1.99673e-11
-2.75152e-11
-2.65175e-11
-1.78331e-11
-7.2182e-12
-1.43666e-12
-1.76094e-11
-1.07971e-11
-6.86355e-12
-3.76098e-12
-4.41089e-12
-5.10791e-12
-4.8285e-12
4.52559e-11
9.82462e-12
-7.63809e-12
-1.6977e-11
-2.05234e-11
-1.93192e-11
-1.53158e-11
-1.98207e-11
-2.71359e-11
-2.51476e-11
-1.6466e-11
-6.04819e-12
-1.1359e-11
-7.72997e-12
-5.51184e-12
-5.32596e-12
-5.48208e-12
-5.18059e-12
-4.27889e-12
3.14261e-11
1.20022e-12
-8.25238e-12
-1.44949e-11
-1.92018e-11
-1.95452e-11
-1.36781e-11
-1.19732e-11
-1.61728e-11
-2.04491e-11
-1.46611e-11
-1.10699e-11
-1.00485e-11
-7.29442e-12
-5.30037e-12
-4.25265e-12
-4.07935e-12
-3.89782e-12
-3.40776e-12
1.16607e-11
-1.04524e-11
-7.20141e-12
-1.24989e-11
-1.83824e-11
-2.00198e-11
-1.32444e-11
-8.98387e-12
-1.07787e-11
-1.61203e-11
-1.30711e-11
-8.93513e-12
-8.54563e-12
-4.88547e-12
-3.06241e-12
-2.76565e-12
-2.97441e-12
-3.18975e-12
-3.10524e-12
-5.11322e-12
-1.42752e-11
-5.43865e-12
-1.15359e-11
-1.79777e-11
-2.02944e-11
-1.28388e-11
-6.95559e-12
-7.77638e-12
-1.41485e-11
-1.08978e-11
-4.23314e-12
-3.04585e-12
-2.01213e-12
-2.09812e-12
-2.51494e-12
-2.87599e-12
-3.14233e-12
-3.03914e-12
3.41688e-13
1.64308e-13
-4.23508e-13
-2.03269e-13
6.19783e-13
7.99945e-14
-1.51822e-14
-1.53286e-13
7.7536e-13
2.07701e-13
9.40086e-14
1.29069e-12
2.29601e-13
9.1291e-14
4.00273e-12
9.20315e-13
9.23949e-13
2.78195e-12
5.29702e-13
7.11507e-13
6.51387e-14
2.14185e-13
2.33303e-13
2.56706e-13
2.40206e-13
2.48976e-13
2.38512e-12
3.12417e-13
3.40283e-13
3.79431e-13
4.28761e-13
4.94959e-13
5.76647e-13
6.72108e-13
7.74414e-13
8.7294e-13
9.30585e-13
9.26657e-13
7.96389e-13
6.99804e-13
1.99122e-11
3.20218e-12
3.21135e-12
3.19898e-12
9.4647e-12
4.31198e-12
6.33975e-12
-3.47655e-12
-1.92112e-10
1.68955e-12
-2.42735e-12
-6.42073e-11
-1.41667e-11
-1.24604e-11
-4.64309e-12
-1.2018e-11
-1.50752e-12
-1.22074e-12
-9.60495e-13
-7.74721e-12
-5.08147e-13
-5.09021e-13
-6.81214e-13
-7.66821e-13
-7.36461e-13
-6.21098e-13
-5.0267e-13
-4.09326e-13
-3.31988e-13
-2.66611e-13
-2.1518e-13
-1.79811e-13
-1.45439e-13
5.70638e-12
1.41372e-14
1.05066e-13
1.43505e-13
2.06236e-13
2.77298e-13
5.70509e-13
2.88384e-12
3.07262e-12
1.76748e-11
2.6853e-12
2.89631e-12
1.54079e-11
2.01273e-12
2.19397e-12
1.165e-11
1.32727e-12
1.44558e-12
7.08229e-12
5.08583e-13
6.11014e-13
6.11594e-13
3.9614e-12
1.49661e-13
2.7508e-13
1.96914e-12
-2.36497e-13
7.08996e-11
6.58484e-11
5.7902e-11
5.29054e-11
2.98522e-11
6.00884e-12
6.4536e-12
2.23551e-11
2.4797e-11
2.63679e-11
2.86832e-11
4.00003e-11
5.27466e-11
5.48709e-11
5.31523e-11
4.9136e-11
4.56187e-11
3.88187e-11
3.10668e-11
6.36961e-11
6.78291e-11
6.35575e-11
5.8496e-11
4.35216e-11
1.85002e-11
-1.0012e-11
-4.98643e-12
1.35967e-11
2.06204e-11
2.73258e-11
4.03405e-11
5.09012e-11
5.14218e-11
5.24642e-11
4.9924e-11
4.68047e-11
3.97915e-11
3.20245e-11
4.99896e-11
6.16011e-11
5.75673e-11
4.62519e-11
4.30033e-11
3.95571e-11
1.6208e-11
-2.65013e-11
-2.69249e-11
-8.44802e-13
2.02684e-11
3.62142e-11
4.7401e-11
4.74091e-11
5.16835e-11
4.89251e-11
4.5353e-11
3.99692e-11
3.33977e-11
3.58832e-11
5.6986e-11
4.71523e-11
3.35048e-11
3.46517e-11
4.28993e-11
4.96348e-11
4.11724e-11
1.34444e-11
1.81931e-11
1.57504e-11
2.99788e-11
3.98943e-11
3.57516e-11
4.27274e-11
4.51859e-11
4.31249e-11
3.88536e-11
3.41567e-11
3.50735e-11
5.15663e-11
3.86294e-11
2.80499e-11
2.78006e-11
3.12512e-11
4.28025e-11
6.32122e-11
8.1096e-11
6.68197e-11
3.36398e-11
2.45329e-11
3.15234e-11
2.1492e-11
2.59235e-11
3.8057e-11
3.74998e-11
3.60002e-11
3.27111e-11
3.95078e-11
4.65114e-11
3.45088e-11
2.82913e-11
2.45635e-11