/*--------------------------------*- C++ -*----------------------------------*\
| =========                 |                                                 |
| \\      /  F ield         | OpenFOAM: The Open Source CFD Toolbox           |
|  \\    /   O peration     | Version:  4.1                                   |
|   \\  /    A nd           | Web:      www.OpenFOAM.org                      |
|    \\/     M anipulation  |                                                 |
\*---------------------------------------------------------------------------*/
FoamFile
{
    version     2.0;
    format      ascii;
    class       volVectorField;
    location    "15";
    object      U;
}
// * * * * * * * * * * * * * * * * * * * * * * * * * * * * * * * * * * * * * //

dimensions      [0 1 -1 0 0 0 0];

internalField   nonuniform List<vector> 
1280
(
(-2.46929e-16 -0.615836 -1.50467)
(-2.79257e-17 -0.0782476 -1.46701)
(3.06058e-16 -0.182198 -0.948101)
(1.46897e-16 0.0538761 -0.841486)
(-1.05338e-16 0.22341 -1.4796)
(-5.78099e-17 0.42549 -1.09579)
(1.09718e-17 0.628106 -1.04957)
(1.13318e-16 0.712383 -0.91293)
(-1.36813e-16 1.06204 -1.49074)
(-1.501e-16 1.18816 -1.1261)
(-6.1178e-17 1.37008 -0.98474)
(-2.61858e-16 1.83523 -1.79905)
(-1.65927e-16 1.90874 -1.41527)
(-6.59736e-17 2.16432 -1.26445)
(-7.27494e-16 2.82975 -2.20045)
(-6.65088e-16 2.66653 -1.80107)
(-6.67713e-16 3.23099 -1.54169)
(-4.72819e-16 2.9399 -3.33115)
(-4.03846e-16 4.69986 -1.60509)
(-5.14188e-16 2.68897 -5.36993)
(-2.67236e-16 4.4124 2.2811)
(-8.78707e-16 4.55364 7.37192)
(-9.5714e-16 4.52109 9.02545)
(-1.05315e-15 4.91614 9.09644)
(-9.8546e-16 5.00432 9.62133)
(-1.02144e-15 5.33669 10.8209)
(-5.02793e-16 3.71539 7.65066)
(-1.28171e-15 8.42592 13.2403)
(-1.39603e-15 8.55646 13.2566)
(-1.55664e-15 8.53059 13.1038)
(-1.75902e-15 8.5148 12.929)
(-2.0306e-15 8.4515 12.8074)
(-2.36573e-15 8.38718 12.7283)
(-2.75737e-15 8.26173 12.6943)
(-3.17708e-15 8.18047 12.6801)
(-3.58129e-15 7.9836 12.7602)
(-3.81778e-15 7.95529 12.9721)
(-3.80167e-15 7.69312 13.4544)
(-3.26724e-15 7.96056 14.4195)
(-2.87099e-15 7.69182 13.7434)
(-3.466e-15 10.2624 14.0398)
(-2.57203e-15 5.68983 9.41392)
(-2.5794e-15 4.50714 9.221)
(-2.55178e-15 3.59359 9.42464)
(-1.48504e-15 1.51896 8.33977)
(-3.46344e-15 0.092802 -0.9339)
(-5.09217e-15 0.30352 -3.37204)
(2.79241e-15 0.799837 -4.05728)
(3.40125e-14 1.74074 -5.07286)
(-1.00695e-15 -0.264382 -1.42946)
(2.2731e-15 0.869331 -2.7044)
(1.11762e-14 -0.201375 -4.97189)
(1.13789e-14 -0.479283 -3.07499)
(1.00084e-14 0.430739 -1.3349)
(3.72939e-15 -0.20135 2.2324)
(2.0919e-15 -0.839796 8.51102)
(1.21793e-15 -3.17441 9.68608)
(9.77933e-16 -4.02812 9.86066)
(7.71482e-16 -5.44802 10.2214)
(1.20478e-15 -9.9428 15.5906)
(2.08471e-15 -7.37499 15.752)
(2.08829e-15 -7.64332 15.5822)
(2.79472e-15 -7.42288 13.8082)
(3.14593e-15 -7.70796 12.6301)
(3.02138e-15 -7.70654 12.0729)
(2.54809e-15 -7.92158 11.9307)
(2.06224e-15 -7.97591 12.0141)
(1.67929e-15 -8.10727 12.1777)
(1.362e-15 -8.1616 12.4435)
(1.09379e-15 -8.2459 12.7507)
(8.82791e-16 -8.27533 13.0937)
(7.37686e-16 -8.3128 13.3879)
(5.96672e-16 -8.23258 13.5418)
(-1.20292e-15 -4.2235 8.52888)
(-5.79987e-17 -4.98806 10.9203)
(-4.3104e-16 -4.63321 10.2516)
(-5.88736e-16 -4.55734 9.81412)
(-8.46097e-16 -4.11122 8.80106)
(-1.13763e-15 -4.31906 7.39558)
(-2.34055e-15 -4.08396 1.79692)
(-2.08407e-15 -2.87508 -4.40135)
(-2.2205e-15 -4.34044 -1.30356)
(-3.00401e-15 -3.15838 -2.7135)
(-1.9406e-15 -3.27664 -1.23414)
(-2.09309e-15 -2.80169 -1.41464)
(-2.68048e-15 -3.14192 -1.65713)
(-1.47183e-15 -2.54387 -0.916526)
(-1.59421e-15 -2.32313 -0.993438)
(-2.01767e-15 -2.49718 -1.19226)
(-9.46183e-16 -2.04516 -0.59336)
(-1.04468e-15 -1.89767 -0.657461)
(-1.24937e-15 -2.06403 -0.809433)
(-3.73721e-16 -1.61085 -0.390245)
(-4.41564e-16 -1.68453 -0.418665)
(-4.41983e-16 -1.47706 -0.398612)
(-6.73278e-16 -1.68716 -0.46773)
(-1.08156e-16 -1.32989 -0.145698)
(-2.01019e-16 -1.29888 -0.161669)
(-3.3296e-16 -1.38944 -0.174783)
(1.7091e-16 -1.10484 0.0577914)
(-7.87773e-15 1.14947 2.65075)
(-7.31649e-15 3.2596 3.46312)
(-6.43355e-15 3.47712 4.39704)
(-5.87837e-15 2.25313 4.45237)
(-3.31691e-15 1.03359 3.4221)
(-6.67649e-16 0.334404 2.05387)
(-7.17066e-16 -0.071511 1.26111)
(-2.4839e-15 -0.504152 1.1137)
(-2.75522e-15 -1.19123 0.959306)
(-2.92976e-15 -1.84029 0.716639)
(-3.18702e-15 -2.04608 0.503161)
(-4.44447e-15 -1.66051 0.246463)
(-5.86073e-15 -1.03542 -0.0978629)
(-6.09677e-15 -0.758557 -0.390711)
(-5.90581e-15 -0.720088 -0.624774)
(-5.45956e-15 -0.915762 -0.684046)
(-5.06874e-15 -0.866801 -0.81358)
(-4.31319e-15 -1.27844 -0.694251)
(-3.45187e-15 -1.11759 -0.939054)
(-7.07735e-15 0.809032 3.42403)
(-7.53657e-15 2.64104 4.43946)
(-7.06195e-15 3.0971 5.82257)
(-6.49956e-15 2.52706 6.31544)
(-4.83573e-15 1.79797 5.40167)
(-2.05557e-15 1.06948 3.66671)
(1.11244e-15 0.271199 1.99669)
(5.54048e-16 -0.381418 1.30126)
(-1.51075e-15 -1.09404 1.07939)
(-2.29116e-15 -1.72287 0.758126)
(-3.0362e-15 -1.90578 0.57986)
(-4.48227e-15 -1.46739 0.316907)
(-5.65569e-15 -0.831589 -0.131376)
(-5.71354e-15 -0.613095 -0.538222)
(-5.82936e-15 -0.658045 -0.733071)
(-5.54711e-15 -0.87991 -0.709261)
(-5.20052e-15 -0.870991 -0.775817)
(-4.42128e-15 -1.26167 -0.692352)
(-3.55827e-15 -1.29325 -0.94735)
(-5.5544e-15 0.691975 4.45487)
(-6.84456e-15 2.27746 5.52597)
(-6.39636e-15 2.69097 7.17925)
(-5.1391e-15 2.46959 8.10612)
(-4.77815e-15 2.19371 7.58744)
(-4.39524e-15 1.76631 5.97397)
(-1.80089e-15 0.898003 3.70272)
(2.94459e-15 -0.139971 1.80765)
(2.99166e-15 -0.929943 1.30748)
(9.38669e-17 -1.60224 0.94887)
(-2.25204e-15 -1.84521 0.804118)
(-4.0238e-15 -1.33856 0.538349)
(-5.26678e-15 -0.652479 -0.094457)
(-5.26768e-15 -0.485682 -0.790054)
(-5.74261e-15 -0.599164 -0.923151)
(-5.43612e-15 -0.875658 -0.800822)
(-5.03923e-15 -0.84866 -0.798037)
(-4.44102e-15 -1.17074 -0.717691)
(-3.71086e-15 -1.22206 -1.04028)
(-3.98702e-15 0.367851 5.46271)
(-6.33178e-15 1.61813 6.96555)
(-5.23914e-15 2.06552 8.97781)
(-3.72275e-15 2.33875 10.2403)
(-3.85018e-15 2.60349 10.0822)
(-4.76659e-15 2.58989 8.7966)
(-5.51498e-15 1.92338 6.41562)
(-4.57471e-15 0.596864 3.40221)
(-1.49383e-15 -0.747046 1.36557)
(-2.02145e-15 -1.55701 1.05848)
(-1.75005e-15 -1.75197 1.02261)
(-3.33098e-15 -1.10484 0.896379)
(-4.4327e-15 -0.308483 0.106682)
(-3.9724e-15 -0.361543 -1.13685)
(-4.74749e-15 -0.690823 -1.16047)
(-5.02065e-15 -0.943538 -0.872043)
(-4.79165e-15 -0.915063 -0.753289)
(-4.31706e-15 -1.23177 -0.626361)
(-3.79519e-15 -1.32944 -1.22598)
(-3.89706e-15 0.0130861 6.61545)
(-5.72959e-15 0.903803 8.70364)
(-4.29215e-15 1.359 10.7559)
(-3.11665e-15 2.04482 12.057)
(-3.08896e-15 2.79165 12.1378)
(-3.47236e-15 3.24977 11.3361)
(-4.75584e-15 3.04826 9.46296)
(-7.02358e-15 1.90724 6.35385)
(-9.01067e-15 -0.0159911 2.68973)
(-7.42441e-15 -1.46399 1.05943)
(-3.73775e-15 -1.80084 1.08236)
(-2.72588e-15 -0.952509 1.27129)
(-3.5026e-15 0.20249 0.366739)
(-2.388e-15 0.0354687 -1.17058)
(-2.88039e-15 -0.641957 -1.16478)
(-4.22856e-15 -1.07015 -0.681997)
(-4.16664e-15 -0.912238 -0.602955)
(-4.00003e-15 -0.905157 -0.661291)
(-3.63457e-15 -0.809264 -1.39703)
(-4.38975e-15 -0.541789 7.75995)
(-5.16793e-15 0.0379078 10.4061)
(-3.83431e-15 0.712695 12.066)
(-3.14348e-15 1.79931 12.8767)
(-2.72928e-15 2.89261 12.827)
(-2.49846e-15 3.67022 12.4442)
(-3.13459e-15 3.9204 11.4623)
(-5.0397e-15 3.28316 9.26705)
(-7.63323e-15 1.39928 5.58076)
(-8.4566e-15 -0.919311 2.12669)
(-5.19464e-15 -1.84941 1.48653)
(-2.10694e-15 -0.780189 1.77599)
(-3.80823e-15 0.701682 1.00984)
(-4.76942e-15 0.140674 0.234332)
(-4.39744e-15 -0.796975 0.153994)
(-5.45735e-15 -1.12378 0.393927)
(-4.77963e-15 -0.949186 0.261535)
(-3.75657e-15 -1.16563 0.22696)
(-3.76724e-15 -1.21251 -2.38353)
(-5.04902e-15 -1.16166 8.61285)
(-5.09302e-15 -0.741826 11.3363)
(-3.62213e-15 0.341197 12.1961)
(-2.55661e-15 1.75511 12.1075)
(-1.75462e-15 2.96803 11.6353)
(-1.43714e-15 3.8048 11.5044)
(-1.66192e-15 4.32777 11.4773)
(-2.62628e-15 4.26302 10.7152)
(-4.50887e-15 2.87819 8.2244)
(-6.44285e-15 0.0832429 4.34646)
(-5.25632e-15 -1.67579 2.44771)
(-3.21624e-15 -0.720791 2.62488)
(-5.17501e-15 0.854878 2.44789)
(-4.50865e-15 0.265027 2.38156)
(-5.07922e-15 -0.825338 1.52868)
(-4.82826e-15 -1.18226 0.916812)
(-4.75983e-15 -0.698641 0.316571)
(-4.69058e-15 0.740788 -0.755923)
(-4.20089e-15 1.28989 -1.44272)
(-5.74461e-15 -1.74813 8.87698)
(-4.78877e-15 -1.29555 11.2097)
(-2.15732e-15 0.365467 11.0389)
(-5.00698e-17 2.01589 10.1128)
(6.75203e-16 3.11551 9.20458)
(2.00974e-16 3.7225 9.05907)
(-2.81549e-16 4.2272 9.65713)
(-4.26354e-16 4.58639 10.2835)
(-1.58059e-15 3.9565 9.65203)
(-4.59287e-15 1.39559 6.80682)
(-6.47728e-15 -1.19376 3.56204)
(-5.23318e-15 -0.635179 3.26786)
(-3.21213e-15 0.787081 5.07213)
(-1.20694e-15 0.499429 6.12987)
(-2.10759e-15 -0.00128876 4.3133)
(-3.3364e-15 -0.542069 1.84265)
(-3.78118e-15 -0.516848 0.993409)
(-2.6998e-15 -1.3311 3.98153)
(-9.84664e-16 -6.03483 9.61138)
(-6.44066e-15 -2.21338 8.51637)
(-3.58259e-15 -1.53881 10.3055)
(1.4396e-15 0.724453 9.34306)
(4.0777e-15 2.48676 8.07576)
(3.46242e-15 3.38129 6.93102)
(2.17451e-15 3.61935 6.57734)
(1.34793e-15 3.82552 7.22615)
(1.19263e-15 4.26377 8.59086)
(5.35281e-16 4.29165 9.70149)
(-2.11789e-15 2.57307 8.97401)
(-5.61378e-15 -0.354798 6.24088)
(-4.33771e-15 -1.25624 6.54074)
(-1.1885e-15 -0.416885 10.6117)
(-2.15583e-16 0.423377 12.6357)
(-6.05305e-16 0.75706 12.1311)
(-1.0625e-15 0.0472315 10.8929)
(-1.1365e-15 -1.13741 10.4937)
(-3.65379e-16 -2.36023 11.7134)
(8.30711e-16 -3.85807 12.2852)
(-7.17155e-15 -2.56324 7.68024)
(-1.41126e-15 -1.57104 9.04626)
(5.48074e-15 1.20273 7.81809)
(5.77485e-15 3.00166 6.5704)
(3.34839e-15 3.7159 5.36391)
(2.97718e-15 3.6089 4.96644)
(3.23254e-15 3.41829 5.41631)
(2.80665e-15 3.59296 6.7767)
(2.06239e-15 3.80754 8.89646)
(6.21455e-16 2.67992 10.3801)
(-2.08999e-15 -0.310387 9.85322)
(-2.35786e-15 -2.13456 10.0934)
(4.39741e-16 -1.57151 12.9104)
(1.12967e-15 -0.0914632 14.5098)
(1.04577e-15 0.670416 14.4336)
(9.37865e-16 -0.0464104 13.9926)
(8.88264e-16 -1.31644 13.428)
(1.96928e-15 -2.38778 11.5969)
(4.69892e-15 -3.31253 7.12593)
(-7.0254e-15 -2.84177 6.72976)
(7.21343e-16 -1.54032 7.81501)
(6.18076e-15 1.65533 6.65605)
(2.21638e-15 3.50484 5.42738)
(-3.52888e-16 4.02378 4.29779)
(1.38957e-15 3.60378 4.0875)
(4.18064e-15 3.09826 4.44249)
(3.75308e-15 2.86934 5.451)
(2.78346e-15 2.8925 7.71351)
(2.28456e-15 2.169 10.4756)
(1.459e-15 -0.357407 11.532)
(5.94004e-16 -2.54068 12.0128)
(9.84876e-16 -2.20865 13.7597)
(9.93867e-16 -0.165459 14.7706)
(1.35204e-15 1.1626 14.3048)
(2.80979e-15 0.741601 13.4841)
(4.16691e-15 -0.0608488 12.2361)
(5.04158e-15 0.507105 10.0737)
(1.04037e-14 2.37874 6.14315)
(-5.76818e-15 -3.06502 6.2025)
(7.99897e-16 -1.49358 6.93256)
(2.28168e-15 2.0866 5.82467)
(-2.64163e-15 3.98958 4.58704)
(-3.40296e-15 4.2494 3.71737)
(-1.54509e-15 3.56002 3.69297)
(1.47839e-15 2.87685 3.98621)
(3.47249e-15 2.27519 4.61267)
(2.95371e-15 1.80038 6.30823)
(2.08782e-15 1.12661 9.50186)
(1.63963e-15 -0.845244 11.7828)
(1.06134e-15 -2.94603 12.3413)
(-2.8834e-16 -2.65566 13.1285)
(-1.99341e-15 -0.340458 12.7129)
(-2.75378e-15 1.05678 11.782)
(-3.35225e-15 0.622877 13.3716)
(-3.37798e-15 -0.150088 14.6671)
(-3.20252e-15 0.597981 13.9235)
(-2.83436e-15 2.87306 12.4634)
(-3.22432e-15 -3.19114 6.51538)
(-2.06345e-16 -1.34381 6.50746)
(-1.26907e-15 2.53198 5.15181)
(-3.95881e-15 4.39476 4.01287)
(-3.49567e-15 4.36969 3.45552)
(-2.91484e-15 3.49835 3.47531)
(-1.21417e-15 2.7362 3.69992)
(1.72949e-15 1.96955 4.11268)
(3.01285e-15 0.982366 4.75742)
(2.54994e-15 -0.0416466 6.72924)
(1.1614e-15 -1.47142 9.60573)
(3.29618e-16 -3.10364 10.802)
(-3.65767e-16 -2.38183 10.0144)
(-2.58097e-16 0.327969 6.93488)
(3.20438e-16 1.11752 4.29009)
(-5.72037e-16 -0.336417 4.47301)
(-1.82013e-15 -0.448731 6.70077)
(-1.4411e-15 1.61516 7.24548)
(-2.02231e-15 6.11277 9.87539)
(4.23044e-16 -3.09982 7.45258)
(-1.28805e-16 -0.906447 6.29639)
(-1.86191e-15 3.03547 4.48758)
(-2.99922e-15 4.70998 3.54018)
(-2.7933e-15 4.45082 3.16428)
(-2.96298e-15 3.45888 3.08555)
(-2.6881e-15 2.60476 3.23265)
(-8.86645e-16 1.82785 3.71324)
(1.30311e-15 0.756082 4.01263)
(2.14128e-15 -0.7835 4.27696)
(1.12698e-15 -2.34619 5.78882)
(-2.25697e-16 -3.12046 7.78125)
(-2.08783e-16 -1.28813 6.43083)
(9.4403e-17 1.6807 3.95156)
(1.20876e-16 2.00763 2.88951)
(7.04462e-16 -0.0345373 1.35101)
(5.11713e-16 -1.06013 -0.109577)
(9.4923e-16 -1.13422 -2.5868)
(1.58791e-15 -0.901582 -0.602407)
(3.69125e-15 -2.746 8.14357)
(6.66876e-16 -0.136525 5.86456)
(-1.37129e-15 3.59636 3.80665)
(-2.41128e-15 4.95884 3.06512)
(-2.63292e-15 4.54381 2.799)
(-2.57196e-15 3.48013 2.58662)
(-2.78489e-15 2.48047 2.56059)
(-2.81037e-15 1.64784 3.00013)
(-1.17317e-15 0.750322 3.37461)
(3.59939e-16 -0.784825 3.07002)
(6.29342e-16 -2.83163 2.60789)
(-3.60664e-16 -3.29911 3.94634)
(-1.3301e-15 -0.711726 3.26215)
(-1.08015e-15 1.87479 1.10246)
(-4.38825e-16 2.25911 0.759298)
(1.4039e-16 0.76441 0.0739185)
(9.43952e-16 0.428761 -1.5467)
(3.55844e-16 1.27241 -1.74643)
(6.32836e-16 1.27872 -3.52134)
(5.14143e-15 -2.16438 7.87255)
(9.87684e-16 0.819974 5.05834)
(-9.22012e-16 4.14304 3.13283)
(-2.13758e-15 5.13926 2.62967)
(-2.46948e-15 4.63563 2.45031)
(-2.30004e-15 3.56382 2.17241)
(-2.21858e-15 2.44713 1.98255)
(-3.05724e-15 1.48872 2.12669)
(-2.94639e-15 0.711522 2.51082)
(-1.98146e-15 -0.503591 2.41733)
(-8.02022e-16 -2.60143 1.14735)
(-1.59629e-16 -3.42957 0.142361)
(-1.9566e-15 -0.218392 0.416921)
(-1.19967e-15 2.5009 -1.49652)
(-7.62617e-16 2.57753 -1.35458)
(-4.17887e-16 1.15128 -1.57703)
(-4.90099e-16 0.205489 -2.44228)
(-5.67545e-16 0.333212 -2.57127)
(-5.365e-16 0.337721 -2.48468)
(5.02843e-15 -1.59 6.78158)
(1.09162e-15 1.683 4.06228)
(-8.48676e-16 4.581 2.52984)
(-1.88634e-15 5.24659 2.31168)
(-2.28038e-15 4.7229 2.13822)
(-2.14658e-15 3.67517 1.8634)
(-1.70175e-15 2.51534 1.60879)
(-2.2023e-15 1.4523 1.45249)
(-3.0151e-15 0.623365 1.54381)
(-2.79417e-15 -0.310607 1.56857)
(-1.82956e-15 -1.84855 0.592268)
(-6.72021e-16 -2.96017 -1.86061)
(-1.26211e-15 -0.430706 -2.62767)
(-8.58886e-16 2.39695 -3.09516)
(-6.12427e-16 2.45291 -2.2376)
(-5.91773e-16 1.21006 -1.9128)
(-6.0912e-16 0.483802 -2.3298)
(-5.75621e-16 0.812664 -2.32152)
(-4.75432e-16 0.868117 -2.24308)
(3.49179e-15 -0.989433 5.42222)
(1.33358e-16 2.4305 3.15551)
(-9.16931e-16 4.858 2.13211)
(-1.61054e-15 5.29711 2.09941)
(-2.13353e-15 4.80754 1.88894)
(-2.17169e-15 3.77552 1.6444)
(-1.51979e-15 2.61414 1.37446)
(-1.33036e-15 1.52996 1.10279)
(-1.79698e-15 0.675192 0.921717)
(-2.27212e-15 -0.139302 0.788507)
(-1.62901e-15 -1.16096 0.175807)
(-1.22999e-15 -2.11161 -1.86342)
(-1.1165e-15 0.0376674 -3.46592)
(-8.10492e-16 2.27664 -3.11814)
(-5.8893e-16 2.17969 -1.93052)
(-4.72516e-16 1.18084 -1.57238)
(-4.53261e-16 0.469809 -1.93831)
(-4.33091e-16 0.500813 -2.03663)
(-3.7864e-16 0.352054 -1.85198)
(1.29563e-15 -0.664646 4.42283)
(-1.16138e-15 2.96053 2.47343)
(-8.00157e-16 5.03533 1.99106)
(-1.38877e-15 5.35073 1.93839)
(-2.04249e-15 4.89385 1.7301)
(-2.22442e-15 3.85974 1.50487)
(-1.4716e-15 2.69451 1.23894)
(-9.98208e-16 1.59405 0.949719)
(-1.19764e-15 0.718599 0.658434)
(-1.79115e-15 -0.0433652 0.37568)
(-1.45235e-15 -0.751404 -0.0578684)
(-9.92792e-16 -1.46771 -1.23624)
(-9.49515e-16 0.17366 -2.71738)
(-5.4283e-16 1.87345 -2.17219)
(-3.40268e-16 1.90614 -1.48563)
(-3.07294e-16 1.20429 -1.38999)
(-3.3049e-16 0.592442 -1.63775)
(-3.54416e-16 0.618662 -1.72402)
(-3.45027e-16 0.511469 -1.62937)
(-5.68136e-16 -0.0965613 3.45099)
(-1.58613e-15 3.3929 2.2627)
(-6.04295e-16 5.11725 1.98102)
(-1.28176e-15 5.42579 1.8318)
(-1.99753e-15 5.00959 1.647)
(-2.25494e-15 4.01629 1.42794)
(-1.42654e-15 2.88678 1.18352)
(-7.72844e-16 1.81441 0.919206)
(-8.64043e-16 0.948817 0.631981)
(-1.57206e-15 0.159085 0.311716)
(-1.21087e-15 -0.472297 -0.062106)
(-4.70349e-16 -0.966868 -0.70305)
(-3.38428e-16 0.478675 -1.50957)
(-2.2357e-16 1.78106 -1.56912)
(-2.33125e-16 1.88384 -1.51961)
(-2.79437e-16 1.26711 -1.52382)
(-3.19555e-16 0.639152 -1.63665)
(-3.49148e-16 0.567899 -1.68946)
(-3.37682e-16 0.348831 -1.67815)
(5.76142e-17 13.872 23.4392)
(-2.21541e-15 19.3636 32.2578)
(-2.08181e-15 17.2096 27.5256)
(-2.32517e-15 14.0993 22.1469)
(-2.14484e-15 14.0749 21.7817)
(-2.2212e-15 14.928 22.5372)
(-2.00416e-15 14.1893 20.9674)
(-2.01619e-15 12.8693 18.83)
(-2.24812e-15 11.2208 16.1808)
(-2.59052e-15 9.44614 13.594)
(-3.07861e-15 7.85001 11.3279)
(-3.86304e-15 6.41254 9.43127)
(-4.93599e-15 5.14244 7.79465)
(-6.26066e-15 3.93969 6.43763)
(-7.6374e-15 3.10397 5.47823)
(-8.52259e-15 2.76023 5.54048)
(-7.98233e-15 3.84745 7.26747)
(-5.43308e-15 6.14205 11.5275)
(-1.43267e-15 9.43906 16.0758)
(-3.71858e-16 7.46666 13.3834)
(3.92273e-17 14.5253 24.8994)
(-2.40902e-15 17.5759 30.0921)
(-1.88681e-15 14.3269 24.5918)
(-2.38072e-15 11.5522 19.8517)
(-2.16705e-15 12.5927 21.7699)
(-2.45529e-15 13.4281 22.8149)
(-1.76859e-15 10.9549 18.73)
(-2.02534e-15 8.95441 15.631)
(-2.48966e-15 6.80202 12.1084)
(-2.99502e-15 5.15289 9.49218)
(-3.75647e-15 4.02291 7.58519)
(-4.81551e-15 3.08487 6.02236)
(-6.12084e-15 2.29547 4.67352)
(-7.43956e-15 1.78605 3.86647)
(-8.14363e-15 1.94325 4.15037)
(-7.27621e-15 3.10581 6.2504)
(-5.04235e-15 5.59463 10.2699)
(-2.29936e-15 8.48537 15.4522)
(-8.76279e-16 10.8728 18.7978)
(-1.54998e-15 8.25434 15.1453)
(1.82202e-17 14.507 25.5833)
(-1.06474e-15 17.5876 30.3973)
(-8.56061e-16 14.9437 26.0375)
(-1.06883e-15 12.3356 21.2987)
(-1.23651e-15 12.8015 22.2247)
(-1.88885e-15 13.5496 23.45)
(-1.0997e-15 10.2734 17.9182)
(-1.30184e-15 9.1148 16.2113)
(-1.46197e-15 7.88745 13.722)
(-1.66312e-15 7.04268 12.0508)
(-1.87818e-15 6.44247 10.3695)
(-2.14951e-15 5.72043 8.70717)
(-2.61191e-15 5.05968 6.96321)
(-3.1547e-15 4.42393 5.56778)
(-3.59725e-15 4.22826 4.83011)
(-3.69194e-15 4.47952 5.52692)
(-2.86944e-15 5.97401 8.07641)
(-1.7545e-15 7.84322 12.576)
(-9.99866e-16 9.98608 16.1412)
(-1.12986e-15 8.75597 16.0588)
(1.31128e-17 13.9662 24.6864)
(2.65491e-16 17.3805 29.8691)
(1.94991e-16 14.8587 25.9518)
(2.17275e-16 12.0842 20.8603)
(1.7757e-16 12.3769 21.4831)
(-1.38465e-15 13.117 22.9262)
(-1.3643e-15 9.63484 16.7835)
(-1.52504e-15 9.16333 16.3387)
(-1.55057e-15 8.4804 14.6949)
(-1.84011e-15 7.88158 13.73)
(-1.94512e-15 7.45723 12.3642)
(-2.25151e-15 6.6823 10.8735)
(-2.66822e-15 5.93758 8.93635)
(-3.09804e-15 4.98088 7.02851)
(-3.60693e-15 4.33772 5.37145)
(-3.84787e-15 3.95738 4.82224)
(-3.10079e-15 4.70953 5.92031)
(-2.13577e-15 6.02833 9.21658)
(-1.59876e-15 7.87568 12.3705)
(-1.55838e-15 7.53734 13.4676)
(-3.38758e-18 13.8241 24.6728)
(-6.10904e-17 17.4307 29.6587)
(-4.03198e-17 15.1232 26.5941)
(-4.67995e-17 12.4071 21.2321)
(-3.05614e-17 12.3314 21.2334)
(2.73921e-16 13.1413 22.9458)
(2.51553e-16 9.89736 16.8167)
(2.81714e-16 9.39156 16.4887)
(3.11418e-16 9.03431 15.2889)
(3.46738e-16 8.35981 14.6209)
(3.68499e-16 8.06845 13.4988)
(4.0571e-16 7.22163 12.3889)
(4.71665e-16 6.61401 10.7607)
(5.5097e-16 5.53484 8.99462)
(6.50985e-16 4.6771 6.91926)
(7.82152e-16 3.72232 5.43985)
(8.10506e-16 3.80144 5.15687)
(6.58454e-16 4.45625 7.1717)
(2.62817e-16 6.36289 10.0734)
(1.94472e-16 6.53523 11.7314)
(8.72718e-19 13.658 24.5406)
(1.37573e-17 17.435 29.3897)
(8.58364e-18 15.2578 27.0449)
(9.97573e-18 12.6562 21.4266)
(6.49549e-18 12.323 21.1319)
(-5.36112e-17 13.1076 22.8915)
(-4.92558e-17 10.3399 17.2736)
(-5.55219e-17 9.31019 16.2517)
(-6.28074e-17 9.14231 15.161)
(-6.90529e-17 8.28762 14.4788)
(-7.59765e-17 8.02389 13.2899)
(-8.49741e-17 7.02633 12.2602)
(-1.00342e-16 6.5416 10.8199)
(-1.1914e-16 5.40889 9.38687)
(-1.45354e-16 4.60761 7.35163)
(-1.83604e-16 3.31464 5.58062)
(-2.24643e-16 3.17763 4.59076)
(-2.15436e-16 3.4693 6.05611)
(-8.77984e-17 5.84743 9.2282)
(-6.39155e-17 5.96264 10.8797)
(-2.27486e-19 13.5714 24.4818)
(-3.01118e-18 17.4884 29.2832)
(-1.84574e-18 15.3618 27.5266)
(-2.15951e-18 12.9214 21.6093)
(-1.47315e-18 12.3819 21.3078)
(1.13778e-17 13.0043 22.8275)
(1.02969e-17 10.768 17.9043)
(1.17196e-17 9.31548 16.3704)
(1.34863e-17 9.2322 15.211)
(1.48634e-17 8.32254 14.5159)
(1.67606e-17 8.05866 13.2884)
(1.93804e-17 7.0687 12.2261)
(2.347e-17 6.58662 10.8177)
(2.82932e-17 5.53343 9.55414)
(3.40996e-17 4.89918 7.82407)
(4.18907e-17 3.65528 6.23989)
(5.36126e-17 3.45036 4.94303)
(5.9299e-17 3.43191 5.88278)
(3.28976e-17 5.75326 8.76672)
(1.31242e-17 5.32633 9.79096)
(5.37231e-20 13.5462 24.388)
(6.48562e-19 17.6742 29.3702)
(4.00552e-19 15.5229 27.9837)
(4.68502e-19 13.32 21.8744)
(3.57108e-19 12.5093 21.3922)
(-2.46348e-18 12.9984 22.7525)
(-2.31783e-18 11.2509 18.3731)
(-2.61872e-18 9.56153 16.6153)
(-3.05709e-18 9.46546 15.3186)
(-3.38302e-18 8.62456 14.5683)
(-3.84405e-18 8.27684 13.3799)
(-4.55115e-18 7.42691 12.2423)
(-5.56665e-18 6.8057 10.8605)
(-6.72219e-18 5.89864 9.56467)
(-7.76154e-18 5.22204 8.06449)
(-8.98178e-18 4.20656 6.67642)
(-1.15034e-17 3.78344 5.31975)
(-1.50932e-17 3.54091 5.59503)
(-1.16533e-17 5.10921 7.52396)
(-3.79797e-18 4.31698 7.80539)
(-1.16372e-20 13.7614 24.6586)
(-1.39004e-19 18.0705 29.7877)
(-8.88224e-20 15.6731 28.4443)
(-1.004e-19 13.8591 22.3919)
(-8.75106e-20 12.8249 21.7575)
(5.25309e-19 13.1125 22.8899)
(5.36302e-19 11.8037 18.933)
(6.015e-19 10.1269 17.2699)
(7.0766e-19 9.98594 15.9108)
(7.90699e-19 9.22837 14.9729)
(8.93576e-19 8.72845 13.735)
(1.06361e-18 7.94951 12.4162)
(1.29815e-18 7.1808 10.9693)
(1.53563e-18 6.32768 9.54351)
(1.71058e-18 5.5496 8.10594)
(2.03802e-18 4.67168 6.77371)
(2.54706e-18 4.02664 5.44599)
(3.32132e-18 3.5487 5.07442)
(3.72532e-18 4.18959 5.89561)
(1.90194e-18 3.0527 5.21527)
(2.35571e-21 14.2427 25.3843)
(3.01239e-20 18.5065 30.3429)
(2.01148e-20 15.7357 28.8143)
(2.27919e-20 14.5146 23.2389)
(2.29865e-20 13.2434 22.3587)
(-1.09221e-19 13.2951 23.1129)
(-1.30144e-19 12.2927 19.7103)
(-1.47607e-19 10.8957 18.2285)
(-1.67665e-19 10.593 16.8903)
(-1.86462e-19 9.89651 15.6756)
(-2.08224e-19 9.20765 14.3281)
(-2.45243e-19 8.43168 12.7949)
(-2.91488e-19 7.53768 11.1904)
(-3.33347e-19 6.63506 9.52709)
(-3.85523e-19 5.71907 7.91012)
(-4.56468e-19 4.78191 6.34765)
(-4.79382e-19 3.85029 4.78693)
(-5.24018e-19 3.13271 3.76946)
(-7.36417e-19 2.83761 3.53791)
(-1.08199e-18 1.34179 1.43173)
(-4.56332e-22 14.8108 26.3263)
(-6.6111e-21 18.7505 30.8391)
(-4.69589e-21 15.765 28.8534)
(-3.95248e-21 15.1553 24.475)
(-3.62608e-21 13.6249 23.2091)
(1.97429e-20 13.4961 23.0832)
(2.84943e-20 12.623 20.8834)
(3.55707e-20 11.7581 19.3426)
(4.07045e-20 10.9309 18.0263)
(4.6105e-20 10.4018 16.5551)
(5.24528e-20 9.49472 15.2121)
(6.06953e-20 8.78549 13.5762)
(6.78522e-20 7.81582 11.9665)
(7.30352e-20 6.91455 10.1633)
(7.42662e-20 5.79378 8.2615)
(7.08123e-20 4.62203 6.34848)
(8.68303e-20 3.40465 4.49722)
(1.51185e-19 2.31685 2.87197)
(2.53366e-19 1.03517 1.32085)
(5.93159e-20 -1.33464 -2.52825)
(9.22946e-23 15.1415 26.9892)
(1.51114e-21 18.5792 30.9802)
(1.10396e-21 15.7174 28.0244)
(1.70158e-21 15.1003 25.3332)
(2.35314e-21 13.5744 23.9628)
(-5.92475e-21 13.391 22.2173)
(-8.42221e-21 12.0113 21.4467)
(-1.04666e-20 11.7066 19.5824)
(-1.11119e-20 10.2741 18.2854)
(-1.08089e-20 9.85685 16.7243)
(-9.53752e-21 8.64536 15.3951)
(-9.16006e-21 7.91951 13.6992)
(-1.34981e-20 6.74242 12.1297)
(-3.33531e-20 5.64392 10.0395)
(-8.48307e-20 3.78848 7.18364)
(-1.52457e-19 2.00136 4.45813)
(-1.70575e-19 0.614865 2.43437)
(1.62554e-21 -1.12135 -0.575405)
(3.09293e-19 -2.19468 -2.92456)
(1.48102e-19 -0.633319 -0.177805)
(-1.75889e-23 15.387 27.7325)
(-3.50541e-22 18.772 30.7068)
(-2.59851e-22 15.5215 28.146)
(-4.18661e-22 15.5513 25.5407)
(-5.77552e-22 13.6195 24.1063)
(1.34082e-21 13.2301 21.8975)
(2.0842e-21 11.8249 20.6688)
(2.28992e-21 11.3281 18.9347)
(2.74521e-21 10.0843 17.5409)
(3.69843e-21 9.53353 16.025)
(5.47011e-21 8.4233 14.5419)
(7.12826e-21 7.60324 12.8703)
(4.79772e-21 6.50253 11.2438)
(-1.53999e-20 5.2514 9.02219)
(-8.87172e-20 3.10438 5.44777)
(-2.19616e-19 1.46007 2.50234)
(-3.22231e-19 1.82285 3.11516)
(-3.90163e-19 2.15389 4.02343)
(-5.03411e-19 2.78232 4.65621)
(-9.04124e-19 2.59645 4.12968)
(2.74273e-24 16.0465 29.4447)
(8.17476e-23 18.9669 30.4059)
(5.77988e-23 15.5082 28.4609)
(7.78791e-23 15.9902 25.8319)
(1.35942e-22 13.9971 24.7471)
(-2.02159e-22 13.6708 22.452)
(-3.98167e-22 12.2941 20.9228)
(-2.26684e-22 11.8766 19.3481)
(-1.23292e-22 11.1001 18.2594)
(-8.05535e-22 10.4745 16.7318)
(-1.77794e-21 9.60398 15.1221)
(-2.24003e-21 8.70534 13.3411)
(-2.17285e-21 7.66817 11.488)
(-7.28545e-22 6.55533 9.57016)
(-6.66604e-21 5.32716 7.46358)
(-6.02028e-20 3.91694 4.6324)
(-1.64895e-19 2.41051 1.83032)
(-2.40164e-19 1.61087 0.504472)
(-2.85221e-19 0.695384 -0.268598)
(-3.43713e-19 -0.13868 -1.57881)
(-7.0556e-26 16.4429 31.0524)
(-1.89896e-23 18.6635 29.545)
(-2.4041e-23 15.1341 28.6083)
(-4.67988e-23 16.0475 25.9837)
(-1.0024e-23 13.6497 25.0998)
(3.31442e-22 13.816 23.1475)
(8.53157e-22 12.396 22.068)
(1.11669e-21 12.0342 20.5587)
(5.56113e-22 11.1112 19.3151)
(-8.38858e-22 10.4368 17.8882)
(-2.13137e-21 9.46688 16.2412)
(-1.76045e-21 8.28777 14.0999)
(2.11023e-21 6.78771 11.5405)
(7.26488e-21 5.30195 8.9807)
(1.18958e-20 4.19108 7.06339)
(1.99696e-20 3.22977 5.35404)
(-3.06919e-20 2.01669 3.24539)
(-8.54321e-20 0.731483 0.793198)
(-1.59686e-19 -1.34622 -1.9024)
(-2.29191e-19 -1.96971 -4.88463)
(3.09498e-25 16.0641 31.1457)
(3.76033e-24 18.1986 28.544)
(-8.0754e-24 14.6683 28.1322)
(-1.70418e-23 15.5885 25.4717)
(5.18129e-23 13.2198 24.5598)
(2.9255e-22 13.1297 22.5634)
(6.88364e-22 11.7072 21.3888)
(8.60248e-22 11.1282 19.8954)
(3.2711e-22 10.1374 18.6623)
(-6.70915e-22 9.30834 17.2062)
(-8.73594e-22 8.19523 15.5031)
(1.18143e-21 6.93701 13.3741)
(7.04019e-21 5.61311 11.0925)
(1.62356e-20 4.50116 8.99687)
(1.47176e-20 3.5188 7.0316)
(-2.81968e-20 2.39222 4.84136)
(-1.23497e-19 1.17744 2.51652)
(-2.11033e-19 0.345992 0.621766)
(-2.00162e-19 -2.61073 -3.74949)
(-1.86039e-19 -2.38635 -4.55581)
(2.44704e-25 15.2846 30.6212)
(-2.58686e-24 18.1653 27.935)
(-1.25761e-23 14.1042 27.5631)
(-1.87547e-23 15.2213 24.853)
(4.70975e-23 12.8965 23.925)
(2.77841e-22 12.7398 22.0116)
(6.44112e-22 11.4744 20.7583)
(9.34089e-22 10.8441 19.2787)
(9.14148e-22 9.97007 17.9945)
(6.56073e-22 9.23394 16.6581)
(4.93868e-22 8.43684 15.2944)
(5.72976e-22 7.67015 13.849)
(8.35062e-22 6.96038 12.3976)
(1.52808e-21 6.33107 10.9786)
(3.63741e-21 5.64903 9.43823)
(7.17057e-21 4.67021 7.40301)
(-1.5281e-21 3.03892 4.4306)
(-1.30896e-19 2.512 3.48443)
(-2.35963e-19 -1.79588 -2.75446)
(-1.54731e-19 -1.3028 -2.17629)
(1.46809e-25 14.2027 30.5138)
(-1.45519e-24 18.0531 27.3896)
(-9.15394e-24 13.339 27.3456)
(-9.21253e-24 14.3822 24.88)
(4.99019e-23 12.2473 23.9238)
(2.30499e-22 11.8487 22.2545)
(5.22554e-22 10.7377 21.0091)
(7.93429e-22 10.0482 19.6518)
(8.60101e-22 9.26957 18.4248)
(6.518e-22 8.61375 17.2128)
(2.55848e-22 7.97568 16.0368)
(-2.1116e-22 7.37364 14.8313)
(-6.46838e-22 6.75018 13.5339)
(-5.90495e-22 6.04219 12.0354)
(8.10309e-22 5.13694 10.1535)
(5.85438e-23 3.7299 7.42887)
(-3.38533e-20 1.00694 2.50957)
(-1.80675e-19 -3.01654 -5.30582)
(-2.5921e-19 -2.41555 -3.9543)
(-2.00191e-19 -1.35328 -2.6796)
(8.11077e-27 11.2862 28.5587)
(-1.15547e-24 17.019 24.9923)
(-4.42873e-24 12.0182 25.408)
(-2.48547e-24 12.6993 23.6744)
(3.1292e-23 10.9564 22.9224)
(1.30291e-22 10.308 21.8188)
(2.89718e-22 9.3239 20.8928)
(4.27644e-22 8.56605 19.9352)
(4.13897e-22 7.81476 19.024)
(1.91207e-22 7.14702 18.1248)
(-1.2977e-22 6.51898 17.2311)
(-3.35578e-22 5.92429 16.3083)
(-2.73779e-22 5.33756 15.3193)
(3.53788e-24 4.73273 14.1953)
(-2.87901e-22 4.04437 12.788)
(-4.2515e-21 3.12577 10.8499)
(-1.90086e-20 1.90542 8.03274)
(-5.25646e-20 0.584745 4.11665)
(-9.20562e-20 -0.564835 0.257611)
(-8.26347e-20 -1.17001 -2.24856)
(-3.68486e-26 2.65706 17.0512)
(-3.18602e-25 8.06361 13.686)
(-3.38623e-25 5.17719 14.5573)
(1.68787e-24 4.99796 14.1612)
(7.95887e-24 4.07261 14.1267)
(1.77364e-23 3.51059 13.9564)
(2.42426e-23 2.9372 13.8029)
(1.76887e-23 2.46824 13.6139)
(-5.21806e-24 2.05849 13.401)
(-3.42412e-23 1.71921 13.1583)
(-5.09881e-23 1.44779 12.8907)
(-4.56495e-23 1.25006 12.6032)
(-2.9359e-23 1.12939 12.3019)
(-4.2992e-24 1.09837 11.9877)
(1.36269e-22 1.17721 11.655)
(6.71082e-22 1.33399 11.3101)
(1.79241e-21 1.59279 10.8756)
(2.97158e-21 2.2543 9.98559)
(2.84348e-21 2.49478 8.57442)
(9.09041e-22 -0.216617 6.4626)
(-1.5263e-26 -2.67158 17.095)
(-2.63628e-26 -8.08207 13.7204)
(9.85575e-26 -5.19026 14.5875)
(2.82779e-25 -5.01336 14.1858)
(1.18233e-25 -4.09097 14.1465)
(-6.7729e-25 -3.53574 13.9717)
(-9.30291e-25 -2.97292 13.8169)
(3.73378e-24 -2.52021 13.6331)
(2.07371e-23 -2.1321 13.4337)
(5.53734e-23 -1.8165 13.2099)
(1.01941e-22 -1.56387 12.9584)
(1.41006e-22 -1.37289 12.6759)
(1.52107e-22 -1.24304 12.3603)
(1.33186e-22 -1.18368 12.0042)
(1.00366e-22 -1.2093 11.5966)
(5.87943e-23 -1.28757 11.1514)
(-1.8844e-23 -1.4275 10.6302)
(-1.35489e-22 -1.90171 9.71309)
(-1.24083e-22 -2.06051 8.24426)
(1.10586e-22 0.309012 6.05599)
(-2.46551e-26 -11.2138 28.5029)
(-3.93077e-26 -17.0457 24.8544)
(-7.07168e-26 -12.0013 25.2701)
(4.46671e-25 -12.7394 23.4847)
(3.79791e-24 -11.0002 22.7043)
(1.34451e-23 -10.3803 21.5615)
(3.16462e-23 -9.41582 20.6046)
(5.90204e-23 -8.68599 19.6205)
(9.03079e-23 -7.96786 18.6956)
(1.0164e-22 -7.35051 17.805)
(5.44875e-23 -6.80245 16.9542)
(-5.4874e-23 -6.32719 16.0998)
(-1.60497e-22 -5.89683 15.1765)
(-2.1445e-22 -5.4902 14.1307)
(-3.14041e-22 -5.09177 12.951)
(-5.22742e-22 -4.62571 11.5872)
(-6.89124e-24 -3.80939 9.61536)
(4.26486e-21 -2.0155 5.7508)
(1.48452e-20 1.17856 -0.760193)
(1.91464e-20 2.39331 -4.85523)
(-9.43264e-27 -14.051 30.0956)
(-4.95627e-25 -17.8067 27.0103)
(-1.68223e-24 -13.1382 26.9278)
(-1.65833e-24 -14.1204 24.4656)
(9.62737e-24 -11.9932 23.4945)
(4.36309e-23 -11.5484 21.8322)
(9.7508e-23 -10.4147 20.5874)
(1.48281e-22 -9.67588 19.2408)
(1.50051e-22 -8.8362 18.0056)
(5.91158e-23 -8.06813 16.7211)
(-1.07139e-22 -7.24413 15.3193)
(-2.55913e-22 -6.39076 13.6868)
(-3.54574e-22 -5.57456 11.8617)
(-5.63841e-22 -4.96474 10.095)
(-1.0895e-21 -4.68352 8.74769)
(-1.92025e-21 -4.64575 7.7995)
(-2.03712e-21 -4.35835 6.4632)