/*--------------------------------*- C++ -*----------------------------------*\
| =========                 |                                                 |
| \\      /  F ield         | OpenFOAM: The Open Source CFD Toolbox           |
|  \\    /   O peration     | Version:  4.1                                   |
|   \\  /    A nd           | Web:      www.OpenFOAM.org                      |
|    \\/     M anipulation  |                                                 |
\*---------------------------------------------------------------------------*/
FoamFile
{
    version     2.0;
    format      ascii;
    class       volScalarField;
    location    "30";
    object      p;
}
// * * * * * * * * * * * * * * * * * * * * * * * * * * * * * * * * * * * * * //

dimensions      [0 2 -2 0 0 0 0];

internalField   nonuniform List<scalar> 
1280
(
0.186225
-11.3434
1.56383
-28.4503
-35.4029
-52.9736
-101.43
-126.494
-146.279
-192.769
-313.179
-294.491
-406.958
-647.752
-570.041
-826.268
-1200.1
-1495.45
-1034.61
-3496.9
-1133.83
803.421
1381.15
1886.47
2039.15
2888.11
-888.532
45.8066
166.562
305.241
332.55
348.503
408.737
535.411
790.675
1153.07
1749.32
2246.03
2946.04
2722.57
-2765.37
501.338
1148.18
1269.04
3604.51
2992.85
2947.72
2960.75
3030.3
3268.42
3248.11
3059.06
3399.65
3450.77
3409.12
3789.83
2740.66
2617.51
2276.82
678.986
3383.63
3408.98
2831.69
2487.89
2242.24
2154.26
2149.6
2204.77
2294.02
2376.76
2422.71
2518.47
2486.51
-215.287
5322.22
4253.03
3901.52
3068.13
2173.52
281.412
-1982.8
21.325
-213.841
39.9273
166.982
377.552
390.329
451.321
504.884
516.127
519.592
517.25
506.711
468.283
447.763
405.11
306.953
211.687
76.9075
115.136
-31.8357
7.57019
-12.9516
23.4529
70.6341
131.034
194.83
59.5177
107.316
118.804
13.6881
-324.95
-283.516
-486.653
-226.016
-5.57383
111.608
88.4386
95.3813
-45.1103
21.5211
26.4904
94.5796
166.289
256.55
359.036
214.047
188.369
191.258
41.003
-513.338
-273.41
-454.31
-40.0789
183.402
305.303
267.283
258.533
-33.3723
32.2417
40.7203
109.778
194.051
289.37
393.024
309.429
296.863
321.327
108.253
-495.741
-272.639
-516.612
-31.3874
295.009
472.738
387.427
376.118
-30.562
39.9929
53.5017
129.846
234.573
362.926
429.617
381.668
332.58
318.005
43.2784
-398.984
-493.574
-460.346
-66.5736
424.23
677.232
530.038
491.082
-29.7281
46.1286
65.8668
149.167
271.953
438.83
462.618
443.281
369.961
358.566
170.783
-285.889
-499.233
-353.788
-152.555
539.09
821.921
590.964
531.79
-30.5666
48.8961
72.8223
158.681
296.331
509.703
502.04
503.072
294.537
122.075
513.069
130.122
-333.864
-350.111
-157.124
654.207
1077.01
787.204
618.362
-33.4693
47.5889
75.0485
159.978
307.36
564.066
546.318
534.314
138.821
-122.19
251.287
293.318
-171.149
-312.133
-133.899
682.84
1047.44
657.581
445.738
-34.9519
43.2068
72.9999
152.555
303.659
588.666
594.794
597.16
-69.6669
-284.386
-272.418
31.3792
108.158
-58.5921
-45.0153
902.171
1602.85
1127.33
1012.14
-38.6568
36.7404
66.1118
134.317
272.577
486.756
486.779
453.155
-543.891
-626.426
-449.958
69.3177
430.792
462.661
298.627
756.293
1238.23
1849.19
5603.81
-55.4696
25.8725
54.9432
108.209
226.735
363.959
359.395
223.978
-936.412
-908.428
-626.747
111.126
733.405
956.701
810.187
858.361
919.67
1162.36
4148.25
-87.6764
6.6499
37.857
76.441
174.358
247.658
218.851
1.089
-1208.64
-1090.81
-653.941
206.813
997.08
1342.89
1144.72
794.235
607.096
1128.75
4644.6
-120.62
-20.9192
15.8301
42.1888
119.907
141.586
75.0498
-187.614
-1434.29
-1269.24
-688.822
287.717
1157.65
1636.36
1457.41
804.409
56.237
169.06
4461.78
-142.143
-58.0465
-9.89704
5.93736
66.8445
53.456
-45.3256
-312.22
-1538.09
-1358.69
-656.543
331.564
1172.83
1697.3
1512.77
530.156
-864.471
-960.477
650.157
-140.24
-87.0677
-27.8523
-26.0874
19.9859
-16.4376
-139.223
-380.921
-1508.12
-1382.85
-573.208
332.137
1084.4
1592.31
1267.23
149.8
-1075.24
-1400.3
78.3569
-134.58
-116.26
-50.5119
-59.7219
-22.4703
-66.3367
-192.342
-380.558
-1317.88
-1313.69
-441.902
312.183
953.11
1387.75
984.158
35.7369
-884.474
-1089.87
43.4344
-111.515
-116.053
-56.7453
-79.5277
-54.6564
-105.875
-231.693
-363.91
-1028.36
-1162.04
-319.962
256.128
835.762
1190.81
728.14
40.8473
-657.536
-805.852
-57.526
-124.762
-140.265
-89.2911
-109.843
-86.576
-124.175
-208.83
-247.164
-630.777
-918.638
-215.87
200.592
693.885
976.255
506.528
16.9061
-359.919
-474.799
-33.0599
-93.8129
-79.2238
-70.0291
-102.016
-100.025
-157.183
-251.945
-237.244
-292.703
-651.572
-119.574
160.04
539.425
730.018
365.541
34.4651
-171.525
-262.877
-46.5829
-131.278
-112.037
-111.404
-125.428
-118.459
-134.013
-106.233
66.3123
127.382
-511.639
-62.7096
115.872
410.514
512.19
260.606
36.6818
-58.9975
-114.036
-21.0811
-14.7606
79.8758
17.9855
-22.065
-56.3881
-122.122
-238.353
-327.334
-49.9196
-497.967
-103.75
-17.6132
131.684
201.922
104.71
9.7601
-14.9901
-42.1699
-21.7579
11441.7
11335.5
11173.2
10945.1
10673.2
10388.3
10087.9
9755.73
9412.19
9116
8859.01
8646.76
8464.41
8294.74
8129.97
7976.09
7869.42
7750.26
7743.44
7563.48
7851.79
7976.26
7992.77
8069.03
8083.87
8118.34
8123.41
8127.82
8126.61
8130.29
8144.11
8162.51
8170.4
8148.04
8094.92
8020.06
7989.37
7964.38
8013.62
7959.16
8089.38
8232.99
8271.77
8388.15
8434.24
8503.74
8543
8579.46
8599.34
8608.67
8609.93
8613.01
8633.47
8676.87
8748.81
8835.51
8934.54
9025.85
9098.7
9144.85
5551.34
5765.39
5828.09
5981.56
6078.92
6196.66
6302.97
6408.53
6512.22
6613.12
6712.51
6810.55
6908.3
7009.81
7116.37
7237.29
7359.04
7500.84
7601.17
7741.03
4333.37
4559.24
4635.08
4788.09
4905.76
5033
5159.69
5281.19
5402.44
5518.85
5631.81
5741.4
5846.51
5950.46
6049.16
6152.5
6245.92
6359.45
6435.43
6556.92
1653.88
1883.28
1988.67
2129.7
2279.53
2423.47
2592.43
2755.84
2936.54
3121.5
3317.13
3521.06
3730.43
3946.34
4157.92
4372.76
4565.9
4775.7
4925.36
5187.09
-622.436
-705.71
-700.691
-795.729
-839.988
-941.085
-1013.31
-1120.41
-1199
-1269.37
-1297.18
-1282.07
-1211.45
-1075.26
-878.269
-613.726
-331.205
-15.3063
206.795
593.531
937.275
507.463
432.012
161.171
-39.8851
-327.025
-599.938
-921.866
-1227.21
-1546.99
-1851.86
-2152.58
-2432.33
-2679.5
-2872.24
-2997.46
-3038.6
-2986.93
-2973.63
-2764.08
5431.25
4957.69
4815.94
4496.73
4270.99
3953.92
3679.26
3364.4
3096.69
2837.01
2632.44
2463.94
2352.02
2287.81
2274.72
2285.11
2286.25
2305.33
2238.19
1912.07
9478.66
9394.77
9396.17
9336.11
9361.03
9294.23
9291.19
9197.6
9118.01
8960.95
8766.38
8487.66
8128.2
7684.93
7221.99
6822.93
6541.67
6411.61
6421.03
6126.04
7612.88
7737.55
7804.15
7858.69
7991.34
8036.43
8174.99
8243.4
8354.78
8428.66
8511.28
8578.19
8633.2
8649.65
8606.45
8488.95
8360.74
8254.55
8253.35
8207.61
6935.66
7063.37
7165.1
7181.66
7340
7348.34
7480.61
7516.91
7604.67
7649.53
7698.44
7730.07
7761.9
7805.57
7874.02
7965.88
8063.98
8164.82
8235.17
8315.29
5025.86
5155.87
5323.99
5324.04
5547.99
5557.21
5740.18
5804.8
5940.62
6039.98
6153.97
6261.64
6367.63
6473.05
6575.22
6683.91
6786.88
6908.32
6993.49
7116.8
3247.77
3309.67
3522.68
3472.63
3735.24
3711.13
3924.37
3979.14
4141.36
4254.19
4399.48
4541.43
4691.9
4850.51
5010.81
5182.52
5342.76
5524.53
5647.49
5861.66
1232.84
1123.25
1309.75
1132.41
1329.59
1176.05
1300.79
1222.65
1274.45
1251.37
1268.35
1271.39
1287.69
1323.22
1386.98
1512.21
1665.18
1890.6
2058.4
2332.9
1699.62
1370.83
1447.7
1107.85
1169.26
886.211
860.608
655.838
559.464
394.619
262.331
110.373
-29.5758
-154.711
-250.257
-310.944
-361.6
-353.609
-358.178
-213.165
5430.96
4995.65
5071.57
4506.97
4490.43
4055.42
3892.82
3576.15
3358.44
3105.22
2890.84
2681.73
2502.21
2351.52
2238.4
2144.11
2054.16
1931.53
1740.29
1621.43
7120.85
6682.22
7261.78
6689.07
6901.88
6581.65
6520.46
6298.17
6137.27
5936.13
5748.86
5559
5385.6
5238.96
5133.11
5056.71
4995.86
4960.4
4922.28
4841.36
5463.1
3841.94
4619.23
3703.03
3665.12
3169.26
2897.27
2547.37
2272.09
2016.47
1816.01
1667.49
1586.93
1583.48
1672.64
1859.71
2111.64
2447.54
2881.61
3141.62
57835.4
51358.9
47919.8
43614
40023.9
36477.1
33215.5
30117.9
27206.7
24449.8
21836.5
19350.3
16976.9
14701
12527.3
10430.8
8334.29
6520.5
4763.23
1864.06
65021.5
58542.7
55102.4
50795.3
47204.2
43656.5
40394.2
37296
34384.3
31627
29013.3
26526.6
24152.4
21875.4
19700.1
17601.5
15502.5
13686.4
11927.1
9033.19
12593.7
10974.7
11752.2
10837
10798.9
10303.3
10030.8
9680.53
9404.41
9147.77
8945.9
8795.66
8713.04
8706.85
8791.78
8973.3
9218.6
9548.2
9987.93
10254.8
14310
13879.3
14463.9
13897.2
14115.8
13801.6
13746.7
13531
13377.4
13184.1
13005.5
12825.2
12662.7
12527.5
12431.3
12363.7
12311.6
12280.3
12252.2
12187.7
12795.8
12366.2
12445.1
11886.3
11877.8
11451
11298.4
10992.4
10785.6
10544.2
10342
10145.7
9978.19
9837.12
9726.78
9627.61
9529.77
9398.32
9187.03
9020.82
8983.95
8636.46
8701.03
8345.35
8390.07
8090.55
8046.13
7821.33
7702.31
7511.83
7350.98
7167.08
6993.14
6832.71
6702.3
6607.16
6532.4
6517.21
6488.67
6630.15
8162.52
8037.57
8211.79
8024.71
8202.9
8032.63
8137.46
8038.31
8070.59
8026.29
8025.21
8011.03
8014.54
8043.04
8108.65
8243.63
8407.37
8635.86
8797.64
9083.2
10331.9
10436.4
10638.2
10517.1
10766.7
10695.1
10889.6
10918.4
11067.4
11169.9
11306.6
11443.8
11592.4
11750.7
11911.4
12083.8
12243.6
12425.4
12551.1
12769.3
12462.9
12596.7
12790.5
12665.9
12804.5
12760.4
12846.6
12868.8
12954.5
13029.5
13125.6
13218.5
13315.2
13411.3
13503.5
13601.5
13692
13796.5
13867.6
13967.7
13996.5
14141.5
14177.6
14155
14160.4
14151.7
14167.4
14186.3
14225.8
14273.3
14331.3
14381.5
14414.7
14448.2
14500.9
14568.5
14633
14701.9
14748.1
14805.3
14326.5
14388.7
14368.8
14382.5
14389.9
14415.2
14447.7
14493.4
14549.1
14608.8
14665.7
14729.2
14788.9
14836.5
14851.9
14818.2
14778.2
14764.9
14791.2
14796.5
15283.9
15226.6
15199.8
15216.7
15259.2
15319
15380.6
15444.6
15464.1
15432.5
15375.2
15270.3
15121.8
14926.5
14712.3
14535
14425.7
14388.1
14417.3
14278.8
13700
13433.6
13369.4
13278.4
13203.8
13096.8
12947.9
12739.7
12484.6
12248.2
12045.7
11884.1
11808.1
11785.1
11814
11875.8
11952.8
12022.8
11995.4
11812.4
10497
10296.8
10275
10179.4
10084.8
9954.55
9797.14
9655.85
9561.37
9501.88
9444.45
9384.64
9304.76
9199.15
9074.43
8953.46
8872.29
8852.04
8838.28
9023.68
10720.5
10804
10859.7
10880.5
10883.4
10872.7
10853.4
10842.2
10855.4
10858.7
10822.3
10785.4
10751.6
10744.8
10772.7
10875.6
11046.3
11326.2
11554.4
11895.9
12882.2
13108.8
13199.9
13324
13430.4
13549.1
13683.2
13833.3
13992.3
14154.7
14319.9
14495.7
14677.2
14870.7
15067.5
15279
15475.8
15689.8
15824.4
16041.9
15210.5
15386.6
15442.9
15542.5
15620
15709.9
15806.2
15910
16013.8
16115.8
16216.6
16315.6
16409
16498.4
16581.3
16669.2
16750.8
16848
16906.3
16986.2
16059.9
16247.4
16316.1
16453.5
16563
16681.5
16793.8
16897.4
16973.5
17016.4
17021.5
16986.9
16923.2
16856.9
16834.5
16876.5
16964.6
17055.7
17118.1
17138.1
18553.3
18573.8
18523.6
18505.3
18439.1
18371.5
18284.4
18182
18052
17904.6
17750.9
17606.4
17484.3
17395
17334.7
17264.4
17172
17012.8
16951.4
16749
16205.9
16101.5
16051.6
15927.1
15816.9
15674.9
15525
15348.2
15152.3
14929.9
14678.3
14381.9
14030.3
13629.9
13217.4
12856
12586.9
12398.2
12358.3
12053
17968
17696
17487.1
17058
16613.1
16114.7
15580.8
14986.9
14357.6
13765
13204.3
12687.9
12229.1
11848.7
11555.5
11324.3
11097.3
10867.2
10688.8
10395.6
)
;

boundaryField
{
    outletWall
    {
        type            fixedValue;
        value           uniform 0;
    }
    fineWalls
    {
        type            zeroGradient;
    }
    fineFrontAndBack
    {
        type            zeroGradient;
    }
    fineplugLeft
    {
        type            cyclicAMI;
        value           nonuniform List<scalar> 
20
(
6595.3
6783.96
6649.41
6645.4
6611.48
6662.11
6742.87
6853.28
6987.11
7153.72
7353.84
7563.06
7813.75
8839.83
8888.25
8946.36
9133.37
9214.82
9229.05
8926.59
)
;
    }
    fineplugRight
    {
        type            cyclicAMI;
        value           nonuniform List<scalar> 
20
(
8993.2
9232.86
9260.07
9375.42
9507.91
9675.24
9908.89
10224.2
10609.1
11038.8
11496.5
11989.8
12486.8
13784.7
13956.2
14141.1
14426.7
14603.3
14591.5
14430.7
)
;
    }
    inletOutletLeft
    {
        type            cyclicAMI;
        value           nonuniform List<scalar> 
20
(
6595.3
6783.96
6649.41
6645.4
6611.48
6662.11
6742.87
6853.28
6987.11
7153.72
7353.84
7563.06
7813.75
8839.83
8888.25
8946.36
9133.37
9214.82
9229.05
8926.59
)
;
    }
    inletLeft
    {
        type            zeroGradient;
    }
    inletWallsLeft
    {
        type            zeroGradient;
    }
    inletFacesLeft
    {
        type            zeroGradient;
    }
    inletOutletRight
    {
        type            cyclicAMI;
        value           nonuniform List<scalar> 
20
(
8993.2
9232.86
9260.07
9375.42
9507.91
9675.24
9908.89
10224.2
10609.1
11038.8
11496.5
11989.8
12486.8
13784.7
13956.2
14141.1
14426.7
14603.3
14591.5
14430.7
)
;
    }
    inletRight
    {
        type            zeroGradient;
    }
    inletWallsRight
    {
        type            zeroGradient;
    }
    inletFacesRight
    {
        type            zeroGradient;
    }
}


// ************************************************************************* //
