/*--------------------------------*- C++ -*----------------------------------*\
| =========                 |                                                 |
| \\      /  F ield         | OpenFOAM: The Open Source CFD Toolbox           |
|  \\    /   O peration     | Version:  4.1                                   |
|   \\  /    A nd           | Web:      www.OpenFOAM.org                      |
|    \\/     M anipulation  |                                                 |
\*---------------------------------------------------------------------------*/
FoamFile
{
    version     2.0;
    format      ascii;
    class       volScalarField;
    location    "4";
    object      epsilon;
}
// * * * * * * * * * * * * * * * * * * * * * * * * * * * * * * * * * * * * * //

dimensions      [0 2 -3 0 0 0 0];

internalField   nonuniform List<scalar> 
1280
(
0.000114211
6.58718e-05
0.000134806
0.000141541
8.41436e-05
0.000170763
0.000182607
0.000195047
0.00011918
0.000269983
0.000317125
0.000230024
0.000388555
0.000408111
0.000313631
0.000549777
0.000618971
0.00065347
0.00112809
0.00113197
0.054741
0.218116
0.200476
0.16558
0.14045
0.119994
0.0626625
0.0452399
0.0401346
0.0355981
0.031161
0.0273694
0.0240781
0.021378
0.0190082
0.0170967
0.0154381
0.014004
0.0128942
0.012902
0.000379458
0.000667113
0.000668585
0.000683073
0.000465336
0.00139313
0.00166559
0.00192623
0.00134691
0.00215778
0.00217847
0.0013459
0.00179187
0.00152511
0.00126731
0.000444695
0.0006479
0.000634255
0.000634401
0.000361687
0.0128434
0.0128955
0.01431
0.0152796
0.0172538
0.0188049
0.021395
0.023856
0.0272681
0.0310574
0.0359071
0.0410851
0.0487971
0.0556196
0.120567
0.143643
0.167096
0.202493
0.216208
0.0543212
0.000953745
0.00094364
0.000549079
0.000486152
0.000428452
0.000244773
0.000317918
0.000302772
0.00017972
0.000255371
0.00021697
9.17593e-05
0.000151815
0.000142939
0.000134071
6.56973e-05
0.000111287
0.000106308
5.19405e-05
9.01353e-05
0.000986569
0.00121368
0.00126274
0.00126046
0.00122808
0.0012738
0.00141979
0.00158046
0.00181092
0.00167247
0.000504322
0.000265912
0.000191316
0.0001581
0.000135196
0.000140099
0.000108975
7.02702e-05
5.75456e-05
0.00102654
0.00124553
0.00129115
0.00129745
0.00132277
0.00146233
0.00148151
0.00140315
0.00135216
0.00165872
0.000487451
0.000264278
0.000194909
0.000169691
0.000155096
0.000157141
0.000116036
7.58477e-05
6.34818e-05
0.000936569
0.00114682
0.00115742
0.00133711
0.00156842
0.00183756
0.00190515
0.00155208
0.000974501
0.00107986
0.000435893
0.000242905
0.00019759
0.000169363
0.000167517
0.000169262
0.000167952
9.34751e-05
9.37106e-05
0.0009117
0.00105498
0.00113244
0.00143142
0.00188399
0.0022474
0.00235656
0.002175
0.000910981
0.000650373
0.000398692
0.000231964
0.000198032
0.000273177
0.000189111
0.000367007
0.000280764
0.000160989
0.000208008
0.000808997
0.00101409
0.00114982
0.00160419
0.00199312
0.00257309
0.00298458
0.00285055
0.00136077
0.000594252
0.000403153
0.000249196
0.000271433
0.000434656
0.00160385
0.00149511
0.00108822
0.000427892
0.000473494
0.000743986
0.00098938
0.00124645
0.00164683
0.00216889
0.00298977
0.00329116
0.00313535
0.00193018
0.000732199
0.00044316
0.000215807
0.000228264
0.000992247
0.00768127
0.00821901
0.00452946
0.00138267
0.00252344
0.000700836
0.00097081
0.00122793
0.00163084
0.00234905
0.00305377
0.00330184
0.00327519
0.00288643
0.00169451
0.000939054
0.00100859
0.0018162
0.007773
0.019962
0.0202409
0.0194221
0.0105839
0.0350885
0.000682693
0.000948484
0.00117585
0.0016099
0.00206463
0.00248787
0.0028491
0.0031222
0.00347587
0.00366733
0.00359132
0.00373359
0.00861682
0.0211448
0.0237913
0.0186727
0.0198865
0.0155109
0.0154002
0.000669378
0.000932278
0.00119239
0.00152829
0.0017077
0.00192584
0.00224057
0.00273197
0.00339967
0.00430257
0.00554329
0.0063775
0.0069745
0.0056689
0.00438906
0.00468901
0.00560687
0.00664516
0.00486253
0.000660426
0.000948842
0.0012589
0.00139821
0.00147238
0.00160399
0.00188675
0.00224786
0.00259864
0.00295365
0.00355966
0.00425987
0.00437584
0.00452944
0.00665243
0.00779867
0.00935304
0.010502
0.0106688
0.000674259
0.000966243
0.00130945
0.00142413
0.00149364
0.00158921
0.00185962
0.00221146
0.00256855
0.00292853
0.00352077
0.00413023
0.00439968
0.00473935
0.00679682
0.00792317
0.00941126
0.01061
0.0106873
0.000718906
0.000998624
0.0012706
0.00164111
0.00183972
0.00200367
0.00224186
0.00263445
0.00332219
0.00448191
0.00612142
0.00725812
0.00769955
0.00593995
0.00471592
0.00500304
0.00611618
0.0073732
0.00515965
0.000752497
0.00103968
0.00127908
0.00176676
0.0023012
0.0027944
0.00319601
0.0035298
0.00419105
0.00489529
0.00542025
0.00566988
0.0101573
0.0244496
0.0276947
0.0214691
0.0220773
0.0172753
0.0164784
0.000785036
0.00107957
0.00135764
0.00179084
0.00262462
0.0037066
0.00406918
0.00409385
0.00372234
0.00286648
0.00134359
0.00113764
0.00192014
0.00732164
0.0211745
0.0221728
0.020851
0.0120784
0.0383824
0.000848126
0.00112696
0.00141841
0.00187735
0.00252628
0.00361119
0.00423865
0.00421522
0.00300389
0.00135039
0.000622994
0.000443116
0.000442151
0.00134587
0.00784079
0.00839944
0.00535048
0.00025799
0.00207211
0.000933462
0.00116773
0.00132556
0.0018557
0.00236513
0.00313941
0.00397159
0.00403413
0.00232931
0.000992073
0.000616394
0.000326537
0.000317186
0.000519353
0.00147628
0.00161305
0.0010327
0.00049272
0.000521575
0.00105355
0.00124088
0.00132482
0.00169393
0.0022726
0.00286977
0.00320504
0.00322742
0.0015771
0.000952441
0.000699601
0.000301973
0.000229636
0.000230238
0.000385307
0.00040488
0.000362404
0.000170069
0.000224372
0.00107399
0.00134311
0.0013868
0.00163447
0.00194872
0.00246484
0.00265335
0.00244891
0.00134862
0.00122469
0.00073118
0.000332306
0.000235134
0.000220988
0.000172269
0.000217945
0.000195239
0.000119808
0.000113851
0.00119493
0.00149047
0.00155956
0.00159671
0.00166286
0.00194608
0.00202701
0.00189867
0.00172516
0.00222704
0.000744204
0.000349999
0.000237209
0.000188675
0.000174924
0.000167251
0.000133708
8.27889e-05
7.40648e-05
0.00113454
0.00144397
0.00153236
0.00156553
0.00155991
0.00164759
0.00181836
0.00198219
0.0023835
0.00244799
0.000822795
0.000363958
0.000234408
0.000183578
0.000156167
0.00015803
0.000124111
7.87292e-05
6.65025e-05
0.591539
1.52749
0.371905
0.205546
0.150554
0.0922502
0.0453257
0.0163486
0.00300032
0.000952455
0.00029348
0.000258387
0.000225349
0.000194818
0.000182025
3.96075e-05
7.87949e-05
0.000220889
0.00223296
0.0119085
0.577836
1.31365
0.25118
0.140758
0.0911082
0.0438741
0.0192954
0.00813693
0.00361042
0.0015251
0.000606998
0.000560571
0.000405599
0.000125858
0.000152061
0.000117788
0.000130882
0.000271528
0.00313863
0.00867862
0.601874
1.33502
0.215643
0.0934619
0.0545927
0.0336566
0.0149895
0.00620618
0.00218805
0.00078277
0.000321425
5.42234e-05
2.086e-05
7.17614e-05
0.000108612
0.00011481
0.000142019
0.000327459
0.00366321
0.00578207
0.617534
1.49228
0.220356
0.0754745
0.0390763
0.0172878
0.00722199
0.00296503
0.00123683
0.000520878
0.000213257
0.00013752
0.000111325
9.11708e-05
0.000131716
0.000129327
0.000173611
0.000435143
0.00459586
0.00377455
0.636986
1.67008
0.233772
0.0584968
0.0243497
0.00924267
0.00314924
0.00109429
0.000402764
0.000152756
7.79683e-05
6.72188e-05
9.97193e-05
0.000104365
0.000153354
0.00022868
0.000307962
0.000642577
0.00564125
0.00255754
0.644173
1.72976
0.231049
0.0465462
0.012086
0.0032396
0.000982193
0.000363064
0.000148447
9.39099e-05
7.12297e-05
7.55007e-05
0.000111253
0.000169466
0.000300153
0.000412589
0.000548673
0.000921739
0.00703779
0.00182387
0.632805
1.53918
0.178143
0.0272569
0.00545745
0.001187
0.000241741
5.27782e-05
2.79728e-05
6.79847e-05
7.71021e-05
9.64224e-05
0.000180832
0.000364128
0.000643597
0.000844235
0.000911056
0.00133635
0.00884181
0.00140468
0.619176
0.9908
0.107828
0.0159571
0.00292936
0.000368794
9.71623e-05
3.98828e-05
3.76979e-05
6.75891e-05
9.06892e-05
0.000206403
0.000438669
0.0008788
0.00144102
0.00152695
0.00112364
0.00203059
0.0116317
0.00114883
0.62096
0.540073
0.05037
0.00758957
0.00100019
0.000156135
4.26397e-05
2.20709e-05
3.22831e-05
9.69746e-05
0.000169261
0.000459551
0.000979429
0.00192583
0.0026282
0.00186617
0.00115897
0.00348078
0.0161177
0.00133109
0.659782
0.318394
0.0345422
0.00543521
0.00074974
6.89374e-05
2.07719e-05
2.85066e-05
3.71942e-05
0.000105638
0.000314655
0.000827349
0.00179128
0.00317351
0.00331136
0.00243169
0.00157891
0.00699957
0.0232258
0.00161712
0.714967
0.211453
0.0144958
0.00168807
0.000171458
3.04445e-05
1.07366e-05
4.35233e-05
4.28569e-05
0.000170628
0.000445572
0.00113539
0.00235777
0.00370995
0.00445549
0.00375062
0.00245266
0.0107364
0.0333142
0.0015109
0.751136
0.151616
0.0141785
0.00166545
0.000170304
2.72899e-05
7.89542e-06
7.01798e-05
6.51893e-05
0.000245706
0.000558155
0.00136052
0.00271627
0.00437952
0.00603162
0.00597768
0.0044379
0.0116567
0.0417786
0.00264081
0.747975
0.1154
0.00691092
0.000383412
7.06259e-05
1.29047e-05
1.53709e-05
8.47788e-05
0.000107133
0.00040205
0.000854096
0.00202481
0.00392248
0.006265
0.00796933
0.00959916
0.00790659
0.0109537
0.0351961
0.00503233
0.695305
0.0709429
0.00282754
0.00027409
2.19464e-05
1.79963e-05
2.40074e-05
0.000132996
0.000228001
0.00079085
0.00183327
0.00429891
0.00783619
0.0117891
0.0143274
0.0160605
0.0132458
0.013829
0.0233164
0.00544622
0.593806
0.0308789
0.000204436
5.77511e-08
5.47224e-06
2.08185e-05
4.50284e-05
0.000252737
0.000668939
0.00186262
0.00493983
0.0114634
0.0190479
0.0240332
0.0232478
0.0231539
0.0180993
0.0142171
0.0181591
0.00758539
0.463186
0.00770787
1.11865e-05
9.05593e-07
8.06192e-06
3.53454e-05
0.000123764
0.000448705
0.00106626
0.00285325
0.0078103
0.0175785
0.0250043
0.0263053
0.0213598
0.0176296
0.0165639
0.0162425
0.010221
0.00923663
0.335426
0.0119613
1.73591e-05
9.21422e-07
6.21103e-06
3.00783e-05
0.000180354
0.000447981
0.000624737
0.00124127
0.00223805
0.00362229
0.00591231
0.00925335
0.0163592
0.0191415
0.0152336
0.0134213
0.0175161
0.00635516
0.253998
0.0131572
2.02279e-05
9.44092e-06
8.81236e-06
2.06955e-05
0.0001851
0.000481379
0.000543946
0.000690382
0.000691187
0.000742109
0.000791036
0.000828137
0.000912494
0.00117792
0.00209655
0.0198929
0.0180499
0.00850472
0.200386
0.0329378
0.00144204
0.00135562
0.00131443
0.00126065
0.00121432
0.00116674
0.00112517
0.00108348
0.00104556
0.00100436
0.000956919
0.000907416
0.000850432
0.000790153
0.000734493
0.000710496
0.00373628
0.00954656
0.16385
0.777957
0.761584
0.762904
0.762508
0.76301
0.76276
0.762202
0.762384
0.762367
0.762629
0.762375
0.761911
0.762425
0.762537
0.762588
0.761727
0.732427
0.820487
0.1678
0.163846
0.777891
0.761572
0.762936
0.762401
0.762649
0.762735
0.762685
0.762452
0.762818
0.762415
0.761928
0.762429
0.762544
0.762546
0.762585
0.761762
0.732424
0.820475
0.167832
0.200399
0.0322636
0.00144167
0.00135515
0.00131335
0.00125833
0.00121307
0.00116666
0.00112363
0.00108372
0.00104349
0.00100185
0.000958294
0.000906955
0.000849627
0.000789783
0.000733323
0.000703168
0.00362564
0.00903763
0.254062
0.0125142
1.74091e-05
9.38693e-06
1.0073e-05
7.82599e-05
0.00024678
0.00041003
0.000451228
0.000612157
0.0005771
0.000625952
0.000657448
0.000718984
0.00080986
0.0010341
0.00179734
0.0179759
0.0168308
0.00769881
0.335422
0.00983682
6.03334e-06
2.3152e-07
6.94807e-06
5.30648e-05
0.000187812
0.000310966
0.00046012
0.000904794
0.00175334
0.00332096
0.00532268
0.00823179
0.0145798
0.0171809
0.0132236
0.0122914
0.01632
0.00577322
0.463113
0.00854062
5.59059e-06
6.12826e-08
1.36015e-06
9.09632e-06
0.000128015
0.00040333
0.00110689
0.00303488
0.00819262
0.0173308
0.0256734
0.0265063
0.0199859
0.0151343
0.013716
0.012446
0.00858608
0.0079155
0.593909
0.0276738
0.000403044
1.42672e-05
3.34038e-06
1.11146e-06
7.57316e-05
0.000226924
0.000699737
0.00183827
0.00507773
0.0114742
0.0200954
0.0247666
0.0247786
0.0238316
0.0180895
0.0101202
0.0170934
0.00632816
0.695552
0.071517
0.00213922
7.4653e-05
1.07814e-05
2.87909e-06
3.93525e-05
0.000105825
0.000305772
0.000877037
0.00210201
0.0047548
0.00902848
0.0131272
0.0177478
0.0172127
0.0137283
0.00869783
0.0164584
0.00439151
0.748306
0.114295
0.00818289
0.000603747
4.32642e-05
7.71242e-06
3.35609e-05
4.86848e-05
0.000162928
0.000475549
0.00114068
0.00249617
0.00504101
0.0073069
0.0103973
0.0099988
0.00747396
0.00481666
0.0301031
0.0043714
0.751372
0.154651
0.0110243
0.000913616
0.000155783
2.84507e-05
3.13324e-05
4.37903e-05
0.000109077
0.000327098
0.00083933
0.00181382
0.00362185
0.00520302
0.00658406
0.00574008
0.0038922
0.00314385
0.0418072
0.00258179
0.715285
0.20198
0.0227545
0.00278583
0.000220146
3.56402e-05
3.56128e-05
3.13122e-05
7.29997e-05
0.000266665
0.000714021
0.00162833
0.00300543
0.00411665
0.00404946
0.00332773
0.00231501
0.00219038
0.0341153
0.00145153
0.659843
0.330277
0.0259713
0.00373283
0.000595788
0.000110783
4.29852e-05
3.31818e-05
8.22693e-05
0.000191594
0.000557045
0.00131272
0.00241735
0.00297965
0.00248094
0.00191169
0.00140728
0.00146501
0.0225543
0.00142609
0.620553
0.541688
0.0606322
0.00894867
0.000949713
0.000134525
4.91717e-05
2.1207e-05
6.19256e-05
0.000139527
0.000402413
0.000853987
0.00160439
0.00204296
0.00158529
0.00108717
0.000842902
0.000898598
0.0143074
0.00112242
0.619504
0.991948
0.107074
0.0143878
0.00266845
0.000571814
0.00016195
7.71743e-05
6.66861e-05
0.000128895
0.00023081
0.000521548
0.000825487
0.00136109
0.0010668
0.000682072
0.000512823
0.000564314
0.00958335
0.000877614
0.631616
1.53497
0.180364
0.0278145
0.00560789
0.00116614
0.00029089
9.32441e-05
6.95012e-05
0.000109745
0.000252126
0.000264899
0.000472898
0.000631658
0.000696215
0.00050493
0.000339922
0.000360588
0.00684377
0.00105537
0.640944
1.75122
0.2312
0.0467875
0.0120394
0.00364128
0.00114351
0.000399625
0.000149814
0.000146307
0.000219879
0.00026525
0.000252249
0.000434019
0.000449692
0.000345629
0.000244874
0.000248328
0.00517492
0.00139918
0.635176
1.67343
0.231467
0.05921
0.0250574
0.01002
0.00351424
0.001237
0.000449843
0.000181433
0.000215988
0.000197598
0.00019025
0.000276672
0.000267488
0.000225801
0.000171992
0.000181433
0.00403117
0.00204178
0.61861
1.48125
0.217874
0.0764009
0.0388012
0.0159495
0.00646898
0.00270551
0.00098438
0.000413979
0.000212633
0.000192644
0.000215697
0.000228913
0.000203035
0.000166704
0.000150947
0.000135052
0.00323833
0.00315733
0.603379
1.33645
0.210599
0.0924708
0.0534785
0.0347036
0.0137515
0.0059052
0.00196477
0.000694636
0.000262453
0.000209122
0.000165109
0.000170753
0.000169277
0.000118663
0.00015217
0.00013535
0.00259904
0.00505605
0.580317
1.33993
0.2627
0.139992
0.0914463
0.0446478
0.0170595
0.0068865
0.00321618
0.00138506
0.000539528
0.000311665
0.000292558
0.000214833
0.000183829
0.000143689
0.000136107
0.00012124
0.00215611
0.00787932
0.595277
1.55532
0.378695
0.205371
0.15076
0.0909442
0.0458455
0.0165671
0.00284931
0.000921963
0.000292354
6.60925e-06
0.000222134
0.000196968
0.000189474
8.25271e-05
0.000121885
6.47555e-05
0.00179145
0.0109732
)
;

boundaryField
{
    outletWall
    {
        type            zeroGradient;
    }
    fineWalls
    {
        Cmu             0.09;
        kappa           0.41;
        E               9.8;
        type            epsilonWallFunction;
        value           nonuniform List<scalar> 
60
(
0.00113197
0.00112809
0.00065347
0.000618971
0.000549777
0.000313631
0.000408111
0.000388555
0.000230024
0.000317125
0.000269983
0.00011918
0.000195047
0.000182607
0.000170763
8.41436e-05
0.000141541
0.000134806
6.58718e-05
0.000114211
0.000361687
0.000634401
0.000634255
0.0006479
0.000444695
0.00126731
0.00152511
0.00179187
0.0013459
0.00217847
0.00215778
0.00134691
0.00192623
0.00166559
0.00139313
0.000465336
0.000683073
0.000668585
0.000667113
0.000379458
9.01353e-05
5.19405e-05
0.000106308
0.000111287
6.56973e-05
0.000134071
0.000142939
0.000151815
9.17593e-05
0.00021697
0.000255371
0.00017972
0.000302772
0.000317918
0.000244773
0.000428452
0.000486152
0.000549079
0.00094364
0.000953745
)
;
    }
    fineFrontAndBack
    {
        type            zeroGradient;
    }
    fineplugLeft
    {
        type            cyclicAMI;
        value           nonuniform List<scalar> 
20
(
0.0121072
0.0043652
0.00297752
0.00315065
0.00345102
0.00376396
0.004193
0.00430334
0.00495328
0.00519744
0.00576616
0.0104272
0.0221269
0.047297
0.097799
0.148533
0.197553
0.337619
1.26562
0.472175
)
;
    }
    fineplugRight
    {
        type            cyclicAMI;
        value           nonuniform List<scalar> 
20
(
0.0113472
0.00401225
0.0029138
0.00315344
0.00351678
0.00372605
0.00404581
0.00440843
0.00545891
0.00541543
0.00589184
0.0104965
0.0230131
0.0469569
0.0968687
0.149336
0.197716
0.343455
1.2875
0.472337
)
;
    }
    inletOutletLeft
    {
        type            cyclicAMI;
        value           nonuniform List<scalar> 
20
(
0.0121072
0.0043652
0.00297752
0.00315065
0.00345102
0.00376396
0.004193
0.00430334
0.00495328
0.00519744
0.00576616
0.0104272
0.0221269
0.047297
0.097799
0.148533
0.197553
0.337619
1.26562
0.472175
)
;
    }
    inletLeft
    {
        type            fixedValue;
        value           uniform 2180.89;
    }
    inletWallsLeft
    {
        Cmu             0.09;
        kappa           0.41;
        E               9.8;
        type            epsilonWallFunction;
        value           nonuniform List<scalar> 
40
(
0.16385
0.200386
0.253998
0.335426
0.463186
0.593806
0.695305
0.747975
0.751136
0.714967
0.659782
0.62096
0.619176
0.632805
0.644173
0.636986
0.617534
0.601874
0.577836
0.591539
0.0119085
0.00867862
0.00578207
0.00377455
0.00255754
0.00182387
0.00140468
0.00114883
0.00133109
0.00161712
0.0015109
0.00264081
0.00503233
0.00544622
0.00758539
0.00923663
0.00635516
0.00850472
0.00954656
0.1678
)
;
    }
    inletFacesLeft
    {
        type            zeroGradient;
    }
    inletOutletRight
    {
        type            cyclicAMI;
        value           nonuniform List<scalar> 
20
(
0.0113472
0.00401225
0.0029138
0.00315344
0.00351678
0.00372605
0.00404581
0.00440843
0.00545891
0.00541543
0.00589184
0.0104965
0.0230131
0.0469569
0.0968687
0.149336
0.197716
0.343455
1.2875
0.472337
)
;
    }
    inletRight
    {
        type            fixedValue;
        value           uniform 2180.89;
    }
    inletWallsRight
    {
        Cmu             0.09;
        kappa           0.41;
        E               9.8;
        type            epsilonWallFunction;
        value           nonuniform List<scalar> 
40
(
0.595277
0.580317
0.603379
0.61861
0.635176
0.640944
0.631616
0.619504
0.620553
0.659843
0.715285
0.751372
0.748306
0.695552
0.593909
0.463113
0.335422
0.254062
0.200399
0.163846
0.167832
0.00903763
0.00769881
0.00577322
0.0079155
0.00632816
0.00439151
0.0043714
0.00258179
0.00145153
0.00142609
0.00112242
0.000877614
0.00105537
0.00139918
0.00204178
0.00315733
0.00505605
0.00787932
0.0109732
)
;
    }
    inletFacesRight
    {
        type            zeroGradient;
    }
}


// ************************************************************************* //
