/*--------------------------------*- C++ -*----------------------------------*\
| =========                 |                                                 |
| \\      /  F ield         | OpenFOAM: The Open Source CFD Toolbox           |
|  \\    /   O peration     | Version:  4.1                                   |
|   \\  /    A nd           | Web:      www.OpenFOAM.org                      |
|    \\/     M anipulation  |                                                 |
\*---------------------------------------------------------------------------*/
FoamFile
{
    version     2.0;
    format      ascii;
    class       volScalarField;
    location    "4";
    object      k;
}
// * * * * * * * * * * * * * * * * * * * * * * * * * * * * * * * * * * * * * //

dimensions      [0 2 -2 0 0 0 0];

internalField   nonuniform List<scalar> 
1280
(
0.0617112
0.0624287
0.0690906
0.0713866
0.0737108
0.0812893
0.085098
0.0890273
0.0938335
0.11111
0.123885
0.146893
0.142521
0.14857
0.189415
0.185626
0.19959
0.314268
0.302674
0.297957
0.388142
0.774135
0.758664
0.724572
0.687623
0.653441
0.433848
0.40624
0.381044
0.356929
0.333414
0.311656
0.291864
0.273773
0.257277
0.241981
0.228054
0.214786
0.203656
0.195961
0.199493
0.196766
0.196707
0.198949
0.2219
0.320525
0.370098
0.409567
0.462481
0.421063
0.422024
0.45708
0.373995
0.332863
0.293088
0.217839
0.193303
0.191046
0.191268
0.193823
0.191744
0.199708
0.211171
0.224982
0.239413
0.255254
0.272086
0.290411
0.310105
0.332125
0.35694
0.38225
0.409282
0.44082
0.649939
0.683523
0.721131
0.755073
0.76667
0.35655
0.252562
0.251684
0.256731
0.162727
0.148726
0.148836
0.121379
0.117275
0.120668
0.105038
0.094515
0.0779877
0.074777
0.0718846
0.0688719
0.062242
0.0605847
0.0587532
0.0530793
0.0524962
0.287915
0.325893
0.351193
0.370729
0.388094
0.420731
0.477501
0.55402
0.629437
0.59215
0.380814
0.224437
0.134794
0.0898239
0.067721
0.0834783
0.0670235
0.0544445
0.043961
0.285752
0.317136
0.331678
0.341061
0.35461
0.387901
0.442601
0.508542
0.579428
0.598999
0.373921
0.216726
0.136363
0.0961948
0.0760467
0.0929635
0.0782024
0.0631942
0.0578306
0.268608
0.289417
0.293302
0.30173
0.325554
0.36752
0.418393
0.459461
0.485351
0.512148
0.360286
0.205906
0.136263
0.10549
0.0924018
0.110661
0.101097
0.0807719
0.0736514
0.248877
0.263267
0.26713
0.286643
0.327398
0.389989
0.458359
0.493528
0.480051
0.449647
0.346294
0.199326
0.139715
0.126212
0.138816
0.158972
0.146997
0.122644
0.135142
0.23171
0.24571
0.261657
0.298645
0.359966
0.439061
0.513405
0.53792
0.505353
0.448318
0.350353
0.209127
0.158504
0.175136
0.239386
0.285362
0.242203
0.179992
0.181147
0.219199
0.238152
0.268216
0.32166
0.394041
0.474547
0.536339
0.544556
0.512651
0.463836
0.37518
0.247454
0.21322
0.286385
0.632156
0.732431
0.500186
0.371384
0.402501
0.222439
0.248038
0.28916
0.349563
0.416467
0.477279
0.511359
0.511911
0.499026
0.48341
0.429078
0.326208
0.31729
0.463546
1.09647
1.3388
1.32097
0.906621
1.35347
0.227669
0.258499
0.306497
0.363681
0.413798
0.444857
0.456939
0.465723
0.484198
0.517686
0.554618
0.537365
0.624322
1.07625
1.34965
1.07262
0.986069
0.801804
0.638407
0.228061
0.261829
0.309804
0.351974
0.373774
0.37965
0.386289
0.404204
0.432656
0.469385
0.519173
0.555143
0.552054
0.493118
0.411028
0.400089
0.404093
0.450832
0.418538
0.2248
0.259322
0.301183
0.321928
0.321633
0.322547
0.335582
0.358081
0.379808
0.399119
0.428799
0.468012
0.489523
0.511636
0.597976
0.66556
0.711813
0.770514
0.771443
0.229626
0.267209
0.3145
0.336109
0.330702
0.326711
0.33688
0.358399
0.380612
0.400924
0.431028
0.471519
0.499441
0.522693
0.604854
0.66772
0.708242
0.765306
0.766647
0.242328
0.280149
0.337956
0.392178
0.419925
0.420651
0.415218
0.424396
0.450843
0.490526
0.547017
0.599877
0.584193
0.506723
0.423626
0.40937
0.414571
0.467842
0.434181
0.252873
0.287872
0.344568
0.418397
0.487272
0.527444
0.533466
0.53227
0.552052
0.604774
0.679039
0.681865
0.744732
1.17386
1.51739
1.22139
1.09431
0.847097
0.670931
0.25681
0.286212
0.334111
0.409312
0.498253
0.580512
0.628584
0.628876
0.616262
0.611701
0.577892
0.451013
0.404796
0.53603
1.15727
1.48514
1.43849
0.940917
1.43183
0.258787
0.280631
0.315282
0.379803
0.471747
0.579805
0.669153
0.690324
0.656246
0.601395
0.505727
0.344491
0.272415
0.331595
0.634348
0.763602
0.535236
0.488144
0.509579
0.278712
0.295066
0.312406
0.355982
0.431424
0.534363
0.638148
0.685174
0.651836
0.573986
0.464642
0.292534
0.208225
0.215259
0.287681
0.33559
0.285843
0.264146
0.248821
0.3018
0.318853
0.321947
0.343389
0.392284
0.470867
0.563495
0.620748
0.606928
0.551128
0.453782
0.275095
0.18498
0.161849
0.164683
0.194343
0.177017
0.153932
0.1697
0.325561
0.350141
0.35333
0.360695
0.387206
0.437251
0.503242
0.557422
0.583822
0.593794
0.474905
0.28045
0.180437
0.135312
0.113346
0.134602
0.121774
0.0984359
0.0930029
0.343189
0.379562
0.396598
0.406433
0.419776
0.45633
0.520604
0.596659
0.674281
0.724859
0.494493
0.29326
0.181462
0.123262
0.0940993
0.111756
0.0943297
0.0762162
0.0703832
0.344131
0.387021
0.416337
0.438972
0.457915
0.49346
0.55701
0.642641
0.73207
0.739398
0.500852
0.303149
0.180357
0.114905
0.0833958
0.0993996
0.0804404
0.0648332
0.0525769
1.68394
4.30648
1.4271
1.11524
0.973
0.760522
0.516532
0.322772
0.202488
0.128854
0.08512
0.0571964
0.0385654
0.0286343
0.0241108
0.0224231
0.0205391
0.0186098
0.0269222
0.119176
1.65563
3.81644
0.993121
0.856326
0.715448
0.506359
0.315455
0.193657
0.119977
0.0759451
0.0492877
0.0334527
0.0257372
0.0233904
0.023016
0.0227299
0.0208133
0.0188493
0.0264844
0.0969896
1.70295
3.76501
0.856634
0.644727
0.528918
0.38686
0.255931
0.163666
0.103237
0.0651479
0.0417122
0.0296331
0.024964
0.0240022
0.0245988
0.0242689
0.0215749
0.0195441
0.0269687
0.0746785
1.73123
3.85185
0.792888
0.486051
0.383844
0.28648
0.192298
0.122773
0.0760609
0.0468641
0.0306606
0.0233493
0.0220058
0.0240116
0.0256865
0.0250247
0.0211378
0.0191723
0.0268124
0.0569974
1.76486
4.10032
0.796749
0.398265
0.280924
0.193682
0.123412
0.0758716
0.0457203
0.0281307
0.0200833
0.0186115
0.0212501
0.025542
0.0274743
0.0254685
0.0197988
0.0182304
0.0281589
0.0447571
1.76747
4.28079
0.778293
0.326879
0.193861
0.113282
0.0636877
0.0358349
0.0205434
0.0131624
0.0126433
0.0165715
0.022703
0.0285181
0.0292726
0.0247804
0.0171261
0.0169736
0.0305439
0.0363249
1.73222
4.03799
0.686317
0.250072
0.1162
0.0531625
0.0246257
0.0121292
0.00669714
0.00583184
0.0106523
0.0182847
0.0265348
0.0325534
0.0301263
0.0221969
0.0133345
0.016178
0.0345666
0.0309758
1.69259
3.29251
0.528752
0.165201
0.0578392
0.020359
0.00766744
0.00323829
0.00214078
0.00431262
0.0122801
0.0219329
0.0310738
0.0359486
0.0285815
0.0179407
0.00967899
0.0174818
0.0408155
0.0273974
1.6873
2.16417
0.343547
0.0947194
0.0257848
0.00738936
0.00240389
0.000945004
0.00131403
0.00486656
0.0145884
0.0252524
0.0344653
0.0375762
0.025693
0.0148926
0.00770422
0.0229897
0.051428
0.0310281
1.75758
1.24879
0.201734
0.0496563
0.0117083
0.00310836
0.000964856
0.000426169
0.0014161
0.00576011
0.0159765
0.0270657
0.036029
0.0386819
0.0260504
0.0147434
0.00759225
0.0335894
0.0710425
0.0333569
1.85499
0.764849
0.128763
0.0277413
0.00629145
0.0016151
0.000503142
0.000316056
0.00175602
0.00630275
0.0161214
0.0274337
0.0367996
0.0415267
0.0307245
0.0192776
0.0109459
0.0499567
0.103107
0.0321712
1.91633
0.528715
0.0821633
0.0155229
0.00345302
0.000874983
0.000284028
0.000340984
0.00217552
0.00676399
0.0158699
0.0272196
0.0375733
0.0443092
0.0399446
0.0296405
0.0189
0.0613911
0.143105
0.0473868
1.91056
0.382269
0.0517702
0.00842226
0.00166468
0.000392504
0.000141385
0.00050596
0.00283526
0.00773801
0.0168452
0.0285315
0.0400347
0.0483663
0.0513306
0.0437184
0.0319055
0.0524113
0.136263
0.065895
1.81804
0.25093
0.0239664
0.0027797
0.000444259
8.64298e-05
7.5666e-05
0.00098206
0.0040086
0.0100044
0.0207366
0.0346864
0.0490565
0.0592981
0.0655069
0.0598798
0.046636
0.0476977
0.0831697
0.0658237
1.6331
0.116039
0.00434006
0.00023973
1.74317e-05
4.83521e-06
0.000125902
0.00159977
0.00583196
0.0141851
0.029119
0.049414
0.0713977
0.085806
0.0948257
0.0880878
0.0616307
0.0470185
0.0688654
0.0966739
1.37971
0.023704
1.26124e-05
1.27573e-08
7.97553e-08
1.26957e-05
0.000415053
0.00251439
0.00813776
0.0197193
0.0414309
0.0735357
0.107878
0.121655
0.122618
0.105072
0.0777403
0.0838962
0.0772043
0.105479
1.11528
0.0137694
3.01701e-06
1.5008e-09
3.65044e-07
6.93895e-05
0.000500747
0.00212887
0.00667625
0.0163237
0.033401
0.0542546
0.0686353
0.0776744
0.0960515
0.1229
0.118781
0.0974039
0.127077
0.0798271
0.929231
0.0071209
4.33687e-08
1.9754e-08
1.98865e-08
2.99843e-07
1.80174e-05
0.000110499
0.000306403
0.000693539
0.00134959
0.00227831
0.00346474
0.00497112
0.00716364
0.0109938
0.0197319
0.0834405
0.102142
0.0854154
0.791335
0.00129647
2.0242e-06
1.89078e-06
1.83655e-06
1.75906e-06
1.69625e-06
1.63298e-06
1.57472e-06
1.51914e-06
1.46435e-06
1.40776e-06
1.34509e-06
1.27327e-06
1.192e-06
1.11427e-06
1.17968e-06
4.86805e-06
0.00159904
0.100087
0.69133
0.000691937
0.000656676
0.000656236
0.000656382
0.000656279
0.000656329
0.000656422
0.000656396
0.000656401
0.000656358
0.000656403
0.000656484
0.000656401
0.000656391
0.000656392
0.000656498
0.000664729
0.00234184
0.81093
0.691316
0.000691949
0.000656678
0.000656231
0.000656399
0.000656339
0.000656333
0.000656341
0.000656385
0.000656325
0.000656394
0.000656478
0.000656399
0.000656386
0.000656393
0.000656393
0.000656492
0.000664731
0.00234137
0.811159
0.791361
0.00130285
2.02433e-06
1.89103e-06
1.83689e-06
1.75959e-06
1.69689e-06
1.63358e-06
1.57538e-06
1.51929e-06
1.46473e-06
1.40834e-06
1.34551e-06
1.27357e-06
1.19211e-06
1.11396e-06
1.17746e-06
4.6315e-06
0.00150081
0.0961721
0.929412
0.00711932
3.99781e-08
1.97695e-08
2.18123e-08
5.72229e-07
2.13628e-05
0.000108344
0.000290197
0.000635842
0.0012219
0.00204772
0.0031043
0.00444677
0.00637366
0.00979749
0.017773
0.075293
0.0944307
0.0797041
1.11529
0.013523
1.52483e-06
1.19537e-09
4.67416e-07
7.29779e-05
0.000620644
0.00259292
0.00767859
0.0181246
0.035747
0.0559061
0.0677081
0.0740282
0.0895068
0.112689
0.108084
0.0888094
0.121919
0.0752811
1.37948
0.0229467
9.86848e-06
4.32131e-09
1.23691e-07
3.54534e-05
0.000646949
0.00319636
0.00951567
0.0221457
0.0456253
0.0807825
0.11445
0.124987
0.12415
0.103522
0.0691143
0.0657227
0.0638293
0.0948422
1.63301
0.116426
0.00425458
0.000200617
1.46804e-05
2.08476e-05
0.000233149
0.0021485
0.00720645
0.0167095
0.0331372
0.0564804
0.0796519
0.0934632
0.100995
0.0939611
0.060218
0.0340905
0.0521983
0.0857896
1.81836
0.25001
0.0242242
0.00293794
0.000470129
0.000108115
0.000112456
0.00125838
0.00510376
0.012158
0.0239032
0.0396773
0.0545816
0.0645765
0.065516
0.0581789
0.0383085
0.0249248
0.0614073
0.058902
1.91104
0.381237
0.0512448
0.00840336
0.00171687
0.000421127
0.000151834
0.000783509
0.00384647
0.00971031
0.0193613
0.0320002
0.0426385
0.0498232
0.0460308
0.0367006
0.021979
0.0144548
0.114844
0.0568431
1.91691
0.526243
0.0830441
0.016117
0.00356727
0.000911597
0.000274402
0.000529859
0.00319119
0.00869162
0.0177733
0.0293368
0.0370736
0.0397435
0.0314397
0.0210583
0.0110803
0.00976914
0.142177
0.0452855
1.85506
0.76573
0.124322
0.0273794
0.00638242
0.00165662
0.000472749
0.000441072
0.00279331
0.00817891
0.0173037
0.0278547
0.032717
0.0298823
0.020275
0.0118067
0.0054695
0.00721425
0.10333
0.0308361
1.75785
1.24772
0.201702
0.0509076
0.0122214
0.00319912
0.000938035
0.00049613
0.00232195
0.00753866
0.0163431
0.0257873
0.0281956
0.0218608
0.013148
0.00726956
0.00330233
0.00507036
0.0680681
0.0307447
1.68685
2.16192
0.333684
0.0950896
0.0268217
0.007673
0.00241833
0.000993549
0.00204839
0.00647602
0.0142086
0.0226378
0.0244531
0.016962
0.0093139
0.00507604
0.00243822
0.00335168
0.0450602
0.0276053
1.69297
3.29924
0.52071
0.167707
0.0602524
0.0210086
0.00772738
0.00322338
0.00266656
0.0055344
0.011651
0.0186459
0.0213106
0.0151478
0.00824169
0.00421755
0.00208543
0.00230306
0.0323738
0.0226838
1.73129
4.03848
0.673335
0.251213
0.118328
0.0537327
0.0244304
0.0117739
0.00679614
0.00660204
0.00991886
0.0152361
0.0180977
0.0147791
0.0087302
0.00440829
0.00215104
0.00184389
0.0251431
0.0248605
1.76168
4.25314
0.756929
0.324578
0.194712
0.112858
0.0623551
0.0345136
0.0198368
0.0131201
0.0117398
0.0138099
0.0159812
0.0140849
0.00942503
0.00521052
0.00257579
0.00177174
0.0207624
0.0292921
1.7604
4.09077
0.776925
0.390153
0.277072
0.190196
0.120169
0.0731431
0.0439032
0.0272117
0.0187462
0.0159943
0.0157831
0.0139945
0.0102321
0.00620858
0.0032306
0.00192124
0.0182054
0.0369696
1.73293
3.88301
0.77593
0.468443
0.372626
0.280201
0.187834
0.119231
0.0736317
0.0454851
0.0292383
0.0209381
0.0172758
0.0144424
0.0108348
0.00696228
0.0037305
0.00210292
0.0169051
0.048713
1.70752
3.80298
0.837244
0.614276
0.509158
0.376035
0.252469
0.160972
0.101172
0.0636708
0.0409431
0.0276199
0.0203467
0.0157271
0.0115714
0.00766478
0.00415573
0.00223863
0.0168602
0.0661069
1.66063
3.85195
0.956063
0.811074
0.684338
0.488017
0.309125
0.191415
0.118757
0.0748983
0.0483528
0.031768
0.0222404
0.0163316
0.011726
0.00778882
0.00418921
0.0022013
0.0168826
0.0884654
1.69129
4.35026
1.38712
1.05906
0.927898
0.732561
0.499716
0.312402
0.196303
0.123097
0.0667175
0.0535408
0.0446807
0.0262761
0.016626
0.0106221
0.00587196
0.00296147
0.0160964
0.110459
)
;

boundaryField
{
    outletWall
    {
        type            calculated;
        value           nonuniform List<scalar> 
60
(
0.0524962
0.043961
0.0544445
0.0670235
0.0834783
0.067721
0.0898239
0.134794
0.224437
0.380814
0.59215
0.629437
0.55402
0.477501
0.420731
0.388094
0.370729
0.351193
0.325893
0.287915
0.344131
0.343189
0.325561
0.3018
0.278712
0.258787
0.25681
0.252873
0.242328
0.229626
0.2248
0.228061
0.227669
0.222439
0.219199
0.23171
0.248877
0.268608
0.285752
0.287915
0.0617112
0.0525769
0.0648332
0.0804404
0.0993996
0.0833958
0.114905
0.180357
0.303149
0.500852
0.739398
0.73207
0.642641
0.55701
0.49346
0.457915
0.438972
0.416337
0.387021
0.344131
)
;
    }
    fineWalls
    {
        type            calculated;
        value           nonuniform List<scalar> 
60
(
0.297957
0.302674
0.314268
0.19959
0.185626
0.189415
0.14857
0.142521
0.146893
0.123885
0.11111
0.0938335
0.0890273
0.085098
0.0812893
0.0737108
0.0713866
0.0690906
0.0624287
0.0617112
0.193823
0.191268
0.191046
0.193303
0.217839
0.293088
0.332863
0.373995
0.45708
0.422024
0.421063
0.462481
0.409567
0.370098
0.320525
0.2219
0.198949
0.196707
0.196766
0.199493
0.0524962
0.0530793
0.0587532
0.0605847
0.062242
0.0688719
0.0718846
0.074777
0.0779877
0.094515
0.105038
0.120668
0.117275
0.121379
0.148836
0.148726
0.162727
0.256731
0.251684
0.252562
)
;
    }
    fineFrontAndBack
    {
        type            calculated;
        value           nonuniform List<scalar> 
960
(
0.0617112
0.0624287
0.0690906
0.0713866
0.0737108
0.0812893
0.085098
0.0890273
0.0938335
0.11111
0.123885
0.146893
0.142521
0.14857
0.189415
0.185626
0.19959
0.314268
0.302674
0.297957
0.388142
0.774135
0.758664
0.724572
0.687623
0.653441
0.433848
0.40624
0.381044
0.356929
0.333414
0.311656
0.291864
0.273773
0.257277
0.241981
0.228054
0.214786
0.203656
0.195961
0.199493
0.196766
0.196707
0.198949
0.2219
0.320525
0.370098
0.409567
0.462481
0.421063
0.422024
0.45708
0.373995
0.332863
0.293088
0.217839
0.193303
0.191046
0.191268
0.193823
0.191744
0.199708
0.211171
0.224982
0.239413
0.255254
0.272086
0.290411
0.310105
0.332125
0.35694
0.38225
0.409282
0.44082
0.649939
0.683523
0.721131
0.755073
0.76667
0.35655
0.252562
0.251684
0.256731
0.162727
0.148726
0.148836
0.121379
0.117275
0.120668
0.105038
0.094515
0.0779877
0.074777
0.0718846
0.0688719
0.062242
0.0605847
0.0587532
0.0530793
0.0524962
0.287915
0.325893
0.351193
0.370729
0.388094
0.420731
0.477501
0.55402
0.629437
0.59215
0.380814
0.224437
0.134794
0.0898239
0.067721
0.0834783
0.0670235
0.0544445
0.043961
0.285752
0.317136
0.331678
0.341061
0.35461
0.387901
0.442601
0.508542
0.579428
0.598999
0.373921
0.216726
0.136363
0.0961948
0.0760467
0.0929635
0.0782024
0.0631942
0.0578306
0.268608
0.289417
0.293302
0.30173
0.325554
0.36752
0.418393
0.459461
0.485351
0.512148
0.360286
0.205906
0.136263
0.10549
0.0924018
0.110661
0.101097
0.0807719
0.0736514
0.248877
0.263267
0.26713
0.286643
0.327398
0.389989
0.458359
0.493528
0.480051
0.449647
0.346294
0.199326
0.139715
0.126212
0.138816
0.158972
0.146997
0.122644
0.135142
0.23171
0.24571
0.261657
0.298645
0.359966
0.439061
0.513405
0.53792
0.505353
0.448318
0.350353
0.209127
0.158504
0.175136
0.239386
0.285362
0.242203
0.179992
0.181147
0.219199
0.238152
0.268216
0.32166
0.394041
0.474547
0.536339
0.544556
0.512651
0.463836
0.37518
0.247454
0.21322
0.286385
0.632156
0.732431
0.500186
0.371384
0.402501
0.222439
0.248038
0.28916
0.349563
0.416467
0.477279
0.511359
0.511911
0.499026
0.48341
0.429078
0.326208
0.31729
0.463546
1.09647
1.3388
1.32097
0.906621
1.35347
0.227669
0.258499
0.306497
0.363681
0.413798
0.444857
0.456939
0.465723
0.484198
0.517686
0.554618
0.537365
0.624322
1.07625
1.34965
1.07262
0.986069
0.801804
0.638407
0.228061
0.261829
0.309804
0.351974
0.373774
0.37965
0.386289
0.404204
0.432656
0.469385
0.519173
0.555143
0.552054
0.493118
0.411028
0.400089
0.404093
0.450832
0.418538
0.2248
0.259322
0.301183
0.321928
0.321633
0.322547
0.335582
0.358081
0.379808
0.399119
0.428799
0.468012
0.489523
0.511636
0.597976
0.66556
0.711813
0.770514
0.771443
0.229626
0.267209
0.3145
0.336109
0.330702
0.326711
0.33688
0.358399
0.380612
0.400924
0.431028
0.471519
0.499441
0.522693
0.604854
0.66772
0.708242
0.765306
0.766647
0.242328
0.280149
0.337956
0.392178
0.419925
0.420651
0.415218
0.424396
0.450843
0.490526
0.547017
0.599877
0.584193
0.506723
0.423626
0.40937
0.414571
0.467842
0.434181
0.252873
0.287872
0.344568
0.418397
0.487272
0.527444
0.533466
0.53227
0.552052
0.604774
0.679039
0.681865
0.744732
1.17386
1.51739
1.22139
1.09431
0.847097
0.670931
0.25681
0.286212
0.334111
0.409312
0.498253
0.580512
0.628584
0.628876
0.616262
0.611701
0.577892
0.451013
0.404796
0.53603
1.15727
1.48514
1.43849
0.940917
1.43183
0.258787
0.280631
0.315282
0.379803
0.471747
0.579805
0.669153
0.690324
0.656246
0.601395
0.505727
0.344491
0.272415
0.331595
0.634348
0.763602
0.535236
0.488144
0.509579
0.278712
0.295066
0.312406
0.355982
0.431424
0.534363
0.638148
0.685174
0.651836
0.573986
0.464642
0.292534
0.208225
0.215259
0.287681
0.33559
0.285843
0.264146
0.248821
0.3018
0.318853
0.321947
0.343389
0.392284
0.470867
0.563495
0.620748
0.606928
0.551128
0.453782
0.275095
0.18498
0.161849
0.164683
0.194343
0.177017
0.153932
0.1697
0.325561
0.350141
0.35333
0.360695
0.387206
0.437251
0.503242
0.557422
0.583822
0.593794
0.474905
0.28045
0.180437
0.135312
0.113346
0.134602
0.121774
0.0984359
0.0930029
0.343189
0.379562
0.396598
0.406433
0.419776
0.45633
0.520604
0.596659
0.674281
0.724859
0.494493
0.29326
0.181462
0.123262
0.0940993
0.111756
0.0943297
0.0762162
0.0703832
0.344131
0.387021
0.416337
0.438972
0.457915
0.49346
0.55701
0.642641
0.73207
0.739398
0.500852
0.303149
0.180357
0.114905
0.0833958
0.0993996
0.0804404
0.0648332
0.0525769
0.0617112
0.0624287
0.0690906
0.0713866
0.0737108
0.0812893
0.085098
0.0890273
0.0938335
0.11111
0.123885
0.146893
0.142521
0.14857
0.189415
0.185626
0.19959
0.314268
0.302674
0.297957
0.388142
0.774135
0.758664
0.724572
0.687623
0.653441
0.433848
0.40624
0.381044
0.356929
0.333414
0.311656
0.291864
0.273773
0.257277
0.241981
0.228054
0.214786
0.203656
0.195961
0.199493
0.196766
0.196707
0.198949
0.2219
0.320525
0.370098
0.409567
0.462481
0.421063
0.422024
0.45708
0.373995
0.332863
0.293088
0.217839
0.193303
0.191046
0.191268
0.193823
0.191744
0.199708
0.211171
0.224982
0.239413
0.255254
0.272086
0.290411
0.310105
0.332125
0.35694
0.38225
0.409282
0.44082
0.649939
0.683523
0.721131
0.755073
0.76667
0.35655
0.252562
0.251684
0.256731
0.162727
0.148726
0.148836
0.121379
0.117275
0.120668
0.105038
0.094515
0.0779877
0.074777
0.0718846
0.0688719
0.062242
0.0605847
0.0587532
0.0530793
0.0524962
0.287915
0.325893
0.351193
0.370729
0.388094
0.420731
0.477501
0.55402
0.629437
0.59215
0.380814
0.224437
0.134794
0.0898239
0.067721
0.0834783
0.0670235
0.0544445
0.043961
0.285752
0.317136
0.331678
0.341061
0.35461
0.387901
0.442601
0.508542
0.579428
0.598999
0.373921
0.216726
0.136363
0.0961948
0.0760467
0.0929635
0.0782024
0.0631942
0.0578306
0.268608
0.289417
0.293302
0.30173
0.325554
0.36752
0.418393
0.459461
0.485351
0.512148
0.360286
0.205906
0.136263
0.10549
0.0924018
0.110661
0.101097
0.0807719
0.0736514
0.248877
0.263267
0.26713
0.286643
0.327398
0.389989
0.458359
0.493528
0.480051
0.449647
0.346294
0.199326
0.139715
0.126212
0.138816
0.158972
0.146997
0.122644
0.135142
0.23171
0.24571
0.261657
0.298645
0.359966
0.439061
0.513405
0.53792
0.505353
0.448318
0.350353
0.209127
0.158504
0.175136
0.239386
0.285362
0.242203
0.179992
0.181147
0.219199
0.238152
0.268216
0.32166
0.394041
0.474547
0.536339
0.544556
0.512651
0.463836
0.37518
0.247454
0.21322
0.286385
0.632156
0.732431
0.500186
0.371384
0.402501
0.222439
0.248038
0.28916
0.349563
0.416467
0.477279
0.511359
0.511911
0.499026
0.48341
0.429078
0.326208
0.31729
0.463546
1.09647
1.3388
1.32097
0.906621
1.35347
0.227669
0.258499
0.306497
0.363681
0.413798
0.444857
0.456939
0.465723
0.484198
0.517686
0.554618
0.537365
0.624322
1.07625
1.34965
1.07262
0.986069
0.801804
0.638407
0.228061
0.261829
0.309804
0.351974
0.373774
0.37965
0.386289
0.404204
0.432656
0.469385
0.519173
0.555143
0.552054
0.493118
0.411028
0.400089
0.404093
0.450832
0.418538
0.2248
0.259322
0.301183
0.321928
0.321633
0.322547
0.335582
0.358081
0.379808
0.399119
0.428799
0.468012
0.489523
0.511636
0.597976
0.66556
0.711813
0.770514
0.771443
0.229626
0.267209
0.3145
0.336109
0.330702
0.326711
0.33688
0.358399
0.380612
0.400924
0.431028
0.471519
0.499441
0.522693
0.604854
0.66772
0.708242
0.765306
0.766647
0.242328
0.280149
0.337956
0.392178
0.419925
0.420651
0.415218
0.424396
0.450843
0.490526
0.547017
0.599877
0.584193
0.506723
0.423626
0.40937
0.414571
0.467842
0.434181
0.252873
0.287872
0.344568
0.418397
0.487272
0.527444
0.533466
0.53227
0.552052
0.604774
0.679039
0.681865
0.744732
1.17386
1.51739
1.22139
1.09431
0.847097
0.670931
0.25681
0.286212
0.334111
0.409312
0.498253
0.580512
0.628584
0.628876
0.616262
0.611701
0.577892
0.451013
0.404796
0.53603
1.15727
1.48514
1.43849
0.940917
1.43183
0.258787
0.280631
0.315282
0.379803
0.471747
0.579805
0.669153
0.690324
0.656246
0.601395
0.505727
0.344491
0.272415
0.331595
0.634348
0.763602
0.535236
0.488144
0.509579
0.278712
0.295066
0.312406
0.355982
0.431424
0.534363
0.638148
0.685174
0.651836
0.573986
0.464642
0.292534
0.208225
0.215259
0.287681
0.33559
0.285843
0.264146
0.248821
0.3018
0.318853
0.321947
0.343389
0.392284
0.470867
0.563495
0.620748
0.606928
0.551128
0.453782
0.275095
0.18498
0.161849
0.164683
0.194343
0.177017
0.153932
0.1697
0.325561
0.350141
0.35333
0.360695
0.387206
0.437251
0.503242
0.557422
0.583822
0.593794
0.474905
0.28045
0.180437
0.135312
0.113346
0.134602
0.121774
0.0984359
0.0930029
0.343189
0.379562
0.396598
0.406433
0.419776
0.45633
0.520604
0.596659
0.674281
0.724859
0.494493
0.29326
0.181462
0.123262
0.0940993
0.111756
0.0943297
0.0762162
0.0703832
0.344131
0.387021
0.416337
0.438972
0.457915
0.49346
0.55701
0.642641
0.73207
0.739398
0.500852
0.303149
0.180357
0.114905
0.0833958
0.0993996
0.0804404
0.0648332
0.0525769
)
;
    }
    fineplugLeft
    {
        type            cyclicAMI;
        value           nonuniform List<scalar> 
20
(
0.134533
0.0622689
0.0578451
0.0620421
0.0663347
0.0707441
0.0776621
0.0892251
0.108088
0.134779
0.174469
0.238199
0.339465
0.50713
0.739106
0.915925
1.03711
1.29342
3.60001
1.42478
)
;
    }
    fineplugRight
    {
        type            cyclicAMI;
        value           nonuniform List<scalar> 
20
(
0.126716
0.0528187
0.0446035
0.049694
0.0563804
0.0643515
0.075438
0.0938267
0.104854
0.119799
0.169866
0.233492
0.331778
0.493019
0.716037
0.879023
0.991471
1.26071
3.63354
1.42434
)
;
    }
    inletOutletLeft
    {
        type            cyclicAMI;
        value           nonuniform List<scalar> 
20
(
0.134533
0.0622689
0.0578451
0.0620421
0.0663347
0.0707441
0.0776621
0.0892251
0.108088
0.134779
0.174469
0.238199
0.339465
0.50713
0.739106
0.915925
1.03711
1.29342
3.60001
1.42478
)
;
    }
    inletLeft
    {
        type            calculated;
        value           uniform 1.13;
    }
    inletWallsLeft
    {
        type            calculated;
        value           nonuniform List<scalar> 
40
(
0.69133
0.791335
0.929231
1.11528
1.37971
1.6331
1.81804
1.91056
1.91633
1.85499
1.75758
1.6873
1.69259
1.73222
1.76747
1.76486
1.73123
1.70295
1.65563
1.68394
0.119176
0.0969896
0.0746785
0.0569974
0.0447571
0.0363249
0.0309758
0.0273974
0.0310281
0.0333569
0.0321712
0.0473868
0.065895
0.0658237
0.0966739
0.105479
0.0798271
0.0854154
0.100087
0.81093
)
;
    }
    inletFacesLeft
    {
        type            calculated;
        value           nonuniform List<scalar> 
800
(
1.68394
4.30648
1.4271
1.11524
0.973
0.760522
0.516532
0.322772
0.202488
0.128854
0.08512
0.0571964
0.0385654
0.0286343
0.0241108
0.0224231
0.0205391
0.0186098
0.0269222
0.119176
1.65563
3.81644
0.993121
0.856326
0.715448
0.506359
0.315455
0.193657
0.119977
0.0759451
0.0492877
0.0334527
0.0257372
0.0233904
0.023016
0.0227299
0.0208133
0.0188493
0.0264844
0.0969896
1.70295
3.76501
0.856634
0.644727
0.528918
0.38686
0.255931
0.163666
0.103237
0.0651479
0.0417122
0.0296331
0.024964
0.0240022
0.0245988
0.0242689
0.0215749
0.0195441
0.0269687
0.0746785
1.73123
3.85185
0.792888
0.486051
0.383844
0.28648
0.192298
0.122773
0.0760609
0.0468641
0.0306606
0.0233493
0.0220058
0.0240116
0.0256865
0.0250247
0.0211378
0.0191723
0.0268124
0.0569974
1.76486
4.10032
0.796749
0.398265
0.280924
0.193682
0.123412
0.0758716
0.0457203
0.0281307
0.0200833
0.0186115
0.0212501
0.025542
0.0274743
0.0254685
0.0197988
0.0182304
0.0281589
0.0447571
1.76747
4.28079
0.778293
0.326879
0.193861
0.113282
0.0636877
0.0358349
0.0205434
0.0131624
0.0126433
0.0165715
0.022703
0.0285181
0.0292726
0.0247804
0.0171261
0.0169736
0.0305439
0.0363249
1.73222
4.03799
0.686317
0.250072
0.1162
0.0531625
0.0246257
0.0121292
0.00669714
0.00583184
0.0106523
0.0182847
0.0265348
0.0325534
0.0301263
0.0221969
0.0133345
0.016178
0.0345666
0.0309758
1.69259
3.29251
0.528752
0.165201
0.0578392
0.020359
0.00766744
0.00323829
0.00214078
0.00431262
0.0122801
0.0219329
0.0310738
0.0359486
0.0285815
0.0179407
0.00967899
0.0174818
0.0408155
0.0273974
1.6873
2.16417
0.343547
0.0947194
0.0257848
0.00738936
0.00240389
0.000945004
0.00131403
0.00486656
0.0145884
0.0252524
0.0344653
0.0375762
0.025693
0.0148926
0.00770422
0.0229897
0.051428
0.0310281
1.75758
1.24879
0.201734
0.0496563
0.0117083
0.00310836
0.000964856
0.000426169
0.0014161
0.00576011
0.0159765
0.0270657
0.036029
0.0386819
0.0260504
0.0147434
0.00759225
0.0335894
0.0710425
0.0333569
1.85499
0.764849
0.128763
0.0277413
0.00629145
0.0016151
0.000503142
0.000316056
0.00175602
0.00630275
0.0161214
0.0274337
0.0367996
0.0415267
0.0307245
0.0192776
0.0109459
0.0499567
0.103107
0.0321712
1.91633
0.528715
0.0821633
0.0155229
0.00345302
0.000874983
0.000284028
0.000340984
0.00217552
0.00676399
0.0158699
0.0272196
0.0375733
0.0443092
0.0399446
0.0296405
0.0189
0.0613911
0.143105
0.0473868
1.91056
0.382269
0.0517702
0.00842226
0.00166468
0.000392504
0.000141385
0.00050596
0.00283526
0.00773801
0.0168452
0.0285315
0.0400347
0.0483663
0.0513306
0.0437184
0.0319055
0.0524113
0.136263
0.065895
1.81804
0.25093
0.0239664
0.0027797
0.000444259
8.64298e-05
7.5666e-05
0.00098206
0.0040086
0.0100044
0.0207366
0.0346864
0.0490565
0.0592981
0.0655069
0.0598798
0.046636
0.0476977
0.0831697
0.0658237
1.6331
0.116039
0.00434006
0.00023973
1.74317e-05
4.83521e-06
0.000125902
0.00159977
0.00583196
0.0141851
0.029119
0.049414
0.0713977
0.085806
0.0948257
0.0880878
0.0616307
0.0470185
0.0688654
0.0966739
1.37971
0.023704
1.26124e-05
1.27573e-08
7.97553e-08
1.26957e-05
0.000415053
0.00251439
0.00813776
0.0197193
0.0414309
0.0735357
0.107878
0.121655
0.122618
0.105072
0.0777403
0.0838962
0.0772043
0.105479
1.11528
0.0137694
3.01701e-06
1.5008e-09
3.65044e-07
6.93895e-05
0.000500747
0.00212887
0.00667625
0.0163237
0.033401
0.0542546
0.0686353
0.0776744
0.0960515
0.1229
0.118781
0.0974039
0.127077
0.0798271
0.929231
0.0071209
4.33687e-08
1.9754e-08
1.98865e-08
2.99843e-07
1.80174e-05
0.000110499
0.000306403
0.000693539
0.00134959
0.00227831
0.00346474
0.00497112
0.00716364
0.0109938
0.0197319
0.0834405
0.102142
0.0854154
0.791335
0.00129647
2.0242e-06
1.89078e-06
1.83655e-06
1.75906e-06
1.69625e-06
1.63298e-06
1.57472e-06
1.51914e-06
1.46435e-06
1.40776e-06
1.34509e-06
1.27327e-06
1.192e-06
1.11427e-06
1.17968e-06
4.86805e-06
0.00159904
0.100087
0.69133
0.000691937
0.000656676
0.000656236
0.000656382
0.000656279
0.000656329
0.000656422
0.000656396
0.000656401
0.000656358
0.000656403
0.000656484
0.000656401
0.000656391
0.000656392
0.000656498
0.000664729
0.00234184
0.81093
1.68394
4.30648
1.4271
1.11524
0.973
0.760522
0.516532
0.322772
0.202488
0.128854
0.08512
0.0571964
0.0385654
0.0286343
0.0241108
0.0224231
0.0205391
0.0186098
0.0269222
0.119176
1.65563
3.81644
0.993121
0.856326
0.715448
0.506359
0.315455
0.193657
0.119977
0.0759451
0.0492877
0.0334527
0.0257372
0.0233904
0.023016
0.0227299
0.0208133
0.0188493
0.0264844
0.0969896
1.70295
3.76501
0.856634
0.644727
0.528918
0.38686
0.255931
0.163666
0.103237
0.0651479
0.0417122
0.0296331
0.024964
0.0240022
0.0245988
0.0242689
0.0215749
0.0195441
0.0269687
0.0746785
1.73123
3.85185
0.792888
0.486051
0.383844
0.28648
0.192298
0.122773
0.0760609
0.0468641
0.0306606
0.0233493
0.0220058
0.0240116
0.0256865
0.0250247
0.0211378
0.0191723
0.0268124
0.0569974
1.76486
4.10032
0.796749
0.398265
0.280924
0.193682
0.123412
0.0758716
0.0457203
0.0281307
0.0200833
0.0186115
0.0212501
0.025542
0.0274743
0.0254685
0.0197988
0.0182304
0.0281589
0.0447571
1.76747
4.28079
0.778293
0.326879
0.193861
0.113282
0.0636877
0.0358349
0.0205434
0.0131624
0.0126433
0.0165715
0.022703
0.0285181
0.0292726
0.0247804
0.0171261
0.0169736