/*--------------------------------*- C++ -*----------------------------------*\
| =========                 |                                                 |
| \\      /  F ield         | OpenFOAM: The Open Source CFD Toolbox           |
|  \\    /   O peration     | Version:  4.1                                   |
|   \\  /    A nd           | Web:      www.OpenFOAM.org                      |
|    \\/     M anipulation  |                                                 |
\*---------------------------------------------------------------------------*/
FoamFile
{
    version     2.0;
    format      ascii;
    class       volScalarField;
    location    "4";
    object      nut;
}
// * * * * * * * * * * * * * * * * * * * * * * * * * * * * * * * * * * * * * //

dimensions      [0 2 -1 0 0 0 0];

internalField   nonuniform List<scalar> 
1280
(
3.00097
5.32491
3.18691
3.24038
5.81144
3.48269
3.56915
3.65721
6.64895
4.1154
4.35564
8.44247
4.70488
4.86773
10.2957
5.64068
5.79227
13.6025
7.30884
7.0585
0.247692
0.24728
0.258393
0.285363
0.302985
0.320254
0.27034
0.328312
0.325593
0.322092
0.321069
0.319394
0.318405
0.315542
0.313404
0.308243
0.303197
0.296485
0.289496
0.26787
9.43921
5.22328
5.20864
5.21505
9.52334
6.63705
7.40131
7.83765
14.2919
7.39485
7.35809
13.9706
7.02538
6.5384
6.10038
9.60394
5.19052
5.17913
5.18992
9.34799
0.257637
0.278353
0.280462
0.298143
0.298988
0.311828
0.311417
0.318178
0.317399
0.319653
0.319339
0.320076
0.308953
0.31444
0.315326
0.292728
0.280095
0.253403
0.244674
0.210628
6.01929
6.04154
10.8035
4.90219
4.64636
8.14512
4.17076
4.08827
7.29173
3.88833
3.70547
5.96547
3.31485
3.2536
3.18414
5.30716
2.96841
2.9224
4.88187
2.75172
7.56213
7.87569
8.79065
9.81356
11.038
12.5069
14.4532
17.4787
19.6901
18.869
25.8798
17.0488
8.54738
4.59296
3.05298
4.47665
3.70997
3.79647
3.02249
7.15888
7.26738
7.66831
8.06892
8.5558
9.26056
11.9005
16.5879
22.3466
19.468
25.8149
15.9957
8.58621
4.9078
3.35585
4.94968
4.74339
4.73865
4.74143
6.93332
6.57349
6.68932
6.12791
6.08169
6.6155
8.26955
12.2413
21.7557
21.8607
26.8014
15.7088
8.45738
5.91349
4.58718
6.51141
5.47688
6.28156
5.20974
6.11447
5.91278
5.67118
5.16606
5.12055
6.0907
8.02372
10.0788
22.7671
27.9784
27.0705
15.4152
8.8714
5.24803
9.17077
6.19737
6.92653
8.40891
7.90211
5.97291
5.3581
5.35892
5.00379
5.85102
6.74278
7.9484
9.13586
16.8907
30.4399
27.4021
15.795
8.33035
6.35108
3.2157
4.90188
4.85161
6.81421
6.2372
5.8124
5.15925
5.1944
5.65442
6.443
6.77895
7.86633
8.51218
12.2543
26.4449
28.5866
25.5368
17.9251
7.43913
4.68228
5.87431
4.97118
8.97785
5.77807
6.35401
5.70356
6.12837
6.74347
6.64523
6.71352
7.12752
7.20103
7.76476
12.4117
17.6452
9.49551
4.98876
2.48794
5.42041
7.9697
8.08593
6.9895
4.69865
6.83322
6.34062
7.1902
7.3941
7.4641
7.15906
6.59556
6.25226
6.0705
6.57696
7.70861
6.96073
4.07111
4.93025
6.8908
5.54533
4.40046
3.73027
2.38184
6.99316
6.61808
7.24433
7.29553
7.36291
6.7358
5.9939
5.38229
4.95553
4.60864
4.37622
4.34913
3.93272
3.86051
3.46428
3.07238
2.62111
2.75275
3.24228
6.8867
6.37862
6.48502
6.67096
6.32333
5.83752
5.37185
5.13375
4.99603
4.85388
4.64881
4.62764
4.92865
5.20141
4.83761
5.11207
4.87552
5.0878
5.02037
7.03816
6.65056
6.79819
7.13924
6.58977
6.04489
5.49247
5.22754
5.07599
4.93988
4.74914
4.84471
5.10258
5.1882
4.84438
5.06445
4.79687
4.9682
4.94956
7.3515
7.07323
8.09013
8.43473
8.6265
7.94801
6.92128
6.15314
5.50641
4.83173
4.39938
4.46213
3.98924
3.89046
3.42484
3.01468
2.52907
2.67168
3.28824
7.64792
7.17367
8.35398
8.91746
9.28606
8.95997
8.01398
7.22364
6.54455
6.72435
7.65618
7.38016
4.91431
5.07226
7.48234
6.25376
4.8818
3.73838
2.45857
7.56096
6.82921
7.40017
8.41967
8.51287
8.18254
8.73901
8.69443
9.18243
11.7482
22.3701
16.0922
7.68035
3.53194
5.69245
8.95278
8.93166
6.59683
4.80722
7.10669
6.28932
6.30725
6.91535
7.92829
8.37831
9.50748
10.1748
12.903
24.1047
36.948
24.1035
15.1054
7.35282
4.61889
6.24779
4.81881
83.1258
11.2786
7.48961
6.71024
6.62648
6.146
7.08264
8.18592
9.22828
10.4736
16.417
29.8883
31.5225
23.5865
12.3025
8.02973
5.0454
6.28368
7.12072
12.7448
10.6831
7.78082
7.37386
7.04133
6.26499
6.09426
6.95329
8.9164
10.7453
21.0212
28.7018
26.4903
22.5549
13.4107
10.2397
6.33477
8.39567
7.78181
12.5393
11.5514
8.88192
8.21513
8.10198
7.16382
6.92434
6.98095
8.59018
11.4193
22.7464
25.9112
27.7607
21.3018
12.4617
7.45672
6.71192
7.48173
6.83572
7.27886
6.83753
8.87089
8.69932
9.07699
9.31099
9.5372
9.63027
12.0338
16.8751
23.7189
21.2335
29.5713
22.1148
12.4935
7.24748
4.5558
6.72079
5.98938
6.31487
6.01962
9.39441
9.33584
10.1806
11.0778
12.098
13.3014
15.3563
18.7514
20.2364
20.0997
27.4391
22.725
12.4892
6.47293
4.00812
5.62696
4.69223
4.8051
3.74106
0.431434
1.09272
0.492857
0.54459
0.565947
0.564285
0.529776
0.573525
1.22991
1.5689
2.22191
1.13949
0.593997
0.37878
0.287431
1.1425
0.481847
0.141107
0.0292134
0.107341
0.426936
0.997883
0.353396
0.468866
0.505639
0.525958
0.464156
0.414807
0.358825
0.340365
0.360191
0.179669
0.146983
0.391234
0.313534
0.394764
0.297883
0.117766
0.0201133
0.0975533
0.433651
0.955625
0.306265
0.400276
0.461195
0.400203
0.39328
0.388452
0.438385
0.487988
0.487179
1.4575
2.6888
0.722527
0.501412
0.461702
0.294982
0.104983
0.017869
0.0868062
0.436806
0.894813
0.256769
0.281712
0.339344
0.427261
0.460824
0.457528
0.420973
0.379479
0.396734
0.356798
0.391491
0.569153
0.45083
0.435801
0.231624
0.0760259
0.0140782
0.0774618
0.440081
0.906028
0.244395
0.244037
0.291693
0.365276
0.435264
0.473442
0.467101
0.466238
0.465582
0.463781
0.407552
0.562599
0.442998
0.255282
0.114557
0.0465487
0.0126503
0.0704925
0.43646
0.953468
0.235952
0.206601
0.279859
0.356511
0.371669
0.318326
0.255868
0.166034
0.201978
0.327353
0.41696
0.431918
0.256935
0.133949
0.048111
0.0281307
0.0119304
0.0651112
0.426756
0.953419
0.23797
0.206489
0.222673
0.214291
0.225772
0.250874
0.144307
0.0450239
0.132454
0.312063
0.350428
0.261927
0.126917
0.0525247
0.017565
0.0176266
0.0121623
0.061477
0.416422
0.984714
0.233354
0.153927
0.102782
0.101152
0.0544559
0.0236641
0.0109413
0.0247656
0.149655
0.209759
0.198105
0.132347
0.0510201
0.0189714
0.00750373
0.0135454
0.0128898
0.0588038
0.412633
0.780503
0.210884
0.106391
0.0598259
0.0314743
0.0121971
0.00364157
0.00481366
0.0219801
0.113162
0.124886
0.109153
0.0659858
0.0226056
0.0106963
0.00460921
0.0136657
0.0147686
0.0650945
0.421379
0.440813
0.106035
0.0408295
0.0164559
0.0126139
0.00403359
0.000573405
0.0048524
0.0282674
0.0730078
0.0796877
0.0652205
0.0424345
0.0184444
0.00804509
0.00328569
0.014507
0.0195573
0.061926
0.433151
0.248989
0.102939
0.0410304
0.0207772
0.00771137
0.00212206
0.000206561
0.00647561
0.0209533
0.0524965
0.0596578
0.0516925
0.0418339
0.0190685
0.00891751
0.00439653
0.0209204
0.0287204
0.0616513
0.440014
0.165936
0.0428517
0.0130214
0.00630107
0.00252487
0.000919579
0.000149107
0.00653419
0.0167584
0.0406104
0.049012
0.0467765
0.0403463
0.0238081
0.0132276
0.00724416
0.029099
0.0441161
0.0765279
0.439216
0.113966
0.0349033
0.0166508
0.00353132
0.00107444
0.000117044
0.000271761
0.00675313
0.0134036
0.0299013
0.0361832
0.0367751
0.0336053
0.0297559
0.01792
0.0115873
0.0225701
0.0474794
0.0776566
0.427831
0.0798803
0.0182826
0.00253714
0.000809376
3.73581e-05
2.14635e-05
0.000652649
0.00634292
0.0113903
0.0211103
0.0251885
0.0276395
0.0268438
0.0269557
0.020093
0.0147777
0.0148062
0.0267
0.0715998
0.404224
0.0392453
0.00829231
0.0895627
4.99755e-06
1.01071e-07
3.16827e-05
0.000911362
0.00457599
0.00972267
0.0154483
0.0191704
0.024086
0.0275719
0.0348108
0.0301613
0.0188875
0.0139949
0.0235045
0.110888
0.369882
0.00656073
1.27979e-06
1.61742e-11
7.10106e-11
4.10414e-07
0.000125272
0.00126809
0.00558968
0.0122655
0.0197798
0.0276858
0.0418884
0.0506358
0.0633508
0.0563601
0.0328376
0.0390009
0.0524847
0.108409
0.333745
0.00142657
4.7192e-08
2.20004e-13
1.93094e-09
1.44071e-05
0.000125128
0.0009105
0.00642111
0.0193203
0.0448633
0.0731363
0.0717102
0.0586812
0.0507563
0.0710189
0.0833559
0.063621
0.082974
0.0902437
0.305957
0.000346857
8.36847e-12
3.71995e-12
4.03895e-12
3.90978e-10
1.57842e-07
2.28281e-06
1.55336e-05
6.27038e-05
0.000237164
0.000629505
0.0013658
0.00268565
0.00506152
0.00923469
0.0167138
0.031499
0.0520204
0.0772067
0.281251
4.59276e-06
2.55725e-10
2.37348e-10
2.30945e-10
2.20905e-10
2.1325e-10
2.05699e-10
1.9835e-10
1.91699e-10
1.8458e-10
1.77586e-10
1.70166e-10
1.60796e-10
1.50369e-10
1.41421e-10
1.70522e-10
3.00187e-09
6.15913e-05
0.0944395
0.262523
5.53886e-08
5.09597e-08
5.08034e-08
5.08524e-08
5.0803e-08
5.08274e-08
5.08791e-08
5.08628e-08
5.08647e-08
5.08407e-08
5.08646e-08
5.0908e-08
5.08608e-08
5.08518e-08
5.08486e-08
5.09226e-08
5.4296e-08
6.01567e-07
0.352711
0.262519
5.53951e-08
5.09608e-08
5.08005e-08
5.08622e-08
5.08364e-08
5.08296e-08
5.08343e-08
5.08565e-08
5.08229e-08
5.08605e-08
5.09059e-08
5.08602e-08
5.08505e-08
5.08515e-08
5.08489e-08
5.09193e-08
5.42965e-08
6.01336e-07
0.352841
0.281253
4.73501e-06
2.55822e-10
2.37493e-10
2.31223e-10
2.21448e-10
2.13631e-10
2.05863e-10
1.98788e-10
1.91692e-10
1.85041e-10
1.78178e-10
1.70028e-10
1.60954e-10
1.50537e-10
1.41409e-10
1.70154e-10
2.74554e-09
5.59128e-05
0.0921056
0.305998
0.000364516
8.26247e-12
3.74722e-12
4.25095e-12
3.76568e-10
1.66438e-07
2.57652e-06
1.67971e-05
5.94399e-05
0.000232843
0.000602894
0.00131919
0.00247521
0.00451451
0.00835432
0.0158174
0.0283832
0.0476832
0.0742644
0.333752
0.00167315
3.46838e-08
5.55467e-13
2.82999e-09
9.03273e-06
0.000184588
0.00194584
0.0115328
0.0326759
0.0655926
0.0847028
0.0775165
0.059916
0.0494543
0.0665213
0.0795081
0.0577512
0.0819713
0.0883479
0.369814
0.00554872
1.56778e-06
2.74244e-11
1.01236e-09
1.24364e-05
0.000294253
0.00227979
0.00736236
0.0145438
0.0228681
0.033889
0.0459191
0.0530427
0.069408
0.0637308
0.0313438
0.0312353
0.0427058
0.102275
0.404112
0.0440832
0.00404207
0.000253887
5.80663e-06
3.51934e-05
6.46002e-05
0.00183076
0.00667961
0.0136697
0.0194628
0.0250217
0.0284143
0.0317437
0.0370483
0.0333416
0.0180413
0.0103353
0.0143459
0.104673
0.427831
0.0786589
0.024688
0.0104059
0.00184503
0.000365393
2.89225e-05
0.00134673
0.00766697
0.0151687
0.0244636
0.0297985
0.0296975
0.0285905
0.0217667
0.0176981
0.00962086
0.00642826
0.0206203
0.0711033
0.439242
0.114448
0.0288825
0.0105267
0.00613182
0.00206956
6.18227e-05
0.00113485
0.00817285
0.0178449
0.0295767
0.036921
0.0324585
0.0305755
0.0183408
0.0121239
0.0058171
0.00390411
0.0394317
0.0665237
0.440139
0.161162
0.0563002
0.0255887
0.00735178
0.00262878
0.000216284
0.000577013
0.00840262
0.0207857
0.0338724
0.0427046
0.0341539
0.0273225
0.0135116
0.006953
0.00283888
0.00273208
0.0435161
0.0714892
0.432992
0.261268
0.0611327
0.0242178
0.0166534
0.00693021
0.000564803
0.000559173
0.00961966
0.022577
0.0377407
0.0428841
0.0320541
0.0195221
0.00913628
0.00377009
0.00116302
0.00213847
0.0281675
0.0589568
0.421468
0.424231
0.140984
0.0624842
0.0225629
0.00831442
0.0018423
0.000667628
0.0058981
0.0266962
0.0431542
0.0455914
0.0295981
0.0144347
0.00627113
0.00248795
0.000697433
0.00157935
0.0184885
0.0596535
0.412683
0.776558
0.165276
0.090939
0.0681744
0.0393885
0.0107043
0.00418931
0.00609816
0.0270521
0.0451517
0.0540081
0.0335428
0.0126747
0.0049249
0.00213302
0.000634762
0.00112513
0.0127722
0.0611044
0.416388
0.9876
0.227904
0.175935
0.122443
0.0694679
0.0331838
0.0121169
0.00959643
0.0213869
0.0529315
0.0599949
0.0495134
0.0151724
0.00573051
0.00234711
0.000763249
0.000845927
0.00984266
0.0527681
0.427098
0.956263
0.226233
0.2042
0.224707
0.222827
0.18466
0.133802
0.0598102
0.035745
0.0351195
0.0788694
0.0623338
0.0311211
0.00985251
0.00346379
0.00122507
0.000848594
0.00831351
0.0527056
0.435789
0.929653
0.223031
0.202651
0.283413
0.314811
0.306017
0.268269
0.236393
0.105888
0.0564131
0.0647099
0.0911241
0.0411379
0.0177784
0.00706959
0.00243849
0.00113767
0.00749707
0.0551914
0.439108
0.900005
0.234699
0.231375
0.275736
0.324921
0.369824
0.389241
0.385633
0.367313
0.146433
0.116518
0.117842
0.0637073
0.0352263
0.0153639
0.00546136
0.00183101
0.00739965
0.0602453
0.436905
0.916119
0.248704
0.258498
0.322066
0.443032
0.490858
0.472902
0.495689
0.449782
0.361841
0.204815
0.124531
0.0820068
0.0520367
0.0261697
0.00829762
0.00294705
0.00794248
0.0676413
0.434897
0.973955
0.299564
0.367253
0.436283
0.366711
0.417164
0.394922
0.468871
0.52525
0.574848
0.328312
0.225663
0.130368
0.07119
0.0445583
0.0102143
0.00333232
0.00984357
0.0777902
0.427684
0.996603
0.313152
0.422922
0.460912
0.480079
0.504132
0.478846
0.394655
0.364515
0.390007
0.29143
0.152166
0.111737
0.0673173
0.0379983
0.0116045
0.00359711
0.0118973
0.0893925
0.432475
1.09509
0.457277
0.49152
0.513995
0.531074
0.490222
0.530179
1.21718
1.47919
1.37029
39.0355
0.808849
0.315478
0.131301
0.123047
0.02546
0.0121894
0.0130166
0.100072
)
;

boundaryField
{
    outletWall
    {
        type            calculated;
        value           nonuniform List<scalar> 
60
(
2.75172
3.02249
3.79647
3.70997
4.47665
3.05298
4.59296
8.54738
17.0488
25.8798
18.869
19.6901
17.4787
14.4532
12.5069
11.038
9.81356
8.79065
7.87569
7.56213
9.39441
8.87089
8.88192
7.78082
7.48961
7.10669
7.56096
7.64792
7.3515
7.03816
6.8867
6.99316
6.83322
6.35401
5.8124
5.97291
6.11447
6.93332
7.15888
7.56213
3.00097
3.74106
4.8051
4.69223
5.62696
4.00812
6.47293
12.4892
22.725
27.4391
20.0997
20.2364
18.7514
15.3563
13.3014
12.098
11.0778
10.1806
9.33584
9.39441
)
;
    }
    fineWalls
    {
        type            nutkWallFunction;
        Cmu             0.09;
        kappa           0.41;
        E               9.8;
        value           nonuniform List<scalar> 
60
(
0.387726
0.390589
0.677281
0.321405
0.310679
0.534045
0.279945
0.274555
0.474024
0.257142
0.244387
0.384231
0.22035
0.215752
0.211187
0.343168
0.198757
0.195746
0.317497
0.185692
0.545137
0.315062
0.314892
0.316627
0.575846
0.384746
0.408378
0.431293
0.81552
0.45642
0.455932
0.820034
0.450055
0.429181
0.401216
0.580858
0.320921
0.319224
0.319269
0.552562
0.172193
0.294288
0.181483
0.184102
0.317052
0.195456
0.199403
0.20311
0.35235
0.226595
0.238052
0.432283
0.250635
0.254697
0.476955
0.280082
0.29212
0.615945
0.358261
0.358845
)
;
    }
    fineFrontAndBack
    {
        type            calculated;
        value           nonuniform List<scalar> 
960
(
3.00097
5.32491
3.18691
3.24038
5.81144
3.48269
3.56915
3.65721
6.64895
4.1154
4.35564
8.44247
4.70488
4.86773
10.2957
5.64068
5.79227
13.6025
7.30884
7.0585
1.35589e+13
0.24728
0.258393
0.285363
0.302985
0.320254
0.27034
0.328312
0.325593
0.322092
0.321069
0.319394
0.318405
0.315542
0.313404
0.308243
0.303197
0.296485
0.289496
0.26787
9.43921
5.22328
5.20864
5.21505
9.52334
6.63705
7.40131
7.83765
14.2919
7.39485
7.35809
13.9706
7.02538
6.5384
6.10038
9.60394
5.19052
5.17913
5.18992
9.34799
0.257637
0.278353
0.280462
0.298143
0.298988
0.311828
0.311417
0.318178
0.317399
0.319653
0.319339
0.320076
0.308953
0.31444
0.315326
0.292728
0.280095
0.253403
0.244674
1.14415e+13
6.01929
6.04154
10.8035
4.90219
4.64636
8.14512
4.17076
4.08827
7.29173
3.88833
3.70547
5.96547
3.31485
3.2536
3.18414
5.30716
2.96841
2.9224
4.88187
2.75172
7.56213
7.87569
8.79065
9.81356
11.038
12.5069
14.4532
17.4787
19.6901
18.869
25.8798
17.0488
8.54738
4.59296
3.05298
4.47665
3.70997
3.79647
3.02249
7.15888
7.26738
7.66831
8.06892
8.5558
9.26056
11.9005
16.5879
22.3466
19.468
25.8149
15.9957
8.58621
4.9078
3.35585
4.94968
4.74339
4.73865
4.74143
6.93332
6.57349
6.68932
6.12791
6.08169
6.6155
8.26955
12.2413
21.7557
21.8607
26.8014
15.7088
8.45738
5.91349
4.58718
6.51141
5.47688
6.28156
5.20974
6.11447
5.91278
5.67118
5.16606
5.12055
6.0907
8.02372
10.0788
22.7671
27.9784
27.0705
15.4152
8.8714
5.24803
9.17077
6.19737
6.92653
8.40891
7.90211
5.97291
5.3581
5.35892
5.00379
5.85102
6.74278
7.9484
9.13586
16.8907
30.4399
27.4021
15.795
8.33035
6.35108
3.2157
4.90188
4.85161
6.81421
6.2372
5.8124
5.15925
5.1944
5.65442
6.443
6.77895
7.86633
8.51218
12.2543
26.4449
28.5866
25.5368
17.9251
7.43913
4.68228
5.87431
4.97118
8.97785
5.77807
6.35401
5.70356
6.12837
6.74347
6.64523
6.71352
7.12752
7.20103
7.76476
12.4117
17.6452
9.49551
4.98876
2.48794
5.42041
7.9697
8.08593
6.9895
4.69865
6.83322
6.34062
7.1902
7.3941
7.4641
7.15906
6.59556
6.25226
6.0705
6.57696
7.70861
6.96073
4.07111
4.93025
6.8908
5.54533
4.40046
3.73027
2.38184
6.99316
6.61808
7.24433
7.29553
7.36291
6.7358
5.9939
5.38229
4.95553
4.60864
4.37622
4.34913
3.93272
3.86051
3.46428
3.07238
2.62111
2.75275
3.24228
6.8867
6.37862
6.48502
6.67096
6.32333
5.83752
5.37185
5.13375
4.99603
4.85388
4.64881
4.62764
4.92865
5.20141
4.83761
5.11207
4.87552
5.0878
5.02037
7.03816
6.65056
6.79819
7.13924
6.58977
6.04489
5.49247
5.22754
5.07599
4.93988
4.74914
4.84471
5.10258
5.1882
4.84438
5.06445
4.79687
4.9682
4.94956
7.3515
7.07323
8.09013
8.43473
8.6265
7.94801
6.92128
6.15314
5.50641
4.83173
4.39938
4.46213
3.98924
3.89046
3.42484
3.01468
2.52907
2.67168
3.28824
7.64792
7.17367
8.35398
8.91746
9.28606
8.95997
8.01398
7.22364
6.54455
6.72435
7.65618
7.38016
4.91431
5.07226
7.48234
6.25376
4.8818
3.73838
2.45857
7.56096
6.82921
7.40017
8.41967
8.51287
8.18254
8.73901
8.69443
9.18243
11.7482
22.3701
16.0922
7.68035
3.53194
5.69245
8.95278
8.93166
6.59683
4.80722
7.10669
6.28932
6.30725
6.91535
7.92829
8.37831
9.50748
10.1748
12.903
24.1047
36.948
24.1035
15.1054
7.35282
4.61889
6.24779
4.81881
83.1258
11.2786
7.48961
6.71024
6.62648
6.146
7.08264
8.18592
9.22828
10.4736
16.417
29.8883
31.5225
23.5865
12.3025
8.02973
5.0454
6.28368
7.12072
12.7448
10.6831
7.78082
7.37386
7.04133
6.26499
6.09426
6.95329
8.9164
10.7453
21.0212
28.7018
26.4903
22.5549
13.4107
10.2397
6.33477
8.39567
7.78181
12.5393
11.5514
8.88192
8.21513
8.10198
7.16382
6.92434
6.98095
8.59018
11.4193
22.7464
25.9112
27.7607
21.3018
12.4617
7.45672
6.71192
7.48173
6.83572
7.27886
6.83753
8.87089
8.69932
9.07699
9.31099
9.5372
9.63027
12.0338
16.8751
23.7189
21.2335
29.5713
22.1148
12.4935
7.24748
4.5558
6.72079
5.98938
6.31487
6.01962
9.39441
9.33584
10.1806
11.0778
12.098
13.3014
15.3563
18.7514
20.2364
20.0997
27.4391
22.725
12.4892
6.47293
4.00812
5.62696
4.69223
4.8051
3.74106
3.00097
5.32491
3.18691
3.24038
5.81144
3.48269
3.56915
3.65721
6.64895
4.1154
4.35564
8.44247
4.70488
4.86773
10.2957
5.64068
5.79227
13.6025
7.30884
7.0585
1.35589e+13
0.24728
0.258393
0.285363
0.302985
0.320254
0.27034
0.328312
0.325593
0.322092
0.321069
0.319394
0.318405
0.315542
0.313404
0.308243
0.303197
0.296485
0.289496
0.26787
9.43921
5.22328
5.20864
5.21505
9.52334
6.63705
7.40131
7.83765
14.2919
7.39485
7.35809
13.9706
7.02538
6.5384
6.10038
9.60394
5.19052
5.17913
5.18992
9.34799
0.257637
0.278353
0.280462
0.298143
0.298988
0.311828
0.311417
0.318178
0.317399
0.319653
0.319339
0.320076
0.308953
0.31444
0.315326
0.292728
0.280095
0.253403
0.244674
1.14415e+13
6.01929
6.04154
10.8035
4.90219
4.64636
8.14512
4.17076
4.08827
7.29173
3.88833
3.70547
5.96547
3.31485
3.2536
3.18414
5.30716
2.96841
2.9224
4.88187
2.75172
7.56213
7.87569
8.79065
9.81356
11.038
12.5069
14.4532
17.4787
19.6901
18.869
25.8798
17.0488
8.54738
4.59296
3.05298
4.47665
3.70997
3.79647
3.02249
7.15888
7.26738
7.66831
8.06892
8.5558
9.26056
11.9005
16.5879
22.3466
19.468
25.8149
15.9957
8.58621
4.9078
3.35585
4.94968
4.74339
4.73865
4.74143
6.93332
6.57349
6.68932
6.12791
6.08169
6.6155
8.26955
12.2413
21.7557
21.8607
26.8014
15.7088
8.45738
5.91349
4.58718
6.51141
5.47688
6.28156
5.20974
6.11447
5.91278
5.67118
5.16606
5.12055
6.0907
8.02372
10.0788
22.7671
27.9784
27.0705
15.4152
8.8714
5.24803
9.17077
6.19737
6.92653
8.40891
7.90211
5.97291
5.3581
5.35892
5.00379
5.85102
6.74278
7.9484
9.13586
16.8907
30.4399
27.4021
15.795
8.33035
6.35108
3.2157
4.90188
4.85161
6.81421
6.2372
5.8124
5.15925
5.1944
5.65442
6.443
6.77895
7.86633
8.51218
12.2543
26.4449
28.5866
25.5368
17.9251
7.43913
4.68228
5.87431
4.97118
8.97785
5.77807
6.35401
5.70356
6.12837
6.74347
6.64523
6.71352
7.12752
7.20103
7.76476
12.4117
17.6452
9.49551
4.98876
2.48794
5.42041
7.9697
8.08593
6.9895
4.69865
6.83322
6.34062
7.1902
7.3941
7.4641
7.15906
6.59556
6.25226
6.0705
6.57696
7.70861
6.96073
4.07111
4.93025
6.8908
5.54533
4.40046
3.73027
2.38184
6.99316
6.61808
7.24433
7.29553
7.36291
6.7358
5.9939
5.38229
4.95553
4.60864
4.37622
4.34913
3.93272
3.86051
3.46428
3.07238
2.62111
2.75275
3.24228
6.8867
6.37862
6.48502
6.67096
6.32333
5.83752
5.37185
5.13375
4.99603
4.85388
4.64881
4.62764
4.92865
5.20141
4.83761
5.11207
4.87552
5.0878
5.02037
7.03816
6.65056
6.79819
7.13924
6.58977
6.04489
5.49247
5.22754
5.07599
4.93988
4.74914
4.84471
5.10258
5.1882
4.84438
5.06445
4.79687
4.9682
4.94956
7.3515
7.07323
8.09013
8.43473
8.6265
7.94801
6.92128
6.15314
5.50641
4.83173
4.39938
4.46213
3.98924
3.89046
3.42484
3.01468
2.52907
2.67168
3.28824
7.64792
7.17367
8.35398
8.91746
9.28606
8.95997
8.01398
7.22364
6.54455
6.72435
7.65618
7.38016
4.91431
5.07226
7.48234
6.25376
4.8818
3.73838
2.45857
7.56096
6.82921
7.40017
8.41967
8.51287
8.18254
8.73901
8.69443
9.18243
11.7482
22.3701
16.0922
7.68035
3.53194
5.69245
8.95278
8.93166
6.59683
4.80722
7.10669
6.28932
6.30725
6.91535
7.92829
8.37831
9.50748
10.1748
12.903
24.1047
36.948
24.1035
15.1054
7.35282
4.61889
6.24779
4.81881
83.1258
11.2786
7.48961
6.71024
6.62648
6.146
7.08264
8.18592
9.22828
10.4736
16.417
29.8883
31.5225
23.5865
12.3025
8.02973
5.0454
6.28368
7.12072
12.7448
10.6831
7.78082
7.37386
7.04133
6.26499
6.09426
6.95329
8.9164
10.7453
21.0212
28.7018
26.4903
22.5549
13.4107
10.2397
6.33477
8.39567
7.78181
12.5393
11.5514
8.88192
8.21513
8.10198
7.16382
6.92434
6.98095
8.59018
11.4193
22.7464
25.9112
27.7607
21.3018
12.4617
7.45672
6.71192
7.48173
6.83572
7.27886
6.83753
8.87089
8.69932
9.07699
9.31099
9.5372
9.63027
12.0338
16.8751
23.7189
21.2335
29.5713
22.1148
12.4935
7.24748
4.5558
6.72079
5.98938
6.31487
6.01962
9.39441
9.33584
10.1806
11.0778
12.098
13.3014
15.3563
18.7514
20.2364
20.0997
27.4391
22.725
12.4892
6.47293
4.00812
5.62696
4.69223
4.8051
3.74106
)
;
    }
    fineplugLeft
    {
        type            cyclicAMI;
        value           nonuniform List<scalar> 
20
(
0.139446
0.08127
0.172183
0.446117
0.975648
0.292626
0.366133
0.538879
0.975468
1.84174
1.31954
1.04904
0.524482
0.500276
0.515479
0.513355
0.492745
0.445964
0.923632
0.394685
)
;
    }
    fineplugRight
    {
        type            cyclicAMI;
        value           nonuniform List<scalar> 
20
(
0.131585
0.0660839
0.0658439
0.0799967
0.158235
0.167406
0.314666
0.710715
31.2919
1.16016
1.24722
1.03776
0.485933
0.470234
0.487924
0.469741
0.449235
0.416502
0.92501
0.388106
)
;
    }
    inletOutletLeft
    {
        type            cyclicAMI;
        value           nonuniform List<scalar> 
20
(
0.139446
0.08127
0.172183
0.446117
0.975648
0.292626
0.366133
0.538879
0.975468
1.84174
1.31954
1.04904
0.524482
0.500276
0.515479
0.513355
0.492745
0.445964
0.923632
0.394685
)
;
    }
    inletLeft
    {
        type            calculated;
        value           uniform 5.26945e-05;
    }
    inletWallsLeft
    {
        type            nutkWallFunction;
        Cmu             0.09;
        kappa           0.41;
        E               9.8;
        value           nonuniform List<scalar> 
40
(
0.0207348
0.0220674
0.0237645
0.0258526
0.0285213
0.0308317
0.0323989
0.0331509
0.0331972
0.0327016
0.0318964
0.0313004
0.0313458
0.0316828
0.0319792
0.0319573
0.0316744
0.0314343
0.0310275
0.0312716
0.0092404
0.00840777
0.00745889
0.00659118
0.00590118
0.00536411
0.00498757
0.00471563
0.00499141
0.0051592
0.0050746
0.00605728
0.00704359
0.0070401
0.00839522
0.00873741
0.00769014
0.00793221
0.00852978
0.0223177
)
;
    }
    inletFacesLeft
    {
        type            calculated;
        value           nonuniform List<scalar> 
800
(
0.431434
1.09272
0.492857
0.54459
0.565947
0.564285
0.529776
0.573525
1.22991
1.49431e+12
6.52087e+11
2.94428e+11
1.33856e+11
7.37933e+10
5.23196e+10
1.1425
0.481847
0.141107
0.0292134
0.107341
0.426936
0.997883
0.353396
0.468866
0.505639
0.525958
0.464156
0.414807
0.358825
0.340365
0.360191
0.179669
0.146983
0.391234
0.313534
0.394764
0.297883
0.117766
0.0201133
0.0975533
0.433651
0.955625
0.306265
0.400276
0.461195
0.400203
0.39328
0.388452
0.438385
0.487988
0.487179
1.4575
2.6888
0.722527
0.501412
0.461702
0.294982
0.104983
0.017869
0.0868062
0.436806
0.894813
0.256769
0.281712
0.339344
0.427261
0.460824
0.457528
0.420973
0.379479
0.396734
0.356798
0.391491
0.569153
0.45083
0.435801
0.231624
0.0760259
0.0140782
0.0774618
0.440081
0.906028
0.244395
0.244037
0.291693
0.365276
0.435264
0.473442
0.467101
0.466238
0.465582
0.463781
0.407552
0.562599
0.442998
0.255282
0.114557
0.0465487
0.0126503
0.0704925
0.43646
0.953468
0.235952
0.206601
0.279859
0.356511
0.371669
0.318326
0.255868
0.166034
0.201978
0.327353
0.41696
0.431918
0.256935
0.133949
0.048111
0.0281307
0.0119304
0.0651112
0.426756
0.953419
0.23797
0.206489
0.222673
0.214291
0.225772
0.250874
0.144307
0.0450239
0.132454
0.312063
0.350428
0.261927
0.126917
0.0525247
0.017565
0.0176266
0.0121623
0.061477
0.416422
0.984714
0.233354
0.153927
0.102782
0.101152
0.0544559
0.0236641
0.0109413
0.0247656
0.149655
0.209759
0.198105
0.132347
0.0510201
0.0189714
0.00750373
0.0135454
0.0128898
0.0588038
0.412633
0.780503
0.210884
0.106391
0.0598259
0.0314743
0.0121971
0.00364157
0.00481366
0.0219801
0.113162
0.124886
0.109153
0.0659858
0.0226056
0.0106963
0.00460921
0.0136657
0.0147686
0.0650945
0.421379
0.440813
0.106035
0.0408295
0.0164559
0.0126139
0.00403359
0.000573405
0.0048524
0.0282674
0.0730078
0.0796877
0.0652205
0.0424345
0.0184444
0.00804509
0.00328569
0.014507
0.0195573
0.061926
0.433151
0.248989
0.102939
0.0410304
0.0207772
0.00771137
0.00212206
0.000206561
0.00647561
0.0209533
0.0524965
0.0596578
0.0516925
0.0418339
0.0190685
0.00891751
0.00439653
0.0209204
0.0287204
0.0616513
0.440014
0.165936
0.0428517
0.0130214
0.00630107
0.00252487
0.000919579
0.000149107
0.00653419
0.0167584
0.0406104
0.049012
0.0467765
0.0403463
0.0238081
0.0132276
0.00724416
0.029099
0.0441161
0.0765279
0.439216
0.113966
0.0349033
0.0166508
0.00353132
0.00107444
0.000117044
0.000271761
0.00675313
0.0134036
0.0299013
0.0361832
0.0367751
0.0336053
0.0297559
0.01792
0.0115873
0.0225701
0.0474794
0.0776566
0.427831
0.0798803
0.0182826
0.00253714
0.000809376
3.73581e-05
2.14635e-05
0.000652649
0.00634292
0.0113903
0.0211103
0.0251885
0.0276395
0.0268438
0.0269557
0.020093
0.0147777
0.0148062
0.0267
0.0715998
0.404224
0.0392453
0.00829231
0.0895627
4.99755e-06
1.01071e-07
3.16827e-05
0.000911362
0.00457599
0.00972267
0.0154483
0.0191704
0.024086
0.0275719
0.0348108
0.0301613
0.0188875
0.0139949
0.0235045
0.110888
0.369882
0.00656073
1.27979e-06
1.61742e-11
7.10106e-11
4.10414e-07
0.000125272
0.00126809
0.00558968
0.0122655
0.0197798
0.0276858
0.0418884
0.0506358
0.0633508
0.0563601
0.0328376
0.0390009
0.0524847
0.108409
0.333745
0.00142657
4.7192e-08
2.20004e-13
1.93094e-09
1.44071e-05
0.000125128
0.0009105
0.00642111
0.0193203
0.0448633
0.0731363
0.0717102
0.0586812
0.0507563
0.0710189
0.0833559
0.063621
0.082974
0.0902437
0.305957
0.000346857
8.36847e-12
3.71995e-12
4.03895e-12
3.90978e-10
1.57842e-07
2.28281e-06
1.55336e-05
6.27038e-05
0.000237164
0.000629505
0.0013658
0.00268565
0.00506152
0.00923469
0.0167138
0.031499
0.0520204
0.0772067
0.281251
4.59276e-06
2.55725e-10
2.37348e-10
2.30945e-10
2.20905e-10
2.1325e-10
2.05699e-10
1.9835e-10
1.91699e-10
1.8458e-10
1.77586e-10
1.70166e-10
1.60796e-10
1.50369e-10
1.41421e-10
1.70522e-10
3.00187e-09
6.15913e-05
0.0944395
0.262523
5.53886e-08
5.09597e-08
5.08034e-08
5.08524e-08
5.0803e-08
5.08274e-08
5.08791e-08
5.08628e-08
5.08647e-08
5.08407e-08
5.08646e-08
5.0908e-08
5.08608e-08
5.08518e-08
5.08486e-08
5.09226e-08
5.4296e-08
6.01567e-07
0.352711
0.431434
1.09272
0.492857
0.54459
0.565947
0.564285
0.529776
0.573525
1.22991
1.49431e+12
6.52087e+11
2.94428e+11
1.33856e+11
7.37933e+10
5.23196e+10
1.1425
0.481847
0.141107
0.0292134
0.107341
0.426936
0.997883
0.353396
0.468866
0.505639
0.525958
0.464156
0.414807
0.358825
0.340365
0.360191
0.179669
0.146983
0.391234
0.313534
0.394764
0.297883
0.117766
0.0201133
0.0975533
0.433651
0.955625
0.306265
0.400276
0.461195
0.400203
0.39328
0.388452
0.438385
0.487988
0.487179
1.4575
2.6888
0.722527
0.501412
0.461702
0.294982
0.104983
0.017869
0.0868062
0.436806
0.894813
0.256769
0.281712
0.339344
0.427261
0.460824
0.457528
0.420973
0.379479
0.396734
0.356798
0.391491
0.569153
0.45083
0.435801
0.231624
0.0760259
0.0140782
0.0774618
0.440081
0.906028
0.244395
0.244037
0.291693
0.365276
0.435264
0.473442
0.467101
0.466238
0.465582
0.463781
0.407552
0.562599
0.442998
0.255282
0.114557
0.0465487
0.0126503
0.0704925
0.43646
0.953468
0.235952
0.206601
0.279859
0.356511
0.371669
0.318326
0.255868
0.166034
0.201978
0.327353
0.41696
0.431918
0.256935
0.133949
0.048111
0.0281307
0.0119304
0.0651112
0.426756
0.953419
0.23797
0.206489
0.222673
0.214291
0.225772
0.250874
0.144307
0.0450239
0.132454
0.312063
0.350428
0.261927
0.126917
0.0525247
0.017565
0.0176266
0.0121623
0.061477
0.416422
0.984714
0.233354
0.153927
0.102782
0.101152
0.0544559
0.0236641
0.0109413
0.0247656
0.149655
0.209759
0.198105
0.132347
0.0510201
0.0189714
0.00750373
0.0135454
0.0128898
0.0588038
0.412633
0.780503
0.210884
0.106391
0.0598259
0.0314743
0.0121971
0.00364157
0.00481366
0.0219801
0.113162
0.124886
0.109153
0.0659858
0.0226056
0.0106963
0.00460921
0.0136657
0.0147686
0.0650945
0.421379
0.440813
0.106035
0.0408295
0.0164559
0.0126139
0.00403359
0.000573405
0.0048524
0.0282674
0.0730078
0.0796877
0.0652205
0.0424345
0.0184444
0.00804509
0.00328569
0.014507
0.0195573
0.061926
0.433151
0.248989
0.102939
0.0410304
0.0207772
0.00771137
0.00212206
0.000206561
0.00647561
0.0209533
0.0524965
0.0596578
0.0516925
0.0418339
0.0190685
0.00891751
0.00439653
0.0209204
0.0287204
0.0616513
0.440014
0.165936
0.0428517
0.0130214
0.00630107
0.00252487
0.000919579
0.000149107
0.00653419
0.0167584
0.0406104
0.049012
0.0467765
0.0403463
0.0238081
0.0132276
0.00724416
0.029099
0.0441161
0.0765279
0.439216
0.113966
0.0349033
0.0166508
0.00353132
0.00107444
0.000117044
0.000271761