/*--------------------------------*- C++ -*----------------------------------*\
| =========                 |                                                 |
| \\      /  F ield         | OpenFOAM: The Open Source CFD Toolbox           |
|  \\    /   O peration     | Version:  4.1                                   |
|   \\  /    A nd           | Web:      www.OpenFOAM.org                      |
|    \\/     M anipulation  |                                                 |
\*---------------------------------------------------------------------------*/
FoamFile
{
    version     2.0;
    format      ascii;
    class       volScalarField;
    location    "4";
    object      p;
}
// * * * * * * * * * * * * * * * * * * * * * * * * * * * * * * * * * * * * * //

dimensions      [0 2 -2 0 0 0 0];

internalField   nonuniform List<scalar> 
1280
(
0.176445
-0.0240116
0.140351
0.452558
0.837043
0.929697
0.96973
1.19657
1.20935
1.30038
1.33556
1.34533
1.3462
1.14113
0.926633
-0.678727
-1.39975
-1.86294
-2.32124
-8.90954
-2.96411
6.70143
16.3548
19.8547
20.6477
23.0992
-4.50795
3.76761
2.70693
3.43012
3.78837
3.97
4.26555
4.53183
4.83889
5.1076
5.62025
5.73372
6.71336
5.52025
-23.3779
-14.9495
-8.77257
-5.22324
1.4486
1.80015
1.85565
2.18466
2.17422
2.54249
2.47927
2.19911
2.01622
1.63343
1.59359
1.38421
-5.26915
-8.80021
-14.9455
-23.1669
7.53314
8.88382
8.09555
8.22017
7.90541
7.73325
7.4708
7.21375
6.92645
6.7596
6.40684
5.65607
6.56986
-4.61284
23.2383
20.7696
19.8864
16.2548
6.70142
-2.86136
-8.60367
-1.88494
-1.63425
-1.22558
-0.529278
1.0681
1.2888
1.46578
1.42495
1.40309
1.34851
1.26093
1.21571
0.975141
0.929127
0.841732
0.454272
0.121056
-0.042661
0.18266
0.026046
0.282839
0.310772
0.476372
0.627729
0.706016
0.400712
-0.601913
-1.48627
-2.61202
-4.54521
-1.82968
0.955392
2.70221
3.04286
1.20247
0.0527387
0.120756
0.163754
-0.0709852
0.443407
0.324831
0.374162
0.197963
-0.102803
-0.377253
-0.280639
-0.780611
-2.85608
-5.5524
-0.507554
4.3981
7.53778
7.52199
3.48773
0.499262
0.48524
0.745498
-0.111569
0.765893
0.615698
0.763051
0.661196
0.446291
0.00501842
-0.691087
-2.73715
-4.39968
-7.24896
-0.301701
6.21494
10.0385
9.93302
4.5955
0.602566
0.34559
1.02637
-0.220111
0.867318
0.604307
0.687345
0.53319
0.437134
0.234846
-0.552016
-4.08316
-7.40724
-10.495
-0.876785
8.14325
12.9481
12.6117
5.67594
0.424282
0.260652
2.03823
-0.287957
0.899636
0.611318
0.785614
0.825077
0.988226
0.936943
-0.136861
-5.09886
-10.9245
-12.8883
-1.15846
10.6756
16.2523
14.9097
6.30014
-0.0963039
-0.84517
2.27842
-0.290203
0.805548
0.553069
0.846938
1.1021
1.51345
1.67057
0.661081
-4.82089
-13.1538
-13.9289
-1.38829
13.4083
19.6226
16.1523
5.31577
-2.62003
-0.564628
4.87759
-0.205195
0.700318
0.585712
1.07285
1.56137
2.15031
2.41705
1.51904
-3.68059
-12.9938
-12.8401
-0.859844
16.3243
22.8995
16.4071
3.17555
-5.77817
-6.26469
4.36942
-0.0698795
0.622476
0.655364
1.32727
1.97875
2.63876
2.9174
2.1183
-2.30983
-11.0886
-10.9779
-0.0132891
18.4535
24.846
16.6917
2.63904
-5.1853
3.59978
7.92516
0.0587369
0.598578
0.779579
1.59618
2.3129
2.90849
3.07911
2.33556
-1.11991
-8.19633
-8.98242
0.904707
19.5523
24.4182
18.3269
6.2692
0.786998
18.7486
23.3033
0.159589
0.589766
0.861767
1.7434
2.51347
3.09153
3.22268
2.53424
-0.41309
-6.27973
-7.18636
2.05542
18.2078
21.8702
16.5655
6.98298
6.90283
31.4734
20.6653
0.163279
0.586415
0.865838
1.74891
2.51814
3.09994
3.23784
2.53944
-0.390823
-6.14975
-7.13683
2.01822
18.062
21.947
16.6178
7.07779
6.92604
31.474
20.6605
0.066385
0.588037
0.758402
1.57086
2.32446
3.00774
3.26092
2.53106
-0.832951
-7.5737
-8.6663
0.652611
18.7102
23.9354
17.943
6.46258
1.05184
18.9206
23.2376
-0.0682178
0.60828
0.629706
1.2885
1.97661
2.73224
3.14335
2.46754
-1.74456
-10.3676
-10.6881
-0.832618
17.5739
24.2405
16.4234
3.05671
-4.6102
4.02325
7.71836
-0.200108
0.684739
0.559887
1.01885
1.53217
2.21681
2.64079
1.96558
-2.93106
-12.6313
-12.3144
-1.9878
15.5566
22.0636
16.256
3.73777
-5.10741
-5.78541
4.18114
-0.284108
0.788735
0.53565
0.796386
1.05543
1.54009
1.84131
1.11131
-4.02112
-13.5239
-13.637
-2.78896
12.6701
18.8785
16.0099
5.66848
-2.01037
-0.255612
4.75021
-0.271158
0.892814
0.604815
0.748645
0.779863
0.987976
1.04909
0.265445
-4.27159
-11.6982
-12.8708
-2.4231
10.0429
15.5794
14.6395
6.40399
0.160153
-0.720156
2.2193
-0.202355
0.859741
0.60669
0.670833
0.501803
0.424114
0.293335
-0.25013
-3.24931
-7.82545
-10.6751
-1.9195
7.56743
12.3639
12.292
5.71254
0.612287
0.391307
2.04265
-0.0935708
0.763585
0.623668
0.761343
0.655165
0.455486
0.052619
-0.497001
-1.99347
-3.85885
-7.44776
-1.01723
5.73821
9.543
9.65317
4.59975
0.70618
0.403917
1.00994
-0.0581649
0.443952
0.334172
0.381749
0.205163
-0.0979983
-0.396189
-0.261223
-0.169473
-1.18482
-5.64325
-0.966615
4.01048
7.13056
7.2917
3.47979
0.57546
0.536709
0.75464
0.030354
0.283337
0.313187
0.475612
0.628103
0.721146
0.461779
-0.477164
-1.40083
-1.251
-4.45969
-2.07637
0.767751
2.49746
2.89713
1.17419
0.0773504
0.129381
0.153518
110.646
109.975
108.923
108.778
107.407
106.578
105.597
104.352
102.859
101.486
100.176
98.9071
97.7114
96.5791
95.5172
94.461
93.4283
92.4047
91.6961
90.7637
83.4541
84.2567
84.2816
85.192
85.0608
85.5819
85.7716
86.0094
86.1358
86.2047
86.2363
86.2362
86.2105
86.1692
86.1121
86.0691
86.0403
86.0309
86.0209
85.9625
91.3981
91.5927
91.5466
92.2878
91.8635
92.0918
91.9567
91.9309
91.843
91.7443
91.6361
91.5156
91.3755
91.2526
91.1481
91.0739
90.9833
90.9294
90.8558
90.7734
83.3143
84.0671
84.2915
85.5189
85.3327
85.8516
85.9826
86.2077
86.3882
86.5671
86.7532
86.9408
87.1202
87.305
87.4719
87.6664
87.8241
88.0499
88.1642
88.404
79.7166
80.5405
80.7621
82.1264
81.9797
82.5264
82.7437
83.0328
83.3003
83.5613
83.8215
84.0863
84.3516
84.6341
84.8983
85.2023
85.449
85.7942
85.9634
86.3563
70.9118
72.0019
72.316
73.7913
73.8481
74.4937
74.9156
75.3779
75.8409
76.2933
76.746
77.2077
77.6684
78.1476
78.6038
79.1087
79.5319
80.0837
80.379
81.0213
61.9757
63.2043
63.6062
64.9207
65.1758
65.7702
66.305
66.7929
67.3257
67.8372
68.3662
68.9142
69.4679
70.0486
70.6069
71.2215
71.7414
72.4115
72.7827
73.5892
52.5438
53.9004
54.3431
55.3464
55.7695
56.1957
56.7834
57.1799
57.7194
58.1966
58.7233
59.2688
59.8272
60.4208
60.9954
61.6345
62.1749
62.8768
63.2806
64.1205
45.3845
46.7775
47.1083
47.7307
48.2007
48.3566
48.9184
49.099
49.5546
49.8639
50.2662
50.6666
51.0867
51.5486
51.9932
52.5167
52.9372
53.5417
53.8432
54.6515
40.7789
42.2572
42.4551
42.8117
43.3485
43.2897
43.8693
43.8849
44.2849
44.4479
44.7287
44.9681
45.2175
45.4952
45.7413
46.066
46.2744
46.6717
46.7727
47.3685
36.5278
38.3491
38.6838
38.9718
39.8598
39.8055
40.6421
40.7685
41.3308
41.6154
41.9986
42.3102
42.6005
42.8831
43.1053
43.3628
43.4877
43.7236
43.7075
44.0287
27.6169
30.0566
31.0452
31.3978
33.1073
33.3182
34.7721
35.3751
36.4444
37.2532
38.1222
38.9245
39.6767
40.3908
41.0198
41.6204
42.0626
42.4903
42.6343
42.9836
8.21009
10.953
13.0738
13.363
16.2145
16.7394
19.0529
20.3063
22.1321
23.7296
25.3926
27.0322
28.6361
30.2179
31.7304
33.2127
34.546
35.8199
36.7346
37.935
-22.8228
-21.6024
-18.8665
-19.6304
-16.4674
-16.6566
-14.2872
-13.3867
-11.6079
-10.1223
-8.46815
-6.79072
-5.05179
-3.20797
-1.28429
0.830913
3.06057
5.73207
8.04464
11.2377
-41.1343
-43.6381
-42.1854
-45.4928
-44.2348
-46.9879
-46.8295
-48.5665
-49.191
-50.3097
-51.0397
-51.5485
-51.4437
-50.6515
-49.3974
-47.8875
-46.2728
-44.1925
-42.4412
-38.6485
-10.0992
-15.1552
-15.0157
-20.6756
-21.0894
-25.6679
-27.4805
-31.061
-33.7337
-37.0035
-40.0454
-43.0848
-45.6652
-47.6961
-49.1673
-50.4271
-51.4616
-51.9799
-52.9383
-51.6409
48.2292
43.5903
45.3306
38.3029
38.2747
33.4423
31.3858
28.0001
25.4303
22.7097
20.3397
18.2014
16.4139
14.8109
13.2475
11.637
10.0059
8.11632
4.59319
0.953459
42.4101
37.1071
45.8759
39.7606
42.7547
40.2745
40.0256
38.4263
37.1681
35.6115
34.1444
32.8047
31.7869
31.1024
30.6863
30.4844
30.3891
30.2357
30.0611
29.8804
38.7773
17.7132
26.1593
15.6555
13.3592
7.14774
2.56958
-2.39878
-6.74743
-10.6992
-13.9941
-16.5317
-18.1653
-18.8114
-18.331
-16.8066
-14.5176
-10.7357
-5.84219
-2.8306
725.707
643.306
594.416
538.275
489.476
442.431
398.761
357.559
318.811
282.199
247.525
214.578
183.167
153.211
124.686
96.8798
69.8121
46.6179
21.1669
-13.034
727.106
644.703
595.813
539.671
490.872
443.828
400.159
358.959
320.213
283.605
248.935
215.993
184.588
154.638
126.118
98.3173
71.2545
48.0676
22.6272
-11.5825
40.1449
19.0789
27.5219
17.0163
14.7172
8.50343
3.92244
-1.04889
-5.40113
-9.35709
-12.6571
-15.2006
-16.8416
-17.4966
-17.027
-15.5144
-13.2381
-9.47575
-4.59191
-1.56592
43.7208
38.4276
47.1994
41.0902
44.088
41.6125
41.3678
39.7732
38.5197
36.9684
35.5076
34.1757
33.1668
32.4916
32.0856
31.8943
31.809
31.6673
31.5097
31.3648
49.8459
45.2274
46.9788
39.9677
39.9578
35.1429
33.1053
29.7386
27.1885
24.4878
22.1381
20.0203
18.2519
16.6649
15.1151
13.5174
11.9027
10.0301
6.52498
2.8928
-8.38623
-13.4419
-13.2987
-18.9579
-19.3692
-23.9447
-25.754
-29.3302
-31.9973
-35.26
-38.2924
-41.3201
-43.8854
-45.9009
-47.3599
-48.6091
-49.6367
-50.158
-51.1204
-49.8381
-39.56
-42.0752
-40.6273
-43.9384
-42.6885
-45.4454
-45.2939
-47.0374
-47.6688
-48.7954
-49.5326
-50.0492
-49.9523
-49.1723
-47.9369
-46.4468
-44.8483
-42.78
-41.0364
-37.2559
-21.4099
-20.2
-17.4673
-18.2384
-15.0835
-15.2812
-12.9212
-12.0318
-10.2647
-8.79296
-7.15313
-5.49097
-3.76642
-1.9343
-0.0175764
2.09572
4.32888
7.01192
9.32773
12.519
9.62137
12.364
14.4867
14.7733
17.6255
18.1488
20.4621
21.7146
23.5396
25.1365
26.8
28.4411
30.0481
31.6348
33.1549
34.6434
35.9868
37.2765
38.1923
39.3953
29.0695
31.5126
32.5025
32.8566
34.5673
34.7803
36.2363
36.8418
37.913
38.7242
39.5959
40.4013
41.1581
41.8776
42.5123
43.1131
43.5638
44.0023
44.1372
44.4805
38.0107
39.8335
40.1683
40.4563
41.3455
41.2924
42.1298
42.2582
42.8212
43.1074
43.4918
43.8041
44.097
44.3819
44.6049
44.8579
44.9867
45.228
45.2019
45.515
42.2542
43.731
43.9285
44.2829
44.8185
44.759
45.3371
45.3527
45.7507
45.9129
46.192
46.4287
46.6774
46.9539
47.1965
47.5147
47.7229
48.1219
48.2148
48.8039
46.8295
48.2196
48.5507
49.1707
49.6388
49.7935
50.3522
50.5303
50.983
51.2899
51.6888
52.0844
52.5016
52.961
53.4021
53.9206
54.3403
54.9467
55.2432
56.0503
53.9617
55.3166
55.76
56.7636
57.1859
57.6132
58.2017
58.5979
59.1385
59.617
60.1445
60.6883
61.2457
61.8383
62.4121
63.0485
63.5886
64.2922
64.6944
65.5338
63.3859
64.6117
65.0147
66.3271
66.5834
67.1786
67.7137
68.2008
68.7354
69.25
69.783
70.3336
70.8894
71.4714
72.0317
72.644
73.1624
73.8307
74.1989
75.0024
72.2895
73.3737
73.6894
75.1561
75.2133
75.8598
76.2839
76.7454
77.2065
77.6568
78.1095
78.5728
79.0364
79.5188
79.9792
80.4822
80.9018
81.4469
81.7352
82.3706
80.9664
81.7793
82.0012
83.3533
83.2003
83.7415
83.957
84.2437
84.508
84.7647
85.0235
85.2937
85.5687
85.8609
86.1362
86.4452
86.693
87.0322
87.1935
87.5783
84.5168
85.2551
85.4831
86.704
86.5088
87.0213
87.1466
87.364
87.5345
87.6991
87.8655
88.0381
88.218
88.4141
88.5974
88.8038
88.9661
89.186
89.2897
89.518
92.3941
92.573
92.5344
93.2714
92.8284
93.0453
92.8912
92.85
92.7488
92.6426
92.5278
92.4067
92.2906
92.1969
92.1037
92.0336
91.9513
91.9017
91.8269
91.7402
84.1459
84.9389
84.9787
85.883
85.7304
86.2329
86.4028
86.6187
86.7275
86.7891
86.8307
86.8643
86.8954
86.9458
86.9915
87.0309
87.0366
87.0413
87.0477
87.0154
111.79
111.09
110.066
109.934
108.564
107.746
106.781
105.536
104
102.555
101.152
99.7538
98.5616
97.5575
96.2747
95.1666
94.2245
93.2813
92.601
91.6658
)
;

boundaryField
{
    outletWall
    {
        type            fixedValue;
        value           uniform 0;
    }
    fineWalls
    {
        type            zeroGradient;
    }
    fineFrontAndBack
    {
        type            zeroGradient;
    }
    fineplugLeft
    {
        type            cyclicAMI;
        value           nonuniform List<scalar> 
20
(
73.715
74.6995
75.0705
75.8667
76.5903
77.3815
78.1697
79.0222
79.9197
80.8988
81.8745
82.8287
84.235
93.0774
89.8821
90.0552
90.9937
90.4097
89.3201
87.924
)
;
    }
    fineplugRight
    {
        type            cyclicAMI;
        value           nonuniform List<scalar> 
20
(
74.8393
75.8576
76.2442
77.0237
77.7143
78.5664
79.5402
80.2921
81.1883
82.2734
83.3257
84.3312
85.7425
94.1149
90.8446
91.0047
91.9247
91.3036
90.2126
88.8597
)
;
    }
    inletOutletLeft
    {
        type            cyclicAMI;
        value           nonuniform List<scalar> 
20
(
73.715
74.6995
75.0705
75.8667
76.5903
77.3815
78.1697
79.0222
79.9197
80.8988
81.8745
82.8287
84.235
93.0774
89.8821
90.0552
90.9937
90.4097
89.3201
87.924
)
;
    }
    inletLeft
    {
        type            zeroGradient;
    }
    inletWallsLeft
    {
        type            zeroGradient;
    }
    inletFacesLeft
    {
        type            zeroGradient;
    }
    inletOutletRight
    {
        type            cyclicAMI;
        value           nonuniform List<scalar> 
20
(
74.8393
75.8576
76.2442
77.0237
77.7143
78.5664
79.5402
80.2921
81.1883
82.2734
83.3257
84.3312
85.7425
94.1149
90.8446
91.0047
91.9247
91.3036
90.2126
88.8597
)
;
    }
    inletRight
    {
        type            zeroGradient;
    }
    inletWallsRight
    {
        type            zeroGradient;
    }
    inletFacesRight
    {
        type            zeroGradient;
    }
}


// ************************************************************************* //
