/*--------------------------------*- C++ -*----------------------------------*\
| =========                 |                                                 |
| \\      /  F ield         | OpenFOAM: The Open Source CFD Toolbox           |
|  \\    /   O peration     | Version:  4.1                                   |
|   \\  /    A nd           | Web:      www.OpenFOAM.org                      |
|    \\/     M anipulation  |                                                 |
\*---------------------------------------------------------------------------*/
FoamFile
{
    version     2.0;
    format      ascii;
    class       surfaceScalarField;
    location    "4";
    object      phi;
}
// * * * * * * * * * * * * * * * * * * * * * * * * * * * * * * * * * * * * * //

dimensions      [0 3 -1 0 0 0 0];

internalField   nonuniform List<scalar> 
2360
(
-4287.35
-3119.35
-1167.99
-3119.36
-3119.35
-1980.82
-1138.54
-1980.82
-1980.82
-1980.82
-442.618
-1538.2
-442.618
-442.619
1737.55
-2180.16
1737.55
1737.55
4264.96
-2527.42
4264.96
4264.96
7734.75
-3469.79
7734.75
7734.75
8533.32
9871.51
11196.9
12405.7
13486
14475.1
13536.2
1871.3
14452.9
15365.2
16279.5
17196.1
18114
19031.3
19948
20863
21777.8
22694.5
23614.5
24532.1
25363.5
9107.5
16256
9107.5
9107.5
9107.5
-1095.46
10203
-1095.46
-1095.46
-1095.46
7.92597
-1103.39
7.92716
7.92349
1088.42
-1080.5
1088.42
1088.42
1088.42
-9146.5
10234.9
-9146.5
-9146.5
-9146.5
-25357.5
16211
-24530.4
-23616.2
-22699.3
-21781.9
-20864.9
-19949.2
-19033.5
-18115.8
-17196.9
-16279.9
-15365.8
-14454.6
-13539.6
-14434
1825.68
-13444.8
-12362.7
-11150.5
-9821.96
-8482.34
-7683.3
-7683.29
-7683.28
-4159.1
-3524.17
-4159.09
-4159.1
-1596.54
-2562.56
-1596.54
-1596.54
591.481
-2188.02
591.483
591.482
2105.8
-1514.32
2105.8
2105.8
2105.8
3238.61
-1132.81
3238.61
3238.61
4422.56
-1183.95
-2689.34
-3285.33
-3335.5
-4314.5
-4241.02
-4155.39
-5455.89
-4119.61
-6831.72
-4275.33
-8035.15
-5171.35
-8502.16
-6809.49
-7559.5
-8085.86
-5206.46
-5561.03
-3237.11
3376.75
-2441.12
10403.4
-1878.39
13095.5
-1296.68
13130
-629.704
11164.2
70.6186
7450.79
682.472
5427.89
979.2
2761.6
1150.16
2855.89
315.214
-3531.57
-2802.25
-4489.41
-3356.65
-5700.23
-2944.58
-6991.9
-2827.94
-8000.29
-3266.94
-8444.14
-4727.5
-8205.11
-7048.52
-7167.56
-9123.41
-5062.95
-7665.64
-3059.85
1373.66
-2410.61
9754.18
-2109.15
12794
-1502.78
12523.6
-619.446
10280.9
401.99
6429.36
1169.63
4660.25
1282.69
2648.54
1226.6
2911.98
409.005
-4196.79
-2175.39
-5309.29
-2244.16
-6454.98
-1798.89
-7280.08
-2002.83
-7454.31
-3092.72
-7016.66
-5165.14
-6312.83
-7752.35
-5612.92
-9823.33
-4636.06
-8642.49
-3181.32
-81.0842
-2519.18
9092.04
-2374.22
12649.1
-1868.14
12017.6
-713.67
9126.43
757.014
4958.67
1819.73
3597.53
1950.13
2518.14
1626.1
3236.01
520.784
-4924.38
-1431.11
-6036.56
-1131.97
-6825.93
-1009.53
-7009.51
-1819.25
-6583.83
-3518.4
-5952.47
-5796.51
-5572.87
-8131.96
-5523.36
-9872.83
-5225.87
-8939.98
-3917.83
-1389.13
-2998.33
8172.54
-2749.04
12399.8
-2348.4
11616.9
-950.181
7728.21
1135.23
2873.26
2544.33
2188.43
2673.36
2389.11
2181.28
3728.09
514.05
-5473.01
-706.06
-6304.74
-300.239
-6544.25
-770.012
-6233.68
-2129.82
-5724.82
-4027.26
-5543.82
-5977.5
-5986.62
-7689.16
-6811.89
-9047.57
-7090.22
-8661.65
-5699.11
-2780.24
-4137.93
6611.36
-3416.8
11678.6
-2885.19
11085.3
-1161.61
6004.63
1698.07
13.5858
3466.95
419.545
3667.64
2188.42
2930.34
4465.39
881.848
-5613.81
-180.889
-5985.37
71.319
-5832.21
-923.168
-5490.92
-2471.12
-5397.22
-4120.97
-5950.14
-5424.57
-7212.13
-6427.17
-8734.47
-7525.23
-9480.68
-7915.44
-8206.3
-4054.62
-6052.02
4457.09
-4605.74
10232.4
-3543.05
10022.6
-956.688
3418.27
2303.56
-3246.66
4130.7
-1407.6
4440.81
1878.31
3705.53
5200.67
1063.22
-5393.2
98.1094
-5435.02
113.142
-5237.53
-1120.66
-5197.68
-2510.97
-5667.58
-3651.07
-6852.73
-4239.42
-8632.64
-4647.25
-10559.7
-5598.19
-11791.8
-6683.35
-11059.2
-4787.22
-8704.94
2102.86
-6468.65
7996.07
-4355.19
7909.15
-1738.09
801.17
-797.722
-4187.03
583.227
-2788.55
2600.87
-139.336
4835.71
2965.83
7724.62
-5021.61
185.705
-4935.94
27.47
-4939.78
-1116.81
-5343.73
-2107.03
-6320.89
-2673.91
-7839.86
-2720.45
-9701.61
-2785.5
-11709.4
-3590.39
-13483.8
-4908.94
-13775.1
-4495.91
-11609
-63.3081
-8387.36
4774.47
-5763.52
5285.32
-5894.57
932.224
-8011.1
-2070.5
-8455.94
-2343.72
-8245.45
-349.827
-10315.4
5035.81
13620.2
-4637.43
147.023
-4581.23
-28.7254
-4942.82
-755.228
-5813.2
-1236.65
-7084.04
-1403.07
-8515.62
-1288.88
-10026.7
-1274.37
-11861.4
-1755.69
-14188.4
-2581.97
-16061.1
-2623.24
-15532.6
-591.805
-12999.3
2241.15
-11321
3607.06
-12576.5
2187.74
-14644.8
-2.23185
-15791.5
-1197.02
-15955.9
-185.41
-14636.2
3716.1
9218.88
-4209.35
35.8355
-4311.92
73.8382
-5116.64
49.4923
-6347.92
-5.36436
-7643.81
-107.175
-8719.19
-213.492
-9755.28
-238.288
-11354.7
-156.273
-13882.2
-54.445
-16579.1
73.6436
-17504.3
333.431
-15813.7
550.471
-12738
531.37
-10731.7
181.482
-10667
-66.918
-11741
-123.084
-11850.6
-75.7209
-8117.8
-16.7499
20.5798
-4101.87
-117.879
-4148.38
120.346
-4950.76
851.871
-6230.77
1274.65
-7601.18
1263.24
-8729.88
915.211
-9748.96
780.79
-11245.4
1340.19
-13652
2352.14
-16333.6
2755.18
-17397.5
1397.38
-15851.1
-995.939
-12769.5
-2550.22
-10740.1
-1847.96
-10727.5
-79.495
-11796.5
945.974
-11857.4
-14.8785
-8091.64
-3782.5
-9174.44
-4521.93
-210.744
-4362.51
-39.0718
-4654.54
1143.9
-5543.54
2163.65
-6945.85
2665.54
-8570.41
2539.77
-10200
2410.34
-11981.7
3121.89
-14202.7
4573.19
-16210.4
4762.91
-16052.5
1239.43
-13684.1
-3364.33
-11779.1
-4455.26
-12708
-918.968
-14661.6
1874.04
-15797.3
2081.74
-15940.2
127.927
-14620.8
-5101.88
-13592.3
-4928.29
-148.534
-4771.08
-196.282
-4678.7
1051.51
-5024.45
2509.4
-6049.6
3690.69
-7733.02
4223.2
-9785.37
4462.69
-11898.8
5235.34
-13739.3
6413.62
-14250.5
5274.16
-12194.9
-816.204
-8805.18
-6754.02
-5890.87
-7369.57
-5762.79
-1047.05
-7772.64
3883.88
-8256.83
2565.93
-8160.98
32.0708
-10344.6
-2918.21
-7680.93
-5303.32
125.2
-5322.19
-177.409
-5058.15
787.468
-4931.27
2382.53
-5356.33
4115.75
-6594.71
5461.58
-8519.6
6387.58
-10623.3
7339.02
-12056.8
7847.14
-11606.9
4824.21
-9264.02
-3159.03
-6825.89
-9192.15
-4475.97
-9719.49
-1685.27
-3837.74
-535.504
2734.11
786.459
1243.97
2664.85
-1846.32
4819.38
-5072.74
-990.263
-5504.39
653.353
-5886.67
204.869
-5715.57
616.373
-5309.56
1976.51
-5133.17
3939.36
-5643.24
5971.65
-6953.48
7697.82
-8627.55
9013.09
-9626.95
8846.54
-8677.73
3875
-6480.61
-5356.15
-4824.68
-10848.1
-3597.2
-10947
-1134.15
-6300.79
2112.14
-512.177
4001.33
-645.214
4290.16
-2135.15
3597.57
-4380.15
-862.481
-5355.89
1385.21
-6218.69
1067.67
-6478.87
876.554
-6140.32
1637.95
-5555.26
3354.31
-5286.55
5702.94
-5692.51
8103.78
-6596.9
9917.48
-7110.9
9360.54
-6032.89
2796.98
-4391.23
-6997.81
-3477.54
-11761.8
-2874.71
-11549.8
-1286.77
-7888.74
1440.46
-3239.41
3237.35
-2442.1
3498.47
-2396.27
2852.09
-3733.78
-537.807
-4792.78
2127.36
-5930.44
2205.34
-6765.57
1711.68
-6970.7
1843.08
-6509.83
2893.44
-5793.54
4986.65
-5329.33
7639.57
-5280.72
9868.87
-5164.47
9244.3
-4103.2
1735.71
-3101.42
-7999.59
-2717.54
-12145.7
-2336.9
-11930.4
-1037.1
-9188.54
977.768
-5254.27
2383.87
-3848.2
2554.92
-2567.32
2140.33
-3319.2
-577.639
-4064.03
2744.06
-5183.36
3324.67
-6369.93
2898.25
-7245.96
2719.12
-7435.75
3083.23
-6948.64
4499.54
-6151.12
6842.06
-5412.6
9130.35
-4619.2
8450.89
-3314.94
431.446
-2549.04
-8765.49
-2320.43
-12374.3
-1877.16
-12373.7
-773.712
-10292
661.1
-6689.09
1715.16
-4902.26
1876.76
-2728.92
1605.82
-3048.25
-510.023
-3405.8
3216.53
-4357.19
4276.07
-5585.86
4126.92
-6920.5
4053.75
-7972.85
4135.57
-8427.08
4953.77
-8172.02
6587
-7198.08
8156.4
-5330.28
6583.09
-3212.49
-1686.34
-2398.58
-9579.39
-2083.28
-12689.6
-1520.64
-12936.3
-658.043
-11154.6
342.579
-7689.71
1106.21
-5665.88
1243.74
-2866.45
1225.9
-3030.41
-422.659
-2582.73
-3223.99
-4130.83
-5360.73
-6769.51
-8024.03
-8580.65
-7800.37
-5530.58
-3338.91
-2452.07
-1878.71
-1309.31
-653.797
40.4888
651.176
958.301
1142.55
107.171
-905.748
303.862
-1534.87
441.007
-1462.57
528.261
-1295.99
577.957
-1130.02
605.761
-1016.97
615.764
-942.342
610.125
-911.125
598.869
-901.026
582.285
-897.715
559.515
-893.845
529.645
-888.051
494.417
-882.044
454.722
-877.033
412.533
-872.782
365.785
-868.042
307.778
-858.748
231.584
-843.755
141.108
-827.131
-690.279
60.0229
-965.775
106.891
-1581.74
122.693
-1478.37
138.857
-1312.16
156.453
-1147.62
178.131
-1038.65
207.13
-971.345
232.336
-936.335
249.417
-918.111
257.57
-905.873
257.935
-894.213
252.626
-882.747
242.758
-872.179
227.772
-862.05
207.053
-852.066
180.266
-841.259
149.938
-828.422
113.579
-807.398
69.8445
-783.399
-620.435
32.1695
-997.949
62.2867
-1611.87
93.9446
-1510.04
143.565
-1361.78
199.73
-1203.79
252.843
-1091.77
293.805
-1012.31
320.544
-963.079
334.27
-931.842
337.931
-909.54
334.294
-890.579
324.508
-872.965
309.002
-856.676
288.069
-841.121
262.04
-826.039
230.294
-809.515
192.445
-790.576
145.556
-760.511
86.7438
-724.589
-533.691
26.9046
-1024.85
52.7553
-1637.72
106.032
-1563.31
177.811
-1433.56
252.647
-1278.63
318.79
-1157.91
370.231
-1063.75
403.397
-996.246
419.413
-947.858
421.687
-911.814
413.887
-882.78
398.172
-857.252
375.441
-833.945
346.36
-812.04
311.531
-791.21
270.51
-768.495
223.086
-743.152
166.392
-703.817
97.4439
-655.641
-436.247
19.786
-1044.64
66.7738
-1684.71
146.057
-1642.6
225.518
-1513.03
301.664
-1354.78
369.855
-1226.11
426.908
-1120.81
468.271
-1037.61
492.587
-972.176
501.157
-920.387
496.452
-878.076
480.659
-841.463
455.375
-808.663
421.508
-778.176
379.575
-749.278
329.367
-718.288
270.712
-684.498
200.835
-633.94
116.526
-571.333
-319.721
14.0336
-1058.68
87.9579
-1758.63
176.848
-1731.49
243.992
-1580.17
305.456
-1416.24
364.709
-1285.36
421.683
-1177.78
469.752
-1085.68
504.749
-1007.17
524.46
-940.097
528.935
-882.551
519.408
-831.934
497.484
-786.737
464.321
-745.012
420.585
-705.541
366.211
-663.913
301.107
-619.394
222.861
-555.693
127.66
-476.13
-192.061
16.3276
-1075
102.989
-1845.29
180.374
-1808.87
222.961
-1622.76
266.125
-1459.41
313.985
-1333.22
367.189
-1230.99
417.186
-1135.68
459.616
-1049.6
490.114
-970.595
506.846
-899.282
509.147
-834.234
497.287
-774.876
471.66
-719.385
432.786
-666.666
380.64
-611.766
315.07
-553.823
234.307
-474.928
131.309
-373.13
-60.7516
35.3924
-1110.39
114.468
-1924.37
163.568
-1857.97
179.991
-1639.18
208.897
-1488.31
245.449
-1369.77
289.585
-1275.12
332.35
-1178.44
372.248
-1089.5
404.847
-1003.19
427.974
-922.408
439.314
-845.571
437.707
-773.266
422.31
-703.985
393.039
-637.393
349.322
-568.047
290.766
-495.265
215.185
-399.345
111.195
-269.136
50.443
67.1022
-1177.49
125.587
-1982.85
140.709
-1873.09
138.947
-1637.41
158.423
-1507.78
182.95
-1394.29
212.698
-1304.86
240.339
-1206.08
267.237
-1116.39
290.028
-1025.98
307.761
-940.139
318.239
-856.048
320.162
-775.188
312.111
-695.932
293.561
-618.842
263.056
-537.541
219.484
-451.692
158.61
-338.47
70.7179
-181.242
121.161
98.3932
-1275.88
133.655
-2018.11
123.647
-1863.08
115.529
-1629.29
127.575
-1519.83
139.626
-1406.34
152.97
-1318.21
163.626
-1216.73
173.414
-1126.18
180.87
-1033.43
185.92
-945.187
187.831
-857.956
186.183
-773.538
180.321
-690.067
169.649
-608.168
152.341
-520.231
125.799
-425.148
85.9768
-298.646
35.4956
-130.757
156.657
122.694
-1398.58
140.502
-2035.92
125.473
-1848.05
122.877
-1626.7
133.028
-1529.98
140.052
-1413.36
145.415
-1323.57
148.639
-1219.95
149.804
-1127.34
149.457
-1033.08
147.17
-942.898
143.34
-854.123
137.739
-767.935
130.148
-682.475
119.026
-597.043
102.668
-503.871
77.6552
-400.135
44.8675
-265.855
16.9121
-102.798
173.569
150.461
-1549.04
161.744
-2047.2
161.649
-1847.95
176.341
-1641.39
198.432
-1552.07
216.468
-1431.4
232.141
-1339.24
246.235
-1234.04
257.69
-1138.8
267.377
-1042.77
273.992
-949.511
277.021
-857.15
274.611
-765.524
264.615
-672.477
243.386
-575.814
208.915
-469.398
159.327
-350.544
99.0602
-205.586
35.0846
-38.8192
208.653
187.837
-1736.87
195.867
-2055.23
219.355
-1871.44
258.995
-1681.02
306.856
-1599.93
350.718
-1475.26
395.4
-1383.92
439.691
-1278.33
484.028
-1183.13
527.135
-1085.87
566.02
-988.395
595.634
-886.762
609.126
-779.015
599.742
-663.091
562.222
-538.292
494.628
-401.803
397.766
-253.681
273.643
-81.4603
126.196
108.63
334.849
203.344
-1940.22
191.782
-2043.66
230.579
-1910.24
286.387
-1736.83
354.4
-1667.94
421.19
-1542.05
496.344
-1459.07
575.973
-1357.96
663.464
-1270.62
753.561
-1175.97
838.12
-1072.95
900.765
-949.407
924.55
-802.8
901.507
-640.048
833.675
-470.459
722.701
-290.83
563.02
-93.9988
365.087
116.474
186.43
287.288
521.279
133.467
-2073.68
79.2495
-1989.45
95.2469
-1926.23
123.593
-1765.18
163.014
-1707.36
208.085
-1587.12
264.929
-1515.92
332.126
-1425.16
411.323
-1349.82
492.961
-1257.61
558.728
-1138.72
578.117
-968.795
532.834
-757.516
441.397
-548.61
336.497
-365.558
235.75
-190.081
165.653
-23.8992
91.4876
190.642
-7.95206
386.729
513.327
-8.69708
-2064.99
-95.39
-1902.75
-145.9
-1875.72
-192.815
-1718.26
-238.174
-1662
-275.402
-1549.89
-310.215
-1481.1
-336.727
-1398.65
-359.57
-1326.98
-383.323
-1233.86
-421.699
-1100.34
-486.346
-904.15
-568.933
-674.929
-635.595
-481.948
-664.219
-336.934
-671.081
-183.219
-672.284
-22.696
-620.247
138.605
-454.667
221.149
58.6604
-89.4618
-1975.52
-196.482
-1795.73
-290.572
-1781.63
-383.17
-1625.67
-478.333
-1566.84
-567.159
-1461.06
-661.124
-1387.14
-754.11
-1305.66
-851.075
-1230.01
-945.4
-1139.53
-1025.78
-1019.96
-1067.58
-862.349
-1050.7
-691.809
-981.135
-551.516
-874.435
-443.634
-732.63
-325.024
-564.052
-191.273
-355.982
-69.4642
-197.559
62.7275
-138.899
-152.824
-1822.7
-339.865
-1608.69
-489.459
-1632.04
-612.255
-1502.87
-725.992
-1453.1
-818.685
-1368.37
-903.579
-1302.24
-977.291
-1231.95
-1041.02
-1166.29
-1082.83
-1097.72
-1080.11
-1022.68
-1005.19
-937.269
-852.549
-844.453
-652.718
-751.347
-434.025
-662.326
-184.647
-574.403
95.2425
-471.163
332.973
-307.194
349.515
46.1859
210.616
-178.382
-1644.32
-402.807
-1384.27
-638.386
-1396.46
-833.066
-1308.19
-1018.92
-1267.24
-1173.18
-1214.11
-1305.76
-1169.66
-1412.28
-1125.43
-1494.14
-1084.42
-1546.6
-1045.25
-1562.04
-1007.24
-1531.44
-967.876
-1451.54
-924.346
-1327.95
-874.936
-1170.61
-819.666
-985.745
-759.272
-769.756
-687.151
-516.139
-560.811
-175.921
-294.032
34.6949
-669.317
-1078.59
-1500.05
-1833.24
-2125.48
-2364.59
-2559.25
-2709.69
-2819.11
-2889.36
-2921.6
-2914.48
-2863.83
-2763.76
-2608.43
-2392.7
-2104.85
-1690.66
-1009.69
-669.361
1644.36
-1078.67
1384.31
-1500.18
1396.51
-1833.41
1308.23
-2125.69
1267.29
-2364.84
1214.15
-2559.54
1169.7
-2710.01
1125.47
-2819.47
1084.46
-2889.76
1045.29
-2922.04
1007.27
-2914.94
967.901
-2864.29
924.358
-2764.24
874.945
-2608.93
819.693
-2393.26
759.327
-2105.42
687.16
-1690.9
560.48
-1009.05
293.151
-34.051
-178.338
1822.7
-402.661
1608.64
-638.135
1631.98
-832.66
1502.76
-1018.34
1452.96
-1172.37
1368.19
-1304.7
1302.03
-1410.92
1231.69
-1492.45
1165.99
-1544.56
1097.4
-1559.66
1022.38
-1528.81
937.045
-1448.83
844.381
-1325.36
751.479
-1168.37
662.702
-984.117
575.072
-769.161
472.204
-517.267
308.586
-178.16
-45.9565
-212.211
-152.409
1975.11
-339.093
1795.32
-488.311
1781.2
-610.728
1625.18
-724.088
1566.33
-816.406
1460.51
-900.929
1386.55
-974.274
1305.04
-1037.62
1229.34
-1078.98
1138.77
-1075.71
1019.11
-1000.23
861.563
-847.233
691.383
-647.353
551.6
-428.655
444.004
-179.205
325.622
100.577
192.423
337.921
71.243
351.776
-59.8102
139.565
-89.5627
2064.67
-196.571
1902.33
-290.718
1875.35
-383.448
1717.91
-478.751
1661.63
-567.794
1549.55
-662.015
1480.77
-755.323
1398.35
-852.631
1326.65
-947.238
1233.37
-1027.66
1099.53
-1069.11
903.019
-1051.67
673.939
-981.592
481.524
-874.327
336.739
-731.762
183.057
-561.976
22.6373
-352.528
-138.204
-193.219
-219.118
-53.654
-9.3004
2073.98
-96.2178
1989.25
-147.127
1926.26
-194.51
1765.29
-240.376
1707.49
-278.15
1587.32
-313.568
1516.19
-340.737
1425.52
-364.318
1350.23
-388.893
1257.95
-428.143
1138.78
-493.532
968.408
-576.495
756.902
-643.15
548.18
-671.718
365.308
-678.77
190.11
-680.062
23.9297
-626.867
-191.399
-458.931
-387.054
-512.585
133.032
1940.94
78.4192
2043.86
94.0489
1910.63
122.022
1737.32
161.052
1668.46
205.763
1542.61
262.238
1459.71
329.092
1358.66
407.933
1271.39
489.152
1176.73
554.331
1073.6
572.965
949.774
527.058
802.809
435.484
639.753
330.902
469.89
231.024
289.988
162.337
92.6164
88.5138
-117.576
-10.2026
-288.338
-522.788
203.464
1737.48
191.721
2055.6
230.46
1871.89
286.262
1681.51
354.313
1600.41
421.165
1475.76
496.423
1384.46
576.19
1278.9
663.881
1183.7
754.202
1086.41
838.932
988.869
901.587
887.12
925.195
779.201
901.881
663.067
833.756
538.014
722.472
401.272
562.104
252.985
364.083
80.4459
186.253
-110.508
-336.535
188.162
1549.32
196.229
2047.53
219.801
1848.31
259.585
1641.73
307.622
1552.38
351.665
1431.72
396.56
1339.56
441.084
1234.37
485.675
1139.1
529.023
1043.06
568.126
949.766
597.885
857.36
611.403
765.683
601.914
672.556
564.211
575.718
496.331
469.151
398.97
350.345
274.434
204.981
126.855
37.0711
-209.68
150.712
1398.6
162.095
2036.15
162.042
1848.37
176.781
1626.99
198.955
1530.2
217.091
1413.58
232.946
1323.7
247.277
1220.04
258.969
1127.41
268.826
1033.2
275.554
943.037
278.651
854.264
276.253
768.08
266.225
682.584
244.935
597.007
210.312
503.774
160.384
400.272
99.8733
265.492
35.4982
101.446
-174.182
122.857
1275.75
140.76
2018.25
125.695
1863.43
123.01
1629.67
133.08
1520.13
140.026
1406.63
145.315
1318.42
148.459
1216.9
149.547
1126.32
149.18
1033.57
146.925
945.291
143.146
858.043
137.599
773.627
130.097
690.086
119.068
608.036
102.782
520.06
77.8335
425.221
45.0777
298.247
16.9014
129.621
-157.281
98.614
1177.13
134.014
1982.85
124.09
1873.36
116.028
1637.74
128.073
1508.09
140.026
1394.68
152.923
1305.52
162.815
1207
171.827
1117.31
178.854
1026.54
183.825
940.321
185.829
856.039
184.327
775.128
178.66
695.752
168.206
618.49
151.157
537.108
125.017
451.36
85.4903
337.774
35.2036
179.908
-122.077
67.3273
1109.8
125.884
1924.29
141.278
1857.96
139.908
1639.11
159.679
1488.31
184.356
1370
213.766
1276.11
240.575
1180.19
266.576
1091.31
288.861
1004.26
306.509
922.673
317.101
845.447
319.144
773.085
311.169
703.726
292.666
636.993
262.229
567.545
218.887
494.702
158.183
398.478
70.3555
267.734
-51.7216
35.5702
1074.23
114.336
1845.53
163.341
1808.96
179.95
1622.5
209.049
1459.22
245.714
1333.34
289.845
1231.98
332.576
1137.46
372.514
1051.37
405.267
971.503
428.626
899.314
440.129
833.943
438.534
774.68
423.014
719.246
393.544
666.463
349.616
611.472
290.97
553.348
215.336
474.113
111.179
371.891
59.4572
16.395
1057.84
102.541
1759.38
179.1
1732.4
220.969
1580.63
263.527
1416.66
310.914
1285.95
364.094
1178.8
414.682
1086.87
458.075
1007.98
489.493
940.084
506.901
881.906
509.527
831.317
497.652
786.555
471.82
745.078
432.755
705.527
380.522
663.705
314.959
618.911
234.282
554.789
131.311
474.861
190.768
13.8605
1043.98
87.671
1685.57
175.648
1644.42
241.292
1514.98
301.21
1356.74
359.312
1227.85
416.017
1122.09
464.731
1038.16
500.873
971.836
521.664
919.294
526.923
876.647
517.88
840.36
496.105
808.329
462.855
778.328
419.116
749.265
364.97
717.851
300.183
683.698
222.281
632.691
127.347
569.795
318.115
19.6735
1024.3
67.0766
1638.17
146.146
1565.35
224.209
1436.92
298.776
1282.17
365.866
1160.76
422.652
1065.31
464.433
996.379
489.46
946.808
498.685
910.069
494.365
880.966
478.727
855.998
453.427
833.629
419.452
812.303
377.555
791.162
327.65
767.756
269.434
741.914
199.997
702.128
116.02
653.771
434.135
26.6322
997.672
52.6769
1612.12
106.077
1511.95
177.13
1365.87
251.295
1208.01
317.228
1094.83
368.821
1013.71
402.119
963.081
418.077
930.849
420.187
907.958
412.16
888.993
396.262
871.896
373.686
856.205
344.947
841.04
310.335
825.774
269.615
808.475
222.503
789.026
166.016
758.615
97.1451
722.641
531.28
32.0754
965.598
61.9911
1582.21
93.6384
1480.3
143.61
1315.9
200.682
1150.93
254.723
1040.78
296.157
972.28
322.785
936.453
336.125
917.509
339.301
904.783
335.258
893.036
325.268
881.885
309.724
871.748
288.537
862.228
261.843
852.467
229.347
840.971
191.181
827.192
144.377
805.418
85.9014
781.117
617.181
60.5593
905.039
107.298
1535.47
122.856
1464.75
139.874
1298.88
159.388
1131.42
183.337
1016.84
214.29
941.327
240.333
910.411
256.905
900.937
263.748
897.94
262.521
894.263
255.342
889.064
242.756
884.334
225.039
879.944
203.71
873.795
179.327
865.353
150.965
855.552
114.461
841.92
70.432
825.144
687.613
106.003
301.881
438.101
524.785
574.187
601.886
611.868
607.279
597.03
580.859
558.039
528.16
494.747
459.033
417.08
365.403
303.548
228.512
139.458
)
;

boundaryField
{
    outletWall
    {
        type            calculated;
        value           nonuniform List<scalar> 
60
(
4422.56
-349.004
-3026.85
-3058.33
-6039.74
-8151.12
-11831.2
-13711.7
-13658.2
-11199.4
-5346.11
3207.99
7143.2
7276.5
6374.78
5651.16
5334.49
5060.91
4960.66
3591.99
2280
2933.33
3447.32
4050.63
4624.03
4976.24
5029.59
4866.08
4614.8
4255.59
4320.54
4676.11
4934.02
5114.2
5088.64
4747.96
4180.1
3569.93
3048.49
2382.69
4287.35
-448.106
-3214.66
-3173.58
-6276.57
-8384
-11810.1
-13505.8
-13262.9
-10466.2
-3878.02
4313.31
7376.12
7143.62
6208.29
5544.35
5283.66
5033.76
4917.33
3519.26
)
;
    }
    fineWalls
    {
        type            calculated;
        value           uniform 0;
    }
    fineFrontAndBack
    {
        type            calculated;
        value           nonuniform List<scalar> 
960
(
-2.87939e-14
-2.61955e-13
-2.89731e-14
-1.28457e-14
2.29794e-13
1.0049e-14
-3.46748e-13
-1.04082e-12
-8.91089e-12
-1.9365e-12
-1.57912e-12
3.64288e-12
1.67079e-12
1.41729e-12
6.54073e-12
1.63198e-12
2.20744e-12
6.59169e-12
1.18634e-12
9.05669e-13
3.99847e-13
1.07577e-13
8.34618e-15
-1.11005e-13
-1.9901e-13
-4.19684e-13
4.86106e-13
-6.87774e-13
-7.69715e-13
-7.99975e-13
-7.6722e-13
-7.16158e-13
-6.39822e-13
-6.62711e-13
-8.14948e-13
-1.15043e-12
-1.66851e-12
-2.33113e-12
-2.95827e-12
-3.85473e-12
-1.23965e-10
-2.39319e-11
-2.66635e-11
-3.20514e-11
-1.24669e-10
6.97735e-12
-2.05888e-12
-1.1564e-11
-1.27329e-10
-1.37761e-12
8.74152e-12
1.58723e-10
1.88179e-11
3.0498e-12
-1.29964e-11
1.11814e-10
3.12545e-11
2.57754e-11
2.3152e-11
1.24416e-10
4.08393e-12
3.30434e-12
2.7728e-12
2.25546e-12
1.89197e-12
1.62919e-12
1.51567e-12
1.50481e-12
1.50664e-12
1.51528e-12
1.47387e-12
1.41228e-12
1.34131e-12
1.57258e-11
1.09571e-12
8.97103e-13
8.33723e-13
6.84529e-13
5.50335e-13
2.13641e-13
1.80674e-12
1.47719e-12
8.83401e-12
1.84758e-12
1.76638e-12
8.22674e-12
2.03797e-12
1.36502e-12
3.17321e-12
6.14427e-13
8.17858e-13
8.3368e-12
2.9196e-12
2.67295e-12
1.69483e-12
4.22154e-12
1.79116e-13
-5.7301e-20
5.54354e-14
-2.79737e-13
-1.98109e-08
-1.89176e-08
-1.27531e-08
-5.85469e-09
-1.11916e-09
4.85561e-10
5.46022e-10
3.93288e-10
2.59436e-10
-5.0101e-11
-1.38875e-10
-9.29269e-11
-5.99971e-11
-5.10891e-11
-4.35646e-11
-2.10382e-11
-6.08496e-12
-5.74671e-13
1.58847e-12
-2.70264e-08
-2.12133e-08
-1.09345e-08
-2.99781e-09
4.00789e-10
8.06018e-10
7.03885e-10
8.91448e-10
1.01253e-09
4.06597e-10
-1.50926e-10
-1.00875e-10
-5.60321e-11
-5.1346e-11
-4.33223e-11
-2.22039e-11
-8.11452e-12
-1.23183e-12
6.93212e-13
-2.83605e-08
-1.74278e-08
-6.35534e-09
-3.39282e-10
1.13892e-09
9.98548e-10
1.03933e-09
1.3572e-09
1.55323e-09
1.07248e-09
5.90495e-11
-1.37718e-10
-5.29844e-11
-5.02208e-11
-4.3146e-11
-2.41417e-11
-1.11931e-11
-2.30403e-12
-4.42443e-12
-2.77302e-08
-1.23082e-08
-2.43242e-09
1.20949e-09
1.46738e-09
1.2314e-09
1.33941e-09
1.54161e-09
1.57584e-09
1.23947e-09
4.40907e-10
-1.00256e-10
-7.40741e-11
-4.44549e-11
-4.23399e-11
-2.55174e-11
-1.35142e-11
-3.67245e-12
-3.01776e-12
-2.45102e-08
-6.56084e-09
4.35695e-10
1.99305e-09
1.68497e-09
1.45712e-09
1.4673e-09
1.44958e-09
1.26145e-09
9.42781e-10
5.76251e-10
6.00667e-11
-1.00796e-10
-4.45291e-11
-3.78732e-11
-2.35124e-11
-1.50778e-11
-4.82926e-12
-5.64175e-12
-2.04858e-08
-2.37252e-09
1.69267e-09
2.19119e-09
1.74986e-09
1.4668e-09
1.33105e-09
1.14567e-09
8.27704e-10
5.07262e-10
3.67937e-10
1.59659e-10
-7.74869e-11
-5.52123e-11
5.14388e-12
5.84821e-11
3.65462e-11
1.8404e-12
-4.91965e-13
-1.76451e-08
-8.05907e-10
1.68393e-09
1.93258e-09
1.47188e-09
1.18754e-09
1.01282e-09
7.592e-10
4.43399e-10
1.91221e-10
8.4637e-11
6.55049e-11
-4.55936e-11
-3.64113e-11
1.65124e-10
2.26038e-10
1.70792e-10
7.89416e-11
-4.14208e-11
-1.66885e-08
-1.17443e-09
7.4301e-10
1.07693e-09
8.82028e-10
8.20701e-10
6.71458e-10
4.00911e-10
1.99368e-10
1.19555e-10
1.70722e-11
-7.58907e-11
-7.87633e-11
7.04226e-11
2.98535e-10
2.60835e-10
1.64479e-10
1.40345e-10
1.54408e-10
-1.68574e-08
-3.05952e-09
-1.16145e-09
-6.34953e-11
4.4982e-10
6.04031e-10
3.83595e-10
1.13232e-10
6.67772e-11
1.94339e-10
2.44894e-10
1.39842e-10
1.25522e-10
2.88218e-10
3.98309e-10
3.65348e-10
3.10259e-10
2.72187e-10
2.48418e-10
-1.64187e-08
-5.53003e-09
-2.64968e-09
-3.61484e-10
5.20012e-10
5.23506e-10
1.58318e-10
-8.60749e-11
-4.27349e-11
1.66377e-10
3.44778e-10
3.87831e-10
3.55608e-10
3.51245e-10
3.45769e-10
3.40614e-10
3.29561e-10
3.12431e-10
2.80319e-10
-4.82823e-09
4.40429e-10
1.44544e-11
4.77816e-10
6.37057e-10
4.91751e-10
1.18958e-10
-1.90202e-10
-2.80851e-10
-2.56194e-10
-2.54168e-10
-2.97221e-10
-3.32188e-10
-3.62965e-10
-3.68464e-10
-3.49927e-10
-3.41215e-10
-3.20147e-10
-2.79193e-10
-2.39777e-09
1.34874e-09
8.30188e-10
9.16977e-10
8.60833e-10
6.58227e-10
2.70237e-10
-1.32582e-10
-3.55739e-10
-3.90671e-10
-3.13139e-10
-1.99337e-10
-1.77569e-10
-2.9318e-10
-3.85046e-10
-3.62967e-10
-3.14971e-10
-2.81867e-10
-2.63076e-10
-1.45136e-09
1.26797e-09
7.93981e-10
8.67251e-10
9.38729e-10
8.37854e-10
5.22216e-10
7.45976e-11
-2.71478e-10
-3.64134e-10
-2.15943e-10
-3.53706e-11
1.281e-11
-9.24935e-11
-2.76473e-10
-2.52509e-10
-1.60897e-10
-1.37407e-10
-1.53536e-10
-1.1461e-09
9.76298e-10
5.87712e-10
5.64806e-10
7.79279e-10
8.67154e-10
7.30987e-10
3.57996e-10
-5.12346e-11
-2.43345e-10
-1.54583e-10
-3.2738e-11
8.92192e-13
-1.12922e-11
-1.4165e-10
-2.04846e-10
-1.58478e-10
-7.48748e-11
4.44993e-11
-1.00295e-09
6.84533e-10
4.81343e-10
2.82201e-10
5.03834e-10
7.21276e-10
7.86728e-10
5.93495e-10
2.32195e-10
-3.20875e-11
-3.38147e-11
9.01711e-12
3.04696e-12
5.76006e-12
-1.7399e-11
-5.53676e-11
-3.65815e-11
-3.69768e-12
-1.10959e-11
-7.26147e-10
4.17375e-10
5.23944e-10
1.39177e-10
2.52036e-10
4.88469e-10
6.79369e-10
6.82975e-10
4.70221e-10
2.0703e-10
9.05316e-11
2.0921e-11
4.67206e-12
6.76623e-12
3.03227e-12
-5.54469e-13
-6.53536e-13
-9.71021e-13
-2.84573e-12
-1.12711e-10
2.28084e-10
6.92656e-10
1.82045e-10
9.94701e-11
2.63819e-10
4.79546e-10
6.0847e-10
5.62961e-10
3.50181e-10
1.07455e-10
4.74144e-12
8.90712e-12
6.1467e-12
4.32734e-12
2.46127e-12
1.09414e-12
3.56252e-14
-2.13892e-12
8.04704e-10
1.71437e-10
8.84324e-10
3.82564e-10
7.61566e-11
9.9648e-11
2.65884e-10
4.20617e-10
4.66015e-10
3.01807e-10
3.8153e-11
3.80656e-12
1.11846e-11
6.16607e-12
4.70413e-12
2.94359e-12
1.53248e-12
-8.29616e-14
2.20846e-12
1.9635e-09
3.90045e-10
1.09376e-09
7.19639e-10
2.03991e-10
2.25433e-11
8.9845e-11
2.01415e-10
2.43964e-10
1.2501e-10
2.32825e-12
1.23042e-11
1.05037e-11
6.50641e-12
4.68799e-12
2.85839e-12
1.23323e-12
-1.21708e-13
-1.04387e-12
2.60189e-09
9.07642e-10
1.20402e-09
1.11691e-09
5.98711e-10
1.78173e-10
3.97417e-11
4.30814e-11
5.22269e-11
1.70756e-11
7.23493e-12
1.34775e-11
1.03907e-11
6.67711e-12
4.7151e-12
2.75773e-12
9.85976e-13
-3.28884e-13
-9.99301e-13
2.87939e-14
2.61955e-13
2.89731e-14
1.28457e-14
-2.29794e-13
-1.0049e-14
3.46748e-13
1.04082e-12
8.91089e-12
1.9365e-12
1.57912e-12
-3.64288e-12
-1.67079e-12
-1.41729e-12
-6.54073e-12
-1.63198e-12
-2.20744e-12
-6.59169e-12
-1.18634e-12
-9.05669e-13
-3.99847e-13
-1.07577e-13
-8.34618e-15
1.11005e-13
1.9901e-13
4.19684e-13
-4.86106e-13
6.87774e-13
7.69715e-13
7.99975e-13
7.6722e-13
7.16158e-13
6.39822e-13
6.62711e-13
8.14948e-13
1.15043e-12
1.66851e-12
2.33113e-12
2.95827e-12
3.85473e-12
1.23965e-10
2.39319e-11
2.66635e-11
3.20514e-11
1.24669e-10
-6.97735e-12
2.05888e-12
1.1564e-11
1.27329e-10
1.37761e-12
-8.74152e-12
-1.58723e-10
-1.88179e-11
-3.0498e-12
1.29964e-11
-1.11814e-10
-3.12545e-11
-2.57754e-11
-2.3152e-11
-1.24416e-10
-4.08393e-12
-3.30434e-12
-2.7728e-12
-2.25546e-12
-1.89197e-12
-1.62919e-12
-1.51567e-12
-1.50481e-12
-1.50664e-12
-1.51528e-12
-1.47387e-12
-1.41228e-12
-1.34131e-12
-1.57258e-11
-1.09571e-12
-8.97103e-13
-8.33723e-13
-6.84529e-13
-5.50335e-13
-2.13641e-13
-1.80674e-12
-1.47719e-12
-8.83401e-12
-1.84758e-12
-1.76638e-12
-8.22674e-12
-2.03797e-12
-1.36502e-12
-3.17321e-12
-6.14427e-13
-8.17858e-13
-8.3368e-12
-2.9196e-12
-2.67295e-12
-1.69483e-12
-4.22154e-12
-1.79116e-13
5.7301e-20
-5.54354e-14
2.79737e-13
1.98109e-08
1.89176e-08
1.27531e-08
5.85469e-09
1.11916e-09
-4.85561e-10
-5.46022e-10
-3.93288e-10
-2.59436e-10
5.0101e-11
1.38875e-10
9.29269e-11
5.99971e-11
5.10891e-11
4.35646e-11
2.10382e-11
6.08496e-12
5.74671e-13
-1.58847e-12
2.70264e-08
2.12133e-08
1.09345e-08
2.99781e-09
-4.00789e-10
-8.06018e-10
-7.03885e-10
-8.91448e-10
-1.01253e-09
-4.06597e-10
1.50926e-10
1.00875e-10
5.60321e-11
5.1346e-11
4.33223e-11
2.22039e-11
8.11452e-12
1.23183e-12
-6.93212e-13
2.83605e-08
1.74278e-08
6.35534e-09
3.39282e-10
-1.13892e-09
-9.98548e-10
-1.03933e-09
-1.3572e-09
-1.55323e-09
-1.07248e-09
-5.90495e-11
1.37718e-10
5.29844e-11
5.02208e-11
4.3146e-11
2.41417e-11
1.11931e-11
2.30403e-12
4.42443e-12
2.77302e-08
1.23082e-08
2.43242e-09
-1.20949e-09
-1.46738e-09
-1.2314e-09
-1.33941e-09
-1.54161e-09
-1.57584e-09
-1.23947e-09
-4.40907e-10
1.00256e-10
7.40741e-11
4.44549e-11
4.23399e-11
2.55174e-11
1.35142e-11
3.67245e-12
3.01776e-12
2.45102e-08
6.56084e-09
-4.35695e-10
-1.99305e-09
-1.68497e-09
-1.45712e-09
-1.4673e-09
-1.44958e-09
-1.26145e-09
-9.42781e-10
-5.76251e-10
-6.00667e-11
1.00796e-10
4.45291e-11
3.78732e-11
2.35124e-11
1.50778e-11
4.82926e-12
5.64175e-12
2.04858e-08
2.37252e-09
-1.69267e-09
-2.19119e-09
-1.74986e-09
-1.4668e-09
-1.33105e-09
-1.14567e-09
-8.27704e-10
-5.07262e-10
-3.67937e-10
-1.59659e-10
7.74869e-11
5.52123e-11
-5.14388e-12
-5.84821e-11
-3.65462e-11
-1.8404e-12
4.91965e-13
1.76451e-08
8.05907e-10
-1.68393e-09