/*--------------------------------*- C++ -*----------------------------------*\
| =========                 |                                                 |
| \\      /  F ield         | OpenFOAM: The Open Source CFD Toolbox           |
|  \\    /   O peration     | Version:  4.1                                   |
|   \\  /    A nd           | Web:      www.OpenFOAM.org                      |
|    \\/     M anipulation  |                                                 |
\*---------------------------------------------------------------------------*/
FoamFile
{
    version     2.0;
    format      ascii;
    class       volSymmTensorField;
    location    "4";
    object      R;
}
// * * * * * * * * * * * * * * * * * * * * * * * * * * * * * * * * * * * * * //

dimensions      [0 2 -2 0 0 0 0];

internalField   nonuniform List<symmTensor> 
1280
(
(0.0358342 5.88401e-18 2.51655e-19 0.0511761 0.0103427 0.0364122)
(0.0361658 6.40951e-18 2.72178e-19 0.051887 0.0104837 0.0368047)
(0.0395192 9.6538e-18 9.18816e-19 0.0547391 0.0142638 0.0439229)
(0.0408544 1.16382e-17 1.47992e-18 0.0570196 0.0148355 0.0448992)
(0.0420794 1.38625e-17 1.88533e-18 0.059319 0.0157152 0.0460231)
(0.0461575 2.0473e-17 3.88364e-18 0.0618 0.0188773 0.0546212)
(0.0478928 2.42129e-17 4.7243e-18 0.0638678 0.0212367 0.0584354)
(0.0496034 2.65065e-17 5.03107e-18 0.0663214 0.0223001 0.0621299)
(0.0515312 3.1831e-17 5.06454e-18 0.0694671 0.0261977 0.0666687)
(0.0610903 3.43015e-17 4.55078e-18 0.0809913 0.0243321 0.0801386)
(0.0668502 4.30415e-17 3.67772e-18 0.0896872 0.0299166 0.0912333)
(0.0759774 7.08218e-17 3.15612e-18 0.104853 0.0470269 0.112954)
(0.0757544 6.31962e-17 -3.50799e-19 0.100447 0.0346488 0.108841)
(0.0794472 7.28182e-17 -1.28042e-18 0.101769 0.0311512 0.115924)
(0.0998742 1.46275e-16 1.36735e-18 0.123308 0.0426758 0.155649)
(0.0990274 1.2847e-16 -2.21751e-18 0.120363 0.0352924 0.151861)
(0.105924 1.27046e-16 -8.85397e-18 0.125968 0.0316664 0.167287)
(0.162647 2.08333e-16 -4.66708e-17 0.193644 0.0390058 0.272246)
(0.158431 1.88817e-16 -4.10259e-17 0.184875 0.0346891 0.262041)
(0.15876 1.7767e-16 -4.42634e-17 0.179067 0.0278967 0.258086)
(0.226453 1.4234e-16 -8.95913e-17 0.181804 -0.00183242 0.368028)
(0.449138 1.06225e-16 -1.67617e-16 0.287752 0.00991478 0.811381)
(0.446697 7.90494e-17 -1.50131e-16 0.309663 0.0143021 0.760968)
(0.426116 6.99458e-17 -1.23389e-16 0.331426 0.0427692 0.691602)
(0.403172 7.80091e-17 -9.5885e-17 0.336928 0.066136 0.635146)
(0.381513 7.82211e-17 -7.85547e-17 0.334062 0.0814915 0.591308)
(0.251216 2.79737e-17 -5.92851e-17 0.200204 0.0435831 0.416277)
(0.235621 2.78824e-17 -5.60693e-17 0.189737 0.0444514 0.387121)
(0.221113 2.69415e-17 -5.27822e-17 0.180953 0.0423623 0.360023)
(0.207191 2.35281e-17 -4.9443e-17 0.17224 0.0388209 0.334427)
(0.193804 1.90023e-17 -4.63115e-17 0.162583 0.0353998 0.31044)
(0.181457 1.45269e-17 -4.36309e-17 0.153284 0.0324676 0.28857)
(0.17023 1.22979e-17 -4.11344e-17 0.144657 0.0298095 0.268841)
(0.159994 1.42434e-17 -3.85357e-17 0.136613 0.0270909 0.25094)
(0.150687 2.05431e-17 -3.55112e-17 0.129306 0.0240076 0.234562)
(0.142109 3.07905e-17 -3.19631e-17 0.122562 0.0205081 0.219292)
(0.1343 4.3553e-17 -2.82401e-17 0.116723 0.0167557 0.205085)
(0.12695 5.5657e-17 -2.49171e-17 0.111024 0.0128074 0.191599)
(0.120697 6.85531e-17 -2.09322e-17 0.106803 0.0100217 0.179811)
(0.116689 7.45313e-17 -1.68079e-17 0.104326 0.0106323 0.170906)
(0.124501 1.06307e-16 3.96735e-17 0.126672 0.0307559 0.147813)
(0.125728 1.0329e-16 5.21231e-17 0.135106 0.0294603 0.132698)
(0.128019 1.08739e-16 6.10235e-17 0.143937 0.0293637 0.121457)
(0.130447 1.00668e-16 6.91459e-17 0.151241 0.0308985 0.11621)
(0.141655 5.51289e-17 4.62055e-17 0.168645 0.0489525 0.1335)
(0.190587 -2.7606e-16 -5.69504e-17 0.246156 0.0658421 0.204308)
(0.21383 -4.46397e-16 -1.02668e-16 0.287751 0.0797839 0.238616)
(0.236521 -7.07966e-16 -1.57753e-16 0.343418 0.070085 0.239196)
(0.271663 -1.1836e-15 -3.18397e-16 0.44427 0.09683 0.20903)
(0.252512 -7.22973e-16 -1.2685e-16 0.399716 0.0396431 0.189897)
(0.252891 -7.46146e-16 -1.048e-16 0.404561 0.0283354 0.186597)
(0.265403 -1.22129e-15 -3.12585e-17 0.442464 0.0239877 0.206294)
(0.227895 -6.49798e-16 -7.97979e-17 0.360574 0.0133232 0.159521)
(0.207874 -4.7823e-16 -9.23571e-17 0.319746 0.00700261 0.138105)
(0.186936 -3.14611e-16 -5.59506e-17 0.277138 -0.01153 0.122102)
(0.142396 -6.08983e-17 -5.03705e-17 0.180896 -0.0262675 0.112386)
(0.127471 5.51392e-17 -3.46194e-17 0.148281 -0.0246922 0.110853)
(0.124755 7.41347e-17 -2.00429e-17 0.139299 -0.0255662 0.118039)
(0.12266 7.15471e-17 -8.79804e-18 0.130652 -0.0267341 0.129224)
(0.121259 7.28289e-17 8.58623e-18 0.121708 -0.0277073 0.144678)
(0.114091 6.36177e-17 1.37971e-17 0.100433 -0.00890078 0.168964)
(0.118268 5.90721e-17 1.71859e-17 0.103029 -0.00832435 0.178119)
(0.124698 4.86294e-17 2.07802e-17 0.107476 -0.0110766 0.190168)
(0.13232 3.95588e-17 2.38607e-17 0.113615 -0.0150603 0.204029)
(0.140367 3.09179e-17 2.71865e-17 0.119887 -0.0188872 0.218573)
(0.149202 2.4319e-17 3.04559e-17 0.127012 -0.0224695 0.234293)
(0.158663 2.03198e-17 3.36755e-17 0.134492 -0.0256018 0.251016)
(0.169006 1.99137e-17 3.68459e-17 0.142517 -0.0283335 0.269298)
(0.180183 2.17351e-17 4.01963e-17 0.150768 -0.0308058 0.289259)
(0.192722 2.45182e-17 4.4092e-17 0.159647 -0.0334451 0.31188)
(0.206773 2.68911e-17 4.84025e-17 0.169778 -0.0372608 0.337329)
(0.221309 2.79506e-17 5.3107e-17 0.178656 -0.0410426 0.364535)
(0.236775 2.84727e-17 5.84153e-17 0.187664 -0.043586 0.394124)
(0.254379 2.98256e-17 6.49792e-17 0.19906 -0.0436249 0.428202)
(0.379454 8.0697e-17 7.91156e-17 0.327366 -0.0764998 0.593057)
(0.400818 8.11537e-17 9.88688e-17 0.329568 -0.0608917 0.63666)
(0.424131 7.8655e-17 1.27799e-16 0.324185 -0.0378156 0.693945)
(0.444718 8.8974e-17 1.58038e-16 0.301989 -0.0103921 0.763438)
(0.445258 1.12481e-16 1.83125e-16 0.276688 -0.00752628 0.811394)
(0.209327 1.40784e-16 1.15813e-16 0.157827 0.00335355 0.345947)
(0.133973 1.70285e-16 7.46672e-17 0.144569 -0.0272741 0.226581)
(0.130375 1.77257e-16 7.06209e-17 0.144515 -0.0346547 0.228479)
(0.130412 1.93281e-16 7.77945e-17 0.144749 -0.0397728 0.238302)
(0.0859248 1.00115e-16 2.32863e-17 0.0978941 -0.0313126 0.141635)
(0.0792125 9.38349e-17 1.90726e-17 0.0926545 -0.0347247 0.125585)
(0.0784854 1.02202e-16 1.99493e-17 0.093388 -0.0417271 0.125799)
(0.0637537 4.80829e-17 7.62753e-18 0.0773308 -0.0284181 0.101674)
(0.0615347 3.79439e-17 1.1669e-17 0.078668 -0.0314485 0.0943479)
(0.0617296 3.78455e-17 1.88162e-17 0.0830662 -0.0426129 0.09654)
(0.0555022 2.0446e-17 1.36772e-17 0.0713891 -0.028071 0.0831848)
(0.0501503 9.02273e-18 1.4555e-17 0.061851 -0.022352 0.0770287)
(0.0415796 -4.09893e-18 2.40983e-17 0.0515097 -0.021901 0.0628861)
(0.040616 -2.99913e-18 1.85225e-17 0.0502196 -0.0190244 0.0587184)
(0.0395738 -2.12583e-18 1.65655e-17 0.049022 -0.018177 0.0551735)
(0.0383581 -1.49753e-18 1.42257e-17 0.0479172 -0.0162644 0.0514686)
(0.0349837 -3.16035e-18 1.56571e-17 0.0464955 -0.0129888 0.0430048)
(0.0342375 -2.5142e-18 1.35164e-17 0.0452322 -0.0123398 0.0416997)
(0.0332638 -2.30618e-18 1.22612e-17 0.0437899 -0.011852 0.0404527)
(0.030523 -4.36974e-18 1.24392e-17 0.0419978 -0.00831729 0.0336378)
(0.030272 -4.06189e-18 1.15458e-17 0.0415266 -0.0083135 0.0331939)
(0.152055 4.5828e-15 3.88953e-14 0.138553 0.0698768 0.285222)
(0.169782 1.83934e-14 5.02906e-14 0.161371 0.0780249 0.320632)
(0.182108 2.09077e-14 4.24525e-14 0.192166 0.0813501 0.328112)
(0.191672 1.56835e-14 2.26862e-14 0.236435 0.0794414 0.31335)
(0.200084 9.18934e-15 6.57819e-15 0.296036 0.0645658 0.280068)
(0.214409 6.93905e-15 -2.07985e-16 0.377157 0.040236 0.249895)
(0.238125 8.72484e-15 -1.6932e-15 0.485318 0.0136776 0.231558)
(0.269601 1.21825e-14 -1.80457e-15 0.623645 -0.00907779 0.214793)
(0.300919 1.5412e-14 -1.28711e-15 0.770916 -0.0236444 0.18704)
(0.284443 1.32262e-14 -2.39055e-16 0.756656 -0.0261434 0.143201)
(0.189088 4.71417e-15 -1.8381e-17 0.486545 -0.0254727 0.0859963)
(0.116623 8.72448e-16 7.7113e-17 0.280805 -0.00322351 0.0514471)
(0.073467 2.28757e-17 -2.55642e-17 0.161176 0.0105953 0.0349446)
(0.050346 -6.03419e-17 -5.46045e-17 0.102455 0.0119631 0.0268472)
(0.0379185 -2.00364e-17 -1.81891e-17 0.0761025 0.00853394 0.0214209)
(0.0443036 -1.83182e-17 1.33245e-17 0.0993231 0.0047809 0.0233298)
(0.0365682 -1.88615e-17 1.55543e-17 0.076234 -0.00597067 0.0212447)
(0.0304288 -1.36174e-17 1.12548e-17 0.0600678 -0.00456143 0.0183924)
(0.0255792 -9.43873e-18 1.00009e-17 0.0444039 0.00139144 0.0179389)
(0.151019 1.16301e-14 4.94179e-14 0.133148 0.0675441 0.287338)
(0.165883 2.42975e-14 5.70961e-14 0.152992 0.0745615 0.315397)
(0.173723 2.24792e-14 4.00114e-14 0.179036 0.0774608 0.310597)
(0.179179 1.41827e-14 1.70775e-14 0.215367 0.0749514 0.287575)
(0.186062 6.90446e-15 3.16473e-15 0.263443 0.0632572 0.259715)
(0.200458 4.63225e-15 -1.12361e-15 0.326367 0.0480333 0.248977)
(0.222679 5.96852e-15 -1.79882e-15 0.408757 0.0351563 0.253767)
(0.248621 8.86339e-15 -1.99474e-15 0.5198 0.0218421 0.248664)
(0.277228 1.29843e-14 -1.7117e-15 0.670037 0.00310725 0.21159)
(0.286211 1.49894e-14 -4.9932e-16 0.758538 -0.0199092 0.153247)
(0.185466 4.79023e-15 -1.09562e-16 0.47492 -0.0224252 0.0874565)
(0.11272 7.38889e-16 7.35178e-17 0.269223 0.00105264 0.0515089)
(0.0736281 2.15558e-17 -2.21836e-17 0.162316 0.0150861 0.0367812)
(0.052734 -5.79065e-17 -4.86464e-17 0.110686 0.0144246 0.0289698)
(0.0413048 -1.91554e-17 -1.34282e-17 0.0877509 0.00778366 0.0230378)
(0.0485022 -1.96254e-17 1.49206e-17 0.111431 -0.00318651 0.0259936)
(0.0415194 -2.30793e-17 2.11081e-17 0.0857429 -0.0167084 0.0291425)
(0.0342758 -1.57731e-17 1.6394e-17 0.0654055 -0.0137323 0.0267071)
(0.0318426 -1.52058e-17 1.91621e-17 0.0539471 -0.00662561 0.0298716)
(0.143791 2.24514e-14 5.67841e-14 0.12614 0.0588727 0.267286)
(0.154259 2.77748e-14 5.375e-14 0.144047 0.063371 0.280528)
(0.157776 1.87011e-14 2.76439e-14 0.16673 0.0641084 0.262098)
(0.162982 8.24931e-15 7.80403e-15 0.196985 0.0627379 0.243493)
(0.174289 2.51977e-15 5.25309e-17 0.233853 0.0636265 0.242965)
(0.192337 1.37547e-15 -1.38265e-15 0.274953 0.0740867 0.26775)
(0.21241 1.87317e-15 -1.52002e-15 0.321683 0.0923205 0.302693)
(0.226407 3.00332e-15 -1.85657e-15 0.383529 0.100594 0.308987)
(0.234337 6.06354e-15 -1.75691e-15 0.485948 0.0810569 0.250418)
(0.246416 1.12451e-14 -3.12914e-16 0.62217 0.0349301 0.155709)
(0.178754 5.24823e-15 -5.71529e-17 0.453571 -0.000819148 0.0882478)
(0.107386 6.79298e-16 5.5628e-17 0.253205 0.00735363 0.0512201)
(0.0730057 2.2942e-18 -1.95096e-17 0.160864 0.0205375 0.0386568)
(0.0564019 -5.02491e-17 -4.19795e-17 0.122564 0.0190855 0.0320131)
(0.0483756 -1.3631e-17 -7.99028e-18 0.110628 0.0073124 0.0258)
(0.056586 -1.254e-17 1.57962e-17 0.133079 -0.0138655 0.0316574)
(0.0518703 -1.6488e-17 2.49513e-17 0.106498 -0.031082 0.0438254)
(0.0419048 -1.00646e-17 2.19122e-17 0.0745022 -0.0275912 0.0451368)
(0.038545 -5.44298e-18 2.98275e-17 0.0548229 -0.0227557 0.0539349)
(0.135738 2.4377e-14 5.37639e-14 0.118831 0.0504817 0.243185)
(0.143693 2.37097e-14 4.2976e-14 0.135126 0.0542788 0.247715)
(0.147435 1.20049e-14 1.58255e-14 0.155904 0.0570328 0.230921)
(0.157532 3.31986e-15 2.40583e-15 0.182365 0.0634401 0.23339)
(0.176226 -4.08992e-17 -1.32834e-15 0.212581 0.0806499 0.265989)
(0.202889 -5.39148e-16 -1.74595e-15 0.247114 0.112907 0.329975)
(0.229396 -7.281e-16 -2.01862e-15 0.287051 0.15175 0.400272)
(0.239289 -7.31113e-16 -2.60869e-15 0.330592 0.174529 0.417176)
(0.228449 7.3169e-16 -2.48563e-15 0.392205 0.164383 0.339447)
(0.214916 4.38566e-15 -8.14483e-16 0.48132 0.118306 0.203057)
(0.171159 4.84975e-15 1.70226e-16 0.423939 0.0389769 0.097491)
(0.103691 7.76774e-16 4.49682e-17 0.24099 0.0202585 0.0539708)
(0.0738607 -2.91291e-17 -2.25555e-17 0.163121 0.0271773 0.0424483)
(0.0650528 -3.47926e-17 -2.98584e-17 0.148035 0.0260629 0.0393356)
(0.0691942 2.32853e-17 2.26474e-18 0.17178 0.00623577 0.0366583)
(0.0793144 6.01883e-17 1.79151e-17 0.188464 -0.0276713 0.0501652)
(0.0736679 5.02704e-17 2.21455e-17 0.150002 -0.0493298 0.070323)
(0.0610399 3.39966e-17 2.29297e-17 0.105656 -0.0464566 0.0785928)
(0.0666199 3.75235e-17 2.53654e-17 0.100311 -0.0485456 0.103354)
(0.129159 2.26321e-14 4.5064e-14 0.115729 0.0410944 0.218532)
(0.137146 1.7711e-14 3.02929e-14 0.132707 0.0441573 0.221568)
(0.146228 6.01563e-15 7.27311e-15 0.154678 0.050786 0.222408)
(0.163895 1.91739e-18 -5.96939e-16 0.178987 0.0658347 0.254409)
(0.191371 -1.53604e-15 -2.42116e-15 0.206571 0.094838 0.32199)
(0.224505 -1.69628e-15 -2.58744e-15 0.238791 0.134767 0.414827)
(0.252798 -2.02183e-15 -3.0186e-15 0.27762 0.177377 0.496392)
(0.257616 -2.20096e-15 -3.49336e-15 0.315872 0.204486 0.502353)
(0.237623 -1.52314e-15 -3.14923e-15 0.358413 0.206323 0.414671)
(0.210358 5.9477e-16 -1.6203e-15 0.415265 0.175523 0.271012)
(0.170071 3.15079e-15 1.50243e-16 0.400569 0.0917627 0.130066)
(0.106764 8.31054e-16 6.73754e-17 0.243878 0.0439455 0.067611)
(0.08164 -1.46279e-17 -2.22763e-17 0.181528 0.0390764 0.0538406)
(0.087196 1.10783e-17 2.25064e-18 0.205183 0.0370106 0.0578933)
(0.118208 2.50033e-16 5.53176e-17 0.280262 0.0016842 0.0803015)
(0.143747 5.42095e-16 8.69653e-17 0.31341 -0.0189673 0.113568)
(0.12374 4.12527e-16 3.68048e-17 0.237103 -0.0477253 0.123565)
(0.0921483 2.26649e-16 3.59798e-17 0.143971 -0.0440526 0.123865)
(0.0921677 1.50418e-16 3.02078e-17 0.112264 -0.051611 0.157862)
(0.124564 1.56282e-14 3.48617e-14 0.112884 0.0319992 0.20095)
(0.134721 9.11237e-15 2.0888e-14 0.129275 0.0367123 0.212307)
(0.149906 2.75877e-16 2.67134e-15 0.149482 0.0495533 0.237044)
(0.174667 -2.47446e-15 -2.14158e-15 0.171341 0.0715473 0.297312)
(0.206524 -2.61694e-15 -3.26115e-15 0.196811 0.102465 0.384747)
(0.240012 -2.38479e-15 -3.2361e-15 0.229125 0.139222 0.479957)
(0.263184 -2.44383e-15 -3.38544e-15 0.267696 0.177936 0.541798)
(0.261966 -2.35643e-15 -3.30389e-15 0.304463 0.204131 0.522683)
(0.242708 -1.79976e-15 -2.67545e-15 0.343415 0.21481 0.439179)
(0.216474 -6.54554e-16 -1.64432e-15 0.388029 0.205638 0.323168)
(0.177627 1.18669e-15 -2.41704e-16 0.386113 0.14589 0.18662)
(0.122363 6.13863e-16 4.8704e-17 0.270919 0.080807 0.101627)
(0.106746 9.54167e-17 2.31825e-17 0.233997 0.065374 0.085697)
(0.142484 2.46706e-16 1.66636e-16 0.313019 0.0715648 0.117266)
(0.332861 1.4386e-15 1.1001e-15 0.484159 0.188663 0.447291)
(0.382139 1.7416e-15 1.41226e-15 0.520238 0.25523 0.562485)
(0.266738 1.24797e-15 7.91937e-16 0.363225 0.125159 0.37041)
(0.193301 7.53519e-16 3.65648e-16 0.269114 0.0476473 0.280354)
(0.205838 3.48398e-16 1.41527e-16 0.258358 -0.0522909 0.340806)
(0.126945 6.74774e-15 3.03762e-14 0.113794 0.0275608 0.204139)
(0.139874 1.22496e-15 1.81345e-14 0.128909 0.0356465 0.227294)
(0.159628 -3.89119e-15 1.24035e-15 0.146114 0.0527155 0.272577)
(0.187032 -3.99496e-15 -2.58734e-15 0.165073 0.0743276 0.347022)
(0.216323 -3.02524e-15 -3.30081e-15 0.187321 0.0988724 0.429289)
(0.24186 -2.37058e-15 -2.92605e-15 0.215259 0.126758 0.497439)
(0.254699 -2.12053e-15 -2.62783e-15 0.247356 0.15606 0.520663)
(0.252307 -1.73895e-15 -2.08171e-15 0.281919 0.179804 0.489596)
(0.242894 -1.08486e-15 -1.34111e-15 0.323205 0.198985 0.431954)
(0.230064 -4.53778e-16 -8.16712e-16 0.373312 0.214372 0.363444)
(0.201171 1.09036e-16 -4.05097e-16 0.39273 0.193009 0.264255)
(0.15826 2.2698e-16 -9.47024e-18 0.324556 0.12822 0.1696)
(0.158773 2.60517e-16 1.77794e-16 0.312339 0.108131 0.163468)
(0.239302 7.63935e-16 6.49581e-16 0.393335 0.145207 0.294456)
(0.553329 1.5149e-15 2.20918e-15 0.577894 0.390534 1.06172)
(0.666811 1.16415e-15 1.71316e-15 0.664233 0.492813 1.34655)
(0.653802 9.21984e-16 9.365e-16 0.704322 0.534458 1.28381)
(0.443937 7.72697e-16 6.02701e-16 0.517863 0.379489 0.85144)
(0.652798 4.3148e-16 5.76325e-16 0.493801 0.262954 1.56034)
(0.129629 -1.00344e-15 3.0134e-14 0.111701 0.0233066 0.214008)
(0.144697 -4.67309e-15 1.89784e-14 0.124373 0.0334578 0.247929)
(0.167148 -6.00837e-15 2.0571e-15 0.138557 0.0503995 0.307287)
(0.192949 -4.03614e-15 -1.31096e-15 0.155213 0.0671227 0.3792)
(0.215319 -2.47289e-15 -1.95167e-15 0.173914 0.0838073 0.438363)
(0.229213 -1.83782e-15 -1.73219e-15 0.19479 0.10077 0.465711)
(0.234734 -1.55056e-15 -1.37127e-15 0.219445 0.119281 0.4597)
(0.238382 -1.00323e-15 -6.61289e-16 0.251877 0.140629 0.441186)
(0.245234 -2.35914e-16 4.14448e-17 0.296846 0.168947 0.426316)
(0.256708 3.87476e-16 3.84585e-16 0.361335 0.208884 0.417329)
(0.267901 6.24345e-16 4.1917e-16 0.434499 0.245915 0.406836)
(0.262161 6.06795e-16 5.32784e-16 0.436332 0.227676 0.376236)
(0.313325 9.13662e-16 1.04217e-15 0.444002 0.237571 0.491318)
(0.537326 1.46808e-15 2.23117e-15 0.554027 0.376507 1.06116)
(0.65361 8.4772e-16 1.71038e-15 0.577405 0.427835 1.46829)
(0.528826 3.77778e-16 4.7478e-16 0.479847 0.340486 1.13657)
(0.48686 3.88477e-16 5.02085e-16 0.432449 0.301677 1.05283)
(0.397284 3.87763e-16 5.6379e-16 0.323153 0.184202 0.883171)
(0.322268 2.46136e-16 3.40106e-16 0.23883 0.0890066 0.715716)
(0.129582 -2.51698e-15 3.12395e-14 0.106302 0.0138265 0.220238)
(0.145808 -6.41179e-15 2.18141e-14 0.116255 0.0231709 0.261595)
(0.16811 -4.5909e-15 5.67457e-15 0.128124 0.0371414 0.323374)
(0.187659 -2.2501e-15 1.99285e-15 0.141899 0.047695 0.37439)
(0.198543 -1.42465e-15 2.32343e-17 0.154683 0.0551766 0.394322)
(0.202736 -1.43769e-15 -6.79008e-16 0.168128 0.0606644 0.388436)
(0.207233 -1.3624e-15 -4.42176e-16 0.185767 0.0685421 0.379578)
(0.216336 -9.0444e-16 2.54194e-16 0.21037 0.0831394 0.381701)
(0.2296 -2.86195e-16 7.78631e-16 0.244478 0.108078 0.391233)
(0.245807 3.53216e-16 9.98679e-16 0.291079 0.14525 0.401884)
(0.266681 9.62097e-16 1.12295e-15 0.347653 0.190214 0.424012)
(0.281493 1.06127e-15 1.15535e-15 0.38266 0.211703 0.446134)
(0.283921 8.32432e-16 1.19045e-15 0.341713 0.184923 0.478475)
(0.259896 2.61109e-16 8.64098e-16 0.252429 0.116654 0.47391)
(0.224032 -1.20741e-16 3.66733e-16 0.219165 0.0510068 0.378859)
(0.221049 -1.36319e-16 2.88459e-16 0.231777 0.0308682 0.347352)
(0.223565 1.61158e-16 1.88675e-16 0.23286 0.0409743 0.351761)
(0.245237 2.14299e-16 1.93902e-16 0.252888 0.0399906 0.403539)
(0.230673 1.41443e-16 1.05577e-16 0.248739 0.00809516 0.357664)
(0.127613 1.82259e-14 2.83381e-14 0.100937 0.0019573 0.22105)
(0.144115 5.82425e-15 2.32633e-14 0.108178 0.00628572 0.266351)
(0.16394 1.40839e-15 1.01048e-14 0.118371 0.0134328 0.320054)
(0.174771 -1.70456e-16 4.22476e-15 0.12975 0.0176067 0.339334)
(0.176749 -1.1134e-15 3.77685e-16 0.140738 0.0188099 0.32578)
(0.179321 -1.71302e-15 -6.19522e-16 0.155167 0.0183155 0.310607)
(0.187051 -2.03434e-15 -2.93016e-16 0.173642 0.0186824 0.310469)
(0.198874 -2.2334e-15 3.62599e-16 0.197183 0.0223116 0.320104)
(0.210456 -2.46502e-15 5.9705e-16 0.229563 0.0297541 0.319598)
(0.220964 -2.73699e-15 4.89417e-16 0.275286 0.03988 0.301988)
(0.235489 -2.91685e-15 3.57736e-16 0.332961 0.0507177 0.289149)
(0.253695 -2.91044e-15 4.57098e-16 0.381965 0.0540461 0.300362)
(0.265557 -3.29563e-15 1.01023e-15 0.392686 0.0121245 0.320803)
(0.27842 -4.12086e-15 1.82225e-15 0.383478 -0.0851768 0.361375)
(0.318096 -4.53041e-15 2.59243e-15 0.4278 -0.175925 0.450057)
(0.34856 -4.30914e-15 2.39624e-15 0.512051 -0.200842 0.470509)
(0.368909 -3.95345e-15 1.77734e-15 0.630755 -0.20658 0.423961)
(0.392116 -3.17352e-15 1.23769e-15 0.740415 -0.198118 0.408497)
(0.391724 -2.36578e-15 9.12602e-16 0.776847 -0.196639 0.374314)
(0.130402 2.5279e-14 1.17774e-14 0.104277 -0.00691204 0.224574)
(0.148285 1.16813e-14 6.84216e-15 0.111919 -0.0114369 0.274214)
(0.170489 4.57254e-15 -7.50852e-17 0.122693 -0.0168847 0.335818)
(0.181732 8.85937e-16 -3.0332e-16 0.133819 -0.0176681 0.356666)
(0.181615 -5.96411e-16 -1.17815e-15 0.143763 -0.0146585 0.336026)
(0.182218 -1.23259e-15 -1.36716e-15 0.157954 -0.0104789 0.313251)
(0.188856 -1.75796e-15 -1.05837e-15 0.177095 -0.00795259 0.307809)
(0.200428 -2.38586e-15 -7.07447e-16 0.201573 -0.00928917 0.314796)
(0.21242 -2.99897e-15 -4.28532e-16 0.234893 -0.0137988 0.313911)
(0.223587 -3.46053e-15 -3.81806e-16 0.282122 -0.0186616 0.296139)
(0.238554 -3.69527e-15 -4.64211e-16 0.34243 -0.0221213 0.281071)
(0.257597 -3.66655e-15 -6.69335e-16 0.3957 -0.0205117 0.289741)
(0.27153 -3.69183e-15 -1.12524e-15 0.408972 0.0107339 0.318379)
(0.28391 -4.1303e-15 -1.94584e-15 0.392923 0.095707 0.368552)
(0.321332 -4.3683e-15 -2.70215e-15 0.428956 0.181613 0.45942)
(0.349893 -4.20007e-15 -2.39736e-15 0.508983 0.205179 0.476563)
(0.367969 -3.85297e-15 -1.74215e-15 0.622729 0.206547 0.425785)
(0.390688 -3.08275e-15 -1.1878e-15 0.728393 0.196936 0.411531)
(0.390267 -2.29628e-15 -8.64323e-16 0.763203 0.199397 0.379824)
(0.137708 7.35522e-15 6.34273e-15 0.115001 -0.015338 0.231946)
(0.155758 3.09528e-15 2.92118e-15 0.125544 -0.0251561 0.278995)
(0.182333 2.20559e-15 -1.81485e-15 0.138432 -0.0409654 0.355147)
(0.207124 8.73884e-16 -1.83978e-15 0.154367 -0.052472 0.422866)
(0.22074 4.95132e-16 -2.48049e-15 0.168853 -0.059992 0.450257)
(0.223088 3.82995e-16 -2.51283e-15 0.182716 -0.0644423 0.435497)
(0.222836 1.33548e-16 -1.94044e-15 0.200074 -0.069631 0.407526)
(0.228588 -3.11398e-16 -1.16754e-15 0.224925 -0.0807288 0.395279)
(0.241466 -5.80091e-16 -6.38278e-16 0.259861 -0.103241 0.400359)
(0.259629 -3.56978e-16 -5.02241e-16 0.308543 -0.140067 0.412879)
(0.284192 2.86629e-16 -6.81097e-16 0.370072 -0.188565 0.43977)
(0.306449 8.31432e-16 -9.69806e-16 0.415631 -0.223806 0.477674)
(0.301554 7.79176e-16 -1.08238e-15 0.367484 -0.194912 0.499349)
(0.267735 3.41342e-16 -8.26784e-16 0.259694 -0.121547 0.486017)
(0.2307 2.54685e-17 -3.80561e-16 0.220608 -0.0567654 0.395944)
(0.226142 2.37688e-18 -2.77148e-16 0.229754 -0.0356748 0.362844)
(0.229402 2.5481e-16 -1.82969e-16 0.232188 -0.0412742 0.367553)
(0.254039 2.72908e-16 -1.85325e-16 0.256342 -0.0362366 0.425304)
(0.237901 2.09026e-16 -7.75764e-17 0.248709 -0.000650359 0.381752)
(0.143804 1.21566e-15 3.81316e-15 0.125725 -0.0250915 0.236218)
(0.16084 -5.12049e-16 1.45984e-15 0.140038 -0.0359215 0.274867)
(0.187088 2.38207e-16 -1.58506e-15 0.155646 -0.0557819 0.346401)
(0.220152 1.30666e-16 -1.58328e-15 0.175645 -0.0765157 0.440997)
(0.250744 6.62818e-16 -2.59365e-15 0.19931 -0.0977247 0.524491)
(0.268916 1.18112e-15 -3.31093e-15 0.225109 -0.118869 0.560863)
(0.27252 1.3619e-15 -3.07428e-15 0.253586 -0.139528 0.540826)
(0.272831 1.0656e-15 -2.0744e-15 0.290498 -0.160505 0.50121)
(0.281455 6.54751e-16 -1.10914e-15 0.344057 -0.189889 0.478592)
(0.302703 5.74382e-16 -6.42136e-16 0.425942 -0.238126 0.480903)
(0.331099 7.68223e-16 -5.97317e-16 0.530822 -0.294795 0.496156)
(0.331856 7.88346e-16 -6.72591e-16 0.5596 -0.291138 0.472274)
(0.372292 9.89577e-16 -1.06248e-15 0.545755 -0.286853 0.571416)
(0.587552 1.45573e-15 -2.1266e-15 0.619171 -0.410952 1.14099)
(0.734784 1.01308e-15 -1.91389e-15 0.650136 -0.483663 1.64985)
(0.599805 5.13017e-16 -6.60862e-16 0.540812 -0.388861 1.30217)
(0.538819 4.64337e-16 -6.03461e-16 0.477012 -0.332733 1.1728)
(0.420015 4.2281e-16 -5.81108e-16 0.34202 -0.18781 0.932159)
(0.33853 2.73889e-16 -3.05611e-16 0.251783 -0.0902391 0.751548)
(0.146131 -7.85721e-16 2.7852e-15 0.131993 -0.0310039 0.235496)
(0.160957 -1.55356e-15 9.73073e-16 0.149596 -0.0397609 0.261871)
(0.183828 -7.21561e-16 -1.1206e-15 0.16947 -0.0595676 0.314925)
(0.217809 -6.62987e-16 -8.9571e-16 0.192047 -0.0861993 0.408768)
(0.256806 1.58082e-16 -1.71759e-15 0.220139 -0.117555 0.519561)
(0.291822 1.15319e-15 -3.03474e-15 0.256106 -0.153173 0.613095)
(0.310808 1.90503e-15 -3.7711e-15 0.298118 -0.191699 0.648242)
(0.308616 2.03066e-15 -3.2628e-15 0.342677 -0.221881 0.606459)
(0.299756 1.62584e-15 -2.08944e-15 0.397396 -0.246411 0.535372)
(0.291731 1.15144e-15 -1.15462e-15 0.467864 -0.270539 0.463807)
(0.269335 6.71126e-16 -5.73812e-16 0.518683 -0.265028 0.367767)
(0.215976 2.27115e-16 -1.79203e-16 0.447068 -0.183569 0.238981)
(0.200397 2.72732e-16 -2.23204e-16 0.405807 -0.139559 0.203387)
(0.274158 7.67759e-16 -6.09547e-16 0.474072 -0.167276 0.32383)
(0.586366 1.51522e-15 -2.08576e-15 0.625649 -0.412214 1.10252)
(0.738903 1.32576e-15 -1.95985e-15 0.744064 -0.548034 1.48732)
(0.7116 9.89465e-16 -1.05966e-15 0.769999 -0.578532 1.39539)
(0.461567 7.78003e-16 -5.85495e-16 0.546745 -0.372387 0.873522)
(0.691383 4.11151e-16 -4.54777e-16 0.525261 -0.26528 1.64702)
(0.146608 -7.83832e-16 2.18637e-15 0.132906 -0.0367877 0.23806)
(0.158365 -1.44174e-15 8.07212e-16 0.152274 -0.041596 0.250623)
(0.175877 -7.28903e-16 -8.61677e-16 0.176326 -0.056243 0.278362)
(0.205766 -9.44683e-16 -5.71484e-16 0.202463 -0.0826954 0.351376)
(0.246427 -4.29799e-16 -8.65039e-16 0.233736 -0.121274 0.463331)
(0.292012 6.45156e-16 -2.13855e-15 0.275142 -0.168585 0.592455)
(0.326879 1.77773e-15 -3.54884e-15 0.325973 -0.220151 0.685454)
(0.330783 2.43149e-15 -3.96631e-15 0.375146 -0.257487 0.674718)
(0.31015 2.3105e-15 -3.12583e-15 0.425475 -0.274631 0.576866)
(0.280373 1.63125e-15 -1.84794e-15 0.483272 -0.269736 0.439144)
(0.23693 5.38415e-16 -5.98243e-16 0.500967 -0.209481 0.273557)
(0.167798 7.17333e-17 -8.43098e-17 0.373976 -0.118532 0.147208)
(0.135445 8.39791e-17 -6.08709e-17 0.300894 -0.0839271 0.10849)
(0.165035 2.60941e-16 -1.48761e-16 0.365586 -0.0800562 0.132568)
(0.333179 1.18693e-15 -8.23104e-16 0.518225 -0.16696 0.417292)
(0.398099 1.61932e-15 -1.21595e-15 0.572797 -0.252673 0.556308)
(0.285341 1.1583e-15 -6.56332e-16 0.402959 -0.12129 0.382172)
(0.247257 7.38863e-16 -3.40333e-16 0.341978 -0.0836763 0.387054)
(0.254459 3.4447e-16 -1.18641e-16 0.322795 0.0469106 0.441904)
(0.154843 1.64859e-16 1.41582e-15 0.137895 -0.048269 0.264687)
(0.164297 -9.15577e-16 7.14534e-16 0.158126 -0.0513159 0.267709)
(0.17445 -2.37126e-16 -8.37276e-16 0.184354 -0.0584186 0.266009)
(0.195376 -6.9028e-16 -6.24792e-16 0.213681 -0.075845 0.302908)
(0.229417 -7.42106e-16 -4.72227e-16 0.246913 -0.111078 0.386518)
(0.273195 2.54922e-17 -1.2622e-15 0.286865 -0.161657 0.508667)
(0.314069 1.15712e-15 -2.6226e-15 0.336205 -0.217645 0.626022)
(0.327699 2.09664e-15 -3.64788e-15 0.385982 -0.257982 0.656666)
(0.306125 2.24608e-15 -3.39593e-15 0.435637 -0.26622 0.56191)
(0.268731 1.40947e-15 -1.97514e-15 0.498799 -0.23292 0.380441)
(0.223459 -5.40498e-18 -3.67288e-16 0.513003 -0.13915 0.192822)
(0.146819 -4.85849e-17 -3.22338e-17 0.340063 -0.0678094 0.0981853)
(0.106292 9.49787e-18 -1.38832e-17 0.240553 -0.051612 0.0696049)
(0.107093 3.40747e-17 -1.95036e-17 0.253134 -0.0464286 0.0702903)
(0.141476 1.88764e-16 -6.00386e-17 0.339896 -0.00852272 0.0939896)
(0.168915 4.94095e-16 -8.30888e-17 0.372418 0.0214051 0.129847)
(0.145943 4.09233e-16 -2.4069e-17 0.28281 0.0548445 0.142934)
(0.134289 3.25188e-16 -7.04907e-17 0.204024 0.0246975 0.18998)
(0.125486 2.27835e-16 5.27908e-18 0.157505 0.0477782 0.21465)
(0.164131 1.61136e-15 -3.13932e-16 0.14196 -0.0600417 0.29751)
(0.173683 -2.34445e-16 1.79402e-16 0.160944 -0.0640308 0.30308)
(0.177672 3.42135e-16 -1.05619e-15 0.185359 -0.066683 0.280861)
(0.189125 -1.01712e-16 -9.86244e-16 0.216811 -0.0733941 0.280843)
(0.211863 -6.68823e-16 -4.94166e-16 0.252911 -0.0935036 0.319794)
(0.245924 -4.42104e-16 -7.9077e-16 0.293878 -0.133372 0.401931)
(0.282987 3.42507e-16 -1.69357e-15 0.342023 -0.184575 0.50198)
(0.301553 1.14599e-15 -2.66565e-15 0.393273 -0.220079 0.546671)
(0.288959 1.1962e-15 -2.72189e-15 0.457549 -0.214306 0.467349)
(0.263637 1.35381e-16 -1.39989e-15 0.551553 -0.159527 0.287065)
(0.223222 -6.62343e-16 -1.59386e-16 0.545642 -0.0651816 0.138699)
(0.140942 -7.82992e-17 -1.72136e-17 0.333137 -0.0322262 0.0761117)
(0.0967079 -1.26873e-17 -3.34152e-18 0.218455 -0.0352158 0.0547976)
(0.0828456 -1.31418e-17 -2.5127e-19 0.191285 -0.034514 0.049568)
(0.0820938 9.78135e-18 -4.59795e-18 0.202405 -0.0112418 0.0448666)
(0.0970785 8.50802e-17 -5.92062e-18 0.232127 0.0289745 0.0594811)
(0.0890787 8.8944e-17 5.10152e-18 0.183527 0.0553889 0.0814287)
(0.0767969 7.88232e-17 -1.28144e-18 0.134302 0.0497591 0.0967647)
(0.0840293 9.5296e-17 2.27569e-17 0.128459 0.0529662 0.126912)
(0.173946 3.47845e-15 -3.1132e-15 0.150058 -0.0703605 0.327119)
(0.186446 6.98161e-16 -1.1257e-15 0.170119 -0.07509 0.343716)
(0.190244 8.67129e-16 -1.51365e-15 0.195393 -0.0754672 0.321024)
(0.195587 5.73754e-16 -1.72629e-15 0.229668 -0.0734004 0.296134)
(0.208632 -4.13251e-16 -8.85883e-16 0.271971 -0.0741052 0.29381)
(0.230668 -8.26893e-16 -7.82794e-16 0.318438 -0.0871583 0.325395)
(0.257523 -6.29866e-16 -1.24992e-15 0.371164 -0.112904 0.377798)
(0.276636 -3.65022e-16 -1.84889e-15 0.436037 -0.129375 0.402172)
(0.283369 -7.84735e-16 -1.85755e-15 0.541948 -0.110934 0.342326)
(0.287368 -1.91546e-15 -7.56547e-16 0.68713 -0.061306 0.213091)
(0.234855 -9.12487e-16 -1.04959e-16 0.593917 -0.00860357 0.121037)
(0.144466 -6.65679e-17 -1.00742e-17 0.346399 -0.0104384 0.0700357)
(0.0954946 -2.20102e-17 -2.08558e-18 0.215726 -0.0258763 0.0496523)
(0.0715988 -2.0763e-17 2.18886e-18 0.158677 -0.0251028 0.0403489)
(0.0591337 -1.47342e-17 2.14983e-18 0.13629 -0.0106694 0.0312675)
(0.0686495 3.65639e-18 -1.27737e-18 0.163133 0.014019 0.0374228)
(0.0624365 1.02975e-17 -3.90106e-19 0.130452 0.0355328 0.0506594)
(0.0509719 1.23914e-17 -6.29938e-19 0.0928807 0.031415 0.0530192)
(0.0485065 2.22158e-17 -6.656e-19 0.0721371 0.0268247 0.0653621)
(0.181345 4.7554e-15 -6.16586e-15 0.156875 -0.0800062 0.348158)
(0.198756 1.92131e-15 -3.23317e-15 0.178316 -0.0872561 0.382052)
(0.208218 1.25609e-15 -2.17766e-15 0.206506 -0.0902414 0.378471)
(0.214471 1.31272e-15 -2.90322e-15 0.246161 -0.0875789 0.352235)
(0.221886 1.32956e-16 -1.73432e-15 0.298856 -0.0744302 0.31881)
(0.238185 -1.05001e-15 -1.09252e-15 0.367943 -0.0573254 0.306531)
(0.264734 -1.7026e-15 -1.22897e-15 0.458737 -0.0441943 0.317738)
(0.294684 -2.16079e-15 -1.51039e-15 0.578824 -0.0308299 0.319809)
(0.325374 -2.89631e-15 -1.33195e-15 0.745149 -0.00906289 0.278039)
(0.347348 -3.33789e-15 -4.0699e-16 0.901153 0.0164274 0.201217)
(0.244572 -8.20773e-16 -7.5998e-17 0.626131 0.0228186 0.118282)
(0.150878 -7.52511e-17 -6.42232e-18 0.365914 0.000203442 0.0697287)
(0.0966268 -2.52522e-17 -3.24042e-18 0.218857 -0.0188366 0.0474411)