/*--------------------------------*- C++ -*----------------------------------*\
| =========                 |                                                 |
| \\      /  F ield         | OpenFOAM: The Open Source CFD Toolbox           |
|  \\    /   O peration     | Version:  4.1                                   |
|   \\  /    A nd           | Web:      www.OpenFOAM.org                      |
|    \\/     M anipulation  |                                                 |
\*---------------------------------------------------------------------------*/
FoamFile
{
    version     2.0;
    format      ascii;
    class       volVectorField;
    location    "4";
    object      U;
}
// * * * * * * * * * * * * * * * * * * * * * * * * * * * * * * * * * * * * * //

dimensions      [0 1 -1 0 0 0 0];

internalField   nonuniform List<vector> 
1280
(
(-2.08086e-17 -1.41213 -0.725373)
(-4.43828e-17 -1.17077 -0.867273)
(-2.09381e-17 -1.14401 -0.64463)
(-9.28322e-18 -0.974647 -0.70936)
(3.90557e-17 -0.963098 -0.840258)
(7.26218e-18 -0.729117 -0.55022)
(-2.50586e-16 -0.692902 -0.771072)
(-7.38447e-16 -0.509372 -0.92415)
(-1.57509e-15 -0.4142 -1.27027)
(-1.42341e-15 -0.177808 -0.781207)
(-1.1644e-15 -0.0723519 -0.770519)
(7.66821e-16 0.243055 -1.79742)
(1.2207e-15 0.459874 -1.36335)
(1.03739e-15 0.687129 -1.01387)
(1.1766e-15 0.964516 -1.87363)
(1.17939e-15 1.23621 -1.40502)
(1.59526e-15 1.53952 -1.01844)
(1.12032e-15 1.57886 -2.52741)
(8.48166e-16 2.69469 -1.03637)
(6.54504e-16 1.66503 -3.54669)
(1.6404e-15 2.44461 1.73461)
(4.41343e-16 2.53404 6.49957)
(3.42407e-17 2.37419 8.73635)
(-4.55406e-16 2.61431 9.62904)
(-8.16451e-16 2.69341 9.77315)
(-1.72178e-15 3.06254 9.99611)
(1.02473e-16 3.09017 7.39369)
(-2.82164e-15 6.66498 11.7171)
(-3.1578e-15 6.87341 12.0099)
(-3.28195e-15 6.92659 12.3352)
(-3.14757e-15 6.99535 12.6294)
(-2.93808e-15 7.05222 12.8619)
(-2.62491e-15 7.09257 13.0332)
(-2.71881e-15 7.11989 13.2019)
(-3.34338e-15 7.15117 13.4139)
(-4.7197e-15 7.15721 13.7425)
(-6.84518e-15 7.1775 14.1771)
(-9.5636e-15 7.11644 14.7196)
(-1.21365e-14 7.14742 15.3726)
(-1.58143e-14 6.98554 15.7194)
(-2.1578e-14 8.53873 16.4258)
(-1.92224e-14 4.71069 11.0694)
(-2.14165e-14 3.18951 10.6259)
(-2.57605e-14 2.20064 10.8154)
(-2.16672e-14 -0.298109 6.25844)
(5.60429e-15 -0.753411 -4.18405)
(-1.65372e-15 -0.368082 -4.30332)
(-9.28839e-15 0.302139 -5.1838)
(-2.20458e-14 1.01281 -5.17073)
(-1.01258e-15 -0.311436 -0.315234)
(7.08e-15 0.30684 0.0535585)
(2.7628e-14 -1.04784 -5.16366)
(1.51148e-14 -0.311665 -5.23521)
(2.44964e-15 0.371403 -4.27425)
(-1.04388e-14 0.742213 -4.10934)
(1.94609e-14 0.283795 6.30654)
(2.50876e-14 -2.21193 10.8238)
(2.07032e-14 -3.20383 10.6303)
(1.8596e-14 -4.72241 11.0672)
(2.14342e-14 -8.59215 16.4072)
(1.67546e-14 -6.98724 15.6804)
(1.35563e-14 -7.14921 15.3334)
(1.13756e-14 -7.11782 14.684)
(9.25316e-15 -7.17796 14.1511)
(7.76192e-15 -7.15669 13.7279)
(6.68387e-15 -7.15036 13.4103)
(6.21812e-15 -7.11983 13.2031)
(6.17357e-15 -7.09434 13.0362)
(6.18108e-15 -7.05279 12.8645)
(6.21655e-15 -6.99615 12.6314)
(6.04664e-15 -6.92714 12.3353)
(5.79397e-15 -6.87193 12.0019)
(5.50279e-15 -6.66803 11.6987)
(3.31505e-15 -3.00965 7.40169)
(4.49522e-15 -3.04748 10.0048)
(3.68042e-15 -2.67306 9.79707)
(3.4204e-15 -2.59444 9.66222)
(2.80833e-15 -2.35844 8.76374)
(2.25779e-15 -2.51138 6.51759)
(8.76478e-16 -2.42802 1.74913)
(1.30568e-15 -1.63527 -3.56982)
(1.05828e-15 -2.69017 -1.05946)
(1.50143e-15 -1.54363 -2.55959)
(1.3352e-15 -1.50332 -1.0393)
(1.27652e-15 -1.19908 -1.42628)
(1.43185e-15 -0.91514 -1.89843)
(1.48701e-15 -0.643442 -1.03275)
(1.00441e-15 -0.409831 -1.37575)
(6.76804e-16 -0.20294 -1.80472)
(4.15604e-16 0.116203 -0.837261)
(5.67629e-16 0.229044 -0.768401)
(1.59597e-15 0.465284 -1.2369)
(2.12355e-15 0.548148 -0.926322)
(1.93167e-15 0.736128 -0.801434)
(1.22481e-15 0.773492 -0.582149)
(7.17491e-16 1.01796 -0.841276)
(1.29443e-16 1.01229 -0.694056)
(-4.14099e-23 1.18387 -0.641329)
(1.2163e-17 1.21249 -0.881011)
(-2.02159e-16 1.45651 -0.742317)
(-2.20121e-12 1.19021 1.98972)
(-2.10195e-12 1.63712 2.48447)
(-1.41701e-12 1.66487 3.08014)
(-6.50521e-13 1.74452 3.98594)
(-1.24351e-13 1.83807 5.10664)
(5.39513e-14 2.07608 6.27733)
(6.06691e-14 2.39923 7.1137)
(4.36987e-14 2.41363 7.06331)
(2.88263e-14 1.15473 5.5293)
(-5.56678e-15 -1.63636 3.15838)
(-1.54306e-14 -3.64068 2.25445)
(-1.03252e-14 -4.50816 1.7914)
(-6.66635e-15 -4.55862 1.33537)
(-5.67656e-15 -3.95236 0.824142)
(-4.84051e-15 -2.74318 0.218473)
(-2.33758e-15 -2.01199 -0.314102)
(-6.76107e-16 -1.00095 -0.81015)
(-6.38524e-17 -1.00276 -0.84402)
(1.76496e-16 -0.0776696 -1.08973)
(-3.00294e-12 1.01093 2.55263)
(-2.35704e-12 1.26076 3.31164)
(-1.21495e-12 1.1369 4.18248)
(-3.3309e-13 1.05059 5.31322)
(4.45321e-14 1.08239 6.34181)
(8.95575e-14 1.45169 6.99374)
(7.82094e-14 2.18757 7.08155)
(9.90497e-14 2.9295 6.5855)
(1.12503e-13 2.42999 5.3573)
(4.51775e-14 -0.759431 3.10957)
(-1.67696e-14 -3.41051 2.01709)
(-1.12084e-14 -4.29739 1.93803)
(-6.22578e-15 -4.24669 1.56736)
(-5.70511e-15 -3.54093 0.925163)
(-4.81359e-15 -2.26533 0.0881234)
(-2.4671e-15 -1.64746 -0.677852)
(-9.01614e-16 -0.86988 -1.21746)
(-1.3687e-16 -0.935325 -0.998852)
(7.70236e-17 -0.213957 -1.06509)
(-3.15117e-12 0.852446 2.99534)
(-1.93642e-12 0.962359 3.96299)
(-7.06149e-13 0.806441 4.90595)
(-3.7698e-14 0.805298 5.84509)
(1.26547e-13 1.05538 6.29051)
(1.1095e-13 1.65627 6.13256)
(1.15482e-13 2.4882 5.5615)
(1.508e-13 3.18081 4.95263)
(1.72581e-13 2.75008 4.42367)
(1.19164e-13 -0.213266 3.28174)
(6.56106e-15 -3.11591 2.09387)
(-1.5302e-14 -4.23293 2.01619)
(-5.88716e-15 -4.07209 1.92824)
(-5.58009e-15 -3.24863 1.17239)
(-4.794e-15 -1.93174 -0.0148287)
(-2.68241e-15 -1.399 -1.13194)
(-1.24368e-15 -0.885386 -1.84829)
(-2.56004e-16 -0.97244 -1.47817)
(-4.91604e-16 0.0681016 -1.27243)
(-3.08114e-12 0.603285 3.51175)
(-1.36758e-12 0.539846 4.64557)
(-2.70269e-13 0.405005 5.44263)
(1.34388e-13 0.55099 5.92562)
(1.63042e-13 1.03459 5.76053)
(1.36823e-13 1.81256 5.21029)
(1.48823e-13 2.69124 4.70597)
(1.7129e-13 3.36521 4.56912)
(1.75093e-13 3.01166 4.67056)
(1.37719e-13 0.26394 4.01764)
(4.89896e-14 -2.89805 2.61462)
(-1.11395e-14 -4.19267 2.25779)
(-8.23046e-15 -3.93638 2.30463)
(-4.93944e-15 -2.838 1.59503)
(-4.70444e-15 -1.39383 -0.0674497)
(-2.83526e-15 -1.0088 -1.64965)
(-1.50158e-15 -0.78467 -2.53218)
(-4.0805e-16 -1.23282 -2.00964)
(-3.35307e-16 -0.560862 -1.74347)
(-2.72335e-12 0.351751 3.98977)
(-7.28983e-13 0.212804 5.07357)
(4.84105e-14 0.264596 5.46738)
(2.2145e-13 0.653221 5.42981)
(1.87219e-13 1.29605 4.96238)
(1.61902e-13 2.0355 4.57483)
(1.63033e-13 2.72094 4.65826)
(1.61065e-13 3.22143 5.30362)
(1.40161e-13 2.96573 6.08409)
(1.04753e-13 0.692617 5.74691)
(6.40279e-14 -2.53736 3.8379)
(6.67407e-15 -4.08899 2.92386)
(-1.11996e-14 -3.82133 2.73543)
(-4.94768e-15 -2.32402 2.05213)
(-4.20813e-15 -0.553876 -0.214181)
(-2.61249e-15 -0.519934 -2.33369)
(-1.67531e-15 -0.882177 -3.4177)
(-5.36585e-16 -1.16201 -2.76287)
(-6.26861e-16 0.445293 -2.29935)
(-2.2762e-12 0.119003 4.27309)
(-2.63614e-13 -0.00678073 5.0263)
(1.88075e-13 0.25461 4.9834)
(2.43465e-13 0.772316 4.72574)
(1.94429e-13 1.39295 4.42742)
(1.62978e-13 1.95177 4.56311)
(1.47894e-13 2.40433 5.3467)
(1.27296e-13 2.80412 6.65535)
(9.19672e-14 2.79918 7.92633)
(5.63625e-14 1.18727 7.93059)
(4.08818e-14 -1.84469 5.80537)
(1.77399e-14 -3.69406 4.15807)
(-8.60966e-15 -3.57639 3.4535)
(-6.1347e-15 -1.68457 2.39888)
(5.71542e-16 0.598048 -0.842082)
(6.49801e-15 0.318059 -2.69597)
(4.06069e-15 -0.499213 -4.10881)
(2.04489e-16 -2.05508 -3.45067)
(-5.46627e-17 -1.37499 -3.04639)
(-1.96056e-12 -0.00170881 4.28809)
(-8.95453e-14 -0.0392267 4.65511)
(1.87103e-13 0.356981 4.43295)
(2.14731e-13 0.86783 4.28362)
(1.63543e-13 1.34599 4.37978)
(1.31949e-13 1.65748 5.06164)
(1.12536e-13 1.87502 6.35336)
(8.43555e-14 2.20593 8.01665)
(4.92665e-14 2.46571 9.59703)
(2.12467e-14 1.51784 10.136)
(9.40412e-15 -1.149 8.33055)
(7.27832e-15 -3.13675 6.08228)
(-5.06596e-15 -3.12784 4.59723)
(-4.04569e-15 -0.644251 2.53955)
(1.83471e-14 1.65961 0.478355)
(2.51154e-14 0.856202 1.1569)
(1.89768e-14 -0.369132 -2.0077)
(8.77129e-15 -0.687262 -2.52817)
(-4.60231e-15 0.972189 -5.98985)
(-1.85428e-12 -0.067481 4.12825)
(-1.30493e-13 -0.0355038 4.21143)
(8.25567e-14 0.389068 4.03888)
(1.19659e-13 0.803837 4.17985)
(9.80031e-14 1.08616 4.72668)
(9.1189e-14 1.16696 5.80427)
(7.46064e-14 1.22103 7.25714)
(4.45456e-14 1.52197 8.89675)
(2.2152e-14 1.98035 10.6261)
(1.32839e-14 1.67073 11.9301)
(1.89692e-15 -0.276044 11.0487)
(-8.4323e-15 -2.19582 8.23982)
(-8.75148e-15 -2.15567 5.59677)
(7.82473e-15 0.123431 3.93206)
(3.31705e-14 1.1541 6.05012)
(2.89817e-14 0.985131 7.4482)
(1.82754e-14 0.27503 6.76766)
(1.55939e-14 -1.73074 6.70858)
(1.71564e-14 -6.13003 10.3364)
(-1.87304e-12 -0.0580256 3.90486)
(-3.39947e-13 0.0146509 3.80845)
(-1.2905e-13 0.348635 3.8446)
(-7.05503e-15 0.594259 4.37756)
(4.998e-14 0.695121 5.31167)
(6.71146e-14 0.651145 6.49246)
(4.26216e-14 0.6438 7.69669)
(1.25813e-14 0.876259 9.00196)
(7.41969e-15 1.28121 10.7704)
(2.15932e-14 1.29777 12.947)
(2.72104e-14 0.314154 13.842)
(1.55379e-14 -0.976322 12.0113)
(1.39468e-14 -1.39162 9.50266)
(3.20243e-14 -0.680759 9.40844)
(4.42566e-14 0.108796 11.5897)
(4.05942e-14 0.407446 12.9198)
(3.44732e-14 -0.198582 13.5147)
(3.0243e-14 -1.75733 12.822)
(2.7602e-14 -3.31911 11.5048)
(-1.8243e-12 -0.0443163 3.60186)
(-6.14447e-13 0.00406358 3.40891)
(-2.94409e-13 0.151687 3.79096)
(-4.01649e-14 0.228135 4.7198)
(5.77791e-14 0.237457 5.86014)
(5.81674e-14 0.205458 6.8777)
(1.75384e-14 0.202487 7.6514)
(-9.56387e-15 0.288213 8.59497)
(-4.74832e-15 0.430689 10.3328)
(1.84863e-14 0.430312 12.871)
(3.83087e-14 0.0543624 14.7791)
(4.30433e-14 -0.536201 14.3559)
(3.9512e-14 -0.941957 11.8704)
(3.90272e-14 -0.685081 9.40356)
(3.79119e-14 0.010846 8.51286)
(3.7846e-14 0.416381 9.40845)
(3.66179e-14 0.159313 10.2979)
(3.47145e-14 -1.01373 8.84875)
(3.11466e-14 -2.51636 4.91309)
(-5.36469e-13 0.0199602 3.54733)
(4.89366e-14 -0.0534186 3.28494)
(1.60605e-15 -0.186673 3.6421)
(5.30907e-14 -0.22647 4.59209)
(7.07842e-14 -0.166023 5.79274)
(5.4639e-14 -0.0607493 6.87393)
(1.33784e-14 -0.0397249 7.67266)
(-2.11335e-14 -0.179574 8.5634)
(-3.12056e-14 -0.390212 10.1827)
(-2.8466e-14 -0.475886 12.6363)
(-2.82409e-14 -0.27398 14.6046)
(-3.30245e-14 0.166558 14.3546)
(-3.69097e-14 0.580784 11.9318)
(-4.03294e-14 0.548389 9.39233)
(-4.09404e-14 0.018586 8.54219)
(-3.88808e-14 -0.336462 9.47884)
(-3.79127e-14 -0.10511 10.3224)
(-3.55719e-14 1.02955 8.83457)
(-3.10214e-14 2.50125 4.8826)
(-2.66419e-13 0.0627086 3.853)
(1.4986e-13 -0.02598 3.66858)
(9.22431e-14 -0.374899 3.62031)
(1.01886e-13 -0.618879 4.12155)
(9.56481e-14 -0.674709 5.11808)
(7.31363e-14 -0.552839 6.4548)
(3.00263e-14 -0.485024 7.82508)
(-1.47314e-14 -0.713442 9.16355)
(-3.95265e-14 -1.17346 10.8099)
(-4.34079e-14 -1.34981 12.9262)
(-3.47932e-14 -0.63862 14.1095)
(-2.21485e-14 0.515622 12.6208)
(-1.97299e-14 1.06496 10.0348)
(-3.25756e-14 0.611694 9.6327)
(-4.27829e-14 -0.0607981 11.5909)
(-4.03297e-14 -0.317836 12.94)
(-3.49968e-14 0.275191 13.5083)
(-3.13185e-14 1.7826 12.8007)
(-2.92306e-14 3.30668 11.5033)
(-1.61262e-13 0.0805559 4.07105)
(1.40885e-13 0.0543645 4.1138)
(8.82201e-14 -0.381464 3.86193)
(9.63612e-14 -0.817623 3.92207)
(1.04303e-13 -1.10064 4.45211)
(9.30949e-14 -1.14261 5.62617)
(5.8024e-14 -1.12823 7.25661)
(8.28863e-15 -1.37377 9.03726)
(-3.01642e-14 -1.86623 10.7999)
(-4.04594e-14 -1.79407 12.1808)
(-2.39937e-14 -0.177483 11.582)
(-3.93007e-15 1.72715 8.70651)
(1.42333e-15 1.91889 5.81281)
(-1.02771e-14 -0.0756228 3.93195)
(-3.07192e-14 -1.07717 5.83071)
(-2.80566e-14 -0.898887 7.26485)
(-1.78775e-14 -0.208683 6.62355)
(-1.52674e-14 1.74385 6.70621)
(-1.70596e-14 6.12962 10.3961)
(-1.27345e-13 0.0217724 4.21682)
(1.08478e-13 0.0759397 4.57793)
(6.53013e-14 -0.318223 4.32147)
(6.27562e-14 -0.85199 4.09698)
(8.65865e-14 -1.35715 4.12223)
(9.63504e-14 -1.67085 4.79999)
(8.12208e-14 -1.84508 6.18477)
(3.97774e-14 -2.11372 7.99606)
(-5.69274e-15 -2.40091 9.71831)
(-2.70383e-14 -1.71227 10.4686)
(-1.71759e-14 0.733065 8.88976)
(-3.63756e-15 2.77185 6.48426)
(9.91325e-17 3.00076 4.76967)
(-1.25469e-15 0.787925 2.59865)
(-1.57389e-14 -1.54733 0.289909)
(-2.27607e-14 -0.825413 0.909325)
(-1.76087e-14 0.34675 -2.10503)
(-8.31943e-15 0.637275 -2.51998)
(4.94437e-15 -1.00407 -5.94693)
(-1.11439e-13 -0.101275 4.17892)
(7.60593e-14 0.041227 4.93917)
(5.34826e-14 -0.203294 4.90511)
(3.13556e-14 -0.729144 4.61063)
(5.59815e-14 -1.37773 4.24034)
(8.01418e-14 -1.96221 4.30974)
(8.74142e-14 -2.4068 5.08888)
(6.59439e-14 -2.77194 6.48039)
(2.57995e-14 -2.8179 7.9118)
(-3.56527e-15 -1.49118 8.21744)
(-3.75719e-15 1.41648 6.27494)
(1.0019e-15 3.37014 4.43087)
(3.38551e-16 3.50474 3.52472)
(6.40006e-16 1.80807 2.43927)
(-1.93322e-15 -0.375073 -0.611437)
(-6.15196e-15 -0.216136 -2.60806)
(-4.06462e-15 0.51998 -3.98252)
(-4.10854e-16 2.03115 -3.3176)
(-1.23288e-15 1.35269 -2.99545)
(-8.0683e-14 -0.335281 3.88557)
(4.6375e-14 -0.184666 4.98385)
(5.8216e-14 -0.213722 5.41297)
(1.54641e-14 -0.594428 5.37601)
(2.8004e-14 -1.2528 4.86078)
(5.42744e-14 -2.02101 4.39366)
(7.54855e-14 -2.72388 4.41137)
(7.58861e-14 -3.23082 5.0588)
(5.22468e-14 -3.07268 5.95386)
(2.30033e-14 -1.11427 5.95049)
(1.00591e-14 2.13444 4.1627)
(2.32456e-15 3.85361 3.04091)
(5.19118e-16 3.7997 2.70265)
(7.51803e-16 2.39754 2.07943)
(3.36918e-16 0.693387 -0.0253524)
(-6.16076e-17 0.593133 -2.11998)
(-7.26151e-17 0.853151 -3.24431)
(-1.07891e-16 1.13201 -2.65264)
(-3.16192e-16 -0.442918 -2.26993)
(-1.25235e-14 -0.588804 3.40283)
(2.53426e-14 -0.524494 4.53676)
(7.69618e-14 -0.367419 5.37358)
(2.02273e-14 -0.489336 5.89457)
(1.10522e-14 -0.968184 5.72719)
(2.93132e-14 -1.76378 5.12025)
(5.32829e-14 -2.66839 4.53197)
(6.76078e-14 -3.3844 4.33717)
(6.25513e-14 -3.18833 4.48064)
(3.8909e-14 -0.793199 4.13631)
(1.19395e-14 2.51711 2.79704)
(5.26826e-16 4.00234 2.25206)
(9.8968e-16 3.91526 2.24615)
(6.82967e-16 2.87012 1.64188)
(4.80816e-16 1.49593 0.0340996)
(2.73475e-16 1.09314 -1.50465)
(1.21571e-16 0.804923 -2.40857)
(3.95836e-18 1.26104 -1.93282)
(-2.37658e-16 0.574568 -1.743)
(8.94116e-14 -0.835172 2.89216)
(1.90485e-14 -0.95214 3.84639)
(9.82582e-14 -0.785924 4.8119)
(4.25071e-14 -0.760677 5.79775)
(8.46185e-15 -0.989946 6.28109)
(1.1072e-14 -1.5879 6.11091)
(2.95427e-14 -2.43798 5.4704)
(4.67353e-14 -3.19206 4.77603)
(5.17795e-14 -2.97289 4.25616)
(3.35341e-14 -0.38959 3.41539)
(4.23922e-15 2.75577 2.21283)
(4.22952e-16 4.08392 1.93958)
(1.24274e-15 4.03461 1.90896)
(6.85119e-16 3.25784 1.21163)
(5.22681e-16 2.02293 0.0455674)
(3.27066e-16 1.48062 -1.04098)
(1.70276e-16 0.903086 -1.76571)
(-9.21796e-18 1.00426 -1.4339)
(2.45384e-16 -0.043599 -1.27757)
(2.18167e-13 -0.989321 2.45597)
(4.33384e-14 -1.24972 3.1997)
(1.21529e-13 -1.1267 4.07356)
(7.99599e-14 -1.02296 5.23168)
(2.26657e-14 -1.0252 6.30431)
(2.50481e-15 -1.36634 6.9853)
(9.98277e-15 -2.09544 7.06226)
(2.23794e-14 -2.91574 6.55297)
(2.71071e-14 -2.72962 5.44051)
(1.389e-14 0.0867605 3.41372)
(2.58695e-16 3.10715 2.03902)
(1.36713e-15 4.16666 1.88208)
(1.16708e-15 4.18715 1.57733)
(7.22935e-16 3.5429 0.947683)
(5.20888e-16 2.35181 0.129286)
(3.17599e-16 1.72889 -0.625419)
(1.37025e-16 0.900932 -1.16646)
(-1.35231e-17 0.990725 -0.979911)
(-1.15985e-16 0.256689 -1.07898)
(2.89098e-13 -1.16586 1.90394)
(1.00849e-13 -1.62255 2.39284)
(1.3378e-13 -1.65578 2.98579)
(1.24101e-13 -1.72765 3.89675)
(6.65234e-14 -1.80207 5.0373)
(1.9797e-14 -2.01878 6.24303)
(4.41575e-15 -2.35048 7.12922)
(4.78683e-15 -2.48519 7.17811)
(5.80298e-15 -1.5259 5.82986)
(1.89728e-15 1.19683 3.3473)
(8.03882e-16 3.39576 2.27546)
(1.4975e-15 4.37305 1.78425)
(1.15452e-15 4.4881 1.34124)
(7.41901e-16 3.94275 0.840057)
(5.239e-16 2.81683 0.242994)
(3.06415e-16 2.08921 -0.289928)
(1.09553e-16 1.03972 -0.783205)
(-3.65427e-17 1.06472 -0.834271)
(-1.11033e-16 0.109214 -1.08213)
(-9.3606e-17 8.50412 14.4234)
(-4.20293e-15 13.9938 23.8235)
(-3.90363e-15 14.2793 23.065)
(-3.88331e-15 12.7975 20.6026)
(-4.20812e-15 11.6133 18.0861)
(-5.52294e-15 10.5904 16.2869)
(-5.78337e-15 9.87069 14.9145)
(-5.51665e-15 9.56484 14.4497)
(-5.47697e-15 9.48528 14.3088)
(-5.43699e-15 9.44601 14.2926)
(-5.23478e-15 9.40067 14.278)
(-5.40687e-15 9.31794 14.2307)
(-5.2225e-15 9.21786 14.1642)
(-5.39151e-15 9.1083 14.1119)
(-5.27248e-15 8.99958 14.0561)
(-4.87117e-15 8.8667 13.9966)
(-4.92348e-15 8.70871 13.8838)
(-4.90884e-15 8.46196 13.7348)
(-4.5683e-15 8.24221 13.5156)
(-5.03913e-15 6.82176 11.7282)
(4.79753e-17 8.54413 14.0926)
(-3.52316e-15 13.6401 23.7419)
(-2.85827e-15 13.3181 22.2555)
(-2.9529e-15 11.4421 19.598)
(-3.40203e-15 10.2023 17.009)
(-5.59872e-15 9.15838 15.3257)
(-4.55747e-15 8.70317 14.3719)
(-4.09691e-15 8.49158 13.9251)
(-4.28377e-15 8.4257 13.7354)
(-4.60529e-15 8.38673 13.6216)
(-4.39776e-15 8.32367 13.5006)
(-4.62757e-15 8.24738 13.3768)
(-4.28981e-15 8.16573 13.2638)
(-4.78668e-15 8.08292 13.1582)
(-4.77068e-15 7.98366 13.0542)
(-4.68225e-15 7.87738 12.9401)
(-5.25484e-15 7.72779 12.7939)
(-5.51187e-15 7.5271 12.539)
(-5.55115e-15 7.27344 12.2587)
(-6.37261e-15 5.81851 9.90732)
(-2.58467e-18 9.18212 15.3281)
(-1.1944e-15 14.143 24.7662)
(-1.11553e-15 13.7228 23.0705)
(-1.1315e-15 11.9811 20.6018)
(-1.2398e-15 10.8994 18.1239)
(-3.51263e-15 9.93724 16.4569)
(-2.19604e-15 9.43245 15.3411)
(-1.73876e-15 9.12586 14.716)
(-1.84191e-15 8.95646 14.3522)
(-2.08206e-15 8.82597 14.0979)
(-2.21004e-15 8.69175 13.8681)
(-2.01866e-15 8.55068 13.6453)
(-1.97018e-15 8.40274 13.4381)
(-2.18663e-15 8.25367 13.2359)
(-2.29678e-15 8.08518 13.0359)
(-2.29744e-15 7.91253 12.8211)
(-2.30514e-15 7.68496 12.5737)
(-2.27836e-15 7.3983 12.18)
(-2.27927e-15 6.99825 11.7178)
(-3.50581e-15 5.33182 9.02265)
(-5.33747e-19 9.38179 15.497)
(2.86278e-16 14.1409 24.8983)
(2.44912e-16 13.9768 23.4675)
(2.36837e-16 12.4715 21.3752)
(3.38901e-16 11.4884 18.9908)
(-1.77887e-15 10.4999 17.21)
(-1.81313e-15 9.88543 15.8779)
(-1.76181e-15 9.44649 14.9852)
(-1.86042e-15 9.14675 14.3845)
(-2.07467e-15 8.914 13.9503)
(-2.2415e-15 8.7005 13.5951)
(-2.08903e-15 8.49257 13.2745)
(-2.24385e-15 8.27978 12.9785)
(-2.27086e-15 8.07077 12.6999)
(-2.46602e-15 7.84484 12.4344)
(-2.40088e-15 7.6147 12.1409)
(-2.34724e-15 7.30938 11.8082)
(-2.61388e-15 6.94788 11.2804)
(-2.73545e-15 6.37802 10.6417)
(-3.5163e-15 4.53806 7.48155)
(2.94806e-19 9.64336 15.9859)
(-6.37423e-17 14.465 25.4662)
(-5.31724e-17 14.6916 24.611)
(-5.21029e-17 13.3507 22.7086)
(-8.8466e-17 12.3434 20.3245)
(3.75997e-16 11.2894 18.3927)
(4.37537e-16 10.5377 16.8283)
(4.09167e-16 9.94996 15.6452)
(4.33108e-16 9.50203 14.7578)
(4.78789e-16 9.14548 14.0839)
(5.0527e-16 8.83648 13.5466)
(4.947e-16 8.54848 13.0824)
(4.80189e-16 8.2608 12.6615)
(5.26081e-16 7.9781 12.2661)
(5.51385e-16 7.67499 11.8906)
(5.56156e-16 7.36801 11.485)
(5.73526e-16 6.96665 11.0377)
(5.84907e-16 6.51026 10.354)
(5.98721e-16 5.75271 9.50919)
(9.23209e-16 3.71642 5.9038)
(-1.43155e-19 9.69714 16.1857)
(1.3988e-17 15.0529 26.3897)
(1.22251e-17 15.4933 25.9528)
(1.18907e-17 14.1053 23.8674)
(2.2115e-17 12.9539 21.3812)
(-6.84485e-17 11.8475 19.3539)
(-9.84854e-17 11.0099 17.6779)
(-1.01018e-16 10.3225 16.3006)
(-1.07068e-16 9.75425 15.174)
(-1.14421e-16 9.2788 14.2539)
(-1.17904e-16 8.8595 13.4887)
(-1.17511e-16 8.47252 12.8258)
(-1.12488e-16 8.09677 12.2369)
(-1.19531e-16 7.73398 11.6939)
(-1.27449e-16 7.34792 11.1801)
(-1.29933e-16 6.95795 10.6326)
(-1.3479e-16 6.45215 10.0414)
(-1.42639e-16 5.89582 9.17029)
(-1.41901e-16 4.93273 8.09112)
(-2.22138e-16 2.72117 3.95961)
(5.5104e-20 9.70578 16.3851)
(-3.27939e-18 15.9418 27.7222)
(-2.97602e-18 16.2349 27.3259)
(-2.78709e-18 14.6552 24.7545)
(-5.51811e-18 13.3246 22.1962)
(1.18648e-17 12.2576 20.1966)
(2.1614e-17 11.4018 18.5629)
(2.43229e-17 10.6803 17.1065)
(2.56498e-17 10.0227 15.8179)
(2.65666e-17 9.43977 14.6746)
(2.7087e-17 8.90558 13.6699)
(2.73639e-17 8.41049 12.7759)
(2.71733e-17 7.93378 11.9746)
(2.85184e-17 7.47596 11.2341)
(3.0374e-17 6.99239 10.5339)
(3.12083e-17 6.5066 9.80131)
(3.24009e-17 5.88644 9.02375)
(3.49435e-17 5.21904 7.93565)
(3.54489e-17 4.04067 6.56836)
(5.90127e-17 1.71807 1.95431)
(-2.68528e-20 9.79822 16.7017)
(8.29467e-19 16.8862 29.0627)
(7.7802e-19 16.7036 28.3397)
(6.97769e-19 14.9209 25.1843)
(1.45233e-18 13.4615 22.7167)
(-2.04142e-18 12.5346 20.834)
(-4.81971e-18 11.6685 19.3225)
(-5.87099e-18 10.9535 17.8466)
(-6.18339e-18 10.2261 16.4873)
(-6.24469e-18 9.56789 15.1999)
(-6.26845e-18 8.93281 14.011)
(-6.35644e-18 8.33225 12.9039)
(-6.50174e-18 7.74506 11.8794)
(-6.81947e-18 7.17954 10.9132)
(-7.20862e-18 6.58513 9.99238)
(-7.46261e-18 5.99426 9.03736)
(-7.74269e-18 5.24898 8.0339)
(-8.40282e-18 4.46731 6.69778)
(-8.95234e-18 3.03448 4.93872)
(-1.75263e-17 0.763205 -0.0057055)
(1.43391e-20 10.1711 17.4588)
(-2.25533e-19 17.7068 30.146)
(-2.28993e-19 16.8373 28.8273)
(-2.01792e-19 14.9912 25.2503)
(-4.12146e-19 13.4976 23.0762)
(3.34985e-19 12.7552 21.312)
(1.09785e-18 11.8306 19.9116)
(1.46015e-18 11.1332 18.4135)
(1.56898e-18 10.3302 17.037)
(1.57864e-18 9.62124 15.6696)
(1.56672e-18 8.89929 14.3741)
(1.58245e-18 8.21044 13.118)
(1.64134e-18 7.52156 11.9189)
(1.72265e-18 6.85618 10.7546)
(1.80579e-18 6.15404 9.62789)
(1.87416e-18 5.46947 8.45098)
(1.95318e-18 4.59889 7.2174)
(2.11793e-18 3.72374 5.60649)
(2.39405e-18 1.9503 3.37405)
(-2.3473e-18 -0.0707627 -1.4438)
(-5.91064e-21 10.884 18.7563)
(6.36614e-20 18.2923 30.8557)
(7.24274e-20 16.6761 28.7978)
(6.36683e-20 14.9799 25.1218)
(1.18555e-19 13.5007 23.3072)
(-4.98056e-20 12.8983 21.5794)
(-2.57375e-19 11.8732 20.2282)
(-3.73771e-19 11.1816 18.687)
(-4.12245e-19 10.3002 17.3043)
(-4.15924e-19 9.55344 15.8903)
(-4.10268e-19 8.76203 14.5454)
(-4.1383e-19 8.01374 13.2148)
(-4.32267e-19 7.2565 11.9268)
(-4.55406e-19 6.5302 10.6533)
(-4.78004e-19 5.76256 9.40913)
(-5.00721e-19 5.02654 8.08568)
(-5.30908e-19 4.06249 6.67925)
(-5.81137e-19 3.1153 4.80998)
(-7.99158e-19 1.06799 2.21957)
(3.02073e-18 -0.688041 -2.29816)
(1.67173e-21 11.8527 20.4808)
(-1.73097e-20 18.6581 31.2263)
(-2.14902e-20 16.3933 28.5127)
(-1.85373e-20 15.0147 24.9929)
(-3.07964e-20 13.5346 23.4386)
(7.94117e-21 13 21.6732)
(6.12824e-20 11.9015 20.3117)
(9.26598e-20 11.1962 18.7293)
(1.01958e-19 10.2759 17.3245)
(1.01582e-19 9.5003 15.8835)
(9.95426e-20 8.67751 14.5118)
(1.00653e-19 7.90157 13.1568)
(1.05651e-19 7.12203 11.8455)
(1.11783e-19 6.37526 10.5487)
(1.18124e-19 5.58935 9.27034)
(1.25623e-19 4.81342 7.88481)
(1.36779e-19 3.79339 6.35955)
(1.53157e-19 2.7371 4.32668)
(2.43669e-19 0.722644 1.70871)
(1.69254e-18 -1.00987 -2.64879)
(-2.61473e-22 12.9802 22.5376)
(4.09952e-21 18.9588 31.4049)
(5.20037e-21 16.2058 28.3345)
(4.24083e-21 15.2312 25.041)
(6.25021e-21 13.7202 23.6182)
(-2.15506e-21 13.2249 21.793)
(-1.36345e-20 12.124 20.3899)
(-1.95376e-20 11.4027 18.7817)
(-2.02156e-20 10.5063 17.3344)
(-1.92484e-20 9.719 15.8723)
(-1.85936e-20 8.90957 14.4657)
(-1.88711e-20 8.12823 13.0853)
(-1.99239e-20 7.347 11.7399)
(-2.12792e-20 6.57224 10.4014)
(-2.29582e-20 5.742 9.04317)
(-2.53802e-20 4.8569 7.55085)
(-2.99444e-20 3.74375 5.86521)
(-3.6536e-20 2.51251 3.72649)
(-3.264e-20 0.618995 1.17151)
(-9.30195e-20 -1.23624 -2.90109)
(-1.32031e-23 14.2914 25.1351)
(-7.47499e-22 19.3784 31.5884)
(-8.60082e-22 16.2036 28.5235)
(-5.96717e-22 15.7372 25.4586)
(-7.5315e-22 14.1512 24.1303)
(8.19859e-22 13.7403 22.2385)
(2.58125e-21 12.6661 20.8025)
(2.93065e-21 11.9735 19.1697)
(2.27132e-21 11.1387 17.6822)
(1.56463e-21 10.3834 16.1852)
(1.17532e-21 9.61614 14.7174)
(1.03894e-21 8.84262 13.2503)
(9.92426e-22 8.03328 11.7695)
(9.32438e-22 7.16221 10.2361)
(8.49117e-22 6.16957 8.60739)
(8.21119e-22 5.0483 6.80582)
(6.17297e-22 3.69739 4.80015)
(8.06043e-22 2.18994 2.40456)
(2.29913e-20 0.147253 -0.285359)
(-4.22229e-19 -1.51043 -3.79577)
(1.86287e-23 15.7208 28.396)
(8.3997e-23 19.8258 31.7226)
(5.6284e-23 16.2693 29.136)
(3.09406e-24 16.4697 26.3462)
(-2.00403e-24 14.6982 25.1771)
(-2.28417e-22 14.4881 23.2339)
(-4.00881e-22 13.3958 21.857)
(-3.21442e-22 12.8295 20.2404)
(-1.24756e-22 12.0737 18.7968)
(1.72805e-23 11.4193 17.3)
(6.60959e-23 10.7063 15.768)
(4.75811e-23 9.90647 14.1094)
(-1.35111e-23 8.9413 12.2794)
(-1.0941e-22 7.77802 10.254)
(-2.48867e-22 6.40555 8.0555)
(-3.95958e-22 4.87715 5.67442)
(-8.99597e-22 3.10515 3.14565)
(-8.03389e-22 1.2573 0.289879)
(2.44449e-21 -1.31417 -2.73095)
(-1.7355e-19 -2.54787 -6.28816)
(-2.53897e-24 16.7604 31.3979)
(-6.38023e-25 19.762 31.2631)
(6.83607e-24 16.0825 29.7619)
(6.74955e-24 16.8952 27.2284)
(-1.21513e-23 14.807 26.2879)
(2.22888e-24 14.8455 24.3721)
(4.50222e-23 13.6357 23.2053)
(1.06074e-22 13.2455 21.7238)
(1.86425e-22 12.5106 20.4892)
(2.77504e-22 11.9377 19.0838)
(3.70649e-22 11.1248 17.4571)
(4.72656e-22 10.0058 15.3308)
(5.63292e-22 8.44502 12.676)
(5.93643e-22 6.58901 9.73539)
(7.0672e-22 4.65016 6.79043)
(1.25853e-21 2.69893 3.79895)
(2.01549e-21 0.543044 0.675394)
(3.7693e-21 -1.21645 -2.82408)
(-4.8966e-21 -3.65963 -5.21012)
(-2.16785e-20 -3.96782 -9.03172)
(-1.6701e-24 16.7064 32.3244)
(-6.64218e-26 18.8725 29.8775)
(4.44525e-24 15.3852 29.4356)
(6.48029e-24 16.2656 27.0076)
(1.41434e-23 14.0229 26.1741)
(1.81883e-23 13.985 24.3908)
(-1.51516e-24 12.6744 23.3717)
(-5.18807e-23 12.2263 22.0672)
(-1.13964e-22 11.357 20.9945)
(-1.60631e-22 10.5989 19.5784)
(-1.73412e-22 9.32492 17.5682)
(-1.92282e-22 7.47029 14.4921)
(-4.42776e-22 5.09276 10.6698)
(-1.02657e-21 2.91645 7.18975)
(-8.62521e-22 1.26283 4.48267)
(9.12773e-22 -0.227657 2.02229)
(1.87394e-21 -1.52167 -0.177787)
(2.39153e-21 -3.23174 -3.35912)
(7.22646e-21 -5.4698 -6.82995)
(1.75737e-20 -3.90052 -6.55772)
(1.74459e-24 15.5685 30.9414)
(-2.01449e-24 18.0423 28.3746)
(-5.54805e-24 14.2747 27.9941)
(-7.5847e-24 15.0427 25.5684)
(-1.98295e-23 12.8878 24.673)
(-2.07091e-23 12.5409 23.0017)
(9.52978e-24 11.3141 21.9013)
(5.44385e-23 10.6062 20.6598)
(8.97752e-23 9.66524 19.517)
(1.18309e-22 8.6614 18.0485)
(1.64641e-22 7.22929 15.9211)
(1.81148e-22 5.36373 12.9121)
(-5.63974e-23 3.4272 9.61344)
(-4.83018e-22 2.06163 7.0768)
(2.49133e-22 1.17886 5.23408)
(3.99561e-21 0.0314749 2.82241)
(9.72663e-21 -1.3295 -0.157826)
(1.29517e-20 -1.88354 -1.9246)
(1.39484e-20 -1.27495 -1.02649)
(1.05865e-20 0.952437 3.16912)
(-5.90596e-25 14.0863 30.0802)
(2.0609e-24 17.7256 27.0846)
(4.37614e-24 13.1227 26.9849)
(7.54638e-24 14.01 24.5969)
(9.41762e-24 11.8979 23.6478)
(-1.57902e-24 11.3993 22.0421)
(-2.13347e-23 10.2462 20.8449)
(-3.77749e-23 9.47 19.561)
(-4.63029e-23 8.58518 18.3602)
(-4.60432e-23 7.72497 17.0326)
(-3.24668e-23 6.76043 15.4712)
(-1.62856e-23 5.76211 13.6215)
(-6.77155e-23 4.86701 11.6604)
(-2.97647e-22 4.20719 9.85886)
(-6.59902e-22 3.76179 8.34369)
(-7.07029e-22 3.47464 7.02933)
(1.78018e-22 3.28041 5.6748)
(1.94891e-21 2.66684 3.5837)
(1.0982e-20 0.326606 -1.20113)
(1.43494e-20 1.16716 0.779003)
(3.12115e-25 11.1766 28.3916)
(-1.43866e-24 16.9797 24.7472)
(-2.80513e-24 11.9452 25.1626)
(-2.85534e-24 12.6722 23.3748)
(1.71947e-25 10.9246 22.5932)
(6.34393e-24 10.2897 21.4479)
(1.12962e-23 9.30761 20.4904)
(1.31274e-23 8.55951 19.5129)
(1.23627e-23 7.82719 18.6093)
(9.60101e-24 7.20495 17.7569)
(7.36546e-24 6.66493 16.9547)
(1.50899e-23 6.20804 16.1419)
(4.4959e-23 5.795 15.2371)
(8.32011e-23 5.39554 14.1896)
(5.13464e-23 5.00593 13.0095)
(-1.69492e-22 4.60363 11.7202)
(-5.01311e-22 4.06142 10.1721)
(4.97126e-23 3.01746 7.43109)
(4.25169e-21 0.472741 1.62112)
(1.12937e-20 -2.2743 -5.11996)
(1.08849e-25 2.65989 17.0771)
(5.75047e-25 8.08333 13.6956)
(4.26367e-25 5.19311 14.5595)
(-1.97431e-25 5.02441 14.1518)
(-1.08628e-24 4.10689 14.1058)
(-1.81308e-24 3.55844 13.9234)
(-1.99635e-24 3.00366 13.763)
(-1.77188e-24 2.5632 13.5797)
(-1.3909e-24 2.19125 13.3895)
(-1.27196e-24 1.89193 13.1797)
(-2.31544e-24 1.64843 12.9365)
(-5.3671e-24 1.45466 12.6472)
(-8.78685e-24 1.31292 12.3104)
(-5.85099e-24 1.24085 11.9291)
(1.18226e-23 1.25848 11.503)
(4.11921e-23 1.33584 11.0426)
(5.82934e-23 1.4672 10.4909)
(4.7271e-23 1.82343 9.52651)
(8.69067e-23 1.7415 7.92913)
(2.8113e-22 -0.522169 5.3926)
(-1.08372e-25 -2.66 17.0773)
(-5.70369e-25 -8.08328 13.6959)
(-4.21379e-25 -5.19309 14.5598)
(1.96706e-25 -5.0243 14.1522)
(1.07618e-24 -4.10676 14.1063)
(1.79795e-24 -3.55827 13.9239)
(1.98262e-24 -3.00348 13.7636)
(1.76036e-24 -2.56299 13.5804)
(1.38251e-24 -2.19096 13.3902)
(1.27879e-24 -1.89148 13.1802)
(2.36241e-24 -1.64775 12.9368)
(5.46778e-24 -1.45374 12.6472)
(8.8861e-24 -1.31187 12.3102)
(5.78229e-24 -1.23976 11.9289)
(-1.22713e-23 -1.25738 11.5027)
(-4.20659e-23 -1.3346 11.0423)
(-5.91584e-23 -1.46549 10.4901)
(-4.68696e-23 -1.82142 9.52478)
(-8.31592e-23 -1.74113 7.92691)
(-2.73622e-22 0.521756 5.39558)
(-3.09225e-25 -11.1767 28.3929)
(1.42315e-24 -16.9806 24.7481)
(2.76681e-24 -11.9458 25.1635)
(2.81145e-24 -12.6733 23.3754)
(-1.70323e-25 -10.9258 22.5937)
(-6.2818e-24 -10.2912 21.4482)
(-1.12247e-23 -9.30947 20.4905)
(-1.30812e-23 -8.56183 19.5128)
(-1.23239e-23 -7.8301 18.6092)
(-9.5528e-24 -7.2086 17.7569)
(-7.35217e-24 -6.66937 16.9548)
(-1.52822e-23 -6.21305 16.1419)
(-4.56547e-23 -5.80018 15.2367)
(-8.46385e-23 -5.40058 14.1891)
(-5.33861e-23 -5.01071 13.0093)
(1.6744e-22 -4.60795 11.7207)
(4.99385e-22 -4.06351 10.1712)
(-5.29574e-23 -3.00912 7.41923)
(-4.24675e-21 -0.445961 1.58718)
(-1.12309e-20 2.28246 -5.12927)
(5.81676e-25 -14.0847 30.0777)
(-2.02688e-24 -17.7252 27.0807)
(-4.27291e-24 -13.1216 26.9811)
(-7.36586e-24 -14.0103 24.5919)
(-9.26872e-24 -11.8979 23.6424)
(1.55812e-24 -11.3999 22.0357)
(2.12108e-23 -10.2469 20.8377)
(3.77606e-23 -9.47102 19.5529)
(4.64221e-23 -8.58638 18.3512)
(4.61262e-23 -7.72664 17.023)
(3.22854e-23 -6.76337 15.462)
(1.58146e-23 -5.76787 13.6151)
(6.80158e-23 -4.87688 11.6592)
(3.01907e-22 -4.22132 9.86438)
(6.73646e-22 -3.78027 8.35675)
(7.37286e-22 -3.49894 7.05166)
(-1.22162e-22 -3.30901 5.70562)
(-1.8411e-21 -2.69717 3.62275)
(-1.12094e-20 -0.356239 -1.16109)
(-1.45781e-20 -1.15731 0.73867)
(-1.72009e-24 -15.565 30.9333)
(1.95784e-24 -18.0381 28.368)