/*--------------------------------*- C++ -*----------------------------------*\
| =========                 |                                                 |
| \\      /  F ield         | OpenFOAM: The Open Source CFD Toolbox           |
|  \\    /   O peration     | Version:  4.1                                   |
|   \\  /    A nd           | Web:      www.OpenFOAM.org                      |
|    \\/     M anipulation  |                                                 |
\*---------------------------------------------------------------------------*/
FoamFile
{
    version     2.0;
    format      ascii;
    class       surfaceScalarField;
    location    "16";
    object      phi;
}
// * * * * * * * * * * * * * * * * * * * * * * * * * * * * * * * * * * * * * //

dimensions      [0 3 -1 0 0 0 0];

internalField   nonuniform List<scalar> 
2360
(
3707.92
3450.1
257.825
3450.11
3450.1
3355.29
94.8258
3355.29
3355.29
3355.3
3567.74
-212.439
3567.75
3567.75
4129.06
-561.297
4129.06
4129.07
4587.49
-458.425
4587.49
4587.49
6871.77
-2284.3
6871.75
6871.73
7404.14
8363.58
9344.55
10299.8
11253.4
12213.5
2956.2
10252.3
3977.49
5003.35
6032.85
7065.05
8099.16
9134.31
10170.3
11206.2
12241.8
13276.7
14335
15424.9
16119.8
-65.8175
16185.6
-65.893
-65.9286
-65.9545
752.263
-818.207
752.274
752.279
752.298
1778.81
-1026.52
1778.84
1778.82
-4651.98
6430.83
-4652.01
-4651.99
-4652.02
-17840.9
13188.9
-17841
-17841
-17841
-30368.2
12527.2
-30137.2
-29777.9
-29340.2
-28830.9
-28252.9
-27604.6
-26882.3
-26081.7
-25198.4
-24229.3
-23172.3
-22024.7
-20782.6
-22969.3
3546.72
-21512.6
-19903.5
-18141.7
-16358.7
-14992.1
-14414.1
-14414.2
-14414.2
-9234.68
-5179.55
-9234.71
-9234.69
-5447.36
-3787.34
-5447.35
-5447.37
-2546.52
-2900.85
-2546.52
-2546.51
437.321
-2983.83
437.428
437.508
437.559
2276.14
-1838.56
2276.18
2276.19
8823.14
-6546.95
-67136.3
-308929
81432.3
-21335.9
-59770.6
251842
-38645.6
-16729.2
7801.56
1735.2
6.19637
32104.8
-2544.07
24320.9
-6746.78
20880.4
-11248.3
13942.8
-8257.57
-4478.37
641.385
-18724.5
8054.7
-19203.6
12544.4
-12728.1
14011.7
-6058.67
13297.6
-1938.99
11698.5
-915.383
9526.55
-511.494
7496.79
-376.717
-2223.43
-59515.7
-207679
-52732
-28119.6
-27261.8
226371
-34618.3
-9372.69
-7336
-25547.1
-5927.79
30696.6
-6642.8
25035.9
-10121
24358.6
-10233.9
14055.7
-6597.81
-8114.42
-2244.06
-23078.2
1346.3
-22794
3351.75
-14733.6
3704.82
-6411.74
3554.49
-1788.67
2540.54
98.5582
2109.74
-80.7024
1971.57
-238.566
-2090.4
25421.9
-233489
3601.65
-6299.36
22819
207154
-7157.7
20604
-19760.6
-12944.2
-9939.54
20875.5
-9375.17
24471.5
-11244.7
26228.1
-11998.2
14809.2
-9477.24
-10635.4
-4037.3
-28518.2
1002.6
-27833.9
4624.13
-18355.1
5885.46
-7673.07
5010.92
-914.139
3680.19
1429.3
3331.76
267.738
3171.34
-78.1345
-1902.91
-37766.1
-181969
-39103.6
-4961.87
2529.04
165521
1308.19
21824.9
-14169.3
2533.24
-12676.6
19382.9
-12001.4
23796.2
-12441.5
26668.2
-12752.8
15120.6
-10863.2
-12525
-6339.1
-33042.3
-1465.58
-32707.4
2223.78
-22044.4
3742.94
-9192.22
3819.98
-991.176
3250.05
1999.23
3496.92
20.8663
3523.1
-104.322
-1280.7
-15097.7
-162226
-27508.6
7449.09
-8058.9
146072
-11088
24854
-14576.8
6022.01
-14325.4
19131.5
-12762.8
22233.7
-11598.1
25503.4
-11365.4
14887.9
-10429.9
-13460.5
-7509.38
-35962.8
-3048.9
-37167.9
873.648
-25967
2586.31
-10904.9
3200.29
-1605.14
3235.61
1963.91
3839.32
-582.836
4215.09
-480.102
-852.971
-29883.1
-126130
-35963.2
13529.2
-14018.3
124127
-14944.9
25780.5
-13668.7
4745.85
-11920.7
17383.5
-8732.43
19045.4
-5582.56
22353.6
-5159.57
14464.9
-6132.59
-12487.5
-6325.48
-35769.9
-3784.72
-39708.6
27.3525
-29779.1
1544.2
-12421.7
2312.39
-2373.32
3319.34
956.975
4562.09
-1825.58
5317.16
-1235.19
-715.418
-32465.2
-92006.9
-35557.4
16621.4
-14462.4
103032
-12076.1
23394.2
-10002.1
2671.84
-4913.29
12294.7
-660.579
14792.7
2973.74
18719.2
3885.01
13553.6
1708.3
-10310.8
-1767.2
-32294.4
-2779.7
-38696.1
-96.4725
-32462.3
1211.78
-13730
1164.89
-2326.39
2753.89
-632.009
4289.54
-3361.22
4112.91
-1058.58
6944.2
-34994.9
-57306.3
-33981.4
15608
-9371.63
78421.9
-8882.58
22905.2
-7488.23
1277.49
4380.62
425.804
10379.6
8793.67
12905.5
16193.3
13502.4
12956.8
11028.3
-7836.77
5445.63
-26711.7
332.49
-33583
-20.4075
-32109.4
543.626
-14294
-468.763
-1313.98
695.376
-1796.12
-652.254
-2013.58
-5310.28
3599.44
14161.1
-36882.4
-24684.8
-32960
11685.6
2162.41
43299.5
15195.1
9872.49
17595.9
-1123.34
19146.6
-1124.84
20999.8
6940.47
23106.7
14086.4
24478.6
11584.9
21574.3
-4932.52
13799.2
-18936.6
5004.19
-24788
598.017
-27703.2
-426.125
-13269.9
-2739.38
999.291
-5175.76
640.266
-9025.83
1836.48
-12699.4
7272.99
14650.7
-38397.4
5059.36
-33557.5
6845.69
9560.74
181.201
28942
-9508.75
37902.6
-10083.9
40915.9
-4138.21
42462.7
5393.68
43761.9
12787.2
42215.4
13131.3
34037
3245.89
21887.8
-6787.31
9846.96
-12747.2
1799.34
-19655.6
-1226.86
-10243.6
-4324.91
4097.35
-8292.14
4607.5
-11568.1
5112.43
-11587.1
7291.98
9494.41
-37793.8
35173.6
-33105.5
2157.36
10547.3
-43471.6
28816.6
-27778
34511.9
-15779.2
39175.7
-8802.01
47268.7
-2699.35
53779
6276.99
51789.1
15121.2
40437
14597.9
26035.2
7614.47
12828.6
459.447
2592.23
-9419.19
-2641.13
-5010.28
-6143.08
7599.3
-9828.75
8293.18
-10945.9
6229.6
-7454.52
3800.59
1013.38
-35875.3
67574.6
-31848.8
-1869.15
5523.22
-80843.6
16869
-39123.8
15012.5
-13922.8
18731.6
-12521
27646.1
-11613.8
38770.4
-4847.39
42392.9
11498.7
34056.2
22934.7
21758.7
19911.9
10784.1
11434.1
1446.21
-81.282
-5503.07
1939.01
-8482.18
10578.4
-10243.5
10054.5
-9897.64
5883.78
-7525.49
1428.45
-7330.32
-33223.5
101092
-31573.5
-3519.21
-1174.72
-111242
-143.72
-40154.8
-490.199
-13576.3
9859.72
-22871
17082.3
-18836.5
23898.9
-11663.9
28500.5
6897.13
23558.5
27876.7
14350.3
29120
4568.11
21216.3
-4634.56
9121.39
-10971.9
8276.35
-13631.8
13238.3
-15644.7
12067.3
-16997.2
7236.36
-17220.3
1651.51
-8365.03
-28312
131468
-30108.2
-1722.95
-5917.18
-135433
-6222.91
-39849
-3629.58
-16169.7
4182.89
-30683.4
9691.65
-24345.2
12909.5
-14881.8
15971.9
3834.79
13172.9
30675.7
6722.25
35570.7
-1306.69
29245.3
-9263.4
17078.1
-14040.9
13053.9
-15262.1
14459.5
-13612.5
10417.7
-9530.54
3154.39
-6563.6
-1315.42
-4676.33
-30091.4
167657
-33119.6
1305.3
-6521.1
-162032
-10133.2
-36237
-8559.75
-17743.1
-3530.96
-35712.2
1261.9
-29138.1
4217.77
-17837.7
5498.21
2554.36
4175
31998.9
214.284
39531.4
-4836.16
34295.7
-10142.3
22384.3
-13170.5
16082.1
-12086.6
13375.6
-7203.57
5534.68
-1550.69
-2498.48
1819.43
-4685.54
-5141.19
-11555.4
184184
-23526.4
13276.3
-2854.95
-182703
-9928.76
-29163.2
-13653.4
-14018.5
-10700
-38665.5
-6644.07
-33194
-3866.46
-20615.3
-3827.33
2515.23
-3238.63
31410.2
-4274.56
40567.3
-5652.93
35674.1
-8060.34
24791.7
-9512.66
17534.4
-7218.52
11081.4
-2987.88
1304.05
23.5363
-5509.88
626.879
-5288.86
-4972.71
-38804.9
237110
-34674.8
9146.13
4711.93
-222090
-4680.18
-19771.1
-19470.5
771.845
-16978.2
-41157.9
-14023.5
-36148.8
-11814
-22824.8
-10819.8
1521.03
-8855.87
29446.2
-7174.58
38886
-5125.91
33625.4
-5493.22
25159
-6524.16
18565.4
-4471.9
9029.19
-1361.12
-1806.72
527.405
-7398.4
715.766
-5477.22
-4818.24
20429.5
215817
-651.422
30227
20440.9
-243182
-12271.4
12941.2
-25521.3
14021.7
-20560.9
-46118.2
-19922
-36787.7
-18028
-24718.7
-15785.6
-721.362
-11435.9
25096.5
-7168.74
34618.8
-3372.29
29829
-1899.85
23686.5
-1810.28
18475.8
-1171.74
8390.65
614.087
-3592.54
1482.57
-8266.88
583.217
-4577.86
-4447.46
-60541.6
318734
-53556.4
23241.8
-30210.4
-266528
-28286.3
11017.2
-4370.98
-9893.58
-16015.9
-34473.3
-20699.2
-32104.4
-20723.5
-24694.4
-15021.6
-6423.26
-11466.4
21541.3
-8334.84
31487.2
-4054.4
25548.5
-1602.96
21235.1
-3281.09
20153.9
-145.94
5255.51
3386.92
-7125.4
1889.63
-6769.59
334.255
-3022.48
-4018.38
-77176.3
85920.5
-60463.2
-39458.1
3930.25
-3922.24
-12945.1
-23639.4
-24407.4
-14815.7
-4283.64
5622.97
6651.44
5662.81
6843.02
3830.52
542.436
15.926
30.2372
-562.669
134.213
-1063.44
207.107
-1053.87
267.09
-1015.31
324.294
-1010.76
375.492
-1011.28
386.599
-1006.12
368.356
-1002.96
346.07
-1003.49
320.92
-1004.3
294.183
-1005.42
266.636
-1006.53
238.885
-1007.38
211.347
-1008.43
184.223
-1008.71
157.743
-1009.16
132.298
-1009.43
113.944
-1040
91.9286
-1067.86
-602.918
28.7923
-591.462
19.3601
-1054.01
-4.41774
-1030.09
-20.761
-998.964
-31.9324
-999.583
-42.4479
-1000.76
-44.6535
-1003.91
-42.5035
-1005.11
-39.8721
-1006.13
-37.445
-1006.72
-35.4371
-1007.43
-33.8731
-1008.09
-32.6198
-1008.63
-31.5786
-1009.47
-30.542
-1009.74
-29.3124
-1010.39
-27.8662
-1010.87
-28.611
-1039.25
-26.2915
-1070.17
-629.209
29.583
-621.045
36.3492
-1060.78
36.8143
-1030.56
39.0867
-1001.24
40.4456
-1000.94
40.8512
-1001.17
38.3323
-1001.39
34.4722
-1001.25
30.1334
-1001.79
25.4815
-1002.07
20.6521
-1002.6
15.6543
-1003.09
10.5545
-1003.53
5.3371
-1004.26
0.1266
-1004.53
-5.05385
-1005.21
-10.6197
-1005.31
-19.0345
-1030.84
-20.2771
-1068.93
-649.487
23.1629
-644.207
23.2008
-1060.82
15.9995
-1023.36
12.6833
-997.92
10.3752
-998.633
8.17498
-998.969
6.57335
-999.79
5.23593
-999.913
3.90424
-1000.45
2.51248
-1000.68
1.01977
-1001.1
-0.609778
-1001.46
-2.3565
-1001.79
-4.28686
-1002.33
-6.3335
-1002.48
-8.5783
-1002.97
-11.0037
-1002.88
-15.9169
-1025.92
-17.6473
-1067.2
-667.134
22.213
-666.42
22.0302
-1060.63
17.519
-1018.84
15.6182
-996.019
13.7936
-996.808
11.8539
-997.029
9.70637
-997.642
7.48653
-997.693
5.22
-998.187
2.93826
-998.398
0.648603
-998.813
-1.66212
-999.152
-3.9602
-999.487
-6.29489
-999.991
-8.59225
-1000.18
-10.8897
-1000.67
-13.3237
-1000.45
-18.0992
-1021.15
-19.5387
-1065.76
-686.673
21.4827
-687.902
20.2971
-1059.45
15.352
-1013.9
13.1939
-993.861
11.2544
-994.869
9.27681
-995.051
7.29872
-995.664
5.34175
-995.735
3.36264
-996.207
1.36987
-996.405
-0.642624
-996.801
-2.68971
-997.105
-4.74452
-997.432
-6.85676
-997.878
-8.9562
-998.085
-11.0866
-998.538
-13.3104
-998.223
-18.0077
-1016.45
-20.0219
-1063.75
-706.694
21.1595
-709.061
19.2867
-1057.57
14.7508
-1009.36
12.7637
-991.874
10.8677
-992.973
8.93073
-993.114
6.94983
-993.683
4.97487
-993.76
2.97791
-994.21
0.978428
-994.405
-1.02883
-994.793
-3.05343
-995.08
-5.0694
-995.416
-7.12311
-995.825
-9.14645
-996.061
-11.1851
-996.499
-13.2622
-996.146
-17.7116
-1012
-20.2406
-1061.22
-726.935
20.9289
-729.99
18.3907
-1055.04
14.0536
-1005.03
12.1571
-989.977
10.3115
-991.127
8.43662
-991.24
6.52948
-991.776
4.63366
-991.865
2.71604
-992.293
0.796426
-992.485
-1.13334
-992.864
-3.08014
-993.133
-5.02076
-993.475
-6.99869
-993.847
-8.94756
-994.112
-10.9174
-994.529
-12.8828
-994.18
-17.1245
-1007.76
-20.2488
-1058.09
-747.184
20.7509
-750.741
17.5657
-1051.85
13.4892
-1000.95
11.6962
-988.184
9.90642
-989.337
8.09423
-989.427
6.24855
-989.93
4.4142
-990.03
2.55786
-990.436
0.702134
-990.629
-1.16386
-990.997
-3.04326
-991.254
-4.91639
-991.602
-6.82334
-991.94
-8.70059
-992.235
-10.603
-992.627
-12.4639
-992.319
-16.4618
-1003.76
-20.1816
-1054.37
-767.365
20.5863
-771.328
16.7678
-1048.03
12.9468
-997.128
11.2492
-986.487
9.5193
-987.607
7.77405
-987.682
5.99645
-988.152
4.23079
-988.264
2.44244
-988.648
0.656118
-988.843
-1.14223
-989.199
-2.95174
-989.444
-4.75706
-989.797
-6.59397
-990.103
-8.40249
-990.426
-10.2415
-990.788
-12.0094
-990.551
-15.7609
-1000.01
-20.079
-1050.05
-787.444
20.4337
-791.761
15.9868
-1043.58
12.4306
-993.572
10.8216
-984.878
9.152
-985.938
7.47317
-986.003
5.76266
-986.442
4.06425
-986.566
2.34255
-986.926
0.624465
-987.125
-1.10747
-987.467
-2.84777
-987.704
-4.58643
-988.058
-6.35375
-988.335
-8.09454
-988.686
-9.87034
-989.012
-11.5525
-988.869
-15.0499
-996.511
-19.9642
-1045.14
-807.409
20.2872
-812.049
15.2168
-1038.51
11.9292
-990.285
10.4023
-983.351
8.79413
-984.33
7.182
-984.391
5.53898
-984.799
3.90804
-984.935
2.25323
-985.271
0.603406
-985.476
-1.06234
-985.802
-2.73351
-986.033
-4.4064
-986.385
-6.10432
-986.638
-7.77863
-987.011
-9.49142
-987.299
-11.0946
-987.266
-14.3349
-993.27
-19.8437
-1039.63
-827.252
20.1486
-832.197
14.4564
-1032.82
11.4409
-987.269
9.99011
-981.9
8.4446
-982.784
6.8993
-982.846
5.32379
-983.223
3.76011
-983.372
2.17211
-983.684
0.590091
-983.894
-1.00983
-984.202
-2.61208
-984.431
-4.2202
-984.777
-5.84858
-985.009
-7.45762
-985.402
-9.10686
-985.65
-10.6371
-985.736
-13.6186
-990.289
-19.7199
-1033.53
-846.972
20.0197
-852.217
13.7047
-1026.51
10.9641
-984.529
9.58474
-980.521
8.10388
-981.304
6.62656
-981.369
5.11921
-981.716
3.6234
-981.876
2.10295
-982.163
0.588677
-982.379
-0.945061
-982.668
-2.47833
-982.898
-4.02258
-983.233
-5.58088
-983.451
-7.1264
-983.857
-8.71138
-984.065
-10.1749
-984.273
-12.8985
-987.565
-19.5895
-1026.84
-866.562
19.9101
-872.127
12.965
-1019.56
10.5009
-982.065
9.18934
-979.209
7.77489
-979.889
6.36696
-979.961
4.92776
-980.277
3.4998
-980.448
2.04739
-980.711
0.599961
-980.932
-0.867195
-981.201
-2.33175
-981.433
-3.8128
-981.752
-5.29955
-981.964
-6.78339
-982.373
-8.30187
-982.547
-9.70365
-982.871
-12.1716
-985.098
-19.4457
-1019.56
-886.007
19.8437
-891.971
12.2549
-1011.97
10.0743
-979.884
8.83305
-977.968
7.48942
-978.546
6.15526
-978.627
4.78474
-978.907
3.42317
-979.087
2.03692
-979.325
0.651201
-979.547
-0.753825
-979.796
-2.15653
-980.031
-3.58089
-980.328
-5.00064
-980.545
-6.43138
-980.943
-7.88306
-981.095
-9.23042
-981.524
-11.4477
-982.88
-19.2847
-1011.73
-905.292
19.8668
-911.838
11.6132
-1003.72
9.74411
-978.015
8.60074
-976.825
7.34917
-977.294
6.11093
-977.389
4.82698
-977.623
3.54389
-977.804
2.23362
-978.015
0.913383
-978.226
-0.429077
-978.454
-1.77734
-978.682
-3.15514
-978.95
-4.52511
-979.175
-5.9296
-979.538
-7.33328
-979.692
-8.66746
-980.189
-10.6721
-980.876
-19.037
-1003.36
-924.329
20.0761
-931.914
11.1014
-994.746
9.58915
-976.503
8.60408
-975.84
7.48241
-976.173
6.37067
-976.277
5.20199
-976.454
4.01675
-976.619
2.79896
-976.797
1.55766
-976.985
0.289133
-977.185
-0.997234
-977.396
-2.3184
-977.629
-3.63947
-977.854
-5.02042
-978.157
-6.37943
-978.333
-7.75897
-978.81
-9.59861
-979.036
-18.42
-994.542
-942.749
20.7985
-952.713
11.0691
-985.016
9.9642
-975.398
9.25107
-975.127
8.35667
-975.278
7.43135
-975.352
6.42309
-975.446
5.35165
-975.547
4.21251
-975.658
3.00837
-975.781
1.7411
-975.918
0.41654
-976.072
-0.967683
-976.245
-2.38522
-976.436
-3.87441
-976.668
-5.3281
-976.879
-6.87857
-977.26
-8.53107
-977.384
-17.5626
-985.51
-960.312
22.2871
12.2709
11.8725
11.7455
11.4672
11.1153
10.6693
10.1221
9.46425
8.6832
7.76515
6.6935
5.4486
4.01221
2.3441
0.464982
-1.79454
-4.1782
-14.6882
-677.76
1652.79
-1101.18
1398.44
-1533.79
1407.63
-1882.3
1323.53
-2192.13
1284.84
-2451.97
1234.86
-2669.72
1192.76
-2844.73
1150.03
-2978.62
1108.9
-3071.6
1067.99
-3124.01
1027.42
-3135.46
986.463
-3103.5
943.048
-3019.66
891.18
-2864.34
819.687
-2605.69
716.356
-2205.51
574.833
-1629.22
398.717
-876.613
222.411
98.3871
-210.298
1863.11
-467.08
1655.25
-738.863
1679.44
-967.692
1552.38
-1187.21
1504.38
-1373.47
1421.14
-1536.52
1355.83
-1671.28
1284.81
-1780.45
1218.09
-1863.58
1151.15
-1921.75
1085.6
-1954.62
1019.35
-1958.9
947.341
-1923.41
855.701
-1825.16
721.457
-1628.31
519.515
-1305.13
251.673
-859.16
-47.2364
-419.834
-216.882
-321.446
-133.959
1997.09
-298.947
1820.26
-424.14
1804.66
-505.181
1633.44
-575.258
1574.48
-611.969
1457.88
-631.87
1375.76
-629.238
1282.2
-608.274
1197.15
-568.654
1111.55
-511.449
1028.42
-437.177
945.105
-347.518
857.711
-247.413
755.627
-148.035
622.117
-64.6841
436.222
-7.0437
194.178
38.6618
-92.7868
-10.8735
-167.267
-332.319
30.8957
1966.22
16.1607
1835.02
29.0268
1791.81
61.5002
1601
93.6234
1542.38
146.392
1405.14
204.498
1317.67
276.945
1209.78
358.163
1115.96
448.115
1021.63
544.125
932.437
644.708
844.544
746.183
756.256
839.223
662.605
904.685
556.676
906.019
434.905
797.302
302.912
508.545
195.995
244.358
96.9592
-87.9602
54.479
1911.77
74.4818
1815.05
110.026
1756.3
144.685
1566.38
178.011
1509.09
216.948
1366.24
250.878
1283.79
286.939
1173.77
320.943
1081.99
360.453
982.164
408.62
884.31
470.874
782.334
553.501
673.665
662.642
553.5
787.422
431.927
877.336
345.017
856.318
323.951
694.001
358.333
401.455
389.54
313.496
-27.8527
1939.64
-52.5838
1839.8
-79.5116
1783.25
-125.951
1612.84
-169.918
1553.08
-226.499
1422.85
-293.685
1350.99
-371.721
1251.83
-452.98
1163.27
-519.529
1048.74
-557.525
922.325
-556.546
781.378
-509.546
626.687
-415.529
459.511
-288.617
305.049
-142.859
199.298
6.96769
174.169
123.52
241.826
140.622
372.479
454.118
-65.82
2005.49
-166.492
1940.5
-247.187
1863.97
-345.62
1711.3
-443.519
1651
-553.443
1532.8
-672.9
1470.47
-802.332
1381.28
-937.082
1298.04
-1064.08
1175.75
-1173.52
1031.78
-1258.17
866.052
-1320.04
688.575
-1364.52
504.004
-1386.13
326.681
-1343.06
156.248
-1184.88
16.0061
-871.831
-71.2088
-415.595
-83.7291
38.523
63.6009
1941.89
-64.3034
2068.41
-125.317
1924.99
-176.58
1762.57
-221.632
1696.06
-265.874
1577.05
-304.027
1508.63
-338.098
1415.36
-371.019
1330.97
-408.618
1213.37
-452.715
1075.88
-502.929
916.282
-560.777
746.425
-626.03
569.271
-689.797
390.45
-741.009
207.467
-768.383
43.383
-714.641
-124.951
-486.515
-311.854
-447.992
239.605
1702.32
180.847
2127.2
164.246
1941.62
185.682
1741.17
229.117
1652.66
273.784
1532.43
334.133
1448.32
401.199
1348.34
475.257
1256.95
538.187
1150.48
580.632
1033.47
593.663
903.293
574.832
765.292
522.574
621.572
438.396
474.674
324.91
321.011
207.471
160.901
113.057
-30.4534
2.79673
-201.531
-445.195
277.804
1424.52
304.416
2100.59
308.278
1937.76
348.388
1701.07
417.052
1584
484.539
1464.94
561.894
1370.97
641.758
1268.48
727.104
1171.6
806.413
1071.18
871.529
968.355
912.935
861.893
925.181
753.046
904.101
642.659
847.025
531.75
750.152
417.894
610.209
300.841
414.349
165.407
206.594
6.22603
-238.6
195.264
1229.27
252.818
2043.06
275.572
1915.03
314.254
1662.41
374.664
1523.6
434.899
1404.73
498.033
1307.85
559.417
1207.12
620.44
1110.6
676.039
1015.59
721.371
923.034
750.713
832.563
760.08
743.688
747.073
655.675
710.267
568.565
645.857
482.312
546.706
399.995
399.733
312.386
202.017
203.953
-36.5837
82.1536
1147.08
133.23
1991.95
183.47
1864.75
235.516
1610.33
298.978
1460.1
363.736
1339.93
427.807
1243.74
488.075
1146.81
544.392
1054.24
595.861
964.082
642.443
876.418
684.821
790.145
723.701
704.782
756.208
623.135
771.869
552.883
749.313
504.846
664.83
484.468
499.972
477.236
260.438
443.472
223.855
-48.1201
1195.23
4.40836
1939.46
88.6952
1780.49
153.122
1545.94
214.717
1398.53
277.064
1277.62
343.864
1176.95
419.541
1071.16
507.38
966.407
611.441
860.025
732.314
755.545
865.921
656.528
998.622
572.083
1103.28
518.466
1146.46
509.711
1094.21
557.084
932.253
646.437
665.922
743.577
342.91
766.499
566.764
-148.298
1343.48
-128.152
1919.26
-47.2399
1699.52
-13.4294
1512.06
-16.1585
1401.19
-31.4957
1292.88
-37.7139
1183.09
-24.3127
1057.67
14.2151
927.783
81.2927
792.84
176.887
659.822
296.348
536.934
429.169
439.145
558.335
389.2
658.17
409.801
694.169
521.028
631.336
709.234
459.461
915.421
218.977
1006.94
785.74
-90.8722
1434.32
-201.129
2029.49
-332.49
1830.86
-461.062
1640.6
-608.581
1548.69
-777.13
1461.4
-946.732
1352.68
-1107.26
1218.18
-1255.4
1075.91
-1390.85
928.278
-1509.65
778.601
-1601.66
628.946
-1649.67
487.134
-1627.64
367.167
-1509.22
291.362
-1272.62
284.415
-925
361.592
-523.287
513.685
-186.187
669.811
599.553
295.592
1138.63
403.58
1921.43
226.249
2008.11
-14.7394
1881.5
-227.689
1761.55
-425.153
1658.77
-622.08
1549.53
-823.083
1419.1
-1026.12
1278.88
-1230.67
1132.76
-1435.49
983.363
-1635.21
828.608
-1816.49
668.376
-1954.82
505.443
-2009.37
345.882
-1918.84
193.846
-1627.17
69.9019
-1131.09
17.579
-500.838
39.5164
98.715
627.941
510.668
1082.43
1466.92
1065.83
2024.7
855.837
2091.47
665.436
1951.93
522.842
1801.34
399.233
1673.12
272.772
1545.53
141.088
1410.54
6.50686
1267.31
-127.946
1117.79
-261.074
961.696
-392.819
800.094
-520.612
633.2
-637.433
462.677
-729.386
285.77
-770.561
111.059
-710.109
-42.89
-473.888
-196.727
-375.173
493.802
16.8495
747.488
1213.22
755.756
2016.43
711.352
2135.86
688.289
1974.99
694.371
1795.24
717.566
1649.91
743.675
1519.4
764.379
1389.82
775.833
1255.83
775.33
1118.28
758.604
978.403
720.982
837.702
657.56
696.605
564.136
556.085
436.562
413.325
279.055
268.545
127.055
109.08
18.5826
-88.2839
-356.59
98.7238
-81.8478
-111.846
1423.79
-151.111
2055.69
-77.8098
2062.56
26.1996
1870.97
140.905
1680.53
265.792
1525.01
390.404
1394.78
506.052
1274.17
605.515
1156.36
684.294
1039.49
738.972
923.72
766.659
810.015
764.617
698.644
730.854
589.853
662.796
481.378
559.875
371.487
419.809
249.173
236.212
95.3494
-120.374
-659.766
-602.621
-329.999
-29.2708
232.535
456.378
621.357
774.097
900.727
1000.02
1070.46
1110.92
1120.34
1096.75
1038.29
941.626
803.897
615.397
351.474
)
;

boundaryField
{
    outletWall
    {
        type            calculated;
        value           nonuniform List<scalar> 
60
(
8823.14
3173.26
2406.49
2683.44
2514.52
2653.05
4591.41
8238.37
11790.3
9825.53
1487.6
-9441.24
-16677.7
-21770.6
-24309.4
-48182.3
-4395.83
-110639
-127233
324194
54608.4
-42376.2
864.131
-14121.4
-4971.29
-6097.94
-2064.25
-293.548
3474.27
7679.61
8653.23
4260.93
294.3
-1658.01
-6212.32
-4645.44
-13754.6
388.483
-41733.9
51871
-3707.92
-3744.62
-2495.97
-3481.51
-4112.9
4075.29
21142.6
20206.6
15641.9
20955.2
11949.6
-5655.23
-14000.1
-23081.6
-26620.8
-53281.9
-9987.9
-120145
-139855
341302
)
;
    }
    fineWalls
    {
        type            calculated;
        value           uniform 0;
    }
    fineFrontAndBack
    {
        type            calculated;
        value           nonuniform List<scalar> 
960
(
-2.60779e-15
1.12048e-13
-4.63781e-14
-7.06184e-14
-4.04853e-13
-9.28853e-14
-2.2781e-14
-1.78037e-13
6.35526e-13
2.69574e-13
4.98126e-13
1.27579e-13
-4.21501e-13
-3.76608e-13
-5.87593e-12
-1.5207e-12
-1.50281e-12
-7.06886e-12
-1.07127e-12
-1.54223e-12
-8.98143e-14
-4.89917e-13
-5.11974e-13
-5.33322e-13
-5.19671e-13
-6.59416e-13
-1.23673e-11
-8.62419e-13
-8.85758e-13
-9.04632e-13
-9.38734e-13
-9.332e-13
-9.20353e-13
-9.13636e-13
-9.15527e-13
-9.16246e-13
-9.13471e-13
-9.17605e-13
-8.77662e-13
-1.02533e-12
7.37549e-12
3.31875e-11
2.69594e-11
2.54298e-11
1.04416e-10
1.53877e-11
1.63849e-11
1.71247e-11
9.36552e-11
2.11613e-11
2.72838e-11
4.35087e-11
-3.63951e-12
-3.31087e-12
-3.90815e-12
-2.90051e-11
-5.3661e-12
-5.04187e-12
-4.76928e-12
-1.91357e-11
-1.21786e-13
-8.94369e-14
1.4699e-13
2.87397e-13
3.80339e-13
3.97702e-13
3.85678e-13
3.65831e-13
3.41586e-13
3.03534e-13
2.46034e-13
1.76877e-13
1.02221e-13
-6.49512e-13
-3.52447e-14
-1.11654e-13
-1.41328e-13
-1.8962e-13
-2.38999e-13
-2.10447e-13
-1.02587e-12
-1.06071e-12
-5.57756e-12
-8.95455e-13
-8.01303e-13
-3.52233e-12
-2.55988e-13
-2.16926e-13
-1.01746e-12
4.73709e-14
-3.64139e-13
-4.15196e-12
-2.39969e-13
-2.26325e-13
-3.94643e-13
-3.02874e-12
-4.22453e-13
-1.73366e-12
-2.55511e-12
-4.25484e-14
-1.11064e-08
-1.95037e-10
5.48284e-10
-1.76431e-10
3.08848e-11
1.03606e-11
-3.54877e-13
4.5285e-13
1.95415e-13
-1.79005e-11
-3.20746e-11
-2.30744e-11
-1.31942e-11
-6.06217e-12
-2.34253e-12
-1.74404e-12
-4.38274e-12
-8.08615e-12
-9.76229e-12
3.55709e-09
2.10018e-10
7.64685e-10
4.75277e-11
-3.67585e-11
7.58533e-12
1.51685e-12
4.77764e-12
-4.82801e-12
-3.85695e-11
-4.63296e-11
-2.96901e-11
-1.89338e-11
-1.11572e-11
-4.86458e-12
-1.89324e-12
-1.75665e-12
-3.06387e-12
-4.18508e-12
1.98209e-10
5.6976e-10
8.25163e-10
5.64269e-10
-6.61464e-11
7.77345e-12
1.7095e-12
3.93605e-13
-1.64081e-11
-3.19292e-11
-5.61248e-11
-3.59135e-11
-1.96328e-11
-1.45068e-11
-8.08771e-12
-2.673e-12
-1.21141e-12
-2.66589e-12
-4.90553e-12
9.60356e-10
9.33562e-10
8.22136e-10
5.62596e-10
-3.49677e-11
1.32563e-12
-9.10136e-12
-8.2878e-12
1.31454e-12
2.85405e-11
-4.7091e-11
-3.87622e-11
-9.66241e-12
-9.80173e-12
-7.74774e-12
-2.62624e-12
-6.34858e-13
-2.52475e-12
-4.79018e-12
8.17561e-10
9.54732e-10
7.68269e-10
2.34576e-10
-2.73021e-11
8.93143e-12
4.04294e-12
3.82863e-11
1.16521e-10
1.8413e-10
5.24695e-12
-4.12488e-11
1.8483e-12
-3.7449e-12
-5.74626e-12
-2.58266e-12
-9.10244e-13
-4.20211e-12
-5.25019e-12
8.60491e-10
8.7377e-10
6.61262e-10
5.36694e-11
6.63129e-11
7.4423e-11
9.8447e-11
1.78788e-10
3.29485e-10
4.25437e-10
1.33332e-10
-3.80266e-11
5.37551e-12
-5.77673e-12
-5.85876e-12
-3.15714e-12
-3.62636e-12
-9.58214e-12
-7.04603e-12
8.53848e-10
7.64569e-10
5.53379e-10
2.6904e-11
1.82388e-10
1.60769e-10
1.94557e-10
2.86159e-10
4.66569e-10
6.04097e-10
3.29991e-10
-5.8678e-12
1.10861e-12
-7.90045e-12
-8.04785e-12
-5.08277e-12
-1.22832e-11
-1.90077e-11
-5.67135e-12
8.36954e-10
6.60438e-10
4.78755e-10
5.3271e-11
3.06818e-10
2.60282e-10
3.03535e-10
3.89325e-10
5.10112e-10
6.1549e-10
4.89692e-10
7.66205e-11
-3.33139e-12
-3.76287e-12
-5.93681e-12
-9.00017e-12
-3.07882e-11
-2.79669e-11
-2.91465e-11
8.18481e-10
5.47273e-10
4.42354e-10
1.18137e-10
3.98021e-11
4.32748e-11
1.79632e-10
3.23748e-10
4.40245e-10
6.04596e-10
5.56321e-10
1.73615e-10
1.66317e-12
-1.61566e-12
-1.41705e-11
-2.71254e-11
-4.19748e-11
-4.58894e-11
-5.01908e-11
7.7115e-10
4.82831e-10
4.4543e-10
3.02885e-10
2.51667e-10
2.38483e-10
2.77597e-10
3.86836e-10
5.35204e-10
6.2142e-10
5.22537e-10
2.32179e-10
2.52124e-11
-4.50796e-12
-3.56158e-11
-3.04691e-11
-4.49883e-11
-4.75222e-11
-2.0791e-11
5.31987e-10
9.32076e-11
6.46849e-11
3.56822e-11
2.67828e-11
4.72713e-11
5.94086e-11
1.22072e-10
2.39866e-10
3.05899e-10
2.93275e-10
2.34933e-10
5.61413e-11
-4.70679e-12
-2.4647e-11
-3.02425e-11
-3.84346e-11
-2.97583e-11
2.36029e-11
3.11335e-10
-1.17221e-10
-3.87132e-12
-5.57213e-12
4.24507e-12
1.49573e-11
2.10269e-11
1.56208e-12
3.04962e-11
1.01206e-10
1.56053e-10
1.61802e-10
4.76436e-11
-3.64552e-12
-1.06655e-11
-1.50234e-11
-7.56892e-12
1.14305e-11
4.81731e-11
1.94621e-10
-5.29422e-11
1.4004e-12
-3.90956e-12
2.44229e-11
4.0956e-11
5.44937e-11
4.68491e-11
3.64163e-12
2.61217e-11
9.08804e-11
1.10154e-10
1.04755e-11
-5.93927e-13
-2.96945e-12
-6.4565e-12
-1.08669e-11
-1.90922e-11
-1.82594e-11
1.26849e-10
-3.36463e-11
-4.57598e-12
-1.21268e-11
1.20835e-11
2.80684e-11
5.11942e-11
4.34521e-11
5.47175e-12
7.68981e-12
6.85721e-11
6.41083e-11
-8.77472e-12
-4.18077e-12
-6.53384e-12
-1.13596e-11
-1.6095e-11
-1.61274e-11
-1.42859e-11
7.70407e-11
-1.62113e-11
-2.52505e-12
-1.69974e-11
-4.03785e-12
1.56456e-11
5.03121e-11
4.52293e-11
9.55523e-13
8.78852e-12
6.52493e-11
2.0856e-11
-1.53621e-11
-1.02388e-11
-1.26527e-11
-1.52619e-11
-1.42586e-11
-8.00539e-12
1.31643e-13
4.60449e-11
-3.95852e-12
-8.98366e-13
-2.1274e-11
-2.70809e-11
-5.6099e-12
3.69212e-11
5.16582e-11
-2.52906e-13
2.99787e-11
5.33488e-11
-1.12873e-11
-1.99659e-11
-1.49694e-11
-1.65687e-11
-1.83206e-11
-1.69373e-11
-7.5133e-12
-1.12827e-12
2.20097e-11
1.99254e-12
9.34296e-13
-1.828e-11
-4.31194e-11
-2.71009e-11
1.02862e-11
5.81379e-11
4.14995e-11
5.0073e-11
2.46333e-11
-2.87203e-11
-2.4526e-11
-1.88293e-11
-1.96604e-11
-2.28538e-11
-1.77287e-11
-6.09601e-12
-1.9184e-13
3.94865e-12
-2.84216e-12
2.44552e-12
-1.53347e-11
-4.41741e-11
-3.2078e-11
-2.30425e-11
3.72369e-11
6.02038e-11
4.0408e-11
-8.9929e-12
-3.91677e-11
-3.19998e-11
-2.2663e-11
-2.22745e-11
-2.90333e-11
-1.72737e-11
-4.41941e-12
1.5064e-13
1.48968e-11
-5.71744e-13
2.89993e-12
-2.04013e-11
-1.78719e-11
-1.32694e-11
-3.39862e-11
-7.51133e-12
4.84652e-11
3.02204e-11
-1.48636e-11
-2.27444e-11
5.89488e-13
-1.45239e-11
-2.25779e-11
-2.47099e-11
-1.31667e-11
-2.27621e-12
1.16013e-13
-8.45339e-11
-8.9225e-13
4.14183e-12
-2.96919e-12
1.39623e-12
3.04241e-12
-8.60372e-12
-3.32845e-11
-4.11217e-11
-4.72471e-11
-8.8077e-11
-9.50042e-11
-2.18978e-10
-1.00906e-10
-4.0348e-11
-1.24229e-11
-2.79113e-12
1.65101e-13
4.72058e-15
2.60779e-15
-1.12048e-13
4.63781e-14
7.06184e-14
4.04853e-13
9.28853e-14
2.2781e-14
1.78037e-13
-6.35526e-13
-2.69574e-13
-4.98126e-13
-1.27579e-13
4.21501e-13
3.76608e-13
5.87593e-12
1.5207e-12
1.50281e-12
7.06886e-12
1.07127e-12
1.54223e-12
8.98143e-14
4.89917e-13
5.11974e-13
5.33322e-13
5.19671e-13
6.59416e-13
1.23673e-11
8.62419e-13
8.85758e-13
9.04632e-13
9.38734e-13
9.332e-13
9.20353e-13
9.13636e-13
9.15527e-13
9.16246e-13
9.13471e-13
9.17605e-13
8.77662e-13
1.02533e-12
-7.37549e-12
-3.31875e-11
-2.69594e-11
-2.54298e-11
-1.04416e-10
-1.53877e-11
-1.63849e-11
-1.71247e-11
-9.36552e-11
-2.11613e-11
-2.72838e-11
-4.35087e-11
3.63951e-12
3.31087e-12
3.90815e-12
2.90051e-11
5.3661e-12
5.04187e-12
4.76928e-12
1.91357e-11
1.21786e-13
8.94369e-14
-1.4699e-13
-2.87397e-13
-3.80339e-13
-3.97702e-13
-3.85678e-13
-3.65831e-13
-3.41586e-13
-3.03534e-13
-2.46034e-13
-1.76877e-13
-1.02221e-13
6.49512e-13
3.52447e-14
1.11654e-13
1.41328e-13
1.8962e-13
2.38999e-13
2.10447e-13
1.02587e-12
1.06071e-12
5.57756e-12
8.95455e-13
8.01303e-13
3.52233e-12
2.55988e-13
2.16926e-13
1.01746e-12
-4.73709e-14
3.64139e-13
4.15196e-12
2.39969e-13
2.26325e-13
3.94643e-13
3.02874e-12
4.22453e-13
1.73366e-12
2.55511e-12
4.25484e-14
1.11064e-08
1.95037e-10
-5.48284e-10
1.76431e-10
-3.08848e-11
-1.03606e-11
3.54877e-13
-4.5285e-13
-1.95415e-13
1.79005e-11
3.20746e-11
2.30744e-11
1.31942e-11
6.06217e-12
2.34253e-12
1.74404e-12
4.38274e-12
8.08615e-12
9.76229e-12
-3.55709e-09
-2.10018e-10
-7.64685e-10
-4.75277e-11
3.67585e-11
-7.58533e-12
-1.51685e-12
-4.77764e-12
4.82801e-12
3.85695e-11
4.63296e-11
2.96901e-11
1.89338e-11
1.11572e-11
4.86458e-12
1.89324e-12
1.75665e-12
3.06387e-12
4.18508e-12
-1.98209e-10
-5.6976e-10
-8.25163e-10
-5.64269e-10
6.61464e-11
-7.77345e-12
-1.7095e-12
-3.93605e-13
1.64081e-11
3.19292e-11
5.61248e-11
3.59135e-11
1.96328e-11
1.45068e-11
8.08771e-12
2.673e-12
1.21141e-12
2.66589e-12
4.90553e-12
-9.60356e-10
-9.33562e-10
-8.22136e-10
-5.62596e-10
3.49677e-11
-1.32563e-12
9.10136e-12
8.2878e-12
-1.31454e-12
-2.85405e-11
4.7091e-11
3.87622e-11
9.66241e-12
9.80173e-12
7.74774e-12
2.62624e-12
6.34858e-13
2.52475e-12
4.79018e-12
-8.17561e-10
-9.54732e-10
-7.68269e-10
-2.34576e-10
2.73021e-11
-8.93143e-12
-4.04294e-12
-3.82863e-11
-1.16521e-10
-1.8413e-10
-5.24695e-12
4.12488e-11
-1.8483e-12
3.7449e-12
5.74626e-12
2.58266e-12
9.10244e-13
4.20211e-12
5.25019e-12
-8.60491e-10
-8.7377e-10
-6.61262e-10
-5.36694e-11
-6.63129e-11
-7.4423e-11
-9.8447e-11
-1.78788e-10
-3.29485e-10
-4.25437e-10
-1.33332e-10
3.80266e-11
-5.37551e-12