/*--------------------------------*- C++ -*----------------------------------*\
| =========                 |                                                 |
| \\      /  F ield         | OpenFOAM: The Open Source CFD Toolbox           |
|  \\    /   O peration     | Version:  4.1                                   |
|   \\  /    A nd           | Web:      www.OpenFOAM.org                      |
|    \\/     M anipulation  |                                                 |
\*---------------------------------------------------------------------------*/
FoamFile
{
    version     2.0;
    format      ascii;
    class       volVectorField;
    location    "16";
    object      U;
}
// * * * * * * * * * * * * * * * * * * * * * * * * * * * * * * * * * * * * * //

dimensions      [0 1 -1 0 0 0 0];

internalField   nonuniform List<vector> 
1280
(
(-1.88458e-18 2.05561 -0.0526858)
(1.90437e-17 1.31709 -0.0100682)
(-4.67881e-17 0.991161 -0.0507369)
(-5.10341e-17 1.2052 -0.098013)
(-6.88087e-17 1.37438 -0.0728547)
(-6.71258e-17 1.02159 -0.0930018)
(-1.64632e-17 1.16803 -0.135491)
(-1.55911e-16 1.11266 -0.172611)
(2.10221e-16 1.35996 -0.298886)
(2.2674e-16 1.13198 -0.280557)
(3.85534e-16 1.2024 -0.290498)
(-2.64048e-16 1.56032 -0.506317)
(-3.26588e-16 1.27778 -0.437383)
(-2.66678e-16 1.41572 -0.456817)
(-1.13665e-15 1.66944 -0.511418)
(-1.09897e-15 1.43579 -0.433163)
(-1.08604e-15 1.51021 -0.330782)
(-1.20142e-15 2.05481 -1.47346)
(-7.90623e-16 2.22353 -0.80247)
(-1.11453e-15 1.82845 -2.2821)
(-3.68469e-16 2.16198 0.729845)
(-2.00992e-15 2.3552 4.1511)
(-2.1004e-15 2.09676 5.95892)
(-2.18799e-15 2.32068 7.0681)
(-2.13198e-15 2.22177 7.87988)
(-2.7053e-15 2.56103 8.74855)
(-2.60706e-15 0.051202 10.6654)
(-3.53813e-15 3.7876 15.7044)
(-3.63388e-15 4.00219 16.1885)
(-3.71131e-15 4.00252 16.5244)
(-3.85122e-15 4.01729 16.7326)
(-3.82851e-15 4.01972 16.8587)
(-3.77581e-15 4.01491 16.9277)
(-3.74825e-15 3.98468 16.9597)
(-3.75601e-15 3.99128 16.9634)
(-3.75896e-15 3.92427 16.9413)
(-3.74757e-15 3.99431 16.9282)
(-3.76453e-15 3.78753 16.8152)
(-3.60067e-15 4.16267 17.443)
(-4.20649e-15 3.70833 15.6807)
(1.28381e-15 7.42237 12.5426)
(2.66566e-14 -5.59086 -3.76311)
(2.16541e-14 1.43204 -3.31668)
(2.24063e-14 -0.734997 -4.0543)
(1.96929e-14 -0.1499 -5.09724)
(1.23596e-14 -0.040041 -3.97395)
(1.31606e-14 0.166406 -3.80929)
(1.37547e-14 0.906854 -3.4686)
(1.71813e-14 0.190527 -4.55901)
(1.78521e-14 0.392249 -3.38688)
(2.27942e-14 0.707968 -2.32234)
(7.57332e-15 0.922828 2.50409)
(-2.9233e-15 -0.857405 6.14768)
(-2.65934e-15 -1.46041 6.16311)
(-3.13908e-15 -2.25075 6.56303)
(-5.04875e-15 -3.50382 10.6749)
(-4.35104e-15 -4.95814 10.1024)
(-4.04969e-15 -6.26794 10.1949)
(-3.83075e-15 -7.30372 10.0843)
(-3.52225e-15 -10.7972 13.4661)
(-4.99637e-16 -9.06217 11.107)
(-3.66921e-16 -9.39415 11.2359)
(6.03036e-16 -9.40865 11.0662)
(1.17907e-15 -9.54096 10.9696)
(1.56036e-15 -9.5723 10.8308)
(1.6316e-15 -9.61361 10.7806)
(1.58227e-15 -9.61578 10.8607)
(1.50085e-15 -9.61461 11.0877)
(1.40138e-15 -9.60241 11.4227)
(1.24527e-15 -9.58911 11.8029)
(1.00937e-15 -9.54347 12.1616)
(7.2565e-16 -9.46376 12.4337)
(4.1937e-16 -9.44539 12.4985)
(-1.3692e-16 -4.96672 6.72164)
(-1.44594e-16 -5.52911 11.0761)
(-4.58067e-16 -5.16585 10.6324)
(-5.79808e-16 -4.93624 9.76643)
(-7.77929e-16 -4.83695 7.50237)
(-9.80507e-16 -4.87975 3.01456)
(-8.63374e-16 -4.84717 -1.70711)
(-7.41371e-16 -4.41196 -2.98753)
(-7.6655e-16 -4.44521 -2.57982)
(-9.4796e-16 -4.00151 -3.38278)
(-6.47122e-16 -3.17365 -1.39582)
(-5.79081e-16 -2.82939 -1.78619)
(-6.76479e-16 -2.50888 -2.32144)
(-2.16859e-16 -1.91878 -0.91672)
(-1.56767e-16 -1.68334 -1.2102)
(-2.36654e-16 -1.36565 -1.81227)
(3.42337e-17 -0.971796 -0.890572)
(-2.63154e-16 -0.817898 -1.26022)
(-1.09942e-15 -0.100031 -2.06274)
(-4.41234e-16 0.15391 -0.55644)
(-1.63559e-16 0.358965 -0.633247)
(-2.85198e-16 0.374747 -0.698369)
(-5.14764e-16 0.196361 -1.5331)
(-3.05296e-16 0.61313 -1.39015)
(-1.37144e-15 1.41776 -1.73842)
(-2.43236e-16 -2.77269 -4.26424)
(-3.07486e-17 6.43893 -4.233)
(-1.23404e-12 540.174 313.616)
(-2.16708e-14 -52.2115 -138.102)
(6.09204e-14 -96.8491 -22.2217)
(-1.96035e-14 -5.5298 100.435)
(3.43164e-15 -27.8613 -16.994)
(1.15118e-15 -14.0324 0.0911728)
(-3.94308e-17 -11.055 1.18689)
(5.03167e-17 -9.09033 3.23103)
(2.17128e-17 -3.94475 7.97487)
(-1.98894e-15 7.15102 10.6399)
(-3.56385e-15 13.4058 3.01308)
(-2.56382e-15 15 -4.09128)
(-1.46602e-15 12.2154 -9.17936)
(-6.73575e-16 9.00512 -11.6166)
(-2.60281e-16 6.63537 -11.7268)
(-1.93783e-16 5.24792 -10.5019)
(-4.86972e-16 5.52714 -9.0112)
(-8.98461e-16 5.22713 -6.7977)
(-1.0847e-15 5.53704 -6.03)
(3.95232e-13 -158.745 -118.482)
(2.33354e-14 12.5694 155.828)
(8.49649e-14 -92.5519 -28.808)
(5.28086e-15 23.2147 61.5338)
(-4.08428e-15 13.7718 5.36419)
(8.42814e-16 -12.6753 6.88845)
(1.68539e-16 -9.87942 3.2992)
(5.30849e-16 -8.5138 7.68652)
(-5.36446e-16 -6.16191 9.58104)
(-4.2855e-15 -1.11072 7.27656)
(-5.14773e-15 3.54311 3.6412)
(-3.2989e-15 2.92258 0.139322)
(-2.10376e-15 0.378681 -2.3942)
(-1.23968e-15 -2.09374 -3.20288)
(-5.40509e-16 -3.22628 -3.12294)
(-2.1036e-16 -2.65414 -2.68478)
(-1.95184e-16 -3.05013 -1.61651)
(-3.4043e-16 -2.96262 -1.70349)
(-4.65009e-16 -2.03648 -1.58982)
(2.20232e-14 184.418 -0.762678)
(6.33066e-14 48.2551 -12.3189)
(9.16847e-14 -66.5342 -22.8936)
(6.26966e-14 -20.281 -11.5487)
(-7.3496e-15 5.24475 21.8351)
(8.63717e-16 -8.02162 10.6956)
(1.89945e-16 -7.30406 6.14415)
(4.37339e-17 -7.92135 9.45038)
(-1.82312e-15 -4.06823 9.80165)
(-3.54768e-15 4.58536 9.98584)
(-6.23609e-15 9.94258 5.57858)
(-3.99039e-15 9.91538 1.11124)
(-2.18143e-15 7.04586 -2.73145)
(-1.61187e-15 4.19161 -4.88355)
(-8.98635e-16 2.25078 -5.03569)
(-2.97e-16 0.633518 -3.30501)
(-1.34601e-16 1.03255 -2.76926)
(-2.9621e-16 1.2166 -2.65321)
(-5.45059e-16 1.91169 -2.81416)
(1.06706e-13 20.1013 -12.8067)
(1.03729e-13 -48.4382 73.007)
(9.13484e-14 -61.7127 -12.6311)
(6.25107e-14 -2.40586 1.02081)
(-3.8853e-15 2.19271 7.69349)
(1.47292e-16 -5.98485 12.7655)
(-1.01126e-15 -8.14063 8.953)
(-9.20867e-16 -9.0384 10.8201)
(1.4606e-16 -5.24969 10.5315)
(3.17117e-15 3.38717 10.5587)
(-5.23233e-15 9.88257 7.24524)
(-4.30691e-15 9.55985 3.23767)
(-1.0736e-15 6.12027 -0.782024)
(-1.08908e-15 1.87585 -2.80143)
(-8.6086e-16 -0.500508 -3.60936)
(-2.91805e-16 -0.767744 -2.67456)
(-7.05397e-17 -0.364122 -2.70902)
(-2.80528e-16 -0.409926 -2.91534)
(-5.32242e-16 -0.033735 -3.12031)
(9.08401e-14 81.3443 5.64729)
(1.06081e-13 23.1965 31.9957)
(8.53633e-14 -52.1881 -1.18156)
(2.6064e-14 -5.93778 13.6638)
(-3.03356e-15 -2.27519 8.54266)
(9.92381e-16 -6.43281 13.7929)
(4.49216e-16 -7.90799 10.4592)
(4.25403e-15 -8.86586 10.6484)
(1.29468e-14 -4.77563 9.57352)
(2.04589e-14 4.95508 9.18903)
(5.82995e-16 11.9825 7.71045)
(-4.5832e-15 11.9601 4.68409)
(2.05367e-16 8.20984 0.419049)
(-4.161e-16 3.73296 -1.70465)
(-6.38473e-16 0.516607 -2.80067)
(-2.86962e-16 -0.772139 -2.39698)
(-1.01138e-16 0.080687 -2.96671)
(-4.66901e-16 0.168308 -3.20539)
(-5.83354e-16 0.533385 -4.08032)
(9.56101e-14 37.0977 15.0252)
(9.70855e-14 -8.85246 40.5707)
(7.34736e-14 -44.5843 9.58342)
(5.96327e-15 -9.35532 15.4964)
(7.3681e-15 -1.89029 9.94485)
(8.26922e-15 -6.28007 12.0189)
(1.09386e-14 -7.06101 7.99839)
(1.98653e-14 -8.13358 6.45153)
(3.66095e-14 -4.6779 4.31401)
(4.72708e-14 4.54601 4.00732)
(1.48146e-14 12.2458 5.44107)
(-4.22518e-15 12.9847 4.93323)
(5.97278e-16 9.23013 1.40626)
(-6.41859e-16 3.70646 -1.22725)
(-6.50974e-16 0.661963 -1.62908)
(-3.50794e-16 -0.528907 -2.02045)
(-4.02929e-16 0.377639 -3.42391)
(-1.06468e-15 0.198003 -3.9548)
(-7.82892e-16 0.0434662 -5.25915)
(9.4872e-14 41.5715 27.6968)
(8.49521e-14 -5.93255 33.9635)
(6.14866e-14 -37.9217 16.3461)
(2.98933e-15 -8.41311 10.4751)
(2.02653e-14 -1.64268 8.8428)
(1.78633e-14 -5.54317 7.18002)
(2.16174e-14 -5.59989 1.16784)
(3.17955e-14 -6.796 -0.161238)
(5.1841e-14 -5.04748 -2.89436)
(6.71219e-14 3.60209 -3.77381)
(3.66657e-14 11.6134 -0.15937)
(-6.51978e-16 13.4715 2.85815)
(1.23178e-16 10.5859 1.85529)
(-8.77828e-16 4.50031 -1.44391)
(-8.94205e-16 1.06768 -0.66879)
(-5.64752e-16 -0.178967 -1.29648)
(-1.3648e-15 0.851372 -3.06242)
(-2.11197e-15 0.966285 -3.76731)
(-6.30151e-16 0.857808 -2.96271)
(9.29949e-14 22.0755 35.5669)
(7.3382e-14 -4.92732 30.0747)
(5.3195e-14 -30.7661 18.4935)
(5.91899e-15 -6.96749 1.55743)
(3.40909e-14 0.457009 10.8104)
(2.89202e-14 -2.28182 0.826257)
(3.37261e-14 -4.4416 -7.57014)
(4.32584e-14 -5.99043 -9.63862)
(5.66791e-14 -4.60373 -10.7378)
(6.83878e-14 2.97135 -11.6363)
(5.44103e-14 9.94635 -7.59951)
(8.51339e-15 12.3743 -1.8147)
(-3.70154e-16 11.0861 1.40557)
(-4.18096e-16 4.74623 -1.089)
(-6.59646e-16 0.928435 0.528629)
(-1.00002e-15 0.777895 -0.554115)
(-3.42091e-15 1.42781 0.154209)
(-3.10743e-15 -0.268016 1.32401)
(-3.2385e-15 -5.33683 7.03081)
(9.09423e-14 14.7154 44.1065)
(6.08081e-14 -5.13024 27.2362)
(4.91504e-14 -21.6457 18.2801)
(1.31263e-14 -7.27822 -14.295)
(4.42245e-15 -1.14612 -15.3805)
(4.80831e-15 1.18953 -14.7239)
(1.99591e-14 -1.53793 -16.6021)
(3.5972e-14 -4.60716 -18.2716)
(4.89161e-14 -3.84299 -19.5158)
(6.71773e-14 2.46374 -21.0913)
(6.18135e-14 7.87637 -15.6076)
(1.92905e-14 9.9892 -7.75867)
(1.84796e-16 10.3177 -0.355174)
(-1.79518e-16 4.68253 -0.381211)
(-1.57451e-15 0.0756826 1.35134)
(-3.01394e-15 0.594281 2.77143)
(-4.66387e-15 0.146892 6.09212)
(-5.09882e-15 -2.12424 9.17491)
(-5.57675e-15 -5.00085 11.5399)
(8.56833e-14 2.15047 50.1757)
(5.36479e-14 -3.43348 26.6323)
(4.94922e-14 -8.59018 16.583)
(3.36539e-14 -1.35122 -21.9686)
(2.79631e-14 1.25876 -30.3257)
(2.64981e-14 -0.0643389 -33.2014)
(3.09348e-14 -3.04592 -34.8004)
(4.29818e-14 -4.97327 -35.924)
(5.94671e-14 -4.01996 -36.5536)
(6.90467e-14 0.588784 -33.6774)
(5.80597e-14 4.52712 -23.6454)
(2.5097e-14 6.39486 -13.2213)
(2.80138e-15 8.12095 -2.88725)
(-5.00885e-16 4.12112 0.207358)
(-4.80331e-15 -0.917129 1.92275)
(-3.38546e-15 -1.13861 5.07042)
(-4.9987e-15 -1.76161 8.82174)
(-5.28024e-15 -3.08911 10.3547)
(-2.31011e-15 -4.06823 8.98189)
(5.91097e-14 -5.40337 49.9136)
(1.03564e-14 -1.11189 26.1283)
(7.18721e-15 8.50783 15.1162)
(3.96469e-15 7.67192 -22.8533)
(2.97587e-15 5.64404 -28.24)
(5.25237e-15 3.16944 -29.6026)
(5.51815e-15 -0.0999284 -35.4591)
(1.35635e-14 -3.29094 -43.2669)
(2.66518e-14 -4.79266 -46.0678)
(3.39888e-14 -2.98094 -40.2495)
(3.25861e-14 -0.210666 -27.625)
(2.61037e-14 1.93909 -16.2483)
(6.23792e-15 4.8268 -4.77838)
(-5.22977e-16 2.70316 1.0299)
(-2.73855e-15 -1.92514 3.18547)
(-3.36028e-15 -1.98146 6.92859)
(-4.27051e-15 -1.42046 9.55642)
(-3.30648e-15 -1.51067 8.40378)
(2.62254e-15 -2.38132 4.17532)
(3.45928e-14 -18.525 45.3407)
(-1.30245e-14 -0.306974 26.0932)
(-4.30147e-16 21.6242 14.9102)
(-6.19126e-16 12.3241 -17.9342)
(4.71674e-16 5.30535 -12.874)
(1.66192e-15 2.5945 -12.5587)
(2.33632e-15 1.88083 -18.2447)
(1.73564e-16 -0.707014 -27.6298)
(3.38847e-15 -5.0556 -36.684)
(1.12451e-14 -6.61241 -34.1183)
(1.73392e-14 -4.8542 -23.1588)
(1.79779e-14 -2.20245 -13.6008)
(5.29373e-15 1.31036 -4.30461)
(-4.05057e-16 0.516327 2.94529)
(-1.18506e-15 -3.17269 5.82019)
(-1.66927e-15 -3.51799 8.28498)
(-8.40991e-16 -2.99934 8.86355)
(1.27006e-15 -2.17183 7.0657)
(5.35256e-15 0.318518 5.92913)
(2.16246e-14 -24.8929 37.4853)
(-5.88246e-15 3.18769 27.9266)
(1.556e-16 32.6934 13.1995)
(-4.34396e-16 13.256 -6.71521)
(2.71366e-15 3.77516 4.48324)
(4.55067e-15 5.8074 -3.81765)
(6.05485e-15 5.56038 -12.258)
(5.20545e-15 3.65542 -15.8308)
(4.04626e-16 -2.71537 -23.6444)
(2.90242e-15 -8.52324 -24.0492)
(1.00978e-14 -8.32183 -15.8525)
(1.22393e-14 -5.47616 -8.42777)
(1.16395e-15 -1.4312 0.704237)
(-6.59919e-17 -1.77374 7.85605)
(-3.29939e-16 -3.88979 10.341)
(-7.17389e-16 -3.30149 12.3231)
(-1.20743e-15 -0.871993 13.7314)
(-2.12135e-15 2.34309 14.4095)
(-2.02882e-15 6.25652 14.6494)
(1.40944e-14 -44.6782 29.5609)
(-3.73847e-15 -4.63026 28.3266)
(-5.08442e-16 41.1866 9.25069)
(-1.34742e-15 13.5492 3.67709)
(1.34261e-15 4.95703 5.19167)
(3.11871e-15 9.33794 0.783586)
(5.68824e-15 7.26412 -7.49503)
(4.82801e-15 4.41336 -8.1622)
(6.07972e-16 -1.80345 -12.8176)
(8.54423e-16 -10.0079 -14.1617)
(7.61912e-15 -11.0847 -8.56408)
(7.12314e-15 -8.6441 -2.8365)
(-9.74969e-16 -4.53998 5.14667)
(-4.6453e-16 -3.68684 10.685)
(-7.25982e-16 -4.84424 12.7548)
(-1.26218e-15 -4.46993 12.654)
(-1.78833e-15 -3.44511 9.98911)
(-1.79193e-15 -2.78715 5.80402)
(-1.58732e-15 -0.858564 5.46218)
(8.56008e-15 -38.2664 18.8472)
(-1.80125e-15 14.1705 39.6113)
(-2.80561e-16 49.2774 3.36174)
(-1.8886e-15 13.5961 9.3115)
(-4.48651e-16 5.9948 7.41762)
(1.7384e-15 11.2518 6.59225)
(5.59024e-15 8.89232 -0.555928)
(5.02548e-15 5.51087 -0.879638)
(1.06169e-16 -0.0296054 -4.70658)
(9.76502e-16 -10.2317 -5.67502)
(7.24992e-15 -12.466 -2.14572)
(2.31733e-15 -10.6176 1.74422)
(-1.7069e-15 -6.41424 6.50236)
(-1.13765e-15 -4.74316 10.6051)
(-1.40586e-15 -4.72602 11.4469)
(-1.69576e-15 -2.58283 8.67743)
(-1.58428e-15 0.701774 3.12686)
(-8.89488e-16 2.44849 -0.531441)
(1.4627e-17 3.27259 -2.41532)
(5.1161e-15 -83.3289 8.42413)
(-4.39836e-16 -28.5638 26.2033)
(-9.98185e-17 58.1493 -5.01486)
(-2.36377e-15 9.35166 9.12796)
(-3.00898e-15 5.84049 10.012)
(-6.23322e-16 12.3301 11.708)
(4.10235e-15 10.5932 6.36182)
(5.7398e-15 6.47727 5.24861)
(-2.81007e-17 -2.02223 2.98609)
(3.33096e-15 -11.4428 1.76801)
(5.92764e-15 -14.1699 2.94278)
(-1.25414e-15 -12.4358 4.20284)
(-2.21843e-15 -8.81867 5.34943)
(-1.66326e-15 -6.24358 8.20549)
(-1.84096e-15 -4.18442 7.85144)
(-2.03562e-15 -1.07559 4.12298)
(-1.88192e-15 1.33086 0.531942)
(-8.34812e-16 1.29806 -0.500676)
(-1.25364e-16 0.939896 -0.347093)
(2.44553e-15 -19.1174 -10.1944)
(2.21394e-16 37.3008 69.7666)
(1.03811e-16 66.7258 -14.6529)
(-2.03111e-15 4.77152 1.20308)
(-4.79104e-15 2.41813 14.617)
(-3.01121e-15 13.1961 15.8912)
(1.14291e-15 11.8201 12.5538)
(6.45977e-15 7.8069 11.2227)
(4.61105e-15 1.74199 9.41331)
(5.56367e-15 -8.84769 7.66543)
(2.73703e-15 -12.2117 6.68772)
(-3.19115e-15 -10.8189 5.21871)
(-2.72512e-15 -6.72423 3.52368)
(-2.09214e-15 -4.46182 5.72116)
(-2.18449e-15 -2.97367 5.25783)
(-2.53931e-15 0.296979 2.1647)
(-1.96986e-15 2.29753 -0.215594)
(-6.77334e-16 2.04031 -0.608276)
(-2.13155e-17 1.99749 -0.461585)
(4.38739e-16 -189.967 5.36486)
(-3.15795e-16 -35.3255 -7.11034)
(2.71725e-16 71.8323 -23.6586)
(-1.70386e-15 16.769 -7.06606)
(-4.90824e-15 -2.58278 25.7448)
(-3.56422e-15 14.9389 17.1255)
(-2.56028e-15 11.3326 16.766)
(4.13743e-15 5.81799 16.9486)
(6.68931e-15 -5.68031 14.05)
(4.48978e-15 -12.7242 11.2111)
(-9.99211e-16 -15.4535 7.62864)
(-4.35197e-15 -12.8634 4.40449)
(-3.55553e-15 -12.482 1.21179)
(-2.51811e-15 -10.554 1.98205)
(-2.47495e-15 -3.73773 1.66293)
(-3.22592e-15 0.620035 0.07967)
(-1.9193e-15 2.58488 -1.62982)
(-4.91046e-16 1.5973 -0.774716)
(1.67378e-17 1.25311 -0.0716533)
(1.6552e-15 163.773 -117.262)
(-6.35271e-17 -24.5971 156.955)
(3.22215e-16 97.8208 -29.6016)
(-2.26681e-15 -23.8441 65.2574)
(-1.98577e-15 -8.76393 -6.17044)
(-1.47438e-15 14.9997 12.7982)
(-3.77625e-15 13.4263 14.0381)
(-8.34592e-16 12.2052 20.9014)
(5.38502e-15 10.2365 13.8884)
(3.35783e-15 0.136909 10.8095)
(-1.65151e-15 -3.46602 8.28231)
(-2.52716e-15 -4.25023 5.17434)
(6.54987e-17 2.4967 2.13447)
(-1.61377e-15 4.89215 0.717975)
(-2.50866e-15 1.07059 4.02466)
(-2.74555e-15 2.60602 -3.41185)
(-1.46296e-15 2.75561 -2.52582)
(-2.52912e-16 1.41568 -0.515493)
(1.28904e-17 1.72365 0.137869)
(-9.39266e-15 -559.241 338.527)
(-9.91389e-17 64.2499 -143.467)
(4.60203e-16 104.255 -24.8806)
(-3.2991e-16 12.5779 101.913)
(1.55137e-16 29.6176 -14.9886)
(3.38046e-16 13.7926 3.97988)
(-9.55969e-16 13.0093 4.63237)
(-3.69828e-15 5.34223 16.7459)
(-4.56908e-15 -9.66705 22.9005)
(-5.24968e-15 -21.9389 17.2088)
(-9.78634e-15 -26.7743 7.13149)
(-1.0556e-14 -19.1506 1.25293)
(-2.43308e-14 -26.7195 -11.4581)
(-1.12118e-14 -29.3999 -0.133103)
(-4.48312e-15 -9.32001 -7.17399)
(-1.38032e-15 1.92665 -5.264)
(-3.10125e-16 2.66829 -1.43337)
(1.83445e-17 1.1913 0.250753)
(5.24509e-19 1.71363 0.157457)
(1.53872e-16 5.26921 9.49404)
(-5.24204e-15 10.1081 17.1107)
(-3.93274e-15 10.2398 17.1229)
(-3.79022e-15 9.94175 16.3692)
(-3.77846e-15 9.92185 16.1455)
(-5.37792e-15 9.99499 16.0784)
(-4.34008e-15 9.87457 15.7384)
(-3.86538e-15 9.78576 15.5873)
(-3.68487e-15 9.70203 15.5624)
(-3.65677e-15 9.66157 15.557)
(-3.8313e-15 9.61308 15.5667)
(-3.75052e-15 9.56462 15.5803)
(-3.60208e-15 9.51929 15.5915)
(-3.62474e-15 9.46672 15.6073)
(-3.68379e-15 9.42427 15.6115)
(-3.76491e-15 9.36106 15.6196)
(-3.72981e-15 9.32647 15.6168)
(-3.4945e-15 9.53025 16.0991)
(-3.53532e-15 9.8115 16.5664)
(-5.22947e-15 5.59982 9.37421)
(3.59891e-17 4.99053 8.47295)
(-4.4662e-15 9.27155 15.9266)
(-2.85993e-15 9.00425 15.5814)
(-3.13414e-15 8.73014 15.1278)
(-3.15208e-15 8.71135 15.1838)
(-5.06641e-15 8.73921 15.2348)
(-3.18926e-15 8.77628 15.3551)
(-3.27179e-15 8.82212 15.4086)
(-3.2048e-15 8.8396 15.4391)
(-3.25209e-15 8.85876 15.4582)
(-3.22352e-15 8.87108 15.4744)
(-3.31063e-15 8.88215 15.4882)
(-3.13142e-15 8.89395 15.4981)
(-3.22124e-15 8.89662 15.5113)
(-3.40374e-15 8.91194 15.5133)
(-3.3556e-15 8.89861 15.5193)
(-3.26498e-15 8.93576 15.5305)
(-2.989e-15 9.16712 15.9906)
(-3.06857e-15 9.43077 16.3771)
(-4.75429e-15 5.32102 9.34512)
(6.74996e-18 5.47361 9.50052)
(-1.62619e-15 9.58178 16.3913)
(-1.01219e-15 9.30018 16.0048)
(-1.05874e-15 9.05431 15.5078)
(-1.09485e-15 9.01808 15.4822)
(-3.02153e-15 9.03654 15.4787)
(-1.60423e-15 9.01416 15.4659)
(-1.57499e-15 9.01065 15.4556)
(-1.56704e-15 8.99794 15.4609)
(-1.64894e-15 8.99591 15.4641)
(-1.34065e-15 8.9883 15.4722)
(-1.52714e-15 8.98348 15.4805)
(-1.38817e-15 8.98038 15.4881)
(-1.4568e-15 8.97143 15.5009)
(-1.54812e-15 8.97446 15.5064)
(-1.64004e-15 8.95535 15.5191)
(-1.51863e-15 8.97031 15.5211)
(-1.33049e-15 9.16035 15.9333)
(-1.32206e-15 9.51912 16.4963)
(-2.09015e-15 5.64482 9.91778)
(-4.01073e-18 5.61206 9.68673)
(3.84495e-16 9.4899 16.2888)
(2.42147e-16 9.1209 15.7447)
(2.70318e-16 8.90597 15.3375)
(2.55009e-16 8.88581 15.3514)
(-1.88828e-15 8.90415 15.3596)
(-1.49382e-15 8.89639 15.3772)
(-1.51374e-15 8.90682 15.3817)
(-1.46457e-15 8.9024 15.3916)
(-1.61648e-15 8.90733 15.3961)
(-1.36918e-15 8.90585 15.4034)
(-1.38068e-15 8.90695 15.4097)
(-1.37402e-15 8.90857 15.415)
(-1.379e-15 8.90519 15.424)
(-1.63971e-15 8.91145 15.4265)
(-1.54424e-15 8.89775 15.4343)
(-1.63569e-15 8.91404 15.4348)
(-1.34423e-15 9.09449 15.8067)
(-1.30779e-15 9.47229 16.415)
(-2.07819e-15 5.77109 10.099)
(1.4532e-18 5.84181 10.1051)
(-8.92298e-17 9.51708 16.3351)
(-5.79768e-17 9.10904 15.7266)
(-6.23604e-17 8.91969 15.3519)
(-6.45369e-17 8.89812 15.3609)
(4.58348e-16 8.91346 15.3639)
(3.44063e-16 8.9014 15.3724)
(3.60758e-16 8.9065 15.3724)
(3.61382e-16 8.89933 15.3798)
(3.72241e-16 8.90134 15.3829)
(3.2399e-16 8.89753 15.3892)
(3.55355e-16 8.89693 15.3944)
(3.26798e-16 8.89644 15.3995)
(3.41599e-16 8.89254 15.4075)
(3.55349e-16 8.89689 15.4102)
(3.74964e-16 8.88442 15.4177)
(3.52695e-16 8.89703 15.415)
(3.14642e-16 9.05938 15.7526)
(3.14529e-16 9.46779 16.4149)
(4.8532e-16 5.95127 10.4182)
(-4.35265e-19 6.02599 10.4116)
(2.06706e-17 9.4942 16.3063)
(1.38223e-17 9.05069 15.6291)
(1.40608e-17 8.8846 15.3012)
(1.62229e-17 8.86802 15.3162)
(-1.09014e-16 8.88218 15.3196)
(-8.34925e-17 8.87194 15.3297)
(-8.74579e-17 8.87776 15.331)
(-8.31014e-17 8.87166 15.3386)
(-8.40638e-17 8.87418 15.3418)
(-8.11692e-17 8.87088 15.3481)
(-8.787e-17 8.87097 15.3531)
(-7.94045e-17 8.8704 15.3582)
(-8.33587e-17 8.86753 15.3655)
(-7.9807e-17 8.87113 15.3686)
(-8.8884e-17 8.86069 15.3758)
(-8.54009e-17 8.87035 15.3715)
(-7.56789e-17 9.01398 15.6706)
(-7.72325e-17 9.44574 16.3807)
(-1.12016e-16 6.12503 10.7144)
(1.19914e-19 6.22229 10.75)
(-4.69313e-18 9.48163 16.2892)
(-3.28428e-18 9.01255 15.565)
(-3.25639e-18 8.86879 15.2764)
(-3.9509e-18 8.85412 15.2926)
(2.57537e-17 8.86674 15.295)
(2.06317e-17 8.85672 15.3038)
(2.06724e-17 8.86165 15.3049)
(1.95901e-17 8.85565 15.3119)
(1.96069e-17 8.85773 15.3148)
(2.05268e-17 8.85426 15.3208)
(2.05645e-17 8.85437 15.3253)
(1.92984e-17 8.85326 15.3304)
(1.97385e-17 8.85099 15.3369)
(1.92026e-17 8.85357 15.3403)
(2.05272e-17 8.84484 15.3471)
(2.05805e-17 8.85185 15.3418)
(1.87235e-17 8.97702 15.6036)
(1.91588e-17 9.42667 16.3489)
(2.51583e-17 6.30708 11.0287)
(-3.20466e-20 6.41039 11.0691)
(1.06047e-18 9.45692 16.2526)
(7.83414e-19 8.97077 15.4935)
(7.76747e-19 8.84788 15.2438)
(9.63356e-19 8.83554 15.2614)
(-6.06239e-18 8.84691 15.2634)
(-5.03094e-18 8.83775 15.2719)
(-4.85488e-18 8.84231 15.2732)
(-4.80249e-18 8.83682 15.28)
(-4.63483e-18 8.8388 15.283)
(-4.98683e-18 8.8355 15.2889)
(-4.74514e-18 8.83587 15.2932)
(-4.60268e-18 8.83447 15.2985)
(-4.62682e-18 8.83294 15.3045)
(-4.58601e-18 8.83466 15.3083)
(-4.70049e-18 8.82772 15.315)
(-4.92241e-18 8.83247 15.3094)
(-4.62395e-18 8.94002 15.5353)
(-4.72004e-18 9.40041 16.3043)
(-5.62262e-18 6.48778 11.3392)
(8.49915e-21 6.59927 11.3914)
(-2.42134e-19 9.42905 16.2096)
(-1.88617e-19 8.93362 15.4299)
(-1.88897e-19 8.83041 15.2165)
(-2.34913e-19 8.81967 15.2344)
(1.4131e-18 8.8298 15.2359)
(1.22035e-18 8.82132 15.2439)
(1.17732e-18 8.82536 15.2453)
(1.1751e-18 8.82031 15.2517)
(1.11346e-18 8.82206 15.2547)
(1.16793e-18 8.81888 15.2604)
(1.10513e-18 8.81939 15.2644)
(1.07861e-18 8.8177 15.2697)
(1.08974e-18 8.81682 15.2752)
(1.0849e-18 8.81765 15.2795)
(1.09522e-18 8.8124 15.2857)
(1.15496e-18 8.8152 15.2805)
(1.11764e-18 8.90622 15.4724)
(1.14752e-18 9.37005 16.2522)
(1.27565e-18 6.66895 11.6509)
(-2.23362e-21 6.78569 11.7086)
(5.61269e-20 9.39449 16.1552)
(4.5775e-20 8.89793 15.3687)
(4.60399e-20 8.81296 15.1893)
(5.61668e-20 8.80356 15.2069)
(-3.27311e-19 8.81255 15.2082)
(-2.93583e-19 8.80484 15.2156)
(-2.9043e-19 8.80841 15.2173)
(-2.81016e-19 8.80386 15.2234)
(-2.6935e-19 8.80539 15.2264)
(-2.70699e-19 8.80243 15.2319)
(-2.60225e-19 8.80306 15.2358)
(-2.51807e-19 8.80116 15.2412)
(-2.5857e-19 8.80092 15.2461)
(-2.57774e-19 8.80093 15.2509)
(-2.59365e-19 8.79732 15.2567)
(-2.67494e-19 8.79843 15.2524)
(-2.65325e-19 8.8743 15.4126)
(-2.7587e-19 9.33402 16.1901)
(-2.93465e-19 6.84901 11.9604)
(5.75986e-22 6.9711 12.0244)
(-1.31215e-20 9.35476 16.0918)
(-1.11162e-20 8.86497 15.3121)
(-1.10664e-20 8.79673 15.1641)
(-1.30738e-20 8.78834 15.1809)
(7.59586e-20 8.79626 15.182)
(6.96008e-20 8.78929 15.189)
(7.05904e-20 8.79236 15.1908)
(6.59863e-20 8.78831 15.1965)
(6.45854e-20 8.78959 15.1995)
(6.29389e-20 8.78686 15.2049)
(6.17033e-20 8.78756 15.2086)
(5.9299e-20 8.78549 15.214)
(6.16106e-20 8.78582 15.2185)
(6.17842e-20 8.78504 15.2237)
(6.16745e-20 8.78299 15.229)
(6.1859e-20 8.78262 15.226)
(6.25154e-20 8.84481 15.3569)
(6.57713e-20 9.29282 16.1192)
(6.76622e-20 7.02826 12.2686)
(-1.45045e-22 7.15504 12.3375)
(3.06424e-21 9.3093 16.0185)
(2.6806e-21 8.83429 15.2594)
(2.60988e-21 8.78114 15.1399)
(2.9942e-21 8.77354 15.1556)
(-1.77191e-20 8.78046 15.1566)
(-1.62283e-20 8.77423 15.1631)
(-1.66371e-20 8.77682 15.1651)
(-1.53828e-20 8.77329 15.1705)
(-1.52163e-20 8.77428 15.1736)
(-1.46483e-20 8.77186 15.1787)
(-1.46425e-20 8.77255 15.1823)
(-1.41212e-20 8.77041 15.1878)
(-1.46548e-20 8.77122 15.1918)
(-1.48093e-20 8.76973 15.1974)
(-1.45787e-20 8.76915 15.2021)
(-1.4334e-20 8.76747 15.2007)
(-1.46831e-20 8.81757 15.305)
(-1.55718e-20 9.24621 16.039)
(-1.54942e-20 7.20647 12.5748)
(3.5809e-23 7.33779 12.6486)
(-7.1144e-22 9.25839 15.9358)
(-6.3988e-22 8.8061 15.2109)
(-6.07829e-22 8.76635 15.1171)
(-6.86572e-22 8.75934 15.1314)
(4.14366e-21 8.76535 15.1324)
(3.73396e-21 8.75983 15.1384)
(3.81249e-21 8.76195 15.1406)
(3.58029e-21 8.75895 15.1456)
(3.53056e-21 8.75962 15.1487)
(3.40012e-21 8.75754 15.1536)
(3.45455e-21 8.75815 15.1572)
(3.37697e-21 8.75604 15.1626)
(3.45773e-21 8.75723 15.1663)
(3.50928e-21 8.75511 15.1722)
(3.41109e-21 8.75589 15.1763)
(3.31632e-21 8.75303 15.1767)
(3.43388e-21 8.79272 15.2572)
(3.66565e-21 9.19426 15.9497)
(3.51651e-21 7.38372 12.8791)
(-8.75272e-24 7.51934 12.9575)
(1.64554e-22 9.20191 15.8434)
(1.51544e-22 8.7803 15.1666)
(1.41436e-22 8.75222 15.0953)
(1.59579e-22 8.74564 15.1081)
(-9.67793e-22 8.75084 15.1091)
(-8.5369e-22 8.74601 15.1146)
(-8.60412e-22 8.74766 15.117)
(-8.31709e-22 8.7452 15.1216)
(-8.14119e-22 8.74554 15.1249)
(-7.88403e-22 8.74385 15.1295)
(-8.08148e-22 8.7443 15.133)
(-8.0367e-22 8.74232 15.1383)
(-8.0662e-22 8.74375 15.1417)
(-8.18353e-22 8.74117 15.1479)
(-7.90886e-22 8.74315 15.1514)
(-7.63697e-22 8.73922 15.1537)
(-7.99045e-22 8.77022 15.2133)
(-8.59938e-22 9.13694 15.8513)
(-7.93542e-22 7.56 13.1816)
(2.14035e-24 7.69988 13.2645)
(-3.81455e-23 9.13992 15.7414)
(-3.57975e-23 8.75695 15.1265)
(-3.32031e-23 8.73877 15.0745)
(-3.76902e-23 8.73251 15.0858)
(2.25464e-22 8.73696 15.0868)
(1.95468e-22 8.73282 15.0919)
(1.93976e-22 8.73398 15.0945)
(1.92572e-22 8.73205 15.0987)
(1.88364e-22 8.73206 15.1021)
(1.83416e-22 8.73077 15.1064)
(1.88028e-22 8.731 15.1099)
(1.8944e-22 8.72928 15.115)
(1.86521e-22 8.73076 15.1183)
(1.88619e-22 8.72791 15.1246)
(1.82797e-22 8.73088 15.1275)
(1.75508e-22 8.726 15.1316)
(1.8544e-22 8.75007 15.1733)
(2.01654e-22 9.0742 15.7438)
(1.78971e-22 7.73531 13.4819)
(-5.2678e-25 7.87976 13.5702)
(8.91223e-24 9.0725 15.6298)
(8.47855e-24 8.73614 15.0909)
(7.89463e-24 8.72618 15.055)
(9.00957e-24 8.72014 15.0647)
(-5.24584e-23 8.72388 15.0658)
(-4.51008e-23 8.72045 15.0704)
(-4.41151e-23 8.7211 15.0731)
(-4.44874e-23 8.71966 15.077)
(-4.39861e-23 8.71937 15.0804)
(-4.29429e-23 8.71842 15.0844)
(-4.37684e-23 8.71839 15.088)
(-4.42895e-23 8.71701 15.0927)
(-4.31022e-23 8.71831 15.096)
(-4.33804e-23 8.71547 15.1022)
(-4.24869e-23 8.71909 15.1046)
(-4.05772e-23 8.7134 15.1105)
(-4.31027e-23 8.73225 15.1373)
(-4.74091e-23 9.00612 15.6274)
(-4.05278e-23 7.90969 13.7798)
(1.30441e-25 8.05937 13.8752)
(-2.10256e-24 8.99947 15.5081)
(-2.0198e-24 8.7178 15.0597)
(-1.89925e-24 8.71455 15.0366)
(-2.16959e-24 8.70877 15.0447)
(1.22234e-23 8.71173 15.0461)
(1.05199e-23 8.70916 15.0501)
(1.01615e-23 8.70929 15.053)
(1.02953e-23 8.7083 15.0564)
(1.03802e-23 8.7078 15.0598)
(1.01269e-23 8.70711 15.0635)
(1.02446e-23 8.70685 15.0672)
(1.03303e-23 8.70587 15.0715)
(1.00555e-23 8.70673 15.0749)
(1.00518e-23 8.70427 15.0809)
(1.00051e-23 8.70799 15.0831)
(9.52117e-24 8.70175 15.0903)
(1.00732e-23 8.71697 15.1052)
(1.12029e-23 8.93308 15.5027)
(9.24549e-24 8.08318 14.0752)
(-3.23217e-26 8.23966 14.1804)
(4.99239e-25 8.92059 15.3748)
(4.83789e-25 8.70165 15.0324)
(4.60394e-25 8.70362 15.0189)
(5.2472e-25 8.6985 15.0253)
(-2.85856e-24 8.70034 15.0269)
(-2.48027e-24 8.69872 15.0302)
(-2.37016e-24 8.69839 15.033)
(-2.39797e-24 8.6977 15.0361)
(-2.46933e-24 8.69712 15.0394)
(-2.40328e-24 8.69657 15.0428)
(-2.41487e-24 8.69617 15.0463)
(-2.41941e-24 8.69556 15.0503)
(-2.38283e-24 8.69586 15.054)
(-2.35878e-24 8.69426 15.0594)
(-2.39075e-24 8.69725 15.0619)
(-2.27434e-24 8.69129 15.07)
(-2.37115e-24 8.70425 15.0762)
(-2.66479e-24 8.85558 15.3705)
(-2.12998e-24 8.25515 14.3662)
(8.05523e-27 8.42319 14.4926)
(-1.19909e-25 8.83808 15.2311)
(-1.17485e-25 8.69069 15.012)
(-1.13295e-25 8.69522 15.0051)
(-1.28567e-25 8.69182 15.0089)
(6.79573e-25 8.69212 15.0105)
(5.95989e-25 8.69115 15.0126)
(5.64713e-25 8.69035 15.0148)
(5.70125e-25 8.68951 15.0171)
(5.96365e-25 8.68862 15.0197)
(5.79387e-25 8.68775 15.0224)
(5.7855e-25 8.68688 15.0254)
(5.77664e-25 8.68604 15.0287)
(5.79642e-25 8.68543 15.0321)
(5.66684e-25 8.68433 15.0364)
(5.8368e-25 8.68532 15.0397)
(5.56939e-25 8.68103 15.0469)
(5.67793e-25 8.69107 15.0483)
(6.44637e-25 8.77264 15.2324)
(5.00604e-25 8.42326 14.6449)
(-1.6833e-27 8.61058 14.8239)
(2.40649e-26 8.7527 15.0801)
(2.39874e-26 8.69281 15.0032)
(2.34014e-26 8.695 15.0014)
(2.66758e-26 8.69441 15.0021)
(-1.36379e-25 8.69407 15.0026)
(-1.21944e-25 8.69366 15.0031)
(-1.14853e-25 8.69304 15.0038)
(-1.16099e-25 8.69232 15.0046)
(-1.21676e-25 8.69143 15.0056)
(-1.18474e-25 8.69038 15.0067)
(-1.17485e-25 8.68914 15.008)
(-1.17849e-25 8.68772 15.0095)
(-1.20093e-25 8.68604 15.0113)
(-1.1623e-25 8.68416 15.0133)
(-1.20409e-25 8.68208 15.0156)
(-1.1569e-25 8.67892 15.0189)
(-1.1565e-25 8.67938 15.02)
(-1.32812e-25 8.69418 15.0844)
(-1.00224e-25 8.5934 14.8933)
(7.62728e-26 -2.62834 17.0728)
(2.1101e-25 -8.04623 13.7292)
(-6.48401e-25 -5.17537 14.5847)
(-4.21719e-24 -4.96909 14.2057)
(-1.01891e-23 -4.03707 14.176)
(-1.45907e-23 -3.45819 14.0135)
(-1.32405e-23 -2.8682 13.8672)
(-8.18564e-24 -2.38148 13.6886)
(-7.4261e-24 -1.95608 13.4924)
(-1.07521e-23 -1.60408 13.2745)
(1.31265e-23 -1.32251 13.0393)
(1.39823e-22 -1.11771 12.7957)
(4.6579e-22 -0.998516 12.5629)
(1.02542e-21 -0.987815 12.3544)
(1.67888e-21 -1.11094 12.152)
(2.10509e-21 -1.32981 11.9078)
(2.02557e-21 -1.66861 11.4743)
(1.48668e-21 -2.42224 10.4859)
(8.19302e-22 -2.72314 8.97094)
(2.8101e-22 0.103297 6.79731)
(7.0991e-26 -11.2937 28.6823)
(-2.26133e-25 -17.0995 25.22)
(-1.68578e-24 -12.102 25.6035)
(1.53524e-24 -12.7176 23.9175)
(2.57536e-23 -10.9816 23.1853)
(8.16746e-23 -10.3002 22.1154)
(1.50818e-22 -9.29809 21.2139)
(1.94842e-22 -8.50911 20.276)
(2.00545e-22 -7.72482 19.3728)
(2.18168e-22 -7.02053 18.4742)
(3.13364e-22 -6.36392 17.5864)
(3.98072e-22 -5.75154 16.6834)
(5.50375e-24 -5.13393 15.6859)
(-1.75256e-21 -4.41249 14.3975)
(-5.73191e-21 -3.43232 12.494)
(-1.18753e-20 -2.06047 9.6516)
(-1.86765e-20 -0.373105 5.81461)
(-2.35624e-20 1.31384 1.46898)
(-2.38268e-20 2.52672 -2.11745)
(-1.90124e-20 1.92291 -3.2923)
(-4.73639e-26 -14.2815 30.8704)
(-1.72657e-24 -18.3519 27.8348)
(-3.92556e-24 -13.5762 27.7648)
(1.37333e-23 -14.6329 25.3326)
(9.15165e-23 -12.5355 24.3898)
(2.46748e-22 -12.1583 22.7532)
(4.20506e-22 -11.0826 21.5242)
(5.06515e-22 -10.4235 20.1755)
(4.50262e-22 -9.67087 18.9374)
(3.43493e-22 -9.0398 17.6949)
(3.42257e-22 -8.42644 16.4876)
(3.93294e-22 -7.85845 15.271)
(-8.94346e-23 -7.26312 13.965)
(-2.29922e-21 -6.50815 12.3325)
(-7.4721e-21 -5.32261 9.98083)
(-1.56321e-20 -3.45144 6.41977)
(-2.44325e-20 -0.518535 1.55769)
(-1.6771e-20 2.10025 -4.49084)
(-3.13683e-21 3.62234 -5.00761)
(-3.23622e-20 2.82246 -6.95675)
(8.56761e-27 -15.113 30.6809)
(-1.88907e-24 -18.7253 28.2396)