/*--------------------------------*- C++ -*----------------------------------*\
| =========                 |                                                 |
| \\      /  F ield         | OpenFOAM: The Open Source CFD Toolbox           |
|  \\    /   O peration     | Version:  4.1                                   |
|   \\  /    A nd           | Web:      www.OpenFOAM.org                      |
|    \\/     M anipulation  |                                                 |
\*---------------------------------------------------------------------------*/
FoamFile
{
    version     2.0;
    format      ascii;
    class       volScalarField;
    location    "10";
    object      p;
}
// * * * * * * * * * * * * * * * * * * * * * * * * * * * * * * * * * * * * * //

dimensions      [0 2 -2 0 0 0 0];

internalField   nonuniform List<scalar> 
1280
(
-0.162969
-0.0131024
-0.263142
-0.572821
-0.249259
-0.78168
-1.29212
-1.3549
-1.18608
-2.12475
-3.42427
-3.09118
-5.15627
-7.89135
-7.48167
-12.5131
-18.5649
-18.38
-28.6649
-39.2836
-35.9605
-25.7094
-6.56315
11.7369
22.5942
30.6179
30.6026
10.8888
16.3512
14.9183
12.6163
10.3754
7.06901
3.05917
-1.3644
-6.0566
-10.7281
-15.2518
-18.9286
-24.958
-2.594
-3.22033
-0.842368
5.60275
22.3927
20.0753
20.695
21.498
24.2967
24.2674
24.2418
24.1932
21.1809
20.3432
19.7882
22.394
5.14415
-1.14923
-3.54321
-3.88683
-22.308
-15.8994
-12.1054
-7.38978
-2.55672
2.30005
6.88698
11.0558
14.5297
16.9709
19.4068
20.9207
16.099
38.6347
37.1457
28.4923
17.1739
-1.49809
-20.8406
-31.1307
-34.0701
-22.7284
-14.983
-14.4888
-8.70543
-4.44577
-3.35953
-1.23335
0.516066
1.06346
1.58158
1.8837
1.88698
1.79289
1.79832
1.61048
0.789103
0.454529
0.0468899
0.404963
0.128609
0.0597381
0.000172587
-0.649057
-1.86325
-2.38289
-3.15521
-1.18634
-1.06284
-0.134046
1.89917
3.81564
4.234
2.1269
0.286962
-0.387767
-0.547515
-0.410217
0.196481
0.222128
0.208345
-0.328688
-1.43936
-3.76211
-3.12861
-3.26739
0.631233
0.441173
2.1513
5.63726
9.10742
10.1168
5.82534
1.28462
-1.57339
-2.37779
-1.42188
0.611383
0.120437
0.272218
-0.535565
-1.97074
-5.04966
-3.80748
-2.71872
1.7634
0.919866
3.08286
7.3171
12.0309
14.577
9.14592
2.25225
-3.90111
-5.79059
-3.16443
1.01151
0.0793629
0.328768
-0.887141
-2.46086
-5.58932
-5.35468
-1.58395
2.429
1.00247
3.67605
8.80497
15.1719
19.5976
13.2342
3.10335
-7.70765
-10.6239
-5.26775
1.62932
-0.175658
0.333666
-1.40817
-3.35162
-6.25886
-6.61019
-0.525601
4.3307
0.853002
4.21062
10.2191
18.3681
24.1957
17.343
3.3138
-13.6678
-19.0171
-9.54261
1.77154
-0.511618
0.302417
-2.23755
-5.1946
-8.20565
-8.06522
0.101328
6.22147
-0.748707
4.62343
11.0938
20.9813
26.6921
20.5626
4.22072
-17.5488
-22.6462
-11.7707
2.92841
-0.925822
0.196199
-3.53156
-8.39086
-12.4211
-12.1923
-1.13647
6.0272
-0.432166
4.32203
11.4911
22.6647
27.4432
22.4259
5.8167
-18.0708
-24.1532
-12.5617
0.908338
-1.33219
-0.0320978
-5.45413
-12.8733
-17.6845
-16.9516
-3.98328
4.83528
1.14624
3.37488
11.2529
23.512
26.4321
22.875
7.9549
-12.4106
-20.2956
-8.18783
-2.03484
-1.67003
-0.628339
-7.83599
-17.048
-21.4379
-18.2354
-5.02904
2.79959
1.55291
1.83014
9.93131
22.0859
23.7063
20.5555
8.69795
-4.05187
-8.63478
6.91053
37.959
-1.75901
-1.72501
-10.1035
-18.3649
-22.4506
-16.3757
-4.47563
0.217475
1.34537
-0.878443
7.55182
17.4568
17.8289
15.4871
8.90786
0.755527
-1.61934
12.6338
36.4824
-1.53367
-2.97788
-11.7826
-17.6267
-21.1457
-13.0232
-3.30697
-0.82309
1.63043
-2.81083
4.83653
12.988
13.9586
12.4591
9.31851
2.6817
0.0144341
12.7048
35.9899
-1.09517
-3.96873
-12.1749
-16.7579
-17.9205
-9.02129
-1.60469
0.770568
2.13944
-3.26738
1.9361
7.74033
5.9014
4.48852
8.10595
5.6483
3.25853
12.9624
38.4555
-0.413292
-4.05329
-10.2854
-15.773
-13.6291
-5.12473
0.397777
3.84794
2.07925
-2.67546
-0.519197
1.46966
-3.25735
-0.0384478
6.5882
7.23851
4.22978
4.71469
-1.64623
0.446681
-3.44866
-7.56461
-13.364
-9.22722
-2.07838
1.84221
5.85418
2.12395
-0.869983
-1.43812
-3.71714
-5.71591
-1.13722
6.15898
6.58808
2.71137
2.70974
-1.95348
1.113
-2.45049
-5.69669
-9.61955
-5.31247
-0.486239
2.83696
5.7138
2.83724
1.12554
-1.46623
-8.15501
-5.50085
-4.93743
5.15805
6.15828
3.32697
2.76731
0.598187
1.32217
-1.49829
-4.32071
-5.99993
-2.34349
0.23602
3.86252
4.56266
3.25012
1.99722
-2.2336
-12.3474
-6.68653
-5.06238
4.20005
5.00599
2.71215
1.4255
1.74717
1.27447
-1.02497
-2.87906
-3.25929
-0.465924
0.565998
4.40729
3.64106
3.08207
1.95594
-3.01765
-13.7825
-9.74576
-4.39975
3.10852
3.93381
2.39339
1.30027
1.44123
0.970204
-0.89355
-1.97063
-2.04336
0.727011
0.781435
4.13532
2.89178
2.38738
1.11441
-3.53934
-11.1441
-11.8577
-3.89304
2.12216
2.80004
1.73952
0.84852
1.0556
0.56178
-0.778297
-1.61497
-1.48282
1.55541
0.80175
2.46296
1.64823
1.68893
0.94593
-2.3946
-6.05799
-12.1358
-3.64923
1.20037
1.85386
1.24117
0.699254
0.734703
0.124755
-0.642953
-1.08152
-0.937972
1.18233
0.565763
1.35111
0.991943
0.337525
-0.485344
-1.91148
-2.2756
-8.27524
-2.64375
0.66376
0.917099
0.575326
0.306384
0.41068
-25.9414
-27.7393
-29.4551
-31.5064
-35.0487
-39.1964
-44.3867
-49.0164
-52.5876
-54.7425
-55.6834
-55.4849
-54.2909
-52.2987
-49.7063
-46.6857
-43.8822
-41.4565
-39.896
-37.7136
-9.76563
-16.2211
-21.665
-26.3908
-31.384
-37.1895
-43.4405
-49.9535
-56.3468
-62.2474
-67.3184
-71.3753
-74.2458
-75.8181
-75.9449
-74.7202
-72.6137
-70.4287
-69.1887
-69.2668
55.8781
51.0886
46.9257
43.109
40.0549
37.3203
34.7778
32.217
29.6372
26.8396
23.7761
20.3719
16.6971
12.9934
9.6825
7.09571
5.57895
5.86577
6.41549
2.12468
63.9608
64.4367
63.9861
63.7393
62.8092
61.4854
59.7369
57.4204
54.6356
51.3446
47.6593
43.6367
39.3152
34.8784
30.7897
27.636
25.749
24.7956
25.1538
23.3282
45.2649
47.7728
49.1126
50.8351
52.3638
53.8014
55.3031
56.5367
57.5279
57.9944
57.7775
56.7354
54.8401
52.306
49.8357
48.0554
47.7121
48.1611
48.9397
48.326
25.6837
27.9357
29.2905
30.5927
31.9934
33.0241
34.3028
35.3984
36.5865
37.7803
39.0164
40.2804
41.5695
42.8592
44.1641
45.5182
46.8818
48.3328
49.3156
50.5003
5.2893
7.6882
9.4562
10.7906
12.5562
13.7177
15.2379
16.4651
17.7479
18.9504
20.1207
21.2751
22.4191
23.5906
24.7845
26.0832
27.3791
28.9045
30.0323
31.7253
-15.6177
-13.3447
-11.3446
-10.198
-7.98879
-6.71939
-4.75891
-3.19004
-1.4453
0.214062
1.85188
3.45353
4.99772
6.51321
7.96499
9.44
10.8031
12.3407
13.4514
15.2198
-45.5093
-44.7763
-42.913
-42.7957
-40.6474
-40.0457
-38.1406
-36.8608
-35.0517
-33.2922
-31.3236
-29.24
-27.0474
-24.7553
-22.4469
-20.051
-17.7284
-15.0821
-12.908
-9.53171
-63.9151
-67.3975
-67.0586
-69.7886
-69.9511
-72.3774
-73.1623
-75.1033
-76.1911
-77.4731
-78.0977
-78.264
-77.7284
-76.558
-74.8006
-72.5034
-70.0745
-67.3976
-65.3366
-61.1941
-33.4227
-39.3272
-40.306
-44.9531
-46.9168
-51.2508
-54.1621
-58.4697
-62.1725
-66.4841
-70.3966
-74.2357
-77.5812
-80.4535
-82.545
-83.994
-84.7385
-84.4983
-84.7322
-82.8437
20.807
16.4346
16.0909
12.1958
11.3395
7.93434
6.397
3.47144
1.44716
-1.07865
-3.14787
-5.25302
-7.1304
-8.99691
-10.7275
-12.3959
-13.9965
-15.0082
-16.8273
-20.9977
46.343
46.0757
47.6686
46.3802
48.4445
47.407
48.6686
47.9584
48.0098
47.0099
45.8932
44.1299
41.9579
39.3368
36.4623
33.5089
30.9113
29.4209
28.9242
26.3003
21.9107
23.3374
26.2891
25.8014
29.2869
29.3829
32.0441
33.166
35.1872
36.7997
38.4823
39.8504
40.8158
41.1796
40.8563
39.8682
38.8875
38.5341
39.1915
39.893
-1.65446
-1.16752
2.78827
1.5909
5.78621
5.67968
8.53553
9.7752
11.7738
13.5232
15.3285
17.1481
18.9745
20.8444
22.7514
24.721
26.6429
28.6973
30.3813
32.5236
-31.6476
-33.6696
-30.167
-33.2185
-29.699
-31.1822
-29.1608
-28.8731
-27.541
-26.395
-24.9921
-23.4652
-21.8028
-19.9738
-17.9979
-15.7241
-13.3533
-10.618
-8.19763
-4.50533
-18.2308
-23.3022
-21.4367
-28.4491
-28.6992
-33.8322
-36.2151
-40.0394
-43.0148
-46.1542
-48.9584
-51.5515
-53.781
-55.4636
-56.3316
-55.9714
-54.8976
-53.4061
-52.5278
-49.8991
-0.958045
-8.99998
-1.50418
-9.37478
-8.24982
-12.5901
-14.8956
-18.5378
-21.9502
-25.715
-29.5208
-33.4238
-37.2551
-40.8033
-43.6944
-45.392
-45.9173
-46.3273
-47.5149
-47.0339
23.3484
0.557796
8.72814
-2.45325
-5.12544
-11.774
-16.633
-21.818
-26.2432
-30.1448
-33.265
-35.5468
-36.8656
-37.1064
-36.0321
-33.5359
-30.2337
-26.6904
-23.8021
-22.932
705.835
623.325
574.397
518.304
469.418
422.199
378.261
336.716
297.577
260.559
225.499
192.215
160.542
130.492
102.208
74.9393
48.7905
27.7384
3.61237
-33.4754
715.295
632.786
583.858
527.767
478.881
431.662
387.724
346.18
307.041
270.023
234.963
201.679
170.006
139.955
111.671
84.4015
58.251
37.1964
13.0693
-24.0177
32.8225
10.0325
18.2031
7.02211
4.35031
-2.29787
-7.1565
-12.3413
-16.7662
-20.6677
-23.7878
-26.0696
-27.3884
-27.6291
-26.5539
-24.0574
-20.756
-17.2116
-14.3222
-13.4527
8.51729
0.474816
7.97006
0.0989043
1.22344
-3.11747
-5.42346
-9.06626
-12.4793
-16.2447
-20.0511
-23.9546
-27.7861
-31.3342
-34.2243
-35.9209
-36.4472
-36.8592
-38.0492
-37.5711
-8.77908
-13.8534
-11.9893
-19.0036
-19.2559
-24.3906
-26.7759
-30.6024
-33.5801
-36.722
-39.5288
-42.1247
-44.3569
-46.0418
-46.9118
-46.5535
-45.4834
-43.9959
-43.1205
-40.4949
-22.2413
-24.2663
-20.7656
-23.8189
-20.3021
-21.7875
-19.7686
-19.4841
-18.1547
-17.0119
-15.6122
-14.0886
-12.4295
-10.6035
-8.63012
-6.35813
-3.98862
-1.25347
1.16653
4.85893
7.73698
8.22248
12.1784
10.9804
15.1755
15.0687
17.9244
19.1644
21.1636
22.914
24.7208
26.5424
28.371
30.2432
32.1515
34.1218
36.0434
38.0975
39.7817
41.9263
31.326
32.7542
35.7089
35.2221
38.7108
38.8088
41.4722
42.5958
44.6177
46.2301
47.9108
49.2761
50.2375
50.596
50.2679
49.2776
48.3002
47.9569
48.6208
49.3254
55.7505
55.4906
57.0849
55.7992
57.8643
56.8282
58.0894
57.3794
57.4297
56.4287
55.3102
53.5465
51.3755
48.758
45.8905
42.9466
40.3582
38.872
38.3786
35.7639
30.3678
26.0046
25.664
21.7751
20.925
17.5264
15.9963
13.0781
11.0614
8.5427
6.47911
4.3775
2.50032
0.629277
-1.11184
-2.78839
-4.388
-5.39497
-7.20754
-11.3885
-23.8994
-29.8111
-30.7942
-35.4481
-37.4186
-41.7601
-44.6791
-48.9944
-52.7053
-57.0242
-60.9427
-64.7859
-68.1313
-71.0056
-73.0941
-74.5275
-75.2615
-75.0119
-75.2466
-73.3707
-54.5348
-58.0317
-57.6968
-60.4332
-60.6018
-63.0339
-63.8244
-65.7699
-66.8609
-68.1443
-68.7681
-68.9322
-68.3928
-67.2203
-65.463
-63.1656
-60.7382
-58.0657
-56.0083
-51.8642
-36.176
-35.4495
-33.5843
-33.4679
-31.3184
-30.7165
-28.8099
-27.5293
-25.7186
-23.9579
-21.9878
-19.9032
-17.71
-15.4175
-13.1086
-10.7128
-8.38894
-5.73864
-3.5603
-0.17852
-6.2333
-3.95757
-1.95273
-0.803016
1.41071
2.68377
4.64862
6.22141
7.97015
9.63323
11.2745
12.8794
14.4265
15.9447
17.3992
18.8766
20.2419
21.7815
22.8933
24.663
14.7243
17.1215
18.8893
20.2224
21.9873
23.1477
24.6669
25.893
27.1749
28.3764
29.5459
30.6995
31.8425
33.013
34.2052
35.5016
36.7945
38.3166
39.4412
41.1305
35.0314
37.2858
38.6439
39.9482
41.3524
42.3863
43.6689
44.7685
45.9606
47.1585
48.3974
49.6633
50.9537
52.2432
53.5495
54.9063
56.2728
57.7293
58.7169
59.9061
54.7591
57.2637
58.5999
60.3162
61.8383
63.2659
64.7554
65.9753
66.9524
67.4045
67.1775
66.1359
64.2532
61.7526
59.3294
57.5917
57.288
57.766
58.5526
57.9457
73.197
73.6709
73.203
72.9513
72.0121
70.6813
68.9305
66.6209
63.8556
60.6017
56.9745
53.0258
48.7928
44.4585
40.4675
37.3903
35.5524
34.6067
34.9457
33.1143
65.8267
61.0574
56.8584
53.0218
49.9451
47.2052
44.6655
42.1135
39.5414
36.7412
33.6557
30.2054
26.4641
22.6767
19.2644
16.5731
14.9635
15.1611
15.681
11.417
0.797998
-5.54751
-11.0347
-15.761
-20.7368
-26.519
-32.749
-39.2592
-45.6741
-51.609
-56.713
-60.7948
-63.6797
-65.2586
-65.3928
-64.1705
-62.054
-59.8348
-58.5413
-58.6702
-13.1185
-14.9539
-16.8905
-19.1686
-22.9492
-27.3498
-32.7581
-37.5978
-41.4109
-43.7686
-44.8646
-44.7933
-43.7108
-41.8208
-39.3279
-36.4081
-33.6992
-31.3838
-29.9353
-27.9965
)
;

boundaryField
{
    outletWall
    {
        type            fixedValue;
        value           uniform 0;
    }
    fineWalls
    {
        type            zeroGradient;
    }
    fineFrontAndBack
    {
        type            zeroGradient;
    }
    fineplugLeft
    {
        type            cyclicAMI;
        value           nonuniform List<scalar> 
20
(
-35.1625
-35.7026
-36.2156
-37.2513
-38.5599
-40.0379
-41.2271
-42.0189
-42.3128
-42.0234
-40.8104
-38.7998
-37.0354
-35.8598
-25.2335
-23.5201
-22.8578
-24.8767
-27.3334
-27.9452
)
;
    }
    fineplugRight
    {
        type            cyclicAMI;
        value           nonuniform List<scalar> 
20
(
-26.8588
-27.1282
-27.5282
-28.4373
-29.6378
-31.0023
-32.0793
-32.7575
-32.9287
-32.4975
-31.1335
-28.9446
-26.8584
-24.6401
-14.4507
-12.6609
-11.9001
-13.812
-16.1313
-16.7209
)
;
    }
    inletOutletLeft
    {
        type            cyclicAMI;
        value           nonuniform List<scalar> 
20
(
-35.1625
-35.7026
-36.2156
-37.2513
-38.5599
-40.0379
-41.2271
-42.0189
-42.3128
-42.0234
-40.8104
-38.7998
-37.0354
-35.8598
-25.2335
-23.5201
-22.8578
-24.8767
-27.3334
-27.9452
)
;
    }
    inletLeft
    {
        type            zeroGradient;
    }
    inletWallsLeft
    {
        type            zeroGradient;
    }
    inletFacesLeft
    {
        type            zeroGradient;
    }
    inletOutletRight
    {
        type            cyclicAMI;
        value           nonuniform List<scalar> 
20
(
-26.8588
-27.1282
-27.5282
-28.4373
-29.6378
-31.0023
-32.0793
-32.7575
-32.9287
-32.4975
-31.1335
-28.9446
-26.8584
-24.6401
-14.4507
-12.6609
-11.9001
-13.812
-16.1313
-16.7209
)
;
    }
    inletRight
    {
        type            zeroGradient;
    }
    inletWallsRight
    {
        type            zeroGradient;
    }
    inletFacesRight
    {
        type            zeroGradient;
    }
}


// ************************************************************************* //
