/*--------------------------------*- C++ -*----------------------------------*\
| =========                 |                                                 |
| \\      /  F ield         | OpenFOAM: The Open Source CFD Toolbox           |
|  \\    /   O peration     | Version:  4.1                                   |
|   \\  /    A nd           | Web:      www.OpenFOAM.org                      |
|    \\/     M anipulation  |                                                 |
\*---------------------------------------------------------------------------*/
FoamFile
{
    version     2.0;
    format      ascii;
    class       surfaceScalarField;
    location    "10";
    object      phi;
}
// * * * * * * * * * * * * * * * * * * * * * * * * * * * * * * * * * * * * * //

dimensions      [0 3 -1 0 0 0 0];

internalField   nonuniform List<scalar> 
2360
(
2193.04
2953.7
-760.655
2953.7
2953.7
4067.59
-1113.89
4067.59
4067.59
4067.59
5661.44
-1593.85
5661.44
5661.44
7954.85
-2293.41
7954.85
7954.85
11453.7
-3498.85
11453.7
11453.7
16210.7
-4757
16210.7
16210.7
16541.7
17617
19243.9
21110.6
22975
24726.3
19502
6871.83
20987.9
22338.7
23555.1
24638.4
25589.5
26410.9
27105.7
27678.5
28136.6
28492.2
28749.5
28897.8
28838.8
15549.6
13289.2
15549.6
15549.6
15549.6
3907.97
11641.7
3907.97
3907.97
3907.97
-2.78868
3910.77
-2.78199
-2.77888
-4341.56
4338.78
-4341.56
-4341.56
-4341.56
-16125.6
11784
-16125.6
-16125.6
-16125.6
-29315.5
13190
-29354.2
-29189.5
-28920.7
-28556.2
-28090.5
-27511.3
-26811.2
-25985.6
-25031.4
-23946
-22728.6
-21378
-19893.7
-24579.9
6331.44
-22831.5
-20972.3
-19115.1
-17504.9
-16454.6
-16147
-16147
-16147
-10468.3
-5678.63
-10468.3
-10468.3
-5843.44
-4624.91
-5843.44
-5843.44
-2192.82
-3650.62
-2192.82
-2192.82
946.973
-3139.79
946.973
946.973
946.973
3612.96
-2665.99
3612.96
3612.96
5908.97
-2296.01
-4533.57
-2258.58
-4714.29
-6221.3
-5068.35
-7084.72
-4977.91
-7602.39
-3868.94
-4500.94
-2492.99
3562.44
-1693.02
8435.69
-1006.46
10812.7
-408.323
12707.2
107.646
14118.9
544.207
13811.5
957.144
11647.3
1522.29
7014.12
2280.8
-1104.97
2980.4
-3652.82
3173.55
-2394.12
2903.08
777.301
2606.18
2231.49
991.945
-5126.49
-2136.54
-5547.66
-5800.12
-6121.7
-6510.68
-6300.59
-7423.5
-5048.33
-5753.2
-2875.15
1389.26
-1762.4
7322.94
-1067.46
10117.8
-525.05
12164.8
-68.105
13662
340.096
13403.3
846.256
11141.2
1935.71
5924.66
3204.35
-2373.61
4308.47
-4756.94
4655.47
-2741.12
4102.68
1330.09
3233.18
3100.99
1559.14
-5651.56
-1916.4
-6190.37
-5261.31
-7001.97
-5699.08
-7705.85
-6719.62
-7073.57
-6385.48
-4289.85
-1394.46
-2100.95
5134.04
-1152.31
9169.12
-708.079
11720.5
-319.92
13273.8
16.5995
13066.7
540.574
10617.2
2011.58
4453.66
3724.32
-4086.35
5223.01
-6255.63
5772.07
-3290.18
5076.2
2025.97
3871.82
4305.37
2291.16
-6230.01
-1575.93
-7034.88
-4456.44
-8324.86
-4409.11
-9720.03
-5324.44
-9835.97
-6269.54
-6864.17
-4366.26
-3077.53
1347.4
-1275.36
7366.95
-924.75
11369.9
-654.867
13003.9
-441.808
12853.7
32.8606
10142.5
1898.11
2588.41
3996.8
-6185.03
5785.33
-8044.16
6562.12
-4066.98
5885.41
2702.68
4541.61
5649.17
3182.15
-6908.26
-1018.32
-8115.17
-3249.52
-9989.75
-2534.52
-12136.7
-3177.54
-13202.9
-5203.31
-11007.1
-6562.02
-5535.04
-4124.69
-1528.38
3360.29
-1115.62
10957.2
-1079.08
12967.4
-1037.26
12811.9
-652.983
9758.27
1517.55
417.879
3332.63
-8000.12
4482.25
-9193.79
5527.44
-5112.16
5716.3
2513.82
5033.51
6331.96
3590.76
-7714.86
-158.383
-9414.67
-1549.72
-11825.3
-123.898
-14495.4
-507.402
-16205
-3493.78
-15189.9
-7577.13
-9906.07
-9408.48
-3202.39
-3343.39
-1204.16
8958.94
-1548.4
13311.6
-1753.86
13017.3
-1460.35
9464.76
276.228
-1318.7
36.5883
-7760.48
-507.178
-8650.02
699.31
-6318.65
2241.45
971.681
3759.48
4813.93
1671.6
-8525.24
1037.41
-10579.3
504.341
-13122.6
2419.4
-15683.9
2053.91
-16941
-2236.67
-15996.3
-8521.84
-12052.3
-13352.5
-5367.62
-10028.1
-1760.47
5351.79
-1921.7
13472.9
-2551.5
13647.1
-2472.49
9385.75
-3147.36
-643.831
-5474.92
-5432.92
-6653.06
-7471.88
-5251.59
-7720.12
-1712.6
-2567.31
-38.3254
3139.65
7964.72
-8870.69
2399.19
-10886
2519.63
-12966.3
4499.69
-14455.4
3543.01
-13962.5
-2729.54
-11844.8
-10639.5
-9000.16
-16197.1
-5548.97
-13479.3
-2856.57
2659.39
-2385.99
13002.3
-3377.92
14639
-4352.19
10360
-7479.83
2483.81
-10650.3
-2262.5
-12062
-6060.11
-12252.2
-7529.94
-11244.5
-3574.99
-11248.8
3143.91
9905.92
-8477.37
3750.72
-10240.8
4283.09
-11464.9
5723.8
-11102.3
3180.41
-8724.77
-5107.11
-6029.28
-13335
-4327.93
-17898.4
-4182.67
-13624.6
-3831.36
2308.08
-3330.81
12501.7
-4249.97
15558.2
-6415.09
12525.1
-10506.9
6575.59
-13260
490.61
-14453.5
-4866.61
-16152
-5831.43
-16988.8
-2738.16
-15644.6
1799.65
6045.37
-7517.56
5011.44
-8964.23
5729.76
-9212.39
5971.97
-7169.2
1137.22
-4223.43
-8052.89
-2374
-15184.4
-2269.52
-18002.9
-4262.97
-11631.1
-5054.7
3099.81
-4537.85
11984.9
-4971.12
15991.5
-7228.33
14782.3
-10311.3
9658.52
-11549.8
1729.13
-11732.3
-4684.11
-12301.1
-5262.64
-12158.2
-2881.04
-9912.13
-446.413
472.013
-6189.28
6095.51
-7244.46
6784.94
-6487.79
5215.29
-3548.34
-1802.24
-1268.57
-10332.7
-674.125
-15778.9
-2283.1
-16393.9
-5698.89
-8215.31
-6578.62
3979.54
-5786.04
11192.3
-5820.06
16025.5
-8135.76
17098.1
-11603.7
13126.5
-13514.1
3639.53
-14016.9
-4181.29
-14128.5
-5151.04
-12847.9
-4161.7
-9666.41
-3627.87
-5283.63
-4600.5
6890.85
-5182.06
7366.5
-3442.45
3475.69
-734.704
-4509.98
328.353
-11395.7
-91.5016
-15359
-3298.47
-13187
-7618.31
-3895.47
-8514.96
4876.19
-7747.79
10425.1
-7769.78
16047.5
-9886.37
19214.6
-12318.1
15558.2
-12076.7
3398.18
-12130.4
-4127.64
-14596.6
-2684.8
-15912
-2846.29
-15122
-4417.9
-8763.99
-3326.95
6997.24
-3137.55
7177.1
-914.939
1253.07
879.973
-6304.89
1013.54
-11529.3
-360.53
-13985
-4948.21
-8599.3
-9496.45
652.773
-10759.6
6139.32
-10700.5
10366.1
-10969.8
16316.8
-11831.6
20076.4
-10354.9
14081.6
-5247.48
-1709.28
-2906.31
-6468.81
-5137.37
-453.742
-7653.23
-330.424
-10526.3
-1544.87
-6001.05
-3661.88
5584.74
-1705.84
5221.06
513.767
-966.539
1533.43
-7324.56
1133.68
-11129.5
-1370.29
-11481
-6339.29
-3630.3
-10257.8
4571.3
-12127.7
8009.18
-13085.8
11324.2
-13443.3
16674.3
-12405.2
19038.3
-7689.29
9365.64
-3089.98
-6308.59
-1140.97
-8417.81
675.451
-2270.16
2553.5
-2208.47
1759.3
-750.671
2630.07
-3933.8
3075.97
-529.481
1816.74
1309.6
-2805.62
1635.71
-7650.67
513.77
-10007.6
-2810.03
-8157.2
-6891.99
451.656
-9709.35
7388.66
-11895.9
10195.7
-13451.3
12879.6
-13587.5
16810.6
-11002
16452.8
-5206.13
3569.75
-2074.76
-9439.96
-1162.4
-9330.17
829.293
-4261.86
1434.56
-2813.74
2705.97
-2022.08
579.046
-1880.33
488.51
1032.21
-1095.79
1646.79
-3420.2
1017.96
-7021.84
-751.561
-8238.06
-3998.76
-4910
-6668.8
3121.69
-8439.32
9159.18
-10380.8
12137.2
-11951.1
14449.9
-11739
16598.4
-8308.74
13022.6
-3044.23
-1694.76
-1139.01
-11345.2
-491.841
-9977.34
864.384
-5618.08
1389.83
-3339.19
2241.32
-2873.57
-678.482
-781.973
-1362.59
921.761
-2799.52
972.058
-3470.5
-99.4257
-5950.35
-1778.54
-6558.95
-4433.4
-2255.14
-6095.66
4783.95
-7055.54
10119.1
-8357.02
13438.7
-9528.97
15621.8
-9037.65
16107
-5356.2
9341.1
-1274.36
-5776.6
-288.629
-12330.9
113.244
-10379.2
973.917
-6478.76
1332.66
-3697.93
1661.51
-3202.42
-1310.38
-1255.31
-2322.83
-338.895
-3715.93
-248.038
-3561.36
-852.34
-5346.05
-1999.39
-5411.9
-4317.42
62.8902
-5492.85
5959.38
-5868.76
10495
-6417.77
13987.7
-6991.96
16196
-6369.76
15484.8
-3020.35
5991.69
-194.803
-8602.14
397.978
-12923.7
653.297
-10634.5
1086.64
-6912.1
1248.73
-3860.02
1313.52
-3267.21
-1590.71
-1454.34
-2841.07
-918.722
-4251.55
-691.963
-3788.12
-838.037
-5199.98
-1649.32
-4600.61
-3893.57
2307.14
-5087.59
7153.4
-5196.89
10604.3
-5067.55
13858.4
-4944.05
16072.5
-4122.85
14663.6
-1235.67
3104.5
538.899
-10376.7
904.285
-13289.1
1003.8
-10734
1112.06
-7020.36
1122.73
-3870.7
1127.26
-3271.74
-1577.34
-1626.47
-1195.03
-787.793
-575.882
-996.576
-2603.61
-3932.19
-4272.55
-3867.5
-3162.67
-2095.74
-101.035
949.507
1239.85
1166.07
1093.91
1033.09
1028.49
520.283
-851.315
1121.46
-1676.41
1500.93
-2006.41
1681.86
-2047.62
1769.7
-1952.29
1821.86
-1803.44
1810.79
-1636.41
1794.93
-1470.04
1751.8
-1307.68
1682.22
-1146.9
1585.52
-986.578
1461.27
-826.837
1308.07
-668.171
1120.95
-507.701
896.412
-348.289
649.238
-210.912
406.873
-113.206
193.114
-43.5838
52.7491
-7.94322
111.73
584.679
-1436
971.706
-2063.44
907.53
-1942.23
626.838
-1766.93
322.688
-1648.14
52.6603
-1533.42
-180.822
-1402.93
-394.23
-1256.63
-598.66
-1103.25
-798.943
-946.619
-995.196
-790.327
-1183.08
-638.957
-1355.19
-496.064
-1502.97
-359.916
-1612.53
-238.731
-1647.93
-175.511
-1539.91
-221.223
-1212.72
-370.777
-665.593
-555.069
-553.863
20.9996
-1457
-59.155
-1983.29
-269.308
-1732.08
-502.114
-1534.12
-736.95
-1413.31
-969.719
-1300.65
-1197.7
-1174.95
-1420.78
-1033.55
-1641.24
-882.785
-1860.34
-727.52
-2073.61
-577.056
-2266.19
-446.38
-2406.18
-356.077
-2442.06
-324.034
-2318.54
-362.251
-2008.35
-485.706
-1526.21
-703.359
-927.31
-969.678
-354.291
-1128.09
-908.154
-233.9
-1223.1
-294.525
-1922.66
-282.293
-1744.32
-300.618
-1515.8
-365.824
-1348.1
-445.316
-1221.16
-510.067
-1110.2
-549.223
-994.398
-559.629
-872.379
-543.073
-744.078
-504.752
-615.378
-452.586
-498.547
-393.522
-415.142
-320.758
-396.799
-217.983
-465.026
-82.8548
-620.835
44.1581
-830.372
98.5265
-1024.05
50.6079
-1080.17
-857.546
-137.505
-1085.6
-71.6429
-1988.53
54.689
-1870.65
139.74
-1600.85
203.832
-1412.19
264.044
-1281.37
336.6
-1182.76
432
-1089.8
558.207
-998.588
719.813
-905.686
914.584
-810.149
1128.44
-712.404
1329.21
-615.91
1468.1
-535.691
1494.75
-491.673
1376.4
-502.486
1113.77
-567.75
744.501
-654.773
349.642
-685.311
-507.904
-11.8417
-1073.75
28.5466
-2028.92
102.429
-1944.53
170.586
-1669.01
246.609
-1488.22
326.053
-1360.82
406.164
-1262.87
485.224
-1168.86
564.884
-1078.25
648.589
-989.391
740.326
-901.886
842.663
-814.741
953.645
-726.891
1056.26
-638.309
1118.27
-553.684
1098.03
-482.242
964.556
-434.274
711.262
-401.478
381.316
-355.363
-126.588
104.559
-1178.31
159.046
-2083.4
197.451
-1982.94
234.802
-1706.36
287.419
-1540.83
344.98
-1418.38
403.04
-1320.93
456.527
-1222.35
504.152
-1125.87
544.202
-1029.44
576.289
-933.973
601.212
-839.665
620.973
-746.651
636.859
-654.195
644.863
-561.688
629.587
-466.965
567.611
-372.298
434.32
-268.187
224.13
-145.171
97.5418
232.625
-1410.94
304.828
-2155.61
314.809
-1992.92
344.519
-1736.07
403.009
-1599.32
466.145
-1481.51
532.167
-1386.95
595.948
-1286.13
656.24
-1186.16
707.561
-1080.76
744.997
-971.409
763.809
-858.476
760.835
-743.678
734.461
-627.82
684.715
-511.942
610.915
-393.165
509.495
-270.879
369.06
-127.752
185.139
38.75
282.681
326.524
-1737.46
362.753
-2191.84
351.074
-1981.24
389.026
-1774.02
464.569
-1674.87
544.967
-1561.91
634.382
-1476.37
723.843
-1375.59
811.18
-1273.5
885.303
-1154.89
939.886
-1025.99
968.482
-887.072
967.992
-743.188
935.505
-595.333
867.468
-443.904
759.822
-285.52
610.071
-121.128
410.286
72.0344
206.173
242.864
488.854
275.894
-2013.36
209.181
-2125.12
180.154
-1952.21
207.076
-1800.94
261.483
-1729.27
323.313
-1623.74
400.192
-1553.25
479.993
-1455.39
557.508
-1351.02
616.533
-1213.91
649.813
-1059.27
650.697
-887.955
620.175
-712.666
557.714
-532.872
459.404
-345.594
331.007
-157.122
216.036
-6.15648
126.829
161.241
13.6115
356.081
502.465
49.2391
-2062.6
-95.6085
-1980.28
-170.661
-1877.16
-226.594
-1745.01
-275.547
-1680.32
-319.469
-1579.82
-356.396
-1516.32
-389.858
-1421.93
-424.053
-1316.82
-465.554
-1172.41
-519.147
-1005.68
-585.563
-821.54
-659.86
-638.37
-734.275
-458.457
-797.11
-282.76
-837.481
-116.752
-848.06
4.422
-768.456
81.6365
-513.451
101.075
-10.9855
-122.725
-1939.87
-235.908
-1867.09
-343.324
-1769.74
-469.369
-1618.96
-597.328
-1552.36
-738.566
-1438.58
-888.395
-1366.49
-1043.58
-1266.74
-1196.25
-1164.16
-1339.07
-1029.58
-1471.79
-872.96
-1594.56
-698.772
-1705.87
-527.059
-1793.44
-370.89
-1824.98
-251.213
-1747.84
-193.893
-1526.73
-216.688
-1117.94
-327.153
-526.725
-490.142
-537.71
-83.4774
-1856.39
-116.355
-1834.21
-170.148
-1715.95
-252.391
-1536.72
-334.682
-1470.07
-439.214
-1334.05
-556.261
-1249.44
-683.989
-1139.01
-806.053
-1042.1
-903.687
-931.948
-961.173
-815.475
-970.457
-689.488
-933.627
-563.889
-855.611
-448.905
-742.012
-364.813
-585.745
-350.16
-375.17
-427.262
-144.057
-558.267
6.22916
-640.427
-531.481
38.2843
-1894.67
77.4462
-1873.37
119.594
-1758.1
150.901
-1568.03
182.179
-1501.35
209.326
-1361.2
229.665
-1269.78
247.259
-1156.6
263.642
-1058.48
291.488
-959.791
342.399
-866.384
428.136
-775.224
549.933
-685.685
698.472
-597.443
845.983
-512.323
934.858
-439.035
895.41
-387.814
693.258
-356.115
364.842
-312.012
-166.639
80.9619
-1975.64
104.517
-1896.93
155.314
-1808.89
209.374
-1622.08
265.811
-1557.78
327.394
-1422.78
391.555
-1333.94
461.499
-1226.54
533.874
-1130.85
608.391
-1034.31
682.677
-940.669
755.403
-847.949
823.641
-753.922
880.85
-654.651
915.226
-546.698
904.122
-427.931
824.324
-308.016
642.267
-174.057
359.504
-29.2489
192.865
83.7324
-2059.37
80.3782
-1893.57
123.067
-1851.58
171.786
-1670.8
225.838
-1611.83
284.971
-1481.91
349.8
-1398.77
420.101
-1296.84
497.613
-1208.36
581.316
-1118.01
670.059
-1029.41
757.94
-935.83
834.349
-830.331
881.13
-701.432
873.546
-539.114
794.218
-348.603
662.651
-176.45
467.619
20.9738
250.57
187.799
443.436
-6.76787
-2052.6
-51.3724
-1848.97
-64.4568
-1838.5
-59.2378
-1676.02
-50.8435
-1620.23
-23.7025
-1509.05
10.678
-1433.15
59.033
-1345.2
118.619
-1267.95
190.815
-1190.2
273.971
-1112.57
362.607
-1024.46
443.21
-910.933
488.444
-746.666
456.763
-507.432
329.622
-221.462
169.794
-16.6197
74.5608
116.209
-7.96554
270.327
435.47
-183.741
-1868.86
-377.242
-1655.47
-536.592
-1679.15
-655.408
-1557.2
-764.677
-1510.96
-842.104
-1431.62
-905.888
-1369.37
-948.505
-1302.58
-975.714
-1240.74
-986.461
-1179.46
-981.87
-1117.16
-961.019
-1045.32
-921.64
-950.312
-857.114
-811.192
-756.726
-607.82
-619.072
-359.116
-484.392
-151.3
-360.891
-7.29189
-240.412
149.848
195.058
-223.384
-1645.47
-492.843
-1386.01
-775.869
-1396.12
-1020.99
-1312.09
-1258.28
-1273.66
-1466.09
-1223.81
-1653.43
-1182.03
-1816.23
-1139.78
-1957.37
-1099.6
-2076.56
-1060.27
-2172.32
-1021.4
-2237.04
-980.6
-2253.61
-933.735
-2189.44
-875.37
-1997.1
-800.152
-1650.32
-705.9
-1206.2
-595.416
-751.882
-461.613
-311.887
-290.147
-116.829
-670.474
-1081.48
-1502.6
-1839.69
-2138.35
-2387.17
-2594.19
-2758.97
-2883.57
-2968.84
-3015.24
-3020.84
-2979.57
-2879.94
-2705.09
-2435.99
-2056.41
-1543.02
-858.171
-670.46
1645.46
-1081.45
1385.99
-1502.55
1396.1
-1839.62
1312.07
-2138.27
1273.64
-2387.06
1223.79
-2594.06
1182
-2758.82
1139.75
-2883.4
1099.58
-2968.64
1060.24
-3015.02
1021.38
-3020.59
980.572
-2979.29
933.705
-2879.64
875.345
-2704.79
800.147
-2435.72
705.936
-2056.23
595.507
-1542.95
461.722
-858.168
290.217
116.832
-223.374
1868.83
-492.833
1655.45
-775.856
1679.13
-1020.98
1557.19
-1258.28
1510.94
-1466.09
1431.61
-1653.44
1369.36
-1816.27
1302.57
-1957.42
1240.74
-2076.64
1179.46
-2172.42
1117.15
-2237.14
1045.29
-2253.69
950.251
-2189.41
811.064
-1996.91
607.65
-1650.05
359.075
-1206.01
151.469
-751.688
7.3986
-311.716
-149.755
-194.885
-183.778
2052.61
-377.313
1848.98
-536.699
1838.51
-655.561
1676.05
-764.878
1620.26
-842.358
1509.09
-906.202
1433.2
-948.887
1345.26
-976.172
1268.02
-987.003
1190.29
-982.505
1112.65
-961.746
1024.53
-922.441
910.946
-857.932
746.554
-757.462
507.181
-619.655
221.267
-484.829
16.6428
-361.215
-116.216
-240.61
-270.36
-435.495
-6.83849
2059.45
-51.4865
1893.63
-64.628
1851.65
-59.4677
1670.89
-51.1353
1611.93
-24.0557
1482.01
10.2608
1398.88
58.5556
1296.96
118.079
1208.5
190.21
1118.16
273.296
1029.57
361.849
935.981
442.345
830.45
487.426
701.473
455.578
539.028
328.439
348.406
168.92
176.161
74.0349
-21.332
-8.2478
-188.078
-443.743
83.7324
1975.72
80.3316
1897.03
123
1808.98
171.702
1622.19
225.746
1557.88
284.873
1422.88
349.704
1334.05
420.009
1226.66
497.535
1130.97
581.262
1034.43
670.043
940.787
757.971
848.053
834.419
754.001
881.201
654.691
873.539
546.689
794.076
427.869
662.362
307.875
467.244
173.786
250.355
28.8107
-193.387
81.069
1894.65
104.58
1873.52
155.393
1758.17
209.478
1568.1
265.958
1501.4
327.569
1361.27
391.776
1269.84
461.756
1156.68
534.178
1058.55
608.73
959.877
683.033
866.483
755.738
775.349
823.908
685.831
880.994
597.604
915.177
512.507
903.896
439.15
824.019
387.753
641.996
355.808
359.329
311.477
165.942
38.4385
1856.21
77.6456
1834.31
119.891
1715.93
151.334
1536.66
182.75
1469.98
210.07
1333.95
230.607
1249.31
248.424
1138.86
265.045
1041.93
293.127
931.795
344.245
815.364
430.126
689.467
551.998
563.959
700.549
449.053
847.954
365.102
936.482
350.621
896.476
427.759
693.809
558.475
365.124
640.163
531.066
-83.1928
1939.4
-115.82
1866.94
-169.347
1769.45
-251.314
1618.63
-333.34
1552.01
-437.589
1438.2
-554.356
1366.07
-681.787
1266.29
-803.54
1163.68
-900.834
1029.09
-957.958
872.489
-966.878
698.388
-929.702
526.783
-851.392
370.744
-737.569
251.278
-581.205
194.258
-370.897
217.451
-140.819
328.397
7.81112
491.533
538.877
-123.037
2062.44
-236.101
1980
-343.607
1876.96
-469.82
1744.84
-597.956
1680.15
-739.436
1579.68
-889.536
1516.17
-1045.02
1421.78
-1197.95
1316.62
-1340.99
1172.13
-1473.84
1005.34
-1596.64
821.193
-1707.91
638.051
-1795.35
458.182
-1826.53
282.462
-1748.46
116.183
-1526.33
-4.67843
-1117.19
-80.7422
-525.925
-99.7314
12.9518
48.5415
2013.9
-96.3693
2124.91
-171.597
1952.19
-227.808
1801.05
-277.072
1729.41
-321.323
1623.93
-358.607
1553.46
-392.437
1455.61
-427.005
1351.18
-468.864
1213.99
-522.779
1059.25
-589.462
887.876
-663.972
712.561
-738.518
532.729
-801.414
345.358
-841.8
156.57
-852.348
5.87012
-771.719
-161.371
-515.13
-356.32
-502.178
275.577
1738.32
208.581
2191.91
179.472
1981.29
206.285
1774.23
260.542
1675.15
322.243
1562.23
398.987
1476.71
478.65
1375.94
555.996
1273.84
614.816
1155.17
647.87
1026.2
648.551
887.195
617.883
743.229
555.346
595.265
456.992
443.712
328.428
285.134
213.791
120.507
125.391
-72.9702
12.6526
-243.582
-489.526
326.777
1411.54
362.875
2155.81
351.148
1993.02
389.133
1736.25
464.726
1599.56
545.191
1481.76
634.692
1387.21
724.246
1286.39
811.667
1186.42
885.849
1080.98
940.462
971.584
969.077
858.581
968.612
743.694
936.141
627.736
868.105
511.748
760.382
392.857
610.421
270.469
410.257
127.194
206.163
-39.4879
-283.363
233.057
1178.49
305.297
2083.57
315.19
1983.13
344.897
1706.54
403.423
1541.04
466.593
1418.59
532.65
1321.16
596.467
1222.57
656.802
1126.08
708.166
1029.62
745.644
934.106
764.485
839.74
761.496
746.683
735.053
654.18
685.193
561.608
611.238
466.812
509.671
372.036
369.138
267.727
185.184
144.466
-98.179
104.958
1073.53
159.527
2029
197.806
1944.85
235.052
1669.3
287.584
1488.5
345.065
1361.11
403.058
1263.16
456.5
1169.13
504.083
1078.5
544.065
989.64
576.012
902.159
600.654
815.099
620.065
727.273
635.611
638.634
643.273
553.946
627.767
482.319
565.849
433.953
432.952
400.625
223.339
354.079
125.16
-11.2401
1084.77
29.0892
1988.68
102.757
1871.18
170.743
1601.31
246.647
1412.6
325.991
1281.77
405.966
1183.19
484.797
1090.3
564.09
999.206
647.316
906.414
738.534
810.942
840.558
713.076
951.36
616.471
1053.58
536.415
1115.35
492.175
1095.32
502.348
962.48
566.795
710.018
653.087
380.718
683.379
505.878
-137.043
1221.81
-71.168
1922.8
55.1612
1744.85
140.313
1516.16
204.657
1348.26
265.185
1221.24
337.992
1110.38
433.535
994.762
559.858
872.883
721.647
744.625
916.533
616.055
1130.24
499.365
1330.57
416.148
1469.12
397.858
1495.84
465.459
1377.72
620.471
1115.3
829.211
746.087
1022.3
351.117
1078.35
856.995
-232.101
1453.91
-291.975
1982.68
-278.848
1731.73
-295.293
1532.61
-358.36
1411.32
-435.763
1298.65
-498.45
1173.07
-535.476
1031.79
-543.576
880.982
-524.583
725.634
-484.022
575.495
-430.314
445.657
-370.324
356.159
-296.919
324.453
-194.601
363.141
-61.9828
487.853
60.2632
706.966
108.539
974.025
55.0254
1131.86
912.02
25.5805
1428.33
-50.7201
2058.98
-259.151
1940.16
-491.176
1764.63
-725.259
1645.41
-957.204
1530.59
-1184.36
1400.22
-1406.43
1253.87
-1625.66
1100.21
-1843.4
943.371
-2055.19
787.282
-2246.15
636.616
-2384.52
494.528
-2419.39
359.331
-2295.97
239.72
-1986.44
178.317
-1505.73
226.255
-911.515
379.814
-347.915
568.263
564.105
593.947
834.386
990.915
1662.01
932.26
1998.81
652.308
2044.59
346.609
1951.11
74.4171
1802.79
-160.767
1635.41
-375.538
1468.64
-581.564
1306.24
-783.724
1145.53
-981.998
985.555
-1171.91
826.527
-1346.14
668.754
-1496.18
509.378
-1607.81
351.347
-1644.44
214.948
-1536.55
118.369
-1210.03
53.29
-666.205
24.4369
-102.1
526.778
1138.42
1527.13
1714.48
1806.33
1860.75
1850.95
1835.25
1790.94
1719.01
1619.19
1491.49
1334.69
1143.98
916.076
665.29
419.215
203.732
63.4527
)
;

boundaryField
{
    outletWall
    {
        type            calculated;
        value           nonuniform List<scalar> 
60
(
5908.97
-681.778
-1934.59
-506.831
2200.96
2953.23
346.454
-7579.26
-12060.3
-14248
-14634.9
-13305.3
-11499.3
-9235.67
-4938.39
3391.98
7511.95
7438.78
6402.01
2211.55
1894.63
1972.58
2215.55
2633.07
4467.78
6442.57
5074.38
3220.56
3805.16
5105.21
6256.83
7125.85
7508.91
7329.44
6854.93
6350.64
5889.54
5431.41
5004.45
4580.61
-2193.04
-1309.51
-3267.13
-3809.88
-6948.2
-10660.3
-13579.4
-11427.2
1109.8
13596.7
15367.7
13453.3
10944.6
8481.98
3914.18
-4179.92
-5411.89
-4195.35
-4682.99
-3109.24
)
;
    }
    fineWalls
    {
        type            calculated;
        value           uniform 0;
    }
    fineFrontAndBack
    {
        type            calculated;
        value           nonuniform List<scalar> 
960
(
2.10588e-15
2.90702e-13
5.60207e-14
4.47457e-14
4.77846e-13
7.48534e-14
8.81392e-14
7.79643e-14
1.17888e-12
2.74674e-13
3.56716e-13
5.92479e-13
-4.84331e-13
-4.27962e-13
-4.56252e-12
-1.18952e-12
-1.10494e-12
-3.92781e-12
-6.8938e-13
-4.08287e-13
-2.56767e-13
-1.53576e-13
6.83223e-14
2.20344e-13
2.4675e-13
2.72454e-13
1.91632e-12
3.40998e-13
3.39636e-13
3.16335e-13
2.85811e-13
2.54336e-13
2.14195e-13
1.57501e-13
8.00571e-14
-1.37857e-14
-1.02457e-13
-2.29336e-13
-2.98614e-13
-5.04436e-13
-1.52284e-11
-2.16757e-12
-1.9474e-12
-1.8802e-12
-3.36502e-12
3.61854e-13
8.20237e-13
-1.60052e-12
7.92715e-11
6.90776e-11
1.69235e-11
2.05847e-11
4.35105e-13
9.25214e-13
9.19759e-13
7.00565e-12
1.40289e-12
1.51678e-12
1.71984e-12
1.12751e-11
3.34077e-13
1.08009e-13
8.7529e-15
-1.38965e-13
-2.48003e-13
-3.54562e-13
-4.51343e-13
-5.26892e-13
-5.77913e-13
-6.24571e-13
-6.5687e-13
-6.80293e-13
-6.94185e-13
-1.38343e-11
-7.42083e-13
-7.70548e-13
-7.74858e-13
-6.65418e-13
-4.68259e-13
-3.61448e-13
-2.33069e-12
-2.15748e-12
-1.17271e-11
-2.29527e-12
-2.21516e-12
-1.0293e-11
-1.36768e-12
-1.28397e-12
-6.58886e-12
-7.06214e-13
-3.9364e-13
-1.52478e-12
8.90176e-13
8.77968e-13
1.00406e-12
-3.70202e-12
-1.09505e-12
-1.03821e-12
-7.02592e-12
-2.98189e-12
1.52176e-10
-4.62919e-11
2.78041e-11
4.1548e-11
5.88452e-11
7.04193e-11
7.57591e-11
7.89482e-11
8.03083e-11
7.9372e-11
7.44367e-11
6.53159e-11
4.89819e-11
3.03354e-11
1.83519e-11
7.39817e-12
-1.39232e-12
-1.17335e-11
-2.00312e-11
9.28478e-11
-2.57566e-11
3.9058e-11
4.268e-11
5.2014e-11
6.78942e-11
7.67844e-11
7.9194e-11
8.02838e-11
7.93386e-11
7.44795e-11
6.55851e-11
5.01436e-11
3.64432e-11
2.42917e-11
1.3977e-11
4.85615e-12
-5.75545e-12
-1.63727e-11
5.90283e-11
-1.20736e-11
3.43492e-11
3.38593e-11
4.31348e-11
6.23344e-11
7.77502e-11
7.99098e-11
8.03399e-11
7.92061e-11
7.44345e-11
6.5727e-11
5.11102e-11
4.03926e-11
2.71067e-11
1.6302e-11
8.15903e-12
-1.47663e-12
-1.37529e-11
3.90459e-11
-4.0226e-12
2.80134e-11
2.64024e-11
3.51459e-11
5.48879e-11
7.79535e-11
8.15465e-11
8.06102e-11
7.908e-11
7.41722e-11
6.55317e-11
5.14654e-11
3.95841e-11
2.36061e-11
1.29046e-11
7.5966e-12
-2.30685e-13
-1.02452e-11
2.4965e-11
-1.35395e-12
1.97376e-11
1.78959e-11
2.42842e-11
4.03035e-11
6.80698e-11
8.53258e-11
8.14634e-11
7.90883e-11
7.37452e-11
6.47285e-11
5.09956e-11
2.72399e-11
1.12872e-11
4.25965e-12
3.116e-12
-1.4331e-12
-8.30496e-12
1.39338e-11
-1.68137e-12
1.1603e-11
7.90958e-12
7.29924e-12
1.14509e-11
3.11573e-11
6.94862e-11
8.70884e-11
7.9039e-11
7.34009e-11
6.33681e-11
4.60932e-11
6.37274e-12
7.83829e-14
-7.21583e-13
4.6349e-13
-2.71668e-12
-3.65234e-12
4.52766e-12
-3.72456e-12
2.99331e-12
-5.76853e-12
-1.73046e-11
-2.83009e-11
-2.55824e-11
1.31875e-11
8.58627e-11
8.20944e-11
7.32477e-11
6.05263e-11
2.45408e-11
-1.28964e-12
2.30062e-12
6.92748e-13
-2.94641e-12
-5.02762e-12
-2.03274e-11
-4.92273e-12
-7.49626e-12
-5.82934e-12
-2.10583e-11
-4.2594e-11
-6.05101e-11
-6.89368e-11
-4.44472e-11
5.61145e-11
8.88766e-11
7.34256e-11
5.45502e-11
1.54007e-11
3.8153e-12
8.73486e-12
5.01054e-12
-6.75529e-13
-2.07366e-12
3.33981e-12
-1.49446e-11
-1.38493e-11
-1.36795e-11
-3.29165e-11
-5.68257e-11
-7.23463e-11
-8.11005e-11
-6.7881e-11
3.1271e-11
9.00767e-11
7.72461e-11
5.07851e-11
1.3362e-11
1.04337e-11
1.61556e-11
1.38677e-11
9.17087e-12
9.81043e-12
1.16729e-11
-2.32154e-11
-2.09017e-11
-1.62572e-11
-3.67831e-11
-6.05366e-11
-7.00614e-11
-8.26075e-11
-6.45585e-11
2.9899e-11
8.28574e-11
7.76206e-11
3.68167e-11
8.55577e-12
4.17274e-12
8.00989e-12
1.02799e-11
6.38689e-12
6.11017e-12
1.53328e-11
-2.59944e-11
-2.99443e-11
-2.3548e-11
-4.30574e-11
-4.85293e-11
-5.24586e-11
-8.51358e-11
-5.22448e-11
3.58073e-11
6.75387e-11
6.62674e-11
3.1138e-11
8.1431e-12
-8.82327e-13
-1.33219e-11
-9.48005e-12
6.81191e-13
1.27195e-11
5.68428e-11
-1.9252e-11
-3.78498e-11
-3.14296e-11
-3.30308e-11
-1.98973e-11
-4.85834e-11
-8.89807e-11
-3.25539e-11
3.84031e-11
5.07399e-11
4.78347e-11
2.95908e-11
1.03775e-11
-1.41443e-11
-3.02192e-11
-2.17161e-11
-2.12257e-11
-1.88221e-11
-1.30683e-11
1.82627e-11
-2.60657e-11
-2.80155e-11
-1.12717e-11
-1.96158e-11
-8.11022e-11
-9.89138e-11
-1.02961e-11
3.78441e-11
4.47554e-11
4.31074e-11
3.45885e-11
1.32786e-11
-1.96808e-11
-2.06097e-11
-1.02847e-11
-1.6177e-11
-1.71611e-11
-2.18722e-11
7.75982e-11
1.6838e-11
-7.44492e-12
2.67719e-12
-5.38945e-11
-1.18256e-10
-8.47165e-11
-3.64342e-12
2.93059e-11
4.24933e-11
4.61683e-11
3.74262e-11
6.67948e-12
-3.14287e-11
-1.71671e-11
-1.59899e-13
-9.77216e-13
1.95313e-12
-2.04488e-12
5.237e-11
5.43016e-11
2.75469e-11
-3.58404e-11
-1.14707e-10
-1.34383e-10
-5.9326e-11
-1.124e-11
1.26262e-11
2.99684e-11
3.72758e-11
2.59459e-11
-1.03669e-11
-3.69928e-11
-1.44955e-11
2.14949e-13
3.76427e-12
3.25234e-12
5.7232e-12
-6.43743e-11
2.35331e-11
-1.88593e-11
-1.14873e-10
-1.57816e-10
-1.1438e-10
-3.73399e-11
-1.8505e-11
-5.67851e-12
8.75344e-12
1.54034e-11
3.34918e-12
-2.99797e-11
-3.57333e-11
-1.22569e-11
6.00405e-13
3.3283e-12
3.13554e-12
6.31673e-12
-1.85721e-10
-1.69184e-10
-1.48416e-10
-1.65338e-10
-1.5355e-10
-8.69945e-11
-2.34681e-11
-1.88529e-11
-1.80503e-11
-1.17847e-11
-8.94216e-12
-1.93048e-11
-4.27271e-11
-3.34648e-11
-1.1023e-11
7.92235e-13
3.66191e-12
3.20096e-12
2.68252e-12
-1.86144e-10
-1.82088e-10
-1.70776e-10
-1.63487e-10
-1.43183e-10
-7.3544e-11
-1.28579e-11
-1.23417e-11
-2.08891e-11
-2.44267e-11
-2.73e-11
-3.51723e-11
-4.5727e-11
-3.07638e-11
-1.06157e-11
8.4639e-13
3.56038e-12
2.90854e-12
2.10928e-12
-1.85075e-10
-1.82755e-10
-1.63917e-10
-1.6139e-10
-1.46261e-10
-6.97816e-11
-5.49426e-12
-2.64364e-12
-1.67414e-11
-2.84142e-11
-3.81685e-11
-4.52823e-11
-4.53057e-11
-2.92475e-11
-9.8938e-12
1.08139e-12
3.41985e-12
2.64419e-12
2.03523e-12
-1.84424e-10
-1.85363e-10
-1.65667e-10
-1.62083e-10
-1.49832e-10
-8.73794e-11
-1.5857e-11
6.04976e-12
-4.78833e-12
-2.00792e-11
-3.46692e-11
-4.59745e-11
-4.39809e-11
-2.86805e-11
-9.19801e-12
1.46734e-12
3.33051e-12
2.44042e-12
1.85622e-12
-2.10588e-15
-2.90702e-13
-5.60207e-14
-4.47457e-14
-4.77846e-13
-7.48534e-14
-8.81392e-14
-7.79643e-14
-1.17888e-12
-2.74674e-13
-3.56716e-13
-5.92479e-13
4.84331e-13
4.27962e-13
4.56252e-12
1.18952e-12
1.10494e-12
3.92781e-12
6.8938e-13
4.08287e-13
2.56767e-13
1.53576e-13
-6.83223e-14
-2.20344e-13
-2.4675e-13
-2.72454e-13
-1.91632e-12
-3.40998e-13
-3.39636e-13
-3.16335e-13
-2.85811e-13
-2.54336e-13
-2.14195e-13
-1.57501e-13
-8.00571e-14
1.37857e-14
1.02457e-13
2.29336e-13
2.98614e-13
5.04436e-13
1.52284e-11
2.16757e-12
1.9474e-12
1.8802e-12
3.36502e-12
-3.61854e-13
-8.20237e-13
1.60052e-12
-7.92715e-11
-6.90776e-11
-1.69235e-11
-2.05847e-11
-4.35105e-13
-9.25214e-13
-9.19759e-13
-7.00565e-12
-1.40289e-12
-1.51678e-12
-1.71984e-12
-1.12751e-11
-3.34077e-13
-1.08009e-13
-8.7529e-15
1.38965e-13
2.48003e-13
3.54562e-13
4.51343e-13
5.26892e-13
5.77913e-13
6.24571e-13
6.5687e-13
6.80293e-13
6.94185e-13
1.38343e-11
7.42083e-13
7.70548e-13
7.74858e-13
6.65418e-13
4.68259e-13
3.61448e-13
2.33069e-12
2.15748e-12
1.17271e-11
2.29527e-12
2.21516e-12
1.0293e-11
1.36768e-12
1.28397e-12
6.58886e-12
7.06214e-13
3.9364e-13
1.52478e-12
-8.90176e-13
-8.77968e-13
-1.00406e-12
3.70202e-12
1.09505e-12
1.03821e-12
7.02592e-12
2.98189e-12
-1.52176e-10
4.62919e-11
-2.78041e-11
-4.1548e-11
-5.88452e-11
-7.04193e-11
-7.57591e-11
-7.89482e-11
-8.03083e-11
-7.9372e-11
-7.44367e-11
-6.53159e-11
-4.89819e-11
-3.03354e-11
-1.83519e-11
-7.39817e-12
1.39232e-12
1.17335e-11
2.00312e-11
-9.28478e-11
2.57566e-11
-3.9058e-11
-4.268e-11
-5.2014e-11
-6.78942e-11
-7.67844e-11
-7.9194e-11
-8.02838e-11
-7.93386e-11
-7.44795e-11
-6.55851e-11
-5.01436e-11
-3.64432e-11
-2.42917e-11
-1.3977e-11
-4.85615e-12
5.75545e-12
1.63727e-11
-5.90283e-11
1.20736e-11
-3.43492e-11
-3.38593e-11
-4.31348e-11
-6.23344e-11
-7.77502e-11
-7.99098e-11
-8.03399e-11
-7.92061e-11
-7.44345e-11
-6.5727e-11
-5.11102e-11
-4.03926e-11
-2.71067e-11
-1.6302e-11
-8.15903e-12
1.47663e-12
1.37529e-11
-3.90459e-11
4.0226e-12
-2.80134e-11
-2.64024e-11
-3.51459e-11
-5.48879e-11
-7.79535e-11
-8.15465e-11
-8.06102e-11
-7.908e-11
-7.41722e-11
-6.55317e-11
-5.14654e-11
-3.95841e-11
-2.36061e-11
-1.29046e-11
-7.5966e-12
2.30685e-13
1.02452e-11
-2.4965e-11
1.35395e-12
-1.97376e-11
-1.78959e-11
-2.42842e-11
-4.03035e-11
-6.80698e-11
-8.53258e-11
-8.14634e-11
-7.90883e-11
-7.37452e-11
-6.47285e-11
-5.09956e-11
-2.72399e-11
-1.12872e-11
-4.25965e-12
-3.116e-12
1.4331e-12
8.30496e-12
-1.39338e-11
1.68137e-12
-1.1603e-11
-7.90958e-12
-7.29924e-12
-1.14509e-11
-3.11573e-11
-6.94862e-11
-8.70884e-11