/*--------------------------------*- C++ -*----------------------------------*\
| =========                 |                                                 |
| \\      /  F ield         | OpenFOAM: The Open Source CFD Toolbox           |
|  \\    /   O peration     | Version:  4.1                                   |
|   \\  /    A nd           | Web:      www.OpenFOAM.org                      |
|    \\/     M anipulation  |                                                 |
\*---------------------------------------------------------------------------*/
FoamFile
{
    version     2.0;
    format      ascii;
    class       volVectorField;
    location    "10";
    object      U;
}
// * * * * * * * * * * * * * * * * * * * * * * * * * * * * * * * * * * * * * //

dimensions      [0 1 -1 0 0 0 0];

internalField   nonuniform List<vector> 
1280
(
(1.52186e-18 0.716219 -0.0486753)
(5.13073e-17 0.950539 -0.378092)
(4.04847e-17 0.926984 -0.353735)
(3.23365e-17 0.988741 -0.319891)
(8.12146e-17 1.3117 -0.784401)
(5.40946e-17 1.2054 -0.653042)
(6.36959e-17 1.4099 -0.671971)
(4.52509e-17 1.40846 -0.614143)
(2.72425e-16 1.85601 -1.23028)
(1.985e-16 1.79253 -1.00496)
(2.57789e-16 1.98506 -0.870764)
(8.95031e-18 2.54499 -1.7387)
(-3.72949e-16 2.48056 -1.39637)
(-3.09277e-16 2.74479 -1.16067)
(-1.03209e-15 3.53374 -2.47574)
(-8.59638e-16 3.52441 -2.01427)
(-7.98508e-16 3.8893 -1.66877)
(-6.67569e-16 5.00301 -3.6454)
(-4.98197e-16 4.81471 -3.11964)
(-2.95058e-16 5.38321 -2.55374)
(-1.0534e-15 5.49487 -3.11113)
(-6.30056e-16 5.65083 -0.240633)
(2.80297e-16 5.49212 4.50967)
(9.03974e-16 5.46691 8.90524)
(1.01231e-15 5.38833 11.5241)
(1.11776e-15 5.80639 12.7295)
(4.03967e-16 3.22542 8.0501)
(1.39896e-15 9.55865 14.7269)
(1.39338e-15 9.43761 14.5466)
(1.29779e-15 9.52398 13.9893)
(1.17256e-15 9.55735 13.2842)
(1.04343e-15 9.5324 12.5412)
(8.78749e-16 9.50933 11.8332)
(6.46156e-16 9.48207 11.203)
(3.28439e-16 9.43684 10.6753)
(-5.65568e-17 9.37659 10.2413)
(-4.20337e-16 9.29547 9.94317)
(-9.40865e-16 9.1855 9.67643)
(-1.22508e-15 9.09345 9.54787)
(-2.06948e-15 8.80383 8.91345)
(-2.65073e-15 9.28841 11.4014)
(-1.74102e-15 6.18998 8.30378)
(-1.56381e-15 5.51878 8.27943)
(-1.49845e-15 4.37614 8.28947)
(-3.97772e-16 3.14127 8.32317)
(2.90646e-16 1.75968 4.8586)
(6.58825e-16 1.30916 4.49766)
(-1.28556e-15 0.591599 4.68469)
(1.34219e-14 0.628985 1.60928)
(1.37283e-13 10.594 -5.04345)
(-6.82331e-14 -10.5239 -2.6506)
(3.58306e-15 -0.695687 1.90284)
(3.49482e-16 -0.731502 4.75246)
(7.43144e-16 -1.45785 4.56428)
(7.38763e-16 -1.90234 4.93556)
(1.21943e-15 -3.35093 8.44328)
(1.13817e-15 -4.55896 8.34486)
(1.21829e-15 -5.71169 8.36457)
(1.3814e-15 -6.39639 8.41452)
(1.93773e-15 -9.64702 11.5708)
(1.37057e-15 -8.94304 9.06141)
(4.43116e-16 -9.2378 9.70012)
(3.59094e-17 -9.32317 9.83197)
(-5.70112e-16 -9.43507 10.0937)
(-1.01745e-15 -9.51624 10.384)
(-1.45461e-15 -9.57697 10.802)
(-1.85166e-15 -9.62201 11.3092)
(-2.16161e-15 -9.64862 11.9144)
(-2.37092e-15 -9.66953 12.5913)
(-2.56234e-15 -9.68881 13.2927)
(-2.69485e-15 -9.64969 13.9398)
(-2.79095e-15 -9.55698 14.4191)
(-2.84794e-15 -9.63715 14.5164)
(-2.91632e-15 -3.31823 7.57831)
(-3.04444e-15 -5.83125 12.365)
(-3.16122e-15 -5.41041 11.0424)
(-3.1789e-15 -5.50043 8.32381)
(-2.72992e-15 -5.52895 3.80386)
(-1.92106e-15 -5.69197 -1.05716)
(-1.48286e-15 -5.5304 -3.96903)
(-1.68433e-15 -5.36913 -3.26796)
(-1.55915e-15 -4.67277 -3.84491)
(-1.99314e-15 -4.90362 -4.61314)
(-1.65873e-15 -3.57761 -2.4982)
(-1.60084e-15 -3.12523 -2.81413)
(-1.81954e-15 -2.95784 -3.44558)
(-9.88387e-16 -2.09694 -1.84125)
(-9.2789e-16 -1.74677 -2.11352)
(-1.1e-15 -1.54893 -2.66685)
(-5.04894e-16 -0.898339 -1.47686)
(-2.84473e-16 -0.634367 -1.77573)
(-1.72579e-16 -0.380081 -2.43106)
(7.26955e-16 0.080286 -1.68089)
(6.34485e-16 0.326299 -1.61914)
(7.25606e-16 0.545661 -1.44784)
(-6.29194e-16 0.872636 -2.07129)
(-7.91365e-16 1.08848 -1.46895)
(-7.50285e-16 1.42768 -1.27525)
(-1.19553e-15 1.35892 -1.68369)
(-2.15493e-15 1.94299 -1.53957)
(1.69084e-14 0.734596 3.81388)
(-5.14354e-15 2.13287 3.74463)
(3.08934e-15 2.47287 4.10798)
(4.61644e-15 2.5224 4.34177)
(6.53836e-15 1.19981 3.96828)
(7.82437e-15 -1.48748 2.48286)
(8.41768e-15 -2.98972 1.67602)
(8.77202e-15 -3.78518 1.12002)
(8.92315e-15 -4.39391 0.572345)
(8.81911e-15 -4.85405 0.108053)
(8.27074e-15 -4.75193 -0.292497)
(7.25733e-15 -4.05028 -0.621249)
(5.44243e-15 -2.56963 -0.98261)
(3.3706e-15 0.142275 -1.50809)
(2.0391e-15 1.02053 -2.30183)
(8.22019e-16 0.716526 -2.67938)
(-1.54702e-16 -0.226646 -2.61317)
(-1.30372e-15 -0.651211 -2.22614)
(-2.22569e-15 -0.222175 -2.15392)
(1.03164e-14 0.774835 4.16744)
(-2.86184e-15 2.01361 4.37385)
(4.33978e-15 2.26421 4.87454)
(4.74222e-15 2.5446 5.32606)
(5.77933e-15 1.78148 5.22256)
(7.5438e-15 -1.00642 3.15374)
(8.5316e-15 -2.72702 1.64844)
(8.79934e-15 -3.49862 1.20837)
(8.92042e-15 -4.14009 0.642203)
(8.8154e-15 -4.61634 0.221516)
(8.2755e-15 -4.50195 -0.121744)
(7.28724e-15 -3.74894 -0.471617)
(5.57151e-15 -2.11291 -0.985371)
(4.04925e-15 0.679523 -2.10942)
(2.69907e-15 1.40781 -3.2436)
(1.553e-15 0.871308 -3.92859)
(5.39572e-16 -0.306371 -3.82688)
(-6.39494e-16 -0.860684 -3.03666)
(-1.81919e-15 -0.440742 -2.40379)
(6.5587e-15 0.657581 4.52853)
(-1.34152e-15 1.85521 4.87796)
(3.81658e-15 2.07096 5.44604)
(3.76215e-15 2.40377 6.22037)
(4.79275e-15 2.05762 6.68226)
(6.92605e-15 -0.0397411 5.04395)
(8.63892e-15 -2.14788 2.13873)
(8.87886e-15 -3.24704 1.26297)
(8.92665e-15 -3.95186 0.762375)
(8.80068e-15 -4.47187 0.393926)
(8.2705e-15 -4.39487 0.12815)
(7.303e-15 -3.62118 -0.187013)
(5.67891e-15 -1.78807 -0.824073)
(4.48807e-15 0.984556 -2.36969)
(3.01186e-15 1.78046 -3.81576)
(1.81133e-15 0.975125 -4.83775)
(9.06559e-16 -0.525085 -4.76457)
(-1.6407e-16 -1.17907 -3.76591)
(-1.5281e-15 -0.584085 -2.78753)
(4.33843e-15 0.608731 4.91296)
(-4.46956e-16 1.65246 5.45017)
(3.1126e-15 1.7296 6.28965)
(2.9336e-15 2.0678 7.58016)
(3.90511e-15 2.17899 8.66497)
(6.09866e-15 0.9926 7.71311)
(8.6615e-15 -1.30473 3.6917)
(9.06072e-15 -2.82292 1.37238)
(8.95669e-15 -3.85043 0.88324)
(8.78667e-15 -4.37378 0.620533)
(8.24136e-15 -4.3159 0.464141)
(7.2813e-15 -3.46848 0.233255)
(5.71837e-15 -1.24502 -0.501449)
(4.39824e-15 1.66102 -2.44388)
(2.6229e-15 2.39072 -4.15767)
(1.43384e-15 1.23328 -5.37797)
(8.44066e-16 -0.87553 -5.53958)
(-2.56317e-17 -1.74733 -4.39279)
(-1.13836e-15 -0.982028 -3.34294)
(2.77389e-15 0.447829 5.30976)
(-1.50439e-16 1.31982 6.16319)
(2.19307e-15 1.20869 7.38799)
(1.98843e-15 1.4725 9.26036)
(2.69824e-15 1.97918 10.9966)
(4.47817e-15 1.91193 11.0172)
(7.56331e-15 0.378412 7.26066)
(9.48065e-15 -2.11642 1.87456)
(9.05148e-15 -3.75961 0.884302)
(8.78759e-15 -4.29879 0.908068)
(8.19391e-15 -4.26511 0.890224)
(7.19206e-15 -3.3174 0.785168)
(5.66617e-15 -0.606615 -0.0448022)
(3.02665e-15 2.41337 -2.16425)
(1.25413e-15 3.02059 -3.30085)
(4.73295e-16 1.6356 -3.99403)
(3.46223e-16 -0.576295 -5.14152)
(-1.59234e-16 -1.8993 -4.62368)
(-9.22774e-16 -1.08777 -4.05337)
(1.5482e-15 0.233064 5.74667)
(-1.86819e-16 0.847745 7.04203)
(1.28923e-15 0.480712 8.68692)
(8.78842e-16 0.642511 11.0319)
(8.11027e-16 1.47507 13.1489)
(1.27233e-15 2.43183 13.8688)
(3.46192e-15 2.34734 11.3817)
(7.72069e-15 -0.193622 5.00223)
(9.67649e-15 -3.44044 0.653106)
(8.78212e-15 -4.35727 1.20034)
(8.15566e-15 -4.27469 1.40418)
(7.0409e-15 -3.19904 1.43427)
(5.12147e-15 0.396262 0.415047)
(7.08082e-16 2.89395 -0.326962)
(8.70921e-18 3.11724 0.382645)
(-8.01759e-17 1.86159 0.853796)
(5.14989e-17 -1.09705 -1.7403)
(-3.01853e-16 -2.33985 -2.62429)
(-4.05816e-16 -1.48003 -4.25289)
(5.03074e-16 -0.121007 6.15678)
(-4.1384e-16 0.186648 7.94805)
(3.32591e-16 -0.393709 9.73882)
(-6.40948e-16 -0.291906 12.1566)
(-1.92274e-15 0.876992 14.0035)
(-3.14454e-15 2.64884 14.244)
(-2.84249e-15 3.92837 12.3318)
(1.46528e-15 2.4668 7.68894)
(9.54031e-15 -2.49287 1.54908)
(9.1216e-15 -4.51908 1.2032)
(8.13864e-15 -4.40608 2.01937)
(6.72514e-15 -3.1117 2.12366)
(2.72676e-15 0.725052 1.77722)
(-1.43293e-16 2.31497 3.69057)
(2.55624e-16 2.64396 5.52438)
(7.69719e-17 2.34047 5.80249)
(-3.27379e-16 0.499066 3.16614)
(-5.58625e-16 -0.608555 -0.733465)
(-2.2586e-15 0.452766 1.23187)
(-5.46971e-16 -0.566564 6.31211)
(-8.32918e-16 -0.526965 8.34416)
(-6.47704e-16 -1.20257 9.8713)
(-2.33981e-15 -1.03832 11.7791)
(-4.73267e-15 0.66029 12.3326)
(-6.72334e-15 3.08291 10.9448)
(-7.65965e-15 5.01142 8.69823)
(-4.93858e-15 4.25434 6.27279)
(6.23495e-15 -1.15688 3.20413)
(9.87518e-15 -4.45823 1.41814)
(8.1584e-15 -4.70313 2.54999)
(6.06113e-15 -3.17878 2.95444)
(1.71119e-15 -0.154611 4.34767)
(4.23922e-16 1.28685 8.08262)
(9.7054e-16 2.29537 9.7519)
(5.56727e-16 2.6992 10.4698)
(-7.50588e-17 1.07168 10.0244)
(-2.30407e-16 -1.58581 8.48559)
(3.71091e-16 -5.11101 10.2714)
(-1.66052e-15 -1.02713 5.99297)
(-1.53881e-15 -1.15106 8.00263)
(-1.51995e-15 -1.77463 9.14871)
(-3.65739e-15 -1.28 10.0079)
(-6.31396e-15 1.18388 8.52509)
(-8.03848e-15 3.99888 5.98321)
(-9.01117e-15 5.79098 3.96823)
(-7.54233e-15 4.74998 3.24973)
(3.47455e-15 -0.705265 3.82077)
(1.00085e-14 -4.21967 2.53649)
(8.5829e-15 -5.05954 2.97913)
(5.64279e-15 -3.72828 3.99797)
(1.48467e-15 -1.52233 6.7638)
(1.1593e-15 0.234394 10.7022)
(1.79507e-15 1.75449 11.4734)
(1.54086e-15 2.21193 12.6648)
(1.01899e-15 1.075 14.3289)
(1.09005e-15 -0.874661 13.9552)
(1.29699e-15 -2.67481 11.7525)
(-2.57948e-15 -1.4705 5.25816)
(-2.32242e-15 -1.69043 7.15299)
(-1.80635e-15 -2.02601 7.88722)
(-4.08701e-15 -0.872401 7.48649)
(-6.72629e-15 2.20111 4.52852)
(-7.78461e-15 4.86003 2.41533)
(-9.12513e-15 6.14142 1.46367)
(-7.17317e-15 4.37032 2.36847)
(3.32211e-15 -0.90689 4.63354)
(9.20637e-15 -4.08502 3.94931)
(8.62451e-15 -5.30312 3.54029)
(3.79724e-15 -4.55414 4.67946)
(9.50641e-16 -2.76728 7.42837)
(4.63638e-16 -0.475037 9.7274)
(7.05725e-16 1.4869 9.5525)
(1.14221e-15 1.6707 10.0549)
(7.09655e-16 0.706306 10.535)
(6.78907e-16 -0.314215 9.68479)
(1.70364e-15 -0.750807 6.30131)
(-2.88826e-15 -1.87181 4.27819)
(-3.32714e-15 -2.11569 5.95103)
(-2.61645e-15 -1.93402 6.24054)
(-4.78415e-15 0.0604319 4.55442)
(-5.39214e-15 3.13077 1.43226)
(-5.82873e-15 5.24681 0.544293)
(-9.53668e-15 5.87378 0.536445)
(-5.80497e-15 3.40893 3.34149)
(3.97859e-15 -1.19762 5.99932)
(7.5043e-15 -3.89647 5.1669)
(7.36305e-15 -5.35687 4.39051)
(3.45978e-15 -5.31318 5.27175)
(9.04789e-16 -3.77088 8.3259)
(-9.80363e-17 -0.815192 11.0112)
(-1.48021e-15 1.60301 11.5004)
(-1.05334e-15 1.89917 11.911)
(7.56879e-17 1.35031 11.7175)
(1.41328e-15 0.759403 9.67871)
(6.31586e-15 0.501034 5.88453)
(-2.13911e-15 -2.18962 3.1704)
(-4.20553e-15 -2.38888 4.45366)
(-3.49218e-15 -1.51476 4.29358)
(-3.67008e-15 1.20272 1.49624)
(-2.21081e-15 3.70828 -0.33046)
(-5.39816e-15 5.26071 -0.347641)
(-9.88674e-15 5.06259 0.49605)
(-3.6171e-15 2.04888 5.04868)
(4.26701e-15 -1.43259 7.56003)
(5.63776e-15 -3.56521 6.77057)
(5.31496e-15 -5.31543 6.07197)
(3.28787e-15 -6.08563 6.84231)
(1.15306e-15 -4.92987 9.6838)
(-1.57159e-15 -1.47071 10.8709)
(-3.35769e-15 1.18041 9.1703)
(-2.4129e-15 1.48142 11.1001)
(-2.35841e-15 1.35598 13.3051)
(-2.09134e-15 1.51665 13.2292)
(-1.45204e-15 2.30341 11.626)
(2.02918e-15 -2.40388 2.65963)
(-2.89619e-15 -2.52776 2.89265)
(-3.11283e-15 -0.898216 2.36703)
(-1.25241e-15 1.89185 -0.632619)
(-2.17953e-15 3.85908 -1.03066)
(-9.01135e-15 4.97077 -0.744828)
(-1.09904e-14 3.71143 1.3692)
(-1.14402e-15 0.470435 6.84881)
(4.2049e-15 -1.76512 9.01775)
(4.97282e-15 -3.37228 8.96867)
(4.78971e-15 -5.36329 8.82107)
(3.84317e-15 -6.69946 9.43695)
(1.4754e-15 -5.361 10.3514)
(-2.18675e-15 -0.78563 6.8954)
(-2.28997e-15 1.59594 1.73175)
(-1.14274e-15 0.227576 3.14422)
(-1.79745e-15 0.477825 5.53474)
(-1.90679e-15 1.70807 7.09067)
(-2.43024e-15 4.78407 10.5607)
(8.62203e-15 -2.27072 4.18423)
(1.87089e-15 -2.25915 1.97433)
(-8.27213e-16 -0.0640332 0.780803)
(2.97466e-16 2.21517 -1.38366)
(-5.98828e-15 3.81407 -1.36566)
(-1.31395e-14 4.35123 -0.571793)
(-9.41295e-15 2.01169 2.89103)
(-4.04824e-16 -0.942536 7.60536)
(3.25621e-15 -2.3234 9.58695)
(4.72148e-15 -3.54755 10.6282)
(5.12981e-15 -5.51594 11.1592)
(4.15846e-15 -6.68605 11.2536)
(7.42165e-16 -4.08696 9.45169)
(-3.49208e-15 1.75503 3.37449)
(-1.90746e-15 2.67725 1.64442)
(-1.77665e-17 0.209124 0.171479)
(-1.0858e-16 0.0785293 -0.928608)
(2.17015e-16 -0.643836 -3.69406)
(-2.27209e-16 -1.29343 1.55571)
(5.81889e-15 -1.46647 5.30303)
(6.03351e-15 -1.23348 1.34131)
(3.06077e-15 0.835307 -0.478637)
(-3.98227e-15 2.56272 -1.62908)
(-1.27452e-14 3.5948 -1.23081)
(-1.49315e-14 3.32654 0.371093)
(-6.59178e-15 0.402155 4.30632)
(-1.24889e-15 -2.05984 7.17743)
(1.40291e-15 -3.04373 9.05391)
(3.32982e-15 -4.01895 10.7611)
(4.14176e-15 -5.61476 11.6441)
(2.88288e-15 -6.01016 11.0542)
(-1.15188e-15 -2.23646 7.21777)
(-4.11031e-15 2.63415 1.59429)
(-1.61061e-15 2.9565 1.6549)
(2.38833e-17 1.21287 0.299477)
(4.18252e-16 1.04298 -1.50978)
(3.61371e-16 0.865414 -1.02119)
(6.35911e-16 -0.649378 -3.85825)
(-7.1527e-15 -0.598539 3.59382)
(2.61479e-15 -0.0563068 -0.307466)
(-2.09548e-15 1.10017 -1.3412)
(-1.27636e-14 2.51796 -1.42639)
(-1.75351e-14 3.0756 -0.376604)
(-1.27089e-14 2.12957 1.67869)
(-4.14888e-15 -0.736904 4.89116)
(-2.05611e-15 -2.84929 6.30325)
(-6.30946e-16 -3.76304 7.77025)
(9.72605e-16 -4.56692 9.51771)
(1.71149e-15 -5.58406 10.3905)
(3.72131e-16 -4.9277 9.27051)
(-3.33107e-15 -0.149953 4.44431)
(-3.97037e-15 3.54807 0.747592)
(-1.36187e-15 3.26267 0.996719)
(6.67117e-17 1.67663 -0.137783)
(3.69812e-16 0.955794 -1.21393)
(3.48394e-16 0.688424 -1.0897)
(7.01859e-16 0.201537 -3.05458)
(-2.06357e-14 0.248239 1.98065)
(-1.87983e-14 0.765236 -0.418021)
(-1.64906e-14 1.07172 -1.08634)
(-1.83709e-14 2.14767 -0.547072)
(-1.70611e-14 2.43414 0.606114)
(-9.66605e-15 1.15169 2.45357)
(-2.60757e-15 -1.3372 4.80398)
(-2.09477e-15 -3.2689 5.44692)
(-2.00559e-15 -4.33062 6.30276)
(-1.30942e-15 -5.06691 7.61116)
(-9.93574e-16 -5.47796 8.26483)
(-2.14498e-15 -3.7379 6.90283)
(-4.74746e-15 1.41939 1.98575)
(-3.71831e-15 3.99288 0.0980739)
(-1.22478e-15 3.39773 0.306445)
(8.80261e-17 2.05774 -0.457382)
(4.06879e-16 1.23001 -1.11245)
(3.55662e-16 1.12545 -1.08972)
(2.98058e-16 0.375636 -1.9055)
(-2.06827e-14 0.681384 1.72219)
(-2.0232e-14 1.13647 0.533008)
(-1.89751e-14 1.21176 0.0438987)
(-1.81653e-14 1.8544 0.379532)
(-1.59093e-14 1.94426 0.902468)
(-8.17156e-15 0.335939 2.5809)
(-1.42865e-15 -1.84153 4.47763)
(-1.3713e-15 -3.49163 4.74826)
(-2.32101e-15 -4.62112 5.01969)
(-2.71408e-15 -5.32858 5.66483)
(-3.03333e-15 -5.23977 5.99562)
(-3.90803e-15 -2.52802 4.66373)
(-5.08078e-15 2.43908 0.484682)
(-3.4182e-15 4.22606 -0.338423)
(-1.17952e-15 3.52359 -0.343365)
(9.40434e-17 2.27082 -0.71397)
(3.95598e-16 1.26597 -1.06535)
(3.23171e-16 1.05114 -0.992612)
(2.34364e-16 0.510414 -1.32795)
(-2.05639e-14 0.873551 1.5758)
(-2.03061e-14 1.33823 0.936827)
(-1.8213e-14 1.22715 0.611839)
(-1.79322e-14 1.73852 0.564607)
(-1.62512e-14 1.6158 0.661586)
(-7.75351e-15 -0.373329 2.27897)
(-6.10473e-16 -2.0559 4.10971)
(-2.93738e-16 -3.48418 4.40448)
(-1.86016e-15 -4.71551 4.24301)
(-3.15713e-15 -5.49702 4.19442)
(-4.24094e-15 -5.11271 4.06546)
(-5.03136e-15 -1.55883 2.73099)
(-5.03397e-15 3.33905 -0.418392)
(-3.24972e-15 4.41553 -0.710296)
(-1.09931e-15 3.57428 -0.791199)
(1.20154e-16 2.32999 -0.856805)
(3.79983e-16 1.28825 -0.975675)
(2.93799e-16 1.09174 -0.88275)
(2.26137e-16 0.544159 -1.05698)
(-2.04915e-14 1.02883 1.56351)
(-2.05959e-14 1.52331 1.16838)
(-1.84074e-14 1.33619 0.827676)
(-1.80093e-14 1.76908 0.49636)
(-1.6648e-14 1.4734 0.40179)
(-9.70883e-15 -1.20727 1.35569)
(-1.76189e-15 -2.78185 2.92616)
(6.72196e-16 -3.62384 3.63906)
(-5.32036e-16 -4.49788 3.48229)
(-2.23102e-15 -5.16222 2.96087)
(-3.85213e-15 -4.59793 2.32553)
(-5.10827e-15 -0.35446 0.99527)
(-4.88677e-15 3.63661 -0.612591)
(-3.18672e-15 4.48636 -1.04613)
(-1.022e-15 3.56462 -1.02388)
(1.63038e-16 2.33359 -0.907695)
(3.70056e-16 1.28597 -0.909822)
(2.71158e-16 1.09767 -0.807386)
(2.06246e-16 0.472597 -0.929034)
(-4.59129e-16 4.26106 7.14869)
(6.13489e-16 13.6849 20.7021)
(1.73747e-15 20.1758 30.1373)
(2.107e-15 22.7035 33.6529)
(1.96514e-15 22.4946 32.9527)
(2.21199e-15 21.2457 30.4714)
(2.70328e-15 19.5782 27.5987)
(3.31019e-15 18.006 24.8981)
(3.81585e-15 16.4921 22.3579)
(4.65566e-15 14.9732 19.9285)
(5.9956e-15 13.4265 17.5478)
(7.79003e-15 11.844 15.1955)
(9.42927e-15 10.2229 12.8818)
(1.0256e-14 8.56684 10.6085)
(1.03558e-14 6.86618 8.39692)
(1.01956e-14 5.17434 6.2929)
(9.58504e-15 3.49697 4.37373)
(7.93278e-15 1.98565 2.47925)
(5.82683e-15 -0.154942 0.321541)
(1.47832e-15 -1.40033 -4.12955)
(-4.7239e-17 11.2533 19.1747)
(-6.90673e-17 19.7473 30.9744)
(5.64085e-17 20.371 31.6857)
(1.44157e-16 18.617 29.4461)
(1.07281e-16 16.659 27.2373)
(3.37422e-16 14.9024 25.1855)
(8.94607e-16 13.1282 23.0125)
(1.905e-15 11.3274 20.6411)
(3.50241e-15 9.51393 18.2125)
(7.39435e-15 7.69393 15.7289)
(1.33801e-14 5.84153 13.2065)
(1.986e-14 3.99402 10.6675)
(2.2777e-14 2.15964 8.11985)
(2.12873e-14 0.309316 5.47626)
(1.99189e-14 -1.49134 2.80341)
(2.1731e-14 -2.87261 0.700369)
(2.01328e-14 -3.44703 -0.359427)
(1.39298e-14 -3.12136 -0.502746)
(8.39065e-15 -1.4339 0.878551)
(2.92305e-15 0.692784 2.6319)
(7.61008e-17 14.0128 24.5676)
(-6.71834e-16 18.7805 32.2453)
(-6.5449e-16 15.7764 27.8103)
(-8.21283e-16 13.5514 24.65)
(-1.11994e-15 12.1942 23.1702)
(-1.47379e-15 10.8443 21.6225)
(-6.49062e-16 9.24126 19.6853)
(1.86637e-16 7.52646 17.4849)
(2.21512e-15 5.7335 15.1708)
(6.67482e-15 3.92971 12.8158)
(1.37431e-14 2.15435 10.5162)
(1.98743e-14 0.50292 8.39369)
(1.98848e-14 -0.925953 6.55122)
(1.37016e-14 -2.02348 5.01876)
(7.64046e-15 -2.56381 3.97636)
(5.98893e-15 -2.03868 4.14562)
(5.88617e-15 0.1928 6.61286)
(3.75897e-15 4.11472 11.3117)
(7.5994e-16 7.92455 15.4494)
(-6.00787e-16 6.71367 13.1455)
(-1.16775e-17 11.6481 20.4838)
(1.05081e-16 16.0532 28.9261)
(1.0429e-16 14.2753 25.63)
(3.09643e-17 12.5738 22.6973)
(-4.08527e-16 11.1797 20.4597)
(-1.60268e-15 9.93815 18.5475)
(-1.05246e-15 8.66194 16.6299)
(-7.57826e-16 7.34364 14.497)
(-7.74456e-17 5.96356 12.1909)
(2.28612e-15 4.59893 9.7863)
(7.07769e-15 3.33473 7.46984)
(1.22278e-14 2.35851 5.57757)
(1.37426e-14 1.93672 4.63602)
(9.90488e-15 2.36214 5.16527)
(4.06901e-15 3.78705 7.36256)
(9.37783e-17 6.1079 10.9751)
(-1.64989e-15 8.84001 15.1919)
(-1.83575e-15 10.9789 18.7239)
(-1.20143e-15 11.7612 19.5537)
(-4.74454e-16 8.33319 15.1857)
(2.35155e-18 9.89494 17.2099)
(-1.31281e-18 17.155 30.273)
(2.14207e-18 16.2192 28.0767)
(1.37103e-17 14.0881 23.9752)
(6.21783e-17 12.4629 21.0415)
(2.29338e-16 11.477 19.0321)
(1.2084e-16 10.6853 17.5168)
(2.23589e-17 10.0323 16.0679)
(-1.35403e-16 9.3964 14.6051)
(-4.45307e-16 8.79216 13.0566)
(-9.82079e-16 8.20858 11.422)
(-1.67083e-15 7.66547 9.74692)
(-2.29378e-15 7.19189 8.16327)
(-2.7964e-15 6.95256 7.10859)
(-3.13279e-15 7.12395 7.02911)
(-3.10958e-15 7.70732 8.19747)
(-2.64337e-15 8.63826 10.3786)
(-1.77169e-15 9.27203 12.7415)
(-6.49233e-16 9.0712 13.6084)
(2.53279e-17 6.58476 11.0905)
(-5.20733e-19 9.47144 16.2267)
(-5.57638e-18 17.9216 30.9431)
(-7.05372e-18 17.1248 29.5222)
(-7.19357e-18 14.9971 25.337)
(1.18755e-18 13.3544 22.48)
(4.84481e-18 12.4496 20.48)
(2.46013e-17 11.6916 18.9771)
(4.75606e-17 11.0641 17.5802)
(7.48122e-17 10.4439 16.2463)
(1.11537e-16 9.84901 14.9385)
(1.5926e-16 9.26423 13.627)
(2.10111e-16 8.67615 12.2817)
(2.38853e-16 8.08347 10.8816)
(2.17418e-16 7.48268 9.45427)
(1.07256e-16 6.9265 8.16985)
(-9.97295e-17 6.50876 7.32501)
(-3.01584e-16 6.25589 7.14544)
(-3.34132e-16 6.08815 7.44853)
(-2.19831e-16 5.4061 7.51975)
(-2.0473e-16 3.3046 4.5475)
(2.21681e-20 9.86886 16.8)
(2.20006e-18 18.6095 31.4787)
(2.72858e-18 17.7316 30.3013)
(2.34696e-18 15.574 26.0054)
(-2.92314e-18 13.9013 23.2986)
(-1.19496e-17 13.0331 21.3772)
(-1.58751e-17 12.2114 19.8668)
(-1.93569e-17 11.4884 18.3728)
(-2.34199e-17 10.7435 16.9222)
(-2.77033e-17 10.0122 15.502)
(-3.12074e-17 9.29152 14.1297)
(-3.18708e-17 8.58245 12.8045)
(-2.53494e-17 7.87811 11.5147)
(-6.61635e-18 7.17539 10.231)
(2.34501e-17 6.43869 8.92606)
(5.13824e-17 5.68703 7.58657)
(5.04349e-17 4.83901 6.30502)
(-1.45211e-17 4.00958 5.01269)
(-1.3843e-16 2.58263 3.5614)
(-2.74215e-16 0.66439 -0.331819)
(1.93892e-20 11.4121 19.4284)
(-5.41077e-19 19.7277 32.6083)
(-7.09264e-19 18.1136 30.6923)
(-6.02983e-19 16.1412 26.4724)
(8.35238e-19 14.544 24.082)
(3.78138e-18 13.7969 22.2308)
(4.74865e-18 12.9625 20.7385)
(5.09855e-18 12.2447 19.1939)
(5.50276e-18 11.4758 17.6709)
(5.87327e-18 10.6956 16.1183)
(5.9403e-18 9.87889 14.5474)
(5.41755e-18 9.02325 12.9649)
(4.08694e-18 8.12568 11.3864)
(2.63871e-18 7.19722 9.81846)
(3.57958e-18 6.21434 8.26876)
(8.95136e-18 5.20224 6.68293)
(1.49835e-17 4.02677 5.03612)
(9.72078e-18 2.80906 3.09551)
(2.62493e-18 0.73919 0.680199)
(-1.72921e-16 -0.67187 -2.96571)
(-6.64725e-21 13.9139 24.0806)
(1.03997e-19 20.8162 33.7786)
(1.45532e-19 17.9834 30.6922)
(1.25728e-19 16.6605 27.0137)
(-1.59037e-19 15.1923 25.1956)
(-7.99894e-19 14.676 23.4195)
(-1.03428e-18 13.8274 21.9971)
(-1.0449e-18 13.2044 20.4333)
(-1.01814e-18 12.4407 18.8734)
(-9.68658e-19 11.6417 17.1746)
(-8.73535e-19 10.7267 15.3722)
(-7.80788e-19 9.71562 13.4707)
(-8.43953e-19 8.60709 11.5077)
(-1.27349e-18 7.42193 9.50133)
(-1.79142e-18 6.14065 7.47615)
(-4.66387e-19 4.79204 5.39562)
(6.76832e-18 3.24362 3.26198)
(2.3887e-17 1.64208 0.755244)
(6.434e-17 -0.880633 -1.98846)
(-7.02032e-17 -2.05831 -5.82182)
(1.31188e-21 16.4742 29.4751)
(-1.77105e-20 20.894 33.7555)
(-2.53714e-20 17.1812 30.3858)
(-2.15414e-20 16.8952 27.7069)
(2.80032e-20 15.3765 26.4881)
(1.43466e-19 15.1414 24.8054)
(1.85762e-19 14.1918 23.6089)
(1.74634e-19 13.7137 22.0882)
(1.52601e-19 12.8384 20.5223)
(1.43956e-19 11.9373 18.5898)
(1.53982e-19 10.7611 16.446)
(1.63453e-19 9.45769 14.0952)
(1.45742e-19 8.00868 11.656)
(3.5134e-21 6.46803 9.145)
(-6.93443e-19 4.80227 6.56259)
(-2.61954e-18 3.03141 3.87265)
(-5.22961e-18 1.08055 1.2029)
(-4.85674e-18 -0.700278 -1.99923)
(5.17959e-17 -3.1906 -4.51576)
(-1.1838e-17 -3.4671 -8.46318)
(-1.90224e-22 17.5028 32.3481)
(2.93648e-21 19.2257 31.5324)
(3.99491e-21 15.9446 29.5803)
(2.96226e-21 16.1532 27.5973)
(-6.58361e-21 14.3944 26.6171)
(-2.72848e-20 14.1743 25.0582)
(-3.53582e-20 12.9963 24.099)
(-3.57478e-20 12.4358 22.6252)
(-7.4533e-21 11.1908 21.0031)
(9.71449e-20 9.95909 18.748)
(2.15168e-19 8.28372 16.1733)
(6.1384e-20 6.55279 13.3006)
(-5.96177e-19 4.69954 10.3998)
(-1.60525e-18 2.84127 7.43567)
(-2.78142e-18 0.908073 4.31169)
(-4.82416e-18 -1.004 1.25228)
(-4.55545e-18 -2.22635 -0.785736)
(1.38197e-17 -3.32267 -2.95849)
(4.67319e-17 -5.48422 -6.30809)
(2.72929e-17 -3.7457 -6.44097)
(1.08329e-23 16.5199 30.9437)
(-4.08802e-22 17.5379 29.2205)
(-4.79066e-22 14.8457 27.9887)
(-8.56765e-23 14.7456 25.8941)
(1.93029e-21 12.9247 24.8761)
(3.9478e-21 12.4364 23.3287)
(-2.10886e-21 11.1181 22.3196)
(-8.51082e-21 10.2445 20.8656)
(4.36375e-20 8.81475 19.2223)
(2.21578e-19 7.3232 16.9887)
(3.139e-19 5.48161 14.3766)
(-3.75887e-19 3.60294 11.5139)
(-2.43538e-18 1.71967 8.70169)
(-5.22448e-18 -0.0196071 6.04588)
(-5.83954e-18 -1.54089 3.66998)
(8.30894e-19 -2.78153 1.50195)
(1.64289e-17 -3.54844 -0.306005)
(3.22021e-17 -2.9071 -0.414946)
(3.46683e-17 -0.361649 2.2832)
(1.42649e-17 2.00354 5.40457)
(1.16037e-24 15.2906 28.7237)
(3.08223e-23 17.2603 28.1955)
(1.21447e-23 14.0415 26.4169)
(-5.11166e-23 14.1647 23.8599)
(-1.34649e-22 12.0812 22.8186)
(-5.93193e-22 11.6773 20.8563)
(-4.57172e-21 10.1685 19.6418)
(-9.86609e-21 9.32662 18.0247)
(3.29171e-20 8.00283 16.5127)
(2.03354e-19 6.77161 14.6093)
(2.96499e-19 5.28892 12.4074)
(-5.91767e-19 3.80782 9.91635)
(-3.40679e-18 2.40481 7.44979)
(-7.16831e-18 1.29332 5.30105)
(-8.72565e-18 0.736924 3.98993)
(-6.19946e-18 1.22751 4.39021)
(-1.90024e-18 3.02995 6.89952)
(8.68836e-20 5.59027 10.4179)
(-1.13558e-18 7.61409 12.7308)
(-1.27004e-18 5.84884 11.0468)
(-5.15769e-25 15.1169 28.5702)
(5.13916e-24 17.9877 28.4213)
(1.37304e-23 14.3012 26.5611)
(2.41839e-23 14.9072 23.6129)
(1.70867e-23 12.7303 22.6022)
(2.08372e-23 12.6088 20.378)
(4.00697e-22 11.1875 18.9834)
(6.5436e-22 10.5477 17.1916)
(-3.98359e-21 9.54655 15.7073)
(-1.26176e-20 8.79364 14.2038)
(1.03483e-20 8.02455 12.8013)
(9.56535e-20 7.3532 11.3963)
(8.4889e-20 6.73673 9.98332)
(-4.39231e-19 6.20252 8.59332)
(-1.82316e-18 5.79078 7.33734)
(-3.67229e-18 5.57121 6.52762)
(-4.72285e-18 5.655 6.43177)
(-4.14512e-18 5.71272 6.97074)
(-2.18095e-18 5.35999 7.20567)
(1.16199e-18 3.60789 5.52022)
(1.46557e-25 15.5595 29.7104)
(-3.22391e-24 18.7194 29.2111)
(-5.03337e-24 14.7941 27.5214)
(-7.24009e-24 15.587 24.6223)
(-1.05317e-23 13.4856 23.5812)
(-2.58247e-23 13.3583 21.4944)
(-5.06183e-23 12.1733 20.0792)
(2.68437e-22 11.5456 18.3944)
(1.47671e-21 10.7387 16.8699)
(3.31131e-22 10.0241 15.3511)
(-1.40649e-20 9.33442 13.8953)
(-4.14594e-20 8.67839 12.5057)
(-2.88107e-20 8.04578 11.1618)
(1.1946e-19 7.40223 9.82064)
(4.37225e-19 6.69335 8.43315)
(8.03277e-19 5.89188 6.96574)
(1.00379e-18 4.9198 5.47452)
(1.00982e-18 3.86708 3.93674)
(1.02234e-18 2.26655 2.29461)
(1.59622e-18 0.648007 -0.59939)
(-3.97391e-26 15.9727 31.2313)
(1.49276e-24 19.0894 29.3171)
(2.25286e-24 14.937 28.3052)
(-1.26669e-24 16.1497 25.4651)
(-9.12012e-24 13.8449 24.5228)
(4.93054e-24 13.8749 22.4599)
(6.12449e-23 12.6519 21.1347)
(-2.15933e-23 12.1121 19.5123)
(-6.63247e-22 11.333 18.0843)
(-1.55173e-21 10.6835 16.6248)
(-4.56103e-22 10.0202 15.1905)
(4.48745e-21 9.35368 13.7194)
(9.62055e-21 8.62329 12.1645)
(7.31642e-21 7.77268 10.4489)
(-8.57068e-22 6.69602 8.51752)
(1.28408e-21 5.38649 6.34052)
(4.80478e-20 3.83263 4.16067)
(1.77654e-19 2.20464 1.60967)
(3.11121e-19 -0.264298 -1.12971)
(1.23084e-18 -1.48012 -4.89405)
(5.06176e-26 15.8106 31.9953)
(1.22657e-26 18.8741 28.8001)
(-1.33098e-24 14.6084 28.5479)
(-7.38391e-24 15.9728 25.8335)
(-3.76777e-24 13.6037 24.9915)
(5.39877e-23 13.639 23.0799)
(1.4248e-22 12.414 21.8787)
(-6.64588e-23 11.9281 20.3975)
(-1.25493e-21 11.1782 19.1357)
(-3.62937e-21 10.6158 17.8474)
(-4.55115e-21 10.0237 16.5866)
(4.72218e-21 9.4074 15.2076)
(3.93879e-20 8.61817 13.5463)
(1.08884e-19 7.48215 11.3321)
(1.82943e-19 5.76188 8.32683)
(1.86792e-19 3.59643 4.76514)
(1.46972e-19 1.51419 1.97924)
(1.34111e-19 -0.169939 -0.933483)
(1.07753e-19 -2.9541 -3.54057)
(1.01766e-18 -3.08583 -7.97833)
(7.58462e-26 14.4959 31.1658)
(3.02142e-25 18.2235 28.0533)
(-2.31314e-24 13.6031 27.9423)
(-7.9432e-24 14.48 25.6376)
(1.25327e-23 12.4347 24.7224)
(1.09563e-22 11.9678 23.1793)
(1.76071e-22 10.8781 22.0116)
(-3.51018e-22 10.166 20.7563)
(-2.26933e-21 9.38768 19.6189)
(-4.84326e-21 8.72317 18.4959)
(-2.24958e-21 8.04731 17.3562)
(2.00885e-20 7.30088 16.0174)
(8.29554e-20 6.29242 14.1808)
(1.83037e-19 4.74033 11.3314)
(2.21873e-19 2.35043 6.9432)
(5.61951e-20 -0.478658 1.59527)
(-1.17692e-19 -2.34467 -2.25305)
(9.6388e-20 -3.12949 -3.97371)
(4.53422e-19 -4.32051 -5.72459)
(7.22228e-19 -3.14715 -5.89052)
(6.67996e-26 11.2663 28.5817)
(-9.12736e-26 16.9173 25.0126)
(-2.57536e-24 11.9468 25.4141)
(-5.89869e-24 12.5292 23.7465)
(1.53249e-23 10.7738 23.033)
(1.02495e-22 10.0638 21.9814)
(1.84606e-22 9.0288 21.1041)
(-1.32532e-22 8.20555 20.1955)
(-1.44667e-21 7.38468 19.3333)
(-3.49455e-21 6.6395 18.4818)
(-3.29185e-21 5.92209 17.6203)
(5.57438e-21 5.20589 16.6667)
(2.96414e-20 4.43814 15.5006)
(6.84115e-20 3.59101 13.9924)
(1.09408e-19 2.70034 12.0444)
(1.34346e-19 1.86364 9.64155)
(1.45935e-19 1.14207 6.94245)
(1.9042e-19 0.45278 4.05316)
(2.77005e-19 -0.451764 0.844925)
(2.47293e-19 -0.832368 -1.12375)
(3.93104e-26 2.58779 17.0392)
(-6.52579e-26 8.03853 13.6299)
(-1.1581e-24 5.1631 14.4879)
(-3.3563e-24 4.98283 14.0945)
(1.47909e-24 4.06291 14.0543)
(4.06957e-23 3.50096 13.8799)
(1.44987e-22 2.92544 13.7218)
(2.47947e-22 2.45354 13.5321)
(-1.50169e-23 2.04368 13.3286)
(-1.46852e-21 1.71232 13.1166)
(-5.21631e-21 1.46204 12.9125)
(-1.188e-20 1.30177 12.7283)
(-2.04778e-20 1.23308 12.5605)
(-2.78815e-20 1.25932 12.3738)
(-3.01564e-20 1.38459 12.1062)
(-2.59213e-20 1.56625 11.7208)
(-1.87793e-20 1.82695 11.1588)
(-1.40258e-20 2.45872 10.1479)
(-1.10012e-20 2.6571 8.6882)
(-4.43399e-21 -0.194322 6.59608)
(-3.99198e-26 -2.58773 17.0391)
(6.68647e-26 -8.03852 13.6298)
(1.18035e-24 -5.16309 14.4878)
(3.41647e-24 -4.98285 14.0943)
(-1.54884e-24 -4.06295 14.0541)
(-4.16686e-23 -3.50102 13.8797)
(-1.48291e-22 -2.92553 13.7216)
(-2.53468e-22 -2.45366 13.5318)
(1.56914e-23 -2.04383 13.3283)
(1.50275e-21 -1.71252 13.1163)
(5.33683e-21 -1.4623 12.9123)
(1.21515e-20 -1.30208 12.7281)
(2.0932e-20 -1.23343 12.5603)
(2.84624e-20 -1.25965 12.3733)
(3.07225e-20 -1.38483 12.1056)
(2.63646e-20 -1.56636 11.72)
(1.91769e-20 -1.82688 11.1579)
(1.45769e-20 -2.45846 10.1471)
(1.16632e-20 -2.65678 8.68758)
(4.76658e-21 0.194494 6.59565)
(-6.74466e-26 -11.2661 28.5813)
(9.33585e-26 -16.9171 25.0122)
(2.62395e-24 -11.9466 25.4138)
(5.97819e-24 -12.5289 23.7461)
(-1.58264e-23 -10.7736 23.0326)
(-1.05034e-22 -10.0636 21.981)
(-1.88742e-22 -9.02853 21.1037)
(1.36406e-22 -8.20525 20.1951)
(1.48088e-21 -7.38434 19.3329)
(3.57154e-21 -6.63911 18.4814)
(3.34983e-21 -5.92162 17.6198)
(-5.73584e-21 -5.20533 16.6661)
(-3.03099e-20 -4.43757 15.5)
(-6.97369e-20 -3.59072 13.992)
(-1.11233e-19 -2.70087 12.0449)
(-1.36619e-19 -1.86534 9.64354)
(-1.50131e-19 -1.14469 6.94625)
(-2.00659e-19 -0.455678 4.05752)
(-2.96413e-19 0.449249 0.848329)
(-2.66169e-19 0.831004 -1.12126)
(-7.81647e-26 -14.4958 31.1654)
(-3.0168e-25 -18.2232 28.0532)
(2.37997e-24 -13.6029 27.942)
(8.08937e-24 -14.4796 25.6376)
(-1.3024e-23 -12.4344 24.7223)
(-1.1246e-22 -11.9674 23.1794)
(-1.80238e-22 -10.8776 22.0117)
(3.59971e-22 -10.1654 20.7565)
(2.32318e-21 -9.38704 19.6192)
(4.95288e-21 -8.72241 18.4963)
(2.28011e-21 -8.04633 17.3565)
(-2.06282e-20 -7.29947 16.0173)
(-8.49859e-20 -6.29017 14.1796)
(-1.86978e-19 -4.73664 11.3279)
(-2.25097e-19 -2.34567 6.93765)
(-5.40561e-20 0.4816 1.59235)
(1.19735e-19 2.34466 -2.25099)
(-1.1082e-19 3.1304 -3.97397)
(-4.91403e-19 4.32089 -5.72469)
(-7.71373e-19 3.14694 -5.88806)
(-4.60492e-26 -15.811 31.996)