/*--------------------------------*- C++ -*----------------------------------*\
| =========                 |                                                 |
| \\      /  F ield         | OpenFOAM: The Open Source CFD Toolbox           |
|  \\    /   O peration     | Version:  4.1                                   |
|   \\  /    A nd           | Web:      www.OpenFOAM.org                      |
|    \\/     M anipulation  |                                                 |
\*---------------------------------------------------------------------------*/
FoamFile
{
    version     2.0;
    format      ascii;
    class       volScalarField;
    location    "2";
    object      p;
}
// * * * * * * * * * * * * * * * * * * * * * * * * * * * * * * * * * * * * * //

dimensions      [0 2 -2 0 0 0 0];

internalField   nonuniform List<scalar> 
1280
(
0.104207
2.51101
2.3389
1.87682
4.7158
4.54305
4.10808
5.16481
7.44972
7.82515
6.94773
10.0896
10.4785
9.36061
12.5816
13.5458
12.6809
14.3803
17.7948
11.3435
21.5325
33.0226
39.0735
40.4191
44.3419
50.4026
49.953
53.9204
52.5633
52.6779
52.9217
52.4651
52.4718
51.7835
51.5066
50.5561
49.6113
49.0896
46.5195
46.543
17.8685
26.2583
27.5522
27.6057
27.7754
28.4564
28.3532
28.316
28.2877
28.3067
28.311
28.3034
28.3241
28.3602
28.4572
27.8282
27.6511
27.5937
26.3018
17.8976
46.616
46.561
49.1082
49.6315
50.5617
51.5063
51.773
52.4554
52.4407
52.891
52.6389
52.5174
53.8617
49.8679
50.2927
44.2439
40.3246
39.0054
32.9565
21.4573
11.2952
17.7313
14.3463
12.6458
13.5114
12.5526
9.34103
10.4547
10.0706
6.9383
7.81026
7.43786
5.16061
4.10557
4.53579
4.70759
1.88012
2.33662
2.5079
0.109532
0.0101119
0.0342284
0.0515276
0.0759259
0.103256
0.139509
0.188472
0.258028
0.352535
0.46246
0.535972
0.356303
-0.722998
-1.49763
-6.50839
-3.82196
0.0490426
1.92335
2.19746
0.0233712
0.0855905
0.129914
0.190722
0.256215
0.340955
0.453421
0.61279
0.829352
1.08664
1.32675
1.26168
-0.744042
-4.31977
-9.72452
-5.50098
0.268262
3.68209
3.43821
0.0357647
0.140375
0.215887
0.318386
0.428465
0.569809
0.756759
1.0214
1.37787
1.78521
2.15291
2.11143
-0.840229
-8.20785
-8.74055
-6.53452
0.72688
5.20362
4.3108
0.0448653
0.187952
0.288828
0.425847
0.570732
0.754009
0.993836
1.3306
1.77089
2.22792
2.58957
2.50533
-0.219212
-8.08092
-7.77186
-8.91875
1.39495
7.04174
5.94951
0.0518994
0.233329
0.356777
0.52557
0.701107
0.919187
1.20009
1.58747
2.06229
2.4338
2.49867
1.8667
-0.509722
-5.84912
-8.81278
-8.92626
1.42504
8.94825
6.35957
0.0562681
0.274033
0.415048
0.610166
0.808697
1.04909
1.35152
1.76036
2.22301
2.37037
1.87943
0.520668
-1.39388
-3.57837
-9.30424
-7.48932
2.93045
11.828
9.33928
0.0582942
0.310398
0.464507
0.68112
0.896191
1.14841
1.45381
1.83842
2.19206
2.01228
1.30478
0.252205
-0.101226
0.149991
-6.86017
-9.18344
1.66453
12.5532
7.43544
0.0578175
0.340456
0.502816
0.735333
0.960659
1.21469
1.50414
1.86571
2.1645
1.87771
1.39518
1.26332
2.36254
3.90307
-0.477451
-3.70516
8.13989
19.2958
11.8913
0.0561338
0.363575
0.530338
0.773207
1.00206
1.24791
1.51975
1.88457
2.15381
1.94299
1.62117
2.13203
3.76111
5.41554
2.67461
3.39036
20.1685
32.1577
26.5465
0.0534008
0.374896
0.542866
0.791321
1.0246
1.27274
1.5437
1.90817
2.17783
2.04324
1.8116
2.75075
4.50369
5.88276
3.62318
6.12347
24.8246
33.286
27.6425
0.0534032
0.374907
0.542892
0.791382
1.02477
1.27324
1.54484
1.91016
2.18061
2.04297
1.80504
2.7348
4.48844
5.8784
3.63128
6.12598
24.8412
33.3036
27.6911
0.0561388
0.363599
0.530386
0.773288
1.00216
1.24792
1.51938
1.88391
2.15402
1.94684
1.63112
2.12825
3.73706
5.40258
2.69847
3.3903
20.1903
32.1502
26.5234
0.0578279
0.340497
0.502907
0.735522
0.961073
1.21569
1.5063
1.86949
2.17054
1.88593
1.41
1.26646
2.33635
3.87595
-0.438793
-3.7255
8.05314
19.2299
11.8993
0.0583082
0.310451
0.464627
0.681371
0.896701
1.14945
1.45565
1.84133
2.19858
2.02405
1.32248
0.262969
-0.116648
0.1264
-6.82869
-9.24175
1.55897
12.4771
7.42635
0.0562842
0.274092
0.415185
0.610455
0.809296
1.05035
1.35407
1.76518
2.23231
2.38485
1.90021
0.5421
-1.39019
-3.59705
-9.29552
-7.50581
2.84297
11.7682
9.32695
0.0519157
0.233388
0.356918
0.525869
0.70173
0.920474
1.20261
1.59202
2.07036
2.44616
2.51621
1.88716
-0.501335
-5.87012
-8.82798
-8.92759
1.3568
8.89613
6.34113
0.0448801
0.188005
0.288956
0.426122
0.5713
0.75516
0.996055
1.33461
1.77793
2.23854
2.60356
2.52027
-0.21616
-8.10312
-7.78736
-8.93615
1.34359
6.99932
5.93192
0.0357762
0.140417
0.21599
0.318607
0.428921
0.570721
0.758506
1.02456
1.38331
1.79317
2.16272
2.12078
-0.841082
-8.2264
-8.75406
-6.54987
0.688074
5.17163
4.29558
0.0233788
0.0856174
0.12998
0.190863
0.256505
0.341533
0.454518
0.614753
0.832666
1.09139
1.33238
1.26661
-0.745956
-4.33341
-9.74038
-5.51375
0.239057
3.6576
3.42752
0.0101142
0.0342373
0.051551
0.0759773
0.103362
0.13972
0.188869
0.258732
0.353715
0.464164
0.537983
0.357968
-0.723932
-1.5026
-6.52021
-3.83061
0.0357419
1.91123
2.19555
125.946
123.893
123.647
121.483
120.583
118.366
117.008
115.4
114.248
112.748
111.847
110.646
110.136
109.108
108.954
108.067
108.126
107.446
107.514
107.125
107.593
107.534
108.279
107.863
108.534
108.201
108.526
108.177
108.262
107.898
107.866
107.428
107.416
106.896
106.957
106.413
106.517
106.058
106.125
105.869
112.833
112.2
112.912
111.995
112.39
111.9
111.966
111.671
111.642
111.379
111.356
111.057
111.093
110.73
110.832
110.436
110.551
110.202
110.248
110.019
109.884
109.537
110.386
109.647
110.176
109.872
110.056
109.933
110.023
109.93
110.016
109.892
110.019
109.845
110.015
109.817
109.988
109.832
109.931
109.892
109.842
109.485
110.39
109.596
110.106
109.848
109.984
109.913
109.973
109.926
109.992
109.925
110.026
109.927
110.06
109.949
110.08
110.005
110.083
110.096
107.702
107.401
108.421
107.653
108.291
108.123
108.354
108.373
108.499
108.543
108.654
108.681
108.802
108.806
108.937
108.934
109.054
109.077
109.151
109.239
106.079
105.66
106.718
105.947
106.734
106.49
106.869
106.875
107.069
107.153
107.291
107.375
107.501
107.57
107.689
107.752
107.851
107.929
107.989
108.104
105.341
104.72
105.632
104.926
105.833
105.283
105.867
105.723
105.966
106.024
106.155
106.249
106.356
106.446
106.54
106.627
106.7
106.792
106.835
106.937
105.668
104.863
105.58
104.828
105.933
105.019
105.773
105.454
105.693
105.693
105.779
105.846
105.911
105.985
106.045
106.12
106.168
106.244
106.273
106.337
105.248
104.469
105.35
104.353
105.709
104.719
105.46
105.171
105.371
105.391
105.463
105.539
105.608
105.694
105.766
105.859
105.925
106.019
106.067
106.141
102.176
101.958
103.155
102.101
103.509
102.861
103.458
103.427
103.635
103.783
103.937
104.108
104.273
104.454
104.625
104.816
104.977
105.176
105.291
105.485
95.0697
95.5425
97.0518
96.2569
97.6538
97.5197
98.1256
98.4546
98.8321
99.2231
99.599
99.9885
100.376
100.773
101.159
101.568
101.924
102.354
102.6
103.067
82.8745
83.6195
85.7662
85.0152
86.8023
86.974
87.8676
88.5433
89.2344
89.9541
90.6615
91.3786
92.0953
92.8199
93.5255
94.2598
94.9049
95.6718
96.1274
97.0105
67.1514
67.5936
70.5672
69.3269
71.8581
71.8488
73.1556
73.9658
74.9056
75.8588
76.8112
77.7818
78.7552
79.7409
80.7017
81.6962
82.5765
83.6121
84.2638
85.4346
50.1042
49.4952
53.0932
51.204
54.5998
54.1028
55.9964
56.8173
58.0656
59.2499
60.4676
61.7097
62.9518
64.2019
65.4088
66.6248
67.6931
68.8766
69.6068
70.8301
35.9181
33.5874
37.0526
33.9194
37.5545
36.1572
38.1546
38.6271
39.9705
41.2124
42.6696
44.2479
45.9347
47.7359
49.5722
51.4923
53.2797
55.0864
56.1789
57.8899
37.9844
34.1409
37.1201
31.2918
32.8512
29.1827
28.6127
26.6411
25.5937
24.4864
23.7681
23.2944
23.0991
23.1734
23.4118
24.0953
25.2005
27.1788
29.081
31.7371
26.8152
19.7498
27.9358
20.9622
22.8959
19.5209
18.2067
15.6425
13.3959
10.8817
8.43017
5.95347
3.50397
1.04164
-1.37785
-3.1291
-3.62559
-2.3448
-1.17251
1.2147
50.0754
26.9087
34.5895
22.9671
19.655
12.4697
6.96694
1.19654
-3.85413
-8.34989
-12.0696
-14.9346
-16.8593
-17.7816
-17.6522
-16.3713
-13.8898
-11.2586
-9.46379
-6.94467
748.959
665.672
616.147
559.462
510.073
462.409
418.114
376.295
336.986
299.912
264.939
231.874
200.491
170.706
142.61
115.582
90.5524
71.8797
48.8259
10.9872
748.834
665.547
616.021
559.335
509.946
462.28
417.984
376.164
336.852
299.777
264.802
231.735
200.351
170.565
142.47
115.445
90.4195
71.7462
48.6883
10.8451
49.9507
26.7807
34.4615
22.8371
19.5245
12.3378
6.83446
1.06328
-3.98776
-8.48377
-12.2034
-15.0678
-16.9915
-17.9121
-17.7808
-16.4974
-14.0137
-11.3812
-9.59239
-7.08264
26.6332
19.5607
27.7428
20.7627
22.6913
19.31
17.9895
15.4184
13.1644
10.6423
8.18213
5.69611
3.23662
0.763778
-1.6662
-3.42496
-3.92504
-2.65197
-1.48632
0.891284
37.6831
33.8341
36.8093
30.9745
32.5278
28.8523
28.2749
26.2954
25.2397
24.1237
23.3963
22.9134
22.7084
22.7733
23.0025
23.6785
24.7811
26.7616
28.6665
31.3222
35.5997
33.2689
36.7343
33.6007
37.236
35.8384
37.8367
38.3091
39.6537
40.8964
42.3551
43.9352
45.6242
47.4282
49.2677
51.1915
52.9824
54.7931
55.8864
57.6017
49.805
49.1962
52.7947
50.9053
54.3028
53.8046
55.7003
56.5205
57.7697
58.9541
60.1722
61.4146
62.657
63.9075
65.1147
66.3312
67.3996
68.5839
69.3137
70.5368
66.848
67.2901
70.2646
69.0231
71.5565
71.5453
72.8537
73.6632
74.6035
75.5571
76.5099
77.4812
78.4554
79.4421
80.4039
81.3998
82.281
83.3184
83.9712
85.1421
82.591
83.3379
85.4871
84.7365
86.5268
86.6989
87.5948
88.272
88.9651
89.6867
90.3961
91.1155
91.8342
92.5613
93.2691
94.0061
94.6534
95.4234
95.8805
96.768
94.8222
95.2971
96.8099
96.0172
97.4171
97.2855
97.8934
98.2254
98.6052
98.9989
99.3774
99.7697
100.159
100.56
100.949
101.361
101.719
102.153
102.402
102.872
101.965
101.75
102.951
101.897
103.308
102.663
103.259
103.233
103.441
103.593
103.748
103.921
104.088
104.271
104.444
104.637
104.8
105.002
105.119
105.315
105.061
104.284
105.169
104.169
105.529
104.542
105.28
104.997
105.195
105.218
105.292
105.369
105.439
105.527
105.6
105.695
105.762
105.858
105.907
105.983
105.499
104.696
105.417
104.66
105.769
104.859
105.608
105.295
105.532
105.535
105.621
105.689
105.756
105.83
105.891
105.968
106.016
106.094
106.124
106.189
105.185
104.565
105.481
104.771
105.68
105.133
105.715
105.574
105.816
105.875
106.006
106.101
106.208
106.299
106.393
106.481
106.555
106.648
106.691
106.793
105.939
105.519
106.58
105.807
106.595
106.351
106.728
106.735
106.928
107.012
107.15
107.234
107.36
107.429
107.548
107.611
107.71
107.788
107.848
107.963
107.564
107.262
108.283
107.514
108.152
107.983
108.214
108.232
108.358
108.401
108.511
108.538
108.659
108.663
108.793
108.79
108.91
108.933
109.007
109.095
109.701
109.341
110.248
109.451
109.962
109.703
109.839
109.767
109.827
109.78
109.846
109.779
109.879
109.78
109.912
109.801
109.932
109.857
109.934
109.948
109.735
109.386
110.236
109.495
110.025
109.72
109.905
109.78
109.871
109.777
109.863
109.74
109.865
109.692
109.861
109.664
109.834
109.679
109.778
109.738
112.676
112.04
112.755
111.835
112.232
111.74
111.808
111.512
111.484
111.22
111.199
110.899
110.936
110.574
110.676
110.28
110.395
110.048
110.094
109.865
107.44
107.377
108.123
107.705
108.379
108.042
108.371
108.019
108.106
107.742
107.712
107.273
107.262
106.743
106.804
106.262
106.366
105.909
105.977
105.722
125.758
123.701
123.461
121.293
120.399
118.179
116.828
115.219
114.073
112.576
111.679
110.481
109.975
108.949
108.799
107.916
107.978
107.303
107.376
106.994
)
;

boundaryField
{
    outletWall
    {
        type            fixedValue;
        value           uniform 0;
    }
    fineWalls
    {
        type            zeroGradient;
    }
    fineFrontAndBack
    {
        type            zeroGradient;
    }
    fineplugLeft
    {
        type            cyclicAMI;
        value           nonuniform List<scalar> 
20
(
95.0089
95.315
95.7746
96.4228
96.5651
97.4647
97.6435
98.6033
99.0099
100.062
100.734
101.911
103.104
109.383
104.773
105.335
105.27
106.733
105.719
105.063
)
;
    }
    fineplugRight
    {
        type            cyclicAMI;
        value           nonuniform List<scalar> 
20
(
94.9181
95.2126
95.664
96.3089
96.4449
97.3407
97.5141
98.4708
98.8726
99.9218
100.589
101.762
102.948
109.214
104.601
105.168
105.099
106.57
105.552
104.898
)
;
    }
    inletOutletLeft
    {
        type            cyclicAMI;
        value           nonuniform List<scalar> 
20
(
95.0089
95.315
95.7746
96.4228
96.5651
97.4647
97.6435
98.6033
99.0099
100.062
100.734
101.911
103.104
109.383
104.773
105.335
105.27
106.733
105.719
105.063
)
;
    }
    inletLeft
    {
        type            zeroGradient;
    }
    inletWallsLeft
    {
        type            zeroGradient;
    }
    inletFacesLeft
    {
        type            zeroGradient;
    }
    inletOutletRight
    {
        type            cyclicAMI;
        value           nonuniform List<scalar> 
20
(
94.9181
95.2126
95.664
96.3089
96.4449
97.3407
97.5141
98.4708
98.8726
99.9218
100.589
101.762
102.948
109.214
104.601
105.168
105.099
106.57
105.552
104.898
)
;
    }
    inletRight
    {
        type            zeroGradient;
    }
    inletWallsRight
    {
        type            zeroGradient;
    }
    inletFacesRight
    {
        type            zeroGradient;
    }
}


// ************************************************************************* //
