/*--------------------------------*- C++ -*----------------------------------*\
| =========                 |                                                 |
| \\      /  F ield         | OpenFOAM: The Open Source CFD Toolbox           |
|  \\    /   O peration     | Version:  4.1                                   |
|   \\  /    A nd           | Web:      www.OpenFOAM.org                      |
|    \\/     M anipulation  |                                                 |
\*---------------------------------------------------------------------------*/
FoamFile
{
    version     2.0;
    format      ascii;
    class       surfaceScalarField;
    location    "2";
    object      phi;
}
// * * * * * * * * * * * * * * * * * * * * * * * * * * * * * * * * * * * * * //

dimensions      [0 3 -1 0 0 0 0];

internalField   nonuniform List<scalar> 
2360
(
4940.72
5524.61
-583.888
5524.6
5524.61
6204.63
-680.027
6204.63
6204.63
6204.63
6811.61
-606.984
6811.61
6811.61
7286.05
-474.443
7286.05
7286.05
7260.27
25.7714
7260.27
7260.26
8708.79
-1448.54
8708.77
8708.76
9589.04
10658
11642.7
12541.4
13433.8
14315.4
8835.4
6392.23
9778.71
10743.1
11727.1
12720.8
13725.9
14726.7
15739.3
16738.1
17755.8
18750.7
19783
20742.6
21816.7
4691.12
17125.5
4691.12
4691.11
4691.11
168.274
4522.83
168.266
168.256
168.252
-11.2729
179.466
-11.4384
-11.4971
-125.523
114.021
-125.533
-125.535
-125.541
-4666.02
4540.48
-4666.02
-4666.03
-4666.03
-21790.3
17124.3
-20716.1
-19756
-18724.1
-17729.4
-16711.8
-15713.3
-14700.9
-13700.4
-12695.5
-11702
-10718.2
-9753.79
-8810.49
-14316.8
6418.66
-13435.2
-12542.7
-11644
-10659.2
-9589.74
-8708.98
-8708.99
-8709.01
-7254.42
-1454.59
-7254.43
-7254.42
-7275.41
20.9834
-7275.4
-7275.41
-6798.28
-477.127
-6798.28
-6798.28
-6189.68
-608.602
-6189.68
-6189.68
-6189.68
-5508.26
-681.424
-5508.25
-5508.25
-4924.46
-583.79
-531.588
-1094.52
-595.614
-1740.27
-682.279
-2132.27
-793.731
-2578.43
-932.243
-3034.88
-1104.61
-3541.36
-1321.3
-4111.45
-1599.1
-4774.09
-1956.29
-5558.42
-2384.31
-6536.07
-2781.5
-7907.36
-2891.51
-9683.11
-2195.29
-9677.83
-259.154
-1659.98
695.087
8425.79
1033.95
12392.9
1057.72
11875.3
1030.57
10517
7368.71
-743.282
-1053.11
-827.455
-1656.1
-944.031
-2015.69
-1093.2
-2429.26
-1278.83
-2849.25
-1511.51
-3308.68
-1810.69
-3812.27
-2211.22
-4373.55
-2760.16
-5009.48
-3479.57
-5816.66
-4279.35
-7107.58
-4861.15
-9101.31
-4374.68
-10164.3
-1376.13
-4658.53
518.125
6531.53
746.055
12164.9
818.609
11802.7
951.747
10383.9
7639.04
-877.692
-1000.86
-976.175
-1557.62
-1112.6
-1879.27
-1285.78
-2256.07
-1500.93
-2634.1
-1772.54
-3037.07
-2131.86
-3452.95
-2638.6
-3866.81
-3379.93
-4268.16
-4430.55
-4766.03
-5750.14
-5787.99
-7015.8
-7835.65
-7068.02
-10112.1
-3659.07
-8067.48
-138.618
3011.07
403.944
11622.4
448.802
11757.9
736.903
10095.8
7767.33
-1030.15
-932.582
-1150.65
-1437.12
-1312.79
-1717.12
-1516.07
-2052.79
-1767.1
-2383.07
-2087.56
-2716.61
-2530.29
-3010.21
-3197.05
-3200.06
-4227.45
-3237.76
-5732.82
-3260.66
-7653.35
-3867.46
-9571.06
-5917.94
-10256.5
-9426.59
-7433.46
-10890.6
-1990.75
-2431.65
-1.76639
9633.4
-50.963
11807.1
519.438
9525.41
7809.64
-1189.59
-844.959
-1336.11
-1290.61
-1526.91
-1526.32
-1762.88
-1816.82
-2052.7
-2093.25
-2430.13
-2339.18
-2981.15
-2459.2
-3857.21
-2323.99
-5213.15
-1881.83
-7073.81
-1400
-9181.74
-1759.52
-11034.2
-4065.45
-11898.8
-8562.03
-10308.4
-12480.9
-4717.19
-8022.91
-833.542
5749.75
-584.57
11558.1
-328.138
9268.97
7502.47
-1362.21
-734.127
-1539.92
-1112.9
-1763.55
-1302.69
-2036.75
-1543.62
-2371.58
-1758.42
-2817.35
-1893.41
-3493.24
-1783.3
-4568.74
-1248.49
-6090.8
-359.77
-7790.79
299.995
-9061.89
-488.428
-9611.31
-3516.02
-9997.81
-8175.53
-10374.9
-12103.8
-8005.18
-10392.6
-2973.55
718.121
-303.121
8887.67
924.947
8040.9
6972.82
-1551.99
-596.289
-1766.26
-898.623
-2027.56
-1041.4
-2344.22
-1226.96
-2731.29
-1371.36
-3241.96
-1382.74
-3976.4
-1048.86
-4985.66
-239.23
-6074.13
728.702
-6771.46
997.327
-6526.56
-733.326
-5896.89
-4145.7
-6552.59
-7519.83
-9300.88
-9355.52
-11189.4
-8504.11
-7770.4
-2700.9
-3416.34
4533.61
-3122.39
7746.95
10269.1
-1760.4
-427.985
-2016.66
-642.363
-2320.77
-737.291
-2686.81
-860.908
-3124.48
-933.69
-3648.82
-858.397
-4236.52
-461.162
-4772.34
296.586
-5054.91
1011.27
-4773.11
715.528
-4100.99
-1405.44
-4305.75
-3940.94
-6549.41
-5276.17
-10821
-5083.92
-15175.7
-4149.42
-16376.1
-1500.48
-15312.6
3470.11
-16042.2
8476.5
11351.2
-1980.39
-227.793
-2281.91
-340.835
-2631.2
-388.007
-3044.15
-447.951
-3509.84
-468.008
-3985.08
-383.158
-4346.11
-100.13
-4415.81
366.284
-4093.56
689.025
-3571.36
193.327
-3751.19
-1225.61
-5446.7
-2245.43
-8604.07
-2118.8
-12462.7
-1225.33
-15924
-688.097
-17489.1
64.6564
-16386.6
2367.62
-12715.2
4805.09
3176.42
-2170.78
-0.0607555
-2511.46
-0.151486
-2899.19
-0.279963
-3346.57
-0.562713
-3813.23
-1.3479
-4192.79
-3.60589
-4283.8
-9.11843
-3898.19
-19.3274
-3176.83
-32.3362
-2949.91
-33.5918
-4170.15
-5.37221
-6444.65
29.0697
-8611.59
48.1416
-9870.22
33.3023
-10559.3
0.941725
-10492.8
-1.7801
-8131.58
6.36937
-3317.79
-8.70534
-27.3628
-2170.82
227.69
-2511.54
340.575
-2899.34
387.519
-3346.9
446.991
-3814.12
465.877
-4195.83
378.106
-4293.77
88.8237
-3924.29
-388.809
-3226.76
-729.872
-3009.81
-250.543
-4207.1
1191.92
-6443
2264.97
-8576.79
2181.94
-9820.81
1277.32
-10518.8
698.969
-10468.5
-52.1626
-8114.64
-2347.45
-3320.08
-4803.26
-3167.98
-1980.44
427.906
-2282.03
642.157
-2631.39
736.887
-3044.48
860.073
-3510.39
931.791
-3986.3
854.018
-4349.92
452.437
-4428.51
-310.216
-4126.87
-1031.52
-3630.26
-747.146
-3812.93
1374.59
-5475.7
3927.74
-8584.57
5290.81
-12420.1
5112.83
-15896.9
4175.81
-17489.1
1540.02
-16401.9
-3434.65
-12729.6
-8475.54
-11374.8
-1760.45
596.234
-2016.77
898.476
-2320.98
1041.1
-2687.25
1226.35
-3125.45
1369.99
-3651.04
1379.61
-4241.27
1042.66
-4781.96
230.475
-5075.13
-738.345
-4811.87
-1010.41
-4153.41
716.136
-4352.61
4126.94
-6571.7
7509.89
-10825
9366.16
-15188
8538.79
-16408.2
2760.24
-15338
-4504.87
-16046.2
-7767.33
-10295.5
-1552.01
734.092
-1766.34
1112.81
-2027.75
1302.5
-2344.64
1543.24
-2732.21
1757.56
-3244.11
1891.5
-3981.1
1779.65
-4994.32
1243.7
-6089.33
356.658
-6798.64
-301.099
-6568.34
485.844
-5948.66
3507.25
-6602.77
8164
-9341.4
12104.8
-11227.1
10424.5
-7801.14
-665.762
-3424.43
-8881.58
-3110.59
-8081.17
-7013.88
-1362.21
844.939
-1539.97
1290.56
-1763.7
1526.23
-2037.11
1816.64
-2372.4
2092.86
-2819.2
2338.31
-3497.16
2457.61
-4575.71
2322.24
-6101.27
1882.22
-7806.55
1404.17
-9086.67
1765.97
-9648.49
4069.07
-10044.4
8559.87
-10420.1
12480.5
-8039.02
8043.45
-2980.57
-5724.22
-295.954
-11566.2
922.25
-9299.38
-7540.18
-1189.58
932.574
-1336.13
1437.12
-1527.02
1717.12
-1763.16
2052.79
-2053.36
2383.05
-2431.59
2716.53
-2984.06
3010.08
-3862.15
3200.33
-5219.99
3240.06
-7082.43
3266.62
-9193.38
3876.92
-11051.9
5927.63
-11923.9
9431.88
-10335.1
10891.7
-4730.96
2439.31
-829.976
-9625.21
-581.017
-11815.2
-332.542
-9547.86
-7846.96
-1030.13
1000.86
-1150.65
1557.65
-1312.87
1879.34
-1516.29
2256.21
-1767.59
2634.36
-2088.61
3037.56
-2532.36
3453.83
-3200.52
3868.49
-4232.15
4271.69
-5738.08
4772.56
-7658.87
5797.7
-9577.95
7846.71
-10266.5
10120.4
-7444.61
8069.83
-1995.13
-3010.17
0.402495
-11620.7
-49.8383
-11764.9
517.344
-10115
-7804.06
-877.658
1053.11
-976.162
1656.15
-1112.64
2015.81
-1285.93
2429.5
-1501.28
2849.71
-1773.26
3309.54
-2133.23
3813.8
-2640.92
4376.18
-3383.14
5013.91
-4434.11
5823.53
-5753.35
7116.94
-7018.73
9112.09
-7071.92
10173.6
-3664.31
4662.22
-141.119
-6533.36
404.575
-12166.4
448.554
-11808.9
735.156
-10401.6
-7675.88
-743.242
1094.52
-827.428
1740.34
-944.042
2132.43
-1093.29
2578.74
-1279.05
3035.48
-1511.97
3542.45
-1811.54
4113.37
-2212.66
4777.3
-2762.21
5563.46
-3481.97
6543.29
-4281.6
7916.57
-4863
9693.49
-4376.89
9687.47
-1379
1664.33
516.377
-8428.74
745.958
-12396
817.734
-11880.7
950.592
-10534.5
-7405.32
-531.542
-595.571
-682.254
-793.743
-932.324
-1104.8
-1321.67
-1599.71
-1957.18
-2385.43
-2782.73
-2892.75
-2196.92
-261.486
693.399
1033.08
1056.7
1030.29
136.498
-1016.81
259.462
-1191.98
343.953
-1069.15
399.796
-954.663
464.659
-957.281
529.762
-946.699
565.584
-948.016
561.698
-939.399
538.369
-941.093
497.473
-943.053
446.537
-942.724
392.965
-951.558
338.399
-946.173
287.659
-961.93
237.295
-948.382
191.637
-972.044
145.743
-949.096
103.475
-990.043
55.2949
-911.377
-1018.75
60.3481
-1077.17
81.7906
-1213.44
98.9572
-1086.34
103.028
-958.752
94.6585
-948.929
83.9556
-936.014
84.1664
-948.243
90.6323
-945.882
97.3752
-947.851
102.96
-948.653
106.408
-946.186
106.561
-951.725
104.758
-944.381
99.0704
-956.256
92.9936
-942.316
82.4434
-961.504
73.6214
-940.28
58.8351
-975.263
54.0119
-906.56
-964.742
40.7226
-1117.91
109.569
-1282.3
169.248
-1146.03
198.359
-987.879
196.739
-947.324
190.409
-929.699
177.807
-935.655
166.833
-934.924
154.821
-935.854
142.975
-936.822
131.609
-934.834
119.234
-939.363
108.698
-933.858
95.7652
-943.335
86.1839
-932.746
72.6487
-947.979
64.2054
-931.845
49.6234
-960.689
48.4623
-905.407
-916.28
30.5532
-1148.47
116.274
-1368.03
185.563
-1215.32
215.979
-1018.3
210.711
-942.062
196.512
-915.508
182.321
-921.472
170.942
-923.553
159.714
-924.632
148.335
-925.451
137.351
-923.856
125.231
-927.25
114.612
-923.246
101.615
-930.344
91.6765
-922.814
77.8257
-934.134
68.8784
-922.903
53.622
-945.438
53.539
-905.329
-862.741
31.1498
-1179.63
139.811
-1476.7
221.558
-1297.08
253.312
-1050.07
247.404
-936.168
229.975
-898.093
212.855
-904.365
198.206
-908.919
184.065
-910.504
169.696
-911.095
155.893
-910.066
141.117
-912.486
127.982
-910.123
112.742
-915.115
100.642
-910.725
84.9582
-918.459
74.173
-912.125
57.3875
-928.659
55.3759
-903.325
-807.365
44.513
-1224.15
156.556
-1588.74
218.276
-1358.8
228.603
-1060.4
224.146
-931.712
212.444
-886.393
203.189
-895.112
193.011
-898.744
182.659
-900.154
170.978
-899.416
159.236
-898.326
146.114
-899.367
133.919
-897.929
119.626
-900.824
107.589
-898.691
92.2224
-903.094
80.5139
-900.418
63.1522
-911.299
56.5616
-896.736
-750.803
72.133
-1296.28
151.297
-1667.91
152.976
-1360.49
132.121
-1039.55
141.542
-941.139
147.882
-892.739
155.444
-902.68
155.925
-899.231
154.251
-898.485
149.548
-894.719
143.549
-892.331
135.417
-891.241
127.134
-889.65
116.593
-890.286
107.036
-889.138
94.2871
-890.348
83.1626
-889.295
66.5572
-894.695
53.8953
-884.076
-696.908
102.597
-1398.88
104.411
-1669.72
42.1103
-1298.18
24.4829
-1021.92
62.3899
-979.04
92.8185
-923.162
117.046
-926.902
129.395
-911.574
136.653
-905.739
139.156
-897.217
138.612
-891.782
134.97
-887.595
129.861
-884.537
122.213
-882.635
114.076
-880.998
102.762
-879.03
90.4826
-877.015
72.3973
-876.608
50.2644
-861.941
-646.643
106.876
-1505.76
24.365
-1587.22
-26.7607
-1247.07
6.93874
-1055.63
65.3672
-1037.48
113.231
-971.041
144.605
-958.287
164.364
-931.347
175.651
-917.036
180.901
-902.479
181.136
-892.026
177.196
-883.665
170.33
-877.677
160.491
-872.804
148.609
-869.12
133.362
-863.788
114.396
-858.051
88.3625
-850.577
51.9917
-825.572
-594.652
59.2865
-1565.05
-30.5935
-1497.34
6.99196
-1284.65
91.5085
-1140.14
154.97
-1100.94
210.767
-1026.83
244.264
-991.779
267.526
-954.606
279.437
-928.942
283.65
-906.688
280.746
-889.117
272.072
-874.988
258.654
-864.255
241.176
-855.323
219.884
-847.824
194.284
-838.183
162.354
-826.117
120.679
-808.898
65.58
-770.468
-529.072
-16.046
-1549
-1.0825
-1512.3
111.149
-1396.88
216.6
-1245.6
285.338
-1169.68
345.379
-1086.88
384.224
-1030.62
411.254
-981.637
424.944
-942.631
428.205
-909.95
421.879
-882.789
407.33
-860.439
385.572
-842.494
357.575
-827.325
323.437
-813.683
282.828
-797.573
233.327
-776.612
170.361
-745.929
92.7658
-692.867
-436.306
-40.783
-1508.2
84.9656
-1638.03
218.117
-1530.02
324.963
-1352.43
405.117
-1249.82
472.363
-1154.11
522.485
-1080.73
557.944
-1017.08
578.175
-962.849
584.629
-916.391
578.331
-876.479
560.455
-842.549
531.96
-813.987
493.737
-789.091
445.95
-765.883
388.14
-739.752
318.463
-706.927
231.792
-659.248
128.552
-589.614
-307.753
9.4743
-1517.67
157.716
-1786.27
278.554
-1650.85
374.815
-1448.69
465.803
-1340.8
543.049
-1231.35
608.012
-1145.69
657.124
-1066.19
689.935
-995.654
706.366
-932.818
706.83
-876.937
691.889
-827.604
662.042
-784.134
617.702
-744.747
559.014
-707.188
485.665
-666.397
397.173
-618.429
289.712
-551.779
160.871
-460.76
-146.881
91.7174
-1609.38
193.417
-1887.96
277.912
-1735.33
353.177
-1523.94
443.038
-1430.65
521.242
-1309.54
594.032
-1218.47
653.056
-1125.2
698.31
-1040.9
727.661
-962.158
740.105
-889.371
734.705
-822.194
710.723
-760.142
667.611
-701.625
605.375
-644.943
524.404
-585.417
425.945
-519.963
308.079
-433.906
160.779
-313.441
13.898
157.868
-1767.24
185.502
-1915.59
228.19
-1778.01
278.383
-1574.12
349.15
-1501.41
410.446
-1370.83
473.047
-1281.06
526.788
-1178.93
573.255
-1087.36
608.421
-997.314
630.303
-911.245
636.287
-828.168
624.458
-748.306
593.364
-670.521
542.33
-593.9
470.578
-513.657
378.355
-427.734
265.326
-320.869
121.698
-169.795
135.596
161.122
-1928.35
131.13
-1885.59
156.374
-1803.25
193.592
-1611.33
242.272
-1550.08
287.931
-1416.47
336.685
-1329.8
383.043
-1225.28
428.399
-1132.7
469.176
-1038.08
503.97
-946.031
530.503
-854.689
547.648
-765.444
553.259
-676.122
540.533
-581.167
495.376
-468.492
406.659
-339.012
281.665
-195.867
134.008
-22.1255
269.605
72.6008
-2000.95
14.664
-1827.65
18.8436
-1807.42
41.615
-1634.1
66.44
-1574.9
105.918
-1455.95
150.327
-1374.21
204.212
-1279.16
265.043
-1193.53
332.623
-1105.65
406.732
-1020.13
488.111
-936.063
577.945
-855.272
671.228
-769.401
742.883
-652.816
742.327
-467.932
622.735
-219.413
359.607
67.2699
148.037
189.455
417.642
-127.637
-1873.31
-293.849
-1661.43
-414.146
-1687.12
-489.323
-1558.92
-554.271
-1509.95
-584.194
-1426.02
-598.075
-1360.32
-588.225
-1289
-560.087
-1221.66
-512.233
-1153.5
-445.39
-1086.97
-358.341
-1023.11
-251.616
-961.993
-132.191
-888.821
-23.0281
-761.973
39.1777
-530.131
31.6211
-211.838
11.828
87.0836
-49.1142
250.407
368.528
-215.829
-1657.48
-472.466
-1404.79
-746.305
-1413.28
-975.729
-1329.49
-1194.86
-1290.82
-1379.74
-1241.14
-1540.64
-1199.42
-1672.31
-1157.34
-1777.31
-1116.66
-1854.9
-1075.91
-1906.64
-1035.23
-1934.65
-995.099
-1941.67
-954.973
-1923.03
-907.454
-1853.19
-831.818
-1680.5
-702.82
-1368.06
-524.276
-935.657
-345.313
-477.738
-207.508
-109.21
-682.475
-1112.27
-1550.55
-1905.04
-2220.85
-2486.99
-2711.41
-2893.74
-3035.4
-3136.31
-3196.54
-3216.64
-3196.61
-3129.06
-2985.88
-2713.7
-2262.97
-1633.28
-865.79
-682.481
1657.48
-1112.28
1404.8
-1550.58
1413.3
-1905.09
1329.51
-2220.93
1290.85
-2487.11
1241.17
-2711.57
1199.46
-2893.96
1157.39
-3035.67
1116.71
-3136.63
1075.96
-3196.91
1035.28
-3217.06
995.151
-3197.07
955.011
-3129.49
907.421
-2986.11
831.623
-2713.58
702.47
-2262.58
523.999
-1632.88
345.307
-865.592
207.71
109.408
-215.919
1873.4
-472.688
1661.57
-746.652
1687.26
-976.223
1559.08
-1195.51
1510.13
-1380.57
1426.23
-1541.65
1360.55
-1673.52
1289.25
-1778.74
1221.93
-1856.56
1153.78
-1908.54
1087.27
-1936.81
1023.42
-1944.08
962.28
-1925.59
888.936
-1855.66
761.692
-1682.48
529.294
-1369.17
210.689
-935.819
-88.0377
-477.66
-250.443
-368.252
-127.778
2001.18
-294.088
1827.88
-414.513
1807.69
-489.825
1634.4
-554.904
1575.21
-584.972
1456.3
-599
1374.58
-589.306
1279.56
-561.328
1193.95
-513.639
1106.1
-446.961
1020.59
-360.075
936.535
-253.525
855.733
-134.341
769.755
-25.5215
652.877
36.4188
467.359
29.1932
217.93
10.1684
-68.9966
-50.1768
-190.09
-418.429
72.4592
1928.72
14.6348
1885.71
18.8483
1803.48
41.6524
1611.59
66.5022
1550.37
106.021
1416.79
150.468
1330.14
204.4
1225.63
265.281
1133.07
332.925
1038.46
407.119
946.402
488.619
855.038
578.599
765.756
671.991
676.366
743.596
581.275
742.621
468.337
622.047
338.506
357.876
195.178
147.078
20.7135
-271.351
160.913
1767.81
130.994
1915.63
156.313
1778.16
193.552
1574.36
242.183
1501.74
287.803
1371.17
336.5
1281.45
382.796
1179.34
428.089
1087.78
468.832
997.719
503.641
911.596
530.233
828.45
547.48
748.512
553.206
670.643
540.569
593.915
495.395
513.514
406.545
427.358
281.536
320.191
134.011
168.244
-137.34
157.722
1610.09
185.268
1888.09
227.94
1735.49
278.057
1524.25
348.676
1431.12
409.836
1310.01
472.292
1218.99
525.875
1125.76
572.196
1041.47
607.283
962.636
629.176
889.706
635.238
822.391
623.518
760.234
592.535
701.629
541.596
644.856
469.902
585.211
377.681
519.581
264.617
433.256
120.977
311.889
-16.3632
91.7561
1518.34
193.324
1786.52
277.705
1651.12
352.862
1449.1
442.668
1341.32
520.864
1231.82
593.645
1146.21
652.623
1066.79
697.841
996.25
727.219
933.263
739.762
877.166
734.503
827.653
710.659
784.081
667.655
744.636
605.474
707.039
524.493
666.194
425.942
618.133
307.861
551.339
160.173
459.58
143.81
9.64369
1508.7
157.774
1638.4
278.424
1530.47
374.628
1352.89
465.771
1250.18
543.226
1154.37
608.365
1081.08
657.595
1017.56
690.516
963.332
707.08
916.701
707.685
876.562
692.877
842.464
663.13
813.831
618.854
788.914
560.169
765.726
486.75
739.615
398.081
706.805
290.274
659.147
160.834
589.024
304.644
-40.5447
1549.25
85.1224
1512.74
218.012
1397.59
324.902
1246.01
405.385
1169.71
472.928
1086.84
523.289
1030.72
558.925
981.936
579.327
942.937
585.934
910.102
579.747
882.755
561.938
860.28
533.472
842.303
495.251
827.14
447.419
813.563
389.511
797.528
319.633
776.687
232.558
746.225
128.614
692.973
433.258
-15.8491
1565.1
-0.73942
1497.63
111.258
1285.59
216.8
1140.47
285.919
1100.59
346.181
1026.58
385.225
991.682
412.404
954.759
426.252
929.089
429.627
906.729
423.355
889.027
408.816
874.821
387.038
864.082
359.012
855.168
324.819
847.757
284.136
838.212
234.485
826.34
171.184
809.527
93.0086
771.15
526.267
59.3287
1505.78
-30.0734
1587.03
7.60604
1247.91
92.1709
1055.91
155.882
1036.88
211.725
970.735
245.317
958.093
268.651
931.428
280.648
917.095
284.892
902.487
281.97
891.952
273.245
883.548
259.765
877.565
242.227
872.707
220.875
869.111
195.226
863.863
163.213
858.354
121.348
851.393
66.0156
826.484
592.282
106.793
1398.98
24.8385
1668.98
-25.6274
1298.37
8.21327
1022.06
66.6012
978.483
114.345
922.982
145.659
926.771
165.401
911.677
176.668
905.822
181.856
897.291
181.992
891.809
177.938
887.595
170.958
884.539
161.02
882.64
149.057
881.069
133.763
879.153
114.765
877.35
88.7033
877.453
52.5051
862.68
644.787
102.461
1296.52
104.625
1666.82
43.1993
1359.8
25.982
1039.28
63.6857
940.778
93.9238
892.742
117.963
902.73
130.225
899.413
137.38
898.666
139.76
894.91
139.066
892.502
135.268
891.391
130.012
889.794
122.234
890.418
114.001
889.301
102.634
890.519
90.3629
889.62
72.3931
895.422
50.6885
884.383
695.476
71.9645
1224.55
151.25
1587.52
153.472
1357.57
133.072
1059.67
142.396
931.446
148.616
886.512
156.014
895.324
156.417
899.001
154.647
900.427
149.84
899.709
143.713
898.621
135.449
899.647
127.036
898.2
116.379
901.068
106.735
898.94
93.9429
903.305
82.8469
900.712
66.437
911.828
54.1935
896.623
749.669
44.3231
1180.22
156.386
1475.46
218.225
1295.72
228.721
1049.17
224.251
935.911
212.549
898.207
203.267
904.601
193.091
909.171
182.726
910.787
171.024
911.406
159.242
910.397
146.071
912.813
133.817
910.45
119.471
915.409
107.389
911.017
92.0091
918.681
80.3362
912.381
63.1757
928.985
56.789
903.006
806.458
30.9755
1149.24
139.618
1366.81
221.26
1214.07
252.933
1017.49
246.97
941.868
229.604
915.565
212.556
921.641
197.991
923.728
183.92
924.851
169.618
925.7
155.871
924.138
141.139
927.539
128.036
923.548
112.821
930.618
100.737
923.097
85.0746
934.338
74.3274
923.126
57.6919
945.618
55.619
905.076
862.077
30.4619
1118.77
116.033
1281.23
185.092
1145.01
215.342
987.232
209.987
947.219
195.867
929.681
181.772
935.732
170.512
934.985
159.393
935.966
148.136
936.954
137.271
934.999
125.263
939.543
114.751
934.056
101.841
943.524
91.9815
932.952
78.1839
948.133
69.2924
932.014
54.1329
960.774
53.8177
905.388
915.895
40.7462
1078.02
109.24
1212.74
168.646
1085.6
197.604
958.271
195.853
948.967
189.586
935.945
177.033
948.281
166.177
945.837
154.273
947.867
142.564
948.659
131.339
946.221
119.098
951.781
108.71
944.442
95.8947
956.336
86.4513
942.393
73.0001
961.582
64.6639
940.348
50.1805
975.256
48.7585
906.808
964.653
60.4637
1017.55
81.2099
1191.99
97.9437
1068.87
101.922
954.289
93.553
957.332
82.9226
946.571
83.1772
948.023
89.7041
939.307
96.4966
941.072
102.148
943.005
105.683
942.683
105.954
951.508
104.317
946.077
98.8032
961.849
92.9527
948.243
82.5766
971.957
73.9909
948.934
59.4332
989.815
54.2996
911.943
1018.95
136.785
259.322
343.379
398.977
463.734
528.657
564.374
560.39
537.053
496.229
445.457
392.091
337.711
287.11
236.855
191.286
145.504
103.418
55.2909
)
;

boundaryField
{
    outletWall
    {
        type            calculated;
        value           nonuniform List<scalar> 
60
(
-4924.46
-6921.93
-10489.9
-11899.1
-12731.7
-9380.03
-276.157
8981.61
9793.11
8304.55
6964.08
5915.61
5051.88
4328.14
3713.72
3173.39
2689.88
2218.93
1804.3
1124.28
501.79
701.827
825.405
961.844
1101.94
1251.36
1414.15
1592.12
1780.23
1943.07
1943.04
1780.19
1592.1
1414.15
1251.38
1101.97
961.877
825.443
701.868
501.833
-4940.72
-6958.92
-10508.1
-11904.3
-12735.7
-9383.63
-271.105
8991.64
9803.52
8313.87
6971.54
5920.93
5055.34
4330.24
3714.93
3174.06
2690.23
2219.11
1804.36
1124.27
)
;
    }
    fineWalls
    {
        type            calculated;
        value           uniform 0;
    }
    fineFrontAndBack
    {
        type            calculated;
        value           nonuniform List<scalar> 
960
(
-2.72825e-15
-6.31769e-14
3.59764e-14
2.66367e-14
1.85273e-14
-1.68188e-14
-4.30642e-14
1.25368e-13
-9.70332e-13
-4.29236e-13
-4.99001e-13
5.73275e-12
1.75437e-12
8.50929e-13
1.08829e-11
2.1194e-12
1.02835e-12
2.58457e-12
-7.45647e-13
-9.2665e-13
-4.27927e-13
-1.07867e-12
-1.21854e-12
-1.24165e-12
-1.21176e-12
-1.26868e-12
-3.15116e-11
-1.84613e-12
-2.01726e-12
-2.154e-12
-2.28477e-12
-2.45314e-12
-2.6687e-12
-2.91717e-12
-3.10798e-12
-3.18681e-12
-3.23835e-12
-3.20216e-12
-3.21429e-12
-3.05477e-12
-7.09306e-11
-8.21093e-12
-6.2114e-12
-2.76969e-12
3.38908e-11
6.27012e-12
1.68106e-12
-4.62181e-12
1.95236e-10
8.4618e-11
-1.71839e-12
-1.4343e-11
-2.37285e-12
-1.14701e-12
-5.51437e-13
1.3129e-11
6.4694e-12
7.57023e-12
9.06696e-12
6.7736e-11
2.77533e-12
2.96623e-12
3.00214e-12
3.09906e-12
3.01281e-12
2.90108e-12
2.76956e-12
2.62509e-12
2.50749e-12
2.40773e-12
2.21158e-12
1.88068e-12
1.44345e-12
7.64056e-12
-2.53498e-14
-4.11917e-13
-3.91922e-13
-2.94446e-13
-1.81841e-13
-6.11553e-13
-3.17124e-12
-3.32029e-12
-1.55097e-11
-1.71478e-12
-3.93854e-13
3.0035e-12
1.72314e-13
8.54676e-13
4.63925e-12
5.2682e-13
1.33943e-12
6.20549e-12
3.64981e-14
2.50337e-15
-9.04383e-15
-1.7608e-13
-8.68394e-14
-1.97384e-13
-1.29103e-12
-4.68004e-14
3.1373e-14
6.21139e-14
7.1818e-14
5.62079e-14
3.82445e-14
7.12726e-14
1.69375e-13
2.74253e-13
3.18917e-13
2.71567e-13
7.67582e-14
-3.74119e-13
-1.05158e-12
-1.33107e-12
-4.84059e-13
-1.0201e-13
4.74548e-15
1.13425e-14
3.44476e-14
4.41837e-14
9.43018e-14
1.07599e-13
6.57225e-14
9.7158e-15
4.89927e-14
2.30823e-13
4.51478e-13
5.51711e-13
4.04263e-13
-1.67133e-13
-1.35892e-12
-2.87931e-12
-3.06323e-12
-5.81012e-13
-1.2466e-13
9.8306e-15
1.66336e-15
1.92764e-14
3.85282e-15
4.49885e-14
5.19008e-14
-3.2637e-14
-1.62426e-13
-1.70242e-13
6.00339e-14
4.04873e-13
5.69856e-13
2.52388e-13
-8.54201e-13
-2.9117e-12
-5.25788e-12
-5.48108e-12
-1.17614e-12
-1.81454e-13
5.28274e-14
2.10687e-14
-4.27213e-14
-1.57323e-13
-1.6809e-13
-1.78818e-13
-3.50927e-13
-6.49251e-13
-8.06409e-13
-5.35456e-13
4.18164e-14
3.40746e-13
-2.60365e-13
-2.09771e-12
-5.0384e-12
-8.03312e-12
-8.63474e-12
-4.15812e-12
3.50137e-13
-1.61961e-13
-1.05597e-13
-6.2284e-13
-5.58105e-13
-6.97526e-13
-7.62095e-13
-1.12149e-12
-1.75419e-12
-2.20276e-12
-1.8422e-12
-7.97854e-13
-2.43127e-13
-1.22162e-12
-3.68794e-12
-6.76726e-12
-9.09607e-12
-9.11882e-12
-5.65523e-12
-2.82267e-13
4.94738e-13
1.07313e-12
2.13539e-12
-1.32855e-12
-1.72751e-12
-1.96689e-12
-2.71784e-12
-3.9041e-12
-4.72756e-12
-4.05242e-12
-2.11655e-12
-1.09543e-12
-2.34663e-12
-4.7636e-12
-6.43239e-12
-6.05569e-12
-2.98251e-12
1.53587e-12
8.15444e-13
-1.93387e-12
-4.54407e-12
-8.19487e-12
-2.5409e-12
-3.44148e-12
-4.16563e-12
-5.6653e-12
-7.61501e-12
-8.69768e-12
-7.21645e-12
-3.76357e-12
-1.76452e-12
-2.59213e-12
-4.1989e-12
-4.4101e-12
-2.2691e-12
5.46738e-12
1.78452e-11
2.15131e-11
9.91256e-12
1.04733e-11
1.61041e-11
-4.0774e-12
-5.88552e-12
-7.65911e-12
-1.044e-11
-1.3383e-11
-1.44801e-11
-1.15025e-11
-5.73911e-12
-2.14857e-12
-2.19888e-12
-3.80277e-12
-5.62341e-12
-3.89233e-12
8.89763e-12
3.25059e-11
5.59552e-11
7.05311e-11
8.68906e-11
1.08473e-10
-5.35908e-12
-8.46118e-12
-1.18687e-11
-1.65156e-11
-2.10635e-11
-2.27817e-11
-1.82691e-11
-8.67514e-12
-1.63423e-12
-1.01014e-12
-7.3975e-12
-1.19883e-11
-6.83462e-12
8.29553e-12
3.44758e-11
6.08029e-11
8.22237e-11
9.35848e-11
7.91456e-11
-4.69006e-12
-8.49397e-12
-1.30125e-11
-1.90535e-11
-2.58383e-11
-3.16877e-11
-3.28554e-11
-2.81618e-11
-2.36799e-11
-1.9789e-11
-2.07738e-11
-1.72374e-11
-8.56812e-12
-2.03921e-12
1.83172e-11
4.47112e-11
6.03446e-11
6.46175e-11
3.20153e-11
2.35585e-12
1.96066e-12
9.63163e-13
1.28645e-14
-3.35342e-13
1.20121e-13
-6.90811e-13
-2.32871e-12
4.68655e-13
-1.72564e-13
-2.38638e-12
-4.29002e-12
-4.94223e-12
-9.11599e-12
-1.99067e-11
-3.63192e-11
-4.91362e-11
-2.73484e-11
1.07766e-10
3.90206e-12
4.18317e-12
3.47497e-12
2.66655e-12
1.91535e-12
1.37452e-12
1.01845e-12
1.07575e-12
1.2917e-12
1.25605e-12
1.4026e-12
7.17607e-13
-2.2e-12
-1.2163e-11
-3.33925e-11
-5.96326e-11
-8.10288e-11
-8.68751e-11
-4.86456e-11
3.27722e-12
3.5137e-12
2.72703e-12
1.88607e-12
1.28617e-12
1.18005e-12
1.37922e-12
1.40034e-12
1.27535e-12
1.57799e-12
1.9355e-12
1.71147e-12
-6.73998e-13
-1.06024e-11
-3.27317e-11
-5.727e-11
-7.11513e-11
-8.87422e-11
-1.15131e-10
2.11615e-12
2.23212e-12
1.57101e-12
9.71407e-13
7.70976e-13
1.05652e-12
1.35586e-12
1.26409e-12
1.33158e-12
2.08637e-12
2.79777e-12
2.32907e-12
-2.06803e-13
-7.61552e-12
-2.02381e-11
-2.31583e-11
-9.23851e-12
-1.23872e-11
-3.25573e-11
1.11169e-12
1.14132e-12
7.10131e-13
3.97088e-13
4.5726e-13
8.37329e-13
1.06688e-12
9.25796e-13
1.06648e-12
2.18593e-12
3.81568e-12
4.60486e-12
3.42027e-12
-3.48509e-13
-4.72636e-12
-1.30849e-12
2.63575e-12
4.72122e-12
1.28903e-11
4.59643e-13
4.32439e-13
1.99313e-13
8.90112e-14
2.4583e-13
5.65291e-13
7.13835e-13
5.79092e-13
5.94845e-13
1.43777e-12
3.3643e-12
5.74866e-12
7.30337e-12
6.86171e-12
4.29476e-12
1.07396e-12
-5.23555e-13
-1.33204e-12
-3.51234e-12
1.23413e-13
6.53315e-14
-4.68331e-14
-5.36857e-14
1.0558e-13
3.26243e-13
4.115e-13
3.14038e-13
2.5565e-13
7.04269e-13
2.2073e-12
4.86005e-12
7.70816e-12
8.50563e-12
4.77177e-12
8.43265e-14
1.78874e-13
2.25925e-13
5.32474e-13
-8.00036e-15
-7.17954e-14
-1.2509e-13
-9.78381e-14
2.60746e-14
1.61273e-13
2.02888e-13
1.4185e-13
7.62625e-14
2.54858e-13
1.14736e-12
3.15384e-12
5.77947e-12
6.50783e-12
2.17092e-12
3.14776e-13
-1.00305e-14
1.0785e-14
-1.43382e-13
-3.84935e-14
-9.17234e-14
-1.1982e-13
-9.18036e-14
-8.45204e-15
6.81322e-14
8.36986e-14
4.65335e-14
-6.24996e-16
4.92425e-14
4.81782e-13
1.68762e-12
3.5677e-12
4.22503e-12
1.19558e-12
2.46188e-13
2.81041e-15
4.37896e-14
-1.09953e-13
-2.62011e-14
-5.43804e-14
-6.59156e-14
-5.01746e-14
-1.17552e-14
1.74258e-14
1.72615e-14
-1.20334e-15
-2.21892e-14
-1.77044e-14
1.15573e-13
5.77707e-13
1.47081e-12
2.08406e-12
9.35981e-13
2.20579e-13
1.84762e-14
4.81767e-14
-9.74267e-14
2.72825e-15
6.31769e-14
-3.59764e-14
-2.66367e-14
-1.85273e-14
1.68188e-14
4.30642e-14
-1.25368e-13
9.70332e-13
4.29236e-13
4.99001e-13
-5.73275e-12
-1.75437e-12
-8.50929e-13
-1.08829e-11
-2.1194e-12
-1.02835e-12
-2.58457e-12
7.45647e-13
9.2665e-13
4.27927e-13
1.07867e-12
1.21854e-12
1.24165e-12
1.21176e-12
1.26868e-12
3.15116e-11
1.84613e-12
2.01726e-12
2.154e-12
2.28477e-12
2.45314e-12
2.6687e-12
2.91717e-12
3.10798e-12
3.18681e-12
3.23835e-12
3.20216e-12
3.21429e-12
3.05477e-12
7.09306e-11
8.21093e-12
6.2114e-12
2.76969e-12
-3.38908e-11
-6.27012e-12
-1.68106e-12
4.62181e-12
-1.95236e-10
-8.4618e-11
1.71839e-12
1.4343e-11
2.37285e-12
1.14701e-12
5.51437e-13
-1.3129e-11
-6.4694e-12
-7.57023e-12
-9.06696e-12
-6.7736e-11
-2.77533e-12
-2.96623e-12
-3.00214e-12
-3.09906e-12
-3.01281e-12
-2.90108e-12
-2.76956e-12
-2.62509e-12
-2.50749e-12
-2.40773e-12
-2.21158e-12
-1.88068e-12
-1.44345e-12
-7.64056e-12
2.53498e-14
4.11917e-13
3.91922e-13
2.94446e-13
1.81841e-13
6.11553e-13
3.17124e-12
3.32029e-12
1.55097e-11
1.71478e-12
3.93854e-13
-3.0035e-12
-1.72314e-13
-8.54676e-13
-4.63925e-12
-5.2682e-13
-1.33943e-12
-6.20549e-12
-3.64981e-14
-2.50337e-15
9.04383e-15
1.7608e-13
8.68394e-14
1.97384e-13
1.29103e-12
4.68004e-14
-3.1373e-14
-6.21139e-14
-7.1818e-14
-5.62079e-14
-3.82445e-14
-7.12726e-14
-1.69375e-13
-2.74253e-13
-3.18917e-13
-2.71567e-13
-7.67582e-14
3.74119e-13
1.05158e-12
1.33107e-12
4.84059e-13
1.0201e-13
-4.74548e-15
-1.13425e-14
-3.44476e-14
-4.41837e-14
-9.43018e-14
-1.07599e-13
-6.57225e-14
-9.7158e-15
-4.89927e-14
-2.30823e-13
-4.51478e-13
-5.51711e-13
-4.04263e-13
1.67133e-13
1.35892e-12
2.87931e-12
3.06323e-12
5.81012e-13
1.2466e-13
-9.8306e-15
-1.66336e-15
-1.92764e-14
-3.85282e-15
-4.49885e-14
-5.19008e-14
3.2637e-14
1.62426e-13
1.70242e-13
-6.00339e-14
-4.04873e-13
-5.69856e-13
-2.52388e-13
8.54201e-13
2.9117e-12
5.25788e-12
5.48108e-12
1.17614e-12
1.81454e-13
-5.28274e-14
-2.10687e-14
4.27213e-14
1.57323e-13
1.6809e-13
1.78818e-13
3.50927e-13
6.49251e-13
8.06409e-13
5.35456e-13
-4.18164e-14
-3.40746e-13
2.60365e-13
2.09771e-12
5.0384e-12
8.03312e-12
8.63474e-12
4.15812e-12
-3.50137e-13
1.61961e-13
1.05597e-13
6.2284e-13
5.58105e-13
6.97526e-13
7.62095e-13
1.12149e-12
1.75419e-12
2.20276e-12
1.8422e-12
7.97854e-13
2.43127e-13
1.22162e-12
3.68794e-12
6.76726e-12
9.09607e-12
9.11882e-12
5.65523e-12
2.82267e-13
-4.94738e-13
-1.07313e-12
-2.13539e-12
1.32855e-12
1.72751e-12
1.96689e-12
2.71784e-12
3.9041e-12
4.72756e-12
4.05242e-12
2.11655e-12
1.09543e-12
2.34663e-12
4.7636e-12
6.43239e-12
6.05569e-12
2.98251e-12
-1.53587e-12
-8.15444e-13
1.93387e-12
4.54407e-12
8.19487e-12
2.5409e-12