/*--------------------------------*- C++ -*----------------------------------*\
| =========                 |                                                 |
| \\      /  F ield         | OpenFOAM: The Open Source CFD Toolbox           |
|  \\    /   O peration     | Version:  4.1                                   |
|   \\  /    A nd           | Web:      www.OpenFOAM.org                      |
|    \\/     M anipulation  |                                                 |
\*---------------------------------------------------------------------------*/
FoamFile
{
    version     2.0;
    format      ascii;
    class       volVectorField;
    location    "2";
    object      U;
}
// * * * * * * * * * * * * * * * * * * * * * * * * * * * * * * * * * * * * * //

dimensions      [0 1 -1 0 0 0 0];

internalField   nonuniform List<vector> 
1280
(
(-1.97163e-18 1.62278 0.0341288)
(-1.07375e-17 1.93576 -0.148722)
(4.15663e-17 1.74568 -0.154848)
(1.92496e-17 1.85074 -0.191063)
(3.1489e-18 2.25163 -0.3772)
(-1.21545e-17 1.89229 -0.317391)
(-3.11214e-17 2.14082 -0.382172)
(1.18481e-16 2.06677 -0.425906)
(-4.20549e-16 2.52132 -0.47803)
(-3.10198e-16 2.14665 -0.308165)
(-3.60615e-16 2.31764 -0.352065)
(1.59734e-15 2.72438 -0.401867)
(1.31576e-15 2.26626 -0.354581)
(6.62869e-16 2.48793 -0.496649)
(2.61646e-15 2.85478 -0.388511)
(1.53163e-15 2.19749 -0.383509)
(7.43159e-16 2.53601 -0.479584)
(4.39272e-16 2.36931 -1.07789)
(-5.38859e-16 3.18635 0.0213919)
(-6.69666e-16 1.60468 -3.26838)
(-1.7556e-15 2.81298 2.19303)
(-4.4253e-15 3.10244 4.36578)
(-4.99913e-15 2.80215 5.42865)
(-5.09396e-15 3.31916 5.9873)
(-4.97132e-15 3.21854 5.87066)
(-5.20483e-15 3.78224 5.98398)
(-6.64275e-15 2.39313 6.09921)
(-7.57388e-15 5.35982 13.3036)
(-8.27593e-15 5.8233 15.0439)
(-8.83692e-15 5.94348 16.4455)
(-9.37341e-15 6.03464 17.1538)
(-1.00642e-14 5.9434 17.3905)
(-1.09485e-14 6.00238 17.2087)
(-1.19679e-14 5.80819 17.0418)
(-1.27507e-14 5.9474 16.628)
(-1.30741e-14 5.7165 16.5135)
(-1.32855e-14 5.91581 16.0368)
(-1.31371e-14 5.71924 16.2553)
(-1.31868e-14 5.85432 15.5224)
(-1.25324e-14 5.78457 16.1287)
(-1.23465e-14 6.5806 14.1385)
(-6.59512e-15 2.57209 7.27827)
(-4.98908e-15 1.52903 5.74174)
(-1.89492e-15 1.28567 3.51341)
(5.56984e-15 0.843516 -0.240062)
(5.03624e-15 -0.378245 -2.15617)
(1.35025e-15 0.0452557 -2.3209)
(-3.7123e-15 0.442159 -2.14933)
(5.02132e-14 0.423705 -0.463191)
(5.37112e-14 -0.739724 0.0645963)
(-1.38023e-15 0.685214 0.105124)
(-2.49661e-15 -0.503716 -0.567958)
(-1.90591e-15 -0.445784 -2.24439)
(-9.21292e-16 -0.0273382 -2.36714)
(-4.42921e-16 0.396889 -2.15596)
(2.28529e-15 -0.823744 -0.210799)
(5.52781e-15 -1.2768 3.54453)
(6.0805e-15 -1.51998 5.74553)
(7.2827e-15 -2.56295 7.27779)
(1.19258e-14 -6.57634 14.1335)
(1.1386e-14 -5.77496 16.1268)
(1.21691e-14 -5.84671 15.5209)
(1.23165e-14 -5.70889 16.2519)
(1.27141e-14 -5.90788 16.0395)
(1.23603e-14 -5.70696 16.5167)
(1.19019e-14 -5.93921 16.6299)
(1.13623e-14 -5.79905 17.0403)
(1.07696e-14 -5.99355 17.2016)
(1.02871e-14 -5.93376 17.3802)
(9.87787e-15 -6.0252 17.1447)
(9.07313e-15 -5.93454 16.4419)
(7.71559e-15 -5.81527 15.0473)
(5.92186e-15 -5.3533 13.3127)
(1.61066e-15 -2.38557 6.12465)
(-1.03999e-16 -3.77958 6.00148)
(-1.68992e-15 -3.216 5.88827)
(-1.60789e-15 -3.31871 6.00127)
(-1.20798e-15 -2.79957 5.4423)
(-7.46016e-16 -3.10368 4.37568)
(-2.50894e-15 -2.81162 2.19765)
(-2.29178e-15 -1.60815 -3.26876)
(-2.39948e-15 -3.18498 0.0198675)
(-2.63602e-15 -2.37037 -1.081)
(-1.23923e-15 -2.53357 -0.479334)
(-2.84628e-16 -2.19598 -0.384872)
(8.94431e-16 -2.8507 -0.390271)
(1.7252e-16 -2.48439 -0.496713)
(6.65646e-16 -2.26296 -0.3557)
(1.17244e-15 -2.71918 -0.403042)
(3.80719e-16 -2.31319 -0.351807)
(9.6797e-16 -2.1425 -0.308679)
(1.46453e-15 -2.5153 -0.478729)
(5.43206e-17 -2.06199 -0.425999)
(1.80912e-18 -2.13562 -0.383187)
(-6.53574e-18 -1.8875 -0.31867)
(-2.99265e-17 -2.2449 -0.378691)
(-6.27566e-17 -1.84539 -0.191481)
(-1.27035e-16 -1.74038 -0.155559)
(-2.81865e-16 -1.92879 -0.149164)
(-3.38214e-17 -1.61756 0.0340764)
(3.48588e-18 0.373211 0.418439)
(6.90154e-18 0.598688 0.466719)
(7.97977e-18 0.736416 0.52663)
(6.24533e-18 0.892624 0.610227)
(4.24939e-18 1.05295 0.712782)
(7.91918e-18 1.23197 0.840947)
(1.88195e-17 1.43541 1.00011)
(3.04726e-17 1.675 1.20196)
(3.54352e-17 1.96116 1.46285)
(3.01741e-17 2.30949 1.79675)
(8.52869e-18 2.75878 2.17441)
(-4.15688e-17 3.27097 2.45648)
(-1.16842e-16 3.0377 2.37941)
(-1.47897e-16 -0.158946 1.10034)
(-5.37843e-17 -2.96398 -0.458474)
(-1.13344e-17 -4.17994 -0.748348)
(5.27276e-19 -3.96725 -0.988579)
(1.26028e-18 -3.5271 -0.773207)
(3.82751e-18 -2.37007 -0.934638)
(4.9093e-18 0.357572 0.585892)
(1.0478e-17 0.563847 0.650574)
(1.19554e-17 0.688258 0.730082)
(7.3025e-18 0.830474 0.842637)
(1.07953e-18 0.975547 0.979699)
(5.44363e-18 1.13546 1.15169)
(2.5647e-17 1.31357 1.36763)
(5.01642e-17 1.5175 1.64998)
(6.13012e-17 1.75604 2.03473)
(4.49182e-17 2.06001 2.56445)
(-1.85704e-17 2.52075 3.23118)
(-1.50991e-16 3.17798 3.88857)
(-3.19923e-16 3.37653 4.22435)
(-3.40359e-16 1.1371 3.00494)
(-6.45569e-17 -2.64355 -0.476798)
(-1.38511e-17 -4.1442 -0.548957)
(1.09229e-18 -3.95169 -0.723102)
(1.84817e-19 -3.46932 -0.658037)
(2.14182e-18 -2.50075 -0.864334)
(4.28091e-19 0.343951 0.68998)
(4.99872e-18 0.538333 0.7686)
(5.76676e-18 0.652731 0.860855)
(-3.62633e-18 0.785353 0.992383)
(-1.80473e-17 0.91942 1.15113)
(-1.89158e-17 1.06474 1.35046)
(6.67043e-18 1.22101 1.60403)
(4.49859e-17 1.38955 1.94869)
(6.33173e-17 1.57291 2.44766)
(2.80431e-17 1.80527 3.18399)
(-9.49113e-17 2.20529 4.19593)
(-3.23523e-16 2.88114 5.36927)
(-5.84209e-16 3.41519 6.32238)
(-6.09009e-16 2.13584 5.52988)
(-1.30682e-16 -1.86773 0.599957)
(-2.01615e-17 -4.02723 -0.412113)
(5.86971e-18 -3.91955 -0.327507)
(2.34096e-18 -3.44013 -0.452366)
(-4.74681e-18 -2.55433 -0.654809)
(-1.74804e-17 0.323454 0.80489)
(-1.86767e-17 0.500317 0.905784)
(-1.98687e-17 0.600554 1.01542)
(-3.89919e-17 0.719337 1.17107)
(-7.2139e-17 0.837564 1.35645)
(-8.9601e-17 0.961169 1.58879)
(-5.94951e-17 1.08238 1.89082)
(4.64627e-18 1.18995 2.32568)
(3.78606e-17 1.27425 3.00064)
(-2.89294e-17 1.37294 4.0437)
(-2.33079e-16 1.65066 5.50742)
(-5.59822e-16 2.33258 7.23376)
(-8.92569e-16 3.29898 8.7101)
(-9.59416e-16 3.20646 8.46171)
(-4.62014e-16 -0.241266 3.85629)
(3.89042e-17 -3.60964 -0.402104)
(-1.79956e-17 -3.94794 0.232736)
(-1.1733e-17 -3.30294 -0.176108)
(-6.92044e-17 -2.70148 -0.531828)
(-6.20117e-17 0.298153 0.923038)
(-7.75029e-17 0.457079 1.05106)
(-8.46773e-17 0.543307 1.18033)
(-1.2461e-16 0.64809 1.36256)
(-1.9491e-16 0.749906 1.57647)
(-2.44751e-16 0.84843 1.8448)
(-2.04689e-16 0.922594 2.20578)
(-8.86504e-17 0.941419 2.76158)
(-2.70141e-17 0.883229 3.66341)
(-1.35736e-16 0.80148 5.02369)
(-4.09771e-16 0.930568 6.76315)
(-7.51917e-16 1.62343 8.53642)
(-1.01067e-15 2.99102 9.85093)
(-1.0132e-15 4.02329 10.0077)
(-6.28359e-16 1.94554 7.18108)
(-3.1363e-17 -2.78504 0.801313)
(5.49709e-17 -3.87948 0.402673)
(1.19237e-16 -3.01648 0.491566)
(2.37266e-16 -2.37473 0.30736)
(-1.47617e-16 0.265228 1.0491)
(-1.91946e-16 0.40304 1.21012)
(-2.18544e-16 0.474025 1.36218)
(-3.01982e-16 0.562935 1.5746)
(-4.33788e-16 0.645564 1.821)
(-5.25284e-16 0.711183 2.13179)
(-4.50269e-16 0.717013 2.56421)
(-2.35172e-16 0.607022 3.25593)
(-1.21714e-16 0.368643 4.35157)
(-2.60736e-16 0.134142 5.79877)
(-5.29289e-16 0.263961 7.18578)
(-7.1471e-16 1.12909 7.92628)
(-6.72854e-16 2.75757 8.0922)
(-3.31389e-16 4.31489 8.55157)
(1.70652e-16 3.47209 8.81687)
(9.06049e-17 -1.22757 4.57975)
(-2.14874e-16 -3.94531 0.220619)
(-5.04897e-16 -3.26739 0.174122)
(-9.10542e-16 -2.88833 -1.47367)
(-2.82322e-16 0.224216 1.18643)
(-3.82387e-16 0.338359 1.38629)
(-4.62847e-16 0.393936 1.56461)
(-6.29477e-16 0.465625 1.81164)
(-8.46113e-16 0.526377 2.0965)
(-9.66409e-16 0.550966 2.4558)
(-8.01827e-16 0.47186 2.94756)
(-4.18174e-16 0.228746 3.67679)
(-1.96057e-16 -0.116358 4.62324)
(-2.88015e-16 -0.307123 5.50767)
(-4.66545e-16 0.085231 5.77888)
(-4.90011e-16 1.21739 5.11223)
(-2.52122e-16 2.66779 4.70427)
(6.07486e-16 3.73253 6.16482)
(1.9828e-15 3.48655 9.43653)
(2.39035e-15 1.00082 9.27698)
(1.1014e-15 -1.72215 3.54138)
(1.1637e-15 -1.87425 2.00817)
(1.78935e-15 -1.48066 3.7873)
(-4.53044e-16 0.173577 1.33645)
(-6.53946e-16 0.260402 1.5807)
(-8.51012e-16 0.300177 1.78896)
(-1.16e-15 0.352216 2.07543)
(-1.487e-15 0.387828 2.40369)
(-1.6089e-15 0.371074 2.80385)
(-1.27806e-15 0.228867 3.27814)
(-6.37679e-16 -0.0668903 3.77851)
(-2.3873e-16 -0.36745 4.1662)
(-2.4432e-16 -0.357464 4.27308)
(-4.2253e-16 0.378501 3.69054)
(-6.24824e-16 1.4874 3.14618)
(-4.32481e-16 2.28842 4.00931)
(9.88626e-16 2.46213 6.85911)
(3.61177e-15 2.06807 11.2521)
(6.21725e-15 0.695146 14.1172)
(7.83679e-15 -1.38537 13.0641)
(9.65451e-15 -3.37044 12.3698)
(1.20526e-14 -5.39554 14.5136)
(-5.95454e-16 0.111842 1.49478)
(-9.40131e-16 0.167043 1.78625)
(-1.31875e-15 0.19077 2.02688)
(-1.83507e-15 0.22134 2.35436)
(-2.34039e-15 0.235114 2.72031)
(-2.5313e-15 0.203389 3.12978)
(-2.0299e-15 0.0817134 3.5135)
(-9.63904e-16 -0.130474 3.72377)
(-1.81582e-16 -0.305303 3.6298)
(-1.12238e-16 -0.132107 3.20537)
(-8.21945e-16 0.547719 2.77009)
(-1.33204e-15 1.13034 3.46352)
(-7.59402e-16 1.24124 5.59346)
(9.21726e-16 0.949042 8.71204)
(3.83065e-15 0.690773 12.1401)
(6.75588e-15 0.195596 14.476)
(9.13597e-15 -1.10756 14.5316)
(1.03983e-14 -2.52891 12.695)
(8.79395e-15 -2.54379 8.65193)
(-5.21118e-16 0.0406407 1.63187)
(-9.43774e-16 0.0600765 1.96405)
(-1.44584e-15 0.0680351 2.23296)
(-2.11706e-15 0.0772914 2.59451)
(-2.87092e-15 0.0764662 2.98423)
(-3.52086e-15 0.050868 3.37157)
(-3.84099e-15 -0.0170345 3.61806)
(-3.12909e-15 -0.1152 3.51522)
(-2.6311e-15 -0.158639 2.97497)
(-2.19878e-15 -0.0109995 2.33316)
(-2.3082e-15 0.248393 2.61973)
(-2.1946e-15 0.34174 4.29136)
(-9.52014e-16 0.167937 6.42925)
(-2.26578e-16 -0.117722 7.89194)
(1.89346e-15 -0.222201 8.67444)
(4.96791e-15 -0.24072 9.04636)
(6.70496e-15 -0.487298 8.13844)
(7.17972e-15 -0.555598 5.27694)
(3.55726e-15 0.589576 0.725831)
(2.61761e-16 -0.0406006 1.63189)
(2.17851e-16 -0.0599772 1.9641)
(1.07018e-16 -0.0678523 2.23305)
(1.42939e-18 -0.0769284 2.59468)
(-3.72602e-17 -0.0756098 2.98459)
(1.33468e-17 -0.0485926 3.37268)
(1.13637e-16 0.0228183 3.62202)
(-2.58746e-16 0.127599 3.52789)
(5.20728e-17 0.179659 3.00582)
(-1.91738e-17 0.0343836 2.38546)
(-2.65153e-16 -0.24185 2.66703)
(-4.76669e-16 -0.358687 4.30622)
(-5.49136e-16 -0.199354 6.41161)
(-1.01289e-15 0.0953133 7.85136)
(-2.21186e-15 0.221356 8.63272)
(-4.03546e-15 0.241797 9.02187)
(-5.45958e-15 0.482671 8.12113)
(-3.03871e-15 0.558097 5.26576)
(1.1974e-14 -0.588635 0.734853)
(4.33562e-16 -0.111813 1.49481)
(4.64797e-16 -0.166967 1.78632)
(3.86107e-16 -0.190623 2.02701)
(2.96283e-16 -0.221042 2.35457)
(2.12817e-16 -0.234473 2.72065)
(1.52724e-16 -0.202048 3.13037)
(1.13161e-16 -0.0793501 3.51498)
(1.19528e-16 0.134093 3.72869)
(1.43522e-16 0.312525 3.64615)
(1.39562e-16 0.145886 3.24446)
(1.55844e-16 -0.535535 2.82841)
(7.97341e-17 -1.12872 3.50876)
(-2.44445e-16 -1.25217 5.59714)
(-1.35145e-15 -0.961472 8.67558)
(-3.71028e-15 -0.69743 12.1048)
(-6.62585e-15 -0.204766 14.4674)
(-9.0032e-15 1.0993 14.5401)
(-9.65279e-15 2.52964 12.7123)
(-5.40506e-15 2.55462 8.65771)
(3.64136e-16 -0.173555 1.33647)
(3.90411e-16 -0.260343 1.58076)
(3.03003e-16 -0.300059 1.78908)
(2.09564e-16 -0.351973 2.07567)
(1.42907e-16 -0.387263 2.40419)
(1.31116e-16 -0.3697 2.80497)
(1.53246e-16 -0.225936 3.28072)
(1.55594e-16 0.0714649 3.78384)
(1.41705e-16 0.372997 4.17695)
(1.75332e-16 0.364777 4.29613)
(2.15055e-16 -0.369662 3.73133)
(1.90163e-16 -1.48002 3.19316)
(-7.48887e-17 -2.287 4.04111)
(-1.17805e-15 -2.46848 6.86459)
(-3.63685e-15 -2.07958 11.2516)
(-6.36333e-15 -0.712496 14.1391)
(-7.90569e-15 1.37241 13.0969)
(-9.86024e-15 3.36869 12.3787)
(-1.27924e-14 5.3974 14.5103)
(2.35127e-16 -0.224201 1.18643)
(2.48013e-16 -0.33832 1.38632)
(1.74557e-16 -0.393856 1.56471)
(1.07934e-16 -0.46546 1.81186)
(8.56641e-17 -0.526012 2.09697)
(1.17391e-16 -0.550168 2.45687)
(1.50651e-16 -0.470393 2.95008)
(1.40454e-16 -0.226959 3.68216)
(1.47954e-16 0.117609 4.63232)
(2.31819e-16 0.308411 5.5239)
(3.10864e-16 -0.0825935 5.80759)
(2.58785e-16 -1.21244 5.15327)
(-2.29781e-17 -2.66296 4.74996)
(-8.46168e-16 -3.73364 6.20302)
(-2.24867e-15 -3.49823 9.46412)
(-2.57314e-15 -1.0221 9.31315)
(-1.0265e-15 1.71498 3.55796)
(-1.37635e-15 1.88916 2.00448)
(-3.61747e-15 1.49757 3.77047)
(1.23522e-16 -0.26522 1.04909)
(1.26814e-16 -0.403019 1.21013)
(7.89034e-17 -0.473981 1.36226)
(4.41209e-17 -0.562844 1.57478)
(5.08066e-17 -0.645363 1.82142)
(9.30365e-17 -0.710743 2.13274)
(1.18543e-16 -0.716175 2.56636)
(1.02866e-16 -0.605923 3.26033)
(1.18497e-16 -0.368133 4.35875)
(2.42882e-16 -0.134803 5.80906)
(4.23964e-16 -0.264994 7.20161)
(5.11651e-16 -1.12862 7.95172)
(3.80029e-16 -2.75518 8.12889)
(-3.87232e-17 -4.31446 8.59273)
(-5.25151e-16 -3.48105 8.85017)
(-1.45387e-16 1.21244 4.60229)
(2.92861e-16 3.94752 0.212297)
(5.2458e-16 3.27938 0.16971)
(1.43226e-15 2.8993 -1.46585)
(5.10714e-17 -0.298149 0.923017)
(4.80487e-17 -0.457073 1.05106)
(2.21459e-17 -0.543293 1.18038)
(9.89013e-18 -0.648063 1.36269)
(2.73145e-17 -0.749844 1.57681)
(6.28101e-17 -0.848289 1.84557)
(7.9315e-17 -0.922342 2.20744)
(6.43435e-17 -0.941238 2.76478)
(6.60939e-17 -0.883799 3.66841)
(1.59752e-16 -0.803399 5.03009)
(3.73811e-16 -0.933584 6.77107)
(6.3874e-16 -1.62612 8.54783)
(8.11485e-16 -2.99188 9.86905)
(7.62412e-16 -4.02333 10.0317)
(4.77195e-16 -1.94944 7.20128)
(1.19329e-16 2.783 0.803249)
(-5.81728e-17 3.8824 0.396559)
(-1.48004e-16 3.02494 0.491219)
(-3.9026e-16 2.38835 0.314111)
(1.37125e-17 -0.323453 0.804862)
(7.25905e-18 -0.500321 0.905767)
(-5.20367e-18 -0.600566 1.01544)
(-5.96507e-18 -0.719362 1.17117)
(1.17311e-17 -0.837612 1.3567)
(3.62492e-17 -0.961253 1.58935)
(4.57222e-17 -1.08253 1.89201)
(3.48931e-17 -1.19032 2.32794)
(2.84056e-17 -1.27526 3.00415)
(7.82521e-17 -1.37505 4.04801)
(2.45256e-16 -1.65393 5.51184)
(5.40005e-16 -2.33623 7.23848)
(8.56462e-16 -3.30147 8.7169)
(9.4507e-16 -3.20715 8.47166)
(5.30197e-16 0.239679 3.86454)
(9.36961e-18 3.60781 -0.403064)
(1.98749e-17 3.95031 0.230847)
(2.51028e-17 3.30952 -0.176376)
(5.91638e-17 2.71322 -0.528517)
(-8.88929e-19 -0.343951 0.689949)
(-7.97727e-18 -0.538346 0.768574)
(-1.38989e-17 -0.652763 0.86086)
(-1.08709e-17 -0.785418 0.992448)
(2.89718e-18 -0.919546 1.15131)
(1.79192e-17 -1.06498 1.35085)
(2.25431e-17 -1.22144 1.60483)
(1.57612e-17 -1.3903 1.95018)
(8.47361e-18 -1.57425 2.45003)
(2.83176e-17 -1.80749 3.18697)
(1.27485e-16 -2.20846 4.19887)
(3.50426e-16 -2.88483 5.37166)
(6.42163e-16 -3.41823 6.32492)
(7.23092e-16 -2.13678 5.53402)
(2.41213e-16 1.86843 0.604125)
(3.49751e-17 4.02727 -0.412095)
(-1.1145e-18 3.92189 -0.327983)
(1.19833e-18 3.44636 -0.451686)
(-1.59314e-17 2.56691 -0.652869)
(-4.27706e-18 -0.357572 0.585858)
(-1.01915e-17 -0.563866 0.65054)
(-1.33134e-17 -0.688305 0.73007)
(-1.02004e-17 -0.830567 0.842668)
(-9.39116e-19 -0.975725 0.979814)
(7.57024e-18 -1.13579 1.15195)
(9.29985e-18 -1.31416 1.36814)
(5.17038e-18 -1.51848 1.6509)
(-6.9444e-20 -1.75763 2.03619)
(5.47138e-18 -2.06235 2.56639)
(5.35313e-17 -2.52381 3.23323)
(1.87513e-16 -3.18147 3.89024)
(3.96411e-16 -3.37969 4.22579)
(4.69448e-16 -1.13842 3.00739)
(1.32842e-16 2.6447 -0.474577)
(2.73543e-17 4.14525 -0.548508)
(3.12268e-19 3.95365 -0.72296)
(4.86551e-18 3.47518 -0.656841)
(-1.2217e-17 2.51302 -0.863778)
(-2.91123e-18 -0.37321 0.418403)
(-6.04227e-18 -0.598709 0.466679)
(-7.32396e-18 -0.736474 0.526599)
(-5.57496e-18 -0.89274 0.610217)
(-1.30613e-18 -1.05317 0.712814)
(1.9362e-18 -1.23237 0.841051)
(1.91794e-18 -1.4361 1.00033)
(-1.33705e-19 -1.67615 1.20235)
(-2.46547e-18 -1.96292 1.46347)
(-1.96716e-18 -2.31197 1.7976)
(1.28415e-17 -2.76188 2.17542)
(6.41896e-17 -3.27444 2.4575)
(1.63423e-16 -3.04103 2.38046)
(2.31563e-16 0.157175 1.10225)
(1.03998e-16 2.96487 -0.456634)
(2.45088e-17 4.18111 -0.747466)
(2.05291e-18 3.96885 -0.987939)
(5.35297e-18 3.53298 -0.772119)
(-1.08252e-17 2.38224 -0.935357)
(4.67383e-16 8.42835 15.9104)
(-6.03605e-15 12.1555 19.1274)
(-5.28751e-15 10.111 17.2691)
(-5.35786e-15 10.0362 15.476)
(-5.62446e-15 9.54796 15.4085)
(-5.44481e-15 9.90565 15.2001)
(-4.1168e-15 9.63052 14.8442)
(-3.6479e-15 9.63824 14.6346)
(-3.61391e-15 9.5413 14.6114)
(-3.1257e-15 9.47256 14.6409)
(-3.23532e-15 9.48593 14.6573)
(-3.31726e-15 9.2893 14.8248)
(-3.13281e-15 9.44988 14.7865)
(-3.30823e-15 9.08371 15.063)
(-3.37873e-15 9.4607 14.8957)
(-3.31035e-15 8.84657 15.293)
(-3.55156e-15 9.50069 14.9682)
(-3.27004e-15 8.68719 15.636)
(-3.47074e-15 9.16027 14.4006)
(-3.23171e-15 8.84964 16.4638)
(-2.18821e-18 8.53683 15.8996)
(-7.4563e-15 11.2099 17.9231)
(-5.33709e-15 8.82941 15.9918)
(-6.35936e-15 8.91466 14.2548)
(-6.3248e-15 8.17477 14.3682)
(-7.91357e-15 8.62158 14.2108)
(-5.55908e-15 8.40946 14.5233)
(-5.74538e-15 8.63167 14.4899)
(-5.82589e-15 8.57354 14.5485)
(-5.2474e-15 8.59748 14.5641)
(-5.26799e-15 8.67722 14.5275)
(-5.42329e-15 8.54846 14.6235)
(-5.26044e-15 8.76633 14.495)
(-5.78513e-15 8.46216 14.6991)
(-5.4341e-15 8.85705 14.4547)
(-5.29844e-15 8.33984 14.7839)
(-5.98704e-15 8.93922 14.4129)
(-5.56917e-15 8.29134 15.0026)
(-5.43907e-15 8.66948 13.843)
(-4.92732e-15 8.21913 15.067)
(2.4003e-17 9.11223 17.0566)
(-2.28402e-15 11.9431 19.2676)
(-1.26666e-15 9.77619 17.2826)
(-1.90871e-15 9.45467 15.097)
(-2.05429e-15 8.68483 14.6953)
(-4.37592e-15 8.87686 14.4677)
(-3.44453e-15 8.70686 14.5458)
(-2.98897e-15 8.7669 14.5152)
(-2.90919e-15 8.71587 14.5269)
(-3.01542e-15 8.67915 14.5434)
(-2.62492e-15 8.71706 14.5101)
(-2.91783e-15 8.59249 14.5885)
(-2.95396e-15 8.73925 14.4942)
(-2.91337e-15 8.49399 14.6576)
(-2.82559e-15 8.7861 14.4736)
(-2.41125e-15 8.38173 14.7369)
(-2.75137e-15 8.84142 14.4532)
(-2.66044e-15 8.35488 14.9435)
(-3.26924e-15 8.60635 13.9834)
(-3.01691e-15 8.05158 14.5567)
(-7.66215e-18 9.38454 17.4075)
(6.0295e-16 12.4252 20.238)
(3.89154e-16 10.2978 18.0314)
(4.99779e-16 9.59256 15.3503)
(6.78465e-16 8.64483 14.5014)
(-3.43769e-15 8.70692 14.1849)
(-3.05177e-15 8.58264 14.2864)
(-2.90501e-15 8.63933 14.2941)
(-2.92397e-15 8.60157 14.3085)
(-2.99041e-15 8.56641 14.3212)
(-2.64805e-15 8.59054 14.2924)
(-2.91272e-15 8.49031 14.3522)
(-2.90958e-15 8.59315 14.2774)
(-2.73587e-15 8.40664 14.4039)
(-2.55563e-15 8.61356 14.2626)
(-2.0639e-15 8.31612 14.4665)
(-2.32442e-15 8.63923 14.2537)
(-2.65225e-15 8.30899 14.6495)
(-2.68513e-15 8.43792 13.9091)
(-3.07675e-15 7.70702 13.6686)
(1.80665e-18 9.71196 17.9059)
(-1.1606e-16 13.3125 21.8353)
(-9.72512e-17 11.1839 19.3429)
(-1.02758e-16 9.96528 15.962)
(-1.62159e-16 8.74805 14.4652)
(6.81111e-16 8.61411 13.9655)
(7.12617e-16 8.53444 14.0485)
(6.58233e-16 8.57466 14.1059)
(6.52915e-16 8.552 14.1255)
(6.60931e-16 8.51152 14.1389)
(6.04873e-16 8.51749 14.1196)
(6.60504e-16 8.43968 14.1647)
(6.5965e-16 8.4958 14.1176)
(6.73631e-16 8.36668 14.2097)
(6.4742e-16 8.48926 14.1203)
(5.75627e-16 8.29414 14.2654)
(6.41469e-16 8.48869 14.133)
(6.1834e-16 8.3 14.432)
(7.16387e-16 8.34167 13.9375)
(6.9308e-16 7.37466 12.8691)
(-4.31193e-19 10.0115 18.4082)
(1.39177e-17 14.3868 23.613)
(1.07816e-17 11.914 20.5793)
(9.88743e-18 10.1636 16.3628)
(1.9406e-17 8.62498 14.354)
(-1.15388e-16 8.40976 13.6822)
(-1.27024e-16 8.35876 13.7911)
(-1.20768e-16 8.42685 13.873)
(-1.18036e-16 8.41266 13.9015)
(-1.17237e-16 8.38382 13.9055)
(-1.16113e-16 8.37848 13.8928)
(-1.23131e-16 8.32712 13.9214)
(-1.22896e-16 8.34973 13.8958)
(-1.26558e-16 8.27277 13.9564)
(-1.16353e-16 8.32975 13.9107)
(-1.15948e-16 8.22233 14.0031)
(-1.23623e-16 8.312 13.9403)
(-1.16253e-16 8.24055 14.15)
(-1.31352e-16 8.20695 13.8642)
(-1.30709e-16 6.96901 11.9808)
(9.79681e-20 10.4226 19.2597)
(2.71494e-19 15.5237 25.2709)
(1.14784e-18 12.0889 21.2308)
(1.1609e-18 10.0353 16.2701)
(1.40034e-18 8.31697 14.3163)
(1.3142e-17 8.2738 13.5952)
(9.89527e-18 8.19056 13.7547)
(1.02166e-17 8.30864 13.7836)
(1.05527e-17 8.27647 13.7991)
(1.03121e-17 8.26421 13.7717)
(9.97026e-18 8.24774 13.7511)
(1.11253e-17 8.21794 13.7541)
(1.15424e-17 8.21745 13.7357)
(1.22827e-17 8.17924 13.7638)
(1.14753e-17 8.19136 13.7439)
(1.18068e-17 8.14445 13.787)
(1.32171e-17 8.16076 13.7672)
(1.32841e-17 8.15993 13.8927)
(1.51947e-17 8.06554 13.7298)
(1.64597e-17 6.52901 11.124)
(-2.83867e-20 11.0592 20.6243)
(-2.2813e-19 16.237 26.0446)
(-2.29968e-19 11.2779 20.6285)
(-1.49656e-19 9.72892 15.7185)
(-3.17026e-19 8.10278 14.6375)
(-3.82777e-19 8.44199 13.8739)
(9.41097e-19 8.17776 14.0207)
(6.60533e-19 8.33732 13.8848)
(3.84951e-19 8.24458 13.848)
(5.66217e-19 8.23664 13.759)
(9.08693e-19 8.19832 13.7068)
(8.63261e-19 8.1731 13.6702)
(6.24208e-19 8.14971 13.6401)
(5.05686e-19 8.12845 13.6316)
(5.09507e-19 8.10614 13.6163)
(6.47285e-19 8.08506 13.6106)
(4.53243e-19 8.04638 13.5979)
(-8.17744e-20 8.06019 13.639)
(-2.323e-19 7.89023 13.4747)
(-4.41125e-19 6.07478 10.323)
(1.71399e-20 11.9504 22.4101)
(-1.79391e-19 15.9748 25.3212)
(-3.15502e-19 10.0447 19.3053)
(-2.99425e-19 9.90047 15.7175)
(-4.73977e-19 8.40442 15.4718)
(1.73571e-19 8.94763 14.5204)
(6.19754e-19 8.45088 14.4891)
(6.83637e-19 8.5761 14.1533)
(6.92447e-19 8.40997 14.0123)
(6.10286e-19 8.36807 13.8391)
(5.91212e-19 8.29216 13.725)
(5.1532e-19 8.24225 13.6333)
(5.36157e-19 8.18717 13.5699)
(4.73013e-19 8.15173 13.5203)
(4.48047e-19 8.09546 13.4857)
(3.63034e-19 8.05777 13.4313)
(2.71703e-19 7.96775 13.3822)
(2.63131e-19 7.93155 13.3292)
(2.61196e-19 7.65636 13.0418)
(9.8809e-20 5.62486 9.56867)
(-8.57263e-21 12.7911 23.9177)
(1.48155e-19 14.7695 23.5123)
(2.16295e-19 9.88409 19.057)
(1.87317e-19 10.6127 16.7572)
(3.34988e-19 9.22184 16.4429)
(-3.01883e-19 9.54991 15.3495)
(-8.13339e-19 8.98653 14.9883)
(-8.33416e-19 8.9539 14.4955)
(-7.94126e-19 8.74052 14.1963)
(-7.75538e-19 8.62082 13.9218)
(-8.31001e-19 8.49383 13.7144)
(-8.06085e-19 8.39152 13.5491)
(-7.82823e-19 8.2917 13.4284)
(-7.33623e-19 8.21317 13.3282)
(-7.12865e-19 8.11446 13.2496)
(-6.89833e-19 8.02401 13.1401)
(-6.22369e-19 7.86867 13.0126)
(-4.9012e-19 7.72848 12.8357)
(-4.86225e-19 7.31064 12.3531)
(-3.64264e-19 5.14337 8.71817)
(2.78299e-21 13.0584 24.2408)
(-6.0243e-20 13.8779 22.5607)
(-7.72566e-20 11.1677 20.4676)
(-6.39761e-20 11.4762 18.3193)
(-1.27656e-19 10.2815 17.4312)
(1.42987e-19 10.1805 16.2427)
(3.77873e-19 9.65736 15.524)
(3.97963e-19 9.42099 14.8744)
(3.76092e-19 9.15676 14.3826)
(3.7202e-19 8.93912 13.9729)
(4.02115e-19 8.74179 13.6393)
(4.04241e-19 8.56693 13.3698)
(3.94215e-19 8.4044 13.1602)
(3.77559e-19 8.25999 12.9854)
(3.70656e-19 8.10051 12.8332)
(3.69082e-19 7.93184 12.6459)
(3.50076e-19 7.68143 12.4019)
(2.78906e-19 7.40191 12.0483)
(2.78027e-19 6.79907 11.3479)
(2.35283e-19 4.53892 7.55022)
(-4.71454e-22 12.7112 23.427)
(1.65399e-20 14.5204 23.9773)
(1.96538e-20 12.844 22.5199)
(1.56608e-20 12.4358 20.0078)
(3.37508e-20 11.324 18.5623)
(-3.8286e-20 10.8894 17.2034)
(-1.08256e-19 10.3537 16.1886)
(-1.19826e-19 9.95548 15.3325)
(-1.1343e-19 9.6034 14.6223)
(-1.11692e-19 9.28208 14.0266)
(-1.20197e-19 8.99175 13.5239)
(-1.23972e-19 8.72641 13.1053)
(-1.22914e-19 8.47902 12.7625)
(-1.20058e-19 8.24712 12.47)
(-1.19471e-19 7.9997 12.2021)
(-1.21436e-19 7.7293 11.8931)
(-1.20368e-19 7.34615 11.4918)
(-9.99527e-20 6.90374 10.8996)
(-1.00646e-19 6.06958 9.96674)
(-9.47367e-20 3.70756 5.85993)
(8.14701e-23 12.4762 22.9939)
(-3.44452e-21 16.1214 26.4395)
(-3.92884e-21 14.1645 24.5733)
(-2.99203e-21 13.4497 21.6199)
(-6.70294e-21 12.2229 19.9066)
(7.1457e-21 11.6527 18.3215)
(2.19462e-20 11.0268 17.0767)
(2.55053e-20 10.5088 15.9744)
(2.42958e-20 10.0411 15.0147)
(2.36358e-20 9.60534 14.1804)
(2.5101e-20 9.2028 13.4543)
(2.63053e-20 8.82731 12.8282)
(2.66105e-20 8.47057 12.2915)
(2.65631e-20 8.12578 11.817)
(2.69455e-20 7.75752 11.3702)
(2.80541e-20 7.35591 10.874)
(2.91844e-20 6.80713 10.2647)
(2.58696e-20 6.1876 9.38761)
(2.6836e-20 5.08302 8.17753)
(2.96408e-20 2.6138 3.59061)
(-1.4801e-23 12.7277 23.714)
(5.82469e-22 17.7643 28.5317)
(6.48993e-22 14.8927 26.2307)
(4.71983e-22 14.3666 22.9669)
(1.06515e-21 12.9035 21.3587)
(-1.07457e-21 12.3804 19.5779)
(-3.46452e-21 11.6057 18.1881)
(-4.14079e-21 10.9938 16.8445)
(-3.94682e-21 10.3979 15.6353)
(-3.77138e-21 9.8367 14.537)
(-3.91824e-21 9.30641 13.5449)
(-4.11426e-21 8.80014 12.6542)
(-4.22125e-21 8.30718 11.8545)
(-4.29683e-21 7.81925 11.1183)
(-4.45332e-21 7.29632 10.4111)
(-4.76342e-21 6.73557 9.6538)
(-5.21204e-21 6.01156 8.7898)
(-5.00046e-21 5.22266 7.61928)
(-5.49477e-21 3.82837 6.03451)
(-8.29231e-21 1.35841 0.979069)
(2.56695e-24 13.5857 25.8164)
(-8.35785e-23 18.8907 29.5666)
(-9.17593e-23 14.9602 27.172)
(-6.4062e-23 15.1082 23.9331)
(-1.43846e-22 13.276 22.6658)
(1.46448e-22 12.9526 20.721)
(4.66829e-22 11.9595 19.3074)
(5.57705e-22 11.3026 17.7793)
(5.25298e-22 10.5745 16.3949)
(4.90507e-22 9.89662 15.0696)
(4.95556e-22 9.23351 13.8225)
(5.13986e-22 8.58452 12.6468)
(5.2807e-22 7.9358 11.5383)
(5.43071e-22 7.28533 10.4758)
(5.72214e-22 6.59414 9.44169)
(6.27109e-22 5.87678 8.37144)
(7.19084e-22 4.99923 7.22755)
(7.48069e-22 4.06497 5.75943)
(9.15406e-22 2.3152 3.65253)
(3.41052e-22 0.188594 -1.23378)
(-3.59475e-25 14.6527 28.6035)
(1.05134e-23 19.2524 29.4141)
(1.13129e-23 14.6213 27.5817)
(7.63574e-24 15.6554 24.551)
(1.7109e-23 13.3742 23.5722)
(-1.87974e-23 13.3137 21.499)
(-5.6384e-23 12.1042 20.1432)
(-6.58635e-23 11.4867 18.5218)
(-6.06774e-23 10.6648 17.081)
(-5.51617e-23 9.93791 15.6261)
(-5.39529e-23 9.19175 14.215)
(-5.45359e-23 8.45451 12.8231)
(-5.50679e-23 7.7073 11.4617)
(-5.59805e-23 6.96512 10.1162)
(-5.8593e-23 6.1726 8.77497)
(-6.44161e-23 5.33695 7.3535)
(-7.64106e-23 4.26494 5.82282)
(-8.55473e-23 3.10952 3.95109)
(-1.5105e-22 0.852259 1.27343)
(6.73977e-22 -0.92918 -3.39967)
(4.09437e-26 15.145 30.6305)
(-1.22194e-24 18.9376 28.4926)
(-1.26823e-24 14.2036 27.8079)
(-8.24419e-25 15.7229 24.9364)
(-1.94099e-24 13.2464 24.0457)
(2.47939e-24 13.2756 22.0211)
(6.54094e-24 12.0331 20.727)
(7.23096e-24 11.4875 19.148)
(6.41081e-24 10.6837 17.7572)
(5.61046e-24 10.0258 16.3163)
(5.23228e-24 9.33717 14.9104)
(5.00957e-24 8.68913 13.5061)
(4.76841e-24 8.06094 12.1354)
(4.5374e-24 7.45884 10.7465)
(4.43145e-24 6.70841 9.18225)
(4.57432e-24 5.68634 7.15702)
(5.25312e-24 4.10413 4.73178)
(6.31837e-24 2.4751 2.24512)
(-1.67268e-24 -0.0693448 -0.320348)
(1.64877e-22 -1.65202 -4.58778)
(-6.84349e-28 14.3879 31.078)
(1.2749e-25 18.3859 27.8477)
(1.16352e-25 13.6305 27.8653)
(8.80576e-26 14.7053 25.395)
(1.15663e-25 12.5847 24.4331)
(-3.32857e-25 12.225 22.7762)
(-6.21212e-25 11.1426 21.5365)
(-6.1573e-25 10.4972 20.1725)
(-5.29951e-25 9.74031 18.9156)
(-4.67366e-25 9.11039 17.642)
(-4.41768e-25 8.4957 16.4099)
(-4.28678e-25 7.96948 15.225)
(-4.20151e-25 7.51315 14.1129)
(-4.19408e-25 7.01885 12.8716)
(-4.20816e-25 6.05376 10.8807)
(-4.14233e-25 4.18092 7.29624)
(-4.39246e-25 1.15336 2.26183)
(1.10863e-24 -1.64999 -3.42309)
(1.12624e-23 -3.96027 -5.02597)
(-7.87895e-24 -3.25429 -7.92331)
(-4.33408e-28 11.3511 28.7697)
(-1.15234e-26 17.1624 25.379)
(-9.17934e-27 12.1723 25.7254)
(-6.20202e-27 12.7654 24.0446)
(3.78032e-28 11.0405 23.3051)
(3.02452e-26 10.3519 22.2374)
(3.98234e-26 9.36154 21.3375)
(3.42208e-26 8.57804 20.4088)
(2.78126e-26 7.80588 19.5083)
(2.39127e-26 7.10737 18.6068)
(2.19334e-26 6.46329 17.7167)
(2.05698e-26 5.8889 16.8574)
(1.92785e-26 5.35853 15.9986)
(1.77368e-26 4.71545 14.876)
(2.00844e-26 3.59552 12.8235)
(4.51469e-26 1.6605 9.10785)
(6.76689e-26 -0.743724 4.06206)
(-4.09261e-25 -2.57026 -0.408378)
(-3.44458e-24 -3.20319 -2.93865)
(-1.26339e-23 -2.03662 -3.52055)
(1.37116e-28 2.65069 17.1175)
(6.9762e-28 8.04839 13.7628)
(4.26619e-28 5.17629 14.634)
(1.20366e-28 4.96149 14.2595)
(-4.60786e-28 4.0199 14.236)
(-1.40223e-27 3.43307 14.0791)
(-1.40746e-27 2.83461 13.9416)
(-1.08451e-27 2.33975 13.7722)
(-8.47651e-28 1.90445 13.5859)
(-7.12896e-28 1.54026 13.3741)
(-6.34235e-28 1.24147 13.1362)
(-5.71306e-28 1.0099 12.8727)
(-5.01801e-28 0.850073 12.6023)
(-4.32998e-28 0.792879 12.3633)
(-5.70661e-28 0.890667 12.1837)
(-1.37402e-27 1.14057 12.0176)
(-1.6888e-27 1.58531 11.6306)
(7.20198e-27 2.47449 10.6298)
(4.46117e-26 2.85763 9.15427)
(1.00551e-25 -0.0299634 7.01949)
(-1.39703e-28 -2.65068 17.1174)
(-7.09384e-28 -8.04839 13.7629)
(-4.29072e-28 -5.17628 14.634)
(-1.28894e-28 -4.96144 14.2596)
(4.41547e-28 -4.01982 14.2361)
(1.36406e-27 -3.43295 14.0792)
(1.37809e-27 -2.83444 13.9418)
(1.03759e-27 -2.3395 13.7725)
(7.43642e-28 -1.90409 13.5861)
(6.25895e-28 -1.53976 13.3742)
(5.89859e-28 -1.24081 13.1362)
(5.4558e-28 -1.00911 12.8727)
(4.64047e-28 -0.849336 12.6026)
(3.65242e-28 -0.792508 12.3644)
(5.16372e-28 -0.891001 12.1856)
(1.3977e-27 -1.14172 12.0198)
(1.83044e-27 -1.58698 11.6323)
(-7.39978e-27 -2.47622 10.6312)
(-4.7031e-26 -2.85912 9.15571)
(-1.06844e-25 0.0295829 7.02048)
(4.44028e-28 -11.3516 28.7703)
(1.17499e-26 -17.1623 25.3796)
(9.19249e-27 -12.1723 25.7262)
(6.32528e-27 -12.7652 24.0457)
(-1.12583e-28 -11.0401 23.3064)
(-2.91613e-26 -10.3513 22.2389)
(-3.90568e-26 -9.36067 21.3392)
(-3.37873e-26 -8.57688 20.4106)
(-2.49899e-26 -7.80436 19.5102)
(-2.06084e-26 -7.10547 18.6088)
(-1.99325e-26 -6.46097 17.7188)
(-1.96464e-26 -5.88609 16.8596)
(-1.85147e-26 -5.3548 16)
(-1.56121e-26 -4.70959 14.8746)
(-1.77196e-26 -3.58611 12.8162)
(-4.54162e-26 -1.64866 9.09543)
(-7.7786e-26 0.752564 4.05241)
(3.95137e-25 2.57172 -0.409203)
(3.53968e-24 3.1998 -2.9329)
(1.32457e-23 2.03386 -3.513)
(6.84192e-28 -14.389 31.0802)
(-1.30377e-25 -18.3872 27.8511)
(-1.16165e-25 -13.6319 27.8684)
(-8.96872e-26 -14.7063 25.3987)
(-1.16113e-25 -12.586 24.4371)
(3.15652e-25 -12.2261 22.7807)
(6.02791e-25 -11.1437 21.5414)
(6.22841e-25 -10.4982 20.1778)
(4.95244e-25 -9.7412 18.9212)
(4.01076e-25 -9.11108 17.6478)
(3.89767e-25 -8.49623 16.416)
(4.01326e-25 -7.96984 15.2315)
(4.15053e-25 -7.51309 14.1191)
(3.88514e-25 -7.01698 12.8753)
(3.65058e-25 -6.04703 10.8777)
(3.32991e-25 -4.16435 7.27901)
(3.23174e-25 -1.12396 2.2253)
(-1.09551e-24 1.6769 -3.46629)
(-1.24672e-23 3.97074 -5.03701)