/*--------------------------------*- C++ -*----------------------------------*\
| =========                 |                                                 |
| \\      /  F ield         | OpenFOAM: The Open Source CFD Toolbox           |
|  \\    /   O peration     | Version:  4.1                                   |
|   \\  /    A nd           | Web:      www.OpenFOAM.org                      |
|    \\/     M anipulation  |                                                 |
\*---------------------------------------------------------------------------*/
FoamFile
{
    version     2.0;
    format      ascii;
    class       volScalarField;
    location    "3";
    object      p;
}
// * * * * * * * * * * * * * * * * * * * * * * * * * * * * * * * * * * * * * //

dimensions      [0 2 -2 0 0 0 0];

internalField   nonuniform List<scalar> 
1280
(
-122.349
51.4005
-0.427047
-143.148
118.823
10.1034
-118.483
-84.5894
75.7538
45.2542
-193.217
111.246
31.5931
-296.874
84.6138
-18.5805
-425.297
-182.369
174.768
-1402.91
243.401
1542.15
1893.76
1978.29
1999.02
2559.37
1886.62
2548.15
2540.45
2439.02
2461.6
2475.6
2497.48
2496.32
2487.82
2468.05
2418
2392.91
2289.19
2187.38
91.5243
357.444
428.257
418.919
54.4737
377.029
355.27
335.166
21.5338
257.806
250.63
6.89175
317.865
336.561
344.314
29.3942
433.341
445.141
369.042
81.066
2192.2
2285.82
2383.41
2402.26
2444.62
2456.33
2455.87
2448.14
2417.84
2387.67
2346.43
2432.12
2432.02
1447.95
2360.99
1777.04
1694.89
1523.93
1255.03
65.5548
-1536.46
-80.9865
-124.434
-253.764
19.9347
128.915
-148.444
76.0913
169.056
-48.4719
97.1942
130.45
22.8372
-12.6803
54.8765
130.542
-39.1986
27.7275
69.2966
-46.5599
0.89384
3.19775
4.50261
6.49727
8.44899
11.0216
14.0183
18.9287
28.0452
33.1839
35.0071
-45.327
-119.795
-282.973
-93.339
-24.8138
55.6398
110.158
70.9839
1.81599
7.46334
10.4385
14.9256
18.8397
23.8218
28.9128
37.5638
55.2219
66.0643
117.19
-36.3551
-295.126
-267.279
-18.545
68.4034
142.567
226.408
74.3829
2.76399
12.4736
17.7149
25.5139
32.367
41.0408
49.8533
65.0334
94.8744
102.871
195.535
25.2999
-412.8
-184.217
32.2299
122.237
200.982
324.889
107.58
3.31951
16.6434
23.5518
33.9184
42.7157
53.4968
63.3958
80.6846
109.134
55.0683
158.11
143.204
-348.452
-142.206
104.929
103.203
277.889
423.225
133.461
3.70953
20.8023
29.2708
42.2121
52.9684
65.6359
76.2606
96.8557
125.363
34.1207
395.885
226.079
-328.048
-61.0858
122.857
176.076
345.161
564.333
169.518
3.81794
24.5284
34.1382
49.2724
61.5881
75.7242
88.2642
115.837
148.559
41.4969
475.606
87.0718
-359.184
-45.3518
103.5
143.12
468.548
654.644
122.115
3.7324
27.9837
38.4735
55.5936
69.0564
82.7745
90.5884
105.632
121.632
14.2689
-19.9831
-91.7754
-363.434
126.969
227.155
88.3582
519.736
843.974
151.666
3.42017
30.8557
41.8516
60.6691
75.6638
91.7455
104.846
126.106
149.932
74.1218
-146.044
-160.828
-203.303
325.271
464.523
584.071
919.358
1364.5
37.1516
3.06863
33.182
44.493
64.4798
79.7123
94.6471
106.685
129.455
169.688
145.616
-85.5787
-170.212
-62.7866
363.527
421.433
679.453
1362.82
2464.97
662.947
2.69225
34.2994
45.6354
66.3928
82.7212
99.5093
114.653
140.179
184.457
166.159
-52.3005
-150.635
62.9988
354.369
440.548
732.659
1346.09
2329.58
698.022
2.71526
34.3971
45.8267
66.6725
82.8946
99.5749
116.876
146.433
188.327
159.851
-41.2755
-155.495
86.4017
374.921
458.268
727.308
1362.41
2366.92
797.105
3.10152
33.353
44.8433
65.1937
81.0596
97.4918
114.525
142.676
176.975
137.734
-78.2561
-177.165
7.00863
332.723
441.013
642.51
1357.35
2510.79
623.452
3.48541
31.188
42.5515
62.0734
78.1845
96.571
116.451
144.528
177.129
143.127
-72.2794
-191.054
-179.783
255.298
445.727
486.37
702.389
1280.39
-10.6693
3.81328
28.393
39.3482
57.4591
72.8585
91.2448
112.583
140.443
172.91
151.021
-28.3953
-194.23
-362.211
16.0189
178.499
-175.21
-44.2285
623.12
473.778
3.91247
24.9961
35.1589
51.4829
66.0356
84.3827
107.189
137.784
171.634
164.19
27.2059
-139.305
-390.687
-136.491
30.2754
-101.562
50.0459
427.257
139.077
3.80768
21.2759
30.3119
44.4655
57.5234
74.3959
95.7666
124.992
161.738
178.264
94.3693
-64.7169
-338.222
-184.449
-54.9788
-103.023
-16.9119
361.246
158.259
3.41064
17.0761
24.5106
35.9787
46.8315
61.1021
79.5025
105.276
139.757
168.025
139.947
14.4991
-248.009
-125.408
-23.5255
-88.5927
17.3719
266.817
111.519
2.83907
12.8235
18.49
27.1487
35.5643
46.7706
61.3711
82.1139
110.622
138.074
132.207
22.8112
-275.47
-117.299
-6.05113
31.445
26.5427
196.82
76.5328
1.86513
7.68748
10.9328
15.9557
20.8314
27.3587
35.8608
48.0153
65.0193
82.085
79.4184
-11.1064
-270.077
-123.086
-56.1317
49.7791
11.8366
136.928
49.9879
0.913135
3.283
4.68729
6.87198
9.15873
12.2718
16.4114
22.3436
30.3783
37.4318
33.4162
-16.2648
-145.779
-108.686
-134.365
-62.1389
-10.7905
62.0496
76.2823
6903.2
6804
6734.71
6626.46
6552.88
6450.89
6349.19
6239.3
6178.67
6101.92
6053.9
5999.8
5974.56
5940.4
5934.03
5918.56
5924.27
5928.14
5936.05
5960.03
5740.71
5752.87
5764.74
5763.59
5777.52
5772.27
5780.68
5766.68
5764.71
5747.22
5741.08
5721.87
5714.46
5696.2
5689.63
5674.42
5670.36
5659.82
5659.29
5654.93
6091.45
6075.81
6082.33
6062.63
6063.41
6047.26
6044
6030.95
6026.18
6013.74
6008.43
5996.51
5991
5979.78
5974.26
5963.99
5958.55
5949.26
5944.67
5934.24
5857.54
5856.77
5872.82
5867.16
5877.63
5874.08
5880.37
5878.47
5882.58
5880.99
5883.76
5882.44
5884.07
5883.21
5884.01
5883.65
5884.07
5884.09
5884.58
5884.77
5892.26
5885.81
5902.61
5895.38
5903.53
5900.13
5904.62
5902.15
5905.8
5903.61
5906.21
5905.07
5906.16
5906.15
5906.1
5906.75
5906.24
5906.92
5906.73
5906.79
5794.4
5784.49
5811.54
5810.11
5820.85
5822.06
5831.74
5827.86
5839.29
5835.87
5844.15
5844.01
5848.57
5850.8
5853.11
5856.28
5857.54
5860.67
5861.69
5864.19
5771.3
5739.93
5782.5
5782.1
5788.98
5789.19
5807.11
5791.66
5813.71
5802.97
5816.29
5813.92
5820.26
5822.27
5825.34
5828.82
5830.47
5834.09
5835.17
5837.95
5734.79
5674.82
5734.2
5727.06
5733.09
5726.98
5762.89
5735.33
5769.06
5754.72
5772.04
5770.35
5778.33
5781.74
5786.08
5790.87
5793.52
5798.41
5799.93
5803.69
5704.86
5640.38
5701.27
5674.82
5695.93
5668.99
5720.09
5690.84
5723.81
5714.75
5730.07
5732.4
5740.46
5746.43
5751.98
5758.8
5762.77
5769.65
5771.79
5777.28
5579.81
5571.15
5613.36
5570.58
5627.15
5589.84
5634.12
5619.74
5641.03
5643.59
5655.56
5664.32
5674.18
5684.97
5694.25
5706.09
5714.08
5726.77
5731.65
5743.57
5209.59
5255.37
5302.39
5273.27
5336.99
5324.71
5360.09
5370.44
5391.97
5410.5
5430.16
5451.11
5471.48
5493.97
5514.5
5538.83
5557.48
5584.45
5596.9
5626.12
4394.75
4477.15
4559.17
4549.14
4637.81
4652.75
4709.44
4747.17
4791.13
4834.3
4876.97
4920.88
4963.68
5008.39
5050.13
5096.71
5134.21
5185.26
5210.9
5269.7
3253.31
3334.59
3464.12
3434.65
3576.88
3586.13
3680.91
3732.38
3803.53
3869.3
3936.73
4005.03
4072.12
4141
4205.59
4275.63
4332.52
4407.38
4445.38
4534.34
2170.49
2199.4
2365.48
2284.13
2477.37
2434.98
2565.62
2594.11
2678.85
2743.12
2817.76
2892.98
2969.24
3048.79
3124.82
3207.45
3275.91
3363.78
3412.32
3510.95
1183.52
1143.57
1341.91
1219.84
1464.76
1372.67
1549.09
1550.36
1656.25
1714.3
1795.88
1872.63
1952.03
2033.87
2111.92
2195.21
2263.97
2349.86
2394.76
2483.16
140.733
-4.2912
192.098
-6.36581
256.639
114.283
302.37
286.594
407.186
472.028
577.183
679.788
793.796
916.55
1041.57
1176.9
1299.86
1434.27
1506
1639.48
557.228
279.171
421.113
-17.3666
82.9139
-250.675
-284.375
-487.247
-576.638
-701.318
-783.362
-857.574
-912.108
-950.137
-980.87
-977.766
-951.071
-856.068
-732.384
-558.843
1220.25
752.672
1294.34
691.118
848.972
489.513
370.379
100.885
-115.344
-366.81
-606.005
-850.443
-1092.97
-1337.34
-1582.3
-1775.62
-1888.52
-1832.81
-1782.38
-1668.03
1152.3
-556.844
186.566
-793.811
-880.536
-1429.33
-1748.14
-2140.55
-2452.27
-2736.3
-2957.16
-3117.74
-3207.33
-3223.27
-3158.99
-3007.7
-2771.87
-2462.49
-2216.34
-2002.78
54159.7
47636.8
44173.3
39829.3
36206.2
32621.8
29324.7
26191.8
23249.5
20467.5
17838.3
15346.7
12976.7
10711.9
8566.14
6525.75
4541.04
2952.81
1355.87
-1604.31
57088.5
50565.5
47102.1
42758.1
39135.1
35550.8
32253.8
29121.1
26178.9
23396.9
20767.7
18276
15905.9
13640.8
11494.8
9454.24
7469.16
5879.83
4282.13
1322.01
4074.47
2366.02
3109.63
2129.74
2043.23
1494.74
1176.06
783.754
471.955
187.763
-33.4341
-194.483
-284.724
-301.522
-238.187
-87.8433
146.722
455.761
704.094
918.478
4157.35
3689.84
4232.02
3629.11
3786.93
3427.52
3308.18
3038.35
2821.72
2569.68
2329.91
2084.8
1841.65
1596.7
1351.51
1158.92
1047.78
1103.94
1155.32
1272.75
3492.7
3217.44
3361.39
2924.54
3028.82
2696.31
2664.89
2463.38
2375.39
2251.95
2171.04
2098.03
2044.77
2008.19
1979.22
1984.52
2014.11
2112.59
2238.84
2417.7
3205.39
3055.1
3255
3052.85
3317.13
3171.63
3357.03
3338.34
3454.36
3515.46
3615.87
3714.36
3824.24
3943.33
4065.21
4197.97
4319.69
4453.5
4526.51
4661.04
4218.39
4194.86
4404.12
4291.05
4539.83
4447.51
4618.67
4613.98
4709.25
4758.48
4829.35
4896.82
4967.53
5042.06
5114.26
5193.27
5259.59
5344.44
5389.71
5481.22
5861.21
5992.24
6161.57
5990.54
6129.79
6013.64
6064.24
6027.57
6044.02
6054.47
6080.09
6114.87
6157.77
6209.76
6263.88
6328.86
6384.58
6461.67
6504.42
6597.26
7615.21
7784.93
7874.89
7673.04
7637.03
7483.78
7394.61
7295.37
7234.02
7192.2
7165.79
7155.21
7154.98
7163.46
7175.99
7197.12
7214.68
7242.66
7254.75
7278.02
7368.6
7422.49
7393.41
7256.78
7097.69
6928.54
6780.73
6660.16
6580.36
6553.59
6567.95
6594.37
6618.14
6640.97
6661.44
6679.04
6693.09
6698.51
6704.45
6681.62
6446.35
6433.69
6406.11
6346.91
6277.13
6217.15
6172.82
6152.31
6161.71
6198.27
6245.04
6287.12
6322
6351.37
6375.81
6393.53
6409.86
6414.62
6425.4
6414.98
6335.54
6340.19
6341.29
6329.9
6318.18
6309.08
6304.37
6306.39
6315.26
6333.54
6353.08
6370.14
6384.12
6395.3
6405.13
6411.02
6418.52
6419.25
6424.89
6421.7
6294.9
6294.95
6307.53
6316.41
6326.66
6334.54
6340.26
6344.3
6347.12
6351.84
6353.9
6357.07
6359.03
6359.91
6361.15
6359.94
6360.95
6357.51
6358.24
6352.28
6252.02
6247.06
6263.34
6273.37
6284.66
6291.94
6296.35
6299.73
6304.02
6306.48
6303.87
6303.07
6301.31
6299.63
6298.36
6295.6
6295.08
6290.73
6291.23
6284.6
6233.94
6225.87
6240.59
6246.35
6253.8
6258.11
6259.52
6260.15
6257.85
6256.5
6254.05
6253.43
6251.42
6249.91
6248.47
6245.85
6245.25
6240.93
6241.57
6235.14
6181.19
6172.89
6186.12
6189.9
6195.28
6198.88
6198.88
6200.67
6198.29
6199.34
6197.46
6197.5
6196.25
6194.93
6194.27
6191.83
6191.65
6187.83
6188.54
6183.13
6196.32
6184.28
6194.63
6194.52
6196.14
6196.98
6193.78
6194.22
6190.14
6189.94
6186.67
6184.77
6182.77
6179.28
6178.04
6173.7
6172.71
6167.68
6167.37
6161.26
6089.37
6083.46
6094.93
6097.82
6102.45
6105.92
6105.96
6107.99
6107.44
6107.56
6107.29
6105.28
6105.67
6102.01
6102.68
6098.45
6098.92
6094.75
6095.16
6091.1
6286.54
6265.95
6269.79
6259.79
6252.95
6243.98
6234.72
6225.37
6217.1
6205.85
6198.67
6186.05
6179.79
6166.54
6160.81
6147.86
6142.23
6130.05
6125.13
6111.68
5896.78
5911.48
5922.28
5927.84
5937.39
5939.11
5941.8
5931.68
5926.33
5909.79
5901.83
5881.7
5873.18
5853.16
5845.71
5828.49
5823.66
5811.15
5810.08
5803.84
7118.46
7020.29
6942.39
6832.88
6740.49
6635.83
6518.31
6406.47
6340.52
6260.63
6208.82
6151.93
6124.42
6088.19
6080.72
6064.11
6069.56
6073.01
6081.21
6105.54
)
;

boundaryField
{
    outletWall
    {
        type            fixedValue;
        value           uniform 0;
    }
    fineWalls
    {
        type            zeroGradient;
    }
    fineFrontAndBack
    {
        type            zeroGradient;
    }
    fineplugLeft
    {
        type            cyclicAMI;
        value           nonuniform List<scalar> 
20
(
5205.5
5206.68
5221.1
5223.02
5228.46
5244.79
5251.59
5279.15
5294.96
5335.44
5369.34
5451.02
5501.07
5841.76
5672.59
5642.11
5696.82
5766.52
5751.63
5571.24
)
;
    }
    fineplugRight
    {
        type            cyclicAMI;
        value           nonuniform List<scalar> 
20
(
5322.87
5322.13
5335.09
5336.1
5340.21
5355.85
5361.73
5389.17
5405.11
5444.59
5477.79
5558.84
5611.58
5941.77
5780.86
5747.8
5805.28
5858.7
5867.24
5707.88
)
;
    }
    inletOutletLeft
    {
        type            cyclicAMI;
        value           nonuniform List<scalar> 
20
(
5205.5
5206.68
5221.1
5223.02
5228.46
5244.79
5251.59
5279.15
5294.96
5335.44
5369.34
5451.02
5501.07
5841.76
5672.59
5642.11
5696.82
5766.52
5751.63
5571.24
)
;
    }
    inletLeft
    {
        type            zeroGradient;
    }
    inletWallsLeft
    {
        type            zeroGradient;
    }
    inletFacesLeft
    {
        type            zeroGradient;
    }
    inletOutletRight
    {
        type            cyclicAMI;
        value           nonuniform List<scalar> 
20
(
5322.87
5322.13
5335.09
5336.1
5340.21
5355.85
5361.73
5389.17
5405.11
5444.59
5477.79
5558.84
5611.58
5941.77
5780.86
5747.8
5805.28
5858.7
5867.24
5707.88
)
;
    }
    inletRight
    {
        type            zeroGradient;
    }
    inletWallsRight
    {
        type            zeroGradient;
    }
    inletFacesRight
    {
        type            zeroGradient;
    }
}


// ************************************************************************* //
