/*--------------------------------*- C++ -*----------------------------------*\
| =========                 |                                                 |
| \\      /  F ield         | OpenFOAM: The Open Source CFD Toolbox           |
|  \\    /   O peration     | Version:  4.1                                   |
|   \\  /    A nd           | Web:      www.OpenFOAM.org                      |
|    \\/     M anipulation  |                                                 |
\*---------------------------------------------------------------------------*/
FoamFile
{
    version     2.0;
    format      ascii;
    class       volVectorField;
    location    "3";
    object      U;
}
// * * * * * * * * * * * * * * * * * * * * * * * * * * * * * * * * * * * * * //

dimensions      [0 1 -1 0 0 0 0];

internalField   nonuniform List<vector> 
1280
(
(-5.51262e-18 18.6999 0.233696)
(-6.34881e-17 22.7719 -1.85674)
(-2.64989e-17 20.3088 -1.73695)
(7.88741e-18 21.0125 -1.89933)
(-3.11008e-17 25.8616 -4.51395)
(-4.42282e-17 21.7572 -3.96384)
(3.53292e-17 24.6041 -4.35887)
(-1.91364e-16 23.412 -4.36797)
(-7.86737e-16 29.2638 -7.58857)
(-5.88871e-16 25.7457 -5.47853)
(-2.45399e-16 27.3939 -4.85336)
(2.01272e-15 32.5006 -8.38803)
(1.32834e-15 28.8053 -6.8724)
(-1.60938e-16 30.8794 -6.69357)
(-9.92972e-16 36.8383 -11.7)
(-1.05483e-15 32.4921 -9.51133)
(-1.50726e-15 35.8734 -9.27092)
(-3.2553e-15 37.6573 -14.8473)
(-1.21349e-14 41.0583 -10.3882)
(-2.14812e-14 34.6976 -17.198)
(-3.87209e-14 40.8214 25.4284)
(-4.75386e-14 41.3677 40.1473)
(-5.52684e-14 42.1638 54.3496)
(-6.35638e-14 41.9951 71.8314)
(-7.04389e-14 39.8995 90.5113)
(-7.29044e-14 39.4228 103.524)
(-9.28548e-14 30.3982 120.806)
(-8.53021e-14 49.2936 153.582)
(-9.37506e-14 49.1534 157.57)
(-9.8615e-14 49.3708 159.471)
(-1.00129e-13 49.1119 160.101)
(-9.95891e-14 48.4883 160.276)
(-9.84525e-14 48.414 159.429)
(-9.81414e-14 47.6378 158.679)
(-9.95069e-14 47.7147 156.643)
(-1.01319e-13 47.0127 155.19)
(-1.04875e-13 47.1735 152.197)
(-1.07545e-13 46.862 151.207)
(-1.07141e-13 46.9644 147.537)
(-1.07791e-13 47.0354 146.631)
(-1.09244e-13 49.4107 123.503)
(-5.34595e-14 15.9168 55.3478)
(-3.53367e-14 8.47323 33.0396)
(-2.30303e-14 7.67358 14.3769)
(-1.39676e-14 0.767976 -7.69344)
(3.78089e-16 -3.8046 -11.5532)
(5.66822e-15 -2.00706 -13.0669)
(7.74966e-15 -0.208098 -13.0157)
(9.61892e-15 -0.995571 -17.1026)
(1.2438e-15 -1.13292 -13.3287)
(-6.90766e-15 0.692183 -13.064)
(-1.81516e-14 0.564517 -15.9743)
(-1.08478e-14 -0.314012 -12.4984)
(-8.76112e-15 1.44652 -12.6836)
(-7.29363e-15 3.07741 -11.0335)
(-6.42493e-15 -1.17865 -7.06189)
(4.81555e-15 -7.51975 8.1665)
(2.01829e-14 -7.70412 24.8247)
(4.44456e-14 -14.1306 48.9575)
(1.05743e-13 -48.3011 122.099)
(1.06364e-13 -45.7747 147.204)
(1.06652e-13 -45.674 148.152)
(1.06994e-13 -45.5689 151.948)
(1.05056e-13 -45.8797 153.102)
(1.00105e-13 -45.7184 156.287)
(9.56274e-14 -46.4347 157.908)
(9.29689e-14 -46.3693 160.032)
(9.32228e-14 -47.1543 160.721)
(9.5709e-14 -47.2081 161.404)
(9.81772e-14 -47.841 161.013)
(9.80618e-14 -48.066 160.145)
(9.3533e-14 -47.7972 157.979)
(8.46117e-14 -47.8586 153.696)
(8.50365e-14 -28.7274 118.666)
(6.41398e-14 -38.3047 100.471)
(5.83522e-14 -38.7082 87.0785)
(4.48168e-14 -40.7639 68.149)
(2.61533e-14 -40.9996 50.3173)
(6.56285e-15 -40.1195 36.3596)
(-9.68901e-15 -39.6011 23.0466)
(-2.33064e-14 -32.8965 -18.873)
(-1.84188e-14 -39.704 -13.524)
(-1.73676e-14 -32.3262 -18.4843)
(-7.56779e-15 -30.8442 -7.88904)
(-2.46354e-15 -27.5315 -8.91816)
(3.05973e-15 -31.4614 -10.5655)
(3.03472e-15 -26.2995 -6.17521)
(4.52742e-15 -24.4797 -6.45307)
(5.41494e-15 -26.8862 -8.16282)
(3.26085e-15 -22.4727 -4.53962)
(3.55553e-15 -21.0632 -5.15589)
(2.90484e-15 -23.3207 -7.31328)
(-4.92452e-16 -18.5618 -4.23614)
(-7.15089e-16 -19.3352 -4.27561)
(-8.27797e-16 -17.0809 -3.92669)
(-1.02475e-15 -19.6098 -4.556)
(-8.2805e-16 -15.9823 -1.878)
(-9.37534e-16 -15.3737 -1.73638)
(-1.07477e-15 -16.6394 -1.84334)
(-1.09812e-17 -13.7364 0.204132)
(4.77063e-17 3.68784 4.26952)
(8.33502e-17 5.84504 4.77333)
(8.77989e-17 7.03034 5.36514)
(7.48009e-17 8.42268 6.19845)
(8.82795e-17 9.77766 7.21407)
(1.85983e-16 11.2829 8.49129)
(3.51407e-16 12.9241 10.0569)
(4.90358e-16 14.8273 12.0539)
(5.20988e-16 17.2222 14.9769)
(3.88855e-16 21.167 19.0618)
(-3.15895e-19 27.9482 22.1298)
(-6.38841e-16 27.5254 23.2652)
(-8.87704e-16 5.76234 19.0197)
(-2.93726e-16 -17.2709 5.54595)
(-9.50625e-17 -25.6019 -0.717)
(-3.34766e-17 -29.553 -4.73561)
(-1.95263e-17 -26.7394 -7.75095)
(2.39727e-18 -23.2209 -7.00683)
(1.98894e-17 -13.8165 -9.10144)
(6.50252e-17 3.5198 5.88198)
(1.15235e-16 5.48578 6.5465)
(1.16675e-16 6.54799 7.3065)
(7.03738e-17 7.80032 8.39666)
(4.63391e-17 9.00151 9.71218)
(1.64054e-16 10.3207 11.3818)
(4.37653e-16 11.712 13.4543)
(7.23629e-16 13.1227 16.1501)
(8.13933e-16 14.7683 20.3636)
(4.12293e-16 18.5735 27.1133)
(-8.17567e-16 26.233 33.8977)
(-2.59408e-15 28.0785 40.2587)
(-2.92464e-15 12.6649 38.6147)
(-4.60094e-16 -13.1461 10.9701)
(-8.6619e-17 -22.5296 0.112543)
(-3.91535e-17 -27.4034 -3.45714)
(-2.64493e-17 -25.8251 -7.05572)
(-1.34091e-17 -22.2175 -7.35851)
(4.26038e-17 -15.1519 -9.4482)
(1.0183e-17 3.38666 6.88763)
(4.47566e-17 5.24561 7.68376)
(2.73822e-17 6.22102 8.54971)
(-1.06783e-16 7.38602 9.79887)
(-2.75098e-16 8.48311 11.2736)
(-2.58225e-16 9.66835 13.1434)
(8.01142e-17 10.8671 15.5165)
(5.90913e-16 11.8562 18.5982)
(8.42903e-16 12.5939 23.3646)
(1.08194e-16 15.3068 32.2931)
(-2.25564e-15 22.6303 44.493)
(-5.5456e-15 25.8003 58.994)
(-6.48564e-15 17.8789 63.8589)
(-2.68054e-15 -1.77456 35.4718)
(3.67367e-16 -18.7524 1.24923)
(-1.18419e-16 -26.6186 -1.4563)
(1.28577e-17 -25.1103 -5.41635)
(1.31021e-17 -21.952 -7.325)
(2.06277e-17 -16.2039 -10.4478)
(-1.85906e-16 3.1775 8.01222)
(-2.14555e-16 4.87003 9.02702)
(-3.05308e-16 5.72129 10.0462)
(-6.70435e-16 6.76299 11.4968)
(-1.18762e-15 7.71624 13.1377)
(-1.41505e-15 8.70152 15.1706)
(-9.3463e-16 9.62241 17.8444)
(9.1434e-17 10.0889 21.4309)
(7.87723e-16 9.59062 26.623)
(-1.76852e-16 10.5364 37.0616)
(-3.85161e-15 16.6864 54.5265)
(-9.62922e-15 20.3984 79.7303)
(-1.23426e-14 21.0162 91.3986)
(-9.49176e-15 12.7239 72.7302)
(-2.18516e-15 -8.05351 23.4317)
(4.13914e-16 -24.271 -1.77584)
(-6.99775e-17 -23.8923 -1.54934)
(-1.82974e-16 -19.6412 -6.81811)
(-8.2745e-16 -15.5718 -12.0534)
(-6.47802e-16 2.92776 9.18525)
(-8.57724e-16 4.4573 10.4669)
(-1.17139e-15 5.19641 11.6643)
(-2.02215e-15 6.13732 13.3379)
(-3.15512e-15 6.97962 15.1341)
(-3.72462e-15 7.76259 17.2556)
(-2.85944e-15 8.32787 20.1495)
(-8.57043e-16 8.24918 24.5134)
(6.45342e-16 6.45684 30.6576)
(5.07605e-17 3.62267 39.8418)
(-3.70571e-15 4.08754 52.9073)
(-1.28317e-14 11.2382 88.6331)
(-1.74232e-14 20.6546 103.387)
(-1.6915e-14 25.0493 95.5907)
(-9.66126e-15 11.7872 61.6339)
(1.12468e-16 -17.8435 9.99143)
(-9.69033e-17 -22.9145 0.450981)
(1.43481e-15 -17.5517 -3.51424)
(1.81904e-15 -16.9288 -9.94516)
(-1.52676e-15 2.59995 10.4472)
(-2.18056e-15 3.93356 12.0539)
(-3.02063e-15 4.55511 13.4605)
(-4.69842e-15 5.39872 15.4003)
(-6.63453e-15 6.1534 17.4296)
(-7.39072e-15 6.71158 19.7336)
(-5.61519e-15 6.66379 22.7233)
(-2.09401e-15 5.64884 27.4129)
(2.6057e-16 3.59457 34.8254)
(-1.87022e-16 0.711606 44.1344)
(-3.04645e-15 -2.02274 50.104)
(-1.1039e-14 1.04313 75.2859)
(-1.51319e-14 17.8781 85.5181)
(-1.67574e-14 29.9835 83.574)
(-1.27114e-14 26.4711 77.7574)
(3.20921e-15 0.730017 47.3722)
(-1.15746e-15 -19.4792 0.48626)
(-7.51996e-15 -13.611 -8.36463)
(-1.11536e-14 -12.7064 -32.5946)
(-2.96076e-15 2.1958 11.8318)
(-4.53649e-15 3.31126 13.8165)
(-6.36401e-15 3.81906 15.4641)
(-9.20687e-15 4.55818 17.73)
(-1.19042e-14 5.23799 20.1515)
(-1.22955e-14 5.69449 22.9688)
(-8.80419e-15 5.38716 26.254)
(-3.32996e-15 3.74238 30.0071)
(-1.14001e-16 0.94088 34.7494)
(-5.24641e-16 -2.5685 42.3135)
(-2.90395e-15 -6.705 51.3588)
(-6.12111e-15 -2.84195 61.8913)
(-4.82347e-15 17.0513 53.7895)
(-9.5672e-15 28.0138 56.9424)
(-1.28361e-14 26.0742 73.0143)
(1.89851e-14 13.4048 83.0779)
(5.95048e-14 0.567099 57.795)
(6.10791e-14 -3.58332 50.5788)
(7.33182e-14 -15.0468 80.2274)
(-4.9179e-15 1.69887 13.3411)
(-8.0281e-15 2.56232 15.7531)
(-1.13269e-14 2.95463 17.686)
(-1.55889e-14 3.54359 20.3604)
(-1.89224e-14 4.03589 23.3257)
(-1.8348e-14 4.21632 26.9477)
(-1.22178e-14 3.60821 31.3191)
(-4.42146e-15 1.65403 36.1222)
(-1.16152e-15 -1.86495 40.4594)
(-1.66474e-15 -6.78506 44.5572)
(-2.10481e-15 -10.8371 47.8299)
(-1.0518e-17 0.0825417 41.0428)
(2.51939e-15 18.8051 29.3884)
(-3.80112e-15 22.5196 43.5401)
(-1.66717e-14 15.6976 71.143)
(6.67835e-15 4.48318 101.393)
(7.3602e-14 -8.24503 116.742)
(1.1761e-13 -21.8613 123.147)
(1.27496e-13 -42.3611 136.277)
(-6.75138e-15 1.09733 14.921)
(-1.1658e-14 1.66061 17.7872)
(-1.65445e-14 1.92136 20.0546)
(-2.22863e-14 2.31824 23.1973)
(-2.66202e-14 2.61497 26.6737)
(-2.59581e-14 2.59415 30.6296)
(-1.75888e-14 1.90841 34.6357)
(-5.09719e-15 0.342532 37.8982)
(1.99341e-15 -2.06239 39.1848)
(2.34021e-15 -5.28246 37.8238)
(1.48099e-15 -6.2027 31.7261)
(2.4146e-15 4.93432 14.8601)
(-6.54552e-16 15.9162 17.7469)
(-6.75831e-15 12.076 47.0664)
(-2.21494e-14 3.78604 73.2146)
(-1.83793e-14 -3.29772 89.5594)
(1.75562e-14 -8.35401 93.59)
(5.95958e-14 -12.6739 82.5098)
(6.35207e-14 -16.6688 62.0888)
(-6.21255e-15 0.404978 16.2606)
(-1.16622e-14 0.624326 19.5143)
(-1.69614e-14 0.746614 22.096)
(-2.30792e-14 0.922441 25.6824)
(-2.84925e-14 1.03415 29.5868)
(-3.10771e-14 0.965154 33.508)
(-2.93263e-14 0.5528 36.0332)
(-2.1236e-14 -0.393371 35.2335)
(-1.52037e-14 -1.89248 29.7124)
(-8.36143e-15 -3.26674 19.8081)
(-1.87602e-15 -1.44649 7.89634)
(1.33324e-14 4.77232 -0.379072)
(-6.21037e-15 5.40996 28.2278)
(-1.40455e-14 0.806606 58.9376)
(-2.36174e-14 -2.02532 72.4556)
(-1.63354e-14 -4.16101 73.7329)
(-7.30047e-15 -4.90581 63.0017)
(7.46635e-15 -4.00323 35.7275)
(1.06459e-14 -1.71548 10.1112)
(2.38708e-15 -0.378626 16.2726)
(1.10232e-15 -0.555238 19.5445)
(-4.97324e-16 -0.611653 22.1664)
(-1.71648e-15 -0.656386 25.8313)
(-1.54084e-15 -0.505184 29.8216)
(3.97468e-16 0.077073 33.7051)
(2.27861e-15 1.27468 35.9384)
(-8.08016e-16 2.81875 34.7984)
(7.62755e-16 4.05027 28.8299)
(3.32171e-17 4.15748 17.5151)
(-2.82548e-16 1.84742 5.03162)
(-6.89515e-19 -3.71491 6.92056)
(-2.43177e-16 -6.65458 29.0193)
(1.02279e-15 -5.81502 57.0359)
(2.85703e-15 -2.23544 71.5011)
(5.13738e-15 0.495708 71.8365)
(-7.04794e-16 5.45489 62.6799)
(-1.77672e-14 8.29978 38.8594)
(-2.41524e-14 2.64504 10.7531)
(4.46514e-15 -1.07699 14.9404)
(4.215e-15 -1.61024 17.8283)
(3.12784e-15 -1.82717 20.1393)
(2.06642e-15 -2.11379 23.3734)
(1.33673e-15 -2.1205 26.9938)
(1.03193e-15 -1.46882 31.04)
(9.0035e-16 0.14945 34.7616)
(1.00726e-15 2.48221 37.1255)
(8.17377e-16 5.10353 37.4668)
(4.56855e-16 6.88736 34.9584)
(-1.91334e-16 4.08242 28.6213)
(-1.21586e-15 -5.86899 20.4129)
(8.10499e-17 -13.9599 26.681)
(6.28406e-15 -15.5953 45.6619)
(1.84782e-14 -7.88448 70.9144)
(1.44683e-14 -0.581057 88.1483)
(-2.41403e-14 6.83166 96.2099)
(-7.48041e-14 16.7035 92.3998)
(-8.29345e-14 21.7678 69.6894)
(3.90491e-15 -1.68293 13.3674)
(3.76586e-15 -2.52238 15.8042)
(2.7759e-15 -2.88021 17.7797)
(1.89337e-15 -3.37649 20.5327)
(1.35444e-15 -3.59275 23.6489)
(1.27062e-15 -3.07185 27.5483)
(1.24119e-15 -1.27192 32.3098)
(9.07357e-16 1.56335 37.3833)
(7.23928e-16 4.72951 41.7246)
(1.14064e-15 7.62814 45.2076)
(1.35655e-15 6.68283 46.2871)
(2.92521e-16 -3.63298 40.3616)
(5.93507e-16 -16.4744 36.2255)
(7.40646e-15 -23.5898 44.2723)
(1.86026e-14 -19.699 68.3498)
(-3.92552e-15 -10.2448 99.4582)
(-7.09458e-14 4.59833 118.372)
(-1.12102e-13 24.4867 123.613)
(-1.2596e-13 46.9876 137.683)
(2.63357e-15 -2.18545 11.8619)
(2.47898e-15 -3.28509 13.8699)
(1.69114e-15 -3.76967 15.554)
(1.18443e-15 -4.44113 17.8901)
(1.13925e-15 -4.9187 20.5029)
(1.40004e-15 -4.87997 23.9191)
(1.3134e-15 -3.71991 28.8509)
(7.55936e-16 -1.23313 35.9091)
(7.87066e-16 2.06391 43.8254)
(1.96464e-15 5.35372 51.6036)
(3.68812e-15 5.87512 59.1244)
(4.88932e-15 -1.75767 62.1433)
(5.88253e-15 -15.7134 58.4188)
(1.15975e-14 -27.786 58.7165)
(1.78072e-14 -29.1256 70.1488)
(-4.44662e-15 -18.6779 82.223)
(-4.38389e-14 -2.32622 63.7718)
(-5.21535e-14 7.70587 50.5475)
(-7.17291e-14 18.5643 78.73)
(1.46205e-15 -2.59426 10.4793)
(1.3292e-15 -3.91787 12.1074)
(8.06552e-16 -4.52543 13.5488)
(6.11189e-16 -5.33689 15.5641)
(8.61696e-16 -6.01765 17.8191)
(1.25674e-15 -6.43172 20.7618)
(1.15489e-15 -6.1151 25.1442)
(5.94939e-16 -4.55251 32.1557)
(7.85469e-16 -1.61783 41.9882)
(2.57709e-15 1.61767 53.5735)
(5.59775e-15 2.43191 66.7371)
(9.0543e-15 -3.38992 78.3231)
(1.26662e-14 -15.7617 84.2928)
(1.66569e-14 -28.4077 83.2131)
(1.74316e-14 -29.3984 78.6122)
(3.74074e-15 -10.3115 61.3235)
(-7.79839e-15 13.3185 26.4466)
(-5.64742e-15 18.8038 5.72026)
(1.4701e-15 18.8401 -16.491)
(6.43149e-16 -2.92655 9.2173)
(5.44362e-16 -4.45263 10.5194)
(2.57413e-16 -5.19033 11.7534)
(2.39635e-16 -6.1387 13.5048)
(5.60652e-16 -7.00449 15.4971)
(9.35603e-16 -7.79953 18.0581)
(8.74431e-16 -8.25332 21.6886)
(3.95791e-16 -7.92614 27.4326)
(4.81714e-16 -6.47835 36.4712)
(2.35527e-15 -4.51715 49.9352)
(6.10371e-15 -4.20166 67.6411)
(1.0629e-14 -8.59569 85.3693)
(1.48967e-14 -17.8757 97.2817)
(1.69045e-14 -25.4014 94.5527)
(1.42743e-14 -20.1106 74.5409)
(4.9988e-15 3.25971 36.7949)
(-6.125e-16 21.9654 7.8606)
(-2.03399e-16 25.5731 -2.12028)
(-8.25341e-17 23.9387 -11.1209)
(1.79165e-16 -3.18058 8.04237)
(9.86739e-17 -4.87664 9.07621)
(-2.86214e-17 -5.73765 10.1317)
(2.99311e-17 -6.81092 11.6492)
(3.03292e-16 -7.83104 13.4126)
(5.86744e-16 -8.89349 15.6499)
(5.73355e-16 -9.86005 18.6223)
(2.37319e-16 -10.4817 23.0282)
(1.56818e-16 -10.6054 30.0524)
(1.39509e-15 -10.6799 41.3906)
(4.54523e-15 -11.7596 57.8982)
(8.83046e-15 -15.2424 76.6085)
(1.23516e-14 -19.8277 89.339)
(1.27102e-14 -19.428 82.8185)
(8.43259e-15 -6.43009 50.774)
(2.04033e-15 16.339 11.1527)
(-1.04581e-16 27.8946 -3.70404)
(-3.3729e-17 27.3206 -6.2471)
(-1.8648e-16 23.4657 -9.58436)
(-2.35716e-17 -3.39365 6.91404)
(-9.78518e-17 -5.2627 7.72617)
(-1.4237e-16 -6.25617 8.62281)
(-6.65427e-17 -7.46263 9.92062)
(1.28068e-16 -8.63503 11.4564)
(3.09626e-16 -9.91389 13.3893)
(3.1808e-16 -11.2438 15.8374)
(1.2288e-16 -12.549 19.2234)
(-1.88388e-17 -13.8818 24.3764)
(5.75945e-16 -15.6692 32.5105)
(2.62774e-15 -18.1847 44.5156)
(5.85633e-15 -20.8578 59.1376)
(8.2828e-15 -20.156 68.6968)
(7.10506e-15 -9.7019 54.9179)
(2.42153e-15 8.66859 15.994)
(5.37637e-17 24.2617 -3.80671)
(-1.62996e-16 28.9641 -7.32355)
(-4.92718e-18 28.2142 -6.99625)
(-9.21515e-17 24.1852 -9.25648)
(-7.82436e-17 -3.52966 5.90285)
(-1.4687e-16 -5.51054 6.57936)
(-1.60894e-16 -6.59579 7.36167)
(-9.52454e-17 -7.89209 8.48315)
(3.2317e-17 -9.16495 9.82604)
(1.35461e-16 -10.5749 11.5066)
(1.42425e-16 -12.1099 13.5828)
(4.30884e-17 -13.7989 16.3237)
(-7.65041e-17 -15.8057 20.2502)
(1.21164e-16 -18.6205 25.9184)
(1.20947e-15 -22.3078 33.5427)
(3.30893e-15 -24.641 42.669)
(4.85217e-15 -18.493 46.8421)
(2.96732e-15 1.98313 26.0348)
(3.01824e-16 17.47 -0.56436)
(-4.76682e-17 26.1134 -4.69552)
(-1.15211e-16 28.9374 -7.96739)
(7.70949e-18 28.4097 -7.12451)
(-1.21334e-16 23.4903 -8.86375)
(-5.48006e-17 -3.70001 4.28101)
(-9.82691e-17 -5.87597 4.79089)
(-1.03176e-16 -7.0874 5.39363)
(-6.73881e-17 -8.52329 6.24109)
(-7.85816e-18 -9.94424 7.26623)
(2.98464e-17 -11.5364 8.54313)
(2.54229e-17 -13.319 10.1052)
(-1.11868e-17 -15.4005 12.093)
(-6.3803e-17 -17.9372 14.7481)
(-4.70651e-17 -21.2142 18.1629)
(2.80788e-16 -25.058 21.9264)
(1.13964e-15 -26.0931 25.4516)
(1.99664e-15 -13.8723 25.342)
(1.36297e-15 9.9488 10.4158)
(5.52906e-16 21.4821 -0.194611)
(3.58268e-17 28.1242 -4.57228)
(-1.08646e-16 29.7158 -8.26559)
(1.36022e-17 28.9116 -7.038)
(-1.18424e-16 22.0785 -9.11946)
(1.83157e-15 76.4692 133.903)
(-1.94865e-14 106.571 174.664)
(-1.76661e-14 101.892 166.207)
(-1.52398e-14 96.2064 150.499)
(-1.52448e-14 91.3014 142.739)
(-1.51343e-14 90.6955 139.201)
(-1.01322e-14 88.9035 136.989)
(-8.17593e-15 88.7881 136.381)
(-7.31593e-15 87.9897 136.864)
(-5.34432e-15 87.5442 137.421)
(-4.77717e-15 87.2215 137.764)
(-6.07935e-15 86.3038 138.548)
(-6.55465e-15 86.3395 138.597)
(-6.55302e-15 85.0489 139.702)
(-6.9437e-15 85.543 139.447)
(-6.90477e-15 83.8632 140.781)
(-7.31205e-15 84.8306 140.349)
(-7.60529e-15 83.2995 142.365)
(-5.53241e-15 82.3703 138.399)
(-1.05661e-14 78.2446 135.417)
(-1.64522e-15 79.9329 138.698)
(-3.0792e-14 101.037 169.819)
(-2.79968e-14 91.5682 157.033)
(-2.89164e-14 84.9033 141.676)
(-3.02803e-14 79.5791 135.693)
(-3.61081e-14 80.0196 134.16)
(-2.88825e-14 79.6814 135.788)
(-2.85593e-14 80.7095 136.018)
(-2.81304e-14 80.4105 136.377)
(-2.65983e-14 80.7204 136.419)
(-2.77451e-14 80.7182 136.516)
(-2.72504e-14 80.6555 136.825)
(-2.69717e-14 80.9137 136.682)
(-2.69844e-14 80.5328 137.222)
(-2.78881e-14 80.9791 136.821)
(-2.75207e-14 80.2854 137.471)
(-2.76956e-14 80.9321 136.971)
(-2.74385e-14 80.2816 138.22)
(-2.56098e-14 79.2076 134.471)
(-2.5353e-14 72.7015 125.806)
(1.81317e-16 85.7483 149.769)
(-1.12936e-14 107.169 180.398)
(-9.04237e-15 97.7791 166.215)
(-1.00769e-14 90.1169 148.682)
(-9.81995e-15 83.4499 138.877)
(-2.26591e-14 82.1043 134.918)
(-1.56611e-14 81.2109 135.125)
(-1.29621e-14 81.6579 135.332)
(-1.26262e-14 81.2304 135.688)
(-1.21245e-14 81.2997 135.727)
(-1.29241e-14 81.0372 135.899)
(-1.27497e-14 80.9711 136.116)
(-1.23885e-14 80.8841 136.211)
(-1.14399e-14 80.7249 136.59)
(-1.15582e-14 80.7324 136.555)
(-1.19013e-14 80.4114 136.893)
(-1.21433e-14 80.4941 136.823)
(-1.17396e-14 80.2636 137.496)
(-1.27406e-14 78.7427 134.604)
(-1.24776e-14 70.7499 121.886)
(8.18925e-17 90.403 157.297)
(2.44246e-15 111.223 187.654)
(2.27593e-15 100.664 170.732)
(2.30307e-15 91.4835 151.341)
(2.75591e-15 83.274 138.583)
(-1.51435e-14 80.6413 132.769)
(-1.48939e-14 79.7883 132.867)
(-1.44478e-14 80.3991 133.32)
(-1.48232e-14 80.0494 133.775)
(-1.42735e-14 80.1845 133.75)
(-1.39189e-14 79.8633 133.975)
(-1.45886e-14 79.9227 134.075)
(-1.41637e-14 79.6783 134.262)
(-1.37823e-14 79.6941 134.436)
(-1.36761e-14 79.4109 134.513)
(-1.36337e-14 79.2696 134.478)
(-1.28423e-14 78.904 134.513)
(-1.39155e-14 78.8021 134.569)
(-1.4039e-14 77.1091 132.542)
(-1.65275e-14 67.8036 116.286)
(-5.10444e-17 95.9688 166.859)
(-4.78431e-16 117.206 197.718)
(-4.91492e-16 104.812 177.522)
(-4.86372e-16 93.7897 155.363)
(-6.69636e-16 83.6471 139.395)
(2.56009e-15 79.9318 131.617)
(2.98589e-15 78.997 131.546)
(2.83954e-15 79.7635 131.966)
(2.83538e-15 79.3416 132.518)
(2.72389e-15 79.547 132.353)
(2.89347e-15 79.1037 132.63)
(2.8925e-15 79.2216 132.603)
(2.8132e-15 78.8278 132.841)
(2.63601e-15 78.8804 132.83)
(2.68938e-15 78.3758 132.927)
(2.74973e-15 78.2245 132.566)
(2.79832e-15 77.5451 132.559)
(2.71444e-15 77.3524 132.095)
(2.85315e-15 75.8887 131.011)
(3.08695e-15 65.9483 113.201)
(1.04519e-17 101.85 177.151)
(5.32775e-17 122.692 206.485)
(4.15751e-17 106.255 181.349)
(3.78885e-17 93.7127 156.365)
(7.82601e-17 81.9965 139.257)
(-4.1468e-16 78.99 130.909)
(-5.28891e-16 77.7695 131.257)
(-5.10027e-16 79.0163 130.901)
(-4.86216e-16 78.147 131.445)
(-4.82291e-16 78.6216 130.86)
(-5.13583e-16 77.9618 131.099)
(-5.1327e-16 78.1512 130.821)
(-5.2381e-16 77.6291 130.962)
(-4.93995e-16 77.6291 130.724)
(-4.91421e-16 76.9897 130.677)
(-5.0354e-16 76.7143 130.05)
(-5.18584e-16 75.8659 129.843)
(-5.12328e-16 75.471 128.99)
(-5.55556e-16 74.4941 128.881)
(-4.47649e-16 64.7072 111.218)
(1.27556e-18 108.393 189.478)
(8.11744e-18 125.449 210.085)
(1.5496e-17 103.284 179.94)
(1.70422e-17 91.5941 154.141)
(1.56034e-17 80.0712 140.495)
(5.61681e-17 80.0013 133.06)
(4.7404e-17 77.4775 133.687)
(4.47632e-17 79.3623 131.588)
(4.50465e-17 77.5363 131.833)
(4.22833e-17 78.3122 130.503)
(4.8067e-17 77.2859 130.45)
(5.00869e-17 77.4514 129.743)
(5.41527e-17 76.7688 129.572)
(5.37913e-17 76.6185 129.027)
(5.39681e-17 75.8768 128.678)
(6.01218e-17 75.4331 127.828)
(6.39093e-17 74.4947 127.311)
(6.50838e-17 73.8275 126.089)
(7.11636e-17 73.3853 126.803)
(6.17139e-17 64.0233 110.086)
(-1.22625e-18 114.449 202.09)
(-3.51017e-18 122.68 204.29)
(-3.01186e-18 96.9007 173.635)
(-3.05016e-18 90.1586 151.601)
(-5.8133e-18 80.9256 145.209)
(-5.32096e-19 83.6693 138.26)
(1.34176e-17 79.0425 137.878)
(1.26599e-17 81.0855 133.934)
(9.79693e-18 78.3589 133.359)
(1.30519e-17 78.9971 131.223)
(1.12398e-17 77.6239 130.492)
(1.06137e-17 77.4919 129.245)
(1.14611e-17 76.6112 128.535)
(1.06478e-17 76.1815 127.608)
(9.27268e-18 75.3015 126.857)
(5.49252e-18 74.651 125.777)
(2.88731e-18 73.5709 124.891)
(5.29174e-18 72.5156 123.129)
(6.52746e-18 72.2808 124.229)
(-2.38828e-17 62.8321 107.718)
(1.76469e-19 118.014 211.042)
(-1.00465e-18 116.142 192.911)
(-2.47427e-18 93.846 170.326)
(-2.49806e-18 93.5813 154.798)
(-8.01515e-19 86.3758 152.762)
(-2.32834e-18 88.8082 144.862)
(-5.31554e-18 83.1899 142.082)
(-4.36549e-18 83.9781 137.198)
(-3.43703e-18 81.1417 135.19)
(-4.47015e-18 80.8585 132.469)
(-4.24658e-18 79.2994 130.754)
(-4.21161e-18 78.5364 128.93)
(-4.81163e-18 77.3804 127.533)
(-5.01355e-18 76.5174 126.149)
(-4.83425e-18 75.3742 124.935)
(-3.8225e-18 74.4044 123.533)
(-2.82239e-18 73.0027 122.203)
(-4.36679e-18 71.3257 119.591)
(-5.62977e-18 70.6507 120.266)
(9.18959e-18 60.0454 102.287)
(9.73216e-20 117.55 211.697)
(1.0557e-18 113.767 189.907)
(1.57334e-18 100.392 178.042)
(1.58975e-18 101.906 165.616)
(1.36462e-18 94.6482 160.139)
(2.0615e-19 93.9915 151.065)
(-1.11343e-18 88.9914 145.476)
(-1.52456e-18 87.6048 140.037)
(-1.49872e-18 85.0095 136.402)
(-1.60351e-18 83.5168 133.069)
(-1.46888e-18 81.7058 130.331)
(-1.36303e-18 80.1955 127.83)
(-1.41341e-18 78.6012 125.685)
(-1.16096e-18 77.1852 123.722)
(-8.85349e-19 75.5941 121.967)
(-6.3128e-19 74.1299 120.068)
(-5.83017e-19 72.1401 118.136)
(-3.59221e-19 69.5643 114.33)
(8.87366e-20 67.6095 113.545)
(-4.96147e-19 54.8151 92.3006)
(-8.32072e-20 114.945 205.9)
(-4.26375e-19 122.081 205.803)
(-5.63592e-19 114.632 195.76)
(-5.83786e-19 110.928 179.334)
(-7.47348e-19 103.009 167.617)
(2.06825e-19 99.2566 157.027)
(1.56971e-18 94.6781 149.08)
(1.85334e-18 91.6197 142.45)
(1.67531e-18 88.7428 137.218)
(1.84179e-18 86.2993 132.828)
(1.80439e-18 83.958 129.008)
(1.72016e-18 81.7409 125.584)
(1.86109e-18 79.5341 122.549)
(1.82249e-18 77.4679 119.784)
(1.6569e-18 75.2375 117.276)
(1.32926e-18 73.0736 114.578)
(1.05651e-18 70.1762 111.701)
(1.18173e-18 66.4674 106.343)
(1.22567e-18 62.342 102.992)
(-1.43093e-18 46.7759 76.9527)
(2.87399e-20 113.876 202.845)
(1.2268e-19 138.076 232.221)
(1.57636e-19 127.981 216.166)
(1.6049e-19 119.269 192.777)
(2.61049e-19 109.942 177.233)
(-8.61621e-20 104.7 164.388)
(-6.63667e-19 99.5599 154.459)
(-8.33373e-19 95.489 145.901)
(-7.55997e-19 91.8289 138.793)
(-8.04939e-19 88.5526 132.748)
(-8.14933e-19 85.4696 127.466)
(-7.87288e-19 82.51 122.718)
(-8.49994e-19 79.5589 118.442)
(-8.79434e-19 76.7159 114.49)
(-8.48646e-19 73.6461 110.814)
(-7.21344e-19 70.5479 106.833)
(-5.67071e-19 66.4008 102.47)
(-6.42246e-19 61.4215 95.1851)
(-7.94488e-19 54.4777 88.431)
(8.9808e-19 36.0387 56.3328)
(-6.97271e-21 115.928 206.968)
(-2.93888e-20 154.005 255.485)
(-3.71062e-20 136.155 233.157)
(-3.59379e-20 126.556 204.927)
(-6.69342e-20 115.242 188.93)
(2.03251e-20 110.092 174.066)
(1.79184e-19 103.77 162.674)
(2.3849e-19 98.9807 151.864)
(2.20195e-19 94.266 142.601)
(2.2676e-19 90.0558 134.368)
(2.32651e-19 86.0439 127.076)
(2.2774e-19 82.1862 120.452)
(2.44376e-19 78.319 114.389)
(2.6163e-19 74.5019 108.671)
(2.65892e-19 70.3436 103.206)
(2.40846e-19 66.0619 97.309)
(1.94449e-19 60.4365 90.8859)
(2.1486e-19 54.2352 81.4532)
(3.08213e-19 44.319 70.8831)
(-3.18469e-19 23.4437 32.1813)
(1.32746e-21 122.882 221.921)
(6.09316e-21 164.751 267.735)
(7.59727e-21 137.491 241.963)
(6.94022e-21 132.172 213.4)
(1.38788e-20 118.403 200.433)
(-4.22959e-21 114.988 184.146)
(-3.76655e-20 106.766 172.473)
(-5.11899e-20 101.77 159.69)
(-4.7523e-20 95.7818 148.72)
(-4.74981e-20 90.6534 138.26)
(-4.85423e-20 85.5296 128.741)
(-4.77668e-20 80.5905 119.815)
(-5.08629e-20 75.5756 111.432)
(-5.54987e-20 70.5547 103.337)
(-5.87828e-20 65.1068 95.4722)
(-5.65698e-20 59.5661 87.1875)
(-4.79162e-20 52.6066 78.4812)
(-5.17891e-20 45.4367 66.9929)
(-8.61999e-20 32.7023 52.0983)
(7.62952e-20 10.7775 8.17244)
(-2.13182e-22 132.982 244.857)
(-1.1189e-21 168.529 268.24)
(-1.37608e-21 134.011 244.276)
(-1.19261e-21 136.512 218.336)
(-2.49047e-21 119.124 209.161)
(9.18739e-22 118.547 191.547)
(6.91366e-21 107.725 180.673)
(9.21066e-21 103.343 166.622)
(8.42392e-21 95.9912 155.044)
(8.19736e-21 90.3154 142.989)
(8.25036e-21 84.0902 131.742)
(8.06469e-21 78.1377 120.657)
(8.48891e-21 71.9877 109.954)
(9.30065e-21 65.9176 99.4264)
(1.00786e-20 59.4881 89.1902)
(1.01262e-20 53.1346 78.6158)
(9.00156e-21 45.2449 67.6732)
(9.65649e-21 37.1222 53.7875)
(1.82973e-20 21.0329 33.4776)
(7.81773e-21 1.83324 -8.0387)
(3.10978e-23 141.038 266.368)
(1.85383e-22 166.619 260.884)
(2.22088e-22 130.944 246.181)
(1.84505e-22 139.932 222.038)
(3.98012e-22 119.21 214.756)
(-1.93332e-22 120.863 196.364)
(-1.14951e-21 108.299 186.219)
(-1.46474e-21 104.749 171.82)
(-1.30493e-21 96.6243 160.319)
(-1.24066e-21 90.9591 147.627)
(-1.22291e-21 84.2008 135.63)
(-1.17425e-21 77.9442 123.412)
(-1.20982e-21 71.5151 111.578)
(-1.30359e-21 65.4753 99.8844)
(-1.40549e-21 58.9702 88.1982)
(-1.43835e-21 51.9676 75.0755)
(-1.33687e-21 42.106 60.1718)
(-1.45018e-21 31.318 41.6786)
(-2.75601e-21 10.0678 15.2542)
(-9.67723e-21 -8.36525 -28.4503)
(-4.31997e-24 142.349 277.039)
(-2.83642e-23 162.791 252.659)
(-3.28477e-23 129.052 248.12)
(-2.60198e-23 139.934 224.469)
(-6.09156e-23 118.913 217.503)
(3.90347e-23 120.407 200.072)
(1.8123e-22 108.633 190.082)
(2.14765e-22 105.148 176.564)
(1.83577e-22 97.6841 165.396)
(1.69638e-22 92.5384 153.246)
(1.61293e-22 86.549 141.711)
(1.48285e-22 81.3949 130.225)
(1.44679e-22 76.5055 119.462)
(1.46914e-22 72.1145 108.581)
(1.50472e-22 66.0778 95.7255)
(1.50289e-22 56.9574 77.2463)
(1.40983e-22 41.8367 53.3896)
(1.74417e-22 25.2662 27.4402)
(8.92123e-23 0.983716 2.59621)
(-4.47153e-21 -14.3905 -36.5403)
(6.70183e-25 134.228 274.869)
(3.95754e-24 158.863 247.851)
(4.16005e-24 122.858 246.572)
(3.89944e-24 130.997 225.72)
(5.68405e-24 112.646 218.284)
(-9.66073e-24 110.529 203.964)
(-2.41611e-23 100.761 194.086)
(-2.45161e-23 95.7666 182.54)
(-2.0459e-23 89.1034 172.213)
(-1.91215e-23 83.8787 161.567)
(-1.7958e-23 78.648 151.513)
(-1.67568e-23 74.4595 142.153)
(-1.69725e-23 70.9044 133.678)
(-1.77722e-23 66.8853 123.76)
(-1.88889e-23 58.5434 107.022)
(-2.05233e-23 42.4251 76.4223)
(-2.20439e-23 15.4138 32.4581)
(2.69869e-23 -31.8951 -49.345)
(3.54072e-22 -30.96 -41.5348)
(-1.40488e-22 -26.6244 -58.4566)
(-1.04451e-25 109.704 256.276)
(-4.95751e-25 149.122 227.862)
(-4.67291e-25 108.751 230.661)
(-3.98196e-25 114.449 215.82)
(-7.47096e-26 98.435 210.28)
(1.42618e-24 93.4708 200.903)
(2.13408e-24 84.4908 193.608)
(1.81349e-24 78.1159 185.674)
(1.46798e-24 71.3987 178.149)
(1.32461e-24 65.54 170.523)
(1.19199e-24 60.0988 163.13)
(1.13041e-24 55.3658 156.126)
(1.20975e-24 50.9708 149.163)
(1.30507e-24 45.5874 139.939)
(6.11462e-25 36.7497 123.694)
(-2.75744e-24 22.6284 96.0517)
(-4.05792e-24 5.28995 58.7502)
(3.62928e-23 -9.43303 20.3853)
(1.96447e-22 -18.2828 -10.6846)
(3.71876e-22 -15.3511 -24.6635)
(1.6492e-26 36.0761 158.287)
(4.33204e-26 78.3624 130.958)
(3.29416e-26 52.701 139.212)
(1.43632e-26 52.4579 135.249)
(-2.99386e-26 43.8923 135.342)
(-1.00661e-25 39.4026 133.819)
(-1.07987e-25 34.2669 132.685)
(-8.15955e-26 30.2156 131.212)
(-6.48843e-26 26.5553 129.636)
(-5.64496e-26 23.5123 127.822)
(-4.99383e-26 20.9712 125.763)
(-4.94196e-26 18.999 123.506)
(-5.66976e-26 17.7137 121.361)
(-5.93556e-26 17.3976 119.834)
(4.04724e-27 18.4678 119.044)
(2.32172e-25 20.8497 118.17)
(4.32825e-25 23.8985 115.522)
(-4.34483e-25 29.6022 107.793)
(-3.3534e-24 33.6869 93.0215)
(-5.0388e-24 8.41298 68.2486)
(-1.13164e-26 -36.0796 158.297)
(-4.8408e-27 -78.3643 130.961)
(1.93328e-27 -52.7027 139.216)
(1.14205e-26 -52.4595 135.251)
(2.61654e-26 -43.8933 135.342)
(4.11551e-26 -39.4037 133.817)
(4.94522e-26 -34.2681 132.683)
(5.16367e-26 -30.217 131.209)
(5.35319e-26 -26.5568 129.631)
(5.36745e-26 -23.5141 127.815)
(5.09064e-26 -20.9738 125.756)
(4.86422e-26 -19.0042 123.501)
(5.08453e-26 -17.7245 121.365)
(5.13514e-26 -17.417 119.85)
(9.79125e-27 -18.4951 119.067)
(-1.40078e-25 -20.8793 118.188)
(-2.84881e-25 -23.9223 115.528)
(2.11545e-25 -29.6151 107.8)
(1.9377e-24 -33.691 93.0351)
(2.90401e-24 -8.41515 68.254)
(1.07461e-25 -109.693 256.254)
(7.00458e-26 -149.114 227.852)
(-5.99196e-28 -108.744 230.641)
(-9.6593e-26 -114.441 215.802)
(-2.84926e-25 -98.4312 210.264)
(-5.58961e-25 -93.4674 200.888)
(-8.00437e-25 -84.49 193.594)
(-9.30202e-25 -78.1155 185.66)
(-1.0519e-24 -71.3995 178.134)
(-1.16143e-24 -65.541 170.507)
(-1.18471e-24 -60.1015 163.115)
(-1.14746e-24 -55.37 156.11)
(-1.14136e-24 -50.9716 149.137)
(-1.163e-24 -45.5746 139.88)
(-7.2063e-25 -36.7263 123.598)
(1.3981e-24 -22.6321 95.9765)
(2.28692e-24 -5.3657 58.7996)
(-2.29645e-23 9.32001 20.5544)
(-1.25478e-22 18.2434 -10.6039)
(-2.36115e-22 15.4255 -24.7841)
(-8.70568e-25 -134.244 274.902)
(-6.23375e-25 -158.869 247.824)
(-4.87796e-26 -122.871 246.581)
(6.47634e-25 -131.024 225.717)
(1.99657e-24 -112.666 218.278)
(4.46528e-24 -110.562 203.954)
(7.54553e-24 -100.793 194.078)
(9.80051e-24 -95.8122 182.531)
(1.19758e-23 -89.1524 172.204)
(1.47042e-23 -83.9366 161.553)
(1.66551e-23 -78.7093 151.494)
(1.70946e-23 -74.5261 142.125)
(1.67928e-23 -70.9671 133.629)
(1.65313e-23 -66.9285 123.66)
(1.70929e-23 -58.5551 106.863)
(1.92404e-23 -42.4684 76.2995)
(2.29643e-23 -15.7117 32.7044)
(-5.94057e-25 30.5988 -47.4607)
(-3.63854e-22 30.8165 -41.5384)
(-1.99421e-22 26.5264 -58.4401)
(6.522e-24 -142.264 276.781)
(4.77636e-24 -162.786 252.573)
(3.29953e-25 -128.963 247.947)
(-4.95059e-24 -139.899 224.313)
(-1.38911e-23 -118.894 217.346)
(-2.98856e-23 -120.391 199.917)
(-5.2622e-23 -108.653 189.912)
(-7.25005e-23 -105.166 176.393)
(-9.06956e-23 -97.7306 165.215)