/*--------------------------------*- C++ -*----------------------------------*\
| =========                 |                                                 |
| \\      /  F ield         | OpenFOAM: The Open Source CFD Toolbox           |
|  \\    /   O peration     | Version:  4.1                                   |
|   \\  /    A nd           | Web:      www.OpenFOAM.org                      |
|    \\/     M anipulation  |                                                 |
\*---------------------------------------------------------------------------*/
FoamFile
{
    version     2.0;
    format      ascii;
    class       volScalarField;
    location    "17";
    object      p;
}
// * * * * * * * * * * * * * * * * * * * * * * * * * * * * * * * * * * * * * //

dimensions      [0 2 -2 0 0 0 0];

internalField   nonuniform List<scalar> 
1280
(
-79.4954
-1.57008
-42.6839
-126.499
5.87916
-80.9514
-163.89
-153.725
-85.2178
-151.249
-314.683
-169.318
-308.27
-577.887
-380.393
-676.941
-1112.36
-1021.73
-1187.7
-2578.22
-1593.84
115.941
1590.73
2330.68
2372.53
3010.18
-1265.83
700.946
871.45
645.806
543.183
430.152
292.397
135.865
-26.8189
-228.278
-399.6
-651.136
-733.5
-1179.54
-3471.51
-1604.87
-1065.52
-869.132
553.346
-11.1587
91.1562
123.057
198.508
57.7145
23.6802
34.8705
-148.829
-308.149
-505.137
22.7356
-1379.46
-1593.22
-2371.63
-5094.87
-787.94
-348.954
-465.048
-482.566
-549.761
-542.163
-537.994
-520.993
-515.346
-521.011
-541.691
-529.694
-668.9
-3141.4
411.78
-66.2604
114.849
-25.7918
-299.436
-1479.72
-2784.88
-1215.55
-1082.8
-753.555
-472.157
-19.3587
41.927
141.383
319.963
341.803
342.187
359.515
373.807
327.619
302.865
277.761
217.018
107.748
38.4332
89.4189
-40.921
14.5675
71.75
215.24
410.872
-3.40067
46.4012
5.83304
-187.113
-372.874
-400.736
-223.562
-23.2478
118.359
160.964
96.1257
50.4543
45.8545
73.7465
-18.3898
110.343
233.25
499.59
1009.76
267.875
272.76
-42.3065
-473.258
-480.348
-541.391
-232.119
212.585
447.96
463
257.507
126.52
127.361
172.813
4.92796
148.645
294.106
590.541
1225.34
462.134
355.501
5.59459
-533.376
-478.519
-699.566
-298.737
320.786
638.487
668.734
378.225
193.397
197.727
270.122
16.0831
179.952
354.78
707.974
1318.7
676.435
462.17
52.0308
-547.851
-570.401
-761.247
-395.507
418.124
843.884
892.544
499.669
254.407
298.248
354.383
24.9633
203.943
400.559
823.019
1279.75
788.917
488.853
107.76
-460.329
-601.223
-1025.83
-601.102
518.788
1034.97
1082.36
592.554
277.21
364.321
435.109
29.1655
213.034
415.964
891.568
1171.6
829.137
458.314
134.087
-424.516
-787.718
-1882.62
-618.297
546.624
1171.65
1209.06
633.669
299.994
570.138
262.085
28.1671
209.162
399.71
857.439
1011.97
721.76
317.801
126.367
-293.968
-846.745
-1844.87
-620.84
561.773
1254.52
1321.46
665.772
241.695
557.443
252.17
23.0805
192.792
355.232
719.761
759.618
445.392
88.2635
92.7565
-142.134
-707.115
-1435.96
-654.23
435.779
1165.64
1352.89
892.363
500.631
653.165
1388.24
15.4469
165.12
292.336
532.782
438.469
110.394
-106.249
164.29
66.8563
-467.805
-1116.34
-622.607
251.178
837.795
1022.01
850.702
815.224
1346.93
4604.1
6.99487
128.301
223.733
358.12
165.598
-78.5982
-193.064
300.323
293.03
-138.115
-728.792
-485.605
88.9498
417.914
527.309
663.557
951.561
1362.14
3717.89
-0.384796
84.654
156.756
208.127
-54.5192
-162.733
-204.281
432.629
470.902
105.311
-382.737
-313.149
-11.4075
74.297
102.076
488.959
969.309
1241.54
3693.35
-5.95991
34.1163
92.6739
84.3278
-231.055
-219.219
-165.757
565.031
613.314
246.254
-141.078
-187.611
-157.645
-297.835
-279.655
374.557
953.625
1352.62
4695.64
-7.41724
-18.2894
37.3461
-8.94588
-376.153
-273.839
-109.881
640.936
662.707
288.215
7.10611
-99.1355
-262.378
-500.997
-453.242
344.27
1019.98
624.019
713.189
-5.31902
-74.746
-15.7712
-79.5477
-498.66
-325.53
-61.2932
636.323
611.436
276.735
58.2951
-85.9434
-298.194
-508.755
-479.874
216.693
561.719
173.093
-336.826
5.05219
-119.486
-46.8369
-106.205
-586.99
-401.377
-20.8566
594.88
502.423
256.652
81.4874
-143.574
-337.608
-479.779
-443.24
152.987
499.118
272.826
-70.201
15.1115
-172.306
-91.1673
-124.237
-622.841
-498.145
17.1835
545.972
402.359
215.119
72.143
-194.53
-287.296
-395.134
-322.293
115.637
299.367
186.729
13.582
32.6263
-177.842
-69.2324
-42.6677
-495.944
-571.221
43.829
494.509
344.207
173.26
35.389
-223.244
-227.461
-311.687
-188.88
80.3884
193.911
169.192
39.5874
19.5959
-225.143
-139.936
-64.9055
-307.126
-570.078
77.5632
438.556
272.237
126.285
9.43271
-220.045
-204.898
-247.864
-124.31
38.7611
131.103
111.796
23.9267
21.6211
-88.9984
51.1593
158.969
58.2773
-506.238
109.197
375.779
178.492
83.3894
-6.99265
-171.762
-199.684
-198.73
-96.7308
19.9266
94.0347
88.0852
18.0782
-10.0455
-113.425
-202.478
-265.202
-45.1391
-366.293
71.711
190.62
39.5754
25.0796
-2.74528
-69.9419
-143.358
-127.18
-46.2729
24.2517
57.5566
37.9387
16.8364
6518.73
6739.66
6767.02
6832.76
6754.63
6672.24
6520.59
6366.22
6215.48
6082.92
5964.16
5864.84
5783.37
5719.85
5671.65
5639.14
5617.62
5606.36
5599.36
5584.38
716.709
1109.22
1246.74
1465.95
1641.96
1815.38
1980.17
2132.24
2279
2418.17
2553.81
2689.48
2826.13
2968.6
3112.55
3266.91
3413.29
3576.91
3696.74
3865.19
-1092.54
-916.189
-857.172
-798.396
-704.296
-635.185
-546.876
-466.712
-378.005
-285.177
-184.583
-73.8132
47.4403
185.772
336.742
519.319
709.556
973.089
1204.27
1554.14
-3845.56
-4122.56
-4187.15
-4392.47
-4510.11
-4683.19
-4809.94
-4928.75
-5001.17
-5038.26
-5030.55
-4979.38
-4885.67
-4752
-4591.93
-4406.92
-4228.85
-4012.42
-3844.06
-3466.92
475.583
-131.778
-375.549
-827.428
-1184.65
-1628.27
-2047.58
-2481.4
-2883.63
-3261.71
-3593.92
-3874.13
-4085.47
-4215.65
-4252.33
-4213.4
-4121.34
-3985.32
-3984.68
-4009.23
6144.93
5799.16
5659.78
5436.88
5256.46
5040.97
4837.79
4629.19
4432.35
4238.08
4051.21
3864.63
3678.61
3495.99
3339.16
3221.92
3154.84
3228.8
3317.05
2925.11
7828.03
7847.7
7826.38
7829.49
7806.08
7762.52
7686.6
7559.5
7390.56
7165.42
6896.7
6583.77
6241.69
5890.11
5572.56
5340.11
5211.69
5140.21
5173.32
5024.78
6326.15
6483.56
6566.81
6681.39
6782.28
6896.19
7023
7132.55
7240.16
7311.04
7346.06
7320.07
7229.01
7073.68
6894.94
6745.75
6698.34
6721.74
6775.82
6748.46
5178.06
5319.15
5381.75
5434.84
5506.21
5555.88
5640.1
5691.93
5766.26
5830.07
5901.75
5974.21
6048.09
6122.02
6194.24
6271.08
6346.26
6439.9
6500.68
6592
3543.76
3716.44
3794.74
3855.09
3982.45
4036.01
4162.25
4232.78
4336.16
4420.78
4511.53
4599.09
4685.5
4773.03
4857.49
4947.67
5029.46
5130.1
5194.29
5303.83
1923.76
2080.73
2193.11
2233.62
2416.18
2453.67
2619.04
2698.94
2838.01
2951.18
3082.32
3213.08
3348.67
3490.81
3633
3785.43
3927.54
4087.37
4194.67
4369.67
-227.737
-236.223
-108.951
-187.749
-38.6507
-110.123
-3.92239
-30.9735
28.9802
32.9694
66.15
89.9053
129.023
186.31
262.501
380.346
520.283
750.645
937.989
1218.4
-323.661
-615.601
-581.821
-833.822
-839.811
-1071.67
-1129.89
-1330.58
-1434.55
-1606.86
-1728.16
-1853.26
-1937.28
-1996.68
-2033.09
-2048.17
-2049.17
-2008.68
-1979.34
-1755.17
2795.36
2426.61
2417.57
2071.02
2007.54
1684.13
1552.36
1257.77
1064.37
789.7
567.191
332.485
150.582
1.46068
-97.1099
-166.595
-208.402
-225.809
-300.959
-415.697
5581.7
5464.35
5610.16
5441.4
5632.21
5496.67
5634.32
5562.52
5621.91
5581.17
5575.16
5520.19
5453.47
5347.71
5207.94
5026.89
4828.01
4689.15
4617.84
4358.92
4086.61
4063.75
4260.46
4124.59
4400.86
4320.94
4541.11
4576.43
4745.83
4856.15
5008.4
5144.67
5286.58
5418.32
5529.18
5587.89
5594.37
5563.31
5590.48
5658.11
4174.22
4008.05
4194.2
3807.81
3976.51
3704.81
3738.92
3605.81
3584.81
3529.59
3512.86
3500.32
3504.23
3521.25
3552.4
3617.52
3708.61
3857.25
4000.34
4199.93
3635.12
3242.65
3817.57
3268.19
3470.52
3161.03
3090.84
2872.69
2708.48
2510.32
2323.78
2132.81
1946.45
1765.81
1594.51
1458.52
1373.24
1427.6
1525.05
1749.31
3073.27
1383.37
2128.88
1161.43
1078.03
537.566
221.794
-166.708
-477.89
-763.319
-989.031
-1158.54
-1261.28
-1294.17
-1249.8
-1123.18
-917.642
-641.022
-361.887
-89.1333
56167.3
49643.3
46179.9
41838
38218
34639
31348.2
28223.3
25290
22517.5
19897.7
17415.4
15056.1
12803.5
10664.3
8610.86
6584.95
4956.71
3370.76
474.828
55584.3
49060.5
45597.2
41255.4
37635.4
34056.4
30765.5
27640.6
24707.2
21934.6
19314.7
16832.3
14473
12220.2
10081
8027.91
6002.89
4375.56
2789.33
-107.669
2495.6
805.418
1550.95
583.348
499.953
-40.5763
-356.331
-744.813
-1055.95
-1341.31
-1566.95
-1736.34
-1838.94
-1871.65
-1827.06
-1700.15
-1494.41
-1217.18
-937.648
-666.424
3046.63
2652.82
3227.1
2676.62
2878.1
2567.42
2496.16
2276.6
2110.99
1911.15
1722.88
1529.99
1341.58
1158.74
985.334
847.896
762.091
816.498
913.053
1136.47
3561.37
3394.33
3580.74
3193.38
3361.5
3088.68
3121.21
2987.04
2964.22
2907.82
2889.61
2876.55
2881
2901.06
2937.92
3009.03
3102.35
3250.44
3392.81
3594.15
3514.74
3494.91
3691.62
3555.75
3833.14
3752.76
3972.87
4010.1
4180.77
4294.26
4449.92
4591.16
4737.46
4869.26
4972.29
5015.92
5012.19
4989.5
5029.4
5106.23
5021.66
4926.64
5079.75
4925.95
5121.41
4996.07
5137.29
5071.36
5132.22
5092.27
5083.76
5025
4953.08
4842.42
4701.99
4529.99
4346.42
4214.78
4155.04
3923.54
2793.68
2456.03
2430.35
2047.02
1993.09
1646.37
1531.55
1233
1056.01
786.654
573.435
345.844
175.198
38.3095
-48.4714
-108.054
-143.499
-169.087
-229.577
-354.62
-245.367
-621.281
-447.92
-731.28
-691.942
-846.748
-890.963
-1043.22
-1173.89
-1360.47
-1498.9
-1631.64
-1722.3
-1783.81
-1818.35
-1832.35
-1837.66
-1808.54
-1792.58
-1602.41
60.2181
155.037
272.387
241.907
267.197
237.337
219.208
179.633
144.625
111.224
108.431
114.423
131.16
164.865
214.834
300.12
401.837
578.511
743.71
983.712
1448.96
1666.52
1715.88
1780.21
1816.1
1858.04
1907.57
1973.14
2064.73
2183.72
2314.09
2447.06
2580.27
2716.24
2848.83
2985.92
3110.69
3243.57
3330.97
3455.88
2703.86
2897.81
2933.81
2997.67
3033.43
3080.08
3129.68
3191.9
3257.4
3338.57
3425.86
3507.26
3579.8
3648.27
3710.83
3776.37
3834.6
3903.29
3945.94
4012.06
4143.25
4255.07
4269.91
4317.12
4352.43
4397.37
4439.04
4486.82
4503.05
4504.97
4507.65
4496.04
4477.64
4480.14
4511.3
4561.93
4608.28
4659.66
4685.91
4730.22
4558.82
4621.73
4624.21
4661.24
4696.18
4741.46
4789.63
4811.16
4735.03
4630.87
4659.86
4738.99
4808.08
4862.29
4868.02
4809.35
4739.54
4695.16
4707.82
4699.65
6106.14
5973.32
5923.12
5892.88
5893.17
5898.86
5898.59
5858.35
5783.85
5663.17
5507.17
5310.43
5044.62
4732.68
4423.04
4183.14
4028.91
3969.04
3983.48
3699.07
1769.02
1264.16
1046.38
712.954
405.296
38.9141
-359.927
-792.141
-1188.28
-1507.18
-1751.39
-1924.76
-2024.06
-2041.13
-1987.64
-1885.88
-1767.23
-1660.22
-1659.36
-1795
-2912.91
-3201.24
-3248.03
-3427.25
-3574.46
-3763.34
-3946.34
-4093.72
-4160.07
-4161.03
-4133.16
-4103.95
-4073.59
-4031.54
-3989.8
-3937.5
-3889.31
-3812.97
-3771.32
-3422.17
-1097.93
-868.115
-755.839
-646.825
-546.362
-469.309
-401.861
-348.799
-307.526
-277.809
-254.602
-229.394
-197.106
-141.084
-67.0623
67.5672
237.835
566.157
936.455
1429.37
3098.61
3385.11
3462.86
3623.77
3752.89
3889.52
4030.39
4174.76
4323.09
4478.7
4643.69
4821.83
5013.42
5224.71
5448.56
5695.91
5938.63
6195.61
6380.3
6592.51
4190.47
4452
4516.67
4683.48
4794.67
4918.07
5034.7
5146.77
5257.62
5365.99
5472.21
5576.26
5677.09
5777.19
5873.01
5970.96
6059.23
6151.48
6206.14
6266.57
8054.12
8118.97
8062.1
8045.97
7963.64
7893.09
7789.95
7691.96
7593.69
7504.08
7422.51
7350.58
7288.36
7235.35
7192.24
7156.86
7131.16
7102.11
7082.63
7002.8
)
;

boundaryField
{
    outletWall
    {
        type            fixedValue;
        value           uniform 0;
    }
    fineWalls
    {
        type            zeroGradient;
    }
    fineFrontAndBack
    {
        type            zeroGradient;
    }
    fineplugLeft
    {
        type            cyclicAMI;
        value           nonuniform List<scalar> 
20
(
4231.6
4332.79
4354.86
4414.17
4465.66
4531.96
4603.05
4685.17
4777.91
4879.97
4995.5
5146.67
5233.17
5635.21
5939.82
5878.21
5932.34
5731.76
5414.92
4896.21
)
;
    }
    fineplugRight
    {
        type            cyclicAMI;
        value           nonuniform List<scalar> 
20
(
5444.65
5596.31
5588.68
5608.41
5615.54
5645.36
5680.68
5726.49
5777.4
5833.81
5894.93
5969.01
6019.78
6546.97
6396.83
6357.66
6459.75
6444.52
6435.29
6147.35
)
;
    }
    inletOutletLeft
    {
        type            cyclicAMI;
        value           nonuniform List<scalar> 
20
(
4231.6
4332.79
4354.86
4414.17
4465.66
4531.96
4603.05
4685.17
4777.91
4879.97
4995.5
5146.67
5233.17
5635.21
5939.82
5878.21
5932.34
5731.76
5414.92
4896.21
)
;
    }
    inletLeft
    {
        type            zeroGradient;
    }
    inletWallsLeft
    {
        type            zeroGradient;
    }
    inletFacesLeft
    {
        type            zeroGradient;
    }
    inletOutletRight
    {
        type            cyclicAMI;
        value           nonuniform List<scalar> 
20
(
5444.65
5596.31
5588.68
5608.41
5615.54
5645.36
5680.68
5726.49
5777.4
5833.81
5894.93
5969.01
6019.78
6546.97
6396.83
6357.66
6459.75
6444.52
6435.29
6147.35
)
;
    }
    inletRight
    {
        type            zeroGradient;
    }
    inletWallsRight
    {
        type            zeroGradient;
    }
    inletFacesRight
    {
        type            zeroGradient;
    }
}


// ************************************************************************* //
