/*--------------------------------*- C++ -*----------------------------------*\
| =========                 |                                                 |
| \\      /  F ield         | OpenFOAM: The Open Source CFD Toolbox           |
|  \\    /   O peration     | Version:  4.1                                   |
|   \\  /    A nd           | Web:      www.OpenFOAM.org                      |
|    \\/     M anipulation  |                                                 |
\*---------------------------------------------------------------------------*/
FoamFile
{
    version     2.0;
    format      ascii;
    class       volVectorField;
    location    "17";
    object      U;
}
// * * * * * * * * * * * * * * * * * * * * * * * * * * * * * * * * * * * * * //

dimensions      [0 1 -1 0 0 0 0];

internalField   nonuniform List<vector> 
1280
(
(2.54366e-18 14.5059 0.231067)
(3.21279e-18 17.5177 -1.42786)
(-2.61913e-18 15.8371 -1.37451)
(4.85063e-17 16.3425 -1.4063)
(4.45768e-17 19.8473 -4.04676)
(-3.2103e-17 17.21 -3.65282)
(3.79864e-17 19.3373 -3.97983)
(-4.27734e-16 18.5953 -3.85332)
(4.31929e-16 23.1534 -7.72474)
(3.30466e-16 21.1065 -6.24949)
(1.06291e-15 22.6588 -5.68827)
(-1.99369e-15 27.2327 -11.4348)
(-2.02028e-15 25.4005 -9.48923)
(-1.82035e-15 27.589 -8.6573)
(-5.14055e-15 33.7005 -17.9365)
(-5.82835e-15 31.9937 -14.596)
(-6.81743e-15 35.7613 -13.6958)
(-7.68128e-15 39.7603 -25.5914)
(-7.37547e-15 42.686 -19.5488)
(-8.49623e-15 41.3652 -30.3045)
(-1.30697e-14 43.767 28.2897)
(-1.63296e-14 43.5998 61.7409)
(-1.64348e-14 44.7579 81.0472)
(-1.52916e-14 47.0051 91.3425)
(-1.42445e-14 48.2862 97.2202)
(-1.43097e-14 51.1633 101.678)
(-9.65506e-15 45.743 81.4582)
(-1.70754e-14 81.0843 129.811)
(-1.7677e-14 80.9349 130.162)
(-1.77502e-14 81.7525 129.397)
(-1.76372e-14 81.809 128.333)
(-1.73421e-14 81.69 126.984)
(-1.64123e-14 81.5124 125.42)
(-1.40787e-14 81.1299 123.589)
(-9.58511e-15 80.7577 121.291)
(-1.80441e-15 80.0845 118.32)
(8.28083e-15 79.803 115.2)
(1.43063e-14 78.6679 112.875)
(1.64628e-14 78.9283 114.285)
(3.21995e-15 76.1425 115.263)
(2.14201e-14 93.2989 130.217)
(1.55563e-14 52.5644 92.5297)
(1.038e-14 42.6515 91.2887)
(3.34629e-15 31.774 84.7283)
(-2.08903e-15 21.6179 71.1594)
(-7.44634e-15 12.5836 41.2808)
(-9.06423e-15 7.50162 38.1466)
(-9.90957e-15 3.62651 29.4285)
(-1.9147e-14 1.2761 10.2222)
(-1.5219e-14 -0.944605 8.71721)
(-7.22207e-15 -2.48701 7.40606)
(1.07293e-14 -3.73573 6.35908)
(1.2008e-14 -5.55266 23.6949)
(1.46697e-14 -8.79294 32.3998)
(1.42704e-14 -13.0988 35.767)
(1.04864e-14 -19.7295 57.4668)
(-2.64714e-15 -27.3474 68.0889)
(-1.10388e-14 -35.4196 75.2309)
(-1.85061e-14 -45.0245 80.5327)
(-1.68198e-14 -88.4563 126.175)
(1.77949e-14 -64.1534 126.104)
(4.54536e-15 -66.0257 133.153)
(3.11819e-15 -64.8893 129.128)
(-1.58867e-15 -65.515 125.829)
(-3.5391e-15 -65.1465 123.994)
(-2.47858e-15 -65.3755 124.525)
(1.18517e-15 -65.3868 126.511)
(4.86762e-15 -65.6126 128.715)
(7.66563e-15 -65.7063 130.631)
(9.35805e-15 -65.8149 132.118)
(1.11352e-14 -65.801 133.208)
(1.38776e-14 -65.4445 133.963)
(1.64228e-14 -65.3515 133.813)
(-1.15182e-15 -37.1228 97.2761)
(1.12098e-14 -42.0833 103.19)
(9.99504e-15 -40.453 97.7211)
(1.10704e-14 -40.6729 89.481)
(1.3282e-14 -40.1208 76.9258)
(1.42009e-14 -39.4266 58.6324)
(9.1424e-15 -40.0455 31.5603)
(5.387e-15 -34.4128 -35.7731)
(6.73074e-15 -38.7161 -26.9768)
(1.17203e-14 -29.2001 -35.896)
(1.20776e-14 -29.2543 -22.3057)
(1.47534e-14 -23.1213 -26.516)
(2.30449e-14 -20.3196 -33.6077)
(1.93479e-14 -14.426 -17.1589)
(2.25468e-14 -11.0296 -20.9529)
(2.75813e-14 -5.75094 -26.9577)
(1.27194e-14 -3.4004 -13.0933)
(2.07747e-14 -0.815253 -14.619)
(4.52928e-14 3.84508 -21.0385)
(3.55733e-14 4.97201 -14.6982)
(3.29307e-14 7.94238 -13.8152)
(2.83708e-14 8.8474 -11.8531)
(2.84165e-14 14.0422 -16.1169)
(1.53289e-14 13.6474 -10.9878)
(1.14267e-14 16.0981 -9.59093)
(1.37396e-14 17.6696 -13.9737)
(1.04968e-14 21.2831 -13.8122)
(2.40777e-14 -33.4862 30.1627)
(3.21381e-14 -41.6163 28.8662)
(3.34734e-14 -41.159 27.9681)
(3.50027e-14 -38.4399 26.1839)
(3.56597e-14 -22.154 22.5997)
(3.36182e-14 21.1267 3.83102)
(2.74155e-14 35.9532 -3.89771)
(2.14782e-14 35.1233 3.59006)
(1.91332e-14 18.5338 10.7359)
(1.81804e-14 -14.0446 -0.12533)
(1.78574e-14 -31.5171 -6.50017)
(1.67261e-14 -41.3496 -8.42467)
(1.80209e-14 -40.5972 -13.1321)
(2.11079e-14 -33.4754 -17.7032)
(2.3513e-14 -23.1015 -21.707)
(2.39847e-14 -14.6544 -24.0674)
(2.29525e-14 -8.40864 -24.4941)
(2.13584e-14 -1.50792 -23.3514)
(1.90456e-14 10.5837 -21.4859)
(2.4935e-14 -33.3252 30.4092)
(3.24861e-14 -40.9433 29.4433)
(3.36771e-14 -40.2848 28.8593)
(3.52111e-14 -36.348 27.7194)
(3.54046e-14 -12.9107 20.0875)
(2.88712e-14 27.9904 0.0566329)
(1.9093e-14 35.235 5.97003)
(1.59406e-14 29.9351 20.422)
(1.66723e-14 19.9177 23.2977)
(1.70591e-14 -12.0619 4.18211)
(1.77013e-14 -30.5799 -6.2758)
(1.67398e-14 -39.9201 -6.26627)
(1.79237e-14 -37.8415 -10.6167)
(2.08382e-14 -30.5998 -16.143)
(2.32373e-14 -20.6787 -21.657)
(2.39998e-14 -13.5071 -25.7031)
(2.33842e-14 -8.52471 -26.4342)
(2.23693e-14 -2.6924 -24.7662)
(1.79693e-14 7.32141 -20.7496)
(2.60018e-14 -33.1562 30.8629)
(3.28875e-14 -40.707 30.1374)
(3.39487e-14 -40.1654 30.0011)
(3.54969e-14 -35.118 29.4209)
(3.43221e-14 -7.64785 18.7361)
(2.21511e-14 26.8567 6.64496)
(1.44646e-14 29.176 22.3882)
(1.51214e-14 27.7741 32.7644)
(1.6097e-14 23.9325 32.6742)
(1.57644e-14 -2.92163 15.4352)
(1.69329e-14 -26.4099 -5.57644)
(1.65979e-14 -39.0735 -2.63332)
(1.78239e-14 -35.8836 -6.15046)
(2.05741e-14 -28.3794 -12.913)
(2.2914e-14 -18.631 -20.6391)
(2.39539e-14 -12.6213 -27.2382)
(2.37555e-14 -8.88436 -29.0787)
(2.3411e-14 -3.49761 -26.6081)
(1.82516e-14 6.55708 -23.8853)
(2.71174e-14 -33.1057 31.4078)
(3.3268e-14 -40.602 30.9222)
(3.42899e-14 -40.1479 31.398)
(3.56802e-14 -33.2926 31.2099)
(3.0955e-14 -2.40952 20.2777)
(1.45327e-14 24.5177 21.3757)
(1.07218e-14 24.6067 39.814)
(1.29338e-14 26.2997 46.1238)
(1.39607e-14 26.5148 45.5109)
(1.44676e-14 6.67867 32.2081)
(1.55646e-14 -25.1902 1.06193)
(1.61706e-14 -39.8571 0.725857)
(1.76683e-14 -33.7604 0.668085)
(2.03785e-14 -25.2136 -7.64836)
(2.25998e-14 -15.1622 -17.8073)
(2.37716e-14 -10.4961 -27.6219)
(2.40162e-14 -9.02281 -30.9612)
(2.36106e-14 -5.29229 -27.6607)
(2.21368e-14 5.04612 -29.8081)
(2.82285e-14 -33.0856 31.9111)
(3.3622e-14 -40.6413 31.7613)
(3.47039e-14 -40.2967 32.8743)
(3.54251e-14 -31.6967 33.0769)
(2.50118e-14 -1.33217 27.0435)
(7.45221e-15 18.1352 41.1326)
(6.36894e-15 19.7378 58.0616)
(8.19527e-15 25.6252 61.5948)
(9.86399e-15 28.6133 59.2295)
(1.28509e-14 14.2954 49.473)
(1.42725e-14 -13.6602 31.1505)
(1.55796e-14 -38.3431 7.28095)
(1.74573e-14 -32.4783 9.88169)
(2.02637e-14 -21.0635 0.143629)
(2.2222e-14 -10.2535 -12.227)
(2.32511e-14 -7.54902 -25.2232)
(2.37135e-14 -8.8589 -31.6225)
(2.35292e-14 -2.73093 -26.5592)
(2.00433e-14 5.23913 -36.6611)
(2.92892e-14 -33.1419 32.1599)
(3.39883e-14 -40.8951 32.5728)
(3.51262e-14 -40.7523 34.1873)
(3.45908e-14 -31.4856 35.3492)
(1.8734e-14 -4.70207 38.4496)
(1.77673e-16 11.1248 61.6395)
(-1.18107e-15 16.3434 75.5862)
(-8.02736e-16 26.0838 77.2541)
(2.65082e-15 31.4168 72.6021)
(1.03358e-14 19.4718 60.8539)
(1.41035e-14 -6.91639 49.8476)
(1.52244e-14 -32.5185 29.2897)
(1.72235e-14 -30.2489 20.9111)
(2.0075e-14 -16.3118 12.4612)
(2.30524e-14 -4.27204 0.137496)
(2.48615e-14 -2.77425 -10.9139)
(2.36842e-14 -9.35479 -25.0359)
(2.52914e-14 -6.04163 -25.8174)
(6.85763e-15 10.8765 -30.2272)
(3.01973e-14 -33.3435 31.9683)
(3.44356e-14 -41.3674 33.2689)
(3.54879e-14 -41.5791 35.1731)
(3.35219e-14 -33.3496 37.874)
(1.35966e-14 -11.6118 49.3625)
(-8.59301e-15 3.15587 77.5397)
(-1.27501e-14 13.5197 87.6711)
(-1.30031e-14 26.9982 86.4567)
(-6.81797e-15 34.5418 82.9208)
(6.36149e-15 23.7126 75.6898)
(1.48439e-14 -3.63802 63.3812)
(1.55172e-14 -26.2995 48.4551)
(1.71808e-14 -26.0077 36.0093)
(2.16178e-14 -13.0039 31.193)
(2.77768e-14 -0.55758 28.9817)
(2.8727e-14 2.67766 26.1563)
(2.3232e-14 -1.44185 5.93508)
(2.25412e-14 4.91424 -19.9349)
(-1.44425e-14 11.5737 19.9968)
(3.07383e-14 -33.7576 31.2474)
(3.50374e-14 -42.0876 33.7435)
(3.58301e-14 -42.7826 35.7969)
(3.25994e-14 -36.9805 39.9745)
(9.83555e-15 -20.2949 55.7553)
(-1.74565e-14 -3.86627 82.3977)
(-2.44405e-14 12.6972 85.4121)
(-2.2735e-14 28.2594 79.2057)
(-1.45642e-14 35.741 80.1655)
(2.57858e-15 27.7203 84.6508)
(1.71153e-14 2.37055 78.1548)
(1.70862e-14 -20.9003 64.3685)
(1.90057e-14 -22.9692 55.5709)
(2.5997e-14 -13.3815 58.2743)
(3.14464e-14 -2.03279 69.5818)
(2.7581e-14 5.14694 75.9143)
(1.57914e-14 2.13795 68.0473)
(-2.56339e-15 -13.0507 64.117)
(-1.9338e-14 -41.913 88.606)
(3.05956e-14 -34.4399 30.0665)
(3.57347e-14 -43.1064 33.8959)
(3.62238e-14 -44.2342 36.116)
(3.2246e-14 -41.2191 41.0056)
(8.74338e-15 -28.428 56.481)
(-2.11336e-14 -8.52666 75.8747)
(-2.74391e-14 14.4197 69.297)
(-2.34575e-14 29.0392 60.7324)
(-1.7323e-14 32.3138 69.0995)
(6.316e-17 25.1529 87.8493)
(1.9967e-14 4.48186 93.8235)
(2.23029e-14 -17.0124 84.0193)
(2.36194e-14 -23.4683 80.2467)
(2.75608e-14 -18.3365 89.008)
(2.59628e-14 -6.72338 103.009)
(2.0518e-14 4.37958 107.42)
(1.9056e-14 4.71591 102.286)
(1.59647e-14 -6.37793 92.2297)
(1.00903e-14 -16.8097 72.8601)
(2.95016e-14 -35.3864 28.7304)
(3.62789e-14 -44.4425 33.6917)
(3.67174e-14 -45.7596 36.2226)
(3.24743e-14 -45.0675 41.0713)
(1.02778e-14 -34.4244 54.0998)
(-1.78029e-14 -9.41091 66.4277)
(-2.08656e-14 18.197 54.4823)
(-1.82171e-14 28.5359 47.127)
(-1.7382e-14 24.9237 62.8714)
(-2.65576e-15 17.8506 90.3943)
(2.28419e-14 2.82444 105.388)
(3.05683e-14 -15.5196 103.952)
(2.11843e-14 -24.8866 102.099)
(1.68834e-14 -22.4669 107.962)
(6.68888e-15 -9.34549 113.415)
(4.71904e-15 5.36061 110.456)
(5.83882e-15 8.93614 101.258)
(1.11168e-14 -1.08052 80.4971)
(1.25565e-14 -11.011 39.3684)
(2.7541e-14 -36.5147 27.8327)
(3.63344e-14 -46.0588 33.234)
(3.73559e-14 -47.2836 36.1625)
(3.31225e-14 -48.2346 40.4957)
(1.15118e-14 -38.6645 50.5706)
(-1.90048e-14 -8.54171 58.0375)
(-2.37092e-14 21.6723 46.1972)
(-1.58312e-14 26.1291 41.9761)
(-1.8841e-14 15.1573 63.4464)
(-1.16687e-14 8.48936 91.2575)
(5.52913e-15 -1.28191 106.868)
(1.50678e-14 -15.6712 110.841)
(1.14367e-14 -25.1049 110.12)
(3.33961e-15 -23.1394 111.261)
(-7.23097e-15 -8.05391 109.838)
(-9.32853e-15 9.1119 103.854)
(-6.35073e-15 17.0714 99.3593)
(-3.31629e-15 15.969 88.1489)
(-6.51317e-15 12.5884 47.0895)
(2.54581e-14 -37.6129 28.1174)
(3.56569e-14 -47.7428 32.8197)
(3.78454e-14 -48.7178 36.0215)
(3.37007e-14 -50.6569 39.6006)
(1.29003e-14 -41.6245 47.0235)
(-1.55331e-14 -7.24468 51.4497)
(-1.82748e-14 24.0696 40.8504)
(-1.73852e-14 21.9189 39.4173)
(-2.13981e-14 5.1165 65.2262)
(-1.98061e-14 0.57749 87.9689)
(-1.13631e-14 -5.16153 100.501)
(-4.60756e-15 -16.6876 106.029)
(-4.66434e-15 -24.7349 105.32)
(-1.02571e-14 -21.9827 100.847)
(-1.4411e-14 -6.26491 89.1209)
(-1.05403e-14 9.54025 77.7957)
(-5.21999e-15 15.6871 84.5956)
(-1.62292e-15 15.9331 104.654)
(-1.59305e-16 18.3818 95.9285)
(2.45715e-14 -38.4363 30.2427)
(3.43538e-14 -49.2332 32.9763)
(3.77904e-14 -50.0438 36.0581)
(3.42289e-14 -52.4595 38.6702)
(1.51698e-14 -43.6504 43.9441)
(-1.18902e-14 -5.68826 45.6416)
(-1.764e-14 25.9556 34.2218)
(-1.69358e-14 16.821 34.3715)
(-2.32606e-14 -4.00674 59.3995)
(-2.56015e-14 -5.61165 76.2077)
(-2.30579e-14 -8.69339 87.4122)
(-1.97872e-14 -17.6341 93.7567)
(-1.82008e-14 -22.9927 92.1745)
(-1.82614e-14 -16.7913 80.8755)
(-1.42269e-14 0.57872 58.9858)
(-6.46314e-15 10.81 40.7448)
(2.31243e-15 5.66761 41.4135)
(1.16538e-14 11.7751 75.0204)
(1.78494e-14 45.9503 105.736)
(2.6017e-14 -38.691 34.4413)
(3.31228e-14 -50.0868 34.2782)
(3.71269e-14 -50.9779 36.7522)
(3.47653e-14 -53.5659 38.1128)
(1.82179e-14 -44.6782 41.5501)
(-8.59037e-15 -3.14317 39.7388)
(-1.72191e-14 28.1256 25.9235)
(-1.51875e-14 12.4153 29.1558)
(-2.12518e-14 -11.2377 47.6592)
(-2.54503e-14 -10.8334 59.5941)
(-2.64285e-14 -12.1187 69.3842)
(-2.6317e-14 -18.482 75.0444)
(-2.4653e-14 -19.6299 73.0469)
(-2.03673e-14 -8.85573 57.1761)
(-1.26658e-14 9.33212 34.1604)
(-5.92523e-15 17.126 20.0227)
(-1.41063e-15 6.19346 9.78293)
(1.8936e-15 -8.94909 -6.96932)
(2.65895e-15 -10.4472 0.81205)
(2.96708e-14 -38.3288 40.7877)
(3.32673e-14 -50.2788 37.0076)
(3.65878e-14 -51.6423 38.4208)
(3.55475e-14 -54.1967 38.1235)
(2.1418e-14 -44.6046 39.6385)
(-6.73196e-15 0.943331 32.8574)
(-1.72375e-14 29.7803 16.3043)
(-1.37377e-14 8.65305 26.7234)
(-1.78376e-14 -16.1494 36.6891)
(-2.23134e-14 -14.6259 44.3342)
(-2.50352e-14 -15.0079 52.7563)
(-2.63756e-14 -18.9557 56.9248)
(-2.49819e-14 -15.5716 52.4892)
(-1.86295e-14 -0.907718 33.3779)
(-1.11145e-14 15.1716 15.3744)
(-5.35905e-15 20.2438 9.40647)
(-1.59192e-15 13.0628 6.61994)
(3.50793e-16 5.98516 -1.85466)
(4.74113e-15 1.10483 -25.4422)
(3.34045e-14 -37.0338 49.2355)
(3.59137e-14 -49.1735 40.8523)
(3.75873e-14 -51.2924 40.7838)
(3.71105e-14 -53.6361 38.818)
(2.39519e-14 -42.7102 38.3047)
(-6.79153e-15 6.33384 25.0813)
(-1.65709e-14 30.3233 8.01563)
(-1.3124e-14 4.88795 24.7106)
(-1.46212e-14 -18.6237 27.4201)
(-1.84554e-14 -17.3156 31.937)
(-2.20855e-14 -17.0594 38.7587)
(-2.41308e-14 -18.4942 41.7679)
(-2.22835e-14 -10.4584 33.3311)
(-1.53745e-14 5.83389 13.3618)
(-9.55888e-15 18.4432 3.35272)
(-4.64702e-15 20.7931 2.23478)
(-1.12096e-15 13.0909 3.91099)
(8.6013e-17 9.20781 0.300655)
(2.13935e-15 5.09165 -20.6248)
(3.29817e-14 -34.853 61.0093)
(3.91299e-14 -47.2233 47.7025)
(3.96032e-14 -51.0957 45.4312)
(3.83131e-14 -53.2346 41.9174)
(2.37442e-14 -39.3904 37.9036)
(-9.70257e-15 11.9688 15.7163)
(-1.50627e-14 30.0555 5.9632)
(-1.31919e-14 1.64811 20.0472)
(-1.22729e-14 -19.6661 18.7853)
(-1.48715e-14 -19.3297 21.8478)
(-1.86528e-14 -18.6608 26.9167)
(-2.08917e-14 -16.9772 28.1757)
(-1.85694e-14 -4.12056 17.2012)
(-1.16625e-14 10.9785 -1.18782)
(-7.88028e-15 19.4027 -3.92938)
(-3.80271e-15 20.1985 -2.34747)
(-4.9213e-16 13.3563 0.619056)
(2.34267e-16 14.2756 -2.54392)
(-5.99346e-17 8.23396 -12.868)
(2.41413e-14 -31.3753 75.3826)
(3.57508e-14 -42.7686 60.7745)
(3.66812e-14 -48.426 56.2732)
(3.38674e-14 -49.778 50.5688)
(1.71977e-14 -31.6127 37.984)
(-1.50442e-14 17.3276 4.03676)
(-1.4138e-14 28.7842 8.32004)
(-1.36088e-14 0.618031 12.9881)
(-1.11725e-14 -19.7476 10.5109)
(-1.20413e-14 -20.6352 13.541)
(-1.52788e-14 -19.4441 17.4299)
(-1.76155e-14 -14.9834 17.5565)
(-1.51047e-14 2.09728 5.53032)
(-8.74676e-15 14.0481 -6.24727)
(-6.19962e-15 19.1491 -7.18)
(-2.96714e-15 19.1546 -4.5939)
(-1.78735e-16 13.2439 -3.03789)
(2.49979e-16 15.2997 -3.9012)
(3.89945e-17 8.99764 -9.46325)
(8.27902e-15 -28.904 92.2082)
(2.15775e-14 -40.3732 81.4494)
(2.38581e-14 -48.1141 73.4119)
(2.0571e-14 -47.1781 59.8154)
(5.06367e-15 -21.6122 32.1566)
(-1.64526e-14 22.7539 -1.18401)
(-1.41448e-14 26.5791 7.94221)
(-1.40499e-14 0.802005 7.45387)
(-1.13076e-14 -20.604 3.65459)
(-1.02814e-14 -22.2619 6.57416)
(-1.22521e-14 -19.956 10.3286)
(-1.46797e-14 -12.7509 10.3214)
(-1.20288e-14 6.8009 -1.80729)
(-7.55398e-15 15.911 -7.07448)
(-5.34705e-15 18.9243 -7.82832)
(-2.57211e-15 18.4784 -5.85064)
(-1.45087e-16 13.0752 -4.96711)
(2.39525e-16 16.2465 -4.17425)
(-3.24946e-17 9.33715 -7.69935)
(-1.24173e-14 -26.7704 92.6878)
(-3.37195e-15 -34.5439 86.8817)
(-2.88402e-16 -37.8504 75.5132)
(-9.23212e-16 -30.3807 54.777)
(-8.42132e-15 -3.17689 20.7742)
(-1.51931e-14 26.1514 3.00643)
(-1.42105e-14 25.8204 4.74688)
(-1.42708e-14 4.79052 5.92475)
(-1.2359e-14 -19.6358 0.0836227)
(-1.03334e-14 -23.1916 0.356022)
(-9.85818e-15 -20.8731 2.32735)
(-1.1093e-14 -10.3417 2.85117)
(-9.97842e-15 8.32519 -4.38502)
(-7.01634e-15 16.5612 -7.70333)
(-5.2524e-15 18.5016 -8.65792)
(-2.46183e-15 17.8173 -6.99508)
(-4.72695e-17 12.5406 -6.04594)
(2.26585e-16 16.7741 -3.99984)
(-5.81835e-17 8.44957 -7.28596)
(5.83242e-16 69.5142 115.438)
(-1.12506e-14 140.68 238.892)
(-1.19935e-14 165.294 268.922)
(-1.17265e-14 162.252 258.02)
(-1.21873e-14 152.708 235.186)
(-1.62063e-14 142.312 212.233)
(-2.06825e-14 132.112 191.439)
(-2.28434e-14 123.688 174.842)
(-2.45741e-14 116.133 160.163)
(-2.74279e-14 109.019 147.125)
(-3.15468e-14 102.212 135.31)
(-3.72996e-14 95.5102 124.425)
(-4.38459e-14 88.76 114.243)
(-4.98714e-14 81.9119 104.534)
(-5.57768e-14 74.7925 95.1272)
(-6.17809e-14 67.5522 85.9813)
(-6.8373e-14 60.138 77.404)
(-7.8795e-14 53.2806 70.3212)
(-9.02469e-14 44.6716 61.9651)
(-1.23065e-13 27.5901 41.7547)
(-6.87533e-17 76.9614 122.466)
(-4.26801e-15 149.855 249.361)
(-3.73396e-15 166.588 271.656)
(-3.68022e-15 157.498 254.961)
(-4.58204e-15 144.974 231.491)
(-5.48813e-15 134.269 210.826)
(-6.65533e-15 125.786 193.55)
(-6.32604e-15 118.279 177.655)
(-6.93905e-15 110.957 162.464)
(-9.24713e-15 103.629 147.688)
(-1.1696e-14 96.1608 133.374)
(-1.60656e-14 88.5743 119.572)
(-2.06202e-14 80.802 106.362)
(-2.59297e-14 72.9346 93.6828)
(-3.22489e-14 64.6964 81.5107)
(-4.02856e-14 56.2897 69.3307)
(-4.81116e-14 46.5126 56.7665)
(-5.81866e-14 36.1442 41.967)
(-7.04875e-14 18.4581 21.0378)
(-1.30959e-13 1.37481 -12.3267)
(2.30449e-17 107.898 177.889)
(1.5724e-15 175.677 286.231)
(1.22622e-15 179.484 290.879)
(1.0067e-15 168.811 269.658)
(5.82995e-16 157.432 248.642)
(4.23146e-15 148.95 230.178)
(4.08401e-15 141.037 213.154)
(3.82936e-15 133.12 195.842)
(3.91376e-15 124.57 178.097)
(3.36042e-15 115.531 160.048)
(3.07301e-15 106.048 142.003)
(2.97291e-15 96.2145 124.119)
(2.63694e-15 85.956 106.54)
(1.59278e-15 75.3393 89.2371)
(8.4699e-16 64.012 72.2743)
(-4.0065e-16 52.2181 55.1351)
(-2.53471e-15 38.3762 37.7211)
(-7.40061e-15 24.2774 18.0852)
(-1.74306e-14 1.61066 -5.09947)
(-6.74173e-14 -13.3622 -41.4329)
(-2.13568e-17 140.781 240.268)
(1.24386e-16 187.614 308.005)
(1.97822e-16 175.314 293.953)
(1.83042e-16 165.738 274.133)
(-5.85564e-17 155.968 258.867)
(7.52534e-15 149.069 244.052)
(6.18481e-15 140.349 227.96)
(6.23465e-15 130.557 209.188)
(7.17064e-15 119.389 189.121)
(7.6142e-15 107.703 168.304)
(7.20227e-15 95.41 147.126)
(8.54606e-15 82.5539 125.49)
(9.4877e-15 68.9194 103.421)
(9.1257e-15 54.5373 80.8142)
(1.2401e-14 39.0674 57.7109)
(1.4835e-14 22.8957 33.5436)
(2.01715e-14 3.75398 7.93851)
(2.65594e-14 -12.4084 -22.2208)
(1.19131e-14 -35.8607 -44.0659)
(-2.76056e-14 -33.008 -78.0258)
(7.0673e-18 154.866 274.524)
(-1.12756e-16 172.064 294.062)
(-1.33831e-16 156.394 280.565)
(-1.05058e-16 149.812 267.934)
(-2.0177e-16 139.319 256.116)
(-1.06888e-15 130.371 242.27)
(-7.06949e-16 117.841 224.864)
(-6.2353e-16 104.168 204.053)
(-5.49914e-16 89.4587 182.419)
(-4.47939e-16 74.6587 160.135)
(-6.69293e-16 59.2017 137.131)
(-8.4354e-16 43.1294 112.986)
(2.49802e-17 26.344 87.8031)
(3.20244e-15 9.24875 61.9161)
(7.0765e-15 -7.37408 36.2729)
(4.14624e-15 -22.0073 13.0454)
(-1.4907e-14 -33.588 -7.78754)
(-4.4495e-14 -42.1792 -29.4766)
(-6.0664e-14 -42.5802 -40.5968)
(-3.46693e-14 -18.3217 -20.9724)
(-6.98064e-19 138.602 248.162)
(4.40906e-17 147.232 262.407)
(5.09741e-17 137.633 254.662)
(5.6118e-17 128.148 242.297)
(6.01245e-17 115.745 228.481)
(1.18259e-17 103.656 214.196)
(-7.91673e-17 89.3993 197.027)
(-9.65291e-17 74.1264 177.221)
(-1.43647e-16 58.2196 156.389)
(-3.73579e-16 42.0088 134.632)
(-9.59024e-16 25.3634 112.166)
(-1.53624e-15 8.72055 89.3429)
(-7.98032e-16 -7.1996 67.0799)
(1.93117e-15 -20.7442 47.1048)
(3.44393e-15 -29.2689 32.2825)
(-2.44875e-15 -28.9738 27.4686)
(-1.63753e-14 -15.3581 39.6761)
(-2.76857e-14 13.5864 70.7777)
(-2.34365e-14 47.4581 104.878)
(-5.4587e-15 47.414 97.008)
(-7.27955e-19 121.624 213.705)
(-1.58324e-17 137.798 244.379)
(-2.08299e-17 129.457 231.462)
(-2.23445e-17 117.918 214.552)
(4.31791e-19 105.041 196.379)
(5.9577e-17 93.5366 180.487)
(1.00698e-16 81.7676 164.836)
(1.54795e-16 69.6251 146.975)
(2.31855e-16 56.801 127.688)
(2.53491e-16 44.0186 106.976)
(1.21215e-16 31.5851 86.0263)
(-6.92663e-17 20.9408 66.8155)
(9.98198e-17 14.1793 53.248)
(9.23722e-16 14.575 50.851)
(1.93913e-15 24.9986 64.3558)
(2.42983e-15 45.0307 92.8129)
(2.74974e-15 69.4134 127.616)
(3.91351e-15 88.6559 155.987)
(5.22212e-15 95.8677 161.203)
(3.32075e-15 68.4186 124.353)
(5.58756e-19 118.53 204.939)
(5.30655e-18 143.002 247.073)
(7.0083e-18 135.708 232.391)
(7.24112e-18 124.882 211.874)
(-4.44528e-19 113.163 192.261)
(-2.24164e-17 104.79 175.618)
(-3.388e-17 97.1024 162.825)
(-4.3665e-17 90.9197 149.813)
(-5.64785e-17 84.558 137.466)
(-6.26182e-17 79.2526 124.959)
(-5.26425e-17 74.3822 112.607)
(-3.4707e-17 70.2776 100.235)
(-3.99447e-17 67.1806 88.8021)
(-9.23823e-17 65.8625 80.7019)
(-1.97194e-16 67.4674 78.9382)
(-3.65934e-16 71.5771 85.4868)
(-5.84389e-16 77.1351 98.157)
(-7.90615e-16 79.471 111.058)
(-9.68857e-16 74.5408 112.217)
(-8.93676e-16 51.9913 86.6164)
(-3.04891e-19 120.924 209.365)
(-1.69328e-18 153.404 261.371)
(-2.13815e-18 144.06 244.928)
(-2.15661e-18 132.477 220.55)
(-1.83477e-19 121.004 202.014)
(6.45426e-18 114.524 186.491)
(1.04885e-17 107.592 174.176)
(1.23347e-17 102.11 161.625)
(1.33399e-17 96.2857 150.023)
(1.25842e-17 91.1252 138.817)
(1.0197e-17 86.1699 128.18)
(8.75037e-18 81.4723 117.804)
(1.10603e-17 76.8433 107.411)
(1.67904e-17 72.1939 96.9641)
(2.42068e-17 67.5607 87.1572)
(3.70114e-17 63.4059 79.3972)
(6.39915e-17 59.3994 74.8998)
(1.0578e-16 55.3076 72.0248)
(1.45409e-16 46.0936 65.8595)
(1.79237e-16 25.2694 34.6112)
(1.16098e-19 124.91 216.732)
(4.6563e-19 162.474 273.674)
(5.59936e-19 147.316 252.235)
(5.72063e-19 135.144 223.871)
(1.17427e-19 123.404 207.796)
(-1.63062e-18 118.194 192.899)
(-2.78546e-18 110.515 180.745)
(-3.12116e-18 104.636 167.44)
(-3.03424e-18 97.9159 155.121)
(-2.53052e-18 91.8177 142.894)
(-1.79316e-18 85.6929 131.279)
(-1.38708e-18 79.8043 120.134)
(-1.56142e-18 73.9636 109.493)
(-1.71916e-18 68.1916 99.0842)
(-1.13198e-18 62.0285 88.6611)
(-1.834e-19 55.6112 77.67)
(-2.62533e-19 47.7043 66.2116)
(-1.6819e-18 39.2724 52.8803)
(-3.18391e-18 24.3854 35.2833)
(6.96169e-18 4.64111 -2.50477)
(-3.39299e-20 133.529 233.268)
(-1.10512e-19 170.739 283.014)
(-1.28885e-19 148.065 256.334)
(-1.32725e-19 139.729 228.835)
(-3.70552e-20 127.835 215.92)
(3.66251e-19 123.992 200.449)
(6.41716e-19 115.65 188.371)
(6.84101e-19 110.332 174.656)
(5.96481e-19 103.676 162.285)
(4.35883e-19 97.8445 149.483)
(2.67222e-19 91.5789 136.855)
(1.64515e-19 85.1367 123.939)
(6.97233e-20 78.1174 110.831)
(-2.41375e-19 70.5774 97.4046)
(-9.43949e-19 62.115 83.7433)
(-1.93014e-18 53.0675 69.3284)
(-2.894e-18 42.0215 53.9642)
(-4.03437e-18 30.3309 35.6737)
(-7.9859e-18 9.98069 10.8894)
(-8.28691e-18 -5.66271 -25.5762)
(7.43305e-21 145.328 258.261)
(2.32515e-20 175.734 287.118)
(2.59595e-20 147.592 260.632)
(2.63635e-20 145.79 237.442)
(8.33287e-21 132.471 226.778)
(-7.25178e-20 130.492 210.946)
(-1.28315e-19 121.55 199.895)
(-1.30301e-19 117.805 186.619)
(-9.91661e-20 111.622 175.219)
(-5.4687e-20 106.81 162.427)
(-1.56224e-20 100.517 148.922)
(1.04277e-20 93.3298 133.569)
(5.62251e-20 84.4909 116.796)
(1.88471e-19 74.4037 98.7285)
(4.48775e-19 62.7792 79.879)
(7.96173e-19 50.1901 59.876)
(1.1597e-18 34.8196 38.9618)
(1.37927e-18 19.5847 16.0032)
(2.30221e-18 -5.21148 -10.8842)
(-1.03615e-17 -17.7605 -47.7556)
(-1.39159e-21 154.864 282.153)
(-4.36794e-21 171.409 279.506)
(-4.48175e-21 144.07 262.873)
(-4.33631e-21 146.725 243.402)
(-1.19953e-21 131.006 234.822)
(1.31662e-20 130.517 219.531)
(2.05064e-20 120.163 210.93)
(1.69228e-20 117.948 199.333)
(1.13295e-20 111.075 190.305)
(1.39481e-20 106.305 177.825)
(2.81039e-20 97.4544 162.636)
(4.14989e-20 86.6798 142.662)
(3.25463e-20 72.7796 119.827)
(-1.05518e-20 57.4579 95.0291)
(-8.70841e-20 40.5669 69.3571)
(-1.92631e-19 22.2939 41.6926)
(-2.67883e-19 -0.472734 9.7231)
(6.49428e-19 -14.8531 -20.2466)
(7.61325e-19 -35.8334 -42.5227)
(-1.00689e-17 -32.1157 -69.9338)
(2.30025e-22 153.04 284.21)
(6.86443e-22 159.735 262.998)
(6.63745e-22 136.606 255.518)
(6.91805e-22 138.333 236.787)
(-2.77378e-22 121.571 228.64)
(-3.89959e-21 119.7 214.139)
(-6.68961e-21 108.287 206.505)
(-5.79371e-21 104.713 196.172)
(4.39302e-21 96.0039 187.91)
(2.83601e-20 88.4611 174.597)
(5.47403e-20 75.3082 156.229)
(5.7735e-20 59.8873 131.361)
(3.52948e-20 41.7598 103.644)
(3.30947e-20 23.6413 75.0894)
(9.69391e-20 5.8925 47.7448)
(2.25892e-19 -10.591 22.0361)
(3.72116e-19 -25.4903 -2.78976)
(2.2585e-19 -35.1331 -23.4635)
(-8.93255e-19 -30.6821 -25.2363)
(-2.64341e-18 -8.52127 -2.92598)
(-2.73157e-23 143.996 270.344)
(-6.55222e-23 153.798 250.627)
(-3.44306e-24 128.07 242.695)
(4.95473e-23 131.005 221.645)
(-1.48823e-23 111.962 213.643)
(-5.48428e-22 110.035 197.312)
(-2.23383e-21 96.8373 188.597)
(-3.21999e-21 91.6205 176.722)
(2.32762e-21 81.364 167.28)
(1.84527e-20 72.2723 153.929)
(3.32643e-20 59.2875 136.88)
(2.11094e-20 45.3127 115.181)
(-2.21039e-20 30.3537 91.1073)
(-3.79821e-20 16.1105 65.954)
(1.0044e-19 3.96724 42.839)
(4.56846e-19 -2.26164 28.175)
(7.88694e-19 2.89969 31.6876)
(7.1765e-19 22.2985 56.3707)
(2.89449e-19 46.6539 85.8397)
(-3.85528e-20 42.4831 84.478)
(-1.17344e-24 140.257 268.135)
(-3.2551e-24 156.788 245.878)
(6.33131e-24 126.075 239.511)
(3.63852e-23 135.033 214.878)
(1.97339e-24 112.949 207.785)
(-2.4437e-22 114.553 188.376)
(-7.65992e-22 100.195 178.273)
(-1.70633e-21 96.2836 163.135)
(-2.89797e-21 86.4164 151.784)
(-3.29086e-21 80.0497 139.006)
(-2.41304e-21 72.0575 127.09)
(-2.85608e-21 65.3877 114.429)
(-6.24122e-21 59.0586 101.913)
(-8.05322e-21 54.05 89.5426)
(-8.54509e-21 50.1151 77.9807)
(-1.52733e-20 47.5776 68.3847)
(-3.22134e-20 47.2707 62.366)
(-7.78735e-20 46.7121 60.9832)
(-1.7234e-19 43.8694 58.9081)
(-3.1726e-19 31.1907 47.2598)
(8.37296e-25 139.183 272.376)
(5.97574e-24 160.16 247.494)
(2.24224e-23 126.679 243.245)
(3.27352e-23 137.561 218.958)
(-3.57105e-23 116.701 211.897)
(-2.68181e-22 118.015 194.099)
(-7.07512e-22 106.449 183.695)
(-1.35979e-21 102.79 169.831)
(-2.37239e-21 95.5592 158.35)
(-4.11138e-21 90.6519 146.388)
(-6.24659e-21 85.3577 135.486)
(-6.66737e-21 80.8962 124.917)
(-3.35845e-21 76.5357 114.604)
(1.78829e-21 72.2687 103.911)
(4.02256e-21 67.2927 92.2601)
(-3.44455e-22 60.9933 78.2479)
(-1.25511e-20 51.1535 61.1989)
(-3.26386e-20 38.2396 40.0685)
(-4.38515e-20 19.2536 18.14)
(-1.24464e-19 3.68071 -7.56223)
(-8.65024e-25 132.774 272.413)
(6.03359e-25 158.355 245.289)
(1.27311e-23 121.496 243.662)
(1.71387e-23 130.512 222.329)
(-5.24156e-23 111.86 214.886)
(-2.77079e-22 110.223 200.161)
(-6.89728e-22 100.479 190.133)
(-1.23511e-21 95.8168 178.342)
(-1.68315e-21 89.4434 167.969)
(-1.60931e-21 84.5951 157.3)
(-6.55891e-22 79.5576 147.017)
(9.52679e-22 75.0274 136.661)
(2.25252e-21 70.4962 126.294)
(1.71617e-21 65.8377 115.138)
(-1.98244e-21 59.6662 101.534)
(-1.00434e-20 50.3663 81.7221)
(-2.20847e-20 33.976 52.6207)
(-3.24178e-20 12.899 12.0473)
(-2.38296e-20 -14.8546 -24.6965)
(-1.13081e-19 -21.5828 -54.4642)
(1.99481e-26 109.46 256.191)
(1.47747e-24 149.208 227.077)
(6.88589e-24 108.698 230.012)
(6.84999e-24 114.757 214.898)
(-3.24776e-23 98.7901 209.24)
(-1.50953e-22 94.0839 199.707)
(-3.59678e-22 85.2817 192.272)
(-6.10526e-22 79.1537 184.195)
(-7.62448e-22 72.6737 176.554)
(-5.96916e-22 67.0642 168.798)
(5.0595e-23 61.7583 161.103)
(1.04612e-21 56.9727 153.383)
(1.69549e-21 52.5494 145.571)
(4.35613e-22 48.1318 136.966)
(-5.1819e-21 42.53 125.34)
(-1.68363e-20 33.4071 106.226)
(-3.24414e-20 18.3921 74.5288)
(-4.66633e-20 -1.71473 30.2383)
(-5.61775e-20 -20.3737 -14.5726)
(-5.33789e-20 -20.6394 -35.3389)
(-1.06913e-25 36.1111 158.426)
(-2.48128e-25 78.4677 131.149)
(3.10479e-25 52.7526 139.308)
(2.26759e-24 52.5212 135.321)
(5.29255e-24 43.9869 135.394)
(1.2446e-23 39.529 133.851)
(3.4508e-23 34.4369 132.686)
(7.63055e-23 30.4197 131.157)
(1.09276e-22 26.7985 129.504)
(7.88741e-23 23.8166 127.638)
(-1.74467e-23 21.3956 125.608)
(-3.74596e-23 19.6002 123.441)
(3.07592e-22 18.4598 121.229)
(1.31681e-21 18.07 119.145)
(3.02156e-21 18.711 117.314)
(4.82173e-21 20.4213 115.688)
(5.50712e-21 22.8413 113.488)
(4.32868e-21 28.1424 106.822)
(2.2029e-21 32.0057 92.0877)
(6.22911e-22 7.75842 66.5633)
(-2.50867e-26 -36.1089 158.418)
(1.44361e-25 -78.4652 131.145)
(4.9824e-25 -52.7515 139.305)
(7.11593e-25 -52.5199 135.319)
(-4.73197e-25 -43.9853 135.392)
(-5.17302e-24 -39.5268 133.85)
(-1.39354e-23 -34.4336 132.685)
(-2.11832e-23 -30.4154 131.156)
(-1.45813e-23 -26.7933 129.504)
(1.35267e-23 -23.8107 127.639)
(4.54593e-23 -21.3887 125.61)
(2.70044e-23 -19.5916 123.443)
(-1.1532e-22 -18.4491 121.232)
(-4.27466e-22 -18.059 119.154)
(-8.66972e-22 -18.7047 117.336)
(-1.27289e-21 -20.4247 115.721)
(-1.44261e-21 -22.8561 113.515)
(-1.28615e-21 -28.1646 106.826)
(-8.6062e-22 -32.0301 92.0932)
(-2.97162e-22 -7.7677 66.5899)
(4.67617e-26 -109.467 256.196)
(1.88553e-25 -149.204 227.091)
(1.82582e-24 -108.698 230.026)
(4.9137e-24 -114.751 214.918)
(7.51672e-25 -98.7832 209.262)
(-2.86462e-23 -94.0727 199.732)
(-9.53783e-23 -85.2675 192.299)
(-1.84762e-22 -79.1345 184.225)
(-2.57413e-22 -72.6489 176.584)
(-2.87777e-22 -67.0326 168.828)
(-3.03943e-22 -61.7209 161.135)
(-3.6528e-22 -56.9325 153.423)
(-4.24338e-22 -52.509 145.625)
(-1.42135e-22 -48.0807 137.019)
(1.09754e-21 -42.4331 125.331)
(3.93325e-21 -33.2215 106.072)
(8.988e-21 -18.1427 74.252)
(1.64636e-20 1.8765 30.0693)
(2.31674e-20 20.3285 -14.4567)
(1.99051e-20 20.5728 -35.1507)
(-3.83757e-25 -132.8 272.472)
(-2.33001e-25 -158.38 245.337)
(2.96905e-24 -121.519 243.715)
(1.07328e-23 -130.534 222.382)
(1.24341e-23 -111.879 214.943)
(-2.0219e-23 -110.244 200.222)
(-1.14111e-22 -100.495 190.201)
(-2.60868e-22 -95.8333 178.415)
(-4.11599e-22 -89.4536 168.05)
(-5.10484e-22 -84.6023 157.385)
(-4.91705e-22 -79.5576 147.105)
(-2.7204e-22 -75.0273 136.754)
(8.94874e-23 -70.5046 126.404)
(1.77088e-22 -65.8583 115.265)
(-3.7553e-22 -59.6679 101.624)
(-5.34639e-22 -50.2852 81.6694)
(1.38768e-21 -33.749 52.3546)
(4.99081e-21 -12.5122 11.4904)
(1.69562e-20 15.367 -25.4139)
(3.67594e-20 21.7766 -54.7284)
(7.89177e-25 -139.215 272.381)
(7.87555e-25 -160.172 247.535)
(9.05326e-25 -126.719 243.266)
(5.40547e-24 -137.576 219.014)
(9.23961e-24 -116.779 211.935)
(-1.08764e-23 -118.062 194.181)
(-8.60483e-23 -106.568 183.774)
(-2.27964e-22 -102.905 169.954)
(-4.01918e-22 -95.7393 158.477)