/*--------------------------------*- C++ -*----------------------------------*\
| =========                 |                                                 |
| \\      /  F ield         | OpenFOAM: The Open Source CFD Toolbox           |
|  \\    /   O peration     | Version:  4.1                                   |
|   \\  /    A nd           | Web:      www.OpenFOAM.org                      |
|    \\/     M anipulation  |                                                 |
\*---------------------------------------------------------------------------*/
FoamFile
{
    version     2.0;
    format      ascii;
    class       volScalarField;
    location    "9";
    object      p;
}
// * * * * * * * * * * * * * * * * * * * * * * * * * * * * * * * * * * * * * //

dimensions      [0 2 -2 0 0 0 0];

internalField   nonuniform List<scalar> 
1280
(
0.317661
0.0860501
0.438141
0.780148
1.05878
1.11411
1.17798
1.29571
1.22464
0.909829
0.751574
0.466747
-0.952208
-2.04286
-2.66851
-6.87755
-10.2265
-12.1351
-18.3037
-31.1556
-24.7522
-17.2643
-2.34287
13.8619
20.2331
23.8066
32.7799
5.90526
9.75148
7.64643
5.10598
2.80055
-0.222972
-3.7206
-7.50022
-11.5885
-15.8262
-20.5227
-24.7182
-31.3556
-10.6725
-12.9208
-9.74773
-3.75323
9.94241
8.12944
8.56115
9.03985
9.83389
9.73623
9.76983
9.95151
9.15062
8.66834
8.23215
10.2188
-3.36744
-9.37998
-12.5166
-9.58473
-30.4962
-23.8491
-19.6549
-14.9523
-10.7116
-6.61915
-2.8354
0.666479
3.69599
6.01128
8.56048
10.6645
6.85095
34.7846
23.9878
20.0481
13.3617
-3.08465
-18.1556
-25.7416
-32.2962
-19.8842
-14.4428
-12.7693
-9.25702
-5.49852
-5.21567
-3.67287
-2.28194
-2.04133
-1.42261
-0.843903
-0.666235
-0.548003
-0.33315
-0.144392
-0.0653741
-0.0048588
-0.043567
0.0272618
0.0651551
0.930257
0.505035
0.262556
0.0202315
-0.692606
-2.19138
-4.2912
-3.77823
0.679842
3.55634
3.80796
0.807625
-0.414375
-0.712012
-0.575346
-0.0778354
0.0171533
0.000673203
0.564272
1.89062
1.3763
0.97273
0.469673
-1.25829
-5.55861
-7.96751
-7.08323
1.7023
7.30677
8.52664
2.9453
-1.57684
-2.99003
-2.21419
-0.359285
0.0101089
0.0732285
0.703737
1.99452
2.16773
1.51867
0.674831
-2.29102
-9.07095
-10.1758
-9.41405
2.55781
9.64423
11.228
4.88021
-3.85946
-6.77283
-4.47665
-0.445069
0.106216
0.0962352
0.895069
2.28944
3.01152
2.19713
1.21298
-2.63063
-10.7375
-11.696
-11.5797
3.12089
12.2831
13.4792
5.95403
-7.5124
-12.0416
-7.56506
-0.388863
0.485415
0.165523
1.20988
2.90852
3.88436
3.0152
1.93034
-2.46534
-11.2079
-13.3649
-13.4271
3.52661
15.5352
15.3116
6.66621
-11.5666
-17.3469
-11.4647
-0.154644
1.11018
0.216027
1.6747
3.93292
4.87815
4.06189
2.88259
-1.70353
-10.791
-15.2725
-14.882
3.96164
19.3912
17.1419
7.82708
-13.0648
-18.5226
-13.5376
0.602998
3.17711
-0.462477
2.40023
5.15809
5.81446
5.11709
3.87433
-0.590332
-9.8521
-17.0261
-15.7738
4.01192
22.5847
19.2615
9.5944
-10.9332
-17.8261
-12.1356
1.10059
3.85749
-2.36613
3.20649
5.85788
6.48923
5.94921
4.82113
0.755823
-8.35126
-17.6659
-15.5903
3.62452
23.3838
20.1249
11.2137
-7.19831
-17.546
-11.7909
3.21547
7.2679
-0.53006
3.79063
5.88776
6.65797
6.22374
5.6999
2.19899
-6.5281
-17.4117
-15.264
2.25088
20.7754
18.069
11.2358
-1.25779
-8.5725
-6.63046
2.48705
13.1268
28.2891
3.4215
4.98335
6.65219
6.47932
6.54175
3.57714
-4.07332
-15.0402
-13.9562
0.905099
16.926
15.2732
10.8827
2.77549
-0.661216
2.56058
8.40707
19.3645
23.929
2.86325
4.38479
6.59198
6.78702
7.09822
4.40779
-2.34607
-12.7354
-12.2087
0.136054
13.0704
11.5297
8.94193
5.54124
4.63964
5.559
7.93986
18.913
24.8824
2.11531
3.58052
5.54717
6.22152
6.5828
4.29051
-2.25985
-13.3316
-13.0362
-2.2959
10.0684
10.805
10.2029
9.51815
11.4227
11.3381
6.59122
11.3003
27.6591
1.57728
2.80937
4.50102
5.42278
5.73354
3.56364
-3.17047
-15.4348
-13.8856
-3.46985
9.605
10.3702
9.55267
8.12851
10.7378
12.4287
5.13837
-3.01146
-4.93606
1.25202
2.25287
3.74379
4.34745
4.58725
2.49837
-4.4454
-17.7147
-15.2997
-6.20509
6.89552
8.90881
9.10877
8.46786
9.08007
9.20105
1.55166
-5.21721
-6.94955
0.944357
2.01954
3.45423
3.62844
3.58707
1.50207
-5.18112
-18.4377
-16.3336
-6.94774
5.12055
7.33519
8.05042
7.52245
7.59084
7.57476
2.58359
-2.3773
-2.56782
0.71685
1.95802
3.37034
3.09842
2.74361
0.717482
-5.13762
-17.147
-16.7286
-7.13085
3.38666
5.82297
6.98054
6.68932
6.31724
6.01946
2.45603
-1.30301
-0.68138
0.542966
1.8468
3.29643
2.64822
2.13773
0.281497
-4.2721
-13.552
-15.4576
-6.28239
2.23006
4.4531
5.65113
5.42208
4.93399
4.55095
1.8589
-0.522526
0.0700018
0.401488
1.60018
2.97057
1.81616
1.4875
-0.0395818
-3.12003
-8.73358
-13.1352
-5.1281
1.36462
3.26616
4.3418
4.17792
3.63113
3.17018
1.27466
-0.159997
0.252053
0.24668
1.40239
2.66047
1.16643
1.09045
0.0480346
-1.59511
-3.88723
-10.5211
-4.52374
0.567244
2.25309
3.14808
3.01817
2.49309
1.99104
0.732081
0.000429366
0.290585
-0.00764087
0.613181
1.1992
0.187147
0.166688
-0.204347
-0.970176
-1.22729
-5.74989
-3.04843
-0.157258
0.875595
1.38891
1.33086
1.03722
0.753835
0.244185
0.00948748
0.0723565
-105.613
-102.386
-98.4333
-94.418
-92.718
-91.3315
-91.8505
-92.6807
-93.4112
-93.9987
-94.4259
-94.5122
-94.1591
-93.2883
-91.9142
-89.9673
-87.6843
-84.8056
-82.2323
-78.4761
-180.349
-179.629
-175.904
-169.435
-164.422
-160.432
-157.626
-155.63
-154.349
-153.621
-153.292
-153.181
-153.071
-152.689
-151.881
-150.404
-148.508
-145.872
-143.538
-139.467
-114.683
-121.663
-126.534
-128.761
-131.557
-134.417
-137.151
-139.73
-142.037
-144.212
-146.374
-148.622
-150.929
-153.192
-155.264
-156.971
-158.211
-158.833
-159.382
-157.324
-58.6381
-64.8063
-69.7166
-73.7401
-77.4962
-81.8522
-86.6512
-91.6607
-96.3704
-100.57
-104.135
-107.049
-109.196
-110.487
-110.897
-110.559
-109.781
-109.239
-110.424
-113.578
-11.362
-14.6497
-17.8151
-20.6635
-22.9031
-24.7914
-26.3339
-28.0277
-29.7776
-31.8416
-34.2488
-37.1616
-40.5487
-44.1887
-47.6056
-50.3365
-51.7787
-51.1492
-50.2176
-53.9602
-5.2736
-4.99687
-5.54594
-5.76391
-6.32512
-7.33973
-8.43858
-10.0145
-11.8122
-13.9745
-16.3507
-18.9384
-21.6669
-24.4192
-26.8944
-28.6985
-29.63
-30.1229
-29.7484
-31.15
-19.6126
-17.4173
-16.1903
-14.8052
-13.329
-12.1679
-10.764
-9.69617
-8.7354
-8.21399
-8.18451
-8.79558
-10.0591
-11.7625
-13.3616
-14.3327
-14.1256
-13.4118
-12.5937
-12.824
-39.7233
-37.559
-36.0807
-34.9859
-33.4507
-32.5383
-31.2127
-30.1619
-28.9844
-27.8242
-26.6337
-25.4209
-24.2044
-23.0007
-21.794
-20.5456
-19.2853
-17.8957
-16.9164
-15.6926
-58.205
-56.0387
-54.1881
-53.1614
-51.3095
-50.3318
-48.8034
-47.6617
-46.4024
-45.23
-44.0739
-42.9264
-41.7866
-40.623
-39.4513
-38.1996
-36.9757
-35.5614
-34.5222
-32.9981
-78.8206
-76.8948
-74.7273
-73.955
-71.6411
-70.6374
-68.6757
-67.2744
-65.5948
-64.0332
-62.4576
-60.8966
-59.3605
-57.8147
-56.292
-54.7099
-53.2125
-51.5472
-50.3138
-48.4271
-107.378
-107.361
-105.377
-105.8
-103.689
-103.629
-101.902
-101.136
-99.699
-98.4831
-97.0546
-95.5668
-93.9737
-92.2574
-90.4525
-88.4352
-86.3543
-83.7428
-81.5029
-78.1417
-118.581
-122.545
-122.127
-125.189
-125.223
-127.948
-128.598
-130.718
-131.768
-133.21
-133.965
-134.389
-134.234
-133.612
-132.574
-131.174
-129.667
-127.778
-126.202
-122.693
-84.2638
-89.7253
-90.2431
-94.9113
-96.1832
-100.512
-102.777
-106.848
-109.997
-113.952
-117.405
-120.84
-123.742
-126.174
-127.924
-129.163
-129.775
-129.743
-130.292
-129.531
-40.2325
-43.1868
-42.0718
-45.2292
-44.1396
-46.6316
-46.3512
-48.0285
-48.4986
-49.7364
-50.6313
-51.8093
-53.0302
-54.5909
-56.547
-58.9881
-61.5769
-63.3656
-65.2247
-69.272
-40.0742
-40.0029
-37.2526
-38.7373
-35.4485
-36.312
-34.0896
-33.9893
-32.8461
-32.5245
-32.1347
-32.0924
-32.189
-32.4689
-32.8425
-33.3062
-33.859
-34.4869
-34.8135
-36.0115
-63.4214
-63.9854
-60.2674
-62.4963
-58.2383
-58.8743
-55.9955
-54.8358
-52.6334
-50.7114
-48.6098
-46.5813
-44.6492
-42.9348
-41.5086
-40.3196
-38.9288
-36.9205
-35.1112
-33.0628
-67.1492
-70.4752
-67.4873
-73.4516
-72.0856
-75.9041
-76.7902
-78.98
-80.3884
-81.8066
-82.9094
-83.765
-84.345
-84.5936
-84.4792
-83.7267
-82.2523
-79.6869
-76.8978
-73.7405
-73.3604
-80.4293
-72.3426
-79.43
-77.6027
-81.1397
-82.6245
-85.4028
-87.8977
-90.6976
-93.4885
-96.3565
-99.2177
-102.009
-104.56
-106.361
-107.071
-106.12
-105.085
-103.158
-50.9001
-73.8988
-66.0542
-77.5121
-80.6053
-87.6069
-92.8925
-98.4764
-103.329
-107.653
-111.207
-113.937
-115.75
-116.564
-116.287
-114.913
-112.414
-109.33
-107.145
-105.117
643.016
560.023
510.655
454.167
404.93
357.413
313.236
271.519
232.283
195.256
160.286
127.18
95.7331
65.91
37.8404
10.793
-14.7591
-34.4183
-57.7604
-95.0619
642.965
559.972
510.604
454.117
404.879
357.363
313.185
271.468
232.232
195.205
160.234
127.128
95.6803
65.8567
37.787
10.7399
-14.8118
-34.4712
-57.8142
-95.1167
-50.9449
-73.944
-66.0994
-77.5574
-80.6506
-87.6523
-92.9378
-98.5217
-103.374
-107.698
-111.252
-113.982
-115.795
-116.609
-116.332
-114.957
-112.457
-109.375
-107.191
-105.164
-73.4142
-80.4857
-72.4001
-79.4892
-77.6632
-81.2018
-82.6881
-85.468
-87.9644
-90.766
-93.5584
-96.428
-99.2907
-102.083
-104.635
-106.437
-107.146
-106.195
-105.161
-103.237
-67.245
-70.5732
-67.5853
-73.5508
-72.1857
-76.0053
-76.8927
-79.0838
-80.4935
-81.9129
-83.017
-83.874
-84.4554
-84.7052
-84.5916
-83.8387
-82.3628
-79.794
-77.0041
-73.8448
-63.4743
-64.0409
-60.3207
-62.5515
-58.2928
-58.9289
-56.0512
-54.8915
-52.6909
-50.7699
-48.6703
-46.6433
-44.7122
-42.9973
-41.5674
-40.3685
-38.9636
-36.9429
-35.1295
-33.0782
-40.1535
-40.0745
-37.3221
-38.8021
-35.5106
-36.3687
-34.1428
-34.0353
-32.8853
-32.554
-32.1538
-32.0992
-32.1825
-32.4483
-32.8078
-33.2572
-33.7962
-34.4179
-34.7412
-35.9281
-40.0738
-43.0126
-41.8896
-45.0351
-43.9326
-46.4126
-46.1187
-47.7838
-48.2421
-49.4695
-50.3565
-51.5289
-52.7475
-54.3101
-56.2731
-58.7237
-61.321
-63.1074
-64.9541
-69.0019
-84.0653
-89.5283
-90.0438
-94.7134
-95.9852
-100.315
-102.58
-106.65
-109.799
-113.751
-117.199
-120.628
-123.52
-125.943
-127.686
-128.914
-129.518
-129.482
-130.033
-129.292
-118.484
-122.459
-122.04
-125.105
-125.141
-127.866
-128.518
-130.639
-131.69
-133.131
-133.886
-134.312
-134.159
-133.542
-132.512
-131.121
-129.624
-127.745
-126.174
-122.668
-107.371
-107.362
-105.377
-105.802
-103.693
-103.637
-101.913
-101.153
-99.7215
-98.5134
-97.0931
-95.6143
-94.03
-92.322
-90.5236
-88.5105
-86.4305
-83.8137
-81.5667
-78.1994
-78.7799
-76.8526
-74.6809
-73.9067
-71.5898
-70.5841
-68.6199
-67.2167
-65.535
-63.9714
-62.3935
-60.8299
-59.2907
-57.7413
-56.2141
-54.6271
-53.1245
-51.454
-50.2159
-48.324
-58.1139
-55.9476
-54.0951
-53.0673
-51.2143
-50.2356
-48.7059
-47.5631
-46.3024
-45.1285
-43.9708
-42.8215
-41.6801
-40.5152
-39.3429
-38.0913
-36.868
-35.4544
-34.4155
-32.8929
-39.6662
-37.4996
-36.0159
-34.9168
-33.3767
-32.4593
-31.1287
-30.0727
-28.8902
-27.7254
-26.5316
-25.3165
-24.0995
-22.8953
-21.6883
-20.4381
-19.1743
-17.7787
-16.7932
-15.5639
-19.4612
-17.266
-16.0374
-14.653
-13.1784
-12.0216
-10.6237
-9.56294
-8.60956
-8.09385
-8.06435
-8.66894
-9.91387
-11.5866
-13.1469
-14.0721
-13.8311
-13.0977
-12.2726
-12.4906
-5.24888
-4.96601
-5.51353
-5.73003
-6.2897
-7.29674
-8.38346
-9.9401
-11.7111
-13.8375
-16.1679
-18.6994
-21.3615
-24.0453
-26.4568
-28.21
-29.1063
-29.5837
-29.2123
-30.6071
-10.9855
-14.2442
-17.3827
-20.1957
-22.3958
-24.2459
-25.7567
-27.4253
-29.1562
-31.208
-33.6125
-36.5358
-39.95
-43.6317
-47.0953
-49.8669
-51.3359
-50.7221
-49.7878
-53.5201
-58.031
-64.1734
-69.0572
-73.0619
-76.8038
-81.1535
-85.9464
-90.9408
-95.6255
-99.7978
-103.337
-106.23
-108.362
-109.64
-110.043
-109.706
-108.936
-108.389
-109.568
-112.754
-113.933
-120.936
-125.83
-128.09
-130.911
-133.793
-136.546
-139.142
-141.468
-143.671
-145.869
-148.161
-150.513
-152.813
-154.91
-156.634
-157.879
-158.496
-159.049
-157.005
-180.156
-179.478
-175.773
-169.313
-164.304
-160.32
-157.522
-155.534
-154.263
-153.548
-153.231
-153.129
-153.022
-152.633
-151.811
-150.319
-148.411
-145.771
-143.434
-139.343
-105.574
-102.363
-98.3887
-94.3345
-92.592
-91.1656
-91.6434
-92.4413
-93.1596
-93.7373
-94.1565
-94.2349
-93.8724
-92.9895
-91.6018
-89.6396
-87.34
-84.4429
-81.8505
-78.0692
)
;

boundaryField
{
    outletWall
    {
        type            fixedValue;
        value           uniform 0;
    }
    fineWalls
    {
        type            zeroGradient;
    }
    fineFrontAndBack
    {
        type            zeroGradient;
    }
    fineplugLeft
    {
        type            cyclicAMI;
        value           nonuniform List<scalar> 
20
(
-69.052
-70.7295
-71.949
-73.3127
-74.2915
-75.0314
-75.3747
-75.3719
-75.0496
-74.5195
-73.6697
-72.7787
-72.9635
-77.679
-68.3039
-70.1278
-72.762
-79.2152
-85.3617
-89.4411
)
;
    }
    fineplugRight
    {
        type            cyclicAMI;
        value           nonuniform List<scalar> 
20
(
-68.5546
-70.2502
-71.4853
-72.8625
-73.854
-74.6052
-74.9587
-74.9646
-74.6487
-74.1229
-73.2778
-72.3948
-72.5828
-77.2676
-68.1349
-70.064
-72.7953
-79.3279
-85.5218
-89.6076
)
;
    }
    inletOutletLeft
    {
        type            cyclicAMI;
        value           nonuniform List<scalar> 
20
(
-69.052
-70.7295
-71.949
-73.3127
-74.2915
-75.0314
-75.3747
-75.3719
-75.0496
-74.5195
-73.6697
-72.7787
-72.9635
-77.679
-68.3039
-70.1278
-72.762
-79.2152
-85.3617
-89.4411
)
;
    }
    inletLeft
    {
        type            zeroGradient;
    }
    inletWallsLeft
    {
        type            zeroGradient;
    }
    inletFacesLeft
    {
        type            zeroGradient;
    }
    inletOutletRight
    {
        type            cyclicAMI;
        value           nonuniform List<scalar> 
20
(
-68.5546
-70.2502
-71.4853
-72.8625
-73.854
-74.6052
-74.9587
-74.9646
-74.6487
-74.1229
-73.2778
-72.3948
-72.5828
-77.2676
-68.1349
-70.064
-72.7953
-79.3279
-85.5218
-89.6076
)
;
    }
    inletRight
    {
        type            zeroGradient;
    }
    inletWallsRight
    {
        type            zeroGradient;
    }
    inletFacesRight
    {
        type            zeroGradient;
    }
}


// ************************************************************************* //
