/*--------------------------------*- C++ -*----------------------------------*\
| =========                 |                                                 |
| \\      /  F ield         | OpenFOAM: The Open Source CFD Toolbox           |
|  \\    /   O peration     | Version:  4.1                                   |
|   \\  /    A nd           | Web:      www.OpenFOAM.org                      |
|    \\/     M anipulation  |                                                 |
\*---------------------------------------------------------------------------*/
FoamFile
{
    version     2.0;
    format      ascii;
    class       volVectorField;
    location    "9";
    object      U;
}
// * * * * * * * * * * * * * * * * * * * * * * * * * * * * * * * * * * * * * //

dimensions      [0 1 -1 0 0 0 0];

internalField   nonuniform List<vector> 
1280
(
(8.35119e-17 -1.3191 -1.03444)
(3.87669e-17 -1.0683 -1.14879)
(8.16587e-17 -0.964082 -0.849532)
(4.52751e-16 -0.764967 -0.866317)
(2.70705e-15 -0.742645 -1.09856)
(4.60538e-15 -0.423334 -0.78317)
(4.00743e-15 -0.343081 -1.04949)
(2.2697e-15 -0.119438 -1.17264)
(3.54318e-16 0.0523797 -1.78473)
(-9.19107e-16 0.36638 -1.39254)
(-1.25153e-15 0.612789 -1.18162)
(-3.82677e-16 0.961194 -2.28882)
(1.72198e-16 1.26424 -1.84579)
(1.98602e-16 1.58513 -1.51458)
(-6.5878e-17 2.23501 -3.0898)
(-2.47053e-16 2.4838 -2.51498)
(-3.15613e-16 2.99941 -2.12422)
(-2.34141e-16 3.58646 -3.95289)
(-1.58478e-16 4.29828 -2.93647)
(-4.48963e-16 4.01804 -3.63497)
(5.03044e-16 4.78335 -1.74683)
(9.36929e-16 4.57248 1.59527)
(3.11517e-16 4.72708 6.47504)
(2.1452e-16 4.66117 9.47661)
(1.75286e-16 4.88615 10.7544)
(2.52595e-16 5.25452 11.3357)
(-5.86717e-16 3.69995 6.83734)
(1.35063e-16 8.77446 13.0888)
(-3.81877e-17 8.67892 13.0408)
(-2.16e-16 8.81967 12.828)
(-4.10933e-16 8.90738 12.6068)
(-5.88215e-16 8.93008 12.3879)
(-7.41063e-16 8.93808 12.1715)
(-8.77777e-16 8.92238 11.9595)
(-1.00256e-15 8.87932 11.7508)
(-1.14274e-15 8.80956 11.5296)
(-1.24554e-15 8.72237 11.303)
(-1.41269e-15 8.5898 10.9996)
(-1.42689e-15 8.49418 10.8073)
(-2.09193e-15 8.17012 10.0689)
(-2.23952e-15 8.47205 12.3462)
(-1.50016e-15 5.60314 8.80011)
(-1.44067e-15 4.76896 8.67741)
(-1.56064e-15 3.65794 8.68757)
(-8.27498e-16 2.12593 8.23498)
(-4.07616e-17 1.15696 4.68766)
(3.34086e-16 0.568574 4.30572)
(1.52998e-16 -0.0154638 4.87598)
(1.38839e-15 -0.707795 -0.493042)
(-6.7517e-15 6.36939 -6.02191)
(-1.2879e-14 -6.20712 -9.02638)
(-3.77923e-15 0.538914 -0.751951)
(1.22477e-15 0.00341114 4.9003)
(7.47893e-16 -0.604557 4.31097)
(8.6375e-16 -1.17621 4.69245)
(1.39057e-15 -2.14614 8.24648)
(1.36075e-15 -3.69077 8.6896)
(1.41668e-15 -4.80232 8.6782)
(1.50016e-15 -5.63854 8.79674)
(2.30508e-15 -8.47243 12.3336)
(2.24383e-15 -8.14992 10.0766)
(1.53501e-15 -8.47595 10.8116)
(1.48586e-15 -8.57141 10.9997)
(1.28584e-15 -8.7045 11.2985)
(1.13893e-15 -8.79164 11.5186)
(9.6267e-16 -8.8611 11.7312)
(7.63937e-16 -8.90337 11.9283)
(5.17517e-16 -8.91756 12.126)
(2.99281e-16 -8.90731 12.3264)
(9.03237e-17 -8.88161 12.5292)
(-1.38647e-16 -8.79047 12.7371)
(-4.17782e-16 -8.64695 12.9401)
(-6.41095e-16 -8.73917 12.9795)
(-1.38958e-17 -3.59052 6.70702)
(-7.46133e-16 -5.20335 11.318)
(-5.89387e-16 -4.82386 10.7601)
(-7.16155e-16 -4.59706 9.51255)
(-8.413e-16 -4.65907 6.53809)
(-1.52116e-15 -4.50439 1.68203)
(-1.09837e-15 -4.71553 -1.63526)
(-1.08833e-16 -3.9459 -3.4933)
(-4.14332e-16 -4.26567 -2.77461)
(-6.01196e-16 -3.63681 -3.59613)
(-6.75519e-16 -3.10966 -1.70849)
(-7.28098e-16 -2.66766 -2.03941)
(-9.15638e-16 -2.62763 -2.46917)
(-4.02361e-16 -1.95777 -1.16585)
(-3.59754e-16 -1.71338 -1.38257)
(-4.84555e-16 -1.66966 -1.6825)
(-1.7208e-16 -1.23163 -0.844451)
(-2.6181e-16 -1.06263 -0.979138)
(-3.46065e-16 -1.02083 -1.19483)
(-2.74794e-17 -0.715317 -0.647512)
(-8.20452e-18 -0.658342 -0.736799)
(-1.79734e-17 -0.50909 -0.721197)
(-1.69438e-17 -0.479588 -0.887849)
(1.14062e-17 -0.270754 -0.460552)
(5.67268e-18 -0.184044 -0.575034)
(5.71201e-18 -0.162717 -0.994357)
(-6.93383e-18 0.110675 -1.09376)
(-3.12428e-16 -1.26706 2.74175)
(-3.81551e-16 -0.867014 2.19432)
(-5.02811e-16 1.10363 2.31271)
(-3.93229e-16 1.73952 2.20184)
(-6.84624e-17 2.22611 1.94333)
(5.34581e-16 2.38316 1.36388)
(1.4038e-15 1.5443 0.470002)
(1.79237e-15 -1.7348 -0.750783)
(1.36679e-15 -3.14366 -0.956609)
(8.76232e-16 -3.30349 -0.890721)
(4.59496e-16 -2.40657 -0.842149)
(1.38333e-16 -0.385964 -0.999987)
(-2.31635e-17 1.45483 -1.70939)
(-1.33136e-16 1.08412 -2.13572)
(-1.77449e-16 -0.336895 -2.18963)
(-1.79619e-16 -0.958357 -1.77338)
(-1.28797e-16 -0.865726 -1.32441)
(-7.38658e-17 -0.659666 -1.07005)
(-4.85852e-17 -0.297597 -0.992406)
(-3.40794e-16 -1.10749 2.73509)
(-4.43892e-16 -0.622903 2.36097)
(-4.95389e-16 1.09406 2.53459)
(-2.20201e-16 1.85899 2.41149)
(4.37355e-16 2.50939 2.0147)
(1.46258e-15 2.87693 1.28415)
(2.51078e-15 2.28984 0.433451)
(2.57781e-15 -1.59572 -0.898769)
(1.65562e-15 -3.27091 -0.888531)
(9.2977e-16 -3.32197 -0.471898)
(4.59606e-16 -2.24251 -0.435006)
(1.65122e-16 0.24041 -1.05878)
(-1.13647e-17 1.76393 -2.15853)
(-7.85387e-17 1.29868 -2.98101)
(-1.60657e-16 -0.338838 -3.18056)
(-1.94929e-16 -1.27591 -2.33991)
(-1.49576e-16 -1.11073 -1.48667)
(-8.81013e-17 -0.777417 -1.07249)
(-6.5203e-17 -0.354282 -0.988659)
(-1.42946e-16 -1.08793 2.52078)
(-5.33716e-16 -0.671743 2.60027)
(-4.65363e-16 1.06227 2.80801)
(1.31936e-16 1.96951 2.46188)
(1.16123e-15 2.71485 1.99578)
(2.29847e-15 3.13257 1.43826)
(3.02675e-15 2.53721 0.976807)
(3.10834e-15 -1.52644 -0.20996)
(2.25229e-15 -3.33381 -0.693176)
(1.20776e-15 -3.43479 0.0480761)
(4.92297e-16 -2.19164 0.210724)
(1.71841e-16 0.791872 -0.820877)
(1.26696e-16 2.13794 -2.16999)
(2.49221e-16 1.51443 -3.35447)
(8.0157e-17 -0.559523 -3.77569)
(-1.52798e-16 -1.63977 -2.9127)
(-1.76899e-16 -1.36488 -1.80515)
(-1.15742e-16 -0.87227 -1.22318)
(-2.89682e-17 -0.338826 -1.26004)
(7.04415e-16 -1.16034 2.18174)
(-4.03387e-16 -0.775191 2.61972)
(-1.88476e-16 1.1478 2.83915)
(8.90441e-16 2.15551 2.38228)
(2.13545e-15 2.89811 2.16687)
(2.98226e-15 3.30739 2.07307)
(3.16306e-15 2.73923 2.05454)
(3.07679e-15 -1.18345 1.09136)
(2.78432e-15 -3.38258 -0.0343795)
(1.71011e-15 -3.61481 0.637624)
(6.53334e-16 -2.09151 0.964797)
(2.36154e-16 1.32437 -0.2381)
(6.72134e-16 2.68559 -1.84918)
(1.08921e-15 1.93834 -2.97223)
(8.80219e-16 -0.503014 -3.82786)
(1.59792e-16 -2.04903 -3.23587)
(-1.61689e-16 -1.72231 -2.07866)
(-1.70714e-16 -1.04643 -1.44669)
(-4.30933e-17 -0.349774 -1.8672)
(2.36531e-15 -1.25934 2.08321)
(3.21555e-16 -0.945874 2.43157)
(5.95911e-16 1.17931 2.71001)
(1.99149e-15 2.21696 2.46736)
(2.94027e-15 2.85412 2.79006)
(3.16285e-15 3.245 3.20304)
(2.94522e-15 2.78672 3.51025)
(2.89022e-15 -0.564598 2.80613)
(2.97551e-15 -3.24366 1.29748)
(2.24852e-15 -3.75559 1.43198)
(1.0052e-15 -1.91577 1.75384)
(7.24769e-16 2.01504 0.506898)
(1.63464e-15 3.17888 -0.498027)
(2.08352e-15 2.3077 -0.809848)
(2.02359e-15 -0.280823 -2.17512)
(8.09031e-16 -2.24153 -2.71569)
(5.19338e-17 -1.98753 -2.08238)
(-1.81249e-16 -0.946623 -1.71082)
(6.14986e-18 -0.239085 -2.92849)
(4.28758e-15 -1.28019 2.67224)
(1.74965e-15 -1.05297 2.38927)
(1.84516e-15 1.14031 2.7509)
(2.90339e-15 2.08993 3.04791)
(3.0598e-15 2.61126 3.91177)
(2.81629e-15 3.05896 4.62233)
(2.66414e-15 2.78681 5.12078)
(2.76064e-15 -0.0151772 4.72911)
(2.93296e-15 -2.96257 3.16596)
(2.57079e-15 -3.74664 2.69852)
(1.51333e-15 -1.70639 2.63694)
(1.61502e-15 2.20076 2.0493)
(2.40199e-15 3.24948 2.50703)
(2.37002e-15 2.48361 2.89648)
(1.7757e-15 -0.561739 0.911952)
(1.32087e-15 -1.99113 -1.20284)
(4.66541e-16 -2.0382 -1.3374)
(6.89031e-17 -1.03962 -1.29975)
(1.04667e-16 0.12558 -3.98104)
(5.54885e-15 -1.13586 4.18187)
(3.47457e-15 -0.997546 2.89226)
(2.99122e-15 0.938929 3.28654)
(2.84941e-15 1.73104 4.18243)
(2.2685e-15 2.23946 5.26074)
(2.17768e-15 2.79818 6.04417)
(2.54279e-15 2.69286 6.78242)
(2.78222e-15 0.365117 6.84401)
(2.81943e-15 -2.55164 5.44349)
(2.62891e-15 -3.49985 4.50449)
(2.02987e-15 -1.49187 3.99227)
(2.42091e-15 1.94769 4.7136)
(2.82774e-15 2.93998 6.36085)
(2.355e-15 2.84828 6.78549)
(1.6234e-15 0.807038 4.65168)
(1.4767e-15 -1.58803 0.855215)
(8.57518e-16 -1.64614 -0.0865326)
(5.30297e-16 0.596147 -2.41157)
(3.74578e-17 1.08631 1.00189)
(6.00769e-15 -0.730613 6.56981)
(4.84119e-15 -0.655445 4.25112)
(2.94144e-15 0.633829 4.52553)
(1.34192e-15 1.28032 5.52721)
(7.70562e-16 1.87454 6.4283)
(1.43078e-15 2.4746 7.32452)
(2.5353e-15 2.43906 8.54038)
(2.90727e-15 0.531701 9.18825)
(2.63311e-15 -2.16603 7.97153)
(2.51343e-15 -3.16054 6.5752)
(2.4342e-15 -1.58686 5.94647)
(3.16846e-15 1.22596 7.85903)
(3.65735e-15 2.49941 9.83641)
(3.29616e-15 3.19141 10.5381)
(2.13826e-15 2.30823 9.6237)
(1.25996e-15 0.219923 5.82258)
(1.23505e-15 -0.917872 3.5021)
(1.41998e-15 -1.54577 5.99755)
(1.90026e-15 -4.80271 10.3388)
(3.98542e-15 -0.155954 10.212)
(2.71913e-15 -0.165355 7.28277)
(2.16256e-16 0.46401 6.14952)
(-1.11573e-15 0.979738 6.31266)
(-8.25118e-16 1.52304 7.1615)
(5.47894e-16 1.97344 8.53486)
(2.30748e-15 1.9622 10.4669)
(3.05609e-15 0.62455 11.8189)
(2.42131e-15 -1.55637 10.917)
(2.25785e-15 -2.66388 9.26526)
(2.82719e-15 -1.82035 8.66313)
(4.16882e-15 0.458894 10.3098)
(5.40806e-15 1.94448 11.5884)
(5.77602e-15 2.83836 12.6229)
(4.26156e-15 2.30612 13.6292)
(2.15911e-15 0.462586 13.2859)
(1.91988e-15 -1.17925 12.1031)
(2.10371e-15 -1.95469 12.2108)
(2.07842e-15 -2.753 11.5667)
(-3.35791e-15 0.553175 11.0709)
(-4.11764e-15 0.981495 7.45997)
(-3.16543e-15 1.00697 5.55783)
(-2.39566e-15 0.84613 5.92976)
(-1.59744e-15 0.983771 7.59336)
(-5.81388e-16 1.16204 9.72374)
(1.18731e-15 1.11327 12.3977)
(2.83871e-15 0.260847 14.7418)
(3.33913e-15 -1.22518 14.9464)
(2.52796e-15 -2.26334 13.3145)
(1.89388e-15 -1.94811 11.5525)
(2.62754e-15 -0.0381321 10.8749)
(6.24481e-15 1.54886 11.3257)
(7.55608e-15 2.4284 12.4094)
(6.73307e-15 2.18211 13.1198)
(3.72838e-15 0.719236 12.6437)
(2.25075e-15 -0.91102 11.4305)
(2.24113e-15 -1.49227 9.26663)
(6.54631e-16 -1.41841 5.29351)
(-3.42794e-15 1.33914 6.67386)
(-2.8399e-15 1.96359 3.8131)
(-1.76327e-15 1.04606 3.47532)
(-1.36447e-15 0.115307 5.2214)
(-1.45858e-15 0.000817784 7.77993)
(-2.35924e-15 0.0654693 10.2984)
(-3.3058e-15 -0.0135734 13.2318)
(-3.1735e-15 -0.448834 16.122)
(-2.54444e-15 -1.05505 17.2776)
(-2.28932e-15 -1.34233 15.842)
(-1.78882e-15 -0.774992 12.759)
(-6.6739e-16 0.601013 10.3333)
(7.21015e-16 1.45552 10.3647)
(2.1713e-15 2.12643 11.5787)
(3.12947e-15 2.28368 12.6448)
(3.07915e-15 1.48576 12.6413)
(2.47619e-15 0.462048 10.9437)
(2.71991e-15 0.546604 8.44577)
(2.80661e-15 1.12852 4.90586)
(-1.97598e-15 1.77937 3.71526)
(-1.28445e-15 2.25568 2.54728)
(-1.02388e-15 0.516911 3.36662)
(-1.85183e-15 -0.817187 4.93017)
(-2.46534e-15 -0.995275 7.03494)
(-3.45614e-15 -0.993402 9.32156)
(-4.46521e-15 -1.15442 11.9519)
(-4.79084e-15 -1.33503 14.4897)
(-4.39047e-15 -1.06484 15.0165)
(-3.74655e-15 -0.388378 12.152)
(-3.55845e-15 0.349601 7.6493)
(-4.32159e-15 0.729884 4.49981)
(-5.54306e-15 0.856667 4.05696)
(-5.96777e-15 1.29737 5.11365)
(-5.27734e-15 1.50881 7.35815)
(-4.25323e-15 1.13523 10.9813)
(-3.0817e-15 0.597592 12.8431)
(-2.40295e-15 0.958567 12.8405)
(-1.84845e-15 2.36679 11.5436)
(-1.31702e-15 1.84578 2.39657)
(-4.27914e-16 2.08105 2.55078)
(-5.87662e-16 0.0601032 3.68528)
(-1.98624e-15 -1.38028 4.46304)
(-3.06674e-15 -1.76969 5.9135)
(-3.95625e-15 -1.89212 7.76233)
(-4.57916e-15 -2.04397 9.89926)
(-4.58989e-15 -1.73016 11.7348)
(-3.90152e-15 -0.17873 11.1515)
(-3.25451e-15 1.47725 7.88325)
(-2.89351e-15 2.21567 4.77454)
(-1.90606e-15 2.00521 2.15829)
(-5.01334e-16 1.40267 0.0621795)
(3.29631e-16 1.20974 -1.01306)
(1.05668e-15 0.247053 -2.39772)
(-2.39337e-16 -0.710357 1.23195)
(-1.48653e-15 -0.398239 5.81671)
(-1.70327e-15 1.36191 7.67656)
(-2.06317e-15 4.81815 10.6117)
(-5.57754e-16 1.75356 2.38016)
(3.03641e-16 1.71941 3.17429)
(-2.39605e-16 -0.254742 4.04994)
(-1.73171e-15 -1.69633 4.17661)
(-3.08304e-15 -2.30583 4.93163)
(-4.05537e-15 -2.5775 6.2081)
(-4.47609e-15 -2.6888 7.79814)
(-4.35804e-15 -1.90239 9.0179)
(-3.96216e-15 0.519262 7.82433)
(-3.78899e-15 2.28529 5.24127)
(-3.23477e-15 2.93477 3.34776)
(-1.98517e-15 2.64153 1.79835)
(-7.18508e-16 2.05136 0.493962)
(-7.98342e-17 1.74386 -0.436854)
(-9.09065e-18 0.625992 -0.421794)
(8.71938e-16 -1.36974 -2.4693)
(3.71946e-16 -1.69108 -0.968682)
(3.04347e-16 -1.29089 -2.4387)
(-2.50527e-16 -0.725869 1.09725)
(2.05127e-16 1.56751 3.00955)
(6.27923e-16 1.37985 3.85896)
(-8.99867e-17 -0.349916 4.27434)
(-1.33738e-15 -1.77676 4.05752)
(-2.69128e-15 -2.59136 4.24714)
(-3.84276e-15 -3.03708 4.90065)
(-4.38441e-15 -3.11699 5.93346)
(-4.34947e-15 -1.86319 6.68476)
(-4.14295e-15 1.31542 5.13482)
(-3.83591e-15 3.14093 3.02585)
(-2.87874e-15 3.58302 1.8806)
(-1.52732e-15 3.08113 0.956099)
(-4.70475e-16 2.37458 0.0170279)
(2.98185e-17 1.7809 -0.69669)
(2.49169e-16 0.947059 -1.03979)
(5.12675e-16 -0.807465 -2.17135)
(6.11653e-16 -1.04905 -3.05504)
(5.58263e-16 -0.183684 -3.98687)
(5.50185e-16 -0.1299 -4.77493)
(5.5566e-16 1.42403 3.67737)
(6.02017e-16 1.18987 4.18421)
(-2.22957e-17 -0.297428 4.20663)
(-9.71465e-16 -1.70186 3.92481)
(-2.14699e-15 -2.64125 3.8098)
(-3.39593e-15 -3.24807 3.91843)
(-4.23032e-15 -3.33303 4.37658)
(-4.43167e-15 -1.67973 4.70008)
(-4.22425e-15 1.94882 2.91035)
(-3.54505e-15 3.65596 1.32596)
(-2.35215e-15 3.86469 0.908635)
(-1.17662e-15 3.35049 0.349875)
(-3.82672e-16 2.69444 -0.332877)
(4.28161e-17 2.04341 -0.885747)
(2.16959e-16 1.15225 -1.21421)
(2.73466e-16 -0.354263 -1.76192)
(3.67446e-16 -0.662505 -2.97307)
(2.8843e-16 -0.0870753 -3.07198)
(4.86745e-16 -0.112282 -3.91147)
(4.97598e-16 1.3668 4.04115)
(5.11332e-16 1.1536 4.13939)
(1.15416e-16 -0.214564 3.90893)
(-6.25584e-16 -1.65305 3.66289)
(-1.59737e-15 -2.59724 3.4852)
(-2.80538e-15 -3.27196 3.2432)
(-3.90204e-15 -3.37049 3.16793)
(-4.42663e-15 -1.36788 3.02763)
(-4.05017e-15 2.49294 1.09981)
(-2.9454e-15 3.96654 0.251665)
(-1.8679e-15 4.00375 0.258615)
(-9.89433e-16 3.5484 -0.196503)
(-3.54425e-16 2.89762 -0.668643)
(4.07495e-17 2.1651 -1.06199)
(2.11835e-16 1.27155 -1.31586)
(2.55073e-16 -0.00539328 -1.75049)
(2.75987e-16 -0.51928 -2.60021)
(2.32115e-16 -0.0169797 -2.68105)
(3.72418e-16 -0.0862216 -2.75104)
(3.38019e-16 1.37979 4.10746)
(5.00451e-16 1.23447 3.97565)
(3.15683e-16 -0.0322265 3.56448)
(-2.60725e-16 -1.52243 3.26317)
(-1.06439e-15 -2.45552 3.1596)
(-2.13966e-15 -3.11292 2.80267)
(-3.34602e-15 -3.18473 2.33278)
(-4.17439e-15 -0.847693 1.67897)
(-3.49124e-15 2.92349 -0.162759)
(-2.34028e-15 4.0719 -0.245706)
(-1.59467e-15 4.07593 -0.244211)
(-9.26953e-16 3.69681 -0.610175)
(-3.49102e-16 3.04337 -0.910129)
(4.17655e-17 2.28017 -1.16229)
(2.11303e-16 1.37633 -1.34022)
(2.47236e-16 0.259078 -1.63469)
(2.4748e-16 -0.325582 -2.2368)
(2.41554e-16 -0.0859517 -2.33739)
(1.40471e-16 -0.239372 -2.06903)
(2.52636e-16 1.41011 4.06124)
(4.95656e-16 1.31859 3.88623)
(4.51232e-16 0.0563016 3.41074)
(7.00908e-17 -1.56187 2.84885)
(-5.76571e-16 -2.43174 2.76572)
(-1.50587e-15 -2.97141 2.50895)
(-2.70141e-15 -2.9586 1.87972)
(-3.72162e-15 -0.32782 0.626287)
(-2.72774e-15 3.20926 -0.634132)
(-2.01897e-15 4.15172 -0.515393)
(-1.50152e-15 4.16827 -0.646023)
(-9.11867e-16 3.78513 -0.88991)
(-3.36111e-16 3.10285 -1.05334)
(6.10877e-17 2.31107 -1.18388)
(2.22597e-16 1.4059 -1.29225)
(2.4445e-16 0.379823 -1.47199)
(2.34438e-16 -0.242285 -1.86471)
(2.27227e-16 -0.138491 -1.90645)
(-3.14005e-18 -0.362975 -1.64503)
(1.99412e-16 1.44964 4.00095)
(4.59725e-16 1.51198 3.83308)
(5.1048e-16 0.552383 3.53502)
(3.73879e-16 -1.25337 2.75359)
(-8.38075e-18 -2.24199 2.39346)
(-6.38864e-16 -2.71755 2.14788)
(-1.57581e-15 -2.41134 1.59642)
(-2.64096e-15 0.807801 0.0576664)
(-2.34519e-15 3.16969 -0.558371)
(-1.94622e-15 4.16303 -0.747011)
(-1.49597e-15 4.25286 -0.902323)
(-8.97872e-16 3.86785 -1.02858)
(-3.08975e-16 3.18661 -1.1065)
(8.64388e-17 2.39714 -1.1659)
(2.32871e-16 1.50102 -1.23165)
(2.38549e-16 0.535981 -1.32039)
(2.20264e-16 -0.177249 -1.49303)
(1.97409e-16 -0.182448 -1.50262)
(1.24303e-16 -0.549073 -1.41533)
(4.7142e-15 5.31152 9.53777)
(6.23138e-15 11.1187 21.527)
(3.40275e-15 17.687 32.0372)
(3.29523e-15 19.1131 33.8528)
(3.33585e-15 18.5987 31.6629)
(3.94392e-15 17.4473 28.6587)
(3.46615e-15 16.2355 25.8618)
(3.23788e-15 15.1797 23.3172)
(3.12951e-15 14.1787 20.9724)
(3.1369e-15 13.1892 18.7696)
(3.02045e-15 12.1872 16.6567)
(2.88311e-15 11.1504 14.6084)
(2.89792e-15 10.0622 12.6176)
(2.87741e-15 8.92121 10.671)
(2.70992e-15 7.69661 8.7615)
(2.64125e-15 6.39923 6.84385)
(2.47889e-15 4.91228 4.89565)
(2.33682e-15 3.35198 2.75303)
(1.67927e-15 1.14678 0.50323)
(-1.63264e-15 -0.373216 -3.17081)
(7.10424e-16 -2.17562 -3.99228)
(7.95699e-15 7.37796 12.0841)
(4.24374e-15 16.9601 28.6633)
(3.51436e-15 19.893 34.2008)
(3.49898e-15 19.4407 33.199)
(4.32511e-15 18.0071 30.5471)
(4.05597e-15 16.6661 27.9384)
(4.16716e-15 15.4167 25.4967)
(4.3428e-15 14.1827 23.0872)
(4.5689e-15 12.9219 20.6479)
(4.5259e-15 11.6171 18.177)
(4.91065e-15 10.265 15.6716)
(6.18523e-15 8.84912 13.1384)
(6.92908e-15 7.36996 10.5682)
(7.97821e-15 5.78075 7.96187)
(1.01522e-14 4.11567 5.2534)
(1.11532e-14 2.18328 2.44431)
(1.39406e-14 0.325868 -0.751008)
(1.52707e-14 -2.43033 -3.79065)
(8.94192e-15 -2.69889 -7.09156)
(-3.47103e-16 4.46908 8.45426)
(2.29647e-15 12.4916 18.4412)
(1.8806e-15 18.8423 28.3268)
(1.35033e-15 21.3034 33.095)
(9.72583e-16 20.6151 32.6078)
(2.18429e-15 18.9015 30.2195)
(1.7128e-15 17.1275 27.6983)
(1.71026e-15 15.4417 25.259)
(1.9591e-15 13.7522 22.8376)
(2.00749e-15 12.0504 20.3739)
(2.49007e-15 10.3069 17.8453)
(3.33845e-15 8.50415 15.205)
(4.63352e-15 6.64263 12.4477)
(6.94844e-15 4.74921 9.58028)
(1.22268e-14 2.82044 6.62381)
(1.65823e-14 0.919083 3.64383)
(1.20829e-14 -0.894571 0.740294)
(6.6276e-15 -2.46191 -2.18603)
(9.5151e-15 -4.67498 -5.46914)
(6.76841e-15 -3.62366 -6.8316)
(4.33855e-17 9.92137 17.3778)
(-3.30131e-16 18.5079 29.2978)
(-3.80519e-16 19.9548 31.1791)
(-3.18838e-16 18.701 29.7007)
(-3.67102e-16 16.8422 27.7459)
(1.2281e-15 15.1076 25.7665)
(1.35498e-15 13.2952 23.6282)
(1.74084e-15 11.4884 21.3412)
(2.03327e-15 9.67891 19.0625)
(2.27665e-15 7.8787 16.7619)
(3.04612e-15 6.04616 14.4154)
(4.1164e-15 4.18784 11.9796)
(5.9976e-15 2.31046 9.45807)
(1.00111e-14 0.462195 6.8811)
(1.77997e-14 -1.24082 4.39578)
(2.37447e-14 -2.59596 2.23061)
(2.04837e-14 -3.44337 0.434835)
(1.17291e-14 -3.4011 -0.61434)
(7.53451e-15 -1.81528 0.288706)
(5.08129e-15 0.498135 2.64792)
(-6.27199e-18 12.4358 21.7115)
(5.59712e-17 18.559 31.577)
(7.03132e-17 16.1693 28.0737)
(6.76631e-17 13.6484 24.3609)
(3.7159e-17 12.1839 22.7409)
(-3.8242e-16 10.9615 21.3454)
(-4.07737e-16 9.4435 19.5782)
(-4.57156e-16 7.8234 17.4868)
(-4.97961e-16 6.1009 15.2715)
(-5.33548e-16 4.3587 12.9874)
(-6.16334e-16 2.60901 10.7239)
(-6.31262e-16 0.935481 8.56605)
(-4.52262e-16 -0.559137 6.62983)
(-2.46425e-17 -1.69167 5.07237)
(4.7788e-16 -2.14027 4.2623)
(6.97781e-16 -1.3974 4.93876)
(3.65563e-16 0.977936 7.79256)
(-1.89978e-16 4.69594 12.2341)
(-3.52635e-16 7.94844 15.4771)
(-1.87232e-16 6.283 12.3121)
(7.2323e-19 11.195 19.6166)
(-9.41061e-18 16.3133 28.9391)
(-1.15003e-17 14.3005 25.5553)
(-1.03792e-17 12.7544 22.7205)
(7.5537e-18 11.4966 20.7984)
(8.31758e-17 10.4164 18.9625)
(8.60453e-17 9.19403 17.1377)
(8.8088e-17 7.98045 15.0869)
(8.80297e-17 6.6706 12.8851)
(7.68916e-17 5.37762 10.5561)
(3.84022e-17 4.15526 8.28245)
(-5.5728e-17 3.18509 6.36131)
(-2.50282e-16 2.72801 5.2993)
(-5.86403e-16 3.07369 5.61937)
(-9.88781e-16 4.36032 7.5385)
(-1.22896e-15 6.40055 10.7193)
(-1.07898e-15 8.70381 14.3408)
(-4.65915e-16 10.3696 17.3651)
(2.76747e-16 10.9115 18.0045)
(3.40468e-16 7.54946 13.734)
(-8.6585e-20 9.55511 16.7379)
(1.40212e-18 16.9356 29.6936)
(1.63487e-18 15.9196 27.7455)
(1.54566e-18 14.1146 23.9595)
(-1.33552e-18 12.5588 21.3823)
(-1.44891e-17 11.6873 19.4652)
(-1.51946e-17 10.8615 17.9984)
(-1.3976e-17 10.2044 16.5382)
(-1.23232e-17 9.53664 15.0949)
(-1.02283e-17 8.92194 13.5914)
(-1.08125e-17 8.33034 12.017)
(-2.79304e-17 7.76165 10.3765)
(-9.30244e-17 7.28034 8.83697)
(-2.38356e-16 6.99344 7.72941)
(-4.61385e-16 7.03913 7.43301)
(-6.56578e-16 7.44595 8.24145)
(-6.53732e-16 8.1341 9.92877)
(-3.42507e-16 8.57488 11.8035)
(9.11248e-17 8.3152 12.475)
(1.50538e-16 5.81702 9.6651)
(1.26642e-20 9.1547 15.8397)
(-1.87862e-19 17.7712 30.4443)
(-2.00267e-19 16.8414 29.1198)
(-1.81423e-19 14.9503 25.1181)
(2.58226e-19 13.3817 22.5738)
(2.15229e-18 12.5787 20.6826)
(2.16635e-18 11.7947 19.2106)
(1.65118e-18 11.137 17.775)
(1.11193e-18 10.471 16.4041)
(7.39727e-19 9.84037 15.0763)
(1.45676e-18 9.23371 13.7792)
(5.22941e-18 8.64111 12.4824)
(1.20699e-17 8.04637 11.142)
(1.17195e-17 7.44902 9.78517)
(-1.71136e-17 6.89283 8.55071)
(-8.91813e-17 6.44353 7.66292)
(-1.70417e-16 6.10518 7.30489)
(-1.68692e-16 5.82229 7.30541)
(-6.14685e-17 5.03234 7.07466)
(9.68772e-18 2.83784 3.76316)
(-5.02811e-22 9.72099 16.7237)
(1.65916e-20 18.4608 30.9728)
(1.18552e-20 17.3874 29.8183)
(5.39456e-21 15.5279 25.7852)
(-5.18027e-20 13.943 23.3952)
(-2.76921e-19 13.1689 21.5439)
(-2.4255e-19 12.3197 20.0505)
(-1.43797e-19 11.583 18.5211)
(-1.0143e-19 10.8134 17.0435)
(-1.07266e-19 10.0683 15.5992)
(-4.66499e-20 9.33867 14.2098)
(5.21638e-19 8.62325 12.8747)
(3.21511e-18 7.9141 11.5832)
(1.0674e-17 7.20408 10.303)
(2.263e-17 6.45756 9.00966)
(3.22001e-17 5.69283 7.68511)
(3.07791e-17 4.82143 6.39146)
(2.25499e-17 3.93833 5.02168)
(1.18933e-17 2.42967 3.38088)
(-4.19703e-18 0.459173 -0.620442)
(-4.13208e-22 11.3519 19.5955)
(1.02061e-21 19.5582 32.0674)
(3.94929e-21 17.7091 30.1915)
(5.88829e-21 16.1087 26.2692)
(1.06412e-20 14.5517 24.1792)
(2.49123e-20 13.898 22.3528)
(9.71449e-21 13.0156 20.878)
(1.08691e-21 12.3046 19.3102)
(1.60758e-20 11.5325 17.7998)
(1.64092e-20 10.7763 16.2668)
(-1.25255e-19 9.98771 14.7202)
(-5.83935e-19 9.1571 13.1497)
(-1.50656e-18 8.27359 11.5646)
(-2.3337e-18 7.34452 9.97177)
(-1.06625e-18 6.34654 8.38031)
(4.84013e-18 5.30405 6.74322)
(1.55471e-17 4.0892 5.03868)
(2.6492e-17 2.81949 3.04894)
(3.17428e-17 0.702815 0.548463)
(1.1046e-17 -0.736023 -3.11514)
(1.8477e-22 13.7393 24.2289)
(-9.91836e-22 20.5516 33.0934)
(-2.08959e-21 17.5183 30.2598)
(-2.62328e-21 16.6323 26.8476)
(-2.53792e-21 15.0796 25.2695)
(-5.74741e-23 14.6727 23.4609)
(5.08475e-21 13.7327 22.0886)
(5.20107e-21 13.1613 20.5412)
(1.92378e-21 12.418 19.0758)
(1.42307e-20 11.6889 17.4583)
(7.71918e-20 10.8189 15.7182)
(1.91018e-19 9.83522 13.8332)
(2.45925e-19 8.72914 11.8489)
(-1.05354e-19 7.52735 9.79183)
(-1.33202e-18 6.21322 7.69259)
(-3.58714e-18 4.81896 5.51613)
(-6.2839e-18 3.2004 3.27754)
(-8.85735e-18 1.56856 0.747822)
(-4.36165e-18 -1.0037 -2.04745)
(3.46776e-18 -2.10188 -5.79631)
(-5.54145e-23 15.9377 29.1002)
(3.46647e-22 20.4769 32.8017)
(6.74413e-22 16.6687 30.0047)
(8.05926e-22 16.7765 27.3979)
(6.40595e-22 14.9897 26.3207)
(-6.79687e-22 14.8772 24.5355)
(-2.11787e-21 13.7606 23.4368)
(-2.00226e-21 13.3847 21.9999)
(-2.16821e-21 12.523 20.6459)
(-9.2773e-21 11.6957 18.8449)
(-3.01672e-20 10.5052 16.7678)
(-5.22427e-20 9.17526 14.4105)
(-1.37322e-20 7.66862 11.92)
(2.10751e-19 6.06293 9.32998)
(6.75661e-19 4.33563 6.66583)
(1.07638e-18 2.5049 3.86656)
(9.56823e-19 0.389266 0.9602)
(-2.3159e-18 -1.25508 -2.29134)
(-7.56676e-18 -3.64213 -4.55872)
(-6.26752e-18 -3.54112 -8.40859)
(1.44234e-23 16.6249 31.2919)
(-1.07211e-22 18.8889 30.5414)
(-1.92558e-22 15.462 29.1294)
(-2.22799e-22 15.9389 26.9229)
(-1.43327e-22 13.8593 25.9993)
(2.89242e-22 13.7416 24.2731)
(6.83955e-22 12.4068 23.3788)
(1.10832e-21 11.958 22.024)
(1.96349e-21 10.7541 20.6422)
(8.1279e-22 9.58442 18.5373)
(-1.01694e-20 7.9296 16.0834)
(-2.41033e-20 6.25064 13.3221)
(6.26967e-20 4.41679 10.4557)
(4.56434e-19 2.5776 7.51971)
(9.45153e-19 0.72163 4.57948)
(3.44809e-19 -1.03407 1.80585)
(-2.71603e-18 -2.42248 -0.494697)
(-8.71452e-18 -3.87813 -3.19734)
(-1.53163e-17 -5.11576 -5.61479)
(-1.10166e-17 -2.76293 -4.03412)
(-3.16089e-24 15.7522 30.087)
(3.15677e-23 17.6116 28.5091)
(5.31982e-23 14.4424 27.6477)
(5.90557e-23 14.8157 25.2147)
(8.74853e-24 12.5986 24.2614)
(-1.29623e-22 12.309 22.4436)
(-8.50152e-23 10.8371 21.4381)
(2.00669e-22 10.1049 20.0212)
(-1.00896e-21 8.75115 18.5756)
(-9.50318e-21 7.41247 16.5766)
(-2.77684e-20 5.79409 14.3211)
(-3.42004e-21 4.18551 11.8227)
(2.58819e-19 2.48289 9.13528)
(8.73748e-19 0.82986 6.4048)
(9.26771e-19 -0.637022 3.93009)
(-1.63087e-18 -1.79555 1.80767)
(-6.87632e-18 -2.17146 0.678605)
(-1.07215e-17 -0.830587 1.87827)
(-8.86076e-18 2.17418 5.56442)
(-1.36217e-18 3.5292 7.88237)
(6.76338e-25 14.9744 29.0343)
(-8.46411e-24 17.792 27.84)
(-1.33286e-23 13.964 26.7784)
(-1.38542e-23 14.878 23.9007)
(-2.46961e-24 12.3489 22.9913)
(2.34924e-23 12.306 20.773)
(8.91228e-23 10.693 19.5213)
(3.72621e-22 10.0315 17.8102)
(2.87319e-22 8.83986 16.3744)
(-3.98875e-21 7.88155 14.7242)
(-1.6037e-20 6.80799 13.0627)
(-1.14768e-20 5.81421 11.2866)
(9.87214e-20 4.77706 9.3443)
(3.96946e-19 3.76874 7.25354)
(7.18996e-19 3.07984 5.56046)
(6.84256e-19 3.22924 5.22042)
(4.81055e-19 4.16555 6.28308)
(7.93339e-19 5.15693 7.87897)
(1.90877e-18 6.11786 9.01207)
(2.54685e-18 4.57606 8.0349)
(-1.57806e-25 15.0227 29.6786)
(2.04283e-24 18.5286 28.2441)
(3.33298e-24 14.2835 27.3023)
(4.01307e-24 15.5811 24.3114)
(1.38901e-24 13.1144 23.4092)
(-8.32627e-24 13.1702 21.2216)
(-3.39242e-23 11.8093 19.8552)
(-1.18362e-22 11.223 18.1358)
(-1.88661e-22 10.3354 16.6672)
(3.42726e-22 9.64454 15.2136)
(2.23719e-21 8.96164 13.8615)
(3.56968e-21 8.3413 12.5443)
(-4.22281e-21 7.75436 11.2445)
(-3.07359e-20 7.18653 9.90706)
(-6.01638e-20 6.58058 8.44502)
(-4.9701e-20 5.87089 6.87525)
(8.51925e-20 5.00339 5.29874)
(2.76544e-19 4.12032 4.09416)
(4.14056e-19 2.88204 3.05876)
(6.01873e-19 1.30131 0.594457)
(4.40589e-26 15.1541 30.7299)
(-4.73376e-25 18.7687 28.3136)
(-5.42246e-25 14.3119 27.8318)
(-3.13516e-25 15.7316 24.9899)
(-8.58778e-25 13.401 24.0754)
(-5.54362e-24 13.3684 22.1075)
(-1.75326e-23 12.2345 20.783)
(-2.48474e-23 11.683 19.2368)
(-1.8498e-23 10.9607 17.8385)
(-4.08823e-23 10.352 16.4321)
(-7.99841e-23 9.75177 15.0699)
(2.22751e-22 9.17932 13.7201)
(1.52535e-21 8.59086 12.3411)
(3.54541e-21 7.93143 10.8351)
(4.07601e-21 7.06674 9.07684)
(-7.83097e-21 5.92795 6.94239)
(-2.69837e-20 4.38957 4.56517)
(-9.13147e-20 2.91676 2.49923)
(-2.076e-19 0.574586 0.223123)
(1.12995e-19 -0.772128 -3.32963)
(-3.16214e-27 14.3135 30.9317)
(1.50756e-25 18.3672 27.8755)
(3.73945e-25 13.5957 27.8125)
(5.98046e-25 14.6506 25.385)
(-1.19945e-24 12.5518 24.4458)
(-9.90812e-24 12.1766 22.8127)
(-2.76227e-23 11.099 21.5894)
(-3.59317e-23 10.442 20.2442)
(1.92162e-23 9.68837 19.0111)
(1.70683e-22 9.05956 17.7734)
(2.61594e-22 8.45003 16.5757)
(-1.32612e-22 7.88767 15.3691)
(-1.16103e-21 7.28653 14.0551)
(-1.06696e-21 6.49317 12.3606)
(5.92127e-21 5.22337 9.87153)
(2.91187e-20 3.23263 6.13057)
(6.23005e-20 0.138982 1.02875)
(-2.35488e-20 -2.26631 -4.75923)
(-3.37145e-19 -3.76915 -5.02691)
(-2.28753e-20 -2.8441 -7.09143)
(5.67194e-27 11.3048 28.6952)
(-4.02689e-26 17.0976 25.2359)
(-2.02626e-26 12.1045 25.619)
(1.05096e-25 12.7139 23.9373)
(-5.90661e-25 10.9769 23.2073)
(-5.03916e-24 10.2917 22.1406)
(-1.48991e-23 9.28689 21.2419)
(-1.9485e-23 8.49428 20.3072)
(1.29156e-23 7.70655 19.4072)
(1.07516e-22 6.99867 18.5124)
(1.88508e-22 6.33857 17.6292)
(3.28065e-24 5.71988 16.7274)
(-5.38653e-22 5.08555 15.7134)
(-1.38735e-23 4.32814 14.3705)
(6.31591e-21 3.29858 12.3759)
(2.44733e-20 1.89939 9.45896)
(4.96193e-20 0.248387 5.63185)
(5.18262e-20 -1.3642 1.3763)
(5.1096e-21 -2.52258 -2.09252)
(-4.5025e-22 -1.90258 -3.25317)
(3.94175e-27 2.6278 17.0735)
(1.15712e-27 8.04544 13.7287)
(-2.43554e-26 5.17437 14.5852)
(4.56387e-26 4.96789 14.207)
(3.23396e-25 4.0351 14.1779)
(2.21744e-25 3.45546 14.0161)
(-2.30411e-24 2.86449 13.8707)
(-9.20117e-24 2.37665 13.6931)
(-1.60607e-23 1.94968 13.4977)
(-4.50547e-24 1.5956 13.28)
(5.29991e-23 1.31189 13.0454)
(1.54213e-22 1.10645 12.8057)
(1.80192e-22 0.990423 12.5839)
(-1.93775e-22 0.987986 12.3934)
(-1.39533e-21 1.12237 12.2075)
(-3.4093e-21 1.35046 11.9658)
(-5.09737e-21 1.69338 11.52)
(-4.73142e-21 2.44702 10.5189)
(-2.35092e-21 2.74364 8.99772)
(-4.52855e-22 -0.0968366 6.81531)
(-3.92485e-27 -2.62777 17.0734)
(-1.9478e-27 -8.04544 13.7286)
(2.26304e-26 -5.17437 14.5852)
(-3.59711e-26 -4.9679 14.2069)
(-2.6274e-25 -4.03511 14.1779)
(-1.00859e-25 -3.45547 14.0161)
(2.19506e-24 -2.86451 13.8707)
(7.86322e-24 -2.37666 13.6931)
(1.20641e-23 -1.94969 13.4977)
(-1.18474e-24 -1.5956 13.28)
(-5.00519e-23 -1.31189 13.0454)
(-1.1483e-22 -1.10648 12.8059)
(-6.29569e-23 -0.990544 12.5844)
(4.10338e-22 -0.988249 12.3941)
(1.65837e-21 -1.12277 12.2084)
(3.58448e-21 -1.35094 11.9666)
(5.07804e-21 -1.69385 11.5206)
(4.57585e-21 -2.44746 10.5193)
(2.22392e-21 -2.74399 8.99799)
(4.13557e-22 0.0967692 6.81549)
(-5.7516e-27 -11.3049 28.6952)
(3.88577e-26 -17.0975 25.236)
(2.23529e-26 -12.1045 25.6191)
(-6.39179e-26 -12.7138 23.9375)
(6.84638e-25 -10.9768 23.2075)
(4.84477e-24 -10.2915 22.1409)
(1.33769e-23 -9.28662 21.2422)
(1.61318e-23 -8.49394 20.3076)
(-1.32523e-23 -7.70615 19.4076)
(-8.90456e-23 -6.99822 18.513)
(-1.34019e-22 -6.33807 17.6298)
(5.67735e-23 -5.71926 16.728)
(4.52695e-22 -5.08463 15.7137)
(-4.58245e-22 -4.32669 14.37)
(-7.18221e-21 -3.29654 12.3743)
(-2.50666e-20 -1.89725 9.45652)
(-4.89188e-20 -0.247085 5.62968)
(-5.01828e-20 1.36424 1.37553)
(-4.91472e-21 2.52158 -2.09088)
(7.39573e-22 1.90139 -3.25117)
(3.49252e-27 -14.314 30.9325)
(-1.50738e-25 -18.3674 27.8763)
(-3.71419e-25 -13.5961 27.8133)
(-5.37533e-25 -14.6508 25.386)
(1.36014e-24 -12.552 24.4469)
(9.69796e-24 -12.1768 22.8139)
(2.55622e-23 -11.0991 21.5906)
(3.12992e-23 -10.442 20.2455)
(-1.95973e-23 -9.68832 19.0125)
(-1.45599e-22 -9.0595 17.775)
(-1.90578e-22 -8.44999 16.5774)
(2.05408e-22 -7.88761 15.371)
(1.0362e-21 -7.28619 14.0566)
(4.07795e-22 -6.49195 12.3608)
(-7.25204e-21 -5.22066 9.86918)
(-3.04302e-20 -3.22756 6.12477)
(-6.24272e-20 -0.130062 1.01678)
(1.99558e-20 2.27019 -4.76506)
(3.16449e-19 3.7714 -5.02635)
(1.97998e-20 2.84407 -7.09228)