/*--------------------------------*- C++ -*----------------------------------*\
| =========                 |                                                 |
| \\      /  F ield         | OpenFOAM: The Open Source CFD Toolbox           |
|  \\    /   O peration     | Version:  4.1                                   |
|   \\  /    A nd           | Web:      www.OpenFOAM.org                      |
|    \\/     M anipulation  |                                                 |
\*---------------------------------------------------------------------------*/
FoamFile
{
    version     2.0;
    format      ascii;
    class       volScalarField;
    location    "18";
    object      p;
}
// * * * * * * * * * * * * * * * * * * * * * * * * * * * * * * * * * * * * * //

dimensions      [0 2 -2 0 0 0 0];

internalField   nonuniform List<scalar> 
1280
(
2.40708
4.98793
8.68121
10.3301
15.5824
16.4733
16.6455
16.9745
17.5331
19.4522
19.0161
18.9325
19.8252
18.2115
19.0458
18.8705
15.7372
16.5834
16.9698
6.48984
15.7293
35.3451
56.1802
62.2472
63.487
68.4321
46.7787
58.7565
58.8636
58.5272
57.718
56.5768
55.2142
54.0478
53.9536
55.0142
58.5283
61.7286
67.0563
63.8226
2.00625
43.2082
52.6835
55.3567
71.9622
71.5382
72.0189
73.6266
76.0983
76.0525
76.0069
76.1202
71.9983
69.8027
69.2336
69.9394
49.8632
46.8534
35.3754
-9.98436
58.3471
61.45
55.9106
52.6507
49.2008
48.3897
48.8359
50.3881
51.9088
53.1928
54.136
54.531
55.2397
42.0408
70.5903
64.6572
62.0645
53.7853
33.5329
16.9651
11.2005
20.3832
27.6609
31.6886
32.5368
36.601
37.6181
36.5605
35.11
35.7654
31.8337
29.2945
27.9392
21.3368
18.3432
17.4484
12.5916
1.63041
-2.66524
5.02091
0.135731
0.74394
1.42953
1.66364
0.65594
-0.213557
-0.830002
-1.86567
-2.72677
-4.23673
-8.29839
-5.0267
-4.88385
-2.8416
0.389953
3.46639
5.39211
4.53567
3.5534
0.316225
1.44719
1.40574
1.23555
0.457345
-0.190458
-1.0997
-3.25662
-5.3804
-12.3197
-15.9624
-9.80916
-4.98988
2.10506
10.1342
17.3063
17.568
14.0271
10.2073
0.5121
2.14075
2.44356
2.47671
1.15221
-0.257426
-2.0384
-5.72341
-9.71123
-21.3734
-19.8801
-11.9045
-4.75858
4.40704
14.7376
24.8184
26.2117
21.3578
15.9005
0.659827
2.51547
2.71817
2.65244
1.44951
-0.108534
-2.40104
-7.14178
-13.068
-28.3324
-24.1624
-14.6807
-5.2772
5.8177
18.709
32.2203
35.2752
29.2149
21.8682
0.789441
2.76512
3.03459
3.06024
2.00858
0.172507
-2.65069
-8.25439
-16.2572
-33.5071
-27.8947
-17.2539
-5.57467
7.53863
23.1292
40.2631
44.519
36.1075
25.374
0.857798
2.89561
3.22347
3.32814
2.5918
0.652041
-2.52787
-8.64455
-18.6
-36.3391
-30.0321
-18.9636
-5.64991
9.02504
26.9288
47.5717
52.7373
42.6972
21.483
0.872813
2.96695
3.40555
3.69988
3.32599
1.31823
-2.10515
-8.47231
-20.1169
-37.051
-30.7915
-19.9897
-5.74024
10.0514
29.99
54.2174
61.8647
47.5813
15.8397
0.728098
3.0716
3.57481
4.10509
4.15567
2.15336
-1.33777
-7.72119
-20.6279
-35.8272
-30.3441
-20.4009
-5.90897
10.6133
32.0401
57.4215
64.9461
52.2764
31.0901
0.534438
3.19773
3.8045
4.6249
5.14721
3.12702
-0.26705
-6.50644
-20.1591
-33.1596
-28.8874
-20.2611
-6.20031
10.4923
32.819
63.1645
64.2342
53.962
72.3952
0.310626
3.33094
4.20277
5.19554
6.43024
4.25762
1.0547
-4.92529
-18.7449
-29.4995
-26.6938
-19.6817
-6.66405
9.55775
31.1957
56.1013
55.9045
52.8696
77.1876
0.0525895
3.41444
4.66531
5.89535
8.05815
5.59028
2.52853
-3.1058
-16.5237
-25.261
-24.0168
-18.7261
-7.24018
7.81417
27.0702
45.2079
45.8347
48.3182
76.8467
-0.258338
3.35604
4.96626
6.83641
9.51865
7.04285
4.03232
-1.1757
-13.788
-20.9553
-21.1197
-17.4892
-7.83387
5.60879
22.3047
36.7357
37.9232
43.2069
75.2497
-0.616591
3.08032
4.98609
7.86946
10.2383
8.32439
5.42127
0.749598
-10.8667
-17.0968
-18.3834
-16.2153
-8.43864
3.16965
16.7465
23.4665
18.5281
26.4319
35.2423
-1.05092
2.51513
4.58702
8.56047
10.3819
8.94672
6.51512
2.61305
-7.7836
-13.7198
-15.9174
-15.0453
-9.03272
0.709191
10.9412
11.1309
11.4249
20.6864
27.8198
-1.50772
1.63554
3.85207
8.75376
10.1302
8.74799
7.1554
4.33194
-4.56475
-10.6143
-13.5666
-13.8032
-9.23728
-1.09926
6.16041
4.21716
11.8808
19.92
26.7261
-1.99445
0.43439
2.58436
8.44571
9.42345
7.92069
7.21497
5.4666
-1.727
-7.31852
-10.559
-11.7343
-8.51445
-2.03254
1.81642
-0.432562
5.83635
17.4009
23.5989
-2.68053
-1.03593
0.983276
7.96787
8.15597
6.56357
6.56409
5.67999
0.144564
-4.30821
-7.32573
-8.72635
-6.21847
-1.37545
-0.729852
3.77508
1.59579
15.3759
20.2914
-3.21948
-3.14325
-0.584805
6.12868
5.96774
4.74622
5.14167
5.01331
1.45916
-1.18199
-3.28027
-4.74009
-3.68753
-1.8345
-4.87646
1.95433
0.973546
11.8626
15.7285
-3.08372
-3.57417
-0.0137186
4.74162
3.56222
3.12687
3.29118
3.4938
1.26469
-0.600207
-1.97135
-2.43494
-0.844586
0.914183
-1.99028
-2.16533
1.25567
8.25123
10.9926
-2.09162
-3.02207
-2.17368
-0.212533
0.805691
1.23672
1.14138
1.39339
1.34143
1.77872
1.93295
1.03825
-1.01639
-3.90357
-2.50867
-5.98961
-4.2208
0.70606
4.33772
150.54
149.806
147.673
145.976
143.27
140.541
137.621
134.778
131.909
129.277
126.901
124.786
122.979
121.462
120.225
119.202
118.601
117.951
117.807
116.639
113.121
114.642
113.902
114.445
114.669
115.242
115.763
116.316
116.903
117.474
118.014
118.448
118.714
118.744
118.618
118.421
118.48
118.691
119.136
119.294
109.066
110.44
110.398
111.062
111.394
111.77
112.196
112.553
112.959
113.367
113.832
114.37
115.01
115.746
116.574
117.479
118.411
119.413
120.126
121.034
80.8932
83.4698
85.1466
86.9602
88.5274
89.8611
91.2577
92.4729
93.6788
94.7984
95.869
96.8999
97.9006
98.9045
99.9102
100.988
102.044
103.275
104.184
105.506
60.8114
63.2174
66.3073
68.95
71.4202
73.4228
75.5073
77.3761
79.2181
80.9548
82.6027
84.1644
85.6263
87.0105
88.2867
89.5234
90.6202
91.8106
92.6557
93.8528
39.8277
41.3015
43.6137
45.1857
47.0748
48.5065
50.2812
51.9227
53.7317
55.5926
57.5622
59.6425
61.8173
64.0899
66.3732
68.6944
70.8561
73.0897
74.8277
77.5232
27.4483
25.4368
24.6527
22.765
21.8576
20.1418
18.9756
17.3731
16.087
14.8488
13.9967
13.5665
13.7069
14.535
16.0953
18.4241
21.1169
24.1489
26.4051
30.0996
46.8766
41.0583
39.128
35.3273
32.7677
29.1116
26.1049
22.4627
19.1728
15.7352
12.5001
9.31176
6.3185
3.62376
1.47996
-0.102196
-1.00096
-1.03081
-0.990903
1.32086
97.4467
91.9034
89.8892
85.6774
83.1802
79.1993
76.1157
72.3067
69.0847
65.8262
63.1542
60.8307
59.0836
57.8334
57.1276
56.7486
56.3759
55.9324
54.3912
51.0119
138.217
137.384
137.866
136.97
137.632
136.881
137.121
136.334
135.731
134.346
132.503
129.753
126.088
121.522
116.579
111.95
108.4
106.787
106.435
102.955
118.597
120.181
121.436
121.718
123.455
123.83
125.353
126.146
127.337
128.238
129.154
129.908
130.473
130.668
130.32
129.316
128.083
126.886
126.803
126.368
104.867
106.683
108.811
108.958
111.428
111.851
113.66
114.55
115.757
116.669
117.478
118.149
118.766
119.458
120.385
121.598
123.015
124.504
125.625
126.719
77.8967
79.5081
82.411
82.337
85.5555
86.0442
88.44
89.7753
91.6172
93.2886
94.9898
96.6843
98.35
100.01
101.654
103.36
105.053
106.936
108.448
110.342
49.5907
49.7114
52.9128
51.8868
55.2664
55.0052
57.4385
58.3481
60.1616
61.7111
63.4601
65.2749
67.1751
69.1956
71.291
73.5302
75.7492
78.3069
80.4445
83.7632
28.3031
25.553
27.7823
24.7334
26.712
24.3421
25.0865
23.8095
23.663
22.9793
22.5945
22.2677
22.2741
22.8479
24.0968
25.9356
27.9033
30.295
32.0465
35.6013
46.259
41.1117
41.9972
36.855
37.2053
33.2715
32.2053
29.3774
27.4758
25.0191
22.7453
20.3548
18.1326
16.2168
14.7493
13.5557
12.639
12.2828
11.6935
13.3702
97.066
91.3003
93.007
85.5598
85.1671
79.9489
77.4499
73.6396
70.6128
67.4358
64.5893
61.9493
59.6847
57.7999
56.1739
54.5887
52.9217
50.9295
47.7936
45.6776
102.907
96.1716
104.701
98.0187
100.526
97.5635
96.8221
94.7519
93.02
90.9942
89.0242
87.103
85.4237
84.1099
83.1297
82.3615
81.8807
81.5045
80.8567
79.7032
106.677
84.7275
92.9936
82.2855
79.7968
73.4413
68.75
63.7167
59.3529
55.4366
52.2162
49.774
48.2616
47.8093
48.5699
50.3997
53.0701
57.3576
62.1134
63.5321
792.813
710.35
661.294
605.259
556.444
509.402
465.701
424.462
385.672
349.034
314.358
281.434
250.048
220.124
191.689
163.977
137.076
114.727
89.6376
54.7652
814.461
731.997
682.94
626.904
578.089
531.046
487.344
446.104
407.314
370.675
335.999
303.073
271.686
241.761
213.325
185.611
158.708
136.356
111.263
76.3955
128.308
106.359
114.625
103.916
101.427
95.0707
90.3785
85.3444
80.9795
77.0621
73.8405
71.3972
69.8834
69.4297
70.1888
72.0172
74.686
78.9747
83.7362
85.1565
124.548
117.814
126.345
119.664
122.173
119.212
118.472
116.403
114.673
112.649
110.681
108.763
107.086
105.774
104.795
104.029
103.55
103.176
102.532
101.382
118.771
113.007
114.716
107.271
106.881
101.666
99.1701
95.3632
92.3398
89.1662
86.3229
83.6856
81.4226
79.5377
77.9097
76.3233
74.6561
72.6627
69.5236
67.3964
67.9505
62.7991
63.6827
58.5373
58.8844
54.9474
53.8778
51.0462
49.1409
46.68
44.4023
42.0075
39.7813
37.862
36.3931
35.1987
34.2798
33.9202
33.3258
35.0002
49.9158
47.1597
49.3856
46.3337
48.3081
45.9349
46.6758
45.3953
45.2459
44.5592
44.1724
43.8444
43.8507
44.4254
45.6752
47.5129
49.4784
51.8667
53.6167
57.1722
71.1674
71.2838
74.4847
73.4572
76.8357
76.5731
79.0059
79.9143
81.7273
83.2762
85.0247
86.8389
88.7387
90.7586
92.8534
95.0921
97.3112
99.87
102.01
105.33
99.4691
101.08
103.984
103.911
107.131
107.621
110.018
111.355
113.198
114.871
116.573
118.269
119.936
121.597
123.242
124.95
126.645
128.529
130.043
131.938
126.453
128.268
130.397
130.543
133.013
133.435
135.243
136.133
137.339
138.253
139.065
139.742
140.366
141.069
142.007
143.227
144.647
146.136
147.258
148.355
140.192
141.784
143.047
143.336
145.081
145.465
146.997
147.804
149.007
149.923
150.852
151.616
152.186
152.378
152.021
151.003
149.759
148.564
148.488
148.061
159.947
159.131
159.621
158.736
159.405
158.66
158.904
158.118
157.513
156.123
154.271
151.51
147.833
143.259
138.312
133.683
130.133
128.519
128.169
124.699
119.351
113.817
111.809
107.606
105.115
101.142
98.0666
94.2666
91.0534
87.8036
85.139
82.8204
81.0741
79.8199
79.1037
78.7091
78.3252
77.8856
76.349
72.9541
68.7607
62.935
60.9991
57.1919
54.6234
50.9584
47.9394
44.2837
40.9772
37.5206
34.2656
31.0581
28.05
25.3467
23.1986
21.6195
20.7339
20.712
20.7504
23.0553
49.2771
47.245
46.4389
44.5313
43.6049
41.8708
40.6865
39.0667
37.7653
36.5148
35.6554
35.2233
35.367
36.2026
37.7708
40.1046
42.7971
45.8243
48.08
51.777
61.5535
63.0201
65.3144
66.8746
68.753
70.1761
71.943
73.5781
75.382
77.2392
79.2066
81.2861
83.4608
85.7339
88.0175
90.3388
92.5002
94.7357
96.4785
99.1769
82.8006
85.1877
88.2637
90.8928
93.3521
95.3462
97.422
99.2829
101.117
102.845
104.485
106.038
107.492
108.868
110.136
111.365
112.454
113.635
114.475
115.659
102.425
105.021
106.681
108.479
110.035
111.357
112.743
113.948
115.146
116.26
117.327
118.355
119.354
120.355
121.352
122.416
123.454
124.661
125.548
126.847
132.09
133.377
133.154
133.728
133.98
134.277
134.622
134.908
135.241
135.577
135.963
136.415
136.952
137.58
138.296
139.089
139.914
140.82
141.453
142.274
132.85
134.505
133.604
134.022
134.133
134.633
135.118
135.64
136.201
136.739
137.256
137.681
137.969
138.058
137.998
137.863
137.946
138.169
138.579
138.721
176.976
176.063
173.7
171.832
168.996
166.093
163.074
160.051
156.804
153.809
151.083
148.613
146.449
144.583
142.992
141.581
140.585
139.521
138.997
137.356
)
;

boundaryField
{
    outletWall
    {
        type            fixedValue;
        value           uniform 0;
    }
    fineWalls
    {
        type            zeroGradient;
    }
    fineFrontAndBack
    {
        type            zeroGradient;
    }
    fineplugLeft
    {
        type            cyclicAMI;
        value           nonuniform List<scalar> 
20
(
106.076
107.657
106.707
106.586
106.364
106.971
107.98
109.426
111.144
113.065
115.127
117.3
119.574
127.292
126.12
127.314
129.231
129.374
126.914
123.578
)
;
    }
    fineplugRight
    {
        type            cyclicAMI;
        value           nonuniform List<scalar> 
20
(
121.554
123.488
122.799
122.999
123.105
124.071
125.433
127.237
129.272
131.505
133.875
136.35
139.089
149.311
146.993
148.128
149.878
149.717
147.557
144.974
)
;
    }
    inletOutletLeft
    {
        type            cyclicAMI;
        value           nonuniform List<scalar> 
20
(
106.076
107.657
106.707
106.586
106.364
106.971
107.98
109.426
111.144
113.065
115.127
117.3
119.574
127.292
126.12
127.314
129.231
129.374
126.914
123.578
)
;
    }
    inletLeft
    {
        type            zeroGradient;
    }
    inletWallsLeft
    {
        type            zeroGradient;
    }
    inletFacesLeft
    {
        type            zeroGradient;
    }
    inletOutletRight
    {
        type            cyclicAMI;
        value           nonuniform List<scalar> 
20
(
121.554
123.488
122.799
122.999
123.105
124.071
125.433
127.237
129.272
131.505
133.875
136.35
139.089
149.311
146.993
148.128
149.878
149.717
147.557
144.974
)
;
    }
    inletRight
    {
        type            zeroGradient;
    }
    inletWallsRight
    {
        type            zeroGradient;
    }
    inletFacesRight
    {
        type            zeroGradient;
    }
}


// ************************************************************************* //
