/*--------------------------------*- C++ -*----------------------------------*\
| =========                 |                                                 |
| \\      /  F ield         | OpenFOAM: The Open Source CFD Toolbox           |
|  \\    /   O peration     | Version:  4.1                                   |
|   \\  /    A nd           | Web:      www.OpenFOAM.org                      |
|    \\/     M anipulation  |                                                 |
\*---------------------------------------------------------------------------*/
FoamFile
{
    version     2.0;
    format      ascii;
    class       surfaceScalarField;
    location    "18";
    object      phi;
}
// * * * * * * * * * * * * * * * * * * * * * * * * * * * * * * * * * * * * * //

dimensions      [0 3 -1 0 0 0 0];

internalField   nonuniform List<scalar> 
2360
(
-9660.82
-5347.28
-4313.54
-5347.28
-5347.28
-1307.07
-4040.21
-1307.07
-1307.07
-1307.07
2684.27
-3991.34
2684.27
2684.27
6489.95
-3805.68
6489.95
6489.95
9824.97
-3335.02
9824.97
9824.97
13582.9
-3757.9
13582.9
13582.9
14359.3
15976.8
17643.3
19148.2
20490.4
21720.8
16107.6
6775.64
17193.4
18195.4
19104.5
19911.4
20608.9
21203.8
21733.8
22265.7
22884.1
23647.8
24566
25541.8
26307.3
15574.7
10732.5
15574.7
15574.7
15574.7
5496.62
10078.1
5496.62
5496.62
5496.62
-376.324
5872.95
-376.321
-376.321
-7135.71
6759.39
-7135.71
-7135.71
-7135.71
-17436.5
10300.8
-17436.5
-17436.5
-17436.5
-27258.9
9822.4
-26471.9
-25487.2
-24567.4
-23805.8
-23187.7
-22649.3
-22104.3
-21485.8
-20764.1
-19938.8
-19017.3
-18008.5
-16920.5
-19255
3499.69
-18022.3
-16676.5
-15168.3
-13516
-11957.5
-11258.5
-11258.5
-11258.5
-4252.39
-7006.16
-4252.39
-4252.39
2224.8
-6477.19
2224.81
2224.81
7417.92
-5193.11
7417.92
7417.93
12282.8
-4864.84
12282.8
12282.8
12282.8
16727.4
-4444.66
16727.4
16727.4
21387.8
-4660.35
2316.28
-2985.73
1608.68
-5382.29
-454.203
-7590.39
-2655.38
-8760.94
-3425.18
-10611.7
-3314.02
-12906.1
-2762.58
-15378.7
-1899.37
-17862.5
-913.946
-18515.3
-196.733
-7438.16
-307.759
14633.9
-398.07
21107.3
104.15
26366.9
906.592
29361
1888.37
29495.9
3048.86
26456.4
3895.78
17398.3
4668.49
4372
-6863.66
2090.65
-2680.93
1202.72
-4494.35
-530.073
-5857.6
-2110.18
-7180.83
-2745.46
-9976.41
-2694.66
-12956.9
-2157.03
-15916.4
-1316.41
-18703.1
-558.199
-19273.5
-205.311
-7791.04
-462.386
14891
-637.716
21282.6
-144.745
25873.9
647.168
28569.1
1652.91
28490.2
2954.26
25155
4098.91
16253.7
4655.98
3814.94
-6652.35
1718.34
-2288.15
782.895
-3558.91
-693.106
-4381.59
-1921.44
-5952.5
-2442.71
-9455.14
-2363.89
-13035.7
-1862.1
-16418.1
-1160.99
-19404.2
-746.88
-19687.6
-813.872
-7724.05
-833.179
14910.3
-1002.87
21452.3
-548.934
25420
234.864
27785.3
1254.18
27470.8
2710.37
23698.9
4224.58
14739.4
5142.32
2897.21
-6374.87
1386.82
-1797.14
431.55
-2603.65
-773.605
-3176.44
-1707.74
-5018.36
-2138.55
-9024.32
-2047.11
-13127.2
-1635.83
-16829.4
-1156.24
-19883.8
-1118.71
-19725.1
-1655.06
-7187.69
-1445.35
14700.6
-1448.21
21455.2
-1082.94
25054.7
-326.794
27029.2
671.878
26472.2
2280.71
22090
4128.07
12892.1
5628.51
1396.77
-5939.48
967.191
-1181.12
43.1092
-1679.56
-831.919
-2301.41
-1504.66
-4345.62
-1891.42
-8637.56
-1826.16
-13192.4
-1558.33
-17097.3
-1370.99
-20071.1
-1762.58
-19333.5
-2664.94
-6285.33
-2227.98
14263.6
-2021.1
21248.3
-1742.38
24776
-1063.64
26350.5
-103.952
25512.5
1687.9
20298.2
4000.72
10579.3
6094.7
-697.214
-6321.97
613.377
-424.552
-208.177
-858.01
-809.028
-1700.56
-1341.37
-3813.28
-1708.33
-8270.61
-1688.44
-13212.3
-1608.06
-17177.6
-1755.68
-19923.5
-2585.11
-18504.1
-3752.2
-5118.24
-3174.39
13685.8
-2752.56
20826.5
-2506.25
24529.7
-1962.82
25807
-1043.33
24593
841.488
18413.4
4587.08
6833.67
7147.39
-3257.53
-6180.74
510.861
462.157
-152.597
-194.552
-660.235
-1192.92
-1163.19
-3310.32
-1558.51
-7875.29
-1627.83
-13143
-1784.5
-17021
-2295.36
-19412.6
-3548.91
-17250.6
-4895.65
-3771.5
-4251.59
13041.7
-3618.67
20193.6
-3344.92
24255.9
-2993.1
25455.2
-2215.33
23815.2
-396.792
16594.8
3694.78
2742.1
4640.44
-4203.19
1959.39
1234.19
1176.7
477.846
561.793
-287.463
-427.612
-928.293
-2669.49
-1433.1
-7370.49
-1644.18
-12931.9
-2075.87
-16589.3
-2963.91
-18524.6
-4599.33
-15615.1
-6025.12
-2345.71
-5347.2
12363.8
-4556.62
19403
-4245.7
23945
-4138.88
25348.4
-3437.19
23113.5
-722.64
13880.3
-212.149
2231.61
-4972.11
556.771
6809.68
2150.53
1751.92
1399.27
1313.06
392.08
579.575
-617.209
-1660.2
-1317.39
-6670.31
-1731.68
-12517.6
-2466.22
-15854.7
-3737.75
-17253.1
-5689.01
-13663.9
-7081.61
-953.113
-6385.96
11668.2
-5541.82
18558.9
-5230.21
23633.4
-5293.9
25412.1
-4958.85
22778.5
-5867.37
14788.8
-10401.2
6765.45
-13052.2
3207.74
4058.26
3039.9
2270.67
2308.47
2044.49
1189.49
1698.55
-262.052
-208.661
-1222.46
-5709.9
-1891.03
-11849
-2945.34
-14800.4
-4596.41
-15602
-6776.3
-11484
-8051.54
322.128
-7392.67
11009.3
-6602.98
17769.2
-6289.42
23319.8
-6416.84
25539.5
-6853.25
23214.9
-9424.78
17360.3
-12503.6
9844.26
-11413.2
2117.31
-595.513
3849.41
2759.68
3097.01
2796.89
1956.16
2839.4
100.962
1646.54
-1170.03
-4438.9
-2126.12
-10892.9
-3512.1
-13414.5
-5522.09
-13592
-7819.59
-9186.49
-8920.75
1423.29
-8380.61
10469.1
-7712.87
17101.4
-7359.66
22966.6
-7490.75
25670.6
-8474.7
24198.9
-10837.8
19723.4
-12055.2
11061.6
-10586.8
649.003
-5309.41
4493.31
3219.82
3727.24
3562.95
2536.9
4029.74
380.068
3803.37
-1184.26
-2874.58
-2436.68
-9640.52
-4172.03
-11679.1
-6500.9
-11263.1
-8774.08
-6913.32
-9618.93
2268.14
-9233.94
10084.1
-8722.46
16589.9
-8354.64
22598.8
-8564.87
25880.8
-10061.1
25695.1
-12800.7
22463
-14647.8
12908.7
-13845.8
-152.981
-9077.14
4887.19
3645.68
4138.39
4311.76
2856.46
5311.67
456.778
6203.06
-1264.38
-1153.42
-2804.87
-8100.02
-4924.38
-9559.62
-7526.08
-8661.44
-9649.92
-4789.47
-10178.9
2797.09
-9884.92
9790.19
-9535.74
16240.8
-9290.87
22353.9
-9773.53
26363.5
-11577.6
27499.2
-13345.4
24230.9
-11940.9
11504.2
-9693.13
-2400.74
-8037.76
5056.04
4041.61
4328.53
5039.26
2898.65
6741.55
370.343
8731.37
-1450.2
667.118
-3207.13
-6343.09
-5746.23
-7020.52
-8588.17
-5819.5
-10568.4
-2809.24
-10858
3086.7
-10570.2
9502.38
-10362.3
16032.9
-10413.7
22405.3
-11292.4
27242.2
-12789.8
28996.5
-11867.3
23308.4
-5657.76
5294.64
-1838.99
-6219.51
-3101.11
5046.1
4403.11
4312.31
5773.05
2623.92
8429.94
74.8004
11280.5
-1739.33
2481.24
-3620.72
-4461.7
-6560.79
-4080.45
-9589.43
-2790.87
-11560.7
-837.998
-11896.1
3422.09
-11705.9
9312.25
-11670.8
15997.7
-12059.5
22794.1
-13055.9
28238.6
-13333
29273.6
-9454.29
19429.7
-2874.21
-1285.44
1318.22
-10411.9
-5540.79
4931.92
4711.98
4081.69
6623.29
1880.56
10631.1
-588.768
13749.8
-2019.46
3911.93
-3998.56
-2482.59
-7165.22
-913.787
-10222.6
266.555
-12324.8
1264.16
-13085.3
4182.61
-13282.9
9509.81
-13522.1
16237
-14040.4
23312.3
-14442
28640.2
-12551.3
27382.8
-5470.11
12348.5
172.706
-6928.25
1664.34
-11903.6
-7211.48
4591.19
5026.46
3257.64
7956.84
415.377
13473.3
-1493.8
15659
-2240.82
4658.95
-4138.33
-585.077
-6985.07
1932.95
-9837.7
3119.19
-12290.4
3716.91
-13799.7
5691.83
-14640.7
10350.8
-15202.3
16798.5
-15508.7
23618.7
-14673.9
27805.5
-10570.3
23279.2
-2853.47
4631.67
1658.74
-11440.5
2915.12
-13160
-8102.05
3514.51
5698.48
1171.18
10300.2
-1734
16378.5
-2421.27
16346.3
-2363.01
4600.68
-3780.24
832.148
-5896.88
4049.59
-8495.67
5717.98
-11295.1
6516.38
-13448.6
7845.27
-14837.2
11739.4
-15620.6
17582
-15536.3
23534.3
-13354.7
25624
-7332.11
17256.6
-516.043
-2184.4
2288.56
-14245.1
3563.18
-14434.6
-8530.21
1040.8
7501.33
-2126.85
13467.8
-3738.75
17990.4
-2940.2
15547.7
-2292.12
3952.6
-3122.99
1663.02
-4466.81
5393.41
-6736.83
7987.99
-9818.37
9597.92
-12593.5
10620.4
-14410
13555.9
-15201.1
18373.1
-14519.5
22852.7
-11003.1
22107.6
-3806.25
10059.7
1405.34
-7395.99
2919.76
-15759.5
4027.44
-15542.2
-8542.97
-4744.06
-5726.37
-5016.31
-3203.59
-2262.8
-2520.73
-2955.02
-4104.96
-6354.08
-9054.02
-11161.3
-12044.7
-11135.9
-7565.13
-2218.89
1439.57
3283.78
4377.59
77.0148
-853.49
334.167
-1874.58
517.456
-1849.83
634.691
-1622.09
718.272
-1425.83
772.65
-1284.69
778.947
-1168.77
759.421
-1066.32
724.322
-966.871
679.953
-864.706
632.366
-759.357
586.271
-651.438
539.091
-547.693
480.953
-471.83
405.827
-456.821
316.743
-529.249
224.829
-671.827
141.403
-834.773
72.0156
-906.382
-693.455
-12.9258
-840.565
-5.87993
-1881.63
4.79797
-1860.51
16.8464
-1634.14
33.9807
-1442.96
50.5537
-1301.27
76.6125
-1194.83
111.775
-1101.48
159.843
-1014.94
225.091
-929.955
310.903
-845.168
419.339
-759.874
544.382
-672.736
662.883
-590.331
737.521
-531.459
728.254
-519.981
619.73
-563.303
424.472
-639.514
200.624
-682.534
-492.831
-135.955
-704.609
-145.794
-1871.79
-39.6903
-1966.61
72.2731
-1746.11
169.786
-1540.48
254.379
-1385.86
331.744
-1272.2
405.367
-1175.11
475.945
-1085.52
544.524
-998.533
612.495
-913.14
681.267
-828.647
752.568
-744.037
821.061
-658.824
866.409
-576.807
854.579
-508.152
757.894
-466.618
565.572
-447.193
304.772
-421.734
-188.059
-137.342
-567.269
-163.09
-1846.04
-79.7174
-2049.99
3.65962
-1829.48
75.1024
-1611.92
143.401
-1454.16
211.67
-1340.47
276.737
-1240.17
335.712
-1144.49
386.654
-1049.48
428.813
-955.3
462.781
-862.616
490.787
-772.044
514.939
-682.978
533.087
-594.956
531.983
-507.049
489.043
-423.679
379.706
-337.857
196.415
-238.444
8.35589
29.5601
-596.83
27.6003
-1844.09
75.9435
-2098.33
140.214
-1893.75
208.485
-1680.19
279.839
-1525.51
352.191
-1412.82
421.827
-1309.81
485.007
-1207.68
537.769
-1102.24
576.682
-994.215
599.072
-885.006
603.483
-776.455
589.976
-669.472
559.674
-564.656
511.468
-458.843
438.879
-351.091
327.546
-226.525
163.296
-74.1961
171.652
339.707
-936.537
466.237
-1970.62
480.476
-2112.57
495.163
-1908.44
543.033
-1728.06
611.951
-1594.43
691.473
-1492.34
770.115
-1388.45
840.824
-1278.39
896.462
-1157.88
933.065
-1030.82
947.461
-899.403
936.994
-765.99
898.751
-631.229
830.176
-496.081
729.048
-357.715
596.053
-218.097
423.962
-54.4344
214.877
134.888
386.529
510.365
-1446.9
682.758
-2143.01
630.544
-2060.36
589.579
-1867.48
615.433
-1753.92
675.784
-1654.78
754.431
-1570.99
830.657
-1464.68
893.796
-1341.53
933.747
-1197.83
949.451
-1046.52
939.469
-889.422
900.697
-727.218
827.245
-557.777
712.653
-381.49
551.584
-196.647
363.748
-30.2626
205.242
104.07
58.8865
281.242
445.415
332.572
-1779.48
301.864
-2112.3
159.53
-1918.03
68.3289
-1776.28
23.9319
-1709.52
-3.41211
-1627.44
-23.4994
-1550.91
-52.0447
-1436.13
-96.625
-1296.95
-159.303
-1135.15
-234.365
-971.46
-318.638
-805.151
-409.907
-635.951
-505.207
-462.479
-595.048
-291.65
-661.263
-130.434
-684.453
-7.07413
-637.631
57.2469
-433.977
77.5871
11.438
-19.4154
-1760.06
-176.375
-1955.34
-320.316
-1774.09
-451.68
-1644.91
-585.299
-1575.9
-727.515
-1485.23
-876.192
-1402.23
-1030.65
-1281.68
-1190.18
-1137.42
-1353.23
-972.106
-1518.44
-806.252
-1681
-642.595
-1830.09
-486.856
-1943.61
-348.963
-1983.66
-251.603
-1892.65
-221.445
-1628.1
-271.625
-1175.26
-395.588
-549.605
-548.072
-538.167
-174.15
-1585.91
-242.698
-1886.8
-314.535
-1702.25
-435.982
-1523.47
-574.806
-1437.08
-737.147
-1322.89
-908.632
-1230.74
-1076.36
-1113.95
-1223.19
-990.588
-1342.19
-853.1
-1431.58
-716.869
-1486.51
-587.663
-1496.65
-476.717
-1447.08
-398.527
-1323.54
-375.146
-1112.37
-432.612
-809.667
-574.331
-449.79
-755.466
-143.705
-854.156
-681.873
-38.0239
-1547.89
10.7563
-1935.58
50.7133
-1742.21
60.5548
-1533.31
63.4171
-1439.94
54.3631
-1313.83
40.1276
-1216.51
32.228
-1106.05
45.6237
-1003.98
92.2807
-899.758
174.579
-799.167
290.516
-703.601
432.004
-618.205
582.934
-549.459
714.35
-506.562
782.228
-500.491
737.356
-529.459
557.634
-575.744
279.824
-576.345
-402.049
59.3456
-1607.23
107.452
-1983.68
158.225
-1792.98
209.663
-1584.75
264.171
-1494.45
321.027
-1370.69
379.455
-1274.94
442.441
-1169.04
510.741
-1072.28
589.089
-978.105
677.661
-887.738
774.026
-799.965
869.855
-714.033
950.603
-630.206
993.856
-549.813
969.352
-475.986
853.075
-413.182
631.575
-354.243
331.17
-275.939
-70.8789
135.926
-1743.16
166.994
-2014.75
209.812
-1835.8
264.172
-1639.11
328.362
-1558.64
389.185
-1431.51
453.53
-1339.28
517.463
-1232.97
581.803
-1136.62
642.971
-1039.27
698.577
-943.344
745.184
-846.572
779.145
-747.994
795.505
-646.566
787.857
-542.164
744.573
-432.702
650.635
-319.244
487.012
-190.619
256.728
-45.6533
185.849
169.049
-1912.21
165.886
-2011.59
205.738
-1875.65
259.908
-1693.28
327.25
-1625.98
391.125
-1495.38
462.796
-1410.95
536.502
-1306.67
617.106
-1217.23
700.858
-1123.02
784.332
-1026.82
857.249
-919.488
905.306
-796.05
913.529
-654.788
875.102
-503.736
789.613
-347.212
657.106
-186.736
464.134
2.3544
236.216
182.267
422.065
127.276
-2039.48
87.7857
-1972.1
111.606
-1899.47
146.757
-1728.43
192.232
-1671.45
241.261
-1544.41
300.451
-1470.14
367.228
-1373.45
444.952
-1294.95
529.412
-1207.48
613.912
-1111.32
679.491
-985.066
700.064
-816.623
658.077
-612.8
567.576
-413.234
450.356
-229.991
317.793
-54.1713
210.554
109.596
79.6344
313.187
501.7
16.3116
-2055.79
-50.2764
-1905.51
-78.041
-1871.7
-99.7757
-1706.69
-120.673
-1650.56
-132.703
-1532.38
-142.627
-1460.22
-144.274
-1371.8
-140.808
-1298.41
-132.565
-1215.72
-126.939
-1116.94
-136.376
-975.627
-172.268
-780.729
-225.014
-560.05
-263.046
-375.198
-272.827
-220.205
-269.637
-57.3569
-280.436
120.398
-246.065
278.82
255.635
-66.7728
-1989.02
-158.007
-1814.27
-231.79
-1797.92
-298.221
-1640.26
-367.168
-1581.61
-425.168
-1474.38
-486.161
-1399.22
-542.228
-1315.73
-599.659
-1240.98
-655.028
-1160.35
-706.671
-1065.3
-743.703
-938.594
-748.106
-776.325
-705.497
-602.659
-627.767
-452.927
-536.845
-311.125
-463.422
-130.779
-396.217
53.194
-316.815
199.418
-61.18
-161.271
-1827.75
-355.214
-1620.33
-510.432
-1642.7
-634.938
-1515.75
-749.732
-1466.81
-840.492
-1383.62
-921.301
-1318.41
-988.21
-1248.82
-1045.21
-1183.98
-1087.53
-1118.03
-1104.41
-1048.42
-1073.88
-969.125
-973.066
-877.136
-801.934
-773.79
-592.982
-661.879
-366.877
-537.23
-117.462
-380.193
86.6302
-150.897
184.053
101.997
122.873
-183.167
-1644.58
-417.131
-1386.36
-664.595
-1395.24
-871.891
-1308.46
-1070.78
-1267.92
-1238.7
-1215.7
-1385.3
-1171.81
-1506.34
-1127.78
-1604.16
-1086.16
-1676.56
-1045.63
-1718.9
-1006.09
-1721.94
-966.079
-1675.91
-923.167
-1575.5
-874.203
-1420.9
-816.475
-1210.29
-747.839
-929.524
-660.96
-551.571
-528.849
-133.002
-316.571
-10.129
-669.579
-1080.94
-1501.18
-1834.63
-2127.56
-2368.26
-2565.07
-2717.85
-2829.02
-2899.64
-2930.73
-2921.81
-2869.97
-2769.18
-2610.65
-2383.49
-2069.45
-1623.3
-964.871
-669.595
1644.6
-1080.97
1386.38
-1501.22
1395.25
-1834.69
1308.47
-2127.63
1267.94
-2368.35
1215.72
-2565.18
1171.83
-2717.97
1127.79
-2829.14
1086.18
-2899.78
1045.64
-2930.88
1006.1
-2921.97
966.091
-2870.14
923.175
-2769.35
874.213
-2610.84
816.492
-2383.71
747.869
-2069.71
661.001
-1623.58
528.877
-965.081
316.498
9.91931
-183.148
1827.75
-417.078
1620.32
-664.509
1642.69
-871.761
1515.73
-1070.6
1466.79
-1238.46
1383.58
-1385
1318.37
-1505.97
1248.77
-1603.71
1183.92
-1676.02
1117.96
-1718.28
1048.35
-1721.26
969.079
-1675.22
877.142
-1574.88
773.875
-1420.44
662.052
-1210.06
537.487
-929.57
380.514
-551.853
151.163
-133.319
-102.027
-123.4
-161.193
1988.95
-355.071
1814.2
-510.218
1797.84
-634.654
1640.17
-749.377
1581.51
-840.069
1474.28
-920.81
1399.11
-987.653
1315.62
-1044.58
1240.86
-1086.83
1160.21
-1103.6
1065.13
-1072.94
938.421
-972.028
776.229
-800.914
602.764
-592.073
453.216
-366
311.418
-116.541
131.064
87.478
-52.8444
184.627
-199.164
61.2274
-66.8207
2055.77
-158.063
1905.45
-231.876
1871.66
-298.359
1706.66
-367.358
1650.52
-425.429
1532.35
-486.502
1460.19
-542.666
1371.78
-600.206
1298.4
-655.684
1215.69
-707.402
1116.85
-744.41
975.432
-748.63
780.453
-705.749
559.886
-627.747
375.218
-536.489
220.166
-462.682
57.2623
-395.229
-120.293
-315.86
-278.525
-254.633
16.1546
2039.62
-50.4889
1972.09
-78.3525
1899.52
-100.202
1728.51
-121.222
1671.54
-133.381
1544.52
-143.446
1470.26
-145.244
1373.59
-141.945
1295.1
-133.884
1207.64
-128.457
1111.43
-138.087
985.07
-174.086
816.461
-226.763
612.573
-264.608
413.076
-274.273
229.848
-271.251
54.2574
-281.876
-109.657
-246.955
-313.437
-501.587
127.193
1912.43
87.6153
2011.67
111.363
1875.78
146.444
1693.43
191.837
1626.15
240.795
1495.56
299.91
1411.15
366.619
1306.88
444.272
1217.45
528.651
1123.26
613.036
1027.05
678.435
919.672
698.757
796.141
656.569
654.763
566.038
503.609
448.905
346.984
316.756
186.409
209.975
-2.87166
79.2004
-182.66
-422.387
169.128
1743.31
165.893
2014.91
205.72
1835.95
259.881
1639.27
327.221
1558.81
391.099
1431.68
462.784
1339.46
536.513
1233.15
617.152
1136.82
700.95
1039.46
784.474
943.526
857.421
846.726
905.466
748.098
913.626
646.605
875.111
542.127
789.528
432.569
656.938
319.002
463.827
190.243
236.023
45.1491
-186.364
136.1
1607.2
167.105
1983.9
209.881
1793.17
264.221
1584.93
328.413
1494.62
389.221
1370.87
453.557
1275.13
517.473
1169.24
581.807
1072.48
642.97
978.3
698.572
887.923
745.158
800.139
779.054
714.202
795.3
630.358
787.503
549.924
744.08
475.992
650.093
412.988
486.547
353.791
256.443
275.256
70.0786
59.5943
1547.61
107.682
1935.82
158.45
1742.41
209.95
1533.44
264.549
1440.02
321.508
1313.92
380.057
1216.58
443.157
1106.14
511.519
1004.12
589.819
900.003
678.207
799.539
774.255
704.094
869.684
618.777
950.028
550.016
993.047
506.909
968.569
500.473
852.465
529.096
631.213
575.046
331.027
575.447
401.106
-37.626
1585.24
11.3317
1886.86
51.5388
1702.2
61.717
1523.26
64.9308
1436.81
56.2835
1322.56
42.4855
1230.38
35.037
1113.59
48.8554
990.305
95.8938
852.964
178.536
716.896
294.803
587.827
436.578
477.001
587.656
398.937
718.935
375.629
786.229
433.179
740.32
575.005
559.393
755.973
280.58
854.261
681.685
-174.143
1759.38
-242.227
1954.95
-313.706
1773.68
-434.868
1644.42
-573.416
1575.36
-735.484
1484.63
-906.669
1401.57
-1074.04
1280.96
-1220.4
1136.67
-1338.81
971.377
-1427.45
805.536
-1481.55
641.921
-1490.87
486.323
-1440.69
348.761
-1316.97
251.911
-1106.06
222.266
-804.017
272.964
-445.635
397.591
-141.828
550.452
539.858
-20.184
1779.56
-177.135
2111.89
-321.045
1917.59
-452.549
1775.92
-586.416
1709.22
-728.964
1627.18
-878.017
1550.61
-1032.84
1435.78
-1192.69
1296.51
-1355.99
1134.68
-1521.38
970.917
-1683.98
804.522
-1832.99
635.321
-1946.2
461.977
-1985.69
291.39
-1894.03
130.603
-1628.77
7.70284
-1174.83
-56.3524
-548.699
-75.6837
-8.84183
332.121
1447.44
301.047
2142.96
158.492
2060.14
67.0192
1867.39
22.2939
1753.94
-5.4111
1654.88
-25.9018
1571.1
-54.8651
1464.74
-99.8423
1341.49
-162.844
1197.68
-238.215
1046.28
-322.813
889.117
-414.339
726.842
-509.755
557.389
-599.544
381.174
-665.733
196.786
-688.992
30.9558
-641.331
-104.018
-435.917
-281.103
-444.759
511.347
936.085
684.292
1970.02
631.964
2112.47
590.713
1908.64
616.357
1728.29
676.568
1594.66
755.096
1492.57
831.163
1388.67
894.077
1278.57
933.733
1158.02
949.103
1030.91
938.768
899.447
899.616
765.99
825.817
631.184
710.999
495.987
550.177
357.602
363.187
217.937
204.85
54.3083
58.6363
-134.9
-386.122
342.084
593.997
469.678
1842.42
483.868
2098.27
498.358
1894.14
546.189
1680.46
615.113
1525.74
694.64
1413.04
773.252
1310.05
843.885
1207.93
899.388
1102.51
935.808
994.486
950.002
885.251
939.319
776.67
900.838
669.661
832.02
564.802
730.667
458.952
597.43
351.17
425.052
226.681
215.748
74.3976
-170.374
32.6992
561.29
31.6079
1843.51
79.3855
2050.49
142.819
1830.7
210.65
1612.62
281.974
1454.41
354.446
1340.56
424.215
1240.28
487.522
1144.62
540.424
1049.6
579.517
955.389
602.069
862.694
606.6
772.135
593.169
683.088
562.778
595.189
514.272
507.454
441.254
424.185
329.446
338.485
164.407
239.429
-5.96796
-131.994
693.281
-157.096
1868.61
-72.1673
1965.56
12.4672
1746.07
83.7378
1541.35
151.103
1387.04
218.395
1273.27
282.487
1176.18
340.429
1086.68
390.175
999.851
430.823
914.739
462.908
830.606
488.818
746.223
510.659
661.244
526.689
579.156
524.47
509.671
482.036
466.617
374.669
445.851
193.609
420.486
187.641
-124.884
818.162
-132.231
1875.95
-34.0357
1867.36
74.3808
1637.65
172.592
1443.14
257.811
1301.82
334.315
1196.76
406.396
1104.1
474.943
1018.13
541.16
933.631
606.753
849.144
673.646
763.71
742.044
677.823
807.095
596.191
850.941
535.309
841.071
519.54
748.994
558.694
561.998
632.846
304.761
677.722
492.402
26.3043
791.856
55.0619
1847.19
62.0282
1860.4
62.0258
1637.65
69.4355
1435.73
80.2313
1291.02
103.405
1173.59
135.645
1071.86
179.652
974.119
239.173
874.108
317.348
770.967
416.177
664.879
532.827
561.172
648.612
480.405
726.022
457.898
723.168
522.393
620.931
660.931
428.725
825.053
204.527
901.921
696.929
92.8602
381.578
589.699
719.124
809.046
867.359
875.815
859.645
824.942
777.517
723.214
666.349
609.042
544.476
463.957
368.293
267.571
172.834
90.0688
)
;

boundaryField
{
    outletWall
    {
        type            calculated;
        value           nonuniform List<scalar> 
60
(
21387.8
6871.8
-5144.72
-18245.2
-27616.9
-30477.7
-30163.5
-26869.1
-21017
-14522.9
6720.94
17529.9
16999.3
14827.3
12794.9
11381.5
10962.1
9653.27
6089.9
3154.09
3751.1
-2843.66
-4186.52
-4905.68
-5240.79
-5407.6
-5451.97
-5313.06
-4953.45
-4338.41
-3558.65
-2725.75
-1948.74
-1397.57
-1369.95
-1583.21
-1877.83
-2111.11
-2395.45
-2484.65
9660.82
-8478.92
-16636.1
-17603.7
-11054.4
4713.49
18536.8
21943.9
19256.5
15663.2
13320.4
11847
9137.93
5827.7
1920.95
3011.81
13735
17280.4
14450.1
8494.3
)
;
    }
    fineWalls
    {
        type            calculated;
        value           uniform 0;
    }
    fineFrontAndBack
    {
        type            calculated;
        value           nonuniform List<scalar> 
960
(
-9.01712e-13
-6.99329e-12
-1.63264e-12
-2.17476e-12
-4.38295e-12
6.28526e-12
1.33947e-11
1.29759e-11
-7.68022e-12
-7.98301e-12
-7.84772e-12
-1.23293e-11
1.81852e-12
2.03525e-12
1.61892e-11
3.44054e-12
2.86907e-12
8.06704e-12
9.6199e-13
5.24967e-13
1.25265e-13
-3.58516e-13
-5.46459e-13
-6.49205e-13
-6.99009e-13
-7.14105e-13
-7.05035e-12
-4.34247e-13
-2.95773e-13
-8.69767e-14
1.37048e-13
3.41525e-13
5.00494e-13
5.58605e-13
5.24817e-13
3.54448e-13
1.25007e-13
-3.91286e-14
-1.89941e-13
-4.10117e-13
-5.60273e-12
-1.10427e-12
-1.87002e-12
-2.45917e-12
7.82846e-12
3.76459e-12
4.1169e-12
1.4797e-12
9.00376e-11
2.92593e-11
2.0506e-12
1.29524e-11
2.56193e-12
3.45629e-12
3.7989e-12
2.71469e-11
4.07972e-12
2.78189e-12
2.17635e-12
1.19808e-11
6.55648e-13
4.2564e-13
3.12545e-13
2.03845e-13
6.43125e-14
-4.35105e-14
-8.30451e-14
-7.54751e-14
3.1693e-15
1.68956e-13
3.46202e-13
4.68793e-13
5.58712e-13
8.28282e-12
7.53062e-13
7.48197e-13
8.03569e-13
8.05957e-13
7.21993e-13
3.4012e-13
2.66794e-12
2.20252e-12
1.23117e-11
3.25119e-12
3.54402e-12
2.98293e-11
1.19357e-11
2.04855e-11
7.57538e-11
6.97121e-12
3.47285e-12
2.47453e-11
7.52053e-12
7.93727e-12
8.32905e-12
3.86219e-11
6.90836e-12
6.53392e-12
2.75594e-11
4.41551e-12
-1.56565e-11
-1.36106e-11
-5.44702e-12
-1.32758e-11
-1.84426e-11
-2.23693e-11
-2.41329e-11
-2.3342e-11
-2.03987e-11
-1.58611e-11
-1.40573e-11
-1.08693e-11
-1.48979e-11
-2.35256e-11
-3.2125e-11
-2.58203e-11
-1.43007e-11
-3.6321e-12
-1.4652e-11
-1.37539e-11
-8.1251e-12
8.93588e-13
-1.4745e-11
-1.90907e-11
-2.07739e-11
-2.1998e-11
-2.12718e-11
-1.79065e-11
-1.25224e-11
-1.38928e-11
-1.08665e-11
-1.49506e-11
-2.34937e-11
-3.20596e-11
-2.62521e-11
-1.54519e-11
-4.35566e-12
-2.21679e-11
-8.47909e-12
-2.18817e-12
2.77779e-12
-1.4423e-11
-1.68364e-11
-1.81205e-11
-2.00813e-11
-2.00951e-11
-1.64893e-11
-1.04911e-11
-1.28428e-11
-1.09439e-11
-1.50947e-11
-2.35356e-11
-3.20263e-11
-2.66882e-11
-1.68203e-11
-5.84711e-12
-2.17409e-11
-2.03838e-12
3.59936e-12
4.07603e-12
-1.39354e-11
-1.54256e-11
-1.65884e-11
-1.91981e-11
-1.93962e-11
-1.49067e-11
-8.341e-12
-1.12124e-11
-1.12748e-11
-1.53649e-11
-2.37341e-11
-3.20494e-11
-2.6982e-11
-1.80636e-11
-7.57764e-12
-2.55702e-11
4.43196e-12
8.24224e-12
4.37518e-12
-1.28093e-11
-1.41094e-11
-1.5258e-11
-1.85506e-11
-1.85895e-11
-1.30092e-11
-6.47634e-12
-9.91479e-12
-1.1763e-11
-1.57832e-11
-2.41854e-11
-3.21162e-11
-2.70215e-11
-1.90282e-11
-1.11448e-11
-1.80428e-11
9.09134e-12
1.08599e-11
5.03877e-12
-1.06655e-11
-1.29117e-11
-1.40212e-11
-1.81023e-11
-1.77781e-11
-1.11434e-11
-5.35487e-12
-9.17549e-12
-1.20699e-11
-1.63676e-11
-2.49495e-11
-3.21857e-11
-2.68521e-11
-1.92009e-11
-1.53509e-11
-3.76069e-12
1.15064e-11
1.19528e-11
7.75764e-12
-6.85101e-12
-1.15965e-11
-1.27452e-11
-1.76185e-11
-1.67749e-11
-9.38067e-12
-5.07577e-12
-9.14783e-12
-1.24505e-11
-1.72152e-11
-2.59978e-11
-3.19376e-11
-2.61505e-11
-2.2167e-11
1.33219e-11
1.95516e-11
1.23552e-11
1.22053e-11
1.20523e-11
-1.31203e-12
-1.05226e-11
-1.2069e-11
-1.70814e-11
-1.54904e-11
-7.7808e-12
-5.52737e-12
-9.52002e-12
-1.28533e-11
-1.88213e-11
-2.75165e-11
-3.22191e-11
-2.66556e-11
-1.46139e-11
5.51552e-11
2.94707e-11
1.19053e-11
1.16856e-11
1.3214e-11
4.49267e-12
-1.02083e-11
-1.26008e-11
-1.63064e-11
-1.39054e-11
-6.30628e-12
-6.31615e-12
-1.63494e-11
-1.89014e-11
-2.05082e-11
-2.84336e-11
-2.96536e-11
-1.58587e-11
3.7723e-11
6.09177e-11
5.04146e-11
1.06491e-11
1.05193e-11
1.27916e-11
8.29911e-12
-1.04293e-11
-1.40211e-11
-1.51156e-11
-1.20955e-11
-5.27993e-12
-1.56692e-12
-6.33955e-12
-1.02846e-11
-2.45469e-11
-3.26733e-11
-3.92542e-11
-3.33513e-12
3.3435e-11
3.51184e-11
3.03241e-11
9.04189e-12
8.97737e-12
1.15792e-11
9.62211e-12
-1.04095e-11
-1.5462e-11
-1.47515e-11
-9.94638e-12
-5.30909e-12
-3.78939e-12
-3.34615e-12
-1.20804e-11
-3.08619e-11
-3.6108e-11
-3.69646e-11
9.02538e-12
6.94194e-11
1.24508e-10
1.42706e-10
7.73839e-12
7.58525e-12
1.02878e-11
9.05593e-12
-1.04859e-11
-1.63813e-11
-1.5855e-11
-7.73803e-12
-5.67266e-12
-1.20629e-11
-1.42568e-11
-2.22257e-11
-3.49609e-11
-3.58499e-11
-2.54696e-11
2.07049e-11
4.58153e-11
-1.22603e-13
-6.00319e-12
6.93277e-12
6.63599e-12
9.36915e-12
7.74635e-12
-1.16979e-11
-1.65054e-11
-1.32528e-11
-5.63175e-12
-5.09015e-12
-1.61096e-11
-2.22889e-11
-2.79294e-11
-3.38652e-11
-3.12099e-11
-1.38598e-11
1.93468e-11
1.13438e-11
-2.66624e-11
-1.20158e-11
6.38546e-12
6.05367e-12
9.01326e-12
6.02704e-12
-1.38164e-11
-1.70647e-11
-1.14984e-11
-3.11904e-12
-2.95934e-12
-1.40084e-11
-2.16439e-11
-2.66784e-11
-2.94061e-11
-2.47369e-11
-6.81999e-12
1.12356e-11
-3.91955e-12
-1.49034e-11
-7.32564e-12
5.84012e-12
5.74392e-12
9.21122e-12
2.9541e-12
-1.64585e-11
-1.70353e-11
-9.34872e-12
-2.87901e-13
4.31423e-13
-8.69284e-12
-1.65437e-11
-2.18771e-11
-2.36222e-11
-1.7919e-11
-3.37717e-12
3.21824e-12
-1.36001e-11
-1.84657e-11
-2.63175e-11
5.16668e-12
5.73505e-12
8.90213e-12
-2.98296e-12
-1.76428e-11
-1.66203e-11
-7.37115e-12
2.45032e-12
4.62664e-12
-1.63093e-12
-8.9516e-12
-1.42408e-11
-1.54171e-11
-1.00002e-11
-1.07557e-12
-3.20266e-12
-1.90621e-11
-1.73805e-11
-1.99382e-11
4.35434e-12
5.44105e-12
5.12821e-12
-9.78036e-12
-1.68839e-11
-1.5999e-11
-6.68839e-12
2.58104e-12
7.05885e-12
4.89185e-12
1.16913e-13
-3.90405e-12
-4.73244e-12
-1.57502e-12
5.25141e-13
-7.25168e-12
-1.59467e-11
-1.79002e-11
-1.72829e-11
3.24186e-12
2.74628e-12
-2.49919e-12
-1.26882e-11
-1.5296e-11
-1.59403e-11
-8.90991e-12
-1.26156e-12
5.61845e-12
7.95301e-12
7.08385e-12
5.43957e-12
4.79952e-12
4.71172e-12
4.13423e-13
-1.14709e-11
-1.47969e-11
-1.74169e-11
-1.63525e-11
4.25129e-13
-2.8432e-12
-6.43568e-12
-1.02199e-11
-1.467e-11
-1.63321e-11
-1.17237e-11
-6.15341e-12
1.63325e-12
7.71248e-12
1.08491e-11
1.18844e-11
1.128e-11
7.85303e-12
-6.92971e-13
-1.00069e-11
-1.51506e-11
-1.75443e-11
-1.68173e-11
6.07548e-12
2.40855e-12
-5.41262e-13
-7.00864e-12
-1.74163e-11
-1.66388e-11
-1.39714e-11
-1.17708e-11
-6.95595e-12
-8.03582e-13
4.94799e-12
9.24693e-12
1.06527e-11
7.06981e-12
-1.42522e-12
-6.43108e-12
-1.51463e-11
-1.76959e-11
-1.65346e-11
9.01712e-13
6.99329e-12
1.63264e-12
2.17476e-12
4.38295e-12
-6.28526e-12
-1.33947e-11
-1.29759e-11
7.68022e-12
7.98301e-12
7.84772e-12
1.23293e-11
-1.81852e-12
-2.03525e-12
-1.61892e-11
-3.44054e-12
-2.86907e-12
-8.06704e-12
-9.6199e-13
-5.24967e-13
-1.25265e-13
3.58516e-13
5.46459e-13
6.49205e-13
6.99009e-13
7.14105e-13
7.05035e-12
4.34247e-13
2.95773e-13
8.69767e-14
-1.37048e-13
-3.41525e-13
-5.00494e-13
-5.58605e-13
-5.24817e-13
-3.54448e-13
-1.25007e-13
3.91286e-14
1.89941e-13
4.10117e-13
5.60273e-12
1.10427e-12
1.87002e-12
2.45917e-12
-7.82846e-12
-3.76459e-12
-4.1169e-12
-1.4797e-12
-9.00376e-11
-2.92593e-11
-2.0506e-12
-1.29524e-11
-2.56193e-12
-3.45629e-12
-3.7989e-12
-2.71469e-11
-4.07972e-12
-2.78189e-12
-2.17635e-12
-1.19808e-11
-6.55648e-13
-4.2564e-13
-3.12545e-13
-2.03845e-13
-6.43125e-14
4.35105e-14
8.30451e-14
7.54751e-14
-3.1693e-15
-1.68956e-13
-3.46202e-13
-4.68793e-13
-5.58712e-13
-8.28282e-12
-7.53062e-13
-7.48197e-13
-8.03569e-13
-8.05957e-13
-7.21993e-13
-3.4012e-13
-2.66794e-12
-2.20252e-12
-1.23117e-11
-3.25119e-12
-3.54402e-12
-2.98293e-11
-1.19357e-11
-2.04855e-11
-7.57538e-11
-6.97121e-12
-3.47285e-12
-2.47453e-11
-7.52053e-12
-7.93727e-12
-8.32905e-12
-3.86219e-11
-6.90836e-12
-6.53392e-12
-2.75594e-11
-4.41551e-12
1.56565e-11
1.36106e-11
5.44702e-12
1.32758e-11
1.84426e-11
2.23693e-11
2.41329e-11
2.3342e-11
2.03987e-11
1.58611e-11
1.40573e-11
1.08693e-11
1.48979e-11
2.35256e-11
3.2125e-11
2.58203e-11
1.43007e-11
3.6321e-12
1.4652e-11
1.37539e-11
8.1251e-12
-8.93588e-13
1.4745e-11
1.90907e-11
2.07739e-11
2.1998e-11
2.12718e-11
1.79065e-11
1.25224e-11
1.38928e-11
1.08665e-11
1.49506e-11
2.34937e-11
3.20596e-11
2.62521e-11
1.54519e-11
4.35566e-12
2.21679e-11
8.47909e-12
2.18817e-12
-2.77779e-12
1.4423e-11
1.68364e-11
1.81205e-11
2.00813e-11
2.00951e-11
1.64893e-11
1.04911e-11
1.28428e-11
1.09439e-11
1.50947e-11
2.35356e-11
3.20263e-11
2.66882e-11
1.68203e-11
5.84711e-12
2.17409e-11
2.03838e-12
-3.59936e-12
-4.07603e-12
1.39354e-11
1.54256e-11
1.65884e-11
1.91981e-11
1.93962e-11
1.49067e-11
8.341e-12
1.12124e-11
1.12748e-11
1.53649e-11
2.37341e-11
3.20494e-11
2.6982e-11
1.80636e-11
7.57764e-12
2.55702e-11
-4.43196e-12
-8.24224e-12
-4.37518e-12
1.28093e-11
1.41094e-11
1.5258e-11
1.85506e-11
1.85895e-11
1.30092e-11
6.47634e-12
9.91479e-12
1.1763e-11
1.57832e-11
2.41854e-11
3.21162e-11
2.70215e-11
1.90282e-11
1.11448e-11
1.80428e-11
-9.09134e-12
-1.08599e-11
-5.03877e-12
1.06655e-11
1.29117e-11