/*--------------------------------*- C++ -*----------------------------------*\
| =========                 |                                                 |
| \\      /  F ield         | OpenFOAM: The Open Source CFD Toolbox           |
|  \\    /   O peration     | Version:  4.1                                   |
|   \\  /    A nd           | Web:      www.OpenFOAM.org                      |
|    \\/     M anipulation  |                                                 |
\*---------------------------------------------------------------------------*/
FoamFile
{
    version     2.0;
    format      ascii;
    class       volVectorField;
    location    "18";
    object      U;
}
// * * * * * * * * * * * * * * * * * * * * * * * * * * * * * * * * * * * * * //

dimensions      [0 1 -1 0 0 0 0];

internalField   nonuniform List<vector> 
1280
(
(-6.51643e-16 -3.17862 -3.39047)
(-1.18858e-15 -1.8855 -3.2867)
(-1.17986e-15 -2.29601 -2.51475)
(-1.57164e-15 -1.56566 -2.71302)
(-7.44925e-16 -0.999969 -3.2988)
(4.5422e-15 -0.897232 -2.00568)
(9.68002e-15 -0.388649 -2.25543)
(1.00548e-14 -0.209584 -2.37216)
(-2.02637e-15 0.756179 -3.37955)
(-6.01428e-15 0.705425 -2.5516)
(-5.91651e-15 1.11119 -2.31736)
(-1.23702e-15 1.91532 -3.34817)
(1.4215e-15 1.88466 -2.50501)
(1.57813e-15 2.34001 -2.26348)
(3.61593e-15 3.10352 -3.21827)
(2.48639e-15 2.86689 -2.44131)
(2.0734e-15 3.44169 -2.14811)
(1.37107e-15 3.89541 -3.46551)
(6.95205e-16 4.32632 -2.02703)
(3.82667e-16 3.78953 -3.99328)
(5.13907e-16 4.38833 -0.0134276)
(-1.47084e-15 4.67727 5.48357)
(-2.24188e-15 4.48752 7.9944)
(-2.6634e-15 4.9096 8.7129)
(-2.86773e-15 5.14566 8.75063)
(-2.92966e-15 5.51716 9.57657)
(-1.48624e-15 4.35335 7.95852)
(-1.78153e-15 8.03192 14.034)
(-1.21343e-15 8.20209 14.7139)
(-3.56827e-16 8.24341 15.0316)
(5.62249e-16 8.19955 14.9548)
(1.40113e-15 8.08767 14.5401)
(2.05331e-15 7.94348 13.9504)
(2.29171e-15 7.79043 13.4234)
(2.15309e-15 7.66619 13.0564)
(1.45415e-15 7.53096 12.8639)
(5.1285e-16 7.54188 12.8083)
(-1.60528e-16 7.42733 12.7643)
(-7.79246e-16 7.73704 12.7046)
(-1.68253e-15 7.57103 10.9038)
(-9.75236e-16 10.7382 10.6104)
(-8.86967e-16 6.12206 6.868)
(-1.50202e-15 5.22247 6.62439)
(-1.79006e-15 4.57029 6.46749)
(2.10339e-15 3.7531 7.1499)
(3.02377e-15 2.19255 4.53913)
(3.30674e-15 1.80174 4.36078)
(1.18851e-15 1.27993 4.35687)
(1.71537e-14 0.415666 3.23327)
(2.15232e-14 -0.0699146 0.722836)
(1.64707e-15 -0.246728 1.8538)
(2.25456e-15 -0.814387 4.36417)
(2.05778e-15 -1.73057 4.93789)
(2.77614e-15 -2.3621 4.83637)
(3.05133e-15 -2.76017 4.97)
(4.72531e-15 -4.47788 7.52814)
(3.35959e-15 -5.1552 6.55051)
(2.23445e-15 -5.84794 6.7447)
(1.74807e-15 -6.77943 6.99022)
(1.96555e-15 -11.4068 10.6343)
(2.68984e-15 -7.89736 10.8531)
(1.74622e-15 -8.05527 12.5119)
(1.28224e-15 -7.7462 12.4494)
(8.36285e-16 -7.85876 12.3757)
(2.63846e-16 -7.83654 12.3265)
(-1.78505e-16 -7.96109 12.4357)
(-3.40698e-16 -8.06299 12.7659)
(-3.09641e-16 -8.19766 13.302)
(1.30022e-17 -8.31457 13.8336)
(6.93152e-16 -8.38464 14.1099)
(1.42032e-15 -8.38881 14.0378)
(1.92326e-15 -8.30562 13.5468)
(2.29215e-15 -8.03859 12.6963)
(1.74605e-15 -3.60487 5.5017)
(3.08949e-15 -5.03467 8.04967)
(3.06953e-15 -4.55694 6.94769)
(3.29669e-15 -4.33671 6.81246)
(3.30649e-15 -3.90307 5.82114)
(2.96202e-15 -4.10868 2.8656)
(1.39536e-15 -3.76791 -2.97396)
(1.92805e-15 -3.18382 -6.41568)
(1.5917e-15 -3.23959 -4.50741)
(2.09249e-15 -1.72856 -6.40539)
(2.34955e-15 -1.92362 -4.44035)
(2.56117e-15 -0.810987 -4.56889)
(5.96369e-15 0.166044 -5.60278)
(9.33703e-15 0.307499 -3.92577)
(1.55157e-14 1.03875 -3.42048)
(1.36776e-14 2.11423 -4.13294)
(4.83729e-15 2.04184 -3.11397)
(2.50973e-15 2.58296 -3.12047)
(4.56521e-15 3.90909 -4.15791)
(5.55471e-15 3.4788 -2.99576)
(5.73606e-15 4.26798 -2.97192)
(6.01919e-15 4.37468 -2.75315)
(6.56417e-15 5.90309 -3.76674)
(4.99249e-15 5.22029 -2.73883)
(4.72189e-15 5.96495 -2.48298)
(4.69681e-15 6.30525 -3.37959)
(3.19097e-15 7.0093 -3.54319)
(-1.73961e-15 1.04801 -2.06547)
(-1.51229e-15 2.00055 -1.7986)
(-6.05225e-16 3.13328 -0.88804)
(-1.47508e-15 3.56102 1.63816)
(-2.04918e-15 3.76461 2.80116)
(-2.48547e-15 4.27452 2.90771)
(-2.68143e-15 4.96583 2.61068)
(-2.59356e-15 5.70264 1.99771)
(-2.26652e-15 5.88748 1.16403)
(-1.76235e-15 2.24215 0.327466)
(-1.56193e-15 -4.7515 0.0594528)
(-1.2077e-15 -6.97124 0.413465)
(-1.65532e-15 -8.90359 0.263747)
(-2.61395e-15 -10.0034 -0.439375)
(-3.56944e-15 -10.1172 -1.07414)
(-2.86893e-15 -9.17059 -2.07506)
(-1.58897e-15 -6.07128 -3.01183)
(-4.03567e-16 -1.70451 -3.47332)
(-1.628e-15 2.28184 -4.36823)
(-1.52821e-15 0.946926 -1.98819)
(-9.02788e-16 1.62179 -1.52323)
(9.92875e-17 2.05987 -0.460509)
(-1.63833e-15 2.43249 1.33833)
(-2.12119e-15 3.36363 2.18664)
(-2.30822e-15 4.32081 2.38574)
(-2.44423e-15 5.25274 2.09805)
(-2.36354e-15 6.15547 1.50618)
(-1.98961e-15 6.39293 0.662384)
(-1.39138e-15 2.66849 0.323407)
(-1.54365e-15 -5.02582 0.0594402)
(-1.20739e-15 -7.10586 0.620737)
(-1.66117e-15 -8.72809 0.462803)
(-2.61041e-15 -9.65336 -0.229049)
(-3.56218e-15 -9.64259 -0.855676)
(-2.9169e-15 -8.57038 -1.92406)
(-1.71687e-15 -5.58771 -2.99007)
(-4.83963e-16 -1.28542 -3.82055)
(-2.4631e-15 2.28341 -3.8111)
(-9.42121e-16 0.838041 -1.74809)
(-2.4313e-16 1.36159 -1.1521)
(3.08644e-16 1.77134 -0.126103)
(-1.60255e-15 2.26589 1.26657)
(-1.87071e-15 3.2593 1.95407)
(-2.01339e-15 4.32467 2.11465)
(-2.23126e-15 5.37947 1.81412)
(-2.23279e-15 6.34611 1.30121)
(-1.83214e-15 6.49905 0.596955)
(-1.16568e-15 2.59505 0.816573)
(-1.42698e-15 -4.98696 0.45154)
(-1.21599e-15 -7.13274 0.876157)
(-1.67719e-15 -8.53501 0.812997)
(-2.61507e-15 -9.37648 0.0964084)
(-3.55848e-15 -9.3075 -0.492407)
(-2.96536e-15 -8.13459 -1.63472)
(-1.86892e-15 -5.19006 -2.87916)
(-6.49678e-16 -1.16363 -4.12813)
(-2.41565e-15 2.18581 -4.22299)
(-2.26487e-16 0.689114 -1.55318)
(3.99929e-16 1.02501 -0.809996)
(4.52892e-16 1.19546 0.134447)
(-1.54838e-15 1.75621 1.14185)
(-1.71396e-15 3.06223 1.71881)
(-1.84316e-15 4.36512 1.84313)
(-2.13312e-15 5.55896 1.55698)
(-2.15514e-15 6.58052 1.17995)
(-1.6563e-15 6.6187 0.708855)
(-9.26778e-16 2.53822 1.39036)
(-1.24582e-15 -4.93687 1.2084)
(-1.25276e-15 -7.16119 1.15229)
(-1.70721e-15 -8.4024 1.27473)
(-2.63712e-15 -9.13618 0.528816)
(-3.56105e-15 -8.99668 0.0122846)
(-2.998e-15 -7.65684 -1.18413)
(-2.00707e-15 -4.63966 -2.62504)
(-8.4196e-16 -0.822429 -4.20794)
(-2.84114e-15 1.99699 -4.92355)
(4.9244e-16 0.506525 -1.30814)
(9.15805e-16 0.713142 -0.374401)
(4.86131e-16 0.913101 0.370051)
(-1.42326e-15 1.57367 1.00211)
(-1.56772e-15 2.94905 1.5169)
(-1.69534e-15 4.3886 1.6362)
(-2.06118e-15 5.66554 1.3957)
(-2.0655e-15 6.68224 1.20757)
(-1.44547e-15 6.54401 1.04863)
(-7.19593e-16 2.25906 2.15147)
(-1.10164e-15 -4.84725 2.09492)
(-1.307e-15 -7.1384 1.57752)
(-1.75369e-15 -8.3026 1.79855)
(-2.68727e-15 -8.89077 1.10812)
(-3.56846e-15 -8.6651 0.662268)
(-3.00239e-15 -7.08859 -0.562933)
(-2.11425e-15 -3.97803 -2.27762)
(-1.23831e-15 -0.080367 -4.32696)
(-2.00476e-15 1.84898 -5.5632)
(1.01015e-15 0.281201 -1.1289)
(1.20665e-15 0.415965 -0.00221154)
(5.59863e-16 0.639432 0.462395)
(-1.18505e-15 1.33905 0.874277)
(-1.43463e-15 2.81392 1.36426)
(-1.55792e-15 4.4067 1.48735)
(-2.01137e-15 5.732 1.31629)
(-1.97535e-15 6.6971 1.3631)
(-1.23815e-15 6.34676 1.55124)
(-5.94985e-16 1.9189 3.02224)
(-1.0195e-15 -4.66953 3.01967)
(-1.3411e-15 -7.03327 2.23817)
(-1.81862e-15 -8.21898 2.35137)
(-2.77216e-15 -8.67999 1.83197)
(-3.57619e-15 -8.34625 1.43909)
(-2.98357e-15 -6.44444 0.200143)
(-2.13343e-15 -3.03404 -1.6609)
(-1.70565e-15 0.494571 -5.99833)
(-4.17854e-16 2.49541 -5.49077)
(1.27849e-15 -0.00812671 -1.1489)
(1.32808e-15 0.186362 0.0969209)
(8.6196e-16 0.494718 0.379043)
(-7.61223e-16 1.19883 0.707866)
(-1.2885e-15 2.69768 1.22526)
(-1.41613e-15 4.40129 1.38203)
(-1.95761e-15 5.72084 1.3222)
(-1.86388e-15 6.58616 1.64362)
(-1.0423e-15 5.99276 2.19191)
(-5.63974e-16 1.48464 3.96799)
(-1.01643e-15 -4.45981 3.98143)
(-1.38339e-15 -6.85374 3.08001)
(-1.9128e-15 -8.13612 2.94789)
(-2.88864e-15 -8.52573 2.63634)
(-3.54862e-15 -8.05392 2.35451)
(-2.90561e-15 -5.8752 1.21893)
(-2.463e-15 -1.78698 -0.801903)
(1.48021e-15 1.75124 -5.25978)
(2.1724e-15 2.44485 -1.31232)
(1.3728e-15 -0.287175 -1.59885)
(1.35615e-15 -0.0619625 -0.619731)
(1.33914e-15 0.314705 -0.000875355)
(-1.45781e-16 1.01062 0.445723)
(-1.16918e-15 2.55285 1.08704)
(-1.341e-15 4.3595 1.31846)
(-1.89793e-15 5.62586 1.41409)
(-1.72115e-15 6.35465 2.03036)
(-8.64533e-16 5.50707 2.9427)
(-6.14153e-16 1.0144 4.9301)
(-1.05778e-15 -4.24004 4.92001)
(-1.42814e-15 -6.60958 3.97502)
(-2.09126e-15 -8.03594 3.6121)
(-3.05738e-15 -8.44729 3.47435)
(-3.5799e-15 -7.82711 3.42107)
(-2.96174e-15 -5.08791 2.17562)
(-1.62377e-15 -0.0644728 -1.49907)
(6.12836e-15 0.848008 2.3091)
(3.27452e-15 -3.85564 5.93516)
(1.32282e-15 -0.495621 -2.24216)
(1.2984e-15 -0.322948 -1.44487)
(1.46822e-15 -0.0247139 -0.776535)
(4.99186e-16 0.749583 0.0715843)
(-1.13426e-15 2.36543 0.934321)
(-1.40009e-15 4.26165 1.28984)
(-1.81183e-15 5.43253 1.58765)
(-1.54505e-15 5.99442 2.50229)
(-7.00697e-16 4.90141 3.78242)
(-7.01795e-16 0.536072 5.85843)
(-1.8166e-15 -4.00889 5.78081)
(-2.10015e-15 -6.32608 4.85276)
(-2.27869e-15 -7.92853 4.37329)
(-3.15928e-15 -8.45296 4.3543)
(-3.29485e-15 -7.5956 4.48041)
(-1.76208e-15 -4.41414 3.57711)
(4.19144e-15 -1.29627 6.29061)
(6.76863e-15 -1.08415 11.3971)
(5.60162e-15 -1.97949 9.95554)
(1.18323e-15 -0.672798 -2.93295)
(1.16881e-15 -0.562106 -2.21641)
(1.42129e-15 -0.395715 -1.5647)
(9.22124e-16 0.358868 -0.424131)
(-1.15881e-15 2.08969 0.791664)
(-1.5579e-15 4.0856 1.29919)
(-1.70007e-15 5.13506 1.84003)
(-1.34395e-15 5.50648 3.04559)
(-5.86658e-16 4.204 4.68829)
(-1.74103e-16 0.0885183 6.71267)
(-7.04395e-16 -3.77496 6.57752)
(-9.07221e-16 -6.04512 5.74008)
(-2.72743e-15 -7.82646 5.25264)
(-3.63036e-15 -8.48798 5.23683)
(-4.75288e-15 -7.58916 5.45)
(-3.7057e-16 -5.28985 5.84086)
(3.715e-15 -3.06974 9.98008)
(3.90204e-15 -1.06292 11.0968)
(3.36934e-15 -0.226144 7.43591)
(1.00465e-15 -0.842174 -3.57982)
(9.97486e-16 -0.809313 -2.90893)
(1.28658e-15 -0.762323 -2.20997)
(1.06912e-15 -0.215466 -1.01122)
(-1.15662e-15 1.69224 0.697612)
(-1.71799e-15 3.81504 1.35586)
(-1.59596e-15 4.72904 2.1699)
(-1.10515e-15 4.89344 3.65886)
(-5.89899e-16 3.44522 5.63077)
(-4.21043e-16 -0.316627 7.45733)
(-3.71794e-16 -3.56813 7.31984)
(-1.34226e-15 -5.79894 6.64845)
(-3.4291e-15 -7.71845 6.19318)
(-4.012e-15 -8.53413 6.07389)
(-4.10717e-15 -7.86579 6.39118)
(1.00282e-15 -6.20786 7.66895)
(7.71327e-15 -3.43995 10.4814)
(1.38342e-14 -0.30015 9.84027)
(1.58563e-14 0.722308 7.24664)
(8.59821e-16 -0.998228 -4.08918)
(8.42806e-16 -1.06144 -3.46806)
(1.14309e-15 -1.14113 -2.70781)
(1.00621e-15 -0.896573 -1.50084)
(-1.16509e-15 1.19609 0.67592)
(-1.82015e-15 3.44183 1.46713)
(-1.76167e-15 4.21043 2.5752)
(-8.59781e-16 4.16627 4.35194)
(-6.30296e-16 2.67243 6.57749)
(-1.34032e-15 -0.638167 8.05285)
(-1.58409e-15 -3.41479 7.929)
(-2.46952e-15 -5.60123 7.46384)
(-3.88455e-15 -7.59141 7.06088)
(-3.98333e-15 -8.57649 6.86015)
(-2.82996e-15 -8.26651 7.39555)
(2.30054e-15 -7.01071 9.33685)
(5.09059e-15 -4.08972 12.0689)
(-1.36226e-17 -0.33985 12.5397)
(-6.67021e-16 2.2532 10.096)
(7.70308e-16 -1.14981 -4.38552)
(7.37332e-16 -1.31928 -3.82557)
(1.04102e-15 -1.55388 -3.03426)
(8.60706e-16 -1.66162 -1.74297)
(-1.29977e-15 0.669596 0.736896)
(-1.83393e-15 2.96833 1.61741)
(-1.47253e-15 3.57062 3.04555)
(-6.2575e-16 3.34148 5.13303)
(-5.65572e-16 1.93876 7.51042)
(-1.78996e-15 -0.853639 8.55206)
(-2.47655e-15 -3.3045 8.38827)
(-3.10327e-15 -5.45684 8.09013)
(-3.7628e-15 -7.47295 7.79125)
(-3.46776e-15 -8.67442 7.68546)
(-1.53997e-15 -8.85633 8.57565)
(2.14964e-15 -7.90511 10.71)
(1.26042e-15 -4.24018 11.6312)
(-2.96249e-15 0.907262 8.2083)
(-1.33508e-15 4.89332 7.64759)
(7.09496e-16 -1.28043 -4.49751)
(6.72631e-16 -1.55924 -3.99388)
(1.00147e-15 -1.98733 -3.17977)
(6.69671e-16 -2.48233 -1.69698)
(-1.53516e-15 0.108294 0.87095)
(-1.89608e-15 2.4171 1.77601)
(-1.2776e-15 2.79615 3.56063)
(-3.4656e-16 2.43047 5.98503)
(-3.28815e-16 1.25955 8.42992)
(-1.55649e-15 -0.984484 9.15799)
(-2.40488e-15 -3.21295 8.92352)
(-2.96426e-15 -5.36475 8.69678)
(-3.26734e-15 -7.42457 8.56338)
(-2.74855e-15 -8.89458 8.78037)
(-7.57776e-16 -9.46537 10.0099)
(1.2484e-15 -8.21518 11.3419)
(-4.35505e-16 -3.48323 8.48462)
(-1.65593e-15 0.601984 0.85641)
(-8.13959e-16 0.146987 2.42783)
(6.48902e-16 -1.41466 -4.45762)
(6.38213e-16 -1.80311 -4.01322)
(1.02347e-15 -2.51348 -3.13566)
(3.28234e-16 -3.33957 -1.29895)
(-1.82872e-15 -0.523366 1.09195)
(-1.89281e-15 1.81453 1.93169)
(-1.03875e-15 1.87629 4.08213)
(-3.19891e-17 1.43654 6.81747)
(4.79359e-17 0.606907 9.26386)
(-9.65871e-16 -1.04933 9.98497)
(-1.83819e-15 -3.10355 9.83087)
(-2.43079e-15 -5.31144 9.68232)
(-2.62468e-15 -7.50567 9.75931)
(-1.991e-15 -9.26427 10.3244)
(-3.75241e-16 -9.86919 11.4132)
(3.57582e-16 -7.34778 10.8723)
(-1.51113e-15 -0.336255 4.8515)
(-2.05174e-15 3.31028 -0.0915532)
(-2.92416e-15 1.64542 -2.37844)
(5.74075e-16 -1.52533 -4.31695)
(6.37227e-16 -2.0456 -3.95786)
(9.89125e-16 -3.10623 -2.80972)
(-3.3144e-16 -4.17232 -0.39646)
(-1.96031e-15 -1.10674 1.35759)
(-1.8467e-15 1.16638 2.09662)
(-8.19017e-16 0.83138 4.52022)
(2.72258e-16 0.407618 7.38507)
(5.14072e-16 -0.0651667 9.74821)
(-1.81215e-16 -1.23687 10.7814)
(-9.94623e-16 -3.10483 11.0212)
(-1.58231e-15 -5.34795 11.1219)
(-1.71301e-15 -7.68212 11.4062)
(-1.11113e-15 -9.55459 11.9756)
(-1.19508e-16 -9.63527 12.0859)
(-3.55851e-16 -5.53326 8.88789)
(-2.11801e-15 1.48253 0.30194)
(-1.93117e-15 3.68231 -0.768511)
(-2.21536e-15 2.13092 -2.07955)
(4.83815e-16 -1.61016 -4.03169)
(6.04561e-16 -2.38468 -3.6758)
(5.69801e-16 -3.97227 -1.71556)
(-1.08671e-15 -5.01644 0.932578)
(-1.87599e-15 -1.50012 1.57718)
(-1.77767e-15 0.500898 2.24451)
(-7.43155e-16 -0.236184 4.56736)
(2.86782e-16 -0.584264 7.0527)
(7.84317e-16 -0.771654 9.42091)
(5.43538e-16 -1.54254 11.0543)
(1.29903e-17 -3.22384 11.9449)
(-4.33783e-16 -5.47349 12.4616)
(-5.25826e-16 -7.86809 12.8663)
(-1.75003e-16 -9.55647 12.9615)
(5.8349e-17 -8.6442 11.5205)
(-8.05742e-16 -2.92335 6.02813)
(-1.77185e-15 3.13181 -1.03924)
(-1.98892e-15 4.22299 -1.97792)
(-1.92032e-15 2.65026 -2.86676)
(3.60207e-16 -1.72572 -3.43012)
(3.05142e-16 -2.85719 -2.46311)
(-2.77688e-16 -4.96671 0.51684)
(-1.4098e-15 -5.39213 2.2979)
(-1.69956e-15 -1.56193 1.77056)
(-1.77114e-15 -0.0499217 2.25908)
(-9.8999e-16 -1.03577 3.93656)
(-1.40174e-16 -1.49505 5.88124)
(6.24272e-16 -1.73378 8.32767)
(8.83668e-16 -2.29847 10.4879)
(7.87095e-16 -3.72047 11.9282)
(6.04397e-16 -5.74876 12.806)
(5.3328e-16 -7.87421 13.2204)
(5.23524e-16 -8.94631 12.6555)
(4.59359e-17 -6.79009 9.65604)
(-1.27455e-15 -0.10547 2.40265)
(-1.6441e-15 4.41106 -1.32701)
(-1.93521e-15 4.5823 -2.63789)
(-1.81694e-15 2.77856 -3.26305)
(4.72366e-17 -2.05912 -2.3045)
(-3.15912e-16 -4.01823 0.541332)
(-7.15076e-16 -6.0271 2.97384)
(-1.13554e-15 -5.56433 3.21306)
(-1.63e-15 -1.50619 1.74266)
(-1.81467e-15 -0.524095 2.1234)
(-1.30263e-15 -1.64236 3.00697)
(-6.83712e-16 -2.31102 4.42101)
(1.81472e-16 -2.5766 6.83853)
(8.56943e-16 -2.86351 9.52198)
(1.20545e-15 -4.04379 11.4697)
(1.32049e-15 -5.94856 12.5495)
(1.25334e-15 -7.84509 12.7776)
(8.72559e-16 -8.22584 11.4049)
(-7.69968e-17 -4.84454 6.96058)
(-1.11188e-15 1.67141 -0.551422)
(-1.6834e-15 4.96875 -1.84235)
(-1.94937e-15 4.98098 -3.07557)
(-1.86858e-15 2.86356 -3.58623)
(6.75054e-16 -2.8998 3.15372)
(2.67616e-16 -4.9012 4.73685)
(-6.01403e-17 -5.84388 4.80119)
(-7.78738e-16 -4.66185 3.54656)
(-1.93515e-15 -1.07018 1.79003)
(-1.84875e-15 -0.668426 1.99552)
(-1.55238e-15 -1.94171 2.20597)
(-1.30787e-15 -3.02659 2.71091)
(-7.72884e-16 -3.89443 4.13826)
(-8.92869e-17 -4.34447 6.44497)
(5.49776e-16 -5.12484 8.64291)
(1.02744e-15 -6.36563 9.96031)
(1.18363e-15 -7.33946 10.1166)
(7.85535e-16 -6.31245 8.4641)
(-1.58357e-16 -1.68291 4.0731)
(-7.14565e-16 3.46194 -0.294238)
(-1.68292e-15 5.75564 -2.12533)
(-1.96621e-15 5.49675 -3.36195)
(-1.83718e-15 2.85404 -3.94514)
(1.42061e-16 8.20049 14.1699)
(-5.40051e-15 17.2584 29.3727)
(-4.5417e-15 18.1871 29.7616)
(-4.58986e-15 16.4383 26.4898)
(-4.91315e-15 14.8661 23.3422)
(-6.88205e-15 13.6325 20.9933)
(-6.06128e-15 12.4941 18.8838)
(-5.36779e-15 11.4352 17.1267)
(-5.17463e-15 10.3509 15.3441)
(-4.45097e-15 9.19032 13.4775)
(-3.63341e-15 7.96471 11.5278)
(-3.02185e-15 6.70452 9.517)
(-2.33923e-15 5.55145 7.67368)
(-2.86226e-15 4.78889 6.53762)
(-4.21913e-15 4.73586 6.65973)
(-7.13079e-15 5.5357 8.39175)
(-9.44315e-15 7.08504 11.2457)
(-9.52086e-15 8.49537 14.2722)
(-8.73403e-15 9.28842 15.4127)
(-9.58498e-15 6.51215 11.7893)
(-1.61186e-16 7.97397 13.0396)
(-5.01055e-15 16.329 28.695)
(-3.19594e-15 16.0104 27.485)
(-3.89198e-15 13.7032 23.7525)
(-4.06512e-15 12.1444 20.8638)
(-6.95618e-15 10.992 18.8572)
(-5.5057e-15 10.1655 17.3621)
(-5.20672e-15 9.44209 15.9857)
(-5.76368e-15 8.76138 14.6828)
(-6.31763e-15 8.12341 13.3787)
(-7.02351e-15 7.50798 12.0616)
(-7.75993e-15 6.93142 10.7322)
(-7.71084e-15 6.38681 9.37576)
(-8.81921e-15 5.94893 8.18316)
(-9.29396e-15 5.83988 7.60393)
(-1.05975e-14 6.18236 8.08844)
(-1.10753e-14 6.97227 9.59155)
(-1.04655e-14 7.73648 11.5437)
(-9.14848e-15 7.94383 12.5867)
(-1.00155e-14 5.75965 9.69305)
(-1.03072e-16 7.28976 12.4208)
(-1.50627e-15 16.2995 29.0345)
(-9.32296e-16 16.946 29.5965)
(-9.8306e-16 15.2784 26.3535)
(-6.50003e-16 13.7402 23.3586)
(-2.72202e-15 12.5973 21.0157)
(-2.42212e-15 11.7119 19.2514)
(-2.31985e-15 11.0234 17.775)
(-2.42074e-15 10.3883 16.4369)
(-2.93758e-15 9.78293 15.1467)
(-3.48557e-15 9.18291 13.8723)
(-4.05574e-15 8.57591 12.5893)
(-4.44326e-15 7.95404 11.2707)
(-4.83935e-15 7.32114 9.92911)
(-5.38804e-15 6.73771 8.69594)
(-6.05923e-15 6.30527 7.85451)
(-6.61036e-15 6.09883 7.68032)
(-6.62918e-15 6.06577 8.06359)
(-5.92437e-15 5.65805 8.33357)
(-7.48754e-15 3.61375 5.3206)
(7.56745e-17 5.63464 9.52115)
(3.93769e-16 16.1651 28.6619)
(2.38329e-16 17.6548 31.0113)
(3.0345e-16 15.8559 27.4764)
(3.10441e-16 14.0079 24.1471)
(-1.53662e-15 12.8056 21.7298)
(-1.48088e-15 11.9023 19.993)
(-1.61989e-15 11.1789 18.4777)
(-1.71353e-15 10.4747 17.0558)
(-2.01297e-15 9.78377 15.6671)
(-2.31468e-15 9.0932 14.3126)
(-2.75373e-15 8.40735 12.9952)
(-3.16895e-15 7.72325 11.711)
(-3.72003e-15 7.03868 10.4319)
(-4.31817e-15 6.33046 9.14457)
(-5.18896e-15 5.64293 7.8784)
(-5.66391e-15 4.94016 6.78309)
(-5.86547e-15 4.32692 5.81646)
(-5.97361e-15 3.25278 4.79645)
(-1.23176e-14 1.1613 0.801612)
(-2.24215e-17 4.77058 7.86631)
(-1.10519e-16 16.3897 28.126)
(-6.74512e-17 18.5579 32.0505)
(-8.56071e-17 16.9177 28.7897)
(-1.14665e-16 15.0024 25.4154)
(4.42078e-16 13.7976 22.9714)
(4.97653e-16 12.8884 21.2048)
(5.0922e-16 12.1371 19.6289)
(5.20575e-16 11.385 18.102)
(5.97597e-16 10.6134 16.562)
(6.94478e-16 9.81115 15.0136)
(8.27412e-16 8.98415 13.4738)
(9.30595e-16 8.13643 11.9659)
(1.05428e-15 7.28375 10.4988)
(1.14489e-15 6.40295 9.07181)
(1.21388e-15 5.51194 7.62675)
(1.25873e-15 4.49659 6.14883)
(1.35717e-15 3.45093 4.46174)
(1.64213e-15 1.74665 2.37852)
(1.03431e-15 0.0238294 -1.38819)
(2.2779e-18 6.45395 10.5579)
(2.55037e-17 17.5922 28.6348)
(1.92988e-17 19.6606 32.539)
(2.01443e-17 18.0871 29.51)
(3.16391e-17 16.1801 26.317)
(-1.01916e-16 15.0519 24.0026)
(-1.32731e-16 14.1804 22.3007)
(-1.37866e-16 13.4434 20.7038)
(-1.37865e-16 12.6552 19.0833)
(-1.4402e-16 11.8004 17.3722)
(-1.57174e-16 10.8651 15.588)
(-1.7467e-16 9.86249 13.7563)
(-1.84078e-16 8.80029 11.9101)
(-1.8869e-16 7.69524 10.0676)
(-1.77072e-16 6.52666 8.24752)
(-1.46902e-16 5.31903 6.4088)
(-1.06557e-16 3.95239 4.53368)
(-7.42545e-17 2.50801 2.31704)
(-1.62567e-16 0.180842 -0.410909)
(1.43036e-15 -1.20538 -4.24167)
(-2.56654e-20 10.7741 18.3146)
(-4.51019e-18 20.1418 32.0329)
(-4.45007e-18 19.8989 32.51)
(-4.17691e-18 18.2262 29.2764)
(-6.2457e-18 16.6129 26.9372)
(1.83567e-17 15.8579 25.1582)
(2.79914e-17 15.0731 23.7363)
(2.90806e-17 14.3874 22.157)
(2.77688e-17 13.4928 20.4136)
(2.62488e-17 12.48 18.4435)
(2.55054e-17 11.321 16.3483)
(2.48139e-17 10.0796 14.1695)
(2.2377e-17 8.75034 11.9457)
(1.77123e-17 7.34438 9.67922)
(8.81494e-18 5.8312 7.38367)
(-6.26268e-18 4.22695 5.02466)
(-2.86986e-17 2.46828 2.7209)
(-5.35394e-17 0.752154 0.105653)
(-1.37734e-16 -1.85852 -2.73561)
(5.09929e-16 -2.52965 -6.73344)
(-1.85407e-20 14.7456 26.101)
(7.29304e-19 20.8466 33.8552)
(8.13345e-19 17.8614 30.8428)
(7.26246e-19 16.7043 28.1359)
(9.88078e-19 15.4229 26.9786)
(-3.6521e-18 14.9683 25.7063)
(-5.43843e-18 14.0074 24.5523)
(-5.39913e-18 13.1405 22.8665)
(-4.87883e-18 11.7803 20.8331)
(-4.31747e-18 10.3095 18.4059)
(-3.8493e-18 8.65046 15.8826)
(-3.15403e-18 6.98808 13.2749)
(-1.65266e-18 5.22193 10.5752)
(1.4877e-18 3.38506 7.72331)
(7.19153e-18 1.47615 4.71425)
(1.08429e-17 -0.555897 1.53737)
(-6.1547e-18 -2.17319 -1.09291)
(-5.14823e-17 -2.97383 -2.76597)
(-9.62535e-17 -4.85233 -5.45037)
(-2.96307e-17 -3.37918 -6.1778)
(9.38812e-22 15.6716 28.49)
(-1.17332e-19 18.3575 31.0154)
(-1.1327e-19 15.268 28.0441)
(-9.66208e-20 14.7967 26.377)
(1.94627e-20 13.4751 25.4686)
(7.63931e-19 12.8308 24.2054)
(8.7651e-19 11.5946 22.9908)
(7.05546e-19 10.3651 21.1229)
(4.27857e-19 8.62918 18.834)
(6.54632e-20 6.85095 16.2152)
(-2.36053e-19 4.98005 13.6126)
(-1.37149e-19 3.16261 11.01)
(7.07425e-19 1.31505 8.39291)
(1.95436e-18 -0.469696 5.77998)
(1.33038e-18 -2.03134 3.39254)
(-6.61783e-18 -3.1455 1.4353)
(-2.71627e-17 -3.62347 0.030403)
(-5.49127e-17 -2.93719 -0.113081)
(-7.02118e-17 -0.659718 1.99636)
(-4.31975e-17 1.50008 4.42002)
(1.74111e-21 14.0171 25.53)
(1.11365e-20 16.8347 29.0201)
(3.21973e-21 14.3601 26.3892)
(-3.01425e-21 13.5133 24.0614)
(-2.832e-20 12.0059 22.8338)
(-9.14581e-20 11.1836 21.2949)
(-4.65504e-20 9.82092 19.9469)
(1.7997e-20 8.54539 18.0969)
(4.05578e-20 6.89238 15.94)
(-1.01907e-20 5.24022 13.4679)
(4.34084e-20 3.56008 10.9687)
(7.70739e-19 2.01946 8.54462)
(2.42622e-18 0.687043 6.38807)
(3.23585e-18 -0.210438 4.78537)
(-1.69672e-19 -0.374631 4.21015)
(-7.84804e-18 0.571219 5.27248)
(-1.35587e-17 2.80292 8.24735)
(-1.06702e-17 5.85289 12.2155)
(-4.38219e-19 8.27153 14.7626)
(6.43144e-18 6.21054 11.9625)
(-5.44915e-22 13.035 23.5659)
(5.14575e-22 17.4926 29.2948)
(3.15502e-21 14.7299 26.2627)
(3.75735e-21 13.96 23.1054)
(3.31914e-21 12.3479 21.6763)
(3.78741e-21 11.7733 19.7024)
(-6.69033e-21 10.5288 18.2106)
(-1.43045e-20 9.70206 16.4607)
(-1.95267e-20 8.6435 14.8148)
(-3.42435e-20 7.74415 13.0491)
(-5.74331e-20 6.87368 11.342)
(-2.81619e-20 6.16998 9.75441)
(2.03128e-19 5.64963 8.43298)
(7.88541e-19 5.41277 7.55338)
(1.6618e-18 5.56025 7.34276)
(2.51266e-18 6.13192 8.01942)
(3.24338e-18 7.04752 9.40984)
(3.76666e-18 7.69407 11.0577)
(3.31849e-18 7.75371 11.6095)
(6.69319e-19 5.34473 9.10536)
(1.34342e-22 13.2643 23.9827)
(-5.38432e-22 18.3628 30.2084)
(-1.17498e-21 15.3844 27.2857)
(-1.17517e-21 14.7454 24.0167)
(-1.5783e-22 13.2007 22.5761)
(1.87552e-21 12.7257 20.6777)
(3.54635e-21 11.704 19.1865)
(3.17068e-21 11.01 17.556)
(1.88639e-21 10.2453 16.0861)
(2.85125e-21 9.59367 14.6828)
(6.33226e-21 8.99295 13.3497)
(8.20054e-22 8.43293 12.0541)
(-3.48361e-20 7.89792 10.7754)
(-1.05095e-19 7.36492 9.53095)
(-1.79799e-19 6.8422 8.38121)
(-2.39063e-19 6.34552 7.47242)
(-3.56503e-19 5.90231 6.94786)
(-6.5177e-19 5.45013 6.70842)
(-1.09259e-18 4.53252 6.18122)
(-1.24457e-18 2.51513 3.31263)
(-2.78269e-23 14.0662 25.5244)
(1.50573e-22 19.0971 30.8685)
(2.76335e-22 15.7004 27.9249)
(2.54878e-22 15.3926 24.7866)
(-3.8818e-23 13.7704 23.4468)
(-6.37604e-22 13.3757 21.5345)
(-9.18322e-22 12.3538 20.0758)
(-7.46531e-22 11.67 18.4431)
(-5.1799e-22 10.8811 16.9307)
(-5.34283e-22 10.1504 15.4307)
(-7.06701e-23 9.42939 13.9781)
(2.46778e-21 8.71918 12.5696)
(6.94471e-21 8.01179 11.2032)
(8.09664e-21 7.29891 9.86906)
(-3.22257e-21 6.54175 8.54654)
(-3.11755e-20 5.72972 7.1842)
(-6.36247e-20 4.75714 5.77831)
(-7.75813e-20 3.69251 4.20964)
(-4.56507e-20 2.01043 2.33905)
(-1.47516e-19 0.356427 -1.05144)
(4.27475e-24 15.1951 28.1377)
(-2.64162e-23 19.6412 31.1471)
(-3.68157e-23 15.7759 28.5863)
(-2.29883e-23 16.108 25.6738)
(2.50837e-23 14.2315 24.5354)
(9.49575e-23 14.0507 22.5363)
(4.5067e-23 12.9201 21.1542)
(-1.14273e-22 12.3425 19.5138)
(-2.51522e-22 11.5644 18.0583)
(-2.92971e-22 10.8947 16.5592)
(-4.33911e-22 10.1889 15.0562)
(-9.32766e-22 9.44484 13.4827)
(-1.33034e-21 8.60506 11.8115)
(8.87769e-23 7.63905 10.0198)
(5.65507e-21 6.50153 8.12411)
(1.66224e-20 5.23775 6.10964)
(3.19311e-20 3.75217 4.01055)
(5.00007e-20 2.19328 1.58679)
(8.26679e-20 -0.192669 -1.03365)
(3.85265e-20 -1.44352 -4.73227)
(-6.8399e-25 16.1419 30.7884)
(5.11468e-24 19.7047 30.8378)
(1.21936e-23 15.672 29.2284)
(1.71309e-23 16.6225 26.5403)
(8.83316e-24 14.4177 25.6144)
(-3.34656e-23 14.4947 23.6086)
(-1.31047e-22 13.2296 22.4011)
(-2.95329e-22 12.8147 20.8461)
(-4.10241e-22 12.0456 19.5599)
(-1.60061e-22 11.4807 18.1722)
(8.51009e-22 10.7921 16.7271)
(2.72536e-21 9.97311 15.0126)
(4.87692e-21 8.84923 12.9049)
(6.14815e-21 7.3815 10.3768)
(5.66651e-21 5.65698 7.66194)
(3.55578e-21 3.87974 4.92075)
(-3.45379e-22 1.95932 2.22065)
(-7.88649e-22 0.134783 -0.940944)
(4.05888e-20 -2.55284 -3.819)
(1.03858e-19 -2.97953 -7.5739)
(-1.77796e-25 16.259 31.9194)
(1.41091e-24 19.0828 29.8022)
(9.2691e-24 15.1959 29.1828)
(2.13064e-23 16.2942 26.6038)
(1.85869e-23 13.9199 25.7812)
(-4.81187e-23 13.9841 23.878)
(-2.31691e-22 12.6186 22.8043)
(-4.74486e-22 12.1924 21.3889)
(-4.66782e-22 11.3269 20.2681)
(3.42212e-22 10.7004 18.9773)
(2.39186e-21 9.79517 17.4831)
(5.35461e-21 8.57825 15.3437)
(7.78328e-21 6.76362 12.3157)
(8.14315e-21 4.53848 8.64157)
(7.1382e-21 2.51126 5.30086)
(6.72562e-21 0.810285 2.535)
(4.37492e-22 -0.647487 0.159042)
(-4.34637e-21 -1.5757 -1.99926)
(5.67216e-20 -4.52534 -5.59713)
(1.49067e-19 -3.66419 -7.53735)
(-1.81586e-25 15.4294 31.0861)
(5.09946e-25 18.352 28.5581)
(7.18482e-24 14.3582 28.1516)
(1.8781e-23 15.2768 25.6476)
(1.12899e-23 13.0787 24.748)
(-6.93615e-23 12.8068 23.0129)
(-2.65664e-22 11.5852 21.8664)
(-4.86404e-22 10.9236 20.5545)
(-3.77738e-22 10.0481 19.4085)
(5.97212e-22 9.24346 18.1362)
(2.67326e-21 8.20123 16.5615)
(5.06061e-21 6.80706 14.3023)
(5.9744e-21 4.9858 11.2518)
(4.46256e-21 3.15169 8.0113)
(2.66771e-21 1.82976 5.50218)
(5.59295e-21 0.705282 3.25566)
(1.90527e-20 -0.946964 0.0387304)
(4.59358e-20 -2.56986 -3.03188)
(8.86353e-20 -3.28386 -3.84691)
(9.63987e-20 -1.33321 -1.19109)
(-1.86456e-25 14.0319 30.2669)
(2.58115e-25 17.9254 27.3823)
(5.47146e-24 13.2261 27.2408)
(1.55486e-23 14.1205 24.8771)
(9.47239e-24 12.018 23.9376)
(-5.85274e-23 11.5245 22.3496)
(-2.23545e-22 10.3844 21.1594)
(-4.30835e-22 9.62143 19.8822)
(-4.71291e-22 8.77012 18.7106)
(-5.97013e-23 7.98141 17.4878)
(8.72713e-22 7.11839 16.1254)
(1.86671e-21 6.16721 14.474)
(2.14412e-21 5.15706 12.5145)
(1.5366e-21 4.21261 10.3827)
(1.23075e-21 3.37714 8.23762)
(3.40374e-21 2.53411 6.03714)
(1.09106e-20 1.55861 3.46083)
(2.95966e-20 0.235805 0.062866)
(7.01199e-20 -1.52672 -3.37783)
(6.39377e-20 0.678901 1.24578)
(-9.14133e-26 11.0966 28.3842)
(-3.29517e-25 17.0075 24.8147)
(1.60241e-24 11.9576 25.204)
(7.62302e-24 12.6408 23.4527)
(9.55396e-24 10.8974 22.6847)
(-1.81769e-23 10.2404 21.566)
(-1.115e-22 9.24636 20.628)
(-2.89507e-22 8.47553 19.6636)
(-5.20373e-22 7.71114 18.7542)
(-7.03723e-22 7.03825 17.8732)
(-6.97929e-22 6.42946 17.0301)
(-4.29036e-22 5.89532 16.1911)
(-3.08903e-23 5.41024 15.2866)
(1.9177e-22 4.94292 14.2263)
(9.89671e-23 4.46382 12.9403)
(6.84741e-23 3.90855 11.3592)
(1.10161e-21 3.1637 9.30103)
(4.95199e-21 2.20567 6.30877)
(1.32787e-20 0.896399 1.94936)
(1.76877e-20 -0.908794 -2.51441)
(-2.4929e-26 2.60481 17.0518)
(-4.13988e-26 8.05219 13.6795)
(3.5963e-25 5.18541 14.5213)
(1.78778e-24 5.00095 14.1244)
(3.00556e-24 4.08945 14.077)
(-2.03484e-24 3.53709 13.8969)
(-2.52372e-23 2.97844 13.7349)
(-7.9914e-23 2.529 13.5453)
(-1.71422e-22 2.1458 13.3434)
(-2.88383e-22 1.83722 13.1218)
(-3.99726e-22 1.59295 12.8754)
(-4.6016e-22 1.40925 12.5969)
(-4.29167e-22 1.28466 12.2846)
(-3.07367e-22 1.2324 11.9358)
(-1.65386e-22 1.27393 11.5438)
(-1.1344e-22 1.38123 11.1235)
(-2.06749e-22 1.57567 10.6333)
(-3.64104e-22 2.11072 9.77075)
(-3.66571e-22 2.18619 8.43159)
(-2.57905e-23 -0.28832 6.12686)
(2.37181e-26 -2.60488 17.0519)
(3.57603e-26 -8.0522 13.6796)
(-3.61435e-25 -5.18544 14.5215)
(-1.76182e-24 -5.00095 14.1246)
(-2.9295e-24 -4.08943 14.0772)
(2.11317e-24 -3.53706 13.8972)
(2.50828e-23 -2.9784 13.7352)
(7.90404e-23 -2.52895 13.5456)
(1.69214e-22 -2.14572 13.3437)
(2.84373e-22 -1.8371 13.1221)
(3.93737e-22 -1.59276 12.8756)
(4.52086e-22 -1.40899 12.597)
(4.18597e-22 -1.28435 12.2846)
(2.93578e-22 -1.23207 11.9358)
(1.47929e-22 -1.2736 11.5439)
(9.27113e-23 -1.3809 11.1236)
(1.83998e-22 -1.57536 10.6335)
(3.42721e-22 -2.11031 9.77107)
(3.54064e-22 -2.18541 8.43181)
(2.47452e-23 0.288212 6.12567)
(8.95736e-26 -11.0967 28.3845)
(3.3422e-25 -17.0079 24.815)
(-1.57508e-24 -11.9579 25.2043)
(-7.52846e-24 -12.6412 23.453)
(-9.36547e-24 -10.8978 22.6849)
(1.829e-23 -10.2409 21.5661)
(1.10895e-22 -9.24694 20.6281)
(2.86994e-22 -8.47622 19.6636)
(5.14801e-22 -7.71196 18.7542)
(6.95352e-22 -7.03925 17.8732)
(6.89696e-22 -6.43066 17.0301)
(4.25572e-22 -5.8967 16.1911)
(3.47538e-23 -5.41169 15.2866)
(-1.81928e-22 -4.94433 14.2264)
(-8.26957e-23 -4.46515 12.9406)
(-3.14657e-23 -3.9097 11.3598)
(-1.00843e-21 -3.16434 9.3019)
(-4.79218e-21 -2.20558 6.30921)
(-1.31864e-20 -0.895165 1.94664)
(-1.75034e-20 0.913997 -2.5239)
(1.85376e-25 -14.0316 30.2666)
(-2.91905e-25 -17.9256 27.3816)
(-5.46972e-24 -13.2259 27.2403)
(-1.53852e-23 -14.1207 24.8763)
(-9.10384e-24 -12.0181 23.9366)
(5.87483e-23 -11.5247 22.3484)
(2.22582e-22 -10.3846 21.158)
(4.27869e-22 -9.62166 19.8807)
(4.67804e-22 -8.77036 18.7089)
(6.03809e-23 -7.98169 17.4859)
(-8.62816e-22 -7.11886 16.1236)
(-1.84401e-21 -6.16829 14.4727)
(-2.09655e-21 -5.15938 12.5149)
(-1.42614e-21 -4.21646 10.3856)
(-9.89669e-22 -3.38224 8.24299)
(-2.95224e-21 -2.54035 6.04483)
(-1.0288e-20 -1.56619 3.47067)
(-2.95944e-20 -0.243333 0.071481)