/*--------------------------------*- C++ -*----------------------------------*\
| =========                 |                                                 |
| \\      /  F ield         | OpenFOAM: The Open Source CFD Toolbox           |
|  \\    /   O peration     | Version:  4.1                                   |
|   \\  /    A nd           | Web:      www.OpenFOAM.org                      |
|    \\/     M anipulation  |                                                 |
\*---------------------------------------------------------------------------*/
FoamFile
{
    version     2.0;
    format      ascii;
    class       volScalarField;
    location    "26";
    object      p;
}
// * * * * * * * * * * * * * * * * * * * * * * * * * * * * * * * * * * * * * //

dimensions      [0 2 -2 0 0 0 0];

internalField   nonuniform List<scalar> 
1280
(
-2.22068e+10
-1.61985e+10
-1.65713e+10
-2.19341e+10
-2.38031e+10
-2.53143e+10
-2.82695e+10
-3.07849e+10
-3.20045e+10
-3.36721e+10
-3.73942e+10
-3.89796e+10
-4.03852e+10
-4.41897e+10
-4.58893e+10
-4.72384e+10
-5.11418e+10
-5.26365e+10
-5.46313e+10
-5.72448e+10
-5.94382e+10
-6.12103e+10
-6.33322e+10
-6.51785e+10
-6.67813e+10
-6.8864e+10
-7.50336e+10
-7.39957e+10
-7.52878e+10
-7.73283e+10
-7.91211e+10
-8.08955e+10
-8.27237e+10
-8.45723e+10
-8.64336e+10
-8.83493e+10
-9.02528e+10
-9.23066e+10
-9.41789e+10
-9.65684e+10
-1.13175e+11
-1.05948e+11
-1.07732e+11
-1.12746e+11
-1.14458e+11
-1.19631e+11
-1.25954e+11
-1.31521e+11
-1.34258e+11
-1.40029e+11
-1.5086e+11
-1.54969e+11
-1.6313e+11
-1.73697e+11
-1.83363e+11
-1.87391e+11
-1.98963e+11
-2.11914e+11
-2.24382e+11
-2.25595e+11
-2.45702e+11
-2.51773e+11
-2.62553e+11
-2.72454e+11
-2.81781e+11
-2.91068e+11
-3.00235e+11
-3.09258e+11
-3.18263e+11
-3.27086e+11
-3.36232e+11
-3.44619e+11
-3.54877e+11
-4.05001e+11
-3.93507e+11
-4.06884e+11
-4.24811e+11
-4.41777e+11
-4.5841e+11
-4.79434e+11
-5.20228e+11
-5.18282e+11
-5.19382e+11
-5.61789e+11
-6.19843e+11
-6.46697e+11
-7.06204e+11
-8.0243e+11
-8.3284e+11
-9.07587e+11
-1.06322e+12
-1.15689e+12
-1.57062e+12
-1.81863e+12
-2.15859e+12
-1.56871e+12
-9.37063e+12
-7.34024e+12
2.96771e+11
8.24679e+11
1.51213e+09
2.01435e+08
7.18466e+08
7.58767e+08
1.34433e+09
2.10518e+09
3.41768e+09
5.52963e+09
9.01314e+09
1.47814e+10
2.44482e+10
4.07658e+10
6.79533e+10
1.12635e+11
1.85686e+11
3.02621e+11
7.20533e+11
1.55609e+12
-7.76423e+12
-7.63134e+08
-6.97747e+07
-2.41474e+08
-3.14744e+08
-6.47388e+08
-1.077e+09
-1.82098e+09
-3.0572e+09
-5.21008e+09
-9.17066e+09
-1.68817e+10
-3.25651e+10
-6.64055e+10
-1.33637e+11
-2.1092e+11
-2.55337e+11
-3.24484e+11
-3.28078e+09
-1.42815e+11
1.51834e+07
1.20527e+08
2.65139e+08
3.23746e+08
5.03456e+08
7.35223e+08
1.0784e+09
1.56162e+09
2.25364e+09
3.22569e+09
4.4209e+09
5.05967e+09
1.04804e+09
-1.66592e+10
-5.53285e+10
-1.0058e+11
-1.70782e+11
-5.32261e+11
-1.20636e+12
1.84581e+08
6.38876e+07
1.67008e+08
1.44699e+08
2.41609e+08
2.98369e+08
3.89658e+08
4.76748e+08
5.49529e+08
5.10235e+08
-7.4074e+07
-2.55715e+09
-1.11367e+10
-3.13912e+10
-5.88338e+10
-9.75938e+10
-1.56239e+11
-3.00822e+11
-5.31061e+11
1.05555e+08
7.151e+07
1.20204e+08
1.03616e+08
1.37823e+08
1.34886e+08
1.17872e+08
2.19782e+07
-2.40895e+08
-9.05119e+08
-2.60288e+09
-6.86135e+09
-1.72957e+10
-3.59229e+10
-6.0569e+10
-9.44044e+10
-1.48101e+11
-2.94476e+11
-5.39212e+11
1.05416e+08
6.05217e+07
1.17297e+08
1.08268e+08
1.38386e+08
1.36879e+08
1.15738e+08
1.12896e+07
-2.72068e+08
-9.84313e+08
-2.74172e+09
-6.87809e+09
-1.62352e+10
-3.18764e+10
-5.36333e+10
-8.65476e+10
-1.35583e+11
-2.31335e+11
-3.7773e+11
1.0837e+08
4.10363e+07
9.96299e+07
8.53113e+07
1.04177e+08
8.63224e+07
4.01015e+07
-1.03716e+08
-4.5095e+08
-1.27572e+09
-3.18084e+09
-7.36503e+09
-1.58253e+10
-2.98244e+10
-5.01701e+10
-8.02138e+10
-1.22859e+11
-1.97167e+11
-3.09438e+11
9.90562e+07
2.94976e+07
8.10113e+07
6.24488e+07
6.96683e+07
3.60565e+07
-3.63722e+07
-2.27308e+08
-6.58145e+08
-1.60799e+09
-3.62462e+09
-7.74664e+09
-1.51738e+10
-2.75242e+10
-4.57539e+10
-7.2381e+10
-1.09301e+11
-1.62692e+11
-2.3535e+11
8.78007e+07
2.17755e+07
6.66157e+07
4.53881e+07
4.50569e+07
720558
-9.20359e+07
-3.15824e+08
-7.94527e+08
-1.79479e+09
-3.80476e+09
-7.62248e+09
-1.42675e+10
-2.52999e+10
-4.1842e+10
-6.5223e+10
-9.66835e+10
-1.38278e+11
-1.90951e+11
7.60338e+07
1.56006e+07
5.40676e+07
3.07686e+07
2.46452e+07
-2.84875e+07
-1.36207e+08
-3.79373e+08
-8.79817e+08
-1.88341e+09
-3.81634e+09
-7.30115e+09
-1.33574e+10
-2.3274e+10
-3.79125e+10
-5.81468e+10
-8.47358e+10
-1.17129e+11
-1.547e+11
6.40664e+07
1.08153e+07
4.32735e+07
1.84506e+07
7.41147e+06
-5.14683e+07
-1.67677e+08
-4.18271e+08
-9.19864e+08
-1.89435e+09
-3.70022e+09
-6.92299e+09
-1.24459e+10
-2.12773e+10
-3.41487e+10
-5.15598e+10
-7.38711e+10
-9.97854e+10
-1.27793e+11
5.28237e+07
7.06956e+06
3.43924e+07
8.73401e+06
-6.01583e+06
-6.6575e+07
-1.84825e+08
-4.32534e+08
-9.17434e+08
-1.83938e+09
-3.52954e+09
-6.51594e+09
-1.15134e+10
-1.93137e+10
-3.05283e+10
-4.53681e+10
-6.39865e+10
-8.47807e+10
-1.06118e+11
4.27478e+07
4.09948e+06
2.70755e+07
1.50344e+06
-1.54103e+07
-7.41368e+07
-1.89346e+08
-4.25277e+08
-8.84537e+08
-1.75516e+09
-3.33814e+09
-6.0696e+09
-1.0538e+10
-1.7375e+10
-2.70709e+10
-3.96158e+10
-5.5063e+10
-7.15479e+10
-8.89713e+10
3.43189e+07
1.77456e+06
2.09314e+07
-3.33036e+06
-2.07931e+07
-7.50684e+07
-1.83057e+08
-4.04691e+08
-8.39084e+08
-1.6561e+09
-3.10734e+09
-5.5652e+09
-9.51817e+09
-1.54523e+10
-2.37547e+10
-3.4255e+10
-4.69559e+10
-5.93264e+10
-7.22013e+10
2.68887e+07
96431.4
1.56037e+07
-6.07637e+06
-2.27346e+07
-7.03804e+07
-1.7029e+08
-3.79057e+08
-7.84243e+08
-1.52885e+09
-2.83524e+09
-5.01596e+09
-8.46923e+09
-1.35683e+10
-2.06196e+10
-2.93575e+10
-3.97753e+10
-4.92708e+10
-5.88493e+10
2.13689e+07
-821042
1.12871e+07
-7.0292e+06
-2.13403e+07
-6.31341e+07
-1.5639e+08
-3.49329e+08
-7.1703e+08
-1.38637e+09
-2.54783e+09
-4.4613e+09
-7.45391e+09
-1.18115e+10
-1.77756e+10
-2.50288e+10
-3.35771e+10
-4.0989e+10
-4.83133e+10
1.47448e+07
-1.49053e+06
7.51969e+06
-6.85337e+06
-1.8512e+07
-5.49517e+07
-1.38903e+08
-3.0808e+08
-6.28019e+08
-1.20399e+09
-2.19245e+09
-3.80185e+09
-6.28966e+09
-9.86431e+09
-1.4706e+10
-2.04813e+10
-2.72232e+10
-3.27257e+10
-3.85382e+10
1.40588e+07
-1.093e+06
5.41781e+06
-4.96217e+06
-1.48644e+07
-4.37961e+07
-1.11062e+08
-2.45383e+08
-4.98014e+08
-9.49696e+08
-1.71964e+09
-2.96387e+09
-4.87424e+09
-7.59779e+09
-1.1271e+10
-1.55964e+10
-2.06548e+10
-2.4449e+10
-2.93031e+10
-225098
-1.58332e+06
1.69537e+06
-4.35546e+06
-1.31492e+07
-4.19602e+07
-1.11628e+08
-2.51979e+08
-5.16824e+08
-9.91111e+08
-1.8005e+09
-3.10959e+09
-5.12124e+09
-7.99299e+09
-1.18712e+10
-1.64411e+10
-2.17605e+10
-2.54069e+10
-2.98253e+10
2.34163e+07
278139
5.63832e+06
-231632
-1.08594e+07
-4.39304e+07
-1.18829e+08
-2.68211e+08
-5.48628e+08
-1.04852e+09
-1.89735e+09
-3.26318e+09
-5.34784e+09
-8.30593e+09
-1.22567e+10
-1.68812e+10
-2.20957e+10
-2.55264e+10
-2.94586e+10
-7.7346e+10
-7.69688e+10
-7.67807e+10
-7.66519e+10
-7.65368e+10
-7.64453e+10
-7.6443e+10
-7.64882e+10
-7.6509e+10
-7.65511e+10
-7.66241e+10
-7.67223e+10
-7.68428e+10
-7.6983e+10
-7.71404e+10
-7.73169e+10
-7.7503e+10
-7.77218e+10
-7.7912e+10
-7.82466e+10
-7.65631e+10
-7.65925e+10
-7.65938e+10
-7.65845e+10
-7.65775e+10
-7.65715e+10
-7.65707e+10
-7.65775e+10
-7.6588e+10
-7.66034e+10
-7.6624e+10
-7.66493e+10
-7.66787e+10
-7.67121e+10
-7.67492e+10
-7.67894e+10
-7.683e+10
-7.68738e+10
-7.69109e+10
-7.69659e+10
-7.65066e+10
-7.65092e+10
-7.65064e+10
-7.65061e+10
-7.65076e+10
-7.65089e+10
-7.651e+10
-7.65116e+10
-7.6514e+10
-7.65171e+10
-7.6521e+10
-7.65259e+10
-7.65319e+10
-7.65389e+10
-7.6547e+10
-7.65561e+10
-7.65658e+10
-7.6577e+10
-7.65867e+10
-7.66021e+10
-7.64966e+10
-7.64974e+10
-7.64986e+10
-7.64997e+10
-7.65011e+10
-7.65028e+10
-7.65048e+10
-7.6507e+10
-7.65091e+10
-7.65113e+10
-7.65134e+10
-7.65155e+10
-7.65178e+10
-7.65201e+10
-7.65224e+10
-7.65248e+10
-7.65272e+10
-7.65297e+10
-7.65318e+10
-7.65351e+10
-7.64974e+10
-7.64973e+10
-7.64975e+10
-7.64975e+10
-7.64976e+10
-7.64978e+10
-7.64981e+10
-7.64984e+10
-7.64989e+10
-7.64994e+10
-7.65e+10
-7.65007e+10
-7.65014e+10
-7.65022e+10
-7.6503e+10
-7.65039e+10
-7.65047e+10
-7.65057e+10
-7.65065e+10
-7.65077e+10
-7.64979e+10
-7.64979e+10
-7.6498e+10
-7.64981e+10
-7.64982e+10
-7.64983e+10
-7.64985e+10
-7.64986e+10
-7.64988e+10
-7.6499e+10
-7.64992e+10
-7.64994e+10
-7.64996e+10
-7.64999e+10
-7.65001e+10
-7.65003e+10
-7.65006e+10
-7.65008e+10
-7.6501e+10
-7.65014e+10
-7.64968e+10
-7.64968e+10
-7.64969e+10
-7.64969e+10
-7.6497e+10
-7.6497e+10
-7.64971e+10
-7.64972e+10
-7.64973e+10
-7.64974e+10
-7.64975e+10
-7.64975e+10
-7.64976e+10
-7.64977e+10
-7.64978e+10
-7.6498e+10
-7.64981e+10
-7.64982e+10
-7.64983e+10
-7.64984e+10
-7.64969e+10
-7.64969e+10
-7.64969e+10
-7.64969e+10
-7.64969e+10
-7.6497e+10
-7.6497e+10
-7.6497e+10
-7.64971e+10
-7.64971e+10
-7.64971e+10
-7.64972e+10
-7.64972e+10
-7.64972e+10
-7.64973e+10
-7.64973e+10
-7.64974e+10
-7.64974e+10
-7.64974e+10
-7.64975e+10
-7.64969e+10
-7.64969e+10
-7.64969e+10
-7.64969e+10
-7.64969e+10
-7.64969e+10
-7.64969e+10
-7.64969e+10
-7.64969e+10
-7.64969e+10
-7.64969e+10
-7.64969e+10
-7.6497e+10
-7.6497e+10
-7.6497e+10
-7.6497e+10
-7.6497e+10
-7.6497e+10
-7.6497e+10
-7.64971e+10
-7.64969e+10
-7.64969e+10
-7.64969e+10
-7.64969e+10
-7.64969e+10
-7.64969e+10
-7.64969e+10
-7.64969e+10
-7.64969e+10
-7.64969e+10
-7.64969e+10
-7.64969e+10
-7.64969e+10
-7.64969e+10
-7.64969e+10
-7.64969e+10
-7.64969e+10
-7.64969e+10
-7.64969e+10
-7.64969e+10
-7.64969e+10
-7.64969e+10
-7.64969e+10
-7.64969e+10
-7.64969e+10
-7.64969e+10
-7.64969e+10
-7.64969e+10
-7.64969e+10
-7.64969e+10
-7.64969e+10
-7.64969e+10
-7.64969e+10
-7.64969e+10
-7.64969e+10
-7.64969e+10
-7.64969e+10
-7.64969e+10
-7.64969e+10
-7.64969e+10
-7.64969e+10
-7.64969e+10
-7.64969e+10
-7.64969e+10
-7.64969e+10
-7.64969e+10
-7.64969e+10
-7.64969e+10
-7.64969e+10
-7.64969e+10
-7.64969e+10
-7.64969e+10
-7.64969e+10
-7.64969e+10
-7.64969e+10
-7.64969e+10
-7.64969e+10
-7.64969e+10
-7.64969e+10
-7.64969e+10
-7.64969e+10
-7.64969e+10
-7.64969e+10
-7.64969e+10
-7.64969e+10
-7.64969e+10
-7.64969e+10
-7.64969e+10
-7.64969e+10
-7.64969e+10
-7.64969e+10
-7.64969e+10
-7.64969e+10
-7.64969e+10
-7.64969e+10
-7.64969e+10
-7.64969e+10
-7.64969e+10
-7.64969e+10
-7.64969e+10
-7.64968e+10
-7.64969e+10
-7.64969e+10
-7.64969e+10
-7.64969e+10
-7.64969e+10
-7.64969e+10
-7.64969e+10
-7.64969e+10
-7.64969e+10
-7.64969e+10
-7.64969e+10
-7.64969e+10
-7.64969e+10
-7.64969e+10
-7.64969e+10
-7.64969e+10
-7.64969e+10
-7.64969e+10
-7.64969e+10
-7.64968e+10
-7.64968e+10
-7.64968e+10
-7.64968e+10
-7.64968e+10
-7.64968e+10
-7.64968e+10
-7.64968e+10
-7.64968e+10
-7.64968e+10
-7.64968e+10
-7.64968e+10
-7.64968e+10
-7.64968e+10
-7.64968e+10
-7.64968e+10
-7.64968e+10
-7.64968e+10
-7.64969e+10
-7.64969e+10
-7.64968e+10
-7.64968e+10
-7.64968e+10
-7.64968e+10
-7.64968e+10
-7.64968e+10
-7.64968e+10
-7.64968e+10
-7.64968e+10
-7.64968e+10
-7.64968e+10
-7.64968e+10
-7.64968e+10
-7.64968e+10
-7.64968e+10
-7.64968e+10
-7.64968e+10
-7.64968e+10
-7.64968e+10
-7.64968e+10
-7.64968e+10
-7.64968e+10
-7.64968e+10
-7.64968e+10
-7.64968e+10
-7.64968e+10
-7.64968e+10
-7.64968e+10
-7.64968e+10
-7.64968e+10
-7.64968e+10
-7.64968e+10
-7.64968e+10
-7.64968e+10
-7.64968e+10
-7.64968e+10
-7.64968e+10
-7.64968e+10
-7.64968e+10
-7.64968e+10
-7.64968e+10
-7.64968e+10
-7.64968e+10
-7.64968e+10
-7.64968e+10
-7.64968e+10
-7.64968e+10
-7.64968e+10
-7.64968e+10
-7.64968e+10
-7.64968e+10
-7.64968e+10
-7.64968e+10
-7.64968e+10
-7.64968e+10
-7.64968e+10
-7.64968e+10
-7.64968e+10
-7.64968e+10
-7.64968e+10
-7.64968e+10
-7.64968e+10
-7.64968e+10
-7.64968e+10
-7.64968e+10
-7.64968e+10
-7.64968e+10
-7.64968e+10
-7.64968e+10
-7.64968e+10
-7.64968e+10
-7.64968e+10
-7.64968e+10
-7.64968e+10
-7.64968e+10
-7.64968e+10
-7.64968e+10
-7.64968e+10
-7.64968e+10
-7.64968e+10
-7.64968e+10
-7.64968e+10
-7.64968e+10
-7.64968e+10
-7.64968e+10
-7.64968e+10
-7.64968e+10
-7.64968e+10
-7.64968e+10
-7.64968e+10
-7.64968e+10
-7.64968e+10
-7.64968e+10
-7.64968e+10
-7.64968e+10
-7.64968e+10
-7.64968e+10
-7.64968e+10
-7.64968e+10
-7.64968e+10
-3.28729e+11
-3.28729e+11
-3.28729e+11
-3.28729e+11
-3.28729e+11
-3.28729e+11
-3.28729e+11
-3.28729e+11
-3.28729e+11
-3.28729e+11
-3.28729e+11
-3.28729e+11
-3.28729e+11
-3.28729e+11
-3.28729e+11
-3.28729e+11
-3.28729e+11
-3.28729e+11
-3.28729e+11
-3.28729e+11
-3.28729e+11
-3.28729e+11
-3.28729e+11
-3.28729e+11
-3.28729e+11
-3.28729e+11
-3.28729e+11
-3.28729e+11
-3.28729e+11
-3.28729e+11
-3.28729e+11
-3.28729e+11
-3.28729e+11
-3.28729e+11
-3.28729e+11
-3.28729e+11
-3.28729e+11
-3.28729e+11
-3.28729e+11
-3.28729e+11
-3.28729e+11
-3.28729e+11
-3.28729e+11
-3.28729e+11
-3.28729e+11
-3.28729e+11
-3.28729e+11
-3.28729e+11
-3.28729e+11
-3.28729e+11
-3.28729e+11
-3.28729e+11
-3.28729e+11
-3.28729e+11
-3.28729e+11
-3.28729e+11
-3.28729e+11
-3.28729e+11
-3.28729e+11
-3.28729e+11
-3.28729e+11
-3.28729e+11
-3.28729e+11
-3.28729e+11
-3.28729e+11
-3.28729e+11
-3.28729e+11
-3.28729e+11
-3.28729e+11
-3.28729e+11
-3.28729e+11
-3.28729e+11
-3.28729e+11
-3.28729e+11
-3.28729e+11
-3.28729e+11
-3.28729e+11
-3.28729e+11
-3.28729e+11
-3.28729e+11
-3.28729e+11
-3.28729e+11
-3.28729e+11
-3.28729e+11
-3.28729e+11
-3.28729e+11
-3.28729e+11
-3.28729e+11
-3.28729e+11
-3.28729e+11
-3.28729e+11
-3.28729e+11
-3.28729e+11
-3.28729e+11
-3.28729e+11
-3.28729e+11
-3.28729e+11
-3.28729e+11
-3.28729e+11
-3.28729e+11
-3.28729e+11
-3.28729e+11
-3.28729e+11
-3.28729e+11
-3.28729e+11
-3.28729e+11
-3.28729e+11
-3.28729e+11
-3.28729e+11
-3.28729e+11
-3.28729e+11
-3.28729e+11
-3.28729e+11
-3.28729e+11
-3.28729e+11
-3.28729e+11
-3.28729e+11
-3.28729e+11
-3.28729e+11
-3.28729e+11
-3.28729e+11
-3.28729e+11
-3.28729e+11
-3.28729e+11
-3.28729e+11
-3.28729e+11
-3.28729e+11
-3.28729e+11
-3.28729e+11
-3.28729e+11
-3.28729e+11
-3.28729e+11
-3.28729e+11
-3.28729e+11
-3.28729e+11
-3.28729e+11
-3.28729e+11
-3.28729e+11
-3.28729e+11
-3.28729e+11
-3.28729e+11
-3.28729e+11
-3.28729e+11
-3.28729e+11
-3.28729e+11
-3.28729e+11
-3.28729e+11
-3.28729e+11
-3.28729e+11
-3.28729e+11
-3.28729e+11
-3.28729e+11
-3.28729e+11
-3.28729e+11
-3.28729e+11
-3.28729e+11
-3.28729e+11
-3.28729e+11
-3.28729e+11
-3.28729e+11
-3.28729e+11
-3.28729e+11
-3.28729e+11
-3.28729e+11
-3.28729e+11
-3.28729e+11
-3.28729e+11
-3.28729e+11
-3.28729e+11
-3.28729e+11
-3.28729e+11
-3.28729e+11
-3.28729e+11
-3.28729e+11
-3.28729e+11
-3.28729e+11
-3.28729e+11
-3.28729e+11
-3.28729e+11
-3.28729e+11
-3.28729e+11
-3.28729e+11
-3.28729e+11
-3.28729e+11
-3.28729e+11
-3.28729e+11
-3.28729e+11
-3.28729e+11
-3.28729e+11
-3.28729e+11
-3.28729e+11
-3.28729e+11
-3.28729e+11
-3.28729e+11
-3.28729e+11
-3.28729e+11
-3.28729e+11
-3.28729e+11
-3.28729e+11
-3.28729e+11
-3.28729e+11
-3.28729e+11
-3.28729e+11
-3.28729e+11
-3.28729e+11
-3.28729e+11
-3.28729e+11
-3.28729e+11
-3.28729e+11
-3.28729e+11
-3.28729e+11
-3.28729e+11
-3.28729e+11
-3.28729e+11
-3.28729e+11
-3.28729e+11
-3.28729e+11
-3.28729e+11
-3.28729e+11
-3.28729e+11
-3.28729e+11
-3.28729e+11
-3.28729e+11
-3.28729e+11
-3.28729e+11
-3.28729e+11
-3.28729e+11
-3.28729e+11
-3.28729e+11
-3.28729e+11
-3.28729e+11
-3.28729e+11
-3.28729e+11
-3.28729e+11
-3.28729e+11
-3.28729e+11
-3.28729e+11
-3.28729e+11
-3.28729e+11
-3.28729e+11
-3.28729e+11
-3.28729e+11
-3.28729e+11
-3.28729e+11
-3.28729e+11
-3.28729e+11
-3.28729e+11
-3.28729e+11
-3.28729e+11
-3.28729e+11
-3.28729e+11
-3.28729e+11
-3.28729e+11
-3.28729e+11
-3.28729e+11
-3.28729e+11
-3.28729e+11
-3.28729e+11
-3.28729e+11
-3.28729e+11
-3.2873e+11
-3.2873e+11
-3.2873e+11
-3.2873e+11
-3.2873e+11
-3.2873e+11
-3.2873e+11
-3.2873e+11
-3.2873e+11
-3.2873e+11
-3.2873e+11
-3.2873e+11
-3.2873e+11
-3.2873e+11
-3.28729e+11
-3.28729e+11
-3.28729e+11
-3.28729e+11
-3.28729e+11
-3.28729e+11
-3.28734e+11
-3.28734e+11
-3.28735e+11
-3.28735e+11
-3.28735e+11
-3.28735e+11
-3.28735e+11
-3.28735e+11
-3.28735e+11
-3.28735e+11
-3.28734e+11
-3.28733e+11
-3.28732e+11
-3.28731e+11
-3.2873e+11
-3.28729e+11
-3.28728e+11
-3.28727e+11
-3.28727e+11
-3.28726e+11
-3.2874e+11
-3.28743e+11
-3.28744e+11
-3.28746e+11
-3.28748e+11
-3.28749e+11
-3.2875e+11
-3.2875e+11
-3.28749e+11
-3.28748e+11
-3.28746e+11
-3.28744e+11
-3.28741e+11
-3.28737e+11
-3.28734e+11
-3.2873e+11
-3.28726e+11
-3.28723e+11
-3.28721e+11
-3.28719e+11
-3.2881e+11
-3.28816e+11
-3.2882e+11
-3.28824e+11
-3.28827e+11
-3.28829e+11
-3.28829e+11
-3.28827e+11
-3.28823e+11
-3.28818e+11
-3.2881e+11
-3.28799e+11
-3.28787e+11
-3.28773e+11
-3.28757e+11
-3.28741e+11
-3.28725e+11
-3.28712e+11
-3.287e+11
-3.28692e+11
-3.28911e+11
-3.2896e+11
-3.28988e+11
-3.29021e+11
-3.29046e+11
-3.29066e+11
-3.29077e+11
-3.29077e+11
-3.29064e+11
-3.29039e+11
-3.28999e+11
-3.28948e+11
-3.28887e+11
-3.2882e+11
-3.28749e+11
-3.28675e+11
-3.28605e+11
-3.28541e+11
-3.28488e+11
-3.28489e+11
-3.30153e+11
-3.30204e+11
-3.3026e+11
-3.30291e+11
-3.30297e+11
-3.30263e+11
-3.30191e+11
-3.30083e+11
-3.29946e+11
-3.29786e+11
-3.29616e+11
-3.29454e+11
-3.293e+11
-3.29154e+11
-3.29023e+11
-3.2891e+11
-3.28825e+11
-3.2876e+11
-3.28697e+11
-3.2874e+11
-3.30968e+11
-3.32562e+11
-3.33379e+11
-3.34154e+11
-3.3462e+11
-3.34924e+11
-3.35038e+11
-3.34924e+11
-3.34666e+11
-3.34339e+11
-3.33965e+11
-3.33588e+11
-3.33232e+11
-3.32905e+11
-3.3262e+11
-3.32384e+11
-3.32217e+11
-3.32126e+11
-3.32067e+11
-3.32182e+11
)
;

boundaryField
{
    outletWall
    {
        type            fixedValue;
        value           uniform 0;
    }
    fineWalls
    {
        type            zeroGradient;
    }
    fineFrontAndBack
    {
        type            zeroGradient;
    }
    fineplugLeft
    {
        type            cyclicAMI;
        value           nonuniform List<scalar> 
20
(
-8.19109e+10
-8.11654e+10
-8.06387e+10
-8.00529e+10
-7.95234e+10
-7.8999e+10
-7.85008e+10
-7.8019e+10
-7.7557e+10
-7.71235e+10
-7.67066e+10
-7.62648e+10
-7.59897e+10
-7.62827e+10
-7.49291e+10
-7.45857e+10
-7.43572e+10
-7.4091e+10
-7.38171e+10
-7.37644e+10
)
;
    }
    fineplugRight
    {
        type            cyclicAMI;
        value           nonuniform List<scalar> 
20
(
-3.14886e+11
-3.16009e+11
-3.18212e+11
-3.20265e+11
-3.22263e+11
-3.2431e+11
-3.26371e+11
-3.28437e+11
-3.30523e+11
-3.32589e+11
-3.34717e+11
-3.36657e+11
-3.38915e+11
-3.42994e+11
-3.46641e+11
-3.49073e+11
-3.52286e+11
-3.55058e+11
-3.57732e+11
-3.60661e+11
)
;
    }
    inletOutletLeft
    {
        type            cyclicAMI;
        value           nonuniform List<scalar> 
20
(
-8.19109e+10
-8.11654e+10
-8.06387e+10
-8.00529e+10
-7.95234e+10
-7.8999e+10
-7.85008e+10
-7.8019e+10
-7.7557e+10
-7.71235e+10
-7.67066e+10
-7.62648e+10
-7.59897e+10
-7.62827e+10
-7.49291e+10
-7.45857e+10
-7.43572e+10
-7.4091e+10
-7.38171e+10
-7.37644e+10
)
;
    }
    inletLeft
    {
        type            zeroGradient;
    }
    inletWallsLeft
    {
        type            zeroGradient;
    }
    inletFacesLeft
    {
        type            zeroGradient;
    }
    inletOutletRight
    {
        type            cyclicAMI;
        value           nonuniform List<scalar> 
20
(
-3.14886e+11
-3.16009e+11
-3.18212e+11
-3.20265e+11
-3.22263e+11
-3.2431e+11
-3.26371e+11
-3.28437e+11
-3.30523e+11
-3.32589e+11
-3.34717e+11
-3.36657e+11
-3.38915e+11
-3.42994e+11
-3.46641e+11
-3.49073e+11
-3.52286e+11
-3.55058e+11
-3.57732e+11
-3.60661e+11
)
;
    }
    inletRight
    {
        type            zeroGradient;
    }
    inletWallsRight
    {
        type            zeroGradient;
    }
    inletFacesRight
    {
        type            zeroGradient;
    }
}


// ************************************************************************* //
