/*--------------------------------*- C++ -*----------------------------------*\
| =========                 |                                                 |
| \\      /  F ield         | OpenFOAM: The Open Source CFD Toolbox           |
|  \\    /   O peration     | Version:  4.1                                   |
|   \\  /    A nd           | Web:      www.OpenFOAM.org                      |
|    \\/     M anipulation  |                                                 |
\*---------------------------------------------------------------------------*/
FoamFile
{
    version     2.0;
    format      ascii;
    class       surfaceScalarField;
    location    "26";
    object      phi;
}
// * * * * * * * * * * * * * * * * * * * * * * * * * * * * * * * * * * * * * //

dimensions      [0 3 -1 0 0 0 0];

internalField   nonuniform List<scalar> 
2360
(
2.65474e+08
2.42997e+08
2.2472e+07
2.43005e+08
2.42998e+08
2.21135e+08
2.18706e+07
2.21131e+08
2.21135e+08
2.21131e+08
2.1983e+08
1.30645e+06
2.19828e+08
2.19835e+08
2.22773e+08
-2.94021e+06
2.22777e+08
2.22773e+08
2.24445e+08
-1.66396e+06
2.24443e+08
2.24454e+08
2.19691e+08
4.76049e+06
2.19696e+08
2.1969e+08
2.16999e+08
2.14506e+08
2.12351e+08
2.10413e+08
2.08739e+08
2.07255e+08
2.09135e+08
-2.77477e+06
2.0845e+08
2.07816e+08
2.07329e+08
2.07062e+08
2.07046e+08
2.07338e+08
2.07986e+08
2.09022e+08
2.10505e+08
2.12459e+08
2.15027e+08
2.18234e+08
2.22598e+08
2.6937e+08
-4.6769e+07
2.69369e+08
2.69369e+08
2.69369e+08
3.18547e+08
-4.91766e+07
3.18545e+08
3.18549e+08
3.18546e+08
3.69065e+08
-5.05124e+07
3.69064e+08
3.69069e+08
4.18199e+08
-4.91315e+07
4.18204e+08
4.18204e+08
4.18208e+08
4.67445e+08
-4.92372e+07
4.67452e+08
4.67453e+08
4.67459e+08
5.03795e+08
-3.63365e+07
4.94791e+08
4.85831e+08
4.78271e+08
4.71947e+08
4.6672e+08
4.62515e+08
4.59297e+08
4.57034e+08
4.557e+08
4.55315e+08
4.55864e+08
4.57291e+08
4.59484e+08
5.80291e+08
-1.17828e+08
5.84038e+08
5.88694e+08
5.94385e+08
6.01362e+08
6.09846e+08
6.21704e+08
6.21707e+08
6.21716e+08
8.3516e+08
-2.13446e+08
8.35163e+08
8.35159e+08
1.08428e+09
-2.49119e+08
1.08428e+09
1.08428e+09
1.37659e+09
-2.92315e+08
1.37659e+09
1.37659e+09
2.09479e+09
-7.182e+08
2.09479e+09
2.0948e+09
2.09479e+09
-4.28781e+09
6.3826e+09
-4.28781e+09
-4.28781e+09
1.66552e+09
-5.95332e+09
-8.33191e+07
-5.34516e+06
-7.72081e+07
-1.5776e+07
-1.09452e+08
2.80571e+06
-1.36255e+08
1.81232e+06
-1.73864e+08
2.92373e+06
-2.20844e+08
4.22661e+06
-2.81627e+08
6.35445e+06
-3.59978e+08
9.45518e+06
-4.61393e+08
1.38044e+07
-5.92801e+08
1.9579e+07
-7.63796e+08
2.74402e+07
-9.89389e+08
4.08034e+07
-1.29557e+09
7.09474e+07
-1.71954e+09
1.30193e+08
-2.27675e+09
1.91442e+08
-2.91524e+09
1.72933e+08
-3.56186e+09
-2.10098e+08
-2.97857e+09
-1.98836e+09
-5.13909e+09
-2.17565e+07
3.1068e+07
-2.06531e+07
-1.68798e+07
-2.73166e+07
9.46873e+06
-3.38681e+07
8.36313e+06
-4.84269e+07
1.7482e+07
-6.53289e+07
2.11279e+07
-8.75908e+07
2.86158e+07
-1.16174e+08
3.80375e+07
-1.54283e+08
5.19134e+07
-2.086e+08
7.38947e+07
-2.91343e+08
1.10183e+08
-4.17014e+08
1.66475e+08
-5.85786e+08
2.39719e+08
-7.58345e+08
3.02752e+08
-8.52638e+08
2.85737e+08
-8.86736e+08
2.07032e+08
-1.42798e+09
3.31148e+08
-3.14221e+09
-2.7413e+08
-1.89869e+09
326486
3.03771e+07
-1.38502e+07
-2.70344e+06
-1.58854e+07
1.1504e+07
-2.11841e+07
1.36618e+07
-2.69818e+07
2.32799e+07
-3.52421e+07
2.93883e+07
-4.55868e+07
3.89609e+07
-5.91546e+07
5.16056e+07
-7.7716e+07
7.04756e+07
-1.04212e+08
1.00391e+08
-1.41591e+08
1.47562e+08
-1.87347e+08
2.12231e+08
-2.21908e+08
2.74282e+08
-1.90252e+08
2.71098e+08
-3.40544e+07
1.29543e+08
1.87938e+08
-1.49575e+07
5.95106e+08
-7.60174e+07
1.04954e+09
-7.28564e+08
-1.56735e+09
7.5313e+06
1.83909e+07
-7.01022e+06
1.18377e+07
-1.10231e+07
1.55168e+07
-1.50626e+07
1.77012e+07
-1.78046e+07
2.60219e+07
-2.19515e+07
3.35353e+07
-2.7084e+07
4.40937e+07
-3.37721e+07
5.82937e+07
-4.22696e+07
7.89735e+07
-5.19903e+07
1.10112e+08
-5.98339e+07
1.55407e+08
-5.59649e+07
2.08363e+08
-1.99044e+07
2.38224e+08
8.76135e+07
1.63583e+08
2.30757e+08
-1.35967e+07
3.57026e+08
-1.41224e+08
4.81354e+08
-2.00344e+08
4.33653e+08
-6.80859e+08
-1.42601e+09
1.19399e+06
1.29401e+07
-4.59708e+06
1.76285e+07
-7.34142e+06
1.82613e+07
-9.58799e+06
1.9948e+07
-1.10064e+07
2.74408e+07
-1.25007e+07
3.50299e+07
-1.40638e+07
4.56575e+07
-1.56065e+07
5.98369e+07
-1.63708e+07
7.97388e+07
-1.38151e+07
1.07557e+08
-1.73235e+06
1.43325e+08
2.90711e+07
1.77561e+08
8.87065e+07
1.7859e+08
1.81016e+08
7.12745e+07
2.57287e+08
-8.9865e+07
3.2294e+08
-2.06875e+08
4.32497e+08
-3.09898e+08
4.34304e+08
-6.82662e+08
-1.24082e+09
-3.96948e+06
1.2389e+07
-4.44066e+06
1.80996e+07
-5.18059e+06
1.90015e+07
-6.32033e+06
2.10881e+07
-6.72406e+06
2.78453e+07
-6.64791e+06
3.49545e+07
-5.86302e+06
4.48738e+07
-3.80988e+06
5.77848e+07
966254
7.49641e+07
1.1379e+07
9.71459e+07
3.32407e+07
1.21466e+08
7.19081e+07
1.38896e+08
1.36649e+08
1.13853e+08
2.06489e+08
1.43835e+06
2.47594e+08
-1.30967e+08
2.82739e+08
-2.42016e+08
3.30505e+08
-3.57659e+08
3.16441e+08
-6.68593e+08
-1.13782e+09
-5.62033e+06
1.36706e+07
-4.0385e+06
1.65176e+07
-3.79351e+06
1.87568e+07
-4.02543e+06
2.13203e+07
-3.55106e+06
2.73714e+07
-2.3682e+06
3.37719e+07
142068
4.23642e+07
4.78353e+06
5.31438e+07
1.31132e+07
6.66354e+07
2.77978e+07
8.24621e+07
5.3442e+07
9.58229e+07
9.35905e+07
9.87489e+07
1.52858e+08
5.45871e+07
2.04775e+08
-5.04782e+07
2.27962e+08
-1.54152e+08
2.47858e+08
-2.61911e+08
2.76941e+08
-3.86739e+08
2.45536e+08
-6.37184e+08
-1.01011e+09
-5.28025e+06
1.5188e+07
-3.3004e+06
1.45379e+07
-2.73296e+06
1.819e+07
-2.22595e+06
2.08142e+07
-950151
2.60969e+07
1.28399e+06
3.15392e+07
5.19369e+06
3.84563e+07
1.16914e+07
4.66478e+07
2.2218e+07
5.6111e+07
3.92019e+07
6.54806e+07
6.5294e+07
6.97337e+07
1.06141e+08
5.79051e+07
1.55297e+08
5.43578e+06
1.87343e+08
-8.25212e+07
2.04694e+08
-1.715e+08
2.16613e+08
-2.73826e+08
2.26072e+08
-3.96193e+08
1.78313e+08
-5.89417e+08
-8.6812e+08
-4.2999e+06
1.62456e+07
-2.56205e+06
1.27998e+07
-1.82161e+06
1.74497e+07
-792781
1.97854e+07
1.16042e+06
2.4144e+07
4.32864e+06
2.83711e+07
9.32479e+06
3.34607e+07
1.70945e+07
3.88785e+07
2.89486e+07
4.42578e+07
4.69821e+07
4.74476e+07
7.32812e+07
4.34359e+07
1.11914e+08
1.92726e+07
1.5013e+08
-3.27786e+07
1.70835e+08
-1.03227e+08
1.83123e+08
-1.83787e+08
1.89922e+08
-2.80623e+08
1.90632e+08
-3.96902e+08
1.54498e+08
-5.5328e+08
-7.62858e+08
-3.29366e+06
1.67389e+07
-1.87708e+06
1.13837e+07
-973344
1.65468e+07
444927
1.83685e+07
2.89354e+06
2.16971e+07
6.76508e+06
2.45015e+07
1.25808e+07
2.76473e+07
2.124e+07
3.02218e+07
3.40254e+07
3.14754e+07
5.26041e+07
2.88722e+07
7.97057e+07
1.63383e+07
1.11763e+08
-1.27807e+07
1.36885e+08
-5.78971e+07
1.52452e+08
-1.1879e+08
1.62176e+08
-1.93507e+08
1.65793e+08
-2.84235e+08
1.60361e+08
-3.91463e+08
1.29244e+08
-5.22156e+08
-6.82736e+08
-2.43111e+06
1.67648e+07
-1.25511e+06
1.02073e+07
-179122
1.54708e+07
1.58116e+06
1.66081e+07
4.36416e+06
1.89143e+07
8.71719e+06
2.01485e+07
1.51551e+07
2.12098e+07
2.4521e+07
2.0856e+07
3.80881e+07
1.79089e+07
5.7483e+07
9.47757e+06
8.17194e+07
-7.89769e+06
1.04629e+08
-3.5691e+07
1.22335e+08
-7.56025e+07
1.35089e+08
-1.31545e+08
1.42883e+08
-2.01301e+08
1.44213e+08
-2.85565e+08
1.35872e+08
-3.83122e+08
1.10935e+08
-4.97217e+08
-6.22314e+08
-1.71116e+06
1.6418e+07
-671411
9.16841e+06
542411
1.42579e+07
2.58123e+06
1.45711e+07
5.61453e+06
1.58834e+07
1.03192e+07
1.54466e+07
1.72671e+07
1.42651e+07
2.73727e+07
1.07539e+07
4.15965e+07
3.68876e+06
5.91079e+07
-8.03025e+06
7.70057e+07
-2.57918e+07
9.33127e+07
-5.19946e+07
1.07809e+08
-9.00956e+07
1.18803e+08
-1.42535e+08
1.24952e+08
-2.07445e+08
1.24455e+08
-2.85063e+08
1.14542e+08
-3.73202e+08
9.3709e+07
-4.76376e+08
-5.77772e+08
-1.09396e+06
1.57546e+07
-126164
8.20005e+06
1.15907e+06
1.29726e+07
3.38753e+06
1.23425e+07
6.6426e+06
1.26285e+07
1.16398e+07
1.04492e+07
1.92306e+07
6.67432e+06
2.97528e+07
231366
4.21102e+07
-8.66893e+06
5.50828e+07
-2.10036e+07
6.83541e+07
-3.90638e+07
8.18694e+07
-6.55108e+07
9.43511e+07
-1.02578e+08
1.03706e+08
-1.5189e+08
1.08364e+08
-2.12104e+08
1.06305e+08
-2.83004e+08
9.54738e+07
-3.62371e+08
7.45823e+07
-4.55484e+08
-5.49964e+08
-646664
1.48944e+07
376052
7.17864e+06
1.68862e+06
1.1661e+07
3.97307e+06
1.00608e+07
7.419e+06
9.1858e+06
1.28219e+07
5.0501e+06
2.0541e+07
-1.04111e+06
2.9249e+07
-8.47312e+06
3.83323e+07
-1.77489e+07
4.84421e+07
-3.11102e+07
5.96527e+07
-5.0271e+07
7.12482e+07
-7.71028e+07
8.18659e+07
-1.13192e+08
8.9625e+07
-1.59645e+08
9.30068e+07
-2.15481e+08
8.98004e+07
-2.79792e+08
7.79951e+07
-3.50559e+08
4.93801e+07
-4.26861e+08
-5.03345e+08
-343518
1.3967e+07
765099
6.06942e+06
2.10826e+06
1.0318e+07
4.31754e+06
7.85165e+06
8.01863e+06
5.48449e+06
1.35039e+07
-435676
1.9574e+07
-7.11205e+06
2.58818e+07
-1.4782e+07
3.32917e+07
-2.51598e+07
4.19352e+07
-3.97548e+07
5.15279e+07
-5.98649e+07
6.13264e+07
-8.69024e+07
7.02009e+07
-1.22067e+08
7.65257e+07
-1.65971e+08
7.88913e+07
-2.17848e+08
7.52243e+07
-2.76126e+08
6.3722e+07
-3.39057e+08
3.89902e+07
-4.02129e+08
-4.59601e+08
-96363.2
1.29685e+07
1.07587e+06
4.8988e+06
2.38165e+06
9.01317e+06
4.49494e+06
5.74165e+06
8.25664e+06
1.72697e+06
1.26676e+07
-4.84334e+06
1.70156e+07
-1.14572e+07
2.21807e+07
-1.99442e+07
2.84628e+07
-3.1439e+07
3.57686e+07
-4.70575e+07
4.37949e+07
-6.78879e+07
5.19153e+07
-9.50193e+07
5.91946e+07
-1.29343e+08
6.42312e+07
-1.71003e+08
6.57889e+07
-2.19401e+08
6.19459e+07
-2.72278e+08
5.14318e+07
-3.28536e+08
3.26596e+07
-3.83349e+08
-4.28592e+08
35108.4
1.21139e+07
1.15685e+06
3.7768e+06
2.43559e+06
7.73507e+06
4.50618e+06
3.67183e+06
7.761e+06
-1.52726e+06
1.07523e+07
-7.83487e+06
1.42224e+07
-1.49276e+07
1.85024e+07
-2.42246e+07
2.36832e+07
-3.66201e+07
2.9665e+07
-5.30395e+07
3.61963e+07
-7.44195e+07
4.27516e+07
-1.01575e+08
4.85692e+07
-1.35161e+08
5.24743e+07
-1.74908e+08
5.34343e+07
-2.20361e+08
4.96219e+07
-2.68465e+08
4.04521e+07
-3.19366e+08
2.41064e+07
-3.67002e+08
-4.07432e+08
257046
1.10206e+07
1.31154e+06
2.72251e+06
2.45169e+06
6.5949e+06
4.19081e+06
1.93347e+06
6.58371e+06
-3.92002e+06
8.85986e+06
-1.01113e+07
1.16536e+07
-1.77216e+07
1.51233e+07
-2.76945e+07
1.93076e+07
-4.08046e+07
2.41234e+07
-5.78556e+07
2.93606e+07
-7.96569e+07
3.45892e+07
-1.06803e+08
3.91966e+07
-1.39768e+08
4.22195e+07
-1.77931e+08
4.28031e+07
-2.20945e+08
3.92186e+07
-2.64881e+08
3.11239e+07
-3.11272e+08
1.38479e+07
-3.49727e+08
-3.92276e+08
-202473
1.12355e+07
524215
1.99597e+06
2.03471e+06
5.08466e+06
3.96205e+06
6755.38
5.67769e+06
-5.63541e+06
7.35269e+06
-1.17861e+07
9.5099e+06
-1.98787e+07
1.22388e+07
-3.04233e+07
1.55354e+07
-4.4101e+07
1.932e+07
-6.16399e+07
2.34096e+07
-8.37464e+07
2.74628e+07
-1.10856e+08
3.09672e+07
-1.43272e+08
3.321e+07
-1.80174e+08
3.338e+07
-2.21115e+08
3.03053e+07
-2.61806e+08
2.27812e+07
-3.03747e+08
4.21519e+06
-3.3116e+08
-3.6619e+08
363181
1.85043e+06
3.26741e+06
3.55103e+06
3.20551e+06
3.60753e+06
4.4999e+06
5.69395e+06
7.14478e+06
8.80379e+06
1.057e+07
1.22995e+07
1.37175e+07
1.46012e+07
1.43779e+07
1.30822e+07
8.94243e+06
2.20494e+06
3.63607e+06
-949656
6.40546e+06
-289514
7.15663e+06
1.41101e+06
7.60667e+06
1.47156e+06
7.93261e+06
1.34163e+06
8.12524e+06
1.28491e+06
8.05794e+06
965681
7.99086e+06
767797
8.00634e+06
643403
7.9888e+06
517452
7.89698e+06
376237
7.70998e+06
215547
7.40197e+06
27103.9
6.9565e+06
-191247
6.35838e+06
-431372
5.58902e+06
-702230
4.62377e+06
-989864
3.41801e+06
-1.36102e+06
1.90411e+06
-1.69211e+06
-2.45938e+06
-202283
-754197
-155305
-346754
495913
759369
1.12654e+06
837518
1.72878e+06
739867
2.32843e+06
683261
2.7448e+06
549811
3.10218e+06
408991
3.45473e+06
291335
3.77713e+06
194017
4.04941e+06
104276
4.24872e+06
15481.9
4.34372e+06
-67702.6
4.30273e+06
-150752
4.10951e+06
-238222
3.74467e+06
-337607
3.20031e+06
-445795
2.42638e+06
-587412
1.45512e+06
-721282
-1.00426e+06
-1.02662e+06
269923
-1.53909e+06
163537
-1.03015e+06
248649
-534568
338427
-136122
337851
215358
326285
495050
267247
716051
183891
897262
108462
1.04244e+06
45761.8
1.15426e+06
-8535.29
1.22832e+06
-60750.5
1.26719e+06
-107020
1.26398e+06
-148845
1.21578e+06
-190332
1.11491e+06
-237335
957946
-288953
729907
-359417
431452
-422880
-572806
-66721.6
337555
-108768
205967
14953.4
126011
219926
133311
436087
122356
656926
105065
843969
80759.8
976628
50896.7
1.06452e+06
21175.6
1.1147e+06
-4635.99
1.1316e+06
-24833.6
1.11345e+06
-42648.9
1.0669e+06
-59837.8
996135
-77950.6
904394
-97973.3
789161
-121810
649564
-148791
476234
-185509
275016
-220993
-297799
116757
217449
131673
186418
142872
111006
198914
72959.1
266542
52250.3
331946
36687
387286
23642
424283
11588.6
444364
-400.823
450595
-12737.6
448655
-24135.6
439312
-34775.1
423685
-45320.5
401034
-56446.2
370471
-68485.1
330117
-82323.6
277725
-97277.2
208638
-117230
121525
-134771
-176273
127582
90084
199824
114099
227705
83304.2
249610
50884.9
273587
28540.4
296150
14036.5
315928
4188.43
330498
-2974.68
338656
-8221.95
338785
-12792.9
332182
-17240.8
319455
-21926.4
301473
-27079.4
278141
-32971.1
249546
-39682.5
215050
-47698.1
174554
-56650.5
126148
-68715.3
71533.6
-80052.2
-104744
57972.7
31799.8
119013
52905.9
153895
48023.7
169890
34592.6
176068
21860.1
177801
11949.1
177037
4395.8
175282
-1542.17
172760
-6236.67
169726
-10013.8
165293
-13299.1
159634
-16472.8
151850
-19789.2
142134
-23450.3
129493
-27510.4
113813
-32248.3
94154.8
-37427.7
69408
-44387.5
39507.8
-50613.5
-65229.4
35641.7
-1229.49
77254
13259.1
108520
17398.9
128872
15475.9
139875
11407.5
145734
7191.28
147243
3549.32
146110
633.337
142303
-1731.04
137027
-3782.9
130183
-5749.54
122383
-7793.76
113300
-9988.72
103055
-12424.7
91403.1
-15105.8
78031.8
-18219.5
62833.9
-21630.9
45170.8
-26156.6
25579.9
-30389
-39653.1
3361.17
-4235.17
17702.3
-1019.96
33244.5
1931.47
45937.7
2868.94
55023.4
2330.38
61208.3
1109.46
64993.4
-287.012
67357
-1619.88
68275.7
-2753.13
68369.1
-3770.57
67274.9
-4801.84
65482.5
-5911.04
62405.1
-7127.69
58507.1
-8482.79
53145.2
-9979.93
46615.1
-11719.8
38303.6
-13617.1
28022.9
-16167.1
15792.6
-18478.2
-23858.6
2913.26
-5836.67
8371.01
-5688.73
15776.7
-4752.11
23033.1
-3851.87
29218.1
-3319.24
33892.8
-3068.09
37063.1
-2977.9
38945.2
-3037.37
39852.5
-3229.43
40057.4
-3542.56
39583.1
-3954.52
38533.5
-4463.66
36784.2
-5060.51
34414.3
-5765.79
31287.6
-6566.28
27375.6
-7524.94
22503.9
-8576.91
16515
-10023.6
9521.08
-11313.7
-14336.4
551.214
-5378.66
1269
-5442.74
2567.15
-5214.31
4482.05
-4933.62
6466.9
-4706.31
8588.3
-4533.78
10466.6
-4402.14
12296.3
-4329.34
13733.6
-4309.17
14990.2
-4348.88
15762.1
-4445.58
16288.9
-4604.69
16263.7
-4821.28
15922.1
-5106.56
14999.2
-5450.26
13603.1
-5885.93
11485.6
-6368.98
8644.41
-7092.05
5101.03
-7663.68
-9230.97
889.94
-4729.65
1659.93
-4803.23
2269.29
-4624.45
2998.24
-4464.63
3652.09
-4357.03
4419.19
-4284.49
5102.38
-4211.29
5800.77
-4166.37
6387.58
-4134.27
6900.9
-4134.61
7267.34
-4157.42
7503.46
-4217.85
7565.54
-4304.03
7424.88
-4433.41
7107.8
-4591.47
6480.45
-4803.23
5543.9
-5036.92
4259.04
-5429.15
2689.89
-5687.27
-6536.54
481.229
-3633.94
940.053
-3775.36
1282.3
-3687.85
1724.68
-3601.23
2023.85
-3565.11
2442.57
-3550.37
2741.08
-3537.99
3124.39
-3536.89
3385.46
-3542.53
3684.36
-3560.23
3844.78
-3590.22
4015.37
-3635.85
4035.51
-3695.02
4009.3
-3773.44
3866.87
-3867.24
3566.71
-3986.77
3053.16
-4115.42
2365.69
-4352.36
1556
-4463.29
-4975.93
468.731
-3055.24
842.873
-3193.32
1125.91
-3101.81
1399.62
-3023.11
1605.85
-2992.88
1808.99
-2979.4
1980.74
-2975.38
2128.48
-2976.07
2263.39
-2988.47
2347.2
-3003.95
2418.34
-3034.38
2431.23
-3069.71
2435.11
-3118.96
2352.57
-3173.85
2283.31
-3243.92
2075.07
-3322.59
1789.12
-3411.6
1410.37
-3574.16
994.509
-3631.81
-3975.96
402.485
-2203.4
695.777
-2393.87
950.568
-2336.48
1171.94
-2290.62
1370.44
-2284.63
1529.94
-2287.22
1699.68
-2297.62
1802.72
-2308.76
1934.63
-2329.84
1974.01
-2350.43
2039.84
-2383.65
2016.47
-2417.23
2027.53
-2462.72
1928.43
-2508.37
1886.58
-2566.81
1693.73
-2627.66
1467.57
-2696.57
1175.3
-2815.83
873.058
-2849.06
-3098.72
350.766
-1842.6
562.533
-1998.28
764.658
-1943.91
910.534
-1905.83
1068.73
-1898.97
1153.29
-1898.54
1284.65
-1903.74
1319.56
-1910.07
1425
-1923.49
1411.68
-1937.04
1472.65
-1959.44
1415.22
-1982.5
1441.58
-2013.66
1338.6
-2045.43
1324.14
-2085.9
1172.1
-2128.41
1030.58
-2176.26
837.942
-2260.17
640.858
-2278.84
-2454.72
246.895
-1468.79
409.709
-1615.41
564.448
-1573.56
697.934
-1552.62
826.065
-1552.87
921.571
-1556.37
1028.98
-1562.37
1088.04
-1569.33
1169.07
-1580.08
1187.75
-1591.36
1225.66
-1607.73
1205.14
-1624.96
1206.57
-1646.89
1141.08
-1669.78
1108.72
-1697.76
989.107
-1727.51
851.166
-1760.41
676.356
-1818.11
502.118
-1827.54
-1950.3
188.904
-1286.29
300.185
-1399.19
413.265
-1360.27
502.589
-1346.29
597.431
-1345.89
656.056
-1346.87
735.796
-1349.79
767.44
-1352.83
830.239
-1358.79
833.479
-1364.44
867.499
-1374.04
843.635
-1383.54
853.038
-1396.71
799.592
-1409.73
783.31
-1426.98
696.266
-1444.08
604.587
-1465.28
482.752
-1499.97
363.136
-1504.7
-1584.85
167.35
-1072.2
255.952
-1149.7
357.576
-1124.25
435.346
-1120.29
521.562
-1121.74
572.788
-1123.38
647.035
-1125.45
674.333
-1127.44
733.549
-1130.5
735.103
-1133.31
767.431
-1137.99
744.782
-1142.56
755.741
-1148.91
706.804
-1155.17
695.574
-1163.75
616.597
-1172.03
536.525
-1184
430.996
-1200.94
332.705
-1206.24
-1250.2
139.39
179.604
256.749
308.842
377.683
410.619
473.286
489.371
543.754
542.311
578.246
559.821
581.027
544.162
546.104
487.854
433.015
353.668
275.205
4026.62
2123
5628.74
2600.45
6481.04
2602.71
6948.51
2628.1
7139.54
2626.29
7104.78
2635.67
6883.17
2652.61
6410.92
2663.75
5958.63
2624.3
5431.83
2543.98
5038.12
2483.15
4580.35
2444.81
4267.08
2430.41
3830.33
2427.85
3619.82
2437.89
3175.28
2458.41
2749.84
2500.26
2267.81
2634.68
2040.97
2671.54
3035.26
696.324
3912.31
1430.77
4117.15
2173.46
4077.67
2801.04
4031.57
3372.55
4026.72
3748.17
4027.59
4084.7
4017.18
4204.64
3994.97
4340.74
3957.71
4247.42
3912.07
4186.34
3882
3964.48
3864.7
3829.11
3865.12
3522.48
3876.73
3382.76
3907.27
2979.7
3955.63
2555.14
4019.08
2068.07
4216.65
1669.78
4286.22
4718.63
264.61
5513.49
500.792
5612.56
790.331
5521.61
1084.5
5367.81
1411.01
5323.86
1676.88
5274.07
2019.68
5223.97
2245.78
5173.28
2540.84
5131.03
2659.78
5093.69
2822.99
5073.93
2840.22
5067.09
2914.02
5078.81
2817.83
5107.37
2828.65
5158.49
2587.21
5234.74
2266.39
5319.1
1853.58
5565.46
1460.65
5651.04
6191.01
345.257
6960.24
719.918
6932.5
1078.59
6823.13
1434.15
6623.61
1765.63
6565.18
2077.71
6489.43
2399.58
6428.31
2645.45
6371.18
2904.18
6329.4
3046.7
6295.49
3176.87
6284.31
3206.95
6289.57
3222.98
6316.56
3109.24
6363.88
3038.52
6434.31
2750.54
6530.77
2342.17
6628.95
1854.01
6902.82
1402.82
6969.6
7605.18
344.4
8384.89
739.186
8219.67
1120.7
8114.21
1448.47
7901.21
1779.06
7840.81
2042.56
7758.62
2354.53
7697.77
2541.21
7643.93
2796.41
7604.66
2880.35
7578.23
3012.11
7571
2989.66
7585.66
3021.32
7615.41
2871.52
7671.52
2824.74
7739.48
2533.14
7838.49
2167.35
7922.51
1721.99
8202.06
1319.5
8227.72
8931
310.84
9388.39
751.444
9103.29
1034.93
9069.64
1361.76
8875.78
1571.03
8822.77
1863.52
8749.09
2056.07
8679.38
2316.53
8630.47
2464.78
8575.09
2660.59
8553.21
2709.57
8528.58
2822.12
8548.9
2763.58
8559.95
2748.36
8623.36
2625.98
8673.04
2439.44
8781.78
2026.48
8853.63
1540.3
9163.65
1061.15
9190.95
9997.25
8.87031
10965.4
195.758
10525.5
417.15
10382.9
750.941
10115.4
1049.71
9980.81
1458.26
9857.12
1809.59
9725.34
2215.5
9648.56
2529.07
9546.15
2857.38
9515.58
3035.43
9455.65
3245.75
9477.26
3272.6
9462.23
3295.71
9544.58
3180.66
9581.33
2942.78
9734.53
2436.72
9816.46
1796.25
10183.9
1107.91
10256.1
11096
680.04
9691.79
1316.17
9388.59
1777.68
9406.44
2318.63
9269.65
2583.31
9260.57
3069.75
9250.13
3154.03
9207.37
3594.66
9226.24
3509
9187.94
3873.11
9241.58
3628.96
9228.27
3882.62
9328.23
3398.2
9344.48
3470.06
9501.83
2866.31
9546.94
2733
9746.03
1983.73
9811.69
1248.21
10220.6
453.263
10355.6
11562.9
1081.51
13732.8
2335.41
12938.5
3201.36
12853.6
4003.45
12623.4
4463.73
12516.1
5043.59
12421.2
5336.07
12281.8
5761.41
12216
5887.43
12064.2
6178.33
12018.4
6118.87
11852.5
6336.62
11811.2
6235.31
11602.9
6391.54
11565.3
6372.26
11386.7
6195.65
11489.1
5478.85
11631.9
4330.61
12260
2597.78
12991.2
14126.6
-2232.57
14180.6
-3811.39
13074.8
-5527.16
13134.7
-6780.7
12939.7
-8386.65
12865.4
-9238.61
12720.4
-10746.9
12550.7
-11162
12362.3
-12518.7
12107.2
-12442.6
11866.4
-13546.9
11547.6
-13002.6
11262.6
-13979.9
10861.7
-13014.2
10451.8
-13284.2
9788.42
-11399.9
8978.46
-9794.27
7873.4
-6694.79
7033.28
-3857.99
7696.93
10235.4
-9595.83
23078.7
-17462.9
19875.3
-23620.6
19213.9
-29655.7
18443.6
-34569.8
17971
-39453.5
17446.4
-43641
16949.7
-47567.4
16379
-51089.9
15756.6
-54003.6
15041.7
-56756.1
14214.4
-58365.3
13208.5
-59751.5
11858
-58923.2
9924.38
-56814.1
7047.13
-50860.9
2982.44
-41673.2
-2261.48
-28003.5
-7633.25
-12588.9
-9694.8
-2415.55
-14570.1
29928.7
-28718.9
27478.1
-41451.2
27174.3
-54103.6
26659.2
-65825
26274.1
-77418.4
25767.3
-88370.2
25156.7
-98839.5
24340.4
-108616
23258.6
-117330
21779.5
-124736
19732.9
-130031
16840.6
-132577
12719
-131066
6916.03
-124631
-1036.05
-111538
-11419.2
-90902.8
-24054.4
-62608.9
-37024
-29830.8
-44466.6
-32234.1
-29747.9
61731.4
-55074.1
54238.3
-79283.8
52819.2
-102549
51020.8
-124981
49815.5
-146782
48472
-167684
46944.7
-187581
44942.6
-205902
42236.8
-222111
38465
-235082
33193.9
-243821
25821.8
-246340
15689.9
-241470
2103.66
-226536
-15609.4
-200112
-37948.5
-159411
-64279.2
-105988
-90154.9
-46238.1
-103813
-78526.3
-49477.1
103637
-97940.8
97130.8
-145118
95262.5
-191134
93365.6
-236497
91620.7
-280181
89391.9
-322627
86405.6
-362225
82294.9
-399205
76609.2
-431379
68715.8
-458140
57704.6
-476402
42343.5
-484000
21199.8
-476185
-7307.73
-448774
-44905.5
-395368
-92759.6
-312316
-148653
-202397
-201419
-84426.4
-223931
-162995
-118629
220976
-217572
195742
-314319
191052
-405495
184485
-494983
180209
-581087
175506
-665703
170115
-746289
162812
-823089
152430
-891886
137284
-950350
115172
-991723
83293.2
-1.01019e+06
38599.8
-995882
-22225.2
-939599
-102283
-828763
-204394
-653551
-324719
-417410
-438558
-162035
-481009
-325110
-175886
388837
-366978
382146
-560449
379283
-754976
376284
-950937
372008
-1.14201e+06
364680
-1.32806e+06
352523
-1.50083e+06
334019
-1.65905e+06
307312
-1.79342e+06
270204
-1.90105e+06
219782
-1.97165e+06
152385
-1.99957e+06
63562.2
-1.97075e+06
-52594.6
-1.87096e+06
-204695
-1.67064e+06
-406214
-1.3413e+06
-656055
-872264
-909456
-335236
-1.02118e+06
-660340
-589459
985432
-1.04908e+06
848878
-1.47585e+06
809520
-1.85316e+06
758839
-2.19861e+06
719541
-2.50811e+06
678498
-2.79109e+06
636908
-3.04529e+06
591708
-3.27735e+06
540151
-3.48288e+06
478351
-3.66287e+06
400193
-3.80421e+06
295534
-3.89158e+06
151146
-3.89433e+06
-48867.8
-3.76779e+06
-331054
-3.44589e+06
-728043
-2.85919e+06
-1.24229e+06
-1.95839e+06
-1.8101e+06
-823478
-2.1559e+06
-1.48388e+06
-408655
1.39136e+06
-1.10497e+06
1.54613e+06
-1.84641e+06
1.54789e+06
-2.62584e+06
1.53927e+06
-3.42723e+06
1.5177e+06
-4.23141e+06
1.48349e+06
-5.02937e+06
1.43167e+06
-5.79383e+06
1.3566e+06
-6.51559e+06
1.25868e+06
-7.16419e+06
1.12687e+06
-7.70605e+06
939117
-8.08118e+06
670009
-8.22661e+06
293746
-8.09087e+06
-185822
-7.63128e+06
-793105
-6.81115e+06
-1.54987e+06
-5.5883e+06
-2.46666e+06
-3.90045e+06
-3.49954e+06
-1.7633e+06
-4.29553e+06
-3.24724e+06
-2.98914e+06
4.38232e+06
-5.51927e+06
4.08076e+06
-7.86454e+06
3.89272e+06
-9.91118e+06
3.58932e+06
-1.16639e+07
3.26906e+06
-1.30845e+07
2.90675e+06
-1.41265e+07
2.47203e+06
-1.48208e+07
2.05276e+06
-1.52175e+07
1.65327e+06
-1.52491e+07
1.15934e+06
-1.48938e+07
581565
-1.41655e+07
-58378.3
-1.30997e+07
-774454
-1.17281e+07
-1.55855e+06
-1.01077e+07
-2.41601e+06
-8.30958e+06
-3.35001e+06
-6.39209e+06
-4.38617e+06
-4.33569e+06
-5.55827e+06
-1.9847e+06
-6.64984e+06
-5.23212e+06
-7.47193e+06
-1.18727e+07
-1.49464e+07
-1.70429e+07
-1.84224e+07
-1.92555e+07
-1.97656e+07
-1.99064e+07
-1.96783e+07
-1.90645e+07
-1.80944e+07
-1.6819e+07
-1.53325e+07
-1.36724e+07
-1.18885e+07
-1.00096e+07
-8.07783e+06
-6.0758e+06
-3.775e+06
)
;

boundaryField
{
    outletWall
    {
        type            calculated;
        value           nonuniform List<scalar> 
60
(
1.66552e+09
-3.79281e+09
1.40507e+09
8.56719e+08
4.65559e+08
3.65775e+08
2.93773e+08
2.35233e+08
1.8479e+08
1.43555e+08
1.11829e+08
8.76115e+07
6.8895e+07
5.44287e+07
4.27533e+07
3.46861e+07
2.49899e+07
2.94383e+07
9.66497e+06
7.64346e+07
1.49963e+06
-12349.4
836097
819710
1.09471e+06
1.27105e+06
1.50671e+06
1.75739e+06
2.05781e+06
2.40509e+06
2.80021e+06
3.24214e+06
3.76259e+06
4.33842e+06
4.52032e+06
4.25644e+06
4.45462e+06
364204
-1.46567e+07
1.22295e+07
-2.65468e+08
-3.41513e+08
-3.24422e+08
-2.99607e+08
-2.6051e+08
-2.20891e+08
-1.81058e+08
-1.4469e+08
-1.12586e+08
-8.55126e+07
-6.32989e+07
-4.55518e+07
-3.16173e+07
-2.0771e+07
-1.21881e+07
-5.28986e+06
-276793
3.66775e+06
508768
9.37267e+06
)
;
    }
    fineWalls
    {
        type            calculated;
        value           uniform 0;
    }
    fineFrontAndBack
    {
        type            calculated;
        value           nonuniform List<scalar> 
960
(
-1.08648e-10
5.30164e-09
-2.40532e-09
-3.52801e-09
-1.71241e-08
-4.45962e-09
4.42661e-09
-2.45449e-08
7.9606e-08
5.86927e-08
9.24692e-08
-5.40678e-07
-1.98404e-07
-1.35545e-07
-1.85884e-06
-3.83608e-07
-2.67225e-07
-1.07774e-06
-1.19308e-07
-1.24152e-07
2.37178e-09
1.10645e-08
4.13077e-10
-7.65253e-09
-1.0588e-08
-1.01744e-08
-1.82419e-07
-7.11953e-09
-5.77962e-09
-4.40004e-09
-3.12133e-09
-2.01788e-09
-1.08732e-09
2.8192e-10
2.09967e-09
4.0393e-09
5.78805e-09
8.96478e-09
1.02267e-08
4.01523e-08
-5.96453e-09
-6.09475e-08
-3.76183e-08
-5.61772e-08
-1.27452e-06
-2.52825e-07
-2.01069e-07
-1.055e-07
-2.25082e-06
-9.36977e-08
3.85144e-07
2.42627e-06
2.69608e-07
1.96399e-07
1.34944e-07
6.73903e-07
1.13019e-08
-1.73588e-08
1.72877e-08
-1.08462e-06
-4.74171e-08
-3.39384e-08
-2.41018e-08
-1.81658e-08
-1.40624e-08
-1.09685e-08
-8.62466e-09
-6.99705e-09
-5.62601e-09
-5.26542e-09
-5.68282e-09
-6.02884e-09
-6.45164e-09
6.46233e-08
-8.50326e-09
-7.33399e-09
-1.05148e-08
-1.00181e-08
-3.97619e-08
-4.97991e-08
9.10095e-08
1.24581e-07
4.5658e-07
4.29331e-08
7.07893e-08
-1.01374e-06
-3.9597e-07
-3.30846e-07
-3.02993e-06
-5.34242e-07
-2.38806e-07
-3.38526e-06
-8.43313e-07
-7.04127e-07
-4.00897e-07
-7.63846e-06
-3.06236e-06
-3.6875e-06
1.21671e-05
2.49318e-05
8.99201e-08
-7.00535e-08
-8.48501e-08
-1.17544e-07
-1.55974e-07
-2.0624e-07
-2.75515e-07
-3.69796e-07
-4.97994e-07
-6.72019e-07
-9.08607e-07
-1.23213e-06
-1.6821e-06
-2.32532e-06
-3.25044e-06
-4.50248e-06
-5.93873e-06
-6.86963e-06
-4.72105e-06
1.91411e-08
-1.18465e-08
-4.53709e-08
-6.3074e-08
-8.72042e-08
-1.1866e-07
-1.63174e-07
-2.24968e-07
-3.09889e-07
-4.25825e-07
-5.83567e-07
-7.94072e-07
-1.05488e-06
-1.31763e-06
-1.4571e-06
-1.35055e-06
-1.31605e-06
-2.80234e-06
-6.80072e-06
-6.83891e-10
-4.61801e-09
-2.06361e-08
-3.42663e-08
-4.9341e-08
-6.8396e-08
-9.50396e-08
-1.32397e-07
-1.84565e-07
-2.56662e-07
-3.53626e-07
-4.74683e-07
-6.00993e-07
-6.79754e-07
-6.21973e-07
-3.42387e-07
-9.82442e-08
-1.07561e-07
1.28358e-06
-8.34921e-09
-4.91969e-09
-6.49614e-09
-1.81769e-08
-2.86955e-08
-4.10159e-08
-5.73953e-08
-8.03313e-08
-1.12747e-07
-1.57885e-07
-2.18178e-07
-2.91633e-07
-3.62301e-07
-3.78146e-07
-2.79719e-07
-1.51325e-07
-7.27281e-08
-3.74795e-09
5.15013e-08
-1.27222e-08
-1.8227e-09
9.28983e-10
-7.93775e-09
-1.62108e-08
-2.50923e-08
-3.58245e-08
-5.03296e-08
-7.09092e-08
-1.00067e-07
-1.39232e-07
-1.81712e-07
-2.1214e-07
-1.98873e-07
-1.22406e-07
-5.2212e-08
-4.22196e-09
1.56309e-08
6.47512e-08
-9.34984e-09
1.433e-09
3.62013e-09
-1.60037e-09
-7.91229e-09
-1.4878e-08
-2.26145e-08
-3.23601e-08
-4.57227e-08
-6.3251e-08
-8.45419e-08
-1.04385e-07
-1.12593e-07
-9.14896e-08
-5.72508e-08
-5.62488e-09
4.40108e-08
3.68885e-08
-2.25056e-08
-3.42384e-09
2.22102e-09
3.4622e-09
1.42804e-09
-2.54517e-09
-7.87005e-09
-1.41234e-08
-2.06528e-08
-2.83776e-08
-3.75185e-08
-4.7023e-08
-5.43056e-08
-5.29434e-08
-3.89209e-08
-1.46444e-08
9.5179e-08
1.1352e-07
3.64788e-08
5.84818e-09
1.29961e-11
1.47986e-09
2.27575e-09
2.07312e-09
3.06841e-10
-3.14814e-09
-6.4056e-09
-1.1233e-08
-1.59643e-08
-2.00236e-08
-2.47121e-08
-2.42118e-08
-1.63888e-08
-4.02201e-08
1.57711e-07
3.13803e-07
1.6468e-07
1.75936e-08
5.67369e-11
1.22999e-09
6.18708e-10
1.18285e-09
1.56856e-09
1.24456e-09
1.2292e-10
-9.11101e-09
-7.79035e-09
-7.73093e-09
-1.11192e-08
-5.21184e-12
-3.80637e-08
7.37897e-08
-2.03046e-08
6.75423e-07
5.24579e-07
1.28261e-07
-8.16623e-09
-1.46839e-08
1.51001e-09
1.61077e-10
5.46421e-10
8.78734e-10
1.12732e-09
-9.5976e-10
3.87496e-08
1.07168e-08
-2.24234e-09
8.68815e-09
-1.19208e-07
6.47443e-07
5.44673e-07
4.97014e-08
1.06415e-06
3.99509e-07
1.77914e-08
-1.41755e-08
1.56709e-08
1.56982e-09
3.93615e-11
2.98154e-10
4.2522e-10
6.74301e-10
1.01715e-09
-1.84067e-08
-3.52234e-09
1.04412e-09
7.41164e-09
-1.09527e-08
-1.90976e-08
-4.08196e-08
-6.98715e-09
-1.44938e-07
-9.45967e-08
-1.75777e-08
3.13476e-11
7.77399e-08
1.64874e-09
7.48948e-11
2.64122e-10
2.57376e-10
2.93886e-10
2.48177e-09
-2.55152e-08
-1.43312e-08
-5.33248e-09
-1.59067e-09
-5.26639e-10
3.92276e-10
3.25515e-09
6.20636e-10
1.58461e-08
1.5599e-08
4.65643e-09
-2.5025e-10
2.31504e-08
1.75132e-09
1.48911e-10
3.1726e-10
2.7726e-10
1.36729e-10
2.14756e-09
-6.67978e-09
-7.87446e-09
-4.99538e-09
-2.30217e-09
-7.7023e-10
-1.81346e-10
-2.9057e-10
-4.76029e-11
-1.694e-09
-2.2014e-09
-9.30179e-10
2.06921e-10
-7.36028e-09
1.78391e-09
2.19783e-10
3.61571e-10
3.57079e-10
1.92308e-10
1.01566e-09
5.16334e-10
2.22077e-10
2.15745e-10
1.87779e-10
1.10535e-10
4.36919e-11
3.65113e-11
4.89972e-12
1.76882e-10
2.96841e-10
1.64008e-10
9.3338e-11
-5.22858e-09
1.65087e-09
2.50519e-10
3.39604e-10
3.79656e-10
2.88621e-10
3.61029e-10
2.18474e-10
6.25786e-11
-6.6878e-12
-1.77809e-11
-1.2728e-11
-6.7723e-12
-5.38071e-12
-7.458e-13
-1.88105e-11
-4.04265e-11
-2.69561e-11
1.09392e-11
-6.66655e-09
1.35845e-09
2.27481e-10
2.46078e-10
2.92273e-10