/*--------------------------------*- C++ -*----------------------------------*\
| =========                 |                                                 |
| \\      /  F ield         | OpenFOAM: The Open Source CFD Toolbox           |
|  \\    /   O peration     | Version:  4.1                                   |
|   \\  /    A nd           | Web:      www.OpenFOAM.org                      |
|    \\/     M anipulation  |                                                 |
\*---------------------------------------------------------------------------*/
FoamFile
{
    version     2.0;
    format      ascii;
    class       volScalarField;
    location    "18";
    object      p;
}
// * * * * * * * * * * * * * * * * * * * * * * * * * * * * * * * * * * * * * //

dimensions      [0 2 -2 0 0 0 0];

internalField   nonuniform List<scalar> 
1680
(
491.174
2.11326
33.3876
-41.4447
-81.1526
-49.2925
-38.3751
-38.5541
-26.2852
-22.6184
-17.6237
-13.6287
-9.37374
-6.56855
-7.32288
-3.55561
-4.25869
-3.77038
-1.04569
-9.87485
-0.116751
-26.4161
5.57314
3.87115
5.08507
6.57368
7.71517
8.73699
10.5673
10.9978
14.408
-12.6843
5.64459
5.21995
6.38555
6.91069
8.17022
7.74743
12.0264
7.74497
-38.2324
-13.3718
-10.4785
9.36452
3.38614
3.39487
6.97941
16.0778
13.1755
13.4509
15.2319
15.8031
15.9598
15.9655
15.8664
15.8669
15.8902
15.8942
15.9092
15.9418
27.8974
63.8847
22.1926
30.9816
18.7536
14.6224
15.8697
34.9377
24.041
13.9022
4.27141
4.49003
14.8773
4.82269
-41.5891
-60.7249
-57.2117
-15.5224
19.4971
16.0815
62.1912
14.8929
20.7561
-2.0991
-6.15399
-2.16557
27.8093
19.4236
11.9608
3.78771
3.93033
13.109
2.311
-46.8669
-64.6657
-52.1603
-13.4475
16.2654
2.01445
58.6157
6.50204
9.96695
-29.0217
-33.0016
-25.3583
20.1374
14.9215
10.0853
3.31554
3.40763
10.5335
-0.294342
-49.5478
-67.4257
-48.2511
-14.8404
17.7112
-23.2999
50.6364
-5.70534
-1.04283
-61.7536
-64.1444
-52.9204
12.1509
10.6672
8.30131
2.8155
2.89094
7.81986
-2.75964
-50.3121
-68.4036
-45.4912
-16.1824
24.2605
-75.8971
34.2467
-25.2148
-11.4575
-90.5255
-92.3025
-80.1439
4.43302
6.80148
6.63368
2.2637
2.39782
5.36934
-4.83917
-48.6099
-67.7016
-43.613
-15.3727
22.6477
-170.411
5.31053
-55.5784
-20.1541
-94.1236
-101.866
-90.5206
-2.42694
3.53907
5.13929
1.66956
1.93129
3.38315
-6.21992
-45.1061
-64.8888
-41.1104
-13.8775
9.27075
-325.281
-40.8501
-99.5938
-31.7809
-88.2749
-98.1944
-76.2235
-8.35558
0.906377
3.85981
1.06459
1.49464
1.90913
-6.90706
-40.5734
-59.2216
-37.8083
-13.7347
6.968
-563.958
-108.896
-158.334
-51.5917
-85.395
-95.759
-69.9365
-15.4279
-0.843231
2.8795
0.493212
1.11066
0.897339
-7.09472
-35.4569
-52.4612
-34.3068
-13.2005
7.22074
-923.91
-203.976
-229.831
-77.3052
-89.84
-94.2962
-71.1538
-21.9201
-1.77084
2.32396
0.0057845
0.807148
0.263695
-6.99552
-30.58
-45.6804
-30.7985
-12.3623
7.55377
-1437.65
-331.784
-306.376
-98.135
-98.6672
-82.7017
-69.4531
-20.1074
-2.29909
2.3163
-0.346804
0.610604
-0.0342091
-6.62721
-26.1048
-39.2685
-27.2526
-12.1671
7.66932
-2186.15
-495.458
-378.22
-101.708
-109.183
-73.6106
-67.2327
-14.6906
-3.85702
2.81966
-0.460076
0.55718
-0.069373
-6.19406
-22.4232
-33.9177
-24.3271
-12.3221
6.60299
-3164.51
-708.93
-443.726
-97.6808
-116.153
-64.9154
-66.8709
-14.4484
-6.22898
3.5378
-0.400327
0.700495
0.287007
-5.3654
-18.77
-28.5692
-20.9173
-12.2756
1.88946
-4565.56
-994.958
-489.985
-91.0503
-120.582
-55.106
-59.0743
-12.8154
-5.95882
4.35151
-0.107119
1.03038
0.754543
-4.86952
-16.3897
-25.2235
-19.2921
-14.7714
-7.96391
-5898.23
-1283.67
-510.556
-76.6011
-121.789
-47.4272
-52.4661
-10.6494
-3.36864
3.52182
-0.0407861
1.74685
2.22527
-2.97005
-12.3763
-19.4865
-14.5927
-14.0461
-18.9906
-7804.6
-1475.82
-481.4
-56.6595
-122.151
-41.872
-47.4066
-9.02445
-2.64135
2.11027
-0.0771135
2.21659
2.59737
-3.40828
-12.1088
-19.659
-16.3106
-23.0219
-36.0075
-7443.83
-1838.73
-432.407
-42.5958
-129.014
-40.4231
-45.4009
-8.03694
-3.14619
1.31107
-0.269672
3.90037
7.40206
2.85222
-4.09239
-8.80191
-5.26026
-10.9724
-49.6426
-10128.6
-1798.18
-364.94
-34.4553
-118.287
-36.03
-40.1758
-7.4259
-4.05815
-0.115959
-0.664381
2.49688
2.52243
-4.97371
-11.242
-19.8223
-18.6855
-51.8028
-65.4036
-3623.91
557.364
-82.0311
-20.2471
-76.9924
-23.8222
-27.4366
-4.76577
-3.14595
-0.33831
-0.283017
9.04154
22.4805
21.7919
13.9441
12.5211
15.392
34.6166
-67.0421
-17266.9
984.463
-125.351
-39.893
-178.257
-46.0369
-53.4691
-8.74066
-5.14739
0.0409768
-0.634256
-4.02597
-16.1591
-28.8887
-25.7176
-39.4193
-37.9515
-192.801
-59.6876
18656.4
-6821.51
-968.768
-86.6665
-304.518
-75.9937
-84.8915
-15.1993
-8.80889
-0.156933
0.84557
28.836
80.7892
94.1017
63.1006
70.7312
67.5856
419.948
-64.3624
109.095
108.568
108.335
107.535
106.713
105.82
104.9
103.942
102.975
102.014
101.026
100.126
99.0456
97.8174
96.6947
95.5888
94.6107
93.5397
92.8598
91.5172
89.0146
89.5263
89.7564
90.0268
90.2331
90.3789
90.4924
90.5459
90.5719
90.5441
90.4925
90.401
90.2575
90.083
89.8987
89.6818
89.4865
89.2537
89.0625
88.7931
98.3149
98.026
97.8852
97.6874
97.5313
97.3467
97.1784
96.9929
96.814
96.6216
96.4337
96.2305
96.0381
95.824
95.6254
95.4009
95.2082
94.9704
94.8053
94.5019
95.2689
95.2891
95.3008
95.2954
95.3035
95.2871
95.2804
95.2552
95.2346
95.1997
95.1674
95.1223
95.0812
95.0251
94.9794
94.9117
94.8657
94.7874
94.7429
94.6384
97.3615
97.2526
97.2145
97.1339
97.0843
97.0127
96.9577
96.8902
96.8322
96.7661
96.7068
96.64
96.581
96.5114
96.4548
96.38
96.3296
96.2458
96.2066
96.0963
97.3673
97.3146
97.303
97.2594
97.2396
97.1998
97.174
97.1362
97.1064
97.0689
97.0368
96.9981
96.9655
96.9238
96.8932
96.846
96.8207
96.7648
96.7494
96.6759
98.2205
98.149
98.1298
98.0752
98.0467
97.9991
97.966
97.9223
97.8868
97.8452
97.8088
97.7675
97.732
97.6892
97.6567
97.6098
97.5835
97.5286
97.514
97.4425
98.7107
98.6508
98.6362
98.5894
98.5665
98.5258
98.4983
98.461
98.4309
98.3955
98.3643
98.3292
98.2986
98.262
98.2341
98.1935
98.1715
98.1231
98.1122
98.0489
99.3221
99.2612
99.2456
99.1986
99.1749
99.1342
99.1063
99.0693
99.039
99.0042
98.973
98.939
98.9083
98.8733
98.8453
98.8067
98.7847
98.7384
98.7276
98.6669
99.8552
99.7983
99.7838
99.7397
99.7175
99.6794
99.6531
99.6185
99.5898
99.5574
99.5277
99.4961
99.4667
99.4344
99.4074
99.3716
99.3504
99.3072
99.2969
99.2396
100.39
100.335
100.321
100.279
100.257
100.22
100.195
100.161
100.133
100.102
100.073
100.043
100.014
99.9838
99.9569
99.9234
99.9019
99.8612
99.8505
99.7956
100.896
100.844
100.83
100.79
100.769
100.734
100.709
100.678
100.651
100.621
100.593
100.565
100.537
100.508
100.482
100.45
100.429
100.391
100.38
100.327
101.385
101.336
101.322
101.283
101.263
101.229
101.205
101.175
101.149
101.121
101.093
101.067
101.039
101.012
100.986
100.957
100.935
100.899
100.888
100.838
101.853
101.806
101.792
101.756
101.736
101.704
101.68
101.651
101.626
101.599
101.573
101.547
101.52
101.495
101.468
101.442
101.419
101.387
101.374
101.327
102.3
102.257
102.243
102.208
102.189
102.159
102.137
102.109
102.085
102.059
102.034
102.01
101.983
101.96
101.933
101.91
101.886
101.857
101.843
101.799
102.716
102.676
102.662
102.63
102.613
102.584
102.564
102.539
102.516
102.493
102.469
102.447
102.423
102.402
102.376
102.356
102.331
102.307
102.291
102.252
103.108
103.071
103.057
103.024
103.008
102.98
102.96
102.936
102.914
102.892
102.87
102.848
102.826
102.807
102.782
102.767
102.741
102.723
102.707
102.673
103.508
103.48
103.469
103.436
103.423
103.398
103.378
103.356
103.334
103.311
103.287
103.263
103.238
103.215
103.186
103.166
103.132
103.117
103.091
103.053
103.781
103.772
103.787
103.766
103.766
103.759
103.754
103.749
103.744
103.737
103.73
103.72
103.708
103.694
103.673
103.652
103.614
103.592
103.521
103.464
103.746
103.688
103.726
103.737
103.754
103.772
103.791
103.811
103.834
103.859
103.887
103.918
103.953
103.992
104.035
104.085
104.137
104.206
104.247
104.41
15.9803
15.9326
16.0037
15.97
16.0546
15.928
15.1704
14.3875
14.8302
15.5032
8.05965
9.86173
12.1345
-4.01748
-9.01352
-5.47152
-2.67611
-28.833
-24.8647
-47.7137
-12.9581
-8.98258
-14.9085
-18.2291
-21.7828
-22.7952
-22.9866
-19.9908
-32.4381
-13.9004
-10.5815
-8.7106
-6.71318
-5.3936
-4.09434
-2.14632
-0.0458027
-2.2738
-31.2723
-15.3492
-33.0544
-6.42343
-35.9911
-23.6006
-31.8691
-23.1861
-11.0435
-26.8328
-18.3298
-20.8244
-15.7275
-10.405
-18.6985
-15.1196
-16.3382
-21.7538
-21.8115
-22.4069
-22.3215
-22.441
73.9765
73.5829
73.2145
78.1989
74.6168
70.2977
66.5465
69.4595
52.3936
28.7198
56.8161
54.7543
50.8872
59.6406
52.6677
-5.61782
-87.8938
-81.4081
-37.2877
73.9601
73.5391
73.0225
77.98
74.4171
70.2108
66.498
69.3491
51.3876
26.0959
56.7738
54.4268
50.1475
58.5764
50.9841
-8.26412
-93.3879
-87.6546
-39.5404
73.9032
73.4435
72.741
77.6082
74.0947
70.0981
66.3841
69.0516
50.1443
22.8818
54.649
52.4461
48.1602
56.3074
47.5824
-12.9164
-100.794
-98.1171
-43.8733
73.8366
73.3041
72.3561
77.1413
73.5966
69.8762
66.1791
68.9075
47.7492
18.8615
50.822
48.0556
44.642
52.6293
42.7263
-19.0618
-109.716
-109.619
-48.3638
73.778
73.1361
71.8011
76.6031
73.0434
69.6124
65.9554
69.087
47.1507
17.3102
46.1656
41.4216
39.725
47.5087
36.7764
-26.1855
-118.875
-120.933
-52.9719
73.6629
72.9444
71.0768
76.0108
72.5184
69.3369
65.7857
69.6888
50.2464
20.5994
40.4853
33.7797
33.9463
41.2904
30.2444
-33.5604
-127.463
-130.997
-58.8814
73.4521
72.7847
70.3291
75.4711
72.0137
69.0641
65.7233
70.4445
54.5204
25.8175
34.7326
26.2074
27.8579
34.6365
23.7794
-40.5098
-134.545
-138.898
-63.4462
73.2
72.6993
69.6192
75.0597
71.4605
68.7869
65.6891
70.9092
57.7261
29.5376
29.1191
19.627
22.2771
28.5058
18.0351
-46.3805
-139.376
-144.149
-66.7399
72.8608
72.5758
68.8144
74.7249
70.788
68.4564
65.5009
70.9147
59.3605
31.519
23.8298
14.7523
18.0064
23.6656
13.5322
-50.4886
-141.64
-146.062
-68.2774
72.1503
72.1776
67.645
74.3042
69.9828
67.9755
65.1237
70.2846
59.6202
32.208
19.1618
11.4277
15.1667
20.1158
10.3966
-52.5358
-140.964
-144.94
-66.5218
70.7747
71.3606
65.8295
73.6363
69.0911
67.2681
64.5448
69.2479
58.897
31.8708
15.2285
8.78236
13.2517
17.3683
8.23822
-52.938
-137.473
-140.999
-64.0877
68.7094
70.2072
63.2194
72.626
68.1569
66.3199
63.7623
67.9575
57.2978
30.8128
12.0239
6.4322
11.8728
15.0873
6.36982
-52.0653
-131.625
-134.65
-56.0888
66.1494
68.93
59.8709
71.2396
67.1332
65.096
62.7235
66.3655
55.0077
29.3071
9.56854
4.62237
10.9817
13.2443
4.05929
-50.2752
-123.794
-126.374
-54.017
63.4147
67.7291
56.0179
69.4441
65.8679
63.5051
61.3084
64.4237
52.2121
27.545
7.86484
3.52017
10.449
11.8387
0.871662
-48.5089
-118.827
-117.972
-41.8428
60.8145
66.7113
51.8738
67.1442
64.1438
61.3929
59.3336
62.0948
49.014
25.6785
6.81144
2.92454
9.97906
10.7203
-3.31051
-46.975
-112.42
-108.047
-36.2735
58.3098
65.8885
47.5289
64.1549
61.6833
58.5225
56.5519
59.3
45.4753
23.7857
6.25114
2.61416
9.72778
9.80061
-8.16986
-46.4042
-101.016
-91.4614
-15.9745
55.4645
65.2454
43.1074
60.2164
58.1009
54.5415
52.648
55.9245
41.6306
21.8478
5.86908
2.6978
10.4131
9.09619
-13.3917
-46.876
-87.5743
-70.8023
1.52176
51.7028
64.8164
38.7534
55.0195
52.8427
48.941
47.2105
51.8636
37.5162
19.8702
5.50671
3.42228
12.1567
8.64673
-19.1749
-48.5471
-74.8363
-49.1934
10.5831
46.4028
64.5951
34.3269
48.2765
45.1527
41.0356
39.7152
47.0282
33.1773
17.8802
5.16828
4.4104
14.1403
8.12148
-26.075
-51.5558
-66.2176
-31.8654
14.7286
38.5342
64.4636
28.9974
40.1854
34.1309
29.9545
29.5244
41.3756
28.6622
15.8861
4.75931
4.88424
15.145
6.90377
-34.0358
-55.8554
-61.1419
-20.6271
17.1963
715.358
632.884
583.814
527.765
478.935
431.876
388.156
346.896
308.085
271.423
236.721
203.768
172.35
142.391
113.915
86.1563
59.208
36.7983
11.6448
-23.1842
29.0854
7.14428
15.4056
4.69853
2.20509
-4.15334
-8.85017
-13.8891
-18.2603
-22.1849
-25.4148
-27.8675
-29.3923
-29.86
-29.1168
-27.3065
-24.6626
-20.3678
-15.5314
-14.0564
25.5225
18.8333
27.3901
20.742
23.2799
20.3505
19.6422
17.6076
15.9134
13.9282
12.0021
10.1283
8.49784
7.227
6.28169
5.54591
5.09003
4.75211
4.16756
3.07924
20.7785
15.0562
16.8007
9.39392
9.05243
3.88296
1.43921
-2.31501
-5.28419
-8.40294
-11.1937
-13.7824
-16.0057
-17.8674
-19.4934
-21.0826
-22.7395
-24.7204
-27.871
-30.1277
-30.1077
-35.3056
-34.4458
-39.6261
-39.3114
-43.2836
-44.3892
-47.2594
-49.2022
-51.7041
-54.0213
-56.4546
-58.7117
-60.6541
-62.1363
-63.3432
-64.2729
-64.6687
-65.3325
-63.6812
-49.0066
-51.8367
-49.6525
-52.737
-50.812
-53.22
-52.5195
-53.8373
-54.0177
-54.7348
-55.1425
-55.4843
-55.478
-54.8962
-53.6459
-51.837
-49.9152
-47.5757
-45.8496
-42.2904
-28.1521
-28.0849
-24.8989
-25.941
-22.5828
-22.8625
-20.4427
-19.5523
-17.7506
-16.2177
-14.4833
-12.6857
-10.8037
-8.8021
-6.72552
-4.50142
-2.29302
0.271794
2.42629
5.76137
0.0807093
1.68756
4.5987
4.53563
7.75948
8.25878
10.664
12.0068
13.8575
15.5339
17.2397
18.9371
20.6064
22.2733
23.9287
25.6517
27.3605
29.255
30.7732
32.6881
27.1424
28.9521
31.0767
31.2139
33.6676
34.0782
35.8669
36.7492
37.947
38.8733
39.7184
40.4658
41.1987
42.0338
43.0859
44.3738
45.7941
47.2635
48.3658
49.4977
40.9603
42.657
43.9924
44.367
46.1995
46.6845
48.3188
49.2672
50.6148
51.6916
52.7572
53.6191
54.2126
54.3136
53.7711
52.5411
51.1828
50.0375
50.0368
49.6938
62.1656
61.5638
62.1204
61.348
62.0789
61.3904
61.652
60.8551
60.1982
58.7199
56.7383
53.8282
50.0069
45.3319
40.3584
35.7604
32.2575
30.616
30.2768
26.9494
23.9632
18.5658
16.5986
12.5045
10.1018
6.2427
3.28487
-0.37784
-3.45227
-6.56492
-9.12303
-11.3823
-13.1339
-14.4649
-15.3402
-15.9425
-16.4693
-16.8876
-18.3993
-22.0238
-26.9948
-32.9525
-35.041
-38.9638
-41.7026
-45.5208
-48.7436
-52.6166
-56.1889
-59.928
-63.4614
-66.9351
-70.1563
-72.9906
-75.1917
-76.7084
-77.4339
-77.3649
-77.3721
-75.2161
-49.387
-51.6815
-52.6946
-54.772
-55.895
-57.8003
-59.1614
-60.9376
-62.3669
-63.6967
-64.5671
-64.9564
-64.715
-63.7449
-62.0483
-59.6308
-56.9294
-53.966
-51.726
-47.9892
-38.3042
-36.9579
-34.6537
-33.068
-31.1803
-29.7306
-27.9354
-26.2594
-24.4051
-22.4893
-20.4557
-18.3103
-16.0766
-13.7587
-11.4494
-9.12246
-6.97288
-4.72634
-2.95591
-0.205975
-17.5775
-15.1418
-11.9154
-9.13334
-6.54827
-4.44008
-2.2625
-0.305174
1.61716
3.42549
5.13545
6.74864
8.25118
9.66616
10.9646
12.2179
13.3255
14.5269
15.3826
16.5877
3.76773
6.35361
8.0784
9.92358
11.5101
12.8579
14.2617
15.4802
16.6847
17.7998
18.8633
19.8849
20.8737
21.8613
22.8434
23.8906
24.9114
26.1074
26.9911
28.285
30.9478
32.3747
32.3303
33.0202
33.3901
33.8122
34.2952
34.706
35.1753
35.6455
36.168
36.7491
37.4102
38.1378
38.942
39.8227
40.7334
41.7352
42.4395
43.3773
37.5696
38.9521
38.2527
38.837
39.0344
39.585
40.057
40.5487
41.0552
41.5184
41.9377
42.2466
42.3805
42.3459
42.2104
42.0483
42.129
42.3574
42.7631
42.9155
68.6191
68.4933
67.1018
65.6307
63.3258
60.9976
58.412
55.8607
53.3506
51.0314
48.7782
46.9596
45.3274
43.7996
42.5616
41.5093
40.8445
40.0938
39.8389
38.479
)
;

boundaryField
{
    outletWallLeft
    {
        type            fixedValue;
        value           uniform 0;
    }
    fineWallsLeft
    {
        type            zeroGradient;
    }
    fineFrontAndBackLeft
    {
        type            zeroGradient;
    }
    fineplugLeft
    {
        type            cyclicAMI;
        value           nonuniform List<scalar> 
20
(
87.2524
92.889
87.7827
86.8026
86.3871
85.9706
85.4632
84.901
84.4935
83.811
83.7027
87.0221
80.3654
79.2979
78.6329
77.8532
77.3226
76.3812
76.6931
74.7628
)
;
    }
    symmetryWallLeft
    {
        type            cyclicAMI;
        value           nonuniform List<scalar> 
20
(
15.9611
18.3467
-18.0747
-59.1768
-58.2902
-37.8125
5.86323
15.0111
4.68714
4.51536
14.8941
26.3516
38.1566
22.697
22.2884
26.4422
35.5835
25.595
64.1742
33.2158
)
;
    }
    inletOutletLeft
    {
        type            cyclicAMI;
        value           nonuniform List<scalar> 
20
(
74.7628
76.6931
76.3812
77.3226
77.8532
78.6329
79.2979
80.3654
87.0221
83.7027
83.811
84.4935
84.901
85.4632
85.9706
86.3871
86.8026
87.7827
92.889
87.2524
)
;
    }
    inletLeft
    {
        type            zeroGradient;
    }
    inletWallsLeft
    {
        type            zeroGradient;
    }
    inletFacesLeft
    {
        type            zeroGradient;
    }
    fineWallsRight
    {
        type            zeroGradient;
    }
    outletWallRight
    {
        type            zeroGradient;
    }
    fineplugRight
    {
        type            cyclicAMI;
        value           nonuniform List<scalar> 
20
(
28.1916
30.0746
29.0933
29.0297
28.8509
29.4903
30.4423
32.2638
37.737
36.2424
38.7088
40.9384
43.346
45.6509
47.9792
50.2314
52.4954
53.2267
56.9048
51.8254
)
;
    }
    fineFrontAndBackRight
    {
        type            zeroGradient;
    }
    symmetryWallRight
    {
        type            cyclicAMI;
        value           nonuniform List<scalar> 
20
(
15.9611
18.3467
-18.0747
-59.1768
-58.2902
-37.8125
5.86323
15.0111
4.68714
4.51536
14.8941
26.3516
38.1566
22.697
22.2884
26.4422
35.5835
25.595
64.1742
33.2158
)
;
    }
    inletOutletRight
    {
        type            cyclicAMI;
        value           nonuniform List<scalar> 
20
(
28.1916
30.0746
29.0933
29.0297
28.8509
29.4903
30.4423
32.2638
37.737
36.2424
38.7088
40.9384
43.346
45.6509
47.9792
50.2314
52.4954
53.2267
56.9048
51.8254
)
;
    }
    inletRight
    {
        type            zeroGradient;
    }
    inletWallsRight
    {
        type            zeroGradient;
    }
    inletFacesRight
    {
        type            zeroGradient;
    }
}


// ************************************************************************* //
