/*--------------------------------*- C++ -*----------------------------------*\
| =========                 |                                                 |
| \\      /  F ield         | OpenFOAM: The Open Source CFD Toolbox           |
|  \\    /   O peration     | Version:  4.1                                   |
|   \\  /    A nd           | Web:      www.OpenFOAM.org                      |
|    \\/     M anipulation  |                                                 |
\*---------------------------------------------------------------------------*/
FoamFile
{
    version     2.0;
    format      ascii;
    class       surfaceScalarField;
    location    "18";
    object      phi;
}
// * * * * * * * * * * * * * * * * * * * * * * * * * * * * * * * * * * * * * //

dimensions      [0 3 -1 0 0 0 0];

internalField   nonuniform List<scalar> 
3120
(
-4602.33
-40153.9
-4602.35
4548.84
-9151.19
4548.83
6166.78
-1617.95
6357.87
-191.094
6357.87
6552.97
-195.103
6037.26
515.716
6037.25
5479.28
557.979
5479.27
5135.44
343.846
4732.69
402.744
4732.7
4866.48
-133.793
4866.5
5857.43
-990.939
6690.31
-832.858
6690.31
7256.78
10471.9
-2236.45
11458.9
12420.3
13383.1
14352.9
15329.7
16312.4
17300.6
18293.8
19293.6
18053.4
2237.67
19072.4
20100.4
21134.4
22174.6
23218.5
24284.3
25396.2
26189
19873.5
6315.56
19873.5
19873.5
12394.2
7479.32
12394.2
12394.2
12394.2
5088.19
7305.98
5088.2
5088.2
89.0775
4999.23
89.3646
89.6587
89.7971
-260.842
350.769
-260.592
-260.331
-260.162
55.3973
-315.397
-2537.13
26707.6
-797.953
-4623.49
2145.95
-12988.1
5967.29
-41540.3
8108.13
-26382.1
7333.51
-3188.67
4992.91
15060.5
3874.26
20150.1
3619.18
21245.8
3623.76
19935.1
3370.43
16576.6
1401.74
10381.8
-1881.74
5898.38
-4224.4
6831.73
-6156.11
2886.17
-8415.12
-8547.51
-8758.47
-14992.2
-5122.51
-10478.4
-3829.11
-3222.91
29855.2
-251.757
-7594.65
3435.78
-16675.6
7254.22
-45358.8
9266.24
-28394.1
8354.66
-2277.1
5676.94
17738.2
4376.12
21450.9
4170.57
21451.3
4250.26
19855.4
4097.76
16729.1
2810
11669.6
-11.8619
8720.25
-2287.13
9107.01
-4190.94
4789.98
-7132.79
-5605.66
-9288.27
-12836.7
-7354.74
-12411.9
-10833.1
-4491.42
34331.9
-179.376
-11906.7
4916.12
-21771.1
8310.17
-48752.8
9877.67
-29961.6
9113.48
-1512.9
6338.84
20512.9
4805.44
22984.3
4563.18
21693.6
4711.61
19707
4668.57
16772.2
3912.43
12425.7
1983.41
10649.3
-86.2304
11176.6
-2062.33
6766.07
-4830.14
-2837.86
-7812.21
-9854.62
-8403.19
-11820.9
-14237
-6320.08
40726.8
-602.108
-17624.7
6399.55
-28772.8
8456.8
-50810.1
8877.29
-30382.1
8960.84
-1596.46
6873.61
22600.1
5206.39
24651.5
4831.41
22068.6
4989.82
19548.6
5042.95
16719
4591.22
12877.5
3663.86
11576.6
2093.89
12746.6
261.661
8598.31
-2189.29
-386.917
-4991.63
-7052.28
-7635.01
-9177.53
-14566
-8330
49273.6
-1193.81
-24760.9
7597.87
-37564.4
6860.73
-50072.9
4556.72
-28078.1
6487.21
-3526.94
7034.52
22052.8
5633.45
26052.6
5061.92
22640.1
5139.6
19470.9
5239.87
16618.8
4944.9
13172.4
4708.86
11812.7
3939.46
13516
2346.6
10191.2
347.567
1612.1
-1536.32
-5168.41
-4924.35
-5789.5
-12011.1
-10382.2
60063.4
-1911.04
-33232
8196.7
-47672.2
3536.34
-45412.6
-2439.52
-22102.3
1884.24
-7850.7
6717.45
17219.6
6140.38
26629.7
5364.66
23415.8
5254.66
19580.9
5322.37
16551
5106.15
13388.7
5188.81
11730
5183.26
13521.6
4189.58
11184.9
2717.54
3084.15
1069.08
-3519.95
-1378.46
-3341.95
-7073.98
-12448.1
73157.6
-2839.06
-42841.1
8037.67
-58548.9
337.638
-37712.6
-5432.82
-16331.8
428.888
-13712.4
6296.13
11352.3
6696.64
26229.2
5821.78
24290.7
5431.86
19970.8
5368.46
16614.4
5174.07
13583
5318.17
11585.9
5810.18
13029.6
5615.71
11379.3
4556.43
4143.42
2691.62
-1655.15
1695.51
-2345.85
-3140.81
-14557.4
88646.6
-4126.89
-53271.6
7063.63
-69739.4
-1662.19
-28986.7
-5894.28
-12099.7
-560.897
-19045.8
5395.58
5395.85
7150.62
24474.1
6464.32
24977
5762.47
20672.7
5456.32
16920.6
5214.27
13825.1
5289.4
11510.8
5981.2
12337.8
6374.42
10986.1
5735.43
4782.42
4161.46
-81.1748
2880.55
-1064.95
-2496.7
-16776.6
106699
-5990
-64058.2
5002.91
-80732.3
-3849.42
-20134.4
-6280.51
-9668.62
-2748.05
-22578.3
3242.96
-595.163
7207.31
20509.8
7227.2
24957.1
6316.8
21583.1
5663.96
17573.4
5275.89
14213.2
5228.72
11557.9
5907.78
11658.7
6608.28
10285.6
6311.45
5079.24
5049.35
1180.92
3104.25
880.136
-225.335
-19154.6
127522
-8691.23
-74521.6
1498.81
-90922.4
-6653.84
-11981.8
-6443.17
-9879.29
-4813.4
-24208
707.566
-6116.13
6785.01
14432.3
7974.88
23767.2
7134.5
22423.5
6086.77
18621.2
5416.24
14883.7
5199.59
11774.6
5752.07
11106.2
6536.11
9501.56
6488.36
5126.99
5464.86
2204.43
3816.62
2528.37
2600.35
-21611
151278
-12336.9
-83795.7
-2498.72
-100761
-8291.44
-6189.03
-5532.49
-12638.2
-4826.84
-24913.7
-348.347
-10594.6
5712.09
8371.88
8325.43
21153.9
8067.85
22681
6774.66
19914.4
5712.77
15945.6
5248.08
12239.3
5615.63
10738.7
6350.97
8766.22
6450.25
5027.7
5608.33
3046.33
3986.15
4150.55
6452.69
-23632.2
177560
-16183.4
-91244.5
-5011.51
-111932
-7246.65
-3953.88
-4126.48
-15758.4
-4878.83
-24161.3
-1914.48
-13559
3586.41
2870.99
7837.36
16902.9
8771.37
21747
7652.03
21033.7
6231.96
17365.7
5419.13
13052.1
5533.69
10624.1
6148.13
8151.79
6318.36
4857.48
5636.49
3728.21
3852
5935.03
10707.4
-23821.1
204687
-18374.4
-96691.2
-6789.67
-123517
-5679.04
-5064.52
-2662.56
-18774.9
-4760.77
-22063.1
-3925.36
-14394.4
575.015
-1629.39
6656.33
10821.6
9020
19383.4
8528.5
21525.2
6969.8
18924.4
5784.22
14237.7
5579.42
10828.9
6022.42
7708.79
6196.27
4683.62
5610.17
4314.3
3674.57
7870.62
14725.8
-20102.8
228590
-16589.3
-100205
-7843.03
-132263
-5044.86
-7862.69
-1911.48
-21908.3
-4203.83
-19770.8
-3733.46
-14864.8
-1022.62
-4340.23
4784.61
5014.37
8449.74
15718.2
9070.67
20904.3
7778.8
20216.2
6327.36
15689.1
5749.48
11406.8
5951
7507.28
6082.98
4551.64
5574.07
4823.21
3497.13
9947.57
18781
-11275.2
244518
-9419.18
-102061
-7490.99
-134192
-5018.44
-10335.2
-2021.06
-24905.7
-3824.55
-17967.3
-3295.29
-15394
-2160.45
-5475.07
2528.49
325.426
7096.66
11150.1
9048.22
18952.7
8466.6
20797.8
7034.36
17121.4
6174.65
12266.5
6117.98
7563.95
6105.98
4563.63
5523.87
5405.31
3139.87
12331.6
22436.5
825.687
248027
1226.24
-102461
-5774.23
-127191
-4798.7
-11310.8
-2297.98
-27406.4
-3445.11
-16820.2
-2802.95
-16036.2
-2235.79
-6042.24
1063.71
-2974.07
5329.09
6884.68
8357.66
15924.1
8748.91
20406.6
7656.39
18213.9
6672.75
13250.1
6347.15
7889.56
6145.02
4765.77
5540.39
6009.95
3166.22
14705.7
25407.7
13203.5
240566
11071.1
-100329
-3529.3
-112591
-4130.44
-10709.6
-2302.64
-29234.2
-3009.37
-16113.4
-2370.59
-16674.9
-1995.73
-6417.09
-45.5357
-4924.27
3320.86
3518.29
7148.98
12096
8678.85
18876.7
8212.4
18680.3
7319.88
14142.6
6778.29
8431.14
6215.98
5328.07
5206.48
7019.44
2182.79
17729.4
27399.4
17102.3
225608
18671.4
-101898
-2561
-91358.4
-3656.42
-9614.21
-2096.68
-30793.9
-2567.12
-15643
-2001.65
-17240.4
-1850.56
-6568.19
-978.388
-5796.43
1396.99
1142.91
5475.16
8017.84
7990.63
16361.2
8540.76
18130.2
8297.4
14386
8000.44
8728.1
7328.28
6000.23
6516.63
7831.09
3981.76
20264.3
29763.2
42611.8
193477
19952
-79238.3
-6290.64
-65115.8
-3545.87
-12359
-1981.77
-32358
-1929.51
-15695.3
-1736.76
-17433.2
-1530.7
-6774.24
-1581.14
-5745.99
-18.0682
-420.162
4104.44
3895.34
7076.92
13388.8
7488.89
17718.2
6371.32
15503.6
4425.63
10673.8
2628.12
7797.75
-82.1888
10541.4
-3381.71
23563.8
17230.3
-69925.1
7176.13
-5906.95
-1246.92
-1217.92
-531.456
-909.847
-541.882
-1347.54
-1560.55
1396.13
7636.54
13828.7
17643.8
20391.6
19945.5
23756.4
16112.6
-29.6834
-536.791
34.8618
-1043.19
93.0485
-1045.25
135.63
-1004
171.719
-998.85
201.275
-999.332
224.793
-1000.3
242.868
-1000.8
256.426
-1001.79
266.34
-1003.03
270.625
-1004.15
274.82
-1001.64
260.941
-1005.16
241.725
-1008.79
218.881
-1011.15
192.993
-1014.3
164.619
-1015.54
139.833
-1040.99
112.965
-1085.06
-679.866
49.9718
-586.765
60.7159
-1053.93
49.9455
-1034.48
46.3564
-1000.41
47.0797
-999.575
48.0099
-1000.26
48.8298
-1001.12
49.3867
-1001.36
49.7874
-1002.2
49.4837
-1002.73
49.0379
-1003.7
53.087
-1005.69
53.709
-1005.78
51.7542
-1006.84
48.2779
-1007.68
43.0958
-1009.12
37.2797
-1009.72
30.0454
-1033.76
19.4432
-1074.46
-660.423
30.5012
-617.266
35.5668
-1059
30.3644
-1029.28
29.8645
-999.912
30.1168
-999.827
30.0705
-1000.22
29.9029
-1000.96
29.5981
-1001.06
29.0448
-1001.64
28.2965
-1001.98
27.0899
-1002.49
24.1944
-1002.79
21.8739
-1003.46
19.3472
-1004.31
16.3548
-1004.68
12.7838
-1005.55
8.68043
-1005.62
4.24879
-1029.33
-0.00457575
-1070.21
-660.428
25.5527
-642.819
27.1115
-1060.56
21.6964
-1023.86
19.7402
-997.956
18.3831
-998.469
16.9502
-998.784
15.4644
-999.471
13.9491
-999.541
12.385
-1000.08
10.7203
-1000.32
9.00582
-1000.78
7.45075
-1001.24
5.55812
-1001.57
3.40465
-1002.16
1.10424
-1002.38
-1.46454
-1002.98
-4.18886
-1002.9
-8.21011
-1025.3
-10.7025
-1067.71
-671.13
23.0958
-665.914
22.9973
-1060.46
17.8775
-1018.74
15.7954
-995.874
14.0133
-996.687
12.1516
-996.923
10.2512
-997.57
8.34925
-997.639
6.41219
-998.141
4.45428
-998.36
2.45464
-998.78
0.330934
-999.114
-1.76594
-999.469
-3.93405
-999.99
-6.11766
-1000.2
-8.3875
-1000.71
-10.7878
-1000.5
-15.1294
-1020.96
-16.9828
-1065.86
-688.113
21.7906
-687.705
20.742
-1059.41
15.934
-1013.93
13.9047
-993.845
12.0531
-994.836
10.15
-995.02
8.20455
-995.625
6.26026
-995.695
4.28758
-996.169
2.29712
-996.37
0.288128
-996.771
-1.74137
-997.085
-3.79454
-997.416
-5.91403
-997.871
-8.02767
-998.086
-10.1869
-998.553
-12.4394
-998.243
-17.0067
-1016.4
-19.0912
-1063.77
-707.204
21.3
-709.005
19.4467
-1057.56
14.8706
-1009.36
12.8832
-991.858
11.0055
-992.958
9.08679
-993.101
7.13334
-993.671
5.18858
-993.75
3.22118
-994.201
1.24876
-994.397
-0.735624
-994.787
-2.74565
-995.075
-4.74874
-995.413
-6.79471
-995.825
-8.81644
-996.064
-10.8629
-996.507
-12.9503
-996.156
-17.3614
-1011.98
-19.9186
-1061.22
-727.123
20.9681
-729.973
18.4424
-1055.03
14.1139
-1005.03
12.231
-989.975
10.3958
-991.123
8.53055
-991.236
6.63041
-991.771
4.74024
-991.86
2.82745
-992.288
0.912037
-992.482
-1.01422
-992.861
-2.95757
-993.131
-4.89678
-993.474
-6.87496
-993.846
-8.82583
-994.113
-10.8005
-994.532
-12.7719
-994.185
-17.0022
-1007.75
-20.1301
-1058.09
-747.253
20.769
-750.742
17.5852
-1051.85
13.5064
-1000.95
11.7146
-988.183
9.92777
-989.336
8.11832
-989.426
6.27594
-989.929
4.44498
-990.029
2.59186
-990.435
0.739028
-990.629
-1.12457
-990.997
-3.00231
-991.253
-4.87424
-991.602
-6.78073
-991.94
-8.65839
-992.236
-10.5624
-992.628
-12.4258
-992.321
-16.4207
-1003.76
-20.1412
-1054.37
-767.394
20.5905
-771.333
16.7728
-1048.03
12.9519
-997.128
11.2557
-986.487
9.52687
-987.607
7.78284
-987.682
6.00635
-988.152
4.24178
-988.265
2.45446
-988.648
0.669113
-988.844
-1.12839
-989.199
-2.93715
-989.445
-4.74203
-989.797
-6.57877
-990.103
-8.38747
-990.427
-10.2271
-990.788
-11.9961
-990.552
-15.7472
-1000.01
-20.065
-1050.05
-787.459
20.4352
-791.768
15.9888
-1043.58
12.4328
-993.572
10.824
-984.878
9.15469
-985.938
7.47608
-986.004
5.76581
-986.442
4.06761
-986.567
2.3461
-986.927
0.628162
-987.126
-1.10367
-987.468
-2.84391
-987.705
-4.58255
-988.059
-6.3499
-988.336
-8.09079
-988.686
-9.86676
-989.012
-11.5492
-988.87
-15.0463
-996.51
-19.9599
-1045.14
-807.419
20.2868
-812.055
15.2169
-1038.51
11.9295
-990.285
10.4029
-983.351
8.79508
-984.33
7.18326
-984.392
5.5405
-984.799
3.90981
-984.936
2.25521
-985.272
0.605571
-985.476
-1.06006
-985.802
-2.73112
-986.033
-4.40398
-986.386
-6.10189
-986.638
-7.77626
-987.012
-9.48913
-987.299
-11.0925
-987.266
-14.3328
-993.27
-19.8411
-1039.63
-827.26
20.1477
-832.202
14.4557
-1032.82
11.4403
-987.269
9.98949
-981.9
8.44404
-982.785
6.89878
-982.846
5.32331
-983.224
3.75968
-983.372
2.17172
-983.684
0.589759
-983.894
-1.0101
-984.202
-2.61227
-984.431
-4.22029
-984.778
-5.84853
-985.01
-7.45741
-985.403
-9.10643
-985.65
-10.6365
-985.736
-13.6177
-990.289
-19.7182
-1033.53
-846.978
20.0182
-852.22
13.7033
-1026.51
10.9628
-984.529
9.58344
-980.521
8.10259
-981.304
6.62529
-981.369
5.11795
-981.716
3.62214
-981.876
2.10169
-982.163
0.587432
-982.38
-0.946294
-982.668
-2.47951
-982.898
-4.02368
-983.233
-5.58185
-983.451
-7.12719
-983.857
-8.71188
-984.066
-10.175
-984.273
-12.8982
-987.566
-19.5883
-1026.84
-866.566
19.9085
-872.129
12.9632
-1019.56
10.4991
-982.065
9.18741
-979.209
7.77284
-979.889
6.36478
-979.961
4.92544
-980.277
3.49737
-980.448
2.04486
-980.711
0.597379
-980.932
-0.869806
-981.201
-2.33431
-981.433
-3.81527
-981.752
-5.30184
-981.965
-6.78542
-982.374
-8.30351
-982.548
-9.70483
-982.872
-12.1722
-985.098
-19.4455
-1019.57
-886.012
19.8439
-891.973
12.2565
-1011.97
10.0768
-979.885
8.83625
-977.969
7.49316
-978.546
6.15944
-978.627
4.78923
-978.907
3.42792
-979.087
2.04181
-979.325
0.656202
-979.546
-0.748832
-979.796
-2.15158
-980.031
-3.57611
-980.328
-4.99607
-980.545
-6.42717
-980.943
-7.87931
-981.095
-9.22733
-981.524
-11.4453
-982.88
-19.2832
-1011.73
-905.295
19.8666
-911.839
11.6139
-1003.72
9.74532
-978.016
8.60227
-976.826
7.35101
-977.295
6.11304
-977.389
4.82931
-977.623
3.54639
-977.804
2.23625
-978.015
0.916092
-978.226
-0.426337
-978.454
-1.77464
-978.682
-3.15252
-978.95
-4.52266
-979.175
-5.92736
-979.538
-7.33134
-979.691
-8.66589
-980.189
-10.6709
-980.875
-19.0361
-1003.36
-924.331
20.075
-931.914
11.0997
-994.746
9.58687
-976.503
8.60137
-975.84
7.47945
-976.173
6.36757
-976.277
5.19883
-976.454
4.01361
-976.619
2.79587
-976.797
1.55465
-976.985
0.286249
-977.185
-0.999963
-977.396
-2.32095
-977.629
-3.64181
-977.854
-5.02248
-978.157
-6.38114
-978.333
-7.76026
-978.81
-9.59941
-979.036
-18.4201
-994.541
-942.751
20.7986
-952.713
11.0693
-985.016
9.96442
-975.398
9.25133
-975.127
8.35698
-975.278
7.43171
-975.352
6.4235
-975.446
5.35212
-975.547
4.21303
-975.658
3.00894
-975.781
1.74172
-975.918
0.417192
-976.071
-0.967009
-976.245
-2.38453
-976.436
-3.87371
-976.668
-5.32738
-976.879
-6.87786
-977.26
-8.53034
-977.384
-17.5619
-985.51
-960.313
22.2871
12.2709
11.8724
11.7455
11.4673
11.1154
10.6695
10.1224
9.46468
8.68379
7.76591
6.69444
5.4497
4.01347
2.34548
0.466432
-1.79312
-4.17686
-14.6868
56.322
-786.52
842.887
-786.477
-786.428
-786.419
-4695.59
3909.18
-4695.59
-4695.59
-4695.6
-10827.8
6132.21
-10827.8
-10827.8
-17561.7
6733.88
-17561.7
-17561.7
-17561.7
-23525.1
5963.41
-23525.1
-23525.1
-29452.2
5927.05
-28684.5
-27713.5
-26803.8
-26050.1
-25439.3
-24908.6
-24375.8
-23781.4
-29865.4
6756.17
-29073.3
-28181.9
-27199.4
-26133
-24985.3
-23747.6
-22390.9
-20868.1
-19177.4
-18118.5
619.36
-17327.7
-17327.7
-18378
1050.25
-18342
-35.9741
-18342
-17806.5
-535.486
-17806.5
-16606.2
-1200.38
-14648.5
-1957.69
-14648.5
-11999.1
-2649.37
-11999.1
-8678.02
-3321.09
-5127.09
-3550.93
-5127.1
-1486.65
-3640.47
1176.15
-2662.83
1176.12
1657.49
-481.398
1657.47
1657.47
-420.613
420.597
-945.533
524.912
-841.538
-104.004
709.454
-1551
1713.67
-1004.22
2055.01
-341.348
1797.84
257.17
3431.89
-1634.06
4686.18
-1254.29
2066.7
2619.48
-84.45
2151.14
-1938.18
1853.73
-2030.17
91.9813
690.253
-2720.43
4591.05
-3900.8
8288.32
-3697.27
8221.71
66.5957
2835.93
5385.77
4493.39
-324.328
744.912
-1013.43
1214.01
-830.255
-287.191
622.544
-3003.8
1562.37
-1944.05
1882.05
-661.028
1548.63
590.587
2697.42
-2782.86
4508.02
-3064.89
3620.37
3507.14
176.588
5594.92
-2781.98
4812.29
-2590.74
-99.2623
-36.8346
-5274.33
3922.48
-7860.12
7415.19
-7189.99
8907.41
-1425.63
5842.8
8450.37
9854.78
-155.189
900.092
-875.33
1934.15
-774.272
-388.257
681.997
-4460.07
1609.96
-2872.02
1899.28
-950.354
1525.4
964.459
2217.2
-3474.66
3828.82
-4676.51
3042.09
4293.86
-792.566
9429.58
-3536.14
7555.86
-2965.01
-670.4
-617.574
-7621.77
3137.02
-11614.7
6492.32
-10545.3
8242.58
-3175.91
6813.9
9879.04
14005.9
-254.481
1154.57
-842.079
2521.74
-757.177
-473.167
650.491
-5867.74
1611.4
-3832.92
1925.96
-1264.92
1616.14
1274.28
1645.81
-3504.34
2711.28
-5741.98
1172.95
5832.19
-2675.86
13278.4
-4259.18
9139.17
-3382.25
-1547.33
-1158.04
-9845.98
2295.84
-15068.6
5508.35
-13757.8
7200.84
-4868.41
6662.14
10417.7
17027.5
-432.927
1587.49
-876.278
2965.09
-778.984
-570.468
505.756
-7152.48
1469.35
-4796.52
1868.46
-1664.04
1709.03
1433.71
1070.05
-2865.36
657.828
-5329.76
-1550.8
8040.81
-4316.08
16043.7
-4631.04
9454.13
-3663
-2515.36
-1602.65
-11906.3
1433.36
-18104.6
4380.69
-16705.1
5960.02
-6447.74
5938.82
10438.9
19415.4
-492.956
2080.44
-835.718
3307.84
-748.753
-657.441
415.782
-8317.02
1306.93
-5687.66
1765.61
-2122.72
1809
1390.31
681.018
-1737.38
-1623.37
-3025.38
-3931.56
10349
-5094.05
17206.1
-4674.2
9034.29
-3665.92
-3523.65
-1857.84
-13714.4
583.013
-20545.5
3123.57
-19245.7
4595.37
-7919.55
4878.82
10155.5
20973.1
-547.972
2628.41
-737.145
3497.02
-608.47
-786.122
483.794
-9409.28
1227.23
-6431.1
1660.94
-2556.44
1857.85
1193.4
465.327
-344.866
-2920.07
360.014
-4987.72
12416.7
-5187.59
17406
-4395.9
8242.59
-3252.85
-4666.7
-1827.57
-15139.7
-211.129
-22161.9
1782.73
-21239.5
3143.87
-9280.7
3651.01
9648.31
21974.8
-850.125
3478.53
-772.761
3419.65
-442.632
-1116.26
660.903
-10512.8
1266.55
-7036.75
1606.24
-2896.13
1814.14
985.501
294.699
1174.57
-3350.37
4005.08
-5068.36
14134.6
-4889.99
17227.6
-3764.47
7117.07
-2397.85
-6033.32
-1501.39
-16036.2
-922.932
-22740.4
402.612
-22565.1
1627.34
-10505.4
2359.41
8916.23
22376.5
-1396.3
4874.84
-1005.2
3028.54
-387.254
-1734.21
813.71
-11713.8
1407.31
-7630.35
1667.65
-3156.47
1806.41
846.739
86.68
2894.29
-3307.64
7399.4
-4703.66
15530.7
-4365.08
16889.1
-2954.35
5706.34
-1398.14
-7589.53
-1061.29
-16373
-1591.18
-22210.5
-1003.53
-23152.7
76.095
-11585.1
953.508
8038.81
22129.6
-1916.81
6791.64
-1290.5
2402.23
-498.657
-2526.06
853.671
-13066.1
1580.93
-8357.62
1849.4
-3424.94
1762.21
933.926
-66.4995
4723
-3021.64
10354.5
-4162.05
16671.1
-3722.9
16449.9
-2274.72
4258.15
-721.306
-9142.94
-855.492
-16238.8
-2338.14
-20727.8
-2400.13
-23090.8
-1471.95
-12513.2
-399.664
6966.51
21194.4
-2219.13
9010.77
-1500.36
1683.47
-706.612
-3319.81
797.151
-14569.9
1729.57
-9290.04
2068.62
-3763.98
1705.41
1297.13
-179.558
6607.97
-2634.36
12809.3
-3536.88
17573.6
-3049.12
15962.2
-1787.53
2996.55
-501.119
-10429.3
-1126.23
-15613.7
-3260.11
-18593.9
-3721.26
-22629.6
-2857.35
-13377.2
-1494.46
5603.61
19664
-2288.11
11298.9
-1599.44
994.787
-887.406
-4031.84
741.142
-16198.4
1875.86
-10424.8
2270.96
-4159.08
1651.68
1916.41
-217.348
8476.99
-2178.28
14770.3
-2863.71
18259
-2388.55
15487
-1356.29
1964.29
-542.566
-11243.1
-1812.27
-14344
-4319.42
-16086.8
-4960.39
-21988.6
-4071.82
-14265.7
-2650.25
4182.03
18064
-2160.88
13459.8
-1587.96
421.861
-968.551
-4651.25
783.59
-17950.6
2084.73
-11725.9
2477.63
-4551.98
1645.11
2748.93
-133.449
10255.5
-1658.5
16295.3
-2164.74
18765.3
-1756.56
15078.8
-940.967
1148.69
-705.793
-11478.3
-2668.14
-12381.7
-5351.7
-13403.2
-6125.61
-21214.7
-5012.36
-15379
-3200.02
2369.69
15483.3
-1897.01
15356.8
-1487.33
12.1715
-961.513
-5177.07
963.238
-19875.3
2395.65
-13158.3
2726.16
-4882.49
1726.59
3748.5
89.2527
11892.9
-1085.33
17469.9
-1456.6
19136.5
-1174.25
14796.5
-638.195
612.624
-997.546
-11118.9
-3469.34
-9909.87
-6162.5
-10710.1
-7226.58
-20150.7
-5678.63
-16926.9
-4445.65
1136.71
17793.8
-1607.73
16964.5
-1343.18
-252.384
-908.366
-5611.88
1271.85
-22055.5
2819.48
-14705.9
3044.11
-5107.12
1914.56
4878.05
438.589
13368.9
-477.649
18386.1
-753.729
19412.6
-675.347
14718.1
-550.278
487.548
-1449.25
-10219.9
-4107.88
-7251.24
-6631.4
-8186.57
-8303.02
-18479
-7454.45
-17775.5
-5982.07
-335.671
17738.8
-1395.81
18360.3
-1159.84
-488.366
-810.874
-5960.85
1696.29
-24562.7
3362.03
-16371.7
3452.96
-5198.05
2210.9
6120.11
892.303
14687.5
156.174
19122.3
-47.7826
19616.6
-217.64
14888
-633.118
903.021
-2049.51
-8803.54
-4629.18
-4671.57
-6820.34
-5995.41
-8904.41
-16395
-9349.92
-17330
-7824.32
-1861.27
15877.9
-1289.29
19649.6
-913.322
-864.339
-618.582
-6255.59
2239.76
-27421
4032
-18163.9
3973.75
-5139.8
2609.66
7484.19
1425.15
15872
822.686
19724.7
682.989
19756.3
350.252
15220.7
-673.575
1926.84
-2742.3
-6734.81
-5146.79
-2267.09
-6984.29
-4157.92
-8923.38
-14455.9
-10201.6
-16051.8
-9249.46
-2813.36
13362.3
-1278.88
20928.5
-739.182
-1404.05
-263.772
-6731
2920.03
-30604.8
4839.32
-20083.2
4623.3
-4923.79
3105.78
9001.72
2017.01
16960.7
1515.04
20226.7
1427.53
19843.8
1043.98
15604.3
-661.722
3632.55
-3411.81
-3984.73
-5671.15
-7.75518
-7305.53
-2523.54
-8682.71
-13078.7
-9797.89
-14936.6
-9244.07
-3367.17
10250.5
-1474.06
22402.5
-861.121
-2016.99
306.496
-7898.62
3758
-34056.3
5793.07
-22118.3
5407.42
-4538.13
3685.79
10723.3
2650.44
17996.1
2227.72
20649.4
2170.07
19901.4
1787.84
15986.5
-519.252
5939.63
-3749.72
-754.264
-5963.46
2205.98
-7615.33
-871.679
-8581.32
-12112.7
-8690.97
-14827
-7634.73
-4423.4
6524.95
-1903.97
-1036.64
1108.92
4771.57
6894.56
6319.72
4323.16
3287.77
2946.53
2908.23
2571.42
97.9168
-3271.27
-5554.36
-7380.51
-8686.69
-8178.16
-5759.11
-669.476
1644.48
-1081.06
1386.58
-1501.49
1395.44
-1835.14
1308.65
-2128.24
1268.1
-2369.11
1215.87
-2566.07
1171.96
-2718.98
1127.91
-2830.25
1086.27
-2900.96
1045.71
-2932.11
1006.15
-2923.21
966.104
-2871.37
923.154
-2770.57
874.206
-2612.17
816.599
-2385.34
748.17
-2071.81
661.466
-1625.78
528.971
-965.26
314.48
9.73967
-182.578
1827.05
-416.095
1620.1
-663.102
1642.44
-869.773
1515.32
-1067.97
1466.3
-1235.06
1382.96
-1380.73
1317.63
-1500.73
1247.9
-1597.39
1182.93
-1668.54
1116.87
-1709.64
1047.24
-1711.72
968.186
-1665.4
876.837
-1565.75
774.554
-1413.17
664.014
-1205.94
540.948
-929.945
385.467
-557.328
156.353
-141.277
-101.57
-131.538
-159.722
1986.78
-352.687
1813.07
-506.888
1796.64
-630.377
1638.81
-744.155
1580.07
-833.918
1472.72
-913.739
1397.45
-979.694
1313.86
-1035.73
1238.96
-1076.97
1158.11
-1092.46
1062.74
-1060.19
935.91
-957.901
774.55
-786.769
603.423
-578.93
456.174
-352.91
314.928
-103.227
135.784
98.8449
-45.7187
190.884
-193.609
59.3466
-66.8068
2053.58
-158.37
1904.63
-232.595
1870.87
-299.766
1705.98
-369.479
1649.79
-428.496
1531.74
-490.649
1459.61
-548.107
1371.32
-607.1
1297.96
-664.056
1215.07
-716.884
1115.56
-753.903
972.929
-756.442
777.089
-710.75
557.731
-629.808
375.232
-535.007
220.127
-455.643
56.4203
-380.941
-120.42
-300.127
-274.424
-240.78
15.4072
2038.18
-52.3969
1972.43
-81.5392
1900.01
-104.833
1729.27
-127.389
1672.34
-141.171
1545.52
-153.019
1471.45
-156.706
1375
-155.5
1296.75
-149.721
1209.29
-146.816
1112.66
-158.962
985.075
-196.596
814.723
-248.875
610.01
-284.99
411.347
-293.948
229.086
-293.341
55.8135
-301.59
-112.172
-258.967
-317.047
-499.747
127.771
1910.4
86.9013
2013.3
109.492
1877.42
143.58
1695.18
187.932
1627.99
235.924
1497.53
294.044
1413.33
359.822
1309.23
436.513
1220.06
519.81
1125.99
602.74
1029.73
665.959
921.856
683.39
797.293
638.822
654.577
547.965
502.204
432.641
344.41
305.936
182.519
202.602
-8.83821
72.9992
-187.444
-426.748
171.675
1738.73
167.706
2017.27
206.771
1838.35
260.584
1641.37
327.774
1560.8
391.563
1433.74
463.28
1341.62
537.148
1235.36
618.086
1139.12
702.308
1041.77
786.305
945.733
859.537
848.624
907.391
749.438
914.833
647.136
875.348
541.689
788.707
431.051
654.991
316.235
460.27
185.883
233.768
39.0577
-192.98
139.294
1599.44
169.722
1986.84
211.675
1796.4
265.555
1587.49
329.661
1496.7
390.189
1373.21
454.297
1277.51
517.904
1171.75
582.051
1074.97
643.108
980.714
698.661
890.179
745.041
802.244
778.309
716.171
793.358
632.086
783.849
551.198
738.711
476.189
643.955
410.991
481.175
348.663
253.033
267.199
60.0536
62.7438
1536.69
110.556
1939.03
161.073
1745.88
213.139
1535.43
268.692
1441.14
326.715
1315.19
386.511
1217.71
450.72
1107.54
519.488
1006.21
596.748
903.454
682.328
804.599
773.729
710.842
863.823
626.078
939.749
556.16
980.289
510.658
956.237
500.24
842.505
524.723
624.992
566.177
328.248
563.943
388.301
-33.5169
1570.21
17.6438
1887.87
61.3185
1702.21
75.8691
1520.87
83.5976
1433.41
80.2332
1318.55
72.177
1225.77
70.6888
1109.03
90.0151
986.881
141.748
851.721
228.373
717.974
348.434
590.781
493.589
480.923
646.262
403.487
774.881
382.039
833.289
441.832
773.245
584.767
577.469
761.953
287.894
853.518
676.195
-172.815
1743.02
-235.809
1950.86
-301.68
1768.08
-418.029
1637.22
-552.148
1567.53
-709.75
1476.15
-876.089
1392.11
-1037.83
1270.77
-1177.35
1126.41
-1287.44
961.806
-1366.25
796.788
-1409.45
633.975
-1408.26
479.74
-1350.5
345.721
-1223.91
255.452
-1016.13
234.056
-724.793
293.427
-388.782
425.942
-116.261
580.997
559.934
-26.1427
1769.17
-182.593
2107.31
-327.565
1913.05
-461.604
1771.26
-599.093
1705.02
-746.427
1623.49
-900.949
1546.63
-1061.19
1431.01
-1225.78
1290.99
-1392.63
1128.66
-1560.42
964.576
-1724.45
798.008
-1873.46
628.748
-1983.58
455.839
-2014.96
286.836
-1911.29
130.387
-1632.59
14.7255
-1163.73
-42.9207
-533.106
-49.6259
26.8286
328.72
1440.45
297.748
2138.29
150.807
2059.99
52.9565
1869.11
1.73041
1756.25
-32.5785
1657.8
-60.0577
1574.11
-96.0717
1467.02
-147.549
1342.47
-216.34
1197.45
-297.164
1045.4
-386.44
887.283
-482.04
724.349
-580.461
554.26
-671.671
378.046
-738.108
196.825
-759.582
36.1987
-696.799
-105.703
-464.486
-281.939
-437.658
517.711
922.736
696.377
1959.62
642.184
2114.19
595.833
1915.46
616.92
1735.16
673.508
1601.21
748.655
1498.97
820.864
1394.81
879.174
1284.16
913.847
1162.78
924.506
1034.74
909.508
902.281
866.009
767.847
788.398
631.871
671.174
495.27
512.642
355.357
335.421
213.42
182.86
46.8576
43.3338
-142.412
-394.324
347.83
574.906
478.098
1829.35
491.658
2100.63
504.484
1902.64
550.838
1688.81
619.094
1532.95
698.504
1419.55
777.122
1316.2
847.607
1213.67
902.752
1107.63
938.745
998.75
952.55
888.476
941.628
778.769
902.985
670.514
833.962
564.294
732.281
457.039
598.105
347.596
423.674
221.288
214.422
66.8391
-179.902
27.5446
547.361
22.4078
1834.49
70.3676
2052.67
135.918
1837.09
205.311
1619.41
277.613
1460.65
350.998
1346.17
421.75
1245.45
486.044
1149.38
539.867
1053.81
579.73
958.887
602.806
865.4
607.576
773.999
593.892
684.198
562.543
595.642
512.647
506.934
438.37
421.873
326.309
333.349
162.655
230.493
-17.2468
-144.306
691.667
-174.595
1864.78
-91.8888
1969.96
-6.93582
1752.13
66.3671
1546.11
136.206
1390.81
205.44
1276.94
271.418
1179.47
331.262
1089.54
382.869
1002.2
425.125
916.632
458.447
832.079
484.897
747.548
506.622
662.474
522.155
580.11
519.58
509.509
477.417
464.036
371.248
439.519
191.483
410.259
174.236
-137.517
829.184
-151.496
1878.76
-47.3709
1865.84
62.2109
1642.55
156.757
1451.57
238.624
1308.94
315.012
1200.55
387.142
1107.34
455.614
1021.06
521.064
936.751
584.991
852.705
649.6
767.47
718.464
678.684
786.047
594.891
833.209
532.947
827.242
515.477
739.159
552.119
555.574
623.103
300.789
665.044
475.025
-16.5433
845.727
-4.89307
1867.11
13.28
1847.66
35.6658
1620.17
64.184
1423.05
91.8876
1281.24
122.309
1170.13
160.01
1069.64
209.811
971.262
276.144
870.417
360.437
768.411
467.075
660.832
585.388
560.37
695.08
485.199
763.823
464.203
752.734
526.565
643.293
661.559
444.519
821.875
213.887
895.673
688.912
54.9405
243.818
400.794
498.127
564.462
608.015
630.39
633.681
622.385
601.409
577.762
566.415
532.365
484.797
418.249
334.038
241.944
154.046
78.7647
)
;

boundaryField
{
    outletWallLeft
    {
        type            calculated;
        value           nonuniform List<scalar> 
40
(
136.061
75.2679
14.7399
-74.8741
-216.703
-407.668
-646.033
-931.603
-1275.46
-1668.45
-2145.39
-2649.17
-3306.34
-3800.51
-4652.81
-4334.72
-5742.23
-2144.2
-10480.5
10130.8
44756.2
-6811.07
31207.6
6730.55
8243.84
7925.97
11688.4
11526.1
7148.36
938.66
-207.148
-4940.34
-7142.21
-17054.8
-16381.7
-32387
-17019
-52032.7
-156339
253271
)
;
    }
    fineWallsLeft
    {
        type            calculated;
        value           uniform 0;
    }
    fineFrontAndBackLeft
    {
        type            calculated;
        value           nonuniform List<scalar> 
880
(
-9.13253e-12
-1.51383e-12
-2.22653e-12
-5.99122e-13
4.9213e-12
2.10898e-12
2.71497e-13
-2.24105e-13
9.84617e-14
-1.20292e-12
-2.96639e-12
-2.58969e-13
-5.3815e-13
-4.73815e-13
7.42315e-14
6.97162e-13
4.68809e-13
2.28352e-13
-2.40226e-12
-1.09072e-12
-2.12838e-13
-2.43773e-12
-7.26534e-13
-7.3765e-13
-7.04055e-13
-9.01314e-13
-8.25873e-13
-7.62862e-13
-7.59536e-13
-7.7194e-13
-8.07255e-13
-6.60291e-12
-8.46826e-13
-8.68199e-13
-8.57954e-13
-8.86177e-13
-8.77125e-13
-8.80611e-13
-8.38276e-13
-1.01455e-12
-1.11162e-11
-1.51655e-12
-1.40551e-12
-8.53007e-12
-1.29761e-12
-1.29274e-12
-1.28419e-12
-6.86923e-12
-8.63163e-13
-1.01944e-12
1.69067e-12
3.95695e-12
6.58969e-12
7.68434e-12
1.08448e-10
3.93374e-12
4.87921e-12
4.31162e-12
2.40868e-11
2.72855e-12
7.8393e-12
-2.68176e-13
9.13663e-12
1.13763e-11
8.80906e-12
3.85642e-12
-6.76991e-12
-6.68987e-12
-8.71344e-12
-1.15545e-11
-1.31906e-11
-1.40999e-11
-1.54916e-11
-1.8028e-11
-1.88206e-11
-1.88854e-11
-1.66768e-11
2.68457e-12
3.1824e-11
6.56698e-12
4.53317e-12
1.21782e-11
1.50089e-11
1.329e-11
1.05903e-11
-4.43215e-12
-6.1704e-12
-6.78332e-12
-9.51984e-12
-1.1707e-11
-1.30507e-11
-1.40465e-11
-1.96618e-11
-1.73503e-11
-1.62225e-11
-2.11174e-11
-1.91278e-11
2.5674e-11
4.88088e-12
1.01888e-11
1.4117e-11
1.67983e-11
1.52962e-11
1.55011e-11
-1.3277e-12
-5.79516e-12
-5.12105e-12
-7.11402e-12
-9.50566e-12
-1.1176e-11
-1.14845e-11
-1.88796e-11
-1.81793e-11
-1.56204e-11
-1.61043e-11
-1.8379e-11
-1.55662e-11
3.35372e-12
1.27439e-11
1.54752e-11
1.71143e-11
1.41526e-11
1.70731e-11
1.84565e-12
-5.54868e-12
-4.17528e-12
-4.94362e-12
-7.15951e-12
-8.95641e-12
-9.05815e-12
-1.47666e-11
-2.029e-11
-1.97303e-11
-1.70305e-11
-1.60988e-11
-1.63786e-11
2.17604e-12
1.34301e-11
1.64982e-11
1.62473e-11
9.91363e-12
1.39018e-11
4.21184e-12
-5.36229e-12
-4.21686e-12
-3.44606e-12
-5.05964e-12
-6.81915e-12
-7.315e-12
-9.6101e-12
-1.93375e-11
-2.29617e-11
-1.89441e-11
-1.50661e-11
-1.66618e-11
1.37601e-12
1.45245e-11
1.72571e-11
1.4305e-11
4.32215e-12
6.41017e-12
5.05331e-12
-5.06542e-12
-5.15078e-12
-2.86059e-12
-3.34404e-12
-4.90041e-12
-6.04716e-12
-5.74383e-12
-1.51144e-11
-2.09052e-11
-1.90527e-11
-1.41179e-11
-1.44168e-11
9.35083e-13
1.66475e-11
1.75097e-11
1.15732e-11
6.52305e-13
2.72675e-12
5.37829e-12
-4.43874e-12
-6.51504e-12
-3.28731e-12
-2.16152e-12
-3.20442e-12
-4.8619e-12
-3.82858e-12
-1.02177e-11
-1.56006e-11