/*--------------------------------*- C++ -*----------------------------------*\
| =========                 |                                                 |
| \\      /  F ield         | OpenFOAM: The Open Source CFD Toolbox           |
|  \\    /   O peration     | Version:  4.1                                   |
|   \\  /    A nd           | Web:      www.OpenFOAM.org                      |
|    \\/     M anipulation  |                                                 |
\*---------------------------------------------------------------------------*/
FoamFile
{
    version     2.0;
    format      ascii;
    class       volVectorField;
    location    "18";
    object      U;
}
// * * * * * * * * * * * * * * * * * * * * * * * * * * * * * * * * * * * * * //

dimensions      [0 1 -1 0 0 0 0];

internalField   nonuniform List<vector> 
1680
(
(-2.51325e-15 -142.297 -132.367)
(-1.09401e-15 30.2469 -99.7236)
(-6.12736e-16 -1.42609 -33.0084)
(-4.3297e-16 -0.234126 -5.24303)
(-4.54462e-16 5.52379 -2.88978)
(5.80388e-16 2.5404 -0.260743)
(1.96204e-16 1.7574 0.13317)
(-6.16731e-17 2.72196 1.10541)
(2.70964e-17 2.75064 3.71362)
(-6.57154e-16 1.91536 2.89046)
(-8.16345e-16 2.41257 4.82132)
(-1.8715e-16 1.78689 3.74171)
(-1.48098e-16 1.44701 4.82769)
(-1.30393e-16 2.22796 5.94881)
(5.36452e-17 1.63075 4.23012)
(1.91857e-16 1.5794 5.18059)
(3.38796e-16 1.68726 3.8879)
(6.2842e-17 0.634805 2.60213)
(-6.61097e-16 4.02179 1.45377)
(-7.88233e-16 0.23586 -2.46191)
(-8.73183e-16 2.86612 2.17034)
(-9.77535e-16 1.18796 -1.81422)
(-2.98065e-15 3.9281 5.90511)
(-3.02626e-15 4.45417 6.87076)
(-2.88843e-15 4.6476 7.76708)
(-3.6977e-15 4.77712 8.57893)
(-3.3882e-15 4.94521 9.30071)
(-3.12969e-15 5.01639 9.92566)
(-3.11605e-15 5.18644 10.5089)
(-3.16693e-15 5.09032 10.9273)
(-3.31181e-15 5.50758 11.635)
(-2.64779e-15 4.95004 9.51312)
(-3.47416e-15 7.03126 13.3039)
(-3.56184e-15 7.18792 13.7455)
(-3.51981e-15 7.25303 14.1028)
(-3.6356e-15 7.24144 14.4119)
(-3.59846e-15 7.36589 14.7098)
(-3.61276e-15 7.20425 14.8605)
(-3.43908e-15 7.56828 15.7109)
(-4.16225e-15 7.20188 14.4574)
(-3.86987e-15 9.94072 16.0275)
(-2.43623e-15 6.94382 11.5188)
(-2.26699e-15 5.98735 10.8446)
(-2.96956e-15 6.36319 13.9242)
(-2.08451e-15 4.55883 9.87188)
(-2.07669e-15 4.2742 9.68594)
(-2.06295e-15 3.5093 9.44794)
(-2.39138e-15 2.99176 10.9204)
(-1.38661e-15 1.86956 6.96266)
(-1.63765e-15 1.70004 7.0176)
(5.88571e-16 0.305366 4.8192)
(6.35655e-15 0.33032 -0.99624)
(1.05858e-14 -0.403741 -2.68251)
(1.23443e-14 0.297134 -3.46827)
(3.88618e-14 -0.478824 -5.72436)
(6.31926e-15 -0.180934 -2.02656)
(7.83808e-15 -0.0314373 -2.44728)
(6.9263e-15 0.0194741 -2.45348)
(8.3853e-15 -0.185504 -3.32077)
(4.38321e-15 0.115752 -3.10555)
(1.74207e-15 -8.47251 3.4045)
(-5.95947e-17 1.13388 4.06737)
(2.03036e-15 3.78631 -0.140001)
(2.52807e-15 13.2004 -7.24679)
(1.95757e-15 8.43902 -12.6064)
(8.56983e-16 1.20473 -14.4011)
(-1.50442e-15 -4.59845 -10.02)
(-1.48664e-15 -6.51971 -6.76161)
(-1.93632e-15 -7.04732 -6.07033)
(-2.56767e-15 -6.65359 -5.98739)
(-2.93124e-15 -5.49404 -6.05634)
(-3.13331e-15 -3.18776 -5.14678)
(-3.44257e-15 -1.40674 0.225402)
(-4.00621e-15 -1.87675 6.07337)
(-4.18235e-15 -0.602973 8.51225)
(-4.19675e-15 3.33236 11.8843)
(-3.70596e-15 5.20914 16.2063)
(5.96571e-16 2.92325 12.8857)
(7.072e-15 0.159862 3.82095)
(1.45933e-15 -9.39332 6.01015)
(1.00737e-15 1.89641 3.92727)
(2.70628e-15 4.83568 -2.09397)
(3.33531e-15 14.4941 -9.56168)
(2.95334e-15 9.15161 -14.5563)
(2.35341e-15 0.931112 -16.3126)
(-9.84923e-16 -5.43612 -11.5144)
(-1.3712e-15 -6.91478 -7.57702)
(-1.5074e-15 -7.11907 -6.91281)
(-2.11552e-15 -6.64195 -6.98689)
(-2.60156e-15 -5.56382 -7.14807)
(-2.90017e-15 -3.73452 -6.48787)
(-3.12143e-15 -2.47867 -3.04169)
(-4.36929e-15 -2.6669 3.02113)
(-3.85563e-15 -1.28565 5.14304)
(-3.605e-15 2.38371 8.72941)
(-4.69277e-15 4.76058 15.003)
(-4.25063e-15 4.08794 15.8797)
(5.70534e-15 2.8678 8.52172)
(1.08464e-15 -10.6235 8.52227)
(2.26418e-15 3.10575 5.807)
(3.13712e-15 6.23508 -4.47184)
(3.73296e-15 15.7437 -12.0986)
(3.39915e-15 9.78535 -15.5023)
(3.4447e-15 0.65933 -17.4054)
(-2.95043e-16 -6.36406 -12.9542)
(-1.28781e-15 -7.38666 -8.38399)
(-1.13801e-15 -7.18484 -7.51745)
(-1.58089e-15 -6.60104 -7.69309)
(-2.11237e-15 -5.59712 -7.9817)
(-2.48356e-15 -4.05351 -7.56379)
(-2.55211e-15 -3.31849 -5.57961)
(-4.19546e-15 -3.40763 -1.11)
(-4.03985e-15 -1.91242 1.90245)
(-3.47119e-15 1.40689 5.02113)
(-3.57873e-15 3.79735 10.8762)
(-4.08422e-15 4.26311 15.1412)
(-3.45915e-15 4.34316 12.7761)
(7.45271e-16 -12.3683 10.7037)
(2.83197e-15 4.80049 9.75944)
(3.43892e-15 8.25147 -7.1711)
(3.80318e-15 16.7587 -14.3445)
(3.14503e-15 10.2675 -13.6891)
(3.79401e-15 0.565151 -15.8994)
(4.10144e-16 -7.25539 -13.9445)
(-1.23304e-15 -7.93444 -9.22565)
(-9.27841e-16 -7.28119 -7.9908)
(-1.09858e-15 -6.54358 -8.11428)
(-1.591e-15 -5.59295 -8.48902)
(-1.99031e-15 -4.23915 -8.30974)
(-2.01292e-15 -3.78206 -7.06398)
(-3.28146e-15 -4.05232 -5.20384)
(-4.5089e-15 -2.58632 -1.40473)
(-4.38451e-15 0.617775 1.29487)
(-3.78456e-15 2.77284 5.22035)
(-3.57752e-15 3.67922 11.4694)
(-3.63969e-15 5.00372 13.8263)
(4.83564e-16 -14.8247 12.4242)
(2.98446e-15 6.9478 14.6311)
(3.66627e-15 10.9223 -10.123)
(3.6105e-15 17.1143 -15.4081)
(2.20303e-15 10.1364 -7.24377)
(3.0893e-15 1.00167 -7.94816)
(9.35965e-16 -7.65443 -13.636)
(-1.19162e-15 -8.50041 -10.1266)
(-9.3708e-16 -7.43519 -8.4957)
(-7.6579e-16 -6.49559 -8.37709)
(-1.12436e-15 -5.56181 -8.72594)
(-1.51537e-15 -4.35605 -8.7336)
(-1.62556e-15 -3.94361 -7.79882)
(-2.13558e-15 -4.45691 -7.9373)
(-4.29722e-15 -3.1888 -4.93754)
(-5.10259e-15 -0.286641 -1.85126)
(-4.20981e-15 2.00175 -0.240023)
(-3.34801e-15 2.44892 5.4537)
(-3.70262e-15 4.69506 10.7861)
(3.05779e-16 -18.055 13.6308)
(3.22766e-15 9.56878 20.049)
(3.83491e-15 14.128 -13.1353)
(3.17888e-15 16.2361 -14.4232)
(9.60478e-16 8.41578 2.87561)
(1.42448e-15 1.12545 5.33339)
(1.12296e-15 -6.99535 -11.625)
(-1.12565e-15 -8.87771 -11.1007)
(-1.14462e-15 -7.66553 -9.22196)
(-6.35687e-16 -6.49257 -8.65849)
(-7.4312e-16 -5.52629 -8.82832)
(-1.08898e-15 -4.43665 -8.90974)
(-1.34381e-15 -3.94342 -8.14587)
(-1.27641e-15 -4.57307 -9.18088)
(-3.35876e-15 -3.6476 -7.90606)
(-4.64559e-15 -0.903366 -5.68844)
(-4.23392e-15 1.47348 -3.67648)
(-3.13731e-15 1.3561 0.145611)
(-3.20374e-15 3.79309 4.25142)
(2.07796e-16 -22.0068 14.3383)
(3.69944e-15 12.6069 25.92)
(3.89104e-15 17.6734 -15.8579)
(2.57182e-15 14.0079 -11.2171)
(1.44957e-16 6.16348 10.3433)
(6.05944e-16 3.43061 7.82756)
(1.19518e-15 -4.95518 -9.27795)
(-9.86386e-16 -8.89815 -11.9561)
(-1.44779e-15 -7.95019 -10.2698)
(-7.30514e-16 -6.56892 -9.1322)
(-4.80337e-16 -5.51695 -8.94556)
(-7.12093e-16 -4.50053 -8.94874)
(-1.08042e-15 -3.89117 -8.32265)
(-8.50796e-16 -4.46467 -9.42957)
(-2.2706e-15 -3.84119 -9.78394)
(-3.46681e-15 -1.27088 -8.70211)
(-3.40331e-15 0.840733 -6.65327)
(-3.03881e-15 1.00663 -2.25976)
(-2.29284e-15 0.866787 -3.55275)
(1.88612e-16 -26.7982 14.6015)
(4.32135e-15 15.9779 32.2915)
(3.77331e-15 21.39 -17.855)
(1.89166e-15 11.1491 -6.0346)
(-4.49665e-17 4.65448 11.8296)
(5.48225e-16 5.76193 7.8902)
(1.27355e-15 -2.60246 -6.00266)
(-7.69534e-16 -8.57367 -12.2023)
(-1.72097e-15 -8.25346 -11.5769)
(-1.03519e-15 -6.7527 -9.95865)
(-3.99554e-16 -5.56893 -9.22179)
(-4.06871e-16 -4.56671 -8.96739)
(-7.92153e-16 -3.84896 -8.43025)
(-7.12681e-16 -4.24637 -9.22069)
(-1.48393e-15 -3.78576 -10.5897)
(-2.31638e-15 -1.55218 -10.4817)
(-2.53826e-15 0.234728 -8.73114)
(-2.4384e-15 0.585198 -5.0442)
(-2.60015e-15 1.24534 -4.97201)
(2.55633e-16 -32.276 14.4267)
(4.92944e-15 19.5628 39.3599)
(3.47187e-15 25.1473 -18.6035)
(1.18166e-15 8.27274 1.47681)
(-2.32663e-17 3.46216 11.6663)
(3.80249e-16 7.05772 9.33149)
(1.26e-15 -0.664834 0.0105745)
(-4.4892e-16 -7.66966 -11.1446)
(-1.83158e-15 -8.41107 -12.845)
(-1.46492e-15 -7.03757 -11.2243)
(-5.56573e-16 -5.7216 -9.80418)
(-2.28531e-16 -4.66244 -9.07892)
(-4.90765e-16 -3.84132 -8.51872)
(-6.40237e-16 -4.00151 -8.92461)
(-1.06542e-15 -3.57041 -10.6617)
(-1.58145e-15 -1.67983 -11.2199)
(-1.88917e-15 -0.206241 -9.87548)
(-2.06311e-15 0.0995143 -6.83243)
(-2.22405e-15 0.530813 -3.74778)
(4.20229e-16 -38.918 13.8342)
(5.39392e-15 23.1827 47.2848)
(3.05061e-15 28.7091 -17.398)
(4.68704e-16 5.29634 11.7115)
(7.10929e-18 3.04407 11.0708)
(1.13494e-16 7.83274 10.354)
(5.9775e-18 0.903196 6.05105)
(-3.10974e-16 -6.0584 -8.86637)
(-1.7163e-15 -8.24889 -13.6823)
(-1.84813e-15 -7.36176 -12.8855)
(-9.26245e-16 -6.00404 -10.8671)
(-2.36504e-16 -4.82578 -9.42706)
(-2.3056e-16 -3.88188 -8.63493)
(-4.93967e-16 -3.79798 -8.70609)
(-8.45069e-16 -3.32518 -10.3782)
(-1.21913e-15 -1.76367 -11.2827)
(-1.55001e-15 -0.645381 -10.3887)
(-1.82349e-15 -0.655463 -7.68835)
(-2.20502e-15 -0.316957 -5.37696)
(6.89124e-16 -45.9248 12.7057)
(5.75752e-15 26.5028 55.8376)
(2.65796e-15 31.9018 -13.6269)
(-7.90892e-17 2.54858 20.7575)
(4.91811e-17 3.63856 8.11412)
(1.12345e-16 8.32139 10.1287)
(1.16202e-16 3.08746 6.27542)
(-1.37273e-16 -3.73141 -5.55371)
(-1.45221e-15 -7.60357 -13.3161)
(-2.05498e-15 -7.60103 -14.4417)
(-1.38936e-15 -6.42278 -12.4167)
(-4.50739e-16 -5.10977 -10.1715)
(-8.98983e-17 -3.98296 -8.87714)
(-2.70245e-16 -3.62481 -8.62059)
(-6.44823e-16 -3.02902 -10.0234)
(-1.02578e-15 -1.6751 -11.0347)
(-1.40207e-15 -0.839829 -10.4992)
(-1.72838e-15 -1.01925 -8.05677)
(-2.13611e-15 -1.34439 -5.41229)
(1.05389e-15 -55.1055 11.0974)
(6.30634e-15 29.3534 63.3532)
(2.49537e-15 35.2884 -8.14087)
(-3.231e-16 1.49918 22.9713)
(1.31463e-16 4.75289 3.22514)
(5.59009e-17 8.29402 10.2092)
(1.19383e-16 4.16928 6.37882)
(-3.72178e-17 -1.69267 -0.545545)
(-1.16392e-15 -6.46766 -11.0774)
(-2.066e-15 -7.53217 -15.0735)
(-1.79874e-15 -6.86528 -14.1216)
(-8.22201e-16 -5.53514 -11.3918)
(-1.32334e-16 -4.19951 -9.38674)
(-6.56613e-17 -3.57337 -8.67638)
(-4.06342e-16 -2.8761 -9.7074)
(-8.50057e-16 -1.7783 -10.6874)
(-1.31889e-15 -1.32139 -10.4029)
(-1.72395e-15 -1.853 -8.26046)
(-2.0545e-15 -2.76197 -4.59664)
(1.48812e-15 -62.366 8.20622)
(7.40507e-15 31.7203 65.7311)
(2.7113e-15 39.3275 -2.94454)
(-5.36672e-16 1.26333 23.2658)
(2.23564e-16 5.75554 -1.69131)
(1.76364e-17 7.77307 10.1429)
(7.77366e-17 4.70063 6.05076)
(-3.49017e-16 -0.254174 6.3236)
(-1.00861e-15 -4.7996 -7.69665)
(-1.9686e-15 -6.99547 -14.5309)
(-2.08543e-15 -7.17453 -15.488)
(-1.25902e-15 -6.05439 -12.9475)
(-3.62918e-16 -4.50687 -10.2906)
(1.15368e-17 -3.5041 -8.98489)
(-1.79121e-16 -2.53679 -9.56342)
(-6.51512e-16 -1.4058 -10.4223)
(-1.23808e-15 -1.09853 -10.2666)
(-1.7513e-15 -1.97535 -8.32195)
(-1.99595e-15 -4.11483 -3.81409)
(1.90003e-15 -74.9351 4.06561)
(9.04145e-15 33.0133 56.5396)
(3.35976e-15 43.0572 0.560025)
(-8.70024e-16 1.96336 23.4589)
(2.563e-16 6.72043 -4.03965)
(-4.26725e-18 6.93025 9.90702)
(1.13392e-16 4.87651 4.4588)
(-4.08332e-17 1.25848 7.4502)
(-8.61509e-16 -2.51921 -3.67009)
(-1.86017e-15 -5.9299 -12.3003)
(-2.27126e-15 -7.18783 -15.8232)
(-1.68373e-15 -6.58398 -14.4188)
(-7.24079e-16 -5.03449 -11.5164)
(-8.20995e-17 -3.8098 -9.56478)
(-4.1716e-17 -2.75865 -9.55991)
(-4.65692e-16 -1.99299 -10.2009)
(-1.15378e-15 -2.10821 -10.1175)
(-1.77931e-15 -3.60715 -8.37837)
(-1.93637e-15 -5.65073 -3.06794)
(2.21777e-15 -73.9691 -3.89459)
(1.0519e-14 33.0581 33.1574)
(4.33226e-15 45.0387 0.82677)
(-1.13737e-15 3.01106 22.4536)
(2.14146e-16 7.7966 -3.42747)
(-1.42518e-17 6.2175 9.59881)
(5.77294e-17 5.00203 3.52916)
(1.13319e-16 1.62844 7.05883)
(-5.2179e-16 -0.868398 0.366129)
(-1.62235e-15 -4.54103 -8.79386)
(-2.3449e-15 -6.76198 -14.8239)
(-2.05156e-15 -6.89342 -15.3435)
(-1.1429e-15 -5.37322 -12.8839)
(-3.23322e-16 -3.67149 -10.5487)
(-3.46e-17 -2.04272 -10.0065)
(-3.35832e-16 -0.669616 -10.3154)
(-1.08272e-15 -0.714899 -10.1083)
(-1.79875e-15 -2.46936 -8.19947)
(-1.81258e-15 -6.62258 -2.00766)
(1.93605e-15 -95.6698 -10.2644)
(1.1141e-14 36.5703 0.0933825)
(5.22953e-15 44.4067 -2.21181)
(-1.14e-15 3.90174 20.1651)
(1.47803e-16 9.06087 -2.01929)
(-1.13889e-17 5.85824 9.04573)
(2.0053e-17 5.35461 2.8515)
(1.21612e-16 2.01437 6.11462)
(-6.0426e-17 0.663539 1.56233)
(-1.21848e-15 -2.92935 -5.12891)
(-2.25844e-15 -5.88749 -12.5858)
(-2.30986e-15 -7.03188 -15.282)
(-1.54437e-15 -6.23046 -13.8924)
(-6.51989e-16 -4.86105 -11.6107)
(-1.65643e-16 -3.52491 -10.6026)
(-3.09612e-16 -3.27911 -10.504)
(-1.0491e-15 -3.85538 -10.0354)
(-1.80135e-15 -7.08512 -8.43403)
(-1.70441e-15 -8.33894 -1.71092)
(2.58282e-15 -55.226 -26.7193)
(1.14886e-14 36.6299 -27.6788)
(5.57208e-15 40.8527 -6.11018)
(-9.38172e-16 3.88108 16.7557)
(8.6743e-17 9.31775 -0.995163)
(-5.92619e-18 5.42973 8.08391)
(4.9686e-18 5.39696 2.3355)
(5.88451e-17 2.09101 5.23505)
(7.43475e-18 1.44159 1.63364)
(-7.59153e-16 -1.60654 -1.53086)
(-1.99733e-15 -4.72644 -9.48232)
(-2.41787e-15 -6.46802 -14.3596)
(-1.87061e-15 -5.53803 -14.5742)
(-9.8495e-16 -3.29488 -12.7739)
(-3.51663e-16 -0.837654 -11.6288)
(-3.34161e-16 1.60877 -10.8986)
(-1.02947e-15 1.32235 -10.0037)
(-1.74441e-15 -0.0853946 -7.08496)
(-1.51666e-15 -8.40554 -0.00868763)
(-2.3189e-15 -140.815 -8.43594)
(1.30931e-14 19.1694 -53.8256)
(5.05378e-15 32.8881 -5.60538)
(-7.29597e-16 2.36048 13.2563)
(4.10881e-17 8.56224 -0.340772)
(-1.93324e-18 4.60266 6.94537)
(5.50275e-19 4.98122 1.88056)
(2.54752e-17 1.86222 4.55627)
(2.612e-17 1.62219 1.77674)
(-4.04594e-16 -0.735454 1.41871)
(-1.64013e-15 -3.37716 -5.98114)
(-2.40033e-15 -6.46365 -12.2963)
(-2.18856e-15 -7.88088 -14.3766)
(-1.49892e-15 -7.69732 -14.0764)
(-8.94079e-16 -6.618 -13.5295)
(-7.37936e-16 -8.00654 -13.1287)
(-1.21852e-15 -8.69361 -11.2343)
(-1.8047e-15 -17.4826 -10.8288)
(-1.40608e-15 -9.92712 -1.82967)
(1.84788e-14 77.9102 -102.364)
(1.46167e-14 33.3489 -62.5392)
(3.5662e-15 26.2524 6.33184)
(-5.01884e-16 4.32188 13.0763)
(1.08472e-17 13.0613 0.0332694)
(-1.88819e-19 6.27449 5.62891)
(2.95238e-19 7.03552 1.4422)
(9.92407e-18 2.6543 3.88065)
(4.77074e-19 2.27399 1.5349)
(-4.12162e-16 -0.236741 3.49884)
(-1.23853e-15 -1.88518 -3.23287)
(-2.04153e-15 -3.53179 -10.4484)
(-1.85953e-15 -1.93432 -13.1126)
(-1.04224e-15 1.54002 -11.7987)
(-1.63974e-16 4.44376 -9.54411)
(1.88725e-16 9.86117 -5.06682)
(-4.6153e-16 8.58666 -4.56695)
(-8.45591e-16 17.7134 6.37095)
(-9.0023e-16 -10.4021 4.22959)
(-9.96061e-14 -352.384 311.901)
(6.59568e-15 80.7065 -52.6498)
(1.95523e-15 32.2087 12.2476)
(-7.59356e-17 8.00924 8.41975)
(-2.20589e-18 15.2402 0.120533)
(1.03501e-19 7.58244 2.30763)
(-8.08038e-20 8.03629 0.571997)
(6.38998e-19 3.38813 1.6998)
(8.94253e-18 2.60312 0.619656)
(-2.11677e-16 0.641811 3.60971)
(-1.12186e-15 -1.09388 2.28503)
(-3.09073e-15 -7.96666 -7.29347)
(-4.55825e-15 -14.611 -18.3499)
(-5.01732e-15 -17.5757 -27.7498)
(-4.45622e-15 -16.4451 -30.8849)
(-4.43358e-15 -21.8019 -37.1718)
(-4.14912e-15 -21.3597 -28.6016)
(-5.04012e-15 -52.7111 -52.3328)
(-2.47191e-15 -0.36541 1.31501)
(2.41686e-17 5.17827 9.54524)
(-7.77831e-15 9.81132 16.8118)
(-6.35275e-15 9.98459 17.112)
(-5.88731e-15 9.71585 16.3895)
(-5.85111e-15 9.6662 16.2013)
(-8.53162e-15 9.71938 16.153)
(-6.28569e-15 9.74438 16.125)
(-5.45169e-15 9.77914 16.0961)
(-5.58052e-15 9.78814 16.0726)
(-5.56291e-15 9.82169 16.0698)
(-5.56839e-15 9.80621 16.0466)
(-5.5838e-15 9.72983 15.8423)
(-5.71258e-15 9.78179 15.9946)
(-6.02353e-15 9.79366 16.065)
(-5.65854e-15 9.78116 16.0953)
(-5.82083e-15 9.73675 16.1428)
(-5.38178e-15 9.72457 16.1453)
(-5.16033e-15 9.8106 16.5338)
(-5.00328e-15 10.3337 17.2256)
(-8.15206e-15 6.48776 11.3239)
(1.51162e-16 4.78346 8.02301)
(-6.45294e-15 9.2281 15.7685)
(-5.50158e-15 9.10141 15.5717)
(-5.29334e-15 8.77645 15.0145)
(-5.28309e-15 8.76039 15.0157)
(-8.5033e-15 8.79993 15.0504)
(-4.97796e-15 8.80811 15.0833)
(-5.03728e-15 8.83252 15.1056)
(-5.47279e-15 8.84665 15.1378)
(-5.11774e-15 8.86409 15.1619)
(-4.8852e-15 8.88358 15.1971)
(-5.12114e-15 8.92531 15.2701)
(-5.17214e-15 8.93945 15.2682)
(-5.4274e-15 8.94336 15.2961)
(-5.22503e-15 8.96727 15.3245)
(-5.16029e-15 8.96307 15.3624)
(-4.98667e-15 8.98989 15.3871)
(-4.84729e-15 9.16532 15.7677)
(-4.6977e-15 9.56383 16.4094)
(-7.80389e-15 5.73279 9.96909)
(-8.29629e-18 5.50521 9.58536)
(-2.54007e-15 9.61239 16.4341)
(-2.23266e-15 9.30948 16.0382)
(-1.94317e-15 9.06343 15.5525)
(-1.86966e-15 9.02893 15.537)
(-4.88854e-15 9.04752 15.5354)
(-2.47533e-15 9.03599 15.5401)
(-2.66975e-15 9.04341 15.5354)
(-2.69251e-15 9.03696 15.5385)
(-2.64986e-15 9.04118 15.5392)
(-2.40523e-15 9.03857 15.5418)
(-2.54601e-15 9.03214 15.5369)
(-2.4471e-15 9.03479 15.5486)
(-2.09208e-15 9.03217 15.5607)
(-2.565e-15 9.03897 15.5644)
(-2.27702e-15 9.02309 15.5769)
(-2.59888e-15 9.03993 15.5756)
(-2.51851e-15 9.20518 15.9422)
(-2.43401e-15 9.61155 16.5591)
(-3.76391e-15 5.82752 10.2179)
(-2.0969e-18 5.56844 9.58672)
(5.66777e-16 9.46791 16.2469)
(5.29452e-16 9.12146 15.7265)
(4.01245e-16 8.89992 15.3059)
(4.53296e-16 8.87982 15.314)
(-2.84897e-15 8.8997 15.323)
(-2.36473e-15 8.89138 15.3367)
(-2.7246e-15 8.90068 15.3406)
(-2.54559e-15 8.8969 15.3519)
(-2.75153e-15 8.90226 15.3582)
(-2.58383e-15 8.90185 15.3682)
(-2.65166e-15 8.90557 15.3795)
(-2.60896e-15 8.90823 15.3859)
(-2.28012e-15 8.9056 15.3977)
(-2.74019e-15 8.91351 15.4034)
(-2.32267e-15 8.90168 15.4155)
(-2.66546e-15 8.91766 15.4171)
(-2.61459e-15 9.09168 15.7767)
(-2.52389e-15 9.4884 16.4148)
(-3.88701e-15 5.82092 10.1697)
(1.17883e-18 5.84857 10.1217)
(-1.24475e-16 9.5276 16.3466)
(-1.07962e-16 9.11671 15.7382)
(-8.87001e-17 8.92671 15.3629)
(-9.85739e-17 8.90531 15.3725)
(6.96021e-16 8.92063 15.3752)
(5.56806e-16 8.90913 15.3843)
(5.93684e-16 8.91491 15.3842)
(6.18919e-16 8.90809 15.3911)
(5.90931e-16 8.91048 15.3937)
(5.47308e-16 8.90697 15.3994)
(5.75022e-16 8.90627 15.4036)
(5.54473e-16 8.90611 15.4087)
(5.12898e-16 8.90251 15.4165)
(5.7572e-16 8.90707 15.419)
(5.38415e-16 8.8947 15.4266)
(5.81319e-16 8.90727 15.4235)
(5.63881e-16 9.06607 15.7551)
(5.51818e-16 9.48021 16.4235)
(8.25286e-16 5.97599 10.46)
(-4.04468e-19 6.01973 10.3962)
(2.75051e-17 9.49028 16.2993)
(2.27912e-17 9.04926 15.624)
(2.03783e-17 8.88236 15.2951)
(2.27776e-17 8.86604 15.3097)
(-1.62581e-16 8.88045 15.3135)
(-1.21844e-16 8.87041 15.3236)
(-1.21037e-16 8.87633 15.3251)
(-1.26211e-16 8.87045 15.333)
(-1.23126e-16 8.87317 15.3366)
(-1.18564e-16 8.87011 15.3433)
(-1.22554e-16 8.87053 15.3488)
(-1.21615e-16 8.87019 15.3542)
(-1.17167e-16 8.86753 15.3619)
(-1.18705e-16 8.87138 15.3654)
(-1.21296e-16 8.86121 15.3732)
(-1.20246e-16 8.87094 15.3692)
(-1.14628e-16 9.01384 15.6668)
(-1.1508e-16 9.44733 16.3793)
(-1.74369e-16 6.13132 10.7228)
(1.1931e-19 6.22366 10.7531)
(-6.12245e-18 9.48383 16.2916)
(-4.94081e-18 9.01432 15.5675)
(-4.70364e-18 8.87049 15.2786)
(-5.30113e-18 8.85578 15.2948)
(3.75614e-17 8.86839 15.297)
(2.61566e-17 8.85839 15.3059)
(2.6337e-17 8.86335 15.3068)
(2.57523e-17 8.85736 15.3138)
(2.73958e-17 8.85945 15.3166)
(2.7106e-17 8.85599 15.3226)
(2.7335e-17 8.85609 15.327)
(2.86135e-17 8.85499 15.332)
(2.73677e-17 8.85272 15.3385)
(2.67009e-17 8.85531 15.3419)
(2.77563e-17 8.84658 15.3487)
(2.53564e-17 8.85358 15.3434)
(2.41297e-17 8.97829 15.6046)
(2.52358e-17 9.42855 16.3502)
(3.77741e-17 6.3105 11.0345)
(-3.2611e-20 6.40967 11.067)
(1.36889e-18 9.45647 16.2515)
(1.10421e-18 8.97055 15.4926)
(1.07588e-18 8.84757 15.2429)
(1.20615e-18 8.83531 15.2604)
(-8.32055e-18 8.84671 15.2625)
(-5.64659e-18 8.8376 15.2711)
(-5.97694e-18 8.8422 15.2724)
(-5.58555e-18 8.83676 15.2793)
(-6.11798e-18 8.83878 15.2823)
(-6.16256e-18 8.83552 15.2883)
(-6.06086e-18 8.83594 15.2927)
(-6.61527e-18 8.83458 15.298)
(-6.28683e-18 8.83309 15.304)
(-6.09291e-18 8.83484 15.308)
(-6.28162e-18 8.82794 15.3147)
(-5.43921e-18 8.8327 15.3092)
(-5.24427e-18 8.94017 15.5349)
(-5.71715e-18 9.40074 16.3041)
(-8.02724e-18 6.48871 11.3403)
(8.63645e-21 6.59968 11.3921)
(-3.07708e-19 9.42964 16.2101)
(-2.53196e-19 8.9341 15.4305)
(-2.44944e-19 8.83089 15.2171)
(-2.72366e-19 8.82014 15.2349)
(1.79614e-18 8.83026 15.2364)
(1.26048e-18 8.82178 15.2443)
(1.37962e-18 8.82582 15.2458)
(1.27534e-18 8.82076 15.2522)
(1.36648e-18 8.82251 15.2551)
(1.38977e-18 8.81933 15.2608)
(1.34911e-18 8.81984 15.2648)
(1.49418e-18 8.81814 15.2701)
(1.42641e-18 8.81727 15.2756)
(1.39728e-18 8.8181 15.2799)
(1.41321e-18 8.81284 15.2861)
(1.22969e-18 8.81563 15.2809)
(1.19461e-18 8.9066 15.4727)
(1.32452e-18 9.37053 16.2524)
(1.71129e-18 6.66955 11.6518)
(-2.25773e-21 6.78577 11.7085)
(6.99687e-20 9.39464 16.1552)
(5.87537e-20 8.89807 15.3687)
(5.62562e-20 8.81309 15.1893)
(6.24482e-20 8.80371 15.2069)
(-3.90226e-19 8.81271 15.2082)
(-2.92318e-19 8.80501 15.2157)
(-3.18526e-19 8.80858 15.2173)
(-3.00104e-19 8.80404 15.2234)
(-3.08687e-19 8.80558 15.2264)
(-3.11681e-19 8.80262 15.232)
(-3.0872e-19 8.80326 15.2359)
(-3.35721e-19 8.80136 15.2413)
(-3.25121e-19 8.80113 15.2462)
(-3.21669e-19 8.80114 15.251)
(-3.20176e-19 8.79754 15.2568)
(-2.91644e-19 8.79865 15.2526)
(-2.82178e-19 8.87451 15.4127)
(-3.111e-19 9.33429 16.1902)
(-3.74633e-19 6.8493 11.9608)
(5.82963e-22 6.97132 12.0247)
(-1.61056e-20 9.35504 16.092)
(-1.37144e-20 8.86521 15.3123)
(-1.31656e-20 8.79697 15.1643)
(-1.46762e-20 8.78859 15.1811)
(8.71621e-20 8.7965 15.1822)
(6.96995e-20 8.78953 15.1892)
(7.34364e-20 8.79261 15.191)
(7.16222e-20 8.78856 15.1967)
(7.14341e-20 8.78984 15.1997)
(7.0167e-20 8.78711 15.2051)
(7.33067e-20 8.78781 15.2088)
(7.66331e-20 8.78575 15.2142)
(7.53034e-20 8.78607 15.2187)
(7.43042e-20 8.78529 15.2239)
(7.34402e-20 8.78325 15.2292)
(7.04217e-20 8.78288 15.2262)
(6.79823e-20 8.84506 15.3571)
(7.43221e-20 9.29312 16.1193)
(8.4667e-20 7.02851 12.2689)
(-1.48569e-22 7.15517 12.3377)
(3.7341e-21 9.30948 16.0186)
(3.2374e-21 8.83444 15.2595)
(3.13529e-21 8.78129 15.14)
(3.51713e-21 8.7737 15.1557)
(-1.99924e-20 8.78063 15.1567)
(-1.68787e-20 8.7744 15.1632)
(-1.69964e-20 8.777 15.1652)
(-1.71854e-20 8.77348 15.1706)
(-1.69595e-20 8.77447 15.1737)
(-1.60519e-20 8.77205 15.1788)
(-1.77996e-20 8.77274 15.1824)
(-1.79625e-20 8.77061 15.1879)
(-1.77303e-20 8.77143 15.1919)
(-1.72813e-20 8.76993 15.1975)
(-1.70785e-20 8.76936 15.2023)
(-1.6958e-20 8.76768 15.2009)
(-1.6544e-20 8.81778 15.3051)
(-1.80618e-20 9.24646 16.0391)
(-1.94881e-20 7.20666 12.575)
(3.75816e-23 7.33792 12.6488)
(-8.69118e-22 9.25856 15.9359)
(-7.77269e-22 8.80624 15.211)
(-7.52748e-22 8.7665 15.1172)
(-8.5063e-22 8.75949 15.1315)
(4.65079e-21 8.76551 15.1325)
(4.11018e-21 8.75999 15.1385)
(3.97494e-21 8.76211 15.1407)
(4.13083e-21 8.75912 15.1457)
(4.07875e-21 8.75979 15.1489)
(3.76481e-21 8.75772 15.1538)
(4.3226e-21 8.75833 15.1573)
(4.30652e-21 8.75622 15.1627)
(4.22167e-21 8.75741 15.1664)
(4.06031e-21 8.7553 15.1723)
(4.02919e-21 8.75608 15.1764)
(4.0578e-21 8.75323 15.1768)
(4.0417e-21 8.79292 15.2573)
(4.42034e-21 9.1945 15.9498)
(4.49602e-21 7.38388 12.8793)
(-9.50667e-24 7.51943 12.9576)
(2.03338e-22 9.20204 15.8434)
(1.89343e-22 8.78041 15.1667)
(1.80668e-22 8.75233 15.0954)
(2.06106e-22 8.74576 15.1082)
(-1.08809e-21 8.75097 15.1092)
(-9.98897e-22 8.74614 15.1147)
(-9.42723e-22 8.74779 15.1171)
(-9.93176e-22 8.74533 15.1217)
(-9.78647e-22 8.74568 15.125)
(-9.04408e-22 8.744 15.1296)
(-1.03615e-21 8.74445 15.1331)
(-1.042e-21 8.74248 15.1384)
(-1.01145e-21 8.74391 15.1418)
(-9.63177e-22 8.74133 15.148)
(-9.6311e-22 8.74331 15.1515)
(-9.68276e-22 8.73939 15.1538)
(-9.83675e-22 8.7704 15.2134)
(-1.07568e-21 9.13714 15.8513)
(-1.03293e-21 7.56013 13.1817)
(2.41176e-24 7.69996 13.2646)
(-4.79398e-23 9.14002 15.7414)
(-4.63655e-23 8.75703 15.1266)
(-4.31926e-23 8.73886 15.0746)
(-4.99079e-23 8.7326 15.0858)
(2.5578e-22 8.73706 15.0869)
(2.41187e-22 8.73292 15.092)
(2.26349e-22 8.73409 15.0946)
(2.38657e-22 8.73216 15.0988)
(2.32679e-22 8.73217 15.1022)
(2.20188e-22 8.73089 15.1064)
(2.44945e-22 8.73113 15.11)
(2.50898e-22 8.7294 15.1151)
(2.42877e-22 8.73089 15.1183)
(2.29935e-22 8.72804 15.1247)
(2.32189e-22 8.73102 15.1276)
(2.30999e-22 8.72614 15.1317)
(2.3684e-22 8.75021 15.1734)
(2.58562e-22 9.07437 15.7438)
(2.36859e-22 7.73542 13.482)
(-6.1176e-25 7.8798 13.5703)
(1.13862e-23 9.07256 15.6298)
(1.13017e-23 8.73619 15.0909)
(1.02862e-23 8.72624 15.055)
(1.20772e-23 8.72021 15.0647)
(-6.04839e-23 8.72395 15.0659)
(-5.78035e-23 8.72053 15.0705)
(-5.47149e-23 8.72118 15.0732)
(-5.72814e-23 8.71974 15.077)
(-5.49647e-23 8.71945 15.0804)
(-5.36592e-23 8.71851 15.0844)
(-5.75019e-23 8.71849 15.088)
(-5.96104e-23 8.71711 15.0928)
(-5.82427e-23 8.71841 15.096)
(-5.50748e-23 8.71557 15.1023)
(-5.60668e-23 8.7192 15.1047)
(-5.50997e-23 8.71351 15.1105)
(-5.62924e-23 8.73236 15.1374)
(-6.14666e-23 9.00625 15.6274)
(-5.44658e-23 7.90977 13.7799)
(1.54284e-25 8.05939 13.8752)
(-2.71404e-24 8.9995 15.5081)
(-2.72653e-24 8.71783 15.0597)
(-2.44306e-24 8.71458 15.0366)
(-2.91943e-24 8.70881 15.0447)
(1.43654e-23 8.71177 15.0461)
(1.37794e-23 8.7092 15.0501)
(1.3238e-23 8.70934 15.053)
(1.37227e-23 8.70835 15.0565)
(1.29888e-23 8.70786 15.0599)
(1.29978e-23 8.70717 15.0636)
(1.35165e-23 8.70692 15.0672)
(1.3957e-23 8.70594 15.0716)
(1.39104e-23 8.70679 15.0749)
(1.32092e-23 8.70434 15.0809)
(1.34688e-23 8.70806 15.0831)
(1.31328e-23 8.70183 15.0904)
(1.32594e-23 8.71705 15.1053)
(1.45329e-23 8.93317 15.5027)
(1.25848e-23 8.08324 14.0753)
(-3.8481e-26 8.23967 14.1804)
(6.45516e-25 8.92062 15.3748)
(6.50124e-25 8.70168 15.0324)
(5.78851e-25 8.70364 15.0189)
(7.03372e-25 8.69853 15.0253)
(-3.40928e-24 8.70037 15.0269)
(-3.27617e-24 8.69876 15.0302)
(-3.19085e-24 8.69843 15.033)
(-3.27633e-24 8.69773 15.0361)
(-3.08354e-24 8.69716 15.0394)
(-3.12471e-24 8.69661 15.0428)
(-3.1945e-24 8.69621 15.0464)
(-3.23324e-24 8.69561 15.0504)
(-3.30408e-24 8.69591 15.054)
(-3.1644e-24 8.69431 15.0594)
(-3.2035e-24 8.69731 15.062)
(-3.12578e-24 8.69135 15.0701)
(-3.11504e-24 8.70431 15.0763)
(-3.43462e-24 8.85565 15.3705)
(-2.91731e-24 8.25519 14.3662)
(9.57045e-27 8.42319 14.4926)
(-1.54074e-25 8.8381 15.2311)
(-1.55101e-25 8.6907 15.012)
(-1.38153e-25 8.69523 15.0051)
(-1.70059e-25 8.69184 15.0089)
(8.12939e-25 8.69214 15.0105)
(7.86947e-25 8.69116 15.0126)
(7.72587e-25 8.69037 15.0148)
(7.86679e-25 8.68953 15.0171)
(7.43517e-25 8.68865 15.0197)
(7.55142e-25 8.68777 15.0224)
(7.66902e-25 8.68691 15.0254)
(7.53301e-25 8.68607 15.0287)
(7.89301e-25 8.68546 15.0322)
(7.63026e-25 8.68436 15.0364)
(7.6081e-25 8.68535 15.0397)
(7.50225e-25 8.68107 15.0469)
(7.41322e-25 8.69111 15.0484)
(8.20894e-25 8.77268 15.2324)
(6.81845e-25 8.42329 14.6449)
(-1.98047e-27 8.61058 14.8239)
(3.04987e-26 8.75271 15.0801)
(3.09498e-26 8.69281 15.0032)
(2.76579e-26 8.695 15.0014)
(3.43359e-26 8.69442 15.0021)
(-1.6067e-25 8.69407 15.0026)
(-1.59127e-25 8.69366 15.0031)
(-1.55959e-25 8.69305 15.0038)
(-1.58093e-25 8.69232 15.0046)
(-1.50962e-25 8.69143 15.0056)
(-1.52734e-25 8.69038 15.0067)
(-1.54819e-25 8.68915 15.008)
(-1.48159e-25 8.68772 15.0095)
(-1.58205e-25 8.68605 15.0113)
(-1.53642e-25 8.68417 15.0133)
(-1.50625e-25 8.68209 15.0156)
(-1.51136e-25 8.67893 15.0189)
(-1.49314e-25 8.67939 15.02)
(-1.65546e-25 8.69419 15.0844)
(-1.33419e-25 8.59341 14.8933)
(3.70077e-15 0.0876285 -3.26875)
(2.39665e-15 -0.127272 -2.94671)
(3.20872e-16 -0.314103 0.0409797)
(-4.49467e-17 -0.251943 0.151312)
(-4.35492e-16 -0.217803 0.589509)
(-1.40445e-15 -0.836053 2.93655)
(-1.56556e-15 -1.41081 4.20302)
(-1.58638e-15 -1.6667 4.33991)
(-1.36438e-15 -1.78332 4.68432)
(-1.37053e-15 -2.96756 7.79567)
(-1.10492e-15 -3.52819 6.79414)
(-3.56239e-16 -3.69902 7.02651)
(1.22121e-15 -5.268 9.97744)
(1.85985e-15 -5.3072 7.45076)
(2.45511e-15 -6.05504 7.37824)
(2.69452e-15 -5.9608 7.11098)
(3.54752e-15 -8.19109 9.40388)
(2.00512e-15 -7.44291 6.65067)
(1.38942e-15 -7.88357 7.07232)
(8.81924e-16 -10.8613 11.0328)
(6.3729e-16 -8.59175 11.0277)
(-1.77074e-16 -8.79304 12.7429)
(-1.06838e-15 -8.47591 12.6819)
(-2.47764e-15 -8.60871 12.5361)
(-4.10256e-15 -8.57971 12.3448)
(-5.39472e-15 -8.71257 12.3156)
(-5.63041e-15 -8.82496 12.5814)
(-4.87602e-15 -8.85391 13.1402)
(-1.04515e-15 -9.49889 14.839)
(-2.7458e-15 -8.60904 13.7997)
(-1.04369e-15 -8.66351 14.0537)
(-2.74606e-16 -8.63197 13.739)
(3.56401e-16 -8.6162 13.1834)
(9.5941e-16 -8.52822 12.4861)
(1.53322e-15 -8.39582 11.936)
(1.72398e-15 -8.20394 11.7381)
(1.94134e-15 -7.94202 11.7704)
(1.93904e-15 -7.67287 11.2944)
(1.47962e-15 -3.25122 0.101521)
(1.08873e-15 -6.14544 4.04278)
(1.18519e-15 -3.51541 -1.84188)
(1.58633e-15 -7.97031 1.42942)
(1.29272e-15 -6.04097 -0.0751827)
(9.60465e-16 -5.72892 -0.191209)
(1.28021e-15 -7.37964 -0.479159)
(7.87024e-16 -5.18213 -0.720418)
(1.14517e-15 -6.53785 -1.22544)
(7.4082e-16 -5.53833 -1.81096)
(4.71408e-16 -4.51111 -1.67731)
(6.24496e-16 -5.56826 -2.62835)
(2.61781e-16 -3.33334 -2.16639)
(4.72256e-16 -4.03131 -3.5177)
(9.12094e-17 -2.46174 -3.20983)
(-7.9901e-17 -1.40557 -2.34821)
(-8.00432e-17 -1.48392 -3.57559)
(-4.65301e-16 -0.367964 -1.86418)
(-2.89123e-16 0.532451 -1.31669)
(-9.32873e-16 0.602433 1.55366)
(-7.16068e-17 0.433174 1.56565)
(-4.13224e-15 0.713124 3.84731)
(9.09303e-17 -0.0749346 0.0585374)
(-5.35846e-16 -0.0683809 1.43866)
(-1.27143e-15 0.0327283 2.08796)
(-1.41783e-15 0.294598 0.0142622)
(-1.26651e-15 0.200102 -2.0423)
(-8.94137e-16 0.0861724 -3.61476)
(-5.24412e-16 -0.0283373 -3.01333)
(-4.21004e-16 0.296062 -3.49034)
(-2.95496e-16 0.213406 -7.73554)
(-1.15187e-16 -0.49952 -7.09161)
(-1.22256e-17 -0.286367 -1.20029)
(8.40892e-17 -0.219751 2.29581)
(1.35898e-16 -0.061091 4.62877)
(1.43804e-16 0.490115 1.5157)
(3.14475e-16 0.652955 -4.10195)
(5.72529e-16 0.662329 -10.6663)
(6.78155e-16 -0.0799695 -16.1234)
(5.3078e-16 -1.02703 -11.6336)
(-1.20102e-15 -0.482157 1.55335)
(6.58422e-16 -0.210534 -0.306533)
(-6.15155e-16 -0.278379 1.45061)
(-2.19868e-15 0.0788453 2.2781)
(-1.90321e-15 0.766531 -0.0273424)
(-1.77534e-15 0.491663 -1.86834)
(-1.54689e-15 0.152646 -3.29972)
(-1.197e-15 -0.139942 -2.74335)
(-7.66515e-16 0.78338 -2.88375)
(-4.39281e-16 0.672407 -5.93629)
(-1.43521e-16 -1.10324 -8.4927)
(6.27592e-17 -1.2577 -4.36525)
(4.25214e-17 -1.07196 4.1191)
(-1.22319e-16 -0.0340873 5.4793)
(-4.14704e-17 1.36823 2.7553)
(4.37579e-16 1.99288 -2.82103)
(1.11172e-15 1.84735 -9.97634)
(1.48564e-15 0.171062 -13.9685)
(1.34125e-15 -2.42645 -16.1456)