/*--------------------------------*- C++ -*----------------------------------*\
| =========                 |                                                 |
| \\      /  F ield         | OpenFOAM: The Open Source CFD Toolbox           |
|  \\    /   O peration     | Version:  4.1                                   |
|   \\  /    A nd           | Web:      www.OpenFOAM.org                      |
|    \\/     M anipulation  |                                                 |
\*---------------------------------------------------------------------------*/
FoamFile
{
    version     2.0;
    format      ascii;
    class       volScalarField;
    location    "28";
    object      p;
}
// * * * * * * * * * * * * * * * * * * * * * * * * * * * * * * * * * * * * * //

dimensions      [0 2 -2 0 0 0 0];

internalField   nonuniform List<scalar> 
1280
(
-0.00496069
0.0613462
1.15319
0.881052
1.02862
1.57645
0.981403
0.815989
1.35072
1.12614
-0.43812
0.543973
-0.0432837
-2.70156
-1.51252
-2.59577
-6.6647
-5.55232
-7.23365
-18.2373
-10.3526
2.82237
19.5607
32.5302
40.4494
47.9002
23.3351
28.4258
29.6291
29.3627
28.5929
27.7052
26.3208
24.6282
23.1049
22.5397
23.9413
26.9751
32.3562
32.8617
18.4824
27.6628
30.4611
34.2305
46.0079
44.8037
44.9169
45.2636
45.5547
45.6079
45.5975
45.6293
43.7478
42.3641
42.1175
44.5421
25.6868
20.5857
15.9428
-1.28082
26.0961
25.3864
18.5046
14.7894
13.0344
13.7174
15.2489
16.8386
18.1387
19.0247
19.8146
20.2224
19.3848
8.0442
45.1441
37.3466
29.0488
16.3107
1.12727
-10.6717
-16.8266
-3.55147
5.31315
10.4139
13.7108
19.8815
20.2422
20.0576
19.5265
20.0964
17.6673
16.3539
15.0924
10.9271
9.54934
9.32614
6.2367
-0.516991
-3.1085
3.14184
-0.168821
-0.58322
-0.622939
-3.31241
-2.49811
-2.21947
-1.81483
-1.27056
-0.798104
-0.538974
-0.397705
-0.111341
1.07804
2.37447
3.9312
4.19762
2.89637
1.54288
1.13156
-0.436574
-1.42689
-2.02528
-6.10031
-4.99514
-4.74788
-4.17765
-3.19633
-2.17586
-1.09254
0.408708
2.75421
6.17476
9.89398
13.2523
13.2037
8.90468
5.08352
4.08904
-0.676003
-2.60791
-4.59573
-8.26204
-6.42071
-5.94048
-5.19258
-3.96191
-2.65349
-1.15069
0.958129
4.10212
8.49341
13.4068
18.1352
18.4931
13.756
8.39824
6.63256
-0.910283
-3.8686
-7.7102
-10.7089
-8.46803
-7.50058
-6.44654
-4.90131
-3.24097
-1.34142
1.2937
5.13893
10.5583
16.7877
23.3082
24.2136
18.9477
11.9973
8.70284
-1.12962
-5.26734
-11.1654
-12.9957
-10.937
-9.26797
-7.88247
-5.99332
-3.94512
-1.62074
1.61346
6.27758
12.8485
20.5444
29.1612
30.469
24.1769
15.4678
9.66823
-1.35938
-6.69807
-14.5215
-15.4642
-13.3477
-10.9636
-9.2481
-7.01514
-4.59495
-1.89514
1.85839
7.21409
14.8039
23.8831
34.8126
36.413
28.8686
17.197
3.61313
-1.59389
-8.04229
-17.3491
-17.5924
-15.4582
-12.5908
-10.5679
-8.01906
-5.23832
-2.20666
1.97576
7.87995
16.3366
26.622
40.4263
42.2426
33.975
18.9601
-3.35175
-1.84189
-9.16015
-19.3742
-19.0403
-17.1513
-14.0527
-11.8008
-9.00967
-5.89753
-2.56926
1.9629
8.28268
17.423
28.758
45.2933
48.0464
36.5245
24.7061
5.05385
-2.10024
-9.91752
-20.5061
-19.8918
-18.3202
-15.2146
-12.8525
-9.9277
-6.55031
-2.97335
1.81359
8.38169
17.9101
29.8323
49.3303
52.174
36.9716
27.3787
47.5885
-2.3731
-10.2324
-20.7682
-20.1681
-18.8972
-15.9952
-13.6498
-10.7184
-7.17689
-3.41919
1.51598
8.13862
17.6248
29.716
48.2279
46.482
35.5026
32.8214
50.8901
-2.66271
-10.075
-20.2896
-19.901
-18.9228
-16.3684
-14.1473
-11.3305
-7.74488
-3.8902
1.08669
7.5683
16.5724
27.7438
41.2755
38.8882
27.4493
31.367
49.3527
-2.96385
-9.45176
-19.2381
-19.1403
-18.4376
-16.3134
-14.3068
-11.7112
-8.21517
-4.36902
0.535033
6.70563
14.894
24.3667
34.4664
32.3632
24.0603
29.6393
51.0958
-3.25238
-8.38938
-17.8118
-18.0361
-17.5931
-15.8863
-14.1387
-11.8246
-8.52851
-4.78875
-0.0539611
5.69268
12.8666
20.3495
27.7405
20.3275
6.67667
9.73268
14.2532
-3.52401
-6.95953
-16.0864
-16.5308
-16.3604
-15.0656
-13.6175
-11.6389
-8.65569
-5.14496
-0.701851
4.50572
10.5447
16.0462
20.4485
5.75661
-6.96111
0.514932
14.778
-3.72138
-5.19707
-14.1982
-14.8528
-14.9927
-13.9924
-12.804
-11.1364
-8.49855
-5.27155
-1.17065
3.47297
8.43162
12.2781
14.4565
-2.01573
-1.40481
1.59268
13.3525
-3.61755
-2.99596
-11.909
-12.7078
-13.1683
-12.4786
-11.5832
-10.268
-8.06923
-5.27986
-1.72234
2.17014
6.04601
8.61485
9.64319
-8.54913
-4.53009
-1.31207
9.13769
-3.5067
-1.45878
-9.83843
-10.6726
-11.3651
-10.8419
-10.0919
-8.99785
-7.14417
-4.74385
-1.68215
1.62255
4.75125
6.55055
6.97827
-7.14488
-7.61356
-0.00292255
7.28218
-2.54982
1.28831
-6.28463
-7.80862
-8.58441
-8.40994
-8.01754
-7.31839
-6.02407
-4.34122
-2.2363
-0.0503456
1.86958
2.95729
3.03108
-0.284862
-7.64162
-0.156169
4.86503
-2.05258
-0.685341
-5.29156
-5.43808
-5.95786
-5.96114
-5.59995
-5.05243
-4.10755
-2.86519
-1.17183
0.833934
2.99126
4.57287
2.27569
0.990505
-7.28881
-0.656242
2.9887
-0.395905
1.21747
0.666668
-0.728716
-1.5701
-1.97637
-2.31454
-2.49473
-2.38998
-2.08403
-1.76587
-1.93877
-2.89965
-4.43019
-5.52717
-0.996533
-5.2127
-1.37433
0.916272
124.404
121.915
120.383
118.353
115.749
113.104
109.825
106.097
102.082
98.2411
94.5241
90.9618
87.6095
84.5759
82.0243
80.0181
78.3185
76.7737
75.3038
73.2424
112.08
110.964
108.894
107.558
105.888
104.328
103.059
102.029
101.073
100.071
98.9324
97.4634
95.5279
93.0773
90.3101
87.6854
85.7136
84.7705
84.8469
82.949
131.827
131.674
130.158
129.832
129.281
128.76
127.989
127.059
126.01
124.801
123.501
122.133
120.743
119.359
118.111
117.134
116.502
115.869
115.862
114.49
111.553
113.329
113.818
114.978
115.796
116.659
117.578
118.351
119.073
119.587
119.873
119.844
119.497
118.914
118.368
118.128
118.528
119.233
119.948
120.182
95.1731
97.3661
98.6078
99.9705
101.236
102.249
103.417
104.421
105.477
106.496
107.517
108.535
109.547
110.554
111.565
112.617
113.67
114.848
115.667
116.757
72.5337
75.1146
77.5167
79.4561
81.4556
82.949
84.6228
86.0409
87.4576
88.7825
90.0521
91.2832
92.4786
93.6684
94.8382
96.057
97.2224
98.544
99.5091
100.898
53.6687
55.9507
58.5598
60.2497
62.4925
64.0655
66.0361
67.7176
69.4784
71.1532
72.7903
74.3936
75.9602
77.5315
79.0835
80.6998
82.2388
83.9368
85.2072
87.0693
28.3492
28.6623
30.0234
30.0563
31.4698
31.8904
33.1808
34.0117
35.2024
36.3137
37.5575
38.8528
40.2152
41.6726
43.2102
44.9872
46.8757
49.4975
51.9018
55.3669
20.3501
16.0309
15.3388
12.4075
11.3429
8.76927
7.43723
5.34782
4.04948
2.79168
2.23347
2.1252
2.545
3.35638
4.48267
5.85912
7.25237
8.96482
10.4697
13.9037
60.1301
54.0869
52.27
47.5838
45.0631
40.6026
37.2813
32.8201
28.9295
24.6776
20.9919
17.5957
14.8699
12.7822
11.544
11.0361
11.1782
11.6237
11.1905
11.2991
110.342
107.323
107.22
104.619
104.379
102.208
101.556
99.8192
98.7872
97.2809
95.9487
94.2912
92.4238
90.1554
87.6403
85.0405
82.9191
82.2844
81.6591
77.4791
116.097
116.762
117.917
117.268
118.838
118.205
119.122
118.631
118.584
117.785
116.877
115.612
114.225
112.754
111.36
110.177
109.315
108.666
108.628
107.222
97.4662
99.2087
101.733
101.693
104.724
105.144
107.486
108.622
110.328
111.614
112.765
113.515
113.816
113.635
113.165
112.768
113.048
113.997
115.029
115.685
74.1547
75.3446
78.6639
78.0361
81.5985
81.7277
84.2195
85.3919
87.192
88.7915
90.4473
92.124
93.7959
95.4699
97.1154
98.7751
100.396
102.219
103.726
105.57
41.5941
41.1568
44.931
43.4359
47.2928
46.8607
49.4925
50.4377
52.3209
53.9119
55.6784
57.4791
59.329
61.2626
63.2524
65.3964
67.532
70.0402
72.258
75.6536
27.0994
23.1493
25.3108
21.04
22.8452
19.941
20.2691
18.8329
18.4655
17.7645
17.3947
17.1329
17.1407
17.5766
18.6181
20.4168
22.322
24.3549
25.8289
29.2175
65.0848
58.9266
60.2777
52.4611
51.5064
45.6662
42.4777
37.8586
33.9808
29.8293
25.9184
22.0763
18.5379
15.5412
13.4311
12.1242
11.2354
10.6679
9.68481
10.8101
85.6096
77.9538
85.7648
78.3172
79.9924
76.2131
74.5971
71.6693
69.04
66.1192
63.2099
60.2974
57.5503
55.1971
53.526
52.4337
51.5239
50.5603
48.8746
47.2153
100.578
78.329
86.5758
75.7077
73.1874
66.7315
61.9995
56.9159
52.5451
48.6501
45.4938
43.1409
41.7488
41.5247
42.706
45.0532
48.1545
52.2415
56.0115
57.1647
780.24
698.105
649.237
593.372
544.669
497.676
453.961
412.643
373.715
336.881
301.969
268.791
237.166
207.051
178.534
150.852
124.004
101.858
77.0399
40.8613
786.939
704.804
655.936
600.071
551.368
504.375
460.66
419.344
380.416
343.582
308.67
275.492
243.867
213.752
185.234
157.55
130.701
108.554
83.7334
47.5564
107.267
85.0191
93.266
82.3984
79.8781
73.4222
68.6901
63.6062
59.235
55.3394
52.1825
49.8289
48.4361
48.2116
49.3919
51.7378
54.8382
58.9259
62.6983
63.8526
92.335
84.6802
92.4926
85.0463
86.7233
82.9457
81.3317
78.4058
75.7785
72.8597
69.9522
67.0417
64.2965
61.9451
60.2754
59.183
58.2736
57.3113
55.626
53.9621
71.804
65.6434
66.9932
59.1748
58.2184
52.3764
49.1859
44.5647
40.6848
36.5312
32.6182
28.7743
25.2347
22.2373
20.1273
18.82
17.93
17.36
16.3727
17.496
33.7738
29.8203
31.9794
27.7068
29.509
26.6028
26.9284
25.4898
25.1202
24.417
24.0451
23.7814
23.788
24.223
25.264
27.0609
28.9615
30.9906
32.4627
35.8509
48.2406
47.7998
51.5726
50.0757
53.9308
53.4968
56.1268
57.0698
58.9512
60.5401
62.3046
64.103
65.9508
67.8822
69.8699
72.0123
74.1468
76.6554
78.8745
82.2708
80.7941
81.9836
85.304
84.6765
88.2397
88.3694
90.862
92.0352
93.8363
95.4368
97.0937
98.7715
100.444
102.119
103.765
105.426
107.049
108.874
110.384
112.23
104.167
105.908
108.432
108.39
111.421
111.838
114.178
115.312
117.014
118.296
119.444
120.191
120.49
120.311
119.85
119.465
119.759
120.716
121.749
122.408
122.743
123.412
124.566
123.919
125.489
124.858
125.777
125.291
125.25
124.46
123.562
122.311
120.94
119.489
118.115
116.95
116.1
115.453
115.416
114.018
117.197
114.193
114.094
111.504
111.273
109.112
108.471
106.743
105.72
104.221
102.892
101.233
99.36
97.0804
94.5496
91.9325
89.7953
89.1536
88.5324
84.353
67.0167
60.9733
59.1554
54.4681
51.9463
47.4847
44.1621
39.7003
35.8097
31.5591
27.8757
24.4827
21.761
19.678
18.4435
17.9371
18.0784
18.5249
18.09
18.1804
27.1861
22.8562
22.1612
19.2258
18.1568
15.5798
14.2434
12.1504
10.848
9.58633
9.0232
8.90822
9.31908
10.1192
11.2322
12.5936
13.9737
15.6731
17.1692
20.5982
35.0831
35.389
36.7409
36.7646
38.1689
38.5794
39.8591
40.6782
41.8565
42.9547
44.1855
45.468
46.8187
48.2659
49.796
51.5687
53.4568
56.0868
58.4976
61.9653
60.499
62.7742
65.3726
67.0542
69.2896
70.8558
72.8202
74.496
76.252
77.9226
79.5565
81.1577
82.7233
84.2944
85.8469
87.4637
89.0028
90.6991
91.9687
93.8247
79.2453
81.815
84.1982
86.1219
88.108
89.5902
91.2535
92.6625
94.0714
95.3896
96.6539
97.8804
99.0707
100.254
101.415
102.622
103.773
105.078
106.029
107.399
102.028
104.185
105.397
106.722
107.959
108.943
110.082
111.059
112.085
113.072
114.058
115.038
116.011
116.983
117.963
118.997
120.042
121.218
122.042
123.13
118.053
119.785
120.152
121.253
121.988
122.752
123.576
124.254
124.886
125.332
125.585
125.585
125.354
124.958
124.638
124.603
125.119
125.875
126.599
126.902
138.941
138.735
136.994
136.467
135.819
135.328
134.603
133.737
132.804
131.771
130.705
129.635
128.594
127.574
126.609
125.749
125.118
124.391
124.316
123.003
118.33
117.666
115.654
114.486
113.007
111.528
110.286
109.365
108.584
107.762
106.821
105.552
103.795
101.488
98.8102
96.2617
94.3823
93.4289
93.5914
92.0082
142.431
140.101
138.319
136.055
133.169
130.278
127.023
123.368
119.265
115.416
111.73
108.233
104.98
102.038
99.5026
97.4023
95.5358
93.7056
92.1561
89.8526
)
;

boundaryField
{
    outletWall
    {
        type            fixedValue;
        value           uniform 0;
    }
    fineWalls
    {
        type            zeroGradient;
    }
    fineFrontAndBack
    {
        type            zeroGradient;
    }
    fineplugLeft
    {
        type            cyclicAMI;
        value           nonuniform List<scalar> 
20
(
65.1662
66.7143
66.814
67.443
68.5224
70.2404
72.5864
75.3517
78.3105
81.3379
84.4654
87.591
90.5626
99.9908
100.064
100.689
101.189
100.219
98.0968
97.4528
)
;
    }
    fineplugRight
    {
        type            cyclicAMI;
        value           nonuniform List<scalar> 
20
(
77.1013
78.8022
78.6654
79.3866
80.5288
82.3456
84.6805
87.3516
90.2138
93.1892
96.2955
99.4568
102.571
113.494
113.251
114.005
114.654
113.918
112.306
111.81
)
;
    }
    inletOutletLeft
    {
        type            cyclicAMI;
        value           nonuniform List<scalar> 
20
(
65.1662
66.7143
66.814
67.443
68.5224
70.2404
72.5864
75.3517
78.3105
81.3379
84.4654
87.591
90.5626
99.9908
100.064
100.689
101.189
100.219
98.0968
97.4528
)
;
    }
    inletLeft
    {
        type            zeroGradient;
    }
    inletWallsLeft
    {
        type            zeroGradient;
    }
    inletFacesLeft
    {
        type            zeroGradient;
    }
    inletOutletRight
    {
        type            cyclicAMI;
        value           nonuniform List<scalar> 
20
(
77.1013
78.8022
78.6654
79.3866
80.5288
82.3456
84.6805
87.3516
90.2138
93.1892
96.2955
99.4568
102.571
113.494
113.251
114.005
114.654
113.918
112.306
111.81
)
;
    }
    inletRight
    {
        type            zeroGradient;
    }
    inletWallsRight
    {
        type            zeroGradient;
    }
    inletFacesRight
    {
        type            zeroGradient;
    }
}


// ************************************************************************* //
