/*--------------------------------*- C++ -*----------------------------------*\
| =========                 |                                                 |
| \\      /  F ield         | OpenFOAM: The Open Source CFD Toolbox           |
|  \\    /   O peration     | Version:  4.1                                   |
|   \\  /    A nd           | Web:      www.OpenFOAM.org                      |
|    \\/     M anipulation  |                                                 |
\*---------------------------------------------------------------------------*/
FoamFile
{
    version     2.0;
    format      ascii;
    class       surfaceScalarField;
    location    "28";
    object      phi;
}
// * * * * * * * * * * * * * * * * * * * * * * * * * * * * * * * * * * * * * //

dimensions      [0 3 -1 0 0 0 0];

internalField   nonuniform List<scalar> 
2360
(
-29.0763
2005.97
-2035.04
2005.96
2005.97
4070.36
-2064.4
4070.36
4070.36
4070.36
5931.85
-1861.49
5931.86
5931.85
7918.36
-1986.5
7918.35
7918.36
10067
-2148.68
10067
10067
13809.3
-3742.25
13809.3
13809.3
14469.2
15801.5
17414.1
19101.8
20740.9
22282.9
16636.3
7103.65
17979.7
19213.6
20333.3
21333.8
22207.4
22943.3
23533.5
23995.8
24381.8
24766.9
25226.5
25765.7
26205.5
13971.2
12234.3
13971.2
13971.2
13971.2
2905.72
11065.5
2905.72
2905.73
2905.73
85.3589
2820.37
85.3763
85.3845
-5825.69
5911.07
-5825.69
-5825.69
-5825.69
-17900.2
12074.5
-17900.2
-17900.2
-17900.2
-28593.3
10693.1
-28083.1
-27457.2
-26923.9
-26489
-26071.1
-25584.3
-24974.1
-24228.9
-23356.4
-22363.9
-21256.6
-20037.6
-18709.2
-22268.8
5009.57
-20729.5
-19099
-17448.4
-15914.4
-14683.5
-14102.9
-14102.9
-14102.9
-6713.31
-7389.59
-6713.31
-6713.31
469.606
-7182.92
469.613
469.615
5860.53
-5390.91
5860.53
5860.53
10105.6
-4245.02
10105.6
10105.6
10105.6
13766.1
-3660.59
13766.1
13766.1
17442
-3675.87
-1763.41
-6584.73
-1226.8
-5710.69
-368.145
-1273.91
-387.745
6707.14
-508.079
9497.58
-643.506
12184.4
-810.418
14776.5
-969.786
17346.6
-1096.06
19662.3
-1136.22
22132.2
-1023.23
25161.2
-705.595
28017
-259.437
28723.1
350.014
27637.9
1097.77
23128.6
1946.16
16164.6
2665.67
9053.45
3279.94
94.9081
-4993.95
-1664.58
-6777.18
-966.549
-6408.72
75.8356
-2316.3
-187.653
6970.63
-491.955
9801.88
-684.628
12377.1
-859.952
14951.9
-1023.1
17509.8
-1152.8
19792
-1204.54
22183.9
-1110.29
25066.9
-811.086
27717.8
-376.928
28288.9
245.619
27015.3
1091.14
22283.1
2109.27
15146.5
3277.33
7885.4
3689.44
-317.206
-4965.09
-1647.17
-7036.5
-925.025
-7130.87
94.7237
-3336.05
0.564404
7064.79
-389.022
10191.5
-712.888
12701
-928.057
15167
-1106.41
17688.1
-1248.01
19933.6
-1319.59
22255.5
-1250.42
24997.8
-977.917
27445.3
-566.368
27877.4
66.9853
26382
1033.23
21316.9
2253.61
13926.1
3744.9
6394.11
4515
-1087.31
-4695.11
-1759.87
-7372.41
-995.592
-7895.15
-68.1214
-4263.52
49.4318
6947.24
-272.884
10513.8
-702.064
13130.2
-1007.08
15472
-1220.39
17901.5
-1377.65
20090.8
-1472.42
22350.3
-1433.57
24958.9
-1199.12
27210.8
-826.461
27504.7
-200.758
25756.3
889.501
20226.6
2357.46
12458.2
4152.07
4599.5
5492.97
-2428.2
-4593.05
-1977.63
-7781.09
-1215.53
-8657.25
-461.36
-5017.69
-126.232
6612.11
-293.038
10680.6
-702.191
13539.3
-1091.71
15861.6
-1365.83
18175.6
-1549.12
20274.1
-1669.03
22470.2
-1666.65
24956.5
-1481.7
27025.9
-1167.01
27190
-569.502
25158.8
651.652
19005.4
2408.45
10701.4
4781.74
2226.2
6817.07
-4463.53
-4958.9
-2298.56
-8227.34
-1606.53
-9349.28
-1078.46
-5545.76
-611.695
6145.34
-561.197
10630.1
-815.619
13793.7
-1202.72
16248.7
-1537.29
18510.1
-1765.26
20502.1
-1912.09
22617
-1949.13
24993.6
-1825.64
26902.4
-1591.51
26955.9
-1048.02
24615.3
345.779
17611.6
2438.85
8608.3
5535.95
-870.892
7473.85
-6401.43
-4874.64
-2710.86
-8646.84
-2187.6
-9872.55
-1913.18
-5820.18
-1370.35
5602.51
-1098.97
10358.7
-1120.4
13815.2
-1391.21
16519.5
-1738.31
18857.2
-2022.13
20785.9
-2203.13
22798
-2279.41
25069.8
-2228.07
26851
-2098.5
26826.3
-1641.06
24157.8
-183.85
16154.4
3402.98
5021.47
5896.27
-3364.19
3838.26
-4343.42
3973.2
-3216.92
-8960.91
-2954.2
-10135.3
-2931.27
-5843.11
-2340.85
5012.09
-1876.3
9894.16
-1644.1
13583
-1714.02
16589.4
-1992.67
19135.9
-2314.43
21107.7
-2540.8
23024.4
-2657.37
25186.4
-2686.3
26880
-2698.91
26838.9
-2389.59
23848.5
-663.552
14428.4
2485.97
1871.95
-258.064
-620.15
-6623.77
2022.28
8042.49
-3838.25
-9107.78
-3877.76
-10095.8
-4064.1
-5656.77
-3461.62
4409.6
-2841.55
9274.1
-2374.18
13115.6
-2207.72
16422.9
-2338.38
19266.6
-2645.79
21415.1
-2918.74
23297.3
-3081.2
25348.9
-3196.06
26994.8
-3362.28
27005.1
-3192.57
23678.8
-2894.45
14130.3
-6570.34
5547.84
-12482.2
5291.75
-14567
4107
5550.07
-4599.67
-9060.89
-4916.38
-9779.04
-5236.2
-5336.96
-4648.02
3821.43
-3922.68
8548.75
-3268.08
12461
-2875.24
16030.1
-2808.95
19200.3
-3033.38
21639.5
-3330.84
23594.8
-3545.58
25563.6
-3739.15
27188.4
-4014
27280
-4243.8
23908.6
-6177.58
16064
-11103.6
10473.9
-13382.5
7570.59
-11066.1
1790.63
395.022
-5497.24
-8825.29
-6014.8
-9261.49
-6375.83
-4975.93
-5812.14
3257.74
-5040.5
7777.11
-4265.37
11685.9
-3688.74
15453.5
-3418.12
18929.6
-3502.25
21723.7
-3780.47
23873
-4041.8
25824.9
-4286.65
27433.3
-4625.73
27619.1
-5356.52
24639.4
-7935.67
18643.2
-10952.7
13490.9
-10646.2
7264.1
-8309.64
-545.94
-5094.25
-6485.56
-8415.92
-7118.42
-8628.64
-7437.91
-4656.43
-6895.05
2714.88
-6127.15
7009.22
-5300.65
10859.4
-4600.66
14753.5
-4154.43
18483.4
-4071.97
21641.2
-4281.16
24082.2
-4562.71
26106.5
-4825.13
27695.7
-5189.38
27983.3
-6215.78
25665.8
-8869.66
21297.1
-12254.3
16875.5
-14756.6
9766.49
-14798.4
-504.235
-8827.13
-7498.37
-7837.42
-8189.52
-7937.49
-8409.13
-4436.82
-7874.56
2180.31
-7146.81
6281.46
-6327.44
10040
-5566.09
13992.1
-4992.95
17910.3
-4751.03
21399.3
-4853.18
24184.4
-5114.49
26367.8
-5361.69
27942.9
-5681.73
28303.4
-6698.01
26682.1
-9235.56
23834.6
-12576.7
20216.7
-13679.5
10869.3
-12367.2
-1816.62
-8960.03
-8475.65
-7070.08
-9226.45
-7186.69
-9326.84
-4336.43
-8768.44
1621.92
-8087.96
5600.98
-7318.56
9270.6
-6551.88
13225.4
-5906.44
17264.8
-5537.4
21030.2
-5519.15
24166.1
-5718.88
26567.5
-5902.23
28126.2
-6073.26
28474.4
-6854.95
27463.7
-8952.56
25932.2
-10441.5
21705.6
-6017.44
6445.28
-1665.53
-6168.53
-3521.92
-9369.89
-6068.93
-10242.9
-6313.67
-10255.5
-4323.86
-9646.73
1013.16
-8994.93
4949.18
-8292.07
8567.74
-7564.41
12497.8
-6901.63
16602
-6452.15
20580.8
-6316.93
24030.9
-6397.64
26648.2
-6428.9
28157.5
-6401.28
28446.8
-7023.15
28085.6
-8623.91
27533
-8301.5
21383.2
-2856.16
999.934
1676.44
-10701.1
-5587.73
-10152
-4765.1
-11281.6
-5184.1
-11290.3
-4315.22
-10593.1
315.977
-9899.84
4255.95
-9245.65
7913.55
-8585.43
11837.5
-7955.34
15972
-7468.67
20094.1
-7209.22
23771.4
-7097.74
26536.7
-6943.97
28003.7
-6911.3
28414.1
-7633.86
28808.2
-8361.24
28260.4
-5484.52
18506.5
-624.486
-3860.11
828.031
-12153.7
-6908.38
-10812.6
-3079
-12374.1
-3622.66
-12519.6
-4169.64
-11796.8
-406.813
-10994.1
3453.17
-10281.7
7201.18
-9640.41
11196.3
-9038.17
15369.7
-8518.22
19574.1
-8120.5
23373.7
-7823.51
26239.8
-7662.59
27842.8
-7969.33
28720.9
-8737.04
29575.9
-7997.8
27521.1
-2736.07
13244.8
1164.06
-7760.24
1212.03
-12201.6
-7682.85
-11383.4
-1005.24
-13436.7
-1569.36
-13754.7
-3851.68
-13080
-1081.49
-12237.6
2610.72
-11423.2
6386.85
-10704.8
10477.8
-10061.5
14726.5
-9479.76
18992.4
-8984.95
22878.9
-8684.13
25938.9
-8826.69
27985.4
-9520.84
29415
-9756.53
29811.6
-7242.37
25007
-1513.64
7516.03
1323.86
-10597.7
1402.41
-12280.2
-8141.93
-11024.8
1426.86
-14049.5
1455.29
-15055.5
-2845.69
-14765.1
-1371.87
-13993.2
1838.85
-13026.3
5419.89
-12101.8
9553.34
-11289.4
13914.1
-10636.7
18339.6
-10222.2
22464.4
-10218.3
25935
-10718.2
28485.3
-11166.9
29863.7
-9947.55
28592.3
-5519.58
20579
-303.234
2299.68
1223.45
-12124.4
1558.61
-12615.3
-8647.73
-7971.91
-11884.5
-14570.5
-15449.6
-15592.1
-15260.2
-14683
-14026.9
-13424.2
-12959.6
-12651
-12277.7
-11151.2
-8268.98
-3369.9
686.77
1436.14
1797.15
229.46
-889.375
643.244
-1746.07
920.892
-1890.26
1014.72
-1781.58
994.543
-1618.86
934.989
-1482.44
835.657
-1357.78
727.11
-1234.83
600.767
-1107.57
456.471
-975.441
294.711
-838.746
117.154
-696.085
-71.6914
-547.082
-256.136
-405.721
-403.636
-314.888
-472.356
-317.323
-429.07
-428.35
-282.11
-606.577
-98.4313
-722.839
-538.233
197.174
-1086.56
377.795
-1926.69
303.53
-1816
86.5408
-1564.6
-151.198
-1381.12
-368.076
-1265.57
-557.997
-1167.87
-733.959
-1058.88
-901.072
-940.465
-1062.3
-814.221
-1216.55
-684.499
-1354.46
-558.181
-1451.5
-450.046
-1470.01
-387.215
-1380.11
-404.796
-1176.56
-520.875
-883.503
-721.406
-553.114
-936.968
-248.225
-1027.73
-786.458
-61.6938
-1024.87
-73.8163
-1914.58
-108.697
-1781.13
-120.6
-1552.7
-113.879
-1387.85
-117.631
-1261.83
-129.848
-1155.66
-135.779
-1052.96
-126.992
-949.262
-100.025
-841.199
-54.6302
-729.905
7.66902
-620.494
84.4643
-526.856
169.24
-472.008
246.833
-482.405
296.545
-570.598
289.535
-714.401
212.555
-859.992
93.2714
-908.451
-693.187
-142.091
-882.782
-141.715
-1914.95
-33.52
-1889.32
70.6558
-1656.88
147.329
-1464.53
207.095
-1321.6
267.445
-1216.02
336.178
-1121.69
419.034
-1032.12
521.127
-943.296
645.111
-853.893
787.57
-762.957
932.823
-672.112
1049.08
-588.267
1094.35
-527.677
1034.13
-510.384
859.512
-539.786
590.676
-591.157
288.228
-606.005
-404.959
-117.544
-765.247
-104.932
-1927.57
-6.57024
-1987.69
75.7117
-1739.17
148.404
-1537.23
220.443
-1393.65
292.294
-1287.87
361.993
-1191.4
429.198
-1099.33
495.064
-1009.17
562.275
-921.109
634.159
-834.85
711.439
-749.394
787.195
-664.03
840.617
-581.1
837.107
-506.877
747.921
-450.599
561.731
-404.967
302.521
-346.795
-102.437
22.7701
-788.019
39.8941
-1944.7
96.5332
-2044.33
154.272
-1796.91
215.714
-1598.67
280.01
-1457.94
344.834
-1352.7
406.178
-1252.75
461.596
-1154.75
508.439
-1056.02
544.656
-957.326
569.289
-859.486
583.25
-763.354
588.123
-668.905
582.95
-575.926
558.098
-482.025
495.833
-388.334
376.184
-285.317
189.973
-160.582
87.5355
243.453
-1031.48
328.342
-2029.59
350.913
-2066.9
379.198
-1825.2
432.719
-1652.2
497.261
-1522.49
567.626
-1423.07
637.095
-1322.22
702.352
-1220.01
757.406
-1111.07
797.356
-997.277
817.684
-879.818
815.256
-760.927
787.923
-641.573
734.711
-522.715
654.068
-401.384
542.328
-276.594
392.342
-135.331
195.897
35.8615
283.433
416.322
-1447.8
533.737
-2147
506.44
-2039.61
506.713
-1825.47
559.457
-1704.94
631.518
-1594.55
717.584
-1509.13
804.963
-1409.6
888.074
-1303.12
955.407
-1178.4
1001.7
-1043.57
1022.97
-901.085
1017.34
-755.301
981.057
-605.29
908.732
-450.392
793.335
-285.986
612.615
-95.8784
373.294
103.986
177.543
231.608
460.975
360.912
-1808.71
348.798
-2134.89
261.524
-1952.33
233.207
-1797.16
250.615
-1722.35
282.84
-1626.78
329.326
-1555.62
374.998
-1455.27
410.619
-1338.75
421.856
-1189.64
406.432
-1028.15
364.976
-859.632
300.481
-690.809
212.31
-517.125
102.688
-340.778
-8.29098
-175.023
-67.2925
-36.8994
-84.3098
120.984
-126.041
273.329
334.934
73.1812
-1881.89
-76.5401
-1985.16
-196.68
-1832.19
-288.677
-1705.15
-371.517
-1639.51
-452.833
-1545.45
-531.635
-1476.82
-612.112
-1374.79
-699.224
-1251.63
-797.219
-1091.64
-906.161
-919.205
-1022.49
-743.298
-1140.64
-572.663
-1250.99
-406.771
-1337.35
-254.423
-1373.49
-138.883
-1321.32
-89.0785
-1093.11
-107.224
-622.012
-197.776
-287.078
-135.549
-1746.34
-244.277
-1876.44
-346.211
-1730.26
-478.061
-1573.3
-619.005
-1498.57
-778.455
-1386
-950.181
-1305.09
-1127.94
-1197.03
-1300.08
-1079.5
-1458.07
-933.652
-1600.89
-776.387
-1727.25
-616.937
-1828.88
-471.034
-1880.31
-355.337
-1839.7
-295.038
-1668.57
-310.006
-1351.08
-406.567
-888.155
-570.151
-362.675
-723.256
-649.752
-73.0547
-1673.28
-62.7984
-1886.69
-73.6267
-1719.42
-117.306
-1529.62
-164.99
-1450.88
-230.491
-1320.5
-307.094
-1228.48
-387.255
-1116.86
-452.846
-1013.9
-485.154
-901.336
-475.098
-786.434
-421.326
-670.699
-328.795
-563.555
-205.344
-478.775
-62.6556
-437.713
84.5596
-457.206
203.444
-525.442
243.216
-609.916
159.743
-639.776
-490.01
46.5123
-1719.79
94.1237
-1934.3
142.949
-1768.25
184.302
-1570.97
226.197
-1492.77
266.703
-1361
304.441
-1266.22
343.78
-1156.2
388.091
-1058.21
448.695
-961.939
532.839
-870.576
644.507
-782.365
777.411
-696.455
911.587
-612.95
1008.03
-534.149
1017.47
-466.649
907.388
-415.354
672.043
-374.567
348.921
-316.649
-141.088
113.438
-1833.22
140.261
-1961.12
188.838
-1816.82
244.601
-1626.73
306.096
-1554.26
367.992
-1422.89
433.598
-1331.82
501.831
-1224.42
571.593
-1127.97
640.334
-1030.67
705.564
-935.799
764.558
-841.353
814.186
-746.078
849.325
-648.084
861.588
-546.407
833.598
-438.654
743.361
-325.113
566.084
-197.286
307.345
-57.9015
166.257
137.097
-1970.32
129.987
-1954
172.735
-1859.56
224.072
-1678.06
284.652
-1614.83
344.882
-1483.11
411.77
-1398.7
482.136
-1294.78
559.423
-1205.25
641.422
-1112.67
726.269
-1020.64
806.539
-921.62
870.218
-809.753
899.675
-677.537
878.365
-525.093
801.958
-362.243
677.464
-200.615
481.418
-1.23518
247.738
175.786
413.995
85.9018
-2056.21
52.3481
-1920.44
72.6169
-1879.83
102.851
-1708.29
138.843
-1650.82
183.189
-1527.45
234.225
-1449.73
294.039
-1354.59
363.252
-1274.46
441.355
-1190.76
525.634
-1104.92
605.324
-1001.31
658.027
-862.453
649.135
-668.642
551.511
-427.466
397.529
-208.255
277.881
-80.9646
192.452
84.1989
67.8182
300.424
481.813
-33.6398
-2022.57
-110.046
-1844.03
-158.241
-1831.63
-191.637
-1674.89
-223.789
-1618.67
-239.403
-1511.83
-250.815
-1438.32
-250.283
-1355.12
-241.994
-1282.75
-224.396
-1208.36
-200.744
-1128.57
-177.192
-1024.85
-166.856
-872.783
-182.939
-652.555
-222.133
-388.262
-258.338
-172.041
-276.854
-62.4341
-266.293
73.649
-221.92
256.058
259.893
-184.11
-1838.46
-390.083
-1638.06
-561.224
-1660.49
-697.671
-1538.44
-824.641
-1491.7
-924.344
-1412.13
-1013
-1349.66
-1085
-1283.12
-1146.35
-1221.39
-1195.58
-1159.13
-1231.34
-1092.8
-1244.11
-1012.08
-1213.97
-902.928
-1111.09
-755.432
-917.93
-581.422
-679.046
-410.924
-490.854
-250.624
-336.533
-80.6694
-153.46
72.9886
106.433
-201.362
-1637.1
-458.148
-1381.27
-728.2
-1390.43
-961.395
-1305.24
-1187.33
-1265.76
-1384.67
-1214.79
-1562.34
-1171.98
-1716.53
-1128.93
-1849.69
-1088.23
-1960.41
-1048.41
-2044.32
-1008.9
-2088.59
-967.812
-2068.67
-922.841
-1953.61
-870.497
-1728.24
-806.79
-1408.75
-730.412
-1020.88
-638.493
-590.603
-510.949
-192.987
-324.626
-86.5539
-662.095
-1068.36
-1483.8
-1814.04
-2104.8
-2344.59
-2541.57
-2695.5
-2808.73
-2882.13
-2916.03
-2908.84
-2856.68
-2752.18
-2583.97
-2339.38
-2002.87
-1538.82
-888.446
-662.099
1637.1
-1068.37
1381.27
-1483.79
1390.43
-1814.03
1305.24
-2104.78
1265.75
-2344.56
1214.78
-2541.52
1171.97
-2695.43
1128.91
-2808.64
1088.21
-2882.03
1048.39
-2915.9
1008.88
-2908.7
967.795
-2856.53
922.831
-2752.03
870.498
-2583.83
806.808
-2339.29
730.453
-2002.84
638.554
-1538.86
511.023
-888.538
324.677
86.4624
-201.314
1838.42
-458.053
1638.01
-728.06
1660.44
-961.21
1538.39
-1187.1
1491.64
-1384.4
1412.07
-1562.03
1349.6
-1716.18
1283.07
-1849.3
1221.33
-1959.98
1159.07
-2043.83
1092.73
-2088.02
1011.99
-2068.01
902.819
-1952.87
755.357
-1727.53
581.474
-1408.2
411.114
-1020.49
250.847
-590.315
80.8518
-192.782
-72.8534
-106.32
-184.12
2022.54
-390.123
1844.02
-561.288
1831.6
-697.771
1674.88
-824.778
1618.65
-924.529
1511.83
-1013.24
1438.31
-1085.3
1355.12
-1146.72
1282.76
-1196.02
1208.37
-1231.84
1128.55
-1244.63
1024.78
-1214.41
872.597
-1111.34
652.287
-917.93
388.068
-678.955
172.141
-490.703
62.597
-336.14
-73.7086
-152.975
-256.015
-259.295
-33.7274
2056.27
-110.186
1920.48
-158.449
1879.87
-191.922
1708.35
-224.155
1650.89
-239.856
1527.53
-251.36
1449.82
-250.929
1354.69
-242.749
1274.58
-225.273
1190.89
-201.758
1105.04
-178.359
1001.38
-168.172
862.412
-184.324
668.442
-223.433
427.181
-259.48
208.193
-277.95
81.0723
-267.22
-84.4349
-222.524
-300.708
-481.819
85.8207
1970.45
52.2196
1954.08
72.4295
1859.66
102.605
1678.18
138.534
1614.96
182.82
1483.25
233.797
1398.85
293.553
1294.94
362.711
1205.43
440.752
1112.85
524.959
1020.84
604.543
921.797
657.086
809.871
647.979
677.55
550.19
524.973
396.37
362.016
277.156
200.29
192.004
0.721436
67.4714
-176.172
-414.348
137.141
1833.31
129.974
1961.25
172.7
1816.93
224.027
1626.85
284.606
1554.38
344.837
1423.01
411.734
1331.95
482.116
1224.56
559.429
1128.11
641.467
1030.82
726.368
935.936
806.698
841.468
870.415
746.155
899.859
648.107
878.468
546.364
801.959
438.526
677.363
324.887
481.143
196.943
247.553
57.4196
-166.794
113.612
1719.7
140.38
1934.48
188.945
1768.37
244.715
1571.08
306.237
1492.86
368.135
1361.12
433.751
1266.33
501.977
1156.33
571.738
1058.35
640.465
962.091
705.666
870.736
764.602
782.532
814.127
696.631
849.1
613.134
861.213
534.253
833.106
466.633
742.814
415.18
565.603
374.155
307.037
315.987
140.243
46.6926
1673
94.2665
1886.91
143.114
1719.52
184.556
1529.64
226.557
1450.86
267.206
1320.47
305.128
1228.41
344.679
1116.78
389.208
1013.82
449.989
901.307
534.233
786.492
645.895
670.869
778.657
563.87
912.51
479.279
1008.48
438.283
1017.49
457.625
907.261
525.41
671.909
609.507
348.917
638.981
489.161
-72.6411
1745.65
-62.0471
1876.31
-72.4953
1729.97
-115.748
1572.89
-163.004
1498.12
-228.036
1385.5
-304.15
1304.53
-383.784
1196.42
-448.833
1078.88
-480.598
933.073
-470.008
775.904
-415.701
616.565
-322.638
470.81
-198.748
355.393
-55.9729
295.511
90.7335
310.923
208.512
407.634
246.544
571.476
161.103
724.423
650.263
-135.841
1881.49
-244.288
1984.76
-346.1
1831.78
-477.959
1704.75
-618.935
1639.09
-778.478
1545.04
-950.321
1476.37
-1128.2
1374.29
-1300.38
1251.06
-1458.34
1091.03
-1601.01
918.58
-1727.11
742.665
-1828.31
572.006
-1879.09
406.174
-1837.73
254.149
-1666.01
139.205
-1348.36
89.9779
-885.635
108.756
-361.288
200.075
288.976
72.4279
1809.06
-77.4015
2134.59
-197.643
1952.02
-289.873
1796.98
-373.014
1722.23
-454.686
1626.72
-533.892
1555.58
-614.805
1455.21
-702.351
1338.6
-800.745
1189.42
-910.036
1027.87
-1026.69
859.325
-1145.14
690.454
-1255.69
516.717
-1341.98
340.439
-1377.66
174.881
-1324.86
37.1828
-1095.22
-120.886
-622.414
-272.735
-333.438
360.68
1448.38
348.246
2147.02
260.742
2039.53
232.175
1825.55
249.302
1705.1
281.25
1594.77
327.44
1509.38
372.788
1409.86
408.041
1303.35
418.898
1178.56
403.111
1043.66
361.327
901.107
296.53
755.249
208.113
605.131
98.4549
450.092
-12.1327
285.461
-69.404
94.4413
-86.0582
-104.243
-127.069
-231.73
-460.507
417.099
1031.28
534.772
2029.35
507.396
2066.9
507.628
1825.31
560.365
1652.37
632.437
1522.69
718.536
1423.28
805.944
1322.45
889.059
1220.23
956.356
1111.27
1002.59
997.424
1023.79
879.9
1018.12
760.917
981.804
641.45
909.412
522.484
793.804
401.068
612.034
276.21
372.782
135.008
177.186
-36.1359
-283.321
244.853
786.422
330.162
1944.04
352.297
2044.77
380.309
1797.3
433.821
1598.85
498.387
1458.13
568.736
1352.93
638.165
1253.02
703.369
1155.03
758.362
1056.27
798.259
957.526
818.573
859.583
816.126
763.362
788.717
668.857
735.343
575.856
654.482
481.928
542.532
388.159
392.471
285.067
195.914
160.419
-87.407
25.0219
761.397
43.1545
1925.9
99.4429
1988.48
156.144
1740.6
216.907
1538.09
280.778
1394.25
345.232
1288.48
406.19
1192.06
461.187
1100.03
507.553
1009.9
543.187
921.889
566.994
835.775
579.714
750.641
583.021
665.548
576.376
582.5
550.815
507.487
489.152
449.821
371.359
402.859
187.522
344.254
100.115
-112.776
874.172
-99.9055
1913.03
-0.457113
1889.03
81.8549
1658.28
152.663
1467.28
222.352
1324.56
291.971
1218.86
359.332
1124.69
423.846
1035.51
486.694
947.053
550.371
858.211
617.885
768.258
691.248
677.277
764.746
592.048
817.734
529.511
816.471
508.75
732.025
534.267
551.808
583.075
297.711
598.351
397.826
-127.904
1002.07
-130.196
1915.32
-31.2141
1790.04
72.3067
1554.76
152.588
1386.99
214.338
1262.81
274.82
1158.37
342.358
1057.15
422.513
955.354
520.142
849.422
637.678
740.673
772.261
633.675
910.253
539.283
1022.4
479.901
1067.49
484.42
1010.28
565.954
843.267
701.281
583.026
843.315
287.313
894.062
685.139
-33.6471
1035.72
-23.1243
1904.8
-59.9694
1826.89
-83.4533
1578.24
-80.7439
1384.28
-75.8825
1257.95
-75.7638
1158.25
-69.8469
1051.24
-50.2107
935.716
-13.6452
812.856
39.8719
687.155
108.891
564.653
189.473
458.699
274.058
395.314
350.442
408.035
390.622
525.774
361.016
730.887
255.856
948.475
111.944
1037.97
797.083
229.729
805.991
461.357
1673.17
430.893
1857.35
226.717
1782.42
-15.8711
1626.87
-234.342
1476.42
-418.602
1342.51
-585.585
1218.22
-742.682
1092.81
-893.771
963.944
-1037.99
831.378
-1166.72
693.379
-1257.54
549.514
-1272.3
410.083
-1185.66
321.388
-998.98
339.096
-740.11
472.017
-460.794
669.158
-212.667
789.847
584.416
225.378
667.714
991.017
1122.81
1119.18
1056.37
948.858
838.688
712.509
569.16
408.021
228.871
33.2145
-166.935
-332.38
-411.165
-373.999
-238.157
-74.2337
)
;

boundaryField
{
    outletWall
    {
        type            calculated;
        value           nonuniform List<scalar> 
60
(
17442
4598.02
-709.184
-9772.96
-17013
-23876.4
-28247.3
-29169.2
-28334.6
-25274.2
-22092
-19536
-17187.3
-14609.6
-12049
-9377.24
-6687.54
415.257
5174.08
6491.27
5961.59
8592.73
9309.66
9126.52
8848.21
8368.74
7708.31
6919.87
6076.2
5261.64
4552.77
3985.13
3530.99
3130.37
2744.81
2386.32
2095.78
1906.49
1857.04
1856.86
29.072
-8885.62
-12976.3
-12873.8
-1756.99
15679.9
25710
28737.2
28111.9
25626.4
21999.8
17737
13257.9
8976.15
5088.02
1981.37
-492.741
-159.77
5367.91
3437.18
)
;
    }
    fineWalls
    {
        type            calculated;
        value           uniform 0;
    }
    fineFrontAndBack
    {
        type            calculated;
        value           nonuniform List<scalar> 
960
(
-4.39027e-13
-2.01056e-12
-3.96088e-13
-4.14116e-13
-2.0023e-12
-3.5374e-13
-3.52757e-13
-3.02534e-13
-2.08592e-12
-4.78651e-13
-4.26314e-13
-1.86735e-12
-4.7402e-13
-5.15944e-13
-4.50904e-12
-1.26343e-12
-1.42445e-12
-7.11644e-12
-1.32472e-12
-1.06479e-12
-2.33322e-13
-2.97867e-13
-1.44183e-13
4.09831e-14
1.21723e-13
1.5351e-13
4.28086e-12
1.48337e-13
1.95384e-13
2.36441e-13
2.72076e-13
2.89585e-13
2.67547e-13
1.96424e-13
9.10951e-14
-6.31951e-14
-3.02343e-13
-6.31276e-13
-8.98753e-13
-1.13234e-12
-3.48977e-11
-5.46511e-12
-5.0704e-12
-4.18886e-12
-3.20449e-12
2.38584e-12
4.56411e-12
3.8531e-12
1.14774e-10
3.50269e-11
5.22199e-11
4.61497e-11
-9.93236e-13
1.3554e-12
1.54092e-12
1.89638e-11
4.35138e-12
4.6903e-12
4.89844e-12
3.03223e-11
9.82713e-13
7.99071e-13
5.9554e-13
3.42243e-13
1.47224e-13
5.58228e-15
-9.26879e-14
-1.53758e-13
-1.68814e-13
-1.4399e-13
-9.88912e-14
-3.98538e-14
1.74439e-14
2.00125e-12
1.15807e-13
1.53266e-13
2.5465e-13
4.41094e-13
5.78421e-13
4.92269e-13
2.71972e-12
3.18938e-12
2.10626e-11
4.2871e-12
4.73458e-12
3.61937e-11
1.12944e-11
1.69875e-11
4.91406e-11
6.01937e-12
4.73157e-12
3.11444e-11
7.05403e-12
7.0869e-12
6.91423e-12
3.31021e-11
5.33109e-12
4.79349e-12
2.06073e-11
4.64296e-12
-6.79056e-12
-2.97867e-12
-1.81212e-12
-3.20726e-12
-2.94132e-12
-1.52265e-12
-2.21759e-12
-5.42594e-12
-8.02634e-12
-5.69209e-12
5.07818e-12
2.18611e-11
3.744e-11
4.61331e-11
4.56409e-11
3.7142e-11
2.2589e-11
1.83606e-11
3.718e-12
-2.8724e-12
1.86494e-12
2.22675e-12
-1.68974e-12
-2.94871e-12
-1.5224e-12
-2.29673e-12
-5.53346e-12
-8.05071e-12
-5.49861e-12
5.43396e-12
2.21585e-11
3.75693e-11
4.61382e-11
4.57033e-11
3.76764e-11
2.41634e-11
2.19279e-11
6.22574e-12
-1.05407e-12
2.91292e-12
2.64441e-12
1.04772e-12
-2.4805e-12
-1.55226e-12
-2.41193e-12
-5.68127e-12
-8.07436e-12
-5.224e-12
5.93771e-12
2.2596e-11
3.77821e-11
4.61638e-11
4.57604e-11
3.83114e-11
2.61923e-11
2.56298e-11
1.02414e-11
-2.75236e-13
2.32656e-12
1.85141e-12
2.89822e-12
-1.04165e-12
-1.5186e-12
-2.49658e-12
-5.86915e-12
-8.08911e-12
-4.87591e-12
6.5639e-12
2.31614e-11
3.80864e-11
4.62178e-11
4.57823e-11
3.88999e-11
2.83168e-11
2.86981e-11
1.36105e-11
-4.82482e-13
1.01299e-12
1.18463e-12
3.63796e-12
1.00564e-12
-1.2057e-12
-2.45064e-12
-6.08201e-12
-8.09905e-12
-4.42867e-12
7.33752e-12
2.38794e-11
3.85058e-11
4.6314e-11
4.57612e-11
3.93449e-11
3.07219e-11
3.08617e-11
1.99555e-11
-1.00181e-12
3.4238e-13
1.68075e-12
4.45492e-12
2.95771e-12
-3.89576e-13
-2.1786e-12
-6.24834e-12
-8.10644e-12
-3.85017e-12
8.31036e-12
2.47896e-11
3.90619e-11
4.64189e-11
4.56153e-11
3.96265e-11
3.34715e-11
3.57209e-11
2.29799e-11
-1.18037e-12
9.88484e-13
3.54547e-12
6.14458e-12
4.49486e-12
5.49373e-13
-2.04093e-12
-6.18832e-12
-8.07276e-12
-3.11011e-12
9.54241e-12
2.59297e-11
3.97771e-11
4.66907e-11
4.56273e-11
3.9322e-11
3.71297e-11
4.2674e-11
2.2334e-11
-8.50967e-13
2.63926e-12
6.33718e-12
8.93366e-12
6.92827e-12
3.09454e-12
-6.1296e-13
-6.09342e-12
-7.86664e-12
-2.17609e-12
1.10587e-11
2.72617e-11
4.06599e-11
4.63382e-11
4.38001e-11
4.05151e-11
3.36973e-11
4.81034e-11
5.54226e-11
-2.61343e-13
4.56793e-12
9.56157e-12
1.12597e-11
6.05498e-12
2.44702e-13
-4.56069e-12
-5.18195e-12
-7.4107e-12
-9.84051e-13
1.3062e-11
2.95624e-11
4.15535e-11
4.83691e-11
5.00459e-11
2.84619e-11
2.49468e-11
3.53809e-11
3.93282e-11
3.2774e-13
6.23739e-12
1.30718e-11
1.97063e-11
1.50661e-11
9.54979e-12
1.01531e-11
-5.03926e-12
-6.36617e-12
6.80798e-13
1.48978e-11
2.87697e-11
4.33855e-11
4.37826e-11
1.4435e-11
1.28971e-11
1.21061e-11
3.24888e-11
4.83377e-11
8.8308e-13
7.73298e-12
1.51862e-11
2.39111e-11
2.44069e-11
1.71992e-11
4.57774e-12
-4.72478e-12
-4.26268e-12
2.928e-12
1.71314e-11
3.07837e-11
4.4799e-11
3.67528e-11
-4.89352e-12
3.69383e-12
4.21783e-11
1.20228e-10
1.55517e-10
1.30884e-12
8.79415e-12
1.68163e-11
2.12286e-11
1.91833e-11
1.28734e-11
2.99754e-14
-2.36926e-12
-1.11854e-12
5.9761e-12
2.02265e-11
3.48289e-11
4.52792e-11
3.12419e-11
-5.50898e-12
7.79679e-13
1.53673e-11
-1.37406e-11
-2.55234e-11
1.52073e-12
9.00168e-12
1.91308e-11
2.49887e-11
1.7826e-11
1.02035e-11
3.79565e-12
2.7057e-12
2.97925e-12
1.02127e-11
2.44361e-11
3.89398e-11
4.49533e-11
2.77572e-11
-3.03974e-12
-4.83091e-12
-1.42885e-11
-4.49562e-11
-4.36353e-11
1.50533e-12
8.07368e-12
1.96155e-11
3.36064e-11
2.9237e-11
1.99971e-11
1.36594e-11
1.02724e-11
9.16392e-12
1.63832e-11
2.98797e-11
4.24729e-11
4.36591e-11
2.48609e-11
-1.30847e-12
-7.85313e-12
-1.28852e-11
1.14659e-12
1.44837e-11
1.43326e-12
6.32002e-12
1.56046e-11
3.5022e-11
3.98418e-11
3.42245e-11
2.69805e-11
2.11234e-11
1.91087e-11
2.511e-11
3.61711e-11
4.4629e-11
4.07982e-11
2.18339e-11
1.16112e-12
-5.82764e-12
-7.81093e-12
2.03006e-12
3.00107e-12
1.43329e-12
4.85134e-12
9.13286e-12
2.63169e-11
3.90157e-11
4.16537e-11
3.86887e-11
3.40271e-11
3.18799e-11
3.52305e-11
4.17016e-11
4.43012e-11
3.62935e-11
1.97142e-11
5.51149e-12
-1.95575e-12
-4.48651e-12
2.05154e-12
1.68322e-12
1.58463e-12
4.5522e-12
3.93428e-12
1.35303e-11
2.77151e-11
3.76807e-11
4.23944e-11
4.28496e-11
4.21598e-11
4.28205e-11
4.38968e-11
4.09925e-11
3.15928e-11
1.98229e-11
9.8521e-12
5.48205e-13
1.73087e-13
2.39931e-12
7.15665e-13
1.9303e-12
5.70817e-12
2.32403e-12
4.01511e-12
1.33863e-11
2.49147e-11
3.48925e-11
4.1038e-11
4.33736e-11
4.31496e-11
4.0827e-11
3.56471e-11
2.83807e-11
2.08105e-11
1.11927e-11
9.99482e-13
3.331e-12
3.03816e-12
3.44486e-13
2.04098e-12
8.04937e-12
4.34076e-12
1.16379e-12
3.05646e-12
1.05648e-11
2.02412e-11
2.91315e-11
3.47268e-11
3.63084e-11
3.47436e-11
3.1518e-11
2.74754e-11
2.07078e-11
9.30207e-12
-5.00741e-13
2.28749e-12
2.50062e-12
-8.7788e-14
-2.45338e-12
7.24126e-12
9.30879e-12
6.25776e-12
3.15365e-12
3.60477e-12
7.16616e-12
1.26935e-11
1.83523e-11
2.26203e-11
2.50971e-11
2.57869e-11
2.34105e-11
1.58234e-11
4.71516e-12
-2.01465e-12
2.18818e-12
2.40227e-12
-3.95262e-13
4.39027e-13
2.01056e-12
3.96088e-13
4.14116e-13
2.0023e-12
3.5374e-13
3.52757e-13
3.02534e-13
2.08592e-12
4.78651e-13
4.26314e-13
1.86735e-12
4.7402e-13
5.15944e-13
4.50904e-12
1.26343e-12
1.42445e-12
7.11644e-12
1.32472e-12
1.06479e-12
2.33322e-13
2.97867e-13
1.44183e-13
-4.09831e-14
-1.21723e-13
-1.5351e-13
-4.28086e-12
-1.48337e-13
-1.95384e-13
-2.36441e-13
-2.72076e-13
-2.89585e-13
-2.67547e-13
-1.96424e-13
-9.10951e-14
6.31951e-14
3.02343e-13
6.31276e-13
8.98753e-13
1.13234e-12
3.48977e-11
5.46511e-12
5.0704e-12
4.18886e-12
3.20449e-12
-2.38584e-12
-4.56411e-12
-3.8531e-12
-1.14774e-10
-3.50269e-11
-5.22199e-11
-4.61497e-11
9.93236e-13
-1.3554e-12
-1.54092e-12
-1.89638e-11
-4.35138e-12
-4.6903e-12
-4.89844e-12
-3.03223e-11
-9.82713e-13
-7.99071e-13
-5.9554e-13
-3.42243e-13
-1.47224e-13
-5.58228e-15
9.26879e-14
1.53758e-13
1.68814e-13
1.4399e-13
9.88912e-14
3.98538e-14
-1.74439e-14
-2.00125e-12
-1.15807e-13
-1.53266e-13
-2.5465e-13
-4.41094e-13
-5.78421e-13
-4.92269e-13
-2.71972e-12
-3.18938e-12
-2.10626e-11
-4.2871e-12
-4.73458e-12
-3.61937e-11
-1.12944e-11
-1.69875e-11
-4.91406e-11
-6.01937e-12
-4.73157e-12
-3.11444e-11
-7.05403e-12
-7.0869e-12
-6.91423e-12
-3.31021e-11
-5.33109e-12
-4.79349e-12
-2.06073e-11
-4.64296e-12
6.79056e-12
2.97867e-12
1.81212e-12
3.20726e-12
2.94132e-12
1.52265e-12
2.21759e-12
5.42594e-12
8.02634e-12
5.69209e-12
-5.07818e-12
-2.18611e-11
-3.744e-11
-4.61331e-11
-4.56409e-11
-3.7142e-11
-2.2589e-11
-1.83606e-11
-3.718e-12
2.8724e-12
-1.86494e-12
-2.22675e-12
1.68974e-12
2.94871e-12
1.5224e-12
2.29673e-12
5.53346e-12
8.05071e-12
5.49861e-12
-5.43396e-12
-2.21585e-11
-3.75693e-11
-4.61382e-11
-4.57033e-11
-3.76764e-11
-2.41634e-11
-2.19279e-11
-6.22574e-12
1.05407e-12
-2.91292e-12
-2.64441e-12
-1.04772e-12
2.4805e-12
1.55226e-12
2.41193e-12
5.68127e-12
8.07436e-12
5.224e-12
-5.93771e-12
-2.2596e-11
-3.77821e-11
-4.61638e-11
-4.57604e-11
-3.83114e-11
-2.61923e-11
-2.56298e-11
-1.02414e-11
2.75236e-13
-2.32656e-12
-1.85141e-12
-2.89822e-12
1.04165e-12
1.5186e-12
2.49658e-12
5.86915e-12
8.08911e-12
4.87591e-12
-6.5639e-12
-2.31614e-11
-3.80864e-11
-4.62178e-11
-4.57823e-11
-3.88999e-11
-2.83168e-11
-2.86981e-11
-1.36105e-11
4.82482e-13
-1.01299e-12
-1.18463e-12
-3.63796e-12
-1.00564e-12
1.2057e-12
2.45064e-12
6.08201e-12
8.09905e-12
4.42867e-12
-7.33752e-12
-2.38794e-11
-3.85058e-11
-4.6314e-11
-4.57612e-11
-3.93449e-11
-3.07219e-11
-3.08617e-11
-1.99555e-11
1.00181e-12
-3.4238e-13
-1.68075e-12
-4.45492e-12
-2.95771e-12
3.89576e-13
2.1786e-12
6.24834e-12
8.10644e-12
3.85017e-12
-8.31036e-12
-2.47896e-11
-3.90619e-11
-4.64189e-11
-4.56153e-11
-3.96265e-11
-3.34715e-11
-3.57209e-11
-2.29799e-11
1.18037e-12
-9.88484e-13
-3.54547e-12