/*--------------------------------*- C++ -*----------------------------------*\
| =========                 |                                                 |
| \\      /  F ield         | OpenFOAM: The Open Source CFD Toolbox           |
|  \\    /   O peration     | Version:  4.1                                   |
|   \\  /    A nd           | Web:      www.OpenFOAM.org                      |
|    \\/     M anipulation  |                                                 |
\*---------------------------------------------------------------------------*/
FoamFile
{
    version     2.0;
    format      ascii;
    class       volVectorField;
    location    "28";
    object      U;
}
// * * * * * * * * * * * * * * * * * * * * * * * * * * * * * * * * * * * * * //

dimensions      [0 1 -1 0 0 0 0];

internalField   nonuniform List<vector> 
1280
(
(-3.17273e-16 -0.0737134 -0.801629)
(-3.52472e-16 0.734237 -1.67627)
(-2.86243e-16 0.501574 -1.30317)
(-2.99271e-16 0.648144 -1.18008)
(-3.40311e-16 1.32464 -1.8075)
(-2.55639e-16 1.10123 -1.24763)
(-2.54929e-16 1.41744 -1.14459)
(-2.07698e-16 1.43958 -0.951071)
(-3.84845e-16 2.02929 -1.58061)
(-3.53489e-16 1.86195 -1.16384)
(-3.08086e-16 2.0648 -0.975371)
(-2.93124e-16 2.71612 -1.75454)
(-3.42339e-16 2.44636 -1.3703)
(-3.87122e-16 2.72291 -1.17402)
(-7.93333e-16 3.40009 -2.03508)
(-9.13045e-16 3.06885 -1.67382)
(-1.02941e-15 3.42686 -1.42437)
(-1.20951e-15 4.13652 -3.01684)
(-9.57338e-16 4.30866 -2.40133)
(-7.69499e-16 4.02344 -3.20896)
(-9.57218e-16 4.59297 -0.661063)
(-1.22202e-15 4.84643 2.10682)
(-5.91522e-16 4.81417 4.76839)
(1.68136e-16 5.01216 7.77228)
(4.99377e-16 4.86156 10.3283)
(6.29786e-16 5.18777 12.2596)
(9.02421e-16 3.47716 9.37219)
(6.0856e-16 8.57158 15.66)
(8.01577e-16 8.64783 15.7065)
(9.70015e-16 8.66547 15.4307)
(1.11621e-15 8.64172 14.9403)
(1.18804e-15 8.57104 14.3)
(1.09763e-15 8.47995 13.5634)
(8.05841e-16 8.36918 12.7758)
(3.73723e-16 8.2415 12.0035)
(-2.59262e-16 8.10896 11.3225)
(-1.24038e-15 7.99731 10.8008)
(-2.58985e-15 7.8777 10.4128)
(-3.68719e-15 7.93424 10.2828)
(-4.64548e-15 7.78383 9.47404)
(-6.07446e-15 9.26334 10.6635)
(-4.38965e-15 5.61926 7.6523)
(-4.07261e-15 4.90814 7.67533)
(-3.25887e-15 3.92784 7.7653)
(3.93278e-16 2.68468 7.69986)
(1.91634e-15 1.38027 4.21743)
(3.66595e-15 0.927608 3.76011)
(3.09486e-15 0.56561 3.0245)
(2.21235e-14 0.28421 0.158406)
(2.8134e-14 -0.0567749 -1.54169)
(4.19437e-14 0.0576779 -2.55839)
(8.03302e-15 -0.13736 3.22624)
(-7.9778e-16 -1.26089 5.53036)
(1.08867e-15 -1.90549 5.29988)
(1.23769e-15 -2.43239 5.55568)
(3.30092e-15 -4.15015 8.72304)
(3.53596e-15 -5.19597 7.77849)
(3.76731e-15 -6.217 7.54417)
(3.93449e-15 -6.86503 7.30906)
(5.25899e-15 -10.8016 9.89644)
(4.03164e-15 -8.60973 8.8028)
(3.27824e-15 -8.75573 9.51953)
(2.44324e-15 -8.62956 9.54354)
(1.40407e-15 -8.72884 9.7807)
(6.03995e-16 -8.79577 10.1703)
(2.29017e-17 -8.89484 10.7229)
(-3.80258e-16 -8.98201 11.3715)
(-6.30801e-16 -9.049 12.0458)
(-6.92572e-16 -9.0994 12.7141)
(-5.9073e-16 -9.13637 13.3502)
(-4.05707e-16 -9.14067 13.9008)
(-1.63503e-16 -9.11088 14.2836)
(7.15648e-17 -9.01169 14.3508)
(4.21871e-16 -3.62776 7.75491)
(4.75104e-16 -5.4168 11.13)
(6.28786e-16 -5.11002 8.68032)
(1.04472e-15 -5.32599 5.6045)
(1.80962e-15 -5.13744 2.17042)
(2.37301e-15 -5.15269 -0.612792)
(2.01957e-15 -4.8841 -3.33916)
(1.96547e-15 -4.23272 -5.60003)
(2.29201e-15 -4.08221 -4.86074)
(3.57979e-15 -3.01274 -6.35112)
(3.09817e-15 -2.65029 -4.17087)
(3.42155e-15 -1.62208 -4.70516)
(6.55678e-15 -0.619593 -6.1548)
(9.64456e-15 -0.366435 -4.27188)
(1.37588e-14 0.627891 -3.87772)
(8.84776e-15 1.4021 -4.46529)
(4.22608e-15 1.53736 -3.01933)
(3.29542e-15 2.08578 -2.79785)
(6.2295e-15 3.09369 -3.57086)
(5.16978e-15 2.85805 -2.53042)
(5.12152e-15 3.50437 -2.51004)
(4.99673e-15 3.62059 -2.37498)
(5.62602e-15 4.83571 -3.2213)
(3.85264e-15 4.27577 -2.37223)
(3.46247e-15 4.94968 -2.1964)
(3.54411e-15 5.08758 -2.87854)
(3.35535e-15 5.71152 -3.04722)
(-7.54507e-16 2.16725 1.54672)
(-3.30964e-16 1.73807 1.39987)
(-2.01347e-16 0.075634 0.51688)
(-3.56362e-16 -2.14974 0.235031)
(-3.26814e-16 -3.09078 0.375767)
(-1.69183e-16 -3.99336 0.476691)
(-2.46399e-16 -4.85762 0.59575)
(-6.02882e-16 -5.72427 0.754148)
(-8.91815e-16 -6.51067 0.861803)
(-6.32454e-16 -7.36085 0.965259)
(5.64243e-16 -8.41579 0.929052)
(2.42901e-15 -9.42922 0.777826)
(4.16e-15 -9.70866 0.396452)
(5.1259e-15 -9.40181 0.0362526)
(5.07121e-15 -7.95047 -0.623306)
(4.12689e-15 -5.66624 -1.20818)
(2.50989e-15 -3.25428 -2.03013)
(2.04007e-15 -0.200923 -2.38642)
(4.13111e-16 1.56102 -3.16828)
(-3.19155e-16 2.21946 1.54614)
(2.07216e-16 2.03392 1.23457)
(2.47417e-16 0.632589 0.225213)
(-1.87749e-16 -2.40159 -0.130771)
(-3.27634e-16 -3.2581 0.336493)
(-1.69156e-16 -4.12284 0.507045)
(-2.55192e-16 -4.9812 0.632809)
(-6.14829e-16 -5.82709 0.797728)
(-8.94523e-16 -6.58677 0.907686)
(-6.10956e-16 -7.39173 1.01526)
(6.03773e-16 -8.37126 0.993874)
(2.46205e-15 -9.28133 0.857054)
(4.17436e-15 -9.48434 0.491327)
(5.12647e-15 -9.08198 0.134041)
(5.07814e-15 -7.53433 -0.558974)
(4.18627e-15 -5.1778 -1.26996)
(2.68483e-15 -2.81169 -2.20993)
(2.43643e-15 0.100099 -3.16251)
(6.91749e-16 1.72863 -2.98799)
(-1.17119e-16 2.29754 1.58106)
(3.23658e-16 2.24463 1.1688)
(2.93824e-16 0.946552 0.29954)
(1.16413e-16 -2.3023 -0.296803)
(-2.75611e-16 -3.33763 0.173073)
(-1.72474e-16 -4.17075 0.507047)
(-2.67993e-16 -5.01845 0.680874)
(-6.31252e-16 -5.86841 0.863079)
(-8.97151e-16 -6.62272 0.981746)
(-5.80444e-16 -7.40585 1.10005)
(6.59745e-16 -8.33973 1.10077)
(2.51066e-15 -9.18483 0.983574)
(4.19801e-15 -9.34928 0.643008)
(5.12931e-15 -8.88684 0.297858)
(5.08449e-15 -7.26147 -0.431758)
(4.25682e-15 -4.84861 -1.30225)
(2.91025e-15 -2.40542 -2.42222)
(2.84775e-15 0.15214 -3.71582)
(1.13793e-15 1.58273 -3.74128)
(-3.05818e-17 2.39299 1.73168)
(2.58507e-16 2.50431 1.20078)
(2.05712e-16 1.30374 0.465405)
(3.22025e-16 -2.35461 -0.246224)
(-1.15738e-16 -3.448 0.0350918)
(-1.68734e-16 -4.29425 0.447576)
(-2.77398e-16 -5.09255 0.724493)
(-6.52128e-16 -5.92415 0.951253)
(-8.9879e-16 -6.66699 1.08366)
(-5.41768e-16 -7.4311 1.21457)
(7.29323e-16 -8.32371 1.2411)
(2.57349e-15 -9.10823 1.14907)
(4.23182e-15 -9.23134 0.845954)
(5.13532e-15 -8.69639 0.529224)
(5.08692e-15 -6.94534 -0.227107)
(4.32221e-15 -4.43299 -1.27054)
(3.14632e-15 -1.86288 -2.62881)
(3.18868e-15 0.552392 -4.19787)
(1.51228e-15 1.53142 -4.84544)
(-5.36091e-17 2.5212 1.96552)
(1.12554e-16 2.76448 1.32874)
(1.31626e-16 1.59016 0.779245)
(4.04218e-16 -2.25176 0.0205659)
(1.11737e-16 -3.54077 0.0844354)
(-1.33967e-16 -4.45335 0.415822)
(-2.72293e-16 -5.21772 0.760262)
(-6.75778e-16 -6.00746 1.05644)
(-8.99895e-16 -6.72508 1.22094)
(-4.92074e-16 -7.46845 1.36369)
(8.1528e-16 -8.31678 1.41976)
(2.65327e-15 -9.03604 1.3593)
(4.27843e-15 -9.11167 1.10658)
(5.146e-15 -8.4844 0.837608)
(5.08458e-15 -6.55289 0.0645433)
(4.37166e-15 -3.89056 -1.17234)
(3.41354e-15 -1.223 -2.80815)
(3.42907e-15 1.01938 -5.081)
(2.21727e-15 1.38792 -6.14488)
(-1.11313e-16 2.66709 2.25749)
(3.80423e-17 3.01557 1.57412)
(1.8675e-16 1.80233 1.23517)
(4.94991e-16 -2.10351 0.537021)
(3.28634e-16 -3.56569 0.396995)
(-4.32862e-17 -4.5724 0.536711)
(-2.42067e-16 -5.3569 0.831909)
(-6.9426e-16 -6.11102 1.16951)
(-9.00716e-16 -6.79208 1.3936)
(-4.27796e-16 -7.51258 1.55191)
(9.23373e-16 -8.3219 1.6367)
(2.7544e-15 -8.98233 1.61377)
(4.34021e-15 -9.01647 1.42548)
(5.15766e-15 -8.29118 1.22876)
(5.06837e-15 -6.11637 0.451343)
(4.40294e-15 -3.23923 -1.06129)
(3.71906e-15 -0.213801 -2.99137)
(3.96899e-15 2.02308 -6.15814)
(2.55332e-15 2.0937 -6.12367)
(-1.31152e-16 2.81911 2.57449)
(1.09832e-16 3.22821 1.94999)
(3.93941e-16 1.93013 1.85406)
(6.82731e-16 -1.95958 1.26681)
(4.99429e-16 -3.50999 0.952659)
(6.10414e-17 -4.6204 0.867996)
(-2.2677e-16 -5.47438 1.00998)
(-6.87591e-16 -6.22964 1.30541)
(-8.96974e-16 -6.87667 1.59239)
(-3.45568e-16 -7.56592 1.78179)
(1.06027e-15 -8.34084 1.8919)
(2.88107e-15 -8.95285 1.90982)
(4.41967e-15 -8.9548 1.80022)
(5.18786e-15 -8.12004 1.70502)
(5.06969e-15 -5.63939 0.934497)
(4.36912e-15 -2.50567 -0.677321)
(4.12553e-15 0.648841 -4.9788)
(4.74156e-15 2.36292 -4.79904)
(2.48155e-15 1.69856 -1.03057)
(-9.45519e-17 2.94771 2.90758)
(2.93252e-16 3.36444 2.46602)
(7.04131e-16 1.97239 2.62462)
(9.92628e-16 -1.76916 2.15991)
(7.69808e-16 -3.38536 1.70293)
(3.43838e-16 -4.58582 1.40573)
(-6.81066e-17 -5.53644 1.34497)
(-6.77046e-16 -6.34135 1.50849)
(-8.74071e-16 -6.98071 1.81256)
(-2.41788e-16 -7.63292 2.04919)
(1.22875e-15 -8.37272 2.1873)
(3.02908e-15 -8.9485 2.24516)
(4.51776e-15 -8.93125 2.22903)
(5.14869e-15 -7.99112 2.28258)
(4.86668e-15 -5.13033 1.58125)
(4.50168e-15 -0.920459 -0.67446)
(3.74414e-15 1.51024 -3.16693)
(5.34482e-15 0.291898 3.49152)
(6.15807e-15 -4.18436 7.77534)
(-2.90381e-17 3.02878 3.28923)
(5.07547e-16 3.40126 3.12236)
(1.0624e-15 1.93485 3.50352)
(1.25108e-15 -1.56675 3.1539)
(6.72776e-16 -3.20212 2.5959)
(2.71891e-17 -4.46646 2.11713)
(-5.06743e-16 -5.52128 1.84945)
(-5.75772e-16 -6.41532 1.82712)
(-8.23411e-16 -7.09119 2.06924)
(-1.09339e-16 -7.71691 2.34485)
(1.45133e-15 -8.41852 2.52149)
(3.28471e-15 -8.97198 2.6179)
(4.61705e-15 -8.96308 2.70618)
(5.37434e-15 -7.90973 2.92042)
(5.56066e-15 -4.56881 2.25187)
(3.16244e-15 -0.55219 2.45278)
(2.77187e-15 -0.923096 8.80318)
(3.93121e-15 -1.47608 12.1593)
(4.3698e-15 -2.46989 11.7588)
(3.64155e-17 3.04592 3.76962)
(6.93043e-16 3.33532 3.90787)
(1.45242e-15 1.83889 4.43768)
(2.18958e-15 -1.37138 4.17373)
(1.67401e-15 -2.97598 3.56344)
(1.06109e-15 -4.27512 2.95071)
(1.4322e-15 -5.42588 2.50409)
(-5.59918e-16 -6.42833 2.28551)
(-7.07352e-16 -7.18544 2.39421)
(7.56443e-17 -7.81466 2.66555)
(1.65531e-15 -8.48065 2.88739)
(3.1019e-15 -9.02438 3.02594)
(4.82061e-15 -9.04001 3.2046)
(4.86473e-15 -7.88329 3.50117)
(3.34944e-16 -4.84287 3.42704)
(1.43301e-15 -2.84642 6.9284)
(1.34512e-15 -2.66076 11.6996)
(3.60987e-15 -1.44126 10.7123)
(5.37086e-15 -0.793945 7.30318)
(9.812e-17 2.9977 4.37154)
(8.5922e-16 3.18747 4.79201)
(1.68735e-15 1.71628 5.3711)
(2.65679e-15 -1.178 5.1488)
(2.71188e-15 -2.72035 4.53281)
(1.91102e-15 -4.03026 3.84597)
(2.10827e-16 -5.25956 3.26901)
(-5.24975e-16 -6.37094 2.87708)
(-4.73631e-16 -7.24066 2.81715)
(3.25333e-16 -7.91517 3.02348)
(1.90349e-15 -8.56169 3.27837)
(3.42041e-15 -9.10068 3.46142)
(4.97767e-15 -9.14473 3.68138)
(4.08364e-15 -8.04945 4.02812)
(-5.43725e-16 -5.77465 4.81316)
(4.10426e-16 -4.08603 8.44568)
(4.68648e-15 -2.20668 9.96114)
(1.33587e-14 0.370004 7.84426)
(1.72797e-14 0.763435 5.48261)
(1.45427e-16 2.88904 5.06468)
(9.77128e-16 2.98811 5.72926)
(1.86847e-15 1.595 6.26261)
(2.35873e-15 -1.00084 6.03923)
(2.13148e-15 -2.46575 5.44842)
(1.43038e-15 -3.76002 4.74439)
(3.3306e-18 -5.0423 4.09413)
(-2.63251e-16 -6.24802 3.57255)
(-1.24282e-16 -7.24119 3.34839)
(6.64012e-16 -7.99957 3.44103)
(2.24739e-15 -8.65406 3.69466)
(3.86988e-15 -9.18653 3.9124)
(5.03102e-15 -9.26473 4.12664)
(3.47133e-15 -8.36736 4.51901)
(-6.12109e-16 -6.65553 5.78651)
(8.6631e-17 -4.98576 9.02542)
(1.70747e-15 -2.90226 11.5023)
(-1.52674e-15 -0.35691 13.1482)
(-2.83593e-15 1.94796 11.207)
(1.68969e-16 2.72394 5.7842)
(1.00019e-15 2.76338 6.67452)
(2.12564e-15 1.50535 7.09732)
(2.77652e-15 -0.810146 6.83456)
(1.98066e-15 -2.20621 6.28534)
(1.13372e-15 -3.47844 5.60986)
(4.21739e-16 -4.79261 4.93849)
(3.00633e-16 -6.07349 4.33787)
(3.31028e-16 -7.18595 3.98044)
(1.13474e-15 -8.05524 3.93996)
(2.71512e-15 -8.75037 4.1484)
(4.32665e-15 -9.27711 4.37719)
(4.99482e-15 -9.38954 4.55496)
(3.08414e-15 -8.73795 4.91257)
(-3.37749e-16 -7.54675 6.19368)
(-5.36768e-16 -6.21384 9.24059)
(-1.58762e-15 -3.36336 11.8259)
(-4.99513e-15 1.26197 10.8912)
(-4.84836e-15 5.04789 9.70415)
(1.67258e-16 2.50373 6.45951)
(8.97076e-16 2.52691 7.59949)
(2.1795e-15 1.44686 7.901)
(3.73405e-15 -0.654317 7.56796)
(3.24856e-15 -1.98766 7.04282)
(2.2219e-15 -3.21706 6.42359)
(1.51771e-15 -4.53617 5.77547)
(1.14138e-15 -5.86609 5.14433)
(1.01821e-15 -7.07905 4.69662)
(1.82035e-15 -8.06597 4.53368)
(3.31997e-15 -8.8258 4.66399)
(4.71922e-15 -9.34817 4.8678)
(4.85101e-15 -9.47412 4.96465)
(2.76232e-15 -9.04092 5.15522)
(-1.45385e-16 -8.32311 6.20442)
(-8.7257e-16 -7.16844 8.80515)
(-1.43169e-15 -3.65059 8.70227)
(1.27399e-16 0.0967541 1.29859)
(1.6093e-15 0.347164 1.32308)
(1.59251e-16 2.21523 7.0295)
(7.02224e-16 2.26495 8.48648)
(1.73384e-15 1.44652 8.7144)
(3.89133e-15 -0.424049 8.30679)
(4.42687e-15 -1.74197 7.77052)
(3.80272e-15 -2.96067 7.20846)
(2.99783e-15 -4.27933 6.61257)
(2.34705e-15 -5.64298 5.99512)
(2.12319e-15 -6.94109 5.50489)
(2.79e-15 -8.04573 5.24943)
(4.01901e-15 -8.88803 5.27734)
(4.95877e-15 -9.4059 5.38481)
(4.53313e-15 -9.51225 5.32542)
(2.42598e-15 -9.27081 5.34153)
(1.29013e-16 -8.96555 6.30556)
(-6.47516e-16 -7.35611 8.2092)
(-8.67881e-16 -1.19222 5.56346)
(2.25562e-16 3.50957 -0.736701)
(3.33452e-16 1.9712 -2.65093)
(1.59254e-16 1.82623 7.44754)
(5.39038e-16 1.92291 9.3374)
(1.01476e-15 1.42179 9.60468)
(2.9241e-15 -0.274244 9.14322)
(4.33507e-15 -1.56932 8.51581)
(4.62819e-15 -2.75704 7.97202)
(4.29874e-15 -4.05451 7.43793)
(3.78079e-15 -5.42425 6.87158)
(3.54221e-15 -6.77671 6.38507)
(3.9145e-15 -7.97056 6.06298)
(4.63351e-15 -8.8713 5.95064)
(4.92235e-15 -9.35677 5.878)
(4.03261e-15 -9.44023 5.69132)
(2.19046e-15 -9.43951 5.82714)
(6.12388e-16 -9.38132 6.83795)
(-2.17305e-16 -6.8243 7.26514)
(-4.98501e-16 0.825797 1.75222)
(2.27949e-16 3.83343 -0.660869)
(1.87025e-16 1.93257 -1.10339)
(1.76071e-16 1.36982 7.6968)
(5.058e-16 1.56444 10.1598)
(4.37143e-16 1.47878 10.6062)
(1.50336e-15 0.0767064 10.1959)
(3.07945e-15 -1.25078 9.47442)
(4.18675e-15 -2.50917 8.83714)
(4.71049e-15 -3.83373 8.29915)
(4.76107e-15 -5.22381 7.76877)
(4.68442e-15 -6.62234 7.29315)
(4.75784e-15 -7.88307 6.90397)
(4.87742e-15 -8.82973 6.62861)
(4.55472e-15 -9.3276 6.40949)
(3.51031e-15 -9.52425 6.35809)
(2.20254e-15 -9.79123 6.92453)
(1.09468e-15 -9.48898 7.59502)
(6.09116e-17 -5.55729 5.85213)
(1.92319e-17 1.8713 -1.2069)
(2.6659e-16 4.14114 -0.907894)
(7.95183e-17 2.57008 -1.29126)
(2.14477e-16 0.640974 7.8577)
(6.34241e-16 0.712284 10.9203)
(2.58225e-16 1.23248 11.6265)
(4.46123e-16 0.164039 11.2507)
(1.48736e-15 -1.07359 10.5521)
(2.7683e-15 -2.30373 9.83453)
(3.87694e-15 -3.63319 9.20414)
(4.55977e-15 -5.01993 8.63725)
(4.81929e-15 -6.42048 8.13036)
(4.7944e-15 -7.68822 7.66899)
(4.53634e-15 -8.64477 7.30461)
(3.96079e-15 -9.20451 7.16812)
(3.15341e-15 -9.57906 7.54168)
(2.31228e-15 -9.87415 8.32629)
(1.24363e-15 -8.81869 7.9282)
(1.11054e-16 -3.4561 4.1146)
(3.70111e-16 3.16276 -1.36874)
(3.37574e-16 4.02593 -1.05293)
(3.82762e-17 2.58926 -1.3666)
(2.26776e-16 0.0890907 7.23901)
(8.94374e-16 0.52101 11.0078)
(4.82307e-16 1.44953 12.4984)
(1.2931e-16 0.601386 12.5537)
(3.39607e-16 -0.635469 12.0637)
(1.17387e-15 -1.93352 11.2539)
(2.24902e-15 -3.34738 10.4551)
(3.23683e-15 -4.80239 9.71482)
(3.85854e-15 -6.25151 9.10014)
(4.03427e-15 -7.57974 8.62816)
(3.8604e-15 -8.67357 8.40852)
(3.502e-15 -9.49917 8.62179)
(3.05282e-15 -10.1122 9.23995)
(2.30087e-15 -10.12 9.36124)
(1.03356e-15 -7.94776 7.23624)
(-5.56378e-17 -1.53857 1.85519)
(2.54165e-16 3.93874 -1.09261)
(2.77847e-16 4.16757 -1.13599)
(-9.75422e-18 2.81845 -1.49962)
(-2.72597e-16 -1.12612 5.00736)
(8.04585e-16 -1.68723 8.21818)
(1.03431e-15 0.199494 11.6077)
(6.95306e-16 0.2159 12.687)
(3.50406e-16 -0.644347 13.0605)
(4.0053e-16 -1.69956 12.9233)
(7.9624e-16 -3.01175 12.5108)
(1.41038e-15 -4.4469 11.961)
(2.03915e-15 -5.9414 11.4163)
(2.51336e-15 -7.36089 10.9564)
(2.78856e-15 -8.57205 10.6411)
(2.86521e-15 -9.41692 10.443)
(2.60116e-15 -9.66263 10.0206)
(1.75816e-15 -8.71595 8.56828)
(5.23907e-16 -5.46805 5.24218)
(-2.2385e-16 0.346831 0.14579)
(2.43131e-16 4.19248 -1.05595)
(2.66918e-16 4.28879 -1.38324)
(-4.3918e-17 2.95902 -1.62434)
(1.48517e-16 6.82385 12.2247)
(-1.95361e-15 15.2719 24.7954)
(-1.51401e-15 18.7916 29.6127)
(-1.13467e-15 19.5409 30.3341)
(-1.43109e-15 18.6628 28.7651)
(-1.74875e-15 17.2211 26.4167)
(-1.19399e-15 15.5814 23.8832)
(-5.78806e-16 14.1039 21.7283)
(3.33537e-16 12.6537 19.6041)
(1.71348e-15 11.1452 17.4716)
(3.72583e-15 9.56418 15.2828)
(6.06099e-15 7.8784 12.9688)
(7.96572e-15 6.02259 10.4361)
(9.37445e-15 4.09861 7.7802)
(1.0466e-14 2.5072 5.564)
(9.75715e-15 1.57251 4.31337)
(6.15034e-15 1.59167 4.45903)
(1.45183e-15 2.7221 6.01736)
(-1.49235e-15 4.06819 7.58655)
(-1.89195e-15 2.95261 5.8801)
(1.7408e-16 9.37518 15.8729)
(-3.63618e-15 17.5425 29.2488)
(-2.91196e-15 17.5129 28.7965)
(-3.13172e-15 14.724 24.7267)
(-3.70445e-15 12.2752 21.3064)
(-4.1362e-15 10.7522 19.456)
(-3.1729e-15 9.57707 18.1176)
(-2.55442e-15 8.27816 16.4963)
(-1.17276e-15 6.87099 14.6704)
(1.18636e-15 5.40861 12.7051)
(4.17112e-15 3.89809 10.6573)
(6.65271e-15 2.37689 8.55774)
(7.52296e-15 0.924036 6.50271)
(7.62583e-15 -0.19031 4.8359)
(7.28286e-15 -0.454484 4.2892)
(4.4437e-15 0.624331 5.63376)
(1.26096e-17 3.03169 8.89482)
(-3.10298e-15 5.95519 12.8042)
(-3.79518e-15 7.93339 14.8067)
(-3.80657e-15 5.68695 10.9366)
(-9.29382e-18 10.0223 17.1948)
(-1.98581e-15 16.9906 29.8497)
(-1.26624e-15 15.4436 26.8986)
(-1.66707e-15 13.1611 23.2143)
(-1.88017e-15 11.9068 20.9687)
(-3.31471e-15 10.9345 19.2687)
(-1.93317e-15 9.9512 17.6214)
(-1.98467e-15 8.95931 15.909)
(-1.68862e-15 7.91739 14.1102)
(-1.21342e-15 6.86815 12.2049)
(-1.06789e-16 5.83376 10.2675)
(9.00217e-16 4.92831 8.47457)
(8.27755e-16 4.34497 7.17811)
(-1.15839e-15 4.34414 6.86196)
(-3.23609e-15 5.11563 7.87751)
(-4.63607e-15 6.46885 10.075)
(-4.89946e-15 8.20659 12.9943)
(-3.73088e-15 9.5581 15.7382)
(-2.48212e-15 10.0866 16.537)
(-2.75142e-15 7.11761 12.8632)
(9.82831e-18 8.49509 14.5828)
(4.23025e-16 16.3988 29.1863)
(2.82818e-16 16.0425 28.0261)
(3.46513e-16 14.3301 24.6874)
(3.32622e-16 12.8446 21.863)
(-2.65444e-15 11.7572 19.6854)
(-2.19503e-15 10.8954 18.0627)
(-2.353e-15 10.2058 16.6124)
(-2.39969e-15 9.54024 15.2217)
(-2.99854e-15 8.91327 13.8118)
(-3.67371e-15 8.29627 12.3496)
(-4.10302e-15 7.688 10.8254)
(-3.64886e-15 7.12555 9.3226)
(-3.95867e-15 6.67938 8.06147)
(-4.17354e-15 6.52693 7.45079)
(-4.71235e-15 6.76519 7.88344)
(-5.21242e-15 7.34248 9.243)
(-4.41104e-15 7.79801 10.8915)
(-2.95873e-15 7.60984 11.5626)
(-2.75044e-15 5.29395 8.6458)
(-3.55733e-18 7.2778 12.5384)
(-7.26465e-17 16.8815 29.7233)
(-5.30072e-17 17.25 30.0986)
(-5.88362e-17 15.3304 26.2884)
(-3.01944e-17 13.5916 23.1977)
(4.43023e-16 12.5292 20.9819)
(4.13669e-16 11.6943 19.3616)
(4.17821e-16 11.02 17.9149)
(4.07446e-16 10.3635 16.5546)
(4.42531e-16 9.73328 15.2348)
(4.28177e-16 9.1209 13.9481)
(3.37816e-16 8.52153 12.6751)
(1.50856e-16 7.92452 11.3827)
(-3.02699e-17 7.32175 10.0643)
(-2.88793e-16 6.74156 8.8108)
(-5.05819e-16 6.25935 7.84111)
(-4.55153e-16 5.8982 7.38106)
(-2.63059e-17 5.6348 7.30671)
(5.55595e-16 4.92777 7.09314)
(9.97135e-16 2.81734 3.80141)
(2.61307e-19 6.56983 11.0729)
(9.69656e-18 17.2513 29.6165)
(6.61083e-18 18.0049 31.0866)
(6.79899e-18 16.0788 27.2475)
(-1.43067e-18 14.2516 24.1238)
(-7.24582e-17 13.1966 21.9199)
(-7.04682e-17 12.3354 20.285)
(-6.25839e-17 11.6037 18.7629)
(-5.04565e-17 10.8658 17.2912)
(-3.87519e-17 10.1308 15.8386)
(-1.72396e-17 9.39465 14.4186)
(1.46039e-17 8.66059 13.0417)
(6.01431e-17 7.92664 11.71)
(1.22301e-16 7.19618 10.4078)
(2.0411e-16 6.44113 9.11623)
(2.84589e-16 5.68168 7.80914)
(3.22462e-16 4.83383 6.54623)
(2.84717e-16 3.99428 5.23078)
(1.36795e-16 2.58016 3.68322)
(-3.11861e-17 0.553442 -0.395775)
(-8.86701e-20 7.85444 13.1017)
(-4.12906e-19 18.2697 30.1865)
(1.57689e-19 18.8961 31.7831)
(1.64581e-19 17.0174 28.0034)
(1.10893e-18 15.1878 25.0231)
(8.39947e-18 14.2016 22.8925)
(7.1061e-18 13.3481 21.2856)
(4.16918e-18 12.6181 19.7284)
(2.26225e-19 11.8533 18.1811)
(-4.05333e-18 11.0607 16.5915)
(-8.74888e-18 10.2229 14.9703)
(-1.36787e-17 9.3407 13.3314)
(-2.0608e-17 8.41644 11.6984)
(-3.16284e-17 7.46395 10.0853)
(-4.5866e-17 6.46221 8.50312)
(-5.80673e-17 5.43249 6.90229)
(-6.23749e-17 4.24797 5.25371)
(-6.0466e-17 3.01628 3.34736)
(-6.92477e-17 0.971349 0.920112)
(-7.48718e-17 -0.537771 -2.81938)
(4.58901e-20 11.0198 18.7534)
(-1.70241e-19 20.1075 32.3189)
(-3.48229e-19 19.1715 31.8712)
(-3.55664e-19 17.4872 28.2196)
(-3.48059e-19 15.8536 25.8801)
(-3.19231e-19 15.1404 24.0208)
(4.31421e-19 14.3253 22.567)
(1.09842e-18 13.6793 21.0201)
(1.78969e-18 12.8959 19.4217)
(2.49888e-18 12.0458 17.6601)
(3.02679e-18 11.0698 15.7829)
(3.27836e-18 10.0021 13.8136)
(3.66328e-18 8.84988 11.798)
(4.64424e-18 7.63367 9.75288)
(5.95313e-18 6.32817 7.69805)
(6.36405e-18 4.95669 5.59263)
(4.50834e-18 3.3599 3.44484)
(-2.02848e-18 1.76824 1.06675)
(-1.92666e-17 -0.78831 -1.64019)
(-6.79095e-17 -1.92878 -5.44497)
(-1.28111e-20 14.6142 25.8565)
(6.04716e-20 21.0043 33.8075)
(1.09182e-19 17.9619 30.9665)
(1.10215e-19 17.033 28.0433)
(8.34763e-20 15.6027 26.6861)
(-1.16027e-19 15.2333 25.1598)
(-3.4476e-19 14.3335 23.993)
(-4.59002e-19 13.7493 22.4856)
(-5.28228e-19 12.7577 20.8146)
(-5.78681e-19 11.6743 18.7464)
(-5.67779e-19 10.3249 16.4826)
(-4.81339e-19 8.88601 14.0774)
(-4.23479e-19 7.3379 11.6224)
(-5.36334e-19 5.70414 9.08148)
(-6.49217e-19 3.93159 6.43624)
(-2.83764e-21 2.03774 3.65667)
(1.66934e-18 -0.325033 0.637535)
(3.1428e-18 -1.88633 -2.53383)
(-7.82836e-18 -3.95317 -4.63764)
(-7.43783e-17 -3.4484 -8.1872)
(2.6082e-21 16.2038 29.6372)
(-1.5255e-20 19.2303 31.7731)
(-2.51214e-20 15.8004 28.9986)
(-2.47633e-20 15.6715 27.1412)
(-1.06727e-20 14.1242 26.1997)
(6.09484e-20 13.7336 24.7913)
(1.07667e-19 12.5826 23.7813)
(1.19815e-19 11.7911 22.2169)
(1.26379e-19 10.3522 20.3217)
(1.18778e-19 8.83483 17.823)
(6.88421e-20 7.00725 15.1358)
(-2.44927e-20 5.2194 12.3673)
(-1.98864e-19 3.3732 9.62454)
(-4.41245e-19 1.51166 6.79112)
(3.29127e-19 -0.353074 3.92275)
(4.07499e-18 -1.97772 1.36384)
(7.1388e-18 -3.2142 -0.786009)
(-2.93675e-18 -4.30272 -3.08746)
(-2.90175e-17 -4.50259 -4.31856)
(-4.08038e-17 -1.8372 -2.09691)
(-3.2813e-22 15.1989 28.0921)
(3.06266e-21 17.2121 29.1408)
(4.22234e-21 14.58 27.186)
(3.3837e-21 14.1662 25.118)
(-2.53799e-21 12.5143 24.0277)
(-1.65964e-20 11.8611 22.5241)
(-1.95006e-20 10.5432 21.4046)
(-1.16662e-20 9.47064 19.8059)
(4.8124e-21 7.87868 17.8827)
(2.11513e-20 6.19417 15.4228)
(1.24088e-20 4.31653 12.7671)
(-5.19886e-20 2.51667 10.0878)
(-1.89046e-19 0.798075 7.5525)
(-1.28867e-19 -0.697152 5.26154)
(1.1811e-18 -1.79901 3.42912)
(4.52209e-18 -2.19542 2.42129)
(7.4763e-18 -1.37197 3.01708)
(5.61912e-18 1.15555 5.83366)
(2.03003e-19 4.53472 9.68623)
(-8.71731e-19 4.65653 9.78785)
(1.96111e-23 13.9629 25.7684)
(-3.82388e-22 17.2798 28.7056)
(-3.72541e-22 14.2892 26.1603)
(-7.93896e-23 13.9481 23.3994)
(8.36079e-22 12.1408 22.1874)
(1.83193e-21 11.6106 20.2273)
(2.27931e-22 10.2225 18.8573)
(-1.56414e-21 9.33244 17.1339)
(-1.28845e-21 8.05605 15.4456)
(-5.5704e-21 6.86236 13.4248)
(-3.7242e-20 5.54748 11.2478)
(-9.84183e-20 4.35453 9.02416)
(-7.60662e-20 3.37591 7.06635)
(2.42515e-19 2.87198 5.78334)
(8.52073e-19 3.1298 5.73323)
(1.24085e-18 4.26617 7.16043)
(8.30141e-19 5.92156 9.47847)
(-7.18865e-20 7.2755 11.7628)
(-5.3291e-19 8.12928 12.7509)
(2.30937e-20 5.78843 10.4402)
(3.09056e-24 13.9475 25.7688)
(-1.05891e-24 18.163 29.3981)
(-5.5394e-23 14.8147 26.7955)
(-1.26993e-22 14.7395 23.7209)
(-1.84976e-22 12.9441 22.5082)
(3.68706e-24 12.605 20.4543)
(6.06904e-22 11.3924 18.989)
(1.1439e-21 10.7023 17.2718)
(1.2791e-21 9.82175 15.7853)
(1.88471e-21 9.12392 14.3369)
(5.59414e-21 8.46825 12.9767)
(1.21623e-20 7.89929 11.6481)
(9.77258e-21 7.39341 10.3354)
(-2.32934e-20 6.93595 9.06213)
(-9.96304e-20 6.54628 7.92665)
(-2.12104e-19 6.24001 7.17552)
(-3.54672e-19 6.06235 6.96068)
(-5.19765e-19 5.81646 7.16021)
(-6.34669e-19 5.1401 7.02388)
(-4.16363e-19 3.16291 4.69707)
(-1.93941e-24 14.6257 27.1481)
(2.16612e-23 18.9127 30.1218)
(4.61873e-23 15.2371 27.6163)
(6.36281e-23 15.4339 24.6237)
(3.64797e-23 13.6176 23.4338)
(-1.20325e-22 13.3355 21.4376)
(-3.49846e-22 12.2409 19.992)
(-5.33062e-22 11.581 18.3302)
(-6.96627e-22 10.7862 16.8091)
(-1.14616e-21 10.066 15.3022)
(-2.19265e-21 9.36643 13.8557)
(-2.99995e-21 8.68938 12.4698)
(-8.57999e-22 8.02753 11.1338)
(6.92819e-21 7.36409 9.83009)
(1.93322e-20 6.66402 8.5351)
(3.07315e-20 5.90458 7.20352)
(3.77725e-20 4.98196 5.8329)
(5.37597e-20 3.96038 4.36201)
(1.25261e-19 2.38473 2.69219)
(2.49072e-19 0.672121 -0.433358)
(6.1706e-25 15.4801 29.3471)
(-9.04356e-24 19.3807 30.3002)
(-1.61942e-23 15.3527 28.3665)
(-2.3615e-23 16.1002 25.5106)
(-1.93523e-23 14.0224 24.4645)
(2.7217e-23 13.9333 22.4165)
(8.64685e-23 12.7451 21.053)
(1.09304e-22 12.1779 19.4059)
(9.39609e-23 11.3863 17.9525)
(1.30387e-22 10.717 16.4602)
(3.18141e-22 10.0232 14.9823)
(5.11464e-22 9.31541 13.4585)
(2.66744e-22 8.5402 11.8614)
(-6.17421e-22 7.66129 10.151)
(-1.35748e-21 6.6064 8.32168)
(-2.07246e-22 5.3893 6.34392)
(4.32483e-21 3.90247 4.22732)
(1.26e-20 2.33323 1.76444)
(1.86342e-20 -0.0330998 -0.835853)
(1.70389e-19 -1.30864 -4.49513)
(-2.03328e-25 16.043 31.3744)
(3.68613e-24 19.3829 29.9323)
(6.88765e-24 15.2798 28.9762)
(8.5622e-24 16.47 26.2611)
(5.76762e-24 14.1647 25.3697)
(-1.08666e-23 14.2384 23.3778)
(-4.95002e-23 12.9857 22.1513)
(-1.3137e-22 12.5278 20.6105)
(-2.57278e-22 11.7595 19.3151)
(-3.28577e-22 11.1887 17.9645)
(-7.57461e-23 10.5494 16.615)
(8.95412e-22 9.8522 15.0966)
(2.78822e-21 8.92917 13.2592)
(5.09776e-21 7.64467 10.9176)
(6.57728e-21 5.90052 8.0901)
(6.40872e-21 3.9445 5.12373)
(4.62548e-21 1.91535 2.40273)
(2.48754e-21 0.029763 -0.994373)
(3.30917e-22 -2.64608 -3.86865)
(8.18142e-20 -2.98739 -7.62493)
(2.79806e-26 15.674 31.6598)
(-5.94898e-25 18.7302 28.9104)
(-1.2056e-25 14.6431 28.6347)
(1.35996e-24 15.7721 26.0699)
(6.18651e-24 13.5096 25.211)
(8.29593e-24 13.4027 23.4168)
(-2.94567e-23 12.1853 22.2712)
(-1.49279e-22 11.6535 20.9024)
(-3.03416e-22 10.8626 19.7556)
(-2.25152e-22 10.2609 18.5574)
(6.20932e-22 9.54021 17.2971)
(2.78458e-21 8.65826 15.666)
(6.03589e-21 7.30267 13.2804)
(8.43836e-21 5.24089 9.73075)
(7.28661e-21 2.60358 5.25097)
(3.49488e-21 0.424761 1.65329)
(-5.32807e-22 -0.288696 0.612511)
(-3.23576e-21 -1.20607 -1.25259)
(7.84918e-21 -4.15562 -5.1966)
(4.02041e-20 -3.38062 -6.88908)
(-2.29634e-26 14.2343 30.6092)
(5.30527e-25 18.0532 27.8223)
(1.85406e-24 13.4404 27.6751)
(5.18072e-24 14.2671 25.3955)
(9.64251e-24 12.2113 24.4848)
(2.28908e-24 11.7016 22.9598)
(-5.09315e-23 10.5847 21.8092)
(-1.79033e-22 9.82809 20.5833)
(-3.16714e-22 9.00649 19.4692)
(-1.92778e-22 8.2612 18.3415)
(6.76432e-22 7.45291 17.1067)
(2.63825e-21 6.46806 15.4963)
(5.05311e-21 5.10167 13.1317)
(5.80905e-21 3.28377 9.78586)
(3.10027e-21 1.34905 5.91033)
(-1.5508e-21 -0.166742 2.46234)
(-3.98508e-21 -1.28677 -0.308849)
(-3.51941e-22 -2.33875 -2.74914)
(1.11859e-20 -3.00946 -4.0241)
(2.18738e-20 -1.85747 -2.58545)
(-2.26635e-26 11.1247 28.3135)
(-1.48299e-25 16.8903 24.827)
(3.9189e-25 11.9062 25.2195)
(3.01265e-24 12.5148 23.5241)
(8.09581e-24 10.7634 22.7898)
(8.28211e-24 10.0648 21.7146)
(-1.87436e-23 9.03638 20.8163)
(-1.00658e-22 8.22231 19.8902)
(-2.34836e-22 7.40895 19.0139)
(-3.47662e-22 6.67001 18.1454)
(-2.92915e-22 5.96101 17.267)
(8.52337e-23 5.28347 16.3302)
(8.22293e-22 4.63749 15.2848)
(1.64143e-21 4.0492 14.058)
(1.89231e-21 3.5381 12.5675)
(1.06334e-21 3.06463 10.7837)
(-3.55998e-22 2.53811 8.6564)
(-7.9914e-22 1.89227 5.91524)
(1.34679e-21 0.909113 2.41039)
(4.14275e-21 -0.33782 -0.738041)
(1.09618e-27 2.56885 16.9813)
(-3.13563e-26 8.03462 13.6057)
(-3.66657e-26 5.17329 14.4492)
(5.58061e-25 4.99787 14.0496)
(2.68131e-24 4.0892 13.9999)
(5.87904e-24 3.53823 13.8162)
(3.85554e-24 2.97675 13.6485)
(-2.02928e-23 2.52187 13.4519)
(-9.28134e-23 2.13328 13.2464)
(-2.36041e-22 1.82598 13.0361)
(-4.45932e-22 1.59742 12.8277)
(-6.74974e-22 1.44707 12.6158)
(-8.37594e-22 1.36614 12.3826)
(-8.43977e-22 1.35314 12.0971)
(-6.53653e-22 1.41982 11.7262)
(-3.25565e-22 1.53693 11.2756)
(-1.50973e-23 1.73043 10.7214)
(1.16992e-22 2.28869 9.78901)
(4.38684e-23 2.42212 8.4222)
(-3.99283e-23 -0.274704 6.32036)
(-2.37312e-27 -2.56885 16.9814)
(2.90264e-26 -8.03464 13.6058)
(3.74349e-26 -5.1733 14.4493)
(-5.70682e-25 -4.99789 14.0496)
(-2.75614e-24 -4.08923 13.9999)
(-6.08992e-24 -3.53828 13.8162)
(-4.17938e-24 -2.97682 13.6485)
(2.03392e-23 -2.52197 13.4519)
(9.48041e-23 -2.13342 13.2464)
(2.43235e-22 -1.82618 13.0361)
(4.63054e-22 -1.59764 12.8277)
(7.06151e-22 -1.44728 12.6157)
(8.82154e-22 -1.36628 12.3824)
(8.92189e-22 -1.35318 12.0967)
(6.87469e-22 -1.41975 11.7256)
(3.28216e-22 -1.53679 11.275)
(-1.57057e-23 -1.73023 10.7209)
(-1.65217e-22 -2.28841 9.78859)
(-8.45277e-23 -2.4217 8.42196)
(2.79512e-23 0.274764 6.32001)
(2.44866e-26 -11.1246 28.3133)
(1.644e-25 -16.8903 24.8267)
(-4.14967e-25 -11.9062 25.2191)
(-3.1476e-24 -12.5149 23.5236)
(-8.42802e-24 -10.7635 22.7893)
(-8.78085e-24 -10.065 21.714)
(1.8653e-23 -9.03658 20.8157)
(1.02592e-22 -8.22256 19.8894)
(2.40997e-22 -7.40924 19.0131)
(3.57971e-22 -6.67036 18.1445)
(2.99811e-22 -5.96145 17.2662)
(-1.00269e-22 -5.28413 16.3296)
(-8.81363e-22 -4.63856 15.2846)
(-1.74364e-21 -4.05081 14.0583)
(-1.98026e-21 -3.54016 12.5684)
(-1.02625e-21 -3.06687 10.7854)
(6.304e-22 -2.54024 8.65857)
(1.41316e-21 -1.8943 5.91758)
(-2.62221e-22 -0.911073 2.41219)
(-2.9139e-21 0.337686 -0.739222)
(2.1326e-26 -14.234 30.6085)
(-6.21419e-25 -18.0528 27.8217)
(-2.0283e-24 -13.44 27.6744)
(-5.43068e-24 -14.2666 25.3949)
(-9.83953e-24 -12.2108 24.4842)
(-2.19202e-24 -11.701 22.9591)
(5.21881e-23 -10.5839 21.8086)
(1.83817e-22 -9.82727 20.5828)
(3.26923e-22 -9.00555 19.4687)
(2.01054e-22 -8.26006 18.3409)
(-7.02801e-22 -7.45143 17.1057)
(-2.76354e-21 -6.46605 15.4946)
(-5.32522e-21 -5.09923 13.1291)
(-6.14029e-21 -3.28199 9.78394)
(-3.20381e-21 -1.34974 5.91177)
(2.00337e-21 0.163476 2.46756)
(5.22302e-21 1.28281 -0.302681)
(2.79196e-21 2.33444 -2.74353)
(-6.75234e-21 3.00431 -4.01843)
(-1.63261e-20 1.853 -2.57523)
(-3.31549e-26 -15.674 31.6596)
(7.94829e-25 -18.7298 28.9106)
(2.76967e-25 -14.6431 28.6347)
(-1.14228e-24 -15.7716 26.0702)
(-6.05918e-24 -13.5093 25.2112)
(-8.83817e-24 -13.402 23.4172)