/*--------------------------------*- C++ -*----------------------------------*\
| =========                 |                                                 |
| \\      /  F ield         | OpenFOAM: The Open Source CFD Toolbox           |
|  \\    /   O peration     | Version:  4.1                                   |
|   \\  /    A nd           | Web:      www.OpenFOAM.org                      |
|    \\/     M anipulation  |                                                 |
\*---------------------------------------------------------------------------*/
FoamFile
{
    version     2.0;
    format      ascii;
    class       volScalarField;
    location    "27";
    object      p;
}
// * * * * * * * * * * * * * * * * * * * * * * * * * * * * * * * * * * * * * //

dimensions      [0 2 -2 0 0 0 0];

internalField   nonuniform List<scalar> 
1680
(
35650.6
-16568.6
2949.1
-6314.9
-929.924
-4018.45
-2520.39
-2098.5
-2691.94
-2368.61
-2436.26
-2229.06
-1718.47
-2221.13
-1967.4
-1911.19
-1899.15
-1298.7
-1404.08
-2115.01
-1569.9
-1541.27
-1362.61
-1258.11
-1196.89
-1119.42
-1052.39
-979.695
-923.426
-868.693
-733.712
-615.182
-607.323
-538.617
-504.863
-447.276
-372.458
-295.401
-264.816
-249.586
-162.619
-251.694
-115.063
-92.2686
-132.199
-97.0915
-20.0234
1.72293
-33.8128
49.6451
57.406
35.7277
58.0093
103.471
125.236
99.6337
117.485
151.523
176.095
146.697
-2905.11
-1432.32
-2983.13
-819.309
443.184
648.464
627.716
548.094
615.015
627.465
546.323
408.368
332.903
335.297
331.459
373.686
292.222
524.659
290.368
-3751.81
-1728.94
-3663.28
-1124.78
441.327
651.977
615.126
526.792
623.311
620.682
533.308
386.746
316.743
323.376
317.039
354.673
273.223
512.112
173.249
-4678.62
-2082.46
-4380.64
-1457.45
446.554
646.776
590.253
497.642
627.437
611.823
513.939
363.125
299.618
309.758
295.034
325.194
251.737
494.264
16.7074
-5691.49
-2487.75
-5092.22
-1803.41
463.198
626.481
548.138
459.215
623.989
598.032
487.703
337.669
280.629
293.786
262.083
281.274
225.479
467.667
-189.839
-6801.68
-2938.22
-5752.94
-2148.59
494.237
582.721
482.005
409.947
613.193
576.198
454.567
310.349
259.006
274.948
216.817
219.377
193.151
419.626
-461.337
-7989.35
-3428.2
-6328.27
-2440.59
537.815
505.485
382.62
343.14
593.261
545.103
415.339
281.092
234.346
252.512
159.352
136.461
152.006
341.272
-794.448
-9242.75
-3933.81
-6790.63
-2649.89
591.142
386.443
245.297
250.104
558.032
502.94
370.696
249.623
206.322
225.471
90.376
30.1821
100.011
230.949
-1198.7
-10541.1
-4447.88
-7162.04
-2957.01
640.804
226.081
72.2493
124.972
502.785
449.393
321.391
215.97
175.361
193.309
9.95316
-99.5968
37.3362
79.1008
-1659.29
-11911.7
-4939.99
-7443.54
-3430.6
646.936
40.373
-131.253
-35.0275
427.446
386.051
267.593
179.547
140.843
155.338
-80.1477
-246.344
-32.379
-92.3251
-2150.26
-13299.4
-5439.65
-7688.99
-3522.9
610.207
-138.451
-343.24
-218.587
334.629
316.146
211.462
141.028
103.703
112.437
-168.133
-389
-96.352
-227.611
-2595.46
-14824.9
-6173.16
-7921.11
-3268.88
573.542
-256.167
-515.309
-387.399
228.955
238.507
150.727
98.8398
64.4542
65.5208
-231.069
-492.209
-130.037
-298.995
-3001.14
-16099.9
-6975.05
-8163.93
-2702.84
559.807
-267.415
-596.116
-476.849
130.297
163.805
92.864
58.3904
27.5978
19.5446
-253.947
-543.608
-132.242
-325.878
-3331.05
-17976.1
-7697.86
-8436.7
-1871.64
557.421
-205.835
-594.965
-472.657
34.9159
75.4809
21.098
7.90923
-14.0212
-28.0709
-260.24
-571.539
-137.708
-304.373
-3521.32
-18356.8
-8421.21
-8735.31
-797.923
528.734
-131.158
-562.172
-431.422
-22.0294
21.3304
-23.5959
-23.7603
-42.2516
-65.3469
-266.27
-594.445
-169.242
-200.503
-3746.66
-22328.1
-8599.1
-9034.39
399.162
423.904
-68.444
-536.187
-421.661
-125.541
-108.522
-140.208
-105.802
-101.163
-117.219
-285.671
-603.691
-226.523
-120.834
-3725.03
-17787
-9201.97
-9504.53
1265.64
156.247
-32.6767
-526.738
-372.352
-78.5373
-49.2976
-90.1438
-70.7521
-84.3615
-117.586
-261.609
-601.39
-291.927
-355.786
-4050.79
-33803.1
-7086.61
-10099.7
1904.92
-150.298
6.19395
-470.461
-347.453
-322.218
-430.698
-451.41
-326.533
-254.119
-215.277
-295.232
-579.45
-297.932
-75.989
-3512.36
-501.343
-10638.9
-6525.82
3441.9
-198.615
36.3035
-347.796
-220.105
131.225
229.343
164.52
118.215
34.9121
-45.5973
-183.602
-499.679
-119.892
1790.39
-4926.43
-80582.5
-1107.54
3835.26
1035.96
-416.211
-128.169
-644.416
-304.241
-928.965
-1536.64
-1564.05
-1135.47
-798.535
-470.097
-360.652
-750.195
-25.6771
-1482.49
-2469.15
155043
-92585.9
-36076.4
-3794.6
-687.3
-314.255
-802.697
5.19638
1424.65
2521.15
2516.05
1901.7
1279.53
617.247
124.054
-677.022
-180.168
-10134.1
-10474.2
-575.146
-578.625
-579.728
-582.03
-582.851
-583.683
-583.791
-583.566
-583.048
-582.643
-581.47
-580.298
-579.894
-578.379
-576.786
-575.459
-573.962
-572.201
-578.57
-593.041
-544.084
-545.96
-546.336
-546.633
-546.293
-545.536
-544.341
-542.756
-540.823
-538.565
-535.998
-533.291
-530.616
-527.896
-525.107
-522.454
-519.891
-516.386
-515.124
-518.945
-509.54
-510.654
-510.978
-511.444
-511.555
-511.502
-511.153
-510.562
-509.672
-508.5
-507.013
-505.224
-503.121
-500.719
-497.978
-494.883
-491.404
-487.301
-484.845
-485.995
-508.837
-508.961
-508.935
-508.929
-508.826
-508.673
-508.418
-508.082
-507.632
-507.076
-506.391
-505.58
-504.62
-503.517
-502.248
-500.82
-499.144
-497.141
-494.738
-493.554
-503.866
-504.041
-504.065
-504.149
-504.159
-504.168
-504.122
-504.053
-503.931
-503.773
-503.56
-503.304
-502.988
-502.625
-502.192
-501.717
-501.164
-500.565
-499.69
-498.937
-503.433
-503.49
-503.484
-503.517
-503.514
-503.522
-503.504
-503.487
-503.447
-503.401
-503.333
-503.255
-503.155
-503.045
-502.907
-502.768
-502.591
-502.431
-502.179
-501.931
-502.257
-502.334
-502.349
-502.402
-502.424
-502.462
-502.481
-502.507
-502.52
-502.534
-502.537
-502.54
-502.532
-502.525
-502.503
-502.491
-502.453
-502.44
-502.377
-502.347
-501.69
-501.75
-501.764
-501.81
-501.83
-501.868
-501.891
-501.922
-501.945
-501.971
-501.992
-502.014
-502.031
-502.051
-502.062
-502.084
-502.085
-502.113
-502.101
-502.132
-501.039
-501.1
-501.116
-501.163
-501.187
-501.227
-501.254
-501.29
-501.318
-501.351
-501.379
-501.41
-501.436
-501.467
-501.49
-501.523
-501.539
-501.579
-501.584
-501.635
-500.486
-500.543
-500.558
-500.603
-500.625
-500.664
-500.691
-500.725
-500.754
-500.786
-500.815
-500.846
-500.875
-500.907
-500.933
-500.967
-500.987
-501.029
-501.038
-501.093
-499.938
-499.994
-500.009
-500.052
-500.074
-500.112
-500.138
-500.172
-500.2
-500.232
-500.261
-500.292
-500.321
-500.352
-500.379
-500.413
-500.434
-500.475
-500.486
-500.54
-499.423
-499.476
-499.49
-499.531
-499.553
-499.589
-499.614
-499.647
-499.674
-499.704
-499.733
-499.762
-499.791
-499.82
-499.847
-499.878
-499.9
-499.939
-499.951
-500.003
-498.928
-498.978
-498.993
-499.032
-499.053
-499.087
-499.111
-499.142
-499.169
-499.198
-499.226
-499.253
-499.281
-499.308
-499.335
-499.365
-499.387
-499.423
-499.435
-499.485
-498.455
-498.502
-498.516
-498.553
-498.574
-498.607
-498.63
-498.66
-498.685
-498.713
-498.74
-498.766
-498.793
-498.818
-498.846
-498.872
-498.895
-498.928
-498.941
-498.988
-498.003
-498.047
-498.061
-498.096
-498.115
-498.146
-498.168
-498.196
-498.221
-498.247
-498.273
-498.297
-498.324
-498.347
-498.374
-498.398
-498.422
-498.452
-498.466
-498.51
-497.583
-497.624
-497.637
-497.67
-497.687
-497.716
-497.737
-497.762
-497.785
-497.809
-497.832
-497.855
-497.88
-497.901
-497.927
-497.947
-497.972
-497.997
-498.012
-498.052
-497.188
-497.225
-497.24
-497.272
-497.289
-497.317
-497.337
-497.361
-497.383
-497.406
-497.428
-497.45
-497.472
-497.492
-497.516
-497.532
-497.558
-497.576
-497.592
-497.626
-496.788
-496.816
-496.827
-496.86
-496.872
-496.898
-496.918
-496.94
-496.962
-496.985
-497.009
-497.033
-497.058
-497.082
-497.11
-497.13
-497.164
-497.179
-497.206
-497.243
-496.514
-496.523
-496.508
-496.529
-496.529
-496.536
-496.541
-496.546
-496.552
-496.558
-496.566
-496.575
-496.587
-496.602
-496.622
-496.643
-496.682
-496.703
-496.775
-496.832
-496.549
-496.607
-496.569
-496.558
-496.541
-496.523
-496.504
-496.483
-496.461
-496.436
-496.408
-496.377
-496.342
-496.303
-496.26
-496.211
-496.158
-496.089
-496.048
-495.885
187.168
207.634
184.126
193.15
216.442
247.435
216.883
223.409
244.322
281.154
235.284
266.368
302.339
257.276
257.498
277.239
331.035
262.343
292.884
300.427
306.665
324.571
334.062
346.975
357.911
370.03
383.078
391.163
417.004
434.235
447.548
456.324
466.515
475.13
483.903
492.617
496.602
490.522
527.117
488.578
494.924
517.097
494.474
507.288
506.905
515.618
540.259
520.234
533.238
532.255
540.657
549.119
538.51
543.538
541.168
534.897
534.536
533.587
534.467
533.986
318.548
286.681
262.391
378.318
462.423
577.925
627.306
634.403
615.173
570.15
509.307
474.774
476.626
481.36
483.468
485.579
480.504
516.073
509.467
317.995
283.498
255.24
375.872
460.977
576.221
625.85
633.145
613.98
569.208
507.296
472.447
476.132
481.919
483.969
484.437
477.346
514.516
506.387
309.984
274.535
245.074
373.39
458.585
573.619
623.363
630.851
612.043
567.856
505.012
470.025
475.233
482.001
484.399
483.506
472.98
508.003
502.363
293.639
262.519
231.269
369.877
455.619
570.471
620.329
627.97
609.607
566.416
501.845
466.43
474.024
481.582
484.864
482.258
468.525
502.306
496.866
270.661
247.308
213.57
365.539
452.51
567.38
617.172
624.781
606.796
565.09
498.171
462.06
472.614
480.797
485.423
480.819
464.757
498.31
490.928
240.832
228.138
191.049
360.179
449.566
564.741
614.188
621.45
603.622
563.975
493.913
456.632
470.847
479.569
486.126
479.256
461.969
496.164
482.104
203.413
204.439
162.836
353.706
447.139
562.922
611.594
618.123
600.155
563.231
489.235
450.113
468.699
477.963
486.858
477.605
460.207
496
474.303
157.572
175.564
128.103
345.893
445.598
562.226
609.575
614.991
596.616
563.175
484.479
442.549
466.168
476.102
487.176
476.285
459.7
496.891
466.265
102.074
140.767
85.8541
336.37
445.309
562.865
608.324
612.234
593.36
564.342
480.558
434.43
463.206
473.883
486.82
475.777
459.361
497.723
458.257
35.2162
99.1
34.2554
324.381
446.416
564.847
607.976
609.923
590.736
566.986
477.459
425.864
459.768
472.066
484.745
474.673
457.53
498.373
453.149
-45.2747
49.2031
-30.1878
308.582
448.685
568.407
608.471
607.965
588.969
571.141
474.573
416.982
456.212
467.512
478.129
471.986
452.714
500.077
454.057
-142.424
-10.8248
-112.717
286.944
451.646
573.532
609.69
606.236
588.198
577.552
477.456
412.697
451.243
457.952
466.435
466.942
445.269
503.572
462.737
-260.175
-83.3012
-219.665
256.798
454.783
579.751
611.607
604.476
588.462
586.885
492.531
419.059
443.806
444.601
450.889
459.25
434.75
509.221
465.915
-403.521
-170.89
-358.119
214.86
457.657
586.787
614.143
602.347
589.601
598.312
512.147
435.287
434.374
429.134
432.216
449.294
420.554
514.559
481.506
-578.768
-276.399
-536.179
157.158
459.785
594.443
617.208
599.522
591.422
611.591
527.424
451.301
423.095
412.758
412.166
438.128
402.518
518.54
484.788
-793.577
-403.132
-763.228
78.9843
460.715
602.627
620.73
595.696
593.637
626.873
538.912
460.049
410.072
396.657
393.084
426.882
382.343
523.349
487.821
-1057.94
-553.696
-1049.86
-25.1045
460.128
611.4
624.587
590.59
595.788
639.782
547.429
460.912
395.706
381.858
376.66
416.299
362.952
527.53
483.527
-1382.68
-732.348
-1407.26
-161.27
457.772
620.828
628.46
583.897
598.01
644.688
553.043
455.115
380.433
368.713
363.183
406.457
345.423
530.392
462.262
-1785.35
-937.63
-1845.79
-335.777
453.561
630.777
631.514
575.162
601.423
641.255
555.658
443.588
364.665
357.012
352.086
396.841
328.406
532.178
425.718
-2274.88
-1178.53
-2371.95
-554.505
448.156
640.511
632.09
563.624
607.042
634.464
553.726
427.585
348.773
346.182
342.161
386.575
310.624
530.978
371.461
1083.56
1000.81
951.573
895.226
846.09
798.651
754.519
712.814
673.556
636.467
601.393
568.144
536.53
506.551
478.362
451.232
425.531
405.39
381.655
344.353
394.487
371.604
379.575
368.248
365.345
358.518
353.446
348.079
343.467
339.4
336.123
333.693
332.219
331.789
332.476
334.482
337.853
341.068
343.37
344.812
370.546
362.897
370.659
363.116
364.525
360.514
358.55
355.251
352.214
348.833
345.435
341.932
338.43
335.053
332.086
329.947
329.439
329.8
329.678
331.041
364.233
360.228
362.66
356.261
356.986
352.585
351.075
348.203
346.135
344.007
342.208
340.645
339.393
338.545
338.254
338.858
340.47
343.132
344.986
348.028
364.751
363.482
367.152
364.43
368.355
367.333
369.705
370.53
372.258
373.889
375.732
377.717
379.83
382.071
384.384
386.783
389.093
391.517
393.412
396.14
387.806
388.773
392.315
391.467
395.545
395.524
398.535
399.761
401.965
403.713
405.548
407.126
408.387
409.135
409.293
408.904
408.521
408.738
409.659
410.74
413.049
412.906
414.874
413.377
415.839
414.678
416.244
415.663
416.063
415.449
414.848
413.746
412.423
410.829
409.092
407.241
405.473
404.291
403.81
401.781
395.078
391.162
391.411
387.758
387.705
384.613
383.863
381.422
380.115
378.159
376.699
375.11
373.699
372.182
370.594
368.833
366.996
365.577
363.651
359.921
349.706
344.365
343.636
339.37
337.999
333.995
331.761
327.907
324.825
320.963
317.469
313.915
310.781
308.045
305.948
304.42
303.604
303.576
303.296
304.99
323.15
320.067
320.439
317.822
317.853
315.484
314.948
313.082
312.142
310.848
310.16
309.825
310.135
311.067
312.577
314.629
316.863
319.376
321.318
325.046
339.726
340.422
342.274
342.266
344.324
344.771
346.578
347.688
349.364
350.948
352.744
354.643
356.651
358.761
360.897
363.123
365.268
367.695
369.701
372.836
365.966
368.098
370.2
371.227
373.418
374.573
376.461
377.918
379.567
381.126
382.677
384.205
385.693
387.17
388.606
390.078
391.47
393.038
394.221
395.884
385.609
388.042
389.957
391.279
393.182
394.358
395.973
397.269
398.647
399.95
401.218
402.452
403.651
404.842
406.046
407.354
408.691
410.24
411.431
412.939
408.912
411.161
412.446
413.677
415.045
415.914
417.032
417.8
418.54
419.068
419.457
419.735
420.017
420.434
421.16
422.217
423.513
424.791
425.722
426.471
422.513
423.651
423.819
424.31
424.689
424.972
425.475
425.835
426.3
426.708
427.102
427.407
427.526
427.243
426.481
425.258
424.054
422.981
422.902
422.054
437.212
436.042
434.619
434.043
433.896
433.597
433.271
432.531
431.515
429.888
427.54
424.166
419.644
414.185
408.572
403.729
400.392
399.016
399.177
396.43
410.86
406.576
402.643
399.294
395.795
391.886
388.071
384.448
381.263
378.392
375.912
373.779
372.079
370.846
370.068
369.728
369.922
370.437
369.677
366.085
368.029
361.114
355.718
352.506
348.963
345.484
342.234
339.07
335.949
332.668
329.214
325.654
322.18
319.028
316.427
314.665
313.756
312.932
311.942
312.437
294.28
294.232
297.801
303.125
306.601
308.989
310.436
311.08
311.075
310.575
309.849
309.167
308.831
309.039
309.845
311.338
313.22
315.599
317.694
320.72
368.949
372.785
376.147
379.234
380.204
380.243
379.241
377.768
376.073
374.322
372.866
371.561
370.411
369.797
369.681
369.987
370.591
371.657
372.686
374.367
)
;

boundaryField
{
    outletWallLeft
    {
        type            fixedValue;
        value           uniform 0;
    }
    fineWallsLeft
    {
        type            zeroGradient;
    }
    fineFrontAndBackLeft
    {
        type            zeroGradient;
    }
    fineplugLeft
    {
        type            cyclicAMI;
        value           nonuniform List<scalar> 
20
(
-774.097
-690.443
-736.303
-717.247
-705.659
-690.83
-677.511
-662.792
-651.124
-639.853
-611.919
-584.35
-585.379
-570.427
-562.401
-549.823
-533.661
-516.841
-515.82
-524.35
)
;
    }
    symmetryWallLeft
    {
        type            cyclicAMI;
        value           nonuniform List<scalar> 
20
(
166.933
330.914
527.818
301.423
380.131
336.81
340.74
340.838
417.977
550.024
630.965
611.028
555.859
629.903
644.487
445.67
-686.907
-2677.54
-1305.43
-2590
)
;
    }
    inletOutletLeft
    {
        type            cyclicAMI;
        value           nonuniform List<scalar> 
20
(
-524.35
-515.82
-516.841
-533.661
-549.823
-562.401
-570.427
-585.379
-584.35
-611.919
-639.853
-651.124
-662.792
-677.511
-690.83
-705.659
-717.247
-736.303
-690.443
-774.097
)
;
    }
    inletLeft
    {
        type            zeroGradient;
    }
    inletWallsLeft
    {
        type            zeroGradient;
    }
    inletFacesLeft
    {
        type            zeroGradient;
    }
    fineWallsRight
    {
        type            zeroGradient;
    }
    outletWallRight
    {
        type            zeroGradient;
    }
    fineplugRight
    {
        type            cyclicAMI;
        value           nonuniform List<scalar> 
20
(
360.826
363.063
364.138
365.867
367.572
369.751
372.453
374.562
376.84
385.139
388.967
392.123
395.518
398.419
400.975
402.687
402.707
399.022
390.712
392.875
)
;
    }
    fineFrontAndBackRight
    {
        type            zeroGradient;
    }
    symmetryWallRight
    {
        type            cyclicAMI;
        value           nonuniform List<scalar> 
20
(
166.933
330.914
527.818
301.423
380.131
336.81
340.74
340.838
417.977
550.024
630.965
611.028
555.859
629.903
644.487
445.67
-686.907
-2677.54
-1305.43
-2590
)
;
    }
    inletOutletRight
    {
        type            cyclicAMI;
        value           nonuniform List<scalar> 
20
(
360.826
363.063
364.138
365.867
367.572
369.751
372.453
374.562
376.84
385.139
388.967
392.123
395.518
398.419
400.975
402.687
402.707
399.022
390.712
392.875
)
;
    }
    inletRight
    {
        type            zeroGradient;
    }
    inletWallsRight
    {
        type            zeroGradient;
    }
    inletFacesRight
    {
        type            zeroGradient;
    }
}


// ************************************************************************* //
