/*--------------------------------*- C++ -*----------------------------------*\
| =========                 |                                                 |
| \\      /  F ield         | OpenFOAM: The Open Source CFD Toolbox           |
|  \\    /   O peration     | Version:  4.1                                   |
|   \\  /    A nd           | Web:      www.OpenFOAM.org                      |
|    \\/     M anipulation  |                                                 |
\*---------------------------------------------------------------------------*/
FoamFile
{
    version     2.0;
    format      ascii;
    class       volVectorField;
    location    "27";
    object      U;
}
// * * * * * * * * * * * * * * * * * * * * * * * * * * * * * * * * * * * * * //

dimensions      [0 1 -1 0 0 0 0];

internalField   nonuniform List<vector> 
1680
(
(-2.45314e-13 -619.175 -692.41)
(3.61599e-14 87.0157 83.4636)
(-1.66451e-14 -217.216 -49.7477)
(-5.1844e-17 -14.4861 1.2185)
(-2.42951e-15 -93.2695 -8.98577)
(1.58312e-15 -35.6593 -3.81943)
(1.22395e-15 -44.6671 -2.0635)
(2.47022e-15 -44.9655 -7.56706)
(2.01744e-15 -42.7096 -6.96126)
(1.24058e-15 -34.0293 -4.40072)
(-2.82602e-15 -44.6401 -5.26073)
(-9.21366e-16 -29.4722 -0.528806)
(-1.17209e-15 -38.757 3.40952)
(-3.48651e-17 -31.8244 7.59411)
(3.20617e-16 -28.1206 8.76832)
(4.23858e-16 -37.226 15.6362)
(3.96603e-18 -27.2423 13.2759)
(-7.59177e-16 -34.7402 21.0159)
(-1.15341e-15 -25.5916 16.0792)
(-4.80541e-16 -33.7297 14.0516)
(2.29585e-15 -28.24 19.5966)
(-9.16673e-16 -40.1102 10.9015)
(6.46929e-15 -24.0747 18.131)
(7.15295e-15 -25.1084 16.8642)
(6.97133e-15 -24.4597 16.5736)
(5.75451e-15 -24.6261 16.1485)
(4.70187e-15 -24.3875 15.7593)
(5.07898e-15 -24.2697 15.2385)
(4.43673e-15 -24.235 14.5745)
(3.95225e-15 -24.2828 13.7846)
(3.29417e-15 -23.0303 13.0665)
(-5.24037e-15 -30.802 6.80363)
(3.22037e-15 -18.8786 13.4524)
(3.19592e-15 -19.959 13.6539)
(4.85313e-15 -19.328 14.4588)
(7.42461e-15 -19.5819 14.3261)
(8.91245e-15 -19.2597 11.5992)
(4.14328e-15 -19.3858 5.81229)
(-4.34706e-15 -19.657 2.52475)
(-5.02169e-15 -19.6786 3.00721)
(2.63575e-15 -24.1639 1.46363)
(4.71915e-16 -17.3802 -0.488021)
(1.36944e-15 -17.2433 -2.1962)
(2.75297e-15 -20.4018 -6.16955)
(2.48045e-15 -15.2662 -4.6602)
(2.80903e-15 -16.2696 -5.65322)
(2.74114e-15 -14.2661 -5.67198)
(3.36445e-15 -18.5841 -7.82619)
(2.50981e-15 -13.2734 -5.00089)
(2.73905e-15 -12.9021 -5.23959)
(4.24205e-15 -15.5794 -6.87553)
(3.9325e-15 -11.5612 -4.38895)
(4.49965e-15 -12.3125 -4.51428)
(4.64215e-15 -10.808 -4.24648)
(5.45988e-15 -14.1166 -5.03629)
(2.81272e-15 -9.99278 -2.4205)
(2.43355e-15 -10.9032 -2.19558)
(1.81234e-15 -9.63515 -1.7438)
(1.52952e-15 -12.7509 -1.52825)
(1.05496e-15 -9.34304 0.265311)
(6.47239e-15 -56.8258 14.8618)
(3.36089e-14 -34.2414 40.8968)
(6.46859e-14 -14.5989 51.7582)
(8.71469e-14 41.1762 40.6387)
(6.21739e-14 45.2875 8.9775)
(4.50912e-14 28.7552 -13.5958)
(3.13462e-14 15.4896 -20.7532)
(2.22173e-14 6.74664 -19.9092)
(1.66569e-14 5.08713 -16.9164)
(5.75862e-15 -2.10373 -10.4027)
(-1.93306e-15 -11.7995 2.94305)
(-2.68902e-15 -12.8467 7.25536)
(-2.38417e-15 -9.40077 8.82514)
(-2.74329e-15 -3.69974 6.45385)
(-2.39573e-15 -1.86098 8.43623)
(-1.07585e-15 1.57169 11.8445)
(-3.63991e-16 6.31754 13.5551)
(-7.9935e-16 16.6913 -14.316)
(-2.00689e-16 -16.3932 -6.47487)
(7.98701e-15 -63.8068 9.22305)
(4.07354e-14 -37.2461 44.1803)
(8.04911e-14 -15.2472 52.0858)
(1.09999e-13 45.9725 37.8316)
(8.16755e-14 50.8351 6.60958)
(5.92514e-14 31.8047 -17.0264)
(4.17589e-14 16.1531 -24.3584)
(2.99577e-14 6.21959 -23.2298)
(2.19876e-14 3.91895 -19.3817)
(5.33513e-15 -4.13382 -9.46037)
(-2.17353e-15 -13.4568 2.38039)
(-2.63074e-15 -13.404 6.23117)
(-2.3783e-15 -9.3534 7.55066)
(-2.95797e-15 -3.7546 5.98834)
(-1.79206e-15 -2.65095 10.3047)
(-1.64633e-16 1.35262 14.8313)
(5.9102e-16 8.98101 13.6076)
(2.57881e-16 19.0351 -17.3317)
(1.04376e-17 -17.768 -8.7827)
(9.49327e-15 -70.5788 3.6514)
(4.88071e-14 -40.6582 47.2441)
(9.91902e-14 -15.3181 50.5127)
(1.34631e-13 51.0835 32.2066)
(1.03939e-13 56.3613 2.18816)
(7.62719e-14 34.8999 -21.4898)
(5.49545e-14 16.7921 -28.5032)
(4.0491e-14 5.56093 -27.0098)
(2.93059e-14 2.41651 -22.209)
(5.34422e-15 -6.40394 -8.94729)
(-2.31629e-15 -14.9306 1.6359)
(-2.50966e-15 -13.9109 5.17292)
(-2.44679e-15 -9.39823 6.45018)
(-3.03121e-15 -4.16205 6.10837)
(-1.0388e-15 -3.75137 12.5347)
(9.00086e-16 1.34763 17.4222)
(1.67647e-15 12.2861 13.1907)
(1.54941e-15 21.5746 -20.0876)
(3.68769e-16 -19.1972 -11.5323)
(1.09841e-14 -77.202 -1.79566)
(5.78689e-14 -44.1748 49.8898)
(1.20341e-13 -14.5779 46.8688)
(1.58822e-13 56.5698 24.0756)
(1.27257e-13 61.7068 -4.38457)
(9.53802e-14 37.8809 -27.2251)
(7.08142e-14 17.327 -33.3911)
(5.41703e-14 4.6976 -31.2826)
(3.74977e-14 0.592055 -24.758)
(5.31592e-15 -8.92594 -8.59634)
(-2.39483e-15 -16.2577 0.786947)
(-2.36062e-15 -14.4012 4.12071)
(-2.55624e-15 -9.58723 5.56268)
(-2.87194e-15 -4.88095 6.61749)
(-1.76468e-16 -5.06169 14.7684)
(2.13137e-15 1.56267 19.4671)
(2.9542e-15 16.095 12.8791)
(3.08392e-15 24.4017 -22.4262)
(8.02122e-16 -20.8693 -14.8882)
(1.24395e-14 -83.7339 -7.36467)
(6.78716e-14 -47.5967 52.1024)
(1.43588e-13 -12.9185 41.2349)
(1.80984e-13 62.4888 14.1417)
(1.49765e-13 66.7901 -12.8041)
(1.15163e-13 40.6208 -34.2145)
(8.86652e-14 17.6827 -39.177)
(7.09259e-14 3.44184 -36.1609)
(4.35241e-14 -1.72969 -26.1154)
(4.72611e-15 -11.5845 -8.24915)
(-2.442e-15 -17.4465 -0.10443)
(-2.20301e-15 -14.8999 3.10897)
(-2.6618e-15 -9.95034 4.87242)
(-2.48896e-15 -5.89899 7.28044)
(7.78689e-16 -6.50038 16.7751)
(3.51206e-15 1.96381 21.0749)
(4.3413e-15 20.329 12.8615)
(4.75766e-15 27.6511 -23.7842)
(1.34982e-15 -22.6573 -19.225)
(1.38147e-14 -90.1021 -13.3353)
(7.86835e-14 -50.6437 54.0096)
(1.69437e-13 -10.2131 34.1893)
(2.00958e-13 68.6528 3.07206)
(1.70187e-13 71.6046 -22.4892)
(1.3371e-13 43.0564 -42.0321)
(1.07045e-13 17.833 -45.7141)
(8.91792e-14 1.67769 -41.4644)
(4.80003e-14 -4.61238 -26.7341)
(3.92843e-15 -14.2292 -8.06696)
(-2.49703e-15 -18.5118 -0.989193)
(-2.0477e-15 -15.4285 2.16057)
(-2.73025e-15 -10.4881 4.34897)
(-1.93467e-15 -7.12972 7.96751)
(1.80801e-15 -7.98118 18.4122)
(4.90902e-15 2.47584 22.4013)
(5.57869e-15 24.8132 13.1884)
(6.34481e-15 31.395 -23.5584)
(1.97774e-15 -25.3315 -23.4481)
(1.50057e-14 -96.1584 -19.9419)
(9.05051e-14 -53.3431 55.9026)
(2.01923e-13 -7.08688 26.9039)
(2.20057e-13 75.2422 -8.73867)
(1.88104e-13 76.0653 -32.8094)
(1.48666e-13 45.1534 -49.7489)
(1.23454e-13 17.703 -52.3006)
(1.03554e-13 -0.645699 -45.9085)
(5.03599e-14 -8.00907 -26.6305)
(3.1092e-15 -16.8081 -8.02959)
(-2.57777e-15 -19.4796 -1.82643)
(-1.90072e-15 -15.9903 1.2881)
(-2.75994e-15 -11.1827 3.8903)
(-1.33749e-15 -8.54536 8.2931)
(2.85007e-15 -9.50043 19.5937)
(6.00911e-15 3.03999 23.4455)
(6.29146e-15 29.3426 13.6266)
(7.63008e-15 35.5641 -21.4001)
(2.64334e-15 -28.8946 -26.901)
(1.58593e-14 -101.996 -27.3254)
(1.03131e-13 -55.2661 58.3849)
(2.46346e-13 -2.57399 20.5947)
(2.38639e-13 83.218 -20.9979)
(2.03099e-13 80.0754 -42.9714)
(1.56938e-13 46.8231 -55.8233)
(1.33754e-13 17.1665 -57.3529)
(1.10375e-13 -3.71499 -48.1762)
(4.91953e-14 -11.8137 -25.4021)
(2.18045e-15 -19.2547 -7.97161)
(-2.66985e-15 -20.3734 -2.57721)
(-1.77624e-15 -16.5929 0.491516)
(-2.72909e-15 -11.9832 3.53725)
(-6.12244e-16 -10.0955 8.69009)
(3.8053e-15 -11.051 20.2099)
(6.32619e-15 3.61511 23.5935)
(6.18006e-15 33.6817 13.5657)
(8.61114e-15 40.2008 -17.4067)
(2.95061e-15 -32.7069 -30.6192)
(1.66877e-14 -107.299 -35.5287)
(1.13086e-13 -56.4678 61.9009)
(2.54295e-13 -1.46522 17.0914)
(2.56541e-13 92.7816 -33.4055)
(2.14313e-13 83.4409 -52.1849)
(1.54513e-13 47.8563 -58.0907)
(1.32052e-13 16.2864 -58.1961)
(1.11387e-13 -7.28446 -48.3988)
(4.60796e-14 -15.7438 -23.5842)
(1.25851e-15 -21.4355 -7.86616)
(-2.76958e-15 -21.1655 -3.19297)
(-1.67999e-15 -17.216 -0.239866)
(-2.63987e-15 -12.9042 3.23249)
(2.00932e-16 -11.6866 9.11493)
(4.49983e-15 -12.4215 19.9959)
(5.33438e-15 4.24135 21.2415)
(5.25469e-15 37.5404 12.3884)
(9.52527e-15 45.0277 -12.0771)
(2.70793e-15 -36.2646 -31.1196)
(1.74036e-14 -112.801 -44.62)
(1.18795e-13 -58.3638 65.3421)
(2.30952e-13 5.24396 10.83)
(2.74577e-13 101.552 -45.9216)
(2.20082e-13 85.5048 -59.5798)
(1.37801e-13 47.8216 -54.308)
(1.12169e-13 15.3504 -51.4679)
(1.06084e-13 -10.8391 -45.9495)
(4.25767e-14 -19.6471 -21.7358)
(5.82098e-16 -23.4168 -7.84857)
(-2.85839e-15 -21.9303 -3.64631)
(-1.62232e-15 -17.8947 -0.909827)
(-2.5767e-15 -13.9549 2.71833)
(6.43969e-16 -13.2655 8.00012)
(4.69296e-15 -13.3681 18.3536)
(2.82701e-15 4.84406 14.5438)
(3.93942e-15 40.4307 10.0665)
(1.06641e-14 49.4575 -5.69166)
(1.91426e-15 -39.8306 -28.5155)
(1.75664e-14 -116.704 -55.1077)
(1.21812e-13 -61.9641 68.7626)
(2.42963e-13 15.7064 -1.92444)
(2.94094e-13 108.998 -58.9327)
(2.19776e-13 85.5495 -64.2706)
(1.07578e-13 45.9737 -43.8202)
(7.30355e-14 14.6289 -35.489)
(9.44439e-14 -13.4428 -40.4261)
(3.94654e-14 -23.0584 -20.166)
(2.82581e-16 -25.0665 -8.14004)
(-2.89428e-15 -22.5265 -4.01402)
(-1.61798e-15 -18.446 -1.48027)
(-2.57277e-15 -14.7547 2.073)
(5.09151e-16 -14.6023 4.76903)
(4.44154e-15 -13.6631 15.2979)
(-2.86152e-16 5.0244 4.91163)
(2.98586e-15 41.6887 7.64058)
(1.21414e-14 53.3289 1.65246)
(9.08626e-16 -42.9926 -26.3067)
(1.69792e-14 -122.655 -66.9445)
(1.22481e-13 -65.2252 71.8372)
(2.65899e-13 27.932 -18.7499)
(3.15266e-13 115.036 -72.1495)
(2.15246e-13 82.8618 -66.3523)
(7.26423e-14 41.7118 -29.6756)
(3.08334e-14 14.3668 -16.2564)
(7.98016e-14 -14.4053 -32.9499)
(3.67116e-14 -25.9584 -18.8598)
(3.11408e-16 -26.8003 -8.8948)
(-2.85207e-15 -23.3922 -4.5741)
(-1.66061e-15 -19.1996 -1.99639)
(-2.56595e-15 -15.3791 1.42286)
(2.78505e-16 -15.7882 1.43202)
(4.15739e-15 -13.4051 11.9412)
(-2.02957e-15 5.09011 -1.51724)
(3.13555e-15 41.283 6.885)
(1.37964e-14 56.9522 9.98997)
(2.04484e-16 -43.9168 -26.239)
(1.58834e-14 -121.563 -81.1386)
(1.21111e-13 -68.5565 77.0304)
(2.96371e-13 42.334 -39.1082)
(3.38188e-13 119.262 -85.5038)
(2.09205e-13 77.3686 -66.8571)
(4.60308e-14 35.7524 -17.6665)
(1.27561e-14 14.9931 -6.19654)
(6.71513e-14 -13.4063 -25.9663)
(3.3836e-14 -27.5212 -17.7403)
(5.11099e-16 -27.7341 -10.0675)
(-2.74922e-15 -23.6884 -5.58009)
(-1.69218e-15 -19.4209 -2.5582)
(-2.4814e-15 -15.3458 0.818485)
(5.45903e-16 -16.4805 0.416922)
(4.00011e-15 -12.6065 8.79272)
(-1.89255e-15 5.33591 -2.80009)
(4.25387e-15 39.7954 8.14224)
(1.53953e-14 60.6829 18.9346)
(1.34694e-16 -44.3788 -26.8571)
(1.39111e-14 -134.515 -95.4086)
(1.15494e-13 -69.3089 81.254)
(3.3444e-13 58.4973 -62.9009)
(3.62461e-13 121.2 -98.8376)
(2.02601e-13 69.4985 -66.4316)
(3.17863e-14 29.5589 -10.472)
(1.47623e-14 15.9898 -4.71048)
(5.76069e-14 -12.1922 -20.2151)
(3.03878e-14 -29.3475 -16.4566)
(7.34392e-16 -29.7862 -11.3749)
(-2.60158e-15 -25.4932 -7.17235)
(-1.64407e-15 -20.9649 -3.55064)
(-2.29523e-15 -16.4466 0.147292)
(1.26384e-15 -17.5309 1.48931)
(4.02219e-15 -12.2527 5.559)
(-1.18034e-15 4.62186 -4.07151)
(5.07847e-15 37.4102 8.18175)
(1.67693e-14 64.5139 27.6849)
(8.57414e-16 -41.3092 -30.0988)
(1.38822e-14 -111.877 -113.587)
(1.0637e-13 -74.083 90.6906)
(3.82314e-13 76.3257 -91.1804)
(3.86153e-13 120.507 -111.332)
(1.91233e-13 59.673 -63.593)
(2.11296e-14 23.3988 -5.01752)
(1.38746e-14 16.9577 -1.0239)
(5.0177e-14 -10.2873 -15.874)
(2.67149e-14 -28.2729 -15.3946)
(9.93073e-16 -28.379 -12.5974)
(-2.34997e-15 -23.9657 -8.88636)
(-1.47278e-15 -19.7268 -4.675)
(-2.07352e-15 -15.4456 -0.242571)
(1.95961e-15 -16.991 2.96096)
(4.11073e-15 -10.3044 2.12374)
(-5.91602e-16 3.32671 -7.11678)
(4.23717e-15 33.9036 2.24377)
(1.78724e-14 68.9436 35.4803)
(1.90835e-15 -41.2928 -35.6741)
(3.85652e-15 -170.489 -120.782)
(8.77048e-14 -64.0673 88.7041)
(4.44164e-13 97.1892 -125.932)
(4.03816e-13 117.09 -120.214)
(1.66304e-13 48.3467 -54.9178)
(8.73253e-15 17.3276 0.76162)
(8.72804e-15 18.4011 5.38241)
(4.43206e-14 -10.2624 -11.188)
(2.30268e-14 -31.91 -13.7528)
(1.26106e-15 -33.9405 -13.3736)
(-1.93894e-15 -30.1783 -10.7093)
(-1.21316e-15 -25.3252 -6.43161)
(-1.98053e-15 -20.2173 -1.49357)
(2.17833e-15 -19.2532 2.95122)
(4.30543e-15 -11.0994 -2.33269)
(-3.68964e-16 3.42342 -9.73336)
(1.50175e-15 29.4273 -11.1033)
(1.87514e-14 74.5501 41.5368)
(2.8428e-15 -29.5375 -38.2355)
(4.03171e-14 -35.0868 -161.481)
(7.73657e-14 -86.3311 83.9879)
(5.26644e-13 119.657 -170.694)
(4.02722e-13 108.328 -119.844)
(1.19234e-13 35.4476 -37.5074)
(-4.7127e-16 11.481 3.73815)
(5.19446e-15 18.7985 9.09385)
(3.93079e-14 -4.78861 -9.47906)
(2.00311e-14 -23.2376 -13.7855)
(1.75025e-15 -22.3651 -14.2076)
(-1.26728e-15 -18.2457 -11.344)
(-8.02627e-16 -15.4136 -6.40795)
(-1.87115e-15 -12.2009 -1.07894)
(2.04474e-15 -13.8118 3.1253)
(4.83058e-15 -3.79188 -6.08881)
(-8.83949e-16 4.39113 -9.97562)
(-1.95415e-15 24.2308 -28.3314)
(1.95175e-14 75.5911 46.519)
(3.42281e-15 -44.8878 -47.3281)
(-1.47095e-13 -348.431 -72.59)
(-1.89458e-14 -15.5123 114.127)
(6.26207e-13 132.863 -222.722)
(3.58355e-13 86.7352 -98.4239)
(5.12211e-14 20.703 -11.5188)
(-1.53166e-15 6.97483 0.843209)
(4.05059e-15 18.0497 8.9451)
(3.46077e-14 -10.1083 -2.80337)
(1.65151e-14 -41.3402 -10.7272)
(1.72495e-15 -49.8896 -14.1347)
(-7.33346e-16 -48.3773 -13.0605)
(-7.34318e-16 -41.509 -9.20234)
(-2.40555e-15 -33.9864 -5.44512)
(6.19093e-16 -25.5392 -1.41861)
(4.36468e-15 -15.8125 -11.8792)
(-2.48984e-15 3.25447 -11.5078)
(-4.47235e-15 16.6354 -48.3451)
(2.0203e-14 68.9237 50.5028)
(4.96632e-15 7.06926 -51.1294)
(6.89098e-13 403.032 -460.994)
(3.45797e-13 -207.156 -120.029)
(6.97296e-13 127.118 -262.224)
(2.34299e-13 72.9524 -38.4943)
(-6.24897e-15 15.2669 14.9405)
(1.69677e-16 11.6631 -2.32399)
(3.66912e-15 24.5615 7.16468)
(2.67887e-14 12.067 -11.035)
(1.41511e-14 2.62637 -13.8015)
(2.79497e-15 14.712 -12.1934)
(4.17621e-16 20.695 -7.1005)
(5.42229e-16 17.3118 -0.229136)
(-2.84158e-16 14.6819 6.16095)
(1.55606e-15 5.56044 6.23826)
(4.85054e-15 19.3951 -10.4823)
(-4.47697e-15 19.5981 -16.2664)
(-4.56269e-15 11.0709 -73.2614)
(2.00169e-14 87.4447 53.9102)
(3.59623e-15 -112.046 -53.4847)
(-5.64837e-12 -1029.78 2182.16)
(8.04838e-13 302.112 -410.862)
(5.82259e-13 251.372 -220.522)
(5.99473e-14 58.5662 33.0047)
(-1.52724e-15 22.1119 12.3244)
(3.15439e-17 15.5718 -0.839391)
(3.50732e-15 23.755 5.32604)
(3.46642e-14 -26.2205 37.1814)
(1.63799e-14 -87.7151 -14.8629)
(9.35524e-16 -121.761 -32.8689)
(-5.01811e-16 -126.52 -32.7395)
(-3.12965e-15 -108.902 -28.2198)
(-1.00076e-14 -88.4679 -35.4142)
(-9.7314e-15 -56.4508 -31.3621)
(-1.44877e-14 -43.6507 -66.165)
(-4.52783e-15 13.9139 -18.7149)
(-1.19371e-15 10.7426 -66.1502)
(1.48246e-14 110.862 41.4598)
(3.34279e-14 162.648 154.443)
(1.49802e-14 11.4039 22.2984)
(3.88308e-14 12.7146 23.1965)
(3.02397e-14 11.9048 23.5798)
(3.47128e-14 11.3558 22.9106)
(3.63903e-14 10.6857 22.5838)
(3.29373e-14 10.1821 22.0924)
(2.85424e-14 9.66484 21.6439)
(2.99923e-14 9.2375 21.154)
(2.95548e-14 8.83316 20.6634)
(2.92331e-14 8.38892 20.013)
(2.88731e-14 7.94139 19.1019)
(2.90251e-14 7.63471 18.4441)
(2.93447e-14 7.72748 18.2626)
(2.92892e-14 7.77477 18.1479)
(3.03502e-14 8.03521 18.3551)
(3.31784e-14 7.35603 16.9739)
(3.32586e-14 3.02639 8.81721)
(1.51159e-14 -5.75835 -8.54527)
(-1.04735e-14 -9.7658 -15.0691)
(-1.47546e-14 -7.75192 -9.85766)
(3.86631e-15 6.01395 11.6637)
(3.07187e-14 9.40758 17.3606)
(2.14694e-14 8.46301 16.6069)
(2.53003e-14 8.20703 16.7319)
(3.00955e-14 7.98591 17.0081)
(3.23165e-14 7.77559 17.2271)
(2.42642e-14 7.55659 17.4069)
(2.6718e-14 7.35141 17.5607)
(2.57125e-14 7.1599 17.7032)
(2.54645e-14 6.99744 17.8414)
(2.47735e-14 6.85726 17.9432)
(2.56875e-14 6.72296 17.9713)
(2.60914e-14 6.5824 17.9747)
(2.56086e-14 6.5175 18.0802)
(2.55845e-14 6.592 18.4587)
(2.71673e-14 6.62718 18.8241)
(3.18228e-14 5.58075 16.9257)
(3.57978e-14 1.84909 8.56731)
(2.7557e-14 -3.52503 -4.4014)
(1.56703e-14 -3.81116 -4.64803)
(-4.40216e-16 6.3099 11.4975)
(1.07193e-14 9.8917 17.2699)
(7.26233e-15 9.34201 16.6982)
(6.751e-15 9.13477 16.3702)
(9.92864e-15 9.00417 16.4076)
(2.09986e-14 8.90572 16.4087)
(1.04209e-14 8.76317 16.4165)
(1.03974e-14 8.62724 16.4071)
(1.10356e-14 8.46666 16.3942)
(1.09426e-14 8.30086 16.3671)
(1.03414e-14 8.12145 16.34)
(1.11839e-14 7.94309 16.3156)
(1.16572e-14 7.75897 16.2834)
(1.19511e-14 7.55054 16.2148)
(1.17331e-14 7.34333 16.1656)
(1.10352e-14 7.29645 16.4758)
(1.04817e-14 7.56408 17.3628)
(1.32599e-14 7.5122 17.0673)
(1.80494e-14 5.21481 11.5176)
(1.44812e-14 0.224222 1.02607)
(8.11918e-17 5.82327 10.2162)
(-2.55804e-15 9.48526 16.4613)
(-1.78464e-15 9.00658 15.7976)
(-1.86584e-15 8.82687 15.5029)
(-1.03712e-15 8.78299 15.5462)
(1.44862e-14 8.76611 15.57)
(1.06332e-14 8.72018 15.5949)
(1.01928e-14 8.68689 15.6063)
(1.0733e-14 8.63869 15.6181)
(1.05669e-14 8.59605 15.6197)
(1.06564e-14 8.54467 15.616)
(1.07873e-14 8.49207 15.6014)
(1.0637e-14 8.4348 15.5789)
(1.06568e-14 8.37515 15.5521)
(1.08345e-14 8.31006 15.4975)
(1.05949e-14 8.20525 15.3955)
(9.99879e-15 8.19461 15.4984)
(1.03727e-14 8.51131 16.3262)
(1.28989e-14 8.13831 15.4943)
(1.8671e-14 3.52066 6.58875)
(-2.23148e-17 5.95713 10.3969)
(6.55796e-16 9.54779 16.4505)
(4.61961e-16 9.08481 15.7862)
(4.9142e-16 8.91829 15.455)
(2.14086e-16 8.88438 15.4739)
(-3.33943e-15 8.88587 15.4754)
(-2.56268e-15 8.8581 15.4848)
(-2.44818e-15 8.84709 15.4833)
(-2.57153e-15 8.82183 15.4869)
(-2.59563e-15 8.80454 15.4839)
(-2.45759e-15 8.78034 15.4817)
(-2.58639e-15 8.75899 15.4757)
(-2.59682e-15 8.73698 15.4671)
(-2.66419e-15 8.71231 15.4569)
(-2.70361e-15 8.69386 15.4388)
(-2.62369e-15 8.66243 15.4167)
(-2.47682e-15 8.66999 15.4078)
(-2.59534e-15 8.88586 15.871)
(-3.14607e-15 9.10685 16.2504)
(-3.26823e-15 5.29128 9.3891)
(5.37702e-18 6.05138 10.476)
(-1.68126e-16 9.4885 16.3242)
(-1.21165e-16 9.03212 15.6311)
(-1.27641e-16 8.8729 15.3182)
(-6.52217e-17 8.8532 15.3367)
(8.19439e-16 8.86309 15.3407)
(6.48949e-16 8.84814 15.3511)
(6.47379e-16 8.84899 15.3523)
(6.36486e-16 8.83754 15.3591)
(6.83171e-16 8.83444 15.3608)
(6.09247e-16 8.8253 15.3645)
(6.34854e-16 8.8194 15.3658)
(6.52278e-16 8.81262 15.366)
(6.9787e-16 8.8039 15.367)
(6.84374e-16 8.80129 15.3626)
(6.73749e-16 8.78484 15.3583)
(6.58096e-16 8.79134 15.3475)
(6.63791e-16 8.95574 15.6841)
(7.79406e-16 9.34067 16.3317)
(7.91665e-16 5.92711 10.3877)
(-1.19195e-18 6.23436 10.7821)
(4.00296e-17 9.4839 16.301)
(2.98087e-17 9.01003 15.5727)
(3.09543e-17 8.86848 15.2884)
(1.93934e-17 8.85227 15.3053)
(-2.02777e-16 8.8633 15.3073)
(-1.65169e-16 8.85145 15.3161)
(-1.68115e-16 8.85463 15.3166)
(-1.59656e-16 8.84661 15.323)
(-1.77429e-16 8.84668 15.325)
(-1.56141e-16 8.84109 15.3297)
(-1.56757e-16 8.8391 15.3325)
(-1.61827e-16 8.83588 15.3356)
(-1.78548e-16 8.83166 15.3397)
(-1.66831e-16 8.83227 15.3403)
(-1.67581e-16 8.8218 15.3433)
(-1.69757e-16 8.82794 15.3351)
(-1.69367e-16 8.95971 15.607)
(-1.86741e-16 9.39756 16.3383)
(-2.00277e-16 6.24936 10.9331)
(2.4709e-19 6.41277 11.0755)
(-8.6307e-18 9.45601 16.254)
(-6.6433e-18 8.96891 15.4938)
(-6.74777e-18 8.84662 15.2458)
(-5.04203e-18 8.83388 15.2636)
(4.783e-17 8.84477 15.2656)
(3.95623e-17 8.83508 15.2742)
(4.01918e-17 8.83911 15.2754)
(3.84089e-17 8.83304 15.2821)
(4.23264e-17 8.83442 15.2848)
(3.79154e-17 8.8305 15.2904)
(3.69905e-17 8.83027 15.2942)
(3.78498e-17 8.82827 15.2989)
(4.17824e-17 8.82618 15.3041)
(3.77645e-17 8.82735 15.3071)
(3.86095e-17 8.81995 15.3126)
(4.02968e-17 8.8244 15.306)
(4.02204e-17 8.93406 15.5347)
(4.1826e-17 9.39151 16.3009)
(4.70191e-17 6.47007 11.3091)
(-4.96822e-20 6.60048 11.3947)
(1.7042e-18 9.42932 16.2108)
(1.35105e-18 8.93354 15.431)
(1.33664e-18 8.8305 15.218)
(1.15166e-18 8.81958 15.2359)
(-1.04462e-17 8.82953 15.2373)
(-8.62656e-18 8.82086 15.2453)
(-8.71812e-18 8.82471 15.2467)
(-8.49628e-18 8.81944 15.253)
(-9.07028e-18 8.82098 15.2558)
(-8.3665e-18 8.81758 15.2614)
(-8.04942e-18 8.81788 15.2652)
(-8.17107e-18 8.81597 15.2703)
(-8.79312e-18 8.81491 15.2755)
(-7.86854e-18 8.81556 15.2795)
(-8.16278e-18 8.81015 15.2853)
(-8.62468e-18 8.81284 15.2797)
(-8.60166e-18 8.9045 15.4724)
(-8.68099e-18 9.36764 16.2515)
(-9.96671e-18 6.66377 11.6422)
(1.00661e-20 6.78592 11.7093)
(-3.16802e-19 9.39443 16.1554)
(-2.58482e-19 8.89783 15.3688)
(-2.50155e-19 8.81289 15.1896)
(-2.4075e-19 8.80346 15.2072)
(2.11045e-18 8.8124 15.2085)
(1.72727e-18 8.80464 15.216)
(1.73831e-18 8.80815 15.2176)
(1.71867e-18 8.80354 15.2237)
(1.76932e-18 8.80501 15.2266)
(1.68421e-18 8.80198 15.2322)
(1.61564e-18 8.80256 15.236)
(1.63895e-18 8.80059 15.2413)
(1.70033e-18 8.8003 15.2462)
(1.53671e-18 8.80025 15.2508)
(1.60761e-18 8.79661 15.2565)
(1.68438e-18 8.79768 15.2521)
(1.67669e-18 8.87375 15.4125)
(1.69245e-18 9.33332 16.19)
(1.93487e-18 6.84746 11.9578)
(-2.03668e-21 6.97125 12.0248)
(5.65616e-20 9.35485 16.092)
(4.77607e-20 8.86504 15.3123)
(4.57597e-20 8.7968 15.1643)
(4.78332e-20 8.78841 15.1812)
(-4.02359e-19 8.7963 15.1822)
(-3.27714e-19 8.78931 15.1892)
(-3.27222e-19 8.79237 15.191)
(-3.24375e-19 8.7883 15.1967)
(-3.24341e-19 8.78955 15.1997)
(-3.17829e-19 8.78681 15.2051)
(-3.06629e-19 8.78748 15.2088)
(-3.12073e-19 8.7854 15.2142)
(-3.13731e-19 8.7857 15.2186)
(-2.90958e-19 8.7849 15.2238)
(-3.02087e-19 8.78284 15.2291)
(-3.10351e-19 8.78246 15.226)
(-3.08629e-19 8.8447 15.3569)
(-3.17782e-19 9.29269 16.1192)
(-3.53977e-19 7.02785 12.2679)
(3.8212e-22 7.1551 12.3377)
(-9.52191e-21 9.30935 16.0186)
(-8.40314e-21 8.83433 15.2595)
(-8.089e-21 8.78118 15.14)
(-9.00319e-21 8.77358 15.1557)
(7.36862e-20 8.7805 15.1567)
(6.03326e-20 8.77427 15.1632)
(5.91639e-20 8.77685 15.1652)
(5.81554e-20 8.77332 15.1706)
(5.73133e-20 8.77431 15.1737)
(5.74583e-20 8.77188 15.1788)
(5.61809e-20 8.77256 15.1824)
(5.7122e-20 8.77042 15.1878)
(5.65035e-20 8.77123 15.1919)
(5.43573e-20 8.76973 15.1975)
(5.46744e-20 8.76915 15.2022)
(5.53401e-20 8.76746 15.2008)
(5.49986e-20 8.81758 15.3051)
(5.80717e-20 9.24622 16.039)
(6.19392e-20 7.20638 12.5747)
(-5.76648e-23 7.33783 12.6487)
(1.37877e-21 9.25844 15.9358)
(1.29269e-21 8.80614 15.211)
(1.27247e-21 8.7664 15.1171)
(1.49876e-21 8.75939 15.1315)
(-1.27376e-20 8.7654 15.1324)
(-1.05689e-20 8.75988 15.1385)
(-1.00425e-20 8.76199 15.1407)
(-9.71654e-21 8.759 15.1457)
(-9.60645e-21 8.75967 15.1488)
(-9.75552e-21 8.75759 15.1537)
(-9.75926e-21 8.75819 15.1572)
(-9.80289e-21 8.75608 15.1626)
(-9.67125e-21 8.75727 15.1663)
(-9.68906e-21 8.75515 15.1723)
(-9.19946e-21 8.75593 15.1764)
(-9.343e-21 8.75307 15.1768)
(-9.25135e-21 8.79276 15.2572)
(-9.96567e-21 9.19432 15.9498)
(-1.00662e-20 7.38371 12.8792)
(4.09078e-24 7.51936 12.9576)
(-1.21791e-22 9.20195 15.8434)
(-1.31703e-22 8.78034 15.1667)
(-1.39834e-22 8.75225 15.0953)
(-1.79964e-22 8.74568 15.1082)
(1.90567e-21 8.75088 15.1091)
(1.60702e-21 8.74605 15.1147)
(1.44913e-21 8.7477 15.1171)
(1.36928e-21 8.74524 15.1217)
(1.39106e-21 8.74558 15.125)
(1.40485e-21 8.74389 15.1296)
(1.47239e-21 8.74434 15.1331)
(1.43423e-21 8.74237 15.1384)
(1.41666e-21 8.7438 15.1418)
(1.48278e-21 8.74121 15.148)
(1.2729e-21 8.74319 15.1515)
(1.34038e-21 8.73926 15.1537)
(1.30947e-21 8.77027 15.2134)
(1.43057e-21 9.13699 15.8513)
(1.355e-21 7.56001 13.1816)
(1.38086e-24 7.6999 13.2646)
(-1.62953e-23 9.13994 15.7414)
(-9.58352e-24 8.75697 15.1266)
(-5.31357e-24 8.7388 15.0746)
(-1.43529e-24 8.73254 15.0858)
(-1.81327e-22 8.73699 15.0869)
(-1.56603e-22 8.73285 15.092)
(-1.20104e-22 8.73401 15.0945)
(-1.05305e-22 8.73208 15.0988)
(-1.23368e-22 8.73209 15.1021)
(-1.13447e-22 8.7308 15.1064)
(-1.43183e-22 8.73104 15.11)
(-1.25076e-22 8.72931 15.115)
(-1.2235e-22 8.7308 15.1183)
(-1.40118e-22 8.72795 15.1246)
(-8.19009e-23 8.73092 15.1275)
(-1.06484e-22 8.72604 15.1317)
(-9.69653e-23 8.75011 15.1734)
(-1.08402e-22 9.07425 15.7438)
(-8.9408e-23 7.73532 13.4819)
(-8.15733e-25 7.87977 13.5703)
(1.27114e-23 9.07251 15.6298)
(1.06568e-23 8.73615 15.0909)
(9.38852e-24 8.72619 15.055)
(9.96042e-24 8.72015 15.0647)
(-1.87696e-23 8.7239 15.0659)
(-1.49817e-23 8.72047 15.0705)
(-2.17777e-23 8.72112 15.0732)
(-2.36418e-23 8.71968 15.077)
(-1.63242e-23 8.71939 15.0804)
(-2.26275e-23 8.71844 15.0844)
(-1.34403e-23 8.71842 15.088)
(-1.89948e-23 8.71703 15.0927)
(-1.94329e-23 8.71833 15.096)
(-1.65491e-23 8.71549 15.1022)
(-2.93799e-23 8.71912 15.1047)
(-2.24953e-23 8.71343 15.1105)
(-2.47823e-23 8.73228 15.1373)
(-2.66593e-23 9.00616 15.6274)
(-2.71437e-23 7.90969 13.7799)
(2.78569e-25 8.05938 13.8752)
(-4.49102e-24 8.99948 15.5081)
(-3.98668e-24 8.7178 15.0597)
(-3.70477e-24 8.71456 15.0366)
(-4.13496e-24 8.70878 15.0447)
(1.69479e-23 8.71174 15.0461)
(1.41638e-23 8.70917 15.0501)
(1.51509e-23 8.7093 15.053)
(1.52197e-23 8.70831 15.0565)
(1.28412e-23 8.70782 15.0599)
(1.51296e-23 8.70713 15.0636)
(1.28815e-23 8.70687 15.0672)
(1.43275e-23 8.70589 15.0715)
(1.42938e-23 8.70674 15.0749)
(1.40429e-23 8.70429 15.0809)
(1.6401e-23 8.70801 15.0831)
(1.48221e-23 8.70177 15.0904)
(1.51701e-23 8.71699 15.1053)
(1.66952e-23 8.93311 15.5027)
(1.52578e-23 8.08318 14.0753)
(-7.76418e-26 8.23966 14.1804)
(1.25717e-24 8.9206 15.3748)
(1.1444e-24 8.70166 15.0324)
(1.09668e-24 8.70362 15.0189)
(1.24169e-24 8.69851 15.0253)
(-6.16096e-24 8.70035 15.0269)
(-5.18233e-24 8.69873 15.0302)
(-5.26155e-24 8.6984 15.033)
(-5.23153e-24 8.69771 15.0361)
(-4.55664e-24 8.69713 15.0394)
(-5.18755e-24 8.69658 15.0428)
(-4.75223e-24 8.69618 15.0464)
(-5.10082e-24 8.69557 15.0504)
(-5.03344e-24 8.69587 15.054)
(-5.04914e-24 8.69427 15.0594)
(-5.41163e-24 8.69727 15.062)
(-5.10542e-24 8.6913 15.0701)
(-5.09238e-24 8.70426 15.0762)
(-5.68587e-24 8.8556 15.3705)
(-4.94649e-24 8.25515 14.3662)
(1.9373e-26 8.42319 14.4926)
(-3.12827e-25 8.83808 15.2311)
(-2.87961e-25 8.69069 15.012)
(-2.83123e-25 8.69522 15.0051)
(-3.21056e-25 8.69182 15.0089)
(1.76649e-24 8.69213 15.0105)
(1.49118e-24 8.69115 15.0126)
(1.47427e-24 8.69036 15.0148)
(1.47184e-24 8.68952 15.0171)
(1.2986e-24 8.68863 15.0197)
(1.44041e-24 8.68776 15.0224)
(1.38123e-24 8.68689 15.0254)
(1.46305e-24 8.68605 15.0287)
(1.42885e-24 8.68544 15.0322)
(1.43867e-24 8.68434 15.0364)
(1.48348e-24 8.68532 15.0397)
(1.43162e-24 8.68104 15.0469)
(1.39689e-24 8.69108 15.0483)
(1.58378e-24 8.77265 15.2324)
(1.32452e-24 8.42326 14.6449)
(-3.70248e-27 8.61058 14.8239)
(5.91877e-26 8.75271 15.0801)
(5.46847e-26 8.69281 15.0032)
(5.48652e-26 8.695 15.0014)
(6.22743e-26 8.69442 15.0021)
(-3.62786e-25 8.69407 15.0026)
(-3.09918e-25 8.69366 15.0031)
(-2.99593e-25 8.69305 15.0038)
(-3.02118e-25 8.69232 15.0046)
(-2.70133e-25 8.69143 15.0056)
(-2.91369e-25 8.69038 15.0067)
(-2.89133e-25 8.68914 15.008)
(-3.04809e-25 8.68772 15.0095)
(-2.9506e-25 8.68605 15.0113)
(-2.96278e-25 8.68417 15.0133)
(-3.00531e-25 8.68208 15.0156)
(-2.93467e-25 8.67892 15.0189)
(-2.80452e-25 8.67938 15.02)
(-3.2316e-25 8.69418 15.0844)
(-2.61336e-25 8.5934 14.8933)
(1.2027e-15 -9.42217 0.332332)
(2.0607e-15 -11.3379 0.979323)
(1.89585e-15 -8.78834 2.04309)
(2.23686e-15 -9.76746 1.90359)
(2.42724e-15 -8.93005 1.92177)
(3.40349e-15 -11.5618 2.8694)
(2.68451e-15 -8.74349 3.48486)
(2.78216e-15 -9.89038 3.58458)
(2.42594e-15 -9.14101 3.97945)
(1.4056e-15 -11.8602 6.4208)
(-1.67252e-15 -9.50076 6.60111)
(-1.99997e-15 -9.97983 7.46702)
(-3.59223e-15 -11.9396 10.9414)
(-3.05723e-15 -9.9094 9.64602)
(-3.52194e-15 -11.4307 10.2027)
(-3.64731e-15 -11.0426 10.3599)
(-4.46279e-15 -14.06 13.6389)
(-2.63923e-15 -11.5066 10.9643)
(-2.29843e-15 -12.437 11.3586)
(8.67782e-16 -15.501 14.3873)
(4.96753e-15 -12.3556 11.8917)
(4.45991e-15 -12.9202 11.9869)
(5.11197e-15 -12.8851 11.5983)
(4.99077e-15 -13.0818 11.2853)
(4.92611e-15 -13.121 10.9778)
(4.60578e-15 -13.1758 10.7751)
(4.13744e-15 -13.1258 10.6804)
(3.7372e-15 -13.1811 10.6303)
(1.2951e-15 -12.8561 8.28976)
(3.07957e-15 -11.4763 10.9148)
(2.82261e-15 -11.6155 10.8114)
(2.78171e-15 -11.3529 10.8134)
(2.62873e-15 -11.2269 10.7312)
(2.51111e-15 -10.9805 10.5874)
(2.37363e-15 -10.7211 10.3703)
(2.09076e-15 -10.3343 10.0323)
(2.82221e-15 -9.90671 9.27037)
(4.012e-15 -9.52575 7.36908)
(7.25985e-15 -5.78507 -4.08061)
(8.78602e-15 -7.25318 2.7368)
(7.30885e-15 -6.4846 0.0297645)
(6.43037e-15 -8.46519 2.77738)
(-9.42626e-16 -7.64614 2.2588)
(-4.29843e-15 -6.7895 1.96746)
(-7.96665e-15 -9.13852 2.59401)
(-5.36623e-15 -6.45664 1.27729)
(-5.59898e-15 -8.38428 0.97043)
(-2.97594e-15 -6.8301 -1.11735)
(-1.8369e-15 -5.72739 -1.6861)
(-1.10713e-15 -6.9303 -3.74459)
(-1.54533e-15 -4.12371 -3.53681)
(5.89465e-15 -4.72222 -6.1052)
(1.02144e-14 -2.72155 -5.52926)
(1.22523e-14 -1.41425 -3.95732)
(2.23267e-14 -1.23139 -5.54184)
(3.1065e-14 0.00408829 -2.27994)
(1.74401e-14 0.788079 -1.57947)
(3.03068e-14 1.02407 1.03161)
(5.13842e-15 0.582577 1.17496)
(9.31167e-14 1.01464 3.58782)
(1.70625e-17 -0.424586 1.99914)
(1.62715e-16 -0.887352 10.4781)
(4.57581e-16 -0.624273 17.8257)
(7.25964e-16 0.180913 18.489)
(8.40806e-16 0.40331 14.7868)
(9.26747e-16 0.664206 9.67901)
(9.89805e-16 0.69467 2.83679)
(9.97034e-16 0.600364 -2.51362)
(8.8808e-16 0.587995 -8.22952)
(6.756e-16 0.514565 -13.4911)
(3.70623e-16 0.144381 -17.1141)
(3.53807e-17 -0.312766 -16.5402)
(-1.81435e-16 -0.422929 -13.0494)
(-3.0649e-16 -0.210122 -9.9526)
(-4.32048e-16 0.156115 -9.13965)
(-6.74091e-16 0.239607 -11.2506)
(-1.15762e-16 -0.398833 -11.9472)
(-3.14255e-15 -0.675098 -7.0865)
(5.89624e-14 -0.23163 2.94335)
(-8.30022e-17 -2.13807 5.7347)
(2.11423e-16 -2.25118 15.0054)
(6.95912e-16 -1.18053 19.2238)
(9.42593e-16 0.769736 17.0856)
(9.97028e-16 1.1577 13.6019)
(1.029e-15 1.89835 8.37164)
(1.15047e-15 1.89284 1.85486)
(1.17463e-15 1.67822 -3.35325)
(1.16766e-15 1.61916 -8.764)
(1.08602e-15 1.32042 -13.6097)
(9.06038e-16 0.481334 -16.6884)
(4.6505e-16 -0.487481 -17.8707)
(-3.03932e-17 -0.848587 -16.6208)
(-4.06019e-16 -0.5928 -14.2759)
(-6.05471e-16 0.0491887 -12.6055)
(-7.84744e-16 0.459688 -12.8452)
(7.44836e-16 -0.576533 -14.7678)
(-5.65087e-15 -1.9989 -14.3575)
(4.69115e-14 -2.08572 -2.19563)
(-2.10517e-16 -4.22766 6.53669)
(1.51633e-16 -3.42138 14.057)
(6.49343e-16 -1.49312 17.7043)
(7.77978e-16 1.44815 16.4168)
(8.29421e-16 1.9617 12.7095)
(8.94205e-16 3.10766 7.72495)
(1.11545e-15 3.0147 1.59953)
(1.10556e-15 2.67676 -2.93776)
(1.14503e-15 2.61684 -8.0483)