/*--------------------------------*- C++ -*----------------------------------*\
| =========                 |                                                 |
| \\      /  F ield         | OpenFOAM: The Open Source CFD Toolbox           |
|  \\    /   O peration     | Version:  4.1                                   |
|   \\  /    A nd           | Web:      www.OpenFOAM.org                      |
|    \\/     M anipulation  |                                                 |
\*---------------------------------------------------------------------------*/
FoamFile
{
    version     2.0;
    format      ascii;
    class       volScalarField;
    location    "6";
    object      epsilon;
}
// * * * * * * * * * * * * * * * * * * * * * * * * * * * * * * * * * * * * * //

dimensions      [0 2 -3 0 0 0 0];

internalField   nonuniform List<scalar> 
1280
(
0.00127658
0.000757793
0.00130053
0.0013592
0.00085494
0.00142455
0.00149938
0.00165886
0.00115069
0.00202657
0.00220696
0.00165268
0.00282526
0.00300551
0.00233337
0.00404849
0.00434107
0.00372536
0.00639718
0.00646159
0.220339
0.874989
0.867796
0.719203
0.618852
0.532631
0.244015
0.253293
0.238226
0.227254
0.220325
0.213258
0.207559
0.20257
0.196986
0.198493
0.200433
0.202213
0.202556
0.232263
0.018994
0.0316552
0.0296826
0.0277595
0.0134875
0.0181994
0.0163097
0.0155802
0.00953722
0.0144073
0.0143588
0.00933379
0.0151413
0.0157744
0.0174992
0.0128794
0.0264343
0.0282111
0.0300399
0.0180035
0.224007
0.196279
0.19625
0.194756
0.192667
0.191405
0.196245
0.200825
0.205999
0.212507
0.218793
0.229129
0.242099
0.233686
0.518492
0.602972
0.70244
0.850508
0.85514
0.215749
0.00586159
0.00582984
0.00340645
0.004033
0.00380439
0.00220183
0.00272841
0.00252641
0.00146329
0.00190953
0.00174153
0.000995226
0.00141974
0.00127293
0.00119623
0.000704274
0.00111383
0.00106534
0.000619918
0.0010442
0.00212046
0.00114231
0.000640303
0.000502498
0.000450554
0.000465036
0.000574248
0.000916032
0.00166204
0.00320827
0.00419278
0.00344578
0.00168987
0.000791577
0.000507008
0.000647641
0.000893744
0.000821063
0.000570021
0.00310159
0.00161857
0.000801485
0.000561515
0.00048735
0.000505674
0.000669147
0.00114248
0.00224185
0.00470453
0.00645221
0.00450734
0.00200606
0.000876857
0.000594497
0.000899329
0.00121969
0.00107308
0.000699662
0.00459197
0.00272254
0.00120736
0.000729012
0.000603966
0.000637689
0.000987891
0.0019671
0.00428816
0.00937889
0.0117172
0.00681713
0.00282856
0.00112799
0.000799947
0.0015493
0.0021596
0.00171238
0.00112522
0.00652374
0.004424
0.00201674
0.00114204
0.000902021
0.000889266
0.00148069
0.00342924
0.00961718
0.0210757
0.0217092
0.0105367
0.00434663
0.00165067
0.00120835
0.00308044
0.0043209
0.00320128
0.00241323
0.00858451
0.00669655
0.00345036
0.00209405
0.0017061
0.0019458
0.00357425
0.00878343
0.022994
0.0381123
0.0391368
0.0176682
0.00578238
0.00261429
0.00221631
0.0067749
0.00925673
0.00664178
0.00531194
0.0106176
0.00959557
0.00606814
0.00411324
0.00342996
0.00363594
0.00677359
0.0168728
0.0401602
0.0543501
0.0552062
0.0332358
0.00991666
0.00479836
0.0051812
0.0188413
0.021302
0.0178979
0.0132352
0.0120404
0.0123583
0.010226
0.00814639
0.00734417
0.00823439
0.0144025
0.0293404
0.0506355
0.0595313
0.0599576
0.0519119
0.0238454
0.0137754
0.0195794
0.0588738
0.0512913
0.0434555
0.0667189
0.012579
0.0136221
0.0136615
0.0138361
0.0136835
0.0160787
0.0236744
0.0346549
0.0453344
0.0499882
0.0560097
0.061903
0.0618102
0.0511244
0.0791685
0.124271
0.0666312
0.0316568
0.0325973
0.012099
0.0138067
0.0144686
0.0162198
0.0178351
0.0204163
0.0243873
0.0283518
0.0298399
0.0343158
0.0427611
0.0563954
0.0707417
0.0760292
0.0639284
0.0331551
0.0231192
0.0226712
0.0250333
0.0113542
0.0126613
0.0131226
0.0148394
0.0167398
0.0188941
0.0198835
0.0200526
0.0236158
0.0293321
0.032512
0.0325899
0.032207
0.0324353
0.0265141
0.0244597
0.0322753
0.0455207
0.0517351
0.0113661
0.0125563
0.012913
0.0143985
0.0160233
0.018204
0.0193094
0.0207646
0.0251483
0.0317028
0.0380026
0.0408633
0.0433571
0.0395022
0.0262359
0.0242601
0.0340654
0.0467316
0.0527414
0.0123157
0.0141686
0.015007
0.0170809
0.0191809
0.022179
0.0253009
0.0300224
0.0344705
0.0426037
0.0574972
0.0757467
0.0838878
0.0846963
0.0612682
0.0289819
0.0218217
0.0235772
0.0262344
0.0134462
0.0149281
0.0153638
0.0167862
0.0179624
0.0206429
0.0267891
0.0379655
0.0535826
0.0624314
0.0661076
0.0667907
0.0503603
0.0499661
0.111914
0.108977
0.049461
0.0337234
0.0350281
0.0137002
0.014457
0.013639
0.0126455
0.0115153
0.0117658
0.0166421
0.0298174
0.0508948
0.0627208
0.0628227
0.0400642
0.0154896
0.0164977
0.0342432
0.0715254
0.0482928
0.043983
0.0710242
0.013025
0.0129951
0.00969249
0.00708328
0.00562516
0.00519128
0.00727606
0.0148311
0.0329992
0.0472012
0.0464684
0.0170159
0.00625527
0.00575939
0.0110239
0.0289715
0.026697
0.0174648
0.0142851
0.0114592
0.0104137
0.00607505
0.00379497
0.00272576
0.00261065
0.00364216
0.00715163
0.0153816
0.0242679
0.0217701
0.00851435
0.00324229
0.00252191
0.00449723
0.0132751
0.0123916
0.00797245
0.00551511
0.00930247
0.00781718
0.00370302
0.00215312
0.00147983
0.00136815
0.001751
0.00318021
0.00656459
0.0105655
0.0102587
0.00482546
0.00211746
0.00144668
0.00232472
0.00685331
0.00621942
0.00419517
0.00273777
0.00694372
0.00534908
0.00225587
0.00135664
0.000951588
0.000914104
0.00116042
0.0019162
0.00326442
0.00494789
0.00526193
0.00307476
0.00149983
0.00100247
0.00138981
0.00357639
0.00340772
0.00247341
0.00143105
0.00495518
0.00335604
0.00144862
0.00100284
0.000745468
0.000730389
0.000880203
0.00134126
0.00208413
0.00299463
0.00326401
0.00226632
0.00119398
0.000794618
0.000951953
0.00200654
0.00208067
0.00166222
0.000937577
0.00358257
0.00226149
0.00113163
0.00087038
0.000675003
0.00066283
0.000768387
0.00111827
0.00167333
0.0023436
0.00253685
0.00193991
0.00107357
0.000704679
0.000755479
0.00139624
0.00152617
0.00127813
0.000777483
2.45001
7.49646
2.30262
0.913239
0.627195
0.575696
0.529754
0.479406
0.433063
0.409383
0.392206
0.389385
0.388418
0.392897
0.411237
0.45117
0.531415
0.653371
0.950886
1.12789
2.12517
5.95773
1.14143
0.354724
0.235307
0.212748
0.239004
0.283376
0.347284
0.397301
0.425585
0.445635
0.463637
0.485415
0.517618
0.569271
0.656939
0.770514
1.03389
0.997184
1.9629
5.52254
1.0689
0.370769
0.210636
0.194363
0.222178
0.281131
0.353049
0.430259
0.495606
0.550426
0.594838
0.633212
0.676709
0.738369
0.835585
0.943392
1.15426
1.06997
1.69758
4.78657
0.697845
0.175743
0.0996978
0.11123
0.157208
0.231465
0.326215
0.428802
0.515064
0.597069
0.665931
0.723701
0.785329
0.868858
0.991112
1.10881
1.29282
0.97812
1.40803
4.12034
0.458631
0.119722
0.0675468
0.082833
0.131477
0.208484
0.304174
0.410974
0.526673
0.625495
0.715479
0.797797
0.881199
0.980078
1.10135
1.17475
1.2393
0.942301
1.14075
3.41044
0.279149
0.0680616
0.0378852
0.053147
0.0944739
0.164469
0.259186
0.369055
0.484896
0.602949
0.717168
0.821837
0.925336
1.04298
1.17677
1.2257
1.2454
0.927183
0.901428
2.41012
0.182696
0.0429487
0.0232484
0.0360007
0.0698361
0.131212
0.222419
0.335819
0.463107
0.593509
0.728564
0.846001
0.960301
1.0749
1.18264
1.14468
1.06613
0.868168
0.731061
1.20663
0.127149
0.0224497
0.0128031
0.0224219
0.0473801
0.0953095
0.181691
0.296167
0.425138
0.568345
0.714506
0.856722
0.992002
1.11013
1.20422
1.1292
1.0083
0.875613
0.740832
0.563594
0.0547022
0.00927997
0.00700315
0.0140072
0.0335511
0.0749132
0.152967
0.26711
0.415236
0.56586
0.722319
0.883035
1.04613
1.18228
1.27771
1.21526
1.08073
1.01958
0.861666
0.228841
0.0222961
0.00422085
0.0043699
0.0111337
0.0305846
0.0699156
0.152621
0.274015
0.422535
0.574608
0.745069
0.931993
1.12812
1.31088
1.44068
1.42462
1.30252
1.21994
0.923655
0.112502
0.00526116
0.000624501
0.00245212
0.00866786
0.0265088
0.0706073
0.162737
0.29705
0.453679
0.608105
0.767835
0.947017
1.14451
1.35216
1.48141
1.45093
1.21972
1.22173
0.859543
0.0361726
0.00191323
0.000657657
0.00191528
0.0070956
0.0241836
0.0703842
0.158851
0.27061
0.390539
0.483499
0.57041
0.658682
0.754387
0.836244
0.855014
0.849926
0.597421
0.494865
0.720264
0.0274499
0.00137317
0.000261244
0.000658752
0.00164998
0.00436461
0.011853
0.0285505
0.0559084
0.0922866
0.12725
0.151853
0.169622
0.194924
0.239563
0.288456
0.310553
0.200933
0.0362007
0.640794
0.0367785
0.00198994
0.000126656
5.27761e-05
6.00452e-05
0.000386811
0.000938515
0.00222255
0.00480034
0.00924828
0.0144205
0.0173677
0.0180848
0.0237726
0.0397024
0.0364262
0.0143457
0.000501735
0.00776555
0.567904
0.0455338
0.00249633
0.00014419
3.30523e-05
4.81982e-06
2.89489e-06
9.96049e-06
1.82922e-05
2.73368e-05
3.96344e-05
6.58119e-05
8.72261e-05
0.000191072
0.00029043
0.000259943
0.000241107
0.000298003
0.000688621
0.00147241
0.465934
0.0323144
0.000661116
3.90893e-06
1.58784e-06
3.23855e-07
2.97143e-07
2.96241e-07
1.5538e-07
1.19203e-07
1.22888e-07
1.31475e-07
2.37792e-07
3.49688e-07
5.46827e-07
4.02745e-07
3.02793e-05
5.30363e-05
0.00128101
0.000344052
0.35688
0.0141772
1.35157e-05
1.96334e-06
6.13123e-08
1.84385e-08
3.46818e-07
3.31926e-07
1.40389e-07
1.23842e-07
8.96589e-08
1.01032e-07
9.82455e-08
1.135e-07
1.75064e-07
9.05294e-06
0.000140776
0.00016498
0.00109566
0.000325598
0.253633
0.0182149
3.91285e-05
1.27025e-05
4.54447e-06
3.6455e-06
1.05372e-05
9.6365e-06
7.42326e-06
6.62858e-06
5.63302e-06
5.21925e-06
4.66497e-06
4.00319e-06
2.19686e-05
0.000572497
0.00272801
0.00290898
0.000404887
0.000726369
0.193306
0.0402614
0.00184268
0.00173712
0.00168775
0.0016245
0.0015691
0.00151078
0.00145832
0.00140619
0.00135701
0.00130359
0.00124152
0.00116584
0.00106233
0.00106838
0.00457577
0.00646364
0.0150713
0.0185189
0.163167
0.897987
0.881446
0.884025
0.883117
0.88431
0.883726
0.882287
0.882414
0.882331
0.883338
0.882888
0.881657
0.882958
0.882979
0.882995
0.880598
0.802688
0.770965
0.168923
0.163175
0.897892
0.881431
0.884069
0.883361
0.883651
0.883791
0.883572
0.882546
0.883657
0.882983
0.881828
0.882486
0.882514
0.882504
0.882991
0.880649
0.802686
0.770788
0.168918
0.193303
0.0402533
0.00184255
0.00173713
0.00168816
0.00162291
0.00156916
0.00151334
0.0014585
0.00140865
0.00135627
0.00130162
0.0012428
0.00116494
0.00106312
0.00119605
0.00632447
0.00806836
0.0157135
0.0189144
0.253605
0.0182503
3.92383e-05
1.30867e-05
2.1376e-05
2.04475e-05
9.85302e-06
8.83001e-06
6.82345e-06
6.67424e-06
5.59888e-06
5.35374e-06
4.65149e-06
4.97149e-06
4.8458e-05
0.00225017
0.00737479
0.00934785
0.00113791
0.000720548
0.356867
0.0141898
1.52564e-05
1.93959e-06
2.02559e-06
1.20889e-06
3.47666e-07
2.87871e-07
1.03822e-07
1.13079e-07
7.95701e-08
9.6839e-08
8.50382e-08
1.12619e-07
7.4766e-05
0.000369233
0.000456688
0.00046486
0.00172374
0.000166361
0.465913
0.0322555
0.000638351
4.94576e-06
1.6179e-06
1.1567e-06
4.57051e-07
3.01811e-07
1.34187e-07
1.0408e-07
1.04045e-07
1.1173e-07
1.97184e-07
2.56744e-07
1.61671e-05
5.77213e-05
0.000108184
0.000139453
0.00119008
0.00022986
0.567703
0.0461465
0.00258167
0.000173783
2.71754e-05
4.10462e-06
4.02677e-06
7.6745e-06
1.33326e-05
1.93151e-05
2.68501e-05
4.50045e-05
5.94115e-05
0.000138772
0.000204945
0.000223703
0.000303399
0.000415282
0.000938243
0.00124576
0.64085
0.0371759
0.00198224
0.000239938
7.95047e-05
0.000127835
0.000347309
0.000810881
0.00185962
0.00391418
0.00739487
0.0112369
0.0133973
0.0147921
0.020119
0.0217299
0.0254284
0.0124493
0.00273339
0.00713304
0.717586
0.0275926
0.00171722
0.000313404
0.00024631
0.00131031
0.00382087
0.0101781
0.024428
0.0480376
0.0785323
0.106508
0.127159
0.147203
0.17929
0.21963
0.260415
0.259725
0.165136
0.0284303
0.857762
0.0397069
0.0018249
0.000408622
0.00185352
0.00639533
0.0220593
0.0659227
0.149473
0.253649
0.368081
0.469652
0.588803
0.729601
0.871215
0.964734
1.00892
0.976188
0.738277
0.569513
0.924063
0.101544
0.00578372
0.00111437
0.00224768
0.00816697
0.0259032
0.0686773
0.15478
0.281936
0.431067
0.583829
0.751832
0.948178
1.16499
1.39184
1.54162
1.53751
1.35649
1.21754
0.863389
0.241628
0.0207326
0.00272897
0.00378237
0.00954729
0.0252778
0.0670308
0.143474
0.252723
0.38897
0.541484
0.712726
0.90611
1.11028
1.30792
1.45601
1.47202
1.39606
1.21938
0.742585
0.537378
0.0547601
0.010107
0.00650754
0.012664
0.0326573
0.0695383
0.149119
0.25759
0.388189
0.531928
0.684803
0.845707
1.01601
1.16635
1.29497
1.29256
1.23035
1.08347
0.73312
1.2142
0.128859
0.0234978
0.0120252
0.0195286
0.040454
0.086698
0.162585
0.269296
0.395543
0.532897
0.674194
0.813956
0.954352
1.09183
1.24082
1.27016
1.25064
0.957836
0.904073
2.42996
0.185845
0.0437008
0.0236117
0.0333422
0.0638713
0.120027
0.206364
0.313364
0.432064
0.555611
0.685456
0.79947
0.919918
1.05782
1.23604
1.32398
1.3412
0.963564
1.14687
3.43886
0.279692
0.0698819
0.0379774
0.0493651
0.0856506
0.149728
0.238702
0.342899
0.454223
0.565814
0.673629
0.774425
0.884665
1.02674
1.23112
1.39322
1.48513
1.01043
1.4159
4.15922
0.460125
0.120528
0.0667039
0.0771024
0.119996
0.191289
0.28158
0.383656
0.494325
0.588652
0.675085
0.754658
0.841055
0.956519
1.12268
1.26375
1.35658
0.940564
1.7062
4.82302
0.695527
0.176886
0.0984732
0.105472
0.145454
0.214433
0.306065
0.403481
0.484835
0.563695
0.630561
0.688529
0.750783
0.842023
0.989271
1.15166
1.4141
0.943112
1.96974
5.54614
1.06424
0.365065
0.205313
0.185496
0.208247
0.262809
0.332076
0.407395
0.471284
0.524482
0.568866
0.607728
0.651203
0.714347
0.82017
0.953296
1.17794
0.938907
2.1272
5.96304
1.12963
0.34628
0.229234
0.203601
0.22357
0.264825
0.327783
0.378294
0.408761
0.430401
0.448621
0.470688
0.502296
0.552683
0.641364
0.768435
1.06951
0.93415
2.44995
7.49694
2.29747
0.897044
0.607232
0.552958
0.50984
0.461743
0.416636
0.394388
0.379726
0.378456
0.378785
0.385037
0.404217
0.443598
0.522903
0.649579
0.96205
1.06901
)
;

boundaryField
{
    outletWall
    {
        type            zeroGradient;
    }
    fineWalls
    {
        Cmu             0.09;
        kappa           0.41;
        E               9.8;
        type            epsilonWallFunction;
        value           nonuniform List<scalar> 
60
(
0.00646159
0.00639718
0.00372536
0.00434107
0.00404849
0.00233337
0.00300551
0.00282526
0.00165268
0.00220696
0.00202657
0.00115069
0.00165886
0.00149938
0.00142455
0.00085494
0.0013592
0.00130053
0.000757793
0.00127658
0.0180035
0.0300399
0.0282111
0.0264343
0.0128794
0.0174992
0.0157744
0.0151413
0.00933379
0.0143588
0.0144073
0.00953722
0.0155802
0.0163097
0.0181994
0.0134875
0.0277595
0.0296826
0.0316552
0.018994
0.0010442
0.000619918
0.00106534
0.00111383
0.000704274
0.00119623
0.00127293
0.00141974
0.000995226
0.00174153
0.00190953
0.00146329
0.00252641
0.00272841
0.00220183
0.00380439
0.004033
0.00340645
0.00582984
0.00586159
)
;
    }
    fineFrontAndBack
    {
        type            zeroGradient;
    }
    fineplugLeft
    {
        type            cyclicAMI;
        value           nonuniform List<scalar> 
20
(
0.948763
0.80122
0.563139
0.465219
0.400635
0.368387
0.354831
0.352246
0.354159
0.35783
0.372958
0.394095
0.434183
0.497263
0.567083
0.625527
0.874432
2.01565
6.17216
1.94886
)
;
    }
    fineplugRight
    {
        type            cyclicAMI;
        value           nonuniform List<scalar> 
20
(
0.900012
0.808895
0.558914
0.457274
0.393412
0.361655
0.347278
0.343193
0.343965
0.346282
0.359269
0.379135
0.417814
0.478439
0.546064
0.60638
0.858124
2.00808
6.16858
1.94816
)
;
    }
    inletOutletLeft
    {
        type            cyclicAMI;
        value           nonuniform List<scalar> 
20
(
0.948763
0.80122
0.563139
0.465219
0.400635
0.368387
0.354831
0.352246
0.354159
0.35783
0.372958
0.394095
0.434183
0.497263
0.567083
0.625527
0.874432
2.01565
6.17216
1.94886
)
;
    }
    inletLeft
    {
        type            fixedValue;
        value           uniform 2180.89;
    }
    inletWallsLeft
    {
        Cmu             0.09;
        kappa           0.41;
        E               9.8;
        type            epsilonWallFunction;
        value           nonuniform List<scalar> 
40
(
0.163167
0.193306
0.253633
0.35688
0.465934
0.567904
0.640794
0.720264
0.859543
0.923655
0.861666
0.740832
0.731061
0.901428
1.14075
1.40803
1.69758
1.9629
2.12517
2.45001
1.12789
0.997184
1.06997
0.97812
0.942301
0.927183
0.868168
0.875613
1.01958
1.21994
1.22173
0.494865
0.0362007
0.00776555
0.00147241
0.000344052
0.000325598
0.000726369
0.0185189
0.168923
)
;
    }
    inletFacesLeft
    {
        type            zeroGradient;
    }
    inletOutletRight
    {
        type            cyclicAMI;
        value           nonuniform List<scalar> 
20
(
0.900012
0.808895
0.558914
0.457274
0.393412
0.361655
0.347278
0.343193
0.343965
0.346282
0.359269
0.379135
0.417814
0.478439
0.546064
0.60638
0.858124
2.00808
6.16858
1.94816
)
;
    }
    inletRight
    {
        type            fixedValue;
        value           uniform 2180.89;
    }
    inletWallsRight
    {
        Cmu             0.09;
        kappa           0.41;
        E               9.8;
        type            epsilonWallFunction;
        value           nonuniform List<scalar> 
40
(
2.44995
2.1272
1.96974
1.7062
1.4159
1.14687
0.904073
0.73312
0.742585
0.863389
0.924063
0.857762
0.717586
0.64085
0.567703
0.465913
0.356867
0.253605
0.193303
0.163175
0.168918
0.0189144
0.000720548
0.000166361
0.00022986
0.00124576
0.00713304
0.0284303
0.569513
1.21754
1.21938
1.08347
0.957836
0.963564
1.01043
0.940564
0.943112
0.938907
0.93415
1.06901
)
;
    }
    inletFacesRight
    {
        type            zeroGradient;
    }
}


// ************************************************************************* //
