/*--------------------------------*- C++ -*----------------------------------*\
| =========                 |                                                 |
| \\      /  F ield         | OpenFOAM: The Open Source CFD Toolbox           |
|  \\    /   O peration     | Version:  4.1                                   |
|   \\  /    A nd           | Web:      www.OpenFOAM.org                      |
|    \\/     M anipulation  |                                                 |
\*---------------------------------------------------------------------------*/
FoamFile
{
    version     2.0;
    format      ascii;
    class       volScalarField;
    location    "6";
    object      k;
}
// * * * * * * * * * * * * * * * * * * * * * * * * * * * * * * * * * * * * * //

dimensions      [0 2 -2 0 0 0 0];

internalField   nonuniform List<scalar> 
1280
(
0.304874
0.314847
0.307944
0.317169
0.340984
0.325227
0.335342
0.358494
0.413534
0.410433
0.433744
0.523963
0.512187
0.531321
0.652465
0.646523
0.676404
0.88105
0.867829
0.877736
1.09529
2.16766
2.27169
2.25077
2.28856
2.41735
1.61518
1.95792
2.18287
2.36028
2.49931
2.60647
2.6883
2.74917
2.79661
2.83088
2.86409
2.87983
2.90095
2.84134
2.7297
2.60751
2.4961
2.38533
2.16478
1.79403
1.6637
1.60876
1.69736
1.52204
1.51756
1.68216
1.58312
1.62838
1.74766
2.09936
2.30765
2.41091
2.51573
2.63297
2.73894
2.79461
2.77307
2.75794
2.72496
2.68966
2.64052
2.57771
2.49455
2.3874
2.25022
2.07666
1.85762
1.53001
2.31365
2.19482
2.16661
2.19526
2.09605
1.0352
0.836101
0.829434
0.844489
0.646308
0.616057
0.623872
0.495295
0.470193
0.475694
0.393117
0.37006
0.369053
0.320911
0.299171
0.288258
0.298981
0.277615
0.269868
0.275959
0.267101
1.18051
1.07931
0.882346
0.702885
0.582865
0.557683
0.609869
0.699729
0.832681
1.05112
1.38732
1.38554
1.0934
0.751634
0.583848
0.543511
0.518608
0.447021
0.36348
1.3039
1.19601
0.962364
0.75271
0.623389
0.611277
0.6865
0.816804
1.01205
1.32471
1.75343
1.62924
1.2318
0.838704
0.651008
0.606448
0.571762
0.488054
0.401152
1.51847
1.39924
1.11393
0.86002
0.709623
0.703409
0.804957
1.00098
1.30325
1.79146
2.32344
1.91049
1.44227
0.984466
0.754859
0.705555
0.691541
0.564785
0.482564
1.77049
1.64981
1.33623
1.04386
0.862153
0.861596
1.00487
1.32193
1.85073
2.75645
3.19956
2.24569
1.71385
1.22103
0.925052
0.880891
0.914327
0.72563
0.643196
2.01321
1.90858
1.61227
1.31233
1.11193
1.13051
1.34123
1.83264
2.69066
4.07656
4.29007
2.93286
2.05587
1.53711
1.22361
1.25787
1.31629
1.02727
0.882263
2.22957
2.16877
1.93968
1.68902
1.50777
1.5677
1.87645
2.55488
3.6942
5.09578
5.27553
4.35424
2.7339
2.04141
1.76496
2.06963
2.15487
1.78024
1.24656
2.40808
2.41233
2.28346
2.13573
2.02743
2.13039
2.52084
3.30709
4.53242
5.52541
5.5841
5.3121
4.17666
3.054
2.86287
3.73888
3.43761
3.14116
1.30107
2.52631
2.60026
2.57407
2.54913
2.55363
2.68639
3.06249
3.74282
4.61938
5.10548
5.2273
5.477
5.61264
4.96517
5.15183
6.26434
4.2677
2.00822
1.75234
2.55034
2.65875
2.69374
2.75312
2.8435
2.97149
3.19278
3.51713
3.87831
4.19482
4.48958
4.80205
5.2418
5.43409
4.81588
3.53277
2.19738
1.99267
2.17557
2.50056
2.59473
2.61838
2.68052
2.79083
2.9171
3.0219
3.10908
3.26144
3.60812
3.78331
3.64986
3.53874
3.41502
3.04445
2.60586
2.62675
3.10366
3.58322
2.51769
2.60699
2.62603
2.68141
2.78799
2.92141
3.02677
3.11118
3.33128
3.80169
4.07491
4.06603
4.05695
3.83421
3.09921
2.56047
2.68523
3.17736
3.62968
2.63402
2.74512
2.79683
2.87912
3.00198
3.15415
3.34555
3.63876
4.08372
4.58364
5.0709
5.62885
6.07499
5.82771
4.86011
3.21539
2.17628
2.08067
2.24691
2.70459
2.79748
2.81962
2.8623
2.92764
3.0358
3.33619
3.94881
4.90805
5.59086
5.82224
6.01377
5.47092
5.07865
6.28147
5.9034
3.77221
2.12356
1.84326
2.68499
2.721
2.64245
2.56051
2.48024
2.50599
2.77253
3.39225
4.51339
5.68821
5.79225
4.97739
3.59758
2.99126
3.38602
4.30144
3.67206
3.34788
1.43491
2.58134
2.56309
2.37616
2.15977
1.95021
1.91454
2.09139
2.55644
3.41768
4.68922
4.80776
3.24244
2.39617
1.92707
1.92543
2.6639
2.46786
1.86287
1.29064
2.40388
2.35448
2.08614
1.7777
1.50892
1.44511
1.55378
1.86913
2.43181
3.27223
3.30787
2.31301
1.82715
1.43693
1.29063
1.71929
1.56703
1.11827
0.907951
2.16675
2.10829
1.8054
1.46908
1.20426
1.13685
1.22032
1.44447
1.78984
2.24413
2.37435
1.88859
1.5027
1.16592
1.02438
1.25448
1.12605
0.840587
0.706472
1.89557
1.83272
1.54298
1.22846
1.00024
0.945667
1.02395
1.19454
1.41884
1.6863
1.84471
1.61119
1.28761
1.00776
0.889184
0.964693
0.87332
0.675134
0.549307
1.65155
1.58113
1.3385
1.0685
0.878801
0.831778
0.905252
1.04203
1.20881
1.39893
1.54185
1.41973
1.15232
0.911226
0.808543
0.818688
0.731241
0.589168
0.462698
1.5065
1.42703
1.22155
0.986832
0.821823
0.766779
0.825692
0.936118
1.06911
1.22133
1.35397
1.28407
1.06639
0.849126
0.752497
0.737404
0.658914
0.535999
0.417244
4.22454
14.4569
6.01639
4.72733
5.59664
6.65624
7.16522
7.19164
6.96686
6.63739
6.29772
5.99681
5.76216
5.61021
5.55142
5.57582
5.67879
5.68191
5.57968
2.56561
3.82445
12.4646
4.55225
4.11914
5.12556
5.91836
6.31602
6.46204
6.45446
6.38097
6.27641
6.1698
6.08715
6.05683
6.09826
6.20968
6.37626
6.38619
6.1932
2.27881
3.63317
11.6801
3.5542
3.43982
4.39237
5.08567
5.51335
5.81354
6.03776
6.21614
6.34447
6.43743
6.51952
6.62057
6.75741
6.92561
7.09788
7.02182
6.61569
2.35402
3.30094
10.6319
2.7698
2.83222
3.51024
4.05268
4.51964
4.98241
5.42086
5.82125
6.16587
6.46544
6.74005
7.00727
7.27043
7.52806
7.74359
7.6486
7.16238
2.09967
2.9297
9.38377
1.9906
2.15105
2.72238
3.22376
3.73812
4.30433
4.8674
5.397
5.88339
6.34581
6.78793
7.20782
7.59521
7.94415
8.19003
7.97113
6.99457
1.98877
2.56086
8.07626
1.3675
1.56947
2.06927
2.5402
3.06425
3.66412
4.28074
4.88296
5.46749
6.04015
6.6098
7.16246
7.67696
8.14224
8.4733
8.18887
7.02753
1.87403
2.18012
6.44511
0.936693
1.08045
1.53285
1.96804
2.46338
3.04602
3.67073
4.30584
4.95253
5.61081
6.28454
6.95043
7.5664
8.09529
8.43113
7.97019
6.60118
1.95473
1.8841
4.28994
0.665778
0.700153
1.08628
1.47994
1.93184
2.47627
3.09056
3.74401
4.43144
5.15278
5.91129
6.66534
7.36075
7.92233
8.2434
7.72342
6.3604
2.12811
1.89851
2.03558
0.427506
0.434645
0.740642
1.08832
1.50204
2.0189
2.62981
3.28976
3.98924
4.74326
5.55157
6.37938
7.16037
7.78599
8.13199
7.70886
6.42159
2.43439
2.10121
0.889574
0.2265
0.272957
0.518675
0.820304
1.21216
1.72344
2.34847
3.02099
3.72665
4.48093
5.30667
6.19968
7.09516
7.87041
8.34579
8.16881
7.00438
2.76111
2.19128
0.42217
0.104296
0.192189
0.396011
0.658625
1.03784
1.55626
2.21184
2.8782
3.5514
4.25931
5.0763
6.02003
7.02347
7.97385
8.57216
8.4059
6.87647
2.72163
2.0779
0.1644
0.0477261
0.145781
0.315308
0.541387
0.892217
1.38925
2.0157
2.59308
3.12981
3.66345
4.28045
4.95332
5.54743
5.88994
5.78832
5.24005
3.8096
1.53432
1.84592
0.110137
0.0291737
0.0903884
0.209501
0.372342
0.603474
0.905267
1.24867
1.54173
1.74077
1.80878
1.75901
1.65461
1.58968
1.61623
1.75064
1.86216
1.49991
0.266731
1.7228
0.123018
0.0102726
0.0125536
0.0505908
0.0832725
0.116975
0.177442
0.242603
0.303724
0.362754
0.402323
0.410626
0.411994
0.478719
0.61306
0.74847
0.695115
0.37315
0.147565
1.58376
0.136641
0.0110357
0.00135767
0.00189735
0.00550266
0.00391284
0.00409337
0.00493143
0.00550118
0.00660998
0.0086623
0.0119737
0.0158788
0.0193221
0.0200678
0.0200841
0.0279053
0.035618
0.0350384
1.38843
0.0946755
0.00511587
0.000448421
5.78591e-05
1.96253e-05
1.07716e-05
7.61371e-06
8.50822e-06
1.08891e-05
1.64386e-05
2.67274e-05
4.65708e-05
6.82248e-05
9.89779e-05
0.000150683
0.000279129
0.00117486
0.0100175
0.0109911
1.16145
0.0335473
8.6053e-05
2.79691e-07
5.51333e-09
7.88831e-10
7.49772e-10
7.87529e-10
7.15692e-10
7.88076e-10
8.78143e-10
1.22105e-09
1.61415e-09
2.63508e-09
2.46981e-08
1.10852e-05
0.000146493
0.000529464
0.0063068
0.00668872
0.924034
0.00673489
5.31221e-08
1.84408e-08
1.60339e-08
1.50167e-08
1.48782e-08
1.36938e-08
1.21089e-08
1.1057e-08
9.97269e-09
9.09272e-09
8.11301e-09
7.64361e-09
8.49317e-07
0.0002904
0.00674617
0.0230009
0.00726297
0.0179387
0.772124
0.00117247
1.99631e-06
1.87079e-06
1.82141e-06
1.74987e-06
1.69217e-06
1.6332e-06
1.57619e-06
1.51979e-06
1.46383e-06
1.40727e-06
1.34424e-06
1.26298e-06
1.15314e-06
1.3055e-06
3.7625e-05
0.00244163
0.0265718
0.179547
0.689996
0.000676491
0.000642212
0.000641791
0.000641944
0.000641825
0.000641883
0.000642006
0.000642001
0.00064201
0.000641924
0.000641965
0.000642076
0.000641971
0.000641981
0.000641992
0.000642136
0.00065296
0.00211303
0.837706
0.690014
0.000676501
0.000642213
0.000641788
0.000641921
0.000641881
0.000641876
0.000641896
0.00064199
0.000641895
0.000641953
0.000642057
0.000642008
0.000642011
0.000642022
0.000641992
0.000642132
0.000652957
0.00211194
0.837709
0.77212
0.00117257
1.99619e-06
1.87065e-06
1.8212e-06
1.75004e-06
1.69203e-06
1.6326e-06
1.57604e-06
1.51922e-06
1.46388e-06
1.40752e-06
1.34385e-06
1.26312e-06
1.15515e-06
1.6014e-06
7.11781e-05
0.0033605
0.0282146
0.184697
0.923962
0.00673707
5.30698e-08
1.86068e-08
2.09906e-08
1.96692e-08
1.46383e-08
1.3387e-08
1.19083e-08
1.10401e-08
9.95266e-09
9.12907e-09
8.08991e-09
2.49098e-08
2.38623e-05
0.00235839
0.0237286
0.0605808
0.00718044
0.0185998
1.16143
0.0334597
7.55099e-05
2.51351e-07
6.83787e-09
1.17187e-09
7.33915e-10
7.91401e-10
5.93752e-10
6.61325e-10
7.15802e-10
9.27236e-10
1.17124e-09
2.11562e-09
1.97921e-08
5.5079e-05
0.000491594
0.00131735
0.00927273
0.0104159
1.38839
0.0951351
0.00517516
0.000454072
5.90613e-05
1.05595e-05
5.26935e-06
4.46177e-06
5.59342e-06
7.23306e-06
1.08038e-05
1.73982e-05
3.05937e-05
4.50468e-05
6.35429e-05
9.9044e-05
0.000241181
0.000996216
0.00698191
0.00804785
1.5834
0.137926
0.0112829
0.00137211
0.00196535
0.00198436
0.00283352
0.00323993
0.00380143
0.00415245
0.00492291
0.00645264
0.00908233
0.0123289
0.0156261
0.018919
0.0242736
0.0401684
0.0372144
0.034982
1.72198
0.124039
0.0105899
0.0126468
0.0462284
0.0659363
0.107846
0.153379
0.206429
0.257762
0.310782
0.353044
0.380502
0.423597
0.545939
0.732623
0.901126
0.851311
0.450713
0.151215
1.84144
0.110509
0.0283289
0.0963274
0.198405
0.332809
0.552191
0.829802
1.14061
1.40609
1.58908
1.65807
1.63
1.56507
1.54333
1.59837
1.7112
1.74266
1.37546
0.284652
2.07563
0.157609
0.0490378
0.144677
0.287027
0.497293
0.829639
1.29616
1.88215
2.42698
2.95027
3.49101
4.13181
4.85272
5.52164
5.94703
5.9099
5.35424
3.63411
1.1965
2.19169
0.419942
0.103074
0.187434
0.36592
0.604161
0.960503
1.44955
2.06875
2.69885
3.34612
4.03835
4.84821
5.79937
6.83058
7.83589
8.50982
8.43558
6.93722
2.20707
2.105
0.884412
0.226937
0.273431
0.483278
0.756324
1.11761
1.59313
2.18777
2.82684
3.50275
4.22869
5.03546
5.9237
6.83565
7.65932
8.2205
8.18788
7.14382
2.72104
1.90204
2.0349
0.432823
0.435653
0.698782
1.00351
1.3825
1.86553
2.43951
3.06829
3.73934
4.46349
5.25078
6.07375
6.87288
7.56224
8.04098
7.86784
6.79266
2.43611
1.88727
4.30246
0.672872
0.695589
1.03405
1.37525
1.78344
2.28871
2.87159
3.49052
4.14497
4.83845
5.57641
6.32395
7.0355
7.66464
8.16961
7.99682
6.89541
2.06621
2.18489
6.4792
0.937251
1.05953
1.46009
1.83558
2.28359
2.8264
3.41727
4.02097
4.63766
5.26744
5.91629
6.56588
7.18324
7.75726
8.27501
8.16646
7.03653
1.82877
2.5716
8.12701
1.3567
1.52484
1.97385
2.38442
2.86146
3.42258
4.00813
4.58227
5.13891
5.68293
6.22276
6.74835
7.24393
7.71637
8.15168
8.10761
7.09412
1.76539
2.94251
9.43979
1.96302
2.0793
2.59905
3.04364
3.51457
4.04677
4.58416
5.09186
5.55619
5.99302
6.40609
6.79603
7.15611
7.49261
7.77925
7.68808
6.81787
1.84405
3.31425
10.6779
2.72362
2.72709
3.35567
3.84759
4.2775
4.71361
5.13433
5.52271
5.85648
6.14187
6.39709
6.63938
6.87334
7.10505
7.31967
7.27764
6.86611
1.9186
3.64401
11.7027
3.49143
3.30768
4.20677
4.85026
5.24705
5.5328
5.75221
5.93035
6.06067
6.15494
6.23313
6.32211
6.43677
6.57823
6.73772
6.70073
6.42417
2.19126
3.82999
12.4551
4.47709
3.96372
4.91533
5.66414
6.03795
6.18012
6.18028
6.11865
6.02694
5.9324
5.85766
5.82706
5.85728
5.94873
6.09973
6.13878
6.08402
2.15829
4.22751
14.4451
5.95236
4.56387
5.36012
6.37246
6.86877
6.90911
6.70697
6.39963
6.07886
5.79448
5.57298
5.4278
5.36698
5.38022
5.46705
5.47071
5.43354
2.46855
)
;

boundaryField
{
    outletWall
    {
        type            calculated;
        value           nonuniform List<scalar> 
60
(
0.267101
0.36348
0.447021
0.518608
0.543511
0.583848
0.751634
1.0934
1.38554
1.38732
1.05112
0.832681
0.699729
0.609869
0.557683
0.582865
0.702885
0.882346
1.07931
1.18051
1.5065
1.65155
1.89557
2.16675
2.40388
2.58134
2.68499
2.70459
2.63402
2.51769
2.50056
2.55034
2.52631
2.40808
2.22957
2.01321
1.77049
1.51847
1.3039
1.18051
0.304874
0.417244
0.535999
0.658914
0.737404
0.752497
0.849126
1.06639
1.28407
1.35397
1.22133
1.06911
0.936118
0.825692
0.766779
0.821823
0.986832
1.22155
1.42703
1.5065
)
;
    }
    fineWalls
    {
        type            calculated;
        value           nonuniform List<scalar> 
60
(
0.877736
0.867829
0.88105
0.676404
0.646523
0.652465
0.531321
0.512187
0.523963
0.433744
0.410433
0.413534
0.358494
0.335342
0.325227
0.340984
0.317169
0.307944
0.314847
0.304874
2.63297
2.51573
2.41091
2.30765
2.09936
1.74766
1.62838
1.58312
1.68216
1.51756
1.52204
1.69736
1.60876
1.6637
1.79403
2.16478
2.38533
2.4961
2.60751
2.7297
0.267101
0.275959
0.269868
0.277615
0.298981
0.288258
0.299171
0.320911
0.369053
0.37006
0.393117
0.475694
0.470193
0.495295
0.623872
0.616057
0.646308
0.844489
0.829434
0.836101
)
;
    }
    fineFrontAndBack
    {
        type            calculated;
        value           nonuniform List<scalar> 
960
(
0.304874
0.314847
0.307944
0.317169
0.340984
0.325227
0.335342
0.358494
0.413534
0.410433
0.433744
0.523963
0.512187
0.531321
0.652465
0.646523
0.676404
0.88105
0.867829
0.877736
1.09529
2.16766
2.27169
2.25077
2.28856
2.41735
1.61518
1.95792
2.18287
2.36028
2.49931
2.60647
2.6883
2.74917
2.79661
2.83088
2.86409
2.87983
2.90095
2.84134
2.7297
2.60751
2.4961
2.38533
2.16478
1.79403
1.6637
1.60876
1.69736
1.52204
1.51756
1.68216
1.58312
1.62838
1.74766
2.09936
2.30765
2.41091
2.51573
2.63297
2.73894
2.79461
2.77307
2.75794
2.72496
2.68966
2.64052
2.57771
2.49455
2.3874
2.25022
2.07666
1.85762
1.53001
2.31365
2.19482
2.16661
2.19526
2.09605
1.0352
0.836101
0.829434
0.844489
0.646308
0.616057
0.623872
0.495295
0.470193
0.475694
0.393117
0.37006
0.369053
0.320911
0.299171
0.288258
0.298981
0.277615
0.269868
0.275959
0.267101
1.18051
1.07931
0.882346
0.702885
0.582865
0.557683
0.609869
0.699729
0.832681
1.05112
1.38732
1.38554
1.0934
0.751634
0.583848
0.543511
0.518608
0.447021
0.36348
1.3039
1.19601
0.962364
0.75271
0.623389
0.611277
0.6865
0.816804
1.01205
1.32471
1.75343
1.62924
1.2318
0.838704
0.651008
0.606448
0.571762
0.488054
0.401152
1.51847
1.39924
1.11393
0.86002
0.709623
0.703409
0.804957
1.00098
1.30325
1.79146
2.32344
1.91049
1.44227
0.984466
0.754859
0.705555
0.691541
0.564785
0.482564
1.77049
1.64981
1.33623
1.04386
0.862153
0.861596
1.00487
1.32193
1.85073
2.75645
3.19956
2.24569
1.71385
1.22103
0.925052
0.880891
0.914327
0.72563
0.643196
2.01321
1.90858
1.61227
1.31233
1.11193
1.13051
1.34123
1.83264
2.69066
4.07656
4.29007
2.93286
2.05587
1.53711
1.22361
1.25787
1.31629
1.02727
0.882263
2.22957
2.16877
1.93968
1.68902
1.50777
1.5677
1.87645
2.55488
3.6942
5.09578
5.27553
4.35424
2.7339
2.04141
1.76496
2.06963
2.15487
1.78024
1.24656
2.40808
2.41233
2.28346
2.13573
2.02743
2.13039
2.52084
3.30709
4.53242
5.52541
5.5841
5.3121
4.17666
3.054
2.86287
3.73888
3.43761
3.14116
1.30107
2.52631
2.60026
2.57407
2.54913
2.55363
2.68639
3.06249
3.74282
4.61938
5.10548
5.2273
5.477
5.61264
4.96517
5.15183
6.26434
4.2677
2.00822
1.75234
2.55034
2.65875
2.69374
2.75312
2.8435
2.97149
3.19278
3.51713
3.87831
4.19482
4.48958
4.80205
5.2418
5.43409
4.81588
3.53277
2.19738
1.99267
2.17557
2.50056
2.59473
2.61838
2.68052
2.79083
2.9171
3.0219
3.10908
3.26144
3.60812
3.78331
3.64986
3.53874
3.41502
3.04445
2.60586
2.62675
3.10366
3.58322
2.51769
2.60699
2.62603
2.68141
2.78799
2.92141
3.02677
3.11118
3.33128
3.80169
4.07491
4.06603
4.05695
3.83421
3.09921
2.56047
2.68523
3.17736
3.62968
2.63402
2.74512
2.79683
2.87912
3.00198
3.15415
3.34555
3.63876
4.08372
4.58364
5.0709
5.62885
6.07499
5.82771
4.86011
3.21539
2.17628
2.08067
2.24691
2.70459
2.79748
2.81962
2.8623
2.92764
3.0358
3.33619
3.94881
4.90805
5.59086
5.82224
6.01377
5.47092
5.07865
6.28147
5.9034
3.77221
2.12356
1.84326
2.68499
2.721
2.64245
2.56051
2.48024
2.50599
2.77253
3.39225
4.51339
5.68821
5.79225
4.97739
3.59758
2.99126
3.38602
4.30144
3.67206
3.34788
1.43491
2.58134
2.56309
2.37616
2.15977
1.95021
1.91454
2.09139
2.55644
3.41768
4.68922
4.80776
3.24244
2.39617
1.92707
1.92543
2.6639
2.46786
1.86287
1.29064
2.40388
2.35448
2.08614
1.7777
1.50892
1.44511
1.55378
1.86913
2.43181
3.27223
3.30787
2.31301
1.82715
1.43693
1.29063
1.71929
1.56703
1.11827
0.907951
2.16675
2.10829
1.8054
1.46908
1.20426
1.13685
1.22032
1.44447
1.78984
2.24413
2.37435
1.88859
1.5027
1.16592
1.02438
1.25448
1.12605
0.840587
0.706472
1.89557
1.83272
1.54298
1.22846
1.00024
0.945667
1.02395
1.19454
1.41884
1.6863
1.84471
1.61119
1.28761
1.00776
0.889184
0.964693
0.87332
0.675134
0.549307
1.65155
1.58113
1.3385
1.0685
0.878801
0.831778
0.905252
1.04203
1.20881
1.39893
1.54185
1.41973
1.15232
0.911226
0.808543
0.818688
0.731241
0.589168
0.462698
1.5065
1.42703
1.22155
0.986832
0.821823
0.766779
0.825692
0.936118
1.06911
1.22133
1.35397
1.28407
1.06639
0.849126
0.752497
0.737404
0.658914
0.535999
0.417244
0.304874
0.314847
0.307944
0.317169
0.340984
0.325227
0.335342
0.358494
0.413534
0.410433
0.433744
0.523963
0.512187
0.531321
0.652465
0.646523
0.676404
0.88105
0.867829
0.877736
1.09529
2.16766
2.27169
2.25077
2.28856
2.41735
1.61518
1.95792
2.18287
2.36028
2.49931
2.60647
2.6883
2.74917
2.79661
2.83088
2.86409
2.87983
2.90095
2.84134
2.7297
2.60751
2.4961
2.38533
2.16478
1.79403
1.6637
1.60876
1.69736
1.52204
1.51756
1.68216
1.58312
1.62838
1.74766
2.09936
2.30765
2.41091
2.51573
2.63297
2.73894
2.79461
2.77307
2.75794
2.72496
2.68966
2.64052
2.57771
2.49455
2.3874
2.25022
2.07666
1.85762
1.53001
2.31365
2.19482
2.16661
2.19526
2.09605
1.0352
0.836101
0.829434
0.844489
0.646308
0.616057
0.623872
0.495295
0.470193
0.475694
0.393117
0.37006
0.369053
0.320911
0.299171
0.288258
0.298981
0.277615
0.269868
0.275959
0.267101
1.18051
1.07931
0.882346
0.702885
0.582865
0.557683
0.609869
0.699729
0.832681
1.05112
1.38732
1.38554
1.0934
0.751634
0.583848
0.543511
0.518608
0.447021
0.36348
1.3039
1.19601
0.962364
0.75271
0.623389
0.611277
0.6865
0.816804
1.01205
1.32471
1.75343
1.62924
1.2318
0.838704
0.651008
0.606448
0.571762
0.488054
0.401152
1.51847
1.39924
1.11393
0.86002
0.709623
0.703409
0.804957
1.00098
1.30325
1.79146
2.32344
1.91049
1.44227
0.984466
0.754859
0.705555
0.691541
0.564785
0.482564
1.77049
1.64981
1.33623
1.04386
0.862153
0.861596
1.00487
1.32193
1.85073
2.75645
3.19956
2.24569
1.71385
1.22103
0.925052
0.880891
0.914327
0.72563
0.643196
2.01321
1.90858
1.61227
1.31233
1.11193
1.13051
1.34123
1.83264
2.69066
4.07656
4.29007
2.93286
2.05587
1.53711
1.22361
1.25787
1.31629
1.02727
0.882263
2.22957
2.16877
1.93968
1.68902
1.50777
1.5677
1.87645
2.55488
3.6942
5.09578
5.27553
4.35424
2.7339
2.04141
1.76496
2.06963
2.15487
1.78024
1.24656
2.40808
2.41233
2.28346
2.13573
2.02743
2.13039
2.52084
3.30709
4.53242
5.52541
5.5841
5.3121
4.17666
3.054
2.86287
3.73888
3.43761
3.14116
1.30107
2.52631
2.60026
2.57407
2.54913
2.55363
2.68639
3.06249
3.74282
4.61938
5.10548
5.2273
5.477
5.61264
4.96517
5.15183
6.26434
4.2677
2.00822
1.75234
2.55034
2.65875
2.69374
2.75312
2.8435
2.97149
3.19278
3.51713
3.87831
4.19482
4.48958
4.80205
5.2418
5.43409
4.81588
3.53277
2.19738
1.99267
2.17557
2.50056
2.59473
2.61838
2.68052
2.79083
2.9171
3.0219
3.10908
3.26144
3.60812
3.78331
3.64986
3.53874
3.41502
3.04445
2.60586
2.62675
3.10366
3.58322
2.51769
2.60699
2.62603
2.68141
2.78799
2.92141
3.02677
3.11118
3.33128
3.80169
4.07491
4.06603
4.05695
3.83421
3.09921
2.56047
2.68523
3.17736
3.62968
2.63402
2.74512
2.79683
2.87912
3.00198
3.15415
3.34555
3.63876
4.08372
4.58364
5.0709
5.62885
6.07499
5.82771
4.86011
3.21539
2.17628
2.08067
2.24691
2.70459
2.79748
2.81962
2.8623
2.92764
3.0358
3.33619
3.94881
4.90805
5.59086
5.82224
6.01377
5.47092
5.07865
6.28147
5.9034
3.77221
2.12356
1.84326
2.68499
2.721
2.64245
2.56051
2.48024
2.50599
2.77253
3.39225
4.51339
5.68821
5.79225
4.97739
3.59758
2.99126
3.38602
4.30144
3.67206
3.34788
1.43491
2.58134
2.56309
2.37616
2.15977
1.95021
1.91454
2.09139
2.55644
3.41768
4.68922
4.80776
3.24244
2.39617
1.92707
1.92543
2.6639
2.46786
1.86287
1.29064
2.40388
2.35448
2.08614
1.7777
1.50892
1.44511
1.55378
1.86913
2.43181
3.27223
3.30787
2.31301
1.82715
1.43693
1.29063
1.71929
1.56703
1.11827
0.907951
2.16675
2.10829
1.8054
1.46908
1.20426
1.13685
1.22032
1.44447
1.78984
2.24413
2.37435
1.88859
1.5027
1.16592
1.02438
1.25448
1.12605
0.840587
0.706472
1.89557
1.83272
1.54298
1.22846
1.00024
0.945667
1.02395
1.19454
1.41884
1.6863
1.84471
1.61119
1.28761
1.00776
0.889184
0.964693
0.87332
0.675134
0.549307
1.65155
1.58113
1.3385
1.0685
0.878801
0.831778
0.905252
1.04203
1.20881
1.39893
1.54185
1.41973
1.15232
0.911226
0.808543
0.818688
0.731241
0.589168
0.462698
1.5065
1.42703
1.22155
0.986832
0.821823
0.766779
0.825692
0.936118
1.06911
1.22133
1.35397
1.28407
1.06639
0.849126
0.752497
0.737404
0.658914
0.535999
0.417244
)
;
    }
    fineplugLeft
    {
        type            cyclicAMI;
        value           nonuniform List<scalar> 
20
(
2.62076
5.04393
5.1215
5.11585
5.02683
5.00046
5.038
5.14739
5.31874
5.53804
5.78197
6.01006
6.1449
6.53414
5.80847
4.93502
4.23202
5.26745
11.999
3.59869
)
;
    }
    fineplugRight
    {
        type            cyclicAMI;
        value           nonuniform List<scalar> 
20
(
2.52263
4.90575
4.93119
4.92523
4.84917
4.83151
4.87034
4.97393
5.13449
5.34057
5.56975
5.78091
5.89881
6.26171
5.5607
4.72706
4.08442
5.20094
11.9753
3.58905
)
;
    }
    inletOutletLeft
    {
        type            cyclicAMI;
        value           nonuniform List<scalar> 
20
(
2.62076
5.04393
5.1215
5.11585
5.02683
5.00046
5.038
5.14739
5.31874
5.53804
5.78197
6.01006
6.1449
6.53414
5.80847
4.93502
4.23202
5.26745
11.999
3.59869
)
;
    }
    inletLeft
    {
        type            calculated;
        value           uniform 1.13;
    }
    inletWallsLeft
    {
        type            calculated;
        value           nonuniform List<scalar> 
40
(
0.689996
0.772124
0.924034
1.16145
1.38843
1.58376
1.7228
1.84592
2.0779
2.19128
2.10121
1.89851
1.8841
2.18012
2.56086
2.9297
3.30094
3.63317
3.82445
4.22454
2.56561
2.27881
2.35402
2.09967
1.98877
1.87403
1.95473
2.12811
2.43439
2.76111
2.72163
1.53432
0.266731
0.147565
0.0350384
0.0109911
0.00668872
0.0179387
0.179547
0.837706
)
;
    }
    inletFacesLeft
    {
        type            calculated;
        value           nonuniform List<scalar> 
800
(
4.22454
14.4569
6.01639
4.72733
5.59664
6.65624
7.16522
7.19164
6.96686
6.63739
6.29772
5.99681
5.76216
5.61021
5.55142
5.57582
5.67879
5.68191
5.57968
2.56561
3.82445
12.4646
4.55225
4.11914
5.12556
5.91836
6.31602
6.46204
6.45446
6.38097
6.27641
6.1698
6.08715
6.05683
6.09826
6.20968
6.37626
6.38619
6.1932
2.27881
3.63317
11.6801
3.5542
3.43982
4.39237
5.08567
5.51335
5.81354
6.03776
6.21614
6.34447
6.43743
6.51952
6.62057
6.75741
6.92561
7.09788
7.02182
6.61569
2.35402
3.30094
10.6319
2.7698
2.83222
3.51024
4.05268
4.51964
4.98241
5.42086
5.82125
6.16587
6.46544
6.74005
7.00727
7.27043
7.52806
7.74359
7.6486
7.16238
2.09967
2.9297
9.38377
1.9906
2.15105
2.72238
3.22376
3.73812
4.30433
4.8674
5.397
5.88339
6.34581
6.78793
7.20782
7.59521
7.94415
8.19003
7.97113
6.99457
1.98877
2.56086
8.07626
1.3675
1.56947
2.06927
2.5402
3.06425
3.66412
4.28074
4.88296
5.46749
6.04015
6.6098
7.16246
7.67696
8.14224
8.4733
8.18887
7.02753
1.87403
2.18012
6.44511
0.936693
1.08045
1.53285
1.96804
2.46338
3.04602
3.67073
4.30584
4.95253
5.61081
6.28454
6.95043
7.5664
8.09529
8.43113
7.97019
6.60118
1.95473
1.8841
4.28994
0.665778
0.700153
1.08628
1.47994
1.93184
2.47627
3.09056
3.74401
4.43144
5.15278
5.91129
6.66534
7.36075
7.92233
8.2434
7.72342
6.3604
2.12811
1.89851
2.03558
0.427506
0.434645
0.740642
1.08832
1.50204
2.0189
2.62981
3.28976
3.98924
4.74326
5.55157
6.37938
7.16037
7.78599
8.13199
7.70886
6.42159
2.43439
2.10121
0.889574
0.2265
0.272957
0.518675
0.820304
1.21216
1.72344
2.34847
3.02099
3.72665
4.48093
5.30667
6.19968
7.09516
7.87041
8.34579
8.16881
7.00438
2.76111
2.19128
0.42217
0.104296
0.192189
0.396011
0.658625
1.03784
1.55626
2.21184
2.8782
3.5514
4.25931
5.0763
6.02003
7.02347
7.97385
8.57216
8.4059
6.87647
2.72163
2.0779
0.1644
0.0477261
0.145781
0.315308
0.541387
0.892217
1.38925
2.0157
2.59308
3.12981
3.66345
4.28045
4.95332
5.54743
5.88994
5.78832
5.24005
3.8096
1.53432
1.84592
0.110137
0.0291737
0.0903884
0.209501
0.372342
0.603474
0.905267
1.24867
1.54173
1.74077
1.80878
1.75901
1.65461
1.58968
1.61623
1.75064
1.86216
1.49991
0.266731
1.7228
0.123018
0.0102726
0.0125536
0.0505908
0.0832725
0.116975
0.177442
0.242603
0.303724
0.362754
0.402323
0.410626
0.411994
0.478719
0.61306
0.74847
0.695115
0.37315
0.147565
1.58376
0.136641
0.0110357
0.00135767
0.00189735
0.00550266
0.00391284
0.00409337
0.00493143
0.00550118
0.00660998
0.0086623
0.0119737
0.0158788
0.0193221
0.0200678
0.0200841
0.0279053
0.035618
0.0350384
1.38843
0.0946755
0.00511587
0.000448421
5.78591e-05
1.96253e-05
1.07716e-05
7.61371e-06
8.50822e-06
1.08891e-05
1.64386e-05
2.67274e-05
4.65708e-05
6.82248e-05
9.89779e-05
0.000150683
0.000279129
0.00117486
0.0100175
0.0109911
1.16145
0.0335473
8.6053e-05
2.79691e-07
5.51333e-09
7.88831e-10
7.49772e-10
7.87529e-10
7.15692e-10
7.88076e-10
8.78143e-10
1.22105e-09
1.61415e-09
2.63508e-09
2.46981e-08
1.10852e-05
0.000146493
0.000529464
0.0063068
0.00668872
0.924034
0.00673489
5.31221e-08
1.84408e-08
1.60339e-08
1.50167e-08
1.48782e-08
1.36938e-08
1.21089e-08
1.1057e-08
9.97269e-09
9.09272e-09
8.11301e-09
7.64361e-09
8.49317e-07
0.0002904
0.00674617
0.0230009
0.00726297
0.0179387
0.772124
0.00117247
1.99631e-06
1.87079e-06
1.82141e-06
1.74987e-06
1.69217e-06
1.6332e-06
1.57619e-06
1.51979e-06
1.46383e-06
1.40727e-06
1.34424e-06
1.26298e-06
1.15314e-06
1.3055e-06
3.7625e-05
0.00244163
0.0265718
0.179547
0.689996
0.000676491
0.000642212
0.000641791
0.000641944
0.000641825
0.000641883
0.000642006
0.000642001
0.00064201
0.000641924
0.000641965
0.000642076
0.000641971
0.000641981
0.000641992
0.000642136
0.00065296
0.00211303
0.837706
4.22454
14.4569
6.01639
4.72733
5.59664
6.65624
7.16522
7.19164
6.96686
6.63739
6.29772
5.99681
5.76216
5.61021
5.55142
5.57582
5.67879
5.68191
5.57968
2.56561
3.82445
12.4646
4.55225
4.11914
5.12556
5.91836
6.31602
6.46204
6.45446
6.38097
6.27641
6.1698
6.08715
6.05683
6.09826
6.20968
6.37626
6.38619
6.1932
2.27881
3.63317
11.6801
3.5542
3.43982
4.39237
5.08567
5.51335
5.81354
6.03776
6.21614
6.34447
6.43743
6.51952
6.62057
6.75741
6.92561
7.09788
7.02182
6.61569
2.35402
3.30094
10.6319
2.7698
2.83222
3.51024
4.05268
4.51964
4.98241
5.42086
5.82125
6.16587
6.46544
6.74005
7.00727
7.27043
7.52806
7.74359
7.6486
7.16238
2.09967
2.9297
9.38377
1.9906
2.15105
2.72238
3.22376
3.73812
4.30433
4.8674
5.397
5.88339
6.34581
6.78793
7.20782
7.59521
7.94415
8.19003
7.97113
6.99457
1.98877
2.56086
8.07626
1.3675
1.56947
2.06927
2.5402
3.06425
3.66412
4.28074
4.88296
5.46749
6.04015
6.6098
7.16246
7.67696
8.14224
8.4733
8.18887
7.02753
1.87403
2.18012
6.44511
0.936693
1.08045
1.53285
1.96804
2.46338
3.04602
3.67073
4.30584
4.95253
5.61081
6.28454
6.95043
7.5664
8.09529
8.43113
7.97019
6.60118
1.95473
1.8841
4.28994
0.665778
0.700153
1.08628
1.47994
1.93184
2.47627
3.09056
3.74401
4.43144
5.15278
5.91129
6.66534
7.36075
7.92233
8.2434
7.72342
6.3604
2.12811
1.89851
2.03558
0.427506
0.434645
0.740642
1.08832
1.50204
2.0189
2.62981
3.28976
3.98924
4.74326
5.55157
6.37938
7.16037
7.78599
8.13199
7.70886
6.42159
2.43439
2.10121
0.889574
0.2265
0.272957
0.518675
0.820304
1.21216
1.72344
2.34847
3.02099
3.72665
4.48093
5.30667
6.19968
7.09516
7.87041
8.34579
8.16881
7.00438
2.76111
2.19128
0.42217
0.104296
0.192189
0.396011
0.658625
1.03784
1.55626
2.21184
2.8782
3.5514
4.25931
5.0763
6.02003
7.02347
7.97385
8.57216
8.4059
6.87647
2.72163
2.0779
0.1644
0.0477261
0.145781
0.315308
0.541387
0.892217
1.38925
2.0157
2.59308
3.12981
3.66345
4.28045
4.95332
5.54743
5.88994
5.78832
5.24005
3.8096
1.53432
1.84592
0.110137
0.0291737
0.0903884
0.209501
0.372342
0.603474
0.905267
1.24867
1.54173
1.74077
1.80878
1.75901
1.65461
1.58968
1.61623
1.75064
1.86216
1.49991
0.266731
1.7228
0.123018
0.0102726
0.0125536
0.0505908
0.0832725
0.116975
0.177442
0.242603
0.303724
0.362754
0.402323
0.410626
0.411994
0.478719
0.61306
0.74847
0.695115
0.37315
0.147565
1.58376
0.136641
0.0110357
0.00135767
0.00189735
0.00550266
0.00391284
0.00409337
0.00493143
0.00550118
0.00660998
0.0086623
0.0119737
0.0158788
0.0193221
0.0200678
0.0200841
0.0279053
0.035618
0.0350384
1.38843
0.0946755
0.00511587
0.000448421
5.78591e-05
1.96253e-05
1.07716e-05
7.61371e-06
8.50822e-06
1.08891e-05
1.64386e-05
2.67274e-05
4.65708e-05
6.82248e-05
9.89779e-05
0.000150683
0.000279129
0.00117486
0.0100175
0.0109911
1.16145
0.0335473
8.6053e-05
2.79691e-07
5.51333e-09
7.88831e-10
7.49772e-10
7.87529e-10
7.15692e-10
7.88076e-10
8.78143e-10
1.22105e-09
1.61415e-09
2.63508e-09
2.46981e-08
1.10852e-05
0.000146493
0.000529464
0.0063068
0.00668872
0.924034
0.00673489
5.31221e-08
1.84408e-08
1.60339e-08
1.50167e-08
1.48782e-08
1.36938e-08
1.21089e-08
1.1057e-08
9.97269e-09
9.09272e-09
8.11301e-09
7.64361e-09
8.49317e-07
0.0002904
0.00674617
0.0230009
0.00726297
0.0179387
0.772124
0.00117247
1.99631e-06
1.87079e-06
1.82141e-06
1.74987e-06
1.69217e-06
1.6332e-06
1.57619e-06
1.51979e-06
1.46383e-06
1.40727e-06
1.34424e-06
1.26298e-06
1.15314e-06
1.3055e-06
3.7625e-05
0.00244163
0.0265718
0.179547
0.689996
0.000676491
0.000642212
0.000641791
0.000641944
0.000641825
0.000641883
0.000642006
0.000642001
0.00064201
0.000641924
0.000641965
0.000642076
0.000641971
0.000641981
0.000641992
0.000642136
0.00065296
0.00211303
0.837706
)
;
    }
    inletOutletRight
    {