/*--------------------------------*- C++ -*----------------------------------*\
| =========                 |                                                 |
| \\      /  F ield         | OpenFOAM: The Open Source CFD Toolbox           |
|  \\    /   O peration     | Version:  4.1                                   |
|   \\  /    A nd           | Web:      www.OpenFOAM.org                      |
|    \\/     M anipulation  |                                                 |
\*---------------------------------------------------------------------------*/
FoamFile
{
    version     2.0;
    format      ascii;
    class       volScalarField;
    location    "6";
    object      nut;
}
// * * * * * * * * * * * * * * * * * * * * * * * * * * * * * * * * * * * * * //

dimensions      [0 2 -1 0 0 0 0];

internalField   nonuniform List<scalar> 
1280
(
6.55293
11.7731
6.56244
6.66105
12.2398
6.68248
6.75003
6.97262
13.3754
7.48112
7.67213
14.9505
8.35682
8.45353
16.42
9.29219
9.48544
18.7532
10.5955
10.7308
0.490015
0.483306
0.535209
0.633949
0.761695
0.987407
0.96221
1.3621
1.80014
2.20627
2.55164
2.86709
3.13369
3.35793
3.57332
3.63362
3.68337
3.6912
3.7392
3.12829
35.3067
19.3308
18.8914
18.4472
31.2708
15.9164
15.2737
14.9505
27.1874
14.4715
14.4349
27.2847
14.8974
15.1286
15.7086
30.798
18.1307
18.5432
18.9615
34.6558
3.01401
3.58105
3.52658
3.51498
3.46862
3.4016
3.19757
2.97778
2.71872
2.41391
2.08286
1.69392
1.28281
0.901571
0.929174
0.719025
0.601443
0.509959
0.462389
0.447035
10.7336
10.6206
18.8421
9.32165
8.97841
15.9092
8.09211
7.87574
13.9177
7.28384
7.0771
12.3168
6.52833
6.32815
6.25159
11.4232
6.22742
6.15259
11.056
6.14905
59.1498
91.7809
109.429
88.4865
67.8629
60.1908
58.293
48.1052
37.5456
30.9939
41.3136
50.1409
63.6721
64.2336
60.51
41.0511
27.0837
21.9039
20.8599
49.3338
79.5394
103.998
90.8105
71.7662
66.5041
63.3874
52.557
41.1184
33.5715
42.8853
53.002
68.0737
72.1991
64.1602
36.8054
24.1224
19.9777
20.7
45.1915
64.7219
92.4956
91.3115
75.0386
69.8312
59.0308
45.8424
35.647
30.7967
41.4649
48.1869
66.1869
77.3284
64.1081
28.918
19.9299
16.7652
18.6257
43.2449
55.3729
79.6808
85.8709
74.1644
75.1307
61.3758
45.8632
32.054
32.446
42.4405
43.0764
60.8182
81.2903
63.7355
22.6711
17.4129
14.803
15.4287
42.4918
48.9568
67.8036
74.0187
65.2218
59.1148
45.2961
34.4138
28.3364
39.2433
42.3241
43.8159
65.7851
81.3394
60.7988
21.019
16.8456
14.2996
13.1882
42.1365
44.1162
55.8018
62.4209
59.652
60.8349
46.7839
34.8173
30.5835
42.9995
45.3719
51.3406
67.8331
78.1649
54.1105
20.4606
19.6185
15.9367
10.5667
43.3457
42.3797
45.8908
50.393
50.3721
49.6053
39.7093
33.5482
36.513
46.1559
46.8063
48.9224
65.841
60.9364
37.6745
21.37
20.7354
20.4352
2.28347
45.6634
44.6716
43.6498
42.2679
42.8906
40.3951
35.6545
36.3811
42.3625
46.9297
43.907
43.613
45.8688
43.3994
30.1727
28.42
24.601
11.4657
8.47809
48.3827
46.0795
45.1365
42.0581
40.8013
38.9238
37.6197
39.268
45.3659
46.1504
42.4233
36.8004
34.9565
34.9556
32.6513
33.8783
18.7967
15.763
17.0165
49.5634
47.8573
47.0205
43.5777
41.8753
40.5338
41.3343
43.3847
40.5375
39.945
39.6225
36.7885
34.9937
32.3601
31.4619
24.9858
19.2402
19.045
22.3359
50.1918
48.7147
48.0634
44.9419
43.6588
42.1949
42.7004
41.9536
39.7151
41.0298
39.3246
36.4126
34.165
33.4945
32.9495
24.3215
19.0499
19.443
22.4817
50.7017
47.8671
46.9117
43.6769
42.2851
40.3706
39.8144
39.692
43.5419
44.3829
40.25
37.646
39.5945
36.0889
34.6976
32.1058
19.5336
16.5256
17.3198
48.9604
47.1815
46.5718
43.9261
42.9449
40.1809
37.3926
36.9646
40.4609
45.0605
46.1499
48.7327
53.4904
46.4583
31.7309
28.7815
25.8923
12.0348
8.72966
47.3587
46.0914
46.0759
46.6616
48.0789
48.0375
41.5706
34.7335
36.0227
46.4282
48.0641
55.653
75.201
48.812
30.1334
23.2815
25.1292
22.9349
2.60907
46.0419
45.4976
52.4275
59.2684
60.8515
63.5474
54.1023
39.659
31.8568
41.9266
44.7682
55.6071
82.6096
58.031
30.2666
22.0449
20.5316
17.8832
10.4946
45.3853
47.9102
64.4731
74.9462
75.1775
71.9942
59.657
43.9661
34.6019
39.7099
45.2355
56.5518
92.6701
73.6859
33.3349
20.0403
17.8347
14.1172
13.4528
45.4216
51.1747
79.2197
90.2122
88.2005
85.0195
76.5428
59.048
43.92
42.8991
49.4586
66.5238
95.9785
84.5681
40.6251
20.6667
18.3488
15.1586
16.4072
46.5727
56.5141
94.984
100.116
94.625
88.0488
81.3176
67.0198
55.5011
51.7242
58.204
75.9849
99.4877
91.1774
51.2002
23.4194
20.143
16.5854
18.9765
49.541
67.0424
111.308
102.46
93.2384
85.2517
83.7912
72.8602
63.101
58.8159
65.55
80.0451
100.089
94.0451
61.8064
30.0629
23.1292
18.7945
20.5509
57.0145
81.0431
118.675
100.698
90.0521
79.8327
79.8544
70.5274
61.4759
57.2831
65.0377
76.4961
95.3322
92.0864
67.4574
35.0504
25.6034
20.23
20.1526
0.655591
2.5092
1.41479
2.20237
4.49463
6.9264
8.72223
9.70946
10.0871
9.68517
9.10112
8.31197
7.69331
7.20978
6.74464
6.20183
5.46161
4.44705
2.94667
0.525242
0.619423
2.34702
1.63398
4.30491
10.0483
14.8176
15.0219
13.2623
10.7964
9.22351
8.33067
7.68785
7.19271
6.80173
6.46614
6.09625
5.56992
4.76371
3.33886
0.468688
0.605226
2.22328
1.06363
2.87216
8.24342
11.9764
12.3132
10.8197
9.29309
8.08266
7.30965
6.77593
6.43095
6.22995
6.07296
5.84634
5.42637
4.70381
3.41265
0.466112
0.577678
2.1254
0.989421
4.10789
11.1232
13.2893
11.6943
9.65242
8.10729
7.11242
6.64308
6.30108
6.1396
6.10634
6.05774
5.87028
5.44509
4.74842
3.57124
0.405651
0.548626
1.92337
0.777579
3.47833
9.87499
11.2919
9.56527
7.99797
7.00994
6.3787
5.91502
5.79419
5.79589
5.86082
5.8918
5.79531
5.48137
4.86784
3.55295
0.377765
0.517398
1.72128
0.602919
3.2572
10.172
10.927
8.94494
7.34678
6.3631
5.81457
5.54842
5.44575
5.48274
5.618
5.73221
5.72075
5.49107
4.92385
3.56895
0.340903
0.474537
1.55119
0.432224
2.44626
9.09599
9.68276
7.82035
6.36406
5.45224
4.96882
4.76668
4.77382
4.8789
5.1392
5.36555
5.48704
5.40954
4.99455
3.67855
0.396106
0.437014
1.37269
0.313755
1.96526
8.29483
8.79145
7.08905
5.79032
4.73133
4.25971
4.15721
4.20449
4.40151
4.6671
4.91557
5.08831
5.07865
4.75436
3.61096
0.465497
0.437874
0.661686
0.300692
1.83216
7.04963
7.61037
6.05196
4.89681
4.06906
3.64654
3.44928
3.57839
3.84013
4.14783
4.41091
4.61478
4.65803
4.40103
3.43407
0.523119
0.461152
0.311224
0.207086
1.58866
5.54066
5.4394
4.32377
3.82351
3.25235
2.99754
2.95813
3.14489
3.40166
3.71166
4.01617
4.2528
4.3512
4.21563
3.38997
0.562438
0.467873
0.14258
0.186078
5.32311
5.75592
4.50409
3.65689
3.08714
2.7056
2.5099
2.50203
2.68499
3.02043
3.44416
3.87904
4.23205
4.46423
4.38294
3.4891
0.545662
0.452089
0.0672456
0.107149
2.90836
4.67176
3.71765
2.96253
2.46792
2.302
2.2363
2.25743
2.4982
2.89091
3.35243
3.6714
3.73363
3.52675
2.90758
2.18636
0.428141
0.425772
0.0397711
0.055783
2.81463
5.99641
7.56219
7.50956
6.22255
4.91498
3.82633
2.95519
2.31397
1.83381
1.45261
1.16681
0.981363
0.956217
1.00494
1.00767
0.176878
0.416863
0.0370328
0.00477268
0.111983
4.36465
10.3936
3.18371
3.01935
2.38333
1.72953
1.28058
1.01021
0.873764
0.844714
0.867614
0.851985
1.38413
3.03133
24.9767
0.252371
0.397509
0.0369037
0.0043908
0.00115053
0.00980251
0.565403
0.475987
0.151399
0.119653
0.0996338
0.0992134
0.102613
0.147929
0.118763
0.115693
0.139432
0.150569
0.235177
0.165806
0.0750417
0.372363
0.0249645
0.0035629
0.00462974
0.000189749
0.000107035
3.51426e-05
1.76113e-05
4.19299e-05
8.95245e-05
0.000197909
0.000489003
0.000820866
0.00119797
0.00161239
0.0050739
0.000231583
0.00234228
0.00705027
0.031601
0.340192
0.00714439
4.93102e-05
3.58594e-09
4.46194e-11
3.03729e-12
1.45881e-13
1.68164e-13
3.28369e-13
4.51349e-13
7.74069e-13
1.32816e-12
2.3868e-12
5.506e-12
3.13598e-10
1.22162e-06
1.37197e-05
0.000152926
0.00326726
0.0123665
0.302979
0.000224118
6.49082e-12
2.40942e-12
5.09142e-12
5.56714e-12
1.89069e-12
1.75135e-12
1.77769e-12
1.65996e-12
1.58901e-12
1.42568e-12
1.26987e-12
1.31351e-12
2.95515e-09
1.32576e-05
0.00150145
0.0163678
0.0117257
0.0398719
0.27757
3.07296e-06
1.94647e-10
1.81328e-10
1.76909e-10
1.69643e-10
1.64241e-10
1.58898e-10
1.53324e-10
1.4783e-10
1.42116e-10
1.36728e-10
1.30991e-10
1.23139e-10
1.12654e-10
1.43573e-10
2.7844e-08
8.30093e-05
0.00421634
0.156669
0.262605
4.58665e-08
4.21117e-08
4.19339e-08
4.19971e-08
4.19248e-08
4.19601e-08
4.20447e-08
4.20379e-08
4.20431e-08
4.19839e-08
4.20106e-08
4.20838e-08
4.20082e-08
4.20084e-08
4.20091e-08
4.21424e-08
4.78044e-08
5.21218e-07
0.373884
0.262607
4.58728e-08
4.21126e-08
4.19314e-08
4.19823e-08
4.19633e-08
4.19561e-08
4.19691e-08
4.20301e-08
4.1965e-08
4.20046e-08
4.20732e-08
4.20355e-08
4.20345e-08
4.20365e-08
4.20093e-08
4.21395e-08
4.78041e-08
5.20802e-07
0.373898
0.277571
3.0741e-06
1.94637e-10
1.813e-10
1.76824e-10
1.69842e-10
1.64207e-10
1.58513e-10
1.53276e-10
1.47462e-10
1.42202e-10
1.36984e-10
1.3078e-10
1.23261e-10
1.12963e-10
1.92972e-10
7.2096e-08
0.000125969
0.00455953
0.16232
0.302966
0.000223828
6.45992e-12
2.38098e-12
1.85509e-12
1.70285e-12
1.95729e-12
1.82661e-12
1.87042e-12
1.64358e-12
1.59228e-12
1.401e-12
1.2663e-12
1.1233e-11
1.05755e-06
0.000222463
0.00687126
0.0353347
0.0040779
0.0432111
0.340192
0.00710081
3.36354e-05
2.93152e-09
2.07747e-12
1.02238e-13
1.39435e-13
1.95811e-13
3.05607e-13
3.4809e-13
5.79533e-13
7.99048e-13
1.45185e-12
3.5769e-12
4.71546e-13
7.39459e-07
4.76252e-05
0.000335985
0.00448938
0.0586924
0.372356
0.0252534
0.00377599
0.00375197
0.000194043
8.67582e-06
5.46754e-06
5.93638e-06
2.09839e-05
4.52396e-05
0.000100966
0.000243826
0.000427205
0.000711326
2.24774e-05
1.52955e-05
4.83913e-05
0.000640503
0.00368649
0.0253594
0.397466
0.0371021
0.00443796
0.000975019
0.0127923
0.0863392
0.179448
0.123101
0.0975485
0.0803442
0.0812345
0.0832649
0.124959
0.0985802
0.107228
0.144001
0.174781
0.349678
0.132846
0.0884089
0.416429
0.0372475
0.00509182
0.0599933
2.41918
3.06085
3.01393
2.61105
2.06234
1.52771
1.1755
0.99828
0.972614
1.09174
1.33329
2.22303
2.87405
5.2393
6.68867
0.288508
0.425286
0.0398334
0.0420605
2.66464
14.3835
7.60782
7.18222
6.08871
4.79323
3.70416
2.8939
2.3231
1.88048
1.49758
1.19565
1.0469
1.01199
1.05234
1.03109
0.256503
0.452038
0.0563041
0.118595
4.61022
4.00028
3.4802
2.8082
2.29363
2.13298
2.08999
2.12825
2.33545
2.60948
2.90487
3.14958
3.29941
3.11562
2.64305
1.60998
0.226236
0.46784
0.156303
0.165323
2.83732
5.36143
4.02241
3.20543
2.75357
2.48854
2.32514
2.33765
2.51399
2.81374
3.19238
3.60441
3.97036
4.22771
4.16538
3.19298
0.360073
0.461892
0.291343
0.223563
2.46569
5.55741
5.39235
4.44718
3.40778
3.00242
2.84577
2.83887
2.97214
3.20183
3.48536
3.78764
4.03686
4.17711
4.09895
3.29003
0.546476
0.438467
0.6935
0.307893
1.69006
6.7532
7.15667
5.26738
4.50424
3.59183
3.28932
3.24182
3.37085
3.62347
3.92588
4.18431
4.41279
4.49365
4.31027
3.37515
0.492967
0.437256
1.3721
0.316221
1.85319
8.00269
8.71639
7.07619
5.43767
4.56467
4.07186
3.90923
3.95376
4.15113
4.422
4.66793
4.84252
4.84101
4.53125
3.42162
0.401144
0.475224
1.55484
0.425405
2.31196
8.12592
9.09487
7.34806
5.99005
5.09292
4.6436
4.48014
4.49438
4.59582
4.85317
5.04818
5.11974
4.98592
4.53345
3.3225
0.312377
0.518961
1.72858
0.592282
2.99452
9.23305
10.3655
8.60373
7.0412
6.05716
5.51109
5.23257
5.13704
5.17354
5.29247
5.33841
5.21924
4.85775
4.24627
3.04982
0.277598
0.550358
1.92821
0.753732
3.22842
9.11426
10.8134
9.26444
7.70493
6.71674
6.08209
5.62062
5.49131
5.47105
5.50812
5.47989
5.28221
4.85133
4.20937
3.08385
0.325387
0.579405
2.12762
0.959891
3.78397
10.2916
12.6324
11.3214
9.32523
7.75169
6.80337
6.36681
6.02282
5.84091
5.76203
5.66323
5.39576
4.87428
4.13904
3.00044
0.351277
0.606725
2.22243
1.03088
2.69724
7.75753
11.414
11.8985
10.4831
8.96758
7.76938
7.01457
6.5007
6.14675
5.91912
5.72615
5.45194
4.98155
4.23896
3.15323
0.460263
0.620627
2.34137
1.59698
4.0834
9.48566
14.1818
14.676
12.9801
10.4875
8.90683
7.99771
7.35919
6.88353
6.49245
6.14717
5.76254
5.22107
4.41366
3.11487
0.44879
0.65653
2.50494
1.38794
2.08975
4.2583
6.60945
8.3285
9.30434
9.71714
9.34606
8.75822
7.98464
7.37946
6.88633
6.41338
5.87289
5.1443
4.14666
2.76192
0.513032
)
;

boundaryField
{
    outletWall
    {
        type            calculated;
        value           nonuniform List<scalar> 
60
(
6.14905
20.8599
21.9039
27.0837
41.0511
60.51
64.2336
63.6721
50.1409
41.3136
30.9939
37.5456
48.1052
58.293
60.1908
67.8629
88.4865
109.429
91.7809
59.1498
57.0145
49.541
46.5727
45.4216
45.3853
46.0419
47.3587
48.9604
50.7017
50.1918
49.5634
48.3827
45.6634
43.3457
42.1365
42.4918
43.2449
45.1915
49.3338
59.1498
6.55293
20.1526
20.23
25.6034
35.0504
67.4574
92.0864
95.3322
76.4961
65.0377
57.2831
61.4759
70.5274
79.8544
79.8327
90.0521
100.698
118.675
81.0431
57.0145
)
;
    }
    fineWalls
    {
        type            nutkWallFunction;
        Cmu             0.09;
        kappa           0.41;
        E               9.8;
        value           nonuniform List<scalar> 
60
(
0.643495
0.640075
1.09948
0.569429
0.557486
0.95463
0.508461
0.499791
0.861105
0.462318
0.4505
0.770472
0.422822
0.409801
0.403962
0.703731
0.399243
0.393761
0.677866
0.391917
1.85928
1.05544
1.03452
1.01344
1.67105
0.889287
0.860224
0.848905
1.50542
0.832197
0.833352
1.51181
0.855339
0.868943
0.900301
1.69538
1.02935
1.05156
1.07338
1.89117
0.368374
0.637184
0.370157
0.375095
0.661608
0.381763
0.388465
0.401442
0.730368
0.42916
0.44149
0.822869
0.480141
0.491993
0.934727
0.545003
0.557398
1.07777
0.626623
0.628982
)
;
    }
    fineFrontAndBack
    {
        type            calculated;
        value           nonuniform List<scalar> 
960
(
6.55293
11.7731
6.56244
6.66105
12.2398
6.68248
6.75003
6.97262
13.3754
7.48112
7.67213
14.9505
8.35682
8.45353
16.42
9.29219
9.48544
18.7532
10.5955
10.7308
1.07969e+14
0.483306
0.535209
0.633949
0.761695
0.987407
0.96221
1.3621
1.80014
2.20627
2.55164
2.86709
3.13369
3.35793
3.57332
3.63362
3.68337
3.6912
3.7392
3.12829
35.3067
19.3308
18.8914
18.4472
31.2708
15.9164
15.2737
14.9505
27.1874
14.4715
14.4349
27.2847
14.8974
15.1286
15.7086
30.798
18.1307
18.5432
18.9615
34.6558
3.01401
3.58105
3.52658
3.51498
3.46862
3.4016
3.19757
2.97778
2.71872
2.41391
2.08286
1.69392
1.28281
0.901571
0.929174
0.719025
0.601443
0.509959
0.462389
9.64476e+13
10.7336
10.6206
18.8421
9.32165
8.97841
15.9092
8.09211
7.87574
13.9177
7.28384
7.0771
12.3168
6.52833
6.32815
6.25159
11.4232
6.22742
6.15259
11.056
6.14905
59.1498
91.7809
109.429
88.4865
67.8629
60.1908
58.293
48.1052
37.5456
30.9939
41.3136
50.1409
63.6721
64.2336
60.51
41.0511
27.0837
21.9039
20.8599
49.3338
79.5394
103.998
90.8105
71.7662
66.5041
63.3874
52.557
41.1184
33.5715
42.8853
53.002
68.0737
72.1991
64.1602
36.8054
24.1224
19.9777
20.7
45.1915
64.7219
92.4956
91.3115
75.0386
69.8312
59.0308
45.8424
35.647
30.7967
41.4649
48.1869
66.1869
77.3284
64.1081
28.918
19.9299
16.7652
18.6257
43.2449
55.3729
79.6808
85.8709
74.1644
75.1307
61.3758
45.8632
32.054
32.446
42.4405
43.0764
60.8182
81.2903
63.7355
22.6711
17.4129
14.803
15.4287
42.4918
48.9568
67.8036
74.0187
65.2218
59.1148
45.2961
34.4138
28.3364
39.2433
42.3241
43.8159
65.7851
81.3394
60.7988
21.019
16.8456
14.2996
13.1882
42.1365
44.1162
55.8018
62.4209
59.652
60.8349
46.7839
34.8173
30.5835
42.9995
45.3719
51.3406
67.8331
78.1649
54.1105
20.4606
19.6185
15.9367
10.5667
43.3457
42.3797
45.8908
50.393
50.3721
49.6053
39.7093
33.5482
36.513
46.1559
46.8063
48.9224
65.841
60.9364
37.6745
21.37
20.7354
20.4352
2.28347
45.6634
44.6716
43.6498
42.2679
42.8906
40.3951
35.6545
36.3811
42.3625
46.9297
43.907
43.613
45.8688
43.3994
30.1727
28.42
24.601
11.4657
8.47809
48.3827
46.0795
45.1365
42.0581
40.8013
38.9238
37.6197
39.268
45.3659
46.1504
42.4233
36.8004
34.9565
34.9556
32.6513
33.8783
18.7967
15.763
17.0165
49.5634
47.8573
47.0205
43.5777
41.8753
40.5338
41.3343
43.3847
40.5375
39.945
39.6225
36.7885
34.9937
32.3601
31.4619
24.9858
19.2402
19.045
22.3359
50.1918
48.7147
48.0634
44.9419
43.6588
42.1949
42.7004
41.9536
39.7151
41.0298
39.3246
36.4126
34.165
33.4945
32.9495
24.3215
19.0499
19.443
22.4817
50.7017
47.8671
46.9117
43.6769
42.2851
40.3706
39.8144
39.692
43.5419
44.3829
40.25
37.646
39.5945
36.0889
34.6976
32.1058
19.5336
16.5256
17.3198
48.9604
47.1815
46.5718
43.9261
42.9449
40.1809
37.3926
36.9646
40.4609
45.0605
46.1499
48.7327
53.4904
46.4583
31.7309
28.7815
25.8923
12.0348
8.72966
47.3587
46.0914
46.0759
46.6616
48.0789
48.0375
41.5706
34.7335
36.0227
46.4282
48.0641
55.653
75.201
48.812
30.1334
23.2815
25.1292
22.9349
2.60907
46.0419
45.4976
52.4275
59.2684
60.8515
63.5474
54.1023
39.659
31.8568
41.9266
44.7682
55.6071
82.6096
58.031
30.2666
22.0449
20.5316
17.8832
10.4946
45.3853
47.9102
64.4731
74.9462
75.1775
71.9942
59.657
43.9661
34.6019
39.7099
45.2355
56.5518
92.6701
73.6859
33.3349
20.0403
17.8347
14.1172
13.4528
45.4216
51.1747
79.2197
90.2122
88.2005
85.0195
76.5428
59.048
43.92
42.8991
49.4586
66.5238
95.9785
84.5681
40.6251
20.6667
18.3488
15.1586
16.4072
46.5727
56.5141
94.984
100.116
94.625
88.0488
81.3176
67.0198
55.5011
51.7242
58.204
75.9849
99.4877
91.1774
51.2002
23.4194
20.143
16.5854
18.9765
49.541
67.0424
111.308
102.46
93.2384
85.2517
83.7912
72.8602
63.101
58.8159
65.55
80.0451
100.089
94.0451
61.8064
30.0629
23.1292
18.7945
20.5509
57.0145
81.0431
118.675
100.698
90.0521
79.8327
79.8544
70.5274
61.4759
57.2831
65.0377
76.4961
95.3322
92.0864
67.4574
35.0504
25.6034
20.23
20.1526
6.55293
11.7731
6.56244
6.66105
12.2398
6.68248
6.75003
6.97262
13.3754
7.48112
7.67213
14.9505
8.35682
8.45353
16.42
9.29219
9.48544
18.7532
10.5955
10.7308
1.07969e+14
0.483306
0.535209
0.633949
0.761695
0.987407
0.96221
1.3621
1.80014
2.20627
2.55164
2.86709
3.13369
3.35793
3.57332
3.63362
3.68337
3.6912
3.7392
3.12829
35.3067
19.3308
18.8914
18.4472
31.2708
15.9164
15.2737
14.9505
27.1874
14.4715
14.4349
27.2847
14.8974
15.1286
15.7086
30.798
18.1307
18.5432
18.9615
34.6558
3.01401
3.58105
3.52658
3.51498
3.46862
3.4016
3.19757
2.97778
2.71872
2.41391
2.08286
1.69392
1.28281
0.901571
0.929174
0.719025
0.601443
0.509959
0.462389
9.64476e+13
10.7336
10.6206
18.8421
9.32165
8.97841
15.9092
8.09211
7.87574
13.9177
7.28384
7.0771
12.3168
6.52833
6.32815
6.25159
11.4232
6.22742
6.15259
11.056
6.14905
59.1498
91.7809
109.429
88.4865
67.8629
60.1908
58.293
48.1052
37.5456
30.9939
41.3136
50.1409
63.6721
64.2336
60.51
41.0511
27.0837
21.9039
20.8599
49.3338
79.5394
103.998
90.8105
71.7662
66.5041
63.3874
52.557
41.1184
33.5715
42.8853
53.002
68.0737
72.1991
64.1602
36.8054
24.1224
19.9777
20.7
45.1915
64.7219
92.4956
91.3115
75.0386
69.8312
59.0308
45.8424
35.647
30.7967
41.4649
48.1869
66.1869
77.3284
64.1081
28.918
19.9299
16.7652
18.6257
43.2449
55.3729
79.6808
85.8709
74.1644
75.1307
61.3758
45.8632
32.054
32.446
42.4405
43.0764
60.8182
81.2903
63.7355
22.6711
17.4129
14.803
15.4287
42.4918
48.9568
67.8036
74.0187
65.2218
59.1148
45.2961
34.4138
28.3364
39.2433
42.3241
43.8159
65.7851
81.3394
60.7988
21.019
16.8456
14.2996
13.1882
42.1365
44.1162
55.8018
62.4209
59.652
60.8349
46.7839
34.8173
30.5835
42.9995
45.3719
51.3406
67.8331
78.1649
54.1105
20.4606
19.6185
15.9367
10.5667
43.3457
42.3797
45.8908
50.393
50.3721
49.6053
39.7093
33.5482
36.513
46.1559
46.8063
48.9224
65.841
60.9364
37.6745
21.37
20.7354
20.4352
2.28347
45.6634
44.6716
43.6498
42.2679
42.8906
40.3951
35.6545
36.3811
42.3625
46.9297
43.907
43.613
45.8688
43.3994
30.1727
28.42
24.601
11.4657
8.47809
48.3827
46.0795
45.1365
42.0581
40.8013
38.9238
37.6197
39.268
45.3659
46.1504
42.4233
36.8004
34.9565
34.9556
32.6513
33.8783
18.7967
15.763
17.0165
49.5634
47.8573
47.0205
43.5777
41.8753
40.5338
41.3343
43.3847
40.5375
39.945
39.6225
36.7885
34.9937
32.3601
31.4619
24.9858
19.2402
19.045
22.3359
50.1918
48.7147
48.0634
44.9419
43.6588
42.1949
42.7004
41.9536
39.7151
41.0298
39.3246
36.4126
34.165
33.4945
32.9495
24.3215
19.0499
19.443
22.4817
50.7017
47.8671
46.9117
43.6769
42.2851
40.3706
39.8144
39.692
43.5419
44.3829
40.25
37.646
39.5945
36.0889
34.6976
32.1058
19.5336
16.5256
17.3198
48.9604
47.1815
46.5718
43.9261
42.9449
40.1809
37.3926
36.9646
40.4609
45.0605
46.1499
48.7327
53.4904
46.4583
31.7309
28.7815
25.8923
12.0348
8.72966
47.3587
46.0914
46.0759
46.6616
48.0789
48.0375
41.5706
34.7335
36.0227
46.4282
48.0641
55.653
75.201
48.812
30.1334
23.2815
25.1292
22.9349
2.60907
46.0419
45.4976
52.4275
59.2684
60.8515
63.5474
54.1023
39.659
31.8568
41.9266
44.7682
55.6071
82.6096
58.031
30.2666
22.0449
20.5316
17.8832
10.4946
45.3853
47.9102
64.4731
74.9462
75.1775
71.9942
59.657
43.9661
34.6019
39.7099
45.2355
56.5518
92.6701
73.6859
33.3349
20.0403
17.8347
14.1172
13.4528
45.4216
51.1747
79.2197
90.2122
88.2005
85.0195
76.5428
59.048
43.92
42.8991
49.4586
66.5238
95.9785
84.5681
40.6251
20.6667
18.3488
15.1586
16.4072
46.5727
56.5141
94.984
100.116
94.625
88.0488
81.3176
67.0198
55.5011
51.7242
58.204
75.9849
99.4877
91.1774
51.2002
23.4194
20.143
16.5854
18.9765
49.541
67.0424
111.308
102.46
93.2384
85.2517
83.7912
72.8602
63.101
58.8159
65.55
80.0451
100.089
94.0451
61.8064
30.0629
23.1292
18.7945
20.5509
57.0145
81.0431
118.675
100.698
90.0521
79.8327
79.8544
70.5274
61.4759
57.2831
65.0377
76.4961
95.3322
92.0864
67.4574
35.0504
25.6034
20.23
20.1526
)
;
    }
    fineplugLeft
    {
        type            cyclicAMI;
        value           nonuniform List<scalar> 
20
(
1.04585
3.10518
4.29588
5.10596
5.68818
6.11038
6.43941
6.78139
7.22299
7.79123
8.18939
8.42969
8.03999
7.83985
5.7386
3.74804
1.88869
1.23888
2.10402
0.622476
)
;
    }
    fineplugRight
    {
        type            cyclicAMI;
        value           nonuniform List<scalar> 
20
(
1.01323
2.92575
4.02264
4.81844
5.39204
5.81103
6.14858
6.49913
6.93146
7.48936
7.89342
8.1125
7.70004
7.484
5.47339
3.55044
1.79209
1.21235
2.09643
0.614631
)
;
    }
    inletOutletLeft
    {
        type            cyclicAMI;
        value           nonuniform List<scalar> 
20
(
1.04585
3.10518
4.29588
5.10596
5.68818
6.11038
6.43941
6.78139
7.22299
7.79123
8.18939
8.42969
8.03999
7.83985
5.7386
3.74804
1.88869
1.23888
2.10402
0.622476
)
;
    }
    inletLeft
    {
        type            calculated;
        value           uniform 5.26945e-05;
    }
    inletWallsLeft
    {
        type            nutkWallFunction;
        Cmu             0.09;
        kappa           0.41;
        E               9.8;
        value           nonuniform List<scalar> 
40
(
0.0207163
0.0218187
0.0237031
0.0263412
0.0286044
0.0303977
0.0316031
0.0326276
0.0344631
0.0353203
0.0346414
0.0330541
0.0329378
0.035237
0.0379609
0.0403998
0.0426939
0.0446326
0.0457059
0.0478619
0.0379934
0.035966
0.0365103
0.0346296
0.0337715
0.0328564
0.033503
0.0348457
0.0370817
0.0393067
0.0390455
0.0299555
0.0133758
0.0101919
0.00527644
0.00310886
0.00247946
0.00388685
0.0111521
0.0226546
)
;
    }
    inletFacesLeft
    {
        type            calculated;
        value           nonuniform List<scalar> 
800
(
0.655591
2.5092
1.41479
2.20237
4.49463
6.9264
8.72223
9.70946
10.0871
9.68517
9.10112
8.31197
7.69331
7.20978
6.74464
6.20183
5.46161
4.44705
2.94667
0.525242
0.619423
2.34702
1.63398
4.30491
10.0483
14.8176
15.0219
13.2623
10.7964
9.22351
8.33067
7.68785
7.19271
6.80173
6.46614
6.09625
5.56992
4.76371
3.33886
0.468688
0.605226
2.22328
1.06363
2.87216
8.24342
11.9764
12.3132
10.8197
9.29309
8.08266
7.30965
6.77593
6.43095
6.22995
6.07296
5.84634
5.42637
4.70381
3.41265
0.466112
0.577678
2.1254
0.989421
4.10789
11.1232
13.2893
11.6943
9.65242
8.10729
7.11242
6.64308
6.30108
6.1396
6.10634
6.05774
5.87028
5.44509
4.74842
3.57124
0.405651
0.548626
1.92337
0.777579
3.47833
9.87499
11.2919
9.56527
7.99797
7.00994
6.3787
5.91502
5.79419
5.79589
5.86082
5.8918
5.79531
5.48137
4.86784
3.55295
0.377765
0.517398
1.72128
0.602919
3.2572
10.172
10.927
8.94494
7.34678
6.3631
5.81457
5.54842
5.44575
5.48274
5.618
5.73221
5.72075
5.49107
4.92385
3.56895
0.340903
0.474537
1.55119
0.432224
2.44626
9.09599
9.68276
7.82035
6.36406
5.45224
4.96882
4.76668
4.77382
4.8789
5.1392
5.36555
5.48704
5.40954
4.99455
3.67855
0.396106
0.437014
1.37269
0.313755
1.96526
8.29483
8.79145
7.08905
5.79032
4.73133
4.25971
4.15721
4.20449
4.40151
4.6671
4.91557
5.08831
5.07865
4.75436
3.61096
0.465497
0.437874
0.661686
0.300692
1.83216
7.04963
7.61037
6.05196
4.89681
4.06906
3.64654
3.44928
3.57839
3.84013
4.14783
4.41091
4.61478
4.65803
4.40103
3.43407
0.523119
0.461152
0.311224
0.207086
1.58866
5.54066
5.4394
4.32377
3.82351
3.25235
2.99754
2.95813
3.14489
3.40166
3.71166
4.01617
4.2528
4.3512
4.21563
3.38997
0.562438
0.467873
0.14258
0.186078
5.32311
5.75592
4.50409
3.65689
3.08714
2.7056
2.5099
2.50203
2.68499
3.02043
3.44416
3.87904
4.23205
4.46423
4.38294
3.4891
0.545662
0.452089
0.0672456
0.107149
2.90836
4.67176
3.71765
2.96253
2.46792
2.302
2.2363
2.25743
2.4982
2.89091
3.35243
3.6714
3.73363
3.52675
2.90758
2.18636
0.428141
0.425772
0.0397711
0.055783
2.81463
5.99641
7.56219
7.50956
6.22255
4.91498
3.82633
2.95519
2.31397
1.83381
1.45261
1.16681
0.981363
0.956217
1.00494
1.00767
0.176878
0.416863
0.0370328
0.00477268
0.111983
2.30349e+11
10.3936
3.18371
3.01935
2.38333
1.72953
1.28058
1.01021
0.873764
0.844714
0.867614
0.851985
1.38413
4.34867e+13
24.9767
0.252371
0.397509
0.0369037
0.0043908
0.00115053
0.00980251
0.565403
0.475987
0.151399
0.119653
0.0996338
0.0992134
0.102613
0.147929
0.118763
0.115693
0.139432
0.150569
0.235177
0.165806
0.0750417
0.372363
0.0249645
0.0035629
0.00462974
301290
0.000107035
3.51426e-05
1.76113e-05
4.19299e-05
8.95245e-05
0.000197909
0.000489003
0.000820866
0.00119797
0.00161239
0.0050739
0.000231583
0.00234228
0.00705027
0.031601
0.340192
0.00714439
4.93102e-05
3.58594e-09
4.46194e-11
3.03729e-12
1.45881e-13
1.68164e-13
3.28369e-13
4.51349e-13
7.74069e-13
1.32816e-12
2.3868e-12
5.506e-12
3.13598e-10
1.22162e-06
1.37197e-05
0.000152926
0.00326726
0.0123665
0.302979
0.000224118
6.49082e-12
2.40942e-12
5.09142e-12
5.56714e-12
1.89069e-12
1.75135e-12
1.77769e-12
1.65996e-12
1.58901e-12
1.42568e-12
1.26987e-12
1.31351e-12
2.95515e-09
1.32576e-05
0.00150145
0.0163678
0.0117257
0.0398719
0.27757
3.07296e-06
1.94647e-10
1.81328e-10
1.76909e-10
1.69643e-10
1.64241e-10
1.58898e-10
1.53324e-10
1.4783e-10
1.42116e-10
1.36728e-10
1.30991e-10
1.23139e-10
1.12654e-10
1.43573e-10
2.7844e-08
8.30093e-05
0.00421634
0.156669
0.262605
4.58665e-08
4.21117e-08
4.19339e-08
4.19971e-08
4.19248e-08
4.19601e-08
4.20447e-08
4.20379e-08
4.20431e-08
4.19839e-08
4.20106e-08
4.20838e-08
4.20082e-08
4.20084e-08
4.20091e-08
4.21424e-08
4.78044e-08
5.21218e-07
0.373884
0.655591
2.5092
1.41479
2.20237
4.49463
6.9264
8.72223
9.70946
10.0871
9.68517
9.10112
8.31197
7.69331
7.20978
6.74464
6.20183
5.46161
4.44705
2.94667
0.525242
0.619423
2.34702
1.63398
4.30491
10.0483
14.8176
15.0219
13.2623
10.7964
9.22351
8.33067
7.68785
7.19271
6.80173
6.46614
6.09625
5.56992
4.76371
3.33886
0.468688
0.605226
2.22328
1.06363
2.87216
8.24342
11.9764
12.3132
10.8197
9.29309
8.08266
7.30965
6.77593
6.43095
6.22995
6.07296
5.84634
5.42637
4.70381
3.41265
0.466112
0.577678
2.1254
0.989421
4.10789
11.1232
13.2893
11.6943
9.65242
8.10729
7.11242
6.64308
6.30108
6.1396
6.10634
6.05774
5.87028
5.44509
4.74842
3.57124
0.405651
0.548626
1.92337
0.777579
3.47833
9.87499
11.2919
9.56527
7.99797
7.00994
6.3787
5.91502
5.79419
5.79589
5.86082
5.8918
5.79531
5.48137
4.86784
3.55295
0.377765
0.517398
1.72128
0.602919
3.2572
10.172
10.927
8.94494
7.34678
6.3631
5.81457
5.54842
5.44575
5.48274
5.618
5.73221
5.72075
5.49107
4.92385
3.56895
0.340903
0.474537
1.55119
0.432224
2.44626
9.09599
9.68276
7.82035
6.36406
5.45224
4.96882
4.76668
4.77382
4.8789
5.1392
5.36555
5.48704
5.40954
4.99455
3.67855
0.396106
0.437014
1.37269
0.313755
1.96526
8.29483
8.79145
7.08905
5.79032
4.73133
4.25971
4.15721
4.20449
4.40151
4.6671
4.91557
5.08831
5.07865
4.75436
3.61096
0.465497
0.437874
0.661686
0.300692
1.83216
7.04963
7.61037
6.05196
4.89681
4.06906
3.64654
3.44928
3.57839
3.84013
4.14783
4.41091
4.61478
4.65803
4.40103
3.43407
0.523119
0.461152
0.311224
0.207086
1.58866
5.54066
5.4394
4.32377
3.82351
3.25235
2.99754
2.95813
3.14489
3.40166
3.71166
4.01617
4.2528
4.3512
4.21563
3.38997
0.562438
0.467873
0.14258
0.186078
5.32311
5.75592
4.50409
3.65689
3.08714
2.7056
2.5099
2.50203
2.68499
3.02043
3.44416
3.87904
4.23205
4.46423
4.38294
3.4891
0.545662
0.452089
0.0672456
0.107149
2.90836
4.67176
3.71765
2.96253
2.46792
2.302
2.2363
2.25743
2.4982
2.89091
3.35243
3.6714
3.73363
3.52675
2.90758
2.18636
0.428141
0.425772
0.0397711
0.055783
2.81463
5.99641
7.56219
7.50956
6.22255
4.91498
3.82633
2.95519
2.31397
1.83381
1.45261
1.16681
0.981363
0.956217
1.00494
1.00767
0.176878
0.416863
0.0370328
0.00477268
0.111983
2.30349e+11
10.3936
3.18371
3.01935
2.38333
1.72953
1.28058
1.01021
0.873764
0.844714
0.867614
0.851985
1.38413
4.34867e+13
24.9767
0.252371
0.397509
0.0369037
0.0043908
0.00115053
0.00980251
0.565403
0.475987
0.151399
0.119653
0.0996338
0.0992134
0.102613
0.147929
0.118763
0.115693
0.139432
0.150569
0.235177
0.165806
0.0750417
0.372363
0.0249645
0.0035629
0.00462974
301290
0.000107035
3.51426e-05
1.76113e-05
4.19299e-05
8.95245e-05
0.000197909
0.000489003
0.000820866
0.00119797
0.00161239
0.0050739
0.000231583
0.00234228
0.00705027
0.031601
0.340192
0.00714439
4.93102e-05
3.58594e-09
4.46194e-11
3.03729e-12
1.45881e-13
1.68164e-13
3.28369e-13
4.51349e-13
7.74069e-13
1.32816e-12
2.3868e-12
5.506e-12
3.13598e-10
1.22162e-06
1.37197e-05
0.000152926
0.00326726
0.0123665
0.302979
0.000224118
6.49082e-12
2.40942e-12
5.09142e-12
5.56714e-12
1.89069e-12
1.75135e-12
1.77769e-12
1.65996e-12
1.58901e-12
1.42568e-12
1.26987e-12
1.31351e-12
2.95515e-09
1.32576e-05
0.00150145
0.0163678
0.0117257
0.0398719
0.27757
3.07296e-06
1.94647e-10
1.81328e-10
1.76909e-10
1.69643e-10
1.64241e-10
1.58898e-10
1.53324e-10
1.4783e-10
1.42116e-10
1.36728e-10
1.30991e-10
1.23139e-10
1.12654e-10
1.43573e-10
2.7844e-08
8.30093e-05
0.00421634
0.156669
0.262605
4.58665e-08
4.21117e-08
4.19339e-08
4.19971e-08
4.19248e-08
4.19601e-08
4.20447e-08
4.20379e-08
4.20431e-08
4.19839e-08
4.20106e-08
4.20838e-08
4.20082e-08
4.20084e-08
4.20091e-08
4.21424e-08
4.78044e-08
5.21218e-07
0.373884
)
;
    }
    inletOutletRight
    {
        type            cyclicAMI;
        value           nonuniform List<scalar> 
20
(
1.01323
2.92575
4.02264
4.81844