/*--------------------------------*- C++ -*----------------------------------*\
| =========                 |                                                 |
| \\      /  F ield         | OpenFOAM: The Open Source CFD Toolbox           |
|  \\    /   O peration     | Version:  4.1                                   |
|   \\  /    A nd           | Web:      www.OpenFOAM.org                      |
|    \\/     M anipulation  |                                                 |
\*---------------------------------------------------------------------------*/
FoamFile
{
    version     2.0;
    format      ascii;
    class       volScalarField;
    location    "6";
    object      p;
}
// * * * * * * * * * * * * * * * * * * * * * * * * * * * * * * * * * * * * * //

dimensions      [0 2 -2 0 0 0 0];

internalField   nonuniform List<scalar> 
1280
(
0.0936665
-0.104156
0.0127633
-0.178934
-0.0835218
-0.0455594
-0.271683
-0.445442
-0.573531
-0.664773
-1.05932
-1.4794
-1.8959
-2.97022
-3.58189
-5.37948
-7.41179
-9.41245
-11.5545
-21.8518
-15.0827
-2.02625
11.2969
16.5671
19.6575
24.3785
-11.6969
10.2779
10.2313
9.76323
9.51812
9.21034
8.86688
8.32635
7.88246
6.84765
6.3532
4.16935
3.56507
-0.58017
-42.636
-17.7721
-11.4517
-8.13891
0.562438
2.1685
1.78972
2.39799
1.88415
2.38294
2.34483
2.04963
2.40005
1.80334
2.15224
0.576336
-8.16481
-11.5096
-17.864
-42.8229
-0.884122
3.27239
3.88177
6.10497
6.67647
7.76274
8.25642
8.82368
9.1873
9.50087
9.75712
10.2389
10.242
-12.1876
24.1124
19.4265
16.4013
11.1739
-2.1401
-15.1973
-21.9667
-11.5241
-9.06673
-7.02445
-5.0771
-3.27898
-2.69285
-1.67258
-1.29673
-0.871897
-0.502553
-0.433789
-0.31896
-0.165807
0.041391
-0.00909462
-0.123148
0.0456217
-0.0817709
0.0995948
-0.210063
-0.415289
-0.679049
-0.425056
-1.91362
-1.4487
-0.157851
0.911175
1.87261
1.90751
0.577903
-0.766879
-1.04043
-0.33754
0.277332
0.441641
0.0784086
-0.0659294
-0.0860427
-0.317323
-0.528377
-1.77461
-2.38632
-4.50715
-2.31372
0.697146
3.34426
5.43338
5.31071
2.13501
-0.90511
-1.22672
0.285109
1.30647
1.48884
0.285678
-0.122656
-0.200254
-0.613911
-1.08274
-4.17372
-6.44677
-7.30168
-3.37534
1.00019
4.5034
7.07624
6.74697
2.13487
-2.00705
-2.58895
0.236127
1.91871
2.19935
0.362166
-0.366123
-0.432208
-0.994163
-1.16718
-5.31309
-8.95653
-9.6392
-4.64619
1.31879
5.8873
9.02391
8.02306
1.68358
-4.08595
-4.50912
0.344063
2.62872
2.78082
0.274922
-0.779498
-0.84715
-1.34746
-1.08259
-6.23201
-11.1187
-11.6646
-5.82267
1.647
7.13472
10.5195
8.34285
0.0541229
-7.9304
-8.31476
0.877262
4.09267
3.4287
-0.0229671
-1.57665
-1.54099
-1.70924
-0.737894
-6.44827
-11.9721
-12.5125
-6.54097
2.02699
8.20069
11.557
8.22413
-1.36932
-11.5269
-12.7935
1.45615
6.72401
4.74653
-0.677425
-3.13435
-2.22969
-1.96363
-0.271711
-6.33803
-12.1521
-12.8058
-6.94079
2.39285
8.97076
11.6889
8.55333
-1.00359
-13.3514
-14.1301
2.44415
10.0216
6.25691
-2.83377
-7.49072
-6.26074
-2.14305
0.288957
-5.77762
-11.2819
-12.0319
-6.40501
3.12572
9.58037
11.2521
9.12068
0.441341
-13.7117
-14.8683
2.38194
11.796
7.32552
-0.233258
-3.46109
-2.83818
-2.213
0.847678
-5.12144
-10.2723
-11.2218
-5.71841
3.78457
9.87251
10.6119
8.83954
1.99272
-11.0031
-13.1766
3.56467
14.4089
8.51192
1.08576
10.6016
18.3726
-2.24056
1.2595
-4.37807
-8.9197
-10.1318
-4.56299
4.88152
10.3844
10.481
8.69609
2.87468
-8.46434
-9.83413
5.23169
13.6055
9.30389
5.33756
21.8188
12.0598
-2.23238
1.37443
-4.08935
-8.39061
-9.84099
-4.42758
4.82131
10.3224
10.5417
8.7099
2.41196
-8.98698
-9.80584
6.58822
13.8724
9.42272
5.14705
21.9964
12.1382
-2.21639
1.17366
-4.39165
-9.04826
-10.6963
-5.42683
4.0612
10.0487
10.5137
8.41089
0.233556
-12.3705
-12.1171
8.50378
15.5429
8.95672
-0.431806
10.165
18.2573
-2.16606
0.809029
-4.79391
-9.81886
-11.4217
-6.50057
3.07824
9.65533
11.2375
8.65849
-1.72474
-13.865
-12.1681
7.8169
14.0704
7.14064
-3.61808
-5.0869
-2.52358
-1.98094
0.350855
-5.27756
-10.8821
-12.4113
-7.57219
2.23424
9.08899
11.5861
8.24331
-2.60852
-12.6858
-10.3029
7.57544
12.2179
5.23387
-5.67993
-8.65309
-5.35331
-1.70165
-0.129036
-5.49233
-11.3147
-12.5847
-7.76349
1.609
8.20975
11.2755
8.61605
-0.981718
-10.091
-7.44392
5.49967
8.99233
4.13514
-2.2408
-4.19427
-2.06076
-1.30947
-0.573696
-5.44854
-11.1786
-12.2456
-7.4014
1.10728
6.99767
10.1559
8.62178
1.31535
-5.88352
-3.91199
3.89862
6.08032
3.15608
-0.819131
-2.51754
-1.78353
-0.9436
-0.803023
-4.75429
-9.62556
-10.4813
-6.25562
0.738196
5.59733
8.49403
7.81227
2.23955
-3.11035
-2.46153
2.52884
4.34099
2.80531
-0.164399
-1.32402
-0.931061
-0.571059
-0.851044
-3.7862
-7.44055
-8.24457
-4.79308
0.500409
4.13106
6.45809
6.13424
2.12379
-1.87438
-1.29252
1.89017
3.14918
2.33954
0.0841425
-0.703615
-0.547136
-0.297679
-0.442898
-1.70676
-3.2164
-4.50249
-3.13487
0.377074
2.95511
4.75913
4.62362
1.91556
-0.790191
-0.526516
1.30216
2.05117
1.64869
0.133339
-0.286523
-0.255114
-0.211948
-0.387104
-0.692988
-0.694087
-1.35008
-1.65863
-0.29862
0.68662
1.373
1.31769
0.18234
-0.955628
-0.845043
0.0335825
0.538322
0.523329
0.0310588
-0.113278
-0.109121
119.153
118.326
116.858
118.327
115.454
114.173
111.689
109.986
108.05
106.538
105.14
103.975
102.983
102.086
101.427
100.632
100.427
99.5121
100.211
99.2142
63.7596
64.8883
65.4194
68.0012
67.2252
68.5094
68.4963
69.4688
69.8713
70.5786
71.1105
71.7419
72.3583
73.0007
73.7011
74.3296
75.2473
75.8075
77.3031
77.971
72.8455
72.5687
73.1845
75.0597
74.1584
75.0342
74.6173
74.9672
74.8422
74.9875
75.0666
75.2787
75.5356
75.8757
76.294
76.7089
77.4061
77.7924
79.1408
79.4893
53.5144
53.6718
54.6353
56.5395
56.0069
56.9482
56.7352
57.1119
57.1452
57.3646
57.5882
57.9149
58.3121
58.8161
59.3884
60.0374
60.8889
61.5961
63.0615
63.8025
52.779
52.5891
53.3826
54.9284
54.2259
54.8325
54.4367
54.4214
54.2318
54.0934
54.0558
54.0596
54.1738
54.3977
54.7085
55.1303
55.7822
56.3005
57.6671
58.0822
44.9653
45.1804
45.908
47.3992
46.7353
47.2811
46.9308
46.8399
46.6667
46.4372
46.3414
46.2237
46.2016
46.2715
46.4125
46.6782
47.1982
47.6119
48.9072
49.2467
40.5164
41.5344
42.4571
44.0573
43.838
44.4262
44.3993
44.4377
44.4864
44.3803
44.3767
44.2926
44.2396
44.2277
44.2493
44.3442
44.7477
44.9951
46.3063
46.3704
29.1164
31.6179
33.0599
35.032
35.7739
36.5326
37.1803
37.6265
38.233
38.6134
39.0424
39.3435
39.5792
39.7648
39.9412
40.093
40.5991
40.8986
42.3527
42.7197
10.735
14.6615
16.5623
18.6424
20.6048
21.7171
23.3501
24.4634
25.8701
27.0284
28.1816
29.1871
30.0476
30.7638
31.4141
31.945
32.8043
33.446
35.2379
36.2718
-21.8411
-18.2307
-16.31
-14.9766
-12.1905
-11.049
-8.56598
-7.07122
-4.96548
-3.12937
-1.11723
0.888697
2.90458
4.90798
6.9063
8.90283
11.1144
13.3873
16.3762
19.4973
-54.6195
-55.1101
-54.5976
-56.1025
-55.0809
-56.539
-56.0462
-57.2773
-57.3286
-57.7277
-57.2991
-56.478
-55.0434
-53.0701
-50.7157
-47.7964
-44.738
-40.7877
-37.2521
-32.1384
-36.6105
-40.3354
-41.367
-45.3039
-46.0727
-49.8658
-51.9573
-56.2288
-59.4905
-63.5314
-66.708
-69.6266
-71.6093
-72.6658
-72.7022
-71.2049
-69.1018
-65.6727
-63.6743
-62.1161
12.1389
9.8885
9.60908
6.01478
6.36848
2.66744
2.64657
-0.18291
-1.16085
-3.35858
-4.88602
-6.84701
-8.66585
-10.7228
-12.8347
-15.0469
-17.1777
-17.8174
-17.6991
-20.6463
25.6474
27.3164
29.0111
27.8075
30.427
28.1222
29.3104
27.816
27.8979
26.9085
26.1975
25.0966
23.9007
22.4551
20.839
19.1314
17.3966
15.8659
15.8052
14.0757
-2.33761
0.134444
3.7264
3.31291
7.68566
8.03425
11.3509
13.0671
15.5997
17.671
19.6394
21.2061
22.2861
22.7591
22.7265
22.4548
22.6127
23.5536
24.8456
26.0249
-30.5227
-30.7336
-27.1095
-29.5497
-25.4897
-26.2664
-23.736
-22.6093
-20.6531
-18.6925
-16.5226
-14.1752
-11.6971
-9.10124
-6.45064
-3.68509
-0.96908
1.96337
4.32183
7.6343
-33.271
-36.7393
-34.5865
-41.0452
-40.4774
-45.0323
-46.694
-49.7303
-51.9496
-54.2248
-56.1537
-57.8261
-59.1448
-59.9683
-60.0959
-59.1551
-57.1731
-54.2079
-52.2123
-48.67
-22.8925
-30.1498
-22.79
-30.5587
-29.425
-33.7498
-36.0122
-39.655
-43.0319
-46.7795
-50.5536
-54.4535
-58.344
-62.043
-65.1958
-67.3574
-67.8702
-67.6239
-67.9912
-66.511
2.60123
-19.8227
-11.7917
-23.1786
-26.0412
-32.9063
-37.9932
-43.3999
-48.0552
-52.1757
-55.5125
-58.0048
-59.5366
-60.0094
-59.332
-57.277
-53.9541
-50.886
-48.7971
-47.6573
691.532
608.852
559.793
503.315
454.157
406.641
362.444
320.658
281.314
244.131
208.952
175.59
143.874
113.834
85.6592
58.592
32.918
12.8765
-10.611
-48.4077
692.216
609.538
560.482
504.005
454.849
407.335
363.14
321.356
282.014
244.832
209.655
176.296
144.582
114.545
86.373
59.3093
33.6375
13.5939
-9.90216
-47.7118
3.31261
-19.1146
-11.0864
-22.4749
-25.3395
-32.2063
-37.2947
-42.703
-47.3598
-51.4819
-54.8202
-57.3138
-58.8484
-59.3256
-58.6467
-56.5951
-53.2937
-50.2178
-48.1188
-46.9944
-22.2915
-29.5517
-22.194
-29.9631
-28.8308
-33.1556
-35.4187
-39.0616
-42.4389
-46.187
-49.9622
-53.8637
-57.7562
-61.4596
-64.6132
-66.772
-67.3187
-67.0795
-67.4423
-65.9671
-32.7587
-36.2328
-34.0864
-40.5441
-39.9798
-44.5373
-46.2008
-49.2417
-51.4648
-53.746
-55.6811
-57.3602
-58.6855
-59.5149
-59.649
-58.712
-56.7417
-53.7879
-51.7926
-48.2554
-30.3786
-30.6071
-26.9876
-29.435
-25.3735
-26.1439
-23.6036
-22.468
-20.5008
-18.5317
-16.3539
-13.9996
-11.5144
-8.90863
-6.2471
-3.46933
-0.739757
2.20933
4.58009
7.90802
-1.69509
0.709343
4.22688
3.71163
7.97845
8.45435
11.7336
13.5414
16.0935
18.1827
20.1609
21.7432
22.8463
23.3543
23.3859
23.2265
23.5001
24.4813
25.7231
26.8888
27.6533
29.3714
31.0703
29.646
32.8076
29.4101
30.5737
29.2195
29.3122
28.4234
27.8085
26.8077
25.6802
24.2684
22.6501
20.8296
18.6524
16.2441
15.8314
13.9675
14.1393
11.9173
11.5811
8.04918
8.09116
4.38085
4.03246
1.10545
-0.0691297
-2.42025
-4.14948
-6.31318
-8.38377
-10.7438
-13.2039
-15.7859
-18.2458
-19.044
-18.9372
-22.0488
-37.0365
-40.9341
-42.1749
-46.2334
-47.5433
-51.5769
-53.9732
-58.4758
-61.9996
-66.2736
-69.6642
-72.7676
-74.9069
-76.1008
-76.2484
-74.8812
-72.9405
-69.7004
-67.9092
-66.65
-58.4659
-59.1867
-58.8355
-60.5224
-59.6541
-61.2125
-60.8833
-62.2287
-62.4128
-62.9257
-62.597
-61.8608
-60.5059
-58.6015
-56.3212
-53.4454
-50.4516
-46.5127
-43.0172
-37.9007
-26.103
-22.5679
-20.6951
-19.4062
-16.6791
-15.5505
-13.1002
-11.6045
-9.50984
-7.67455
-5.65616
-3.63375
-1.60326
0.434129
2.44461
4.4898
6.687
8.99454
11.962
15.1624
7.34132
11.2885
13.2013
15.2731
17.2634
18.3966
20.0521
21.1872
22.6039
23.7791
24.9441
25.9681
26.8354
27.5725
28.1958
28.7488
29.5269
30.1479
31.8824
32.9043
26.5066
29.0413
30.5048
32.4628
33.249
34.0251
34.7061
35.1725
35.7974
36.2048
36.6528
36.9692
37.208
37.4037
37.5454
37.7152
38.1273
38.4065
39.7324
40.1348
38.703
39.7531
40.7091
42.3028
42.1119
42.7121
42.7291
42.7887
42.8689
42.7906
42.8136
42.7501
42.7138
42.7209
42.7328
42.8558
43.1988
43.428
44.5918
44.8438
44.0174
44.2569
45.0204
46.5116
45.8577
46.4355
46.1385
46.0755
45.9415
45.7398
45.6712
45.5751
45.5705
45.6607
45.798
46.0793
46.5537
46.9318
48.1034
48.5415
52.3323
52.1541
52.9747
54.5219
53.8047
54.4368
54.0847
54.0833
53.9207
53.795
53.7697
53.7843
53.9041
54.1391
54.4428
54.8693
55.4874
55.986
57.2377
57.7622
53.5434
53.693
54.6787
56.5785
56.0332
56.9873
56.8224
57.2051
57.2607
57.4829
57.7085
58.0337
58.4229
58.9217
59.4757
60.114
60.9332
61.6042
62.955
63.7604
72.7318
72.4331
73.0569
74.916
73.9921
74.8508
74.4497
74.7803
74.6508
74.7771
74.8386
75.0325
75.2676
75.5918
75.9866
76.3926
77.059
77.4307
78.7097
78.9839
63.7383
64.8468
65.3844
67.9511
67.1617
68.4173
68.4158
69.3673
69.7651
70.4534
70.9631
71.5691
72.1537
72.7703
73.4347
74.0434
74.9195
75.4571
76.8717
77.4247
118.756
117.896
116.387
117.813
114.892
113.538
111.004
109.231
107.243
105.673
104.221
103.008
101.969
101.037
100.338
99.5286
99.2854
98.3725
99.0103
97.9975
)
;

boundaryField
{
    outletWall
    {
        type            fixedValue;
        value           uniform 0;
    }
    fineWalls
    {
        type            zeroGradient;
    }
    fineFrontAndBack
    {
        type            zeroGradient;
    }
    fineplugLeft
    {
        type            cyclicAMI;
        value           nonuniform List<scalar> 
20
(
79.2553
80.8819
80.4435
81.6124
81.8753
82.7181
83.334
84.1598
85.0219
86.0155
87.1831
88.4864
90.0442
97.659
96.2141
96.2943
97.975
95.7456
94.2559
92.3062
)
;
    }
    fineplugRight
    {
        type            cyclicAMI;
        value           nonuniform List<scalar> 
20
(
78.2212
79.8627
79.4744
80.6493
80.9582
81.8231
82.4811
83.3398
84.2439
85.2772
86.4895
87.8421
89.4328
96.9963
95.653
95.7986
97.5303
95.3443
93.8885
91.9655
)
;
    }
    inletOutletLeft
    {
        type            cyclicAMI;
        value           nonuniform List<scalar> 
20
(
79.2553
80.8819
80.4435
81.6124
81.8753
82.7181
83.334
84.1598
85.0219
86.0155
87.1831
88.4864
90.0442
97.659
96.2141
96.2943
97.975
95.7456
94.2559
92.3062
)
;
    }
    inletLeft
    {
        type            zeroGradient;
    }
    inletWallsLeft
    {
        type            zeroGradient;
    }
    inletFacesLeft
    {
        type            zeroGradient;
    }
    inletOutletRight
    {
        type            cyclicAMI;
        value           nonuniform List<scalar> 
20
(
78.2212
79.8627
79.4744
80.6493
80.9582
81.8231
82.4811
83.3398
84.2439
85.2772
86.4895
87.8421
89.4328
96.9963
95.653
95.7986
97.5303
95.3443
93.8885
91.9655
)
;
    }
    inletRight
    {
        type            zeroGradient;
    }
    inletWallsRight
    {
        type            zeroGradient;
    }
    inletFacesRight
    {
        type            zeroGradient;
    }
}


// ************************************************************************* //
