/*--------------------------------*- C++ -*----------------------------------*\
| =========                 |                                                 |
| \\      /  F ield         | OpenFOAM: The Open Source CFD Toolbox           |
|  \\    /   O peration     | Version:  4.1                                   |
|   \\  /    A nd           | Web:      www.OpenFOAM.org                      |
|    \\/     M anipulation  |                                                 |
\*---------------------------------------------------------------------------*/
FoamFile
{
    version     2.0;
    format      ascii;
    class       surfaceScalarField;
    location    "6";
    object      phi;
}
// * * * * * * * * * * * * * * * * * * * * * * * * * * * * * * * * * * * * * //

dimensions      [0 3 -1 0 0 0 0];

internalField   nonuniform List<scalar> 
2360
(
-2780.86
-1622.12
-1158.74
-1622.12
-1622.12
-390.756
-1231.36
-390.755
-390.756
-390.755
1096.72
-1487.48
1096.72
1096.72
3200.17
-2103.45
3200.17
3200.17
6152.35
-2952.18
6152.35
6152.35
11118.7
-4966.33
11118.7
11118.7
11836.5
13268.8
14735.2
16173.5
17515.3
18740.8
13554
6314.88
14595.4
15568.5
16495.9
17392.1
18265.4
19119.8
19956.7
20774.8
21572
22339.6
23065.5
23741.5
24303.8
9865.94
14437.8
9865.94
9865.94
9865.94
-571.208
10437.1
-571.208
-571.206
-571.206
9.39447
-580.6
9.39511
9.39598
585.669
-576.273
585.67
585.671
585.671
-9848.9
10434.6
-9848.9
-9848.9
-9848.9
-24291.2
14442.3
-23733.2
-23061.8
-22341.6
-21580.1
-20787.8
-19972.7
-19137.2
-18282.8
-17408.3
-16510.2
-15580
-14603
-13556.7
-18822.4
6398.88
-17593.4
-16249.4
-14809.5
-13341.8
-11908.4
-11190.1
-11190.1
-11190.1
-6112.62
-5077.48
-6112.62
-6112.62
-3120.38
-2992.24
-3120.38
-3120.38
-1059.27
-2061.1
-1059.27
-1059.27
412.273
-1471.55
412.273
412.273
412.273
1627.22
-1214.94
1627.22
1627.22
2782.45
-1155.24
-6337.15
-5527.94
-5932.09
-7126.79
-5425.86
-5750.86
-4905.15
-571.545
-4708.36
6001.89
-4620.88
9048.21
-4410.73
9941.65
-4039.09
9714.69
-3481.25
8143.47
-2668.62
4957.08
-1771.28
2274.24
-1101.8
3361.45
-666.708
5225.47
-280.336
5713.79
92.7833
4045.85
515.255
2347.67
846.17
494.802
1070.61
608.66
1298.28
-5971.75
-5735.48
-5622.03
-7476.51
-5278
-6094.89
-4751.26
-1098.29
-4633.45
5884.08
-4745.28
9160.03
-4614.79
9811.16
-4172.77
9272.67
-3384.35
7355.05
-2125.54
3698.28
-977.528
1126.23
-597.844
2981.77
-594.576
5222.2
-387.544
5506.76
17.6545
3640.65
632.298
1733.02
1061.32
65.7835
1195
474.981
1278.34
-6119.55
-5722.33
-6091.91
-7504.15
-5957.46
-6229.35
-5364.19
-1691.55
-4890.61
5410.51
-4909.05
9178.47
-4911.83
9813.94
-4453.16
8813.99
-3345.7
6247.59
-1390.49
1743.07
286.555
-550.817
486.837
2781.49
-174.016
5883.05
-449.288
5782.03
-150.747
3342.11
706.7
875.577
1336.73
-564.251
1465.78
345.931
1272.57
-6710.39
-5447.44
-6987.26
-7227.28
-6998.86
-6217.75
-6408.89
-2281.52
-5596.07
4597.69
-5273.47
8855.86
-5279.85
9820.33
-4857.38
8391.53
-3341.3
4731.51
-694.59
-903.644
1506.43
-2751.84
1920.16
2367.76
931.006
6872.21
7.53826
6705.5
-95.9436
3445.59
921.636
-142.003
1715.25
-1357.87
1858.99
202.19
1070.46
-7517.43
-4958.82
-8028.51
-6716.2
-8192.42
-6053.84
-7742.19
-2731.75
-6789.23
3644.73
-6069.95
8136.58
-5828.91
9579.28
-5306.07
7868.69
-3453.87
2879.31
-998.163
-3359.35
1044.53
-4794.53
2235.81
1176.48
1973.27
7134.74
1077.2
7601.57
793.733
3729.05
1769.3
-1117.57
2549.63
-2138.2
2779.58
-27.7615
857.799
-8437.51
-4300.87
-9145.33
-6008.38
-9502.59
-5696.58
-9277.58
-2956.76
-8353.64
2720.79
-7349.93
7132.87
-6671.54
8900.9
-5842.2
7039.34
-4333.3
1370.42
-3226.78
-4465.88
-2085.98
-5935.32
201.39
-1110.9
1565.62
5770.51
1481.41
7685.78
1635.56
3574.91
2606.65
-2088.67
3448.61
-2980.15
4227.26
-806.411
7.57142
-9332.34
-3521.1
-10243.6
-5097.1
-10902.6
-5037.63
-11014
-2845.36
-10241.9
1948.68
-9062.46
5953.47
-7874.48
7712.93
-6755.48
5920.33
-6183.79
798.729
-6574.59
-4075.08
-6327.63
-6182.28
-3807.66
-3630.87
-993.573
2956.42
340.662
6351.54
1252.4
2663.17
1945.84
-2782.11
2302.61
-3336.92
1336.74
159.459
7743.19
-10166.9
-2612.34
-11362.6
-3901.48
-12440.7
-3959.49
-12948.5
-2337.56
-12331.1
1331.26
-10940.4
4562.74
-9258.93
6031.49
-8034.95
4696.35
-8253.36
1017.14
-9526.87
-2801.57
-10346.8
-5362.3
-9084.48
-4893.23
-5615.66
-512.394
-2163.86
2899.74
-777.404
1276.71
-2507.44
-1052.07
-5746.5
-97.8544
-9590.91
4003.86
12594.6
-10909.1
-1554.08
-12449.8
-2360.75
-13979.2
-2430.03
-14858.4
-1458.42
-14368.2
841.048
-12799.5
2994.05
-10826
4058.02
-9486.57
3356.93
-9575.54
1106.11
-10869.8
-1507.29
-12920
-3312.16
-14236.9
-3576.26
-12920.7
-1828.62
-10514.1
493.167
-10679.5
1442.05
-12790.5
1058.91
-14122.5
1234.23
-13814.3
3695.67
9214.83
-11460.7
-338.223
-13350.4
-471.017
-15344.9
-435.515
-16699.7
-103.658
-16445.8
587.135
-14580.4
1128.63
-11827.3
1304.9
-9425.65
955.326
-8688.58
369.042
-10254.8
58.9374
-13531.9
-35.0346
-16471.7
-636.541
-16908.2
-1392.05
-15058.3
-1356.79
-13481.9
-134.372
-13011.7
588.713
-12305.1
527.714
-8687.69
78.2062
-49.1317
-11444.1
885.082
-13359.4
1444.27
-15457
1662.13
-17002.3
1441.63
-16900.8
485.621
-14968.4
-803.768
-11984.1
-1679.38
-9422.97
-1605.79
-8728.6
-325.33
-10389.2
1719.58
-13583
3158.75
-16217.6
1998.02
-16418.6
-1191.04
-14643.1
-3132.27
-13186.4
-1591.1
-12642.7
45.05
-12079.7
-35.2821
-8641.72
-3359.81
-9271.45
-10940.7
1980.57
-12554
3057.59
-14295.4
3403.44
-15550.8
2697.09
-15315.1
249.902
-13656.2
-2462.65
-11450.4
-3885.16
-9953.67
-3102.57
-9912.44
-366.552
-10975.9
2783.01
-12474.2
4657.05
-12844.6
2368.44
-11302.7
-2732.97
-10019.2
-4415.7
-11445.2
-165.097
-13488.2
2088.01
-14413.6
890.121
-13877.6
-3895.84
-12711.9
-10256.7
2984.61
-11601.4
4402.27
-12914.4
4716.45
-13787.7
3570.37
-13384.3
-153.465
-11858.3
-3988.61
-9819.59
-5923.9
-8235.03
-4687.12
-8149.56
-452.019
-8964.9
3598.35
-8848.21
4540.37
-6653.22
173.458
-3680.71
-5705.49
-1583.27
-6513.13
-1824.71
76.3418
-4144.82
4408.12
-6461.94
3207.24
-9660.62
-697.157
-7934.67
-9421.75
3906.03
-10559.6
5540.12
-11474.4
5631.23
-11927.9
4023.91
-11337.1
-744.244
-10017.6
-5308.2
-8425.27
-7516.19
-6802.56
-6309.82
-5649.15
-1605.44
-5279.85
3229.05
-4026.89
3287.41
-1443.08
-2410.35
126.222
-7274.79
374.527
-6761.44
1201.71
-750.842
1581.94
4027.89
1899.12
2890.06
1324.25
-122.296
-295.539
-8464.91
4712.23
-9428.36
6503.57
-10043.3
6246.15
-10111.9
4092.52
-9290.34
-1565.79
-8089.81
-6508.73
-7018.81
-8587.19
-5862.79
-7465.85
-3908.41
-3559.81
-1810.66
1131.3
236.151
1240.59
1652.16
-3826.36
1630.19
-7252.81
1132.31
-6263.56
1691.15
-1309.69
2826.7
2892.35
3416.09
2300.67
4014.02
-720.224
-1247.85
-7465.81
5311.89
-8192.33
7230.09
-8594.53
6648.35
-8425.38
3923.37
-7527.56
-2463.61
-6545.7
-7490.59
-5945.11
-9187.78
-5299.01
-8111.95
-3551.14
-5307.68
-714.589
-1705.26
1484.44
-958.43
1879.03
-4220.96
1145.34
-6519.12
455.564
-5573.78
886.302
-1740.43
2188.79
1589.86
2889.65
1599.8
2852.11
-682.683
-1347.92
-6607.27
5640.65
-7014.29
7637.1
-7222.91
6856.97
-6901.26
3601.73
-6070.18
-3294.69
-5462.49
-8098.29
-5257.47
-9392.81
-4827.01
-8542.41
-3539.06
-6595.62
-1399.26
-3845.07
300.002
-2657.69
551.364
-4472.32
-7.59185
-5960.16
-363.174
-5218.2
145.532
-2249.13
1398.93
336.465
2113.86
884.876
2043.34
-612.169
-1408.03
-6013.92
5659.33
-6028.35
7651.53
-6026.06
6854.68
-5635.58
3211.24
-5064.01
-3866.26
-4884.28
-8278.01
-4862.73
-9414.36
-4439.73
-8965.4
-3455.27
-7580.08
-2001.43
-5298.9
-773.898
-3885.22
-441.376
-4804.84
-593.014
-5808.52
-545.212
-5266.01
11.1399
-2805.48
1040.24
-692.638
1621.82
303.294
1575.33
-565.675
-1320.18
-5881.66
5427.09
-5513.72
7283.59
-5252.19
6593.16
-4818.12
2777.16
-4566.48
-4117.89
-4647.34
-8197.16
-4579.73
-9481.96
-4155.93
-9389.2
-3422.5
-8313.51
-2432.14
-6289.27
-1539.15
-4778.21
-1078.27
-5265.73
-834.333
-6052.46
-488.004
-5612.33
48.0911
-3341.58
804.949
-1449.5
1223.31
-115.07
1242.27
-584.636
-1309.27
-6263.78
-5846.59
-5409.12
-4939.61
-4654.71
-4564.31
-4380.94
-4015.85
-3469.17
-2753.3
-1995.82
-1369.12
-872.705
-402.363
59.219
560.878
890.132
1080.48
120.261
-838.093
382.131
-1694.2
598.646
-1682.91
771.126
-1610.73
898.934
-1469.61
992.808
-1319.36
1033.02
-1168.32
1046.77
-1055.18
1044.51
-970.836
1027.15
-910.034
994.487
-863.51
947.658
-826.536
888.119
-794.824
816.545
-765.336
732.83
-734.437
635.395
-699.739
521.504
-653.698
386.094
-590.517
225.04
-514.89
-337.253
103.876
-941.972
194.511
-1784.83
252.167
-1740.57
276.964
-1635.53
286.721
-1479.37
303.243
-1335.88
341.036
-1206.12
389.789
-1103.93
438.677
-1019.73
477.984
-949.342
501.36
-886.888
506.319
-831.497
493.048
-781.555
462.118
-734.407
414.967
-687.287
351.768
-636.542
274.41
-576.34
182.571
-498.678
85.5854
-417.905
-251.668
45.4863
-987.462
120.49
-1859.84
171.164
-1791.25
189.05
-1653.41
206.471
-1496.79
237.679
-1367.09
282.668
-1251.11
332.714
-1153.98
380.021
-1067.03
417.609
-986.932
442.581
-911.861
452.567
-841.484
446.772
-775.761
424.639
-712.276
387.225
-649.874
335.135
-584.454
269.884
-511.089
191.999
-420.794
102.777
-328.684
-148.891
37.8006
-1025.27
90.9134
-1912.96
122.7
-1823.04
125.433
-1656.15
129.217
-1500.57
145.961
-1383.83
176.389
-1281.54
210.762
-1188.36
243.801
-1100.07
270.402
-1013.53
289.744
-931.205
299.242
-850.984
297.892
-774.412
283.972
-698.357
258.212
-624.116
220.797
-547.04
172.708
-463
113.978
-362.065
47.0182
-261.726
-101.873
8.76347
-1034.03
42.8246
-1947.02
69.8313
-1850.04
74.8855
-1661.2
81.3507
-1507.04
96.3051
-1398.79
117.78
-1303.01
137.09
-1207.67
153.513
-1116.5
165.306
-1025.33
173.768
-939.669
177.229
-854.447
175.616
-772.8
167.268
-690.011
152.935
-609.785
132.088
-526.193
104.16
-435.074
67.1836
-325.089
24.5922
-219.136
-77.2809
-17.0089
-1017.02
5.27484
-1969.3
42.2421
-1887.01
56.3816
-1675.34
62.8308
-1513.49
68.4786
-1404.44
74.9621
-1309.49
78.3904
-1211.1
80.11
-1118.22
80.2097
-1025.43
79.4922
-938.952
77.3854
-852.341
73.8511
-769.266
68.1023
-684.263
60.2336
-601.917
49.7724
-515.733
35.6896
-420.991
14.7886
-304.189
-0.955386
-203.393
-78.2363
-26.1051
-990.921
-10.1451
-1985.27
33.4495
-1930.61
55.87
-1697.76
66.7936
-1524.41
69.5438
-1407.19
70.3362
-1310.29
69.9144
-1210.68
68.9343
-1117.24
68.0036
-1024.5
65.9188
-936.868
62.7087
-849.132
57.0486
-763.607
49.341
-676.556
38.4529
-591.029
25.605
-502.885
11.4411
-406.828
-3.49672
-289.252
-8.08916
-198.802
-86.3255
42.4411
-1033.36
72.5238
-2015.35
109.549
-1967.63
135.518
-1723.73
158.566
-1547.46
172.738
-1421.36
184.93
-1322.48
197.368
-1223.12
208.8
-1128.67
218.215
-1033.92
222.155
-940.808
219.737
-846.714
208.793
-752.663
190.164
-657.928
162.794
-563.659
129.103
-469.194
92.3242
-370.05
58.7889
-255.717
28.282
-168.296
-58.0434
195.564
-1228.93
253.481
-2073.27
263.984
-1978.14
287.439
-1747.19
332.207
-1592.23
376.961
-1466.12
423.516
-1369.04
469.252
-1268.85
510.66
-1170.08
542.424
-1065.68
559.607
-957.993
559.676
-846.785
541.015
-734.003
504.04
-620.955
449.077
-508.698
378.003
-398.122
295.233
-287.28
209.761
-170.245
113.483
-72.0186
55.4392
337.794
-1566.72
382.54
-2118.01
362.112
-1957.71
389.588
-1774.67
462.931
-1665.57
547.653
-1550.84
641.927
-1463.31
732.356
-1359.28
812.384
-1250.11
870.609
-1123.91
903.046
-990.429
907.299
-851.037
883.866
-710.57
832.963
-570.052
755.677
-431.412
651.57
-294.014
524.018
-159.728
376.391
-22.6182
212.321
92.0511
267.76
306.585
-1873.31
253.833
-2065.26
214.803
-1918.68
238.658
-1798.52
308.573
-1735.49
393.429
-1635.69
491.735
-1561.62
581.176
-1448.72
652.28
-1321.21
692.407
-1164.03
705.399
-1003.42
692.598
-838.237
658.731
-676.703
605.691
-517.012
535.647
-361.369
448.028
-206.396
348.28
-59.9799
227.811
97.8508
77.4974
242.364
345.258
66.1934
-1939.5
-68.6602
-1930.41
-146.986
-1840.36
-201.999
-1743.51
-233.478
-1704.01
-254.433
-1614.74
-270.99
-1545.06
-296.011
-1423.7
-335.804
-1281.42
-390.208
-1109.63
-452.489
-941.139
-521.553
-769.171
-595.628
-602.626
-670.633
-442.005
-743.133
-288.868
-806.686
-142.842
-832.72
-33.9459
-745.112
10.2433
-467.988
-34.7584
-122.73
-105.455
-1834.05
-199.363
-1836.5
-295.438
-1744.28
-426.447
-1612.5
-564.43
-1566.03
-713.596
-1465.57
-871.058
-1387.6
-1031.07
-1263.68
-1185.17
-1127.33
-1323.04
-971.751
-1444.41
-819.777
-1552.79
-660.788
-1651.81
-503.604
-1729.73
-364.084
-1753.54
-265.06
-1670.66
-225.721
-1442.33
-262.272
-1038.47
-393.613
-490.543
-582.69
-613.272
-39.4705
-1794.57
-38.2847
-1837.68
-60.2656
-1722.3
-128.635
-1544.13
-216.79
-1477.87
-331.768
-1350.59
-456.262
-1263.1
-572.743
-1147.2
-662.004
-1038.06
-711.418
-922.335
-721.096
-810.097
-688.997
-692.885
-618.589
-574.009
-516.036
-466.635
-385.827
-395.266
-223.967
-387.578
-39.6523
-446.585
111.359
-544.624
131.356
-602.684
-481.916
80.4966
-1875.07
119.766
-1876.95
173.745
-1776.28
217.069
-1587.45
255.296
-1516.09
283.4
-1378.69
305.137
-1284.84
333.31
-1175.37
373.894
-1078.64
434.538
-982.976
515.854
-891.412
624.612
-801.641
762.432
-711.826
916.078
-620.279
1047.95
-527.14
1100.61
-440.233
1025.43
-371.409
794.512
-313.701
430.415
-238.586
-51.5011
110.977
-1986.04
119.93
-1885.9
170.84
-1827.18
228.127
-1644.73
293.318
-1581.28
365.967
-1451.34
443.705
-1362.57
526.784
-1258.45
612.15
-1164.01
698.412
-1069.24
784.368
-977.367
868.11
-885.381
945.306
-789.021
1005.77
-680.744
1032.4
-553.767
996.493
-404.324
882.752
-257.668
679.261
-110.209
378.713
61.9622
327.212
42.7931
-2028.83
5.74323
-1848.85
13.8206
-1835.26
38.7323
-1669.64
69.052
-1611.6
115.795
-1498.08
171.837
-1418.61
240.811
-1327.42
322.044
-1245.24
415.419
-1162.61
520.221
-1082.17
631.48
-996.639
736.993
-894.532
814.168
-757.919
827.555
-567.152
728.581
-305.349
503.378
-32.4627
285.684
107.487
110.138
237.51
437.351
-156.445
-1872.39
-342.357
-1662.94
-488.293
-1689.32
-592.254
-1565.68
-684.595
-1519.26
-744.165
-1438.51
-787.391
-1375.38
-807.919
-1306.89
-809.843
-1243.32
-791.954
-1180.5
-755.355
-1118.77
-701.109
-1050.88
-631.781
-963.86
-550.528
-839.171
-460.489
-657.191
-363.731
-402.106
-276.718
-119.473
-214.912
45.6828
-167.469
190.069
269.882
-226.269
-1646.12
-497.033
-1392.17
-781.734
-1404.62
-1026.83
-1320.59
-1263.57
-1282.52
-1469.1
-1232.98
-1653
-1191.48
-1810.43
-1149.45
-1944.5
-1109.25
-2055.25
-1069.75
-2143.01
-1031
-2202.84
-991.054
-2221.49
-945.218
-2174.69
-885.967
-2026.42
-805.463
-1729.61
-698.91
-1282.99
-566.099
-824.231
-413.073
-381.66
-252.502
-111.778
-671.118
-1088.29
-1517.91
-1863.5
-2171.02
-2429
-2645.48
-2819.94
-2954.19
-3048.94
-3104.94
-3120.99
-3091.21
-3002.18
-2832.64
-2556.55
-2147.65
-1585.72
-863.222
-671.061
1646.06
-1088.17
1392.11
-1517.72
1404.56
-1863.24
1320.52
-2170.7
1282.46
-2428.61
1232.92
-2645.03
1191.42
-2819.42
1149.39
-2953.6
1109.18
-3048.28
1069.69
-3104.22
1030.94
-3120.21
990.982
-3090.32
945.116
-3001.15
885.827
-2831.43
805.288
-2555.17
698.74
-2146.23
566.059
-1584.49
413.257
-862.633
253.145
112.367
-226.288
1872.35
-497.098
1662.92
-781.838
1689.3
-1026.99
1565.68
-1263.8
1519.26
-1469.4
1438.52
-1653.39
1375.4
-1810.92
1306.92
-1945.11
1243.37
-2055.99
1180.57
-2143.9
1118.85
-2203.83
1050.91
-2222.48
963.767
-2175.59
838.944
-2027.28
656.972
-1730.94
402.408
-1285.23
120.352
-825.131
-46.8458
-381.622
-190.362
-269.256
-156.573
2028.93
-342.54
1848.89
-488.588
1835.35
-592.663
1669.76
-685.163
1611.76
-744.888
1498.25
-788.331
1418.84
-809.084
1327.68
-811.22
1245.51
-793.545
1162.9
-757.192
1082.5
-703.224
996.947
-634.176
894.721
-553.132
757.902
-463.186
567.028
-366.42
305.645
-279.262
33.1996
-217.36
-108.743
-169.111
-238.607
-438.366
42.5892
1986.34
5.11948
1886.36
12.8702
1827.6
37.4571
1645.17
67.5004
1581.72
113.994
1451.76
169.898
1362.94
238.777
1258.8
319.795
1164.49
412.883
1069.81
517.404
977.977
628.4
885.952
733.626
789.496
810.473
681.056
823.636
553.868
725.029
404.253
501.041
257.19
283.025
109.275
108.235
-63.8142
-330.131
111.867
1874.47
120.547
1877.69
171.505
1776.64
228.67
1588.01
293.617
1516.78
366.063
1379.32
443.745
1285.26
526.697
1175.85
612.161
1079.03
698.439
983.538
784.268
892.149
867.626
802.597
944.101
713.022
1003.52
621.634
1028.7
528.698
991.522
441.428
877.486
371.227
675.067
311.695
376.232
235.024
46.1006
82.5822
1791.89
123.316
1836.95
178.949
1721.01
222.223
1544.73
260.087
1478.91
288.208
1351.19
312.917
1260.55
344.246
1144.52
388.236
1035.04
451.826
919.948
535.705
808.27
646.545
691.757
785.431
574.136
938.062
469.003
1066.16
400.602
1114.41
393.175
1037.31
448.333
804.194
544.807
435.38
603.838
481.48
-39.777
1831.67
-38.659
1835.83
-60.1317
1742.48
-122.719
1607.32
-205.417
1561.61
-315.723
1461.5
-437.569
1382.4
-551.317
1258.27
-637.867
1121.59
-684.891
966.973
-692.15
815.529
-657.421
657.03
-584.259
500.974
-479.183
363.929
-346.756
268.176
-183.671
230.091
-1.73058
266.393
139.601
403.476
143.571
599.869
625.052
-108.81
1940.48
-203.658
1930.68
-300.407
1839.23
-434.205
1741.12
-574.629
1702.03
-727.071
1613.94
-888.599
1543.93
-1052.12
1421.79
-1209.08
1278.54
-1348.72
1106.61
-1470.92
937.738
-1579.14
765.247
-1676.43
598.258
-1750.17
437.677
-1767.02
285.017
-1677.8
140.871
-1447.57
36.1665
-1041.26
-2.8287
-487.359
45.9641
137.692
60.631
1879.85
-77.8729
2069.19
-158.541
1919.9
-217.557
1800.14
-254.444
1738.92
-280.539
1640.04
-302.312
1565.7
-332.605
1452.09
-377.471
1323.41
-435.97
1165.11
-501.767
1003.54
-573.902
837.384
-650.606
674.962
-727.427
514.5
-800.509
358.099
-862.287
202.649
-881.956
55.8359
-780.821
-103.964
-484.454
-250.402
-346.762
306.431
1573.42
251.738
2123.88
209.777
1961.86
230.31
1779.6
297.039
1672.19
380.078
1557
476.961
1468.82
564.669
1364.38
633.505
1254.57
671.462
1127.15
682.683
992.315
668.56
851.506
633.793
709.728
580.465
567.827
510.549
428.014
423.977
289.222
325.915
153.897
206.69
15.2607
59.7414
-103.454
-287.021
340.988
1232.43
387.009
2077.86
366.471
1982.4
393.443
1752.63
466.46
1599.17
551.514
1471.94
646.699
1373.63
738.097
1272.98
818.883
1173.79
877.435
1068.6
909.963
959.786
914.015
847.454
890.031
733.713
838.175
619.682
759.204
506.985
652.894
395.532
521.931
284.859
370.796
166.396
207.122
60.2187
-79.8986
198.642
1033.78
258.972
2017.52
270.404
1970.96
293.622
1729.41
339.322
1553.47
385.733
1425.53
433.87
1325.5
481.026
1225.82
523.752
1131.06
556.489
1035.86
574.177
942.096
574.062
847.567
554.604
753.168
516.014
658.271
458.379
564.618
383.887
470.022
295.443
373.302
205.37
256.468
108.891
156.696
28.9922
44.1221
989.66
75.7132
1985.93
113.764
1932.91
139.864
1703.31
164.873
1528.46
181.026
1409.38
194.644
1311.88
208.308
1212.16
220.907
1118.46
231.295
1025.47
235.896
937.493
233.577
849.884
222.251
764.494
202.448
678.072
173.242
593.824
137.247
506.016
96.3125
414.236
59.993
292.787
28.1367
188.551
57.1289
-25.7403
1015.4
-9.30549
1969.49
34.9779
1888.63
58.5726
1679.71
71.4917
1515.54
75.3586
1405.51
76.9077
1310.33
77.2678
1211.8
77.1149
1118.61
77.0449
1025.54
75.7078
938.829
73.0547
852.535
67.6635
769.884
59.8401
685.894
48.6907
604.972
35.4903
519.215
21.2847
428.441
5.9959
308.075
-0.0757812
194.621
57.0531
-17.5022
1032.9
4.70214
1947.29
42.012
1851.31
57.8692
1663.85
65.3728
1508.04
71.0995
1399.78
77.5228
1303.9
81.0097
1208.31
82.7756
1116.84
82.9591
1025.36
82.379
939.407
80.6078
854.305
77.4077
773.083
72.2251
691.075
65.2829
611.913
55.8793
528.618
44.7446
439.575
25.2724
327.546
7.96918
211.923
65.0223
8.03975
1024.86
41.8523
1913.47
69.1645
1824
75.6201
1657.4
82.5385
1501.12
97.4753
1384.84
118.676
1282.7
137.625
1189.36
153.545
1100.92
164.71
1014.19
172.512
931.604
175.608
851.208
173.974
774.716
166.284
698.764
153.375
624.821
134.132
547.86
109.135
464.571
73.5617
363.119
28.5345
256.949
93.5567
36.3146
988.539
88.7002
1861.09
120.529
1792.17
123.982
1653.94
128.199
1496.9
145.143
1367.9
175.14
1252.7
208.671
1155.83
240.795
1068.8
266.459
988.525
284.81
913.252
293.548
842.47
292.008
776.255
278.773
711.998
254.723
648.87
219.597
582.986
174.268
509.899
117.221
420.165
49.376
324.792
142.933
44.6027
943.935
118.983
1786.71
169.51
1741.64
187.134
1636.32
204.255
1479.78
234.898
1337.26
278.8
1208.8
327.517
1107.11
373.601
1022.71
410.191
951.934
434.401
889.041
443.959
832.911
438.316
781.897
417.024
733.289
381.256
684.637
331.628
632.615
269.209
572.317
193.535
495.839
104.495
413.831
247.428
103.366
840.568
193.444
1696.63
250.283
1684.8
274.145
1612.46
282.536
1471.39
297.416
1322.37
333.502
1172.72
380.842
1059.77
428.818
974.735
467.778
912.974
491.208
865.611
496.432
827.687
483.616
794.713
453.347
763.557
407.179
730.805
345.611
694.183
270.646
647.281
181.371
585.115
85.1211
510.081
332.549
122.237
385.523
602.643
775.182
902.505
995.902
1035.47
1048.93
1046.63
1029.41
996.905
950.126
890.445
818.505
734.207
636.107
521.887
386.738
225.465
)
;

boundaryField
{
    outletWall
    {
        type            calculated;
        value           nonuniform List<scalar> 
60
(
2782.45
-1382.91
-833.1
-825.716
-2770.14
-4418.97
-6100.16
-5660.56
-4030.93
-3171.58
-5769.72
-8701.31
-10086.3
-10151.8
-9135.69
-6198.68
50.8364
5244.63
6721.73
5356.24
6454.96
6113.9
5995.24
6278.51
6866.15
7658.7
8500.34
9252.64
9845.24
10220.8
10244.8
9850.8
9258.18
8552.56
7779.56
7028.82
6435.5
6106.4
6179.29
6508.85
2780.86
-1387.53
-774.979
-444.325
-1951.15
-3803.16
-6082.68
-6548.87
-5892.43
-5535.69
-7005.14
-8860.18
-9754.3
-9665.33
-8287.56
-4402.8
2307.66
6155.69
6866.4
5235.91
)
;
    }
    fineWalls
    {
        type            calculated;
        value           uniform 0;
    }
    fineFrontAndBack
    {
        type            calculated;
        value           nonuniform List<scalar> 
960
(
-4.80473e-13
-2.75062e-12
-7.1189e-13
-7.57003e-13
-4.12907e-12
-1.23027e-12
-1.1862e-12
-9.41097e-13
-2.22762e-12
-9.42773e-13
-6.43118e-13
-6.16129e-12
-5.45128e-13
2.76197e-13
-2.60229e-12
-5.54062e-13
-9.76193e-14
-4.03662e-12
-2.61523e-13
-2.24367e-13
1.23291e-13
-8.96861e-14
-1.38542e-13
-1.91267e-13
-2.10597e-13
-3.51942e-13
-4.14165e-12
-6.15429e-13
-6.50593e-13
-6.70953e-13
-6.93296e-13
-7.18911e-13
-7.48421e-13
-7.73337e-13
-8.13562e-13
-8.78361e-13
-9.24899e-13
-1.0064e-12
-9.91548e-13
-1.18899e-12
-2.08335e-11
-2.12162e-12
-2.08267e-12
-3.29975e-12
-2.2247e-11
-4.88393e-12
-1.43222e-11
-1.38794e-11
-2.36647e-11
1.28066e-12
1.05868e-11
9.29836e-11
2.40781e-11
2.23203e-11
8.40062e-12
2.85304e-11
4.12746e-12
3.19842e-12
2.96855e-12
2.90178e-11
1.65214e-12
1.40688e-12
1.38914e-12
1.28615e-12
1.23375e-12
1.17197e-12
1.11563e-12
1.05357e-12
9.98842e-13
9.44889e-13
8.97475e-13
8.53653e-13
7.94706e-13
7.60146e-12
4.66505e-13
3.03508e-13
2.50281e-13
1.66045e-13
7.69043e-14
-1.6559e-13
-3.95993e-13
-6.47275e-13
-3.7791e-12
-1.03761e-12
-1.31623e-12
-5.2127e-12
-2.669e-14
-6.05403e-13
-2.85257e-12
-5.95821e-15
-1.46429e-13
-1.33449e-12
3.92624e-13
8.43118e-13
1.19882e-12
3.25734e-12
8.52014e-13
1.17178e-12
4.64576e-12
1.34671e-12
9.21762e-10
1.77535e-09
1.14206e-09
1.1464e-09
7.77904e-10
4.92921e-10
2.38016e-10
3.0653e-11
-9.74831e-11
-1.31952e-10
-1.00296e-10
-6.52944e-11
-5.17585e-11
-4.83222e-11
-4.16551e-11
-2.53994e-11
-1.45777e-11
-6.4708e-12
-4.90792e-12
1.7077e-09
1.5928e-09
1.1066e-09
1.24182e-09
9.27241e-10
4.99942e-10
1.87126e-10
-8.20442e-13
-1.05151e-10
-1.27369e-10
-9.06465e-11
-5.96588e-11
-4.98449e-11
-4.77715e-11
-4.07061e-11
-2.45918e-11
-1.51035e-11
-6.93087e-12
-6.0375e-12
1.52675e-09
1.15891e-09
8.88721e-10
1.03325e-09
9.80262e-10
6.22419e-10
1.78712e-10
-5.19457e-11
-1.21218e-10
-1.15397e-10
-6.90891e-11
-4.79266e-11
-4.55765e-11
-4.48466e-11
-3.87042e-11
-2.37879e-11
-1.5548e-11
-8.56527e-12
-5.5741e-12
1.29573e-09
7.98635e-10
6.28607e-10
7.5233e-10
8.87287e-10
7.55478e-10
2.82179e-10
-6.95621e-11
-1.47412e-10
-9.11415e-11
-1.43448e-11
-7.5537e-12
-3.65156e-11
-4.71894e-11
-4.08553e-11
-2.39877e-11
-2.25406e-11
-1.18797e-11
-4.45384e-12
9.11935e-10
4.9325e-10
3.86533e-10
4.82658e-10
7.05949e-10
7.79243e-10
4.33418e-10
-7.35591e-12
-1.5689e-10
-4.30147e-11
1.07143e-10
1.30026e-10
3.72724e-11
-2.4444e-11
-4.40786e-11
-3.63286e-11
-2.65364e-11
-2.12523e-11
-1.77285e-11
5.66743e-10
3.09009e-10
2.20432e-10
2.9511e-10
5.17576e-10
6.87242e-10
5.17205e-10
1.06214e-10
-9.6369e-11
7.38446e-11
2.43379e-10
2.50188e-10
1.464e-10
5.25549e-11
-4.26885e-12
-1.03528e-11
2.11901e-12
7.34078e-12
7.34474e-13
3.31737e-10
2.11349e-10
1.29193e-10
1.9481e-10
3.64501e-10
5.32784e-10
4.8397e-10
2.01639e-10
4.80967e-11
2.12651e-10
2.94414e-10
2.39063e-10
1.80424e-10
1.24519e-10
6.03258e-11
4.33098e-11
3.34522e-11
3.3563e-11
3.5788e-12
2.01715e-10
1.52668e-10
9.39775e-11
1.49817e-10
2.24936e-10
3.33332e-10
3.44681e-10
2.23072e-10
1.77098e-10
2.79819e-10
2.7946e-10
2.04359e-10
1.44575e-10
1.26351e-10
8.97433e-11
4.78903e-11
3.45763e-11
2.86517e-11
3.24102e-11
1.3118e-10
9.37586e-11
9.45521e-11
1.48614e-10
1.11921e-10
1.15073e-10
1.46589e-10
1.73201e-10
2.25424e-10
2.59257e-10
2.19021e-10
1.7795e-10
1.32377e-10
8.41798e-11
6.63347e-11
5.92981e-11
5.32575e-11
4.85444e-11
4.86654e-11
7.1617e-11
5.67918e-12
7.91765e-11
1.94902e-10
2.15392e-10
1.81441e-10
1.63226e-10
1.85387e-10
1.81497e-10
1.15403e-10
7.62883e-11
9.80505e-11
1.19169e-10
1.19917e-10
1.13203e-10
1.12528e-10
9.36149e-11
8.29591e-11
8.98165e-11
6.90664e-12
-1.56767e-10
-1.49191e-10
-1.30203e-10
-1.23377e-10
-1.21726e-10
-1.34603e-10
-1.73822e-10
-2.07082e-10
-1.9406e-10
-1.74368e-10
-1.85623e-10
-1.82851e-10
-1.46327e-10
-1.14655e-10
-9.16808e-11
-7.54513e-11
-6.35916e-11
-5.22369e-11
5.32415e-11
-2.13768e-10
-2.24982e-10
-1.8047e-10
-9.73008e-11
-3.42095e-11
-4.39248e-11
-1.33646e-10
-2.59334e-10
-3.0075e-10
-2.54531e-10
-1.85476e-10
-1.13488e-10
-8.11044e-11
-6.31521e-11
-5.22102e-11
-4.22896e-11
-3.65063e-11
-3.8367e-11
1.84034e-10
-1.88943e-10
-2.51929e-10
-2.06122e-10
-8.38663e-11
1.32282e-11
4.72839e-11
-9.05153e-12
-1.77458e-10
-3.01575e-10
-2.77761e-10
-1.96046e-10
-1.49332e-10
-1.25217e-10
-8.47552e-11
-4.47413e-11
-2.08502e-11
-1.68341e-11
-2.15386e-11
3.62555e-10
-7.23464e-11
-2.25073e-10
-2.27036e-10
-1.00466e-10
3.27133e-11
1.01453e-10
6.25391e-11
-8.34985e-11
-2.44346e-10
-2.80453e-10
-2.23519e-10
-1.65164e-10
-1.04815e-10
-6.26256e-11
-5.68542e-11
-3.48501e-11
-3.83541e-11
-7.90133e-12
5.33471e-10
1.26402e-10
-1.09456e-10
-1.79152e-10
-5.07055e-11
1.17898e-10
1.64251e-10
7.88615e-11
-2.5704e-11
-1.35399e-10
-2.19884e-10
-1.80623e-10
-9.8958e-11
-4.05493e-11
-1.5034e-11
-2.77979e-11
-2.86563e-11
-2.71108e-11
-2.40493e-11
6.36837e-10
3.57374e-10
1.0417e-10
-1.0873e-11
9.73506e-11
2.33684e-10
1.86836e-10
4.84766e-11
-1.39075e-11
-3.13169e-11
-7.08651e-11
-4.61853e-11
-1.1658e-11
4.66798e-12
4.91221e-12
-9.55079e-13
-8.31867e-12
-5.58965e-12
-3.82442e-12
6.37945e-10
5.38216e-10
3.54375e-10
2.45012e-10
2.96263e-10
3.08644e-10
1.48275e-10
1.4397e-11
-7.78906e-12
9.53675e-13
-3.54584e-12
-1.62042e-14
2.75862e-12
1.86718e-12
-5.62715e-13
-2.08045e-12
-1.70283e-12
-2.52614e-12
-2.95658e-12
5.58415e-10
6.09774e-10
5.41448e-10
4.76844e-10
4.40502e-10
2.9016e-10
8.77025e-11
6.8592e-12
2.1448e-12
7.19884e-12
7.11359e-12
6.19888e-12
4.96212e-12
3.70961e-12
2.52276e-12
1.41413e-12
-4.2523e-13
-8.65058e-13
1.36811e-12
4.18665e-10
5.51353e-10
5.99993e-10
5.97427e-10
4.59483e-10
2.12485e-10
6.68146e-11
2.03937e-11
7.39796e-12
7.38299e-12
1.04545e-11
9.81337e-12
7.06043e-12
4.88105e-12
3.56247e-12
2.34529e-12
1.3686e-12
4.98097e-13
1.46688e-12
3.3127e-10
3.84864e-10
4.79507e-10
4.81965e-10
3.23101e-10
1.70653e-10
8.07439e-11
2.95641e-11
8.13874e-12
7.23352e-12
1.17427e-11
1.17207e-11
7.82126e-12
5.35278e-12
4.13259e-12
2.79167e-12
2.00242e-12
9.81715e-13
7.93906e-13
4.80473e-13
2.75062e-12
7.1189e-13
7.57003e-13
4.12907e-12
1.23027e-12
1.1862e-12
9.41097e-13
2.22762e-12
9.42773e-13
6.43118e-13
6.16129e-12
5.45128e-13
-2.76197e-13
2.60229e-12
5.54062e-13
9.76193e-14
4.03662e-12
2.61523e-13
2.24367e-13
-1.23291e-13
8.96861e-14
1.38542e-13
1.91267e-13
2.10597e-13
3.51942e-13
4.14165e-12
6.15429e-13
6.50593e-13
6.70953e-13
6.93296e-13
7.18911e-13
7.48421e-13
7.73337e-13
8.13562e-13
8.78361e-13
9.24899e-13
1.0064e-12
9.91548e-13
1.18899e-12
2.08335e-11
2.12162e-12
2.08267e-12
3.29975e-12
2.2247e-11
4.88393e-12
1.43222e-11
1.38794e-11
2.36647e-11
-1.28066e-12
-1.05868e-11
-9.29836e-11
-2.40781e-11
-2.23203e-11
-8.40062e-12
-2.85304e-11
-4.12746e-12
-3.19842e-12
-2.96855e-12
-2.90178e-11
-1.65214e-12
-1.40688e-12
-1.38914e-12
-1.28615e-12
-1.23375e-12
-1.17197e-12
-1.11563e-12
-1.05357e-12
-9.98842e-13
-9.44889e-13
-8.97475e-13
-8.53653e-13
-7.94706e-13
-7.60146e-12
-4.66505e-13
-3.03508e-13
-2.50281e-13
-1.66045e-13
-7.69043e-14
1.6559e-13
3.95993e-13
6.47275e-13
3.7791e-12
1.03761e-12
1.31623e-12
5.2127e-12
2.669e-14
6.05403e-13
2.85257e-12
5.95821e-15
1.46429e-13
1.33449e-12
-3.92624e-13
-8.43118e-13
-1.19882e-12
-3.25734e-12
-8.52014e-13
-1.17178e-12
-4.64576e-12
-1.34671e-12
-9.21762e-10
-1.77535e-09
-1.14206e-09
-1.1464e-09
-7.77904e-10
-4.92921e-10
-2.38016e-10
-3.0653e-11
9.74831e-11
1.31952e-10
1.00296e-10
6.52944e-11
5.17585e-11
4.83222e-11
4.16551e-11
2.53994e-11
1.45777e-11
6.4708e-12
4.90792e-12
-1.7077e-09
-1.5928e-09
-1.1066e-09
-1.24182e-09
-9.27241e-10
-4.99942e-10
-1.87126e-10
8.20442e-13
1.05151e-10
1.27369e-10
9.06465e-11
5.96588e-11
4.98449e-11
4.77715e-11
4.07061e-11
2.45918e-11
1.51035e-11
6.93087e-12
6.0375e-12
-1.52675e-09
-1.15891e-09
-8.88721e-10
-1.03325e-09
-9.80262e-10
-6.22419e-10
-1.78712e-10
5.19457e-11
1.21218e-10
1.15397e-10
6.90891e-11
4.79266e-11
4.55765e-11
4.48466e-11
3.87042e-11
2.37879e-11
1.5548e-11
8.56527e-12
5.5741e-12
-1.29573e-09
-7.98635e-10
-6.28607e-10
-7.5233e-10
-8.87287e-10
-7.55478e-10
-2.82179e-10
6.95621e-11
1.47412e-10
9.11415e-11
1.43448e-11
7.5537e-12
3.65156e-11
4.71894e-11
4.08553e-11
2.39877e-11
2.25406e-11
1.18797e-11
4.45384e-12
-9.11935e-10
-4.9325e-10
-3.86533e-10
-4.82658e-10
-7.05949e-10
-7.79243e-10
-4.33418e-10
7.35591e-12
1.5689e-10
4.30147e-11
-1.07143e-10
-1.30026e-10
-3.72724e-11
2.4444e-11
4.40786e-11
3.63286e-11
2.65364e-11
2.12523e-11
1.77285e-11
-5.66743e-10
-3.09009e-10
-2.20432e-10
-2.9511e-10
-5.17576e-10
-6.87242e-10
-5.17205e-10
-1.06214e-10
9.6369e-11
-7.38446e-11
-2.43379e-10
-2.50188e-10
-1.464e-10
-5.25549e-11
4.26885e-12