/*--------------------------------*- C++ -*----------------------------------*\
| =========                 |                                                 |
| \\      /  F ield         | OpenFOAM: The Open Source CFD Toolbox           |
|  \\    /   O peration     | Version:  4.1                                   |
|   \\  /    A nd           | Web:      www.OpenFOAM.org                      |
|    \\/     M anipulation  |                                                 |
\*---------------------------------------------------------------------------*/
FoamFile
{
    version     2.0;
    format      ascii;
    class       volSymmTensorField;
    location    "6";
    object      R;
}
// * * * * * * * * * * * * * * * * * * * * * * * * * * * * * * * * * * * * * //

dimensions      [0 2 -2 0 0 0 0];

internalField   nonuniform List<symmTensor> 
1280
(
(0.202182 9.4699e-17 3.8928e-17 0.238287 0.0426577 0.16928)
(0.208408 1.1485e-16 4.5162e-17 0.250432 0.0483241 0.170853)
(0.202415 8.51526e-17 4.36643e-17 0.226204 0.0448268 0.18727)
(0.20621 9.1734e-17 5.11638e-17 0.226955 0.0514708 0.201174)
(0.222249 1.21597e-16 5.7989e-17 0.256242 0.059213 0.203477)
(0.210627 7.62308e-17 5.62999e-17 0.215877 0.0433796 0.22395)
(0.214209 7.58946e-17 6.59025e-17 0.211718 0.0497717 0.244757)
(0.228514 8.54288e-17 6.53123e-17 0.232454 0.0564289 0.25602)
(0.257911 1.41225e-16 9.27353e-17 0.275567 0.0888565 0.29359)
(0.259855 1.07163e-16 6.46506e-17 0.270786 0.0639446 0.290226)
(0.273676 1.13239e-16 5.3397e-17 0.285832 0.0666879 0.307981)
(0.323353 1.91273e-16 4.80611e-17 0.354203 0.109325 0.370369)
(0.311166 1.29751e-16 2.32556e-17 0.311288 0.0540568 0.40192)
(0.321868 1.3763e-16 3.00636e-17 0.314079 0.0541811 0.426695)
(0.398786 2.61399e-16 7.52695e-17 0.422099 0.104913 0.484045)
(0.393647 2.17696e-16 6.76474e-17 0.401925 0.073704 0.497475)
(0.406511 2.01683e-16 7.45369e-17 0.403879 0.0565553 0.542418)
(0.499367 2.58863e-16 1.34102e-16 0.480286 0.0281451 0.782448)
(0.500837 2.31921e-16 1.14971e-16 0.486505 0.0146632 0.748315)
(0.512096 2.22151e-16 9.46042e-17 0.490377 -0.0142531 0.753)
(0.651612 1.91465e-16 3.39529e-18 0.526617 -0.0983462 1.01235)
(1.28053 1.41578e-16 -1.68845e-16 0.817803 -0.00440539 2.23699)
(1.36125 9.41359e-17 -1.89535e-16 0.912024 0.0190056 2.27011)
(1.36005 6.87152e-17 -1.87749e-16 0.992675 0.0949044 2.14882)
(1.38696 7.76566e-17 -1.74819e-16 1.10465 0.232124 2.08552)
(1.45571 9.16943e-17 -1.63431e-16 1.25816 0.405922 2.12083)
(0.979357 5.15556e-17 -9.51414e-17 0.824879 0.232536 1.42613)
(1.16952 5.91946e-17 -1.07432e-16 1.11663 0.506192 1.62969)
(1.29073 6.32348e-17 -1.11886e-16 1.32413 0.6748 1.75087)
(1.38536 6.80308e-17 -1.13248e-16 1.49447 0.801446 1.84073)
(1.45938 7.64668e-17 -1.11779e-16 1.63374 0.895843 1.9055)
(1.51721 8.78535e-17 -1.07592e-16 1.74639 0.965193 1.94934)
(1.5628 1.01426e-16 -1.01035e-16 1.83851 1.01495 1.97528)
(1.5989 1.20898e-16 -9.04599e-17 1.91356 1.04966 1.98588)
(1.62922 1.50159e-16 -7.43457e-17 1.97836 1.07436 1.98565)
(1.65405 1.83522e-16 -5.53572e-17 2.03066 1.09195 1.97704)
(1.67826 2.21704e-16 -3.27503e-17 2.08072 1.10909 1.9692)
(1.6945 2.57329e-16 -1.04708e-17 2.10927 1.12097 1.95589)
(1.7101 3.10121e-16 2.35568e-17 2.13327 1.14076 1.95853)
(1.68591 3.1981e-16 3.8014e-17 2.08674 1.12054 1.91002)
(1.65203 2.45695e-16 -4.99752e-18 2.06028 1.1032 1.7471)
(1.61753 2.01451e-16 1.2765e-17 2.05182 0.870785 1.54568)
(1.58262 1.86064e-16 3.15794e-17 2.0432 0.757486 1.36638)
(1.53086 1.42102e-16 4.6932e-17 1.9853 0.640962 1.2545)
(1.40846 3.11342e-17 4.39863e-17 1.8293 0.610292 1.0918)
(1.18961 -1.78227e-16 5.38845e-17 1.55948 0.29786 0.838967)
(1.11042 -3.71346e-16 5.15188e-17 1.48075 0.186547 0.736221)
(1.07381 -5.85096e-16 3.82847e-17 1.47238 0.103518 0.671338)
(1.10828 -1.23437e-15 -6.52842e-17 1.65369 0.051678 0.632752)
(1.02003 -9.30146e-16 -1.03849e-16 1.47102 0.0113771 0.553027)
(1.01867 -8.95876e-16 -1.4916e-16 1.47323 0.041201 0.54321)
(1.10694 -1.23166e-15 -1.66244e-16 1.67344 0.0710772 0.583935)
(1.05836 -5.45615e-16 -1.99046e-16 1.46504 -0.0433503 0.642841)
(1.08622 -3.09003e-16 -1.63906e-16 1.46058 -0.147267 0.709955)
(1.15673 -1.25585e-16 -1.17151e-16 1.52888 -0.265691 0.809713)
(1.36061 7.21963e-17 -1.81686e-18 1.78116 -0.589412 1.05697)
(1.47438 1.56223e-16 2.64933e-17 1.92761 -0.621353 1.21331)
(1.52147 1.97696e-16 4.96849e-17 1.98078 -0.7342 1.31956)
(1.55331 2.12675e-16 7.88348e-17 1.98794 -0.84263 1.49021)
(1.58608 2.56885e-16 1.27231e-16 1.99574 -1.06524 1.68411)
(1.61752 4.0106e-16 -9.72365e-17 2.02191 -1.08085 1.83845)
(1.63945 3.93922e-16 -8.70548e-17 2.06473 -1.09979 1.88504)
(1.62393 3.32466e-16 -4.66533e-17 2.04103 -1.08156 1.88118)
(1.60842 2.8684e-16 -1.77583e-17 2.014 -1.07183 1.89347)
(1.58482 2.42312e-16 9.42669e-18 1.96543 -1.05613 1.89968)
(1.55999 2.09007e-16 3.01562e-17 1.91383 -1.03879 1.9055)
(1.52937 1.8107e-16 4.829e-17 1.84937 -1.01372 1.90229)
(1.49284 1.56192e-16 6.494e-17 1.77451 -0.978486 1.88807)
(1.44711 1.33167e-16 8.02138e-17 1.68297 -0.928687 1.85904)
(1.38981 1.13126e-16 9.35244e-17 1.57172 -0.860341 1.81327)
(1.31729 9.69485e-17 1.04264e-16 1.43507 -0.76834 1.74808)
(1.22535 8.56914e-17 1.11117e-16 1.26864 -0.64559 1.65932)
(1.10818 7.5747e-17 1.14886e-16 1.0662 -0.48268 1.54085)
(0.927912 6.59917e-17 1.12187e-16 0.785541 -0.222214 1.34657)
(1.39314 1.24391e-16 1.97067e-16 1.20588 -0.391326 2.02828)
(1.33092 1.14036e-16 2.19392e-16 1.05806 -0.227691 2.00066)
(1.31066 1.07536e-16 2.47978e-16 0.951415 -0.100837 2.07114)
(1.31709 1.33904e-16 2.73399e-16 0.874654 -0.0331666 2.19877)
(1.2385 1.88731e-16 2.87526e-16 0.781727 -0.0128976 2.17187)
(0.61241 2.56817e-16 1.53227e-16 0.493681 0.0855451 0.964309)
(0.479607 3.02186e-16 8.14061e-17 0.461313 0.00992316 0.731282)
(0.469855 3.13395e-16 6.57246e-17 0.458214 -0.0199377 0.730798)
(0.468627 3.48914e-16 7.00495e-17 0.450432 -0.0334244 0.769919)
(0.373707 1.78343e-16 1.88951e-17 0.366007 -0.0608114 0.552901)
(0.361092 1.65356e-16 1.17812e-17 0.366455 -0.077266 0.504566)
(0.374418 1.87693e-16 -6.60547e-18 0.414824 -0.132878 0.458502)
(0.297668 7.2928e-17 -1.11478e-17 0.308562 -0.0911841 0.38436)
(0.279357 5.12047e-17 -1.29011e-17 0.286268 -0.0979886 0.374762)
(0.273356 4.39579e-17 -1.69393e-17 0.278096 -0.136489 0.399936)
(0.228061 3.18318e-17 2.06418e-18 0.213087 -0.0870544 0.345086)
(0.220759 3.92252e-17 3.51875e-18 0.218521 -0.0712293 0.300841)
(0.228919 5.39539e-17 -3.63567e-18 0.260674 -0.0859552 0.248515)
(0.202092 2.00256e-17 -3.97266e-18 0.216231 -0.0582479 0.223498)
(0.191741 1.91286e-17 -2.25599e-18 0.205452 -0.0478275 0.201149)
(0.186263 2.48411e-17 6.65247e-19 0.203518 -0.0386284 0.186736)
(0.195013 5.86047e-17 2.26827e-17 0.23937 -0.0469859 0.163579)
(0.182804 4.16805e-17 1.38156e-17 0.219013 -0.0364414 0.153413)
(0.177816 3.87549e-17 1.1756e-17 0.212781 -0.0329399 0.14914)
(0.181724 5.95947e-17 2.88241e-17 0.230202 -0.0348267 0.139992)
(0.174106 4.63573e-17 1.76535e-17 0.212275 -0.0347074 0.147821)
(0.61024 -2.63016e-15 -5.46347e-15 0.847633 0.359025 0.90315)
(0.553759 -5.43563e-15 -7.39289e-15 0.819099 0.307337 0.785766)
(0.453454 -1.09725e-15 -5.17208e-15 0.743508 0.19393 0.567728)
(0.361895 2.95683e-15 -3.0843e-15 0.688545 0.0883986 0.35533)
(0.299763 4.86619e-15 -2.38066e-15 0.625829 0.0396679 0.24014)
(0.286038 3.58788e-15 -1.673e-15 0.620474 0.0473723 0.208855)
(0.311196 1.84226e-15 -1.00036e-15 0.689947 0.0641797 0.218595)
(0.356989 1.15291e-15 -4.7073e-16 0.79339 0.0505004 0.249079)
(0.428454 1.32504e-15 -1.02517e-16 0.925086 -0.00829452 0.311823)
(0.548383 1.83372e-15 7.75826e-17 1.10902 -0.133705 0.444843)
(0.725701 2.52583e-15 6.24495e-17 1.35366 -0.339452 0.695279)
(0.7109 2.09414e-15 -2.75436e-16 1.22337 -0.499242 0.836804)
(0.561193 1.55733e-15 -3.39686e-16 0.897508 -0.391435 0.728106)
(0.398452 1.06891e-15 -1.93793e-16 0.600606 -0.179636 0.50421)
(0.324433 7.62876e-16 1.48401e-17 0.502945 -0.0138864 0.340317)
(0.309485 5.06862e-16 1.12101e-16 0.555037 0.0468329 0.222501)
(0.306223 2.98724e-16 7.84204e-17 0.536445 -0.0128885 0.194547)
(0.270227 1.6607e-16 5.36571e-17 0.441959 -0.06194 0.181856)
(0.228486 1.05092e-16 6.43729e-17 0.341633 -0.0392251 0.15684)
(0.67008 -5.82757e-15 -8.4974e-15 0.886404 0.421995 1.05131)
(0.608184 -7.42547e-15 -9.14902e-15 0.857071 0.377232 0.926768)
(0.49053 -2.24431e-15 -5.37441e-15 0.769657 0.253926 0.664541)
(0.38569 1.88758e-15 -3.06277e-15 0.710125 0.137053 0.409604)
(0.320491 4.4655e-15 -2.28261e-15 0.655911 0.0700962 0.270377)
(0.314034 3.44477e-15 -1.66321e-15 0.666353 0.0709236 0.242167)
(0.351473 1.66753e-15 -1.00962e-15 0.761504 0.0865459 0.260023)
(0.41869 1.04788e-15 -4.42896e-16 0.909145 0.0734852 0.305773)
(0.523282 1.55962e-15 -6.16143e-18 1.10842 0.0118258 0.392386)
(0.692113 2.59709e-15 2.28377e-16 1.39122 -0.123573 0.566096)
(0.917293 3.85723e-15 2.14287e-16 1.69518 -0.350802 0.89438)
(0.829418 2.78986e-15 -4.24552e-16 1.37924 -0.573169 1.04982)
(0.626368 1.90639e-15 -4.71121e-16 0.955352 -0.422872 0.881883)
(0.441904 1.27192e-15 -2.6584e-16 0.641583 -0.172235 0.593922)
(0.36101 8.78949e-16 -9.34815e-18 0.555343 0.00443775 0.385663)
(0.344043 5.48523e-16 1.0479e-16 0.623431 0.0546526 0.245423)
(0.336976 3.1104e-16 6.75506e-17 0.583207 -0.025445 0.22334)
(0.293391 1.65508e-16 4.98902e-17 0.468209 -0.0801139 0.214508)
(0.249229 1.08074e-16 5.82126e-17 0.36376 -0.0651902 0.189314)
(0.7733 -1.0421e-14 -1.21388e-14 0.947445 0.523707 1.3162)
(0.703754 -8.84933e-15 -1.05391e-14 0.918442 0.486633 1.17628)
(0.561887 -3.64362e-15 -5.67407e-15 0.822416 0.353397 0.843559)
(0.437066 1.91089e-16 -3.12815e-15 0.758948 0.225567 0.524026)
(0.363119 3.53073e-15 -2.06612e-15 0.717916 0.136443 0.338211)
(0.361373 3.52707e-15 -1.57849e-15 0.74072 0.119418 0.304725)
(0.413981 1.96719e-15 -9.96083e-16 0.86268 0.132223 0.333253)
(0.516128 1.22192e-15 -3.24501e-16 1.07908 0.136709 0.406755)
(0.677402 2.04373e-15 3.40405e-16 1.39355 0.10628 0.535543)
(0.939967 4.11452e-15 9.2686e-16 1.85595 0.0329228 0.786998)
(1.23117 6.52957e-15 1.23785e-15 2.20095 -0.107401 1.21475)
(0.979525 4.21257e-15 -4.44756e-16 1.55301 -0.542215 1.28844)
(0.726423 2.57261e-15 -6.79246e-16 1.02439 -0.436614 1.13373)
(0.510009 1.6089e-15 -4.28109e-16 0.689207 -0.163424 0.769715)
(0.415241 1.05495e-15 -8.84717e-17 0.616424 0.0216681 0.478053)
(0.399332 6.07392e-16 7.30378e-17 0.716278 0.0589049 0.2955)
(0.407957 3.42431e-16 5.16063e-17 0.672236 -0.0370763 0.30289)
(0.339615 1.77223e-16 4.91762e-17 0.513026 -0.094667 0.27693)
(0.292699 1.19459e-16 4.31873e-17 0.410527 -0.113326 0.261902)
(0.896683 -1.16539e-14 -1.34088e-14 1.0284 0.62315 1.6159)
(0.825691 -8.70797e-15 -1.04911e-14 1.0095 0.59605 1.46444)
(0.669788 -4.42558e-15 -5.63104e-15 0.91909 0.469848 1.08358)
(0.526199 -1.13479e-15 -3.11819e-15 0.854553 0.339001 0.706971)
(0.437898 2.26722e-15 -1.8859e-15 0.821844 0.236973 0.464565)
(0.441146 3.39566e-15 -1.41116e-15 0.862118 0.207558 0.419927)
(0.518122 2.70164e-15 -8.90268e-16 1.02174 0.223184 0.469874)
(0.684339 2.08831e-15 -1.60365e-17 1.34986 0.274775 0.609672)
(0.96288 3.18437e-15 1.2334e-15 1.87424 0.351286 0.864344)
(1.44077 6.88066e-15 3.17026e-15 2.65147 0.53844 1.42067)
(1.69206 9.49642e-15 4.13699e-15 2.74925 0.618912 1.95782)
(1.17719 6.65263e-15 5.4901e-16 1.7973 -0.168736 1.51689)
(0.867558 3.82673e-15 -7.86237e-16 1.16668 -0.328403 1.39346)
(0.621004 2.21841e-15 -6.71348e-16 0.785761 -0.122166 1.0353)
(0.501843 1.35892e-15 -2.38545e-16 0.703523 0.0504157 0.644737)
(0.499897 7.2282e-16 -1.0738e-17 0.843381 0.0504342 0.418504)
(0.540161 5.27053e-16 4.62998e-17 0.803449 -0.0214453 0.485043)
(0.435698 2.65251e-16 5.62926e-17 0.605671 -0.106363 0.409892)
(0.379072 1.31045e-16 4.59885e-17 0.509726 -0.177823 0.397594)
(1.02048 -1.08508e-14 -1.22979e-14 1.11563 0.698508 1.89032)
(0.957908 -7.41698e-15 -8.92617e-15 1.11457 0.687504 1.74469)
(0.808909 -4.37887e-15 -5.00918e-15 1.04721 0.591647 1.36842)
(0.65966 -1.8836e-15 -2.88233e-15 0.993633 0.478586 0.971367)
(0.561505 9.39262e-16 -1.77296e-15 0.979846 0.380233 0.682511)
(0.575996 2.76046e-15 -1.27172e-15 1.05395 0.353494 0.631083)
(0.691607 3.38546e-15 -6.61253e-16 1.26521 0.389176 0.725636)
(0.951432 3.69648e-15 6.04017e-16 1.71844 0.521604 0.99541)
(1.39938 5.37639e-15 2.95047e-15 2.44796 0.796067 1.53397)
(2.10384 9.62527e-15 7.13219e-15 3.26654 1.41646 2.78275)
(2.20903 9.2331e-15 6.97182e-15 3.01656 1.50841 3.35455)
(1.52663 7.85791e-15 2.89661e-15 2.12504 0.633671 2.21405)
(1.04928 5.13099e-15 -3.15194e-16 1.40592 0.0339693 1.65654)
(0.777559 3.10821e-15 -7.61536e-16 0.978765 0.0470038 1.3179)
(0.652594 1.97677e-15 -3.7379e-16 0.880109 0.159438 0.914508)
(0.713607 1.29541e-15 -4.84748e-17 1.03794 0.151172 0.764194)
(0.767765 1.02421e-15 1.53415e-16 0.992938 0.131659 0.871871)
(0.614417 7.06086e-16 4.45458e-17 0.769452 -0.0431555 0.670666)
(0.514957 3.73237e-16 -1.95373e-19 0.640104 -0.20376 0.609466)
(1.13678 -8.65115e-15 -9.4815e-15 1.20149 0.745601 2.12087)
(1.09678 -5.75108e-15 -6.71083e-15 1.23128 0.76029 2.00948)
(0.97905 -3.85145e-15 -4.05135e-15 1.20856 0.714391 1.69176)
(0.850849 -2.21924e-15 -2.49582e-15 1.19388 0.647018 1.33332)
(0.760067 -3.57643e-16 -1.7747e-15 1.21884 0.578334 1.03664)
(0.795881 1.52423e-15 -1.34355e-15 1.34387 0.574834 0.995652)
(0.964825 3.33016e-15 -5.13984e-16 1.61736 0.65264 1.17071)
(1.32409 5.18132e-15 1.3774e-15 2.14601 0.877927 1.63965)
(1.90767 7.55182e-15 4.98189e-15 2.86537 1.337 2.61537)
(2.57126 8.38703e-15 8.37358e-15 3.30022 2.00368 4.32008)
(2.63725 5.30113e-15 5.13677e-15 3.1419 2.04751 4.77191)
(2.17792 5.05481e-15 2.42537e-15 2.80532 1.65734 3.72524)
(1.3679 5.11779e-15 3.68815e-16 1.86412 0.689033 2.23578)
(1.02105 3.75758e-15 -4.00352e-16 1.34118 0.431878 1.7206)
(0.920148 2.72103e-15 -1.44225e-16 1.2563 0.471717 1.35347)
(1.13649 1.90774e-15 2.4988e-16 1.46518 0.535676 1.5376)
(1.1935 1.3203e-15 5.16326e-16 1.35723 0.539094 1.75902)
(1.00894 1.09415e-15 3.3609e-16 1.18358 0.317331 1.36796)
(0.72351 6.55266e-16 2.06245e-16 0.897938 0.157584 0.871672)
(1.23884 -6.55928e-15 -6.63187e-15 1.27646 0.755199 2.30087)
(1.23232 -4.62965e-15 -4.90277e-15 1.34347 0.802198 2.24888)
(1.16408 -3.43644e-15 -3.24828e-15 1.3795 0.816613 2.02335)
(1.0846 -2.63629e-15 -2.33661e-15 1.42984 0.818192 1.75702)
(1.02763 -1.89355e-15 -2.12746e-15 1.51692 0.80629 1.5103)
(1.08476 -4.64788e-16 -1.83384e-15 1.68841 0.831151 1.48761)
(1.29694 1.80207e-15 -8.29242e-16 1.99281 0.944849 1.75193)
(1.70967 4.65731e-15 1.5237e-15 2.46786 1.2207 2.43664)
(2.31311 6.49522e-15 5.00507e-15 2.94332 1.71949 3.80841)
(2.75027 3.77348e-15 4.48365e-15 3.10394 2.09702 5.19662)
(2.75997 5.40994e-16 -1.03383e-17 3.12631 2.13926 5.28191)
(2.60315 6.30942e-16 -1.14668e-15 3.26508 2.19034 4.75597)
(2.01546 3.24653e-15 1.88163e-16 2.76191 1.68678 3.57595)
(1.48737 3.4207e-15 3.1177e-17 2.05437 1.11557 2.56626)
(1.4449 2.75259e-15 2.39562e-16 2.00438 1.07546 2.27646)
(1.94455 1.30113e-15 3.17605e-16 2.17829 1.24621 3.35492)
(1.78394 7.06426e-16 5.08921e-16 1.67693 1.07479 3.41436)
(1.61569 4.29571e-16 3.33087e-16 1.31536 0.96083 3.35127)
(0.732245 8.74832e-17 7.72577e-17 0.538799 0.105161 1.3311)
(1.3139 -5.46205e-15 -4.68227e-15 1.32647 0.705343 2.41225)
(1.34339 -4.44189e-15 -3.83251e-15 1.43348 0.785001 2.42366)
(1.32881 -3.55005e-15 -2.84316e-15 1.53627 0.856066 2.28305)
(1.31247 -3.40068e-15 -2.59032e-15 1.66803 0.927387 2.11775)
(1.31166 -3.74697e-15 -2.86176e-15 1.83112 0.98322 1.96449)
(1.38354 -3.14253e-15 -2.6527e-15 2.02191 1.02913 1.96733)
(1.58738 -1.14402e-15 -1.58492e-15 2.27021 1.13334 2.2674)
(1.93901 1.58703e-15 5.20739e-16 2.5333 1.34875 3.01333)
(2.35481 1.92977e-15 1.94523e-15 2.65257 1.62433 4.23137)
(2.55954 -1.10135e-15 -4.73527e-16 2.68013 1.72308 4.97129)
(2.60143 -2.53713e-15 -3.01678e-15 2.82347 1.83326 5.0297)
(2.68511 -1.50835e-15 -2.72648e-15 3.22043 2.18107 5.04845)
(2.68631 5.07267e-16 -1.07887e-15 3.57394 2.48002 4.96504)
(2.36504 1.43491e-15 -3.13268e-16 3.27106 2.20331 4.29425)
(2.50345 9.89269e-16 -1.41103e-16 3.13765 2.17207 4.66257)
(3.04991 3.02479e-16 -2.03472e-16 2.85185 2.08579 6.62693)
(2.10321 2.77393e-16 2.55837e-16 1.70084 1.03743 4.73136)
(1.13507 1.93582e-16 2.22672e-16 0.961922 0.184762 1.91945)
(1.07738 2.34817e-16 1.30806e-16 1.12104 -0.325331 1.30626)
(1.34463 -5.5199e-15 -3.57997e-15 1.33751 0.553545 2.41853)
(1.39448 -5.20061e-15 -3.13857e-15 1.47176 0.64634 2.45126)
(1.4152 -4.41286e-15 -2.54823e-15 1.6311 0.751027 2.34118)
(1.44595 -4.18158e-15 -2.65392e-15 1.83238 0.86706 2.22792)
(1.49096 -4.39053e-15 -2.78817e-15 2.04873 0.965522 2.14732)
(1.56071 -4.44235e-15 -2.47449e-15 2.21597 1.00772 2.16631)
(1.68638 -3.51253e-15 -1.56923e-15 2.31157 1.02769 2.38761)
(1.86043 -2.3114e-15 -3.91161e-16 2.2773 1.04445 2.89653)
(2.03 -3.25772e-15 -8.26106e-16 2.12733 1.02365 3.59928)
(2.15887 -5.01548e-15 -2.70769e-15 2.11067 1.01455 4.1201)
(2.27613 -4.67505e-15 -3.4129e-15 2.30585 1.18656 4.39717)
(2.40369 -3.13484e-15 -2.75037e-15 2.68724 1.5543 4.51318)
(2.57696 -1.58426e-15 -1.66222e-15 3.16185 2.01748 4.7448)
(2.62891 -4.05846e-16 -7.5181e-16 3.27908 2.21122 4.9602)
(2.35092 -2.35506e-17 -2.91349e-17 2.63655 1.75791 4.6443)
(1.79831 1.75026e-16 3.38833e-16 1.89493 0.989696 3.3723)
(1.25255 1.80815e-16 1.75048e-16 1.49287 0.22005 1.64934)
(1.18803 1.94065e-16 7.10071e-17 1.59874 -0.226522 1.19857)
(1.30618 2.03685e-16 7.15648e-18 1.83649 -0.583729 1.20847)
(1.33783 -6.16198e-15 -2.84719e-15 1.32065 0.255976 2.34264)
(1.38577 -6.89104e-15 -2.41961e-15 1.46341 0.31728 2.34028)
(1.40808 -7.03635e-15 -2.15385e-15 1.6512 0.390857 2.17749)
(1.4472 -7.30957e-15 -2.67066e-15 1.893 0.476275 2.02083)
(1.5066 -7.32161e-15 -2.93843e-15 2.14681 0.550342 1.92825)
(1.57437 -7.3946e-15 -2.76217e-15 2.31141 0.580974 1.94841)
(1.63828 -7.59419e-15 -2.4739e-15 2.3081 0.542823 2.09743)
(1.69205 -8.18257e-15 -1.41632e-15 2.09193 0.453702 2.43419)
(1.75615 -8.84228e-15 -1.64353e-15 1.7859 0.324771 2.98083)
(1.89035 -8.15578e-15 -2.02288e-15 1.72319 0.268019 3.6027)
(1.9563 -6.94122e-15 -2.0148e-15 1.87837 0.324483 3.73195)
(1.9007 -6.14835e-15 -2.08356e-15 2.12512 0.393861 3.27389)
(1.8541 -5.33067e-15 -1.21564e-15 2.41631 0.485703 2.80707)
(1.79532 -4.27803e-15 -1.23348e-15 2.53094 0.581976 2.50377)
(1.63147 -3.36537e-15 -1.18813e-15 2.32989 0.479118 2.12755)
(1.44752 -2.84667e-15 1.27198e-16 2.21713 0.0450546 1.54706)
(1.47371 -2.54567e-15 4.40989e-16 2.545 -0.346811 1.23478)
(1.7041 -2.25354e-15 5.54973e-16 3.19973 -0.615039 1.30349)
(1.95253 -1.95557e-15 6.22715e-16 3.84454 -0.888197 1.36937)
(1.35059 -4.79866e-15 -2.5266e-15 1.3378 -0.177999 2.34698)
(1.39788 -6.28726e-15 -1.44297e-15 1.48469 -0.200235 2.33141)
(1.42028 -6.89897e-15 -6.29983e-16 1.68159 -0.219418 2.15018)
(1.4591 -6.96136e-15 -8.2895e-16 1.93699 -0.230769 1.96671)
(1.51949 -6.42291e-15 -1.12444e-15 2.20843 -0.233873 1.84806)
(1.59116 -5.91712e-15 -1.13153e-15 2.38716 -0.255892 1.86449)
(1.65278 -6.23822e-15 -6.4117e-16 2.36704 -0.284152 2.03371)
(1.70237 -7.564e-15 -5.19338e-16 2.112 -0.313313 2.40799)
(1.79547 -8.47552e-15 7.88977e-16 1.81493 -0.366587 3.05215)
(1.98484 -7.38166e-15 2.06108e-15 1.80399 -0.504325 3.81456)
(2.09212 -6.01792e-15 2.519e-15 1.99174 -0.704633 4.06595)
(2.0856 -5.19461e-15 2.4752e-15 2.27763 -0.933935 3.76884)
(2.0772 -4.48392e-15 2.19691e-15 2.6031 -1.1181 3.4336)
(1.97484 -3.93624e-15 1.49521e-15 2.67779 -1.01746 3.0158)
(1.66042 -3.62878e-15 5.6043e-16 2.36439 -0.462441 2.1736)
(1.43479 -3.29047e-15 -1.42878e-16 2.25752 0.0891858 1.42863)
(1.50618 -2.90355e-15 -4.56591e-16 2.62664 0.396199 1.23765)
(1.74436 -2.5252e-15 -5.44875e-16 3.26474 0.645029 1.34562)
(1.98217 -2.28832e-15 -5.87921e-16 3.87893 0.907895 1.39828)
(1.39398 -9.18653e-16 -4.13172e-15 1.39628 -0.525222 2.47779)
(1.44811 -2.48225e-15 -2.22849e-15 1.54663 -0.599996 2.49549)
(1.48076 -2.72071e-15 -6.85183e-16 1.73824 -0.68821 2.37467)
(1.52743 -1.59151e-15 -1.00013e-15 1.98499 -0.78583 2.24583)
(1.59218 2.49983e-16 -1.9743e-15 2.25717 -0.882917 2.1546)
(1.67109 1.76076e-15 -2.91048e-15 2.45242 -0.954739 2.18478)
(1.77816 2.09716e-15 -3.34482e-15 2.50383 -0.991831 2.4091)
(1.93462 9.04267e-16 -2.88511e-15 2.39217 -1.04882 2.95073)
(2.14183 -1.7978e-15 -4.82474e-16 2.25432 -1.13546 3.77129)
(2.35156 -3.47232e-15 2.32613e-15 2.32063 -1.26879 4.49509)
(2.54937 -2.95975e-15 3.23546e-15 2.5832 -1.55839 5.00923)
(2.77084 -1.46493e-15 2.45359e-15 3.04196 -2.04295 5.44491)
(2.92423 -2.63663e-16 1.22845e-15 3.46541 -2.4661 5.76034)
(2.79484 -1.69983e-16 6.32204e-16 3.31333 -2.33236 5.54725)
(2.37965 -3.73999e-16 3.35299e-16 2.54781 -1.67133 4.79276)
(1.67913 -1.72822e-16 7.04092e-17 1.82423 -0.785655 2.92743)
(1.25766 -3.13632e-18 -2.27553e-17 1.55509 -0.147482 1.53979)
(1.24103 2.37e-17 -1.16353e-17 1.67666 0.237519 1.24364)
(1.35351 2.90703e-17 1.49043e-18 1.88416 0.5933 1.25615)
(1.40929 2.93859e-15 -7.03976e-15 1.43176 -0.732511 2.56812)
(1.45078 1.15867e-15 -4.4476e-15 1.5697 -0.81371 2.57447)
(1.46282 2.20751e-16 -1.73083e-15 1.72967 -0.901837 2.44675)
(1.48193 9.1232e-16 -1.47037e-15 1.93451 -0.999741 2.30817)
(1.51092 2.46416e-15 -2.36296e-15 2.17479 -1.08953 2.16956)
(1.5658 3.88258e-15 -3.45822e-15 2.38353 -1.13526 2.12227)
(1.72819 4.87406e-15 -4.39238e-15 2.58823 -1.21369 2.35595)
(2.04538 5.18813e-15 -5.18865e-15 2.77274 -1.42151 3.0795)
(2.50112 3.56529e-15 -4.39719e-15 2.89669 -1.77414 4.41828)
(2.79295 3.30757e-16 -3.38285e-16 3.00727 -1.99527 5.38151)
(2.87344 -9.04235e-16 2.34185e-15 3.18351 -2.17272 5.58753)
(2.90634 -3.60481e-17 1.97617e-15 3.50159 -2.47548 5.61962)
(2.5887 1.28435e-15 7.38809e-16 3.35222 -2.3496 5.00093)
(2.41677 1.11623e-15 5.54109e-16 3.13689 -2.18373 4.60364)
(3.06107 -6.03631e-17 1.05637e-15 3.3694 -2.44611 6.13247)
(2.86255 -1.91078e-16 9.82916e-16 2.58242 -1.85355 6.36185)
(1.88925 5.32067e-17 2.25391e-16 1.58496 -0.944564 4.0702)
(1.1984 8.13789e-17 -9.0474e-18 1.02901 -0.234076 2.01971)
(1.13322 1.79346e-16 -3.0399e-17 1.16504 0.325083 1.38826)
(1.38004 6.08917e-15 -1.01485e-14 1.42433 -0.833364 2.56561)
(1.39047 4.58589e-15 -7.5254e-15 1.5305 -0.895795 2.52103)
(1.34887 2.86229e-15 -3.77626e-15 1.6286 -0.93853 2.30745)
(1.30083 2.56292e-15 -2.47471e-15 1.7494 -0.97614 2.07079)
(1.25328 3.19205e-15 -2.60155e-15 1.8976 -0.9896 1.80961)
(1.26791 3.81076e-15 -3.11064e-15 2.07128 -0.979893 1.67279)
(1.41578 4.28356e-15 -3.60215e-15 2.32943 -1.02641 1.79984)
(1.74692 5.18991e-15 -4.51553e-15 2.71412 -1.22041 2.32347)
(2.30668 6.40707e-15 -5.92284e-15 3.15348 -1.69916 3.56662)
(2.83387 4.72608e-15 -4.5674e-15 3.38667 -2.2148 5.15588)
(2.85355 2.49542e-15 -9.89904e-16 3.38745 -2.28166 5.3435)
(2.41487 3.17942e-15 -3.62675e-16 3.15053 -1.99442 4.38937)
(1.73282 3.50744e-15 -3.77946e-17 2.33753 -1.27076 3.1248)
(1.46589 2.69029e-15 2.12757e-16 1.9528 -1.04518 2.56381)
(1.73476 1.78513e-15 -8.06271e-17 2.3266 -1.24362 2.71068)
(2.20607 3.53105e-16 3.80261e-16 2.27821 -1.4263 4.1186)
(1.88915 5.26395e-17 2.90114e-16 1.73365 -1.17626 3.72132)
(1.71869 -3.22211e-17 4.48625e-16 1.42777 -1.05662 3.5493)
(0.803814 2.03812e-17 5.36974e-17 0.597203 -0.126226 1.4688)
(1.31266 7.9806e-15 -1.22031e-14 1.38082 -0.860841 2.46918)
(1.29272 7.47253e-15 -1.04753e-14 1.45247 -0.901232 2.38098)
(1.19518 5.59322e-15 -6.46216e-15 1.48664 -0.888137 2.07051)
(1.08107 4.38457e-15 -4.09226e-15 1.52446 -0.848172 1.71401)
(0.972515 3.74764e-15 -3.06715e-15 1.58122 -0.77659 1.34669)
(0.959 3.05349e-15 -2.60331e-15 1.69808 -0.721023 1.17201)
(1.06041 2.75136e-15 -2.45776e-15 1.91674 -0.716116 1.20562)
(1.3126 3.57814e-15 -2.79798e-15 2.32796 -0.809051 1.47232)
(1.76142 6.07882e-15 -4.0279e-15 2.94543 -1.10147 2.12851)
(2.38239 8.32681e-15 -5.895e-15 3.47102 -1.73155 3.52503)
(2.41855 7.12332e-15 -4.31648e-15 3.28006 -1.7851 3.91689)
(1.62589 5.94729e-15 -1.26526e-15 2.31686 -0.875905 2.54212)
(1.18942 4.19867e-15 3.1599e-16 1.63965 -0.409035 1.96326)
(0.974395 2.80891e-15 5.07203e-16 1.30735 -0.377029 1.5724)
(1.02868 2.00526e-15 4.20724e-17 1.4832 -0.526036 1.33898)
(1.45168 1.10394e-15 -6.0187e-17 1.74828 -0.740685 2.12785)
(1.35711 5.99085e-16 -4.37129e-17 1.46599 -0.640547 2.11263)
(1.06107 6.21172e-16 -6.84716e-18 1.23569 -0.327773 1.42899)
(0.755535 3.74615e-16 4.05337e-17 0.931793 -0.157207 0.893945)
(1.21515 8.20825e-15 -1.22579e-14 1.31443 -0.835188 2.27819)
(1.17608 8.93619e-15 -1.19004e-14 1.35523 -0.859426 2.17764)
(1.03795 7.39201e-15 -8.41153e-15 1.33113 -0.794621 1.8032)
(0.882927 5.47726e-15 -5.31093e-15 1.30497 -0.689792 1.3675)
(0.750571 3.46301e-15 -3.19904e-15 1.3028 -0.563712 0.96447)
(0.724127 1.7591e-15 -2.01979e-15 1.37447 -0.483257 0.791628)
(0.787732 1.29847e-15 -1.54809e-15 1.54053 -0.444544 0.779288)
(0.956895 2.18892e-15 -1.47567e-15 1.88172 -0.455552 0.899648)
(1.25093 4.27272e-15 -1.80411e-15 2.43207 -0.526005 1.18063)
(1.68394 7.438e-15 -2.83187e-15 3.08105 -0.729855 1.77947)
(1.70792 8.42356e-15 -2.5032e-15 2.86765 -0.654143 2.04017)
(1.18329 5.70258e-15 7.75687e-17 1.87235 -0.0020538 1.57039)
(0.917583 3.55028e-15 8.07508e-16 1.30714 0.0762503 1.42958)
(0.739738 2.19103e-15 6.73572e-16 1.02173 -0.0586875 1.11239)
(0.711692 1.41443e-15 2.75553e-16 1.09261 -0.183967 0.77695)
(0.98026 1.02529e-15 1.89598e-17 1.36233 -0.283867 1.096)
(0.914377 7.34771e-16 2.63273e-18 1.1309 -0.189035 1.08877)
(0.674676 5.75371e-16 8.37106e-17 0.799392 0.00269653 0.76248)
(0.54083 4.25627e-16 1.72412e-16 0.638701 0.176193 0.63637)
(1.09527 6.95921e-15 -1.04291e-14 1.23701 -0.768719 2.00122)
(1.04921 8.47765e-15 -1.10729e-14 1.25708 -0.782572 1.9103)
(0.894386 7.3805e-15 -8.56445e-15 1.1924 -0.679708 1.52401)
(0.729502 5.13388e-15 -5.43474e-15 1.13287 -0.537529 1.07579)
(0.602185 2.27817e-15 -2.89113e-15 1.10535 -0.392894 0.700985)
(0.57313 4.67445e-16 -1.57159e-15 1.14572 -0.311732 0.554853)
(0.619658 5.06669e-16 -1.06084e-15 1.28315 -0.27288 0.537834)
(0.736283 1.51826e-15 -8.07693e-16 1.55349 -0.251765 0.599177)
(0.914926 2.76245e-15 -6.92368e-16 1.93664 -0.206521 0.72811)
(1.15133 4.36617e-15 -7.33713e-16 2.36739 -0.105421 0.969536)
(1.22548 5.59544e-15 -2.90556e-16 2.31977 0.130495 1.20346)
(0.957973 3.91222e-15 7.47361e-16 1.60999 0.399202 1.20921)
(0.757332 2.60241e-15 8.25106e-16 1.13087 0.268185 1.11721)
(0.609255 1.65423e-15 5.77634e-16 0.891199 0.0496506 0.831384)
(0.570001 1.07078e-15 2.53386e-16 0.938324 -0.0896697 0.540435)
(0.720048 7.15748e-16 7.26461e-17 1.16623 -0.0870681 0.622682)
(0.667629 5.70545e-16 7.55415e-17 0.955097 0.0174883 0.629371)
(0.506671 3.90112e-16 9.98478e-17 0.671297 0.113007 0.503206)
(0.421597 2.88778e-16 1.15052e-16 0.538712 0.177324 0.452635)
(0.964382 4.90017e-15 -7.76289e-15 1.15841 -0.668401 1.66835)
(0.916349 6.45411e-15 -8.6453e-15 1.16124 -0.671305 1.58786)
(0.768233 5.75863e-15 -7.20594e-15 1.0744 -0.550269 1.24333)
(0.615186 3.57959e-15 -4.69412e-15 1.00209 -0.397746 0.839658)
(0.505506 7.02428e-16 -2.43442e-15 0.966993 -0.261132 0.52799)
(0.480312 -4.17212e-16 -1.31906e-15 0.994122 -0.197754 0.4169)
(0.520396 2.62123e-16 -8.22238e-16 1.11928 -0.17699 0.408225)
(0.606698 1.18696e-15 -4.98473e-16 1.3352 -0.148887 0.44718)
(0.72228 1.82911e-15 -2.68908e-16 1.593 -0.0653728 0.522397)
(0.862028 2.58078e-15 -9.18871e-17 1.84632 0.101076 0.664265)
(0.944463 3.37651e-15 2.77365e-16 1.87175 0.346048 0.8732)
(0.814468 2.72716e-15 7.24468e-16 1.4385 0.475662 0.969423)
(0.654783 2.00044e-15 6.75922e-16 1.0437 0.310643 0.876742)
(0.533733 1.38091e-15 4.49623e-16 0.832925 0.0813021 0.648869)
(0.495356 9.43863e-16 1.92808e-16 0.853811 -0.0689952 0.429202)
(0.547994 5.71448e-16 6.32215e-17 0.994262 -0.0409889 0.387129)
(0.515859 4.3912e-16 8.3908e-17 0.823036 0.0729272 0.407744)
(0.405641 3.01515e-16 9.80821e-17 0.580965 0.12864 0.363661)
(0.334587 2.21694e-16 8.76208e-17 0.441172 0.13122 0.322854)
(0.848353 3.14417e-15 -5.59174e-15 1.09595 -0.560457 1.35879)
(0.799653 4.01642e-15 -6.08749e-15 1.08905 -0.545836 1.27355)
(0.674339 3.61167e-15 -5.46775e-15 0.999939 -0.427726 1.00273)
(0.541727 1.63042e-15 -3.75063e-15 0.927384 -0.280068 0.667885)
(0.448522 -6.36675e-16 -2.10336e-15 0.884416 -0.165762 0.424664)
(0.424559 -8.04159e-16 -1.20312e-15 0.898969 -0.129046 0.340028)
(0.459749 2.03518e-16 -6.95411e-16 1.01405 -0.127087 0.336701)
(0.527535 9.16504e-16 -3.61327e-16 1.19055 -0.0987969 0.36597)
(0.613129 1.28282e-15 -1.23598e-16 1.38123 -0.0100642 0.423263)
(0.712615 1.75023e-15 7.99052e-17 1.55321 0.152683 0.532049)
(0.785822 2.29846e-15 3.58765e-16 1.59634 0.362958 0.701527)
(0.719115 2.09025e-15 5.97644e-16 1.32692 0.45094 0.793436)
(0.591429 1.6534e-15 5.3809e-16 0.998651 0.307314 0.714554)
(0.486727 1.21361e-15 3.61627e-16 0.796552 0.0952511 0.539173)
(0.450494 8.62019e-16 1.65246e-16 0.79324 -0.0526901 0.373353)
(0.462371 5.06787e-16 6.29273e-17 0.878086 -0.0346048 0.296918)
(0.429771 3.69305e-16 8.19057e-17 0.729207 0.0797504 0.303505)
(0.352606 2.54824e-16 8.52804e-17 0.53779 0.122432 0.287941)
(0.287914 1.74029e-16 5.2536e-17 0.398294 0.0865154 0.239188)
(0.778397 2.53182e-15 -4.75623e-15 1.05255 -0.492669 1.18205)
(0.728559 2.78632e-15 -4.88937e-15 1.03924 -0.461002 1.08626)
(0.621659 2.33808e-15 -4.51561e-15 0.958714 -0.349558 0.862727)
(0.504733 4.9844e-16 -3.25131e-15 0.891757 -0.210549 0.577175)
(0.421248 -1.17753e-15 -1.9669e-15 0.84462 -0.118758 0.377778)
(0.392062 -9.36364e-16 -1.13875e-15 0.841412 -0.0966136 0.300084)
(0.419094 7.00705e-17 -6.32304e-16 0.937346 -0.102281 0.294945)
(0.473084 6.68975e-16 -3.08743e-16 1.08193 -0.0779042 0.317218)
(0.541165 9.64558e-16 -8.42279e-17 1.23348 0.00166733 0.363575)
(0.621609 1.34179e-15 1.03393e-16 1.36762 0.145161 0.453434)
(0.690804 1.80131e-15 3.20683e-16 1.4224 0.326148 0.594731)
(0.653381 1.7565e-15 4.91759e-16 1.2369 0.408685 0.677865)
(0.549965 1.45572e-15 4.52515e-16 0.958706 0.29808 0.6241)
(0.454477 1.11045e-15 3.19474e-16 0.759376 0.108346 0.484399)
(0.41934 8.12723e-16 1.6068e-16 0.738728 -0.0359109 0.346926)
(0.416913 4.82408e-16 6.3869e-17 0.79585 -0.0365533 0.262045)
(0.388165 3.32128e-16 7.27044e-17 0.671846 0.0645853 0.257817)
(0.322986 2.29962e-16 6.97627e-17 0.509158 0.100706 0.239853)