/*--------------------------------*- C++ -*----------------------------------*\
| =========                 |                                                 |
| \\      /  F ield         | OpenFOAM: The Open Source CFD Toolbox           |
|  \\    /   O peration     | Version:  4.1                                   |
|   \\  /    A nd           | Web:      www.OpenFOAM.org                      |
|    \\/     M anipulation  |                                                 |
\*---------------------------------------------------------------------------*/
FoamFile
{
    version     2.0;
    format      ascii;
    class       volVectorField;
    location    "6";
    object      U;
}
// * * * * * * * * * * * * * * * * * * * * * * * * * * * * * * * * * * * * * //

dimensions      [0 1 -1 0 0 0 0];

internalField   nonuniform List<vector> 
1280
(
(-3.47225e-16 -0.913028 -0.948557)
(-4.67494e-16 -0.528541 -0.939204)
(-5.14432e-16 -0.677896 -0.733203)
(-5.47066e-16 -0.473154 -0.786657)
(-7.01776e-16 -0.376101 -1.0524)
(-8.88613e-16 -0.243945 -0.775822)
(-8.57235e-16 -0.120095 -0.765443)
(-6.87496e-16 -0.0387312 -0.778376)
(-3.52585e-16 0.30336 -1.23667)
(-6.75281e-16 0.287258 -0.938092)
(-4.52935e-16 0.488158 -1.05131)
(-1.09836e-15 0.824018 -1.79673)
(-3.9395e-16 0.931294 -1.41862)
(2.03241e-16 1.16772 -1.18819)
(-6.12518e-16 1.66565 -2.38441)
(-4.00406e-16 1.72585 -2.26705)
(-7.05469e-17 2.22851 -1.9774)
(-6.86063e-16 2.50488 -4.01811)
(-2.12951e-16 3.4826 -2.71154)
(-1.62144e-16 3.03724 -4.70977)
(5.05807e-16 3.72385 -1.13313)
(-3.67943e-16 3.88185 4.18436)
(-5.68378e-16 3.71984 6.86225)
(-7.84687e-16 3.94173 8.77257)
(-8.63988e-16 3.99335 9.87082)
(-1.44387e-15 4.30504 10.6944)
(-8.73076e-16 3.56847 9.72794)
(-2.52484e-15 7.26806 14.6334)
(-2.6691e-15 7.32083 14.7311)
(-2.75263e-15 7.32329 14.7043)
(-2.84429e-15 7.29657 14.6139)
(-2.94938e-15 7.25998 14.4895)
(-3.07045e-15 7.22986 14.3545)
(-3.17266e-15 7.18643 14.2312)
(-3.33769e-15 7.169 14.127)
(-3.60353e-15 7.1021 14.0451)
(-3.79446e-15 7.11777 13.9833)
(-4.12882e-15 6.97607 13.8554)
(-4.06789e-15 7.067 13.8548)
(-4.87792e-15 6.82067 13.3184)
(-3.62638e-15 9.25548 14.3429)
(-1.70412e-15 4.74236 10.0212)
(-1.67282e-15 3.39631 9.76104)
(-2.67152e-15 2.57316 10.1033)
(-3.84624e-15 -0.105498 6.88732)
(-3.92283e-15 -0.80202 -5.7541)
(-1.15038e-14 -0.112868 -5.24049)
(-1.11481e-14 0.523964 -5.71992)
(-4.04265e-15 1.58184 -5.13986)
(1.05987e-15 -0.545529 -0.484154)
(8.5152e-15 0.545752 -0.115212)
(1.61851e-14 -1.65503 -5.12945)
(1.93398e-14 -0.524833 -5.81123)
(1.79279e-14 0.120614 -5.24916)
(6.74749e-15 0.799886 -5.69367)
(4.97891e-15 0.106254 6.88319)
(3.29394e-15 -2.56765 10.0947)
(2.56901e-15 -3.3896 9.75845)
(2.38438e-15 -4.73497 10.0127)
(4.89279e-15 -9.24693 14.3128)
(6.77802e-15 -6.81999 13.278)
(5.77182e-15 -7.06787 13.8113)
(5.69905e-15 -6.97821 13.8059)
(5.27652e-15 -7.11986 13.9364)
(5.06154e-15 -7.10628 14.0103)
(4.80806e-15 -7.17326 14.1082)
(4.57696e-15 -7.1924 14.2286)
(4.32235e-15 -7.23649 14.3673)
(4.09781e-15 -7.26799 14.5134)
(3.87647e-15 -7.3052 14.6443)
(3.68195e-15 -7.33221 14.7375)
(3.50217e-15 -7.32862 14.766)
(3.26033e-15 -7.27674 14.668)
(1.60242e-15 -3.56639 9.73577)
(1.91387e-15 -4.3347 10.6819)
(1.24516e-15 -4.02463 9.83571)
(1.02679e-15 -3.97305 8.72451)
(6.81212e-16 -3.75157 6.80303)
(3.15505e-16 -3.91189 4.11999)
(-6.79344e-16 -3.75238 -1.19515)
(-2.86174e-16 -3.05948 -4.76423)
(-4.91674e-16 -3.50055 -2.76665)
(-6.42295e-16 -2.49143 -4.09539)
(-7.49857e-16 -2.2229 -2.02778)
(-9.51203e-16 -1.70513 -2.32038)
(-8.64582e-16 -1.63537 -2.42521)
(-3.41826e-17 -1.14083 -1.17123)
(-4.37509e-16 -0.906056 -1.41496)
(-5.19863e-16 -0.793329 -1.80647)
(-4.30584e-18 -0.487538 -1.10542)
(-1.05821e-16 -0.267676 -1.00075)
(-2.86481e-16 -0.293414 -1.25122)
(2.7997e-16 0.0424326 -0.795546)
(6.093e-16 0.129449 -0.766137)
(8.66357e-16 0.24869 -0.76324)
(5.53615e-16 0.384388 -1.03841)
(6.15728e-16 0.474961 -0.773138)
(8.46816e-16 0.678358 -0.723027)
(7.91441e-16 0.530735 -0.934272)
(9.73232e-16 0.91329 -0.953445)
(1.02418e-13 1.79226 5.42598)
(1.97262e-13 2.25303 5.13402)
(1.26896e-13 1.75182 4.75638)
(1.27377e-13 -0.0134571 4.26502)
(8.64338e-14 -2.04726 3.94031)
(5.4769e-14 -3.02517 3.89743)
(2.64462e-14 -3.37366 3.79976)
(3.40589e-15 -3.35721 3.55204)
(-1.08315e-14 -2.90368 3.17598)
(-1.46614e-14 -1.92805 2.62252)
(-1.1144e-14 -1.03968 1.83554)
(-7.25493e-15 -1.30595 1.12588)
(-5.75095e-15 -1.85066 0.706262)
(-5.36913e-15 -2.01223 0.395898)
(-4.62834e-15 -1.46314 0.0684303)
(-2.82216e-15 -0.917881 -0.2255)
(-1.61975e-15 -0.269006 -0.618613)
(-7.18978e-16 -0.270222 -0.79486)
(-5.45324e-16 -0.457109 -0.993161)
(1.89745e-13 1.88335 5.15272)
(1.76978e-13 2.4805 4.79154)
(1.22955e-13 2.06431 4.58907)
(1.3798e-13 0.385497 4.19056)
(1.03027e-13 -1.97737 3.76846)
(5.55491e-14 -3.03683 3.92557)
(2.07918e-14 -3.27655 3.97857)
(-9.11603e-17 -3.14719 3.71156)
(-1.16835e-14 -2.55825 3.2317)
(-1.41521e-14 -1.41709 2.39771)
(-1.00718e-14 -0.533928 1.18406)
(-6.62875e-15 -0.997791 0.47121)
(-5.53832e-15 -1.69743 0.50387)
(-5.30795e-15 -1.83815 0.462256)
(-4.5229e-15 -1.25843 0.181445)
(-2.73242e-15 -0.666764 -0.222499)
(-1.67816e-15 -0.0697463 -0.781087)
(-7.70097e-16 -0.151296 -1.00315)
(-6.70833e-16 -0.418512 -0.993478)
(1.69638e-13 1.94371 5.0951)
(1.28768e-13 2.51923 5.08374)
(9.87467e-14 2.03734 5.09184)
(1.14806e-13 0.40827 4.83689)
(1.08918e-13 -1.93932 4.12442)
(6.91577e-14 -3.07323 3.99393)
(1.98569e-14 -3.2581 4.18325)
(-5.77174e-15 -3.01301 4.00279)
(-1.34687e-14 -2.30479 3.4041)
(-1.28219e-14 -0.99806 2.14686)
(-7.67656e-15 -0.173341 0.242109)
(-5.32518e-15 -0.991872 -0.685739)
(-5.06406e-15 -1.7709 -0.1527)
(-4.98296e-15 -1.81877 0.396305)
(-4.30046e-15 -1.15722 0.35045)
(-2.6431e-15 -0.481562 -0.121125)
(-1.72756e-15 0.027059 -0.973922)
(-9.51697e-16 -0.160577 -1.27038)
(-6.19345e-16 -0.436129 -1.19608)
(1.4397e-13 1.87352 5.37724)
(8.87372e-14 2.47975 5.77041)
(6.98453e-14 2.10322 5.90483)
(8.35922e-14 0.700079 5.76996)
(9.85874e-14 -1.67035 4.92826)
(8.3942e-14 -3.04503 4.36157)
(3.13532e-14 -3.28748 4.41765)
(-7.72912e-15 -2.86983 4.38213)
(-1.63791e-14 -1.87563 3.68899)
(-1.01268e-14 -0.186828 1.83846)
(-1.59387e-15 0.521561 -0.576317)
(-8.393e-16 -0.875294 -1.87273)
(-4.05729e-15 -2.17988 -1.37252)
(-5.24326e-15 -2.03662 -0.248055)
(-4.53947e-15 -1.05324 0.236149)
(-2.6653e-15 -0.0875998 -0.111759)
(-2.50451e-15 0.35132 -1.31044)
(-1.31997e-15 -0.0822214 -1.55737)
(-4.94871e-16 -0.419339 -1.59018)
(1.01326e-13 1.75828 5.88008)
(5.48056e-14 2.34097 6.59583)
(4.29481e-14 2.05047 6.8229)
(5.36287e-14 0.838224 6.8509)
(7.84387e-14 -1.38084 6.06538)
(8.65825e-14 -2.85677 5.2099)
(4.81576e-14 -3.26124 4.8903)
(-8.17323e-16 -2.72541 4.82448)
(-1.74322e-14 -1.27838 3.98151)
(-4.77942e-15 0.826831 1.75277)
(1.19048e-14 1.38545 0.0131176)
(1.44473e-14 -0.610096 -1.63972)
(4.14138e-15 -2.38971 -2.16413)
(-2.716e-15 -2.44939 -1.24052)
(-4.89762e-15 -1.23015 -0.547923)
(-4.03652e-15 0.240284 -0.789135)
(-2.94848e-15 0.557915 -2.04962)
(-2.36136e-15 -0.0644878 -2.19753)
(-1.96983e-15 -0.269031 -2.52803)
(6.29715e-14 1.54984 6.51565)
(3.43343e-14 2.13463 7.47607)
(2.44924e-14 1.98106 7.81159)
(3.279e-14 0.976719 8.05132)
(5.75084e-14 -1.05722 7.42091)
(7.63603e-14 -2.57043 6.46403)
(5.74672e-14 -3.12776 5.76114)
(1.18015e-14 -2.52186 5.3569)
(-1.07077e-14 -0.650092 4.33374)
(8.20496e-15 1.43927 2.90439)
(2.70421e-14 1.86164 2.54484)
(2.77986e-14 -0.123515 1.06438)
(1.62666e-14 -2.29485 -1.4412)
(5.83944e-15 -2.62511 -1.36785)
(-4.74316e-16 -1.27188 -1.10471)
(-1.15031e-15 0.48941 -1.58926)
(2.35445e-16 0.841191 -2.64062)
(8.15642e-16 0.00221909 -3.09571)
(8.16082e-17 -0.48137 -4.18927)
(3.68597e-14 1.31709 7.16817)
(2.34832e-14 1.87061 8.29997)
(1.43548e-14 1.81941 8.82534)
(2.16455e-14 1.00453 9.37299)
(4.05001e-14 -0.746361 8.99104)
(5.91982e-14 -2.1765 8.0452)
(5.37744e-14 -2.80264 7.0263)
(2.24043e-14 -2.16768 6.09319)
(5.34407e-15 -0.245155 5.14186)
(2.36279e-14 1.52182 5.17126)
(3.27127e-14 2.07503 5.83397)
(2.65626e-14 0.820877 4.82149)
(2.00471e-14 -1.59944 1.55956)
(1.38355e-14 -2.53799 -0.152909)
(6.70287e-15 -1.18011 -0.467515)
(4.8122e-15 0.886537 -1.54186)
(3.71691e-15 1.4113 -1.52563)
(3.72922e-15 1.26214 -2.23421)
(3.97645e-16 0.890117 -0.290608)
(2.24128e-14 1.03108 7.76365)
(1.69631e-14 1.52533 9.08327)
(1.04419e-14 1.53395 9.91329)
(1.66463e-14 0.881464 10.8453)
(2.49929e-14 -0.569233 10.7424)
(3.70369e-14 -1.80216 9.78146)
(3.82979e-14 -2.34591 8.41445)
(2.47858e-14 -1.78001 7.00991)
(1.96775e-14 -0.272991 6.38884)
(3.1091e-14 1.17433 7.35003)
(3.10511e-14 2.0279 8.55562)
(2.27066e-14 1.62404 8.7963)
(1.60639e-14 -0.334753 6.39587)
(1.4039e-14 -1.65297 2.7233)
(9.97148e-15 -0.518924 0.775911)
(5.32114e-15 0.989798 0.694501)
(3.84181e-15 0.590028 3.61798)
(3.18352e-15 -1.67276 5.92402)
(3.60113e-15 -6.07272 9.78308)
(1.45755e-14 0.709578 8.26332)
(1.04176e-14 1.07274 9.81026)
(1.05058e-14 1.10586 11.0041)
(1.65127e-14 0.681628 12.3143)
(1.24357e-14 -0.314906 12.4573)
(1.27859e-14 -1.23432 11.4653)
(1.62877e-14 -1.66811 9.82602)
(1.92445e-14 -1.34049 8.21048)
(2.50471e-14 -0.391616 7.62193)
(2.88063e-14 0.709841 8.31782)
(2.43357e-14 1.52928 9.80867)
(1.97722e-14 1.59179 11.8178)
(1.47085e-14 0.657192 11.9533)
(9.35331e-15 -0.298838 9.40565)
(7.37052e-15 -0.415785 8.06125)
(6.58868e-15 -0.309553 9.85434)
(5.9175e-15 -0.437878 11.6027)
(5.39383e-15 -1.32803 11.7913)
(5.40727e-15 -2.88848 11.1109)
(7.95745e-15 0.326697 8.59707)
(6.3102e-16 0.497747 10.3871)
(8.79739e-15 0.50554 11.9334)
(2.16558e-14 0.274772 13.6549)
(2.39324e-14 -0.260976 14.1892)
(2.01601e-14 -0.781182 13.1974)
(1.80662e-14 -1.05936 11.0593)
(2.05986e-14 -0.907943 8.64844)
(2.01664e-14 -0.352414 7.08729)
(1.28226e-14 0.293795 7.37279)
(8.47647e-15 0.662045 9.72462)
(1.1033e-14 0.747382 12.9224)
(1.3241e-14 0.490751 14.5478)
(1.33241e-14 -0.0362914 13.4912)
(1.24634e-14 -0.463132 11.5877)
(1.25031e-14 -0.398815 10.9663)
(1.04017e-14 -0.521267 10.8765)
(9.21768e-15 -1.31634 9.2502)
(9.97961e-15 -2.75913 5.43105)
(7.67405e-16 -0.101856 8.57856)
(-1.74185e-14 -0.184368 10.3755)
(-1.65768e-14 -0.217541 11.9611)
(-1.4467e-14 -0.210318 13.8111)
(-1.37086e-14 -0.135135 14.5392)
(-1.35251e-14 0.0280699 13.6073)
(-1.48833e-14 0.196109 11.2956)
(-1.93135e-14 0.276453 8.67251)
(-2.30091e-14 0.0997742 7.05765)
(-2.15623e-14 -0.342254 7.46839)
(-1.93743e-14 -0.643238 9.85966)
(-2.06248e-14 -0.32029 12.8753)
(-2.03167e-14 0.448987 14.1724)
(-1.62586e-14 0.949306 13.0298)
(-1.27395e-14 0.558412 11.3767)
(-1.01868e-14 0.0114191 10.6789)
(-8.38348e-15 0.145889 10.5631)
(-7.06574e-15 1.23905 9.16436)
(-5.8041e-15 2.78438 5.44732)
(5.91572e-15 -0.488102 8.26222)
(-2.3752e-14 -0.77522 9.85917)
(-2.4998e-14 -0.882388 11.131)
(-2.00522e-14 -0.734611 12.708)
(-1.08112e-14 -0.172455 13.2238)
(-3.80106e-15 0.522028 12.2805)
(-4.88054e-15 0.929103 10.4331)
(-1.48496e-14 0.79435 8.64374)
(-2.88148e-14 0.135007 7.96881)
(-3.34167e-14 -0.785646 8.52776)
(-2.82812e-14 -1.42401 9.79299)
(-2.06084e-14 -0.938279 11.0993)
(-1.26098e-14 0.408913 10.3426)
(-9.0116e-15 1.07753 8.2567)
(-7.0169e-15 0.431767 8.46466)
(-5.80114e-15 -0.0547542 10.6914)
(-4.69884e-15 0.0290168 11.9549)
(-4.05625e-15 1.19969 11.9004)
(-4.263e-15 2.91793 11.111)
(2.04483e-14 -0.830744 7.76363)
(-2.09937e-14 -1.26147 9.22665)
(-2.79921e-14 -1.38591 10.1695)
(-2.29024e-14 -1.06492 11.3727)
(-9.31848e-15 0.000527068 11.6184)
(1.46979e-15 1.12147 10.6691)
(5.25377e-15 1.66641 9.04836)
(-1.00573e-15 1.27014 7.30873)
(-1.97175e-14 0.085008 6.42107)
(-3.35083e-14 -1.09015 7.14049)
(-3.08623e-14 -1.66164 7.86151)
(-2.17829e-14 -0.624982 6.99829)
(-1.65924e-14 1.40491 4.09798)
(-1.3913e-14 1.9271 1.76147)
(-9.41725e-15 -0.297563 0.789461)
(-4.97126e-15 -1.31278 2.47029)
(-2.31669e-15 -0.615864 4.61119)
(-1.87045e-15 1.75551 6.07034)
(-2.39318e-15 6.11001 9.74642)
(4.02839e-14 -1.15968 7.12952)
(-8.03849e-15 -1.67165 8.48103)
(-2.50081e-14 -1.75276 9.1713)
(-2.52263e-14 -1.30074 9.97845)
(-1.11629e-14 0.122384 9.91182)
(3.63482e-15 1.5495 8.96094)
(1.12726e-14 2.28343 7.68836)
(6.94879e-15 1.85066 6.34789)
(-9.27761e-15 0.203436 4.96698)
(-2.71495e-14 -1.27427 4.44497)
(-3.11615e-14 -1.33333 4.44104)
(-2.48355e-14 0.501294 2.40485)
(-1.83516e-14 2.38026 -0.0586235)
(-1.16461e-14 2.37724 -0.387942)
(-6.9584e-15 0.175004 -0.331861)
(-6.31714e-15 -1.58671 -1.46602)
(-3.87224e-15 -1.35767 -0.989365)
(-4.26157e-15 -1.01204 -2.13879)
(-8.77925e-16 -0.846599 -0.414634)
(5.92746e-14 -1.44412 6.41918)
(1.40447e-14 -2.02097 7.6119)
(-1.21618e-14 -2.00207 8.1458)
(-1.99058e-14 -1.38321 8.62393)
(-5.63394e-15 0.373216 8.23842)
(1.30997e-14 1.98505 7.21881)
(1.82501e-14 2.7274 6.2231)
(8.76239e-15 2.35413 5.47232)
(-2.856e-15 0.856113 4.26903)
(-1.50443e-14 -0.904878 2.22526)
(-2.44315e-14 -0.901915 0.897151)
(-2.00693e-14 1.1195 -1.14859)
(-1.09953e-14 2.46587 -1.72012)
(-4.50547e-15 2.18944 -1.13044)
(-1.67045e-15 0.391728 -0.81201)
(-3.08865e-15 -1.14447 -1.87261)
(-3.18404e-15 -0.876726 -2.75344)
(-3.01231e-15 0.374632 -2.93226)
(-2.67215e-15 0.702316 -4.04284)
(7.07597e-14 -1.69997 5.74753)
(3.97083e-14 -2.31219 6.63744)
(1.15744e-14 -2.15768 7.04978)
(-1.20811e-15 -1.33546 7.30684)
(1.08167e-14 0.688621 6.74451)
(2.59649e-14 2.35759 5.77083)
(2.07595e-14 2.99962 5.10604)
(5.38629e-15 2.6256 4.80304)
(-1.54528e-15 1.52263 4.00706)
(-3.47965e-15 0.126837 1.87984)
(-7.8739e-15 -0.0165844 -0.593996)
(-5.13169e-15 1.32391 -1.79379)
(-1.29534e-15 2.33764 -1.41026)
(5.18665e-16 1.99367 -0.579154)
(5.45801e-16 0.515497 -0.214983)
(-1.0612e-16 -0.76454 -1.17885)
(-9.24296e-16 -0.628824 -2.41263)
(-6.21072e-16 0.216742 -2.38825)
(-4.24936e-16 0.315391 -2.48805)
(7.08828e-14 -1.84157 5.24815)
(5.98018e-14 -2.50937 5.72442)
(3.93749e-14 -2.28223 5.98934)
(2.72236e-14 -1.29585 6.07625)
(3.29181e-14 0.937018 5.43453)
(3.42937e-14 2.63181 4.65464)
(1.6475e-14 3.12839 4.42537)
(1.59966e-15 2.78507 4.33881)
(-8.65451e-16 2.01911 3.69227)
(1.05964e-16 1.00704 2.18606)
(-3.93982e-16 0.667982 0.213401)
(-1.80046e-18 1.48134 -0.664442)
(3.06513e-16 2.04299 -0.294132)
(2.07464e-16 1.73592 0.248598)
(-6.25238e-17 0.621299 0.334318)
(-2.31162e-16 -0.345225 -0.545423)
(-1.89203e-16 -0.435436 -1.70989)
(-2.80683e-16 0.216107 -1.81235)
(-3.28508e-16 0.51776 -1.66591)
(6.20461e-14 -1.92121 5.00336)
(6.77526e-14 -2.5784 4.99759)
(6.01609e-14 -2.28037 5.06436)
(5.29826e-14 -1.09039 4.99777)
(4.89447e-14 1.27361 4.40617)
(3.224e-14 2.76773 4.0086)
(9.74472e-15 3.13645 4.11541)
(7.62133e-16 2.9165 3.99153)
(2.38311e-16 2.39131 3.39871)
(7.99871e-16 1.58042 2.3502)
(7.90399e-16 1.13235 1.02399)
(6.88764e-16 1.53528 0.301657)
(5.51347e-16 1.93025 0.404627)
(4.12178e-16 1.73514 0.548873)
(2.80307e-16 0.866483 0.350188)
(1.57125e-16 0.105057 -0.368676)
(-4.72478e-17 -0.150693 -1.28934)
(-9.61176e-17 0.211462 -1.42595)
(1.52012e-16 0.445409 -1.23573)
(4.65183e-14 -1.85487 5.09849)
(6.12614e-14 -2.53677 4.69458)
(6.66659e-14 -2.32205 4.50144)
(6.63807e-14 -1.10769 4.25308)
(5.10536e-14 1.27432 3.79705)
(2.36094e-14 2.74931 3.80057)
(7.42385e-15 3.13331 3.92977)
(2.26596e-15 3.04245 3.7044)
(8.21995e-16 2.6303 3.21517)
(8.20332e-16 1.91065 2.48466)
(1.16161e-15 1.41936 1.59173)
(1.09037e-15 1.64203 0.993828)
(7.84492e-16 1.93207 0.786757)
(5.42339e-16 1.76575 0.583696)
(3.9583e-16 0.992992 0.226216)
(2.60588e-16 0.342725 -0.310327)
(1.52067e-16 -0.0546677 -0.977583)
(5.53441e-17 0.156109 -1.08027)
(1.62986e-16 0.42818 -1.00213)
(3.68078e-14 -1.75285 5.38142)
(4.27627e-14 -2.30181 5.05549)
(5.32786e-14 -2.05725 4.69137)
(5.35517e-14 -0.744881 4.31556)
(3.59002e-14 1.47048 3.92797)
(1.89615e-14 2.74291 3.83248)
(8.97155e-15 3.21052 3.76536)
(3.2849e-15 3.24321 3.53681)
(9.04304e-16 2.94642 3.15437)
(8.03724e-16 2.32361 2.62579)
(1.30475e-15 1.81772 1.96978)
(1.3023e-15 1.92739 1.36411)
(8.69029e-16 2.15319 0.913055)
(5.94753e-16 2.0102 0.533943)
(4.59177e-16 1.25896 0.134497)
(3.10185e-16 0.645654 -0.234893)
(2.22491e-16 0.141658 -0.6789)
(1.09079e-16 0.252124 -0.81307)
(8.82117e-17 0.457509 -0.992922)
(-1.17502e-16 8.10925 13.4327)
(-3.19701e-15 15.2363 26.1812)
(-2.81421e-15 16.5121 26.2495)
(-2.7337e-15 15.8136 25.2624)
(-2.73325e-15 15.1476 23.163)
(-3.8362e-15 13.8789 20.763)
(-4.54612e-15 12.5607 18.1517)
(-4.7766e-15 11.4781 16.2672)
(-4.74416e-15 10.7363 14.9335)
(-4.78813e-15 10.2053 14.0623)
(-4.97762e-15 9.82379 13.4831)
(-5.19699e-15 9.50506 13.073)
(-5.38551e-15 9.20651 12.7381)
(-5.48247e-15 8.89242 12.4303)
(-5.7145e-15 8.55482 12.0911)
(-6.07621e-15 8.11924 11.7034)
(-6.30053e-15 7.65196 11.1376)
(-6.83557e-15 6.80678 10.353)
(-7.0944e-15 6.21657 9.33353)
(-1.04341e-14 4.01189 7.03377)
(3.88545e-17 8.24253 13.2842)
(-2.63835e-15 15.1679 26.3637)
(-1.88238e-15 15.7504 25.8899)
(-1.98459e-15 14.5559 24.5937)
(-2.13273e-15 13.5457 22.2683)
(-3.55738e-15 12.0714 19.9918)
(-3.42199e-15 11.0335 17.9249)
(-3.27769e-15 10.1476 16.3323)
(-3.34651e-15 9.55289 15.0698)
(-3.57455e-15 9.05308 14.0727)
(-3.81078e-15 8.63419 13.2243)
(-4.12335e-15 8.24393 12.501)
(-4.38283e-15 7.86624 11.8647)
(-4.54332e-15 7.47948 11.2697)
(-4.85747e-15 7.05202 10.6638)
(-5.27374e-15 6.54347 9.99265)
(-5.66405e-15 5.9504 9.15676)
(-6.32715e-15 5.05202 8.02612)
(-6.77643e-15 4.30962 6.79881)
(-1.1568e-14 2.28177 3.97268)
(1.28141e-17 9.04453 15.2277)
(-9.14678e-16 16.2783 28.3307)
(-7.12466e-16 16.4426 27.4574)
(-7.39361e-16 14.9765 25.5658)
(-7.25621e-16 13.8548 23.1389)
(-1.94506e-15 12.5375 21.0273)
(-1.27158e-15 11.5932 19.1112)
(-1.13281e-15 10.7482 17.5599)
(-1.24212e-15 10.1049 16.2279)
(-1.32135e-15 9.50377 15.0557)
(-1.46774e-15 8.94856 13.9796)
(-1.58788e-15 8.41838 12.9968)
(-1.72861e-15 7.89766 12.0952)
(-1.87437e-15 7.38028 11.2391)
(-2.02961e-15 6.8284 10.3944)
(-2.22234e-15 6.22001 9.50316)
(-2.48169e-15 5.53555 8.48156)
(-3.11075e-15 4.5884 7.21096)
(-3.25708e-15 3.83222 5.90234)
(-7.60391e-15 1.9365 3.39211)
(-2.42866e-18 9.12359 15.3917)
(2.13754e-16 16.6806 29.0069)
(1.54808e-16 16.4953 27.7622)
(1.64697e-16 14.7879 25.3866)
(2.02677e-16 13.5985 22.9676)
(-1.21415e-15 12.4095 21.078)
(-1.02409e-15 11.5664 19.4245)
(-1.14337e-15 10.7777 17.9911)
(-1.12069e-15 10.0837 16.6526)
(-1.24084e-15 9.40184 15.3644)
(-1.35654e-15 8.73034 14.134)
(-1.52073e-15 8.08866 12.9539)
(-1.62391e-15 7.43882 11.835)
(-1.84864e-15 6.80504 10.7393)
(-2.03904e-15 6.12928 9.6656)
(-2.27694e-15 5.43271 8.54714)
(-2.53475e-15 4.63485 7.31584)
(-3.57432e-15 3.62914 5.81597)
(-4.04613e-15 2.74125 4.31302)
(-1.11805e-14 0.819521 1.45334)
(1.31483e-19 9.39224 16.0271)
(-5.21039e-17 17.0924 29.7882)
(-3.96915e-17 16.6464 28.2706)
(-4.08851e-17 14.7948 25.5269)
(-5.42214e-17 13.5943 23.1741)
(2.60395e-16 12.5706 21.4768)
(2.6412e-16 11.7622 19.9822)
(2.76152e-16 10.9876 18.5463)
(3.03371e-16 10.2005 17.1658)
(3.18287e-16 9.46292 15.7894)
(3.53424e-16 8.70041 14.4852)
(3.82523e-16 7.99601 13.1965)
(4.20115e-16 7.2563 11.9596)
(4.54349e-16 6.55663 10.716)
(5.01956e-16 5.80486 9.50608)
(5.56727e-16 5.07432 8.25413)
(6.27089e-16 4.22838 6.89788)
(8.22719e-16 3.20963 5.28653)
(8.88893e-16 2.31046 3.67396)
(2.08625e-15 0.773126 1.5079)
(1.16814e-19 9.29262 15.8447)
(1.2773e-17 17.2279 30.1458)
(1.02477e-17 16.7931 28.68)
(1.01206e-17 14.8228 25.6054)
(1.44863e-17 13.559 23.209)
(-5.651e-17 12.6078 21.5741)
(-6.8488e-17 11.7535 20.1224)
(-7.12229e-17 10.9507 18.6265)
(-7.7708e-17 10.0743 17.2032)
(-8.3321e-17 9.30726 15.7759)
(-9.01765e-17 8.48734 14.4455)
(-9.79459e-17 7.75988 13.113)
(-1.07916e-16 6.97492 11.8385)
(-1.15718e-16 6.25664 10.5357)
(-1.26005e-16 5.47124 9.27808)
(-1.38352e-16 4.73441 7.96015)
(-1.47587e-16 3.84645 6.51372)
(-1.19485e-16 2.7785 4.7417)
(-2.33757e-16 1.88214 3.09369)
(5.36217e-16 0.427359 0.951402)
(-6.67864e-20 9.07373 15.3998)
(-3.10851e-18 17.3778 30.4219)
(-2.5684e-18 17.1195 29.3559)
(-2.52996e-18 15.0311 25.9228)
(-3.87993e-18 13.6213 23.3454)
(1.24301e-17 12.6634 21.6263)
(1.74963e-17 11.7573 20.1549)
(1.8512e-17 10.9407 18.621)
(1.9582e-17 10.0408 17.1842)
(2.10236e-17 9.27199 15.7549)
(2.27702e-17 8.45055 14.4233)
(2.47228e-17 7.71693 13.0905)
(2.69342e-17 6.92884 11.8089)
(2.8693e-17 6.1955 10.497)
(3.09622e-17 5.40207 9.22154)
(3.37347e-17 4.63868 7.88892)
(3.57229e-17 3.75102 6.41879)
(3.60552e-17 2.62534 4.59279)
(6.37756e-17 1.90977 3.11807)
(1.39749e-16 0.564944 1.34241)
(9.15236e-21 9.06124 15.0985)
(7.4314e-19 17.7443 30.6649)
(6.35105e-19 17.6031 30.0472)
(6.29597e-19 15.4618 26.3134)
(1.04277e-18 13.8834 23.5565)
(-2.66545e-18 12.8964 21.6689)
(-4.37802e-18 11.9758 20.1581)
(-4.73142e-18 11.1796 18.6267)
(-4.84433e-18 10.323 17.1876)
(-5.15675e-18 9.55705 15.7626)
(-5.6371e-18 8.75782 14.397)
(-6.11622e-18 7.98761 13.0299)
(-6.5551e-18 7.17848 11.6797)
(-6.93691e-18 6.3726 10.3136)
(-7.48736e-18 5.53243 8.95748)
(-8.17778e-18 4.67116 7.57888)
(-8.75888e-18 3.76825 6.09239)
(-9.15344e-18 2.5693 4.29922)
(-1.29462e-17 1.9667 2.98223)
(-1.00407e-16 0.597396 1.26686)
(2.13067e-21 10.1699 16.6746)
(-1.67874e-19 18.6255 31.3279)
(-1.58981e-19 18.0622 30.4747)
(-1.53147e-19 16.0589 26.7044)
(-2.75307e-19 14.4422 24.0401)
(5.1664e-19 13.5077 22.0477)
(1.03481e-18 12.6244 20.5142)
(1.16757e-18 11.8919 18.9853)
(1.17476e-18 11.1014 17.5159)
(1.23058e-18 10.3299 16.0229)
(1.35057e-18 9.50733 14.5223)
(1.47368e-18 8.64432 12.9936)
(1.56564e-18 7.73174 11.4499)
(1.64754e-18 6.78047 9.90208)
(1.78388e-18 5.80073 8.35833)
(1.97413e-18 4.77257 6.83198)
(2.19538e-18 3.75774 5.26783)
(2.85017e-18 2.482 3.54237)
(6.09013e-18 1.7374 2.15939)
(-6.48032e-17 0.327117 0.424914)
(-1.66637e-21 12.773 21.2161)
(3.56782e-20 19.8148 32.5027)
(3.96477e-20 18.0644 30.4252)
(3.63155e-20 16.5782 27.0827)
(6.92418e-20 15.1298 24.9674)
(-8.38018e-20 14.4412 23.0736)
(-2.22871e-19 13.6246 21.6164)
(-2.74284e-19 13.0041 20.0582)
(-2.796e-19 12.2257 18.4849)
(-2.87636e-19 11.3915 16.7611)
(-3.12133e-19 10.4262 14.9432)
(-3.42505e-19 9.36918 13.0443)
(-3.66343e-19 8.231 11.1122)
(-3.85787e-19 7.04031 9.17667)
(-4.16658e-19 5.80358 7.26155)
(-4.68551e-19 4.53324 5.38079)
(-5.26192e-19 3.24082 3.52762)
(-4.05412e-19 1.83852 1.64091)
(-5.54418e-19 0.638954 -0.0258914)
(-4.00811e-17 -0.790437 -2.32779)
(5.58191e-22 15.6977 27.1551)
(-7.58088e-21 20.1045 32.8017)
(-9.61431e-21 17.2471 29.9549)
(-8.44849e-21 16.7749 27.6454)
(-1.63605e-20 15.4932 26.3859)
(1.22562e-20 15.2 24.7532)
(4.49874e-20 14.3372 23.53)
(6.10787e-20 13.8098 21.9017)
(6.48917e-20 12.8234 20.1288)
(6.6886e-20 11.7646 17.9804)
(7.15501e-20 10.4619 15.6997)
(7.80673e-20 9.10187 13.3143)
(8.39352e-20 7.65856 10.9264)
(8.90291e-20 6.20693 8.53863)
(9.63544e-20 4.69862 6.18981)
(1.06035e-19 3.232 3.84816)
(1.27689e-19 1.65078 1.5832)
(2.43828e-19 0.253914 -0.726887)
(-2.16933e-18 -1.32625 -2.51451)
(-1.36845e-17 -2.44812 -5.34921)
(-1.46701e-22 16.8455 30.3896)
(1.76598e-21 18.5069 30.6878)
(2.30611e-21 15.8768 29.0177)
(1.98432e-21 16.1357 27.6404)
(3.84514e-21 14.739 26.9801)
(-2.62385e-21 14.5901 25.5536)
(-1.03006e-20 13.4012 24.5083)
(-1.4274e-20 12.6904 22.6743)
(-1.54275e-20 11.1297 20.5427)
(-1.59868e-20 9.65674 17.8767)
(-1.69659e-20 7.91193 15.2404)
(-1.83303e-20 6.29554 12.5653)
(-1.99919e-20 4.6314 9.99915)
(-2.34653e-20 3.05992 7.48183)
(-2.78978e-20 1.4574 5.04295)
(-4.56274e-20 -0.00347347 2.61129)
(-1.20793e-19 -1.55185 0.368619)
(4.5831e-19 -2.77113 -2.17389)
(4.49909e-18 -4.31091 -4.79253)
(7.8514e-18 -3.14709 -4.8941)
(2.87271e-23 15.7985 29.0916)
(-4.33259e-22 17.0122 28.5198)
(-5.47492e-22 14.7377 27.4393)
(-5.4321e-22 14.7788 25.8914)
(-7.55641e-22 13.2905 25.3484)
(8.77399e-22 12.9016 24.0123)
(2.63329e-21 11.461 22.8858)
(3.46268e-21 10.3508 20.955)
(3.87757e-21 8.50322 18.674)
(4.4687e-21 6.80086 16.0184)
(5.07715e-21 4.97541 13.4382)
(5.83648e-21 3.26495 10.799)
(3.82174e-21 1.54728 8.23049)
(-1.40026e-20 -0.0334297 5.80655)
(-2.79215e-20 -1.47362 3.54142)
(1.65268e-19 -2.63134 1.49076)
(1.00082e-18 -3.00475 0.383829)
(2.61943e-18 -1.60968 1.55935)
(3.88129e-18 1.72245 5.45505)
(1.9889e-18 3.63796 7.8819)
(-5.38622e-24 14.7638 27.3736)
(1.03494e-22 17.191 28.0099)
(1.30427e-22 14.1426 26.2312)
(1.45195e-22 14.2832 23.6894)
(1.62197e-22 12.3515 22.8095)
(-2.53557e-22 12.0005 21.0654)
(-7.22101e-22 10.4482 19.7998)
(-1.0042e-21 9.47211 17.923)
(-1.06064e-21 7.94828 16.012)
(-9.48919e-22 6.69444 13.8829)
(-8.6729e-22 5.37134 11.7891)
(2.78791e-23 4.12443 9.53423)
(2.50756e-22 2.90559 7.2578)
(-1.84936e-20 2.00432 5.37112)
(-8.70987e-20 1.77215 4.56476)
(-1.97776e-19 2.53869 5.37831)
(-2.98946e-19 4.14979 7.59299)
(-3.93227e-19 6.12282 10.4831)
(-5.9125e-19 7.83952 12.4397)
(-6.85279e-19 6.02802 10.916)
(1.75706e-24 14.9162 27.9709)
(-2.34273e-23 18.1851 28.6638)
(-3.1201e-23 14.5894 26.8941)
(-3.5201e-23 15.1639 23.9376)
(-4.4244e-23 13.0266 22.7577)
(4.42437e-23 12.7864 20.5642)
(1.62944e-22 11.4458 19.1084)
(2.39822e-22 10.7833 17.4029)
(2.64418e-22 9.8887 15.9482)
(2.73475e-22 9.20542 14.5094)
(3.62904e-22 8.54387 13.1436)
(3.38091e-22 7.9574 11.7933)
(-4.92279e-22 7.41366 10.4234)
(-1.87308e-21 6.90959 9.03389)
(-1.28554e-21 6.44492 7.68392)
(5.74014e-21 6.06259 6.66326)
(2.49968e-20 5.84186 6.23834)
(6.15547e-20 5.59896 6.31604)
(1.23238e-19 4.85257 6.12991)
(2.09716e-19 2.87145 3.83669)
(-4.67734e-25 15.5281 29.8142)
(5.47131e-24 18.8817 29.1913)
(6.95129e-24 14.9128 27.8723)
(7.49167e-24 15.8999 25.0313)
(1.04451e-23 13.7732 24.0055)
(-6.1582e-24 13.6666 21.9694)
(-3.22142e-23 12.5517 20.5445)
(-5.07552e-23 11.9326 18.8958)
(-5.72413e-23 11.1759 17.38)
(-6.50907e-23 10.4905 15.8796)
(-1.01215e-22 9.82395 14.4255)
(-1.29803e-22 9.17355 13.0037)
(2.17573e-23 8.52068 11.5913)
(4.86207e-22 7.83052 10.1391)
(1.05243e-21 7.02893 8.5972)
(1.12207e-21 6.08961 6.9187)
(-2.71989e-22 4.90862 5.20389)
(-4.66872e-21 3.6252 3.32081)
(-1.79684e-20 1.59499 1.14806)
(-1.80138e-20 -0.0517197 -2.37513)
(2.04987e-25 15.6414 31.244)
(-1.41521e-24 18.9014 28.7836)
(-2.36746e-24 14.6155 28.3237)
(-2.89711e-24 15.9812 25.5653)
(-4.17048e-24 13.6685 24.6657)
(-9.10677e-25 13.6525 22.7306)
(6.10077e-24 12.5075 21.4528)
(1.26307e-23 11.9784 19.9287)
(1.22935e-23 11.2499 18.5673)
(2.69994e-24 10.6576 17.1809)
(1.67203e-24 10.0667 15.8352)
(4.73148e-23 9.49218 14.4533)
(1.66197e-22 8.83038 12.9281)
(3.47898e-22 7.96225 11.08)
(5.67997e-22 6.71807 8.75658)
(8.21931e-22 5.03614 5.90518)
(1.04291e-21 3.12059 3.24746)
(1.07557e-21 1.37528 0.792072)
(9.26317e-22 -1.40769 -1.981)
(-4.65107e-20 -2.27946 -6.4931)
(-2.67367e-26 14.5979 31.1787)
(3.51544e-25 18.2933 28.0604)
(2.3031e-25 13.7102 28.0588)
(-3.86234e-26 14.6597 25.7024)
(-4.71492e-25 12.5831 24.7812)
(-1.74894e-24 12.1683 23.1948)
(-2.00019e-24 11.0746 22.0039)
(-1.9431e-24 10.3946 20.6996)
(-8.8869e-24 9.62608 19.5173)
(-2.54054e-23 8.99581 18.3505)
(-1.91519e-23 8.38152 17.2174)
(8.95022e-23 7.75631 15.9709)
(3.70923e-22 6.94414 14.3639)
(8.14614e-22 5.73839 12.0229)
(1.42181e-21 3.8565 8.49495)
(2.40111e-21 1.00669 3.32168)
(3.78027e-21 -1.95279 -2.35599)
(3.82322e-21 -2.78819 -4.18062)
(-3.49534e-21 -4.31732 -5.56513)
(-3.0566e-20 -3.20742 -7.04909)
(1.6516e-26 11.3948 28.6315)
(-1.68388e-25 16.9691 25.1832)
(-3.92278e-25 12.0381 25.5885)
(-7.29991e-25 12.6184 23.9227)
(-9.65858e-25 10.8649 23.2106)
(-5.79963e-25 10.1569 22.16)
(7.40854e-25 9.12769 21.2803)
(1.32317e-24 8.30959 20.3681)
(-3.83381e-24 7.49744 19.4978)
(-1.5361e-23 6.76476 18.6413)
(-1.44415e-23 6.06976 17.7873)
(3.46102e-23 5.38048 16.856)
(1.51779e-22 4.62032 15.693)
(3.45497e-22 3.71205 14.0984)
(7.37445e-22 2.61799 11.9114)
(1.64619e-21 1.40121 9.06032)
(3.14712e-21 0.224858 5.6334)
(3.98774e-21 -0.817348 2.12801)
(1.22303e-21 -1.65855 -0.807835)
(-5.50978e-21 -1.40118 -2.16307)
(1.12587e-26 2.65816 17.0478)
(4.02741e-26 8.0663 13.6852)
(-4.90788e-27 5.17566 14.5652)
(-1.51239e-25 4.99305 14.1726)
(-3.83258e-25 4.05696 14.1431)
(-4.74635e-25 3.48375 13.9772)
(1.7095e-25 2.89501 13.83)
(1.88802e-24 2.4098 13.6499)
(2.45988e-24 1.98381 13.4526)
(-5.57541e-24 1.63285 13.2395)
(-3.26431e-23 1.36098 13.0305)
(-8.0959e-23 1.18318 12.8501)
(-1.3395e-22 1.10858 12.711)
(-1.67641e-22 1.14514 12.5827)
(-1.83799e-22 1.29421 12.3883)
(-2.15871e-22 1.50548 12.0641)
(-2.69602e-22 1.81165 11.5217)
(-2.72934e-22 2.52081 10.4673)
(-1.53912e-22 2.77877 8.92528)
(1.1965e-23 -0.126881 6.77141)
(-1.03049e-26 -2.65778 17.0474)
(-3.76605e-26 -8.06617 13.6845)
(6.32549e-27 -5.17555 14.5645)
(1.52805e-25 -4.99306 14.1718)
(3.86353e-25 -4.05705 14.1423)
(4.79525e-25 -3.48394 13.9763)
(-1.6079e-25 -2.89529 13.829)
(-1.85786e-24 -2.41017 13.6489)
(-2.37478e-24 -1.98427 13.4514)
(5.77092e-24 -1.63345 13.2384)
(3.29946e-23 -1.3618 13.0296)
(8.14326e-23 -1.18429 12.8493)
(1.34357e-22 -1.10996 12.7104)
(1.67581e-22 -1.1466 12.582)
(1.82599e-22 -1.29558 12.3868)
(2.12681e-22 -1.50675 12.0618)
(2.64223e-22 -1.8128 11.5186)
(2.67234e-22 -2.52195 10.4641)
(1.51212e-22 -2.78019 8.92397)
(-1.13248e-23 0.126566 6.77406)
(-1.68116e-26 -11.3942 28.6306)
(1.58375e-25 -16.9683 25.1823)
(3.87291e-25 -12.0374 25.5875)
(7.33808e-25 -12.6175 23.9218)
(9.71619e-25 -10.8641 23.2097)
(5.83907e-25 -10.1559 22.1592)
(-7.30191e-25 -9.12658 21.2795)
(-1.28423e-24 -8.30833 20.3674)
(3.92379e-24 -7.496 19.4971)
(1.547e-23 -6.76311 18.6407)
(1.43815e-23 -6.06774 17.7866)
(-3.51806e-23 -5.37784 16.8546)
(-1.52963e-22 -4.61681 15.6905)
(-3.45741e-22 -3.70793 14.0949)
(-7.2991e-22 -2.61428 11.9074)
(-1.61446e-21 -1.39759 9.05727)
(-3.07182e-21 -0.220621 5.63483)
(-3.88063e-21 0.816061 2.13623)
(-1.17166e-21 1.64509 -0.786781)
(5.40791e-21 1.39537 -2.14348)
(2.79406e-26 -14.5976 31.1781)
(-3.29998e-25 -18.2924 28.0605)
(-2.12958e-25 -13.7101 28.0589)
(3.80514e-26 -14.6589 25.7031)
(4.59128e-25 -12.5827 24.7819)
(1.74054e-24 -12.1674 23.1959)
(1.99984e-24 -11.0737 22.005)
(1.91612e-24 -10.3932 20.7012)
(8.86893e-24 -9.62476 19.5194)
(2.53986e-23 -8.99443 18.3533)
(1.88095e-23 -8.37984 17.2205)
(-9.08967e-23 -7.75364 15.9731)
(-3.73745e-22 -6.93951 14.3635)
(-8.17526e-22 -5.73102 12.0194)
(-1.41909e-21 -3.8501 8.49237)
(-2.36846e-21 -1.01282 3.33542)
(-3.64911e-21 1.94502 -2.31963)