/*--------------------------------*- C++ -*----------------------------------*\
| =========                 |                                                 |
| \\      /  F ield         | OpenFOAM: The Open Source CFD Toolbox           |
|  \\    /   O peration     | Version:  4.1                                   |
|   \\  /    A nd           | Web:      www.OpenFOAM.org                      |
|    \\/     M anipulation  |                                                 |
\*---------------------------------------------------------------------------*/
FoamFile
{
    version     2.0;
    format      ascii;
    class       volScalarField;
    location    "5";
    object      p;
}
// * * * * * * * * * * * * * * * * * * * * * * * * * * * * * * * * * * * * * //

dimensions      [0 2 -2 0 0 0 0];

internalField   nonuniform List<scalar> 
1280
(
0.269
-0.239836
0.0823261
0.491011
0.587966
0.665338
0.718715
0.978795
0.908504
1.08338
1.19189
1.03695
0.810049
0.659448
0.367377
-1.9332
-3.12618
-6.13464
-9.79824
-20.4504
-11.7432
1.87918
14.4094
18.5827
19.8454
22.4597
-7.2502
9.36248
9.88222
9.87201
9.72553
9.53259
9.29588
8.96927
8.62982
8.09869
7.73646
6.59774
6.41494
2.72889
-31.0644
-11.5672
-4.74936
-0.897147
7.47198
7.69444
7.76615
7.78754
8.36798
8.28299
8.27556
8.34412
7.77659
7.75388
7.67272
7.41562
-1.03161
-4.90256
-11.7356
-31.4219
2.41767
6.08568
6.25456
7.38143
7.73113
8.25125
8.57881
8.89369
9.11825
9.29904
9.43683
9.4455
8.89649
-8.32091
22.1318
19.6371
18.483
14.4213
1.97267
-11.6206
-20.2925
-9.53374
-5.81011
-2.78701
-1.56237
0.750697
1.01653
1.14444
1.32919
1.48099
1.32987
1.13285
1.17808
0.841035
0.760721
0.682217
0.556108
0.0275585
-0.306564
0.29998
0.0219304
0.292297
-0.119244
-0.56243
-1.04057
-2.86264
-2.38409
-0.796227
0.487
1.76471
2.51333
1.87203
0.0710215
-0.980942
-0.655395
0.208135
0.471728
0.242092
0.0875299
-0.245595
-0.00331002
-0.297526
-1.09743
-2.61106
-4.92762
-3.33284
0.0581759
2.9078
5.48645
6.70234
5.07386
1.2625
-0.721639
-0.597801
0.836982
1.19934
0.63162
0.249627
-0.0410716
0.340104
-0.310328
-2.12316
-5.14342
-6.30198
-3.96077
0.604927
4.10939
7.19224
8.62532
6.39796
1.29839
-1.15647
-0.668815
1.28333
1.74284
0.866328
0.325881
-0.128098
0.491178
-0.307796
-2.64542
-6.96602
-7.24313
-4.96846
0.956055
5.41964
9.20246
10.9694
7.71229
1.10012
-2.36939
-1.20313
1.68106
2.26112
1.06006
0.305597
-0.133932
0.932511
-0.104999
-2.72255
-7.92808
-7.60715
-5.82473
1.3975
6.95939
11.4247
13.3341
8.27177
-0.408623
-5.2175
-1.62062
2.92844
3.35585
1.24867
0.140744
-0.313143
1.29936
0.077857
-2.35049
-7.69146
-7.73441
-6.29226
1.93461
8.626
13.4931
14.8791
7.80506
-3.79347
-11.911
-3.70055
5.33492
5.74792
1.90328
-2.10681
-0.486756
1.65271
0.277367
-1.76176
-6.79197
-8.01199
-6.35138
2.34079
10.3028
15.529
15.3201
7.61086
-6.89973
-14.1358
-4.70052
9.21436
10.2508
1.13663
-8.02626
-0.659094
1.84937
0.404337
-1.15761
-5.53534
-7.69542
-5.31315
3.23581
12.083
16.8879
14.9669
8.50984
-6.89577
-15.1142
-6.04286
11.7859
13.3579
8.02827
-3.20667
-0.740554
1.94118
0.512448
-0.684519
-4.50894
-7.11951
-4.54304
3.64487
12.8933
16.4806
14.0131
8.65288
-3.63259
-12.4919
-4.38073
12.3929
12.0293
17.9557
17.7708
-0.744592
1.95116
0.575589
-0.39262
-3.74053
-6.113
-3.43918
4.69235
13.5088
15.8856
13.1228
8.464
-1.6654
-10.3894
-4.37558
10.5977
16.553
31.2579
15.4329
-0.733093
1.94732
0.57169
-0.424417
-3.81991
-6.17765
-3.51352
4.66151
13.4585
15.8079
13.1663
8.80617
-1.22803
-10.709
-5.5722
9.44747
16.5244
31.4278
15.0842
-0.714889
1.9108
0.504975
-0.745798
-4.66788
-7.1759
-4.66049
3.66799
12.911
16.3482
13.7692
9.02729
-2.38481
-13.285
-8.88956
7.63347
12.1885
19.0748
17.9141
-0.622662
1.79542
0.37315
-1.27916
-5.79844
-7.78093
-5.48931
3.19568
12.081
16.8924
14.9335
9.8918
-5.43798
-17.8306
-12.2936
6.29767
13.6508
10.5555
-1.75083
-0.459912
1.57791
0.216668
-1.92084
-7.05553
-8.06555
-6.35748
2.41109
10.4588
15.9293
15.2671
9.52893
-7.16171
-17.0696
-11.7492
5.57733
10.534
3.7683
-6.46785
-0.300236
1.22236
0.000875101
-2.50938
-7.88739
-7.90051
-6.21627
2.00779
8.78905
14.0285
15.395
9.2139
-6.2956
-16.1596
-10.8374
2.90406
6.11543
3.21396
-1.41423
-0.132724
0.867886
-0.177606
-2.82893
-7.94915
-7.80658
-5.68486
1.50635
7.1828
12.0245
14.2996
8.89539
-2.0719
-11.5297
-6.20441
1.57146
3.24889
1.68028
0.412363
-0.134847
0.443932
-0.363573
-2.68162
-6.81292
-7.35542
-4.82611
1.05763
5.65445
9.81568
12.0409
8.19389
0.920101
-4.18833
-3.15709
0.568185
1.89823
1.22444
0.463128
-0.0489669
0.314272
-0.342858
-2.108
-4.90368
-6.27973
-3.81132
0.707303
4.34143
7.73154
9.54581
6.87952
1.52145
-1.54408
-1.89679
0.331763
1.38104
0.94995
0.43376
-0.254132
-0.0198516
-0.318145
-1.06589
-2.43122
-4.89426
-3.22796
0.146912
3.12877
5.96755
7.46855
5.50038
1.50016
-0.67335
-1.29755
0.142472
0.931497
0.703269
0.321735
0.0216233
0.2972
-0.114456
-0.543341
-0.980648
-2.89454
-2.37662
-0.786456
0.605883
2.06393
3.00766
2.31797
0.55509
-0.780115
-1.00803
-0.158611
0.328539
0.259657
0.117075
94.3982
93.8341
92.0649
90.328
88.193
86.0612
83.9019
81.8743
80.02
78.3947
76.9617
75.7009
74.5862
73.6143
72.7415
71.9956
71.3062
70.7313
70.2323
69.6288
54.1028
55.4294
55.5032
55.876
56.2673
56.5625
56.9429
57.2168
57.5122
57.7795
58.0474
58.3241
58.6019
58.9087
59.2048
59.5663
59.8621
60.3159
60.5463
61.1329
54.4074
54.7867
54.8581
54.8326
55.0867
55.0991
55.3406
55.4258
55.616
55.7651
55.944
56.1333
56.3282
56.5528
56.7617
57.0344
57.2325
57.5898
57.7214
58.2287
42.4553
43.1512
43.5528
43.7664
44.3766
44.5824
45.1602
45.4371
45.9109
46.2702
46.6865
47.0896
47.4966
47.9245
48.3272
48.7847
49.1525
49.668
49.9336
50.5496
38.2061
38.6143
39.0203
39.0674
39.6152
39.6293
40.1411
40.2404
40.6404
40.8617
41.1955
41.4989
41.8273
42.1838
42.5239
42.9322
43.2565
43.7412
43.9818
44.5751
33.0876
33.3739
33.7564
33.7384
34.2457
34.1579
34.6337
34.624
34.979
35.0969
35.3663
35.5764
35.8227
36.0933
36.3431
36.6718
36.9068
37.3243
37.4784
38.0534
30.7195
30.8727
31.1803
31.0818
31.5367
31.3594
31.7812
31.6885
31.9773
32.0054
32.1901
32.2967
32.4336
32.5845
32.7018
32.8945
32.9867
33.2478
33.2867
33.6658
27.9299
28.2574
28.6498
28.6114
29.2122
29.0965
29.6304
29.6286
29.9876
30.0954
30.323
30.4713
30.6231
30.7723
30.8711
31.0192
31.0646
31.2357
31.2226
31.4515
22.5239
23.3718
24.124
24.2626
25.2899
25.3936
26.2595
26.5562
27.176
27.5789
28.0408
28.4343
28.7931
29.1253
29.3866
29.6506
29.8024
30.0201
30.0567
30.2689
10.8177
12.429
13.9302
14.3218
16.1349
16.6307
18.1034
18.9431
20.0872
21.0592
22.0444
22.9803
23.8593
24.6937
25.441
26.1434
26.7074
27.2623
27.5664
28.001
-11.5291
-9.67849
-7.16462
-6.72714
-3.94348
-3.11303
-0.883208
0.541516
2.36677
4.03111
5.72704
7.40909
9.06573
10.7201
12.34
13.9581
15.4668
16.9592
18.143
19.6568
-43.0965
-43.3024
-40.6749
-41.4507
-38.8522
-38.9997
-37.0923
-36.4097
-34.9978
-33.8822
-32.5811
-31.236
-29.7893
-28.2108
-26.4841
-24.4783
-22.264
-19.3324
-16.8394
-13.3958
-52.4223
-56.6964
-55.9214
-59.4011
-59.3347
-62.3032
-63.0309
-65.3084
-66.476
-67.9696
-68.7088
-69.0281
-68.8025
-68.1975
-67.2386
-65.9684
-64.5391
-62.7896
-61.1508
-57.4119
-11.1286
-16.9944
-17.3326
-22.6007
-24.1341
-28.9696
-31.725
-36.3192
-40.0633
-44.5192
-48.3907
-52.0502
-55.0821
-57.5773
-59.3735
-60.7101
-61.4241
-61.1514
-61.5782
-61.0832
37.9313
34.6253
36.2261
32.8065
34.3919
31.9795
32.5432
31.1788
30.9249
29.9682
29.178
28.0413
26.7502
25.0901
22.949
20.1347
17.046
14.8926
12.7479
8.23826
37.6664
36.4372
39.311
36.5957
39.9221
38.5353
40.4979
40.5355
41.5922
42.0566
42.6463
43.0652
43.4923
43.8673
44.1901
44.4111
44.5165
44.2227
44.1372
43.33
32.7397
30.9101
34.6161
29.8255
32.3895
29.8283
30.3539
29.4898
29.5163
29.3834
29.4636
29.5105
29.5786
29.6169
29.6274
29.7199
30.2766
32.0655
34.1921
36.7408
6.59733
0.688489
9.40977
3.25911
5.9087
3.35986
2.84718
1.17347
-0.198464
-1.79346
-3.35095
-4.92407
-6.45662
-7.896
-9.18911
-10.0389
-10.1
-8.50852
-6.58634
-3.17945
20.7948
-2.0842
5.80248
-5.56878
-8.65813
-15.5978
-20.8589
-26.3885
-31.1897
-35.453
-38.954
-41.6462
-43.4359
-44.242
-44.0043
-42.7242
-40.3346
-37.5083
-34.9412
-31.7043
719.619
636.262
586.846
530.224
480.915
433.342
389.139
347.423
308.217
271.251
236.376
203.405
172.12
142.437
114.386
87.1665
61.42
41.9541
19.0363
-17.919
719.423
636.066
586.65
530.028
480.718
433.144
388.94
347.223
308.017
271.05
236.175
203.203
171.918
142.234
114.184
86.9666
61.2236
41.7599
18.8403
-18.1201
20.5925
-2.2893
5.59615
-5.77721
-8.86822
-15.8099
-21.0729
-26.6046
-31.408
-35.6736
-39.1769
-41.8714
-43.6636
-44.4723
-44.2372
-42.9595
-40.5743
-37.752
-35.1862
-31.9487
6.3418
0.430583
9.15034
2.99764
5.64479
3.0934
2.57785
0.900977
-0.474433
-2.07346
-3.63549
-5.21386
-6.75191
-8.19732
-9.49511
-10.3482
-10.4102
-8.81589
-6.89444
-3.48424
32.5084
30.6766
34.3838
29.5899
32.1545
29.5904
30.1143
29.2476
29.2705
29.1338
29.2097
29.2536
29.3191
29.3595
29.3717
29.4749
30.0472
31.8521
33.9889
36.5477
37.4304
36.2113
39.0881
36.3788
39.7104
38.3299
40.2995
40.3464
41.4132
41.8901
42.4934
42.9279
43.371
43.7623
44.1001
44.3354
44.4489
44.1555
44.0722
43.2814
37.972
34.6776
36.2852
32.8739
34.4712
32.067
32.6416
31.2852
31.0389
30.0868
29.2976
28.1587
26.8628
25.1946
23.0392
20.2054
17.1036
14.9532
12.8193
8.30881
-11.1296
-17.0046
-17.3469
-22.6227
-24.1625
-29.0046
-31.7671
-36.3672
-40.1166
-44.575
-48.4465
-52.1051
-55.1337
-57.6262
-59.4226
-60.7576
-61.4741
-61.1941
-61.6218
-61.149
-52.5985
-56.8853
-56.1124
-59.5959
-59.5351
-62.5054
-63.2379
-65.5181
-66.6893
-68.1852
-68.927
-69.2514
-69.0337
-68.4378
-67.49
-66.2306
-64.8089
-63.0713
-61.4389
-57.702
-43.4184
-43.6318
-41.0034
-41.7856
-39.1922
-39.3474
-37.4489
-36.7779
-35.379
-34.2786
-32.9933
-31.6641
-30.2325
-28.6671
-26.9505
-24.9507
-22.7366
-19.789
-17.2852
-13.8296
-11.8144
-9.96019
-7.44287
-7.0062
-4.22082
-3.39017
-1.15983
0.265567
2.09161
3.75749
5.45571
7.14116
8.80251
10.4628
12.0899
13.716
15.233
16.7334
17.9241
19.4473
10.5888
12.2057
13.7091
14.1019
15.9176
16.4158
17.8908
18.7336
19.8806
20.8562
21.8449
22.7846
23.6674
24.5054
25.2562
25.9615
26.5281
27.085
27.3906
27.8267
22.3276
23.1798
23.9331
24.0735
25.1027
25.2086
26.0763
26.3756
26.9972
27.4025
27.8663
28.2617
28.6222
28.9559
29.2184
29.4835
29.6361
29.8544
29.8915
30.1043
27.7563
28.0861
28.4788
28.4419
29.0436
28.9293
29.464
29.4636
29.8233
29.9323
30.1605
30.3096
30.462
30.6116
30.7107
30.8592
30.9048
31.076
31.0631
31.2921
30.5563
30.7102
31.0174
30.9197
31.3746
31.198
31.6199
31.5278
31.8167
31.8452
32.0299
32.1368
32.2738
32.4249
32.5421
32.7349
32.8271
33.0882
33.1271
33.5061
32.9266
33.2129
33.5948
33.577
34.084
33.9965
34.472
34.4625
34.8172
34.9353
35.2045
35.4147
35.6609
35.9315
36.1813
36.5102
36.7451
37.1628
37.317
37.8924
38.0469
38.4554
38.8611
38.9085
39.4562
39.4705
39.9821
40.0817
40.4815
40.703
41.0367
41.3402
41.6687
42.0254
42.3656
42.7742
43.0988
43.5839
43.8247
44.4192
42.3033
43.0005
43.4024
43.6168
44.2272
44.4336
45.0115
45.2888
45.7628
46.1223
46.5386
46.9419
47.349
47.7771
48.18
48.6377
49.0058
49.5216
49.7876
50.4046
54.2795
54.6598
54.7311
54.7058
54.9595
54.9718
55.2127
55.2975
55.4869
55.6354
55.8137
56.0024
56.1967
56.4207
56.6292
56.9017
57.0997
57.457
57.5888
58.0965
53.9879
55.3171
55.3892
55.7607
56.1502
56.4434
56.8216
57.0934
57.387
57.6526
57.919
58.1941
58.4707
58.7762
59.0713
59.432
59.7272
60.1804
60.4104
60.9961
94.3843
93.8157
92.0322
90.2796
88.1281
85.9801
83.8032
81.7638
79.903
78.2719
76.8336
75.5679
74.4486
73.4724
72.5958
71.8465
71.1543
70.5762
70.0755
69.4677
)
;

boundaryField
{
    outletWall
    {
        type            fixedValue;
        value           uniform 0;
    }
    fineWalls
    {
        type            zeroGradient;
    }
    fineFrontAndBack
    {
        type            zeroGradient;
    }
    fineplugLeft
    {
        type            cyclicAMI;
        value           nonuniform List<scalar> 
20
(
56.2488
57.4688
57.9046
58.5923
59.2162
59.9191
60.6853
61.5282
62.4673
63.5145
64.6902
65.9925
67.3719
73.5372
73.3409
74.5235
75.9789
76.5338
75.4431
73.17
)
;
    }
    fineplugRight
    {
        type            cyclicAMI;
        value           nonuniform List<scalar> 
20
(
56.0577
57.2775
57.7119
58.3997
59.0234
59.7269
60.4937
61.3377
62.2779
63.3267
64.5049
65.8115
67.1903
73.328
73.2104
74.4299
75.9203
76.51
75.4471
73.1833
)
;
    }
    inletOutletLeft
    {
        type            cyclicAMI;
        value           nonuniform List<scalar> 
20
(
56.2488
57.4688
57.9046
58.5923
59.2162
59.9191
60.6853
61.5282
62.4673
63.5145
64.6902
65.9925
67.3719
73.5372
73.3409
74.5235
75.9789
76.5338
75.4431
73.17
)
;
    }
    inletLeft
    {
        type            zeroGradient;
    }
    inletWallsLeft
    {
        type            zeroGradient;
    }
    inletFacesLeft
    {
        type            zeroGradient;
    }
    inletOutletRight
    {
        type            cyclicAMI;
        value           nonuniform List<scalar> 
20
(
56.0577
57.2775
57.7119
58.3997
59.0234
59.7269
60.4937
61.3377
62.2779
63.3267
64.5049
65.8115
67.1903
73.328
73.2104
74.4299
75.9203
76.51
75.4471
73.1833
)
;
    }
    inletRight
    {
        type            zeroGradient;
    }
    inletWallsRight
    {
        type            zeroGradient;
    }
    inletFacesRight
    {
        type            zeroGradient;
    }
}


// ************************************************************************* //
