/*--------------------------------*- C++ -*----------------------------------*\
| =========                 |                                                 |
| \\      /  F ield         | OpenFOAM: The Open Source CFD Toolbox           |
|  \\    /   O peration     | Version:  4.1                                   |
|   \\  /    A nd           | Web:      www.OpenFOAM.org                      |
|    \\/     M anipulation  |                                                 |
\*---------------------------------------------------------------------------*/
FoamFile
{
    version     2.0;
    format      ascii;
    class       surfaceScalarField;
    location    "5";
    object      phi;
}
// * * * * * * * * * * * * * * * * * * * * * * * * * * * * * * * * * * * * * //

dimensions      [0 3 -1 0 0 0 0];

internalField   nonuniform List<scalar> 
2360
(
-4762.81
-3498.35
-1264.47
-3498.35
-3498.35
-2397.5
-1100.84
-2397.5
-2397.5
-2397.5
-1033.32
-1364.18
-1033.32
-1033.32
1098.74
-2132.07
1098.74
1098.74
4800.94
-3702.2
4800.94
4800.94
10195.7
-5394.79
10195.7
10195.7
11133.2
12646.1
14181
15589.3
16859.4
18016.2
13273.6
5831.13
14298.9
15268
16191.6
17078.4
17935.4
18767.9
19579.5
20372.6
21147.5
21903
22630.6
23322.7
23864.6
10118.1
13746.5
10118.1
10118.1
10118.1
-560.022
10678.2
-560.021
-560.021
-560.021
-0.87735
-559.14
-0.868894
-0.864503
588.082
-588.948
588.084
588.083
588.085
-10074.6
10662.7
-10074.6
-10074.6
-10074.6
-23879.9
13805.3
-23337.7
-22645.3
-21917.5
-21161.7
-20386.7
-19593.3
-18781.4
-17948.7
-17091.6
-16204.7
-15281.1
-14311.9
-13286.4
-18085
5887.29
-16928.3
-15658.4
-14250.5
-12716.1
-11203.9
-10267.2
-10267.2
-10267.2
-4779.72
-5487.46
-4779.72
-4779.72
-960.447
-3819.28
-960.449
-960.448
1279.92
-2240.37
1279.92
1279.92
2745.88
-1465.96
2745.88
2745.88
2745.88
3880.06
-1134.18
3880.06
3880.06
5110.18
-1230.13
-6430.37
-4041.32
-6600.34
-5781.98
-6315.72
-6964.77
-5745.27
-6847.73
-5088.7
-1907.99
-4825.64
5225.16
-4607.85
8299.31
-4241.82
9743.08
-3731.73
10304.1
-3104.93
9841.62
-2353.03
8155.07
-1479.96
5812.04
-667.501
4675.94
-51.6745
5430.73
345.856
4972.71
701.027
3995.38
1014.95
2028.87
1148.4
281.289
-621.157
-6452.68
-4084.55
-6143.4
-6091.27
-5716.69
-7391.48
-5208.69
-7355.73
-4603.03
-2513.65
-4604.07
5226.21
-4688.87
8384.1
-4417.03
9471.25
-3869.15
9756.25
-3121.2
9093.67
-2107.74
7141.6
-919.894
4624.19
-199.387
3955.43
80.3665
5150.98
195.454
4857.62
541.39
3649.45
1062.29
1507.97
1101.16
242.422
-654.174
-6185.65
-4181.93
-6013.61
-6263.31
-6017.63
-7387.47
-5873.61
-7499.75
-5110.11
-3277.14
-4613.43
4729.53
-4716.55
8487.22
-4643.92
9398.61
-4128.69
9241.02
-3236.78
8201.77
-1835.36
5740.18
-116.787
2905.62
646.564
3192.08
581.894
5215.65
243.899
5195.62
383.977
3509.37
1060.36
831.579
1341.05
-38.2596
-779.088
-6254.24
-4111.91
-6475.24
-6042.3
-6944.69
-6918.02
-7130.41
-7314.03
-6279.76
-4127.8
-5124.47
3574.23
-4880.32
8243.07
-4899.89
9418.18
-4499.72
8840.85
-3464.96
7167.01
-1407.84
3683.06
1127
370.786
2038.62
2280.46
1665.31
5588.97
814.938
6045.99
525.374
3798.93
1157.49
199.464
1874.52
-755.294
-1144.93
-6675.9
-3773.42
-7344.1
-5374.1
-8196.02
-6066.1
-8695.08
-6814.96
-7980.93
-4841.95
-6307.35
1900.66
-5456.36
7392.08
-5291.01
9252.83
-4965.67
8515.51
-3678.69
5880.03
-540.47
544.84
2715.19
-2884.88
3828.06
1167.59
3470
5947.03
2405.7
7110.28
1812.36
4392.28
2290.3
-278.478
3334.06
-1799.05
-1630.15
-7447.6
-3148.26
-8473.6
-4348.1
-9555.3
-4984.41
-10335.5
-6034.79
-10005.7
-5171.76
-8193.15
88.1432
-6678.2
5877.14
-6014.88
8589.51
-5449.68
7950.32
-3605.81
4036.16
-775.872
-2285.1
1243.84
-4904.58
3019.5
-608.069
3792.29
5174.23
3367.11
7535.47
3040.06
4719.32
3872.72
-1111.14
5010.2
-2936.53
-2107.42
-8382.23
-2345.36
-9556.73
-3173.6
-10718.4
-3822.73
-11768.7
-4984.47
-12049.6
-4890.92
-10653.1
-1308.28
-8729.14
3953.13
-7331.98
7192.34
-6147.15
6765.5
-4624.09
2513.09
-4216.63
-2692.56
-4248.69
-4872.52
-1207.85
-3648.91
1637.66
2328.72
2412.49
6760.64
2784.14
4347.68
3833.07
-2160.07
2698.04
-1801.49
6477.92
-9235.15
-1495.15
-10377.8
-2030.97
-11553.5
-2647.03
-12897.4
-3640.52
-13911
-3877.35
-13385.3
-1833.99
-11423.2
1991.06
-9155.45
4924.57
-7391.65
5001.7
-7130.04
2251.48
-8712.26
-1110.34
-9877.59
-3707.2
-8618.28
-4908.21
-4643.53
-1646.04
-1039.49
3156.6
-221.982
3530.17
-3228.32
846.265
-8383.18
3353.36
11900.1
-9841.76
-696.352
-10880.8
-991.949
-12117.6
-1410.17
-13788
-1970.14
-15492.1
-2173.29
-15984.7
-1341.38
-14545.9
552.29
-12037.6
2416.26
-10149.1
3113.18
-10151.6
2254.03
-11464.3
202.361
-13010.9
-2160.68
-14680.3
-3238.75
-14819.5
-1506.88
-13095.1
1432.21
-12274.7
2709.75
-13413
1984.59
-13653.9
3594.32
8908.8
-10173.8
55.051
-11201.9
36.1352
-12615
2.87616
-14585.4
0.301815
-16740.3
-18.3993
-17983.7
-98.0388
-17243.5
-187.881
-14611.4
-215.865
-11411.1
-87.0611
-9318.97
161.877
-9323.09
206.485
-11460.8
-23.003
-14873.9
174.348
-17260.2
879.414
-17017.7
1189.75
-14820.1
512.185
-12453.6
-381.964
-8455.98
-403.29
-136.126
-10169.2
815.775
-11226.6
1093.55
-12665.2
1441.51
-14638
1973.06
-16758.3
2101.93
-17926.3
1069.96
-17107.9
-1006.27
-14387.1
-2936.7
-10974.3
-3499.87
-8541.44
-2270.97
-8438.65
103.694
-10807.7
2346.03
-14525.1
3891.77
-17197.6
3551.87
-17151.6
1143.83
-15002.2
-1637.26
-12657.2
-2726.99
-8652.56
-4407.9
-9347.82
-9784.25
1611.2
-10857
2166.29
-12149.2
2733.75
-13846
3669.83
-15508.8
3764.78
-15909.3
1470.43
-14459.2
-2456.38
-12015
-5380.91
-10080.6
-5434.24
-9744.31
-2607.28
-10648.7
1008.12
-12209.5
3906.81
-14543.3
6225.58
-15692.4
4700.96
-14113.5
-435.12
-12283.7
-3467.02
-12924.9
-2085.85
-13493.1
-3839.7
-12162.7
-9157.87
2432.43
-10293.2
3301.6
-11498.6
3939.14
-12855.5
5026.72
-13813
4722.33
-13203.8
861.212
-11283.2
-4376.98
-9155
-7509.1
-7586.32
-7002.92
-7525.6
-2668.01
-9169.22
2651.75
-10611.1
5348.67
-10713
6327.5
-7726.42
1714.39
-3204.79
-4956.75
-629.969
-6041.84
-2531.58
-184.241
-7959.17
1587.9
-6375.43
-8327.51
3193.65
-9457.32
4431.4
-10602.8
5084.67
-11634.9
6058.73
-11866.1
4953.56
-10471.6
-533.247
-8651.97
-6196.65
-7358.39
-8802.68
-6295.09
-8066.22
-5231.21
-3731.89
-5594.44
3014.99
-6364.17
6118.39
-4832.84
4796.18
-1113.46
-2004.99
1394.39
-7464.61
2130.25
-6777.69
3556.19
-1610.18
2917.99
2226.1
2373.69
-7435.32
3780.79
-8403.98
5400.06
-9437.52
6118.21
-10171.4
6792.67
-9796.04
4578.15
-8047.71
-2281.58
-6651.12
-7593.24
-6069.19
-9384.6
-5518.85
-8616.57
-3777.17
-5473.57
-1937.95
1175.77
-1521.08
5701.53
674.753
2600.34
2984.18
-4314.42
3394.54
-7874.97
3127.92
-6511.07
3539.53
-2021.8
4698.12
1067.52
1677.02
-6702.05
4095.06
-7322.82
6020.83
-8118.89
6914.27
-8561.76
7235.54
-7815.57
3831.96
-6231.14
-3866.01
-5464.33
-8360.04
-5348.16
-9500.77
-5047.94
-8916.8
-3615.03
-6906.47
-448.899
-1990.37
2012.83
3239.79
3664.66
948.51
4270.5
-4920.26
3498.78
-7103.24
2421.27
-5433.56
2178.92
-1779.45
3081.8
164.639
1056.62
-6302.04
4157.2
-6497.43
6216.22
-6921.64
7338.48
-7054.89
7368.79
-6182.32
2959.39
-5107.09
-4941.25
-4905.16
-8561.97
-4937.98
-9467.95
-4571.11
-9283.67
-3492.98
-7984.6
-854.402
-4628.95
2357.37
28.0209
3693.14
-387.261
3232.55
-4459.67
1884.23
-5754.92
855.35
-4404.68
912.47
-1836.56
1626.45
-549.344
551.01
-6236.3
4064.38
-6060.83
6040.75
-6039.37
7317.02
-5856.78
7186.2
-5082.68
2185.3
-4638.53
-5385.4
-4743.84
-8456.66
-4662.45
-9549.33
-4166.94
-9779.18
-3270.19
-8881.35
-1584.35
-6314.79
1010.77
-2567.1
1952.98
-1329.47
1443.88
-3950.56
631.545
-4942.59
364.95
-4138.08
818.658
-2290.27
1138.88
-869.569
325.713
-6495.88
4033.33
-6202.75
5747.62
-5775.78
6890.05
-5251.71
6662.13
-4641.95
1575.54
-4652.96
-5374.39
-4709.66
-8399.97
-4422.94
-9836.04
-3884.86
-10317.3
-3137.54
-9628.67
-2003.37
-7448.96
-418.508
-4151.96
316.231
-2064.21
427.874
-4062.21
345.186
-4859.9
525.649
-4318.54
942.193
-2706.82
1019.63
-947.009
244.502
-6455.9
-6648.08
-6378.99
-5807.16
-5141.96
-4869.71
-4624.79
-4240.6
-3730.91
-3112.11
-2339.13
-1368.56
-477.851
134.112
453.309
729.966
1000.17
1162.11
182.934
-1120.41
436.906
-1766.82
645.678
-1743.71
799.633
-1562.24
916.094
-1386.55
1003.57
-1244.35
1043.93
-1128.87
1055.43
-1036.78
1048.11
-961.767
1023.34
-898.825
982.913
-846.387
928.782
-802.83
862.87
-766.587
786.444
-735.206
700.359
-707.033
603.759
-678.206
495.825
-647.571
370.946
-602.78
223.842
-545.019
-318.031
74.5791
-1194.99
152.849
-1845.09
208.402
-1799.26
238.411
-1592.24
269.154
-1417.29
305.973
-1281.17
354.244
-1177.14
402.194
-1084.73
443.452
-1003.02
473.732
-929.102
490.993
-863.646
494.065
-805.899
482.818
-755.339
457.485
-709.871
418.834
-668.381
366.715
-626.085
301.871
-582.726
221.329
-522.238
125.635
-449.324
-192.396
19.7492
-1214.73
108.44
-1933.78
165.591
-1856.41
185.14
-1611.79
209.516
-1441.66
242.132
-1313.78
281.868
-1216.87
320.803
-1123.66
357.05
-1039.27
386.587
-958.636
407.496
-884.553
417.738
-816.139
416.307
-753.906
402.572
-696.133
376.472
-642.279
337.655
-587.267
285.81
-530.881
219.451
-455.878
131.741
-361.613
-60.655
15.243
-1229.98
74.5064
-1993.04
95.0695
-1876.97
93.5276
-1610.25
111.824
-1459.96
141.36
-1343.31
179.127
-1254.64
215.827
-1160.36
250.984
-1074.42
280.86
-988.51
304.459
-908.15
319.437
-831.116
324.497
-758.964
318.278
-689.913
300.238
-624.237
269.608
-556.636
226.007
-487.279
168.369
-398.24
86.4233
-279.665
25.7683
30.5529
-1260.53
69.0328
-2031.52
73.1599
-1881.1
72.6174
-1609.7
93.1963
-1480.53
119.784
-1369.9
149.762
-1284.61
177.049
-1187.65
203.35
-1100.72
226.049
-1011.21
245.202
-927.301
258.561
-844.472
265.065
-765.467
262.852
-687.698
251.068
-612.452
228.004
-533.57
192.856
-452.13
142.799
-348.183
65.3327
-202.196
91.1011
49.9118
-1310.44
72.4543
-2054.06
64.2728
-1872.92
64.3704
-1609.8
80.5882
-1496.75
98.2491
-1387.56
116.277
-1302.64
131.529
-1202.9
145.93
-1115.12
158.082
-1023.36
168.555
-937.773
176.018
-851.934
180.185
-769.634
179.605
-687.116
173.629
-606.476
159.97
-519.911
137.309
-429.469
100.792
-311.665
43.6573
-145.059
134.758
59.3129
-1369.75
70.8738
-2065.62
58.6688
-1860.71
59.1004
-1610.23
67.7928
-1505.44
75.5142
-1395.28
82.0371
-1309.16
87.0661
-1207.92
91.0213
-1119.08
94.2059
-1026.54
96.6542
-940.22
98.4976
-853.776
99.6807
-770.816
99.6967
-687.131
97.7124
-604.49
91.897
-514.094
79.9256
-417.497
57.9297
-289.668
26.7839
-113.912
161.542
57.7386
-1427.49
65.3086
-2073.19
59.1459
-1854.55
62.944
-1614.03
68.4467
-1510.94
72.7305
-1399.56
74.9575
-1311.39
77.1382
-1210.1
77.5361
-1119.48
78.0152
-1027.02
77.5449
-939.75
77.1791
-853.411
76.1496
-769.786
74.3826
-685.364
70.2824
-600.39
63.2369
-507.049
50.5973
-404.856
32.7709
-271.841
14.1879
-95.3282
175.73
63.2312
-1490.72
77.108
-2087.07
85.2473
-1862.69
99.5546
-1628.33
112.956
-1524.34
124.856
-1411.46
133.861
-1320.39
142.734
-1218.98
148.855
-1125.6
154.083
-1032.24
156.708
-942.375
157.091
-853.791
153.554
-766.248
145.476
-677.285
130.978
-585.89
110.338
-486.408
82.0601
-376.578
49.7335
-239.512
17.5956
-63.1882
193.326
101.485
-1592.2
126.864
-2112.44
149.718
-1885.54
181.696
-1660.31
215.997
-1558.65
247.569
-1443.03
276.621
-1349.45
304.29
-1246.65
328.716
-1150.02
349.308
-1052.84
363.316
-956.383
368.658
-859.134
362.635
-760.225
343.679
-658.329
310.405
-552.617
263.217
-439.22
202.375
-315.735
130.49
-167.627
49.9711
17.3319
243.297
172.885
-1765.09
196.602
-2136.16
228.864
-1917.8
282.573
-1714.02
346.692
-1622.76
408.144
-1504.48
472.013
-1413.31
535.677
-1310.31
598.039
-1212.38
652.634
-1107.43
693.115
-996.863
713.499
-879.518
709.944
-756.669
680.397
-628.782
623.8
-496.02
539.468
-354.887
427.873
-204.14
288.555
-28.3069
138.481
167.407
381.778
217.611
-1982.7
202.972
-2121.53
234.062
-1948.89
297.391
-1777.35
377.69
-1703.06
459.658
-1586.46
554.715
-1508.37
655.513
-1411.11
759.154
-1316.03
848.507
-1196.79
912
-1060.36
942.188
-909.708
938.233
-752.716
899.196
-589.747
822.352
-419.177
701.502
-234.039
497.906
-0.545023
308.781
160.817
159.792
316.395
541.57
136.245
-2118.95
50.7313
-2036.01
44.7052
-1942.87
62.3724
-1795.02
92.871
-1733.56
131.296
-1624.88
185.896
-1562.98
248.694
-1473.91
309.098
-1376.43
343.747
-1231.44
343.635
-1060.25
312.012
-878.086
257.186
-697.891
180.698
-513.259
86.5603
-325.04
2.34768
-149.827
9.16241
-7.36142
-38.2488
208.227
-99.6425
377.788
441.927
-39.3101
-2079.64
-161.938
-1913.39
-241.755
-1863.05
-322.3
-1714.48
-399.648
-1656.22
-474.719
-1549.81
-545.831
-1491.87
-614.066
-1405.68
-687.679
-1302.82
-771.934
-1147.18
-862.33
-969.852
-946.672
-793.746
-1020.92
-623.648
-1087.62
-446.56
-1145.22
-267.44
-1186.64
-108.409
-1193.6
-0.403635
-1033.27
47.9015
-635.092
-20.391
-193.165
-103.228
-1976.41
-209.437
-1807.18
-311.262
-1761.23
-437.754
-1587.99
-564.851
-1529.12
-711.169
-1403.5
-870.906
-1332.13
-1041.59
-1235
-1209.9
-1134.51
-1355.88
-1001.2
-1466.17
-859.567
-1535.19
-724.732
-1564.99
-593.844
-1556.84
-454.716
-1499.77
-324.505
-1369.5
-238.685
-1147.38
-222.522
-795.055
-304.422
-350.931
-464.516
-544.096
-6.73508
-1969.68
-32.302
-1781.62
-44.3377
-1749.2
-75.8032
-1556.52
-106.868
-1498.06
-151.828
-1358.54
-210.319
-1273.64
-278.01
-1167.31
-337.466
-1075.06
-363.782
-974.886
-347.124
-876.228
-292.659
-779.201
-204.264
-682.242
-79.4678
-579.518
75.9937
-479.973
245.483
-408.181
401.534
-378.576
453.725
-356.617
306.22
-317.013
-237.876
19.0652
-1988.75
17.0084
-1779.56
36.2714
-1768.46
68.5653
-1588.82
100.443
-1529.94
148.388
-1406.49
196.839
-1322.09
254.047
-1224.52
318.433
-1139.45
399.074
-1055.53
497.624
-974.779
610.85
-892.428
736.343
-807.737
875.467
-718.643
1013.79
-618.293
1096.96
-491.36
1048.34
-329.95
829.401
-137.683
476.827
35.5583
238.951
-118.173
-1870.58
-252.957
-1644.78
-351.494
-1669.92
-401.719
-1538.6
-441.905
-1489.75
-444.494
-1403.9
-429.495
-1337.09
-389.63
-1264.38
-332.965
-1196.11
-261.292
-1127.2
-177.222
-1058.85
-79.8072
-989.845
31.7447
-919.291
153.629
-840.528
271.337
-736.003
354.443
-574.466
358.828
-334.337
269.192
-48.0489
121.035
183.713
359.986
-207.602
-1662.97
-450.754
-1401.62
-709.284
-1411.4
-921.103
-1326.78
-1122.85
-1288
-1288.81
-1237.95
-1430.14
-1195.76
-1541.71
-1152.81
-1626.73
-1111.1
-1684.89
-1069.04
-1717.14
-1026.61
-1723.46
-983.519
-1703.39
-939.364
-1653.08
-890.836
-1561.73
-827.361
-1405.93
-730.264
-1157.95
-582.316
-816.53
-389.468
-434.322
-198.496
-74.3356
-687.975
-1114.6
-1551
-1902.77
-2215.78
-2478.72
-2699.48
-2877.3
-3013.39
-3107.43
-3159.04
-3167.56
-3131.92
-3047.76
-2900.12
-2655.38
-2262.7
-1677.17
-900.664
-687.983
1662.99
-1114.62
1401.64
-1551.03
1411.41
-1902.83
1326.8
-2215.85
1288.03
-2478.82
1237.97
-2699.6
1195.79
-2877.44
1152.84
-3013.56
1111.12
-3107.62
1069.06
-3159.25
1026.63
-3167.79
983.544
-3132.18
939.391
-3048.03
890.847
-2900.34
827.31
-2655.44
730.105
-2262.55
582.109
-1676.95
389.402
-900.565
198.613
74.4354
-207.665
1870.65
-450.882
1644.86
-709.477
1670.01
-921.37
1538.69
-1123.2
1489.86
-1289.24
1404.01
-1430.67
1337.22
-1542.34
1264.51
-1627.46
1196.24
-1685.72
1127.32
-1718.04
1058.96
-1724.45
989.949
-1704.45
919.39
-1654.19
840.594
-1562.83
735.947
-1406.93
574.211
-1158.89
334.072
-817.395
47.9041
-434.825
-183.955
-360.389
-118.153
1988.81
-252.964
1779.67
-351.503
1768.55
-401.737
1588.93
-441.922
1530.04
-444.521
1406.61
-429.518
1322.22
-389.656
1224.65
-332.99
1139.58
-261.317
1055.65
-177.233
974.876
-79.7788
892.498
31.822
807.792
153.768
718.651
271.475
618.242
354.479
491.209
358.934
329.62
269.203
137.639
120.76
-35.5087
-239.629
19.1758
1969.63
17.2382
1781.61
36.6151
1749.17
69.1025
1556.44
101.171
1497.98
149.382
1358.4
198.144
1273.46
255.726
1167.07
320.508
1074.8
401.495
974.662
500.279
876.093
613.645
779.134
739.231
682.206
878.339
579.543
1016.33
480.253
1098.82
408.724
1049.63
378.806
830.186
357.085
476.971
317.708
237.342
-6.29855
1975.93
-31.4632
1806.78
-43.0762
1760.79
-74.0883
1587.46
-104.713
1528.6
-149.222
1402.92
-207.278
1331.51
-274.487
1234.28
-333.383
1133.69
-359.125
1000.41
-342.047
859.017
-287.321
724.412
-198.617
593.505
-73.4027
454.334
82.2884
324.567
251.755
239.263
406.979
223.586
457.365
306.702
307.779
467.296
545.121
-103.358
2079.29
-209.596
1913.01
-311.517
1862.71
-438.226
1714.16
-565.536
1655.91
-712.208
1549.59
-872.352
1491.66
-1043.47
1405.4
-1212.05
1302.28
-1358.11
1146.46
-1468.31
969.225
-1537.23
793.324
-1566.84
623.119
-1558.14
445.632
-1499.86
266.288
-1368.29
107.7
-1145.51
0.802134
-792.703
-46.1059
-349.014
23.6076
196.107
-40.0281
2119.32
-162.856
2035.84
-243.072
1942.93
-324.117
1795.21
-401.989
1733.79
-477.644
1625.24
-549.406
1563.42
-618.369
1474.36
-692.755
1376.67
-777.68
1231.38
-868.506
1060.05
-953.087
877.906
-1027.62
697.653
-1094.74
512.75
-1152.65
324.2
-1193.89
148.937
-1200.96
7.87892
-1038.41
-208.661
-636.844
-377.958
-440.737
135.723
1983.6
49.8147
2121.75
43.4185
1949.32
60.6984
1777.93
90.7925
1703.69
128.858
1587.18
183.092
1509.19
245.487
1411.97
305.346
1316.81
339.363
1197.37
338.708
1060.71
306.76
909.853
251.725
752.686
174.967
589.507
80.5075
418.656
-3.60733
233.045
6.8172
-2.55222
-40.2577
-161.59
-101.268
-316.95
-542.006
217.893
1765.7
203.055
2136.59
234.095
1918.28
297.472
1714.55
377.87
1623.29
460.006
1505.04
555.304
1413.89
656.379
1310.89
760.262
1212.93
849.759
1107.87
913.318
997.146
943.561
879.61
939.687
756.561
900.72
628.474
823.856
495.52
702.71
354.191
496.833
203.324
307.862
27.3811
159.256
-168.344
-382.75
173.368
1592.34
197.11
2112.85
229.416
1885.98
283.265
1660.7
347.584
1558.97
409.256
1443.37
473.38
1349.76
537.31
1246.96
599.927
1150.31
654.715
1053.08
695.301
956.56
715.693
859.218
712.061
760.192
682.367
658.167
625.568
552.32
540.965
438.794
429.061
315.228
289.402
167.038
138.996
-17.9389
-243.754
101.728
1490.61
127.227
2087.35
150.171
1863.03
182.267
1628.61
216.714
1524.53
248.426
1411.66
277.621
1320.57
305.424
1219.16
329.977
1125.76
350.664
1032.39
364.725
942.499
370.059
853.883
363.965
766.286
344.881
677.25
311.44
585.76
264.055
486.178
203.021
376.262
130.914
239.144
50.188
62.7849
-193.566
63.1827
1427.42
77.1693
2073.36
85.4322
1854.77
99.8274
1614.21
113.309
1511.04
125.281
1399.68
134.354
1311.49
143.285
1210.22
149.462
1119.58
154.731
1027.12
157.386
939.842
157.772
853.496
154.21
769.848
146.071
685.388
131.479
600.351
110.72
506.936
82.3176
404.663
49.8593
271.6
17.6083
95.0334
-175.957
57.5568
1369.87
65.182
2065.73
59.1353
1860.81
62.9947
1610.35
68.528
1505.51
72.8411
1395.37
75.0914
1309.24
77.294
1208.02
77.7101
1119.16
78.2058
1026.63
77.7513
940.296
77.3986
853.847
76.3753
770.87
74.6019
687.16
70.4769
604.475
63.3906
514.021
50.6973
417.355
32.8192
289.476
14.1854
113.665
-161.772
59.1656
1310.7
70.7359
2054.16
58.5943
1872.96
59.0522
1609.89
67.7419
1496.82
75.4607
1387.65
81.9757
1302.73
86.9969
1203
90.9391
1115.22
94.1108
1023.45
96.5461
937.86
98.3794
852.013
99.5564
769.692
99.5719
687.144
97.5918
606.454
91.788
519.824
79.8305
429.312
57.861
311.444
26.7587
144.766
-135.013
49.8754
1260.82
72.4286
2031.61
64.2711
1881.11
64.3804
1609.78
80.5955
1480.6
98.2522
1369.99
116.272
1284.71
131.514
1187.76
145.901
1100.83
158.038
1011.32
168.489
927.408
175.924
844.576
180.059
765.556
179.449
687.753
173.458
612.445
159.804
533.477
137.168
451.948
100.687
347.924
43.6037
201.847
-91.4097
30.6
1230.22
69.1126
1993.09
73.2686
1876.96
72.7626
1610.29
93.3684
1460
119.978
1343.38
149.973
1254.71
177.275
1160.45
203.594
1074.51
226.309
988.6
245.468
908.248
258.812
831.231
265.281
759.087
263.017
690.016
251.185
624.277
228.083
556.578
192.914
487.116
142.836
398.002
65.3245
279.358
-26.0851
15.3084
1214.91
74.6081
1933.79
95.2176
1856.35
93.7504
1611.75
112.107
1441.64
141.695
1313.79
179.503
1216.9
216.252
1123.7
251.465
1039.3
281.401
958.665
305.045
884.604
320.04
816.236
325.082
754.044
318.82
696.277
300.722
642.374
270.029
587.271
226.363
530.782
168.648
455.716
86.583
361.422
60.4979
19.8194
1195.09
108.534
1845.08
165.738
1799.14
185.38
1592.11
209.836
1417.18
242.517
1281.11
282.31
1177.11
321.313
1084.7
357.639
1002.97
387.255
929.049
408.223
863.636
418.491
805.967
417.053
755.482
403.283
710.047
377.128
668.528
338.24
626.159
286.304
582.718
219.829
522.19
131.957
449.293
192.455
74.8475
1120.25
153.18
1766.75
208.717
1743.61
238.712
1562.12
269.46
1386.44
306.318
1244.25
354.659
1128.77
402.717
1036.64
444.085
961.601
474.446
898.688
491.745
846.337
494.815
802.897
483.544
766.753
458.176
735.415
419.482
707.221
367.303
678.338
302.371
647.649
221.707
602.854
125.831
545.168
318.286
183.512
438.05
647.245
801.474
918.076
1005.59
1045.64
1056.79
1049.22
1024.27
983.732
929.531
863.574
787.101
700.942
604.228
496.153
371.132
223.891
)
;

boundaryField
{
    outletWall
    {
        type            calculated;
        value           nonuniform List<scalar> 
60
(
5110.18
539.426
-414.738
-2342.79
-4350.56
-5370.24
-6046.56
-5488.4
-6685.11
-8906.97
-10468.4
-10814.2
-10109.1
-8517.1
-5488.22
1251.42
6277.29
6680.15
5951.95
4321.97
6163.93
6526.94
6329.12
6239.89
6387.78
6848.19
7566.29
8336.65
8988.83
9408.46
9422.45
9042.97
8384.93
7579.33
6822.45
6337.4
6184.22
6283.04
6495.91
6149.72
4762.81
142.148
-1108.95
-2977.02
-4595.2
-5179.1
-4674.17
-2954.92
-5122.53
-8221.93
-10247.5
-10827
-10220.2
-8644.88
-5646.64
910.337
6090.3
6620.96
5939.81
4325.3
)
;
    }
    fineWalls
    {
        type            calculated;
        value           uniform 0;
    }
    fineFrontAndBack
    {
        type            calculated;
        value           nonuniform List<scalar> 
960
(
-4.81544e-13
-3.47387e-13
1.44195e-13
3.42713e-13
2.23038e-12
4.47381e-13
3.94618e-13
3.77023e-13
3.66238e-12
1.80919e-12
1.89963e-12
9.82066e-12
2.31715e-12
2.38593e-12
1.02313e-11
1.74829e-12
1.67671e-12
5.9283e-12
1.33046e-12
1.23781e-12
3.42361e-13
7.18894e-14
-5.08281e-14
-1.53801e-13
-2.10324e-13
-3.36418e-13
-3.2871e-12
-5.44004e-13
-5.72412e-13
-5.92285e-13
-6.34759e-13
-6.80714e-13
-7.10898e-13
-7.47361e-13
-7.69353e-13
-7.65608e-13
-7.18862e-13
-6.88712e-13
-5.66222e-13
-7.3254e-13
-1.12325e-11
-2.21667e-12
-3.44941e-12
-5.81752e-12
-3.52153e-11
3.84215e-12
1.01016e-11
1.38992e-11
1.74079e-10
8.84157e-11
1.54371e-10
3.14135e-10
2.41911e-11
2.49558e-11
2.92511e-11
7.73961e-11
9.61868e-12
8.39071e-12
7.32008e-12
4.74077e-11
2.02608e-12
1.77733e-12
1.72023e-12
1.61358e-12
1.49832e-12
1.35202e-12
1.21272e-12
1.10933e-12
1.02817e-12
9.77239e-13
9.2826e-13
9.01894e-13
8.59062e-13
9.80668e-12
5.71091e-13
3.80022e-13
2.84421e-13
1.31869e-13
-4.55817e-14
-3.64027e-13
-1.84953e-12
-1.97017e-12
-1.02174e-11
-1.6394e-12
-2.45972e-12
-1.26521e-11
-3.19361e-13
-1.38701e-12
-1.09121e-11
-1.42155e-12
-9.94001e-13
-2.61394e-12
7.71856e-13
1.16977e-12
1.50727e-12
5.46885e-12
1.04895e-12
1.28648e-12
5.03321e-12
2.14652e-12
-4.19754e-09
1.39863e-09
1.40863e-09
1.60184e-09
1.16648e-09
5.14309e-10
1.71919e-10
-7.83009e-12
-6.89833e-11
-5.43615e-11
-1.14832e-11
1.60057e-11
1.20939e-11
-1.12382e-11
-2.8981e-11
-2.83791e-11
-1.91726e-11
-9.80074e-12
-1.26989e-11
-2.98823e-10
3.11244e-09
2.03849e-09
2.09625e-09
1.59657e-09
6.76242e-10
1.40386e-10
-4.4053e-11
-7.10829e-11
-4.67423e-11
-6.7331e-12
1.68567e-11
1.13373e-11
-1.11428e-11
-2.87413e-11
-2.87361e-11
-2.06112e-11
-1.16027e-11
-1.57738e-11
9.83346e-10
3.00825e-09
1.93816e-09
1.93146e-09
1.45728e-09
8.39576e-10
2.52872e-10
-5.96139e-11
-8.6267e-11
-3.70595e-11
4.73889e-13
1.74182e-11
1.19331e-11
-7.26221e-12
-2.57533e-11
-2.94532e-11
-2.34607e-11
-1.50455e-11
-1.99817e-11
1.79035e-09
2.70958e-09
1.70948e-09
1.57709e-09
1.09298e-09
7.75499e-10
4.12438e-10
1.84331e-11
-9.57251e-11
-3.62205e-11
9.91084e-12
1.78391e-11
1.06864e-11
-5.02149e-12
-2.07523e-11
-2.72192e-11
-2.53214e-11
-2.07299e-11
-2.81525e-11
1.84635e-09
2.09814e-09
1.32192e-09
1.10396e-09
6.49259e-10
5.10089e-10
4.32186e-10
1.46084e-10
-5.78351e-11
-4.23829e-11
1.74245e-11
6.41952e-11
7.34779e-11
2.41066e-11
-1.77991e-11
-3.55293e-11
-3.86516e-11
-3.40945e-11
-3.58577e-11
1.45506e-09
1.51825e-09
9.1689e-10
6.56907e-10
2.87202e-10
2.12578e-10
2.79519e-10
1.95401e-10
1.26846e-11
-3.62555e-11
6.21061e-11
2.26192e-10
2.66952e-10
1.73863e-10
7.99975e-11
1.35245e-11
-1.15728e-11
1.34331e-12
-1.28551e-11
1.0412e-09
1.08388e-09
5.35823e-10
3.18662e-10
9.9534e-11
5.74757e-11
9.09943e-11
1.16916e-10
4.47782e-11
1.64509e-11
2.01154e-10
3.37849e-10
3.05557e-10
2.32379e-10
1.74338e-10
9.81899e-11
6.76013e-11
6.67862e-11
1.3403e-11
7.91196e-10
7.11626e-10
2.05228e-10
1.21933e-10
7.53631e-11
7.28975e-11
-9.28648e-13
-2.35229e-11
-9.93377e-12
8.56944e-11
3.11221e-10
3.70643e-10
2.88766e-10
1.88554e-10
1.50878e-10
1.10302e-10
5.69847e-11
5.59086e-11
6.15197e-11
6.31482e-10
3.3157e-10
-2.50857e-11
4.03381e-11
1.24872e-10
1.89741e-10
1.04094e-10
5.76984e-12
2.87253e-11
1.97615e-10
3.73586e-10
3.80546e-10
3.18227e-10
2.36854e-10
1.53595e-10
1.24949e-10
1.1769e-10
1.13925e-10
1.15932e-10
4.68115e-10
1.90235e-11
-1.37747e-10
-2.4407e-11
9.86953e-11
2.25949e-10
2.76067e-10
2.60065e-10
2.56993e-10
2.98206e-10
3.01405e-10
2.51609e-10
2.51603e-10
2.69915e-10
2.61058e-10
2.15269e-10
1.87111e-10
1.79895e-10
2.26173e-10
4.14348e-10
-8.25648e-11
-2.42917e-10
-2.72225e-10
-2.74085e-10
-2.7563e-10
-2.78785e-10
-2.51602e-10
-2.39679e-10
-2.4615e-10
-2.08772e-10
-1.55605e-10
-1.62104e-10
-1.99493e-10
-2.26258e-10
-2.19667e-10
-1.83969e-10
-1.31185e-10
-2.62387e-11
5.65193e-10
4.63429e-12
-2.17769e-10
-3.28626e-10
-3.35822e-10
-2.45621e-10
-1.07167e-10
-2.60956e-11
-5.65304e-11
-2.1326e-10
-3.66764e-10
-3.58539e-10
-3.1003e-10
-2.58309e-10
-1.71745e-10
-1.08252e-10
-9.16636e-11
-8.09633e-11
-7.61696e-11
7.59859e-10
2.07132e-10
-9.08258e-11
-2.76246e-10
-3.14378e-10
-2.01122e-10
-5.6624e-11
8.02179e-12
7.9257e-12
-1.07028e-10
-3.30692e-10
-3.8473e-10
-3.1511e-10
-2.14729e-10
-1.41638e-10
-1.17657e-10
-5.70637e-11
-2.02091e-11
-1.4373e-11
8.77303e-10
4.42454e-10
1.05845e-10
-1.42697e-10
-2.44944e-10
-1.6998e-10
-6.24098e-11
-1.33849e-11
5.86651e-12
-3.70526e-11
-2.39285e-10
-3.54371e-10
-3.11642e-10
-2.22851e-10
-2.01948e-10
-1.26681e-10
-7.9117e-11
-7.3223e-11
-1.65324e-11
8.41473e-10
6.0473e-10
3.10073e-10
3.96378e-11
-1.28026e-10
-1.08411e-10
-3.48056e-11
-4.08549e-12
1.18242e-11
1.12376e-11
-1.00461e-10
-2.75999e-10
-3.21649e-10
-2.5744e-10
-1.50969e-10
-5.88265e-11
-1.49202e-11
-1.85553e-11
-9.06378e-12
6.62848e-10
6.09629e-10
4.3988e-10
2.16356e-10
1.46164e-11
-2.85923e-11
-5.58352e-12
5.07568e-13
1.19269e-11
1.88798e-11
-1.11067e-12
-1.1614e-10
-1.92588e-10
-1.15851e-10
-3.4199e-11
3.98134e-12
1.07345e-11
1.07424e-11
4.59261e-12
4.44429e-10
4.55978e-10
4.33305e-10
3.18584e-10
1.34654e-10
3.08923e-11
1.71992e-12
-6.68436e-13
1.30402e-11
1.731e-11
1.35985e-11
-4.32811e-12
-3.61451e-11
-1.18777e-12
1.12886e-11
6.2548e-12
1.56618e-12
8.63296e-13
-1.61435e-12
3.14532e-10
2.53363e-10
3.12492e-10
3.10631e-10
1.8339e-10
3.83892e-11
-9.18853e-12
-1.98932e-12
1.24734e-11
1.64898e-11
1.45021e-11
1.04375e-11
7.80428e-12
5.39274e-12
1.88494e-12
1.08594e-12
1.36364e-12
1.48231e-12
-2.54637e-12
2.82037e-10
6.93294e-11
1.15573e-10
1.88741e-10
1.37489e-10
5.57968e-12
-1.76491e-11
-2.90148e-12
1.02037e-11
1.59566e-11
1.53385e-11
1.0861e-11
6.34715e-12
3.66026e-12
2.36681e-12
2.05303e-12
1.46128e-12
7.84234e-13
-1.4108e-12
6.01656e-10
2.0316e-10
5.97582e-11
3.13983e-11
1.95968e-11
-1.93284e-11
-1.83709e-11
-5.24478e-12
8.1699e-12
1.56372e-11
1.58138e-11
1.14473e-11
6.49921e-12
3.59389e-12
2.25022e-12
1.90983e-12
1.36126e-12
5.38246e-13
1.10833e-12
4.81544e-13
3.47387e-13
-1.44195e-13
-3.42713e-13
-2.23038e-12
-4.47381e-13
-3.94618e-13
-3.77023e-13
-3.66238e-12
-1.80919e-12
-1.89963e-12
-9.82066e-12
-2.31715e-12
-2.38593e-12
-1.02313e-11
-1.74829e-12
-1.67671e-12
-5.9283e-12
-1.33046e-12
-1.23781e-12
-3.42361e-13
-7.18894e-14
5.08281e-14
1.53801e-13
2.10324e-13
3.36418e-13
3.2871e-12
5.44004e-13
5.72412e-13
5.92285e-13
6.34759e-13
6.80714e-13
7.10898e-13
7.47361e-13
7.69353e-13
7.65608e-13
7.18862e-13
6.88712e-13
5.66222e-13
7.3254e-13
1.12325e-11
2.21667e-12
3.44941e-12
5.81752e-12
3.52153e-11
-3.84215e-12
-1.01016e-11
-1.38992e-11
-1.74079e-10
-8.84157e-11
-1.54371e-10
-3.14135e-10
-2.41911e-11
-2.49558e-11
-2.92511e-11
-7.73961e-11
-9.61868e-12
-8.39071e-12
-7.32008e-12
-4.74077e-11
-2.02608e-12
-1.77733e-12
-1.72023e-12
-1.61358e-12
-1.49832e-12
-1.35202e-12
-1.21272e-12
-1.10933e-12
-1.02817e-12
-9.77239e-13
-9.2826e-13
-9.01894e-13
-8.59062e-13
-9.80668e-12
-5.71091e-13
-3.80022e-13
-2.84421e-13
-1.31869e-13
4.55817e-14
3.64027e-13
1.84953e-12
1.97017e-12
1.02174e-11
1.6394e-12
2.45972e-12
1.26521e-11
3.19361e-13
1.38701e-12
1.09121e-11
1.42155e-12
9.94001e-13
2.61394e-12
-7.71856e-13
-1.16977e-12
-1.50727e-12
-5.46885e-12
-1.04895e-12
-1.28648e-12
-5.03321e-12
-2.14652e-12
4.19754e-09
-1.39863e-09
-1.40863e-09
-1.60184e-09
-1.16648e-09
-5.14309e-10
-1.71919e-10
7.83009e-12
6.89833e-11
5.43615e-11
1.14832e-11
-1.60057e-11
-1.20939e-11
1.12382e-11
2.8981e-11
2.83791e-11
1.91726e-11
9.80074e-12
1.26989e-11
2.98823e-10
-3.11244e-09
-2.03849e-09
-2.09625e-09
-1.59657e-09
-6.76242e-10
-1.40386e-10
4.4053e-11
7.10829e-11
4.67423e-11
6.7331e-12
-1.68567e-11
-1.13373e-11
1.11428e-11
2.87413e-11
2.87361e-11
2.06112e-11
1.16027e-11
1.57738e-11
-9.83346e-10
-3.00825e-09
-1.93816e-09
-1.93146e-09
-1.45728e-09
-8.39576e-10
-2.52872e-10
5.96139e-11
8.6267e-11
3.70595e-11
-4.73889e-13
-1.74182e-11
-1.19331e-11
7.26221e-12
2.57533e-11
2.94532e-11
2.34607e-11
1.50455e-11
1.99817e-11
-1.79035e-09
-2.70958e-09
-1.70948e-09
-1.57709e-09
-1.09298e-09
-7.75499e-10
-4.12438e-10
-1.84331e-11
9.57251e-11
3.62205e-11
-9.91084e-12
-1.78391e-11
-1.06864e-11
5.02149e-12
2.07523e-11
2.72192e-11
2.53214e-11
2.07299e-11
2.81525e-11
-1.84635e-09
-2.09814e-09
-1.32192e-09
-1.10396e-09
-6.49259e-10
-5.10089e-10
-4.32186e-10
-1.46084e-10
5.78351e-11
4.23829e-11
-1.74245e-11
-6.41952e-11
-7.34779e-11
-2.41066e-11
1.77991e-11
3.55293e-11
3.86516e-11
3.40945e-11
3.58577e-11
-1.45506e-09
-1.51825e-09
-9.1689e-10
-6.56907e-10
-2.87202e-10
-2.12578e-10
-2.79519e-10
-1.95401e-10
-1.26846e-11
3.62555e-11
-6.21061e-11
-2.26192e-10
-2.66952e-10
-1.73863e-10
-7.99975e-11
-1.35245e-11
1.15728e-11