/*--------------------------------*- C++ -*----------------------------------*\
| =========                 |                                                 |
| \\      /  F ield         | OpenFOAM: The Open Source CFD Toolbox           |
|  \\    /   O peration     | Version:  4.1                                   |
|   \\  /    A nd           | Web:      www.OpenFOAM.org                      |
|    \\/     M anipulation  |                                                 |
\*---------------------------------------------------------------------------*/
FoamFile
{
    version     2.0;
    format      ascii;
    class       volVectorField;
    location    "5";
    object      U;
}
// * * * * * * * * * * * * * * * * * * * * * * * * * * * * * * * * * * * * * //

dimensions      [0 1 -1 0 0 0 0];

internalField   nonuniform List<vector> 
1280
(
(-3.47999e-16 -1.55714 -1.08228)
(-5.90418e-17 -1.28493 -1.01557)
(1.04206e-16 -1.29791 -0.786603)
(2.4767e-16 -1.06771 -0.839742)
(3.79075e-16 -1.20267 -1.14635)
(3.23311e-16 -0.919766 -0.920243)
(2.8518e-16 -0.824492 -0.931597)
(2.91014e-16 -0.632768 -0.932741)
(5.48252e-16 -0.637478 -1.36954)
(1.26595e-15 -0.420786 -1.24866)
(1.33131e-15 -0.166963 -1.31469)
(1.83981e-15 -0.0502141 -1.88577)
(1.67454e-15 0.249041 -1.45054)
(1.75152e-15 0.499891 -1.15176)
(1.77729e-15 0.922895 -2.98928)
(1.26344e-15 1.22808 -2.64735)
(1.21171e-15 1.89117 -2.16452)
(1.00757e-15 1.70853 -4.49241)
(9.61487e-16 3.34006 -2.78164)
(8.94531e-16 2.20681 -5.85878)
(1.40456e-15 3.41416 0.159052)
(2.94931e-16 3.5395 5.29261)
(-2.08526e-16 3.37667 8.1343)
(-6.3098e-16 3.67445 9.44731)
(-8.62867e-16 3.76727 9.94612)
(-1.38018e-15 4.1232 10.3918)
(-6.92932e-16 3.3168 9.21385)
(-2.23181e-15 7.05091 13.8864)
(-2.34836e-15 7.10698 14.0087)
(-2.42989e-15 7.12831 14.0313)
(-2.60414e-15 7.12346 13.9968)
(-2.79267e-15 7.10252 13.9126)
(-2.9165e-15 7.07445 13.7885)
(-3.0661e-15 7.04072 13.6405)
(-3.15632e-15 7.01422 13.493)
(-3.14096e-15 6.97196 13.3589)
(-2.94918e-15 6.96609 13.267)
(-2.82549e-15 6.87856 13.1408)
(-2.32296e-15 6.95231 13.1741)
(-3.00529e-15 6.74209 12.6214)
(-1.95518e-15 8.84005 13.6938)
(-1.78046e-15 4.7683 9.62058)
(-2.77061e-15 3.44889 9.4308)
(-4.67327e-15 2.61521 9.87643)
(-5.99394e-15 0.267399 7.07853)
(3.08606e-15 -0.671835 -5.26966)
(8.11371e-15 -0.108567 -3.80593)
(1.1164e-14 0.114215 -4.18561)
(3.28018e-14 2.17851 -4.90036)
(7.10166e-14 4.729 -5.10646)
(1.20022e-13 -4.73176 -4.63342)
(5.46798e-14 -2.10131 -4.81608)
(1.94306e-14 -0.107717 -4.20946)
(2.00448e-14 0.111178 -3.83324)
(2.34949e-14 0.691317 -5.26856)
(1.34719e-14 -0.260109 7.06172)
(7.72529e-15 -2.60007 9.87475)
(6.73953e-15 -3.43372 9.43119)
(5.87958e-15 -4.75192 9.62352)
(8.00826e-15 -8.83697 13.6994)
(8.31213e-15 -6.74734 12.6213)
(7.29162e-15 -6.95687 13.1783)
(7.05736e-15 -6.88303 13.1467)
(6.6198e-15 -6.97072 13.2743)
(6.14694e-15 -6.97658 13.3655)
(5.54673e-15 -7.01893 13.4981)
(4.97528e-15 -7.04531 13.6435)
(4.55109e-15 -7.07894 13.7902)
(4.21814e-15 -7.10699 13.9147)
(4.00919e-15 -7.12831 14.0015)
(3.80825e-15 -7.1339 14.0411)
(3.70008e-15 -7.11316 14.0255)
(3.52436e-15 -7.05947 13.9102)
(2.06728e-15 -3.35102 9.24582)
(2.34294e-15 -4.14699 10.3824)
(1.55906e-15 -3.7951 9.9264)
(1.16686e-15 -3.70274 9.41609)
(5.41001e-16 -3.40595 8.09372)
(-1.87002e-16 -3.56752 5.24765)
(-1.49345e-15 -3.44182 0.119234)
(-1.33661e-15 -2.23693 -5.87718)
(-1.42379e-15 -3.35881 -2.79231)
(-1.73655e-15 -1.73323 -4.52286)
(-1.18475e-15 -1.88631 -2.22903)
(-1.77758e-15 -1.21272 -2.71829)
(-2.11175e-15 -0.888278 -3.06031)
(-2.43301e-16 -0.457141 -1.16077)
(-9.51957e-16 -0.199865 -1.47655)
(-1.79353e-15 0.114151 -1.92782)
(-1.02732e-15 0.246921 -1.34253)
(-7.52311e-16 0.501754 -1.26683)
(-3.13821e-16 0.760604 -1.41133)
(5.74105e-16 0.738803 -0.959414)
(8.45363e-16 0.946886 -0.954193)
(1.08926e-15 1.03407 -0.936027)
(9.29484e-16 1.35051 -1.16241)
(7.58051e-16 1.19076 -0.845094)
(9.29248e-16 1.42331 -0.788515)
(8.64301e-16 1.4304 -1.0006)
(1.55123e-15 1.67052 -1.06336)
(-4.66393e-13 1.43197 5.12735)
(1.55403e-13 1.96498 5.5815)
(1.56514e-13 2.23125 5.4257)
(1.77982e-13 2.10747 5.1003)
(1.29609e-13 0.43022 4.45265)
(5.71454e-14 -1.74223 4.07566)
(1.91021e-14 -2.78759 3.94866)
(-8.7001e-16 -3.3427 3.72317)
(-7.66481e-15 -3.59009 3.34829)
(-6.04017e-15 -3.48896 2.86891)
(-1.27592e-15 -2.98049 2.30157)
(1.77841e-15 -2.23353 1.62082)
(1.34376e-15 -1.7935 0.863098)
(-1.24869e-15 -1.95645 0.253207)
(-3.22012e-15 -1.75333 -0.176946)
(-3.15323e-15 -1.44615 -0.413521)
(-2.13029e-15 -0.793369 -0.756177)
(-1.08897e-15 -0.146564 -0.918717)
(-1.41099e-15 0.182713 -1.01817)
(-3.32025e-14 1.28359 5.42124)
(3.45827e-13 1.92484 5.32024)
(2.26499e-13 2.41123 4.91931)
(2.32917e-13 2.43341 4.60827)
(1.77397e-13 0.792153 4.0625)
(7.5138e-14 -1.78559 3.69523)
(1.55984e-14 -2.79475 3.91902)
(-4.89477e-15 -3.19245 3.8754)
(-7.8981e-15 -3.32466 3.48963)
(-5.19358e-15 -3.12121 2.94975)
(-7.48122e-16 -2.5038 2.23761)
(1.87296e-15 -1.69585 1.28002)
(1.2597e-15 -1.40306 0.338335)
(-1.23809e-15 -1.75527 -0.021433)
(-3.19348e-15 -1.61186 -0.140262)
(-3.1929e-15 -1.24234 -0.246193)
(-2.29013e-15 -0.57071 -0.660136)
(-1.28919e-15 -0.0511829 -1.04446)
(-1.75264e-15 0.226604 -0.751041)
(1.09261e-13 1.41823 5.2412)
(3.3425e-13 2.11679 5.05315)
(2.15351e-13 2.51701 4.97002)
(2.14607e-13 2.50176 5.06357)
(1.6192e-13 0.945676 4.75199)
(9.32863e-14 -1.69761 3.81341)
(2.80969e-14 -2.81613 3.81702)
(-6.62376e-15 -3.12119 4.01688)
(-9.58523e-15 -3.15192 3.73019)
(-4.11772e-15 -2.8885 3.13995)
(5.26543e-17 -2.17907 2.23074)
(1.93535e-15 -1.29886 0.825221)
(1.3259e-15 -1.16907 -0.480276)
(-8.06912e-16 -1.68038 -0.643275)
(-2.86148e-15 -1.64917 -0.371264)
(-3.27258e-15 -1.18372 -0.107515)
(-2.60674e-15 -0.41893 -0.552667)
(-1.67173e-15 -0.085294 -1.10001)
(-2.22019e-15 0.21498 -1.08695)
(1.98927e-13 1.38152 5.16434)
(3.01064e-13 2.0696 5.23466)
(1.89942e-13 2.4128 5.55923)
(1.75232e-13 2.5024 6.01873)
(1.21443e-13 1.26054 5.92185)
(8.61666e-14 -1.43513 4.5549)
(4.58264e-14 -2.83471 3.94563)
(2.04813e-15 -3.14477 4.14501)
(-1.06361e-14 -3.00899 4.03153)
(-4.0245e-15 -2.58316 3.45509)
(1.1012e-15 -1.65807 2.27321)
(1.98212e-15 -0.680435 0.0613096)
(1.18738e-15 -1.02376 -1.72052)
(-5.57943e-16 -1.81771 -1.72763)
(-2.30581e-15 -1.79534 -1.11727)
(-3.02435e-15 -1.10528 -0.321056)
(-2.81349e-15 -0.0308494 -0.594001)
(-2.30332e-15 0.135926 -1.17672)
(-3.12806e-15 0.314459 -1.90665)
(2.0515e-13 1.35351 5.29807)
(2.33127e-13 1.9498 5.79097)
(1.4688e-13 2.19669 6.45832)
(1.22662e-13 2.37949 7.20263)
(7.21399e-14 1.51316 7.36197)
(5.66765e-14 -0.970093 5.91172)
(4.80207e-14 -2.65996 4.59601)
(1.62315e-14 -3.14108 4.4354)
(-6.42612e-15 -2.8899 4.3933)
(-4.70921e-15 -2.206 3.86688)
(1.93606e-15 -0.837663 2.15245)
(7.1328e-15 0.470391 -1.17151)
(8.16422e-15 -0.4717 -3.11196)
(2.67852e-15 -1.97579 -3.31994)
(-1.97768e-15 -2.30761 -2.58384)
(-3.9477e-15 -1.43079 -1.49734)
(-4.29463e-15 -0.0236175 -1.54098)
(-3.78827e-15 0.425799 -2.12479)
(-3.98419e-15 0.349116 -3.42446)
(1.61673e-13 1.16826 5.71314)
(1.68694e-13 1.63429 6.6442)
(1.01877e-13 1.84922 7.49849)
(7.29896e-14 2.16087 8.42296)
(3.19113e-14 1.70713 8.87244)
(2.36198e-14 -0.336204 7.76542)
(3.10577e-14 -2.26703 5.91549)
(2.17112e-14 -3.03873 5.13713)
(1.4094e-15 -2.79143 4.89332)
(-4.02839e-15 -1.70835 4.16744)
(6.90068e-15 0.465032 1.65145)
(2.51324e-14 1.61364 -0.154291)
(2.96614e-14 -0.111764 -1.66653)
(1.93181e-14 -1.69193 -3.34164)
(8.88861e-15 -2.38707 -3.25225)
(1.50272e-15 -1.51941 -2.47178)
(-1.28587e-15 0.249724 -2.57071)
(1.49256e-16 0.704803 -3.7388)
(-1.42834e-15 0.721547 -4.61768)
(1.15689e-13 0.930831 6.35378)
(1.20431e-13 1.26137 7.5447)
(5.95359e-14 1.47258 8.41494)
(3.54069e-14 1.85774 9.43937)
(1.10593e-14 1.73307 10.2317)
(6.38619e-15 0.283864 9.83179)
(1.01105e-14 -1.62978 7.95265)
(1.29907e-14 -2.68176 6.51776)
(4.97535e-15 -2.51116 5.69558)
(1.82788e-15 -1.00645 4.50832)
(2.23504e-14 1.12815 3.14563)
(3.75388e-14 1.67978 3.96959)
(3.39508e-14 0.635957 3.34641)
(2.58199e-14 -1.81165 -1.04108)
(1.93708e-14 -2.70788 -2.204)
(1.091e-14 -1.76226 -2.05572)
(7.51125e-15 0.224387 -2.62381)
(7.42069e-15 1.78002 -3.42872)
(1.48922e-15 1.23161 -0.961097)
(8.79107e-14 0.635081 7.03308)
(7.90695e-14 0.856017 8.27395)
(2.28031e-14 1.07699 9.06397)
(1.35482e-14 1.45998 10.1773)
(8.37368e-15 1.5139 11.3616)
(8.09972e-15 0.584376 11.8286)
(-1.03183e-16 -1.03155 10.4918)
(-2.61365e-15 -2.13262 8.48475)
(-1.10375e-15 -2.02327 6.74884)
(9.52159e-15 -0.687828 5.5357)
(3.45801e-14 0.677272 6.37964)
(4.11825e-14 1.50663 8.13721)
(3.20852e-14 1.74372 8.47676)
(2.09505e-14 0.298283 6.03061)
(1.67643e-14 -1.6704 1.54385)
(1.22557e-14 -1.24992 -0.315053)
(6.33163e-15 0.8558 0.894088)
(6.21207e-15 -0.866226 4.72436)
(6.83553e-15 -5.67311 9.20262)
(7.01647e-14 0.360686 7.58575)
(3.68411e-14 0.498625 8.72477)
(-2.7873e-15 0.686582 9.45794)
(4.48201e-15 0.963764 10.7201)
(1.38746e-14 1.06776 12.2954)
(2.10823e-14 0.646825 13.5427)
(1.15659e-14 -0.284092 13.0978)
(6.41093e-16 -1.13047 11.0976)
(3.1917e-15 -1.29583 8.92268)
(2.19572e-14 -0.754984 7.99412)
(4.15095e-14 0.0784856 8.9551)
(4.22829e-14 0.961883 10.1368)
(3.53585e-14 1.42845 11.6368)
(2.63171e-14 0.682523 12.9159)
(1.70661e-14 -0.564977 11.6936)
(1.38833e-14 -1.03871 9.93575)
(1.30767e-14 -0.850736 10.7339)
(1.26583e-14 -1.44578 11.5344)
(1.28813e-14 -2.81916 11.2008)
(5.20128e-14 0.101376 7.90373)
(2.11373e-15 0.164433 8.95648)
(-1.53052e-14 0.252412 9.76546)
(-2.71188e-15 0.344508 11.2398)
(1.09661e-14 0.366606 13.1026)
(2.51054e-14 0.222445 14.8176)
(3.07555e-14 -0.111482 15.1501)
(2.88962e-14 -0.508241 13.5453)
(2.85548e-14 -0.784515 10.7606)
(3.3134e-14 -0.725076 8.27386)
(3.34894e-14 -0.18453 7.2884)
(2.77582e-14 0.485317 8.21836)
(2.79559e-14 0.710368 10.9676)
(2.99906e-14 0.287015 13.9051)
(2.90869e-14 -0.364695 14.7901)
(2.39188e-14 -0.698838 13.4466)
(2.07901e-14 -0.683444 11.4108)
(1.99883e-14 -1.31945 8.99589)
(2.51303e-14 -2.74384 5.48591)
(4.60386e-14 -0.138276 7.89139)
(-9.17387e-15 -0.189106 8.96211)
(-2.69908e-14 -0.254245 9.80021)
(-3.02472e-14 -0.343847 11.289)
(-3.04539e-14 -0.352737 13.1416)
(-3.06256e-14 -0.155298 14.8079)
(-3.10569e-14 0.23862 15.0645)
(-2.79558e-14 0.654135 13.4045)
(-2.6631e-14 0.846126 10.5279)
(-2.735e-14 0.620233 7.77857)
(-2.31969e-14 0.0355228 6.48825)
(-1.72894e-14 -0.491385 7.53703)
(-1.80116e-14 -0.827364 10.5621)
(-2.21659e-14 -0.866856 13.7327)
(-2.51398e-14 -0.442661 14.8685)
(-2.44074e-14 0.335522 13.5912)
(-2.0441e-14 0.94988 11.556)
(-1.45762e-14 1.61392 9.2009)
(-2.91541e-15 2.87183 5.61455)
(6.27992e-14 -0.403303 7.5391)
(5.14921e-16 -0.541317 8.67807)
(-2.41966e-14 -0.70653 9.4631)
(-3.6514e-14 -0.967831 10.7682)
(-3.73136e-14 -1.03609 12.3457)
(-2.72912e-14 -0.536995 13.5175)
(-1.19075e-14 0.456921 12.9991)
(-2.89951e-15 1.32708 11.0504)
(-6.28116e-15 1.48781 8.93345)
(-2.36956e-14 0.87513 7.87048)
(-4.07516e-14 -0.10676 8.40516)
(-3.98377e-14 -1.04647 9.31625)
(-3.44478e-14 -1.76011 11.1046)
(-2.8701e-14 -1.48695 13.2192)
(-1.90828e-14 -0.289435 12.9007)
(-1.2028e-14 0.765184 10.4308)
(-1.01848e-14 1.05992 10.1835)
(-8.99592e-15 1.66402 11.2858)
(-8.46329e-15 2.96036 11.2043)
(8.44288e-14 -0.670435 6.99075)
(2.30146e-14 -0.903512 8.19076)
(-1.00918e-14 -1.11465 9.00375)
(-3.0694e-14 -1.47452 10.1468)
(-3.49309e-14 -1.46846 11.3249)
(-2.23469e-14 -0.450305 11.6977)
(-6.29156e-15 1.17243 10.3218)
(8.9131e-16 2.24612 8.42115)
(8.80633e-16 2.12461 6.81257)
(-1.1892e-14 0.811116 5.80067)
(-3.67436e-14 -0.606042 6.78925)
(-4.27478e-14 -1.5883 8.45229)
(-3.50122e-14 -2.31937 9.35834)
(-2.38588e-14 -1.50222 8.6205)
(-1.57376e-14 0.716371 4.2333)
(-1.3073e-14 1.55642 0.70889)
(-6.34041e-15 -0.185348 0.269682)
(-2.24546e-15 0.901674 4.18561)
(-1.597e-15 5.67513 9.10403)
(9.74782e-14 -0.953129 6.34091)
(4.91616e-14 -1.29876 7.46952)
(1.17606e-14 -1.51226 8.32204)
(-1.58552e-14 -1.87154 9.34051)
(-2.7216e-14 -1.66716 10.11)
(-1.88866e-14 -0.121464 9.6453)
(-6.93442e-15 1.76336 7.83358)
(-1.48721e-15 2.77411 6.51149)
(6.51835e-16 2.55992 5.74632)
(-4.11695e-15 0.969418 4.6974)
(-2.65872e-14 -1.12121 4.04305)
(-3.93746e-14 -1.95005 5.2492)
(-3.46269e-14 -1.85693 5.56679)
(-2.47612e-14 0.250583 2.74813)
(-2.24386e-14 2.47059 -1.13111)
(-1.40757e-14 2.40819 -1.58248)
(-8.79077e-15 0.591069 -2.05113)
(-8.13589e-15 -1.637 -3.60927)
(-1.83693e-15 -1.32255 -1.04543)
(9.34971e-14 -1.17604 5.73304)
(6.71922e-14 -1.65246 6.60627)
(3.44525e-14 -1.87628 7.41853)
(4.4042e-15 -2.16343 8.30728)
(-1.42251e-14 -1.62822 8.71496)
(-1.20456e-14 0.478717 7.57845)
(-3.86729e-15 2.34928 5.85047)
(-4.53943e-16 3.091 5.16272)
(1.3138e-15 2.82402 4.95913)
(1.24862e-15 1.54395 4.20916)
(-1.11623e-14 -0.986469 1.94805)
(-3.06665e-14 -2.13355 1.36131)
(-3.57388e-14 -1.23749 1.48141)
(-2.86044e-14 1.40043 -2.29271)
(-1.67743e-14 2.58806 -3.14594)
(-6.53627e-15 2.2395 -2.72138)
(-1.65781e-15 0.667587 -2.46194)
(-2.0617e-15 -0.316544 -3.33776)
(-1.00709e-15 -0.755595 -4.46759)
(7.36498e-14 -1.35054 5.3391)
(6.77365e-14 -1.94913 5.79507)
(4.88756e-14 -2.20457 6.41774)
(2.40395e-14 -2.36355 7.11515)
(1.62404e-15 -1.42136 7.22316)
(-3.17692e-15 1.07848 5.7866)
(-6.20391e-16 2.71175 4.58285)
(5.63965e-17 3.17494 4.46807)
(1.32521e-15 2.92284 4.4564)
(2.09775e-15 2.10069 3.9383)
(-1.23408e-16 0.147469 1.90267)
(-1.29044e-14 -1.68803 -1.00949)
(-2.13987e-14 -0.785545 -2.17251)
(-1.28724e-14 1.23967 -3.76702)
(-3.79989e-15 2.54372 -3.58998)
(4.42371e-16 2.10336 -2.33742)
(1.19272e-15 0.69671 -1.68272)
(1.19359e-15 -0.261064 -1.84936)
(5.1029e-16 -0.347705 -3.27058)
(4.93809e-14 -1.37313 5.21032)
(5.06642e-14 -2.05597 5.2691)
(4.8145e-14 -2.40247 5.56153)
(3.53983e-14 -2.46701 5.97839)
(1.49616e-14 -1.1592 5.82859)
(3.43248e-15 1.51154 4.49748)
(1.91102e-16 2.86189 3.96686)
(-7.42706e-17 3.16661 4.17052)
(1.44891e-15 3.02703 4.06981)
(1.92333e-15 2.51141 3.53404)
(1.51095e-15 1.23316 2.20602)
(-4.80901e-16 -0.542858 -0.753845)
(-4.01612e-15 -0.0433486 -2.98101)
(-1.31974e-16 1.72989 -3.17123)
(1.25429e-15 2.19436 -2.29849)
(6.94978e-16 1.55277 -0.919479)
(1.7402e-16 0.463603 -0.526364)
(9.59218e-17 0.056621 -0.91447)
(-1.79372e-16 -0.265646 -1.73106)
(3.4948e-14 -1.41026 5.27951)
(2.81515e-14 -2.09945 5.09943)
(3.47213e-14 -2.49492 5.0027)
(3.45146e-14 -2.44972 5.06753)
(2.03767e-14 -0.83613 4.71111)
(4.26547e-15 1.75455 3.8165)
(-1.02095e-15 2.83722 3.85368)
(-2.21036e-16 3.14482 4.02973)
(1.38594e-15 3.1624 3.748)
(1.8322e-15 2.81842 3.18469)
(1.61134e-15 1.87806 2.22448)
(1.15972e-15 0.522949 0.406014)
(8.67142e-16 0.362315 -1.84859)
(5.99194e-16 1.32035 -1.51716)
(2.09438e-16 1.68018 -0.912423)
(1.2066e-16 1.35839 -0.219845)
(1.51515e-16 0.683749 -0.412824)
(1.64701e-16 0.2697 -0.888302)
(-2.8293e-16 -0.116191 -0.933075)
(3.13375e-14 -1.27784 5.44717)
(7.70327e-15 -1.90787 5.36628)
(1.28415e-14 -2.38294 4.97262)
(2.09712e-14 -2.37168 4.65338)
(1.52766e-14 -0.678144 4.08232)
(6.19965e-16 1.8372 3.74419)
(-1.96101e-15 2.82189 3.95211)
(-3.22387e-16 3.21974 3.87983)
(1.13375e-15 3.32777 3.49468)
(1.77296e-15 3.04602 2.96968)
(1.70427e-15 2.24578 2.23467)
(1.20678e-15 1.08084 1.11339)
(7.05238e-16 0.472629 -0.261471)
(4.06696e-16 1.32983 -0.351528)
(2.62979e-16 1.63362 -0.365386)
(2.28115e-16 1.39455 -0.278931)
(1.62365e-16 0.822956 -0.611739)
(8.71371e-17 0.276521 -0.925142)
(-1.56755e-16 -0.109889 -0.706886)
(6.68507e-14 -1.43284 5.13924)
(2.25733e-14 -1.96011 5.61202)
(6.63979e-15 -2.21064 5.47494)
(3.4887e-15 -2.04426 5.1565)
(2.17742e-15 -0.315168 4.49649)
(-2.1476e-15 1.7975 4.12257)
(-2.04121e-15 2.83035 3.97511)
(-5.82753e-16 3.37945 3.72594)
(9.07767e-16 3.59622 3.34324)
(1.73747e-15 3.4209 2.87223)
(1.75709e-15 2.76458 2.30813)
(1.27192e-15 1.73605 1.59228)
(7.22134e-16 0.977242 0.707747)
(3.99321e-16 1.49865 0.0925033)
(2.50024e-16 1.67535 -0.319574)
(2.12204e-16 1.51487 -0.454072)
(1.51251e-16 0.995714 -0.766857)
(5.98051e-17 0.374575 -0.891834)
(1.23147e-16 -0.0461429 -1.06258)
(6.03643e-17 10.2683 17.4667)
(-3.05062e-15 16.4395 27.4507)
(-2.91716e-15 16.866 27.2162)
(-2.88153e-15 15.6106 24.4739)
(-2.91817e-15 14.2664 21.6966)
(-3.64896e-15 13.1685 19.4202)
(-4.36715e-15 12.1578 17.4562)
(-4.63686e-15 11.3771 16.0349)
(-4.50101e-15 10.7462 14.9329)
(-4.47323e-15 10.2082 14.0581)
(-4.66378e-15 9.7391 13.3626)
(-4.87338e-15 9.32628 12.811)
(-4.95592e-15 8.94917 12.3716)
(-5.18738e-15 8.59877 12.0051)
(-5.3459e-15 8.24205 11.6819)
(-5.53117e-15 7.88393 11.3555)
(-5.69616e-15 7.4532 10.9965)
(-6.17975e-15 6.94693 10.4713)
(-6.39951e-15 6.23947 9.74288)
(-1.00531e-14 4.17433 6.84584)
(2.60357e-17 10.4569 17.6995)
(-2.50653e-15 15.9685 27.296)
(-1.77984e-15 15.836 26.7638)
(-1.86037e-15 14.2964 23.9108)
(-2.01028e-15 12.7812 21.2756)
(-3.03818e-15 11.6625 19.1641)
(-3.20146e-15 10.7924 17.5496)
(-3.07565e-15 10.0992 16.1514)
(-2.91243e-15 9.47978 14.9316)
(-3.40888e-15 8.93492 13.8584)
(-3.65567e-15 8.44641 12.932)
(-3.83798e-15 8.0101 12.1373)
(-3.96488e-15 7.6052 11.4581)
(-4.30591e-15 7.22972 10.8582)
(-4.2944e-15 6.83786 10.3167)
(-4.69255e-15 6.45461 9.76205)
(-4.729e-15 5.95545 9.19001)
(-5.20399e-15 5.42929 8.35893)
(-5.37143e-15 4.49167 7.35458)
(-1.07745e-14 2.42745 3.47474)
(-4.2638e-18 10.7527 18.786)
(-6.23448e-16 17.153 29.3094)
(-5.4188e-16 16.6514 28.4402)
(-6.02163e-16 14.8373 24.9218)
(-5.00348e-16 13.1436 22.1733)
(-1.59918e-15 12.1048 20.0994)
(-1.1494e-15 11.2015 18.5204)
(-9.56984e-16 10.4895 17.0835)
(-1.15444e-15 9.80438 15.7982)
(-1.38219e-15 9.19035 14.6045)
(-1.31319e-15 8.61322 13.524)
(-1.47515e-15 8.08455 12.5479)
(-1.7309e-15 7.58512 11.6766)
(-1.89367e-15 7.12009 10.8818)
(-2.00219e-15 6.6405 10.1499)
(-2.18138e-15 6.17667 9.40496)
(-2.21946e-15 5.58836 8.6428)
(-2.24826e-15 4.98102 7.60902)
(-2.59851e-15 3.90884 6.35676)
(-6.83136e-15 1.77046 2.20961)
(9.63088e-19 10.6417 18.6925)
(1.93581e-16 17.7498 30.2492)
(1.41156e-16 16.6361 28.736)
(1.41532e-16 14.6222 24.7303)
(1.76435e-16 12.934 22.2459)
(-9.23937e-16 12.115 20.3851)
(-7.94089e-16 11.2322 18.981)
(-8.53769e-16 10.5686 17.5483)
(-1.03149e-15 9.83351 16.2354)
(-1.22601e-15 9.17901 14.9464)
(-1.15286e-15 8.52777 13.7463)
(-1.42643e-15 7.92107 12.6161)
(-1.62019e-15 7.3308 11.5719)
(-1.76139e-15 6.77322 10.5888)
(-1.8489e-15 6.19447 9.66395)
(-2.15848e-15 5.6353 8.71754)
(-2.15738e-15 4.93341 7.74745)
(-2.22017e-15 4.225 6.48039)
(-3.01161e-15 2.91148 4.84742)
(-1.33069e-14 0.612923 -0.0897903)
(-1.5762e-19 10.8062 19.1049)
(-5.05801e-17 18.3195 31.0474)
(-3.81389e-17 16.6672 28.9899)
(-3.60258e-17 14.6726 24.7865)
(-5.13803e-17 13.0719 22.6454)
(2.60463e-16 12.4296 20.9173)
(2.54468e-16 11.5025 19.5935)
(2.45591e-16 10.858 18.126)
(2.87228e-16 10.0542 16.7955)
(3.32824e-16 9.37041 15.4416)
(3.21376e-16 8.65127 14.1698)
(3.61554e-16 7.98313 12.93)
(4.17724e-16 7.31153 11.7545)
(4.57415e-16 6.67241 10.6128)
(4.86183e-16 5.99923 9.51642)
(5.33902e-16 5.35325 8.38157)
(5.56487e-16 4.54103 7.21518)
(6.02667e-16 3.74958 5.73812)
(7.32425e-16 2.17264 3.7108)
(-9.00194e-17 0.168305 -0.886849)
(-1.15608e-20 11.1297 19.6946)
(1.24988e-17 18.6483 31.4684)
(9.99695e-18 16.5469 28.8988)
(9.71782e-18 14.6827 24.7523)
(1.50169e-17 13.1704 22.9194)
(-6.0607e-17 12.6229 21.2437)
(-7.10337e-17 11.6195 19.9435)
(-7.20193e-17 10.9773 18.4278)
(-7.7158e-17 10.0997 17.084)
(-8.49581e-17 9.39594 15.684)
(-8.83967e-17 8.61559 14.3746)
(-9.34217e-17 7.90571 13.0664)
(-1.03415e-16 7.17024 11.8118)
(-1.13565e-16 6.47621 10.5615)
(-1.20278e-16 5.72905 9.34395)
(-1.27202e-16 5.02503 8.05338)
(-1.38104e-16 4.10964 6.71675)
(-1.54129e-16 3.25359 5.0013)
(-2.29394e-16 1.3504 2.55787)
(1.51623e-15 -0.420109 -1.81397)
(1.94946e-20 11.65 20.6085)
(-2.97273e-18 18.836 31.7222)
(-2.53412e-18 16.3991 28.7184)
(-2.63192e-18 14.7139 24.7678)
(-4.19799e-18 13.2494 23.1222)
(1.33633e-17 12.722 21.4379)
(1.83911e-17 11.6524 20.1254)
(1.90357e-17 10.9961 18.572)
(1.96357e-17 10.0671 17.215)
(2.12658e-17 9.34709 15.7914)
(2.26781e-17 8.52845 14.4673)
(2.35672e-17 7.79892 13.1342)
(2.50966e-17 7.03387 11.8564)
(2.72476e-17 6.32181 10.5676)
(2.86465e-17 5.54343 9.30378)
(3.02285e-17 4.8155 7.93059)
(3.32026e-17 3.83805 6.48358)
(3.757e-17 2.91467 4.57425)
(5.59642e-17 0.859511 1.88458)
(5.93373e-16 -0.82362 -2.38081)
(-8.82125e-21 12.1926 21.5292)
(6.83452e-19 18.8989 31.8294)
(6.28239e-19 16.2678 28.5277)
(6.80982e-19 14.7384 24.7704)
(1.10751e-18 13.2942 23.1915)
(-2.85536e-18 12.7469 21.4855)
(-4.48736e-18 11.6659 20.1479)
(-4.71461e-18 10.981 18.5855)
(-4.84645e-18 10.0509 17.208)
(-5.23047e-18 9.30994 15.7835)
(-5.5544e-18 8.49116 14.4504)
(-5.72362e-18 7.75224 13.1226)
(-5.95661e-18 6.98936 11.8464)
(-6.38279e-18 6.2691 10.5587)
(-6.72057e-18 5.4833 9.27777)
(-7.16729e-18 4.72115 7.8671)
(-7.92856e-18 3.70848 6.33748)
(-9.11345e-18 2.69254 4.30606)
(-1.10678e-17 0.64921 1.54906)
(-4.09295e-17 -1.06283 -2.66094)
(3.13763e-21 12.7077 22.3837)
(-1.53978e-19 19.0057 31.9542)
(-1.52419e-19 16.2854 28.5267)
(-1.65728e-19 14.878 24.8826)
(-2.79928e-19 13.4457 23.2895)
(5.83285e-19 12.8712 21.5675)
(1.05171e-18 11.8344 20.1918)
(1.13727e-18 11.1125 18.6369)
(1.17514e-18 10.2241 17.2249)
(1.25856e-18 9.45866 15.8037)
(1.32138e-18 8.6628 14.4502)
(1.35004e-18 7.90936 13.1201)
(1.39096e-18 7.14622 11.8215)
(1.48039e-18 6.39056 10.5097)
(1.57509e-18 5.57358 9.17344)
(1.70565e-18 4.73179 7.70869)
(1.90165e-18 3.67498 6.08782)
(2.21355e-18 2.55123 4.01266)
(4.16083e-18 0.584353 1.26299)
(-1.19524e-16 -1.21632 -2.82145)
(-1.04463e-21 13.3564 23.4765)
(3.43367e-20 19.3485 32.2558)
(3.61532e-20 16.4797 28.776)
(3.82002e-20 15.2418 25.2077)
(6.85683e-20 13.8141 23.6006)
(-1.1142e-19 13.2415 21.8475)
(-2.38703e-19 12.2616 20.4207)
(-2.71055e-19 11.5223 18.8538)
(-2.80099e-19 10.684 17.3913)
(-2.94989e-19 9.90742 15.9388)
(-3.06183e-19 9.12287 14.5252)
(-3.11142e-19 8.33799 13.1274)
(-3.21313e-19 7.52874 11.7291)
(-3.42316e-19 6.68506 10.2996)
(-3.69053e-19 5.7672 8.81821)
(-4.05999e-19 4.78294 7.21431)
(-4.57357e-19 3.61214 5.44291)
(-4.96989e-19 2.32774 3.27053)
(-1.46725e-18 0.309294 0.42025)
(-3.04154e-17 -1.41315 -3.23857)
(3.30635e-22 14.4629 25.5312)
(-7.56042e-21 19.9686 32.7503)
(-8.3929e-21 16.7435 29.2439)
(-8.42982e-21 15.8888 25.8794)
(-1.62648e-20 14.4366 24.3551)
(1.93206e-20 13.9461 22.5468)
(5.21026e-20 13.001 21.0909)
(6.36121e-20 12.31 19.4911)
(6.56529e-20 11.5262 17.9773)
(6.7314e-20 10.7675 16.4358)
(6.90574e-20 9.96674 14.8778)
(7.04689e-20 9.10835 13.2786)
(7.36424e-20 8.17431 11.6273)
(7.91163e-20 7.15901 9.91267)
(8.6323e-20 6.04005 8.12832)
(9.58209e-20 4.82207 6.22275)
(1.10408e-19 3.4144 4.15898)
(1.70378e-19 1.84594 1.69249)
(-9.40003e-19 -0.317067 -1.15638)
(9.66866e-18 -1.79249 -4.48761)
(-9.55087e-23 16.053 28.8834)
(1.66308e-21 20.4977 33.0638)
(1.93403e-21 16.8497 29.8575)
(1.83608e-21 16.6783 26.9569)
(3.78147e-21 15.1065 25.6715)
(-2.94085e-21 14.8297 23.8413)
(-1.0828e-20 13.8695 22.4895)
(-1.46085e-20 13.339 20.9198)
(-1.55141e-20 12.601 19.4203)
(-1.57995e-20 11.8579 17.7346)
(-1.62588e-20 10.9429 15.8961)
(-1.70015e-20 9.88392 13.8941)
(-1.82644e-20 8.68584 11.78)
(-2.00808e-20 7.37625 9.58019)
(-2.24635e-20 5.9418 7.30903)
(-2.58822e-20 4.38655 4.91538)
(-2.7931e-20 2.58511 2.42087)
(-6.05245e-20 0.721872 -0.383288)
(-1.53032e-19 -1.83019 -3.36332)
(6.62276e-18 -2.83996 -6.827)
(2.61909e-23 17.3591 32.1732)
(-3.87559e-22 20.1002 32.2792)
(-4.66012e-22 16.4653 30.1938)
(-4.27228e-22 16.9391 27.8272)
(-9.24481e-22 15.0918 26.8395)
(4.13967e-22 15.0563 25.0942)
(2.24768e-21 13.964 24.0516)
(3.33504e-21 13.6117 22.6376)
(3.73348e-21 12.7305 21.2177)
(3.87528e-21 11.7899 19.2431)
(4.00313e-21 10.4193 16.8945)
(4.32305e-21 8.88345 14.2759)
(4.99112e-21 7.21408 11.5837)
(5.82781e-21 5.46519 8.81382)
(6.92961e-21 3.58319 5.93213)
(9.57585e-21 1.54341 2.88346)
(1.19198e-20 -1.1318 -0.676629)
(-3.05897e-20 -1.96572 -3.44167)
(1.51876e-19 -4.32164 -5.64021)
(3.16269e-19 -4.20778 -9.31642)
(-7.34725e-24 17.3154 32.8718)
(1.02499e-22 18.6152 30.2207)
(1.24744e-22 15.5387 29.4376)
(1.28e-22 15.957 27.2507)
(2.37892e-22 13.9497 26.357)
(-9.83065e-23 13.7953 24.7643)
(-5.56539e-22 12.5487 23.9166)
(-8.46897e-22 12.0394 22.6074)
(-1.00983e-21 10.7636 21.0506)
(-1.21389e-21 9.32117 18.5881)
(-1.36347e-21 7.38831 15.69)
(-9.72789e-22 5.53334 12.7165)
(-9.25631e-23 3.7013 9.86405)
(-8.51627e-23 1.87412 6.92841)
(-7.06493e-23 0.018164 3.93497)
(5.90406e-21 -1.62639 1.32472)
(1.18393e-21 -2.97035 -0.899598)
(-1.15574e-19 -4.55956 -3.93046)
(-5.29409e-19 -5.68115 -6.32474)
(-9.46232e-19 -2.99808 -4.15595)
(1.7203e-24 16.0867 30.9488)
(-3.07379e-23 17.6342 28.4653)
(-3.84305e-23 14.3507 27.6885)
(-4.48102e-23 14.7451 25.2827)
(-6.10158e-23 12.5422 24.3664)
(4.26811e-23 12.205 22.6633)
(1.77359e-22 10.7946 21.7072)
(2.56454e-22 9.97414 20.3399)
(2.28558e-22 8.51725 18.7032)
(7.9002e-23 6.90677 16.339)
(9.88237e-23 5.09911 13.7385)
(8.70515e-22 3.49989 11.2489)
(1.97192e-21 1.99094 8.82318)
(3.71299e-22 0.492382 6.26151)
(-7.10557e-21 -0.943199 3.69241)
(-1.36714e-20 -2.14098 1.35874)
(-2.47705e-21 -2.46688 0.226234)
(1.94193e-20 -0.887457 1.78972)
(1.93727e-20 2.50877 6.10139)
(2.60789e-20 4.02369 8.83065)
(-2.60153e-25 15.2445 30.0553)
(8.55428e-24 17.7581 27.3394)
(1.03123e-23 13.7315 26.6942)
(1.32977e-23 14.8639 23.7734)
(1.55507e-23 12.2679 22.8696)
(-1.33143e-23 12.2137 20.7025)
(-4.27835e-23 10.6692 19.4537)
(-4.89871e-23 9.97595 17.8228)
(-4.99861e-23 8.80934 16.3597)
(-8.27321e-23 7.79302 14.6157)
(-7.54882e-23 6.73152 12.8515)
(2.2042e-22 5.86791 11.1818)
(7.92808e-22 5.07992 9.56106)
(5.84923e-22 4.29677 7.80485)
(-2.19936e-21 3.74715 6.28517)
(-7.21789e-21 3.86138 5.83957)
(-1.15546e-20 4.56147 6.43468)
(-1.33882e-20 5.20283 7.49701)
(-1.28465e-20 5.93341 8.23349)
(-4.49994e-21 4.67356 7.92914)
(2.36617e-25 14.9408 30.4859)
(-2.50472e-24 18.3173 27.4067)
(-3.79554e-24 13.754 27.0679)
(-3.32265e-24 15.3117 24.0697)
(-7.64971e-25 12.7893 23.1874)
(7.06872e-24 12.8277 21.0737)
(1.10678e-23 11.5401 19.7249)
(6.82672e-24 10.9891 18.0954)
(1.8414e-24 10.1971 16.7322)
(1.56277e-23 9.62556 15.4084)
(4.94808e-23 9.06516 14.1583)
(4.31438e-23 8.54599 12.8754)
(-7.12711e-23 8.0305 11.5635)
(-2.19521e-22 7.53594 10.2484)
(-1.30757e-22 7.04622 8.89207)
(4.16344e-22 6.44136 7.3915)
(1.6249e-21 5.56699 5.77084)
(3.32316e-21 4.25734 3.79958)
(4.66714e-21 2.31405 1.75028)
(1.07069e-20 0.841309 -0.411992)
(1.11473e-25 14.2421 30.9034)
(4.38162e-25 18.3325 27.5266)
(-3.93051e-25 13.4482 27.4814)
(-5.50202e-25 14.6432 24.9503)
(8.37874e-25 12.5133 23.9971)
(1.78136e-24 12.2094 22.2974)
(1.4977e-24 11.1635 21.0372)
(-2.29765e-25 10.5642 19.6527)
(-1.8719e-24 9.86911 18.39)
(1.286e-24 9.29225 17.1252)
(1.28259e-23 8.71781 15.8861)
(2.24324e-23 8.17423 14.6324)
(1.06839e-23 7.62854 13.3444)
(1.34119e-24 7.05877 11.941)
(1.21466e-22 6.30775 10.246)
(5.39204e-22 5.18333 7.88542)
(1.1368e-21 3.31984 4.6044)
(1.26412e-21 1.28087 0.779856)
(3.46322e-22 -1.43061 -2.29883)
(9.68156e-21 -2.18359 -6.26611)
(5.38066e-26 11.3475 28.871)
(-3.02262e-26 17.1589 25.2267)
(-5.45425e-25 12.1307 25.6198)
(-1.08503e-24 12.7968 23.9124)
(-6.80143e-25 11.0768 23.1708)
(5.33595e-25 10.4328 22.091)
(1.23173e-24 9.46711 21.1818)
(9.45238e-25 8.719 20.2358)
(1.45275e-24 7.97361 19.3176)
(5.58749e-24 7.30128 18.3891)
(9.85776e-24 6.66855 17.4549)
(-2.29324e-24 6.08592 16.5121)
(-3.11662e-23 5.53979 15.5464)
(4.04032e-23 4.96757 14.439)
(5.13515e-22 4.17746 12.8406)
(1.57888e-21 2.85956 10.1664)
(2.65792e-21 0.880393 6.0158)
(2.6736e-21 -1.41964 1.02652)
(2.19655e-21 -3.10332 -3.05291)
(3.13605e-21 -2.4298 -4.48462)
(1.57083e-26 2.65094 17.1587)
(4.0111e-26 8.05211 13.7659)
(-9.04223e-26 5.16703 14.6294)
(-4.4202e-25 4.95757 14.251)
(-8.63646e-25 4.02129 14.2265)
(-1.17632e-24 3.43897 14.0684)
(-1.47681e-24 2.84455 13.925)
(-2.15314e-24 2.35112 13.745)
(-3.25625e-24 1.91731 13.5434)
(-3.44533e-24 1.55683 13.317)
(2.02489e-25 1.26679 13.068)
(8.35226e-24 1.04904 12.7951)
(9.77985e-24 0.904827 12.5047)
(-2.51874e-23 0.855035 12.2162)
(-1.23629e-22 0.938724 11.9561)
(-2.51976e-22 1.14352 11.7358)
(-2.94984e-22 1.51018 11.4022)
(-1.85799e-22 2.31486 10.4932)
(-4.89134e-23 2.6522 8.98387)
(-1.34091e-23 -0.105673 6.78964)
(-1.53926e-26 -2.65098 17.1588)
(-4.10888e-26 -8.05215 13.766)
(8.96344e-26 -5.16705 14.6296)
(4.40614e-25 -4.95756 14.2511)
(8.63586e-25 -4.02125 14.2266)
(1.18336e-24 -3.43888 14.0685)
(1.50039e-24 -2.84439 13.9251)
(2.2032e-24 -2.35091 13.7451)
(3.31952e-24 -1.91707 13.5435)
(3.43362e-24 -1.55658 13.3172)
(-4.82223e-25 -1.26651 13.0683)
(-9.03663e-24 -1.04872 12.7953)
(-1.03845e-23 -0.904485 12.505)
(2.65054e-23 -0.854797 12.2168)
(1.29666e-22 -0.938812 11.9572)
(2.63541e-22 -1.1441 11.7374)
(3.07791e-22 -1.51119 11.4037)
(1.93642e-22 -2.31605 10.4944)
(5.1323e-23 -2.65337 8.98523)
(1.42304e-23 0.10526 6.7912)
(-5.78719e-26 -11.3479 28.8715)
(3.02881e-26 -17.159 25.2273)
(5.43413e-25 -12.1309 25.6204)
(1.0818e-24 -12.7968 23.9131)
(6.85765e-25 -11.0767 23.1716)
(-5.14691e-25 -10.4325 22.0919)
(-1.19268e-24 -9.46672 21.1828)
(-9.09347e-25 -8.71839 20.2368)
(-1.53375e-24 -7.97275 19.3185)
(-5.9433e-24 -7.30017 18.3899)
(-1.02891e-23 -6.66724 17.4556)
(2.8571e-24 -6.08448 16.5129)
(3.33735e-23 -5.53819 15.5472)
(-4.22837e-23 -4.96537 14.439)
(-5.38836e-22 -4.17375 12.838)
(-1.65262e-21 -2.85379 10.16)
(-2.77858e-21 -0.873782 6.00784)
(-2.80279e-21 1.42353 1.02316)
(-2.32223e-21 3.10385 -3.05138)
(-3.29106e-21 2.43049 -4.48399)
(-9.56824e-26 -14.243 30.9047)
(-4.25494e-25 -18.3332 27.5279)
(3.91029e-25 -13.4491 27.4827)
(5.66622e-25 -14.6441 24.9519)
(-8.06851e-25 -12.5143 23.9988)
(-1.72789e-24 -12.2105 22.2994)
(-1.44143e-24 -11.1647 21.0394)
(2.48609e-25 -10.5654 19.655)
(1.76136e-24 -9.87035 18.3923)
(-1.71953e-24 -9.29335 17.1272)
(-1.36886e-23 -8.7187 15.8877)
(-2.30127e-23 -8.175 14.6338)
(-9.12738e-24 -7.62936 13.3455)
(2.75093e-24 -7.05928 11.9418)
(-1.22228e-22 -6.30812 10.2455)
(-5.62349e-22 -5.18181 7.88269)
(-1.19335e-21 -3.31899 4.60266)
(-1.3426e-21 -1.28015 0.776245)
(-4.23953e-22 1.44053 -2.3121)
(-1.00647e-20 2.19074 -6.28272)