/*--------------------------------*- C++ -*----------------------------------*\
| =========                 |                                                 |
| \\      /  F ield         | OpenFOAM: The Open Source CFD Toolbox           |
|  \\    /   O peration     | Version:  4.1                                   |
|   \\  /    A nd           | Web:      www.OpenFOAM.org                      |
|    \\/     M anipulation  |                                                 |
\*---------------------------------------------------------------------------*/
FoamFile
{
    version     2.0;
    format      ascii;
    class       volVectorField;
    location    "18";
    object      U;
}
// * * * * * * * * * * * * * * * * * * * * * * * * * * * * * * * * * * * * * //

dimensions      [0 1 -1 0 0 0 0];

internalField   nonuniform List<vector> 
1280
(
(-3.09954e-18 13.7569 0.2072)
(8.80637e-19 16.8529 -1.55597)
(1.59653e-17 15.2272 -1.33396)
(2.29359e-17 15.6208 -1.2246)
(3.38755e-17 19.3028 -3.81562)
(-2.6159e-17 16.61 -3.29092)
(1.7186e-16 18.6761 -3.44958)
(-7.87084e-16 17.8213 -3.23048)
(6.9723e-16 22.3988 -7.23556)
(7.74057e-16 20.4591 -5.95067)
(1.34285e-15 21.8376 -5.35034)
(-2.75737e-15 26.602 -11.3169)
(-2.95931e-15 24.7436 -9.43948)
(-3.72375e-15 26.8904 -8.51892)
(-1.15575e-14 32.7415 -17.4139)
(-9.19794e-15 31.2362 -14.2643)
(-7.64162e-15 34.5678 -13.5847)
(-7.24607e-15 39.9731 -25.406)
(-4.88063e-15 41.041 -19.5454)
(-4.84199e-15 41.0811 -28.3158)
(-8.95556e-15 42.6943 23.4209)
(-1.11477e-14 42.8663 58.4043)
(-1.31629e-14 43.9334 80.0037)
(-1.41415e-14 46.6501 90.9378)
(-1.43654e-14 48.2877 96.5582)
(-1.40112e-14 51.7589 100.803)
(-1.68854e-14 42.9565 70.3978)
(-1.34619e-14 85.7751 127.924)
(-1.47753e-14 85.3349 128.675)
(-1.60496e-14 86.6029 127.706)
(-1.7221e-14 86.7804 126.204)
(-1.85464e-14 86.6911 124.372)
(-2.01099e-14 86.5008 122.534)
(-2.18797e-14 86.0874 120.832)
(-2.35037e-14 85.5496 119.29)
(-2.47915e-14 84.7561 117.824)
(-2.50342e-14 83.9763 116.353)
(-2.43338e-14 82.679 114.444)
(-2.00427e-14 82.0651 112.49)
(-1.78471e-14 79.5108 106.803)
(5.28593e-15 93.2379 123.784)
(1.88455e-14 57.4432 86.6432)
(2.20884e-14 49.1062 86.3537)
(1.91342e-14 37.5609 84.5062)
(1.9715e-14 27.4154 79.3206)
(4.2384e-15 16.0789 44.237)
(-2.33577e-15 11.0136 37.207)
(-5.53376e-15 7.37404 26.4608)
(-6.69126e-15 5.61124 6.8856)
(7.76885e-15 2.99808 3.52369)
(1.46403e-14 2.29393 2.27559)
(1.93753e-14 1.36633 -2.58111)
(1.12649e-14 -0.293852 16.3733)
(8.51232e-15 -2.1559 26.5508)
(2.4278e-15 -6.63712 32.6797)
(-1.43203e-14 -12.595 59.8727)
(-1.97364e-14 -22.7168 78.065)
(-2.09459e-14 -32.0185 85.275)
(-2.0131e-14 -41.8002 87.5719)
(-1.27769e-14 -86.7718 128.531)
(1.82808e-14 -65.5886 121.258)
(1.19465e-14 -67.7971 128.178)
(1.69637e-14 -67.1528 129.596)
(1.92367e-14 -68.014 131.568)
(2.19547e-14 -68.1023 133.208)
(2.31231e-14 -68.5949 134.752)
(2.3094e-14 -68.8543 136.194)
(2.26277e-14 -69.1774 137.499)
(2.24492e-14 -69.3399 138.381)
(2.22667e-14 -69.4264 138.495)
(2.17105e-14 -69.3179 137.74)
(2.0585e-14 -68.4416 136.336)
(1.88299e-14 -68.3814 133.872)
(9.52686e-15 -37.1786 89.6017)
(1.35631e-14 -45.0146 95.9572)
(1.34357e-14 -42.9391 89.6254)
(1.37319e-14 -42.6118 81.0668)
(1.37348e-14 -41.0574 69.2086)
(1.25397e-14 -39.943 51.5396)
(9.88535e-15 -39.8257 22.9745)
(9.27172e-15 -35.5859 -35.7962)
(1.17619e-14 -37.5982 -28.1659)
(2.0513e-14 -30.3185 -38.7624)
(1.76019e-14 -28.6902 -26.3135)
(1.95402e-14 -22.2403 -28.1905)
(2.87979e-14 -20.4459 -34.6887)
(2.36105e-14 -14.4889 -20.6571)
(2.40732e-14 -10.4897 -22.4717)
(2.50021e-14 -6.63696 -26.7006)
(7.46602e-15 -3.55313 -14.5885)
(1.71941e-14 -0.572678 -15.4219)
(4.21888e-14 2.99414 -21.8304)
(3.92983e-14 5.24403 -15.8417)
(3.93851e-14 8.17372 -15.7287)
(3.79288e-14 9.68561 -14.5856)
(4.09154e-14 14.7235 -20.0726)
(2.67458e-14 15.0197 -13.947)
(2.33207e-14 18.2342 -12.117)
(2.66441e-14 18.8764 -16.8813)
(2.06153e-14 24.1047 -15.879)
(2.61624e-14 -36.1302 30.0487)
(3.31009e-14 -38.6716 29.7919)
(3.40917e-14 -26.5606 27.8533)
(3.17549e-14 17.6001 13.3017)
(2.35933e-14 35.6165 7.71553)
(1.65259e-14 35.2199 16.5061)
(1.52032e-14 15.6326 21.1803)
(1.72227e-14 -16.3421 7.86537)
(1.80988e-14 -33.1124 2.38259)
(1.82655e-14 -38.5571 -0.157264)
(1.79123e-14 -39.312 -4.5094)
(1.67859e-14 -41.7668 -6.64987)
(1.76749e-14 -31.2742 -10.8921)
(2.0163e-14 -17.8907 -16.1213)
(2.2315e-14 -6.43339 -20.9802)
(2.3647e-14 -3.85794 -24.2111)
(2.38957e-14 -5.23179 -25.2822)
(2.39665e-14 -2.89834 -24.6667)
(2.15133e-14 5.48217 -24.5195)
(2.68791e-14 -36.2237 31.0232)
(3.35639e-14 -37.7551 31.5903)
(3.37635e-14 -19.6639 26.9611)
(2.5358e-14 22.7365 13.7334)
(1.33362e-14 33.7861 21.3153)
(9.28483e-15 30.3893 36.3678)
(1.22195e-14 19.0362 36.9553)
(1.69132e-14 -13.0834 11.681)
(1.81538e-14 -32.1605 2.13603)
(1.82825e-14 -36.7286 2.06154)
(1.79231e-14 -37.7076 -2.73226)
(1.68013e-14 -39.7994 -4.67972)
(1.75817e-14 -27.7415 -9.21303)
(1.97897e-14 -13.8384 -16.5285)
(2.16381e-14 -3.2132 -24.1759)
(2.30898e-14 -2.19945 -28.7255)
(2.36999e-14 -5.10322 -28.4125)
(2.46095e-14 -3.61228 -26.6656)
(1.94739e-14 2.65962 -23.0557)
(2.77888e-14 -36.4328 32.302)
(3.41299e-14 -37.3146 33.4388)
(3.25771e-14 -16.7765 27.9381)
(1.76768e-14 19.7923 23.0602)
(6.91958e-15 27.77 38.3332)
(6.39573e-15 28.39 50.1883)
(9.41358e-15 24.7603 48.4836)
(1.45273e-14 -3.33647 24.3268)
(1.80181e-14 -29.4281 3.27838)
(1.82414e-14 -35.9881 4.34417)
(1.79217e-14 -36.2303 0.671291)
(1.68105e-14 -38.4947 -1.36478)
(1.75174e-14 -25.518 -5.74483)
(1.94197e-14 -10.852 -15.7922)
(2.08623e-14 -1.10351 -27.1843)
(2.23383e-14 -1.95561 -33.9497)
(2.33232e-14 -5.96683 -33.1262)
(2.47e-14 -4.29545 -29.3799)
(2.02787e-14 2.25799 -25.3649)
(2.8782e-14 -36.7686 33.6961)
(3.46159e-14 -36.8707 35.2805)
(2.98877e-14 -14.7809 31.4209)
(8.93741e-15 16.9305 37.4446)
(1.25881e-16 22.9262 55.3071)
(7.72587e-16 26.6641 63.9062)
(3.34465e-15 29.0195 61.692)
(9.96658e-15 7.8823 41.5759)
(1.73695e-14 -24.2244 9.73652)
(1.8066e-14 -34.4086 5.17003)
(1.80629e-14 -35.8977 2.09596)
(1.68161e-14 -37.9631 3.38983)
(1.75312e-14 -22.3019 -0.817597)
(1.91799e-14 -6.01187 -13.9401)
(2.06293e-14 3.40797 -28.1341)
(2.18174e-14 -0.312205 -37.3222)
(2.29836e-14 -7.43089 -36.8232)
(2.41313e-14 -7.19867 -31.4179)
(2.32821e-14 -0.862261 -29.2146)
(2.98208e-14 -37.1611 34.9785)
(3.48805e-14 -36.9932 36.9116)
(2.60975e-14 -16.221 36.829)
(2.58268e-16 9.92625 53.0855)
(-7.86873e-15 17.7211 70.128)
(-7.50703e-15 25.8425 74.7006)
(-4.76302e-15 33.2202 71.4784)
(4.55378e-15 18.6005 56.5269)
(1.6073e-14 -16.7805 24.8135)
(1.72186e-14 -33.0026 11.2542)
(1.65768e-14 -36.083 13.753)
(1.6799e-14 -36.9354 8.74626)
(1.76548e-14 -18.3639 6.64828)
(1.97415e-14 0.944519 -10.7801)
(2.22053e-14 8.27697 -20.2959)
(2.25487e-14 1.91107 -30.7915)
(2.29971e-14 -7.53517 -36.3135)
(2.41123e-14 -5.46624 -30.7509)
(2.11885e-14 -0.3311 -33.5862)
(3.08547e-14 -37.6253 35.9412)
(3.49504e-14 -38.0392 38.2175)
(2.25337e-14 -20.4534 42.526)
(-7.6902e-15 2.84396 64.9247)
(-1.7704e-14 14.4204 78.4199)
(-1.71369e-14 26.1401 77.424)
(-1.26318e-14 36.4644 73.3058)
(-2.72697e-16 26.9713 65.3692)
(1.43314e-14 -7.52604 42.8263)
(1.60074e-14 -27.8786 26.6227)
(1.5607e-14 -34.8036 28.0523)
(1.66e-14 -36.1769 19.0111)
(1.8437e-14 -14.1255 15.2107)
(2.26803e-14 6.12723 4.02877)
(2.36624e-14 11.3025 2.97779)
(2.02256e-14 5.63618 -3.1897)
(2.24427e-14 -9.56466 -20.4879)
(2.64816e-14 -10.5888 -24.4178)
(1.631e-14 2.20183 -28.7707)
(3.18267e-14 -38.1555 36.4714)
(3.49955e-14 -39.8742 39.0191)
(2.02946e-14 -26.2488 46.1561)
(-1.32962e-14 -4.46311 68.7229)
(-2.66574e-14 12.9707 76.591)
(-2.37768e-14 27.7657 69.6083)
(-1.66783e-14 38.247 66.5121)
(-2.2607e-15 30.6687 68.5837)
(1.37451e-14 -2.32816 59.2808)
(1.58144e-14 -26.2182 43.5945)
(1.51994e-14 -33.5377 40.3835)
(1.68192e-14 -32.2474 31.3388)
(2.05842e-14 -11.9735 26.5488)
(2.46746e-14 5.3428 29.6823)
(2.12415e-14 11.3485 34.8529)
(1.24997e-14 10.5259 32.6607)
(9.84184e-15 3.82967 18.9894)
(2.5643e-14 4.87043 -16.8262)
(9.39791e-16 8.90825 23.3986)
(3.26911e-14 -38.727 36.5471)
(3.51433e-14 -42.0772 39.2646)
(1.96573e-14 -31.9147 47.2465)
(-1.50556e-14 -9.8431 66.2331)
(-2.99934e-14 14.1875 67.2786)
(-2.44934e-14 29.8613 57.8657)
(-1.62765e-14 37.196 58.5326)
(-7.94333e-16 29.6135 70.5227)
(1.51791e-14 2.16074 72.9187)
(1.67094e-14 -21.237 59.5534)
(1.53661e-14 -30.5045 53.8137)
(1.80973e-14 -29.6024 45.6171)
(2.35317e-14 -12.8013 45.1441)
(2.4016e-14 2.3634 58.9254)
(1.64348e-14 9.99786 67.3032)
(4.54102e-15 11.0822 69.9252)
(-9.85242e-15 1.53416 74.6813)
(-1.63819e-14 -16.5834 85.4821)
(-1.89021e-14 -45.7053 109.227)
(3.34182e-14 -39.3203 36.1926)
(3.54187e-14 -44.2738 39.0464)
(2.03731e-14 -36.6928 46.513)
(-1.31654e-14 -13.2178 61.7902)
(-2.77137e-14 16.4501 59.9968)
(-2.21936e-14 31.0847 52.4503)
(-1.46957e-14 33.5629 57.8619)
(2.4101e-15 24.7207 76.3644)
(1.90388e-14 2.71636 85.0918)
(1.95784e-14 -17.6893 74.8668)
(1.80529e-14 -28.0387 68.3017)
(2.21325e-14 -28.9668 65.2544)
(2.50967e-14 -17.2997 73.7944)
(1.79378e-14 -2.90604 89.1667)
(9.43245e-15 7.5299 92.9973)
(5.76186e-15 8.64331 92.7726)
(-3.08925e-15 -0.248976 96.313)
(-1.18931e-14 -10.0836 99.2261)
(-1.51364e-14 -14.6218 83.4558)
(3.39605e-14 -39.9346 35.4358)
(3.58338e-14 -46.2827 38.5067)
(2.20405e-14 -40.6292 44.821)
(-9.36129e-15 -15.7799 57.736)
(-2.47483e-14 18.077 57.3301)
(-1.9999e-14 30.6947 52.809)
(-1.34402e-14 27.9169 62.7981)
(3.98665e-15 18.3524 85.3899)
(2.46046e-14 2.46811 97.8231)
(2.80355e-14 -14.6985 93.259)
(2.28347e-14 -27.0413 88.8134)
(1.85888e-14 -31.3622 90.5543)
(1.32875e-14 -22.3075 100.278)
(-3.25007e-15 -5.3193 105.921)
(-6.18916e-15 8.46535 101.148)
(4.79413e-15 9.59687 96.8649)
(2.32207e-15 -0.420257 91.4625)
(-4.34526e-16 -9.63946 77.5682)
(1.41029e-15 -10.6361 38.7428)
(3.42223e-14 -40.6079 34.3272)
(3.64434e-14 -48.0869 37.7633)
(2.4169e-14 -43.9882 42.7123)
(-5.49445e-15 -18.5766 54.1433)
(-2.2726e-14 18.5182 55.8994)
(-1.77068e-14 28.9574 53.1528)
(-8.91316e-15 20.6821 67.347)
(-3.11347e-16 10.5424 92.1955)
(1.90568e-14 -0.474495 106.198)
(2.63082e-14 -14.125 108.383)
(2.26652e-14 -27.248 107.677)
(1.36736e-14 -33.2507 108.611)
(1.582e-15 -23.4092 109.471)
(-6.79506e-15 -3.18985 102.567)
(-3.10506e-15 11.4558 95.6822)
(1.50966e-15 12.7773 98.1472)
(4.20747e-15 7.63399 98.5881)
(5.03628e-15 7.87603 83.7999)
(3.61132e-15 14.4624 45.7718)
(3.40492e-14 -41.3576 32.9551)
(3.72012e-14 -49.6798 36.8941)
(2.64865e-14 -46.7867 40.5329)
(-1.24646e-15 -21.4697 50.6597)
(-2.05404e-14 18.3966 53.6131)
(-1.95939e-14 26.2935 50.7336)
(-1.75404e-14 12.3234 68.2082)
(-7.33937e-15 2.78425 93.1975)
(4.92102e-15 -4.11096 105.805)
(1.25989e-14 -15.2958 112.097)
(1.21985e-14 -27.3384 113.718)
(3.80323e-15 -31.9076 109.93)
(-6.55608e-15 -19.7372 97.7667)
(-8.7072e-15 0.189848 78.5492)
(-2.75915e-15 9.80482 73.0432)
(4.38636e-15 7.96895 88.3716)
(1.12302e-14 4.88427 108.861)
(1.69559e-14 8.87415 113.954)
(2.05571e-14 20.7691 99.0057)
(3.33183e-14 -42.24 31.571)
(3.79485e-14 -51.1867 35.965)
(2.8757e-14 -49.1157 38.4973)
(2.89544e-15 -24.2196 47.0924)
(-1.80296e-14 18.2382 49.921)
(-1.87162e-14 23.4995 45.1134)
(-2.06346e-14 3.72735 63.6136)
(-1.75752e-14 -4.33791 85.8833)
(-1.06329e-14 -8.06358 97.4347)
(-4.53382e-15 -17.1591 105.272)
(-3.00317e-15 -26.4938 106.697)
(-7.11653e-15 -26.9188 98.0304)
(-1.18225e-14 -11.4315 76.5704)
(-1.0253e-14 5.79399 52.9186)
(-4.01285e-15 7.66099 44.3854)
(6.09568e-15 -1.04291 52.0352)
(1.53962e-14 -1.9076 69.1248)
(1.61359e-14 12.3036 75.4968)
(1.1033e-14 45.8634 91.9876)
(3.21184e-14 -43.1433 30.5179)
(3.84048e-14 -52.4814 35.0349)
(3.07998e-14 -50.799 36.7731)
(6.75554e-15 -26.3294 43.483)
(-1.56525e-14 18.6684 44.8017)
(-1.78827e-14 21.5228 37.3443)
(-2.2309e-14 -3.97104 54.2727)
(-2.3642e-14 -10.7749 72.4758)
(-2.1188e-14 -11.9815 83.6852)
(-1.77245e-14 -18.853 91.151)
(-1.57009e-14 -24.3772 91.0428)
(-1.56415e-14 -19.5272 78.399)
(-1.44476e-14 -1.33056 52.5036)
(-1.11187e-14 12.5232 32.4375)
(-6.61042e-15 10.9827 24.1971)
(-4.72436e-16 -0.618469 15.9515)
(5.01149e-15 -3.56704 8.08487)
(1.59182e-15 -0.127801 -8.94332)
(-1.12066e-14 -6.84904 -6.15893)
(3.09193e-14 -44.1126 30.4798)
(3.82735e-14 -53.8167 34.4178)
(3.24552e-14 -52.1811 35.5303)
(1.02629e-14 -27.7005 39.7513)
(-1.38664e-14 19.9005 38.2165)
(-1.74262e-14 20.6748 28.9633)
(-2.12454e-14 -10.2589 43.243)
(-2.49789e-14 -16.4125 57.7365)
(-2.57765e-14 -15.5464 68.3153)
(-2.45826e-14 -19.9965 74.8947)
(-2.25605e-14 -21.5466 73.1936)
(-1.93704e-14 -11.6359 56.9741)
(-1.41752e-14 7.38111 27.4978)
(-1.06638e-14 17.0895 15.0633)
(-7.21441e-15 14.2381 11.2474)
(-3.31104e-15 4.78411 4.06716)
(-1.1541e-16 3.77008 -5.09098)
(3.11917e-16 10.6213 -7.58894)
(7.11376e-16 7.04346 -23.6048)
(3.04924e-14 -44.6804 31.7911)
(3.75106e-14 -54.4522 34.4208)
(3.35913e-14 -52.433 35.0785)
(1.3359e-14 -27.3779 36.2158)
(-1.26402e-14 21.9857 30.7)
(-1.72226e-14 20.6546 21.6759)
(-1.85558e-14 -15.2206 33.6167)
(-2.32258e-14 -21.1245 44.2142)
(-2.60927e-14 -18.8328 53.8022)
(-2.65991e-14 -20.7292 59.635)
(-2.44921e-14 -17.317 55.569)
(-1.83741e-14 -1.83269 33.0557)
(-1.1235e-14 15.1999 4.76847)
(-9.14322e-15 18.5135 4.0098)
(-6.73464e-15 15.4651 3.00854)
(-3.6929e-15 7.12354 -0.248141)
(-1.08463e-15 3.7415 -6.78889)
(-2.87864e-17 11.1578 -6.88768)
(1.57272e-15 6.73826 -19.2998)
(3.17075e-14 -45.3021 35.2466)
(3.69904e-14 -55.4444 35.4467)
(3.46051e-14 -52.9433 35.3637)
(1.60464e-14 -26.1584 32.501)
(-1.25176e-14 24.509 22.7188)
(-1.64492e-14 20.8584 16.9033)
(-1.58448e-14 -19.4422 26.0516)
(-2.00775e-14 -24.7804 32.9681)
(-2.39665e-14 -21.612 40.8518)
(-2.56422e-14 -20.571 45.5054)
(-2.28217e-14 -10.7451 37.211)
(-1.41801e-14 9.40112 9.09553)
(-1.02007e-14 18.8493 -0.445324)
(-7.81505e-15 18.1969 -0.818122)
(-6.06518e-15 15.8774 -1.74177)
(-3.60357e-15 8.81071 -2.92851)
(-1.33127e-15 5.25175 -8.79795)
(6.68612e-17 13.8541 -7.57798)
(2.17068e-16 10.4333 -12.6094)
(3.41514e-14 -44.52 39.8022)
(3.78466e-14 -54.0765 36.8429)
(3.58814e-14 -50.4445 36.5997)
(1.7496e-14 -21.5755 29.7381)
(-1.39823e-14 26.7131 15.187)
(-1.53278e-14 20.7487 13.7153)
(-1.40598e-14 -22.0683 19.2694)
(-1.68049e-14 -27.2649 24.0801)
(-2.06649e-14 -23.7919 29.7634)
(-2.31156e-14 -19.4748 33.0964)
(-2.01719e-14 -3.48579 22.0944)
(-1.29787e-14 13.3449 0.872884)
(-1.0402e-14 19.546 -0.384398)
(-7.55371e-15 18.7858 -2.92538)
(-5.73072e-15 16.3658 -4.75589)
(-3.47737e-15 10.1942 -5.74625)
(-1.38008e-15 5.7351 -10.7148)
(9.96721e-17 12.8718 -7.07188)
(1.24416e-16 9.87062 -9.39174)
(3.77613e-14 -44.5653 49.0172)
(4.21342e-14 -55.1664 41.8614)
(3.81257e-14 -51.3968 40.0504)
(1.66532e-14 -18.6196 26.2731)
(-1.44622e-14 29.3707 10.1648)
(-1.49226e-14 20.08 10.1675)
(-1.33476e-14 -24.3767 12.0012)
(-1.41945e-14 -29.0496 17.0743)
(-1.71718e-14 -24.914 21.4304)
(-2.01851e-14 -17.623 23.8254)
(-1.75827e-14 3.7637 10.9481)
(-1.28303e-14 17.1787 -0.717637)
(-1.02343e-14 20.4929 -2.12566)
(-7.52871e-15 19.7007 -4.74981)
(-5.70392e-15 16.8963 -6.57264)
(-3.36201e-15 11.1547 -7.40778)
(-1.1402e-15 5.41009 -9.14499)
(1.7487e-16 12.708 -5.5645)
(1.09545e-16 10.2654 -7.62422)
(2.507e-14 -40.8423 68.3286)
(3.24552e-14 -48.8042 56.3034)
(2.66114e-14 -41.8013 46.3368)
(6.43451e-15 -6.21969 22.9367)
(-1.31144e-14 32.6488 9.52449)
(-1.50516e-14 23.0951 7.18921)
(-1.35866e-14 -25.4629 5.81014)
(-1.28649e-14 -31.0177 8.35829)
(-1.33452e-14 -26.6099 11.3742)
(-1.55514e-14 -15.8933 13.3489)
(-1.52768e-14 7.0346 4.71566)
(-1.28812e-14 18.8437 -0.629259)
(-1.01838e-14 21.8218 -3.51975)
(-7.42016e-15 20.8127 -5.81916)
(-5.61429e-15 17.5823 -7.33225)
(-3.14309e-15 11.5822 -7.07133)
(-8.04335e-16 4.73484 -7.54313)
(2.33316e-16 12.613 -4.76206)
(5.95976e-17 9.06573 -7.45261)
(2.38333e-16 71.7642 115.538)
(7.01611e-15 155.694 251.475)
(7.22181e-15 185.042 291.03)
(6.20863e-15 184.997 282.721)
(4.9357e-15 175.407 260.104)
(5.06144e-15 165.361 235.676)
(4.46467e-15 154.918 213.429)
(3.02569e-15 145.681 193.65)
(1.27718e-15 136.651 175.115)
(-6.81269e-16 127.537 157.573)
(-2.63518e-15 118.296 140.828)
(-5.50688e-15 108.871 124.89)
(-9.30754e-15 99.2243 109.822)
(-1.39551e-14 89.3679 95.5671)
(-1.99544e-14 79.0519 82.0251)
(-2.6608e-14 68.3245 68.8327)
(-3.40448e-14 56.2845 55.6902)
(-4.30271e-14 43.7911 41.5943)
(-5.57966e-14 26.1027 25.5165)
(-8.01999e-14 9.98219 -0.37835)
(-5.45589e-16 115.347 190.75)
(1.14495e-14 182.981 291.242)
(1.13622e-14 184.866 295.734)
(1.04637e-14 174.525 276.225)
(1.11482e-14 162.542 256.997)
(1.43134e-14 153.575 239.27)
(1.50913e-14 144.503 221.877)
(1.59491e-14 135.148 203.142)
(1.67783e-14 124.941 183.572)
(1.6723e-14 114.249 163.404)
(1.81098e-14 103.004 143.01)
(1.90895e-14 91.2743 122.495)
(2.0544e-14 78.8888 101.977)
(2.40903e-14 65.9223 81.4651)
(2.32683e-14 52.0967 61.1216)
(2.35157e-14 37.8171 40.3865)
(1.76652e-14 21.6354 19.1948)
(9.84319e-15 6.45802 -4.36029)
(-2.7396e-15 -18.5734 -29.5725)
(-5.25224e-14 -23.024 -62.2451)
(-4.83485e-17 149.175 261.168)
(2.83797e-15 183.632 306.67)
(2.66347e-15 166.525 290.367)
(3.25448e-15 157.386 273.445)
(4.19941e-15 146.392 260.373)
(7.45144e-15 137.219 245.287)
(4.66827e-15 124.952 227.429)
(6.31423e-15 112.147 207.104)
(8.70533e-15 98.3334 185.966)
(1.14713e-14 84.2489 163.954)
(1.60467e-14 69.5074 141.222)
(2.42035e-14 54.1926 117.507)
(3.60188e-14 38.0939 92.8073)
(5.21391e-14 21.6977 67.6875)
(6.36412e-14 5.75025 43.2949)
(4.84789e-14 -9.15595 20.2345)
(5.3476e-15 -22.547 -2.27303)
(-4.07307e-14 -35.0891 -27.7282)
(-7.45123e-14 -45.6244 -50.4321)
(-6.41844e-14 -27.3153 -41.6857)
(-1.71746e-17 141.242 252.408)
(-9.59317e-16 150.747 266.747)
(-9.44938e-16 139.893 259.43)
(-1.10807e-15 131.227 247.742)
(-7.54344e-16 118.877 234.168)
(-4.82493e-17 106.715 219.151)
(1.42267e-15 92.4933 201.637)
(3.06225e-15 77.5884 182.035)
(4.90852e-15 61.8839 161.279)
(7.99999e-15 45.7235 139.47)
(1.39897e-14 29.0425 116.882)
(2.322e-14 12.1284 93.6513)
(3.60703e-14 -4.60088 70.2123)
(5.35853e-14 -19.7747 48.0385)
(6.44039e-14 -30.8649 30.133)
(5.01396e-14 -34.6807 20.2249)
(1.59441e-14 -27.4373 23.0953)
(-1.12681e-14 -5.37973 42.8955)
(-1.72341e-14 25.9634 72.4911)
(-5.80579e-15 34.6297 75.8886)
(2.08077e-17 119.209 210.803)
(2.0814e-16 134.981 242.933)
(2.08884e-16 128.231 233.83)
(1.14652e-16 116.74 218.734)
(-4.89857e-16 103.87 201.023)
(-1.26074e-15 91.2831 185.133)
(-1.39504e-15 78.7092 168.915)
(-2.04591e-15 65.3531 150.777)
(-2.52495e-15 51.3756 130.807)
(-2.07112e-15 37.1876 109.539)
(-5.497e-16 23.4739 88.1294)
(-4.08082e-16 11.4029 68.4072)
(-6.04564e-15 2.76362 53.3037)
(-1.79227e-14 0.472832 47.4528)
(-2.8538e-14 8.32005 56.7494)
(-2.91252e-14 28.2551 84.0954)
(-1.90419e-14 56.699 123.619)
(-5.40149e-15 83.6669 160.075)
(3.60225e-15 97.8754 171.636)
(3.80101e-15 70.4642 130.595)
(-3.88146e-18 112.13 192.553)
(-2.77444e-17 136.582 238.624)
(-2.62562e-17 132.798 227.993)
(-2.20628e-18 122.701 211.045)
(1.54007e-16 111.607 190.527)
(3.79878e-16 101.278 172.426)
(3.41057e-16 93.1384 158.084)
(3.86851e-16 85.821 144.445)
(3.51043e-16 78.7757 130.784)
(2.41884e-16 72.3269 116.913)
(2.13174e-16 66.545 103.216)
(4.00491e-16 61.9002 90.3641)
(6.36597e-16 59.2711 80.1642)
(4.99729e-16 59.7944 75.5369)
(1.18514e-16 64.8122 79.4518)
(6.33192e-16 73.3547 92.9567)
(2.61563e-15 83.5597 112.106)
(4.63164e-15 88.8766 129.724)
(4.05408e-15 85.3714 131.671)
(6.63033e-16 61.2681 105.083)
(2.58849e-19 114.203 195.836)
(9.83517e-19 146.126 251.683)
(-9.63844e-20 142.658 241.391)
(-4.29495e-18 132.955 222.917)
(-2.94242e-17 122.39 203.019)
(-7.21747e-17 113.568 185.268)
(-6.3501e-17 106.671 171.616)
(-5.41068e-17 101.191 159.518)
(-2.25037e-17 95.9765 148.243)
(2.89507e-17 91.2283 137.258)
(4.90317e-17 86.7013 126.477)
(-4.89201e-18 82.2828 115.564)
(-8.64383e-17 77.8198 104.361)
(-7.32974e-17 73.3768 93.4591)
(1.48781e-16 69.4622 84.4691)
(6.08614e-16 66.7206 79.6628)
(1.16169e-15 65.0046 79.9771)
(1.35034e-15 62.9874 82.5852)
(6.31104e-16 55.4233 80.2105)
(-4.11899e-16 34.3245 50.9553)
(1.06051e-19 117.47 200.938)
(8.92304e-19 155.402 264.975)
(1.4015e-18 148.82 251.217)
(2.00696e-18 137.445 229.045)
(4.63291e-18 125.66 208.809)
(9.59169e-18 117.489 191.851)
(6.60286e-18 110.282 178.645)
(2.01369e-18 104.211 165.85)
(-7.14652e-18 97.8843 153.728)
(-2.04853e-17 91.9078 141.927)
(-2.74394e-17 86.0582 130.763)
(-1.73953e-17 80.4734 120.173)
(1.55866e-18 75.0024 110.031)
(2.53454e-18 69.5938 99.9673)
(-4.18884e-17 63.8348 89.7755)
(-1.53824e-16 57.9294 79.3194)
(-3.6062e-16 50.9357 69.2304)
(-6.65789e-16 43.6731 58.4568)
(-8.75368e-16 30.726 44.5591)
(-8.13284e-16 10.0695 7.00078)
(-6.36786e-20 125.602 215.204)
(-4.55294e-19 165.403 278.189)
(-6.64321e-19 152.999 259.025)
(-7.51461e-19 141.131 233.305)
(-7.70654e-19 128.948 214.651)
(-4.99813e-19 122.519 198.664)
(8.29699e-19 115.171 186.032)
(2.43108e-18 109.328 172.7)
(4.85761e-18 102.812 160.025)
(7.79985e-18 96.6324 147.183)
(9.17595e-18 90.1938 134.522)
(7.22381e-18 83.5984 121.901)
(3.76213e-18 76.6619 109.441)
(4.04744e-18 69.4856 97.0799)
(1.31081e-17 61.7147 84.8286)
(3.49645e-17 53.6347 72.0637)
(7.76816e-17 43.7842 58.4765)
(1.59457e-16 33.3162 42.0419)
(3.04949e-16 15.1766 19.6372)
(2.57682e-16 -1.24857 -15.9397)
(2.43935e-20 138.798 240.356)
(1.63393e-19 174.729 289.038)
(2.38021e-19 154.568 265.064)
(2.61122e-19 145.805 238.846)
(1.81065e-19 133.96 224.426)
(-2.01215e-19 130.027 209.268)
(-7.32965e-19 122.506 197.427)
(-1.23177e-18 117.855 184.178)
(-1.8005e-18 111.802 171.71)
(-2.36571e-18 106.055 158.033)
(-2.56458e-18 99.1644 143.595)
(-2.17732e-18 91.4513 128.103)
(-1.60345e-18 82.6889 111.988)
(-1.72455e-18 73.1674 95.3648)
(-3.23696e-18 62.5909 78.5034)
(-6.50475e-18 51.3574 60.9221)
(-1.27862e-17 37.7901 42.5405)
(-2.32623e-17 23.799 21.0251)
(-6.10799e-17 0.730581 -4.71891)
(2.47236e-16 -14.1093 -41.8164)
(-9.66069e-21 152.972 271.933)
(-5.27845e-20 176.369 289.764)
(-7.57955e-20 150.856 267.274)
(-8.29449e-20 148.638 246.34)
(-5.40094e-20 135.977 236.23)
(9.15725e-20 134.175 221.959)
(2.68165e-19 126.062 212.567)
(4.12185e-19 123.256 200.906)
(5.38072e-19 116.948 189.796)
(6.35232e-19 110.833 174.907)
(6.46612e-19 101.399 157.437)
(5.56562e-19 90.4666 137.209)
(4.4974e-19 77.7319 115.937)
(4.68362e-19 64.1637 93.8943)
(7.25981e-19 49.2434 71.1657)
(1.30362e-18 33.319 47.0654)
(2.07518e-18 14.9418 22.0243)
(3.09353e-18 -2.41853 -7.58628)
(-4.14789e-17 -28.8967 -34.5848)
(1.26774e-16 -30.2788 -72.9153)
(3.41314e-21 156.294 285.654)
(1.67203e-20 164.252 273.192)
(2.3104e-20 141.277 260.601)
(2.50495e-20 141.304 243.843)
(1.27967e-20 126.82 235.358)
(-4.12348e-20 124.578 222.524)
(-9.55189e-20 115.051 215.662)
(-1.22663e-19 111.699 205.749)
(-1.25999e-19 102.524 195.126)
(-1.17694e-19 92.8576 177.341)
(-9.9414e-20 77.656 154.759)
(-6.45579e-20 61.3822 128.238)
(-1.8626e-20 43.7149 101.62)
(6.10749e-20 26.324 74.8811)
(3.97277e-19 8.19155 47.4778)
(1.2909e-18 -9.50617 20.2629)
(7.33217e-19 -24.6685 -4.41485)
(-6.0116e-18 -36.5225 -27.6715)
(-1.38047e-17 -41.0662 -41.7973)
(4.48853e-18 -20.2834 -26.6812)
(-1.22587e-21 146.214 269.97)
(-5.09197e-21 152.469 255.541)
(-6.68464e-21 130.939 245.062)
(-6.94117e-21 129.559 226.997)
(-1.43448e-21 113.828 218.361)
(1.48999e-20 109.926 204.896)
(2.99956e-20 98.6632 197.465)
(4.42476e-20 92.5599 187.02)
(5.69798e-20 80.9693 175.504)
(5.47165e-20 68.3189 157.104)
(4.16712e-20 51.3365 133.814)
(6.45712e-20 33.8711 107.237)
(1.72791e-19 16.4096 81.0422)
(3.14282e-19 0.669483 56.4672)
(8.0177e-20 -12.4707 35.0238)
(-1.28123e-18 -19.4985 20.7217)
(-3.78191e-18 -14.9709 21.9847)
(-5.90318e-18 5.3866 44.322)
(-5.54672e-18 34.9445 77.5316)
(-1.90457e-18 39.1378 82.3475)
(3.76645e-22 138.49 257.007)
(1.36783e-21 152.101 247.887)
(1.73825e-21 126.122 234.415)
(1.67343e-21 128.297 212.203)
(-5.74845e-22 109.9 203.531)
(-5.83282e-21 108.101 185.676)
(-8.85797e-21 94.5993 175.732)
(-6.7689e-21 89.136 161.624)
(-1.58766e-21 78.0189 149.889)
(-2.09433e-21 68.8755 134.364)
(-5.12311e-21 56.9733 116.92)
(2.84692e-20 45.755 96.786)
(1.2624e-19 35.171 76.9826)
(2.0579e-19 28.2943 61.3311)
(1.2781e-19 28.1034 56.1044)
(-4.88564e-20 36.698 64.8664)
(-1.0779e-20 50.4846 82.2851)
(4.16178e-19 61.398 99.5085)
(1.0962e-18 67.9581 106.017)
(1.17156e-18 50.0473 88.9642)
(-9.41366e-23 139.156 260.469)
(-3.1471e-22 158.563 251.927)
(-3.68016e-22 129.091 238.679)
(-3.49038e-22 134.959 214.44)
(7.72449e-23 115.893 206.282)
(1.07904e-21 116.271 187.3)
(1.36836e-21 103.56 176.328)
(9.16471e-23 99.4249 160.903)
(-2.53669e-21 90.6789 148.817)
(-4.6137e-21 85.1545 136.158)
(-5.76815e-21 79.1326 125.153)
(-1.08375e-20 74.5787 114.515)
(-2.17921e-20 70.5098 104.195)
(-2.55825e-20 66.977 93.7281)
(-1.31817e-21 63.6071 83.3698)
(5.76726e-20 60.1248 74.2597)
(1.30392e-19 56.2542 67.7113)
(1.69106e-19 51.7078 63.6111)
(1.18097e-19 42.0489 56.1517)
(-1.46461e-19 23.5114 31.708)
(2.01485e-23 142.718 270.871)
(6.7979e-23 163.232 256.085)
(8.44302e-23 131.98 245.983)
(7.30718e-23 140.063 222.107)
(-8.31737e-23 120.875 214.142)
(-4.59527e-22 121.541 196.227)
(-8.00699e-22 110.348 185.396)
(-9.4241e-22 106.346 171.24)
(-9.98119e-22 99.1686 159.221)
(-1.26412e-21 93.7106 146.625)
(-1.37984e-21 87.9117 134.72)
(-1.64669e-22 82.5661 123.181)
(2.0846e-21 77.3197 112.116)
(1.52009e-21 72.0934 101.027)
(-6.77727e-21 66.0241 89.2692)
(-2.4211e-20 58.7937 75.7126)
(-4.75324e-20 48.6027 60.1887)
(-7.32167e-20 37.8132 43.3374)
(-1.05585e-19 18.1397 20.5029)
(-1.60059e-19 0.326055 -16.4101)
(-4.09256e-24 142.684 278.141)
(-1.01631e-23 163.313 253.815)
(-5.2901e-24 130.298 249.333)
(-1.52762e-23 140.706 226.022)
(-6.57406e-23 120.591 218.921)
(-1.78415e-22 121.68 201.939)
(-3.77988e-22 110.707 191.856)
(-5.45651e-22 107.127 178.675)
(-3.66741e-22 100.354 167.69)
(4.09104e-22 95.6248 156.115)
(1.45829e-21 90.4585 145.193)
(1.82973e-21 85.8787 134.2)
(7.25432e-22 81.0481 122.983)
(-1.8734e-21 75.546 110.222)
(-5.45181e-21 67.603 94.4437)
(-9.26585e-21 56.4602 73.4945)
(-1.17815e-20 39.5887 47.4115)
(-8.2877e-21 23.5656 22.9127)
(-7.3232e-21 -3.81266 -4.6477)
(-1.35097e-19 -15.6841 -44.1674)
(5.50712e-25 134.254 274.851)
(3.1212e-24 158.802 248.436)
(6.20031e-24 122.743 246.797)
(-7.18248e-25 130.693 226.382)
(-4.10606e-23 112.407 219.109)
(-1.2545e-22 110.205 205.058)
(-2.19085e-22 100.375 195.403)
(-2.31419e-22 95.3573 184.103)
(7.37502e-25 88.7246 174.21)
(6.09387e-22 83.7057 164.223)
(1.41103e-21 78.7047 154.947)
(1.56056e-21 74.3601 145.705)
(-4.203e-22 69.5657 135.54)
(-5.95152e-21 63.0043 121.772)
(-1.54875e-20 52.2223 100.804)
(-2.8107e-20 35.0574 68.3365)
(-3.73874e-20 6.29374 18.9754)
(-1.66159e-20 -24.1791 -44.4702)
(-1.99836e-20 -31.7779 -41.9368)
(-1.03211e-19 -25.8282 -56.0332)
(-3.42222e-25 109.339 255.449)
(-5.57668e-25 148.444 226.855)
(2.29215e-24 108.222 229.827)
(9.7831e-24 113.844 215.018)
(1.81239e-23 97.791 209.533)
(1.6927e-23 92.7607 200.22)
(-1.36074e-24 83.68 192.977)
(-1.34646e-23 77.2077 185.118)
(6.19938e-23 70.404 177.755)
(3.24049e-22 64.5064 170.432)
(7.2129e-22 58.9661 163.353)
(8.24365e-22 53.8406 156.213)
(-2.0304e-22 48.5547 148.171)
(-3.2514e-21 42.2095 137.351)
(-8.73082e-21 33.67 121.121)
(-1.61151e-20 22.1606 97.3328)
(-2.35622e-20 8.56825 65.7324)
(-2.83929e-20 -3.92074 28.9731)
(-3.05437e-20 -12.6494 -2.94863)
(-3.13262e-20 -12.7685 -19.5614)
(-1.74986e-25 35.914 158.027)
(-5.58901e-25 78.3752 130.705)
(1.06835e-24 52.6903 138.861)
(9.45462e-24 52.5203 134.848)
(2.72385e-23 44.006 134.892)
(4.68488e-23 39.5722 133.321)
(4.68248e-23 34.4915 132.133)
(7.30637e-24 30.4892 130.601)
(-5.43242e-23 26.8775 128.96)
(-4.92867e-23 23.8942 127.122)
(1.76387e-22 21.4659 125.172)
(7.63961e-22 19.7045 123.245)
(1.70593e-21 18.7191 121.573)
(2.75567e-21 18.6545 120.299)
(3.52364e-21 19.7188 119.135)
(3.72734e-21 21.7573 117.406)
(3.33056e-21 24.2703 114.205)
(2.47191e-21 29.5045 106.573)
(1.44171e-21 33.314 91.9772)
(5.46157e-22 8.07224 67.3777)
(-2.53095e-26 -35.9093 158.011)
(-1.20531e-25 -78.3736 130.691)
(-1.4606e-25 -52.6909 138.846)
(4.92802e-25 -52.5239 134.833)
(2.68157e-24 -44.0113 134.875)
(7.40927e-24 -39.5797 133.303)
(1.56146e-23 -34.5008 132.113)
(2.65983e-23 -30.5001 130.578)
(3.37957e-23 -26.8897 128.934)
(1.96976e-23 -23.9075 127.093)
(-4.48777e-23 -21.4812 125.141)
(-1.92155e-22 -19.7241 123.217)
(-4.40902e-22 -18.7463 121.552)
(-7.76335e-22 -18.6904 120.282)
(-1.12307e-21 -19.7608 119.112)
(-1.33141e-21 -21.7998 117.362)
(-1.26193e-21 -24.3084 114.136)
(-9.61682e-22 -29.5354 106.495)
(-6.43606e-22 -33.3321 91.9147)
(-3.21728e-22 -8.06373 67.3605)
(6.87858e-26 -109.333 255.433)
(2.59082e-25 -148.427 226.84)
(3.53757e-26 -108.206 229.811)
(-2.57646e-24 -113.822 215.004)
(-9.45075e-24 -97.7648 209.519)
(-1.67136e-23 -92.729 200.207)
(-1.52001e-23 -83.6427 192.965)
(-7.53855e-24 -77.1638 185.108)
(-2.72911e-23 -70.3529 177.748)
(-1.26052e-22 -64.4478 170.428)
(-3.03433e-22 -58.898 163.351)
(-4.12421e-22 -53.7566 156.205)
(-1.15302e-22 -48.4425 148.134)
(1.03161e-21 -42.0609 137.262)
(3.27393e-21 -33.4989 120.987)
(6.21146e-21 -22.0136 97.2223)
(8.98776e-21 -8.53762 65.7412)
(1.17295e-20 3.72815 29.2278)
(1.59997e-20 12.1716 -2.25243)
(1.74709e-20 12.4478 -18.9664)
(-1.79427e-25 -134.252 274.831)
(2.0475e-25 -158.779 248.443)
(1.18315e-24 -122.738 246.796)
(-3.07261e-24 -130.662 226.398)
(-2.19292e-23 -112.387 219.13)
(-5.4975e-23 -110.167 205.095)
(-8.45525e-23 -100.337 195.448)
(-9.95637e-23 -95.3062 184.16)
(-1.3064e-22 -88.6689 174.278)
(-2.39752e-22 -83.6417 164.308)
(-4.13744e-22 -78.6362 155.05)
(-4.4545e-22 -74.2773 145.818)
(8.03297e-23 -69.4445 135.622)
(1.70894e-21 -62.8006 121.756)
(4.89963e-21 -51.9113 100.619)
(9.31336e-21 -34.5168 67.8483)
(1.12567e-20 -5.46705 17.7052)
(3.56993e-21 24.4546 -44.3708)
(2.04288e-20 31.8922 -42.1075)
(4.66739e-20 25.8533 -55.63)
(1.15858e-24 -142.794 278.383)
(2.99208e-24 -163.379 253.961)
(5.65206e-24 -130.371 249.559)
(4.00871e-24 -140.805 226.267)
(-1.56943e-23 -120.646 219.192)
(-6.23987e-23 -121.768 202.216)
(-1.25864e-22 -110.757 192.159)
(-1.9018e-22 -107.191 178.981)
(-2.48705e-22 -100.392 168.011)