/*--------------------------------*- C++ -*----------------------------------*\
| =========                 |                                                 |
| \\      /  F ield         | OpenFOAM: The Open Source CFD Toolbox           |
|  \\    /   O peration     | Version:  4.1                                   |
|   \\  /    A nd           | Web:      www.OpenFOAM.org                      |
|    \\/     M anipulation  |                                                 |
\*---------------------------------------------------------------------------*/
FoamFile
{
    version     2.0;
    format      ascii;
    class       volScalarField;
    location    "23";
    object      p;
}
// * * * * * * * * * * * * * * * * * * * * * * * * * * * * * * * * * * * * * //

dimensions      [0 2 -2 0 0 0 0];

internalField   nonuniform List<scalar> 
1680
(
1733.83
257.508
322.252
-93.4949
-160.711
-98.1204
-135.473
-153.654
-109.923
-111.909
-110.47
-91.5203
-91.5119
-64.4685
-73.02
-77.3892
-69.1125
-75.5588
-59.0478
-69.3899
-59.5586
-82.0597
-49.3536
-50.9871
-50.5924
-49.9701
-49.608
-49.3023
-48.201
-48.4913
-46.277
-74.1487
-50.0342
-50.089
-49.5769
-49.8125
-49.1493
-50.1065
-46.0935
-51.4491
-100.836
-73.8169
-70.9642
-49.4138
-54.152
-54.1533
-50.5427
-41.3996
-43.7408
-43.2485
-41.3418
-41.5623
-41.5261
-41.47
-41.5391
-41.4252
-41.3359
-41.3292
-41.306
-41.2598
-200.352
-178.554
-86.4021
43.3517
-25.4918
4.99222
-25.4422
-2.93604
1.55027
-3.7515
-1.44954
-61.6617
-112.871
-123.193
-125.407
-107.216
-83.2405
-49.0497
-34.8644
-314.929
-267.159
-138.427
44.9378
-25.615
8.82481
-28.5249
-6.12025
-4.40539
-10.2348
-8.89167
-67.5317
-120.854
-129.989
-130.053
-105.721
-77.3423
-49.9603
-41.4777
-465.124
-381.915
-207.59
49.3143
-27.3757
12.7684
-30.706
-9.3146
-10.7515
-16.3833
-16.0851
-74.0685
-129.075
-136.973
-134.674
-104.694
-72.5629
-54.1534
-40.7639
-655.819
-523.306
-294.385
55.7783
-31.6539
16.6298
-32.3289
-12.3762
-16.8288
-21.7522
-22.5112
-80.7358
-137.085
-143.948
-139.274
-104.053
-68.1525
-58.2306
-36.7362
-889.987
-688.036
-396.77
61.4369
-39.4313
18.6819
-32.9216
-14.3777
-21.8366
-25.4554
-28.1762
-86.6894
-144.344
-150.535
-143.712
-103.801
-65.0072
-60.6445
-40.4847
-1165.64
-869.574
-510.532
67.5615
-52.4228
17.1236
-33.4512
-14.9655
-25.0296
-27.2689
-32.9369
-91.2393
-150.489
-156.349
-147.815
-103.633
-63.2698
-60.9634
-57.4583
-1479.17
-1059.43
-631.06
76.7727
-68.8874
11.1671
-34.7535
-15.1127
-25.8078
-28.018
-36.5216
-94.0549
-155.165
-161.033
-151.224
-103.36
-62.0041
-61.5987
-64.7851
-1824.03
-1250.06
-754.032
92.2075
-86.3356
1.27603
-36.7005
-15.6268
-25.3059
-28.3657
-38.8387
-94.9457
-158.079
-164.505
-153.694
-102.846
-61.0572
-61.7834
-68.6121
-2200.93
-1435.68
-877.711
117.639
-103.082
-11.6743
-39.891
-16.519
-25.2657
-28.5161
-40.0943
-93.9792
-158.768
-166.574
-155.963
-101.909
-60.5875
-61.7533
-72.8524
-2600.67
-1617.85
-1007.53
156.824
-110.599
-23.6678
-45.0577
-17.6507
-24.8406
-28.2876
-40.2935
-91.2103
-156.378
-166.972
-157.625
-100.35
-60.0968
-62.1745
-77.9555
-3058.98
-1800.88
-1155.13
208.374
-91.5753
-24.9984
-48.7523
-18.0379
-24.1419
-28.0706
-39.9603
-87.3315
-152.082
-165.266
-156.292
-97.7441
-59.3436
-64.1676
-85.5307
-3527.17
-1998.93
-1316.78
265.44
-76.7201
-21.6729
-47.7714
-17.897
-22.482
-27.1012
-38.3374
-81.7734
-144.935
-160.202
-152.107
-93.6072
-59.1858
-70.0517
-98.4341
-4202.39
-2225.98
-1491.22
317.61
-66.2015
-20.5403
-47.6554
-19.7945
-21.8324
-27.1909
-37.5676
-76.6965
-136.222
-153.825
-145.76
-87.535
-61.527
-83.7364
-112.703
-4727.5
-2493.95
-1754.36
354.702
-61.5112
-20.913
-48.2808
-20.5754
-19.0415
-24.2917
-33.3397
-68.2334
-124.342
-144.89
-136.561
-78.8503
-67.7127
-111.035
-133.558
-6189.42
-2899.71
-2239.09
355.189
-55.7749
-21.0176
-48.9172
-23.0663
-21.0285
-27.5775
-35.8101
-66.0646
-116.534
-138.454
-126.215
-66.8304
-76.8968
-153.723
-148.844
-6211.4
-3217.85
-2495.42
302.483
-48.3609
-20.2455
-47.234
-19.6091
-9.92756
-16.0733
-22.6557
-49.9229
-99.4015
-125.371
-110.002
-50.5657
-94.344
-213.851
-198.008
-9730.01
-3316.14
-2424.81
210.897
-35.3835
-20.1096
-46.8829
-30.964
-28.0095
-37.515
-43.7874
-64.302
-104.11
-121.803
-96.5686
-24.8633
-111.817
-245.674
-129.679
-2215.51
-795.378
-912.751
79.0757
-18.9384
-15.845
-38.1585
-4.47321
24.4651
17.3778
12.1073
-13.6981
-68.0103
-100.136
-64.9553
6.13171
-90.106
-274.093
-387.491
-18578.4
1737.78
616.969
-39.4201
-28.9991
-18.0153
-39.4931
-64.2575
-87.3927
-102.166
-102.433
-97.8984
-114.914
-110.514
-70.3184
9.35143
-69.6684
-162.91
259.713
26578.9
-12230.9
-1979.36
-92.6136
-56.2355
-6.64673
-0.0924088
85.508
193.918
193.898
179.154
111.293
19.3793
-17.28
-59.646
-5.22679
-283.777
85.0289
-1219.54
46.3154
45.82
45.7034
45.0287
44.3617
43.5962
42.7818
41.8991
40.9763
40.0257
39.0035
38.0682
37.0201
35.7595
34.5746
33.3595
32.2101
30.9357
29.9177
28.3133
28.4367
28.961
29.1936
29.4869
29.7146
29.8904
30.0327
30.1125
30.159
30.143
30.0955
29.995
29.8301
29.6253
29.3894
29.1026
28.8169
28.478
28.1571
27.7764
37.1148
36.8431
36.7241
36.5436
36.4104
36.248
36.1029
35.9391
35.7801
35.6045
35.4293
35.234
35.0439
34.8254
34.6165
34.3756
34.1602
33.8984
33.6979
33.3863
34.5499
34.5664
34.5809
34.5781
34.5909
34.5802
34.5795
34.5601
34.5443
34.5126
34.4815
34.4349
34.3896
34.3265
34.2708
34.1907
34.1302
34.0359
33.9744
33.8588
36.5012
36.3982
36.3637
36.2877
36.2429
36.1763
36.1263
36.0636
36.01
35.9476
35.8912
35.8263
35.7682
35.6985
35.6409
35.5642
35.5112
35.4247
35.3823
35.2731
36.6167
36.5622
36.5496
36.5048
36.4844
36.4442
36.4181
36.3799
36.3497
36.3116
36.2786
36.2387
36.2047
36.1611
36.1283
36.0787
36.0508
35.9923
35.9743
35.8998
37.4409
37.3703
37.3509
37.2965
37.2681
37.2207
37.1877
37.1442
37.1087
37.0669
37.0303
36.9887
36.9526
36.9092
36.8758
36.828
36.8008
36.7449
36.7293
36.6579
37.9525
37.8919
37.8763
37.8286
37.8049
37.7632
37.7349
37.6967
37.6657
37.6293
37.5972
37.5611
37.5294
37.4917
37.4627
37.4209
37.3978
37.3481
37.336
37.2722
38.5605
38.4995
38.4831
38.4356
38.4112
38.3698
38.3411
38.3034
38.2724
38.2368
38.2047
38.1698
38.1383
38.1023
38.0734
38.0338
38.0108
37.9635
37.9515
37.8904
39.0976
39.0404
39.025
38.9802
38.9572
38.9182
38.8911
38.8556
38.8261
38.7928
38.7622
38.7297
38.6994
38.6662
38.6382
38.6015
38.5793
38.5351
38.5236
38.466
39.6326
39.5776
39.5623
39.5191
39.4966
39.4591
39.4327
39.3986
39.3699
39.338
39.3082
39.2774
39.2476
39.2164
39.1887
39.1543
39.1321
39.0905
39.0788
39.0238
40.138
40.0857
40.0709
40.0298
40.0081
39.9724
39.9471
39.9146
39.8871
39.8568
39.8281
39.7991
39.7701
39.741
39.7137
39.6819
39.6597
39.621
39.6091
39.5569
40.6261
40.5763
40.5617
40.5224
40.5015
40.4673
40.4429
40.4119
40.3854
40.3565
40.3287
40.3014
40.273
40.246
40.2188
40.1896
40.1671
40.1313
40.119
40.0695
41.0929
41.0458
41.0314
40.9941
40.9738
40.9411
40.9177
40.888
40.8625
40.835
40.8082
40.7823
40.7547
40.7296
40.7025
40.676
40.6529
40.6202
40.6072
40.5605
41.5398
41.4959
41.4821
41.447
41.4278
41.3968
41.3746
41.3466
41.3223
41.2963
41.2706
41.2461
41.2194
41.1961
41.1691
41.1453
41.1213
41.092
41.0777
41.0342
41.9551
41.9146
41.9012
41.8686
41.8512
41.8222
41.8019
41.7763
41.7538
41.7301
41.7066
41.6841
41.6595
41.6386
41.6125
41.5925
41.5677
41.5428
41.5273
41.4879
42.347
42.3097
42.2951
42.2628
42.2467
42.2183
42.1982
42.174
42.1519
42.1294
42.1072
42.0858
42.0631
42.0439
42.0194
42.0036
41.978
41.9598
41.944
41.9099
42.7453
42.718
42.7067
42.6742
42.6613
42.6358
42.6161
42.5936
42.5714
42.5485
42.525
42.5012
42.4761
42.4523
42.424
42.4039
42.3698
42.3547
42.3286
42.291
43.0187
43.0097
43.0248
43.0041
43.0043
42.997
42.9923
42.9871
42.9815
42.9751
42.9674
42.958
42.946
42.9313
42.911
42.89
42.8515
42.8302
42.7583
42.7014
42.9837
42.9255
42.9636
42.9743
42.9918
43.0095
43.0284
43.0491
43.0718
43.0969
43.1248
43.1558
43.1906
43.2294
43.2729
43.322
43.3747
43.4434
43.4846
43.6478
-41.2709
-41.343
-41.2614
-41.1367
-41.2363
-41.5044
-41.4843
-41.6931
-41.6645
-41.4243
-43.7035
-43.4191
-42.7178
-49.928
-53.0234
-51.8977
-47.0669
-69.0918
-65.2016
-68.4567
-76.0674
-71.2455
-70.2316
-67.588
-65.9424
-63.5585
-61.0245
-62.1481
-54.3295
-48.4159
-47.0618
-46.0146
-45.5364
-45.4341
-45.8324
-46.1896
-48.7094
-57.6266
-70.8164
-68.4865
-74.8922
-64.082
-75.5254
-70.0539
-72.9306
-69.7751
-67.3964
-71.8543
-70.4056
-72.1982
-71.5736
-72.271
-75.8443
-76.2013
-76.4534
-77.3066
-77.0858
-77.1794
-76.5726
-76.7774
35.6363
35.63
34.137
33.5467
28.1891
24.2592
20.5258
22.7612
27.5444
21.4681
6.81231
6.28714
8.86839
1.29837
-31.9898
-103.982
-131.518
-95.669
-82.4935
35.6378
35.616
34.0725
33.3581
27.7142
23.8125
19.8756
22.3149
27.2772
21.0026
6.40295
6.26411
9.136
1.58151
-32.4998
-107.687
-136.629
-98.2007
-83.3007
35.639
35.5555
33.9258
33.3637
27.0842
22.1433
18.6616
21.7363
26.9047
20.2045
5.79083
6.26284
9.61059
2.13365
-33.5058
-111.847
-143.934
-107.549
-83.8743
35.6479
35.4616
33.7905
34.1619
27.6325
19.9507
17.2788
20.9688
26.5918
19.2125
4.88098
6.14066
9.9359
2.39647
-35.0367
-116.823
-152.172
-118.601
-83.4692
35.6629
35.3507
33.5088
35.4491
29.1976
17.5153
15.8044
20.0707
26.4627
18.2454
4.55718
5.8569
9.77008
1.68348
-37.4786
-121.823
-159.865
-128.749
-82.9144
35.6786
35.1593
33.0847
36.5844
30.6382
15.0261
14.3466
19.2035
26.6514
17.8769
4.80776
5.33688
8.45382
-0.0934353
-40.5822
-125.668
-165.824
-137.055
-82.3336
35.6866
34.8648
32.5759
37.1337
31.619
12.6516
13.0705
18.46
27.269
18.2342
5.59506
4.2577
5.88104
-3.6549
-43.7092
-128.734
-169.896
-142.36
-81.8544
35.6447
34.7304
32.4126
37.2893
31.4946
10.5343
12.2096
17.8895
28.3092
19.3573
6.79883
2.23227
1.59417
-9.02594
-47.1744
-134.054
-171.737
-143.844
-81.7511
35.5165
34.8649
32.5482
37.3396
29.9666
8.66776
11.8491
18.1883
29.5934
21.1721
8.39131
-0.946968
-4.59235
-16.2707
-51.7525
-138.029
-172.202
-140.981
-82.3008
35.2195
34.9181
32.4753
37.367
27.6172
7.30144
11.8247
19.4482
30.6416
23.4555
10.248
-5.36694
-12.6484
-25.1138
-57.3764
-139.448
-170.385
-138.99
-81.9296
34.5691
34.5241
31.8878
37.2208
24.7674
6.12818
11.7499
20.7923
30.7981
25.7575
12.2548
-10.8609
-22.0773
-34.944
-63.5101
-139.121
-166.628
-136.22
-81.3088
33.2844
33.3777
30.7264
37.0449
21.322
4.74782
11.2015
21.4438
30.066
27.5778
14.1998
-16.988
-32.062
-44.9271
-69.7801
-137.213
-161.023
-132.341
-78.4762
30.9143
31.0249
28.7796
36.8641
16.7852
3.02195
9.94456
21.2254
28.424
28.5664
15.9225
-23.1382
-41.8909
-54.4539
-76.0159
-133.891
-152.964
-126.033
-77.7648
26.6699
26.7678
25.7356
36.5857
10.6997
1.06676
7.72445
20.1827
26.4926
28.0168
17.3432
-28.7992
-51.3016
-63.4068
-82.1276
-130.396
-148.373
-121.716
-70.3572
19.5327
19.7532
21.347
36.9834
4.0028
-0.905104
4.1908
18.292
24.606
25.5727
18.3821
-33.8177
-60.4458
-72.1618
-88.3069
-125.569
-141.012
-115.354
-66.4099
8.49104
9.0094
15.2089
38.7368
-1.96282
-2.64574
-0.79535
15.5287
22.4509
21.9078
18.7895
-38.4382
-69.5699
-81.1029
-94.7133
-120.371
-125.78
-99.3544
-48.9291
-8.07968
-6.91747
6.66408
41.1277
-7.67781
-3.55583
-6.54694
12.0293
19.6281
17.9938
17.8101
-42.9451
-78.776
-90.3549
-101.29
-116.446
-112.153
-81.0812
-39.7656
-32.8385
-30.333
-5.52533
42.8393
-13.8974
-3.02177
-12.0384
8.13328
15.9933
13.7537
15.1407
-47.3121
-87.9327
-99.6669
-107.996
-113.448
-102.005
-66.7288
-36.8928
-69.5165
-64.0805
-23.3611
43.2859
-19.8334
-1.07087
-16.9381
4.19795
11.7339
8.68188
10.9603
-51.7337
-96.7455
-108.45
-114.523
-111.083
-94.8678
-56.1824
-36.744
-122.562
-112.326
-49.1987
43.1278
-23.9634
1.73684
-21.4296
0.47245
6.92652
2.72122
5.37499
-56.4609
-104.998
-116.231
-120.356
-109.002
-89.303
-51.3619
-35.3285
622.906
539.913
490.541
434.062
384.836
337.342
293.193
251.513
212.322
175.347
140.436
107.398
76.0239
46.2625
18.2125
-8.87186
-34.4923
-54.1664
-77.4133
-114.6
-71.3075
-94.244
-86.3983
-97.8165
-100.896
-107.867
-113.128
-118.682
-123.503
-127.795
-131.314
-134.007
-135.781
-136.561
-136.259
-134.862
-132.348
-129.122
-126.759
-124.61
-92.3357
-99.1812
-90.9884
-97.9066
-95.9367
-99.2904
-100.606
-103.183
-105.48
-108.062
-110.634
-113.272
-115.896
-118.461
-120.837
-122.533
-123.265
-122.321
-121.211
-119.107
-82.8744
-85.974
-83.0005
-88.8134
-87.3688
-91.0613
-91.818
-93.8978
-95.1781
-96.4935
-97.4941
-98.2588
-98.7471
-98.9129
-98.7478
-98.0357
-96.705
-94.4735
-91.8138
-88.9323
-82.0932
-82.5888
-79.19
-81.3573
-77.3189
-78.0539
-75.2573
-74.2228
-72.0165
-70.101
-67.903
-65.7613
-63.6932
-61.8817
-60.4997
-59.7117
-59.1997
-58.3927
-57.0954
-55.3508
-58.1143
-58.7142
-56.1478
-57.9648
-54.8504
-56.021
-53.964
-54.2074
-53.33
-53.4118
-53.4361
-53.9191
-54.6062
-55.5495
-56.6757
-58.072
-59.6679
-60.8944
-61.6327
-63.5429
-74.4424
-78.282
-77.6311
-81.4421
-81.1267
-84.3306
-84.8816
-87.3377
-88.5858
-90.5345
-91.9853
-93.5358
-94.8597
-96.192
-97.5447
-99.1221
-100.923
-102.596
-104.772
-107.908
-115.632
-120.444
-120.646
-124.646
-125.399
-129.092
-130.723
-134.128
-136.639
-139.997
-143.025
-146.192
-149.062
-151.637
-153.705
-155.395
-156.53
-156.8
-157.107
-155.181
-136.48
-139.081
-138.183
-140.638
-140.033
-142.238
-142.32
-143.963
-144.609
-145.756
-146.391
-146.781
-146.619
-145.877
-144.543
-142.628
-140.457
-137.896
-135.968
-132.366
-118.026
-117.343
-115.29
-115.476
-113.203
-112.928
-111.041
-110.03
-108.38
-106.87
-105.147
-103.323
-101.381
-99.3186
-97.2084
-94.9922
-92.8486
-90.4616
-88.5431
-85.5101
-92.5588
-90.518
-88.4547
-87.7021
-85.4281
-84.4751
-82.5816
-81.233
-79.6293
-78.128
-76.6186
-75.1193
-73.644
-72.1683
-70.7213
-69.2337
-67.8202
-66.234
-65.0416
-63.3628
-71.1662
-68.931
-67.1771
-66.1925
-64.3169
-63.3686
-61.8091
-60.632
-59.309
-58.0446
-56.7871
-55.5406
-54.3257
-53.1363
-51.9661
-50.7359
-49.4859
-48.0271
-46.912
-45.5053
-49.819
-47.4997
-46.0833
-44.8173
-43.1723
-42.1309
-40.6822
-39.6611
-38.6588
-38.0048
-37.663
-37.7206
-38.1334
-38.7317
-39.1195
-38.9914
-38.1711
-37.0923
-36.2193
-35.8767
-35.2406
-34.4126
-34.3999
-34.4114
-34.3563
-34.7334
-34.9564
-35.6279
-36.3404
-37.3078
-38.3405
-39.4376
-40.5156
-41.5354
-42.4111
-43.1105
-43.6276
-44.3088
-44.3679
-45.6646
-32.215
-34.7655
-36.4407
-37.9257
-38.7696
-40.0372
-41.0467
-42.4003
-43.7864
-45.578
-47.7628
-50.6124
-54.1811
-58.3664
-62.7189
-66.6403
-69.3417
-70.0062
-69.8703
-73.681
-72.2163
-78.2609
-82.6895
-87.2857
-91.8804
-96.8991
-101.752
-106.587
-110.965
-114.971
-118.383
-121.194
-123.239
-124.438
-124.772
-124.391
-123.616
-123.251
-124.381
-127.017
-122.147
-127.836
-132.398
-136.128
-139.633
-143.023
-145.997
-148.686
-150.924
-152.914
-154.688
-156.357
-157.955
-159.489
-160.941
-162.183
-163.069
-163.542
-163.804
-161.629
-152.334
-154.191
-153.313
-151.458
-150.428
-149.754
-149.187
-148.815
-148.563
-148.47
-148.468
-148.492
-148.45
-148.181
-147.569
-146.371
-144.744
-142.476
-140.672
-137.799
-152.702
-150.036
-145.902
-141.098
-137.147
-133.661
-130.589
-127.907
-125.525
-123.407
-121.47
-119.63
-117.818
-115.961
-114.061
-112.04
-110.078
-107.957
-106.314
-103.835
-100.689
-96.5222
-92.8498
-89.7356
-88.1815
-86.9928
-86.2601
-85.7802
-85.4315
-85.1755
-84.875
-84.6885
-84.4799
-83.9685
-83.2946
-82.4727
-81.5549
-80.4453
-79.4485
-78.1578
)
;

boundaryField
{
    outletWallLeft
    {
        type            fixedValue;
        value           uniform 0;
    }
    fineWallsLeft
    {
        type            zeroGradient;
    }
    fineFrontAndBackLeft
    {
        type            zeroGradient;
    }
    fineplugLeft
    {
        type            cyclicAMI;
        value           nonuniform List<scalar> 
20
(
25.1406
30.9659
26.692
25.8255
25.3709
24.883
24.3038
23.6588
23.1408
22.3223
21.9474
25.0334
19.6092
18.5898
17.7443
16.7251
15.9382
14.7273
14.7155
12.3608
)
;
    }
    symmetryWallLeft
    {
        type            cyclicAMI;
        value           nonuniform List<scalar> 
20
(
-41.2653
-35.0964
-50.2058
-86.2717
-108.109
-122.881
-119.712
-108.935
-59.0613
1.96272
-0.515143
4.2384
-1.2318
-23.4359
3.36453
-24.7276
43.2398
-67.8004
-145.44
-161.457
)
;
    }
    inletOutletLeft
    {
        type            cyclicAMI;
        value           nonuniform List<scalar> 
20
(
12.3608
14.7155
14.7273
15.9382
16.7251
17.7443
18.5898
19.6092
25.0334
21.9474
22.3223
23.1408
23.6588
24.3038
24.883
25.3709
25.8255
26.692
30.9659
25.1406
)
;
    }
    inletLeft
    {
        type            zeroGradient;
    }
    inletWallsLeft
    {
        type            zeroGradient;
    }
    inletFacesLeft
    {
        type            zeroGradient;
    }
    fineWallsRight
    {
        type            zeroGradient;
    }
    outletWallRight
    {
        type            zeroGradient;
    }
    fineplugRight
    {
        type            cyclicAMI;
        value           nonuniform List<scalar> 
20
(
-77.7397
-77.8079
-78.4026
-78.7615
-79.1666
-79.3474
-79.3797
-80.0135
-81.1621
-77.5832
-77.5527
-77.5481
-77.7315
-78.0949
-78.7607
-79.7831
-81.5304
-85.8052
-93.5363
-94.2484
)
;
    }
    fineFrontAndBackRight
    {
        type            zeroGradient;
    }
    symmetryWallRight
    {
        type            cyclicAMI;
        value           nonuniform List<scalar> 
20
(
-41.2653
-35.0964
-50.2058
-86.2717
-108.109
-122.881
-119.712
-108.935
-59.0613
1.96272
-0.515143
4.2384
-1.2318
-23.4359
3.36453
-24.7276
43.2398
-67.8004
-145.44
-161.457
)
;
    }
    inletOutletRight
    {
        type            cyclicAMI;
        value           nonuniform List<scalar> 
20
(
-77.7397
-77.8079
-78.4026
-78.7615
-79.1666
-79.3474
-79.3797
-80.0135
-81.1621
-77.5832
-77.5527
-77.5481
-77.7315
-78.0949
-78.7607
-79.7831
-81.5304
-85.8052
-93.5363
-94.2484
)
;
    }
    inletRight
    {
        type            zeroGradient;
    }
    inletWallsRight
    {
        type            zeroGradient;
    }
    inletFacesRight
    {
        type            zeroGradient;
    }
}


// ************************************************************************* //
