/*--------------------------------*- C++ -*----------------------------------*\
| =========                 |                                                 |
| \\      /  F ield         | OpenFOAM: The Open Source CFD Toolbox           |
|  \\    /   O peration     | Version:  4.1                                   |
|   \\  /    A nd           | Web:      www.OpenFOAM.org                      |
|    \\/     M anipulation  |                                                 |
\*---------------------------------------------------------------------------*/
FoamFile
{
    version     2.0;
    format      ascii;
    class       surfaceScalarField;
    location    "23";
    object      phi;
}
// * * * * * * * * * * * * * * * * * * * * * * * * * * * * * * * * * * * * * //

dimensions      [0 3 -1 0 0 0 0];

internalField   nonuniform List<scalar> 
3120
(
-10370
-72204.8
-10370
3199.33
-13569.3
3199.33
11360.3
-8160.98
17441.3
-6080.95
17441.3
21551.9
-4110.68
23178.2
-1626.26
23178.2
23194
-15.848
23194.1
21559.5
1634.55
18277.2
3282.3
18277.2
15243.8
3033.35
15243.8
13206.1
2037.73
11590.2
1615.97
11590.2
12162.8
13002.3
149.245
13993.7
14959.2
15927.9
16904
17886.7
18874.3
19866.1
20861.6
21862
19096.5
3766.68
20112.7
21135.5
22163.1
23196.3
24233.1
25292.1
26396.9
27174.3
20013.7
7160.6
20013.7
20013.7
12221
7792.72
12221
12221
12221
5062.68
7158.28
5062.69
5062.69
-44.7543
5107.57
-44.4079
-44.0519
-43.8964
-512.729
468.923
-512.566
-512.401
-512.265
-71.8003
-440.306
-9271.36
55443
-12187.8
11157.5
-7730.3
-42209
143.185
-47810.8
3792
5929.48
4344.96
8744.36
3841.04
-6615.84
4050.46
-8988.74
4846.18
13342.2
3559.09
26437.7
-603.73
33300
-3769.49
32421.3
-4972.87
10350.4
-5749.22
-4534.29
-6453.48
-12804.3
-7774.34
-18055.6
-8384.78
-17763.1
-5433.63
-12626
-6178.11
-10196.4
66355.4
-13714.3
14675.4
-9022.34
-46901
-594.61
-56238.5
3843.43
1491.43
5084.2
7503.59
4444.74
-5976.38
4202.61
-8746.62
4588.85
12955.9
2981.29
28045.3
-923.925
37205.2
-3513.46
35010.9
-4734.32
11571.3
-5453.04
-3815.58
-5684.77
-12572.5
-6541.03
-17199.3
-8043.65
-16260.4
-7178.3
-13491.3
-12887.5
-11044.9
78288.6
-14839.7
18470.2
-9900.74
-51839.9
-1241.14
-64898.1
3777.47
-3527.18
5803.04
5478.02
5024.49
-5197.83
4359.51
-8081.63
4040.83
13274.6
1892.38
30193.7
-1428.59
40526.2
-3243.26
36825.5
-4463.72
12791.7
-5176.9
-3102.4
-5177.18
-12572.2
-5413.84
-16962.7
-6895.65
-14778.6
-7846.71
-12540.2
-15626.6
-11690.8
91049.4
-15401.2
22180.6
-10234
-57007.1
-1616.69
-73515.4
4418.83
-9562.7
6525.78
3371.07
5504.54
-4176.59
4392.22
-6969.32
3087.83
14579
535.35
32746.2
-1820.4
42882
-2891.79
37896.9
-4064.76
13964.7
-4739.69
-2427.47
-4669.72
-12642.2
-4425.42
-17207
-5441.4
-13762.7
-7492.47
-10489.2
-15960.8
-12033.9
104344
-15334.2
25480.9
-9965.58
-62375.8
-1600.11
-81880.9
5419.77
-16582.6
7433.24
1357.6
5871.74
-2615.09
4131.75
-5229.32
1723.66
16987.1
-774.661
35244.5
-1929.09
44036.4
-2440.1
38407.9
-3531.88
15056.5
-4136.22
-1823.14
-4065.91
-12712.5
-3533.59
-17739.3
-3652.01
-13644.2
-5815.04
-8326.13
-13983.1
-12027.3
117828
-14679.1
28132.8
-9080.35
-67974.5
-1387.68
-89573.6
6057.76
-24028
7942.13
-526.769
5957.69
-630.657
3468.22
-2739.85
165.327
20290
-1706.24
37116.1
-1753.61
44083.8
-1895.78
38550.1
-2883.01
16043.7
-3401.78
-1304.37
-3342.84
-12771.5
-2756.33
-18325.8
-2064.95
-14335.6
-3205.12
-7185.96
-10027.6
-11698.8
131182
-13580.4
30014.4
-7583.07
-73971.9
-981.44
-96175.2
6229.62
-31239.1
7814.92
-2112.06
5680.62
1503.65
2504.48
436.296
-1243.98
24038.4
-2125.27
37997.4
-1387.7
43346.2
-1273.87
38436.3
-2135.71
16905.6
-2581.43
-858.643
-2509.58
-12843.3
-1922.24
-18913.1
-1095.4
-15162.5
-803.531
-7477.83
-7064.5
-11152.9
144189
-12242.1
31103.7
-5513.49
-80700.5
-346.863
-101342
6017.3
-37603.3
7114.67
-3209.44
4913.97
3704.35
1235.59
4114.66
-2216.33
27490.3
-2127.35
37908.4
-928.829
42147.7
-585.5
38092.9
-1283.97
17604
-1736.36
-406.266
-1612.26
-12967.4
-978.08
-19547.3
-140.381
-16000.2
-349.05
-7269.16
-7264.31
-10614.2
156855
-10918.3
31407.8
-2976.55
-88642.2
520.181
-104839
5221.94
-42305
5649.27
-3636.77
3505.07
5848.55
-215.675
7835.41
-2684.65
29959.3
-1902.45
37126.2
-443.135
40688.4
171.217
37478.6
-312.702
18087.9
-960.033
241.063
-658.39
-13269.1
-16.1778
-20189.5
1006.95
-17023.3
-248.917
-6013.29
-5897.27
-10333.8
169430
-9814.09
30888.1
-167.87
-98288.4
1561.73
-106568
3033.29
-43776.6
2653.05
-3256.54
1762.91
6738.68
-1198.14
10796.5
-2764.95
31526.1
-1605.26
35966.5
28.3884
39054.7
973.544
36533.4
593.446
18468
19.8145
814.687
353.803
-13603.1
1045.97
-20881.7
2213.17
-18190.5
165.926
-3966.05
-3693.61
-10677.4
182550
-9072.2
29282.9
2724.31
-110085
2596.96
-106441
-802.529
-40377.1
-1152.52
-2906.54
722.651
4863.51
-1665.86
13185
-2630.52
32490.8
-1318.58
34654.6
456.937
37279.2
1768.65
35221.7
1870.54
18366.2
1519.48
1165.75
1413.16
-13496.7
2338
-21806.5
3726.6
-19579.1
751.95
-991.409
91.6754
-11728.3
196883
-8492.56
26047.2
5591.7
-124169
3460.72
-104310
-868.305
-36048.1
-903.407
-2871.45
655.16
3304.94
-1732.71
15572.8
-2400.69
33158.8
-1075.59
33329.5
820.729
35382.9
2497.68
33544.8
3124.68
17739.2
2822.65
1467.77
2547.42
-13221.5
3974.65
-23233.7
5584.08
-21188.5
2008.46
2584.22
5382.43
-14173.7
213904
-8462.87
20336.3
8315.47
-140948
4084.87
-100079
-582.439
-31380.7
-83.5608
-3370.32
658.984
2562.4
-1683.7
17915.5
-2128.63
33603.7
-876.933
32077.8
1101.15
33404.8
3105.32
31540.6
4117.34
16727.1
3812.5
1772.61
3760.08
-13169.1
6047.08
-25520.7
7755.02
-22896.5
3837.16
6502.07
10854.1
-17487.5
234305
-8412.84
11261.7
10768.4
-160129
4133.64
-93444.5
-511.695
-26735.4
192.764
-4074.78
270.701
2484.45
-1694.95
19881.2
-1837.76
33746.5
-712.154
30952.2
1294.28
31398.4
3576.65
29258.2
4892.73
15411
4640.88
2024.46
5166.72
-13694.9
8389.81
-28743.8
9991.81
-24498.5
5562.44
10931.4
16400.7
-22845.8
260573
-8003.1
-3580.94
12956.9
-181089
3618.09
-84105.6
-925.514
-22191.8
45.1198
-5045.41
-159.826
2689.4
-1635.85
21357.2
-1486.69
33597.3
-541.027
30006.5
1395.09
29462.3
3863.03
26790.3
5329.16
13944.9
5362.67
1990.95
6865.24
-15197.5
10163.9
-32042.5
11296.8
-25631.4
6351.55
15876.7
21126
-8998.18
272857
7771.93
-20351
15232.2
-188549
2616.63
-71490.1
-1701.61
-17873.6
-1006.8
-5740.23
-1092.47
2775.07
-1612.05
21876.8
-1092.89
33078.2
-291.371
29205
1517.48
27653.4
4117.24
24190.5
5677.04
12385.1
6414.61
1253.38
8749.68
-17532.6
9577.22
-32870
9981.53
-26035.7
7916.31
17941.9
24931.6
13324.4
264613
29107.5
-36134.1
18012.7
-177454
1341.16
-54818.5
-2817.42
-13715
-1653.22
-6904.43
-1184.87
2306.72
-1325.63
22017.6
-588.651
32341.2
17.2021
28599.1
1534.67
26135.9
4067.15
21658
5111.74
11340.5
7198.57
-833.444
10130
-20464
5210.26
-27950.2
4501.15
-25326.6
6659.99
15783.1
25510.7
27599
238220
47686.3
-56221.4
18681.4
-148449
-1073.32
-35063.8
-4062.83
-10725.5
-3557.47
-7409.79
-2669.59
1418.84
-1590.92
20938.9
21.8607
30728.4
1029.17
27591.8
2586.69
24578.4
5265.77
18979
6696
9910.29
9712.11
-3849.55
10593.5
-21345.5
-306.247
-17050.4
461.103
-26093.9
10395.1
5849.1
27744.8
70874.1
178191
57440.2
-42787.4
10988.7
-101998
-5125.95
-18949.1
-4570.01
-11281.4
-5059
-6920.8
-1908.2
-1731.95
-117.903
19148.6
9.24898
30601.3
-157.213
27758.3
337.502
24083.7
2054.26
17262.2
8032.43
3932.12
13479.6
-9296.68
9526.23
-17392.1
-1742.31
-5781.9
-9938.38
-17897.9
-5463.84
1374.57
8711.58
-139673
28841.4
-1735.9
-4649.5
-3152.37
-7453.54
-9139.06
-4016.89
3363.38
8687.33
13132.8
17290.5
18074.2
11803.3
4642.89
1838.56
15931.8
4387.32
-28.3027
-544.361
29.4487
-1046.43
81.7994
-1043.77
119.446
-1003.16
149.394
-998.65
172.4
-999.134
189.871
-1000.15
203.003
-1000.74
213.086
-1001.88
220.807
-1003.18
224.851
-1004.47
225.477
-1001.76
214.816
-1005.58
200.817
-1008.75
184.002
-1010.76
164.406
-1013.66
142.544
-1014.86
124.253
-1040.72
103.895
-1084.45
-673.499
44.4424
-588.8
53.2465
-1055.23
43.9399
-1034.46
41.6223
-1000.84
42.9313
-999.956
44.2731
-1000.47
45.3408
-1001.21
45.9418
-1001.34
46.1423
-1002.08
45.5114
-1002.55
44.4928
-1003.45
48.121
-1005.39
47.962
-1005.42
45.7586
-1006.55
42.4254
-1007.42
37.6724
-1008.91
32.4878
-1009.68
25.9567
-1034.19
16.1485
-1074.64
-657.35
29.7838
-618.579
33.9702
-1059.41
28.8159
-1029.3
28.0186
-1000.04
28.0692
-1000
27.947
-1000.35
27.7855
-1001.05
27.5529
-1001.1
27.1304
-1001.65
26.5318
-1001.95
25.5123
-1002.43
22.8365
-1002.71
20.7759
-1003.35
18.4108
-1004.18
15.5389
-1004.55
12.0393
-1005.41
7.89964
-1005.54
3.25881
-1029.55
-1.26484
-1070.12
-658.615
24.6578
-643.236
25.9522
-1060.7
20.5039
-1023.85
18.4818
-998.02
17.0027
-998.523
15.4714
-998.815
13.9084
-999.484
12.343
-999.538
10.7518
-1000.06
9.093
-1000.29
7.40652
-1000.74
5.88749
-1001.19
4.0557
-1001.52
1.99742
-1002.12
-0.198669
-1002.35
-2.65255
-1002.95
-5.28899
-1002.9
-9.33976
-1025.49
-11.7869
-1067.67
-670.402
22.8365
-666.068
22.644
-1060.51
17.5383
-1018.74
15.4166
-995.895
13.6061
-996.709
11.7305
-996.936
9.82662
-997.576
7.93015
-997.638
6.00653
-998.133
4.0667
-998.346
2.08981
-998.762
-0.00347446
-999.094
-2.07679
-999.446
-4.23006
-999.965
-6.40481
-1000.18
-8.66838
-1000.69
-11.0884
-1000.48
-15.5765
-1021
-17.3928
-1065.85
-687.795
21.6807
-687.749
20.5923
-1059.42
15.7772
-1013.93
13.7286
-993.847
11.8557
-994.836
9.93638
-995.017
7.97956
-995.62
6.02892
-995.687
4.05429
-996.159
2.06642
-996.358
0.0631447
-996.758
-1.95985
-997.071
-4.00267
-997.403
-6.1098
-997.858
-8.21129
-998.074
-10.358
-998.541
-12.6026
-998.234
-17.1978
-1016.41
-19.2774
-1063.77
-707.072
21.259
-709.007
19.3949
-1057.56
14.8163
-1009.35
12.8222
-991.852
10.9389
-992.952
9.01671
-993.094
7.06153
-993.663
5.1166
-993.742
3.15046
-994.192
1.18026
-994.387
-0.801076
-994.776
-2.80723
-995.064
-4.80717
-995.402
-6.85065
-995.814
-8.87046
-996.053
-10.9152
-996.496
-13.0028
-996.145
-17.4299
-1011.98
-19.9869
-1061.21
-727.059
20.9544
-729.964
18.4233
-1055.03
14.0934
-1005.02
12.2067
-989.967
10.3682
-991.115
8.50016
-991.228
6.59817
-991.763
4.70663
-991.852
2.79337
-992.28
0.877814
-992.473
-1.04779
-992.852
-2.99055
-993.123
-4.92837
-993.466
-6.90522
-993.838
-8.85446
-994.105
-10.8275
-994.524
-12.7972
-994.176
-17.0309
-1007.75
-20.1594
-1058.09
-747.218
20.7634
-750.726
17.5792
-1051.84
13.5003
-1000.94
11.7081
-988.173
9.92057
-989.327
8.11071
-989.417
6.26803
-989.919
4.43689
-990.02
2.58372
-990.426
0.730904
-990.619
-1.13262
-990.987
-3.0102
-991.244
-4.88204
-991.593
-6.78841
-991.931
-8.66595
-992.226
-10.5697
-992.619
-12.4331
-992.312
-16.4297
-1003.75
-20.1507
-1054.36
-767.369
20.5895
-771.316
16.7714
-1048.02
12.9507
-997.12
11.254
-986.478
9.52486
-987.598
7.78036
-987.673
6.00349
-988.143
4.23846
-988.256
2.45083
-988.639
0.665095
-988.834
-1.13262
-989.19
-2.94167
-989.436
-4.74664
-989.788
-6.58349
-990.094
-8.39214
-990.418
-10.2316
-990.78
-12.0002
-990.544
-15.7514
-1000
-20.0693
-1050.05
-787.438
20.435
-791.751
15.9882
-1043.58
12.4319
-993.564
10.8229
-984.869
9.15353
-985.929
7.47487
-985.994
5.76465
-986.433
4.06646
-986.557
2.34507
-986.918
0.627165
-987.117
-1.10454
-987.459
-2.84474
-987.696
-4.58327
-988.05
-6.3506
-988.327
-8.09144
-988.678
-9.86742
-989.004
-11.5499
-988.862
-15.0472
-996.503
-19.9614
-1045.13
-807.4
20.2875
-812.041
15.2168
-1038.51
11.9288
-990.278
10.4016
-983.344
8.79329
-984.323
7.18089
-984.385
5.53769
-984.792
3.9065
-984.929
2.25156
-985.265
0.601576
-985.469
-1.06419
-985.795
-2.73544
-986.026
-4.40831
-986.379
-6.10621
-986.631
-7.7805
-987.005
-9.49317
-987.293
-11.0961
-987.26
-14.336
-993.264
-19.8445
-1039.63
-827.244
20.1485
-832.19
14.4561
-1032.82
11.4405
-987.263
9.98946
-981.894
8.44382
-982.778
6.8983
-982.84
5.32268
-983.217
3.7588
-983.365
2.17072
-983.677
0.588556
-983.887
-1.01138
-984.195
-2.61371
-984.425
-4.22177
-984.771
-5.85013
-985.003
-7.45908
-985.396
-9.10819
-985.644
-10.6383
-985.73
-13.6196
-990.283
-19.7206
-1033.52
-846.965
20.0195
-852.212
13.7041
-1026.5
10.9631
-984.524
9.58333
-980.516
8.10213
-981.299
6.62437
-981.364
5.11669
-981.712
3.62046
-981.871
2.09974
-982.159
0.585151
-982.375
-0.948724
-982.664
-2.48217
-982.893
-4.02642
-983.229
-5.5847
-983.447
-7.13013
-983.853
-8.71483
-984.061
-10.1778
-984.268
-12.9008
-987.561
-19.5911
-1026.84
-866.556
19.9101
-872.123
12.9646
-1019.56
10.5003
-982.061
9.18839
-979.206
7.77364
-979.885
6.3654
-979.957
4.92587
-980.273
3.49762
-980.445
2.04492
-980.707
0.597261
-980.928
-0.870081
-981.197
-2.33476
-981.43
-3.81587
-981.749
-5.30261
-981.961
-6.78634
-982.37
-8.30463
-982.544
-9.70591
-982.868
-12.1732
-985.094
-19.4468
-1019.56
-886.003
19.8437
-891.968
12.2545
-1011.97
10.0738
-979.881
8.83207
-977.965
7.48843
-978.542
6.15362
-978.623
4.78315
-978.903
3.42089
-979.083
2.03476
-979.321
0.648365
-979.543
-0.756384
-979.792
-2.15973
-980.027
-3.58351
-980.324
-5.00377
-980.541
-6.43377
-980.939
-7.88584
-981.092
-9.23196
-981.52
-11.4484
-982.877
-19.285
-1011.72
-905.288
19.8666
-911.837
11.6129
-1003.72
9.74362
-978.014
8.60024
-976.824
7.34832
-977.293
6.11016
-977.387
4.82581
-977.621
3.54286
-977.802
2.23218
-978.013
0.912182
-978.225
-0.430664
-978.452
-1.77855
-978.681
-3.15688
-978.949
-4.52635
-979.173
-5.93141
-979.537
-7.33438
-979.69
-8.6692
-980.188
-10.6741
-980.874
-19.0396
-1003.36
-924.327
20.0759
-931.913
11.101
-994.745
9.5886
-976.502
8.6033
-975.839
7.48152
-976.172
6.36957
-976.276
5.20079
-976.453
4.01537
-976.618
2.79754
-976.796
1.55609
-976.984
0.287601
-977.184
-0.998832
-977.395
-2.31993
-977.628
-3.64096
-977.853
-5.02185
-978.156
-6.38066
-978.332
-7.76008
-978.809
-9.59957
-979.035
-18.4209
-994.541
-942.748
20.7984
-952.712
11.0689
-985.016
9.96389
-975.398
9.25061
-975.127
8.35613
-975.278
7.43064
-975.351
6.4223
-975.446
5.3507
-975.547
4.21152
-975.657
3.00725
-975.781
1.73999
-975.918
0.415357
-976.071
-0.968815
-976.244
-2.38634
-976.436
-3.87545
-976.668
-5.32902
-976.879
-6.87935
-977.259
-8.53166
-977.383
-17.5631
-985.51
-960.311
22.2871
12.2707
11.8722
11.7451
11.4668
11.1147
10.6687
10.1213
9.46345
8.68229
7.76424
6.69252
5.44766
4.01127
2.34323
0.464198
-1.79517
-4.17865
-14.6886
-70.5855
511.613
-582.129
511.664
511.726
511.733
-1564.18
2075.93
-1564.2
-1564.19
-1564.21
-5871.82
4307.62
-5871.83
-5871.82
-12040.7
6168.83
-12040.7
-12040.7
-12040.7
-20023.2
7982.54
-20023.2
-20023.3
-27446.2
7422.91
-27221.5
-26853.1
-26407.1
-25889.2
-25302.2
-24645.5
-23916.7
-23111.4
-26786.2
4556.39
-25829
-24785.6
-23653.5
-22427.3
-21095.5
-19637.1
-18024.2
-16250.2
-14432.2
-11710.9
-1273.4
-11229.4
-11229.4
-10944.7
-284.723
-9980.53
-964.175
-9980.54
-8643.34
-1337.2
-8643.34
-6875.08
-1768.27
-4847.15
-2027.94
-4847.16
-2561.34
-2285.84
-2561.35
-277.932
-2283.45
1554.62
-1832.58
1554.61
2550.3
-995.712
2530.26
20.0272
2530.25
1500.62
1029.62
1500.6
1500.6
86.4317
-86.5034
583.786
-497.363
1028.86
-445.083
2010.63
-981.768
1211.85
798.776
-938.799
2150.64
-1864.22
925.418
-1087.89
-776.342
692.574
-1780.47
2374.71
-1682.14
2810.16
-435.459
2758.32
51.8267
3188.88
-430.571
4888.47
-1699.6
7623.12
-2734.65
8470.71
-847.593
5040.17
3430.53
-97.4266
5137.58
1403.15
77.3093
-163.898
466.603
-886.663
939.825
-918.31
2026.27
-2068.22
517.87
2307.18
-1892.85
4561.36
-2152.1
1184.66
-1323.98
-1604.46
232.404
-3336.86
1857.22
-3306.96
2373.02
-951.268
2426.89
-2.06196
2799.42
-803.105
4264.53
-3164.71
6602.51
-5072.64
8539.54
-2784.63
7626.68
4343.38
2180.38
10583.9
4613.15
152.99
-316.948
522.38
-1256.06
485.399
-881.335
683.9
-2266.72
-837.4
3828.47
-2185.51
5909.47
-2044.8
1043.94
-1387.57
-2261.7
-9.81857
-4714.61
1413.79
-4730.57
1822.52
-1360
1682.06
138.388
1751.06
-872.132
2944.16
-4357.82
5385
-7513.47
7348.62
-4748.26
7560.84
4131.15
3621.83
14522.9
8255
171.762
-488.734
500.919
-1585.22
-208.378
-172.046
-670.854
-1804.25
-1651.94
4809.55
-2233.23
6490.76
-2058.2
868.91
-1385.46
-2934.45
-225.078
-5874.99
896.383
-5852.04
1192.71
-1656.34
310.096
1020.99
188.612
-750.676
1488.26
-5657.47
4044.56
-10069.8
5934.07
-6637.77
6709.84
3355.37
4335.94
16896.8
11595.2
148.666
-637.42
307.46
-1744.01
-627.328
762.734
-1105.44
-1326.14
-1702.41
5406.52
-2068.02
6856.37
-1990.92
791.806
-1310.88
-3614.49
-449.247
-6736.63
312.498
-6613.79
-256.409
-1087.44
-1456.73
2221.3
-1538.37
-669.037
-26.6292
-7169.22
2458.61
-12555
4358.09
-8537.26
5498.61
2214.84
4479.33
17916.1
14242
-17.9399
-619.496
-44.7524
-1717.2
-684.168
1402.14
-818.888
-1191.43
-1319.07
5906.7
-1740.06
7277.35
-1679.42
731.154
-1084.37
-4209.54
-685.696
-7135.3
-490.082
-6809.41
-1505.44
-72.0979
-2725.93
3441.79
-2917.13
-477.843
-1631.2
-8455.16
748.854
-14935.1
2743.34
-10531.7
4045.62
912.538
4146.79
17814.9
16105.3
-385.099
-234.409
-394.567
-1707.74
-271.856
1279.43
-34.0762
-1429.21
-778.681
6651.3
-1305.36
7804.02
-1109
534.791
-650.235
-4668.31
-919.079
-6866.46
-1257.44
-6471.05
-2455.84
1126.3
-3917.53
4903.48
-4315.58
-79.793
-3163.85
-9606.9
-959.083
-17139.8
1319.01
-12809.8
2415.71
-184.205
3499.89
16730.7
17319.4
-732.91
498.495
-755.211
-1685.44
192.137
332.075
739.086
-1976.17
-202.063
7592.45
-891.571
8493.52
-514.933
158.133
-115.075
-5068.17
-1123.28
-5858.25
-1980.09
-5614.25
-3291.16
2437.37
-5002.15
6614.47
-5584.83
502.881
-4552.83
-10638.9
-2540.89
-19151.8
519.04
-15869.8
728.539
-393.76
2703.61
14755.6
17995
-998.053
1496.54
-1189.86
-1493.64
330.611
-1188.4
1276.62
-2922.17
309.115
8559.95
-261.172
9063.81
322.7
-425.744
366.809
-5112.28
-1279.07
-4212.38
-2637.99
-4255.33
-4071.59
3870.97
-5939.23
8482.11
-6585.68
1149.32
-5673.69
-11550.9
-3932.37
-20893.1
-1285.89
-18516.3
66.0158
-1745.68
1774.64
13047
18001.4
-1269.06
2765.6
-1583.61
-1179.09
368.046
-3140.06
1646.23
-4200.37
607.37
9598.81
328.516
9342.66
1313.01
-1410.25
839.624
-4638.9
-1388.45
-1984.31
-3200.08
-2443.71
-4740.97
5411.85
-6638.03
10379.2
-7194.97
1706.25
-6431.21
-12314.6
-5133.87
-22190.5
-3100.08
-20550
-1011.94
-3833.84
748.272
11286.8
17412.4
-1593.29
4358.89
-1920.23
-852.153
348.149
-5408.43
1879.94
-5732.16
778.974
10699.8
673.395
9448.24
1901.98
-2638.83
1228.9
-3965.82
-1474.21
718.798
-3627.64
-290.286
-5232.96
7017.18
-7015.88
12162.1
-7365.22
2055.59
-6822.25
-12857.6
-6129.16
-22883.5
-4608.41
-22070.8
-2348.3
-6093.95
-243.18
9181.63
16205.1
-1993.76
6352.64
-2320.28
-525.636
308.578
-8037.29
2059.79
-7483.37
944.79
11814.8
917.092
9475.93
2123.66
-3845.4
1573.66
-3415.83
-1525.73
3818.18
-3931.17
2115.15
-5503.54
8589.55
-7054.47
13713
-7186.97
2188.08
-6969.81
-13074.8
-6960.76
-22892.6
-5938.11
-23093.5
-3656.49
-8375.57
-1305.42
6830.55
14614.9
-2486.48
8839.12
-2842.33
-169.783
216.739
-11096.4
2217.9
-9484.53
1120.48
12912.2
1092.4
9504.01
2108.63
-4861.62
1885.4
-3192.6
-1370.65
7074.23
-4118.92
4863.41
-5536.07
10006.7
-6826.72
15003.7
-6880.46
2241.82
-7070.24
-12885
-7694.3
-22268.5
-7163.04
-23624.7
-4845.84
-10692.8
-2078.59
4063.3
11262.9
-3024.5
11863.6
-3447.01
252.716
-80.1175
-14463.3
2221.26
-11785.9
1235.69
13897.8
1234.02
9505.68
2080.08
-5707.69
2282.29
-3394.82
-911.154
10267.7
-4078.94
8031.2
-5354.33
11282.1
-6471.15
16120.5
-6672.25
2442.91
-7261.87
-12295.4
-8335.31
-21195.1
-8319.91
-23640.1
-5539.58
-13473.1
-2813.03
1336.73
13006.3
-3568.15
15431.8
-4108.59
793.159
-624.172
-17947.7
2018.5
-14428.6
1252.28
14664
1364.13
9393.83
2133.94
-6477.5
2759.15
-4020.02
-9.47252
13036.3
-3580.1
11601.8
-4993.07
12695.1
-6109.79
17237.2
-6645.18
2978.31
-7546.52
-11394
-8804.37
-19937.2
-9481.53
-22963
-7963.7
-14990.9
-6205.9
-421.057
14223.3
-4196.22
19628
-4946.16
1543.09
-1336.58
-21557.3
1824.42
-17589.6
1352.95
15135.5
1543.27
9203.5
2249.22
-7183.46
3196.66
-4967.47
1274.38
14958.6
-2474.41
15350.6
-4443.83
14664.5
-5777.36
18570.7
-6706.32
3907.27
-7841.66
-10258.7
-9073.71
-18705.2
-9973.12
-22063.5
-9967.19
-14996.9
-9047.73
-1340.52
13158.1
-4962.01
24590
-6017.49
2598.57
-2223.37
-25351.4
1765.83
-21578.8
1832.2
15069.1
1927.28
9108.43
2407.49
-7663.67
3527.72
-6087.7
2654.3
15832
-873.388
18878.3
-3638.8
17429.9
-5427.9
20359.8
-6670.64
5150.01
-7982.66
-8946.68
-9190.63
-17497.2
-9708.58
-21545.6
-9578.54
-15126.9
-8725.43
-2193.62
10601.5
-5876.46
30466.5
-7325.08
4047.18
-3346.36
-29330.1
1722.08
-26647.2
2621.68
14169.5
2523.05
9207.04
2619.04
-7759.65
3736.06
-7204.72
3820.88
15747.2
973.58
21725.6
-2547.72
20951.2
-5007.97
22820.1
-6396.46
6538.49
-7778.27
-7564.87
-9106.94
-16168.5
-9417.17
-21235.4
-8459.46
-16084.6
-7096.29
-3556.78
7812.83
-6921.52
37388
-8849.38
5975.04
-4704.83
-33474.6
1465.81
-32817.9
3303.06
12332.2
3145.22
9364.89
2911.34
-7525.77
3856.98
-8150.36
4553.06
15051.1
2543.78
23734.9
-1453.81
24948.8
-4535.64
25901.9
-5893.37
7896.23
-7155.23
-6303.01
-8587.86
-14735.9
-9234.65
-20588.6
-7778.31
-17541
-5411.33
-5923.75
4477.46
-8230.58
-10496.6
-6219.76
899.704
3653.65
3721.21
3315.21
3944.16
4857.37
3441.65
-746.784
-4100.44
-5351.26
-6343.63
-7571.03
-8783.16
-7950.62
-4199.56
-678.158
1653.15
-1101.77
1398.61
-1534.58
1407.8
-1883.2
1323.62
-2193.1
1284.89
-2452.96
1234.86
-2670.67
1192.7
-2845.57
1149.9
-2979.24
1108.67
-3071.86
1067.62
-3123.7
1026.85
-3134.41
985.699
-3101.74
942.329
-3017.87
891.133
-2863.94
821.067
-2608.06
719.115
-2210.61
577.551
-1635.2
399.594
-879.674
219.469
95.3257
-209.078
1862.23
-464.483
1654.01
-734.834
1678.15
-961.938
1550.72
-1179.63
1502.58
-1363.86
1419.1
-1524.74
1353.57
-1657.18
1282.34
-1763.88
1215.37
-1844.38
1148.11
-1899.66
1082.13
-1929.53
1015.56
-1931.26
944.06
-1895.03
854.903
-1799.7
725.739
-1610.94
530.347
-1302.65
269.266
-863.193
-39.8689
-421.123
-222.604
-325.798
-131.81
1994.03
-294.107
1816.31
-417.111
1801.15
-495.654
1629.26
-563.464
1570.38
-597.624
1453.25
-615.031
1370.97
-609.754
1277.06
-586.213
1191.82
-544.212
1106.1
-485.005
1022.92
-409.048
939.597
-317.7
852.708
-215.507
752.705
-113.524
623.751
-27.9323
444.747
27.5075
213.807
62.4966
-74.8785
3.56528
-163.684
-322.232
28.5322
1965.5
15.5987
1829.24
28.1235
1788.62
60.393
1596.99
91.5336
1539.24
143.961
1400.82
200.997
1313.94
272.707
1205.34
352.725
1111.8
441.529
1017.3
536.249
928.196
635.711
840.132
736.786
751.63
831.762
657.726
903.35
552.159
915.911
432.183
826.514
303.2
549.173
202.458
269.728
115.754
-52.5046
48.6002
1916.89
66.3543
1811.48
98.0937
1756.88
127.181
1567.89
155.156
1511.26
187.068
1368.9
212.994
1288
239.295
1179.04
262.644
1088.45
291.884
988.048
331.607
888.468
387.607
784.124
466.273
672.96
575.214
548.779
707.992
419.377
819.902
320.269
828.995
294.106
683.565
347.886
394.422
404.895
341.917
-39.0253
1955.92
-76.3858
1848.84
-114.806
1795.3
-173.985
1627.07
-230.276
1567.55
-300.421
1439.05
-381.061
1368.64
-473.59
1271.56
-569.908
1184.76
-651.758
1069.9
-703.988
940.695
-716.089
796.222
-681.67
638.539
-599.417
466.523
-482.812
302.769
-344.333
181.787
-185.985
135.754
-24.0942
185.991
66.0203
314.777
407.937
-54.7476
2010.66
-160.005
1954.09
-238.711
1874
-332.186
1720.54
-425.049
1660.41
-527.467
1541.46
-637.868
1479.04
-756.292
1389.98
-880.396
1308.86
-999.457
1188.95
-1105.09
1046.32
-1190.05
881.185
-1256.25
704.738
-1309.68
519.943
-1349.13
342.219
-1336.58
169.241
-1215.38
14.5482
-930.701
-98.6853
-468.222
-147.704
-60.2846
86.2827
1924.38
-36.3033
2076.68
-89.3689
1927.07
-129.609
1760.78
-162.414
1693.21
-193.836
1572.88
-217.641
1502.84
-236.202
1408.55
-252.329
1324.99
-274.14
1210.77
-305.022
1077.21
-345.03
921.193
-394.391
754.102
-452.748
578.301
-510.752
400.229
-556.015
214.507
-582.552
41.0918
-565.793
-115.438
-407.14
-306.351
-467.425
246.532
1677.84
199.175
2124.03
188.936
1937.3
216.77
1732.94
267.574
1642.4
318.792
1521.66
385.852
1435.78
459.597
1334.79
541.832
1242.75
614.657
1137.93
667.969
1023.89
691.447
897.709
681.626
763.917
635.314
624.607
552.996
482.541
432.823
334.672
291.854
182.049
174.321
2.08203
45.72
-177.76
-421.705
265.555
1412.29
296.579
2093.01
304.55
1929.33
345.996
1691.5
414.747
1573.65
481.766
1454.64
557.497
1360.05
634.988
1257.3
717.547
1160.19
794.888
1060.59
859.155
959.626
900.752
856.112
913.73
750.939
893.641
644.696
838.008
538.173
743.72
428.959
608.856
316.913
423.655
187.282
211.534
34.3604
-210.171
178.057
1234.23
234.407
2036.66
260.951
1902.79
301.181
1651.27
361.329
1513.51
421.032
1394.94
482.968
1298.11
542.636
1197.64
601.298
1101.53
654.475
1007.41
697.986
916.113
726.895
827.204
737.9
739.933
728.982
653.614
698.438
568.715
641.053
486.343
547.655
410.311
403.405
331.532
204.922
232.843
-5.24924
66.3984
1167.84
117.075
1985.98
171.502
1848.37
226.855
1595.92
292.206
1448.16
359.076
1328.08
425.482
1231.71
488.962
1134.16
549.3
1041.2
606.302
950.42
660.397
862.024
712.707
774.9
763.3
689.344
807.35
609.569
830.886
545.182
809.045
508.187
716.941
502.418
537.803
510.672
283.082
487.565
277.833
-61.9331
1229.77
-7.8425
1931.89
78.866
1761.65
140.694
1534.09
195.56
1393.29
249.192
1274.44
308.119
1172.78
378.529
1063.75
465.247
954.478
573.933
841.732
706.584
729.37
858.738
622.747
1012.25
535.827
1133.51
488.31
1182.22
496.472
1124.84
565.569
949.553
677.704
669.234
790.988
337.905
818.89
615.738
-165.635
1395.41
-164.811
1931.07
-107.085
1703.93
-99.1224
1526.13
-130.327
1424.5
-176.007
1320.13
-212.411
1209.19
-228.285
1079.63
-217.928
944.129
-178.536
802.348
-109.818
660.662
-14.8762
527.815
98.6154
422.35
218.622
368.318
329.308
385.801
409.229
485.657
421.112
665.827
335.125
876.98
166.314
987.706
782.052
-72.1814
1467.59
-191.341
2050.23
-344.415
1857.01
-494.38
1676.1
-660.273
1590.4
-845.497
1505.35
-1033.47
1397.16
-1215.3
1261.46
-1388.68
1117.51
-1554.76
968.425
-1711.28
817.187
-1847.86
664.385
-1940.98
515.473
-1953.59
380.927
-1847.89
280.101
-1600.61
238.37
-1211.12
276.338
-726.361
392.215
-272.457
533.796
509.595
335.248
1132.34
453.756
1931.72
276.726
2034.03
44.2359
1908.59
-151.91
1786.53
-329.046
1682.49
-505.492
1573.59
-687.376
1443.35
-872.618
1302.74
-1060.01
1155.83
-1248.37
1005.52
-1434.14
850.155
-1608.97
690.273
-1755.28
527.231
-1838.85
363.642
-1803.17
202.682
-1586.83
59.9606
-1160.98
-33.6648
-557.86
-69.3676
-48.2652
632.981
499.372
1050.35
1514.36
1026.63
2057.76
844.626
2090.61
694.34
1936.83
592.409
1784.43
508.026
1657.99
418.517
1532.87
320.461
1400.81
215.398
1260.9
105.373
1115.56
-9.07782
964.615
-126.196
807.415
-241.65
642.696
-350.572
472.598
-442.179
294.3
-495.166
113
-482.812
-45.9793
-348.26
-203.885
-396.525
467.043
32.3398
664.095
1317.32
673.09
2048.76
651.522
2112.18
653.184
1935.17
682.495
1755.13
728.21
1612.27
775.29
1485.8
815.556
1360.54
845.387
1231.07
862.813
1098.14
864.215
963.216
843.701
827.931
793.965
692.434
708.92
557.645
582.007
421.214
411.395
283.619
231.611
133.813
80.6588
-52.9237
-315.866
53.2564
-20.9077
-125.782
1496.36
-142.788
2065.77
-63.858
2033.25
38.3988
1832.91
148.545
1644.98
265.334
1495.48
381.908
1369.22
489.873
1252.57
582.455
1138.49
655.696
1024.89
705.843
913.07
731.038
802.734
728.707
694.766
696.364
589.988
631.321
486.257
532.776
382.164
398.44
268.149
219.527
125.99
-96.3393
-502.368
-453.966
-206.159
53.1165
273.097
459.681
623.363
766.411
886.84
981.908
1049.63
1081.09
1078.56
1044.45
977.814
877.044
741.237
563.395
320.979
)
;

boundaryField
{
    outletWallLeft
    {
        type            calculated;
        value           nonuniform List<scalar> 
40
(
-553.108
-715.984
-888.292
-1070.05
-1260.81
-1456.69
-1655.49
-1853.31
-2052.21
-2241.31
-2442.31
-2604.71
-2847.98
-2913.17
-3421.81
-3286.02
-5080.67
-1205.86
-10845.7
12225.6
82574.8
-59105.9
12919.1
-31991.1
-2977.58
-10231.7
-3025.79
3148.39
13104.5
19638.2
22434.3
23221
14026.4
-46.4298
-2619.63
-12778.5
-16035.5
-71420.7
-211302
305639
)
;
    }
    fineWallsLeft
    {
        type            calculated;
        value           uniform 0;
    }
    fineFrontAndBackLeft
    {
        type            calculated;
        value           nonuniform List<scalar> 
880
(
-1.80503e-10
-2.5922e-11
-1.41002e-11
-4.32723e-12
3.39662e-12
-1.41898e-11
-5.65051e-12
-1.46814e-11
-1.07519e-11
-2.7925e-12
-6.43019e-12
-1.1516e-12
-2.89157e-12
3.97001e-13
9.8264e-13
6.37273e-12
2.13341e-12
6.89627e-12
5.3146e-12
1.02566e-12
-4.34789e-14
2.20919e-13
-4.92958e-13
-6.68923e-13
-7.41555e-13
-9.77937e-13
-9.99911e-13
-9.50756e-13
-9.0703e-13
-9.32845e-13
-9.31273e-13
-8.45753e-12
-9.22646e-13
-9.45482e-13
-1.00185e-12
-1.00002e-12
-9.91732e-13
-1.01013e-12
-9.30968e-13
-1.04441e-12
-1.38109e-11
-1.90344e-12
-1.81758e-12
-1.12673e-11
-1.69716e-12
-1.65804e-12
-1.61919e-12
-8.92363e-12
-1.27309e-12
-1.26822e-12
-5.06538e-12
-1.19749e-12
-3.91184e-12
-1.01e-11
-1.54893e-11
2.90557e-12
1.2528e-12
1.23198e-12
5.48284e-12
1.33982e-12
2.70806e-12
1.40772e-11
2.95782e-11
1.48872e-11
-1.06931e-12
-2.16465e-12
-1.21061e-12
-3.86814e-13
1.61411e-12
5.84283e-12
4.348e-12
-4.64896e-12
-1.19882e-11
-6.72933e-12
-4.08845e-12
-6.39352e-12
-1.38343e-11
-1.22294e-11
-7.84205e-12
3.61778e-12
2.52812e-11
4.62486e-11
2.60841e-11
1.18597e-12
-3.02528e-12
-1.50433e-12
-1.24282e-13
2.22915e-12
6.65333e-12
3.94295e-12
-4.21457e-12
-1.22468e-11
-8.37059e-12
-3.97599e-12
-2.06777e-12
-8.20815e-12
-1.48175e-11
-2.6002e-11
5.103e-12
3.87901e-11
6.40723e-11
3.88014e-11
8.6921e-12
-3.52096e-12
-4.65658e-13
3.91687e-14
3.21608e-12
6.71855e-12
3.12406e-12
-4.11165e-12
-1.30912e-11
-1.04699e-11
-6.03375e-12
-2.03099e-12
-5.33935e-12
-1.50052e-11
-1.61534e-11
7.12914e-12
5.36055e-11
8.14805e-11
5.17088e-11
2.78204e-11
7.63999e-12
3.82581e-12
-9.10938e-14
4.19778e-12
5.62051e-12
2.25756e-12
-4.29488e-12
-1.40717e-11
-1.21841e-11
-8.11131e-12
-3.40482e-12
-3.91629e-12
-1.16212e-11
-1.78334e-11
9.53289e-12
6.8971e-11
9.86174e-11
6.31801e-11
3.33004e-11
2.27298e-11
8.46547e-12
-3.22217e-13
4.72964e-12
3.40374e-12
1.53826e-12
-4.69216e-12
-1.50116e-11
-1.38555e-11
-1.00412e-11
-4.69235e-12
-3.18889e-12
-8.01781e-12
-1.65494e-11
1.20741e-11
8.43665e-11
1.1605e-10
7.41504e-11
3.12501e-11
2.01072e-11
6.58838e-12
-5.63281e-13
4.39935e-12
8.2176e-13
9.07705e-13
-5.2347e-12
-1.58259e-11
-1.54562e-11
-1.19216e-11
-6.07601e-12
-3.53014e-12
-4.32002e-12
-1.17098e-11
1.4472e-11
9.92398e-11
1.34465e-10
8.62817e-11
3.05721e-11
1.46752e-11
3.81464e-12
-8.29773e-13
2.91555e-12
-1.32325e-12