/*--------------------------------*- C++ -*----------------------------------*\
| =========                 |                                                 |
| \\      /  F ield         | OpenFOAM: The Open Source CFD Toolbox           |
|  \\    /   O peration     | Version:  4.1                                   |
|   \\  /    A nd           | Web:      www.OpenFOAM.org                      |
|    \\/     M anipulation  |                                                 |
\*---------------------------------------------------------------------------*/
FoamFile
{
    version     2.0;
    format      ascii;
    class       volVectorField;
    location    "23";
    object      U;
}
// * * * * * * * * * * * * * * * * * * * * * * * * * * * * * * * * * * * * * //

dimensions      [0 1 -1 0 0 0 0];

internalField   nonuniform List<vector> 
1680
(
(-4.96739e-14 -302.645 -290.923)
(-1.87332e-14 75.088 -151.259)
(-3.88033e-15 -43.8391 -39.2688)
(-3.12718e-15 4.11813 -7.69268)
(-1.71664e-15 12.4578 -9.95803)
(-3.90501e-15 2.27199 -11.3959)
(-4.08347e-15 5.83821 -7.2155)
(-4.04029e-15 7.72959 -5.72267)
(-2.95889e-15 8.62081 -1.93076)
(-1.89997e-15 6.93346 0.0799753)
(-1.76957e-15 9.62351 2.35783)
(-8.32235e-16 7.24479 2.63592)
(-7.95754e-16 7.90417 4.21847)
(1.09254e-16 7.64719 5.53064)
(7.10129e-16 5.53387 3.60024)
(1.75376e-15 6.69128 4.50973)
(1.54176e-15 4.7238 2.81907)
(1.89784e-15 4.4638 2.63469)
(1.46257e-15 5.53347 2.19466)
(7.41218e-16 2.19022 -1.66351)
(-1.78375e-16 4.25383 2.57198)
(8.85891e-17 2.76145 0.102344)
(-2.02239e-15 4.92719 6.85995)
(-2.7443e-15 5.34238 7.7634)
(-3.04228e-15 5.53819 8.66252)
(-4.01205e-15 5.66086 9.43571)
(-4.1022e-15 5.80564 10.0587)
(-3.90054e-15 5.87209 10.5468)
(-3.72115e-15 6.02275 10.9724)
(-3.82706e-15 5.96037 11.2638)
(-3.82061e-15 6.30214 11.7777)
(-3.39149e-15 5.80248 10.2854)
(-3.78521e-15 7.38983 13.275)
(-3.8789e-15 7.51789 13.6062)
(-4.11016e-15 7.59715 13.9236)
(-4.10266e-15 7.5914 14.2295)
(-4.06864e-15 7.71614 14.5409)
(-4.14413e-15 7.55547 14.7197)
(-3.81936e-15 7.92392 15.6128)
(-4.28476e-15 7.53552 14.3876)
(-4.80796e-15 10.254 16.0903)
(-3.05774e-15 6.97359 11.4312)
(-3.01978e-15 6.06114 10.7782)
(-3.92246e-15 6.31849 13.7711)
(-2.72636e-15 4.48406 9.61427)
(-2.66351e-15 4.22266 9.37292)
(-2.60111e-15 3.4785 9.06539)
(-3.10657e-15 2.97761 10.4179)
(-2.04512e-15 1.84844 6.65288)
(-2.0373e-15 1.72062 6.61201)
(-1.76341e-15 0.296756 5.10962)
(-1.92367e-15 0.352193 1.73039)
(-6.28408e-15 -0.0487342 1.25046)
(-1.62249e-14 0.210351 -0.697603)
(-1.85208e-14 -0.876318 -6.27633)
(4.66759e-15 -0.35515 -3.9429)
(2.01253e-15 -0.0394977 -4.12092)
(1.97909e-15 0.046909 -4.01072)
(1.90874e-15 -0.0165811 -4.43127)
(2.15232e-15 0.0773915 -3.32385)
(6.01792e-16 -16.7143 8.62365)
(3.12828e-15 -3.15817 22.0319)
(6.57293e-15 13.3135 18.429)
(3.30826e-15 14.5741 7.01861)
(-2.37623e-16 -2.70344 -6.68338)
(-4.81034e-16 -3.06407 -6.80714)
(-2.69026e-16 2.28204 -7.12051)
(-8.59587e-17 2.97582 -6.03226)
(3.5869e-16 -4.56992 -7.41379)
(1.29841e-15 -8.59182 -8.66394)
(9.66223e-16 -10.4191 -3.31552)
(-1.0331e-15 -10.3209 5.46397)
(-2.66405e-15 -3.26524 7.25981)
(-1.49541e-15 1.60503 9.22352)
(-9.08543e-16 4.32346 10.0175)
(-1.42078e-15 6.21581 11.5099)
(-3.07429e-15 6.1402 14.4757)
(-2.71765e-15 3.87144 13.4326)
(-1.74268e-15 1.03256 4.61477)
(8.03952e-16 -20.1994 8.29959)
(5.61804e-15 -4.23724 25.2687)
(1.02775e-14 14.8415 20.3095)
(5.79647e-15 17.3054 9.40949)
(2.63548e-16 -1.38211 -6.22866)
(-6.72285e-16 -2.80531 -7.87197)
(-3.34296e-16 2.0868 -8.42901)
(-2.76183e-17 2.96792 -6.77634)
(4.95366e-16 -4.34566 -7.15896)
(1.47852e-15 -9.04373 -8.06834)
(8.76212e-16 -11.7856 -1.96921)
(-9.36571e-16 -11.3045 5.16166)
(-2.72151e-15 -3.65909 6.71933)
(-1.86013e-15 1.37291 8.97702)
(-8.83554e-16 4.19079 9.28789)
(-4.59505e-16 5.8226 9.66615)
(-1.82403e-15 5.71786 12.1966)
(-3.29279e-15 4.61154 14.6148)
(-5.77822e-15 3.65796 9.35805)
(1.134e-15 -24.0193 7.99197)
(8.62002e-15 -5.47717 28.225)
(1.42383e-14 16.4506 21.1406)
(8.62253e-15 20.1771 11.4468)
(1.93158e-15 0.308363 -5.5954)
(-7.82435e-16 -2.2293 -8.87996)
(-1.0348e-16 1.85815 -9.68529)
(8.70416e-18 2.82117 -7.49376)
(7.14684e-16 -4.30194 -6.93913)
(1.49301e-15 -9.66253 -6.47605)
(6.94235e-16 -13.024 0.0806141)
(-9.13699e-16 -12.0423 4.77934)
(-2.90915e-15 -4.06678 6.20701)
(-2.32665e-15 1.13568 8.60048)
(-1.34083e-15 4.17147 8.74846)
(-4.51331e-16 5.64766 8.50351)
(-1.18652e-15 5.16462 9.58414)
(-3.3345e-15 4.50559 13.4861)
(-3.58964e-15 4.9369 12.6709)
(1.58425e-15 -28.1485 7.52702)
(1.19123e-14 -6.75394 30.6482)
(1.81068e-14 18.1425 20.6358)
(1.14909e-14 23.0759 12.9856)
(6.18232e-15 2.06602 -6.2953)
(1.69778e-15 -1.50689 -10.0093)
(8.50181e-16 1.5984 -10.7801)
(-2.02431e-17 2.54816 -8.04923)
(9.32841e-16 -4.55181 -6.46181)
(1.249e-15 -10.4694 -3.79431)
(5.0168e-16 -14.0034 1.93046)
(-9.54418e-16 -12.5107 4.2284)
(-3.12705e-15 -4.4705 5.58898)
(-2.70757e-15 0.898223 7.91051)
(-1.80251e-15 4.18865 7.97871)
(-7.56627e-16 5.66175 7.57301)
(-8.70287e-16 4.70952 7.19512)
(-2.5825e-15 3.96496 11.1394)
(-3.96298e-15 5.46424 13.7714)
(2.11842e-15 -32.5157 6.65128)
(1.53269e-14 -7.94731 32.4469)
(2.1915e-14 19.8987 18.6759)
(1.404e-14 25.9397 13.9666)
(7.4001e-15 4.32877 -7.61142)
(5.05107e-15 -0.825028 -11.8581)
(1.88122e-15 1.14705 -11.761)
(-7.16037e-17 2.078 -8.35534)
(1.05103e-15 -5.17057 -5.24366)
(7.56386e-16 -11.3683 -0.487015)
(3.41835e-16 -14.5933 3.00036)
(-1.0427e-15 -12.7566 3.51395)
(-3.33591e-15 -4.85069 4.80019)
(-3.07899e-15 0.682591 6.95767)
(-2.23137e-15 4.21387 6.90842)
(-1.04275e-15 5.81143 6.62073)
(-7.08643e-16 4.49922 5.1568)
(-1.78174e-15 3.13899 7.30041)
(-3.67765e-15 5.24971 12.0121)
(2.68313e-15 -37.0149 5.12052)
(1.87481e-14 -8.95711 33.7043)
(2.57889e-14 21.7171 15.319)
(1.64779e-14 28.6551 14.2806)
(6.94446e-15 6.7868 -8.68952)
(4.46827e-15 -0.114603 -12.9422)
(1.46409e-15 0.545392 -12.1703)
(-1.25174e-16 1.34653 -8.36252)
(9.77633e-16 -6.15394 -2.94035)
(1.82613e-16 -12.1456 2.38203)
(2.01712e-16 -14.7715 3.24855)
(-1.16327e-15 -12.8536 2.67347)
(-3.51686e-15 -5.19669 3.83164)
(-3.43471e-15 0.495162 5.81759)
(-2.64924e-15 4.23429 5.57595)
(-1.35022e-15 6.01014 5.52866)
(-7.84476e-16 4.64986 3.65959)
(-9.60005e-16 2.46359 3.49496)
(-2.60217e-15 4.5938 7.14506)
(3.216e-15 -41.5047 2.72732)
(2.20533e-14 -9.73283 34.7092)
(2.98812e-14 23.6244 10.7715)
(1.91737e-14 31.0681 13.7345)
(6.79381e-15 9.27053 -9.47445)
(3.26115e-15 0.506807 -12.683)
(8.47697e-16 -0.158959 -11.9113)
(-1.84394e-16 0.379808 -7.97148)
(6.479e-16 -7.38824 0.0500627)
(-2.94055e-16 -12.615 4.07971)
(4.89869e-17 -14.6256 2.95607)
(-1.30437e-15 -12.8528 1.7388)
(-3.65772e-15 -5.5075 2.702)
(-3.75331e-15 0.327954 4.55573)
(-3.03254e-15 4.24786 4.04823)
(-1.61538e-15 6.19606 4.26289)
(-9.6383e-16 4.9406 2.15228)
(-7.26038e-16 2.46147 1.77475)
(-6.19012e-16 2.23498 1.10748)
(3.66397e-15 -45.9391 -0.579018)
(2.5206e-14 -10.2283 35.8563)
(3.43499e-14 25.7009 5.32693)
(2.22387e-14 33.0566 12.164)
(6.81946e-15 11.5769 -9.95022)
(2.29593e-15 0.950667 -11.4106)
(2.01636e-16 -0.86891 -10.946)
(-2.47227e-16 -0.721287 -6.40656)
(1.65074e-16 -8.65495 2.74706)
(-6.16913e-16 -12.7287 4.62315)
(-1.32685e-16 -14.2823 2.42428)
(-1.45304e-15 -12.7805 0.733376)
(-3.75369e-15 -5.76638 1.42422)
(-4.01712e-15 0.235082 3.24705)
(-3.36218e-15 4.26077 2.37879)
(-1.84167e-15 6.39632 2.9243)
(-1.10789e-15 5.18839 0.356274)
(-8.32819e-16 2.62323 0.387082)
(4.77591e-16 2.61844 1.06568)
(4.02092e-15 -50.1578 -4.53917)
(2.82892e-14 -10.5127 37.6105)
(3.91468e-14 28.0833 -0.609433)
(2.56732e-14 34.5104 9.50836)
(6.96374e-15 13.5705 -10.0762)
(1.38607e-15 1.35036 -8.65064)
(-5.17463e-16 -1.58664 -8.94266)
(-1.2186e-16 -2.0161 -3.44528)
(-3.35852e-16 -9.66024 4.47157)
(-8.23959e-16 -12.5517 4.45756)
(-3.37519e-16 -13.8261 1.84417)
(-1.60093e-15 -12.6254 -0.313631)
(-3.78581e-15 -5.96837 -0.0424666)
(-4.2146e-15 0.223366 2.03392)
(-3.60552e-15 4.35486 0.630121)
(-2.0296e-15 6.61233 1.46396)
(-1.23833e-15 5.50175 -1.36432)
(-9.24611e-16 2.29585 -1.74461)
(1.34317e-15 2.48785 3.16781)
(4.34552e-15 -54.469 -8.55204)
(3.15351e-14 -10.4549 40.224)
(4.41491e-14 30.9772 -6.60293)
(2.93396e-14 35.3713 5.97638)
(7.11064e-15 14.7507 -9.87356)
(3.31685e-16 1.57931 -1.81536)
(-1.13923e-15 -2.13849 -5.56313)
(7.96515e-17 -3.18216 -0.959332)
(-7.48492e-16 -10.3168 5.19218)
(-9.74022e-16 -12.2117 4.00549)
(-5.48554e-16 -13.3142 1.30859)
(-1.74935e-15 -12.3782 -1.35739)
(-3.72827e-15 -6.13871 -1.68582)
(-4.34244e-15 -0.306851 0.543505)
(-3.73877e-15 4.52412 -1.06921)
(-2.18183e-15 6.82061 -0.252526)
(-1.36919e-15 5.85445 -3.16224)
(-1.07642e-15 1.73614 -4.01611)
(1.87065e-15 1.67747 4.22077)
(4.81583e-15 -58.3927 -11.8621)
(3.54763e-14 -10.2336 44.0623)
(4.93409e-14 34.5654 -12.477)
(3.30033e-14 35.6459 2.04459)
(7.19167e-15 14.193 -9.24991)
(-9.30338e-16 0.346416 9.76187)
(-1.27063e-15 -2.18821 -3.71641)
(2.92192e-16 -4.04338 0.517711)
(-1.04771e-15 -10.7008 5.24176)
(-1.10945e-15 -11.7695 3.50995)
(-7.56091e-16 -12.7283 0.850785)
(-1.8893e-15 -11.9872 -2.33665)
(-3.60796e-15 -6.17838 -3.36802)
(-4.26208e-15 -0.464631 -2.53218)
(-3.75572e-15 4.53175 -2.66062)
(-2.29945e-15 7.06585 -2.20738)
(-1.53437e-15 6.2486 -5.50469)
(-1.24389e-15 0.763813 -6.77315)
(1.63557e-15 0.987716 5.57709)
(5.60649e-15 -63.6115 -13.7938)
(4.07973e-14 -9.42048 48.8749)
(5.49956e-14 38.8401 -18.7384)
(3.63425e-14 35.2779 -1.43636)
(7.41239e-15 12.7164 -8.42099)
(-9.16014e-16 0.821145 9.29443)
(-7.87341e-16 -1.48169 -4.1293)
(4.38954e-16 -4.80345 1.01095)
(-1.25944e-15 -10.9833 4.92567)
(-1.25192e-15 -11.3587 3.06472)
(-9.57252e-16 -12.1546 0.486647)
(-2.01384e-15 -11.5285 -3.19308)
(-3.46451e-15 -6.10721 -4.94993)
(-4.1076e-15 -0.679446 -5.25698)
(-3.67604e-15 4.41888 -4.19199)
(-2.38116e-15 7.42295 -4.47093)
(-1.75075e-15 6.72945 -8.69828)
(-1.46621e-15 -0.309644 -9.78187)
(4.31047e-16 -0.332715 5.00236)
(7.13933e-15 -67.1183 -14.2588)
(4.99136e-14 -8.03549 56.3636)
(6.11639e-14 43.7879 -25.4621)
(3.90815e-14 34.2229 -3.98177)
(7.17101e-15 11.2786 -7.6603)
(-4.48781e-16 1.11812 7.5201)
(-3.25069e-16 -0.802854 -4.7842)
(5.22976e-16 -5.53697 1.30863)
(-1.41716e-15 -11.1033 4.42352)
(-1.4096e-15 -10.8353 2.66746)
(-1.15596e-15 -11.4112 0.221898)
(-2.12363e-15 -10.8204 -3.86949)
(-3.32781e-15 -5.72687 -6.31226)
(-3.95053e-15 -0.396406 -7.23647)
(-3.52236e-15 4.35575 -5.4942)
(-2.44361e-15 8.00619 -7.22781)
(-2.00837e-15 7.30002 -12.8522)
(-1.64844e-15 -1.42722 -12.7831)
(-4.22739e-16 -2.9367 1.06052)
(1.08072e-14 -76.9183 -12.3604)
(6.78203e-14 -6.769 64.4251)
(6.78333e-14 49.9296 -32.6075)
(4.09448e-14 32.4197 -5.3113)
(5.86376e-15 9.69256 -6.08219)
(-2.44732e-16 1.20465 5.88962)
(-3.07108e-18 -0.881775 -4.23671)
(5.28743e-16 -6.45639 1.89522)
(-1.54343e-15 -11.3661 3.84435)
(-1.58457e-15 -10.6445 2.28447)
(-1.35625e-15 -10.9645 0.055459)
(-2.22419e-15 -10.3157 -4.35366)
(-3.21057e-15 -5.56851 -7.4107)
(-3.80187e-15 -1.16415 -8.72697)
(-3.32626e-15 4.3278 -6.77462)
(-2.50307e-15 8.93611 -10.6564)
(-2.21149e-15 7.883 -17.2342)
(-1.80212e-15 -2.87144 -15.7797)
(-1.13642e-15 -3.44521 -2.23398)
(1.55733e-14 -76.456 -8.90384)
(7.17831e-14 1.96384 74.6024)
(7.49871e-14 57.6365 -40.3519)
(4.15962e-14 29.8017 -5.41298)
(3.74406e-15 8.12589 -3.71083)
(-1.83451e-17 1.51463 5.03054)
(4.93316e-16 -0.526495 -3.19634)
(4.55425e-16 -6.68825 2.36365)
(-1.64216e-15 -10.9844 3.1602)
(-1.77568e-15 -9.80038 1.80489)
(-1.55766e-15 -9.77042 -0.0355216)
(-2.31798e-15 -9.01744 -4.60536)
(-3.11254e-15 -4.54678 -8.12897)
(-3.64657e-15 0.02002 -9.43397)
(-3.14658e-15 4.79636 -8.52311)
(-2.54553e-15 10.1494 -14.5893)
(-2.10089e-15 8.31302 -19.2139)
(-1.89817e-15 -4.5252 -18.0311)
(-1.48885e-15 -7.75193 -2.90235)
(1.53855e-14 -102.821 -9.69664)
(5.00606e-14 2.39601 30.1616)
(8.27047e-14 63.3041 -49.1158)
(3.98311e-14 26.2899 -4.59253)
(1.43564e-15 6.71369 -0.823769)
(2.30146e-16 1.72905 4.96315)
(6.84631e-16 -1.6939 -0.231431)
(3.18671e-16 -7.8299 2.89863)
(-1.70984e-15 -11.7896 2.51013)
(-1.97972e-15 -10.6874 1.15744)
(-1.77217e-15 -10.393 -0.223338)
(-2.40946e-15 -9.33336 -4.83446)
(-3.0237e-15 -5.30671 -8.75083)
(-3.4498e-15 -2.09663 -9.92548)
(-3.06807e-15 5.13596 -11.6124)
(-2.4641e-15 11.1574 -17.8143)
(-1.29416e-15 8.7395 -14.0106)
(-1.82684e-15 -5.71357 -18.7886)
(-1.73821e-15 -4.04774 -7.44138)
(2.01409e-14 -63.0855 -26.4516)
(6.81157e-14 23.7002 -30.1178)
(9.10559e-14 64.0299 -59.8326)
(3.37007e-14 21.3349 -3.23807)
(-1.84608e-16 5.15908 2.13717)
(3.27177e-16 2.24805 6.06651)
(6.02393e-16 0.596549 0.421917)
(2.14655e-16 -6.05593 2.78077)
(-1.71008e-15 -9.37409 1.66426)
(-2.14885e-15 -7.67363 0.323638)
(-1.98763e-15 -6.86329 -0.415103)
(-2.47952e-15 -5.73043 -4.7115)
(-2.92012e-15 -1.90449 -8.70738)
(-3.11959e-15 2.20567 -8.02524)
(-3.12762e-15 6.71946 -16.2055)
(-2.07686e-15 10.6156 -17.9292)
(2.39232e-16 8.80952 0.797559)
(-1.54929e-15 -6.93761 -15.1048)
(-1.54415e-15 -17.368 -7.43197)
(-1.17923e-14 -152.561 -1.55257)
(1.08673e-13 -14.8527 -92.8156)
(9.6355e-14 52.0896 -64.7216)
(2.19675e-14 15.4794 0.832)
(-5.83743e-16 3.34936 4.41231)
(2.92596e-16 1.99499 8.59144)
(4.48575e-16 -3.52545 4.09057)
(5.69835e-17 -10.2644 4.07426)
(-1.68643e-15 -14.3784 1.18553)
(-2.32516e-15 -14.0189 -1.18812)
(-2.3319e-15 -13.3058 -2.2893)
(-2.663e-15 -11.1735 -6.3563)
(-2.95984e-15 -7.93959 -11.0355)
(-2.95823e-15 -3.53222 -10.9294)
(-3.23943e-15 6.27844 -21.7877)
(-1.36194e-15 7.59075 -13.9732)
(1.44673e-15 7.45714 15.2291)
(-1.4721e-15 -1.96154 -16.4575)
(-2.26569e-15 12.0556 -17.0898)
(1.2748e-13 95.7843 -128.906)
(1.65921e-13 8.25031 -132.706)
(8.4953e-14 38.718 -47.2682)
(5.87336e-15 8.43896 11.6798)
(-1.41276e-16 4.01273 4.23742)
(1.88161e-16 3.5451 10.8573)
(3.09768e-16 5.67003 6.13682)
(1.3443e-16 0.543548 0.230865)
(-1.27775e-15 -0.671611 0.188076)
(-1.84458e-15 1.95374 -0.211661)
(-1.85395e-15 3.64951 0.717337)
(-2.06615e-15 4.71484 -1.92136)
(-2.22228e-15 7.19996 -4.74094)
(-3.72486e-15 8.72636 -22.0207)
(-2.95773e-15 8.38873 -22.9572)
(-6.12337e-16 3.71232 -9.4458)
(1.34013e-15 7.35963 15.8827)
(1.45997e-15 -2.28834 18.9205)
(-5.65814e-16 -62.8364 -2.65102)
(-8.31148e-13 -383.743 598.135)
(8.84486e-14 119.635 -100.787)
(4.58645e-14 57.0505 -14.4896)
(-1.62425e-15 7.07527 19.8195)
(1.1373e-16 6.48699 1.09355)
(9.67899e-17 0.619468 9.09693)
(7.11163e-17 -8.5309 16.5545)
(-5.04121e-16 -20.8008 13.3999)
(-2.5798e-15 -30.3407 -0.282772)
(-4.26135e-15 -31.5904 -10.7322)
(-5.20667e-15 -30.4404 -18.2949)
(-5.48776e-15 -25.0497 -25.4299)
(-5.43768e-15 -16.7499 -32.0009)
(-3.83836e-15 -5.27985 -28.4208)
(-1.23027e-15 4.58943 -10.6205)
(-2.68944e-17 1.41197 -8.08142)
(5.12095e-16 14.2286 6.15519)
(-4.80759e-15 -6.80777 -65.1265)
(1.03093e-14 94.7324 58.7374)
(1.11356e-17 5.17094 9.5848)
(-2.84243e-15 9.79221 16.7927)
(-1.90151e-15 9.87555 16.9831)
(-1.77288e-15 9.61924 16.2751)
(-1.8736e-15 9.57332 16.1195)
(-4.40297e-15 9.62411 16.0841)
(-3.61154e-15 9.6439 16.0672)
(-3.05888e-15 9.67558 16.0489)
(-2.56206e-15 9.68332 16.0358)
(-3.50959e-15 9.71668 16.0382)
(-3.50157e-15 9.69947 16.0242)
(-3.57489e-15 9.62891 15.8169)
(-3.29287e-15 9.67956 15.9705)
(-3.03705e-15 9.69516 16.0234)
(-3.50387e-15 9.68637 16.0417)
(-2.92462e-15 9.64761 16.0785)
(-2.74395e-15 9.64042 16.072)
(-2.73473e-15 9.74762 16.4589)
(-2.28065e-15 10.2474 17.1343)
(-3.51692e-15 6.33195 11.0866)
(2.99859e-17 4.83044 8.12885)
(-1.49939e-15 9.23966 15.8366)
(-7.60281e-16 9.10442 15.6069)
(-6.73653e-16 8.78872 15.0637)
(-6.44364e-16 8.77522 15.0614)
(-2.62829e-15 8.81397 15.0917)
(-1.6711e-15 8.82226 15.1215)
(-1.80549e-15 8.8468 15.1413)
(-1.14234e-15 8.86027 15.1712)
(-2.29407e-15 8.87734 15.1944)
(-2.20548e-15 8.89658 15.2282)
(-2.08324e-15 8.93578 15.2996)
(-1.96263e-15 8.94944 15.2954)
(-1.77263e-15 8.95242 15.3253)
(-2.04132e-15 8.97648 15.3532)
(-1.65012e-15 8.97219 15.3905)
(-1.47922e-15 9.00022 15.4171)
(-1.60366e-15 9.18049 15.8038)
(-1.24984e-15 9.56982 16.4374)
(-2.07469e-15 5.70164 9.94733)
(-1.8594e-17 5.50152 9.5823)
(-7.81406e-16 9.6033 16.4237)
(-6.97867e-16 9.29326 16.0199)
(-6.38421e-16 9.04999 15.536)
(-5.40723e-16 9.01576 15.5234)
(-1.22679e-15 9.03497 15.5219)
(-6.93055e-16 9.02355 15.5267)
(-4.89958e-16 9.03141 15.5218)
(-9.7946e-17 9.02536 15.5248)
(-5.64713e-16 9.02995 15.5251)
(-5.83847e-16 9.02764 15.5275)
(-2.88281e-16 9.02204 15.5227)
(-4.99186e-16 9.02472 15.5338)
(-3.91871e-16 9.02207 15.5449)
(-1.60868e-16 9.02869 15.5483)
(-6.48088e-16 9.01259 15.5603)
(-2.64334e-16 9.02899 15.5597)
(-3.93499e-16 9.19774 15.9313)
(-2.39807e-16 9.59627 16.5449)
(-5.91835e-16 5.79195 10.161)
(3.77194e-18 5.57832 9.61038)
(4.83047e-18 9.47211 16.2585)
(-3.34501e-17 9.1229 15.7346)
(-2.1806e-17 8.90274 15.316)
(-6.16717e-17 8.88226 15.3236)
(-9.77321e-16 8.90175 15.332)
(-1.10939e-15 8.89318 15.3453)
(-6.37862e-16 8.9023 15.3488)
(-7.25958e-16 8.89836 15.3597)
(-8.35952e-16 8.90366 15.3656)
(-8.78352e-16 8.90316 15.3752)
(-6.65099e-16 8.9067 15.3859)
(-7.88793e-16 8.90937 15.3922)
(-8.43473e-16 8.90677 15.4038)
(-7.64278e-16 8.9146 15.4092)
(-9.8901e-16 8.90257 15.4208)
(-6.892e-16 8.91871 15.4227)
(-8.19448e-16 9.09482 15.7861)
(-5.93727e-16 9.48658 16.4173)
(-1.26256e-15 5.81176 10.1601)
(2.40646e-19 5.84671 10.1185)
(-4.00996e-17 9.52445 16.3437)
(-1.7438e-17 9.11338 15.7341)
(-3.10447e-17 8.92365 15.3595)
(-2.11678e-17 8.90242 15.3694)
(8.98095e-17 8.91783 15.3721)
(1.2185e-16 8.90641 15.3812)
(9.6641e-17 8.91229 15.3812)
(4.3821e-18 8.90557 15.3881)
(1.21707e-16 8.90805 15.3907)
(1.18276e-16 8.90462 15.3964)
(6.05607e-17 8.90404 15.4007)
(9.05692e-17 8.90391 15.4057)
(6.77436e-17 8.90032 15.4135)
(4.94642e-17 8.90487 15.416)
(1.098e-16 8.89248 15.4237)
(4.88192e-17 8.90503 15.4208)
(6.79574e-17 9.0645 15.7537)
(3.3623e-17 9.47711 16.4211)
(9.4832e-17 5.96994 10.4502)
(-3.19301e-19 6.02121 10.4002)
(2.04208e-17 9.49106 16.3012)
(1.56418e-17 9.04965 15.6256)
(1.70815e-17 8.88295 15.2968)
(1.76432e-17 8.86649 15.3114)
(-6.77721e-17 8.88085 15.315)
(-5.15634e-17 8.87073 15.325)
(-5.88682e-17 8.87661 15.3264)
(-3.4108e-17 8.87069 15.3342)
(-6.72085e-17 8.87338 15.3377)
(-6.08842e-17 8.87028 15.3443)
(-5.80315e-17 8.87066 15.3497)
(-5.88294e-17 8.87029 15.3551)
(-4.92784e-17 8.8676 15.3627)
(-4.94674e-17 8.87142 15.3662)
(-5.39775e-17 8.86119 15.3738)
(-4.52828e-17 8.87089 15.3698)
(-4.66876e-17 9.01401 15.6679)
(-4.63372e-17 9.44695 16.3798)
(-5.95918e-17 6.12969 10.7209)
(1.29773e-19 6.22309 10.752)
(-6.17244e-18 9.48301 16.2908)
(-5.59609e-18 9.01359 15.5665)
(-5.12599e-18 8.86977 15.2778)
(-6.01799e-18 8.8551 15.294)
(2.8812e-17 8.86772 15.2962)
(2.32467e-17 8.85774 15.3051)
(2.27425e-17 8.86271 15.3061)
(1.94039e-17 8.85673 15.313)
(2.51926e-17 8.85884 15.3159)
(2.38656e-17 8.8554 15.3218)
(2.52972e-17 8.85551 15.3262)
(2.44038e-17 8.85443 15.3313)
(2.21994e-17 8.85216 15.3378)
(2.25764e-17 8.85476 15.3412)
(2.32337e-17 8.84602 15.348)
(2.05111e-17 8.85302 15.3427)
(2.1238e-17 8.97785 15.6041)
(2.11684e-17 9.42788 16.3497)
(2.67847e-17 6.3094 11.0327)
(-4.12526e-20 6.40974 11.0674)
(1.61333e-18 9.45644 16.2517)
(1.52733e-18 8.97051 15.4927)
(1.28298e-18 8.84754 15.243)
(1.61464e-18 8.83526 15.2605)
(-8.56088e-18 8.84665 15.2626)
(-7.27954e-18 8.83752 15.2711)
(-6.55597e-18 8.84211 15.2725)
(-6.35605e-18 8.83666 15.2793)
(-7.00022e-18 8.83868 15.2823)
(-6.84742e-18 8.83541 15.2883)
(-7.60122e-18 8.83581 15.2926)
(-7.13588e-18 8.83445 15.2979)
(-6.78757e-18 8.83295 15.304)
(-6.77633e-18 8.83469 15.3079)
(-6.98601e-18 8.82778 15.3146)
(-6.53969e-18 8.83254 15.3091)
(-6.6142e-18 8.94004 15.5349)
(-6.45884e-18 9.40051 16.304)
(-8.09834e-18 6.4883 11.3397)
(1.1631e-20 6.59942 11.3916)
(-3.96289e-19 9.4293 16.2098)
(-3.64043e-19 8.93383 15.4301)
(-2.97399e-19 8.83061 15.2167)
(-3.90745e-19 8.81987 15.2345)
(2.23614e-18 8.82999 15.236)
(1.87919e-18 8.82152 15.244)
(1.69143e-18 8.82556 15.2454)
(1.71599e-18 8.82051 15.2518)
(1.74146e-18 8.82226 15.2548)
(1.73145e-18 8.81908 15.2605)
(1.97125e-18 8.81959 15.2645)
(1.80173e-18 8.8179 15.2698)
(1.78767e-18 8.81702 15.2752)
(1.7486e-18 8.81785 15.2796)
(1.76995e-18 8.8126 15.2858)
(1.80051e-18 8.81539 15.2806)
(1.75516e-18 8.90639 15.4725)
(1.70949e-18 9.37025 16.2522)
(2.09939e-18 6.66922 11.6513)
(-3.08072e-21 6.78562 11.7083)
(9.40036e-20 9.39444 16.155)
(8.13023e-20 8.89791 15.3685)
(6.76999e-20 8.81292 15.1891)
(9.13518e-20 8.80354 15.2067)
(-5.5072e-19 8.81253 15.208)
(-4.41151e-19 8.80483 15.2154)
(-4.12959e-19 8.8084 15.2171)
(-4.17967e-19 8.80386 15.2232)
(-4.17406e-19 8.8054 15.2262)
(-4.19084e-19 8.80244 15.2318)
(-4.72187e-19 8.80308 15.2356)
(-4.2518e-19 8.80118 15.241)
(-4.35731e-19 8.80094 15.246)
(-4.1999e-19 8.80095 15.2508)
(-4.14722e-19 8.79735 15.2566)
(-4.46086e-19 8.79846 15.2523)
(-4.26743e-19 8.87433 15.4124)
(-4.21763e-19 9.33406 16.19)
(-5.07179e-19 6.84906 11.9604)
(7.999e-22 6.97114 12.0244)
(-2.19403e-20 9.35482 16.0918)
(-1.79477e-20 8.86503 15.3121)
(-1.57502e-20 8.79678 15.164)
(-2.14599e-20 8.78839 15.1809)
(1.31996e-19 8.79631 15.1819)
(1.00245e-19 8.78934 15.1889)
(9.79594e-20 8.79241 15.1907)
(9.73113e-20 8.78837 15.1964)
(9.98818e-20 8.78964 15.1995)
(1.00544e-19 8.78692 15.2048)
(1.08918e-19 8.78761 15.2085)
(9.84154e-20 8.78555 15.214)
(1.01907e-19 8.78587 15.2184)
(9.72223e-20 8.78509 15.2236)
(9.52847e-20 8.78304 15.2289)
(1.03411e-19 8.78267 15.226)
(9.96083e-20 8.84486 15.3568)
(1.01285e-19 9.29288 16.1191)
(1.18594e-19 7.02829 12.2685)
(-2.07655e-22 7.15505 12.3374)
(5.11822e-21 9.30931 16.0184)
(4.05846e-21 8.8343 15.2593)
(3.77401e-21 8.78115 15.1398)
(5.11268e-21 8.77355 15.1555)
(-3.12404e-20 8.78048 15.1565)
(-2.28298e-20 8.77424 15.163)
(-2.30531e-20 8.77684 15.165)
(-2.26703e-20 8.77331 15.1704)
(-2.4011e-20 8.7743 15.1735)
(-2.40178e-20 8.77188 15.1786)
(-2.48885e-20 8.77256 15.1822)
(-2.30159e-20 8.77043 15.1877)
(-2.34e-20 8.77125 15.1917)
(-2.21256e-20 8.76975 15.1973)
(-2.2124e-20 8.76917 15.2021)
(-2.34202e-20 8.7675 15.2007)
(-2.31315e-20 8.8176 15.3049)
(-2.43841e-20 9.24624 16.0389)
(-2.73321e-20 7.20647 12.5747)
(5.34889e-23 7.3378 12.6485)
(-1.19914e-21 9.25841 15.9357)
(-9.46218e-22 8.80612 15.2109)
(-9.12302e-22 8.76637 15.117)
(-1.2195e-21 8.75936 15.1314)
(7.32289e-21 8.76537 15.1323)
(5.27157e-21 8.75985 15.1383)
(5.44027e-21 8.76197 15.1405)
(5.37973e-21 8.75897 15.1455)
(5.72759e-21 8.75964 15.1487)
(5.67769e-21 8.75757 15.1536)
(5.69345e-21 8.75817 15.1571)
(5.48271e-21 8.75606 15.1625)
(5.34301e-21 8.75725 15.1662)
(5.02075e-21 8.75514 15.1721)
(5.21224e-21 8.75591 15.1762)
(5.3378e-21 8.75306 15.1766)
(5.43333e-21 8.79275 15.2571)
(5.91498e-21 9.1943 15.9496)
(6.23209e-21 7.38372 12.8791)
(-1.33942e-23 7.51934 12.9574)
(2.79822e-22 9.20192 15.8433)
(2.23326e-22 8.78031 15.1665)
(2.16975e-22 8.75223 15.0952)
(2.86093e-22 8.74565 15.108)
(-1.69264e-21 8.75085 15.109)
(-1.2283e-21 8.74602 15.1146)
(-1.28149e-21 8.74767 15.117)
(-1.28494e-21 8.7452 15.1216)
(-1.33627e-21 8.74555 15.1249)
(-1.32153e-21 8.74386 15.1295)
(-1.29933e-21 8.74431 15.133)
(-1.31471e-21 8.74233 15.1382)
(-1.21839e-21 8.74376 15.1417)
(-1.14557e-21 8.74118 15.1479)
(-1.23048e-21 8.74316 15.1514)
(-1.23073e-21 8.73923 15.1536)
(-1.28336e-21 8.77024 15.2132)
(-1.42244e-21 9.13696 15.8512)
(-1.39651e-21 7.55999 13.1815)
(3.21126e-24 7.69989 13.2645)
(-6.41798e-23 9.13993 15.7413)
(-5.21081e-23 8.75695 15.1265)
(-5.0136e-23 8.73878 15.0745)
(-6.52828e-23 8.73252 15.0857)
(3.83483e-22 8.73697 15.0868)
(2.85472e-22 8.73282 15.0919)
(2.97528e-22 8.73399 15.0944)
(3.02344e-22 8.73206 15.0987)
(3.02886e-22 8.73207 15.102)
(3.02189e-22 8.73077 15.1063)
(2.93684e-22 8.73101 15.1099)
(3.11253e-22 8.72928 15.1149)
(2.77224e-22 8.73077 15.1182)
(2.62766e-22 8.72792 15.1245)
(2.86573e-22 8.73089 15.1274)
(2.83778e-22 8.72601 15.1316)
(2.99967e-22 8.75008 15.1733)
(3.32617e-22 9.07422 15.7437)
(3.04831e-22 7.7353 13.4818)
(-7.36094e-25 7.87976 13.5702)
(1.4353e-23 9.0725 15.6298)
(1.18539e-23 8.73614 15.0909)
(1.12792e-23 8.72618 15.055)
(1.44711e-23 8.72014 15.0646)
(-8.4919e-23 8.72389 15.0658)
(-6.55256e-23 8.72045 15.0704)
(-6.74643e-23 8.7211 15.0731)
(-6.91726e-23 8.71966 15.0769)
(-6.68618e-23 8.71937 15.0804)
(-6.78353e-23 8.71842 15.0843)
(-6.5469e-23 8.7184 15.0879)
(-7.1735e-23 8.71701 15.0927)
(-6.27901e-23 8.71831 15.0959)
(-6.01668e-23 8.71547 15.1022)
(-6.52243e-23 8.7191 15.1046)
(-6.46e-23 8.71341 15.1104)
(-6.8557e-23 8.73226 15.1373)
(-7.50131e-23 9.00614 15.6274)
(-6.46133e-23 7.90968 13.7798)
(1.63713e-25 8.05938 13.8752)
(-3.13981e-24 8.99947 15.508)
(-2.63202e-24 8.7178 15.0596)
(-2.50405e-24 8.71455 15.0366)
(-3.14468e-24 8.70877 15.0447)
(1.84397e-23 8.71173 15.0461)
(1.48122e-23 8.70916 15.0501)
(1.4949e-23 8.70929 15.0529)
(1.53917e-23 8.7083 15.0564)
(1.45139e-23 8.70781 15.0598)
(1.49732e-23 8.70712 15.0635)
(1.44132e-23 8.70686 15.0671)
(1.60453e-23 8.70588 15.0715)
(1.41561e-23 8.70673 15.0749)
(1.36589e-23 8.70428 15.0808)
(1.45206e-23 8.70799 15.083)
(1.44537e-23 8.70176 15.0903)
(1.52995e-23 8.71697 15.1052)
(1.64383e-23 8.93309 15.5027)
(1.33938e-23 8.08318 14.0752)
(-3.6354e-26 8.23966 14.1804)
(6.81775e-25 8.92059 15.3748)
(5.79074e-25 8.70165 15.0324)
(5.59339e-25 8.70362 15.0189)
(6.82902e-25 8.6985 15.0253)
(-3.96622e-24 8.70034 15.0269)
(-3.31799e-24 8.69872 15.0302)
(-3.27288e-24 8.69839 15.033)
(-3.37094e-24 8.6977 15.0361)
(-3.14533e-24 8.69712 15.0393)
(-3.27251e-24 8.69657 15.0428)
(-3.15878e-24 8.69617 15.0463)
(-3.51219e-24 8.69556 15.0503)
(-3.19102e-24 8.69586 15.054)
(-3.07539e-24 8.69426 15.0593)
(-3.19948e-24 8.69725 15.0619)
(-3.1978e-24 8.69129 15.07)
(-3.36466e-24 8.70425 15.0762)
(-3.57536e-24 8.85558 15.3705)
(-2.76705e-24 8.25515 14.3661)
(8.40636e-27 8.42319 14.4926)
(-1.5151e-25 8.83808 15.2311)
(-1.30282e-25 8.69069 15.012)
(-1.29295e-25 8.69522 15.0051)
(-1.53085e-25 8.69182 15.0089)
(8.65468e-25 8.69212 15.0105)
(7.52321e-25 8.69115 15.0126)
(7.26102e-25 8.69035 15.0148)
(7.46288e-25 8.68951 15.0171)
(6.98144e-25 8.68862 15.0196)
(7.23239e-25 8.68775 15.0224)
(7.04205e-25 8.68689 15.0254)
(7.70617e-25 8.68605 15.0287)
(7.31733e-25 8.68543 15.0321)
(6.98869e-25 8.68433 15.0364)
(7.17613e-25 8.68532 15.0397)
(7.14532e-25 8.68103 15.0469)
(7.46666e-25 8.69107 15.0483)
(7.99804e-25 8.77265 15.2324)
(5.88786e-25 8.42326 14.6449)
(-1.77539e-27 8.61058 14.8239)
(2.96521e-26 8.7527 15.0801)
(2.60555e-26 8.69281 15.0032)
(2.63765e-26 8.695 15.0014)
(3.08748e-26 8.69441 15.0021)
(-1.64319e-25 8.69407 15.0026)
(-1.48434e-25 8.69366 15.0031)
(-1.40984e-25 8.69304 15.0038)
(-1.44716e-25 8.69232 15.0046)
(-1.36833e-25 8.69143 15.0056)
(-1.39404e-25 8.69038 15.0067)
(-1.37866e-25 8.68914 15.008)
(-1.46521e-25 8.68772 15.0095)
(-1.45396e-25 8.68604 15.0113)
(-1.37858e-25 8.68416 15.0133)
(-1.41571e-25 8.68208 15.0156)
(-1.38985e-25 8.67892 15.0189)
(-1.44213e-25 8.67938 15.02)
(-1.59556e-25 8.69418 15.0844)
(-1.12236e-25 8.5934 14.8933)
(2.55253e-15 0.0757484 -3.32079)
(3.58824e-15 -0.497123 -3.65149)
(2.53753e-15 0.0666157 -3.10279)
(2.41868e-15 0.153589 -3.0608)
(2.11328e-15 0.295914 -3.12958)
(1.76781e-15 0.388137 0.374678)
(9.05178e-16 -0.434624 3.29841)
(-3.33971e-16 -0.551134 2.62606)
(-1.13171e-15 -0.655979 2.57774)
(-3.11394e-16 -1.31217 4.44505)
(1.25289e-15 -1.92068 4.56134)
(4.79758e-16 -2.01115 4.74769)
(-3.38437e-16 -3.17668 8.04176)
(-9.37749e-16 -3.51633 7.32217)
(-1.4413e-15 -4.14581 8.01802)
(-1.83754e-15 -4.31108 8.56984)
(-3.04252e-15 -6.2258 13.0149)
(-2.48878e-15 -6.23217 10.3417)
(-2.38738e-15 -6.80243 10.9224)
(-2.25283e-15 -9.12871 14.7473)
(-6.96943e-16 -7.99197 11.7429)
(-5.61652e-16 -8.37171 12.2719)
(3.36533e-16 -8.36915 12.2721)
(1.0934e-15 -8.5334 12.3963)
(1.64479e-15 -8.59665 12.3596)
(1.92861e-15 -8.65966 12.2971)
(2.10891e-15 -8.65265 12.2545)
(2.18786e-15 -8.78658 12.2398)
(2.84202e-15 -7.62904 10.7252)
(2.23869e-15 -7.73701 11.9297)
(1.93742e-15 -7.63354 12.2276)
(1.64899e-15 -7.53429 12.5139)
(1.37858e-15 -7.39557 12.764)
(1.14959e-15 -7.25169 12.9895)
(8.09922e-16 -7.07229 13.1456)
(6.10322e-16 -6.8087 13.0926)
(3.38735e-16 -6.45697 12.438)
(7.69178e-17 -6.16359 10.4287)
(5.98571e-16 -0.975837 -4.3374)
(1.00796e-16 -4.07612 0.724941)
(1.18747e-16 -2.24419 -2.62338)
(1.29733e-16 -5.05068 -1.12873)
(-9.1669e-17 -3.44423 -1.89669)
(-1.86548e-16 -3.16722 -1.46953)
(-2.96801e-16 -3.83723 -2.15649)
(-3.14198e-16 -2.44236 -1.66929)
(-2.6556e-16 -2.97407 -2.5504)
(6.126e-17 -2.11237 -2.37769)
(3.24459e-16 -1.43499 -1.88227)
(1.38135e-16 -1.87514 -2.62681)
(6.54833e-16 -0.356596 -1.69123)
(-2.06757e-15 -0.869414 -2.58523)
(-1.92188e-15 0.00611251 -1.73909)
(-1.21596e-15 0.753854 -1.11466)
(-1.82089e-15 0.544153 -0.596152)
(-2.29465e-15 0.985628 0.334452)
(-1.58756e-15 0.814333 0.327014)
(-1.79714e-15 0.882957 0.903945)
(1.95109e-15 0.384289 0.785601)
(-9.32051e-15 0.599807 0.907842)
(-1.79319e-17 -0.00212018 0.214535)
(-1.21429e-16 0.0872571 -0.619027)
(-2.02608e-16 0.0306463 -1.11986)
(-2.36387e-16 0.0923202 -2.51205)
(-4.80283e-17 -0.111625 -3.93865)
(-3.3012e-16 -0.306415 -0.133831)
(-7.88139e-16 -0.220265 3.53794)
(-4.58243e-16 0.151239 2.64135)
(-2.54778e-16 0.345029 0.594266)
(-2.37279e-16 0.301687 -2.60675)
(-4.56568e-16 0.0839947 -4.72765)
(-7.01463e-16 -0.00545907 -4.82081)
(-9.57448e-16 0.0648242 -4.55502)
(-1.02908e-15 0.277694 -6.10549)
(-6.0117e-16 0.51205 -10.0739)
(-2.67594e-16 0.112908 -14.6147)
(-2.1269e-16 -0.742803 -13.4237)
(-4.30396e-16 -0.796902 -4.01035)
(-1.69563e-14 0.122125 4.37886)
(-7.83977e-17 0.0517591 0.243302)
(-8.57762e-17 0.237222 -0.516266)
(-2.14662e-16 0.26558 -0.902946)
(-4.04759e-16 0.61179 -2.37634)
(-2.20542e-16 -0.372246 -4.18787)
(-7.92342e-16 -1.1635 2.4252)
(-4.33412e-16 -0.363909 4.07639)
(1.72234e-16 0.416067 3.06445)
(3.65424e-16 0.875863 1.12251)
(4.11198e-16 0.85703 -1.73961)
(1.89232e-16 0.232328 -3.9486)
(-1.90515e-16 -0.0237554 -4.13836)
(-7.11003e-16 0.214869 -4.13797)
(-6.41102e-17 0.844792 -5.17874)
(9.5768e-16 1.31712 -8.94435)
(1.61811e-15 0.577441 -12.4141)
(1.30442e-15 -1.41476 -15.959)
(3.76114e-16 -2.63953 -9.87404)
(-9.55449e-15 -0.881889 2.62492)
(-3.84143e-17 0.0645238 0.349517)