/*--------------------------------*- C++ -*----------------------------------*\
| =========                 |                                                 |
| \\      /  F ield         | OpenFOAM: The Open Source CFD Toolbox           |
|  \\    /   O peration     | Version:  4.1                                   |
|   \\  /    A nd           | Web:      www.OpenFOAM.org                      |
|    \\/     M anipulation  |                                                 |
\*---------------------------------------------------------------------------*/
FoamFile
{
    version     2.0;
    format      ascii;
    class       volScalarField;
    location    "24";
    object      p;
}
// * * * * * * * * * * * * * * * * * * * * * * * * * * * * * * * * * * * * * //

dimensions      [0 2 -2 0 0 0 0];

internalField   nonuniform List<scalar> 
1280
(
-2.73526e+06
-2.00409e+06
-2.04849e+06
-2.70832e+06
-2.94082e+06
-3.12859e+06
-3.49181e+06
-3.80204e+06
-3.95896e+06
-4.15672e+06
-4.62062e+06
-4.82199e+06
-4.99204e+06
-5.46779e+06
-5.68181e+06
-5.84733e+06
-6.33616e+06
-6.5251e+06
-6.77114e+06
-7.09898e+06
-7.3724e+06
-7.59495e+06
-7.86207e+06
-8.09279e+06
-8.29215e+06
-8.55158e+06
-9.33405e+06
-9.19083e+06
-9.35267e+06
-9.60729e+06
-9.83109e+06
-1.00528e+07
-1.02816e+07
-1.05136e+07
-1.07476e+07
-1.09889e+07
-1.12288e+07
-1.14879e+07
-1.1724e+07
-1.20255e+07
-1.41258e+07
-1.32092e+07
-1.3427e+07
-1.40549e+07
-1.42665e+07
-1.49147e+07
-1.57013e+07
-1.63939e+07
-1.67319e+07
-1.74534e+07
-1.8801e+07
-1.9307e+07
-2.03257e+07
-2.16398e+07
-2.28405e+07
-2.3337e+07
-2.47776e+07
-2.63887e+07
-2.79373e+07
-2.8083e+07
-3.05828e+07
-3.13376e+07
-3.26756e+07
-3.39052e+07
-3.50638e+07
-3.62174e+07
-3.73562e+07
-3.84773e+07
-3.95962e+07
-4.06932e+07
-4.18325e+07
-4.28785e+07
-4.41583e+07
-5.04105e+07
-4.89769e+07
-5.06438e+07
-5.28699e+07
-5.49776e+07
-5.70455e+07
-5.96577e+07
-6.47206e+07
-6.44745e+07
-6.46006e+07
-6.98675e+07
-7.70706e+07
-8.0373e+07
-8.77468e+07
-9.96642e+07
-1.03409e+08
-1.12664e+08
-1.31918e+08
-1.43498e+08
-1.94692e+08
-2.25379e+08
-2.6744e+08
-1.94496e+08
-1.16077e+09
-9.09095e+08
3.67606e+07
1.02167e+08
68043.6
11710.1
88845.4
129192
187066
352798
762632
856382
1.30434e+06
1.83695e+06
2.82422e+06
4.88918e+06
8.34279e+06
1.38376e+07
2.2995e+07
3.75348e+07
8.94299e+07
1.92929e+08
-9.62379e+08
-39868.2
152.794
-31617.3
-117554
-119680
-145115
-149924
-170733
-766731
-1.59061e+06
-1.86402e+06
-3.49536e+06
-7.78858e+06
-1.69398e+07
-2.68275e+07
-3.18705e+07
-3.97684e+07
-253733
-1.79572e+07
6333.28
-446.084
-12887.5
-23986
-27574.3
16864.5
73690.8
85248.7
176818
404620
653066
649702
75176.1
-2.46893e+06
-7.37847e+06
-1.24434e+07
-2.09743e+07
-6.57187e+07
-1.49462e+08
-9463.16
-1206.5
-6332.96
-17210.7
-52542.6
-31539.1
3322.87
74041.6
280813
412783
201823
-188051
-1.32771e+06
-4.31056e+06
-7.95143e+06
-1.24673e+07
-1.94112e+07
-3.73257e+07
-6.59352e+07
-1500.38
-1031.51
-5793.8
-15510.4
-32611.3
-2086.55
23912.6
69775.4
92595.5
11570.5
-273316
-794062
-2.17812e+06
-4.86504e+06
-8.0458e+06
-1.18833e+07
-1.83832e+07
-3.66265e+07
-6.69913e+07
-3361.04
-2073.4
-4251.61
-10517.5
-22143.3
-3614.42
13395.3
37887.6
34633
-50450.6
-308969
-821407
-2.07662e+06
-4.26451e+06
-7.09629e+06
-1.09967e+07
-1.69891e+07
-2.88778e+07
-4.69967e+07
-1808.06
-2039.87
-2261.39
-6974.29
-15564.1
515.181
13746.7
21309.4
1593.73
-77399.6
-340781
-875828
-2.01419e+06
-3.8972e+06
-6.51938e+06
-1.01551e+07
-1.53878e+07
-2.46251e+07
-3.85095e+07
-1514.96
-1787.28
-623.667
-4849.65
-11129.3
840.027
11619.1
8384.88
-25625.3
-121554
-396309
-930260
-1.9201e+06
-3.55194e+06
-5.8585e+06
-9.15169e+06
-1.3712e+07
-2.03399e+07
-2.9317e+07
-932.127
-1422.93
623.625
-3455.2
-8544.94
-823.424
7860.7
-2400.97
-46444
-155344
-424218
-930276
-1.78678e+06
-3.21745e+06
-5.30642e+06
-8.21715e+06
-1.21139e+07
-1.72813e+07
-2.37909e+07
-986.393
-1507.3
964.201
-3001.63
-7309.05
-3335.94
730.593
-13358.7
-62661.5
-176020
-429074
-889109
-1.6543e+06
-2.9141e+06
-4.77037e+06
-7.2992e+06
-1.06045e+07
-1.46323e+07
-1.92755e+07
-1665.3
-2218.47
389.528
-3524.65
-7233.8
-5594.38
-5895.08
-22163.5
-72962.9
-185124
-418326
-830198
-1.52108e+06
-2.63784e+06
-4.26599e+06
-6.44672e+06
-9.22866e+06
-1.24547e+07
-1.59184e+07
-2942.83
-3350
-749.551
-4477.43
-7640.63
-6880.2
-9483.98
-27211.4
-77470.1
-184689
-394684
-767902
-1.3909e+06
-2.37436e+06
-3.79056e+06
-5.65183e+06
-7.97943e+06
-1.05706e+07
-1.3211e+07
-5100.87
-5004.48
-1971.44
-5247.91
-8060.43
-7618.43
-11764.7
-30133.4
-77717.3
-176732
-366880
-705160
-1.26322e+06
-2.12205e+06
-3.34446e+06
-4.9183e+06
-6.85406e+06
-8.90887e+06
-1.10668e+07
-6628.71
-6443.22
-2897.04
-5732.55
-8374.74
-8130.07
-13750.1
-32099.8
-76141.7
-166538
-339746
-642712
-1.13449e+06
-1.8777e+06
-2.92316e+06
-4.24012e+06
-5.83486e+06
-7.37601e+06
-8.979e+06
-11202.9
-9442.03
-4233.73
-6054.63
-8483.79
-8459.2
-15297.1
-33172.6
-73886.5
-156274
-310710
-577277
-1.0057e+06
-1.64255e+06
-2.529e+06
-3.62416e+06
-4.93406e+06
-6.1174e+06
-7.31342e+06
-10435.3
-10807.1
-5621.61
-6274.96
-8459.23
-8640.04
-16383.2
-33473.4
-70740.6
-144493
-280698
-513059
-882845
-1.42531e+06
-2.17382e+06
-3.08222e+06
-4.15807e+06
-5.08245e+06
-5.99891e+06
-25571.8
-14209.2
-7219.74
-5664.63
-8259.73
-8103.66
-16009.1
-31485.7
-64281.6
-127835
-243326
-437840
-744416
-1.18845e+06
-1.79521e+06
-2.51801e+06
-3.36668e+06
-4.05337e+06
-4.78389e+06
-2807.96
-14582
2260
-3287.33
-7233.8
-6125.92
-13322.4
-25909.8
-52244.2
-102405
-192437
-342542
-577505
-914999
-1.3742e+06
-1.91453e+06
-2.55045e+06
-3.02446e+06
-3.64358e+06
-86663.7
-7832.05
-18430.2
-3434.14
-10828.2
-8719.45
-17140.4
-30524.7
-57955.1
-109636
-202256
-357206
-601448
-954295
-1.43757e+06
-2.00805e+06
-2.67867e+06
-3.13626e+06
-3.69557e+06
123333
-20266.4
-42395.5
-6009.95
-15360.8
-11672.8
-20930.7
-35345.1
-63858.3
-117166
-212470
-371933
-623053
-985251
-1.47778e+06
-2.05628e+06
-2.71659e+06
-3.14904e+06
-3.65024e+06
-9.56415e+06
-9.51864e+06
-9.49175e+06
-9.47549e+06
-9.4614e+06
-9.45003e+06
-9.44982e+06
-9.45573e+06
-9.45906e+06
-9.46517e+06
-9.47539e+06
-9.48878e+06
-9.5048e+06
-9.52333e+06
-9.54395e+06
-9.56692e+06
-9.59099e+06
-9.61923e+06
-9.64371e+06
-9.68674e+06
-9.45648e+06
-9.45999e+06
-9.45979e+06
-9.45962e+06
-9.45924e+06
-9.45898e+06
-9.45951e+06
-9.46099e+06
-9.46298e+06
-9.46561e+06
-9.46891e+06
-9.47277e+06
-9.47716e+06
-9.48209e+06
-9.4874e+06
-9.49301e+06
-9.4986e+06
-9.50457e+06
-9.5096e+06
-9.51708e+06
-9.44945e+06
-9.4492e+06
-9.44931e+06
-9.4496e+06
-9.44988e+06
-9.45018e+06
-9.45052e+06
-9.45092e+06
-9.45143e+06
-9.45204e+06
-9.45277e+06
-9.45363e+06
-9.45462e+06
-9.45574e+06
-9.45698e+06
-9.45836e+06
-9.4598e+06
-9.46143e+06
-9.46284e+06
-9.46505e+06
-9.45061e+06
-9.4506e+06
-9.45066e+06
-9.45074e+06
-9.45087e+06
-9.45104e+06
-9.45123e+06
-9.45145e+06
-9.4517e+06
-9.45197e+06
-9.45225e+06
-9.45255e+06
-9.45286e+06
-9.45319e+06
-9.45353e+06
-9.45388e+06
-9.45422e+06
-9.45459e+06
-9.4549e+06
-9.45537e+06
-9.44999e+06
-9.44998e+06
-9.45e+06
-9.45003e+06
-9.45007e+06
-9.45012e+06
-9.45017e+06
-9.45023e+06
-9.4503e+06
-9.45038e+06
-9.45046e+06
-9.45056e+06
-9.45066e+06
-9.45077e+06
-9.45088e+06
-9.451e+06
-9.45113e+06
-9.45126e+06
-9.45137e+06
-9.45154e+06
-9.45e+06
-9.45e+06
-9.45003e+06
-9.45006e+06
-9.45009e+06
-9.45012e+06
-9.45015e+06
-9.45018e+06
-9.45021e+06
-9.45025e+06
-9.45028e+06
-9.45032e+06
-9.45035e+06
-9.45039e+06
-9.45043e+06
-9.45047e+06
-9.4505e+06
-9.45054e+06
-9.45058e+06
-9.45062e+06
-9.44996e+06
-9.44996e+06
-9.44997e+06
-9.44997e+06
-9.44998e+06
-9.44999e+06
-9.45e+06
-9.45002e+06
-9.45003e+06
-9.45004e+06
-9.45006e+06
-9.45007e+06
-9.45009e+06
-9.4501e+06
-9.45012e+06
-9.45014e+06
-9.45015e+06
-9.45017e+06
-9.45018e+06
-9.4502e+06
-9.45e+06
-9.45e+06
-9.45e+06
-9.45e+06
-9.45e+06
-9.45e+06
-9.45001e+06
-9.45001e+06
-9.45001e+06
-9.45002e+06
-9.45002e+06
-9.45003e+06
-9.45003e+06
-9.45004e+06
-9.45004e+06
-9.45005e+06
-9.45006e+06
-9.45006e+06
-9.45007e+06
-9.45007e+06
-9.44999e+06
-9.44999e+06
-9.44999e+06
-9.44999e+06
-9.44999e+06
-9.44999e+06
-9.44999e+06
-9.44999e+06
-9.44999e+06
-9.45e+06
-9.45e+06
-9.45e+06
-9.45e+06
-9.45e+06
-9.45001e+06
-9.45001e+06
-9.45001e+06
-9.45001e+06
-9.45001e+06
-9.45002e+06
-9.44998e+06
-9.44998e+06
-9.44998e+06
-9.44998e+06
-9.44998e+06
-9.44998e+06
-9.44998e+06
-9.44998e+06
-9.44999e+06
-9.44999e+06
-9.44999e+06
-9.44999e+06
-9.44999e+06
-9.44999e+06
-9.44999e+06
-9.44999e+06
-9.44999e+06
-9.44999e+06
-9.44999e+06
-9.45e+06
-9.44998e+06
-9.44998e+06
-9.44998e+06
-9.44998e+06
-9.44998e+06
-9.44998e+06
-9.44998e+06
-9.44998e+06
-9.44998e+06
-9.44998e+06
-9.44998e+06
-9.44998e+06
-9.44998e+06
-9.44998e+06
-9.44998e+06
-9.44998e+06
-9.44998e+06
-9.44998e+06
-9.44998e+06
-9.44998e+06
-9.44997e+06
-9.44997e+06
-9.44997e+06
-9.44997e+06
-9.44997e+06
-9.44997e+06
-9.44997e+06
-9.44997e+06
-9.44997e+06
-9.44997e+06
-9.44997e+06
-9.44997e+06
-9.44998e+06
-9.44998e+06
-9.44998e+06
-9.44998e+06
-9.44998e+06
-9.44998e+06
-9.44998e+06
-9.44998e+06
-9.44997e+06
-9.44997e+06
-9.44997e+06
-9.44997e+06
-9.44997e+06
-9.44997e+06
-9.44997e+06
-9.44997e+06
-9.44997e+06
-9.44997e+06
-9.44997e+06
-9.44997e+06
-9.44997e+06
-9.44997e+06
-9.44997e+06
-9.44997e+06
-9.44997e+06
-9.44997e+06
-9.44997e+06
-9.44997e+06
-9.44997e+06
-9.44997e+06
-9.44997e+06
-9.44997e+06
-9.44997e+06
-9.44997e+06
-9.44997e+06
-9.44997e+06
-9.44997e+06
-9.44997e+06
-9.44997e+06
-9.44997e+06
-9.44997e+06
-9.44997e+06
-9.44997e+06
-9.44997e+06
-9.44997e+06
-9.44997e+06
-9.44997e+06
-9.44997e+06
-9.44996e+06
-9.44996e+06
-9.44997e+06
-9.44997e+06
-9.44997e+06
-9.44997e+06
-9.44997e+06
-9.44997e+06
-9.44997e+06
-9.44997e+06
-9.44997e+06
-9.44997e+06
-9.44997e+06
-9.44997e+06
-9.44997e+06
-9.44997e+06
-9.44997e+06
-9.44997e+06
-9.44997e+06
-9.44997e+06
-9.44996e+06
-9.44996e+06
-9.44996e+06
-9.44996e+06
-9.44996e+06
-9.44996e+06
-9.44996e+06
-9.44996e+06
-9.44996e+06
-9.44996e+06
-9.44996e+06
-9.44996e+06
-9.44996e+06
-9.44996e+06
-9.44996e+06
-9.44996e+06
-9.44997e+06
-9.44997e+06
-9.44997e+06
-9.44997e+06
-9.44996e+06
-9.44996e+06
-9.44996e+06
-9.44996e+06
-9.44996e+06
-9.44996e+06
-9.44996e+06
-9.44996e+06
-9.44996e+06
-9.44996e+06
-9.44996e+06
-9.44996e+06
-9.44996e+06
-9.44996e+06
-9.44996e+06
-9.44996e+06
-9.44996e+06
-9.44996e+06
-9.44996e+06
-9.44996e+06
-9.44996e+06
-9.44996e+06
-9.44996e+06
-9.44996e+06
-9.44996e+06
-9.44996e+06
-9.44996e+06
-9.44996e+06
-9.44996e+06
-9.44996e+06
-9.44996e+06
-9.44996e+06
-9.44996e+06
-9.44996e+06
-9.44996e+06
-9.44996e+06
-9.44996e+06
-9.44996e+06
-9.44996e+06
-9.44996e+06
-9.44996e+06
-9.44996e+06
-9.44996e+06
-9.44996e+06
-9.44996e+06
-9.44996e+06
-9.44996e+06
-9.44996e+06
-9.44996e+06
-9.44996e+06
-9.44996e+06
-9.44996e+06
-9.44996e+06
-9.44996e+06
-9.44996e+06
-9.44996e+06
-9.44996e+06
-9.44996e+06
-9.44996e+06
-9.44996e+06
-9.44996e+06
-9.44996e+06
-9.44996e+06
-9.44996e+06
-9.44996e+06
-9.44996e+06
-9.44996e+06
-9.44996e+06
-9.44996e+06
-9.44996e+06
-9.44996e+06
-9.44996e+06
-9.44996e+06
-9.44996e+06
-9.44996e+06
-9.44996e+06
-9.44996e+06
-9.44996e+06
-9.44996e+06
-9.44996e+06
-4.08345e+07
-4.08346e+07
-4.08346e+07
-4.08347e+07
-4.08347e+07
-4.08348e+07
-4.08348e+07
-4.08348e+07
-4.08349e+07
-4.08349e+07
-4.0835e+07
-4.0835e+07
-4.0835e+07
-4.08351e+07
-4.08351e+07
-4.08351e+07
-4.08351e+07
-4.08352e+07
-4.08352e+07
-4.08352e+07
-4.08352e+07
-4.08352e+07
-4.08352e+07
-4.08352e+07
-4.08352e+07
-4.08352e+07
-4.08352e+07
-4.08352e+07
-4.08352e+07
-4.08352e+07
-4.08352e+07
-4.08352e+07
-4.08352e+07
-4.08352e+07
-4.08352e+07
-4.08352e+07
-4.08352e+07
-4.08352e+07
-4.08352e+07
-4.08352e+07
-4.08352e+07
-4.08352e+07
-4.08352e+07
-4.08352e+07
-4.08352e+07
-4.08352e+07
-4.08352e+07
-4.08352e+07
-4.08352e+07
-4.08352e+07
-4.08352e+07
-4.08352e+07
-4.08352e+07
-4.08352e+07
-4.08352e+07
-4.08352e+07
-4.08352e+07
-4.08352e+07
-4.08352e+07
-4.08352e+07
-4.08352e+07
-4.08352e+07
-4.08352e+07
-4.08352e+07
-4.08352e+07
-4.08352e+07
-4.08352e+07
-4.08352e+07
-4.08352e+07
-4.08352e+07
-4.08352e+07
-4.08352e+07
-4.08352e+07
-4.08352e+07
-4.08352e+07
-4.08352e+07
-4.08352e+07
-4.08352e+07
-4.08352e+07
-4.08352e+07
-4.08352e+07
-4.08352e+07
-4.08352e+07
-4.08352e+07
-4.08352e+07
-4.08352e+07
-4.08352e+07
-4.08352e+07
-4.08352e+07
-4.08352e+07
-4.08352e+07
-4.08352e+07
-4.08352e+07
-4.08352e+07
-4.08352e+07
-4.08352e+07
-4.08352e+07
-4.08352e+07
-4.08352e+07
-4.08352e+07
-4.08352e+07
-4.08352e+07
-4.08352e+07
-4.08352e+07
-4.08352e+07
-4.08352e+07
-4.08352e+07
-4.08352e+07
-4.08352e+07
-4.08352e+07
-4.08352e+07
-4.08352e+07
-4.08352e+07
-4.08352e+07
-4.08352e+07
-4.08352e+07
-4.08352e+07
-4.08352e+07
-4.08352e+07
-4.08352e+07
-4.08352e+07
-4.08352e+07
-4.08352e+07
-4.08352e+07
-4.08352e+07
-4.08352e+07
-4.08352e+07
-4.08352e+07
-4.08352e+07
-4.08352e+07
-4.08352e+07
-4.08352e+07
-4.08352e+07
-4.08352e+07
-4.08352e+07
-4.08352e+07
-4.08352e+07
-4.08352e+07
-4.08352e+07
-4.08352e+07
-4.08352e+07
-4.08352e+07
-4.08352e+07
-4.08352e+07
-4.08352e+07
-4.08352e+07
-4.08352e+07
-4.08352e+07
-4.08352e+07
-4.08352e+07
-4.08352e+07
-4.08352e+07
-4.08352e+07
-4.08352e+07
-4.08352e+07
-4.08352e+07
-4.08352e+07
-4.08352e+07
-4.08352e+07
-4.08352e+07
-4.08352e+07
-4.08352e+07
-4.08352e+07
-4.08352e+07
-4.08352e+07
-4.08352e+07
-4.08352e+07
-4.08352e+07
-4.08352e+07
-4.08352e+07
-4.08352e+07
-4.08352e+07
-4.08352e+07
-4.08352e+07
-4.08352e+07
-4.08352e+07
-4.08352e+07
-4.08352e+07
-4.08353e+07
-4.08353e+07
-4.08353e+07
-4.08353e+07
-4.08353e+07
-4.08353e+07
-4.08353e+07
-4.08353e+07
-4.08353e+07
-4.08353e+07
-4.08353e+07
-4.08353e+07
-4.08353e+07
-4.08353e+07
-4.08353e+07
-4.08353e+07
-4.08353e+07
-4.08353e+07
-4.08353e+07
-4.08353e+07
-4.08353e+07
-4.08353e+07
-4.08354e+07
-4.08354e+07
-4.08354e+07
-4.08354e+07
-4.08354e+07
-4.08354e+07
-4.08354e+07
-4.08354e+07
-4.08354e+07
-4.08354e+07
-4.08354e+07
-4.08354e+07
-4.08354e+07
-4.08354e+07
-4.08354e+07
-4.08354e+07
-4.08354e+07
-4.08354e+07
-4.08354e+07
-4.08354e+07
-4.08354e+07
-4.08354e+07
-4.08354e+07
-4.08354e+07
-4.08354e+07
-4.08354e+07
-4.08354e+07
-4.08354e+07
-4.08354e+07
-4.08354e+07
-4.08354e+07
-4.08354e+07
-4.08354e+07
-4.08354e+07
-4.08354e+07
-4.08354e+07
-4.08354e+07
-4.08354e+07
-4.08354e+07
-4.08354e+07
-4.08355e+07
-4.08355e+07
-4.08355e+07
-4.08355e+07
-4.08355e+07
-4.08355e+07
-4.08354e+07
-4.08354e+07
-4.08354e+07
-4.08354e+07
-4.08354e+07
-4.08354e+07
-4.08354e+07
-4.08354e+07
-4.08354e+07
-4.08354e+07
-4.08354e+07
-4.08354e+07
-4.08354e+07
-4.08354e+07
-4.08356e+07
-4.08356e+07
-4.08356e+07
-4.08356e+07
-4.08356e+07
-4.08356e+07
-4.08356e+07
-4.08356e+07
-4.08356e+07
-4.08356e+07
-4.08356e+07
-4.08356e+07
-4.08355e+07
-4.08355e+07
-4.08355e+07
-4.08355e+07
-4.08354e+07
-4.08354e+07
-4.08354e+07
-4.08354e+07
-4.08361e+07
-4.08362e+07
-4.08362e+07
-4.08362e+07
-4.08362e+07
-4.08362e+07
-4.08362e+07
-4.08361e+07
-4.08361e+07
-4.0836e+07
-4.08359e+07
-4.08358e+07
-4.08357e+07
-4.08356e+07
-4.08355e+07
-4.08353e+07
-4.08352e+07
-4.08351e+07
-4.08351e+07
-4.0835e+07
-4.08367e+07
-4.0837e+07
-4.08373e+07
-4.08375e+07
-4.08377e+07
-4.08378e+07
-4.08379e+07
-4.08379e+07
-4.08378e+07
-4.08376e+07
-4.08374e+07
-4.0837e+07
-4.08366e+07
-4.08361e+07
-4.08356e+07
-4.08351e+07
-4.08347e+07
-4.08343e+07
-4.08342e+07
-4.08339e+07
-4.08472e+07
-4.08479e+07
-4.08485e+07
-4.0849e+07
-4.08494e+07
-4.08496e+07
-4.08496e+07
-4.08493e+07
-4.08488e+07
-4.08479e+07
-4.08468e+07
-4.08454e+07
-4.08437e+07
-4.08418e+07
-4.08397e+07
-4.08376e+07
-4.08356e+07
-4.08339e+07
-4.08325e+07
-4.08316e+07
-4.08609e+07
-4.08673e+07
-4.0871e+07
-4.08753e+07
-4.08786e+07
-4.08811e+07
-4.08825e+07
-4.08824e+07
-4.08808e+07
-4.08774e+07
-4.08722e+07
-4.08656e+07
-4.08577e+07
-4.08493e+07
-4.08404e+07
-4.08311e+07
-4.08224e+07
-4.08143e+07
-4.08078e+07
-4.08082e+07
-4.10255e+07
-4.1032e+07
-4.10389e+07
-4.10425e+07
-4.10429e+07
-4.10383e+07
-4.10287e+07
-4.10145e+07
-4.09966e+07
-4.09757e+07
-4.09536e+07
-4.09328e+07
-4.09132e+07
-4.08949e+07
-4.08783e+07
-4.08642e+07
-4.08534e+07
-4.08451e+07
-4.08374e+07
-4.08432e+07
-4.11278e+07
-4.13263e+07
-4.14277e+07
-4.15242e+07
-4.1582e+07
-4.16196e+07
-4.16333e+07
-4.16184e+07
-4.15857e+07
-4.15444e+07
-4.14973e+07
-4.14502e+07
-4.14062e+07
-4.13658e+07
-4.13307e+07
-4.13016e+07
-4.12812e+07
-4.12702e+07
-4.12635e+07
-4.12786e+07
)
;

boundaryField
{
    outletWall
    {
        type            fixedValue;
        value           uniform 0;
    }
    fineWalls
    {
        type            zeroGradient;
    }
    fineFrontAndBack
    {
        type            zeroGradient;
    }
    fineplugLeft
    {
        type            cyclicAMI;
        value           nonuniform List<scalar> 
20
(
-1.01545e+07
-1.00598e+07
-9.99296e+06
-9.91855e+06
-9.85131e+06
-9.78468e+06
-9.72138e+06
-9.66017e+06
-9.60159e+06
-9.54653e+06
-9.49359e+06
-9.43778e+06
-9.40275e+06
-9.43665e+06
-9.27034e+06
-9.22755e+06
-9.19895e+06
-9.16581e+06
-9.1339e+06
-9.1258e+06
)
;
    }
    fineplugRight
    {
        type            cyclicAMI;
        value           nonuniform List<scalar> 
20
(
-3.91395e+07
-3.92783e+07
-3.95513e+07
-3.9806e+07
-4.0054e+07
-4.0308e+07
-4.05639e+07
-4.08204e+07
-4.10794e+07
-4.13365e+07
-4.1602e+07
-4.18442e+07
-4.21264e+07
-4.26313e+07
-4.30911e+07
-4.33944e+07
-4.37933e+07
-4.41377e+07
-4.44701e+07
-4.48338e+07
)
;
    }
    inletOutletLeft
    {
        type            cyclicAMI;
        value           nonuniform List<scalar> 
20
(
-1.01545e+07
-1.00598e+07
-9.99296e+06
-9.91855e+06
-9.85131e+06
-9.78468e+06
-9.72138e+06
-9.66017e+06
-9.60159e+06
-9.54653e+06
-9.49359e+06
-9.43778e+06
-9.40275e+06
-9.43665e+06
-9.27034e+06
-9.22755e+06
-9.19895e+06
-9.16581e+06
-9.1339e+06
-9.1258e+06
)
;
    }
    inletLeft
    {
        type            zeroGradient;
    }
    inletWallsLeft
    {
        type            zeroGradient;
    }
    inletFacesLeft
    {
        type            zeroGradient;
    }
    inletOutletRight
    {
        type            cyclicAMI;
        value           nonuniform List<scalar> 
20
(
-3.91395e+07
-3.92783e+07
-3.95513e+07
-3.9806e+07
-4.0054e+07
-4.0308e+07
-4.05639e+07
-4.08204e+07
-4.10794e+07
-4.13365e+07
-4.1602e+07
-4.18442e+07
-4.21264e+07
-4.26313e+07
-4.30911e+07
-4.33944e+07
-4.37933e+07
-4.41377e+07
-4.44701e+07
-4.48338e+07
)
;
    }
    inletRight
    {
        type            zeroGradient;
    }
    inletWallsRight
    {
        type            zeroGradient;
    }
    inletFacesRight
    {
        type            zeroGradient;
    }
}


// ************************************************************************* //
