/*--------------------------------*- C++ -*----------------------------------*\
| =========                 |                                                 |
| \\      /  F ield         | OpenFOAM: The Open Source CFD Toolbox           |
|  \\    /   O peration     | Version:  4.1                                   |
|   \\  /    A nd           | Web:      www.OpenFOAM.org                      |
|    \\/     M anipulation  |                                                 |
\*---------------------------------------------------------------------------*/
FoamFile
{
    version     2.0;
    format      ascii;
    class       volScalarField;
    location    "4";
    object      p;
}
// * * * * * * * * * * * * * * * * * * * * * * * * * * * * * * * * * * * * * //

dimensions      [0 2 -2 0 0 0 0];

internalField   nonuniform List<scalar> 
1280
(
-53.0768
68.1546
29.8884
-45.3823
135.642
59.0836
-11.8028
22.8676
137.08
112.329
-32.7378
180.196
122.624
-101.59
191.686
96.7252
-179.579
-50.4153
329.9
-1095.1
526.468
1946.14
2552.95
2835.65
2876.98
3413.52
1681.19
2672.32
2614.86
2484.12
2457.43
2440.86
2422.77
2398.31
2369.91
2327.89
2287.68
2213.5
2185.39
1955.55
-846.91
-89.8735
137.033
176.519
157.784
296.813
341.287
360.628
42.2225
336.207
337.662
53.3174
380.504
368.195
326.852
157.818
254.825
218.664
-0.271433
-764.023
2110.89
2330.27
2349.33
2409.22
2435.36
2463.66
2476.17
2485.7
2487.22
2483.43
2487.72
2588.71
2639.72
1526.1
3199.65
2475.29
2260.32
1896.59
1523.08
309.417
-1297.39
24.1312
-129.674
-186.93
-17.0639
102.733
-90.9762
45.5911
116.944
-5.95559
65.6991
94.4587
37.9884
13.1097
39.1448
86.4494
-0.200039
21.4599
48.939
-7.71009
1.63516
6.66566
8.05685
11.654
15.3619
22.4892
35.8859
56.5698
56.8107
-45.8934
-87.8583
-152.814
-77.6906
-66.6557
-52.9857
19.4686
51.6388
50.393
46.6728
2.09202
13.1285
14.9168
21.4178
26.7548
37.5562
57.8453
87.1195
79.9534
-70.3101
-178.909
-57.1738
55.0247
41.901
41.5555
161.326
160.854
133.699
67.2275
3.23661
22.6877
26.4507
38.1144
47.8158
65.8639
95.9205
135.074
141.015
3.39215
-233.853
-26.9093
126.756
49.3405
60.6191
216.017
214.973
178.815
91.1288
3.13306
29.5947
33.8929
48.4867
59.5697
79.628
108.931
132.035
104.232
-61.1657
-386.568
-34.6144
136.041
20.8427
84.7868
293.954
304.149
249.4
125.102
2.83845
36.9564
41.7169
58.8941
69.9612
87.6907
109.785
111.444
37.7237
-143.449
-430.804
-21.2423
80.0657
28.5258
13.7041
359.982
348.102
284.056
133.247
1.78508
43.2791
47.8208
67.2753
79.7078
98.8332
117.108
101.547
33.6207
30.1385
-229.269
-149.061
29.2749
-36.0814
21.9535
486.963
498.359
381.757
157.695
0.316936
49.1756
52.9176
73.3548
83.2341
100.702
116.448
83.1112
14.9836
111.174
103.211
-119.417
82.7102
-111.381
-39.7838
426.73
408.19
292.555
108.252
-1.73647
54.0756
56.7689
78.9814
90.0069
110.893
121.691
62.9487
-20.7638
41.1113
222.83
47.7866
91.9451
-75.9612
73.3648
806.175
855.938
587.192
471.265
-3.95327
57.703
59.5847
85.1892
102.192
128.443
127.909
51.466
2.63319
81.269
229.365
103.61
95.0356
-61.8833
41.5476
658.19
1299.11
2455.37
2102.34
-5.90212
59.6117
60.6272
85.9259
102.703
137.865
145.854
59.3819
-3.28953
109.427
277.189
150.774
106.569
11.8233
156.32
702.68
1240.31
2397.16
1857.91
-5.96232
59.808
61.3696
88.9314
107.555
133.101
121.92
35.5133
-24.1503
110.882
259.242
151.737
107.257
14.6694
114.144
667.706
1312.82
2493.13
1929.4
-4.08838
58.0728
60.1408
86.9873
105.506
129.371
114.815
10.4025
-70.6136
40.8848
193.36
113.057
123.229
25.1182
-26.226
421.224
1181.61
2362.22
2091.36
-1.52276
55.7141
60.6727
88.1316
106.995
127.98
109.006
-5.4099
-88.494
-48.819
102.3
96.209
123.779
-10.2165
-157.339
205.164
799.59
1030.02
828.31
0.89098
51.5541
58.3103
85.7375
105.151
128.683
118.289
10.5863
-85.2791
-108.576
6.60461
53.5554
71.3548
-116.658
-381.129
-157.215
265.252
429.982
393.777
2.59214
46.4264
54.9261
82.7038
104.338
127.473
124.653
45.349
-57.6405
-138.165
-99.5216
-22.1392
35.3286
-138.206
-340.756
-47.0178
407.382
541.238
338.812
3.68743
40.4168
49.3219
74.8186
96.9515
124.073
134.31
92.4498
4.43447
-108.316
-155.957
-74.3649
45.9618
-47.6707
-357.319
-94.0377
232.114
373.317
248.13
3.90138
32.9103
40.9947
62.6856
82.6872
107.979
124.639
114.247
64.1174
-31.7191
-100.242
-17.2053
83.84
61.0259
-240.801
-3.84346
203.205
312.545
206.848
3.86605
25.4734
32.2436
49.2941
65.7841
87.8371
108.128
118.11
101.745
20.5023
-82.5257
-6.66108
76.1076
56.5006
-52.1573
18.4092
146.026
223.146
144.13
2.48768
14.9145
18.5771
28.3622
37.8019
50.6775
63.4784
72.2866
60.7627
-14.8685
-108.9
-5.76755
74.9608
52.1172
-50.2303
10.0966
105.491
164.582
108.453
1.82
7.44093
9.54134
14.2951
19.2766
26.431
35.6998
47.7094
53.2081
1.41755
-88.3267
-21.7972
-60.929
-56.4055
-100.115
-62.4992
22.8631
62.5323
83.3895
8831.17
8754.6
8659.1
8529.68
8403.26
8271.53
8133.47
7995.27
7878.26
7759.79
7651.97
7553.7
7467.72
7391.78
7328.03
7273.84
7231.56
7195.94
7174.43
7146.53
7057.34
7097.04
7107.09
7123.1
7136.61
7145.79
7155.16
7154.2
7151.12
7141.8
7130.77
7115.88
7100.35
7083.23
7066.23
7049.44
7034.36
7019.38
7010.01
6996.08
7510.54
7499.64
7491.54
7482.86
7476.98
7469.1
7464.62
7454.34
7448.75
7437.52
7430.07
7418.83
7409.62
7398.82
7388.52
7378.3
7367.98
7357.97
7349.69
7336.83
7216.34
7221.07
7224.96
7234.28
7239.7
7244.13
7254.67
7253.95
7264.15
7262.94
7270.13
7270.06
7274.17
7274.98
7276.86
7278.02
7278.62
7279.66
7279.84
7279.91
7307.87
7299.31
7305.77
7308.93
7311.42
7309.7
7318.78
7311.62
7320.99
7315.51
7321.63
7319.32
7322.44
7322.3
7323.56
7324.37
7324.69
7325.53
7325.59
7324.87
7202.46
7193.36
7213.4
7215.98
7226.91
7229.03
7244.9
7242.71
7256.34
7256.05
7265.47
7268.1
7274.45
7278.74
7283.38
7288.24
7291.78
7296.52
7299
7302.34
7099.94
7094.55
7122.74
7121.83
7137
7142.85
7162.36
7167.21
7182.33
7188.95
7200.4
7208.8
7218.22
7227.37
7235.55
7244.92
7251.76
7261.1
7265.74
7273.64
6881.44
6904.03
6934.95
6936.41
6948.38
6958.38
6979.48
6992.07
7009.85
7024.72
7041.01
7057.32
7073.29
7090.39
7105.75
7123.57
7137.05
7155.84
7164.87
7183.23
6460.02
6527.19
6563.24
6565.47
6579.82
6595.77
6622.75
6644.32
6669.84
6695.5
6721.83
6749.67
6777.18
6806.8
6834.27
6865.98
6890.77
6925.78
6942.55
6981.24
5623.78
5721.02
5762.34
5770.9
5821.23
5843.98
5893.98
5930.54
5975.76
6019.87
6065.43
6112.58
6159.37
6208.76
6255.14
6307.51
6349.6
6407.65
6436.96
6504.92
4602.35
4699.91
4752.54
4755.18
4845.2
4854.44
4930.88
4965.41
5025.89
5076.82
5133.63
5191.17
5249.1
5310.34
5368.24
5433.76
5486.91
5560.47
5598.65
5687.55
3796.13
3852.63
3924.36
3899.17
4009.98
3980.5
4072.91
4076.85
4138.74
4171.04
4219.8
4264.89
4312.5
4363.4
4411.22
4467.03
4510.63
4574.65
4605.26
4686.08
3293.95
3305.35
3392.18
3338.8
3472.52
3409.56
3522.26
3500.78
3570.82
3587.03
3632.28
3665.45
3702.9
3740.95
3775.08
3814.68
3842.41
3884.99
3899.36
3955.04
2743.95
2751.15
2884.71
2815.28
3004.79
2934.7
3089.58
3076.27
3176.54
3209.25
3277.62
3329.22
3385.47
3440.21
3489.73
3541.66
3580.04
3625.47
3642.79
3677.88
1455.35
1454.03
1673.41
1586.81
1861.28
1801.7
2021
2046.42
2200.51
2286.16
2409.6
2519.92
2636.04
2753.5
2866.79
2983.87
3085.77
3192.6
3264.73
3366.52
-286.337
-447.832
-242.069
-461.766
-220.756
-374.109
-209.891
-246.5
-145.52
-104.251
-20.8849
56.6692
144.366
239.273
337.607
456.678
578.532
739.831
891.335
1124.88
1002.91
612.579
696.95
164.652
158.452
-262.757
-413.161
-722.966
-929.42
-1172.97
-1377.07
-1575.7
-1749.95
-1894.23
-1990.1
-2007.14
-1969.66
-1906.51
-1880.27
-1734
3484.13
2948.59
3451.23
2789.56
2900.57
2478.59
2301.66
1963.53
1677.2
1347.91
1024.42
687.312
352.261
32.2389
-240.298
-423.581
-496.421
-540.518
-621.782
-656.91
3378.1
1704.21
2471.41
1522.87
1472.2
956.395
674.891
316.698
41.153
-208.722
-395.48
-524.241
-581.879
-563.239
-452.791
-227.004
78.0888
411.752
762.934
925.247
55391.1
48925.1
45489
41180.9
37584.2
34024.2
30744.9
27624.9
24688.7
21905.5
19265.7
16753.4
14357.1
12068.4
9902.88
7838.83
5793.86
4043.66
2321.86
-626.695
58239
51772.6
48336.3
44028
40431.2
36871.2
33591.9
30471.9
27535.8
24752.8
22113.2
19601.3
17205.3
14916.9
12751.8
10688
8643.4
6894.78
5174.27
2225.25
6217.08
4543.34
5310.5
4362.05
4311.3
3795.53
3514.01
3155.83
2880.31
2630.46
2443.73
2314.98
2257.36
2276.11
2386.39
2611.46
2917.41
3252.28
3603.43
3766.82
6332.23
5797.6
6300.66
5639.69
5751.17
5329.99
5153.54
4816.29
4530.68
4202.25
3879.57
3543.3
3209.07
2889.87
2617.88
2433.72
2361.53
2322.09
2238.34
2206.87
3854.2
3466.17
3551.54
3021
3015.4
2594.25
2444.24
2133.38
1926.51
1681.52
1475.71
1274.68
1097.42
949.73
850.255
830.711
869.289
939.482
968.38
1121.89
2669.29
2506.79
2719.77
2499.65
2746.63
2595.49
2762.99
2730.66
2834.63
2880.94
2968.77
3052.19
3146.37
3249
3355.89
3484.64
3615.25
3786.2
3937.73
4180.35
4485.28
4494.88
4718.64
4642.49
4920.45
4862.9
5083.35
5107.55
5260.05
5343.17
5463.69
5571.25
5684.68
5799.95
5911.48
6027.61
6128.79
6237.16
6308.61
6416.21
5985.58
6072.72
6203.54
6058.28
6231.92
6110.44
6237.01
6191.33
6262.75
6276.59
6324.24
6363.6
6410.63
6460.62
6508.88
6562.79
6606.83
6660.47
6689.23
6739.4
6996.88
7094.05
7239.03
7075.39
7185.88
7101.19
7140.29
7092.46
7091.91
7071.54
7079.34
7094.77
7118.44
7151.47
7188.65
7236.36
7277.64
7336.73
7370.24
7445.19
7922.63
8078.75
8147.63
8126.81
8108.74
8060.94
8023.03
7980.7
7950.87
7940.14
7953.72
7976.13
8002.87
8037.47
8074
8116.27
8152.6
8198.22
8222.63
8266.62
7834.38
7909.49
7920.17
7899.05
7841.89
7787.03
7739.47
7712.31
7716.73
7753.4
7803.9
7854.13
7901.39
7945.56
7984.8
8019.35
8047.68
8069.32
8083.55
8081.44
7723.52
7764.69
7765.41
7736.05
7691.41
7652.22
7624.92
7616.37
7631.73
7669.67
7715.13
7757.37
7794.65
7825.68
7852.14
7871.62
7889.11
7896.37
7906.27
7897.8
7649.71
7666.62
7669.28
7660.65
7650.53
7644.14
7644.03
7652.56
7668.39
7689.81
7713.12
7739.18
7760.82
7778.22
7793.88
7804.13
7815.35
7818.67
7825.91
7821.81
7683.56
7688.67
7696.53
7699.88
7704.1
7708.73
7714.27
7721.57
7724.44
7723.53
7731.76
7745.59
7755.17
7763.33
7771.2
7775.58
7781.82
7783.02
7787.41
7785.27
7718.48
7715.11
7724.01
7728.59
7734.72
7739.73
7743.42
7746.83
7748.57
7749.66
7755.79
7761.26
7765.11
7768.53
7772.23
7773.71
7777.19
7777.21
7780.08
7778.51
7721.85
7717.06
7727.85
7733.77
7741.43
7747.24
7751.3
7753.29
7755.04
7756.16
7758.75
7759.91
7761.46
7762.34
7764.01
7763.94
7765.97
7765.07
7767.1
7765.25
7780.28
7770.1
7778.24
7779.42
7782.53
7783.48
7782.96
7781.13
7779.65
7777.93
7776.61
7774.57
7773.22
7771.02
7769.91
7767.08
7766.57
7762.96
7763.06
7758.14
7669.05
7666.37
7676.49
7681.74
7688.09
7692.35
7694.71
7696.44
7697.43
7698.04
7697.92
7697.18
7696.37
7694.48
7693.42
7690.45
7689.7
7685.76
7685.61
7680.62
7928.4
7906.17
7906.3
7894.96
7885.49
7874.22
7861.66
7850.1
7837.03
7824.42
7810.74
7797.07
7783.22
7768.87
7755.55
7740.76
7728.81
7713.4
7704.52
7685.82
7415.2
7444.39
7462.17
7479.5
7494.93
7504.28
7507.51
7504.02
7495.03
7482.75
7466.45
7447.59
7427.41
7405.34
7384.62
7362.11
7344.42
7323.14
7312.31
7291.86
9094.37
9006.68
8915.58
8794.2
8667.61
8536.52
8386.62
8246.39
8125.09
8004.33
7893.65
7792.97
7705.05
7626.85
7562.28
7505.94
7464.05
7426.48
7406.33
7377.18
)
;

boundaryField
{
    outletWall
    {
        type            fixedValue;
        value           uniform 0;
    }
    fineWalls
    {
        type            zeroGradient;
    }
    fineFrontAndBack
    {
        type            zeroGradient;
    }
    fineplugLeft
    {
        type            cyclicAMI;
        value           nonuniform List<scalar> 
20
(
6108.34
6176.62
6199.45
6242.78
6284.65
6336.41
6393.09
6458.73
6531.13
6613.06
6704.66
6825.58
6930.68
7399.79
7299.93
7298
7390.87
7437.87
7392.91
7170.23
)
;
    }
    fineplugRight
    {
        type            cyclicAMI;
        value           nonuniform List<scalar> 
20
(
6323.92
6391.12
6411.05
6453.09
6491.82
6542.56
6596.71
6661.18
6731.82
6811.6
6901.01
7017.81
7125.06
7606.52
7469.15
7429.15
7487.42
7511.78
7509.96
7337.38
)
;
    }
    inletOutletLeft
    {
        type            cyclicAMI;
        value           nonuniform List<scalar> 
20
(
6108.34
6176.62
6199.45
6242.78
6284.65
6336.41
6393.09
6458.73
6531.13
6613.06
6704.66
6825.58
6930.68
7399.79
7299.93
7298
7390.87
7437.87
7392.91
7170.23
)
;
    }
    inletLeft
    {
        type            zeroGradient;
    }
    inletWallsLeft
    {
        type            zeroGradient;
    }
    inletFacesLeft
    {
        type            zeroGradient;
    }
    inletOutletRight
    {
        type            cyclicAMI;
        value           nonuniform List<scalar> 
20
(
6323.92
6391.12
6411.05
6453.09
6491.82
6542.56
6596.71
6661.18
6731.82
6811.6
6901.01
7017.81
7125.06
7606.52
7469.15
7429.15
7487.42
7511.78
7509.96
7337.38
)
;
    }
    inletRight
    {
        type            zeroGradient;
    }
    inletWallsRight
    {
        type            zeroGradient;
    }
    inletFacesRight
    {
        type            zeroGradient;
    }
}


// ************************************************************************* //
