/*--------------------------------*- C++ -*----------------------------------*\
| =========                 |                                                 |
| \\      /  F ield         | OpenFOAM: The Open Source CFD Toolbox           |
|  \\    /   O peration     | Version:  4.1                                   |
|   \\  /    A nd           | Web:      www.OpenFOAM.org                      |
|    \\/     M anipulation  |                                                 |
\*---------------------------------------------------------------------------*/
FoamFile
{
    version     2.0;
    format      ascii;
    class       surfaceScalarField;
    location    "4";
    object      phi;
}
// * * * * * * * * * * * * * * * * * * * * * * * * * * * * * * * * * * * * * //

dimensions      [0 3 -1 0 0 0 0];

internalField   nonuniform List<scalar> 
2360
(
42763.3
48840.1
-6076.74
48840.1
48840.1
56142.6
-7302.5
56142.6
56142.6
56142.6
65589
-9446.39
65589
65589
76971.9
-11383
76971.9
76972
89919.3
-12947.4
89919.4
89919.3
107600
-17680.7
107600
107600
115715
126580
137142
146788
155654
164015
96545.5
75837.6
105211
114011
122919
131909
140966
150080
159247
168452
177687
186937
196214
205390
213762
51414.2
162348
51414.1
51414.1
51414.1
-1994.66
53408.8
-1994.66
-1994.64
-1994.63
-115.797
-1878.82
-115.789
-115.779
895.145
-1010.92
895.154
895.17
895.172
-47171.5
48066.7
-47171.5
-47171.5
-47171.5
-211013
163842
-202475
-193117
-183637
-174186
-164753
-155348
-145981
-136665
-127407
-118218
-109109
-100088
-91160.6
-156371
73875.6
-147842
-139131
-130149
-120768
-110976
-102889
-102889
-102889
-76083.4
-26805.6
-76083.4
-76083.4
-62305.5
-13777.9
-62305.5
-62305.5
-48983.3
-13322.3
-48983.3
-48983.3
-38770.2
-10213.1
-38770.1
-38770.2
-38770.1
-31057.2
-7712.93
-31057.2
-31057.2
-24922.8
-6134.46
-10526.7
-18052.5
-11785.6
-26309.4
-13355.9
-29650.3
-15409.7
-34082.9
-18167
-37765.1
-22340.9
-41244.7
-28987.1
-45445.6
-38514.1
-54487.9
-48300.9
-67390.2
-49064.9
-65967.1
-34180.6
-22985
-18640.8
30697.3
-9955.32
56497.5
-3213.92
64355
2032.04
76209
6089.9
79564.4
8129.13
61210.2
9508.01
44934.1
25017.2
-13768.1
-17213.7
-15256
-24821.5
-17138.3
-27768
-19645.7
-31575.5
-23205.6
-34205.3
-29005.4
-35444.9
-38926.5
-35524.6
-54110.3
-39304.1
-71351.9
-50148.7
-77373.7
-59945.3
-54502.5
-45856.1
-22075.3
-1729.96
-8237.18
42659.4
-3571.18
59689
1268.64
71369.2
5784.06
75048.9
8594.33
58399.9
10575.4
42953.1
27879.6
-15854.5
-16232.3
-17456.1
-23219.9
-19499.3
-25724.8
-22282.8
-28791.9
-26418.7
-30069.5
-33254.8
-28608.8
-44895.6
-23883.8
-62696.2
-21503.5
-84136.8
-28708.1
-98978.7
-45103.4
-87946.1
-56888.8
-43689.6
-45986.4
-7743.2
6712.96
-1787.28
53733
-38.0041
69619.9
4930.94
70080
8942.07
54388.8
11896.9
39998.3
29563.4
-18322.6
-15028.4
-20154.4
-21388.2
-22444.5
-23434.8
-25646.1
-25590.2
-30569.3
-25146.3
-38366.8
-20811.3
-50424.6
-11826
-67447.8
-4480.27
-87413.6
-8742.21
-104775
-27742.2
-108324
-53339.2
-79962.7
-74348.1
-29402.6
-43847.1
-1844.87
26175.3
-182.626
67957.7
3247.33
66650
9227.54
48408.6
14301.6
34924.2
30542.7
-20981.9
-13556.1
-23137.9
-19232.3
-25793
-20779.6
-29508.2
-21875
-35194.5
-19460
-43224.1
-12781.7
-52588.4
-2461.65
-62949.5
5880.78
-74184.7
2493.01
-84683.5
-17243.4
-92908.4
-45114.3
-87563.6
-79692.9
-60214.9
-71195.8
-22929
-11110.7
-4096.77
49125.5
889.351
61663.9
8030.8
41267.2
14222.4
28732.6
30987.3
-23919.2
-11737
-26570.9
-16580.6
-29782.3
-17568.2
-33973.4
-17684
-39864.5
-13568.8
-47717.7
-4928.58
-55761.2
5581.82
-62914.1
13033.7
-68690.7
8269.63
-70880.4
-15053.8
-69641.5
-46353.2
-72738.5
-76595.9
-75721.3
-68213
-55679.3
-31152.6
-24862.1
18308.3
-4459.11
41260.9
8453.26
28354.8
24894.9
12290.9
29076.6
-27190.4
-9502.02
-30475.9
-13295.1
-34362.8
-13681.4
-38763.1
-13283.6
-43226.2
-9105.73
-47977.8
-176.886
-53714.2
11318.2
-59867.2
19186.7
-61952.3
10354.7
-57524.7
-19481.3
-53255.9
-50622
-65503.7
-64348.1
-85747.9
-47968.8
-87361.9
-29538.6
-64411.6
-4642.06
-32798.3
9647.58
-9799.67
5356.2
-17608.7
20099.9
85343.5
-30757.5
-6819.46
-34643.4
-9409.24
-39067
-9257.83
-43840.3
-8510.29
-47823.3
-5122.73
-50143.9
2143.76
-51297.4
12471.7
-50339.9
18229.2
-43356.9
3371.69
-37491.4
-25346.8
-47555.3
-40558.2
-73933.6
-37969.8
-99054.7
-22847.6
-114873
-13719.9
-119037
-478.229
-119641
10251.5
-128854
14569.4
-147397
38642
101789
-34399.1
-3749.24
-38541.1
-5267.15
-42524.9
-5274.09
-46068.7
-4966.47
-48276.8
-2914.64
-48130.8
1997.77
-45021
9361.89
-38904.7
12112.9
-34483
-1050.01
-42130.1
-17699.8
-63488.7
-19199.6
-89204.9
-12253.6
-108233
-3819.37
-120569
-1383.76
-125767
4719.55
-124893
9377.8
-120963
10639.4
-104793
22471.4
45062.6
-37370.1
-440.481
-41326.4
-1310.84
-43845.7
-2754.73
-43888.2
-4923.97
-40180.4
-6622.45
-33064.1
-5118.5
-25387.7
1685.49
-22735
9460.15
-32077.7
8292.71
-53006.6
3229.13
-76288.6
4082.46
-94035.5
5493.19
-103353
5497.84
-108492
3755.54
-108837
5064.55
-100199
740.326
-81295.7
-8264.35
-48696
-10128.3
-4644.32
-37614.8
2927.09
-41683.4
2757.85
-44521.3
83.0844
-45517.3
-3927.92
-43242
-8897.75
-35440.1
-12920.4
-21836.9
-11917.8
-13200.2
823.521
-24003.9
19096.4
-48286
27511.3
-71841.1
27637.5
-88959.5
22611.6
-99728.4
16266.8
-106980
11007.3
-110029
8113.41
-104940
-4348.41
-87533.9
-25670.8
-52195.9
-45466.3
-58719
-34840.8
6144.68
-39194.2
7111.24
-43231.7
4120.56
-46581.9
-577.713
-48581
-6898.6
-47901.4
-13600
-41664.6
-18154.5
-30043.1
-10798
-26135.4
15188.7
-38233.5
39609.3
-58766.9
48170.8
-79631.7
43476.4
-99790.2
36425.3
-118860
30077.6
-130993
20246.1
-134646
-696.023
-131528
-28788
-113453
-63541.9
-118763
-31244
9022.84
-35581.9
11449.1
-40577.7
9116.38
-45793.5
4638
-50285.3
-2406.71
-53473.2
-10412.1
-53877.3
-17750.4
-48345
-16330.3
-39383
6226.69
-37643.9
37870.2
-48303.3
58830.2
-68472.9
63646.1
-92755.1
60707.4
-114309
51631.5
-122255
28192.3
-116881
-6070.05
-117434
-28235.2
-138958
-42018.3
-95372.8
-27598.3
11421.5
-31448.6
15299.4
-36697.5
14365.3
-43563.8
11504.3
-50917.1
4946.59
-57518.6
-3810.66
-62671.7
-12597.3
-63886.9
-15115.1
-58192.2
532.068
-51258.9
30936.9
-52283.3
59854.5
-64953.5
76316.3
-83732.9
79486.9
-93171.7
61070.2
-76622.7
11643.4
-43008.9
-39683.8
-17181.8
-54062.3
-22660.4
-36539.7
-42195.6
-24281.5
13373.6
-27472.9
18490.8
-32154.7
19047.1
-39207.9
18557.5
-48578.9
14317.6
-58929.7
6540.11
-68825
-2702.04
-76297
-7643.15
-77228.9
1464.02
-72743
26451
-70005.1
57116.6
-73969
80280.2
-79920.3
85438.2
-71761.8
52911.8
-45572.9
-14545.5
-20848.6
-64408.2
-5698.55
-69212.3
9713.09
-51951.4
-50163.2
-21338.1
14965.2
-23948.2
21100.9
-27760.4
22859.3
-33778.1
24575.3
-43039
23578.5
-55822
19323.1
-70628.5
12104.5
-84647.8
6376.14
-93683.9
10500.2
-96068.7
28835.7
-94372
55419.9
-90258.3
76166.5
-77920.3
73100.3
-49518.1
24509.5
-21129.3
-42934.3
-7022.19
-78515.3
705.507
-76940
9359.17
-60605
-53751.5
-18675.2
16279.6
-20870.1
23295.8
-23956.4
25945.6
-28671.5
29290.4
-36133.3
31040.3
-47527.5
30717.3
-63044.5
27621.5
-80960.8
24292.4
-97432.6
26972
-108322
39725
-109659
56756.9
-95823.6
62331.2
-61884.4
39161
-21947.3
-15427.6
-2695.67
-62185.9
2012.97
-83223.9
5391.89
-80319
10124.1
-65337.2
-55010.4
-16180.8
17356.9
-18059.2
25174.3
-20618.4
28504.8
-24290.9
32962.9
-29874.9
36624.2
-38631.5
39473.9
-51666.8
40656.8
-68845.2
41470.7
-87406.1
45533
-101198
53517.2
-99575.4
55134
-71395.6
34151.5
-25306.7
-6927.93
1477.17
-42211.4
3870.71
-64579.5
5269.69
-84622.9
6919.8
-81969.1
9632.66
-68050.1
-54824.1
-14045.1
18273.7
-15737.3
26866.5
-17947.7
30715.2
-20947.7
35962.9
-25198.4
40874.9
-31691.6
45967.2
-41739.1
50704.2
-56150.7
55882.4
-72802.5
62184.8
-82893
63607.8
-71073.2
43314.1
-35927.3
-994.401
-9126.8
-33728.5
-1626.58
-49711.7
1813.47
-68019.5
5353.04
-88162.5
7451.66
-84067.7
9383.64
-69982.1
-52743
-10698.9
-12068.4
-13792.9
-16037.2
-18975.7
-23119
-29276.6
-38194.3
-48699.9
-53783.3
-42907.8
-23905.5
-12285.8
-4261.46
1796.12
6095.57
7915.32
9163.36
1368.82
-9483.98
3092.55
-12589.1
4451.53
-11920.8
5415.72
-10609.7
6015.27
-9465.58
6388.88
-8735.23
6481.71
-8460.56
6262.11
-8446.06
5964.1
-8502.09
5587.52
-8531.69
5158.79
-8561.05
4687.25
-8585.94
4189.29
-8616.15
3665.69
-8642.95
3126.77
-8666.06
2565.76
-8673.77
1993.82
-8678.31
1398.18
-8681.24
797.308
-8575.54
-7574.66
750.015
-10234.1
1174.73
-13013.9
1293.5
-12039.7
1305.48
-10621.8
1269.13
-9429.3
1228.55
-8694.73
1277.42
-8509.5
1337.24
-8505.95
1381.57
-8546.49
1388
-8538.18
1371.81
-8544.93
1324.13
-8538.32
1254.86
-8546.93
1154.11
-8542.25
1029.67
-8541.66
869.711
-8513.86
684.24
-8492.87
448.253
-8445.28
247.133
-8374.44
-7327.53
694.525
-10928.6
1103.35
-13422.8
1179.02
-12115.4
1165.76
-10608.6
1203.71
-9467.31
1307.34
-8798.43
1429.13
-8631.35
1478.46
-8555.36
1485.44
-8553.53
1448.19
-8501
1390.05
-8486.84
1304.26
-8452.6
1199.7
-8442.42
1072.18
-8414.79
926.349
-8395.88
759.679
-8347.24
574.961
-8308.18
356.565
-8226.92
176.587
-8194.49
-7150.94
681.386
-11610
666.975
-13408.4
379.943
-11828.4
199.155
-10427.8
271.144
-9539.34
493.84
-9021.16
733.565
-8871.11
885.662
-8707.49
976.513
-8644.41
1016.38
-8540.9
1023.37
-8493.86
998.141
-8427.4
945.014
-8389.32
866.614
-8336.41
764.306
-8293.6
642.909
-8225.86
499.92
-8165.22
321.008
-8048.03
155.473
-8028.98
-6995.47
630.246
-12240.3
292.87
-13071
-20.0098
-11515.6
-49.5403
-10398.3
214.832
-9803.78
565.294
-9371.7
841.01
-9146.89
1023.06
-8889.61
1127.96
-8749.37
1185.5
-8598.51
1197.67
-8506.09
1176.39
-8406.18
1119.95
-8332.92
1037.5
-8254.02
928.897
-8185.03
802.357
-8099.36
653.67
-8016.56
465.421
-7859.8
250.572
-7814.16
-6744.9
453.269
-12693.6
78.8779
-12696.7
35.4852
-11472.2
289.492
-10652.3
696.265
-10210.6
1089.36
-9764.8
1358.96
-9416.5
1546.69
-9077.35
1648.3
-8850.98
1702.83
-8653.04
1703.74
-8507
1668.1
-8370.54
1591.74
-8256.56
1484.61
-8146.89
1346.83
-8047.24
1184.75
-7937.29
994.895
-7826.7
755.448
-7620.35
440.34
-7499.05
-6304.56
160.659
-12854.3
230.508
-12766.5
683.549
-11925.2
1268.49
-11237.3
1776.68
-10718.8
2164.45
-10152.6
2408.23
-9660.29
2568.39
-9237.52
2639.49
-8922.09
2654.19
-8667.76
2610.86
-8463.69
2524.24
-8283.93
2393.13
-8125.45
2223.87
-7977.64
2017.68
-7841.06
1776.21
-7695.83
1496
-7546.48
1152.97
-7277.33
689.716
-7035.8
-5614.84
-96.9944
-12757.3
698.63
-13562.1
1710.17
-12936.7
2592.1
-12119.2
3181.31
-11307.9
3560.08
-10531.3
3795.18
-9895.36
3935.12
-9377.44
3980.78
-8967.72
3950.08
-8637.02
3850.26
-8363.85
3693.09
-8126.73
3482.43
-7914.76
3221.55
-7716.74
2911.93
-7531.42
2550.4
-7334.27
2131.25
-7127.33
1629.08
-6775.14
973.9
-6380.6
-4640.94
-119.267
-12638
1219.8
-14901.2
2605.15
-14322.1
3571.18
-13085.3
4182.67
-11919.4
4596.09
-10944.8
4898.15
-10197.4
5095.29
-9574.6
5185.29
-9057.74
5171.45
-8623.2
5063.68
-8256.09
4872.91
-7935.99
4606.98
-7648.83
4268.89
-7378.67
3859.8
-7122.34
3372.93
-6847.4
2799.77
-6554.16
2114.32
-6089.68
1252.08
-5518.35
-3388.86
90.8897
-12728.9
1511.26
-16321.6
2705.75
-15516.6
3392.13
-13771.6
3968.98
-12496.3
4470.3
-11446.1
4925.99
-10653.1
5275.69
-9924.28
5513.81
-9295.84
5625.79
-8735.17
5616.37
-8246.66
5491.36
-7810.97
5258.3
-7415.76
4920.12
-7040.47
4477.85
-6680.04
3924.04
-6293.57
3250.69
-5880.8
2437.56
-5276.53
1424.99
-4505.74
-1963.87
434.783
-13163.7
1523.39
-17410.2
2074.14
-16067.3
2386.45
-14083.9
2907.34
-13017.2
3433.87
-11972.6
3982.75
-11202
4441.33
-10382.9
4820.75
-9675.26
5081.1
-8995.51
5219.28
-8384.82
5225.02
-7816.71
5098.74
-7289.46
4839.22
-6780.95
4447.88
-6288.69
3920.99
-5766.67
3255.12
-5214.91
2443.21
-4464.6
1393.01
-3455.49
-570.863
894.762
-14058.4
1377.24
-17892.6
1401.76
-16091.8
1520.79
-14202.9
1928.99
-13425.3
2319.92
-12363.5
2767.7
-11649.7
3150.36
-10765.5
3510.04
-10034.9
3787.36
-9272.8
3979
-8576.42
4057.48
-7895.16
4016.53
-7248.47
3850.71
-6615.1
3563.76
-6001.7
3156.47
-5359.33
2623.03
-4681.45
1961.45
-3803
1016.63
-2510.6
445.77
1222.56
-15280.9
1125.09
-17795.1
1004.82
-15971.5
1079.58
-14277.7
1341.34
-13687.1
1543.77
-12565.9
1788.57
-11894.5
1989.16
-10966
2191.42
-10237.1
2347.13
-9428.49
2457.87
-8687.14
2500.23
-7937.49
2471.85
-7220.06
2369.88
-6513.1
2195.68
-5827.47
1940.93
-5104.56
1575.77
-4316.27
1089.69
-3316.89
380.525
-1801.35
826.296
1229.08
-16510
864.021
-17430
887.405
-15994.9
1030.9
-14421.1
1243.63
-13899.8
1404.21
-12726.5
1572.64
-12062.9
1720.08
-11113.4
1856.25
-10373.3
1970.87
-9543.06
2062.77
-8779
2131
-8005.67
2174.2
-7263.23
2182.1
-6520.97
2126.39
-5771.72
1959.48
-4937.62
1618.6
-3975.36
1082.93
-2781.19
406.571
-1124.92
1232.87
1050.31
-17560.3
708.784
-17088.5
933.775
-16219.9
1197.95
-14685.3
1487.3
-14189.1
1772.21
-13011.3
2057.21
-12347.9
2354.48
-11410.7
2644.64
-10663.4
2945.6
-9843.99
3254.79
-9088.17
3580.64
-8331.49
3900.88
-7583.44
4158.79
-6778.86
4248.73
-5861.64
4041.25
-4730.12
3480.45
-3414.55
2547.58
-1848.29
1277.51
145.193
2510.37
693.91
-18254.2
479.896
-16874.4
737.779
-16477.7
1041.79
-14989.2
1373.33
-14520.6
1767.6
-13405.6
2184
-12764.2
2659.88
-11886.5
3173.07
-11176.6
3752.26
-10423.2
4402.15
-9738.05
5116.1
-9045.41
5822.66
-8289.99
6368.11
-7324.28
6500.81
-5994.33
5959.79
-4189.08
4800.74
-2255.49
2827.43
125.033
1321.36
1651.28
3831.74
-107.848
-18146.3
-482.748
-16499.5
-625.659
-16334.8
-637.891
-14977
-627.322
-14531.2
-462.314
-13570.6
-258.489
-12968
67.2111
-12212.2
469.779
-11579.1
985.539
-10938.9
1602.73
-10355.2
2287.13
-9729.79
2918.01
-8920.86
3272.66
-7678.91
3006.16
-5727.82
1854.19
-3037.1
230.314
-631.532
-29.5443
384.974
-545.77
2167.54
3285.97
-1499.08
-16647.2
-3054.68
-14943.9
-4316.83
-15072.6
-5291.2
-14002.6
-6180.83
-13641.5
-6813.02
-12938.4
-7349.15
-12431.9
-7707.26
-11854.1
-7950.15
-11336.2
-8061.47
-10827.6
-8071.14
-10345.5
-7991.16
-9809.76
-7831.23
-9080.79
-7549.56
-7960.58
-7011.66
-6265.71
-6019.81
-4028.94
-4723.62
-1927.7
-3682.99
-655.639
-2041.9
526.456
1244.07
-2203.77
-14443.4
-4740.74
-12406.9
-7240.97
-12572.4
-9392.23
-11851.3
-11452.1
-11581.7
-13227.8
-11162.6
-14825.7
-10834.1
-16196.1
-10483.7
-17380.4
-10151.9
-18386
-9821.9
-19230
-9501.54
-19867.4
-9172.35
-20155.1
-8793.11
-19808.6
-8307.09
-18397
-7677.27
-15516.1
-6909.83
-11393.2
-6050.62
-7001.54
-5047.31
-2876.49
-3598.58
-1632.42
-5343.42
-8650.35
-12122.7
-14874.1
-17355.7
-19418.4
-21152.4
-22536.1
-23588
-24309.9
-24711.4
-24783.8
-24476.9
-23684
-22261.2
-20071.1
-17021.7
-12969
-7467.58
-5344.35
14444.4
-8652.24
12407.9
-12125.4
12573.2
-14877.4
11852
-17359.6
11582.2
-19422.7
11163.1
-21157.1
10834.4
-22541.1
10484
-23593.4
10152.3
-24315.7
9822.31
-24717.8
9502.09
-24790.9
9173.09
-24485.1
8794.27
-23694.2
8309.13
-22274.7
7680.49
-20087.7
6913.04
-17037.3
6049.53
-12976.5
5039.19
-7466.99
3590.55
1633.01
-2203.66
16648
-4738.99
14943.3
-7238.25
15072.4
-9387.9
14001.7
-11446
13640.3
-13219.6
12936.8
-14815.1
12429.9
-16182.9
11851.8
-17364.3
11333.6
-18366.7
10824.8
-19207
10342.4
-19840.1
9806.17
-20123.9
9078.11
-19778.8
7964.02
-18382.4
6284.07
-15528.2
4058.86
-11418
1939.37
-7024.92
646.123
-2900.74
-533.609
-1267.74
-1495.59
18143.6
-3046.17
16493.8
-4303.13
16329.4
-5271.49
14970
-6156.08
14524.9
-6782.57
13563.3
-7313.49
12960.9
-7665.67
12204
-7902.17
11570.2
-8006.47
10929.1
-8008.31
10344.2
-7919.61
9717.48
-7750.58
8909.1
-7462.04
7675.49
-6926.66
5748.72
-5954.88
3087.1
-4689.82
674.325
-3578.02
-465.653
-2007.86
-2103.75
-3275.59
-84.5742
18228.2
-462.922
16872.2
-600.608
16467.1
-606.297
14975.7
-584.336
14503
-408.05
13387
-189.053
12741.9
152.181
11862.8
572.526
11149.8
1106.99
10394.6
1744.42
9706.8
2450.13
9011.78
3104.03
8255.21
3486.39
7293.14
3257.39
5977.73
2145.5
4199.01
527.125
2292.75
1.1617
60.3695
-506.948
-1595.61
-3782.54
748.633
17479.6
524.563
17096.3
818.069
16173.6
1147.3
14646.5
1500.14
14150.2
1910.81
12976.4
2341.84
12310.9
2826.26
11378.4
3343.85
10632.3
3922.74
9815.75
4569.29
9060.26
5276.93
8304.17
5975.96
7556.19
6514.71
6754.4
6646.21
5846.24
6109.8
4735.43
4950.65
3451.91
3079.7
1931.34
1449.91
34.1937
-2332.62
1182.63
16297
765.583
17513.3
945.123
15994.1
1225.21
14366.5
1546.49
13828.9
1846.16
12676.7
2158.23
11998.8
2480.89
11055.7
2806.7
10306.5
3135.46
9486.99
3468.16
8727.57
3808.5
7963.84
4136.25
7228.45
4394.82
6495.83
4483.37
5757.69
4273.92
4944.89
3706.9
4018.93
2756.08
2882.17
1451.22
1339.06
-881.408
1105.13
15191.9
1308.37
17310.1
1478.1
15824.4
1599.54
14245
1978.15
13450.3
2253.42
12401.4
2570.35
11681.9
2788.85
10837.3
2987.36
10108
3142.93
9331.44
3258.79
8611.71
3317.93
7904.71
3325.66
7220.73
3266.49
6555.01
3115.09
5909.1
2825.73
5234.27
2343.79
4500.88
1638.83
3587.13
716.757
2261.15
-164.65
885.001
14306.9
2449.77
15745.3
3605.72
14668.4
4439.63
13411.1
5444.08
12445.8
6242.32
11603.2
6956.48
10967.7
7396.08
10397.7
7623.45
9880.59
7623.04
9331.85
7463.28
8771.48
7166.29
8201.7
6751.77
7635.25
6223.19
7083.6
5584.18
6548.11
4822.57
5995.89
3919.18
5404.27
2844.07
4662.25
1482.84
3622.4
1318.19
961.958
13344.9
2942.47
13764.8
4798.72
12812.2
6347.6
11862.3
7708.62
11084.8
8810.87
10501
9681.46
10097.1
10249.4
9829.76
10489.6
9640.39
10381.7
9439.7
10006.7
9146.5
9442.14
8766.3
8731.62
8345.79
7897.77
7917.45
6951.09
7494.8
5885.03
7061.96
4698.15
6591.16
3369.79
5990.63
1842.35
5149.86
3160.54
1023.69
12321.2
2559.21
12229.3
3969.9
11401.5
5126.85
10705.3
6055.23
10156.5
6790.73
9765.45
7359.01
9528.85
7754.22
9434.54
7950.27
9444.33
7903.74
9486.22
7631.92
9418.32
7194.78
9203.44
6644.51
8896.05
6004.34
8557.62
5279.77
8219.37
4461.16
7880.56
3546.01
7506.31
2520.39
7016.25
1358.14
6312.12
4518.69
796.402
11524.8
1691.55
11334.2
2389.46
10703.6
2916.44
10178.3
3327.36
9745.55
3668.29
9424.52
3963.04
9234.1
4219.95
9177.64
4413.59
9250.7
4484.1
9415.71
4410.5
9491.92
4237.69
9376.25
3996.19
9137.56
3691.23
8862.58
3320.25
8590.36
2873.4
8327.41
2343.35
8036.37
1720.4
7639.21
948.326
7084.19
5467.01
449.579
11075.2
839.89
10943.8
1071.48
10472
1221.28
10028.5
1338.65
9628.17
1453.1
9310.04
1586.8
9100.38
1743.81
9020.6
1920.23
9074.26
2096.44
9239.47
2165.58
9422.75
2184.37
9357.43
2163.38
9158.53
2091.39
8934.55
1962.89
8718.84
1772.47
8517.82
1511.9
8296.94
1174.32
7976.78
673.633
7584.87
6140.64
188.354
10886.9
314.989
10817.2
366.767
10420.2
392.212
10003.1
412.083
9608.29
438.361
9283.76
489.079
9049.66
575.199
8934.48
699.249
8950.21
876.086
9062.62
1009.44
9289.39
1122.84
9244.02
1205.16
9076.21
1240.69
8899.01
1226.5
8733.03
1162.36
8581.95
1041.99
8417.31
854.807
8163.96
512.189
7927.49
6652.83
93.1727
10793.7
123.776
10786.6
142.734
10401.2
158.103
9987.68
167.972
9598.4
172.846
9278.86
184.432
9038.05
224.717
8894.15
290.325
8884.56
394.88
8958.03
539.142
9145.11
678.271
9104.86
782.651
8971.81
842.257
8839.38
858.385
8716.88
835.102
8605.21
768.587
8483.81
641.297
8291.23
391.058
8177.71
7043.89
104.075
10689.6
107.695
10782.9
132.064
10376.8
160.556
9959.17
179.934
9579.01
187.896
9270.88
193.334
9032.59
207.437
8880.02
237.751
8854.23
300.913
8894.85
426.274
9019.73
544.236
8986.88
623.321
8892.71
661.499
8801.19
662.605
8715.76
634.221
8633.58
573.097
8544.92
458.397
8405.92
270.699
8365.4
7314.59
163.13
10526.4
169.928
10776.1
216.3
10330.4
269.979
9905.47
311.132
9537.84
337.091
9244.89
346.443
9023.21
343.333
8883.1
345.099
8852.44
371.945
8867.97
455.015
8936.64
527.6
8914.27
562.869
8857.43
564.209
8799.83
534.928
8745.03
485.114
8683.38
409.37
8620.66
291.038
8524.25
153.173
8503.26
7467.76
233.729
10292.7
222.816
10787
251.721
10301.5
300.003
9857.18
348.797
9489.03
392.672
9201
420.538
8995.32
427.813
8875.81
430.699
8849.53
447.201
8851.45
498.882
8884.94
538.05
8875.09
544.133
8851.32
522.014
8821.93
472.506
8794.52
405.419
8750.46
313.736
8712.33
187.58
8650.39
83.3408
8607.48
7551.1
366.171
9926.52
421.687
10731.5
549.393
10173.8
688.156
9718.4
802.585
9374.59
883.972
9119.6
909.343
8969.94
895.558
8889.58
867.281
8877.8
841.668
8877.05
829.5
8897.1
805.346
8899.23
756.502
8900.16
685.985
8892.44
594.488
8886.01
486.851
8858.09
359.724
8839.45
205.276
8804.83
98.0588
8714.7
7649.16
533.832
9392.68
346.358
10919
223.824
10296.3
195.77
9746.45
229.622
9340.73
289.041
9060.16
387.597
8871.37
482.277
8794.89
561.932
8798.14
626.806
8812.17
681.78
8842.11
712.612
8868.39
716.479
8896.29
689.005
8919.91
635.346
8939.66
549.038
8944.39
437.187
8951.3
281.33
8960.69
164.081
8831.94
7813.24
1305.61
2432.17
3347.67
4112.33
4741.67
5273.59
5479.57
5347.34
5124.66
4827.3
4480.41
4090.99
3671.45
3223.89
2758.33
2269.64
1770.46
1251.46
724.591
)
;

boundaryField
{
    outletWall
    {
        type            calculated;
        value           nonuniform List<scalar> 
60
(
-24922.8
-21643.7
-46313
-63249.4
-83622.2
-81455
-71096.3
-65182.9
-46237.1
8100.64
66731.2
77177
64014.9
52091.9
45418.6
40522.4
36136.7
31220.7
27568.2
18705
10000.8
13128.3
15103.5
17360.7
19746.5
22329.4
25199.7
28365.9
31623.2
34247.2
34061.3
31328.8
28075
24955.5
22100.1
19509.7
17118.7
14873.1
12929.3
9874.21
-42763.3
-49656.3
-71230.1
-85887.4
-92461.9
-74077.1
-57736
-45348.1
-19996.8
32438.7
68691.2
72690.4
64800
56861.9
50110.5
43813.3
38207.3
32439.7
28235.9
18971.8
)
;
    }
    fineWalls
    {
        type            calculated;
        value           uniform 0;
    }
    fineFrontAndBack
    {
        type            calculated;
        value           nonuniform List<scalar> 
960
(
1.02521e-14
-4.97962e-13
5.50258e-14
1.01628e-13
2.5475e-13
3.14931e-14
-8.90499e-14
2.45702e-13
-5.03834e-12
-1.59948e-12
-2.09709e-12
4.43504e-12
3.68503e-12
3.02523e-12
3.33007e-11
6.36346e-12
3.93912e-12
1.28852e-11
-5.77074e-13
-3.39452e-12
-5.62034e-12
-9.05644e-12
-1.1206e-11
-1.29036e-11
-1.42375e-11
-1.50677e-11
-3.40829e-10
-1.65501e-11
-1.69302e-11
-1.74862e-11
-1.80143e-11
-1.83485e-11
-1.87642e-11
-1.92296e-11
-1.93609e-11
-1.95668e-11
-1.96853e-11
-1.98318e-11
-2.03991e-11
-2.12052e-11
-5.26599e-10
-7.62165e-11
-7.1777e-11
-5.68476e-11
-1.33666e-10
-2.01313e-12
4.85671e-12
8.98928e-12
7.34281e-11
4.12385e-12
-6.47009e-12
-9.10864e-11
-1.27904e-11
-9.94162e-12
-3.62364e-12
9.52678e-11
4.50211e-11
6.18391e-11
7.08317e-11
5.08517e-10
2.10285e-11
1.95847e-11
1.89098e-11
1.87335e-11
1.88952e-11
1.89802e-11
1.90191e-11
1.8498e-11
1.80079e-11
1.74246e-11
1.67895e-11
1.57854e-11
1.47583e-11
2.44763e-10
1.07798e-11
9.07218e-12
6.38458e-12
3.51932e-12
1.00253e-12
-1.38124e-12
-1.31228e-11
-5.08449e-12
1.47647e-11
6.97737e-12
7.64132e-12
3.72602e-11
5.90602e-12
5.86615e-12
2.23605e-11
2.92213e-12
2.76912e-12
6.3125e-12
-1.1906e-12
-1.12695e-12
-1.18116e-12
-6.95475e-12
-1.38531e-12
-1.39416e-12
-3.59868e-12
2.44659e-13
2.47759e-13
-6.28184e-13
-2.1498e-12
-3.19837e-12
-1.71648e-12
2.53931e-12
5.70417e-12
1.30975e-12
-1.34247e-11
-3.02874e-11
-2.84482e-11
-1.10445e-11
-5.48015e-12
-2.44691e-12
-6.9904e-13
-3.35691e-13
-1.77378e-13
8.68068e-15
7.04145e-13
-2.7894e-12
-6.51622e-12
-1.10293e-11
-1.43087e-11
-1.15541e-11
-2.54265e-12
3.36207e-12
-7.61112e-12
-3.75575e-11
-6.83878e-11
-6.53556e-11
-1.84581e-11
-5.62522e-13
-3.29258e-12
-8.56718e-13
-2.9173e-13
-1.9339e-13
-1.38279e-13
8.77767e-13
-8.85353e-12
-1.70837e-11
-2.50383e-11
-2.95909e-11
-2.33915e-11
-8.1856e-12
-2.09256e-13
-1.73112e-11
-5.66132e-11
-9.74763e-11
-1.10908e-10
-7.10886e-11
-2.94088e-12
2.5237e-12
-1.57077e-12
-3.64485e-13
4.06913e-14
2.83449e-13
1.232e-12
-2.0789e-11
-3.63805e-11
-4.79151e-11
-5.12999e-11
-3.74458e-11
-1.34815e-11
-3.68887e-12
-2.53874e-11
-6.66515e-11
-1.0724e-10
-1.33511e-10
-1.25959e-10
-5.91557e-11
9.30705e-13
5.83418e-13
-3.16418e-13
-1.74178e-12
-1.74202e-12
-7.01465e-12
-4.16095e-11
-6.71602e-11
-8.00157e-11
-7.68866e-11
-5.0205e-11
-1.67371e-11
-5.46577e-12
-2.39155e-11
-5.31955e-11
-7.80446e-11
-9.73382e-11
-1.14709e-10
-7.63373e-11
-1.58454e-11
5.8861e-12
-2.13301e-12
7.13302e-12
7.43165e-12
7.95803e-12
-7.37907e-11
-1.10441e-10
-1.1954e-10
-1.02438e-10
-5.84073e-11
-1.67921e-11
-6.13112e-12
-2.15327e-11
-4.38706e-11
-6.01586e-11
-6.7524e-11
-6.69161e-11
-5.52925e-11
2.12443e-11
6.85831e-11
2.29515e-11
-2.98301e-11
-2.14562e-11
-5.91045e-11
-1.17035e-10
-1.63808e-10
-1.63198e-10
-1.2553e-10
-6.20992e-11
-1.50423e-11
-6.06063e-12
-1.97908e-11
-3.66644e-11
-4.07591e-11
-4.21926e-11
-5.32942e-11
-5.64917e-11
8.70074e-11
2.73404e-10
2.80804e-10
1.80388e-10
1.01298e-10
2.30635e-10
-1.64437e-10
-2.19089e-10
-2.07615e-10
-1.48976e-10
-6.58263e-11
-1.66743e-11
-1.28504e-11
-1.78141e-11
-1.06556e-11
3.63386e-12
-2.71957e-11
-9.50696e-11
-7.93629e-11
1.24992e-10
4.6823e-10
7.41487e-10
8.71015e-10
8.66795e-10
8.56016e-10
-1.96141e-10
-2.54955e-10
-2.43558e-10
-1.81832e-10
-8.07158e-11
5.20568e-13
1.62849e-11
7.63034e-12
1.20134e-11
-6.46852e-12
-8.64584e-11
-1.57532e-10
-1.07335e-10
7.5695e-11
3.42147e-10
5.84054e-10
7.55179e-10
7.84097e-10
6.20773e-10
-1.7012e-10
-2.15553e-10
-2.13382e-10
-1.92578e-10
-1.56938e-10
-1.19875e-10
-7.16013e-11
1.5927e-11
1.30782e-11
-3.50268e-11
-1.39765e-10
-2.03208e-10
-1.55766e-10
-6.5556e-11
6.81683e-11
1.73696e-10
2.10774e-10
2.35824e-10
1.88651e-10
-2.11193e-11
-1.17029e-11
1.78042e-11
4.32853e-11
5.70954e-11
6.18052e-11
4.44996e-11
-4.96291e-12
1.15075e-11
-4.21667e-12
-3.4873e-11
-4.32385e-11
-3.01489e-11
-6.05409e-11
-1.48646e-10
-2.76952e-10
-4.15131e-10
-4.41561e-10
-2.85719e-10
2.11226e-11
1.59257e-11
1.36935e-11
8.50712e-12
5.58643e-12
5.75231e-12
7.10448e-12
5.09896e-12
-2.01631e-12
-3.86302e-12
3.56996e-12
3.43758e-11
4.07178e-11
-9.12344e-11
-3.97651e-10
-7.04927e-10
-8.99227e-10
-9.16916e-10
-7.11511e-10
2.93435e-11
1.91718e-11
1.3098e-11
9.45939e-12
9.21786e-12
1.14325e-11
1.55219e-11
1.56672e-11
2.20691e-12
-8.64061e-12
5.56748e-12
5.38529e-11
7.31623e-11
-8.45732e-11
-4.50321e-10
-7.28485e-10
-7.66243e-10
-7.99623e-10
-9.01232e-10
2.61701e-11
1.72036e-11
1.24046e-11
1.00867e-11
9.90525e-12
1.39191e-11
2.37096e-11
3.39084e-11
3.01782e-11
1.50143e-11
2.02179e-11
6.01179e-11
8.4165e-11
-3.01721e-11
-2.54663e-10
-2.70712e-10
-1.238e-10
-9.7193e-11
-3.33643e-10
1.95179e-11
1.35389e-11
1.10601e-11
1.01954e-11
1.01185e-11
1.5776e-11
3.11169e-11
5.1247e-11
6.36652e-11
6.04417e-11
6.11144e-11
8.41814e-11
9.89752e-11
3.49321e-11
-6.80341e-11
-5.76609e-11
-2.67125e-11
-1.95873e-11
4.12485e-12
1.26779e-11
9.41868e-12
8.99349e-12
9.4999e-12
8.88482e-12
1.28612e-11
3.05693e-11
5.93958e-11
8.72838e-11
1.03006e-10
1.11552e-10
1.22061e-10
1.19965e-10
7.04516e-11
7.13599e-12
-5.77344e-12
-5.55394e-12
-1.8602e-12
-4.72321e-12
7.03143e-12
5.60079e-12
6.45415e-12
8.09838e-12
7.52939e-12
8.06628e-12
1.9777e-11
4.7328e-11
8.27436e-11
1.14317e-10
1.35285e-10
1.40545e-10
1.17439e-10
5.79686e-11
1.15516e-11
1.00168e-12
-9.72007e-13
-1.24107e-14
-4.35588e-13
3.01052e-12
2.56462e-12
3.91199e-12
6.1151e-12
6.16997e-12
4.85153e-12
9.82907e-12
2.94084e-11
6.22855e-11
9.73211e-11
1.19256e-10
1.11227e-10
6.3562e-11
6.31657e-12
3.90348e-12
3.52821e-13
-9.7508e-13
-1.68607e-13
-3.35908e-13
4.94003e-13
4.5009e-13
1.83173e-12
4.07221e-12
4.77428e-12
3.23751e-12
3.93392e-12
1.5134e-11
4.05851e-11
7.10459e-11
8.351e-11
5.62467e-11
1.1467e-11
5.81285e-12
4.99648e-12
8.23726e-13
-9.03022e-13
-7.20101e-14
-8.94241e-13
-9.05314e-13
-9.24761e-13
5.81797e-14
1.62626e-12
2.49007e-12
1.74394e-12
8.14983e-13
4.14837e-12
1.63495e-11
3.46892e-11
4.25245e-11
2.6362e-11
1.49041e-11
1.06121e-11
5.50664e-12
6.8337e-13
-9.83614e-13
-4.33409e-14
-8.0528e-13
-1.02521e-14
4.97962e-13
-5.50258e-14
-1.01628e-13
-2.5475e-13
-3.14931e-14
8.90499e-14
-2.45702e-13
5.03834e-12
1.59948e-12
2.09709e-12
-4.43504e-12
-3.68503e-12
-3.02523e-12
-3.33007e-11
-6.36346e-12
-3.93912e-12
-1.28852e-11
5.77074e-13
3.39452e-12
5.62034e-12
9.05644e-12
1.1206e-11
1.29036e-11
1.42375e-11
1.50677e-11
3.40829e-10
1.65501e-11
1.69302e-11
1.74862e-11
1.80143e-11
1.83485e-11
1.87642e-11
1.92296e-11
1.93609e-11
1.95668e-11
1.96853e-11
1.98318e-11
2.03991e-11
2.12052e-11
5.26599e-10
7.62165e-11
7.1777e-11
5.68476e-11
1.33666e-10
2.01313e-12
-4.85671e-12
-8.98928e-12
-7.34281e-11
-4.12385e-12
6.47009e-12
9.10864e-11
1.27904e-11
9.94162e-12
3.62364e-12
-9.52678e-11
-4.50211e-11
-6.18391e-11
-7.08317e-11
-5.08517e-10
-2.10285e-11
-1.95847e-11
-1.89098e-11
-1.87335e-11
-1.88952e-11
-1.89802e-11
-1.90191e-11
-1.8498e-11
-1.80079e-11
-1.74246e-11
-1.67895e-11
-1.57854e-11
-1.47583e-11
-2.44763e-10
-1.07798e-11
-9.07218e-12
-6.38458e-12
-3.51932e-12
-1.00253e-12
1.38124e-12
1.31228e-11
5.08449e-12
-1.47647e-11
-6.97737e-12
-7.64132e-12
-3.72602e-11
-5.90602e-12
-5.86615e-12
-2.23605e-11
-2.92213e-12
-2.76912e-12
-6.3125e-12
1.1906e-12
1.12695e-12
1.18116e-12
6.95475e-12
1.38531e-12
1.39416e-12
3.59868e-12
-2.44659e-13
-2.47759e-13
6.28184e-13
2.1498e-12
3.19837e-12
1.71648e-12
-2.53931e-12
-5.70417e-12
-1.30975e-12
1.34247e-11
3.02874e-11
2.84482e-11
1.10445e-11
5.48015e-12
2.44691e-12
6.9904e-13
3.35691e-13
1.77378e-13
-8.68068e-15
-7.04145e-13
2.7894e-12
6.51622e-12
1.10293e-11
1.43087e-11
1.15541e-11
2.54265e-12
-3.36207e-12
7.61112e-12
3.75575e-11
6.83878e-11
6.53556e-11
1.84581e-11
5.62522e-13
3.29258e-12
8.56718e-13
2.9173e-13
1.9339e-13
1.38279e-13
-8.77767e-13
8.85353e-12
1.70837e-11
2.50383e-11
2.95909e-11
2.33915e-11
8.1856e-12
2.09256e-13
1.73112e-11
5.66132e-11
9.74763e-11
1.10908e-10
7.10886e-11
2.94088e-12
-2.5237e-12
1.57077e-12
3.64485e-13
-4.06913e-14
-2.83449e-13
-1.232e-12
2.0789e-11
3.63805e-11
4.79151e-11
5.12999e-11
3.74458e-11
1.34815e-11
3.68887e-12
2.53874e-11
6.66515e-11
1.0724e-10
1.33511e-10
1.25959e-10
5.91557e-11
-9.30705e-13
-5.83418e-13
3.16418e-13
1.74178e-12
1.74202e-12
7.01465e-12
4.16095e-11
6.71602e-11
8.00157e-11
7.68866e-11
5.0205e-11
1.67371e-11
5.46577e-12
2.39155e-11
5.31955e-11
7.80446e-11
9.73382e-11
1.14709e-10
7.63373e-11
1.58454e-11
-5.8861e-12
2.13301e-12
-7.13302e-12
-7.43165e-12
-7.95803e-12
7.37907e-11
1.10441e-10
1.1954e-10
1.02438e-10
5.84073e-11
1.67921e-11
6.13112e-12
2.15327e-11
4.38706e-11
6.01586e-11
6.7524e-11
6.69161e-11
5.52925e-11
-2.12443e-11
-6.85831e-11
-2.29515e-11
2.98301e-11
2.14562e-11
5.91045e-11
1.17035e-10
1.63808e-10
1.63198e-10
1.2553e-10
6.20992e-11
1.50423e-11
6.06063e-12
1.97908e-11
3.66644e-11
4.07591e-11
4.21926e-11
5.32942e-11
5.64917e-11
-8.70074e-11
-2.73404e-10
-2.80804e-10