/*--------------------------------*- C++ -*----------------------------------*\
| =========                 |                                                 |
| \\      /  F ield         | OpenFOAM: The Open Source CFD Toolbox           |
|  \\    /   O peration     | Version:  4.1                                   |
|   \\  /    A nd           | Web:      www.OpenFOAM.org                      |
|    \\/     M anipulation  |                                                 |
\*---------------------------------------------------------------------------*/
FoamFile
{
    version     2.0;
    format      ascii;
    class       surfaceScalarField;
    location    "26";
    object      phi;
}
// * * * * * * * * * * * * * * * * * * * * * * * * * * * * * * * * * * * * * //

dimensions      [0 3 -1 0 0 0 0];

internalField   nonuniform List<scalar> 
2360
(
44835.7
51174.4
-6338.72
51174.4
51174.4
59197.6
-8023.17
59197.6
59197.6
59197.6
69494
-10296.4
69494
69494
82539.1
-13045.2
82539.1
82539.1
101032
-18492.6
101032
101032
129389
-28357.5
129389
129389
138218
151575
165658
179211
191799
203377
169513
44707.2
179587
188980
197749
205920
213490
220445
226807
232710
238533
244833
252064
259922
266682
158347
108336
158347
158347
158347
67613.1
90733.7
67613.1
67613.1
67613.1
9600.7
58012.4
9600.7
9600.69
-32432.1
42032.8
-32432.1
-32432.1
-32432.1
-136214
103782
-136214
-136214
-136214
-248836
112621
-240345
-230020
-219530
-209979
-201557
-194117
-187203
-180400
-173390
-165980
-158046
-149520
-140398
-170769
39889.7
-160826
-150390
-139322
-127871
-116460
-106725
-106725
-106725
-66710.7
-40014.2
-66710.7
-66710.7
-33951.4
-32759.3
-33951.4
-33951.4
-4266.97
-29684.4
-4266.98
-4266.98
22826.6
-27093.6
22826.6
22826.6
22826.6
49390.4
-26563.8
49390.4
49390.4
77803.7
-28413.4
-23457
-5362.2
-18801.9
-93695.6
-16711.3
-40829.1
-11840.3
57279.9
-9455.87
94889.4
-7927.13
108422
-6335.91
116022
-4548.4
117642
-1968.39
116762
1461.19
108512
4826.12
110784
8341.47
109444
13222.4
70688.3
19628.7
27305.5
25317.7
-13267.3
29583.4
-17868.7
30712
5196.75
31296.5
22760
8385.52
-31756.6
-12258.2
-33889.7
-91562.5
-29205.6
-45513.2
-16613.8
44688
-11096.9
89372.5
-8978.4
106303
-7116.11
114160
-5190.76
115717
-2601.06
114172
733.788
105177
3683
107835
7159.55
105967
13012.4
64835.5
22711.7
17606.2
31909
-22464.6
38290
-24249.7
36786.1
6700.62
30533.3
29012.8
12355
-45177.4
-13167.4
-51035.7
-85704.3
-45307.9
-51240.9
-25987.5
25367.6
-14809.2
78194.3
-10900.2
102394
-8525.95
111786
-6351.18
113542
-3658.14
111479
-493.525
102013
1851.33
105490
4983.35
102835
11533.2
58285.6
23357.8
5781.58
35509.7
-34616.5
44959.5
-33699.4
43345.8
8314.33
33020.4
39338.3
18281.8
-62217.1
-8593.25
-71553.5
-76367.9
-65534.2
-57260.2
-39866.7
-299.97
-21486
59813.6
-14232
95140.1
-10769.4
108323
-8109.43
110882
-5142.41
108512
-1713.55
98583.7
-274.616
104051
1876.9
100684
8954.54
51208
21700.6
-6964.53
34752.7
-47668.5
47078.6
-46025.4
47102
8291
35197.6
51242.6
23795
-80842.4
2001.35
-95277.5
-61932.8
-91976.7
-60561.1
-60738.6
-31538
-30767.2
29842.3
-19063.4
83436.3
-14292.4
103552
-10772.6
107362
-7338.89
105078
-5418.79
96663.6
-4915.92
103548
-2416.21
98184.1
4456.2
44335.6
14957.3
-17465.6
24066.2
-56777.4
37086
-59045.2
43651.8
1725.19
35753.4
59141.1
26789.1
-98732
18408.2
-119254
-41411.2
-122437
-57377.9
-93960.2
-60014.6
-48789.9
-15328.1
-24866.2
59512.7
-18864.5
97550.4
-14346.8
102844
-10406.1
101137
-9899.67
96157.1
-10034.8
103683
-7483.91
95633.3
-2956.65
39808.3
-110.833
-20311.4
-3073.38
-53814.8
732.414
-62851
12663.5
-10205.9
26150.9
45653.7
12925.7
-112394
39512.4
-137390
-16414.8
-145755
-49013.4
-128459
-77309.8
-78823.9
-64963.5
-35818.1
16506.9
-23162.6
84894.9
-18370.5
98052.3
-13890.7
96657.7
-14344.4
96610.8
-14906.9
104246
-12409.1
93135.5
-12027.1
39426.3
-21890.9
-10447.7
-42338.3
-33367.4
-55399.5
-49789.8
-29543.5
-36061.9
3954.38
12155.8
56769.8
-116303
62325.3
-140378
7659.44
-145767
-43623.7
-136218
-86859.1
-103530
-97651.2
-56920.3
-30103.1
-30504.5
58479.1
-23815.9
91363.7
-20397.9
93239.7
-21324.9
97537.8
-21182.9
104104
-18127
90079.6
-23506.8
44806.1
-47764
13809.4
-84553.3
3421.99
-114593
-19750.3
-115918
-34737
-101933
-1828.71
67457.7
-108063
82690.6
-124718
24314.2
-120112
-48229.5
-110904
-96067.2
-99255.4
-109300
-74924.7
-54433.8
-46620.8
30175.2
-33796.8
78539.7
-30947.9
90390.8
-30349.5
96939.3
-27232
100986
-23744.7
86592.3
-37357.2
58418.5
-73295.3
49747.5
-113216
43342.9
-141965
8998.55
-151927
-24774.8
-139825
-13930.8
31414.8
-94205
99042.7
-103135
33244.4
-91861.6
-59503.1
-82470.9
-105458
-83258.5
-108512
-84481.3
-53211.1
-67323.5
13017.5
-49026.9
60243
-41487.6
82851.5
-37142.1
92593.9
-31564
95408.1
-33333
88361.3
-57327.1
82412.7
-93518.9
85939.3
-120683
70507.4
-133577
21891.8
-131015
-27336.1
-104473
-40473.4
-31025.1
-80853
112579
-88521.6
40912.9
-79234.1
-68790.6
-72548.1
-112144
-78754.2
-102306
-93572.5
-38392.7
-88474.8
7919.79
-69929.7
41697.9
-55560.4
68482.2
-47674.1
84707.6
-45934.2
93668.2
-57910.7
100338
-83789.6
108292
-108830
110980
-124399
86075.9
-131473
28966.1
-128263
-30545.8
-107021
-61715.7
-80033.8
-69274.3
124309
-78695.7
50334.3
-73279.8
-74206.4
-69198.7
-116225
-79079.1
-92425.5
-101033
-16438.5
-106327
13213.3
-95782.3
31153.4
-82869.3
55569.1
-75761
77599.2
-77903.5
95810.7
-90012.8
112447
-106377
124656
-118315
122917
-121465
89226.6
-114409
21910.3
-104670
-40285.4
-103724
-62661.5
-93024
-59135.4
134369
-69511.4
60710.3
-66023.4
-77694.5
-62628.4
-119620
-73332.7
-81721.2
-97105.4
7334.09
-109680
25788.4
-111282
32754.9
-107785
52071.8
-104833
74647.4
-106048
97026
-110983
117382
-116168
129842
-114029
120778
-94670.4
69867.7
-59430
-13330.2
-34160.3
-65555.2
-49104.6
-47717.2
-33793
-50278.1
142657
-60082.3
70514.6
-57135.5
-80641.3
-53729.3
-123026
-62273
-73177.6
-83435.4
28496.5
-98498.4
40851.4
-107346
41602.5
-111351
56076.7
-112512
75809
-113084
97597.7
-113605
117902
-110912
127149
-95205
105071
-59825.4
34488.1
-25711.9
-47443.6
-11854.2
-79412.8
404.094
-59975.5
11318.3
-42878.8
149054
-50644.4
78280.1
-47554.1
-83731.6
-44640.9
-125939
-50113.1
-67705.3
-66858.6
45242
-81192.7
55185.5
-92139.2
52549
-99249.9
63187.4
-103008
79567.5
-104213
98802.7
-102737
116426
-93587.1
117999
-67550.6
79034.7
-31411
-1651.51
-9806.94
-69047.7
-5550.81
-83669
7859.29
-73385.6
-9179.95
-37239
153756
-41973.9
83015
-38420.7
-87284.8
-36519
-127841
-39092.1
-65132.1
-51482.1
57632
-63815.9
67519.3
-74534
63267
-82313.2
70966.5
-87136.7
84391
-88883.2
100549
-85407.7
112951
-70993.1
103584
-40218.2
48259.7
-11364.2
-30505.5
77.6719
-80489.6
500.391
-84091.7
5329.7
-78214.9
-22342.8
-33938.7
156481
-34611.8
83688.1
-30796.2
-91100.4
-29735.3
-128902
-29291.3
-65576.1
-38172.6
66513.3
-48585.9
77932.5
-58375.2
73056.3
-65869.3
78460.7
-70470.9
88992.6
-71433.6
101512
-65896.5
107414
-48542
86229.6
-17073
16790.7
3440.93
-51019.4
7412.39
-84461
5688.37
-82367.7
5783.57
-78310.1
-29604.4
-33071.8
157554
-29675.3
80291.6
-25438.6
-95337
-24190.7
-130150
-20318
-69448.7
-26917
73112.3
-35988.8
87004.2
-44570
81637.6
-51282.5
85173.2
-54960.4
92670.5
-54708.7
101260
-47894.8
100600
-29078.9
67413.7
-1158.57
-11129.7
10951.1
-63129
11005.2
-84515.2
8477.32
-79839.7
7411.84
-77244.6
-32489
-34048.6
155947
-26263.1
72506.1
-21998.4
-99601.7
-19851.1
-132297
-12868.7
-76431.1
-17420.7
77664.3
-26060.7
95644.2
-34085.5
89662.4
-40343.2
91430.8
-43222
95549.3
-41804.3
99842.5
-33889.1
92684.8
-13835.5
47360.1
5692.66
-30657.8
11076.2
-68512.5
11601.5
-85040.5
10041.6
-78279.8
8838.54
-76041.5
-31673.6
-42690.4
-27982.3
-20200.8
-16307.8
-10223.1
-9835.12
-14793.9
-20624.9
-25612.6
-28067.6
-26668.4
-20183
-6327.53
5895.37
10768.7
12358.9
11257.5
10114.8
441.694
-9270.64
2274.61
-15189.6
4133.7
-15941.7
5698.29
-15118.2
6913.85
-13803.7
7848.77
-12512.7
8315.74
-11309.7
8583.76
-10342.3
8705.05
-9514.25
8716.14
-8779.89
8641.55
-8095.9
8501.7
-7430.38
8307.75
-6760.68
8041.67
-6095.91
7644.79
-5506.44
6993.43
-5171.59
5960.04
-5266.35
4450.45
-5721.19
2504.19
-5912.51
-4255.94
185.805
-9456.39
958.751
-15962.5
1656.57
-16639.5
2159.37
-15620.9
2592.98
-14237.3
3039.21
-12958.8
3577.64
-11848.1
4110.45
-10875
4615.89
-10019.6
5082.14
-9246.09
5510.63
-8524.35
5912.97
-7832.67
6309.02
-7156.7
6695.56
-6482.41
7005.69
-5816.55
7020.85
-5186.72
6426.77
-4672.26
4930.8
-4225.21
2620.9
-3602.6
-1635.04
914.892
-10371.2
2114.82
-17162.4
2949.25
-17473.9
3523.05
-16194.7
4071.37
-14785.6
4651.92
-13539.3
5264.02
-12460.2
5871.79
-11482.8
6412.39
-10560.2
6828.15
-9661.81
7085.31
-8781.48
7173.78
-7921.1
7106.01
-7088.9
6905.49
-6281.86
6586.05
-5497.08
6100.11
-4700.74
5318.83
-3890.97
4056.39
-2962.76
2144.4
-1690.59
509.367
2136.13
-12507.3
3477.9
-18504.2
4127.15
-18123.1
4629.83
-16697.4
5252.08
-15407.8
6003.67
-14290.9
6839.2
-13295.7
7647.14
-12290.7
8340.56
-11253.6
8859.02
-10180.3
9169.36
-9091.81
9249.02
-8000.74
9081.14
-6921.01
8652.39
-5853.09
7957.87
-4802.55
6990.2
-3733.06
5743.53
-2644.28
4179.09
-1398.3
2213.77
274.759
2723.14
3052.4
-15559.7
4018.17
-19469.9
4377.42
-18482.4
4885.07
-17205
5674.23
-16197
6678.08
-15294.7
7774.65
-14392.3
8791.87
-13307.9
9640.59
-12102.3
10282
-10821.6
10704.6
-9514.42
10882.8
-8178.87
10774.8
-6813.03
10315.3
-5393.57
9407.35
-3894.57
7928.47
-2254.17
5683.58
-399.375
3475.94
809.365
1498.1
2252.63
4221.24
1985.37
-17545.1
1517.13
-19001.7
1095.17
-18060.4
999.282
-17109.1
1131.72
-16329.4
1412.83
-15575.8
1688.1
-14667.5
1815.86
-13435.6
1774.24
-12060.7
1583.75
-10631.1
1258.25
-9188.9
782.403
-7703.01
140.743
-6171.35
-649.89
-4602.92
-1483.31
-3061.1
-2173.09
-1564.33
-2364.66
-207.738
-2625.05
1069.81
-2228.3
1855.91
1992.94
-642.887
-16902.2
-2084.41
-17560.1
-3323.88
-16820.9
-4483.53
-15949.4
-5643.76
-15169.1
-6801.87
-14417.7
-8004.4
-13465
-9262.7
-12177.3
-10554.7
-10768.7
-11868.7
-9317.1
-13208.4
-7849.16
-14563.1
-6348.31
-15875.7
-4858.78
-17010.6
-3467.96
-17708.3
-2363.47
-17454.3
-1818.31
-15655.1
-2006.84
-11754
-2831.34
-5961.66
-3936.39
-3968.73
-1937
-14965.2
-3088.98
-16408.2
-4470.29
-15439.6
-6166.51
-14253.2
-8047.97
-13287.7
-10064.8
-12400.9
-12055.6
-11474.2
-13936.7
-10296.2
-15670.6
-9034.82
-17288.2
-7699.55
-18781.5
-6355.79
-20068.1
-5061.81
-20923
-4003.84
-20963.4
-3427.53
-19779
-3547.88
-17173.5
-4423.79
-13174.4
-6005.99
-8119.94
-7885.79
-3190.07
-8866.25
-7158.8
-755.013
-14210.2
-692.316
-16470.9
-890.937
-15241
-1476.82
-13667.3
-2129.91
-12634.6
-2890.06
-11640.8
-3565.47
-10798.8
-4034.28
-9827.36
-4188.46
-8880.62
-4004.44
-7883.56
-3462.36
-6897.84
-2571.15
-5952.99
-1381.27
-5193.69
16.3607
-4825.11
1462.95
-4994.43
2691.53
-5652.34
3275.55
-6589.99
2847.37
-7457.6
1479.96
-7498.82
-5678.84
87.215
-14297.4
763.849
-17147.5
1216.83
-15694
1473.67
-13924.2
1828.97
-12989.9
2180.54
-11992.4
2583.52
-11201.8
3095.34
-10339.2
3788.02
-9573.31
4719.99
-8815.55
5916.75
-8094.6
7348.48
-7384.73
8843.47
-6688.68
10055.6
-6037.24
10562
-5500.86
10073.6
-5163.95
8524.49
-5040.87
6038.13
-4971.24
3093.46
-4554.17
-2585.38
570.84
-14868.3
1222.94
-17799.6
1591.55
-16062.6
1994.4
-14327
2519.96
-13515.5
3039.09
-12511.5
3571.81
-11734.5
4084.68
-10852.1
4576.18
-10064.8
5036.72
-9276.1
5470.75
-8528.64
5888.08
-7802.05
6296.53
-7097.15
6659.06
-6399.77
6862.89
-5704.7
6696.98
-4998.05
5952.93
-4296.83
4487.65
-3505.98
2381.05
-2447.6
-204.333
1018.09
-15886.4
1320.18
-18101.7
1587.89
-16330.3
1985.7
-14724.9
2486.79
-14016.6
2941.52
-12966.2
3422.15
-12215.2
3885.34
-11315.3
4356.66
-10536.2
4801.48
-9720.96
5204.91
-8932.1
5527.32
-8124.5
5731.47
-7301.32
5774.97
-6443.29
5619.6
-5549.36
5210.23
-4588.71
4474.71
-3561.33
3308.03
-2339.31
1687.33
-826.958
1483
1376.32
-17262.7
1341.06
-18066.5
1680.59
-16669.9
2160.99
-15205.3
2737.85
-14593.5
3284.51
-13512.9
3893.56
-12824.3
4517.4
-11939.2
5203.16
-11221.9
5911.12
-10428.9
6615.17
-9636.16
7218.84
-8728.18
7612.39
-7694.88
7689.28
-6520.2
7391.3
-5251.4
6686.43
-3883.85
5574.71
-2449.63
3975
-739.625
2031.6
1116.41
3514.6
1098.65
-18361.4
737.847
-17705.7
969.192
-16901.3
1314.54
-15550.7
1752.14
-15031.1
2215.6
-13976.4
2783.4
-13392.1
3420.78
-12576.6
4172.38
-11973.5
4982.97
-11239.6
5783.41
-10436.6
6382.76
-9327.56
6597.83
-7909.97
6337.56
-6259.95
5627.9
-4541.76
4506.73
-2762.71
3182.79
-1125.73
1894.22
548.898
526.651
2483.93
4041.25
43.0959
-18404.5
-622.794
-17039.8
-931.777
-16592.3
-1210.68
-15271.8
-1452.79
-14789
-1650.25
-13779
-1805.83
-13236.5
-1889.38
-12493
-1911.37
-11951.6
-1880.28
-11270.7
-1879.54
-10437.4
-2026.62
-9180.51
-2388.92
-7547.71
-2892.5
-5756.41
-3449.63
-3984.67
-4068.85
-2143.54
-4701.04
-493.574
-4835.42
683.248
-3614.27
1262.75
426.982
-565.314
-17839.2
-1257.88
-16347.3
-1874.14
-15976.1
-2568.49
-14577.5
-3278.33
-14079.2
-4016.17
-13041.1
-4822.65
-12430.1
-5663.52
-11652.2
-6582.45
-11032.7
-7533.44
-10319.7
-8489.01
-9481.82
-9325.21
-8344.33
-9896.68
-6976.25
-10074.9
-5578.17
-9814.1
-4245.5
-9065.8
-2891.85
-7873.87
-1685.5
-6135.63
-1055
-3321.5
-1551.38
-2894.52
-340.492
-17498.7
-840.296
-15847.5
-1189.74
-15626.6
-1575.18
-14192
-1957.35
-13697
-2328.67
-12669.8
-2750.09
-12008.7
-3198.35
-11204
-3708.84
-10522.2
-4225.26
-9803.31
-4633.04
-9074.06
-4717.69
-8259.7
-4312.12
-7381.83
-3403.68
-6486.62
-2065.42
-5583.79
-366.465
-4590.82
1404.46
-3456.47
2579.08
-2229.65
2270.72
-1243.05
-623.802
-984.02
-16514.7
-2134.28
-14697.3
-2934.44
-14826.5
-3470.52
-13656
-3910.47
-13257.1
-4109.11
-12471.2
-4211.25
-11906.5
-4156.57
-11258.6
-4003.49
-10675.3
-3721.32
-10085.5
-3276.92
-9518.46
-2589.06
-8947.56
-1612.81
-8358.09
-377.883
-7721.55
1043.41
-7005.1
2555.38
-6102.8
3872.17
-4773.26
4326.09
-2683.59
2959.47
123.558
2335.67
-1978.18
-14536.5
-4200.44
-12475
-6390.08
-12636.8
-8150.46
-11895.6
-9794.42
-11613.1
-11089.3
-11176.4
-12162.9
-10832.9
-12951.8
-10469.7
-13499.7
-10127.4
-13801.8
-9783.42
-13879.4
-9440.85
-13736.9
-9090.05
-13371.6
-8723.4
-12763.3
-8329.83
-11880.9
-7887.52
-10642.2
-7341.53
-8856.63
-6558.82
-6320.44
-5219.78
-3163.73
-3033.16
-828.058
-5436.55
-8811.57
-12348.4
-15144
-17657.2
-19733.5
-21466.4
-22836.2
-23863.6
-24547
-24887.8
-24877.9
-24501.3
-23731.1
-22518.6
-20760.2
-18219
-14338.8
-8271.94
-5439.35
14539.3
-8817.95
12478.6
-12358.4
12640.5
-15158.6
11900.1
-17676.8
11618.2
-19759.1
11182.3
-21498.7
10839.6
-22875.8
10477.1
-23911
10135.2
-24602.2
9791.21
-24950.3
9448.05
-24946.5
9096.2
-24575.2
8728.7
-23810.6
8335.39
-22605.4
7894.83
-20854.9
7349.45
-18312.6
6557.73
-14405.1
5192.51
-8289.11
2984
810.886
-1983.31
16522.6
-4208.79
14704.1
-6402.79
14834.5
-8165.44
13662.8
-9811.71
13264.5
-11107.1
12477.7
-12180.4
11912.8
-12967.1
11263.9
-13511.5
10679.5
-13809.2
10088.9
-13883.2
9522.11
-13740.1
8953.08
-13379
8367.58
-12780.2
7736.65
-11911.5
7026.04
-10683.6
6121.58
-8906.05
4780.18
-6371.44
2657.89
-3214.1
-173.347
-2403.21
-972.282
17494.9
-2104.41
15836.2
-2887.74
15617.8
-3400.17
14175.2
-3816
13680.3
-3983.94
12645.6
-4052.19
11981.1
-3957.42
11169.1
-3759.66
10481.8
-3429.22
9758.46
-2938.91
9031.79
-2217.04
8231.19
-1229.65
7380.18
-12.6403
6519.63
1363.46
5649.93
2795.05
4689.99
3993.79
3581.44
4324.23
2327.45
2902.66
1248.21
499.447
-297.322
17792.2
-760.768
16299.6
-1069.57
15926.6
-1409.97
14515.6
-1745.98
14016.3
-2068.99
12968.6
-2440.73
12352.8
-2838.36
11566.7
-3297.18
10940.6
-3758.88
10220.2
-4103.1
9376.01
-4114.93
8243.01
-3638.99
6904.24
-2675.48
5556.12
-1301.53
4275.97
399.333
2989.12
2142.41
1838.36
3201.74
1268.12
2599.92
1850.02
3099.37
-562.404
18354.6
-1233.23
16970.4
-1835.45
16528.8
-2532.61
15212.8
-3243.46
14727.1
-3992.29
13717.5
-4814.4
13174.9
-5681.89
12434.2
-6634.62
11893.3
-7621.9
11207.4
-8602.31
10356.4
-9432.82
9073.52
-9957.54
7428.96
-10054.3
5652.85
-9676.32
3898.01
-8772.61
2085.4
-7453.71
519.456
-5663.92
-521.683
-2944.68
-869.224
154.69
34.112
18320.5
-702.02
17706.6
-1046.67
16873.5
-1344.74
15510.8
-1613.48
14995.9
-1845
13949
-2038
13367.9
-2163.04
12559.2
-2234.85
11965.1
-2267.78
11240.4
-2344.84
10433.5
-2575.24
9303.93
-3010.61
7864.32
-3568.82
6211.06
-4174.89
4504.08
-4843.74
2754.25
-5485.15
1160.87
-5468.01
-538.83
-3928.09
-2409.13
-3773.4
1046.48
17274
1006.28
17746.8
1335.11
16544.6
1652.53
15193.4
2159.55
14488.8
2623
13485.5
3194.37
12796.5
3788.54
11965
4500.68
11253
5281.24
10459.8
6040.48
9674.23
6567.05
8777.36
6692.2
7739.17
6344.69
6558.57
5562.31
5286.46
4400.91
3915.65
3083.85
2477.93
1775.2
769.821
409.256
-1043.19
-3364.15
1195.8
16078.2
2168.02
16774.6
2986.93
15725.7
3557.29
14623.1
4285.7
13760.4
4883.92
12887.3
5539.32
12141.1
6116.38
11388
6694.98
10674.4
7251.27
9903.51
7806.11
9119.38
8262.55
8320.93
8506.49
7495.23
8436.02
6629.04
7998.91
5723.57
7163.32
4751.25
5933.71
3707.54
4219.69
2483.84
2178.16
998.33
-1185.98
919.202
15159
2097.05
15596.7
2956.07
14866.7
3503.64
14075.5
3984.26
13279.8
4399.85
12471.7
4849.17
11691.8
5265.27
10971.9
5608.28
10331.4
5822.98
9688.82
5978.98
8963.38
6078.05
8221.86
6077.9
7495.37
5935.53
6771.42
5612.72
6046.37
5062.07
5301.9
4234.91
4534.7
3066.58
3652.18
1575.44
2489.47
389.458
562.091
14596.9
1249.8
14909
1563.71
14552.8
1588.26
14050.9
1506.22
13361.9
1480
12497.9
1681.37
11490.4
2221.56
10431.7
3053.74
9499.19
3850.52
8892.05
4398.28
8415.63
4797.59
7822.55
5101.52
7191.44
5298.33
6574.62
5320.27
6024.43
5044.32
5577.85
4359.8
5219.21
3207.83
4804.15
1653.4
4043.89
2042.86
22.325
14574.6
-141.263
15072.6
-662.089
15073.6
-1397.77
14786.6
-2212.34
14176.4
-2936.03
13221.6
-3278.94
11833.3
-2809.91
9962.68
-1466.94
8156.21
316.502
7108.6
2089.38
6642.75
3860.09
6051.84
5547.11
5504.42
6872.2
5249.53
7496.96
5399.67
7214
5860.81
6070.29
6362.93
4270.99
6603.45
2168.44
6146.44
4211.3
-776.744
15351.4
-1725.27
16021.1
-2820.35
16168.7
-3984.64
15950.9
-5228.68
15420.5
-6537.33
14530.3
-7767.44
13063.5
-8741.85
10937.1
-9422.35
8836.72
-9284.46
6970.72
-8260.34
5618.64
-7064.05
4855.55
-5635.06
4075.44
-3963.24
3577.71
-2128.71
3565.15
-401.047
4133.16
807.893
5153.99
1219.76
6191.59
829.271
6536.94
5040.57
-1047.93
16399.3
-2129.72
17102.9
-2981.15
17020.1
-3693.86
16663.6
-4444.63
16171.2
-5417.4
15503
-6822.52
14468.6
-8866.93
12981.5
-11500.4
11470.2
-14114.9
9585.24
-16033.5
7537.26
-17599.3
6421.32
-18743.4
5219.56
-19120
3954.29
-18315.4
2760.51
-16024.2
1842
-12220.5
1350.31
-7491
1462.07
-2968.09
2014.03
2072.47
228.623
16170.7
-51.2443
17382.8
209.485
16759.4
819.031
16054.1
1552.64
15437.6
2180.46
14875.2
2388.15
14260.9
1966.48
13403.2
1029.62
12407.1
-564.568
11179.4
-2599.73
9572.43
-4510.51
8332.12
-6427.19
7136.24
-8329.21
5856.33
-10014.9
4446.22
-11016.8
2843.92
-10750.1
1083.61
-8840.59
-447.461
-5151.36
-1675.19
-3078.89
1991.7
14179
3055.47
16319
4439.55
15375.3
6090.36
14403.3
7886.72
13641.3
9711.72
13050.2
11418.9
12553.7
12814.5
12007.6
13863.3
11358.3
14390.7
10652
14112.1
9851.04
13392.7
9051.51
12275
8253.93
10738.4
7393.02
8778.1
6406.48
6397.2
5224.82
3639.67
3841.15
1044.13
2148.09
-258.294
-372.756
-3337.18
2084.94
12094
3622.04
14781.9
5056.2
13941.2
6450.05
13009.4
7799.32
12292
9095.5
11754.1
10335.5
11313.7
11462.8
10880.3
12443.9
10377.2
13252.1
9843.8
13750
9353.15
13900.6
8900.97
13694.8
8459.71
13121.2
7966.68
12158.6
7369.01
10770
6613.49
8916.63
5694.49
6557.49
4507.23
3336.06
2848.68
-1.12449
1396.36
10697.7
2797.93
13380.4
3928.63
12810.5
4829.24
12108.8
5578.71
11542.5
6232.8
11100
6830.83
10715.7
7370.9
10340.2
7843.81
9904.31
8255.5
9432.12
8589.51
9019.14
8796.91
8693.57
8837.43
8419.19
8668.11
8136
8229.91
7807.21
7430.18
7413.23
6189.86
6934.81
4460.55
6236.55
2320.32
4988.92
2319.2
694.147
10003.6
1894.29
12180.2
2862.29
11842.5
3609.2
11361.9
4231.93
10919.8
4772.46
10559.5
5276.81
10211.4
5800.67
9816.35
6326.99
9378
6844.04
8915.07
7357.99
8505.19
7862.64
8188.93
8319.97
7961.86
8628.56
7827.42
8625.67
7810.1
8095.96
7942.94
6900.13
8130.65
5009.7
8126.98
2622.93
7375.68
4942.13
-178.607
10182.2
-73.9706
12075.6
-117.482
11886
-140.578
11385
31.8742
10747.4
329.99
10261.3
841.673
9699.68
1493.21
9164.82
2305.36
8565.86
3243.44
7977
4281.53
7467.1
5384.46
7086.01
6465.59
6880.73
7344.03
6948.98
7774.96
7379.17
7492.59
8225.31
6410.72
9212.52
4566.33
9971.37
2352.97
9589.04
7295.1
447.373
1111.67
1546.52
1863.93
2174.7
2493.06
2674.89
2717.56
2756.67
2799.67
2857.18
2933.33
3011.08
3045.72
2985.55
2788.66
2449.56
1931.67
1194.96
)
;

boundaryField
{
    outletWall
    {
        type            calculated;
        value           nonuniform List<scalar> 
60
(
77803.7
-5502.33
-23344.6
-6325.36
13603
7578.31
-33711.8
-75569.2
-112959
-114149
-111942
-119342
-119429
-117614
-109950
-97273.8
-62150.9
38738.5
89040.6
-3839.66
50177.2
35655.6
31999
31213.5
32537.3
36481.3
41990.9
49075.2
57543.9
67317
77852.9
87697.7
93490.4
91289.4
82325.2
70247.8
57642.9
46086.7
38652.6
32658.8
-44835.7
-27897.6
-74898.8
-77178.4
-86630.7
-73385.9
-42880.7
33504.6
86199.4
98443.4
98004.3
96418.6
95493.4
100603
77276.4
-82515.8
-136190
-107383
57798
148460
)
;
    }
    fineWalls
    {
        type            calculated;
        value           uniform 0;
    }
    fineFrontAndBack
    {
        type            calculated;
        value           nonuniform List<scalar> 
960
(
1.34261e-13
-2.21777e-12
-1.85694e-13
-6.03231e-14
-3.51764e-12
-4.02442e-13
-1.78126e-13
-5.4465e-13
-5.4689e-12
-4.94554e-13
6.28689e-13
-2.4899e-12
-1.56426e-12
-2.32776e-12
-4.65793e-11
-1.39216e-11
-1.62018e-11
-9.48257e-11
-1.91515e-11
-1.94455e-11
-3.80048e-12
-4.51817e-12
-3.65734e-12
-3.01983e-12
-2.75628e-12
-3.1587e-12
6.76261e-13
-3.68515e-12
-3.19331e-12
-2.80172e-12
-2.37866e-12
-1.60488e-12
-3.08156e-13
1.22364e-12
2.42624e-12
1.96069e-12
-1.31654e-13
-2.29852e-12
-2.47116e-12
-4.65246e-12
-4.28574e-11
-8.31416e-12
-1.66367e-11
-2.55469e-11
-1.21546e-10
-1.04872e-11
-4.90375e-12
1.6711e-12
1.04095e-10
7.10196e-12
6.76873e-12
1.19914e-10
1.28748e-11
1.10345e-11
1.42192e-11
1.57319e-10
3.18783e-11
2.74406e-11
2.06413e-11
1.48594e-10
9.37182e-12
6.53746e-12
5.9512e-12
4.90356e-12
4.11566e-12
3.47568e-12
2.96904e-12
2.68398e-12
3.23712e-12
3.78091e-12
4.01359e-12
4.5191e-12
5.12471e-12
5.77462e-11
4.9242e-12
4.94402e-12
5.00831e-12
5.42531e-12
6.62788e-12
5.83963e-12
3.07552e-11
3.0743e-11
1.83111e-10
3.56593e-11
3.48478e-11
1.87388e-10
3.61966e-11
3.38826e-11
1.37575e-10
9.84803e-12
1.46732e-11
1.87348e-10
4.22741e-11
4.07195e-11
4.04833e-11
1.96839e-10
3.47527e-11
3.47938e-11
1.6458e-10
4.19939e-11
4.30026e-11
6.76915e-11
3.76281e-11
1.99334e-11
1.35487e-11
1.28233e-11
1.87669e-11
3.14331e-11
4.51967e-11
4.83955e-11
4.19774e-11
4.10518e-11
6.73682e-11
1.03389e-10
1.23131e-10
1.39377e-10
1.49165e-10
1.66735e-10
1.43256e-10
4.67901e-11
5.30027e-11
3.10617e-11
1.49359e-11
1.1687e-11
1.28781e-11
1.91763e-11
3.18351e-11
4.53345e-11
4.84033e-11
4.20276e-11
4.08581e-11
6.5418e-11
9.75581e-11
1.1402e-10
1.29524e-10
1.39927e-10
1.62986e-10
1.26653e-10
5.01616e-11
5.60823e-11
4.86265e-11
2.25205e-11
9.1685e-12
1.20873e-11
1.97323e-11
3.2501e-11
4.55257e-11
4.83326e-11
4.19983e-11
4.072e-11
6.36471e-11
9.12905e-11
1.07167e-10
1.22235e-10
1.3158e-10
1.56132e-10
1.25842e-10
5.47473e-11
6.81841e-11
7.30621e-11
4.57452e-11
1.30158e-11
1.18485e-11
2.05673e-11
3.36341e-11
4.59373e-11
4.82135e-11
4.19534e-11
4.06253e-11
6.28065e-11
8.61782e-11
1.06804e-10
1.23264e-10
1.27074e-10
1.49699e-10
1.29816e-10
6.20064e-11
8.38937e-11
9.58389e-11
7.5968e-11
2.73687e-11
1.46713e-11
2.26205e-11
3.55822e-11
4.68751e-11
4.82307e-11
4.15905e-11
4.10221e-11
6.32257e-11
8.94811e-11
1.13516e-10
1.42506e-10
1.37333e-10
1.48018e-10
1.15351e-10
6.85963e-11
9.05478e-11
9.9953e-11
9.11689e-11
5.45701e-11
2.23821e-11
2.48696e-11
3.77755e-11
4.73285e-11
4.68204e-11
4.16558e-11
4.23279e-11
6.70392e-11
1.01366e-10
1.26807e-10
1.95003e-10
2.32294e-10
1.7293e-10
1.05017e-10
7.00097e-11
7.64154e-11
7.03196e-11
6.33528e-11
5.70441e-11
4.06977e-11
2.72525e-11
3.75405e-11
4.71502e-11
4.60907e-11
4.1914e-11
4.59802e-11
7.56786e-11
1.0783e-10
1.47383e-10
2.54744e-10
3.10363e-10
1.6769e-10
8.33377e-11
6.36022e-11
3.77662e-11
6.11521e-12
-1.06589e-11
5.51167e-12
4.33678e-11
4.01441e-11
3.23866e-11
4.11179e-11
4.16532e-11
3.8058e-11
4.76107e-11
8.5167e-11
1.11521e-10
1.58607e-10
2.63792e-10
3.5677e-10
3.56594e-10
2.71964e-10
5.68864e-11
-6.34104e-12
-6.97064e-11
-9.10591e-11
-6.07871e-11
1.58102e-11
6.33246e-11
4.2997e-11
3.55199e-11
4.05685e-11
5.4064e-11
8.605e-11
1.04917e-10
1.1806e-10
1.32886e-10
1.66633e-10
2.04808e-10
2.58509e-10
2.90175e-10
5.60357e-11
-3.63122e-11
-1.26923e-10
-1.39958e-10
-9.40234e-11
-2.30283e-12
5.95167e-11
7.78122e-11
5.60558e-11
5.13823e-11
3.44468e-11
-1.6144e-11
8.35602e-11
3.91608e-12
-7.79166e-13
8.37554e-11
7.37837e-11
1.32256e-10
2.09873e-10
5.9914e-11
-5.23901e-11
-1.5489e-10
-1.58965e-10
-1.09261e-10
1.61172e-11
1.09979e-10
7.15018e-11
7.2077e-11
5.04014e-11
1.50968e-11
-2.2207e-11
1.38575e-11
-4.78635e-11
-2.81478e-11
-2.09916e-11
-7.70975e-11
-5.45435e-11
4.69005e-11
6.72586e-11
-4.92735e-11
-1.52179e-10
-1.5924e-10
-1.25325e-10
-3.02258e-11
3.45014e-11
4.50147e-11
4.77331e-11
3.14689e-11
5.67121e-12
-1.18159e-11
-1.91907e-11
-4.42545e-11
-6.05077e-11
-1.33493e-10
-1.95496e-10
-1.96362e-10
-1.94795e-10
7.66344e-11
-3.59496e-11
-1.41424e-10
-1.52452e-10
-1.25347e-10
-3.05719e-11
8.99534e-12
1.62087e-11
2.29268e-11
2.10284e-11
1.18113e-11
2.84455e-12
-1.09984e-11
-4.02101e-11
-1.00874e-10
-1.57109e-10
-1.24574e-10
-8.3429e-11
-5.8071e-11
8.62726e-11
-1.42515e-11
-1.17633e-10
-1.39063e-10
-1.30074e-10
-4.08161e-11
-1.07334e-11
-3.33084e-12
1.00964e-11
2.08797e-11
2.50079e-11
2.24099e-11
3.88917e-12
-4.04882e-11
-1.00679e-10
-1.01757e-10
-6.75994e-11
-5.65612e-11
7.38719e-11
9.49647e-11
1.12786e-11
-9.1474e-11
-1.27876e-10
-1.38041e-10
-5.4969e-11
-2.67564e-11
-2.02187e-11
-4.0036e-12
1.51443e-11
2.86054e-11
3.06571e-11
1.1786e-11
-3.20573e-11
-7.14226e-11
-6.74701e-11
-7.73395e-11
-7.83524e-11
-1.58064e-11
1.02054e-10
3.65576e-11
-6.59397e-11
-1.17938e-10
-1.42844e-10
-6.92058e-11
-3.85012e-11
-3.41836e-11
-2.11837e-11
4.03832e-13
2.02591e-11
2.78017e-11
1.33895e-11
-2.1042e-11
-4.78157e-11
-6.25296e-11
-8.91592e-11
-8.50919e-11
-5.25053e-11
1.08656e-10
5.85123e-11
-4.49452e-11
-1.09852e-10
-1.4422e-10
-8.5902e-11
-4.85118e-11
-4.31203e-11
-3.62171e-11
-1.81225e-11
4.12409e-12
1.73387e-11
1.04142e-11
-1.5754e-11
-4.21358e-11
-7.20299e-11
-1.03128e-10
-8.67655e-11
-5.43786e-11
1.14593e-10
7.36793e-11
-3.09263e-11
-1.01354e-10
-1.43967e-10
-1.07137e-10
-6.21045e-11
-4.96549e-11
-4.66076e-11
-3.55704e-11
-1.55076e-11
1.72632e-12
2.73389e-12
-1.91454e-11
-5.07793e-11
-8.68124e-11
-1.10618e-10
-8.4519e-11
-4.65359e-11
1.27702e-10
8.65913e-11
-2.18788e-11
-9.23432e-11
-1.42918e-10
-1.29014e-10
-7.99095e-11
-5.49657e-11
-4.92183e-11
-4.55538e-11
-3.2215e-11
-1.41248e-11
-7.37787e-12
-3.14682e-11
-6.30314e-11
-9.55845e-11
-1.106e-10
-8.17757e-11
-4.29346e-11
1.47311e-10
8.83033e-11
-1.44489e-11
-8.63051e-11
-1.41428e-10
-1.50806e-10
-1.14849e-10
-8.27817e-11
-6.4374e-11
-5.7822e-11
-5.17079e-11
-3.91937e-11
-2.81687e-11
-3.97387e-11
-6.66038e-11
-9.69553e-11
-1.10387e-10
-7.94845e-11
-3.94046e-11
-1.34261e-13
2.21777e-12
1.85694e-13
6.03231e-14
3.51764e-12
4.02442e-13
1.78126e-13
5.4465e-13
5.4689e-12
4.94554e-13
-6.28689e-13
2.4899e-12
1.56426e-12
2.32776e-12
4.65793e-11
1.39216e-11
1.62018e-11
9.48257e-11
1.91515e-11
1.94455e-11
3.80048e-12
4.51817e-12
3.65734e-12
3.01983e-12
2.75628e-12
3.1587e-12
-6.76261e-13
3.68515e-12
3.19331e-12
2.80172e-12
2.37866e-12
1.60488e-12
3.08156e-13
-1.22364e-12
-2.42624e-12
-1.96069e-12
1.31654e-13
2.29852e-12
2.47116e-12
4.65246e-12
4.28574e-11
8.31416e-12
1.66367e-11
2.55469e-11
1.21546e-10
1.04872e-11
4.90375e-12
-1.6711e-12
-1.04095e-10
-7.10196e-12
-6.76873e-12
-1.19914e-10
-1.28748e-11
-1.10345e-11
-1.42192e-11
-1.57319e-10
-3.18783e-11
-2.74406e-11
-2.06413e-11
-1.48594e-10
-9.37182e-12
-6.53746e-12
-5.9512e-12
-4.90356e-12
-4.11566e-12
-3.47568e-12
-2.96904e-12
-2.68398e-12
-3.23712e-12
-3.78091e-12
-4.01359e-12
-4.5191e-12
-5.12471e-12
-5.77462e-11
-4.9242e-12
-4.94402e-12
-5.00831e-12
-5.42531e-12
-6.62788e-12
-5.83963e-12
-3.07552e-11
-3.0743e-11
-1.83111e-10
-3.56593e-11
-3.48478e-11
-1.87388e-10
-3.61966e-11
-3.38826e-11
-1.37575e-10
-9.84803e-12
-1.46732e-11
-1.87348e-10
-4.22741e-11
-4.07195e-11
-4.04833e-11
-1.96839e-10
-3.47527e-11
-3.47938e-11
-1.6458e-10
-4.19939e-11
-4.30026e-11
-6.76915e-11
-3.76281e-11
-1.99334e-11
-1.35487e-11
-1.28233e-11
-1.87669e-11
-3.14331e-11
-4.51967e-11
-4.83955e-11
-4.19774e-11
-4.10518e-11
-6.73682e-11
-1.03389e-10
-1.23131e-10
-1.39377e-10
-1.49165e-10
-1.66735e-10
-1.43256e-10
-4.67901e-11
-5.30027e-11
-3.10617e-11
-1.49359e-11
-1.1687e-11
-1.28781e-11
-1.91763e-11
-3.18351e-11
-4.53345e-11
-4.84033e-11
-4.20276e-11
-4.08581e-11
-6.5418e-11
-9.75581e-11
-1.1402e-10
-1.29524e-10
-1.39927e-10
-1.62986e-10
-1.26653e-10
-5.01616e-11
-5.60823e-11
-4.86265e-11
-2.25205e-11
-9.1685e-12
-1.20873e-11
-1.97323e-11
-3.2501e-11
-4.55257e-11
-4.83326e-11
-4.19983e-11
-4.072e-11
-6.36471e-11
-9.12905e-11
-1.07167e-10
-1.22235e-10
-1.3158e-10
-1.56132e-10
-1.25842e-10
-5.47473e-11
-6.81841e-11
-7.30621e-11
-4.57452e-11
-1.30158e-11
-1.18485e-11
-2.05673e-11
-3.36341e-11
-4.59373e-11
-4.82135e-11
-4.19534e-11
-4.06253e-11
-6.28065e-11
-8.61782e-11
-1.06804e-10
-1.23264e-10
-1.27074e-10
-1.49699e-10
-1.29816e-10
-6.20064e-11
-8.38937e-11
-9.58389e-11
-7.5968e-11
-2.73687e-11
-1.46713e-11
-2.26205e-11
-3.55822e-11
-4.68751e-11
-4.82307e-11
-4.15905e-11
-4.10221e-11
-6.32257e-11
-8.94811e-11
-1.13516e-10
-1.42506e-10
-1.37333e-10
-1.48018e-10
-1.15351e-10
-6.85963e-11
-9.05478e-11
-9.9953e-11
-9.11689e-11
-5.45701e-11
-2.23821e-11
-2.48696e-11
-3.77755e-11
-4.73285e-11
-4.68204e-11
-4.16558e-11
-4.23279e-11
-6.70392e-11
-1.01366e-10
-1.26807e-10
-1.95003e-10
-2.32294e-10
-1.7293e-10
-1.05017e-10
-7.00097e-11
-7.64154e-11
-7.03196e-11
-6.33528e-11
-5.70441e-11
-4.06977e-11
-2.72525e-11
-3.75405e-11
-4.71502e-11
-4.60907e-11
-4.1914e-11
-4.59802e-11
-7.56786e-11
-1.0783e-10