/*--------------------------------*- C++ -*----------------------------------*\
| =========                 |                                                 |
| \\      /  F ield         | OpenFOAM: The Open Source CFD Toolbox           |
|  \\    /   O peration     | Version:  4.1                                   |
|   \\  /    A nd           | Web:      www.OpenFOAM.org                      |
|    \\/     M anipulation  |                                                 |
\*---------------------------------------------------------------------------*/
FoamFile
{
    version     2.0;
    format      ascii;
    class       volScalarField;
    location    "21";
    object      p;
}
// * * * * * * * * * * * * * * * * * * * * * * * * * * * * * * * * * * * * * //

dimensions      [0 2 -2 0 0 0 0];

internalField   nonuniform List<scalar> 
1280
(
0.602958
2.37374
3.91143
3.74256
3.72675
5.62326
5.11044
4.69101
5.16717
5.57604
3.40199
4.39031
4.0863
0.0488613
1.55095
0.775976
-5.93877
-3.2884
-8.05113
-16.0847
-17.507
-6.13193
17.1559
35.407
42.5417
47.7197
29.9563
52.3128
57.9463
57.5614
56.9905
56.2717
54.5287
52.1433
49.2625
45.9593
42.3034
38.3619
34.5832
28.6703
34.1568
45.6209
47.9848
49.8074
59.6961
58.1041
58.612
58.8392
59.4131
59.2477
59.1752
59.9729
55.8033
52.1591
51.1369
60.0445
31.9414
24.1988
17.3182
15.0037
10.9718
17.058
20.1246
23.7612
26.9866
30.0901
32.8964
35.3745
37.3448
38.7175
39.9187
40.1705
37.4634
49.5724
64.2354
57.3789
48.413
29.3639
7.73407
-1.71633
1.23127
9.34308
21.7759
24.6466
27.5077
31.12
31.6094
31.8466
31.9988
31.5054
30.45
28.543
26.3358
23.0503
21.627
19.0768
12.9868
7.15731
0.493034
4.02206
-0.114518
-0.0889646
0.0384142
0.362634
0.696637
0.639659
-0.121422
1.18311
-1.1868
-1.56721
-3.26702
-6.35884
-6.81528
-6.32566
-4.18575
-1.6684
1.90623
4.8983
6.23945
-0.334497
-0.349342
0.0144664
0.545851
1.34766
1.24732
-0.109123
2.23872
-2.59566
-6.02296
-10.0114
-12.603
-10.3397
-5.68477
0.76236
8.65507
15.8163
20.4213
18.3329
-0.262116
-0.0413295
0.32531
0.993171
1.99035
2.29054
0.338181
2.77083
-3.28441
-9.44109
-16.6697
-16.2479
-11.7804
-5.14092
3.04213
13.3762
22.8644
29.6032
27.4875
-0.248831
0.170337
0.607985
1.50678
2.80613
3.97382
3.75443
4.81109
-3.05205
-12.8918
-22.2021
-20.4525
-14.3748
-5.83781
4.13879
16.9519
29.1835
37.6945
35.0186
-0.257858
0.311707
0.856549
2.0064
3.67283
5.82912
8.47853
7.16081
-2.13468
-15.6143
-26.3643
-24.1049
-16.7088
-6.32741
5.59135
21.0114
36.0655
46.0327
41.8413
-0.233179
0.490041
1.12543
2.51133
4.50442
7.4809
12.8256
9.52344
-0.955158
-17.642
-28.7958
-26.2756
-18.2685
-6.6369
6.88797
24.499
42.141
54.669
46.7041
-0.189955
0.682573
1.39168
3.00041
5.26853
8.82632
16.2005
11.7661
0.327945
-18.6517
-29.5089
-27.1642
-19.2782
-7.00474
7.80125
27.2778
47.3451
65.0461
48.6004
-0.135938
0.876312
1.63452
3.43853
5.91935
9.83343
18.4866
13.733
1.67284
-18.5908
-28.6795
-26.9734
-19.7228
-7.40538
8.32678
29.2578
50.3049
71.4141
56.0267
-0.0770732
1.06841
1.84194
3.79989
6.41631
10.513
19.8281
15.4188
3.13403
-17.4285
-26.5848
-25.8638
-19.5864
-7.77376
8.36044
29.8444
53.2596
67.5521
87.2878
-0.024509
1.24865
1.99904
4.06336
6.7313
10.8851
20.4067
16.6917
4.69252
-15.3125
-23.5523
-24.0585
-18.9112
-8.10623
7.65077
28.6892
50.4065
62.3187
80.6302
0.0120517
1.40717
2.09277
4.21087
6.84076
10.9487
20.3556
17.1975
6.23442
-12.4563
-19.9303
-21.7581
-17.8078
-8.39778
6.41358
26.2225
43.2557
53.4891
69.7423
0.0235855
1.53259
2.11196
4.22681
6.72736
10.683
19.6439
16.3148
7.55778
-9.01596
-15.9811
-19.1657
-16.5603
-8.77781
4.52873
21.6274
35.3249
56.0194
84.8734
0.0042878
1.61422
2.05211
4.10379
6.38933
10.0546
18.1134
13.7822
8.53672
-4.9965
-11.5167
-16.1168
-15.0774
-8.99558
2.57264
17.6683
30.4045
37.3573
39.5533
-0.0535559
1.63234
1.90816
3.83852
5.84107
9.04661
15.6675
10.2215
9.20732
-0.829799
-6.64629
-12.2058
-12.621
-8.44499
0.78613
11.9654
14.7657
0.839748
6.53463
-0.152546
1.57821
1.69084
3.44335
5.1174
7.72547
12.5646
6.49039
9.5227
2.59397
-2.19453
-7.60909
-8.9087
-6.46753
0.236572
7.70787
7.79292
3.51472
7.45158
-0.300661
1.42118
1.39933
2.92962
4.26357
6.21954
9.25611
3.01213
9.03689
4.67315
1.36414
-3.02686
-4.52731
-3.3875
0.776543
4.50604
2.95021
4.38445
4.84259
-0.490744
1.18062
1.06607
2.3207
3.32067
4.65939
6.13198
0.102791
8.35518
5.97688
3.77277
0.214871
-1.07138
-0.586293
1.43891
2.17652
1.81245
1.63381
5.03782
-0.663664
0.820049
0.692192
1.66298
2.36154
3.1716
3.54531
-1.74797
7.41596
5.75724
4.63124
2.25497
1.30863
0.777768
0.531221
-0.598434
1.85559
0.839411
4.03923
-0.766871
0.391554
0.319681
0.895452
1.32621
1.74091
1.35573
-2.19399
6.35446
4.64052
3.6396
1.39273
0.826594
0.919118
0.73345
-0.570762
0.489771
0.763149
3.14914
-0.407234
0.0391696
0.0669786
0.375946
0.506114
0.604289
0.563664
-1.00784
2.70788
1.2851
1.83838
2.13447
1.72971
0.0492707
-1.77548
-1.52509
-1.67164
-1.47567
1.19777
18.6372
19.0008
19.5914
19.2977
17.1654
14.1203
9.72026
5.75615
1.98298
-1.60329
-4.94984
-7.878
-10.2513
-11.8978
-12.6703
-12.2587
-10.8158
-8.14553
-5.93046
-3.53842
-6.95115
-11.1676
-14.6672
-17.8501
-20.8699
-23.8655
-26.5456
-28.9973
-31.0881
-32.939
-34.5552
-35.9965
-37.2957
-38.4839
-39.5804
-40.5116
-41.1901
-41.4322
-41.334
-39.2755
56.6566
49.7503
44.7568
39.4068
33.9074
28.0806
22.3779
16.7512
11.5406
6.77045
2.6368
-0.777215
-3.2988
-4.8228
-5.35185
-5.04427
-4.28354
-3.99548
-5.21945
-7.95329
94.4844
92.2627
91.0295
90.1567
89.5467
88.6016
87.6916
86.4381
84.9222
82.8397
80.0571
76.3067
71.5085
65.8533
60.051
54.99
51.561
50.5834
50.6759
46.5502
86.9177
87.9535
87.9235
88.1097
88.1513
88.0042
87.8768
87.4789
87.0264
86.4284
85.801
85.1648
84.5385
83.874
83.171
82.4236
81.6756
80.674
80.4634
79.0727
71.7324
74.179
75.5358
76.9314
78.4372
79.515
80.8306
81.7915
82.6582
83.204
83.4363
83.3476
83.0439
82.7553
82.8354
83.4879
84.739
86.1301
87.1837
87.7107
49.1291
51.4758
53.0847
54.2164
55.9861
57.0296
58.5684
59.7965
61.1481
62.4532
63.7512
65.0355
66.2946
67.5448
68.8074
70.1787
71.5949
73.2549
74.5166
76.1112
27.633
29.7756
31.5559
32.4009
34.4594
35.4093
37.1715
38.4514
39.9696
41.3999
42.8519
44.3075
45.7545
47.2179
48.6626
50.1637
51.5888
53.2118
54.4098
56.1673
3.01815
4.05098
5.94659
6.05228
8.22299
8.66519
10.4986
11.545
13.1521
14.616
16.2705
18.0113
19.8692
21.8624
23.9234
26.1187
28.2463
30.5652
32.364
35.2791
-18.4255
-20.3665
-19.252
-21.0618
-20.2226
-21.8038
-21.5737
-22.7023
-22.9804
-23.7582
-24.1533
-24.4478
-24.3026
-23.6592
-22.4697
-20.6463
-18.4552
-15.7291
-13.7956
-10.3192
-4.97897
-9.5219
-9.65415
-13.1547
-13.9853
-17.1691
-18.7192
-21.6763
-23.854
-26.7019
-29.1875
-31.7295
-33.9394
-35.9259
-37.5536
-38.9711
-39.9513
-40.023
-39.8869
-37.4667
37.4799
33.0866
32.7909
28.8243
27.8941
24.2818
22.5825
19.3238
17.0048
14.0202
11.5405
9.06784
7.09391
5.42778
4.19069
3.1361
2.0157
1.08287
-0.539524
-2.62485
71.0126
70.0798
71.4449
69.8209
71.7494
70.5129
71.8612
71.2221
71.6957
71.2041
70.8855
70.021
68.8151
67.0063
64.6227
61.6975
58.83
57.155
56.1836
53.0556
52.3949
53.5161
56.1056
55.4383
58.6067
58.4131
60.857
61.6442
63.4814
64.8574
66.4578
67.8748
69.1488
70.1328
70.7056
70.6581
70.0895
69.2601
69.2648
69.6175
29.0233
29.4837
33.318
32.1523
36.294
36.1496
39.0783
40.2545
42.3309
44.0453
45.8362
47.5577
49.1998
50.7889
52.3922
54.1485
56.0456
58.1914
59.9683
62.14
2.24031
0.0730165
3.30229
0.100535
3.29242
1.59376
3.33164
3.3073
4.36211
5.17194
6.2537
7.43869
8.75008
10.2148
11.8243
13.7517
15.8515
18.3848
20.7011
24.1489
19.5095
14.4435
16.2784
9.25827
8.98437
3.8873
1.4768
-2.33316
-5.31678
-8.48579
-11.3233
-13.9776
-16.3004
-18.1351
-19.226
-19.193
-18.5241
-17.471
-16.8621
-14.7278
35.4739
27.6119
35.238
27.5349
28.853
24.7095
22.6258
19.2161
16.0451
12.546
9.01686
5.40684
1.86482
-1.42496
-4.11524
-5.69118
-6.20387
-6.64893
-7.80741
-7.58632
57.0925
34.4144
42.6192
31.5169
28.8982
22.322
17.5294
12.4172
8.0659
4.23886
1.19428
-1.01507
-2.26976
-2.45709
-1.33481
1.19174
4.56141
8.29442
11.3976
12.4118
739.721
657.22
608.296
552.222
503.357
456.17
412.27
370.773
331.687
294.73
259.739
226.527
194.92
164.906
136.605
109.267
82.9801
61.714
37.5013
0.645286
762.542
680.042
631.118
575.045
526.18
478.994
435.095
393.598
354.512
317.556
282.565
249.353
217.746
187.732
159.431
132.092
105.805
84.5374
60.3244
23.4689
79.9285
57.2509
65.4559
54.354
51.7357
45.16
40.3678
35.2558
30.9048
27.0778
24.0333
21.8239
20.5691
20.3819
21.5049
24.0317
27.4006
31.1343
34.2381
35.2515
58.3098
50.447
58.0725
50.3689
51.6864
47.5421
45.4578
42.0473
38.8755
35.3754
31.8454
28.2347
24.6922
21.4024
18.713
17.1379
16.6243
16.1777
15.0174
15.2364
42.3245
37.2559
39.0896
32.0677
31.7921
26.6933
24.281
20.4692
17.4837
14.3126
11.4731
8.81679
6.49211
4.65609
3.56444
3.59683
4.2634
5.31421
5.92127
8.05468
25.0204
22.8511
26.0796
22.8767
26.0672
24.3673
26.1037
26.0776
27.1308
27.9387
29.0185
30.2015
31.5109
32.9739
34.5821
36.5093
38.6096
41.1443
43.4613
46.9104
51.8117
52.2707
56.1056
54.9385
59.0795
58.9342
61.8613
63.0369
65.112
66.8261
68.6168
70.3389
71.9831
73.5767
75.1868
76.9503
78.8511
80.9976
82.7741
84.9482
75.1897
76.3159
78.9097
78.245
81.4182
81.2273
83.6745
84.4663
86.3076
87.6891
89.2957
90.7196
91.9986
92.9847
93.5546
93.4984
92.9217
92.0934
92.1063
92.4701
93.9172
92.995
94.3639
92.7463
94.6797
93.448
94.7999
94.1639
94.6385
94.1463
93.8251
92.9563
91.7448
89.9318
87.547
84.6242
81.7604
80.0878
79.1232
76.0049
60.4997
56.1117
55.8168
51.8542
50.9283
47.3213
45.6282
42.3768
40.0657
37.0901
34.6194
32.1551
30.1863
28.5213
27.2804
26.2172
25.0874
24.1501
22.5204
20.41
17.954
13.4027
13.2625
9.75232
8.9122
5.71834
4.1573
1.18843
-1.00394
-3.86818
-6.371
-8.9317
-11.1615
-13.1671
-14.812
-16.244
-17.2258
-17.2981
-17.1729
-14.7565
4.33604
2.38013
3.48588
1.66559
2.49402
0.902125
1.12134
-0.018107
-0.306575
-1.09403
-1.49613
-1.79506
-1.65092
-1.00533
0.188333
2.01469
4.20729
6.92902
8.86142
12.3423
25.7271
26.7524
28.6457
28.7475
30.916
31.3552
33.1871
34.2316
35.838
37.3014
38.9561
40.6977
42.5568
44.5513
46.6135
48.8096
50.9371
53.2571
55.0583
57.9776
50.3509
52.4939
54.2755
55.1213
57.1815
58.1324
59.8962
61.1776
62.6974
64.1292
65.5827
67.0396
68.4877
69.9521
71.3974
72.8992
74.3248
75.9484
77.1473
78.9063
71.9154
74.2615
75.8717
77.0034
78.7736
79.8171
81.3554
82.5821
83.9316
85.2337
86.5274
87.8075
89.0624
90.3095
91.5706
92.9421
94.359
96.0199
97.283
98.8793
94.4104
96.8672
98.2253
99.6219
101.127
102.2
103.509
104.461
105.318
105.855
106.086
106.005
105.72
105.46
105.57
106.252
107.517
108.915
109.972
110.513
110.009
111.032
111.002
111.18
111.215
111.069
110.947
110.565
110.135
109.568
108.979
108.383
107.786
107.132
106.428
105.658
104.861
103.812
103.568
102.143
116.916
114.796
113.546
112.723
112.189
111.318
110.471
109.269
107.79
105.732
102.962
99.2061
94.3773
88.6678
82.7967
77.6475
74.1184
73.015
73.0383
68.9368
83.494
76.5849
71.3102
65.8102
60.1338
54.107
48.158
42.2748
36.8072
31.7946
27.4289
23.794
21.0678
19.3476
18.6096
18.7369
19.4592
19.7637
18.6467
15.974
18.2368
14.1555
10.4843
7.3001
4.27894
1.33108
-1.23298
-3.49688
-5.32217
-6.83868
-8.04436
-9.01419
-9.80201
-10.4666
-11.0832
-11.584
-12.063
-12.2731
-12.1433
-10.3893
55.5218
56.1247
56.8492
56.9331
55.2403
52.6425
48.8682
44.5991
39.909
35.505
31.3178
27.4726
24.1381
21.4799
19.6118
18.8839
19.2836
21.0415
22.7982
24.5649
)
;

boundaryField
{
    outletWall
    {
        type            fixedValue;
        value           uniform 0;
    }
    fineWalls
    {
        type            zeroGradient;
    }
    fineFrontAndBack
    {
        type            zeroGradient;
    }
    fineplugLeft
    {
        type            cyclicAMI;
        value           nonuniform List<scalar> 
20
(
2.90332
2.17227
1.15596
-0.191935
-0.615116
-0.283723
0.910403
2.70474
4.95193
7.43823
10.2296
13.1756
15.0675
12.0213
20.8402
22.2407
22.5196
19.1043
13.9742
11.4083
)
;
    }
    fineplugRight
    {
        type            cyclicAMI;
        value           nonuniform List<scalar> 
20
(
21.8463
21.6502
20.8581
20.1791
20.5044
21.7074
23.7632
26.3854
29.4471
32.7978
36.3878
39.9613
43.172
48.9483
54.961
55.668
55.2291
51.3521
46.4466
44.0742
)
;
    }
    inletOutletLeft
    {
        type            cyclicAMI;
        value           nonuniform List<scalar> 
20
(
2.90332
2.17227
1.15596
-0.191935
-0.615116
-0.283723
0.910403
2.70474
4.95193
7.43823
10.2296
13.1756
15.0675
12.0213
20.8402
22.2407
22.5196
19.1043
13.9742
11.4083
)
;
    }
    inletLeft
    {
        type            zeroGradient;
    }
    inletWallsLeft
    {
        type            zeroGradient;
    }
    inletFacesLeft
    {
        type            zeroGradient;
    }
    inletOutletRight
    {
        type            cyclicAMI;
        value           nonuniform List<scalar> 
20
(
21.8463
21.6502
20.8581
20.1791
20.5044
21.7074
23.7632
26.3854
29.4471
32.7978
36.3878
39.9613
43.172
48.9483
54.961
55.668
55.2291
51.3521
46.4466
44.0742
)
;
    }
    inletRight
    {
        type            zeroGradient;
    }
    inletWallsRight
    {
        type            zeroGradient;
    }
    inletFacesRight
    {
        type            zeroGradient;
    }
}


// ************************************************************************* //
