/*--------------------------------*- C++ -*----------------------------------*\
| =========                 |                                                 |
| \\      /  F ield         | OpenFOAM: The Open Source CFD Toolbox           |
|  \\    /   O peration     | Version:  4.1                                   |
|   \\  /    A nd           | Web:      www.OpenFOAM.org                      |
|    \\/     M anipulation  |                                                 |
\*---------------------------------------------------------------------------*/
FoamFile
{
    version     2.0;
    format      ascii;
    class       surfaceScalarField;
    location    "21";
    object      phi;
}
// * * * * * * * * * * * * * * * * * * * * * * * * * * * * * * * * * * * * * //

dimensions      [0 3 -1 0 0 0 0];

internalField   nonuniform List<scalar> 
2360
(
-2665.74
629.304
-3295.04
629.302
629.303
3719.39
-3090.09
3719.39
3719.39
3719.39
6608.43
-2889.04
6608.43
6608.43
9432.25
-2823.82
9432.25
9432.25
12114.8
-2682.59
12114.8
12114.8
15637.5
-3522.64
15637.5
15637.5
15846.2
16994.3
18743.9
20637.1
22429.3
24067.3
14731.8
10885.9
16141.6
17436.6
18616.7
19681.9
20631.7
21466.5
22187.8
22797.7
23298.6
23695.8
23997.8
24199.9
24251.5
9817.95
14433.6
9817.94
9817.94
9817.94
1737.65
8080.29
1737.66
1737.66
1737.66
-463.383
2201.04
-463.379
-463.376
-8639.09
8175.72
-8639.09
-8639.09
-8639.09
-20401
11762
-20401
-20401
-20401
-29918.6
9517.55
-29764.8
-29493.5
-29141.3
-28708.2
-28181.4
-27554.7
-26825.1
-25989.3
-25045.4
-23991.8
-22828.4
-21555.3
-20172.5
-21855.4
3206.85
-20221
-18433.6
-16554.2
-14844.1
-13765.3
-13625.5
-13625.5
-13625.5
-6388.55
-7236.91
-6388.55
-6388.55
-1062.51
-5326.04
-1062.51
-1062.51
3503.1
-4565.61
3503.1
3503.1
8027.81
-4524.71
8027.81
8027.81
8027.81
12788.2
-4760.39
12788.2
12788.2
17688
-4899.82
-1630.92
3976.43
-1866.46
8627.62
-1955.31
13002
-2053.62
15375
-2103.3
17880.8
-2171.84
19120.1
-1738.2
17675
-329.446
-4232.13
-330.616
-17648.5
-730.272
-16469.1
-757.079
-3079.12
-1024.98
13752.5
-741.999
22013.1
-68.2466
28750
790.09
31808.2
1914
32755.2
3102.79
29651.4
4311.58
20647.2
4841.63
-1632.86
4263.5
-1907.82
8902.58
-2004.76
13099
-2111.54
15481.8
-2179.82
17949.1
-2241.68
19181.9
-1457.65
16891
36.3974
-5726.18
-74.6984
-17537.4
-270.839
-16272.9
-557.366
-2792.6
-1077.59
14272.7
-920.543
21856
-281.449
28110.9
551.425
30975.4
1675.1
31631.5
2918.09
28408.4
4122.23
19443.1
4203.47
-1671.97
4576.58
-1971.96
9202.57
-2085.86
13212.9
-2214.29
15610.2
-2334.91
18069.7
-2439.86
19286.9
-1476.72
15927.8
-140.251
-7062.65
-326.075
-17351.6
-537.096
-16061.9
-1023.65
-2306.05
-1294
14543.1
-1204.16
21766.2
-631.12
27537.8
172.484
30171.8
1275.65
30528.4
2590.1
27094
3743.69
18289.5
3422.44
-1746.56
4905.91
-2058.45
9514.47
-2189.01
13343.4
-2349.08
15770.3
-2534.78
18255.4
-2710.51
19462.6
-1695.75
14913
-532.804
-8225.59
-743.889
-17140.5
-1095.28
-15710.5
-1724.15
-1677.17
-1744.53
14563.5
-1595.14
21616.8
-1095.13
27037.8
-345.179
29421.8
721.262
29461.9
2109.68
25705.6
3397.54
17001.6
2254.37
-1848.33
5235.87
-2158.89
9825.03
-2306.17
13490.7
-2504.53
15968.7
-2763.67
18514.6
-3016.43
19715.4
-2078.12
13974.7
-1201.12
-9102.59
-1451.47
-16890.1
-2013.21
-15148.8
-2687.04
-1003.34
-2449.03
14325.4
-2133.07
21300.8
-1679.16
26583.9
-1025.24
28767.9
12.1362
28424.5
1482.32
24235.4
3284.97
15199
213.307
-1971.11
5543.35
-2260.91
10114.8
-2427.86
13657.7
-2668.72
16209.5
-3003.81
18849.6
-3335.26
20046.8
-2583.8
13223.3
-2034.93
-9651.46
-2411.51
-16513.6
-3234.79
-14325.5
-3864.61
-373.507
-3375.13
13836
-2840.3
20766
-2394.82
26138.4
-1854.09
28227.2
-851.076
27421.5
627.086
22757.2
3747.52
12078.5
-3276.08
-2092.31
5815.01
-2352.07
10374.6
-2544.88
13850.5
-2831.24
16495.9
-3239.07
19257.5
-3656.68
20464.4
-3176.71
12743.3
-2996.68
-9831.48
-3591.19
-15919.1
-4652.2
-13264.5
-5173.81
148.104
-4476
13138.1
-3750.53
20040.5
-3258.05
25646
-2817.52
27786.6
-1939.27
26543.3
-465.984
21283.9
2604.39
9008.17
2535.16
-2186.12
6050.56
-2421.12
10609.6
-2648.46
14077.8
-2981.45
16828.9
-3454.52
19730.5
-3968.72
20978.6
-3829.22
12603.8
-4056.71
-9603.98
-4921.8
-15054
-6163.83
-12022.5
-6544.56
528.83
-5713.11
12306.7
-4864.91
19192.3
-4279.89
25060.9
-3933.15
27439.9
-3164.55
25774.7
-1202.16
19321.5
-2018.63
9824.63
10034.1
-2238.12
6256.37
-2460.52
10832
-2731.11
14348.4
-3109.19
17207
-3636.61
20258
-4257.41
21599.4
-4521.61
12868
-5183.01
-8942.58
-6322.83
-13914.2
-7675.5
-10669.8
-7922.61
775.945
-7053.19
11437.3
-6163.62
18302.7
-5489.93
24387.2
-5125.56
27075.5
-4451.69
25100.8
-4350.79
19220.6
-8455.46
13929.3
13340.6
-2243.76
6442.4
-2467.62
11055.9
-2788.25
14669
-3207.52
17626.2
-3775.42
20825.9
-4505.71
22329.7
-5214.64
13576.9
-6319.84
-7837.39
-7716.36
-12517.6
-9123.11
-9263.04
-9243
895.831
-8410.31
10604.6
-7562.35
17454.8
-6807.39
23632.3
-6326.35
26594.5
-6240.68
25015.1
-8114.69
21094.7
-10949.1
16763.7
10567.2
-2201.57
6624.05
-2443.94
11298.2
-2818.94
15044
-3273.98
18081.3
-3865.72
21417.6
-4695.1
23159.1
-5854
14735.8
-7403
-6288.38
-9043.3
-10877.3
-10499
-7807.36
-10471.1
867.965
-9630.89
9764.37
-8835.93
16659.8
-8065.25
22861.6
-7705.03
26234.3
-8516.07
25826.2
-10392.4
22971
-9347.01
15718.3
3421.23
-2110.08
6824.84
-2394.28
11582.4
-2826.03
15475.8
-3310.27
18565.5
-3906.76
22014.1
-4807.46
24059.8
-6374.77
16303.1
-8365.3
-4297.84
-10252.6
-8990.02
-11874.4
-6185.6
-11795.9
789.433
-10847.7
8816.24
-10015.9
15828
-9347.47
22193.1
-9344.78
26231.6
-10472
26953.4
-11310.5
23809.5
-10173.7
14581.5
1327.78
-1969.89
7076.58
-2326.79
11939.3
-2815.59
15964.6
-3321.34
19071.2
-3902.38
22595.1
-4829.84
24987.3
-6706.7
18180
-9119.87
-1884.67
-11246.4
-6863.52
-13230
-4202.02
-13450.5
1009.95
-12555.2
7921
-11680.5
14953.3
-11130.9
21643.5
-11348.1
26448.7
-12501.3
28106.6
-13976.3
25284.5
-15491.5
16096.7
269.866
-1785.98
7419.46
-2253.77
12407.1
-2796.25
16507.1
-3314.93
19589.9
-3861.11
23141.3
-4760.15
25886.3
-6780.31
20200.2
-9525.73
860.751
-11818.4
-4570.85
-14225.8
-1794.59
-15085.6
1869.67
-14693.5
7528.91
-14053.9
14313.8
-13598
21187.6
-13659.5
26510.3
-14067.4
28514.5
-13713.2
24930.3
-11404.1
13787.7
-248.303
-1574
7898.6
-2192.1
13025.2
-2777.1
17092.1
-3299.22
20112
-3794.7
23636.8
-4614.36
26706
-6601.98
22187.8
-9413.54
3672.32
-11670.1
-2314.34
-14312.6
847.957
-15880.1
3437.15
-16343.3
7992.1
-16305.6
14276.1
-16068.3
20950.3
-15761.5
26203.5
-14723.6
27476.5
-10998.5
21205.2
-2870.16
5659.33
-6641.11
-1369.58
8555.42
-2167.22
13822.9
-2770.53
17695.4
-3284.11
20625.6
-3717.17
24069.9
-4420.85
27409.7
-6238.12
24005
-8727.96
6162.16
-10537.2
-505.132
-13206.9
3517.7
-15430.8
5661.01
-16703.4
9264.69
-17282.3
14855
-17222.2
20890.2
-16197.6
25178.9
-13067.3
24346.1
-6448.58
14586.5
170.596
-959.843
-9153.1
-1238.55
9398.27
-2200.47
14784.8
-2781.2
18276.1
-3272.84
21117.3
-3638.64
24435.7
-4206.93
27978
-5769.9
25568
-7655.16
8047.42
-8637.65
477.359
-11144.2
6024.22
-13864.3
8381.17
-15672.9
11073.2
-16566.1
15748.3
-16396.6
20720.7
-14494.3
23276.6
-9820.35
19672.2
-2535.37
7301.52
2159.92
-5655.14
-9817
-1326.62
10337.5
-2340.66
15798.8
-2840.94
18776.4
-3284.72
21561
-3578.35
24729.3
-4004.25
28403.8
-5268.48
26832.2
-6419.45
9198.4
-6445.8
503.709
-8622.15
8200.56
-11546.3
11305.3
-13584.6
13111.6
-14466.7
16630.4
-14011.7
20265.8
-11474.8
20739.6
-6243.4
14440.8
-340.413
1398.53
2543.31
-8538.86
-10162.7
-1556.83
11246.2
-2490.37
16732.4
-2886.47
19172.5
-3284.48
21959.1
-3520.95
24965.8
-3819.5
28702.4
-4812.04
27824.8
-5299.38
9685.73
-4465.34
-330.323
-6087.62
9822.83
-9066.88
14284.6
-11408.5
15453.2
-12222.6
17444.4
-11393.3
19436.6
-8391.68
17738
-3007.16
9056.27
1491.27
-3099.9
3012.06
-10059.7
-10240.8
-2549.08
-2976.4
-3154.54
-3395.4
-3539.49
-3687.15
-4232.47
-4329.51
-3203.93
-3336.91
-5108.63
-7198.35
-8178.92
-7525.17
-5074.71
-1276.6
1854.23
3208.72
362.987
-571.716
804.138
-1589.26
1111.85
-2057.34
1305.07
-2086.39
1454.08
-1941.24
1595.3
-1779.15
1675.83
-1630.96
1757.91
-1491.93
1816.1
-1353.14
1848.05
-1212.11
1851.24
-1068.39
1822.48
-921.001
1757.33
-769.713
1649.12
-613.016
1490.98
-451.849
1275.02
-284.879
988.715
-110.954
661.637
25.0724
326.699
132.864
275.082
708.163
-1279.88
1130.47
-2011.57
1110.54
-2037.42
917.335
-1893.18
749.846
-1773.75
637.594
-1666.9
555.738
-1549.11
477.503
-1413.7
393.428
-1269.07
299.869
-1118.55
195.968
-964.491
81.5071
-806.543
-40.377
-647.832
-159.175
-494.223
-263.402
-347.627
-351.032
-197.254
-404.906
-57.0825
-395.664
15.8279
-285.311
22.5091
-10.2287
314.238
-1594.12
386.89
-2084.22
199.488
-1850.02
-24.6564
-1669.04
-219.365
-1579.05
-400.886
-1485.38
-583.232
-1366.76
-769.553
-1227.38
-959.338
-1079.28
-1152.41
-925.484
-1347.17
-769.724
-1538.77
-614.952
-1716.38
-470.215
-1859.48
-351.125
-1931.11
-275.999
-1869.15
-259.223
-1614.4
-311.833
-1161.43
-437.14
-550.271
-588.65
-560.499
-146.135
-1447.99
-288.639
-1941.72
-432.593
-1706.06
-584.098
-1517.53
-765.396
-1397.75
-963.801
-1286.98
-1158.66
-1171.9
-1343.25
-1042.79
-1517.14
-905.392
-1680.92
-761.7
-1830.43
-620.215
-1952.69
-492.696
-2024.34
-398.566
-2017.27
-358.191
-1899.97
-393.305
-1644.56
-514.627
-1243.11
-713.287
-743.812
-936.44
-283.745
-1048.72
-844.244
-179.918
-1268.07
-146.391
-1975.25
-64.3837
-1788.07
-44.2998
-1537.62
-65.8808
-1376.17
-98.6502
-1254.21
-118.999
-1151.56
-116.809
-1044.99
-85.9067
-936.297
-23.6027
-824.007
68.7389
-712.561
184.964
-608.927
312.252
-525.86
434.368
-480.312
532.595
-491.536
580.868
-562.903
547.008
-679.428
411.871
-801.304
197.996
-834.844
-646.248
-50.1356
-1217.93
7.31471
-2032.7
93.0395
-1873.8
160.475
-1605.05
226.481
-1442.18
291.862
-1319.59
363.028
-1222.72
445.467
-1127.43
545.146
-1035.98
667.173
-946.034
811.789
-857.178
971.326
-768.465
1125.89
-680.419
1243.86
-598.29
1284.02
-531.694
1214.38
-493.267
1023.28
-488.321
721.941
-499.967
367.939
-480.841
-278.309
77.2379
-1295.17
129.172
-2084.63
177.619
-1922.24
228.841
-1656.28
295.876
-1509.21
365.728
-1389.45
435.036
-1292.03
500.087
-1192.48
561.344
-1097.23
618.929
-1003.62
673.908
-912.157
727.846
-822.404
781.247
-733.821
828.698
-645.741
855.927
-558.923
837.152
-474.492
745.729
-396.898
562.663
-316.9
300.029
-218.207
21.7201
183.895
-1479.07
237.973
-2138.71
254.993
-1939.26
290.357
-1691.64
349.636
-1568.49
409.976
-1449.79
472.293
-1354.35
531.597
-1251.78
588.94
-1154.58
640.068
-1054.75
681.324
-953.412
708.335
-849.414
718.194
-743.68
709.052
-636.599
679.275
-529.145
623.822
-419.039
533.611
-306.687
392.741
-176.03
198.635
-24.0995
220.355
266.096
-1745.16
286.503
-2159.12
285.881
-1938.64
326.602
-1732.36
395.417
-1637.3
462.973
-1517.34
537.439
-1428.81
612.244
-1326.59
690.353
-1232.69
763.281
-1127.68
824.824
-1014.96
865.472
-890.063
878.631
-756.838
859.753
-617.722
806.154
-475.546
714.629
-327.514
585.377
-177.435
409.929
-0.581683
204.41
181.419
424.766
246.568
-1991.73
191.179
-2103.73
182.566
-1930.03
219.002
-1768.8
276.855
-1695.16
336.043
-1576.53
409.263
-1502.03
488.116
-1405.44
575.725
-1320.29
658.023
-1209.97
724.862
-1081.79
760.319
-925.52
759.249
-755.768
721.079
-579.55
643.606
-398.073
517.622
-201.529
349.677
-9.48907
222.678
126.419
90.592
313.505
515.358
82.3244
-2074.05
-35.9732
-1985.43
-79.6564
-1886.34
-105.009
-1743.44
-123.243
-1676.92
-137.21
-1562.56
-142.485
-1496.76
-140.91
-1407.01
-133.265
-1327.94
-128.289
-1214.95
-137.167
-1072.92
-169.761
-892.925
-221.685
-703.844
-281.801
-519.433
-338.807
-341.067
-376.106
-164.229
-374.937
-10.6576
-380.31
131.792
-303.46
236.655
211.898
-79.9387
-1994.11
-180.353
-1885.01
-262.854
-1803.84
-355.336
-1650.96
-446.395
-1585.86
-543.088
-1465.87
-643.918
-1395.93
-748.545
-1302.39
-855.268
-1221.21
-959.751
-1110.46
-1063.44
-969.23
-1166.06
-790.301
-1266.93
-602.976
-1359.99
-426.37
-1431.41
-269.644
-1441.51
-154.126
-1346.58
-105.593
-1074.91
-139.87
-573.047
-265.212
-361.149
-86.1816
-1907.93
-134.776
-1836.42
-198.504
-1740.11
-286.042
-1563.42
-370.59
-1501.31
-473.39
-1363.07
-585.843
-1283.47
-713.767
-1174.46
-849.093
-1085.89
-977.108
-982.448
-1077.09
-869.251
-1131.69
-735.701
-1139.99
-594.669
-1106.99
-459.376
-1033.08
-343.549
-908.917
-278.29
-707.459
-307.051
-419.04
-428.289
-135.026
-549.225
-496.175
21.2898
-1929.22
46.451
-1861.58
72.4329
-1766.09
86.6763
-1577.66
101.075
-1515.71
110.915
-1372.91
113.561
-1286.12
110.674
-1171.57
99.9324
-1075.15
92.0596
-974.573
101.616
-878.805
147.985
-782.066
237.892
-684.573
365.887
-587.369
516.87
-494.529
653.031
-414.449
703.68
-357.699
599.782
-324.39
334.262
-283.704
-161.913
65.2708
-1994.49
89.9365
-1886.24
135.204
-1811.36
182.707
-1625.17
230.053
-1563.06
283.887
-1426.74
337.7
-1339.93
398.294
-1232.16
461.059
-1137.91
528.196
-1041.71
598.062
-948.67
672.248
-856.251
749.742
-762.066
823.466
-661.093
877.393
-548.456
884.271
-421.326
819.244
-292.671
648.801
-153.946
369.432
-4.33347
207.519
67.7373
-2062.23
69.3045
-1887.81
107.824
-1849.88
152.528
-1669.87
200.855
-1611.38
255.995
-1481.88
315.888
-1399.82
382.16
-1298.43
455.477
-1211.22
535.566
-1121.8
621.503
-1034.61
707.825
-942.572
784.303
-838.544
832.661
-709.449
826.841
-542.635
748.186
-342.669
614.743
-159.228
419.662
41.1355
224.54
190.79
432.059
-16.1853
-2046.04
-60.6396
-1843.35
-78.5363
-1831.98
-78.9009
-1669.5
-76.9508
-1613.33
-56.7796
-1502.05
-30.3761
-1426.22
9.55446
-1338.36
59.5797
-1261.25
121.206
-1183.42
192.919
-1106.32
270.399
-1020.05
341.623
-909.767
380.702
-748.528
348.888
-510.819
232.902
-226.682
98.7223
-25.0452
38.511
101.35
-24.011
253.314
408.048
-181.199
-1864.84
-373.747
-1650.81
-531.489
-1674.24
-649.415
-1551.58
-757.783
-1504.96
-834.781
-1425.05
-898.707
-1362.3
-942.136
-1294.94
-971.063
-1232.32
-984.318
-1170.17
-983.253
-1107.38
-966.841
-1036.46
-932.08
-944.527
-869.96
-810.648
-765.584
-615.194
-614.927
-377.339
-464.759
-175.212
-337.26
-26.1486
-218.206
134.261
189.841
-219.186
-1645.65
-484.427
-1385.57
-762.985
-1395.68
-1003.27
-1311.29
-1235.62
-1272.62
-1438.19
-1222.48
-1620.07
-1180.41
-1777.17
-1137.84
-1912.27
-1097.22
-2025.2
-1057.24
-2114.98
-1017.6
-2175.19
-976.254
-2189.98
-929.735
-2127.29
-873.346
-1940.37
-802.113
-1604.41
-713.295
-1172.36
-607.265
-725.784
-472.723
-298.428
-293.095
-108.587
-670.654
-1081.22
-1501.9
-1838.19
-2135.81
-2383.28
-2588.7
-2751.53
-2873.75
-2955.99
-2998.59
-2999.84
-2954.58
-2852.92
-2680.04
-2418.33
-2050.6
-1548.32
-866.413
-670.641
1645.64
-1081.19
1385.55
-1501.86
1395.66
-1838.13
1311.27
-2135.73
1272.6
-2383.19
1222.46
-2588.59
1180.39
-2751.4
1137.82
-2873.61
1097.2
-2955.83
1057.22
-2998.41
1017.58
-2999.65
976.239
-2954.37
929.719
-2852.71
873.337
-2679.83
802.121
-2418.16
713.33
-2050.49
607.328
-1548.27
472.781
-866.406
293.13
108.594
-219.186
1864.82
-484.434
1650.79
-762.998
1674.23
-1003.3
1551.57
-1235.66
1504.96
-1438.25
1425.05
-1620.16
1362.3
-1777.29
1294.94
-1912.42
1232.33
-2025.38
1170.18
-2115.2
1107.4
-2175.41
1036.45
-2190.16
944.469
-2127.35
810.52
-1940.26
615.033
-1604.25
377.314
-1172.28
175.359
-725.69
26.1919
-298.318
-134.245
-189.724
-181.242
2046.06
-373.832
1843.38
-531.616
1832.01
-649.595
1669.54
-758.014
1613.37
-835.071
1502.1
-899.058
1426.28
-942.555
1338.44
-971.559
1261.33
-984.895
1183.52
-983.915
1106.41
-967.582
1020.12
-932.87
909.755
-870.726
748.373
-766.227
510.532
-615.4
226.483
-465.113
25.068
-337.569
-101.355
-218.378
-253.441
-408.102
-16.2275
2062.29
-60.7418
1887.89
-78.6882
1849.95
-79.104
1669.96
-77.2038
1611.47
-57.0827
1481.98
-30.7303
1399.93
9.15133
1298.55
59.1293
1211.35
120.708
1121.94
192.368
1034.75
269.78
942.703
340.905
838.628
379.84
709.436
347.884
542.485
231.94
342.424
98.0991
158.901
38.1858
-41.4508
-24.235
-191.025
-432.337
67.7873
1994.5
69.2912
1886.39
107.803
1811.44
152.501
1625.26
200.837
1563.13
255.977
1426.83
315.883
1340.02
382.165
1232.27
455.501
1138.02
535.614
1041.82
621.583
948.778
707.94
856.344
784.438
762.128
832.76
661.112
826.805
548.438
747.952
421.275
614.305
292.545
419.173
153.677
224.25
3.89407
-208.087
65.4066
1929.09
90.0425
1861.75
135.352
1766.13
182.915
1577.69
230.341
1515.71
284.245
1372.93
338.155
1286.11
398.848
1171.57
461.732
1075.13
528.999
974.553
598.986
878.791
673.179
782.151
750.5
684.806
823.869
587.742
877.374
494.932
883.921
414.727
818.768
357.697
648.377
324.067
369.155
283.115
161.068
21.5426
1907.54
46.8807
1836.41
73.0781
1739.93
87.5755
1563.19
102.217
1501.06
112.34
1362.81
115.28
1283.17
112.723
1174.13
102.342
1085.51
94.8487
982.044
104.754
868.883
151.406
735.496
241.525
594.685
369.671
459.594
520.73
343.871
656.639
278.816
706.452
307.883
601.323
429.195
334.798
549.639
495.865
-86.019
1993.56
-134.391
1884.78
-197.933
1803.47
-285.301
1650.56
-369.691
1585.45
-472.338
1465.45
-584.651
1395.48
-712.433
1301.91
-847.59
1220.67
-975.375
1109.83
-1075.02
968.528
-1129.18
789.659
-1136.98
602.487
-1103.44
426.05
-1029.14
269.57
-904.716
154.395
-703.164
106.331
-415.395
141.427
-133.087
267.332
362.778
-80.3517
2073.91
-180.723
1985.15
-263.381
1886.13
-356.104
1743.28
-447.413
1676.76
-544.42
1562.46
-645.608
1496.67
-750.647
1406.95
-857.803
1327.82
-962.697
1214.72
-1066.7
1072.53
-1169.5
892.454
-1270.39
703.378
-1363.4
519.056
-1434.65
340.82
-1444.3
164.042
-1348.55
10.5849
-1075.44
-131.682
-572.544
-235.565
-209.766
81.7164
1992.2
-36.6996
2103.57
-80.6009
1930.03
-106.239
1768.92
-124.786
1695.31
-139.061
1576.73
-144.669
1502.28
-143.434
1405.71
-136.156
1320.55
-131.559
1210.12
-140.805
1081.78
-173.677
925.326
-225.73
755.432
-285.817
579.143
-342.628
397.632
-379.778
201.194
-379.156
9.96342
-384.146
-126.691
-305.606
-314.105
-515.371
246.42
1745.78
190.795
2159.19
182.075
1938.75
218.413
1732.58
276.15
1637.57
335.256
1517.63
408.401
1429.13
487.192
1326.92
574.715
1233.02
656.872
1127.96
723.49
1015.16
758.66
890.155
757.283
756.808
718.848
617.577
641.196
475.283
515.268
327.121
348.347
176.885
221.871
-0.215724
89.8907
-182.124
-425.481
266.388
1479.39
286.695
2138.89
286.004
1939.44
326.733
1691.86
395.582
1568.72
463.188
1450.02
537.727
1354.59
612.621
1252.03
690.824
1154.82
763.822
1054.97
825.397
953.589
866.029
849.525
879.127
743.712
860.166
636.54
806.461
528.989
714.809
418.775
585.411
306.284
409.748
175.449
204.295
23.3317
-221.186
184.325
1295.07
238.445
2084.77
255.408
1922.48
290.783
1656.48
350.097
1509.41
410.478
1389.64
472.845
1292.23
532.211
1192.66
589.621
1097.41
640.811
1003.78
682.107
912.293
709.117
822.516
718.943
733.887
709.717
645.766
679.796
558.911
624.147
474.424
533.718
396.714
392.683
316.484
198.557
217.459
-22.6289
77.6638
1217.41
129.573
2032.86
177.826
1874.23
228.914
1605.4
295.874
1442.45
365.661
1319.86
434.9
1222.99
499.86
1127.71
561.008
1036.27
618.456
946.336
673.241
857.511
726.978
768.783
780.039
680.828
827.101
598.707
854.096
531.917
835.412
493.11
744.37
487.756
561.797
499.057
299.565
479.692
276.936
-49.5582
1266.97
8.38763
1974.92
94.2406
1788.38
161.689
1537.95
227.914
1376.23
293.631
1254.15
365.07
1151.55
447.639
1045.14
547.243
936.666
668.885
824.697
812.747
713.651
971.224
610.309
1124.85
527.205
1242.01
481.546
1281.67
492.259
1212.62
562.161
1022.45
677.932
721.941
799.563
368.196
833.437
645.133
-178.244
1445.21
-145.064
1941.74
-61.7266
1705.04
-39.5417
1515.77
-59.2548
1395.95
-90.2911
1285.19
-108.952
1170.22
-105.049
1041.25
-72.4595
904.082
-8.58005
760.824
85.1077
619.969
202.178
493.248
329.849
399.541
452.069
359.334
548.838
395.494
593.484
517.52
554.757
716.661
415.587
938.733
199.688
1049.34
844.821
-133.652
1578.87
-273.15
2081.24
-418.651
1850.55
-569.593
1666.72
-747.513
1573.87
-942.351
1480.03
-1134.08
1361.95
-1315.89
1223.06
-1487.19
1075.38
-1648.43
922.062
-1795.39
766.934
-1915.39
613.244
-1985.94
470.097
-1979.92
353.32
-1865.24
280.81
-1613.42
265.705
-1216.66
319.9
-725.853
447.925
-275.803
599.29
569.018
340.032
1238.84
441.059
1980.21
262.676
2028.93
35.5244
1893.87
-163.141
1772.53
-346.433
1663.32
-529.137
1544.66
-715.017
1408.94
-904.2
1264.57
-1096.88
1114.74
-1291.56
961.619
-1483.57
805.256
-1662.1
648.627
-1805.84
497.063
-1879.41
354.381
-1824.49
210.784
-1570.7
66.1041
-1118.83
-3.93718
-525.115
5.57279
43.9026
751.91
486.927
1206.27
1525.86
1207.13
2028.07
1020.81
2080.19
854.079
1939.26
743.878
1773.52
666.717
1621.82
591.726
1483.93
508.602
1347.69
413.962
1209.38
307
1068.58
187.271
924.985
57.1072
778.792
-75.0143
629.186
-193.6
472.969
-291.367
308.551
-366.462
141.202
-364.164
-6.23285
-259.076
-99.5124
-215.174
347.132
794.193
1112.08
1312.89
1464.77
1603.92
1701.71
1802.9
1877.5
1923.47
1938.47
1919.5
1862.56
1762.09
1608.4
1390.14
1098.19
739.833
368.941
)
;

boundaryField
{
    outletWall
    {
        type            calculated;
        value           nonuniform List<scalar> 
60
(
17688
-5429.87
-21856
-30840.2
-33879.1
-32666.6
-29423.7
-22296
-13484.6
3105.93
16868.7
17649.7
2823.38
-18108.6
-19051.5
-17831.1
-15276.7
-12913.2
-8392.08
-3740.53
2098.1
648.151
387.401
395.703
712.758
1094.86
1443.1
1718.14
1909.29
2019.92
2057.73
2032.3
1950.57
1820.66
1663.63
1518.38
1417.22
1358.89
1345.79
1395.01
2665.74
-10327.1
-11414.1
-6230.72
5258.15
15287.5
18782.8
18425
17542.9
16056.3
9955.82
-1455.91
9782.77
28370.1
28850.1
25109.8
22199.9
19350.6
17159.7
11697.2
)
;
    }
    fineWalls
    {
        type            calculated;
        value           uniform 0;
    }
    fineFrontAndBack
    {
        type            calculated;
        value           nonuniform List<scalar> 
960
(
-8.81874e-13
-1.38374e-12
1.90594e-14
9.60128e-14
-1.56307e-12
-1.47974e-13
-1.44984e-13
2.84109e-13
-2.63685e-12
-1.1304e-12
-1.44169e-12
-5.5557e-12
-3.37032e-13
-1.57005e-13
-1.85167e-13
-5.49105e-14
-4.14136e-13
-7.33383e-12
-1.92496e-12
-2.17315e-12
-4.35537e-13
-3.24383e-13
-2.08297e-13
-1.44546e-13
-1.205e-13
-1.14398e-13
-3.94475e-12
-8.83588e-14
-1.44325e-13
-2.21356e-13
-3.07613e-13
-3.94531e-13
-4.81641e-13
-5.75546e-13
-6.75863e-13
-7.83232e-13
-8.83385e-13
-1.00925e-12
-1.08534e-12
-1.1872e-12
-2.25238e-11
-1.83348e-12
-1.14096e-12
-2.63456e-13
1.76271e-11
4.31843e-12
7.01668e-12
6.99604e-13
1.91825e-10
2.81286e-11
2.21924e-11
1.42005e-11
-9.44562e-13
-1.54169e-13
7.86068e-14
7.50571e-12
2.42874e-12
3.20674e-12
4.38162e-12
3.97621e-11
1.75849e-12
1.65471e-12
1.62961e-12
1.53543e-12
1.46594e-12
1.38281e-12
1.30629e-12
1.23128e-12
1.15881e-12
1.09034e-12
1.0287e-12
9.7604e-13
9.44691e-13
2.41744e-11
9.61532e-13
1.01009e-12
1.06866e-12
1.16157e-12
1.29222e-12
1.40233e-12
7.97935e-12
8.84011e-12
5.91509e-11
1.53984e-11
1.36204e-11
7.20325e-11
1.96064e-11
1.79526e-11
7.07177e-11
1.18918e-11
4.57227e-12
1.32984e-11
-6.64188e-12
-1.86018e-11
-2.55327e-11
-1.00862e-10
-4.18378e-12
6.19698e-12
5.91834e-11
1.91315e-11
-3.21289e-11
-3.75084e-11
-3.19142e-11
-2.92165e-11
-2.25527e-11
-1.30395e-11
-3.07426e-12
1.2845e-12
-7.87594e-12
-9.80249e-12
-2.93089e-12
4.14734e-12
7.58034e-12
6.88709e-12
4.7254e-12
4.15952e-12
9.97613e-12
1.65411e-11
4.50652e-12
-3.29701e-11
-3.7132e-11
-3.17391e-11
-2.88894e-11
-2.20425e-11
-1.23986e-11
-2.56321e-12
7.60313e-13
-8.24175e-12
-7.44239e-12
-5.65208e-13
4.35238e-12
7.58917e-12
6.87041e-12
4.72681e-12
4.12696e-12
9.68436e-12
1.69008e-11
1.42098e-11
-3.37701e-11
-3.66539e-11
-3.15096e-11
-2.84532e-11
-2.13638e-11
-1.15474e-11
-1.98794e-12
-4.40959e-13
-7.35035e-12
-5.15585e-12
1.82377e-12
4.96494e-12
7.64319e-12
6.81583e-12
4.7201e-12
4.09622e-12
9.39736e-12
1.60869e-11
2.71969e-11
-3.43043e-11
-3.61672e-11
-3.12478e-11
-2.79572e-11
-2.05996e-11
-1.06071e-11
-1.49019e-12
-1.61827e-12
-5.61552e-12
-1.74386e-12
4.92385e-12
6.1008e-12
7.78742e-12
6.68977e-12
4.69436e-12
4.08832e-12
9.23301e-12
1.42908e-11
2.62294e-11
-3.46048e-11
-3.57201e-11
-3.09499e-11
-2.74118e-11
-1.97696e-11
-9.62463e-12
-1.07584e-12
-2.00135e-12
-2.95208e-12
2.67725e-12
8.42327e-12
7.61429e-12
7.99127e-12
6.55332e-12
4.61586e-12
4.11883e-12
9.21566e-12
1.34611e-11
1.76705e-12
-3.47494e-11
-3.53328e-11
-3.06125e-11
-2.68198e-11
-1.88846e-11
-8.64704e-12
-7.18567e-13
-1.47846e-12
2.60235e-13
8.04015e-12
1.22035e-11
9.21821e-12
8.29877e-12
6.56068e-12
4.45523e-12
4.24791e-12
9.33371e-12
1.50765e-11
-1.32985e-11
-3.4742e-11
-3.50068e-11
-3.02491e-11
-2.61918e-11
-1.79547e-11
-7.64689e-12
-2.85428e-13
-5.58943e-13
3.58424e-12
1.42038e-11
1.62433e-11
1.05299e-11
8.6181e-12
6.54485e-12
4.1773e-12
4.57774e-12
9.72725e-12
1.49673e-11
3.03865e-11
-3.45178e-11
-3.47474e-11
-2.98841e-11
-2.55277e-11
-1.70218e-11
-6.90226e-12
-3.4213e-13
2.03235e-13
6.57721e-12
2.06783e-11
2.07541e-11
1.16125e-11
9.05989e-12
6.45552e-12
3.9325e-12
4.9638e-12
1.02258e-11
2.05243e-11
5.87708e-11
-3.39555e-11
-3.45819e-11
-2.9558e-11
-2.48874e-11
-1.61176e-11
-5.38907e-12
2.36192e-12
1.00717e-12
8.84908e-12
2.64917e-11
2.66011e-11
9.77567e-12
8.93355e-12
6.04771e-12
4.12074e-12
5.5278e-12
1.32277e-11
2.85842e-11
3.42779e-11
-3.28684e-11
-3.45344e-11
-2.93036e-11
-2.41528e-11
-1.50562e-11
-6.72427e-12
-9.39989e-12
2.74183e-12
1.03138e-11
3.01562e-11
4.4568e-11
3.16977e-11
5.2225e-12
4.91946e-12
2.81978e-12
9.38735e-12
1.6274e-11
6.141e-12
-7.3745e-12
-3.10346e-11
-3.45402e-11
-2.91532e-11
-2.34311e-11
-1.43923e-11
-6.20914e-12
-2.9033e-12
2.56486e-12
1.20654e-11
2.88082e-11
3.2425e-11
2.47971e-11
6.57141e-12
6.08832e-12
5.50698e-12
8.10578e-12
1.73402e-12
1.95701e-11
1.54674e-10
-2.83064e-11
-3.44059e-11
-2.91366e-11
-2.27591e-11
-1.37766e-11
-5.06482e-12
1.30622e-12
2.43826e-12
1.3369e-11
3.21119e-11
3.38118e-11
2.20026e-11
1.23996e-11
8.87687e-12
6.50875e-12
3.30477e-12
8.14469e-12
6.3512e-11
1.12368e-10
-2.47572e-11
-3.388e-11
-2.92365e-11
-2.21139e-11
-1.31114e-11
-3.93632e-12
1.8534e-12
1.85683e-12
1.28149e-11
3.35361e-11
3.93514e-11
2.90486e-11
1.92314e-11
1.26112e-11
8.99761e-12
1.04825e-11
2.42774e-11
2.88101e-11
-3.3237e-11
-2.07767e-11
-3.28121e-11
-2.9365e-11
-2.1475e-11
-1.23693e-11
-3.03794e-12
2.03481e-12
4.41934e-13
1.00466e-11
3.14321e-11
4.19318e-11
3.67456e-11
2.8192e-11
2.1609e-11
2.00062e-11
2.51433e-11
2.84394e-11
4.66908e-12
-2.008e-11
-1.70352e-11
-3.12972e-11
-2.93769e-11
-2.08304e-11
-1.15323e-11
-2.2141e-12
2.29594e-12
-1.22776e-12
4.50269e-12
2.31895e-11
3.63053e-11
3.89161e-11
3.60935e-11
3.25205e-11
3.16901e-11
3.17195e-11
2.04743e-11
-7.46234e-12
-1.44799e-11
-1.42923e-11
-2.96507e-11
-2.90823e-11
-2.0129e-11
-1.05964e-11
-1.38102e-12
2.91639e-12
-2.12575e-12
-3.20784e-12
8.37101e-12
2.23463e-11
3.18645e-11
3.54209e-11
3.50042e-11
3.23167e-11
2.46402e-11
5.76852e-12
-1.74688e-11
-1.29293e-11
-1.32997e-11
-2.83207e-11
-2.83887e-11
-1.93431e-11
-9.61413e-12
-6.36201e-13
3.69961e-12
-1.23974e-12
-8.50519e-12
-6.37673e-12
4.56028e-12
1.69285e-11
2.49118e-11
2.68052e-11
2.23033e-11
1.04671e-11
-7.31523e-12
-1.81553e-11
-1.14156e-11
-1.41615e-11
-2.71943e-11
-2.69774e-11
-1.8219e-11
-8.50798e-12
9.44429e-15
4.35184e-12
1.14664e-12
-7.9154e-12
-1.45552e-11
-1.11193e-11
-7.18386e-13
9.29141e-12
1.33597e-11
9.15845e-12
-2.49058e-12
-1.58459e-11
-1.85429e-11
-9.8815e-12
-1.70533e-11
-2.70149e-11
-2.57806e-11
-1.73363e-11
-7.62076e-12
4.72481e-13
4.7124e-12
3.40726e-12
-3.3267e-12
-1.51325e-11
-2.13555e-11
-1.79336e-11
-8.28306e-12
-1.08385e-12
-2.31882e-12
-1.30544e-11
-3.00972e-11
-2.02214e-11
-8.81399e-12
-1.78497e-11
-2.38522e-11
-2.14188e-11
-1.42501e-11
-5.47413e-12
1.54759e-12
5.06299e-12
4.5397e-12
1.40092e-12
-7.65236e-12
-1.83933e-11
-2.62433e-11
-2.60855e-11
-2.08221e-11
-1.80034e-11
-2.46761e-11
-4.07224e-11
-1.96042e-11
-7.10844e-12
8.81874e-13
1.38374e-12
-1.90594e-14
-9.60128e-14
1.56307e-12
1.47974e-13
1.44984e-13
-2.84109e-13
2.63685e-12
1.1304e-12
1.44169e-12
5.5557e-12
3.37032e-13
1.57005e-13
1.85167e-13
5.49105e-14
4.14136e-13
7.33383e-12
1.92496e-12
2.17315e-12
4.35537e-13
3.24383e-13
2.08297e-13
1.44546e-13
1.205e-13
1.14398e-13
3.94475e-12
8.83588e-14
1.44325e-13
2.21356e-13
3.07613e-13
3.94531e-13
4.81641e-13
5.75546e-13
6.75863e-13
7.83232e-13
8.83385e-13
1.00925e-12
1.08534e-12
1.1872e-12
2.25238e-11
1.83348e-12
1.14096e-12
2.63456e-13
-1.76271e-11
-4.31843e-12
-7.01668e-12
-6.99604e-13
-1.91825e-10
-2.81286e-11
-2.21924e-11
-1.42005e-11
9.44562e-13
1.54169e-13
-7.86068e-14
-7.50571e-12
-2.42874e-12
-3.20674e-12
-4.38162e-12
-3.97621e-11
-1.75849e-12
-1.65471e-12
-1.62961e-12
-1.53543e-12
-1.46594e-12
-1.38281e-12
-1.30629e-12
-1.23128e-12
-1.15881e-12
-1.09034e-12
-1.0287e-12
-9.7604e-13
-9.44691e-13
-2.41744e-11
-9.61532e-13
-1.01009e-12
-1.06866e-12
-1.16157e-12
-1.29222e-12
-1.40233e-12
-7.97935e-12
-8.84011e-12
-5.91509e-11
-1.53984e-11
-1.36204e-11
-7.20325e-11
-1.96064e-11
-1.79526e-11
-7.07177e-11
-1.18918e-11
-4.57227e-12
-1.32984e-11
6.64188e-12
1.86018e-11
2.55327e-11
1.00862e-10
4.18378e-12
-6.19698e-12
-5.91834e-11
-1.91315e-11
3.21289e-11
3.75084e-11
3.19142e-11
2.92165e-11
2.25527e-11
1.30395e-11
3.07426e-12
-1.2845e-12
7.87594e-12
9.80249e-12
2.93089e-12
-4.14734e-12
-7.58034e-12
-6.88709e-12
-4.7254e-12
-4.15952e-12
-9.97613e-12
-1.65411e-11
-4.50652e-12
3.29701e-11
3.7132e-11
3.17391e-11
2.88894e-11
2.20425e-11
1.23986e-11
2.56321e-12
-7.60313e-13
8.24175e-12
7.44239e-12
5.65208e-13
-4.35238e-12
-7.58917e-12
-6.87041e-12
-4.72681e-12
-4.12696e-12
-9.68436e-12
-1.69008e-11
-1.42098e-11
3.37701e-11
3.66539e-11
3.15096e-11
2.84532e-11
2.13638e-11
1.15474e-11
1.98794e-12
4.40959e-13
7.35035e-12
5.15585e-12
-1.82377e-12
-4.96494e-12
-7.64319e-12
-6.81583e-12
-4.7201e-12
-4.09622e-12
-9.39736e-12
-1.60869e-11
-2.71969e-11
3.43043e-11
3.61672e-11
3.12478e-11
2.79572e-11
2.05996e-11
1.06071e-11
1.49019e-12
1.61827e-12
5.61552e-12
1.74386e-12
-4.92385e-12
-6.1008e-12
-7.78742e-12
-6.68977e-12
-4.69436e-12
-4.08832e-12
-9.23301e-12
-1.42908e-11
-2.62294e-11
3.46048e-11
3.57201e-11
3.09499e-11
2.74118e-11
1.97696e-11
9.62463e-12
1.07584e-12
2.00135e-12
2.95208e-12
-2.67725e-12
-8.42327e-12
-7.61429e-12
-7.99127e-12
-6.55332e-12
-4.61586e-12
-4.11883e-12
-9.21566e-12
-1.34611e-11
-1.76705e-12
3.47494e-11
3.53328e-11
3.06125e-11
2.68198e-11
1.88846e-11
8.64704e-12
7.18567e-13
1.47846e-12
-2.60235e-13
-8.04015e-12
-1.22035e-11
-9.21821e-12