/*--------------------------------*- C++ -*----------------------------------*\
| =========                 |                                                 |
| \\      /  F ield         | OpenFOAM: The Open Source CFD Toolbox           |
|  \\    /   O peration     | Version:  4.1                                   |
|   \\  /    A nd           | Web:      www.OpenFOAM.org                      |
|    \\/     M anipulation  |                                                 |
\*---------------------------------------------------------------------------*/
FoamFile
{
    version     2.0;
    format      ascii;
    class       volVectorField;
    location    "21";
    object      U;
}
// * * * * * * * * * * * * * * * * * * * * * * * * * * * * * * * * * * * * * //

dimensions      [0 1 -1 0 0 0 0];

internalField   nonuniform List<vector> 
1280
(
(-6.37307e-16 -0.908104 -3.31996)
(-2.35181e-16 0.794192 -2.6148)
(1.37737e-17 -0.0970699 -1.30697)
(6.93859e-17 0.0991048 -1.16533)
(-2.65659e-16 1.27367 -2.29804)
(-1.06937e-16 0.918789 -1.67014)
(-1.04776e-16 1.28455 -1.60403)
(2.53187e-16 1.36975 -1.42199)
(-6.66691e-16 2.2474 -2.19939)
(-8.44227e-16 2.0569 -1.5547)
(-1.04187e-15 2.31111 -1.37779)
(-7.13106e-16 3.24779 -2.207)
(-2.24303e-16 2.90954 -1.63102)
(-1.12636e-16 3.23008 -1.46446)
(-8.85899e-18 4.18549 -2.34599)
(-3.96824e-17 3.71439 -1.80634)
(-2.99285e-16 4.06182 -1.59106)
(-1.24646e-15 5.38108 -3.12652)
(-1.39111e-15 4.59356 -2.4643)
(-1.57048e-15 5.45542 -2.29913)
(-1.78682e-15 5.1646 -2.79711)
(-1.3308e-15 5.29948 1.59041)
(-8.5455e-16 5.05291 6.79159)
(-5.93011e-16 5.10863 10.2407)
(-4.94358e-16 5.1975 11.6675)
(-4.69326e-16 5.75168 12.0767)
(-8.31568e-16 2.89554 9.73175)
(-3.62498e-16 8.0127 15.1784)
(-5.92104e-16 7.8513 14.9846)
(-9.08129e-16 7.95372 14.5047)
(-1.262e-15 7.97591 13.9425)
(-1.61859e-15 7.94561 13.35)
(-1.97596e-15 7.91716 12.7517)
(-2.36122e-15 7.87851 12.1639)
(-2.77277e-15 7.82216 11.6025)
(-3.21326e-15 7.75805 11.069)
(-3.62414e-15 7.67436 10.5995)
(-4.1405e-15 7.57749 10.168)
(-4.45266e-15 7.49218 9.90396)
(-4.87057e-15 7.22839 9.28099)
(-3.92059e-15 7.60914 10.8416)
(-1.47268e-15 4.19372 7.50857)
(-9.16431e-16 3.48793 7.40929)
(-6.13481e-17 2.53854 7.48646)
(4.27037e-15 1.59207 7.11472)
(3.46862e-15 1.15784 4.25702)
(5.63589e-15 0.529516 3.91984)
(5.61931e-16 -0.037835 4.44562)
(3.91503e-14 -0.22684 -0.779385)
(2.43175e-14 -0.014634 -0.4859)
(1.61009e-14 -0.543463 1.15865)
(2.4718e-15 -0.397916 4.8376)
(-7.58684e-16 -2.01552 6.9358)
(-1.23831e-16 -2.84866 6.69912)
(6.3138e-17 -3.52505 6.83973)
(1.30648e-15 -5.09834 10.0988)
(2.02218e-15 -5.85278 8.80402)
(2.57569e-15 -7.14373 8.81484)
(3.51938e-15 -7.92326 8.73387)
(7.01842e-15 -11.064 11.4113)
(7.21432e-15 -9.0883 9.31276)
(6.78854e-15 -9.35265 9.72464)
(6.68558e-15 -9.39942 9.80494)
(6.29921e-15 -9.49291 10.0346)
(6.0141e-15 -9.54615 10.3009)
(5.67306e-15 -9.58637 10.623)
(5.35913e-15 -9.60558 10.9728)
(5.05141e-15 -9.60599 11.3462)
(4.75409e-15 -9.58903 11.7311)
(4.47319e-15 -9.55543 12.1171)
(4.22029e-15 -9.47988 12.4842)
(4.00427e-15 -9.38008 12.7828)
(3.87565e-15 -9.32867 12.8625)
(5.09606e-15 -3.24359 6.34075)
(3.94475e-15 -5.09906 11.7469)
(4.14396e-15 -4.53961 10.9983)
(4.38423e-15 -4.50451 9.24988)
(4.76541e-15 -4.50471 5.2217)
(5.30142e-15 -4.78036 -0.574666)
(5.75315e-15 -4.65381 -5.30762)
(5.76395e-15 -4.88237 -4.76045)
(6.38852e-15 -3.63243 -5.08696)
(1.00533e-14 -3.28361 -6.50084)
(1.11281e-14 -2.38494 -3.49927)
(9.84308e-15 -1.63297 -4.01197)
(1.31521e-14 -1.04639 -4.96199)
(1.41691e-14 -0.64408 -2.8302)
(1.26572e-14 -0.0771022 -3.17673)
(1.32959e-14 0.392869 -4.25054)
(8.59391e-15 0.779508 -3.1963)
(3.30426e-15 1.3671 -2.98442)
(3.72481e-15 1.97128 -4.09846)
(-4.61684e-15 2.17511 -3.01585)
(-1.34431e-14 2.77447 -3.00466)
(-1.84518e-14 3.04904 -2.7816)
(-1.71424e-14 4.10863 -4.09237)
(-3.02351e-15 3.94702 -3.12939)
(4.47839e-15 4.76008 -2.89601)
(1.00498e-14 4.67559 -3.85611)
(1.38258e-14 5.8001 -4.03509)
(-3.56987e-15 -1.24657 1.16596)
(-4.1676e-15 -2.79902 1.54925)
(-3.54602e-15 -4.30581 1.56164)
(-3.24628e-15 -5.09758 1.69637)
(-2.50585e-15 -5.95 1.725)
(-1.44883e-15 -6.35443 1.78019)
(-3.41585e-16 -6.02035 1.85308)
(1.42722e-16 1.2385 0.887237)
(-8.75104e-16 5.90416 -0.231981)
(-1.08917e-15 5.60849 0.764843)
(-3.25654e-16 1.01379 0.427419)
(4.60816e-16 -4.43279 0.861364)
(8.42261e-16 -7.36862 0.838579)
(7.65232e-16 -9.74223 0.399379)
(5.25044e-16 -10.8295 -0.288206)
(4.62169e-16 -11.2348 -1.0273)
(1.10846e-15 -10.2338 -2.16545)
(1.8379e-15 -7.24941 -3.00857)
(5.00725e-16 -1.81622 -4.23098)
(-3.66335e-15 -1.38869 1.13595)
(-4.12578e-15 -2.93557 1.57457)
(-3.52657e-15 -4.355 1.60186)
(-3.20994e-15 -5.14372 1.73972)
(-2.44916e-15 -5.9659 1.77135)
(-1.37763e-15 -6.38083 1.85903)
(-2.84801e-16 -5.74336 1.9272)
(8.44792e-17 1.86963 0.305974)
(-9.1575e-16 5.88654 -0.208686)
(-8.26932e-16 5.41788 0.316772)
(-6.28009e-17 1.01916 0.134172)
(4.83598e-16 -4.76148 0.804762)
(8.43241e-16 -7.35474 0.963811)
(7.63379e-16 -9.49856 0.567567)
(5.25201e-16 -10.4661 -0.099953)
(4.58552e-16 -10.7141 -0.826017)
(1.07604e-15 -9.64739 -1.97176)
(1.87787e-15 -6.63134 -2.91405)
(1.57887e-15 -1.49623 -3.88253)
(-3.75224e-15 -1.47291 1.14787)
(-4.07266e-15 -3.01878 1.62397)
(-3.50107e-15 -4.38554 1.66293)
(-3.16147e-15 -5.18207 1.81297)
(-2.37375e-15 -6.00045 1.86977)
(-1.28304e-15 -6.41436 2.01027)
(-2.20882e-16 -5.50831 2.10699)
(-4.89954e-17 2.01045 0.202332)
(-8.16706e-16 5.81531 0.169747)
(-5.72873e-16 5.41992 0.364646)
(2.02641e-16 0.837841 0.624252)
(5.5166e-16 -4.82395 0.984023)
(8.49243e-16 -7.26487 1.14861)
(7.57314e-16 -9.2567 0.85731)
(5.24456e-16 -10.1724 0.197027)
(4.55136e-16 -10.3353 -0.494496)
(1.04415e-15 -9.23432 -1.63792)
(1.78743e-15 -6.26561 -2.71339)
(3.02187e-15 -1.26676 -3.42676)
(-3.81158e-15 -1.57635 1.19877)
(-4.01858e-15 -3.11586 1.69352)
(-3.47198e-15 -4.42386 1.73999)
(-3.10635e-15 -5.2274 1.90685)
(-2.28884e-15 -6.05062 2.00314)
(-1.17856e-15 -6.45991 2.20996)
(-1.65576e-16 -5.1794 2.31901)
(-1.79808e-16 2.52219 0.411118)
(-6.23946e-16 5.73526 0.589311)
(-1.93762e-16 5.30275 0.671842)
(5.47095e-16 0.663216 1.27799)
(6.77867e-16 -4.85983 1.44743)
(8.65269e-16 -7.23525 1.435)
(7.43308e-16 -9.08973 1.22276)
(5.21596e-16 -9.92951 0.608162)
(4.54258e-16 -10.0032 -0.0444982)
(1.02589e-15 -8.81622 -1.16938)
(1.58787e-15 -5.90924 -2.39304)
(2.91438e-15 -0.980244 -3.20841)
(-3.84498e-15 -1.69171 1.28495)
(-3.9689e-15 -3.22462 1.77453)
(-3.43887e-15 -4.4714 1.8277)
(-3.04575e-15 -5.28712 2.01381)
(-2.19662e-15 -6.12316 2.15781)
(-1.0694e-15 -6.52595 2.44292)
(-1.19537e-16 -4.81985 2.53984)
(-2.22372e-16 2.89719 0.90013)
(-3.28009e-16 5.67324 1.17162)
(2.97472e-16 5.17066 1.30376)
(9.35919e-16 0.427409 2.17525)
(8.46033e-16 -4.8445 2.13722)
(8.87919e-16 -7.17683 1.91732)
(7.28147e-16 -8.93874 1.63653)
(5.12873e-16 -9.6924 1.17003)
(4.57647e-16 -9.65034 0.525502)
(1.02396e-15 -8.33734 -0.56549)
(1.49567e-15 -5.42489 -1.96906)
(1.96339e-16 -0.597275 -3.56251)
(-3.86104e-15 -1.79961 1.40652)
(-3.92587e-15 -3.32625 1.85639)
(-3.40139e-15 -4.5235 1.91732)
(-2.97998e-15 -5.3602 2.12622)
(-2.09829e-15 -6.22196 2.32094)
(-9.60782e-16 -6.62006 2.68768)
(-7.98407e-17 -4.51609 2.78077)
(-1.64273e-16 3.14189 1.55012)
(2.89149e-17 5.58051 1.88383)
(8.9335e-16 4.93227 2.22285)
(1.35595e-15 0.207311 3.26623)
(1.02425e-15 -4.72092 3.01384)
(9.22086e-16 -7.03219 2.58734)
(7.28965e-16 -8.78908 2.14443)
(4.95025e-16 -9.49043 1.8558)
(4.7199e-16 -9.30241 1.2207)
(1.03708e-15 -7.82243 0.175274)
(1.67517e-15 -4.68403 -1.34587)
(-1.47761e-15 0.446786 -5.05751)
(-3.86022e-15 -1.89632 1.53726)
(-3.88964e-15 -3.41745 1.92707)
(-3.36101e-15 -4.58252 2.00012)
(-2.9102e-15 -5.44759 2.23751)
(-1.99496e-15 -6.34596 2.48159)
(-8.49654e-16 -6.74303 2.92585)
(-3.17142e-17 -4.2968 3.05112)
(-6.21048e-17 3.27993 2.2893)
(3.98249e-16 5.42926 2.73675)
(1.5782e-15 4.61632 3.3567)
(1.80481e-15 0.0149524 4.45597)
(1.16999e-15 -4.5141 4.02893)
(9.57567e-16 -6.81449 3.41306)
(7.27205e-16 -8.63851 2.8345)
(4.64144e-16 -9.32922 2.60423)
(5.08638e-16 -8.98099 2.07816)
(1.08081e-15 -7.36717 1.14307)
(1.66303e-15 -3.5022 -0.682727)
(3.37627e-15 2.1659 -2.93141)
(-3.83531e-15 -1.98065 1.64508)
(-3.86083e-15 -3.4991 1.97525)
(-3.32045e-15 -4.65171 2.06866)
(-2.83641e-15 -5.55058 2.34057)
(-1.89131e-15 -6.4932 2.62935)
(-7.66917e-16 -6.89717 3.14178)
(-3.80144e-17 -4.18626 3.34561)
(2.25817e-17 3.27238 3.08356)
(7.30801e-16 5.18714 3.70914)
(2.29759e-15 4.22383 4.61323)
(2.30601e-15 -0.129954 5.67676)
(1.29028e-15 -4.25056 5.12623)
(1.00665e-15 -6.54604 4.3832)
(7.1728e-16 -8.45958 3.72109)
(4.36944e-16 -9.19716 3.41917)
(5.51534e-16 -8.72178 3.11888)
(1.1362e-15 -6.79464 2.15865)
(2.28047e-15 -2.66297 -0.532572)
(6.53008e-15 -3.58577 3.99953)
(-3.77283e-15 -2.05359 1.71269)
(-3.84243e-15 -3.57424 1.99377)
(-3.28422e-15 -4.73399 2.11759)
(-2.76527e-15 -5.66922 2.42832)
(-1.79084e-15 -6.66089 2.75468)
(-5.98785e-16 -7.08612 3.32231)
(2.62436e-16 -4.20253 3.65017)
(1.11908e-16 3.12451 3.91889)
(9.83231e-16 4.85088 4.75874)
(2.94352e-15 3.7855 5.90179)
(2.95568e-15 -0.228097 6.87221)
(1.08619e-15 -3.95701 6.2616)
(9.92617e-16 -6.24778 5.4852)
(6.71967e-16 -8.24813 4.78383)
(4.5786e-16 -9.09882 4.36994)
(6.142e-16 -8.46513 4.16257)
(1.46974e-15 -6.16204 3.20594)
(3.17602e-15 -3.64038 4.13353)
(3.80865e-15 -4.20208 9.65455)
(-3.65204e-15 -2.11784 1.73365)
(-3.83715e-15 -3.6473 1.98119)
(-3.25595e-15 -4.83197 2.14399)
(-2.68365e-15 -5.80241 2.49604)
(-1.67291e-15 -6.84465 2.85106)
(-7.47141e-16 -7.31187 3.45786)
(-1.71455e-15 -4.36469 3.94045)
(3.04648e-16 2.81998 4.76051)
(1.14598e-15 4.42364 5.82365)
(3.35069e-15 3.32141 7.15723)
(4.952e-15 -0.287508 8.00347)
(3.74907e-15 -3.66748 7.36191)
(5.80278e-16 -5.95225 6.64782)
(5.46607e-16 -8.00935 5.95319)
(2.25981e-16 -8.94951 5.39331)
(1.04304e-15 -8.26479 5.13588)
(1.80822e-15 -6.62635 5.2223)
(6.82333e-16 -5.66716 8.38231)
(-8.19389e-16 -4.24915 9.60367)
(-3.44829e-15 -2.17763 1.70238)
(-3.83779e-15 -3.72347 1.94034)
(-3.23924e-15 -4.94764 2.14754)
(-2.60345e-15 -5.94858 2.54248)
(-1.59914e-15 -7.03932 2.91581)
(-6.89904e-16 -7.57372 3.54306)
(-4.35248e-17 -4.68123 4.18429)
(2.84984e-16 2.3684 5.56016)
(1.3406e-15 3.91499 6.83869)
(3.20091e-15 2.84923 8.34895)
(3.60277e-15 -0.30315 9.08904)
(2.75523e-15 -3.39951 8.34938)
(7.30157e-16 -5.6836 7.69322)
(6.7648e-16 -7.74533 7.03205)
(6.11887e-16 -8.78063 6.40764)
(9.00642e-16 -8.41817 6.40807)
(1.92669e-16 -7.39486 7.77231)
(2.17446e-15 -5.33082 9.60878)
(1.7186e-14 -2.12332 5.67429)
(-3.14515e-15 -2.23889 1.6111)
(-3.82288e-15 -3.80885 1.87641)
(-3.2374e-15 -5.0818 2.131)
(-2.52879e-15 -6.10554 2.56968)
(-1.53073e-15 -7.23881 2.94971)
(-5.62757e-16 -7.86556 3.57596)
(1.45135e-16 -5.14419 4.34843)
(2.70918e-16 1.78128 6.25986)
(1.48544e-15 3.3281 7.73647)
(3.56799e-15 2.35431 9.46051)
(3.75687e-15 -0.255767 10.2658)
(2.44474e-15 -3.09942 9.40022)
(1.37773e-15 -5.41756 8.66852)
(9.86319e-16 -7.49161 8.02422)
(7.23195e-16 -8.70292 7.54737)
(3.67197e-16 -8.77424 8.00461)
(9.04965e-16 -7.88579 9.48667)
(7.05689e-15 -5.52456 9.38272)
(1.24854e-14 -2.3278 6.94585)
(-2.7508e-15 -2.31161 1.45338)
(-3.76444e-15 -3.91314 1.79693)
(-3.2485e-15 -5.2354 2.10025)
(-2.45709e-15 -6.27121 2.58199)
(-1.45682e-15 -7.43658 2.95649)
(-4.37369e-16 -8.17461 3.55905)
(2.05933e-16 -5.7287 4.40935)
(2.06314e-16 1.07179 6.78345)
(1.42387e-15 2.66028 8.43187)
(3.72623e-15 1.76143 10.4131)
(4.37238e-15 -0.253306 11.579)
(3.22762e-15 -2.76077 10.8591)
(2.13682e-15 -5.12018 10.0552)
(1.40124e-15 -7.29551 9.41125)
(9.99735e-16 -8.78127 9.13169)
(1.16473e-15 -9.21214 9.7644)
(2.69748e-15 -8.09702 11.0621)
(3.20112e-15 -4.12827 12.2352)
(-3.693e-15 3.26586 13.5479)
(-2.30852e-15 -2.40664 1.22636)
(-3.64579e-15 -4.04658 1.71343)
(-3.26278e-15 -5.40733 2.06393)
(-2.38612e-15 -6.44235 2.58534)
(-1.37436e-15 -7.62568 2.94273)
(-3.37549e-16 -8.48296 3.50017)
(2.2609e-16 -6.38911 4.3617)
(4.91037e-17 0.212622 7.01764)
(1.11629e-15 1.91366 8.79676)
(3.49246e-15 1.02193 10.9948)
(4.65909e-15 -0.41694 12.6694)
(4.08285e-15 -2.5108 12.5011)
(3.13244e-15 -4.83781 11.9781)
(2.401e-15 -7.12332 11.4435)
(2.22291e-15 -8.8404 11.2079)
(2.7937e-15 -9.50043 11.529)
(3.15994e-15 -8.60651 11.8916)
(5.18786e-16 -6.00665 11.1016)
(-2.23111e-15 -2.81662 8.05067)
(-1.8928e-15 -2.54045 0.938682)
(-3.47747e-15 -4.22545 1.64389)
(-3.2641e-15 -5.59711 2.03181)
(-2.31449e-15 -6.61682 2.58529)
(-1.28137e-15 -7.8003 2.91647)
(-2.46011e-16 -8.77274 3.41166)
(2.55104e-16 -7.06944 4.22156)
(-1.36417e-16 -0.760275 6.89919)
(5.00299e-16 1.12528 8.66187)
(2.57661e-15 0.157987 10.8849)
(4.03392e-15 -0.823762 12.9392)
(4.32402e-15 -2.50936 13.5533)
(4.01038e-15 -4.70356 13.6786)
(3.61339e-15 -6.99959 13.4962)
(3.52112e-15 -8.83104 13.2718)
(3.52439e-15 -9.51025 12.9747)
(2.27493e-15 -8.06147 11.5728)
(-8.29149e-16 -3.64515 6.8314)
(-1.60887e-15 1.9265 -2.39151)
(-1.58803e-15 -2.72576 0.622658)
(-3.29453e-15 -4.45767 1.61634)
(-3.23137e-15 -5.79677 2.01772)
(-2.23656e-15 -6.7902 2.58886)
(-1.17738e-15 -7.95587 2.88727)
(-1.53447e-16 -9.02897 3.30813)
(3.24043e-16 -7.71387 4.01797)
(-2.36194e-16 -1.67034 6.50451)
(-3.56426e-16 0.437355 7.87352)
(9.30112e-16 -0.711007 9.79652)
(2.48292e-15 -1.46547 12.1952)
(3.5405e-15 -2.8308 13.5439)
(3.93565e-15 -4.82524 14.2907)
(3.88935e-15 -6.97466 14.5124)
(3.59075e-15 -8.6418 14.1794)
(2.7378e-15 -8.80622 12.8017)
(6.40946e-16 -6.05196 9.0075)
(-1.94098e-15 -0.257167 1.71046)
(-1.43659e-15 2.75151 -2.03273)
(-1.47775e-15 -2.97645 0.360386)
(-3.14674e-15 -4.75796 1.65884)
(-3.1543e-15 -5.99954 2.02906)
(-2.14924e-15 -6.95868 2.59658)
(-1.06824e-15 -8.08846 2.86012)
(-7.06891e-17 -9.24157 3.20178)
(4.11068e-16 -8.28125 3.7817)
(-1.37748e-16 -2.41883 5.95968)
(-9.45021e-16 -0.0954878 6.58977)
(-7.08525e-16 -1.64762 7.93792)
(5.06698e-16 -2.31058 10.6248)
(1.88094e-15 -3.3414 12.5015)
(2.76798e-15 -5.07835 13.6154)
(2.97836e-15 -6.9608 13.9928)
(2.47814e-15 -8.15617 13.3249)
(1.16302e-15 -7.43434 10.8316)
(-8.12804e-16 -3.69489 5.54129)
(-2.01726e-15 1.16918 -1.23469)
(-1.2684e-15 3.23 -2.48775)
(-1.5735e-15 -3.28818 0.352153)
(-3.02159e-15 -5.09777 1.81731)
(-2.99749e-15 -6.18353 2.10068)
(-2.02433e-15 -7.11948 2.62639)
(-9.45331e-16 -8.20125 2.84954)
(1.04937e-18 -9.40908 3.11069)
(4.83538e-16 -8.76176 3.54614)
(1.27405e-16 -2.92927 5.35035)
(-8.79489e-16 -0.221354 5.09664)
(-1.61724e-15 -2.36309 5.8195)
(-1.23548e-15 -3.28185 8.54082)
(-7.98207e-17 -4.0635 10.7164)
(1.03238e-15 -5.43875 11.9193)
(1.48441e-15 -6.85071 12.1913)
(1.01761e-15 -7.33763 11.1567)
(-2.76731e-16 -5.64047 7.98724)
(-1.76065e-15 -1.24154 2.34766)
(-2.06032e-15 2.52288 -1.66479)
(-1.09794e-15 3.35318 -2.65203)
(-1.89482e-15 -3.59212 0.565903)
(-3.00165e-15 -5.43102 1.99459)
(-2.86451e-15 -6.33111 2.16725)
(-1.92625e-15 -7.24873 2.63912)
(-8.46751e-16 -8.28015 2.83541)
(5.24979e-17 -9.52249 3.02861)
(5.236e-16 -9.11346 3.33189)
(3.78584e-16 -3.19143 4.77787)
(-3.69634e-16 -0.272713 3.79027)
(-1.68139e-15 -3.13974 3.84947)
(-2.37283e-15 -4.23533 6.28716)
(-1.99262e-15 -4.61809 8.83901)
(-9.2034e-16 -5.60486 10.1687)
(-1.20428e-16 -6.6606 10.1982)
(-2.57647e-16 -6.52824 8.78648)
(-1.45049e-15 -4.03708 5.22002)
(-3.34413e-15 0.313802 -0.243872)
(-2.24682e-15 3.08631 -2.19905)
(-9.79333e-16 3.39743 -2.85698)
(-1.98331e-15 -3.90728 1.75864)
(-2.65024e-15 -5.72229 2.47637)
(-2.37987e-15 -6.45062 2.48847)
(-1.58334e-15 -7.3961 2.76667)
(-6.08236e-16 -8.36696 2.8931)
(1.71955e-16 -9.61419 3.00503)
(5.62555e-16 -9.45368 3.13653)
(5.04411e-16 -3.26494 3.959)
(1.55658e-16 0.550324 3.1527)
(-8.50262e-16 -3.33498 2.27629)
(-2.0437e-15 -5.31544 3.26196)
(-2.91593e-15 -5.77623 5.25097)
(-2.89838e-15 -6.0895 6.74485)
(-2.31357e-15 -6.27265 6.89296)
(-2.00038e-15 -5.17999 5.66084)
(-2.74179e-15 -1.86269 2.77809)
(-4.52471e-15 1.9467 -0.642415)
(-2.17825e-15 3.74339 -2.43908)
(-7.89827e-16 3.449 -2.92745)
(-5.66041e-17 2.62881 4.24613)
(4.99098e-16 13.6536 21.5325)
(7.18477e-16 20.4007 31.8485)
(6.83336e-16 21.9469 33.7541)
(5.92039e-16 20.9056 31.4468)
(7.06252e-16 19.457 28.3667)
(8.14036e-16 18.0348 25.5939)
(8.60502e-16 16.8554 23.2395)
(8.4642e-16 15.757 21.094)
(8.37261e-16 14.6473 19.0199)
(8.02755e-16 13.4927 16.9591)
(7.64674e-16 12.2823 14.8997)
(7.10245e-16 11.0094 12.8544)
(5.97228e-16 9.67903 10.8325)
(3.47743e-16 8.27259 8.85495)
(-1.41658e-16 6.81626 6.91284)
(-8.68057e-16 5.22455 5.06653)
(-2.03696e-15 3.72265 3.3437)
(-3.54568e-15 1.66284 1.46597)
(-5.96603e-15 0.0950258 -1.47051)
(-4.62036e-17 8.62964 14.2398)
(-1.41328e-16 18.1295 27.6886)
(-1.6094e-17 20.6879 31.685)
(9.12916e-17 19.7622 30.6605)
(5.49176e-17 18.0771 28.5085)
(1.15142e-17 16.7299 26.6047)
(3.51813e-16 15.5051 24.8351)
(5.99776e-16 14.2292 22.8782)
(8.78457e-16 12.8151 20.7423)
(1.32031e-15 11.3181 18.4751)
(1.85312e-15 9.73734 16.1207)
(2.62306e-15 8.07609 13.6682)
(3.81381e-15 6.31682 11.115)
(5.2297e-15 4.45329 8.44871)
(5.69279e-15 2.52175 5.6697)
(4.79186e-15 0.547114 2.67149)
(3.94553e-15 -1.53699 -0.493432)
(4.42673e-15 -2.77535 -2.59834)
(-1.12466e-15 -3.77651 -4.0604)
(-5.00872e-15 -2.51043 -5.20365)
(4.22068e-17 14.1313 24.5816)
(-6.27284e-16 20.637 33.9336)
(-5.73487e-16 18.3743 30.7657)
(-5.19615e-16 16.0098 27.3518)
(-7.37217e-16 14.64 25.8362)
(-1.42143e-15 13.5456 24.4698)
(-8.69091e-16 12.0863 22.6373)
(-6.85722e-16 10.4764 20.4442)
(-2.59396e-16 8.74999 18.1366)
(4.52045e-16 7.0044 15.7651)
(1.32656e-15 5.21252 13.351)
(2.75275e-15 3.39619 10.8805)
(4.85162e-15 1.59774 8.42307)
(6.20791e-15 -0.0746823 6.10207)
(4.50312e-15 -1.53444 3.9872)
(-1.78965e-16 -2.71102 2.02409)
(-5.06255e-15 -3.37411 0.360168)
(-7.76159e-15 -2.92162 -0.0919076)
(-7.26383e-15 -0.85506 1.67752)
(-3.12949e-15 1.29307 3.87336)
(-1.72852e-18 13.8552 24.4239)
(8.97663e-17 17.0922 30.1458)
(6.08718e-17 14.3449 26.0748)
(2.71356e-17 12.889 23.8811)
(-3.60503e-16 11.7254 22.5856)
(-1.63922e-15 10.4889 21.0375)
(-1.08977e-15 8.98436 19.19)
(-1.1079e-15 7.39554 17.0662)
(-8.34303e-16 5.70839 14.793)
(-4.10335e-16 3.99971 12.4157)
(2.39643e-16 2.29444 10.0313)
(1.17133e-15 0.686356 7.74746)
(2.50968e-15 -0.67589 5.77511)
(3.18588e-15 -1.52162 4.47221)
(1.54069e-15 -1.4961 4.32821)
(-1.75467e-15 -0.267059 5.82484)
(-3.99289e-15 2.31081 9.13533)
(-3.41353e-15 5.8132 13.4366)
(-1.54028e-15 8.6791 16.2765)
(-4.3928e-16 6.74112 13.1152)
(-6.25925e-19 11.5978 20.3784)
(-2.80313e-18 16.8207 29.7933)
(3.30479e-18 15.2139 26.6328)
(6.58189e-18 13.32 23.0459)
(4.91958e-17 11.848 20.6677)
(1.79184e-16 10.7934 18.8184)
(7.94867e-17 9.71229 17.1351)
(2.45602e-17 8.6714 15.2969)
(-1.86531e-17 7.57161 13.3521)
(-2.40593e-17 6.51338 11.3161)
(-8.92109e-17 5.55512 9.35186)
(-5.82461e-16 4.86076 7.71161)
(-1.63245e-15 4.60864 6.75639)
(-2.77817e-15 4.78923 6.68899)
(-3.28964e-15 5.56747 7.7647)
(-2.68838e-15 6.89605 9.90819)
(-1.17324e-15 8.53297 12.6691)
(5.75181e-16 9.74378 15.2719)
(1.49995e-15 10.0748 15.9643)
(8.05463e-16 7.2281 12.8247)
(1.20134e-19 10.731 18.6094)
(-1.5361e-18 17.8801 30.9682)
(-2.48674e-18 16.4045 28.3635)
(-2.56767e-18 14.3635 24.2393)
(-5.08785e-19 12.8187 21.645)
(5.62719e-19 11.9744 19.7412)
(1.2307e-17 11.1848 18.2678)
(2.43351e-17 10.5428 16.8336)
(3.14117e-17 9.91176 15.4485)
(2.68182e-17 9.33474 14.0581)
(1.98203e-17 8.79221 12.6471)
(4.68479e-17 8.27029 11.199)
(1.18217e-16 7.77162 9.75523)
(1.72568e-16 7.33771 8.4931)
(1.20425e-16 7.05956 7.68149)
(1.99842e-17 7.00399 7.62877)
(7.88398e-17 7.17987 8.36516)
(3.57634e-16 7.29047 9.45598)
(4.81907e-16 6.78719 9.78963)
(1.02031e-16 4.59767 7.13238)
(-1.74267e-20 11.007 18.9275)
(4.16524e-19 18.6722 31.6196)
(5.25132e-19 17.0821 29.3405)
(4.6972e-19 15.1235 25.2036)
(-1.06808e-18 13.5947 22.7921)
(-4.42322e-18 12.8189 20.928)
(-5.68355e-18 12.0075 19.4244)
(-6.4625e-18 11.3105 17.9286)
(-5.98226e-18 10.6014 16.5013)
(-3.55232e-18 9.92383 15.1238)
(-1.55414e-18 9.27047 13.7992)
(-4.71801e-18 8.63658 12.5167)
(-1.09919e-17 8.01392 11.2522)
(-7.97095e-18 7.39227 9.98817)
(1.93977e-17 6.75979 8.75043)
(7.27986e-17 6.14604 7.61763)
(1.39536e-16 5.50933 6.72944)
(1.76242e-16 4.90137 6.00434)
(9.81421e-17 3.76496 5.11095)
(-5.08131e-17 1.73905 1.59115)
(-2.50302e-21 12.1247 20.8966)
(-4.10071e-20 19.5819 32.5054)
(-3.62178e-20 17.3981 29.788)
(-1.27539e-20 15.6477 25.7383)
(3.11349e-19 14.1339 23.6239)
(1.03658e-18 13.4555 21.8013)
(1.0637e-18 12.5806 20.3071)
(8.4878e-19 11.8578 18.7391)
(3.35708e-19 11.0852 17.2362)
(-5.29843e-19 10.3332 15.7343)
(-1.14299e-18 9.56774 14.2472)
(-6.0636e-19 8.78544 12.7717)
(6.06775e-19 7.97931 11.3157)
(1.69972e-19 7.15291 9.87517)
(-4.71104e-18 6.27804 8.44689)
(-1.5848e-17 5.37524 6.98628)
(-3.61521e-17 4.32124 5.49106)
(-7.24642e-17 3.22354 3.76285)
(-1.2007e-16 1.36041 1.63525)
(-1.70687e-16 -0.202596 -2.12942)
(2.9011e-21 14.1162 24.6427)
(-9.96051e-21 20.4462 33.3177)
(-2.09281e-20 17.314 29.8995)
(-2.89405e-20 16.2008 26.3307)
(-6.88671e-20 14.7011 24.6539)
(-1.27295e-19 14.211 22.8219)
(-5.35295e-20 13.2675 21.376)
(6.32255e-20 12.6283 19.7838)
(2.25242e-19 11.8626 18.2907)
(4.45217e-19 11.1308 16.714)
(6.17746e-19 10.3167 15.0754)
(5.88625e-19 9.42588 13.3414)
(4.14661e-19 8.43604 11.5328)
(4.49775e-19 7.36044 9.66465)
(1.09904e-18 6.18152 7.76901)
(2.59077e-18 4.93988 5.81764)
(5.53219e-18 3.5082 3.81949)
(1.06335e-17 2.00339 1.45219)
(2.54211e-17 -0.380153 -1.20015)
(-1.04436e-16 -1.61533 -5.00462)
(-1.23225e-21 16.2475 29.1373)
(7.03275e-21 20.5499 33.1885)
(1.23202e-20 16.7781 29.8369)
(1.48927e-20 16.6108 27.0706)
(1.64509e-20 14.9617 25.8302)
(1.63519e-22 14.7335 23.9825)
(-4.0166e-20 13.6589 22.713)
(-8.06471e-20 13.2076 21.1724)
(-1.20203e-19 12.4162 19.7878)
(-1.62619e-19 11.7291 18.1485)
(-1.94336e-19 10.7992 16.3368)
(-2.01396e-19 9.72482 14.2511)
(-2.0018e-19 8.44721 11.9888)
(-2.37683e-19 7.04713 9.61059)
(-3.5332e-19 5.51957 7.17468)
(-5.36928e-19 3.89039 4.63453)
(-7.16587e-19 2.08202 2.14344)
(-1.35671e-18 0.30352 -0.747317)
(1.92094e-17 -2.31276 -3.57744)
(-3.68303e-17 -2.9142 -7.36996)
(3.80962e-22 17.3596 32.0809)
(-2.79497e-21 19.376 31.491)
(-4.51787e-21 15.93 29.498)
(-5.27598e-21 16.2998 27.2984)
(-4.65561e-21 14.3638 26.2788)
(4.91996e-21 14.2469 24.4782)
(1.85084e-20 12.9504 23.4623)
(2.9972e-20 12.5838 22.0379)
(4.31297e-20 11.5727 20.8144)
(6.33281e-20 10.7628 19.0762)
(8.3306e-20 9.41691 16.9704)
(8.4151e-20 7.87366 14.2873)
(6.41387e-20 6.04323 11.3832)
(4.57619e-20 4.20208 8.42178)
(-1.24991e-20 2.32056 5.38878)
(-1.46903e-19 0.174499 2.07718)
(-8.28635e-19 -1.73522 -0.842689)
(-1.20129e-18 -2.05028 -2.45899)
(6.10029e-18 -4.79475 -5.59962)
(3.3437e-18 -3.95159 -7.95271)
(-9.26717e-23 16.8221 31.6025)
(9.99933e-22 17.8895 29.4626)
(1.52586e-21 15.0781 28.3963)
(1.75069e-21 15.2035 26.1935)
(7.26462e-22 13.248 25.164)
(-3.99302e-21 12.9022 23.4379)
(-9.16053e-21 11.5445 22.421)
(-1.16022e-20 10.9292 21.0689)
(-7.29464e-21 9.7684 19.8386)
(5.68196e-21 8.67419 18.0659)
(1.24029e-20 7.04093 15.7501)
(-1.95633e-20 5.18993 12.8177)
(-9.46471e-20 3.20764 9.79689)
(-1.77261e-19 1.37292 6.94548)
(-2.29708e-19 -0.336464 4.30026)
(2.44829e-19 -1.86571 1.85142)
(2.68451e-18 -3.32054 -0.721255)
(7.40985e-18 -4.23475 -2.94568)
(1.15189e-17 -3.38683 -2.61607)
(8.66623e-18 -0.587299 0.573242)
(1.33158e-23 15.7046 29.6412)
(-3.21842e-22 17.4481 28.4091)
(-4.79995e-22 14.2344 26.9652)
(-5.57649e-22 14.5059 24.4474)
(-1.02992e-22 12.3206 23.4611)
(1.30528e-21 12.0141 21.48)
(2.29537e-21 10.4639 20.3323)
(3.25157e-21 9.74268 18.7954)
(7.66123e-21 8.50233 17.52)
(1.79736e-20 7.40441 15.8781)
(2.13983e-20 5.92232 13.8403)
(-2.14605e-20 4.30209 11.2571)
(-1.37762e-19 2.63549 8.50441)
(-1.96373e-19 1.1751 5.91589)
(2.05656e-19 0.0202188 3.73649)
(1.38436e-18 -0.444076 2.62528)
(2.80293e-18 0.458001 3.67896)
(3.08668e-18 2.92835 6.90848)
(1.37393e-18 5.70334 10.3151)
(-9.42469e-19 4.97471 9.86378)
(-1.88894e-24 15.4027 29.2462)
(9.22892e-23 17.9503 28.2827)
(1.33471e-22 14.2562 26.7631)
(1.55006e-22 15.0422 23.8538)
(2.07516e-23 12.6838 22.9306)
(-4.04323e-22 12.69 20.6611)
(-7.47917e-22 11.136 19.3605)
(-1.04366e-21 10.5593 17.5388)
(-1.62054e-21 9.4589 16.083)
(-2.08107e-21 8.66671 14.5325)
(-9.18354e-22 7.76871 13.0736)
(1.09377e-22 6.95447 11.5312)
(-1.16416e-20 6.1544 9.92235)
(-5.92675e-20 5.45072 8.32488)
(-1.64864e-19 4.9112 6.9211)
(-3.13496e-19 4.65762 6.02178)
(-4.66886e-19 4.83098 5.87825)
(-6.68774e-19 5.08117 6.46056)
(-9.68734e-19 5.12468 6.87296)
(-8.26874e-19 3.68041 5.69746)
(1.9846e-26 15.7021 30.119)
(-2.46633e-23 18.6317 29.0075)
(-3.29585e-23 14.7337 27.5829)
(-3.54786e-23 15.6471 24.6953)
(5.18226e-25 13.4317 23.7084)
(1.10484e-22 13.3836 21.5844)
(2.06875e-22 12.1138 20.2147)
(2.53099e-22 11.5218 18.5172)
(1.71028e-22 10.6735 17.0166)
(-4.09351e-22 9.95476 15.4917)
(-1.87965e-21 9.244 14.0301)
(-3.23528e-21 8.57846 12.6294)
(-1.07555e-21 7.94841 11.2691)
(8.1755e-21 7.30905 9.88629)
(2.3624e-20 6.59557 8.41101)
(3.67159e-20 5.7514 6.79895)
(3.96446e-20 4.72508 5.15075)
(3.88854e-20 3.6249 3.50239)
(7.13117e-20 2.00754 1.79928)
(9.73477e-20 0.521313 -0.84711)
(-1.57089e-25 16.0216 31.3982)
(6.44354e-24 19.0017 29.192)
(1.1823e-23 14.9147 28.3206)
(1.99696e-23 16.1436 25.4904)
(2.43509e-23 13.81 24.566)
(1.50541e-23 13.8654 22.5039)
(-9.0876e-24 12.6128 21.2008)
(-9.10585e-23 12.0942 19.5852)
(-2.66473e-22 11.3045 18.1824)
(-4.2634e-22 10.6672 16.7442)
(-3.04607e-22 10.0102 15.3372)
(2.16539e-22 9.35221 13.8887)
(9.0436e-22 8.62755 12.3468)
(1.64379e-21 7.77309 10.6228)
(3.25618e-21 6.67116 8.63956)
(7.76929e-21 5.30269 6.35603)
(1.51528e-20 3.69449 4.07411)
(2.8761e-20 2.05387 1.51126)
(3.55275e-20 -0.422462 -1.27437)
(1.11537e-19 -1.57195 -4.97088)
(-1.88475e-25 15.76 31.8982)
(-1.38604e-24 18.7917 28.7262)
(2.08224e-24 14.5556 28.4571)
(1.2987e-23 15.8768 25.7537)
(3.55283e-23 13.5201 24.9054)
(6.30681e-23 13.534 23.0017)
(4.57485e-23 12.2972 21.8088)
(-1.02308e-22 11.8089 20.3346)
(-4.22895e-22 11.0367 19.0848)
(-7.40882e-22 10.4653 17.8027)
(-5.09216e-22 9.85614 16.5574)
(9.82407e-22 9.23254 15.2038)
(3.84433e-21 8.4404 13.5754)
(7.31458e-21 7.28901 11.3646)
(1.16114e-20 5.51193 8.27608)
(1.87686e-20 3.25465 4.54513)
(2.10532e-20 1.10208 1.61159)
(1.72977e-20 -0.455694 -1.23815)
(4.15225e-20 -3.01275 -3.57054)
(3.77456e-20 -3.00519 -7.67116)
(-1.40763e-25 14.4442 31.0742)
(5.88826e-25 18.1887 27.9683)
(4.55346e-24 13.5496 27.8462)
(1.6265e-23 14.4348 25.5313)
(3.72323e-23 12.382 24.6113)
(5.3584e-23 11.9136 23.059)
(1.08257e-23 10.8206 21.8843)
(-1.7674e-22 10.1012 20.6208)
(-5.08004e-22 9.31547 19.4715)
(-6.82934e-22 8.63847 18.3364)
(-5.25465e-23 7.95597 17.1936)
(1.83947e-21 7.21659 15.8812)
(4.38198e-21 6.23485 14.1064)
(7.03506e-21 4.72174 11.3395)
(1.38603e-20 2.39901 7.06665)
(2.94647e-20 -0.306268 1.90184)
(3.72853e-20 -2.0955 -1.86328)
(1.86714e-20 -2.90372 -3.67641)
(-1.92995e-21 -3.99187 -5.2982)
(-1.93241e-20 -2.93448 -5.44561)
(-8.14587e-26 11.2502 28.5686)
(-1.06612e-25 16.9216 24.9789)
(1.7498e-24 11.9429 25.3837)
(8.68281e-24 12.5389 23.7056)
(2.29617e-23 10.7851 22.9862)
(3.73261e-23 10.0832 21.9269)
(1.86292e-23 9.05365 21.0425)
(-9.01499e-23 8.23726 20.1255)
(-3.12716e-22 7.42175 19.2529)
(-5.34345e-22 6.68189 18.3887)
(-4.78799e-22 5.97144 17.5175)
(5.75505e-23 5.26926 16.5686)
(7.81988e-22 4.52889 15.4384)
(8.07233e-22 3.73046 14.0139)
(-5.33474e-22 2.91324 12.2032)
(-2.56344e-21 2.15726 9.96998)
(-4.4833e-21 1.48048 7.39645)
(-8.32091e-21 0.752334 4.46428)
(-1.50806e-20 -0.294239 1.02055)
(-1.60092e-20 -0.881444 -1.25787)
(-4.04151e-27 2.58811 17.042)
(-1.59101e-26 8.0395 13.6322)
(3.9243e-26 5.16376 14.4882)
(8.07459e-25 4.984 14.0937)
(3.97398e-24 4.06545 14.0523)
(1.15951e-23 3.50509 13.8767)
(2.02392e-23 2.9319 13.7174)
(8.28809e-24 2.46264 13.5262)
(-7.47547e-23 2.05527 13.3196)
(-2.91766e-22 1.72505 13.1004)
(-6.53475e-22 1.47348 12.8822)
(-1.03654e-21 1.3093 12.6766)
(-1.1882e-21 1.2352 12.4837)
(-9.03994e-22 1.25538 12.2745)
(-2.70556e-22 1.37348 11.993)
(3.38563e-22 1.54569 11.6062)
(6.40155e-22 1.79271 11.0571)
(7.10749e-22 2.40725 10.0698)
(6.4296e-22 2.5963 8.62783)
(2.87485e-22 -0.212342 6.53023)
(2.24025e-27 -2.58806 17.0419)
(2.52365e-26 -8.03948 13.6321)
(2.77201e-26 -5.16375 14.488)
(-6.32369e-25 -4.98402 14.0935)
(-3.7976e-24 -4.06548 14.0521)
(-1.19681e-23 -3.50514 13.8765)
(-2.21901e-23 -2.93198 13.7172)
(-1.19204e-23 -2.46274 13.5259)
(7.4474e-23 -2.0554 13.3194)
(3.10993e-22 -1.72523 13.1002)
(7.21258e-22 -1.47373 12.8821)
(1.18419e-21 -1.30962 12.6766)
(1.42615e-21 -1.23555 12.4837)
(1.20206e-21 -1.25569 12.2743)
(5.63911e-22 -1.37366 11.9926)
(-1.15767e-22 -1.54572 11.6056)
(-5.21032e-22 -1.79257 11.0564)
(-6.87604e-22 -2.407 10.0692)
(-6.7585e-22 -2.59607 8.62736)
(-3.14694e-22 0.212467 6.52994)
(7.86863e-26 -11.2501 28.5682)
(1.42985e-25 -16.9214 24.9786)
(-1.60979e-24 -11.9427 25.3833)
(-8.57023e-24 -12.5387 23.7053)
(-2.35746e-23 -10.7849 22.9859)
(-3.99141e-23 -10.0829 21.9266)
(-2.33257e-23 -9.05331 21.0422)
(8.83171e-23 -8.23687 20.1251)
(3.26055e-22 -7.42131 19.2526)
(5.71622e-22 -6.6814 18.3884)
(5.14723e-22 -5.97087 17.5172)
(-1.12984e-22 -5.26859 16.5682)
(-1.06988e-21 -4.52823 15.438)
(-1.4389e-21 -3.73015 14.0138)
(-4.16539e-22 -2.91371 12.2038)
(1.5222e-21 -2.15863 9.97172)
(3.76275e-21 -1.48228 7.39919)
(8.38244e-21 -0.753997 4.46687)
(1.61498e-20 0.292738 1.02254)
(1.73878e-20 0.880321 -1.25587)
(1.43452e-25 -14.4442 31.074)
(-5.78621e-25 -18.1884 27.9683)
(-4.59968e-24 -13.5495 27.8462)
(-1.69938e-23 -14.4345 25.5314)
(-3.9903e-23 -12.3818 24.6115)
(-5.9549e-23 -11.9132 23.0593)
(-1.90793e-23 -10.8202 21.8846)
(1.74969e-22 -10.1007 20.6213)
(5.30706e-22 -9.31494 19.4721)
(7.34537e-22 -8.63782 18.3372)
(6.0167e-23 -7.95509 17.1942)
(-2.10576e-21 -7.21521 15.8812)
(-5.32029e-21 -6.23249 14.105)
(-9.041e-21 -4.7179 11.3356)
(-1.69104e-20 -2.39442 7.06111)
(-3.27098e-20 0.308679 1.89949)
(-3.95211e-20 2.09521 -1.86115)
(-1.961e-20 2.90474 -3.67721)
(1.81232e-21 3.99297 -5.29943)
(1.8111e-20 2.9346 -5.44437)
(1.88726e-25 -15.7605 31.899)
(1.7008e-24 -18.7918 28.727)
(-1.79166e-24 -14.5561 28.458)