/*--------------------------------*- C++ -*----------------------------------*\
| =========                 |                                                 |
| \\      /  F ield         | OpenFOAM: The Open Source CFD Toolbox           |
|  \\    /   O peration     | Version:  4.1                                   |
|   \\  /    A nd           | Web:      www.OpenFOAM.org                      |
|    \\/     M anipulation  |                                                 |
\*---------------------------------------------------------------------------*/
FoamFile
{
    version     2.0;
    format      ascii;
    class       volScalarField;
    location    "23";
    object      p;
}
// * * * * * * * * * * * * * * * * * * * * * * * * * * * * * * * * * * * * * //

dimensions      [0 2 -2 0 0 0 0];

internalField   nonuniform List<scalar> 
1280
(
-65.1264
-39.4684
-81.135
-152.09
-86.2278
-168.523
-241.182
-259.221
-229.027
-312.997
-461.78
-372.975
-516.339
-763.415
-639.379
-904.356
-1325.99
-1206.89
-1374.55
-2580.6
-1713.92
-21.3158
1647.42
2497.21
2560.96
3253.69
-536.66
280.597
583.842
256.168
79.9287
-106.249
-336.282
-588.172
-852.262
-1139.54
-1419.65
-1750.65
-2015.05
-2572.03
-2910.1
-1840.21
-1326.87
-959.074
958.233
311.255
422.694
463.492
563.053
515.295
498.857
428.892
489.042
433.168
293.504
882.405
-527.458
-697.947
-1361.36
-3973
-59.3034
488.82
559.565
717.247
778.985
873.944
946.449
1022.52
1080.42
1119.47
1155.59
1273.85
1195.07
-846.881
3209.67
2523.53
2524.64
2028.32
1076.56
-331.151
-1318.01
-182.67
-9.8127
179.532
299.77
515.225
554.909
577.733
617.538
634.848
608.97
587.388
557.734
480.206
443.368
406.861
301.578
139.99
39.4942
129.366
-62.6922
-31.1005
7.63531
105.442
281.461
515.899
25.6296
41.3047
-32.5858
-158.153
-539.008
-414.404
-151.592
-25.9491
96.6958
122.203
86.5254
63.7932
100.141
-52.6941
57.0342
165.422
352.684
647.152
1107.88
366.616
174.865
-146.204
-477.182
-815.081
-561.791
0.560094
258.849
406.356
354.813
229.943
189.324
240.442
-23.7643
96.5031
220.786
434.248
764.559
1284.54
575.818
239.362
-147.052
-781.858
-893.694
-693.27
56.9573
388.957
588.757
534.089
365.847
274.162
375.743
-12.5511
125.55
273.379
523.245
922.451
1350.9
768.762
324.722
-162.769
-933.502
-866.496
-856.848
102.915
530.828
791.226
729.384
511.27
381.756
492.43
-3.75856
152.479
321.833
607.8
1118.5
1346.45
873.839
374.327
-117.161
-834.088
-978.137
-1053.27
159.685
681.691
978.004
910.678
611.146
402.733
576.202
-0.196327
166.598
351.293
664.672
1307.85
1318.54
952.68
411.37
-131.552
-984.509
-1717.18
-1082.55
174.451
795.281
1136.89
1074.37
749.05
558.509
633.899
-4.17172
166.684
364.023
687.085
1389.05
1271.02
1003.54
434.375
-99.8034
-1064.25
-1819.46
-959.056
207.339
869.525
1248.91
1169.81
711.416
436.854
375.82
-15.8354
150.622
358.283
670.715
1327.8
1188.21
989.429
408.593
-28.6027
-799.072
-1539.17
-863.777
175.955
870.308
1313.73
1373.14
1026.21
832.513
1168.07
-34.5344
116.612
332
616.528
1161.81
1043.46
862.195
317.826
-66.0922
-627.603
-1102.85
-580.731
172.107
799.86
1182.99
1258.12
1012.04
1369.14
5057.19
-56.1357
66.1774
287.505
538.533
979.55
869.213
660.096
197.963
-105.264
-474.008
-706.272
-236.874
321.332
772.471
1011.25
1104.22
988.774
1245.95
3698.84
-74.1947
4.92217
230.157
443.827
784.907
636.279
358.05
-0.247009
-208.686
-394.163
-418.528
-12.6851
424.368
764.482
905.5
931.534
696.245
1082.29
3974.22
-83.4083
-58.5836
166.895
341.726
595.222
388.19
18.646
-207.034
-291.336
-340.348
-250.351
155.792
453.352
713.123
889.491
869.673
467.929
926.098
4636.13
-83.2879
-114.2
107.644
246.629
429.995
162.641
-268.102
-331.124
-308.713
-268.41
-141.028
260.649
484.639
636.183
798.837
651.083
-68.0736
-255.6
471.376
-78.5902
-158.009
57.0329
166.244
299.41
-9.18702
-417.804
-372.667
-270.176
-198.937
-89.7852
256.042
443.745
538.341
603.866
308.821
-514.13
-878.067
-352.169
-71.5566
-180.342
23.9574
114.071
214.87
-123.687
-408.527
-385.292
-193.898
-142.998
-35.4135
222.912
338.849
368.372
402.555
193.066
-293.691
-554.589
-79.0935
-86.3562
-182.176
6.27009
91.0545
164.376
-169.727
-187.267
-375.565
-176.204
-125.219
-18.1352
178.519
289.34
270.43
253.402
104.292
-231.991
-436.765
-134.197
-59.1355
-86.9767
65.5938
131.59
143.226
-199.248
-133.891
-294.303
-160.085
-114.1
-23.8528
136.953
241.979
201.457
150.155
27.5262
-127.852
-264.257
-68.7476
-47.1634
-30.3193
113.482
153.896
105.196
-122.113
-182.878
-202.165
-123.62
-90.2141
-9.07319
104.595
178.331
143.845
89.2959
10.5968
-66.1618
-170.312
-65.9763
73.4482
81.6254
167.257
149.46
62.9164
-7.11359
-166.826
-149.175
-101.416
-78.6968
-10.9461
72.3612
121.931
92.743
49.1019
7.95557
-29.6794
-85.5115
-38.0923
-19.0211
-64.6022
19.2212
7.3466
-23.4495
0.274844
-71.0634
-87.1348
-103.158
-89.0766
-30.8337
26.8113
52.7589
34.2385
16.8113
2.63024
-7.77895
-28.8457
-5.87377
368.045
740.306
956.109
1119.82
1182.47
1204.67
1146.16
1090.7
1060.1
1064.41
1094.21
1155.62
1244.71
1360.63
1497.3
1661.11
1834.23
2053.81
2231.04
2512.39
-6729.51
-6862.01
-6982.32
-7180.85
-7312.13
-7487.31
-7620.73
-7739.2
-7804.67
-7820.42
-7771.49
-7654.13
-7468.61
-7215.2
-6914.17
-6571.54
-6233.72
-5852.94
-5552.12
-5059.86
-1571.34
-2207.05
-2505.32
-3012.08
-3440.23
-3941.92
-4422.73
-4921.19
-5396.9
-5854.76
-6273.23
-6643.06
-6947.16
-7168.23
-7293.34
-7329.08
-7287.61
-7197.85
-7205.51
-7140.44
2941.96
2499.86
2318.96
2011.99
1758.08
1457.19
1174.48
887.976
622.09
373.725
155.548
-28.949
-172.529
-272.962
-325.628
-339.836
-319.277
-199.766
-138.825
-541.684
6650.48
6642.81
6619.87
6620.1
6581.38
6517.08
6402
6236.2
6004.89
5696.74
5303.04
4820.13
4263.71
3674.84
3129.56
2713.02
2459.5
2340.41
2376.01
2140.26
4068.42
4240.96
4322.12
4467.18
4583.56
4723
4861.4
5001.08
5133.42
5243.71
5318.64
5333.96
5272.08
5123.18
4910.93
4680.91
4538.32
4479.08
4504.43
4440.78
3516.29
3654.52
3693.58
3778.55
3831.75
3891.56
3952.05
4003.04
4058.53
4109.21
4165.57
4227.84
4299.36
4378.73
4463.69
4551.5
4635.1
4723.95
4777.86
4853.6
1617.91
1805.29
1880.39
1985.09
2079.69
2166.84
2272.19
2357.3
2455.04
2543.42
2633.57
2722.01
2809.79
2900.4
2991.27
3091.36
3186.71
3301.7
3379.61
3504.46
199.264
396.769
506.45
587.977
716.397
801.661
941.616
1037.03
1160.92
1269.34
1383.71
1496.47
1608.79
1724.31
1837.56
1959.34
2070.54
2199.84
2288.63
2424.1
-2300.61
-2180.82
-2038.59
-2004.3
-1835.14
-1786.64
-1620.62
-1536.35
-1394.22
-1281.42
-1151.07
-1024.07
-892.819
-755.42
-616.737
-458.857
-306.075
-101.686
71.0685
357.128
-3776.13
-4012.92
-3988.71
-4180.39
-4187.1
-4375.26
-4417.99
-4573.66
-4644.08
-4752.93
-4798.73
-4818.58
-4782.42
-4707.35
-4600.1
-4460.17
-4317.08
-4135.42
-4001.45
-3691.88
-755.16
-1187.9
-1259.39
-1620.83
-1765.85
-2113.09
-2327.45
-2672.19
-2952.47
-3301.81
-3603.8
-3901.84
-4136.57
-4321.97
-4434.09
-4482.9
-4465.67
-4408.43
-4426.36
-4402.96
3209.56
2984.43
3017.56
2800.44
2842.68
2657.67
2665.81
2525.91
2493.15
2387.65
2324.54
2224.77
2120.67
1976.38
1805.17
1606.82
1411.02
1319.96
1289.15
949.74
3440.1
3467.02
3591.33
3510.47
3690.85
3609.54
3749.53
3706.26
3771.76
3738.75
3729.06
3674.57
3618.63
3550.77
3488.54
3440.07
3409.07
3362.56
3357.73
3258.4
1965.11
2051.06
2286.91
2235.12
2536.54
2512.88
2756.27
2814.15
2986.81
3090.77
3216.58
3306.74
3373.13
3399.31
3397.39
3395.5
3434.26
3533.34
3617.03
3701.12
-94.2324
-154.035
100.868
-71.0515
241.447
146.028
372.492
412.838
574.833
696.093
849.612
1007.3
1174.55
1351
1528.99
1716.6
1895.21
2103.56
2242.24
2467.99
-154.216
-433.427
-298.373
-764.023
-679.876
-1039.57
-1102.03
-1331.76
-1453.46
-1606.57
-1719.78
-1821.7
-1900.32
-1952.39
-1977.31
-1943.87
-1864.65
-1686.56
-1536.68
-1304.88
1211.6
714.346
1239.55
608.973
742.581
349.794
198.862
-111.584
-369.652
-671.329
-965.271
-1272.22
-1579.72
-1885.47
-2171.92
-2396.45
-2540.82
-2515.64
-2500.42
-2413.85
1109.95
-587.545
164.731
-804.367
-877.753
-1414.5
-1719.85
-2099.92
-2399.23
-2672.05
-2882.94
-3035.72
-3119.41
-3129.18
-3054.77
-2897.81
-2643.19
-2281.42
-2028.3
-1847.64
53805.1
47300.6
43846.3
39514.1
35899.9
32324
29033.1
25905.2
22965.6
20183.8
17551.1
15052
12672.7
10400.9
8252.27
6206.47
4199.07
2567.27
940.679
-2006.54
57990
51487.4
48034.1
43703.2
40089.9
36514.8
33224.6
30097.2
27158
24376.3
21743.6
19244.1
16864.3
14591.9
12442.8
10396.3
8387.31
6751.45
5119.92
2171.13
5337.82
3640.68
4393.54
3424.92
3352.42
2816.35
2511.9
2132.57
1834.07
1561.97
1351.79
1199.64
1116.54
1107.62
1183.32
1340.87
1596.61
1957.35
2217.77
2396.83
5407.09
4909.03
5433.66
4801.82
4934.47
4540.53
4388.39
4076.83
3817.61
3514.94
3220.03
2912.25
2604.23
2298.52
2013.63
1790.13
1652.39
1677.68
1690.32
1776.89
4047.48
3761.18
3892.23
3424.25
3503.77
3140.94
3075.18
2842.19
2717.82
2561.87
2446.33
2342.06
2261.44
2207.56
2181.43
2213.63
2291.96
2470.45
2612.45
2841.52
3935.73
3876.78
4133.37
3961.71
4275.66
4180.57
4408.93
4450.18
4614.41
4737.27
4892.98
5052.43
5221.27
5399.01
5578.17
5767.82
5947.89
6157.94
6296.74
6527.02
6181
6259.88
6490.4
6433.16
6727.18
6699.4
6936.15
6991.39
7158.9
7260.68
7382.74
7472.47
7541.67
7579.61
7600.66
7635.69
7706.22
7818.72
7902.78
7996.74
7311.09
7326.9
7449.23
7327.03
7526.41
7441.2
7616.44
7606.78
7724.94
7746.88
7795.98
7805.8
7816.83
7814.04
7813.37
7813.96
7813.67
7777.53
7776.17
7725.08
7604.84
7303.96
7433.19
7177.19
7264.89
7167.61
7234.4
7218.18
7251.57
7224.24
7235.34
7208.72
7154.47
7046.2
6900.06
6722
6553.28
6471.98
6466.65
6233.52
5064.26
4769.66
4783.95
4657.75
4632.58
4552.44
4460.86
4316.46
4113.07
3835.76
3502.46
3163.3
2887.66
2689.38
2572.77
2528.7
2553.24
2595.72
2594.74
2573.59
2794.74
2758.24
2771.8
2738.51
2693.56
2623.21
2529.21
2412.13
2273.51
2135.24
2009.57
1934.37
1933.34
1985.62
2064.39
2162.08
2256.45
2368.38
2444.73
2640.91
3852.97
4040.98
4103.13
4157.29
4179.73
4201.86
4227.45
4269.81
4329.95
4414.8
4516.01
4617.42
4714.66
4808.52
4892.59
4985.66
5067.64
5195.51
5304.71
5528.01
5374.94
5579.78
5638.75
5724.63
5788.3
5862.95
5944.05
6039.82
6127.67
6212.88
6306.59
6404.87
6500.24
6596.9
6691.59
6793.74
6887.57
6996.05
7072.44
7174.51
6919.05
7043.39
7069.86
7118.45
7151.13
7192.37
7228.2
7281.25
7307.1
7299.1
7346.12
7423.8
7485.86
7547.77
7603
7659.93
7713.19
7780.26
7825.57
7893.95
7547.63
7674.6
7723.52
7815.6
7903.05
7999.17
8084.19
8178.75
8299.02
8410.53
8493.99
8520.39
8468
8368.75
8266.76
8215.62
8238.35
8299.19
8342.17
8353.56
9445.55
9436.28
9387.11
9363.74
9325.63
9284.59
9221.62
9107.63
8959.22
8778.32
8584.24
8382.38
8180.04
7996.95
7856.11
7775.83
7746.71
7710.27
7715.37
7568.57
7766.85
7411.4
7286.33
7093.27
6960.7
6819.7
6682.34
6530.53
6389.9
6260.78
6141.57
6017.57
5875.35
5712.17
5538.89
5373.98
5252.89
5229.11
5190.5
4741.46
2451.46
1942.88
1718.58
1304.02
921.006
450.771
-45.9556
-560.928
-1071.97
-1565.09
-2020.76
-2424.06
-2752.24
-2978.95
-3084.38
-3066.24
-2938.77
-2797.09
-2751.49
-2593
-676.988
-874.503
-992.94
-1218.15
-1417.03
-1655.55
-1854.57
-1972.75
-1997.61
-1943.73
-1812.06
-1601.88
-1317.19
-959.827
-552.927
-104.279
334.204
815.224
1132.65
1663.35
2425.32
2875.42
3082.25
3363.79
3635.92
3904.94
4181.9
4460.45
4743.49
5028.72
5315.21
5602.47
5885.34
6165.61
6432.9
6703.5
6941.34
7223.94
7394.59
7751.02
9726.67
10009.9
10071.1
10165.4
10164.8
10163
10101.1
10039.8
9977.29
9921.14
9871.13
9830.53
9798.66
9776.71
9764.2
9763.64
9769.56
9784.99
9796.22
9765.84
)
;

boundaryField
{
    outletWall
    {
        type            fixedValue;
        value           uniform 0;
    }
    fineWalls
    {
        type            zeroGradient;
    }
    fineFrontAndBack
    {
        type            zeroGradient;
    }
    fineplugLeft
    {
        type            cyclicAMI;
        value           nonuniform List<scalar> 
20
(
1495.51
1381.82
1292.92
1183.45
1100.98
1027.39
970.868
928.509
903.248
891.356
902.765
964.847
928.677
954.808
1614.48
1458.17
1395.29
1094.37
587.981
-48.347
)
;
    }
    fineplugRight
    {
        type            cyclicAMI;
        value           nonuniform List<scalar> 
20
(
7800.81
7934.74
7939.91
7959.09
7966.71
7986.15
8010.66
8043.43
8080.51
8120.8
8168.03
8236.6
8270.86
8856.25
8772.31
8636.58
8637.23
8462.52
8223.21
7715.1
)
;
    }
    inletOutletLeft
    {
        type            cyclicAMI;
        value           nonuniform List<scalar> 
20
(
1495.51
1381.82
1292.92
1183.45
1100.98
1027.39
970.868
928.509
903.248
891.356
902.765
964.847
928.677
954.808
1614.48
1458.17
1395.29
1094.37
587.981
-48.347
)
;
    }
    inletLeft
    {
        type            zeroGradient;
    }
    inletWallsLeft
    {
        type            zeroGradient;
    }
    inletFacesLeft
    {
        type            zeroGradient;
    }
    inletOutletRight
    {
        type            cyclicAMI;
        value           nonuniform List<scalar> 
20
(
7800.81
7934.74
7939.91
7959.09
7966.71
7986.15
8010.66
8043.43
8080.51
8120.8
8168.03
8236.6
8270.86
8856.25
8772.31
8636.58
8637.23
8462.52
8223.21
7715.1
)
;
    }
    inletRight
    {
        type            zeroGradient;
    }
    inletWallsRight
    {
        type            zeroGradient;
    }
    inletFacesRight
    {
        type            zeroGradient;
    }
}


// ************************************************************************* //
