/*--------------------------------*- C++ -*----------------------------------*\
| =========                 |                                                 |
| \\      /  F ield         | OpenFOAM: The Open Source CFD Toolbox           |
|  \\    /   O peration     | Version:  4.1                                   |
|   \\  /    A nd           | Web:      www.OpenFOAM.org                      |
|    \\/     M anipulation  |                                                 |
\*---------------------------------------------------------------------------*/
FoamFile
{
    version     2.0;
    format      ascii;
    class       volScalarField;
    location    "14";
    object      p;
}
// * * * * * * * * * * * * * * * * * * * * * * * * * * * * * * * * * * * * * //

dimensions      [0 2 -2 0 0 0 0];

internalField   nonuniform List<scalar> 
1680
(
-2.89303
-1.73036
-0.405654
-0.865453
-1.2574
-0.432235
-0.810683
-1.26614
-0.274141
-0.984285
-1.2502
-1.07981
-1.5964
-0.474744
-1.64382
-2.51064
-1.79142
-4.51728
0.959339
-8.32007
0.516372
-28.0179
1.90998
0.0330778
1.09365
2.53482
3.7019
4.7521
6.60873
7.08167
10.5321
-16.2536
1.38092
1.36705
2.50823
3.07633
4.43547
4.09923
8.41277
4.19195
-40.5382
-15.1083
-11.7426
7.09808
2.36513
2.87101
6.62114
15.3661
12.7219
13.2526
14.7402
14.8335
14.908
14.9628
14.5395
14.691
14.7728
14.8333
14.6784
14.7473
14.6055
23.0457
13.9415
23.9682
26.3827
28.583
25.8132
24.935
21.5617
20.2404
15.3582
12.6945
4.92974
-5.88
3.1687
3.62507
-10.9026
4.12551
18.9739
3.73403
19.1965
11.7245
22.263
24.6953
27.4752
25.5351
24.5975
21.0084
19.7768
15.1819
11.8319
4.93043
-4.11184
3.19165
2.82124
-5.4109
6.00537
15.3385
-10.9967
15.396
9.20686
20.4046
22.7845
26.2015
25.2654
24.2882
20.544
19.2695
15.0181
11.0713
5.1436
-2.63776
2.96464
2.31415
-1.75091
4.81489
15.7489
-29.4774
11.3792
6.36281
18.3546
20.8009
24.8263
24.9886
23.9799
20.173
18.8062
14.8828
10.4117
5.29875
-1.43378
2.74355
2.29685
0.352717
2.94024
21.6805
-51.6775
7.02592
3.51669
16.1408
19.0814
23.4361
24.6468
23.6171
19.8589
18.4138
14.7526
9.84132
5.35745
-0.498993
2.63241
2.27126
1.05108
1.59037
19.0054
-77.8813
2.18587
1.46107
13.8988
17.7751
22.0558
24.1235
23.1131
19.5168
18.0385
14.5616
9.34793
5.33722
0.210255
2.52417
2.17027
1.01202
1.44451
2.96864
-108.819
-3.37044
0.536883
11.6784
16.54
20.6755
23.3138
22.3716
19.12
17.6482
14.2341
8.89523
5.2333
0.719921
2.40366
2.03275
0.990746
1.19823
-0.402822
-144.73
-10.185
-0.0815214
9.36768
15.0647
19.2379
22.183
21.3237
18.6517
17.2298
13.7858
8.44269
5.05012
1.06229
2.26548
1.88321
0.959453
1.03991
-0.0421953
-187.883
-18.7025
-0.536338
7.02614
13.2651
17.6174
20.8005
20.0131
18.1157
16.727
13.1928
7.95494
4.80165
1.27517
2.12299
1.72575
0.919255
1.04869
0.140042
-236.571
-29.8367
-0.0973951
5.03789
11.253
15.8409
19.471
18.6883
17.601
16.0792
12.432
7.40439
4.50368
1.39293
1.97762
1.5704
0.894335
0.913735
0.167404
-300.089
-43.7862
1.2807
4.19788
9.016
14.0486
18.5997
17.7664
17.2295
15.3418
11.579
6.79493
4.16729
1.43729
1.826
1.42553
0.869695
0.876466
0.186371
-362.048
-63.4279
1.7713
5.27645
6.19289
12.2104
18.0886
17.3873
17.0991
14.7361
10.7016
6.1464
3.80588
1.42511
1.66782
1.2883
0.842484
0.801585
0.192928
-471.09
-88.3752
0.227928
7.77326
1.99846
9.70154
17.0519
17.0894
17.1868
14.3781
9.77907
5.44879
3.40506
1.35593
1.49799
1.15325
0.804255
0.722772
0.168843
-517.94
-127.164
-0.591139
12.154
-4.63349
5.23802
14.2212
16.1124
17.2742
14.1848
8.82772
4.77196
3.01063
1.26349
1.33055
1.02077
0.75973
0.647772
0.130329
-785.161
-157.912
2.07902
18.1684
-16.3249
-3.21517
8.48622
14.1339
16.7391
13.4156
7.54658
3.92448
2.49816
1.08199
1.12705
0.875682
0.708389
0.561119
0.0861273
-594.764
-218.808
-17.3442
5.09988
-39.9241
-17.9075
-0.748282
12.449
17.1085
12.8131
6.64216
3.43501
2.21003
1.01359
1.00109
0.75835
0.645397
0.420569
-0.0303927
-1651.9
-211.561
-7.38196
-25.095
-59.5356
-30.054
-12.1398
2.61507
12.2608
8.44769
3.91981
1.81005
1.23926
0.549533
0.635979
0.542781
0.547991
0.313705
-0.0720251
224.688
-359.827
253.933
-5.95566
-49.0675
-28.641
-16.2251
0.954455
16.2402
11.038
5.64745
3.0847
2.00236
1.03165
0.892868
0.613844
0.488404
0.325426
0.0584592
-5451.64
-230.192
-432.876
-61.4635
-82.7642
-36.6797
-16.864
-20.9996
-13.4787
-8.8911
-5.30732
-3.42733
-1.7758
-0.936125
-0.441647
-0.179525
0.269756
-0.0136657
-0.439285
8720.04
-887.234
-1553.1
-119.112
-127.634
-50.4413
-15.9815
19.2826
52.1717
35.7641
19.4003
11.2509
6.6699
3.55598
2.43468
1.57137
0.654492
-0.419601
-1.16168
102.17
101.508
101.149
100.245
99.333
98.36
97.3707
96.3502
95.3275
94.3145
93.2789
92.3352
91.2501
90.0532
88.976
87.9244
87.0069
86.0139
85.4005
84.1757
82.1062
82.5737
82.7594
82.986
83.1516
83.2592
83.3383
83.3615
83.362
83.3138
83.2481
83.148
83.0035
82.8333
82.6575
82.4531
82.2719
82.056
81.8791
81.6289
90.8571
90.5685
90.424
90.2216
90.062
89.8743
89.7044
89.5183
89.3404
89.1503
88.9661
88.7681
88.5821
88.3754
88.1851
87.9696
87.7858
87.5579
87.3997
87.1089
87.9312
87.9459
87.9543
87.9447
87.9495
87.9303
87.9212
87.8941
87.8721
87.8362
87.8033
87.7578
87.7167
87.6608
87.6154
87.5482
87.5027
87.4251
87.3808
87.2783
89.9647
89.8573
89.8194
89.7392
89.6901
89.6189
89.5644
89.4975
89.44
89.3745
89.3158
89.2496
89.1912
89.1222
89.0663
88.9921
88.9423
88.8592
88.8205
88.7121
90.0111
89.9577
89.9452
89.9004
89.8798
89.8391
89.8125
89.7739
89.7433
89.7051
89.6722
89.6328
89.5996
89.5572
89.5259
89.4782
89.4523
89.3958
89.3797
89.3065
90.8658
90.7945
90.7746
90.7195
90.6905
90.6424
90.6087
90.5646
90.5285
90.4863
90.4494
90.4076
90.3715
90.3282
90.2951
90.2476
90.2208
90.1653
90.1501
90.0788
91.3708
91.3106
91.2952
91.2476
91.224
91.1824
91.1542
91.1161
91.0852
91.049
91.017
90.9811
90.9496
90.9123
90.8835
90.8422
90.8194
90.7701
90.7583
90.6949
91.9904
91.9294
91.913
91.8653
91.8409
91.7995
91.7708
91.7331
91.702
91.6665
91.6344
91.5996
91.5681
91.5323
91.5035
91.4639
91.4411
91.3939
91.3821
91.3211
92.5334
92.4764
92.461
92.4162
92.3933
92.3543
92.3273
92.2919
92.2625
92.2292
92.1987
92.1663
92.136
92.1029
92.075
92.0384
92.0162
91.9722
91.9607
91.9032
93.0768
93.0218
93.0066
92.9634
92.9409
92.9034
92.877
92.843
92.8144
92.7825
92.7527
92.7219
92.6921
92.6609
92.6333
92.5989
92.5767
92.5352
92.5235
92.4685
93.5892
93.5369
93.5222
93.4811
93.4595
93.4238
93.3985
93.3661
93.3386
93.3083
93.2796
93.2506
93.2216
93.1925
93.1652
93.1335
93.1112
93.0725
93.0606
93.0084
94.0831
94.0333
94.0188
93.9796
93.9586
93.9245
93.9001
93.8691
93.8426
93.8138
93.786
93.7586
93.7303
93.7033
93.6761
93.647
93.6244
93.5886
93.5763
93.5269
94.5552
94.5081
94.4937
94.4564
94.4361
94.4035
94.38
94.3503
94.3249
94.2974
94.2705
94.2446
94.217
94.1919
94.1648
94.1383
94.1152
94.0824
94.0694
94.0228
95.0062
94.9622
94.9484
94.9133
94.894
94.863
94.8409
94.8128
94.7884
94.7624
94.7367
94.7122
94.6854
94.6621
94.635
94.6112
94.5872
94.5579
94.5436
94.5
95.4249
95.3843
95.3709
95.3383
95.3208
95.2918
95.2714
95.2458
95.2232
95.1995
95.1759
95.1534
95.1288
95.1078
95.0817
95.0616
95.0367
95.0118
94.9963
94.9568
95.8197
95.7824
95.7678
95.7355
95.7193
95.6909
95.6708
95.6465
95.6244
95.6019
95.5796
95.5582
95.5355
95.5162
95.4918
95.4758
95.4502
95.432
95.4162
95.382
96.2191
96.1918
96.1805
96.148
96.1351
96.1096
96.0899
96.0673
96.0452
96.0223
95.9988
95.9749
95.9498
95.9259
95.8977
95.8775
95.8434
95.8283
95.8022
95.7645
96.4931
96.4841
96.4992
96.4785
96.4787
96.4714
96.4667
96.4615
96.4558
96.4494
96.4418
96.4323
96.4203
96.4056
96.3853
96.3643
96.3258
96.3045
96.2325
96.1756
96.4585
96.4003
96.4384
96.449
96.4666
96.4843
96.5032
96.5239
96.5465
96.5716
96.5995
96.6305
96.6653
96.7041
96.7476
96.7966
96.8493
96.918
96.9593
97.1224
14.7905
14.6827
14.7247
14.7567
14.8161
14.7155
14.6033
14.3923
14.7856
15.1914
10.6444
12.4593
14.3939
1.82559
-1.50483
2.47335
7.28047
-18.5152
-11.9857
-25.9066
-5.18907
-3.46616
-11.3323
-16.7315
-21.5563
-24.6471
-26.126
-23.6474
-35.6163
-13.1783
-10.4098
-8.0514
-6.43485
-5.16028
-3.92747
-2.99612
-4.09175
-8.03859
-47.8462
-19.9628
-36.58
-11.6085
-35.5048
-25.1292
-31.1097
-23.4103
-12.6536
-25.6879
-18.1098
-20.1087
-15.3921
-10.7699
-17.8425
-14.6845
-15.6398
-20.2594
-20.2644
-20.7325
-20.6977
-20.7692
49.6916
30.1689
29.7323
41.1093
42.3483
41.9585
42.1753
40.6638
35.0548
30.9617
28.8036
33.2465
45.8288
61.2329
56.1221
4.85519
-71.2946
-70.7515
-32.9477
48.8375
28.0455
27.8675
40.8516
42.2523
41.7737
41.8198
40.094
34.2997
30.4288
28.4164
32.802
44.9682
60.1563
54.5598
2.4913
-76.0542
-76.2772
-35.0304
47.6564
24.5498
24.9607
41.9842
43.0728
42.0741
40.5697
38.304
33.3466
30.0041
27.7262
31.7703
43.2066
57.7611
51.3903
-1.55259
-82.3839
-85.3632
-39.417
46.4321
20.8152
22.6608
43.8015
43.7674
41.9118
38.9233
36.4275
32.3235
29.3808
26.6944
30.2003
40.592
54.1861
46.9842
-6.76947
-89.8446
-95.1907
-44.0564
45.4909
17.9576
20.6608
44.0537
43.6516
40.758
36.8587
34.4547
31.3411
28.7115
25.4198
28.2172
37.3169
49.6072
41.7487
-12.658
-97.236
-104.567
-48.7606
45.1155
16.4761
19.245
42.8797
42.6764
38.9793
34.4803
32.5477
30.4385
28.0883
24.0666
26.0627
33.6833
44.3419
36.1346
-18.6189
-103.895
-112.58
-54.3277
46.2374
15.7834
18.0876
40.9856
40.866
36.8499
32.0855
30.9436
29.7782
27.6756
22.827
23.9838
29.9558
38.6709
30.4376
-24.1458
-109.062
-118.542
-58.5787
49.5323
16.4742
17.2622
38.6788
38.4736
34.655
29.9735
29.837
29.438
27.5726
21.7932
22.0668
26.2669
32.8107
24.8908
-28.714
-112.315
-121.969
-61.4097
54.4198
20.0621
17.8506
36.3948
36.0752
32.6922
28.4438
29.3653
29.3922
27.6851
20.7992
20.2259
22.6682
26.9284
19.6955
-31.8125
-113.325
-122.606
-62.2688
58.2845
25.5594
19.9844
34.7166
34.0108
31.2053
27.716
29.2043
29.5709
27.7847
19.5947
18.4498
19.3106
21.2535
15.023
-33.1507
-111.556
-120.63
-60.1825
59.7278
30.8937
22.3242
33.4576
32.3738
30.3811
27.5958
29.1323
29.8146
27.8814
18.1248
16.8639
16.4886
16.0748
10.9805
-32.738
-107.219
-116.21
-57.3243
59.2489
34.9763
24.0652
32.3479
31.1782
30.0745
27.2653
29.2811
30.1219
27.9919
16.697
15.7388
14.4698
11.5417
7.53278
-30.6494
-101.094
-109.783
-50.3457
56.9926
37.6164
25.0304
31.3148
30.3428
29.9654
26.9289
29.5391
30.3916
27.9979
15.8315
15.3063
13.3165
7.41388
4.49961
-27.3476
-94.848
-102.012
-47.798
53.4712
38.9637
25.2633
30.318
29.8493
30.4408
26.9086
29.4868
30.3053
27.7961
15.766
15.3588
12.4919
3.13209
1.76089
-23.1961
-88.3458
-93.7595
-37.5515
49.3752
39.1396
24.8372
29.343
29.6446
30.7342
27.0976
29.0676
29.4257
26.9695
16.053
15.6159
11.016
-1.7007
-0.688891
-18.0392
-76.0031
-82.594
-32.2008
45.0863
38.227
23.8046
28.4274
30.0437
30.6581
27.2615
28.3137
27.8706
25.6972
16.0654
15.9065
8.74238
-6.75357
-2.54079
-12.6468
-59.9477
-63.382
-9.36055
40.5522
36.3144
22.1918
27.5486
30.5269
30.5691
27.0389
27.4758
26.2231
24.3353
15.8344
15.9476
5.9052
-10.6532
-2.79198
-7.33556
-43.8278
-41.7996
7.28372
35.6313
33.6457
20.1843
26.6479
29.8922
30.4643
26.7225
26.6638
24.6803
22.968
15.7235
15.4179
4.20278
-11.235
-0.958549
-2.62055
-30.7178
-21.6067
13.8759
30.0985
30.455
18.0695
26.0401
28.8612
30.1212
26.4131
25.9448
23.3521
21.7328
15.6435
14.5692
4.73091
-9.6255
0.984146
1.12775
-22.4449
-7.17303
15.4954
23.2481
26.971
16.0135
25.3386
27.7601
29.468
26.1038
25.3604
22.3109
20.8039
15.5186
13.6285
5.17568
-7.66247
2.53651
3.2903
-16.5931
0.875985
17.3074
729.356
647.16
598.253
542.366
493.655
446.671
402.978
361.695
322.808
286.02
251.152
218.014
186.413
156.296
127.734
99.9652
73.0051
50.665
25.6673
-10.264
47.9591
25.8528
34.1161
23.3301
20.8387
14.4304
9.7229
4.66077
0.295242
-3.6072
-6.78589
-9.16935
-10.5887
-10.8444
-9.74671
-7.53987
-4.55359
-0.408767
3.63263
4.96158
37.6334
30.196
38.2074
30.9664
32.8888
29.3407
27.9831
25.2973
22.9176
20.2326
17.5576
14.8804
12.3858
10.3154
8.85669
7.76694
6.91401
6.1661
4.65051
2.72034
17.8412
11.5457
12.8371
4.91263
3.87284
-2.05151
-5.32498
-10.0172
-13.9645
-18.1673
-22.1018
-25.9163
-29.3459
-32.1634
-34.1083
-35.424
-36.4205
-37.2451
-38.6413
-37.8908
-24.9405
-29.2012
-27.3048
-31.7342
-30.2429
-33.3335
-33.2813
-34.9588
-35.589
-36.5635
-37.2107
-37.7573
-38.0106
-37.8211
-37.0445
-35.7168
-34.4972
-32.9226
-31.688
-28.5334
-14.8408
-15.692
-12.1103
-13.839
-10.2389
-10.9555
-8.58712
-7.96641
-6.37776
-5.12776
-3.6958
-2.24844
-0.745688
0.868867
2.60525
4.62812
6.7425
9.39674
11.7715
15.306
15.8109
17.0009
20.4495
19.8875
23.5474
23.7496
26.3451
27.6113
29.5294
31.2447
33.03
34.8372
36.6502
38.4937
40.3529
42.3056
44.2628
46.4337
48.2027
50.4306
44.1081
45.7334
48.2659
48.064
50.9745
51.2466
53.3379
54.2844
55.685
56.7533
57.7232
58.5061
59.1486
59.7725
60.5778
61.6971
63.112
64.6779
65.8702
66.9805
58.8745
60.2285
61.6387
61.5532
63.495
63.5684
65.1382
65.7209
66.8318
67.5556
68.3109
68.9157
69.4269
69.7259
69.6832
69.111
68.172
67.0098
66.8369
66.3192
75.1629
73.964
74.5576
73.2697
74.1193
73.1239
73.5358
72.7417
72.3999
71.3046
69.9554
67.8364
64.9579
61.1838
56.8689
52.5567
49.0873
47.5187
47.0486
43.3933
32.0118
26.4262
24.792
20.4087
18.1279
13.9907
11.0033
7.03085
3.71304
0.198916
-2.68429
-5.23145
-7.11747
-8.42498
-9.08661
-9.36545
-9.6088
-9.94526
-11.3511
-13.9544
-15.8718
-21.3467
-22.6015
-26.1698
-28.0862
-31.4129
-33.7786
-36.9428
-39.5805
-42.3857
-44.8507
-47.243
-49.4539
-51.5004
-53.2354
-54.6368
-55.4827
-55.5052
-55.3126
-52.6861
-28.9486
-30.3927
-30.4228
-31.9287
-32.1058
-33.3834
-33.8813
-34.984
-35.7337
-36.5719
-37.125
-37.4171
-37.2884
-36.6098
-35.3004
-33.2201
-30.6834
-27.6125
-25.3269
-21.7408
-10.4275
-8.80943
-6.69429
-5.49858
-3.66286
-2.44068
-0.748504
0.726938
2.39372
4.08174
5.86668
7.74836
9.72099
11.8062
13.9374
16.1533
18.2514
20.4227
22.0798
24.6231
8.2551
10.6624
13.399
15.5776
17.799
19.5131
21.4086
23.0778
24.7575
26.3517
27.8834
29.3558
30.755
32.1024
33.3666
34.6145
35.7397
36.9763
37.8526
39.117
29.4405
31.807
33.5187
35.224
36.8081
38.0894
39.4899
40.6909
41.8923
43.0068
44.0662
45.0771
46.0496
47.018
48.0007
49.0777
50.1728
51.4607
52.4289
53.7746
49.2307
51.1107
51.6397
52.6849
53.4325
54.1367
54.9016
55.5316
56.1946
56.8151
57.4573
58.1443
58.9178
59.8112
60.8552
61.9942
63.1599
64.3118
65.1419
66.0579
69.9263
70.5649
69.9477
70.5193
70.7757
71.208
71.6675
72.1826
72.7437
73.2307
73.562
73.5572
73.0781
71.9953
70.3963
68.6482
67.5212
66.8722
66.9918
66.3714
66.9807
67.2549
66.3203
66.333
65.9944
65.9805
65.896
65.597
64.948
63.841
62.1872
59.899
56.9575
53.6254
50.3265
47.5905
45.708
44.5391
44.4789
42.8885
80.497
78.9462
78.1979
76.3086
73.7397
70.7356
67.0768
63.0714
58.9801
55.0046
51.1971
48.0364
45.1461
42.5661
40.4545
38.5654
36.7407
35.0517
34.1176
31.9434
)
;

boundaryField
{
    outletWallLeft
    {
        type            fixedValue;
        value           uniform 0;
    }
    fineWallsLeft
    {
        type            zeroGradient;
    }
    fineFrontAndBackLeft
    {
        type            zeroGradient;
    }
    fineplugLeft
    {
        type            cyclicAMI;
        value           nonuniform List<scalar> 
20
(
81.8389
86.4623
81.3011
80.2022
79.6851
79.195
78.637
78.0306
77.5837
76.8679
76.7295
79.7218
73.2763
72.316
71.6824
70.9548
70.4926
69.631
70.0029
68.1789
)
;
    }
    symmetryWallLeft
    {
        type            cyclicAMI;
        value           nonuniform List<scalar> 
20
(
14.7689
18.1407
2.50075
-13.7478
3.45768
2.85261
-6.77123
5.05271
13.1615
15.4384
20.5222
21.9363
25.1477
25.9585
29.0255
27.0714
24.6534
14.9775
25.0084
18.9268
)
;
    }
    inletOutletLeft
    {
        type            cyclicAMI;
        value           nonuniform List<scalar> 
20
(
68.1789
70.0029
69.631
70.4926
70.9548
71.6824
72.316
73.2763
79.7218
76.7295
76.8679
77.5837
78.0306
78.637
79.195
79.6851
80.2022
81.3011
86.4623
81.8389
)
;
    }
    inletLeft
    {
        type            zeroGradient;
    }
    inletWallsLeft
    {
        type            zeroGradient;
    }
    inletFacesLeft
    {
        type            zeroGradient;
    }
    fineWallsRight
    {
        type            zeroGradient;
    }
    outletWallRight
    {
        type            zeroGradient;
    }
    fineplugRight
    {
        type            cyclicAMI;
        value           nonuniform List<scalar> 
20
(
24.5169
26.6009
25.7749
26.0463
26.5411
27.4342
28.8277
31.3874
38.3195
38.322
41.9218
45.5738
49.1701
52.6294
55.803
58.3925
60.2285
60.9506
64.2184
60.405
)
;
    }
    fineFrontAndBackRight
    {
        type            zeroGradient;
    }
    symmetryWallRight
    {
        type            cyclicAMI;
        value           nonuniform List<scalar> 
20
(
14.7689
18.1407
2.50075
-13.7478
3.45768
2.85261
-6.77123
5.05271
13.1615
15.4384
20.5222
21.9363
25.1477
25.9585
29.0255
27.0714
24.6534
14.9775
25.0084
18.9268
)
;
    }
    inletOutletRight
    {
        type            cyclicAMI;
        value           nonuniform List<scalar> 
20
(
24.5169
26.6009
25.7749
26.0463
26.5411
27.4342
28.8277
31.3874
38.3195
38.322
41.9218
45.5738
49.1701
52.6294
55.803
58.3925
60.2285
60.9506
64.2184
60.405
)
;
    }
    inletRight
    {
        type            zeroGradient;
    }
    inletWallsRight
    {
        type            zeroGradient;
    }
    inletFacesRight
    {
        type            zeroGradient;
    }
}


// ************************************************************************* //
