/*--------------------------------*- C++ -*----------------------------------*\
| =========                 |                                                 |
| \\      /  F ield         | OpenFOAM: The Open Source CFD Toolbox           |
|  \\    /   O peration     | Version:  4.1                                   |
|   \\  /    A nd           | Web:      www.OpenFOAM.org                      |
|    \\/     M anipulation  |                                                 |
\*---------------------------------------------------------------------------*/
FoamFile
{
    version     2.0;
    format      ascii;
    class       surfaceScalarField;
    location    "14";
    object      phi;
}
// * * * * * * * * * * * * * * * * * * * * * * * * * * * * * * * * * * * * * //

dimensions      [0 3 -1 0 0 0 0];

internalField   nonuniform List<scalar> 
3120
(
3169.64
-103.876
3169.64
3266.13
-96.4839
3266.13
3432.93
-166.81
3624.88
-191.941
3624.87
3872.97
-248.097
4159.58
-286.61
4159.58
4512.86
-353.285
4512.86
4930.32
-417.466
5418.83
-488.505
5418.83
6008.4
-589.563
6008.39
6853.48
-845.09
7252.54
-399.067
7252.54
7813.11
10627.9
-1835.09
11617
12580.9
13546.6
14519.3
15498.8
16484
17474.3
18469.2
19470
17833.4
2636.01
18853.8
19882
20915.3
21954
22995.8
24059.2
25167.9
25951.6
19304.3
6647.33
19304.3
19304.3
11739.7
7564.61
11739.7
11739.7
11739.7
4495.85
7243.83
4495.84
4495.84
-321.027
4816.83
-321.113
-321.199
-321.239
-877.313
556.054
-877.343
-877.373
-877.401
-474.792
-402.637
-3430.36
26085.5
-3548.98
21701.3
-3196.95
14776
-2256.85
2995.55
-1449.02
-3173.99
-250.408
-9587.14
592.172
-8792.18
866.737
-5142.01
1555.16
-1352.38
2497.49
2987.66
2636.49
5175.74
2209.89
6313.91
2115.32
6045.13
1077.11
-822.639
-1635.54
-2730.71
-5649.98
-6866.59
-7494.7
-13918.3
-4619.55
-11182.7
-3970.3
-3617.01
29685.7
-3449.93
21534.2
-3190.19
14516.3
-2398.31
2203.66
-1543.42
-4028.88
-338.369
-10792.2
461.57
-9592.13
770.847
-5451.29
1326.57
-1908.11
2231.41
2082.82
2595.84
4811.3
2419.15
6490.6
2412.44
6051.84
1463.62
126.177
-420.463
-846.633
-3987.23
-3299.83
-7351.87
-10553.6
-6819.81
-11714.8
-10234.1
-3624.51
33359.4
-3420.68
21330.3
-3285.53
14381.2
-2431.68
1349.81
-1405.86
-5054.7
-251.284
-11946.8
482.615
-10326
776.998
-5745.67
1157.38
-2288.49
1931.82
1308.38
2442
4301.12
2455.36
6477.24
2473.53
6033.67
1696.51
903.196
815.38
34.493
-1603.62
-880.835
-5582.69
-6574.54
-7597.25
-9700.26
-13014.5
-3540.41
37017
-3499.12
21289.1
-3378.59
14260.6
-2241.07
212.284
-1000.37
-6295.4
47.7136
-12994.9
664.905
-10943.2
856.599
-5937.37
1042.85
-2474.75
1659.72
691.5
2210.65
3750.18
2334.44
6353.45
2341.96
6026.15
1693.38
1551.77
1303.69
424.173
188.662
234.188
-3304.82
-3081.06
-7021.24
-5983.85
-12791.9
-3427.98
40631.9
-3660.17
21521.2
-3320.52
13921
-1817.5
-1290.74
-425.115
-7687.79
533.483
-13953.5
1011.18
-11420.9
1054.92
-5981.11
1063.26
-2483.09
1494.75
260.009
1949.89
3295.04
2098.14
6205.19
2104.91
6019.38
1595.94
2060.75
1186.61
833.502
803.072
617.724
-1082.44
-1195.55
-4872.08
-2194.22
-10099.4
-3334.88
44225.7
-3847.54
22033.9
-3151.62
13225.1
-1418.56
-3023.8
124.353
-9230.7
1116.58
-14945.7
1492.75
-11797.1
1389.14
-5877.5
1276.42
-2370.38
1497.09
39.3346
1710.03
3082.09
1802.62
6112.6
1823.66
5998.34
1443.52
2440.88
1108.99
1168.04
805.399
921.304
423.174
-813.33
-1641.78
-129.277
-5093.82
-3303.15
47863.4
-4038.12
22768.9
-3065.56
12252.5
-1230.68
-4858.68
548.772
-11010.2
1675.13
-16072
2030.22
-12152.2
1832.68
-5679.95
1603.11
-2140.81
1574.42
68.0235
1503.9
3152.62
1501.76
6114.74
1551.63
5948.47
1290.44
2702.07
1025.87
1432.61
804.635
1142.54
420.26
-428.957
908.116
-617.134
-1549.69
-3362.83
51639
-4224.52
23630.6
-2947.78
10975.8
-1023.44
-6783.02
906.703
-12940.3
2087.67
-17253
2463.31
-12527.8
2279.22
-5495.87
1983.49
-1845.09
1678.6
372.912
1321.93
3509.28
1232.4
6204.27
1322.61
5858.25
1159.05
2865.63
949.45
1642.21
771.055
1320.93
443.762
-101.677
1198.69
-1372.07
-2186.1
-3532.56
55668.6
-4414.62
24512.6
-2629.31
9190.44
-542.325
-8870
1295.28
-14777.9
2245.7
-18203.4
2569.59
-12851.7
2527.39
-5453.67
2300.95
-1618.64
1754.38
919.484
1150.08
4113.59
1015.71
6338.64
1148.85
5725.11
1052.66
2961.83
880.558
1814.31
733.894
1467.59
528.816
103.401
552.857
-1396.11
-2032.31
-3794.01
60043.1
-4618.14
25336.8
-2004.78
6577.08
369.347
-11244.1
1833.91
-16242.5
2158.49
-18528
2212.98
-12906.2
2368.37
-5609.07
2356.97
-1607.25
1683.88
1592.58
966.939
4830.52
861.279
6444.29
1025.61
5560.78
964.762
3022.67
814.251
1964.81
702.471
1579.37
497.914
307.943
694.041
-1592.24
-2183.37
-4171.6
64895.8
-4886.12
26051.3
-1061.18
2752.15
1758.78
-14064.1
2752.34
-17236
2163.4
-17939.1
1643.59
-12386.4
1843.31
-5808.79
2092.69
-1856.63
1462.63
2222.64
788.815
5504.34
765.38
6467.73
936.343
5389.82
885.029
3073.98
748.515
2101.33
657.093
1670.79
488.447
476.592
529.123
-1632.91
-2243.8
-4588.35
70243.2
-5290.3
26753.2
155.209
-2693.37
3653.67
-17562.6
4417.25
-17999.6
2936.85
-16458.7
1580.37
-11029.9
1454.05
-5682.48
1735.72
-2138.3
1192.37
2765.98
651.268
6045.44
709.693
6409.3
861.322
5238.19
806.566
3128.74
682.112
2225.78
606.949
1745.95
465.943
617.586
480.007
-1646.98
-2252.31
-5241.65
76392.4
-5626.35
27137.9
1531.08
-9850.79
6109.92
-22141.4
7062.55
-18952.2
5003.08
-14399.2
2649.02
-8675.85
1713.2
-4746.66
1589.21
-2014.3
991.62
3363.58
574.311
6462.75
670.108
6313.51
786.669
5121.63
727.938
3187.47
618.119
2335.6
558.431
1805.64
442.28
733.746
446.764
-1651.46
-2223.01
-5708.95
83018.9
-5508.87
26937.9
3640.14
-18999.8
9298.36
-27799.6
10506.2
-20160.1
8205.97
-12099
4892.28
-5362.17
2702.79
-2557.18
1710.69
-1022.2
894.543
4179.72
550.773
6806.52
631.128
6233.15
710.963
5041.79
654.04
3244.39
561.224
2428.42
514.452
1852.41
416.639
831.549
376.529
-1611.36
-2199.77
-7070.31
91351.6
-5200.6
25068.1
7091.57
-31292
12835.1
-33543.2
13787.7
-21112.7
11568.6
-9879.88
7784.72
-1578.27
4308.68
918.857
2075.66
1210.82
870.021
5385.37
550.655
7125.89
584.689
6199.11
634.506
4991.98
583.662
3295.24
507.075
2505.01
469.212
1890.28
387.04
913.73
335.305
-1559.62
-2151.07
-7027.77
99259
-3192.4
21232.8
10720.1
-45204.5
14495.1
-37318.1
14315.2
-20932.8
12915.6
-8480.29
9783.43
1553.94
5606.65
5095.64
2365.64
4451.83
874.594
6876.41
553.545
7446.94
539.312
6213.34
571.022
4960.26
529.487
3336.77
468.372
2566.12
436.291
1922.36
362.213
987.798
303.78
-1501.19
-2095.39
-11122.7
112536
-4477.54
14587.7
11894.6
-61576.7
10357.6
-35781.1
8250.09
-18825.3
9041.32
-9271.52
8924.05
1671.21
5631.43
8388.26
2299.18
7784.08
812.949
8362.64
511.036
7748.85
466.02
6258.36
486.203
4940.08
457.581
3365.39
411.608
2612.09
383.996
1949.97
323.766
1048.03
248.314
-1425.74
-2039.01
-8401.49
120666
-1387.34
7573.51
8163.51
-71127.5
267.189
-27884.8
-1587.65
-16970.5
1503.39
-12362.6
5489.59
-2314.99
4677.44
9200.41
2094.96
10366.6
808.336
9649.27
514.506
8042.68
456.57
6316.3
484.904
4911.75
468.661
3381.64
425.261
2655.49
381.2
1994.03
298.324
1130.91
217.312
-1344.72
-1988.51
-16451.9
142725
-14226.1
5347.77
1923.94
-87277.6
-5346.04
-20614.8
-2841.37
-19475.1
-1398.05
-13805.9
2559.56
-6272.6
3220.08
8539.89
1245.8
12340.8
406.204
10488.9
256.055
8192.83
208.829
6363.52
188.536
4932.04
161.522
3408.65
145.17
2671.85
209.043
1930.16
271.074
1068.88
181.386
-1255.04
-1903.61
-39666.7
20062.4
-1335.53
-2685.54
-657.494
-1277.87
1033.42
3542.11
2539.03
1311.87
901.597
862.924
1059.95
1223.55
1326.99
1186.25
611.318
132.735
-20.6255
-539.94
44.036
-1044.39
99.5978
-1044.6
139.528
-1003.86
172.916
-999.097
199.843
-999.646
221.002
-1000.67
237.066
-1001.23
249.037
-1002.27
257.733
-1003.54
261.525
-1004.68
264.435
-1002.24
249.511
-1005.55
230.233
-1008.94
208.091
-1011.13
183.462
-1014.08
156.869
-1015.17
134.247
-1040.84
109.72
-1084.13
-673.986
48.2843
-588.224
58.3713
-1054.48
47.8783
-1034.11
44.4951
-1000.47
45.1819
-999.784
46.0052
-1000.47
46.6772
-1001.35
47.0397
-1001.59
47.1867
-1002.42
46.5833
-1002.94
45.7914
-1003.88
49.3566
-1005.8
49.6839
-1005.87
47.6485
-1006.9
44.199
-1007.68
39.1592
-1009.04
33.5983
-1009.61
26.6431
-1033.88
16.624
-1074.11
-657.362
29.8981
-618.122
34.6365
-1059.22
29.6862
-1029.16
29.1656
-999.951
29.2915
-999.91
29.1158
-1000.29
28.8014
-1001.03
28.3402
-1001.13
27.63
-1001.71
26.7316
-1002.04
25.392
-1002.54
22.4283
-1002.84
20.044
-1003.49
17.4579
-1004.32
14.4542
-1004.67
10.9299
-1005.51
6.90904
-1005.59
2.54095
-1029.51
-1.5052
-1070.07
-658.867
25.1099
-643.232
26.5463
-1060.65
21.1889
-1023.8
19.2176
-997.98
17.8155
-998.508
16.338
-998.816
14.8061
-999.501
13.2461
-999.568
11.638
-1000.1
9.93412
-1000.34
8.18517
-1000.8
6.59358
-1001.25
4.67556
-1001.57
2.5148
-1002.16
0.218451
-1002.38
-2.32955
-1002.96
-5.03633
-1002.88
-9.12392
-1025.43
-11.5554
-1067.64
-670.422
22.8624
-666.094
22.7009
-1060.49
17.6186
-1018.72
15.5239
-995.886
13.7197
-996.704
11.8398
-996.937
9.92217
-997.583
8.00456
-997.651
6.05342
-998.152
4.08362
-998.369
2.07433
-998.787
-0.0539371
-999.119
-2.15302
-999.472
-4.32184
-999.989
-6.50295
-1000.2
-8.76265
-1000.7
-11.1589
-1000.49
-15.5783
-1021.01
-17.3667
-1065.85
-687.789
21.685
-687.78
20.615
-1059.42
15.8217
-1013.92
13.7862
-993.85
11.9248
-994.843
10.0133
-995.025
8.06008
-995.63
6.1088
-995.7
4.12974
-996.173
2.1339
-996.373
0.120453
-996.774
-1.91278
-997.086
-3.96839
-997.417
-6.08824
-997.87
-8.20049
-998.084
-10.3552
-998.549
-12.604
-998.239
-17.1975
-1016.41
-19.2703
-1063.77
-707.059
21.2517
-709.032
19.3902
-1057.56
14.8191
-1009.35
12.8283
-991.86
10.9464
-992.961
9.02424
-993.103
7.06774
-993.674
5.12038
-993.753
3.15077
-994.203
1.17663
-994.399
-0.809017
-994.788
-2.81966
-995.075
-4.82291
-995.413
-6.8685
-995.824
-8.88934
-996.063
-10.9336
-996.505
-13.0194
-996.153
-17.4432
-1011.99
-19.9966
-1061.22
-727.056
20.948
-729.98
18.4195
-1055.03
14.0931
-1005.03
12.2083
-989.975
10.3708
-991.124
8.50363
-991.236
6.60166
-991.772
4.70985
-991.861
2.79565
-992.289
0.879032
-992.482
-1.04811
-992.861
-2.99207
-993.132
-4.93149
-993.474
-6.90946
-993.846
-8.85971
-994.113
-10.8331
-994.531
-12.8031
-994.184
-17.0377
-1007.76
-20.1659
-1058.09
-747.222
20.7604
-750.74
17.5765
-1051.85
13.4989
-1000.95
11.7067
-988.183
9.91908
-989.336
8.10893
-989.426
6.26579
-989.929
4.43407
-990.029
2.58022
-990.435
0.726718
-990.629
-1.13747
-990.997
-3.01568
-991.253
-4.88796
-991.602
-6.79459
-991.94
-8.67221
-992.235
-10.5758
-992.628
-12.4386
-992.321
-16.4353
-1003.76
-20.1563
-1054.37
-767.378
20.5873
-771.328
16.7696
-1048.03
12.9494
-997.128
11.253
-986.487
9.5239
-987.607
7.77956
-987.682
6.0027
-988.152
4.23774
-988.264
2.45001
-988.648
0.664287
-988.843
-1.13357
-989.199
-2.94262
-989.444
-4.74771
-989.797
-6.58455
-990.103
-8.39321
-990.427
-10.2326
-990.788
-12.0012
-990.552
-15.7525
-1000.01
-20.0706
-1050.05
-787.449
20.4344
-791.762
15.9877
-1043.58
12.4315
-993.572
10.8226
-984.878
9.1533
-985.938
7.47468
-986.003
5.76441
-986.442
4.06624
-986.566
2.34477
-986.926
0.626891
-987.125
-1.10489
-987.467
-2.84507
-987.704
-4.58367
-988.058
-6.35096
-988.336
-8.09181
-988.686
-9.86775
-989.013
-11.5501
-988.87
-15.0475
-996.511
-19.9618
-1045.14
-807.41
20.2871
-812.049
15.2168
-1038.51
11.9292
-990.285
10.4024
-983.351
8.7944
-984.33
7.1824
-984.391
5.53948
-984.799
3.90865
-984.936
2.25394
-985.272
0.604214
-985.476
-1.06145
-985.802
-2.73255
-986.033
-4.4054
-986.386
-6.10329
-986.638
-7.7776
-987.012
-9.49043
-987.3
-11.0937
-987.267
-14.334
-993.271
-19.8427
-1039.63
-827.253
20.1486
-832.198
14.4564
-1032.82
11.441
-987.269
9.99019
-981.9
8.44471
-982.784
6.89945
-982.846
5.32396
-983.224
3.76032
-983.372
2.17234
-983.684
0.590355
-983.894
-1.00955
-984.202
-2.61178
-984.431
-4.21989
-984.778
-5.84826
-985.01
-7.4573
-985.403
-9.10655
-985.651
-10.6369
-985.736
-13.6184
-990.289
-19.7196
-1033.53
-846.973
20.0196
-852.217
13.7047
-1026.51
10.9641
-984.529
9.58474
-980.521
8.1039
-981.304
6.62661
-981.369
5.11929
-981.716
3.62351
-981.876
2.10309
-982.163
0.58884
-982.38
-0.944881
-982.668
-2.47813
-982.898
-4.02236
-983.233
-5.58065
-983.451
-7.12618
-983.857
-8.71115
-984.066
-10.1746
-984.273
-12.8983
-987.566
-19.5892
-1026.84
-866.562
19.9101
-872.128
12.965
-1019.56
10.501
-982.065
9.18943
-979.21
7.77501
-979.889
6.36711
-979.961
4.92793
-980.277
3.49999
-980.448
2.0476
-980.711
0.60019
-980.932
-0.866961
-981.201
-2.3315
-981.433
-3.81256
-981.752
-5.29932
-981.965
-6.78316
-982.373
-8.30165
-982.547
-9.70347
-982.871
-12.1715
-985.098
-19.4456
-1019.57
-886.008
19.8437
-891.971
12.2549
-1011.97
10.0743
-979.884
8.83315
-977.968
7.48956
-978.546
6.15543
-978.627
4.78494
-978.907
3.4234
-979.087
2.03717
-979.325
0.65147
-979.547
-0.753544
-979.796
-2.15624
-980.031
-3.5806
-980.328
-5.00036
-980.545
-6.4311
-980.943
-7.8828
-981.095
-9.2302
-981.524
-11.4475
-982.88
-19.2847
-1011.73
-905.292
19.8668
-911.838
11.6132
-1003.72
9.74416
-978.015
8.60081
-976.825
7.34925
-977.294
6.11103
-977.389
4.8271
-977.623
3.54403
-977.804
2.23376
-978.015
0.913545
-978.226
-0.428911
-978.454
-1.77716
-978.683
-3.15497
-978.95
-4.52494
-979.175
-5.92944
-979.538
-7.33313
-979.692
-8.66733
-980.19
-10.672
-980.876
-19.037
-1003.36
-924.329
20.0761
-931.914
11.1014
-994.746
9.58917
-976.503
8.6041
-975.84
7.48245
-976.173
6.37072
-976.277
5.20204
-976.454
4.01682
-976.619
2.79904
-976.797
1.55774
-976.985
0.289222
-977.185
-0.99714
-977.396
-2.3183
-977.629
-3.63938
-977.854
-5.02032
-978.157
-6.37934
-978.333
-7.75889
-978.81
-9.59854
-979.036
-18.4199
-994.542
-942.749
20.7985
-952.713
11.0691
-985.016
9.96425
-975.398
9.25114
-975.127
8.35675
-975.278
7.43145
-975.352
6.4232
-975.446
5.35177
-975.547
4.21264
-975.658
3.0085
-975.781
1.74123
-975.918
0.416672
-976.072
-0.967556
-976.245
-2.3851
-976.436
-3.87429
-976.668
-5.328
-976.879
-6.87849
-977.26
-8.531
-977.384
-17.5626
-985.51
-960.312
22.2871
12.2709
11.8725
11.7456
11.4673
11.1154
10.6694
10.1222
9.46441
8.68338
7.76534
6.69369
5.44879
4.0124
2.34428
0.465143
-1.7944
-4.17809
-14.6882
-474.964
-609.685
134.681
-609.736
-609.791
-609.809
-3658.57
3048.76
-3658.58
-3658.58
-3658.58
-9511.97
5853.39
-9511.97
-9511.97
-16505.8
6993.81
-16505.8
-16505.8
-16505.8
-23083.6
6577.84
-23083.6
-23083.6
-28729.8
5646.14
-28120.8
-27324.8
-26609.3
-26043.1
-25583.5
-25147.3
-24661.1
-24076
-29519.5
6130.67
-28666.8
-27677.6
-26565.4
-25340.3
-24010.8
-22581.5
-21047.7
-19406.4
-17714.5
-16595.5
444.73
-15805.2
-15805.2
-16768.7
963.574
-16779.1
10.385
-16779.1
-16306.3
-472.776
-16306.3
-15210.8
-1095.59
-13404.6
-1806.12
-13404.6
-10983.8
-2420.89
-10983.8
-7979.8
-3003.96
-4764.72
-3215.08
-4764.72
-1479.37
-3285.36
963.607
-2442.98
963.602
1453.94
-490.345
1453.94
1453.94
2812.86
-2812.86
2065.44
747.419
-1362.67
3428.11
-1173.88
-188.807
683.776
-1857.66
189.505
494.261
-1874.99
2064.49
-3965.29
2090.3
-5146.43
1181.13
-5439.85
293.422
-5154.43
-285.428
-4249.25
-905.182
-2558.77
-1690.48
356.25
-2915.02
4163.45
-3807.2
7748.16
-3584.71
7847.24
-99.0817
2892.09
4955.15
4346.03
2761.29
-5574.15
3093.52
415.183
494.986
6026.63
-327.42
633.591
-555.512
-1629.57
-2424.15
2362.9
-4838.83
4479.16
-6174.17
3425.64
-6341.03
1347.99
-6179.06
131.447
-5827.91
-636.58
-4927.52
-1805.58
-3200.5
-3417.51
-409.97
-5705.55
3402.92
-7620.09
6798.88
-6980.67
8369.26
-1669.46
5613.95
7710.46
9469.63
2215.42
-7789.58
3034.93
-404.334
2275.42
6786.14
664.472
2244.54
-1668.96
703.855
-4356.87
5050.81
-6099.78
6222.07
-6526.96
3852.82
-6538.07
1359.09
-6489.08
82.4577
-6161.63
-964.032
-5303.83
-2663.38
-3676.49
-5044.86
-1068.56
-8313.47
2519.3
-11208
5774.41
-10235.8
7604.05
-3499.1
6386.46
8928.05
13413.1
1628.56
-9418.14
2457.64
-1233.42
2296.53
6947.24
520.725
4020.35
-2785.44
4010.02
-5534.76
7800.13
-6526.8
7214.1
-6597.93
3923.96
-6645.29
1406.45
-6541.38
-21.4556
-6205.72
-1299.7
-5447.98
-3421.11
-4031.1
-6461.74
-1716.93
-10627.6
1545.82
-14470.7
4660.12
-13350.1
6469.25
-5308.24
6149.48
9247.83
16277.2
1004.31
-10422.4
1590.62
-1819.73
1474.67
7063.19
-575.527
6070.54
-4110.14
7544.63
-6235.41
9925.4
-6604.75
7583.43
-6533.78
3852.99
-6463.38
1336.04
-6209.58
-275.254
-5916.1
-1593.19
-5364.57
-3972.64
-4281.65
-7544.66
-2353.47
-12555.8
515.049
-17339.2
3429.04
-16264.1
5170.61
-7049.8
5407.13
9011.31
18469.3
316.572
-10739
680.848
-2184.02
345.258
7398.78
-2194.75
8610.55
-5351.37
10701.3
-6522.65
11096.7
-6443.11
7503.89
-6197.62
3607.5
-5830.06
968.48
-5441.89
-663.425
-5340.32
-1694.76
-5141.31
-4171.66
-4476.8
-8209.17
-2979
-14053.6
-548.44
-19769.8
2112.8
-18925.3
3791.47
-8728.48
4369.41
8433.37
19834.7
-566.932
-10172.1
-239.304
-2511.65
-987.058
8146.53
-3930.71
11554.2
-6149.8
12920.3
-6432.98
11379.8
-6024.27
7095.18
-5419.65
3002.87
-4663.31
212.135
-4353.71
-973.023
-4692.88
-1355.6
-4919.86
-3944.69
-4655.15
-8473.88
-3587.72
-15121.1
-1619.28
-21738.2
747.377
-21292
2360.91
-10342
3187.11
7607.17
20600.9
-1592.7
-8579.39
-1790.42
-2313.94
-2892.1
9248.2
-5330.8
13992.9
-6393.3
13982.8
-6047.93
11034.5
-5263.02
6310.27
-4070.08
1809.93
-3145.84
-712.111
-3356.78
-762.087
-4254.66
-457.718
-4774.68
-3424.67
-4794.09
-8454.47
-4148.3
-15766.8
-2673.63
-23212.9
-642.806
-23322.8
907.555
-11892.4
1950.7
6564.03
20745.5
-2690.4
-5889
-3840.45
-1163.89
-4850.07
10257.8
-6087.75
15230.6
-6202.21
14097.3
-5411.4
10243.7
-4083.09
4981.96
-2471.85
198.686
-2007.64
-1176.33
-2888.42
118.688
-4060.13
713.986
-4606.22
-2878.58
-4799.77
-8260.93
-4610.03
-15956.6
-3688.71
-24134.2
-2025.32
-24986.2
-537.262
-13380.4
620.861
5405.9
20270.8
-3515.14
-2373.87
-5323.34
644.312
-6033.54
10968
-6241.76
15438.8
-5738.64
13594.2
-4514.91
9019.93
-2737.74
3204.78
-1539.98
-999.077
-1825.07
-891.253
-2754.28
1047.9
-3791.1
1750.8
-4207.74
-2461.93
-4573.09
-7895.58
-4935.04
-15594.6
-4640
-24429.3
-3354.9
-26271.3
-1929.89
-14805.4
-612.031
4088.04
19186
-3937.38
1563.51
-5892.3
2599.23
-6385.45
11461.2
-6027.96
15081.3
-5109.73
12675.9
-3521.51
7431.71
-1993.59
1676.87
-1516.74
-1475.93
-1883.11
-524.88
-2490.22
1655
-3209.39
2469.97
-3446.49
-2224.83
-4120.59
-7221.49
-5136.35
-14578.9
-5497.1
-24068.5
-4594.72
-27173.7
-3089.69
-16310.5
-1543
2541.35
17653.4
-3974.29
5537.79
-5869.12
4494.06
-6272.53
11864.6
-5641.98
14450.8
-4426.63
11460.6
-2678.98
5684.06
-1511.17
509.044
-1344.09
-1643.02
-1615.39
-253.595
-1973.35
2012.95
-2250.29
2746.9
-2384.06
-2091.07
-3628.39
-5977.16
-5286.52
-12920.7
-6220.05
-23135
-5744.51
-27649.2
-4050.25
-18004.7
-2469.72
960.813
16147.2
-3567.75
9105.54
-5581.45
6507.77
-5990.28
12273.4
-5193.86
13654.4
-3745.7
10012.4
-1653.83
3592.19
-244.051
-900.741
-234.204
-1652.87
-876
388.189
-1193.2
2330.15
-981.449
2535.15
-1286.42
-1786.09
-3380.6
-3882.98
-5452.48
-10848.9
-6741.7
-21845.8
-6784.66
-27606.2
-4803.03
-19986.4
-2737.23
-1104.99
13854.7
-2778.56
11884.1
-5137.94
8867.14
-5665.44
12800.9
-4721.81
12710.7
-2995.75
8286.37
-498.349
1094.78
1042.96
-2442.06
1356.95
-1966.86
490.124
1255
-348.444
3168.71
-10.3701
2197.07
-686.85
-1109.62
-3475.91
-1093.93
-5580.65
-8744.13
-6953.88
-20472.5
-7637.34
-26922.8
-6097.69
-21526
-4202.13
-3000.56
15783.3
-1790.62
13674.7
-4592.61
11669.1
-5320.19
13528.5
-4186.22
11576.8
-1989.88
6090.03
471.551
-1366.66
1634.01
-3604.52
2041.57
-2374.43
1543.12
1753.45
644.586
4067.24
248.498
2593.16
-890.789
29.6581
-3568.47
1583.75
-5422.33
-6890.27
-6754.94
-19139.9
-8111.21
-25566.5
-8141.53
-21495.7
-6455.73
-4686.35
14973.7
-1045.47
14720.2
-4094.57
14718.2
-4947.11
14381
-3577.72
10207.4
-1041.71
3554.02
1118.69
-3527.06
1860.92
-4346.76
2304.78
-2818.29
2291.46
1766.77
1636.35
4722.35
756.499
3473
-669.119
1455.27
-2963.72
3878.35
-4541.09
-5312.91
-6085.12
-17595.9
-7909.4
-23742.2
-9218.28
-20186.8
-8395.15
-5509.49
13156.4
-991.349
15711.5
-3804.86
17531.7
-4531.59
15107.8
-2946.99
8622.75
-754.732
1361.75
901.173
-5182.97
1696.72
-5142.3
2262.94
-3384.51
2623.73
1405.98
2295.42
5050.66
1512.27
4256.16
73.658
2893.88
-1354.28
5306.29
-2572.18
-4095.01
-4959.3
-15208.8
-7272.04
-21429.5
-9067.55
-18391.3
-9188.2
-5388.84
10962
-1595.73
17307.3
-3720.09
19656.1
-4083.69
15471.4
-2320.12
6859.19
-673.88
-284.502
448.109
-6304.96
1374.2
-6068.4
2007.06
-4017.37
2611.82
801.202
2612.98
5049.5
2036.51
4832.62
759.709
4170.68
491.646
5574.35
-274.981
-3328.39
-3648.98
-11834.8
-6640.21
-18438.3
-7990.72
-17040.8
-8242.7
-5136.87
8572.69
-2411.07
19718.3
-3703.87
20948.9
-3659.36
15426.9
-1994.52
5194.35
-817.611
-1461.42
144.666
-7267.24
1114.37
-7038.1
1631.27
-4534.28
2352.3
80.1726
2720.3
4681.5
2358.37
5194.56
1352.79
5176.26
1185.9
5741.24
588.304
-2730.79
-2738
-8508.48
-6353.59
-14822.7
-6962.52
-16431.9
-6166.49
-5932.91
5454.95
-3016.17
-3649.91
-3351.14
-2092.45
-1187.73
-66.4469
845.051
1178.21
1922.31
2673.8
2553.62
1842.57
1633.24
763.287
-2301.85
-6243.49
-6912.39
-4537.72
-662.987
1637.98
-1069.6
1381.61
-1485.17
1390.57
-1815.02
1304.85
-2105
1264.97
-2343.58
1213.58
-2538.99
1170.4
-2691.04
1127.05
-2802.16
1086.12
-2873.29
1046.12
-2904.86
1006.58
-2895.76
965.893
-2842.67
921.909
-2738.71
871.045
-2573.14
809.431
-2333.85
735.705
-2004.86
646.014
-1549.14
519.27
-902.067
327.93
72.9333
-194.5
1832.48
-444.685
1631.79
-708.231
1654.11
-934.846
1531.46
-1154.27
1484.4
-1345.08
1404.39
-1516.3
1341.62
-1664.07
1274.82
-1790.72
1212.77
-1894.4
1149.8
-1969.87
1082.05
-2003.25
999.263
-1971.15
889.812
-1849.85
749.74
-1633.6
593.178
-1336.92
439.028
-972.824
281.917
-559.08
105.525
-171.666
-59.4876
-98.7327
-183.037
2015.52
-391.051
1839.81
-563.457
1826.51
-702.735
1670.74
-832.574
1614.24
-936.379
1508.19
-1029.68
1434.92
-1107.36
1352.5
-1175.02
1280.43
-1230.6
1205.38
-1270.6
1122.05
-1281.3
1009.96
-1237.38
845.888
-1108.1
620.463
-890.521
375.594
-651.212
199.717
-453.816
84.519
-263.299
-84.9955
-79.1536
-243.639
-177.886
-43.3029
2058.82
-126.194
1922.69
-182.747
1883.07
-225.824
1713.81
-268.312
1656.72
-295.173
1535.05
-318.969
1458.71
-332.025
1365.55
-338.936
1287.34
-338.387
1204.83
-333.955
1117.62
-331.105
1007.1
-338.636
853.417
-359.46
641.284
-383.011
399.142
-396.448
213.149
-399.95
88.0171
-368.265
-116.684
-291.994
-319.913
-469.88
75.5885
1983.23
34.6784
1963.6
46.1837
1871.56
67.6262
1692.37
94.057
1630.29
129.398
1499.71
171.02
1417.09
221.802
1314.77
281.628
1227.51
349.78
1136.67
422.12
1045.28
485.722
943.5
515.868
823.268
480.88
676.27
373.166
506.852
254.58
331.73
184.218
158.372
120.31
-52.7827
16.6472
-216.256
-453.233
142.876
1840.35
128.308
1978.17
167.839
1832.03
217.464
1642.74
277.333
1570.42
337.514
1439.53
405.305
1349.3
477.575
1242.5
558.052
1147.03
644.756
1049.97
735.634
954.396
821.794
857.34
887.886
757.175
912.386
651.769
878.35
540.887
787.544
422.535
648.493
297.422
438.812
156.897
221.829
0.724033
-231.404
133.701
1706.65
153.899
1957.97
200.328
1785.6
256.156
1586.91
320.109
1506.47
381.946
1377.69
448.216
1283.02
515.686
1175.02
585.308
1077.41
653.578
981.696
717.782
890.191
773.58
801.541
816.064
714.689
838.541
629.291
833.463
545.964
788.92
467.076
690.135
396.206
518.8
328.23
276.645
242.876
45.2407
68.5322
1638.12
112.24
1914.26
161.971
1735.87
212.128
1536.76
264.493
1454.1
319.289
1322.89
374.953
1227.36
434.676
1115.3
498.194
1013.89
571.14
908.751
655.593
805.737
750.753
706.382
848.413
617.029
933.192
544.512
982.218
496.938
965.565
483.729
856.497
505.273
638.928
545.798
336.489
545.314
381.73
-26.0842
1664.2
16.0759
1872.1
44.4552
1707.48
46.5116
1534.7
44.7956
1455.82
30.6457
1337.04
8.31403
1249.69
-13.6629
1137.28
-20.7388
1020.96
3.38623
884.622
65.7083
743.41
166.306
605.777
297.437
485.893
446.022
395.921
587.53
355.427
681.654
389.602
674.738
512.188
531.418
689.116
274.371
802.36
656.1
-155.136
1819.33
-226.155
1943.12
-306.608
1787.94
-429.394
1657.49
-562.859
1589.28
-719.816
1494
-889.158
1419.03
-1061.61
1309.72
-1219.02
1178.38
-1350.18
1015.78
-1451.8
845.028
-1520.16
674.136
-1545.56
511.292
-1511.94
362.307
-1403.1
246.584
-1204.73
191.233
-905.656
213.113
-527.43
310.892
-180.069
455
476.031
-14.5523
1833.89
-169.814
2098.38
-297.945
1916.07
-415.736
1775.28
-534.529
1708.07
-659.852
1619.32
-789.724
1548.9
-924.06
1444.06
-1063.34
1317.66
-1207.44
1159.88
-1356.36
993.955
-1507.08
824.852
-1651.33
655.545
-1769.65
480.629
-1830.39
307.322
-1781.45
142.29
-1573.77
5.43688
-1172.71
-90.1659
-576.634
-141.074
-100.603
303.746
1530.14
243.383
2158.74
123.167
2036.29
58.9896
1839.46
34.1261
1732.94
22.414
1631.03
20.6103
1550.71
14.8919
1449.78
-3.64277
1336.19
-43.3539
1199.6
-101.502
1052.11
-172.619
895.974
-252.343
735.275
-339.326
567.617
-424.285
392.289
-488.551
206.565
-510.55
27.4425
-496.215
-104.495
-358.029
-279.256
-458.632
464.31
1065.83
588.343
2034.71
538.349
2086.28
518.797
1859.01
560.757
1690.98
628.247
1563.54
713.076
1465.88
798.349
1364.51
875.729
1258.81
932.486
1142.84
964.601
1019.99
968.502
892.074
941.921
761.856
879.462
630.077
773.889
497.863
617.866
362.589
419.411
225.899
247.083
67.8364
87.2562
-119.426
-371.376
330.168
735.668
448.904
1915.98
459.67
2075.52
475.076
1843.6
525.485
1640.57
593.214
1495.82
670.201
1388.9
746.754
1287.96
817.76
1187.81
875.719
1084.89
915.695
980.018
933.436
874.336
925.885
769.409
890.029
665.935
823.512
564.382
724.395
461.708
592.948
357.349
423.296
237.491
212.594
91.2794
-158.781
71.3579
664.313
93.1274
1894.21
140.138
2028.51
194.235
1789.51
254.661
1580.15
318.943
1431.54
384.611
1323.23
447.626
1224.94
504.886
1130.55
552.618
1037.16
587.369
945.269
606.316
855.391
608.318
767.41
594.002
680.254
564.736
593.649
518.501
507.945
446.965
428.886
334.322
350.136
167.838
257.767
9.0568
-106.675
770.992
-113.02
1900.56
-32.6648
1948.15
42.4773
1714.37
110.714
1511.91
178.628
1363.63
246.13
1255.73
310.057
1161.02
368.481
1072.13
420.531
985.11
466.624
899.177
509.128
812.891
551.225
725.314
593.048
638.434
627.072
559.627
631.973
503.045
579.866
480.994
448.234
481.769
238.41
467.592
247.466
-145.226
916.22
-143.058
1898.39
-27.0071
1832.1
77.2431
1610.12
157.654
1431.5
227.706
1293.58
297.986
1185.45
370.508
1088.5
446.77
995.869
529.005
902.877
619.766
808.417
720.249
712.409
825.291
620.274
919.414
544.312
973.039
506.003
948.616
527.469
822.754
606.857
594.861
709.663
309.255
753.199
556.721
-99.641
1015.86
-116.167
1914.92
-83.5786
1799.52
-16.8122
1543.36
58.3164
1356.38
114.583
1237.31
160.907
1139.13
211.062
1038.35
275.229
931.704
360.205
817.903
470.029
698.595
603.153
579.287
746.689
476.739
868.722
422.28
923.047
451.68
873.93
576.586
716.696
764.092
477.457
948.901
216.63
1014.03
773.352
78.5411
937.322
163.482
1829.98
89.0837
1873.92
-52.2391
1684.68
-194.004
1498.14
-322.501
1365.81
-434.558
1251.19
-528.055
1131.84
-600.174
1003.82
-647.193
864.923
-663.796
715.199
-644.048
559.539
-598.53
431.221
-527.15
350.901
-433.277
357.808
-323.878
467.187
-218.706
658.919
-135.792
865.988
-74.6879
952.922
698.664
147.028
413.239
595.244
638.67
602.939
539.464
461.201
367.906
259.542
135.241
-2.20254
-129.907
-283.793
-418.998
-497.449
-489.828
-397.164
-246.594
-89.6676
)
;

boundaryField
{
    outletWallLeft
    {
        type            calculated;
        value           nonuniform List<scalar> 
40
(
79.3735
16.8199
-49.2094
-117.22
-186.905
-258.913
-334.556
-412.698
-497.131
-580.398
-681.127
-759.043
-907.57
-917.557
-1262.35
-879.718
-2154.04
270.832
-5606.36
7015.05
-3065.77
-1874.75
-776.452
1643.81
2070.9
2568.4
3245.06
4735.01
6402.2
8603.1
11716
13343.9
6031.19
-8583.89
-13185.5
-21503.2
-19264.8
-65879.6
-54381.3
175376
)
;
    }
    fineWallsLeft
    {
        type            calculated;
        value           uniform 0;
    }
    fineFrontAndBackLeft
    {
        type            calculated;
        value           nonuniform List<scalar> 
880
(
-2.064e-15
2.20747e-15
-2.85105e-14
2.45888e-14
-1.61508e-13
-5.96968e-13
-2.10312e-13
-7.45027e-13
-1.05535e-12
-3.05574e-13
-1.13146e-12
-3.38648e-13
-1.04355e-12
-1.00196e-12
-2.21909e-13
-6.16391e-13
-1.55727e-13
-4.31757e-13
-5.11326e-13
-1.17226e-13
-3.32624e-14
1.13185e-12
-4.2257e-13
-4.98694e-13
-4.83961e-13
-6.6836e-13
-6.64437e-13
-6.73187e-13
-7.01035e-13
-7.23373e-13
-7.46016e-13
-5.93078e-12
-8.2261e-13
-8.31158e-13
-8.46817e-13
-8.41813e-13
-8.66719e-13
-9.18849e-13
-8.58927e-13
-1.01449e-12
-1.14247e-11
-1.57518e-12
-1.49782e-12
-9.09246e-12
-1.39272e-12
-1.37969e-12
-1.34566e-12
-7.18043e-12
-9.66782e-13
-1.08109e-12
4.91858e-12
1.21736e-11
1.44549e-11
1.51151e-11
7.07895e-11
6.66498e-12
6.15013e-12
4.69982e-12
1.84154e-11
1.16812e-12
4.3754e-12
-6.12755e-12
-1.03229e-11
-7.04503e-12
-1.59151e-12
-2.399e-12
1.65569e-12
-3.8481e-13
-8.02831e-13
-4.56727e-12
-9.95194e-12
-1.01537e-11
-8.56924e-12
-6.40753e-12
-2.33344e-12
-1.17815e-11
-1.89336e-11
1.00364e-13
3.70392e-11
2.50301e-12
-8.10667e-12
-1.0074e-11
-5.38146e-12
-2.88576e-12
-3.81067e-12
8.0499e-13
-9.30872e-13
-3.4182e-12
-3.83336e-12
-8.75813e-12
-1.06553e-11
-7.84102e-12
-5.8314e-12
-1.61772e-12
-5.27637e-12
-1.66588e-11
-2.04569e-11
1.57642e-11
2.29565e-12
-9.54181e-12
-1.01848e-11
-4.79198e-12
-5.85553e-12
-6.10189e-12
-8.9457e-13
-1.05783e-12
-3.63923e-12
-3.66612e-12
-7.64042e-12
-1.06494e-11
-7.59865e-12
-5.27677e-12
-1.98863e-12
-3.87112e-13
-6.3657e-12
-1.59486e-11
-1.66029e-11
3.5072e-12
-1.0522e-11
-1.07479e-11
-5.53047e-12
-9.36466e-12
-9.14644e-12
-3.62573e-12
-1.47204e-12
-2.79919e-12
-3.44757e-12
-6.7665e-12
-1.01499e-11
-7.30435e-12
-4.47057e-12
-1.84963e-12
-3.57018e-14
-3.05361e-12
-1.15661e-11
-1.52846e-11
5.64813e-12
-1.10699e-11
-1.15732e-11
-7.15972e-12
-1.1491e-11
-1.19805e-11
-7.10528e-12
-2.86283e-12
-2.12308e-12
-2.72655e-12
-6.10684e-12
-9.37573e-12
-6.69066e-12
-3.55105e-12
-1.27001e-12
-1.13285e-13
7.25445e-15
-7.21955e-12
-1.46368e-11
8.11563e-12
-1.12018e-11
-1.24484e-11
-8.70063e-12
-1.11761e-11
-1.32006e-11
-1.03157e-11
-5.36495e-12
-2.34101e-12
-1.5803e-12
-5.55996e-12
-8.54456e-12
-5.78746e-12
-2.60013e-12
-6.69144e-13
6.69044e-14
7.63007e-14
-1.36428e-12
-9.58891e-12
1.03673e-11
-1.10398e-11
-1.32097e-11
-9.05421e-12
-8.51764e-12
-1.17627e-11
-1.18567e-11
-8.20708e-12
-3.82037e-12
-1.73962e-12
-5.51742e-12
-7.7295e-12
-4.70335e-12