/*--------------------------------*- C++ -*----------------------------------*\
| =========                 |                                                 |
| \\      /  F ield         | OpenFOAM: The Open Source CFD Toolbox           |
|  \\    /   O peration     | Version:  4.1                                   |
|   \\  /    A nd           | Web:      www.OpenFOAM.org                      |
|    \\/     M anipulation  |                                                 |
\*---------------------------------------------------------------------------*/
FoamFile
{
    version     2.0;
    format      ascii;
    class       volVectorField;
    location    "14";
    object      U;
}
// * * * * * * * * * * * * * * * * * * * * * * * * * * * * * * * * * * * * * //

dimensions      [0 1 -1 0 0 0 0];

internalField   nonuniform List<vector> 
1680
(
(-5.68008e-19 1.51333 -0.0683423)
(1.59528e-18 1.12725 -0.047309)
(-7.84604e-18 1.1071 -0.104871)
(1.77697e-17 0.980049 -0.0510715)
(-1.09418e-16 1.2139 -0.126792)
(-1.64284e-16 1.29464 -0.225053)
(-1.51987e-16 1.10912 -0.145012)
(-2.0503e-16 1.31222 -0.234775)
(-2.97179e-16 1.5114 -0.37069)
(-2.20831e-16 1.21481 -0.241103)
(-3.11376e-16 1.73988 -0.446252)
(-2.44732e-16 1.40735 -0.310821)
(-2.87182e-16 1.62494 -0.459405)
(-2.75737e-16 1.91061 -0.695147)
(-1.60368e-16 1.62735 -0.446195)
(-1.6963e-16 2.14473 -0.814083)
(-1.1254e-16 2.03837 -0.503326)
(-1.18818e-16 1.57526 -1.02669)
(-1.40716e-16 4.12943 -0.456696)
(-8.47162e-17 0.455416 -2.97617)
(-1.36461e-16 3.02806 2.04816)
(4.53873e-16 1.45238 -1.46891)
(-1.73362e-15 4.00215 6.22665)
(-2.04593e-15 4.52781 7.21097)
(-1.98548e-15 4.71416 8.1115)
(-2.74199e-15 4.83942 8.91396)
(-2.72589e-15 4.99883 9.61586)
(-2.76179e-15 5.06588 10.2147)
(-2.87604e-15 5.22985 10.7661)
(-2.96769e-15 5.13375 11.1581)
(-3.06058e-15 5.54558 11.8135)
(-2.37826e-15 4.91187 9.89513)
(-3.37481e-15 6.97881 13.4716)
(-3.40988e-15 7.11245 13.8526)
(-3.47412e-15 7.17817 14.1553)
(-3.45359e-15 7.16709 14.419)
(-3.55577e-15 7.28977 14.679)
(-3.76964e-15 7.12983 14.7986)
(-3.5238e-15 7.49567 15.6282)
(-4.16201e-15 7.13131 14.3256)
(-3.97725e-15 9.7364 15.8702)
(-2.53041e-15 6.73821 11.338)
(-2.40379e-15 5.81107 10.6848)
(-3.16535e-15 6.10008 13.7209)
(-2.2373e-15 4.33852 9.75001)
(-2.22022e-15 4.03552 9.60304)
(-2.1617e-15 3.29998 9.37499)
(-2.49971e-15 2.74008 10.8666)
(-1.55306e-15 1.66889 7.04179)
(-1.7367e-15 1.51739 7.10618)
(1.7123e-15 0.017227 4.47884)
(1.95559e-14 -0.460737 -4.39842)
(2.32207e-14 -0.156698 -4.61185)
(2.42813e-14 0.218978 -5.08163)
(2.42258e-14 -0.524901 -5.15318)
(1.07068e-14 -0.460916 -2.60337)
(9.87973e-15 -0.257545 -2.88345)
(7.54991e-15 -0.117639 -2.7843)
(6.41093e-15 -0.229232 -3.40118)
(1.8765e-15 -0.224562 -2.78934)
(9.72312e-16 -8.1209 5.52744)
(-1.36168e-15 -7.24597 5.91147)
(-2.29397e-15 -4.98196 6.01925)
(-1.56556e-15 -1.12524 4.50383)
(-3.53669e-16 0.932552 3.09281)
(-5.33112e-16 2.99587 1.7088)
(3.6793e-16 2.79452 -0.834033)
(-8.55134e-17 1.66398 -1.18037)
(-1.78407e-16 0.329458 -1.63184)
(-1.01495e-15 -1.16699 -3.64258)
(-2.21154e-15 -1.77046 -4.62049)
(-2.25639e-15 -2.05521 -4.2216)
(-1.90428e-15 -2.00529 -3.12635)
(-1.4239e-15 0.405415 -3.47674)
(-5.18541e-16 1.3235 -0.643663)
(-2.61811e-15 2.96447 6.12116)
(-4.20748e-15 5.07187 12.8693)
(2.2303e-17 3.33576 12.0279)
(8.23094e-15 0.274513 3.13356)
(5.56224e-16 -9.2815 6.1222)
(-1.80148e-15 -7.21959 5.86225)
(-2.23867e-15 -4.87192 5.74781)
(-1.19588e-15 -0.865047 4.74041)
(-6.41279e-16 1.19236 3.34953)
(-8.46816e-16 3.39956 1.76583)
(1.78887e-16 3.06774 -0.609586)
(-2.0686e-16 1.76314 -0.963427)
(-7.596e-16 0.55872 -1.53002)
(-8.51858e-16 -0.832791 -2.98915)
(-1.94625e-15 -1.68077 -4.38579)
(-2.36785e-15 -2.15269 -4.30058)
(-1.74245e-15 -2.03063 -3.75123)
(-1.29587e-15 0.0989606 -3.84956)
(-3.59492e-16 0.51145 -1.6243)
(-1.17253e-15 1.65363 3.12536)
(-3.70196e-15 4.17629 10.2974)
(-4.54599e-15 4.09297 14.1348)
(3.50316e-15 2.79214 8.54664)
(5.10144e-16 -10.5017 6.08841)
(-2.1204e-15 -7.13693 5.82622)
(-2.26329e-15 -4.80698 5.70728)
(-1.06489e-15 -0.611065 5.07945)
(-1.30123e-15 1.50081 3.14894)
(-1.35598e-15 3.79866 1.50702)
(-1.98793e-16 3.32782 -0.651727)
(-2.35073e-16 1.87259 -0.984424)
(-8.08717e-16 0.715911 -1.53406)
(-8.14694e-16 -0.546774 -2.42596)
(-1.69787e-15 -1.52733 -3.94847)
(-2.36652e-15 -2.17421 -4.20622)
(-1.68859e-15 -2.01632 -3.97589)
(-1.17261e-15 -0.183162 -3.93271)
(-4.41917e-16 0.0846988 -2.27292)
(-8.6025e-17 0.572889 -0.284247)
(-1.4146e-15 2.84769 5.74543)
(-3.54413e-15 3.75068 12.8243)
(-3.68954e-15 4.01759 12.4449)
(7.79377e-16 -11.7314 5.58548)
(-2.33823e-15 -7.08124 5.94084)
(-2.38843e-15 -4.77697 5.88381)
(-1.22899e-15 -0.295305 5.17801)
(-2.08104e-15 1.87886 2.45541)
(-2.03254e-15 4.16913 0.850437)
(-8.05719e-16 3.55634 -1.00146)
(-3.2712e-16 1.95906 -1.23464)
(-6.22042e-16 0.808804 -1.55519)
(-7.66127e-16 -0.31797 -2.0302)
(-1.50367e-15 -1.34166 -3.43293)
(-2.25554e-15 -2.14422 -3.93289)
(-1.62319e-15 -2.00927 -3.85419)
(-9.9346e-16 -0.419805 -3.72809)
(-4.11029e-16 -0.0841553 -2.31844)
(-7.93372e-18 -0.0409915 -1.91452)
(-6.78581e-16 1.50673 1.40717)
(-2.57024e-15 2.73963 9.6393)
(-3.39657e-15 4.43849 13.6144)
(1.25514e-15 -12.9421 4.77654)
(-2.45997e-15 -7.10887 6.25765)
(-2.57182e-15 -4.72063 6.1376)
(-1.59105e-15 0.153287 4.70989)
(-2.55356e-15 2.31567 1.53383)
(-2.66234e-15 4.49541 -0.137301)
(-1.57895e-15 3.73898 -1.64173)
(-6.36185e-16 2.00062 -1.74147)
(-4.71795e-16 0.83745 -1.71698)
(-6.05901e-16 -0.144494 -1.9454)
(-1.35708e-15 -1.16172 -2.9614)
(-2.0835e-15 -2.0918 -3.51857)
(-1.48681e-15 -2.00893 -3.48726)
(-7.89123e-16 -0.614628 -3.36301)
(-2.82224e-16 -0.212423 -2.24373)
(-2.51745e-17 -0.136353 -1.62448)
(1.6121e-18 0.543072 -0.968968)
(-1.60435e-15 1.29341 4.68383)
(-3.25261e-15 3.99298 11.3105)
(1.80347e-15 -14.1436 3.84686)
(-2.4893e-15 -7.23614 6.75347)
(-2.76631e-15 -4.56098 6.29556)
(-1.93347e-15 0.697921 4.04778)
(-2.48357e-15 2.79304 0.810433)
(-2.93346e-15 4.80798 -1.23228)
(-2.29237e-15 3.87645 -2.49759)
(-1.19221e-15 1.98934 -2.48525)
(-5.20224e-16 0.82119 -2.09615)
(-3.51178e-16 -0.0274322 -2.27654)
(-1.23555e-15 -1.03856 -2.63984)
(-1.89879e-15 -2.0464 -3.02709)
(-1.2861e-15 -2.00531 -2.9983)
(-5.77807e-16 -0.761426 -2.95024)
(-1.48699e-16 -0.337671 -2.06873)
(1.48676e-17 -0.256243 -1.57457)
(1.69557e-17 0.329268 -1.01734)
(-3.03174e-16 0.111076 -0.422482)
(-2.13087e-15 3.2929 5.61588)
(2.30384e-15 -15.3335 2.98353)
(-2.45329e-15 -7.45311 7.3815)
(-2.9355e-15 -4.2731 6.3232)
(-2.01205e-15 1.30222 3.81038)
(-1.89281e-15 3.3521 0.357344)
(-2.61392e-15 5.15659 -2.18394)
(-2.63481e-15 3.99177 -3.412)
(-1.82379e-15 1.93405 -3.35782)
(-8.48971e-16 0.76422 -2.71351)
(-3.86582e-16 0.00782949 -2.73558)
(-1.22609e-15 -1.01337 -2.44864)
(-1.71767e-15 -2.03024 -2.52414)
(-1.04519e-15 -1.9941 -2.50077)
(-3.84231e-16 -0.865836 -2.56548)
(-4.95231e-17 -0.434561 -1.89447)
(4.12011e-17 -0.345848 -1.48762)
(1.43011e-17 0.206323 -1.11367)
(2.81733e-17 0.00713941 -0.443836)
(-9.49587e-17 -0.00396781 -2.67772)
(2.68188e-15 -16.5801 2.31692)
(-2.39915e-15 -7.72332 8.11425)
(-3.02002e-15 -3.89514 6.22415)
(-1.53518e-15 1.93504 3.57835)
(-7.90486e-16 3.98911 -0.138591)
(-1.65306e-15 5.5586 -2.87689)
(-2.36647e-15 4.11517 -4.0954)
(-2.20784e-15 1.86253 -4.11318)
(-1.36386e-15 0.669701 -3.46143)
(-6.32729e-16 -0.052058 -3.23434)
(-1.31304e-15 -1.08646 -2.31029)
(-1.51877e-15 -2.04748 -2.05498)
(-7.86419e-16 -1.97122 -2.07275)
(-2.25479e-16 -0.933755 -2.24828)
(8.42731e-18 -0.514545 -1.74079)
(4.62959e-17 -0.41028 -1.3962)
(1.47849e-17 0.0750085 -1.09917)
(-2.68348e-18 0.395557 -0.478214)
(-3.45462e-17 0.79811 -4.03023)
(2.9172e-15 -17.8263 1.85696)
(-2.36713e-15 -8.03084 8.99616)
(-2.96283e-15 -3.40428 5.97774)
(-6.14451e-16 2.59341 2.82453)
(6.70508e-16 4.64245 -1.00917)
(-2.11599e-16 5.9471 -3.30048)
(-1.48933e-15 4.24582 -4.19942)
(-2.07816e-15 1.81765 -4.35737)
(-1.77636e-15 0.573145 -4.06239)
(-1.00452e-15 -0.190332 -3.66631)
(-1.43732e-15 -1.24974 -2.14241)
(-1.26409e-15 -2.08937 -1.6535)
(-5.29727e-16 -1.93344 -1.75148)
(-1.06852e-16 -0.974394 -2.00456)
(3.29682e-17 -0.57744 -1.60668)
(3.83681e-17 -0.466233 -1.30592)
(1.10764e-17 -0.0106987 -1.06556)
(-5.65231e-18 0.46853 -0.797267)
(4.56787e-17 0.656001 -0.969182)
(3.03065e-15 -19.3237 1.5321)
(-2.36727e-15 -8.30158 10.0565)
(-2.7744e-15 -2.71679 5.5556)
(8.39348e-17 3.33265 1.25465)
(1.9213e-15 5.20969 -2.48991)
(1.27299e-15 6.19312 -3.61589)
(-3.3285e-16 4.33075 -3.59642)
(-1.4619e-15 1.83706 -3.76352)
(-1.82663e-15 0.522094 -4.14716)
(-1.27412e-15 -0.404185 -3.74166)
(-1.48365e-15 -1.48456 -1.8401)
(-9.46474e-16 -2.13549 -1.3504)
(-3.01051e-16 -1.88223 -1.53891)
(-2.797e-17 -0.998399 -1.81793)
(3.64312e-17 -0.630393 -1.48275)
(2.61373e-17 -0.510073 -1.21158)
(7.32451e-18 -0.0795478 -1.06546)
(-3.64422e-18 0.492085 -0.681912)
(2.94185e-17 0.715081 -1.69105)
(3.05026e-15 -20.6137 1.19511)
(-2.38656e-15 -8.60449 11.4815)
(-2.53852e-15 -1.71492 4.90742)
(-8.63929e-17 4.16223 -1.08252)
(2.23955e-15 5.6143 -4.7779)
(2.21274e-15 6.16043 -4.39474)
(6.11487e-16 4.27148 -2.84057)
(-7.02567e-16 1.9074 -2.61228)
(-1.49692e-15 0.561788 -3.57017)
(-1.2779e-15 -0.635939 -3.41087)
(-1.32738e-15 -1.72975 -1.43895)
(-6.11662e-16 -2.15871 -1.16212)
(-1.30464e-16 -1.82332 -1.40708)
(1.33924e-17 -1.01493 -1.66204)
(2.93842e-17 -0.67746 -1.35853)
(1.52289e-17 -0.544123 -1.11923)
(4.03219e-18 -0.149041 -1.01822)
(-2.9367e-18 0.549062 -0.688643)
(3.3266e-17 0.739312 -1.09645)
(3.00598e-15 -22.8539 0.816679)
(-2.39164e-15 -8.73961 13.1378)
(-2.30558e-15 -0.128418 4.16857)
(-1.14348e-15 5.18383 -3.99681)
(1.30536e-15 5.86993 -8.1452)
(2.18575e-15 5.79277 -6.59052)
(1.08094e-15 3.97166 -3.22998)
(-1.06673e-16 1.94742 -2.00633)
(-1.01175e-15 0.671012 -2.89762)
(-1.0441e-15 -0.846177 -2.87231)
(-9.63952e-16 -1.94008 -1.07595)
(-3.29393e-16 -2.15211 -1.07086)
(-3.38397e-17 -1.7695 -1.31313)
(2.42756e-17 -1.03379 -1.51429)
(1.91703e-17 -0.722095 -1.23275)
(7.76856e-18 -0.572216 -1.02613)
(1.9039e-18 -0.189136 -0.967754)
(-2.57264e-18 0.543321 -0.638387)
(3.51019e-17 0.754839 -0.943095)
(2.89439e-15 -23.5121 0.231826)
(-2.38074e-15 -9.14336 15.633)
(-2.54522e-15 2.1519 3.00508)
(-2.79914e-15 6.52623 -7.54977)
(-7.67621e-16 6.12524 -12.7348)
(1.06765e-15 5.16782 -10.8385)
(1.07753e-15 3.36554 -5.87182)
(3.33538e-16 1.81659 -2.9286)
(-5.45303e-16 0.719208 -2.85723)
(-7.32147e-16 -1.01444 -2.40666)
(-5.27485e-16 -2.08876 -0.864546)
(-1.39998e-16 -2.11531 -1.0316)
(1.01549e-18 -1.71861 -1.22145)
(1.78608e-17 -1.04817 -1.36437)
(1.01793e-17 -0.75812 -1.11045)
(3.54729e-18 -0.59277 -0.937432)
(8.99131e-19 -0.22679 -0.911999)
(-1.96918e-18 0.557252 -0.595106)
(3.2344e-17 0.749061 -0.90468)
(2.73909e-15 -28.4679 -0.243061)
(-2.39322e-15 -8.71828 17.7409)
(-3.79473e-15 4.45947 0.666968)
(-4.91623e-15 8.22575 -12.4668)
(-3.52851e-15 6.49739 -18.3991)
(-1.0125e-15 4.41561 -16.679)
(4.58711e-16 2.41395 -10.7039)
(6.05731e-16 1.35081 -5.585)
(-5.83096e-17 0.542264 -3.52956)
(-4.42988e-16 -1.28256 -2.11261)
(-1.83313e-16 -2.2329 -0.822803)
(-3.83736e-17 -2.10085 -1.00282)
(3.9766e-18 -1.70157 -1.12085)
(7.67599e-18 -1.0814 -1.21891)
(4.20651e-18 -0.801478 -1.00098)
(1.46029e-18 -0.613187 -0.85883)
(4.46761e-19 -0.262355 -0.855638)
(-1.19813e-18 0.545604 -0.55216)
(2.55857e-17 0.735105 -0.708338)
(2.53488e-15 -24.5291 -1.2882)
(-2.58112e-15 -9.58831 22.5151)
(-4.82723e-15 7.8849 -4.6374)
(-6.54824e-15 10.1499 -18.7832)
(-5.95242e-15 6.91041 -23.8228)
(-3.45799e-15 3.63846 -22.2292)
(-9.20859e-16 1.17574 -16.355)
(4.34817e-16 0.445073 -9.60359)
(2.64649e-16 0.286617 -4.86858)
(-2.2411e-16 -1.45854 -1.97212)
(-6.95477e-18 -2.2702 -0.875921)
(3.02888e-18 -2.02496 -0.957317)
(-1.84053e-19 -1.63707 -1.01142)
(1.10399e-18 -1.06239 -1.07932)
(1.14989e-18 -0.801733 -0.898508)
(5.1987e-19 -0.613177 -0.781891)
(2.05955e-19 -0.289917 -0.792274)
(-5.65177e-19 0.528296 -0.504)
(1.55996e-17 0.725056 -0.598802)
(2.15307e-15 -41.7306 -0.688014)
(-2.54054e-15 -6.12552 22.7905)
(-3.42809e-15 13.4534 -12.0561)
(-5.61956e-15 12.2796 -23.515)
(-6.17551e-15 7.34344 -24.5901)
(-4.83298e-15 3.08289 -23.264)
(-2.46207e-15 -0.0486894 -19.7866)
(-2.11936e-16 -1.3051 -12.8759)
(3.10834e-16 -1.45987 -5.88508)
(-7.84259e-17 -2.301 -1.91825)
(3.65712e-17 -2.57257 -0.950611)
(1.18269e-17 -2.18038 -0.898973)
(-1.90178e-18 -1.74447 -0.916487)
(-1.10507e-18 -1.17726 -0.967268)
(1.90597e-20 -0.902394 -0.823989)
(1.38187e-19 -0.663337 -0.727278)
(7.83226e-20 -0.323171 -0.746644)
(-2.1112e-19 0.528568 -0.454753)
(8.11786e-18 0.727309 -0.569047)
(2.41958e-15 -12.6344 -5.28976)
(-2.7207e-15 -10.558 36.8994)
(3.07123e-16 17.7497 -19.3497)
(-1.6817e-15 13.0388 -20.0902)
(-3.14601e-15 6.85116 -14.2866)
(-3.3763e-15 2.73172 -13.39)
(-2.67372e-15 -0.729528 -16.7056)
(-4.78787e-16 -1.57777 -13.0535)
(3.40114e-16 -0.901382 -5.81596)
(9.36615e-18 -1.84282 -1.75938)
(2.34203e-17 -2.1214 -0.92302)
(8.13453e-18 -1.7535 -0.785522)
(-1.34537e-18 -1.40906 -0.784234)
(-1.03772e-18 -0.927022 -0.822569)
(-1.94138e-19 -0.706621 -0.721381)
(1.22905e-20 -0.551937 -0.64274)
(2.23538e-20 -0.299851 -0.664267)
(-5.97721e-20 0.492943 -0.398684)
(3.76739e-18 0.684579 -0.423128)
(-1.20319e-15 -89.3913 10.8163)
(-2.05577e-15 7.8355 22.2238)
(3.49048e-15 17.7928 -22.9086)
(1.5556e-15 9.90668 -3.15992)
(1.61859e-16 4.6423 2.10791)
(-1.7361e-16 2.90485 2.92562)
(-1.26674e-15 -0.477459 -7.79927)
(-1.60273e-16 -4.64477 -10.5584)
(3.74121e-16 -5.52356 -5.16915)
(4.06542e-17 -4.73485 -1.70172)
(3.77547e-18 -3.73798 -0.964327)
(3.20325e-18 -2.95369 -0.756653)
(-4.30769e-19 -2.2767 -0.777028)
(-4.9358e-19 -1.61306 -0.825794)
(-1.34006e-19 -1.27994 -0.754405)
(-1.36413e-20 -0.925779 -0.65497)
(3.58377e-21 -0.453146 -0.628174)
(-6.28348e-21 0.399201 -0.358337)
(8.08919e-19 0.576722 -0.392334)
(1.26925e-14 70.4984 -52.4732)
(-1.63472e-15 -28.7473 85.3745)
(3.93881e-15 32.3792 -22.638)
(9.3889e-16 9.1969 14.9446)
(3.55224e-16 7.27537 3.9228)
(4.33866e-16 5.48456 5.22842)
(3.90247e-16 2.02672 -0.685575)
(2.13675e-16 0.396239 -7.54621)
(3.01656e-16 1.95747 -3.24579)
(2.84139e-17 1.13209 -0.904555)
(-4.0617e-18 0.345181 -0.465594)
(7.74427e-19 0.227641 -0.384127)
(-2.56145e-20 0.0977949 -0.323401)
(-1.56949e-19 0.184221 -0.30495)
(-5.49263e-20 0.198793 -0.235622)
(-9.47578e-21 0.169037 -0.235006)
(-5.07801e-22 -0.0151508 -0.520377)
(2.67829e-21 0.536938 -0.345762)
(-1.27344e-19 0.792811 -0.242056)
(-4.99051e-14 -261.22 210.924)
(4.0531e-15 48.3817 -60.4864)
(2.38028e-15 42.2855 -13.9585)
(-2.01984e-16 8.56683 12.9323)
(-5.42926e-17 10.0723 0.188591)
(-5.725e-18 6.38584 1.57267)
(4.9412e-16 3.42291 2.88623)
(1.54984e-15 -9.75367 -6.3554)
(5.5384e-16 -16.249 -5.71381)
(-9.96433e-18 -13.4161 -2.54351)
(-1.41575e-17 -9.64258 -1.74737)
(-1.68511e-19 -7.34681 -1.26985)
(2.42636e-19 -5.49957 -1.61578)
(9.22744e-21 -3.9599 -1.89817)
(-1.39458e-20 -3.17544 -2.20305)
(-5.23806e-21 -2.43405 -2.22411)
(-1.18559e-21 -1.28291 -1.7382)
(-6.33187e-22 0.505838 -0.276048)
(3.26912e-20 0.923504 -0.205802)
(-1.30111e-17 5.20073 9.53832)
(-5.95167e-15 9.83215 16.805)
(-5.11096e-15 9.9768 17.0695)
(-5.09735e-15 9.7063 16.3525)
(-4.80021e-15 9.65493 16.1737)
(-6.85968e-15 9.70431 16.128)
(-5.27615e-15 9.72448 16.1016)
(-4.70535e-15 9.75537 16.074)
(-4.85641e-15 9.76106 16.0519)
(-4.79577e-15 9.79162 16.0497)
(-4.6893e-15 9.7736 16.0269)
(-4.75621e-15 9.69807 15.8297)
(-4.55403e-15 9.74252 15.9768)
(-4.74215e-15 9.7497 16.0408)
(-4.5252e-15 9.73584 16.0689)
(-4.26262e-15 9.69223 16.1135)
(-4.58976e-15 9.68086 16.1139)
(-4.57456e-15 9.77682 16.5075)
(-4.271e-15 10.2907 17.1873)
(-6.70268e-15 6.40776 11.1812)
(1.15413e-16 4.81801 8.07791)
(-5.02288e-15 9.2422 15.7929)
(-4.06169e-15 9.10178 15.5738)
(-4.23684e-15 8.78321 15.0266)
(-4.06174e-15 8.76781 15.0308)
(-6.32997e-15 8.80634 15.0648)
(-4.02917e-15 8.81339 15.0977)
(-3.87918e-15 8.83693 15.1197)
(-4.21717e-15 8.84975 15.1515)
(-4.12532e-15 8.86602 15.1753)
(-4.19267e-15 8.88416 15.21)
(-3.86291e-15 8.92355 15.2811)
(-3.76673e-15 8.93653 15.2791)
(-4.38503e-15 8.93969 15.3068)
(-3.81975e-15 8.9626 15.3335)
(-3.93943e-15 8.9573 15.3694)
(-3.99042e-15 8.98389 15.3932)
(-3.80216e-15 9.16241 15.7771)
(-3.70272e-15 9.55474 16.409)
(-6.23988e-15 5.69957 9.91862)
(-7.87254e-18 5.50933 9.58867)
(-1.67037e-15 9.60913 16.4303)
(-1.44568e-15 9.3025 16.0276)
(-1.43421e-15 9.05877 15.545)
(-1.46404e-15 9.02437 15.531)
(-3.42539e-15 9.04291 15.5297)
(-2.09557e-15 9.0311 15.5349)
(-1.95156e-15 9.03834 15.5305)
(-2.12663e-15 9.03162 15.534)
(-1.97571e-15 9.03562 15.535)
(-1.87553e-15 9.03273 15.5379)
(-1.77566e-15 9.02631 15.5333)
(-1.76198e-15 9.02874 15.5449)
(-2.08023e-15 9.02579 15.5567)
(-1.83841e-15 9.03236 15.5602)
(-1.8829e-15 9.01636 15.5723)
(-1.87297e-15 9.03331 15.5712)
(-1.90523e-15 9.20158 15.9419)
(-1.60976e-15 9.60382 16.5538)
(-2.95765e-15 5.8051 10.1802)
(-1.22315e-18 5.575 9.60021)
(4.23007e-16 9.46988 16.2516)
(3.51886e-16 9.12099 15.7276)
(3.44665e-16 8.90072 15.3088)
(3.18022e-16 8.8805 15.3172)
(-1.92055e-15 8.90017 15.3259)
(-2.09483e-15 8.89163 15.3395)
(-1.80166e-15 8.90075 15.3433)
(-2.05858e-15 8.89677 15.3544)
(-1.83526e-15 8.90195 15.3606)
(-1.97608e-15 8.90135 15.3704)
(-1.96848e-15 8.90485 15.3814)
(-1.97995e-15 8.90732 15.3877)
(-2.04853e-15 8.90458 15.3993)
(-1.77901e-15 8.91235 15.4047)
(-1.83625e-15 8.90033 15.4165)
(-1.9917e-15 8.91642 15.4182)
(-1.89712e-15 9.0922 15.7807)
(-1.49619e-15 9.48549 16.4137)
(-2.67123e-15 5.81191 10.1562)
(7.96317e-19 5.84935 10.1232)
(-9.59004e-17 9.52635 16.3459)
(-8.54397e-17 9.11493 15.7362)
(-8.01903e-17 8.92544 15.3618)
(-7.37097e-17 8.90406 15.3716)
(4.77913e-16 8.91938 15.3743)
(4.64994e-16 8.90785 15.3834)
(4.482e-16 8.91363 15.3834)
(4.78417e-16 8.90678 15.3903)
(4.57725e-16 8.90916 15.3929)
(4.39377e-16 8.90563 15.3986)
(4.20979e-16 8.90491 15.4029)
(4.10116e-16 8.90474 15.4079)
(4.69512e-16 8.90112 15.4157)
(4.20507e-16 8.90565 15.4182)
(4.24287e-16 8.89326 15.4257)
(4.33849e-16 8.90587 15.4227)
(4.37325e-16 9.06535 15.7554)
(3.83138e-16 9.47837 16.4226)
(6.55878e-16 5.97117 10.4523)
(-2.97178e-19 6.02064 10.3985)
(2.16552e-17 9.49024 16.2999)
(2.01437e-17 9.04895 15.6242)
(1.9105e-17 8.88228 15.2955)
(1.80974e-17 8.8659 15.3102)
(-1.19292e-16 8.88028 15.3139)
(-1.01435e-16 8.87019 15.324)
(-1.02857e-16 8.87608 15.3254)
(-1.12826e-16 8.87017 15.3333)
(-1.03144e-16 8.87286 15.3369)
(-9.85342e-17 8.86976 15.3435)
(-9.81844e-17 8.87014 15.349)
(-9.26132e-17 8.86978 15.3544)
(-1.09161e-16 8.86709 15.362)
(-9.62658e-17 8.87092 15.3655)
(-1.01732e-16 8.86071 15.3732)
(-9.9105e-17 8.87044 15.3692)
(-1.05461e-16 9.01365 15.6673)
(-9.79523e-17 9.44664 16.3793)
(-1.50382e-16 6.12925 10.7199)
(9.63089e-20 6.22363 10.7532)
(-5.02707e-18 9.48336 16.2914)
(-4.74163e-18 9.01384 15.5671)
(-4.71155e-18 8.87009 15.2784)
(-4.51677e-18 8.85538 15.2946)
(2.88953e-17 8.86798 15.2968)
(2.32482e-17 8.85798 15.3056)
(2.38524e-17 8.86293 15.3066)
(2.6913e-17 8.85693 15.3135)
(2.34885e-17 8.85902 15.3164)
(2.26331e-17 8.85555 15.3223)
(2.38513e-17 8.85565 15.3267)
(2.27314e-17 8.85455 15.3318)
(2.56087e-17 8.85227 15.3383)
(2.34514e-17 8.85486 15.3416)
(2.33827e-17 8.84611 15.3484)
(2.3763e-17 8.85312 15.3431)
(2.47803e-17 8.97797 15.6045)
(2.39651e-17 9.42801 16.35)
(3.45449e-17 6.30938 11.0328)
(-2.8574e-20 6.40965 11.0673)
(1.18828e-18 9.45625 16.2516)
(1.11582e-18 8.97035 15.4925)
(1.15249e-18 8.84739 15.2429)
(1.11088e-18 8.83512 15.2604)
(-6.75241e-18 8.84651 15.2625)
(-5.60881e-18 8.83739 15.271)
(-5.53076e-18 8.84198 15.2724)
(-6.29294e-18 8.83653 15.2792)
(-5.42406e-18 8.83855 15.2823)
(-5.33875e-18 8.83528 15.2882)
(-5.75424e-18 8.83569 15.2926)
(-5.62925e-18 8.83433 15.2979)
(-5.98166e-18 8.83283 15.3039)
(-5.72856e-18 8.83457 15.3079)
(-5.39093e-18 8.82767 15.3145)
(-5.75917e-18 8.83243 15.3091)
(-5.76027e-18 8.93996 15.5349)
(-5.56305e-18 9.40042 16.304)
(-7.72913e-18 6.48815 11.3396)
(8.02806e-21 6.5995 11.392)
(-2.81493e-19 9.42935 16.2099)
(-2.62659e-19 8.93386 15.4303)
(-2.74708e-19 8.83065 15.2169)
(-2.68959e-19 8.8199 15.2347)
(1.57144e-18 8.83002 15.2362)
(1.37935e-18 8.82154 15.2442)
(1.29256e-18 8.82558 15.2456)
(1.42358e-18 8.82052 15.252)
(1.28916e-18 8.82227 15.2549)
(1.2625e-18 8.81909 15.2607)
(1.3708e-18 8.81959 15.2647)
(1.35161e-18 8.8179 15.27)
(1.39314e-18 8.81702 15.2754)
(1.38484e-18 8.81785 15.2797)
(1.27593e-18 8.81259 15.2859)
(1.36828e-18 8.81539 15.2808)
(1.34503e-18 8.90638 15.4726)
(1.27826e-18 9.37024 16.2523)
(1.70522e-18 6.6692 11.6514)
(-2.18153e-21 6.78558 11.7084)
(6.66082e-20 9.39439 16.1551)
(6.21585e-20 8.89786 15.3685)
(6.40838e-20 8.81288 15.1891)
(6.47266e-20 8.8035 15.2068)
(-3.7131e-19 8.81249 15.208)
(-3.37497e-19 8.80479 15.2155)
(-3.05599e-19 8.80836 15.2172)
(-3.1694e-19 8.80382 15.2233)
(-3.13246e-19 8.80536 15.2263)
(-2.96473e-19 8.80239 15.2318)
(-3.26043e-19 8.80304 15.2357)
(-3.17713e-19 8.80114 15.2411)
(-3.25069e-19 8.8009 15.2461)
(-3.31798e-19 8.80091 15.2508)
(-3.08339e-19 8.79731 15.2567)
(-3.19307e-19 8.79842 15.2524)
(-3.13591e-19 8.8743 15.4125)
(-2.9884e-19 9.33402 16.1901)
(-3.78186e-19 6.84904 11.9605)
(5.78255e-22 6.97114 12.0245)
(-1.5754e-20 9.35482 16.0919)
(-1.48054e-20 8.86502 15.3122)
(-1.48035e-20 8.79677 15.1641)
(-1.5561e-20 8.78839 15.181)
(8.86222e-20 8.7963 15.182)
(8.12399e-20 8.78933 15.189)
(7.30732e-20 8.79241 15.1908)
(7.146e-20 8.78836 15.1966)
(7.63146e-20 8.78963 15.1996)
(6.93918e-20 8.7869 15.2049)
(7.77396e-20 8.7876 15.2086)
(7.4734e-20 8.78554 15.2141)
(7.61094e-20 8.78586 15.2186)
(7.88037e-20 8.78508 15.2237)
(7.47474e-20 8.78303 15.2291)
(7.42058e-20 8.78266 15.2261)
(7.26325e-20 8.84484 15.3569)
(7.15589e-20 9.29286 16.1192)
(8.52918e-20 7.02829 12.2687)
(-1.50063e-22 7.15503 12.3375)
(3.72018e-21 9.30929 16.0185)
(3.53473e-21 8.83428 15.2594)
(3.41909e-21 8.78113 15.1399)
(3.73691e-21 8.77353 15.1556)
(-2.10825e-20 8.78046 15.1566)
(-1.92159e-20 8.77423 15.1631)
(-1.76109e-20 8.77682 15.1651)
(-1.66037e-20 8.7733 15.1705)
(-1.8421e-20 8.77428 15.1736)
(-1.63258e-20 8.77186 15.1787)
(-1.84812e-20 8.77255 15.1823)
(-1.77557e-20 8.77042 15.1878)
(-1.78947e-20 8.77123 15.1918)
(-1.85425e-20 8.76973 15.1974)
(-1.79041e-20 8.76915 15.2021)
(-1.73359e-20 8.76748 15.2007)
(-1.68159e-20 8.81758 15.305)
(-1.74465e-20 9.24621 16.039)
(-1.95836e-20 7.20647 12.5748)
(3.83045e-23 7.3378 12.6486)
(-8.75931e-22 9.2584 15.9358)
(-8.42472e-22 8.80611 15.2109)
(-7.93186e-22 8.76636 15.1171)
(-8.95852e-22 8.75935 15.1314)
(4.96772e-21 8.76537 15.1324)
(4.49667e-21 8.75985 15.1384)
(4.25224e-21 8.76196 15.1406)
(3.96383e-21 8.75896 15.1456)
(4.40146e-21 8.75963 15.1488)
(3.89292e-21 8.75756 15.1536)
(4.35306e-21 8.75816 15.1572)
(4.24463e-21 8.75605 15.1626)
(4.23173e-21 8.75724 15.1663)
(4.33012e-21 8.75513 15.1722)
(4.22469e-21 8.7559 15.1763)
(4.0867e-21 8.75305 15.1767)
(3.93451e-21 8.79273 15.2572)
(4.28302e-21 9.19428 15.9497)
(4.54307e-21 7.38372 12.8792)
(-9.66275e-24 7.51934 12.9575)
(2.05701e-22 9.20191 15.8434)
(2.00363e-22 8.78031 15.1666)
(1.85047e-22 8.75222 15.0953)
(2.14598e-22 8.74564 15.1081)
(-1.16188e-21 8.75084 15.1091)
(-1.05153e-21 8.74602 15.1146)
(-1.02234e-21 8.74766 15.117)
(-9.57911e-22 8.7452 15.1216)
(-1.04483e-21 8.74554 15.1249)
(-9.43633e-22 8.74385 15.1295)
(-1.01521e-21 8.74431 15.133)
(-1.01385e-21 8.74233 15.1383)
(-1.00701e-21 8.74376 15.1417)
(-1.00863e-21 8.74117 15.1479)
(-9.88738e-22 8.74315 15.1514)
(-9.72052e-22 8.73923 15.1537)
(-9.35092e-22 8.77023 15.2133)
(-1.04765e-21 9.13694 15.8513)
(-1.05382e-21 7.56 13.1816)
(2.41383e-24 7.69989 13.2645)
(-4.82215e-23 9.13992 15.7414)
(-4.76298e-23 8.75695 15.1265)
(-4.34335e-23 8.73878 15.0745)
(-5.14279e-23 8.73251 15.0858)
(2.71172e-22 8.73697 15.0868)
(2.475e-22 8.73282 15.0919)
(2.43831e-22 8.73399 15.0945)
(2.31157e-22 8.73205 15.0987)
(2.47134e-22 8.73206 15.1021)
(2.31453e-22 8.73077 15.1064)
(2.35821e-22 8.73101 15.1099)
(2.41029e-22 8.72928 15.115)
(2.40575e-22 8.73077 15.1183)
(2.35831e-22 8.72792 15.1246)
(2.3146e-22 8.73089 15.1275)
(2.32525e-22 8.72601 15.1316)
(2.24836e-22 8.75008 15.1733)
(2.53843e-22 9.07421 15.7438)
(2.42798e-22 7.73531 13.4819)
(-5.96753e-25 7.87976 13.5702)
(1.12821e-23 9.0725 15.6298)
(1.13278e-23 8.73614 15.0909)
(1.02592e-23 8.72618 15.055)
(1.23236e-23 8.72014 15.0647)
(-6.33977e-23 8.72388 15.0658)
(-5.87116e-23 8.72045 15.0704)
(-5.76776e-23 8.7211 15.0731)
(-5.53581e-23 8.71966 15.077)
(-5.83144e-23 8.71937 15.0804)
(-5.69098e-23 8.71842 15.0844)
(-5.50414e-23 8.71839 15.088)
(-5.70255e-23 8.71701 15.0927)
(-5.7449e-23 8.71831 15.096)
(-5.55817e-23 8.71547 15.1022)
(-5.44302e-23 8.71909 15.1046)
(-5.56665e-23 8.71341 15.1105)
(-5.42445e-23 8.73225 15.1373)
(-6.09289e-23 9.00613 15.6274)
(-5.5533e-23 7.90969 13.7798)
(1.45957e-25 8.05937 13.8752)
(-2.63149e-24 8.99947 15.5081)
(-2.69305e-24 8.7178 15.0597)
(-2.43677e-24 8.71455 15.0366)
(-2.94686e-24 8.70877 15.0447)
(1.48545e-23 8.71173 15.0461)
(1.39948e-23 8.70916 15.0501)
(1.3569e-23 8.70929 15.053)
(1.31635e-23 8.7083 15.0564)
(1.3737e-23 8.70781 15.0598)
(1.38967e-23 8.70712 15.0635)
(1.29878e-23 8.70686 15.0672)
(1.34503e-23 8.70587 15.0715)
(1.36629e-23 8.70673 15.0749)
(1.32053e-23 8.70427 15.0809)
(1.28553e-23 8.70799 15.0831)
(1.32861e-23 8.70176 15.0903)
(1.30474e-23 8.71697 15.1052)
(1.4547e-23 8.93308 15.5027)
(1.26567e-23 8.08318 14.0752)
(-3.53838e-26 8.23966 14.1804)
(6.11355e-25 8.92059 15.3748)
(6.38572e-25 8.70165 15.0324)
(5.80286e-25 8.70362 15.0189)
(7.0167e-25 8.6985 15.0253)
(-3.479e-24 8.70034 15.0269)
(-3.33695e-24 8.69873 15.0302)
(-3.18478e-24 8.69839 15.033)
(-3.11708e-24 8.6977 15.0361)
(-3.23171e-24 8.69712 15.0394)
(-3.34762e-24 8.69657 15.0428)
(-3.09599e-24 8.69617 15.0463)
(-3.16668e-24 8.69556 15.0503)
(-3.23011e-24 8.69586 15.054)
(-3.14956e-24 8.69426 15.0594)
(-3.04099e-24 8.69725 15.0619)
(-3.15592e-24 8.69129 15.07)
(-3.1183e-24 8.70425 15.0762)
(-3.46882e-24 8.85558 15.3705)
(-2.88883e-24 8.25515 14.3662)
(8.62776e-27 8.42319 14.4926)
(-1.43026e-25 8.83808 15.2311)
(-1.52329e-25 8.69069 15.012)
(-1.39516e-25 8.69522 15.0051)
(-1.67915e-25 8.69182 15.0089)
(8.20699e-25 8.69212 15.0105)
(8.01426e-25 8.69115 15.0126)
(7.55096e-25 8.69035 15.0148)
(7.44716e-25 8.68951 15.0171)
(7.67427e-25 8.68862 15.0197)
(8.01294e-25 8.68775 15.0224)
(7.49629e-25 8.68689 15.0254)
(7.52315e-25 8.68605 15.0287)
(7.67445e-25 8.68543 15.0321)
(7.58208e-25 8.68433 15.0364)
(7.26079e-25 8.68532 15.0397)
(7.53739e-25 8.68103 15.0469)
(7.47608e-25 8.69107 15.0483)
(8.35462e-25 8.77265 15.2324)
(6.68246e-25 8.42326 14.6449)
(-1.78269e-27 8.61058 14.8239)
(2.8106e-26 8.7527 15.0801)
(3.04314e-26 8.69281 15.0032)
(2.8102e-26 8.695 15.0014)
(3.38233e-26 8.69442 15.0021)
(-1.61436e-25 8.69407 15.0026)
(-1.61198e-25 8.69366 15.0031)
(-1.50736e-25 8.69305 15.0038)
(-1.49555e-25 8.69232 15.0046)
(-1.53061e-25 8.69143 15.0056)
(-1.58593e-25 8.69038 15.0067)
(-1.52052e-25 8.68914 15.008)
(-1.50192e-25 8.68772 15.0095)
(-1.52827e-25 8.68604 15.0113)
(-1.52695e-25 8.68417 15.0133)
(-1.45635e-25 8.68208 15.0156)
(-1.51107e-25 8.67892 15.0189)
(-1.49622e-25 8.67938 15.02)
(-1.69439e-25 8.69418 15.0844)
(-1.30736e-25 8.5934 14.8933)
(2.58929e-15 -0.0538141 -3.12621)
(4.36684e-15 -0.265993 -3.42856)
(2.96633e-15 -0.31772 -1.70191)
(1.75682e-15 -0.220398 -1.40847)
(7.98225e-16 -0.0956119 -0.861915)
(-4.49076e-16 -0.670586 1.36761)
(-1.31312e-15 -1.10285 3.26425)
(-1.5239e-15 -1.30148 3.42918)
(-1.90128e-15 -1.41123 3.90403)
(-3.08056e-15 -2.51892 7.07637)
(-2.68349e-15 -3.07779 6.62041)
(-2.1911e-15 -3.28485 6.82881)
(-1.19627e-15 -4.81055 10.0605)
(4.63833e-16 -4.94208 7.81316)
(1.60025e-15 -5.70536 7.82097)
(2.58586e-15 -5.66705 7.7071)
(5.12304e-15 -7.86915 10.4437)
(4.17657e-15 -7.31902 7.3665)
(4.25038e-15 -7.71923 7.44524)
(4.70269e-15 -10.5425 10.2657)
(2.95719e-15 -8.53889 9.29201)
(1.74763e-15 -8.72338 10.4614)
(4.92267e-16 -8.48853 10.5776)
(-1.14059e-15 -8.56625 10.8396)
(-2.54106e-15 -8.61146 11.1988)
(-3.41129e-15 -8.7545 11.7127)
(-3.78697e-15 -8.90878 12.2758)
(-3.89814e-15 -8.91743 12.7902)
(8.14347e-16 -9.274 13.7425)
(-2.28421e-15 -8.49502 14.1639)
(-1.46143e-15 -8.42293 14.9411)
(-1.03878e-15 -8.3862 15.3244)
(-6.38326e-16 -8.3212 15.4169)
(-2.65883e-16 -8.23556 15.0025)
(1.60703e-16 -8.07379 14.0242)
(5.0078e-16 -7.81126 12.6406)
(1.06324e-15 -7.45591 11.2303)
(1.78473e-15 -6.98501 9.94823)
(2.61147e-15 -2.86737 -0.0305817)
(1.46798e-15 -5.66178 4.10307)
(1.53767e-15 -3.11446 -0.9893)
(2.27311e-15 -7.29483 1.3071)
(2.00762e-15 -5.56925 0.0929129)
(1.57626e-15 -5.20922 -0.0946462)
(2.2457e-15 -6.80455 -0.349735)
(1.55824e-15 -4.72904 -0.629558)
(2.41423e-15 -6.00258 -1.09041)
(1.90227e-15 -5.08601 -1.68278)
(1.44717e-15 -4.11913 -1.54164)
(1.98231e-15 -5.12063 -2.3675)
(1.23667e-15 -3.03968 -1.92999)
(1.8485e-15 -3.71249 -3.07589)
(1.2063e-15 -2.2894 -2.78141)
(8.22101e-16 -1.29314 -1.99027)
(1.19599e-15 -1.42661 -3.04169)
(5.74808e-16 -0.378416 -1.55279)
(2.71962e-16 0.4597 -1.06368)
(-1.47813e-16 0.507311 1.60005)
(8.46849e-16 0.372865 1.56213)
(-6.85514e-15 0.627372 3.70506)
(1.00051e-15 0.4999 -2.26003)
(1.75777e-15 -0.194927 -6.30703)
(9.60114e-16 -0.481627 -0.812358)
(2.53042e-15 0.747594 4.73114)
(2.64028e-15 0.695706 -0.398897)
(1.95499e-15 0.243202 -1.73883)
(4.70562e-16 -0.254979 0.974792)
(1.05643e-15 -0.411406 5.25779)
(1.34233e-15 -0.295963 8.03475)
(1.38256e-15 -0.0883859 9.12448)
(1.33981e-15 0.0398217 9.06344)
(1.28085e-15 0.145538 8.14025)
(1.23976e-15 0.283376 5.97357)
(1.24045e-15 0.519544 2.11008)
(1.37624e-15 0.646463 -3.54548)
(1.63508e-15 0.642455 -9.86379)
(1.89919e-15 -0.0492237 -15.1888)
(1.53475e-15 -0.949844 -11.2687)
(-1.50214e-15 -0.494012 0.999813)
(1.8681e-15 1.45017 -2.27357)
(3.45075e-15 -0.205547 -6.3376)
(2.54314e-15 -1.70957 -4.25012)
(2.24477e-15 -0.103272 1.77071)
(2.73735e-15 0.712535 0.0386764)
(1.51824e-15 -0.4316 1.89188)
(1.19469e-15 -1.10923 6.15404)
(1.4653e-15 -0.983969 9.9593)
(1.14921e-15 -0.457128 10.6636)
(8.94152e-16 -0.074529 10.4757)
(7.80776e-16 0.15723 10.1672)
(7.28604e-16 0.457166 9.26969)