/*--------------------------------*- C++ -*----------------------------------*\
| =========                 |                                                 |
| \\      /  F ield         | OpenFOAM: The Open Source CFD Toolbox           |
|  \\    /   O peration     | Version:  4.1                                   |
|   \\  /    A nd           | Web:      www.OpenFOAM.org                      |
|    \\/     M anipulation  |                                                 |
\*---------------------------------------------------------------------------*/
FoamFile
{
    version     2.0;
    format      ascii;
    class       surfaceScalarField;
    location    "8";
    object      phi;
}
// * * * * * * * * * * * * * * * * * * * * * * * * * * * * * * * * * * * * * //

dimensions      [0 3 -1 0 0 0 0];

internalField   nonuniform List<scalar> 
3120
(
4891.07
-55.1066
4891.07
4885.07
6.00437
4885.07
4972.83
-87.7644
5074.56
-101.729
5074.56
5237.73
-163.169
5422.41
-184.675
5422.41
5676.49
-254.088
5676.5
5996.15
-319.658
6378.64
-382.481
6378.63
6857.83
-479.186
6857.82
7566.01
-708.184
7879.82
-313.819
7879.82
8471.51
10858.6
-1395.9
11843.9
12809.1
13778.3
14754.1
15736.5
16724.4
17717.4
18714.9
19718.5
18019.7
2701.06
19042.2
20072.6
21107.8
22147.2
23195.1
24288.8
25378.9
26074.8
19891
6183.83
19891
19891
12566
7325
12566
12566
12566
5257.94
7308.07
5257.94
5257.94
16.5672
5241.39
16.5954
16.6315
16.6406
-634.721
651.366
-634.721
-634.716
-634.717
-602.122
-32.5884
-532.116
2039.76
87.0984
14722.3
-224.113
15883.3
-225.074
15651.8
-1159.61
14769.3
-2069.26
13154.5
-2846.43
14348.6
-2768.87
6435.97
-1918.09
-7951.66
-1032.56
-13841.5
-612.817
-10935
-652.93
-1520.99
-330.707
4167.83
639.666
-2167.84
-301.538
-7293.45
-4415.19
-8875.32
-7375.83
-12131.2
-5150.6
-11322.4
-6847.92
-1317.5
2853.83
-63.1327
13467.9
-495.682
16315.8
-329.248
15485.4
-1064
15504.1
-1919.22
14009.7
-2693.31
15122.7
-2479.39
6222.05
-1570.66
-8860.39
-797.097
-14615.1
-626.027
-11106
-432.553
-1714.47
292.465
3442.81
781.829
-2657.2
-10.7592
-6500.86
-3236.99
-5649.09
-7124.96
-8243.23
-6975.34
-11472
-13171.9
-1416.18
3863.24
-213.225
12264.9
-737.31
16839.9
-474.239
15222.3
-1038.7
16068.6
-1823.67
14794.7
-2567.01
15866
-2208.88
5863.92
-1269.43
-9799.84
-619.398
-15265.1
-685.689
-11039.7
-362.508
-2037.65
640.505
2439.8
774.695
-2791.39
-178.574
-5547.59
-2264.6
-3563.06
-5658.72
-4849.11
-7495.19
-9635.57
-15425.7
-1416.46
4964.28
-421.297
11269.8
-972.166
17390.8
-658.179
14908.3
-1106.25
16516.6
-1822
15510.4
-2474.71
16518.7
-1939.93
5329.14
-996.173
-10743.6
-514.496
-15746.8
-763.686
-10790.5
-400.935
-2400.4
612.704
1426.16
613.269
-2791.96
-132.084
-4802.24
-1021.08
-2674.07
-3412.13
-2458.06
-6544.49
-6503.21
-14662.1
-1636.91
6371.97
-849.334
10482.2
-1329.62
17871.1
-984.319
14563
-1334.78
16867.1
-1941.12
16116.8
-2403.01
16980.6
-1621.69
4547.81
-687.538
-11677.7
-457.94
-15976.4
-847.586
-10400.9
-448.524
-2799.46
406.563
571.074
275.924
-2661.32
-205.429
-4320.88
-48.4708
-2831.03
-766.519
-1740.01
-3956.11
-3313.62
-11293.2
-2274.47
8500.77
-1620.18
9827.9
-1938.27
18189.1
-1536.48
14161.2
-1736.75
17067.4
-2142.97
16523
-2315.98
17153.6
-1232.06
3463.9
-319.328
-12590.5
-413.627
-15882.1
-931.142
-9883.38
-487.591
-3243.01
252.518
-169.033
56.9813
-2465.78
-243.958
-4019.94
-110.081
-2964.9
320.789
-2170.88
-1062.03
-1930.8
-6171.43
-3166.92
11595.4
-2560.99
9221.97
-2713.04
18341.2
-2204.51
13652.7
-2192.14
17055
-2327.93
16658.8
-2176.71
17002.4
-817.743
2104.93
47.279
-13455.5
-367.319
-15467.5
-1001.99
-9248.71
-718.946
-3526.05
-47.7622
-840.218
-34.2849
-2479.26
-220.894
-3833.33
-74.8874
-3110.91
50.2967
-2296.07
646.476
-2526.98
-2823.9
-3920.34
15507.9
-3309.19
8610.82
-3374.68
18406.7
-2743.01
13021
-2527.09
16839.1
-2403.22
16534.9
-1965.78
16565
-452.209
591.365
316.228
-14223.9
-340.613
-14810.7
-1028.77
-8560.56
-805.142
-3749.68
-225.063
-1420.3
-100.122
-2604.2
-202.791
-3730.66
-63.4336
-3250.26
130.559
-2490.06
822.736
-3219.16
-3397.06
-4319.03
19882.5
-3654.36
7946.14
-3713.47
18465.8
-2992.53
12300.1
-2645.1
16491.6
-2337.53
16227.3
-1664.71
15892.1
-167.47
-905.872
432.622
-14824
-370.632
-14007.4
-1021.46
-7909.73
-805.816
-3965.32
-302.908
-1923.21
-137.685
-2769.42
-183.264
-3685.09
-53.6929
-3379.84
152.125
-2695.88
320.602
-3387.64
-3390.28
-4400.28
24398.4
-3639.88
7185.74
-3725.15
18551.1
-2964.2
11539.1
-2559.75
16087.2
-2160.36
15827.9
-1323.12
15054.9
23.8682
-2252.86
406.275
-15206.4
-463.179
-13138
-990.184
-7382.72
-775.73
-4179.78
-340.862
-2358.07
-158.16
-2952.12
-163.331
-3679.91
-41.6732
-3501.49
140.463
-2878.01
434.869
-3682.04
-3663.6
-4351.73
28933.3
-3466.12
6300.13
-3544.34
18629.3
-2773.27
10768.1
-2349.17
15663.1
-1931.77
15410.5
-1015.69
14138.8
226.986
-3495.54
314.942
-15294.4
-575.381
-12247.6
-937.341
-7020.76
-730.037
-4387.08
-354.167
-2733.94
-166.443
-3139.85
-144.344
-3702.01
-33.373
-3612.47
138.158
-3049.54
294.583
-3838.47
-3848.21
-4285.72
33455.4
-3292.6
5307.01
-3325.39
18662.1
-2553.75
9996.41
-2110.78
15220.1
-1714.08
15013.8
-639.353
13064.1
523.79
-4658.68
265.38
-15036
-644.399
-11337.9
-863.662
-6801.5
-675.95
-4574.79
-350.748
-3059.14
-165.914
-3324.68
-125.83
-3742.1
-24.443
-3713.85
127.916
-3201.9
260.613
-3971.17
-3970.07
-4489.14
38272.2
-3365.24
4183.11
-3223.98
18520.8
-2457.02
9229.45
-1966.61
14729.7
-1586.62
14633.9
-214.423
11691.9
934.679
-5807.79
309.524
-14410.8
-637.639
-10390.7
-775.456
-6663.68
-616.88
-4733.37
-335.178
-3340.85
-158.693
-3501.17
-107.732
-3793.06
-17.2375
-3804.35
117.184
-3336.32
233.962
-4087.95
-4055.77
-4635.48
43256.7
-3528.31
3075.94
-3319.35
18311.9
-2595.75
8505.85
-2035.96
14169.9
-1609.08
14207
132.113
9950.71
1292.33
-6968
381.353
-13499.9
-579.624
-9429.71
-683.82
-6559.49
-554.793
-4862.4
-310.641
-3585
-146.232
-3665.58
-90.0004
-3849.29
-11.4734
-3882.87
103.888
-3451.68
173.726
-4157.79
-4136.13
-5747.64
49555.8
-4375.23
1703.53
-3672.96
17609.6
-3068.83
7901.72
-2394.03
13495.1
-1792.67
13605.6
290.238
7867.8
1380.69
-8058.45
339.565
-12458.7
-523.089
-8567.06
-597.071
-6485.5
-491.642
-4967.83
-279.662
-3796.98
-129.823
-3815.42
-73.0218
-3906.09
-7.67757
-3948.22
89.3878
-3548.75
144.15
-4212.55
-4176.66
-5481.24
55436.7
-4414.41
636.694
-4092.13
17287.3
-3650.87
7460.47
-2876.74
12721
-1960.48
12689.3
322.116
5585.21
1166.96
-8903.3
140.789
-11432.6
-482.171
-7944.1
-512.903
-6454.77
-426.134
-5054.59
-243.031
-3980.08
-110.522
-3947.92
-57.2815
-3959.33
-6.27156
-3999.23
75.579
-3630.6
125.495
-4262.47
-4214.33
-8719.32
65246.6
-6631.65
-1450.98
-4354.38
15010.1
-4267.97
7374.06
-3296
11749
-2030.61
11424
349.703
3204.9
840.63
-9394.23
-71.3692
-10520.6
-425.173
-7590.3
-425.64
-6454.31
-355.196
-5125.04
-201.047
-4134.23
-88.6678
-4060.3
-43.3339
-4004.66
-5.8427
-4036.72
61.3179
-3697.76
86.7207
-4287.87
-4229.34
-5276.34
70491.9
-4630.39
-2096.93
-4781.24
15160.9
-4406.39
6999.21
-3384.09
10726.7
-1670.59
9710.45
531.291
1003.02
633.468
-9496.4
-165.202
-9721.89
-356.569
-7398.93
-348.921
-6461.95
-290.443
-5183.52
-160.278
-4264.4
-66.8519
-4153.73
-32.6103
-4038.91
-5.43482
-4063.89
49.1823
-3752.38
66.335
-4305.02
-4250.77
-9269.47
82718.3
-8053.15
-3313.25
-2446.89
9554.64
-4138.43
8690.75
-2834.25
9422.53
-993.928
7870.13
1278.79
-1269.7
529.653
-8747.26
-182.266
-9009.98
-280.627
-7300.57
-279.193
-6463.39
-229.47
-5233.24
-116.97
-4376.9
-47.213
-4223.49
-22.8671
-4063.25
-9.00623
-4077.75
44.6634
-3806.05
28.4614
-4288.82
-4216.31
-9991.48
-677.852
-13858.3
-5528.29
-4844.06
-101.28
1219.51
220.362
-109.536
-107.996
-118.787
-94.0311
-39.1681
-17.9561
-6.40825
-10.1963
27.9488
26.4519
-5.11353
-586.568
60.3871
-1056.71
113.554
-1038.44
153.955
-1005.59
188.378
-1003.65
216.418
-1003.87
238.977
-1004.95
256.595
-1005.5
270.251
-1006.67
280.728
-1007.98
286.442
-1009.24
291.043
-1006.92
278.798
-1010.28
262.247
-1013.78
242.842
-1015.81
221.101
-1017.71
199.953
-1026.72
186.694
-1080.37
153.11
-1056.53
-542.873
45.4145
-631.98
54.5528
-1065.84
45.0055
-1028.9
43.0126
-1003.6
44.2948
-1004.93
45.6448
-1005.22
46.981
-1006.28
48.1042
-1006.62
49.0974
-1007.66
49.4369
-1008.31
49.6522
-1009.45
54.2473
-1011.51
55.8207
-1011.85
55.1221
-1013.08
53.0958
-1013.78
49.9483
-1014.57
46.4881
-1023.26
40.6426
-1074.52
28.7081
-1044.59
-514.165
21.2533
-653.232
22.0243
-1066.61
18.2239
-1025.09
17.5605
-1002.93
16.9056
-1004.28
16.0833
-1004.39
15.1239
-1005.32
14.045
-1005.54
12.717
-1006.33
11.2288
-1006.83
9.33075
-1007.55
5.86025
-1008.04
2.94044
-1008.93
-0.140579
-1010
-3.51318
-1010.41
-7.30129
-1010.78
-13.0948
-1017.46
-21.6045
-1066.01
-18.0515
-1048.14
-532.216
14.9006
-668.131
13.5021
-1065.22
9.42015
-1021.01
6.72541
-1000.24
4.07484
-1001.62
1.45087
-1001.77
-1.2709
-1002.6
-4.04427
-1002.76
-6.92792
-1003.44
-9.9486
-1003.8
-13.0804
-1004.42
-16.1106
-1005.01
-19.5203
-1005.52
-23.2477
-1006.27
-27.0839
-1006.57
-31.1132
-1006.75
-37.8753
-1010.7
-51.0311
-1052.85
-42.3802
-1056.79
-574.597
13.53
-681.661
11.109
-1062.79
7.09835
-1017
4.19291
-997.33
1.19052
-998.621
-1.82009
-998.758
-4.92658
-999.492
-8.06972
-999.62
-11.3071
-1000.21
-14.6147
-1000.5
-18.0301
-1001
-21.6277
-1001.41
-25.2822
-1001.87
-29.0905
-1002.47
-32.9228
-1002.74
-36.7118
-1002.96
-42.955
-1004.45
-57.6669
-1038.14
-50.5285
-1063.93
-625.125
14.8298
-696.49
12.4812
-1060.44
8.52264
-1013.04
5.89822
-994.705
3.1965
-995.919
0.4858
-996.046
-2.31433
-996.691
-5.15045
-996.783
-8.06539
-997.291
-11.0435
-997.517
-14.0948
-997.952
-17.2183
-998.287
-20.4276
-998.657
-23.7638
-999.129
-27.1294
-999.375
-30.4184
-999.668
-34.961
-999.912
-47.7743
-1025.33
-46.1239
-1065.58
-671.249
16.8892
-713.378
14.3722
-1057.93
10.2986
-1008.97
7.91531
-992.321
5.50814
-993.511
3.08726
-993.625
0.607401
-994.211
-1.88042
-994.294
-4.41527
-994.756
-6.97594
-994.956
-9.57532
-995.352
-12.2232
-995.639
-14.8968
-995.983
-17.6402
-996.385
-20.3854
-996.63
-23.0801
-996.973
-26.2281
-996.764
-35.6092
-1015.95
-37.7622
-1063.42
-709.011
18.5421
-731.92
15.7597
-1055.14
11.6909
-1004.9
9.58012
-990.209
7.45702
-991.387
5.31932
-991.486
3.1355
-992.026
0.955599
-992.114
-1.25708
-992.542
-3.48006
-992.732
-5.7237
-993.107
-7.99117
-993.371
-10.2656
-993.708
-12.5838
-994.066
-14.8851
-994.328
-17.1665
-994.691
-19.5635
-994.366
-26.2218
-1009.29
-30.0746
-1059.57
-739.086
19.5911
-751.51
16.3259
-1051.88
12.3503
-1000.92
10.4348
-988.293
8.50279
-989.455
6.55607
-989.539
4.57279
-990.043
2.60038
-990.141
0.603718
-990.545
-1.39293
-990.735
-3.40139
-991.099
-5.42299
-991.349
-7.43981
-991.691
-9.4875
-992.018
-11.5077
-992.307
-13.5273
-992.672
-15.5325
-992.361
-20.5365
-1004.28
-24.9607
-1055.15
-764.046
20.0872
-771.597
16.2514
-1048.04
12.4624
-997.131
10.7049
-986.535
8.90836
-987.658
7.10013
-987.731
5.25863
-988.201
3.42975
-988.312
1.57843
-988.693
-0.269554
-988.886
-2.12833
-989.239
-3.99588
-989.481
-5.85747
-989.829
-7.74635
-990.129
-9.60514
-990.448
-11.4798
-990.797
-13.2856
-990.555
-17.4026
-1000.17
-22.1467
-1050.4
-786.193
20.2466
-791.843
15.7965
-1043.59
12.2449
-993.579
10.6079
-984.898
8.90889
-985.959
7.20205
-986.024
5.46362
-986.462
3.73802
-986.586
1.9898
-986.945
0.246416
-987.143
-1.50948
-987.483
-3.27186
-987.718
-5.03068
-988.07
-6.8151
-988.345
-8.57096
-988.692
-10.3544
-989.013
-12.0421
-988.867
-15.6555
-996.553
-20.7776
-1045.28
-806.971
20.2263
-812.069
15.1547
-1038.52
11.8653
-990.29
10.3268
-983.359
8.70657
-984.338
7.0829
-984.4
5.42842
-984.807
3.78641
-984.943
2.12099
-985.279
0.461247
-985.483
-1.2136
-985.808
-2.8928
-986.039
-4.57254
-986.39
-6.27567
-986.641
-7.95382
-987.014
-9.66709
-987.3
-11.269
-987.265
-14.5415
-993.281
-20.1386
-1039.68
-827.109
20.1323
-832.201
14.4388
-1032.83
11.4214
-987.272
9.96607
-981.904
8.41596
-982.788
6.86618
-982.85
5.28624
-983.227
3.7183
-983.375
2.12624
-983.687
0.540493
-983.897
-1.06277
-984.205
-2.66786
-984.434
-4.27825
-984.78
-5.90812
-985.011
-7.51796
-985.404
-9.1666
-985.651
-10.6954
-985.736
-13.6845
-990.291
-19.8195
-1033.55
-846.929
20.0165
-852.218
13.7005
-1026.51
10.9589
-984.53
9.57795
-980.522
8.09548
-981.305
6.61659
-981.37
5.10768
-981.718
3.61035
-981.878
2.08848
-982.165
0.572881
-982.381
-0.962021
-982.67
-2.49626
-982.899
-4.04123
-983.234
-5.59996
-983.452
-7.14559
-983.858
-8.73017
-984.066
-10.1929
-984.273
-12.9179
-987.566
-19.6208
-1026.85
-866.55
19.91
-872.128
12.9643
-1019.56
10.4999
-982.066
9.18781
-979.21
7.77288
-979.89
6.36447
-979.962
4.92477
-980.278
3.49633
-980.449
2.04347
-980.712
0.595607
-980.933
-0.871934
-981.202
-2.3368
-981.434
-3.81809
-981.753
-5.30498
-981.965
-6.78883
-982.374
-8.30716
-982.547
-9.70867
-982.871
-12.1768
-985.098
-19.4549
-1019.57
-886.005
19.844
-891.971
12.2549
-1011.97
10.0742
-979.885
8.83289
-977.969
7.48917
-978.546
6.1549
-978.627
4.78428
-978.907
3.42259
-979.087
2.03623
-979.325
0.650394
-979.547
-0.754727
-979.796
-2.15753
-980.031
-3.58195
-980.328
-5.00176
-980.545
-6.43249
-980.943
-7.88416
-981.096
-9.23146
-981.524
-11.4487
-982.881
-19.2871
-1011.73
-905.292
19.867
-911.838
11.6132
-1003.72
9.74418
-978.016
8.60081
-976.825
7.34922
-977.294
6.11098
-977.389
4.82701
-977.623
3.54391
-977.804
2.23361
-978.015
0.913361
-978.227
-0.42913
-978.454
-1.77741
-978.683
-3.15524
-978.95
-4.52522
-979.175
-5.92973
-979.538
-7.3334
-979.692
-8.6676
-980.19
-10.6723
-980.876
-19.0376
-1003.36
-924.329
20.0762
-931.914
11.1014
-994.746
9.5892
-976.503
8.60414
-975.84
7.48249
-976.173
6.37076
-976.277
5.20209
-976.454
4.01686
-976.619
2.79908
-976.797
1.55778
-976.985
0.289255
-977.185
-0.997113
-977.396
-2.31828
-977.629
-3.63936
-977.854
-5.02031
-978.157
-6.37933
-978.333
-7.75888
-978.81
-9.59854
-979.036
-18.42
-994.542
-942.749
20.7985
-952.713
11.0691
-985.016
9.96427
-975.398
9.25116
-975.127
8.35678
-975.278
7.43148
-975.352
6.42323
-975.446
5.35181
-975.547
4.21269
-975.658
3.00855
-975.781
1.74129
-975.918
0.416729
-976.072
-0.967496
-976.245
-2.38505
-976.436
-3.87423
-976.668
-5.32794
-976.879
-6.87844
-977.26
-8.53096
-977.384
-17.5626
-985.51
-960.312
22.2872
12.271
11.8725
11.7456
11.4674
11.1154
10.6695
10.1223
9.46446
8.68343
7.76539
6.69375
5.44885
4.01245
2.34433
0.465197
-1.79435
-4.17805
-14.6882
-602.115
80.5322
-682.634
80.5717
80.613
80.6278
-382.751
463.384
-382.746
-382.74
-382.739
-4723.61
4340.87
-4723.61
-4723.61
-11257.1
6533.54
-11257.1
-11257.1
-11257.2
-18624.5
7367.33
-18624.5
-18624.5
-25963.6
7339.14
-25755.4
-25403.2
-24944.4
-24397
-23769.1
-23065.3
-22286.9
-21434.1
-26816.6
6300.46
-25831.3
-24773.4
-23643.9
-22439.7
-21149.9
-19750.5
-18205.1
-16484.9
-14660
-13089.4
-11.0289
-12753.1
-12753
-13717.2
964.109
-13773.5
56.3079
-13773.5
-13349
-424.426
-13349
-12332.4
-1016.68
-10707.1
-1625.29
-10707.1
-8546.8
-2160.27
-8546.8
-5929.27
-2617.53
-3230.27
-2699
-3230.27
-620.659
-2609.61
1111.44
-1732.09
1111.44
1300.44
-188.996
1300.44
1300.44
1966.27
-1966.27
2489.68
-523.408
635.547
1854.13
-635.645
1271.19
-66.7753
-568.869
-1187
1120.22
-3036.83
1849.83
-4305.14
1268.31
-4581.88
276.742
-4246.9
-334.986
-3674.88
-572.018
-2834.85
-840.028
-1359.78
-1475.07
1140.37
-2500.15
4170.14
-3029.77
6738.76
-2568.62
6299.83
438.927
1991.53
4308.3
3291.97
1147.07
-3113.33
1935.95
-1312.28
1034.11
2755.96
-1136.21
3441.51
-2624.26
919.182
-3928.67
2424.64
-5090.53
3011.69
-5323.48
1501.26
-5022.43
-24.3067
-4665.09
-692.329
-4133.27
-1103.84
-3294.49
-1678.8
-1839.22
-2930.34
495.098
-4834.46
3504.47
-6039.14
6109.59
-5173.74
7094.15
-545.632
4372.84
7029.61
7475.82
190.183
-3303.52
817.003
-1939.1
704.635
2868.33
-1337.1
5483.25
-3787.73
3369.82
-4980.67
3617.57
-5286.02
3317.04
-5203.37
1418.62
-5100.24
-127.431
-4903.5
-889.077
-4455.75
-1551.58
-3701.35
-2433.2
-2342.59
-4289.11
-172.523
-7004.53
2704.33
-8915.98
5152.38
-7621.79
6401.51
-1794.76
5152.23
8278.89
10896
-814.471
-2489.05
-203.237
-2550.34
316.295
2348.8
-1238.74
7038.28
-3967.18
6098.25
-5081.27
4731.67
-5083.97
3319.74
-5155.56
1490.21
-5263.23
-19.7665
-5138.24
-1014.06
-4762.35
-1927.47
-4095.6
-3099.96
-2869.74
-5514.96
-896.068
-8978.2
1756.31
-11568.4
4152.67
-10018.2
5459.99
-3102.08
5066.16
8672.72
13352.5
-1726.92
-762.127
-1705.43
-2571.83
-1017.5
1660.87
-1893.99
7914.77
-4042.85
8247.12
-4908.22
5597.03
-4924.59
3336.11
-5242.34
1807.96
-5472.09
209.982
-5365.25
-1120.9
-5031.42
-2261.3
-4466.84
-3664.54
-3413.88
-6567.92
-1674.87
-10717.2
713.649
-13956.9
3026.62
-12331.1
4352.91
-4428.37
4519.04
8506.59
15172.5
-2600.67
1838.54
-3504.2
-1668.29
-3233.08
1389.75
-3330.07
8011.77
-4276.27
9193.31
-4705.71
6026.47
-4871.07
3501.47
-5405.07
2341.96
-5676.64
481.555
-5546.74
-1250.8
-5245.46
-2562.58
-4806.61
-4103.39
-3963.82
-7410.71
-2491.09
-12189.9
-388.651
-16059.3
1820.1
-14539.9
3170.58
-5778.85
3690.04
7987.13
16245.1
-2934.98
4773.52
-4575.62
-27.6459
-4789.5
1603.63
-4503.96
7726.22
-4465.37
9154.73
-4529.01
6090.11
-4888.17
3860.63
-5576.64
3030.44
-5836.53
741.447
-5663.74
-1423.59
-5397.36
-2828.96
-5104.6
-4396.15
-4502.89
-8012.42
-3320.58
-13372.3
-1508.07
-17871.8
576.923
-16624.9
1946.29
-7148.22
2712.94
7220.49
16797.7
-2586.89
7360.41
-4753.85
2139.32
-5288.66
2138.44
-4928.39
7365.95
-4457.94
8684.28
-4390.64
6022.81
-4939.04
4409.03
-5726.1
3817.49
-5940.98
956.332
-5706.18
-1658.39
-5473.04
-3062.1
-5343.26
-4525.92
-5005.5
-8350.19
-4130.94
-14246.8
-2608.47
-19394.3
-687.62
-18545.7
698.167
-8534.01
1672.87
6245.79
16845.3
-1772.64
9133.05
-4277.99
4644.67
-5127.92
2988.36
-4804.91
7042.94
-4282.2
8161.57
-4290.79
6031.39
-5001.22
5119.46
-5833.29
4649.56
-5950.8
1073.85
-5614.65
-1994.54
-5428.5
-3248.26
-5497.45
-4456.97
-5436.43
-8411.21
-4870.3
-14812.9
-3658.13
-20606.5
-1946.58
-20257.3
-548.522
-9932.07
549.694
5147.57
16378.3
-830.346
9963.4
-3421.5
7235.83
-4670.22
4237.08
-4453.06
6825.78
-4030.23
7738.74
-4211.91
6213.07
-5044.65
5952.21
-5830.73
5435.64
-5715.78
958.897
-5227.18
-2483.14
-5179.68
-3295.76
-5526.96
-4109.69
-5738.01
-8200.16
-5466.87
-15084.1
-4614.62
-21458.7
-3157.98
-21713.9
-1763.4
-11326.7
-519.732
3903.91
15434.2
-14.2234
9977.62
-2351.74
9573.35
-4055.77
5941.1
-4060.65
6830.66
-3768.05
7446.14
-4124.34
6569.36
-5016.7
6844.57
-5577.98
5996.92
-5018.58
399.504
-4366.95
-3134.77
-4616.04
-3046.66
-5327.28
-3398.46
-5783.74
-7743.69
-5805.94
-15061.9
-5417.2
-21847.5
-4301.14
-22830
-2803.24
-12824.6
-1334.42
2435.08
14156.1
522.157
9455.46
-1276.81
11372.3
-3301.9
7966.2
-3682.48
7211.24
-3525.7
7289.36
-4002.76
7046.42
-4868.62
7710.42
-5018.47
6146.77
-3988.85
-630.115
-3198.4
-3925.23
-3629.15
-2615.91
-4632.54
-2395.08
-5322.61
-7053.62
-5728.7
-14655.8
-5988.82
-21587.3
-5396.13
-23422.6
-3724.21
-14496.5
-2184.61
895.483
12935.6
785.847
8669.62
-365.598
12523.8
-2422.2
10022.8
-3293.19
8082.23
-3309.57
7305.74
-3836.52
7573.37
-4623.13
8497.03
-4475.56
5999.2
-3342.92
-1762.75
-2319.11
-4949.04
-2188.36
-2746.66
-3026.06
-1557.37
-4050.27
-6029.41
-5126.84
-13579.2
-6263.39
-20450.8
-6443.34
-23242.7
-4478.34
-16461.5
-2366.02
-1216.83
10558.5
895.28
7774.34
294.286
13124.8
-1511.48
11828.6
-2843.35
9414.1
-3106.18
7568.58
-3631.32
8098.5
-4362.81
9228.52
-4264.99
5901.38
-3339.48
-2688.26
-2084.06
-6204.46
-744.441
-4086.28
-637.739
-1664.07
-2105.63
-4561.52
-4199.15
-11485.7
-6259.24
-18390.7
-7379.08
-22122.9
-6106.95
-17733.6
-4362.79
-2960.99
12496.2
977.979
6796.36
666.749
13436
-731.895
13227.2
-2310.11
10992.3
-2888.19
8146.65
-3404.39
8614.7
-4117.57
9941.7
-4164.3
5948.12
-3413.71
-3438.85
-2174.37
-7443.81
-509.508
-5751.14
497.328
-2670.9
-804.918
-3259.27
-3638.78
-8651.85
-6191.93
-15837.5
-7942.78
-20372
-8272.52
-17403.9
-7286.12
-3947.39
12549.2
1042.9
5753.45
792.233
13686.7
-170.675
14190.1
-1723.49
12545.1
-2628.48
9051.65
-3169.63
9155.85
-3876.67
10648.7
-3998.97
6070.42
-3291.26
-4146.56
-2109.36
-8625.71
-741.636
-7118.86
-18.458
-3394.08
-1362.17
-1915.56
-4071.88
-5942.14
-6332.27
-13577.2
-7841.63
-18862.6
-9056.71
-16188.8
-8836.43
-4167.66
11080.1
1014.22
4739.24
737.792
13963.1
150.273
14777.6
-1161.4
13856.8
-2316.7
10207
-2932.4
9771.55
-3638.26
11354.6
-3785.48
6217.64
-3075.79
-4856.25
-1919.9
-9781.59
-785.26
-8253.5
-858.342
-3321
-2760.97
-12.9242
-5073.93
-3629.18
-6677.54
-11973.5
-7410.83
-18129.4
-8363.24
-15236.4
-8607.73
-3923.18
9005.9
891.736
3847.5
588.961
14265.9
254.717
15111.9
-702.448
14814
-1969.11
11473.6
-2695.71
10498.1
-3411.53
12070.4
-3556.95
6363.07
-2839.11
-5574.1
-1717.77
-10902.9
-804.728
-9166.55
-1444.96
-2680.76
-3648.22
2190.33
-5495.17
-1782.23
-6684.35
-10784.4
-7115.67
-17698
-7028.53
-15323.5
-6774.94
-4176.77
6571.84
777.129
3070.37
421.31
14621.7
196.642
15336.5
-385.116
15395.7
-1627.66
12716.2
-2466.1
11336.6
-3204.21
12808.5
-3316.79
6475.65
-2576.64
-6314.25
-1510.44
-11969.1
-770.737
-9906.25
-1507.21
-1944.29
-3301.46
3984.58
-4239.82
-843.871
-5395.93
-9628.25
-6823.17
-16270.8
-6354.12
-15792.6
-4757.1
-5773.78
2278.11
983.171
263.361
27.8589
-227.267
-1345.91
-2254.14
-3017.03
-3054.9
-2268.27
-1281.4
-672.436
-1055.62
-1561.09
-1207.49
-2601.1
-5882.93
-6583.65
-3260.22
-677.317
1652.32
-1097.8
1395.49
-1527.33
1404.54
-1870.98
1318.66
-2174.73
1278.75
-2427.05
1227.33
-2636.09
1184.04
-2801.43
1140.34
-2924.95
1098.53
-3007.02
1057.07
-3047.6
1015.59
-3045.49
972.885
-2998.42
927.938
-2902.87
879.451
-2751.85
823.983
-2529.08
752.227
-2195.83
641.755
-1679.83
458.995
-923.519
218.693
51.4809
-186.177
1838.5
-416.494
1625.81
-661.415
1649.46
-859.944
1517.19
-1047.87
1466.68
-1199.74
1379.2
-1326.32
1310.62
-1422.62
1236.64
-1492.08
1167.99
-1534.97
1099.95
-1552.36
1032.98
-1543.34
963.87
-1506.09
890.69
-1438.9
812.267
-1339.47
724.549
-1196.92
609.678
-984.919
429.759
-683.223
157.302
-339.961
-124.564
-288.48
-118.042
1956.55
-269.227
1777
-379.948
1760.19
-452.869
1590.11
-514.733
1528.55
-546.733
1411.21
-565.366
1329.26
-565.303
1236.58
-550.857
1153.55
-517.296
1066.4
-458.743
974.433
-369.509
874.642
-251.897
773.082
-113.547
673.923
39.3259
571.683
200.372
448.638
340.32
289.817
358.883
138.745
281.534
-47.2079
-6.946
-33.0622
1989.61
-92.0261
1835.96
-133.54
1801.7
-174.261
1630.84
-216.054
1570.34
-253.425
1448.58
-296.12
1371.96
-340.203
1280.67
-386.601
1199.95
-423.212
1103.01
-431.606
982.83
-394.686
837.725
-314.997
693.397
-206.918
565.849
-72.8633
437.634
85.8673
289.916
239.801
135.891
327.708
50.8452
275.23
5.27758
268.284
-53.4443
2043.06
-134.521
1917.04
-203.337
1870.52
-280.928
1708.43
-362.732
1652.15
-446.808
1532.66
-540.863
1466.02
-639.392
1379.2
-745.824
1306.39
-850.895
1208.09
-943.58
1075.52
-1004.81
898.963
-1023.48
712.069
-999.939
542.308
-933.877
371.577
-825.647
181.691
-708.359
18.6083
-533.221
-124.287
-327.912
-200.024
-59.6282
22.6943
2020.37
-72.4538
2012.19
-117.151
1915.22
-158.709
1749.99
-197.747
1691.19
-232.159
1567.08
-263.632
1497.49
-288.337
1403.91
-309.548
1327.6
-331.256
1229.8
-363.568
1107.83
-410.344
945.741
-460.073
761.799
-495.828
578.065
-518.299
394.05
-543.116
206.51
-575.038
50.5321
-563.732
-135.592
-424.174
-339.581
-483.802
166.908
1853.46
107.344
2071.76
116.219
1906.35
144.679
1721.54
186.153
1649.72
229.484
1523.75
285.401
1441.58
349.079
1340.23
423.494
1253.18
497.045
1156.25
554.453
1050.43
574.256
925.941
550.892
785.166
494.976
633.984
411.54
477.49
304.288
313.767
210.775
144.051
132.155
-56.9669
19.2911
-226.712
-464.511
226.391
1627.07
221.188
2076.96
243.808
1883.73
293.418
1671.92
361.372
1581.76
425.6
1459.52
499.29
1367.88
576.055
1263.47
661.049
1168.19
747.053
1070.24
826.322
971.155
884.475
867.787
909.947
759.693
897.163
646.767
844.14
530.513
748.075
409.833
606.891
285.233
406.969
142.954
201.904
-21.6482
-262.607
191.362
1435.71
223.942
2044.39
245.588
1862.09
287.177
1630.34
347.505
1521.44
403.879
1403.15
463.997
1307.77
522.877
1204.59
583.262
1107.81
641.057
1012.45
692.358
919.86
730.791
829.359
750.188
740.302
745.527
651.432
713.556
562.49
650.222
473.171
549.223
386.237
399.405
292.781
200.738
177.03
-61.8687
118.756
1316.96
168.835
1994.31
206.676
1824.24
253.903
1583.11
315.524
1459.82
376.212
1342.46
436.601
1247.38
492.722
1148.47
545.163
1055.37
592.972
964.644
636.848
875.985
678.037
788.169
717.494
700.846
751.453
617.474
768.626
545.319
747.645
494.153
664.375
469.509
499.513
457.646
257.724
418.826
195.855
12.7905
1304.17
65.1155
1941.98
130.127
1759.24
190.713
1522.53
255.65
1394.88
323.216
1274.9
396.07
1174.53
478.846
1065.69
574.799
959.42
687.333
852.11
815.9
747.421
954.44
649.629
1088.95
566.34
1191.91
514.516
1231.2
506.028
1173.12
552.24
1000.45
642.181
716.997
741.099
371.595
764.232
567.451
-108.674
1412.84
-54.5761
1887.88
15.9258
1688.73
31.6792
1506.77
26.7695
1399.79
17.6148
1284.04
23.3378
1168.8
53.7553
1035.27
115.533
897.632
212.384
755.248
342.684
617.11
498.576
493.727
663.073
401.834
811.364
366.219
911.027
406.361
922.917
540.346
811.867
753.228
575.573
977.391
269.669
1070.13
837.12
-216.377
1629.22
-339.489
2010.99
-434.217
1783.46
-578.597
1651.15
-761.698
1582.89
-958.779
1481.13
-1144.92
1354.94
-1313.89
1204.25
-1463.13
1046.87
-1590.61
882.736
-1690.22
716.723
-1750.68
554.19
-1756.85
408.007
-1687.08
296.446
-1524.75
244.027
-1256.73
272.333
-889.686
386.181
-481.866
569.571
-161.375
749.641
675.745
100.9
1528.31
-17.6332
2129.52
-238.719
2004.54
-444.423
1856.85
-638.808
1777.27
-839.3
1681.61
-1045.54
1561.18
-1255.65
1414.35
-1468.27
1259.48
-1683.52
1097.98
-1898.23
931.428
-2101.49
757.444
-2273.03
579.542
-2380.93
404.342
-2378.77
241.867
-2209.08
102.641
-1841.36
18.4584
-1268.52
-3.27784
-544.865
25.9834
130.879
588.129
940.18
859.169
1858.48
738.913
2124.79
542.895
2052.87
399.879
1920.28
286.806
1794.69
175.753
1672.23
54.137
1535.96
-75.7498
1389.37
-210.852
1233.07
-349.662
1070.23
-492.784
900.56
-637.423
724.175
-776.455
543.369
-895.107
360.511
-971.376
178.904
-982.644
29.7207
-869.487
-116.44
-542.15
-301.361
-411.271
728.797
211.375
1118.96
1468.32
1124.13
2119.62
1033.21
2143.77
985.814
1967.68
983.949
1796.55
999.126
1657.04
1008.69
1526.4
1004.78
1393.27
983.512
1254.34
942.857
1110.88
879.36
964.052
788.568
814.961
668.015
663.917
517.441
511.077
343.757
352.579
183.722
189.738
77.2854
-10.0228
-8.73127
-215.359
-420.002
221.453
-10.0814
256.763
1433
264.169
2112.21
310.88
2097.06
382.272
1896.29
467.157
1711.66
555.99
1568.21
637.844
1444.54
705.553
1325.56
755.23
1204.66
785.006
1081.11
793.21
955.846
778.193
829.977
738.564
703.545
673.418
576.222
581.509
444.486
465.279
305.966
313.325
141.929
154.064
-56.1011
-265.937
-210.166
200.079
-355.472
1578.31
-307.581
2064.32
-178.693
1968.17
-45.9306
1763.52
75.6129
1590.11
186.652
1457.17
285.156
1346.03
368.099
1242.62
433.385
1139.37
479.835
1034.65
507.083
928.595
514.566
822.491
502.221
715.887
470.098
608.342
417.827
496.755
345.129
378.661
245.018
242.035
111.97
76.9401
-153.967
-14.2394
214.314
-128.331
1692.4
-106.932
2042.92
-40.2132
1901.45
35.6995
1687.61
112.028
1513.78
185.809
1383.38
252.726
1279.11
309.579
1185.76
354.108
1094.84
385.437
1003.32
401.97
912.059
404.502
819.957
393.25
727.136
367.992
633.597
327.919
536.825
272.81
433.767
198.708
316.132
108.462
167.178
-45.505
-122.049
10.755
228.818
410.002
552.247
666.668
760.247
835.098
891.39
928.337
946.362
940.418
907.594
856.305
786.089
695.034
581.426
438.715
253.712
)
;

boundaryField
{
    outletWallLeft
    {
        type            calculated;
        value           nonuniform List<scalar> 
40
(
579.548
503.442
406.773
315.415
229.231
145.667
72.2909
7.85555
-55.5612
-115.605
-183.228
-236.402
-327.664
-348.952
-551.459
-399.636
-1090.66
31.1185
-2957
3565.76
-4835.96
-4244.96
-4287.32
-3844.19
-4073.97
-4074.8
-4244.7
-4431.76
-5258
-6452.6
-7302.11
-8680.08
-7748.11
-2590.49
3127.35
8738.3
360.753
22735.1
-12626.9
89144
)
;
    }
    fineWallsLeft
    {
        type            calculated;
        value           uniform 0;
    }
    fineFrontAndBackLeft
    {
        type            calculated;
        value           nonuniform List<scalar> 
880
(
-2.48743e-15
3.29829e-15
-5.02233e-14
5.89393e-14
-6.15297e-13
-1.31594e-12
-3.67299e-13
-1.13321e-12
-1.28453e-12
-3.33163e-13
-1.24955e-12
-3.87934e-13
-1.32162e-12
-1.56068e-12
-4.00041e-13
-1.28192e-12
-3.39404e-13
-9.70711e-13
-1.07062e-12
-3.01554e-13
-5.56881e-14
7.76994e-13
-4.41161e-13
-4.58321e-13
-4.64513e-13
-6.8513e-13
-6.72869e-13
-6.77133e-13
-7.09625e-13
-7.07173e-13
-7.33007e-13
-5.66638e-12
-7.86123e-13
-8.11243e-13
-8.07346e-13
-8.141e-13
-8.4817e-13
-8.74031e-13
-8.05683e-13
-1.0281e-12
-1.11899e-11
-1.54101e-12
-1.44043e-12
-8.57447e-12
-1.29067e-12
-1.25755e-12
-1.22143e-12
-6.60393e-12
-8.7728e-13
-9.43607e-13
-1.13608e-12
1.16849e-12
2.27605e-12
2.92756e-12
2.72965e-11
2.46668e-12
2.84536e-12
2.71134e-12
1.62052e-11
2.48708e-12
-2.03788e-12
-1.41903e-12
-1.15307e-12
-2.08772e-13
1.05989e-12
-4.70677e-12
-1.57565e-11
-1.12679e-11
-4.83928e-12
-7.6226e-12
-2.24615e-12
1.38737e-13
-4.95344e-12
-4.15779e-12
-9.76776e-14
-3.52971e-12
-1.3589e-11
-1.03083e-11
9.56748e-12
-2.24651e-12
-1.09245e-12
-8.65159e-13
-1.05065e-13
7.85954e-13
-4.6825e-12
-1.60931e-11
-1.28187e-11
-7.57051e-12
-9.15494e-12
-1.54419e-12
2.71769e-13
-3.75954e-12
-3.20397e-12
-5.10548e-13
-1.30355e-12
-1.15629e-11
-1.59414e-11
-1.29868e-12
-1.88037e-12
-8.26181e-13
-6.60034e-13
-5.41866e-14
6.28472e-13
-4.8218e-12
-1.67415e-11
-1.45314e-11
-9.81829e-12
-9.7102e-12
-8.23157e-13
2.19246e-13
-2.59578e-12
-1.61714e-12
-2.233e-13
-7.59422e-13
-7.40032e-12
-1.37485e-11
-1.27792e-11
-1.55501e-12
-7.78796e-13
-6.51208e-13
-3.67311e-14
5.47469e-13
-5.41814e-12
-1.78911e-11
-1.63297e-11
-1.18479e-11
-9.23672e-12
-1.83524e-13
1.23325e-13
-1.52937e-12
-3.55308e-13
4.46394e-14
-1.33595e-13
-3.83132e-12
-1.02556e-11
-1.40217e-11
-1.21886e-12
-7.93643e-13
-5.92257e-13
2.87661e-13
4.13185e-13
-6.91965e-12
-1.9636e-11
-1.81784e-11
-1.42766e-11
-8.21405e-12
2.94646e-13
5.11887e-14
-6.87543e-13
2.40217e-14
9.88617e-15
6.80585e-14
-7.77688e-14
-4.8653e-12
-1.25073e-11
-6.34687e-13
-3.07618e-13
3.57121e-14
1.07429e-12