/*--------------------------------*- C++ -*----------------------------------*\
| =========                 |                                                 |
| \\      /  F ield         | OpenFOAM: The Open Source CFD Toolbox           |
|  \\    /   O peration     | Version:  4.1                                   |
|   \\  /    A nd           | Web:      www.OpenFOAM.org                      |
|    \\/     M anipulation  |                                                 |
\*---------------------------------------------------------------------------*/
FoamFile
{
    version     2.0;
    format      ascii;
    class       volScalarField;
    location    "3";
    object      p;
}
// * * * * * * * * * * * * * * * * * * * * * * * * * * * * * * * * * * * * * //

dimensions      [0 2 -2 0 0 0 0];

internalField   nonuniform List<scalar> 
1680
(
-11.626
-7.60072
-3.11755
-4.69087
-6.304
-3.4915
-4.63232
-6.04401
-3.34669
-4.78085
-5.47065
-4.87817
-5.6333
-3.67711
-4.96113
-6.21665
-4.83835
-8.22594
-0.803616
-12.4457
-0.0367747
-16.2063
2.03039
0.744256
2.52804
3.6295
5.12568
6.04369
7.92864
8.33987
11.3311
-9.99429
3.85149
2.94714
2.9747
2.90521
2.7163
2.88289
2.40055
1.84666
-15.1164
-15.2186
-14.1185
-1.57809
-5.24728
-5.45066
-3.95689
-2.27102
-2.88419
-2.85534
-2.9579
-2.86957
-2.8036
-2.77699
-2.96829
-2.8482
-2.74547
-2.73032
-2.53435
-2.16203
7.98091
3.3271
8.51236
5.59243
8.15681
6.86193
7.7621
7.72175
7.42706
5.32634
5.71015
3.93753
-8.39223
-11.7018
-1.78167
0.925997
-4.01012
9.40108
0.0716031
7.93355
2.0018
8.16615
4.98196
7.76346
6.46046
7.51232
7.6102
7.11332
5.8457
6.41318
5.04848
-7.93649
-12.2784
-4.30169
-0.951304
-2.98848
9.92766
-0.279225
8.00621
1.10149
7.80456
4.37828
7.34765
6.04484
7.27151
7.55006
6.82337
5.78446
6.7547
5.94225
-7.04494
-13.2743
-8.42949
-5.25679
-3.03014
8.72546
-1.97589
8.31353
0.637604
7.42707
3.79009
6.90761
5.61395
7.0393
7.48026
6.60269
5.36401
6.6808
6.30397
-6.01669
-14.7592
-13.8102
-10.6209
-3.18045
5.89084
1.9083
8.55867
0.26763
7.01871
3.21439
6.43951
5.16546
6.83597
7.41638
6.44918
4.6842
5.8032
5.71517
-5.48135
-16.5887
-17.2779
-13.0547
-1.45756
4.94815
7.71787
8.50464
-0.107059
6.56429
2.64864
5.94033
4.70228
6.68391
7.37091
6.36297
3.85476
4.19677
4.15667
-6.34743
-18.2508
-18.4797
-12.367
-1.69907
5.12362
0.3989
8.14374
-0.46761
6.04785
2.09052
5.40442
4.2124
6.49063
7.22732
6.37897
3.20425
2.24098
1.9757
-8.13091
-18.7635
-20.0682
-11.5526
-2.5126
3.04003
-2.19431
7.51087
-0.807044
5.46137
1.54118
4.83029
3.68433
6.18011
7.00839
6.3991
2.858
0.303027
-0.363387
-9.67273
-17.7029
-20.6111
-10.9865
-3.01156
1.87537
-1.51412
6.61398
-1.12068
4.78956
0.994127
4.20694
3.10359
5.68791
6.66294
6.3581
2.8514
-1.2834
-2.63545
-10.555
-16.4101
-19.2821
-10.3199
-3.56313
0.717332
-1.78296
5.5084
-1.39967
4.04529
0.462646
3.55111
2.49473
5.01606
6.03622
6.08218
3.19955
-1.79773
-4.33298
-11.0129
-16.1506
-17.6922
-9.8374
-4.03464
-0.405904
-2.10162
4.12324
-1.65574
3.17901
-0.0850924
2.81922
1.82185
4.18841
5.18123
5.4727
3.36723
-1.73432
-5.54541
-10.7409
-16.6501
-16.0521
-9.45239
-4.44092
-1.27301
-2.43428
2.68614
-1.86641
2.2992
-0.573787
2.11733
1.19789
3.39107
4.31798
4.72918
3.13335
-2.00131
-6.74544
-9.70325
-16.3187
-14.7588
-9.10842
-4.8243
-2.03256
-2.64686
0.652206
-2.08653
1.13873
-1.17978
1.19743
0.374183
2.35294
3.18061
3.65537
2.30064
-3.08499
-7.76629
-9.94427
-14.4006
-13.6779
-8.82256
-5.13959
-2.66385
-2.87294
-0.621718
-2.19763
0.356283
-1.48611
0.662516
-0.0505633
1.78598
2.55678
3.08487
1.85181
-3.76412
-7.04477
-10.5412
-12.7765
-12.5219
-8.4552
-5.29142
-3.07068
-3.05602
-4.55756
-2.46489
-1.6219
-2.47199
-0.915865
-1.48147
0.0402071
0.724465
1.31151
0.425931
-4.81022
-6.01666
-10.3691
-11.4962
-11.598
-8.26288
-5.50195
-3.47353
-3.26968
-2.74162
-2.29637
-0.935022
-1.83094
-0.110331
-0.599222
1.00035
1.73068
2.41383
1.54698
-3.93689
-5.18057
-9.73207
-10.625
-11.2373
-8.67393
-6.16667
-4.22222
-3.75085
-16.2191
-2.99583
-6.84136
-4.97572
-5.06958
-5.20651
-4.42976
-3.74032
-2.858
-2.47485
-5.57741
-4.78197
-8.36914
-9.05728
-9.74791
-7.75877
-5.69536
-4.08496
-3.56964
7.13039
-1.66885
3.18019
0.840408
3.67025
3.07065
5.05057
5.73341
6.46897
5.29119
-0.969858
-4.12918
-5.98296
-6.19277
-6.75828
-5.18074
-3.68387
-2.66359
-2.52053
-62.0522
-4.39093
-24.453
-14.0706
-19.9921
-18.6691
-20.0594
-18.7429
-16.7708
-12.2714
-7.6392
-3.79619
-8.43018
-11.0147
-13.0597
-12.1758
-9.61737
-7.39576
-6.12015
113.231
2.25758
44.4543
22.2492
37.7513
33.6017
39.3066
37.9109
36.0389
26.8275
10.0454
-2.4761
-11.6355
-16.4832
-19.8367
-19.8878
-16.3815
-12.8792
-10.2689
88.1587
86.9358
86.7202
85.2143
84.6177
83.1273
82.4271
81.0338
80.2065
78.8894
77.9533
76.6885
75.6772
74.415
73.556
72.5208
71.957
71.2278
70.9538
70.5126
70.8161
70.9182
71.2106
71.1541
71.6224
71.313
71.7222
71.3794
71.635
71.3095
71.4219
71.1022
71.0906
70.7458
70.664
70.3404
70.2229
69.9567
69.8453
69.6536
76.512
76.1715
76.2627
75.9347
76.0704
75.6829
75.8326
75.4496
75.5542
75.2154
75.2593
74.9661
74.9617
74.7038
74.6629
74.4359
74.3679
74.1761
74.0891
73.9065
74.0479
74.0094
74.1298
74.0284
74.194
74.043
74.2299
74.0602
74.232
74.0777
74.21
74.0852
74.1748
74.0787
74.1325
74.0614
74.0868
74.0373
74.0363
74.0013
75.0927
75.0403
75.0645
74.969
75.0323
74.9137
74.9912
74.8734
74.9446
74.843
74.8965
74.8178
74.8502
74.7948
74.8084
74.7727
74.7736
74.7501
74.7502
74.7181
74.6957
74.703
74.7169
74.6871
74.7252
74.6795
74.725
74.6791
74.7197
74.6836
74.7126
74.6914
74.7062
74.7017
74.7032
74.7126
74.7086
74.7248
74.7352
74.7368
74.7659
74.7725
74.7726
74.7593
74.7707
74.7502
74.7639
74.7445
74.7545
74.7418
74.7447
74.7427
74.7368
74.7469
74.7345
74.7536
74.7436
74.7652
74.7741
74.7875
74.5922
74.6025
74.6069
74.6029
74.6103
74.6029
74.6083
74.6018
74.6031
74.6004
74.5969
74.6008
74.5925
74.6025
74.5907
74.6043
74.5949
74.6129
74.6156
74.6373
74.6217
74.6113
74.6159
74.5975
74.5974
74.579
74.573
74.5554
74.5441
74.5274
74.5112
74.4959
74.4764
74.4632
74.4427
74.4325
74.4116
74.4074
74.3832
74.3855
74.8978
74.8574
74.8549
74.8136
74.8002
74.7606
74.7381
74.6978
74.6681
74.6261
74.5904
74.5464
74.506
74.459
74.415
74.366
74.3168
74.271
74.2
74.1489
75.5455
75.4811
75.4657
75.4066
75.3784
75.322
75.2842
75.227
75.1808
75.1207
75.0664
75.0013
74.9394
74.8672
74.7987
74.7169
74.6416
74.5541
74.4425
74.3203
76.4173
76.3494
76.3269
76.266
76.233
76.1762
76.1356
76.0796
76.0319
75.9748
75.9199
75.8595
75.7976
75.7309
75.6633
75.585
75.5161
75.4211
75.3328
75.1705
77.3001
77.2412
77.2204
77.1686
77.141
77.0954
77.0636
77.022
76.9864
76.9471
76.9079
76.8693
76.8263
76.7866
76.7409
76.6947
76.6535
76.5863
76.5639
76.4328
78.044
77.9935
77.9771
77.9334
77.9122
77.8764
77.8531
77.8233
77.799
77.7741
77.7495
77.7287
77.704
77.6873
77.6627
77.6479
77.6283
77.6031
77.6106
77.5617
78.6409
78.5932
78.5795
78.54
78.5216
78.4897
78.4693
78.4434
78.4227
78.4017
78.3819
78.3655
78.3468
78.336
78.3178
78.3135
78.297
78.2957
78.2896
78.3022
79.1261
79.0798
79.0674
79.031
79.0137
78.9836
78.9638
78.9388
78.9181
78.8968
78.8767
78.8585
78.8391
78.8251
78.8053
78.7971
78.7766
78.7741
78.7531
78.7696
79.5437
79.5013
79.4875
79.4528
79.4363
79.4069
79.3864
79.3619
79.3401
79.318
79.2966
79.2764
79.2556
79.2384
79.2166
79.2044
79.181
79.1714
79.1514
79.144
79.9473
79.9172
79.9062
79.8728
79.8594
79.8334
79.8132
79.7904
79.7679
79.7449
79.7213
79.6975
79.6727
79.6491
79.6215
79.6018
79.5686
79.5548
79.5282
79.497
80.2207
80.2106
80.2258
80.2049
80.2049
80.1973
80.1924
80.187
80.1812
80.1746
80.1668
80.1573
80.1452
80.1304
80.1101
80.0891
80.0507
80.0294
79.9576
79.9011
80.1862
80.1275
80.1655
80.1761
80.1935
80.2111
80.2299
80.2505
80.273
80.2979
80.3257
80.3566
80.3913
80.43
80.4734
80.5224
80.5751
80.6437
80.685
80.8481
-2.20268
-2.72186
-2.83109
-2.76062
-2.81362
-2.87856
-2.76823
-2.79686
-2.865
-2.83412
-2.85204
-2.8729
-2.83181
-3.60186
-4.23558
-4.26035
-3.80006
-11.1246
-12.3668
-16.6112
-0.447772
0.66276
-0.131611
-0.503106
-0.978711
-1.41483
-1.75342
-2.28582
-14.9016
1.30107
-1.10185
-1.53383
-2.96839
-3.69902
-4.19301
-4.14315
-5.01396
-6.11659
-27.3478
-14.7339
-27.7186
-14.0304
-24.7396
-20.0445
-22.8676
-20.1145
-17.423
-21.1282
-18.8455
-19.2775
-17.9085
-16.4176
-17.9171
-17.1428
-17.3119
-18.3721
-18.525
-18.6118
-18.5794
-18.6259
11.3503
10.4403
10.645
10.4701
10.2985
9.70398
8.75643
7.82976
7.8084
9.17098
10.7933
11.8454
13.4272
16.2232
15.9511
-6.29305
-38.5222
-32.3542
-21.2836
11.3161
10.3958
10.6567
10.4716
10.302
9.68767
8.72343
7.81372
7.74666
9.12083
10.782
11.8279
13.3501
16.0786
15.6255
-7.38172
-40.7374
-34.0359
-21.5039
11.3372
10.362
10.6582
10.4351
10.2796
9.65797
8.70769
7.78962
7.67261
8.99326
10.7295
11.7785
13.1664
15.8205
15.113
-8.64549
-43.8705
-37.9673
-21.6939
11.4503
10.4077
10.6501
10.4036
10.2657
9.62829
8.68168
7.72739
7.55277
8.78512
10.6483
11.6972
12.8492
15.41
14.6168
-10.0048
-47.1676
-41.6394
-21.7144
11.5671
10.4465
10.6373
10.3613
10.2601
9.59662
8.64863
7.63626
7.40903
8.52484
10.5185
11.5631
12.3126
14.5711
14.1136
-11.3678
-50.183
-44.6123
-21.9445
11.6227
10.4302
10.6194
10.311
10.2642
9.56714
8.6078
7.51355
7.24109
8.20037
10.2825
11.2642
11.329
12.9579
13.2892
-12.7991
-52.726
-47.0633
-22.8251
11.5873
10.3679
10.5972
10.255
10.2744
9.53999
8.56364
7.36965
7.04992
7.79004
9.8552
10.4956
9.51636
10.2379
11.4826
-13.8725
-54.4614
-49.112
-23.6349
11.4744
10.261
10.5723
10.1925
10.2937
9.51638
8.52503
7.2266
6.84265
7.2895
9.17096
8.88168
6.3339
6.03914
8.3324
-13.9544
-55.2941
-50.0809
-24.3525
11.3022
10.1107
10.5449
10.1228
10.324
9.49597
8.50474
7.119
6.63966
6.71771
8.20751
6.18055
1.53577
0.510121
4.29835
-12.8793
-55.1619
-49.7442
-25.0038
11.0858
9.91766
10.5126
10.0427
10.36
9.47668
8.51563
7.08583
6.48421
6.13461
6.99958
2.45928
-3.58106
-4.37741
1.56906
-10.5458
-53.5393
-48.2895
-25.0371
10.8392
9.67974
10.4693
9.93843
10.3814
9.45114
8.56455
7.15571
6.43624
5.65016
5.68003
-1.33552
-6.45397
-6.34538
1.95644
-6.90503
-51.2991
-46.1509
-25.2599
10.5722
9.39323
10.4036
9.7789
10.3719
9.40571
8.64363
7.32113
6.55905
5.37959
4.42884
-3.77358
-7.99395
-5.92252
3.67564
-2.70946
-49.5584
-43.4921
-23.9106
10.2937
9.05379
10.3038
9.52598
10.3143
9.31751
8.72504
7.5493
6.88636
5.35934
3.34286
-3.52491
-9.3783
-4.87304
4.94037
0.74278
-46.8896
-39.9956
-22.8608
10.0076
8.65843
10.1691
9.18819
10.187
9.15618
8.78084
7.80119
7.34311
5.42475
2.36431
-1.74076
-9.6582
-4.70086
5.07339
1.64154
-40.2529
-36.8595
-25.4351
9.72136
8.20077
10.0025
8.79057
10.0038
8.93322
8.78473
8.00854
7.76766
5.34009
1.45564
-1.67264
-8.62613
-5.90236
3.87629
-0.631958
-27.2241
-23.4095
-17.0646
9.43572
7.67572
9.80914
8.34387
9.77305
8.65844
8.72887
8.12929
8.03311
5.07576
2.0674
-2.19726
-7.89648
-8.53006
2.35106
-2.22159
-15.5841
-4.43088
-0.393477
9.15341
7.06959
9.59105
7.85468
9.5039
8.34184
8.61073
8.14977
8.09013
4.64934
3.69292
-1.66444
-7.82838
-10.8773
1.35821
-1.38862
-9.75752
3.72303
-0.661613
8.85095
6.38647
9.35555
7.32973
9.20413
7.99611
8.44093
8.08791
7.99102
4.11549
4.37178
-0.0738095
-8.19527
-11.5144
0.876696
-0.0834071
-6.96009
7.63921
-1.59947
8.56525
5.56289
9.09503
6.77376
8.8781
7.63073
8.23422
7.97853
7.84096
3.94735
4.54576
1.46209
-8.688
-11.3964
0.462693
0.683474
-6.03938
9.29613
-0.0767123
8.236
4.62757
8.81911
6.19285
8.5285
7.25174
8.00413
7.84775
7.66387
4.4858
4.92169
2.7376
-8.64382
-11.4238
-0.31518
1.19186
-5.12237
9.40557
0.121939
684.205
602.055
553.16
497.214
448.401
401.249
357.34
315.796
276.621
239.528
204.35
170.915
139.087
108.908
80.5203
53.0882
26.4484
4.44321
-20.3167
-57.0999
5.80422
-16.7631
-8.57933
-19.6285
-22.2238
-28.7859
-33.5771
-38.7115
-43.1028
-46.9943
-50.1257
-52.4426
-53.8129
-54.0289
-52.7653
-50.3447
-47.4548
-43.8395
-40.6713
-40.0018
-18.6964
-26.9219
-19.5744
-27.6184
-26.6236
-31.1267
-33.5639
-37.3544
-40.9071
-44.7945
-48.7061
-52.6698
-56.4571
-59.7181
-61.9196
-63.073
-64.0072
-64.642
-66.0836
-66.8317
-42.1627
-48.013
-46.4949
-54.0256
-54.7083
-60.2686
-63.1145
-67.3724
-70.8289
-74.4761
-77.8059
-80.9514
-83.7057
-85.7821
-86.8534
-87.0097
-86.9163
-86.6858
-86.518
-84.6667
-66.9278
-70.1455
-67.3444
-71.0389
-68.3446
-70.5909
-69.3816
-70.0086
-69.5495
-69.407
-69.0159
-68.5769
-68.0443
-67.3282
-66.36
-64.8285
-62.9879
-60.2167
-58.1695
-55.0873
-45.7812
-46.2888
-42.8201
-44.2014
-40.4258
-40.8677
-38.1963
-37.2842
-35.3759
-33.8062
-32.0528
-30.2825
-28.4851
-26.6474
-24.843
-23.0255
-21.3669
-19.6967
-18.4368
-16.5962
-24.2003
-24.1202
-21.7056
-22.6905
-19.9251
-20.4468
-18.4996
-18.0934
-16.8504
-15.9819
-14.9847
-14.0306
-13.1005
-12.1821
-11.3344
-10.4955
-9.81967
-9.08373
-8.72887
-8.10239
-13.9676
-13.8695
-12.2335
-13.0503
-11.1314
-11.6806
-10.337
-10.2087
-9.41354
-8.9175
-8.31355
-7.73323
-7.16254
-6.57994
-6.0428
-5.46424
-5.01968
-4.41313
-4.17752
-3.43227
-6.34675
-5.9236
-4.51467
-5.02841
-3.45663
-3.71544
-2.62162
-2.35828
-1.65981
-1.12321
-0.519684
0.0949163
0.714404
1.36488
1.98843
2.67522
3.24237
4.00459
4.40314
5.37906
3.39893
4.22135
5.51078
5.34176
6.73459
6.85102
7.82915
8.34205
9.07055
9.74751
10.4496
11.1714
11.8955
12.6457
13.3701
14.1527
14.8238
15.6723
16.1803
17.1694
14.9704
15.9489
16.9684
17.0567
18.1811
18.4985
19.308
19.8932
20.5608
21.2223
21.8864
22.5631
23.2364
23.9263
24.5898
25.3002
25.9102
26.6728
27.118
28.011
26.1102
26.9399
27.6635
27.8038
28.6224
28.894
29.4737
29.9262
30.4126
30.9027
31.389
31.8841
32.375
32.8784
33.3603
33.8793
34.3195
34.8789
35.1908
35.8341
34.785
35.222
35.8276
35.7792
36.4326
36.4921
36.884
37.1245
37.4115
37.6956
37.9783
38.2706
38.5604
38.8622
39.1506
39.4669
39.7317
40.0768
40.2636
40.6541
40.4275
40.4734
41.0091
40.6982
41.316
41.1075
41.4147
41.442
41.5906
41.7019
41.8273
41.9595
42.0919
42.2365
42.3739
42.5318
42.6614
42.8365
42.9299
43.1195
42.8632
42.7572
43.1292
42.7838
43.3524
42.9687
43.2989
43.1669
43.2857
43.2913
43.3486
43.3953
43.4479
43.5091
43.5648
43.6354
43.6891
43.7658
43.8068
43.8774
43.8649
43.7013
43.9148
43.6709
44.0914
43.6842
44.0331
43.8103
43.9451
43.8877
43.9265
43.9272
43.9438
43.9609
43.9732
43.9965
44.0052
44.029
44.0342
44.0435
42.6078
42.5421
42.8026
42.6328
43.0058
42.7712
43.1485
43.009
43.2088
43.1985
43.2936
43.33
43.3868
43.431
43.4704
43.5142
43.5394
43.5828
43.595
43.6335
45.1591
44.9117
45.1413
44.7544
45.0232
44.8048
44.9986
44.8635
44.9431
44.8799
44.8925
44.8516
44.8366
44.7986
44.7672
44.7311
44.6884
44.6593
44.613
44.5743
40.9383
41.1805
41.4732
41.2888
41.7217
41.7861
42.0951
42.1937
42.3634
42.4185
42.4937
42.499
42.502
42.4491
42.4243
42.3687
42.3361
42.3083
42.2937
42.3222
57.8741
57.1012
56.9629
55.8415
55.2781
54.3793
53.6503
52.7885
51.9638
51.062
50.205
49.2816
48.441
47.7219
47.1554
46.6448
46.3495
46.1285
46.0825
46.128
)
;

boundaryField
{
    outletWallLeft
    {
        type            fixedValue;
        value           uniform 0;
    }
    fineWallsLeft
    {
        type            zeroGradient;
    }
    fineFrontAndBackLeft
    {
        type            zeroGradient;
    }
    fineplugLeft
    {
        type            cyclicAMI;
        value           nonuniform List<scalar> 
20
(
70.5196
74.9551
69.7822
68.3203
68.1997
67.2278
66.9668
66.0358
65.7509
64.7795
64.6289
66.6196
61.312
60.1214
59.4397
58.5977
58.1089
57.5588
57.2431
56.7794
)
;
    }
    symmetryWallLeft
    {
        type            cyclicAMI;
        value           nonuniform List<scalar> 
20
(
-2.18235
0.096771
9.40332
-4.56625
1.05893
-1.04843
-11.5628
-8.51803
3.33756
5.31592
4.90607
7.54547
7.78475
7.88312
7.05683
8.34265
5.89264
8.66573
3.97733
8.10845
)
;
    }
    inletOutletLeft
    {
        type            cyclicAMI;
        value           nonuniform List<scalar> 
20
(
56.7794
57.2431
57.5588
58.1089
58.5977
59.4397
60.1214
61.312
66.6196
64.6289
64.7795
65.7509
66.0358
66.9668
67.2278
68.1997
68.3203
69.7822
74.9551
70.5196
)
;
    }
    inletLeft
    {
        type            zeroGradient;
    }
    inletWallsLeft
    {
        type            zeroGradient;
    }
    inletFacesLeft
    {
        type            zeroGradient;
    }
    fineWallsRight
    {
        type            zeroGradient;
    }
    outletWallRight
    {
        type            zeroGradient;
    }
    fineplugRight
    {
        type            cyclicAMI;
        value           nonuniform List<scalar> 
20
(
36.8129
36.9986
36.8765
36.979
37.1201
37.4413
37.8268
38.2956
41.8263
40.4242
40.6292
41.2643
41.6371
42.1804
42.6649
43.3938
43.6704
44.347
47.2919
43.3525
)
;
    }
    fineFrontAndBackRight
    {
        type            zeroGradient;
    }
    symmetryWallRight
    {
        type            cyclicAMI;
        value           nonuniform List<scalar> 
20
(
-2.18235
0.096771
9.40332
-4.56625
1.05893
-1.04843
-11.5628
-8.51803
3.33756
5.31592
4.90607
7.54547
7.78475
7.88312
7.05683
8.34265
5.89264
8.66573
3.97733
8.10845
)
;
    }
    inletOutletRight
    {
        type            cyclicAMI;
        value           nonuniform List<scalar> 
20
(
36.8129
36.9986
36.8765
36.979
37.1201
37.4413
37.8268
38.2956
41.8263
40.4242
40.6292
41.2643
41.6371
42.1804
42.6649
43.3938
43.6704
44.347
47.2919
43.3525
)
;
    }
    inletRight
    {
        type            zeroGradient;
    }
    inletWallsRight
    {
        type            zeroGradient;
    }
    inletFacesRight
    {
        type            zeroGradient;
    }
}


// ************************************************************************* //
