/*--------------------------------*- C++ -*----------------------------------*\
| =========                 |                                                 |
| \\      /  F ield         | OpenFOAM: The Open Source CFD Toolbox           |
|  \\    /   O peration     | Version:  4.1                                   |
|   \\  /    A nd           | Web:      www.OpenFOAM.org                      |
|    \\/     M anipulation  |                                                 |
\*---------------------------------------------------------------------------*/
FoamFile
{
    version     2.0;
    format      ascii;
    class       volScalarField;
    location    "9";
    object      p;
}
// * * * * * * * * * * * * * * * * * * * * * * * * * * * * * * * * * * * * * //

dimensions      [0 2 -2 0 0 0 0];

internalField   nonuniform List<scalar> 
1680
(
-6.33595
-4.20915
-1.76857
-2.6924
-3.6539
-2.09706
-2.8601
-3.83425
-2.10295
-3.25977
-3.82782
-3.49929
-4.30981
-2.59426
-4.17276
-5.33468
-4.39306
-7.51412
-1.17145
-11.219
-2.0108
-29.8152
-0.617984
-2.63394
-1.6446
-0.31421
0.720545
1.64486
3.3747
3.72655
7.02463
-20.0379
-2.66308
-2.8589
-1.92205
-1.49863
-0.402516
-0.594919
3.90464
-2.68239
-52.9094
-22.9001
-19.5657
-0.519787
-6.58604
-6.36142
-2.67708
7.01116
3.44575
3.7921
5.85804
5.8228
5.85431
5.85578
5.84287
5.85665
5.93544
5.94535
5.94395
5.94774
-9.77454
10.6376
-1.64502
5.07676
-3.70492
-8.27669
-21.617
-18.6447
-2.9001
2.21467
3.87823
-5.51768
-12.7806
-2.55206
0.109979
-3.32062
-11.3316
7.33121
11.2595
-14.6449
11.0183
-3.94472
4.49098
-4.75655
-9.03964
-22.8231
-20.2896
-3.82256
-0.889045
2.95023
-4.39309
-11.454
-2.69336
-0.151273
-3.72693
-6.68226
7.49322
5.87281
-19.4973
11.4526
-6.37093
4.03852
-5.80411
-9.65184
-23.6366
-21.549
-4.55275
-2.99381
2.24883
-3.26444
-9.4789
-2.677
-0.342444
-3.3542
-3.3878
4.44217
9.13478
-24.1036
11.8331
-8.83447
3.69226
-6.82956
-10.1101
-24.0638
-22.4091
-5.04827
-3.81551
1.86546
-2.13758
-7.22024
-2.57518
-0.422905
-2.90476
-1.53073
1.3154
16.5292
-28.8528
12.2681
-11.3173
3.41457
-7.8056
-10.4151
-24.149
-22.9039
-5.33693
-3.79151
1.73815
-1.21117
-5.23414
-2.4415
-0.532267
-2.7279
-0.828042
-0.542631
15.1534
-34.1712
12.8053
-13.8771
3.20903
-8.69723
-10.5664
-23.9069
-23.0708
-5.44977
-3.47789
1.7302
-0.663112
-3.86274
-2.27779
-0.637483
-2.53812
-1.00169
-0.524188
0.668355
-40.2742
13.3014
-16.5359
3.07856
-9.46979
-10.5635
-23.2822
-22.9254
-5.39793
-3.23242
1.66207
-0.439361
-2.88443
-2.10775
-0.729922
-2.39068
-1.02763
-0.772072
-2.46976
-47.1558
13.7718
-19.2765
3.04087
-10.0809
-10.415
-22.1643
-22.4741
-5.19667
-3.085
1.3626
-0.360863
-2.0673
-1.96405
-0.822681
-2.26396
-1.09992
-1.06037
-2.13402
-55.5389
14.6001
-22.2107
3.12148
-10.506
-10.1544
-20.4673
-21.7172
-4.91335
-2.98361
1.00391
-0.345723
-1.70323
-1.87111
-0.909583
-2.1594
-1.18416
-1.12014
-2.01117
-65.5215
16.1965
-25.1465
3.38187
-10.6561
-9.84414
-18.2981
-20.6428
-4.68149
-2.92421
0.655521
-0.390082
-1.56694
-1.79548
-0.992342
-2.07277
-1.25208
-1.33845
-2.00671
-80.6559
18.8531
-28.4309
3.85947
-10.5633
-9.55621
-16.0283
-19.3184
-4.58296
-2.90976
0.30929
-0.476426
-1.49787
-1.73794
-1.06921
-2.0009
-1.31808
-1.42342
-2.0053
-97.5696
22.1105
-31.137
4.56953
-10.0235
-9.31393
-14.1107
-17.8207
-4.57807
-2.93117
-0.0352308
-0.586332
-1.47711
-1.7002
-1.14471
-1.94659
-1.37781
-1.53609
-1.98536
-131.368
25.8215
-35.012
5.43287
-9.51722
-9.03138
-12.7787
-16.2266
-4.54956
-2.96372
-0.37503
-0.714088
-1.48306
-1.6761
-1.21559
-1.90354
-1.4327
-1.63223
-1.98317
-150.233
28.8256
-35.2808
6.38831
-8.07012
-8.52631
-11.9625
-14.5195
-4.34875
-2.93538
-0.662734
-0.829104
-1.48434
-1.63835
-1.25932
-1.84637
-1.45867
-1.67325
-1.96609
-244.768
32.1705
-41.1215
7.37613
-8.07405
-7.49624
-11.3793
-12.9008
-4.25959
-2.96783
-0.955216
-0.956289
-1.5191
-1.63501
-1.32094
-1.82276
-1.50312
-1.73
-1.95146
-197.352
32.0517
-30.7228
8.34444
-4.22195
-5.42809
-10.657
-11.8645
-4.80338
-3.35734
-1.44856
-1.20295
-1.67926
-1.75675
-1.48301
-1.91478
-1.65112
-1.91368
-2.07868
-589.265
34.2039
-48.9219
9.12606
-8.67348
-2.29494
-9.0995
-9.60336
-4.39659
-3.16233
-1.52905
-1.21618
-1.57318
-1.60858
-1.39134
-1.74139
-1.53573
-1.78055
-1.90535
33.2395
22.4484
-1.27478
10.3803
5.46254
0.790213
-6.43083
-5.3973
-2.47786
-1.93526
-0.84948
-0.78984
-1.07473
-1.08839
-0.955973
-1.2215
-1.06467
-1.22896
-1.34063
-2093.35
34.7301
-74.3462
9.26664
-22.3633
2.44401
-8.87561
-11.9948
-7.60323
-5.532
-3.41307
-2.31317
-2.66661
-2.59511
-2.35042
-2.68946
-2.51453
-2.87621
-2.9061
3080.53
-139.767
89.5694
8.65664
45.6595
3.33167
-10.9994
-19.8969
-13.6349
-9.8515
-6.5449
-4.14824
-4.45629
-4.28593
-3.91114
-4.29887
-4.13008
-4.74313
-4.73605
98.9228
98.2339
97.8206
96.8822
95.9306
94.9131
93.8805
92.8102
91.7389
90.673
89.585
88.5846
87.4411
86.1799
85.0361
83.9168
82.9224
81.8662
81.1585
79.8182
78.803
79.2523
79.4024
79.5993
79.7351
79.8034
79.8451
79.8237
79.7785
79.6795
79.5602
79.4018
79.1971
78.9602
78.7166
78.436
78.1794
77.8802
77.5818
77.2567
87.4733
87.179
87.0357
86.8238
86.6604
86.4612
86.2813
86.0806
85.8872
85.6784
85.4736
85.252
85.0394
84.8031
84.5813
84.3277
84.1083
83.8313
83.6189
83.2604
84.6422
84.652
84.664
84.649
84.653
84.629
84.6167
84.5842
84.5569
84.5143
84.474
84.4204
84.3699
84.3041
84.2481
84.1672
84.1129
84.0129
83.9627
83.8301
86.7282
86.6217
86.5906
86.5101
86.4647
86.3952
86.3435
86.2787
86.224
86.1608
86.1045
86.0408
85.9846
85.9181
85.8645
85.7918
85.7466
85.6602
85.6358
85.5225
86.8176
86.7659
86.7588
86.7149
86.6977
86.6597
86.6364
86.6012
86.5745
86.5403
86.5119
86.4773
86.4491
86.4123
86.3869
86.3455
86.3273
86.2755
86.2749
86.2109
87.6988
87.6292
87.6129
87.559
87.5326
87.4868
87.456
87.4148
87.382
87.3433
87.3103
87.2727
87.2411
87.2027
87.1748
87.1331
87.1126
87.0627
87.0577
86.9976
88.2186
88.1596
88.1461
88.0994
88.0773
88.0372
88.0107
87.9745
87.9458
87.9118
87.8824
87.8493
87.8208
87.7867
87.7614
87.7238
87.705
87.6599
87.6536
87.5985
88.8469
88.7866
88.7711
88.7239
88.7002
88.6596
88.6319
88.5952
88.5653
88.531
88.5004
88.467
88.4372
88.4032
88.3762
88.3389
88.3181
88.2734
88.2642
88.2081
89.3944
89.3377
89.3226
89.2781
89.2555
89.2169
89.1903
89.1554
89.1265
89.0938
89.064
89.0323
89.0029
88.9706
88.9437
88.9081
88.887
88.8442
88.8338
88.7787
89.9402
89.8853
89.8702
89.8271
89.8047
89.7674
89.7411
89.7073
89.6789
89.6473
89.6177
89.5873
89.5579
89.527
89.4998
89.4659
89.4441
89.4031
89.3919
89.338
90.4537
90.4015
90.3868
90.3457
90.3241
90.2884
90.2632
90.2308
90.2034
90.1733
90.1446
90.1158
90.0869
90.058
90.0308
89.9992
89.9771
89.9386
89.9269
89.8752
90.9482
90.8984
90.8839
90.8446
90.8237
90.7895
90.7652
90.7341
90.7077
90.6789
90.6511
90.6238
90.5955
90.5685
90.5414
90.5123
90.4898
90.4541
90.4418
90.3926
91.4206
91.3734
91.3591
91.3218
91.3015
91.2688
91.2453
91.2157
91.1902
91.1627
91.1358
91.1099
91.0823
91.0572
91.0301
91.0036
90.9805
90.9478
90.9348
90.8882
91.8717
91.8278
91.8139
91.7788
91.7595
91.7285
91.7063
91.6782
91.6539
91.6279
91.6022
91.5776
91.5509
91.5275
91.5005
91.4767
91.4526
91.4233
91.409
91.3655
92.2905
92.2499
92.2365
92.2039
92.1864
92.1574
92.137
92.1113
92.0888
92.065
92.0415
92.0189
91.9943
91.9733
91.9472
91.9271
91.9022
91.8773
91.8618
91.8223
92.6854
92.6481
92.6334
92.6011
92.5849
92.5565
92.5364
92.5122
92.4901
92.4676
92.4452
92.4238
92.4012
92.3819
92.3574
92.3414
92.3158
92.2976
92.2818
92.2476
93.0848
93.0575
93.0462
93.0137
93.0008
92.9752
92.9555
92.933
92.9108
92.8879
92.8644
92.8405
92.8154
92.7916
92.7634
92.7432
92.7091
92.694
92.6678
92.6302
93.3588
93.3498
93.3649
93.3442
93.3444
93.3371
93.3324
93.3272
93.3215
93.3151
93.3075
93.298
93.286
93.2712
93.2509
93.23
93.1914
93.1701
93.0982
93.0413
93.3243
93.266
93.3041
93.3148
93.3323
93.35
93.3689
93.3896
93.4122
93.4373
93.4652
93.4962
93.531
93.5698
93.6133
93.6623
93.715
93.7837
93.8249
93.9881
5.9506
5.87161
5.69826
5.70281
5.67487
5.66238
5.67252
5.6098
5.62663
5.79357
3.99184
4.19842
5.12369
-1.98463
-4.70292
-3.26984
0.647847
-21.9745
-14.7825
-3.3255
-34.757
-27.7836
-24.1304
-19.4971
-15.9029
-11.1372
-6.25547
-11.0011
20.2634
3.32169
7.97053
9.57411
11.1332
11.2955
10.665
9.42486
3.69515
-10.6525
16.6605
-20.2872
-21.4601
-13.3659
-27.3454
-20.9499
-25.6015
-20.3294
-13.9057
-22.7988
-18.0292
-19.8331
-17.0232
-14.9293
-19.7793
-18.2603
-19.3965
-22.1807
-22.351
-22.4567
-22.3228
-22.387
26.6898
12.9393
20.7994
19.101
11.4908
15.5637
14.3065
11.9765
11.2997
11.9174
13.6377
20.7298
33.6801
44.0743
34.1796
-11.486
-63.9949
-56.23
-30.2115
26.0623
11.0761
20.9482
18.9296
11.072
15.451
13.8139
11.3918
10.9594
11.7835
13.4246
20.3742
33.0489
43.268
33.0245
-13.4732
-67.7408
-60.0014
-31.3514
25.2496
8.87693
21.6182
19.5115
11.2502
14.546
12.3635
10.5972
10.7021
11.586
12.9526
19.607
31.783
41.6626
30.8078
-16.3237
-72.7512
-67.4741
-33.731
24.8872
7.33097
21.8439
20.3703
11.9177
13.5853
10.9195
9.70618
10.3174
11.3017
12.2286
18.4027
29.8685
39.2968
27.7971
-19.996
-78.4168
-74.7753
-36.7784
24.6839
6.30067
21.4107
20.5004
12.2285
12.6347
9.35604
8.73317
9.85524
10.9462
11.243
16.7494
27.304
36.1564
24.2268
-23.9849
-83.8685
-81.5791
-39.8598
23.7865
5.36771
20.6492
19.889
12.1887
11.5845
7.63075
7.59995
9.32236
10.5569
10.015
14.6608
24.1155
32.2903
20.3531
-27.9793
-88.6478
-87.2952
-43.6084
23.2172
4.70467
19.3767
18.816
11.8388
10.4395
5.74977
6.29709
8.74857
10.171
8.57407
12.178
20.368
27.8086
16.3529
-31.6485
-92.2094
-91.4098
-46.6777
24.9648
5.05966
17.5774
17.4523
11.1405
9.16891
3.66933
4.82141
8.1694
9.84258
6.97331
9.41432
16.2336
22.9264
12.3841
-34.5822
-94.2915
-93.6323
-48.9662
27.5018
7.07958
16.1332
16.0018
10.1314
7.76147
1.40188
3.20872
7.61793
9.62451
5.32962
6.60343
12.0529
17.9974
8.65151
-36.3222
-94.6596
-93.8543
-50.1748
28.8915
9.71244
15.2112
14.6253
8.9415
6.22877
-0.979414
1.5145
7.15057
9.56072
3.82853
4.1305
8.44951
13.5437
5.38075
-36.6262
-92.916
-92.2012
-49.352
28.5574
11.8229
14.3867
13.3498
7.69349
4.60333
-3.13479
0.156547
6.94208
9.74879
3.14007
3.09862
6.32742
9.98724
2.69637
-35.4736
-89.1308
-88.7854
-48.1294
26.4346
12.9939
13.4475
12.1618
6.45422
3.03969
-4.46319
-0.823804
6.7578
9.59073
3.09941
3.36249
5.33264
7.03656
0.483632
-32.934
-83.9979
-83.8635
-44.0311
23.0168
13.2991
12.3544
11.0612
5.25603
1.59631
-5.75904
-2.1585
6.10257
9.39151
3.13711
3.27825
3.47178
3.83874
-1.47168
-29.4042
-78.3706
-77.4107
-43.5183
18.9612
13.0022
11.1213
10.0526
4.09069
0.137582
-7.7266
-3.8288
5.05932
9.19127
3.09774
2.70944
0.423969
0.142281
-3.13247
-25.0458
-72.6916
-70.9398
-34.8186
14.973
12.2529
9.76304
9.13773
2.93521
-1.28842
-9.84698
-5.68561
3.92179
9.26484
3.3965
0.991889
-3.94902
-3.78262
-4.37473
-19.6508
-61.2328
-60.4575
-27.2437
11.3211
11.2585
8.28358
8.32063
1.78605
-2.65243
-11.981
-7.7749
2.66781
9.26919
4.02047
-2.05578
-8.6922
-6.74024
-4.68914
-14.2897
-47.0777
-41.2775
-6.43351
7.50871
10.5918
6.61446
7.59279
0.647161
-3.96271
-14.1391
-9.98318
1.43276
9.09269
4.7552
-5.28121
-12.0006
-7.20946
-3.45397
-9.59765
-34.7613
-23.2347
5.50158
3.28704
10.441
4.69937
6.94213
-0.473083
-5.20195
-16.2654
-12.2642
0.257326
8.56852
5.24992
-7.14602
-13.3253
-5.71845
-1.4854
-6.09554
-25.7436
-8.53407
8.49214
-1.07977
10.436
2.64017
6.34131
-1.56912
-6.34472
-18.2678
-14.5305
-0.840734
7.40955
5.2595
-7.24924
-13.7108
-4.16499
-0.0640549
-3.77968
-20.2635
1.27989
9.1817
-5.37883
10.4323
0.530214
5.72106
-2.64447
-7.3738
-20.0733
-16.6899
-1.88646
5.27188
4.75279
-6.54137
-13.535
-3.05919
0.375313
-2.84088
-16.225
4.79212
11.0891
619.99
537.002
487.63
431.143
381.904
334.387
290.208
248.489
209.251
172.222
137.249
104.14
72.6897
42.8635
14.7924
-12.2543
-37.8063
-57.4701
-80.8156
-118.121
-73.9122
-96.9037
-89.0616
-100.518
-103.611
-110.611
-115.896
-121.479
-126.33
-130.652
-134.204
-136.931
-138.74
-139.548
-139.263
-137.877
-135.365
-132.286
-130.111
-128.089
-96.4101
-103.491
-95.4111
-102.508
-100.689
-104.236
-105.729
-108.518
-111.024
-113.835
-116.637
-119.517
-122.39
-125.192
-127.75
-129.559
-130.271
-129.323
-128.296
-126.384
-90.4348
-93.7771
-90.7905
-96.7632
-95.4041
-99.2308
-100.126
-102.325
-103.743
-105.171
-106.283
-107.147
-107.737
-107.993
-107.883
-107.127
-105.642
-103.055
-100.265
-97.0973
-86.4832
-87.0613
-83.3352
-85.5754
-81.32
-81.9586
-79.0914
-77.9353
-75.7482
-73.8374
-71.7531
-69.7393
-67.8185
-66.1052
-64.6592
-63.4114
-61.9359
-59.8541
-58.0217
-55.9553
-63.338
-63.2172
-60.463
-61.9205
-58.6244
-59.4591
-57.2232
-57.0853
-55.9091
-55.5356
-55.0902
-54.9801
-55.0022
-55.2019
-55.4937
-55.8713
-56.3376
-56.9265
-57.2335
-58.3589
-62.1337
-64.9992
-63.8385
-66.9282
-65.7655
-68.1889
-67.8314
-69.4386
-69.84
-71.0182
-71.8667
-73.0127
-74.2202
-75.7913
-77.7857
-80.2795
-82.9155
-84.6927
-86.4779
-90.5156
-105.83
-111.3
-111.822
-116.5
-117.774
-122.111
-124.378
-128.45
-131.595
-135.539
-138.967
-142.368
-145.223
-147.608
-149.315
-150.501
-151.077
-151.037
-151.608
-150.974
-140.755
-144.782
-144.388
-147.47
-147.535
-150.273
-150.946
-153.08
-154.145
-155.599
-156.364
-156.803
-156.671
-156.087
-155.105
-153.771
-152.33
-150.508
-148.972
-145.503
-130.252
-130.279
-128.315
-128.761
-126.687
-126.657
-124.97
-124.247
-122.859
-121.7
-120.331
-118.908
-117.378
-115.722
-113.97
-111.992
-109.932
-107.307
-105.038
-101.656
-101.785
-99.8545
-97.6739
-96.8934
-94.5819
-93.5714
-91.6107
-90.207
-88.5265
-86.9631
-85.3842
-83.8177
-82.2731
-80.7154
-79.1767
-77.5764
-76.0591
-74.3754
-73.1261
-71.2239
-81.1048
-78.9459
-77.084
-76.0516
-74.2045
-73.2243
-71.6994
-70.5579
-69.2994
-68.1266
-66.9695
-65.8209
-64.6809
-63.5196
-62.3538
-61.1123
-59.9025
-58.5048
-57.4796
-55.9772
-63.0135
-60.8426
-59.345
-58.2325
-56.6847
-55.7555
-54.416
-53.3501
-52.1586
-50.9881
-49.7921
-48.5781
-47.368
-46.1693
-44.968
-43.7176
-42.4486
-41.0409
-40.0423
-38.7986
-42.48
-40.3087
-39.0985
-37.7363
-36.2902
-35.1706
-33.8146
-32.7971
-31.8853
-31.3956
-31.3626
-31.9291
-33.0737
-34.5951
-35.9726
-36.7047
-36.3393
-35.5455
-34.7106
-34.8796
-29.0457
-28.748
-29.3034
-29.515
-30.065
-31.03
-32.0504
-33.5075
-35.1473
-37.1014
-39.2177
-41.4866
-43.8408
-46.203
-48.31
-49.8205
-50.5664
-51.0085
-50.6893
-52.0771
-33.3346
-36.3818
-39.3352
-41.9348
-43.9294
-45.6004
-46.9788
-48.5511
-50.212
-52.2236
-54.6293
-57.612
-61.1645
-65.0596
-68.7704
-71.7681
-73.4142
-72.9535
-72.0608
-75.7279
-77.9955
-83.9702
-88.7271
-92.6831
-96.3945
-100.721
-105.462
-110.335
-114.841
-118.832
-122.21
-124.971
-127.003
-128.224
-128.609
-128.291
-127.57
-127.016
-128.169
-131.609
-134.381
-141.326
-146.219
-148.692
-151.652
-154.646
-157.509
-160.2
-162.653
-165.036
-167.464
-170.002
-172.589
-175.078
-177.262
-178.984
-180.174
-180.725
-181.229
-179.279
-197.951
-198.067
-194.975
-189.186
-184.763
-181.301
-178.933
-177.325
-176.342
-175.86
-175.721
-175.746
-175.662
-175.256
-174.378
-172.844
-170.927
-168.386
-166.172
-162.119
-137.697
-134.06
-130.199
-126.008
-124.033
-122.524
-122.051
-121.893
-121.924
-122.035
-121.835
-121.805
-121.505
-120.242
-118.5
-116.317
-113.825
-110.782
-108.067
-103.956
)
;

boundaryField
{
    outletWallLeft
    {
        type            fixedValue;
        value           uniform 0;
    }
    fineWallsLeft
    {
        type            zeroGradient;
    }
    fineFrontAndBackLeft
    {
        type            zeroGradient;
    }
    fineplugLeft
    {
        type            cyclicAMI;
        value           nonuniform List<scalar> 
20
(
78.7361
83.3601
78.1329
76.9789
76.4155
75.8676
75.2485
74.5772
74.0661
73.2837
73.0729
75.9673
69.4203
68.3721
67.6445
66.8337
66.2574
65.374
65.7077
63.3181
)
;
    }
    symmetryWallLeft
    {
        type            cyclicAMI;
        value           nonuniform List<scalar> 
20
(
5.94917
11.1743
6.06167
-13.7783
-3.08075
0.242646
-2.80563
-13.1578
-6.02952
4.31551
3.74328
-2.39328
-17.6673
-20.8452
-7.82524
-3.1747
5.39891
-0.557404
10.535
-7.57668
)
;
    }
    inletOutletLeft
    {
        type            cyclicAMI;
        value           nonuniform List<scalar> 
20
(
63.3181
65.7077
65.374
66.2574
66.8337
67.6445
68.3721
69.4203
75.9673
73.0729
73.2837
74.0661
74.5772
75.2485
75.8676
76.4155
76.9789
78.1329
83.3601
78.7361
)
;
    }
    inletLeft
    {
        type            zeroGradient;
    }
    inletWallsLeft
    {
        type            zeroGradient;
    }
    inletFacesLeft
    {
        type            zeroGradient;
    }
    fineWallsRight
    {
        type            zeroGradient;
    }
    outletWallRight
    {
        type            zeroGradient;
    }
    fineplugRight
    {
        type            cyclicAMI;
        value           nonuniform List<scalar> 
20
(
-90.1162
-92.0106
-93.4515
-94.9595
-96.234
-97.0277
-97.4447
-99.404
-105.303
-96.8037
-96.0342
-95.6242
-95.2875
-95.382
-95.886
-97.3412
-100.068
-106.29
-116.552
-114.215
)
;
    }
    fineFrontAndBackRight
    {
        type            zeroGradient;
    }
    symmetryWallRight
    {
        type            cyclicAMI;
        value           nonuniform List<scalar> 
20
(
5.94917
11.1743
6.06167
-13.7783
-3.08075
0.242646
-2.80563
-13.1578
-6.02952
4.31551
3.74328
-2.39328
-17.6673
-20.8452
-7.82524
-3.1747
5.39891
-0.557404
10.535
-7.57668
)
;
    }
    inletOutletRight
    {
        type            cyclicAMI;
        value           nonuniform List<scalar> 
20
(
-90.1162
-92.0106
-93.4515
-94.9595
-96.234
-97.0277
-97.4447
-99.404
-105.303
-96.8037
-96.0342
-95.6242
-95.2875
-95.382
-95.886
-97.3412
-100.068
-106.29
-116.552
-114.215
)
;
    }
    inletRight
    {
        type            zeroGradient;
    }
    inletWallsRight
    {
        type            zeroGradient;
    }
    inletFacesRight
    {
        type            zeroGradient;
    }
}


// ************************************************************************* //
