/*--------------------------------*- C++ -*----------------------------------*\
| =========                 |                                                 |
| \\      /  F ield         | OpenFOAM: The Open Source CFD Toolbox           |
|  \\    /   O peration     | Version:  4.1                                   |
|   \\  /    A nd           | Web:      www.OpenFOAM.org                      |
|    \\/     M anipulation  |                                                 |
\*---------------------------------------------------------------------------*/
FoamFile
{
    version     2.0;
    format      ascii;
    class       volVectorField;
    location    "9";
    object      U;
}
// * * * * * * * * * * * * * * * * * * * * * * * * * * * * * * * * * * * * * //

dimensions      [0 1 -1 0 0 0 0];

internalField   nonuniform List<vector> 
1680
(
(-6.27608e-19 2.26419 -0.0228513)
(1.87826e-18 1.66855 -0.0153006)
(-1.05074e-17 1.65937 -0.0240211)
(3.79526e-17 1.40434 0.00767582)
(-2.56017e-16 1.7446 -0.0702707)
(-3.18571e-16 1.79639 -0.155549)
(-2.09397e-16 1.48948 -0.105967)
(-2.52326e-16 1.77981 -0.182997)
(-3.24901e-16 1.95851 -0.295901)
(-2.363e-16 1.53167 -0.202704)
(-3.22513e-16 2.19487 -0.390884)
(-2.39554e-16 1.71716 -0.277086)
(-2.79757e-16 1.97677 -0.415523)
(-3.13778e-16 2.25717 -0.627378)
(-2.17062e-16 1.86818 -0.407754)
(-2.95928e-16 2.49417 -0.751797)
(-2.35431e-16 2.26101 -0.463442)
(-2.84478e-16 1.84727 -0.9627)
(-3.28893e-16 4.33473 -0.364821)
(-2.41138e-16 0.658986 -2.96456)
(-2.34374e-16 3.19687 2.14576)
(3.60986e-16 1.65602 -1.23145)
(-1.77137e-15 4.12137 6.2601)
(-2.02376e-15 4.64168 7.23123)
(-2.01255e-15 4.82634 8.13173)
(-2.89027e-15 4.9525 8.93297)
(-2.67449e-15 5.11132 9.63647)
(-2.72548e-15 5.17954 10.2376)
(-2.72905e-15 5.34112 10.7896)
(-2.90005e-15 5.24961 11.1808)
(-3.04406e-15 5.65189 11.829)
(-2.32638e-15 5.06516 9.89111)
(-3.35889e-15 7.08388 13.4574)
(-3.38727e-15 7.22007 13.836)
(-3.46097e-15 7.28488 14.1345)
(-3.45122e-15 7.28009 14.397)
(-3.52221e-15 7.39053 14.6335)
(-3.51933e-15 7.25187 14.8725)
(-3.3619e-15 7.63137 15.6497)
(-4.14761e-15 7.22562 14.0503)
(-3.93139e-15 10.1221 15.7323)
(-2.49267e-15 6.96909 11.3747)
(-2.32937e-15 5.98945 10.7233)
(-3.01123e-15 6.45693 13.8548)
(-2.10849e-15 4.6497 9.9369)
(-2.0637e-15 4.35924 9.80214)
(-2.02537e-15 3.57647 9.57394)
(-2.40269e-15 3.11175 11.3424)
(-1.54368e-15 2.00128 7.49024)
(-1.52779e-15 1.79889 7.44579)
(-1.13495e-15 0.37691 6.05241)
(-4.13074e-16 0.824009 1.95243)
(-1.17154e-16 -0.423324 0.580776)
(-9.13263e-16 0.330775 0.788383)
(8.98537e-15 -1.16041 -5.74721)
(3.13894e-15 -0.299689 -3.11945)
(3.55968e-15 -0.162375 -3.49941)
(3.33536e-15 0.00473633 -3.45344)
(4.36136e-15 -0.00234651 -3.87344)
(3.36393e-15 -0.106111 -2.4227)
(2.89033e-17 -4.87813 -1.01994)
(-2.87163e-16 -5.43347 -1.59825)
(-7.53406e-17 -5.9697 -0.826495)
(8.6096e-16 -4.68771 1.61713)
(-7.09948e-16 -4.44534 3.20255)
(-2.57806e-15 -4.27008 3.7271)
(-2.3021e-15 -2.02378 4.92404)
(-3.06568e-15 2.28338 4.53481)
(-2.8984e-15 4.3908 2.65591)
(-1.17402e-15 3.42896 1.5422)
(-7.00765e-16 -1.35711 0.0151419)
(-1.92456e-15 -1.71149 1.67719)
(-1.41831e-15 1.5826 -1.35948)
(-2.85331e-16 2.7741 -0.63716)
(-5.34351e-16 1.34492 2.25897)
(-2.20398e-15 2.93205 7.50977)
(-3.17404e-15 4.95591 12.6624)
(-2.17067e-15 3.63178 12.4023)
(1.56766e-15 1.11167 4.40246)
(2.86962e-17 -4.68478 -1.22347)
(-2.97065e-16 -5.39903 -1.44174)
(-2.83865e-16 -6.26518 -0.876174)
(5.5172e-16 -5.05472 0.643519)
(-4.79321e-16 -4.69782 2.60347)
(-2.48692e-15 -4.42723 3.22998)
(-2.70772e-15 -2.11861 4.41626)
(-3.72905e-15 2.5027 3.98428)
(-3.27273e-15 4.69146 2.0076)
(-9.73452e-16 3.66367 1.38211)
(-2.89358e-16 -1.29409 -0.0453379)
(-1.63752e-15 -1.56886 0.698771)
(-1.07404e-15 1.70114 -1.76122)
(-1.99085e-16 2.52535 -0.615787)
(-3.21669e-17 0.710105 0.736001)
(-8.9657e-16 1.87778 2.81473)
(-2.40713e-15 4.11065 9.0615)
(-3.45198e-15 4.2975 13.6494)
(-8.15177e-16 3.68215 9.26351)
(-2.46687e-17 -4.53292 -0.931296)
(-3.18672e-16 -5.37794 -1.24148)
(-3.47914e-16 -6.46001 -0.580583)
(2.93049e-16 -5.33838 -0.0667231)
(-2.95794e-16 -4.99082 1.97726)
(-2.38023e-15 -4.59646 2.76468)
(-3.08474e-15 -2.20523 3.9254)
(-4.23985e-15 2.73616 3.44571)
(-3.47269e-15 4.95371 1.4061)
(-7.62719e-16 3.7757 1.27123)
(-4.52596e-17 -1.14137 0.531279)
(-1.26067e-15 -1.37282 -0.17966)
(-6.60588e-16 1.7319 -2.04765)
(-1.04253e-16 2.28261 -0.503258)
(3.08292e-17 0.680007 0.679666)
(7.29706e-17 1.20527 -0.619185)
(-1.01865e-15 2.76757 4.15674)
(-2.91243e-15 3.68442 11.6882)
(-3.10576e-15 4.71427 12.5653)
(-1.48058e-16 -4.51254 0.122704)
(-3.33865e-16 -5.30663 -1.10151)
(-3.38816e-16 -6.58922 -0.1257)
(1.23291e-16 -5.51354 -0.432932)
(-1.69911e-16 -5.29545 1.40948)
(-2.26758e-15 -4.77943 2.33921)
(-3.40612e-15 -2.28344 3.46641)
(-4.45557e-15 2.97666 2.95781)
(-3.34857e-15 5.1737 0.95879)
(-5.24515e-16 3.74713 1.26078)
(1.52005e-17 -0.925959 1.26811)
(-8.70677e-16 -1.08431 -0.733787)
(-3.13714e-16 1.68277 -2.0037)
(-2.67906e-17 2.00366 -0.26064)
(-6.32248e-18 0.760583 0.652427)
(3.77512e-17 1.14612 -0.329764)
(-3.09336e-16 1.64265 1.01484)
(-2.22492e-15 2.60948 8.34781)
(-3.25032e-15 4.90225 12.9928)
(-2.81847e-16 -4.64657 1.48229)
(-3.16134e-16 -5.13862 -1.07972)
(-2.92021e-16 -6.69844 0.362529)
(3.87733e-17 -5.58417 -0.46782)
(-9.71532e-17 -5.58017 0.976259)
(-2.16044e-15 -4.96944 1.96507)
(-3.66658e-15 -2.35477 3.04763)
(-4.48814e-15 3.20881 2.49817)
(-2.96352e-15 5.3423 0.685106)
(-2.6371e-16 3.61937 1.37929)
(-2.02895e-17 -0.670286 1.72646)
(-5.55227e-16 -0.752393 -0.888607)
(-9.3146e-17 1.59191 -1.59059)
(8.37618e-18 1.76501 0.0883016)
(-6.16536e-19 0.769838 0.476805)
(-1.37171e-17 1.14523 -0.00902012)
(-1.13657e-17 1.0526 0.0109686)
(-1.26584e-15 1.27196 3.6944)
(-2.97053e-15 4.27748 10.149)
(-3.53578e-16 -4.93568 2.47282)
(-2.69808e-16 -4.87139 -1.11189)
(-2.34345e-16 -6.82985 0.812878)
(1.07627e-17 -5.56821 -0.256405)
(-6.23747e-17 -5.82075 0.707216)
(-2.0759e-15 -5.15473 1.66691)
(-3.89793e-15 -2.41462 2.67528)
(-4.66e-15 3.42087 1.99187)
(-2.57449e-15 5.4451 0.509525)
(-3.55656e-17 3.44441 1.59246)
(-5.48057e-17 -0.41262 1.8328)
(-3.42343e-16 -0.453694 -0.829948)
(-1.81759e-17 1.47768 -1.04673)
(5.98604e-18 1.59238 0.347509)
(5.75228e-19 0.824797 0.384398)
(2.50035e-18 1.15236 -0.0574583)
(-9.18389e-18 1.0497 0.0843834)
(-1.64755e-16 0.333028 -0.409045)
(-1.93792e-15 3.44488 4.47795)
(-3.58627e-16 -5.30022 2.8198)
(-2.27428e-16 -4.55843 -0.998001)
(-1.91046e-16 -7.0049 1.2044)
(1.7075e-17 -5.48698 0.105355)
(-5.26235e-17 -6.00724 0.606817)
(-2.05688e-15 -5.324 1.49799)
(-4.15241e-15 -2.4447 2.35526)
(-5.1961e-15 3.61298 1.34651)
(-2.40631e-15 5.46703 0.324785)
(9.77855e-17 3.26092 1.80536)
(-4.33794e-17 -0.0571874 1.79146)
(-2.03956e-16 -0.217741 -0.943674)
(-1.08698e-17 1.32521 -0.659298)
(-5.47302e-19 1.47715 0.390251)
(-1.92885e-19 0.891656 0.311323)
(-1.053e-19 1.16803 -0.0126828)
(4.72753e-18 1.05226 -0.0506152)
(1.90113e-17 0.453028 0.127427)
(-3.60483e-17 0.371471 -2.56676)
(-3.2618e-16 -5.73926 2.68925)
(-2.03136e-16 -4.2581 -0.373814)
(-1.51611e-16 -7.20863 1.58499)
(6.82345e-17 -5.36454 0.618048)
(-9.04079e-17 -6.14594 0.71251)
(-2.18257e-15 -5.46604 1.52935)
(-4.46628e-15 -2.41042 2.08455)
(-5.95345e-15 3.79723 0.520425)
(-2.46184e-15 5.39606 0.0654178)
(1.27129e-16 3.07458 1.915)
(-2.5449e-17 0.361819 1.77892)
(-6.98786e-17 -0.0180133 -1.27269)
(-3.42452e-18 1.14514 -0.42427)
(-1.54602e-19 1.39491 0.344243)
(3.47493e-20 0.944102 0.248225)
(-6.21522e-20 1.18347 -0.00547571)
(-9.88056e-19 1.05268 -0.0715945)
(-8.60941e-18 0.823417 -0.0749311)
(2.17172e-17 1.11656 -3.3365)
(-2.54969e-16 -6.21649 2.55955)
(-1.33893e-16 -4.01824 1.06693)
(-5.69606e-17 -7.37551 2.10702)
(1.58672e-16 -5.21984 1.38733)
(-2.61127e-16 -6.23838 1.0891)
(-2.52744e-15 -5.56157 1.78922)
(-4.83232e-15 -2.27015 1.84198)
(-6.44857e-15 3.98601 -0.390089)
(-2.51608e-15 5.23052 -0.23576)
(1.00451e-16 2.86646 1.88511)
(-1.79484e-17 0.661025 1.75452)
(5.88962e-18 0.185006 -0.347307)
(3.86318e-19 1.04263 -0.179811)
(9.16266e-20 1.33879 0.316684)
(-2.89473e-21 0.992966 0.197986)
(2.49953e-20 1.19906 -0.00109438)
(2.17458e-19 1.08011 -0.100954)
(-3.86799e-18 0.948635 -0.232916)
(6.47609e-17 1.00685 -0.843388)
(-1.1313e-16 -7.01192 2.92767)
(6.71225e-17 -3.81952 3.15813)
(1.18187e-16 -7.47566 2.89341)
(1.81705e-16 -5.06136 2.45142)
(-6.58162e-16 -6.28093 1.71974)
(-3.08527e-15 -5.58228 2.20062)
(-5.20642e-15 -1.99747 1.5908)
(-6.25573e-15 4.17889 -1.17949)
(-2.26659e-15 4.98555 -0.436975)
(7.14473e-17 2.63775 1.78971)
(-1.34884e-17 0.853695 1.67628)
(3.18667e-18 0.354315 0.289054)
(-2.61585e-19 1.01116 -0.0495329)
(-1.26161e-20 1.30686 0.288402)
(-1.05026e-21 1.03574 0.155395)
(-4.48684e-21 1.21538 -0.000408217)
(2.05163e-20 1.10733 -0.12047)
(-2.51133e-18 1.04775 -0.191338)
(4.59307e-17 1.12046 -1.40066)
(8.67586e-17 -7.86406 3.78448)
(3.41873e-16 -3.64873 5.40309)
(2.81443e-16 -7.43474 3.8508)
(-9.67985e-18 -4.87801 3.6448)
(-1.26525e-15 -6.23956 2.43527)
(-3.74337e-15 -5.50506 2.61042)
(-5.5405e-15 -1.60334 1.28857)
(-5.38574e-15 4.35871 -1.70238)
(-1.58483e-15 4.68077 -0.372977)
(5.73288e-17 2.41173 1.70218)
(-9.35501e-18 0.999027 1.54939)
(1.75139e-18 0.505806 0.498216)
(-8.62701e-20 1.02629 0.0339614)
(4.79062e-21 1.28864 0.257677)
(1.11444e-22 1.07363 0.119443)
(3.71132e-22 1.22995 -0.00136526)
(9.8729e-21 1.13209 -0.122816)
(-1.16731e-18 1.1483 -0.205374)
(3.34306e-17 1.18776 -0.845123)
(2.56484e-16 -9.60603 4.74637)
(4.87108e-16 -3.40358 7.23685)
(2.96533e-16 -7.40004 4.7038)
(-4.32697e-16 -4.66307 4.65952)
(-1.93146e-15 -6.14128 3.00292)
(-4.3451e-15 -5.32696 2.87557)
(-5.79613e-15 -1.1253 0.889822)
(-4.2039e-15 4.47799 -1.96036)
(-7.31646e-16 4.34519 -0.0302354)
(4.2343e-17 2.22534 1.63122)
(-6.03747e-18 1.12275 1.40516)
(7.68552e-19 0.644232 0.58715)
(-2.48441e-20 1.05652 0.0855621)
(-3.64414e-22 1.28206 0.225714)
(-6.03392e-24 1.10806 0.0897944)
(3.10609e-23 1.24467 -0.00131887)
(7.1244e-21 1.15797 -0.123275)
(-7.15048e-19 1.20062 -0.187045)
(2.46912e-17 1.24588 -0.702348)
(2.89509e-16 -10.4138 5.35137)
(3.1955e-16 -3.19048 9.02402)
(1.01028e-16 -7.11692 5.15998)
(-9.65213e-16 -4.41147 5.35327)
(-2.48661e-15 -5.91984 3.27254)
(-4.77315e-15 -5.0625 2.95258)
(-5.93634e-15 -0.615947 0.381529)
(-3.18489e-15 4.51265 -2.07347)
(-1.16761e-16 3.9996 0.394882)
(1.53377e-17 2.102 1.52461)
(-2.4575e-18 1.23282 1.25342)
(2.41523e-19 0.765847 0.613076)
(-3.10463e-21 1.09632 0.111167)
(-7.73716e-23 1.28224 0.192658)
(-8.9102e-24 1.13732 0.0662139)
(-1.75854e-23 1.25718 3.90644e-05)
(2.75158e-21 1.18079 -0.118232)
(-4.02809e-19 1.26172 -0.17519)
(1.86708e-17 1.27989 -0.654144)
(1.61149e-16 -14.1388 5.64744)
(-2.21035e-16 -2.7341 10.2663)
(-2.95002e-16 -7.16843 5.18821)
(-1.50488e-15 -4.14354 5.65249)
(-2.85621e-15 -5.77628 3.2292)
(-4.99004e-15 -4.73006 2.84936)
(-5.96539e-15 -0.0784076 -0.275185)
(-2.55958e-15 4.44119 -2.15628)
(1.03294e-16 3.6489 0.665853)
(-7.26398e-18 2.0244 1.35308)
(2.12228e-19 1.31584 1.10409)
(1.60155e-21 0.862511 0.600544)
(3.72733e-22 1.13163 0.116281)
(9.74135e-24 1.27919 0.159814)
(-3.03496e-24 1.15478 0.0487393)
(5.63882e-24 1.26144 0.00205908)
(1.2461e-21 1.19562 -0.112377)
(-2.03426e-19 1.2918 -0.161032)
(1.37811e-17 1.30439 -0.458185)
(-1.86727e-16 -12.2187 5.41297)
(-1.32548e-15 -2.57433 13.6321)
(-9.15581e-16 -6.1848 4.64367)
(-2.08364e-15 -3.86882 5.88903)
(-3.09192e-15 -5.30015 2.94624)
(-5.04424e-15 -4.33825 2.69491)
(-6.12307e-15 0.411427 -1.24707)
(-2.19517e-15 4.30003 -2.27186)
(1.01908e-16 3.32061 0.713681)
(-1.06702e-17 1.98745 1.15136)
(7.80939e-19 1.38852 0.964089)
(-4.29207e-20 0.953975 0.563725)
(6.37969e-22 1.17756 0.10595)
(7.61707e-24 1.28748 0.128999)
(9.22967e-25 1.17745 0.0367418)
(-1.6065e-24 1.27478 0.0027835)
(3.83764e-22 1.21795 -0.106968)
(-8.63508e-20 1.3215 -0.141833)
(8.22391e-18 1.32916 -0.350405)
(-6.9057e-16 -23.6249 5.9268)
(-3.13525e-15 -1.39048 14.0306)
(-1.89186e-15 -7.00647 4.19133)
(-2.93e-15 -3.63025 5.77096)
(-3.40122e-15 -5.50889 2.60728)
(-5.06028e-15 -3.86737 2.46171)
(-6.49615e-15 0.831999 -2.41769)
(-1.75291e-15 4.10532 -2.33058)
(8.93141e-17 3.05225 0.650452)
(-4.63407e-18 2.01361 0.95766)
(2.68982e-19 1.49211 0.82924)
(-1.37577e-20 1.07383 0.508099)
(2.32093e-22 1.25439 0.0858983)
(-4.29116e-24 1.32585 0.102196)
(-2.99449e-26 1.22575 0.028501)
(-2.12077e-26 1.31621 0.000684526)
(5.55587e-23 1.26743 -0.100103)
(-2.54922e-20 1.37888 -0.120171)
(4.12384e-18 1.37519 -0.326193)
(-1.58932e-15 -6.87742 3.81173)
(-5.75841e-15 -2.01735 24.8248)
(-3.08255e-15 -3.04184 2.23718)
(-3.96763e-15 -3.36575 6.4204)
(-3.7561e-15 -4.01261 2.283)
(-5.21383e-15 -3.32109 2.57357)
(-5.34613e-15 1.21052 -3.08416)
(-9.08387e-16 3.66939 -2.05706)
(8.94405e-17 2.66183 0.597781)
(-1.22055e-18 1.91845 0.775552)
(-2.1015e-20 1.47107 0.69158)
(2.11771e-21 1.08944 0.433008)
(-2.26834e-23 1.23326 0.0601)
(-1.49137e-25 1.27331 0.0804373)
(-1.45682e-25 1.18403 0.0217709)
(-1.61358e-25 1.26789 -0.00401833)
(-4.45256e-24 1.2261 -0.0885715)
(-3.20467e-21 1.3347 -0.09521)
(1.81771e-18 1.32932 -0.187012)
(-2.67223e-15 -53.625 13.5788)
(-1.04973e-14 2.62619 14.6342)
(-6.41485e-15 -8.95019 3.79769)
(-6.53765e-15 -3.50148 5.78396)
(-5.97778e-15 -6.49146 2.86199)
(-5.63275e-15 -2.7272 2.12106)
(-2.32867e-15 1.36746 -3.02386)
(7.11088e-17 3.01209 -1.32316)
(4.23334e-17 2.16513 0.579873)
(-4.13163e-19 1.68518 0.624989)
(-1.38552e-20 1.31053 0.57242)
(1.05814e-21 0.99489 0.353351)
(-1.94726e-23 1.12387 0.0315297)
(4.68271e-25 1.1408 0.0656983)
(4.92986e-26 1.06548 0.0159014)
(1.78257e-25 1.14512 -0.0100105)
(4.49697e-25 1.1048 -0.073925)
(-4.62779e-22 1.20046 -0.0718115)
(6.65919e-19 1.19761 -0.165269)
(-2.97458e-15 38.8268 -23.5617)
(-1.51302e-14 -7.42096 36.1365)
(-7.89211e-16 10.2252 -7.08718)
(-4.96523e-15 -2.93068 8.66911)
(-1.19077e-15 0.636727 0.783356)
(-6.51889e-15 -2.05228 3.66337)
(3.18159e-17 2.5944 -2.30265)
(3.32094e-16 3.56059 -0.501319)
(-5.15909e-18 2.81554 0.525372)
(1.95745e-20 2.37807 0.486788)
(4.44508e-21 1.91558 0.460335)
(-2.15256e-22 1.51513 0.26809)
(1.87608e-24 1.62019 0.00843543)
(-8.8492e-26 1.59651 0.0545418)
(-2.97342e-27 1.51421 0.0100801)
(-4.34008e-26 1.60374 -0.0144858)
(6.36803e-27 1.55895 -0.0553604)
(9.45101e-23 1.67524 -0.0523774)
(-1.10496e-19 1.66567 -0.0116562)
(-8.73024e-15 -154.463 116.254)
(-1.74701e-14 22.2556 -37.6831)
(-5.01558e-14 -25.8121 47.3878)
(-1.82137e-14 -5.08379 1.29897)
(-3.67118e-14 -13.6072 13.7835)
(-5.31366e-15 -2.27893 -1.51021)
(2.46723e-16 2.8704 -0.869451)
(2.27424e-17 3.86889 -0.0256129)
(-1.86882e-18 3.19879 0.225677)
(1.86467e-20 2.72067 0.192528)
(2.39998e-22 2.21359 0.190747)
(-1.60283e-23 1.76305 0.0999512)
(4.01677e-25 1.82656 -0.00161494)
(-9.88831e-27 1.78966 0.0232865)
(5.39339e-28 1.7085 0.00215632)
(3.96756e-27 1.79284 -0.00831775)
(8.45694e-26 1.75645 -0.0206413)
(-5.58137e-23 1.8822 -0.0221752)
(2.40604e-20 1.88007 -0.0938098)
(6.26125e-17 5.48633 9.99096)
(-6.01604e-15 9.92186 16.9205)
(-5.09806e-15 9.94171 16.9719)
(-4.73408e-15 9.72004 16.3355)
(-4.62066e-15 9.69125 16.1973)
(-6.93816e-15 9.74562 16.1521)
(-4.86975e-15 9.76561 16.1267)
(-4.55924e-15 9.80073 16.1008)
(-4.30181e-15 9.80894 16.0823)
(-4.81674e-15 9.84294 16.0827)
(-4.77832e-15 9.82932 16.0646)
(-4.56623e-15 9.75776 15.873)
(-4.69712e-15 9.80518 16.0213)
(-4.44817e-15 9.81733 16.0903)
(-4.52014e-15 9.80793 16.1216)
(-4.49327e-15 9.76122 16.1559)
(-4.68805e-15 9.78481 16.2166)
(-4.24337e-15 10.0889 16.9456)
(-4.35369e-15 10.238 16.9968)
(-7.18986e-15 5.71368 9.94621)
(8.03769e-17 5.12952 8.63458)
(-4.76034e-15 9.3216 15.9478)
(-3.94842e-15 9.03779 15.4861)
(-3.70174e-15 8.78621 15.0387)
(-3.63872e-15 8.78241 15.0719)
(-6.47142e-15 8.82278 15.1009)
(-3.64102e-15 8.82809 15.1359)
(-3.70215e-15 8.85499 15.1592)
(-3.82488e-15 8.86798 15.1937)
(-4.31706e-15 8.88682 15.2192)
(-4.00196e-15 8.90564 15.2563)
(-3.72115e-15 8.94692 15.3293)
(-4.06966e-15 8.9618 15.331)
(-3.89542e-15 8.9666 15.3618)
(-3.87259e-15 8.99103 15.3895)
(-3.78593e-15 8.98112 15.4207)
(-4.17376e-15 9.0478 15.5071)
(-3.44789e-15 9.39674 16.192)
(-3.61239e-15 9.39473 16.1676)
(-6.31572e-15 4.82145 8.40859)
(-7.10364e-18 5.7214 9.97788)
(-1.82763e-15 9.63655 16.5128)
(-1.45537e-15 9.24066 15.9638)
(-1.17072e-15 9.05184 15.5616)
(-1.41332e-15 9.02175 15.5656)
(-3.78679e-15 9.04092 15.5613)
(-2.03619e-15 9.02691 15.5683)
(-1.88775e-15 9.03533 15.5651)
(-1.96772e-15 9.02766 15.5709)
(-1.86196e-15 9.03219 15.5736)
(-1.86612e-15 9.02875 15.579)
(-1.83961e-15 9.02267 15.5766)
(-1.83008e-15 9.02469 15.591)
(-1.80672e-15 9.02185 15.6055)
(-1.59236e-15 9.02784 15.6109)
(-1.73997e-15 9.00654 15.6188)
(-1.86087e-15 9.05172 15.6648)
(-1.51639e-15 9.35983 16.2956)
(-1.71915e-15 9.45479 16.3973)
(-2.95574e-15 5.07792 8.98458)
(-4.7094e-19 5.71753 9.87107)
(4.13405e-16 9.48193 16.3037)
(3.4044e-16 9.0785 15.6881)
(3.32037e-16 8.89449 15.3235)
(3.15539e-16 8.87555 15.3416)
(-2.08209e-15 8.89476 15.348)
(-1.95563e-15 8.88419 15.3626)
(-1.59398e-15 8.89328 15.3669)
(-2.04957e-15 8.88793 15.3791)
(-1.96181e-15 8.89261 15.386)
(-1.86475e-15 8.89077 15.3971)
(-1.84181e-15 8.89355 15.4091)
(-1.68276e-15 8.89461 15.4168)
(-1.76186e-15 8.89114 15.4296)
(-1.54178e-15 8.89696 15.4361)
(-1.5862e-15 8.8804 15.4441)
(-2.00546e-15 8.91165 15.4724)
(-1.51348e-15 9.17923 16.0138)
(-1.80177e-15 9.38503 16.346)
(-3.13834e-15 5.29269 9.31938)
(5.71905e-19 5.93027 10.281)
(-9.99521e-17 9.52613 16.3694)
(-7.7579e-17 9.08712 15.7136)
(-8.0009e-17 8.91935 15.3714)
(-7.93798e-17 8.89783 15.3863)
(5.28855e-16 8.91261 15.3877)
(4.45774e-16 8.8996 15.3974)
(4.32865e-16 8.90495 15.3975)
(4.4217e-16 8.89696 15.405)
(4.35424e-16 8.8986 15.4079)
(4.28811e-16 8.89395 15.4141)
(4.27776e-16 8.89238 15.4188)
(4.27834e-16 8.89092 15.4244)
(4.20746e-16 8.88644 15.4325)
(3.83074e-16 8.88931 15.4355)
(4.04247e-16 8.87414 15.4406)
(4.3894e-16 8.8921 15.4479)
(3.6269e-16 9.10487 15.8853)
(4.07552e-16 9.42809 16.4172)
(6.56637e-16 5.6555 9.95632)
(-2.33883e-19 6.06293 10.4832)
(2.38146e-17 9.48748 16.31)
(1.78346e-17 9.03401 15.6134)
(1.90998e-17 8.87853 15.3015)
(1.96343e-17 8.86172 15.3182)
(-1.23513e-16 8.87561 15.3212)
(-9.66546e-17 8.86461 15.3314)
(-1.05162e-16 8.87008 15.3329)
(-9.63861e-17 8.86337 15.3408)
(-1.03535e-16 8.86545 15.3444)
(-1.07778e-16 8.86155 15.3511)
(-1.00835e-16 8.86123 15.3565)
(-1.01864e-16 8.85993 15.362)
(-1.01987e-16 8.85655 15.3695)
(-9.64284e-17 8.85919 15.3731)
(-1.01884e-16 8.84748 15.3792)
(-9.85109e-17 8.85843 15.3786)
(-8.69435e-17 9.02834 15.7285)
(-9.95126e-17 9.42484 16.3923)
(-1.47093e-16 5.95954 10.4586)
(7.70248e-20 6.24351 10.7942)
(-5.55962e-18 9.48047 16.2946)
(-4.31553e-18 9.00638 15.5624)
(-4.56737e-18 8.86789 15.2817)
(-4.73948e-18 8.85278 15.2987)
(2.85245e-17 8.86507 15.3005)
(2.20418e-17 8.85455 15.3094)
(2.51069e-17 8.85921 15.3103)
(2.17129e-17 8.85274 15.3172)
(2.51617e-17 8.85445 15.32)
(2.57966e-17 8.85051 15.3259)
(2.39577e-17 8.85018 15.3301)
(2.43785e-17 8.84855 15.3351)
(2.35904e-17 8.84586 15.3414)
(2.35804e-17 8.84777 15.3446)
(2.46098e-17 8.83834 15.3506)
(2.26455e-17 8.84532 15.346)
(2.15582e-17 8.9823 15.63)
(2.44747e-17 9.41974 16.3629)
(3.27008e-17 6.2277 10.9092)
(-2.32471e-20 6.41817 11.0854)
(1.28805e-18 9.45439 16.2524)
(1.06645e-18 8.96711 15.4908)
(1.06837e-18 8.84633 15.2446)
(1.12299e-18 8.8338 15.2624)
(-6.59744e-18 8.84501 15.2642)
(-5.35983e-18 8.83563 15.2728)
(-6.00727e-18 8.84004 15.2741)
(-5.0382e-18 8.83434 15.2809)
(-6.04405e-18 8.83614 15.2838)
(-5.97972e-18 8.83262 15.2897)
(-5.81136e-18 8.83279 15.2939)
(-5.80304e-18 8.83115 15.2991)
(-5.40524e-18 8.82943 15.305)
(-5.54378e-18 8.83083 15.3088)
(-5.65302e-18 8.82364 15.315)
(-5.39323e-18 8.82816 15.3096)
(-5.35847e-18 8.94071 15.5443)
(-6.05551e-18 9.39755 16.3121)
(-7.23538e-18 6.45217 11.2857)
(6.67265e-21 6.60283 11.3993)
(-2.99594e-19 9.42836 16.2101)
(-2.6032e-19 8.93257 15.4299)
(-2.44639e-19 8.83018 15.2177)
(-2.61451e-19 8.81929 15.2356)
(1.54783e-18 8.82932 15.237)
(1.31022e-18 8.82071 15.245)
(1.42708e-18 8.82465 15.2464)
(1.19643e-18 8.81947 15.2527)
(1.41022e-18 8.82111 15.2556)
(1.39474e-18 8.81781 15.2613)
(1.40088e-18 8.8182 15.2652)
(1.36063e-18 8.81637 15.2704)
(1.2537e-18 8.81539 15.2758)
(1.29074e-18 8.81606 15.28)
(1.28091e-18 8.81069 15.286)
(1.31414e-18 8.81331 15.2807)
(1.30737e-18 8.90625 15.4758)
(1.49026e-18 9.36936 16.2565)
(1.61791e-18 6.65451 11.6296)
(-1.83773e-21 6.78677 11.7111)
(6.99994e-20 9.39395 16.155)
(6.20852e-20 8.89741 15.3684)
(5.55142e-20 8.81269 15.1895)
(6.0523e-20 8.80325 15.2071)
(-3.67646e-19 8.8122 15.2084)
(-3.15993e-19 8.80444 15.2159)
(-3.34551e-19 8.80796 15.2175)
(-2.88994e-19 8.80336 15.2236)
(-3.21728e-19 8.80485 15.2265)
(-3.29947e-19 8.80183 15.2321)
(-3.30925e-19 8.80242 15.2359)
(-3.14534e-19 8.80046 15.2413)
(-2.96516e-19 8.80018 15.2462)
(-3.02627e-19 8.80013 15.2509)
(-2.9324e-19 8.79648 15.2566)
(-3.18947e-19 8.7975 15.2523)
(-3.11968e-19 8.87408 15.4135)
(-3.61134e-19 9.33378 16.192)
(-3.6567e-19 6.8434 11.9522)
(4.90028e-22 6.97153 12.0255)
(-1.63579e-20 9.35465 16.0919)
(-1.45467e-20 8.86488 15.3122)
(-1.25953e-20 8.79671 15.1643)
(-1.41369e-20 8.7883 15.1811)
(8.7531e-20 8.79619 15.1822)
(7.56657e-20 8.7892 15.1892)
(7.76793e-20 8.79225 15.191)
(7.05256e-20 8.78818 15.1967)
(7.33778e-20 8.78943 15.1997)
(7.86219e-20 8.78668 15.205)
(7.70341e-20 8.78735 15.2087)
(7.27993e-20 8.78526 15.2141)
(7.08072e-20 8.78557 15.2186)
(7.15476e-20 8.78476 15.2238)
(6.84525e-20 8.78269 15.229)
(7.60682e-20 8.78228 15.226)
(7.33326e-20 8.84471 15.3572)
(8.64067e-20 9.2928 16.12)
(8.35701e-20 7.02625 12.2657)
(-1.2784e-22 7.15514 12.3378)
(3.81854e-21 9.30924 16.0185)
(3.39333e-21 8.83424 15.2594)
(2.87692e-21 8.78111 15.1399)
(3.35671e-21 8.7735 15.1557)
(-2.08052e-20 8.78042 15.1566)
(-1.8085e-20 8.77418 15.1632)
(-1.79729e-20 8.77676 15.1652)
(-1.71781e-20 8.77323 15.1705)
(-1.7009e-20 8.77421 15.1736)
(-1.87063e-20 8.77178 15.1787)
(-1.79128e-20 8.77245 15.1823)
(-1.71293e-20 8.77031 15.1878)
(-1.68424e-20 8.77112 15.1918)
(-1.70091e-20 8.76961 15.1974)
(-1.63036e-20 8.76903 15.2021)
(-1.78386e-20 8.76734 15.2007)
(-1.71377e-20 8.81752 15.3051)
(-2.05798e-20 9.24621 16.0393)
(-1.93699e-20 7.20577 12.5738)
(3.28613e-23 7.33783 12.6487)
(-8.91755e-22 9.25839 15.9358)
(-7.97956e-22 8.8061 15.2109)
(-6.67127e-22 8.76636 15.1171)
(-8.07432e-22 8.75934 15.1315)
(4.94745e-21 8.76535 15.1324)
(4.31127e-21 8.75983 15.1384)
(4.159e-21 8.76194 15.1406)
(4.12348e-21 8.75894 15.1456)
(4.01106e-21 8.75961 15.1488)
(4.41425e-21 8.75753 15.1537)
(4.19993e-21 8.75813 15.1572)
(4.1012e-21 8.75602 15.1626)
(3.97214e-21 8.7572 15.1663)
(4.05874e-21 8.75508 15.1722)
(3.93665e-21 8.75586 15.1763)
(4.13984e-21 8.753 15.1767)
(4.01074e-21 8.79271 15.2572)
(4.90843e-21 9.19428 15.9498)
(4.54332e-21 7.38349 12.8788)
(-8.34463e-24 7.51934 12.9575)
(2.08496e-22 9.20191 15.8434)
(1.9001e-22 8.7803 15.1666)
(1.57924e-22 8.75222 15.0953)
(1.94663e-22 8.74564 15.1081)
(-1.17775e-21 8.75084 15.1091)
(-1.02214e-21 8.74601 15.1147)
(-9.64309e-22 8.74766 15.117)
(-9.71281e-22 8.74519 15.1216)
(-9.54735e-22 8.74554 15.1249)
(-1.03025e-21 8.74385 15.1295)
(-9.92871e-22 8.7443 15.133)
(-9.87737e-22 8.74232 15.1383)
(-9.33266e-22 8.74374 15.1417)
(-9.70198e-22 8.74116 15.1479)
(-9.53169e-22 8.74314 15.1514)
(-9.57529e-22 8.73921 15.1537)
(-9.43118e-22 8.77022 15.2133)
(-1.17408e-21 9.13695 15.8513)
(-1.06846e-21 7.55993 13.1815)
(2.09464e-24 7.69989 13.2645)
(-4.87638e-23 9.13993 15.7414)
(-4.55987e-23 8.75695 15.1265)
(-3.80259e-23 8.73878 15.0745)
(-4.65393e-23 8.73251 15.0858)
(2.7967e-22 8.73697 15.0868)
(2.40714e-22 8.73282 15.0919)
(2.24426e-22 8.73398 15.0945)
(2.25816e-22 8.73205 15.0987)
(2.27695e-22 8.73206 15.1021)
(2.38337e-22 8.73077 15.1064)
(2.3511e-22 8.73101 15.1099)
(2.36254e-22 8.72928 15.115)
(2.19897e-22 8.73077 15.1183)
(2.31675e-22 8.72791 15.1246)
(2.29136e-22 8.73088 15.1275)
(2.22009e-22 8.726 15.1316)
(2.22726e-22 8.75007 15.1733)
(2.81123e-22 9.07421 15.7438)
(2.49212e-22 7.73529 13.4818)
(-5.2008e-25 7.87976 13.5703)
(1.13953e-23 9.0725 15.6298)
(1.09249e-23 8.73614 15.0909)
(9.20604e-24 8.72618 15.055)
(1.09782e-23 8.72014 15.0647)
(-6.59715e-23 8.72388 15.0658)
(-5.64003e-23 8.72045 15.0704)
(-5.25327e-23 8.7211 15.0731)
(-5.23733e-23 8.71966 15.077)
(-5.42094e-23 8.71937 15.0804)
(-5.49695e-23 8.71842 15.0844)
(-5.5386e-23 8.71839 15.088)
(-5.57518e-23 8.71701 15.0927)
(-5.20542e-23 8.71831 15.096)
(-5.51353e-23 8.71547 15.1022)
(-5.44519e-23 8.71909 15.1046)
(-5.17898e-23 8.71341 15.1105)
(-5.26876e-23 8.73225 15.1373)
(-6.71752e-23 9.00613 15.6274)
(-5.72899e-23 7.90968 13.7798)
(1.27892e-25 8.05938 13.8752)
(-2.65869e-24 8.99947 15.5081)
(-2.59164e-24 8.7178 15.0597)
(-2.21415e-24 8.71455 15.0366)
(-2.56036e-24 8.70877 15.0447)
(1.54413e-23 8.71173 15.0461)
(1.31935e-23 8.70916 15.0501)
(1.2383e-23 8.70929 15.053)
(1.22243e-23 8.7083 15.0564)
(1.2872e-23 8.70781 15.0598)
(1.27167e-23 8.70712 15.0635)
(1.29414e-23 8.70686 15.0672)
(1.29895e-23 8.70588 15.0715)
(1.23371e-23 8.70673 15.0749)
(1.30625e-23 8.70427 15.0809)
(1.28184e-23 8.70799 15.0831)
(1.21719e-23 8.70176 15.0904)
(1.24517e-23 8.71697 15.1052)
(1.59782e-23 8.93308 15.5027)
(1.29843e-23 8.08318 14.0752)
(-3.1164e-26 8.23966 14.1804)
(6.18895e-25 8.92059 15.3748)
(6.06216e-25 8.70165 15.0324)
(5.25428e-25 8.70362 15.0189)
(5.94095e-25 8.6985 15.0253)
(-3.59086e-24 8.70034 15.0269)
(-3.08937e-24 8.69873 15.0302)
(-2.93549e-24 8.69839 15.033)
(-2.87864e-24 8.6977 15.0361)
(-3.04713e-24 8.69712 15.0394)
(-2.95826e-24 8.69657 15.0428)
(-3.00171e-24 8.69617 15.0463)
(-3.00296e-24 8.69556 15.0503)
(-2.91248e-24 8.69586 15.054)
(-3.07835e-24 8.69426 15.0594)
(-3.00447e-24 8.69725 15.0619)
(-2.87805e-24 8.69129 15.0701)
(-2.93331e-24 8.70425 15.0762)
(-3.77674e-24 8.85558 15.3705)
(-2.91714e-24 8.25515 14.3662)
(7.61888e-27 8.42319 14.4926)
(-1.45097e-25 8.83808 15.2311)
(-1.41215e-25 8.69069 15.012)
(-1.24212e-25 8.69522 15.0051)
(-1.39414e-25 8.69182 15.0089)
(8.40153e-25 8.69212 15.0105)
(7.32161e-25 8.69115 15.0126)
(7.04784e-25 8.69035 15.0148)
(6.89841e-25 8.68951 15.0171)
(7.26463e-25 8.68862 15.0197)
(6.9817e-25 8.68775 15.0224)
(6.99848e-25 8.68689 15.0254)
(7.00009e-25 8.68605 15.0287)
(6.89936e-25 8.68543 15.0321)
(7.28516e-25 8.68433 15.0364)
(7.11571e-25 8.68532 15.0397)
(6.89448e-25 8.68103 15.0469)
(6.95161e-25 8.69107 15.0483)
(8.95057e-25 8.77265 15.2324)
(6.5954e-25 8.42326 14.6449)
(-1.56119e-27 8.61058 14.8239)
(2.84679e-26 8.7527 15.0801)
(2.74603e-26 8.69281 15.0032)
(2.44828e-26 8.695 15.0014)
(2.787e-26 8.69442 15.0021)
(-1.64104e-25 8.69407 15.0026)
(-1.4623e-25 8.69366 15.0031)
(-1.42013e-25 8.69305 15.0038)
(-1.39359e-25 8.69232 15.0046)
(-1.44922e-25 8.69143 15.0056)
(-1.38744e-25 8.69038 15.0067)
(-1.37003e-25 8.68914 15.008)
(-1.37918e-25 8.68772 15.0095)
(-1.36954e-25 8.68604 15.0113)
(-1.4394e-25 8.68417 15.0133)
(-1.42082e-25 8.68208 15.0156)
(-1.38896e-25 8.67892 15.0189)
(-1.37893e-25 8.67938 15.02)
(-1.77368e-25 8.69418 15.0844)
(-1.25751e-25 8.5934 14.8933)
(3.46978e-15 -0.0650738 -2.66503)
(4.55637e-15 -0.260396 -3.24801)
(3.38325e-15 0.0379335 -2.60731)
(3.32897e-15 0.111332 -2.54876)
(3.49296e-15 0.216754 -2.53559)
(2.01597e-15 0.320891 -1.93199)
(7.74729e-16 -0.240083 2.19019)
(9.14638e-16 -0.299176 1.81252)
(9.19258e-16 -0.422615 2.12697)
(1.07441e-15 -0.98519 4.60149)
(6.34927e-16 -1.72413 5.34482)
(6.05116e-16 -1.86939 5.44101)
(6.87531e-16 -3.02329 8.69642)
(4.24454e-16 -3.42527 7.53153)
(2.81059e-16 -4.06594 7.78652)
(1.6002e-16 -4.19071 8.02631)
(1.19988e-16 -6.02078 11.8942)
(-1.93003e-18 -6.15318 9.39797)
(-2.04784e-18 -6.52555 10.0098)
(-1.51024e-16 -8.32851 13.6686)
(-5.32525e-16 -7.97741 10.3301)
(-1.08657e-15 -8.41648 11.2219)
(-1.00243e-15 -8.48948 11.4261)
(-1.0631e-15 -8.65365 11.7917)
(-1.11764e-15 -8.7656 12.0834)
(-1.15968e-15 -8.82189 12.405)
(-1.19234e-15 -8.81075 12.7402)
(-1.16767e-15 -9.18688 13.0124)
(5.9258e-16 -7.85045 12.127)
(-4.3133e-16 -8.09811 13.0343)
(-2.13886e-16 -8.18539 13.4127)
(-5.22209e-17 -7.9881 13.7003)
(8.56682e-17 -7.85223 13.9755)
(2.8149e-16 -7.65908 14.163)
(6.66839e-16 -7.42835 14.2193)
(1.3208e-15 -7.08002 13.9619)
(1.86974e-15 -6.66702 12.8589)
(2.48355e-15 -6.49669 10.0028)
(5.83492e-15 -1.25906 -3.59288)
(3.18888e-15 -4.28785 1.95965)
(5.50062e-15 -3.44629 -0.673346)
(6.58327e-15 -5.41884 0.805445)
(5.85072e-15 -4.75636 -0.281594)
(4.61766e-15 -4.24636 -0.398558)
(6.28908e-15 -5.53631 -0.717362)
(4.41248e-15 -3.80849 -0.858484)
(6.49342e-15 -4.7794 -1.37628)
(5.22036e-15 -4.01739 -1.7783)
(4.18914e-15 -3.19052 -1.57793)
(5.60664e-15 -3.92993 -2.31001)
(3.95597e-15 -2.2333 -1.79802)
(5.06168e-15 -2.73416 -2.76157)
(3.8434e-15 -1.56109 -2.32267)
(3.0121e-15 -0.728317 -1.56688)
(3.98063e-15 -0.936265 -2.23564)
(2.94805e-15 0.0512306 -0.603739)
(1.87801e-15 0.499049 -0.328347)
(2.25134e-15 0.545195 1.46191)
(3.16294e-15 0.334334 1.32376)
(-2.07921e-15 0.525714 2.58083)
(1.20502e-15 0.31648 -2.07507)
(1.01263e-15 -0.484028 -2.81893)
(1.77581e-15 0.445838 3.01768)
(4.37827e-15 0.497074 -0.400004)
(4.03974e-15 0.166402 -2.1757)
(1.20991e-15 -0.114101 0.227495)
(2.69255e-15 -0.381342 4.05289)
(3.55871e-15 -0.252933 6.5461)
(3.4593e-15 -0.0734021 7.33525)
(3.24614e-15 -0.00184508 7.39825)
(2.96223e-15 0.0366305 7.27115)
(2.66342e-15 0.136395 6.46944)
(2.42934e-15 0.28575 4.37733)
(2.35014e-15 0.501043 0.760988)
(2.48877e-15 0.571445 -4.42592)
(2.69473e-15 0.465317 -9.70825)
(3.06038e-15 -0.209653 -13.313)
(2.40947e-15 -0.863233 -8.66019)
(-1.08812e-15 -0.294726 1.82034)
(2.34827e-15 0.944511 -0.946922)
(2.78482e-15 -0.899332 -4.0574)
(2.33672e-15 -0.160557 -0.517294)
(6.2066e-15 0.569358 1.19038)
(4.2512e-15 -0.445629 -0.0928462)
(3.80946e-15 -0.94065 4.52877)
(4.49201e-15 -0.913041 7.93781)
(3.53102e-15 -0.381183 8.55182)
(2.93596e-15 -0.0687609 8.31182)
(2.66439e-15 0.0322008 8.20413)
(2.30261e-15 0.138835 8.02028)
(2.01298e-15 0.416581 7.24113)
(1.88319e-15 0.825739 5.25661)
(1.98224e-15 1.37162 1.80981)
(2.31424e-15 1.65184 -3.1487)