/*--------------------------------*- C++ -*----------------------------------*\
| =========                 |                                                 |
| \\      /  F ield         | OpenFOAM: The Open Source CFD Toolbox           |
|  \\    /   O peration     | Version:  4.1                                   |
|   \\  /    A nd           | Web:      www.OpenFOAM.org                      |
|    \\/     M anipulation  |                                                 |
\*---------------------------------------------------------------------------*/
FoamFile
{
    version     2.0;
    format      ascii;
    class       volScalarField;
    location    "14";
    object      p;
}
// * * * * * * * * * * * * * * * * * * * * * * * * * * * * * * * * * * * * * //

dimensions      [0 2 -2 0 0 0 0];

internalField   nonuniform List<scalar> 
1280
(
1.8195
0.173463
1.3595
4.66228
6.81511
7.13235
7.83372
9.43963
9.58333
10.1801
10.6141
9.99551
7.80858
6.54324
4.84672
-1.57019
-6.44089
-11.3176
-14.8974
-29.1109
-20.6965
-4.97117
12.1721
21.2998
25.5283
31.143
-13.3666
13.5948
14.5862
14.2563
13.8594
13.3145
12.4106
11.7347
12.265
14.4298
18.8234
24.036
31.3222
29.8882
-17.5669
14.3079
21.705
25.5486
42.3834
41.9809
42.7861
44.0787
46.7938
47.0672
47.0334
46.8051
44.4726
42.9951
42.8885
45.9697
28.6494
25.0255
18.2533
-8.30576
39.7114
41.684
34.5339
29.5652
25.3546
23.4022
23.0843
24.0224
25.266
26.2653
27.0476
27.5336
27.7799
16.1629
51.0076
44.9664
40.1116
30.4281
12.6293
-3.66902
-13.1891
-0.283538
-1.73759
-2.57689
2.71715
3.43003
2.45447
5.80085
5.96144
5.79535
7.37062
6.99705
6.90238
7.13475
7.53051
6.72266
4.96653
4.86132
3.71158
1.2787
-0.248423
-0.765373
-0.862224
-1.21899
-1.33675
-0.225013
-0.290584
-0.340875
0.890155
5.16209
9.70692
2.95614
0.88392
-1.42213
-6.73358
-10.9414
-10.1541
-1.21464
2.45023
-0.175306
-0.797255
-1.28492
-2.69893
-4.49351
-3.08401
-2.71369
-1.42069
3.06732
11.7197
19.6637
11.7077
5.76864
-0.707047
-16.1564
-24.8411
-24.6217
-5.51018
3.41772
-0.319701
-1.47899
-2.72423
-5.21987
-9.24831
-7.2984
-4.98353
-2.03442
3.65646
13.8956
22.5905
16.4139
8.24437
-0.853555
-21.8475
-30.93
-31.7523
-6.44801
5.73068
-0.309718
-1.78738
-3.7978
-7.46494
-13.81
-10.7903
-7.23745
-3.02012
3.74194
15.6337
23.1797
19.2481
10.9452
0.744457
-22.5709
-33.765
-34.2381
-7.13921
7.9468
-0.267853
-2.11213
-4.94905
-9.72505
-17.7344
-13.7012
-9.82567
-4.35169
3.5156
16.7635
22.0402
20.3281
11.9955
2.2842
-20.4591
-36.0792
-35.2957
-7.86949
10.2472
-0.192368
-2.30969
-5.83172
-11.6555
-20.3072
-16.0842
-12.2931
-5.83509
2.67601
16.1043
19.2593
19.3129
11.6486
3.9189
-15.355
-34.2704
-31.1497
-5.79981
13.1011
-0.0917974
-2.4233
-6.48404
-13.3154
-21.6426
-18.2873
-14.3544
-7.44231
1.20282
13.5566
14.8036
15.9604
9.90065
4.96328
-8.73622
-29.219
-25.2261
-5.26476
14.3839
-0.00647526
-2.43031
-6.87648
-14.4146
-21.7979
-19.552
-15.7728
-9.0403
-0.697562
9.74366
8.83232
10.8229
7.8525
5.77543
-0.487006
-17.2865
-20.0689
-3.78947
15.9787
0.0350962
-2.32897
-7.03486
-14.8086
-20.9934
-19.718
-16.5247
-10.446
-2.72603
5.5482
2.71528
5.62514
7.31533
7.34975
8.58755
4.78252
0.203705
7.79629
49.4805
-0.0195263
-2.10773
-6.95819
-14.5124
-19.5655
-19.1213
-16.7325
-11.513
-4.54286
1.91485
-0.397872
2.52563
8.31781
10.0117
15.7698
17.5607
15.1376
16.548
50.1592
-0.194246
-1.72248
-6.63573
-13.6756
-17.8606
-18.108
-16.5136
-12.1365
-5.87415
-0.855246
0.0563648
1.24919
9.35888
12.0196
22.1469
26.7505
19.6067
16.2094
49.5245
-0.480266
-1.14114
-6.07703
-12.5135
-16.1344
-16.9051
-15.9468
-12.2539
-6.55585
-3.46667
0.709786
0.436015
9.92154
13.7263
25.4743
33.3301
27.9841
19.2558
46.3927
-0.80368
-0.404054
-5.30503
-11.179
-14.4924
-15.6666
-15.1385
-11.8682
-6.45313
-5.95003
0.19565
0.450971
9.97602
14.467
25.8016
34.6169
28.3965
9.03781
-3.17823
-1.04667
0.379168
-4.30216
-9.57708
-12.7649
-14.3805
-14.1839
-11.0648
-5.42329
-7.04931
-2.0358
0.687212
9.56076
14.2926
24.6079
32.4925
25.619
1.60137
-19.5567
-1.08893
0.972076
-3.22983
-7.69578
-10.8171
-12.8537
-12.8891
-9.67363
-3.5225
-4.14649
-4.90998
1.14984
8.57281
13.372
22.0344
27.8411
21.4955
3.28185
-12.1155
-0.911449
1.27508
-2.02335
-5.38799
-8.34901
-10.5872
-10.8259
-7.62836
-1.41608
2.49684
-5.88338
1.58898
7.35209
11.8355
18.727
22.5242
17.1734
5.38373
-2.3117
-0.561449
1.25486
-1.22763
-3.51219
-5.88564
-7.68373
-7.63977
-4.95641
-1.17714
3.21441
-4.05611
1.24282
5.94612
9.81069
15.0589
17.2128
13.0939
5.22538
0.412982
-0.210623
1.21235
-0.388055
-1.49455
-3.00162
-4.36743
-4.66468
-3.11441
0.783345
0.00740588
-1.6471
0.900988
4.7895
7.77584
11.4296
12.3375
9.23537
4.09439
1.72107
0.019012
0.803902
-0.268202
-0.858963
-1.77918
-2.31408
-1.99237
-1.17909
1.64358
-1.48383
-1.83325
-0.116117
3.02947
5.36714
7.89815
8.11193
5.68237
2.6096
1.50516
0.11664
0.571111
0.49656
0.700578
0.737071
0.0690759
-2.00395
-2.43072
-1.32806
-2.56085
-3.27475
-2.81184
-1.25178
0.387476
2.45261
3.00989
1.9803
0.821913
0.690568
136.13
133.97
131.726
128.974
125.519
121.94
117.828
113.31
108.546
104.091
99.9731
96.3243
93.2324
90.6873
88.6075
86.7896
84.9903
83.2342
82.2115
80.1064
107.219
107.811
106.715
106.536
105.974
105.67
105.468
105.199
104.674
103.761
102.377
100.399
97.8236
94.7544
91.6451
89.0804
87.3732
86.3509
86.4157
85.0303
115.427
115.889
115.01
115.379
115.513
115.837
116.147
116.518
116.945
117.317
117.562
117.506
117.004
115.93
114.332
112.541
111.372
110.672
110.773
110.114
92.618
94.5204
95.0308
96.0734
96.8071
97.4961
98.248
98.8617
99.5044
100.104
100.723
101.385
102.136
103.009
104.05
105.196
106.377
107.542
108.393
109.308
73.8904
76.21
77.8514
79.491
81.0271
82.2626
83.624
84.7907
85.9622
87.0507
88.0886
89.0809
90.0378
90.993
91.9656
93.0348
94.1271
95.4117
96.3754
97.7092
52.5973
55.0154
57.6609
59.7586
61.9184
63.5729
65.4166
67.0336
68.6649
70.2145
71.7068
73.1462
74.5193
75.8475
77.1
78.343
79.4707
80.7129
81.5932
82.8649
33.9501
35.6596
37.7907
38.9927
40.8499
42.0754
43.7716
45.2378
46.8857
48.5443
50.2889
52.1217
54.0383
56.0651
58.1442
60.3211
62.3997
64.5509
66.1791
68.6685
14.1801
12.9508
13.1092
11.7728
11.7928
10.695
10.3934
9.48108
8.91352
8.23847
7.81496
7.6113
7.76392
8.40507
9.63289
11.6148
14.0796
17.171
19.464
23.0042
24.7977
19.4469
18.3219
14.8535
13.0825
9.879
7.68032
4.68725
2.25952
-0.311201
-2.49997
-4.58248
-6.46985
-8.19351
-9.65595
-10.8723
-11.6454
-11.6346
-11.353
-8.63719
71.9361
66.2831
64.647
60.2124
57.8949
53.7017
50.6552
46.6047
43.201
39.5865
36.6061
33.9685
32.008
30.6591
30.0283
29.8461
29.725
29.4814
28.1632
25.8667
116.593
115.214
115.743
114.339
115.11
114.032
114.386
113.556
113.215
112.156
110.885
108.882
106.169
102.588
98.432
94.211
90.7895
89.2859
88.8036
85.0526
102.236
103.501
104.859
104.697
106.587
106.565
108.051
108.508
109.491
110.057
110.649
111.082
111.45
111.682
111.682
111.25
110.461
109.357
109.148
108.536
87.3364
88.9663
91.5032
91.3114
94.2409
94.5246
96.6424
97.6036
99.0276
100.106
101.076
101.829
102.404
102.914
103.583
104.584
105.945
107.501
108.699
109.773
59.2459
60.438
63.8849
63.3161
66.9755
67.1712
69.7621
71.0223
72.9331
74.6414
76.418
78.2167
80.0187
81.8483
83.6891
85.6181
87.5514
89.7021
91.4606
93.663
28.3461
27.5363
31.1422
29.4362
33.0665
32.3784
34.7761
35.4296
37.0495
38.3338
39.7995
41.2812
42.8167
44.4594
46.2155
48.2446
50.3554
52.9956
55.3601
58.8866
17.8324
13.6027
15.5223
11.1063
12.624
9.54968
9.62593
7.97039
7.36479
6.41686
5.79808
5.28231
5.05967
5.28021
6.09101
7.46852
8.74607
10.3578
11.6139
14.8017
60.2588
53.9671
55.2584
47.3363
46.2952
40.3696
37.0933
32.3967
28.4434
24.2325
20.2871
16.4573
13.0063
10.1633
8.19881
6.8816
5.89452
5.08999
3.72092
4.51221
80.2446
72.7793
80.7753
73.5132
75.4145
71.8448
70.4648
67.7572
65.3552
62.6488
59.9523
57.2535
54.7354
52.638
51.1583
50.0632
49.2022
48.4371
46.9032
44.9802
90.9615
68.8369
77.1016
66.3068
63.8136
57.4004
52.6906
47.626
43.2595
39.3571
36.1801
33.7993
32.3832
32.1318
33.2379
35.4572
38.4561
42.6001
46.6203
47.9338
772.19
689.998
641.098
585.215
536.507
489.525
445.833
404.549
365.66
328.87
294
260.859
229.257
199.14
170.582
142.82
115.87
93.5524
68.5717
32.6101
782.028
699.836
650.936
595.053
546.346
499.364
455.672
414.389
375.502
338.712
303.843
270.704
239.103
208.987
180.43
152.668
125.718
103.401
78.4196
42.46
100.79
78.6665
86.9318
76.1382
73.6459
67.2339
62.5251
57.4616
53.0961
49.1948
46.0186
43.6388
42.2236
41.973
43.0795
45.2987
48.2978
52.4429
56.4658
57.781
90.1112
82.6483
90.6466
83.3867
85.2907
81.7234
80.3461
77.6411
75.2417
72.5378
69.8438
67.1475
64.6321
62.5376
61.0603
59.9659
59.106
58.3431
56.8111
54.8877
70.1419
63.8504
65.1424
57.2206
56.1802
50.2552
46.9796
42.2839
38.3316
34.1218
30.1778
26.3499
22.9013
20.0614
18.0994
16.7829
15.7955
14.9898
13.6186
14.4071
27.6852
23.4542
25.3727
20.9566
22.4727
19.3979
19.4728
17.8161
17.2091
16.2596
15.6391
15.1215
14.897
15.1158
15.9245
17.2984
18.5715
20.1807
21.436
24.6225
38.1704
37.3585
40.9639
39.2569
42.8861
42.1964
44.5928
45.2445
46.8626
48.1449
49.6085
51.0882
52.6217
54.2628
56.0184
58.0484
60.1611
62.8044
65.1716
68.7012
69.0685
70.2619
73.7109
73.1438
76.8051
77.0028
79.5956
80.8578
82.7708
84.4813
86.2602
88.0613
89.8659
91.6984
93.5426
95.4754
97.4127
99.5672
101.329
103.535
97.1994
98.8303
101.368
101.177
104.107
104.391
106.508
107.47
108.893
109.972
110.943
111.7
112.28
112.799
113.48
114.492
115.86
117.419
118.618
119.697
112.097
113.369
114.732
114.577
116.472
116.459
117.952
118.421
119.414
119.993
120.599
121.046
121.426
121.668
121.671
121.233
120.434
119.327
119.122
118.518
126.621
125.257
125.792
124.398
125.176
124.106
124.466
123.641
123.302
122.243
120.968
118.959
116.236
112.644
108.477
104.249
100.823
99.316
98.8358
95.0923
82.0513
76.4045
74.772
70.3427
68.0295
63.8421
60.8015
56.7589
53.3637
49.7592
46.789
44.1616
42.2108
40.8702
40.2436
40.0615
39.9334
39.6767
38.3484
36.0289
34.8611
29.5015
28.3709
24.8961
23.1164
19.9047
17.6944
14.6889
12.2454
9.65655
7.44589
5.33837
3.42465
1.67473
0.190785
-1.04563
-1.83552
-1.83367
-1.55852
1.14939
24.044
22.7971
22.9421
21.5914
21.5964
20.4829
20.1649
19.2356
18.6517
17.9612
17.5248
17.3113
17.4594
18.1013
19.3345
21.3232
23.7933
26.8847
29.1756
32.7182
43.7359
45.4387
47.5651
48.7631
50.6171
51.8402
53.5348
55.0003
56.6487
58.3087
60.0559
61.8924
63.8136
65.8455
67.9296
70.1111
72.1933
74.3474
75.9791
78.4749
62.3992
64.8146
67.4638
69.5643
71.7268
73.3842
75.2308
76.8509
78.4855
80.0382
81.5334
82.9753
84.3504
85.68
86.9331
88.1761
89.3028
90.5436
91.4225
92.6924
83.6349
85.9563
87.6041
89.2492
90.7895
92.0291
93.3941
94.564
95.7384
96.8295
97.8696
98.8638
99.8224
100.779
101.752
102.822
103.913
105.197
106.16
107.495
102.429
104.327
104.845
105.891
106.63
107.324
108.081
108.7
109.349
109.955
110.58
111.249
112.007
112.885
113.928
115.074
116.253
117.416
118.264
119.181
124.91
125.402
124.583
124.995
125.159
125.507
125.85
126.252
126.708
127.103
127.366
127.321
126.827
125.754
124.157
122.375
121.213
120.522
120.624
119.973
117.329
117.862
116.836
116.718
116.228
116.008
115.868
115.626
115.1
114.168
112.749
110.731
108.109
104.996
101.857
99.2671
97.5339
96.489
96.5272
95.1138
143.404
141.454
139.6
137.248
134.191
130.98
127.157
122.73
117.972
113.514
109.385
105.72
102.614
100.058
97.9697
96.1371
94.3196
92.5466
91.5073
89.3661
)
;

boundaryField
{
    outletWall
    {
        type            fixedValue;
        value           uniform 0;
    }
    fineWalls
    {
        type            zeroGradient;
    }
    fineFrontAndBack
    {
        type            zeroGradient;
    }
    fineplugLeft
    {
        type            cyclicAMI;
        value           nonuniform List<scalar> 
20
(
70.0627
72.0336
71.3946
71.7569
72.3176
73.339
74.8968
77.068
79.7223
82.7503
86.1238
89.7537
93.3672
102.91
103.781
105.521
107.439
107.815
106.182
104.765
)
;
    }
    fineplugRight
    {
        type            cyclicAMI;
        value           nonuniform List<scalar> 
20
(
79.4352
81.5426
80.9441
81.3687
81.9806
83.0562
84.6635
86.8953
89.6295
92.7611
96.2207
99.8843
103.74
114.536
114.985
116.346
117.82
117.766
115.689
113.99
)
;
    }
    inletOutletLeft
    {
        type            cyclicAMI;
        value           nonuniform List<scalar> 
20
(
70.0627
72.0336
71.3946
71.7569
72.3176
73.339
74.8968
77.068
79.7223
82.7503
86.1238
89.7537
93.3672
102.91
103.781
105.521
107.439
107.815
106.182
104.765
)
;
    }
    inletLeft
    {
        type            zeroGradient;
    }
    inletWallsLeft
    {
        type            zeroGradient;
    }
    inletFacesLeft
    {
        type            zeroGradient;
    }
    inletOutletRight
    {
        type            cyclicAMI;
        value           nonuniform List<scalar> 
20
(
79.4352
81.5426
80.9441
81.3687
81.9806
83.0562
84.6635
86.8953
89.6295
92.7611
96.2207
99.8843
103.74
114.536
114.985
116.346
117.82
117.766
115.689
113.99
)
;
    }
    inletRight
    {
        type            zeroGradient;
    }
    inletWallsRight
    {
        type            zeroGradient;
    }
    inletFacesRight
    {
        type            zeroGradient;
    }
}


// ************************************************************************* //
