/*--------------------------------*- C++ -*----------------------------------*\
| =========                 |                                                 |
| \\      /  F ield         | OpenFOAM: The Open Source CFD Toolbox           |
|  \\    /   O peration     | Version:  4.1                                   |
|   \\  /    A nd           | Web:      www.OpenFOAM.org                      |
|    \\/     M anipulation  |                                                 |
\*---------------------------------------------------------------------------*/
FoamFile
{
    version     2.0;
    format      ascii;
    class       volVectorField;
    location    "14";
    object      U;
}
// * * * * * * * * * * * * * * * * * * * * * * * * * * * * * * * * * * * * * //

dimensions      [0 1 -1 0 0 0 0];

internalField   nonuniform List<vector> 
1280
(
(-7.17876e-16 -3.88958 -2.02047)
(-1.26172e-15 -3.43431 -2.0368)
(-1.19579e-15 -3.15747 -1.4522)
(-1.32408e-15 -2.74627 -1.65174)
(-1.66344e-15 -2.94629 -2.41061)
(-1.34835e-15 -2.03132 -1.77578)
(-1.32626e-15 -1.92471 -2.01563)
(-1.48853e-15 -1.43805 -2.1193)
(-1.81782e-15 -1.39976 -3.19956)
(1.31938e-16 -0.613937 -2.61914)
(1.05294e-15 -0.052332 -2.88515)
(3.03369e-15 0.248624 -4.14428)
(2.77133e-15 0.997713 -3.13901)
(2.60979e-15 1.57785 -2.66784)
(2.30338e-15 2.33111 -4.7164)
(1.5638e-15 2.77681 -3.85038)
(1.51733e-15 3.60169 -3.52153)
(1.54627e-15 4.07906 -5.02862)
(1.08053e-15 4.67352 -3.69646)
(1.21412e-15 4.49575 -5.0203)
(1.18778e-15 5.18492 -1.7076)
(3.48609e-16 5.47367 1.78662)
(2.93539e-16 5.47753 3.81556)
(7.21896e-16 5.84053 5.71921)
(1.03659e-15 5.7824 7.84197)
(1.04362e-15 5.99575 10.4583)
(1.76173e-15 4.31434 8.82607)
(1.07369e-15 8.82063 15.3736)
(1.28184e-15 8.90358 15.4831)
(1.59401e-15 8.90482 15.1834)
(1.95395e-15 8.83968 14.6231)
(2.31915e-15 8.73353 13.899)
(2.48567e-15 8.60413 13.0918)
(2.43275e-15 8.46461 12.3163)
(2.12596e-15 8.33313 11.6738)
(1.41945e-15 8.20486 11.2115)
(2.61681e-16 8.15288 10.9802)
(-1.09775e-15 8.07795 10.8643)
(-2.12716e-15 8.29081 10.836)
(-3.01629e-15 8.14626 9.62332)
(-4.10501e-15 10.6964 10.1316)
(-3.44059e-15 6.21129 6.92384)
(-3.63845e-15 5.47464 6.92474)
(-3.42366e-15 4.64066 6.993)
(-1.02797e-15 3.78014 7.73901)
(5.04914e-16 2.15424 4.91575)
(1.34557e-15 1.72672 4.73904)
(1.13256e-15 1.06889 4.96643)
(7.39605e-15 0.36977 3.33363)
(-5.4148e-14 0.0440486 -2.82957)
(-5.46542e-14 -0.274701 0.123419)
(-1.26141e-14 -0.665203 3.50132)
(6.63172e-16 -1.59817 5.04477)
(5.04913e-16 -2.2627 4.88425)
(1.37133e-15 -2.6683 5.11052)
(3.46626e-15 -4.41616 8.0827)
(3.58107e-15 -5.21454 7.15224)
(3.49584e-15 -6.12018 7.10008)
(3.27703e-15 -6.85103 7.10385)
(3.47307e-15 -11.2069 10.2757)
(2.57105e-15 -8.33166 9.72157)
(1.67796e-15 -8.49576 10.9227)
(6.74679e-16 -8.27822 10.9517)
(-5.9592e-16 -8.35868 11.0606)
(-1.63718e-15 -8.41111 11.2703)
(-2.24123e-15 -8.54078 11.6914)
(-2.45207e-15 -8.67115 12.2712)
(-2.43819e-15 -8.80598 12.9608)
(-2.1689e-15 -8.9275 13.6704)
(-1.68122e-15 -9.01833 14.295)
(-1.13479e-15 -9.06949 14.767)
(-7.09475e-16 -9.07066 15.0052)
(-4.05501e-16 -8.94783 14.8844)
(-1.10149e-15 -4.57454 8.54921)
(-3.54047e-16 -5.77255 10.9201)
(-1.36799e-16 -5.53615 8.62836)
(3.76222e-16 -5.56547 6.76184)
(1.0535e-15 -5.19595 5.09001)
(1.22039e-15 -5.19955 3.21789)
(4.85204e-16 -4.92722 -0.215174)
(5.39722e-16 -4.28389 -3.66489)
(6.56867e-16 -4.68673 -2.33426)
(8.76124e-16 -4.64523 -3.21071)
(9.34946e-16 -3.99507 -1.99126)
(1.07636e-15 -3.48521 -2.22786)
(1.75587e-15 -3.89761 -2.85452)
(1.66827e-15 -2.95875 -1.87091)
(1.89841e-15 -2.58403 -2.06708)
(3.13438e-15 -2.78187 -2.66449)
(3.19269e-15 -1.88256 -1.66752)
(3.70327e-15 -1.59817 -1.82169)
(3.70519e-15 -1.65553 -2.42556)
(1.43332e-15 -0.799517 -1.57176)
(5.5381e-16 -0.69849 -1.73573)
(6.19791e-16 -0.279148 -1.78008)
(4.03086e-16 -0.344783 -2.68744)
(1.26229e-16 0.473739 -2.01963)
(6.1298e-16 1.00859 -1.7725)
(-1.33692e-16 0.445526 -2.84238)
(-2.07915e-16 1.90012 -3.02807)
(9.83617e-16 1.19798 2.76887)
(-5.17588e-16 2.00274 1.8221)
(-1.38788e-15 2.42823 0.876391)
(-2.22893e-15 2.45291 0.121928)
(-2.67134e-15 2.26877 -0.529879)
(-2.64106e-15 -1.3732 -0.527802)
(-1.56465e-15 -2.53095 0.312821)
(1.05298e-15 -4.04127 0.91412)
(3.08384e-15 -5.33516 0.815078)
(3.49395e-15 -4.93925 0.539824)
(3.20705e-15 -1.01864 -0.0710216)
(2.40757e-15 4.83939 -1.4633)
(6.08728e-16 6.08064 -1.81885)
(-8.29718e-16 5.92962 -2.23081)
(-1.618e-15 3.85856 -3.23002)
(-9.40588e-16 -1.54111 -4.93212)
(3.32842e-16 -4.48897 -5.57477)
(5.58077e-16 -4.33815 -4.65369)
(2.32273e-16 -2.37517 -3.95368)
(2.26605e-16 1.49074 1.58754)
(-1.18669e-15 2.57257 0.845372)
(-2.01323e-15 2.95681 0.0227976)
(-2.70787e-15 2.89726 -0.577516)
(-2.76028e-15 2.52088 -1.14417)
(-2.51272e-15 -1.1466 -1.01401)
(-1.6677e-15 -3.00991 0.235988)
(1.17085e-15 -4.2152 1.11738)
(3.11983e-15 -5.22771 1.13462)
(3.49842e-15 -4.60152 0.96877)
(3.20415e-15 0.26521 0.0401831)
(8.676e-16 5.20934 -0.673657)
(-1.95207e-15 6.22295 0.236108)
(-3.25017e-15 6.34905 0.43855)
(-3.70564e-15 4.78625 -0.590957)
(-3.4805e-15 -0.826088 -3.38708)
(-6.83912e-16 -4.66808 -5.14985)
(4.47329e-16 -4.85745 -4.34445)
(3.47584e-16 -2.92897 -3.49975)
(1.57506e-16 1.56 1.05695)
(-1.31283e-15 2.73525 0.660398)
(-2.2647e-15 3.12385 -0.0515572)
(-2.75591e-15 3.05029 -0.602532)
(-2.41365e-15 2.44925 -1.05937)
(-2.03001e-15 -1.6338 -0.623011)
(-1.81061e-15 -3.45875 0.291653)
(1.28081e-15 -4.43455 1.44497)
(3.19043e-15 -5.24168 1.60574)
(3.51676e-15 -4.51877 1.58983)
(2.83459e-15 0.64302 0.626589)
(-1.03558e-15 4.75506 1.17784)
(-2.99342e-15 5.74213 2.69219)
(-3.44754e-15 6.42515 2.86624)
(-3.60121e-15 5.39783 1.92192)
(-3.65324e-15 -0.337089 -0.579149)
(-1.6551e-15 -4.24745 -3.98168)
(1.00814e-16 -5.03442 -3.83378)
(5.90431e-17 -3.21813 -3.06645)
(2.60457e-18 1.63482 0.75235)
(-1.70864e-15 2.95762 0.452351)
(-2.62419e-15 3.40576 -0.115187)
(-2.71412e-15 3.30294 -0.618614)
(-1.84202e-15 2.36609 -0.73442)
(-1.5911e-15 -1.82958 0.146208)
(-1.68565e-15 -3.82749 0.706967)
(1.23094e-15 -4.72556 1.79133)
(3.32599e-15 -5.32983 2.18405)
(3.48848e-15 -4.45324 2.31142)
(1.5969e-15 0.584943 1.93617)
(-2.08069e-15 4.13585 3.5417)
(-2.7049e-15 5.44341 5.04685)
(-2.86779e-15 6.68427 5.16147)
(-3.03192e-15 6.10295 4.34547)
(-2.80008e-15 1.34691 1.87818)
(-2.37809e-15 -3.43755 -2.20602)
(-4.73602e-16 -5.06363 -2.88084)
(-2.72781e-16 -3.44595 -2.67692)
(-2.64603e-16 1.70795 0.646884)
(-2.18485e-15 3.09276 0.354791)
(-2.78799e-15 3.57234 0.0560505)
(-2.35312e-15 3.3977 -0.364309)
(-9.78234e-16 1.97626 0.133184)
(-1.11666e-15 -2.13025 1.20485)
(-1.29427e-15 -4.08907 1.43257)
(1.08127e-15 -5.02237 2.16278)
(3.47867e-15 -5.49551 2.82848)
(3.34541e-15 -4.46502 3.10603)
(5.83234e-16 0.112416 3.58841)
(-1.94083e-15 3.41287 5.88289)
(-1.72306e-15 5.09409 7.15476)
(-1.99623e-15 6.80804 7.49872)
(-2.35441e-15 6.72743 7.04217)
(-2.38562e-15 2.68561 4.55545)
(-2.89e-15 -2.31416 0.228258)
(-8.90914e-16 -4.65365 -1.30972)
(-5.26207e-16 -3.21327 -1.99419)
(-6.4445e-16 1.77932 0.695794)
(-2.62856e-15 3.1787 0.388229)
(-2.67975e-15 3.67659 0.40733)
(-1.71915e-15 3.36634 0.177898)
(-8.03928e-17 1.47962 1.31335)
(-5.3017e-16 -2.27403 2.23465)
(-7.70603e-16 -4.22546 2.25146)
(1.06048e-15 -5.28149 2.64006)
(3.51162e-15 -5.74866 3.4498)
(3.11682e-15 -4.67211 3.93594)
(1.95066e-16 -0.622052 5.22791)
(-9.80578e-16 2.70489 7.77694)
(-4.06853e-16 4.75264 8.79496)
(-7.365e-16 6.77732 9.57544)
(-1.27042e-15 7.25931 9.81637)
(-1.46797e-15 4.03531 7.73352)
(-1.88459e-15 -1.64659 2.89876)
(-1.04844e-15 -4.18725 0.797865)
(-7.64485e-16 -2.70319 -1.65143)
(-1.07113e-15 1.86643 0.894962)
(-2.87555e-15 3.20075 0.589279)
(-2.29603e-15 3.65741 0.915951)
(-8.83691e-16 3.14597 1.0566)
(7.97386e-16 0.941234 2.5737)
(1.54437e-16 -2.39917 3.21954)
(-1.48428e-16 -4.27341 3.09196)
(1.24625e-15 -5.49053 3.24845)
(3.37832e-15 -6.05758 4.0015)
(2.89964e-15 -5.08118 4.73157)
(2.96589e-16 -1.49826 6.55335)
(2.12845e-16 2.0312 8.86742)
(9.85892e-16 4.34585 9.54102)
(9.93326e-16 6.44819 10.7662)
(5.00746e-16 7.50539 11.9409)
(-2.7962e-16 5.5752 10.9016)
(-1.01274e-15 0.198907 5.76896)
(-1.9278e-15 -2.68032 1.98837)
(-1.88505e-15 -1.07618 0.945033)
(-1.48367e-15 1.94368 1.25905)
(-2.81843e-15 3.15871 1.01298)
(-1.70053e-15 3.49653 1.60998)
(5.25727e-17 2.77242 2.21532)
(1.64626e-15 0.439526 3.81195)
(9.4993e-16 -2.44516 4.17882)
(5.88211e-16 -4.25348 3.94123)
(1.54128e-15 -5.63556 3.94001)
(3.17056e-15 -6.38023 4.52056)
(2.69012e-15 -5.61507 5.41469)
(5.24833e-16 -2.32992 7.34553)
(8.69337e-16 1.57669 8.77573)
(1.6187e-15 3.96184 8.73839)
(2.32332e-15 5.84314 10.2375)
(2.44745e-15 7.24076 12.3782)
(1.35374e-15 6.47746 13.0813)
(7.92185e-16 2.18043 10.5277)
(1.07458e-15 -2.09503 6.19443)
(2.03475e-15 -5.2663 7.19348)
(-1.8231e-15 2.00502 1.78509)
(-2.4301e-15 3.05116 1.68017)
(-9.63099e-16 3.1929 2.51932)
(9.49334e-16 2.30326 3.5143)
(2.43329e-15 0.0325346 4.93388)
(1.25798e-15 -2.41056 5.08709)
(8.84188e-16 -4.18461 4.78842)
(1.96552e-15 -5.71663 4.68052)
(2.97292e-15 -6.67614 5.07025)
(2.51716e-15 -6.14592 5.95555)
(6.02721e-16 -2.89599 7.51426)
(2.48528e-17 1.51721 7.21634)
(5.88191e-16 3.71003 5.98551)
(1.67094e-15 4.98429 7.30371)
(2.7914e-15 6.38943 10.174)
(2.604e-15 6.10873 12.6089)
(1.18129e-15 2.32428 13.5811)
(2.71587e-15 -1.82219 12.8039)
(3.51154e-15 -3.81375 10.7593)
(-2.02873e-15 2.02064 2.40655)
(-1.7674e-15 2.86077 2.57112)
(-1.56022e-16 2.78145 3.61849)
(1.57272e-15 1.81865 4.78357)
(4.05708e-15 -0.263072 5.89399)
(4.49839e-15 -2.3404 5.94102)
(3.72565e-15 -4.0917 5.64101)
(2.02101e-15 -5.74582 5.47039)
(2.89451e-15 -6.91013 5.68877)
(2.24909e-15 -6.54363 6.41444)
(-1.75616e-16 -2.94729 7.2549)
(-2.10275e-15 2.13923 5.13772)
(-1.21605e-15 3.91589 2.92833)
(-7.57173e-16 4.1195 3.18491)
(9.53788e-17 5.17229 5.55702)
(2.46449e-15 5.3492 9.49918)
(1.97499e-15 2.31656 11.2891)
(1.34095e-15 -1.133 10.8742)
(-2.12458e-16 -1.74791 8.25761)
(-2.04253e-15 1.96025 3.04533)
(-9.57786e-16 2.56974 3.633)
(6.95525e-16 2.32358 4.80397)
(1.52613e-15 1.38769 5.89311)
(1.78914e-15 -0.460668 6.68013)
(2.58983e-15 -2.27403 6.73015)
(1.96452e-15 -3.99718 6.50202)
(2.34124e-15 -5.73578 6.31756)
(2.78261e-15 -7.06307 6.39984)
(1.84633e-15 -6.74383 6.88049)
(-5.96422e-16 -2.46309 6.86165)
(-2.09128e-15 3.19785 3.75442)
(-1.99348e-15 4.55579 1.91174)
(-1.63081e-15 3.91274 1.53732)
(-1.34824e-15 3.83911 1.67689)
(-2.17478e-16 3.81117 6.42831)
(2.71037e-15 2.19958 11.1728)
(5.55138e-15 -0.527794 9.06378)
(9.25767e-15 -0.776904 6.38777)
(-1.82394e-15 1.78697 3.67718)
(-2.00349e-16 2.17275 4.78694)
(1.37981e-15 1.88678 5.95)
(2.13788e-15 1.0552 6.81024)
(1.65454e-15 -0.601766 7.28553)
(1.41332e-15 -2.2492 7.38246)
(1.86208e-15 -3.93013 7.30275)
(2.66328e-15 -5.70738 7.18608)
(2.47403e-15 -7.13117 7.19859)
(1.33609e-15 -6.71591 7.37351)
(-9.98788e-16 -1.62094 6.22874)
(-2.26739e-15 4.09717 2.23348)
(-1.93763e-15 4.8971 1.76438)
(-1.49369e-15 4.09855 1.51044)
(-1.30907e-15 3.27687 0.912987)
(-2.03017e-15 1.48134 3.32126)
(-2.35059e-15 0.867795 10.9769)
(-1.86644e-15 -0.328828 12.8874)
(-2.12808e-15 0.395398 10.6959)
(-1.41184e-15 1.49031 4.33886)
(4.27386e-16 1.6939 5.92324)
(1.69383e-15 1.5155 6.97693)
(2.34476e-15 0.842148 7.62985)
(2.31696e-15 -0.684846 7.82723)
(2.03437e-15 -2.26849 7.89545)
(2.2322e-15 -3.92288 7.95935)
(2.55374e-15 -5.70014 7.99604)
(2.00192e-15 -7.1192 8.03607)
(7.83572e-16 -6.37788 7.80778)
(-1.41562e-15 -0.300718 5.02292)
(-2.27773e-15 4.87874 0.525477)
(-1.89063e-15 4.933 1.5014)
(-1.52027e-15 4.17118 0.796705)
(-1.11474e-15 3.22084 0.566099)
(-1.18604e-15 -0.21881 0.430226)
(-4.0084e-15 -1.26181 4.74209)
(-5.28071e-15 -0.0481191 8.41865)
(-4.95991e-15 4.10633 9.34528)
(-9.79745e-16 1.096 5.01063)
(8.36278e-16 1.1683 6.90575)
(1.73118e-15 1.18959 7.84891)
(2.22132e-15 0.696461 8.48868)
(2.45135e-15 -0.711737 8.56988)
(2.41498e-15 -2.29355 8.51488)
(2.33206e-15 -3.97063 8.61401)
(2.17186e-15 -5.74491 8.81675)
(1.54835e-15 -7.02454 8.91253)
(2.87148e-16 -5.5687 7.95532)
(-1.84795e-15 1.46813 2.92607)
(-2.1963e-15 5.44117 -0.178758)
(-1.92296e-15 4.86564 1.1257)
(-1.59434e-15 4.39205 0.0905219)
(-1.24288e-15 3.26139 -0.268703)
(-9.31954e-16 0.301614 -0.836309)
(-2.09985e-15 -2.29499 -1.91468)
(-4.46305e-15 -2.36944 0.583651)
(1.31342e-15 -1.34634 2.18872)
(-7.11036e-16 0.644629 5.52211)
(9.42867e-16 0.634291 7.56113)
(1.52518e-15 0.867364 8.49283)
(1.93081e-15 0.542593 9.35694)
(2.21306e-15 -0.691928 9.62571)
(2.27319e-15 -2.27889 9.56664)
(2.16154e-15 -4.04434 9.66599)
(1.86021e-15 -5.83461 9.95154)
(1.21994e-15 -6.73644 9.84668)
(-1.65417e-16 -4.08576 7.40068)
(-2.2024e-15 2.95461 0.231103)
(-2.05303e-15 5.56188 0.266227)
(-1.92974e-15 4.88668 0.53091)
(-1.59482e-15 4.66296 -0.391918)
(-1.22632e-15 3.44511 -0.898675)
(-9.46818e-16 0.962585 -1.60903)
(-7.69602e-16 -1.86304 -3.77301)
(-2.27418e-15 -2.46334 -4.41842)
(-7.96228e-16 -1.11105 -4.21683)
(-7.43239e-16 0.174492 5.61895)
(6.56102e-16 0.0651277 7.64656)
(1.17159e-15 0.425668 8.77749)
(1.59358e-15 0.206891 9.9702)
(1.90305e-15 -0.813537 10.6367)
(2.02879e-15 -2.32012 10.9011)
(1.97613e-15 -4.1281 11.1705)
(1.67348e-15 -5.8302 11.3897)
(9.06761e-16 -5.99026 10.4411)
(-7.13197e-16 -1.84725 5.69797)
(-2.26844e-15 4.09925 -1.10362)
(-2.00498e-15 5.3589 0.618477)
(-1.92349e-15 5.14724 -0.029109)
(-1.59318e-15 4.91703 -0.815996)
(-1.20566e-15 3.67508 -1.39657)
(-8.89182e-16 1.4763 -2.07952)
(-6.8994e-16 -1.15751 -3.56676)
(-8.65905e-16 -1.8628 -5.18544)
(-1.24155e-15 -0.648642 -5.83009)
(-1.08235e-15 -0.281005 5.11996)
(8.48551e-17 -0.534318 6.98047)
(6.78779e-16 -0.0613249 8.45738)
(1.1501e-15 -0.170678 10.0149)
(1.51881e-15 -1.04586 11.1529)
(1.7502e-15 -2.49785 11.9435)
(1.76832e-15 -4.26377 12.4745)
(1.41745e-15 -5.56078 12.2938)
(3.69227e-16 -4.42701 9.61856)
(-1.54662e-15 0.958367 2.30802)
(-2.0634e-15 4.75843 -0.324761)
(-2.0103e-15 5.2379 0.399756)
(-1.91685e-15 5.47448 -0.384762)
(-1.57737e-15 5.18585 -1.16731)
(-1.17116e-15 3.92396 -1.75586)
(-8.35004e-16 1.87846 -2.34473)
(-7.53521e-16 -0.593054 -3.43569)
(-3.65161e-16 -1.45192 -4.65446)
(-1.23371e-15 -1.02889 -4.96601)
(-1.52641e-15 -0.655275 4.34194)
(-5.86335e-16 -1.22491 5.9251)
(5.12162e-17 -0.846623 7.52415)
(5.75477e-16 -0.919982 9.31742)
(1.0117e-15 -1.63217 10.8379)
(1.33198e-15 -2.87065 12.0307)
(1.39278e-15 -4.25626 12.6752)
(9.11435e-16 -4.66477 11.7154)
(-4.49012e-16 -2.18578 7.03066)
(-2.09448e-15 2.46812 -0.0896722)
(-1.93457e-15 4.72805 0.584645)
(-2.00933e-15 5.40082 0.0623208)
(-1.91464e-15 5.75591 -0.646479)
(-1.5531e-15 5.42884 -1.4236)
(-1.12674e-15 4.13 -1.99968)
(-7.7702e-16 2.17359 -2.4968)
(-6.3782e-16 -0.190355 -3.28178)
(-3.19333e-16 -1.24255 -4.09935)
(-6.14299e-16 -1.2774 -3.9733)
(-1.89195e-15 -0.961818 3.53089)
(-1.168e-15 -1.73569 4.86357)
(-5.0308e-16 -1.37865 6.52388)
(6.92809e-17 -1.40154 8.485)
(5.29156e-16 -2.04396 10.2867)
(8.55647e-16 -3.19489 11.6239)
(8.55378e-16 -4.17115 11.8638)
(1.50926e-16 -3.37367 9.49361)
(-1.32754e-15 0.317169 3.51556)
(-1.91158e-15 3.20861 0.711064)
(-1.93196e-15 4.75281 0.694394)
(-2.0083e-15 5.73238 -0.110825)
(-1.90946e-15 6.06299 -0.843226)
(-1.52547e-15 5.68296 -1.59672)
(-1.08028e-15 4.31339 -2.15094)
(-7.16756e-16 2.35352 -2.56267)
(-5.15499e-16 0.036391 -3.05837)
(-3.9233e-16 -1.18339 -3.68172)
(-2.6266e-16 -1.52133 -3.35103)
(-2.21673e-15 -1.22687 2.51793)
(-1.86831e-15 -2.4482 3.27193)
(-1.3762e-15 -2.40696 4.54292)
(-8.59385e-16 -2.55682 6.22047)
(-3.95911e-16 -3.03176 7.97887)
(-7.73957e-17 -3.55773 9.26984)
(-1.04506e-16 -3.26845 9.15785)
(-7.39681e-16 -1.14092 6.41698)
(-1.59264e-15 1.78678 2.46842)
(-1.79814e-15 3.72053 1.36384)
(-1.93923e-15 5.12471 0.601419)
(-2.00837e-15 6.12821 -0.199822)
(-1.90281e-15 6.47735 -0.966245)
(-1.50087e-15 6.04976 -1.70991)
(-1.04116e-15 4.60083 -2.23784)
(-6.65168e-16 2.60338 -2.55424)
(-4.37281e-16 0.288901 -2.80312)
(-3.95774e-16 -1.09865 -3.11522)
(-5.22685e-17 -1.93919 -3.145)
(1.32585e-16 7.37154 13.0605)
(-2.65641e-15 15.9595 26.3102)
(-2.4559e-15 18.5345 29.4964)
(-2.16544e-15 18.4933 28.8643)
(-2.40128e-15 17.4593 26.9142)
(-3.13509e-15 16.0823 24.6402)
(-2.35812e-15 14.504 22.1791)
(-1.63148e-15 13.0237 20.0478)
(-6.02688e-16 11.5656 17.9189)
(1.27929e-15 10.0224 15.7362)
(4.005e-15 8.36811 13.42)
(7.13256e-15 6.55143 10.8661)
(9.65565e-15 4.66966 8.22646)
(1.13618e-14 3.16231 6.23103)
(1.13419e-14 2.35222 5.34124)
(8.50275e-15 2.56201 5.92593)
(3.71523e-15 3.90588 8.14922)
(-4.03177e-16 5.8716 11.2018)
(-2.39026e-15 7.31463 12.8111)
(-2.72881e-15 4.95018 9.3596)
(1.31843e-16 8.93021 14.8828)
(-3.76812e-15 17.1486 29.1179)
(-3.19667e-15 16.858 28.1308)
(-3.6829e-15 13.9142 23.6811)
(-4.40854e-15 11.5245 20.0366)
(-5.1326e-15 10.0674 18.0784)
(-3.78791e-15 9.03504 16.7709)
(-3.38582e-15 7.92895 15.245)
(-2.20682e-15 6.7239 13.4992)
(4.94551e-17 5.46123 11.5602)
(3.1765e-15 4.15856 9.48752)
(5.13e-15 2.90263 7.38734)
(6.26838e-15 1.90735 5.59882)
(5.98113e-15 1.57472 4.81174)
(3.78614e-15 2.32203 5.78318)
(-2.32703e-17 4.16887 8.57575)
(-3.43647e-15 6.59606 12.3391)
(-4.81427e-15 8.70112 15.75)
(-4.66647e-15 9.68191 16.8297)
(-4.45612e-15 6.64517 12.2946)
(-6.19842e-17 9.12738 15.5639)
(-1.8332e-15 16.6844 29.4524)
(-8.24808e-16 15.7198 27.3291)
(-1.54194e-15 13.6842 23.8696)
(-1.81192e-15 12.46 21.4508)
(-3.43049e-15 11.5247 19.5869)
(-1.98186e-15 10.6705 17.9569)
(-1.99847e-15 9.89304 16.4266)
(-2.61336e-15 9.12074 14.9217)
(-2.67142e-15 8.37333 13.3776)
(-2.50946e-15 7.63669 11.7918)
(-2.25237e-15 6.94191 10.1984)
(-1.99577e-15 6.38564 8.76707)
(-2.2011e-15 6.09713 7.80603)
(-3.42298e-15 6.26468 7.73882)
(-4.80908e-15 6.94573 8.89639)
(-5.31977e-15 8.04646 11.0223)
(-4.69699e-15 8.91147 13.3891)
(-3.3652e-15 9.12186 14.3674)
(-3.20267e-15 6.58839 11.4141)
(2.70913e-17 7.62111 13.0168)
(4.03785e-16 16.4189 29.1826)
(2.6546e-16 16.6547 29.0578)
(3.38346e-16 14.9097 25.612)
(4.51968e-16 13.3081 22.5984)
(-2.17425e-15 12.1814 20.3181)
(-1.79564e-15 11.3223 18.6566)
(-1.69206e-15 10.6548 17.2248)
(-2.53702e-15 10.0227 15.8902)
(-2.53453e-15 9.42138 14.5736)
(-2.99757e-15 8.82924 13.2496)
(-3.43374e-15 8.22791 11.8779)
(-3.83193e-15 7.60463 10.433)
(-3.86193e-15 6.99706 9.02686)
(-4.21951e-15 6.52442 7.92168)
(-4.84729e-15 6.30383 7.47754)
(-5.05397e-15 6.3834 7.8739)
(-4.66559e-15 6.55608 8.76897)
(-4.02588e-15 6.21497 9.22675)
(-4.23275e-15 4.09247 6.21649)
(-6.95105e-18 6.45612 11.0526)
(-8.0579e-17 16.7474 29.4106)
(-6.07556e-17 17.5952 30.7364)
(-6.60071e-17 15.679 26.9585)
(-7.46897e-17 13.8652 23.7615)
(4.36389e-16 12.7589 21.4905)
(4.25557e-16 11.8981 19.84)
(4.04533e-16 11.1952 18.3634)
(4.90861e-16 10.5036 16.9681)
(5.26371e-16 9.82998 15.6108)
(5.51247e-16 9.16813 14.2964)
(5.60495e-16 8.52045 13.0234)
(4.73014e-16 7.88135 11.771)
(2.95578e-16 7.2408 10.5022)
(1.3767e-16 6.58121 9.21882)
(-1.34617e-17 5.94748 7.99968)
(-6.2745e-17 5.32411 7.03292)
(1.86149e-16 4.79063 6.29395)
(6.07255e-16 3.83139 5.52743)
(1.16605e-15 1.79147 1.90658)
(4.65665e-19 6.00643 10.0182)
(1.4061e-17 17.1289 29.1551)
(1.14603e-17 18.4116 31.6007)
(1.0925e-17 16.5608 27.9263)
(7.68128e-18 14.6752 24.6962)
(-8.22356e-17 13.5715 22.42)
(-8.52343e-17 12.6956 20.7531)
(-7.76936e-17 11.9533 19.212)
(-7.96492e-17 11.2003 17.7092)
(-7.47274e-17 10.4356 16.2024)
(-6.07073e-17 9.65102 14.7015)
(-3.86795e-17 8.8501 13.2218)
(1.07589e-18 8.03433 11.7801)
(5.84982e-17 7.21442 10.3757)
(1.28835e-16 6.36521 9.0003)
(2.0136e-16 5.50592 7.60047)
(2.45004e-16 4.52878 6.17835)
(2.2311e-16 3.5303 4.57164)
(1.12866e-16 1.87525 2.59601)
(7.03573e-17 0.0446751 -1.35826)
(-4.05802e-20 7.95782 13.2296)
(-1.54246e-18 18.4516 30.1176)
(-1.20535e-18 19.3186 32.1468)
(-1.01061e-18 17.5146 28.5569)
(-1.54421e-19 15.6739 25.5724)
(1.22759e-17 14.6838 23.4284)
(1.28356e-17 13.8409 21.8207)
(9.91596e-18 13.1261 20.2588)
(7.52857e-18 12.3581 18.6836)
(3.76051e-18 11.5411 17.0312)
(-1.23061e-18 10.6534 15.3171)
(-7.33263e-18 9.70156 13.5584)
(-1.57498e-17 8.68989 11.7847)
(-2.76466e-17 7.63517 10.0149)
(-4.22688e-17 6.51793 8.2688)
(-5.53228e-17 5.36136 6.50402)
(-6.04243e-17 4.04904 4.70302)
(-5.55874e-17 2.65484 2.58122)
(-4.76944e-17 0.41307 -0.0535066)
(-6.15481e-17 -1.06498 -3.95538)
(3.81046e-20 11.7315 20.111)
(2.32355e-20 20.4964 32.7908)
(-1.34949e-19 19.2917 32.0162)
(-1.74605e-19 17.6837 28.5278)
(-2.52195e-19 16.1141 26.377)
(-1.30526e-18 15.4733 24.6241)
(-9.46804e-19 14.6789 23.2399)
(-1.19015e-19 14.0541 21.699)
(6.4433e-19 13.2296 20.0503)
(1.54012e-18 12.3136 18.1767)
(2.47512e-18 11.2389 16.1625)
(3.35529e-18 10.067 14.0432)
(4.34457e-18 8.80021 11.8727)
(5.69078e-18 7.4573 9.65995)
(7.17306e-18 6.00505 7.42039)
(7.7804e-18 4.46306 5.11788)
(6.38099e-18 2.73732 2.85578)
(-1.06803e-18 1.03829 0.329793)
(-2.31416e-17 -1.56809 -2.50377)
(-5.30252e-17 -2.36795 -6.3518)
(-1.45025e-20 15.2123 27.1293)
(3.85512e-20 20.789 33.6997)
(9.82605e-20 17.4799 30.5863)
(1.03731e-19 16.6925 27.9764)
(1.00551e-19 15.3029 26.8423)
(8.11589e-20 14.9426 25.4404)
(-1.27068e-19 13.9767 24.3451)
(-3.29857e-19 13.2925 22.7931)
(-4.78562e-19 12.0981 20.982)
(-6.20027e-19 10.8002 18.7041)
(-7.50435e-19 9.22066 16.2424)
(-8.65625e-19 7.58319 13.6449)
(-9.9572e-19 5.82494 10.9726)
(-1.01855e-18 3.98905 8.14296)
(-2.99157e-19 2.05465 5.13749)
(1.47925e-18 -0.0773215 1.88118)
(2.84098e-18 -2.05087 -1.1712)
(-2.76582e-18 -2.52407 -2.74449)
(-3.06758e-17 -4.71422 -5.40461)
(-5.53108e-17 -3.57613 -7.18335)
(3.87589e-21 16.0378 29.4089)
(-1.58832e-20 18.4313 30.8456)
(-3.1526e-20 15.3349 28.3432)
(-3.17848e-20 15.0979 26.6019)
(-1.85323e-20 13.6 25.6482)
(4.06075e-20 13.0772 24.2947)
(9.22783e-20 11.8758 23.2226)
(1.16793e-19 10.8799 21.563)
(1.45536e-19 9.28672 19.5034)
(1.70849e-19 7.60342 16.9161)
(1.39464e-19 5.7058 14.2174)
(5.24453e-20 3.87204 11.5045)
(4.66349e-20 2.00663 8.82013)
(6.40007e-19 0.167113 6.09483)
(2.54411e-18 -1.53337 3.51233)
(3.66458e-18 -2.86366 1.32214)
(-3.16492e-18 -3.74821 -0.537323)
(-2.08339e-17 -3.81718 -1.67608)
(-3.66557e-17 -2.27564 -0.583853)
(-2.57986e-17 0.264089 2.12159)
(-6.58152e-22 14.5593 26.8078)
(4.3207e-21 16.9794 28.8818)
(7.17905e-21 14.3614 26.6356)
(6.52441e-21 13.792 24.3675)
(-9.76887e-22 12.1441 23.2165)
(-2.19615e-20 11.4314 21.6313)
(-3.82937e-20 10.0673 20.4096)
(-4.14446e-20 8.92967 18.7233)
(-2.27971e-20 7.33292 16.7528)
(-5.17289e-22 5.68615 14.3199)
(-9.63738e-21 3.91384 11.7377)
(5.24055e-21 2.25803 9.17228)
(2.65226e-19 0.766809 6.82832)
(1.05667e-18 -0.3702 4.90488)
(2.33335e-18 -0.906517 3.7751)
(3.09421e-18 -0.444183 4.06708)
(1.92491e-18 1.39028 6.38862)
(-4.07561e-19 4.43438 10.2649)
(-5.08019e-19 7.25907 13.381)
(1.83987e-18 5.78342 11.3902)
(9.63783e-23 13.6572 25.0563)
(-8.18303e-22 17.5352 28.9534)
(-1.22342e-21 14.4801 26.1961)
(-9.83976e-22 14.1243 23.2164)
(7.14471e-22 12.3436 21.9583)
(4.31524e-21 11.8718 19.9094)
(4.60608e-21 10.5304 18.4616)
(2.7331e-21 9.72268 16.7012)
(2.75925e-21 8.60279 15.0836)
(1.82207e-21 7.63745 13.2792)
(-1.41081e-20 6.63003 11.4462)
(-2.34862e-20 5.80216 9.68219)
(7.59042e-20 5.21509 8.24561)
(3.61406e-19 4.94564 7.30655)
(7.27787e-19 5.05862 7.05023)
(9.01745e-19 5.61346 7.66935)
(6.90513e-19 6.56717 9.02128)
(3.44827e-19 7.30945 10.6813)
(2.67666e-19 7.57007 11.3284)
(1.87253e-19 5.26957 9.04021)
(-1.17782e-23 13.9091 25.5637)
(1.11286e-22 18.3985 29.8152)
(1.41841e-22 15.0715 27.1019)
(7.34328e-23 14.8866 23.9939)
(-2.26938e-22 13.1835 22.7264)
(-6.67475e-22 12.8104 20.7418)
(-1.24204e-22 11.7007 19.2648)
(1.34762e-21 11.0144 17.5878)
(2.27912e-21 10.2056 16.0933)
(2.04805e-21 9.52946 14.6594)
(4.26823e-21 8.90861 13.3134)
(1.07868e-20 8.34654 12.0185)
(9.03399e-21 7.82236 10.7434)
(-2.35441e-20 7.29985 9.48585)
(-9.52594e-20 6.78045 8.29829)
(-1.92852e-19 6.26701 7.32007)
(-2.96826e-19 5.78325 6.68814)
(-4.02195e-19 5.27855 6.35084)
(-5.04987e-19 4.33361 5.7776)
(-4.59255e-19 2.38545 3.08178)
(6.264e-25 14.6933 27.1925)
(-3.90098e-24 19.0824 30.3829)
(2.76101e-24 15.3743 27.8119)
(1.39845e-23 15.5572 24.8208)
(4.50602e-23 13.75 23.623)
(5.80911e-23 13.4709 21.635)
(-1.03971e-22 12.3814 20.1974)
(-3.95617e-22 11.7287 18.5438)
(-5.46577e-22 10.9351 17.031)
(-5.85199e-22 10.213 15.5162)
(-1.37119e-21 9.49645 14.0441)
(-3.34013e-21 8.79013 12.6096)
(-4.25203e-21 8.08287 11.2105)
(3.36113e-22 7.36458 9.83678)
(1.27454e-20 6.59386 8.47017)
(3.03916e-20 5.75128 7.04531)
(4.86962e-20 4.71165 5.53047)
(7.08511e-20 3.563 3.82815)
(1.27934e-19 1.773 1.83129)
(1.64364e-19 0.199583 -1.49221)
(2.99611e-25 15.6195 29.6175)
(-2.2528e-24 19.4959 30.4823)
(-6.57772e-24 15.4536 28.5752)
(-1.33913e-23 16.2319 25.7492)
(-1.05206e-23 14.1418 24.7204)
(1.74833e-23 14.0769 22.6794)
(1.16962e-23 12.8823 21.3355)
(-1.92416e-22 12.3387 19.7009)
(-6.78808e-22 11.5565 18.2718)
(-1.10355e-21 10.9102 16.798)
(-6.56871e-22 10.2303 15.3307)
(1.3134e-21 9.52409 13.7869)
(4.51882e-21 8.71867 12.1209)
(7.67384e-21 7.76393 10.279)
(9.53003e-21 6.58674 8.26819)
(1.00399e-20 5.23142 6.08917)
(1.07513e-20 3.60568 3.79211)
(1.25389e-20 1.96816 1.21247)
(1.89808e-20 -0.54152 -1.49616)
(1.77607e-19 -1.68532 -5.15076)
(7.93563e-26 16.1301 31.551)
(2.9194e-24 19.3836 29.9951)
(3.49748e-24 15.3154 29.0938)
(5.5153e-24 16.498 26.414)
(1.51155e-23 14.1859 25.5383)
(-1.83628e-23 14.2621 23.5688)
(-2.38478e-22 12.9995 22.3725)
(-7.66292e-22 12.5518 20.8622)
(-1.39607e-21 11.7808 19.6054)
(-1.28219e-21 11.2137 18.2836)
(1.08354e-21 10.5543 16.94)
(7.21769e-21 9.7992 15.3637)
(1.70617e-20 8.74512 13.3619)
(2.752e-20 7.24905 10.7423)
(3.43525e-20 5.29522 7.63146)
(3.70692e-20 3.26841 4.54981)
(3.64946e-20 1.24051 1.75444)
(3.23835e-20 -0.549472 -1.83419)
(1.06262e-20 -3.14839 -4.35204)
(1.33773e-19 -3.33085 -8.14984)
(2.41516e-25 15.6573 31.5983)
(-5.30066e-25 18.6685 28.897)
(-2.33434e-24 14.6205 28.5977)
(3.32764e-24 15.69 26.0629)
(1.62598e-23 13.4539 25.1969)
(-5.25579e-23 13.3077 23.4278)
(-4.16123e-22 12.0965 22.2893)
(-1.17851e-21 11.5414 20.9439)
(-1.79893e-21 10.7406 19.81)
(-6.17892e-22 10.1067 18.6122)
(4.91715e-21 9.32683 17.3018)
(1.64417e-20 8.32456 15.5242)
(3.11492e-20 6.77881 12.8673)
(4.03395e-20 4.53931 9.0413)
(3.79307e-20 2.0121 4.72709)
(3.09166e-20 0.376734 2.02175)
(2.37311e-20 -0.28741 0.91128)
(2.45595e-20 -1.85695 -1.94322)
(4.97739e-20 -4.38797 -5.60366)
(9.22851e-20 -3.35902 -6.26009)
(7.97034e-26 14.1882 30.5125)
(-5.82497e-25 17.9997 27.729)
(-9.47909e-25 13.3809 27.5788)
(9.33978e-24 14.2041 25.2964)
(2.05666e-23 12.1406 24.385)
(-6.78798e-23 11.6248 22.8578)
(-4.46168e-22 10.4988 21.7083)
(-1.16601e-21 9.7341 20.4834)
(-1.70048e-21 8.89999 19.3681)
(-6.26868e-22 8.13434 18.2263)
(3.96392e-21 7.29001 16.9485)
(1.25826e-20 6.25397 15.2578)
(2.16977e-20 4.86993 12.8403)
(2.48257e-20 3.18459 9.64977)
(2.03348e-20 1.5621 6.21093)
(1.57657e-20 0.297619 3.16696)
(1.94015e-20 -0.792535 0.463071)
(3.45212e-20 -1.82207 -2.07802)
(5.85393e-20 -2.40992 -3.39729)
(6.30421e-20 -1.33266 -1.42251)
(-6.23246e-26 11.105 28.2976)
(-1.13332e-24 16.8992 24.7889)
(-1.24268e-24 11.9052 25.1809)
(7.81182e-24 12.5294 23.4724)
(2.48433e-23 10.7805 22.7299)
(-4.54952e-24 10.0898 21.6446)
(-2.0865e-22 9.06742 20.7374)
(-7.07511e-22 8.26064 19.8032)
(-1.43605e-21 7.45464 18.9199)
(-2.01524e-21 6.72476 18.0464)
(-1.8112e-21 6.03133 17.1721)
(-2.24349e-22 5.38513 16.2601)
(2.76194e-21 4.79073 15.2645)
(5.94074e-21 4.26237 14.103)
(7.24943e-21 3.79357 12.6863)
(6.02034e-21 3.32545 10.9747)
(4.56566e-21 2.76875 8.88753)
(6.31367e-21 2.0825 6.13508)
(1.26141e-20 1.04196 2.50245)
(1.52674e-20 -0.417397 -1.01142)
(-7.27359e-26 2.57293 16.9973)
(-4.45538e-25 8.03891 13.6181)
(-7.73141e-26 5.17562 14.4598)
(4.38498e-24 4.99995 14.0587)
(1.54574e-23 4.09183 14.0079)
(2.24092e-23 3.54222 13.8231)
(-1.79295e-23 2.98313 13.6549)
(-1.88528e-22 2.53179 13.4587)
(-5.8465e-22 2.14767 13.2544)
(-1.2502e-21 1.84461 13.0443)
(-2.11167e-21 1.61774 12.8312)
(-2.95659e-21 1.46389 12.606)
(-3.48252e-21 1.37341 12.3513)
(-3.42347e-21 1.3475 12.0426)
(-2.73848e-21 1.40237 11.6564)
(-1.73577e-21 1.51185 11.2051)
(-9.03271e-22 1.70185 10.6635)
(-5.07854e-22 2.2519 9.75051)
(-3.87861e-22 2.37101 8.40008)
(-1.41722e-22 -0.280044 6.27737)
(7.08259e-26 -2.57298 16.9974)
(4.34513e-25 -8.03895 13.6182)
(7.77435e-26 -5.17563 14.4599)
(-4.27404e-24 -4.99996 14.0588)
(-1.50858e-23 -4.09184 14.008)
(-2.18745e-23 -3.54223 13.8232)
(1.75694e-23 -2.98316 13.655)
(1.84357e-22 -2.53185 13.4588)
(5.71546e-22 -2.14777 13.2545)
(1.22185e-21 -1.84474 13.0445)
(2.06313e-21 -1.61788 12.8312)
(2.88748e-21 -1.46397 12.6059)
(3.39925e-21 -1.37339 12.351)
(3.3387e-21 -1.34736 12.0421)
(2.66647e-21 -1.40214 11.6558)
(1.68522e-21 -1.51157 11.2046)
(8.73926e-22 -1.70157 10.6631)
(4.9492e-22 -2.25157 9.75024)
(3.86208e-22 -2.37059 8.39994)
(1.4354e-22 0.280086 6.27702)
(6.33295e-26 -11.1049 28.2974)
(1.1078e-24 -16.8993 24.7885)
(1.15479e-24 -11.9051 25.1806)
(-7.87994e-24 -12.5295 23.472)
(-2.47775e-23 -10.7806 22.7294)
(3.80465e-24 -10.09 21.644)
(2.03359e-22 -9.06765 20.7367)
(6.91114e-22 -8.26093 19.8025)
(1.40332e-21 -7.45501 18.9191)
(1.96967e-21 -6.72522 18.0456)
(1.77096e-21 -6.03198 17.1714)
(2.2136e-22 -5.38609 16.2597)
(-2.69442e-21 -4.79214 15.2645)
(-5.79319e-21 -4.26423 14.1035)
(-7.05606e-21 -3.79564 12.6873)
(-5.83665e-21 -3.32741 10.9761)
(-4.42101e-21 -2.77036 8.88915)
(-6.22432e-21 -2.08373 6.13653)
(-1.2638e-20 -1.04264 2.50265)
(-1.54296e-20 0.418298 -1.01439)
(-6.89668e-26 -14.1878 30.5115)
(5.83323e-25 -17.9992 27.7281)
(7.5443e-25 -13.3804 27.5779)
(-9.81186e-24 -14.2035 25.2954)
(-2.13994e-23 -12.1399 24.384)
(6.47056e-23 -11.6241 22.8568)
(4.34601e-22 -10.498 21.7073)
(1.1384e-21 -9.73326 20.4823)
(1.6598e-21 -8.89904 19.3671)
(6.06798e-22 -8.1332 18.225)
(-3.88462e-21 -7.28856 16.9469)
(-1.23015e-20 -6.25213 15.2554)
(-2.11709e-20 -4.86818 12.8378)
(-2.41475e-20 -3.1844 9.64918)
(-1.96625e-20 -1.56473 6.21434)
(-1.51553e-20 -0.302061 3.1734)
(-1.88961e-20 0.788198 0.469516)
(-3.43589e-20 1.81789 -2.07297)
(-5.89082e-20 2.40533 -3.39301)
(-6.35994e-20 1.32811 -1.41311)
(-2.2092e-25 -15.6572 31.5976)
(5.04944e-25 -18.6678 28.8967)