/*--------------------------------*- C++ -*----------------------------------*\
| =========                 |                                                 |
| \\      /  F ield         | OpenFOAM: The Open Source CFD Toolbox           |
|  \\    /   O peration     | Version:  4.1                                   |
|   \\  /    A nd           | Web:      www.OpenFOAM.org                      |
|    \\/     M anipulation  |                                                 |
\*---------------------------------------------------------------------------*/
FoamFile
{
    version     2.0;
    format      ascii;
    class       volScalarField;
    location    "21";
    object      p;
}
// * * * * * * * * * * * * * * * * * * * * * * * * * * * * * * * * * * * * * //

dimensions      [0 2 -2 0 0 0 0];

internalField   nonuniform List<scalar> 
1280
(
0.296813
0.401206
1.45867
1.39177
1.87554
2.07271
1.86606
2.02731
2.03873
1.96831
1.00863
1.68868
0.935173
-1.26784
0.108852
-2.1085
-4.92485
-7.0919
-4.4779
-23.5226
-5.29175
15.7436
28.014
26.5628
24.0358
29.9361
13.8226
16.0825
13.8862
13.5594
12.9106
12.1802
11.6589
10.4909
9.54976
7.3922
5.88861
3.09588
4.59367
9.21909
-12.0524
-2.22006
4.07894
8.89771
19.8082
19.9376
19.8365
20.069
19.2069
19.6835
19.7899
19.1397
19.8344
19.7346
19.7785
19.7537
7.94074
2.18166
-4.44948
-2.88712
9.06046
-1.65411
-6.4222
-3.97481
-3.04004
-0.678239
0.507861
2.38547
3.64659
4.94441
5.84858
6.41995
6.83421
-2.3999
31.5216
24.9933
22.2615
24.0841
13.1103
-7.34069
-24.0685
-7.15961
-8.32003
-6.79243
-4.64142
-1.36966
-2.71918
-1.23133
0.306419
-0.501242
-0.076436
0.716626
0.595293
0.3014
0.235207
0.695758
0.29255
0.0536726
0.248704
0.0746378
-0.423586
-0.302819
3.02329
1.57218
1.15202
0.475933
0.213195
0.0436332
-0.398019
-1.13242
-2.30826
-5.6317
-3.86521
1.6195
2.51388
1.30506
0.355124
0.073447
0.252995
-2.0326
1.50276
6.59701
3.94755
2.27152
1.24969
0.742391
0.394548
-0.311032
-1.40268
-5.61956
-11.7722
-7.44676
3.92378
5.96928
3.49394
1.12697
0.31375
0.771889
-5.01618
1.6744
7.60943
6.65193
3.93124
2.12926
0.961061
-0.073044
-1.6367
-3.44121
-10.6561
-16.5779
-10.5951
6.07871
9.03606
5.46845
1.80713
0.160217
0.917125
-6.68382
1.90352
8.91534
8.40115
4.96875
2.61961
0.686503
-1.14421
-2.96395
-3.92584
-10.3534
-18.395
-12.0705
8.34663
12.3692
7.69814
2.6073
0.389975
1.43078
-8.08372
1.85089
9.78041
9.65399
5.86407
2.79468
-0.394016
-3.347
-5.11817
-4.94826
-8.70467
-19.6182
-12.18
10.6132
15.4497
9.42884
2.5384
-0.997119
0.824066
-8.29841
1.83419
9.81879
9.89643
6.24628
2.39174
-2.37359
-6.4126
-7.84
-6.23215
-6.82704
-21.2084
-11.4893
12.5236
17.6313
10.5103
2.61179
-0.698599
1.34829
-7.74678
1.88582
8.85176
9.22477
6.23246
1.40204
-4.93259
-9.45608
-9.97385
-6.89361
-5.8207
-22.0729
-10.5508
13.8359
18.3095
9.87997
0.327761
-4.98419
0.404457
-6.61514
1.96226
6.98492
7.88986
5.90693
0.0762016
-6.72782
-10.4828
-9.10708
-5.22237
-4.82983
-19.5665
-9.88494
13.4961
17.2743
9.62156
1.31025
1.57574
2.12865
-5.47195
1.95358
5.01023
6.57705
5.56489
-0.930337
-6.99029
-9.55582
-6.86174
-2.45676
-3.29836
-16.1785
-9.14659
14.412
16.5438
11.4481
6.44057
18.5391
23.8152
-4.58903
1.79834
3.76931
5.8325
5.42609
-1.08063
-6.45797
-7.62466
-4.15361
1.0796
0.372285
-11.4027
-8.84151
7.87972
9.38395
8.80934
13.1475
35.1444
20.5675
-4.2659
1.44337
3.16142
5.74593
5.84065
-0.101943
-5.3631
-5.33934
-1.51446
5.07841
6.59044
-4.01428
-7.95902
1.09933
1.95103
4.90921
12.7976
34.0757
19.6605
-4.7643
0.714936
2.77915
6.20254
6.9424
1.446
-3.76639
-3.25229
0.572351
8.91403
14.0484
5.05452
-6.90819
-7.43743
-10.0072
-1.74919
11.0534
23.0068
26.7004
-5.46246
-0.273732
1.75327
6.56961
7.98167
2.48686
-2.09987
-1.68803
1.91658
11.8425
20.7393
13.9374
-5.09446
-15.8977
-17.0592
-4.71009
13.3804
12.4773
5.8908
-5.59388
-2.27406
-0.918042
5.69587
8.28885
3.29383
-0.521172
-0.389073
2.47515
12.7265
24.156
19.4133
-3.46221
-19.6989
-16.6357
-3.58649
9.62323
5.75805
3.54552
-4.95111
-4.52594
-2.94634
4.20034
7.31926
3.51731
0.657574
0.574034
2.49293
11.4731
24.044
19.9277
-4.88417
-22.6776
-20.3847
-4.12679
8.59864
7.73936
5.07328
-4.0289
-6.67632
-5.27084
2.2105
5.90885
3.56447
1.50162
1.43414
2.67043
9.56742
21.4091
17.602
-7.86678
-23.1093
-21.9279
-3.94821
6.12508
5.14194
3.90101
-3.33059
-7.01943
-6.96798
1.27351
4.45835
3.10971
1.71196
1.77647
2.77896
7.914
17.0484
14.2963
-10.0429
-21.9867
-21.8839
-3.99578
4.6449
4.51754
3.87433
-2.57284
-5.60331
-6.98747
0.519932
3.23329
2.58839
1.66587
1.75713
2.5202
6.2076
11.8758
10.3408
-10.1038
-19.5113
-20.2938
-3.59234
3.01288
2.98516
2.76495
-1.79564
-2.32176
-6.68543
-0.137807
2.35801
2.0857
1.46149
1.52119
2.04017
4.3609
6.0505
6.30465
-6.80534
-13.4434
-15.2876
-3.30223
1.6662
2.01034
2.18239
-0.715078
-0.562244
-4.8589
-1.85638
-0.332465
-0.195519
-0.118738
0.212089
0.585055
1.43093
1.2852
0.986063
-3.26917
-4.58082
-6.32709
-1.14688
0.93171
0.859949
0.818386
146.548
144.712
143.208
143.3
140.52
138.378
135.24
133.05
130.343
128.212
126.252
124.284
122.797
121.077
120.159
118.57
118.444
116.774
117.551
116.127
88.7714
88.7702
90.1521
91.5623
91.9145
92.4237
92.4064
92.3851
92.7059
92.7994
93.2505
93.3397
93.885
93.9159
94.6555
94.5867
95.6787
95.5674
97.198
97.4568
106.131
104.982
106.614
106.87
107.091
106.655
106.689
106.172
106.136
105.764
105.779
105.561
105.777
105.609
106.083
105.835
106.663
106.313
107.752
107.568
88.6086
88.0715
90.2418
90.4281
91.4231
90.9623
91.3913
91.0936
91.2972
91.2541
91.4508
91.5979
92.0444
92.2676
93.0738
93.2347
94.4679
94.5323
96.3688
96.7315
91.0189
90.2742
92.3535
91.828
93.4018
92.302
92.8081
92.3623
92.292
92.1697
91.9934
92.0389
92.1496
92.238
92.8249
92.8161
93.9668
93.827
95.6454
95.864
83.3717
83.0752
84.8375
84.0133
86.4692
84.6216
85.2775
84.9899
84.7246
84.7606
84.3458
84.4317
84.3444
84.3655
84.8149
84.6849
85.7011
85.516
87.2857
87.6879
82.2918
82.4346
83.3388
82.3848
85.7784
82.8728
83.5177
83.5511
82.8876
83.1092
82.3386
82.3149
81.945
81.6561
81.8637
81.3988
82.253
81.7718
83.5001
83.6874
78.9595
80.0995
79.8815
79.2981
83.8823
79.8228
80.3792
81.3378
80.1704
80.8375
79.9298
79.9066
79.5295
79.0728
79.2592
78.7096
79.5592
79.2695
81.0763
81.1928
75.6517
78.0504
76.5445
76.4528
82.4611
77.6019
77.7891
80.0936
78.6989
79.6999
79.0349
78.9844
78.797
78.3213
78.455
77.9375
78.5557
78.4028
80.1115
80.2335
66.3039
69.7474
66.8479
67.3229
75.5841
69.7361
69.4113
73.6885
72.7206
73.9501
74.2323
74.5015
75.1535
75.3042
76.0221
76.2179
77.1121
77.6296
79.3778
80.5972
54.8714
57.7113
53.5574
53.5415
60.9696
55.9694
54.8195
58.1804
57.8685
57.383
57.675
56.8759
57.2199
56.6467
56.9332
56.5646
57.0777
57.4723
59.0122
61.0081
55.9571
57.3094
58.0293
57.4649
59.3398
53.6799
56.6107
53.9212
55.7974
53.5992
54.5349
52.9292
53.1571
51.9528
51.9403
51.1295
51.6216
51.3958
52.1775
51.7979
47.4141
49.0031
50.6575
49.6958
53.1545
51.6635
54.9315
53.9855
56.5508
56.0157
57.6997
57.7996
58.8705
59.1856
59.9079
60.0736
60.6348
60.7595
60.7457
61.3858
31.9308
31.9906
33.2555
31.2019
33.5699
30.635
34.1207
32.737
34.5384
34.0128
35.0271
35.762
37.1373
38.6666
40.5169
42.3599
43.7841
45.2207
46.3041
47.5831
38.5519
37.4107
38.7211
36.2998
37.9216
35.8931
36.7255
35.464
35.455
34.7414
34.3162
33.7435
33.3126
33.0472
33.2933
34.2626
34.9077
35.2221
35.0461
35.6438
46.4426
44.597
46.4148
43.0197
45.0378
42.9006
43.7329
42.9424
43.1566
42.9702
43.0655
43.0882
43.1863
43.2835
43.3758
43.4563
43.4547
43.4863
43.032
42.7911
65.3289
62.3292
64.589
58.5308
59.2466
55.2302
53.9393
51.3842
49.6313
47.7849
46.2696
44.9473
43.8787
42.9969
42.2457
41.6751
41.4205
41.6561
42.034
42.0747
61.179
55.2622
63.383
56.7004
58.9669
55.8748
54.9295
52.7147
50.8271
48.6725
46.5594
44.4323
42.3845
40.4623
38.7796
37.3936
36.783
37.2353
37.861
38.2959
74.3023
52.4709
60.6346
49.6656
47.0639
40.5796
35.8421
30.8278
26.5696
22.8531
19.919
17.8166
16.6381
16.4928
17.4888
19.4199
22.6132
27.2301
30.7709
32.6516
762.818
680.251
631.245
574.912
525.909
478.619
434.687
393.222
354.241
317.46
282.714
249.808
218.53
188.803
160.662
133.284
106.93
85.9187
61.7605
24.6233
746.126
663.991
615.245
559.163
510.344
463.165
419.267
377.745
338.608
301.561
266.435
233.054
201.264
171.071
142.621
115.148
88.6411
67.0781
42.6856
5.20328
66.2066
44.2625
52.5346
41.5298
39.0292
32.5138
27.782
22.6894
18.3335
14.4669
11.3536
9.05647
7.71227
7.49397
8.69164
11.1631
14.2704
17.9082
20.9815
21.7845
45.2461
37.8291
45.0472
37.1628
38.2158
33.812
31.45
27.7353
24.2448
20.4006
16.5225
12.5849
8.79874
5.43697
2.9193
1.48913
0.814373
0.227858
-1.17964
-1.51069
22.3507
17.6792
19.0225
11.8255
11.2265
5.82802
3.12758
-0.989364
-4.26645
-7.72694
-10.8251
-13.687
-16.0962
-17.8406
-18.6469
-18.3597
-17.723
-16.82
-16.17
-14.0695
3.9645
2.72555
5.61794
2.62304
5.79303
4.26237
6.10966
6.23085
7.31337
8.29073
9.4936
10.8888
12.2891
13.9739
15.2809
16.969
19.2705
21.6461
23.8312
26.1676
28.6014
30.0739
32.8129
31.7912
35.376
34.8027
37.3149
37.242
39.1283
40.3773
42.064
42.8227
45.2324
44.123
43.1027
45.4406
46.1548
47.0243
47.1688
47.4282
40.6858
41.931
43.1
41.9381
44.2985
42.8969
44.5676
44.0945
45.1345
45.448
45.548
47.32
44.0145
43.7052
35.2553
34.0047
34.5334
33.4732
32.0186
33.5933
34.9386
35.011
35.1419
33.2842
34.2016
31.7353
31.9375
29.8279
29.1829
27.882
26.2123
25.6855
23.8183
21.9616
20.6599
15.9667
17.6223
19.423
10.5566
13.6232
26.0791
26.2588
26.765
25.1854
26.5565
24.5009
25.5341
24.1153
24.5453
23.947
24.02
23.8373
24.3424
23.7295
25.1038
24.1583
26.9181
29.5571
28.3412
30.9889
39.8298
41.6757
43.0123
43.0857
45.1324
45.1449
46.8017
47.0285
48.3325
48.9836
50.4456
51.575
53.2836
54.6519
56.4188
57.8724
59.5904
61.9415
63.7117
67.4087
59.6439
62.4823
63.5331
64.1522
65.9842
66.1667
67.6961
68.0168
69.0623
69.5973
70.4977
71.2142
72.0401
72.791
73.5986
74.3428
75.4546
76.4516
78.3843
79.8886
75.0129
77.7638
78.4211
79.394
80.5191
80.6702
81.6545
81.7519
82.3618
82.5006
82.8532
82.959
83.1635
83.0954
83.3125
83.1177
83.8182
83.9445
85.8862
86.2518
83.2613
84.9715
85.3344
86.4764
86.5923
86.6031
86.7635
86.4742
86.6221
86.2451
86.2753
85.7612
85.7291
84.9654
85.0038
84.0581
84.5544
83.9158
85.582
85.4851
84.959
85.2963
85.5536
86.4848
85.7455
85.6079
85.1132
84.456
84.1904
83.3728
83.2104
82.3222
82.2966
81.2967
81.4991
80.3937
81.0151
80.0805
81.6371
81.4468
79.5518
79.3057
79.9334
80.9787
80.1272
80.1432
79.6257
79.1045
78.8815
78.1865
78.2219
77.5764
77.8859
77.3515
77.9727
77.4914
78.5432
78.0908
79.8807
80.066
83.3426
82.8673
83.8932
85.1796
84.4742
84.6602
84.2162
83.8633
83.7023
83.2199
83.3757
82.9784
83.4346
83.1634
83.9344
83.7654
84.8855
84.7533
86.4281
86.6153
79.6175
79.4126
80.6646
82.2936
81.6563
82.0717
81.6536
81.554
81.4781
81.2207
81.4717
81.2311
81.7761
81.5977
82.4147
82.297
83.3897
83.3396
84.8685
85.1538
94.8254
93.8241
94.7035
95.9709
94.9095
94.9695
94.0642
93.6418
93.0796
92.4915
92.2601
91.6518
91.7086
91.1056
91.4163
90.7781
91.3635
90.6745
91.7464
91.3984
74.5548
74.2805
74.9222
76.9188
75.9179
76.2587
75.432
75.3744
74.9494
74.7209
74.6706
74.3901
74.7118
74.4009
75.059
74.6475
75.6006
75.184
76.4865
76.7759
124.192
122.664
120.804
121.714
118.152
116.281
113.218
110.727
107.77
105.431
103.284
101.298
99.9413
98.3354
97.7022
96.19
96.3557
94.6007
95.414
94.5284
)
;

boundaryField
{
    outletWall
    {
        type            fixedValue;
        value           uniform 0;
    }
    fineWalls
    {
        type            zeroGradient;
    }
    fineFrontAndBack
    {
        type            zeroGradient;
    }
    fineplugLeft
    {
        type            cyclicAMI;
        value           nonuniform List<scalar> 
20
(
94.7451
94.9595
94.0388
95.9326
96.3348
98.0373
98.9594
100.57
101.863
103.584
105.282
107.051
109.656
121.434
116.69
117.223
119.953
120.169
118.918
116.18
)
;
    }
    fineplugRight
    {
        type            cyclicAMI;
        value           nonuniform List<scalar> 
20
(
77.4348
76.0004
74.3961
76.2896
76.344
78.0262
78.7699
80.4301
81.7679
83.6164
85.5146
87.5004
89.9482
100.071
99.3288
99.5201
101.823
101.46
100.753
97.8854
)
;
    }
    inletOutletLeft
    {
        type            cyclicAMI;
        value           nonuniform List<scalar> 
20
(
94.7451
94.9595
94.0388
95.9326
96.3348
98.0373
98.9594
100.57
101.863
103.584
105.282
107.051
109.656
121.434
116.69
117.223
119.953
120.169
118.918
116.18
)
;
    }
    inletLeft
    {
        type            zeroGradient;
    }
    inletWallsLeft
    {
        type            zeroGradient;
    }
    inletFacesLeft
    {
        type            zeroGradient;
    }
    inletOutletRight
    {
        type            cyclicAMI;
        value           nonuniform List<scalar> 
20
(
77.4348
76.0004
74.3961
76.2896
76.344
78.0262
78.7699
80.4301
81.7679
83.6164
85.5146
87.5004
89.9482
100.071
99.3288
99.5201
101.823
101.46
100.753
97.8854
)
;
    }
    inletRight
    {
        type            zeroGradient;
    }
    inletWallsRight
    {
        type            zeroGradient;
    }
    inletFacesRight
    {
        type            zeroGradient;
    }
}


// ************************************************************************* //
