/*--------------------------------*- C++ -*----------------------------------*\
| =========                 |                                                 |
| \\      /  F ield         | OpenFOAM: The Open Source CFD Toolbox           |
|  \\    /   O peration     | Version:  4.1                                   |
|   \\  /    A nd           | Web:      www.OpenFOAM.org                      |
|    \\/     M anipulation  |                                                 |
\*---------------------------------------------------------------------------*/
FoamFile
{
    version     2.0;
    format      ascii;
    class       surfaceScalarField;
    location    "21";
    object      phi;
}
// * * * * * * * * * * * * * * * * * * * * * * * * * * * * * * * * * * * * * //

dimensions      [0 3 -1 0 0 0 0];

internalField   nonuniform List<scalar> 
2360
(
-1836.26
386.617
-2222.88
386.616
386.617
2465.89
-2079.27
2465.89
2465.89
2465.89
4553.92
-2088.03
4553.92
4553.92
6752.56
-2198.64
6752.56
6752.56
9149.42
-2396.87
9149.43
9149.42
13038.5
-3889.05
13038.5
13038.5
14234
15983
17523.4
18851.7
20045.9
21275.4
16969.9
5499.63
18056.3
19044
19967
20846.3
21690.4
22492
23248.4
23943.7
24569.4
25113.3
25634.7
26279.9
27038.9
11862.8
15176.1
11862.8
11862.8
11862.8
-210.622
12073.4
-210.623
-210.622
-210.622
-257.134
46.5125
-257.134
-257.133
-250.235
-6.89844
-250.234
-250.234
-250.234
-12619.5
12369.2
-12619.5
-12619.5
-12619.5
-27827.4
15207.9
-26838.9
-26055.7
-25567.4
-25111.9
-24586.3
-23995.3
-23331.9
-22600.1
-21790.8
-20906.4
-19947.1
-18916.3
-17808.8
-20580.3
3954.19
-19328.6
-18012.9
-16642.5
-15186
-13453
-12281.6
-12281.6
-12281.6
-8488.56
-3793.04
-8488.56
-8488.56
-6093.2
-2395.37
-6093.2
-6093.2
-4058.38
-2034.82
-4058.38
-4058.38
-2462.19
-1596.19
-2462.19
-2462.19
-2462.19
-1154.25
-1307.94
-1154.25
-1154.25
-110.092
-1044.15
-2602.84
-3982.97
-2063.6
9200.12
-2119.37
4219.92
-3131.6
-9122.03
-4024.73
-7612.87
-4269.42
-5657.64
-4285.29
-5530.1
-4037.54
-6473.23
-3325.79
-8332.44
-1982.95
-9490.25
93.1198
-5000.53
1449.36
7473.78
1631.07
16169.2
1650.31
14738.9
1722.42
9179.79
1865.97
4584.18
1836.8
674.58
1647.73
399.093
-1062.04
-2715.91
-4012.61
-2340.92
8825.14
-2630.9
4509.89
-4047.75
-7705.18
-5017.66
-6642.95
-5467.99
-5207.31
-5825.18
-5172.91
-5874.97
-6423.43
-5339.16
-8868.24
-3892.3
-10937.1
-1003.42
-7889.4
1112.02
5358.35
1299.49
15981.7
1428.43
14610
1799.71
8808.51
2199.47
4184.43
2216.18
657.87
1898.54
716.732
-471.44
-3081.02
-3545.64
-2883.74
8627.86
-3245.71
4871.86
-4642.86
-6308.03
-5557.06
-5728.76
-6358.44
-4405.93
-7208.94
-4322.41
-7759.81
-5872.56
-7683.18
-8944.87
-6510.99
-12109.3
-3428.67
-10971.7
-181.253
2110.93
669.004
15131.4
923.106
14355.9
1754.65
7976.96
2548.2
3390.87
2720.49
485.585
2273.05
1164.17
205.419
-3596.36
-2753.83
-3532.07
8563.57
-3883.44
5223.23
-5353.97
-4837.51
-6499.07
-4583.65
-7807.22
-3097.79
-9233.49
-2896.13
-10308.7
-4797.37
-10599
-8654.52
-9458.11
-13250.2
-6116.36
-14313.5
-1956.11
-2049.33
-416.345
13591.7
101.273
13838.3
1528.87
6549.36
2742.17
2177.58
3024.63
203.123
2593.71
1595.09
764.315
-4282.78
-1749.7
-4304.97
8585.76
-4637.79
5556.06
-6219.5
-3255.8
-7758.31
-3044.83
-9592.04
-1264.06
-11414.7
-1073.49
-12598.1
-3613.9
-12621.2
-8631.43
-11020
-14851.4
-7738.48
-17595
-3814.12
-5973.69
-1965.68
11743.2
-980.762
12853.3
1120.9
4447.7
2932.17
366.307
3449.44
-314.147
2855.35
2189.18
1224.29
-5104.84
-688.127
-5139.84
8620.76
-5498.37
5914.59
-7250.92
-1503.26
-9152.35
-1143.4
-11196.6
780.177
-12772.2
502.077
-13074.3
-3311.78
-11886
-9819.68
-9731.35
-17006.1
-7560
-19766.4
-5408.41
-8125.28
-3761.15
10096
-2246.17
11338.4
503.702
1697.83
2749.09
-1879.08
3100
-665.057
3105.9
2183.28
537.153
-5893.6
365.799
-5914.48
8641.65
-6316.49
6316.6
-8122.79
303.04
-9953.66
687.465
-11537.6
2364.14
-11993.6
958.079
-10691.2
-4614.15
-8397.6
-12113.3
-6550.65
-18853.1
-6382.08
-19934.9
-6825.15
-7682.21
-5761.5
9032.34
-3637.63
9214.48
-1154.56
-785.246
385.448
-3419.09
1634.31
-1913.92
3026.52
791.067
7517.86
-6489.56
1330.76
-6456.62
8608.71
-6722.96
6582.94
-8218.01
1798.09
-9545.87
2015.32
-10218.8
3037.05
-9329.78
69.0825
-7213.52
-6730.41
-5427.93
-13898.9
-4838.04
-19443
-6045.42
-18727.6
-7878.3
-5849.34
-7238.08
8392.12
-5708.53
7684.94
-6407.78
-85.9941
-7506.61
-2320.26
-7869.5
-1551.02
-10066.6
2988.13
12659.2
-6761.72
2172.1
-6580.03
8427.03
-6397.48
6400.39
-7322.3
2722.9
-8174.67
2867.69
-8097.36
2959.74
-6552.43
-1475.85
-4894.04
-8388.8
-4463.04
-14329.9
-5109.98
-18796
-6777.1
-17060.4
-8360.44
-4266
-8459.07
8490.75
-10431.3
9657.15
-14715
4197.75
-16537.9
-497.382
-16428.3
-1660.65
-15625.6
2185.46
9402.89
-6569.05
2860.74
-6172.14
8030.11
-5580.99
5809.24
-6056.72
3198.64
-6513.64
3324.61
-5900.62
2346.72
-4379.13
-2997.34
-3637.77
-9130.16
-4287.67
-13680
-5827.52
-17256.2
-8094.04
-14793.9
-9722.86
-2637.18
-10529.2
9297.13
-13141.7
12269.6
-15676.5
6732.52
-15227.2
-946.631
-13544.8
-3343.04
-9701.81
-1657.55
-305.815
-6057.18
3277.2
-5543.19
7516.13
-5147.3
5413.35
-5442.58
3493.91
-5232.49
3114.52
-4045.41
1159.64
-2843.12
-4199.62
-2898.2
-9075.08
-4209.12
-12369.1
-6463.73
-15001.6
-9638.56
-11619.1
-12056.9
-218.866
-13385.3
10625.6
-15355.3
14239.6
-16748.8
8125.96
-16146
-1549.35
-14443.7
-5045.42
-10178
-5923.23
-10437.3
-6492.68
3522.87
-6462.36
7485.81
-6889.8
5840.79
-6584.88
3188.99
-4712.82
1242.46
-2567.16
-986.02
-1673.06
-5093.72
-2290.1
-8458.04
-3939.28
-10719.9
-6652.11
-12288.7
-10538.1
-7733.09
-13642.9
2885.89
-15268.7
12251.4
-16016.4
14987.3
-15051.5
7161.06
-13563.9
-3036.93
-14162.3
-4447.02
-14954
-5131.59
-13317.9
-9185.18
4139.36
-9980.97
8281.6
-10075.1
5934.89
-7553.99
667.917
-3523.65
-2787.88
-1009.23
-3500.44
-730.122
-5372.83
-1740.76
-7447.4
-3419.15
-9041.54
-6171.11
-9536.77
-10366.2
-3538
-13829.5
6349.2
-15211.1
13633
-13775.8
13552
-8850.39
2235.67
-4908.21
-6979.12
-5512.72
-3842.51
-9816.71
-827.598
-7958.45
-12107.1
5035.99
-12540.9
8715.44
-10395.5
3789.49
-5904.39
-3823.2
-1980.57
-6711.69
-282.211
-5198.8
-384.196
-5270.85
-1457.29
-6374.31
-2896.33
-7602.49
-5240.23
-7192.88
-9056.57
278.341
-12416.8
9709.39
-13278.1
14494.4
-10446.9
10720.8
-5700.02
-2511.23
-2869
-9810.14
-370.422
-6341.09
1276.29
-2474.31
-1182.53
-13045.4
5771.53
-12457.4
8127.39
-8997.84
329.979
-5063.08
-7757.96
-2481.49
-9293.29
-1049.26
-6631.03
-777.429
-5542.68
-1442.73
-5709.01
-2533.64
-6511.58
-4293.86
-5432.65
-7076.24
3060.71
-9776.51
12409.7
-10170
14887.9
-6958.2
7508.97
-3502.65
-5966.78
-2048.52
-11264.3
-629.205
-7760.41
1809.51
-4913.03
-3262.07
-12191.6
6188.51
-10841.7
6777.43
-7310.65
-3201.04
-4412.71
-10655.9
-2614.31
-11091.7
-1325.17
-7920.17
-876.088
-5991.76
-1293.48
-5291.62
-2213.09
-5591.98
-3448.74
-4197
-4891.41
4503.38
-6604.53
14122.8
-6857.11
15140.5
-4061.79
4713.66
-1646.21
-8382.36
-607.854
-12302.6
494.316
-8862.58
1583.07
-6001.78
-4075.87
-10586.6
6434.11
-8998.76
5189.6
-5872.04
-6327.76
-3821.39
-12706.5
-2537.85
-12375.2
-1406.54
-9051.47
-869.868
-6528.43
-1037.91
-5123.57
-1756.61
-4873.28
-2569.05
-3384.56
-2885.16
4819.49
-3524.98
14762.6
-3753.4
15368.9
-1509.36
2469.61
77.6106
-9969.33
541.563
-12766.6
1159.68
-9480.7
1784.74
-6626.84
-4489.77
-8839.76
6636
-7382.63
3732.48
-4871.77
-8838.63
-3476.3
-14102
-2511.33
-13340.2
-1537.9
-10024.9
-965.234
-7101.1
-844.966
-5243.84
-1167.13
-4551.11
-1603.21
-2948.49
-1375.49
4591.78
-993.897
14381
-951.277
15326.3
499.416
1018.92
1516.34
-10986.2
1579.77
-12830
1785.17
-9686.1
2011.23
-6852.9
-4566.58
-7300.36
6895.43
-6055.64
2487.76
-4208.16
-10686.1
-3301.74
-15008.4
-2511.39
-14130.6
-1683.83
-10852.5
-1074.63
-7710.31
-723.241
-5595.23
-629.992
-4644.36
-650.883
-2927.6
-407.107
4348
599.565
13374.4
1474.9
14450.9
2303.57
190.25
2474.82
-11157.5
2276.22
-12631.4
2197.81
-9607.69
2199.62
-6854.71
-4446.23
-5596.99
-4897.52
-3857.9
-3217.09
-2541.4
-1800.76
-1137.45
-643.886
-322.775
-72.787
230.887
1240.93
2423.94
3082.09
2965
2650.26
2413.94
2299.76
233.532
-1429.09
461.589
-1976.98
597.771
-1676.62
688.907
-1419.44
794.509
-1299.79
919.757
-1354.74
975.093
-1249.45
984.484
-1095.8
969.143
-972.383
943.216
-897.051
907.347
-843.445
859.418
-796.182
794.183
-736.335
713.977
-676.163
616.348
-597.682
503.248
-512.582
372.871
-413.59
249.144
-397.617
144.317
-540.414
-614.67
110.832
-1539.92
101.471
-1967.62
94.4964
-1669.64
86.6872
-1411.63
127.324
-1340.43
176.502
-1403.92
208.078
-1281.03
215.891
-1103.61
218.839
-975.329
224.201
-902.411
226.335
-845.576
221.294
-791.138
204.782
-719.82
179.859
-651.238
152.485
-570.305
130.527
-490.622
113.623
-396.683
102.353
-386.344
70.9399
-508.996
-543.73
43.7237
-1583.64
45.5323
-1969.43
79.7922
-1703.9
92.8692
-1424.7
140.421
-1387.98
183.624
-1447.12
197.052
-1294.45
206.52
-1113.07
222.242
-991.049
240.461
-920.628
248.954
-854.067
246.136
-788.318
231.845
-705.528
207.621
-627.012
180.098
-542.78
160.486
-471.01
151.068
-387.264
135.919
-371.194
79.8805
-452.955
-463.85
43.684
-1627.32
32.8693
-1958.61
59.3344
-1730.36
66.7147
-1432.08
102.98
-1424.24
145.777
-1489.91
121.579
-1270.25
115.673
-1107.17
135.011
-1010.39
162.304
-947.92
177.408
-869.171
179.299
-790.209
168.289
-694.516
146.66
-605.383
114.165
-510.284
83.1811
-440.025
65.0208
-369.103
50.6158
-356.789
13.0246
-415.363
-450.825
33.3914
-1660.71
12.2758
-1937.49
43.3371
-1761.42
55.524
-1444.27
80.0528
-1448.77
108.843
-1518.7
73.6493
-1235.06
80.3753
-1113.89
106.36
-1036.37
132.311
-973.87
144.763
-881.621
147.288
-792.732
139.944
-687.171
123.311
-588.748
90.1668
-477.138
47.6603
-397.517
10.3591
-331.801
-18.8296
-327.599
-37.742
-396.449
-488.567
29.9849
-1690.7
12.0946
-1919.6
47.7966
-1797.12
60.8589
-1457.33
76.8622
-1464.77
93.2268
-1535.07
63.4722
-1205.3
77.0733
-1127.49
96.0152
-1055.31
111.353
-989.207
119.59
-889.857
124.548
-797.69
126.126
-688.749
121.122
-583.744
95.8572
-451.873
50.9677
-352.627
-2.41401
-278.419
-49.9087
-280.104
-58.6703
-387.686
-547.237
16.0606
-1706.75
5.22104
-1908.76
36.0343
-1827.94
45.9252
-1467.22
54.1152
-1472.96
60.1943
-1541.15
52.102
-1197.21
66.5615
-1141.95
78.4979
-1067.25
87.8525
-998.561
98.8881
-900.892
110.022
-808.823
124.924
-703.65
140.007
-598.827
142.186
-454.052
123.982
-334.423
88.4168
-242.854
41.7434
-233.43
9.00338
-354.946
-538.234
3.83265
-1710.59
10.7098
-1915.64
35.588
-1852.82
51.6154
-1483.25
55.5687
-1476.92
52.2919
-1537.87
64.7153
-1209.64
75.5188
-1152.75
84.267
-1076
90.4698
-1004.76
102.216
-912.639
111.263
-817.871
123.81
-716.198
139.456
-614.472
157.981
-472.578
166.401
-342.843
163.779
-240.232
141.29
-210.942
95.1804
-308.837
-443.054
0.672101
-1711.26
23.176
-1938.14
38.4217
-1868.06
66.9576
-1511.78
72.01
-1481.97
59.2955
-1525.15
89.0895
-1239.43
104.821
-1168.49
120.004
-1091.18
127.617
-1012.38
139.869
-924.89
146.465
-824.465
152.157
-721.889
156.046
-618.361
172.164
-488.695
189.568
-360.245
205.022
-255.686
200
-205.919
145.698
-254.534
-297.356
11.8525
-1723.11
40.6805
-1966.97
41.1161
-1868.5
90.7795
-1561.44
106.406
-1497.59
80.0449
-1498.79
128.781
-1288.16
155.556
-1195.26
181.927
-1117.55
195.599
-1026.05
213.214
-942.504
226.301
-837.552
238.293
-733.882
245.257
-625.325
262.543
-505.981
284.057
-381.76
301.11
-272.74
291.445
-196.253
198.999
-162.089
-98.3563
34.6328
-1757.74
61.6115
-1993.95
39.3219
-1846.21
103.287
-1625.41
141.528
-1535.83
99.5706
-1456.83
155.24
-1343.83
186.549
-1226.57
217.941
-1148.94
240.751
-1048.86
267.414
-969.168
294.031
-864.168
324.196
-764.046
353.614
-654.743
389.175
-541.542
417.137
-409.722
411.44
-267.043
359.354
-144.168
177.576
19.6876
79.2196
51.614
-1809.36
50.8633
-1993.2
30.8997
-1826.24
65.3708
-1659.88
97.3116
-1567.77
70.8726
-1430.39
83.9009
-1356.86
96.5608
-1239.23
105.98
-1158.36
115.932
-1058.81
122.281
-975.517
131.233
-873.121
141.456
-774.27
151.719
-665.006
157.109
-546.934
139.353
-391.967
58.0663
-185.757
-40.4275
-45.6755
-71.7488
51.0064
7.47073
84.3348
-1893.69
59.2867
-1968.15
72.3381
-1839.29
83.6064
-1671.15
110.457
-1594.62
131.52
-1451.46
136.873
-1362.21
154.071
-1256.43
174.605
-1178.9
197.328
-1081.53
209.443
-987.632
217.137
-880.816
211.925
-769.058
194.696
-647.777
165.895
-518.133
130.68
-356.753
76.4342
-131.511
18.5976
12.1605
33.9405
35.6628
41.4112
91.7165
-1985.41
52.2303
-1928.66
65.1346
-1852.2
76.084
-1682.1
101.659
-1620.2
132.535
-1482.33
169.818
-1399.5
211.174
-1297.78
254.753
-1222.48
300.736
-1127.52
338.748
-1025.64
357.933
-900.002
341.836
-752.961
298.811
-604.753
259.468
-478.79
247.847
-345.133
286.228
-169.893
296.945
1.44249
195.254
137.353
236.665
28.1847
-2013.6
-30.2439
-1870.24
-50.1701
-1832.27
-74.7518
-1657.52
-94.791
-1600.16
-108.556
-1468.57
-113.518
-1394.54
-117.613
-1293.69
-127.42
-1212.67
-134.168
-1120.77
-140.941
-1018.87
-151.905
-889.04
-166.752
-738.115
-177.788
-593.719
-179.423
-477.155
-163.666
-360.891
-100.675
-232.884
26.2918
-125.526
17.947
145.696
254.612
-5.9958
-2007.6
-39.6468
-1836.59
-60.9267
-1811
-85.2411
-1633.21
-111.72
-1573.69
-136.815
-1443.48
-168.642
-1362.71
-199.793
-1262.54
-234.126
-1178.34
-266.791
-1088.11
-290.961
-994.704
-290.293
-889.71
-249.352
-779.058
-174.024
-669.049
-95.3931
-555.789
-33.7557
-422.531
-10.2772
-256.368
46.3205
-182.13
-12.632
204.643
241.98
-19.3131
-1988.29
-56.3851
-1799.52
-79.0953
-1788.29
-92.4477
-1619.85
-105.75
-1560.38
-105.076
-1444.15
-104.076
-1363.71
-95.2963
-1271.32
-83.914
-1189.72
-64.4906
-1107.53
-31.5747
-1027.62
24.5618
-945.848
105.803
-860.299
201.053
-764.3
289.427
-644.163
334.006
-467.11
248.761
-171.123
-12.0807
78.7119
-28.0494
220.611
213.93
-139.11
-1849.18
-303.304
-1635.32
-431.146
-1660.44
-519.558
-1531.44
-597.244
-1482.7
-643.464
-1397.93
-675.49
-1331.69
-686.772
-1260.04
-683.051
-1193.44
-663.239
-1127.35
-628.393
-1062.47
-578.626
-995.616
-515.936
-922.99
-442.635
-837.601
-360.587
-726.212
-269.51
-558.188
-163.186
-277.449
-133.584
49.1087
-33.3713
120.397
180.559
-202.878
-1646.3
-448.874
-1389.33
-707.538
-1401.78
-923.08
-1315.9
-1129.23
-1276.54
-1301.72
-1225.45
-1450.9
-1182.51
-1571.98
-1138.96
-1668.34
-1097.09
-1740.34
-1055.34
-1789.31
-1013.5
-1814.43
-970.493
-1812.45
-924.972
-1775.95
-874.098
-1689.97
-812.195
-1517.23
-730.929
-1177.62
-617.06
-671.082
-457.427
-271.414
-279.27
-90.8554
-671.302
-1085.63
-1512.41
-1853.31
-2154.85
-2405.3
-2612.81
-2776.77
-2898.86
-2979.2
-3017.7
-3013.19
-2963.16
-2862.26
-2699.46
-2455.39
-2097.45
-1579.87
-884.145
-661.176
1636.18
-1067.25
1381.07
-1485.77
1393.53
-1819.43
1308.66
-2114.48
1270.05
-2359.26
1219.79
-2562.01
1177.75
-2722.44
1135.43
-2843.02
1095.59
-2924.91
1056.89
-2968.42
1018.52
-2971.05
977.628
-2926.38
930.337
-2823.49
872.106
-2647.03
798.544
-2381.3
709.273
-2013.83
607.524
-1519.96
481.14
-857.536
312.573
117.464
-217.804
1853.99
-486.042
1649.32
-766.626
1674.12
-1010.97
1553.01
-1248.09
1507.18
-1456.86
1428.57
-1646.12
1367.01
-1812.18
1301.49
-1957.79
1241.2
-2081.88
1180.99
-2180.77
1117.4
-2243.02
1039.88
-2245.66
932.98
-2150.71
777.158
-1919.63
567.467
-1555.4
345.04
-1114.76
166.892
-652.454
18.833
-231.773
-108.104
-114.309
-184.166
2038.16
-386.752
1851.91
-555.627
1842.99
-686.554
1683.94
-807.684
1628.31
-898.081
1518.97
-975.855
1444.79
-1033.83
1359.47
-1078.11
1285.47
-1106.91
1209.79
-1120.32
1130.82
-1114.62
1034.18
-1082.04
900.399
-1007.62
702.739
-877.383
437.237
-700.329
167.99
-544.833
11.4011
-398.189
-127.806
-241.094
-265.194
-355.403
1.43773
2036.72
-58.8166
1912.16
-82.4375
1866.62
-88.7047
1690.21
-91.2187
1630.82
-76.4525
1504.2
-54.4362
1422.78
-17.8166
1322.85
31.3951
1236.27
93.3119
1147.88
164.302
1059.83
236.081
962.407
288.44
848.043
286.098
705.084
204.308
519.031
68.1569
304.154
0.662415
78.9133
-32.107
-95.0231
-75.4543
-221.839
-430.857
95.9459
1940.78
83.1302
1924.98
117.711
1832.04
158.135
1649.79
203.172
1585.79
258.173
1449.2
319.921
1361.04
385.165
1257.61
452.473
1168.96
525.857
1074.5
606.345
979.35
683.104
885.651
765.874
765.278
876.973
593.989
875.443
520.566
714.62
464.982
469.987
323.553
217.49
157.483
123.413
-127.751
-307.444
68.7235
1872.06
74.3857
1919.31
101.867
1804.56
126.18
1625.47
152.139
1559.83
183.972
1417.37
216.681
1328.33
253.862
1220.42
279.032
1143.79
304.172
1049.35
324.854
958.669
358.941
851.559
370.959
753.264
392.734
572.214
308.207
605.099
280.3
492.894
185.311
418.551
115.569
227.245
25.1228
-37.2826
-282.32
8.42206
1863.63
14.6897
1913.04
17.971
1801.28
11.6484
1631.79
4.90747
1566.57
-16.1517
1438.42
-47.2143
1359.38
-62.9918
1236.19
-75.9281
1156.72
-87.072
1060.48
-110.564
982.151
-121.369
862.361
-165.569
797.463
-268.387
675.033
-460.318
797.039
-397.643
430.232
-276
296.926
-198.266
149.541
-184.764
-50.7533
-467.085
2.78903
1860.84
-6.29293
1922.12
-8.92925
1803.91
-21.5236
1644.37
-35.3997
1580.44
-65.8409
1468.85
-100.723
1394.26
-124.133
1259.59
-127.942
1160.52
-112.43
1044.95
-80.7896
950.506
-43.5573
825.113
19.8856
734.022
63.5073
631.405
86.3167
774.233
36.3952
480.154
78.651
254.674
39.2536
188.947
-7.75014
-3.7366
-474.835
77.1876
1783.65
53.4822
1945.82
65.8668
1791.52
75.1043
1635.13
87.2994
1568.25
96.954
1459.2
111.181
1380.04
118.384
1252.38
134.442
1144.47
160.095
1019.3
205.552
905.053
252.973
777.691
331.843
655.156
403.056
560.192
587.153
590.14
568.274
499.036
463.81
359.144
387.31
265.454
293.808
89.7747
-181.026
147.921
1635.72
118.964
1974.77
125.951
1784.53
145.549
1615.53
179.213
1534.58
218.696
1419.71
268.852
1329.88
308.717
1212.51
344.844
1108.34
369.52
994.62
390.714
883.858
398.888
769.515
395.923
658.121
406.937
549.176
532.503
464.574
604.798
426.742
572.773
391.17
490.076
348.152
305.323
274.531
124.297
158.108
1477.61
146.923
1985.96
148.404
1783.05
166.523
1597.41
202.448
1498.66
249.04
1373.11
307.009
1271.91
360.256
1159.27
405.01
1063.59
432.464
967.165
441.917
874.405
431.965
779.465
406.547
683.539
396.262
559.461
420.115
440.721
438.48
408.377
423.947
405.704
362.102
409.997
221.377
415.257
345.674
91.8831
1385.73
93.2106
1984.62
99.8197
1776.44
109.68
1587.54
131.378
1476.96
162.624
1341.86
202.704
1231.82
245.622
1116.34
278.39
1030.81
298.014
947.536
303.281
869.134
302.158
780.583
307.08
678.614
317.64
548.898
319.845
438.513
319.708
408.512
315.95
409.46
275.118
450.827
174.928
515.445
520.602
5.34475
1380.38
6.7355
1983.23
22.1905
1760.98
21.77
1587.96
23.7297
1474.99
22.7523
1342.84
24.3173
1230.26
34.9227
1105.73
45.3023
1020.43
55.5383
937.298
67.4446
857.226
90.3753
757.65
124.544
644.443
147.547
525.893
164.876
421.184
183.854
389.533
200.452
392.862
184.923
466.355
125.003
575.364
645.605
-40.2314
1420.6
-39.7342
1982.73
-18.4434
1739.68
-24.1324
1593.65
-29.994
1480.85
-46.1315
1358.97
-67.5533
1251.68
-87.1446
1125.32
-93.8842
1027.17
-87.7749
931.184
-67.892
837.34
-39.1488
728.903
-12.9561
618.247
0.0875743
512.846
14.7946
406.474
37.0522
367.273
64.8299
365.082
73.8251
457.358
53.1833
596.003
698.788
-34.205
1454.81
-24.8229
1973.34
7.09647
1707.76
9.94841
1590.79
13.8402
1476.96
13.0518
1359.76
7.41414
1257.31
-8.96984
1141.7
-17.6758
1035.87
-17.5896
931.095
-9.08235
828.83
-5.70872
725.527
-9.24591
621.782
-19.3469
522.945
-30.8891
418.014
-28.4501
364.832
-9.73367
346.364
4.98607
442.637
-3.137
604.124
695.651
-18.74
1473.54
-6.08345
1960.68
29.1456
1672.53
42.0413
1577.89
54.9488
1464.05
68.598
1346.11
85.767
1240.14
93.5762
1133.89
96.1404
1033.3
91.4168
935.816
83.0098
837.233
67.6851
740.848
53.9205
635.543
36.472
540.39
19.5885
434.894
17.6399
366.778
31.6938
332.308
40.6967
433.632
11.3776
633.44
707.029
0.692035
1472.85
17.3379
1944.03
58.0271
1631.84
75.9781
1559.94
83.6751
1456.35
87.5784
1342.21
98.765
1228.95
110.863
1121.79
118.439
1025.73
113.626
940.628
102.451
848.409
91.5933
751.705
84.4976
642.639
73
551.887
61.335
446.559
58.0177
370.095
69.2917
321.034
83.0734
419.851
47.5875
668.925
754.616
-0.875632
1473.72
10.368
1932.79
65.3674
1576.84
86.8342
1538.48
94.0107
1449.18
95.9029
1340.31
99.3622
1225.49
102.521
1118.63
108.113
1020.13
110.404
938.336
113.06
845.752
118.074
746.691
122.187
638.524
122.015
552.058
119.214
449.359
120.038
369.27
132.304
308.768
137.917
414.237
91.2647
715.577
845.881
78.9182
1394.8
62.1791
1949.53
63.546
1575.47
90.3773
1511.64
102.141
1437.41
100.497
1341.96
101.067
1224.92
96.6718
1123.03
93.5025
1023.3
95.4269
936.411
99.084
842.094
99.9624
745.812
93.5697
644.917
85.0509
560.577
69.3646
465.045
54.9126
383.722
55.0638
308.616
79.7561
389.545
67.1709
728.162
913.052
223.374
439.955
558.88
700.116
821.841
912.118
954.373
969.892
962.404
939.442
897.158
833.705
746.828
643.952
517.989
376.118
229.277
130.544
75.4864
)
;

boundaryField
{
    outletWall
    {
        type            calculated;
        value           nonuniform List<scalar> 
60
(
-110.092
1665.61
-210.015
-645.413
-4727.74
-9251.89
-14758.2
-16350.9
-8830.03
2924.46
8147.42
7620.68
6225.48
5545.97
5902.32
8505.99
10134.3
-4164.15
-9739.37
3580.38
5419.24
7040.93
8637.87
10341
11774.6
12309.9
11210.4
8568.68
6247.01
5640.72
5880.41
5920.38
5524.6
4839.67
4043.26
3278.65
2804.55
2614.06
2745.54
3005.44
1836.26
-4369.35
-6740.53
-9371.36
-12316.7
-11040.4
-467.899
13267.9
12364.3
4044.33
-3177.59
-4965.47
-6088.79
-8373.62
-11593.1
-14806.3
-15649.2
-11725.7
1788.29
7073.18
)
;
    }
    fineWalls
    {
        type            calculated;
        value           uniform 0;
    }
    fineFrontAndBack
    {
        type            calculated;
        value           nonuniform List<scalar> 
960
(
-7.85202e-13
-1.59208e-12
5.30545e-14
-4.90157e-14
-6.91173e-13
-1.65759e-13
-2.42115e-13
-1.49335e-13
-2.20173e-12
-5.71997e-13
-5.85506e-13
-5.73516e-13
-6.68381e-15
-1.70223e-13
-2.21437e-12
-8.07441e-13
-1.12581e-12
-5.72884e-12
-1.08229e-12
-1.52835e-12
-1.47548e-13
-4.27755e-13
-5.0144e-13
-5.78793e-13
-5.91145e-13
-7.24376e-13
-9.55074e-12
-9.13388e-13
-9.52306e-13
-9.99125e-13
-1.05101e-12
-1.10163e-12
-1.1638e-12
-1.23769e-12
-1.33595e-12
-1.47079e-12
-1.61821e-12
-1.79941e-12
-1.74693e-12
-1.40074e-12
-2.81959e-11
-3.24029e-12
-2.83526e-12
-2.59577e-12
-9.69752e-13
-2.00514e-13
2.82545e-12
2.2806e-11
4.06934e-10
2.58863e-11
1.05326e-11
3.65252e-11
7.7843e-12
9.69966e-12
6.05999e-12
1.8444e-11
3.13242e-12
3.13544e-12
3.12848e-12
1.93827e-11
7.62986e-13
9.77633e-13
1.31305e-12
1.08841e-12
8.77748e-13
7.28146e-13
6.15037e-13
5.19959e-13
4.32105e-13
3.57228e-13
2.90057e-13
2.36797e-13
1.88354e-13
-9.29177e-12
-5.2762e-14
-2.03091e-13
-2.33569e-13
-3.24067e-13
-4.35422e-13
-7.26849e-13
-3.79911e-12
-4.02601e-12
-2.27143e-11
-2.96427e-12
-3.38422e-12
-1.87178e-11
-2.31173e-12
-2.81394e-12
-1.64942e-11
-1.74621e-12
-2.31581e-12
-1.45844e-11
-1.37026e-12
-1.98979e-12
-2.39269e-12
-1.58517e-11
-1.1025e-12
-1.93329e-12
-1.35989e-11
5.57735e-13
6.24706e-12
-4.0274e-12
-2.49936e-12
1.54651e-11
1.78784e-11
2.10161e-12
-6.87954e-12
-1.39192e-11
-1.93278e-11
-2.05308e-11
-1.59726e-11
-1.37478e-11
-2.23096e-11
-3.14205e-11
-3.6872e-11
-4.34217e-11
-4.83224e-11
-5.0608e-11
-5.79968e-11
1.2326e-11
-4.39467e-12
-1.88947e-12
5.69623e-12
-1.4629e-11
-4.14827e-11
-4.81387e-11
-4.67896e-11
-4.20897e-11
-3.20413e-11
-1.78399e-11
-1.22353e-11
-2.13155e-11
-3.05992e-11
-3.64889e-11
-4.2809e-11
-4.78397e-11
-5.06769e-11
-5.77375e-11
1.75648e-11
-1.89966e-12
-4.3678e-12
-1.95882e-11
-5.8893e-11
-7.56414e-11
-7.1715e-11
-6.25551e-11
-5.18427e-11
-3.58853e-11
-1.67409e-11
-8.33692e-12
-1.89649e-11
-2.95568e-11
-3.62846e-11
-4.12146e-11
-4.40787e-11
-4.78269e-11
-5.7324e-11
1.84516e-11
3.69937e-13
-9.9814e-12
-5.6119e-11
-1.00579e-10
-9.34953e-11
-7.57698e-11
-6.31097e-11
-5.19784e-11
-3.61707e-11
-2.03045e-11
-1.27851e-11
-1.51039e-11
-2.83881e-11
-3.54621e-11
-3.95333e-11
-4.17807e-11
-4.48556e-11
-5.47006e-11
1.45367e-11
1.10311e-12
-2.10327e-11
-9.62982e-11
-1.24449e-10
-9.20255e-11
-6.86596e-11
-5.52298e-11
-4.44157e-11
-3.18988e-11
-2.55971e-11
-2.03388e-11
-1.39456e-11
-2.72114e-11
-3.45454e-11
-3.91661e-11
-4.1137e-11
-4.26259e-11
-5.0123e-11
7.04603e-12
-1.70381e-12
-3.7747e-11
-1.29849e-10
-1.27018e-10
-8.02131e-11
-5.79661e-11
-4.44167e-11
-3.20818e-11
-2.2268e-11
-2.26773e-11
-2.60096e-11
-1.64922e-11
-2.54281e-11
-3.65944e-11
-4.66406e-11
-5.47348e-11
-4.93717e-11
-5.46028e-11
-1.69323e-12
-1.06061e-11
-5.97599e-11
-1.46221e-10
-1.18858e-10
-7.04189e-11
-4.72393e-11
-2.98552e-11
-1.26912e-11
-2.90399e-12
-1.08102e-11
-3.02298e-11
-2.49739e-11
-2.96822e-11
-4.49575e-11
-3.07522e-11
-2.96052e-11
-4.46939e-11
-6.32574e-11
-1.14844e-11
-2.55226e-11
-8.28284e-11
-1.53669e-10
-1.1557e-10
-6.781e-11
-3.99805e-11
-1.29603e-11
9.51486e-12
1.32056e-11
-3.37107e-12
-3.42296e-11
-3.92932e-11
-3.19677e-11
-2.44553e-11
-9.86165e-12
-1.60989e-11
-1.76133e-11
-2.68369e-12
-2.14649e-11
-4.37846e-11
-1.07887e-10
-1.71904e-10
-1.306e-10
-7.07957e-11
-2.97238e-11
9.33964e-12
2.73445e-11
1.85919e-11
-4.50384e-13
-3.26755e-11
-5.0339e-11
-3.05661e-11
-4.31682e-12
1.10337e-11
1.20638e-11
1.42856e-11
2.18931e-11
-3.1465e-11
-6.54104e-11
-1.28118e-10
-1.82469e-10
-1.42103e-10
-6.82812e-11
2.64761e-12
4.4913e-11
4.02291e-11
1.79438e-11
4.83803e-12
-1.93139e-11
-4.96094e-11
-2.87169e-11
6.14237e-12
2.96384e-11
2.85201e-11
3.65642e-11
4.16302e-11
-2.97386e-11
-7.88037e-11
-1.17904e-10
-1.39435e-10
-1.00438e-10
-2.9926e-11
5.04957e-11
7.23658e-11
4.40095e-11
1.39411e-11
7.08377e-12
-1.90465e-12
-2.54222e-11
-1.35875e-11
3.99577e-12
-8.38487e-12
-8.43916e-12
3.24081e-11
1.71827e-10
-2.19411e-11
-6.72336e-11
-6.68698e-11
-5.05119e-11
-1.87332e-11
3.08494e-11
7.82116e-11
6.79252e-11
3.35778e-11
5.66081e-12
6.12076e-12
1.46734e-11
4.72356e-13
-2.25675e-12
-8.03039e-12
-2.46526e-11
-2.81368e-11
-3.87005e-11
-3.46973e-11
-2.593e-12
-2.21718e-11
2.95873e-12
2.43115e-11
2.77858e-11
3.23969e-11
2.89791e-11
1.96629e-11
6.98952e-12
-4.7503e-12
2.09961e-12
2.07607e-11
9.61451e-12
-9.42164e-14
-5.56335e-12
2.48495e-12
1.54814e-12
-1.46919e-11
-2.81624e-11
2.62224e-11
1.86916e-11
1.9947e-11
-1.105e-11
-3.87443e-11
-4.42972e-11
-5.2875e-11
-4.7495e-11
-3.07566e-11
-2.14986e-11
-6.46289e-12
1.60513e-11
7.62757e-12
-7.15997e-13
-3.70152e-13
5.92609e-12
4.32408e-12
3.09783e-12
8.04582e-12
4.33854e-11
2.78212e-11
1.29204e-12
-2.61806e-11
-2.46068e-11
-3.51955e-11
-5.89182e-11
-7.16946e-11
-5.76128e-11
-4.06644e-11
-1.71204e-11
6.75313e-12
1.59674e-12
-1.58878e-12
2.23998e-12
1.57735e-12
1.24595e-12
-3.54857e-13
4.03649e-12
4.46084e-11
2.50247e-11
-2.20525e-12
-5.41586e-12
-1.51619e-12
-1.67578e-11
-3.62528e-11
-5.57663e-11
-5.93466e-11
-5.04631e-11
-2.68311e-11
-2.49857e-12
-3.48734e-12
-5.74961e-12
-5.59653e-12
-1.94158e-12
-7.96479e-13
-5.5159e-13
-1.10219e-12
3.77046e-11
2.5111e-11
3.74972e-12
7.81778e-12
3.30969e-12
-1.35064e-11
-2.92025e-11
-4.44652e-11
-5.05458e-11
-4.74938e-11
-3.18878e-11
-1.02306e-11
-6.28722e-12
-9.03432e-12
-7.34475e-12
-2.63828e-12
-8.399e-13
-8.34396e-13
-1.26286e-12
2.58197e-11
2.67801e-11
1.49512e-11
1.76571e-11
6.47967e-12
-1.09556e-11
-2.58185e-11
-3.70075e-11
-4.09273e-11
-4.23374e-11
-3.19697e-11
-1.67492e-11
-7.37191e-12
-1.06853e-11
-5.65206e-12
-2.06047e-12
-1.07043e-12
-9.93159e-13
-1.18243e-12
1.40374e-11
2.87314e-11
2.55518e-11
2.26826e-11
8.69975e-12
-9.08871e-12
-2.34965e-11
-3.33353e-11
-3.69656e-11
-4.03773e-11
-3.31682e-11
-2.01177e-11
-9.43164e-12
-9.75597e-12
-4.89836e-12
-1.88525e-12
-1.07993e-12
-1.01309e-12
-1.39262e-12
7.03925e-12
2.77641e-11
3.02152e-11
2.42398e-11
1.02529e-11
-7.73381e-12
-2.16938e-11
-3.07275e-11
-3.43117e-11
-3.92062e-11
-3.27636e-11
-2.00162e-11
-1.21104e-11
-9.25483e-12
-4.45174e-12
-1.7629e-12
-1.05474e-12
-1.02446e-12
-1.3148e-12
7.85202e-13
1.59208e-12
-5.30545e-14
4.90157e-14
6.91173e-13
1.65759e-13
2.42115e-13
1.49335e-13
2.20173e-12
5.71997e-13
5.85506e-13
5.73516e-13
6.68381e-15
1.70223e-13
2.21437e-12
8.07441e-13
1.12581e-12
5.72884e-12
1.08229e-12
1.52835e-12
1.47548e-13
4.27755e-13
5.0144e-13
5.78793e-13
5.91145e-13
7.24376e-13
9.55074e-12
9.13388e-13
9.52306e-13
9.99125e-13
1.05101e-12
1.10163e-12
1.1638e-12
1.23769e-12
1.33595e-12
1.47079e-12
1.61821e-12
1.79941e-12
1.74693e-12
1.40074e-12
2.81959e-11
3.24029e-12
2.83526e-12
2.59577e-12
9.69752e-13
2.00514e-13
-2.82545e-12
-2.2806e-11
-4.06934e-10
-2.58863e-11
-1.05326e-11
-3.65252e-11
-7.7843e-12
-9.69966e-12
-6.05999e-12
-1.8444e-11
-3.13242e-12
-3.13544e-12
-3.12848e-12
-1.93827e-11
-7.62986e-13
-9.77633e-13
-1.31305e-12
-1.08841e-12
-8.77748e-13
-7.28146e-13
-6.15037e-13
-5.19959e-13
-4.32105e-13
-3.57228e-13
-2.90057e-13
-2.36797e-13
-1.88354e-13
9.29177e-12
5.2762e-14
2.03091e-13
2.33569e-13
3.24067e-13
4.35422e-13
7.26849e-13
3.79911e-12
4.02601e-12
2.27143e-11
2.96427e-12
3.38422e-12
1.87178e-11
2.31173e-12
2.81394e-12
1.64942e-11
1.74621e-12
2.31581e-12
1.45844e-11
1.37026e-12
1.98979e-12
2.39269e-12
1.58517e-11
1.1025e-12
1.93329e-12
1.35989e-11
-5.57735e-13
-6.24706e-12
4.0274e-12
2.49936e-12
-1.54651e-11
-1.78784e-11
-2.10161e-12
6.87954e-12
1.39192e-11
1.93278e-11
2.05308e-11
1.59726e-11
1.37478e-11
2.23096e-11
3.14205e-11
3.6872e-11
4.34217e-11
4.83224e-11
5.0608e-11
5.79968e-11
-1.2326e-11
4.39467e-12
1.88947e-12
-5.69623e-12
1.4629e-11
4.14827e-11
4.81387e-11
4.67896e-11
4.20897e-11
3.20413e-11
1.78399e-11
1.22353e-11
2.13155e-11
3.05992e-11
3.64889e-11
4.2809e-11
4.78397e-11
5.06769e-11
5.77375e-11
-1.75648e-11
1.89966e-12
4.3678e-12
1.95882e-11
5.8893e-11
7.56414e-11
7.1715e-11
6.25551e-11
5.18427e-11
3.58853e-11
1.67409e-11
8.33692e-12
1.89649e-11
2.95568e-11
3.62846e-11
4.12146e-11
4.40787e-11
4.78269e-11
5.7324e-11
-1.84516e-11
-3.69937e-13
9.9814e-12
5.6119e-11
1.00579e-10
9.34953e-11
7.57698e-11
6.31097e-11
5.19784e-11
3.61707e-11
2.03045e-11
1.27851e-11
1.51039e-11
2.83881e-11
3.54621e-11
3.95333e-11
4.17807e-11
4.48556e-11
5.47006e-11
-1.45367e-11
-1.10311e-12
2.10327e-11
9.62982e-11
1.24449e-10
9.20255e-11
6.86596e-11
5.52298e-11
4.44157e-11
3.18988e-11
2.55971e-11
2.03388e-11
1.39456e-11
2.72114e-11
3.45454e-11
3.91661e-11
4.1137e-11
4.26259e-11
5.0123e-11
-7.04603e-12
1.70381e-12
3.7747e-11
1.29849e-10
1.27018e-10
8.02131e-11
5.79661e-11
4.44167e-11
3.20818e-11