/*--------------------------------*- C++ -*----------------------------------*\
| =========                 |                                                 |
| \\      /  F ield         | OpenFOAM: The Open Source CFD Toolbox           |
|  \\    /   O peration     | Version:  4.1                                   |
|   \\  /    A nd           | Web:      www.OpenFOAM.org                      |
|    \\/     M anipulation  |                                                 |
\*---------------------------------------------------------------------------*/
FoamFile
{
    version     2.0;
    format      ascii;
    class       volVectorField;
    location    "21";
    object      U;
}
// * * * * * * * * * * * * * * * * * * * * * * * * * * * * * * * * * * * * * //

dimensions      [0 1 -1 0 0 0 0];

internalField   nonuniform List<vector> 
1280
(
(-5.67445e-16 -0.580584 -2.06762)
(-2.67816e-16 0.111079 -1.78672)
(5.35517e-17 -0.032911 -0.935981)
(-3.54224e-17 0.161558 -0.857793)
(-1.17472e-16 0.514916 -1.62416)
(-1.19789e-16 0.610758 -1.17945)
(-1.7497e-16 0.865925 -1.14686)
(-9.04707e-17 0.932753 -1.06565)
(-4.41537e-16 1.40366 -1.70747)
(-4.13368e-16 1.41351 -1.26696)
(-4.30657e-16 1.6473 -1.12597)
(-1.80124e-17 2.11684 -1.87371)
(3.01833e-19 2.07115 -1.45102)
(-1.23016e-16 2.35501 -1.3144)
(-3.68604e-16 3.00976 -2.1736)
(-5.83516e-16 2.69487 -1.78834)
(-8.13591e-16 3.27906 -1.53704)
(-9.73672e-16 2.99748 -3.28889)
(-7.92794e-16 4.58111 -1.52145)
(-1.1045e-15 2.76212 -5.17576)
(-6.05325e-16 4.313 2.06233)
(-1.75489e-15 4.47143 7.39068)
(-2.05719e-15 4.34751 9.03882)
(-2.37454e-15 4.8145 9.67409)
(-2.42521e-15 4.81094 9.73988)
(-2.9718e-15 5.23341 10.7982)
(-2.01333e-15 4.08088 8.48679)
(-3.74723e-15 8.16541 13.4501)
(-3.9069e-15 8.31719 13.3995)
(-4.09898e-15 8.2892 13.347)
(-4.31184e-15 8.31664 13.3275)
(-4.5195e-15 8.29612 13.3308)
(-4.77458e-15 8.30768 13.2824)
(-5.0777e-15 8.23622 13.2264)
(-5.48083e-15 8.25089 13.1008)
(-6.03403e-15 8.10503 12.9521)
(-6.63881e-15 8.13466 12.7298)
(-7.3822e-15 7.86439 12.6273)
(-7.16688e-15 7.9347 13.1342)
(-5.74663e-15 7.69546 13.908)
(-4.9079e-15 9.09418 14.6329)
(-2.60265e-15 5.37612 9.84002)
(-2.27732e-15 4.15432 9.60625)
(-2.06617e-15 3.18205 9.60137)
(-3.98769e-17 0.947038 8.2064)
(-1.61055e-16 0.192784 1.56924)
(2.26944e-15 -0.337384 -1.312)
(1.83181e-14 0.521004 -3.01821)
(7.1483e-14 0.485766 -5.28187)
(2.08218e-14 -0.699336 -3.12757)
(8.31186e-15 0.536557 -3.183)
(6.35773e-15 -0.714328 -5.30971)
(6.25245e-15 -0.591703 -2.65281)
(7.79089e-15 0.15103 -1.08494)
(4.86746e-15 -0.352853 2.026)
(3.21044e-15 -1.33545 8.45105)
(2.53418e-15 -3.41963 9.38802)
(2.51842e-15 -4.43942 9.32666)
(2.51283e-15 -5.61409 9.58708)
(3.3447e-15 -8.77938 14.8569)
(3.1302e-15 -7.84826 14.7531)
(4.0108e-15 -8.0845 13.5098)
(5.38687e-15 -7.95732 12.4824)
(4.46527e-15 -8.32319 12.5512)
(3.60102e-15 -8.28457 12.7487)
(2.98726e-15 -8.48888 12.8955)
(2.52323e-15 -8.48967 13.0839)
(2.13316e-15 -8.60647 13.2448)
(1.77274e-15 -8.61465 13.4387)
(1.46555e-15 -8.66971 13.588)
(1.18998e-15 -8.64439 13.6998)
(9.71475e-16 -8.63966 13.7266)
(7.72735e-16 -8.52128 13.6478)
(-1.95874e-15 -4.34996 8.3585)
(-2.1646e-16 -4.82042 11.1338)
(-8.33192e-16 -4.53409 10.4516)
(-9.58234e-16 -4.48001 9.80291)
(-1.32951e-15 -4.02786 8.85687)
(-1.78635e-15 -4.22848 7.74283)
(-2.98195e-15 -4.01839 2.22056)
(-2.74552e-15 -2.57455 -4.72888)
(-2.90949e-15 -4.36244 -1.23675)
(-3.86052e-15 -2.76485 -2.8285)
(-2.1422e-15 -3.02725 -1.17846)
(-2.44568e-15 -2.54867 -1.43278)
(-3.22267e-15 -2.68072 -1.74042)
(-1.68047e-15 -2.10629 -0.924236)
(-2.03356e-15 -1.90964 -1.05582)
(-2.79792e-15 -1.81002 -1.34144)
(-1.26194e-15 -1.42416 -0.617322)
(-1.67409e-15 -1.30505 -0.728721)
(-2.41213e-15 -1.15268 -0.965322)
(-9.85766e-16 -0.8594 -0.43111)
(-1.43797e-15 -0.848781 -0.498261)
(-1.72913e-15 -0.730853 -0.532525)
(-2.69415e-15 -0.545261 -0.741105)
(-7.96745e-16 -0.390207 -0.216028)
(-1.39636e-15 -0.377476 -0.308229)
(-2.32615e-15 -0.063311 -0.483072)
(4.0306e-16 -0.0345964 0.0462839)
(6.94118e-16 1.17357 2.51214)
(-4.47488e-16 -3.22269 1.83037)
(-2.77706e-16 -1.42831 1.56359)
(1.71834e-15 3.36031 2.0087)
(1.98649e-15 2.80847 3.20094)
(2.33512e-16 1.96315 3.51363)
(-7.64393e-16 1.85178 3.59835)
(-1.54658e-15 2.0825 3.53983)
(-2.14753e-15 2.56153 3.18983)
(-2.28121e-15 2.75837 2.3534)
(-1.77474e-15 1.00358 0.929393)
(-1.52753e-15 -2.87487 -1.03209)
(-2.47884e-15 -5.42153 -1.40091)
(-3.49117e-15 -4.92946 -1.34431)
(-4.09689e-15 -3.10584 -1.40075)
(-4.82463e-15 -1.58497 -1.4557)
(-5.36916e-15 -0.209353 -1.63991)
(-5.62311e-15 -0.0612906 -1.42467)
(-6.44409e-15 0.556232 -1.34192)
(1.36955e-15 1.47708 2.33444)
(-4.88297e-16 -2.95783 2.15048)
(-2.09941e-16 -1.38299 1.69291)
(6.32914e-16 2.74701 2.7518)
(-1.62544e-15 2.30808 3.99397)
(-4.60918e-15 1.81618 4.36701)
(-5.34874e-15 1.82461 4.74283)
(-5.19884e-15 2.20757 4.96094)
(-4.67663e-15 2.9476 4.83119)
(-3.56014e-15 3.50454 4.05454)
(-1.98221e-15 2.27219 2.43551)
(-1.35948e-15 -2.15171 -0.685775)
(-2.36838e-15 -5.39121 -1.20815)
(-3.39991e-15 -4.89449 -1.03706)
(-4.05432e-15 -3.00471 -1.32771)
(-4.75656e-15 -1.46852 -1.62754)
(-5.31553e-15 -0.246903 -2.00681)
(-5.63077e-15 -0.231141 -1.69307)
(-6.41528e-15 0.125404 -1.51357)
(1.95164e-15 1.23808 2.28004)
(-2.11074e-16 -2.90639 2.74602)
(-4.85311e-16 -1.57247 2.02494)
(-2.17647e-15 2.36498 3.41278)
(-6.54367e-15 2.09678 4.34862)
(-8.4046e-15 1.64482 4.90993)
(-7.96833e-15 1.62082 5.68246)
(-6.95057e-15 2.08169 6.32696)
(-5.7603e-15 2.99057 6.609)
(-3.98726e-15 3.82779 6.17592)
(-1.8601e-15 3.06838 4.70213)
(-9.26324e-16 -1.39734 1.08153)
(-2.10721e-15 -5.25334 -0.814484)
(-3.28409e-15 -4.84521 -0.426877)
(-4.03162e-15 -2.8553 -1.08796)
(-4.5794e-15 -1.30536 -1.76888)
(-4.89763e-15 -0.179044 -2.43711)
(-5.3141e-15 -0.208983 -2.09507)
(-6.36934e-15 0.232755 -1.75937)
(2.05018e-15 1.10817 2.47517)
(4.11041e-17 -2.85119 3.36878)
(-1.10904e-15 -1.69045 2.48552)
(-6.23544e-15 1.8496 4.00749)
(-1.11755e-14 1.7338 4.95035)
(-1.03884e-14 1.29542 5.87459)
(-8.41886e-15 1.25564 7.13442)
(-7.01219e-15 1.82678 8.25423)
(-5.77537e-15 2.96284 8.93098)
(-4.01897e-15 4.22338 8.71111)
(-2.25606e-15 4.20355 7.06559)
(-1.42056e-15 -0.0458148 3.21361)
(-1.67822e-15 -4.83988 0.0218816)
(-3.15423e-15 -4.73253 0.500473)
(-3.94023e-15 -2.4798 -0.654613)
(-4.39258e-15 -0.982598 -1.78937)
(-4.6423e-15 -0.187326 -2.71905)
(-4.98396e-15 -0.644465 -2.32782)
(-6.07785e-15 -0.446781 -2.09279)
(1.61519e-15 0.74178 2.9104)
(1.22567e-16 -2.8561 4.0341)
(-2.33697e-15 -1.79926 3.10948)
(-1.06998e-14 1.36366 4.63554)
(-1.38277e-14 1.31465 5.76933)
(-1.02251e-14 0.765993 7.15296)
(-7.62884e-15 0.677731 8.83759)
(-6.13664e-15 1.38182 10.1933)
(-4.93507e-15 2.81268 10.8037)
(-3.54431e-15 4.61228 10.21)
(-2.84412e-15 5.33053 8.1501)
(-2.25986e-15 1.39792 4.85074)
(-1.54951e-15 -4.22912 1.48685)
(-3.02348e-15 -4.50435 1.59346)
(-3.83838e-15 -1.91435 0.0217455)
(-4.35179e-15 -0.480309 -1.74105)
(-4.57078e-15 0.101372 -3.06845)
(-4.73621e-15 -0.298162 -2.66845)
(-5.56922e-15 0.0444995 -2.24613)
(7.82892e-16 0.417124 3.5744)
(-1.89312e-16 -2.86766 4.71131)
(-4.19411e-15 -1.90896 3.82546)
(-1.44277e-14 0.806122 5.35034)
(-1.41131e-14 0.718874 6.76936)
(-8.91257e-15 0.0814894 8.47874)
(-6.44068e-15 0.0515485 10.1975)
(-4.93519e-15 1.04605 11.1)
(-3.56464e-15 2.95493 10.6855)
(-2.47422e-15 5.29353 9.10227)
(-2.5197e-15 6.39306 7.08971)
(-2.88995e-15 2.59679 5.64598)
(-1.83246e-15 -3.6053 3.33319)
(-2.82534e-15 -4.07372 2.72804)
(-4.06604e-15 -1.0877 0.942174)
(-5.18229e-15 0.184193 -1.55979)
(-6.08165e-15 0.0149525 -2.92924)
(-5.48575e-15 -1.36477 -2.245)
(-6.06697e-15 -0.983917 -3.25319)
(-1.88137e-16 0.0376883 4.2525)
(-1.17846e-15 -2.87945 5.32946)
(-6.63999e-15 -2.03371 4.50814)
(-1.62468e-14 0.198559 6.02475)
(-1.32064e-14 0.0467925 7.53338)
(-7.82432e-15 -0.58648 9.06505)
(-5.24881e-15 -0.355898 10.1893)
(-3.31725e-15 1.19169 9.80987)
(-1.41013e-15 3.61407 7.99661)
(-3.22666e-16 6.05497 5.97299)
(-1.20113e-15 6.79286 4.90651)
(-3.35886e-15 2.85207 5.90356)
(-2.77487e-15 -3.1314 5.40931)
(-3.29802e-15 -3.5075 3.97923)
(-4.99527e-15 -0.0461452 2.00455)
(-3.41691e-15 1.17465 0.153571)
(-3.28946e-15 0.67392 -0.695817)
(-4.96599e-15 0.49966 -1.93693)
(-7.0286e-15 0.790545 -3.40962)
(-1.27605e-15 -0.293944 4.80519)
(-2.83585e-15 -2.88153 5.78301)
(-9.20315e-15 -2.16554 4.9772)
(-1.70743e-14 -0.385302 6.22376)
(-1.28411e-14 -0.497076 7.47142)
(-7.53445e-15 -0.969108 8.47309)
(-4.44228e-15 -0.269114 8.58425)
(-1.44003e-15 1.87856 6.97092)
(1.05721e-15 4.44004 5.02672)
(1.46729e-15 6.50282 3.99108)
(-3.74563e-16 6.50485 4.042)
(-3.80329e-15 2.24347 6.21366)
(-4.36591e-15 -2.87966 6.8562)
(-3.55197e-15 -2.59228 4.99213)
(-2.71726e-15 0.669431 4.54315)
(-1.09574e-15 1.13349 6.26279)
(-1.78876e-15 0.554362 6.33976)
(-1.95704e-15 -1.23049 6.6927)
(-2.98188e-16 -5.64771 10.0495)
(-2.38499e-15 -0.596453 5.09656)
(-4.86496e-15 -2.85654 5.97981)
(-1.19875e-14 -2.21 5.00624)
(-1.91004e-14 -0.802247 5.64073)
(-1.45111e-14 -0.840561 6.54634)
(-7.86619e-15 -1.04226 7.1359)
(-3.30264e-15 0.211282 6.382)
(1.03774e-15 2.58713 4.53406)
(3.03828e-15 4.81412 3.59387)
(2.06577e-15 6.45719 3.81157)
(-5.00427e-17 5.99752 4.69072)
(-3.63061e-15 1.65544 6.767)
(-5.59322e-15 -2.72418 7.12862)
(-3.39623e-15 -2.64357 6.76019)
(-4.79647e-16 -0.717073 10.7077)
(1.22597e-15 0.304171 13.8621)
(1.34042e-15 0.396644 13.8013)
(1.58729e-15 -1.00618 13.4377)
(2.43256e-15 -3.31745 12.6)
(-3.49611e-15 -0.853937 5.03364)
(-7.26782e-15 -2.76046 5.75119)
(-1.42353e-14 -2.05876 4.56541)
(-2.02743e-14 -1.01134 4.7118)
(-1.57892e-14 -1.06427 5.36007)
(-7.5868e-15 -0.928162 5.56335)
(4.20737e-16 0.77257 4.30279)
(4.99034e-15 2.99013 2.97124)
(4.4699e-15 4.73155 3.06799)
(1.99375e-15 6.07062 4.04063)
(5.37559e-16 5.38276 5.66417)
(-1.98892e-15 1.20944 7.95372)
(-5.51216e-15 -2.91894 8.22358)
(-3.19077e-15 -3.69272 9.18771)
(5.62375e-16 -1.99183 12.7769)
(3.29316e-15 0.0630511 13.3925)
(3.1689e-15 0.565813 12.0658)
(4.06269e-15 -0.785233 10.1207)
(4.62558e-15 -2.61946 6.45236)
(-3.30429e-15 -1.05652 4.82108)
(-8.75597e-15 -2.59561 5.12508)
(-1.31004e-14 -1.82216 4.14696)
(-1.54927e-14 -1.12434 4.40216)
(-1.11598e-14 -1.15038 4.64535)
(-3.32511e-15 -0.654884 4.13844)
(5.47892e-15 1.21932 2.65374)
(8.04064e-15 3.08498 2.04239)
(4.88994e-15 4.38111 2.77584)
(1.54901e-15 5.42569 4.19671)
(7.87085e-16 4.46505 6.5587)
(-2.11628e-16 0.540341 9.59431)
(-2.82469e-15 -3.27574 10.5093)
(-1.50972e-15 -4.49909 11.7122)
(4.43974e-16 -2.54468 13.9221)
(-9.31652e-16 0.542413 14.0121)
(-9.37685e-16 1.75829 12.9453)
(3.6009e-15 2.06398 10.8214)
(1.90918e-14 2.94685 6.5004)
(-2.4379e-15 -1.11466 5.32431)
(-7.4704e-15 -2.41449 5.35399)
(-7.42998e-15 -1.80475 5.44715)
(-5.61244e-15 -1.22215 6.00477)
(-2.08146e-15 -0.94442 4.94213)
(3.42772e-15 -0.14919 2.97762)
(8.69018e-15 1.55885 1.35483)
(7.54725e-15 2.95821 1.38684)
(3.73087e-15 3.86106 2.43212)
(6.28978e-16 4.56423 4.08539)
(6.80085e-16 3.25375 6.96287)
(1.63038e-15 -0.419173 10.6455)
(5.24839e-17 -3.79474 12.1538)
(-2.5075e-16 -4.97112 13.2398)
(-8.92266e-16 -2.77227 13.5059)
(-2.73918e-15 0.571437 11.5559)
(-3.12631e-15 1.67045 11.0244)
(-4.30006e-15 2.05003 12.544)
(-3.85526e-15 3.52598 12.3744)
(-2.88111e-16 -1.21995 7.24577)
(-2.46354e-15 -2.58531 7.93903)
(3.28748e-16 -2.10429 8.72554)
(2.70128e-15 -0.927613 8.02618)
(3.08731e-15 0.102911 4.53239)
(3.59965e-15 0.815317 1.42512)
(3.2199e-15 1.82408 0.291996)
(2.18477e-15 2.68525 0.885354)
(7.76613e-16 3.28499 2.02919)
(-5.27811e-16 3.61366 3.6194)
(2.3329e-16 1.86847 6.60708)
(2.30675e-15 -1.54194 10.6809)
(1.06828e-15 -4.37625 12.4657)
(-1.04685e-17 -4.9813 12.8801)
(-6.1815e-16 -1.97506 10.1097)
(2.76106e-16 1.45741 4.60809)
(1.72015e-16 1.09531 3.3703)
(-1.63243e-15 1.45798 5.95138)
(-3.12916e-15 5.88484 10.3947)
(2.9136e-15 -1.53628 9.41978)
(2.07685e-15 -2.92273 10.672)
(2.21633e-15 -1.82636 10.2594)
(-1.22777e-15 0.487404 7.01131)
(-4.30493e-15 1.73975 2.80036)
(-4.92191e-15 1.50606 0.592961)
(-5.875e-15 1.74893 -0.0971068)
(-5.27722e-15 2.2812 0.703771)
(-3.4174e-15 2.74869 1.74617)
(-2.38874e-15 2.74524 3.03393)
(-7.18099e-16 0.482259 5.62521)
(1.78348e-15 -2.69981 9.46859)
(8.47508e-16 -4.73721 11.3387)
(-7.95552e-17 -4.08836 10.8337)
(-4.1128e-17 0.320373 6.56872)
(6.58454e-16 3.09532 2.84659)
(4.80454e-16 1.67672 1.78774)
(3.44203e-16 -0.619995 -0.967119)
(8.9398e-16 -0.682641 -1.00183)
(4.8206e-15 -1.82679 10.3072)
(3.09124e-15 -2.8821 11.3908)
(1.4356e-16 -0.712633 9.39028)
(-2.90895e-15 2.06622 5.55364)
(-2.73408e-15 2.75733 2.86919)
(-3.91061e-15 1.96869 1.32919)
(-6.54647e-15 1.7668 0.438569)
(-7.96607e-15 1.97548 0.836504)
(-6.40142e-15 2.3326 1.5939)
(-4.51827e-15 2.06844 2.59288)
(-1.90227e-15 -0.66126 4.47205)
(7.50348e-16 -3.74814 7.32074)
(1.77415e-16 -4.9072 9.09901)
(-1.76531e-16 -3.0377 7.91469)
(2.48886e-16 1.49487 3.71254)
(1.75261e-16 3.48396 1.94438)
(1.38439e-16 2.45159 1.39686)
(-3.94285e-17 1.74993 -0.25074)
(4.48499e-16 1.23083 -2.92268)
(4.95649e-15 -2.02555 9.83703)
(2.78052e-15 -2.52121 10.4719)
(-2.45028e-16 0.509875 7.61197)
(-6.01763e-16 3.12375 4.51844)
(-1.68466e-16 3.4426 2.82681)
(-1.86198e-15 2.44115 1.57197)
(-4.02809e-15 1.91981 0.654075)
(-6.19625e-15 1.81994 0.792093)
(-6.59406e-15 2.00613 1.39121)
(-5.60701e-15 1.56656 2.27577)
(-2.98123e-15 -1.37124 3.37346)
(-2.77618e-16 -4.50615 4.77103)
(-3.87482e-16 -4.98739 6.38773)
(-6.38846e-16 -1.97974 5.09527)
(-6.21837e-16 2.45232 1.71723)
(-2.15731e-16 4.01366 0.78361)
(-8.84977e-17 2.77611 0.205057)
(-6.12878e-17 1.71281 -0.929783)
(-1.22466e-16 1.09502 -1.74482)
(4.1894e-15 -2.09662 8.63192)
(2.79011e-15 -2.00122 9.0095)
(4.16635e-16 1.63806 6.01482)
(8.68642e-16 3.97074 3.70536)
(3.67743e-16 3.95503 2.66836)
(-1.50071e-15 2.84677 1.5879)
(-3.24472e-15 2.08678 0.770342)
(-4.94057e-15 1.71344 0.670578)
(-5.6162e-15 1.71678 1.08437)
(-5.27709e-15 1.23032 1.82875)
(-3.54309e-15 -1.61862 2.36774)
(-1.13673e-15 -4.90705 2.41594)
(-6.9858e-16 -5.08625 3.63133)
(-1.00381e-15 -1.14747 2.67096)
(-8.16083e-16 3.12701 -0.12335)
(-2.93142e-16 4.2033 -0.27023)
(-9.33222e-17 3.10868 -0.624595)
(-9.27107e-17 2.21248 -1.23403)
(-1.40317e-16 1.55247 -1.75524)
(2.86885e-15 -2.19197 7.20973)
(2.97556e-15 -1.4576 7.51497)
(1.66125e-15 2.56111 4.8242)
(1.96191e-15 4.50156 3.23194)
(7.19963e-16 4.2959 2.57019)
(-1.21729e-15 3.18734 1.6323)
(-2.86872e-15 2.26867 0.941874)
(-4.11195e-15 1.70814 0.661511)
(-4.54748e-15 1.53621 0.768209)
(-4.70416e-15 1.02651 1.161)
(-3.55219e-15 -1.59386 1.45362)
(-1.86103e-15 -4.93061 0.800078)
(-8.19101e-16 -5.14046 1.02031)
(-1.18725e-15 -0.31837 0.629325)
(-6.28007e-16 3.56515 -1.48567)
(-2.28941e-16 4.30426 -1.27733)
(-1.18937e-16 3.22485 -1.32888)
(-1.10351e-16 2.24297 -1.59135)
(-1.31381e-16 1.48957 -1.76465)
(1.55972e-15 -2.23034 5.88295)
(3.19238e-15 -1.06717 6.24786)
(2.83909e-15 3.34628 3.91319)
(2.52029e-15 4.88604 3.0309)
(9.66639e-16 4.56715 2.48002)
(-1.00986e-15 3.46179 1.71825)
(-2.61072e-15 2.43604 1.09645)
(-3.70392e-15 1.76509 0.691269)
(-4.10728e-15 1.47916 0.528834)
(-4.48637e-15 0.92075 0.495452)
(-3.68535e-15 -1.43888 0.58394)
(-2.2353e-15 -4.67523 0.0430583)
(-1.04796e-15 -5.12961 -0.930808)
(-1.084e-15 -0.378818 -1.50438)
(-5.44262e-16 3.77342 -2.32131)
(-2.09472e-16 4.29066 -1.96327)
(-1.19992e-16 3.2422 -1.81285)
(-1.12566e-16 2.30955 -1.81274)
(-1.54736e-16 1.51812 -1.85669)
(7.82139e-16 -2.3649 4.52706)
(3.0849e-15 -0.579636 4.75648)
(3.35725e-15 3.83716 3.46553)
(2.69331e-15 5.1768 2.93217)
(1.13921e-15 4.90671 2.43052)
(-8.59312e-16 3.83458 1.80971)
(-2.41042e-15 2.76419 1.19312)
(-3.41416e-15 2.01365 0.701065)
(-3.81241e-15 1.65007 0.376027)
(-4.35624e-15 1.05904 0.148094)
(-3.6404e-15 -1.40932 -0.0186616)
(-2.22402e-15 -4.17484 -0.388236)
(-1.3456e-15 -4.47751 -1.63263)
(-1.02831e-15 0.145649 -2.44663)
(-4.94638e-16 3.64017 -2.64989)
(-1.95878e-16 4.10889 -2.33821)
(-1.17194e-16 3.14077 -2.07576)
(-1.13829e-16 2.25779 -1.93551)
(-1.46089e-16 1.46439 -1.9014)
(1.70295e-16 13.0519 21.9758)
(-3.76928e-15 18.7052 31.4881)
(-3.72177e-15 16.9928 27.1255)
(-4.16988e-15 14.4104 22.91)
(-4.34758e-15 13.283 20.3477)
(-5.73066e-15 13.7016 20.8026)
(-5.81258e-15 13.2229 19.4535)
(-5.81081e-15 12.0038 17.4157)
(-6.07559e-15 10.9636 15.5284)
(-6.47627e-15 10.1544 14.2928)
(-6.88045e-15 9.65831 13.4534)
(-7.31207e-15 9.12289 12.7727)
(-7.96264e-15 8.62373 11.9643)
(-8.81937e-15 7.87241 11.108)
(-1.01844e-14 7.18688 9.96158)
(-1.21536e-14 6.00205 8.65765)
(-1.45794e-14 5.19434 7.12816)
(-1.66297e-14 4.20165 6.70266)
(-1.33793e-14 5.94614 8.90885)
(-8.03896e-15 5.84881 10.7516)
(5.3864e-17 13.3928 22.6862)
(-3.49974e-15 17.3209 29.7438)
(-2.80417e-15 14.6688 24.845)
(-3.53462e-15 12.2841 21.094)
(-3.5519e-15 11.7227 19.8825)
(-5.16811e-15 12.4589 21.0583)
(-4.21428e-15 11.4712 19.1328)
(-4.45161e-15 9.93157 16.4646)
(-5.04815e-15 8.8719 14.5608)
(-5.47098e-15 8.20553 13.4862)
(-5.79712e-15 7.82819 12.6822)
(-6.22642e-15 7.27835 11.9126)
(-6.93112e-15 6.79965 10.8815)
(-7.69355e-15 6.00035 9.88794)
(-9.19304e-15 5.44824 8.6221)
(-1.11533e-14 4.33065 7.31245)
(-1.39766e-14 3.82733 5.80902)
(-1.51123e-14 3.24629 5.76423)
(-1.06527e-14 5.21245 8.01324)
(-7.23645e-15 4.67801 8.65805)
(3.2951e-17 13.9149 24.3162)
(-1.60544e-15 17.863 30.5516)
(-9.45629e-16 15.2701 26.2784)
(-1.4299e-15 12.9949 22.1323)
(-1.34124e-15 12.4424 21.2182)
(-2.74133e-15 13.1004 22.0313)
(-1.80621e-15 12.046 20.1829)
(-1.86795e-15 10.444 17.387)
(-2.10206e-15 9.30746 15.3366)
(-2.31254e-15 8.61963 14.1617)
(-2.52477e-15 8.17533 13.2139)
(-2.72184e-15 7.55932 12.3072)
(-3.13279e-15 6.99469 11.1439)
(-3.49376e-15 6.14996 10.028)
(-4.03867e-15 5.59241 8.80461)
(-5.02179e-15 4.60948 7.66315)
(-6.73089e-15 4.1355 6.27411)
(-7.69529e-15 3.49338 5.99575)
(-5.43238e-15 4.93555 7.48905)
(-3.61659e-15 4.1468 7.77871)
(8.22675e-18 13.9414 24.5978)
(3.92574e-16 17.8021 30.1736)
(2.40327e-16 15.0837 26.28)
(2.82178e-16 12.8784 21.8176)
(3.20123e-16 12.5125 21.5679)
(-1.61802e-15 13.3623 22.5545)
(-1.59185e-15 11.6675 19.7029)
(-1.79769e-15 9.97072 16.9224)
(-2.0308e-15 9.08358 15.224)
(-2.23156e-15 8.47544 14.2357)
(-2.38593e-15 8.00009 13.1374)
(-2.53918e-15 7.24444 12.0217)
(-3.09905e-15 6.57937 10.6377)
(-3.41368e-15 5.62323 9.33729)
(-3.99515e-15 4.98969 7.96814)
(-4.60658e-15 4.02644 6.9006)
(-5.93323e-15 3.64248 5.71316)
(-6.56279e-15 3.03492 5.50015)
(-4.85795e-15 4.21144 6.54313)
(-4.32138e-15 3.46206 6.68061)
(-1.50497e-18 14.1722 25.3716)
(-8.89353e-17 17.875 30.0186)
(-5.80637e-17 15.2151 26.8852)
(-6.62111e-17 13.1793 22.1758)
(-8.50076e-17 12.8143 22.2038)
(3.83328e-16 13.6927 23.2507)
(4.00032e-16 11.4049 19.3464)
(4.46049e-16 9.93869 17.107)
(4.96667e-16 9.42416 15.8245)
(5.41752e-16 8.75331 14.8889)
(5.80445e-16 8.21591 13.5635)
(6.30181e-16 7.28591 12.2498)
(7.34214e-16 6.56392 10.6901)
(8.35518e-16 5.50977 9.24889)
(1.00198e-15 4.79728 7.69273)
(1.23767e-15 3.78855 6.59944)
(1.58305e-15 3.50522 5.60449)
(1.8409e-15 2.84847 5.43731)
(1.24457e-15 3.8834 6.18436)
(7.54615e-16 3.60163 7.08464)
(2.46262e-19 14.2676 25.7831)
(2.06003e-17 17.8187 29.6387)
(1.4343e-17 15.3094 27.357)
(1.59312e-17 13.393 22.3114)
(2.22204e-17 12.936 22.4098)
(-9.17803e-17 13.7417 23.5036)
(-1.04353e-16 11.0746 18.6779)
(-1.12436e-16 9.89423 17.1892)
(-1.22804e-16 9.6433 16.0878)
(-1.32657e-16 8.78132 15.1018)
(-1.42257e-16 8.22901 13.5897)
(-1.54467e-16 7.15065 12.1684)
(-1.78599e-16 6.43186 10.4797)
(-2.06672e-16 5.26203 8.89174)
(-2.56375e-16 4.43591 7.01316)
(-3.26698e-16 3.23392 5.65592)
(-3.89063e-16 2.96267 4.62931)
(-4.3119e-16 2.33198 4.66804)
(-3.36937e-16 3.74544 6.04901)
(-2.15799e-16 4.13288 8.01701)
(-4.58306e-20 14.3864 26.2086)
(-4.87427e-18 17.8064 29.4037)
(-3.52741e-18 15.4218 27.915)
(-3.81539e-18 13.6298 22.5023)
(-5.58558e-18 13.0309 22.6388)
(2.207e-17 13.6877 23.7144)
(2.68749e-17 10.9837 18.3965)
(2.81552e-17 9.96836 17.4921)
(3.0351e-17 9.84403 16.372)
(3.25657e-17 8.82399 15.3233)
(3.50031e-17 8.31205 13.778)
(3.77635e-17 7.21646 12.3634)
(4.33044e-17 6.54432 10.7006)
(5.00771e-17 5.36589 9.05854)
(6.14532e-17 4.43208 6.88026)
(7.55432e-17 3.06574 5.18484)
(8.4601e-17 2.75493 3.92822)
(9.44596e-17 2.06387 3.94228)
(8.29511e-17 3.87636 5.86951)
(4.89863e-17 4.5995 8.80432)
(9.45234e-21 14.4099 26.3149)
(1.15018e-18 17.8486 29.3327)
(8.52036e-19 15.5006 28.3355)
(8.92993e-19 13.8831 22.65)
(1.37486e-18 13.0668 22.6888)
(-5.23988e-18 13.5406 23.7097)
(-6.78106e-18 11.141 18.4442)
(-6.92997e-18 10.0227 17.6476)
(-7.3802e-18 9.93091 16.4699)
(-7.9351e-18 8.89691 15.4051)
(-8.51028e-18 8.37611 13.9457)
(-9.14397e-18 7.36394 12.5273)
(-1.03098e-17 6.64693 10.9538)
(-1.17022e-17 5.57826 9.37042)
(-1.36965e-17 4.52947 7.09356)
(-1.57232e-17 3.10413 5.10773)
(-1.6869e-17 2.6242 3.54623)
(-1.98731e-17 1.87173 3.24103)
(-1.99317e-17 3.60054 5.05131)
(-1.34553e-17 4.13027 7.75479)
(-1.86925e-21 14.4535 26.2999)
(-2.69532e-19 18.0605 29.5924)
(-2.01928e-19 15.5365 28.6546)
(-2.04738e-19 14.2433 22.963)
(-3.41672e-19 13.1221 22.7341)
(1.23908e-18 13.3704 23.5912)
(1.66127e-18 11.447 18.7627)
(1.67148e-18 10.1734 17.8119)
(1.75015e-18 10.0303 16.6271)
(1.90064e-18 9.10871 15.4989)
(2.03355e-18 8.46945 14.1234)
(2.18163e-18 7.57188 12.6264)
(2.41721e-18 6.71728 11.0727)
(2.67416e-18 5.7763 9.52736)
(2.88084e-18 4.68835 7.44013)
(3.00116e-18 3.39924 5.43553)
(3.08433e-18 2.76971 3.84161)
(3.91875e-18 2.07881 3.24693)
(4.47876e-18 3.27917 4.44852)
(3.50873e-18 3.22604 5.87923)
(2.8558e-22 14.6295 26.3698)
(6.28163e-20 18.361 30.0511)
(4.73974e-20 15.5209 28.834)
(4.58851e-20 14.7337 23.5616)
(7.9801e-20 13.2565 22.8603)
(-2.79736e-19 13.2721 23.3431)
(-3.9345e-19 11.7849 19.3751)
(-3.89256e-19 10.5824 18.1358)
(-4.01114e-19 10.1798 16.9396)
(-4.43174e-19 9.44682 15.6373)
(-4.76978e-19 8.62777 14.3164)
(-5.12559e-19 7.84272 12.7189)
(-5.55842e-19 6.86062 11.1124)
(-5.87915e-19 5.96321 9.46829)
(-6.04678e-19 4.88903 7.56316)
(-6.43182e-19 3.75036 5.61256)
(-6.5982e-19 2.95931 3.98731)
(-7.00235e-19 2.27382 3.0448)
(-1.10559e-18 2.61824 3.32024)
(-1.60957e-18 1.97437 3.10689)
(-2.29025e-24 14.9579 26.7024)
(-1.45212e-20 18.5823 30.5204)
(-1.1262e-20 15.5471 28.7317)
(-1.03092e-20 15.2714 24.5715)
(-2.39306e-20 13.4504 23.2833)
(7.20901e-20 13.298 22.8206)
(9.33809e-20 12.0452 20.3043)
(9.07669e-20 11.2621 18.6763)
(9.17735e-20 10.328 17.4877)
(1.01609e-19 9.87421 15.9852)
(1.06783e-19 8.88445 14.7408)
(1.08228e-19 8.24171 13.1142)
(1.08002e-19 7.22222 11.5329)
(1.08851e-19 6.39279 9.83779)
(1.06095e-19 5.40068 8.06983)
(8.44871e-20 4.37757 6.19791)
(6.65622e-20 3.4736 4.46906)
(1.35061e-19 2.50458 3.06501)
(2.13663e-19 1.73634 1.76946)
(2.67558e-19 0.291491 0.170079)
(-1.35919e-23 15.2985 27.3051)
(3.39264e-21 18.549 30.7724)
(2.67837e-21 15.6395 27.9746)
(2.38303e-21 15.2994 25.4234)
(2.64201e-21 13.5244 23.9757)
(-9.90882e-21 13.3941 21.953)
(-2.04427e-20 11.7894 21.0127)
(-1.81768e-20 11.6097 19.0557)
(-1.72533e-20 10.1868 17.8446)
(-1.98238e-20 9.8855 16.2721)
(-2.4389e-20 8.75045 15.0612)
(-3.10856e-20 8.17222 13.4607)
(-3.88459e-20 7.08976 11.9629)
(-4.40875e-20 6.30571 10.3005)
(-4.04832e-20 5.25211 8.59119)
(-3.99198e-20 4.00577 6.41763)
(-1.03887e-19 2.49041 3.76769)
(-1.88513e-19 0.661698 1.40048)
(-2.48686e-20 -1.27224 -2.35049)
(1.78469e-19 -1.92138 -2.47923)
(8.60266e-24 15.6651 28.3812)
(-7.93039e-22 18.7917 30.5589)
(-6.52491e-22 15.5228 28.2286)
(-5.99317e-22 15.675 25.6312)
(-6.37534e-22 13.7086 24.2644)
(2.08049e-21 13.3941 22.052)
(3.87063e-21 11.9292 20.7295)
(4.01585e-21 11.5639 19.0559)
(4.55002e-21 10.3981 17.7756)
(5.03173e-21 9.93581 16.2784)
(3.85768e-21 8.92837 14.9221)
(2.35635e-23 8.23389 13.3641)
(-5.68407e-21 7.21087 11.8138)
(-1.14321e-20 6.29176 10.1032)
(-1.15217e-20 5.06366 8.16049)
(-1.06567e-20 3.48089 5.51566)
(-1.31413e-19 1.27598 1.72365)
(-5.33173e-19 -0.109528 -0.212415)
(-9.35294e-19 0.355748 0.575626)
(-1.41391e-18 1.22596 1.69408)
(-2.83108e-24 16.2171 29.9768)
(1.83467e-22 18.8188 30.0934)
(1.40253e-22 15.3851 28.4754)
(9.47324e-23 16.025 25.895)
(1.13075e-22 13.9127 24.8791)
(-3.5884e-22 13.7283 22.6578)
(-4.31153e-22 12.2824 21.2176)
(-1.42922e-22 11.9398 19.647)
(-7.55665e-23 11.0625 18.5606)
(-2.73757e-22 10.4745 17.0619)
(-9.14397e-22 9.59261 15.5297)
(-2.5016e-21 8.70037 13.8014)
(-5.12861e-21 7.60152 11.916)
(-7.86317e-21 6.36863 9.89726)
(-1.02237e-20 5.09012 7.85747)
(-6.07865e-21 3.71405 5.57257)
(-3.13825e-20 1.93761 2.51414)
(-1.24436e-19 0.685259 0.0220259)
(-2.88878e-19 -0.394322 -1.46538)
(-6.35417e-19 -0.822656 -2.54199)
(1.27568e-24 16.3728 31.0348)
(-4.5018e-23 18.4225 29.1719)
(-5.13998e-23 14.9658 28.4308)
(-6.39877e-23 15.8754 25.7741)
(-3.51276e-23 13.4164 24.9027)
(2.56383e-22 13.5693 22.904)
(6.3428e-22 12.0544 21.8165)
(9.6535e-22 11.6656 20.2579)
(9.51731e-22 10.6517 19.0201)
(-6.10193e-23 9.9636 17.607)
(-2.78914e-21 8.95279 16.0123)
(-7.54369e-21 7.74971 13.8878)
(-1.31369e-20 6.17718 11.2622)
(-1.45968e-20 4.69191 8.73124)
(-9.19028e-21 3.62557 6.8882)
(-5.24412e-21 2.5791 5.05219)
(-1.00203e-20 1.25119 2.72371)
(-3.07011e-20 -0.0591149 0.00379215)
(-1.3404e-19 -1.57367 -2.37678)
(-3.33926e-19 -2.00728 -4.44336)
(8.69202e-26 15.9539 30.9666)
(9.41364e-24 18.1828 28.4192)
(-2.01423e-24 14.5886 27.9899)
(-1.52526e-23 15.5789 25.2701)
(1.65632e-23 13.1617 24.3664)
(1.36506e-22 13.1076 22.3155)
(4.14275e-22 11.6598 21.1067)
(7.32179e-22 11.0764 19.5525)
(7.6157e-22 10.0813 18.2804)
(3.36918e-23 9.28474 16.8518)
(-2.0367e-21 8.27246 15.2889)
(-5.59491e-21 7.16732 13.3929)
(-8.85618e-21 6.00807 11.3378)
(-8.9098e-21 5.02852 9.40202)
(-7.04629e-21 4.1872 7.64062)
(-1.06246e-20 3.32208 5.84822)
(-2.53958e-20 2.41882 4.14701)
(-4.62377e-20 2.22734 3.33061)
(-9.85018e-20 -1.87074 -3.00976)
(-1.60336e-19 -2.09296 -4.05288)
(2.43014e-25 15.3081 30.7054)
(-3.13395e-24 18.255 27.9795)
(-9.38149e-24 14.1479 27.6376)
(-1.56888e-23 15.3435 24.8939)
(1.31472e-23 12.9899 23.9819)
(1.36063e-22 12.8878 22.0406)
(3.68248e-22 11.6204 20.7816)
(6.62204e-22 11.0242 19.2708)
(8.73938e-22 10.1695 17.9692)
(8.00233e-22 9.48352 16.6384)
(2.92854e-22 8.76115 15.3436)
(-5.88528e-22 8.09476 14.0249)
(-1.60424e-21 7.46526 12.6945)
(-2.76381e-21 6.83093 11.2751)
(-4.2983e-21 6.04643 9.59368)
(-6.88504e-21 4.90736 7.34293)
(-1.24454e-20 3.01558 4.03562)
(-2.90353e-20 2.02364 2.76552)
(-5.96557e-20 -1.86741 -2.87577)
(-5.37586e-20 -1.62041 -3.12116)
(1.40106e-25 14.2495 30.5957)
(2.5149e-25 18.0855 27.4826)
(-4.04412e-24 13.3878 27.4389)
(-7.56948e-24 14.4202 24.9892)
(1.57742e-23 12.2965 24.0391)
(1.07169e-22 11.8974 22.383)
(2.9462e-22 10.7935 21.1451)
(5.55101e-22 10.107 19.7944)
(8.0084e-22 9.33346 18.5692)
(9.09045e-22 8.68206 17.3587)
(7.73025e-22 8.04779 16.1861)
(3.52968e-22 7.44243 14.9849)
(-2.93684e-22 6.79914 13.6816)
(-1.04751e-21 6.0449 12.1443)
(-2.47084e-21 5.03471 10.1267)
(-8.58166e-21 3.31504 6.93374)
(-2.85189e-20 0.137103 1.11628)
(-5.51511e-20 -3.19716 -5.3099)
(-4.97691e-20 -2.62996 -3.89379)
(-2.68033e-20 -1.69276 -3.41992)
(4.48966e-26 11.297 28.5608)
(-1.79419e-25 17.0053 25.0077)
(-1.71296e-24 12.0163 25.422)
(-3.83888e-24 12.6828 23.698)
(5.20272e-24 10.9395 22.9514)
(4.95584e-23 10.2831 21.856)
(1.54655e-22 9.29326 20.9371)
(3.29968e-22 8.52677 19.9853)
(5.53025e-22 7.76535 19.0767)
(7.67871e-22 7.08556 18.1773)
(8.99849e-22 6.44494 17.2821)
(8.9644e-22 5.83631 16.3564)
(7.47982e-22 5.22952 15.3541)
(2.94335e-22 4.59165 14.1898)
(-1.36337e-21 3.85051 12.7028)
(-6.30057e-21 2.87263 10.6466)
(-1.63328e-20 1.65419 7.70229)
(-2.8392e-20 0.437791 3.87544)
(-3.06087e-20 -0.526983 0.420279)
(-1.58319e-20 -1.21984 -2.21113)
(2.25615e-26 2.65555 17.0508)
(3.80396e-26 8.06381 13.6841)
(-1.76055e-25 5.17633 14.5558)
(-8.08907e-25 4.997 14.1592)
(-1.13407e-24 4.07047 14.1247)
(2.17613e-24 3.50729 13.9541)
(1.61595e-23 2.93228 13.8009)
(5.10232e-23 2.46171 13.6127)
(1.16618e-22 2.05045 13.4014)
(2.15134e-22 1.71005 13.1614)
(3.32394e-22 1.43823 12.8976)
(4.36211e-22 1.24159 12.617)
(4.97872e-22 1.12465 12.3278)
(5.48767e-22 1.10099 12.0309)
(7.30866e-22 1.19002 11.7158)
(1.20883e-21 1.35687 11.3801)
(1.86489e-21 1.62729 10.936)
(2.09851e-21 2.29909 10.022)
(1.387e-21 2.52788 8.60095)
(2.38968e-22 -0.207 6.49387)
(-9.69208e-27 -2.61973 16.9863)
(-2.27249e-26 -8.05719 13.6048)
(2.18225e-26 -5.17314 14.4763)
(7.13939e-26 -5.00987 14.0698)
(-2.13851e-26 -4.0892 14.0268)
(-2.81374e-25 -3.53353 13.8462)
(3.80356e-26 -2.9626 13.6829)
(2.99601e-24 -2.49774 13.4895)
(1.11526e-23 -2.0975 13.288)
(2.47851e-23 -1.77951 13.0863)
(3.91116e-23 -1.54436 12.8982)
(4.55118e-23 -1.39604 12.7251)
(3.66909e-23 -1.32968 12.5502)
(9.28393e-24 -1.34504 12.3326)
(-3.89342e-23 -1.4501 12.019)
(-1.07213e-22 -1.60839 11.5904)
(-1.78835e-22 -1.83932 11.0087)
(-2.14728e-22 -2.43994 10.0081)
(-1.73898e-22 -2.62227 8.57502)
(-5.66555e-23 0.223831 6.51185)
(-6.29304e-27 -11.2781 28.398)
(1.43194e-25 -16.8457 24.9229)
(2.99549e-25 -11.9146 25.3349)
(1.85019e-25 -12.5032 23.6581)
(-6.90152e-25 -10.7422 22.9444)
(-1.50532e-24 -10.0323 21.8883)
(8.67134e-25 -8.99232 21.0103)
(9.98462e-24 -8.16632 20.1044)
(2.5442e-23 -7.34277 19.2519)
(3.84447e-23 -6.59362 18.4108)
(3.58658e-23 -5.86664 17.5493)
(1.38529e-23 -5.13941 16.5819)
(-6.80521e-24 -4.37984 15.4092)
(3.49828e-23 -3.59682 13.9355)
(2.57668e-22 -2.84862 12.0859)
(8.15769e-22 -2.19344 9.88438)
(1.78239e-21 -1.63598 7.48514)
(3.01691e-21 -1.11486 4.84999)
(3.96603e-21 -0.393186 1.85317)
(2.74453e-21 0.204837 -0.259631)
(-8.68953e-27 -14.5103 30.9109)
(-2.31857e-25 -18.0794 27.967)
(-9.62263e-26 -13.5942 27.9036)
(-4.26797e-25 -14.4105 25.6306)
(-9.48852e-25 -12.3753 24.7243)
(3.83401e-25 -11.8833 23.2053)
(4.82386e-24 -10.7859 22.0575)
(1.64204e-23 -10.0602 20.8361)
(3.16759e-23 -9.27291 19.7352)
(3.36731e-23 -8.58452 18.6342)
(3.87929e-24 -7.85011 17.4559)
(-5.86561e-23 -6.97821 15.9602)
(-1.2155e-22 -5.74098 13.772)
(-5.21062e-23 -3.88 10.387)
(4.8216e-22 -1.38832 5.72537)
(1.79106e-21 0.997516 1.01714)
(3.66156e-21 2.43859 -2.15838)
(5.89516e-21 3.31992 -4.19547)
(8.60158e-21 4.01083 -5.29249)