/*--------------------------------*- C++ -*----------------------------------*\
| =========                 |                                                 |
| \\      /  F ield         | OpenFOAM: The Open Source CFD Toolbox           |
|  \\    /   O peration     | Version:  4.1                                   |
|   \\  /    A nd           | Web:      www.OpenFOAM.org                      |
|    \\/     M anipulation  |                                                 |
\*---------------------------------------------------------------------------*/
FoamFile
{
    version     2.0;
    format      ascii;
    class       volVectorField;
    location    "5";
    object      U;
}
// * * * * * * * * * * * * * * * * * * * * * * * * * * * * * * * * * * * * * //

dimensions      [0 1 -1 0 0 0 0];

internalField   nonuniform List<vector> 
1280
(
(1.37515e-17 8.9373 0.142751)
(-5.46259e-17 10.9721 -2.03906)
(6.10328e-17 10.5905 -1.77417)
(8.99913e-17 11.0385 -1.65831)
(8.99396e-17 13.7508 -4.3562)
(8.61071e-17 12.387 -3.51647)
(-1.02567e-17 14.072 -3.55319)
(2.67795e-16 13.5561 -3.37475)
(-6.39507e-16 17.2027 -6.53241)
(-1.18706e-15 15.9446 -5.05641)
(-1.68144e-15 17.1848 -4.70769)
(4.47676e-16 20.7851 -8.92293)
(1.65073e-15 19.3731 -7.15246)
(1.67549e-15 21.1122 -6.77105)
(3.83882e-15 25.5256 -11.5499)
(4.43989e-15 23.3887 -8.78255)
(4.83684e-15 26.3247 -8.28181)
(5.72102e-15 25.9689 -13.4631)
(3.22015e-15 31.9902 -10.1938)
(2.30193e-15 24.0118 -15.613)
(-1.46748e-14 30.283 36.5915)
(-2.81498e-14 31.3134 51.7462)
(-3.69525e-14 33.3703 58.3715)
(-4.40017e-14 35.4088 62.941)
(-4.96404e-14 36.0382 67.4909)
(-5.39548e-14 37.9201 71.9698)
(-5.56819e-14 37.1564 62.4745)
(-6.18743e-14 62.8427 114.052)
(-6.26833e-14 64.4356 122.371)
(-6.25225e-14 65.8527 129.815)
(-6.28822e-14 66.5409 136.165)
(-6.38689e-14 66.9938 141.63)
(-6.46966e-14 67.1691 146.366)
(-6.52445e-14 67.1142 150.349)
(-6.68036e-14 66.9524 153.623)
(-6.80547e-14 66.499 156.141)
(-7.07891e-14 66.2947 158.056)
(-7.07291e-14 65.3864 159.021)
(-7.16881e-14 65.6335 160.68)
(-7.48475e-14 64.2187 157.71)
(-7.55476e-14 78.0332 154.362)
(-5.01776e-14 37.6692 96.3128)
(-5.2477e-14 25.5578 90.074)
(-5.22127e-14 16.8011 77.8254)
(-4.27633e-14 4.62166 40.7965)
(-9.21368e-15 -0.842334 4.17817)
(-3.2905e-16 -1.46935 -6.34684)
(3.81563e-15 0.467039 -12.9524)
(4.37154e-15 -0.56465 -28.1085)
(1.01237e-15 -1.38034 -17.477)
(-6.62807e-15 0.903056 -17.1625)
(-1.65263e-14 0.171359 -26.4723)
(-8.21768e-15 -0.784541 -11.9108)
(-3.27656e-15 0.992801 -5.73787)
(5.61055e-15 0.407429 4.02359)
(3.50638e-14 -4.81915 36.7649)
(4.40083e-14 -15.5444 72.6359)
(4.70693e-14 -23.9502 87.6107)
(4.47809e-14 -35.8487 95.5695)
(6.76633e-14 -77.0925 154.718)
(7.20732e-14 -63.2498 159.573)
(7.02771e-14 -64.5506 162.667)
(6.9974e-14 -64.1858 160.951)
(6.93538e-14 -65.0427 159.885)
(6.63268e-14 -65.1195 157.957)
(6.41962e-14 -65.5157 155.418)
(6.24638e-14 -65.5554 152.179)
(6.05871e-14 -65.5336 148.25)
(5.80358e-14 -65.2494 143.589)
(5.55027e-14 -64.7224 138.112)
(5.35536e-14 -63.9332 131.875)
(5.07976e-14 -62.5766 124.683)
(4.69438e-14 -60.8322 116.359)
(2.65588e-14 -32.0895 60.2343)
(3.1671e-14 -34.1569 70.7987)
(2.6152e-14 -32.2475 65.1621)
(1.93697e-14 -32.0595 58.8575)
(1.32844e-14 -30.7429 52.1847)
(8.79852e-15 -29.0462 44.7278)
(2.56377e-15 -28.5066 32.7885)
(6.69921e-16 -21.046 -16.3497)
(2.5254e-15 -30.0106 -12.4588)
(4.61796e-15 -20.5132 -16.272)
(3.81464e-15 -22.0843 -8.45265)
(3.21451e-15 -18.8593 -9.72494)
(2.96641e-15 -20.1837 -12.2601)
(2.26061e-15 -16.2415 -7.07992)
(1.91105e-15 -14.6433 -7.66049)
(1.93543e-15 -14.7605 -9.50454)
(1.34531e-15 -11.7726 -4.72451)
(1.0702e-15 -10.7455 -5.16778)
(1.90549e-16 -10.7424 -6.59925)
(-8.88833e-16 -8.21434 -3.33818)
(-7.38386e-16 -8.27676 -3.64017)
(-6.76044e-16 -7.16234 -3.69155)
(-8.32002e-16 -7.10077 -4.68834)
(-7.85518e-16 -5.43845 -1.77365)
(-8.24584e-16 -5.11905 -2.00426)
(-6.90363e-16 -4.40787 -2.36397)
(2.22139e-16 -3.40498 0.12748)
(-1.75631e-15 8.88587 13.9148)
(-2.60666e-15 12.1335 15.8577)
(-2.29279e-15 13.0296 17.9647)
(-1.2613e-15 14.7196 21.8205)
(-5.52598e-16 16.7749 28.3735)
(-1.69013e-15 19.9146 38.8717)
(-4.53779e-15 21.6114 51.7697)
(-6.67782e-15 15.9126 59.0373)
(-5.2998e-15 1.01001 48.2381)
(-2.49491e-15 -10.9315 29.9633)
(-1.50372e-15 -16.1802 21.5242)
(-9.85266e-16 -21.2247 15.8124)
(-5.28565e-16 -24.9848 10.5492)
(-2.19782e-16 -23.8008 5.53347)
(-7.71663e-17 -22.5817 0.920627)
(-3.9458e-17 -20.7243 -3.00437)
(-2.00966e-17 -16.0503 -6.50062)
(-5.1271e-18 -12.1337 -6.80772)
(1.26591e-16 -3.04857 -7.91617)
(-4.21913e-15 8.21394 17.4904)
(-5.29861e-15 10.7815 19.922)
(-4.04668e-15 10.9444 22.8163)
(-2.12951e-15 11.0212 28.5997)
(-1.67598e-15 10.6561 38.2943)
(-4.26177e-15 11.5943 52.625)
(-8.47093e-15 14.5087 69.0344)
(-1.12449e-14 16.7994 79.7449)
(-9.7088e-15 11.9875 70.9635)
(-4.02796e-15 -1.59936 38.7165)
(-5.45894e-16 -12.3803 15.4191)
(-7.91315e-16 -18.564 14.0492)
(-6.04359e-16 -22.0583 11.4648)
(-2.08772e-16 -20.8444 6.36162)
(-7.25484e-17 -19.6856 1.24229)
(-3.81137e-17 -18.1129 -3.58627)
(-2.77222e-17 -14.8924 -7.76335)
(-2.31654e-17 -11.961 -7.96799)
(1.58948e-16 -4.83068 -8.85335)
(-6.68206e-15 7.77938 19.8125)
(-7.19955e-15 9.88277 22.6846)
(-4.7411e-15 9.31847 26.3282)
(-2.385e-15 8.2442 33.4853)
(-2.62438e-15 6.74418 44.29)
(-5.85086e-15 6.991 57.9062)
(-9.76217e-15 10.1356 71.6676)
(-1.23943e-14 15.0595 82.5782)
(-1.25606e-14 17.7982 84.1394)
(-9.1009e-15 12.1392 65.2719)
(-2.79639e-15 -4.9522 26.0397)
(7.68884e-17 -18.6535 7.1849)
(-4.96017e-16 -21.1883 11.7131)
(-2.55428e-16 -18.7273 8.38744)
(-6.41565e-17 -17.8103 2.16243)
(-4.29326e-17 -16.2992 -4.28783)
(-5.53131e-18 -13.7716 -9.56082)
(1.10957e-18 -11.1679 -9.64017)
(1.01422e-16 -4.29419 -10.0814)
(-9.74027e-15 7.01991 22.6112)
(-8.92234e-15 8.3442 26.2429)
(-5.02505e-15 6.67908 30.7259)
(-2.54183e-15 3.97948 38.7513)
(-3.54831e-15 1.12265 49.0328)
(-6.7035e-15 1.1343 59.2587)
(-9.22732e-15 5.23814 66.7856)
(-1.03987e-14 12.0568 71.9341)
(-1.06212e-14 18.8567 74.8504)
(-9.61056e-15 21.2073 71.1318)
(-6.06858e-15 11.1719 50.2561)
(-7.09904e-16 -13.9141 12.0856)
(8.84337e-17 -22.6202 6.41076)
(-2.43539e-16 -17.3035 9.99427)
(-8.39145e-17 -14.999 4.02761)
(-3.04812e-17 -13.6859 -4.39177)
(-8.83687e-17 -13.5974 -11.1112)
(-7.7158e-17 -12.799 -11.4799)
(-4.35846e-16 -7.2168 -12.7854)
(-1.29276e-14 6.17343 25.7445)
(-9.91509e-15 6.70905 30.1687)
(-4.68345e-15 4.22851 34.9927)
(-2.27827e-15 0.961815 42.0554)
(-3.36246e-15 -1.51529 48.4235)
(-5.66365e-15 -0.433485 53.6027)
(-6.94798e-15 4.63531 56.3336)
(-7.11773e-15 11.5079 56.8799)
(-7.18593e-15 18.1305 57.0632)
(-7.30554e-15 22.1597 58.7253)
(-5.64193e-15 19.3268 57.438)
(-5.52587e-16 -1.91003 37.0179)
(1.24504e-16 -20.1062 8.82257)
(-2.81139e-16 -17.9568 9.78975)
(2.84585e-17 -12.0175 6.24545)
(7.63718e-17 -9.98328 -4.2197)
(2.49667e-16 -9.98678 -12.9551)
(2.52043e-16 -8.87866 -13.846)
(-2.89829e-16 -2.727 -13.678)
(-1.58632e-14 5.08687 29.2173)
(-1.00769e-14 4.79663 34.1583)
(-3.86527e-15 1.81083 38.4529)
(-1.71551e-15 -1.41813 44.0982)
(-2.74129e-15 -3.47224 48.4889)
(-4.53135e-15 -1.91201 51.8638)
(-5.25644e-15 4.17755 52.0046)
(-5.20619e-15 11.8097 48.9311)
(-6.02278e-15 17.9276 47.2375)
(-7.0563e-15 20.9015 51.5263)
(-4.57911e-15 19.7541 58.2547)
(4.60676e-15 6.18057 59.169)
(6.66948e-15 -12.288 37.1932)
(5.148e-15 -15.7227 22.1717)
(5.57338e-15 -9.67789 14.8972)
(6.3668e-15 -5.7132 3.28409)
(-1.16454e-15 -12.38 -15.2059)
(-4.79615e-16 -16.577 -14.7952)
(-2.07714e-15 -11.6831 -24.224)
(-1.83243e-14 3.96367 32.8506)
(-9.77011e-15 3.19396 37.7058)
(-3.0292e-15 0.168578 40.1607)
(-1.16192e-15 -2.92734 43.3997)
(-1.99744e-15 -4.61099 46.3579)
(-3.12916e-15 -1.89812 47.7198)
(-3.33548e-15 5.78877 44.1891)
(-4.27159e-15 13.3762 40.2138)
(-7.23643e-15 17.4162 42.2155)
(-8.36125e-15 18.2382 51.8517)
(-1.52564e-15 16.4979 64.8976)
(1.69099e-14 5.61545 79.5561)
(2.52089e-14 -5.12997 68.683)
(2.60597e-14 -9.03984 52.0891)
(2.93579e-14 -4.24905 40.5222)
(3.4177e-14 2.9068 31.6866)
(2.55987e-14 3.41252 13.5848)
(6.07642e-16 4.22945 -20.6341)
(-4.32064e-15 4.28162 -14.6896)
(-2.02119e-14 2.89881 36.0861)
(-9.67777e-15 2.08693 40.6862)
(-2.83138e-15 -0.645735 41.8988)
(-1.269e-15 -3.88479 42.7824)
(-1.67111e-15 -5.26221 42.7265)
(-1.9574e-15 -1.1476 41.0543)
(-2.92462e-15 7.04323 38.0383)
(-6.84102e-15 12.4409 40.6918)
(-1.16349e-14 12.9867 51.4858)
(-8.88269e-15 11.1573 68.0765)
(7.2511e-15 8.7313 85.3502)
(3.03499e-14 4.95151 95.1004)
(4.79972e-14 -1.28855 93.7018)
(5.6643e-14 -4.2144 86.578)
(6.47008e-14 -1.48339 82.601)
(7.01863e-14 3.45508 86.364)
(6.75792e-14 0.6556 93.2276)
(5.96652e-14 -17.0863 100.509)
(6.12138e-14 -51.5463 124.48)
(-2.05344e-14 1.76082 37.9855)
(-9.84563e-15 0.996608 40.7633)
(-1.70794e-15 -0.78234 40.7345)
(1.28607e-15 -3.06456 40.4513)
(7.76185e-16 -3.91009 38.5322)
(-1.11316e-15 -0.00506205 36.8007)
(-5.10847e-15 5.94404 39.7756)
(-1.1619e-14 8.12154 50.3323)
(-1.59633e-14 6.6812 65.4332)
(-9.14369e-15 5.16974 80.5001)
(1.03056e-14 4.62927 93.509)
(3.51208e-14 1.87455 103.63)
(5.49774e-14 -2.13736 108.147)
(6.41788e-14 -4.61801 106.865)
(6.62606e-14 -3.29513 104.343)
(6.41627e-14 0.522988 103.801)
(6.58056e-14 0.287785 105.974)
(6.71505e-14 -8.41825 103.309)
(6.01852e-14 -22.9719 86.5062)
(-1.36928e-14 1.53111 38.3295)
(-9.00664e-15 1.33541 37.2994)
(-7.03585e-15 -0.721118 32.508)
(-4.78603e-15 -3.18072 29.1949)
(-2.40659e-15 -3.89086 28.2744)
(-2.24194e-15 -1.59716 31.9081)
(-6.83713e-15 1.66917 42.5649)
(-1.34969e-14 2.19713 57.4477)
(-1.79134e-14 0.884548 71.3826)
(-1.37234e-14 0.236997 81.8154)
(-1.86122e-15 0.395439 90.186)
(1.1794e-14 -0.694106 98.1414)
(1.94688e-14 -2.60547 103.902)
(2.04386e-14 -3.14438 105.014)
(1.40456e-14 -1.05173 101.327)
(1.46562e-14 2.17237 95.7207)
(1.44685e-14 1.67869 87.1824)
(2.23115e-14 -3.80797 67.2934)
(2.13514e-14 -11.2053 31.2053)
(4.09926e-15 1.84628 39.6714)
(5.54338e-15 3.42541 40.4108)
(4.29195e-15 2.58406 35.6414)
(2.34286e-15 -0.858945 26.8447)
(2.9251e-16 -5.02781 18.637)
(-7.61176e-16 -6.01307 21.4696)
(-2.4829e-15 -4.42479 35.4066)
(-6.64516e-15 -3.40112 53.551)
(-8.86505e-15 -3.16773 68.3363)
(-8.65023e-15 -2.57611 78.5441)
(-9.2862e-15 -2.28544 86.6812)
(-1.42005e-14 -3.58106 95.1667)
(-2.34583e-14 -4.63772 102.813)
(-3.4997e-14 -3.31407 107.111)
(-4.50102e-14 0.870577 105.954)
(-5.00509e-14 6.33401 101.451)
(-5.1571e-14 9.85483 93.7238)
(-4.61628e-14 11.5353 72.9868)
(-3.32248e-14 14.1571 33.3214)
(9.32793e-16 0.928083 39.2328)
(3.54283e-16 3.19548 42.6754)
(5.47542e-16 4.39936 42.121)
(8.81984e-16 3.57658 38.1067)
(8.79789e-16 -1.67843 27.0437)
(1.84218e-16 -8.0597 19.4248)
(-9.78789e-16 -10.8754 25.7726)
(-2.1538e-15 -10.7206 41.7726)
(-2.02484e-15 -9.056 58.8587)
(-2.4209e-15 -6.95061 72.7673)
(-9.32041e-15 -6.11751 84.5211)
(-2.57551e-14 -7.30617 96.0288)
(-4.77864e-14 -7.55706 105.524)
(-7.02887e-14 -4.57654 110.861)
(-7.95991e-14 1.46507 108.439)
(-7.94659e-14 7.7906 104.608)
(-8.21408e-14 13.3673 107.564)
(-8.22723e-14 20.6227 109.053)
(-7.27918e-14 30.0427 92.812)
(1.39303e-15 0.0649356 37.8247)
(1.26249e-15 2.49404 42.9149)
(1.81822e-15 4.36896 44.5053)
(2.24678e-15 5.30778 45.2696)
(1.95775e-15 2.37854 40.4994)
(6.34336e-16 -5.74419 30.1706)
(-4.46817e-16 -13.314 25.635)
(-5.84097e-16 -16.625 32.3705)
(1.02945e-15 -15.6606 46.4181)
(2.29916e-15 -12.855 62.0028)
(-4.28415e-15 -11.5178 76.8675)
(-2.29036e-14 -11.9602 90.7642)
(-4.55167e-14 -10.224 98.0372)
(-5.90181e-14 -4.24791 93.2968)
(-5.51475e-14 3.12368 77.7307)
(-4.91986e-14 6.00047 64.7868)
(-5.21402e-14 6.40403 64.7353)
(-6.18451e-14 18.7049 84.6809)
(-7.41386e-14 53.1514 120.746)
(1.48585e-15 -1.4945 35.486)
(1.40169e-15 0.793745 42.6879)
(2.24045e-15 3.27189 46.3536)
(3.25929e-15 5.18723 49.9818)
(3.71779e-15 4.35573 50.3599)
(2.36422e-15 -2.39157 44.2169)
(3.21057e-16 -11.8373 35.1771)
(-3.37007e-16 -18.9271 31.9742)
(1.35542e-15 -20.8953 37.8333)
(4.14882e-15 -19.1124 50.6646)
(1.13328e-15 -17.5405 65.9496)
(-1.27517e-14 -16.0001 79.5563)
(-2.96081e-14 -8.83678 81.9952)
(-3.15414e-14 2.97681 65.9338)
(-2.08309e-14 12.6661 43.3185)
(-1.07595e-14 14.1773 23.5744)
(-4.09167e-15 8.73338 4.3893)
(2.92501e-15 -0.0198166 -14.12)
(-1.42625e-14 -0.317574 -8.16225)
(1.46506e-15 -3.26273 32.0007)
(1.47993e-15 -1.56997 40.2618)
(2.59926e-15 1.37826 46.6097)
(4.20354e-15 3.86044 53.2745)
(5.65457e-15 4.6415 57.9225)
(5.46868e-15 0.442223 57.2683)
(3.22105e-15 -8.42578 49.5136)
(1.34524e-15 -17.636 41.2487)
(1.8135e-15 -23.1729 38.753)
(4.52643e-15 -24.1355 45.3101)
(4.31016e-15 -22.968 58.2932)
(-3.7621e-15 -18.4365 68.7165)
(-1.28775e-14 -4.60506 61.5125)
(-9.94059e-15 11.46 37.2479)
(-4.46126e-15 20.1817 20.9834)
(-1.70426e-15 20.7145 10.7441)
(-8.63734e-16 17.6466 1.37781)
(-1.69076e-16 14.4169 -6.75654)
(-1.43869e-15 12.8366 -16.1002)
(1.3323e-15 -5.14496 28.0478)
(1.29028e-15 -4.81344 35.7119)
(2.3621e-15 -2.1322 43.924)
(4.43732e-15 0.675423 54.0962)
(6.94294e-15 2.59592 63.0886)
(8.54835e-15 0.829121 68.3171)
(7.98894e-15 -5.62634 66.0662)
(6.13659e-15 -14.6081 58.549)
(5.28258e-15 -22.4893 51.9635)
(6.4498e-15 -26.8121 52.0615)
(6.82183e-15 -26.7077 58.7903)
(2.59429e-15 -17.5458 59.6043)
(-1.67399e-15 3.74025 34.5165)
(-1.02449e-15 18.7347 12.6301)
(-2.67535e-16 23.1767 8.26871)
(-2.13215e-16 22.685 4.2075)
(-2.75901e-16 18.5317 -1.22105)
(-1.05901e-16 13.3815 -6.76579)
(-5.61311e-16 8.77976 -12.4492)
(1.14286e-15 -6.59657 24.3539)
(1.05215e-15 -7.67457 30.3659)
(1.66509e-15 -6.01608 37.7843)
(3.3938e-15 -3.65141 48.901)
(6.2955e-15 -0.926426 61.3856)
(9.31718e-15 -0.584546 72.4245)
(1.11531e-14 -4.41849 78.3951)
(1.14004e-14 -11.9792 78.2097)
(1.10027e-14 -20.6697 74.4991)
(1.09326e-14 -26.9539 70.8641)
(1.00857e-14 -25.9073 65.3743)
(5.98516e-15 -9.23456 43.7133)
(1.17886e-15 15.0188 5.29437)
(8.32012e-16 21.7699 3.03498)
(4.95935e-16 23.4947 3.10882)
(8.14813e-17 24.3228 0.975497)
(-9.52681e-17 21.1216 -3.92509)
(-3.33467e-17 16.7757 -7.58344)
(9.97553e-18 11.7143 -10.8987)
(9.00198e-16 -7.77705 21.125)
(8.71905e-16 -10.0868 25.5191)
(1.10385e-15 -9.70241 31.1716)
(2.06356e-15 -8.79373 40.6206)
(4.3417e-15 -6.95323 53.0832)
(7.6932e-15 -6.22955 67.0738)
(1.10601e-14 -8.28169 79.5144)
(1.34676e-14 -13.2899 87.8364)
(1.44966e-14 -19.6316 89.8849)
(1.38067e-14 -23.0992 82.2034)
(1.0265e-14 -15.7345 58.2178)
(3.46535e-15 6.73548 17.0598)
(5.88041e-16 18.9283 3.38089)
(1.04552e-15 20.5159 6.65875)
(5.77044e-16 23.9714 2.4945)
(1.06695e-16 25.676 -0.596649)
(-9.79778e-17 22.3867 -5.70583)
(-4.35392e-17 16.9818 -7.26597)
(-1.38099e-17 10.5896 -9.59475)
(6.45904e-16 -8.44517 18.4918)
(7.34414e-16 -11.4823 21.8736)
(8.13609e-16 -11.9818 26.0199)
(1.17217e-15 -12.2162 33.3114)
(2.56564e-15 -11.2515 44.124)
(5.47719e-15 -10.6763 58.5372)
(9.26218e-15 -12.1567 74.1229)
(1.24271e-14 -15.865 85.9328)
(1.33483e-14 -18.6725 86.1942)
(1.07508e-14 -14.463 67.0098)
(4.95387e-15 -0.28115 30.628)
(9.53047e-16 13.1525 8.14381)
(1.51e-15 18.6487 10.627)
(1.17708e-15 21.8929 6.92056)
(5.99522e-16 25.8844 1.86524)
(9.80148e-17 27.3987 -1.70417)
(-1.04193e-16 23.4849 -5.91515)
(-2.98114e-17 17.7798 -6.54329)
(-7.84052e-17 10.5494 -8.80144)
(2.6395e-16 -9.30078 14.5369)
(4.30053e-16 -13.2196 16.9496)
(5.28468e-16 -14.5384 19.6227)
(5.74899e-16 -16.3245 24.118)
(9.78641e-16 -17.4832 31.0412)
(2.43631e-15 -18.8745 41.3627)
(5.07533e-15 -20.0049 54.0479)
(7.71233e-15 -18.3518 63.9262)
(8.13265e-15 -11.1377 61.1059)
(5.28464e-15 0.0138031 40.5206)
(2.39369e-15 8.93207 21.008)
(1.90061e-15 15.0579 15.356)
(1.64432e-15 20.6037 11.413)
(1.11949e-15 24.8284 6.04609)
(5.99503e-16 28.1364 0.947154)
(9.28337e-17 29.5033 -2.3026)
(-1.06366e-16 24.7479 -5.91493)
(-2.48356e-17 18.5638 -5.93846)
(-6.17188e-17 9.3793 -8.38112)
(2.36135e-16 92.4009 158.592)
(-4.07144e-14 129.056 214.638)
(-3.97376e-14 123.112 201.298)
(-4.00478e-14 111.117 177.3)
(-4.07235e-14 100.72 158.053)
(-5.79165e-14 94.5903 144.701)
(-5.29978e-14 90.3259 135.857)
(-4.63431e-14 89.119 132.616)
(-4.44721e-14 88.5204 131.729)
(-4.35109e-14 88.3221 131.376)
(-4.38486e-14 87.7105 131.311)
(-4.49289e-14 87.1414 131.206)
(-4.51784e-14 86.295 131.3)
(-4.46247e-14 85.475 131.4)
(-4.61803e-14 84.4001 131.536)
(-4.56305e-14 83.1596 131.473)
(-4.90537e-14 81.7161 131.174)
(-4.34929e-14 79.6639 130.537)
(-4.73716e-14 77.9919 129.292)
(-5.5688e-14 67.1036 115.962)
(-1.09261e-15 96.5912 164.133)
(-4.04423e-14 118.402 201.407)
(-3.22542e-14 102.918 177.954)
(-3.66853e-14 90.9481 157.338)
(-4.20356e-14 83.178 145.747)
(-6.64012e-14 81.1302 139.674)
(-4.4674e-14 79.6043 137.259)
(-4.04259e-14 79.4818 134.356)
(-4.2436e-14 78.4631 132.535)
(-4.51379e-14 78.2651 130.724)
(-4.48144e-14 77.6045 129.667)
(-4.53555e-14 77.4014 128.673)
(-4.65954e-14 76.8697 128.02)
(-4.6357e-14 76.5125 127.291)
(-4.70105e-14 75.8375 126.636)
(-4.53267e-14 75.1259 125.717)
(-4.89155e-14 74.1377 124.717)
(-4.4873e-14 72.587 122.82)
(-4.9555e-14 71.2581 121.234)
(-5.77505e-14 61.8 106.822)
(6.62248e-17 104.048 178.722)
(-1.44328e-14 118.012 201.7)
(-1.21875e-14 103.902 179.937)
(-1.22839e-14 96.6597 165.134)
(-1.50441e-14 91.733 156.72)
(-3.53005e-14 89.6011 150.057)
(-2.15591e-14 86.6307 144.753)
(-1.75177e-14 84.7668 139.9)
(-1.83083e-14 82.6683 136.403)
(-2.01681e-14 81.423 133.582)
(-1.93017e-14 80.0893 131.562)
(-1.95246e-14 79.1379 129.805)
(-2.11013e-14 78.0462 128.373)
(-2.11261e-14 77.1065 127.003)
(-2.06493e-14 75.9875 125.742)
(-2.01256e-14 74.8729 124.327)
(-2.17186e-14 73.5077 122.854)
(-2.11291e-14 71.5717 120.272)
(-2.29091e-14 69.5054 117.762)
(-2.73961e-14 59.2502 101.802)
(5.34649e-17 107.133 183.968)
(3.18308e-15 113.622 195.465)
(2.61361e-15 103.675 178.927)
(2.89113e-15 98.9455 168.406)
(3.44049e-15 95.3943 161.459)
(-2.27154e-14 92.7922 154.62)
(-1.9242e-14 89.3144 148.021)
(-1.86999e-14 86.5052 141.887)
(-1.95012e-14 83.8319 137.105)
(-2.05214e-14 81.9332 133.372)
(-2.01794e-14 80.2136 130.554)
(-2.08667e-14 78.8196 128.188)
(-2.16049e-14 77.4044 126.158)
(-2.19105e-14 76.0991 124.253)
(-2.21255e-14 74.658 122.462)
(-2.18392e-14 73.2234 120.537)
(-2.27137e-14 71.4634 118.55)
(-2.25906e-14 69.1236 115.171)
(-2.40235e-14 65.9436 111.327)
(-2.82746e-14 54.4847 92.5515)
(-3.11912e-17 109.049 188.198)
(-6.94806e-16 114.38 197.212)
(-6.04975e-16 109.404 186.737)
(-6.55964e-16 105.841 177.954)
(-8.05294e-16 102.652 170.321)
(4.82912e-15 98.8249 161.718)
(4.68857e-15 94.3236 152.891)
(4.1105e-15 90.3016 145.063)
(4.28934e-15 86.8776 138.817)
(4.67252e-15 84.1795 133.981)
(4.62344e-15 81.8929 130.207)
(4.72017e-15 79.9115 127.082)
(4.99977e-15 78.0058 124.363)
(5.00412e-15 76.192 121.83)
(4.97933e-15 74.2505 119.429)
(4.83555e-15 72.3164 116.876)
(5.2671e-15 69.9294 114.218)
(4.99178e-15 66.9685 109.935)
(5.57528e-15 62.3517 104.37)
(6.78721e-15 48.8292 81.8916)
(1.2226e-17 108.964 188.505)
(1.51819e-16 119.464 206.034)
(1.38179e-16 117.783 198.934)
(1.42442e-16 114.261 189.97)
(1.93008e-16 110.168 179.914)
(-9.91924e-16 104.494 168.318)
(-1.13191e-15 98.6399 156.978)
(-9.79487e-16 93.5301 147.36)
(-9.91506e-16 89.3258 139.651)
(-1.04815e-15 85.877 133.547)
(-1.07462e-15 82.938 128.653)
(-1.07664e-15 80.343 124.578)
(-1.12463e-15 77.8707 121.032)
(-1.12891e-15 75.5023 117.731)
(-1.13991e-15 72.9616 114.583)
(-1.13101e-15 70.4251 111.209)
(-1.23264e-15 67.2104 107.643)
(-1.17112e-15 63.4694 102.134)
(-1.27944e-15 57.077 94.616)
(-1.64294e-15 41.1431 67.2838)
(-3.99805e-18 108.8 188.45)
(-3.28386e-17 129.087 222.038)
(-3.09222e-17 128.79 216.301)
(-3.09997e-17 124.087 204.921)
(-4.58102e-17 117.477 190.638)
(1.83973e-16 109.491 175.203)
(2.60658e-16 102.294 161.563)
(2.4107e-16 96.3925 150.37)
(2.33362e-16 91.5019 141.243)
(2.32469e-16 87.34 133.674)
(2.41293e-16 83.679 127.361)
(2.41543e-16 80.3924 121.993)
(2.47237e-16 77.2555 117.303)
(2.52623e-16 74.2418 112.94)
(2.63471e-16 70.9868 108.766)
(2.71738e-16 67.7157 104.264)
(2.89702e-16 63.4777 99.4431)
(2.81142e-16 58.7658 92.2925)
(2.92923e-16 50.366 82.5514)
(3.97618e-16 31.9367 49.7567)
(1.19449e-18 109.587 190.097)
(7.08837e-18 140.628 240.593)
(7.01205e-18 139.527 234.677)
(7.05726e-18 132.013 218.29)
(1.05084e-17 121.528 199.121)
(-3.07213e-17 112.117 181.02)
(-5.46295e-17 104.343 166.771)
(-5.61041e-17 98.2963 154.687)
(-5.37502e-17 92.8524 144.361)
(-5.1407e-17 88.0555 135.175)
(-5.29211e-17 83.6286 127.153)
(-5.36051e-17 79.585 120.085)
(-5.44821e-17 75.6838 113.806)
(-5.61967e-17 71.9231 107.932)
(-5.94222e-17 67.8375 102.297)
(-6.32103e-17 63.7171 96.2343)
(-6.66038e-17 58.3236 89.7388)
(-6.60959e-17 52.5561 80.5394)
(-6.7621e-17 42.0301 68.233)
(-9.92581e-17 21.4627 29.6545)
(-3.34175e-19 111.924 195.263)
(-1.49878e-18 151.916 257.694)
(-1.51149e-18 146.373 248.539)
(-1.52466e-18 134.975 224.588)
(-2.34882e-18 121.176 203.491)
(4.959e-18 113.199 186.001)
(1.06908e-17 105.413 173.307)
(1.21279e-17 99.8158 160.785)
(1.1902e-17 93.6709 149.705)
(1.13165e-17 88.3768 138.996)
(1.1506e-17 83.1026 129.313)
(1.17722e-17 78.2545 120.333)
(1.20456e-17 73.4448 112.119)
(1.24772e-17 68.8018 104.274)
(1.3148e-17 63.7498 96.7092)
(1.41274e-17 58.7132 88.6497)
(1.48892e-17 52.1697 80.1229)
(1.51704e-17 45.4587 68.6937)
(1.59365e-17 32.7815 53.1368)
(2.81211e-17 11.2644 9.85728)
(8.31205e-20 115.859 204.08)
(2.9422e-19 160.865 269.951)
(2.93453e-19 146.567 253.25)
(2.91453e-19 133.224 222.372)
(4.86894e-19 119.146 205.877)
(-8.30272e-19 114.649 190.488)
(-2.04762e-18 105.86 179.52)
(-2.4845e-18 100.922 166.336)
(-2.48777e-18 93.6748 155.17)
(-2.36662e-18 88.1673 143.421)
(-2.36782e-18 81.9418 132.712)
(-2.41877e-18 76.3698 122.154)
(-2.49001e-18 70.5664 112.228)
(-2.58952e-18 65.0398 102.461)
(-2.72255e-18 59.0452 93.0101)
(-2.93878e-18 53.278 83.0188)
(-3.14507e-18 45.8363 72.5711)
(-3.32394e-18 38.5342 59.0416)
(-3.74815e-18 23.3685 39.1707)
(-4.63455e-18 2.77932 -5.7378)
(-1.69387e-20 121.151 215.389)
(-4.98668e-20 165.901 275.761)
(-4.8088e-20 141.75 249.77)
(-4.54838e-20 132.127 219.583)
(-8.63475e-20 118.618 208.791)
(1.50855e-19 116.064 193.1)
(3.87288e-19 105.504 182.747)
(4.74743e-19 101.121 168.853)
(4.67813e-19 92.7204 157.939)
(4.35949e-19 87.1982 145.628)
(4.24635e-19 80.0951 134.572)
(4.27444e-19 74.0731 123.17)
(4.38399e-19 67.5353 112.392)
(4.54344e-19 61.5296 101.619)
(4.75048e-19 55.0896 91.2706)
(5.15292e-19 49.134 80.3476)
(5.69729e-19 41.2951 68.7361)
(6.36388e-19 33.5857 53.4574)
(8.31217e-19 15.8763 29.2077)
(-4.35957e-18 -3.35096 -13.7673)
(2.44013e-21 127.168 227.427)
(6.80226e-21 167.557 276.366)
(5.7748e-21 137.578 245.743)
(4.83321e-21 133.403 219.715)
(1.17432e-20 118.867 210.336)
(-2.95315e-20 116.89 193.712)
(-6.82674e-20 105.452 183.359)
(-7.71476e-20 101.164 169.103)
(-7.04641e-20 92.3301 158.091)
(-6.21316e-20 86.6379 145.532)
(-5.79863e-20 79.2228 134.273)
(-5.69758e-20 73.0069 122.681)
(-5.80261e-20 66.3398 111.784)
(-5.95287e-20 60.2985 101.003)
(-6.14706e-20 53.9533 90.6722)
(-6.80282e-20 47.9047 79.689)
(-8.22674e-20 39.8148 67.2584)
(-1.0379e-19 30.9156 50.616)
(-1.55048e-19 12.878 24.4808)
(-8.09985e-19 -6.81203 -16.1266)
(-1.88644e-22 134.517 241.622)
(-6.53307e-22 167.183 273.355)
(-5.22459e-22 136.674 245.545)
(-4.84725e-22 135.876 221.314)
(-1.16555e-21 120.538 212.047)
(5.40425e-21 118.846 194.972)
(9.81133e-21 107.602 184.241)
(8.61275e-21 103.087 169.914)
(6.14774e-21 94.6908 158.4)
(4.52882e-21 88.7577 145.766)
(3.68642e-21 81.7227 134.163)
(3.27428e-21 75.4844 122.523)
(3.11843e-21 69.0665 111.401)
(2.75752e-21 62.9354 100.422)
(1.96771e-21 56.4301 89.5285)
(1.52393e-21 49.4982 77.6237)
(3.25395e-21 40.3068 63.405)
(8.10764e-21 29.3505 45.0645)
(5.06575e-21 11.9419 18.9135)
(4.94859e-19 -6.93392 -14.7657)
(-5.24053e-24 142.083 258.013)
(1.24698e-22 168.138 271.486)
(2.59325e-22 138.029 249.405)
(3.8747e-22 140.371 225.998)
(3.81726e-22 124.21 216.853)
(-5.58482e-22 123.257 199.501)
(-9.66811e-22 112.364 188.502)
(-7.08675e-22 108.053 174.145)
(-5.75776e-22 100.356 162.266)
(-7.07577e-22 94.6963 149.573)
(-9.64181e-22 88.3707 137.668)
(-1.25758e-21 82.4712 125.67)
(-1.57255e-21 76.2607 113.674)
(-1.90152e-21 69.679 101.189)
(-2.1425e-21 61.9345 87.844)
(-2.14346e-21 52.6918 72.4821)
(-1.73551e-21 40.4942 54.2428)
(-9.72744e-22 26.4519 32.0583)
(-1.31115e-20 5.07466 2.84546)
(2.46856e-19 -11.2693 -30.71)
(-3.71373e-24 148.812 275.869)
(-1.02502e-22 169.613 270.588)
(-2.10539e-22 139.635 256.12)
(-2.8567e-22 145.586 233.652)
(-3.28404e-22 127.9 225.395)
(-2.0947e-22 128.494 208.086)
(6.30245e-23 117.396 197.73)
(4.84078e-22 114.136 183.792)
(9.18596e-22 107.046 172.572)
(1.26158e-21 102.496 160.522)
(1.56522e-21 97.1514 149.137)
(1.87904e-21 91.9883 136.921)
(2.22447e-21 85.5972 123.332)
(2.65587e-21 77.3439 107.14)
(3.21392e-21 65.9846 87.9377)
(3.86117e-21 52.0264 65.5926)
(4.63707e-21 34.7472 41.31)
(6.06357e-21 17.4715 14.7989)
(7.09645e-21 -9.12679 -16.4709)
(3.82072e-20 -20.8995 -51.8226)
(6.94874e-24 150.721 286.499)
(6.16541e-23 167.338 266.183)
(1.11344e-22 137.96 259.506)
(1.34306e-22 145.824 237.983)
(1.52159e-22 126.538 231.062)
(1.28309e-22 127.871 214.576)
(-1.97674e-23 116.035 205.619)
(-2.87462e-22 113.336 192.974)
(-5.35049e-22 106.115 183.552)
(-6.88405e-22 102.163 173.217)
(-7.95287e-22 96.6657 163.195)
(-8.93951e-22 90.5695 150.515)
(-9.93198e-22 80.8875 133.025)
(-1.1659e-21 66.1773 107.9)
(-1.64919e-21 46.1825 76.4177)
(-2.79156e-21 25.126 43.945)
(-4.2294e-21 2.30191 11.902)
(-3.70027e-22 -10.3604 -17.4808)
(7.33352e-21 -32.8426 -40.6337)
(-1.3362e-20 -32.1645 -69.3361)
(-4.003e-24 144.295 280.267)
(-2.88562e-23 160.87 256.5)
(-4.55085e-23 131.066 252.283)
(-4.94118e-23 137.597 231.806)
(-7.84926e-23 119.202 224.75)
(-7.0962e-23 118.007 209.955)
(4.1863e-23 107.041 200.98)
(1.88316e-22 102.519 189.78)
(2.72387e-22 95.1951 180.976)
(3.04056e-22 89.9044 171.619)
(3.32909e-22 82.9489 161.474)
(3.85262e-22 73.9741 146.786)
(4.52909e-22 59.6381 123.606)
(3.8176e-22 39.1282 89.5704)
(-2.26664e-22 17.1496 52.7851)
(-1.37472e-21 1.88386 26.8)
(-1.40301e-21 -10.1669 4.67719)
(7.46783e-22 -25.5232 -24.0509)
(1.28408e-21 -33.8929 -39.1489)
(-5.71827e-21 -18.98 -23.2095)
(2.24172e-24 131.793 269.131)
(1.16552e-23 154.93 244.018)
(1.73221e-23 119.526 241.864)
(2.45665e-23 126.167 222.152)
(3.01969e-23 108.012 214.946)
(-2.23564e-24 104.75 201.434)
(-5.97891e-23 94.5143 192.066)
(-9.84158e-23 88.5562 181.439)
(-1.10147e-22 81.2691 172.239)
(-1.12277e-22 75.0111 162.763)
(-1.06307e-22 67.8762 152.378)
(-8.70336e-23 59.3181 138.692)
(-1.06344e-22 48.175 119.556)
(-2.96777e-22 35.2898 95.0012)
(-6.38385e-22 23.9049 69.6402)
(-6.60757e-22 16.7777 49.3433)
(9.68205e-23 12.3744 33.5343)
(1.23549e-21 7.60007 15.7271)
(1.72761e-21 -0.835969 -7.23351)
(2.82121e-21 12.5319 26.5628)
(-7.81398e-25 107.776 252.873)
(-4.70982e-24 147.526 223.331)
(-6.9974e-24 106.973 226.248)
(-7.14403e-24 113.106 210.84)
(-3.43783e-25 96.9805 205.037)
(1.47119e-23 92.1366 195.261)
(2.59575e-23 83.0466 187.622)
(2.8561e-23 76.6267 179.374)
(2.70937e-23 69.8159 171.721)
(2.5533e-23 63.8895 164.105)
(2.51439e-23 58.212 156.576)
(2.6663e-23 53.054 148.841)
(2.81578e-23 48.5059 140.766)
(1.77362e-23 44.7932 131.966)
(-2.49185e-23 41.777 121.718)
(-8.70131e-23 38.7776 109.155)
(-6.72693e-23 34.211 92.9648)
(1.6162e-22 26.5373 69.4365)
(5.46939e-22 14.5009 32.3997)
(7.2232e-22 -2.70925 -14.1271)
(5.07799e-25 35.7659 158.029)
(1.31078e-24 78.5305 130.434)
(1.1326e-24 52.8246 138.466)
(1.0936e-26 52.8541 134.255)
(-1.93925e-24 44.4921 134.12)
(-3.71765e-24 40.2703 132.339)
(-4.17552e-24 35.4172 130.918)
(-3.76013e-24 31.6924 129.157)
(-3.21472e-24 28.4427 127.372)
(-2.98099e-24 25.9484 125.577)
(-3.55431e-24 24.1159 123.834)
(-4.85169e-24 22.9119 122.016)
(-4.25343e-24 22.1964 119.877)
(3.76519e-24 21.8868 117.21)
(2.15152e-23 22.1614 113.93)
(3.74066e-23 23.1385 110.225)
(2.83117e-23 24.5515 106.406)
(-1.05963e-23 28.4617 100.298)
(-4.07575e-23 31.1759 88.2991)
(-2.06504e-23 6.85176 64.878)
(-3.91563e-25 -35.7549 158)
(2.86879e-26 -78.5243 130.406)
(5.11333e-25 -52.8216 138.439)
(9.7795e-25 -52.854 134.228)
(1.45167e-24 -44.494 134.092)
(1.88102e-24 -40.2737 132.311)
(2.24179e-24 -35.4216 130.889)
(2.48968e-24 -31.6971 129.127)
(2.58361e-24 -28.4471 127.342)
(2.60489e-24 -25.9511 125.544)
(2.90879e-24 -24.1157 123.799)
(3.7497e-24 -22.9096 121.978)
(4.14039e-24 -22.1957 119.841)
(1.01981e-24 -21.8928 117.181)
(-8.48006e-24 -22.1782 113.912)
(-2.03965e-23 -23.1676 110.213)
(-2.02346e-23 -24.5918 106.388)
(3.17507e-24 -28.5239 100.256)
(3.07824e-23 -31.3006 88.2191)
(2.07885e-23 -6.88973 64.9263)
(1.8279e-24 -107.776 252.846)
(6.90788e-25 -147.498 223.317)
(-1.57092e-24 -106.958 226.239)
(-4.05561e-24 -113.078 210.846)
(-7.05783e-24 -96.9536 205.05)
(-1.04162e-23 -92.1026 195.284)
(-1.3853e-23 -83.0093 187.654)
(-1.71613e-23 -76.585 179.416)
(-2.01402e-23 -69.7708 171.775)
(-2.23139e-23 -63.8405 164.17)
(-2.33526e-23 -58.1545 156.647)
(-2.32099e-23 -52.9757 148.904)
(-2.25085e-23 -48.3857 140.804)
(-2.08688e-23 -44.6102 131.968)
(-9.60992e-24 -41.5191 121.668)
(2.01761e-23 -38.4414 109.008)
(2.33582e-23 -33.8021 92.6537)
(-1.29176e-22 -26.0571 68.924)
(-4.91292e-22 -13.978 32.0208)
(-6.81296e-22 2.49821 -12.8315)
(-7.17076e-24 -131.812 269.157)
(-3.01219e-24 -154.968 244.079)
(5.29756e-24 -119.57 241.919)
(1.4126e-23 -126.211 222.207)
(2.45889e-23 -108.064 215.001)
(3.72398e-23 -104.807 201.491)
(5.14187e-23 -94.5832 192.123)
(6.64365e-23 -88.6344 181.499)
(8.289e-23 -81.3623 172.3)
(9.96718e-23 -75.1216 162.832)
(1.09637e-22 -68.0243 152.482)
(9.95882e-23 -59.5412 138.905)
(8.72566e-23 -48.4993 119.957)
(1.86667e-22 -35.6344 95.5334)
(5.04061e-22 -24.0752 70.0119)
(7.85281e-22 -16.6144 49.2139)
(4.73061e-22 -11.8389 32.8688)
(-4.74408e-22 -6.75977 14.6796)
(-1.13328e-21 1.39631 -7.62367)
(-2.22426e-21 -10.7516 24.1606)
(2.67865e-23 -144.33 280.327)
(1.24619e-23 -160.901 256.415)
(-2.02709e-23 -131.061 252.257)
(-5.66631e-23 -137.682 231.757)
(-9.80367e-23 -119.255 224.711)
(-1.46164e-22 -118.13 209.877)
(-1.98632e-22 -107.156 200.899)
(-2.51851e-22 -102.694 189.667)
(-3.03392e-22 -95.3883 180.846)