/*--------------------------------*- C++ -*----------------------------------*\
| =========                 |                                                 |
| \\      /  F ield         | OpenFOAM: The Open Source CFD Toolbox           |
|  \\    /   O peration     | Version:  4.1                                   |
|   \\  /    A nd           | Web:      www.OpenFOAM.org                      |
|    \\/     M anipulation  |                                                 |
\*---------------------------------------------------------------------------*/
FoamFile
{
    version     2.0;
    format      ascii;
    class       volScalarField;
    location    "20";
    object      p;
}
// * * * * * * * * * * * * * * * * * * * * * * * * * * * * * * * * * * * * * //

dimensions      [0 2 -2 0 0 0 0];

internalField   nonuniform List<scalar> 
1680
(
1720.32
-749.783
100.135
0.0732971
28.014
61.2344
25.7105
7.86987
9.6186
-5.77274
-5.61035
-11.0364
-9.55968
-6.64317
-12.7693
-8.93649
-6.84533
-5.47611
6.69554
-7.75699
2.19984
-18.2618
-1.22494
-2.46809
-0.868222
1.06976
2.90125
4.53021
6.7529
7.80745
11.652
-8.71608
0.926094
1.47394
2.93149
4.11054
6.20089
6.47509
11.4295
7.70323
-29.8813
-5.25816
-2.24684
15.362
11.0094
11.9067
15.7517
24.5925
21.4009
22.0893
23.6361
23.3898
23.5623
23.617
22.5178
22.9078
23.0411
23.0852
22.5974
22.8127
92.2688
-45.4924
28.0208
29.6774
9.57416
-65.4793
-90.9334
-19.1912
9.73528
-5.73127
-3.43644
-17.5737
-53.0406
-141.758
-150.768
-84.1267
-7.61998
28.396
31.9704
100.232
-58.6745
25.0056
29.696
18.6985
-67.7645
-94.1077
-31.8002
3.85555
-9.60251
-7.49016
-23.0227
-63.0578
-147.912
-155.868
-81.8202
1.51916
31.4014
25.2598
91.3805
-85.5004
17.4284
27.716
19.643
-69.3801
-97.8877
-42.8265
-1.66731
-13.4644
-11.5211
-28.0306
-71.3974
-152.812
-159.001
-79.1194
9.27111
31.7539
29.0744
59.7593
-127.056
10.2142
24.04
16.3081
-69.7179
-100.727
-51.7634
-6.60416
-16.9603
-15.4714
-32.5444
-77.6285
-156.492
-160.301
-76.1573
15.4228
32.5755
38.7744
-15.2344
-184.648
6.43918
18.6897
11.3272
-70.1822
-101.034
-57.8266
-10.7114
-19.8262
-19.1523
-36.4598
-81.46
-156.361
-158.848
-72.4135
17.8258
34.0764
39.0191
-157.692
-263.878
2.23507
15.479
4.17874
-69.5152
-100.705
-60.839
-13.7856
-21.9782
-22.1696
-39.7116
-83.0421
-152.954
-154.204
-67.7195
16.4919
34.0182
21.3201
-399.117
-375.23
-9.29329
15.2848
-3.27769
-65.4608
-99.6801
-58.0831
-15.7068
-23.2607
-24.3976
-42.1565
-82.826
-147.404
-146.839
-62.5869
14.2233
31.5855
15.5706
-776.557
-533.989
-31.6593
17.9691
-11.1492
-57.6255
-96.2838
-50.0553
-16.6857
-23.513
-25.6253
-43.3881
-81.1318
-139.229
-136.52
-57.3359
12.823
28.1905
18.7164
-1330.77
-757.849
-68.4693
24.4055
-19.3802
-48.7562
-90.3957
-41.5631
-17.056
-22.768
-25.8574
-43.1984
-77.5096
-128.06
-123.182
-52.417
12.0427
26.4478
18.9686
-2079.68
-1059.57
-122.925
35.7931
-27.7987
-40.3758
-85.2566
-35.4723
-16.94
-21.1362
-25.27
-41.8117
-72.1262
-115.145
-108.975
-48.3102
10.9828
25.0038
15.1731
-3041.07
-1436.29
-196.337
52.6536
-36.0672
-32.7923
-80.4383
-30.9856
-16.3615
-18.7817
-24.0931
-39.7264
-66.2134
-102.657
-96.0479
-45.1362
9.21118
22.4386
16.2213
-4118.75
-1862.78
-287.736
73.5227
-43.7783
-26.7539
-75.7779
-27.0324
-15.4019
-15.7382
-22.2597
-36.9397
-60.0872
-91.178
-85.2151
-42.8758
7.1483
19.5502
17.998
-5332.6
-2289.27
-392.805
96.6252
-50.1034
-22.6497
-71.5208
-23.585
-14.2377
-12.3368
-20.1506
-34.1633
-54.7934
-81.7139
-76.8419
-41.1597
5.31844
15.4743
20.5653
-6185.3
-2642.16
-480.073
121.646
-52.759
-19.8695
-66.9033
-20.605
-12.7052
-8.24424
-16.7815
-29.8312
-48.1966
-71.9823
-68.4223
-38.975
3.45294
11.9002
20.7975
-7154.32
-2790.52
-492.003
128.613
-52.5558
-19.0378
-60.329
-17.4309
-11.0984
-5.16972
-14.5141
-27.4164
-44.5964
-65.7958
-65.7002
-38.7923
1.88763
2.6196
28.4424
-6298.47
-2634.9
-469.144
96.0889
-54.072
-21.9807
-52.1774
-13.0101
-8.03867
-0.332895
-7.58576
-18.0608
-33.1876
-52.705
-53.8205
-36.3322
-3.25472
0.39126
10.8775
-8214.78
-2175.11
-450.556
41.1631
-45.1654
-20.8993
-41.422
-9.34584
-6.71256
-2.45637
-10.77
-22.5135
-36.8527
-53.8837
-57.715
-36.3583
-5.77043
-31.0879
62.8763
-2858.38
379.451
-173.658
-6.0621
-26.6162
-11.643
-25.2486
-6.28151
-2.99887
7.47874
10.0927
7.42733
-3.64858
-20.6921
-37.2995
-10.2513
1.91286
8.52633
-54.6201
-13313.5
1368.82
5.13873
-33.044
-86.6341
-36.6159
-42.9152
-6.47829
-6.83686
-12.8504
-26.0256
-39.9586
-47.5469
-56.1315
-52.3574
-61.7794
-15.2453
-111.601
238.016
14557.8
-5686.67
-592.288
-54.9695
-156.716
-67.6012
-68.1869
-6.11668
2.91666
32.3434
65.1049
82.4398
70.1154
40.413
-10.1718
10.8995
-71.9759
317.266
-866.094
78.8119
78.3003
77.9349
77.1477
76.4035
75.6504
74.9452
74.2567
73.6041
72.9749
72.3498
71.7744
71.0739
70.3165
69.6721
69.046
68.5371
67.9937
67.7868
67.0669
62.7145
63.0101
63.139
63.2608
63.3524
63.3991
63.4395
63.4476
63.4566
63.4418
63.4319
63.4068
63.3629
63.3095
63.265
63.2067
63.176
63.1263
63.1028
63.0212
69.6809
69.4406
69.3323
69.1629
69.0344
68.8802
68.7457
68.5982
68.4628
68.3197
68.1875
68.0469
67.9229
67.7844
67.6669
67.5288
67.4234
67.28
67.1971
66.9928
67.4278
67.4212
67.4247
67.4023
67.3979
67.3703
67.3554
67.3249
67.3025
67.2695
67.243
67.2075
67.1799
67.141
67.1155
67.071
67.0501
66.9981
66.9809
66.9061
69.2201
69.1181
69.0835
69.007
68.9611
68.8938
68.8433
68.781
68.7289
68.6695
68.6179
68.5597
68.5103
68.4513
68.4062
68.3435
68.3057
68.2349
68.2089
68.1148
69.3552
69.2988
69.2853
69.2386
69.2166
69.1748
69.1474
69.1083
69.0776
69.0398
69.0078
68.9697
68.9383
68.8981
68.8695
68.8248
68.8021
68.7491
68.7369
68.6679
70.1728
70.1022
70.0827
70.0281
69.9995
69.9519
69.9187
69.8752
69.8398
69.7984
69.7624
69.7216
69.6867
69.6446
69.6129
69.5669
69.5417
69.4877
69.4742
69.4049
70.6856
70.625
70.6094
70.5617
70.5378
70.4961
70.4678
70.4296
70.3987
70.3625
70.3307
70.2949
70.2637
70.2266
70.1982
70.1572
70.1348
70.086
70.0747
70.0118
71.2964
71.2355
71.2192
71.1717
71.1473
71.106
71.0774
71.0398
71.0088
70.9733
70.9415
70.9068
70.8754
70.8398
70.8112
70.7719
70.7492
70.7023
70.6907
70.63
71.836
71.779
71.7637
71.7189
71.6959
71.657
71.63
71.5946
71.5653
71.532
71.5016
71.4692
71.4391
71.406
71.3782
71.3417
71.3197
71.2757
71.2644
71.207
72.3744
72.3195
72.3043
72.2612
72.2387
72.2013
72.175
72.141
72.1124
72.0806
72.0509
72.0201
71.9905
71.9593
71.9318
71.8975
71.8754
71.8339
71.8224
71.7675
72.8824
72.8302
72.8155
72.7745
72.7529
72.7172
72.692
72.6596
72.6322
72.602
72.5733
72.5445
72.5155
72.4866
72.4593
72.4277
72.4055
72.3669
72.3551
72.303
73.3729
73.3231
73.3087
73.2695
73.2486
73.2144
73.1901
73.1591
73.1327
73.104
73.0762
73.0489
73.0207
72.9937
72.9666
72.9376
72.9151
72.8793
72.8671
72.8178
73.8418
73.7947
73.7805
73.7431
73.7229
73.6903
73.6669
73.6372
73.6118
73.5844
73.5576
73.5317
73.5041
73.4791
73.4521
73.4257
73.4026
73.37
73.357
73.3105
74.2906
74.2467
74.2329
74.1978
74.1786
74.1476
74.1255
74.0974
74.0731
74.0471
74.0215
73.997
73.9703
73.947
73.92
73.8963
73.8722
73.843
73.8288
73.7852
74.7076
74.6671
74.6537
74.621
74.6036
74.5746
74.5543
74.5286
74.5061
74.4824
74.4589
74.4364
74.4118
74.3909
74.3648
74.3448
74.32
74.2951
74.2796
74.2401
75.1016
75.0643
75.0497
75.0174
75.0012
74.9729
74.9528
74.9285
74.9065
74.884
74.8617
74.8403
74.8176
74.7984
74.7739
74.758
74.7324
74.7142
74.6984
74.6643
75.5004
75.4731
75.4618
75.4294
75.4164
75.3909
75.3712
75.3487
75.3265
75.3037
75.2802
75.2563
75.2312
75.2074
75.1792
75.159
75.1249
75.1098
75.0837
75.0461
75.7741
75.7651
75.7802
75.7596
75.7598
75.7524
75.7478
75.7425
75.7369
75.7305
75.7228
75.7134
75.7014
75.6867
75.6664
75.6454
75.6069
75.5856
75.5137
75.4568
75.7394
75.6811
75.7192
75.7299
75.7474
75.7651
75.784
75.8047
75.8274
75.8525
75.8803
75.9114
75.9461
75.985
76.0285
76.0775
76.1302
76.1989
76.2402
76.4034
22.7982
22.267
22.0189
22.0457
22.0166
22.1654
21.826
21.6236
21.6665
21.6225
18.755
19.3279
20.1784
10.6153
7.41916
9.75712
15.5196
-12.9094
-5.18807
0.416694
-22.598
-15.6007
-12.426
-8.29416
-5.07591
-0.689799
4.34977
1.15833
14.5087
14.1457
17.7472
19.133
20.4221
20.3973
19.9552
19.5332
14.3775
1.15323
7.00289
-9.02556
-12.564
-0.706192
-19.0473
-11.2464
-17.3124
-11.2907
-4.61835
-15.4238
-10.8141
-14.1149
-11.765
-11.8207
-18.3596
-17.5318
-18.8111
-22.0581
-22.1779
-22.0678
-21.7002
-21.8118
22.8018
18.26
19.3898
13.8528
11.7552
20.1905
21.9507
24.9718
26.3549
25.5351
25.9413
28.3935
28.6322
21.0207
8.42665
-28.2298
-69.1079
-55.0218
-32.1827
22.6519
18.0323
19.302
13.418
11.2891
19.9669
21.9097
24.89
26.2613
25.3249
25.784
28.2639
28.5251
20.8522
8.15735
-29.8228
-72.7194
-58.4508
-33.622
22.5708
17.9135
19.3097
12.7227
10.7215
19.4815
21.7467
24.8404
25.8978
24.4624
25.2073
27.7975
28.313
20.5936
7.50601
-32.1121
-78.1791
-67.0449
-35.6884
22.7783
17.8028
19.3095
12.0535
10.0341
18.7955
21.4633
24.8381
25.3324
23.1592
24.7199
27.2796
28.0707
20.3228
6.64519
-35.134
-84.5768
-76.3313
-37.8271
23.2115
17.5695
19.1695
11.3932
9.2319
17.9452
21.0603
24.8399
24.4832
21.2654
25.1672
27.6583
27.9126
20.1441
5.49712
-38.4674
-91.0255
-85.6219
-40.515
23.7333
17.2007
18.9097
10.6561
8.31008
16.9605
20.5467
24.836
23.2721
18.4874
26.6282
29.321
28.0857
20.0749
4.00339
-41.8083
-96.832
-93.8987
-43.8239
24.265
16.5409
18.4875
9.7483
7.28553
15.8762
19.9102
24.8353
21.685
14.8139
28.6518
31.3788
28.6353
19.7574
2.19265
-44.8328
-101.258
-99.9458
-46.3103
24.8637
15.3879
17.8832
8.65238
6.13196
14.7312
19.139
24.9318
19.8574
10.349
30.6785
32.9526
29.0913
18.7569
-0.0176287
-47.4006
-103.892
-103.309
-48.2351
25.5647
13.7515
17.1483
7.48366
4.81738
13.5078
18.2225
25.3098
17.9024
5.46463
32.2901
33.7076
28.8456
16.7958
-2.98226
-49.4728
-104.901
-103.886
-49.4228
26.3188
11.623
16.4074
6.32033
3.37457
12.1542
17.1519
26.1311
15.554
0.614217
32.8648
33.1751
27.8365
13.5187
-6.93086
-51.0691
-103.977
-102.398
-48.087
27.0627
8.80541
15.7737
5.17825
1.94365
10.6153
15.8863
27.582
13.6363
-2.69401
32.0371
31.1264
26.1219
8.61828
-12.1893
-52.4084
-101.082
-98.7179
-46.1806
27.8049
4.88136
15.1115
4.21834
0.743901
8.80697
14.2716
30.1323
14.9187
-2.50269
29.8656
27.7981
23.5571
1.88261
-19.1294
-53.765
-96.9899
-93.2204
-40.7562
28.6032
-0.747123
14.3198
3.70416
-0.0304475
6.54949
12.0099
33.7052
19.0853
0.639903
26.9252
23.8099
19.8376
-6.83184
-28.2081
-55.4009
-90.576
-84.7368
-38.7449
29.5829
-8.68036
13.4335
3.91188
-0.242333
3.46271
8.63525
36.4348
23.8462
3.88471
23.5659
19.5456
14.7197
-17.4368
-39.3301
-58.0498
-85.2662
-76.2614
-28.7858
31.0886
-19.149
12.7252
5.17421
0.206955
-1.12615
2.97054
37.5086
27.5531
5.78557
19.9133
15.0144
8.24115
-29.9394
-52.0476
-61.1057
-74.8537
-65.1855
-18.6398
33.9834
-31.0641
12.8745
7.82686
1.1252
-7.81006
-6.45672
36.4976
28.9726
6.2592
16.1328
10.1892
0.702284
-44.4955
-66.091
-64.9333
-59.4436
-41.9178
6.38931
37.9804
-40.3874
14.9695
11.9612
1.26255
-17.2018
-20.7469
31.9559
28.1683
5.50556
12.3124
5.06382
-7.90028
-61.7376
-82.0139
-69.3848
-45.4357
-17.7693
22.2901
41.7205
-43.5609
19.3421
17.0085
-1.21501
-30.4978
-40.4319
23.1665
25.3992
3.72969
8.4566
-0.353157
-17.872
-82.6926
-101.084
-74.8254
-34.1767
2.4386
26.9627
52.674
-44.0312
24.1811
22.793
-3.65244
-46.7262
-63.1981
10.3255
21.0478
1.12869
4.54819
-6.02262
-29.2885
-106.559
-122.304
-80.9275
-25.3185
16.8713
28.8846
73.1674
-43.3646
26.9439
27.4065
0.31354
-59.8275
-82.015
-4.7486
15.6309
-2.09431
0.581893
-11.8331
-41.484
-128.375
-140.319
-84.5762
-16.9693
22.7754
30.9984
675.439
592.74
543.53
487.217
438.108
390.694
346.581
304.891
265.64
228.553
193.473
160.209
128.577
98.5806
70.3752
43.2303
17.4855
-2.78554
-26.602
-63.88
-12.719
-35.5735
-27.582
-38.8831
-41.7544
-48.5535
-53.5935
-58.9303
-63.5095
-67.545
-70.7897
-73.1871
-74.6244
-75.0115
-74.2728
-72.1788
-68.7636
-65.5291
-63.1246
-61.7744
-36.7958
-44.5067
-36.7818
-44.3753
-43.0126
-47.073
-49.0879
-52.4405
-55.5333
-58.9744
-62.4369
-66.0087
-69.576
-73.0028
-76.0014
-78.122
-78.5871
-78.323
-78.6221
-77.3457
-44.718
-48.846
-46.5247
-52.9992
-52.3948
-56.9061
-58.5307
-61.534
-63.7274
-65.994
-67.9312
-69.6357
-71.0242
-71.995
-72.3803
-71.8227
-70.2255
-67.6755
-65.9683
-62.9435
-45.6453
-47.0114
-43.3479
-46.1135
-42.2165
-43.2797
-40.9369
-40.1371
-38.4263
-36.8017
-34.9577
-32.9639
-30.8432
-28.6
-26.2992
-23.9109
-21.6024
-19.1516
-17.1688
-14.3119
-21.2167
-20.2715
-16.6115
-17.4731
-13.3082
-13.2839
-10.2412
-8.97201
-6.78802
-5.06258
-3.29804
-1.79934
-0.627391
0.0702381
0.274356
0.128463
0.211013
1.00927
2.18975
3.38834
3.04389
3.21622
5.22984
3.88146
6.38769
5.35367
6.96787
6.53614
7.04892
6.63137
6.24185
5.42204
4.43823
3.26859
2.03958
0.783997
-0.387149
-1.24986
-1.54305
-3.15553
-7.26155
-10.6682
-10.1895
-13.461
-13.1284
-15.8253
-16.1432
-18.1584
-19.0441
-20.6036
-21.7392
-23.0954
-24.4193
-26.0175
-27.8584
-29.9749
-32.0805
-33.4462
-35.1151
-39.0914
-52.6678
-58.1364
-58.9482
-63.4111
-64.9142
-69.0985
-71.499
-75.5331
-78.7665
-82.7654
-86.3239
-89.8841
-92.9217
-95.4868
-97.337
-98.5538
-99.06
-98.9467
-99.3306
-98.1547
-84.0973
-87.6795
-87.4476
-90.2618
-90.4205
-92.951
-93.6384
-95.6322
-96.6468
-97.9795
-98.6394
-98.9267
-98.568
-97.656
-96.2643
-94.4443
-92.5276
-90.322
-88.554
-84.9386
-70.2741
-69.8379
-67.9824
-68.0807
-66.0568
-65.6921
-63.9235
-62.9035
-61.2977
-59.8243
-58.1444
-56.388
-54.5372
-52.5924
-50.6152
-48.5063
-46.4235
-43.9363
-41.8068
-38.5426
-42.8894
-40.7693
-38.5956
-37.5649
-35.3275
-34.154
-32.2255
-30.7473
-29.0682
-27.488
-25.9158
-24.3678
-22.8559
-21.3478
-19.8689
-18.3364
-16.8774
-15.2371
-13.9893
-12.1876
-23.0144
-20.5462
-18.5459
-17.1918
-15.243
-14.0335
-12.3877
-11.0682
-9.67559
-8.36662
-7.10082
-5.86978
-4.67159
-3.46982
-2.24957
-0.924243
0.415999
1.95453
3.13767
4.69429
-0.0647198
2.1819
3.49967
4.70632
6.07231
6.92613
8.04442
8.84071
9.65196
10.3305
10.9654
11.5962
12.3062
13.1637
14.2338
15.4756
16.7769
18.0361
18.9282
19.8619
14.229
15.7746
16.3225
17.2107
18.0447
18.8224
19.8534
20.7718
21.7958
22.7151
23.4941
23.9615
23.9551
23.2673
21.9274
20.16
18.7606
17.8872
18.0269
17.4494
32.8554
32.3652
31.616
31.6037
31.6807
31.4226
31.0503
30.1942
28.9656
27.0354
24.3178
20.5948
15.846
10.3547
4.87907
0.282251
-2.82074
-4.16543
-3.9525
-6.26633
10.1665
6.14497
2.53709
-0.822268
-4.24015
-7.72074
-10.8319
-13.769
-16.4117
-18.915
-21.2013
-23.3085
-25.1359
-26.6094
-27.6973
-28.3785
-28.3989
-27.582
-27.8189
-31.625
-35.0533
-42.0688
-47.0235
-50.3136
-53.7648
-57.2931
-60.8367
-64.565
-68.4825
-72.6183
-76.7791
-80.7658
-84.335
-87.3055
-89.5512
-90.8696
-91.2755
-91.7081
-92.809
-92.8966
-106.654
-107.682
-105.013
-101.585
-99.6919
-98.5996
-98.1919
-98.3973
-99.0291
-99.8897
-100.701
-101.275
-101.441
-101.149
-100.456
-99.3483
-98.0709
-96.3893
-94.9986
-92.2677
-51.3405
-48.7653
-46.3988
-44.5768
-44.2956
-44.8941
-46.2813
-47.997
-49.8065
-51.5977
-53.0065
-54.3468
-55.3102
-55.5948
-55.4268
-54.8153
-53.9105
-52.1992
-50.5948
-47.7531
)
;

boundaryField
{
    outletWallLeft
    {
        type            fixedValue;
        value           uniform 0;
    }
    fineWallsLeft
    {
        type            zeroGradient;
    }
    fineFrontAndBackLeft
    {
        type            zeroGradient;
    }
    fineplugLeft
    {
        type            cyclicAMI;
        value           nonuniform List<scalar> 
20
(
63.4895
67.0839
62.1029
61.2245
60.9492
60.7342
60.5364
60.3114
60.2339
59.9414
60.2103
62.4248
57.0443
56.548
56.324
56.0589
56.0699
55.69
56.5153
55.1942
)
;
    }
    symmetryWallLeft
    {
        type            cyclicAMI;
        value           nonuniform List<scalar> 
20
(
22.8054
31.4844
25.5857
-12.2946
-84.3514
-145.544
-135.067
-47.2623
-14.7034
-1.42727
-3.91279
12.6831
-11.9699
-86.4742
-62.6534
4.94385
28.542
27.4824
-44.4285
82.7181
)
;
    }
    inletOutletLeft
    {
        type            cyclicAMI;
        value           nonuniform List<scalar> 
20
(
55.1942
56.5153
55.69
56.0699
56.0589
56.324
56.548
57.0443
62.4248
60.2103
59.9414
60.2339
60.3114
60.5364
60.7342
60.9492
61.2245
62.1029
67.0839
63.4895
)
;
    }
    inletLeft
    {
        type            zeroGradient;
    }
    inletWallsLeft
    {
        type            zeroGradient;
    }
    inletFacesLeft
    {
        type            zeroGradient;
    }
    fineWallsRight
    {
        type            zeroGradient;
    }
    outletWallRight
    {
        type            zeroGradient;
    }
    fineplugRight
    {
        type            cyclicAMI;
        value           nonuniform List<scalar> 
20
(
-42.722
-43.5959
-44.2446
-44.7872
-44.8674
-44.4794
-43.6059
-44.0165
-46.3487
-39.576
-37.7287
-36.0186
-34.3132
-32.9456
-31.9242
-31.5298
-32.7859
-36.8884
-42.2874
-42.8775
)
;
    }
    fineFrontAndBackRight
    {
        type            zeroGradient;
    }
    symmetryWallRight
    {
        type            cyclicAMI;
        value           nonuniform List<scalar> 
20
(
22.8054
31.4844
25.5857
-12.2946
-84.3514
-145.544
-135.067
-47.2623
-14.7034
-1.42727
-3.91279
12.6831
-11.9699
-86.4742
-62.6534
4.94385
28.542
27.4824
-44.4285
82.7181
)
;
    }
    inletOutletRight
    {
        type            cyclicAMI;
        value           nonuniform List<scalar> 
20
(
-42.722
-43.5959
-44.2446
-44.7872
-44.8674
-44.4794
-43.6059
-44.0165
-46.3487
-39.576
-37.7287
-36.0186
-34.3132
-32.9456
-31.9242
-31.5298
-32.7859
-36.8884
-42.2874
-42.8775
)
;
    }
    inletRight
    {
        type            zeroGradient;
    }
    inletWallsRight
    {
        type            zeroGradient;
    }
    inletFacesRight
    {
        type            zeroGradient;
    }
}


// ************************************************************************* //
