/*--------------------------------*- C++ -*----------------------------------*\
| =========                 |                                                 |
| \\      /  F ield         | OpenFOAM: The Open Source CFD Toolbox           |
|  \\    /   O peration     | Version:  4.1                                   |
|   \\  /    A nd           | Web:      www.OpenFOAM.org                      |
|    \\/     M anipulation  |                                                 |
\*---------------------------------------------------------------------------*/
FoamFile
{
    version     2.0;
    format      ascii;
    class       surfaceScalarField;
    location    "20";
    object      phi;
}
// * * * * * * * * * * * * * * * * * * * * * * * * * * * * * * * * * * * * * //

dimensions      [0 3 -1 0 0 0 0];

internalField   nonuniform List<scalar> 
3120
(
-8139.93
-68296.7
-8139.92
768.759
-8908.54
768.953
4032.35
-3263.42
6003.92
-1971.55
6003.89
7313.63
-1309.74
7939.13
-625.533
7939.12
8504.12
-565.021
8504.11
9049.59
-545.502
9251.56
-201.975
9251.54
8967.39
284.128
8967.38
8162.11
805.251
7473.97
688.147
7473.97
8056.72
10601
-1549.86
11602.8
12582.6
13567.4
14558.3
15553.3
16550.1
17547.8
18545.6
19544.4
17623.3
2916.99
18636.4
19653.7
20673.4
21696.6
22721.4
23768
24857.7
25606.6
18879.5
6727.15
18879.5
18879.5
11482.6
7396.96
11482.6
11482.6
11482.6
4298.63
7183.92
4298.57
4298.56
-915.955
5214.41
-916.126
-916.355
-916.432
-1272
355.44
-1272.08
-1272.22
-1272.27
-1017.34
-255.078
-7008
-10371.1
-2768.76
-10939.2
2801.08
-6017.06
4607.94
-5468.49
2094.36
-21526.1
3682.57
-19674.7
4645.97
8436
1959.96
28213.1
-688.138
28278.7
-2359.63
22683.5
-3357.17
18385
-4506.18
20845
-5788.73
23998.4
-5046.02
13949.3
-4059.99
-8032.69
-4979.77
-20420.1
-6458.87
-22806.7
-5233.35
-15302.8
-6771.99
-8495.87
-3136.58
-2528.77
-16906.3
3012.37
-11558.2
1876.8
-4332.91
-201.919
-19447.4
2571.35
-22447.9
3874.49
7132.86
1873.91
30213.7
-329.41
30482
-2059.32
24413.4
-3240.07
19565.7
-4056.83
21661.7
-4542.53
24484.1
-3539.9
12946.6
-2568.91
-9003.69
-2762.78
-20226.2
-4701.47
-20868
-6096.11
-13908.2
-12512.7
-10354.8
5952.83
-4558.71
-22702.4
-965.286
-15151.6
-2140.36
-3157.84
-1410.82
-20177
1612.7
-25471.5
3218.73
5526.83
1809.87
31622.6
63.842
32228.1
-1637.24
26114.5
-2976.1
20904.6
-3445.95
22131.6
-3264.84
24303
-2379.83
12061.6
-1590.96
-9792.56
-1244.82
-20572.3
-2876.23
-19236.6
-6021.2
-10763.2
-13319.5
-12495.2
17983.7
-7808.43
-27389.2
-4129.39
-18830.7
-3637.09
-3650.13
-1923.67
-21890.4
530.4
-27925.5
2611.56
3445.67
1804.02
32430.1
511.753
33520.3
-1026.35
27652.6
-2467.3
22345.5
-2670.14
22334.4
-1948.15
23581
-986.548
11100
-295.598
-10483.5
-49.8001
-20818.2
-1517.05
-17769.3
-5477.68
-6802.62
-11613.3
-14843.1
32885.9
-10844.8
-31387.6
-4936.5
-24738.9
-3410.22
-5176.4
-2358.26
-22942.4
-316.559
-29967.2
2034.39
1094.72
1871.25
32593.2
1009.92
34381.6
-195.345
28857.8
-1647.09
23797.3
-1774.28
22461.6
-653.481
22460.2
494.779
9951.75
1144.36
-11133.1
1009.53
-20683.3
-229.011
-16530.8
-4080.86
-2950.77
-8297.18
-17386.2
50712.6
-13504.5
-35269.3
-4990.97
-33252.5
-2878.25
-7289.13
-2610.99
-23209.6
-959.273
-31619
1245.76
-1110.32
1997.44
31841.6
1541.25
34837.8
804.746
29594.3
-460.544
25062.6
-704.033
22705.1
540.373
21215.8
1886.09
8606.01
2454.14
-11701.2
1854.69
-20083.9
904.306
-15580.4
-1671.3
-375.217
-3241.34
-20101.2
71610.4
-16345
-39025.5
-5383.93
-44213.5
-2409.09
-10264
-2648.15
-22970.6
-1953.74
-32313.4
558.481
-3622.54
2161.48
30238.6
2084.89
34914.4
1812.68
29866.5
1065.32
25809.9
807.169
22963.2
1833.12
20189.8
3201.48
7237.66
3528.03
-12027.7
2407.4
-18963.3
1317.53
-14490.6
1408.6
-466.265
1084.32
-22797.1
95572
-19356.7
-42465.9
-6436.57
-57133.6
-2345.61
-14354.9
-2560.91
-22755.3
-2887.28
-31987
85.0573
-6594.88
2335.94
27987.7
2621.18
34629.2
2685.02
29802.7
2572.86
25922.1
2655.42
22880.7
3536.52
19308.7
4593.35
6180.82
4323.45
-11757.8
2707.39
-17347.2
1319.22
-13102.4
2351.44
-1498.53
1885.9
-25081.3
122215
-21943.5
-45603.7
-7759.08
-71318
-2675.41
-19438.6
-2398.71
-23032
-3280.13
-31105.6
-227.473
-9647.54
2488.13
25272.1
3127.62
33989.7
3386.3
29544
3716.01
25592.4
4271.82
22324.9
5282.85
18297.7
5875.91
5587.76
4829.04
-10710.9
2878.16
-15396.3
1636.38
-11860.6
1037.35
-899.457
3611.47
-26469.8
150664
-23352.1
-48721.4
-8670.33
-85999.8
-3086.4
-25022.5
-2147.06
-23971.3
-3433.74
-29818.9
-480.792
-12600.5
2582.19
22209.1
3585.58
32986.3
3948.77
29180.8
4449.61
25091.5
5286.65
21487.8
6429.63
17154.7
6649.56
5367.83
5058.82
-9120.22
3029.71
-13367.2
2122.86
-10953.8
844.665
378.705
5261.38
-26460.2
179552
-22947.7
-52233.8
-8564.22
-100383
-3267.02
-30319.7
-1808.92
-25429.4
-3516.92
-28110.9
-794.457
-15322.9
2585.58
18829.1
3987.46
31584.4
4425.17
28743.1
4909.68
24607
5770.76
20626.7
6876.75
16048.8
6884.23
5360.35
5104.48
-7340.47
3213.72
-11476.5
2629.28
-10369.3
1425.81
1582.23
6971.37
-24468.4
206874
-20254.3
-56447.9
-7083.75
-113554
-2990.92
-34412.6
-1432.64
-26987.7
-3507.07
-26036.5
-1168.46
-17661.6
2459.83
15200.8
4327.91
29716.3
4876.49
28194.5
5253.71
24229.8
5966.73
19913.7
6905.56
15109.9
6824.12
5441.79
5098.16
-5614.53
3484.39
-9862.7
3077.81
-9962.76
2107.55
2552.47
8876.94
-19798
229997
-14901.9
-61344
-4215.57
-124240
-2119.58
-36508.6
-1105.47
-28001.8
-3404.15
-23737.8
-1609.63
-19456.1
2154.14
11437
4583.76
27286.7
5358.64
27419.7
5626.89
23961.5
6102.01
19438.6
6806.69
14405.2
6691.91
5556.57
5145.11
-4067.71
3909.95
-8627.53
3592.83
-9645.63
2575.48
3569.87
10907
-11786.3
245398
-6679.04
-66451.2
-297.903
-130621
-713.562
-36092.9
-905.202
-27810.1
-3217.71
-21425.3
-2132.44
-20541.4
1594.99
7709.57
4669.83
24211.9
5855.48
26234
6126.2
23690.8
6345.57
19219.2
6771.91
13978.9
6632.78
5695.68
5342.36
-2777.3
4573.53
-7858.72
4358.1
-9430.21
3063.35
4864.62
13405.3
-816.19
250312
3908.91
-71176.3
4027.11
-130740
668.28
-32734.1
-890.355
-26251.5
-2955.85
-19359.8
-2788.84
-20708.4
713.223
4207.5
4531.85
20393.2
6297.31
24468.6
6791.22
23196.9
6856.06
19154.4
6998.32
13836.6
6817.53
5876.48
5738.49
-1698.25
5438.38
-7558.6
5284.53
-9276.34
3226.68
6922.52
16006.5
11162.7
242705
15145.7
-75159.3
7488.73
-123083
1095.89
-26341.2
-976.765
-24178.9
-2599.61
-17736.9
-3426.22
-19881.7
-308.168
1089.44
4121.42
15963.6
6478.3
22111.7
7422.65
22252.5
7575.56
19001.5
7553.55
13858.6
7324.63
6105.39
6448.66
-822.294
6154.65
-7264.61
6158.72
-9280.43
4246.43
8834.79
18943.1
22526.1
224935
24518.7
-77151.9
8832.74
-107397
577.336
-18085.8
-959.256
-22642.3
-2145.19
-16551
-3268.52
-18758.4
-787.389
-1391.69
3494.96
11681.3
6312.25
19294.4
7846.66
20718.1
8351.45
18496.7
8346.03
13864.1
8001.12
6450.31
6960.08
218.764
5742.78
-6047.31
5326.16
-8863.79
3113.79
11047.2
20085.4
26870.9
199865
31387.5
-81668.5
6943.25
-82952.4
-535.543
-10607
-827.47
-22350.3
-1756.06
-15622.4
-2868.4
-17646.1
-1319.68
-2940.41
2485.4
7876.22
5465.89
16313.9
7602.1
18581.9
8800.45
17298.3
9335.03
13329.5
9606.53
6178.8
8306.23
1519.08
5008.92
-2750
5395.47
-9250.32
6918.13
9524.55
23740.1
51257
157733
29726.9
-60138.4
-321.083
-52904.5
-1367.71
-9560.4
-747.709
-22970.3
-1277.55
-15092.6
-2777.18
-16146.4
-1464.09
-4253.5
2178.17
4233.96
4765.29
13726.8
6660.05
16687.1
7680.58
16277.8
7729.76
13280.3
7003.03
6905.53
8314.15
207.952
7244.72
-1680.57
-1378.65
-626.944
-6002.6
14148.5
8828.98
-75466.6
7470.17
-4943.07
-792.839
-492.209
-336.632
-1717.57
-2505.15
-681.533
4101.38
9066.51
13480.1
17503.5
18908.2
21122.1
17618.7
26192.8
12806.3
-24.5015
-558.282
34.2745
-1053.24
75.5267
-1043.01
99.8926
-1004.25
116.298
-1001.11
127.017
-1001.67
134.702
-1002.72
141.134
-1003.23
147.675
-1004.17
154.958
-1005.14
161.826
-1005.69
169.34
-1003.36
162.141
-1005.95
153.001
-1008.14
142.586
-1009.34
130.644
-1011.2
117.322
-1011.52
108.1
-1037.38
96.1066
-1077.74
-652.767
36.9683
-595.251
41.0282
-1057.3
32.2531
-1034.24
30.0645
-1002.06
30.6637
-1001.71
31.1548
-1002.16
31.3067
-1002.87
30.9556
-1002.88
30.2445
-1003.46
28.7977
-1003.69
27.4666
-1004.36
29.9085
-1005.8
29.4942
-1005.53
27.6548
-1006.3
25.002
-1006.69
21.3978
-1007.6
17.7889
-1007.92
13.2257
-1032.82
6.50436
-1071.03
-646.263
24.772
-620.022
27.373
-1059.9
22.1202
-1028.99
20.2127
-1000.15
18.8292
-1000.33
17.4225
-1000.75
16.0888
-1001.53
14.8527
-1001.64
13.6129
-1002.22
12.4355
-1002.51
11.0209
-1002.95
8.40629
-1003.18
6.60043
-1003.73
4.68774
-1004.39
2.57518
-1004.58
0.179727
-1005.21
-2.55287
-1005.18
-5.76831
-1029.61
-7.82219
-1068.97
-654.085
23.8632
-643.883
24.8875
-1060.92
19.8195
-1023.92
17.8552
-998.187
16.2498
-998.721
14.5094
-999.012
12.665
-999.687
10.7653
-999.742
8.80552
-1000.26
6.76574
-1000.47
4.72387
-1000.91
2.85462
-1001.31
0.722034
-1001.59
-1.52976
-1002.14
-3.80576
-1002.3
-6.19882
-1002.81
-8.67589
-1002.71
-12.8329
-1025.45
-14.5944
-1067.21
-668.679
22.3397
-666.221
21.9689
-1060.55
16.7713
-1018.72
14.5136
-995.928
12.5598
-996.766
10.5518
-997.003
8.51836
-997.653
6.49854
-997.721
4.45898
-998.22
2.41742
-998.431
0.352547
-998.84
-1.79871
-999.162
-3.89219
-999.5
-6.03169
-999.997
-8.15184
-1000.18
-10.3027
-1000.66
-12.5827
-1000.43
-17.0254
-1021
-18.5154
-1065.72
-687.195
21.5832
-687.804
20.475
-1059.44
15.6982
-1013.94
13.6392
-993.869
11.7354
-994.862
9.77727
-995.044
7.77367
-995.649
5.77115
-995.718
3.74153
-996.19
1.69886
-996.388
-0.35542
-996.785
-2.42322
-997.093
-4.50415
-997.419
-6.6346
-997.866
-8.74242
-998.073
-10.873
-998.529
-13.0859
-998.213
-17.6855
-1016.4
-19.6777
-1063.73
-706.872
21.2193
-709.023
19.3421
-1057.56
14.7533
-1009.35
12.7454
-991.86
10.847
-992.963
8.90924
-993.106
6.9375
-993.676
4.97571
-993.755
2.99274
-994.206
1.00684
-994.401
-0.988589
-994.789
-3.00593
-995.075
-5.01249
-995.412
-7.05766
-995.82
-9.07364
-996.057
-11.107
-996.495
-13.1782
-996.141
-17.6003
-1011.98
-20.1257
-1061.2
-726.998
20.9467
-729.97
18.4146
-1055.03
14.0867
-1005.02
12.1979
-989.972
10.3553
-991.121
8.48257
-991.233
6.57477
-991.769
4.677
-991.858
2.757
-992.286
0.834949
-992.479
-1.09692
-992.858
-3.04477
-993.128
-4.98686
-993.47
-6.96601
-993.842
-8.91563
-994.107
-10.8862
-994.525
-12.8514
-994.176
-17.084
-1007.75
-20.2041
-1058.08
-747.202
20.7609
-750.73
17.576
-1051.84
13.4965
-1000.94
11.7029
-988.177
9.91396
-989.33
8.10241
-989.421
6.2578
-989.923
4.42465
-990.024
2.56937
-990.43
0.714567
-990.624
-1.15081
-990.992
-3.0299
-991.248
-4.90279
-991.596
-6.80959
-991.934
-8.68691
-992.229
-10.5896
-992.621
-12.451
-992.314
-16.4467
-1003.75
-20.165
-1054.37
-767.367
20.589
-771.319
16.7709
-1048.03
12.9502
-997.123
11.2534
-986.481
9.52387
-987.601
7.779
-987.676
6.00159
-988.146
4.23605
-988.259
2.44775
-988.642
0.661464
-988.838
-1.13689
-989.193
-2.94637
-989.439
-4.75177
-989.791
-6.58878
-990.097
-8.39745
-990.421
-10.2366
-990.782
-12.0048
-990.546
-15.7555
-1000
-20.0725
-1050.05
-787.44
20.4352
-791.754
15.9884
-1043.58
12.432
-993.566
10.823
-984.872
9.15351
-985.932
7.47473
-985.997
5.76431
-986.436
4.06596
-986.56
2.34433
-986.92
0.626266
-987.12
-1.10566
-987.462
-2.846
-987.698
-4.58469
-988.053
-6.35205
-988.33
-8.09292
-988.68
-9.86881
-989.007
-11.5511
-988.864
-15.0483
-996.506
-19.9619
-1045.13
-807.402
20.2876
-812.044
15.217
-1038.51
11.9291
-990.28
10.402
-983.346
8.79376
-984.325
7.18144
-984.387
5.53826
-984.794
3.90712
-984.931
2.25217
-985.267
0.602192
-985.471
-1.06362
-985.797
-2.73488
-986.028
-4.4078
-986.381
-6.10573
-986.633
-7.78003
-987.007
-9.49271
-987.295
-11.0957
-987.262
-14.3357
-993.266
-19.8438
-1039.63
-827.245
20.1487
-832.193
14.4564
-1032.82
11.4408
-987.265
9.98979
-981.896
8.44418
-982.78
6.8987
-982.842
5.32307
-983.219
3.75923
-983.367
2.17113
-983.679
0.588982
-983.889
-1.011
-984.197
-2.61333
-984.427
-4.22145
-984.773
-5.84983
-985.005
-7.45884
-985.398
-9.10796
-985.646
-10.6381
-985.732
-13.6195
-990.285
-19.7202
-1033.53
-846.966
20.0197
-852.214
13.7044
-1026.5
10.9636
-984.525
9.58396
-980.518
8.10288
-981.3
6.62526
-981.366
5.11768
-981.713
3.62158
-981.873
2.10094
-982.16
0.586439
-982.376
-0.947408
-982.665
-2.48081
-982.895
-4.02508
-983.23
-5.58337
-983.448
-7.12886
-983.854
-8.71364
-984.062
-10.1768
-984.27
-12.9002
-987.563
-19.5906
-1026.84
-866.556
19.91
-872.125
12.9647
-1019.56
10.5006
-982.062
9.1887
-979.207
7.77408
-979.887
6.36591
-979.959
4.92651
-980.275
3.49831
-980.446
2.04575
-980.709
0.598122
-980.93
-0.869132
-981.199
-2.33381
-981.431
-3.81488
-981.75
-5.30165
-981.962
-6.78546
-982.371
-8.30379
-982.545
-9.70532
-982.869
-12.1731
-985.096
-19.447
-1019.56
-886.003
19.8435
-891.97
12.2545
-1011.97
10.0737
-979.883
8.83219
-977.967
7.48838
-978.544
6.15393
-978.626
4.78322
-978.905
3.42138
-979.086
2.03497
-979.324
0.649032
-979.545
-0.756068
-979.795
-2.15891
-980.029
-3.58326
-980.327
-5.00303
-980.544
-6.4337
-980.941
-7.88523
-981.094
-9.23227
-981.522
-11.4493
-982.879
-19.2863
-1011.73
-905.289
19.8666
-911.837
11.6129
-1003.72
9.74372
-978.015
8.6002
-976.824
7.34851
-977.293
6.11014
-977.388
4.82608
-977.622
3.54287
-977.803
2.23251
-978.014
0.912196
-978.225
-0.430312
-978.453
-1.7786
-978.682
-3.15641
-978.949
-4.52635
-979.174
-5.93082
-979.537
-7.33437
-979.691
-8.66844
-980.189
-10.673
-980.875
-19.0381
-1003.36
-924.328
20.076
-931.914
11.1012
-994.745
9.58884
-976.503
8.60363
-975.84
7.48187
-976.172
6.37002
-976.277
5.20124
-976.454
4.0159
-976.618
2.79804
-976.796
1.55665
-976.985
0.288097
-977.185
-0.998308
-977.396
-2.31947
-977.629
-3.64052
-977.853
-5.02143
-978.157
-6.38035
-978.332
-7.75977
-978.81
-9.59927
-979.036
-18.4208
-994.542
-942.748
20.7984
-952.713
11.069
-985.016
9.96407
-975.398
9.25087
-975.127
8.35643
-975.278
7.43105
-975.352
6.42274
-975.446
5.35123
-975.547
4.21206
-975.658
3.00786
-975.781
1.74058
-975.918
0.415986
-976.071
-0.96824
-976.245
-2.38578
-976.436
-3.87496
-976.668
-5.3286
-976.879
-6.87901
-977.259
-8.53144
-977.383
-17.5631
-985.51
-960.311
22.2871
12.2708
11.8724
11.7453
11.4671
11.1151
10.6691
10.1218
9.46396
8.68289
7.76485
6.69319
5.4483
4.01191
2.34381
0.464721
-1.79476
-4.17837
-14.6886
-1017.71
-69.9785
-948.178
-71.2574
-72.5947
-73.0226
-2133.24
2060.15
-2133.27
-2133.33
-2133.32
-6821.46
4688.13
-6821.45
-6821.46
-13895
7073.54
-13895
-13895
-13895
-22018.9
8123.98
-22018.9
-22018.9
-29450.1
7431.2
-29432.2
-29250.4
-28960.7
-28566
-28071.2
-27474.2
-26770.9
-25956.7
-30248.9
5222.68
-29223.1
-28081
-26823.1
-25447.2
-23947.1
-22306.6
-20507.9
-18590
-16792.3
-15472.2
-121.893
-15050.9
-15050.9
-15629.2
578.321
-15195.8
-433.405
-15195.8
-14108
-1087.74
-14108
-12267.9
-1840.14
-9823.33
-2444.52
-9823.32
-6865.67
-2957.64
-6865.65
-3672.98
-3192.65
-851.379
-2821.54
-851.316
1325.73
-2176.99
2300.26
-974.495
2300.29
1726.39
573.933
1726.43
1726.43
1033.98
-1033.98
1219.95
-185.975
626.992
592.95
-1103.88
1730.87
-1599.08
495.2
-653.466
-945.621
-221.463
-432.01
784.702
-1006.17
1087.39
-302.688
-67.1097
1154.49
-803.794
736.684
156.244
-960.038
1543.51
-1387.26
2750.54
-1207.03
4827.93
-2077.39
6887.74
-2059.8
5937.86
949.908
1209.22
4728.66
2935.69
920.682
-1954.67
748.168
-13.4757
-284.149
1625.26
-1310.53
2757.25
-1099.84
284.503
14.6604
-2060.13
573.804
-991.159
1445.34
-1877.71
1695.39
-552.733
-57.8894
2907.76
-1015.91
1694.71
206.108
-2182.06
1465.17
-2646.32
2639.22
-2381.08
4658.35
-4096.52
6864.98
-4266.42
7508.34
306.581
3761.12
8475.91
7270.77
769.783
-2724.45
66.0966
690.207
-716.456
2407.81
-1144.15
3184.94
-833.628
-26.0263
299.191
-3192.95
869.461
-1561.43
1587.04
-2595.3
1985.3
-950.994
253.046
4640.02
-836.144
2783.89
346.314
-3364.52
1416.73
-3716.73
2451.66
-3416.01
4316.89
-5961.74
6201.09
-6150.61
7207.69
-700.002
5092.04
10591.6
11388.3
540.409
-3264.86
-125.335
1355.94
-554.035
2836.51
-938.757
3569.66
-630.505
-334.284
464.492
-4287.95
1016.91
-2113.85
1741.48
-3319.87
2335.26
-1544.78
910.219
6065.06
-186.225
3880.34
513.72
-4064.46
1122.19
-4325.2
1924.1
-4217.92
3584.53
-7622.16
5383.99
-7950.06
6534.79
-1850.77
5552.42
11574
14763.8
465.527
-3730.39
140.717
1680.75
-160.662
3137.89
-756.084
4165.08
-445.482
-644.887
589.64
-5323.07
1143.65
-2667.86
2033.91
-4210.13
2777.32
-2288.19
1743.58
7098.8
681.158
4942.76
578.333
-3961.64
582.063
-4328.93
1121.05
-4756.91
2593.36
-9094.47
4316.19
-9672.89
5523.35
-3057.93
5397.12
11700.2
17339.4
603.597
-4333.99
697.375
1586.96
252.859
3582.4
-583.238
5001.18
-248.547
-979.583
726.854
-6298.47
1303.05
-3244.06
2366.38
-5273.46
3166
-3087.81
2404.92
7859.88
1371.47
5976.2
472.473
-3062.64
-121.838
-3734.61
191.003
-5069.75
1425.81
-10329.3
2998.41
-11245.5
4233.97
-4293.45
4765.69
11168.5
18912.4
888.833
-5222.82
1234.07
1241.73
611.634
4204.84
-380.89
5993.7
-7.26239
-1353.21
908.201
-7213.93
1498.29
-3834.15
2644.37
-6419.53
3411.18
-3854.62
2768.79
8502.27
1643.57
7101.42
120.933
-1540.01
-910.807
-2702.87
-837.546
-5143.01
104.845
-11271.7
1497.11
-12637.7
2768.78
-5565.12
3811.83
10125.5
19766.6
1107.69
-6330.52
1564.91
784.495
874.358
4895.39
-146.13
7014.18
304.424
-1803.77
1154.04
-8063.55
1716.53
-4396.65
2790.32
-7493.32
3474.76
-4539.06
2885.23
9091.79
1470.23
8516.42
-500.896
431.112
-1750.24
-1453.53
-1956.22
-4937.02
-1325.88
-11902
-65.4027
-13898.2
1263.84
-6894.34
2688.6
8700.73
20010.7
1245.23
-7575.75
1743.51
286.22
1074.04
5564.86
119.353
7968.87
689.51
-2373.92
1482.48
-8856.52
1944.98
-4859.15
2736.14
-8284.48
3308.79
-5111.71
2702.49
9698.09
774.72
10444.2
-1510.85
2716.68
-2669.45
-294.919
-3168.36
-4438.12
-2811.01
-12259.4
-1643.78
-15065.5
-182.815
-8355.31
1432.92
7085.01
19603.5
1384.21
-8959.96
1923.87
-253.454
1280.06
6208.66
430.077
8818.86
1166.27
-3110.12
1913.18
-9603.43
2183.92
-5129.89
2446.73
-8547.29
2780.59
-5445.57
1905.37
10573.3
-389.504
12739.1
-2554.05
4881.22
-3662.53
813.561
-4447.68
-3652.98
-4331.33
-12375.7
-3214.7
-16182.1
-1637.54
-9932.46
136.327
5311.18
18652.1
1610.34
-10570.3
2241.6
-884.705
1551.99
6898.27
829.089
9541.76
1760.94
-4041.97
2473.6
-10316.1
2458.74
-5115.03
1962.4
-8050.95
1638.06
-5121.23
313.825
11897.5
-1685
14737.9
-3343.59
6539.8
-4706.47
2176.45
-5764.39
-2595.06
-5881.85
-12258.2
-4764.86
-17299.1
-2998.68
-11698.6
-993.923
3306.41
17224.8
1974.58
-12544.9
2603.14
-1513.27
1882.19
7619.22
1327.82
10096.1
2497.67
-5211.82
3200.06
-11018.5
2827.69
-4742.67
1406.82
-6630.08
-248.202
-3466.2
-1715.26
13364.6
-2659.46
15682.1
-3922.04
7802.38
-5692.92
3947.33
-7050.2
-1237.78
-7425.73
-11882.7
-6325.36
-18399.5
-4199.98
-13824
-2058.17
1164.64
15745
2444.83
-14989.7
2926.87
-1995.31
2213.65
8332.44
1901.21
10408.6
3391.46
-6702.06
4132.36
-11759.4
3361.66
-3971.97
919.375
-4187.79
-2091.4
-455.424
-3209.93
14483.1
-3152.68
15624.8
-4397.57
9047.26
-6508.75
6058.51
-8171.09
424.564
-8843.01
-11210.8
-7935.07
-19307.4
-5503.11
-16256
-3049.25
-1289.24
12573.8
2874.56
-17864.3
3115.09
-2235.85
2486.58
8960.95
2525.38
10369.8
4450.62
-8627.3
5295.91
-12604.7
4062.86
-2738.94
743.404
-868.337
-3133.98
3421.96
-3764.39
15113.5
-3364.13
15224.6
-4788.91
10472
-7040.21
8309.81
-8948.13
2332.48
-9913.54
-10245.4
-9443.86
-19777.1
-6957.37
-18742.5
-4445.97
-3800.63
13350.5
2993.89
-20858.2
2983.58
-2225.53
2632.81
9311.72
3174.94
9827.63
5664.14
-11116.5
6671.93
-13612.5
4898.21
-965.215
846.965
3182.91
-3317.71
7586.64
-3737.43
15533.3
-3491.8
14979
-5047.48
12027.7
-7290.35
10552.7
-9387.82
4429.96
-10494.7
-9138.51
-10536.9
-19734.9
-9386.81
-19892.6
-7539.23
-5648.24
13242.5
2461.59
-23319.8
2307.84
-2071.77
2568.41
9051.15
3803.96
8592.08
6958
-14270.5
8082.44
-14736.9
5708.14
1409.08
1058.72
7832.34
-2980.88
11626.2
-3528.16
16080.5
-3588.79
15039.6
-5178.22
13617.1
-7469.86
12844.3
-9808.67
6768.77
-10812.9
-8134.29
-10709
-19838.7
-10437.7
-20163.9
-9565.55
-6520.43
11800.9
1194.96
-24514.7
1121.7
-1998.5
2273.94
7898.91
4353.72
6512.29
8095.22
-18012
9166.88
-15808.6
6308.06
4267.89
1406.71
12733.7
-2458.06
15491
-3300.58
16923.1
-3629.24
15368.2
-5212.49
15200.4
-7693.28
15325.1
-10333.8
9409.27
-11158.1
-7309.96
-10418.4
-20578.4
-9725.55
-20856.8
-9225.18
-7020.83
9649.25
-360.159
-24154.6
-3.80566
-2354.85
1861.22
6033.88
4768.09
3605.42
8557.57
-21801.5
9446.84
-16697.8
6590.74
7123.98
1740.83
17583.6
-1928.74
19160.6
-3075.24
18069.6
-3597.48
15890.5
-5169.45
16772.4
-7851.47
18007.1
-10555
12112.7
-11162.3
-6702.64
-10159.9
-21580.8
-8524.55
-22492.2
-7315.88
-8229.54
7021.44
-2610.07
-21544.5
-747.231
-4217.68
1595.75
3690.91
5115.23
85.9457
7642.6
-24328.9
8301.63
-17356.9
6341.04
9084.57
1951.55
21973.1
-1458
22570.1
-2844.27
19455.8
-3517.3
16563.5
-5045.54
18300.6
-7661.02
20622.6
-9688.95
14140.7
-9850.48
-6541.11
-9452.51
-21978.8
-7844.66
-24100
-5412
-10662.2
3669.55
-4931.01
-2448.71
1689.42
5436.98
5147.82
5877.42
5562.58
2008.55
-1051.94
-2608.08
-3431.99
-4827.38
-6920.63
-7471.96
-6966.42
-7605.34
-7419.61
-4004.67
-671.488
1646.49
-1089.66
1393.17
-1517.11
1402.45
-1860.81
1318.7
-2166.04
1280.23
-2421.54
1230.5
-2635.27
1188.72
-2806.72
1146.45
-2937.7
1105.98
-3028.77
1066.07
-3080.5
1026.73
-3091.9
986.403
-3058.19
941.284
-2967.4
884.208
-2798.67
806.268
-2525.03
701.366
-2120.37
570.337
-1567.42
422.051
-858.361
265.941
116.639
-216.661
1863.15
-482.484
1658.99
-763.353
1683.32
-1003.99
1559.34
-1236.14
1512.38
-1436.94
1431.3
-1615.9
1367.68
-1768.26
1298.82
-1896.97
1234.69
-2002.05
1171.15
-2084.21
1108.89
-2140.31
1042.5
-2160.46
961.434
-2123.36
847.105
-1991.49
674.401
-1709.05
418.929
-1261.71
122.993
-796.121
-43.536
-359.078
-171.103
-242.438
-154.829
2017.98
-339.452
1843.62
-484.051
1827.92
-585.855
1661.14
-677.042
1603.56
-735.292
1489.55
-777.686
1410.08
-797.854
1318.99
-800.447
1237.28
-784.524
1155.22
-751.033
1075.4
-700.425
991.895
-634.506
895.514
-556.255
768.854
-469.12
587.265
-373.999
323.807
-286.936
35.9293
-222.376
-108.097
-164.656
-228.823
-407.094
29.7231
1988.25
-5.84814
1879.19
-3.19514
1825.27
17.6407
1640.31
41.9331
1579.27
83.4717
1448.01
132.557
1360.99
194.101
1257.44
266.585
1164.8
350.525
1071.28
445.388
980.535
547.682
889.601
648.238
794.958
727.622
689.469
750.488
564.399
662.578
411.717
442.098
256.409
232.772
101.229
81.6907
-77.7422
-325.404
88.0772
1900.18
98.1828
1869.08
142.097
1781.35
192.323
1590.08
244.261
1527.33
304.177
1388.1
366.731
1298.44
436.323
1187.85
509.853
1091.27
586.561
994.575
663.817
903.278
738.593
814.825
806.35
727.201
859.027
636.791
882.655
540.771
851.948
442.423
756.138
352.219
588.153
269.214
331.757
178.654
6.35303
58.418
1841.76
90.053
1837.45
131.554
1739.85
168.441
1553.19
205.525
1490.25
244.548
1349.07
279.126
1263.86
315.202
1151.77
350.105
1056.36
391.91
952.77
445.812
849.376
521.657
738.98
625.305
623.552
752.178
509.919
875.96
416.989
942.015
376.368
892.606
401.627
700.487
461.333
385.33
493.81
391.683
-41.6642
1883.42
-51.7055
1847.49
-75.3496
1763.49
-121.511
1599.36
-166.392
1535.13
-226.556
1409.24
-298.622
1335.92
-381.243
1234.39
-463.766
1138.89
-528.426
1017.43
-560.742
881.692
-547.546
725.784
-485.59
561.595
-381.632
405.96
-248.538
283.895
-96.0128
223.843
56.7774
248.836
161.863
356.247
149.372
506.301
541.056
-88.3033
1971.72
-192.493
1951.68
-283.033
1854.03
-394.064
1710.39
-506.382
1647.45
-633.301
1536.16
-771.364
1473.99
-919.855
1382.88
-1070.44
1289.47
-1210.28
1157.26
-1332.86
1004.28
-1435.2
828.126
-1519.36
645.748
-1579.84
466.445
-1589.43
293.486
-1500.57
134.976
-1279.54
27.8082
-903.479
-19.8117
-406.457
9.2792
134.599
67.257
1904.47
-73.4384
2092.37
-152.807
1933.4
-216.446
1774.02
-273.156
1704.15
-328.64
1591.64
-378.425
1523.77
-425.749
1430.21
-473.638
1337.36
-526.488
1210.11
-587.104
1064.89
-658.454
899.475
-739.989
727.283
-825.541
551.996
-904.86
372.805
-964.024
194.14
-976.489
40.273
-865.073
-131.228
-551.567
-304.227
-416.968
278.083
1626.38
224.12
2146.33
185.537
1971.99
195.48
1764.08
233.746
1665.89
276.305
1549.08
334.998
1465.08
398.986
1366.22
465.326
1271.02
516.663
1158.78
545.69
1035.86
544.007
901.158
511.035
760.255
447.967
615.065
354.317
466.455
237.966
310.491
131.829
146.41
49.9343
-49.334
-40.9461
-213.347
-457.914
320.844
1305.54
369.451
2097.73
360.211
1981.22
389.971
1734.32
456.151
1599.71
525.735
1479.5
606.251
1384.56
689.266
1283.2
775.158
1185.13
851.657
1082.28
911.524
975.998
946.669
866.013
952.8
754.123
926.63
641.235
864.796
528.288
762.647
412.64
615.482
293.574
410.246
155.902
204.169
-7.26939
-253.745
214.642
1090.9
283.959
2028.41
304.558
1960.63
338.29
1700.59
396.356
1541.64
457.654
1418.2
522.492
1319.73
585.872
1219.82
647.937
1123.07
703.044
1027.17
746.084
932.958
771.58
840.516
775.933
749.771
757.09
660.078
714.038
571.341
643.998
482.68
541.072
396.501
393.608
303.367
197.466
188.872
-56.2792
72.9696
1017.93
118.856
1982.52
170.838
1908.64
221.915
1649.51
283.284
1480.27
346.909
1354.57
409.889
1256.75
468.641
1161.07
522.628
1069.08
570.514
979.283
611.634
891.838
646.329
805.822
675.691
720.409
698.509
637.259
707.609
562.24
685.23
505.059
608.862
472.869
458.919
453.31
236.123
411.668
179.844
-66.0158
1083.95
-22.3276
1938.84
69.7805
1816.54
142.137
1577.16
211.548
1410.86
282.262
1283.86
355.492
1183.52
433.09
1083.48
516.54
985.63
608.465
887.359
710.273
790.03
820.63
695.465
932.226
608.813
1025.68
543.81
1070.15
517.769
1031.75
543.461
890.04
614.575
645.317
698.033
338.721
718.263
518.565
-146.602
1230.55
-126.313
1918.55
-23.7515
1713.98
44.8762
1508.53
77.0243
1378.71
95.5027
1265.38
120.746
1158.27
162.083
1042.14
225.009
922.705
313.872
798.496
429.744
674.158
568.226
556.984
715.877
461.162
847.579
412.108
925.926
439.423
910.439
558.947
776.375
748.639
535.388
939.02
248.293
1005.36
766.858
-90.3791
1320.93
-171.722
1999.89
-275.827
1818.08
-369.966
1602.67
-478.275
1487.02
-607.716
1394.83
-737.235
1287.79
-855.748
1160.65
-958.611
1025.57
-1044.22
884.109
-1110.31
740.244
-1151.75
598.423
-1159.23
468.646
-1115.33
368.209
-999.058
323.149
-800.364
360.253
-540.734
489.009
-279.484
677.771
-95.789
821.663
671.069
230.708
1090.22
363.431
1867.17
208.215
1973.3
-49.2269
1860.11
-294.278
1732.07
-521.578
1622.12
-742.073
1508.29
-959.844
1378.42
-1174.7
1240.42
-1388.1
1097.51
-1599.6
951.744
-1802.76
801.583
-1981.03
646.916
-2103.52
490.696
-2122.97
342.603
-1980.4
217.682
-1629.52
138.133
-1078.52
126.77
-437.349
180.49
233.719
542.345
547.876
1014.19
1395.32
1013.44
1974.05
778.411
2095.14
534.724
1975.76
333.845
1823
155.3
1686.83
-16.7597
1550.48
-183.371
1407.03
-343.479
1257.62
-497.058
1105.32
-644.003
948.528
-784.549
787.462
-915.4
621.547
-1026.44
453.64
-1092.31
283.551
-1067.69
113.513
-895.092
-45.8256
-526.005
-188.597
-292.285
337.041
210.836
527.029
1205.33
511.012
1990.07
446.636
2159.52
403.18
2019.22
392.577
1833.61
405.085
1674.32
424.433
1531.13
440.936
1390.53
450.183
1248.37
451.149
1104.36
436.784
962.893
405.099
819.146
354.052
672.594
281.771
525.921
189.786
375.536
86.2614
217.036
12.5827
27.8516
-50.2218
-125.794
-342.507
-210.47
-203.385
-11.0398
230.636
451.185
644.273
818.467
973.745
1106.35
1212.63
1291.14
1323.61
1328.53
1297.81
1226.74
1107.53
929.822
668.06
360.466
)
;

boundaryField
{
    outletWallLeft
    {
        type            calculated;
        value           nonuniform List<scalar> 
40
(
765.589
1261.39
1265.42
464.405
-59.0914
-440.571
-796.611
-1164.44
-1561.48
-1979.17
-2427.83
-2853.92
-3324.46
-3614.82
-4098.1
-3555.42
-4756.74
-1800.57
-9125.1
8969.22
76436.6
-46661.4
27535
-9201
1822.88
-2006.03
5500.86
9256.89
11864.2
11722
8943.87
2410.34
-3465.92
-14765.5
-15248.1
-23271
-13710.6
-40491.2
-143075
224230
)
;
    }
    fineWallsLeft
    {
        type            calculated;
        value           uniform 0;
    }
    fineFrontAndBackLeft
    {
        type            calculated;
        value           nonuniform List<scalar> 
880
(
-9.21826e-11
-1.051e-11
-1.07284e-11
-4.74937e-12
4.67705e-12
-2.67773e-12
-2.05141e-12
-9.7653e-12
-1.17461e-11
-1.90992e-12
-5.63351e-12
-7.97962e-13
-5.07014e-13
-9.01653e-14
-9.17207e-14
-6.94348e-13
-2.25775e-13
-7.58712e-13
-8.97801e-13
-1.82819e-13
-4.98361e-14
6.10496e-13
-3.49952e-13
-4.64421e-13
-4.89761e-13
-7.88144e-13
-8.31597e-13
-8.83557e-13
-9.88125e-13
-1.06713e-12
-1.10478e-12
-1.11221e-11
-1.11316e-12
-1.13892e-12
-1.13161e-12
-1.1515e-12
-1.14924e-12
-1.14657e-12
-1.08637e-12
-1.22314e-12
-1.48961e-11
-2.02512e-12
-1.86203e-12
-1.05402e-11
-1.44183e-12
-1.32421e-12
-1.20793e-12
-5.9309e-12
-7.6679e-13
-7.92182e-13
-2.26954e-12
4.37889e-14
9.35089e-13
5.54129e-13
-5.66744e-12
3.24374e-12
2.58983e-12
2.65666e-12
1.74807e-11
2.9239e-12
2.47653e-11
1.71727e-11
1.11728e-11
1.35092e-11
4.87303e-12
2.34815e-12
1.14095e-11
3.7882e-12
-7.71367e-12
-1.05009e-11
-6.17635e-12
-6.75133e-12
-1.52949e-11
-2.11759e-11
-1.64582e-11
-1.58328e-11
-1.59112e-11
-1.12942e-11
8.69726e-12
2.37048e-11
1.57983e-11
1.00406e-11
8.20223e-12
1.36793e-12
2.89544e-12
1.01846e-11
2.91398e-12
-7.93596e-12
-1.07209e-11
-7.33232e-12
-8.70973e-12
-1.70711e-11
-2.13099e-11
-1.6731e-11
-1.36827e-11
-1.17071e-11
-1.48301e-11
-8.72398e-12
2.14542e-11
1.20936e-11
2.79725e-12
8.81163e-13
7.55355e-13
3.32356e-12
9.54395e-12
2.17004e-12
-8.25176e-12
-1.09818e-11
-8.78454e-12
-1.07233e-11
-1.82512e-11
-2.14471e-11
-1.86379e-11
-1.3243e-11
-8.8262e-12
-1.31519e-11
-1.46214e-11
1.90563e-11
9.40192e-12
-2.89408e-13
8.85131e-14
1.11798e-12
3.04012e-12
9.21927e-12
1.64144e-12
-8.56959e-12
-1.13083e-11
-1.02168e-11
-1.23846e-11
-1.88813e-11
-2.14487e-11
-1.89836e-11
-1.24811e-11
-7.64476e-12
-1.20184e-11
-1.69343e-11
1.72395e-11
8.28966e-12
-1.17301e-12
3.4961e-13
9.74526e-13
2.60379e-12
9.18191e-12
1.38189e-12
-8.72493e-12
-1.16693e-11
-1.14371e-11
-1.34195e-11
-1.90427e-11
-2.12498e-11
-1.82469e-11
-1.13158e-11
-6.30354e-12
-1.02063e-11
-2.0555e-11
1.62803e-11
9.25946e-12
-1.07875e-12
3.39701e-13
8.34323e-13
1.96887e-12
8.92769e-12
1.35734e-12
-8.534e-12
-1.18997e-11
-1.23793e-11
-1.38208e-11
-1.87547e-11
-2.09208e-11
-1.67774e-11
-9.71055e-12
-5.20741e-12
-6.2199e-12
-1.9075e-11
1.62554e-11
1.24272e-11
-2.87468e-13
-3.66539e-13
9.90319e-13
1.04245e-12
6.5391e-12
1.47022e-12
-7.88701e-12
-1.17356e-11
-1.28141e-11
-1.38225e-11