/*--------------------------------*- C++ -*----------------------------------*\
| =========                 |                                                 |
| \\      /  F ield         | OpenFOAM: The Open Source CFD Toolbox           |
|  \\    /   O peration     | Version:  4.1                                   |
|   \\  /    A nd           | Web:      www.OpenFOAM.org                      |
|    \\/     M anipulation  |                                                 |
\*---------------------------------------------------------------------------*/
FoamFile
{
    version     2.0;
    format      ascii;
    class       volVectorField;
    location    "20";
    object      U;
}
// * * * * * * * * * * * * * * * * * * * * * * * * * * * * * * * * * * * * * //

dimensions      [0 1 -1 0 0 0 0];

internalField   nonuniform List<vector> 
1680
(
(-2.53685e-14 -281.052 -258.318)
(-7.59527e-15 78.1002 -115.12)
(-2.95244e-15 -73.2403 -29.1511)
(-3.43225e-15 75.3708 -11.365)
(1.28711e-15 1.12694 -5.91232)
(-7.36906e-16 -0.288772 -4.88094)
(-1.4825e-15 1.04643 -1.70499)
(-2.68739e-15 2.5723 -0.221643)
(-3.23249e-15 3.02452 1.08958)
(-1.56317e-15 2.23473 1.5301)
(-1.55033e-15 3.34318 1.81144)
(-5.76666e-16 2.56931 1.60735)
(-1.39529e-16 2.50346 1.41025)
(-2.48133e-17 3.44635 1.25394)
(-6.62842e-17 2.802 0.988271)
(-1.91083e-16 3.4455 1.16629)
(-1.63162e-16 2.7907 1.23166)
(-2.08796e-16 2.39595 1.5831)
(-2.47073e-16 4.21624 2.77955)
(-1.32118e-16 0.606945 -0.264376)
(-2.04456e-16 2.83686 4.59558)
(2.4481e-16 1.29106 0.972837)
(-1.4357e-15 4.24046 8.42161)
(-1.90532e-15 4.67476 9.4921)
(-2.00928e-15 4.79744 10.391)
(-3.23341e-15 4.88648 11.032)
(-3.41168e-15 4.99714 11.4386)
(-3.62485e-15 5.04441 11.6641)
(-4.05385e-15 5.18484 11.8164)
(-4.37797e-15 5.11442 11.8433)
(-4.53244e-15 5.50487 12.1217)
(-4.45998e-15 4.87112 10.039)
(-4.5668e-15 6.91685 13.1769)
(-4.67249e-15 7.01036 13.4044)
(-4.64249e-15 7.08084 13.5956)
(-4.7241e-15 7.07842 13.7935)
(-4.71483e-15 7.20638 14.0267)
(-4.70387e-15 7.05332 14.1523)
(-4.4569e-15 7.43134 15.018)
(-5.01801e-15 7.05372 13.718)
(-5.18576e-15 9.37799 15.1626)
(-3.25321e-15 6.56538 10.8383)
(-2.99121e-15 5.68771 10.3131)
(-3.66934e-15 5.97738 13.3105)
(-2.31619e-15 4.25122 9.61965)
(-2.12725e-15 3.93962 9.62461)
(-1.94045e-15 3.20063 9.51276)
(-2.06472e-15 2.64164 11.2319)
(-1.23179e-15 1.634 7.58573)
(-1.27258e-15 1.43975 7.61977)
(-7.90093e-16 -0.186214 5.8257)
(7.03436e-17 -0.20627 0.566431)
(1.50215e-15 -0.377525 -1.64785)
(8.90167e-16 -0.0325699 -4.31018)
(1.31534e-15 -0.61423 -6.60035)
(5.21083e-15 -0.68767 -4.10775)
(4.16037e-15 -0.365342 -4.33908)
(4.26772e-15 -0.158798 -4.25353)
(6.08553e-15 -0.309549 -4.71493)
(4.69703e-15 -0.394484 -3.1864)
(5.50341e-15 4.46594 19.8455)
(3.81616e-15 2.72068 5.45214)
(2.48283e-15 0.952867 2.13426)
(3.00204e-15 1.81504 -10.8465)
(1.0829e-15 7.66466 -4.51137)
(5.21811e-16 6.12653 -2.20926)
(2.53545e-15 -3.12538 -9.78898)
(8.41823e-16 -9.01872 -6.17495)
(-1.71415e-15 -9.01535 -0.385058)
(-2.33352e-15 -7.26965 2.81602)
(-1.37252e-15 -5.94198 4.95074)
(-1.5003e-15 -6.77612 6.22754)
(-3.39886e-15 -7.85286 8.73421)
(-4.70575e-15 -4.89041 10.9085)
(-3.65738e-15 2.43068 6.03074)
(-3.51841e-15 6.90267 7.08755)
(-3.53582e-15 7.92656 9.36288)
(-2.50983e-15 5.07437 12.1248)
(1.93272e-15 1.25389 5.28289)
(5.26774e-15 2.16961 21.6981)
(3.51074e-15 4.59997 9.17867)
(2.23124e-15 3.13999 -1.88615)
(1.82272e-15 1.8527 -7.83995)
(3.03985e-16 6.6009 1.47768)
(6.43431e-16 6.95909 -0.440239)
(2.26324e-15 -2.60643 -7.84902)
(6.47552e-16 -9.78288 -5.53359)
(-1.76355e-15 -9.82671 -0.777751)
(-2.38241e-15 -7.8409 2.00822)
(-1.6294e-15 -6.30512 4.76386)
(-1.9355e-15 -7.10932 6.01992)
(-3.79358e-15 -8.13629 7.46862)
(-4.73554e-15 -4.48851 8.02204)
(-3.71799e-15 2.84617 3.92889)
(-3.0406e-15 6.69284 4.15822)
(-2.60158e-15 7.24952 4.84957)
(-3.29557e-15 5.08225 10.802)
(-1.93866e-15 3.75493 9.63672)
(4.7676e-15 -0.335629 22.9604)
(2.68747e-15 6.70931 14.1828)
(6.2161e-16 4.62893 0.0474264)
(1.95814e-16 0.995902 3.34374)
(1.67857e-16 6.4532 3.78739)
(7.38569e-16 8.01617 1.27521)
(2.12088e-15 -2.06632 -6.27482)
(4.8223e-16 -10.3464 -4.96428)
(-1.83372e-15 -10.4858 -1.15979)
(-2.44039e-15 -8.42126 1.0752)
(-1.95212e-15 -6.72927 4.29575)
(-2.38295e-15 -7.32194 5.60362)
(-4.05582e-15 -8.17289 5.86578)
(-4.76602e-15 -4.11579 5.38583)
(-4.14176e-15 3.16893 2.69082)
(-2.94288e-15 6.78925 2.10293)
(-1.96138e-15 6.6407 1.7825)
(-2.92265e-15 4.19043 7.84355)
(-3.24919e-15 4.39444 12.3062)
(4.23473e-15 -3.71886 22.937)
(2.08932e-15 8.44755 20.2085)
(-6.43129e-17 5.48177 4.94592)
(1.96696e-17 1.14423 9.00427)
(2.48439e-16 7.02856 3.09934)
(6.75583e-16 8.95315 3.62003)
(2.04873e-15 -1.52778 -4.82483)
(3.64765e-16 -10.7228 -4.52518)
(-1.90435e-15 -10.9907 -1.59641)
(-2.51295e-15 -8.97576 0.0130148)
(-2.2704e-15 -7.19621 3.32839)
(-2.75213e-15 -7.42172 4.87035)
(-4.19584e-15 -8.01698 4.02126)
(-4.76637e-15 -3.84621 2.88608)
(-4.21858e-15 3.40264 0.527996)
(-2.77357e-15 6.93393 -0.0962097)
(-1.69884e-15 6.1266 -0.0635158)
(-2.67075e-15 2.94067 5.2291)
(-3.76319e-15 4.16361 13.0039)
(3.83101e-15 -8.2186 23.0047)
(1.84215e-15 9.80219 27.2153)
(-2.60669e-16 6.99735 8.05616)
(7.76912e-17 1.44114 8.66868)
(2.16561e-16 7.56621 2.66216)
(5.78621e-16 9.68285 5.46519)
(2.04042e-15 -0.786906 -3.49606)
(3.07088e-16 -10.8922 -4.23264)
(-1.93887e-15 -11.3475 -2.1224)
(-2.59319e-15 -9.44927 -1.12923)
(-2.54159e-15 -7.68587 1.70851)
(-2.98211e-15 -7.4572 3.75241)
(-4.23171e-15 -7.69649 2.1567)
(-4.72217e-15 -3.54288 0.475492)
(-4.05487e-15 3.60633 -2.0807)
(-2.51463e-15 6.94942 -2.2604)
(-1.40079e-15 5.69687 -1.44154)
(-2.26807e-15 1.45264 2.25047)
(-4.56777e-15 3.2913 11.29)
(3.61784e-15 -13.6882 23.5142)
(2.05766e-15 11.0916 34.6399)
(-2.39721e-16 9.44466 9.51112)
(7.54891e-17 1.99549 7.4107)
(1.85405e-16 7.75197 2.19497)
(4.37526e-16 10.3232 6.72146)
(1.98393e-15 0.213469 -1.81177)
(3.01631e-16 -10.8122 -4.02917)
(-1.89644e-15 -11.5654 -2.74526)
(-2.64437e-15 -9.77893 -2.28648)
(-2.75095e-15 -8.16648 -0.459118)
(-3.0713e-15 -7.50572 1.96278)
(-4.16771e-15 -7.27254 0.379463)
(-4.64907e-15 -3.10247 -1.73088)
(-3.72832e-15 3.80978 -4.5875)
(-2.1579e-15 6.83963 -4.05152)
(-1.1572e-15 5.36561 -2.42975)
(-1.3822e-15 0.300609 -1.11947)
(-4.23889e-15 2.84602 6.85339)
(3.61231e-15 -20.1136 24.3988)
(2.76159e-15 12.3782 42.2863)
(-6.38817e-17 12.7215 11.3981)
(-8.14532e-17 2.83316 6.77487)
(2.20071e-16 7.72169 1.37836)
(2.31655e-16 10.7542 7.58805)
(1.45313e-15 0.742396 0.459218)
(3.26716e-16 -10.4353 -3.84352)
(-1.75267e-15 -11.6537 -3.45003)
(-2.60792e-15 -9.94009 -3.40831)
(-2.84758e-15 -8.52887 -2.68828)
(-3.07167e-15 -7.616 -0.888657)
(-3.93402e-15 -6.86619 -1.81044)
(-4.46069e-15 -2.59538 -3.87676)
(-3.28312e-15 4.0174 -6.8632)
(-1.76879e-15 6.56015 -5.30413)
(-9.19506e-16 5.06162 -2.99016)
(-6.48468e-16 -0.000537575 -2.3819)
(-1.97224e-15 -0.597288 -1.8343)
(3.80496e-15 -27.6216 25.3835)
(4.03894e-15 13.5995 49.7411)
(3.74374e-16 16.7574 14.0812)
(-5.74942e-16 4.0084 7.5218)
(2.97066e-16 7.59901 0.566453)
(3.96713e-17 10.7689 8.01325)
(5.11732e-16 1.53363 2.47186)
(3.5968e-16 -9.77128 -3.62695)
(-1.51021e-15 -11.6163 -4.20183)
(-2.43575e-15 -9.96236 -4.46453)
(-2.77056e-15 -8.6668 -4.53201)
(-2.97171e-15 -7.67838 -4.06283)
(-3.52452e-15 -6.57718 -4.79662)
(-3.99335e-15 -2.18673 -6.61682)
(-2.75231e-15 4.03777 -8.76957)
(-1.41338e-15 6.09919 -6.00285)
(-7.21058e-16 4.62355 -3.28748)
(-5.87001e-16 0.64737 -1.61835)
(-8.63422e-16 -1.06642 -6.50565)
(4.17671e-15 -36.0282 26.0241)
(6.01342e-15 14.702 56.1166)
(1.35823e-15 21.3404 16.4469)
(-1.31083e-15 5.5608 9.49064)
(3.38709e-16 7.57992 -0.136731)
(-2.06953e-17 10.5513 8.06768)
(1.51581e-16 2.73366 3.48366)
(3.9405e-16 -8.90322 -3.35217)
(-1.20553e-15 -11.4617 -4.94178)
(-2.13091e-15 -9.89834 -5.43286)
(-2.505e-15 -8.6056 -5.89338)
(-2.71763e-15 -7.56521 -6.50678)
(-3.01789e-15 -6.28394 -7.73746)
(-3.2987e-15 -1.93378 -9.55527)
(-2.20734e-15 3.80107 -10.0958)
(-1.10729e-15 5.48963 -6.31428)
(-5.48957e-16 4.14591 -3.55281)
(-4.60727e-16 0.321683 -2.56183)
(-4.56364e-16 -0.483155 -0.771448)
(4.68883e-15 -45.4088 25.7977)
(8.6768e-15 15.7501 60.3368)
(3.22701e-15 26.2211 17.0505)
(-1.81874e-15 7.38928 11.8526)
(2.99125e-16 7.78591 -0.940484)
(-3.1508e-19 10.1909 7.91423)
(1.72515e-16 3.73697 4.05116)
(4.20931e-16 -7.92537 -2.9655)
(-8.96275e-16 -11.1899 -5.60878)
(-1.75345e-15 -9.79041 -6.3088)
(-2.10648e-15 -8.44787 -6.88353)
(-2.30907e-15 -7.31113 -7.95831)
(-2.47163e-15 -5.91701 -9.66751)
(-2.5778e-15 -1.81764 -11.4984)
(-1.7108e-15 3.33463 -10.716)
(-8.46068e-16 4.8106 -6.41621)
(-3.88491e-16 3.80265 -3.96489)
(-4.15397e-16 0.1562 -3.8899)
(-3.46863e-16 -1.67271 1.15261)
(5.25595e-15 -54.8232 24.0436)
(1.16614e-14 16.8532 61.3453)
(6.06942e-15 31.1346 14.8596)
(-1.54403e-15 9.27067 13.6061)
(1.78136e-16 8.20611 -1.8774)
(-7.85692e-18 9.68959 7.60231)
(1.23984e-16 4.67831 4.59594)
(4.2871e-16 -6.86142 -2.40526)
(-6.31465e-16 -10.7936 -6.15115)
(-1.39064e-15 -9.65497 -7.12)
(-1.68092e-15 -8.26876 -7.65065)
(-1.82486e-15 -7.00165 -8.72258)
(-1.92135e-15 -5.51111 -10.5174)
(-1.93501e-15 -1.75141 -12.1783)
(-1.28588e-15 2.75957 -10.803)
(-6.26076e-16 4.14719 -6.44515)
(-2.47483e-16 3.58602 -4.5536)
(-3.70108e-16 -0.210934 -4.64247)
(-3.90356e-16 -2.21018 -0.278085)
(5.74102e-15 -64.8967 20.2705)
(1.42139e-14 18.1696 57.7749)
(9.52121e-15 35.8181 9.63411)
(-1.06117e-16 10.9295 13.7824)
(2.37285e-17 8.76156 -2.72901)
(-1.08618e-17 9.05627 7.08392)
(6.76015e-17 5.54601 5.06336)
(4.09991e-16 -5.68356 -1.59775)
(-4.42624e-16 -10.2563 -6.50649)
(-1.11762e-15 -9.50137 -7.91322)
(-1.33986e-15 -8.12959 -8.35136)
(-1.38345e-15 -6.74548 -9.16782)
(-1.41771e-15 -5.18924 -10.7265)
(-1.39121e-15 -1.82292 -12.0989)
(-9.35006e-16 2.15788 -10.6624)
(-4.57863e-16 3.56622 -6.53546)
(-1.60808e-16 3.43206 -5.36747)
(-2.98936e-16 -0.765551 -5.11146)
(-4.81573e-16 -2.61273 -2.19844)
(5.99796e-15 -72.3635 13.6926)
(1.56404e-14 19.7495 47.8941)
(1.28744e-14 39.9784 1.98852)
(2.44847e-15 12.0128 11.6901)
(-6.81279e-17 9.25969 -3.24437)
(-9.56479e-18 8.31702 6.40185)
(1.68848e-17 6.24889 5.39704)
(3.66778e-16 -4.43927 -0.457954)
(-3.32237e-16 -9.54492 -6.58471)
(-9.65144e-16 -9.28298 -8.70142)
(-1.15892e-15 -8.00285 -9.15955)
(-1.09499e-15 -6.4988 -9.60334)
(-1.0317e-15 -4.83928 -10.7424)
(-9.64537e-16 -1.72514 -11.7826)
(-6.7012e-16 1.68525 -10.5162)
(-3.64433e-16 3.09312 -6.81651)
(-1.63352e-16 3.30756 -6.5082)
(-2.22537e-16 -0.714325 -5.54942)
(-5.65181e-16 -3.53257 -3.46972)
(5.92737e-15 -81.583 4.73442)
(1.60508e-14 21.6905 29.607)
(1.55038e-14 42.9998 -6.95862)
(5.38401e-15 12.1586 7.34551)
(-3.6017e-17 9.40683 -3.2325)
(-8.41698e-18 7.51093 5.62653)
(-3.70634e-17 6.75118 5.54534)
(3.17386e-16 -3.15934 1.1143)
(-2.76997e-16 -8.64142 -6.23381)
(-9.10187e-16 -9.00427 -9.35264)
(-1.14697e-15 -7.98519 -10.1542)
(-1.02445e-15 -6.48841 -10.2732)
(-8.39045e-16 -4.80992 -10.8853)
(-7.00743e-16 -2.04093 -11.5483)
(-5.2188e-16 0.890786 -10.5377)
(-3.7563e-16 2.67346 -7.42968)
(-2.8938e-16 3.2361 -8.09554)
(-1.79577e-16 -1.72951 -6.44733)
(-6.1365e-16 -3.64498 -4.21011)
(5.59524e-15 -79.6993 -7.50892)
(1.65206e-14 23.0495 4.09931)
(1.73159e-14 43.9961 -16.1713)
(7.47637e-15 11.7492 2.11722)
(6.26429e-17 9.08723 -2.52676)
(-1.98068e-18 6.75867 4.83733)
(-9.00383e-17 6.95163 5.4359)
(1.89365e-16 -1.91369 3.35208)
(-2.73034e-16 -7.47438 -5.43494)
(-8.92987e-16 -8.44923 -9.70338)
(-1.23143e-15 -7.73873 -11.2682)
(-1.15286e-15 -6.20658 -11.375)
(-8.83372e-16 -4.33502 -11.4835)
(-6.55321e-16 -1.48271 -11.741)
(-5.31716e-16 1.52191 -10.9067)
(-5.09568e-16 2.72897 -8.39335)
(-5.17175e-16 3.07606 -10.0226)
(-1.89499e-16 -0.973449 -7.42512)
(-6.9161e-16 -5.99667 -3.91578)
(4.57993e-15 -92.6286 -16.9498)
(1.83077e-14 24.1509 -25.0852)
(1.87111e-14 43.0716 -25.0676)
(7.75335e-15 10.2454 -0.522425)
(8.64126e-17 8.54886 -1.42216)
(6.97922e-18 6.26675 4.09018)
(-1.28861e-16 6.8782 4.94253)
(-1.82368e-16 -0.977742 5.81281)
(-3.20702e-16 -6.15668 -4.28866)
(-8.64545e-16 -7.94825 -9.49312)
(-1.31083e-15 -7.86669 -12.0789)
(-1.37648e-15 -6.78572 -12.6697)
(-1.13183e-15 -5.19041 -12.5865)
(-8.52205e-16 -2.86506 -12.5045)
(-7.23868e-16 -1.27595 -11.8751)
(-7.26552e-16 2.2975 -9.71268)
(-6.17466e-16 3.36636 -11.0343)
(-2.41369e-16 -4.30122 -9.46133)
(-6.80467e-16 -3.31531 -5.03267)
(5.21568e-15 -57.1214 -33.842)
(2.26937e-14 31.1658 -49.2198)
(1.9548e-14 39.5801 -30.4912)
(5.99056e-15 7.62174 0.273367)
(1.57072e-17 7.58098 -0.61881)
(1.16971e-17 5.64008 3.40914)
(-1.24618e-16 6.41916 4.03286)
(-4.97804e-16 0.264801 6.17505)
(-3.83826e-16 -4.40712 -2.99706)
(-8.1043e-16 -6.56579 -8.69222)
(-1.30597e-15 -6.59585 -12.3276)
(-1.54037e-15 -5.32471 -13.8286)
(-1.42234e-15 -3.32647 -14.0135)
(-1.15625e-15 -0.173696 -13.7523)
(-9.99114e-16 3.46581 -12.7959)
(-9.24957e-16 3.31453 -10.5547)
(-1.97204e-16 3.10233 -8.90467)
(-1.12984e-16 0.569854 -8.25617)
(-6.77534e-16 -12.5896 -3.09368)
(-4.09958e-15 -122.464 -18.8056)
(2.98269e-14 9.72076 -75.1821)
(1.84671e-14 31.1431 -26.986)
(2.35997e-15 4.6976 2.81432)
(1.82971e-18 6.4214 -0.306666)
(1.16951e-17 4.70088 2.87941)
(-9.97305e-17 5.52375 3.17114)
(-5.97396e-16 0.521088 6.08582)
(-4.39333e-16 -3.62799 -1.43829)
(-8.2445e-16 -6.86928 -6.91157)
(-1.34118e-15 -8.13333 -11.3002)
(-1.73165e-15 -8.27131 -14.0478)
(-1.82798e-15 -7.39093 -15.2831)
(-1.71651e-15 -6.02326 -15.819)
(-1.7607e-15 -5.49791 -15.9562)
(-1.13994e-15 -1.80474 -12.0577)
(2.81181e-16 2.23715 -4.6356)
(-1.3914e-16 -11.8757 -13.6339)
(-7.963e-16 5.74012 -9.12418)
(3.57703e-14 64.8637 -106.853)
(3.78663e-14 27.3807 -84.392)
(1.29535e-14 21.568 -5.12846)
(-1.14636e-15 2.18338 5.16637)
(1.26746e-17 9.33192 -0.286076)
(7.92448e-18 6.18373 2.32373)
(-5.94721e-17 6.61505 2.27831)
(-7.26183e-16 1.68678 6.47058)
(-3.07945e-16 -0.855428 -1.25998)
(-4.34388e-16 -2.45399 -5.97632)
(-8.37267e-16 -1.89668 -9.88529)
(-1.17646e-15 -0.217172 -12.299)
(-1.26936e-15 1.79289 -13.325)
(-9.84905e-16 5.87658 -12.3955)
(-6.907e-16 7.5337 -11.0883)
(-1.73297e-15 9.63897 -16.1662)
(-1.08328e-15 3.07638 -9.34306)
(2.25057e-15 18.3543 16.4231)
(-4.7115e-16 -43.8439 0.467361)
(-2.18835e-13 -297.865 328.679)
(1.83248e-14 72.966 -53.8299)
(5.20503e-15 26.6966 13.1244)
(-2.0833e-16 6.79575 5.87595)
(-6.69305e-19 10.867 -0.121534)
(1.16455e-18 7.12415 0.953552)
(5.98776e-18 7.19234 0.739403)
(-6.2374e-16 1.70438 4.24742)
(-2.33092e-15 -3.54204 4.88031)
(-2.32425e-15 -10.3289 -2.87241)
(-2.906e-15 -14.2191 -10.8625)
(-3.89929e-15 -16.2033 -19.3786)
(-4.66976e-15 -15.7244 -25.5147)
(-5.6713e-15 -15.1372 -32.8332)
(-5.22295e-15 -9.66137 -29.9468)
(-6.54878e-15 -13.6289 -40.9642)
(-3.82274e-15 1.14976 -16.4618)
(-9.35491e-15 -44.8244 -74.1357)
(1.84938e-15 69.8268 37.2019)
(-7.75726e-17 5.28148 9.54852)
(-4.64108e-15 9.84228 16.8404)
(-3.63899e-15 9.82466 16.8469)
(-3.54929e-15 9.53827 16.1564)
(-3.34349e-15 9.47827 16.0317)
(-5.87861e-15 9.50689 16.0059)
(-4.18817e-15 9.50301 15.997)
(-3.51535e-15 9.51978 15.9862)
(-3.79781e-15 9.51669 15.9785)
(-3.77974e-15 9.54188 15.9836)
(-3.49228e-15 9.52762 15.957)
(-3.80522e-15 9.46845 15.7919)
(-3.51577e-15 9.51703 15.9306)
(-3.86363e-15 9.52655 15.9663)
(-3.63449e-15 9.52304 15.9762)
(-3.65159e-15 9.4962 16.0003)
(-3.68836e-15 9.49768 15.985)
(-3.69504e-15 9.63475 16.3813)
(-3.67082e-15 10.1303 17.0158)
(-5.49659e-15 6.17287 10.7025)
(9.34917e-17 4.96594 8.39871)
(-2.56169e-15 9.31383 15.9378)
(-2.0524e-15 9.114 15.6549)
(-2.07823e-15 8.82538 15.1383)
(-1.86208e-15 8.80421 15.14)
(-4.42637e-15 8.83304 15.1589)
(-2.62646e-15 8.83017 15.1793)
(-2.4914e-15 8.84436 15.1885)
(-2.64098e-15 8.84677 15.2078)
(-2.59047e-15 8.85411 15.2194)
(-2.43162e-15 8.86344 15.2439)
(-2.55511e-15 8.89202 15.2983)
(-2.15465e-15 8.89604 15.2864)
(-2.91766e-15 8.89536 15.3088)
(-2.51507e-15 8.91493 15.3268)
(-2.41456e-15 8.90697 15.3533)
(-2.58469e-15 8.93347 15.3721)
(-2.59272e-15 9.12631 15.7652)
(-2.61573e-15 9.49796 16.361)
(-3.70322e-15 5.59087 9.71471)
(-2.00238e-17 5.50613 9.57698)
(-7.60857e-16 9.5872 16.4166)
(-7.75501e-16 9.26864 15.9912)
(-6.31208e-16 9.02892 15.5198)
(-4.21404e-16 8.99572 15.5144)
(-2.75393e-15 9.0136 15.5167)
(-1.19843e-15 9.00058 15.5249)
(-1.26017e-15 9.00723 15.5227)
(-1.19707e-15 8.99958 15.5277)
(-1.17183e-15 9.00295 15.5291)
(-1.10787e-15 8.99916 15.5315)
(-1.00609e-15 8.99299 15.5272)
(-1.13079e-15 8.99577 15.5375)
(-1.51536e-15 8.99226 15.5459)
(-1.1659e-15 8.99861 15.5464)
(-9.99337e-16 8.98295 15.5546)
(-1.12873e-15 9.00101 15.5518)
(-1.17657e-15 9.18113 15.9342)
(-1.01142e-15 9.56787 16.5218)
(-1.23201e-15 5.74025 10.0593)
(3.12232e-18 5.59007 9.63686)
(2.75529e-16 9.47959 16.2694)
(1.80192e-16 9.12605 15.7423)
(2.42987e-16 8.90776 15.3242)
(1.74596e-16 8.88596 15.3313)
(-1.12589e-15 8.90427 15.3384)
(-8.40412e-16 8.89428 15.3509)
(-8.31403e-16 8.90199 15.3536)
(-9.39697e-16 8.89653 15.3636)
(-8.48949e-16 8.9003 15.3687)
(-8.40439e-16 8.89835 15.3775)
(-7.91232e-16 8.90047 15.387)
(-8.03395e-16 8.90158 15.3919)
(-9.93712e-16 8.89798 15.4024)
(-8.61234e-16 8.90494 15.4066)
(-6.42325e-16 8.89225 15.4166)
(-7.72436e-16 8.90853 15.4178)
(-9.61899e-16 9.08764 15.7849)
(-8.24121e-16 9.47412 16.4069)
(-9.78386e-16 5.79069 10.1207)
(-2.95328e-19 5.84795 10.1195)
(-8.2265e-17 9.52339 16.3432)
(-5.15363e-17 9.11121 15.7318)
(-7.06749e-17 8.92199 15.3588)
(-5.7432e-17 8.9008 15.3694)
(3.80841e-16 8.91598 15.3724)
(2.87555e-16 8.90431 15.3819)
(2.98577e-16 8.90996 15.3821)
(2.91392e-16 8.90294 15.3891)
(2.92053e-16 8.90516 15.3918)
(2.6797e-16 8.90144 15.3974)
(2.62921e-16 8.90059 15.4016)
(2.76998e-16 8.90029 15.4065)
(3.58232e-16 8.89655 15.4139)
(2.91083e-16 8.90093 15.416)
(2.53333e-16 8.8885 15.423)
(2.88896e-16 8.90117 15.4197)
(2.96597e-16 9.06192 15.754)
(2.62227e-16 9.47298 16.4185)
(3.32491e-16 5.96246 10.4365)
(-9.71228e-20 6.02196 10.402)
(2.1905e-17 9.49149 16.3019)
(1.45108e-17 9.04984 15.6262)
(1.87705e-17 8.88325 15.2974)
(1.67397e-17 8.86665 15.312)
(-1.07362e-16 8.88088 15.3156)
(-8.58995e-17 8.8706 15.3255)
(-8.71548e-17 8.87632 15.3269)
(-8.24555e-17 8.87022 15.3347)
(-8.39024e-17 8.87273 15.3381)
(-7.74951e-17 8.86946 15.3446)
(-7.95766e-17 8.86967 15.3499)
(-8.22003e-17 8.86913 15.3551)
(-9.57586e-17 8.86632 15.3626)
(-8.04049e-17 8.87003 15.3659)
(-8.57033e-17 8.85973 15.3733)
(-8.31072e-17 8.86944 15.3692)
(-7.9724e-17 9.01295 15.6677)
(-8.94589e-17 9.44537 16.3787)
(-1.10572e-16 6.12697 10.716)
(7.48109e-20 6.22327 10.7523)
(-5.93269e-18 9.48302 16.2909)
(-4.21085e-18 9.0135 15.5665)
(-5.04339e-18 8.86972 15.2779)
(-4.89436e-18 8.85504 15.2942)
(2.851e-17 8.86762 15.2964)
(2.38946e-17 8.8576 15.3053)
(2.32059e-17 8.86254 15.3063)
(2.34169e-17 8.85651 15.3133)
(2.2913e-17 8.85858 15.3162)
(2.19106e-17 8.85509 15.3221)
(2.26739e-17 8.85516 15.3265)
(2.20597e-17 8.85403 15.3315)
(2.4335e-17 8.85174 15.3379)
(2.15881e-17 8.85431 15.3413)
(2.47441e-17 8.84556 15.348)
(2.197e-17 8.85256 15.3426)
(2.13936e-17 8.97751 15.6041)
(2.55386e-17 9.42742 16.3495)
(3.16603e-17 6.30858 11.0312)
(-3.28932e-20 6.40975 11.0675)
(1.57936e-18 9.45643 16.2517)
(1.19038e-18 8.97048 15.4927)
(1.32702e-18 8.84752 15.243)
(1.37589e-18 8.83523 15.2606)
(-7.66064e-18 8.8466 15.2626)
(-6.47044e-18 8.83746 15.2712)
(-6.21256e-18 8.84203 15.2725)
(-6.57485e-18 8.83657 15.2793)
(-6.34948e-18 8.83856 15.2824)
(-6.15716e-18 8.83527 15.2883)
(-6.42813e-18 8.83566 15.2927)
(-6.00641e-18 8.83428 15.2979)
(-6.40321e-18 8.83276 15.304)
(-6.0917e-18 8.83449 15.3079)
(-6.82782e-18 8.82758 15.3145)
(-6.02747e-18 8.83233 15.309)
(-5.85531e-18 8.93988 15.5348)
(-6.93181e-18 9.40032 16.3039)
(-8.48659e-18 6.48801 11.3392)
(1.16434e-20 6.59944 11.3917)
(-4.13667e-19 9.42932 16.2098)
(-3.27285e-19 8.93383 15.4302)
(-3.43893e-19 8.83061 15.2168)
(-3.74428e-19 8.81987 15.2346)
(2.03577e-18 8.82999 15.2361)
(1.69201e-18 8.82151 15.2441)
(1.66037e-18 8.82554 15.2455)
(1.77123e-18 8.82048 15.2519)
(1.71005e-18 8.82223 15.2548)
(1.65239e-18 8.81904 15.2606)
(1.74833e-18 8.81955 15.2646)
(1.62776e-18 8.81785 15.2699)
(1.67506e-18 8.81697 15.2753)
(1.67817e-18 8.8178 15.2796)
(1.79075e-18 8.81254 15.2858)
(1.62554e-18 8.81533 15.2806)
(1.5784e-18 8.90633 15.4725)
(1.79882e-18 9.37019 16.2522)
(2.15999e-18 6.66916 11.6512)
(-3.54105e-21 6.78559 11.7083)
(1.0511e-19 9.39441 16.155)
(8.68323e-20 8.89788 15.3685)
(8.71234e-20 8.81289 15.1891)
(9.79216e-20 8.80352 15.2067)
(-5.33464e-19 8.8125 15.208)
(-4.3471e-19 8.8048 15.2155)
(-4.41051e-19 8.80837 15.2171)
(-4.66251e-19 8.80383 15.2232)
(-4.46e-19 8.80536 15.2262)
(-4.2867e-19 8.8024 15.2318)
(-4.58689e-19 8.80304 15.2356)
(-4.30932e-19 8.80114 15.241)
(-4.31668e-19 8.8009 15.246)
(-4.41153e-19 8.80091 15.2508)
(-4.50875e-19 8.79731 15.2566)
(-4.26942e-19 8.79841 15.2523)
(-4.19925e-19 8.87429 15.4124)
(-4.53012e-19 9.33402 16.19)
(-5.34324e-19 6.84902 11.9604)
(9.62252e-22 6.97113 12.0244)
(-2.55268e-20 9.35482 16.0918)
(-2.20782e-20 8.86502 15.3121)
(-2.12905e-20 8.79677 15.164)
(-2.43485e-20 8.78839 15.1809)
(1.34806e-19 8.7963 15.182)
(1.08998e-19 8.78933 15.1889)
(1.1368e-19 8.7924 15.1908)
(1.19397e-19 8.78835 15.1965)
(1.12241e-19 8.78962 15.1995)
(1.0765e-19 8.7869 15.2049)
(1.162e-19 8.78759 15.2086)
(1.09561e-19 8.78553 15.214)
(1.07913e-19 8.78586 15.2185)
(1.10367e-19 8.78507 15.2237)
(1.09442e-19 8.78302 15.229)
(1.08788e-19 8.78265 15.226)
(1.08464e-19 8.84484 15.3568)
(1.11439e-19 9.29286 16.1191)
(1.2839e-19 7.02827 12.2685)
(-2.41907e-22 7.15503 12.3374)
(5.92357e-21 9.3093 16.0184)
(5.3789e-21 8.83428 15.2593)
(4.99192e-21 8.78113 15.1398)
(5.76429e-21 8.77353 15.1556)
(-3.24164e-20 8.78046 15.1565)
(-2.63926e-20 8.77423 15.163)
(-2.79362e-20 8.77682 15.165)
(-2.93595e-20 8.77329 15.1704)
(-2.72089e-20 8.77428 15.1735)
(-2.60784e-20 8.77186 15.1786)
(-2.8302e-20 8.77255 15.1822)
(-2.66233e-20 8.77041 15.1877)
(-2.59297e-20 8.77123 15.1917)
(-2.64611e-20 8.76973 15.1973)
(-2.57301e-20 8.76915 15.2021)
(-2.66996e-20 8.76747 15.2007)
(-2.6757e-20 8.81758 15.3049)
(-2.68071e-20 9.24622 16.0389)
(-2.98058e-20 7.20645 12.5747)
(5.79879e-23 7.3378 12.6485)
(-1.32827e-21 9.2584 15.9357)
(-1.26112e-21 8.80611 15.2109)
(-1.12912e-21 8.76636 15.117)
(-1.31568e-21 8.75935 15.1314)
(7.47617e-21 8.76536 15.1323)
(6.17484e-21 8.75984 15.1383)
(6.54215e-21 8.76196 15.1405)
(6.89919e-21 8.75896 15.1455)
(6.37792e-21 8.75963 15.1487)
(6.10739e-21 8.75755 15.1536)
(6.62596e-21 8.75816 15.1571)
(6.22596e-21 8.75605 15.1625)
(6.01563e-21 8.75724 15.1662)
(6.1449e-21 8.75512 15.1721)
(5.91296e-21 8.7559 15.1763)
(6.29275e-21 8.75304 15.1766)
(6.28841e-21 8.79273 15.2571)
(6.30957e-21 9.19429 15.9496)
(6.70269e-21 7.3837 12.8791)
(-1.35702e-23 7.51934 12.9574)
(2.9222e-22 9.20191 15.8433)
(2.86581e-22 8.7803 15.1665)
(2.49581e-22 8.75222 15.0952)
(2.94447e-22 8.74564 15.1081)
(-1.6852e-21 8.75084 15.109)
(-1.40699e-21 8.74601 15.1146)
(-1.47568e-21 8.74766 15.117)
(-1.55619e-21 8.7452 15.1216)
(-1.45552e-21 8.74554 15.1249)
(-1.39342e-21 8.74385 15.1295)
(-1.50036e-21 8.7443 15.133)
(-1.41896e-21 8.74233 15.1383)
(-1.36384e-21 8.74375 15.1417)
(-1.39594e-21 8.74117 15.1479)
(-1.34168e-21 8.74315 15.1514)
(-1.42925e-21 8.73922 15.1536)
(-1.41936e-21 8.77023 15.2133)
(-1.45511e-21 9.13696 15.8512)
(-1.47224e-21 7.55997 13.1815)
(3.14938e-24 7.69989 13.2645)
(-6.39289e-23 9.13992 15.7414)
(-6.3714e-23 8.75695 15.1265)
(-5.47252e-23 8.73877 15.0745)
(-6.55408e-23 8.73251 15.0857)
(3.77432e-22 8.73696 15.0868)
(3.14971e-22 8.73282 15.0919)
(3.25453e-22 8.73398 15.0944)
(3.40447e-22 8.73205 15.0987)
(3.25857e-22 8.73206 15.1021)
(3.1284e-22 8.73077 15.1063)
(3.32055e-22 8.73101 15.1099)
(3.19393e-22 8.72928 15.1149)
(3.0599e-22 8.73077 15.1182)
(3.12855e-22 8.72792 15.1245)
(3.02815e-22 8.73089 15.1275)
(3.15539e-22 8.726 15.1316)
(3.11609e-22 8.75008 15.1733)
(3.29923e-22 9.07422 15.7438)
(3.18749e-22 7.73529 13.4818)
(-7.31188e-25 7.87976 13.5702)
(1.40331e-23 9.0725 15.6298)
(1.40087e-23 8.73613 15.0909)
(1.20449e-23 8.72618 15.055)
(1.46265e-23 8.72014 15.0647)
(-8.45754e-23 8.72388 15.0658)
(-6.97703e-23 8.72045 15.0704)
(-7.12179e-23 8.72109 15.0731)
(-7.32407e-23 8.71966 15.077)
(-7.21147e-23 8.71936 15.0804)
(-6.97562e-23 8.71841 15.0844)
(-7.26639e-23 8.71839 15.0879)
(-7.17092e-23 8.71701 15.0927)
(-6.85663e-23 8.71831 15.0959)
(-6.97106e-23 8.71547 15.1022)
(-6.82459e-23 8.71909 15.1046)
(-6.85368e-23 8.7134 15.1105)
(-6.74855e-23 8.73225 15.1373)
(-7.39933e-23 9.00614 15.6274)
(-6.85406e-23 7.90967 13.7798)
(1.70494e-25 8.05937 13.8752)
(-3.10472e-24 8.99947 15.5081)
(-3.07791e-24 8.71779 15.0596)
(-2.67765e-24 8.71455 15.0366)
(-3.28125e-24 8.70877 15.0447)
(1.89418e-23 8.71173 15.0461)
(1.53963e-23 8.70916 15.0501)
(1.5641e-23 8.70929 15.0529)
(1.573e-23 8.7083 15.0564)
(1.58939e-23 8.7078 15.0598)
(1.55436e-23 8.70711 15.0635)
(1.58905e-23 8.70685 15.0671)
(1.6137e-23 8.70587 15.0715)
(1.54218e-23 8.70673 15.0749)
(1.55478e-23 8.70427 15.0808)
(1.53848e-23 8.70799 15.0831)
(1.4853e-23 8.70175 15.0903)
(1.46216e-23 8.71697 15.1052)
(1.65481e-23 8.93309 15.5027)
(1.47263e-23 8.08317 14.0752)
(-3.99762e-26 8.23966 14.1804)
(6.93076e-25 8.92059 15.3748)
(6.81016e-25 8.70165 15.0324)
(6.02024e-25 8.70362 15.0189)
(7.40418e-25 8.6985 15.0253)
(-4.22681e-24 8.70034 15.0269)
(-3.4091e-24 8.69872 15.0302)
(-3.46932e-24 8.69839 15.033)
(-3.41743e-24 8.6977 15.0361)
(-3.51145e-24 8.69712 15.0394)
(-3.47005e-24 8.69657 15.0428)
(-3.50184e-24 8.69617 15.0463)
(-3.64233e-24 8.69556 15.0503)
(-3.48695e-24 8.69586 15.054)
(-3.48621e-24 8.69426 15.0593)
(-3.4724e-24 8.69725 15.0619)
(-3.25399e-24 8.69129 15.07)
(-3.20708e-24 8.70425 15.0762)
(-3.72017e-24 8.85559 15.3705)
(-3.17989e-24 8.25514 14.3661)
(9.51577e-27 8.42319 14.4926)
(-1.57479e-25 8.83808 15.2311)
(-1.53716e-25 8.69069 15.012)
(-1.38088e-25 8.69522 15.0051)
(-1.69695e-25 8.69182 15.0089)
(9.47978e-25 8.69212 15.0105)
(7.69658e-25 8.69114 15.0126)
(7.85304e-25 8.69035 15.0148)
(7.64273e-25 8.68951 15.0171)
(7.89144e-25 8.68862 15.0196)
(7.83255e-25 8.68775 15.0224)
(7.90044e-25 8.68688 15.0254)
(8.32264e-25 8.68604 15.0287)
(8.00126e-25 8.68543 15.0321)
(7.94482e-25 8.68433 15.0364)
(7.92542e-25 8.68532 15.0397)
(7.3348e-25 8.68103 15.0469)
(7.24281e-25 8.69107 15.0483)
(8.53351e-25 8.77265 15.2324)
(6.98856e-25 8.42326 14.6449)
(-1.92779e-27 8.61058 14.8239)
(3.02834e-26 8.7527 15.0801)
(2.9653e-26 8.69281 15.0032)
(2.69652e-26 8.695 15.0014)
(3.32138e-26 8.69441 15.0021)
(-1.78022e-25 8.69407 15.0026)
(-1.49243e-25 8.69366 15.0031)
(-1.5115e-25 8.69304 15.0038)
(-1.47433e-25 8.69232 15.0046)
(-1.51365e-25 8.69143 15.0056)
(-1.49407e-25 8.69038 15.0067)
(-1.52979e-25 8.68914 15.008)
(-1.61044e-25 8.68772 15.0095)
(-1.55706e-25 8.68604 15.0113)
(-1.5363e-25 8.68416 15.0133)
(-1.53162e-25 8.68208 15.0156)
(-1.42706e-25 8.67892 15.0189)
(-1.41355e-25 8.67938 15.02)
(-1.67813e-25 8.69418 15.0844)
(-1.31241e-25 8.5934 14.8933)
(4.94647e-15 -0.256737 -3.41617)
(6.06898e-15 -0.438908 -4.16073)
(3.52296e-15 0.149342 -3.06507)
(2.94302e-15 -0.0985376 -2.92494)
(2.56904e-15 -0.14666 -2.29822)
(3.53026e-15 -0.14585 0.387876)
(2.46101e-15 -0.628842 2.58803)
(1.89613e-15 -0.757441 2.13027)
(1.03228e-15 -0.824929 2.29526)
(-1.70298e-16 -1.62599 4.72477)
(-8.24852e-16 -2.20817 5.27614)
(-1.24276e-15 -2.37888 5.73776)
(-2.763e-15 -3.70078 9.57212)
(-2.7208e-15 -4.06224 8.37383)
(-3.11057e-15 -4.80797 8.71165)
(-3.29244e-15 -4.91896 8.88381)
(-4.34188e-15 -6.97114 12.8439)
(-2.77095e-15 -6.96789 9.87743)
(-2.05114e-15 -7.40132 10.3503)
(-2.87366e-16 -9.67707 13.6824)
(1.55504e-15 -8.82713 10.1091)
(1.8406e-15 -9.22869 10.6443)
(2.21833e-15 -9.29818 10.52)
(2.20591e-15 -9.43726 10.5951)
(2.16215e-15 -9.52299 10.6965)
(1.97717e-15 -9.55978 10.9272)
(1.69151e-15 -9.5274 11.2516)
(1.43692e-15 -9.77197 11.5857)
(2.56332e-15 -8.67485 10.6851)
(1.36852e-15 -8.80465 12.0044)
(1.14189e-15 -8.78261 12.5122)
(8.89394e-16 -8.58 12.928)
(6.23395e-16 -8.43306 13.326)
(3.19962e-16 -8.23254 13.6347)
(-4.6974e-17 -8.01154 13.7972)
(-1.43063e-16 -7.66427 13.6258)
(-2.78408e-16 -7.28947 12.612)
(-3.55738e-16 -6.94538 10.0105)
(1.04672e-15 -2.12052 -2.62217)
(-1.34957e-17 -5.06935 2.65167)
(9.5374e-16 -3.84099 -1.0119)
(1.0929e-15 -6.23465 0.771236)
(1.03315e-15 -5.35307 -0.697779)
(8.2537e-16 -4.72096 -0.814362)
(1.23438e-15 -6.0593 -1.46255)
(8.5042e-16 -4.06629 -1.52015)
(1.36531e-15 -4.99837 -2.49483)
(1.0432e-15 -3.98254 -2.83924)
(7.57115e-16 -3.01777 -2.40043)
(9.56251e-16 -3.62237 -3.42517)
(5.49215e-16 -1.72291 -2.43311)
(6.70028e-16 -2.21079 -3.54969)
(2.33255e-16 -0.99078 -2.38664)
(6.7902e-17 0.102834 -1.09073)
(-9.6423e-17 -0.430681 -1.50995)
(-3.71551e-16 0.72431 0.200782)
(-1.3948e-16 0.820492 0.25148)
(-2.05106e-16 0.848355 1.76098)
(1.35813e-15 0.44081 1.52021)
(-7.80946e-15 0.646201 2.56631)
(-8.19192e-16 0.196465 -0.839575)
(-9.74415e-16 0.11778 -2.06065)
(-4.64344e-16 0.0330987 -2.65336)
(-7.50764e-16 -0.31621 0.951664)
(-1.28645e-15 -0.103463 3.02987)
(-1.21745e-15 0.132212 1.6237)
(-1.22951e-15 0.0411458 0.865819)
(-1.27617e-15 0.201058 -0.451979)
(-1.44615e-15 0.0324767 -2.27906)
(-6.40111e-16 -0.145883 -1.2882)
(-9.30864e-16 -0.140548 1.444)
(-1.9507e-15 0.110951 0.817226)
(-2.13333e-15 0.249324 -1.59611)
(-2.09659e-15 0.2054 -3.38344)
(-1.89944e-15 0.335922 -6.04354)
(-1.45773e-15 0.327373 -9.85844)
(-1.04989e-15 -0.304398 -12.6539)
(-3.70327e-16 -0.851289 -7.57425)
(-4.20832e-15 -0.200745 3.17909)
(-1.44956e-15 0.542962 -0.481675)
(-1.7415e-15 0.102366 -2.02671)
(-1.13393e-15 -0.378801 -1.1507)
(-1.32783e-15 -0.801235 2.37328)
(-1.10754e-15 -0.157763 2.42421)
(-1.08343e-15 0.516874 0.55015)
(-1.15364e-15 0.243743 -0.408563)
(-1.20134e-15 0.500134 -1.6353)
(-1.48077e-15 0.147768 -3.26658)
(-1.09632e-15 -0.634871 -2.34372)
(-1.36835e-15 -0.369976 2.50486)
(-2.05336e-15 0.518558 0.689738)
(-2.76223e-15 0.684284 -1.53183)
(-2.81226e-15 0.607708 -3.27803)
(-2.09761e-15 1.04299 -5.71612)
(-1.05494e-15 1.08582 -9.67248)
(-6.82693e-16 -0.248168 -12.7897)
(-1.93083e-16 -2.26039 -12.6584)
(-2.57247e-15 -1.64995 -0.0523574)
(-1.52235e-15 0.810929 -0.748468)