/*--------------------------------*- C++ -*----------------------------------*\
| =========                 |                                                 |
| \\      /  F ield         | OpenFOAM: The Open Source CFD Toolbox           |
|  \\    /   O peration     | Version:  4.1                                   |
|   \\  /    A nd           | Web:      www.OpenFOAM.org                      |
|    \\/     M anipulation  |                                                 |
\*---------------------------------------------------------------------------*/
FoamFile
{
    version     2.0;
    format      ascii;
    class       volScalarField;
    location    "14";
    object      p;
}
// * * * * * * * * * * * * * * * * * * * * * * * * * * * * * * * * * * * * * //

dimensions      [0 2 -2 0 0 0 0];

internalField   nonuniform List<scalar> 
1280
(
0.592373
1.33202
1.97459
2.1921
2.79503
2.96854
2.89056
2.88313
2.93512
2.46189
1.84114
1.80822
0.35911
-1.56569
-1.81197
-5.46534
-10.2831
-11.5615
-18.6072
-31.1461
-25.0629
-13.544
3.54964
18.3828
26.8928
33.7509
18.8383
14.7711
18.8539
17.7521
16.0863
14.5435
12.1365
9.2057
5.99924
2.74645
-0.269912
-2.64099
-3.84602
-7.34003
5.04898
8.93182
11.7387
17.6382
33.4848
31.3608
31.8995
32.9513
34.7595
34.5819
34.5511
34.7347
31.9105
30.3536
29.6388
31.8326
13.5734
7.12073
2.88644
-6.49688
-11.2972
-7.54282
-7.01353
-4.72905
-1.89878
1.20021
4.24429
7.02834
9.31106
10.7463
12.3222
13.4176
9.22453
8.12017
30.1234
23.6183
15.4423
0.953017
-15.4742
-26.311
-31.3353
-17.7351
-8.13994
-2.56237
2.78958
11.3981
12.961
13.5812
15.3172
16.7001
15.512
14.7076
14.209
11.4304
10.1388
10.0191
6.92991
1.37099
0.0121195
2.58599
0.207336
1.37826
1.35351
0.879009
0.70621
0.406646
-0.39913
-2.51431
-4.35515
-9.30957
-10.3737
-5.86053
-4.61679
-1.30027
2.37762
3.60756
3.08225
1.85643
1.80587
0.144007
2.09723
1.21164
0.105839
-1.05475
-2.13289
-2.69696
-2.63195
-5.41331
-7.17851
-12.7844
-4.93629
-1.22432
4.71702
9.68563
10.3138
8.68676
5.75681
4.49686
0.00420763
3.55649
1.94967
0.323489
-1.35573
-3.04045
-4.7276
-6.36905
-8.18853
-4.86529
-16.7846
-4.52252
0.266483
7.8307
14.5221
15.6246
14.0716
9.60021
6.81937
-0.414779
4.013
1.58124
-0.479889
-2.68321
-4.58782
-6.43003
-8.01685
-8.10082
-7.68886
-22.5036
-5.96606
0.781975
10.2356
19.3228
21.2583
19.7811
13.4575
7.61636
-0.549025
4.02521
1.05851
-1.18228
-3.5571
-5.40277
-7.41229
-9.33363
-9.47375
-16.0615
-27.9403
-8.03608
1.7045
12.8633
24.2481
27.0399
25.6067
17.2743
7.59128
-0.315029
3.3941
0.225229
-2.15843
-4.54287
-6.13733
-7.96198
-9.65043
-10.6597
-25.0524
-32.293
-10.2436
2.70329
15.2917
28.7375
32.2907
31.1646
19.7471
-1.22154
0.115991
2.63953
-0.523482
-3.21605
-5.40055
-6.72763
-8.32857
-9.56439
-11.561
-31.6979
-33.9906
-12.3914
3.57968
17.1444
32.5452
37.1371
36.7026
22.208
-7.90196
0.470942
2.18276
-1.06836
-4.36918
-6.2815
-7.39107
-8.58783
-8.95591
-11.4664
-34.0472
-32.1915
-14.1091
4.39455
18.6025
35.5159
42.1071
39.3397
29.558
2.81009
0.611697
1.83294
-1.44441
-5.40947
-7.09485
-8.06552
-8.66679
-7.79104
-10.0606
-31.6341
-27.6185
-14.6667
4.93741
18.8403
36.6652
46.3922
39.8928
33.0128
45.0894
0.531802
1.43264
-1.75735
-6.31836
-8.06494
-8.76122
-8.52187
-6.03518
-7.26455
-25.6237
-21.3548
-13.7097
4.82743
18.4221
33.952
38.5427
35.0153
32.196
46.608
0.286796
0.989001
-2.08428
-7.03897
-9.50499
-9.48625
-8.14973
-3.7823
-3.32442
-17.9871
-14.687
-11.7481
4.07475
15.3728
25.6967
28.417
30.3597
32.2653
46.7316
-0.0892398
0.394716
-2.50464
-7.51515
-11.4276
-10.1767
-7.56761
-1.16607
1.59307
-9.58596
-8.35501
-9.44229
2.82298
11.2542
17.7707
19.0552
22.4674
28.5236
46.96
-0.679309
-0.621033
-3.04106
-7.61898
-13.2919
-10.5488
-6.78345
1.60612
7.27853
-0.620681
-2.02178
-6.41166
1.69465
6.58651
4.98793
-0.414024
9.93239
19.6732
9.93334
-1.33828
-1.67337
-3.61577
-7.24481
-14.45
-10.3034
-5.82613
4.22181
13.1222
7.32947
3.85672
-2.20921
1.77136
2.59695
-5.52955
-6.90728
6.17162
17.5881
8.51091
-1.7992
-2.33588
-4.00929
-6.35686
-14.3743
-9.37711
-4.76801
6.26492
17.9758
12.4994
8.20709
2.47238
3.06027
-0.149543
-12.2915
-8.82258
3.88892
15.6805
9.90778
-2.02199
-2.72301
-4.09106
-5.21208
-13.0359
-7.91357
-3.70323
7.35356
20.6283
14.5639
10.4687
5.64079
3.84481
-2.5274
-16.0009
-13.2055
1.40347
11.5201
8.99907
-1.82129
-2.58917
-3.63146
-3.7652
-10.3226
-6.06242
-2.65591
7.40776
20.5657
13.8508
10.7388
6.76552
3.5234
-4.40155
-14.425
-15.7367
0.535535
8.56482
7.08927
-1.48814
-2.31619
-3.05513
-2.72863
-7.23821
-4.49742
-1.77391
6.65325
17.9359
10.0571
8.70004
5.63937
2.14013
-5.69274
-10.6989
-15.5109
-0.278808
5.71551
5.16815
-0.759165
-1.33945
-1.73014
-1.00475
-3.29019
-3.65898
-1.51793
5.37998
14.0944
6.06771
6.04651
3.83357
1.02582
-5.73309
-7.97941
-13.5722
-1.02075
3.41658
3.2078
-0.634849
-1.37838
-1.34615
-1.10501
-1.36678
-2.70677
-1.35008
2.41731
6.29375
1.59308
1.35426
1.12868
0.0564408
-3.32341
-4.21995
-8.21513
0.14414
2.03115
1.52216
42.0198
39.6346
37.9359
35.6312
32.4092
29.0791
25.1617
21.5475
18.3396
15.7915
13.7247
12.1559
11.0854
10.4801
10.2424
10.2026
10.0012
9.64951
8.83262
8.70785
46.5599
42.5867
38.9892
35.7135
31.8974
27.4379
22.8203
18.4161
14.4127
10.819
7.74873
5.26841
3.52289
2.62144
2.57705
3.20465
4.22484
5.52937
6.37372
5.24216
91.7273
90.0789
88.3923
87.6937
87.3237
87.0659
86.6009
85.7693
84.5196
82.5817
79.7258
75.6713
70.3329
64.0722
57.8343
52.6079
49.0245
47.468
47.7176
44.9485
69.3018
70.4884
70.5324
71.102
71.3209
71.6069
71.9795
72.3033
72.6855
73.0407
73.3654
73.618
73.7117
73.4262
72.6648
71.4918
70.3172
69.1743
69.0978
68.1862
58.5502
60.7784
61.9134
63.2063
64.3746
65.2548
66.2291
66.9371
67.5642
67.9936
68.2814
68.4801
68.723
69.1653
69.9943
71.2155
72.7262
74.1669
75.2314
75.943
33.1799
35.7041
37.388
38.8411
40.5758
41.818
43.3681
44.6813
46.0574
47.3795
48.675
49.9453
51.1939
52.4532
53.7547
55.1938
56.6858
58.4083
59.7144
61.376
14.8691
17.1757
18.9394
20.0602
21.9562
23.0842
24.7534
26.0984
27.583
29.0118
30.439
31.8628
33.2673
34.6764
36.056
37.48
38.8239
40.3529
41.4702
43.1109
-10.4167
-8.83236
-7.01405
-6.53627
-4.48467
-3.70113
-1.91751
-0.653149
0.982872
2.57595
4.30872
6.14826
8.09874
10.1857
12.3428
14.6281
16.8508
19.2092
21.0226
23.9051
-34.5277
-36.1214
-35.1158
-36.6568
-35.9424
-37.241
-37.1193
-38.0619
-38.4116
-39.0695
-39.4172
-39.5779
-39.3346
-38.5992
-37.2953
-35.2559
-32.7751
-29.6831
-27.5153
-23.864
-23.5571
-28.5366
-28.8356
-32.3103
-33.4427
-36.6096
-38.4461
-41.422
-43.7569
-46.4948
-48.8251
-51.0666
-53.0208
-54.7764
-56.1809
-57.3563
-58.2735
-58.2444
-57.8338
-55.1017
22.9031
17.688
16.8429
12.4812
10.6976
6.6531
4.06754
0.225442
-2.8937
-6.45876
-9.45704
-12.2375
-14.3932
-16.046
-17.0409
-17.6556
-18.3027
-18.9245
-20.3936
-22.3286
66.7346
65.3741
66.2149
64.5631
65.8351
64.5822
65.3617
64.5635
64.5898
63.8157
63.0581
61.6827
59.7902
57.1225
53.7666
49.9825
46.614
44.9733
44.1812
40.4386
51.8093
52.8621
54.7213
54.2038
56.644
56.4615
58.361
58.9076
60.2556
61.1164
62.0631
62.7909
63.4256
63.9012
64.1461
63.9695
63.3659
62.3484
62.1234
61.7517
34.4449
35.6628
38.8739
38.1966
41.7787
41.8256
44.3579
45.3883
47.1044
48.4516
49.7733
50.925
51.895
52.7384
53.6148
54.7268
56.1699
57.9253
59.3392
60.7309
1.67734
1.7455
5.70971
4.3845
8.49095
8.26634
11.1065
12.2903
14.3728
16.2014
18.1797
20.2052
22.2708
24.4022
26.5667
28.8477
31.1366
33.6507
35.8092
38.8636
-19.0171
-22.1455
-19.5009
-23.3349
-20.9488
-23.3858
-22.5098
-23.44
-23.3045
-23.5221
-23.462
-23.3463
-23.067
-22.5064
-21.556
-19.8865
-17.8063
-15.0999
-13.152
-9.79767
10.7917
5.05735
6.65772
-0.776722
-1.3937
-6.83517
-9.59678
-13.7487
-17.1141
-20.7147
-24.03
-27.2168
-30.0647
-32.3676
-33.8785
-34.5712
-34.8934
-34.8542
-34.9423
-33.6375
29.5886
21.6746
29.3058
21.5901
22.939
18.7987
16.7583
13.3769
10.2415
6.77871
3.29156
-0.22327
-3.58117
-6.53798
-8.72887
-10.0457
-10.9859
-11.92
-13.3884
-13.9577
49.9861
27.466
35.7395
24.759
22.2468
15.7739
11.0744
6.03563
1.73678
-2.06931
-5.12175
-7.36554
-8.66363
-8.83077
-7.59582
-5.14342
-1.97566
1.91794
5.23875
6.18938
729.583
647.268
598.456
542.526
493.793
446.742
402.971
361.595
322.614
285.739
250.801
217.617
186.012
155.959
127.563
100.054
73.4572
51.7794
27.3513
-9.34295
729.58
647.266
598.453
542.524
493.791
446.74
402.97
361.594
322.614
285.74
250.802
217.619
186.014
155.962
127.566
100.057
73.4592
51.7802
27.3515
-9.3415
49.9941
27.4744
35.7479
24.7677
22.2555
15.783
11.0837
6.04512
1.74647
-2.05949
-5.1118
-7.3555
-8.65332
-8.81977
-7.58385
-5.13092
-1.96251
1.93256
5.25488
6.20591
29.6069
21.6931
29.3248
21.6099
22.9601
18.8213
16.7829
13.4039
10.2714
6.81189
3.3285
-0.182127
-3.53525
-6.4866
-8.67185
-9.98436
-10.9222
-11.8591
-13.3316
-13.9073
10.7883
5.05159
6.65061
-0.786071
-1.40527
-6.84931
-9.61383
-13.769
-17.138
-20.7426
-24.0625
-27.2549
-30.1092
-32.4191
-33.9367
-34.6369
-34.9657
-34.9308
-35.0245
-33.7217
-19.0694
-22.2017
-19.5598
-23.3964
-21.0139
-23.454
-22.5817
-23.5154
-23.3835
-23.6046
-23.5476
-23.4349
-23.1578
-22.5978
-21.646
-19.9724
-17.8867
-15.1828
-13.2388
-9.88468
1.59642
1.66297
5.62733
4.30177
8.40809
8.18331
11.0236
12.2074
14.2903
16.1192
18.0982
20.1243
22.1908
24.3231
26.4888
28.7714
31.0619
33.5774
35.7375
38.7967
34.3923
35.6097
38.8214
38.1434
41.7253
41.7721
44.3036
45.3341
47.0497
48.3971
49.7192
50.8726
51.8461
52.6955
53.5806
54.702
56.1504
57.908
59.3226
60.7177
51.7691
52.8262
54.6878
54.1727
56.6153
56.4378
58.3411
58.8943
60.2489
61.1188
62.0752
62.8137
63.4576
63.9406
64.1893
64.0082
63.3955
62.374
62.1519
61.7889
66.84
65.4871
66.3299
64.6832
65.9591
64.7103
65.4935
64.6979
64.7252
63.9503
63.1897
61.8093
59.9097
57.235
53.874
50.0861
46.7156
45.0709
44.2791
40.5404
23.0689
17.8579
17.0121
12.6529
10.8716
6.83113
4.25027
0.414785
-2.69623
-6.25071
-9.23697
-12.0039
-14.1465
-15.787
-16.7692
-17.3678
-18.0107
-18.6678
-20.1615
-22.1269
-23.4932
-28.4791
-28.7864
-32.2697
-33.4111
-36.5874
-38.4354
-41.4239
-43.7753
-46.5322
-48.8851
-51.1517
-53.1326
-54.9173
-56.3421
-57.5366
-58.51
-58.513
-58.1075
-55.3887
-34.6951
-36.3067
-35.3132
-36.8687
-36.1695
-37.4848
-37.3807
-38.3427
-38.7121
-39.3904
-39.7572
-39.9343
-39.7036
-38.9793
-37.6809
-35.6401
-33.1558
-30.0603
-27.8943
-24.2401
-10.6901
-9.1134
-7.29906
-6.82638
-4.77826
-3.99884
-2.21821
-0.956821
0.67728
2.26907
4.00171
5.8423
7.79511
9.88533
12.0462
14.3355
16.5653
18.9307
20.7504
23.6433
14.6411
16.9461
18.7102
19.831
21.7282
22.8571
24.528
25.8748
27.3615
28.7927
30.2222
31.6484
33.0551
34.4665
35.8479
37.2734
38.6188
40.1492
41.2678
42.91
32.9216
35.4496
37.1366
38.5933
40.3314
41.5771
43.1303
44.4463
45.8242
47.1476
48.4432
49.7136
50.9622
52.2219
53.5242
54.9643
56.4573
58.1804
59.487
61.1503
58.3151
60.5408
61.672
62.9581
64.1212
64.9958
65.9641
66.6676
67.2931
67.7261
68.0237
68.2413
68.5083
68.9713
69.815
71.0455
72.5548
73.9896
75.0499
75.7664
69.0726
70.2646
70.3071
70.8951
71.1249
71.4225
71.8116
72.1573
72.5626
72.9379
73.2841
73.5497
73.6253
73.2996
72.5106
71.311
70.1075
68.9545
68.8806
67.9694
91.6769
90.0483
88.2993
87.547
87.1389
86.8794
86.4189
85.5861
84.3266
82.3763
79.5157
75.466
70.143
63.9208
57.736
52.5555
48.9952
47.4064
47.6493
44.9453
47.2245
43.416
39.7692
36.4981
32.7206
28.2824
23.6397
19.1839
15.142
11.527
8.44764
5.96477
4.21959
3.31887
3.27109
3.89115
4.89846
6.2087
7.08984
5.96705
46.4177
44.0406
42.0665
39.4833
35.958
32.3116
28.1248
24.3499
21.0128
18.3904
16.2842
14.7012
13.6377
13.0555
12.8532
12.8496
12.6625
12.2839
11.4682
11.1553
)
;

boundaryField
{
    outletWall
    {
        type            fixedValue;
        value           uniform 0;
    }
    fineWalls
    {
        type            zeroGradient;
    }
    fineFrontAndBack
    {
        type            zeroGradient;
    }
    fineplugLeft
    {
        type            cyclicAMI;
        value           nonuniform List<scalar> 
20
(
5.49827
6.2969
7.19141
7.94697
8.71134
9.39378
10.2252
11.2957
12.6334
14.1971
16.1836
18.4425
20.1922
24.4427
30.0134
31.3059
32.1815
31.0587
28.9989
28.6033
)
;
    }
    fineplugRight
    {
        type            cyclicAMI;
        value           nonuniform List<scalar> 
20
(
6.66478
7.66601
8.4244
9.18418
9.89991
10.5226
11.2932
12.3158
13.6232
15.1766
17.1767
19.4937
21.3248
25.8501
31.8739
33.4901
34.6751
33.8438
32.1376
31.872
)
;
    }
    inletOutletLeft
    {
        type            cyclicAMI;
        value           nonuniform List<scalar> 
20
(
5.49827
6.2969
7.19141
7.94697
8.71134
9.39378
10.2252
11.2957
12.6334
14.1971
16.1836
18.4425
20.1922
24.4427
30.0134
31.3059
32.1815
31.0587
28.9989
28.6033
)
;
    }
    inletLeft
    {
        type            zeroGradient;
    }
    inletWallsLeft
    {
        type            zeroGradient;
    }
    inletFacesLeft
    {
        type            zeroGradient;
    }
    inletOutletRight
    {
        type            cyclicAMI;
        value           nonuniform List<scalar> 
20
(
6.66478
7.66601
8.4244
9.18418
9.89991
10.5226
11.2932
12.3158
13.6232
15.1766
17.1767
19.4937
21.3248
25.8501
31.8739
33.4901
34.6751
33.8438
32.1376
31.872
)
;
    }
    inletRight
    {
        type            zeroGradient;
    }
    inletWallsRight
    {
        type            zeroGradient;
    }
    inletFacesRight
    {
        type            zeroGradient;
    }
}


// ************************************************************************* //
