/*--------------------------------*- C++ -*----------------------------------*\
| =========                 |                                                 |
| \\      /  F ield         | OpenFOAM: The Open Source CFD Toolbox           |
|  \\    /   O peration     | Version:  4.1                                   |
|   \\  /    A nd           | Web:      www.OpenFOAM.org                      |
|    \\/     M anipulation  |                                                 |
\*---------------------------------------------------------------------------*/
FoamFile
{
    version     2.0;
    format      ascii;
    class       volScalarField;
    location    "3";
    object      p;
}
// * * * * * * * * * * * * * * * * * * * * * * * * * * * * * * * * * * * * * //

dimensions      [0 2 -2 0 0 0 0];

internalField   nonuniform List<scalar> 
1280
(
0.321854
0.483698
1.18096
1.90384
2.52971
2.92576
3.13064
3.37942
3.5242
3.58206
3.65754
3.78861
3.53443
3.54406
4.04182
2.8024
2.42584
2.83603
2.38417
-2.32279
3.04716
12.6979
22.0523
24.6469
24.9621
26.662
6.29305
11.7779
10.7518
10.9266
10.8387
10.5294
10.4559
10.3882
10.4841
10.6143
10.9046
11.0764
11.8569
10.394
-20.3135
-11.0215
-5.95064
-3.10391
1.57317
1.94261
2.1814
2.3158
3.34708
3.12668
3.1443
3.44257
2.31593
2.18501
1.94769
1.54115
-3.08896
-5.91297
-10.9538
-20.266
10.5203
11.9992
11.2218
11.0523
10.7661
10.637
10.542
10.6086
10.6806
10.9876
11.0727
10.8932
11.9161
6.47344
26.741
25.0296
24.7075
22.1217
12.7847
3.13437
-2.24707
2.46422
2.91901
2.52365
2.8979
4.14296
3.67597
3.66669
3.91064
3.8244
3.75983
3.6831
3.49034
3.22389
3.00703
2.53595
1.87099
1.15264
0.495687
0.326921
0.0254759
0.104304
0.134226
0.197598
0.263197
0.358593
0.4935
0.656792
0.633978
-0.433641
-2.03307
-3.38154
-6.67606
-2.79347
0.747674
2.37188
2.56738
1.17293
0.457088
0.0361548
0.211832
0.268445
0.394462
0.497257
0.612603
0.70843
0.703104
0.352733
-0.836732
-2.60416
-3.04236
-8.83579
-1.92116
3.64081
6.30242
5.95975
2.94659
1.47201
0.0556917
0.354126
0.456718
0.672565
0.847052
1.02908
1.15092
1.07564
0.474018
-0.917433
-2.53718
-3.81694
-10.4755
-1.76628
5.47266
8.69678
8.13931
4.08149
2.47549
0.0566244
0.45269
0.57748
0.844555
1.03302
1.18164
1.17114
0.853597
-0.0139477
-1.30446
-2.7211
-7.59075
-11.8354
-2.82404
7.41862
11.4188
10.6228
5.53832
3.61893
0.0516439
0.543081
0.67998
0.97921
1.15346
1.25116
1.15963
0.812134
0.111513
-0.787935
-2.56504
-10.6812
-11.9621
-3.67976
10.046
14.6091
12.8943
6.21465
3.93936
0.0332356
0.607184
0.742164
1.05832
1.20042
1.22666
1.11891
0.994147
0.826279
0.549345
-1.49716
-11.2623
-11.6654
-4.85652
12.4664
17.8996
15.052
8.12974
5.40968
0.00511456
0.648831
0.763742
1.05951
1.15729
1.21394
1.27042
1.48732
1.7766
1.91914
0.0580087
-9.02339
-10.8213
-3.33499
16.0113
21.4127
15.6235
4.75133
3.74188
-0.0286136
0.666392
0.76283
1.05749
1.1505
1.25814
1.50694
2.01877
2.5805
2.90206
1.40937
-5.96032
-10.5301
-3.0023
16.7601
25.0219
18.8457
11.3291
3.67325
-0.0583125
0.665197
0.757101
1.05093
1.16328
1.33561
1.76582
2.42629
2.96574
3.11617
1.85594
-2.93534
-6.15666
1.0416
18.3034
24.2763
21.4264
28.9125
19.4213
-0.0711602
0.663449
0.757314
1.05634
1.1862
1.39557
1.92231
2.65068
3.14112
3.16085
1.94953
-2.06978
-4.92015
2.30833
18.1469
24.0844
24.8129
36.5639
18.5365
-0.0705777
0.665388
0.7591
1.05708
1.18458
1.39088
1.91568
2.6443
3.13484
3.15791
1.95601
-2.058
-4.92765
2.29834
18.1554
24.1206
24.8011
36.5148
18.47
-0.0586881
0.664853
0.756587
1.05174
1.16549
1.3388
1.76333
2.41208
2.9388
3.09478
1.86972
-2.88843
-6.16225
1.00873
18.2146
24.208
21.2918
28.7753
19.5047
-0.0280895
0.668738
0.765682
1.06062
1.15181
1.26125
1.50402
2.00236
2.54672
2.86704
1.42395
-5.8755
-10.544
-3.04564
16.6183
24.8706
18.7976
11.4464
3.77589
0.00532673
0.650289
0.765573
1.06291
1.16117
1.21983
1.27142
1.4766
1.74945
1.88753
0.0762025
-8.93387
-10.8471
-3.41126
15.8826
21.2547
15.6119
4.83869
3.73053
0.0336267
0.609271
0.745592
1.06373
1.2061
1.23294
1.12228
0.988759
0.807367
0.523852
-1.48467
-11.1869
-11.6536
-4.9431
12.3441
17.7527
15.0107
8.1361
5.38978
0.0520304
0.544975
0.683063
0.983901
1.15904
1.25779
1.16482
0.812078
0.102219
-0.80528
-2.56785
-10.651
-11.9413
-3.75884
9.94344
14.4895
12.8436
6.2042
3.9181
0.0569725
0.454316
0.580252
0.84889
1.03848
1.18799
1.17713
0.857683
-0.0132433
-1.30971
-2.73365
-7.59515
-11.8398
-2.88707
7.33364
11.3194
10.5694
5.50755
3.58946
0.0559825
0.355406
0.458934
0.67602
0.851496
1.03432
1.1564
1.08098
0.479404
-0.916722
-2.55378
-3.82978
-10.5005
-1.81833
5.40354
8.62013
8.09379
4.05002
2.46574
0.0363445
0.212627
0.269811
0.396571
0.499987
0.615831
0.711849
0.706591
0.356255
-0.838818
-2.62093
-3.06282
-8.85552
-1.96527
3.58508
6.24311
5.9243
2.91259
1.48005
0.0255534
0.104615
0.134765
0.19846
0.264398
0.360142
0.495302
0.658648
0.635194
-0.436133
-2.03799
-3.40234
-6.6891
-2.81796
0.717535
2.34035
2.5508
1.14679
0.468832
93.0967
92.3247
92.0349
90.8836
90.2305
89.2229
88.3813
87.1969
85.8542
84.5046
83.2398
81.9427
80.7634
79.6045
78.6337
77.719
77.0363
76.4061
76.0503
75.5951
72.1071
72.4161
72.7492
72.5942
73.0817
73.1762
73.5358
73.6258
73.7888
73.8006
73.8311
73.7767
73.7301
73.6254
73.5338
73.413
73.3087
73.2073
73.1265
73.0597
77.6658
77.357
77.5502
77.1463
77.3861
77.1283
77.3145
77.1278
77.1895
77.0793
77.0568
76.9712
76.9109
76.8266
76.7481
76.6655
76.5764
76.5009
76.4164
76.3238
74.6495
74.5766
74.8157
74.6647
75.0366
74.7923
75.2005
75.0261
75.2456
75.2142
75.3104
75.3344
75.3833
75.4168
75.4448
75.4771
75.4902
75.5205
75.5226
75.5442
76.1598
75.9656
76.1733
75.9218
76.3413
75.9011
76.267
76.0105
76.1524
76.0745
76.109
76.0972
76.1052
76.1126
76.1157
76.13
76.1307
76.1454
76.145
76.1433
75.0516
74.9219
75.3045
74.9328
75.5271
75.12
75.4649
75.3193
75.4433
75.4419
75.4989
75.5421
75.5925
75.6513
75.7049
75.7733
75.8256
75.9003
75.9405
76.0091
72.542
72.5819
73.1345
72.8046
73.436
73.2212
73.533
73.5589
73.7096
73.8208
73.947
74.0796
74.2126
74.3578
74.4959
74.6547
74.7852
74.9618
75.0558
75.2481
66.7623
67.2209
67.8276
67.7884
68.4394
68.5076
68.9008
69.1468
69.4376
69.7259
70.0125
70.3088
70.6024
70.908
71.2001
71.5205
71.7887
72.1386
72.3275
72.7247
57.9727
58.8243
59.545
59.6994
60.5148
60.7987
61.3809
61.8413
62.3336
62.8301
63.3226
63.8238
64.3206
64.8297
65.3173
65.8422
66.2874
66.8535
67.1688
67.8209
46.7509
47.7353
48.7603
48.852
49.9789
50.3039
51.1171
51.709
52.3824
53.0499
53.72
54.4026
55.0818
55.7775
56.4466
57.1631
57.7783
58.5475
58.9966
59.8974
35.175
35.9911
37.2835
37.1086
38.5047
38.6193
39.5998
40.1134
40.8441
41.5229
42.2272
42.9512
43.6776
44.4303
45.1572
45.9426
46.6162
47.4682
47.9779
48.973
25.4737
25.8835
27.2919
26.7689
28.343
28.0745
29.1703
29.4275
30.1252
30.6586
31.2602
31.8725
32.4899
33.1383
33.7596
34.4447
35.0094
35.7706
36.1658
37.1467
17.9087
17.9927
19.6268
18.8011
20.7227
20.1616
21.5074
21.6267
22.4205
22.9109
23.5112
24.0872
24.6536
25.232
25.7647
26.3393
26.779
27.3823
27.6132
28.3568
7.7382
7.8095
10.2228
9.23086
11.9994
11.4682
13.4169
13.8151
15.0563
15.9188
16.9116
17.8603
18.785
19.6977
20.5395
21.3727
22.0422
22.7726
23.1217
23.7435
-13.7934
-14.2965
-10.8237
-12.2056
-8.42371
-8.86642
-6.19106
-5.27988
-3.37051
-1.80229
-0.0505213
1.71686
3.51044
5.34331
7.14186
8.95272
10.6037
12.2678
13.5201
15.3501
-34.992
-38.1916
-35.3779
-39.0629
-36.355
-38.5893
-37.3662
-37.9799
-37.5067
-37.3497
-36.9443
-36.4911
-35.9455
-35.2197
-34.2474
-32.7203
-30.8921
-28.1123
-26.0525
-22.9641
-10.3862
-16.2287
-14.704
-22.2289
-22.906
-28.4592
-31.2984
-35.5485
-38.9959
-42.6319
-45.9485
-49.0784
-51.815
-53.8718
-54.9225
-55.0508
-54.9356
-54.6889
-54.5123
-52.6497
13.0938
4.85989
12.2047
4.1545
5.14401
0.633892
-1.81062
-5.60974
-9.17188
-13.0703
-16.995
-20.9747
-24.7813
-28.0653
-30.2918
-31.4637
-32.4007
-33.0197
-34.4559
-35.1869
37.6647
15.0841
23.2691
12.2139
9.6164
3.05034
-1.74375
-6.88114
-11.2749
-15.1683
-18.3012
-20.6192
-21.9901
-22.2072
-20.9441
-18.5208
-15.627
-12.012
-8.84974
-8.18718
716.078
633.923
585.03
529.081
480.267
433.112
389.201
347.654
308.476
271.381
236.201
202.764
170.936
140.757
112.372
84.9428
58.3091
36.3171
11.5631
-25.2307
716.092
633.94
585.049
529.103
480.291
433.14
389.231
347.687
308.512
271.419
236.241
202.807
170.98
140.802
112.417
84.9862
58.3482
36.3495
11.5914
-25.1965
37.7097
15.1319
23.3184
12.2657
9.67051
3.10687
-1.68486
-6.82009
-11.2119
-15.1038
-18.2356
-20.5528
-21.9233
-22.1389
-20.8746
-18.4543
-15.5643
-11.9487
-8.78391
-8.12237
13.1442
4.91088
12.256
4.20645
5.19709
0.688053
-1.75452
-5.55139
-9.11072
-13.0053
-16.9244
-20.8959
-24.6909
-27.9587
-30.1655
-31.3247
-32.2657
-32.9015
-34.3447
-35.0892
-10.391
-16.2431
-14.7222
-22.2545
-22.9383
-28.4987
-31.3454
-35.6036
-39.0604
-42.7077
-46.0373
-49.1819
-51.9345
-54.0078
-55.0753
-55.2287
-55.133
-54.9005
-54.7309
-52.8765
-35.1601
-38.3718
-35.5648
-39.2589
-36.5617
-38.8058
-37.5943
-38.2197
-37.7587
-37.615
-37.2229
-36.7833
-36.2506
-35.5349
-34.5675
-33.0373
-31.1983
-28.4242
-26.3763
-23.292
-13.9936
-14.4994
-11.0253
-12.4093
-8.62736
-9.07051
-6.39518
-5.4834
-3.57304
-2.00316
-0.249125
1.52124
3.31844
5.15566
6.95911
8.77549
10.4323
12.1011
13.3587
15.1984
7.59267
7.66691
10.0837
9.09285
11.8647
11.3362
13.2875
13.689
14.9331
15.7989
16.795
17.747
18.675
19.591
20.4359
21.2721
21.9444
22.6773
23.0282
23.6521
17.8022
17.8884
19.5241
18.699
20.6226
20.0627
21.4099
21.5307
22.3258
22.8175
23.4191
23.9962
24.5636
25.143
25.6764
26.2518
26.692
27.2959
27.5268
28.2706
25.3812
25.7915
27.2005
26.6773
28.2524
27.9839
29.0802
29.3375
30.0355
30.5689
31.1706
31.783
32.4003
33.0488
33.6701
34.3552
34.9195
35.681
36.0754
37.059
35.0962
35.913
37.2062
37.0313
38.4285
38.543
39.5243
40.0381
40.7694
41.4486
42.1535
42.8782
43.6054
44.3591
45.087
45.8738
46.5487
47.4025
47.9134
48.9112
46.6931
47.6789
48.7052
48.7975
49.926
50.2516
51.066
51.6589
52.3333
53.002
53.6734
54.3574
55.0381
55.7355
56.4064
57.1248
57.742
58.5135
58.9644
59.8674
57.9385
58.7916
59.5134
59.6688
60.4858
60.7705
61.3541
61.8156
62.3091
62.8068
63.3007
63.8032
64.3015
64.8121
65.3012
65.8277
66.2745
66.8424
67.1588
67.8128
66.7446
67.2048
67.8121
67.7744
68.4265
68.4959
68.8902
69.1373
69.4293
69.7188
70.0066
70.3041
70.5989
70.9057
71.199
71.5205
71.7898
72.141
72.3306
72.7291
72.5394
72.5811
73.1338
72.8061
73.4377
73.2243
73.5365
73.5637
73.7151
73.8274
73.9544
74.088
74.2218
74.3678
74.5066
74.6662
74.7974
74.9749
75.0694
75.2626
75.0598
74.9317
75.315
74.9445
75.539
75.1334
75.478
75.3342
75.4581
75.4582
75.5156
75.5598
75.6107
75.6703
75.7244
75.7936
75.8463
75.9218
75.9623
76.0318
76.1792
75.9865
76.1947
75.9429
76.3642
75.9248
76.2899
76.0359
76.1771
76.1008
76.1354
76.1247
76.133
76.1411
76.1446
76.1596
76.1605
76.176
76.1757
76.1749
74.6791
74.6072
74.8478
74.696
75.0694
74.8251
75.2328
75.0611
75.2794
75.2499
75.3458
75.3709
75.4201
75.4542
75.4825
75.5155
75.5289
75.5599
75.5623
75.5846
77.707
77.3993
77.5941
77.1894
77.4308
77.1735
77.359
77.1742
77.2349
77.1259
77.1031
77.0182
76.9579
76.8741
76.7957
76.7135
76.6247
76.5496
76.4652
76.3732
72.1676
72.4762
72.81
72.6551
73.1426
73.2367
73.5952
73.685
73.8467
73.8583
73.888
73.8334
73.7862
73.6815
73.5896
73.4688
73.3644
73.2632
73.1824
73.1159
93.1414
92.3669
92.077
90.923
90.269
89.2595
88.4169
87.2325
85.8905
84.542
83.2784
81.9834
80.8061
79.65
78.6814
77.7695
77.0885
76.4606
76.1059
75.6529
)
;

boundaryField
{
    outletWall
    {
        type            fixedValue;
        value           uniform 0;
    }
    fineWalls
    {
        type            zeroGradient;
    }
    fineFrontAndBack
    {
        type            zeroGradient;
    }
    fineplugLeft
    {
        type            cyclicAMI;
        value           nonuniform List<scalar> 
20
(
62.5549
63.2116
63.3401
63.8099
64.2981
65.0037
65.7612
66.7019
67.66
68.7596
69.789
70.8337
72.1131
79.0472
76.7107
77.1768
77.6363
78.0384
76.3994
75.0868
)
;
    }
    fineplugRight
    {
        type            cyclicAMI;
        value           nonuniform List<scalar> 
20
(
62.6264
63.2845
63.4128
63.8812
64.3688
65.0726
65.8284
66.7666
67.7228
68.8203
69.8481
70.891
72.1692
79.0993
76.7558
77.2211
77.6799
78.0859
76.4505
75.14
)
;
    }
    inletOutletLeft
    {
        type            cyclicAMI;
        value           nonuniform List<scalar> 
20
(
62.5549
63.2116
63.3401
63.8099
64.2981
65.0037
65.7612
66.7019
67.66
68.7596
69.789
70.8337
72.1131
79.0472
76.7107
77.1768
77.6363
78.0384
76.3994
75.0868
)
;
    }
    inletLeft
    {
        type            zeroGradient;
    }
    inletWallsLeft
    {
        type            zeroGradient;
    }
    inletFacesLeft
    {
        type            zeroGradient;
    }
    inletOutletRight
    {
        type            cyclicAMI;
        value           nonuniform List<scalar> 
20
(
62.6264
63.2845
63.4128
63.8812
64.3688
65.0726
65.8284
66.7666
67.7228
68.8203
69.8481
70.891
72.1692
79.0993
76.7558
77.2211
77.6799
78.0859
76.4505
75.14
)
;
    }
    inletRight
    {
        type            zeroGradient;
    }
    inletWallsRight
    {
        type            zeroGradient;
    }
    inletFacesRight
    {
        type            zeroGradient;
    }
}


// ************************************************************************* //
