/*--------------------------------*- C++ -*----------------------------------*\
| =========                 |                                                 |
| \\      /  F ield         | OpenFOAM: The Open Source CFD Toolbox           |
|  \\    /   O peration     | Version:  4.1                                   |
|   \\  /    A nd           | Web:      www.OpenFOAM.org                      |
|    \\/     M anipulation  |                                                 |
\*---------------------------------------------------------------------------*/
FoamFile
{
    version     2.0;
    format      ascii;
    class       surfaceScalarField;
    location    "3";
    object      phi;
}
// * * * * * * * * * * * * * * * * * * * * * * * * * * * * * * * * * * * * * //

dimensions      [0 3 -1 0 0 0 0];

internalField   nonuniform List<scalar> 
2360
(
-3858.51
-2786.68
-1071.83
-2786.68
-2786.68
-1456.26
-1330.42
-1456.26
-1456.26
-1456.26
176.679
-1632.94
176.684
176.679
2146.09
-1969.41
2146.09
2146.1
4138.92
-1992.83
4138.93
4138.92
6748.11
-2609.19
6748.1
6748.1
7614.89
8954.72
10259.3
11387.4
12367.5
13262.2
12101.7
2031.56
12984.6
13878.5
14780.7
15688.6
16605.7
17532.5
18473.9
19426.4
20393
21365.1
22352.1
23335.5
24216.4
7192.34
17024.1
7192.34
7192.34
7192.33
-1505.22
8697.55
-1505.22
-1505.22
-1505.22
5.79337
-1511.01
5.80753
5.8133
1495.86
-1490.05
1495.86
1495.86
1495.86
-7164.94
8660.81
-7164.94
-7164.94
-7164.94
-24197.6
17032.6
-23317.1
-22333.7
-21346.6
-20374.3
-19407.5
-18454.7
-17512.9
-16585.7
-15668.2
-14760
-13857.3
-12963.1
-12080
-13252.1
2043.15
-12357.6
-11378.1
-10251
-8947.56
-7608.28
-6740.75
-6740.75
-6740.75
-4108.83
-2631.92
-4108.83
-4108.83
-2103.15
-2005.68
-2103.15
-2103.15
-118.017
-1985.14
-118.016
-118.015
1528.29
-1646.3
1528.29
1528.29
1528.29
2844.51
-1316.23
2844.52
2844.52
3917.16
-1072.64
-1402.97
-2291.36
-1593.74
-3292.45
-1837.8
-3750.33
-2173.31
-4331.47
-2648.81
-4812.62
-3342.97
-5239.67
-4310.29
-5706.39
-5504.71
-6551.61
-6569.01
-7976.17
-6441.1
-8910.15
-4134.29
-5589.03
-1732.97
4080.36
-831.853
11794.4
-194.57
14513.1
304.31
13861.5
740.487
11569.3
1026.63
7364.3
1209.75
5200.77
-606.373
-1826.89
-2161.77
-2069.69
-3049.65
-2400.33
-3419.68
-2881.59
-3850.21
-3598.91
-4095.31
-4644.94
-4193.64
-6026.04
-4325.29
-7604.99
-4972.67
-8958.16
-6623
-8946.64
-8921.67
-5868.99
-8666.68
-1827.67
39.0484
-823.031
10789.8
-503.516
14193.6
92.3865
13265.6
728.883
10932.8
1245.61
6847.57
1537.85
4908.53
-384.747
-2098.31
-2006.12
-2381.77
-2766.19
-2792.48
-3008.97
-3412.71
-3229.98
-4330.51
-3177.51
-5571.09
-2953.05
-7004.2
-2892.19
-8378.36
-3598.51
-9386.44
-5614.92
-9498.52
-8809.59
-7497.88
-10667.3
-3003.7
-4455.13
-867.97
8654.04
-787.883
14113.5
-306.635
12784.4
625.859
10000.4
1434.34
6039.1
1884.37
4458.5
-146.682
-2421.26
-1811.37
-2772.87
-2414.58
-3302.05
-2479.78
-4105.93
-2426.11
-5219.58
-2063.86
-6511.26
-1661.37
-7654.21
-1749.23
-8316.86
-2935.86
-8436.53
-5495.25
-8216.28
-9029.85
-7332.85
-11550.7
-4342
-7445.97
-1627.26
5939.29
-1054.48
13540.7
-843.437
12573.3
373.025
8783.89
1555.15
4856.97
2172.22
3841.42
40.4081
-2769.82
-1568.67
-3209.11
-1975.3
-3876.03
-1812.85
-4838.43
-1463.71
-5985.25
-917.041
-6959.37
-687.256
-7331.16
-1377.44
-6997.4
-3269.61
-6419.63
-6073.02
-6326.29
-9123.18
-6737.78
-11139.3
-5853.46
-8330.29
-3260.68
3346.52
-1752.13
12032.2
-1383.68
12204.9
71.6361
7328.57
1798.24
3130.37
2469.12
3170.55
503.84
-3153.7
-1269.52
-3685.12
-1443.87
-4446.75
-1051.22
-5402.11
-508.347
-6243.71
-75.4445
-6533.94
-397.024
-6135.25
-1776.14
-5486.86
-3918.01
-5369.34
-6190.54
-6325.98
-8166.54
-7974.59
-9490.65
-8333.92
-7970.96
-5765.06
777.657
-3254.69
9521.81
-2143.41
11093.6
-343.928
5529.08
1820.68
965.765
2732.09
2259.13
604.017
-3558.48
-922.045
-4123.6
-878.755
-4798.34
-376.485
-5416.95
110.268
-5679.32
186.929
-5438.34
-638.005
-5003.48
-2211
-5032.63
-3888.86
-6086.16
-5137
-8241.64
-6011.07
-10789.7
-6942.6
-11830.9
-6929.72
-9172.31
-1880.96
-5341.46
5690.96
-2620.96
8373.11
80.9513
2827.17
2882.59
-1835.88
4502.38
639.344
7149.54
-3934.31
-564.035
-4411.05
-402.015
-4810.65
23.1236
-5003.49
303.103
-4896.58
80.0167
-4672.39
-862.187
-4808.27
-2075.12
-5751.47
-2945.66
-7660.99
-3227.48
-10345.7
-3326.34
-13268.8
-4019.48
-15171.9
-5026.68
-13563.7
-3489.16
-9078.93
1206.21
-5212.95
4507.13
-5211.45
2825.67
-8157.32
1109.99
-11931.3
4413.27
12250.9
-4221.35
-245.292
-4524.52
-98.8368
-4631.43
130.029
-4530.39
202.066
-4371.42
-78.9569
-4539.59
-694.014
-5355.95
-1258.76
-6852.88
-1448.73
-8840.75
-1239.61
-11125.9
-1041.16
-13723.7
-1421.73
-16535.2
-2215.15
-18076.7
-1947.71
-16829.3
-41.1153
-14355.7
2033.5
-13856.5
2326.51
-14512
1765.41
-13539.7
3441
7372.05
-4361.97
-6.15016
-4444.53
-16.2783
-4288.55
-25.9455
-4054.56
-31.9267
-4108.7
-24.8151
-4800.29
-2.43021
-6080.82
21.7684
-7569.78
40.2302
-8853.97
44.5752
-9919.44
24.3102
-11334.4
-6.73063
-13535.3
-14.2796
-15488.2
5.20201
-15544.9
15.52
-13512.8
1.42171
-11156.4
-29.8548
-9346.66
-44.3541
-5867.82
-37.8427
14.1824
-4370.22
237.337
-4464.73
78.2303
-4325.88
-164.8
-4106.38
-251.417
-4159.26
28.0603
-4831.81
670.115
-6086.39
1276.35
-7553.13
1506.97
-8823.09
1314.53
-9885.32
1086.54
-11307.2
1415.18
-13516.6
2195.06
-15478.4
1967
-15551.8
88.923
-13550.2
-2000.16
-11232.3
-2347.75
-9438.92
-1837.73
-5936.64
-3540.12
-7433.47
-4226.01
558.674
-4536.16
388.379
-4656.26
-44.6991
-4574.78
-332.893
-4430.59
-116.137
-4594.49
834.014
-5384.78
2066.65
-6842.11
2964.3
-8793.14
3265.56
-11064
3357.42
-13673.8
4024.97
-16507.6
5028.81
-18070.8
3530.24
-16827.3
-1154.54
-14329.8
-4497.7
-13811.1
-2866.41
-14487.2
-1161.65
-13550.8
-4476.52
-12286.7
-3938.16
918.439
-4419.13
869.35
-4825.7
361.871
-5030.57
-128.029
-4938.97
-207.729
-4722.4
617.443
-4849.67
2193.92
-5766.28
3880.92
-7642.05
5141.33
-10306.5
6021.85
-13236.6
6955.06
-15170.2
6962.44
-13590.7
1950.7
-9088.91
-5656.3
-5172.89
-8413.72
-5113.29
-2926
-8052.41
1777.46
-11874.7
-654.254
-7137.3
-3561.56
1267.37
-4130.44
1438.23
-4810.97
1042.41
-5437.35
498.345
-5710.35
65.274
-5478.68
385.769
-5045.82
1761.06
-5064.97
3900.06
-6098.57
6174.93
-8236.99
8160.26
-10786.8
9504.83
-11849.4
8025.09
-9194.17
-704.532
-5339.39
-9511.08
-2616.66
-11136.5
78.8666
-5621.52
2878.6
-1022.28
4498.68
-2274.33
-607.066
-3156.21
1567.63
-3690.52
1972.54
-4456.7
1808.59
-5417.55
1459.19
-6265.82
913.545
-6564.14
684.09
-6173.15
1370.08
-5527.51
3254.42
-5405.5
6052.92
-6354.85
9109.61
-8001.84
11151.8
-8363.8
8387.04
-5775.99
-3292.34
-3245.61
-12041.5
-2138.86
-12243.2
-367.996
-7392.39
1789.13
-3179.41
2704.06
-3189.26
-512.187
-2771.75
1811.09
-3212.99
2413.78
-3882.95
2478.55
-4849
2425.24
-6000.01
2064.55
-6979.86
1663.94
-7360.5
1750.72
-7037.73
2931.65
-6469.7
5484.89
-6381.76
9021.67
-6790.16
11560.2
-5885.92
7482.81
-3262.75
-5915.51
-1744.93
-13559.3
-1382.42
-12605.7
59.616
-8834.42
1779.81
-4899.6
2449.68
-3859.13
-55.3479
-2422.71
2006.36
-2775.62
2766.69
-3306.85
3009.78
-4113.21
3231.6
-5229.5
3180.83
-6524.44
2958.88
-7673.4
2899.68
-8346.8
3605.04
-8480.88
5618.97
-8272.2
8813
-7384.81
10672.8
-4364.85
4462.85
-1624.38
-8655.99
-1050.49
-14133.2
-843.248
-12813
365.128
-10042.8
1542.92
-6077.39
2157.49
-4473.71
132.738
-2099.37
2162.35
-2383.69
3051.01
-2795.79
3421.88
-3417.79
3853.61
-4337.44
4100.47
-5579.84
4201.29
-7015.79
4335.63
-8395.66
4984.91
-9412.66
6635.98
-9531.88
8932.22
-7525.28
8666.23
-3011.12
-51.3158
-864.997
-10802.1
-786.647
-14211.5
-307.184
-13292.4
620.321
-10970.3
1425.95
-6883.02
1871.69
-4919.45
371.489
-1827.63
2292.16
-2070.99
3294.37
-2402.58
3753.47
-2885.14
4336.17
-3603.91
4819.24
-4651.21
5248.59
-6033.49
5717.92
-7614.28
6565.7
-8970.14
7991.84
-8959.18
8921.26
-5874.8
5581.84
-1828.26
-4097.85
-822.795
-11807.6
-503.539
-14530.8
91.4138
-13887.4
725.486
-11604.4
1240.28
-7397.81
1539.56
-5218.73
580.63
-1403.34
-1594.39
-1838.94
-2175.18
-2651.58
-3346.62
-4314.55
-5509.28
-6573.48
-6444.3
-4135.95
-1735.13
-832.891
-195.485
303.043
738.758
1023.7
1216.5
123.38
-990.18
324.59
-1541.04
466.096
-1446.07
534.283
-1196.27
568.435
-1014.29
586.269
-912.579
595.202
-879.974
592.774
-880.461
587.583
-888.696
578.08
-892.759
563.614
-893.405
541.525
-895.013
509.204
-894.495
465.099
-897.35
409.676
-897.07
344.569
-901.509
273.301
-900.865
197.651
-911.276
122.255
-908.031
-758.7
65.6137
-1055.8
146.604
-1622.04
165.403
-1464.88
135.961
-1166.84
120.342
-998.681
116.264
-908.513
129.965
-893.685
139.682
-890.189
144.563
-893.586
143.491
-891.697
139.993
-889.915
134.249
-889.279
127.911
-888.165
119.818
-889.265
111.237
-888.494
99.7394
-890.018
87.4448
-888.573
69.363
-893.198
54.2787
-892.95
-704.422
55.4258
-1111.24
115.829
-1682.45
88.1572
-1437.22
40.5328
-1119.22
43.1862
-1001.34
63.2936
-928.632
88.6905
-919.092
104.788
-906.297
115.765
-904.572
120.821
-896.763
122.767
-891.869
121.019
-887.539
117.175
-884.327
110.417
-882.515
102.602
-880.685
92.0817
-879.504
80.6517
-877.147
64.4427
-876.992
46.3144
-874.826
-658.107
67.5736
-1178.81
70.5818
-1685.46
-0.122696
-1366.52
-25.4983
-1093.85
1.43347
-1028.28
36.7278
-963.931
66.6571
-949.026
85.955
-925.6
97.5077
-916.129
103.918
-903.178
106.945
-894.9
107.024
-887.623
105.063
-882.369
100.819
-878.274
95.1829
-875.052
87.2344
-871.558
77.1487
-867.064
61.7676
-861.614
39.6954
-852.757
-618.412
79.0815
-1257.9
36.9642
-1643.35
-2.93015
-1326.63
32.7597
-1129.55
79.9322
-1075.46
123.772
-1007.78
151.132
-976.395
168.917
-943.395
176.833
-924.053
179.618
-905.972
177.621
-892.91
172.055
-882.065
163.52
-873.84
152.34
-867.102
139.052
-861.769
123.317
-855.828
104.499
-848.249
79.3869
-836.504
44.4636
-817.836
-573.948
68.984
-1326.88
18.9931
-1593.36
52.2255
-1359.86
129.189
-1206.52
185.242
-1131.52
231.831
-1054.37
259.553
-1004.12
277.004
-960.846
283.258
-930.307
282.808
-905.521
276.138
-886.239
264.619
-870.546
248.789
-858.009
229.222
-847.534
206.228
-838.773
179.742
-829.342
148.866
-817.372
109.784
-797.42
58.9046
-766.956
-515.044
28.9504
-1355.84
25.95
-1590.36
120.423
-1454.34
216.415
-1302.51
281.669
-1196.77
331.95
-1104.65
364.5
-1036.67
384.951
-981.299
393.234
-938.591
392.274
-904.563
383.18
-877.146
367.218
-854.585
345.133
-835.925
317.552
-819.954
284.815
-806.036
246.809
-791.335
202.809
-773.371
148.355
-742.966
80.3646
-698.965
-434.679
-17.8494
-1337.98
54.1892
-1662.4
172.293
-1572.44
270.859
-1401.07
342.681
-1268.59
398.25
-1160.22
439.121
-1077.54
467.101
-1009.27
482.092
-953.578
485.322
-907.788
477.962
-869.783
461.184
-837.802
435.908
-810.645
402.803
-786.844
362.278
-765.509
314.082
-743.135
257.717
-717.004
188.648
-673.896
104.023
-614.337
-330.656
-29.7695
-1308.22
86.2385
-1778.41
198.548
-1684.75
283.3
-1485.83
355.222
-1340.51
416.173
-1221.17
467.609
-1128.97
507.045
-1048.71
533.357
-979.891
546.12
-920.554
545.824
-869.487
533.296
-825.278
509.404
-786.752
474.758
-752.201
429.779
-720.528
374.085
-687.442
307.317
-650.234
225.708
-592.284
125.443
-514.068
-205.213
0.737626
-1308.95
110.881
-1888.55
196.388
-1770.25
256.19
-1545.63
321.609
-1405.93
384.113
-1283.67
443.882
-1188.74
493.957
-1098.79
532.661
-1018.59
557.88
-945.771
568.956
-880.56
565.775
-822.095
548.581
-769.556
517.586
-721.204
472.989
-675.927
414.349
-628.8
341.393
-577.275
251.713
-502.601
137.914
-400.263
-67.2989
53.2181
-1362.17
132.622
-1967.95
178.383
-1816.01
211.965
-1579.21
266.223
-1460.19
321.326
-1338.78
379.069
-1246.48
429.792
-1149.51
473.23
-1062.03
505.906
-978.447
526.259
-900.911
532.787
-828.622
524.597
-761.364
501.064
-697.67
461.99
-636.85
406.872
-573.681
335.445
-505.846
245.974
-413.128
125.348
-279.63
58.0492
109.025
-1471.19
149.948
-2008.87
158.948
-1825.01
173.907
-1594.16
214.027
-1500.3
252.212
-1376.96
294.372
-1288.64
331.285
-1186.42
365.13
-1095.87
392.144
-1005.46
410.86
-919.623
419.046
-836.803
415.144
-757.458
398.036
-680.557
367.314
-606.124
322.255
-528.618
261.922
-445.511
184.168
-335.37
77.3119
-172.768
135.361
147.494
-1618.68
150.914
-2012.29
143.939
-1818.03
154
-1604.22
182.655
-1528.96
205.384
-1399.68
230
-1313.25
250.451
-1206.87
269.287
-1114.7
283.983
-1020.15
293.798
-929.435
297.206
-840.208
293.053
-753.302
280.302
-667.803
257.925
-583.745
223.847
-494.537
175.284
-396.944
111.266
-271.348
38.9889
-100.483
174.35
161.6
-1780.28
138.975
-1989.66
143.23
-1822.28
163.777
-1624.76
193.419
-1558.6
217.683
-1423.94
241.832
-1337.39
263.773
-1228.8
284.012
-1134.94
301.954
-1038.08
317.218
-944.695
329.086
-852.072
335.926
-760.139
334.757
-666.629
320.896
-569.881
288.615
-462.252
234.042
-342.368
156.457
-193.757
65.1159
-9.13536
239.466
154.988
-1935.26
123.597
-1958.27
150.544
-1849.23
188.12
-1662.34
230.313
-1600.79
272.255
-1465.88
315.458
-1380.6
360.268
-1273.61
406.188
-1180.86
453.701
-1085.59
502.557
-993.549
550.573
-900.085
591.483
-801.046
613.716
-688.86
602.742
-558.905
549.979
-409.488
458.842
-251.229
327.176
-62.0875
160.933
157.111
400.399
112.925
-2048.19
81.4205
-1926.76
112.99
-1880.79
154.758
-1704.1
200.644
-1646.67
254.787
-1520.02
314.096
-1439.9
381.305
-1340.81
456.502
-1256.05
540.788
-1169.88
633.506
-1086.27
727.401
-993.977
804.214
-877.858
832.193
-716.837
778.063
-504.774
636.04
-267.464
366.573
18.239
220.179
84.3078
101.222
276.069
501.621
-7.20834
-2040.98
-71.9533
-1862.01
-101.67
-1851.07
-112.982
-1692.79
-121.994
-1637.66
-112.326
-1529.69
-96.4185
-1455.81
-66.3529
-1370.88
-25.0284
-1297.37
29.326
-1224.23
92.7082
-1149.65
153.365
-1054.63
185.091
-909.583
149.61
-681.354
27.4657
-382.624
-118.516
-121.464
-36.9453
-63.3105
-80.4091
127.78
-120.719
316.383
380.903
-187.529
-1853.45
-394.193
-1655.35
-566.516
-1678.75
-700.193
-1559.11
-824.14
-1513.71
-917.88
-1435.95
-998.919
-1374.77
-1060.53
-1309.26
-1108.96
-1248.95
-1143.75
-1189.44
-1167.06
-1126.33
-1177.43
-1044.26
-1166.19
-920.822
-1111.11
-736.433
-987.195
-506.538
-803.931
-304.727
-694.075
-173.166
-523.526
-42.768
-296.534
89.3919
84.3691
-217.462
-1635.98
-490.428
-1382.38
-777.317
-1391.86
-1028.27
-1308.16
-1272.25
-1269.73
-1488.19
-1220
-1684.77
-1178.19
-1858.24
-1135.79
-2011.83
-1095.36
-2145.53
-1055.74
-2255.69
-1016.17
-2326.83
-973.118
-2325.77
-921.881
-2203.05
-859.157
-1924.55
-785.034
-1525.22
-704.058
-1080.5
-617.886
-619.946
-503.323
-197.305
-333.248
-112.936
-660.983
-1068.37
-1485.23
-1818.38
-2113.11
-2358.11
-2561.3
-2722.09
-2842.45
-2923.19
-2964.36
-2962.48
-2909.36
-2793.52
-2603.55
-2332.61
-1975.49
-1503.82
-862.064
-660.94
1635.94
-1068.27
1382.33
-1485.08
1391.81
-1818.17
1308.1
-2112.83
1269.66
-2357.77
1219.93
-2560.88
1178.12
-2721.59
1135.71
-2841.86
1095.28
-2922.52
1055.66
-2963.61
1016.09
-2961.64
973.028
-2908.43
921.794
-2792.54
859.11
-2602.62
785.081
-2331.88
704.257
-1975.1
618.222
-1503.8
503.697
-862.358
333.56
112.642
-217.409
1853.35
-490.358
1655.28
-777.222
1678.67
-1028.17
1559.04
-1272.15
1513.65
-1488.11
1435.89
-1684.72
1374.72
-1858.23
1309.22
-2011.86
1248.91
-2145.61
1189.41
-2255.77
1126.25
-2326.77
1044.03
-2325.31
920.339
-2201.93
735.725
-1922.9
506.057
-1523.63
304.982
-1079.14
173.737
-618.602
43.1571
-196.182
-88.8581
-83.54
-187.665
2041.02
-394.433
1862.05
-566.885
1851.12
-700.736
1692.9
-824.859
1637.77
-918.807
1529.84
-1000.07
1455.98
-1061.94
1371.09
-1110.67
1297.64
-1145.81
1224.55
-1169.52
1149.95
-1180.24
1054.76
-1169.17
909.266
-1113.86
680.421
-989.319
381.514
-805.195
120.858
-692.778
61.3213
-523.386
-126.233
-296.222
-316.02
-379.762
-7.51882
2048.54
-72.4558
1926.99
-102.416
1881.09
-113.987
1704.47
-123.256
1647.04
-113.859
1520.44
-98.2269
1440.35
-68.4435
1341.3
-27.3925
1256.59
26.705
1170.46
89.8125
1086.84
150.129
994.444
181.391
878.005
145.426
716.386
23.4088
503.535
-121.299
265.577
-42.1723
-17.7923
-83.5113
-84.8892
-122.515
-277.013
-502.277
112.829
1935.71
81.2611
1958.56
112.766
1849.58
154.498
1662.74
200.365
1601.17
254.507
1466.3
313.842
1381.02
381.103
1274.05
456.397
1181.3
540.814
1086.04
633.677
993.983
727.652
900.47
804.345
801.313
831.818
688.914
776.677
558.677
633.261
408.996
364.875
250.595
219.126
60.8616
100.541
-158.426
-401.736
155.032
1780.68
123.712
1989.88
150.746
1822.55
188.42
1625.06
230.723
1558.87
272.787
1424.24
316.134
1337.67
361.097
1229.08
407.195
1135.2
454.904
1038.33
503.967
944.92
552.175
852.263
593.214
760.274
615.45
666.679
604.318
569.809
551.296
462.018
459.945
341.947
327.79
193.018
161.236
8.12917
-240.501
161.564
1619.11
139.021
2012.42
143.403
1818.17
164.054
1604.41
193.777
1529.15
218.127
1399.89
242.356
1313.45
264.375
1207.07
284.688
1114.89
302.7
1020.32
318.034
929.587
329.971
840.327
336.87
753.377
335.729
667.821
321.843
583.696
289.471
494.391
234.763
396.655
156.949
270.833
65.3351
99.7453
-175.166
147.406
1471.71
150.839
2008.99
143.962
1825.04
154.1
1594.28
182.774
1500.48
205.509
1377.16
230.107
1288.85
250.533
1186.64
269.325
1096.1
283.965
1005.68
293.727
919.825
297.106
836.949
292.957
757.527
280.234
680.545
257.889
606.042
223.818
528.462
175.223
445.252
111.125
334.932
38.9686
171.904
-136.197
109.014
1362.7
149.917
1968.09
158.961
1816
173.973
1579.27
214.089
1460.36
252.242
1339.01
294.357
1246.74
331.222
1149.78
365
1062.32
391.93
978.754
410.571
901.185
418.721
828.801
414.836
761.413
397.788
697.595
367.144
636.687
322.15
573.458
261.843
505.558
184.039
412.738
77.1453
278.799
-59.0519
53.2986
1309.4
132.703
1888.68
178.465
1770.24
212.065
1545.67
266.322
1406.1
321.425
1283.9
379.186
1188.98
429.931
1099.03
473.37
1018.88
506.024
946.1
526.356
880.854
532.891
822.266
524.741
769.564
501.266
721.07
462.243
675.71
407.147
628.554
335.688
577.018
246.096
502.33
125.205
399.692
66.1532
0.855881
1308.54
110.993
1778.55
196.442
1684.79
256.199
1485.91
321.62
1340.68
384.191
1221.33
444.073
1129.09
494.257
1048.85
533.035
980.107
558.299
920.836
569.415
869.74
566.28
825.401
549.133
786.711
518.172
752.033
473.58
720.302
414.91
687.225
341.873
650.056
252.035
592.169
137.913
513.816
204.066
-29.6268
1338.17
86.3105
1662.61
198.468
1572.63
283.109
1401.27
355.06
1268.73
416.157
1160.23
467.771
1077.48
507.352
1009.26
533.763
953.695
546.604
907.992
546.383
869.96
533.924
837.857
510.075
810.56
475.444
786.662
430.443
765.302
374.699
742.969
307.837
716.918
226.06
673.946
125.455
614.422
329.521
-17.7266
1355.89
54.2353
1590.64
172.069
1454.8
270.499
1302.84
342.425
1196.81
398.192
1104.46
439.246
1036.42
467.343
981.169
482.415
938.622
485.725
904.682
478.451
877.234
461.744
854.564
436.508
835.796
403.407
819.762
362.861
805.848
314.62
791.21
258.184
773.354
188.965
743.166
104.001
699.385
433.522
28.9617
1326.93
26.0313
1593.57
120.172
1360.65
216.057
1206.95
281.495
1131.37
331.968
1053.99
364.653
1003.74
385.162
960.656
393.499
930.283
392.606
905.572
383.588
886.249
367.683
870.466
345.624
857.854
318.042
847.342
285.284
838.604
247.25
829.242
203.205
817.398
148.623
797.747
80.3488
767.658
513.871
68.8637
1258.06
19.1278
1643.31
52.1966
1327.58
129.053
1130.09
185.281
1075.13
231.984
1007.28
259.774
975.944
277.225
943.201
283.511
923.995
283.102
905.978
276.479
892.87
264.983
881.959
249.15
873.685
229.564
866.926
206.543
861.624
180.036
855.747
149.134
848.299
109.955
836.925
58.9276
818.685
572.799
78.8909
1179.17
37.1105
1685.08
-2.4867
1367.18
33.1327
1094.46
80.3329
1027.93
124.164
963.446
151.526
948.579
169.271
925.452
177.191
916.072
179.977
903.189
177.976
894.869
172.38
887.552
163.797
882.266
152.562
878.157
139.221
874.965
123.451
871.516
104.609
867.142
79.4371
862.096
44.5517
853.57
617.35
67.368
1111.8
70.6558
1681.79
0.662385
1437.17
-24.503
1119.63
2.35074
1001.07
37.5294
928.264
67.3649
918.741
86.5899
906.224
98.0962
904.563
104.454
896.828
107.409
891.912
107.392
887.566
105.322
884.334
100.971
882.507
95.2398
880.693
87.2244
879.53
77.1011
877.263
61.7072
877.489
39.8283
875.447
657.179
55.228
1056.57
115.793
1621.23
88.8794
1464.08
41.8837
1166.62
44.5838
998.374
64.5689
908.278
89.7801
893.529
105.759
890.244
116.62
893.702
121.57
891.877
123.381
890.101
121.485
889.461
117.484
888.335
110.578
889.411
102.629
888.642
92.0098
890.148
80.5208
888.751
64.3372
893.672
46.4668
893.317
703.645
65.4474
991.121
146.367
1540.31
165.552
1444.9
136.741
1195.43
121.331
1013.78
117.225
912.382
130.772
879.982
140.408
880.607
145.22
888.889
144.105
892.992
140.539
893.666
134.708
895.292
128.256
894.786
120.037
897.63
111.325
897.354
99.7153
901.758
87.3475
901.119
69.3227
911.697
54.4216
908.218
758.067
123.592
324.619
466.055
534.417
568.713
586.619
595.537
592.991
587.659
578.021
563.421
541.217
508.806
464.659
409.245
344.201
273.042
197.603
122.374
)
;

boundaryField
{
    outletWall
    {
        type            calculated;
        value           nonuniform List<scalar> 
60
(
3917.16
743.479
-5383.89
-7650.44
-12005.5
-14360.4
-15150.4
-12695.5
-6481.68
3282.21
8782.25
9040.47
7746.03
6673.72
5933.83
5288.12
4666.99
3994.39
3483.21
2388.71
1305.87
1697.82
1943.38
2227.44
2528.28
2855.95
3212.63
3578.4
3904.67
4126.73
4122.83
3902.6
3576.3
3211
2854.55
2527.12
2226.51
1942.66
1697.3
1305.61
3858.51
725.3
-5411.53
-7682.75
-12040.1
-14385.9
-15168.2
-12709.8
-6498.66
3273.49
8792.09
9056.03
7760.42
6685.85
5943.62
5295.64
4672.41
3998.01
3485.42
2389.62
)
;
    }
    fineWalls
    {
        type            calculated;
        value           uniform 0;
    }
    fineFrontAndBack
    {
        type            calculated;
        value           nonuniform List<scalar> 
960
(
-6.47321e-15
3.97592e-13
1.35038e-13
3.53331e-14
1.36107e-13
2.28608e-13
7.23837e-13
1.04377e-12
-2.18456e-12
-9.57141e-13
-1.31132e-12
2.58077e-12
1.41628e-12
1.3822e-12
1.20954e-11
3.41431e-12
3.83206e-12
1.79863e-11
3.45886e-12
3.00056e-12
5.64036e-13
2.90963e-14
-2.94559e-13
-5.08819e-13
-6.61462e-13
-1.0052e-12
-1.6924e-11
-1.43022e-12
-1.44507e-12
-1.4588e-12
-1.45508e-12
-1.49276e-12
-1.55294e-12
-1.61609e-12
-1.7327e-12
-1.82967e-12
-1.96687e-12
-2.11651e-12
-2.29237e-12
-2.49304e-12
-6.45581e-11
-9.70303e-12
-8.7945e-12
-1.27069e-11
1.03097e-10
8.53883e-11
4.78585e-11
2.825e-11
8.29871e-11
8.67592e-12
-1.06391e-11
1.43295e-11
4.79354e-12
4.93399e-12
3.64145e-12
3.55914e-11
9.44175e-12
8.99082e-12
9.02204e-12
6.10009e-11
2.40526e-12
2.2498e-12
2.12324e-12
1.95203e-12
1.76858e-12
1.58033e-12
1.31387e-12
1.05565e-12
8.07522e-13
6.02999e-13
4.98912e-13
4.91476e-13
5.34505e-13
5.56529e-13
5.34959e-13
3.92706e-13
3.38654e-13
2.4234e-13
1.6165e-13
-4.09829e-14
2.13359e-12
1.62146e-12
1.24737e-11
2.53952e-12
2.61769e-12
1.24129e-11
2.30282e-12
2.17879e-12
8.45565e-12
1.50594e-12
1.70335e-12
8.41158e-12
2.58329e-12
1.31453e-12
2.23128e-13
-3.42394e-13
-2.23726e-13
-3.22188e-13
-3.17244e-12
-5.18281e-13
-2.07521e-13
-4.23193e-13
-6.0087e-13
-6.22441e-13
-3.44579e-13
3.18876e-14
1.72066e-14
-7.94778e-13
-2.43511e-12
-4.36716e-12
-5.14583e-12
-3.56428e-12
-2.14496e-12
-1.2069e-12
-4.93947e-13
-1.27007e-13
2.33605e-15
6.72398e-15
9.32233e-13
-8.31771e-13
-1.35189e-12
-1.65635e-12
-1.60776e-12
-1.05462e-12
-5.39526e-13
-8.93662e-13
-2.41768e-12
-4.61897e-12
-6.48596e-12
-6.70957e-12
-4.38694e-12
-1.97466e-12
-1.17517e-12
-4.93715e-13
-1.30937e-13
-3.5026e-15
-1.93471e-14
4.18216e-13
-1.74725e-12
-2.57258e-12
-2.86294e-12
-2.55499e-12
-1.68069e-12
-1.20079e-12
-1.95657e-12
-3.68951e-12
-5.33439e-12
-5.85297e-12
-4.87774e-12
-3.36363e-12
-2.36189e-12
-9.71523e-13
-5.26321e-13
-1.13155e-13
-3.51965e-15
4.77037e-14
-2.30342e-12
-3.2659e-12
-4.42586e-12
-4.4627e-12
-3.61056e-12
-2.34399e-12
-2.04182e-12
-3.15981e-12
-4.68738e-12
-5.23604e-12
-3.83404e-12
-3.12362e-13
2.23541e-12
-1.6308e-12
-1.10517e-12
-4.37101e-13
-1.21425e-13
2.95147e-14
2.31615e-13
-3.4696e-12
-5.56051e-12
-6.91404e-12
-6.24047e-12
-4.51865e-12
-2.91386e-12
-2.90072e-12
-4.14479e-12
-5.22963e-12
-5.06773e-12
-2.33807e-12
4.6173e-12
1.0892e-11
3.19801e-12
-1.63565e-12
-2.77262e-13
-3.19244e-13
-2.56339e-13
7.79192e-14
-5.09149e-12
-8.7512e-12
-9.92045e-12
-7.92354e-12
-5.07962e-12
-3.24835e-12
-3.50209e-12
-4.83713e-12
-6.15416e-12
-6.32694e-12
-2.04758e-12
9.9674e-12
2.12645e-11
1.16385e-11
-1.03168e-12
-7.71903e-14
1.13283e-12
8.86239e-13
1.10819e-12
4.18194e-13
-1.2825e-11
-1.32655e-11
-9.35443e-12
-5.26018e-12
-3.25766e-12
-3.9114e-12
-6.19155e-12
-8.92058e-12
-8.79102e-12
-1.50309e-13
1.87717e-11
3.53947e-11
2.6177e-11
8.09903e-13
-5.01761e-12
-3.25427e-12
3.88891e-13
1.35157e-12
-3.37184e-11
-1.75895e-11
-1.7002e-11
-1.08689e-11
-5.66109e-12
-3.77537e-12
-5.61703e-12
-9.97743e-12
-1.3507e-11
-1.02672e-11
4.82535e-12
2.98657e-11
5.28265e-11
5.40968e-11
2.46194e-11
3.62118e-12
1.20478e-11
4.23584e-11
5.32482e-11
6.82634e-11
-2.24766e-11
-2.20157e-11
-1.3744e-11
-6.89334e-12
-5.81193e-12
-1.11756e-11
-1.66026e-11
-1.65554e-11
-9.26819e-12
9.57417e-12
3.61133e-11
6.30471e-11
8.17956e-11
8.31062e-11
7.35513e-11
7.8154e-11
9.0503e-11
9.10475e-11
8.47923e-11
-2.43772e-11
-3.10085e-11
-3.04745e-11
-2.76521e-11
-2.53584e-11
-2.45545e-11
-2.13533e-11
-1.43448e-11
-8.3871e-12
5.29899e-12
2.40165e-11
4.40908e-11
6.15389e-11
7.30192e-11
8.06073e-11
9.19471e-11
9.12871e-11
8.84732e-11
7.34776e-11
-1.32308e-12
1.15934e-12
3.94358e-12
5.15644e-12
4.50697e-12
1.35022e-12
-4.64985e-12
-1.04899e-11
-1.17152e-11
-1.75514e-11
-2.89892e-11
-4.66818e-11
-6.91833e-11
-8.69445e-11
-8.27375e-11
-5.5392e-11
-1.66552e-11
1.9644e-11
6.92883e-11
2.69336e-12
2.28095e-12
1.60044e-12
1.18824e-12
1.26139e-12
1.20195e-12
-5.59704e-13
-4.16681e-12
-8.79212e-12
-2.00456e-11
-3.93063e-11
-6.30942e-11
-8.24765e-11
-8.57894e-11
-8.01962e-11
-9.44276e-11
-1.1412e-10
-9.52737e-11
-1.32789e-11
3.01573e-12
2.02267e-12
1.51031e-12
1.4721e-12
1.6805e-12
1.74435e-12
1.3775e-12
2.81787e-14
-4.00543e-12
-1.4397e-11
-3.31839e-11
-5.28666e-11
-5.40676e-11
-2.52739e-11
-4.80317e-12
-1.7335e-11
-5.83857e-11
-7.35694e-11
-8.91299e-11
2.53953e-12
1.64188e-12
1.39991e-12
1.58804e-12
1.98246e-12
2.35399e-12
2.46285e-12
1.98143e-12
-3.94442e-13
-7.76587e-12
-2.26823e-11
-3.622e-11
-2.62432e-11
-5.37199e-13
5.81222e-12
4.07623e-12
-1.68501e-12
3.80066e-12
2.13692e-11
1.91558e-12
1.26822e-12
1.20173e-12
1.50063e-12
2.05779e-12
2.73667e-12
3.18371e-12
3.00171e-12
1.53041e-12
-3.24972e-12
-1.36919e-11
-2.27774e-11
-1.19117e-11
1.42307e-12
5.906e-13
-1.18941e-12
-1.00663e-12
-9.03729e-13
-1.01829e-11
1.32249e-12
9.26098e-13
9.58623e-13
1.23158e-12
1.69101e-12
2.46246e-12
3.33513e-12
3.63195e-12
2.60313e-12
-8.15741e-13
-7.65579e-12
-1.2843e-11
-3.51855e-12
2.39e-12
7.76122e-13
4.29805e-13
3.12715e-13
6.33533e-13
-3.35547e-12
8.19978e-13
6.20723e-13
7.14509e-13
9.45402e-13
1.22531e-12
1.81004e-12
2.83515e-12
3.77054e-12
3.64844e-12
1.6203e-12
-2.23962e-12
-4.13959e-12
1.84943e-12
2.00883e-12
8.44145e-13
2.5763e-13
-7.77092e-15
-6.59372e-14
-4.66782e-13
4.3277e-13
3.60553e-13
4.86521e-13
6.91806e-13
8.40288e-13
1.14777e-12
1.9829e-12
3.26859e-12
4.29846e-12
4.22759e-12
2.99801e-12
2.37778e-12
3.26721e-12
1.74783e-12
9.58304e-13
2.61059e-13
3.63152e-14
4.18605e-15
7.71912e-13
1.64313e-13
1.57228e-13
2.94661e-13
4.86971e-13
5.78913e-13
6.79321e-13
1.189e-12
2.40873e-12
4.13053e-12
5.60571e-12
5.91603e-12
4.70333e-12
2.94906e-12
1.89789e-12
9.50794e-13
2.74647e-13
3.41857e-14
4.37153e-14
-1.06374e-14
-2.78451e-14
-1.76074e-14
9.33451e-14
2.40306e-13
3.06981e-13
3.01354e-13
4.55067e-13
1.11379e-12
2.48747e-12
4.28922e-12
5.33342e-12
4.34699e-12
3.02892e-12
1.95081e-12
9.50309e-13
2.68988e-13
2.57876e-14
3.24651e-14
-3.00233e-14
6.47321e-15
-3.97592e-13
-1.35038e-13
-3.53331e-14
-1.36107e-13
-2.28608e-13
-7.23837e-13
-1.04377e-12
2.18456e-12
9.57141e-13
1.31132e-12
-2.58077e-12
-1.41628e-12
-1.3822e-12
-1.20954e-11
-3.41431e-12
-3.83206e-12
-1.79863e-11
-3.45886e-12
-3.00056e-12
-5.64036e-13
-2.90963e-14
2.94559e-13
5.08819e-13
6.61462e-13
1.0052e-12
1.6924e-11
1.43022e-12
1.44507e-12
1.4588e-12
1.45508e-12
1.49276e-12
1.55294e-12
1.61609e-12
1.7327e-12
1.82967e-12
1.96687e-12
2.11651e-12
2.29237e-12
2.49304e-12
6.45581e-11
9.70303e-12
8.7945e-12
1.27069e-11
-1.03097e-10
-8.53883e-11
-4.78585e-11
-2.825e-11
-8.29871e-11
-8.67592e-12
1.06391e-11
-1.43295e-11
-4.79354e-12
-4.93399e-12
-3.64145e-12
-3.55914e-11
-9.44175e-12
-8.99082e-12
-9.02204e-12
-6.10009e-11
-2.40526e-12
-2.2498e-12
-2.12324e-12
-1.95203e-12
-1.76858e-12
-1.58033e-12
-1.31387e-12
-1.05565e-12
-8.07522e-13
-6.02999e-13
-4.98912e-13
-4.91476e-13
-5.34505e-13
-5.56529e-13
-5.34959e-13
-3.92706e-13
-3.38654e-13
-2.4234e-13
-1.6165e-13
4.09829e-14
-2.13359e-12
-1.62146e-12
-1.24737e-11
-2.53952e-12
-2.61769e-12
-1.24129e-11
-2.30282e-12
-2.17879e-12
-8.45565e-12
-1.50594e-12
-1.70335e-12
-8.41158e-12
-2.58329e-12
-1.31453e-12
-2.23128e-13
3.42394e-13
2.23726e-13
3.22188e-13
3.17244e-12
5.18281e-13
2.07521e-13
4.23193e-13
6.0087e-13
6.22441e-13
3.44579e-13
-3.18876e-14
-1.72066e-14
7.94778e-13
2.43511e-12
4.36716e-12
5.14583e-12
3.56428e-12
2.14496e-12
1.2069e-12
4.93947e-13
1.27007e-13
-2.33605e-15
-6.72398e-15
-9.32233e-13
8.31771e-13
1.35189e-12
1.65635e-12
1.60776e-12
1.05462e-12
5.39526e-13
8.93662e-13
2.41768e-12
4.61897e-12
6.48596e-12
6.70957e-12
4.38694e-12
1.97466e-12
1.17517e-12
4.93715e-13
1.30937e-13
3.5026e-15
1.93471e-14
-4.18216e-13
1.74725e-12
2.57258e-12
2.86294e-12
2.55499e-12
1.68069e-12
1.20079e-12
1.95657e-12
3.68951e-12
5.33439e-12
5.85297e-12
4.87774e-12
3.36363e-12
2.36189e-12
9.71523e-13
5.26321e-13
1.13155e-13
3.51965e-15
-4.77037e-14
2.30342e-12
3.2659e-12
4.42586e-12
4.4627e-12
3.61056e-12
2.34399e-12
2.04182e-12
3.15981e-12
4.68738e-12
5.23604e-12
3.83404e-12
3.12362e-13
-2.23541e-12
1.6308e-12
1.10517e-12
4.37101e-13
1.21425e-13
-2.95147e-14
-2.31615e-13
3.4696e-12
5.56051e-12
6.91404e-12
6.24047e-12
4.51865e-12
2.91386e-12
2.90072e-12
4.14479e-12
5.22963e-12
5.06773e-12
2.33807e-12
-4.6173e-12
-1.0892e-11
-3.19801e-12
1.63565e-12
2.77262e-13
3.19244e-13
2.56339e-13
-7.79192e-14
5.09149e-12
8.7512e-12
9.92045e-12
7.92354e-12
5.07962e-12
3.24835e-12
3.50209e-12
4.83713e-12
6.15416e-12
6.32694e-12
2.04758e-12
-9.9674e-12
-2.12645e-11
-1.16385e-11
1.03168e-12
7.71903e-14
-1.13283e-12
-8.86239e-13
-1.10819e-12
-4.18194e-13