/*--------------------------------*- C++ -*----------------------------------*\
| =========                 |                                                 |
| \\      /  F ield         | OpenFOAM: The Open Source CFD Toolbox           |
|  \\    /   O peration     | Version:  4.1                                   |
|   \\  /    A nd           | Web:      www.OpenFOAM.org                      |
|    \\/     M anipulation  |                                                 |
\*---------------------------------------------------------------------------*/
FoamFile
{
    version     2.0;
    format      ascii;
    class       volVectorField;
    location    "3";
    object      U;
}
// * * * * * * * * * * * * * * * * * * * * * * * * * * * * * * * * * * * * * //

dimensions      [0 1 -1 0 0 0 0];

internalField   nonuniform List<vector> 
1280
(
(-4.67802e-18 -1.26037 -0.552487)
(6.75745e-17 -1.2517 -0.747016)
(1.16117e-16 -0.977312 -0.444764)
(2.55343e-17 -0.886565 -0.721847)
(2.31327e-17 -0.87442 -1.12457)
(1.65209e-16 -0.569276 -0.516214)
(5.23098e-16 -0.500013 -0.507441)
(9.18104e-16 -0.371042 -0.685905)
(-9.2485e-16 -0.332458 -1.35214)
(-6.91701e-16 0.0105651 -0.967616)
(-9.47655e-16 0.122548 -0.700935)
(1.04055e-15 0.358928 -1.45376)
(1.02351e-15 0.628916 -0.965317)
(9.98882e-16 0.790871 -0.692264)
(2.39507e-15 1.06391 -1.29163)
(2.46744e-15 1.23737 -0.840796)
(2.76933e-15 1.47755 -0.538345)
(3.05694e-15 1.46738 -1.66805)
(2.49963e-15 2.49401 -0.173875)
(2.16843e-15 1.19305 -3.10943)
(2.31399e-15 2.00352 2.97146)
(1.19369e-16 2.20468 7.36997)
(-1.20845e-15 1.95382 9.23301)
(-2.08746e-15 2.34557 9.39947)
(-2.71369e-15 2.44763 8.95114)
(-4.12389e-15 2.89165 8.77531)
(-3.56764e-15 2.71069 6.47551)
(-5.86758e-15 6.03024 10.8221)
(-5.9285e-15 6.24923 11.158)
(-5.98482e-15 6.32226 11.5378)
(-5.96955e-15 6.43942 12.0356)
(-6.12416e-15 6.53969 12.7779)
(-6.37102e-15 6.65466 13.7067)
(-6.63012e-15 6.6926 14.7594)
(-7.10853e-15 6.7403 15.6958)
(-7.50634e-15 6.68925 16.4827)
(-8.06919e-15 6.68361 16.9248)
(-8.68312e-15 6.57883 17.2312)
(-9.4046e-15 6.62535 17.295)
(-1.02278e-14 6.4955 16.7955)
(-1.12373e-14 7.85072 16.4973)
(-7.7936e-15 3.94246 10.2813)
(-7.06385e-15 2.48306 9.58495)
(-1.02191e-14 1.65332 9.54186)
(1.7935e-14 -0.501152 4.65396)
(6.8585e-14 -0.831276 -3.65989)
(3.84405e-14 -0.473589 -3.2311)
(2.26908e-14 -0.178812 -3.67049)
(1.49306e-14 1.34166 -4.68105)
(5.33944e-16 4.18582 -4.50788)
(-6.6919e-15 -4.46397 -4.46184)
(2.49426e-15 -1.44941 -4.62929)
(3.85023e-15 0.171639 -3.7661)
(3.96304e-15 0.468601 -3.36637)
(2.92486e-15 0.844567 -3.79714)
(6.1952e-15 0.511382 4.61337)
(7.57097e-15 -1.64561 9.53876)
(7.22154e-15 -2.47316 9.57782)
(7.24662e-15 -3.93204 10.2753)
(1.04975e-14 -7.84534 16.4905)
(9.86775e-15 -6.48955 16.7912)
(9.22996e-15 -6.61959 17.2906)
(8.71074e-15 -6.57302 17.2263)
(8.00834e-15 -6.67734 16.9203)
(7.2557e-15 -6.68305 16.481)
(6.48342e-15 -6.73393 15.6988)
(5.39025e-15 -6.68656 14.7677)
(4.33085e-15 -6.64893 13.7202)
(3.31291e-15 -6.53454 12.7952)
(2.47384e-15 -6.43473 12.0554)
(2.04682e-15 -6.31799 11.5584)
(2.01631e-15 -6.24525 11.1776)
(2.19284e-15 -6.02603 10.8391)
(1.17318e-16 -2.70348 6.48351)
(2.1947e-15 -2.88904 8.77182)
(1.6111e-15 -2.44553 8.94241)
(1.38935e-15 -2.34437 9.38855)
(9.94216e-16 -1.95195 9.22377)
(6.63181e-16 -2.20268 7.36622)
(-1.68135e-16 -2.00159 2.97307)
(1.54189e-15 -1.18754 -3.12018)
(1.17179e-15 -2.49193 -0.182683)
(2.12002e-15 -1.45716 -1.68351)
(1.83524e-15 -1.46778 -0.54211)
(1.89174e-15 -1.22736 -0.849291)
(2.28067e-15 -1.04894 -1.30463)
(1.66419e-15 -0.777042 -0.699988)
(1.57456e-15 -0.615204 -0.981029)
(1.74427e-15 -0.345371 -1.47532)
(1.0883e-15 -0.100888 -0.715315)
(1.23097e-15 0.0147307 -0.999357)
(1.8686e-15 0.364971 -1.38544)
(2.01978e-15 0.385711 -0.683841)
(9.49975e-16 0.530843 -0.481485)
(1.61249e-16 0.57963 -0.497261)
(-5.81931e-17 0.913974 -1.1011)
(-1.61681e-16 0.90154 -0.767041)
(-2.14799e-16 1.00879 -0.502831)
(-5.64526e-16 1.2579 -0.769653)
(-3.74548e-16 1.28029 -0.55445)
(-2.30579e-17 0.792699 1.08893)
(-4.70214e-17 1.15412 1.24696)
(-6.67633e-17 1.32349 1.41126)
(-6.91601e-17 1.54558 1.65097)
(-3.82866e-17 1.74984 1.97164)
(3.54307e-18 1.96022 2.44301)
(1.91185e-18 2.19925 3.12823)
(-8.83087e-17 2.5479 4.05323)
(-2.70567e-16 2.98122 5.11492)
(-4.8524e-16 2.94241 5.84045)
(-5.71759e-16 1.19089 4.89536)
(-3.96031e-16 -1.95799 1.99314)
(-2.38329e-16 -4.10079 0.936109)
(-1.341e-16 -4.99248 0.412846)
(-5.4883e-17 -4.77634 -0.094074)
(-1.41119e-17 -4.01438 -0.411335)
(2.59561e-19 -2.58196 -0.826139)
(7.47109e-19 -1.80821 -0.866449)
(1.03581e-16 0.274507 -1.0979)
(-9.2419e-17 0.739134 1.41771)
(-1.5021e-16 1.04923 1.62057)
(-1.84039e-16 1.18701 1.83332)
(-1.7864e-16 1.3553 2.16526)
(-1.1718e-16 1.47578 2.63812)
(-5.99473e-17 1.5563 3.35966)
(-9.92957e-17 1.63787 4.3812)
(-2.68631e-16 1.86433 5.6607)
(-5.13219e-16 2.38069 7.01215)
(-7.20663e-16 2.99315 7.92151)
(-7.45508e-16 2.45747 7.00215)
(-4.87438e-16 -0.999464 2.69029)
(-2.19407e-16 -3.89911 0.545339)
(-1.30574e-16 -4.77 0.683435)
(-5.48572e-17 -4.50938 0.147275)
(-1.45486e-17 -3.73234 -0.303294)
(-3.89178e-19 -2.34094 -0.912672)
(-2.14967e-18 -1.67609 -1.09775)
(4.64685e-17 0.11543 -1.30768)
(-1.94139e-16 0.699887 1.62465)
(-2.85842e-16 0.978553 1.86146)
(-3.18105e-16 1.08572 2.11534)
(-2.83887e-16 1.20221 2.53548)
(-1.86743e-16 1.24259 3.15344)
(-1.33421e-16 1.22397 4.06324)
(-2.17397e-16 1.22584 5.22077)
(-4.09946e-16 1.42821 6.45099)
(-5.9271e-16 2.01594 7.51353)
(-6.5033e-16 2.94608 8.13623)
(-5.41971e-16 3.30032 7.69668)
(-3.73737e-16 0.865231 4.72456)
(-2.62432e-16 -3.27236 0.53242)
(-1.07947e-16 -4.70941 0.702808)
(-5.84801e-17 -4.31156 0.597161)
(-1.25728e-17 -3.51171 -0.0880523)
(-3.91073e-19 -2.1696 -0.959224)
(5.30041e-18 -1.54961 -1.33119)
(-2.55935e-16 0.168476 -1.65693)
(-3.62877e-16 0.638638 1.86391)
(-4.91762e-16 0.86752 2.15586)
(-4.95856e-16 0.922774 2.47519)
(-4.01173e-16 0.954317 3.02362)
(-2.60444e-16 0.880234 3.82078)
(-2.26869e-16 0.752416 4.87724)
(-3.51089e-16 0.716617 5.9741)
(-5.2082e-16 0.993404 6.78221)
(-5.81782e-16 1.75428 7.08291)
(-4.26004e-16 2.94581 6.98005)
(-3.47069e-17 3.82014 6.69205)
(2.48379e-16 2.23446 5.5564)
(-1.812e-16 -2.41241 1.879)
(-1.22797e-16 -4.68069 0.605937)
(-4.85668e-17 -4.20547 1.10263)
(-1.34916e-17 -3.15553 0.305978)
(3.27942e-18 -1.87716 -0.934953)
(2.5735e-17 -1.47075 -1.51455)
(-3.85511e-16 -0.21542 -2.03926)
(-6.17835e-16 0.568552 2.11731)
(-7.68226e-16 0.740939 2.47844)
(-6.93385e-16 0.729169 2.88218)
(-5.02072e-16 0.662406 3.57193)
(-3.23762e-16 0.4959 4.49387)
(-3.22302e-16 0.355272 5.48043)
(-4.60532e-16 0.449823 6.11878)
(-5.8107e-16 0.964031 6.09985)
(-5.63081e-16 1.90616 5.565)
(-2.59785e-16 3.07038 5.12748)
(5.13034e-16 3.89641 5.38305)
(1.21022e-15 2.80907 5.95845)
(3.55335e-16 -1.55761 3.89965)
(-1.81739e-16 -4.37297 1.3507)
(-3.08069e-17 -4.20659 1.46691)
(-3.54716e-17 -2.71415 0.844765)
(-2.84822e-17 -1.35415 -0.97575)
(8.65769e-18 -0.973293 -1.80748)
(-5.65721e-16 0.459305 -2.28898)
(-9.72356e-16 0.477755 2.39341)
(-1.10227e-15 0.57613 2.83681)
(-8.80393e-16 0.479364 3.31981)
(-5.64403e-16 0.312382 4.08392)
(-3.60927e-16 0.11555 4.92208)
(-3.89121e-16 0.108333 5.48459)
(-5.37459e-16 0.475982 5.40751)
(-6.83795e-16 1.21518 4.81689)
(-7.02994e-16 2.12958 4.32672)
(-2.27509e-16 2.99477 4.6066)
(1.10749e-15 3.53203 5.90462)
(2.36272e-15 2.7702 7.53255)
(1.29317e-15 -0.71962 6.35948)
(-1.14631e-16 -3.59429 3.17965)
(-8.5767e-18 -3.91502 2.0759)
(1.2587e-16 -2.17236 1.49389)
(9.8471e-17 -0.84259 -0.903856)
(1.23133e-16 -1.53615 -1.88401)
(4.6466e-17 -1.24599 -2.79501)
(-1.425e-15 0.369178 2.69385)
(-1.47395e-15 0.386538 3.2053)
(-1.03938e-15 0.222849 3.6848)
(-5.84465e-16 0.0311658 4.30398)
(-3.61962e-16 -0.058574 4.72911)
(-4.346e-16 0.156969 4.73717)
(-6.8795e-16 0.700886 4.32866)
(-9.91175e-16 1.38437 4.00747)
(-9.7678e-16 1.98507 4.37726)
(-1.6701e-17 2.4412 5.7499)
(2.08574e-15 2.78569 7.96199)
(3.93275e-15 2.5027 10.1413)
(2.90855e-15 0.123201 9.57563)
(8.99893e-17 -2.8257 5.70298)
(-5.57512e-16 -3.57106 2.9825)
(-3.61586e-16 -1.51003 1.33107)
(4.32101e-17 0.641938 -1.42626)
(1.50175e-16 1.01702 -2.90051)
(-3.74649e-15 1.20734 -4.80958)
(-1.95439e-15 0.2464 3.00145)
(-1.88911e-15 0.200031 3.5189)
(-1.20766e-15 0.0294658 3.85311)
(-6.2901e-16 -0.104635 4.15516)
(-4.19485e-16 -0.0673496 4.1902)
(-6.24115e-16 0.26608 3.97317)
(-1.1086e-15 0.767157 3.8136)
(-1.50078e-15 1.19998 4.195)
(-1.1408e-15 1.43097 5.38754)
(5.3615e-16 1.5584 7.36765)
(3.31841e-15 1.82922 9.85801)
(5.86961e-15 2.09553 12.3343)
(6.01076e-15 1.22394 12.9877)
(2.73549e-15 -0.859311 9.6226)
(4.02353e-16 -1.95802 5.29571)
(1.33864e-15 -0.515432 3.34215)
(4.70649e-15 0.292135 5.53311)
(5.91647e-15 -1.77034 8.09291)
(7.58482e-15 -5.83447 11.6852)
(-2.4974e-15 0.13051 3.27582)
(-2.44618e-15 0.0695176 3.71926)
(-1.52711e-15 -0.0441387 3.84339)
(-7.65927e-16 -0.0962333 3.86636)
(-6.4577e-16 0.0125723 3.69104)
(-1.24173e-15 0.3036 3.59829)
(-1.84473e-15 0.607829 3.96292)
(-1.83949e-15 0.761648 4.95731)
(-1.0298e-15 0.728713 6.46241)
(1.0638e-15 0.675757 8.26442)
(4.01259e-15 0.856779 10.272)
(7.00523e-15 1.20336 12.6514)
(9.0884e-15 0.992728 14.9422)
(9.23403e-15 -0.0587962 15.176)
(8.17237e-15 -1.07896 12.7239)
(8.68378e-15 -1.2092 11.2385)
(1.00559e-14 -1.01293 11.9982)
(1.01164e-14 -1.62279 12.0015)
(9.42137e-15 -2.77519 10.6118)
(-2.70858e-15 0.0325808 3.46073)
(-3.44539e-15 -0.00298866 3.76667)
(-3.38606e-15 -0.0426983 3.66366)
(-3.07246e-15 -0.0397636 3.47406)
(-2.8176e-15 0.0374299 3.29142)
(-2.72828e-15 0.154425 3.56063)
(-2.49997e-15 0.226588 4.43237)
(-1.59386e-15 0.20174 5.69463)
(-9.319e-16 0.0992697 6.92106)
(5.88776e-16 0.0225177 7.82931)
(2.6685e-15 0.0943314 8.69637)
(4.96521e-15 0.282754 10.2466)
(6.83766e-15 0.328262 12.3638)
(8.11325e-15 0.108298 13.4178)
(8.11315e-15 -0.23809 12.3375)
(1.02163e-14 -0.343206 10.2444)
(1.0143e-14 -0.263759 8.51754)
(9.83036e-15 -0.7594 6.56087)
(8.16417e-15 -1.85836 3.61837)
(-1.47009e-16 -0.0286406 3.46398)
(1.28816e-16 0.0133905 3.77714)
(4.38176e-16 0.0596145 3.68683)
(5.72937e-16 0.0610361 3.51321)
(5.00775e-16 -0.0202529 3.33853)
(1.50024e-16 -0.151534 3.59787)
(-3.74046e-16 -0.240168 4.44769)
(-1.16554e-15 -0.228383 5.68858)
(-1.30168e-15 -0.129287 6.89942)
(-1.95015e-15 -0.039159 7.79947)
(-3.22103e-15 -0.0900574 8.66914)
(-5.18687e-15 -0.273048 10.2284)
(-7.68703e-15 -0.331399 12.3511)
(-9.6605e-15 -0.118833 13.4139)
(-9.19305e-15 0.234717 12.3529)
(-6.15466e-15 0.359037 10.2907)
(-1.85058e-15 0.291596 8.59715)
(2.18266e-15 0.788554 6.64157)
(7.6987e-15 1.85938 3.64622)
(2.99262e-16 -0.128838 3.27759)
(2.53438e-16 -0.0653919 3.72519)
(1.77827e-16 0.0511306 3.85689)
(1.32027e-16 0.107957 3.89428)
(1.40154e-16 0.00320885 3.737)
(1.3355e-16 -0.292212 3.65085)
(-6.21893e-17 -0.606942 4.00194)
(-4.62979e-16 -0.773571 4.96652)
(-9.76902e-16 -0.747807 6.43547)
(-2.22728e-15 -0.688952 8.21197)
(-4.36736e-15 -0.856877 10.2208)
(-7.01047e-15 -1.20006 12.6191)
(-9.16405e-15 -1.00284 14.9292)
(-9.53215e-15 0.0378126 15.1789)
(-8.91069e-15 1.0631 12.7182)
(-1.0492e-14 1.21137 11.1999)
(-1.268e-14 1.03881 11.9623)
(-1.0586e-14 1.66235 11.9979)
(-1.47543e-15 2.80342 10.6306)
(3.35081e-16 -0.244736 3.00323)
(2.24741e-16 -0.195662 3.52346)
(1.67812e-16 -0.0226908 3.86209)
(1.63567e-16 0.112645 4.17126)
(1.86722e-16 0.0763059 4.21934)
(1.93816e-16 -0.258087 4.0144)
(1.53055e-16 -0.762025 3.85582)
(3.13097e-18 -1.20042 4.22191)
(-4.45047e-16 -1.43722 5.38556)
(-1.59967e-15 -1.5656 7.33826)
(-3.6871e-15 -1.83271 9.82149)
(-5.87407e-15 -2.10083 12.316)
(-6.00751e-15 -1.2412 13.0048)
(-2.80822e-15 0.845254 9.64986)
(-5.33686e-16 1.96819 5.28616)
(-1.92611e-15 0.54241 3.28544)
(-6.4873e-15 -0.290002 5.42569)
(-8.17438e-15 1.76009 8.02321)
(-9.90332e-15 5.82969 11.6616)
(2.8217e-16 -0.368307 2.69523)
(1.82431e-16 -0.384291 3.20899)
(1.55546e-16 -0.219434 3.69258)
(1.76448e-16 -0.0271954 4.31722)
(2.20273e-16 0.0631586 4.74994)
(2.61554e-16 -0.151589 4.76784)
(2.7365e-16 -0.694928 4.3653)
(2.20159e-16 -1.37898 4.04148)
(-4.38269e-17 -1.98205 4.39736)
(-8.62874e-16 -2.44146 5.75077)
(-2.52026e-15 -2.79068 7.9529)
(-4.02444e-15 -2.51906 10.1441)
(-2.91591e-15 -0.151828 9.60489)
(-5.96888e-17 2.81772 5.71087)
(6.45802e-16 3.58642 2.97117)
(4.52914e-16 1.54853 1.34059)
(-1.87224e-16 -0.609169 -1.4413)
(4.22296e-16 -0.996642 -2.8821)
(2.37435e-15 -1.2053 -4.81758)
(2.12842e-16 -0.477246 2.3946)
(1.40913e-16 -0.574773 2.83975)
(1.33526e-16 -0.477197 3.3259)
(1.66737e-16 -0.309925 4.09437)
(2.28644e-16 -0.113382 4.93743)
(3.04075e-16 -0.106069 5.506)
(3.53746e-16 -0.471884 5.43644)
(3.33523e-16 -1.20865 4.85119)
(1.70046e-16 -2.12224 4.36033)
(-3.6108e-16 -2.99031 4.63357)
(-1.52133e-15 -3.53643 5.92552)
(-2.53082e-15 -2.79017 7.55563)
(-1.32353e-15 0.696359 6.38591)
(1.58118e-16 3.59488 3.17378)
(6.56222e-17 3.92863 2.06618)
(-1.32156e-16 2.19523 1.49858)
(-1.11848e-16 0.85722 -0.8724)
(-1.00414e-16 1.53621 -1.86416)
(-1.13143e-15 1.24095 -2.76848)
(1.46943e-16 -0.568354 2.1183)
(1.029e-16 -0.740411 2.48064)
(1.06514e-16 -0.728375 2.88647)
(1.36842e-16 -0.661686 3.57916)
(1.8789e-16 -0.495672 4.50429)
(2.73607e-16 -0.355445 5.49455)
(3.7057e-16 -0.449032 6.13882)
(4.0355e-16 -0.960503 6.12874)
(2.89236e-16 -1.90016 5.6034)
(-9.06379e-17 -3.06574 5.17272)
(-8.50643e-16 -3.89994 5.43026)
(-1.42699e-15 -2.82562 5.9978)
(-3.9095e-16 1.54601 3.91357)
(2.65556e-16 4.3781 1.34184)
(8.62358e-17 4.21828 1.46339)
(4.77561e-17 2.73318 0.847607)
(3.47461e-17 1.36983 -0.960476)
(7.03926e-17 0.981454 -1.79315)
(-3.7283e-16 -0.450046 -2.27448)
(9.11087e-17 -0.63865 1.8647)
(6.89692e-17 -0.867514 2.15747)
(7.93899e-17 -0.922769 2.47818)
(1.05045e-16 -0.9545 3.02861)
(1.36146e-16 -0.880967 3.82795)
(2.01116e-16 -0.753964 4.88658)
(3.15016e-16 -0.718429 5.98675)
(4.18949e-16 -0.994204 6.80157)
(4.05382e-16 -1.75355 7.11344)
(1.80033e-16 -2.94519 7.02345)
(-2.48846e-16 -3.82278 6.74203)
(-4.59955e-16 -2.2418 5.59285)
(2.05492e-16 2.41117 1.88016)
(2.23203e-16 4.68781 0.60062)
(9.37939e-17 4.2154 1.10118)
(2.86256e-17 3.17044 0.307897)
(-8.63435e-19 1.89004 -0.925117)
(-7.32635e-18 1.47629 -1.50388)
(-5.18646e-17 0.220071 -2.03084)
(4.80856e-17 -0.700038 1.62526)
(4.00614e-17 -0.978896 1.8626)
(5.40579e-17 -1.08627 2.1174)
(7.68673e-17 -1.2031 2.53892)
(9.33654e-17 -1.24406 3.15848)
(1.2753e-16 -1.22632 4.06974)
(2.20322e-16 -1.22902 5.22886)
(3.63176e-16 -1.43175 6.46223)
(4.77607e-16 -2.01937 7.53108)
(4.69732e-16 -2.94899 8.16232)
(3.33113e-16 -3.3014 7.72641)
(2.64198e-16 -0.863638 4.74026)
(3.63024e-16 3.27531 0.529205)
(1.94203e-16 4.7156 0.701191)
(1.06478e-16 4.32071 0.596728)
(2.90066e-17 3.52487 -0.086283)
(4.03502e-18 2.18182 -0.952693)
(4.65117e-19 1.55303 -1.32313)
(8.5768e-17 -0.166241 -1.65324)
(1.8257e-17 -0.739368 1.41815)
(1.74698e-17 -1.04979 1.62136)
(3.27401e-17 -1.18792 1.83471)
(5.41079e-17 -1.35666 2.1676)
(6.43236e-17 -1.47773 2.64169)
(7.54801e-17 -1.55905 3.36442)
(1.32111e-16 -1.64156 4.38688)
(2.67637e-16 -1.86892 5.66743)
(4.58948e-16 -2.38582 7.02087)
(6.22857e-16 -2.99712 7.93276)
(6.57336e-16 -2.45603 7.0119)
(5.22593e-16 1.00615 2.69036)
(3.27673e-16 3.90324 0.545862)
(2.10876e-16 4.77601 0.682941)
(1.05644e-16 4.51848 0.147763)
(3.05163e-17 3.74471 -0.301893)
(3.79842e-18 2.35287 -0.909192)
(4.85725e-18 1.68028 -1.09132)
(-1.18193e-18 -0.110575 -1.31734)
(-3.0939e-18 -0.793 1.08915)
(-1.95638e-18 -1.15485 1.24735)
(1.03717e-17 -1.32468 1.41196)
(2.67007e-17 -1.54737 1.65217)
(3.4109e-17 -1.75233 1.97355)
(3.34838e-17 -1.96345 2.44573)
(5.0563e-17 -2.20327 3.1316)
(1.23755e-16 -2.5527 4.05696)
(2.76386e-16 -2.98646 5.11879)
(4.7658e-16 -2.94581 5.84405)
(5.92602e-16 -1.18785 4.89687)
(4.82999e-16 1.96312 1.9949)
(3.36547e-16 4.10542 0.937579)
(2.16757e-16 4.99815 0.413255)
(1.0559e-16 4.78449 -0.0929565)
(2.98876e-17 4.02544 -0.410276)
(2.86529e-18 2.59244 -0.824582)
(3.60724e-18 1.81651 -0.862584)
(-3.33592e-18 -0.262661 -1.11724)
(5.3844e-17 8.74905 15.4984)
(-4.37748e-15 14.309 23.6646)
(-4.3737e-15 13.7585 22.5596)
(-4.23025e-15 12.1508 19.1272)
(-4.33887e-15 10.5532 16.3905)
(-6.11761e-15 9.72426 14.7913)
(-6.73281e-15 9.2975 14.0173)
(-6.15155e-15 9.29562 14.0455)
(-5.66132e-15 9.38345 14.1792)
(-5.72362e-15 9.39694 14.2512)
(-5.41986e-15 9.39053 14.2421)
(-5.6252e-15 9.32077 14.2393)
(-5.56836e-15 9.2866 14.1982)
(-5.23601e-15 9.16918 14.2207)
(-5.30633e-15 9.12414 14.2016)
(-5.06965e-15 8.96727 14.2789)
(-4.96477e-15 8.92187 14.2747)
(-4.78078e-15 8.78068 14.4837)
(-4.94807e-15 8.7235 14.3979)
(-5.3936e-15 7.28547 12.5241)
(2.93892e-17 8.78567 15.4995)
(-3.14547e-15 14.3541 24.0525)
(-2.46168e-15 12.9891 22.2089)
(-3.01911e-15 10.8439 17.9727)
(-3.39226e-15 8.88464 15.1289)
(-5.8871e-15 8.16206 13.6027)
(-5.06934e-15 7.9087 13.3366)
(-4.31936e-15 8.01617 13.3574)
(-4.09222e-15 8.05714 13.4589)
(-4.4453e-15 8.08779 13.4932)
(-4.34113e-15 8.09881 13.5072)
(-4.85392e-15 8.09166 13.545)
(-4.57274e-15 8.11481 13.558)
(-4.21029e-15 8.09711 13.6119)
(-4.4211e-15 8.12134 13.6148)
(-4.55105e-15 8.09049 13.6678)
(-4.27666e-15 8.09867 13.6509)
(-4.31544e-15 8.09446 13.7616)
(-4.46311e-15 8.08584 13.7529)
(-5.20666e-15 6.47739 11.077)
(2.79035e-18 9.29127 16.7721)
(-1.06887e-15 15.4535 25.7274)
(-7.00985e-16 13.0594 22.7328)
(-9.84963e-16 10.6491 17.7798)
(-9.78749e-16 8.77042 15.4336)
(-3.68451e-15 8.45298 14.1836)
(-2.1537e-15 8.14477 14.0025)
(-1.84527e-15 8.28102 13.8871)
(-1.79049e-15 8.22682 13.9041)
(-1.70628e-15 8.23972 13.822)
(-1.84423e-15 8.194 13.7628)
(-1.76756e-15 8.16889 13.7136)
(-1.86972e-15 8.1447 13.6738)
(-1.7519e-15 8.11822 13.6605)
(-1.97954e-15 8.09975 13.6392)
(-1.83549e-15 8.07409 13.6378)
(-1.92562e-15 8.04066 13.6133)
(-1.66888e-15 8.03767 13.6483)
(-1.85507e-15 7.99553 13.65)
(-2.37236e-15 6.14142 10.5111)
(-2.73378e-18 9.67035 17.4929)
(2.37403e-16 15.7703 26.0823)
(2.12366e-16 12.0622 21.5372)
(2.47965e-16 9.99956 16.716)
(2.42881e-16 8.55202 15.437)
(-2.41955e-15 8.63959 14.4516)
(-1.6985e-15 8.22983 14.3338)
(-1.67851e-15 8.37253 14.052)
(-1.81306e-15 8.21493 13.979)
(-1.85265e-15 8.21306 13.8182)
(-2.04823e-15 8.1334 13.7251)
(-1.71973e-15 8.1016 13.6392)
(-1.72143e-15 8.05839 13.5788)
(-1.63314e-15 8.03038 13.5351)
(-1.7103e-15 7.99509 13.499)
(-1.64766e-15 7.96867 13.4632)
(-1.72408e-15 7.91011 13.4142)
(-1.73358e-15 7.88208 13.3738)
(-2.00825e-15 7.77922 13.3047)
(-2.66115e-15 5.72424 9.78482)
(1.48883e-18 10.4107 18.7407)
(-6.23052e-17 15.6005 25.7533)
(-6.21545e-17 11.3098 20.4798)
(-5.87472e-17 10.2268 16.9068)
(-7.15214e-17 9.11751 16.1657)
(5.05345e-16 9.2125 15.1713)
(4.57428e-16 8.7149 14.8333)
(4.34509e-16 8.72393 14.396)
(4.24639e-16 8.50687 14.1798)
(4.26513e-16 8.437 13.9435)
(4.3596e-16 8.31819 13.7836)
(4.4472e-16 8.24403 13.6469)
(4.63207e-16 8.16417 13.547)
(4.26345e-16 8.10437 13.466)
(4.78708e-16 8.03543 13.4041)
(4.48647e-16 7.97724 13.3336)
(4.69661e-16 7.87704 13.2452)
(4.14346e-16 7.7815 13.1189)
(4.64034e-16 7.58321 12.9157)
(5.90877e-16 5.38863 9.22038)
(-6.6115e-19 11.234 19.9739)
(1.81929e-17 14.9125 24.8188)
(1.77625e-17 11.3329 20.3461)
(1.49909e-17 10.8727 17.8577)
(2.45925e-17 9.8664 16.9347)
(-1.01775e-16 9.7343 15.8444)
(-1.19142e-16 9.21667 15.2165)
(-1.13747e-16 9.04409 14.6381)
(-1.09761e-16 8.79129 14.2581)
(-1.14864e-16 8.63509 13.938)
(-1.13617e-16 8.47684 13.6954)
(-1.16978e-16 8.34958 13.4982)
(-1.19872e-16 8.22866 13.3446)
(-1.15796e-16 8.12523 13.218)
(-1.25875e-16 8.01576 13.1155)
(-1.19405e-16 7.91214 13.0029)
(-1.20698e-16 7.75622 12.858)
(-1.10031e-16 7.57558 12.6224)
(-1.18043e-16 7.23976 12.2511)
(-1.44965e-16 4.97281 8.44201)
(2.27363e-19 11.8191 20.8506)
(-5.28837e-18 14.3329 24.2062)
(-4.87362e-18 12.2521 21.4932)
(-4.10638e-18 11.7115 19.2619)
(-8.23497e-18 10.7118 17.8792)
(2.14964e-17 10.2873 16.595)
(3.18255e-17 9.73788 15.6762)
(3.15523e-17 9.3971 14.9241)
(3.09296e-17 9.08613 14.3635)
(3.20852e-17 8.84142 13.9216)
(3.1446e-17 8.62634 13.5706)
(3.17239e-17 8.43728 13.2851)
(3.20828e-17 8.26215 13.0528)
(3.22411e-17 8.10338 12.8571)
(3.36662e-17 7.93935 12.69)
(3.18473e-17 7.77802 12.5122)
(3.17955e-17 7.54735 12.2889)
(3.1007e-17 7.26876 11.9099)
(3.18967e-17 6.75947 11.3438)
(3.77087e-17 4.44027 7.39783)
(-6.00132e-20 11.8351 20.8766)
(1.38858e-18 14.4873 24.7343)
(1.23975e-18 13.5084 23.2636)
(1.06316e-18 12.6185 20.8216)
(2.30453e-18 11.5131 18.951)
(-4.2263e-18 10.841 17.4014)
(-7.89074e-18 10.2179 16.227)
(-8.38893e-18 9.74869 15.2762)
(-8.26598e-18 9.35402 14.5218)
(-8.44268e-18 9.02128 13.9168)
(-8.2528e-18 8.73182 13.4239)
(-8.30502e-18 8.47191 13.015)
(-8.4607e-18 8.22941 12.6728)
(-8.65771e-18 8.00436 12.377)
(-8.87904e-18 7.77129 12.1156)
(-8.38135e-18 7.54007 11.8407)
(-8.40991e-18 7.21579 11.5113)
(-8.52484e-18 6.82921 10.9539)
(-8.86512e-18 6.11552 10.1666)
(-1.0408e-17 3.72823 5.97781)
(9.8795e-21 11.4605 20.3018)
(-3.0447e-19 15.4833 26.4237)
(-2.66437e-19 14.6781 25.1266)
(-2.22126e-19 13.4854 22.2963)
(-4.90926e-19 12.201 20.0898)
(7.5928e-19 11.385 18.3058)
(1.64299e-18 10.6743 16.9353)
(1.82479e-18 10.1099 15.7861)
(1.79111e-18 9.62151 14.8264)
(1.80051e-18 9.19503 14.0223)
(1.76126e-18 8.81615 13.3457)
(1.78114e-18 8.47177 12.7704)
(1.84602e-18 8.14714 12.2768)
(1.93412e-18 7.84167 11.8401)
(1.99812e-18 7.52312 11.4449)
(1.92605e-18 7.2051 11.031)
(1.97967e-18 6.76768 10.5565)
(2.0846e-18 6.26002 9.7866)
(2.27842e-18 5.31758 8.742)
(2.85006e-18 2.84138 4.19628)
(-1.68696e-21 11.2019 19.9638)
(5.21569e-20 16.749 28.3069)
(4.19479e-20 15.5371 26.721)
(3.23327e-20 14.1634 23.4321)
(7.31381e-20 12.7144 21.1669)
(-1.3147e-19 11.8977 19.2795)
(-2.72068e-19 11.1115 17.8131)
(-2.86684e-19 10.4814 16.4925)
(-2.67859e-19 9.89788 15.3348)
(-2.62759e-19 9.37224 14.3129)
(-2.53253e-19 8.89166 13.4183)
(-2.51396e-19 8.44754 12.6333)
(-2.6181e-19 8.02422 11.9415)
(-2.84368e-19 7.62084 11.3151)
(-3.0546e-19 7.19786 10.7359)
(-3.07383e-19 6.7724 10.1318)
(-3.32617e-19 6.20278 9.46185)
(-3.80882e-19 5.56151 8.44861)
(-4.67476e-19 4.36875 7.08783)
(-7.13469e-19 1.83302 2.12196)
(3.21076e-22 11.3098 20.319)
(-6.29083e-21 17.8916 29.8079)
(-4.10815e-21 15.972 27.7542)
(-2.93966e-21 14.6171 24.1331)
(-7.96414e-21 13.0603 22.0998)
(2.04316e-20 12.3752 20.2267)
(3.67586e-20 11.5049 18.7728)
(3.5342e-20 10.8405 17.3256)
(3.14556e-20 10.159 16.0171)
(3.06038e-20 9.53728 14.7986)
(2.9344e-20 8.94802 13.6877)
(2.81634e-20 8.39177 12.6745)
(2.82788e-20 7.85293 11.7506)
(3.02894e-20 7.33227 10.8903)
(3.23523e-20 6.78479 10.0776)
(3.21718e-20 6.23414 9.23311)
(3.43864e-20 5.51873 8.31972)
(4.24057e-20 4.74325 7.03852)
(6.36287e-20 3.26128 5.25687)
(1.14458e-19 0.832762 0.0229345)
(-8.44485e-23 11.9102 21.5877)
(7.3038e-22 18.7488 30.7404)
(7.01859e-22 15.9631 28.121)
(7.51135e-22 14.9118 24.4568)
(2.18069e-21 13.2599 22.8277)
(-1.58065e-21 12.7696 20.967)
(-6.03785e-21 11.7632 19.5819)
(-9.27802e-21 11.0962 18.0461)
(-1.13785e-20 10.311 16.6649)
(-1.24827e-20 9.61054 15.3125)
(-1.32416e-20 8.91582 14.0396)
(-1.42583e-20 8.24708 12.8302)
(-1.53241e-20 7.58613 11.6865)
(-1.58689e-20 6.94028 10.5893)
(-1.55339e-20 6.26298 9.53326)
(-1.44573e-20 5.59097 8.43741)
(-1.31202e-20 4.73363 7.26832)
(-1.15315e-20 3.84754 5.70469)
(-1.18016e-20 1.98342 3.40471)
(2.04148e-20 -0.114787 -1.62785)
(4.07939e-23 12.9239 23.6557)
(-3.49055e-22 19.2422 31.0529)
(-6.13455e-22 15.6326 28.0158)
(-6.26268e-22 15.1529 24.5758)
(-1.41824e-21 13.3461 23.3161)
(-5.48966e-22 13.0387 21.3819)
(2.22789e-21 11.8625 20.0493)
(5.14501e-21 11.2145 18.4396)
(6.89277e-21 10.3345 17.0353)
(7.53334e-21 9.58259 15.6054)
(7.98144e-21 8.8037 14.2379)
(8.73246e-21 8.04807 12.8993)
(9.57288e-21 7.29195 11.6021)
(1.00895e-20 6.55195 10.3339)
(1.01481e-20 5.78264 9.10051)
(9.95827e-21 5.0231 7.81247)
(9.72297e-21 4.05279 6.42522)
(9.03014e-21 3.06265 4.60194)
(7.99365e-21 0.897267 1.90944)
(-1.08205e-20 -0.811707 -2.59587)
(-2.05577e-23 14.0865 26.1217)
(2.06131e-22 19.4201 30.8369)
(3.6054e-22 15.2778 27.893)
(3.32074e-22 15.4722 24.7499)
(6.84366e-22 13.4617 23.6911)
(3.25707e-22 13.294 21.644)
(-1.00807e-21 12.0082 20.3141)
(-2.35584e-21 11.3835 18.6465)
(-3.06596e-21 10.4655 17.2117)
(-3.25396e-21 9.6961 15.7279)
(-3.37522e-21 8.88875 14.3001)
(-3.64843e-21 8.10606 12.8884)
(-3.98833e-21 7.32191 11.5063)
(-4.2444e-21 6.54808 10.1376)
(-4.38469e-21 5.73138 8.77671)
(-4.50903e-21 4.8747 7.30888)
(-4.75909e-21 3.77575 5.67378)
(-4.88706e-21 2.59178 3.5899)
(-7.98796e-21 0.439745 0.824432)
(1.24668e-21 -1.18193 -3.06033)
(8.07643e-24 15.1589 28.7049)
(-8.60262e-23 19.4917 30.4206)
(-1.42043e-22 15.1864 28.2112)
(-1.22187e-22 15.9766 25.2745)
(-2.42465e-22 13.7793 24.2909)
(-1.05327e-22 13.7313 22.1893)
(3.63966e-22 12.4366 20.8484)
(8.09666e-22 11.8497 19.1668)
(1.02169e-21 10.9726 17.7047)
(1.05714e-21 10.2397 16.1983)
(1.06801e-21 9.48407 14.7419)
(1.12544e-21 8.75012 13.2913)
(1.21021e-21 7.99711 11.8309)
(1.28644e-21 7.19697 10.3059)
(1.3519e-21 6.25686 8.6689)
(1.43631e-21 5.1449 6.79639)
(1.61126e-21 3.73606 4.69546)
(1.89521e-21 2.15104 2.10739)
(1.20808e-21 -0.25775 -0.976998)
(8.66808e-21 -1.78962 -4.69206)
(-2.38961e-24 15.8724 30.9805)
(2.72966e-23 19.4847 29.9782)
(4.25289e-23 15.2366 28.8443)
(3.47724e-23 16.4588 26.0436)
(6.60728e-23 14.1318 25.1358)
(2.52506e-23 14.2047 23.0972)
(-1.00349e-22 12.9512 21.817)
(-2.13111e-22 12.4518 20.2141)
(-2.61708e-22 11.6642 18.8267)
(-2.63718e-22 11.0488 17.4077)
(-2.57104e-22 10.4209 16.0379)
(-2.59776e-22 9.79801 14.6203)
(-2.69406e-22 9.06534 13.0455)
(-2.80293e-22 8.09477 11.1393)
(-2.93625e-22 6.72033 8.81418)
(-3.17462e-22 5.02571 6.15295)
(-3.64065e-22 3.01792 3.52121)
(-5.29504e-22 0.980057 0.500459)
(8.97108e-22 -1.85678 -2.9401)
(5.41655e-21 -2.88975 -6.9352)
(6.44833e-25 15.7637 31.869)
(-7.51661e-24 18.9948 29.1291)
(-1.07488e-23 14.7881 28.8704)
(-8.32316e-24 16.0655 26.2364)
(-1.73665e-23 13.7466 25.4018)
(-4.36064e-24 13.7369 23.5585)
(2.82635e-23 12.5198 22.3981)
(5.29127e-23 12.029 20.9757)
(6.05344e-23 11.2707 19.7814)
(5.80237e-23 10.7261 18.5756)
(5.44401e-23 10.1399 17.3972)
(5.29402e-23 9.46806 15.9995)
(5.29786e-23 8.42553 14.0297)
(5.55212e-23 6.70032 11.0268)
(6.69131e-23 4.15999 6.93375)
(9.3743e-23 1.32095 2.69208)
(2.28822e-23 -1.57997 -0.744548)
(-4.65391e-22 -1.01426 -1.80773)
(1.42862e-22 -4.04006 -5.08053)
(4.11937e-22 -3.73759 -8.11501)
(-4.51735e-26 14.4093 30.9356)
(1.93326e-24 18.208 28.1276)
(2.3519e-24 13.6311 28.0113)
(2.22947e-24 14.4575 25.7568)
(2.63028e-24 12.4243 24.8587)
(-2.35532e-24 11.9296 23.3513)
(-8.3128e-24 10.831 22.2084)
(-1.0836e-23 10.0952 20.9851)
(-1.06099e-23 9.30446 19.8881)
(-9.58352e-24 8.62462 18.8198)
(-8.87367e-24 7.90433 17.6897)
(-8.67047e-24 6.98267 16.1528)
(-8.48342e-24 5.52004 13.6428)
(-4.24091e-24 3.21863 9.57664)
(1.20476e-23 0.366318 4.31919)
(1.63401e-23 -1.81886 -0.0542193)
(-1.16637e-22 -2.81315 -2.31581)
(-5.43273e-22 -3.61771 -4.17008)
(-1.14309e-21 -4.23503 -5.48552)
(-1.33735e-21 -2.66081 -4.17371)
(-1.12691e-26 11.1872 28.3641)
(-4.35517e-25 16.867 24.9471)
(-4.59529e-25 11.9211 25.3403)
(-3.50203e-25 12.4822 23.6882)
(-3.01491e-27 10.7273 22.9804)
(9.20376e-25 10.0039 21.9386)
(1.45395e-24 8.95666 21.0678)
(1.44723e-24 8.11635 20.1648)
(1.25259e-24 7.27572 19.308)
(1.07765e-24 6.50348 18.4565)
(9.42055e-25 5.73577 17.5619)
(7.21542e-25 4.9284 16.4969)
(2.50991e-25 4.05036 15.141)
(6.44463e-26 3.18492 13.4767)
(3.39401e-24 2.51527 11.6103)
(1.53202e-23 2.13549 9.71402)
(2.6241e-23 1.91395 7.84785)
(-2.14816e-23 1.62191 5.60282)
(-2.10825e-22 0.958586 2.64142)
(-3.37915e-22 0.103199 0.237827)
(1.53018e-26 2.56646 16.9624)
(6.35748e-26 8.03012 13.5925)
(4.53636e-26 5.17039 14.4413)
(8.34191e-27 4.99229 14.0457)
(-4.96507e-26 4.07927 14.0008)
(-1.12043e-25 3.52183 13.8221)
(-1.21517e-25 2.95042 13.6576)
(-1.02633e-25 2.48056 13.4582)
(-8.30433e-26 2.07147 13.2417)
(-6.9213e-26 1.74378 13.0211)
(-5.69842e-26 1.50897 12.8281)
(-3.54247e-26 1.38344 12.6844)
(-1.14726e-27 1.36322 12.5687)
(-3.37105e-26 1.42899 12.3998)
(-4.35563e-25 1.56248 12.0824)
(-1.62141e-24 1.71649 11.6039)
(-3.15875e-24 1.91578 10.9755)
(-2.60304e-24 2.46621 9.96619)
(1.85737e-24 2.59043 8.54735)
(3.83209e-24 -0.248746 6.46062)
(-1.56696e-26 -2.56626 16.9622)
(-6.46173e-26 -8.03009 13.5922)
(-4.54613e-26 -5.17037 14.4409)
(-9.99285e-27 -4.99237 14.0452)
(4.62913e-26 -4.07943 14.0002)
(1.07412e-25 -3.52208 13.8214)
(1.17552e-25 -2.95075 13.6568)
(9.8088e-26 -2.48101 13.4573)
(7.6326e-26 -2.07207 13.2409)
(6.2719e-26 -1.74462 13.0204)
(5.21844e-26 -1.51014 12.8277)
(3.13488e-26 -1.38492 12.6842)
(-3.05033e-27 -1.36482 12.5683)
(3.49929e-26 -1.43037 12.3988)
(4.6537e-25 -1.56338 12.0805)
(1.72143e-24 -1.71679 11.6014)
(3.34182e-24 -1.91544 10.9729)
(2.74677e-24 -2.46528 9.96406)
(-1.97061e-24 -2.58898 8.54589)
(-4.05415e-24 0.249322 6.45918)
(1.20543e-26 -11.1865 28.363)
(4.46215e-25 -16.8663 24.9457)
(4.56097e-25 -11.9204 25.3389)
(3.56432e-25 -12.4815 23.6867)
(2.59899e-26 -10.7266 22.9789)
(-8.65934e-25 -10.0032 21.9371)
(-1.40608e-24 -8.95586 21.0662)
(-1.41513e-24 -8.11548 20.1632)
(-1.18003e-24 -7.27476 19.3064)
(-9.76468e-25 -6.50237 18.4548)
(-8.5458e-25 -5.7344 17.5598)
(-6.55537e-25 -4.92683 16.4943)
(-1.92054e-25 -4.04935 15.1386)
(-5.43819e-26 -3.18614 13.4761)
(-3.66929e-24 -2.52021 11.6134)
(-1.62781e-23 -2.14395 9.72249)
(-2.76593e-23 -1.92418 7.86068)
(2.28051e-23 -1.63285 5.61674)
(2.22771e-22 -0.970427 2.65538)
(3.58699e-22 -0.110223 0.246288)
(4.5231e-26 -14.4088 30.9339)
(-2.00049e-24 -18.2068 28.1271)
(-2.32816e-24 -13.6304 28.0105)
(-2.23991e-24 -14.4561 25.7565)
(-2.66453e-24 -12.423 24.8584)
(2.02774e-24 -11.9279 23.3514)
(7.84742e-24 -10.8291 22.2087)
(1.07454e-23 -10.0929 20.9857)
(1.03962e-23 -9.30193 19.8891)
(8.86602e-24 -8.62146 18.8209)
(7.95671e-24 -7.89985 17.6898)
(7.9151e-24 -6.9753 16.1493)
(8.02851e-24 -5.50765 13.6317)
(4.09151e-24 -3.20158 9.55742)
(-1.14309e-23 -0.352867 4.30411)
(-1.48186e-23 1.82024 -0.0508573)
(1.18479e-22 2.81018 -2.30699)
(5.52312e-22 3.61705 -4.16812)
(1.19347e-21 4.23092 -5.47811)
(1.44741e-21 2.65474 -4.15438)