/*--------------------------------*- C++ -*----------------------------------*\
| =========                 |                                                 |
| \\      /  F ield         | OpenFOAM: The Open Source CFD Toolbox           |
|  \\    /   O peration     | Version:  4.1                                   |
|   \\  /    A nd           | Web:      www.OpenFOAM.org                      |
|    \\/     M anipulation  |                                                 |
\*---------------------------------------------------------------------------*/
FoamFile
{
    version     2.0;
    format      ascii;
    class       volScalarField;
    location    "26";
    object      p;
}
// * * * * * * * * * * * * * * * * * * * * * * * * * * * * * * * * * * * * * //

dimensions      [0 2 -2 0 0 0 0];

internalField   nonuniform List<scalar> 
1280
(
0.32996
0.722046
1.10836
1.11979
1.71088
1.90903
1.74584
1.63879
1.53007
1.52176
0.768218
0.47936
-0.0666674
-1.91066
-1.99815
-3.90914
-7.81944
-7.11262
-11.0807
-17.6456
-16.9196
-2.05614
19.0309
26.0496
26.1827
28.5883
-5.69152
23.7985
26.3222
26.541
26.8172
26.9901
26.8236
26.3835
25.819
24.9472
24.4232
23.6997
24.8538
22.8457
3.10955
19.9454
24.0468
25.6981
33.3624
33.6738
33.8017
33.3885
33.6827
34.6419
34.668
34.6658
30.5555
27.1195
24.678
27.9156
6.84346
0.434533
-12.6991
-40.5489
-7.20725
-3.48948
-3.9252
-1.76243
-0.0705088
2.19435
4.11709
6.01011
7.667
9.14811
10.4398
11.5446
11.6018
1.39025
37.5967
34.8885
34.2648
26.5525
5.96723
-7.33891
-6.29274
0.853649
13.9323
17.7181
19.2809
23.0508
23.9527
23.3621
22.3856
23.1181
20.5672
19.1403
18.1065
13.9188
12.2394
11.7041
8.31043
1.28991
-2.307
3.64464
0.222927
0.531628
0.895788
1.1018
0.711807
-0.0142736
-0.930115
-2.04301
-1.80298
-6.85139
-5.13486
-5.74377
-4.68682
-2.94057
-0.901838
1.7021
3.37437
3.74995
3.2403
0.423532
0.915356
1.11563
0.732381
0.311808
-0.484603
-2.00687
-4.00867
-5.48799
-12.2592
-8.72647
-7.55589
-3.71563
1.44759
6.36115
11.3921
13.0707
12.815
9.22721
0.689154
1.54789
2.23529
1.91165
1.12176
-0.529662
-3.3111
-7.09815
-11.217
-15.2966
-10.3299
-8.03883
-3.09403
3.53576
9.80149
16.3975
18.991
18.5599
13.9686
0.966095
2.12218
2.92269
2.33615
1.38245
-0.685239
-4.28669
-9.58287
-16.9658
-19.6304
-13.2816
-9.48921
-3.47808
4.70874
12.5292
21.0336
25.1077
24.9116
18.5038
1.30924
2.82165
3.79121
3.10195
1.98411
-0.59512
-5.01843
-12.0857
-22.551
-23.854
-16.4245
-10.9279
-3.73789
6.15249
15.612
26.0046
31.5832
31.5382
23.4236
1.70494
3.57229
4.56968
3.73882
2.51333
-0.401708
-5.39559
-14.1062
-27.0049
-26.8737
-19.0576
-12.0781
-3.91405
7.41882
18.3133
30.4978
37.6279
38.157
19.7161
2.19273
4.44536
5.4118
4.47985
3.18731
0.010972
-5.39962
-15.5873
-29.9874
-28.8205
-21.2006
-13.1232
-4.17575
8.33499
20.4317
34.2462
42.9785
44.809
14.7991
2.80973
5.34765
6.28217
5.17526
3.89742
0.597793
-5.03078
-16.3304
-31.218
-29.5926
-22.6943
-14.0177
-4.48031
8.92832
22.0376
37.3313
50.7429
51.3061
35.4462
3.4727
5.7874
6.88679
5.83486
4.67439
1.3857
-4.3112
-16.2768
-30.8176
-29.2352
-23.4232
-14.6858
-4.82759
9.14831
22.8867
38.2281
52.7678
49.8408
69.5829
3.64575
5.38602
6.80692
6.56767
5.43972
2.34333
-3.28633
-15.4196
-29.0484
-27.9789
-23.4135
-15.1114
-5.23593
8.89178
22.6966
37.9669
49.4648
48.3644
55.0116
3.1671
3.15879
6.292
7.53914
6.20247
3.42335
-2.00177
-13.8438
-26.2768
-26.0448
-22.7436
-15.2496
-5.67607
8.15912
21.7247
35.592
42.8541
43.9068
45.081
1.90991
-0.874861
5.5906
7.62576
7.20319
4.54965
-0.522247
-11.6828
-22.8874
-23.6184
-21.5021
-15.0459
-6.12643
6.96657
19.6591
30.6979
36.931
50.8816
62.6224
1.18777
-1.76716
4.89162
7.13446
8.77405
5.73904
1.04093
-9.08373
-19.166
-20.8697
-19.8781
-14.5958
-6.58469
5.46774
16.676
25.6984
29.1975
28.8981
25.392
0.454344
-1.68824
3.47926
6.87617
9.67455
7.05364
2.50672
-6.22552
-15.1888
-17.8064
-17.9536
-13.9574
-6.99552
3.65607
12.5876
16.344
6.88898
-6.73223
-3.9946
-0.317957
-1.80949
1.54689
7.01834
9.31182
8.41825
3.81723
-3.31415
-11.0376
-14.4474
-15.5966
-12.8139
-6.87956
2.21684
8.98141
9.82825
4.34835
0.206982
0.453432
-0.804431
-1.77225
-0.49605
6.46238
8.18129
9.25884
4.97153
-0.953683
-7.11268
-10.5951
-12.3175
-10.6587
-5.93219
1.51079
6.5605
5.69573
2.47446
0.301261
0.119945
-0.992878
-1.5826
-1.91625
5.28298
6.65338
8.39545
5.02166
0.405679
-3.89399
-6.87323
-8.62646
-7.45152
-3.58363
2.06282
4.87009
3.12884
2.24624
0.260707
0.729399
-0.767957
-0.754878
-2.43066
3.62673
4.91592
6.26403
4.94083
1.46589
-1.21282
-3.07511
-4.47064
-4.20351
-2.20095
1.17448
2.69132
2.51873
1.74331
0.57362
0.633968
-1.00458
-0.27771
-1.81086
2.49044
3.33848
2.94307
2.52223
0.790865
-0.294029
-1.67833
-2.52122
-1.64346
0.656443
2.49815
2.02577
2.09615
1.81714
0.432087
0.43518
-2.81129
-3.85765
-1.34126
0.250049
0.711317
1.54713
2.26965
1.3749
0.938732
1.30064
1.0069
-0.365964
-2.423
-2.77127
-0.224822
0.530734
0.0973506
-0.108249
0.285338
76.5942
77.4836
76.078
75.3758
73.4545
71.6469
69.428
67.4958
65.6855
64.0737
62.649
61.434
60.4465
59.6947
59.165
58.8626
58.7253
58.7751
58.8634
59.0679
25.958
29.5065
30.6005
32.361
33.7297
35.0786
36.3479
37.4612
38.5032
39.4247
40.2785
41.0827
41.8506
42.6197
43.3744
44.1845
44.949
45.8623
46.5331
47.5363
0.964679
3.542
7.23294
10.8053
13.8286
16.3869
18.7645
20.8812
22.8462
24.6302
26.2539
27.7417
29.1045
30.3927
31.6001
32.8244
33.9631
35.2484
36.2365
37.6372
-27.8208
-27.012
-23.9392
-20.9717
-18.4285
-16.2232
-13.9694
-11.8106
-9.60768
-7.4262
-5.25518
-3.11887
-1.05217
0.948468
2.82891
4.70241
6.44836
8.53795
10.4149
13.3598
-17.6333
-21.8064
-24.6507
-27.5383
-30.1077
-32.8793
-35.3005
-37.6383
-39.4193
-40.6857
-41.2646
-41.1915
-40.476
-39.1929
-37.5069
-35.541
-33.6441
-31.6303
-29.9942
-26.7393
20.7271
14.2329
10.4637
5.94827
1.81079
-2.98398
-7.68259
-12.7468
-17.6279
-22.4435
-26.8634
-30.8324
-34.118
-36.5648
-37.9986
-38.4463
-38.0679
-37.5569
-37.8837
-37.3576
72.319
67.7695
65.3168
62.0127
59.781
56.7742
54.2797
51.4693
49.0132
46.5182
44.2419
42.0332
39.9858
38.0885
36.4547
35.149
34.4293
34.8153
34.4552
30.224
95.9868
96.2934
96.6886
96.5267
96.836
96.3025
95.9836
94.7832
93.2802
90.9708
88.0437
84.3667
80.0801
75.4254
70.9317
67.1822
64.5685
63.2408
63.2447
60.98
72.7991
75.0127
76.3815
77.5168
79.324
80.46
82.27
83.6813
85.2558
86.5279
87.5206
87.9729
87.7306
86.6803
85.0003
83.1093
81.9493
81.6041
82.0623
81.8787
57.8912
59.9032
61.5106
62.1208
63.9543
64.5794
65.9994
66.8856
67.9595
68.9284
69.9159
70.9413
72.0291
73.1865
74.404
75.6566
76.871
78.1472
79.0813
80.2713
33.9486
35.9839
38.1447
38.6714
41.1266
41.9146
43.8664
45.1486
46.73
48.1906
49.6532
51.1027
52.5302
53.9672
55.4027
56.9064
58.374
60.0107
61.2591
62.961
9.41138
10.3784
12.8096
12.5889
15.2738
15.5373
17.6363
18.6932
20.3995
21.9248
23.6137
25.3751
27.2243
29.1869
31.2114
33.3614
35.4577
37.7397
39.5076
42.2914
-14.3305
-15.8986
-14.0157
-15.9478
-14.2233
-15.7914
-14.9031
-15.7418
-15.5699
-15.952
-16.0217
-16.0177
-15.677
-14.9087
-13.6881
-11.8863
-9.79888
-7.07747
-5.0626
-1.6959
-7.48975
-11.3698
-10.5578
-13.9217
-13.5799
-16.5397
-17.1207
-19.5304
-20.9251
-23.0565
-24.8447
-26.6941
-28.2829
-29.6689
-30.7831
-31.6742
-32.2522
-32.1752
-31.974
-29.7344
22.0714
18.1185
19.3502
15.4236
16.1788
13.0601
12.7038
10.4519
9.30358
7.50256
6.10626
4.66409
3.50785
2.50131
1.67562
0.714841
-0.511362
-1.57665
-3.06334
-4.1794
42.8819
40.5322
43.0497
39.7974
42.5409
40.7895
42.2582
41.9271
42.6313
42.8105
43.1587
43.289
43.3059
43.1629
42.8633
42.21
41.1865
40.2652
39.1155
37.3502
44.2439
41.683
45.0322
39.8493
41.6684
38.729
38.6206
37.3098
36.8898
36.4532
36.4131
36.5734
36.9373
37.4006
37.7835
38.001
37.8875
37.8608
38.5676
39.9823
26.2345
20.1948
28.8468
22.566
25.1793
22.5191
21.9365
20.1479
18.6718
16.9667
15.3187
13.689
12.165
10.7865
9.61081
8.7542
8.47876
9.37681
10.8328
13.4223
38.3199
15.796
23.758
12.622
9.713
2.9796
-2.08033
-7.41404
-12.0283
-16.1212
-19.4689
-22.0243
-23.6942
-24.4033
-24.0582
-22.6798
-20.2674
-16.9334
-13.7725
-10.959
732.421
649.477
600.129
543.719
494.561
447.164
403.128
361.583
322.542
285.73
250.988
218.122
186.917
157.284
129.233
101.926
75.774
55.4761
32.218
-4.19037
744.109
661.165
611.817
555.406
506.248
458.851
414.815
373.27
334.229
297.417
262.674
229.808
198.603
168.971
140.919
113.613
87.4622
67.1666
43.9093
7.49851
49.9998
27.475
35.4366
24.3
21.3905
14.6566
9.59605
4.26176
-0.353053
-4.44642
-7.79456
-10.3504
-12.0206
-12.7301
-12.3853
-11.0073
-8.59624
-5.26305
-2.10236
0.711609
37.9029
31.8624
40.5136
34.2321
36.8443
34.1832
33.5994
31.8098
30.3326
28.6264
26.9771
25.3462
23.8209
22.441
21.264
20.4057
20.1293
21.0283
22.4841
25.0752
55.9061
53.3475
56.6969
51.5155
53.3353
50.397
50.2895
48.9801
48.5615
48.1268
48.0883
48.2494
48.6133
49.0757
49.4562
49.6714
49.5579
49.5364
50.2519
51.6752
54.6017
52.2583
54.7781
51.5299
54.2773
52.5294
54.0022
53.675
54.3832
54.5662
54.9182
55.052
55.0728
54.9342
54.64
53.9934
52.9759
52.0629
50.9274
49.1741
33.8921
29.9454
31.1811
27.26
28.0221
24.9104
24.5624
22.3196
21.1811
19.3911
18.0064
16.5758
15.4304
14.4332
13.6142
12.6564
11.4289
10.3552
8.85744
7.72293
4.30039
0.418211
1.22558
-2.14272
-1.80592
-4.77108
-5.35794
-7.7749
-9.17956
-11.323
-13.1254
-14.9915
-16.5984
-18.003
-19.1357
-20.0442
-20.6367
-20.5697
-20.3782
-18.143
-2.67915
-4.25701
-2.38117
-4.32102
-2.60513
-4.18234
-3.30303
-4.15201
-3.98969
-4.38224
-4.46079
-4.46432
-4.12816
-3.36128
-2.14023
-0.336248
1.75437
4.47346
6.48557
9.85336
21.0172
21.9793
24.4093
24.1859
26.8694
27.1307
29.229
30.2846
31.9908
33.5161
35.2057
36.9683
38.8191
40.7838
42.8106
44.9626
47.0606
49.3445
51.1147
53.9027
45.5811
47.615
49.7763
50.3026
52.7582
53.5461
55.4984
56.7808
58.3626
59.8235
61.2864
62.7363
64.1642
65.6018
67.0376
68.5414
70.0086
71.6447
72.8925
74.5944
69.5228
71.535
73.1432
73.7535
75.5877
76.2133
77.634
78.5216
79.5973
80.569
81.5598
82.5887
83.6792
84.8379
86.0546
87.3053
88.5174
89.7925
90.7262
91.9172
84.4954
86.712
88.0835
89.2202
91.0292
92.1661
93.9764
95.3867
96.9595
98.2277
99.214
99.6573
99.405
98.346
96.6618
94.7745
93.6241
93.2897
93.7516
93.5698
107.667
107.98
108.374
108.211
108.515
107.976
107.649
106.44
104.929
102.614
99.685
96.0135
91.7408
87.1068
82.6367
78.9084
76.3087
74.9811
74.9822
72.7254
84.3134
79.7753
77.308
74.0005
71.7643
68.7533
66.2523
63.4354
60.9732
58.4711
56.1855
53.9629
51.8952
49.9702
48.3023
46.9593
46.2044
46.5592
46.1914
41.9597
33.1795
26.7107
22.8814
18.3297
14.1615
9.33936
4.61374
-0.481784
-5.40474
-10.2645
-14.731
-18.7459
-22.0752
-24.5615
-26.0305
-26.5045
-26.1444
-25.6594
-26.0058
-25.5073
-3.92189
-8.16125
-11.2529
-14.3259
-17.0645
-19.9907
-22.5584
-25.0351
-26.9475
-28.3307
-29.0106
-29.0206
-28.3706
-27.1356
-25.4822
-23.5352
-21.648
-19.6446
-18.0217
-14.8128
-14.862
-14.1587
-11.3442
-8.54448
-6.15721
-4.08281
-1.94687
0.109818
2.22346
4.32995
6.43918
8.52639
10.5553
12.5277
14.3879
16.246
17.979
20.0485
21.9019
24.8109
14.0335
16.3659
19.8708
23.3133
26.2331
28.6987
30.9896
33.0278
34.9135
36.6209
38.1683
39.5818
40.8732
42.0932
43.2373
44.4013
45.4876
46.7176
47.6705
48.9617
34.0943
37.7129
39.0155
40.9502
42.4496
43.9141
45.2848
46.4742
47.5675
48.5141
49.3854
50.2014
50.9771
51.7527
52.5141
53.3295
54.0984
55.0053
55.6656
56.5977
90.0491
91.1891
90.2467
89.9908
88.46
87.022
85.2042
83.1614
80.8737
78.8233
76.9249
75.1882
73.6575
72.3459
71.2539
70.3714
69.683
69.099
68.6993
68.0413
)
;

boundaryField
{
    outletWall
    {
        type            fixedValue;
        value           uniform 0;
    }
    fineWalls
    {
        type            zeroGradient;
    }
    fineFrontAndBack
    {
        type            zeroGradient;
    }
    fineplugLeft
    {
        type            cyclicAMI;
        value           nonuniform List<scalar> 
20
(
51.8234
52.0615
51.76
51.8648
52.0795
52.4958
53.0325
53.7219
54.5452
55.4827
56.5672
57.8128
58.7564
60.8863
63.0352
64.0001
65.5106
64.6686
61.5757
57.8915
)
;
    }
    fineplugRight
    {
        type            cyclicAMI;
        value           nonuniform List<scalar> 
20
(
52.9916
54.2616
54.4942
55.3939
56.283
57.442
58.7001
60.128
61.684
63.3696
65.1466
67.0079
68.8495
75.6739
77.137
77.7457
78.8456
77.5079
74.1447
70.5715
)
;
    }
    inletOutletLeft
    {
        type            cyclicAMI;
        value           nonuniform List<scalar> 
20
(
51.8234
52.0615
51.76
51.8648
52.0795
52.4958
53.0325
53.7219
54.5452
55.4827
56.5672
57.8128
58.7564
60.8863
63.0352
64.0001
65.5106
64.6686
61.5757
57.8915
)
;
    }
    inletLeft
    {
        type            zeroGradient;
    }
    inletWallsLeft
    {
        type            zeroGradient;
    }
    inletFacesLeft
    {
        type            zeroGradient;
    }
    inletOutletRight
    {
        type            cyclicAMI;
        value           nonuniform List<scalar> 
20
(
52.9916
54.2616
54.4942
55.3939
56.283
57.442
58.7001
60.128
61.684
63.3696
65.1466
67.0079
68.8495
75.6739
77.137
77.7457
78.8456
77.5079
74.1447
70.5715
)
;
    }
    inletRight
    {
        type            zeroGradient;
    }
    inletWallsRight
    {
        type            zeroGradient;
    }
    inletFacesRight
    {
        type            zeroGradient;
    }
}


// ************************************************************************* //
