/*--------------------------------*- C++ -*----------------------------------*\
| =========                 |                                                 |
| \\      /  F ield         | OpenFOAM: The Open Source CFD Toolbox           |
|  \\    /   O peration     | Version:  4.1                                   |
|   \\  /    A nd           | Web:      www.OpenFOAM.org                      |
|    \\/     M anipulation  |                                                 |
\*---------------------------------------------------------------------------*/
FoamFile
{
    version     2.0;
    format      ascii;
    class       surfaceScalarField;
    location    "26";
    object      phi;
}
// * * * * * * * * * * * * * * * * * * * * * * * * * * * * * * * * * * * * * //

dimensions      [0 3 -1 0 0 0 0];

internalField   nonuniform List<scalar> 
2360
(
-3281.58
-1177.31
-2104.27
-1177.3
-1177.31
967.472
-2144.78
967.47
967.471
967.469
3293.25
-2325.78
3293.24
3293.25
5924.05
-2630.81
5924.05
5924.05
8981.55
-3057.49
8981.55
8981.55
12720.4
-3738.8
12720.4
12720.4
13249.3
14812.6
16577.1
18221.4
19693.7
21020.5
13558.5
8710.89
14710.1
15783.4
16783.9
17715.1
18579.9
19380.3
20117
20790.3
21403.9
21973.7
22526.3
23081.8
23509.5
6280.52
17229
6280.52
6280.52
6280.52
-621.244
6901.76
-621.246
-621.249
-621.249
920.449
-1541.7
920.446
920.445
-4582.6
5503.04
-4582.6
-4582.6
-4582.6
-14683.6
10101
-14683.6
-14683.6
-14683.6
-28213.1
13529.5
-27726.1
-27138.7
-26557.6
-25962.5
-25326.9
-24637.2
-23889.9
-23084.9
-22220.8
-21295.1
-20304.5
-19245.2
-18111.5
-19794.8
2915.45
-18472
-17003.9
-15365.3
-13616.9
-12093.7
-11628.6
-11628.6
-11628.5
-4444.16
-7184.39
-4444.16
-4444.16
1606.43
-6050.59
1606.43
1606.43
6278.25
-4671.82
6278.25
6278.25
10153.3
-3875.08
10153.3
10153.3
10153.3
13960.8
-3807.46
13960.8
13960.8
18222.4
-4261.59
60.9287
-4884.11
-229.606
-8035.71
-1233.33
-10198.9
-2519.61
-10652.4
-3284.02
-11158.5
-3467.43
-12130.6
-3137.27
-13477.2
-2177.23
-13195.6
-1117.3
-1330.95
-1153.84
13825
-1081.07
19526.7
-683.107
24534.9
-124.663
28332.9
605.315
30331.7
1449.34
29462.2
2357.34
25995.2
3165.04
20027.4
3991.77
9394.27
-2943.88
-540.946
-5023.55
-753.832
-7822.82
-1658.74
-9294.03
-2560.1
-9751.04
-3042.37
-10676.2
-3152.27
-12020.7
-2791.04
-13838.4
-1927.64
-14059
-897.922
-2360.67
-1120.83
14047.9
-1197.42
19603.3
-824.688
24162.1
-286.984
27795.2
435.595
29609.1
1285.39
28612.4
2239.72
25040.9
3162.5
19104.6
3740.79
8815.98
-3010.56
-599.745
-5096.84
-986.849
-7435.72
-1879.77
-8401.11
-2647.88
-8982.93
-3089.11
-10235
-3173.61
-11936.2
-2801.94
-14210.1
-2136.38
-14724.5
-1224.82
-3272.23
-1181.31
14004.4
-1365.03
19787
-1068.01
23865.1
-545.572
27272.7
159.267
28904.3
1018.14
27753.5
2020.36
24038.7
3103.43
18021.6
3916.72
8002.69
-2968.91
-709.212
-5097.16
-1259.26
-6885.67
-2152.15
-7508.22
-2823.47
-8311.62
-3200.39
-9858.08
-3237.13
-11899.4
-2887.96
-14559.3
-2424.24
-15188.3
-1783.39
-3913.08
-1484.59
13705.6
-1569.95
19872.4
-1396.35
23691.5
-902.27
26778.6
-219.034
28221
630.268
26904.2
1676.33
22992.6
2913
16784.9
4232.59
6683.1
-3408.13
-760.681
-4984.91
-1514.29
-6132.06
-2412.78
-6609.73
-3006.32
-7718.08
-3347.89
-9516.52
-3386.27
-11861
-3144.55
-14801
-2968.23
-15364.6
-2622.49
-4258.82
-2051.51
13134.6
-1899.39
19720.2
-1799.53
23591.7
-1374.29
26353.4
-713.036
27559.8
113.717
26077.4
1199.96
21906.4
2525.85
15459
4506.66
4702.29
-4952.06
-723.298
-4715.2
-1729.94
-5125.41
-2662.8
-5676.88
-3219.24
-7161.63
-3554.53
-9181.24
-3634.89
-11780.7
-3570.79
-14865.1
-3735.03
-15200.3
-3675.66
-4318.19
-2886.4
12345.4
-2427.7
19261.5
-2279.04
23443
-1952.76
26027.1
-1334.06
26941.1
-534.123
25277.5
577.45
20794.8
2098.67
13937.8
5176.43
1624.53
-6960.03
-541.787
-4237.51
-1887.63
-3779.57
-2913.35
-4651.16
-3459.23
-6615.74
-3806.29
-8834.18
-3973.27
-11613.7
-4149.82
-14688.5
-4683.09
-14667.1
-4887.71
-4113.57
-3962.31
11420
-3196.44
18495.7
-2880.08
23126.6
-2626.51
25773.6
-2079.49
26394.1
-1298.04
24496.1
-221.643
19718.4
2265.35
11450.8
5150.14
-1260.25
1105.56
-123.959
-3499.08
-1921.8
-1981.73
-3156.09
-3416.86
-3737.19
-6034.65
-4112.4
-8458.98
-4404.34
-11321.8
-4865.52
-14227.4
-5761.03
-13771.6
-6181.48
-3693.12
-5198.84
10437.3
-4201.31
17498.1
-3657.46
22582.8
-3390.24
25506.3
-2943.25
25947.1
-2263.55
23816.4
-1336.71
18791.5
107.542
10006.5
-4391.19
3238.48
10243.9
668.712
-2580.71
-1710.34
397.315
-3370.32
-1756.88
-4050.86
-5354.11
-4465.92
-8043.91
-4915.4
-10872.3
-5687.32
-13455.4
-6908.31
-12550.6
-7483.29
-3118.13
-6508.47
9462.51
-5382.92
16372.6
-4619.93
21819.8
-4257.62
25144
-3927.05
25616.5
-3305.94
23195.3
-2230.14
17715.7
-2879.89
10656.3
-8213.91
8572.5
12131
1986.99
-1928.05
-915.571
3299.87
-3459.78
787.327
-4367.35
-4446.54
-4864.85
-7546.41
-5499.46
-10237.7
-6590.76
-12364.1
-8073.25
-11068.1
-8735.62
-2455.76
-7825.95
8552.83
-6676.62
15223.3
-5765.89
20909.1
-5283.01
24661.2
-4984.56
25318.1
-4348.84
22559.5
-3932.47
17299.4
-6135.28
12859.1
-8541.69
10978.9
9092.34
2622.27
-2133.8
424.929
5497.21
-2900.11
4112.36
-4616.1
-2730.54
-5304.63
-6857.88
-6149.19
-9393.12
-7554.26
-10959.1
-9219.95
-9402.38
-9898.79
-1776.93
-9099.4
7753.44
-8036.99
14160.8
-7087.09
19959.2
-6468.67
24042.7
-6071.78
24921.2
-5744.31
22232.1
-6623.84
18178.9
-8505.87
14741.1
-6794.49
9267.53
756.151
894.473
-4377.19
1217.97
5173.71
-1947.14
7277.48
-4713.71
36.0309
-5766.77
-5804.83
-6860.97
-8298.91
-8560.85
-9259.18
-10337.7
-7625.56
-10960.5
-1154.09
-10263.9
7056.8
-9348.49
13245.5
-8434.46
19045.1
-7694.38
23302.7
-7318.61
24545.4
-7867.23
22780.7
-9802.19
20113.9
-10980.1
15919
-9635.42
7922.84
-1977.5
-85.4403
-6878.33
1587.54
3500.74
-674.752
9539.76
-4349.61
3710.89
-6195.63
-3958.81
-7624.73
-6869.82
-9585.98
-7297.93
-11443.3
-5768.21
-11995.2
-602.27
-11349.9
6411.58
-10538.1
12433.6
-9693.3
18200.4
-9007.24
22616.6
-9021.34
24559.5
-10483.8
24243.1
-13041
22671.1
-15371.9
18249.9
-17353
9903.92
-2101.48
-714.404
-8904.97
1254.06
1532.27
445.332
10348.5
-3465.05
7621.27
-6513.68
-910.18
-8399.92
-4983.57
-10568.9
-5128.92
-12525.8
-3811.3
-13126.8
-1.32759
-12579.9
5864.72
-11854.2
11707.9
-11160.7
17506.9
-10784.5
22240.5
-11250.3
25025.2
-12586.7
25579.5
-13264.2
23348.6
-11449.6
16435.3
-7717.88
6172.18
-1108.47
-1471.94
-10852.9
758.98
-698.657
985.546
10121.9
-2344.8
10951.6
-6507.96
3252.98
-9062.12
-2429.42
-11357.9
-2833.1
-13424.4
-1744.85
-14283.9
858.149
-14078.2
5659.07
-13623.3
11252.9
-13231.1
17114.6
-13179.9
22189.3
-13553.9
25399.2
-13531.3
25557
-11309
21126.4
-5936.16
11062.5
315.848
-79.8286
-4531.43
-2373.34
-12671.7
220.523
-3292.52
985.435
9357.02
-1073.16
13010.2
-5765.52
7945.35
-9305.22
1110.27
-11656.6
-481.765
-13807.2
405.834
-15108.5
2159.46
-15507.2
6057.68
-15560.5
11306.3
-15527.1
17081.2
-15470.5
22132.7
-14937.3
24866
-12754
23373.6
-7847.73
16220.1
-1163.27
4378
2739.13
-3982.23
-4849.78
-3325.71
-14244.7
-596.101
-6022.13
622.426
8138.49
-47.7899
13680.4
-4204.07
12101.6
-8516.97
5423.18
-11037.1
2038.36
-13242.5
2611.2
-15108.8
4025.75
-16244.7
7193.59
-16863.5
11925.2
-17042.3
17259.9
-16522.4
21612.8
-14530.6
22874.3
-10139.5
18982.5
-3577.85
9658.47
1481.59
-681.437
2711.42
-5212.06
-4769.18
-4091.47
-15579.8
-1324.3
-8789.3
179.774
6634.42
516.692
13343.5
-2421.81
15040.1
-6879.24
9880.61
-9602.5
4761.62
-11801.3
4810.01
-14095.3
6319.73
-15780.2
8878.54
-16757.1
12902.1
-16912
17414.9
-15702.1
20402.9
-12296
19468.2
-6602.47
13288.9
-771.072
3827.07
2256
-3708.51
2617.75
-5573.81
-4477.2
-4647.42
-16642.8
-1850.01
-11586.7
-76.271
4860.68
733.629
12533.6
-831.078
16604.8
-5075.32
14124.8
-8217.93
7904.23
-10191.6
6783.69
-12653.5
8781.59
-14814.4
11039.5
-15962.4
14050
-15742.8
17195.4
-13547.3
18207.3
-8939.68
14860.6
-3010.81
7360.05
909.966
-93.707
2156.1
-4954.64
2389.35
-5807.06
-4232.63
-4947.47
-2499.85
-330.144
666.841
501.642
-2217.11
-5398.34
-7145.84
-8977.24
-11085.9
-12366.3
-12033.2
-9554.93
-5294.07
-1417.57
835.673
2017.67
2359.97
-115.275
-413.646
68.7668
-1747.35
310.895
-2006.64
508.997
-1842.36
662.892
-1626.26
788.785
-1452.65
858.404
-1318.55
918.738
-1211.93
963.048
-1117.62
990.385
-1027.77
999.148
-940.014
988.375
-853.988
958.176
-770.147
909.746
-688.293
844.973
-608.501
762.62
-531.277
655.751
-462.977
508.215
-405.057
299.858
-347.133
-127.81
-116.609
-297.033
-214.675
-1649.28
-168.168
-2053.14
-86.462
-1924.06
-2.81054
-1709.91
80.3901
-1535.85
169.192
-1407.35
255.709
-1298.44
334.476
-1196.39
401.474
-1094.76
454.357
-992.894
492
-891.628
514.266
-792.409
521.621
-695.645
514.791
-601.669
491.022
-507.504
440.806
-412.76
343.269
-307.518
179.764
-183.626
51.9545
-50.413
-246.614
-118.391
-1581.3
-63.7555
-2107.78
40.8654
-2028.68
147.146
-1816.19
250.666
-1639.37
351.196
-1507.88
446.466
-1393.71
531.671
-1281.59
602.456
-1165.55
655.514
-1045.95
688.284
-924.394
698.639
-802.762
684.775
-681.779
645.376
-562.267
579.228
-441.353
484.186
-317.716
353.48
-176.81
176.765
-6.9067
228.72
346.876
-593.488
475.668
-1710.09
489.319
-2121.43
497.891
-2037.25
534.709
-1853.01
597.778
-1702.43
674.722
-1584.82
750.079
-1469.06
814.627
-1346.13
863.489
-1214.4
895.042
-1077.5
907.502
-936.853
898.525
-793.782
864.912
-648.164
802.825
-500.178
708.117
-346.643
576.135
-185.733
383.928
15.4008
190.742
186.283
419.462
616.387
-1209.87
927.457
-2021.16
890.139
-2084.11
783.731
-1930.84
736.58
-1805.85
737.833
-1703.68
756.583
-1603.57
766.571
-1479.05
759.641
-1339.2
734.428
-1189.19
692.523
-1035.59
632.301
-876.629
551.133
-712.612
446.415
-543.443
317.595
-371.355
174.746
-203.789
45.796
-56.7737
-27.6656
88.8728
-82.3905
241.015
337.072
391.462
-1601.33
472.941
-2102.64
297.776
-1908.94
118.014
-1751.08
-7.60542
-1680.23
-109.431
-1601.86
-209.777
-1503.22
-321.483
-1367.34
-443.288
-1217.4
-571.602
-1060.88
-703.769
-903.425
-838.66
-741.739
-973.306
-577.965
-1100.23
-416.523
-1204.6
-266.974
-1260.09
-148.307
-1224.52
-92.3351
-1026.08
-109.564
-598.052
-187.015
-260.981
-25.0635
-1576.27
-168.779
-1958.92
-344.354
-1733.37
-508.352
-1587.08
-678.603
-1509.98
-864.103
-1416.36
-1057.4
-1309.92
-1251.69
-1173.06
-1443.23
-1025.85
-1632.19
-871.914
-1818.25
-717.363
-1993.97
-566.019
-2140.57
-431.369
-2223.47
-333.619
-2192.99
-297.454
-1999.61
-341.686
-1621.32
-470.622
-1069.8
-661.084
-437.927
-818.886
-698.908
-190.512
-1385.76
-238.892
-1910.54
-258.12
-1714.14
-335.006
-1510.19
-447.2
-1397.79
-578.62
-1284.94
-705.55
-1182.99
-813.75
-1064.86
-894.491
-945.112
-945.71
-820.697
-966.044
-697.029
-952.944
-579.122
-903.754
-480.559
-813.448
-423.926
-675.925
-434.978
-487.853
-529.76
-270.565
-687.91
-82.5428
-849.106
3.14861
-904.578
-695.759
-59.1708
-1326.59
1.09966
-1970.81
75.6952
-1788.73
116.6
-1551.09
145.093
-1426.28
166.891
-1306.73
192.854
-1208.95
233.562
-1105.56
296.784
-1008.33
388.831
-912.74
512.109
-820.306
664.035
-731.045
830.425
-646.949
981.712
-575.212
1073.54
-526.802
1058.78
-515.002
910.562
-539.694
640.914
-579.458
311.709
-575.374
-384.05
49.6454
-1376.23
101.89
-2023.06
158.022
-1844.87
215.378
-1608.45
279.54
-1490.44
345.932
-1373.13
413.946
-1276.97
483.852
-1175.47
555.515
-1080
629.974
-987.199
707.377
-897.711
787.151
-810.819
865.84
-725.639
932.556
-641.929
967.192
-561.439
939.944
-487.755
825.914
-425.666
612.945
-366.49
324.734
-287.166
-59.316
145.838
-1522.07
193.095
-2070.31
226.975
-1878.75
273.671
-1655.15
335.592
-1552.36
395.004
-1432.54
456.208
-1338.17
514.873
-1234.13
572.101
-1137.22
624.489
-1039.59
669.461
-942.684
703.685
-845.043
724.507
-746.461
729.205
-646.627
713.822
-546.058
669.02
-442.954
580.989
-337.635
432.799
-218.302
222.299
-76.6697
162.983
215.683
-1737.76
234.788
-2089.42
257.732
-1901.69
306.243
-1703.66
374.843
-1620.97
439.259
-1496.96
510.744
-1409.66
583.016
-1306.41
660.589
-1214.8
736.698
-1115.7
804.787
-1010.77
854.145
-894.403
876.165
-768.484
864.912
-635.376
817.23
-498.378
730.847
-356.574
604.3
-211.089
431.439
-45.4435
216.843
137.922
379.827
210.079
-1947.83
172.708
-2052.05
186.289
-1915.27
226.689
-1744.06
285.153
-1679.43
342.241
-1554.04
413.191
-1480.61
490.222
-1383.44
578.798
-1303.38
666.415
-1203.32
741.055
-1085.41
786.012
-939.361
794.428
-776.901
763.719
-604.667
691.068
-425.729
574.328
-239.835
402.394
-39.158
250.316
106.631
109.447
278.789
489.274
89.5846
-2037.42
-6.13637
-1956.33
-33.8757
-1887.54
-51.228
-1726.71
-61.7349
-1668.93
-69.6511
-1546.13
-69.8535
-1480.41
-63.0691
-1390.23
-50.2514
-1316.2
-40.8809
-1212.69
-46.1684
-1080.13
-71.3101
-914.223
-107.815
-740.4
-149.583
-562.904
-196.096
-379.222
-231.062
-204.879
-213.974
-56.2572
-232.16
124.811
-223.615
270.24
265.659
-33.4584
-2003.96
-126.182
-1863.61
-191.118
-1822.6
-263.634
-1654.2
-337.232
-1595.33
-412.857
-1470.51
-494.592
-1398.67
-578.333
-1306.49
-667.364
-1227.17
-756.242
-1123.81
-840.812
-995.561
-909.642
-845.394
-954.672
-695.372
-977.255
-540.323
-990.905
-365.574
-1003.83
-191.957
-1000.67
-59.4167
-869.808
-6.0525
-502.123
-97.4477
-236.464
-36.7514
-1967.21
-89.704
-1810.66
-135.278
-1777.03
-194.467
-1595.01
-254.674
-1535.12
-321.892
-1403.29
-399.151
-1321.42
-485.001
-1220.64
-577.791
-1134.38
-662.264
-1039.34
-719.136
-938.69
-733.407
-831.125
-704.891
-723.888
-634.465
-610.751
-522.694
-477.346
-388.586
-326.067
-250.084
-197.919
-80.5509
-175.589
20.6801
-198.682
-215.784
2.94288
-1970.16
-23.4115
-1784.3
-29.3161
-1771.12
-28.1772
-1596.15
-27.0779
-1536.22
-15.5
-1414.87
-5.6256
-1331.29
7.9665
-1234.23
22.3308
-1148.74
45.9036
-1062.92
87.5902
-980.379
153.011
-896.547
239.41
-810.289
347.053
-718.395
483.317
-613.612
634.95
-477.701
731.635
-294.607
654.573
-98.5279
390.695
65.1927
174.911
-120.781
-1849.38
-267.531
-1637.56
-376.879
-1661.78
-442.114
-1530.92
-496.806
-1481.53
-516.349
-1395.33
-519.898
-1327.74
-499.725
-1254.41
-462.566
-1185.9
-407.877
-1117.61
-337.86
-1050.4
-252.52
-981.888
-152.567
-910.243
-39.7022
-831.261
80.1144
-733.43
193.654
-591.241
275.641
-376.596
254.296
-77.1836
136.461
183.026
311.372
-195.849
-1653.53
-436.021
-1397.38
-691.285
-1406.51
-900.696
-1321.51
-1100.02
-1282.21
-1263.79
-1231.57
-1402.67
-1188.86
-1511.56
-1145.52
-1593.8
-1103.66
-1649.66
-1061.75
-1680.43
-1019.62
-1685.68
-976.639
-1663.83
-932.1
-1611.36
-883.731
-1519.84
-824.947
-1368.59
-742.49
-1129.15
-616.04
-777.407
-428.924
-381.111
-213.27
-69.7393
-678.529
-1100.91
-1532.43
-1878.93
-2186.14
-2442.71
-2656.56
-2827.08
-2955.75
-3042.49
-3087.12
-3088.76
-3045.86
-2954.59
-2804.54
-2572.03
-2213.07
-1666.99
-905.261
-678.532
1653.53
-1100.92
1397.39
-1532.44
1406.52
-1878.96
1321.52
-2186.17
1282.22
-2442.75
1231.58
-2656.62
1188.87
-2827.16
1145.53
-2955.84
1103.68
-3042.6
1061.76
-3087.24
1019.64
-3088.89
976.658
-3046.02
932.122
-2954.77
883.756
-2804.73
824.959
-2572.19
742.461
-2213.14
615.948
-1666.94
428.804
-905.175
213.232
69.8252
-195.873
1849.41
-436.074
1637.59
-691.367
1661.81
-900.811
1530.96
-1100.17
1481.58
-1263.98
1395.38
-1402.91
1327.8
-1511.84
1254.47
-1594.13
1185.97
-1650.03
1117.67
-1680.84
1050.45
-1686.13
981.944
-1664.31
910.302
-1611.88
831.322
-1520.38
733.463
-1369.12
591.199
-1129.67
376.501
-777.88
77.0155
-381.393
-183.254
-311.568
-120.797
1970.2
-267.538
1784.33
-376.894
1771.17
-442.115
1596.18
-496.801
1536.27
-516.323
1414.9
-519.848
1331.33
-499.639
1234.26
-462.437
1148.77
-407.705
1062.94
-337.669
980.419
-252.343
896.619
-152.419
810.379
-39.5791
718.483
80.2094
613.675
193.683
477.726
275.641
294.544
254.2
98.4583
136.124
-65.1765
-175.444
3.0542
1967.15
-23.1861
1810.58
-28.9759
1776.96
-27.6887
1594.9
-26.4414
1535.02
-14.6834
1403.15
-4.61364
1321.26
9.20137
1220.44
23.8021
1134.17
47.6046
1039.13
89.4877
938.537
155.053
831.055
241.544
723.888
349.267
610.76
485.577
477.366
637.07
326.234
733.274
198.34
655.395
176.338
390.98
199.239
215.536
-36.5847
2003.74
-89.3951
1863.39
-134.811
1822.38
-193.849
1653.93
-253.89
1595.06
-320.948
1470.21
-398.041
1398.35
-483.73
1306.14
-576.351
1226.79
-660.634
1123.42
-717.296
995.2
-731.379
845.138
-702.708
695.217
-632.119
540.172
-520.171
365.419
-385.95
192.014
-247.529
59.9192
-78.4361
7.24682
22.1305
98.6738
237.667
-33.6346
2037.37
-126.355
1956.11
-191.364
1887.39
-264.004
1726.57
-337.735
1668.79
-413.533
1546
-495.476
1480.29
-579.478
1390.14
-668.819
1316.13
-757.997
1212.6
-842.805
1080.01
-911.782
914.115
-956.895
740.331
-979.499
562.776
-993.054
378.975
-1005.69
204.648
-1001.63
55.8619
-869.567
-124.816
-501.477
-269.416
-263.81
89.2353
1948.14
-6.61911
2051.96
-34.5341
1915.3
-52.1028
1744.14
-62.8502
1679.54
-71.0083
1554.16
-71.4783
1480.77
-64.957
1383.62
-52.4051
1303.58
-43.2865
1203.48
-48.7722
1085.49
-73.9736
939.317
-110.417
776.775
-152.14
604.5
-198.594
425.43
-233.384
239.439
-216.9
39.3798
-235.182
-106.533
-225.437
-279.161
-489.247
210
1738.14
172.467
2089.5
185.963
1901.8
226.283
1703.82
284.664
1621.16
341.682
1497.14
412.574
1409.87
489.556
1306.63
578.088
1215.04
665.632
1115.93
740.151
1010.97
784.935
894.534
793.177
768.532
762.336
635.341
689.513
498.253
572.593
356.358
401.177
210.797
249.653
44.9913
108.909
-138.417
-380.338
215.861
1522.28
234.897
2070.46
257.811
1878.89
306.326
1655.31
374.946
1552.54
439.384
1432.71
510.909
1338.35
583.23
1234.31
660.866
1137.41
737.038
1039.76
805.173
942.839
854.549
845.159
876.56
746.522
865.278
646.624
817.546
545.985
731.098
442.808
604.49
337.405
431.526
217.956
216.885
76.2241
-163.453
146.057
1376.22
193.294
2023.22
227.124
1845.06
273.799
1608.63
335.724
1490.61
395.135
1373.3
456.347
1277.14
515.025
1175.64
572.28
1080.15
624.699
987.343
669.698
897.84
703.92
810.937
724.695
725.747
729.293
642.025
713.776
561.503
668.849
487.735
580.766
425.488
432.608
366.114
222.204
286.629
58.7516
49.9172
1326.3
102.171
1970.97
158.265
1788.97
215.623
1551.27
279.823
1426.41
346.244
1306.88
414.274
1209.11
484.151
1105.76
555.729
1008.58
630.038
913.034
707.246
820.632
786.789
731.394
865.239
647.297
931.779
575.485
966.321
526.961
939.128
514.929
825.277
539.339
612.556
578.835
324.549
574.636
383.301
-58.9035
1385.2
1.45903
1910.6
76.1488
1714.28
117.227
1510.2
145.956
1397.68
168.032
1284.8
194.265
1182.87
235.211
1064.81
298.631
945.154
390.858
820.806
514.31
697.179
666.385
579.318
832.858
480.823
984.085
424.258
1075.63
435.414
1060.42
530.143
911.717
688.038
641.689
848.864
312.211
904.114
695.512
-189.812
1575.02
-237.869
1958.66
-256.438
1732.85
-332.543
1586.3
-443.987
1509.13
-574.652
1415.46
-700.824
1309.04
-808.239
1172.23
-888.152
1025.07
-938.502
871.157
-957.978
716.655
-944.093
565.433
-894.291
431.021
-803.671
333.638
-666.217
297.96
-478.845
342.771
-263.225
472.417
-77.9206
663.559
4.9143
821.278
700.426
-23.1956
1598.21
-166.06
2101.52
-341.476
1908.26
-505.193
1750.02
-674.928
1678.86
-859.964
1600.5
-1052.91
1501.99
-1246.93
1366.24
-1438.23
1216.36
-1626.97
1059.9
-1812.83
902.512
-1988.37
740.974
-2134.78
577.429
-2217.44
416.301
-2186.64
267.153
-1992.97
149.103
-1614.72
94.1677
-1064.47
113.312
-435.535
192.34
264.891
397.18
1201.03
483.414
2015.29
309.634
2082.04
129.51
1930.14
3.54047
1804.83
-98.4072
1702.45
-198.803
1602.39
-310.653
1478.09
-432.777
1338.49
-561.582
1188.7
-694.376
1035.31
-830.005
876.603
-965.488
712.91
-1093.35
544.165
-1198.79
372.591
-1255.37
205.685
-1220.62
59.4108
-1022.65
-84.6525
-596.275
-234.04
-331.385
630.336
570.693
952.398
1693.23
917.665
2116.77
809.984
2037.82
761.179
1853.63
761.372
1702.25
779.47
1584.29
788.892
1468.67
781.327
1346.05
755.352
1214.68
712.538
1078.12
651.297
937.843
569.01
795.197
463.058
650.116
332.82
502.828
188.14
350.364
56.0885
191.461
-23.6816
-4.88474
-78.7063
-179.017
-410.091
371.335
199.358
507.698
1556.87
521.299
2103.17
527.898
2031.22
562.771
1818.76
624.346
1640.68
700.088
1508.55
774.295
1394.47
837.656
1282.69
885.242
1167.09
915.397
1047.96
926.322
926.918
915.676
805.843
880.309
685.482
816.469
566.668
720.157
446.676
587.367
324.249
397.019
185.463
199.131
18.8699
-210.961
-21.295
220.652
-89.1135
1624.68
-38.5874
2052.65
62.3443
1930.29
165.989
1715.12
267.85
1538.82
367.289
1409.11
462.355
1299.4
547.862
1197.18
619.145
1095.81
672.68
994.428
705.789
893.809
716.285
795.348
702.274
699.493
662.318
606.624
595.074
513.92
498.398
420.926
365.521
318.34
185.213
199.177
-25.7473
-85.1224
305.774
-183.529
1723.09
-137.654
2006.77
-55.7645
1848.4
29.4843
1629.87
115.82
1452.48
208.913
1316.01
298.082
1210.23
377.972
1117.29
444.951
1028.83
496.896
942.483
532.693
858.012
552.08
775.961
555.283
696.29
542.941
618.966
512.491
544.37
455.581
477.835
351.85
422.07
184.971
366.055
159.223
-159.364
40.4821
298.911
508.704
670.443
800.127
884.016
960.557
1018.51
1056.78
1073.55
1067.49
1038.44
987.44
916.613
825.41
708.199
549.121
327.806
)
;

boundaryField
{
    outletWall
    {
        type            calculated;
        value           nonuniform List<scalar> 
60
(
18222.4
2674.06
-10221
-20835.1
-26903.2
-30306.2
-31061.7
-28891.3
-24932.8
-19599.4
-13788.5
271.019
12235.5
13147
12314
11922.9
11938.7
11202.7
8326.24
4903.78
5809.52
5710.4
5426.57
4898.8
4192.1
3419.87
2741.04
2586.58
1348.92
-2416.51
-2639.65
-1587.08
-614.474
64.1049
453.583
648.429
709.54
673.029
680.393
-80.5992
3281.58
-3976.94
-6149.36
-6136.64
-2346.95
3483.56
10599.7
15729
16862.3
15330.5
13148.1
10613
8531.19
11085.5
16843.6
16770
11536.6
2690.97
-14034.3
-17504.9
)
;
    }
    fineWalls
    {
        type            calculated;
        value           uniform 0;
    }
    fineFrontAndBack
    {
        type            calculated;
        value           nonuniform List<scalar> 
960
(
-1.34839e-12
-4.27034e-12
-7.72935e-13
-8.59807e-13
-4.4223e-12
-7.81457e-13
-1.01915e-12
-5.72053e-13
-4.93565e-12
-1.3703e-12
-1.63469e-12
-6.52306e-12
-7.15749e-13
-5.59255e-13
-2.92661e-12
-4.08517e-13
-3.11988e-13
-1.35903e-12
-4.27917e-13
-8.14704e-13
-1.72882e-13
-4.63232e-13
-5.40981e-13
-6.3306e-13
-7.17195e-13
-8.78464e-13
-1.78351e-11
-1.01078e-12
-1.00819e-12
-9.78104e-13
-9.41362e-13
-8.7956e-13
-7.50556e-13
-5.70592e-13
-3.51553e-13
-1.1907e-13
1.42366e-14
-1.89735e-14
-7.35472e-14
-2.94898e-13
7.51338e-12
2.17661e-12
1.80322e-12
1.45066e-12
2.19224e-11
4.59632e-12
8.25843e-12
2.02265e-11
1.90031e-10
1.06324e-11
2.12052e-11
2.47687e-11
2.28362e-12
1.39349e-12
5.03135e-13
-6.00499e-12
-2.40021e-12
-3.32196e-12
-3.67991e-12
-1.23961e-11
3.86713e-13
2.81935e-13
2.92857e-13
2.86599e-13
3.68022e-13
4.74511e-13
5.85063e-13
6.80745e-13
7.24254e-13
7.29195e-13
7.32909e-13
7.20621e-13
7.08533e-13
6.79056e-12
5.65669e-13
3.53138e-13
3.35355e-13
2.96023e-13
2.92701e-13
2.40058e-14
1.23818e-12
1.06054e-12
1.27118e-11
4.27089e-12
4.2998e-12
1.88025e-11
4.3308e-12
4.63178e-12
1.20651e-11
2.84534e-12
2.44923e-12
2.12075e-11
5.93045e-12
6.00105e-12
5.94349e-12
2.40273e-11
3.70248e-12
3.53045e-12
1.04519e-11
2.07957e-12
3.6286e-12
-1.4673e-12
-3.91721e-12
2.18475e-12
4.32965e-12
8.3231e-13
-2.60727e-12
-5.38774e-12
-7.19098e-12
-6.92354e-12
2.60262e-12
1.9942e-11
3.68056e-11
4.62094e-11
4.50318e-11
3.3505e-11
1.33744e-11
-1.15221e-12
-1.88389e-11
-3.7795e-12
-7.39085e-12
-6.12615e-12
6.42418e-13
6.93882e-13
-1.64749e-12
-2.62105e-12
-3.15817e-12
-3.71533e-12
-6.43592e-12
3.04053e-12
2.03426e-11
3.69465e-11
4.62051e-11
4.5122e-11
3.40304e-11
1.46416e-11
1.17981e-12
-1.98822e-11
-6.27764e-12
-8.91931e-12
-6.45275e-12
-8.66095e-13
-8.64027e-13
-1.7333e-12
-1.63676e-12
-1.48973e-12
-1.32067e-12
-4.82404e-12
3.51006e-12
2.09981e-11
3.72016e-11
4.62275e-11
4.51947e-11
3.45809e-11
1.60959e-11
3.89279e-12
-1.51584e-11
-9.06381e-12
-1.07658e-11
-7.85441e-12
-4.25649e-12
-4.69526e-12
-3.84711e-12
-1.61406e-12
1.97916e-13
1.61727e-12
-2.23105e-12
4.23176e-12
2.18182e-11
3.76203e-11
4.62953e-11
4.52028e-11
3.49756e-11
1.73765e-11
6.45406e-12
-9.14746e-12
-1.11462e-11
-1.19586e-11
-9.85069e-12
-8.99902e-12
-9.42668e-12
-6.32849e-12
-1.61972e-12
2.08324e-12
5.1643e-12
1.29831e-12
5.7851e-12
2.26107e-11
3.83345e-11
4.64085e-11
4.51087e-11
3.50945e-11
1.82577e-11
9.07268e-12
-5.53294e-12
-1.25585e-11
-1.2751e-11
-1.18748e-11
-1.26923e-11
-1.21667e-11
-7.55862e-12
-1.86215e-12
3.54622e-12
9.23767e-12
6.06768e-12
8.62238e-12
2.35329e-11
3.9379e-11
4.65659e-11
4.48434e-11
3.4853e-11
1.85301e-11
1.1355e-11
1.48314e-12
-1.33456e-11
-1.30126e-11
-1.19658e-11
-1.15482e-11
-9.20324e-12
-5.50382e-12
-1.97834e-12
4.58122e-12
1.38606e-11
1.20525e-11
1.27595e-11
2.50395e-11
4.05615e-11
4.68309e-11
4.44071e-11
3.40299e-11
1.81886e-11
1.49508e-11
-3.5226e-12
-1.36689e-11
-1.26331e-11
-8.64393e-12
-4.37119e-12
-8.02921e-13
-6.79278e-13
-1.44225e-12
5.46986e-12
1.88499e-11
1.97694e-11
1.94416e-11
2.84743e-11
4.14127e-11
4.69505e-11
4.31219e-11
3.24699e-11
1.68412e-11
-1.36119e-11
-3.42316e-11
-1.36443e-11
-1.20894e-11
-3.67156e-12
3.93019e-12
6.52009e-12
3.44727e-12
5.55177e-13
6.47549e-12
2.36958e-11
2.52561e-11
2.325e-11
2.9705e-11
4.27689e-11
4.76374e-11
4.37323e-11
2.95446e-11
1.2141e-11
-1.2393e-11
-2.04489e-11
-1.32123e-11
-1.31172e-11
-2.34577e-12
5.69908e-12
5.96769e-12
3.57414e-12
2.72483e-12
7.04683e-12
2.94939e-11
3.89387e-11
3.69796e-11
4.40691e-11
4.37066e-11
4.54709e-11
3.28925e-11
2.42229e-11
6.44855e-12
1.10375e-12
7.18003e-12
-1.2097e-11
-1.3283e-11
-7.3296e-12
4.09512e-13
-1.08694e-13
1.82677e-13
1.44245e-12
6.31785e-12
2.96627e-11
5.14044e-11
5.20246e-11
5.10302e-11
4.30002e-11
4.12631e-11
2.39237e-11
1.72681e-11
1.90443e-11
4.01003e-11
8.05136e-11
-1.02366e-11
-1.252e-11
-1.12432e-11
-3.56301e-12
-2.36176e-12
-8.04812e-13
8.04371e-13
3.71402e-12
2.03474e-11
4.5598e-11
5.24885e-11
4.83564e-11
4.02763e-11
3.44783e-11
1.84671e-11
2.29881e-11
4.45178e-11
5.18519e-11
4.15355e-11
-1.01573e-11
-1.17533e-11
-1.29018e-11
-5.56794e-12
8.13358e-13
2.37009e-12
2.27353e-12
2.87892e-14
5.83442e-12
2.48129e-11
3.72491e-11
3.83831e-11
3.27647e-11
2.49615e-11
1.87233e-11
3.37867e-11
3.91882e-11
1.40596e-11
6.06179e-12
-1.04299e-11
-1.09757e-11
-1.28903e-11
-9.2261e-12
4.85201e-13
3.60794e-12
3.76388e-12
-1.3918e-12
-5.88402e-12
2.05379e-12
1.40169e-11
2.0147e-11
1.91125e-11
1.6872e-11
2.38091e-11
3.63164e-11
2.01016e-11
-1.46757e-11
-2.80967e-11
-1.05525e-11
-1.00014e-11
-1.21626e-11
-1.19437e-11
-4.60145e-13
5.77227e-12
6.43736e-12
9.76526e-13
-8.07477e-12
-9.90978e-12
-4.75578e-12
1.6951e-12
6.74585e-12
1.42555e-11
2.69243e-11
2.84636e-11
3.30438e-12
-1.82324e-11
-2.06863e-12
-1.07638e-11
-1.01045e-11
-1.14444e-11
-1.32094e-11
-3.60898e-12
7.4228e-12
1.00682e-11
6.9697e-12
-9.55629e-13
-7.45563e-12
-8.90646e-12
-5.11098e-12
2.91574e-12
1.42132e-11
2.27642e-11
1.56782e-11
-2.7284e-12
7.7294e-13
7.63438e-13
-1.09137e-11
-1.0162e-11
-1.09366e-11
-1.33443e-11
-7.47087e-12
6.82855e-12
1.28152e-11
1.30564e-11
8.31031e-12
2.05561e-12
-1.89192e-12
-1.11318e-12
4.54219e-12
1.17862e-11
1.35211e-11
5.43045e-12
-2.6524e-12
7.64896e-13
3.24579e-14
-1.10348e-11
-1.02529e-11
-1.06205e-11
-1.3026e-11
-1.06922e-11
3.97626e-12
1.15942e-11
1.55744e-11
1.45527e-11
1.03725e-11
6.30001e-12
4.61508e-12
5.53368e-12
6.54576e-12
4.30136e-12
3.3393e-13
2.83477e-12
1.96073e-12
-1.62531e-12
-1.11371e-11
-1.03312e-11
-1.07541e-11
-1.26744e-11
-1.28194e-11
1.26521e-12
8.60511e-12
1.50032e-11
1.78235e-11
1.57628e-11
1.14048e-11
7.17605e-12
3.97977e-12
1.41511e-12
-2.35545e-13
8.95633e-13
2.85697e-12
8.54143e-13
-3.62138e-12
-1.12323e-11
-1.03394e-11
-1.11072e-11
-1.23716e-11
-1.37948e-11
-3.39434e-12
3.50755e-12
7.93319e-12
1.42815e-11
1.60696e-11
1.36744e-11
8.24848e-12
2.40277e-12
-1.03338e-12
-5.07221e-14
3.82953e-12
3.09586e-12
2.81268e-13
-4.60897e-12
1.34839e-12
4.27034e-12
7.72935e-13
8.59807e-13
4.4223e-12
7.81457e-13
1.01915e-12
5.72053e-13
4.93565e-12
1.3703e-12
1.63469e-12
6.52306e-12
7.15749e-13
5.59255e-13
2.92661e-12
4.08517e-13
3.11988e-13
1.35903e-12
4.27917e-13
8.14704e-13
1.72882e-13
4.63232e-13
5.40981e-13
6.3306e-13
7.17195e-13
8.78464e-13
1.78351e-11
1.01078e-12
1.00819e-12
9.78104e-13
9.41362e-13
8.7956e-13
7.50556e-13
5.70592e-13
3.51553e-13
1.1907e-13
-1.42366e-14
1.89735e-14
7.35472e-14
2.94898e-13
-7.51338e-12
-2.17661e-12
-1.80322e-12
-1.45066e-12
-2.19224e-11
-4.59632e-12
-8.25843e-12
-2.02265e-11
-1.90031e-10
-1.06324e-11
-2.12052e-11
-2.47687e-11
-2.28362e-12
-1.39349e-12
-5.03135e-13
6.00499e-12
2.40021e-12
3.32196e-12
3.67991e-12
1.23961e-11
-3.86713e-13
-2.81935e-13
-2.92857e-13
-2.86599e-13
-3.68022e-13
-4.74511e-13
-5.85063e-13
-6.80745e-13
-7.24254e-13
-7.29195e-13
-7.32909e-13
-7.20621e-13
-7.08533e-13
-6.79056e-12
-5.65669e-13
-3.53138e-13
-3.35355e-13
-2.96023e-13
-2.92701e-13
-2.40058e-14
-1.23818e-12
-1.06054e-12
-1.27118e-11
-4.27089e-12
-4.2998e-12
-1.88025e-11
-4.3308e-12
-4.63178e-12
-1.20651e-11
-2.84534e-12
-2.44923e-12
-2.12075e-11
-5.93045e-12
-6.00105e-12
-5.94349e-12
-2.40273e-11
-3.70248e-12
-3.53045e-12
-1.04519e-11
-2.07957e-12
-3.6286e-12
1.4673e-12
3.91721e-12
-2.18475e-12
-4.32965e-12
-8.3231e-13
2.60727e-12
5.38774e-12
7.19098e-12
6.92354e-12
-2.60262e-12
-1.9942e-11
-3.68056e-11
-4.62094e-11
-4.50318e-11
-3.3505e-11
-1.33744e-11
1.15221e-12
1.88389e-11
3.7795e-12
7.39085e-12
6.12615e-12
-6.42418e-13
-6.93882e-13
1.64749e-12
2.62105e-12
3.15817e-12
3.71533e-12
6.43592e-12
-3.04053e-12
-2.03426e-11
-3.69465e-11
-4.62051e-11
-4.5122e-11
-3.40304e-11
-1.46416e-11
-1.17981e-12
1.98822e-11
6.27764e-12
8.91931e-12
6.45275e-12
8.66095e-13
8.64027e-13
1.7333e-12
1.63676e-12
1.48973e-12
1.32067e-12
4.82404e-12
-3.51006e-12
-2.09981e-11
-3.72016e-11
-4.62275e-11
-4.51947e-11
-3.45809e-11
-1.60959e-11
-3.89279e-12
1.51584e-11
9.06381e-12
1.07658e-11
7.85441e-12
4.25649e-12
4.69526e-12
3.84711e-12
1.61406e-12
-1.97916e-13
-1.61727e-12
2.23105e-12
-4.23176e-12
-2.18182e-11
-3.76203e-11
-4.62953e-11
-4.52028e-11
-3.49756e-11
-1.73765e-11
-6.45406e-12
9.14746e-12
1.11462e-11
1.19586e-11
9.85069e-12
8.99902e-12
9.42668e-12
6.32849e-12
1.61972e-12
-2.08324e-12
-5.1643e-12
-1.29831e-12
-5.7851e-12
-2.26107e-11
-3.83345e-11
-4.64085e-11
-4.51087e-11
-3.50945e-11
-1.82577e-11
-9.07268e-12
5.53294e-12
1.25585e-11
1.2751e-11
1.18748e-11
1.26923e-11
1.21667e-11
7.55862e-12
1.86215e-12
-3.54622e-12
-9.23767e-12