/*--------------------------------*- C++ -*----------------------------------*\
| =========                 |                                                 |
| \\      /  F ield         | OpenFOAM: The Open Source CFD Toolbox           |
|  \\    /   O peration     | Version:  4.1                                   |
|   \\  /    A nd           | Web:      www.OpenFOAM.org                      |
|    \\/     M anipulation  |                                                 |
\*---------------------------------------------------------------------------*/
FoamFile
{
    version     2.0;
    format      ascii;
    class       volVectorField;
    location    "26";
    object      U;
}
// * * * * * * * * * * * * * * * * * * * * * * * * * * * * * * * * * * * * * //

dimensions      [0 1 -1 0 0 0 0];

internalField   nonuniform List<vector> 
1280
(
(-9.74443e-16 -1.08233 -1.74777)
(-7.25785e-16 -0.29782 -1.58505)
(-5.22793e-16 -0.660229 -1.20984)
(-6.2136e-16 -0.308489 -1.34636)
(-7.51613e-16 0.124747 -1.73809)
(-5.64738e-16 0.0860726 -1.23259)
(-7.36512e-16 0.351967 -1.25611)
(-3.12846e-16 0.472375 -1.1745)
(-9.5053e-16 0.992203 -1.84854)
(-9.90278e-16 0.994595 -1.4366)
(-1.18135e-15 1.22203 -1.30203)
(-1.10479e-15 1.85947 -2.09468)
(-5.17735e-16 1.79695 -1.58411)
(-4.04159e-16 2.06702 -1.37933)
(-5.89236e-16 2.8292 -2.347)
(-2.95225e-16 2.72696 -1.7835)
(-2.25465e-16 3.03838 -1.47256)
(-2.30981e-16 4.05494 -3.07176)
(-3.09244e-16 3.81684 -2.02498)
(-5.88766e-16 4.20865 -2.9421)
(-7.09258e-16 4.04113 -1.27547)
(-1.90044e-15 4.34037 5.34513)
(-2.21941e-15 4.00188 9.26638)
(-2.59717e-15 4.27062 10.8433)
(-2.94234e-15 4.48081 11.2541)
(-3.60395e-15 4.95169 11.2045)
(-3.75971e-15 3.41161 9.59665)
(-4.14678e-15 7.19158 13.7568)
(-4.13617e-15 7.16572 13.6251)
(-4.01273e-15 7.23128 13.4422)
(-3.862e-15 7.25946 13.3431)
(-3.60845e-15 7.26436 13.3399)
(-3.0792e-15 7.26121 13.3852)
(-2.34089e-15 7.22492 13.3933)
(-1.44227e-15 7.17492 13.2851)
(-4.88494e-16 7.0831 13.0673)
(5.84065e-17 7.02623 12.9306)
(-7.78402e-17 6.8685 12.9806)
(-3.01732e-16 6.86651 13.6073)
(-1.20984e-15 6.56285 13.4503)
(1.30781e-15 7.6543 13.9027)
(1.74828e-15 3.27898 8.93234)
(1.44837e-15 2.16463 8.49703)
(1.25034e-15 1.33045 8.11764)
(4.64287e-15 0.158507 5.65484)
(3.69182e-15 0.513069 1.99835)
(6.63328e-15 -0.658988 1.43785)
(1.62462e-14 -0.0984372 -1.16283)
(3.79256e-14 0.448549 -4.21797)
(8.54009e-15 0.911473 0.864558)
(1.64027e-14 -0.408389 1.33451)
(4.31135e-15 0.33438 2.99077)
(1.83423e-15 -0.891102 4.83464)
(1.11927e-15 -1.43314 4.73214)
(4.04125e-16 -2.02858 4.92169)
(-1.04525e-15 -2.99167 8.30292)
(-1.90363e-15 -4.00051 8.77836)
(-2.66976e-15 -5.01331 9.52204)
(-2.95575e-15 -6.31976 9.94192)
(-2.36405e-15 -10.5114 14.4291)
(1.58651e-15 -8.13031 13.1185)
(1.15666e-15 -8.46216 13.1258)
(1.20146e-15 -8.41602 12.4992)
(1.17579e-15 -8.57286 12.4131)
(1.50984e-15 -8.60126 12.4752)
(1.94671e-15 -8.67556 12.5411)
(2.40026e-15 -8.6933 12.4459)
(2.7928e-15 -8.69363 12.2115)
(2.9713e-15 -8.65146 11.9393)
(2.99157e-15 -8.58969 11.728)
(3.0068e-15 -8.50835 11.6381)
(2.95639e-15 -8.41238 11.6706)
(2.9068e-15 -8.31891 11.7163)
(1.43147e-15 -3.86293 6.66895)
(2.32069e-15 -4.68809 10.5241)
(1.44877e-15 -4.21332 10.2832)
(1.37581e-15 -4.02972 9.61233)
(1.21445e-15 -3.79376 7.56167)
(1.20083e-15 -4.17648 3.00657)
(9.84853e-17 -3.84249 -4.17887)
(8.94797e-16 -4.03421 -5.39862)
(7.62468e-16 -3.0872 -4.79122)
(2.16049e-15 -2.21496 -6.56818)
(3.08646e-15 -1.87712 -3.81535)
(3.10735e-15 -0.946375 -4.28743)
(4.16552e-15 -0.0740202 -5.55336)
(3.12976e-15 0.139559 -3.9073)
(3.80379e-15 0.831993 -3.4925)
(2.05059e-15 1.6827 -4.11853)
(1.93951e-15 1.72337 -2.77972)
(1.65325e-15 2.19246 -2.53692)
(4.46853e-15 3.18945 -3.3727)
(4.35779e-15 2.88867 -2.46145)
(4.3368e-15 3.51739 -2.47676)
(4.29521e-15 3.63326 -2.34726)
(4.08367e-15 4.86678 -3.34081)
(2.67569e-15 4.33974 -2.50898)
(2.55136e-15 5.03242 -2.31473)
(1.79638e-15 5.18251 -3.15756)
(1.50285e-15 5.9707 -3.43314)
(4.03178e-16 1.6218 -0.0700809)
(-1.63033e-16 2.75328 -0.0265091)
(-4.35246e-16 3.69362 0.406105)
(2.4275e-16 3.92321 1.64624)
(4.81073e-16 3.93893 2.55587)
(9.24789e-17 4.09724 2.91834)
(-2.89697e-16 4.3968 2.86046)
(-5.98637e-16 4.12008 2.38151)
(-7.98998e-16 0.0520465 1.1066)
(-7.69282e-16 -4.52232 0.887446)
(2.8918e-16 -6.48818 1.00199)
(2.21578e-15 -8.25524 0.811772)
(4.08951e-15 -9.57874 0.324107)
(5.13437e-15 -10.3057 -0.116985)
(5.00353e-15 -10.0589 -0.891216)
(3.72278e-15 -8.93479 -1.52733)
(1.48605e-15 -6.92592 -2.40288)
(-1.28023e-16 -3.38698 -2.87248)
(-2.09321e-15 0.875601 -3.87139)
(-4.19944e-16 1.6495 0.558048)
(-8.21206e-16 2.63688 0.34938)
(-6.80683e-16 3.17284 0.904711)
(7.13798e-17 3.27383 1.86605)
(7.7098e-17 3.56207 2.39744)
(-1.83055e-16 4.00497 2.67032)
(-2.91228e-16 4.56804 2.58521)
(-3.50907e-16 4.61636 2.07736)
(-4.12814e-16 0.695162 1.00122)
(-7.15102e-16 -4.74903 0.668392)
(3.37836e-16 -6.55962 1.1101)
(2.26029e-15 -8.14869 0.91585)
(4.10517e-15 -9.3717 0.450515)
(5.1339e-15 -9.99055 0.0228592)
(5.01356e-15 -9.66713 -0.746831)
(3.78115e-15 -8.48169 -1.40986)
(1.62685e-15 -6.49633 -2.31801)
(1.3109e-16 -2.9701 -2.97007)
(-2.20913e-15 1.06179 -3.11929)
(-6.97516e-16 1.69555 0.547785)
(-9.91035e-16 2.56725 0.463348)
(-7.16972e-16 2.98634 1.17234)
(-9.62328e-17 3.17131 1.96816)
(-9.6003e-17 3.51871 2.44169)
(-1.92589e-16 3.99963 2.70493)
(-1.81862e-16 4.66914 2.58601)
(-1.65526e-16 4.7889 2.09405)
(-1.46741e-16 0.921156 1.425)
(-5.36005e-16 -4.6933 0.694819)
(3.90007e-16 -6.56295 1.18983)
(2.33313e-15 -7.98935 1.11856)
(4.13351e-15 -9.16773 0.654712)
(5.13639e-15 -9.7368 0.248052)
(5.02164e-15 -9.37817 -0.50998)
(3.84232e-15 -8.16627 -1.20563)
(1.78844e-15 -6.18811 -2.15971)
(4.32532e-16 -2.8136 -3.03171)
(-1.68427e-15 0.998329 -3.27158)
(-1.00709e-15 1.70401 0.572069)
(-1.1962e-15 2.39685 0.624734)
(-8.72712e-16 2.63394 1.46289)
(-4.72944e-16 2.84666 2.13778)
(-5.21695e-16 3.32477 2.5611)
(-4.27457e-16 3.96502 2.77037)
(-1.7934e-16 4.80372 2.62555)
(2.19907e-17 5.01835 2.19208)
(1.79697e-16 1.24026 1.87643)
(-2.47894e-16 -4.61928 1.11601)
(4.70195e-16 -6.61832 1.27282)
(2.42424e-15 -7.91184 1.37585)
(4.18004e-15 -9.00449 0.948741)
(5.14392e-15 -9.52248 0.546624)
(5.02254e-15 -9.11455 -0.176323)
(3.88618e-15 -7.85275 -0.897295)
(1.93072e-15 -5.82577 -1.90063)
(7.17117e-16 -2.52935 -2.9887)
(-1.01638e-15 1.01352 -3.82263)
(-1.23847e-15 1.692 0.512801)
(-1.32873e-15 2.1907 0.77465)
(-1.09452e-15 2.36344 1.73695)
(-9.99891e-16 2.68209 2.30215)
(-1.04741e-15 3.23846 2.69891)
(-7.03166e-16 3.96627 2.87966)
(-1.79969e-16 4.90615 2.76166)
(2.31471e-16 5.11716 2.48249)
(5.73812e-16 1.38068 2.54445)
(1.44256e-16 -4.49833 1.80096)
(6.42789e-16 -6.62666 1.53574)
(2.5123e-15 -7.88198 1.65749)
(4.25939e-15 -8.85045 1.34391)
(5.1565e-15 -9.29791 0.935739)
(5.01208e-15 -8.83122 0.259508)
(3.89939e-15 -7.48741 -0.476609)
(2.02863e-15 -5.3795 -1.53615)
(1.00808e-15 -1.93135 -2.72846)
(-6.14771e-16 0.974397 -4.57172)
(-1.39539e-15 1.63251 0.337795)
(-1.41678e-15 1.90092 0.893126)
(-1.31942e-15 2.04949 1.98107)
(-1.41025e-15 2.47037 2.47904)
(-1.35186e-15 3.11128 2.8743)
(-8.39847e-16 3.94434 3.04972)
(-2.06905e-16 4.96302 3.00158)
(3.94024e-16 5.12789 2.95537)
(1.02641e-15 1.45871 3.38716)
(6.74186e-16 -4.26086 2.6733)
(9.58042e-16 -6.52565 2.06676)
(2.61477e-15 -7.85036 1.99955)
(4.37545e-15 -8.72186 1.80565)
(5.17399e-15 -9.07855 1.43613)
(4.9826e-15 -8.55743 0.795946)
(3.87256e-15 -7.1223 0.0626701)
(2.0589e-15 -4.93752 -1.04894)
(1.26167e-15 -1.20399 -2.70823)
(1.64794e-16 2.5829 -5.45648)
(-1.48284e-15 1.51371 -0.00663263)
(-1.44584e-15 1.51289 0.942682)
(-1.32954e-15 1.73579 2.20392)
(-1.28314e-15 2.29937 2.67724)
(-1.02258e-15 3.00733 3.07409)
(-6.11535e-16 3.90976 3.27098)
(-2.19816e-16 4.94858 3.33941)
(5.09025e-16 5.00966 3.58893)
(1.54007e-15 1.426 4.35186)
(1.33917e-15 -3.96609 3.7018)
(1.41772e-15 -6.31555 2.84702)
(2.78217e-15 -7.77964 2.49199)
(4.50683e-15 -8.63019 2.31831)
(5.20344e-15 -8.8831 2.04484)
(4.93412e-15 -8.29463 1.43156)
(3.7811e-15 -6.74215 0.697222)
(2.02096e-15 -4.29624 -0.362865)
(1.66119e-15 0.113033 -4.09889)
(-3.914e-16 3.10124 -3.44059)
(-1.51877e-15 1.30453 -0.592072)
(-1.40367e-15 0.967734 0.829229)
(-9.60437e-16 1.35198 2.39088)
(-4.85688e-16 2.11031 2.90449)
(-8.92135e-17 2.88303 3.30681)
(-7.54753e-17 3.83425 3.54982)
(-1.6025e-16 4.84468 3.77462)
(6.07762e-16 4.77007 4.35522)
(2.09443e-15 1.3185 5.38302)
(2.19661e-15 -3.64448 4.81457)
(2.16018e-15 -6.0127 3.81131)
(3.16381e-15 -7.63833 3.19438)
(4.60141e-15 -8.55273 2.91306)
(5.21672e-15 -8.71435 2.72219)
(4.79132e-15 -8.03969 2.19536)
(3.60776e-15 -6.42462 1.56013)
(1.87124e-15 -3.55645 0.534186)
(-1.51243e-15 0.13072 -1.01919)
(-3.80351e-15 -4.50511 8.30007)
(-1.51603e-15 0.998151 -1.42005)
(-1.34327e-15 0.280202 0.346766)
(-4.07951e-16 0.885045 2.51017)
(4.36687e-16 1.91603 3.16286)
(7.24454e-16 2.75414 3.56883)
(3.8303e-16 3.71388 3.87832)
(6.16863e-17 4.64059 4.29496)
(7.19499e-16 4.41193 5.21362)
(2.63287e-15 1.14664 6.42586)
(2.80623e-15 -3.31305 5.94008)
(2.58333e-15 -5.65023 4.88327)
(3.30055e-15 -7.41689 4.08525)
(4.7521e-15 -8.45172 3.62617)
(5.29305e-15 -8.58515 3.45401)
(4.85914e-15 -7.84117 3.10032)
(3.28273e-15 -6.08808 2.40137)
(1.349e-15 -3.0791 1.14868)
(-1.37701e-15 -1.74284 4.06281)
(-2.2721e-15 -3.36456 9.02508)
(-1.46803e-15 0.718496 -2.29237)
(-1.45747e-15 -0.611401 -0.933542)
(-2.60641e-16 0.282111 2.40641)
(6.33231e-16 1.66196 3.41377)
(6.63076e-16 2.60747 3.85702)
(3.97126e-16 3.53391 4.25347)
(3.41421e-16 4.3299 4.89265)
(7.82982e-16 3.95479 6.12933)
(3.2771e-15 0.935177 7.43366)
(4.32652e-15 -2.99394 7.02733)
(4.10884e-15 -5.26167 6.00286)
(5.10991e-15 -7.12855 5.11776)
(4.85629e-15 -8.31028 4.50201)
(5.05232e-15 -8.49254 4.2863)
(3.18105e-15 -7.619 4.03031)
(2.69143e-15 -5.73246 3.19437)
(7.16506e-16 -3.94876 3.287)
(1.22639e-16 -4.03789 7.07359)
(7.97781e-16 -3.86957 6.96388)
(-1.34412e-15 0.562184 -2.11773)
(-1.47589e-15 -1.50728 -2.08561)
(-8.14399e-16 -0.780425 1.26569)
(4.55013e-17 1.24047 3.56561)
(-1.20771e-17 2.429 4.16526)
(2.02975e-17 3.28974 4.67181)
(1.20678e-16 3.91265 5.55834)
(7.01984e-16 3.42294 7.07483)
(3.29585e-15 0.705504 8.37838)
(5.7116e-15 -2.70569 8.03507)
(5.78051e-15 -4.8833 7.1246)
(5.67002e-15 -6.8088 6.26146)
(4.77779e-15 -8.12944 5.55786)
(4.58479e-15 -8.3858 5.20672)
(2.65819e-15 -7.42334 4.91679)
(1.91868e-15 -5.8034 4.62637)
(2.11603e-15 -4.56398 6.40679)
(4.45558e-15 -3.05543 7.79146)
(8.94596e-15 -1.36951 3.43163)
(-1.1374e-15 0.937713 0.930735)
(-1.39111e-15 -1.93733 -2.06601)
(-1.24924e-15 -1.95344 -0.199125)
(-3.9589e-16 0.558408 3.43532)
(-2.62417e-16 2.15698 4.48068)
(-8.94235e-17 2.97253 5.1352)
(8.93746e-17 3.39201 6.28098)
(4.12669e-16 2.84411 8.0325)
(2.26082e-15 0.484473 9.26389)
(5.06644e-15 -2.46041 8.93538)
(5.83205e-15 -4.55438 8.16879)
(5.37293e-15 -6.49625 7.4026)
(4.47515e-15 -7.89781 6.66004)
(3.83092e-15 -8.22637 6.14716)
(2.0519e-15 -7.3952 6.04706)
(2.55423e-15 -6.28539 7.05398)
(4.94642e-15 -5.29401 9.33485)
(5.76132e-15 -3.77804 8.90237)
(4.61506e-15 -1.76716 6.69224)
(-1.12859e-15 1.93918 2.05914)
(-1.30592e-15 -1.62672 -1.60483)
(-1.43353e-15 -2.93994 -1.32466)
(-6.1866e-16 -0.530403 2.49007)
(9.03731e-17 1.67437 4.72723)
(2.63343e-16 2.56194 5.64739)
(2.52614e-16 2.77723 7.03797)
(3.1988e-18 2.23768 8.98246)
(6.48269e-16 0.294688 10.141)
(2.75699e-15 -2.23804 9.79876)
(4.13879e-15 -4.27185 9.11731)
(4.26479e-15 -6.19895 8.43697)
(3.64052e-15 -7.63548 7.72181)
(2.7735e-15 -8.13661 7.27241)
(2.08036e-15 -7.79267 7.75982)
(3.75408e-15 -7.16414 9.70272)
(4.35424e-15 -5.43934 12.034)
(1.56218e-15 -1.19249 13.5838)
(6.73532e-16 4.85314 15.2426)
(-1.15888e-15 2.64828 2.24528)
(-1.21952e-15 -0.777753 -0.758617)
(-1.43225e-15 -3.41979 -1.6311)
(-1.02512e-15 -1.924 0.912716)
(5.39112e-17 0.899999 4.75694)
(4.00882e-16 2.01907 6.20315)
(4.18209e-16 2.08592 7.78189)
(-1.54644e-16 1.60428 9.86842)
(-6.5378e-16 0.116018 11.0476)
(2.28199e-16 -2.03016 10.7931)
(1.55744e-15 -4.01028 10.1745)
(2.23856e-15 -5.92871 9.5741)
(2.12361e-15 -7.43614 9.02762)
(1.87467e-15 -8.22921 8.92755)
(2.64545e-15 -8.35383 9.81335)
(4.03515e-15 -7.88334 11.1387)
(2.23351e-15 -6.37072 10.9957)
(-1.63064e-15 -4.47193 8.22359)
(-3.12185e-15 -2.51824 4.47492)
(-1.1725e-15 3.29319 2.84027)
(-1.11127e-15 -0.206478 -0.136727)
(-1.3514e-15 -3.4681 -1.3735)
(-1.32708e-15 -3.19554 -0.315733)
(-5.11272e-17 -0.282157 4.18287)
(6.41363e-16 1.29089 6.71032)
(7.15262e-16 1.33251 8.41065)
(1.08503e-16 0.923314 10.5401)
(-8.97197e-16 -0.113131 11.8636)
(-1.10109e-15 -1.86991 11.9208)
(-5.28419e-16 -3.78322 11.545)
(1.88345e-16 -5.73423 11.1534)
(7.49538e-16 -7.38608 10.8961)
(1.58395e-15 -8.44969 11.0524)
(2.99159e-15 -8.69188 11.5279)
(3.16262e-15 -7.68317 11.022)
(3.67153e-16 -4.7769 7.85625)
(-2.02582e-15 -0.727844 2.12178)
(-2.29848e-16 1.87497 -2.93664)
(-1.19598e-15 3.94215 3.49812)
(-1.12272e-15 0.652936 0.509166)
(-1.2716e-15 -3.25636 -0.881443)
(-1.46772e-15 -4.10868 -0.87347)
(-4.00998e-16 -1.85424 2.7009)
(8.24756e-16 0.272597 6.85502)
(1.11869e-15 0.53065 8.71377)
(7.74411e-16 0.224309 10.7293)
(-1.06181e-16 -0.463042 12.2996)
(-8.28403e-16 -1.90735 12.8707)
(-9.89607e-16 -3.71928 12.978)
(-5.67886e-16 -5.67112 12.9514)
(3.23971e-16 -7.39904 12.9236)
(1.57924e-15 -8.47677 12.8443)
(2.52935e-15 -8.34744 12.041)
(1.74202e-15 -6.40279 9.22627)
(-3.03155e-16 -2.5592 3.87544)
(8.58823e-17 1.09749 -1.88662)
(8.48264e-17 1.48123 -2.75972)
(-1.21264e-15 4.50734 4.0919)
(-1.12911e-15 1.55601 1.43306)
(-1.21517e-15 -2.96173 -0.334966)
(-1.4827e-15 -4.56473 -0.858083)
(-8.30097e-16 -3.42719 0.99804)
(7.58728e-16 -1.00509 5.94105)
(1.42391e-15 -0.185162 8.31406)
(1.45071e-15 -0.483219 10.0956)
(9.23368e-16 -0.97009 11.9793)
(2.28401e-16 -2.12463 13.1996)
(-2.10213e-16 -3.81451 13.8796)
(-1.23687e-16 -5.72338 14.2222)
(5.04688e-16 -7.37303 14.1767)
(1.30958e-15 -8.11931 13.3459)
(1.50234e-15 -7.24346 10.8653)
(6.03383e-16 -4.39439 6.05818)
(-2.94711e-16 -0.419239 -0.127062)
(8.49884e-17 1.58637 -2.26811)
(3.60644e-18 1.67621 -2.30215)
(-1.22609e-15 4.9752 4.53172)
(-1.13921e-15 2.4213 2.24868)
(-1.18005e-15 -2.44334 0.109597)
(-1.44733e-15 -4.53272 -0.5796)
(-1.18802e-15 -4.62748 -0.230635)
(4.41807e-16 -2.60902 4.23373)
(1.28824e-15 -1.23714 7.24647)
(1.73048e-15 -1.29152 8.78476)
(1.61696e-15 -1.73641 10.8813)
(1.1525e-15 -2.70505 12.6084)
(7.00001e-16 -4.16256 13.6963)
(5.12787e-16 -5.78679 14.2308)
(6.14853e-16 -7.01307 13.9534)
(7.27307e-16 -7.09831 12.205)
(4.77929e-16 -5.3878 8.28776)
(3.71033e-17 -2.06448 2.72251)
(3.14975e-16 0.932555 -1.44784)
(2.17859e-16 1.84906 -2.27802)
(-1.8059e-16 1.51993 -2.08467)
(-1.23745e-15 5.39558 4.77405)
(-1.14791e-15 3.35833 2.9287)
(-1.1949e-15 -2.02599 0.300197)
(-1.40827e-15 -4.39419 -0.32503)
(-1.42437e-15 -5.42124 -0.868857)
(1.40579e-16 -3.90481 2.25889)
(9.56123e-16 -1.82753 6.19398)
(1.66703e-15 -1.85496 7.51833)
(1.98039e-15 -2.44039 9.46051)
(1.75142e-15 -3.16011 11.634)
(1.2672e-15 -4.39975 13.0604)
(7.97339e-16 -5.83194 13.5405)
(4.42196e-16 -6.65691 12.69)
(1.57234e-16 -5.97055 9.8805)
(-2.61716e-17 -3.51742 5.0352)
(9.95148e-17 -0.584445 -0.0254845)
(3.17441e-16 1.40808 -1.50557)
(9.49048e-17 1.86748 -2.04459)
(-4.02376e-16 1.46709 -1.93085)
(-1.24804e-15 5.77906 4.85502)
(-1.14883e-15 4.57198 3.38962)
(-1.23413e-15 -1.04304 0.747387)
(-1.37462e-15 -3.88496 -0.189908)
(-1.53276e-15 -5.60983 -0.905857)
(-3.77149e-16 -5.58026 0.0644517)
(3.89728e-16 -3.59664 3.61904)
(8.81465e-16 -2.76993 5.39746)
(1.58684e-15 -3.47989 6.512)
(1.78551e-15 -4.303 8.44126)
(1.51937e-15 -5.04711 10.0347)
(9.16498e-16 -5.619 10.5788)
(2.66975e-16 -5.33338 9.48674)
(-1.1482e-16 -3.69704 6.44682)
(-5.63579e-18 -1.26006 2.33465)
(4.25503e-16 0.751805 0.0270526)
(3.43984e-16 2.01126 -1.39208)
(3.1252e-17 2.03216 -1.96707)
(-5.12108e-16 1.33483 -1.96994)
(-5.36558e-16 5.57707 9.46771)
(-2.79661e-15 16.0854 28.3881)
(-1.83047e-15 18.6317 31.355)
(-1.89698e-15 17.3892 28.6824)
(-2.23603e-15 15.8055 25.2716)
(-3.28427e-15 14.4842 22.493)
(-3.42641e-15 13.3476 20.2198)
(-3.62245e-15 12.4904 18.516)
(-3.7037e-15 11.7584 17.0626)
(-4.06791e-15 11.0541 15.7198)
(-4.70152e-15 10.3402 14.4222)
(-5.33784e-15 9.6051 13.1519)
(-5.96678e-15 8.84396 11.9077)
(-6.67415e-15 8.05977 10.6855)
(-7.40749e-15 7.25417 9.49345)
(-8.088e-15 6.48236 8.39767)
(-9.22349e-15 5.81738 7.58372)
(-1.07733e-14 5.38856 7.22346)
(-1.15766e-14 4.93433 7.10198)
(-1.41978e-14 3.05546 4.52371)
(-3.04605e-16 3.49811 4.72689)
(-1.33991e-15 14.3196 25.7685)
(-7.55695e-16 17.3693 30.6831)
(-9.42028e-16 16.0918 28.2836)
(-1.2133e-15 14.3917 25.0466)
(-2.08244e-15 13.0819 22.4741)
(-1.56362e-15 12.156 20.6027)
(-1.8047e-15 11.4256 19.0089)
(-1.78427e-15 10.7354 17.5384)
(-2.25124e-15 10.0535 16.0997)
(-2.65268e-15 9.35406 14.6834)
(-3.13156e-15 8.64459 13.2962)
(-3.79538e-15 7.92573 11.9538)
(-4.71882e-15 7.20975 10.6541)
(-5.59171e-15 6.46985 9.39187)
(-6.32261e-15 5.72685 8.11706)
(-7.37064e-15 4.88012 6.84042)
(-8.61814e-15 4.02244 5.43752)
(-8.91659e-15 2.65263 3.82041)
(-1.44529e-14 0.616333 -0.106977)
(1.53983e-17 2.6916 3.97895)
(-6.64278e-19 14.2015 24.9012)
(-2.85745e-17 18.5103 32.4215)
(-9.27414e-18 17.8179 30.8326)
(-6.46913e-17 16.0473 27.4609)
(-4.94341e-16 14.6705 24.6664)
(-3.38447e-16 13.6564 22.5841)
(-3.20223e-16 12.8477 20.8287)
(-4.23599e-16 12.0648 19.162)
(-4.76824e-16 11.2488 17.4761)
(-5.26336e-16 10.3818 15.7601)
(-6.2409e-16 9.47236 14.033)
(-8.86132e-16 8.52644 12.3232)
(-1.00861e-15 7.56136 10.6449)
(-1.23836e-15 6.55671 9.01229)
(-1.72073e-15 5.53624 7.38204)
(-2.23454e-15 4.37993 5.72704)
(-3.11437e-15 3.18971 3.85659)
(-4.12987e-15 1.32654 1.55639)
(-5.933e-15 -0.199638 -1.97552)
(2.29456e-18 2.66678 4.08255)
(8.81296e-17 14.7884 23.872)
(6.13957e-17 19.762 32.5298)
(5.45158e-17 19.3005 31.6871)
(8.68314e-17 17.4748 28.5262)
(1.03256e-16 16.0839 25.8781)
(-1.93874e-17 15.0762 23.9081)
(-8.67452e-17 14.2252 22.1416)
(-1.46556e-16 13.3278 20.3487)
(-2.34702e-16 12.3486 18.454)
(-3.10615e-16 11.2863 16.4807)
(-4.02469e-16 10.1625 14.4596)
(-5.82365e-16 8.98384 12.4213)
(-6.80736e-16 7.764 10.3754)
(-8.69222e-16 6.47618 8.33426)
(-1.22222e-15 5.14469 6.25301)
(-1.65951e-15 3.62353 4.12066)
(-2.74874e-15 2.0683 1.67787)
(-4.8408e-15 -0.42651 -1.17204)
(-9.92707e-15 -1.55176 -4.76019)
(1.35178e-18 8.24885 13.8746)
(-2.94705e-17 18.4509 28.6862)
(-2.94697e-17 20.7451 32.7265)
(-2.59565e-17 19.6045 31.0063)
(-4.13815e-17 17.9111 28.5243)
(6.28399e-17 16.8216 26.5668)
(1.21445e-16 15.8708 24.9446)
(1.41236e-16 14.9201 23.1761)
(1.5661e-16 13.7737 21.2112)
(1.77282e-16 12.5191 19.0739)
(2.05046e-16 11.1618 16.8519)
(2.38614e-16 9.73781 14.559)
(2.98185e-16 8.22992 12.2075)
(3.44346e-16 6.64271 9.78951)
(4.22342e-16 4.94837 7.31045)
(6.22596e-16 3.18009 4.74896)
(1.01611e-15 1.23127 2.16852)
(1.07764e-15 -0.706806 -0.9153)
(-4.96754e-16 -3.14354 -3.58472)
(-1.3043e-14 -2.99127 -7.50631)
(-4.49063e-19 13.2747 23.1974)
(7.88627e-18 20.6415 33.4273)
(9.79693e-18 18.7433 31.3299)
(8.54786e-18 16.8584 28.3275)
(1.41385e-17 15.551 26.9603)
(-2.41757e-17 14.8093 25.7774)
(-4.58972e-17 13.6546 24.3313)
(-5.23182e-17 12.3415 22.2883)
(-5.51004e-17 10.7189 19.9785)
(-5.78141e-17 9.08931 17.5337)
(-6.41202e-17 7.38657 15.0655)
(-7.89148e-17 5.65267 12.5016)
(-1.26437e-16 3.83689 9.83449)
(-2.19041e-16 1.97654 7.06124)
(-2.66506e-16 0.105515 4.23064)
(8.24868e-17 -1.6127 1.55922)
(6.39659e-16 -2.90575 -0.640139)
(-5.97006e-16 -3.92982 -2.69008)
(-4.96398e-15 -4.36879 -4.18146)
(-7.60096e-15 -2.06017 -2.59478)
(1.15361e-19 14.5087 25.9141)
(-2.37606e-18 18.1881 31.1546)
(-2.87759e-18 15.0461 27.2827)
(-3.09796e-18 14.0185 25.4102)
(-3.36145e-18 12.9364 24.5703)
(9.89242e-18 12.0245 23.3098)
(1.68674e-17 10.5872 21.6852)
(1.86764e-17 9.01179 19.5134)
(2.13045e-17 7.22622 17.1716)
(2.86397e-17 5.47651 14.7615)
(3.92996e-17 3.68712 12.3464)
(4.38786e-17 1.90913 9.89781)
(2.36143e-17 0.173906 7.49093)
(-2.5926e-17 -1.36405 5.2669)
(-3.92545e-17 -2.48523 3.47129)
(8.54815e-17 -2.86942 2.46587)
(2.65893e-16 -2.04759 2.90054)
(1.59599e-16 0.449161 5.40832)
(-2.44927e-16 3.88836 9.09963)
(-1.79263e-16 4.34182 9.27307)
(1.34883e-20 12.633 22.5795)
(7.30269e-19 16.55 29.1048)
(8.95201e-19 14.4014 26.017)
(1.02964e-18 13.1172 23.3742)
(1.64968e-19 11.7529 21.8355)
(-4.10693e-18 10.7607 20.2126)
(-6.03276e-18 9.40516 18.5639)
(-6.56636e-18 8.06814 16.529)
(-6.97353e-18 6.57173 14.3492)
(-6.98602e-18 5.12838 12.0345)
(-7.16089e-18 3.70335 9.70974)
(-1.12201e-17 2.44236 7.52007)
(-2.19429e-17 1.51274 5.80273)
(-3.16452e-17 1.21149 5.03673)
(-2.33444e-17 1.84529 5.73709)
(5.72437e-18 3.55718 8.12345)
(2.86633e-17 6.03931 11.6836)
(2.78684e-17 8.43305 15.1036)
(4.36411e-17 9.731 16.3601)
(7.60152e-17 6.81678 12.6022)
(-8.9855e-21 11.4729 20.2902)
(-1.96253e-19 17.4275 29.8582)
(-2.34385e-19 15.3853 26.9122)
(-2.77971e-19 13.913 23.2903)
(-5.4595e-20 12.4405 21.3645)
(1.10451e-18 11.7186 19.5048)
(1.57412e-18 10.6989 18.0014)
(1.59924e-18 9.93447 16.3819)
(1.62514e-18 9.09358 14.8525)
(1.66846e-18 8.37717 13.3102)
(1.59423e-18 7.70292 11.7998)
(1.34843e-18 7.13176 10.336)
(7.68574e-19 6.68214 9.00338)
(-5.07135e-19 6.44399 8.02168)
(-2.64019e-18 6.52108 7.66924)
(-5.25084e-18 6.92699 8.21358)
(-9.25597e-18 7.59394 9.51541)
(-1.55959e-17 7.97817 11.0277)
(-2.14779e-17 7.6987 11.4651)
(-1.9731e-17 5.24191 8.75624)
(1.89375e-21 11.6152 20.4647)
(4.85828e-20 18.3014 30.7505)
(5.79976e-20 16.1491 28.0961)
(6.75882e-20 14.76 24.4136)
(1.20046e-20 13.3282 22.5088)
(-2.50946e-19 12.6989 20.7045)
(-3.65947e-19 11.8289 19.2188)
(-3.51314e-19 11.1418 17.6812)
(-3.17659e-19 10.4344 16.245)
(-3.0523e-19 9.78915 14.8691)
(-2.95245e-19 9.18109 13.5499)
(-2.07741e-19 8.59621 12.2683)
(7.26726e-20 8.02537 11.0018)
(5.7068e-19 7.45484 9.75816)
(1.1267e-18 6.89919 8.60571)
(1.59229e-18 6.39368 7.68904)
(2.4472e-18 5.93649 7.14656)
(4.88973e-18 5.48659 6.85087)
(9.19908e-18 4.53485 6.28646)
(1.17456e-17 2.42602 3.08514)
(-2.43295e-22 12.4402 21.9148)
(-1.05608e-20 19.1095 31.5163)
(-1.28457e-20 16.5203 28.6877)
(-1.43477e-20 15.353 25.0939)
(-2.81221e-21 13.8853 23.365)
(5.0245e-20 13.3185 21.5549)
(7.5002e-20 12.4008 20.0778)
(6.87788e-20 11.6821 18.4879)
(5.53827e-20 10.9029 16.983)
(4.68383e-20 10.1635 15.5016)
(3.83506e-20 9.43427 14.0674)
(7.22256e-21 8.71235 12.6777)
(-6.95674e-20 7.98755 11.3278)
(-1.75519e-19 7.25246 10.0016)
(-2.4016e-19 6.47528 8.68493)
(-1.96137e-19 5.66332 7.34326)
(-9.41116e-20 4.7156 5.98558)
(-2.49936e-19 3.70723 4.47314)
(-1.39354e-18 2.04782 2.61932)
(-2.5125e-18 0.287625 -1.08094)
(1.92442e-23 13.9446 24.9247)
(2.00568e-21 19.9058 32.1886)
(2.43642e-21 16.5921 29.1234)
(2.55853e-21 16.0151 25.8376)
(4.28292e-22 14.4286 24.4025)
(-8.89249e-21 14.0394 22.5246)
(-1.31512e-20 13.0345 21.0958)
(-1.12678e-20 12.4007 19.4817)
(-7.85247e-21 11.6331 18.0012)
(-5.49474e-21 10.9298 16.4732)
(-2.62276e-21 10.1771 14.9198)
(6.19029e-21 9.36548 13.2974)
(2.44966e-20 8.46141 11.6048)
(4.43288e-20 7.46606 9.84756)
(4.3372e-20 6.36222 8.05488)
(-3.60022e-21 5.18541 6.20388)
(-1.04655e-19 3.81948 4.29043)
(-2.53426e-19 2.38173 2.07181)
(-3.22027e-19 0.0885938 -0.525796)
(-2.37964e-18 -1.2057 -4.25464)
(-4.84968e-24 15.5971 28.6273)
(-3.30433e-22 20.1782 32.1719)
(-3.64092e-22 16.325 29.4713)
(-3.33636e-22 16.5798 26.6748)
(1.49904e-23 14.7163 25.5703)
(1.33109e-21 14.6159 23.6435)
(1.6672e-21 13.4627 22.3928)
(1.01934e-21 13.0256 20.8414)
(4.65831e-22 12.2676 19.513)
(6.03412e-22 11.6491 18.0042)
(8.74039e-22 10.8323 16.3443)
(-1.26516e-22 9.85133 14.4049)
(-2.8887e-21 8.65587 12.2465)
(-5.06058e-21 7.31153 9.93699)
(-1.92207e-21 5.82186 7.55082)
(1.06184e-20 4.24876 5.08781)
(3.70007e-20 2.45683 2.61987)
(6.25281e-20 0.735861 -0.118467)
(5.07403e-20 -1.92443 -3.00423)
(-1.07312e-18 -2.59208 -6.73234)
(2.89591e-24 16.5301 31.2412)
(4.63523e-23 19.4446 30.9146)
(4.29757e-23 15.6546 29.4098)
(3.75332e-23 16.4487 26.9344)
(-5.37415e-23 14.1939 26.0567)
(-3.77941e-22 14.2794 24.1269)
(-5.81077e-22 12.8667 23.1245)
(-4.20504e-22 12.5514 21.693)
(3.46744e-22 11.6151 20.5665)
(1.65829e-21 10.8963 19.0089)
(2.81398e-21 9.68349 17.0611)
(3.17593e-21 8.21869 14.5398)
(3.46229e-21 6.49214 11.7594)
(4.9648e-21 4.71083 8.8608)
(5.96555e-21 2.84977 5.85696)
(3.36168e-21 0.863405 2.80612)
(1.59456e-20 -1.25883 -0.158291)
(9.69301e-20 -1.60996 -2.17108)
(8.14443e-20 -4.37513 -5.1027)
(-4.36599e-19 -3.72468 -7.87414)
(-1.45829e-24 16.2581 31.3488)
(-2.70545e-24 18.3121 29.1772)
(9.8659e-24 14.9109 28.5538)
(1.71511e-23 15.5798 26.0716)
(-2.41818e-23 13.2948 25.1638)
(-1.76079e-22 13.1528 23.3033)
(-3.97917e-22 11.7193 22.2698)
(-3.0809e-22 11.1679 20.9095)
(5.30259e-22 10.0913 19.7393)
(1.79572e-21 9.0782 18.0864)
(2.15845e-21 7.5787 15.9156)
(1.0994e-21 5.91986 13.2629)
(1.06057e-21 4.23015 10.5767)
(5.34332e-21 2.59728 7.8487)
(1.4066e-20 0.918741 4.98726)
(2.76186e-20 -0.679956 2.31084)
(5.03802e-20 -2.38008 -0.515749)
(6.40562e-20 -4.01072 -3.51911)
(1.26999e-20 -4.09248 -4.21365)
(-9.28558e-20 -1.32483 -1.10848)
(2.71099e-25 15.423 30.3024)
(-1.61392e-25 18.0067 28.1477)
(2.72828e-24 14.199 27.503)
(4.95131e-24 15.1033 24.7919)
(-2.92182e-23 12.6712 23.8744)
(-1.48868e-22 12.5079 21.8797)
(-3.24473e-22 11.041 20.6877)
(-3.51736e-22 10.3509 19.1966)
(2.97882e-23 9.26294 17.9133)
(6.31193e-22 8.2635 16.3733)
(6.40513e-22 7.04458 14.5849)
(-2.87576e-22 5.84049 12.6012)
(-5.66516e-22 4.72689 10.6532)
(3.71795e-21 3.64188 8.58617)
(1.82889e-20 2.36424 6.02719)
(4.55311e-20 1.04363 3.26925)
(7.25428e-20 0.474619 1.82758)
(7.78279e-20 1.57095 2.93646)
(7.30645e-20 3.84696 5.89318)
(7.43931e-20 3.64822 7.18016)
(-1.51002e-25 14.8955 30.2421)
(9.43064e-25 18.2462 27.5764)
(4.61286e-24 13.8612 27.2005)
(5.82337e-24 15.2194 24.3239)
(-1.76785e-23 12.7584 23.414)
(-9.87528e-23 12.7052 21.3662)
(-2.48186e-22 11.3802 20.0538)
(-4.24137e-22 10.7741 18.4548)
(-5.25344e-22 9.87788 17.0917)
(-4.53607e-22 9.17903 15.7119)
(-2.30343e-22 8.46045 14.4038)
(-5.65313e-23 7.81656 13.0781)
(-1.83381e-22 7.18536 11.7293)
(-6.64316e-22 6.5743 10.3248)
(-1.20483e-21 5.91996 8.81412)
(-7.903e-22 5.20392 7.00437)
(2.15358e-21 4.10916 4.68737)
(7.50544e-21 3.3796 3.17679)
(4.52724e-20 1.96666 1.37758)
(8.25727e-20 1.03954 0.238258)
(-4.70712e-27 14.0697 30.5372)
(4.50341e-25 18.2453 27.4604)
(2.68372e-24 13.3857 27.3884)
(2.15599e-24 14.5212 24.8777)
(-1.9173e-23 12.3858 23.9156)
(-8.61299e-23 12.0354 22.2162)
(-2.03888e-22 10.9558 20.9433)
(-3.34847e-22 10.3082 19.5482)
(-4.03764e-22 9.57255 18.2786)
(-3.50824e-22 8.96457 17.0231)
(-1.91978e-22 8.37538 15.8065)
(-4.31197e-23 7.8198 14.5702)
(-5.71541e-23 7.25461 13.2764)
(-2.08904e-22 6.64872 11.8609)
(8.35649e-23 5.89667 10.1653)
(1.96716e-21 4.78465 7.83923)
(7.02917e-21 3.0794 4.59481)
(4.72959e-21 0.809401 0.17906)
(1.92226e-20 -1.53714 -2.93046)
(7.17601e-20 -1.72542 -5.02168)
(1.21992e-26 11.2374 28.6421)
(3.27173e-25 17.1307 25.1233)
(1.16507e-24 12.0982 25.5098)
(2.92733e-25 12.77 23.7936)
(-1.13938e-23 11.0462 23.0431)
(-4.7687e-23 10.4015 21.9508)
(-1.12765e-22 9.43247 21.03)
(-1.84376e-22 8.68532 20.0754)
(-2.16017e-22 7.94561 19.1578)
(-1.76663e-22 7.28567 18.2409)
(-1.00072e-22 6.66626 17.3231)
(-8.29641e-23 6.08921 16.3859)
(-1.80932e-22 5.53779 15.4068)
(-1.77006e-22 4.97836 14.3144)
(7.85211e-22 4.30571 12.9079)
(4.44136e-21 3.29445 10.771)
(1.25e-20 1.70276 7.35426)
(2.37485e-20 -0.443532 2.56113)
(3.20849e-20 -2.45825 -2.23945)
(3.18009e-20 -2.21014 -4.10864)
(1.44779e-26 2.62936 17.0801)
(5.59643e-26 8.04252 13.7294)
(-9.33026e-28 5.17477 14.5819)
(-3.66275e-25 4.96925 14.202)
(-1.4647e-24 4.0428 14.1716)
(-4.29721e-24 3.46955 14.0095)
(-1.04413e-23 2.88685 13.8626)
(-2.06948e-23 2.40621 13.6802)
(-3.21529e-23 1.98519 13.4748)
(-3.68475e-23 1.63612 13.2424)
(-2.70398e-23 1.35705 12.9877)
(-8.31077e-24 1.15238 12.7139)
(-1.40309e-23 1.02382 12.4263)
(-1.12523e-22 0.98406 12.1288)
(-3.91451e-22 1.0553 11.8233)
(-8.79081e-22 1.21238 11.523)
(-1.38775e-21 1.49749 11.1362)
(-1.47844e-21 2.21465 10.2526)
(-9.19788e-22 2.51302 8.77464)
(-2.29441e-22 -0.165199 6.57574)
(-1.64705e-26 -2.62937 17.0801)
(-6.35537e-26 -8.04253 13.7295)
(1.31614e-27 -5.17477 14.582)
(4.00298e-25 -4.96923 14.202)
(1.58371e-24 -4.04277 14.1716)
(4.6308e-24 -3.4695 14.0095)
(1.12738e-23 -2.88677 13.8627)
(2.24554e-23 -2.4061 13.6803)
(3.51809e-23 -1.98506 13.4748)
(4.10116e-23 -1.63598 13.2425)
(3.15489e-23 -1.35691 12.9879)
(1.19803e-23 -1.15224 12.7141)
(1.59349e-23 -1.02367 12.4265)
(1.13085e-22 -0.983923 12.1291)
(3.94108e-22 -1.0552 11.8238)
(8.90871e-22 -1.21239 11.5237)
(1.41466e-21 -1.49766 11.137)
(1.51548e-21 -2.215 10.2531)
(9.49492e-22 -2.51348 8.77502)
(2.40582e-22 0.165065 6.57638)
(-1.43793e-26 -11.2375 28.6422)
(-3.33686e-25 -17.1306 25.1235)
(-1.23235e-24 -12.0983 25.51)
(-3.00449e-25 -12.77 23.7939)
(1.22886e-23 -11.0461 23.0434)
(5.14342e-23 -10.4014 21.9512)
(1.21736e-22 -9.43232 21.0305)
(1.9953e-22 -8.68509 20.0759)
(2.35298e-22 -7.94529 19.1583)
(1.95676e-22 -7.28524 18.2413)
(1.14847e-22 -6.66573 17.3236)
(9.24692e-23 -6.08862 16.3864)
(1.87292e-22 -5.53716 15.4073)
(1.81908e-22 -4.97762 14.3149)
(-7.94471e-22 -4.30459 12.9078)
(-4.5242e-21 -3.29249 10.7694)
(-1.27934e-20 -1.69956 7.35062)
(-2.44271e-20 0.447159 2.55673)
(-3.32074e-20 2.46037 -2.24154)
(-3.32204e-20 2.20982 -4.1074)
(1.24412e-26 -14.0701 30.5379)
(-5.60045e-25 -18.2457 27.4612)
(-3.01139e-24 -13.3862 27.3892)
(-2.40127e-24 -14.5217 24.8786)
(2.0793e-23 -12.3864 23.9165)
(9.33297e-23 -12.0361 22.2172)
(2.20688e-22 -10.9565 20.9445)
(3.62634e-22 -10.309 19.5494)
(4.38788e-22 -9.57348 18.2799)
(3.85214e-22 -8.96557 17.0243)
(2.17639e-22 -8.37639 15.8075)
(5.55216e-23 -7.82076 14.5711)
(5.72098e-23 -7.25552 13.2774)
(2.02581e-22 -6.64953 11.8619)
(-9.48703e-23 -5.8973 10.1659)
(-1.99945e-21 -4.78456 7.839)
(-7.16377e-21 -3.07939 4.59496)
(-4.52477e-21 -0.808982 0.17738)
(-1.9755e-20 1.54208 -2.93674)
(-7.5322e-20 1.72973 -5.03034)
(1.20745e-25 -14.8955 30.2427)
(-7.51689e-25 -18.2471 27.5764)
(-4.51005e-24 -13.8614 27.201)