/*--------------------------------*- C++ -*----------------------------------*\
| =========                 |                                                 |
| \\      /  F ield         | OpenFOAM: The Open Source CFD Toolbox           |
|  \\    /   O peration     | Version:  4.1                                   |
|   \\  /    A nd           | Web:      www.OpenFOAM.org                      |
|    \\/     M anipulation  |                                                 |
\*---------------------------------------------------------------------------*/
FoamFile
{
    version     2.0;
    format      ascii;
    class       volScalarField;
    location    "2";
    object      p;
}
// * * * * * * * * * * * * * * * * * * * * * * * * * * * * * * * * * * * * * //

dimensions      [0 2 -2 0 0 0 0];

internalField   nonuniform List<scalar> 
1280
(
-194.656
-8.34177
-55.6718
-267.249
40.2117
-99.9619
-280.269
-267.002
-55.2035
-123.727
-428.392
-75.3224
-178.045
-577.407
-114.27
-268.622
-763.404
-357.189
311.906
-4411.45
-3590.83
-3008.11
-3010.92
-3167.54
-3352.79
-3063.29
-3159.1
-2190.58
-2057.36
-2029.9
-1926.67
-1887.04
-1783.7
-1697.34
-1571.66
-1467.83
-1397.08
-1233.57
-1302.27
-1014.4
-1306.92
-1571.74
-1489.94
-1475.7
-1790.13
-1473.25
-1404.27
-1319.22
-1515.56
-1269.8
-1236.36
-1418.04
-1121.53
-1136.73
-1125.02
-1432.55
-1010.25
-1020.78
-1104.24
-866.527
-745.045
-1080
-1056.38
-1255.06
-1359.45
-1494.29
-1647.88
-1778.82
-1940.6
-2064.36
-2212.9
-2266.98
-2410.97
-3721.01
-4976.72
-5857.75
-6384.04
-6957.4
-7483.98
-8357.02
-9707.81
747.19
159.792
-179.888
123.008
170.279
-186.386
105.826
168.922
-130.132
90.1509
135.558
-52.0089
-85.7504
39.2249
146.592
-122.47
19.7857
56.8093
-117.588
0.23765
0.814399
1.19024
1.66342
2.06145
2.4576
2.94692
4.04699
6.25054
6.07787
-5.40554
-14.8526
76.9792
-276.907
-170.179
-399.115
-98.3357
108.884
188.299
0.544842
2.02137
2.8983
3.93314
4.58631
4.97749
5.2757
6.97787
12.0264
9.86792
-30.3488
-77.5951
134.388
542.606
-487.569
-652.064
-148.288
170.105
283.96
0.79684
3.27585
4.79111
6.57076
7.69783
8.31599
8.60234
11.2542
21.7266
23.2985
-45.8837
-143.647
-321.366
409.455
-703.516
-631.725
-124.239
280.429
411.065
0.968765
4.35369
6.33545
8.66698
9.98678
10.3361
9.6179
11.6352
28.9482
43.078
-19.5033
-147.514
-216.062
313.037
-554.002
-571.975
-143.046
360.993
511.982
1.08539
5.3938
7.79513
10.6646
12.1404
12.0373
9.51707
8.44498
31.5985
35.2277
14310.5
301.432
310.259
202.956
-561.759
-510.939
202.275
602.878
689.887
1.13983
6.3397
9.04521
12.3604
13.8707
13.0184
7.40354
-3.92058
-68.3583
-12344.1
3043.16
2024.85
666.477
13.6232
-616.78
-213.85
276.239
558.438
674.524
1.14198
7.21081
10.1358
13.8473
15.3694
13.6949
4.11375
-25.6308
-145.904
-383.718
-124.098
1257.27
537.862
-409.127
-868.315
149.569
607.302
1244.26
953.008
1.08673
7.9501
10.9968
15.0289
16.5551
14.2215
1.94471
-33.5088
-140.532
-287.467
-37.3235
740.924
407.454
-522.647
-702.867
611.635
1376.6
1816.96
-766.659
1.01091
8.54552
11.6532
15.9514
17.5593
14.9323
1.06377
-39.1993
-134.188
-186.762
48.1755
570.087
406.388
-480.659
-456.619
847.932
1588.82
2405.83
-996.841
0.916908
8.84485
11.9496
16.3814
18.0527
15.396
1.38765
-37.6368
-117.668
-156.897
62.5945
580.614
444.257
-425.32
-235.084
942.609
1483.73
2285.3
-660.13
0.920266
8.8577
11.9838
16.4672
18.2692
15.9553
2.85919
-33.9156
-110.015
-158.781
1.38304
493.128
855.936
-394.028
-261.368
884.399
1450.22
2381.45
-541.12
1.0207
8.5833
11.7538
16.203
18.1922
16.5623
5.3568
-28.2951
-110.961
-191.2
-62.2952
194.739
330.344
-342.023
-452.919
720.124
1463.51
2575.6
-1018.95
1.10189
8.00927
11.1545
15.4221
17.537
16.7223
8.443
-17.8985
-106.868
-217.268
-80.6843
226.955
421.944
-412.944
-657.947
513.946
1251.93
1762.02
-912.352
1.16089
7.28525
10.3343
14.34
16.59
16.7995
12.6602
2.89232
-45.6333
-390.741
43.0923
514.794
544.872
-298.349
-756.925
91.9843
348.236
824.411
1236.98
1.16045
6.42148
9.2634
12.8983
15.1801
16.2121
15.2942
16.1691
38.7372
80.7494
2787.58
1352.33
647.95
71.6207
-557.114
-240.73
-56.7006
265.087
438.596
1.10556
5.47441
8.01046
11.1916
13.3986
14.9741
16.0522
21.0004
44.9499
99.4116
123.888
384.247
421.43
131.367
-604.601
-547.069
-160.83
236.661
503.733
0.986473
4.42503
6.52644
9.13154
11.0776
12.7969
14.7583
20.6009
39.2948
70.9626
63.16
175.892
296.824
126.375
-699.478
-616.233
-291.412
120.642
336.055
0.810429
3.33111
4.93966
6.9306
8.53232
10.154
12.3061
17.6063
31.0876
51.3045
55.7895
127.505
205.658
56.2066
-693.538
-547.003
-310.682
72.7317
248.847
0.553195
2.0558
2.99136
4.15819
5.10418
6.10148
7.49888
10.8172
18.5552
29.6842
36.0639
75.5792
111.978
33.8796
-438.911
-515.989
-267.56
29.3647
162.106
0.240409
0.825896
1.22151
1.73908
2.23499
2.83172
3.68118
5.32481
8.56444
13.0875
16.7632
28.8353
31.2121
-10.6716
-158.002
-348.699
-157.495
28.3575
131.76
1223.59
1145.31
1129.97
1086.55
1115.57
1080.55
1048.36
997.033
1002.63
977.886
999.542
982.757
1029.97
1016.05
1086.24
1079.31
1154.64
1177.75
1226.64
1306.17
703.196
689.338
702.086
683.855
701.667
677.528
697.884
672.355
682.421
659.014
670.489
644.276
664.978
633.162
664.345
631.745
665.269
644.754
667.523
669.239
1005.55
979.31
1005.98
973.065
992.913
963.85
979.346
955.209
965.584
945.346
954.66
932.984
947.087
919.936
940.145
909.845
929.974
905.367
915.387
901.007
872.502
844.167
885.123
852.383
880.872
854.671
878.21
857.76
873.4
859.187
870.586
857.257
870.297
853.801
870.465
852.081
868.529
854.464
863.828
858.352
956.425
914.7
966.641
924.206
952.758
924.179
946.109
924.934
938.478
925.1
933.167
922.566
930.466
918.53
928.495
915.38
925.177
914.752
920.127
914.976
925.431
875.74
945.965
896.439
928.284
901.483
923.443
905.49
918.259
908.847
915.211
909.744
914.513
909.205
914.745
908.93
914.509
909.957
913.559
911.678
949.728
885.624
978.449
916.525
949.101
921.56
940.668
923.241
933.047
924.889
927.889
924.695
925.212
923.433
923.859
922.181
922.886
921.467
922.2
921.077
947.274
862.141
989.648
910.18
947.963
917.442
939.465
919.18
929.773
921.459
923.445
921.616
920.185
920.658
918.645
919.527
917.901
918.639
917.704
917.775
924.678
802.82
960.328
864.593
920.618
872.526
918.07
885.79
907.219
896.659
902.44
901.74
901.863
904.01
902.962
905.381
904.457
906.727
905.959
907.969
863.59
721.665
841.101
762.46
857.677
757.341
853.367
797.204
839.934
825.681
839.588
841.09
845.873
850.577
853.302
857.784
859.771
864.008
864.893
869.088
815.719
660.716
745.739
664.195
815.744
667.811
804.973
727.807
784.445
767.349
785.017
788.07
795.209
801.651
806.534
812.741
816.176
822.146
823.562
828.906
725.109
610.7
717.58
602.281
777.304
631.396
758.323
692.978
740.599
730.43
745.074
751.225
758.662
767.37
773.369
782.322
786.718
795.637
797.695
805.289
494.407
481.314
602.32
465.554
630.45
532.158
614.85
589.73
619.251
626.142
640.479
654.906
667.405
683.397
695.436
712.288
722.42
739.615
745.555
761.536
-51.2651
-28.458
147.988
32.8545
186.123
147.807
215.023
232.88
267.625
299.581
330.069
363.854
394.761
429.637
460.13
496.263
523.596
561.293
579.103
619.514
-1286.04
-1268.6
-990.097
-1121.91
-893
-906.236
-788.749
-727.85
-649.102
-573.378
-499.859
-424.608
-353.246
-279.928
-213.087
-142.109
-84.4469
-14.015
23.1096
103.403
-2876.28
-2990.24
-2655.58
-2899.92
-2577.87
-2662.4
-2484.59
-2425.05
-2303.14
-2191.59
-2068.08
-1938.37
-1805.81
-1666.87
-1532.71
-1392.2
-1269.7
-1133.95
-1046.81
-922.06
-3111.43
-3369.04
-3075.48
-3510.65
-3254.72
-3524.01
-3440.15
-3532.16
-3507.17
-3504.42
-3458.74
-3395.16
-3306.32
-3191.13
-3061.7
-2903.43
-2752.85
-2559.59
-2419.98
-2218.82
-4282.87
-4670.73
-4062.68
-4587.58
-4337.92
-4621.77
-4634.36
-4817.13
-4923.09
-5073.29
-5199.62
-5328.65
-5439.98
-5530.25
-5602.04
-5647.09
-5684.61
-5596.74
-5467.86
-5133.3
-5226.81
-6904.6
-6173.28
-7136.14
-7234.79
-7774.51
-8102.32
-8491.2
-8809.54
-9095.7
-9324.32
-9493.74
-9596.41
-9628.76
-9585.49
-9464.27
-9268.91
-9011.19
-8776.7
-8473.83
48259.1
41711.7
38237
33880.5
30250.5
26662
23364.6
20234.4
17297.7
14523.2
11904
9425.52
7075.15
4836.17
2708.11
646.408
-1424.13
-3084.44
-4630.77
-7476.81
49426.7
42879.5
39404.8
35048.3
31418.3
27829.7
24532.3
21401.9
18465
15690.3
13070.8
10592.1
8241.42
6002.17
3873.88
1811.98
-258.337
-1917.39
-3463.37
-6310.37
-4055.29
-5733.25
-5002.02
-5965.01
-6063.86
-6603.68
-6931.74
-7320.8
-7639.43
-7925.89
-8154.87
-8324.74
-8427.98
-8461.01
-8418.46
-8298.02
-8103.38
-7846.27
-7612.51
-7309.78
-3124.91
-3512.73
-2904.26
-3428.81
-3178.72
-3462.56
-3474.92
-3657.84
-3763.92
-3914.5
-4041.38
-4171.08
-4282.98
-4373.69
-4445.9
-4491.22
-4528.49
-4439.25
-4309.07
-3972.59
-1923.89
-2180.82
-1884.25
-2318.94
-2061.09
-2329.76
-2244.96
-2336.53
-2311.43
-2308.68
-2263.28
-2200.02
-2111.6
-1996.75
-1867.48
-1709.24
-1558.45
-1364.56
-1224.28
-1021.38
-1648.94
-1766.58
-1433.74
-1676.53
-1360.26
-1444.25
-1272
-1214.87
-1097.46
-989.756
-870.245
-744.354
-615.292
-479.587
-348.104
-210.014
-89.1807
45.3717
131.168
256.344
-68.8957
-61.5094
249.752
98.3612
346.691
322.429
439.498
494.873
568.078
638.324
705.887
775.408
841.276
909.134
971.313
1037.24
1091.6
1157.6
1191.84
1268.33
1600.94
1626.79
1804.23
1668.77
1779.46
1711.56
1722.37
1691.07
1674.49
1657.76
1644.5
1638.31
1632.97
1634.82
1636.15
1644.37
1649.37
1661.79
1663.41
1676.32
2306.8
2255.21
2261.23
2054.42
1936.55
1763.99
1645.84
1545.49
1485.77
1442.74
1415.63
1395.52
1377.91
1366.22
1353.44
1344.79
1334.23
1323.52
1312.85
1290.52
1425.37
1361.77
1310.81
1209.77
1142.15
1070.53
1021
984.698
966.022
962.28
972.952
983.378
993.007
1001.13
1005.08
1008.05
1008.14
1004.2
1002.21
987.399
1000.87
974.086
996.024
976.23
988.459
985.218
986.2
986.506
983.499
981.574
981.604
978.026
976.359
973.771
970.034
966.438
963.069
957.04
955.742
946.127
822.388
799.684
847.027
833.79
857.466
856.931
860.453
860.633
861.317
866.861
878.976
873.582
867.55
863.321
857.114
852.209
847.23
839.785
837.439
826.057
686.248
656.787
713.92
695.801
716.412
708.736
707.659
701.163
694.889
489.769
665.428
748.345
740.41
737.381
730.824
727.113
721.6
715.011
712.387
701.501
628.844
590.523
653.732
632.528
655.363
650.345
655.549
643.313
677.248
-3116.16
633.393
649.204
642.871
640.319
635.036
632.093
627.632
622.504
620.518
612.043
593.3
546.242
610.183
583.81
604.39
597.866
603.861
597.952
601.981
577.488
576.793
572.956
572.591
569.461
568.298
564.506
563.521
558.563
558.391
551.877
524.962
475.38
537.98
509.596
528.471
519.362
528.927
517.44
526.996
516.498
521.829
515.014
518.816
512.163
516.335
508.909
513.032
506.17
508.752
503.4
536.787
486.735
542.793
513.045
529.804
514.466
528.723
510.743
521.292
507.033
514.455
502.679
509.789
496.795
505.738
491.483
500.126
488.215
492.566
485.138
426.778
387.565
435.638
410.232
430.059
415.057
433.176
416.79
431.925
418.178
430.15
416.909
430.184
413.604
430.128
411.373
427.282
412.398
420.828
413.796
571.69
533.763
567.034
537.796
550.393
527.329
538.709
516.268
526.359
506.38
516.258
494.807
509.269
482.073
502.19
471.358
490.733
464.911
473.184
456.561
202.265
192.111
211.395
192.483
216.862
200.764
225.02
207.771
224.365
206.787
223.773
202.058
226.777
197.811
231.245
199.777
233.58
212.304
232.69
231.317
648.079
553.609
568.152
537.282
579.927
604.94
616.457
588.702
608.27
594.752
626.956
619.936
676.023
668.212
743.607
739.747
817.255
840.928
887.988
965.356
)
;

boundaryField
{
    outletWall
    {
        type            fixedValue;
        value           uniform 0;
    }
    fineWalls
    {
        type            zeroGradient;
    }
    fineFrontAndBack
    {
        type            zeroGradient;
    }
    fineplugLeft
    {
        type            cyclicAMI;
        value           nonuniform List<scalar> 
20
(
842.054
720.86
695.487
644.3
569.885
554.657
473.372
467.235
408.798
414.299
376.328
390.632
359.51
569.938
251.782
221.901
235.736
301.795
314.624
260.705
)
;
    }
    fineplugRight
    {
        type            cyclicAMI;
        value           nonuniform List<scalar> 
20
(
623.276
494.39
461.466
402.793
319.908
296.027
204.994
185.055
107.83
88.6929
33.2218
33.2194
-11.232
123.253
-511.393
-707.608
-846.983
-936.96
-1053.91
-1152.94
)
;
    }
    inletOutletLeft
    {
        type            cyclicAMI;
        value           nonuniform List<scalar> 
20
(
842.054
720.86
695.487
644.3
569.885
554.657
473.372
467.235
408.798
414.299
376.328
390.632
359.51
569.938
251.782
221.901
235.736
301.795
314.624
260.705
)
;
    }
    inletLeft
    {
        type            zeroGradient;
    }
    inletWallsLeft
    {
        type            zeroGradient;
    }
    inletFacesLeft
    {
        type            zeroGradient;
    }
    inletOutletRight
    {
        type            cyclicAMI;
        value           nonuniform List<scalar> 
20
(
623.276
494.39
461.466
402.793
319.908
296.027
204.994
185.055
107.83
88.6929
33.2218
33.2194
-11.232
123.253
-511.393
-707.608
-846.983
-936.96
-1053.91
-1152.94
)
;
    }
    inletRight
    {
        type            zeroGradient;
    }
    inletWallsRight
    {
        type            zeroGradient;
    }
    inletFacesRight
    {
        type            zeroGradient;
    }
}


// ************************************************************************* //
