/*--------------------------------*- C++ -*----------------------------------*\
| =========                 |                                                 |
| \\      /  F ield         | OpenFOAM: The Open Source CFD Toolbox           |
|  \\    /   O peration     | Version:  4.1                                   |
|   \\  /    A nd           | Web:      www.OpenFOAM.org                      |
|    \\/     M anipulation  |                                                 |
\*---------------------------------------------------------------------------*/
FoamFile
{
    version     2.0;
    format      ascii;
    class       volVectorField;
    location    "2";
    object      U;
}
// * * * * * * * * * * * * * * * * * * * * * * * * * * * * * * * * * * * * * //

dimensions      [0 1 -1 0 0 0 0];

internalField   nonuniform List<vector> 
1280
(
(-1.39425e-17 21.3478 0.27282)
(-8.20054e-18 26.1032 -2.5818)
(-1.36519e-16 23.0959 -2.35252)
(-1.49373e-16 23.7945 -1.83696)
(-1.41214e-16 29.5234 -5.11309)
(8.56445e-17 24.5693 -4.1048)
(2.58362e-16 27.8363 -3.28683)
(-1.1122e-15 25.9515 -1.75355)
(3.49096e-16 32.082 -5.73666)
(1.56132e-15 28.3022 -5.19561)
(2.6652e-15 29.7521 -3.72096)
(-3.62819e-15 35.214 -8.90943)
(-1.97094e-15 31.5027 -7.0273)
(3.40405e-15 33.3562 -4.90859)
(1.87264e-16 39.556 -11.3766)
(-1.05887e-14 35.394 -9.27383)
(-2.01281e-14 38.3579 -7.3802)
(-4.39003e-14 39.8968 -11.2147)
(-4.36363e-14 41.1275 -8.72053)
(-4.18854e-14 37.5821 -15.7472)
(-4.34802e-14 41.3253 12.787)
(-5.56527e-14 41.8526 34.2999)
(-7.06451e-14 40.886 61.6848)
(-8.03439e-14 38.3 95.0343)
(-8.54861e-14 33.7892 126.042)
(-9.38818e-14 31.7289 143.409)
(-1.2113e-13 18.9668 162.028)
(-1.38936e-13 37.2686 163.021)
(-1.4429e-13 36.1542 161.727)
(-1.49305e-13 35.6246 159.62)
(-1.52589e-13 35.2308 156.588)
(-1.52329e-13 33.9833 153.632)
(-1.53084e-13 34.5081 149.789)
(-1.50711e-13 32.9505 147.438)
(-1.49434e-13 34.2976 143.698)
(-1.46075e-13 32.6387 143.337)
(-1.39407e-13 34.1235 140.445)
(-1.15628e-13 33.2566 143.418)
(-1.40488e-13 33.2247 136.344)
(-9.09158e-14 34.399 146.439)
(-5.6826e-14 17.5527 108.622)
(-5.06868e-15 6.15424 28.7664)
(-9.17472e-15 -0.0786307 6.03635)
(-2.48591e-14 1.82358 -5.78713)
(-4.49218e-14 -4.44876 -19.6049)
(1.69716e-16 -5.68514 -12.1658)
(1.24442e-14 -4.34614 -12.7408)
(1.39144e-14 -2.14101 -14.8668)
(9.80939e-15 -1.4597 -23.0992)
(9.63073e-15 0.094464 -14.7198)
(1.72615e-15 2.1294 -14.2955)
(-1.46274e-14 3.09521 -21.5371)
(-8.5368e-15 3.51258 -15.415)
(-5.8777e-15 5.90463 -13.6898)
(-3.90129e-15 7.25879 -12.4215)
(-6.84306e-15 5.71334 -15.8249)
(-1.10856e-14 -1.59088 -10.9621)
(-8.34574e-15 1.27173 -4.10308)
(-5.12681e-16 -2.75377 15)
(6.14105e-14 -14.8516 103.331)
(9.88912e-14 -32.8987 146.543)
(1.38864e-13 -31.5669 136.363)
(1.22463e-13 -31.658 143.472)
(1.36841e-13 -32.5066 140.558)
(1.4195e-13 -31.0423 143.549)
(1.49464e-13 -32.7033 143.986)
(1.55143e-13 -31.3209 147.827)
(1.5801e-13 -32.9265 150.324)
(1.53286e-13 -32.4014 154.626)
(1.47754e-13 -33.7559 157.864)
(1.44592e-13 -34.1583 160.84)
(1.44181e-13 -34.7388 162.629)
(1.40203e-13 -35.6817 163.386)
(1.28836e-13 -13.5746 160.195)
(9.78524e-14 -30.9227 141.212)
(8.0162e-14 -32.9031 123.038)
(7.65103e-14 -37.3917 91.4492)
(6.00092e-14 -39.9886 57.6577)
(2.99279e-14 -40.9267 29.7697)
(-5.44568e-15 -40.3056 7.70448)
(-3.05864e-14 -36.0531 -15.8785)
(-2.94219e-14 -40.5036 -10.0437)
(-3.17075e-14 -33.4069 -14.2857)
(-2.29583e-14 -32.8175 -6.04814)
(-2.40071e-14 -30.0002 -8.38891)
(-2.73412e-14 -34.1253 -10.1642)
(-1.55159e-14 -29.3806 -4.83257)
(-9.0436e-15 -27.5495 -6.60493)
(-1.01177e-15 -30.8823 -7.8425)
(1.21815e-15 -26.4013 -3.36265)
(2.2436e-15 -25.0441 -4.74291)
(3.55662e-15 -28.2507 -5.43666)
(2.3562e-15 -22.9771 -1.56816)
(2.47142e-15 -24.5927 -2.88989)
(1.32027e-15 -21.7378 -3.83139)
(-9.85653e-17 -25.6953 -5.02229)
(-6.24822e-16 -20.9234 -1.7678)
(-9.59898e-16 -20.216 -2.34452)
(-1.06492e-15 -22.475 -2.73293)
(-2.78504e-16 -18.5208 0.219526)
(1.48322e-18 1.75866 1.8026)
(4.29567e-18 3.01674 1.9737)
(6.75302e-18 3.86662 2.2353)
(6.52148e-18 4.81654 2.60708)
(3.43796e-18 5.82499 3.0762)
(4.4991e-18 6.96326 3.66297)
(1.63663e-17 8.26027 4.38159)
(3.32326e-17 9.77349 5.25826)
(4.31695e-17 11.5571 6.31755)
(4.42031e-17 13.5921 7.6033)
(4.33811e-17 15.8329 9.21762)
(4.08907e-17 18.7384 11.1203)
(1.67322e-17 23.6539 11.3499)
(-5.78691e-17 24.8382 9.96101)
(-7.98066e-17 8.9509 2.8264)
(-3.86805e-17 -20.088 -7.12873)
(-1.76688e-17 -29.4081 -9.88992)
(-6.07626e-18 -30.0661 -7.12604)
(-3.01574e-17 -21.3472 -8.48246)
(5.20687e-18 1.70323 2.67287)
(1.7882e-17 2.8742 2.9249)
(3.14052e-17 3.64948 3.30268)
(3.59844e-17 4.52963 3.84105)
(2.58223e-17 5.46401 4.51234)
(2.30432e-17 6.51779 5.34915)
(6.17263e-17 7.71528 6.37026)
(1.36795e-16 9.10799 7.61408)
(2.01212e-16 10.7517 9.10359)
(2.26149e-16 12.616 10.9088)
(2.23022e-16 14.6864 13.3064)
(1.88126e-16 17.8831 16.4047)
(1.80618e-17 25.6806 16.779)
(-2.53429e-16 26.9113 15.5913)
(-4.40291e-16 16.49 11.9533)
(-8.91158e-17 -17.4885 -5.11649)
(-2.82954e-17 -29.5673 -8.08611)
(-3.57265e-17 -30.0069 -4.88183)
(-8.38066e-17 -21.8257 -7.62209)
(9.95564e-18 1.64659 3.20701)
(3.73194e-17 2.75695 3.53055)
(6.72967e-17 3.47417 3.98442)
(7.91952e-17 4.30353 4.63188)
(5.82462e-17 5.18255 5.43151)
(4.66048e-17 6.17292 6.42566)
(1.18825e-16 7.29364 7.63606)
(2.75423e-16 8.59064 9.11109)
(4.21018e-16 10.132 10.8632)
(4.85045e-16 11.8645 12.9741)
(4.75125e-16 13.8023 15.9478)
(3.49931e-16 17.1315 19.7571)
(-1.41466e-16 25.579 24.2615)
(-8.48581e-16 27.2481 25.5404)
(-1.46337e-15 17.8823 29.5319)
(-2.42502e-16 -14.2216 7.43683)
(-9.70893e-17 -29.1743 -6.20975)
(1.71765e-16 -30.7835 -1.56602)
(-1.75173e-16 -22.0372 -6.84559)
(8.29915e-18 1.56112 3.77284)
(4.6236e-17 2.58113 4.20999)
(9.45504e-17 3.21605 4.76358)
(1.19317e-16 3.97102 5.5488)
(8.64796e-17 4.76933 6.50702)
(4.53438e-17 5.66777 7.69214)
(1.19529e-16 6.67752 9.12766)
(3.44074e-16 7.82855 10.8769)
(5.91831e-16 9.19514 12.9529)
(7.34826e-16 10.4967 15.5422)
(7.44963e-16 11.4271 19.7635)
(4.54344e-16 14.7893 25.7532)
(-7.76939e-16 21.6114 36.298)
(-2.47819e-15 25.3203 45.3977)
(-4.44478e-15 22.3259 62.7225)
(-1.79363e-15 -2.99111 37.1825)
(7.52686e-17 -23.986 -2.98681)
(-4.23596e-16 -29.2189 2.95609)
(-8.59453e-16 -19.5144 -6.16566)
(-2.97733e-17 1.44917 4.33911)
(-2.10698e-17 2.37265 4.91681)
(3.3225e-17 2.92474 5.58226)
(8.3217e-17 3.60155 6.52121)
(4.21711e-17 4.31499 7.65327)
(-1.02411e-16 5.11783 9.04333)
(-1.89591e-16 6.01316 10.7101)
(-4.61407e-17 6.98783 12.7398)
(3.06815e-16 7.64633 15.1457)
(6.14748e-16 9.60168 18.9139)
(8.37438e-16 9.76651 23.2352)
(4.41114e-16 9.39653 30.1506)
(-2.15753e-15 14.451 51.872)
(-6.66611e-15 17.3316 78.8373)
(-1.07936e-14 22.5179 100.019)
(-8.88971e-15 12.2396 82.5286)
(5.50342e-16 -18.2952 18.0816)
(2.79192e-16 -31.099 2.76015)
(2.04948e-15 -18.6806 -4.18939)
(-1.73278e-16 1.29983 4.92939)
(-2.99947e-16 2.10669 5.67958)
(-2.7604e-16 2.56639 6.47451)
(-1.93342e-16 3.1509 7.59066)
(-2.6448e-16 3.76521 8.92032)
(-7.01932e-16 4.45986 10.5365)
(-1.34241e-15 5.23537 12.4374)
(-1.64508e-15 6.03723 14.5435)
(-9.87471e-16 8.25653 18.098)
(-2.69899e-16 7.20264 20.8924)
(6.45625e-16 7.0421 27.4519)
(4.58499e-17 3.65054 38.898)
(-3.80732e-15 3.09634 66.0802)
(-1.03042e-14 6.32747 96.5587)
(-1.83839e-14 20.1727 116.834)
(-2.31403e-14 28.8843 111.375)
(-1.19824e-14 11.5258 68.6558)
(2.11734e-15 -16.5351 3.02331)
(-3.25556e-15 -10.7707 -25.0626)
(-5.22569e-16 1.10816 5.56574)
(-9.6302e-16 1.78107 6.52368)
(-1.05431e-15 2.14462 7.46921)
(-1.01662e-15 2.62594 8.79026)
(-1.26492e-15 3.13167 10.3461)
(-2.33103e-15 3.71267 12.214)
(-4.11055e-15 4.37331 14.3544)
(-5.48714e-15 4.975 16.6164)
(-4.90435e-15 5.08583 19.1792)
(-2.18998e-15 5.33527 23.8092)
(4.29239e-18 2.67321 32.2075)
(-2.45648e-16 -4.28206 46.2852)
(-3.33414e-15 -7.06034 64.3401)
(-8.27057e-15 -1.51683 81.1436)
(-1.53524e-14 17.0473 84.6335)
(-2.8193e-14 31.8769 84.4445)
(-2.48209e-14 23.9658 97.4952)
(4.5965e-14 0.891584 94.4294)
(9.83346e-14 -16.5271 109.865)
(-1.12116e-15 0.866168 6.26397)
(-2.06312e-15 1.38126 7.46626)
(-2.46465e-15 1.64381 8.58534)
(-2.82097e-15 2.00774 10.1398)
(-3.69817e-15 2.39316 11.9529)
(-5.80024e-15 2.85007 14.1158)
(-9.10052e-15 3.39023 16.6205)
(-1.20727e-14 3.89717 19.4887)
(-1.13295e-14 4.22631 23.5029)
(-7.01079e-15 2.05109 27.5154)
(-1.65944e-15 -2.63386 33.2542)
(-2.60109e-16 -8.58063 38.6252)
(-9.19044e-16 -11.4716 44.672)
(7.67652e-17 -2.74847 45.0486)
(1.74286e-15 17.4214 34.5481)
(-1.64809e-14 23.8746 44.0107)
(-5.34466e-14 5.68419 83.2048)
(-3.6399e-14 -19.3334 117.471)
(3.08234e-14 -32.2928 127.26)
(-1.72916e-15 0.563511 7.01705)
(-3.17902e-15 0.892829 8.48789)
(-4.20168e-15 1.05114 9.79628)
(-5.66849e-15 1.28164 11.6015)
(-8.04801e-15 1.52978 13.6959)
(-1.16024e-14 1.83205 16.1966)
(-1.60577e-14 2.18791 19.1309)
(-2.02736e-14 2.47174 22.5954)
(-2.1316e-14 2.41943 26.7485)
(-1.36404e-14 1.21447 30.3908)
(-2.87506e-15 -2.82046 32.9752)
(1.641e-15 -8.49929 29.979)
(2.26661e-15 -9.82885 23.002)
(6.45e-15 1.9256 12.5296)
(1.66695e-14 17.0246 9.59719)
(-1.24726e-14 13.4216 39.6519)
(-4.83903e-14 -4.38047 65.7187)
(-7.06928e-14 -16.5015 67.3936)
(-3.7714e-14 -15.1098 49.7171)
(-1.43723e-15 0.206657 7.6916)
(-2.73813e-15 0.323064 9.40109)
(-4.26592e-15 0.377368 10.8746)
(-7.0367e-15 0.460121 12.8943)
(-1.13267e-14 0.553869 15.2359)
(-1.68065e-14 0.675643 18.0563)
(-2.14059e-14 0.819233 21.4334)
(-2.39542e-14 0.901302 25.471)
(-3.0967e-14 0.698771 29.9966)
(-3.29119e-14 -0.445316 33.4591)
(-2.84894e-14 -3.03529 31.7203)
(-2.21137e-14 -5.71489 19.9902)
(-1.29057e-15 -2.88099 2.46553)
(-4.17713e-15 0.962512 -16.7962)
(2.85791e-14 5.7075 4.93795)
(-8.1565e-15 2.05322 45.0843)
(-2.28407e-14 -6.01567 53.6281)
(-3.71511e-14 -8.33895 28.3457)
(-2.47289e-14 1.20457 -0.955136)
(1.91448e-15 -0.206579 7.69158)
(3.3168e-15 -0.322545 9.40104)
(3.96434e-15 -0.375875 10.8746)
(4.11885e-15 -0.45657 12.8946)
(3.53479e-15 -0.5456 15.2372)
(2.30651e-15 -0.656345 18.0601)
(-1.13771e-15 -0.774524 21.4422)
(-6.75665e-15 -0.804418 25.4837)
(-4.88745e-15 -0.522304 29.9607)
(-2.63983e-15 0.358993 33.1941)
(-3.67737e-16 2.12036 31.117)
(9.49464e-17 7.57863 15.9892)
(-4.54991e-16 5.85964 4.01723)
(-1.56109e-15 -2.3584 -9.10351)
(6.51908e-15 -5.96846 5.85808)
(2.72203e-15 -4.99863 46.0113)
(1.49426e-14 0.498637 52.1175)
(2.82149e-14 6.58274 24.3348)
(2.46518e-14 4.08774 -2.4298)
(2.03743e-15 -0.563417 7.01723)
(3.6382e-15 -0.892345 8.48813)
(4.22114e-15 -1.0498 9.79697)
(4.10525e-15 -1.27855 11.6033)
(3.19338e-15 -1.52273 13.7007)
(1.78321e-15 -1.81578 16.2089)
(4.1291e-16 -2.14958 19.1598)
(-1.55403e-16 -2.38613 22.6542)
(9.93385e-16 -2.18546 26.7794)
(1.22969e-15 -0.75395 30.9151)
(9.17693e-16 2.90821 32.3152)
(2.90459e-16 7.20015 29.4585)
(-6.47295e-16 8.35562 21.5304)
(-2.63716e-15 -0.947811 15.662)
(-2.77286e-15 -16.9467 10.898)
(9.46942e-15 -15.4357 39.6308)
(4.72645e-14 0.78332 63.2969)
(7.10608e-14 14.9232 63.2634)
(2.89584e-14 22.1894 51.7064)
(1.27166e-15 -0.866091 6.26436)
(2.32407e-15 -1.38089 7.46682)
(2.56244e-15 -1.64278 8.58669)
(2.16555e-15 -2.00542 10.143)
(1.32649e-15 -2.38801 11.9605)
(6.76479e-16 -2.83805 14.1338)
(7.25986e-16 -3.35577 16.6554)
(1.41705e-15 -3.74481 19.5258)
(1.78336e-15 -3.43239 22.9956)
(1.36095e-15 -2.74045 27.1263)
(5.69084e-16 2.15084 33.0333)
(2.44807e-16 9.08644 39.1901)
(2.17244e-16 11.2493 44.5748)
(-7.13764e-16 3.12604 46.3743)
(-1.24059e-15 -16.7114 36.5407)
(1.42115e-14 -25.4326 43.6272)
(5.21014e-14 -10.3708 79.4335)
(3.86298e-14 17.5745 110.849)
(-2.48998e-14 36.842 124.082)
(5.79043e-16 -1.10812 5.5663)
(1.06772e-15 -1.78087 6.52448)
(1.10407e-15 -2.14405 7.47103)
(7.69279e-16 -2.6247 8.79438)
(3.08268e-16 -3.12924 10.3558)
(2.21978e-16 -3.70871 12.2394)
(6.71906e-16 -4.37155 14.4399)
(1.23559e-15 -5.01464 16.9421)
(1.26491e-15 -6.13349 20.7001)
(8.87497e-16 -4.60003 24.3773)
(9.89026e-17 -2.58124 32.1045)
(3.2223e-16 2.07923 45.4533)
(2.57627e-15 6.33112 64.3178)
(6.35444e-15 1.14355 81.1286)
(1.24536e-14 -16.4953 85.9831)
(2.52966e-14 -31.4895 83.8546)
(2.89293e-14 -24.7361 90.4185)
(-2.94593e-14 -2.11587 85.8744)
(-8.7817e-14 16.602 105.974)
(1.88332e-16 -1.29985 4.93006)
(3.23876e-16 -2.1067 5.68051)
(2.74751e-16 -2.56635 6.47656)
(9.0208e-17 -3.15085 7.59508)
(-5.91209e-17 -3.76553 8.92992)
(6.03186e-17 -4.46259 10.5574)
(4.1483e-16 -5.24974 12.4823)
(7.10027e-16 -6.0839 14.7707)
(7.23417e-16 -6.51408 17.6348)
(4.06485e-16 -7.88677 22.6768)
(-3.66626e-17 -6.15575 28.09)
(4.05755e-16 -3.76044 39.4049)
(3.41702e-15 -2.56891 62.9612)
(9.0084e-15 -6.51776 92.3991)
(1.60889e-14 -18.9493 112.229)
(2.184e-14 -27.134 108.211)
(1.62746e-14 -13.1433 74.5839)
(-8.44991e-16 10.3487 25.4507)
(-1.01598e-14 14.5709 -5.08803)
(3.13893e-17 -1.44925 4.33981)
(1.76551e-17 -2.37288 4.91776)
(-5.33652e-17 -2.92524 5.58427)
(-1.37209e-16 -3.60265 6.52539)
(-1.37095e-16 -4.31768 7.66173)
(3.00669e-18 -5.12522 9.05909)
(1.92239e-16 -6.03534 10.7321)
(3.02471e-16 -7.0541 12.7319)
(3.01289e-16 -8.13029 15.1618)
(1.40732e-16 -8.92336 18.4509)
(-1.06947e-16 -8.74558 23.7013)
(1.89998e-16 -10.0716 33.6535)
(2.53057e-15 -13.4789 51.9369)
(6.69512e-15 -17.0839 75.4509)
(1.13764e-14 -22.4071 95.7076)
(1.23366e-14 -15.9123 86.1881)
(6.24842e-15 8.07833 38.4451)
(4.26261e-16 27.7762 4.03745)
(-4.64291e-16 24.2747 -10.9374)
(-9.35332e-18 -1.56125 3.77347)
(-5.31501e-17 -2.58156 4.21084)
(-1.12161e-16 -3.21703 4.76535)
(-1.49469e-16 -3.9731 5.55234)
(-1.12931e-16 -4.77382 6.5138)
(-1.33226e-17 -5.67771 7.70352)
(6.78209e-17 -6.6992 9.14075)
(8.92674e-17 -7.86674 10.8744)
(7.85672e-17 -9.19829 12.9627)
(9.57524e-18 -10.675 15.6222)
(-1.21764e-16 -12.3004 19.9053)
(2.87057e-18 -15.7799 26.4274)
(1.1684e-15 -20.1952 36.1726)
(3.70794e-15 -24.1736 50.0901)
(6.38732e-15 -23.4733 63.0832)
(5.5241e-15 -4.38964 47.8091)
(6.56257e-16 20.5141 2.63744)
(-2.76357e-16 31.4146 -1.48668)
(-2.62302e-17 25.1893 -8.68241)
(-1.08315e-17 -1.64678 3.20751)
(-4.15273e-17 -2.75754 3.5312)
(-7.69598e-17 -3.47554 3.98576)
(-9.38458e-17 -4.30636 4.6345)
(-6.58125e-17 -5.1883 5.43632)
(-1.19829e-17 -6.18429 6.4332)
(1.63382e-17 -7.31445 7.64422)
(9.06906e-18 -8.61949 9.11451)
(-3.9555e-18 -10.1385 10.8943)
(-2.98991e-17 -11.8806 13.1328)
(-8.284e-17 -13.8986 16.3487)
(-6.56949e-17 -17.5273 20.3919)
(3.61507e-16 -22.862 24.4668)
(1.62135e-15 -27.3241 29.1737)
(3.08703e-15 -21.8066 33.5712)
(2.14968e-15 7.83966 16.2855)
(-1.48364e-16 27.3371 -8.71768)
(3.58985e-17 31.6705 -3.65594)
(1.04032e-16 26.5589 -8.13234)
(-5.62204e-18 -1.70346 2.67315)
(-1.96316e-17 -2.8749 2.92525)
(-3.52552e-17 -3.65108 3.30343)
(-4.14917e-17 -4.53291 3.84252)
(-2.74791e-17 -5.47045 4.51498)
(-5.29237e-18 -6.52977 5.3531)
(9.52946e-19 -7.73533 6.37436)
(-9.29833e-18 -9.13462 7.61762)
(-1.91922e-17 -10.776 9.12851)
(-2.89522e-17 -12.6924 11.0136)
(-4.50059e-17 -14.9812 13.5249)
(-4.92854e-17 -18.4953 16.3428)
(6.08727e-17 -23.4757 17.9878)
(5.06579e-16 -27.6761 16.712)
(1.22613e-15 -19.6669 14.0025)
(3.33529e-16 13.9285 -4.01896)
(-5.4081e-17 28.5385 -9.0996)
(-2.87882e-17 31.3773 -5.92383)
(-1.92023e-16 26.62 -8.21942)
(-1.598e-18 -1.75892 1.80265)
(-4.67207e-18 -3.0175 1.97375)
(-7.46307e-18 -3.86838 2.23545)
(-7.29356e-18 -4.8201 2.60742)
(-2.86588e-18 -5.83188 3.07683)
(8.61555e-19 -6.97571 3.66386)
(-1.31355e-18 -8.28039 4.38229)
(-6.52456e-18 -9.80063 5.25881)
(-1.03603e-17 -11.5933 6.32569)
(-1.31602e-17 -13.7038 7.63787)
(-1.46461e-17 -16.1881 9.27993)
(-1.50079e-17 -19.4158 11.0431)
(-5.44183e-18 -23.072 11.8821)
(5.63362e-17 -24.9634 9.67577)
(2.09215e-16 -13.1424 3.6439)
(-1.55863e-17 16.1817 -6.57169)
(-9.70929e-17 28.4733 -10.1877)
(2.27402e-17 31.095 -7.56326)
(-1.5814e-16 25.5542 -8.86174)
(4.4851e-15 69.3841 122.473)
(8.52354e-15 97.7912 158.924)
(5.78985e-15 94.3642 154.251)
(-6.02428e-16 92.1953 144.671)
(-2.83855e-15 89.2857 141.885)
(-2.1259e-14 89.0407 139.641)
(-3.72022e-14 86.9275 138.588)
(-2.56569e-14 87.2637 138.813)
(-1.30455e-14 86.5316 139.578)
(-1.23634e-14 85.7921 140.141)
(-1.03861e-14 86.0065 140.097)
(-8.72715e-15 84.2042 141.245)
(-1.01115e-14 85.862 140.228)
(-7.55789e-15 82.4316 142.25)
(-6.31934e-15 86.1256 139.78)
(-3.78736e-15 80.4695 142.941)
(-3.1564e-15 86.4379 139.049)
(-5.91443e-15 79.4817 144.19)
(-1.36267e-14 83.6317 134.681)
(1.30273e-14 87.6779 158.627)
(1.471e-15 72.3634 128.775)
(1.02833e-14 92.6803 153.177)
(1.29418e-14 82.3627 144.55)
(1.30096e-14 82.0386 136.551)
(1.14563e-14 78.9196 138.5)
(2.81102e-14 81.5184 137.429)
(3.48308e-14 80.0356 138.892)
(2.26675e-14 81.2436 138.121)
(1.8268e-14 80.7286 138.458)
(2.18508e-14 80.805 138.449)
(1.88249e-14 81.2968 138.123)
(1.8511e-14 80.2062 138.812)
(2.06781e-14 81.9221 137.657)
(1.99986e-14 79.3775 139.329)
(1.82869e-14 82.7115 137.059)
(1.45896e-14 78.384 139.865)
(1.19412e-14 83.5481 136.503)
(1.67188e-14 78.1123 141.151)
(1.55123e-14 81.605 131.896)
(-2.83961e-14 81.3593 147.06)
(-1.06089e-15 76.6306 137.988)
(-6.12041e-15 97.5262 160.469)
(-6.93743e-15 85.2067 149.001)
(-6.40228e-15 84.2603 138.149)
(-7.42387e-15 80.375 138.868)
(9.89364e-16 82.8582 137.634)
(3.75506e-15 81.058 138.883)
(2.51118e-15 82.2303 138.286)
(2.98257e-15 81.491 138.787)
(4.38264e-15 81.6677 138.753)
(3.55448e-15 81.8367 138.686)
(3.98246e-15 81.1274 139.24)
(3.97235e-15 82.2609 138.527)
(3.42829e-15 80.4813 139.805)
(3.39273e-15 82.8114 138.241)
(3.1812e-15 79.7182 140.362)
(3.05239e-15 83.4565 138.062)
(3.65833e-15 79.5783 141.667)
(8.38489e-15 82.0444 134.862)
(1.31165e-15 80.0612 143.112)
(1.01555e-17 80.5236 145.398)
(-6.98384e-16 100.263 164.37)
(-5.50818e-16 85.5262 150.085)
(-5.78386e-16 84.1619 137.525)
(-2.07821e-16 79.6792 137.995)
(-3.91784e-15 82.475 136.644)
(-4.2778e-15 80.4986 138.012)
(-3.09034e-15 81.8038 137.206)
(-3.22061e-15 80.9068 137.709)
(-3.48865e-15 81.2391 137.543)
(-3.23716e-15 81.1881 137.553)
(-3.13455e-15 80.7801 137.884)
(-3.75413e-15 81.4601 137.41)
(-3.37887e-15 80.3066 138.31)
(-3.06858e-15 81.8065 137.236)
(-2.47718e-15 79.7748 138.739)
(-2.0778e-15 82.232 137.212)
(-3.01768e-15 79.7777 139.862)
(-4.05003e-15 80.4403 133.81)
(2.85267e-15 76.8108 135.304)
(1.32706e-16 85.0764 154.092)
(7.0803e-16 103.957 170.053)
(7.6912e-16 87.3142 153.011)
(7.48965e-16 84.8705 137.976)
(9.14696e-16 79.6057 137.34)
(-6.11271e-16 82.38 136.005)
(-1.11239e-15 80.3489 137.465)
(-8.51952e-16 81.6915 136.728)
(-9.11221e-16 80.7016 137.29)
(-1.1272e-15 81.1165 137.094)
(-9.43065e-16 80.881 137.229)
(-1.05166e-15 80.7226 137.441)
(-1.06811e-15 81.0321 137.226)
(-9.51707e-16 80.3955 137.848)
(-9.19629e-16 81.2306 137.213)
(-8.29928e-16 80.04 138.214)
(-8.44364e-16 81.5083 137.348)
(-9.82772e-16 80.1125 139.153)
(-1.1757e-15 79.7423 134.272)
(6.38866e-16 74.0332 128.976)
(-3.96554e-17 89.8153 162.677)
(-6.49924e-17 108.196 176.891)
(-5.59648e-17 89.938 156.659)
(-6.38329e-17 85.7403 138.695)
(-1.82418e-16 79.5717 135.966)
(5.69637e-16 81.9771 134.62)
(8.80983e-16 80.1887 136.152)
(5.50877e-16 81.3986 135.548)
(5.64634e-16 80.4373 136.094)
(7.25168e-16 80.8502 135.924)
(5.82248e-16 80.4932 136.166)
(6.30393e-16 80.5323 136.294)
(7.04855e-16 80.5001 136.341)
(6.52618e-16 80.3307 136.712)
(6.08454e-16 80.5102 136.519)
(4.83406e-16 80.0787 137)
(4.06657e-16 80.5392 136.771)
(6.06579e-16 80.09 137.682)
(7.89113e-16 78.7244 134.072)
(-1.0207e-15 71.0571 122.372)
(-1.05007e-18 95.0977 172.21)
(-8.20976e-17 114.051 186.393)
(-1.09783e-16 93.8013 162.082)
(-1.05189e-16 87.0595 140.165)
(-9.60575e-17 79.5303 134.46)
(-4.3907e-17 81.4063 132.914)
(-3.24798e-18 79.9519 134.629)
(3.27669e-17 81.0331 134.198)
(3.44393e-17 80.1282 134.75)
(1.96777e-17 80.5121 134.618)
(2.39994e-17 80.0737 134.957)
(2.24454e-17 80.2365 135.03)
(1.83178e-17 79.9497 135.293)
(5.19436e-18 80.086 135.46)
(6.96319e-18 79.7639 135.599)
(1.44566e-17 79.7952 135.605)
(3.23951e-17 79.4816 135.825)
(3.06493e-18 79.5773 135.933)
(-2.6317e-17 77.6909 133.617)
(7.79823e-17 68.1933 116.646)
(4.28158e-18 100.821 182.99)
(4.56256e-17 121.953 198.571)
(5.83643e-17 97.7439 168.426)
(5.8112e-17 87.9554 141.082)
(7.32113e-17 78.5781 132.664)
(-7.69508e-17 80.5007 130.691)
(-1.71052e-16 79.1507 132.854)
(-1.33545e-16 80.3568 132.383)
(-1.31503e-16 79.4126 133.013)
(-1.52058e-16 79.834 132.855)
(-1.27059e-16 79.3355 133.265)
(-1.33988e-16 79.5493 133.283)
(-1.47903e-16 79.1104 133.656)
(-1.31811e-16 79.3356 133.661)
(-1.23557e-16 78.711 133.934)
(-9.99775e-17 78.8319 133.563)
(-9.33727e-17 78.0677 133.939)
(-1.17872e-16 78.2366 133.463)
(-1.23468e-16 76.5161 132.536)
(1.98764e-16 65.9413 112.768)
(-1.6322e-18 107.06 196.599)
(-1.36152e-17 131.326 210.973)
(-1.68551e-17 98.1251 172.869)
(-1.70383e-17 87.3515 139.341)
(-2.5594e-17 75.9365 132.148)
(4.27774e-17 80.0667 129.213)
(8.77117e-17 77.6502 132.097)
(6.69288e-17 79.6172 130.891)
(6.51507e-17 78.2969 131.643)
(7.7221e-17 78.919 131.217)
(6.4305e-17 78.3201 131.576)
(6.80861e-17 78.5237 131.44)
(7.62294e-17 78.0134 131.721)
(6.98486e-17 78.1282 131.547)
(6.56864e-17 77.3942 131.692)
(5.19007e-17 77.3212 131.077)
(4.63251e-17 76.4306 131.283)
(6.35721e-17 76.3532 130.537)
(6.68416e-17 75.3387 130.855)
(-1.24155e-16 64.9228 111.507)
(3.80684e-19 113.611 213.812)
(2.95638e-18 137.398 214.899)
(3.61529e-18 89.0552 169.37)
(3.62688e-18 86.3745 134.454)
(6.32954e-18 73.1193 136.413)
(-1.3793e-17 81.8065 130.37)
(-2.64236e-17 76.2963 133.757)
(-2.00172e-17 79.6598 130.894)
(-1.96032e-17 77.4828 131.575)
(-2.3486e-17 78.3507 130.502)
(-1.9613e-17 77.5396 130.526)
(-2.09097e-17 77.6285 130.034)
(-2.36602e-17 77.0489 129.958)
(-2.20855e-17 76.9255 129.52)
(-2.09747e-17 76.1718 129.315)
(-1.64254e-17 75.8276 128.557)
(-1.44553e-17 74.9561 128.38)
(-2.07674e-17 74.5618 127.531)
(-2.14124e-17 74.3097 128.755)
(4.36259e-17 64.9221 111.717)
(-7.0325e-20 119.582 230.527)
(-5.39996e-19 130.76 199.586)
(-6.51214e-19 76.7643 160.461)
(-6.48211e-19 90.844 137.477)
(-1.21278e-18 74.6375 145.34)
(3.29769e-18 85.9084 135.154)
(5.8565e-18 77.4689 137.659)
(4.38018e-18 81.4357 133.187)
(4.33711e-18 78.4763 133.085)
(5.2242e-18 79.1189 131.149)
(4.38423e-18 78.003 130.411)
(4.69911e-18 77.7433 129.344)
(5.37239e-18 76.9691 128.676)
(5.10789e-18 76.5269 127.845)
(4.91294e-18 75.6406 127.19)
(3.84457e-18 75.0706 126.249)
(3.35674e-18 74.0389 125.634)
(4.99038e-18 73.3279 124.441)
(5.09536e-18 73.4111 126.326)
(-1.10104e-17 64.3679 110.072)
(1.01518e-20 121.634 236.774)
(8.68272e-20 115.505 176.322)
(9.60497e-20 79.668 163.861)
(9.32275e-20 98.3422 149.813)
(1.93959e-19 82.3261 153.351)
(-5.93655e-19 90.4065 142.574)
(-1.01834e-18 82.6341 141.944)
(-7.59395e-19 84.7501 137.007)
(-7.47679e-19 81.8951 135.224)
(-9.01121e-19 81.5129 132.487)
(-7.66163e-19 80.0631 130.63)
(-8.17512e-19 79.1765 128.807)
(-9.44643e-19 78.0018 127.398)
(-9.19301e-19 77.1371 126.021)
(-8.97571e-19 75.8771 124.876)
(-7.09709e-19 75.0036 123.537)
(-6.12896e-19 73.4559 122.419)
(-9.35006e-19 72.161 120.302)
(-9.73331e-19 72.1615 122.852)
(2.17243e-18 61.2053 103.371)
(-1.41147e-21 118 226.761)
(-1.12671e-20 113.217 178.293)
(-1.20189e-20 95.8175 178.331)
(-1.10725e-20 105.046 163.793)
(-2.54038e-20 93.4738 160.209)
(7.86571e-20 95.4371 150.457)
(1.38694e-19 90.1202 146.035)
(1.05993e-19 89.3329 140.806)
(1.0104e-19 86.8022 137.103)
(1.21037e-19 85.1322 133.438)
(1.05545e-19 83.167 130.314)
(1.10866e-19 81.4894 127.512)
(1.29371e-19 79.6894 125.215)
(1.29917e-19 78.2191 123.089)
(1.29479e-19 76.3417 121.291)
(1.0509e-19 74.849 119.225)
(8.97036e-20 72.4162 117.275)
(1.39312e-19 69.9812 113.597)
(1.53883e-19 69.2766 116.108)
(-3.49472e-19 54.5409 90.7197)
(1.61976e-22 116.214 218.041)
(1.1805e-21 127.055 204.639)
(1.24439e-21 112.328 195.34)
(1.07479e-21 112.962 177.741)
(2.68453e-21 104.138 168.857)
(-7.79912e-21 102.009 158.351)
(-1.4638e-20 97.5671 150.968)
(-1.17337e-20 94.8069 144.32)
(-1.0687e-20 91.8719 138.724)
(-1.25545e-20 89.1395 133.64)
(-1.12997e-20 86.3914 129.066)
(-1.16245e-20 83.835 124.953)
(-1.36313e-20 81.2159 121.457)
(-1.42105e-20 78.8901 118.236)
(-1.45841e-20 76.1405 115.373)
(-1.237e-20 73.5772 112.092)
(-1.05346e-20 69.8362 108.667)
(-1.65165e-20 65.7816 102.958)
(-2.03962e-20 63.0425 103.32)
(4.69492e-20 44.5729 72.1677)
(-1.49246e-23 119.293 221.964)
(-1.07113e-22 146.444 234.21)
(-1.10086e-22 124.627 215.857)
(-8.8637e-23 122.891 192.595)
(-2.32635e-22 112.625 181.421)
(6.2265e-22 109.414 168.313)
(1.23409e-21 103.964 158.593)
(1.03453e-21 100.048 149.432)
(9.02158e-22 96.092 141.562)
(1.02253e-21 92.3679 134.393)
(9.4212e-22 88.6692 127.888)
(9.48384e-22 85.1205 121.933)
(1.10702e-21 81.5041 116.65)
(1.19466e-21 78.045 111.683)
(1.26964e-21 74.0832 106.999)
(1.13933e-21 70.025 101.731)
(9.84702e-22 64.5737 96.0669)
(1.54605e-21 58.9217 88.209)
(2.24606e-21 52.6736 83.9749)
(-5.30929e-21 31.7834 48.0355)
(1.14888e-24 126.621 239.882)
(8.68534e-24 161.503 251.824)
(8.70113e-24 129.592 233.147)
(6.57986e-24 132.564 206.761)
(1.75489e-23 117.766 196.481)
(-4.46894e-23 115.954 180.466)
(-8.99417e-23 108.241 169.448)
(-7.67485e-23 103.805 157.574)
(-6.4276e-23 98.5146 147.4)
(-6.94847e-23 93.8247 137.719)
(-6.41888e-23 89.0626 128.791)
(-6.29874e-23 84.4023 120.35)
(-7.2273e-23 79.5756 112.471)
(-7.96131e-23 74.7046 104.789)
(-8.71225e-23 69.1883 97.2686)
(-8.24654e-23 63.5035 89.1224)
(-7.30838e-23 56.3847 80.7582)
(-1.14352e-22 49.5436 70.6013)
(-2.02866e-22 38.7183 59.8871)
(5.08797e-22 17.2807 20.4884)
(-8.1111e-26 134.639 263.636)
(-6.58915e-25 164.833 250.897)
(-6.45941e-25 126.248 240.784)
(-4.66741e-25 137.319 215.261)
(-1.26991e-24 117.123 207.544)
(3.32271e-24 118.072 189.928)
(6.38625e-24 107.738 179.312)
(5.30485e-24 103.883 165.914)
(4.25631e-24 97.4123 154.715)
(4.36555e-24 92.4117 143.141)
(3.91597e-24 86.8916 132.167)
(3.67974e-24 81.5308 121.169)
(4.04733e-24 75.834 110.347)
(4.38319e-24 70.0463 99.4596)
(4.74578e-24 63.7513 88.849)
(4.52083e-24 57.7063 77.8505)
(3.96521e-24 49.8665 66.5581)
(5.88943e-24 41.0675 51.0674)
(1.24865e-23 23.5227 31.8553)
(1.38765e-23 4.7882 -6.48013)
(6.24022e-27 133.248 275.091)
(4.67863e-26 159.048 242.817)
(4.18442e-26 120.097 243.028)
(3.50927e-26 131.521 220.547)
(5.87804e-26 110.958 213.41)
(-2.67434e-25 110.885 197.774)
(-4.30392e-25 100.172 187.996)
(-3.37106e-25 96.302 175.596)
(-2.82873e-25 89.4548 165.131)
(-2.98526e-25 84.6916 153.765)
(-2.68939e-25 79.109 142.719)
(-2.625e-25 73.9619 131.06)
(-2.87392e-25 68.5674 119.227)
(-2.88996e-25 63.6333 107.417)
(-2.8468e-25 59.0942 96.4364)
(-2.41836e-25 54.8011 84.444)
(-1.89037e-25 45.6117 66.8409)
(-2.90793e-25 29.233 33.9494)
(-6.77167e-26 1.3676 -0.488292)
(-2.01195e-23 -16.6496 -47.3808)
(-4.98055e-28 109.873 256.627)
(-2.82661e-27 149.529 228.103)
(-2.27998e-27 109.285 230.491)
(-1.85011e-27 115.05 215.226)
(1.3368e-28 99.2779 209.167)
(1.50678e-26 94.501 199.537)
(1.8351e-26 85.9085 191.846)
(1.30912e-26 79.8695 183.72)
(1.11718e-26 73.6079 175.917)
(1.09751e-26 68.1255 167.969)
(9.32359e-27 62.8939 159.803)
(8.89088e-27 58.0329 151.281)
(9.14455e-27 53.595 142.601)
(8.90172e-27 49.9913 134.445)
(9.54173e-27 47.2653 126.948)
(1.54408e-26 42.9442 115.946)
(1.69887e-26 30.1993 89.1273)
(-2.37471e-25 2.93663 34.5105)
(-1.98223e-24 -28.0922 -28.1673)
(-6.36601e-24 -24.9669 -44.6854)
(3.89572e-29 36.29 158.716)
(1.20855e-28 78.5584 131.57)
(8.23158e-29 52.7958 139.72)
(3.72129e-29 52.4657 135.713)
(-1.17822e-28 43.8734 135.754)
(-4.88234e-28 39.3384 134.136)
(-4.66005e-28 34.204 132.921)
(-3.10676e-28 30.1602 131.354)
(-2.62607e-28 26.5338 129.69)
(-2.36986e-28 23.5484 127.8)
(-1.92184e-28 21.1094 125.69)
(-1.80325e-28 19.2644 123.306)
(-1.78302e-28 18.0238 120.643)
(-1.70872e-28 17.4492 117.811)
(-1.85295e-28 17.788 115.114)
(-2.44529e-28 19.1073 113.146)
(2.38321e-28 21.1327 111.831)
(4.63003e-27 26.2626 106.41)
(1.63339e-26 30.2931 91.1421)
(2.1518e-26 7.18789 64.878)
(-2.70485e-29 -36.2865 158.705)
(-2.19969e-29 -78.5521 131.564)
(-9.61711e-30 -52.792 139.716)
(1.9497e-29 -52.4617 135.712)
(1.40072e-28 -43.8692 135.755)
(3.4e-28 -39.3329 134.138)
(3.64164e-28 -34.1969 132.925)
(2.80353e-28 -30.1513 131.359)
(2.54192e-28 -26.5228 129.696)
(2.40713e-28 -23.5345 127.808)
(2.14216e-28 -21.0916 125.697)
(1.88174e-28 -19.2421 123.312)
(1.70685e-28 -17.997 120.646)
(1.63383e-28 -17.4193 117.814)
(1.80674e-28 -17.7597 115.125)
(2.33856e-28 -19.0881 113.175)
(-8.09873e-29 -21.1301 111.872)
(-2.94619e-27 -26.28 106.439)
(-1.05011e-26 -30.3205 91.1627)
(-1.37729e-26 -7.20188 64.918)
(4.58194e-28 -109.88 256.651)
(4.16823e-28 -149.549 228.133)
(1.91294e-28 -109.303 230.517)
(-1.26129e-28 -115.069 215.255)
(-2.33494e-27 -99.3006 209.199)
(-8.74519e-27 -94.5248 199.573)
(-1.23399e-26 -85.9353 191.885)
(-1.08636e-26 -79.8973 183.763)
(-1.04915e-26 -73.6377 175.964)
(-1.07761e-26 -68.1567 168.02)
(-1.03168e-26 -62.925 159.858)
(-9.50082e-27 -58.0602 151.334)
(-8.79397e-27 -53.6158 142.651)
(-8.35143e-27 -50.0049 134.492)
(-8.97362e-27 -47.2593 126.97)
(-1.36152e-26 -42.873 115.86)
(-1.45762e-26 -30.0148 88.8383)
(1.53959e-25 -2.72231 34.1501)
(1.28655e-24 28.1183 -28.2078)
(4.05191e-24 24.9381 -44.6164)
(-7.16736e-27 -133.227 275.074)
(-6.12884e-27 -159.031 242.732)
(-2.21295e-27 -120.068 243.001)
(2.19126e-27 -131.541 220.516)
(2.34046e-26 -110.961 213.39)
(1.24424e-25 -110.916 197.749)
(2.35249e-25 -100.202 187.983)
(2.44289e-25 -96.352 175.586)
(2.534e-25 -89.514 165.132)
(2.81757e-25 -84.7662 153.775)
(2.91553e-25 -79.1966 142.741)
(2.87805e-25 -74.0601 131.091)
(2.80284e-25 -68.6748 119.263)
(2.68997e-25 -63.7459 107.455)
(2.65233e-25 -59.2023 96.4654)
(2.63201e-25 -54.8774 84.4282)
(2.6909e-25 -45.6198 66.7307)
(3.63226e-25 -29.1829 33.7914)
(1.40727e-25 -1.31956 -0.593811)
(1.28775e-23 16.6532 -47.3823)
(1.05586e-25 -134.593 263.458)
(8.55907e-26 -164.939 251.026)
(2.85763e-26 -126.305 240.726)
(-5.23156e-26 -137.312 215.178)
(-2.9712e-25 -117.197 207.48)
(-1.3457e-24 -118.144 189.882)
(-2.86595e-24 -107.861 179.255)
(-3.31859e-24 -104.013 165.868)
(-3.58359e-24 -97.5737 154.673)
(-4.03225e-24 -92.5894 143.117)
(-4.14547e-24 -87.0956 132.162)