/*--------------------------------*- C++ -*----------------------------------*\
| =========                 |                                                 |
| \\      /  F ield         | OpenFOAM: The Open Source CFD Toolbox           |
|  \\    /   O peration     | Version:  4.1                                   |
|   \\  /    A nd           | Web:      www.OpenFOAM.org                      |
|    \\/     M anipulation  |                                                 |
\*---------------------------------------------------------------------------*/
FoamFile
{
    version     2.0;
    format      ascii;
    class       volScalarField;
    location    "30";
    object      p;
}
// * * * * * * * * * * * * * * * * * * * * * * * * * * * * * * * * * * * * * //

dimensions      [0 2 -2 0 0 0 0];

internalField   nonuniform List<scalar> 
1680
(
95667.6
-45065.2
8092.17
-17306.3
-2603.6
-11036.4
-7209.68
-5546.67
-7180.46
-6483.07
-6228.74
-5983.54
-3700.86
-5702.43
-4878.09
-4823.41
-4748.97
-2474.09
-3427.09
-5874.87
-3908.42
-3837.01
-3440.13
-3148.85
-2989.94
-2756.96
-2511.42
-2201.74
-2030.84
-2094.78
-1750.11
-1572.25
-1497.06
-1258.11
-1124.3
-949.029
-754.906
-500.724
-296.386
-46.6176
283.679
-374.595
428.473
717.584
256.246
370.005
887.677
1289.39
728.892
1366.24
1628.91
1271.07
1355.59
1725.13
2113.98
1729.41
1806.25
2117.92
2492.36
2071.53
-26834.5
-8911.82
-25042.2
-12321.3
-3992.12
3308.95
3156.71
3089.15
2459.43
2461.44
2628.29
2818.37
2914.13
2810.45
2922.23
2725.45
3361.34
2939.26
1081.39
-32926.4
-9547.71
-28557.7
-14148.5
-4595.04
3376.55
3064.79
2895.55
2243.63
2237.35
2439.94
2653.84
2795.88
2661.22
2777.29
2446.13
3269.12
2658.65
359.542
-39069.4
-10328.6
-32035.9
-15937.5
-5090.28
3459.92
2961.99
2687.65
2032.74
2020.13
2267
2479.3
2667.46
2487.73
2617.48
2111.72
3104.47
2326.31
-424.513
-45354.7
-11222.2
-35277.5
-17590.6
-5416.53
3536.3
2819.35
2440.38
1814.18
1810.93
2112.13
2296.9
2525.57
2290.34
2437.96
1740.39
2880.51
1956.88
-1221.7
-51933.4
-12259.1
-38064.1
-18963.7
-5511.75
3572.1
2602.2
2125.09
1570.56
1602.72
1962.05
2106.64
2363.81
2073.12
2231.6
1358.13
2612.09
1559.66
-2045.27
-58693.1
-13481.7
-40189.4
-19910.3
-5329.39
3533.93
2278.7
1721.32
1286.04
1380.56
1795.4
1907.5
2176.09
1837.42
1996.48
983.123
2317.37
1152.82
-2813.03
-65607.8
-14929.2
-41508.4
-20415.7
-4850.76
3396.49
1831.36
1226.7
949.418
1121.89
1596.07
1697.67
1960.07
1580.96
1736.1
616.689
2009.04
742.09
-3597.18
-72616.4
-16646.4
-41995.2
-20331.2
-4073.6
3143.17
1273.24
667.353
559.627
801.65
1360.64
1477.3
1719.44
1305.1
1456.01
248.425
1677.56
302.547
-4285.85
-79878.7
-18720.1
-41996.8
-19182.1
-2965.49
2777.25
668.061
114.336
139.725
404.408
1092.04
1243.46
1455.31
1009.49
1157.58
-135.826
1306.9
-162.239
-5052.78
-87029.4
-21334.4
-41702.7
-17482.6
-1545.78
2348.99
165.246
-294.664
-235.839
-33.9569
806.873
1003.46
1179.85
704.982
849.969
-539.441
892.86
-586.168
-5684.78
-94951.7
-24754.4
-41790.6
-17642.3
-106.938
1977.68
-45.4106
-404.42
-448.8
-404.017
522.062
747.459
878.617
379.365
521.882
-969.591
426.667
-979.182
-6203.86
-101543
-29951.3
-42520.2
-17256.9
1012.82
1686.19
-34.6828
-291.425
-504.718
-587.966
282.032
513.96
597.738
76.9661
209.839
-1403.56
-101.132
-1411.22
-6635.49
-112159
-36656.6
-43385.9
-14349.7
1678.42
1320.81
-41.9665
-198.686
-524.725
-636.44
43.4654
232.069
236.766
-292.422
-163.104
-1873.61
-689.424
-1797.92
-6857.21
-113575
-43625.1
-43587.9
-8882.71
1882.92
794.476
-60.4212
-166.931
-546.563
-694.669
-89.847
82.9132
38.6396
-500.319
-402.106
-2271.23
-1299.55
-2025.55
-7204.71
-136812
-46570.6
-42840.1
-1233.81
1580.41
168.37
-50.1236
-178.159
-556.479
-804.152
-384.96
-342.493
-564.522
-1072.39
-956.528
-2767.29
-1935.01
-2301.31
-7126.2
-106922
-52873.9
-42824.9
5001.05
250.529
-350.292
-51.0367
-208.682
-568.863
-781.078
-231.894
-87.1879
-237.488
-757.16
-738.714
-2843.57
-2503.09
-3160.1
-7967.77
-202641
-38840.8
-41916.4
10847
-1316.04
-436.169
-65.716
-183.21
-547.45
-931.059
-1025.16
-1381.07
-2115.89
-2490.25
-2315.8
-3569.29
-2626.36
-2790.84
-6824.17
4046.69
-73493.7
-10844.6
26262
-1155.37
-289.757
-67.6669
-107.946
-487.266
-654.692
417.24
963.5
1152.55
619.056
418.155
-2401.02
-2274.81
1011.18
-10649.3
-473382
8638.19
44932.5
10129.4
-2754.19
-511.445
-263.695
-260.723
-780.454
-1217.62
-3212.41
-5134.72
-7709.34
-7559.09
-6920.36
-4864.74
-2878.77
-6634.9
-4128.11
1.00254e+06
-694426
-246310
-28679.5
-4809.14
-877.229
-501.607
-471.878
-649.524
305.993
5090.12
9000.17
12938.7
11694.3
10668.7
2162.33
408.429
-23999
-26350.5
-663.307
-671.31
-676.795
-685.809
-692.141
-699.675
-708.038
-717.072
-734.772
-767.604
-786.182
-782.434
-775.291
-769.096
-760.988
-754.045
-747.149
-733.1
-742.164
-789.774
-752.664
-749.541
-746.247
-741.314
-735.495
-728.536
-720.892
-713.187
-707.672
-706.398
-707.212
-706.449
-703.295
-698.47
-692.712
-685.68
-677.588
-667.109
-661.127
-665.335
-692.75
-694.821
-695.751
-697.01
-697.786
-698.259
-698.12
-697.352
-696.262
-695.577
-695.366
-694.856
-693.909
-692.656
-690.915
-688.745
-685.92
-682.101
-677.715
-675.602
-699.535
-699.332
-699.204
-698.977
-698.716
-698.407
-698.02
-697.566
-697.028
-696.433
-695.798
-695.17
-694.519
-693.792
-692.996
-692.137
-691.16
-690.121
-688.736
-687.634
-694.019
-694.226
-694.266
-694.398
-694.451
-694.514
-694.524
-694.517
-694.464
-694.388
-694.273
-694.135
-693.957
-693.763
-693.524
-693.272
-692.969
-692.669
-692.224
-691.864
-694.093
-694.13
-694.126
-694.146
-694.139
-694.143
-694.127
-694.115
-694.087
-694.057
-694.013
-693.966
-693.906
-693.846
-693.767
-693.698
-693.601
-693.532
-693.397
-693.297
-692.88
-692.957
-692.971
-693.028
-693.053
-693.096
-693.12
-693.153
-693.174
-693.197
-693.211
-693.227
-693.233
-693.242
-693.239
-693.246
-693.231
-693.243
-693.208
-693.216
-692.405
-692.462
-692.474
-692.518
-692.538
-692.574
-692.596
-692.628
-692.651
-692.678
-692.7
-692.725
-692.744
-692.769
-692.783
-692.81
-692.817
-692.851
-692.846
-692.885
-691.725
-691.786
-691.802
-691.85
-691.874
-691.914
-691.942
-691.978
-692.007
-692.04
-692.069
-692.101
-692.128
-692.16
-692.184
-692.219
-692.237
-692.279
-692.285
-692.338
-691.198
-691.254
-691.269
-691.313
-691.335
-691.373
-691.4
-691.434
-691.462
-691.494
-691.523
-691.554
-691.582
-691.614
-691.639
-691.674
-691.694
-691.736
-691.745
-691.799
-690.645
-690.7
-690.715
-690.758
-690.781
-690.818
-690.844
-690.878
-690.906
-690.938
-690.967
-690.997
-691.026
-691.057
-691.084
-691.118
-691.139
-691.18
-691.191
-691.245
-690.14
-690.191
-690.206
-690.247
-690.268
-690.304
-690.329
-690.361
-690.388
-690.418
-690.446
-690.475
-690.504
-690.532
-690.559
-690.591
-690.612
-690.651
-690.662
-690.714
-689.645
-689.695
-689.71
-689.749
-689.77
-689.804
-689.828
-689.859
-689.885
-689.914
-689.941
-689.968
-689.997
-690.023
-690.05
-690.079
-690.102
-690.137
-690.149
-690.199
-689.177
-689.223
-689.238
-689.275
-689.295
-689.328
-689.351
-689.38
-689.406
-689.433
-689.46
-689.486
-689.513
-689.538
-689.565
-689.591
-689.614
-689.647
-689.66
-689.706
-688.727
-688.77
-688.784
-688.819
-688.838
-688.869
-688.891
-688.919
-688.944
-688.97
-688.995
-689.02
-689.046
-689.07
-689.097
-689.12
-689.144
-689.173
-689.188
-689.231
-688.309
-688.35
-688.363
-688.396
-688.413
-688.442
-688.462
-688.488
-688.51
-688.534
-688.558
-688.58
-688.605
-688.625
-688.651
-688.671
-688.696
-688.721
-688.737
-688.776
-687.915
-687.952
-687.967
-687.999
-688.015
-688.043
-688.063
-688.088
-688.11
-688.132
-688.154
-688.176
-688.198
-688.218
-688.242
-688.258
-688.284
-688.302
-688.318
-688.352
-687.516
-687.543
-687.554
-687.587
-687.6
-687.625
-687.645
-687.667
-687.69
-687.712
-687.736
-687.76
-687.785
-687.809
-687.837
-687.857
-687.891
-687.906
-687.932
-687.97
-687.242
-687.251
-687.236
-687.256
-687.256
-687.264
-687.268
-687.273
-687.279
-687.285
-687.293
-687.303
-687.315
-687.329
-687.35
-687.371
-687.409
-687.43
-687.502
-687.559
-687.277
-687.335
-687.297
-687.286
-687.268
-687.251
-687.232
-687.211
-687.189
-687.163
-687.136
-687.105
-687.07
-687.031
-686.987
-686.938
-686.886
-686.817
-686.776
-686.613
2459.21
2706.5
2445.53
2482.26
2687.03
2979.32
2722.5
2752.22
2916.48
3165.11
2906.78
3097.04
3256.1
3103.42
3103.09
3188.15
3367.66
3195.62
3277.66
3307.47
3358.25
3376.2
3381.58
3393.47
3402.75
3412.12
3419.06
3440.75
3457.13
3520.33
3528.19
3536.4
3544.88
3553.6
3563.48
3573.62
3582.37
3590.42
3572.06
3605.76
3601.11
3643.69
3623.01
3642.7
3642.57
3652.82
3663.79
3658.82
3664.64
3664.8
3669.26
3673.23
3670.67
3674.42
3675.84
3675.56
3676.46
3676.04
3675.94
3675.65
1092.9
847.575
302.753
893.971
2177.82
3914.77
4353.15
4516.79
4228.92
3981.44
3831.67
3754.17
3718.99
3698.59
3704.79
3721.61
3658.46
3702.45
3668.88
1101.21
766.149
175.941
821.794
2139.12
3895.93
4342.16
4505.91
4219
3976.6
3826.87
3748.89
3714.17
3695.89
3704.95
3722.43
3654.99
3701.26
3667.43
1158.83
642.624
-13.9152
739.397
2071.1
3864.42
4323.6
4488.57
4204.05
3967.81
3820.75
3745.35
3708.87
3688.15
3700.59
3718.46
3647.07
3695.35
3665.73
1104.18
486.74
-249.299
627.985
1978.54
3823.49
4298.48
4467.27
4184.05
3954.92
3811.61
3739.28
3702.07
3678.87
3691.42
3708.6
3635.05
3683.08
3662.21
901.02
285.886
-525.042
491.092
1864.29
3776.92
4268.52
4444.13
4160.53
3938.64
3800.26
3732
3694.11
3667.35
3677.11
3693.24
3624.75
3675.86
3657.73
585.401
44.4931
-849.315
322.959
1731.77
3727.09
4234.85
4419.95
4133.6
3918.79
3786.38
3722.62
3683.83
3653.46
3659.2
3675.99
3619.94
3683.62
3652.45
159.679
-235.468
-1233.09
120.962
1582.11
3676.25
4198.51
4395.22
4103.4
3895.35
3770
3711.26
3671.06
3637.28
3639.2
3659.15
3615.93
3700.53
3646.06
-378.386
-556.883
-1691.06
-120.462
1415.27
3625.91
4160.11
4369.75
4069.45
3867.86
3750.75
3697.52
3655.4
3618.29
3617.63
3641.49
3607.9
3718.58
3638.06
-1029.46
-923.843
-2241.02
-408.66
1229.58
3577.16
4119.96
4342.86
4030.97
3835.72
3728.22
3681.03
3636.49
3595.9
3594.51
3622.76
3594.72
3734.87
3628.14
-1802.07
-1341.28
-2904.28
-753.711
1022.14
3529.74
4078
4313.27
3986.67
3797.97
3701.72
3661.1
3613.83
3569.61
3569.59
3602.55
3575.99
3748.78
3616.68
-2711.36
-1814.36
-3705.45
-1168.05
788.761
3482.13
4033.82
4279.1
3934.79
3753.37
3670.21
3636.8
3586.79
3538.9
3542.54
3579.97
3551.07
3761
3601.65
-3777.09
-2347.61
-4671.98
-1666.39
524.33
3437.28
3985.3
4237.66
3872.95
3700.85
3632.61
3606.79
3554.63
3503.22
3513.01
3554
3521.88
3772.37
3581.11
-5024.18
-2943.69
-5833.35
-2265.17
223.283
3398.45
3929.28
4185.89
3798.26
3638.88
3587.63
3569.87
3516.69
3462.03
3480.58
3523.38
3492.68
3782.78
3546.85
-6482.65
-3603.19
-7220.27
-2981.98
-120.986
3364.45
3863.44
4120.02
3707.28
3564.86
3533.19
3524.77
3472.32
3414.72
3444.65
3486.61
3466.86
3787.75
3504.14
-8189.01
-4321.82
-8863.77
-3834.76
-515.373
3334
3785.57
4035.89
3596.27
3475.57
3466.42
3469.7
3420.67
3360.52
3404.21
3441.19
3448.28
3776.63
3414.29
-10183.9
-5093.65
-10793.1
-4840.46
-966.044
3306.16
3694.47
3929.61
3461.68
3367.19
3383.5
3402.49
3360.85
3298.45
3358.25
3384
3438.72
3738.8
3255.98
-12521.6
-5899.01
-13032.3
-6012.58
-1476.65
3281.37
3590.84
3798.67
3300.94
3235.75
3279.95
3320.73
3291.89
3227.24
3304.64
3312.59
3434.92
3663.47
3019.09
-15249.9
-6730.08
-15594.5
-7358.35
-2048.22
3262.14
3478.33
3643.4
3113.61
3077.79
3151.54
3222.06
3212.89
3145.13
3239.55
3220.93
3430.82
3538.98
2688.79
-18472.2
-7524.95
-18476.1
-8873.59
-2676.65
3254.46
3363.76
3468.04
2904.01
2892.44
2996.6
3104.95
3123.29
3049.77
3157.61
3098.98
3420.77
3361.29
2258.21
-22189.7
-8322.15
-21646.8
-10541
-3337.79
3267.82
3255.02
3280.49
2682.08
2683.78
2818.76
2969.72
3023.4
2938.83
3051.48
2939.53
3404.27
3158.69
1720.77
4312.48
4229.47
4180.1
4123.61
4074.39
4026.9
3982.75
3941.09
3901.91
3864.96
3830.07
3797.06
3765.72
3735.99
3707.95
3680.86
3655.22
3635.54
3612.33
3575.2
3617.94
3595.02
3602.86
3591.46
3588.38
3581.42
3576.16
3570.61
3565.8
3561.52
3558.01
3555.33
3553.57
3552.8
3553.11
3554.52
3557.03
3560.25
3562.7
3564.96
3597.52
3590.79
3599.03
3592.2
3594.25
3590.98
3589.76
3587.29
3585.1
3582.64
3580.19
3577.69
3575.19
3572.75
3570.48
3568.85
3568.14
3569.13
3570.28
3572.53
3608.67
3605.72
3608.72
3603.01
3604.53
3600.93
3600.28
3598.29
3597.11
3595.87
3594.94
3594.23
3593.77
3593.62
3593.78
3594.48
3595.78
3597.93
3600.56
3603.39
3609.08
3608.56
3611.8
3609.62
3613.52
3612.74
3615.45
3616.42
3618.59
3620.48
3622.69
3624.86
3627
3628.91
3630.38
3631.2
3631.56
3631.88
3632.8
3634.3
3631.62
3630.7
3633.19
3631.22
3634.25
3632.98
3634.97
3634.65
3635.48
3635.35
3635.29
3634.75
3633.99
3632.91
3631.56
3629.81
3627.81
3626.33
3625.33
3622.99
3609.13
3604.98
3605.46
3601.4
3601.4
3597.88
3596.94
3594.08
3592.4
3590.01
3588.15
3586.27
3584.74
3583.37
3582.19
3580.92
3579.47
3578.09
3576.15
3573.81
3569.69
3565.11
3565.17
3561.53
3561.06
3557.72
3556.45
3553.48
3551.42
3548.61
3546.14
3543.57
3541.25
3539.14
3537.41
3535.92
3534.89
3534.71
3534.65
3536.9
3555.54
3553.52
3554.76
3552.7
3553.69
3551.88
3552.17
3550.92
3550.59
3549.75
3549.31
3549.03
3549.19
3549.86
3551.09
3552.94
3555.12
3557.81
3559.81
3563.28
3576.63
3577.58
3579.68
3579.61
3581.92
3582.27
3584.16
3585.2
3586.82
3588.31
3589.98
3591.75
3593.63
3595.63
3597.71
3599.9
3602.02
3604.34
3606.14
3609.01
3600.93
3603.02
3605.03
3605.77
3607.99
3608.91
3610.74
3612.04
3613.58
3615.02
3616.47
3617.91
3619.34
3620.78
3622.2
3623.66
3625.05
3626.61
3627.77
3629.41
3622.5
3624.67
3626.31
3627.23
3629.02
3629.89
3631.37
3632.47
3633.72
3634.92
3636.13
3637.35
3638.56
3639.74
3640.9
3642.09
3643.27
3644.63
3645.65
3646.96
3641.94
3644.26
3645.64
3646.93
3648.6
3649.72
3651.27
3652.41
3653.54
3654.31
3654.73
3654.65
3654.05
3653.04
3652.02
3651.44
3651.76
3652.54
3653.34
3653.47
3659.54
3660
3659.87
3659.67
3659.48
3658.76
3658.15
3656.99
3655.7
3654.05
3652.24
3650.27
3648.24
3646.24
3644.45
3643.12
3642.33
3641.73
3641.82
3640.35
3653.31
3650.17
3647.27
3644.71
3643.08
3641.29
3639.88
3638.29
3636.83
3635.12
3633.19
3630.82
3627.99
3624.76
3621.42
3618.41
3616.37
3616.06
3616.28
3612.66
3619.38
3613.11
3607.31
3602.65
3598.3
3593.45
3588.61
3583.58
3578.72
3574.17
3570.25
3567.02
3564.62
3563.14
3562.56
3562.89
3563.88
3564.46
3563.71
3561.81
3561.01
3554.7
3550.55
3549.22
3547.22
3545.1
3543.26
3541.61
3540.4
3539.58
3539.14
3538.92
3538.78
3538.62
3538.32
3537.93
3537.46
3537.06
3536.76
3538.86
3519.97
3519.9
3525
3532.21
3537.47
3541.58
3544.86
3547.49
3549.6
3551.18
3552.3
3553
3553.38
3553.57
3553.7
3554.07
3554.73
3556.23
3557.6
3560.15
3542.94
3549.59
3554.74
3560.63
3564.86
3568.53
3571.45
3573.77
3575.49
3576.72
3577.61
3578.33
3578.94
3579.66
3580.53
3581.71
3583.09
3584.96
3586.51
3588.74
3682.9
3686.52
3683.72
3679.77
3674.92
3670.18
3665.4
3660.7
3656.07
3651.75
3647.5
3644.2
3640.5
3636.07
3632.21
3628.8
3625.81
3622.87
3620.82
3617.09
)
;

boundaryField
{
    outletWallLeft
    {
        type            fixedValue;
        value           uniform 0;
    }
    fineWallsLeft
    {
        type            zeroGradient;
    }
    fineFrontAndBackLeft
    {
        type            zeroGradient;
    }
    fineplugLeft
    {
        type            cyclicAMI;
        value           nonuniform List<scalar> 
20
(
-1312.33
-1039.03
-1229.46
-1178.42
-1151.7
-1111.13
-1068.71
-1014.01
-993.985
-1033.04
-978.969
-874.177
-919.646
-866.898
-833.652
-793.042
-748.701
-686.625
-653.009
-641.143
)
;
    }
    symmetryWallLeft
    {
        type            cyclicAMI;
        value           nonuniform List<scalar> 
20
(
2265.37
1401.08
3048.98
3382.8
2832.49
2986.85
2874.64
2968.77
2894.05
2723.52
2572.61
2570.76
3184.82
3205.86
3288.39
-3664.96
-11431.1
-23344.5
-8616.98
-24512.1
)
;
    }
    inletOutletLeft
    {
        type            cyclicAMI;
        value           nonuniform List<scalar> 
20
(
-641.143
-653.009
-686.625
-748.701
-793.042
-833.652
-866.898
-919.646
-874.177
-978.969
-1033.04
-993.985
-1014.01
-1068.71
-1111.13
-1151.7
-1178.42
-1229.46
-1039.03
-1312.33
)
;
    }
    inletLeft
    {
        type            zeroGradient;
    }
    inletWallsLeft
    {
        type            zeroGradient;
    }
    inletFacesLeft
    {
        type            zeroGradient;
    }
    fineWallsRight
    {
        type            zeroGradient;
    }
    outletWallRight
    {
        type            zeroGradient;
    }
    fineplugRight
    {
        type            cyclicAMI;
        value           nonuniform List<scalar> 
20
(
3565.32
3571.89
3574.61
3579.34
3583.59
3588.19
3592.67
3600.55
3622.47
3622.06
3627.04
3632.14
3637.53
3643.04
3648.84
3654.66
3660.29
3665.06
3673.23
3667.47
)
;
    }
    fineFrontAndBackRight
    {
        type            zeroGradient;
    }
    symmetryWallRight
    {
        type            cyclicAMI;
        value           nonuniform List<scalar> 
20
(
2265.37
1401.08
3048.98
3382.8
2832.49
2986.85
2874.64
2968.77
2894.05
2723.52
2572.61
2570.76
3184.82
3205.86
3288.39
-3664.96
-11431.1
-23344.5
-8616.98
-24512.1
)
;
    }
    inletOutletRight
    {
        type            cyclicAMI;
        value           nonuniform List<scalar> 
20
(
3565.32
3571.89
3574.61
3579.34
3583.59
3588.19
3592.67
3600.55
3622.47
3622.06
3627.04
3632.14
3637.53
3643.04
3648.84
3654.66
3660.29
3665.06
3673.23
3667.47
)
;
    }
    inletRight
    {
        type            zeroGradient;
    }
    inletWallsRight
    {
        type            zeroGradient;
    }
    inletFacesRight
    {
        type            zeroGradient;
    }
}


// ************************************************************************* //
