/*--------------------------------*- C++ -*----------------------------------*\
| =========                 |                                                 |
| \\      /  F ield         | OpenFOAM: The Open Source CFD Toolbox           |
|  \\    /   O peration     | Version:  4.1                                   |
|   \\  /    A nd           | Web:      www.OpenFOAM.org                      |
|    \\/     M anipulation  |                                                 |
\*---------------------------------------------------------------------------*/
FoamFile
{
    version     2.0;
    format      ascii;
    class       surfaceScalarField;
    location    "30";
    object      phi;
}
// * * * * * * * * * * * * * * * * * * * * * * * * * * * * * * * * * * * * * //

dimensions      [0 3 -1 0 0 0 0];

internalField   nonuniform List<scalar> 
3120
(
-312674
-274181
-312674
-272658
-40016.6
-272658
-257856
-14802
-240770
-17085.7
-240770
-229415
-11354.7
-217628
-11787
-217628
-209094
-8534.07
-209094
-203021
-6072.93
-195509
-7512.27
-195509
-190048
-5461.24
-190048
-186432
-3616.22
-181025
-5406.19
-181025
-178826
-171886
-5053.6
-169828
-167894
-166051
-164416
-163257
-162925
-163315
-163487
-162762
-153426
-8004.04
-151941
-150514
-149154
-147857
-146817
-146625
-147560
-148469
-141975
-6493.66
-141975
-141975
-134127
-7847.74
-134127
-134127
-134127
-125850
-8277.22
-125850
-125850
-117084
-8765.95
-117084
-117084
-117084
-108881
-8202.96
-108881
-108881
-108881
-100933
-7948.44
-36214.5
530829
-43592.5
271517
-56648.4
225468
-29000.7
-274809
7812.26
-428412
29025.8
-376774
37954.6
-259851
39910.9
-151681
40694.9
-70018.3
39448.2
-3252.94
32652.8
54789.5
24872.7
76811.4
20056.9
69592
11482.4
78762.8
-2245.64
102251
-10888.9
112011
5896.89
-11108.9
22554.7
-127964
99975.3
-31760
571188
-42136.9
281894
-52510.4
235841
-23377.7
-303942
14011.4
-465801
34456.1
-397219
41087.7
-266483
40062.4
-150656
38814.8
-68770.9
37757.3
-2195.62
32128.5
60418.2
25023
83916.8
19517.6
75097.3
8601.54
89678.8
-5585.22
116438
-11814.2
118240
5196.24
-28119.5
21970.2
-144738
113742
-27351.1
608121
-40382.4
294926
-46517.3
241976
-15752.4
-334707
21785.3
-503339
41350.4
-416784
45867.7
-271000
41884.8
-146673
37754
-64640.1
35854.6
-296.12
31332.8
64940
24876.1
90373.6
17814.3
82159
4801.84
102691
-8551.78
129791
-12318.4
122006
4407.25
-44845.1
20894.9
-161226
125872
-23148.1
641805
-38280.4
310058
-38632.9
242329
-5982.36
-367357
31216.9
-540538
49651.8
-435219
52230.6
-273579
45823
-140265
38505.5
-57322.8
34462.7
3746.5
30390.5
69012.1
24235.7
96528.3
15001.8
91392.9
852.724
116840
-10608.3
141252
-12231.8
123630
3688.71
-60765.7
19345.4
-176882
136940
-19173
672491
-35958.2
326843
-28995.8
235366
5915.68
-402269
42243.3
-576865
59024.3
-452000
59555.1
-274110
51352
-132062
41113.4
-47084.2
33931.4
10928.7
29343.7
73599.8
22953.4
102919
11651.1
102695
-2388.41
130880
-11631.1
150495
-11717.7
123716
2896.19
-75379.6
17548.3
-191534
146640
-15419.7
700400
-33685.3
345109
-18048.4
219730
19756.1
-440073
54696.2
-611805
68844.3
-466148
66833.9
-272099
57267.2
-122495
44701.4
-34518.5
34049.4
21580.5
28149.1
79500.1
21048.4
110019
8492.27
115251
-4419.63
143792
-11819.4
157895
-11112.6
123009
1759.13
-88251.4
15423.7
-205199
155570
-11916.8
725789
-31760.2
364952
-6264.45
194234
35293.9
-481631
68164.6
-644676
78091.6
-476075
72646.4
-266654
62012.8
-111862
48033.4
-20539
34315.7
35298.3
26739
87076.8
18715.9
118042
5930.35
128037
-5306.24
155028
-11457.8
164046
-10698.2
122250
52.0398
-99001.6
13441.3
-218588
161008
-8668.35
748907
-30667.8
386952
5900.33
157666
52295.7
-528027
81866.5
-674247
85191.6
-479400
74801.6
-256264
63436
-100496
49675
-6778.14
34174.4
50798.9
25068.8
96182.3
16236.4
126875
4061.27
140212
-5386.05
164476
-10742.4
169403
-10559.9
122067
-2300.91
-107261
12160.9
-233050
168115
-5660.35
770025
-31131.4
412423
17186.6
109348
70487
-581327
94756.8
-698517
88044.7
-472688
70041.1
-238261
58112.3
-88567.4
47599.8
3734.44
33036.9
65361.9
23139.2
106080
13867.2
136147
2815.39
151264
-4991.21
172282
-9762.68
174174
-10605.3
122910
-5182.41
-112683
10743.7
-248976
173453
-2592.7
789055
-33977.3
443807
25078.8
50291.5
89541.1
-645789
105595
-714571
84687.4
-451780
55215.6
-208789
42429.5
-75781.4
39599.1
6564.68
30287.6
74673.3
20964.1
115404
11770
145341
2073.84
160960
-4322.09
178678
-8531.02
178383
-10655.7
125035
-8455.24
-114884
8255.89
-265687
178092
260.073
806338
-43376.6
487444
26395
-19480
109100
-728494
113309
-718781
75027.3
-413498
32421.2
-166183
19022.5
-62382.7
26758.6
-1171.33
26163.1
75268.9
18646.6
122920
10024.1
153963
1715.35
169269
-3481.59
183875
-7064.7
181966
-10539
128509
-11788.2
-113635
6092.67
-283568
178724
4919.7
819770
-50138.4
542502
47549.3
-117168
129142
-810086
117194
-706833
62342.9
-358647
14029
-117869
2596.52
-50950.3
15295.3
-13870.3
21618.4
68945.7
16265.6
128273
8612.96
161616
1642.16
176240
-2483.87
188001
-5313.76
184796
-10033.8
133229
-14822.1
-108847
4814.42
-303205
176026
11172.2
828508
-39561.3
593235
82754.8
-239484
149133
-876465
116712
-674412
50465.9
-292401
7961.01
-75364
2656.81
-45646.1
11907.2
-23120.5
17790.9
63062.1
14000.4
132064
7556.12
168060
1744.86
182051
-1420.28
191166
-3391.75
186767
-8913.6
138751
-17096.1
-100664
2983.33
-323284
172936
20519.8
827942
-19635.6
633391
120867
-379986
166829
-922427
110264
-617846
37890.6
-220028
4339.88
-41813.3
3509.63
-44815.9
10050.8
-29661.7
14663.6
58449.2
11777.6
134949
6714.21
173124
1975.34
186790
-192.374
193334
-1077.65
187653
-6501.81
144175
-17924.6
-89241.2
2073.74
-343282
166476
26928.8
824952
3119.03
657201
162203
-539070
178818
-939042
94868.1
-533896
21339.3
-146499
-181.358
-20292.7
1684.12
-46681.3
7561.62
-35539.1
12801.7
53209.3
10192.1
137559
6289.44
177026
2157.39
190922
785.378
194706
825.71
187612
-2697.86
147699
-16521.2
-75417.7
2664.14
-362468
157353
35314.2
808523
34704.7
657810
205367
-709732
179775
-913450
68762.5
-422884
4208.34
-81945
-1296.83
-14787.7
635.89
-48614.2
5157.55
-40060.9
10312.1
48054.6
8272.48
139599
5858.36
179440
2608.03
194172
2350.97
194963
3864.2
186099
3465.51
148097
-12740.2
-59212.2
2472.38
-377680
148471
56876.6
787395
81128.7
633558
248724
-877328
163188
-827914
35069.3
-294765
-6930.57
-39945.1
378.639
-22096.8
-263.476
-47972
4745.96
-45070.2
10908.2
41892.4
8145.89
142361
5982.81
181603
1994.37
198161
1762.33
195195
3609.88
184252
8470.22
143237
-8019.9
-42722
4721.97
-390422
136107
-13341.6
799993
95359.9
524857
280958
-1.06293e+06
120158
-667113
1904.58
-176512
-10010.5
-28030
52.4148
-32159.8
-1983.44
-45936.2
258.768
-47312.4
5049.19
37102
5735.66
141675
6892.83
180446
5169.35
199884
7388.02
192976
11640.5
179999
23850.6
131027
-685.194
-18186.2
7347.63
-398455
128653
363221
516647
265633
622445
270874
-1.06817e+06
38692.8
-434932
-23716.3
-114103
-7556.35
-44189.9
-623.177
-39093
-3710.54
-42848.8
4758.57
-55781.5
15537.5
26323.1
7454.43
149758
1532.04
186369
-7072.71
208489
-10087.9
195992
-10402.2
180313
32876.8
87748
25701.4
-11010.8
7177.73
-379931
95814.1
-1.45478e+06
491852
164090
-26195.9
-14079.4
-3202.62
-329.596
-3850.2
-19042.5
-16176.3
11739.7
31177.8
40262.2
52465.4
60352.5
90418.7
62492.3
-86874.5
-1118.29
-1081.4
-1675.36
-1329.76
-2360.92
-1372.36
-2910.65
-1383.73
-3352.68
-1401.26
-3622.57
-1365.15
-3599.54
-1181.86
-3164.25
-767.443
-2424.41
-349.897
-1804.27
-448.086
-1517.75
-1011.68
-1542.31
-1306.89
-1673.37
-1353.83
-1789.74
-1311.05
-1858.48
-1291
-1873.3
-1282.47
-1723.02
-1189.77
-1215.46
-700.103
-463.079
182.153
446.237
-399.833
-681.578
-656.682
-1072.92
-1011.15
-1017.89
-1378.39
-1016.51
-1747.45
-1032.2
-2051.25
-1061.34
-2135.5
-1097.62
-1795.54
-1107.41
-1070.74
-1074.71
-460.804
-1058.04
-390.231
-1082.27
-644.034
-1053.1
-980.875
-1017.02
-1278.78
-1013.16
-1550.06
-1019.74
-1787.35
-1045.2
-1876.65
-1100.5
-1464.2
-1112.6
-474.671
-807.48
-28.4346
21.4973
-703.091
44.1916
-1095.62
83.9846
-1057.7
100.83
-1033.36
100.948
-1032.33
67.853
-1028.26
-8.78091
-1021
-104.354
-1011.84
-168.71
-1010.37
-213.097
-1013.66
-286.471
-1008.91
-336.388
-1003.19
-344.945
-1008.47
-346.137
-1011.98
-355.201
-1010.69
-395.163
-1005.24
-487.048
-1008.63
-549.242
-1050.42
-370.967
-985.787
-399.402
-36.913
-666.175
-68.4234
-1064.11
-106.37
-1019.75
-138.79
-1000.94
-167.434
-1003.68
-190.3
-1005.39
-203.453
-1007.85
-205.759
-1009.53
-206.256
-1009.87
-212.256
-1007.66
-214.875
-1006.29
-210.894
-1007.17
-212.325
-1007.04
-218.166
-1006.13
-224.439
-1004.42
-226.905
-1002.77
-229.746
-1005.79
-237.724
-1042.44
-174.469
-1049.04
-573.871
12.4072
-678.586
12.9004
-1064.6
13.6525
-1020.5
11.7553
-999.041
7.98319
-999.915
2.35747
-999.764
-5.4122
-1000.08
-15.2452
-999.701
-25.2201
-999.899
-32.6871
-1000.19
-38.1942
-1000.79
-44.6257
-1000.74
-51.3615
-1000.31
-57.5243
-999.974
-62.4175
-999.529
-66.0186
-999.173
-73.2011
-998.611
-91.2881
-1024.36
-78.906
-1061.43
-652.777
13.3376
-691.924
8.8191
-1060.08
1.69429
-1013.38
-2.91712
-994.43
-7.18832
-995.644
-11.0819
-995.871
-14.619
-996.542
-17.6524
-996.667
-20.3987
-997.153
-23.332
-997.257
-26.6776
-997.443
-29.8803
-997.535
-32.4393
-997.751
-34.2727
-998.14
-35.5697
-998.232
-36.3523
-998.39
-36.9489
-998.015
-43.3711
-1017.94
-41.9344
-1062.87
-694.711
18.7282
-710.652
16.5619
-1057.92
12.6926
-1009.51
10.4766
-992.213
8.15602
-993.323
5.71665
-993.431
3.15545
-993.981
0.515351
-994.026
-2.19431
-994.443
-4.84522
-994.606
-7.30913
-994.979
-9.59241
-995.251
-11.8015
-995.542
-14.0858
-995.855
-16.3388
-995.979
-18.4477
-996.281
-20.6196
-995.844
-26.256
-1012.3
-28.028
-1061.1
-722.739
19.8619
-730.513
17.0429
-1055.1
12.5397
-1005
10.401
-990.074
8.31629
-991.238
6.2357
-991.35
4.14205
-991.886
2.0896
-991.973
0.0442399
-992.397
-1.98104
-992.58
-4.01838
-992.941
-6.08379
-993.185
-8.12581
-993.499
-10.1341
-993.847
-12.0202
-994.093
-13.8222
-994.479
-15.5563
-994.109
-20.0021
-1007.86
-23.0029
-1058.09
-745.742
20.4117
-750.924
17.1856
-1051.87
13.1449
-1000.96
11.2937
-988.222
9.43319
-989.377
7.54804
-989.464
5.62701
-989.965
3.71663
-990.062
1.78497
-990.465
-0.140958
-990.654
-2.06497
-991.017
-3.98116
-991.268
-5.86889
-991.611
-7.77443
-991.941
-9.64254
-992.224
-11.5213
-992.6
-13.3526
-992.278
-17.4319
-1003.78
-21.1366
-1054.39
-766.879
20.4585
-771.382
16.6216
-1048.03
12.7889
-997.129
11.0655
-986.498
9.30866
-987.62
7.53937
-987.694
5.73878
-988.164
3.95258
-988.276
2.14604
-988.658
0.344785
-988.852
-1.46582
-989.206
-3.28537
-989.449
-5.09883
-989.798
-6.93945
-990.1
-8.74409
-990.42
-10.5666
-990.777
-12.3077
-990.537
-16.0776
-1000.01
-20.4063
-1050.06
-787.285
20.3946
-791.776
15.9444
-1043.58
12.3876
-993.572
10.7694
-984.88
9.0902
-985.94
7.40178
-986.005
5.68173
-986.444
3.97417
-986.568
2.24383
-986.928
0.518031
-987.126
-1.2204
-987.467
-2.96525
-987.704
-4.706
-988.057
-6.47253
-988.333
-8.21008
-988.682
-9.98007
-989.007
-11.6544
-988.862
-15.154
-996.507
-20.075
-1045.14
-807.36
20.2735
-812.051
15.2026
-1038.51
11.9139
-990.284
10.3842
-983.351
8.77309
-984.33
7.15819
-984.391
5.51242
-984.799
3.87891
-984.935
2.22177
-985.271
0.569936
-985.475
-1.0974
-985.801
-2.76975
-986.032
-4.44334
-986.384
-6.14144
-986.636
-7.8152
-987.009
-9.52622
-987.296
-11.1263
-987.262
-14.3672
-993.266
-19.88
-1039.63
-827.24
20.1449
-832.195
14.4526
-1032.82
11.4366
-987.268
9.98467
-981.899
8.43805
-982.783
6.89164
-982.845
5.31505
-983.222
3.75034
-983.37
2.16141
-983.682
0.578573
-983.892
-1.022
-984.2
-2.62472
-984.429
-4.23303
-984.775
-5.86131
-985.007
-7.46987
-985.4
-9.11832
-985.648
-10.6474
-985.733
-13.6282
-990.286
-19.731
-1033.52
-846.971
20.0186
-852.215
13.7037
-1026.51
10.9628
-984.528
9.58317
-980.52
8.10196
-981.302
6.62428
-981.368
5.1166
-981.715
3.62044
-981.875
2.09971
-982.162
0.585153
-982.378
-0.948758
-982.667
-2.4822
-982.896
-4.02649
-983.232
-5.5848
-983.45
-7.13021
-983.855
-8.71496
-984.064
-10.178
-984.271
-12.9011
-987.563
-19.5924
-1026.83
-866.563
19.9101
-872.126
12.9648
-1019.56
10.5005
-982.064
9.18871
-979.209
7.77411
-979.888
6.36598
-979.96
4.92663
-980.276
3.49848
-980.447
2.04597
-980.71
0.598408
-980.931
-0.868785
-981.2
-2.3334
-981.432
-3.81441
-981.751
-5.30114
-981.963
-6.78485
-982.372
-8.30319
-982.546
-9.7047
-982.869
-12.1721
-985.096
-19.4458
-1019.56
-886.009
19.8439
-891.97
12.2548
-1011.97
10.0739
-979.884
8.83248
-977.968
7.48872
-978.545
6.15436
-978.627
4.78373
-978.906
3.42199
-979.086
2.03567
-979.324
0.649827
-979.546
-0.755202
-979.796
-2.15796
-980.03
-3.58227
-980.327
-5.002
-980.544
-6.43263
-980.942
-7.88419
-981.095
-9.23129
-981.523
-11.4481
-982.879
-19.2843
-1011.72
-905.293
19.867
-911.838
11.613
-1003.72
9.7438
-978.015
8.60029
-976.825
7.34862
-977.294
6.11026
-977.389
4.82624
-977.623
3.54306
-977.804
2.23276
-978.014
0.912473
-978.226
-0.429975
-978.453
-1.77824
-978.682
-3.15598
-978.95
-4.5259
-979.174
-5.93029
-979.538
-7.33386
-979.691
-8.66789
-980.189
-10.6723
-980.875
-19.0364
-1003.36
-924.33
20.0762
-931.914
11.1012
-994.746
9.58881
-976.503
8.60361
-975.84
7.48183
-976.172
6.36998
-976.277
5.20122
-976.454
4.01589
-976.618
2.79806
-976.797
1.5567
-976.985
0.288181
-977.185
-0.998191
-977.396
-2.31931
-977.629
-3.64034
-977.854
-5.02119
-978.157
-6.3801
-978.332
-7.75949
-978.81
-9.59892
-979.036
-18.4195
-994.54
-942.749
20.7985
-952.713
11.0688
-985.016
9.9638
-975.398
9.25054
-975.127
8.35603
-975.278
7.43059
-975.352
6.42224
-975.446
5.35071
-975.547
4.21153
-975.658
3.00733
-975.781
1.74006
-975.918
0.415496
-976.072
-0.968683
-976.245
-2.38617
-976.436
-3.87527
-976.668
-5.32885
-976.879
-6.87916
-977.259
-8.53148
-977.383
-17.5624
-985.51
-960.312
22.2871
12.2707
11.8722
11.7451
11.4668
11.1148
10.6687
10.1214
9.46355
8.68245
7.76438
6.69271
5.44781
4.01144
2.34337
0.464317
-1.79509
-4.17863
-14.6882
-100933
-92606.4
-8326.39
-92606.4
-92606.4
-92606.4
-83605.3
-9001.15
-83605.3
-83605.3
-83605.4
-74225.8
-9379.51
-74225.9
-74225.9
-66087.1
-8138.8
-66087.1
-66087.1
-66087.1
-59952.8
-6134.33
-59952.9
-59952.9
-55686.1
-4266.82
-55121
-54554.4
-53956
-53327.5
-52661.8
-51958.2
-51215
-50432.2
-45705.3
-3897.87
-44784.3
-43800.2
-42742
-41606.2
-40380.7
-39042.9
-37559.1
-35913.6
-34202.8
-25851.9
-6961.97
-25326.4
-25326.5
-20983.9
-4342.64
-17485.9
-3498.04
-17486
-14733.8
-2752.21
-14733.9
-12515.7
-2218.35
-10661.4
-1854.41
-10661.5
-9130.31
-1531.25
-9130.42
-7606.28
-1524.29
-5864.25
-1742.18
-5864.37
-3779.22
-2085.41
-1747.13
-2032.37
-1747.38
432.086
-2180.05
431.144
431.082
2811.87
-2812.06
-23108.7
25920.5
-41583.3
18474.5
-40001.8
-1581.53
-29386.8
-10615.1
-13636.4
-15750.4
-2318.74
-11317.8
8324.88
-10643.8
14459.8
-6135.07
17671.6
-3211.93
18359.9
-688.409
16962.2
1397.63
13642.1
3319.9
8983.31
4658.71
5408.29
3574.85
3470.53
1937.54
-942.201
4412.47
1301.41
-2244.01
1732.04
-17543.8
14731.6
-36229.9
44606.6
-43891.3
26135.9
-37659.5
-7813.42
-27715.5
-20559.1
-12369.9
-31096.1
-1118.47
-22569.4
8441.82
-20204.2
14441.5
-12134.9
17306.5
-6077.08
18226.2
-1608.29
18394.9
1228.76
17345.8
4368.96
14004.4
7999.96
8758.49
8820.59
2726.57
7969.27
-1240.31
8379.15
1838.91
-5323.48
1390.5
-24643.3
39374.9
-37725.1
57688.3
-42144.2
30555
-36556.5
-13401.2
-26234.4
-30881.1
-11346.4
-45984.2
-106.297
-33809.5
8785.15
-29095.6
14410.5
-17760.3
17066.2
-8732.87
17733.4
-2275.57
17359.3
1602.72
16311.9
5416.32
13933
10378.8
8035.07
14718.4
1082.59
14921.7
-1507.09
10968.7
2076.11
-8906.81
1433.96
-26143.1
65518
-36423.1
67968.3
-40692.3
34824.2
-35680.5
-18413.1
-25017.1
-41544.6
-10363
-60638.3
908.572
-45081.2
9330.17
-37517.3
14587.3
-23017.6
17007.9
-11153.5
17584.3
-2852.13
16949.4
2237.44
15299.7
7065.9
12990.7
12687.7
7446.4
20262.6
731.035
21636.9
-1118.99
12818.6
2008.91
-12034.9
1357.04
-25510.1
91028.1
-34943
77401.2
-39963.6
39844.7
-34869
-23507.7
-23945.1
-52468.5
-9355.47
-75228
2001.46
-56438.1
10069.6
-45585.5
14975.2
-27923.2
17150.3
-13328.7
17592.4
-3294.41
16827
3002.84
14747.6
9145.24
12326.1
15109.1
8447.36
24141.3
3755.75
26328.5
1279.8
15294.5
2113.48
-12868.7
1728.1
-24273.7
115302
-33882.2
87009.6
-39832.3
45794.8
-34244.3
-29095.8
-22940.1
-63772.7
-8281.94
-89886.1
3217.84
-67938
11019.1
-53386.8
15589.1
-32493.4
17499.4
-15239.1
17755.4
-3550.58
16831.9
3926.17
14526.9
11450
11970.5
17665.5
9822.05
26289.6
7854.71
28295.8
4458.42
18690.7
2634.16
-11044.6
2837.64
-23094.3
138396
-33315.8
97231.1
-40194.1
52673.1
-33885.7
-35404.2
-21963
-75695.4
-7106.4
-104743
4590.71
-79635.1
12193.7
-60989.8
16443.2
-36742.9
18065.2
-16861.2
18083.9
-3569.36
16939.7
5070.33
14511.5
13878.2
11823
20354
10536.1
27576.5
10088.1
28743.7
6065.1
22713.7
3239.43
-8219
4545.72
-22244.8
160641
-33226.5
108213
-41017.1
60463.7
-33821.8
-42599.7
-20979.3
-88537.9
-5792.23
-119930
6148.68
-91576
13609.1
-68450.2
17550.5
-40684.4
18866
-18176.8
18593.3
-3296.91
17159
6504.48
14616.6
16420.5
11833.3
23137.3
10652.2
28757.5
10431.3
28964.5
6011.72
27133.2
3608.75
-5816.26
6299.85
-21809.3
182450
-33583.1
119987
-42283.4
69164
-34032.1
-50850.9
-19945.4
-102625
-4296.39
-135579
7922.33
-103795
15281.1
-75809
18921
-44324.3
19918.8
-19174.6
19300.5
-2678.63
17500.1
8304.8
14803
19117.7
11961.6
25978.6
10566.8
30152.2
9850.01
29681.4
5051.58
31931.6
3628.45
-4393.24
7709.91
-21786.7
204237
-34344.7
132545
-43951.2
78770.4
-34461.1
-60341.1
-18809.6
-118276
-2572.73
-151816
9945.64
-116313
17228.9
-83092.3
20565.3
-47660.8
21236.9
-19846.4
20218.2
-1660.15
17965.2
10557.8
15057.2
22025.5
12171.6
28864.1
10503.3
31820.5
8966.08
31218.4
3856.47
37041.1
3755.41
-4292.46
8712.95
-22143.6
226380
-35455.2
145856
-45948.6
89263.9
-35033.4
-71256.3
-17523.4
-135786
-581.64
-168758
12251.2
-129146
19472.5
-90313.6
22496.7
-50684.9
22821.4
-20171.2
21327.8
-166.532
18529
13356.5
15364.5
25190
12429.8
31798.9
10482.9
33767.4
7969.68
33731.7
3014.84
41995.9
4491.87
-5769.53
9706.77
-22837.1
249217
-36839.3
159858
-48181.6
100606
-35671.8
-83766.1
-16057.6
-155400
1696.78
-186512
14858.8
-142308
22026.6
-97481.4
24729
-53387.5
24614.2
-20056.5
22524.9
1922.51
19129.2
16752.1
15699.2
28620
12698.2
34799.8
10424.2
36041.3
6833.5
37322.3
2673.18
46156.1
5659.66
-8756.2
11023.6
-23823.3
273041
-38403.1
174438
-50545.5
112749
-36306.3
-98005.4
-14421
-177286
4251.51
-205184
17771.7
-155828
24884.6
-104594
27263.3
-55766.2
26603.7
-19396.9
23779.7
4746.51
19744.5
20787.4
16045.1
32319.3
12937.3
37907.6
10223.8
38754.8
5484.89
42061.2
2597.1
49043.9
7405.94
-13565
11467.6
-25060.8
298101
-40039.7
189417
-52932.1
125641
-36876.4
-114061
-12624.3
-201538
7026.72
-224836
20923
-169725
27994.5
-111666
30075.7
-57847.5
28833.1
-18154.5
25150.4
8429.09
20394.1
25543.6
16404
36309.4
13118.6
41192.9
9814.64
42058.7
3888.48
47987.3
2667.76
50264.5
10191.5
-21088.8
17761
-26516.5
324618
-41632.7
204533
-55222
139230
-37320.5
-131963
-10686.2
-228172
9931.32
-245453
24180.5
-183974
31235.4
-118721
33093.7
-59705.8
31274.8
-16335.5
26628.5
13075.5
21079.3
31092.7
16785.2
40603.5
13234
44744.1
9170.03
46122.7
2025.91
55131.4
2886.89
49403.5
13443.8
-31645.7
26938.1
-28173
352791
-43063.3
219424
-57273.7
153441
-37551
-151685
-8610.78
-257112
12860.5
-266924
27349.2
-198462
34398.3
-125770
36162.1
-61469.7
33847
-14020.6
28183.6
18738.8
21798.5
37477.7
17206.2
45195.8
13295.3
48654.9
8184.1
51233.9
-122.787
63438.3
3170.7
46109.9
16212.6
-44687.6
37016.3
-30006.5
382797
-44206
233623
-58909
168144
-37436.8
-173158
-6358.31
-288191
15735.7
-289018
30200.4
-212927
37183.4
-132753
39010.5
-63296.9
36385.1
-11395.1
29766
25358
22564.2
44679.5
17709.8
50050.2
13348.1
53016.6
6813.43
57768.6
-2458.74
72710.5
3485.15
40166.1
18559.6
-59762.1
47437.2
-32119.3
414917
-44940.2
246444
-59922.8
183126
-36791.9
-196289
-3819.67
-321163
18562.7
-311401
32547.4
-226912
39239.9
-139445
41244
-65301.1
38588.5
-8739.85
31228.4
32718
23345.5
52562.3
18342.4
55053.2
13450.8
57908.1
5190.21
66029.1
-4831.35
82732
3813.69
31520.9
20433.1
-76381.5
58490.6
-34083.2
449000
-45150.6
257511
-60059.9
198036
-35373.9
-220975
-800.945
-355736
21492.3
-333694
34374
-239794
40287.5
-145359
42397.6
-67411.1
40011.7
-6353.81
32287.4
40442.4
24030.8
60819
19081.6
60002.5
13506.4
63483.3
3260.05
76275.5
-7188.87
93180.9
4206.26
20125.9
21733.3
-93908.4
71222.8
-38071
-44699
-59075.5
-32888.8
2974.18
24840.6
35969.2
40334.8
42157.8
40303.3
32751.4
24539
19765.2
13060.1
812.692
-9373.8
5074.97
22472.6
-678.505
1653.5
-1102.29
1398.78
-1535.25
1407.96
-1883.96
1323.71
-2193.89
1284.93
-2453.75
1234.86
-2671.4
1192.65
-2846.18
1149.78
-2979.63
1108.45
-3071.87
1067.25
-3123.15
1026.28
-3133.07
984.917
-3099.6
941.534
-3015.49
890.892
-2862.63
822.133
-2609.23
721.605
-2214.46
580.226
-1640.21
400.754
-882.535
217.321
92.4655
-207.816
1861.32
-461.801
1652.77
-730.705
1676.87
-956.069
1549.07
-1171.93
1500.79
-1354.13
1417.07
-1512.81
1351.33
-1642.93
1279.89
-1747.16
1212.68
-1825.04
1145.12
-1877.5
1078.74
-1904.42
1011.84
-1903.59
940.698
-1866.34
853.647
-1773.25
729.042
-1590.99
539.345
-1293.58
282.816
-865.08
-27.7488
-422.943
-224.817
-330.477
-129.653
1990.97
-289.275
1812.39
-410.089
1797.68
-486.093
1625.07
-551.622
1566.32
-583.147
1448.59
-598
1366.18
-589.964
1271.85
-563.762
1186.48
-519.338
1100.7
-458.202
1017.6
-380.756
934.39
-288.046
847.988
-184.217
749.817
-80.1297
624.954
6.74699
452.466
57.7299
231.83
84.7283
-54.7507
17.1811
-157.271
-313.296
26.3746
1964.6
14.998
1823.76
27.1489
1785.53
58.998
1593.22
89.055
1536.26
140.827
1396.82
196.497
1310.51
267.027
1201.32
345.422
1108.08
432.81
1013.31
526.363
924.049
625.281
835.472
726.864
746.404
824.793
651.888
903.202
546.544
927.083
428.584
855.395
303.517
590.292
210.351
297.484
135.536
-15.8121
41.8969
1922.7
56.1004
1809.56
82.9754
1758.65
105.424
1570.77
127.114
1514.57
150.97
1372.96
168.035
1293.44
183.71
1185.65
195.699
1096.09
214.142
994.867
245.157
893.034
294.629
785.999
368.401
672.631
474.741
545.546
610.919
410.365
739.937
299.566
780.919
262.535
664.197
327.073
384.154
415.577
368.342
-48.0413
1970.74
-97.0739
1858.59
-145.418
1807
-215.467
1640.82
-282.399
1581.5
-364.186
1454.75
-456.441
1385.7
-561.434
1290.64
-670.766
1205.42
-766.021
1090.12
-830.981
957.993
-855.037
810.054
-832.603
650.196
-762.021
474.964
-655.478
303.821
-525.834
169.921
-367.273
103.973
-172.415
132.214
-12.2148
255.376
356.127
-42.2845
2013.02
-150.998
1967.3
-226.804
1882.8
-314.4
1728.42
-401.167
1668.27
-495.177
1548.76
-595.446
1485.97
-701.61
1396.8
-813.135
1316.94
-921.873
1198.86
-1021.07
1057.19
-1103.58
892.565
-1170.91
717.526
-1229.07
533.118
-1280.19
354.939
-1293.66
183.393
-1212.46
22.7758
-963.585
-116.664
-508.162
-200.047
-152.035
107.774
1905.25
-8.66875
2083.75
-54.0722
1928.2
-83.7602
1758.11
-104.74
1689.25
-124.082
1568.1
-134.48
1496.37
-138.885
1401.21
-139.787
1317.85
-147.507
1206.58
-167.087
1076.77
-199.292
924.768
-243.052
761.286
-297.807
587.872
-353.908
411.039
-395.34
224.823
-410.646
38.0804
-418.847
-108.464
-325.579
-293.317
-477.614
251.701
1653.55
214.749
2120.7
209.614
1933.34
242.362
1725.36
298.798
1632.81
354.941
1511.95
426.716
1424.59
504.982
1322.94
592.627
1230.2
672.498
1126.71
734.077
1015.19
766.197
892.648
764.657
762.824
724.834
627.694
645.851
490.022
523.407
347.266
360.817
200.668
221.396
30.9558
80.8582
-152.78
-396.756
254.009
1399.54
288.881
2085.83
300.177
1922.04
342.394
1683.14
410.766
1564.44
477.122
1445.6
551.153
1350.56
626.358
1247.74
706.085
1150.47
781.198
1051.59
844.185
952.205
885.595
851.237
899.146
749.273
880.193
646.647
826.26
543.954
734.682
438.843
603.964
331.385
427.066
207.853
213.542
60.7425
-183.213
163.177
1236.36
218.585
2030.42
248.348
1892.28
289.976
1641.51
349.973
1504.44
409.405
1386.16
470.502
1289.46
528.918
1189.32
585.707
1093.68
636.937
1000.36
679.034
910.106
707.85
822.42
720.755
736.368
716.03
651.371
691.564
568.42
640.631
489.776
551.96
420.056
409.364
350.448
208.594
261.511
25.381
52.6367
1183.72
103.48
1979.57
160.855
1834.9
218.18
1584.19
284.536
1438.08
352.651
1318.05
420.635
1221.48
486.685
1123.27
550.633
1029.74
612.794
938.203
673.865
849.036
735.032
761.253
795.671
675.73
849.117
597.924
878.837
538.7
857.338
511.274
758.873
518.521
567.975
541.346
300.83
528.655
326.211
-71.1047
1254.83
-12.7931
1921.26
78.8026
1743.31
138.089
1524.9
186.247
1389.92
231.872
1272.42
283.191
1170.16
347.388
1059.07
429.861
947.26
536.709
831.354
670.423
715.321
827.153
604.521
989.09
513.792
1121.18
465.835
1177.8
482.074
1122.83
566.249
946.441
694.908
663.264
824.524
330.553
861.365
656.764
-153.552
1408.38
-181.739
1949.45
-151.833
1713.4
-156.907
1529.97
-202.602
1435.62
-266.523
1336.34
-322.828
1226.46
-358.938
1095.18
-369.171
957.493
-351.269
813.452
-304.949
669.001
-232.191
531.763
-137.488
419.09
-26.6461
354.993
90.9587
364.47
196.215
460.993
254.022
637.101
229.332
849.214
120.084
970.614
776.848
45.0371
1363.34
-33.5333
2028.02
-211.04
1890.91
-385.98
1704.91
-558.058
1607.7
-743.229
1521.51
-933.744
1416.98
-1121.15
1282.59
-1301.84
1138.19
-1477.22
988.832
-1646.73
838.503
-1801.8
686.842
-1920.35
537.64
-1965.22
399.861
-1892.24
291.482
-1666.1
234.859
-1281.84
252.838
-786.511
353.888
-303.625
487.729
473.223
516.553
846.791
845.14
1699.43
738.183
1997.87
480.758
1962.34
252.155
1836.3
57.0705
1716.6
-129.348
1603.4
-320.603
1473.84
-515.602
1333.19
-712.553
1185.78
-910.044
1036
-1105.85
882.644
-1293.75
725.546
-1460.46
566.579
-1580.43
411.457
-1603.84
258.27
-1454.78
103.773
-1093.88
-7.00027
-541.408
-64.7398
-68.1855
717.03
129.761
1236.13
1180.33
1254.95
1979.05
1081.1
2136.19
922.391
1995.01
814.529
1824.46
731.496
1686.43
645.309
1560.03
548.275
1430.22
440.948
1293.11
325.875
1151.07
203.546
1004.97
73.9623
855.126
-59.6442
700.181
-186.749
538.556
-296.329
367.844
-379.942
187.38
-382.345
-4.60339
-297.339
-149.749
-365.525
242.895
-113.12
275.724
1147.5
243.62
2011.15
262.15
2117.67
315.622
1941.54
384.425
1755.66
460.201
1610.66
535.55
1484.68
604.853
1360.92
663.68
1234.28
709.766
1104.98
740.09
974.648
751.496
843.721
737.788
713.89
690.471
585.875
601.2
457.114
461.54
327.046
271.22
185.725
102.283
19.1964
-263.241
-273.725
160.624
-550.355
1424.14
-544.5
2005.3
-390.8
1963.97
-209.407
1760.15
-26.3524
1572.61
156.493
1427.81
333.354
1307.82
496.942
1197.33
641.09
1090.14
759.966
986.111
854.183
880.437
911.971
785.937
928.372
697.495
903.351
610.905
834.783
525.688
721.339
440.507
555.27
351.816
336.045
238.459
72.8064
-364.823
-329.552
-35.0136
283.38
559.708
794.509
996.755
1168.82
1307.91
1413.85
1478.98
1530.42
1533.6
1487.81
1395.08
1255.04
1067.1
820.49
492.411
)
;

boundaryField
{
    outletWallLeft
    {
        type            calculated;
        value           nonuniform List<scalar> 
40
(
-7543.3
-8599.31
-9581.48
-10536.7
-11512.1
-12490.1
-13471.6
-14449.5
-15458.5
-16436.8
-17543.6
-18351.3
-19909.7
-19954.2
-23938.5
-18885.4
-35748.7
743.493
-79875.2
75824.2
586855
-265242
-230564
16915.6
57681.8
172426
183788
199404
166930
121842
23456.8
-40589.3
-39328.2
-41966
-55066.6
-126219
-244646
-740406
-1.32419e+06
1.89561e+06
)
;
    }
    fineWallsLeft
    {
        type            calculated;
        value           uniform 0;
    }
    fineFrontAndBackLeft
    {
        type            calculated;
        value           nonuniform List<scalar> 
880
(
-2.11568e-09
1.32616e-10
-1.16694e-10
6.53742e-12
5.17731e-12
2.37238e-11
5.41905e-12
2.16267e-11
1.21162e-11
1.67782e-12
6.2067e-12
2.24876e-12
1.00232e-11
9.52901e-12
3.20526e-12
1.55187e-11
5.11924e-12
2.63931e-11
2.82791e-11
1.05977e-11
3.18922e-12
2.58884e-11
3.88404e-12
3.6297e-12
2.95304e-12
1.99011e-12
6.82509e-13
-1.2361e-12
-3.00376e-12
-2.49675e-12
4.90866e-13
3.11866e-11
3.53878e-12
3.29086e-12
2.77572e-12
2.98727e-12
3.44881e-12
3.69544e-12
2.25462e-12
1.9341e-13
1.25496e-11
2.00965e-12
2.18105e-12
1.63719e-11
2.55357e-12
3.10758e-12
3.53537e-12
2.52407e-11
3.89587e-12
4.34731e-12
2.82744e-11
4.30617e-12
4.49398e-12
4.52568e-12
2.1774e-11
1.32244e-12
2.00822e-12
2.20153e-12
1.78297e-11
2.90768e-12
2.43658e-11
5.03797e-10
1.28072e-09
1.90617e-09
1.74871e-09
1.39437e-09
9.79635e-10
6.61779e-10
5.12564e-10
5.58645e-10
6.39241e-10
4.79135e-10
2.99225e-10
1.46262e-10
2.30158e-11
6.46682e-12
5.69005e-11
8.23152e-11
4.83487e-11
2.90944e-11
5.47459e-10
1.35784e-09
2.06676e-09
1.94136e-09
1.55925e-09
1.08582e-09
6.82304e-10
4.37065e-10
4.47e-10
5.99829e-10
4.94313e-10
3.24345e-10
1.3968e-10
1.429e-11
1.20585e-11
5.67714e-11
8.77395e-11
4.90793e-11
3.27191e-11
5.83141e-10
1.42886e-09
2.23444e-09
2.15589e-09
1.75532e-09
1.24214e-09
7.72035e-10
4.26742e-10
3.56477e-10
5.52622e-10
5.07864e-10
3.37662e-10
1.1677e-10
7.37025e-12
1.64169e-11
5.25463e-11
9.27325e-11
4.99746e-11
3.53319e-11
6.10383e-10
1.49228e-09
2.41106e-09
2.39109e-09
1.97416e-09
1.43502e-09
9.25615e-10
5.05415e-10
3.21836e-10
5.06409e-10
5.17571e-10
3.33912e-10
8.31437e-11
3.72246e-12
1.93918e-11
4.66433e-11
9.82219e-11
5.10152e-11
3.71369e-11
6.29254e-10
1.54632e-09
2.60348e-09
2.64784e-09
2.20531e-09
1.64171e-09
1.1154e-09
6.61763e-10
3.53107e-10
4.6872e-10
5.19334e-10
3.11007e-10
4.90927e-11
2.38537e-12
2.12746e-11
4.1999e-11
1.04738e-10
5.24678e-11
3.83653e-11
6.40038e-10
1.58886e-09
2.82685e-09
2.93019e-09
2.437e-09
1.83546e-09
1.30373e-09
8.58338e-10
4.31046e-10
4.43351e-10
5.09774e-10
2.71547e-10
2.27368e-11
2.29381e-12
2.25539e-11
4.10354e-11
1.12261e-10
5.34303e-11
3.92473e-11
6.43338e-10
1.61473e-09
3.09916e-09
3.24254e-09
2.6543e-09
1.98475e-09
1.44937e-09
1.04956e-09
5.2615e-10
4.301e-10
4.88007e-10
2.21969e-10
6.02099e-12
2.98727e-12
2.36519e-11
4.45638e-11
1.20385e-10
5.48158e-11
3.99623e-11
6.38029e-10
1.61437e-09
3.43699e-09
3.58352e-09
2.83643e-09
2.04746e-09
1.4997e-09
1.18428e-09
6.11242e-10
4.25839e-10
4.55526e-10
1.70013e-10
-2.84686e-12
4.35308e-12
2.47648e-11
5.15687e-11
1.2865e-10
5.64544e-11
4.06494e-11
6.2995e-10
1.61223e-09
3.86856e-09
3.94352e-09
2.95725e-09
1.96927e-09
1.37693e-09
1.18744e-09
6.58995e-10
4.259e-10
4.15079e-10
1.22118e-10
-6.59526e-12
6.28173e-12
2.58455e-11
5.96685e-11
1.37048e-10
5.82164e-11