/*--------------------------------*- C++ -*----------------------------------*\
| =========                 |                                                 |
| \\      /  F ield         | OpenFOAM: The Open Source CFD Toolbox           |
|  \\    /   O peration     | Version:  4.1                                   |
|   \\  /    A nd           | Web:      www.OpenFOAM.org                      |
|    \\/     M anipulation  |                                                 |
\*---------------------------------------------------------------------------*/
FoamFile
{
    version     2.0;
    format      ascii;
    class       volVectorField;
    location    "30";
    object      U;
}
// * * * * * * * * * * * * * * * * * * * * * * * * * * * * * * * * * * * * * //

dimensions      [0 1 -1 0 0 0 0];

internalField   nonuniform List<vector> 
1680
(
(-5.8223e-13 -1023.55 -1152.28)
(9.58384e-14 147.457 150.446)
(-3.21139e-14 -357.266 -64.0041)
(4.72442e-15 -25.1005 16.3432)
(-3.04597e-16 -156.559 7.42604)
(6.52874e-15 -62.6303 12.4227)
(3.91621e-15 -79.0957 13.8351)
(5.95162e-15 -82.9973 14.9574)
(3.33435e-15 -77.6539 14.8931)
(1.21252e-15 -66.1071 15.2445)
(1.70807e-15 -87.2711 18.5188)
(1.62512e-15 -61.3374 15.6263)
(2.75836e-15 -80.5843 21.5862)
(2.62236e-15 -66.5912 17.7977)
(2.31636e-15 -60.079 15.8084)
(4.27071e-15 -78.4541 19.8031)
(3.69954e-15 -56.8506 15.2521)
(7.26331e-15 -71.6125 22.332)
(7.78234e-15 -55.7828 17.9259)
(7.65871e-15 -68.4472 17.0898)
(1.3084e-14 -59.1307 25.0033)
(1.03813e-14 -79.2929 12.6525)
(1.59345e-14 -54.2932 21.5639)
(1.48911e-14 -55.8616 17.8151)
(1.2115e-14 -54.9792 14.7943)
(8.16454e-15 -55.2279 10.207)
(2.80004e-15 -54.7708 3.5379)
(-5.07118e-15 -54.2211 -5.44351)
(-1.23231e-14 -53.9458 -13.1996)
(-1.02431e-14 -54.6481 -13.1052)
(2.01381e-15 -52.2291 -4.57425)
(1.25059e-14 -68.4448 0.704464)
(1.45181e-14 -49.5625 7.66175)
(1.3501e-14 -50.5703 8.83464)
(1.13876e-14 -49.7297 8.08792)
(1.22555e-14 -49.7582 9.14962)
(1.4149e-14 -49.406 9.19211)
(1.51608e-14 -49.1741 6.17315)
(9.24971e-15 -49.6055 1.17594)
(7.93475e-16 -49.0226 1.50889)
(4.36887e-15 -59.1867 6.07852)
(3.22835e-15 -46.6104 3.83643)
(3.49331e-15 -45.9801 4.64243)
(5.69952e-15 -54.7107 3.62645)
(4.10212e-15 -43.0086 3.67494)
(4.94808e-15 -46.6614 4.21613)
(5.6793e-15 -42.4088 4.36408)
(8.78702e-15 -53.609 3.5194)
(6.25842e-15 -41.1081 3.91262)
(6.98364e-15 -40.8387 4.33463)
(9.84312e-15 -47.9257 3.44136)
(6.91754e-15 -37.332 4.63062)
(7.21925e-15 -40.6594 5.33843)
(7.27016e-15 -37.1949 5.73813)
(9.1943e-15 -46.1828 5.81818)
(2.1244e-15 -34.4306 6.65207)
(3.22605e-15 -38.0761 7.14284)
(3.5366e-15 -34.7585 7.24822)
(6.20704e-15 -43.0951 7.09729)
(4.67096e-15 -32.794 7.39922)
(5.41462e-15 -169.093 37.9003)
(1.11955e-13 -89.145 67.6033)
(2.84603e-13 -72.9809 91.2459)
(4.23594e-13 86.9523 89.9886)
(3.88603e-13 136.632 7.37038)
(3.09859e-13 122.111 -34.5195)
(2.17697e-13 85.3167 -61.0263)
(1.47062e-13 50.4654 -65.6912)
(1.13903e-13 23.339 -66.7946)
(1.24143e-13 1.29612 -68.945)
(1.42054e-13 -17.1943 -62.7814)
(1.06474e-13 -24.3386 -46.1316)
(6.64944e-14 -22.3596 -36.8651)
(3.25028e-14 -24.6378 -29.7122)
(5.11462e-15 -31.6901 -8.89724)
(1.43707e-15 -36.0713 17.0066)
(1.26446e-14 0.730369 15.0548)
(1.82923e-14 39.872 -31.5644)
(1.07442e-14 -30.8248 -41.0487)
(6.46542e-15 -183.844 16.7221)
(1.21658e-13 -91.9426 71.0892)
(3.01742e-13 -76.9966 85.2335)
(4.5928e-13 96.4043 81.3735)
(4.31413e-13 149.029 -2.79812)
(3.465e-13 129.057 -45.0027)
(2.41293e-13 87.8982 -68.5833)
(1.51623e-13 50.6387 -68.5607)
(9.71256e-14 23.3366 -64.4472)
(9.93333e-14 0.957499 -64.9439)
(1.33295e-13 -19.3057 -61.2553)
(1.09847e-13 -26.8335 -45.8733)
(7.20766e-14 -24.0125 -37.6851)
(3.10399e-14 -27.8701 -27.0466)
(3.17556e-15 -36.4563 -2.01479)
(2.67966e-15 -38.5736 21.4257)
(1.26159e-14 6.73721 14.5734)
(1.94977e-14 45.471 -29.7532)
(1.09065e-14 -35.7201 -40.6885)
(7.27091e-15 -196.864 -5.14718)
(1.29587e-13 -95.9277 75.7246)
(3.17524e-13 -79.8663 76.9242)
(4.96542e-13 106.366 68.8433)
(4.79086e-13 161.552 -15.7505)
(3.9007e-13 135.735 -57.9227)
(2.76031e-13 89.7339 -78.596)
(1.71563e-13 49.773 -74.462)
(9.48315e-14 22.491 -64.6496)
(7.92171e-14 0.545761 -61.116)
(1.22805e-13 -20.9943 -58.8826)
(1.12859e-13 -29.0814 -45.5238)
(7.5036e-14 -26.0373 -37.6201)
(2.59488e-14 -31.9029 -21.3718)
(1.63783e-15 -41.1654 4.89513)
(3.6482e-15 -40.2151 24.5967)
(1.1677e-14 12.2772 13.5035)
(2.06072e-14 51.066 -26.6393)
(1.11055e-14 -39.9529 -40.0227)
(7.85154e-15 -208.496 -26.9771)
(1.35641e-13 -100.686 81.2594)
(3.31619e-13 -81.076 66.4255)
(5.35791e-13 116.931 52.1467)
(5.31353e-13 174.045 -31.7213)
(4.38702e-13 142.098 -73.3107)
(3.18893e-13 90.9135 -90.849)
(2.05692e-13 47.993 -83.3947)
(1.12314e-13 20.5892 -68.8885)
(7.1519e-14 -0.3646 -59.3389)
(1.12535e-13 -22.3644 -56.136)
(1.15016e-13 -31.1462 -45.0345)
(7.42026e-14 -28.732 -36.0528)
(1.84764e-14 -36.5287 -13.501)
(8.27214e-16 -45.3698 10.0983)
(4.30928e-15 -41.0747 26.4478)
(1.03652e-14 17.7434 11.5108)
(2.18271e-14 56.4505 -22.5632)
(1.13367e-14 -43.9507 -38.6703)
(8.25264e-15 -219.195 -48.9066)
(1.39834e-13 -106.02 87.859)
(3.43626e-13 -80.1127 54.0279)
(5.7855e-13 128.103 31.4204)
(5.88408e-13 186.333 -50.7934)
(4.90068e-13 148.031 -90.8722)
(3.64824e-13 91.4641 -104.522)
(2.47867e-13 45.5288 -94.1065)
(1.47058e-13 17.6358 -76.6691)
(7.84682e-14 -2.18072 -60.289)
(1.0416e-13 -23.7069 -53.447)
(1.15408e-13 -33.1892 -44.1418)
(6.91126e-14 -32.1967 -32.731)
(1.09095e-14 -41.3391 -5.61574)
(5.30083e-16 -48.7958 12.9583)
(4.7277e-15 -41.3174 27.1647)
(9.3331e-15 22.8543 9.13538)
(2.3275e-14 61.5142 -17.7588)
(1.16595e-14 -47.1496 -37.316)
(8.52562e-15 -228.998 -71.1853)
(1.42231e-13 -111.865 95.8305)
(3.53081e-13 -76.4831 40.3484)
(6.28189e-13 140.076 7.43402)
(6.51154e-13 198.24 -73.1025)
(5.41556e-13 153.294 -109.916)
(4.07879e-13 91.2861 -118.23)
(2.89717e-13 42.5637 -104.629)
(1.90742e-13 13.7935 -85.9438)
(9.5788e-14 -5.13533 -63.0653)
(9.85225e-14 -25.3743 -51.0159)
(1.13283e-13 -35.4099 -42.5311)
(6.03439e-14 -36.2581 -28.0171)
(5.05263e-15 -45.901 0.211118)
(5.09735e-16 -51.5174 13.8684)
(5.01197e-15 -41.1663 27.0126)
(9.11899e-15 27.4463 7.2921)
(2.49468e-14 66.1926 -12.2723)
(1.18734e-14 -50.7031 -35.5379)
(8.72162e-15 -237.79 -94.0624)
(1.42964e-13 -118.192 105.541)
(3.58829e-13 -69.7988 26.1471)
(6.88703e-13 153.378 -19.1481)
(7.20564e-13 209.612 -98.5057)
(5.89845e-13 157.469 -129.211)
(4.41055e-13 90.1522 -129.798)
(3.22081e-13 39.2033 -112.409)
(2.33236e-13 9.31114 -94.0751)
(1.16922e-13 -9.21252 -66.117)
(9.55778e-14 -27.5837 -48.7901)
(1.08446e-13 -37.9198 -40.0367)
(4.93263e-14 -40.5519 -22.727)
(1.338e-15 -49.9418 3.4543)
(6.63838e-16 -53.7216 13.562)
(5.25597e-15 -40.862 26.2152)
(9.90307e-15 31.3623 6.70269)
(2.67523e-14 70.5864 -6.09996)
(1.21813e-14 -52.7947 -35.4308)
(8.88051e-15 -246.018 -117.732)
(1.41784e-13 -125.115 117.225)
(3.5875e-13 -60.0411 12.7983)
(7.63776e-13 167.932 -48.222)
(7.96338e-13 220.162 -126.287)
(6.30319e-13 159.922 -146.879)
(4.54991e-13 87.6962 -135.852)
(3.33268e-13 35.5526 -113.525)
(2.63173e-13 4.59817 -97.7952)
(1.35832e-13 -14.1849 -67.8806)
(9.46308e-14 -30.4027 -46.5454)
(1.01228e-13 -40.7662 -36.7176)
(3.77806e-14 -44.7865 -17.7467)
(-6.32636e-16 -53.396 4.69017)
(9.67352e-16 -55.6231 12.5779)
(5.50328e-15 -40.6538 24.8959)
(1.14597e-14 34.6154 7.56198)
(2.85888e-14 75.1696 0.833071)
(1.25454e-14 -54.783 -38.7172)
(9.0332e-15 -252.986 -142.448)
(1.39989e-13 -132.911 131.001)
(3.58274e-13 -45.2676 3.48112)
(8.59681e-13 183.723 -79.7449)
(8.76338e-13 229.299 -155.413)
(6.57167e-13 159.706 -160.495)
(4.37615e-13 83.2944 -131.826)
(3.05985e-13 31.7531 -101.694)
(2.63875e-13 0.452921 -91.972)
(1.46443e-13 -19.3747 -66.6894)
(9.46445e-14 -33.6245 -44.0204)
(9.22397e-14 -43.7864 -32.8154)
(2.71373e-14 -48.6451 -13.7036)
(-1.46561e-15 -56.2191 4.78403)
(1.39594e-15 -57.2766 11.1511)
(5.74344e-15 -40.7011 23.1243)
(1.32597e-14 36.9244 9.48459)
(3.04552e-14 80.3024 8.46987)
(1.2937e-14 -56.9413 -41.2015)
(9.1761e-15 -260.594 -168.336)
(1.33489e-13 -142.12 146.174)
(3.36026e-13 -29.3315 4.45521)
(9.81539e-13 202.65 -114.397)
(9.55605e-13 236.233 -184.271)
(6.6489e-13 155.476 -167.493)
(3.78704e-13 75.7246 -113.755)
(2.2161e-13 27.6763 -70.3885)
(2.17644e-13 -2.05695 -71.0547)
(1.41904e-13 -23.7494 -60.7432)
(9.4366e-14 -37.0131 -40.9543)
(8.21699e-14 -46.9816 -28.634)
(1.82307e-14 -52.2061 -10.8436)
(-1.65787e-15 -58.6404 4.38094)
(1.89973e-15 -58.8378 9.30139)
(5.94133e-15 -41.2142 20.9261)
(1.49558e-14 38.2331 11.8824)
(3.23278e-14 85.6872 16.922)
(1.30826e-14 -58.7331 -40.7908)
(9.35761e-15 -264.51 -196.03)
(1.34601e-13 -154.218 164.061)
(5.21708e-13 -5.95212 28.1163)
(1.12752e-12 228.941 -153.401)
(1.0266e-12 239.991 -210.911)
(6.50921e-13 145.712 -166.145)
(2.8282e-13 63.3736 -83.0389)
(9.27605e-14 22.7037 -25.2176)
(1.32478e-13 -1.96169 -38.0887)
(1.22922e-13 -25.6526 -50.7295)
(9.29029e-14 -39.797 -37.3826)
(7.1577e-14 -49.8241 -24.4987)
(1.13129e-14 -54.9972 -9.11169)
(-1.53001e-15 -60.3853 3.82688)
(2.41951e-15 -60 7.02754)
(6.05565e-15 -42.0385 18.3552)
(1.63589e-14 38.4032 14.1286)
(3.42077e-14 91.3777 25.7143)
(1.30572e-14 -60.0396 -43.0154)
(9.39887e-15 -274.953 -224.132)
(1.63883e-13 -170.354 177.452)
(8.74838e-13 21.5265 19.0554)
(1.27944e-12 257.41 -198.064)
(1.08653e-12 239.122 -233.245)
(6.16557e-13 129.862 -156.436)
(1.81372e-13 47.097 -50.5624)
(4.33796e-15 17.9906 3.37485)
(4.50056e-14 1.81273 -11.2802)
(9.75226e-14 -24.7264 -39.6056)
(8.99268e-14 -42.2256 -33.4067)
(6.08124e-14 -52.932 -20.5924)
(6.23771e-15 -58.0047 -8.27736)
(-1.26795e-15 -62.3288 3.21833)
(2.90479e-15 -61.4151 4.27973)
(6.04731e-15 -43.6447 15.2919)
(1.73467e-14 37.4394 15.5979)
(3.61024e-14 97.7712 34.3104)
(1.30924e-14 -58.9155 -47.5397)
(9.65677e-15 -266.53 -254.999)
(1.92212e-13 -190.43 187.016)
(1.01182e-12 57.905 -37.4441)
(1.43597e-12 282.533 -248.571)
(1.13055e-12 232.078 -248.97)
(5.60781e-13 109.199 -139.006)
(1.10814e-13 31.5634 -28.4683)
(5.65691e-15 15.7359 1.14689)
(5.82164e-15 6.8104 -8.96245)
(6.92999e-14 -21.7949 -30.7977)
(8.5068e-14 -43.0567 -29.3251)
(5.02631e-14 -54.48 -17.2006)
(2.68653e-15 -59.0574 -8.10365)
(-9.64729e-16 -62.6138 2.67052)
(3.3232e-15 -61.433 1.25642)
(5.88113e-15 -44.861 11.9043)
(1.76382e-14 35.3209 15.3955)
(3.80005e-14 104.485 42.024)
(1.29762e-14 -59.0016 -48.4171)
(7.60442e-15 -297.056 -283.422)
(2.07286e-13 -202.817 186.468)
(1.22498e-12 101.705 -108.646)
(1.60929e-12 301.54 -301.403)
(1.137e-12 217.493 -254.244)
(4.73638e-13 85.8062 -112.325)
(6.28728e-14 18.9521 -13.4386)
(1.3831e-14 14.7616 -1.9909)
(2.41198e-14 8.67512 -8.68955)
(5.00693e-14 -20.4022 -24.7069)
(7.80209e-14 -45.5224 -24.9886)
(4.00511e-14 -58.2474 -14.1648)
(2.88607e-16 -63.2236 -8.30457)
(-6.7561e-16 -65.655 2.07648)
(3.65788e-15 -63.7999 -2.27693)
(5.52574e-15 -47.9369 7.72864)
(1.6654e-14 31.8864 11.8032)
(3.98841e-14 110.862 48.1044)
(1.28981e-14 -55.3261 -52.1049)
(1.39819e-14 -227.481 -321.698)
(2.04728e-13 -222.86 197.323)
(1.48919e-12 150.443 -195.406)
(1.77977e-12 312.288 -351.864)
(1.08367e-12 194.153 -242.405)
(3.4367e-13 61.1392 -73.1378)
(1.464e-14 8.82518 1.83362)
(8.12067e-15 15.3084 -1.74965)
(2.51986e-14 10.8698 -3.1408)
(4.10421e-14 -17.7898 -21.727)
(7.0108e-14 -43.1786 -21.7141)
(3.05258e-14 -55.5506 -12.1921)
(-1.25668e-15 -59.1348 -8.77373)
(-3.75892e-16 -61.2253 1.86272)
(3.89075e-15 -59.4685 -5.29849)
(5.09601e-15 -47.0168 4.28764)
(1.37077e-14 27.992 2.83727)
(4.17418e-14 117.567 52.2601)
(1.31667e-14 -58.0279 -58.7093)
(-2.07323e-14 -387.843 -332.814)
(1.70539e-13 -204.571 191.503)
(1.821e-12 209.723 -300.206)
(1.91893e-12 313.958 -390.491)
(9.39903e-13 162.114 -205.434)
(1.79065e-13 37.3093 -23.8108)
(-8.62822e-15 4.57677 8.09582)
(2.65532e-15 16.3728 -2.79659)
(2.0058e-14 13.0936 1.28981)
(3.97651e-14 -19.1646 -17.9693)
(6.23518e-14 -51.3738 -17.3536)
(2.19661e-14 -66.1511 -10.154)
(-2.28533e-15 -73.0706 -9.39067)
(-1.7533e-16 -73.1794 0.972464)
(3.92962e-15 -69.8194 -9.65903)
(4.71264e-15 -53.6631 -1.52506)
(8.63504e-15 23.8651 -11.7863)
(4.35824e-14 125.573 54.3749)
(1.34417e-14 -41.3713 -59.1831)
(1.3955e-13 6.01481 -429.643)
(1.71111e-13 -264.202 183.745)
(2.25978e-12 272.702 -436.225)
(1.96431e-12 297.786 -400.273)
(6.79666e-13 121.127 -138.172)
(3.49151e-14 17.3447 19.1441)
(-1.14426e-15 5.61043 3.00464)
(-1.00161e-16 16.023 -3.33237)
(2.22904e-14 13.5711 4.59079)
(4.11164e-14 -9.62455 -20.0728)
(5.39754e-14 -35.2804 -16.7281)
(1.48318e-14 -44.9595 -10.4329)
(-2.6621e-15 -44.9535 -9.26526)
(3.39711e-16 -45.9421 2.67025)
(4.04493e-15 -44.0683 -9.16877)
(4.39432e-15 -39.7839 -1.51175)
(2.47392e-15 16.2166 -28.7333)
(4.54133e-14 127.898 55.9931)
(1.39782e-14 -71.2279 -71.2961)
(-6.53399e-13 -905.939 -195.89)
(-1.2392e-13 -79.7576 260.838)
(2.78619e-12 308.666 -593.928)
(1.79451e-12 240.943 -345.51)
(3.19615e-13 72.3857 -44.7692)
(-8.57293e-15 5.53352 31.5478)
(1.31095e-17 7.22087 2.27424)
(3.26626e-16 14.2191 -2.41981)
(3.08358e-14 13.8488 9.81621)
(4.98366e-14 -26.3956 -9.24431)
(4.77957e-14 -74.4327 -9.52572)
(9.4658e-15 -95.8652 -9.50807)
(-3.81345e-15 -113.34 -13.5701)
(-3.73577e-16 -109.243 -3.35126)
(3.37973e-15 -102.421 -22.221)
(4.06226e-15 -67.0527 -14.5377)
(-3.20627e-15 3.21435 -61.6969)
(4.69505e-14 120.978 57.3103)
(1.72662e-14 12.4254 -71.0328)
(2.91583e-12 1321.38 -1209.54)
(9.11343e-13 -601.017 -132.904)
(3.18525e-12 312.534 -725.068)
(1.22568e-12 204.354 -172.478)
(3.49115e-15 46.4405 47.0139)
(1.39005e-15 15.1457 24.3372)
(-2.33255e-16 15.6409 2.7882)
(7.62148e-16 17.5135 -1.02451)
(3.73759e-14 22.4575 14.2502)
(3.1356e-14 21.6149 -32.3876)
(2.92134e-14 13.1233 -17.2392)
(3.9269e-15 22.499 -7.79211)
(-1.44672e-16 42.0427 3.73401)
(3.72375e-15 39.8445 19.1765)
(5.14378e-15 39.9694 14.807)
(4.71376e-15 10.2743 19.301)
(-5.87285e-15 42.3679 -136.74)
(4.63083e-14 146.276 59.9273)
(1.14197e-14 -184.382 -80.3155)
(-2.53332e-11 -2903.66 6123.79)
(3.61041e-12 795.544 -1089.39)
(2.73087e-12 677.172 -629.85)
(3.14426e-13 164.2 66.3139)
(-1.06866e-14 55.9049 39.397)
(1.93381e-16 26.2273 12.4018)
(-1.41532e-17 19.4308 1.45627)
(-5.98633e-16 19.5262 -0.144885)
(3.04839e-14 18.3395 14.4621)
(1.6076e-13 -67.7625 53.0961)
(6.85354e-14 -172.691 -4.75171)
(7.8438e-15 -229.624 -34.1417)
(-1.52655e-14 -284.632 -71.1569)
(-1.13146e-14 -268.272 -61.6786)
(-1.51343e-15 -253.857 -115.292)
(4.02264e-15 -116.962 -80.9531)
(-3.12665e-15 -76.1285 -238.401)
(3.49553e-14 166.511 49.0707)
(8.54818e-14 247.696 258.631)
(2.55089e-14 15.3985 31.4246)
(5.01432e-14 14.5807 29.0804)
(4.09522e-14 13.9277 31.6467)
(4.18227e-14 12.4963 30.6944)
(3.92556e-14 11.0139 30.0968)
(3.31066e-14 8.7924 27.4459)
(2.42666e-14 4.14645 20.0611)
(9.60428e-15 -3.12785 6.39535)
(-4.50175e-15 -9.02965 -5.67155)
(2.12396e-15 -5.83466 -1.94875)
(2.71658e-14 5.35585 13.9138)
(4.1508e-14 10.5485 22.9901)
(4.21961e-14 11.6785 25.9649)
(4.11293e-14 10.8725 24.7154)
(4.01178e-14 10.0894 23.8013)
(3.90082e-14 9.18201 22.472)
(4.17906e-14 6.39887 17.7244)
(4.05632e-14 -0.675099 2.34769)
(1.74269e-14 -12.5628 -18.6625)
(-5.51572e-15 -15.7064 -16.6158)
(9.59088e-15 3.62102 6.91879)
(5.36021e-14 7.12247 14.1607)
(3.95238e-14 5.92819 13.0816)
(3.94836e-14 5.5692 13.7891)
(4.48227e-14 5.28532 14.566)
(4.56437e-14 5.28009 15.8155)
(3.68528e-14 5.68866 17.369)
(4.07869e-14 6.3322 18.1701)
(4.36499e-14 7.06587 17.4077)
(4.56263e-14 8.38774 16.9617)
(4.72039e-14 9.73848 17.962)
(4.48044e-14 9.06584 17.2431)
(3.77399e-14 7.60527 15.9344)
(3.80702e-14 6.78677 15.6885)
(3.68438e-14 6.35452 15.8942)
(3.54169e-14 6.37004 16.8221)
(3.8447e-14 6.89416 18.5511)
(4.92831e-14 7.13466 18.3764)
(6.49898e-14 4.23992 10.9021)
(4.45523e-14 -2.38926 -1.89932)
(-2.14544e-15 6.81422 12.4867)
(1.94394e-14 10.561 17.941)
(1.34937e-14 10.1398 17.452)
(1.20456e-14 9.94521 16.8407)
(1.49861e-14 9.80961 16.6598)
(4.48974e-14 9.66561 16.4053)
(2.22766e-14 9.34299 16.0508)
(2.03829e-14 8.94176 15.652)
(1.81604e-14 8.68895 15.5573)
(2.07565e-14 8.67664 15.7214)
(1.76551e-14 8.5219 15.6304)
(2.06037e-14 8.26427 15.4178)
(1.87016e-14 8.29586 15.5542)
(1.86246e-14 8.36055 15.6552)
(1.92735e-14 8.35919 15.6397)
(1.95416e-14 8.22657 15.4992)
(2.14012e-14 8.11972 15.491)
(2.06819e-14 8.25188 16.1018)
(2.58079e-14 7.37559 14.4211)
(3.56793e-14 2.25765 4.48168)
(2.35526e-16 5.67773 9.86278)
(-5.08341e-15 9.23845 16.1647)
(-4.03405e-15 8.74921 15.4543)
(-3.55083e-15 8.57576 15.2566)
(2.36046e-16 8.55463 15.3505)
(2.57949e-14 8.55924 15.4274)
(1.59825e-14 8.56169 15.5165)
(1.77562e-14 8.60064 15.5922)
(1.64363e-14 8.61045 15.6127)
(2.05181e-14 8.57118 15.5464)
(1.57256e-14 8.52214 15.4979)
(2.00189e-14 8.55095 15.5345)
(1.66515e-14 8.57385 15.5535)
(1.85951e-14 8.5609 15.5501)
(1.6704e-14 8.53357 15.5176)
(1.64925e-14 8.4979 15.4822)
(1.80985e-14 8.57506 15.5889)
(1.7552e-14 8.92261 16.258)
(2.06765e-14 8.81877 15.9635)
(3.38568e-14 4.48533 7.98041)
(-4.56572e-17 5.99891 10.4686)
(1.03511e-15 9.60031 16.4904)
(8.40235e-16 9.15443 15.8427)
(7.91879e-16 8.98903 15.475)
(1.07975e-16 8.95252 15.4766)
(-6.9761e-15 8.95622 15.4617)
(-4.52037e-15 8.92421 15.4549)
(-4.7471e-15 8.90591 15.4353)
(-4.42409e-15 8.87341 15.4286)
(-5.05622e-15 8.8625 15.4329)
(-4.52564e-15 8.85744 15.4484)
(-5.12048e-15 8.84691 15.4463)
(-4.5752e-15 8.82368 15.429)
(-4.39006e-15 8.79627 15.409)
(-4.50715e-15 8.78228 15.3911)
(-4.39321e-15 8.75538 15.377)
(-4.78941e-15 8.75836 15.3621)
(-4.92027e-15 8.97022 15.8168)
(-5.66798e-15 9.25817 16.3083)
(-7.74192e-15 5.4793 9.64631)
(9.16921e-18 6.05411 10.474)
(-2.04824e-16 9.46886 16.3024)
(-1.67284e-16 9.00555 15.5931)
(-1.67109e-16 8.85168 15.2974)
(-2.81798e-17 8.8353 15.3198)
(1.53584e-15 8.84699 15.327)
(1.07545e-15 8.83554 15.3405)
(1.05943e-15 8.84067 15.3454)
(1.01548e-15 8.83435 15.3552)
(1.06697e-15 8.83475 15.3571)
(1.03903e-15 8.82583 15.3576)
(1.09268e-15 8.81954 15.3562)
(9.87054e-16 8.81578 15.3589)
(9.35368e-16 8.81377 15.3671)
(9.88159e-16 8.81811 15.3699)
(9.63803e-16 8.80755 15.3717)
(1.04254e-15 8.82022 15.3678)
(1.06161e-15 8.98818 15.7041)
(1.21695e-15 9.3758 16.3514)
(1.58101e-15 5.94979 10.4318)
(-2.0467e-18 6.24245 10.7978)
(4.12476e-17 9.48704 16.3052)
(3.37633e-17 9.01399 15.5774)
(3.41951e-17 8.87388 15.2912)
(6.5955e-18 8.8571 15.307)
(-3.06512e-16 8.86847 15.3078)
(-2.21751e-16 8.85647 15.3156)
(-2.13802e-16 8.85958 15.3153)
(-2.15498e-16 8.85128 15.321)
(-2.15442e-16 8.85135 15.3228)
(-2.12038e-16 8.84649 15.3284)
(-2.15932e-16 8.84596 15.3328)
(-2.00663e-16 8.84396 15.3369)
(-1.94818e-16 8.83987 15.3408)
(-2.04127e-16 8.83991 15.3408)
(-2.02851e-16 8.82877 15.3437)
(-2.07044e-16 8.83419 15.3358)
(-2.13247e-16 8.96735 15.6123)
(-2.47407e-16 9.40666 16.347)
(-3.00056e-16 6.24793 10.9341)
(4.96345e-19 6.4135 11.0765)
(-8.76469e-18 9.45322 16.2511)
(-7.11788e-18 8.96574 15.4895)
(-7.17101e-18 8.84412 15.2432)
(-1.28098e-18 8.83172 15.2613)
(6.00471e-17 8.84274 15.2635)
(4.4187e-17 8.83331 15.2723)
(4.28585e-17 8.83762 15.2737)
(4.4113e-17 8.83189 15.2806)
(4.34906e-17 8.83361 15.2835)
(4.2539e-17 8.82992 15.2891)
(4.28332e-17 8.82971 15.2927)
(4.14461e-17 8.82766 15.2972)
(4.08185e-17 8.8257 15.3027)
(4.18132e-17 8.82725 15.3063)
(4.26536e-17 8.82035 15.3124)
(4.15853e-17 8.82528 15.3066)
(4.33398e-17 8.93565 15.5363)
(5.14819e-17 9.39266 16.3026)
(5.68437e-17 6.46599 11.304)
(-1.23639e-19 6.60197 11.3978)
(1.97004e-18 9.42969 16.2115)
(1.59648e-18 8.93384 15.4318)
(1.62464e-18 8.83108 15.2188)
(2.88267e-19 8.82004 15.2366)
(-1.23408e-17 8.83 15.2379)
(-9.24862e-18 8.82128 15.2458)
(-9.02126e-18 8.82511 15.2471)
(-9.31891e-18 8.8198 15.2534)
(-9.17294e-18 8.82132 15.2561)
(-9.0322e-18 8.81791 15.2617)
(-9.14651e-18 8.81825 15.2656)
(-8.9798e-18 8.81643 15.2708)
(-8.89163e-18 8.81543 15.276)
(-8.87587e-18 8.81609 15.28)
(-9.23407e-18 8.81061 15.2858)
(-8.87273e-18 8.81319 15.2802)
(-9.46297e-18 8.90516 15.4735)
(-1.15817e-17 9.36829 16.253)
(-1.15296e-17 6.66214 11.6402)
(2.99662e-20 6.78585 11.709)
(-4.60836e-19 9.39383 16.1547)
(-3.78616e-19 8.89731 15.3681)
(-3.9692e-19 8.81243 15.189)
(-8.57079e-20 8.80302 15.2067)
(2.73056e-18 8.81197 15.2079)
(2.09662e-18 8.80423 15.2154)
(2.03962e-18 8.80776 15.2171)
(2.10646e-18 8.80317 15.2232)
(2.06703e-18 8.80467 15.2262)
(2.0724e-18 8.80166 15.2317)
(2.13889e-18 8.80224 15.2355)
(2.06236e-18 8.80028 15.2408)
(2.0573e-18 8.79998 15.2457)
(2.00007e-18 8.79994 15.2504)
(2.09319e-18 8.79631 15.2561)
(2.01608e-18 8.79742 15.2518)
(2.2281e-18 8.87358 15.4122)
(2.81576e-18 9.33313 16.19)
(2.54841e-18 6.84651 11.9563)
(-6.88801e-21 6.97146 12.0252)
(1.09849e-19 9.35489 16.0921)
(9.22687e-20 8.86506 15.3124)
(9.94393e-20 8.79686 15.1644)
(2.77955e-20 8.78843 15.1813)
(-6.38825e-19 8.79632 15.1823)
(-5.06201e-19 8.78932 15.1893)
(-4.90373e-19 8.79237 15.1911)
(-5.05482e-19 8.78829 15.1968)
(-4.92381e-19 8.78953 15.1998)
(-5.01853e-19 8.78678 15.2051)
(-5.28219e-19 8.78744 15.2088)
(-4.95785e-19 8.78536 15.2142)
(-4.99403e-19 8.78567 15.2186)
(-4.75443e-19 8.78487 15.2238)
(-4.94293e-19 8.78279 15.2291)
(-4.77954e-19 8.78241 15.226)
(-5.46109e-19 8.84468 15.357)
(-7.09732e-19 9.29266 16.1193)
(-5.92307e-19 7.0276 12.2675)
(1.50038e-21 7.15501 12.3374)
(-2.62456e-20 9.30918 16.0184)
(-2.24859e-20 8.83419 15.2592)
(-2.44405e-20 8.78105 15.1398)
(-8.30762e-21 8.77344 15.1555)
(1.53311e-19 8.78037 15.1565)
(1.25379e-19 8.77413 15.163)
(1.2137e-19 8.77672 15.165)
(1.24823e-19 8.77319 15.1704)
(1.20451e-19 8.77417 15.1735)
(1.23867e-19 8.77174 15.1786)
(1.31709e-19 8.77242 15.1822)
(1.21476e-19 8.77029 15.1877)
(1.23123e-19 8.77109 15.1917)
(1.16101e-19 8.76959 15.1973)
(1.18832e-19 8.76901 15.202)
(1.15238e-19 8.76733 15.2006)
(1.34426e-19 8.81745 15.3049)
(1.78321e-19 9.24606 16.0389)
(1.38677e-19 7.20626 12.5744)
(-3.15553e-22 7.33783 12.6487)
(6.21965e-21 9.25842 15.9358)
(5.39762e-21 8.80611 15.211)
(5.79603e-21 8.76637 15.1171)
(2.20425e-21 8.75935 15.1315)
(-3.68728e-20 8.76536 15.1324)
(-3.08566e-20 8.75984 15.1384)
(-2.99317e-20 8.76195 15.1406)
(-3.07283e-20 8.75894 15.1456)
(-2.94525e-20 8.75961 15.1488)
(-3.0396e-20 8.75753 15.1536)
(-3.22442e-20 8.75813 15.1572)
(-2.962e-20 8.75602 15.1626)
(-2.99933e-20 8.7572 15.1663)
(-2.83389e-20 8.75509 15.1722)
(-2.84221e-20 8.75586 15.1763)
(-2.76834e-20 8.75301 15.1767)
(-3.25472e-20 8.79269 15.2571)
(-4.37271e-20 9.19421 15.9496)
(-3.18728e-20 7.38372 12.8791)
(6.64053e-23 7.51932 12.9574)
(-1.45488e-21 9.20189 15.8433)
(-1.27033e-21 8.78028 15.1666)
(-1.33094e-21 8.7522 15.0952)
(-5.28754e-22 8.74562 15.1081)
(8.77072e-21 8.75082 15.109)
(7.4168e-21 8.74599 15.1146)
(7.21529e-21 8.74763 15.117)
(7.38936e-21 8.74517 15.1216)
(7.08069e-21 8.74551 15.1249)
(7.32199e-21 8.74382 15.1295)
(7.6684e-21 8.74427 15.133)
(7.08992e-21 8.7423 15.1383)
(7.12747e-21 8.74372 15.1417)
(6.799e-21 8.74114 15.1479)
(6.68391e-21 8.74312 15.1514)
(6.55021e-21 8.7392 15.1536)
(7.6997e-21 8.77019 15.2132)
(1.03994e-20 9.13688 15.8512)
(7.12213e-21 7.56003 13.1816)
(-1.46235e-23 7.69988 13.2645)
(3.36233e-22 9.13993 15.7414)
(2.94071e-22 8.75695 15.1265)
(2.99957e-22 8.73877 15.0745)
(1.1932e-22 8.73251 15.0858)
(-2.0534e-21 8.73696 15.0868)
(-1.73548e-21 8.73281 15.0919)
(-1.69231e-21 8.73398 15.0945)
(-1.72558e-21 8.73204 15.0987)
(-1.66503e-21 8.73205 15.1021)
(-1.72469e-21 8.73076 15.1064)
(-1.77369e-21 8.731 15.1099)
(-1.66047e-21 8.72927 15.115)
(-1.65291e-21 8.73075 15.1182)
(-1.59708e-21 8.7279 15.1246)
(-1.5458e-21 8.73087 15.1275)
(-1.5235e-21 8.72599 15.1316)
(-1.7851e-21 8.75005 15.1733)
(-2.4063e-21 9.07417 15.7437)
(-1.54927e-21 7.73535 13.4819)
(3.47567e-24 7.87975 13.5702)
(-7.72479e-23 9.0725 15.6298)
(-6.75943e-23 8.73613 15.0909)
(-6.74727e-23 8.72618 15.055)
(-2.67133e-23 8.72013 15.0647)
(4.74009e-22 8.72388 15.0658)
(3.98093e-22 8.72044 15.0704)
(3.88556e-22 8.72109 15.0731)
(3.93769e-22 8.71965 15.077)
(3.84642e-22 8.71936 15.0804)
(3.98267e-22 8.71841 15.0844)
(4.02468e-22 8.71838 15.0879)
(3.82431e-22 8.717 15.0927)
(3.77775e-22 8.7183 15.0959)
(3.69725e-22 8.71546 15.1022)
(3.54624e-22 8.71908 15.1046)
(3.50506e-22 8.71339 15.1105)
(4.09119e-22 8.73224 15.1373)
(5.46626e-22 9.00609 15.6273)
(3.31162e-22 7.90972 13.7799)
(-8.86642e-25 8.05937 13.8752)
(1.7804e-23 8.99947 15.5081)
(1.56225e-23 8.7178 15.0597)
(1.53778e-23 8.71455 15.0366)
(6.27241e-24 8.70877 15.0447)
(-1.08587e-22 8.71173 15.0461)
(-9.07054e-23 8.70916 15.0501)
(-8.84463e-23 8.70929 15.053)
(-8.90403e-23 8.70829 15.0564)
(-8.82949e-23 8.7078 15.0598)
(-9.087e-23 8.70711 15.0635)
(-9.07512e-23 8.70685 15.0671)
(-8.75509e-23 8.70587 15.0715)
(-8.63844e-23 8.70672 15.0749)
(-8.53922e-23 8.70427 15.0808)
(-8.17053e-23 8.70798 15.0831)
(-8.07163e-23 8.70175 15.0903)
(-9.37252e-23 8.71696 15.1052)
(-1.23371e-22 8.93306 15.5027)
(-7.06568e-23 8.0832 14.0753)
(2.33814e-25 8.23966 14.1804)
(-4.14037e-24 8.92059 15.3748)
(-3.65924e-24 8.70165 15.0324)
(-3.57366e-24 8.70362 15.0189)
(-1.58615e-24 8.6985 15.0253)
(2.48534e-23 8.70034 15.0269)
(2.0789e-23 8.69872 15.0302)
(2.02177e-23 8.69839 15.033)
(2.02305e-23 8.6977 15.0361)
(2.0383e-23 8.69712 15.0394)
(2.06814e-23 8.69657 15.0428)
(2.05679e-23 8.69616 15.0463)
(2.01287e-23 8.69556 15.0503)
(2.00065e-23 8.69585 15.054)
(1.98686e-23 8.69425 15.0593)
(1.90688e-23 8.69725 15.0619)
(1.88019e-23 8.69129 15.07)
(2.1637e-23 8.70424 15.0762)
(2.79479e-23 8.85557 15.3705)
(1.53124e-23 8.25516 14.3662)
(-6.23253e-26 8.42319 14.4926)
(9.83578e-25 8.83808 15.2311)
(8.79884e-25 8.69069 15.012)
(8.54881e-25 8.69522 15.0051)
(4.32507e-25 8.69182 15.0089)
(-5.78213e-24 8.69212 15.0105)
(-4.88922e-24 8.69114 15.0126)
(-4.74081e-24 8.69035 15.0148)
(-4.71768e-24 8.68951 15.0171)
(-4.83271e-24 8.68862 15.0197)
(-4.79259e-24 8.68775 15.0224)
(-4.77406e-24 8.68688 15.0254)
(-4.7343e-24 8.68604 15.0287)
(-4.77717e-24 8.68543 15.0321)
(-4.72982e-24 8.68433 15.0364)
(-4.57318e-24 8.68531 15.0397)
(-4.50875e-24 8.68103 15.0469)
(-5.11205e-24 8.69107 15.0483)
(-6.45704e-24 8.77264 15.2324)
(-3.44746e-24 8.42327 14.6449)
(1.34429e-26 8.61058 14.8239)
(-1.95133e-25 8.7527 15.0801)
(-1.777e-25 8.69281 15.0032)
(-1.71642e-25 8.695 15.0014)
(-1.02107e-25 8.69441 15.0021)
(1.12972e-24 8.69407 15.0026)
(9.78898e-25 8.69366 15.0031)
(9.46137e-25 8.69304 15.0038)
(9.36821e-25 8.69232 15.0046)
(9.73616e-25 8.69143 15.0056)
(9.42807e-25 8.69038 15.0067)
(9.40522e-25 8.68914 15.008)
(9.42777e-25 8.68771 15.0095)
(9.67855e-25 8.68604 15.0113)
(9.48507e-25 8.68416 15.0133)
(9.26962e-25 8.68208 15.0156)
(9.17797e-25 8.67891 15.0189)
(1.01925e-24 8.67938 15.02)
(1.26168e-24 8.69418 15.0844)
(6.71687e-25 8.5934 14.8933)
(5.82975e-15 -33.0776 7.16048)
(9.38574e-15 -37.7033 6.08589)
(7.15671e-15 -29.307 6.7864)
(8.00774e-15 -32.1952 6.01849)
(8.1498e-15 -29.6123 5.13114)
(1.09916e-14 -35.6737 3.20871)
(8.04016e-15 -26.4806 4.73757)
(9.82271e-15 -29.2559 3.54548)
(1.18518e-14 -26.6232 2.68717)
(1.16798e-14 -31.8657 0.743416)
(-7.03998e-15 -24.2211 3.74779)
(-6.06411e-15 -24.371 3.06953)
(-9.42413e-15 -26.8365 2.5719)
(-9.07793e-15 -20.8926 5.76674)
(-1.00275e-14 -22.9807 5.57238)
(-1.05787e-14 -21.3589 5.566)
(-1.39021e-14 -25.1142 5.79942)
(-1.1022e-14 -19.1677 7.57484)
(-1.11353e-14 -20.0294 7.20567)
(2.22243e-14 -23.0074 8.51756)
(7.63388e-14 -17.3887 10.4808)
(4.60161e-14 -17.8407 10.4483)
(4.60471e-14 -17.6177 10.4168)
(3.92358e-14 -17.7837 10.1763)
(3.65553e-14 -17.6997 9.7312)
(3.30465e-14 -17.729 9.12716)
(3.01372e-14 -17.6947 8.49165)
(2.76533e-14 -17.3315 7.8891)
(-5.5081e-15 -16.5866 2.99487)
(2.9151e-14 -14.3653 8.916)
(2.85972e-14 -14.2623 8.16591)
(2.93043e-14 -14.1104 7.80442)
(3.02289e-14 -13.9421 7.17017)
(3.32253e-14 -13.7014 6.50264)
(3.2524e-14 -13.4049 5.82442)
(2.19545e-14 -13.0354 5.19954)
(2.06353e-14 -12.5973 4.5213)
(1.67571e-14 -11.9019 3.28607)
(-9.93011e-16 -7.77788 -10.6187)
(2.31203e-14 -9.05951 -1.62842)
(-1.00454e-14 -6.68665 -6.32307)
(3.12427e-15 -9.36452 -5.43635)
(1.78432e-15 -6.3445 -4.29486)
(2.84326e-15 -5.61897 -2.83472)
(3.62786e-15 -6.38416 -3.70377)
(8.76672e-16 -4.32892 -2.08635)
(-3.26553e-15 -5.02244 -2.72119)
(-3.8956e-15 -4.02816 -1.68259)
(5.76093e-15 -3.31945 -1.13637)
(3.32289e-14 -4.0219 -1.65706)
(4.40429e-14 -2.61646 -1.39998)
(6.81344e-14 -3.04854 -2.45543)
(7.40296e-14 -2.50064 -2.63023)
(9.17255e-14 -1.7861 -2.16985)
(1.98742e-13 -1.70277 -2.9667)
(3.2274e-13 -1.11306 -2.15577)
(3.8477e-13 -0.504103 -1.28934)
(4.26151e-13 -0.552601 -3.52779)
(-7.85454e-14 0.0733869 -3.10731)
(2.46731e-12 1.19228 1.66473)
(5.30797e-16 4.5895 -20.6928)
(1.56715e-15 -4.28713 15.8598)
(5.14617e-15 -3.83064 63.6234)
(7.92422e-15 0.110636 74.3087)
(8.98047e-15 1.98135 58.614)
(9.99076e-15 2.73512 35.7319)
(1.05002e-14 2.032 11.1214)
(1.05676e-14 2.07727 -4.83536)
(9.67134e-15 1.16178 -20.0539)
(8.39433e-15 0.616182 -27.929)
(6.96907e-15 0.149641 -31.0397)
(5.27568e-15 -0.323832 -30.247)
(3.45229e-15 -0.754811 -26.3735)
(1.6228e-15 -0.91668 -19.0405)
(2.19719e-15 -0.486116 -10.8981)
(8.47884e-16 0.0410863 -8.26677)
(-4.6191e-14 -0.615449 -0.836114)
(2.47212e-14 0.198236 0.876675)
(6.09381e-13 -0.356002 -2.20068)
(1.56676e-15 -2.74711 14.7876)
(4.02613e-15 -12.2104 44.6257)
(8.74626e-15 -7.82299 77.6496)
(1.14284e-14 1.43444 68.322)
(1.24108e-14 5.22143 56.7819)
(1.33866e-14 7.88083 33.042)
(1.35023e-14 5.67494 9.26519)
(1.30863e-14 5.24861 -6.22113)
(1.18631e-14 3.07341 -20.36)
(1.04994e-14 1.55475 -27.5964)
(9.0943e-15 0.37221 -30.1051)
(7.54074e-15 -0.489002 -30.7355)
(5.38399e-15 -1.37347 -30.6633)
(3.02306e-15 -2.19292 -27.1305)
(4.50899e-15 -1.97519 -19.5683)
(-1.36231e-14 -1.54427 -10.2337)
(-9.26127e-14 -2.23973 2.56577)
(-1.43736e-14 1.14396 -0.0499359)
(4.19469e-13 -0.612982 -4.6167)
(2.17016e-15 -8.83304 28.1619)
(5.72785e-15 -17.4135 54.6987)
(1.09855e-14 -9.45631 72.4612)
(1.43343e-14 3.69163 67.435)
(1.56502e-14 8.56109 54.1351)
(1.69382e-14 12.8995 31.2657)
(1.65809e-14 9.42057 7.41938)
(1.53897e-14 8.29014 -7.51357)
(1.35618e-14 5.04382 -20.6699)
(1.19185e-14 2.50818 -27.2095)
(1.05284e-14 0.679605 -29.6577)
(9.00531e-15 -0.396103 -29.545)
(6.53087e-15 -1.55513 -28.3953)