/*--------------------------------*- C++ -*----------------------------------*\
| =========                 |                                                 |
| \\      /  F ield         | OpenFOAM: The Open Source CFD Toolbox           |
|  \\    /   O peration     | Version:  4.1                                   |
|   \\  /    A nd           | Web:      www.OpenFOAM.org                      |
|    \\/     M anipulation  |                                                 |
\*---------------------------------------------------------------------------*/
FoamFile
{
    version     2.0;
    format      ascii;
    class       volScalarField;
    location    "10";
    object      p;
}
// * * * * * * * * * * * * * * * * * * * * * * * * * * * * * * * * * * * * * //

dimensions      [0 2 -2 0 0 0 0];

internalField   nonuniform List<scalar> 
1280
(
0.127464
0.3228
0.371344
0.360275
0.395863
0.342906
-0.0405865
-0.311786
-0.584113
-1.24081
-2.40779
-2.80128
-4.21404
-6.81045
-7.06
-10.1562
-15.0746
-15.8859
-18.368
-32.9868
-23.6417
-11.9076
0.475213
13.0288
25.1115
37.0202
20.1448
12.7795
13.9392
12.9693
11.4295
9.81894
7.53952
4.81141
1.93692
-0.669694
-1.97845
-1.5051
2.65319
3.57265
1.14698
8.28014
10.4046
15.0901
31.3224
29.0542
29.3708
30.1605
32.1388
32.5372
32.5897
32.4307
30.45
29.5789
29.1731
31.2945
14.9537
9.97892
7.53542
0.1964
1.71968
0.663548
-3.63407
-4.33244
-3.22347
-0.783938
1.94939
4.54453
6.69234
8.16453
9.59997
10.472
8.96313
14.3761
32.8622
21.2293
9.40469
-2.92749
-15.1775
-26.7789
-36.0566
-21.8791
-16.0924
-14.5785
-10.2525
-6.06905
-6.21762
-4.12983
-2.5304
-2.61026
-1.63256
-0.902945
-0.908653
-0.800964
-0.422242
-0.179345
-0.155055
0.00622953
-0.018097
0.017524
0.000272032
-0.361035
-0.97837
-1.10199
-4.16583
-1.99467
1.30258
4.17317
2.85377
1.03152
-0.136605
-2.13326
-3.2685
-4.64917
-1.40451
0.309504
0.413819
0.193404
0.253891
0.0920181
-0.58104
-1.89612
-2.94732
-7.15941
-2.79828
3.20243
9.28074
7.54084
4.22612
0.555265
-6.02367
-10.4271
-12.6827
-4.38823
-0.0938077
0.632913
0.281753
0.550143
0.110355
-0.941455
-3.30753
-5.60351
-9.1217
-3.30768
4.27529
12.3896
10.4302
6.86316
0.953771
-9.737
-16.827
-19.1652
-5.56556
0.491648
1.16441
0.396963
0.80142
0.140902
-1.04367
-4.514
-8.86309
-11.4961
-4.76835
5.08029
15.3878
13.2517
9.66477
2.16508
-10.9107
-20.5706
-23.4436
-6.9184
1.30538
1.88737
0.736009
1.02165
0.107043
-1.04375
-5.66237
-12.0121
-13.5816
-6.54519
5.65071
18.062
16.0928
12.2051
3.66395
-9.97757
-23.0094
-24.7019
-7.73019
2.47681
2.62811
0.848262
1.18276
0.0476155
-0.888308
-6.43305
-14.3147
-14.9394
-8.1365
5.81528
19.672
17.3403
13.7661
5.15069
-7.44954
-24.582
-23.5308
-8.23773
4.03444
3.97753
2.18849
-0.0752279
-0.0358444
-0.600423
-6.73318
-15.5367
-15.6724
-9.43506
5.4452
19.6628
16.8017
13.8192
5.61454
-4.1501
-21.9134
-19.8598
-8.18922
5.69818
4.18927
2.00248
-2.59161
-0.0683343
-0.117651
-6.39294
-15.4972
-15.7522
-10.234
4.62105
17.8381
14.6487
11.9479
4.70079
-0.944054
-15.5639
-17.919
-8.97633
6.87794
6.89005
4.08761
-2.89561
-0.217732
0.653669
-5.42343
-14.3651
-15.1955
-10.2591
3.86058
15.001
11.2298
8.29393
3.23202
2.44366
-4.71681
-10.9151
-6.43062
4.77674
4.71701
12.6076
39.6957
-0.621288
1.78242
-4.06124
-12.2758
-14.2013
-9.8655
3.48642
12.6928
8.4351
5.27156
3.74522
7.23203
6.05949
2.08498
-0.126049
1.45823
0.927461
12.9363
38.7972
-0.859197
2.51592
-2.73027
-9.59717
-12.5559
-8.27137
4.38076
11.572
7.81435
5.2253
6.20914
12.1451
12.5393
7.80543
2.50405
-0.840296
-1.31276
12.9482
39.1678
-0.66541
2.34254
-2.14347
-8.0197
-11.4831
-6.9037
4.42789
10.9244
8.42723
6.83637
8.05318
15.2211
16.4035
13.4687
3.95039
-5.23032
-6.97115
7.14279
39.1645
-0.258844
1.76933
-2.24535
-8.07978
-12.3433
-7.93029
3.13374
9.61338
7.24975
6.84837
9.0973
16.8568
17.2888
14.478
4.06109
-12.8295
-18.7842
-8.98582
-2.69139
0.0197554
0.946582
-2.76375
-8.90936
-12.6698
-9.05155
1.04726
7.08407
6.50647
7.03662
9.50169
16.2781
16.8523
13.6402
2.31235
-18.8048
-22.1822
-12.925
0.0457722
0.227002
0.223371
-3.24143
-9.49222
-11.9176
-10.0844
-0.155221
5.31837
5.6262
6.6894
9.24627
14.778
16.0655
11.8066
0.915338
-18.6393
-21.6664
-12.2167
1.32923
0.293936
-0.273153
-3.48293
-9.62293
-10.6437
-10.2296
-1.01684
3.62586
4.65863
6.11012
8.60231
12.9165
14.7148
9.93984
0.0311149
-14.9791
-20.226
-10.8346
-0.0203395
0.337882
-0.449461
-3.29284
-9.04407
-9.34168
-9.2613
-1.26079
2.45319
3.76519
5.26356
7.49622
10.7831
12.4735
7.95197
0.315318
-9.27413
-11.9317
-6.44832
-0.0174757
0.242494
-0.469753
-2.7576
-7.64879
-8.24536
-7.77832
-1.24368
1.59455
2.93694
4.34324
6.18127
8.52913
9.84979
5.64789
0.547929
-5.09105
-6.93675
-4.21359
-0.204768
0.237859
-0.203786
-1.67673
-4.95573
-7.22902
-6.71833
-1.57259
0.81026
2.07366
3.33041
4.80368
6.38097
7.0284
3.24868
0.517059
-2.29932
-3.15304
-2.15845
-0.225688
0.0618417
-0.196485
-0.78328
-2.08614
-4.6903
-4.50543
-1.63474
-0.28175
0.376275
1.14025
2.02052
2.84468
2.9586
0.937488
0.11373
-0.615171
-0.797303
-0.655577
-0.040514
101.061
98.5225
96.8932
94.7424
92.0046
89.1565
85.9494
82.6434
78.9794
75.5238
72.2364
69.1972
66.4569
64.0368
61.9156
60.0664
58.4273
56.9842
55.4937
53.6856
90.7481
88.9096
86.2769
84.1679
81.8137
78.881
75.7787
73.0715
70.7696
68.6551
66.7233
64.9595
63.3791
62.0061
60.883
59.9505
59.2597
59.2702
59.7784
58.1932
121.602
121.261
119.845
119.409
118.986
118.833
118.319
117.345
115.95
114.041
111.563
108.426
104.645
100.434
96.3323
93.0366
90.9513
89.8454
90.0625
88.3251
98.8445
100.274
100.491
101.523
102.2
103.013
103.931
104.81
105.666
106.329
106.715
106.637
105.966
104.68
102.987
101.257
100.369
100.199
100.711
100.436
88.4107
90.1661
90.8761
91.8922
92.7424
93.4481
94.2818
94.9749
95.736
96.4774
97.2623
98.1043
99.0253
100.028
101.138
102.304
103.458
104.558
105.315
106.161
65.2567
67.5829
69.3395
70.9726
72.5887
73.8353
75.245
76.4368
77.6442
78.77
79.8535
80.9037
81.9317
82.9729
84.0419
85.2185
86.4138
87.8057
88.8429
90.3076
49.4164
51.6245
53.9704
55.6908
57.6486
59.0626
60.7457
62.1914
63.6808
65.0957
66.4656
67.7915
69.0575
70.2855
71.4423
72.5975
73.6416
74.807
75.6236
76.8298
28.8257
30.6549
32.697
33.7225
35.6413
36.7856
38.5189
39.9554
41.6031
43.2417
44.9608
46.757
48.6251
50.5932
52.6099
54.7285
56.7592
58.8582
60.446
62.8386
6.57172
5.49574
6.0874
4.8584
5.32759
4.39537
4.49146
3.84047
3.60892
3.20566
3.03311
3.02368
3.30528
3.98021
5.14815
7.01697
9.39354
12.5084
14.8266
18.336
13.0132
7.75769
7.08453
3.63229
2.27874
-0.853217
-2.69504
-5.51354
-7.62403
-9.93289
-11.764
-13.4306
-14.8228
-16.0299
-17.0147
-17.8396
-18.2683
-18.0242
-17.5224
-14.6254
58.826
53.0723
51.7968
47.1563
45.0725
40.7116
37.7797
33.5906
30.148
26.3399
23.1798
20.3121
18.1363
16.5543
15.7221
15.379
15.157
15.0646
13.9456
12.1869
104.431
102.773
103.537
101.764
102.803
101.465
101.99
101.069
100.858
99.8838
98.8521
97.1691
94.8998
91.8074
88.0695
84.0687
80.6696
79.1297
78.5087
74.6484
92.0274
93.0967
94.7484
94.2232
96.4466
96.1826
97.8425
98.2055
99.245
99.7841
100.371
100.761
101.092
101.303
101.345
101.059
100.425
99.3648
99.124
98.4824
75.8225
77.1771
80.282
79.6896
83.1424
83.235
85.6463
86.6431
88.2303
89.4439
90.5715
91.4833
92.1791
92.7381
93.3721
94.309
95.66
97.3091
98.6219
99.8017
44.39
44.6901
48.6753
47.5003
51.6553
51.5743
54.4466
55.7564
57.8613
59.7562
61.7511
63.7868
65.8406
67.9342
70.0395
72.2344
74.4226
76.8342
78.8486
81.4999
20.2708
17.446
20.439
16.9315
19.8161
17.7782
19.1745
18.7752
19.4562
19.8573
20.5369
21.3148
22.2407
23.3804
24.7604
26.6308
28.724
31.4573
33.8576
37.4826
42.4983
36.9612
38.6206
31.309
30.7963
25.4267
22.7599
18.6747
15.3983
11.9169
8.76681
5.80569
3.21842
1.21305
0.0625412
-0.00234381
0.310783
0.987669
1.38583
3.30721
61.6122
53.6542
61.1738
53.3593
54.5573
50.2901
48.0693
44.5113
41.1743
37.5005
33.792
30.0197
26.3649
23.0594
20.5091
19.0483
18.3446
17.6291
16.2471
16.038
83.8336
61.3113
69.489
58.4671
55.8737
49.3374
44.5666
39.4643
35.1068
31.2556
28.1708
25.9114
24.606
24.4089
25.6078
28.1162
31.3029
35.0357
38.2105
39.094
763.913
681.683
632.752
576.779
527.962
480.831
436.968
395.494
356.412
319.432
284.389
251.103
219.408
189.301
160.911
133.481
107.021
85.4297
60.9776
24.2119
761.39
679.16
630.23
574.258
525.442
478.311
434.449
392.976
353.894
316.916
281.873
248.587
216.893
186.786
158.397
130.966
104.505
82.9123
58.4595
21.6952
81.3253
58.8042
66.9825
55.9616
53.369
46.8335
42.0635
36.9618
32.605
28.7542
25.6698
23.4106
22.1054
21.9088
23.1085
25.6168
28.8029
32.5367
35.7129
36.5966
59.1185
51.1611
58.6811
50.8671
52.0657
47.7989
45.5789
42.0214
38.6847
35.0112
31.3029
27.531
23.8767
20.5722
18.0237
16.5635
15.8576
15.1406
13.7589
13.5465
39.9986
34.4593
36.1186
28.8059
28.2926
22.9226
20.2552
16.1697
12.8927
9.41055
6.25974
3.29783
0.710018
-1.29555
-2.44614
-2.51284
-2.20343
-1.53071
-1.13433
0.783129
17.7209
14.8917
17.8823
14.3724
17.2536
15.2128
16.6056
16.2026
16.8797
17.2764
17.9516
18.7246
19.6456
20.7806
22.1566
24.0245
26.1163
28.8511
31.2514
34.8771
41.8045
42.1038
46.0901
44.9158
49.0715
48.9909
51.8641
53.1745
55.2804
57.176
59.172
61.2087
63.2637
65.3588
67.4662
69.664
71.8555
74.2705
76.2877
78.944
73.2816
74.6359
77.7422
77.1491
80.6015
80.6937
83.1034
84.0997
85.6852
86.8982
88.0257
88.9393
89.6403
90.2098
90.8591
91.8115
93.1734
94.8281
96.1438
97.3298
89.4883
90.5669
92.2239
91.7062
93.935
93.6805
95.3488
95.7248
96.7774
97.3335
97.9378
98.3474
98.6974
98.9261
98.9752
98.6842
98.0406
96.9743
96.7356
96.1073
102.131
100.494
101.265
99.5044
100.554
99.2271
99.7621
98.8487
98.6422
97.6698
96.6348
94.9443
92.6627
89.553
85.7961
81.7841
78.3781
76.8309
76.2117
72.3597
56.6183
50.8714
49.5993
44.9635
42.8834
38.5281
35.6019
31.4209
27.9876
24.1913
21.044
18.1902
16.0283
14.4604
13.6411
13.305
13.0767
12.96
11.8219
10.0281
10.7013
5.43373
4.75288
1.29192
-0.0734966
-3.21631
-5.07361
-7.90845
-10.0396
-12.372
-14.2315
-15.9311
-17.3606
-18.6067
-19.6311
-20.4914
-20.952
-20.7267
-20.2351
-17.349
3.98341
2.88532
3.46101
2.21308
2.66294
1.70958
1.78352
1.10866
0.853452
0.426993
0.233862
0.207355
0.476998
1.14778
2.31916
4.19672
6.5853
9.70159
12.0164
15.5287
26.1512
27.9726
30.0084
31.0279
32.9425
34.083
35.8139
37.2489
38.8966
40.5366
42.2589
44.06
45.9345
47.9103
49.9354
52.0621
54.1006
56.2057
57.7995
60.2025
46.7638
48.9713
51.3206
53.0441
55.0051
56.4225
58.1094
59.5592
61.0527
62.472
63.8461
65.1759
66.4452
67.6759
68.8347
69.9911
71.0352
72.1996
73.0153
74.2195
62.6026
64.9277
66.6877
68.323
69.9406
71.1884
72.599
73.7914
74.9992
76.1251
77.2086
78.2587
79.2861
80.3264
81.3937
82.5675
83.7588
85.1467
86.1807
87.643
85.7243
87.4804
88.1932
89.2113
90.0647
90.7736
91.6113
92.3092
93.0755
93.8229
94.6142
95.4619
96.3865
97.3915
98.5018
99.665
100.815
101.915
102.67
103.52
96.1956
97.634
97.8644
98.904
99.59
100.412
101.337
102.22
103.079
103.743
104.127
104.042
103.365
102.077
100.381
98.6557
97.7836
97.6289
98.1468
97.8804
118.949
118.616
117.217
116.8
116.39
116.235
115.711
114.729
113.332
111.424
108.95
105.827
102.072
97.8913
93.8173
90.5469
88.4805
87.3846
87.6018
85.8707
88.1336
86.277
83.6607
81.5701
79.2235
76.3087
73.2452
70.5879
68.3255
66.24
64.3303
62.579
60.9988
59.6109
58.4575
57.487
56.7706
56.7685
57.2658
55.668
97.8434
95.2985
93.7068
91.6046
88.9389
86.177
83.0482
79.7731
76.129
72.6879
69.4017
66.3522
63.5919
61.1453
59.0018
57.1423
55.5069
54.0781
52.5872
50.7863
)
;

boundaryField
{
    outletWall
    {
        type            fixedValue;
        value           uniform 0;
    }
    fineWalls
    {
        type            zeroGradient;
    }
    fineFrontAndBack
    {
        type            zeroGradient;
    }
    fineplugLeft
    {
        type            cyclicAMI;
        value           nonuniform List<scalar> 
20
(
43.663
44.9256
45.2863
46.3461
47.9192
49.9199
52.1917
54.6734
57.3215
60.075
63.0129
65.9714
68.6706
78.4669
78.7293
78.6259
78.3997
77.6096
76.4365
76.1201
)
;
    }
    fineplugRight
    {
        type            cyclicAMI;
        value           nonuniform List<scalar> 
20
(
40.973
42.2024
42.5357
43.539
45.0691
47.0447
49.3062
51.7824
54.4203
57.1543
60.0703
62.9976
65.6111
75.2396
75.5141
75.397
75.1647
74.38
73.2033
72.919
)
;
    }
    inletOutletLeft
    {
        type            cyclicAMI;
        value           nonuniform List<scalar> 
20
(
43.663
44.9256
45.2863
46.3461
47.9192
49.9199
52.1917
54.6734
57.3215
60.075
63.0129
65.9714
68.6706
78.4669
78.7293
78.6259
78.3997
77.6096
76.4365
76.1201
)
;
    }
    inletLeft
    {
        type            zeroGradient;
    }
    inletWallsLeft
    {
        type            zeroGradient;
    }
    inletFacesLeft
    {
        type            zeroGradient;
    }
    inletOutletRight
    {
        type            cyclicAMI;
        value           nonuniform List<scalar> 
20
(
40.973
42.2024
42.5357
43.539
45.0691
47.0447
49.3062
51.7824
54.4203
57.1543
60.0703
62.9976
65.6111
75.2396
75.5141
75.397
75.1647
74.38
73.2033
72.919
)
;
    }
    inletRight
    {
        type            zeroGradient;
    }
    inletWallsRight
    {
        type            zeroGradient;
    }
    inletFacesRight
    {
        type            zeroGradient;
    }
}


// ************************************************************************* //
