/*--------------------------------*- C++ -*----------------------------------*\
| =========                 |                                                 |
| \\      /  F ield         | OpenFOAM: The Open Source CFD Toolbox           |
|  \\    /   O peration     | Version:  4.1                                   |
|   \\  /    A nd           | Web:      www.OpenFOAM.org                      |
|    \\/     M anipulation  |                                                 |
\*---------------------------------------------------------------------------*/
FoamFile
{
    version     2.0;
    format      ascii;
    class       volVectorField;
    location    "10";
    object      U;
}
// * * * * * * * * * * * * * * * * * * * * * * * * * * * * * * * * * * * * * //

dimensions      [0 1 -1 0 0 0 0];

internalField   nonuniform List<vector> 
1280
(
(8.03384e-16 -0.58463 -1.34791)
(7.19215e-16 0.116541 -1.41074)
(5.79586e-16 -0.224186 -1.04413)
(2.14975e-16 0.107082 -1.16541)
(2.15031e-16 0.49406 -1.59065)
(3.73653e-16 0.487927 -1.15466)
(6.20529e-16 0.741901 -1.14265)
(9.46804e-16 0.811594 -0.961072)
(1.15736e-15 1.3146 -1.62444)
(5.7862e-16 1.34436 -1.34467)
(3.84678e-16 1.55589 -1.22589)
(-4.20182e-16 2.23719 -2.14128)
(-6.35509e-16 2.19881 -1.69802)
(-5.34033e-16 2.48977 -1.50748)
(-1.26725e-15 3.34221 -2.77043)
(-1.18603e-15 3.22556 -2.35846)
(-9.98878e-16 3.70999 -2.14274)
(-6.57899e-16 4.48191 -4.08663)
(-2.38724e-16 4.82455 -3.33589)
(1.20898e-16 4.60576 -4.10511)
(-4.26092e-16 5.37594 -1.77449)
(-3.09188e-16 5.60667 -0.0932807)
(8.12406e-16 5.63732 1.89452)
(1.6813e-15 5.78815 5.53743)
(1.70058e-15 5.47374 9.34826)
(1.54438e-15 5.68588 12.2459)
(1.28814e-15 3.52482 8.52406)
(1.46993e-15 9.3574 15.4479)
(1.68664e-15 9.41917 15.3863)
(1.91032e-15 9.4427 14.9189)
(2.17959e-15 9.42839 14.1994)
(2.42511e-15 9.37259 13.3345)
(2.55571e-15 9.31009 12.4208)
(2.54156e-15 9.24569 11.5388)
(2.42864e-15 9.16778 10.7573)
(2.16628e-15 9.077 10.1196)
(1.57953e-15 8.98862 9.689)
(3.65371e-16 8.86653 9.44081)
(-7.91235e-16 8.88014 9.50937)
(-2.18296e-15 8.69986 9.02557)
(-3.56512e-15 10.0615 10.7231)
(-2.75696e-15 6.45488 7.92983)
(-2.44837e-15 5.80195 7.98557)
(-2.07006e-15 4.71768 8.03058)
(-5.25265e-16 3.59076 8.4006)
(1.58228e-16 2.01883 5.00146)
(6.45567e-17 1.56385 4.62632)
(-4.86048e-16 0.914268 4.81018)
(8.63545e-15 0.446504 1.93026)
(-3.40917e-14 3.74786 -6.36368)
(-1.62534e-14 -3.74122 -6.69481)
(2.26444e-15 -0.376058 2.01231)
(1.14462e-16 -0.858748 4.80524)
(1.19678e-15 -1.49725 4.61273)
(1.00918e-15 -1.9602 4.98492)
(1.9857e-15 -3.49933 8.36558)
(2.08992e-15 -4.64841 8.0258)
(2.28822e-15 -5.72438 7.9777)
(2.59127e-15 -6.38344 7.91291)
(3.41447e-15 -9.94347 10.6706)
(2.11669e-15 -8.63599 8.97441)
(6.56984e-16 -8.81327 9.45658)
(-5.14709e-16 -8.80184 9.37863)
(-1.77793e-15 -8.92279 9.61809)
(-2.45322e-15 -9.011 10.0403)
(-2.78325e-15 -9.10108 10.6734)
(-2.93149e-15 -9.17872 11.4538)
(-2.92941e-15 -9.24232 12.3373)
(-2.75206e-15 -9.30443 13.257)
(-2.46918e-15 -9.36149 14.138)
(-2.18636e-15 -9.37835 14.8911)
(-1.96376e-15 -9.36045 15.4129)
(-1.78405e-15 -9.31948 15.537)
(-1.69578e-15 -3.40226 8.73297)
(-1.90474e-15 -5.6233 12.4259)
(-2.15218e-15 -5.41252 9.54937)
(-2.19699e-15 -5.72588 5.76878)
(-1.3479e-15 -5.57222 2.17303)
(-2.32901e-16 -5.5436 0.206558)
(-1.56091e-16 -5.31463 -1.5163)
(-8.11504e-16 -4.57234 -3.98793)
(-5.80835e-16 -4.81741 -3.27315)
(-8.96332e-16 -4.22403 -4.06532)
(-8.25729e-16 -3.65184 -1.98132)
(-8.41188e-16 -3.14356 -2.28187)
(-1.02426e-15 -3.15593 -2.6385)
(-6.18407e-16 -2.41731 -1.22629)
(-6.79967e-16 -2.15171 -1.43034)
(-7.07457e-16 -2.17238 -1.69915)
(-4.36614e-16 -1.67363 -0.849117)
(-4.93993e-16 -1.49266 -0.999787)
(-3.46692e-16 -1.50674 -1.25397)
(-2.32592e-17 -1.11512 -0.690666)
(-2.0385e-17 -1.08415 -0.812108)
(-2.59142e-17 -0.877937 -0.853988)
(-3.65394e-17 -0.893147 -1.20369)
(-4.51299e-18 -0.583897 -0.770077)
(-4.1319e-18 -0.451458 -0.873675)
(-9.31749e-18 -0.371611 -1.10196)
(3.69754e-18 -0.123874 -0.582597)
(-7.94466e-17 1.37068 2.5271)
(6.56423e-16 2.11169 2.19182)
(1.51e-15 1.64556 1.7136)
(2.16337e-15 -1.07091 0.453954)
(2.12704e-15 -2.71248 0.0273073)
(2.04302e-15 -3.51661 -0.0658507)
(1.93048e-15 -3.48731 -0.193915)
(1.75113e-15 -2.51031 -0.318451)
(1.47402e-15 2.04228 -0.738953)
(1.05232e-15 3.66015 -1.14118)
(8.23634e-16 3.93214 -1.50677)
(8.37476e-16 2.9914 -2.20386)
(7.53793e-16 -0.569597 -3.0043)
(1.63025e-16 -2.73755 -2.88422)
(-1.13492e-16 -3.04695 -2.29444)
(-1.84569e-16 -2.24589 -1.78663)
(-1.68563e-16 -1.31834 -1.49036)
(-1.19547e-16 -0.89686 -1.27665)
(-8.55118e-17 -0.507112 -1.10704)
(4.63256e-16 1.4944 2.73784)
(1.66258e-15 2.37883 2.29317)
(2.49872e-15 2.11924 1.83735)
(2.88124e-15 -0.563972 0.606318)
(2.38161e-15 -2.84393 -0.0820723)
(2.08363e-15 -3.54373 0.177199)
(1.92146e-15 -3.38825 0.244455)
(1.74442e-15 -2.16946 0.0428492)
(1.4106e-15 2.25268 -0.355481)
(1.07204e-15 3.8541 -0.453501)
(1.3174e-15 4.30194 -0.792817)
(1.7142e-15 3.55574 -1.60012)
(1.76291e-15 -0.0763544 -2.92347)
(5.48322e-16 -3.08039 -3.05594)
(-5.09909e-17 -3.41897 -2.16184)
(-1.89158e-16 -2.47227 -1.5572)
(-1.78888e-16 -1.45105 -1.37693)
(-1.282e-16 -1.01949 -1.24855)
(-1.04755e-16 -0.523341 -1.16498)
(1.07772e-15 1.57416 2.89912)
(2.24388e-15 2.50782 2.59062)
(2.70132e-15 2.28109 2.34872)
(2.85953e-15 0.0711547 1.59979)
(2.76223e-15 -2.67014 0.321655)
(2.3153e-15 -3.58382 0.409501)
(1.96516e-15 -3.44926 0.80489)
(1.71242e-15 -2.05299 0.73221)
(1.31613e-15 2.29344 0.599845)
(1.42927e-15 3.85935 0.716054)
(2.10092e-15 4.47915 0.589443)
(2.48738e-15 3.88205 0.108533)
(2.38547e-15 0.00647195 -1.22141)
(1.11425e-15 -3.13676 -2.69501)
(1.70632e-16 -3.68052 -2.01355)
(-1.6535e-16 -2.62389 -1.31325)
(-1.98027e-16 -1.47561 -1.2376)
(-1.48613e-16 -1.02102 -1.18965)
(-5.9677e-17 -0.490355 -1.34218)
(1.71902e-15 1.62886 3.26669)
(2.39979e-15 2.58652 3.24938)
(2.4635e-15 2.44071 3.17023)
(2.59128e-15 0.542115 2.67074)
(2.89889e-15 -2.40864 1.31716)
(2.64234e-15 -3.62028 0.934199)
(2.15149e-15 -3.6084 1.39119)
(1.71073e-15 -2.00088 1.56065)
(1.50924e-15 2.08184 1.80964)
(2.16751e-15 3.80541 2.26708)
(2.87816e-15 4.55836 2.62226)
(2.8906e-15 4.17767 2.49628)
(2.30012e-15 0.724523 1.03115)
(1.7102e-15 -2.8473 -1.66001)
(5.66473e-16 -3.80499 -1.55756)
(-7.98522e-17 -2.74447 -1.03975)
(-2.24294e-16 -1.49498 -1.15494)
(-1.95023e-16 -1.09262 -1.17993)
(-6.51677e-18 -0.416827 -1.85712)
(2.02499e-15 1.59971 3.90845)
(1.87481e-15 2.56072 4.17684)
(1.82565e-15 2.51676 4.18563)
(2.23762e-15 0.88682 3.8885)
(2.84866e-15 -2.09717 2.66258)
(2.85306e-15 -3.55986 1.96505)
(2.42956e-15 -3.77296 2.17033)
(1.8602e-15 -2.0488 2.45142)
(2.09789e-15 1.90201 3.21847)
(3.11583e-15 3.53875 4.32992)
(3.64881e-15 4.43357 5.20117)
(3.24614e-15 4.50782 5.21817)
(2.29744e-15 1.81859 3.41166)
(1.96952e-15 -2.29434 -0.126937)
(8.71176e-16 -3.79995 -0.612845)
(8.70196e-17 -2.76016 -0.634268)
(-1.85104e-16 -1.37298 -1.20725)
(-2.65568e-16 -0.718818 -1.25685)
(6.12801e-17 -0.26296 -2.99621)
(1.6788e-15 1.52632 4.80002)
(8.06239e-16 2.48818 5.20868)
(1.13525e-15 2.56409 5.3052)
(2.04342e-15 1.15104 5.25551)
(2.83789e-15 -1.74487 4.27403)
(2.92898e-15 -3.39514 3.43284)
(2.65019e-15 -3.85575 3.30042)
(2.17996e-15 -2.24487 3.4717)
(2.9336e-15 1.36743 4.91601)
(4.18086e-15 3.02522 6.73506)
(4.60725e-15 4.21227 7.93743)
(3.9913e-15 4.91332 8.11374)
(2.55532e-15 3.04091 6.29636)
(1.50292e-15 -1.45145 1.79215)
(1.14115e-15 -3.43949 0.602793)
(2.66513e-16 -2.46346 0.175609)
(-7.88752e-17 -1.37854 -1.1541)
(-1.83566e-16 -0.855784 -1.31177)
(-4.04812e-16 0.54255 -4.09341)
(6.46979e-16 1.43378 5.77899)
(-3.31037e-16 2.38314 6.16699)
(7.27247e-16 2.5234 6.5207)
(2.0875e-15 1.27165 6.82152)
(2.92569e-15 -1.41487 6.15262)
(2.95801e-15 -3.15752 5.24323)
(2.74403e-15 -3.82435 4.79887)
(2.55783e-15 -2.53809 4.75755)
(3.80139e-15 0.582592 6.6894)
(5.21307e-15 2.34123 8.9633)
(5.51223e-15 3.89022 10.2286)
(4.81343e-15 5.22098 10.6963)
(3.13421e-15 4.26799 9.48197)
(1.27747e-15 -0.432337 4.80975)
(1.18495e-15 -3.1137 1.83337)
(4.11097e-16 -1.95516 1.27687)
(1.16524e-16 -0.433493 -0.656046)
(1.83847e-17 0.867151 -3.87303)
(-8.56082e-16 1.18477 0.519903)
(-7.59631e-16 1.35056 6.60609)
(-9.82207e-16 2.2225 7.02967)
(6.76705e-16 2.32249 7.92859)
(2.27906e-15 1.24072 8.64678)
(3.01488e-15 -1.13432 8.279)
(2.95508e-15 -2.86369 7.33151)
(2.77197e-15 -3.67665 6.60867)
(2.90332e-15 -2.85475 6.32296)
(4.35741e-15 -0.348595 8.12374)
(5.43943e-15 1.63043 10.3036)
(5.11819e-15 3.51242 11.2042)
(4.4436e-15 5.28783 11.8776)
(3.2888e-15 5.37048 11.8284)
(1.54092e-15 1.87422 8.65055)
(6.86773e-16 -1.9248 3.18034)
(7.07793e-16 -1.32661 2.41636)
(1.28313e-15 -0.179956 4.11101)
(1.91826e-15 -1.49367 6.70607)
(2.62767e-15 -4.86721 9.60209)
(-1.89672e-15 1.24084 7.00475)
(-1.09232e-15 1.89039 8.02948)
(5.97423e-16 1.89203 9.57576)
(2.40697e-15 1.07757 10.7299)
(2.97407e-15 -0.895086 10.6066)
(2.59883e-15 -2.52625 9.56691)
(2.5513e-15 -3.42953 8.54279)
(3.14018e-15 -3.03765 7.93248)
(4.06952e-15 -1.05089 8.88022)
(3.36692e-15 1.17 9.75058)
(1.9846e-15 3.24668 9.61531)
(1.61733e-15 5.03384 10.3392)
(1.8826e-15 5.47874 11.7671)
(1.84639e-15 2.8845 11.8923)
(1.49687e-15 -0.842474 9.58851)
(1.90726e-15 -1.96812 9.63246)
(2.5207e-15 -1.6146 12.5292)
(2.64558e-15 -1.55591 13.3709)
(2.50868e-15 -2.40737 11.7006)
(-2.08034e-15 0.909237 7.07438)
(-1.49191e-15 1.22858 9.32729)
(-3.62724e-16 1.24921 11.2802)
(2.0064e-15 0.776553 12.9999)
(4.21622e-15 -0.651125 13.4164)
(4.16882e-15 -2.05116 12.4571)
(3.30149e-15 -3.00923 11.0517)
(2.94841e-15 -2.93555 9.70213)
(2.09262e-15 -1.15414 8.48318)
(-8.64125e-16 1.35976 6.19002)
(-1.93303e-15 3.19533 5.01944)
(-2.00311e-15 4.43295 5.90496)
(-7.87615e-16 4.74246 8.93808)
(1.00716e-15 2.52953 11.7451)
(1.73412e-15 -1.17119 12.3069)
(1.23547e-15 -2.42883 12.3319)
(1.01335e-15 -1.82152 12.2401)
(2.61865e-15 -0.900999 10.245)
(5.89241e-15 -0.572786 6.46153)
(-1.88634e-15 0.253205 7.40551)
(-2.75556e-15 0.286185 10.3293)
(-3.01022e-15 0.411159 12.496)
(-2.24451e-15 0.164951 14.8844)
(-4.44719e-16 -0.696838 16.3088)
(1.18583e-15 -1.6441 15.9546)
(1.81395e-15 -2.34924 13.9356)
(1.05289e-15 -1.97153 10.3877)
(-1.14813e-15 0.262225 5.55469)
(-2.70728e-15 2.46263 2.00353)
(-2.22449e-15 3.27617 1.3368)
(-1.77567e-15 3.49296 1.80586)
(-2.09434e-15 3.22387 5.61799)
(-4.6858e-16 1.82541 10.3048)
(1.97821e-15 -0.941047 10.5311)
(1.56783e-15 -1.99455 10.4652)
(6.90289e-16 -0.946969 10.397)
(-2.16318e-16 0.26674 9.6123)
(3.52996e-16 0.72911 6.76078)
(-2.00418e-15 -0.386703 7.16192)
(-3.13156e-15 -0.694454 9.72295)
(-3.78903e-15 -0.574139 11.8488)
(-3.90051e-15 -0.747594 14.33)
(-3.33089e-15 -1.09045 15.9895)
(-2.47459e-15 -1.14248 15.458)
(-2.0468e-15 -0.743338 12.0433)
(-2.48191e-15 0.441869 6.82831)
(-3.07361e-15 2.09343 2.53223)
(-2.49784e-15 3.00665 1.41802)
(-1.48894e-15 3.27212 1.34324)
(-6.0416e-16 2.80754 1.47475)
(-1.39572e-15 1.29849 4.53199)
(-2.24663e-15 0.354039 10.4165)
(-1.07877e-15 -1.26873 12.4333)
(-9.01367e-16 -2.29415 12.9216)
(-1.88237e-15 -1.44328 14.1814)
(-2.32103e-15 0.462474 14.0947)
(-1.76911e-15 2.54324 11.738)
(-1.87278e-15 -0.872074 6.36239)
(-3.1361e-15 -1.51604 8.29999)
(-3.95505e-15 -1.4401 10.0779)
(-4.37725e-15 -1.46898 12.1077)
(-4.24286e-15 -1.10506 13.0118)
(-3.86183e-15 -0.0259216 11.2311)
(-3.65383e-15 1.1339 7.50856)
(-3.50069e-15 1.91218 4.2895)
(-3.00296e-15 2.53667 2.29454)
(-2.24181e-15 3.08627 1.46371)
(-1.4938e-15 3.17764 1.32426)
(-8.05469e-16 2.27839 1.52389)
(-1.05103e-15 -0.296516 3.78622)
(-2.36366e-15 -1.1982 7.70679)
(-2.4002e-15 -1.99208 10.2767)
(-2.03213e-15 -2.59713 11.1763)
(-2.00295e-15 -1.15179 10.6052)
(-1.89488e-15 1.52647 8.66811)
(-2.60053e-15 5.14407 9.60629)
(-1.62636e-15 -1.21293 5.60404)
(-2.99681e-15 -2.12259 6.82294)
(-3.88751e-15 -2.10014 8.12348)
(-4.41266e-15 -1.91731 9.5983)
(-4.38506e-15 -0.78695 9.80675)
(-4.10139e-15 0.993289 7.63753)
(-3.88842e-15 2.1138 5.14767)
(-3.48376e-15 2.65302 3.1213)
(-2.8077e-15 3.07358 1.5984)
(-2.1042e-15 3.34236 0.892994)
(-1.54301e-15 3.16479 0.757632)
(-9.86232e-16 2.00535 0.80764)
(-6.3305e-16 -1.13385 1.83763)
(-1.48674e-15 -2.24067 3.73282)
(-2.42165e-15 -2.5714 5.83216)
(-2.05766e-15 -2.43175 6.61482)
(-7.78308e-16 -0.764132 3.74457)
(3.99702e-16 0.524815 -0.209538)
(1.15873e-15 -0.232031 0.807363)
(-1.34372e-15 -1.39622 5.07044)
(-2.75784e-15 -2.49477 5.60005)
(-3.71018e-15 -2.55053 6.38488)
(-4.33142e-15 -2.16669 7.36325)
(-4.39753e-15 -0.343368 7.13815)
(-4.14763e-15 1.79864 5.03276)
(-3.78367e-15 2.93595 3.26721)
(-3.19054e-15 3.30058 1.93821)
(-2.52333e-15 3.42251 0.982096)
(-1.96793e-15 3.46347 0.511472)
(-1.53308e-15 3.14037 0.37407)
(-1.02348e-15 1.92036 0.357028)
(-5.0896e-16 -1.50829 0.430701)
(-5.30313e-16 -2.79345 0.596975)
(-1.49919e-15 -3.08964 1.04664)
(-1.941e-15 -1.92842 2.3272)
(-9.65937e-16 1.46138 -0.807652)
(-9.5518e-17 2.56798 -1.63946)
(6.49896e-16 1.70176 -3.57326)
(-1.08257e-15 -1.42674 4.70985)
(-2.42957e-15 -2.63176 4.72346)
(-3.42592e-15 -2.78819 5.01895)
(-4.18102e-15 -2.25183 5.52673)
(-4.35519e-15 0.199249 4.91683)
(-4.01729e-15 2.44281 2.98455)
(-3.46515e-15 3.443 1.86936)
(-2.85042e-15 3.6118 1.17324)
(-2.3608e-15 3.62117 0.582413)
(-1.96189e-15 3.58264 0.181901)
(-1.58261e-15 3.15795 0.0128882)
(-1.09239e-15 1.94946 -0.0356214)
(-6.68833e-16 -1.12261 -0.479853)
(-2.42455e-16 -2.60906 -1.15732)
(-3.1213e-16 -3.0937 -2.27562)
(-7.43645e-16 -1.75888 -2.28216)
(-2.13853e-16 0.435203 -3.64112)
(2.58587e-16 2.08312 -3.39396)
(6.29626e-16 1.42671 -2.95384)
(-8.40073e-16 -1.40198 4.41706)
(-2.04187e-15 -2.61737 4.1466)
(-3.03495e-15 -2.84997 4.06288)
(-3.92347e-15 -2.19737 4.11369)
(-4.17128e-15 0.795472 3.08808)
(-3.65189e-15 2.9112 1.50884)
(-3.04446e-15 3.72283 1.03804)
(-2.60536e-15 3.80597 0.729553)
(-2.31539e-15 3.8036 0.247742)
(-1.98597e-15 3.70195 -0.107864)
(-1.60077e-15 3.20297 -0.283837)
(-1.10099e-15 2.02843 -0.375037)
(-7.2343e-16 -0.752038 -0.968679)
(-3.25349e-16 -2.2199 -1.86986)
(2.61756e-17 -2.63192 -3.1805)
(5.33055e-17 -1.45276 -4.05743)
(2.58249e-16 1.02619 -4.4029)
(3.37222e-16 2.08224 -3.38452)
(2.87924e-16 1.45906 -2.46554)
(-5.77785e-16 -1.29282 4.09553)
(-1.61498e-15 -2.4833 3.76284)
(-2.5552e-15 -2.73329 3.46661)
(-3.51705e-15 -1.94599 3.11104)
(-3.76761e-15 1.3111 1.71487)
(-3.14172e-15 3.18947 0.685036)
(-2.73721e-15 3.81678 0.659428)
(-2.52872e-15 3.92391 0.420059)
(-2.33172e-15 3.94622 -0.0246695)
(-2.00032e-15 3.78934 -0.318663)
(-1.60046e-15 3.24165 -0.50094)
(-1.08741e-15 2.09789 -0.630625)
(-6.70491e-16 -0.330182 -1.20485)
(-3.56288e-16 -1.8576 -2.07726)
(-3.98188e-17 -2.16488 -3.01961)
(1.62379e-16 -1.19269 -3.90331)
(2.25772e-16 0.670202 -3.93397)
(3.08485e-16 1.51596 -2.94918)
(4.31138e-17 1.11905 -2.03845)
(-3.14149e-16 -1.27182 3.78842)
(-1.21098e-15 -2.38628 3.47539)
(-2.1049e-15 -2.57878 3.1751)
(-3.06695e-15 -1.6151 2.47094)
(-3.17595e-15 1.79825 0.879337)
(-2.74856e-15 3.37608 0.497008)
(-2.64391e-15 3.90718 0.454954)
(-2.54062e-15 4.06734 0.158156)
(-2.34359e-15 4.07836 -0.208129)
(-1.99705e-15 3.86552 -0.461098)
(-1.58554e-15 3.2763 -0.654385)
(-1.05608e-15 2.13782 -0.812188)
(-5.81751e-16 -0.0418493 -1.26194)
(-3.07235e-16 -1.60965 -2.0392)
(-6.70613e-17 -1.87898 -2.66378)
(1.1834e-16 -1.09075 -3.2762)
(1.72663e-16 0.469683 -3.24682)
(2.78709e-16 1.22423 -2.4513)
(9.95901e-17 0.976374 -1.77524)
(3.25758e-17 -1.13797 3.44396)
(-5.6829e-16 -2.20888 3.08753)
(-1.3116e-15 -2.26563 2.89484)
(-2.20605e-15 -0.921989 2.12681)
(-2.61878e-15 1.90043 0.923672)
(-2.64432e-15 3.37778 0.521329)
(-2.6544e-15 4.01407 0.255301)
(-2.55065e-15 4.22328 -0.000825028)
(-2.34204e-15 4.24274 -0.301169)
(-1.98804e-15 4.02159 -0.548382)
(-1.56837e-15 3.43555 -0.754924)
(-1.02209e-15 2.35083 -0.915818)
(-4.95565e-16 0.458014 -1.14087)
(-2.18522e-16 -1.36138 -1.67042)
(5.85027e-18 -1.61771 -2.03964)
(1.44807e-16 -0.944997 -2.37138)
(2.03317e-16 0.393402 -2.34371)
(2.64148e-16 0.959464 -1.95665)
(8.43766e-17 0.769652 -1.70864)
(-1.50236e-16 6.23878 11.2608)
(-8.24118e-16 13.3957 21.3898)
(2.1118e-16 17.1948 26.3649)
(7.34979e-16 19.6606 29.6186)
(3.61795e-16 20.3642 30.5474)
(-4.37611e-18 19.4165 29.0156)
(5.08838e-16 17.5109 26.1329)
(1.09456e-15 15.6755 23.4791)
(2.07563e-15 14.0374 21.081)
(3.86806e-15 12.4703 18.8662)
(6.72434e-15 10.8904 16.6742)
(1.02434e-14 9.23091 14.3919)
(1.358e-14 7.44599 11.9636)
(1.64347e-14 5.53122 9.37549)
(1.91051e-14 3.57045 6.75926)
(2.01227e-14 2.04024 4.68427)
(1.69315e-14 1.32268 3.72171)
(1.05312e-14 1.71635 4.17707)
(4.6182e-15 2.73367 5.41045)
(9.49374e-16 2.01587 4.28866)
(1.33226e-16 9.21685 15.7421)
(-2.59031e-15 17.3123 28.4354)
(-2.30256e-15 18.1629 29.0868)
(-2.22815e-15 16.3446 26.3223)
(-2.5425e-15 13.9742 23.2193)
(-3.33555e-15 11.7574 20.5396)
(-2.057e-15 10.064 18.538)
(-1.25176e-15 8.63904 16.8668)
(8.7579e-16 7.21987 15.1899)
(5.04348e-15 5.74119 13.3604)
(1.0906e-14 4.16114 11.3617)
(1.64191e-14 2.49697 9.20327)
(1.9344e-14 0.802853 6.93997)
(2.0565e-14 -0.70705 4.83652)
(2.10465e-14 -1.55445 3.55671)
(1.82293e-14 -1.15467 3.92565)
(1.08304e-14 0.80637 6.38819)
(3.28743e-15 3.94143 10.3092)
(-1.07931e-15 6.62343 13.1295)
(-2.2657e-15 5.12799 9.95294)
(5.72663e-17 10.3546 17.8376)
(-1.74871e-15 17.3034 30.1897)
(-1.39407e-15 15.7018 27.2807)
(-1.73713e-15 12.9496 23.0512)
(-1.92059e-15 11.3216 20.4997)
(-2.58685e-15 10.2985 19.0058)
(-1.58664e-15 9.30259 17.5063)
(-1.36422e-15 8.19914 15.7473)
(-4.91657e-16 6.99112 13.8195)
(2.06297e-15 5.74118 11.7728)
(6.28726e-15 4.49304 9.69799)
(1.02959e-14 3.3667 7.78432)
(1.08128e-14 2.55009 6.3569)
(7.99864e-15 2.34442 5.8921)
(4.5201e-15 3.12558 6.9773)
(1.66394e-15 5.04154 9.85456)
(-7.49131e-16 7.65791 13.8484)
(-2.39816e-15 9.91653 17.4709)
(-2.51334e-15 10.8949 18.5143)
(-2.17341e-15 7.53933 13.8581)
(-1.32727e-17 9.02544 15.4609)
(3.25626e-16 16.2928 28.9465)
(2.90091e-16 15.4221 26.9567)
(3.15617e-16 13.6757 23.6896)
(1.87969e-16 12.4013 21.1699)
(-1.96772e-15 11.3999 19.1494)
(-1.65128e-15 10.5294 17.5188)
(-2.21552e-15 9.77811 15.9822)
(-2.60482e-15 9.03005 14.454)
(-2.51389e-15 8.3044 12.8579)
(-2.72105e-15 7.56749 11.1684)
(-1.95596e-15 6.84508 9.42593)
(-8.9434e-16 6.2535 7.87091)
(-9.72844e-16 5.988 6.93283)
(-1.61307e-15 6.25196 7.05665)
(-3.3882e-15 7.07417 8.52751)
(-4.56912e-15 8.29793 10.9717)
(-4.53639e-15 9.15862 13.4433)
(-3.37099e-15 9.14671 14.2886)
(-2.60126e-15 6.51165 11.1362)
(-1.15596e-18 7.76296 13.4536)
(-4.95565e-17 16.7056 29.5707)
(-4.00866e-17 16.8445 29.3969)
(-3.92088e-17 15.0032 25.7279)
(1.08634e-17 13.3454 22.7208)
(3.66683e-16 12.2926 20.5407)
(3.47618e-16 11.4818 18.9653)
(3.22569e-16 10.8491 17.5779)
(3.19806e-16 10.2387 16.2689)
(2.29926e-16 9.6535 14.9666)
(4.92467e-17 9.0698 13.6355)
(-3.33461e-16 8.47156 12.2324)
(-7.84928e-16 7.85491 10.7412)
(-1.19596e-15 7.23705 9.24811)
(-1.51178e-15 6.72401 8.0163)
(-1.65132e-15 6.4563 7.45729)
(-1.50329e-15 6.48589 7.7855)
(-1.02423e-15 6.60303 8.64146)
(-3.54909e-16 6.20571 9.08318)
(3.2718e-16 4.05774 6.11112)
(6.54127e-19 6.66924 11.389)
(2.37486e-18 16.9853 29.5787)
(-6.01461e-19 17.5735 30.5813)
(-4.38514e-19 15.5878 26.6724)
(-7.72298e-18 13.7895 23.5694)
(-5.46243e-17 12.7467 21.4068)
(-4.35465e-17 11.9055 19.8237)
(-2.67741e-17 11.2012 18.3645)
(-1.17216e-17 10.4933 16.9697)
(1.90469e-17 9.80354 15.6117)
(6.76187e-17 9.12847 14.3025)
(1.40415e-16 8.47062 13.0352)
(2.17175e-16 7.81837 11.7794)
(2.77024e-16 7.16123 10.4929)
(3.02159e-16 6.4804 9.17446)
(2.72342e-16 5.82221 7.89595)
(1.65199e-16 5.15645 6.84172)
(1.23194e-17 4.56821 5.97522)
(-7.87608e-17 3.51379 5.06757)
(-1.34867e-16 1.42796 1.21692)
(-2.46323e-19 6.84592 11.4993)
(1.57769e-18 17.5504 29.6497)
(2.44565e-18 18.3862 31.4115)
(2.24573e-18 16.4492 27.559)
(1.85514e-18 14.5962 24.4595)
(2.72111e-18 13.5624 22.3022)
(-1.54941e-18 12.7033 20.7058)
(-5.97568e-18 11.962 19.1872)
(-1.0368e-17 11.2001 17.6962)
(-1.64756e-17 10.4301 16.2006)
(-2.44619e-17 9.6439 14.7146)
(-3.34373e-17 8.84367 13.251)
(-4.00727e-17 8.02841 11.8231)
(-4.00235e-17 7.20694 10.4256)
(-3.01076e-17 6.34942 9.04476)
(-1.17221e-17 5.47364 7.61884)
(6.97661e-18 4.46453 6.14569)
(1.23735e-17 3.42724 4.46067)
(4.44189e-19 1.70962 2.37776)
(-7.36187e-17 -0.069645 -1.52817)
(7.95063e-20 8.91283 14.9357)
(-6.07418e-19 18.9486 30.8998)
(-8.96313e-19 19.0912 31.8374)
(-8.58518e-19 17.2265 28.024)
(-4.91463e-19 15.4427 25.22)
(1.14538e-18 14.5441 23.1817)
(2.62591e-18 13.713 21.6349)
(3.51426e-18 13.0109 20.0948)
(4.24399e-18 12.2501 18.5474)
(5.04611e-18 11.448 16.9256)
(5.8454e-18 10.5774 15.2428)
(6.28882e-18 9.64141 13.5116)
(5.93784e-18 8.64133 11.7572)
(4.78666e-18 7.59094 9.99451)
(4.2642e-18 6.47069 8.24208)
(7.62358e-18 5.30376 6.45745)
(1.7662e-17 3.97486 4.62257)
(3.24151e-17 2.55637 2.4551)
(5.82821e-17 0.304806 -0.224257)
(-2.29379e-17 -1.14548 -4.03877)
(-1.82195e-20 12.4746 21.5509)
(1.34984e-19 20.7413 33.2243)
(2.15498e-19 18.8916 31.6773)
(2.15237e-19 17.4275 28.1324)
(1.28096e-19 15.8814 26.1573)
(-3.97564e-19 15.3298 24.4215)
(-8.11305e-19 14.5182 23.0689)
(-9.84764e-19 13.9279 21.5424)
(-1.05273e-18 13.1281 19.9392)
(-1.08342e-18 12.2537 18.1082)
(-1.06544e-18 11.2138 16.1311)
(-9.63109e-19 10.0697 14.0345)
(-8.32147e-19 8.82035 11.8743)
(-9.61661e-19 7.48622 9.66167)
(-1.88544e-18 6.03631 7.41439)
(-3.84507e-18 4.48879 5.09337)
(-5.80916e-18 2.75224 2.81341)
(-3.79244e-18 1.01625 0.252715)
(2.41626e-17 -1.59889 -2.61537)
(5.26625e-18 -2.43127 -6.40261)
(3.39891e-21 15.613 28.0617)
(-2.60089e-20 20.7389 33.5247)
(-4.33355e-20 17.1934 30.4355)
(-4.35865e-20 16.7165 27.9014)
(-2.59977e-20 15.2158 26.8181)
(9.78457e-20 14.9439 25.3338)
(1.86673e-19 13.9422 24.2793)
(2.11181e-19 13.351 22.7684)
(2.1989e-19 12.2152 21.0588)
(2.59394e-19 11.0095 18.8576)
(3.03433e-19 9.48151 16.4383)
(2.2794e-19 7.87283 13.8349)
(-3.35867e-20 6.11628 11.1494)
(-3.94543e-19 4.24746 8.29772)
(-7.20201e-19 2.25877 5.25703)
(-1.07182e-18 0.0284018 1.93513)
(-3.68635e-18 -2.13131 -1.28204)
(-3.41224e-18 -2.36648 -2.81749)
(1.87498e-17 -4.70122 -5.46422)
(1.7831e-17 -3.72625 -7.71298)
(-5.83267e-22 16.2949 30.1443)
(5.12131e-21 18.4298 30.5781)
(8.062e-21 15.3187 28.5346)
(8.02049e-21 15.2852 26.7062)
(1.36527e-21 13.6253 25.7545)
(-2.68462e-20 13.2049 24.3299)
(-4.69698e-20 11.977 23.3303)
(-5.15422e-20 11.1014 21.7473)
(-1.17228e-21 9.57791 19.8323)
(1.42877e-19 7.99241 17.3301)
(2.07968e-19 6.1051 14.6193)
(-2.18527e-19 4.24528 11.7987)
(-1.30011e-18 2.33847 9.01187)
(-2.62823e-18 0.46148 6.19698)
(-3.24431e-18 -1.30057 3.51336)
(-9.94759e-19 -2.71443 1.23386)
(6.06031e-18 -3.78155 -0.810151)
(1.46007e-17 -4.23397 -2.44348)
(1.78719e-17 -3.07173 -1.85882)
(9.19588e-18 -0.309668 1.03583)
(6.62916e-23 14.9101 27.7582)
(-8.9711e-22 17.0763 28.6422)
(-1.31049e-21 14.3087 26.7985)
(-1.06174e-21 14.0125 24.512)
(1.25501e-21 12.1993 23.4257)
(5.38068e-21 11.5981 21.7739)
(4.2973e-22 10.1894 20.6158)
(-3.66366e-21 9.14207 18.9913)
(5.84805e-20 7.597 17.1686)
(2.33732e-19 6.02644 14.8578)
(2.41466e-19 4.25084 12.2979)
(-6.26677e-19 2.53277 9.62376)
(-2.71871e-18 0.939412 7.11046)
(-4.96747e-18 -0.330829 4.9745)
(-5.28901e-18 -1.06713 3.53554)
(-2.66081e-18 -0.895266 3.37266)
(1.30823e-18 0.650585 5.24992)
(3.55657e-18 3.62763 9.01922)
(2.7134e-18 6.67752 12.5029)
(6.48042e-19 5.57171 11.0998)
(-7.45272e-24 14.1122 26.2941)
(1.29354e-22 17.6085 28.5834)
(1.70728e-22 14.2826 26.2254)
(1.19051e-22 14.3459 23.3172)
(-2.09833e-22 12.3553 22.1853)
(-8.54893e-22 12.0148 20.0489)
(-1.9186e-21 10.583 18.6419)
(-5.66188e-21 9.81893 16.8673)
(3.82679e-21 8.68348 15.3011)
(7.3439e-20 7.73851 13.5576)
(1.61482e-19 6.71211 11.7653)
(-5.44277e-20 5.81603 9.94127)
(-9.45515e-19 5.13698 8.36114)
(-2.30951e-18 4.78528 7.25909)
(-3.51497e-18 4.80538 6.82519)
(-3.89469e-18 5.28635 7.2756)
(-3.35897e-18 6.18188 8.47878)
(-2.14064e-18 6.93585 10.0863)
(-4.43323e-19 7.3085 10.8198)
(1.19696e-18 5.1261 8.77787)
(3.6347e-25 14.4075 26.9669)
(-1.35072e-23 18.4648 29.4099)
(-1.19249e-23 14.8281 27.0751)
(-5.95997e-26 15.0942 24.0622)
(3.09039e-23 13.1985 22.9197)
(5.91195e-23 12.9359 20.8545)
(2.43132e-22 11.7572 19.3946)
(1.33963e-21 11.09 17.6894)
(8.16239e-22 10.2605 16.1789)
(-1.1741e-20 9.5678 14.7179)
(-3.57546e-20 8.92847 13.3555)
(-2.1446e-20 8.35635 12.0607)
(1.01779e-19 7.82942 10.7912)
(3.05155e-19 7.30671 9.52543)
(4.19791e-19 6.76797 8.28189)
(2.95594e-19 6.20015 7.17398)
(5.16614e-20 5.62239 6.34806)
(1.09298e-19 5.02147 5.80886)
(6.93588e-19 3.99399 5.11252)
(1.29618e-18 2.09649 2.48288)
(2.04199e-25 15.143 28.7055)
(1.96723e-25 19.0989 29.882)
(-1.6972e-24 15.1154 27.8801)
(-4.65439e-24 15.7801 24.9641)
(-9.91903e-24 13.7463 23.8829)
(-1.26352e-23 13.5939 21.8331)
(-3.96318e-23 12.4396 20.4243)
(-1.73324e-22 11.8177 18.761)
(4.77756e-23 11.0214 17.2539)
(1.96865e-21 10.3095 15.735)
(4.18704e-21 9.60052 14.2534)
(-2.38515e-21 8.90061 12.7978)
(-2.55131e-20 8.19227 11.3609)
(-4.89166e-20 7.45709 9.91935)
(-2.83399e-20 6.64026 8.44786)
(7.32437e-20 5.7217 6.88252)
(2.42534e-19 4.58216 5.21301)
(4.18556e-19 3.3226 3.29963)
(5.1146e-19 1.37477 1.09423)
(7.90228e-19 -0.12525 -2.29143)
(-1.04096e-25 15.7625 30.7803)
(6.18421e-25 19.3329 29.7474)
(1.71142e-24 15.1242 28.6052)
(1.02161e-24 16.3146 25.8006)
(-5.04823e-24 14.0132 24.8744)
(-1.37082e-23 14.0649 22.8312)
(-6.36717e-25 12.8264 21.5384)
(4.98226e-23 12.3209 19.933)
(-4.74279e-24 11.543 18.5447)
(-4.22949e-22 10.9244 17.114)
(-6.90876e-22 10.277 15.7047)
(1.34132e-21 9.61587 14.2229)
(7.38166e-21 8.85301 12.5961)
(1.36385e-20 7.90831 10.713)
(9.43247e-21 6.65355 8.51926)
(-1.72657e-20 5.13582 6.0519)
(-6.45676e-20 3.35204 3.62691)
(-1.2898e-19 1.59976 0.91992)
(-1.42417e-19 -1.1287 -2.06741)
(3.74103e-19 -2.08325 -5.85093)
(3.46461e-26 15.6613 31.6731)
(-2.61797e-26 18.8905 28.916)
(-1.38027e-25 14.6592 28.6425)
(-2.64669e-24 15.9551 25.9871)
(-8.52826e-24 13.6131 25.147)
(-6.66447e-24 13.6118 23.277)
(2.1538e-23 12.3766 22.1067)
(5.7786e-23 11.8907 20.6667)
(7.35347e-24 11.1196 19.4594)
(-1.9355e-22 10.5562 18.2121)
(-1.9198e-22 9.93066 16.972)
(1.38202e-21 9.24758 15.5476)
(6.33776e-21 8.31108 13.7207)
(1.20038e-20 6.90372 11.1432)
(6.19026e-21 4.82027 7.6364)
(-1.4359e-20 2.43188 3.76555)
(-6.66988e-21 0.11113 0.855932)
(-4.81139e-20 -0.760293 -1.51719)
(-2.53732e-19 -3.59784 -4.242)
(1.98383e-19 -3.29255 -7.97066)
(8.04742e-29 14.3419 30.831)
(2.99084e-25 18.1683 27.989)
(2.64909e-25 13.568 27.8709)
(-2.45675e-24 14.4145 25.5849)
(-6.63664e-24 12.373 24.672)
(2.15499e-24 11.884 23.1425)
(3.45741e-23 10.7876 21.9831)
(2.90761e-23 10.0567 20.7447)
(-1.63722e-22 9.26509 19.6224)
(-4.48086e-22 8.57255 18.5074)
(3.68577e-22 7.85045 17.3423)
(4.91388e-21 7.01781 15.914)
(1.32731e-20 5.85453 13.8598)
(1.17128e-20 4.07649 10.6415)
(-2.75478e-20 1.61026 6.06089)
(-9.76362e-20 -0.830412 1.27372)
(-1.29759e-19 -2.29138 -1.92864)
(-1.18562e-19 -3.20159 -3.92939)
(-1.0509e-19 -4.11688 -5.38833)
(6.96416e-20 -2.7717 -4.84308)
(8.62897e-27 11.1761 28.3854)
(9.52479e-26 16.9017 24.9439)
(5.45416e-27 11.9327 25.3323)
(-1.46794e-24 12.515 23.6611)
(-3.28412e-24 10.7614 22.9414)
(2.76794e-24 10.0502 21.8848)
(2.1148e-23 9.01402 21.0027)
(1.71083e-23 8.18938 20.0913)
(-7.53941e-23 7.36692 19.2287)
(-1.75682e-22 6.61886 18.376)
(1.92363e-22 5.89585 17.5082)
(1.61362e-21 5.17654 16.5466)
(3.49834e-21 4.42585 15.3942)
(2.93519e-21 3.64896 13.9569)
(-3.9684e-21 2.90783 12.1646)
(-1.73897e-20 2.27015 10.0339)
(-2.92878e-20 1.7252 7.68397)
(-3.01455e-20 1.15156 4.99679)
(-2.04932e-20 0.271772 1.76074)
(1.80871e-21 -0.430142 -0.568165)
(8.25852e-27 2.5751 16.9806)
(6.16648e-26 8.03381 13.611)
(3.88351e-26 5.17276 14.4593)
(-5.32078e-25 4.99285 14.0641)
(-1.89414e-24 4.07932 14.0191)
(-1.10139e-24 3.52212 13.8404)
(1.11215e-23 2.95273 13.6773)
(4.11289e-23 2.48782 13.4836)
(5.30987e-23 2.08681 13.2787)
(-8.60181e-23 1.76614 13.0685)
(-5.82095e-22 1.52695 12.8671)
(-1.48223e-21 1.37487 12.6794)
(-2.32143e-21 1.3073 12.4941)
(-2.14624e-21 1.3243 12.2733)
(-3.70321e-22 1.43081 11.9621)
(2.15818e-21 1.58755 11.5383)
(3.5008e-21 1.81463 10.9624)
(2.71766e-21 2.40509 9.97259)
(1.03025e-21 2.57166 8.54948)
(-1.419e-23 -0.236038 6.4676)
(-7.94782e-27 -2.57503 16.9805)
(-4.88302e-26 -8.03378 13.6108)
(-2.77085e-27 -5.17274 14.4592)
(4.94069e-25 -4.99285 14.064)
(1.38884e-24 -4.07935 14.0189)
(-3.70824e-25 -3.52217 13.8402)
(-1.27025e-23 -2.95281 13.6771)
(-3.7871e-23 -2.48793 13.4834)
(-3.50703e-23 -2.08698 13.2784)
(1.2729e-22 -1.76637 13.0683)
(6.39904e-22 -1.52725 12.8669)
(1.5287e-21 -1.37521 12.6792)
(2.33031e-21 -1.30763 12.4938)
(2.13619e-21 -1.32456 12.2729)
(4.12388e-22 -1.43094 11.9615)
(-2.01217e-21 -1.58753 11.5374)
(-3.30331e-21 -1.81445 10.9615)
(-2.58883e-21 -2.40478 9.97185)
(-1.01181e-21 -2.57127 8.54894)
(-3.43302e-24 0.236212 6.46715)
(-8.95096e-27 -11.1759 28.385)
(-6.59396e-26 -16.9015 24.9434)
(7.13473e-26 -11.9324 25.3318)
(1.25395e-24 -12.5147 23.6606)
(1.90756e-24 -10.7612 22.9409)
(-5.16849e-24 -10.0499 21.8842)
(-1.99912e-23 -9.01378 21.0021)
(-2.79168e-24 -8.18913 20.0907)
(1.09634e-22 -7.36666 19.2282)
(2.24547e-22 -6.61859 18.3755)
(-1.36756e-22 -5.89555 17.5077)
(-1.53882e-21 -5.17624 16.546)
(-3.39651e-21 -4.4257 15.3938)
(-2.91654e-21 -3.6493 13.9569)
(3.58892e-21 -2.90902 12.1654)
(1.62881e-20 -2.27222 10.0359)
(2.76791e-20 -1.72777 7.68726)
(2.89117e-20 -1.15429 5.00042)
(2.02204e-20 -0.274627 1.76418)
(-1.26802e-21 0.428584 -0.566223)
(-1.39903e-27 -14.3416 30.8304)
(-2.57135e-25 -18.1679 27.9887)
(-1.53198e-25 -13.5677 27.8704)
(2.11672e-24 -14.414 25.5846)
(4.63346e-24 -12.3725 24.6717)
(-5.05427e-24 -11.8834 23.1423)
(-3.01863e-23 -10.787 21.9829)
(-3.08552e-24 -10.056 20.7447)
(2.11087e-22 -9.26435 19.6225)
(4.74975e-22 -8.57166 18.5076)
(-4.1968e-22 -7.84925 17.3422)
(-5.00044e-21 -7.01597 15.9131)
(-1.32569e-20 -5.85154 13.8571)
(-1.20135e-20 -4.07216 10.6364)
(2.50279e-20 -1.60627 6.05571)
(9.12983e-20 0.831222 1.27309)
(1.22307e-19 2.29022 -1.9263)
(1.13182e-19 3.20191 -3.92942)
(1.00707e-19 4.11627 -5.38732)
(-6.76035e-20 2.77038 -4.83899)
(-3.60872e-26 -15.6617 31.6738)