/*--------------------------------*- C++ -*----------------------------------*\
| =========                 |                                                 |
| \\      /  F ield         | OpenFOAM: The Open Source CFD Toolbox           |
|  \\    /   O peration     | Version:  4.1                                   |
|   \\  /    A nd           | Web:      www.OpenFOAM.org                      |
|    \\/     M anipulation  |                                                 |
\*---------------------------------------------------------------------------*/
FoamFile
{
    version     2.0;
    format      ascii;
    class       volScalarField;
    location    "5";
    object      p;
}
// * * * * * * * * * * * * * * * * * * * * * * * * * * * * * * * * * * * * * //

dimensions      [0 2 -2 0 0 0 0];

internalField   nonuniform List<scalar> 
1280
(
0.309053
-0.363178
-0.0226339
0.561034
0.688066
0.784203
0.882795
1.27521
1.22525
1.46996
1.66596
1.50047
1.30535
1.19058
0.922887
-1.46626
-2.81694
-5.26672
-9.87482
-17.9507
-13.1194
-0.965258
12.9508
18.3061
19.8437
22.6979
-5.31828
11.2164
11.8077
11.793
11.6425
11.432
11.1659
10.7792
10.3962
9.74416
9.3565
7.95085
7.86448
3.51804
-36.3356
-13.1118
-6.33081
-3.14983
4.69455
4.98291
5.10012
5.19913
6.3281
6.41516
6.38701
6.17302
5.04101
4.97366
4.87508
4.59758
-3.19796
-6.36124
-13.1196
-36.2655
3.59038
7.94002
8.02858
9.43988
9.83265
10.49
10.8767
11.2663
11.5348
11.7475
11.9005
11.9172
11.3322
-5.04008
22.7555
19.8711
18.3038
12.9217
-1.0115
-13.1747
-18.0235
-9.9729
-5.39584
-2.95121
-1.60684
0.774143
1.0529
1.17516
1.38321
1.55002
1.37098
1.13476
1.19258
0.827975
0.741217
0.647033
0.530978
-0.00940216
-0.344512
0.298513
0.0215487
0.296876
-0.115919
-0.549902
-1.00156
-2.89644
-2.39539
-0.80844
0.540643
1.92658
2.83885
2.34865
0.652034
-0.770115
-0.842052
-0.0190833
0.344397
0.236158
0.102226
-0.252136
-0.011648
-0.306307
-1.07461
-2.49719
-4.92817
-3.29441
0.0900552
3.03047
5.7708
7.2445
5.77103
1.95963
-0.491061
-0.980685
0.381731
0.93813
0.630877
0.297914
-0.0462889
0.3302
-0.322633
-2.11318
-5.00473
-6.3215
-3.90557
0.645634
4.24674
7.5089
9.25838
7.25096
2.12329
-1.11346
-1.37895
0.67926
1.40091
0.863941
0.402223
-0.133719
0.472398
-0.330165
-2.66471
-6.89249
-7.3521
-4.93087
0.994083
5.56432
9.55354
11.6753
8.68189
1.94093
-2.69779
-2.29902
0.974606
1.91232
1.10239
0.396829
-0.136649
0.908399
-0.134165
-2.77829
-7.96153
-7.76569
-5.81006
1.43487
7.11201
11.7925
14.0823
9.50086
0.0246516
-8.09384
-4.25445
2.15936
3.20563
1.51081
0.295942
-0.312228
1.27044
0.0453824
-2.43121
-7.81664
-7.87301
-6.33284
1.9469
8.75164
13.834
15.5883
9.57504
-3.77054
-14.0503
-8.30934
3.94479
6.03535
3.0167
-1.53473
-0.480734
1.62325
0.249439
-1.84261
-6.95195
-8.11022
-6.46059
2.34841
10.4403
15.8539
15.8376
9.68442
-5.69884
-15.2702
-9.54417
6.87285
10.3991
2.99135
-7.5966
-0.648038
1.82454
0.386451
-1.21911
-5.69199
-7.83257
-5.5301
3.18153
12.1766
17.1265
15.4279
10.3403
-4.45022
-15.8635
-10.1838
8.12554
13.5922
10.0447
-2.84443
-0.730576
1.92283
0.507792
-0.707091
-4.59895
-7.23366
-4.69475
3.67494
13.1146
16.8275
14.439
9.84781
-1.57377
-12.2511
-7.46594
8.62204
12.0318
19.8884
18.6372
-0.736612
1.93761
0.572267
-0.392804
-3.7743
-6.22353
-3.57455
4.67289
13.6966
16.2674
13.7839
9.58957
-0.309759
-9.91205
-5.11576
9.4647
16.6032
32.0249
14.9783
-0.731815
1.93587
0.576631
-0.38353
-3.75553
-6.20896
-3.56287
4.6733
13.7105
16.3017
13.7643
9.48403
-0.473711
-9.79945
-4.79247
9.78562
16.6078
31.9464
15.0629
-0.71922
1.91188
0.517231
-0.682348
-4.55415
-7.21903
-4.69059
3.61588
13.0395
16.853
14.5177
9.78926
-2.02033
-11.9083
-6.2168
10.0042
12.1051
19.5576
18.5527
-0.631705
1.80711
0.397516
-1.18108
-5.62041
-7.8068
-5.51149
3.1347
12.0996
17.0905
15.4617
10.0059
-5.05271
-14.7771
-8.39233
9.72466
13.6483
9.40517
-3.24856
-0.465808
1.60112
0.25718
-1.79935
-6.87277
-8.08967
-6.4818
2.26172
10.3094
15.6745
15.898
9.23642
-5.98939
-14.2106
-7.46485
7.95709
10.4299
2.29725
-8.06948
-0.301243
1.24893
0.0501825
-2.38622
-7.73704
-7.81871
-6.36643
1.86607
8.63012
13.6384
15.4698
9.24505
-3.23953
-12.8845
-6.15912
4.70119
6.00039
2.66481
-1.73523
-0.129344
0.891678
-0.130298
-2.73813
-7.90831
-7.69291
-5.86006
1.35038
6.97835
11.5701
13.8231
9.29477
0.408056
-6.26871
-2.90547
2.57554
3.27906
1.40424
0.227762
-0.130523
0.460116
-0.327839
-2.63538
-6.87632
-7.29372
-4.97995
0.92079
5.44188
9.34785
11.4122
8.51259
1.91429
-2.26709
-1.75279
1.30987
2.03836
1.06702
0.362376
-0.0446848
0.324453
-0.319677
-2.09498
-5.01465
-6.29977
-3.95272
0.582057
4.13915
7.33328
9.02328
7.08148
1.97858
-1.01562
-1.02113
0.959435
1.51322
0.847112
0.379216
-0.254163
-0.0170984
-0.308031
-1.06763
-2.50379
-4.92355
-3.3346
0.0340179
2.93493
5.6159
7.03918
5.60993
1.82714
-0.507062
-0.786176
0.58334
1.0193
0.614621
0.282373
0.0221598
0.300756
-0.112213
-0.550347
-1.01063
-2.90461
-2.43039
-0.848718
0.479406
1.82746
2.69621
2.19416
0.477165
-0.821686
-0.742562
0.0880358
0.386519
0.232328
0.0956679
91.1501
90.7673
89.227
87.7507
85.7335
83.7
81.5719
79.6152
77.8396
76.2706
74.887
73.6714
72.5994
71.6681
70.8376
70.1309
69.4869
68.9458
68.4967
67.9201
53.7198
55.1161
55.0338
55.3512
55.6288
55.8737
56.1907
56.4228
56.6789
56.913
57.1494
57.3954
57.6438
57.9207
58.1887
58.5199
58.7908
59.2108
59.4265
59.9641
54.2197
54.6175
54.5252
54.4704
54.6243
54.6057
54.7862
54.8384
54.9878
55.1046
55.2527
55.4138
55.5828
55.7826
55.9696
56.219
56.4003
56.7311
56.8561
57.3221
42.7859
43.4683
43.7611
43.9582
44.4789
44.669
45.174
45.4244
45.8439
46.165
46.5371
46.8991
47.2654
47.6531
48.0176
48.4356
48.7702
49.2428
49.4892
50.0529
38.7149
39.1215
39.4763
39.539
40.0205
40.0574
40.5018
40.6062
40.9568
41.1602
41.4572
41.7312
42.0262
42.3494
42.6563
43.029
43.322
43.7656
43.9858
44.5285
33.9132
34.2123
34.5737
34.5854
35.0289
34.9888
35.3923
35.4098
35.7131
35.8291
36.0645
36.2557
36.4747
36.7199
36.9436
37.2437
37.4545
37.8372
37.9785
38.4993
31.8025
31.9994
32.296
32.2475
32.6352
32.5248
32.873
32.8204
33.0574
33.0917
33.2427
33.3344
33.445
33.5715
33.6641
33.8279
33.8981
34.1246
34.1517
34.484
29.1978
29.6055
30.0066
30.0624
30.6028
30.5827
31.0592
31.1168
31.4427
31.5702
31.7789
31.922
32.0569
32.187
32.2665
32.3864
32.4117
32.5455
32.5174
32.6961
23.7634
24.7103
25.5058
25.7948
26.7756
27.0169
27.8606
28.2533
28.8884
29.3489
29.8404
30.2686
30.6532
31.0036
31.2806
31.5462
31.7059
31.9061
31.9424
32.1029
11.9699
13.6254
15.1274
15.6456
17.3618
17.9802
19.4222
20.3552
21.5436
22.6035
23.6753
24.709
25.6895
26.6217
27.4645
28.2453
28.8935
29.4959
29.8457
30.2579
-9.90793
-8.27843
-6.03252
-5.72451
-3.30668
-2.61666
-0.66203
0.594402
2.24655
3.794
5.42533
7.10599
8.83312
10.627
12.4561
14.3377
16.1834
17.9385
19.3734
21.1809
-37.5263
-38.468
-36.504
-37.8273
-36.0687
-36.9326
-35.9156
-36.1725
-35.7809
-35.7683
-35.581
-35.336
-34.9066
-34.2148
-33.1501
-31.5016
-29.3812
-26.3896
-24.1145
-20.9041
-36.5038
-41.3641
-40.9724
-44.634
-44.9511
-48.1233
-49.1937
-51.7707
-53.3258
-55.2589
-56.5532
-57.6037
-58.3122
-58.8206
-59.0907
-59.3735
-59.8717
-59.5725
-58.5651
-55.4649
7.74615
2.02849
1.79159
-3.38799
-4.70216
-9.41136
-11.9096
-16.2437
-19.6131
-23.6044
-26.8902
-29.882
-32.1723
-33.9049
-34.9498
-35.6253
-36.3131
-36.7405
-37.6675
-38.7091
51.4873
49.1328
51.2482
48.4969
50.8699
49.0763
50.4044
49.638
49.974
49.4521
48.9207
47.8257
46.3787
44.3884
41.7702
38.5066
35.2421
33.2407
31.8419
27.9287
38.9806
38.3183
41.2472
38.8886
42.4244
41.3943
43.696
44.2507
45.8787
47.0752
48.4669
49.7827
51.1456
52.4333
53.5001
54.0884
54.1054
53.4486
53.5113
53.7377
36.1395
34.0892
37.7442
32.7218
35.1508
32.3643
32.65
31.5323
31.2456
30.8016
30.5601
30.3394
30.2171
30.2319
30.4539
31.1483
32.4784
34.8313
37.2177
40.0259
10.2452
4.25882
12.9199
6.68398
9.24734
6.60272
5.98272
4.18501
2.67486
0.915652
-0.833178
-2.6326
-4.42116
-6.12823
-7.65879
-8.66451
-8.78605
-7.23197
-5.42409
-2.12543
26.856
3.98084
11.7764
0.377931
-2.77176
-9.75247
-15.0605
-20.6322
-25.4754
-29.7758
-33.3082
-36.0275
-37.8441
-38.675
-38.4497
-37.1596
-34.764
-31.9427
-29.4069
-26.2967
725.391
642.168
592.668
536.047
486.703
439.104
394.868
353.117
313.874
276.87
241.958
208.953
177.637
147.928
119.876
92.7113
67.0641
47.5878
24.573
-12.3747
725.539
642.315
592.815
536.194
486.85
439.251
395.015
353.264
314.021
277.016
242.105
209.1
177.784
148.075
120.024
92.8619
67.2184
47.7442
24.7287
-12.2218
27.0099
4.13224
11.9273
0.527239
-2.62332
-9.60518
-14.9142
-20.4869
-25.3311
-29.6325
-33.1658
-35.886
-37.7033
-38.5349
-38.3103
-37.0205
-34.6258
-31.8059
-29.2717
-26.1636
10.3525
4.36254
13.0221
6.78348
9.34462
6.69712
6.07432
4.27322
2.7594
0.995937
-0.757576
-2.56233
-4.35648
-6.06924
-7.60467
-8.61311
-8.73518
-7.18045
-5.3742
-2.07506
36.2384
34.183
37.8385
32.8117
35.2387
32.4486
32.7305
31.609
31.3176
30.8694
30.6239
30.4019
30.2806
30.3
30.5303
31.2392
32.5841
34.9475
37.3406
40.1581
39.0818
38.4308
41.3639
39.0148
42.5582
41.5389
43.8512
44.4204
46.0638
47.2787
48.6898
50.0268
51.4103
52.7165
53.7945
54.3808
54.3871
53.7256
53.7981
54.0461
51.8305
49.4964
51.6222
48.8852
51.275
49.4948
50.839
50.0851
50.4326
49.9184
49.3915
48.2982
46.8496
44.8538
42.2274
38.9555
35.6843
33.6813
32.2929
28.3886
8.10299
2.39156
2.16107
-3.01464
-4.32282
-9.0256
-11.5162
-15.8398
-19.1959
-23.1684
-26.4312
-29.3968
-31.6603
-33.3617
-34.3699
-35.0126
-35.7033
-36.2013
-37.1609
-38.2399
-36.2379
-41.1103
-40.7257
-44.3932
-44.721
-47.8997
-48.9826
-51.5713
-53.1424
-55.0937
-56.4115
-57.4923
-58.2378
-58.7859
-59.0959
-59.4607
-60.1444
-59.9399
-58.9447
-55.8606
-37.6303
-38.6003
-36.6548
-38.0025
-36.2689
-37.1618
-36.1752
-36.4672
-36.1118
-36.1382
-35.9889
-35.7799
-35.3821
-34.716
-33.6646
-32.0239
-29.9165
-26.936
-24.6823
-21.4864
-10.1483
-8.53026
-6.2908
-5.99261
-3.58145
-2.89982
-0.951704
0.298215
1.94538
3.48899
5.11824
6.79876
8.52783
10.3259
12.1613
14.0515
15.9102
17.6757
19.1198
20.9428
11.7665
13.4238
14.9282
15.4477
17.1668
17.7877
19.2328
20.1696
21.3619
22.4265
23.5029
24.5416
25.527
26.4642
27.3119
28.0976
28.751
29.3584
29.7123
30.1294
23.6169
24.5687
25.3678
25.6603
26.6447
26.8894
27.7363
28.1327
28.7708
29.2347
29.7293
30.1604
30.5478
30.9008
31.1804
31.4483
31.6103
31.8126
31.8508
32.013
29.0955
29.507
29.9098
29.968
30.5103
30.4923
30.9703
31.0299
31.3571
31.4863
31.6963
31.8407
31.9768
32.1079
32.1883
32.3091
32.3352
32.4697
32.4421
32.6214
31.7246
31.9232
32.2196
32.1723
32.5603
32.4508
32.7993
32.7475
32.9847
33.0196
33.1708
33.263
33.3739
33.5007
33.5935
33.7575
33.8278
34.0544
34.0816
34.4139
33.8451
34.1446
34.5052
34.5173
34.9604
34.9206
35.3238
35.3415
35.6446
35.7607
35.9959
36.1872
36.4062
36.6514
36.8751
37.1752
37.3861
37.7689
37.9101
38.4313
38.65
39.0569
39.4116
39.4747
39.956
39.9933
40.4376
40.5422
40.8928
41.0964
41.3934
41.6676
41.9627
42.2861
42.5931
42.9662
43.2594
43.7033
43.9236
44.4675
42.7304
43.4135
43.7068
43.9049
44.4258
44.6167
45.1219
45.3728
45.7926
46.1141
46.4864
46.8488
47.2154
47.6035
47.9684
48.3869
48.7219
49.1951
49.4419
50.0067
54.1707
54.57
54.4792
54.4262
54.5812
54.5639
54.7454
54.7987
54.9489
55.0667
55.2157
55.3775
55.5473
55.7479
55.9357
56.1859
56.3681
56.6998
56.8256
57.2927
53.6898
55.0857
55.0043
55.3231
55.6017
55.8479
56.1662
56.3995
56.6567
56.8917
57.1289
57.3754
57.6242
57.9014
58.1696
58.501
58.7722
59.1924
59.4084
59.9464
91.0824
90.7005
89.1634
87.6916
85.6791
83.6508
81.5276
79.5746
77.8018
76.2356
74.8546
73.6412
72.5711
71.6414
70.8125
70.1072
69.4647
68.9253
68.4774
67.9037
)
;

boundaryField
{
    outletWall
    {
        type            fixedValue;
        value           uniform 0;
    }
    fineWalls
    {
        type            zeroGradient;
    }
    fineFrontAndBack
    {
        type            zeroGradient;
    }
    fineplugLeft
    {
        type            cyclicAMI;
        value           nonuniform List<scalar> 
20
(
55.0397
56.3703
56.7468
57.4608
58.0535
58.7494
59.4903
60.3127
61.2235
62.2381
63.3751
64.6332
65.9355
71.6918
71.4996
72.5555
73.8618
73.9718
72.4208
70.2962
)
;
    }
    fineplugRight
    {
        type            cyclicAMI;
        value           nonuniform List<scalar> 
20
(
55.041
56.3699
56.746
57.4597
58.0523
58.748
59.4885
60.3102
61.2199
62.2332
63.3686
64.6249
65.9261
71.6842
71.4717
72.5175
73.814
73.9151
72.3581
70.231
)
;
    }
    inletOutletLeft
    {
        type            cyclicAMI;
        value           nonuniform List<scalar> 
20
(
55.0397
56.3703
56.7468
57.4608
58.0535
58.7494
59.4903
60.3127
61.2235
62.2381
63.3751
64.6332
65.9355
71.6918
71.4996
72.5555
73.8618
73.9718
72.4208
70.2962
)
;
    }
    inletLeft
    {
        type            zeroGradient;
    }
    inletWallsLeft
    {
        type            zeroGradient;
    }
    inletFacesLeft
    {
        type            zeroGradient;
    }
    inletOutletRight
    {
        type            cyclicAMI;
        value           nonuniform List<scalar> 
20
(
55.041
56.3699
56.746
57.4597
58.0523
58.748
59.4885
60.3102
61.2199
62.2332
63.3686
64.6249
65.9261
71.6842
71.4717
72.5175
73.814
73.9151
72.3581
70.231
)
;
    }
    inletRight
    {
        type            zeroGradient;
    }
    inletWallsRight
    {
        type            zeroGradient;
    }
    inletFacesRight
    {
        type            zeroGradient;
    }
}


// ************************************************************************* //
