/*--------------------------------*- C++ -*----------------------------------*\
| =========                 |                                                 |
| \\      /  F ield         | OpenFOAM: The Open Source CFD Toolbox           |
|  \\    /   O peration     | Version:  4.1                                   |
|   \\  /    A nd           | Web:      www.OpenFOAM.org                      |
|    \\/     M anipulation  |                                                 |
\*---------------------------------------------------------------------------*/
FoamFile
{
    version     2.0;
    format      ascii;
    class       surfaceScalarField;
    location    "5";
    object      phi;
}
// * * * * * * * * * * * * * * * * * * * * * * * * * * * * * * * * * * * * * //

dimensions      [0 3 -1 0 0 0 0];

internalField   nonuniform List<scalar> 
2360
(
-5391.68
-4130.61
-1261.07
-4130.61
-4130.61
-2967.49
-1163.12
-2967.49
-2967.49
-2967.49
-1444.77
-1522.72
-1444.77
-1444.77
907.835
-2352.61
907.836
907.832
4798.5
-3890.67
4798.5
4798.51
10098.5
-5299.97
10098.5
10098.5
10835.9
12275.9
13809.8
15238.8
16531.8
17709.3
12702.6
6115.9
13747
14734.5
15676.2
16581.2
17456.3
18306.8
19136.4
19947.1
20738.9
21510.4
22252.2
22958.7
23482.6
9400.33
14082.3
9400.34
9400.34
9400.34
-966.951
10367.3
-966.951
-966.951
-966.951
0.973562
-967.926
0.966934
0.966674
967.616
-966.651
967.618
967.617
967.619
-9389.57
10357.2
-9389.57
-9389.57
-9389.57
-23468
14078.4
-22944.1
-22237.6
-21496
-20724.6
-19932.9
-19122.3
-18292.8
-17442.2
-16567.3
-15662.5
-14721.1
-13733.8
-12689.6
-17691.4
6110.93
-16513.8
-15220.7
-13791.5
-12257.3
-10816.9
-10078.9
-10078.9
-10078.9
-4811.4
-5267.49
-4811.4
-4811.4
-956.456
-3854.95
-956.459
-956.458
1365.99
-2322.45
1365.99
1365.99
2860.25
-1494.27
2860.25
2860.25
2860.25
4012.14
-1151.88
4012.14
4012.14
5283.36
-1271.22
-6453.38
-4032.04
-6636.36
-5760.67
-6358.33
-6923.87
-5783.89
-6736.65
-5122.38
-1690.7
-4856.59
5335.11
-4622.32
8385.55
-4244.3
9840.74
-3733.22
10383.5
-3112.77
9837.55
-2358.64
7926.49
-1444.98
5011.6
-573.654
3138.17
54.1179
4412.89
411.555
4690.69
722.114
4006.6
999.178
2419.87
1143.24
600.712
-464.93
-6479.36
-4069.47
-6176.56
-6063.47
-5747.18
-7353.25
-5227.01
-7256.83
-4619.03
-2298.67
-4633.11
5349.19
-4704.91
8457.35
-4423.75
9559.58
-3881.93
9841.68
-3145.63
9101.25
-2102.53
6883.38
-737.588
3646.66
82.7627
2317.81
316.903
4178.75
308.472
4699.12
545.87
3769.2
967.141
1998.6
1022.55
545.302
-594.263
-6211
-4165.21
-6036.8
-6237.67
-6028.82
-7361.23
-5861.42
-7424.23
-5083.33
-3076.76
-4619.01
4884.87
-4731.67
8570.01
-4657.09
9485
-4155.4
9339.98
-3283.94
8229.8
-1814.16
5413.6
326.783
1505.72
1295.91
1348.69
1112.52
4362.14
538.181
5273.46
428.27
3879.11
896.853
1530.02
1221.68
220.476
-866.847
-6276.01
-4097.5
-6488.39
-6025.29
-6940.07
-6909.56
-7095.51
-7268.79
-6215.6
-3956.67
-5096.85
3766.13
-4884.39
8357.55
-4919.23
9519.83
-4544.13
8964.89
-3534.6
7220.27
-1296.43
3175.43
1796.23
-1586.94
3110.31
34.6035
2686.6
4785.85
1558.82
6401.24
842.336
4595.59
1054.49
1317.86
1811.92
-536.953
-1377.37
-6689.33
-3766.04
-7342.5
-5372.12
-8172.75
-6079.3
-8638.87
-6802.66
-7885.79
-4709.75
-6241.83
2122.16
-5439.06
7554.78
-5311.05
9391.83
-5021.35
8675.18
-3743.94
5942.86
-585.575
17.0642
2448.91
-4621.43
4018.04
-1534.53
4245.05
4558.84
3320.6
7325.69
2404.57
5511.62
2395.19
1327.25
3350.54
-1492.3
-1881.78
-7448.51
-3152.12
-8455.58
-4365.06
-9516.08
-5018.81
-10266
-6052.72
-9892.58
-5083.19
-8090.87
320.459
-6631.8
6095.71
-6022.29
8782.31
-5505.11
8158
-3761.08
4198.83
-1329.92
-2414.1
-289.902
-5661.44
1645.17
-3469.6
3462.51
2741.5
3570.49
7217.71
3271.45
5810.66
3864.64
734.054
4890.82
-2518.48
-2258.45
-8368.8
-2362.74
-9525.84
-3208.02
-10674.1
-3870.57
-11704.2
-5022.63
-11945.2
-4842.18
-10530.2
-1094.5
-8648.07
4213.56
-7316.77
7451.01
-6222.43
7063.66
-4857.96
2834.36
-4703.24
-2568.82
-5249.69
-5114.99
-3344.41
-5374.87
-140.304
-462.609
1810.92
5266.49
2405.89
5215.69
3784.51
-644.573
2732.51
-1466.48
6584.99
-9211.88
-1524.05
-10346.5
-2073.4
-11523.5
-2693.56
-12862
-3684.19
-13844.4
-3859.69
-13278.5
-1660.4
-11340.9
2275.87
-9149.15
5259.31
-7439.5
5354.01
-7108.71
2503.56
-8600.59
-1076.94
-9983.53
-3732.04
-9764.43
-5593.98
-6562.66
-3664.38
-2535.45
1239.28
-779.599
3459.84
-3187.31
1763.14
-8544.64
3890.86
12118.8
-9821.76
-730.262
-10866
-1029.14
-12117.6
-1441.95
-13796.9
-2004.94
-15487.2
-2169.4
-15942.3
-1205.29
-14492.6
826.242
-11975.3
2741.93
-9953.52
3332.27
-9652.41
2202.45
-10708.7
-20.6722
-12249.9
-2190.87
-14318.8
-3525.06
-15202.6
-2780.58
-13710.6
-252.678
-12251
2000.2
-12987.2
2499.36
-13306.4
4210.11
9169.5
-10169.8
18.4909
-11201.5
2.63305
-12625.9
-17.636
-14610.2
-20.5697
-16771
-8.60121
-17994.7
18.3891
-17207.6
39.1342
-14498
32.3493
-11142.4
-23.344
-8835.14
-104.825
-8758.95
-96.8631
-10946.8
-3.03364
-14431.3
-40.5937
-16961.9
-249.956
-16872.6
-341.903
-14706.7
-165.713
-12290.6
83.183
-8177.75
97.3016
25.1035
-10157.8
769.359
-11197.4
1042.19
-12628.8
1413.74
-14615.9
1966.58
-16779
2154.44
-18010.9
1250.29
-17236.8
-734.962
-14552.7
-2651.68
-11268.5
-3307.6
-9074.21
-2299.09
-9032.02
-139.046
-11143.3
2108.26
-14540.6
3356.74
-16988.9
2198.27
-16844.3
-486.439
-14660.1
-2349.95
-12235.7
-2341.24
-8131.52
-4006.85
-9074.34
-9787.12
1561.02
-10840
2095.1
-12105.7
2679.4
-13793.4
3654.27
-15488.9
3849.93
-15949.6
1711.02
-14492.1
-2192.48
-11953.9
-5189.91
-9932.31
-5329.14
-9715.71
-2515.69
-10905.6
1050.87
-12458.1
3660.76
-14356.4
5255.06
-14946.6
2788.46
-13397.4
-2035.7
-12206.8
-3540.51
-13093.3
-1454.74
-13345.3
-3754.9
-12052.3
-9171.8
2390.18
-10305.5
3228.81
-11494.2
3868.12
-12847
5007.03
-13848.2
4851.1
-13300.5
1163.37
-11358.5
-4134.5
-9141.31
-7407.09
-7377.99
-7092.46
-6964.03
-2929.65
-8426.06
2512.9
-9752.5
4987.19
-9193.89
4696.44
-5681.8
-723.632
-1890.75
-5826.75
-625.596
-4805.66
-3337.54
1257.21
-8631.21
1538.76
-6601.25
-8338.7
3166.11
-9485.91
4376.02
-10638.4
5020.65
-11682.7
6051.34
-11948.7
5117.05
-10547.7
-237.614
-8652.33
-6029.89
-7300.44
-8758.97
-6183.92
-8208.99
-4690.55
-4423.02
-4284.02
2106.37
-4620.34
5323.51
-2196.93
2273.03
708.523
-3629.09
2140.42
-7258.65
2612.87
-5278.11
3866.27
3.81574
2676.22
2728.81
2190.87
-7435.4
3767.19
-8429.32
5369.94
-9488.1
6079.43
-10250.2
6813.46
-9904.54
4771.36
-8109.64
-2032.51
-6631.47
-7508.05
-5998.7
-9391.74
-5483.82
-8723.87
-3753.43
-6153.4
-1049
-598.062
475.147
3799.37
2322.51
425.669
3722.17
-5028.75
3587.77
-7124.25
3249.82
-4940.16
3960.14
-706.503
4989.04
1699.91
1879.94
-6692.8
4089.24
-7334.54
6011.68
-8160.53
6905.42
-8635.65
7288.58
-7904.24
4039.95
-6255.48
-3681.27
-5433.92
-8329.62
-5287.41
-9538.25
-4990.55
-9020.73
-3765.77
-7378.18
-654.308
-3709.53
2643.3
501.759
4076.34
-1007.37
4004.78
-4957.18
3002.24
-6121.71
2225.24
-4163.16
2420.09
-901.358
3425.39
694.613
1414.66
-6291.79
4152.18
-6497.42
6217.31
-6945.16
7353.16
-7105.78
7449.2
-6236.99
3171.16
-5105.4
-4812.86
-4877.32
-8557.7
-4901.85
-9513.72
-4519.54
-9403.04
-3527.09
-8370.63
-1452.6
-5784.02
1424.64
-2375.48
2602.41
-2185.15
2240.74
-4595.51
1267.6
-5148.58
754.901
-3650.46
1123.8
-1270.25
1885.55
-67.1363
947.6
-6233.83
4055.8
-6058.02
6041.51
-6048.04
7343.18
-5882.87
7284.03
-5105.6
2393.89
-4624.72
-5293.74
-4725.97
-8456.45
-4646.88
-9592.81
-4141.38
-9908.54
-3274.67
-9237.35
-1873.49
-7185.2
28.3002
-4277.26
945.761
-3102.61
884.809
-4534.56
437.943
-4701.71
437.719
-3650.23
966.652
-1799.19
1279.23
-379.719
704.115
-6506.07
4021.56
-6207.66
5743.09
-5780.42
6915.94
-5260.53
6764.15
-4642
1775.36
-4638.42
-5297.33
-4704.08
-8390.79
-4420.16
-9876.73
-3875.08
-10453.6
-3140.33
-9972.1
-2126.6
-8198.92
-857.858
-5546.01
-59.1236
-3901.34
220.174
-4813.85
270.585
-4752.12
553.701
-3933.35
1002.56
-2248.04
1047.57
-424.736
588.573
-6477.79
-6670.22
-6399
-5824.13
-5149.2
-4867.57
-4626.94
-4245.4
-3731.47
-3109.58
-2360.74
-1471.35
-624.391
6.4534
386.375
716.649
1004.32
1139.75
129.883
-867.322
392.643
-1702.72
615.06
-1756.35
779.48
-1593.44
903.198
-1416.71
996.396
-1270.67
1039.07
-1151.89
1052.68
-1057.98
1047.24
-982.018
1024.09
-918.61
985.044
-865.885
932.014
-822.062
866.923
-785.483
791.062
-753.696
705.343
-724.954
609.02
-695.464
501.23
-663.78
376.72
-617.212
228.287
-558.078
-295.649
78.1294
-945.449
170.111
-1794.7
229.145
-1815.38
258.184
-1622.48
284.508
-1443.03
316.357
-1302.52
360.281
-1195.81
405.003
-1102.7
443.848
-1020.86
472.362
-947.122
488.349
-881.87
490.538
-824.248
478.711
-773.654
452.997
-727.98
414.073
-686.029
361.681
-643.07
296.456
-598.556
215.541
-536.296
117.471
-460.008
-178.178
21.9756
-967.422
107.914
-1880.63
168.667
-1876.13
191.76
-1645.57
214.882
-1466.15
245.655
-1333.29
283.886
-1234.04
322.034
-1140.85
357.616
-1056.44
386.575
-976.077
406.879
-902.172
416.521
-833.887
414.502
-771.634
400.201
-713.676
373.553
-659.379
334.222
-603.737
281.824
-546.158
215.275
-469.747
125.94
-370.671
-52.2386
11.6648
-979.085
63.4953
-1932.46
92.6828
-1905.32
95.5769
-1648.46
111.575
-1482.15
139.299
-1361.01
175.923
-1270.66
212.433
-1177.36
247.381
-1091.39
277.163
-1005.86
300.575
-925.583
315.37
-848.679
320.245
-776.508
313.877
-707.305
295.738
-641.239
265.073
-573.07
221.469
-502.552
164.085
-412.362
80.8245
-287.408
28.586
22.4026
-1001.48
55.3759
-1965.43
70.2178
-1920.16
72.909
-1651.15
90.8961
-1500.13
116.45
-1386.56
145.812
-1300.02
173.151
-1204.69
199.11
-1117.34
221.507
-1028.25
240.134
-944.208
252.976
-861.518
258.957
-782.488
256.346
-704.692
244.348
-629.24
221.356
-550.076
186.567
-467.763
137.202
-362.997
59.6844
-209.887
88.2704
41.0342
-1042.52
65.181
-1989.58
67.1753
-1922.15
67.9596
-1651.94
81.4663
-1513.64
98.4067
-1403.5
115.89
-1317.5
130.963
-1219.76
144.71
-1131.09
156.227
-1039.77
165.833
-953.813
172.467
-868.152
175.8
-785.819
174.572
-703.463
168.158
-622.825
154.467
-536.385
132.063
-445.357
95.8808
-326.814
38.4149
-152.42
126.685
53.053
-1095.57
73.6249
-2010.15
68.006
-1916.53
66.8454
-1650.77
73.4507
-1520.24
80.5039
-1410.55
86.3657
-1323.37
90.6958
-1224.09
93.688
-1134.08
95.8193
-1041.9
97.1097
-955.102
97.8055
-868.846
97.8517
-785.864
96.8654
-702.475
93.9851
-619.944
87.5812
-529.979
75.153
-432.928
52.5729
-304.232
21.1749
-121.02
147.86
58.2403
-1153.81
78.0062
-2029.92
73.9026
-1912.43
75.4151
-1652.29
79.8659
-1524.69
83.2583
-1413.94
84.5833
-1324.69
85.4475
-1224.95
84.5575
-1133.19
83.4509
-1040.79
81.3875
-953.038
79.2766
-866.734
76.4431
-783.03
72.7707
-698.802
66.6953
-613.868
57.7361
-521.02
43.3358
-418.527
24.0646
-284.96
7.15955
-104.113
155.02
77.2812
-1231.09
103.73
-2056.36
110.032
-1918.73
121.903
-1664.16
135.181
-1537.97
146.386
-1425.15
154.733
-1333.04
162.339
-1232.56
167.31
-1138.16
170.926
-1044.4
171.778
-953.889
169.929
-864.884
163.773
-776.873
152.583
-687.61
134.627
-595.911
110.263
-496.655
78.4681
-386.731
43.06
-249.549
11.9122
-72.9626
166.932
137.053
-1368.14
178.256
-2097.57
195.193
-1935.66
223.097
-1692.06
257.982
-1572.85
290.168
-1457.33
320.086
-1362.95
348.195
-1260.67
373.221
-1163.18
393.919
-1065.1
407.439
-967.409
411.326
-868.771
402.866
-768.412
380.511
-665.256
343.124
-558.523
291.133
-444.663
226.095
-321.693
148.796
-172.249
60.1581
15.6769
227.09
229.789
-1597.93
273.123
-2140.9
292.799
-1955.34
339.123
-1738.38
404.031
-1637.76
467.562
-1520.86
534.747
-1430.14
602.182
-1328.1
668.928
-1229.93
727.225
-1123.4
769.953
-1010.14
790.677
-889.494
785.666
-763.4
752.883
-632.472
691.156
-496.796
599.378
-352.885
480.962
-203.276
330.719
-22.0035
163.859
182.538
390.949
274.698
-1872.63
267.956
-2134.16
276.754
-1964.14
327.046
-1788.68
402.94
-1713.66
482.103
-1600.03
577.052
-1525.09
679.399
-1430.45
785.497
-1336.03
875.715
-1213.62
937.776
-1072.2
964.672
-916.392
955.795
-754.525
907.283
-583.962
812.096
-401.61
660.229
-201.02
420.639
36.3125
250.309
148.325
118.223
314.623
509.172
163.388
-2036.02
58.1116
-2028.89
22.7261
-1928.76
15.9306
-1781.88
24.2369
-1721.97
39.3758
-1615.17
70.3338
-1556.05
108.715
-1468.83
142.428
-1369.74
148.124
-1219.32
119.243
-1043.32
62.7569
-859.907
-11.2456
-680.523
-98.4543
-496.754
-188.011
-312.055
-256.682
-132.35
-253.733
33.362
-257.065
151.655
-231.464
289.021
277.708
-29.8513
-2006.17
-168.402
-1890.34
-260.015
-1837.15
-355.817
-1686.09
-449.891
-1627.89
-546.058
-1519.01
-641.838
-1460.27
-738.493
-1372.18
-842.822
-1265.42
-957.707
-1104.44
-1077.1
-923.93
-1188.58
-748.428
-1288.45
-580.655
-1377.64
-407.563
-1448.77
-240.925
-1466.08
-115.036
-1371.94
-60.7781
-1131.8
-88.488
-623.332
-219.448
-345.624
-89.7479
-1916.43
-186.878
-1793.21
-279.459
-1744.57
-400.754
-1564.79
-522.171
-1506.48
-666.34
-1374.84
-825.844
-1300.77
-998.575
-1199.45
-1166.15
-1097.84
-1304.96
-965.625
-1401.24
-827.653
-1450.75
-698.918
-1451.63
-579.779
-1398.26
-460.934
-1287.16
-352.025
-1117.99
-284.202
-876.947
-301.826
-543.162
-422.274
-195.873
-566.738
-541.496
19.3186
-1935.75
17.059
-1790.96
25.6203
-1753.13
18.9509
-1558.13
12.3845
-1499.92
-4.30495
-1358.15
-33.9241
-1271.15
-71.096
-1162.29
-99.9355
-1069.01
-95.3269
-970.239
-48.7698
-874.214
32.7496
-780.444
142.138
-689.172
279.971
-598.775
443.157
-515.214
604.772
-445.821
698.242
-395.297
630.614
-354.647
363.269
-299.394
-178.228
33.6955
-1969.44
31.1771
-1788.44
52.1268
-1774.08
89.9129
-1595.92
126.724
-1536.73
183.459
-1414.89
242.956
-1330.65
314.576
-1233.91
394.128
-1148.56
488.416
-1064.53
597.88
-983.68
718.793
-901.359
845.76
-816.141
971.859
-724.875
1076.67
-620.024
1117.61
-486.762
1041.14
-318.831
806.651
-120.161
446.455
60.7996
268.228
-108.466
-1860.98
-248.854
-1648.05
-349.902
-1673.04
-403.424
-1542.39
-446.442
-1493.71
-452.912
-1408.42
-441.522
-1342.04
-405.666
-1269.77
-352.514
-1201.72
-284.273
-1132.77
-203.611
-1064.34
-109.516
-995.456
-0.798705
-924.859
118.391
-844.066
231.645
-733.279
308.159
-563.277
310.18
-320.854
228.804
-38.7869
95.2888
194.312
363.516
-202.84
-1658.14
-448.383
-1402.51
-709.819
-1411.6
-924.97
-1327.24
-1130.24
-1288.44
-1300.18
-1238.49
-1445.88
-1196.35
-1562.21
-1153.44
-1652.22
-1111.71
-1715.41
-1069.58
-1752.67
-1027.08
-1764.12
-984.013
-1749.12
-939.858
-1702.56
-890.623
-1610.94
-824.906
-1449.18
-725.033
-1192.05
-577.985
-839.328
-391.509
-440.814
-204.203
-77.2975
-683.141
-1110.65
-1547.25
-1899.5
-2212.93
-2476.42
-2697.77
-2876.2
-3012.91
-3107.49
-3159.57
-3168.59
-3133.44
-3049.07
-2898.97
-2649.01
-2251.99
-1668.5
-897.702
-683.144
1658.14
-1110.67
1402.52
-1547.28
1411.61
-1899.54
1327.26
-2213
1288.46
-2476.51
1238.51
-2697.88
1196.37
-2876.34
1153.46
-3013.06
1111.72
-3107.66
1069.6
-3159.76
1027.1
-3168.81
984.039
-3133.69
939.888
-3049.33
890.635
-2899.18
824.853
-2649.07
724.889
-2251.9
577.829
-1668.39
391.484
-897.67
204.28
77.3299
-202.924
1861.06
-448.545
1648.14
-710.063
1673.13
-925.307
1542.5
-1130.68
1493.83
-1300.73
1408.55
-1446.54
1342.18
-1562.99
1269.91
-1653.13
1201.86
-1716.43
1132.9
-1753.79
1064.46
-1765.33
995.57
-1750.41
924.97
-1703.9
844.128
-1612.24
733.184
-1450.31
562.958
-1192.95
320.469
-839.973
38.5073
-441.094
-194.602
-363.764
-108.488
1969.55
-248.96
1788.61
-350.057
1774.22
-403.645
1596.08
-446.715
1536.89
-453.259
1415.09
-441.935
1330.85
-406.157
1234.13
-353.077
1148.78
-284.901
1064.72
-204.28
983.837
-110.2
901.485
-1.47714
816.244
117.717
724.929
230.926
619.972
307.347
486.534
309.391
318.421
228.213
119.68
94.8889
-61.2831
-268.875
33.838
1935.71
31.3672
1791.08
52.3978
1753.19
90.3495
1558.13
127.314
1499.93
184.282
1358.12
244.057
1271.08
316.023
1162.16
395.928
1068.87
490.49
970.158
600.058
874.268
720.915
780.626
847.749
689.408
973.546
599.131
1077.87
515.644
1118.35
446.052
1041.57
395.199
806.726
354.527
446.199
299.241
177.324
19.7815
1915.92
17.9143
1792.94
26.9051
1744.2
20.7395
1564.29
14.6624
1506
-1.47951
1374.26
-30.5443
1300.14
-67.0837
1198.69
-95.2179
1097
-89.9356
964.871
-42.9305
827.258
38.7748
698.915
148.158
580.018
286.064
461.219
449.468
352.235
610.865
284.651
703.084
302.978
633.409
424.2
364.285
568.363
541.609
-89.7701
2005.69
-186.632
1889.8
-279.092
1836.66
-400.358
1685.56
-521.72
1627.36
-665.95
1518.49
-825.545
1459.73
-998.359
1371.51
-1165.8
1264.44
-1304.21
1103.28
-1399.89
922.933
-1448.71
747.742
-1448.79
580.098
-1394.64
407.066
-1283.22
240.818
-1114.09
115.513
-872.801
61.6932
-539.09
90.4895
-193.431
222.705
348.178
-30.6247
2036.32
-169.174
2028.35
-261.041
1928.52
-357.263
1781.78
-451.82
1721.92
-548.577
1615.24
-645.074
1556.23
-742.567
1469
-847.781
1369.66
-963.386
1218.88
-1083.18
1042.73
-1194.81
859.369
-1294.75
680.036
-1384.08
496.399
-1455.26
311.998
-1470.96
131.213
-1370.25
-39.0127
-1131.28
-148.481
-622.111
-286.464
-273.934
162.49
1873.83
56.5955
2134.24
20.6864
1964.43
13.2699
1789.2
20.8945
1714.29
35.3725
1600.76
65.6309
1525.97
103.246
1431.38
136.03
1336.87
140.743
1214.17
111.063
1072.41
54.1452
916.288
-19.9116
754.095
-106.507
582.998
-195.161
400.657
-264.272
200.33
-265.574
-37.7047
-264.809
-149.241
-235.606
-315.664
-509.54
274.831
1598.99
267.705
2141.37
276.306
1955.83
326.496
1739
402.352
1638.44
481.548
1521.57
576.623
1430.89
679.124
1328.88
785.312
1230.68
875.451
1124.03
937.285
1010.57
963.873
889.7
954.606
763.363
905.426
632.177
809.817
496.266
658.046
352.102
417.896
202.445
248.413
20.2427
116.968
-184.218
-392.572
230.453
1368.54
273.836
2097.99
293.509
1936.16
339.95
1692.56
405.076
1573.31
468.862
1457.78
536.361
1363.4
604.133
1261.11
671.212
1163.61
729.767
1065.48
772.642
967.7
793.399
868.944
788.322
768.44
755.38
665.121
693.427
558.219
601.355
444.175
482.738
321.063
331.705
171.278
164.416
-16.9272
-228.155
137.508
1231.03
178.874
2056.62
195.91
1919.12
223.951
1664.52
259.029
1538.23
291.414
1425.4
321.543
1333.27
349.861
1232.79
375.095
1138.37
395.969
1044.6
409.615
954.055
413.556
865.004
405.073
776.924
382.623
687.571
345.076
595.767
292.854
496.398
227.574
386.344
149.846
249.009
60.7255
72.1959
-167.43
77.3426
1153.69
103.888
2030.08
110.343
1912.67
122.344
1652.52
135.748
1524.83
147.07
1414.08
155.531
1324.81
163.24
1225.09
168.313
1133.3
172.016
1040.9
172.938
953.135
171.126
866.818
164.967
783.084
153.727
698.813
135.68
613.816
111.182
520.898
79.2117
418.316
43.5622
284.662
12.0951
103.667
-155.335
58.0941
1095.6
77.8802
2010.29
73.9076
1916.64
75.519
1650.91
80.0306
1520.32
83.4747
1410.63
84.8442
1323.44
85.7503
1224.18
84.8974
1134.16
83.825
1041.97
81.7921
955.169
79.705
868.906
76.8828
785.908
73.2038
702.493
67.1011
619.92
58.0954
529.904
43.6242
432.789
24.259
304.029
7.21744
120.712
-148.117
52.9276
1042.67
73.5039
1989.72
67.9417
1922.21
66.8214
1652.03
73.4374
1513.71
80.4949
1403.58
86.3554
1317.58
90.6834
1219.85
93.6681
1131.17
95.7913
1039.85
97.0726
953.889
97.7618
868.22
97.8039
785.867
96.8179
703.481
93.9422
622.797
87.5501
536.298
75.1317
445.208
52.5603
326.603
21.1605
152.115
-126.957
41.0241
1001.65
65.2057
1965.54
67.2094
1920.2
67.9974
1651.25
81.4989
1500.21
98.4321
1386.65
115.905
1300.11
130.967
1204.79
144.698
1117.44
156.197
1028.36
165.78
944.308
172.386
861.615
175.687
782.568
174.434
704.736
168.01
629.222
154.33
549.979
131.954
467.586
95.8028
362.755
38.367
209.554
-88.5894
22.4583
979.195
55.4815
1932.51
70.3429
1905.34
73.0589
1648.53
91.0635
1482.2
116.632
1361.08
146.005
1270.74
173.354
1177.45
199.325
1091.48
221.733
1005.95
240.363
925.68
253.189
848.791
259.134
776.623
256.477
707.395
244.437
641.264
221.417
573.001
186.616
502.387
137.235
412.138
59.6738
287.117
-28.9156
11.6841
967.512
63.5316
1880.67
92.7619
1876.11
95.7253
1645.57
111.776
1466.15
139.542
1333.32
176.198
1234.08
212.75
1140.9
247.747
1056.48
277.584
976.114
301.037
902.228
315.847
833.982
320.708
771.763
314.302
713.803
296.116
659.451
265.402
603.716
221.75
546.041
164.306
469.582
80.9447
370.481
52.0292
21.8709
945.642
107.749
1794.79
168.526
1815.34
191.69
1622.41
214.875
1442.97
245.699
1302.49
283.974
1195.81
322.181
1102.69
357.836
1020.82
386.871
947.081
407.237
881.863
416.913
824.307
414.903
773.774
400.588
728.118
373.914
686.126
334.544
643.087
282.092
598.493
215.47
536.204
126.021
459.931
178.05
77.8564
867.787
169.692
1702.96
228.658
1756.37
257.657
1593.41
283.945
1416.68
315.782
1270.66
359.738
1151.85
404.537
1057.89
443.488
981.875
472.106
918.463
488.175
865.795
490.422
822.061
478.638
785.558
452.964
753.793
414.077
725.013
361.714
695.45
296.505
663.702
215.591
617.118
117.461
558.06
295.511
129.768
392.324
614.516
778.722
902.248
995.319
1038.02
1051.72
1046.39
1023.37
984.437
931.528
866.564
790.829
705.226
608.993
501.259
376.778
228.322
)
;

boundaryField
{
    outletWall
    {
        type            calculated;
        value           nonuniform List<scalar> 
60
(
5283.36
336.945
-744.77
-2696.94
-4317.16
-5048.12
-5040.66
-4009.49
-5925.26
-8680.62
-10458
-10894.6
-10218.8
-8619.81
-5600.9
1029.18
6162.22
6645.85
5943.64
4320.22
6184.18
6540.31
6330.21
6228.84
6370.75
6834.32
7562.77
8342.64
8995.46
9406.96
9421.03
9027.97
8373.19
7579.42
6834.59
6357.87
6208.3
6306.74
6516.79
6165.2
5391.68
467.246
-560.167
-2535.71
-4263.62
-5132.04
-5444.7
-4748.31
-6435.4
-8947.76
-10594
-10967.5
-10258.3
-8631.42
-5578.95
1100.43
6189.27
6644.72
5935.53
4315.17
)
;
    }
    fineWalls
    {
        type            calculated;
        value           uniform 0;
    }
    fineFrontAndBack
    {
        type            calculated;
        value           nonuniform List<scalar> 
960
(
-6.89744e-13
-1.53095e-12
-5.76531e-14
1.87652e-13
1.48386e-12
2.46909e-13
1.21231e-13
4.29194e-14
2.06236e-12
1.31398e-12
1.22344e-12
5.46234e-12
1.60698e-12
1.95113e-12
6.88503e-12
1.22223e-12
1.30681e-12
6.54392e-12
1.32256e-12
1.04958e-12
2.88762e-13
1.44452e-14
-1.03876e-13
-1.79576e-13
-2.10101e-13
-3.15102e-13
-2.43249e-12
-5.2949e-13
-5.71162e-13
-6.01881e-13
-6.36228e-13
-6.90772e-13
-7.60581e-13
-8.36559e-13
-9.05653e-13
-9.85621e-13
-1.07823e-12
-1.18436e-12
-1.213e-12
-1.46752e-12
-3.13796e-11
-4.26979e-12
-4.18179e-12
-4.73102e-12
-1.21296e-11
4.705e-12
4.4405e-12
3.90821e-12
-3.34381e-11
-5.69812e-12
-6.16518e-12
-8.16107e-11
-4.86079e-12
2.71541e-12
6.60407e-12
1.64626e-11
1.52905e-12
1.16219e-12
9.65439e-13
1.45859e-11
1.05151e-12
8.5129e-13
9.20673e-13
9.25446e-13
9.29561e-13
9.14589e-13
9.01717e-13
9.01326e-13
9.09269e-13
9.08539e-13
8.91547e-13
8.57406e-13
8.14146e-13
9.5037e-12
5.69374e-13
4.46917e-13
3.97242e-13
3.1964e-13
2.44151e-13
-1.44999e-14
5.06099e-13
2.59168e-13
2.46333e-12
4.54419e-13
3.11901e-13
2.52538e-12
1.1968e-12
8.40921e-13
2.62249e-12
6.49715e-13
4.8334e-13
4.10205e-12
1.15529e-12
1.20005e-12
1.25696e-12
5.61656e-12
9.41457e-13
9.82927e-13
4.21806e-12
1.57194e-12
-3.75041e-12
-4.32664e-12
-4.24192e-12
-3.12801e-12
-2.34293e-12
-3.39412e-12
-4.35787e-12
-4.98568e-12
-5.13047e-12
-4.69925e-12
-3.79613e-12
-2.71313e-12
-1.74471e-12
-1.03531e-12
-5.16765e-13
-2.08071e-13
-8.93984e-14
7.01199e-13
-3.1395e-12
-5.189e-12
-5.95582e-12
-4.76472e-12
-1.26282e-12
1.28164e-12
-2.18502e-12
-4.47967e-12
-5.13423e-12
-5.0911e-12
-4.57016e-12
-3.65085e-12
-2.59347e-12
-1.69845e-12
-1.06765e-12
-5.65995e-13
-2.35549e-13
-1.20718e-13
6.7684e-13
-2.52354e-12
-6.15765e-12
-6.42636e-12
-3.26678e-12
3.11563e-12
7.15038e-12
1.11935e-12
-3.7413e-12
-5.23456e-12
-5.10095e-12
-4.384e-12
-3.4443e-12
-2.47094e-12
-1.89094e-12
-1.14995e-12
-4.88696e-13
-1.83995e-13
-1.83521e-13
6.08635e-13
-2.36349e-12
-7.33853e-12
-5.90644e-12
7.92415e-13
1.09194e-11
1.60371e-11
6.84497e-12
-1.51954e-12
-4.78051e-12
-5.11647e-12
-4.20892e-12
-3.19251e-12
-1.91369e-12
4.84404e-13
-2.27564e-12
-2.24084e-12
-7.56868e-13
-6.66625e-14
8.64891e-13
-2.69826e-12
-8.18009e-12
-3.10616e-12
8.33125e-12
2.19146e-11
2.70673e-11
1.45421e-11
2.12757e-12
-3.34331e-12
-4.83835e-12
-4.31655e-12
-1.71494e-12
1.62125e-11
3.02554e-11
1.48718e-11
2.29019e-12
-2.19243e-12
-2.59331e-12
-1.35766e-12
-2.7626e-12
-7.93979e-12
2.79734e-12
1.88991e-11
3.45802e-11
3.87022e-11
2.31256e-11
6.26619e-12
-1.27479e-12
-4.48317e-12
-3.95656e-12
1.35399e-11
5.40934e-11
6.63277e-11
5.14589e-11
2.80672e-11
1.05082e-11
2.70815e-12
4.94452e-12
2.50474e-12
-5.80347e-12
1.1266e-11
3.01735e-11
4.61493e-11
4.8988e-11
3.13729e-11
9.90172e-12
5.36002e-13
-3.20828e-12
4.38653e-12
4.6151e-11
7.58476e-11
6.89683e-11
4.99632e-11
4.29056e-11
2.63149e-11
1.7422e-11
1.6739e-11
8.60768e-12
-2.02025e-12
1.93122e-11
3.7836e-11
5.27525e-11
5.58023e-11
3.84025e-11
1.05806e-11
-3.52643e-12
-4.22682e-12
1.92393e-11
6.98795e-11
8.4337e-11
6.8863e-11
4.65684e-11
3.14847e-11
2.50556e-11
1.46024e-11
1.43111e-11
1.64347e-11
1.14161e-12
2.15404e-11
3.62142e-11
4.93784e-11
5.63474e-11
4.87915e-11
2.50944e-11
7.58852e-12
1.26198e-11
4.60304e-11
8.14035e-11
8.32504e-11
7.69709e-11
6.28189e-11
4.17275e-11
2.99506e-11
2.89357e-11
2.95925e-11
3.05867e-11
-4.9118e-13
1.14906e-11
1.89967e-11
2.79253e-11
3.84668e-11
4.83953e-11
4.97893e-11
4.11003e-11
3.87895e-11
4.22359e-11
4.25015e-11
5.00047e-11
7.0109e-11
7.00928e-11
6.92978e-11
5.99371e-11
5.81077e-11
4.73215e-11
2.52728e-12
-1.19651e-11
-1.84158e-11
-2.56655e-11
-3.60224e-11
-4.88275e-11
-5.96169e-11
-5.88204e-11
-4.52666e-11
-3.43052e-11
-2.11053e-11
7.73753e-13
1.395e-11
1.12038e-12
-2.45243e-11
-4.33922e-11
-4.72309e-11
-4.43452e-11
-3.97065e-11
-3.6078e-11
-1.52943e-11
-3.00012e-11
-4.25462e-11
-5.54061e-11
-6.28903e-11
-5.48097e-11
-2.86626e-11
-8.77288e-12
-1.12479e-11
-3.49461e-11
-4.86113e-11
-3.56715e-11
-3.47464e-11
-4.84177e-11
-5.31988e-11
-4.74319e-11
-4.346e-11
-4.23554e-11
-3.84186e-11
-1.34632e-11
-3.02987e-11
-4.5005e-11
-5.7696e-11
-5.93002e-11
-3.99132e-11
-9.71808e-12
5.01607e-12
5.63297e-12
-1.63542e-11
-5.98748e-11
-6.64843e-11
-5.63255e-11
-5.44618e-11
-5.32306e-11
-4.07756e-11
-2.8358e-11
-3.16938e-11
-3.79277e-11
-9.51138e-12
-2.45521e-11
-3.91323e-11
-5.14639e-11
-5.14226e-11
-3.17389e-11
-9.54293e-12
-3.53788e-13
3.74698e-12
-3.10236e-12
-4.60804e-11
-7.78684e-11
-7.63569e-11
-6.84757e-11
-5.67553e-11
-3.54547e-11
-2.51169e-11
-3.11907e-11
1.17787e-12
-5.47853e-12
-1.69893e-11
-2.9725e-11
-4.13871e-11
-4.17208e-11
-2.38246e-11
-6.58338e-12
1.14318e-12
4.95579e-12
5.24013e-12
-1.14476e-11
-5.77038e-11
-7.526e-11
-5.74309e-11
-3.115e-11
-1.15569e-11
-3.24368e-12
-9.19808e-12
-2.96717e-13
-2.1814e-12
-1.00666e-11
-2.00561e-11
-3.04337e-11
-3.1627e-11
-1.64007e-11
-3.17935e-12
3.132e-12
5.30815e-12
5.07526e-12
3.07747e-12
-1.3561e-11
-2.72808e-11
-1.11724e-11
9.55467e-13
4.24997e-12
3.66622e-12
3.44276e-12
5.74248e-13
2.46047e-13
-4.67593e-12
-1.18504e-11
-2.03671e-11
-2.21097e-11
-9.68886e-12
3.30006e-13
4.7204e-12
5.57862e-12
4.89688e-12
4.0093e-12
3.3064e-12
2.81722e-12
3.77004e-12
2.69251e-12
8.16279e-13
-1.33875e-13
1.27483e-12
-2.86213e-12
1.78672e-12
-9.36379e-13
-5.72619e-12
-1.20931e-11
-1.37642e-11
-4.04103e-12
2.85981e-12
5.2119e-12
5.42916e-12
4.98455e-12
4.26038e-12
3.35923e-12
2.60017e-12
1.75034e-12
9.66299e-13
4.85296e-13
2.5234e-13
6.84334e-13
-3.11665e-12
2.61316e-12
1.38247e-12
-1.7195e-12
-6.15681e-12
-7.19269e-12
-6.50373e-14
3.76347e-12
4.96445e-12
5.29308e-12
5.10868e-12
4.43452e-12
3.48495e-12
2.55218e-12
1.77318e-12
1.04362e-12
4.66504e-13
1.64012e-13
1.03677e-13
-2.09091e-12
2.40572e-12
2.32935e-12
9.48472e-13
-1.06353e-12
-1.18024e-12
1.63983e-12
3.48655e-12
4.67645e-12
5.26043e-12
5.19224e-12
4.55246e-12
3.59667e-12
2.602e-12
1.73549e-12
9.78111e-13
4.28401e-13
1.47625e-13
-1.61139e-13
8.63848e-13
6.89744e-13
1.53095e-12
5.76531e-14
-1.87652e-13
-1.48386e-12
-2.46909e-13
-1.21231e-13
-4.29194e-14
-2.06236e-12
-1.31398e-12
-1.22344e-12
-5.46234e-12
-1.60698e-12
-1.95113e-12
-6.88503e-12
-1.22223e-12
-1.30681e-12
-6.54392e-12
-1.32256e-12
-1.04958e-12
-2.88762e-13
-1.44452e-14
1.03876e-13
1.79576e-13
2.10101e-13
3.15102e-13
2.43249e-12
5.2949e-13
5.71162e-13
6.01881e-13
6.36228e-13
6.90772e-13
7.60581e-13
8.36559e-13
9.05653e-13
9.85621e-13
1.07823e-12
1.18436e-12
1.213e-12
1.46752e-12
3.13796e-11
4.26979e-12
4.18179e-12
4.73102e-12
1.21296e-11
-4.705e-12
-4.4405e-12
-3.90821e-12
3.34381e-11
5.69812e-12
6.16518e-12
8.16107e-11
4.86079e-12
-2.71541e-12
-6.60407e-12
-1.64626e-11
-1.52905e-12
-1.16219e-12
-9.65439e-13
-1.45859e-11
-1.05151e-12
-8.5129e-13
-9.20673e-13
-9.25446e-13
-9.29561e-13
-9.14589e-13
-9.01717e-13
-9.01326e-13
-9.09269e-13
-9.08539e-13
-8.91547e-13
-8.57406e-13
-8.14146e-13
-9.5037e-12
-5.69374e-13
-4.46917e-13
-3.97242e-13
-3.1964e-13
-2.44151e-13
1.44999e-14
-5.06099e-13
-2.59168e-13
-2.46333e-12
-4.54419e-13
-3.11901e-13
-2.52538e-12
-1.1968e-12
-8.40921e-13
-2.62249e-12
-6.49715e-13
-4.8334e-13
-4.10205e-12
-1.15529e-12
-1.20005e-12
-1.25696e-12
-5.61656e-12
-9.41457e-13
-9.82927e-13
-4.21806e-12
-1.57194e-12
3.75041e-12
4.32664e-12
4.24192e-12
3.12801e-12
2.34293e-12
3.39412e-12
4.35787e-12
4.98568e-12
5.13047e-12
4.69925e-12
3.79613e-12
2.71313e-12
1.74471e-12
1.03531e-12
5.16765e-13
2.08071e-13
8.93984e-14
-7.01199e-13
3.1395e-12
5.189e-12
5.95582e-12
4.76472e-12
1.26282e-12
-1.28164e-12
2.18502e-12
4.47967e-12
5.13423e-12
5.0911e-12
4.57016e-12
3.65085e-12
2.59347e-12
1.69845e-12
1.06765e-12
5.65995e-13
2.35549e-13
1.20718e-13
-6.7684e-13
2.52354e-12
6.15765e-12
6.42636e-12
3.26678e-12
-3.11563e-12
-7.15038e-12
-1.11935e-12
3.7413e-12
5.23456e-12
5.10095e-12
4.384e-12
3.4443e-12
2.47094e-12
1.89094e-12
1.14995e-12
4.88696e-13
1.83995e-13
1.83521e-13
-6.08635e-13
2.36349e-12
7.33853e-12
5.90644e-12
-7.92415e-13
-1.09194e-11
-1.60371e-11
-6.84497e-12
1.51954e-12
4.78051e-12
5.11647e-12
4.20892e-12
3.19251e-12
1.91369e-12
-4.84404e-13
2.27564e-12
2.24084e-12
7.56868e-13
6.66625e-14
-8.64891e-13
2.69826e-12
8.18009e-12
3.10616e-12
-8.33125e-12
-2.19146e-11
-2.70673e-11
-1.45421e-11
-2.12757e-12
3.34331e-12
4.83835e-12
4.31655e-12
1.71494e-12
-1.62125e-11
-3.02554e-11
-1.48718e-11
-2.29019e-12
2.19243e-12
2.59331e-12
1.35766e-12
2.7626e-12
7.93979e-12
-2.79734e-12
-1.88991e-11
-3.45802e-11
-3.87022e-11
-2.31256e-11
-6.26619e-12
1.27479e-12
4.48317e-12
3.95656e-12
-1.35399e-11
-5.40934e-11
-6.63277e-11
-5.14589e-11
-2.80672e-11
-1.05082e-11
-2.70815e-12
-4.94452e-12