/*--------------------------------*- C++ -*----------------------------------*\
| =========                 |                                                 |
| \\      /  F ield         | OpenFOAM: The Open Source CFD Toolbox           |
|  \\    /   O peration     | Version:  4.1                                   |
|   \\  /    A nd           | Web:      www.OpenFOAM.org                      |
|    \\/     M anipulation  |                                                 |
\*---------------------------------------------------------------------------*/
FoamFile
{
    version     2.0;
    format      ascii;
    class       volVectorField;
    location    "5";
    object      U;
}
// * * * * * * * * * * * * * * * * * * * * * * * * * * * * * * * * * * * * * //

dimensions      [0 1 -1 0 0 0 0];

internalField   nonuniform List<vector> 
1280
(
(-4.9846e-16 -1.76389 -1.07319)
(-2.602e-16 -1.5188 -1.03634)
(-4.21761e-17 -1.51202 -0.818187)
(1.35611e-16 -1.26895 -0.884761)
(2.52195e-16 -1.44271 -1.21864)
(1.78435e-16 -1.11366 -0.981331)
(8.76103e-17 -1.02302 -1.01016)
(4.61289e-17 -0.801297 -1.01801)
(2.90066e-16 -0.836349 -1.49053)
(9.11486e-16 -0.560238 -1.33182)
(8.84149e-16 -0.289964 -1.42701)
(1.08297e-15 -0.163212 -2.03808)
(1.21374e-15 0.172773 -1.55255)
(1.46245e-15 0.457853 -1.20846)
(1.2468e-15 0.824685 -3.11954)
(8.83275e-16 1.23268 -2.75967)
(9.44401e-16 1.85275 -2.31156)
(1.1122e-15 2.00177 -4.40418)
(9.55779e-16 3.11405 -2.90145)
(7.58501e-16 2.69011 -5.1101)
(1.18467e-15 3.33229 -0.915886)
(5.92624e-17 3.53708 4.46126)
(-4.26158e-16 3.30598 7.66579)
(-7.36721e-16 3.57039 9.19598)
(-8.61953e-16 3.67193 9.79122)
(-1.29273e-15 4.04214 10.2821)
(-5.12778e-16 3.09634 9.20255)
(-2.17227e-15 6.90003 14.0754)
(-2.34323e-15 6.96137 14.2442)
(-2.46926e-15 6.9914 14.3137)
(-2.61017e-15 6.99218 14.3235)
(-2.83394e-15 6.97309 14.2794)
(-3.12033e-15 6.94669 14.1891)
(-3.43204e-15 6.90953 14.0659)
(-3.7155e-15 6.88386 13.9316)
(-4.04357e-15 6.83097 13.7935)
(-4.42351e-15 6.83428 13.6946)
(-4.85893e-15 6.72132 13.5158)
(-4.9764e-15 6.83216 13.585)
(-6.02058e-15 6.57328 12.8283)
(-5.46208e-15 8.96332 13.9137)
(-3.42955e-15 4.55881 9.82704)
(-3.35887e-15 3.17308 9.62357)
(-3.80969e-15 2.37425 10.1298)
(-2.04132e-15 -0.0726401 6.85866)
(3.77911e-15 -0.674415 -4.17447)
(3.56666e-15 -0.310135 -2.90457)
(3.13912e-15 -0.0372724 -3.40396)
(-4.35183e-15 1.78153 -5.31955)
(-7.0008e-15 1.35503 -7.76688)
(-4.95195e-15 -1.18046 -7.38702)
(-1.42055e-14 -1.74302 -5.32423)
(-3.90425e-15 0.0594678 -3.29962)
(2.18105e-15 0.308149 -2.85066)
(5.30448e-15 0.66683 -4.16641)
(2.86555e-15 0.0807403 6.84712)
(1.21847e-15 -2.37075 10.1383)
(9.33483e-16 -3.16948 9.62879)
(7.75453e-16 -4.55664 9.83123)
(2.29057e-15 -8.95956 13.9186)
(4.31387e-15 -6.56763 12.8354)
(3.49247e-15 -6.82723 13.5902)
(3.77712e-15 -6.71635 13.5177)
(3.7967e-15 -6.8296 13.6948)
(3.81358e-15 -6.82624 13.7921)
(3.75216e-15 -6.87915 13.9295)
(3.69935e-15 -6.90473 14.0632)
(3.69775e-15 -6.94181 14.1858)
(3.73034e-15 -6.96809 14.2754)
(3.72734e-15 -6.98707 14.3187)
(3.65763e-15 -6.98624 14.3089)
(3.51756e-15 -6.95646 14.2402)
(3.34009e-15 -6.89528 14.0727)
(2.00342e-15 -3.08629 9.2053)
(2.33589e-15 -4.03442 10.292)
(1.8335e-15 -3.66358 9.80398)
(1.62971e-15 -3.5621 9.21021)
(1.31134e-15 -3.29769 7.68178)
(1.00164e-15 -3.52915 4.47795)
(-5.94866e-17 -3.32469 -0.901861)
(3.65744e-16 -2.68125 -5.10613)
(1.87294e-16 -3.10925 -2.89685)
(4.18666e-16 -1.99682 -4.3917)
(3.28396e-16 -1.85604 -2.28991)
(2.25403e-16 -1.23961 -2.73762)
(4.6741e-16 -0.839087 -3.09802)
(8.52567e-16 -0.472519 -1.20698)
(6.5738e-16 -0.190139 -1.54622)
(6.02214e-16 0.140449 -2.02759)
(4.69532e-16 0.264565 -1.41908)
(3.17146e-16 0.534445 -1.32548)
(8.06744e-16 0.796887 -1.4792)
(8.5054e-16 0.768518 -1.01117)
(8.67243e-16 0.985302 -1.00432)
(9.08372e-16 1.07865 -0.977327)
(9.54588e-16 1.39661 -1.21399)
(6.80366e-16 1.23066 -0.883079)
(7.09903e-16 1.47329 -0.817934)
(7.23313e-16 1.47284 -1.04151)
(1.136e-15 1.72848 -1.08046)
(-4.16712e-16 1.43122 5.14031)
(-4.80737e-16 1.96165 5.60676)
(-4.71325e-16 2.21934 5.46062)
(-3.47556e-16 2.06854 5.13637)
(-2.60325e-16 0.355071 4.47874)
(-3.77124e-16 -1.78124 4.10721)
(-4.84208e-16 -2.82179 3.96858)
(-5.53964e-16 -3.37882 3.728)
(-5.70052e-16 -3.61762 3.34742)
(-5.22139e-16 -3.48814 2.87234)
(-4.21792e-16 -2.9119 2.31069)
(-3.01459e-16 -1.99629 1.62023)
(-1.93857e-16 -1.32397 0.803067)
(-1.15034e-16 -1.62025 0.162961)
(-5.74184e-17 -1.63645 -0.26084)
(-2.3119e-17 -1.42742 -0.442768)
(-9.93315e-18 -0.905006 -0.762705)
(7.7911e-17 -0.254822 -0.893139)
(-3.48834e-16 0.114643 -1.03655)
(-5.76555e-16 1.2785 5.43875)
(-6.61757e-16 1.91473 5.34708)
(-5.29413e-16 2.39632 4.94798)
(-1.40313e-16 2.39735 4.6304)
(1.42405e-16 0.717206 4.06627)
(-2.4278e-16 -1.82504 3.72112)
(-4.97741e-16 -2.82004 3.94182)
(-5.7047e-16 -3.22298 3.88107)
(-5.65678e-16 -3.35071 3.49479)
(-5.07795e-16 -3.11894 2.96626)
(-4.0565e-16 -2.418 2.25914)
(-2.88163e-16 -1.39311 1.24563)
(-1.88716e-16 -0.840128 0.0855101)
(-1.18628e-16 -1.43382 -0.245499)
(-6.28883e-17 -1.55501 -0.301754)
(-2.61721e-17 -1.27025 -0.282915)
(-1.34131e-17 -0.720214 -0.632866)
(7.52045e-17 -0.162731 -0.938881)
(-2.80393e-16 0.185497 -0.71273)
(-6.84183e-16 1.41298 5.26099)
(-7.1404e-16 2.10787 5.07555)
(-3.62975e-16 2.50597 4.9864)
(3.46181e-16 2.47165 5.06617)
(7.94487e-16 0.8748 4.72332)
(1.24372e-16 -1.74103 3.803)
(-4.15701e-16 -2.83977 3.83518)
(-5.81618e-16 -3.14918 4.02628)
(-5.66772e-16 -3.18221 3.74229)
(-4.87111e-16 -2.89396 3.17316)
(-3.827e-16 -2.08872 2.27242)
(-2.74549e-16 -0.937427 0.731587)
(-2.10104e-16 -0.622179 -1.0831)
(-1.27772e-16 -1.3387 -1.13987)
(-5.42995e-17 -1.59381 -0.749409)
(-2.04439e-17 -1.23992 -0.232715)
(-2.03912e-17 -0.595538 -0.493497)
(6.76262e-17 -0.170987 -0.927957)
(-2.6261e-16 0.214015 -1.04455)
(-8.15392e-16 1.37575 5.18435)
(-6.56271e-16 2.06168 5.25106)
(8.80461e-17 2.40644 5.5646)
(1.21327e-15 2.48203 6.00586)
(1.7819e-15 1.19872 5.87179)
(7.60552e-16 -1.49014 4.50566)
(-1.68837e-16 -2.86563 3.94418)
(-5.31167e-16 -3.17408 4.15627)
(-5.68497e-16 -3.04474 4.05214)
(-4.67658e-16 -2.59721 3.50938)
(-3.54723e-16 -1.53187 2.32913)
(-2.12633e-16 -0.0878821 -0.193012)
(5.38227e-17 -0.366994 -2.56977)
(-2.52849e-16 -1.66601 -2.64443)
(-2.48982e-16 -1.9451 -1.8976)
(-8.40964e-17 -1.30857 -0.789496)
(-7.40694e-18 -0.343644 -0.626762)
(9.6099e-17 0.0667619 -1.03612)
(-2.99807e-16 0.378886 -1.92746)
(-9.08898e-16 1.34958 5.31488)
(-3.45128e-16 1.94628 5.7969)
(9.25694e-16 2.19736 6.44925)
(2.43496e-15 2.3702 7.17308)
(3.00748e-15 1.4635 7.29546)
(1.61579e-15 -1.03786 5.82671)
(2.36396e-16 -2.70587 4.56542)
(-3.71479e-16 -3.18004 4.44036)
(-5.37594e-16 -2.9378 4.42141)
(-4.79617e-16 -2.22832 3.93283)
(-1.90549e-16 -0.633854 2.18571)
(1.80139e-15 1.20096 -1.14176)
(3.36171e-15 0.457159 -2.75197)
(1.65242e-15 -1.37369 -3.84116)
(2.54465e-16 -2.36067 -3.41263)
(-2.43603e-16 -1.7883 -2.22008)
(-2.88145e-16 -0.501628 -1.76866)
(-1.50851e-16 0.372352 -2.12246)
(-3.06955e-16 0.459358 -3.44062)
(-8.82199e-16 1.16727 5.72283)
(3.10816e-16 1.63657 6.63666)
(2.0999e-15 1.85746 7.47521)
(3.84225e-15 2.16265 8.38102)
(4.30025e-15 1.67125 8.79865)
(2.56951e-15 -0.415439 7.6536)
(6.96243e-16 -2.32961 5.85215)
(-1.41644e-16 -3.09151 5.12559)
(-4.9813e-16 -2.84849 4.91715)
(-4.39618e-16 -1.7262 4.2377)
(1.50443e-15 0.620437 1.86892)
(6.01038e-15 1.95021 0.455934)
(7.36974e-15 0.85841 0.290843)
(5.71766e-15 -1.33039 -2.79177)
(3.11857e-15 -2.4176 -3.34476)
(1.16758e-15 -1.90391 -2.7971)
(3.00906e-16 -0.40672 -2.61005)
(5.49392e-16 0.478137 -3.73156)
(2.78304e-16 0.727122 -4.38879)
(-6.4483e-16 0.934336 6.35324)
(1.25178e-15 1.27039 7.52377)
(3.35261e-15 1.48726 8.38339)
(5.1277e-15 1.86817 9.39721)
(5.44311e-15 1.71039 10.1675)
(3.48588e-15 0.204323 9.72111)
(1.10019e-15 -1.71408 7.85757)
(5.95558e-17 -2.75917 6.47837)
(-3.56475e-16 -2.59452 5.70975)
(4.87392e-16 -1.09732 4.62194)
(5.12789e-15 1.07835 3.45456)
(8.42751e-15 1.83916 4.40081)
(7.66314e-15 1.44581 4.55508)
(5.55146e-15 -0.771902 1.38698)
(4.76729e-15 -2.45966 -1.56017)
(2.92388e-15 -2.09502 -1.83764)
(1.93578e-15 -0.268599 -2.25119)
(1.85989e-15 1.73384 -3.75502)
(9.56409e-16 1.34351 -0.548421)
(-2.24472e-16 0.643004 7.02256)
(2.1458e-15 0.869863 8.24681)
(4.204e-15 1.09423 9.03796)
(5.86138e-15 1.47524 10.1534)
(6.20026e-15 1.50487 11.3276)
(4.26695e-15 0.52317 11.7502)
(1.17563e-15 -1.11531 10.3937)
(-3.91825e-16 -2.2239 8.44436)
(-4.69647e-16 -2.1334 6.77929)
(2.1377e-15 -0.803936 5.58773)
(7.76439e-15 0.63332 6.30513)
(9.37078e-15 1.52519 7.99678)
(7.65144e-15 2.06998 8.77315)
(5.17427e-15 1.14207 7.63086)
(3.4983e-15 -0.9466 3.26973)
(2.78395e-15 -1.39186 0.501978)
(1.62249e-15 0.379465 0.817186)
(1.59012e-15 -1.07726 4.71466)
(1.82608e-15 -5.8478 9.51877)
(1.26846e-16 0.372199 7.57258)
(2.39338e-15 0.512953 8.70568)
(4.0238e-15 0.700066 9.45151)
(5.48648e-15 0.97699 10.7265)
(6.26083e-15 1.06392 12.3046)
(5.42128e-15 0.591121 13.5249)
(2.78826e-15 -0.393794 13.0461)
(8.43169e-16 -1.26783 11.0592)
(1.4022e-15 -1.42739 8.85719)
(5.11449e-15 -0.815584 7.73283)
(9.04484e-15 0.108307 8.39266)
(9.25004e-15 0.985107 9.42908)
(8.55232e-15 1.58673 11.0624)
(6.97988e-15 1.18117 12.8882)
(4.63639e-15 -0.00684115 12.4056)
(3.32784e-15 -0.865629 10.252)
(3.21508e-15 -0.994723 10.3312)
(3.28806e-15 -1.58799 11.2184)
(3.39853e-15 -2.8177 10.9456)
(-5.45756e-17 0.112384 7.90209)
(1.27674e-15 0.174987 8.9521)
(2.11075e-15 0.260709 9.7687)
(3.10281e-15 0.355285 11.2545)
(4.27409e-15 0.368966 13.1294)
(5.37726e-15 0.18976 14.8428)
(5.56257e-15 -0.181933 15.1436)
(4.56669e-15 -0.583981 13.4913)
(4.30994e-15 -0.794311 10.6247)
(4.69288e-15 -0.627338 7.96194)
(4.72238e-15 -0.083506 6.79637)
(5.27908e-15 0.463994 7.76382)
(7.78989e-15 0.753435 10.5638)
(7.78809e-15 0.649341 13.5769)
(7.76305e-15 0.152013 14.6313)
(6.65968e-15 -0.472736 13.3623)
(6.45641e-15 -0.881768 11.2966)
(5.25794e-15 -1.54035 8.81912)
(2.80809e-16 -2.83759 5.21062)
(-1.32946e-15 -0.124776 7.89015)
(-2.04619e-15 -0.176913 8.94448)
(-2.85172e-15 -0.249031 9.76925)
(-4.00249e-15 -0.341631 11.2588)
(-5.42528e-15 -0.363442 13.1344)
(-6.6241e-15 -0.202389 14.8511)
(-6.61684e-15 0.155344 15.1622)
(-5.02962e-15 0.56145 13.5215)
(-3.81169e-15 0.807587 10.6857)
(-2.34503e-15 0.695374 8.11075)
(8.59725e-17 0.152956 7.04643)
(1.55e-15 -0.453323 7.97014)
(1.24487e-16 -0.725237 10.6858)
(-2.72492e-15 -0.484146 13.634)
(-4.82135e-15 0.0799968 14.6182)
(-5.24788e-15 0.590191 13.3271)
(-4.92724e-15 0.825496 11.2576)
(-4.41184e-15 1.47096 8.76452)
(-4.00867e-15 2.81707 5.19062)
(-1.69937e-15 -0.385823 7.54495)
(-3.33347e-15 -0.519531 8.67652)
(-4.72735e-15 -0.69292 9.43692)
(-6.15623e-15 -0.964992 10.7212)
(-6.98781e-15 -1.05911 12.3037)
(-6.08997e-15 -0.607521 13.5291)
(-3.18474e-15 0.360739 13.0537)
(-9.74765e-16 1.2329 11.0511)
(-1.24977e-15 1.40183 8.82989)
(-3.8829e-15 0.812358 7.72348)
(-5.40125e-15 -0.0787858 8.50666)
(-3.9635e-15 -0.952646 9.64431)
(-3.86071e-15 -1.49898 11.2042)
(-5.37974e-15 -0.952316 12.8025)
(-5.91098e-15 0.251596 12.0543)
(-5.27021e-15 0.956548 10.078)
(-4.82889e-15 0.945329 10.4494)
(-4.70615e-15 1.52955 11.2761)
(-4.26873e-15 2.78163 10.9478)
(-1.49591e-15 -0.654191 6.99634)
(-3.36652e-15 -0.877757 8.20755)
(-5.00056e-15 -1.09194 9.00834)
(-6.41066e-15 -1.46735 10.1343)
(-6.58891e-15 -1.50342 11.3213)
(-4.4348e-15 -0.540942 11.7634)
(-1.07979e-15 1.09164 10.4168)
(5.57341e-16 2.21032 8.45098)
(6.25886e-16 2.14024 6.76006)
(-1.81713e-15 0.814545 5.50343)
(-6.65276e-15 -0.63643 6.14272)
(-7.38715e-15 -1.49863 7.87636)
(-6.25839e-15 -1.92385 8.5263)
(-6.05131e-15 -0.808996 6.91736)
(-5.91451e-15 1.22782 2.4837)
(-4.53063e-15 1.3346 0.18686)
(-3.15089e-15 -0.542815 0.94934)
(-3.52154e-15 1.0589 4.83048)
(-4.21419e-15 5.84466 9.52983)
(-1.05682e-15 -0.941353 6.33858)
(-2.72801e-15 -1.27624 7.48966)
(-4.34803e-15 -1.48777 8.35041)
(-5.71821e-15 -1.86547 9.37078)
(-5.71362e-15 -1.71739 10.1578)
(-3.52655e-15 -0.231778 9.73705)
(-1.06033e-15 1.6872 7.87152)
(-3.93098e-17 2.74542 6.47118)
(4.16331e-16 2.60983 5.68999)
(-3.44707e-16 1.15818 4.5813)
(-5.12004e-15 -1.05778 3.18751)
(-8.65204e-15 -1.77146 4.00221)
(-8.4841e-15 -1.11554 3.93455)
(-7.60842e-15 1.26231 0.142926)
(-6.30614e-15 2.54215 -1.89378)
(-3.93941e-15 1.93078 -1.99911)
(-2.79076e-15 0.0457931 -2.42209)
(-3.46563e-15 -1.77133 -3.70396)
(1.30875e-16 -1.32095 -0.532275)
(-6.08726e-16 -1.16951 5.72194)
(-1.8877e-15 -1.63803 6.61691)
(-3.30278e-15 -1.8581 7.45075)
(-4.59856e-15 -2.16435 8.35878)
(-4.63565e-15 -1.68681 8.79451)
(-2.64718e-15 0.385806 7.67653)
(-7.31487e-16 2.31174 5.86281)
(1.2702e-16 3.08872 5.11349)
(5.50643e-16 2.86553 4.89005)
(5.82236e-16 1.81182 4.23227)
(-1.27195e-15 -0.420503 1.84762)
(-6.41153e-15 -1.80037 0.0398219)
(-8.36222e-15 -0.49508 -0.582566)
(-6.38122e-15 1.38079 -3.12718)
(-3.46112e-15 2.36145 -3.39581)
(-1.2841e-15 1.71101 -2.74092)
(-3.60409e-16 0.157342 -2.63391)
(-1.02201e-15 -0.592314 -3.852)
(-3.29686e-17 -0.722441 -4.43996)
(-2.42377e-16 -1.34812 5.32513)
(-1.11851e-15 -1.94346 5.79337)
(-2.22846e-15 -2.19684 6.43921)
(-3.38153e-15 -2.37553 7.16258)
(-3.51411e-15 -1.48795 7.30136)
(-1.8223e-15 1.00832 5.84889)
(-3.53261e-16 2.69292 4.56901)
(3.48e-16 3.18327 4.42693)
(5.89794e-16 2.95416 4.39561)
(5.63918e-16 2.28483 3.90887)
(3.41941e-16 0.839503 2.26131)
(-1.50677e-15 -0.840541 -1.12635)
(-3.0312e-15 -0.0592228 -3.05687)
(-1.24137e-15 1.6003 -3.70524)
(1.06163e-16 2.30817 -3.11409)
(4.72219e-16 1.60876 -1.97933)
(4.07358e-16 0.322636 -1.71847)
(3.82529e-16 -0.418912 -2.20096)
(6.38053e-17 -0.463895 -3.48868)
(2.73386e-17 -1.37161 5.20118)
(-5.19548e-16 -2.05536 5.26113)
(-1.31671e-15 -2.40416 5.56939)
(-2.26301e-15 -2.48977 6.00925)
(-2.45664e-15 -1.22886 5.88707)
(-1.07654e-15 1.46528 4.52348)
(3.66673e-17 2.85964 3.94279)
(5.24489e-16 3.18281 4.1447)
(6.19847e-16 3.065 4.03496)
(5.44098e-16 2.64461 3.48662)
(4.45478e-16 1.6698 2.34512)
(3.67378e-16 0.443176 0.0344466)
(3.13024e-16 0.68265 -2.15957)
(4.18894e-16 1.68019 -2.22458)
(2.99167e-16 1.83648 -1.57372)
(9.06976e-17 1.19139 -0.628109)
(-1.4875e-17 0.233846 -0.644526)
(1.41648e-16 -0.115808 -1.11408)
(-3.18014e-16 -0.397352 -1.97861)
(1.98525e-16 -1.40856 5.2804)
(-1.04042e-16 -2.10084 5.09451)
(-6.36243e-16 -2.50307 5.00269)
(-1.34368e-15 -2.48071 5.08155)
(-1.52936e-15 -0.907448 4.74543)
(-4.49003e-16 1.71976 3.8165)
(3.17757e-16 2.83765 3.83203)
(5.791e-16 3.15956 4.01908)
(6.0324e-16 3.20358 3.73271)
(5.53839e-16 2.93923 3.16)
(4.73375e-16 2.19486 2.27282)
(3.73247e-16 1.17155 0.833936)
(2.88908e-16 0.866994 -0.713009)
(1.94483e-16 1.4519 -0.909233)
(1.07367e-16 1.59842 -0.606975)
(5.39217e-17 1.19777 -0.204828)
(2.80378e-17 0.527456 -0.53457)
(7.60371e-17 0.122661 -0.988164)
(-3.46295e-16 -0.247857 -1.08859)
(2.90351e-16 -1.27357 5.45834)
(1.53608e-16 -1.90676 5.37211)
(-1.91055e-16 -2.39219 4.97474)
(-6.8409e-16 -2.40648 4.65883)
(-7.99188e-16 -0.749792 4.09489)
(-7.22636e-18 1.80843 3.73034)
(4.18163e-16 2.82127 3.94154)
(5.51606e-16 3.23487 3.8794)
(5.8812e-16 3.37428 3.49065)
(5.67631e-16 3.1654 2.95946)
(4.92724e-16 2.51529 2.2586)
(3.87217e-16 1.58866 1.28597)
(2.83575e-16 1.11513 0.234378)
(1.9702e-16 1.55629 -0.148252)
(1.15958e-16 1.55639 -0.243039)
(5.18338e-17 1.23316 -0.276109)
(1.82235e-17 0.65604 -0.648875)
(1.15196e-17 0.103038 -0.972007)
(-2.32324e-16 -0.224552 -0.729052)
(2.67302e-16 -1.42943 5.15614)
(2.58816e-16 -1.95855 5.63156)
(1.05386e-16 -2.21869 5.49225)
(-1.1817e-16 -2.07779 5.17255)
(-1.31137e-16 -0.379699 4.51011)
(1.82204e-16 1.77227 4.12033)
(3.87395e-16 2.82455 3.97389)
(5.19605e-16 3.39115 3.73017)
(5.84492e-16 3.6408 3.34711)
(5.76916e-16 3.53148 2.86983)
(5.05829e-16 2.99711 2.30822)
(3.99629e-16 2.1591 1.62619)
(2.89111e-16 1.5606 0.841548)
(1.92832e-16 1.75565 0.207209)
(1.08679e-16 1.66909 -0.226777)
(4.76001e-17 1.41374 -0.433758)
(1.64027e-17 0.853887 -0.761503)
(-1.79043e-17 0.194318 -0.90042)
(9.59831e-17 -0.15913 -1.02463)
(8.13922e-17 8.05049 13.785)
(-3.02393e-15 15.6319 26.254)
(-2.87538e-15 16.8654 27.3234)
(-2.70001e-15 15.831 24.9487)
(-2.7972e-15 14.5203 22.1881)
(-3.63032e-15 13.4004 19.8553)
(-4.20235e-15 12.3629 17.8322)
(-4.26202e-15 11.5631 16.3675)
(-4.22027e-15 10.9198 15.2401)
(-4.19999e-15 10.3763 14.3493)
(-4.24952e-15 9.90366 13.6422)
(-4.48673e-15 9.48758 13.0811)
(-4.70643e-15 9.10727 12.6325)
(-4.93413e-15 8.75284 12.2574)
(-5.00056e-15 8.39211 11.9244)
(-5.10044e-15 8.02756 11.5886)
(-5.29428e-15 7.59184 11.2149)
(-5.57359e-15 7.06592 10.6654)
(-5.94112e-15 6.37004 9.93831)
(-9.4517e-15 3.94628 6.45553)
(3.2358e-17 8.213 13.7371)
(-2.36084e-15 15.5197 26.5193)
(-1.72373e-15 16.0455 27.029)
(-1.72943e-15 14.5972 24.3759)
(-1.8286e-15 13.0639 21.6919)
(-2.95587e-15 11.8905 19.5197)
(-2.9418e-15 10.9912 17.8639)
(-2.60517e-15 10.2807 16.4517)
(-2.91001e-15 9.65465 15.2289)
(-3.13925e-15 9.1069 14.1581)
(-3.14092e-15 8.61713 13.2347)
(-3.66349e-15 8.17949 12.4415)
(-3.79332e-15 7.7727 11.7612)
(-4.10927e-15 7.39356 11.1572)
(-4.32212e-15 6.99731 10.6078)
(-4.58018e-15 6.60531 10.0419)
(-4.69432e-15 6.09829 9.45147)
(-5.07138e-15 5.54614 8.58923)
(-5.68378e-15 4.59565 7.53821)
(-1.06624e-14 2.21914 3.17705)
(-4.73224e-18 8.63193 15.0185)
(-8.33435e-16 16.6736 28.5417)
(-4.76136e-16 16.8134 28.6819)
(-4.28438e-16 15.1106 25.3991)
(-6.10723e-16 13.3908 22.5608)
(-1.44521e-15 12.2882 20.4117)
(-1.10374e-15 11.3662 18.7908)
(-1.02664e-15 10.6427 17.3456)
(-1.15268e-15 9.95711 16.0584)
(-1.27074e-15 9.34291 14.8676)
(-1.37343e-15 8.76643 13.7899)
(-1.48658e-15 8.23766 12.8159)
(-1.53899e-15 7.73712 11.9444)
(-1.76415e-15 7.26902 11.1469)
(-1.93008e-15 6.78546 10.4085)
(-2.12302e-15 6.31335 9.65424)
(-2.11607e-15 5.71792 8.87464)
(-2.43461e-15 5.08768 7.81748)
(-2.51751e-15 4.00026 6.50789)
(-7.51631e-15 1.65324 2.05991)
(1.20909e-18 8.49723 14.8716)
(2.04988e-16 17.1813 29.3813)
(1.32594e-16 16.8619 29.0984)
(1.42386e-16 14.9257 25.289)
(1.73775e-16 13.165 22.6086)
(-9.55877e-16 12.2637 20.6697)
(-8.79422e-16 11.3818 19.2356)
(-7.89383e-16 10.7099 17.8119)
(-1.06021e-15 9.9819 16.5005)
(-1.18947e-15 9.32758 15.2171)
(-1.1616e-15 8.67866 14.0197)
(-1.34087e-15 8.07251 12.8917)
(-1.35471e-15 7.48191 11.8472)
(-1.66664e-15 6.92206 10.8613)
(-1.8337e-15 6.3399 9.92957)
(-2.08845e-15 5.77319 8.97331)
(-2.00512e-15 5.06446 7.98419)
(-2.36601e-15 4.33536 6.6974)
(-2.54371e-15 2.99187 4.97461)
(-1.37209e-14 0.52707 -0.176792)
(-2.82249e-19 8.60938 15.1973)
(-5.07808e-17 17.6559 30.0521)
(-3.76151e-17 16.9928 29.5014)
(-3.74194e-17 14.9949 25.4058)
(-5.16411e-17 13.2874 22.9676)
(2.27569e-16 12.551 21.1788)
(2.44931e-16 11.6498 19.8335)
(2.48355e-16 10.9912 18.3868)
(2.8182e-16 10.2008 17.0537)
(3.08185e-16 9.51192 15.7059)
(3.31032e-16 8.79558 14.4339)
(3.59935e-16 8.12586 13.1959)
(3.80393e-16 7.45358 12.02)
(4.36621e-16 6.81197 10.8765)
(4.71882e-16 6.13587 9.77488)
(5.19661e-16 5.48376 8.63244)
(5.36724e-16 4.6662 7.4494)
(6.29729e-16 3.85752 5.95675)
(7.35375e-16 2.24288 3.8239)
(-9.19086e-16 0.109565 -0.890561)
(2.93266e-20 8.84667 15.6341)
(1.25135e-17 17.9535 30.4302)
(9.86078e-18 17.0082 29.5885)
(9.59676e-18 15.0167 25.4077)
(1.4763e-17 13.3824 23.1997)
(-5.26858e-17 12.7321 21.4942)
(-6.62302e-17 11.7801 20.177)
(-6.86589e-17 11.1114 18.6908)
(-7.16519e-17 10.2545 17.3365)
(-7.64833e-17 9.53717 15.9434)
(-8.40147e-17 8.76167 14.6299)
(-9.3389e-17 8.047 13.3241)
(-9.84184e-17 7.31183 12.069)
(-1.0621e-16 6.61529 10.8196)
(-1.14792e-16 5.8679 9.60073)
(-1.24412e-16 5.1597 8.30886)
(-1.34785e-16 4.24438 6.96154)
(-1.54309e-16 3.36968 5.23571)
(-2.3735e-16 1.43444 2.67734)
(1.50088e-15 -0.429228 -1.72529)
(1.11595e-20 9.29962 16.4211)
(-3.02882e-18 18.2008 30.7761)
(-2.50718e-18 16.9718 29.544)
(-2.44269e-18 15.0346 25.4095)
(-4.01867e-18 13.4581 23.3618)
(1.17287e-17 12.8262 21.6783)
(1.68378e-17 11.8245 20.3497)
(1.77122e-17 11.13 18.8285)
(1.81589e-17 10.2261 17.4543)
(1.91651e-17 9.48532 16.0376)
(2.09175e-17 8.67356 14.7064)
(2.31167e-17 7.93614 13.3766)
(2.40414e-17 7.17301 12.0984)
(2.55961e-17 6.45778 10.8139)
(2.74724e-17 5.68245 9.55169)
(2.94749e-17 4.94991 8.18391)
(3.25712e-17 3.97828 6.7299)
(3.70063e-17 3.02656 4.80881)
(5.26058e-17 0.945363 1.99736)
(7.6353e-16 -0.794377 -2.21455)
(-8.0006e-21 9.82161 17.2782)
(7.07509e-19 18.3876 31.0685)
(6.29238e-19 16.9012 29.4199)
(6.06493e-19 15.0411 25.3763)
(1.05635e-18 13.5032 23.407)
(-2.51467e-18 12.8556 21.7146)
(-4.1122e-18 11.842 20.3601)
(-4.45555e-18 11.1167 18.826)
(-4.5849e-18 10.2082 17.4297)
(-4.78184e-18 9.44544 16.0092)
(-5.10744e-18 8.63133 14.6688)
(-5.55461e-18 7.88359 13.3436)
(-5.77705e-18 7.12162 12.0673)
(-6.13209e-18 6.39646 10.7847)
(-6.48229e-18 5.61326 9.50574)
(-6.92062e-18 4.84331 8.10335)
(-7.74397e-18 3.83778 6.56728)
(-8.83243e-18 2.78373 4.5219)
(-1.17786e-17 0.734181 1.6605)
(6.64276e-17 -0.997344 -2.40808)
(3.34084e-21 10.4098 18.2135)
(-1.59306e-19 18.6375 31.3846)
(-1.54425e-19 16.9411 29.417)
(-1.45142e-19 15.1819 25.4551)
(-2.69873e-19 13.6676 23.4978)
(5.19912e-19 13.0003 21.7813)
(9.88604e-19 12.0179 20.3889)
(1.10944e-18 11.264 18.8531)
(1.13917e-18 10.3872 17.4245)
(1.17126e-18 9.60494 16.0006)
(1.22556e-18 8.80751 14.6393)
(1.31208e-18 8.0457 13.3073)
(1.37317e-18 7.27849 12.0062)
(1.45399e-18 6.51477 10.6949)
(1.52145e-18 5.69496 9.35771)
(1.62896e-18 4.84205 7.89956)
(1.83591e-18 3.79045 6.27526)
(2.12095e-18 2.63066 4.19517)
(3.77412e-18 0.706396 1.40474)
(-1.00071e-16 -1.10649 -2.46112)
(-1.22274e-21 11.2905 19.6601)
(3.47377e-20 19.1474 31.882)
(3.67775e-20 17.1467 29.6125)
(3.3493e-20 15.5645 25.74)
(6.67073e-20 14.0699 23.8138)
(-1.0063e-19 13.418 22.057)
(-2.31888e-19 12.4792 20.6144)
(-2.71768e-19 11.7209 19.0567)
(-2.76775e-19 10.8876 17.5789)
(-2.80376e-19 10.1009 16.1156)
(-2.89154e-19 9.31049 14.6888)
(-3.05054e-19 8.51605 13.2785)
(-3.21641e-19 7.69603 11.8672)
(-3.41353e-19 6.83869 10.4266)
(-3.57896e-19 5.9104 8.93578)
(-3.86311e-19 4.91109 7.33169)
(-4.38675e-19 3.74433 5.56028)
(-4.83271e-19 2.42697 3.38636)
(-7.22882e-19 0.48791 0.561575)
(-4.02155e-17 -1.25013 -2.81722)
(4.09651e-22 12.8329 22.4647)
(-7.39487e-21 19.9918 32.6694)
(-8.57879e-21 17.3719 29.955)
(-7.55076e-21 16.1992 26.3318)
(-1.58819e-20 14.7201 24.5886)
(1.72086e-20 14.1779 22.7888)
(5.13934e-20 13.2672 21.3258)
(6.47502e-20 12.5748 19.7338)
(6.62147e-20 11.7998 18.2099)
(6.60783e-20 11.0403 16.6519)
(6.741e-20 10.2325 15.0685)
(7.04618e-20 9.35954 13.4376)
(7.48571e-20 8.40604 11.7523)
(8.02497e-20 7.368 10.0065)
(8.55406e-20 6.2276 8.19582)
(9.3376e-20 4.98203 6.27174)
(1.07468e-19 3.58202 4.21316)
(1.78924e-19 1.92104 1.6857)
(-7.29074e-19 -0.295797 -1.31261)
(3.05469e-18 -1.70776 -4.50507)
(-1.24309e-22 14.9566 26.8093)
(1.59069e-21 20.6999 33.2827)
(2.02218e-21 17.2604 30.2951)
(1.72542e-21 16.8625 27.2522)
(3.6987e-21 15.3049 25.9025)
(-2.48408e-21 15.0134 24.112)
(-1.06192e-20 14.0755 22.7874)
(-1.48642e-20 13.5649 21.2477)
(-1.58606e-20 12.8359 19.7602)
(-1.59504e-20 12.0901 18.0543)
(-1.62675e-20 11.1493 16.172)
(-1.70402e-20 10.058 14.1164)
(-1.82826e-20 8.82829 11.9549)
(-1.99035e-20 7.48679 9.71539)
(-2.17787e-20 6.01721 7.41027)
(-2.46081e-20 4.41448 4.98661)
(-2.73872e-20 2.60624 2.55022)
(-4.76136e-20 0.595413 -0.289663)
(-2.14022e-19 -1.91866 -3.31937)
(5.87637e-18 -2.76328 -6.69952)
(3.52479e-23 16.6262 30.8037)
(-3.7095e-22 20.1858 32.3945)
(-5.01717e-22 16.4493 30.1641)
(-4.11105e-22 16.8438 27.8109)
(-8.93817e-22 14.9799 26.8601)
(3.67096e-22 14.9299 25.1593)
(2.2489e-21 13.8078 24.1812)
(3.40513e-21 13.4477 22.8117)
(3.81396e-21 12.498 21.3957)
(3.93748e-21 11.4598 19.3399)
(4.07136e-21 9.94793 16.8806)
(4.37798e-21 8.28768 14.1621)
(4.84739e-21 6.49834 11.3864)
(5.19163e-21 4.59056 8.48055)
(6.25272e-21 2.53898 5.35219)
(9.75092e-21 0.115531 1.77781)
(6.8746e-22 -3.3284 -2.46066)
(-1.48505e-20 -2.12131 -3.07828)
(1.10697e-19 -4.73731 -5.74996)
(1.00318e-18 -4.07527 -8.43109)
(-9.89084e-24 16.6769 31.6908)
(9.93124e-23 18.4323 29.8924)
(1.31906e-22 15.284 29.0353)
(1.21039e-22 15.6888 26.8632)
(2.1924e-22 13.655 25.9744)
(-1.11305e-22 13.4585 24.3907)
(-5.86709e-22 12.1877 23.5566)
(-8.88558e-22 11.6127 22.25)
(-1.02329e-21 10.2493 20.6252)
(-1.12e-21 8.67418 18.0543)
(-1.15813e-21 6.64401 15.0838)
(-9.85015e-22 4.7339 12.1184)
(-1.03003e-21 2.86442 9.28892)
(-2.20718e-21 0.988203 6.35561)
(-1.60125e-21 -0.857512 3.44371)
(5.83189e-21 -2.402 0.985814)
(-6.48592e-21 -3.70519 -1.26304)
(-1.31382e-19 -4.77563 -3.66672)
(-4.2268e-19 -4.3432 -3.98831)
(-5.2135e-19 -1.21764 -0.640491)
(2.20867e-24 15.4836 29.8736)
(-2.83549e-23 17.4948 28.0914)
(-3.67542e-23 14.1211 27.297)
(-3.82374e-23 14.5889 24.7978)
(-5.0598e-23 12.2995 23.8775)
(5.01448e-23 11.9879 22.0892)
(1.78879e-22 10.5209 21.098)
(2.52136e-22 9.6843 19.6753)
(2.58423e-22 8.19092 17.9956)
(2.25546e-22 6.56498 15.5888)
(2.9411e-22 4.77502 12.9814)
(6.69064e-22 3.22892 10.5265)
(7.82056e-22 1.81169 8.17938)
(-1.54417e-21 0.47535 5.77559)
(-6.8142e-21 -0.650679 3.55271)
(-6.80649e-21 -1.21252 2.12308)
(8.81055e-21 -0.521961 2.65376)
(3.04526e-20 2.00364 5.84002)
(4.08226e-20 5.34716 10.0532)
(4.37565e-20 5.06296 10.2941)
(-5.41111e-25 14.8306 29.3547)
(7.56657e-24 17.9121 27.3573)
(9.41659e-24 13.7396 26.6523)
(1.00133e-23 15.026 23.6327)
(1.27375e-23 12.3548 22.7542)
(-1.30546e-23 12.3981 20.4914)
(-4.44834e-23 10.8264 19.1952)
(-5.96157e-23 10.1816 17.4886)
(-6.17413e-23 9.06764 16.029)
(-6.7234e-23 8.16153 14.3557)
(-7.87e-23 7.22742 12.7034)
(-4.49111e-23 6.50984 11.1745)
(1.41475e-22 5.93697 9.8132)
(5.40817e-22 5.43984 8.49653)
(8.8241e-22 5.04157 7.31143)
(3.46046e-22 4.92037 6.61869)
(-1.60751e-21 5.2407 6.6338)
(-4.96736e-21 5.53829 7.24638)
(-9.79469e-21 5.69148 7.58305)
(-1.23517e-20 4.13752 6.50212)
(1.8839e-25 14.7472 30.0905)
(-1.93259e-24 18.4525 27.6276)
(-2.58291e-24 13.8758 27.1833)
(-2.40378e-24 15.4002 24.2138)
(-2.49986e-24 12.9396 23.3163)
(3.30079e-24 12.9564 21.2364)
(9.76007e-24 11.7271 19.8783)
(1.20608e-23 11.1785 18.2603)
(1.13714e-23 10.4264 16.8781)
(1.30459e-23 9.87091 15.5483)
(2.04394e-23 9.34031 14.2957)
(2.35689e-23 8.8396 13.0139)
(-3.5698e-25 8.32459 11.6849)
(-6.23345e-23 7.80457 10.3323)
(-1.24068e-22 7.24428 8.94296)
(-1.05019e-22 6.56143 7.4276)
(1.07684e-22 5.56215 5.76561)
(5.5557e-22 4.24068 3.83511)
(1.66628e-21 2.25518 1.79292)
(3.99631e-21 0.629665 -0.808304)
(3.38706e-27 14.1548 30.7151)
(4.57931e-25 18.3724 27.5828)
(3.1432e-25 13.4918 27.5433)
(2.88049e-25 14.6805 25.0241)
(6.21851e-25 12.5528 24.0746)
(-1.8148e-25 12.2452 22.3869)
(-1.34064e-24 11.1987 21.1364)
(-2.17455e-24 10.5968 19.7617)
(-2.54029e-24 9.89653 18.5039)
(-2.14601e-24 9.31208 17.2369)
(-9.81856e-25 8.72827 15.9937)
(1.84331e-25 8.17749 14.7389)
(3.48508e-24 7.62411 13.4501)
(2.08364e-23 7.0307 12.0177)
(6.48895e-23 6.21727 10.2225)
(1.2198e-22 4.98501 7.69312)
(1.30714e-22 3.02288 4.27175)
(6.7143e-23 0.902811 0.263639)
(-8.77496e-23 -1.97228 -3.02243)
(4.94437e-21 -2.43084 -6.70793)
(1.69235e-26 11.3069 28.7596)
(-1.00729e-25 17.1707 25.2565)
(-2.35726e-25 12.1524 25.6382)
(-3.5729e-25 12.8029 23.9381)
(-1.66419e-25 11.0835 23.1969)
(3.61583e-25 10.4307 22.1211)
(6.80649e-25 9.45954 21.214)
(6.47557e-25 8.70251 20.2698)
(6.9328e-25 7.94754 19.3516)
(1.35435e-24 7.26417 18.4218)
(2.00942e-24 6.62079 17.4863)
(8.04416e-25 6.02824 16.544)
(1.01448e-24 5.46771 15.5715)
(2.20548e-23 4.86145 14.4226)
(8.81481e-23 4.00926 12.7254)
(1.67445e-22 2.63877 9.94787)
(1.51899e-22 0.700489 5.84087)
(1.00672e-22 -1.44419 1.08217)
(5.3401e-22 -3.02618 -2.87453)
(1.68786e-21 -2.38786 -4.33871)
(8.66935e-27 2.64799 17.1128)
(3.19505e-26 8.05049 13.7683)
(-2.83874e-27 5.17668 14.6244)
(-1.00288e-25 4.96214 14.2488)
(-2.26508e-25 4.02669 14.2237)
(-3.26361e-25 3.44279 14.0659)
(-4.03498e-25 2.84742 13.9224)
(-5.48566e-25 2.35269 13.7425)
(-7.70038e-25 1.91766 13.5409)
(-7.96182e-25 1.55591 13.3145)
(-1.64973e-25 1.26465 13.0651)
(8.79403e-25 1.04647 12.793)
(-4.98926e-26 0.905305 12.5099)
(-7.05704e-24 0.866071 12.2415)
(-2.06352e-23 0.968321 12.0107)
(-3.10324e-23 1.1918 11.8072)
(-2.47662e-23 1.56396 11.4586)
(-7.4325e-24 2.35364 10.5221)
(-3.18249e-24 2.66832 8.99817)
(-1.02021e-23 -0.10428 6.77938)
(-8.68998e-27 -2.648 17.1128)
(-3.23585e-26 -8.05051 13.7683)
(-9.28746e-28 -5.17668 14.6245)
(9.20365e-26 -4.96213 14.2488)
(2.15038e-25 -4.02664 14.2237)
(3.12796e-25 -3.4427 14.0659)
(3.89098e-25 -2.84726 13.9225)
(5.37471e-25 -2.3525 13.7426)
(7.68278e-25 -1.91745 13.541)
(8.0071e-25 -1.5557 13.3146)
(1.54251e-25 -1.26442 13.0653)
(-9.19707e-25 -1.04622 12.7932)
(6.5666e-26 -0.90509 12.5103)
(7.41616e-24 -0.866073 12.2424)
(2.17119e-23 -0.968749 12.0123)
(3.28065e-23 -1.1927 11.8093)
(2.64878e-23 -1.5651 11.4604)
(8.32876e-24 -2.35472 10.5234)
(3.45281e-24 -2.66921 8.99941)
(1.03538e-23 0.10396 6.78034)
(-1.61617e-26 -11.3073 28.76)
(9.44363e-26 -17.1707 25.2572)
(2.32025e-25 -12.1526 25.6389)
(3.59016e-25 -12.8028 23.9389)
(1.67558e-25 -11.0833 23.1978)
(-3.63282e-25 -10.4303 22.122)
(-6.68734e-25 -9.45896 21.215)
(-5.92473e-25 -8.70167 20.2708)
(-6.01824e-25 -7.9464 19.3525)
(-1.30198e-24 -7.26273 18.4227)
(-2.0704e-24 -6.61915 17.4872)
(-9.22765e-25 -6.0265 16.5449)
(-1.1575e-24 -5.46577 15.5724)
(-2.30495e-23 -4.85873 14.4225)
(-9.24335e-23 -4.00491 12.7225)
(-1.77249e-22 -2.63277 9.94167)
(-1.65081e-22 -0.694816 5.83452)
(-1.12529e-22 1.44669 1.08043)
(-5.44655e-22 3.02634 -2.87334)
(-1.69351e-21 2.38846 -4.33832)
(-8.43581e-27 -14.1559 30.7169)
(-4.34324e-25 -18.373 27.5843)
(-3.24117e-25 -13.4926 27.5451)
(-3.49162e-25 -14.6812 25.0261)
(-6.68253e-25 -12.5536 24.0768)
(2.03168e-25 -12.2461 22.3894)
(1.43465e-24 -11.1995 21.1391)
(2.30727e-24 -10.5976 19.7646)
(2.64342e-24 -9.89716 18.5067)
(2.08178e-24 -9.31242 17.2395)
(5.81432e-25 -8.72824 15.9958)
(-8.32069e-25 -8.17718 14.7406)
(-3.83197e-24 -7.62373 13.4516)
(-2.04779e-23 -7.02985 12.0186)
(-6.47508e-23 -6.2152 10.2211)
(-1.23885e-22 -4.98057 7.68792)
(-1.34865e-22 -3.01675 4.26411)
(-7.13002e-23 -0.895892 0.252764)
(9.0107e-23 1.98315 -3.03707)