/*--------------------------------*- C++ -*----------------------------------*\
| =========                 |                                                 |
| \\      /  F ield         | OpenFOAM: The Open Source CFD Toolbox           |
|  \\    /   O peration     | Version:  4.1                                   |
|   \\  /    A nd           | Web:      www.OpenFOAM.org                      |
|    \\/     M anipulation  |                                                 |
\*---------------------------------------------------------------------------*/
FoamFile
{
    version     2.0;
    format      ascii;
    class       volScalarField;
    location    "6";
    object      p;
}
// * * * * * * * * * * * * * * * * * * * * * * * * * * * * * * * * * * * * * //

dimensions      [0 2 -2 0 0 0 0];

internalField   nonuniform List<scalar> 
1280
(
0.0261394
-0.0858307
-0.0426864
-0.167607
0.00618621
0.00212385
-0.0362723
-0.0615816
-0.104424
-0.257747
-0.694267
-1.13214
-1.52765
-2.55746
-3.29049
-4.73907
-7.11948
-8.1694
-11.7606
-17.1534
-16.755
-2.62374
18.5679
27.0229
28.3729
31.8162
14.1141
18.1693
18.7852
18.4567
17.8085
16.9803
15.9049
14.608
13.2258
11.5455
10.0298
7.56633
6.16481
0.849974
-27.5765
-8.1455
-2.11816
1.37944
9.45498
9.59881
9.67183
9.7396
10.3158
10.2842
10.2831
10.3036
9.69491
9.63807
9.58281
9.4457
1.37931
-2.12887
-8.16604
-27.6457
0.829248
6.15379
7.56608
10.0394
11.564
13.2517
14.6404
15.9437
17.0252
17.8574
18.5118
18.8481
18.2159
14.1298
31.851
28.4167
27.072
18.6225
-2.5541
-16.6689
-17.057
-11.6366
-7.69036
-6.62864
-4.36947
-2.86423
-2.17426
-1.26551
-0.866469
-0.495242
-0.147354
-0.0251962
-0.0027462
0.0109827
0.0314945
0.0277114
-0.147152
-0.0425736
-0.100223
0.0428728
-0.47194
-1.94478
-1.33255
-0.102678
0.59386
1.23676
1.78532
2.04495
1.26475
-0.233438
-1.05638
-0.81554
0.337717
1.06457
0.867389
0.0548756
-0.124368
-0.223831
-0.108921
-1.33468
-3.28676
-2.30199
-0.00169307
1.48526
3.03032
4.2403
4.72982
3.05462
0.185689
-1.33762
-0.771875
1.58932
2.70437
2.14769
0.226745
-0.50369
-0.634375
-0.108145
-2.50542
-3.74149
-2.7612
0.237131
2.07504
3.96378
5.36907
5.89137
3.31206
-0.138423
-1.68009
-0.87222
2.24156
3.64855
2.85164
0.431209
-1.26212
-1.31031
-0.13802
-3.51046
-4.03453
-3.53722
0.352066
2.78271
5.12843
6.86012
7.31293
3.49895
-1.66308
-5.48287
-1.72816
3.01319
4.73177
3.31949
0.354923
-2.46706
-2.34185
-0.194428
-4.31874
-4.00102
-4.25599
0.469796
3.57707
6.34971
8.4088
8.02026
3.28631
-4.98184
-11.9193
-3.70203
4.24409
5.94762
3.36438
-1.00474
-5.00093
-4.24093
-0.454627
-4.86513
-3.86859
-4.72925
0.651255
4.47451
7.62158
9.72335
8.13554
3.39475
-8.02948
-13.8975
-5.88955
6.34986
8.50824
4.49086
-4.09933
-10.2133
-7.20152
0.55861
-5.36152
-3.84
-4.9788
0.811036
5.4249
8.82358
10.2717
8.43357
3.9151
-8.92948
-14.3274
-7.19205
9.52535
12.5139
8.18017
-5.66562
-12.6496
-11.8019
-1.89909
-5.78023
-3.44995
-4.62947
1.27031
6.48275
9.81377
10.2847
8.64853
4.4338
-7.5471
-14.7928
-6.81774
11.9821
14.8037
11.0682
-5.45811
-12.0574
-6.75198
-1.28383
-6.15932
-2.76375
-4.15271
1.75622
7.36437
10.3873
9.96761
8.32305
4.90917
-5.08512
-13.646
-6.03797
13.7721
15.0062
11.218
-3.03234
-7.61019
9.68862
18.5513
-6.31494
-1.79719
-3.40185
2.53148
8.14152
10.7092
9.83376
8.14574
5.20321
-3.50415
-11.0169
-3.86117
13.7598
13.5426
10.206
-2.02741
-2.2805
22.8047
15.7822
-6.31031
-1.77764
-3.38617
2.53466
8.14036
10.7046
9.80447
8.05704
4.898
-4.14565
-11.4643
-3.54386
15.5504
13.804
9.95251
-2.40362
-2.44911
22.7523
15.8795
-6.15572
-2.74153
-4.13944
1.72712
7.30208
10.341
9.98232
8.22618
4.04755
-6.89472
-14.1318
-4.63341
18.3137
15.1147
10.6023
-4.69789
-8.92502
9.32118
18.5841
-5.77193
-3.41893
-4.60973
1.24736
6.4335
9.75568
10.302
8.45625
3.08223
-9.16966
-14.4296
-4.33436
15.7193
14.8332
9.06238
-8.50857
-14.8109
-7.85504
-0.871839
-5.35318
-3.81294
-4.98343
0.762645
5.3419
8.68998
10.2413
8.18888
2.1316
-9.08281
-14.2151
-3.87633
10.5104
12.3138
6.531
-9.46239
-16.372
-13.5583
-1.47196
-4.85236
-3.81962
-4.73896
0.604986
4.38739
7.43554
9.54539
8.04162
1.44697
-6.97891
-13.0255
-2.64027
6.16111
8.59575
3.91801
-8.09183
-13.72
-8.99336
0.676502
-4.31218
-3.94124
-4.27743
0.418715
3.48215
6.1597
8.11097
7.94435
2.24647
-4.33967
-7.90941
-1.20375
4.43982
6.89542
3.17472
-3.56736
-7.62286
-5.60947
-0.585796
-3.51759
-3.97954
-3.5626
0.306711
2.69397
4.96867
6.63417
7.09333
3.33317
-1.74827
-3.05695
-0.503587
3.66541
5.97639
3.01773
-1.14475
-4.03686
-3.19823
-0.342178
-2.52477
-3.70296
-2.79112
0.196997
1.99803
3.82477
5.15351
5.68016
3.41285
-0.509786
-1.87074
-0.365478
2.98954
4.57635
2.24899
-0.424876
-2.18903
-1.84185
-0.257169
-1.35256
-3.25477
-2.32911
-0.0377558
1.41946
2.91814
4.05595
4.46991
2.79312
-0.35523
-1.35316
-0.185687
2.20039
3.18939
1.64848
-0.121168
-0.955511
-0.945149
-0.214238
-0.480383
-1.92829
-1.35492
-0.131077
0.551707
1.17011
1.66901
1.85219
0.996828
-0.636906
-1.25926
-0.753978
0.627869
1.31193
0.695283
-0.0846361
-0.245255
-0.310053
-0.149445
76.8426
76.7887
75.8477
74.3845
72.5508
70.2936
67.8319
65.2324
62.7978
60.5455
58.5512
56.7784
55.237
53.9272
52.808
51.9055
51.1488
50.5682
50.1479
49.6922
41.098
42.2912
42.1248
42.1386
42.4335
42.5738
42.9113
42.967
43.1223
43.1181
43.1538
43.1493
43.1574
43.1918
43.2273
43.3354
43.4129
43.618
43.7104
44.0002
45.5946
45.604
45.1281
44.7694
44.6458
44.2979
44.1923
43.8982
43.7846
43.5816
43.4794
43.3712
43.3088
43.2923
43.2849
43.3621
43.4065
43.5792
43.6627
43.8962
36.7479
37.1031
36.9713
36.9782
37.1303
37.1032
37.2762
37.2576
37.3997
37.4319
37.5459
37.6287
37.7331
37.8607
37.9696
38.1473
38.2617
38.5072
38.6153
38.932
35.1873
35.5445
35.5008
35.5858
35.767
35.7646
35.9578
35.9608
36.0983
36.1299
36.2138
36.2629
36.3121
36.3711
36.3991
36.4765
36.49
36.6128
36.6165
36.8248
28.9902
29.924
30.3933
30.9104
31.5028
31.8363
32.377
32.6981
33.1139
33.4155
33.7196
33.9726
34.1894
34.3856
34.5299
34.6829
34.764
34.9024
34.93
35.1042
18.7624
20.4444
21.7939
22.9166
24.2203
25.103
26.2522
27.149
28.1023
28.9379
29.7212
30.429
31.0571
31.6218
32.1022
32.5394
32.8771
33.2108
33.393
33.6481
0.621639
2.94089
5.1029
6.62384
8.76037
10.2439
12.19
13.8743
15.658
17.3611
19.0073
20.5761
22.0394
23.4002
24.6327
25.7602
26.7391
27.6587
28.3376
29.0903
-26.3579
-25.0342
-23.1743
-22.6693
-20.6357
-19.6617
-17.7594
-16.1854
-14.2296
-12.1988
-9.98636
-7.64295
-5.20953
-2.72852
-0.287354
2.09314
4.36202
6.70347
8.80633
11.646
-47.0032
-50.0574
-50.1024
-52.8225
-53.3381
-55.7844
-56.9404
-59.0137
-60.3847
-61.6713
-62.2623
-62.2361
-61.4258
-59.8403
-57.5091
-54.5938
-51.5457
-48.4919
-46.0303
-41.7252
-17.4721
-24.0744
-25.4707
-30.2944
-32.7473
-37.3968
-40.8719
-45.6118
-49.8319
-54.4318
-58.655
-62.7345
-66.346
-69.3587
-71.3554
-72.4724
-72.8387
-72.0895
-71.7014
-69.6113
42.2836
36.6102
35.7407
31.0258
29.2893
25.0774
22.5369
18.7641
15.8865
12.7293
10.1699
7.76448
5.76383
3.98407
2.57345
1.43152
0.410684
-0.153503
-1.75868
-6.16727
81.3523
80.6534
82.0893
80.593
82.3584
81.0944
81.8738
80.7087
80.0207
78.1735
75.9297
72.7637
68.8304
64.1947
59.3579
54.8505
51.2931
49.4623
49.0134
45.627
55.7458
57.266
59.9726
59.5497
62.7627
62.951
65.4664
66.7055
68.679
70.2531
71.8163
73.0208
73.7338
73.6908
72.786
71.0861
69.4285
68.3618
68.6782
68.7119
35.4882
36.2472
40.1623
39.0591
43.1726
43.1752
45.8687
47.0997
48.8943
50.4355
51.9469
53.437
54.9441
56.5486
58.2947
60.1894
62.0904
64.0684
65.6314
67.3876
2.27254
0.76748
4.67484
1.93777
5.97829
5.01134
7.44094
8.37901
10.1978
11.9614
13.9441
16.0767
18.3442
20.7647
23.3011
26.0506
28.8032
31.7676
34.1908
37.7885
6.76202
2.12153
4.2016
-2.5485
-2.25061
-7.08625
-9.0158
-12.3589
-14.8638
-17.4522
-19.6898
-21.6773
-23.3005
-24.4096
-24.7942
-24.0537
-22.2899
-19.7598
-18.1849
-14.871
18.5791
10.5802
18.1429
10.312
11.4478
7.12608
4.84341
1.19733
-2.19908
-5.96294
-9.76004
-13.676
-17.5628
-21.2259
-24.3317
-26.3797
-26.8304
-26.7649
-27.4226
-26.2002
44.8936
22.0063
30.0066
18.6918
15.831
9.0223
3.97748
-1.37462
-5.97335
-10.0335
-13.3076
-15.7346
-17.1918
-17.5764
-16.7741
-14.5601
-11.237
-8.07256
-5.66624
-4.62589
731.167
648.556
599.405
543.145
494.077
446.688
402.586
360.889
321.616
284.486
249.34
215.991
184.27
154.211
125.984
98.8448
73.0636
52.6658
28.783
-8.53328
731.038
648.428
599.278
543.019
493.952
446.564
402.463
360.767
321.494
284.365
249.218
215.869
184.148
154.088
125.86
98.7201
72.9371
52.5357
28.6511
-8.66429
44.7957
21.9091
29.9097
18.5954
15.7352
8.92702
3.88275
-1.46895
-6.0673
-10.1272
-13.4011
-15.8279
-17.2849
-17.6692
-16.8658
-14.6504
-11.3282
-8.16335
-5.75525
-4.71733
18.4724
10.4721
18.0334
10.2011
11.3354
7.01221
4.72786
1.08019
-2.31797
-6.08358
-9.8825
-13.8002
-17.6882
-21.3517
-24.4572
-26.5036
-26.9545
-26.8921
-27.5542
-26.3351
6.61781
1.9731
4.04977
-2.70253
-2.409
-7.24807
-9.18121
-12.5283
-15.037
-17.6295
-19.8712
-21.8629
-23.49
-24.6025
-24.9899
-24.2512
-22.4904
-19.966
-18.3962
-15.0849
2.06726
0.558125
4.4626
1.72359
5.76141
4.79126
7.21849
8.15304
9.9691
11.7292
13.7087
15.8382
18.1027
20.5209
23.0556
25.8037
28.5549
31.5178
33.9396
37.54
35.277
36.0322
39.946
38.8405
42.9519
42.9526
45.6437
46.8745
48.6695
50.2143
51.7324
53.233
54.7531
56.3715
58.126
60.0218
61.9187
63.8922
65.4528
67.2123
55.5722
57.0986
59.8135
59.3965
62.6185
62.8133
65.3368
66.5861
68.5697
70.1539
71.7224
72.9236
73.6246
73.5556
72.6165
70.8962
69.2424
68.1985
68.5312
68.5736
81.298
80.619
82.0568
80.569
82.3377
81.0766
81.8544
80.6847
79.9869
78.1268
75.8671
72.687
68.746
64.1099
59.2845
54.7964
51.2538
49.4249
48.9774
45.6037
42.4853
36.8218
35.9518
31.242
29.5096
25.3038
22.7696
19.0044
16.1327
12.9804
10.4216
8.01182
6.00282
4.2152
2.79182
1.60926
0.542969
-0.0116643
-1.60791
-6.03246
-17.5038
-24.1261
-25.5425
-30.3909
-32.8651
-37.5387
-41.0388
-45.8042
-50.0479
-54.6694
-58.911
-63.0032
-66.6131
-69.605
-71.5941
-72.7211
-73.0456
-72.2777
-71.8965
-69.798
-47.3103
-50.3896
-50.4426
-53.1746
-53.6987
-56.1529
-57.3138
-59.3882
-60.7536
-62.028
-62.6016
-62.5549
-61.7225
-60.1133
-57.7656
-54.8488
-51.816
-48.7715
-46.3052
-41.9872
-26.627
-25.3031
-23.437
-22.928
-20.8868
-19.9058
-17.9952
-16.4131
-14.449
-12.4109
-10.1924
-7.84549
-5.41164
-2.93342
-0.496729
1.88261
4.14876
6.49627
8.60574
11.4528
0.460918
2.79042
4.9622
6.49085
8.63524
10.1253
12.0773
13.7667
15.5542
17.2602
18.9081
20.4776
21.9411
23.3017
24.5345
25.6637
26.6446
27.567
28.2491
29.0056
18.6606
20.3508
21.707
22.8351
24.1427
25.0287
26.1803
27.0794
28.0341
28.8711
29.6552
30.3639
30.9928
31.5584
32.0399
32.4783
32.8172
33.152
33.3347
33.5905
28.9239
29.8626
30.3341
30.8537
31.4472
31.782
32.3234
32.6455
33.0618
33.3641
33.6686
33.9221
34.1394
34.3361
34.4809
34.6343
34.7158
34.8546
34.8824
35.057
35.1451
35.5048
35.4604
35.5465
35.7276
35.7258
35.9192
35.9227
36.0604
36.0926
36.1768
36.2263
36.2759
36.3353
36.3637
36.4414
36.4553
36.5786
36.5826
36.7914
36.721
37.0769
36.9435
36.9509
37.1023
37.0755
37.2483
37.23
37.3721
37.4045
37.5185
37.6015
37.706
37.8337
37.9426
38.1205
38.2349
38.4804
38.5885
38.9049
45.566
45.5759
45.0991
44.7409
44.6166
44.2689
44.1628
43.8687
43.7547
43.5514
43.4489
43.3403
43.2775
43.2607
43.2528
43.3296
43.3735
43.5459
43.629
43.8621
41.0884
42.2809
42.1114
42.1233
42.4161
42.5551
42.8908
42.9454
43.0991
43.0937
43.128
43.1223
43.1291
43.1624
43.1968
43.304
43.3806
43.5851
43.6771
43.9667
76.818
76.7637
75.8171
74.3515
72.5158
70.2584
67.7963
65.1954
62.7613
60.5101
58.5165
56.7443
55.2033
53.894
52.775
51.8727
51.116
50.5357
50.1152
49.6601
)
;

boundaryField
{
    outletWall
    {
        type            fixedValue;
        value           uniform 0;
    }
    fineWalls
    {
        type            zeroGradient;
    }
    fineFrontAndBack
    {
        type            zeroGradient;
    }
    fineplugLeft
    {
        type            cyclicAMI;
        value           nonuniform List<scalar> 
20
(
39.9237
41.3512
41.9679
42.925
43.8335
44.8916
46.0634
47.3705
48.8188
50.4027
52.1278
53.9952
55.8198
61.7238
62.5981
63.7152
64.9122
64.3917
60.9062
58.1231
)
;
    }
    fineplugRight
    {
        type            cyclicAMI;
        value           nonuniform List<scalar> 
20
(
39.8939
41.3229
41.9418
42.9007
43.8109
44.8703
46.0433
47.3514
48.8005
50.3846
52.1105
53.9786
55.7995
61.694
62.577
63.696
64.8956
64.3782
60.9001
58.1206
)
;
    }
    inletOutletLeft
    {
        type            cyclicAMI;
        value           nonuniform List<scalar> 
20
(
39.9237
41.3512
41.9679
42.925
43.8335
44.8916
46.0634
47.3705
48.8188
50.4027
52.1278
53.9952
55.8198
61.7238
62.5981
63.7152
64.9122
64.3917
60.9062
58.1231
)
;
    }
    inletLeft
    {
        type            zeroGradient;
    }
    inletWallsLeft
    {
        type            zeroGradient;
    }
    inletFacesLeft
    {
        type            zeroGradient;
    }
    inletOutletRight
    {
        type            cyclicAMI;
        value           nonuniform List<scalar> 
20
(
39.8939
41.3229
41.9418
42.9007
43.8109
44.8703
46.0433
47.3514
48.8005
50.3846
52.1105
53.9786
55.7995
61.694
62.577
63.696
64.8956
64.3782
60.9001
58.1206
)
;
    }
    inletRight
    {
        type            zeroGradient;
    }
    inletWallsRight
    {
        type            zeroGradient;
    }
    inletFacesRight
    {
        type            zeroGradient;
    }
}


// ************************************************************************* //
