/*--------------------------------*- C++ -*----------------------------------*\
| =========                 |                                                 |
| \\      /  F ield         | OpenFOAM: The Open Source CFD Toolbox           |
|  \\    /   O peration     | Version:  4.1                                   |
|   \\  /    A nd           | Web:      www.OpenFOAM.org                      |
|    \\/     M anipulation  |                                                 |
\*---------------------------------------------------------------------------*/
FoamFile
{
    version     2.0;
    format      ascii;
    class       surfaceScalarField;
    location    "6";
    object      phi;
}
// * * * * * * * * * * * * * * * * * * * * * * * * * * * * * * * * * * * * * //

dimensions      [0 3 -1 0 0 0 0];

internalField   nonuniform List<scalar> 
2360
(
-2237.13
-891.859
-1345.28
-891.859
-891.86
540.464
-1432.32
540.461
540.459
540.457
1984.48
-1444.02
1984.48
1984.48
3731.97
-1747.49
3731.97
3731.96
6445.93
-2713.96
6445.92
6445.93
11174.7
-4728.73
11174.7
11174.7
11694.2
13212
14941.6
16527.8
17941.4
19228
14785.5
5664.11
15931.5
17008.5
18018.1
18964.1
19850.1
20680.9
21460.9
22194
22881.8
23523.8
24112.6
24633.5
25010.5
10310.4
14700.1
10310.4
10310.4
10310.4
-529.708
10840.1
-529.708
-529.708
-529.708
6.70115
-536.413
6.67827
6.67707
544.843
-538.17
544.849
544.846
544.851
-10295
10839.8
-10295
-10295
-10295
-24999.7
14704.7
-24622.8
-24102
-23513.4
-22871.5
-22183.7
-21450.6
-20670.7
-19839.9
-18953.9
-18008
-16998.3
-15921.2
-14775
-19221.9
5668.56
-17935
-16521.3
-14934.9
-13205.3
-11687.6
-11168.3
-11168.3
-11168.3
-6255.55
-4912.71
-6255.54
-6255.55
-3487.25
-2768.3
-3487.25
-3487.25
-1757.54
-1729.7
-1757.54
-1757.54
-310.719
-1446.82
-310.728
-310.729
-310.734
1097.69
-1408.42
1097.69
1097.69
2406.65
-1308.96
-5188.25
-1885.04
-5017.21
4480.39
-5087.48
6980.4
-5110.1
7610.27
-5035.79
7835.98
-4835.84
7507.01
-4464.62
6581.96
-3811.62
4526.8
-2861.28
1863.06
-2010.98
1778.24
-1428.99
4060.92
-978.693
5565.42
-555.31
5603.2
-93.1265
4398.11
597.637
1566.78
1008.56
-820.802
1128.12
126.052
1212.83
1404.44
1902.2
-5192.08
-2276.27
-4985.59
4273.89
-5194.1
7188.91
-5290.81
7706.99
-5195.39
7740.56
-4922.51
7234.13
-4353.96
6013.41
-3119.07
3291.91
-1517.7
261.692
-1114.99
1375.52
-1365.45
4311.39
-1203.29
5403.25
-698.637
5098.55
-3.23274
3702.7
1054.61
508.934
1665.99
-1432.18
1704.26
87.7851
1447.21
1661.49
1940.99
-5825.73
-2736.09
-5227.12
3675.28
-5291.47
7253.27
-5489.27
7904.78
-5448.16
7699.45
-5114.35
6900.32
-4203
5102.06
-1847.01
935.913
1008.54
-2593.86
1260.79
1123.27
-319.926
5892.1
-1376.65
6459.98
-1055.48
4777.38
39.9922
2607.24
1394.58
-845.658
2134.79
-2172.39
2183.69
38.8917
1714.03
2131.15
2208.2
-6865.27
-3194.6
-5861.31
2671.32
-5563.33
6955.29
-5706.59
8048.04
-5754.68
7747.54
-5366.7
6512.34
-3868.16
3603.53
-1049.88
-1882.37
1298.25
-4941.99
2352.04
69.4758
1486.59
6757.56
-512.833
8459.4
-1288.84
5553.39
-21.4428
1339.84
1752.12
-2619.22
2957.12
-3377.39
2982.81
13.1921
2121.99
2991.97
2600.49
-8226.1
-3531.85
-6949.48
1394.7
-6192.61
6198.41
-6067.08
7922.51
-6087.4
7767.86
-5575.34
6000.28
-3801.43
1829.61
-1938.73
-3745.06
-857.628
-6023.1
1247.16
-2035.31
2111.96
5892.76
851.457
9719.89
-656.525
7061.37
484.814
198.498
2695.87
-4830.28
4165.06
-4846.57
4134.5
43.7477
3225.33
3901.15
3057.52
-9793.08
-3616.41
-8503.57
105.182
-7314.76
5009.61
-6733.73
7341.48
-6480.47
7514.6
-5849.15
5368.96
-4697.69
678.159
-4329.11
-4113.65
-4030.3
-6321.9
-1368.6
-4697.02
1053.33
3470.83
1319.6
9453.63
549.637
7831.33
1637.87
-889.739
3302.31
-6494.72
4087.92
-5632.18
3865.46
266.213
3932.62
3833.99
2077.43
-11463
-3341.34
-10483
-874.773
-9027.45
3554.05
-7891.37
6205.4
-7125.52
6748.75
-6437.48
4680.92
-6196.17
436.853
-6884.71
-3425.11
-7317.5
-5889.11
-5736.43
-6278.09
-2148.44
-117.158
149.637
7155.55
575.738
7405.23
1423.97
-1737.97
890.345
-5961.09
-470.981
-4270.86
358.376
-563.143
1428.25
2764.11
9174.24
-13248.9
-2637.71
-12855.8
-1267.81
-11378.1
2076.29
-9668.77
4496.09
-8206.7
5286.69
-7358.96
3833.17
-7642.5
720.394
-8769.04
-2298.57
-9957.2
-4700.94
-10279.3
-5956.02
-7519.45
-2876.97
-3277.64
2913.74
-481.017
4608.61
-2038.6
-180.386
-5768.12
-2231.57
-7776.49
-2262.48
-8167.49
-172.144
-10321.2
4917.83
13557.7
-15084.7
-1500.68
-15406.5
-946.056
-14199.6
869.405
-12123.4
2419.88
-9964.16
3127.49
-8583.36
2452.38
-8517.81
654.848
-9566.53
-1249.85
-11569.8
-2697.68
-13961.1
-3564.71
-14077.5
-2760.61
-10968.6
-195.132
-8382.85
2022.85
-10298.9
1735.64
-13144.6
614.128
-15038.8
-368.274
-15564.3
353.353
-14545.5
3899.03
9852.06
-16685.2
-11.0432
-17640.8
9.49686
-16806.3
34.9105
-14425.7
39.3565
-11305.1
6.86314
-8808.04
-44.7047
-8135.92
-17.2727
-9545.91
160.131
-12579
335.426
-16321.5
177.755
-18514.4
-567.661
-17366.7
-1342.84
-14014.1
-1329.75
-12163.3
-115.127
-12143.5
594.266
-13187.7
675.917
-13145.9
311.584
-9332.73
85.866
-18.8421
-16704.2
1482.89
-17669.3
974.583
-16843.9
-790.491
-14477.1
-2327.5
-11396.4
-3073.8
-8963.23
-2477.88
-8298.88
-681.625
-9620.45
1481.7
-12541.1
3256.07
-16084.9
3721.52
-17840.9
1188.41
-16372
-2811.8
-13259.3
-4442.42
-11685.9
-1688.53
-11647.3
555.678
-12833
1861.61
-13017.6
496.125
-9301.19
-3630.5
-9856.45
-15103.4
2625.51
-15431.2
1302.38
-14218.9
-2002.8
-12129.1
-4417.37
-9969.82
-5233.03
-8635.28
-3812.42
-8634.79
-682.111
-9649.61
2496.52
-11407.8
5014.25
-13041.6
5355.38
-12019.4
166.172
-8844.49
-5986.72
-7680.93
-5605.97
-10769.7
1400.27
-13495
3280.99
-15171.7
3538.31
-15712.9
1037.32
-14602
-4741.44
-13618.3
-13267.1
3340.41
-12887.9
923.168
-11407.6
-3483.11
-9683.42
-6141.52
-8198.41
-6718.04
-7320.74
-4690.1
-7584
-418.846
-8645.95
3558.47
-9457.87
5826.18
-8551.83
4449.34
-5062.07
-3323.59
-1687.69
-9361.11
-732.963
-6560.7
-3817.74
4485.04
-7393.13
6856.38
-8752.58
4897.76
-8698.5
983.235
-10448.3
-2991.65
-9366.47
-11474.5
3629.43
-10506.5
-44.7887
-9044.51
-4945.13
-7895.5
-7290.53
-7114.48
-7499.06
-6366.7
-5437.88
-5969.96
-815.589
-6426.12
4014.63
-6295.88
5695.93
-3291.64
1445.11
-113.284
-6501.95
799.86
-10274.3
730.657
-6491.5
603.4
4612.3
-786.321
8246.1
-1999.9
6111.34
-317.383
-699.278
1233.22
-4542.26
-2469.14
-9803.75
3561.13
-8524.37
-1324.18
-7327.58
-6141.92
-6731.59
-7886.52
-6470.41
-7760.25
-5810.92
-6097.36
-4431.07
-2195.44
-3578.55
3162.12
-2568.12
4685.5
408.073
-1531.09
1888.5
-7982.37
1043.19
-9428.94
189.179
-5637.49
1613.13
3188.35
2970.74
6888.49
3489.32
5592.76
3351.22
-561.182
3591.63
-4782.67
-3606.24
-8240.25
3239.19
-6968.89
-2595.53
-6203.33
-6907.48
-6062.06
-8027.79
-6071.84
-7750.47
-5581.47
-6587.73
-3724.79
-4052.12
-1254.73
692.06
940.148
2490.62
2335.36
-2926.3
1684.84
-7331.85
-207.576
-7536.53
-1261.8
-4583.26
916.881
1009.66
3106.42
4698.95
4427.61
4271.57
4250.46
-384.03
3208.76
-3740.98
-3111.44
-6885.8
2792.49
-5881.08
-3600.26
-5573.57
-7214.99
-5704.65
-7896.7
-5737.58
-7717.54
-5365.37
-6959.94
-4024.74
-5392.75
-1091.99
-2240.69
1574.99
-176.37
1675.16
-3026.47
68.6645
-5725.35
-1460.05
-6007.82
-1539.88
-4503.42
462.325
-992.546
2190.63
2970.65
3391.07
3071.14
3233.94
-226.905
2187.86
-2694.89
-2671.07
-5851.75
2339.49
-5246.86
-4205.15
-5302.5
-7159.35
-5492.94
-7706.26
-5440.54
-7769.94
-5092.42
-7308.06
-4270.5
-6214.67
-2478.19
-4032.99
-605.62
-2048.94
-634.042
-2998.05
-1399.23
-4960.16
-1605.34
-5801.71
-1081.18
-5027.57
458.514
-2532.24
1697.02
1732.14
2432.46
2335.7
2362.27
-156.717
1762.31
-2094.93
-2352.78
-5219.69
1949.33
-5004.45
-4420.38
-5207.94
-6955.86
-5299.71
-7614.5
-5197.12
-7872.53
-4913.9
-7591.28
-4363.52
-6765.04
-3360.37
-5036.15
-2215.03
-3194.27
-1728.05
-3485.04
-1569.11
-5119.09
-1304.35
-6066.47
-776.549
-5555.38
386.799
-3695.59
1386.96
731.975
1921.27
1801.4
1868.24
-103.689
1514.46
-1741.16
-2270.64
-5218.42
-5040.13
-5105.63
-5123.19
-5043.36
-4836.56
-4461.08
-3841.03
-3008.53
-2236.82
-1631.74
-1141.34
-659.515
-65.6228
721.701
1262.94
1305.64
1294.46
94.7102
-614.272
383.785
-1806.81
614.19
-1960
751.051
-1723.14
853.359
-1515.84
944.387
-1377.72
999.029
-1276.2
1037.21
-1184.23
1059.79
-1099.55
1066.38
-1016.22
1057.84
-937.367
1033.3
-861.491
992.233
-789.777
933.1
-720.856
854.984
-654.998
755.703
-588.5
633.643
-519.904
483.651
-438.795
290.227
-327.509
-86.8241
145.404
-759.678
214.725
-1876.13
197.796
-1943.07
152.086
-1677.43
134.199
-1497.95
141.628
-1385.15
167.611
-1302.18
195.981
-1212.6
223.093
-1126.66
246.121
-1039.25
264.794
-956.04
277.223
-873.921
282.44
-794.996
278.277
-716.694
263.583
-640.306
235.72
-560.638
194.006
-478.192
134.901
-379.692
53.5233
-246.135
-33.3008
85.6095
-845.289
141.585
-1932.11
147.977
-1949.47
155.702
-1685.15
176.291
-1518.54
197.202
-1406.06
213.275
-1318.25
224.697
-1224.03
233.02
-1134.98
238.441
-1044.67
241.705
-959.305
242.313
-874.529
240.273
-792.956
234.343
-710.765
223.778
-629.741
206.078
-542.938
179.526
-451.64
138.315
-338.481
72.8305
-180.653
39.5296
49.867
-895.156
79.9447
-1962.19
79.2818
-1948.8
80.1157
-1685.99
85.181
-1523.61
90.1844
-1411.06
94.7067
-1322.78
98.6243
-1227.94
102.046
-1138.41
105.323
-1047.95
108.418
-962.4
111.368
-877.479
113.816
-795.405
115.113
-712.062
114.281
-628.909
109.592
-538.249
98.995
-441.044
77.5181
-317.005
44.3853
-147.52
83.9149
15.6813
-910.837
33.8429
-1980.35
43.0139
-1957.97
55.0538
-1698.03
63.7522
-1532.31
69.1199
-1416.43
72.6309
-1326.29
76.5512
-1231.87
79.9547
-1141.81
83.8079
-1051.8
87.1217
-965.714
90.2701
-880.628
92.2127
-797.348
92.8444
-712.694
90.8148
-626.88
85.8833
-533.318
75.7477
-430.909
59.5836
-300.841
34.9501
-122.888
118.865
-2.65424
-908.183
8.51408
-1991.52
33.4261
-1982.89
58.1502
-1722.75
75.2465
-1549.4
87.4783
-1428.66
97.0287
-1335.84
106.618
-1241.45
114.768
-1149.96
121.903
-1058.94
126.393
-970.204
128.057
-882.292
125.636
-794.928
119.111
-706.169
107.466
-615.235
91.4001
-517.252
69.7396
-409.248
44.9715
-276.074
17.8494
-95.7664
136.714
37.026
-945.209
61.0392
-2015.53
97.9578
-2019.8
133.84
-1758.63
165.709
-1581.27
193.37
-1456.32
217.602
-1360.07
239.85
-1263.7
258.4
-1168.51
272.167
-1072.71
278.923
-976.96
277.586
-880.954
267.109
-784.451
247.475
-686.535
218.469
-586.229
181.085
-479.868
135.568
-363.731
83.9311
-224.437
32.0535
-43.8895
168.768
166.98
-1112.19
232.991
-2081.54
264.881
-2051.69
302.609
-1796.36
353.636
-1632.3
406.472
-1509.16
458.483
-1412.08
506.636
-1311.85
547.864
-1209.74
578.05
-1102.89
593.883
-992.794
593.353
-880.424
575.533
-766.63
540.262
-651.264
487.578
-533.546
417.857
-410.146
331.922
-277.797
225.549
-118.065
105.833
75.8268
274.6
336.224
-1448.41
430.661
-2175.98
436.131
-2057.16
470.497
-1830.73
544.552
-1706.35
630.259
-1594.87
723.358
-1505.18
811.836
-1400.33
888.957
-1286.86
945.645
-1159.58
978.266
-1025.42
984.226
-886.383
962.408
-744.813
911.545
-600.401
829.972
-451.973
715.518
-295.693
570.134
-132.414
381.295
70.7742
197.632
259.489
472.233
376.557
-1824.97
389.538
-2188.96
348.165
-2015.79
367.044
-1849.61
434.643
-1773.95
519.082
-1679.31
618.437
-1604.54
710.403
-1492.3
784.501
-1360.96
829.14
-1204.22
844.288
-1040.56
826.905
-869
774.8
-692.707
684.169
-509.77
549.746
-317.549
377.626
-123.572
224.748
20.4647
122.616
172.907
15.8458
366.26
488.078
157.906
-1982.87
12.0259
-2043.08
-91.917
-1911.85
-153.448
-1788.08
-194.427
-1732.97
-225.879
-1647.85
-251.425
-1578.99
-285.331
-1458.39
-333.856
-1312.43
-397.944
-1140.13
-474.171
-964.336
-562.032
-781.139
-659.263
-595.475
-758.918
-410.115
-845.105
-231.362
-899.635
-69.0419
-915.151
35.981
-822.948
80.7035
-535.077
78.3892
-46.9989
-101.664
-1881.21
-261.615
-1883.13
-393.739
-1779.72
-539.076
-1642.74
-690.746
-1581.3
-855.188
-1483.41
-1028.14
-1406.03
-1205.08
-1281.46
-1380
-1137.51
-1548.34
-971.791
-1712.06
-800.621
-1870.15
-623.047
-2012.12
-453.507
-2112.21
-310.024
-2125.59
-217.975
-1996.51
-198.124
-1700.88
-259.65
-1215.88
-404.301
-552.437
-585.049
-599.435
-128.733
-1752.48
-187.391
-1824.47
-269.82
-1697.3
-392.287
-1520.27
-522.383
-1451.21
-683.027
-1322.77
-853.997
-1235.06
-1019.95
-1115.5
-1158.68
-998.78
-1260.09
-870.383
-1319.09
-741.623
-1330.87
-611.268
-1292.1
-492.278
-1200.6
-401.518
-1056.49
-362.083
-850.871
-403.745
-575.735
-534.786
-271.533
-708.503
-51.2865
-805.295
-650.722
28.316
-1780.79
73.5424
-1869.69
113.398
-1737.15
135.1
-1541.97
154.198
-1470.3
161.584
-1330.16
161.363
-1234.84
166.808
-1120.95
188.929
-1020.9
239.273
-920.727
323.845
-826.193
448.028
-735.451
605.74
-649.989
777.071
-572.849
925.075
-510.086
994.069
-472.739
925.512
-466.229
697.156
-480.146
354.738
-462.877
-295.984
94.6363
-1875.43
126.985
-1902.04
181.104
-1791.27
239.648
-1600.52
301.518
-1532.17
370.016
-1398.65
440.991
-1305.82
518.307
-1198.26
598.348
-1100.94
682.713
-1005.09
769.552
-913.033
857.673
-823.571
942.497
-734.813
1013.62
-643.97
1052.77
-549.235
1030.97
-450.944
922.216
-357.472
701.448
-259.378
382.113
-143.54
86.1291
117.728
-1993.16
116.54
-1900.85
164.154
-1838.88
219.015
-1655.38
280.51
-1593.67
345.396
-1463.54
416.244
-1376.66
491.258
-1273.27
570.68
-1180.36
651.899
-1086.31
733.64
-994.773
811.801
-901.732
879.247
-802.258
923.416
-688.139
926.064
-551.883
865.178
-390.056
744.076
-236.369
556.258
-71.5602
298.839
113.879
384.969
34.4782
-2027.63
-12.5738
-1853.8
-13.1973
-1838.26
4.84908
-1673.42
27.8997
-1616.72
68.0857
-1503.72
116.671
-1425.25
178.31
-1334.91
252.139
-1254.19
339.004
-1173.18
437.995
-1093.76
543.83
-1007.57
644.029
-902.458
715.442
-759.551
719.02
-555.461
606.425
-277.461
388.485
-18.4289
199.805
117.12
54.0199
259.664
438.988
-162.326
-1865.31
-354.341
-1661.79
-506.113
-1686.49
-615.623
-1563.91
-714.846
-1517.49
-781.124
-1437.45
-831.822
-1374.55
-860.137
-1306.6
-870.768
-1243.56
-862.539
-1181.4
-836.515
-1119.79
-793.17
-1050.91
-733.804
-961.824
-659.461
-833.894
-570.267
-644.655
-466.406
-381.322
-371.914
-112.92
-291.384
36.5911
-209.254
177.535
229.734
-220.667
-1644.64
-490.849
-1391.6
-776.504
-1400.83
-1023.07
-1317.35
-1261.52
-1279.05
-1469.43
-1229.53
-1656.05
-1187.94
-1816.77
-1145.87
-1954.62
-1105.71
-2069.62
-1066.4
-2161.54
-1027.86
-2224.52
-987.929
-2244.45
-941.899
-2195.72
-882.621
-2037.72
-802.657
-1721.32
-697.721
-1264.05
-570.195
-800.409
-427.045
-351.598
-271.276
-121.864
-669.641
-1086.25
-1512.08
-1854.43
-2158.47
-2413
-2625.94
-2796.81
-2927.53
-3018.93
-3071.79
-3084.72
-3051.62
-2959.24
-2786.9
-2509.62
-2104.81
-1556.86
-853.136
-669.612
1644.61
-1086.19
1391.57
-1511.99
1400.8
-1854.31
1317.32
-2158.32
1279.01
-2412.82
1229.5
-2625.73
1187.9
-2796.57
1145.84
-2927.25
1105.68
-3018.63
1066.38
-3071.48
1027.84
-3084.39
987.911
-3051.27
941.875
-2958.86
882.593
-2786.5
802.636
-2509.23
697.728
-2104.5
570.271
-1556.7
427.198
-853.107
271.402
121.893
-220.669
1865.27
-490.87
1661.77
-776.539
1686.46
-1023.13
1563.9
-1261.6
1517.48
-1469.55
1437.44
-1656.21
1374.56
-1816.98
1306.61
-1954.89
1243.59
-2069.96
1181.44
-2161.94
1119.82
-2224.95
1050.92
-2244.85
961.773
-2196.01
833.756
-2037.78
644.399
-1721.09
381.037
-1263.78
112.954
-800.162
-36.419
-351.336
-177.43
-229.443
-162.417
2027.69
-354.487
1853.84
-506.336
1838.31
-615.93
1673.49
-715.249
1616.8
-781.621
1503.81
-832.423
1425.35
-860.845
1335.03
-871.591
1254.33
-863.484
1173.33
-837.593
1093.93
-794.381
1007.7
-735.127
902.514
-660.837
759.462
-571.591
555.147
-467.568
277.006
-372.916
18.2924
-292.126
-117.219
-209.664
-259.9
-439.107
34.3884
1993.29
-12.7596
1900.98
-13.4766
1839.02
4.47912
1655.53
27.4325
1593.84
67.5313
1463.71
116.024
1376.86
177.579
1273.47
251.327
1180.58
338.123
1086.53
437.053
994.996
542.826
901.928
642.948
802.389
714.252
688.155
717.661
551.735
604.926
389.737
387.231
235.982
199.015
70.9901
53.5744
-114.467
-385.533
117.8
1875.49
116.459
1902.32
164.011
1791.47
218.811
1600.73
280.269
1532.38
345.093
1398.88
415.887
1306.06
490.841
1198.51
570.227
1101.19
651.443
1005.31
733.214
913.221
811.418
823.72
878.888
734.915
923.016
644.024
925.528
549.218
864.467
450.794
743.331
357.115
555.599
258.717
298.46
142.666
-87.073
94.9221
1780.57
127.168
1870.07
181.29
1737.34
239.89
1542.12
301.862
1470.41
370.442
1330.3
441.531
1234.97
518.919
1121.12
598.968
1021.13
683.199
921.078
769.744
826.674
857.389
736.073
941.613
650.689
1012.32
573.314
1051.22
510.321
1029.43
472.584
921.013
465.526
700.731
478.997
381.805
461.589
294.732
28.8589
1751.7
74.3022
1824.62
114.513
1697.13
136.676
1519.96
156.249
1450.83
164.219
1322.32
164.66
1234.52
170.812
1114.96
193.567
998.374
244.426
870.213
329.477
741.619
454.275
611.269
612.777
492.183
784.66
401.428
932.268
362.711
999.777
405.073
929.223
536.08
699.057
709.162
355.474
805.17
650.206
-128.362
1880.07
-186.352
1882.61
-268.255
1779.03
-390.25
1641.95
-519.905
1580.48
-680.098
1482.52
-850.527
1404.95
-1015.8
1280.23
-1153.74
1136.32
-1254.3
970.773
-1312.35
799.665
-1322.95
621.865
-1282.7
451.943
-1189.85
308.568
-1044.69
217.561
-839.007
199.387
-565.547
262.621
-264.42
408.037
-48.0397
588.792
602.166
-102.89
1982.95
-262.705
2042.42
-395.055
1911.38
-540.924
1787.81
-693.228
1732.78
-858.464
1647.75
-1032.24
1578.72
-1209.9
1457.89
-1385.34
1311.76
-1554.02
1139.45
-1717.99
963.632
-1876.38
780.247
-2018.57
594.131
-2118.1
408.096
-2129.96
229.426
-2000.35
69.7713
-1704.45
-33.2801
-1216.43
-79.9825
-551.65
-75.9901
50.5166
156.554
1826.4
10.16
2188.81
-94.1397
2015.68
-156.187
1849.86
-197.796
1774.39
-229.934
1679.88
-256.281
1605.07
-291.016
1492.62
-340.279
1361.02
-404.912
1204.08
-481.55
1040.27
-569.875
868.571
-667.789
692.047
-768.244
508.551
-855.093
316.278
-909.999
124.679
-924.237
-19.0408
-829.706
-174.511
-538.57
-367.124
-488.053
376.71
1449.68
389.186
2176.33
347.464
2057.4
366.129
1831.19
433.534
1706.99
517.819
1595.6
616.941
1505.95
708.538
1401.02
782.159
1287.4
826.311
1159.93
841.014
1025.57
823.225
886.359
770.655
744.617
679.253
599.952
544.319
451.212
374.245
294.753
224.4
130.805
121.697
-71.8067
14.7822
-260.208
-473.271
337.317
1112.37
431.886
2081.77
437.129
2052.16
471.403
1796.92
545.54
1632.85
631.431
1509.71
724.75
1412.63
813.396
1312.38
890.606
1210.2
947.307
1103.23
979.896
992.982
985.808
880.45
963.934
766.495
912.917
650.971
831.045
533.088
716.335
409.466
570.334
276.811
381.46
117.073
197.939
-76.6804
-275.331
167.809
944.563
234.048
2015.53
265.89
2020.32
303.624
1759.19
354.784
1581.69
407.819
1456.68
460.059
1360.39
508.422
1264.02
549.818
1168.8
580.106
1072.94
595.974
977.115
595.418
881.008
577.522
784.394
542.125
686.369
489.261
585.955
419.269
479.459
332.875
363.208
226.092
223.862
106.111
43.3069
-169.22
37.1674
907.401
61.1929
1991.51
98.2235
1983.29
134.225
1723.19
166.236
1549.69
194.047
1428.87
218.428
1336.01
240.809
1241.64
259.469
1150.15
273.305
1059.11
280.082
970.342
278.713
882.382
268.159
794.952
248.413
706.12
219.269
615.104
181.711
517.021
135.983
408.941
84.1511
275.703
32.1474
95.3231
-137.072
-2.94935
910.353
8.12287
1980.44
33.223
1958.19
58.1162
1698.3
75.3427
1532.46
87.6829
1416.53
97.3304
1326.37
107.008
1231.97
115.239
1141.92
122.436
1051.92
126.963
965.818
128.635
880.714
126.193
797.398
119.62
712.697
107.908
626.82
91.7505
533.182
69.9956
430.699
45.1287
300.577
17.9409
122.52
-119.131
15.3287
895.029
33.4143
1962.36
42.7317
1948.88
54.9129
1686.13
63.6998
1523.68
69.1306
1411.11
72.695
1322.81
76.6699
1228
80.1266
1138.47
84.0304
1048.02
87.3852
962.468
90.5622
877.543
92.5159
795.448
93.1439
712.074
91.0945
628.874
86.1258
538.155
75.9456
440.883
59.735
316.793
35.0279
147.236
-84.1034
49.6499
845.382
79.7098
1932.3
79.0946
1949.49
79.9892
1685.23
85.083
1518.59
90.0989
1406.09
94.6282
1318.28
98.5578
1224.07
101.991
1135.04
105.284
1044.73
108.392
959.363
111.353
874.586
113.804
793
115.097
710.784
114.252
629.721
109.546
542.863
98.934
451.497
77.4591
338.271
44.3516
180.35
-39.7518
85.5125
759.871
141.496
1876.32
147.901
1943.09
155.644
1677.49
176.223
1498.01
197.116
1385.2
213.178
1302.22
224.592
1212.66
232.908
1126.72
238.325
1039.32
241.584
956.106
242.187
873.985
240.135
795.054
234.188
716.734
223.599
640.312
205.878
560.587
179.312
478.064
138.105
379.479
72.6412
245.816
32.8893
145.389
614.484
214.741
1806.96
197.823
1960.01
152.167
1723.15
134.33
1515.85
141.804
1377.73
167.81
1276.22
196.2
1184.27
223.329
1099.59
246.381
1016.27
265.08
937.408
277.534
861.532
282.764
789.823
278.592
720.907
263.862
655.042
235.941
588.508
194.159
519.845
134.986
438.65
53.5228
327.273
86.4116
95.1869
384.422
614.775
751.537
853.706
944.578
999.095
1037.14
1059.68
1066.28
1057.79
1033.33
992.335
933.28
855.226
755.987
633.942
483.945
290.474
)
;

boundaryField
{
    outletWall
    {
        type            calculated;
        value           nonuniform List<scalar> 
60
(
2406.65
-1998.33
-1489.15
-245.617
409.882
-2257.54
-4860.29
-6026.58
-6015.71
-4642.91
-2628.53
-2813.41
-5179.79
-6953.19
-7706.96
-7910.29
-7587.66
-6910.13
-4651.43
1608.04
5497.34
5609.85
6304.75
7332.5
8562.19
9872.06
11185.5
12552.2
13960.8
15210.3
15195.6
13947.7
12545.2
11187.9
9877.65
8563.35
7323.78
6285.55
5583.31
5465.25
2237.13
-2321.46
-1729.98
-146.388
1260.16
-55.3489
-4289.48
-6037.2
-6556.87
-5724.16
-4256.75
-4026.77
-5656.2
-7140.53
-7798.08
-7952.36
-7596.94
-6890.36
-4598.67
1670.4
)
;
    }
    fineWalls
    {
        type            calculated;
        value           uniform 0;
    }
    fineFrontAndBack
    {
        type            calculated;
        value           nonuniform List<scalar> 
960
(
1.14874e-13
2.35843e-13
2.41281e-14
2.87613e-14
1.73883e-13
8.26716e-14
9.53123e-14
-9.35714e-14
6.66586e-13
3.85148e-13
6.85771e-13
9.49879e-13
-1.45415e-13
1.66291e-13
-1.23983e-12
-3.79708e-13
8.36458e-14
-2.25862e-12
-2.94143e-13
-4.93014e-13
5.02428e-14
-3.18428e-14
-4.77266e-14
-7.01645e-14
-8.6472e-14
-1.73866e-13
-1.6326e-12
-3.34776e-13
-3.91012e-13
-4.57633e-13
-5.23538e-13
-5.81495e-13
-6.23585e-13
-6.63501e-13
-7.09293e-13
-7.60342e-13
-8.12737e-13
-8.91138e-13
-8.688e-13
-1.16326e-12
-2.37876e-11
-3.12842e-12
-3.09083e-12
-3.39871e-12
-1.06351e-11
3.06075e-12
5.02184e-12
8.87559e-12
6.38602e-12
-2.19879e-11
-2.611e-11
-3.83398e-11
1.25523e-12
-7.02352e-13
-3.60752e-12
-3.28453e-12
9.7514e-13
1.02636e-12
1.40595e-12
2.02726e-11
1.25732e-12
9.77681e-13
1.03347e-12
9.92684e-13
9.74895e-13
9.37828e-13
8.86e-13
8.16747e-13
7.41395e-13
6.69587e-13
6.01809e-13
5.34573e-13
4.74202e-13
5.51825e-12
3.23027e-13
2.4177e-13
2.31639e-13
2.08596e-13
1.73951e-13
5.56781e-14
7.27834e-13
4.81838e-13
2.32735e-12
-6.52207e-14
-2.07451e-13
-1.62971e-12
-1.46263e-13
-2.89742e-13
-9.39913e-13
1.10299e-13
-1.27532e-13
-1.05451e-12
-1.01829e-13
1.7091e-13
4.11802e-13
1.22848e-12
3.81647e-13
5.47407e-13
2.1815e-12
7.78321e-13
-2.17087e-12
-1.86787e-12
-2.39517e-12
-2.83326e-12
-3.46382e-12
-4.21816e-12
-4.86451e-12
-5.12694e-12
-4.76703e-12
-3.86687e-12
-2.99797e-12
-2.26566e-12
-1.55986e-12
-9.58945e-13
-5.16478e-13
-2.99641e-13
-3.99246e-13
3.99151e-13
-1.30144e-12
2.45757e-12
1.64523e-13
-2.44135e-12
-3.08876e-12
-3.69335e-12
-4.40269e-12
-4.96338e-12
-5.08334e-12
-4.60689e-12
-3.83371e-12
-2.59132e-12
-1.75316e-12
-1.53761e-12
-1.04291e-12
-5.6726e-13
-5.33852e-13
-7.08224e-13
1.47076e-13
-1.36552e-12
9.37335e-12
4.97079e-12
-1.39559e-12
-3.25402e-12
-4.05333e-12
-4.65779e-12
-5.08574e-12
-4.61198e-12
1.0255e-12
5.1241e-12
-4.79561e-12
-3.34319e-12
-9.22261e-13
-7.74474e-13
-5.58636e-13
-1.12948e-12
-1.51231e-12
-6.43748e-13
-9.89028e-13
1.85886e-11
1.24951e-11
1.55033e-12
-2.64266e-12
-4.32256e-12
-5.12397e-12
-5.32126e-12
1.27905e-12
2.6628e-11
4.30741e-11
1.37045e-11
-2.86869e-12
-3.28943e-12
-5.63676e-13
-1.26174e-12
-4.83581e-13
-4.95584e-13
-1.2509e-12
-1.47655e-12
2.86949e-11
2.14662e-11
6.35839e-12
-6.62655e-13
-4.13673e-12
-5.77679e-12
-2.46504e-12
2.29543e-11
5.77565e-11
7.41631e-11
4.86297e-11
1.64971e-11
-2.02277e-12
-3.14269e-12
-2.24488e-13
4.86089e-12
6.178e-12
2.21838e-12
-1.00199e-12
3.75477e-11
2.94581e-11
1.17128e-11
2.38502e-12
-3.41945e-12
-5.33359e-12
8.34445e-12
4.94672e-11
7.64776e-11
7.94642e-11
6.74754e-11
4.16792e-11
1.37733e-11
1.34487e-12
1.014e-11
1.4689e-11
1.51513e-11
1.02356e-11
7.44322e-12
4.32469e-11
3.41459e-11
1.5562e-11
5.27982e-12
-1.8283e-12
-1.11713e-12
2.62178e-11
6.95504e-11
8.32135e-11
7.48715e-11
6.22793e-11
5.46747e-11
3.25173e-11
1.66933e-11
2.29517e-11
1.96885e-11
1.58573e-11
1.4712e-11
5.90388e-12
4.49775e-11
3.51111e-11
1.50625e-11
3.79327e-12
-1.95661e-12
5.53351e-12
4.19093e-11
7.79699e-11
8.09965e-11
7.0246e-11
5.68423e-11
4.93851e-11
4.26709e-11
2.86283e-11
2.40084e-11
1.7692e-11
1.58975e-11
1.80349e-11
2.27389e-11
4.22248e-11
3.68695e-11
1.69613e-11
3.21092e-12
1.58058e-12
1.92077e-11
5.37838e-11
7.21833e-11
6.88727e-11
6.50884e-11
5.63864e-11
3.96655e-11
3.06897e-11
2.64827e-11
2.5013e-11
2.46193e-11
2.21251e-11
1.86914e-11
1.21048e-11
2.74709e-11
3.63168e-11
3.41008e-11
2.53054e-11
1.87279e-11
2.20984e-11
3.54015e-11
4.84269e-11
4.59102e-11
5.02279e-11
4.91566e-11
3.79071e-11
2.34103e-11
2.08637e-11
2.07809e-11
2.41682e-11
1.31709e-11
9.01894e-12
-3.40681e-12
-3.69544e-11
-4.42705e-11
-3.82534e-11
-2.42805e-11
-1.02973e-11
-7.78059e-14
8.38388e-12
8.57772e-12
9.18176e-12
-1.12539e-11
-3.69177e-11
-5.06692e-11
-4.79476e-11
-4.04866e-11
-3.54979e-11
-3.45156e-11
-3.66829e-11
-3.49025e-11
-2.21163e-11
-4.9774e-11
-4.2503e-11
-1.98141e-11
-4.03961e-12
-3.94484e-13
-9.78221e-12
-2.33503e-11
-2.1273e-11
-1.67283e-11
-2.96627e-11
-4.99656e-11
-5.58616e-11
-4.92727e-11
-4.16964e-11
-4.0934e-11
-4.06506e-11
-3.77992e-11
-3.45658e-11
-3.09585e-11
-5.05986e-11
-3.75361e-11
-1.53445e-11
-3.65188e-12
1.7966e-12
-2.41441e-12
-2.42428e-11
-4.07117e-11
-3.88105e-11
-4.22886e-11
-5.65194e-11
-5.94941e-11
-4.46265e-11
-3.77788e-11
-4.06085e-11
-3.50906e-11
-2.87784e-11
-2.61913e-11
-2.68936e-11
-4.81623e-11
-3.54164e-11
-1.62353e-11
-6.1901e-12
8.37779e-13
1.98284e-12
-1.70419e-11
-4.70888e-11
-5.51856e-11
-5.63684e-11
-6.21738e-11
-4.95755e-11
-2.55604e-11
-2.21751e-11
-3.55136e-11
-3.62343e-11
-2.99662e-11
-2.74294e-11
-2.03188e-12
-4.30555e-11
-3.11171e-11
-1.35037e-11
-4.16356e-12
2.20976e-12
5.3758e-12
-4.03162e-12
-3.75876e-11
-6.08634e-11
-6.67717e-11
-5.34719e-11
-2.68082e-11
-4.30462e-12
-2.41518e-12
-1.68669e-11
-2.597e-11
-2.70706e-11
-1.5527e-11
-1.39018e-11
-3.5662e-11
-2.46249e-11
-9.39678e-12
-1.61191e-12
2.95539e-12
5.40867e-12
4.07124e-12
-1.5085e-11
-4.6879e-11
-5.26896e-11
-2.38713e-11
-9.70334e-13
5.86476e-12
3.30563e-12
-1.85707e-12
-9.58555e-12
-1.11523e-11
-3.05554e-12
1.7076e-12
-2.71202e-11
-1.73204e-11
-5.22318e-12
3.71768e-13
3.23067e-12
4.61364e-12
5.30962e-12
2.60425e-12
-1.28174e-11
-8.9924e-12
4.08408e-12
6.49032e-12
2.52118e-12
1.00227e-12
2.28555e-12
-9.91932e-17
-1.59639e-13
2.1854e-12
1.62682e-12
-1.87112e-11
-1.07058e-11
-2.25349e-12
1.06309e-12
2.82414e-12
4.01671e-12
4.86421e-12
5.31739e-12
5.51558e-12
6.35023e-12
4.61406e-12
2.27988e-12
1.74631e-12
1.5763e-12
1.56324e-12
2.13978e-12
2.42424e-12
1.68534e-12
2.17786e-13
-1.16225e-11
-5.82508e-12
-1.07888e-12
7.27992e-13
2.18512e-12
3.55388e-12
4.64877e-12
5.21728e-12
5.07635e-12
4.37145e-12
3.62669e-12
3.1241e-12
2.45574e-12
1.65917e-12
1.09891e-12
1.47388e-12
1.38303e-12
6.53101e-13
-1.18047e-14
-4.65062e-12
-3.3647e-12
-1.34688e-12
1.76566e-13
1.72496e-12
3.21267e-12
4.42598e-12
5.15554e-12
5.24248e-12
4.73795e-12
3.97588e-12
3.14792e-12
2.33907e-12
1.61943e-12
1.00698e-12
8.22753e-13
5.79662e-13
2.96995e-13
-2.18568e-13
-1.14874e-13
-2.35843e-13
-2.41281e-14
-2.87613e-14
-1.73883e-13
-8.26716e-14
-9.53123e-14
9.35714e-14
-6.66586e-13
-3.85148e-13
-6.85771e-13
-9.49879e-13
1.45415e-13
-1.66291e-13
1.23983e-12
3.79708e-13
-8.36458e-14
2.25862e-12
2.94143e-13
4.93014e-13
-5.02428e-14
3.18428e-14
4.77266e-14
7.01645e-14
8.6472e-14
1.73866e-13
1.6326e-12
3.34776e-13
3.91012e-13
4.57633e-13
5.23538e-13
5.81495e-13
6.23585e-13
6.63501e-13
7.09293e-13
7.60342e-13
8.12737e-13
8.91138e-13
8.688e-13
1.16326e-12
2.37876e-11
3.12842e-12
3.09083e-12
3.39871e-12
1.06351e-11
-3.06075e-12
-5.02184e-12
-8.87559e-12
-6.38602e-12
2.19879e-11
2.611e-11
3.83398e-11
-1.25523e-12
7.02352e-13
3.60752e-12
3.28453e-12
-9.7514e-13
-1.02636e-12
-1.40595e-12
-2.02726e-11
-1.25732e-12
-9.77681e-13
-1.03347e-12
-9.92684e-13
-9.74895e-13
-9.37828e-13
-8.86e-13
-8.16747e-13
-7.41395e-13
-6.69587e-13
-6.01809e-13
-5.34573e-13
-4.74202e-13
-5.51825e-12
-3.23027e-13
-2.4177e-13
-2.31639e-13
-2.08596e-13
-1.73951e-13
-5.56781e-14
-7.27834e-13
-4.81838e-13
-2.32735e-12
6.52207e-14
2.07451e-13
1.62971e-12
1.46263e-13
2.89742e-13
9.39913e-13
-1.10299e-13
1.27532e-13
1.05451e-12
1.01829e-13
-1.7091e-13
-4.11802e-13
-1.22848e-12
-3.81647e-13
-5.47407e-13
-2.1815e-12
-7.78321e-13
2.17087e-12
1.86787e-12
2.39517e-12
2.83326e-12
3.46382e-12
4.21816e-12
4.86451e-12
5.12694e-12
4.76703e-12
3.86687e-12
2.99797e-12
2.26566e-12
1.55986e-12
9.58945e-13
5.16478e-13
2.99641e-13
3.99246e-13
-3.99151e-13
1.30144e-12
-2.45757e-12
-1.64523e-13
2.44135e-12
3.08876e-12
3.69335e-12
4.40269e-12
4.96338e-12
5.08334e-12
4.60689e-12
3.83371e-12
2.59132e-12
1.75316e-12
1.53761e-12
1.04291e-12
5.6726e-13
5.33852e-13
7.08224e-13
-1.47076e-13
1.36552e-12
-9.37335e-12
-4.97079e-12
1.39559e-12
3.25402e-12
4.05333e-12
4.65779e-12
5.08574e-12
4.61198e-12
-1.0255e-12
-5.1241e-12
4.79561e-12
3.34319e-12
9.22261e-13
7.74474e-13
5.58636e-13
1.12948e-12
1.51231e-12
6.43748e-13
9.89028e-13
-1.85886e-11
-1.24951e-11
-1.55033e-12
2.64266e-12
4.32256e-12
5.12397e-12
5.32126e-12
-1.27905e-12
-2.6628e-11
-4.30741e-11
-1.37045e-11
2.86869e-12
3.28943e-12
5.63676e-13
1.26174e-12
4.83581e-13
4.95584e-13
1.2509e-12
1.47655e-12
-2.86949e-11
-2.14662e-11
-6.35839e-12
6.62655e-13
4.13673e-12
5.77679e-12
2.46504e-12
-2.29543e-11
-5.77565e-11
-7.41631e-11
-4.86297e-11
-1.64971e-11
2.02277e-12
3.14269e-12
2.24488e-13
-4.86089e-12
-6.178e-12
-2.21838e-12
1.00199e-12
-3.75477e-11
-2.94581e-11
-1.17128e-11
-2.38502e-12
3.41945e-12
5.33359e-12
-8.34445e-12
-4.94672e-11
-7.64776e-11
-7.94642e-11
-6.74754e-11
-4.16792e-11
-1.37733e-11
-1.34487e-12
-1.014e-11
-1.4689e-11