/*--------------------------------*- C++ -*----------------------------------*\
| =========                 |                                                 |
| \\      /  F ield         | OpenFOAM: The Open Source CFD Toolbox           |
|  \\    /   O peration     | Version:  4.1                                   |
|   \\  /    A nd           | Web:      www.OpenFOAM.org                      |
|    \\/     M anipulation  |                                                 |
\*---------------------------------------------------------------------------*/
FoamFile
{
    version     2.0;
    format      ascii;
    class       volVectorField;
    location    "6";
    object      U;
}
// * * * * * * * * * * * * * * * * * * * * * * * * * * * * * * * * * * * * * //

dimensions      [0 1 -1 0 0 0 0];

internalField   nonuniform List<vector> 
1280
(
(8.30162e-17 -0.736824 -1.12744)
(4.00838e-17 -0.19503 -1.09754)
(1.71281e-17 -0.47337 -0.861002)
(2.0785e-17 -0.228215 -0.923542)
(2.95531e-17 0.032585 -1.21552)
(6.04686e-17 0.0201125 -0.849208)
(6.88797e-17 0.208071 -0.829027)
(-7.46514e-17 0.272024 -0.778634)
(1.26156e-16 0.636668 -1.14198)
(2.78337e-16 0.593246 -0.906975)
(5.08451e-16 0.741897 -0.899738)
(5.82848e-17 1.21443 -1.38143)
(-1.0187e-16 1.12807 -1.11193)
(9.43863e-17 1.30672 -1.01128)
(-2.97074e-16 1.91579 -2.047)
(-2.74405e-16 1.89014 -1.91766)
(6.04486e-17 2.22316 -1.84553)
(-3.83873e-16 3.13677 -3.96087)
(-2.12569e-16 3.19625 -2.99894)
(-3.56288e-16 3.69714 -4.0473)
(2.06124e-16 3.57574 -2.39679)
(-1.30637e-16 3.955 3.88403)
(-1.95801e-16 3.59868 7.94392)
(-2.87854e-16 3.87686 9.60717)
(-3.54757e-16 4.04629 10.182)
(-7.13297e-16 4.48083 10.5957)
(-3.44159e-16 3.35737 8.35231)
(-1.37344e-15 7.59114 13.7921)
(-1.60415e-15 7.66334 13.9473)
(-1.87747e-15 7.71264 13.9268)
(-2.14785e-15 7.73201 13.8354)
(-2.38562e-15 7.72732 13.7292)
(-2.5583e-15 7.71176 13.6434)
(-2.72206e-15 7.68084 13.5888)
(-2.90992e-15 7.64416 13.5659)
(-3.11935e-15 7.57484 13.5437)
(-3.33431e-15 7.53315 13.5301)
(-3.65595e-15 7.39206 13.4084)
(-3.56431e-15 7.42118 13.3938)
(-4.77237e-15 7.11605 12.7172)
(-4.14058e-15 9.09293 14.2712)
(-2.51278e-15 4.86107 10.0375)
(-2.48259e-15 3.53633 9.72149)
(-2.72544e-15 2.67112 9.89717)
(-1.71628e-15 0.375165 7.07034)
(2.45844e-15 -0.51762 -3.9952)
(4.03361e-15 -0.163228 -2.75121)
(7.12899e-15 0.112002 -3.18013)
(3.0787e-15 1.6362 -5.10856)
(-1.76609e-14 1.6976 -6.96997)
(1.95833e-14 -1.44915 -7.07566)
(-6.67359e-15 -1.64652 -5.13423)
(1.00821e-15 -0.085728 -3.04735)
(-5.64138e-16 0.172664 -2.70286)
(-2.89761e-15 0.516842 -3.98981)
(-5.7172e-16 -0.366246 7.06234)
(7.87971e-16 -2.66659 9.90131)
(8.24383e-16 -3.53044 9.72487)
(1.12928e-15 -4.85653 10.0405)
(3.29526e-15 -9.08993 14.2725)
(5.15823e-15 -7.11276 12.7132)
(4.011e-15 -7.41798 13.3895)
(4.23986e-15 -7.3888 13.4043)
(4.07255e-15 -7.52983 13.5263)
(3.99957e-15 -7.57145 13.5402)
(3.8475e-15 -7.64071 13.5628)
(3.63487e-15 -7.67735 13.5862)
(3.35076e-15 -7.70828 13.6418)
(3.04162e-15 -7.72393 13.729)
(2.74702e-15 -7.72888 13.8369)
(2.46896e-15 -7.70973 13.9306)
(2.19312e-15 -7.66083 13.9554)
(1.94545e-15 -7.59109 13.8075)
(1.16327e-15 -3.34675 8.38044)
(1.32524e-15 -4.4753 10.6145)
(9.91876e-16 -4.04155 10.1993)
(9.50314e-16 -3.8729 9.62046)
(8.55777e-16 -3.59595 7.95037)
(7.13646e-16 -3.95332 3.87926)
(2.28423e-16 -3.57513 -2.41782)
(5.25986e-16 -3.69777 -4.09428)
(3.48212e-16 -3.18818 -3.0626)
(3.95555e-16 -3.07512 -4.05974)
(-4.71333e-17 -2.16529 -1.86868)
(-1.49919e-16 -1.82481 -1.95935)
(-4.10269e-16 -1.81031 -2.08357)
(-1.33289e-16 -1.23019 -0.999828)
(-2.23183e-16 -1.04816 -1.1054)
(-2.14927e-16 -1.10831 -1.364)
(9.42686e-17 -0.667863 -0.881921)
(-9.30699e-17 -0.52162 -0.903733)
(-1.84691e-16 -0.534085 -1.15534)
(-7.13653e-17 -0.210454 -0.785192)
(1.27789e-16 -0.13348 -0.821121)
(2.95974e-16 0.0371789 -0.833321)
(2.08791e-16 0.0736842 -1.20304)
(2.75806e-16 0.295034 -0.908213)
(3.95329e-16 0.535933 -0.845839)
(3.7931e-16 0.288103 -1.0757)
(5.62473e-16 0.790674 -1.11402)
(-2.41208e-16 0.533453 4.54252)
(-2.07542e-16 -1.48466 4.13948)
(-2.6613e-16 -2.28051 4.20212)
(-3.14807e-16 -2.52796 4.27044)
(-3.84869e-16 -2.64328 4.24957)
(-4.68684e-16 -2.58091 4.14325)
(-5.40501e-16 -2.33693 3.9154)
(-5.69661e-16 -1.75354 3.52021)
(-5.2967e-16 -0.952843 2.834)
(-4.29652e-16 -0.822794 1.95695)
(-3.33108e-16 -1.4921 1.39121)
(-2.51741e-16 -1.96936 0.984379)
(-1.73318e-16 -2.00202 0.632964)
(-1.06549e-16 -1.6394 0.286928)
(-5.73864e-17 -0.780303 -0.132424)
(-3.32935e-17 0.159148 -0.783414)
(-4.43606e-17 -0.112993 -0.952808)
(4.43501e-17 -0.492921 -0.928746)
(-1.44605e-16 -0.654531 -1.10272)
(2.73063e-16 0.704182 4.65578)
(1.82804e-17 -1.52514 4.04742)
(-2.71261e-16 -2.39221 4.21462)
(-3.43195e-16 -2.55007 4.42495)
(-4.10372e-16 -2.5868 4.40167)
(-4.89188e-16 -2.43712 4.25399)
(-5.51487e-16 -2.06972 3.94668)
(-5.64815e-16 -1.28826 3.29038)
(-5.11877e-16 -0.360454 1.91854)
(-4.25967e-16 -0.459494 0.712767)
(-2.87924e-16 -1.26441 1.11171)
(-1.94795e-16 -1.79261 1.13315)
(-1.70846e-16 -1.78535 0.810152)
(-1.15878e-16 -1.32994 0.342277)
(-6.30289e-17 -0.323346 -0.35561)
(-5.93169e-17 0.384814 -1.25567)
(-7.86916e-17 0.0114946 -1.54227)
(1.63417e-17 -0.474323 -1.31752)
(-1.51725e-16 -0.633338 -1.13911)
(1.04148e-15 0.831439 5.27996)
(5.5231e-16 -1.34536 4.43287)
(-1.55065e-16 -2.42368 4.24386)
(-3.61558e-16 -2.59574 4.54894)
(-4.5037e-16 -2.56492 4.61182)
(-5.17533e-16 -2.36038 4.46396)
(-5.65082e-16 -1.89516 4.05554)
(-5.12442e-16 -0.840398 2.90576)
(1.13944e-16 0.318808 0.229753)
(5.69345e-16 -0.578811 -1.73263)
(-5.32846e-16 -1.79769 -0.506393)
(-3.71466e-16 -1.84013 1.01323)
(-1.02473e-16 -1.589 1.19927)
(-8.60527e-17 -1.09303 0.537471)
(-6.20707e-17 0.0378906 -0.641824)
(-1.25498e-16 0.551643 -1.50954)
(-1.68034e-16 -0.0429913 -1.98857)
(-7.15276e-17 -0.634192 -1.70485)
(-1.09892e-16 -0.663597 -1.23365)
(2.0654e-15 1.0022 6.17382)
(1.38834e-15 -1.0918 5.22762)
(1.72258e-16 -2.40662 4.53147)
(-2.93629e-16 -2.67672 4.69863)
(-4.80285e-16 -2.57173 4.82678)
(-5.6933e-16 -2.24603 4.76016)
(-5.91251e-16 -1.51674 4.1746)
(1.42116e-16 0.168476 2.18122)
(2.95867e-15 1.43974 -0.306608)
(4.78601e-15 -0.0955302 -1.76023)
(1.52272e-15 -2.06951 -2.17212)
(-3.18743e-16 -2.49346 -0.422753)
(-3.65493e-16 -1.58531 1.20971)
(-6.26306e-17 -0.670888 0.887522)
(-1.40193e-16 0.524203 -0.780502)
(-5.37312e-17 0.86358 -2.03502)
(-5.50649e-17 -0.0243283 -2.7908)
(-1.38989e-16 -0.811821 -2.25255)
(-1.64062e-16 -0.828426 -1.42403)
(3.18832e-15 1.13516 7.22562)
(2.38514e-15 -0.706533 6.39719)
(7.06488e-16 -2.22928 5.21588)
(-7.36283e-17 -2.69332 5.04556)
(-4.59637e-16 -2.59572 5.08127)
(-6.41866e-16 -2.09775 5.06173)
(-2.73894e-16 -0.901034 4.2008)
(2.55048e-15 1.13573 2.09239)
(6.41739e-15 1.90932 1.20696)
(8.24034e-15 0.238987 0.302579)
(5.4033e-15 -2.125 -2.18663)
(1.83302e-15 -3.15452 -1.64184)
(-2.24752e-16 -2.11124 0.153986)
(-3.49188e-16 -0.0752407 0.81639)
(-2.49431e-17 1.35663 -1.40598)
(5.40099e-16 1.41858 -3.0129)
(6.86445e-16 -0.0128933 -3.8185)
(2.46487e-16 -1.17132 -3.15898)
(-1.11333e-16 -0.832309 -2.41237)
(4.17196e-15 1.21544 8.32871)
(3.27312e-15 -0.248533 7.87448)
(1.30142e-15 -1.90338 6.36499)
(2.65002e-16 -2.59535 5.75302)
(-3.79939e-16 -2.58608 5.48292)
(-5.92621e-16 -1.90625 5.31517)
(9.27161e-16 -0.335796 4.38607)
(5.49635e-15 1.4082 3.47523)
(8.49751e-15 2.10132 3.72368)
(8.82935e-15 1.18882 3.14944)
(7.49727e-15 -1.85547 -0.596957)
(4.63102e-15 -3.32962 -1.5663)
(1.53037e-15 -2.60833 -0.775078)
(1.4943e-16 -0.00868293 -0.263878)
(1.12667e-15 1.89971 -2.23606)
(1.63212e-15 1.97851 -3.12563)
(1.68348e-15 0.37777 -3.50828)
(1.13729e-15 -1.46523 -3.1258)
(8.27024e-16 -1.43567 -3.79886)
(4.80521e-15 1.19573 9.42574)
(3.79399e-15 0.181463 9.54808)
(1.72911e-15 -1.42465 8.00609)
(5.86647e-16 -2.29708 6.9612)
(-2.03144e-16 -2.4253 6.19743)
(-1.24125e-16 -1.67422 5.67306)
(2.91309e-15 -0.0877061 5.03236)
(7.72782e-15 1.30871 5.31636)
(9.24595e-15 2.09936 6.1278)
(8.31906e-15 1.96185 6.22503)
(6.91992e-15 -0.579578 3.4852)
(6.07497e-15 -2.9397 -0.102378)
(3.61304e-15 -2.69628 -0.444918)
(1.85482e-15 0.391856 -0.653385)
(2.55019e-15 2.35511 -1.383)
(2.18761e-15 1.84846 0.239319)
(1.76193e-15 -0.219121 0.987674)
(1.63466e-15 -0.290054 -2.11245)
(6.55987e-16 0.27046 -0.454033)
(4.9975e-15 1.0316 10.5641)
(3.90123e-15 0.401358 11.3772)
(1.67361e-15 -0.952648 10.1331)
(4.21475e-16 -1.84707 8.75671)
(-2.17401e-16 -2.08113 7.355)
(6.14834e-16 -1.4463 6.31702)
(4.65659e-15 -0.180225 5.95721)
(8.66332e-15 0.958455 6.77471)
(8.99962e-15 1.82047 7.81601)
(7.80511e-15 2.19362 8.8945)
(6.31581e-15 0.676469 8.33013)
(5.48724e-15 -1.87603 4.1285)
(4.74121e-15 -2.26189 0.986641)
(3.18092e-15 0.977274 -0.101263)
(2.6676e-15 1.55625 3.64833)
(1.96578e-15 1.00473 6.34252)
(1.76639e-15 0.0156412 6.59894)
(2.00388e-15 -2.07163 6.84054)
(2.52654e-15 -6.24302 10.1864)
(4.69165e-15 0.73153 11.7433)
(4.09661e-15 0.446525 13.2428)
(1.88459e-15 -0.428696 12.5199)
(3.56769e-16 -1.14645 11.0795)
(1.7562e-16 -1.44341 9.1144)
(2.13419e-15 -1.10004 7.49023)
(5.97598e-15 -0.278881 6.84149)
(8.02037e-15 0.592983 7.34226)
(7.65252e-15 1.30296 8.57367)
(7.23204e-15 1.73802 10.7924)
(6.26516e-15 1.24415 12.5619)
(4.40728e-15 -0.0466343 10.8537)
(3.40997e-15 -0.856221 7.14904)
(2.94252e-15 -0.434008 7.03706)
(2.77922e-15 0.00955072 10.0448)
(2.73548e-15 0.383124 12.0564)
(2.45835e-15 -0.00429174 13.074)
(2.07682e-15 -1.49734 12.641)
(1.34498e-15 -3.31135 11.5564)
(3.05232e-15 0.26789 12.7942)
(4.03521e-15 0.163375 14.8415)
(3.78898e-15 -0.169316 14.6486)
(2.81171e-15 -0.484841 13.2996)
(2.08088e-15 -0.653654 10.7271)
(2.45537e-15 -0.532809 8.11634)
(3.61685e-15 -0.15934 6.59574)
(5.38077e-15 0.238342 6.95027)
(5.10114e-15 0.482519 8.92743)
(5.58088e-15 0.605162 12.1197)
(5.46185e-15 0.518822 15.1531)
(4.2694e-15 0.121532 15.6466)
(2.60114e-15 -0.413963 13.1045)
(2.31819e-15 -0.688066 10.4077)
(2.13979e-15 -0.368319 9.79658)
(2.68536e-15 -0.142912 10.6487)
(1.46344e-15 -0.377968 11.4201)
(1.0021e-15 -1.37037 9.95312)
(-3.78535e-16 -2.89217 5.90866)
(-4.10605e-15 -0.260731 12.8065)
(-4.91895e-15 -0.170265 14.8609)
(-4.25038e-15 0.145523 14.6768)
(-2.69784e-15 0.458052 13.3343)
(-1.14414e-15 0.648116 10.778)
(-8.6451e-18 0.562441 8.21769)
(1.16408e-15 0.175147 6.75259)
(9.53081e-16 -0.338051 7.06393)
(1.0202e-15 -0.70132 8.94093)
(-1.25044e-15 -0.717911 12.0469)
(-4.10197e-15 -0.128557 14.8345)
(-5.62991e-15 0.775625 14.8361)
(-5.32751e-15 1.27345 12.2341)
(-4.49851e-15 0.723969 10.038)
(-3.94421e-15 -0.0186626 9.37985)
(-3.83506e-15 -0.318116 10.2362)
(-4.07588e-15 0.153594 11.2442)
(-3.87806e-15 1.30246 9.90567)
(-2.45737e-15 2.90215 5.90834)
(-5.53045e-15 -0.726499 11.7544)
(-4.72256e-15 -0.457788 13.2628)
(-2.20157e-15 0.400823 12.5412)
(-4.48845e-16 1.11333 11.0905)
(-4.38315e-17 1.41612 9.11317)
(-1.08691e-15 1.08894 7.50102)
(-2.59447e-15 0.276819 6.91478)
(-2.36367e-15 -0.65303 7.4598)
(-1.85871e-15 -1.4484 8.60601)
(-3.29585e-15 -1.70404 10.5051)
(-5.55174e-15 -0.583402 11.3204)
(-6.20684e-15 1.13728 8.64063)
(-5.47475e-15 1.53246 5.74898)
(-4.63293e-15 0.33791 7.34515)
(-4.54822e-15 -0.412252 10.5348)
(-4.51673e-15 -0.893852 12.1405)
(-4.19991e-15 -0.317167 13.209)
(-3.84065e-15 1.38851 12.7467)
(-3.43984e-15 3.31795 11.5495)
(-5.62207e-15 -1.02869 10.57)
(-4.17067e-15 -0.413541 11.4015)
(-1.70494e-15 0.930918 10.1624)
(-4.05765e-16 1.82647 8.77668)
(1.99622e-16 2.07064 7.35967)
(-2.68268e-16 1.44233 6.29942)
(-2.69365e-15 0.157274 5.90599)
(-4.52352e-15 -1.02415 6.72329)
(-4.31228e-15 -1.8785 7.68825)
(-4.69874e-15 -1.82933 8.19665)
(-6.27993e-15 0.432056 6.17462)
(-6.61045e-15 2.82423 2.10307)
(-4.9585e-15 2.25958 0.298225)
(-4.19764e-15 -1.4353 1.19356)
(-4.51206e-15 -1.72485 5.2565)
(-3.89896e-15 -1.35152 7.32932)
(-3.1976e-15 -0.259622 7.26188)
(-2.91015e-15 2.0597 7.04881)
(-2.98818e-15 6.26184 10.1887)
(-5.35136e-15 -1.1978 9.42382)
(-3.93515e-15 -0.201027 9.56867)
(-1.80392e-15 1.40038 8.02569)
(-6.87789e-16 2.27634 6.96981)
(9.30866e-17 2.41714 6.19583)
(2.20316e-16 1.68725 5.65842)
(-1.89355e-15 0.0962181 4.92117)
(-5.23209e-15 -1.32287 5.04101)
(-6.13173e-15 -1.99082 5.69548)
(-6.26316e-15 -1.15485 4.9131)
(-6.90819e-15 1.84042 0.805986)
(-5.50838e-15 3.44629 -0.987999)
(-2.84004e-15 2.34526 -0.520319)
(-2.4639e-15 -1.45989 -0.722243)
(-3.94596e-15 -2.84027 -0.133752)
(-4.02603e-15 -1.8702 1.79209)
(-3.32958e-15 0.230404 1.89677)
(-3.04771e-15 0.463325 -1.87148)
(-2.25765e-16 -0.170287 -0.38237)
(-4.78395e-15 -1.22223 8.32426)
(-3.45746e-15 0.226484 7.89502)
(-1.50041e-15 1.88403 6.38141)
(-4.62617e-16 2.58146 5.7573)
(2.45529e-16 2.58343 5.47498)
(5.97311e-16 1.94109 5.30884)
(-4.47958e-16 0.42697 4.32897)
(-4.1764e-15 -1.33872 3.04856)
(-6.7626e-15 -1.74769 3.01231)
(-7.41908e-15 0.176294 1.35116)
(-5.94132e-15 2.5856 -1.90348)
(-2.97869e-15 3.4194 -1.58578)
(-4.78291e-16 2.11245 -0.177356)
(-2.68354e-16 -1.29154 -0.326026)
(-1.87411e-15 -2.65058 -2.13945)
(-2.88555e-15 -2.22597 -2.60142)
(-3.00784e-15 -0.193075 -3.03715)
(-1.72523e-15 1.77601 -2.84249)
(-1.54465e-15 1.61666 -3.5382)
(-3.96244e-15 -1.14741 7.22526)
(-2.7361e-15 0.681936 6.41835)
(-1.04409e-15 2.21126 5.23012)
(-1.79102e-16 2.6836 5.04828)
(3.28376e-16 2.59371 5.07024)
(6.00964e-16 2.12768 5.04814)
(4.5236e-16 1.06406 4.23203)
(-1.67611e-15 -0.847815 1.86837)
(-5.20878e-15 -1.43909 0.407706)
(-5.8544e-15 0.864509 -1.79874)
(-2.65237e-15 2.52589 -2.22545)
(-1.07815e-16 2.88135 -0.738094)
(6.5164e-16 1.58152 1.07334)
(3.67292e-16 -1.01019 0.646308)
(-2.06342e-16 -2.0125 -1.76509)
(-1.06506e-15 -1.72713 -3.29229)
(-1.23915e-15 0.123759 -3.9963)
(-3.39505e-16 1.45146 -3.2234)
(1.89734e-16 1.01716 -2.33118)
(-3.01336e-15 -1.01906 6.18224)
(-1.92448e-15 1.06725 5.25062)
(-5.80354e-16 2.39261 4.54398)
(4.13076e-17 2.6727 4.70222)
(3.58963e-16 2.57538 4.82029)
(5.12626e-16 2.26419 4.73909)
(5.89958e-16 1.64168 4.19597)
(2.89361e-16 0.372995 2.42856)
(-1.42416e-15 -0.425935 -0.51624)
(-9.99156e-16 0.90006 -1.9299)
(4.53787e-16 2.26893 -0.96546)
(7.21147e-16 2.17111 0.800693)
(2.80131e-16 1.40769 1.58299)
(1.11364e-16 0.0732139 0.690814)
(2.5395e-16 -1.19139 -1.12352)
(-1.10215e-20 -1.16522 -2.45145)
(-1.77376e-17 0.117364 -3.11999)
(2.42823e-16 1.02333 -2.37291)
(1.80758e-16 0.9841 -1.41828)
(-2.07902e-15 -0.851741 5.29757)
(-1.18954e-15 1.32144 4.4562)
(-2.50388e-16 2.41236 4.2552)
(1.18122e-16 2.5943 4.55504)
(3.13794e-16 2.57294 4.61214)
(4.46301e-16 2.38176 4.45149)
(5.40468e-16 1.96554 4.03353)
(5.90821e-16 1.15721 3.05281)
(6.12842e-16 0.533966 1.07965)
(7.05581e-16 1.06411 0.0901517)
(5.12674e-16 1.66902 0.903388)
(2.5332e-16 1.86162 1.38584)
(1.94034e-16 1.58236 1.22942)
(1.75145e-16 0.658246 0.456475)
(1.73693e-16 -0.698632 -1.02456)
(2.37753e-16 -0.85192 -1.7742)
(2.6936e-16 0.0839792 -2.2256)
(1.8726e-16 0.799856 -1.78524)
(2.41985e-17 0.811476 -1.23724)
(-1.29139e-15 -0.726496 4.67958)
(-6.47231e-16 1.50292 4.06759)
(-1.19876e-16 2.38368 4.22714)
(8.0888e-17 2.55103 4.43471)
(2.42791e-16 2.59838 4.40698)
(3.94875e-16 2.46471 4.25177)
(5.1653e-16 2.13304 3.93539)
(5.79698e-16 1.47539 3.32095)
(5.64038e-16 0.830943 2.28671)
(4.85717e-16 1.01407 1.48874)
(4.02966e-16 1.64153 1.36297)
(3.47123e-16 1.97835 1.22416)
(2.7286e-16 1.74079 0.903549)
(1.84352e-16 1.02009 0.347234)
(1.22101e-16 -0.576978 -0.859878)
(1.63765e-16 -0.738462 -1.44859)
(1.5367e-16 -0.0123128 -1.74382)
(7.25668e-17 0.604415 -1.39927)
(-1.31163e-18 0.764669 -1.17217)
(-5.16735e-16 -0.554921 4.57016)
(-3.73856e-16 1.46628 4.16119)
(-1.49654e-16 2.27302 4.21911)
(1.96184e-17 2.53021 4.2834)
(1.91663e-16 2.6562 4.25846)
(3.56963e-16 2.60953 4.14697)
(4.91776e-16 2.39576 3.91302)
(5.72838e-16 1.90391 3.51732)
(5.82497e-16 1.33941 2.88609)
(5.26439e-16 1.36437 2.14811)
(4.41765e-16 1.84888 1.57609)
(3.49769e-16 2.14445 1.13844)
(2.59897e-16 2.00948 0.749519)
(1.79936e-16 1.45427 0.341386)
(1.11887e-16 0.0304632 -0.210963)
(9.1417e-17 -0.450719 -0.970261)
(6.44068e-17 0.0823067 -1.1589)
(3.29994e-17 0.575832 -1.01996)
(-2.42853e-17 0.763095 -1.14689)
(7.95254e-17 5.55249 9.79626)
(-1.64199e-15 16.649 27.9327)
(-1.52631e-15 18.9698 31.0623)
(-1.52937e-15 17.5699 27.9114)
(-1.61816e-15 15.6974 24.4424)
(-2.18568e-15 14.4977 21.9032)
(-2.25571e-15 13.4645 19.9416)
(-2.24047e-15 12.6964 18.4228)
(-2.25004e-15 11.9637 17.0666)
(-2.39843e-15 11.2612 15.7867)
(-2.60848e-15 10.563 14.5913)
(-2.91767e-15 9.88734 13.4718)
(-3.12607e-15 9.21968 12.4363)
(-3.37137e-15 8.56966 11.4735)
(-3.66666e-15 7.90611 10.5773)
(-4.00663e-15 7.23989 9.70631)
(-4.46645e-15 6.48896 8.82002)
(-5.04308e-15 5.65555 7.80721)
(-5.50328e-15 4.54115 6.46285)
(-9.34787e-15 2.38105 3.64777)
(4.74968e-17 6.14975 10.1796)
(-1.31406e-15 16.6449 28.008)
(-9.92213e-16 17.4096 29.5151)
(-1.13805e-15 15.1027 25.3771)
(-1.24638e-15 13.1769 22.4738)
(-2.06794e-15 12.329 20.755)
(-1.62998e-15 11.5643 19.5706)
(-1.43323e-15 10.9542 18.265)
(-1.55532e-15 10.2203 16.9967)
(-1.69994e-15 9.55522 15.6972)
(-1.76498e-15 8.85665 14.4534)
(-2.15263e-15 8.19502 13.228)
(-2.35829e-15 7.51887 12.0497)
(-2.59473e-15 6.86549 10.8882)
(-2.76441e-15 6.17077 9.75837)
(-3.05006e-15 5.49015 8.58942)
(-3.42162e-15 4.66226 7.37955)
(-4.51486e-15 3.82145 5.9278)
(-5.66654e-15 2.3611 3.93088)
(-1.3227e-14 0.221712 -0.14178)
(2.14722e-20 7.36671 12.7541)
(-5.49127e-16 17.4419 29.556)
(-3.89757e-16 17.5951 30.1234)
(-4.14379e-16 15.4726 26.0752)
(-5.12735e-16 13.7888 23.449)
(-1.14626e-15 12.9905 21.6997)
(-6.66983e-16 12.1122 20.3405)
(-5.55583e-16 11.4019 18.8996)
(-6.65648e-16 10.5637 17.5332)
(-6.94307e-16 9.82432 16.151)
(-7.64157e-16 9.04407 14.8412)
(-9.02296e-16 8.3221 13.5449)
(-8.9567e-16 7.57903 12.2984)
(-1.05669e-15 6.87514 11.0523)
(-1.14318e-15 6.12042 9.83119)
(-1.22563e-15 5.39786 8.54507)
(-1.33331e-15 4.50807 7.20869)
(-2.08025e-15 3.63161 5.60939)
(-2.61789e-15 2.08906 3.42647)
(-2.78944e-15 0.58053 0.415339)
(-8.03186e-19 7.74824 13.4062)
(1.15347e-16 17.557 29.952)
(8.23265e-17 17.343 29.9144)
(1.02955e-16 15.1968 25.8347)
(1.25776e-16 13.5561 23.3363)
(-6.06433e-16 12.7555 21.6241)
(-5.93046e-16 11.8426 20.2803)
(-5.97281e-16 11.1194 18.8215)
(-8.15869e-16 10.251 17.4477)
(-7.40482e-16 9.50778 16.0515)
(-9.62721e-16 8.71265 14.7351)
(-9.45156e-16 7.99124 13.4241)
(-9.33675e-16 7.23975 12.1622)
(-1.212e-15 6.5344 10.8817)
(-1.21528e-15 5.76 9.61314)
(-1.35858e-15 5.01962 8.23394)
(-1.55082e-15 4.06244 6.77011)
(-2.39788e-15 3.11029 4.90714)
(-3.24935e-15 1.27069 2.30035)
(-1.41335e-14 -0.177032 -1.12125)
(2.51414e-19 8.09389 14.0574)
(-2.55443e-17 17.7094 30.3887)
(-1.90343e-17 17.3251 30.0161)
(-2.39934e-17 15.2337 26.0071)
(-3.00471e-17 13.6209 23.508)
(1.37176e-16 12.7854 21.7575)
(1.46025e-16 11.8708 20.3853)
(1.43104e-16 11.1299 18.9264)
(1.64057e-16 10.2727 17.5454)
(1.74326e-16 9.52261 16.1585)
(1.90368e-16 8.73938 14.8426)
(2.27136e-16 8.01545 13.5407)
(2.24198e-16 7.27005 12.2769)
(2.69611e-16 6.55425 10.9926)
(2.89072e-16 5.77349 9.70168)
(3.11125e-16 5.00171 8.28968)
(3.57187e-16 4.02075 6.7588)
(5.24629e-16 2.99674 4.79664)
(1.54299e-15 1.16428 2.1504)
(-1.26916e-14 -0.558077 -1.64712)
(-6.77968e-20 8.09782 13.9846)
(6.43261e-18 17.7394 30.5526)
(4.7626e-18 17.4232 30.2352)
(5.42484e-18 15.3651 26.2454)
(7.38763e-18 13.7272 23.6448)
(-3.26963e-17 12.8478 21.8294)
(-3.44929e-17 11.9554 20.4276)
(-3.43044e-17 11.2052 18.9808)
(-3.61909e-17 10.3789 17.5905)
(-4.10949e-17 9.61852 16.2079)
(-4.46219e-17 8.84653 14.8745)
(-5.39754e-17 8.10128 13.5583)
(-5.49517e-17 7.34131 12.2594)
(-6.41017e-17 6.5812 10.939)
(-6.93345e-17 5.76456 9.58927)
(-7.73825e-17 4.92015 8.12256)
(-8.90221e-17 3.89326 6.50232)
(-1.25036e-16 2.7638 4.46328)
(4.19029e-17 0.870709 1.63679)
(-1.18033e-14 -0.842067 -2.01028)
(2.34691e-20 8.16516 13.9528)
(-1.75605e-18 17.9668 30.725)
(-1.29245e-18 17.84 30.7741)
(-1.32586e-18 15.8081 26.7563)
(-1.97583e-18 14.1182 24.0206)
(7.95742e-18 13.2041 22.1187)
(8.77577e-18 12.3375 20.6627)
(8.77234e-18 11.5807 19.2036)
(9.26084e-18 10.7795 17.7771)
(1.05334e-17 9.99897 16.3576)
(1.1675e-17 9.20971 14.9591)
(1.36689e-17 8.41358 13.5689)
(1.44205e-17 7.59611 12.1781)
(1.61999e-17 6.75472 10.7655)
(1.80578e-17 5.85969 9.31456)
(2.11232e-17 4.91353 7.76217)
(2.41134e-17 3.81282 6.05152)
(2.54394e-17 2.58636 3.9741)
(3.8201e-16 0.710995 1.15541)
(-9.2018e-15 -1.03003 -2.31075)
(-1.36371e-20 8.97269 15.1536)
(4.68198e-19 18.7221 31.3028)
(3.73458e-19 18.4818 31.3823)
(3.49182e-19 16.5157 27.36)
(5.77888e-19 14.8201 24.6347)
(-1.81028e-18 13.9366 22.6874)
(-2.39737e-18 13.1016 21.1774)
(-2.41095e-18 12.3587 19.6661)
(-2.56106e-18 11.5704 18.1585)
(-2.86313e-18 10.7582 16.6245)
(-3.19997e-18 9.9088 15.0713)
(-3.65295e-18 9.0176 13.5016)
(-3.96036e-18 8.08354 11.9172)
(-4.4112e-18 7.10608 10.3106)
(-4.98663e-18 6.06639 8.66789)
(-5.83221e-18 4.95844 6.93722)
(-7.21696e-18 3.70334 5.05676)
(-1.37884e-17 2.29035 2.80597)
(2.54773e-16 0.320325 -0.0274009)
(-4.79067e-15 -1.23936 -3.0496)
(6.63919e-21 11.2456 19.1653)
(-1.14672e-19 20.166 32.7959)
(-1.08781e-19 18.9519 31.8007)
(-9.45161e-20 17.2645 27.9717)
(-1.70638e-19 15.7034 25.6504)
(3.49893e-19 15.0142 23.8075)
(6.27842e-19 14.2335 22.3271)
(6.81874e-19 13.5585 20.7494)
(7.13552e-19 12.764 19.1088)
(7.74335e-19 11.8892 17.3472)
(8.57257e-19 10.9143 15.5036)
(9.693e-19 9.85702 13.6051)
(1.07467e-18 8.72605 11.6766)
(1.19631e-18 7.52601 9.72126)
(1.34674e-18 6.2385 7.73003)
(1.64453e-18 4.85162 5.65101)
(1.12737e-18 3.29447 3.44345)
(6.82299e-18 1.52155 0.744128)
(5.13316e-17 -0.922214 -2.29887)
(-1.41333e-15 -2.1131 -5.5067)
(-2.25591e-21 14.4882 25.533)
(2.65646e-20 21.3033 34.2585)
(3.00416e-20 18.4394 31.6182)
(2.53415e-20 17.5115 28.503)
(4.66495e-20 16.1212 27.015)
(-5.86884e-20 15.7891 25.4464)
(-1.46291e-19 14.996 24.1831)
(-1.79458e-19 14.3996 22.5552)
(-1.91218e-19 13.4446 20.7266)
(-2.0275e-19 12.3765 18.5974)
(-2.19677e-19 11.1203 16.3398)
(-2.44807e-19 9.77313 13.9885)
(-2.69804e-19 8.31949 11.5903)
(-2.921e-19 6.76316 9.13631)
(-3.59921e-19 5.08087 6.61186)
(-5.70584e-19 3.25514 3.98484)
(-1.1991e-18 1.31283 1.3999)
(5.67939e-18 -0.676919 -1.83535)
(-4.39569e-17 -3.06745 -4.59339)
(-1.69068e-17 -3.37706 -8.12472)
(6.08008e-22 16.6557 30.4762)
(-6.44736e-21 20.2223 32.9975)
(-7.89762e-21 16.6198 30.316)
(-6.44901e-21 16.6222 28.3112)
(-1.23297e-20 15.0865 27.4757)
(1.284e-20 14.9069 26.1383)
(3.55978e-20 13.8025 25.1151)
(4.55067e-20 12.9924 23.309)
(4.93769e-20 11.4556 21.1249)
(5.22302e-20 9.91067 18.4699)
(5.46173e-20 8.12459 15.7431)
(6.26212e-20 6.33737 12.8792)
(1.08089e-19 4.42345 9.92841)
(1.83998e-19 2.44165 6.83801)
(-2.57853e-19 0.378757 3.53522)
(-2.89604e-18 -1.67737 0.280573)
(-5.1003e-18 -2.84782 -1.64451)
(2.24055e-17 -3.68588 -3.33972)
(1.44835e-16 -5.58264 -6.40873)
(2.99655e-16 -3.67209 -6.14869)
(-1.39115e-22 16.2476 30.355)
(1.68599e-21 17.7539 29.6956)
(2.00716e-21 15.0185 28.3205)
(2.03116e-21 14.9097 26.5067)
(2.56037e-21 13.258 25.6399)
(-4.11186e-21 12.7654 24.3439)
(-1.00022e-20 11.4093 23.2287)
(-1.26153e-20 10.1657 21.2906)
(-1.35241e-20 8.30936 18.9373)
(-1.53568e-20 6.48159 16.2297)
(-2.09797e-20 4.51009 13.4761)
(-1.55021e-20 2.56063 10.6209)
(6.08899e-20 0.583569 7.76848)
(1.5201e-19 -1.23822 5.06201)
(-3.87826e-19 -2.70766 2.77011)
(-2.27424e-18 -3.69245 0.914105)
(-2.46648e-18 -4.03605 -0.40911)
(9.65754e-18 -2.95519 -0.0204372)
(3.97637e-17 -0.0432006 3.04049)
(4.29379e-17 2.36821 6.08508)
(1.86409e-23 14.6238 27.4356)
(-4.25663e-22 16.9727 28.1439)
(-5.16725e-22 13.9759 26.3199)
(-5.78897e-22 13.8284 23.9026)
(-3.93357e-22 11.9002 22.8686)
(1.4617e-21 11.3399 21.1449)
(2.9304e-21 9.80997 19.8752)
(3.579e-21 8.62363 17.979)
(3.94985e-21 6.96632 15.9038)
(3.56799e-21 5.41587 13.5162)
(3.13408e-24 3.76732 11.0105)
(-8.05651e-22 2.21144 8.41352)
(4.23912e-20 0.869617 6.06487)
(1.80085e-19 0.0282497 4.37344)
(3.04234e-19 -0.0324127 3.85063)
(8.92804e-20 1.04366 5.11865)
(-5.70285e-19 3.39122 8.36056)
(-1.41233e-18 6.42046 12.4503)
(-3.00367e-18 8.71354 14.9482)
(-5.15199e-18 6.48014 12.3378)
(-4.51026e-24 14.1805 26.7548)
(9.88407e-23 17.778 28.2555)
(1.21364e-22 14.1687 26.1671)
(1.38211e-22 14.5578 23.1469)
(1.09896e-22 12.4315 22.0513)
(-3.43036e-22 12.1947 19.8169)
(-7.30412e-22 10.7551 18.3782)
(-8.86548e-22 10.0547 16.581)
(-9.40305e-22 9.02651 15.0462)
(-8.98585e-22 8.25563 13.4575)
(-3.73349e-22 7.49146 11.9643)
(3.18781e-22 6.85916 10.5064)
(-3.21964e-21 6.34074 9.14805)
(-1.92179e-20 6.0032 8.0119)
(-5.0013e-20 5.93297 7.30901)
(-8.08771e-20 6.17131 7.34091)
(-6.35724e-20 6.75212 8.15942)
(9.59591e-20 7.13507 9.44167)
(4.54064e-19 6.99354 9.94783)
(7.61221e-19 4.72239 7.77543)
(1.19374e-24 14.7011 27.9807)
(-2.20587e-23 18.6655 29.2291)
(-2.81964e-23 14.767 27.2346)
(-3.23753e-23 15.3488 24.2499)
(-2.95037e-23 13.3631 23.1417)
(6.42401e-23 13.1445 21.0694)
(1.61197e-22 12.0114 19.5868)
(2.08911e-22 11.3541 17.8999)
(2.21435e-22 10.5878 16.3849)
(2.19178e-22 9.9195 14.9266)
(1.88905e-22 9.29784 13.5452)
(1.26109e-22 8.71535 12.2322)
(2.89117e-22 8.15896 10.9587)
(1.32065e-21 7.59178 9.69568)
(3.80623e-21 6.97834 8.43148)
(8.17022e-21 6.3149 7.22196)
(1.42489e-20 5.57742 6.19262)
(1.47408e-20 4.81247 5.32236)
(-2.29284e-20 3.52479 4.26212)
(-1.39141e-19 1.54409 1.18362)
(-3.0035e-25 15.3618 29.8898)
(4.90601e-24 19.1683 29.457)
(6.36555e-24 14.9315 28.0482)
(7.34034e-24 16.0004 25.1704)
(7.57473e-24 13.814 24.1662)
(-1.13147e-23 13.7407 22.1292)
(-3.44188e-23 12.5991 20.7439)
(-4.8027e-23 11.9974 19.1114)
(-5.24659e-23 11.2238 17.6177)
(-5.44875e-23 10.5328 16.1121)
(-6.01658e-23 9.84622 14.6454)
(-6.25059e-23 9.17095 13.1917)
(-4.28805e-23 8.47006 11.7218)
(-7.54336e-24 7.70473 10.1787)
(-2.28603e-23 6.79278 8.51878)
(-2.48817e-22 5.72013 6.69661)
(-1.00069e-21 4.40628 4.84545)
(-2.67968e-21 2.99117 2.69299)
(-3.51093e-21 0.741471 0.197742)
(-3.79218e-20 -0.73273 -3.68303)
(1.03566e-25 15.5013 31.3272)
(-1.17788e-24 19.0514 28.9186)
(-1.6345e-24 14.5944 28.4507)
(-1.80822e-24 16.0303 25.6944)
(-2.3285e-24 13.6597 24.8299)
(1.5402e-24 13.676 22.8909)
(7.07236e-24 12.4965 21.6352)
(1.09033e-23 11.9776 20.1199)
(1.2031e-23 11.2399 18.7879)
(1.16701e-23 10.6555 17.4318)
(1.39843e-23 10.0654 16.1123)
(2.18694e-23 9.48039 14.7316)
(3.13271e-23 8.78569 13.1685)
(4.24987e-23 7.85408 11.2305)
(8.46437e-23 6.49732 8.73866)
(1.84691e-22 4.65979 5.65406)
(2.61846e-22 2.68038 2.94125)
(2.03128e-22 0.867075 0.273016)
(-3.66302e-22 -2.06624 -2.64122)
(-5.37112e-21 -2.63559 -7.17589)
(-6.97465e-27 14.4386 31.0766)
(2.88688e-25 18.3271 28.0948)
(3.18321e-25 13.6783 28.0386)
(3.78116e-25 14.6071 25.7039)
(2.26532e-25 12.5434 24.7849)
(-1.07446e-24 12.1074 23.2168)
(-2.33349e-24 11.015 22.0318)
(-3.01955e-24 10.3211 20.7419)
(-3.8999e-24 9.54774 19.5723)
(-4.98102e-24 8.90642 18.4216)
(-3.9916e-24 8.27439 17.2912)
(1.24298e-24 7.61249 16.0198)
(1.59925e-23 6.74588 14.3543)
(8.76439e-23 5.46024 11.9035)
(3.61854e-22 3.41991 8.12297)
(9.43429e-22 0.429309 2.65127)
(1.38914e-21 -2.29374 -2.64969)
(8.19613e-22 -3.07737 -4.2454)
(-9.85414e-22 -4.43097 -5.82957)
(-2.54074e-21 -3.18882 -6.52524)
(8.5592e-27 11.2647 28.5474)
(-1.12896e-25 16.9825 25.1422)
(-2.09896e-25 12.0197 25.5222)
(-2.62883e-25 12.5882 23.8655)
(-1.01818e-25 10.8396 23.1511)
(3.04498e-25 10.1247 22.1034)
(6.5982e-25 9.09279 21.2246)
(7.14581e-25 8.26944 20.3148)
(1.66071e-25 7.45274 19.4483)
(-1.01101e-24 6.71466 18.5966)
(-3.21115e-24 6.01195 17.7446)
(-8.33074e-24 5.3129 16.8101)
(-9.46395e-24 4.54754 15.6463)
(4.55175e-23 3.64842 14.0691)
(2.82858e-22 2.58866 11.9246)
(8.02668e-22 1.4488 9.14699)
(1.37736e-21 0.406544 5.90142)
(1.29525e-21 -0.436604 2.71372)
(7.7012e-23 -1.12081 -0.0544926)
(-1.05263e-21 -1.02926 -1.51921)
(8.75801e-27 2.60214 17.0222)
(3.21666e-26 8.03946 13.6646)
(1.07072e-26 5.17408 14.5205)
(-5.23815e-26 4.9806 14.1351)
(-1.36327e-25 4.05551 14.0999)
(-1.70973e-25 3.48532 13.9321)
(-8.83089e-26 2.90234 13.7809)
(-4.60988e-27 2.422 13.5975)
(-4.18411e-25 2.00213 13.3981)
(-2.06931e-24 1.65884 13.1864)
(-5.00949e-24 1.39621 12.9823)
(-7.98034e-24 1.22668 12.8056)
(-1.0917e-23 1.15556 12.6613)
(-2.03995e-23 1.18867 12.5151)
(-4.88511e-23 1.32961 12.296)
(-9.71594e-23 1.53395 11.9503)
(-1.34562e-22 1.83495 11.3949)
(-1.15786e-22 2.52352 10.347)
(-4.10593e-23 2.74632 8.83724)
(1.61767e-23 -0.150341 6.70071)
(-8.55855e-27 -2.60202 17.022)
(-3.20135e-26 -8.03941 13.6643)
(-1.28792e-26 -5.17405 14.5202)
(4.98876e-26 -4.98063 14.1348)
(1.35141e-25 -4.05558 14.0996)
(1.68734e-25 -3.48544 13.9317)
(8.05942e-26 -2.9025 13.7806)
(-7.7859e-27 -2.42221 13.5971)
(4.27248e-25 -2.00239 13.3976)
(2.17594e-24 -1.65919 13.186)
(5.33401e-24 -1.39669 12.982)
(8.60763e-24 -1.2273 12.8056)
(1.17762e-23 -1.15625 12.6614)
(2.11987e-23 -1.18933 12.515)
(4.91286e-23 -1.33012 12.2956)
(9.64748e-23 -1.5343 11.9495)
(1.32898e-22 -1.83509 11.3939)
(1.13906e-22 -2.52333 10.346)
(3.98852e-23 -2.7459 8.83629)
(-1.67721e-23 0.150625 6.70002)
(-8.33946e-27 -11.2645 28.5468)
(1.07047e-25 -16.982 25.1415)
(2.11479e-25 -12.0193 25.5215)
(2.73564e-25 -12.5878 23.8649)
(1.01821e-25 -10.8391 23.1505)
(-3.23093e-25 -10.1241 22.1028)
(-6.84857e-25 -9.0922 21.2241)
(-7.13047e-25 -8.2688 20.3144)
(-9.17974e-26 -7.45204 19.448)
(1.1643e-24 -6.7139 18.5964)
(3.28653e-24 -6.01107 17.7443)
(7.93507e-24 -5.31183 16.8097)
(8.20136e-24 -4.5463 15.6456)
(-4.72364e-23 -3.6473 14.0685)
(-2.8235e-22 -2.58822 11.9246)
(-7.94136e-22 -1.44973 9.14821)
(-1.35532e-21 -0.409195 5.90506)
(-1.2599e-21 0.432442 2.72)
(-1.58873e-23 1.11657 -0.0486258)
(1.17755e-21 1.02711 -1.51474)
(5.40242e-27 -14.4386 31.0761)
(-2.7865e-25 -18.3265 28.0948)
(-3.16166e-25 -13.6782 28.0384)
(-4.27422e-25 -14.6065 25.7041)
(-2.85862e-25 -12.543 24.7851)
(1.07905e-24 -12.1067 23.2172)
(2.43543e-24 -11.0142 22.0323)
(3.15798e-24 -10.3202 20.7426)
(4.01957e-24 -9.54681 19.5733)
(5.06299e-24 -8.9054 18.4229)
(3.79515e-24 -8.2731 17.2924)
(-2.43768e-24 -7.61052 16.0203)
(-1.92093e-23 -6.74277 14.3534)
(-9.32625e-23 -5.45545 11.8999)
(-3.663e-22 -3.41274 8.11534)
(-9.30514e-22 -0.421585 2.64171)