/*--------------------------------*- C++ -*----------------------------------*\
| =========                 |                                                 |
| \\      /  F ield         | OpenFOAM: The Open Source CFD Toolbox           |
|  \\    /   O peration     | Version:  4.1                                   |
|   \\  /    A nd           | Web:      www.OpenFOAM.org                      |
|    \\/     M anipulation  |                                                 |
\*---------------------------------------------------------------------------*/
FoamFile
{
    version     2.0;
    format      ascii;
    class       volScalarField;
    location    "6";
    object      p;
}
// * * * * * * * * * * * * * * * * * * * * * * * * * * * * * * * * * * * * * //

dimensions      [0 2 -2 0 0 0 0];

internalField   nonuniform List<scalar> 
1680
(
-8.45679
-5.5664
-2.28138
-3.49161
-4.73609
-2.63855
-3.60558
-4.83732
-2.54527
-3.97187
-4.6488
-4.16686
-5.09237
-2.9229
-4.73191
-5.99023
-4.81697
-8.1719
-0.992698
-11.7778
-1.78561
-27.2349
-0.189888
-2.22619
-1.0143
0.353977
1.39089
2.36706
4.113
4.53034
7.7852
-17.9376
-1.29754
-1.47159
-0.571038
-0.188908
0.889766
0.601832
5.14841
-0.506463
-48.208
-21.6828
-18.5252
-0.480778
-6.69908
-6.61567
-3.25778
4.97158
1.44422
1.78839
2.93171
2.96615
2.99462
3.02045
2.77682
2.87932
2.94427
2.98253
2.86224
2.94779
20.1295
9.51401
1.9315
5.3041
3.02748
5.59177
3.51231
2.68718
-4.39969
-16.0678
-13.2639
-0.777522
2.21729
4.8147
-0.502398
-2.73232
-5.23987
11.1641
7.03832
19.0748
10.2143
0.752531
5.31357
2.3846
5.04251
2.49892
1.59443
-7.55042
-16.3121
-14.9246
-1.36157
1.28815
3.69311
-0.430729
-1.56875
-1.71856
10.2553
1.36902
15.967
10.7182
-0.799743
5.26294
1.70242
4.52411
1.54949
0.485892
-10.8697
-16.619
-15.8514
-1.95565
0.389116
2.64719
-0.467292
-0.78786
-0.544139
5.47411
2.90305
11.272
11.024
-2.68629
5.13993
1.00598
4.04054
0.619521
-0.693853
-14.1254
-17.2623
-16.3591
-2.55327
-0.433815
1.68817
-0.569758
-0.612904
-0.274228
0.483632
11.2852
5.58019
11.2564
-4.82037
4.9898
0.329012
3.59286
-0.324404
-1.95896
-17.0663
-18.0895
-16.4296
-3.11479
-1.18655
0.86806
-0.679775
-0.760948
-0.221189
-2.14197
12.0399
-0.858381
11.5244
-7.12394
4.86749
-0.309411
3.20275
-1.2507
-3.2795
-19.4455
-19.1325
-16.0789
-3.60963
-1.84169
0.175033
-0.791108
-0.883622
-0.392008
-2.13496
-0.0235584
-7.93436
11.8746
-9.5853
4.80566
-0.923465
2.91834
-2.05581
-4.58521
-20.9875
-20.7032
-15.5114
-4.06923
-2.39434
-0.389734
-0.907702
-1.04164
-0.449557
-2.20546
-2.64997
-15.5122
12.3106
-12.2062
4.84403
-1.50385
2.83138
-2.56292
-5.77075
-21.1828
-22.5382
-14.8499
-4.54701
-2.85759
-0.852858
-1.0284
-1.17769
-0.573797
-2.30186
-2.28602
-23.8195
12.7928
-15.1035
4.93529
-2.09824
2.9697
-2.60808
-6.80415
-19.5312
-23.8044
-13.9597
-5.03358
-3.23546
-1.24119
-1.16315
-1.31356
-0.709836
-2.23892
-2.2243
-32.5062
13.3096
-18.1636
5.12781
-2.61289
3.34839
-2.13446
-7.86924
-16.4653
-23.7731
-12.9312
-5.46826
-3.52145
-1.57927
-1.30953
-1.44977
-0.853415
-2.33828
-2.28002
-42.8167
13.8031
-21.7209
5.21597
-3.21503
3.72715
-1.37696
-9.23954
-14.0231
-22.9742
-11.9351
-5.82482
-3.73943
-1.881
-1.4655
-1.5839
-1.00702
-2.33781
-2.33228
-52.3329
14.3649
-24.9313
5.5646
-3.44164
4.18701
-0.516461
-10.833
-13.0921
-22.0222
-11.1415
-6.11438
-3.94533
-2.17088
-1.63658
-1.72435
-1.16714
-2.38734
-2.36272
-67.6326
14.8197
-29.689
5.31135
-4.13248
4.21605
0.12232
-12.1881
-12.8033
-20.5962
-10.5473
-6.33453
-4.15206
-2.45241
-1.81885
-1.86726
-1.33102
-2.44207
-2.41211
-73.9415
15.5686
-31.3976
6.36586
-3.3317
4.69144
0.845516
-12.8531
-12.8515
-18.6587
-9.96049
-6.37101
-4.26641
-2.65371
-1.95944
-1.97084
-1.46052
-2.44302
-2.43618
-108.208
15.835
-40.755
4.49323
-5.04518
3.98943
1.14731
-12.3843
-12.8997
-16.6025
-9.62022
-6.48023
-4.45687
-2.88694
-2.1304
-2.10396
-1.61702
-2.48476
-2.46863
-82.9168
17.1685
-32.3782
8.9586
-0.977269
5.28061
2.22091
-9.8697
-12.3357
-15.1808
-10.0552
-7.13483
-5.09862
-3.44341
-2.53363
-2.4273
-1.93211
-2.71166
-2.70746
-212.606
16.6888
-65.3167
-0.301919
-8.02458
2.81322
1.67211
-6.29033
-10.3888
-12.6043
-8.88556
-6.53389
-4.79485
-3.32105
-2.46086
-2.31878
-1.86714
-2.50757
-2.4989
23.6511
18.9729
-0.92715
19.4357
7.856
7.94965
5.05483
-1.98283
-7.32751
-7.90911
-5.50738
-4.16037
-3.01533
-2.08037
-1.59196
-1.55402
-1.24907
-1.7351
-1.72322
-646.312
17.4412
-157.004
-21.6904
-22.1229
-1.65273
-1.09321
-0.613509
-8.79627
-14.6461
-13.4507
-10.8561
-8.33904
-6.04654
-4.47426
-4.09669
-3.43888
-4.03445
-4.05696
1035.45
6.14706
228.534
64.8937
41.8158
20.5421
17.3272
3.66334
-11.5639
-22.7112
-22.3549
-18.5518
-14.5651
-10.7317
-7.85737
-6.99665
-5.93262
-6.63365
-6.77846
96.8014
96.1235
95.6425
94.7248
93.7691
92.7659
91.7509
90.6986
89.6535
88.6162
87.5656
86.6022
85.5104
84.3576
83.3094
82.3273
81.4604
80.5772
80.0407
78.9553
76.5597
77.0549
77.203
77.4225
77.5794
77.6653
77.7358
77.7404
77.7293
77.6667
77.5882
77.4792
77.3247
77.154
76.971
76.7851
76.5996
76.4267
76.2286
76.066
84.0045
83.7707
83.6716
83.4929
83.3694
83.1982
83.0528
82.879
82.7165
82.5353
82.3601
82.1692
81.987
81.7884
81.5973
81.3961
81.2039
81.0029
80.8076
80.5812
81.0475
81.0562
81.0756
81.0553
81.0635
81.0313
81.0174
80.9751
80.9406
80.8863
80.8344
80.7666
80.7009
80.6194
80.5434
80.4503
80.3651
80.267
80.1432
80.0551
83.0935
82.9638
82.9264
82.8236
82.7671
82.6733
82.6029
82.5111
82.43
82.3354
82.2456
82.1444
82.0477
81.9364
81.8348
81.711
81.6062
81.4697
81.3281
81.1785
83.5073
83.4204
83.401
83.3279
83.2925
83.2256
83.178
83.1123
83.0553
82.9871
82.9224
82.8484
82.7776
82.6941
82.6197
82.5219
82.4482
82.3306
82.2371
82.0863
84.7042
84.6082
84.5841
84.5086
84.4696
84.4042
84.3572
84.2963
84.2443
84.1845
84.129
84.0676
84.0099
83.9434
83.8864
83.809
83.7592
83.6597
83.6235
83.4778
85.5034
85.4294
85.4132
85.3544
85.3263
85.2769
85.2435
85.1991
85.1631
85.1215
85.0843
85.0437
85.0069
84.9648
84.9311
84.8824
84.8592
84.791
84.7991
84.6961
86.307
86.2411
86.2264
86.1746
86.1499
86.1073
86.0792
86.042
86.0128
85.9795
85.9505
85.9199
85.8928
85.8632
85.8404
85.8082
85.7958
85.7503
85.7688
85.7083
86.958
86.9001
86.8866
86.8408
86.8191
86.7813
86.7564
86.7237
86.698
86.669
86.6437
86.6176
86.5941
86.5696
86.5501
86.5247
86.5135
86.4806
86.4904
86.4558
87.5566
87.5017
87.4877
87.4444
87.4231
87.3869
87.3624
87.3307
87.305
87.2767
87.251
87.2251
87.2007
87.1761
87.1548
87.1295
87.1147
87.0843
87.0828
87.0525
88.0959
88.0437
88.0294
87.9883
87.9673
87.9323
87.9081
87.877
87.8512
87.8229
87.7965
87.7703
87.7444
87.7191
87.6955
87.6689
87.6507
87.6191
87.6111
87.5753
88.6015
88.5516
88.5372
88.4979
88.4772
88.4433
88.4193
88.3889
88.3631
88.3352
88.3085
88.2824
88.2555
88.2302
88.2048
88.178
88.1574
88.1249
88.114
88.0727
89.0783
89.031
89.0167
88.9793
88.959
88.9264
88.9031
88.8736
88.8484
88.8212
88.7947
88.7693
88.7422
88.7178
88.6914
88.6657
88.6434
88.612
88.5994
88.5561
89.5309
89.4868
89.4729
89.4378
89.4185
89.3875
89.3654
89.3373
89.313
89.2871
89.2615
89.2371
89.2105
89.1874
89.1606
89.1371
89.1133
89.0844
89.0702
89.0278
89.9501
89.9094
89.896
89.8633
89.8459
89.8168
89.7964
89.7708
89.7482
89.7245
89.701
89.6785
89.6539
89.633
89.6069
89.5869
89.5621
89.5373
89.5218
89.4826
90.345
90.3076
90.293
90.2607
90.2445
90.2161
90.1959
90.1717
90.1496
90.1271
90.1048
90.0834
90.0607
90.0414
90.0169
90.001
89.9754
89.9573
89.9414
89.9074
90.7444
90.717
90.7057
90.6733
90.6603
90.6348
90.6151
90.5925
90.5704
90.5475
90.5239
90.5001
90.475
90.4511
90.4229
90.4027
90.3686
90.3535
90.3273
90.2897
91.0184
91.0093
91.0244
91.0038
91.004
90.9966
90.9919
90.9867
90.981
90.9747
90.967
90.9575
90.9455
90.9308
90.9105
90.8895
90.851
90.8297
90.7577
90.7008
90.9838
90.9255
90.9636
90.9743
90.9918
91.0095
91.0284
91.0491
91.0718
91.0968
91.1247
91.1557
91.1905
91.2293
91.2728
91.3218
91.3745
91.4432
91.4845
91.6477
2.96119
2.85488
2.71617
2.67296
2.63672
2.55228
2.70781
2.66364
2.59276
2.46339
2.29346
2.17468
3.15666
-0.638186
-2.53607
-2.30773
0.154237
-13.4009
-12.6211
-22.9214
-14.0989
-8.61216
-7.36828
-4.92037
-3.62996
-1.84022
0.143175
-0.963497
-5.86285
7.13906
7.9218
8.93244
9.1425
8.97393
8.19493
8.41425
7.59126
-0.242567
-28.2329
-13.1215
-22.1298
-9.4366
-22.5136
-16.4938
-20.332
-15.999
-10.4223
-17.5365
-13.4084
-14.4828
-11.5547
-8.35348
-12.6679
-10.4467
-10.863
-13.8445
-13.7624
-14.1347
-14.1521
-14.2091
17.7415
15.13
17.7109
18.6391
13.6004
9.46724
10.8235
13.2263
12.6063
12.0524
13.6936
17.3495
25.2262
36.3131
38.4977
8.29675
-47.8476
-47.5281
-21.8106
17.6118
14.8066
17.5887
18.6046
13.4948
9.33902
10.5674
12.8234
12.0876
11.5789
13.4729
17.1559
24.8598
35.7073
37.4325
6.50231
-51.1337
-51.0574
-23.0258
17.3173
13.8954
17.315
18.6253
13.9105
9.86191
10.269
11.3855
11.2011
11.065
13.1369
16.7295
24.1351
34.4003
35.3102
3.51402
-55.4827
-56.6827
-25.6924
16.9594
12.5952
16.8197
18.3269
14.4296
10.8794
10.2789
10.2272
10.4352
10.5739
12.6797
16.1098
23.0504
32.461
32.3778
-0.435928
-60.6061
-62.6846
-28.3747
16.5524
11.1163
16.0507
17.754
14.72
11.7519
10.1853
9.43364
9.67415
10.1737
12.1561
15.291
21.6783
30.078
28.9638
-4.93109
-65.6637
-68.4394
-31.1624
16.0836
9.62566
15.0412
17.0446
14.6179
12.3359
9.96381
8.95734
9.00204
9.77952
11.5734
14.3767
20.2507
27.6576
25.5513
-9.40608
-70.0433
-73.1739
-34.5008
15.5512
8.24116
13.9625
16.1917
14.1376
12.608
9.66995
8.75928
8.52293
9.42073
10.9574
13.5501
19.042
25.5224
22.4582
-13.3811
-73.1652
-76.411
-36.9498
14.9657
7.00863
12.9666
15.17
13.4259
12.6105
9.33749
8.75044
8.21824
9.09183
10.3795
12.9505
18.1051
23.6693
19.724
-16.4729
-74.8907
-77.8923
-38.5445
14.3492
5.93912
12.0993
14.0205
12.6445
12.3983
9.00956
8.84967
8.02716
8.73954
9.84295
12.4965
17.2203
21.8413
17.2345
-18.4666
-75.0666
-77.6688
-38.9097
13.6882
5.06906
11.3326
12.8461
11.8683
12.0303
8.72267
8.94947
7.90788
8.29408
9.26175
12.0019
16.1773
19.8543
14.8922
-19.3839
-73.5022
-75.7875
-37.6057
12.8865
4.35669
10.5939
11.7301
11.0969
11.5691
8.49719
8.94994
7.83447
7.69304
8.54044
11.3508
14.9241
17.7363
12.6984
-19.2871
-70.3165
-72.239
-36.1557
11.936
3.8755
9.81491
10.6932
10.3145
11.058
8.32873
8.82276
7.76143
6.87039
7.57928
10.4882
13.5013
15.6177
10.6926
-18.1426
-65.5075
-67.5651
-31.9908
11.3603
3.69092
8.9197
9.73833
9.50619
10.5134
8.18502
8.59697
7.61745
5.72911
6.22728
9.31343
11.9086
13.556
8.89454
-16.4002
-61.3551
-61.979
-30.539
11.4966
3.70449
8.01347
8.87094
8.67188
9.93658
8.01696
8.29676
7.32821
4.11669
4.26877
7.64216
10.0545
11.51
7.34858
-14.2199
-57.5222
-56.8944
-26.302
12.282
3.92529
7.1634
8.08874
7.8233
9.33221
7.78197
7.91382
6.82076
1.84361
1.52335
5.33747
7.9239
9.49527
6.02391
-11.5576
-48.004
-47.8141
-20.0889
13.6891
4.37225
6.32025
7.38103
6.97312
8.71601
7.46227
7.42568
6.00915
-1.22484
-1.74404
2.79828
6.06206
7.87106
5.00992
-9.14417
-35.411
-29.0369
-0.72537
15.7519
5.03154
5.44143
6.73346
6.12542
8.10014
7.04467
6.8027
4.80282
-4.94514
-4.37477
1.04733
5.19843
6.99939
4.37786
-7.33915
-24.4899
-11.0137
5.90481
18.0021
5.99536
4.52484
6.13925
5.27949
7.48358
6.46449
5.98865
3.13237
-8.81246
-5.84472
0.363329
4.7792
6.59264
3.59762
-6.12295
-17.4031
1.59925
4.45948
19.6215
7.26601
3.65153
5.65041
4.45258
6.83895
5.62722
4.95998
0.995054
-12.37
-7.78619
0.0675598
4.10062
6.38775
1.83412
-5.07348
-13.4724
8.45779
5.9346
20.3732
8.61158
2.82523
5.36876
3.69098
6.18789
4.58735
3.81743
-1.53824
-14.964
-10.6188
-0.290014
3.14576
5.9824
-0.0668393
-4.1129
-9.84108
9.53418
7.52232
692.671
610.067
560.914
504.657
455.59
408.202
364.1
322.404
283.131
246.001
210.853
177.502
145.779
115.716
87.4859
60.342
34.553
14.1391
-9.7509
-47.0659
6.46186
-16.4141
-8.41549
-19.7255
-22.5847
-29.3903
-34.4327
-39.7822
-44.3785
-48.4362
-51.7079
-54.1325
-55.5871
-55.9688
-55.162
-52.9428
-49.62
-46.4514
-44.0353
-42.9964
-19.8317
-27.8293
-20.2688
-28.0999
-26.9647
-31.2864
-33.5694
-37.2153
-40.6116
-44.3752
-48.1719
-52.0871
-55.9721
-59.6321
-62.7337
-64.7754
-65.2252
-65.166
-65.8318
-64.6227
-31.7049
-36.3577
-34.2883
-41.0444
-40.7569
-45.6004
-47.539
-50.8916
-53.4059
-56.0045
-58.2524
-60.2506
-61.8843
-63.0034
-63.3971
-62.6641
-60.91
-58.397
-56.8361
-53.5356
-36.3728
-37.8907
-33.9953
-36.7372
-32.7084
-33.684
-31.264
-30.3369
-28.528
-26.7759
-24.8041
-22.6827
-20.4255
-18.0139
-15.4845
-12.741
-9.99459
-7.03699
-4.61943
-1.0193
-3.24524
-2.4928
1.41563
0.309976
4.41398
4.41318
7.09859
8.32864
10.123
11.6727
13.2005
14.7173
16.2575
17.8978
19.6646
21.5616
23.4511
25.4162
26.9731
28.7366
17.1144
18.6564
21.3813
20.9782
24.2103
24.417
26.9501
28.2139
30.2111
31.8084
33.3822
34.5754
35.2567
35.1489
34.1635
32.4237
30.7893
29.7929
30.1545
30.2107
42.8991
42.2625
43.7058
42.2378
44.0107
42.7587
43.5354
42.363
41.6546
39.7804
37.5033
34.3125
30.3765
25.7606
20.9795
16.5514
13.0584
11.2419
10.8011
7.46957
4.82963
-0.800568
-1.65956
-6.34091
-8.04473
-12.2215
-14.7205
-18.452
-21.2886
-24.4099
-26.9433
-29.3378
-31.3415
-33.1334
-34.5765
-35.8063
-36.9157
-37.4608
-39.0349
-43.471
-55.0397
-61.6879
-63.1413
-68.0003
-70.5056
-75.2001
-78.7251
-83.5146
-87.7812
-92.4235
-96.6828
-100.787
-104.393
-107.362
-109.335
-110.446
-110.712
-109.924
-109.549
-107.478
-85.1816
-88.2971
-88.4018
-91.152
-91.7175
-94.1879
-95.3729
-97.4601
-98.8333
-100.106
-100.671
-100.611
-99.7621
-98.135
-95.7782
-92.8653
-89.8543
-86.8334
-84.3731
-80.0634
-64.7344
-63.4267
-61.5699
-61.0512
-59.0241
-58.0355
-56.1286
-54.5425
-52.5766
-50.5364
-48.3172
-45.9725
-43.5445
-41.0765
-38.6522
-36.2849
-34.0317
-31.6901
-29.5786
-26.7352
-37.8093
-35.4886
-33.2868
-31.728
-29.576
-28.0684
-26.1102
-24.4107
-22.6174
-20.9065
-19.2557
-17.6851
-16.2218
-14.8627
-13.6314
-12.5038
-11.5239
-10.6038
-9.92206
-9.17265
-19.7385
-18.0481
-16.6612
-15.5086
-14.1908
-13.2901
-12.1324
-11.2244
-10.2644
-9.42248
-8.63465
-7.92322
-7.29218
-6.72543
-6.243
-5.80495
-5.46662
-5.13482
-4.95488
-4.70665
-9.44662
-8.51355
-8.02986
-7.50414
-6.9101
-6.57102
-6.03
-5.70491
-5.28822
-4.98419
-4.67878
-4.42428
-4.20618
-4.00918
-3.86419
-3.71162
-3.63136
-3.49591
-3.47086
-3.30548
-3.57975
-3.21075
-3.233
-3.12667
-2.93214
-2.91561
-2.70759
-2.68588
-2.53248
-2.48356
-2.38408
-2.3196
-2.25633
-2.18447
-2.145
-2.0583
-2.03717
-1.91131
-1.90471
-1.70732
-1.82146
-1.51807
-1.61127
-1.59229
-1.4392
-1.45921
-1.28274
-1.29224
-1.14483
-1.10511
-0.986215
-0.898853
-0.792047
-0.663857
-0.557292
-0.38455
-0.278805
-0.046345
0.0457976
0.33858
4.84833
4.93916
4.65437
4.43909
4.42818
4.19816
4.20228
4.01393
3.99898
3.88585
3.86528
3.82782
3.8259
3.85984
3.89148
3.99922
4.06231
4.24776
4.33186
4.56397
2.97375
3.81195
3.67304
3.6964
3.97046
4.0906
4.39784
4.442
4.59779
4.60348
4.65133
4.65493
4.66516
4.69379
4.72184
4.81854
4.87865
5.06648
5.14459
5.42273
27.3001
27.7749
27.4943
26.6525
25.6039
24.0746
22.5957
20.9325
19.4196
17.9033
16.5604
15.231
13.9872
13.0703
12.2972
11.6922
11.1978
10.8963
10.6646
10.5683
)
;

boundaryField
{
    outletWallLeft
    {
        type            fixedValue;
        value           uniform 0;
    }
    fineWallsLeft
    {
        type            zeroGradient;
    }
    fineFrontAndBackLeft
    {
        type            zeroGradient;
    }
    fineplugLeft
    {
        type            cyclicAMI;
        value           nonuniform List<scalar> 
20
(
77.084
81.7945
76.476
75.3346
74.8124
74.2835
73.6789
73.0323
72.5454
71.799
71.6095
74.4592
68.1488
67.1918
66.5333
65.8241
65.3462
64.5821
65.0623
63.063
)
;
    }
    symmetryWallLeft
    {
        type            cyclicAMI;
        value           nonuniform List<scalar> 
20
(
2.95449
7.28032
10.3491
-7.54048
-3.42261
-0.284618
5.39855
2.68153
-0.533768
-11.9413
-15.5159
-2.96896
3.25231
4.04983
5.88983
3.35923
5.33643
2.37837
9.0628
20.2513
)
;
    }
    inletOutletLeft
    {
        type            cyclicAMI;
        value           nonuniform List<scalar> 
20
(
63.063
65.0623
64.5821
65.3462
65.8241
66.5333
67.1918
68.1488
74.4592
71.6095
71.799
72.5454
73.0323
73.6789
74.2835
74.8124
75.3346
76.476
81.7945
77.084
)
;
    }
    inletLeft
    {
        type            zeroGradient;
    }
    inletWallsLeft
    {
        type            zeroGradient;
    }
    inletFacesLeft
    {
        type            zeroGradient;
    }
    fineWallsRight
    {
        type            zeroGradient;
    }
    outletWallRight
    {
        type            zeroGradient;
    }
    fineplugRight
    {
        type            cyclicAMI;
        value           nonuniform List<scalar> 
20
(
5.63484
6.80922
7.24342
7.97418
8.62778
9.46971
10.4849
10.997
12.7808
14.6761
15.907
17.3222
18.5745
19.8714
20.8986
22.166
22.8403
21.9469
21.2692
19.2157
)
;
    }
    fineFrontAndBackRight
    {
        type            zeroGradient;
    }
    symmetryWallRight
    {
        type            cyclicAMI;
        value           nonuniform List<scalar> 
20
(
2.95449
7.28032
10.3491
-7.54048
-3.42261
-0.284618
5.39855
2.68153
-0.533768
-11.9413
-15.5159
-2.96896
3.25231
4.04983
5.88983
3.35923
5.33643
2.37837
9.0628
20.2513
)
;
    }
    inletOutletRight
    {
        type            cyclicAMI;
        value           nonuniform List<scalar> 
20
(
5.63484
6.80922
7.24342
7.97418
8.62778
9.46971
10.4849
10.997
12.7808
14.6761
15.907
17.3222
18.5745
19.8714
20.8986
22.166
22.8403
21.9469
21.2692
19.2157
)
;
    }
    inletRight
    {
        type            zeroGradient;
    }
    inletWallsRight
    {
        type            zeroGradient;
    }
    inletFacesRight
    {
        type            zeroGradient;
    }
}


// ************************************************************************* //
