/*--------------------------------*- C++ -*----------------------------------*\
| =========                 |                                                 |
| \\      /  F ield         | OpenFOAM: The Open Source CFD Toolbox           |
|  \\    /   O peration     | Version:  4.1                                   |
|   \\  /    A nd           | Web:      www.OpenFOAM.org                      |
|    \\/     M anipulation  |                                                 |
\*---------------------------------------------------------------------------*/
FoamFile
{
    version     2.0;
    format      ascii;
    class       surfaceScalarField;
    location    "6";
    object      phi;
}
// * * * * * * * * * * * * * * * * * * * * * * * * * * * * * * * * * * * * * //

dimensions      [0 3 -1 0 0 0 0];

internalField   nonuniform List<scalar> 
3120
(
5456.31
-51.9526
5456.31
5434.95
21.3552
5434.95
5514.27
-79.3219
5600.11
-85.8381
5600.11
5748.9
-148.794
5909.34
-160.436
5909.34
6137.23
-227.893
6137.23
6428.07
-290.842
6769.32
-341.257
6769.32
7205.34
-436.02
7205.34
7873.12
-667.782
8125.09
-251.972
8125.09
8753.77
10920.4
-1174.74
11890.6
12847.9
13811
14780.4
15756.3
16737.5
17724
18714.9
19712
17803.6
2904.53
18821.2
19846.8
20877.9
21913.2
22955.4
24037.2
25148.9
25895.3
19270.6
6624.68
19270.6
19270.6
11839.1
7431.45
11839.1
11839.1
11839.1
4730.5
7108.65
4730.49
4730.49
-67.0497
4797.48
-67.2578
-67.4563
-67.5427
-624.021
556.466
-624.05
-624.078
-624.108
-464.21
-159.924
-3912.12
7543.32
-4827.2
4581.44
-5103.39
8148.86
-4871.74
8776.99
-4378.2
10393.5
-3662.46
10657.8
-3336.59
10848
-4031.18
11005.6
-4981.84
13005.6
-3896.03
8186.96
-1946.22
-5211.28
-1063.72
-11632.9
-583.221
-10164.4
149.807
-6024.23
-889.271
-2943.2
-4474.44
-7521.64
-7044.65
-12486.1
-4967.79
-11366.4
-7266.58
-3912.25
11221.7
-4937.62
5606.81
-5414.93
8626.17
-5123.32
8485.38
-4443.51
9713.67
-3542.37
9756.68
-3183.91
10489.5
-3891.56
11713.2
-4698.29
13812.3
-3411.41
6900.09
-1567.36
-7055.34
-819.273
-12381
-449.439
-10534.2
135.754
-6609.42
200.163
-3007.62
-2480.55
-4840.93
-6545.08
-8421.54
-6678.11
-11233.4
-13388.2
-3529.23
14594.5
-4614.61
6692.19
-5185.19
9196.75
-4782.54
8082.73
-4001.53
8932.66
-3105.35
8860.5
-2889.33
10273.5
-3679.69
12503.6
-4360.26
14492.9
-2937.9
5477.72
-1236.67
-8756.56
-596.592
-13021
-324.336
-10806.5
-116.133
-6817.62
-79.167
-3044.58
-1683.39
-3236.7
-5291.88
-4813.05
-7262.04
-9263.26
-15852.8
-2982.78
17482.4
-4054.18
7763.6
-4683.54
9826.11
-4181.07
7580.26
-3384.42
8136.01
-2613.49
8089.57
-2611.34
10271.4
-3478.29
13370.5
-3995.56
15010.1
-2421.95
3904.11
-898.517
-10280
-409.888
-13509.7
-249.5
-10966.8
-243.596
-6823.53
-297.001
-2991.18
-1150.79
-2382.91
-3703.93
-2259.91
-6651.35
-6315.84
-15395.5
-2413.59
19853.1
-3408.94
8758.95
-4127.46
10544.6
-3597.96
7050.76
-2870.19
7408.24
-2282.31
7501.69
-2469.74
10458.8
-3332.53
14233.3
-3604.05
15281.6
-1858.81
2158.87
-519.155
-11619.6
-244.714
-13784.1
-241.349
-10970.2
-411.788
-6653.09
-378.543
-3024.42
-390.153
-2371.3
-1403.93
-1246.13
-4439.78
-3280
-12403.8
-1902.63
21759.8
-2772.6
9628.92
-3633.53
11405.6
-3203.35
6620.57
-2642.51
6847.4
-2246.08
7105.27
-2513.24
10726
-3243.21
14963.3
-3175.67
15214.1
-1334.67
317.861
-162.494
-12791.8
-95.011
-13851.6
-298.143
-10767.1
-560.928
-6390.3
-496.759
-3088.59
-306.424
-2561.64
190.354
-1742.91
-1364.76
-1724.89
-7143.91
-1489.79
23298.4
-2200.5
10339.6
-3238.09
12443.1
-3056.46
6438.94
-2769.44
6560.38
-2542.25
6878.07
-2750.51
10934.2
-3220.7
15433.5
-2689.49
14682.9
-892.748
-1478.88
101.565
-13786.1
16.6564
-13766.7
-399.979
-10350.4
-670.473
-6119.81
-536.469
-3222.59
-334.242
-2763.86
-3.14033
-2074.01
644.949
-2372.98
-3594.42
-1186.95
24577.5
-1724.87
10877.5
-2920.82
13639.1
-3083.72
6601.84
-3150.92
6627.58
-3103.1
6830.25
-3194.55
11025.7
-3315.76
15554.7
-2157.18
13524.3
-422.816
-3213.24
293.566
-14502.5
57.8555
-13531
-516.091
-9776.5
-736.506
-5899.4
-546.282
-3412.82
-317.688
-2992.46
-11.8216
-2379.88
741.902
-3126.7
-4027.26
-988.66
25702.3
-1362.34
11251.2
-2640.02
14916.8
-3119.39
7081.21
-3545.88
7054.08
-3747.69
7032.06
-3790
11068
-3521.83
15286.5
-1622.74
11625.2
143.497
-4979.48
442.773
-14801.8
14.6038
-13102.8
-619.866
-9142.03
-757.215
-5762.05
-540.357
-3629.68
-302.426
-3230.39
21.1143
-2703.41
304.461
-3410.05
-3974.76
-876.223
26757.8
-1114.96
11490
-2376.12
16177.9
-3034.82
7739.91
-3713.46
7732.72
-4205.44
7524.04
-4310.37
11172.9
-3690.14
14666.3
-1253.3
9188.39
546.928
-6779.71
527.588
-14782.5
-97.5345
-12477.7
-691.354
-8548.21
-741.698
-5711.7
-522.077
-3849.3
-285.765
-3466.7
7.58658
-2996.77
395.224
-3797.69
-4247.32
-839.209
27824.5
-979.425
11630.2
-2147.27
17345.8
-2824.14
8416.78
-3560.56
8469.14
-4257.43
8220.91
-4471.88
11387.4
-3620.76
13815.2
-962.086
6529.72
763.098
-8504.9
530.657
-14550
-238.127
-11708.9
-717.657
-8068.68
-703.775
-5725.59
-495.991
-4057.08
-263.358
-3699.33
13.2698
-3273.39
252.607
-4037.02
-4430.73
-853.142
28945.2
-934.693
11711.7
-1976.9
18388
-2558.55
8998.44
-3151.01
9061.6
-3865.03
8934.94
-4154.89
11677.2
-3231.1
12891.4
-550.802
3849.42
966.574
-10022.3
485.784
-14069.2
-356.473
-10866.6
-699.898
-7725.26
-654.6
-5770.89
-462.941
-4248.74
-238.138
-3924.14
12.4247
-3523.96
219.092
-4243.69
-4552.9
-950.778
30227.4
-984.374
11745.3
-1888.68
19292.3
-2328.91
9438.66
-2647.09
9379.78
-3183.1
9470.95
-3456.25
11950.4
-2585.4
12020.5
-57.2764
1321.3
1113.66
-11193.2
400.978
-13356.5
-425.036
-10040.6
-651.858
-7498.43
-600.146
-5822.6
-423.401
-4425.49
-211.029
-4136.51
13.0348
-3748.02
193.334
-4423.98
-4650.4
-1044.52
31618.3
-1067.95
11768.8
-1856.36
20080.7
-2147.07
9729.37
-2143.1
9375.81
-2379.21
9707.06
-2541.39
12112.6
-1757.83
11236.9
429.852
-866.387
1083.71
-11847.1
248.096
-12520.9
-450.26
-9342.28
-590.734
-7357.96
-542.191
-5871.14
-378.557
-4589.12
-183.433
-4331.64
12.0885
-3943.54
134.866
-4546.76
-4743.43
-1333.08
33431.2
-1286.45
11722.1
-1911.71
20706
-2074.94
9892.6
-1771.16
9072.03
-1667.41
9603.31
-1608.69
12053.8
-799.348
10427.6
866.102
-2531.84
920.332
-11901.3
54.528
-11655.1
-443.624
-8844.13
-527.127
-7274.46
-481.579
-5916.69
-330.361
-4740.34
-156.426
-4505.57
10.0718
-4110.03
109.102
-4645.79
-4794.75
-1367.44
35148
-1381.07
11735.8
-1951.54
21276.4
-2012.13
9953.19
-1490.97
8550.86
-1117.17
9229.52
-835.328
11772
-2.81332
9595.08
1160.5
-3695.15
748.147
-11488.9
-91.6752
-10815.3
-405.144
-8530.66
-460.432
-7219.17
-416.955
-5960.17
-279.481
-4877.81
-130.871
-4654.18
8.35741
-4249.27
95.5725
-4733.01
-4847.98
-2002.45
37980.9
-1889.97
11623.3
-2045.23
21431.7
-2271.61
10179.6
-1762.96
8042.22
-1238.18
8704.73
-628.939
11162.7
416.486
8549.66
1316.73
-4595.39
632.03
-10804.2
-141.304
-10042
-344.067
-8327.89
-387.592
-7175.65
-346.391
-6001.37
-226.511
-4997.69
-105.738
-4774.95
6.21758
-4361.22
61.2483
-4788.03
-4872.57
-2183.88
40076.5
-1859.83
11299.2
-2576.89
22148.8
-2951.53
10554.2
-2695.77
7786.45
-2044.07
8053.03
-1060.64
10179.3
516.336
6972.69
1370.91
-5449.97
519.32
-9952.65
-140.239
-9382.41
-288.891
-8179.24
-321.792
-7142.74
-281.784
-6041.38
-179.439
-5100.04
-83.3525
-4871.04
5.16153
-4449.73
46.6596
-4829.53
-4905.23
4.23993
42337.3
-1903.74
13207.2
-140.731
20385.7
-1909.94
12323.4
-2665.42
8541.93
-3052.46
8440.07
-1885.44
9012.3
160.334
4926.91
1037.05
-6326.68
281.953
-9197.55
-139.64
-8960.82
-235.82
-8083.06
-257.801
-7120.76
-221.867
-6077.31
-133.185
-5188.72
-66.6926
-4937.53
9.40433
-4525.83
16.2712
-4836.4
-4867.6
-20879.2
-8733.89
-13200.2
-10506.3
-9524.37
-6048.39
-2522.23
-11.9577
281.122
18.3014
-71.2656
-98.0894
-107.115
-91.9753
-46.7069
-31.3774
11.9372
28.2806
4.60289
-633.285
70.8969
-1058.23
124.576
-1023.82
167.208
-999.949
203.416
-999.324
233.045
-999.048
257.088
-999.887
275.939
-1000.09
290.534
-1001.03
301.578
-1001.99
307.46
-1003.02
311.717
-1000.35
297.237
-1003.18
277.744
-1006.06
254.607
-1007.96
228.171
-1008.86
202.215
-1016.25
186.123
-1065.71
151.412
-1076.97
-594.956
33.0728
-666.358
43.4481
-1068.61
40.5928
-1020.96
43.0253
-1002.38
47.5276
-1003.83
51.9077
-1003.43
56.2213
-1004.2
60.208
-1004.08
63.9473
-1004.77
66.952
-1005
69.6911
-1005.75
76.667
-1007.32
80.9058
-1007.42
82.8641
-1008.02
83.2159
-1008.32
82.2218
-1007.87
83.2439
-1017.28
86.2267
-1068.7
64.7458
-1055.49
-530.21
15.691
-682.049
17.7218
-1070.64
19.1584
-1022.4
22.2581
-1005.48
25.373
-1006.94
28.4244
-1006.48
31.3989
-1007.18
34.3161
-1007
37.0384
-1007.5
39.6628
-1007.62
41.9274
-1008.02
42.7408
-1008.14
43.9825
-1008.66
45.2422
-1009.28
46.0964
-1009.17
46.9129
-1008.68
48.8651
-1019.23
52.9612
-1072.79
40.2418
-1042.77
-489.968
13.1452
-695.194
12.9989
-1070.49
11.0646
-1020.47
10.4099
-1004.83
10.0166
-1006.55
9.84701
-1006.31
9.80264
-1007.13
9.95015
-1007.14
10.218
-1007.76
10.5978
-1008
11.0985
-1008.52
11.9519
-1008.99
12.7011
-1009.41
13.4394
-1010.02
14.145
-1009.88
14.9914
-1009.53
16.4705
-1020.71
18.6936
-1075.01
12.0128
-1036.09
-477.955
11.1353
-706.33
8.47794
-1067.83
5.2214
-1017.21
2.79983
-1002.41
0.429869
-1004.18
-1.7459
-1004.14
-3.86318
-1005.01
-5.81255
-1005.2
-7.67841
-1005.9
-9.40513
-1006.27
-11.0308
-1006.89
-12.6122
-1007.41
-14.0292
-1007.99
-15.3284
-1008.72
-16.4457
-1008.76
-17.4113
-1008.57
-19.2935
-1018.82
-22.0026
-1072.31
-19.6424
-1038.45
-497.598
10.0411
-716.371
6.49614
-1064.29
2.57386
-1013.29
-0.84516
-998.987
-4.35267
-1000.67
-7.7371
-1000.75
-11.1541
-1001.6
-14.506
-1001.84
-17.8588
-1002.55
-21.1772
-1002.95
-24.4749
-1003.6
-27.7473
-1004.14
-30.9939
-1004.75
-34.2534
-1005.46
-37.3194
-1005.69
-40.3443
-1005.54
-46.3977
-1012.77
-56.7792
-1061.92
-46.0179
-1049.21
-543.615
10.5659
-726.937
6.61158
-1060.33
2.4946
-1009.17
-1.17717
-995.315
-4.9907
-996.857
-8.76687
-996.975
-12.63
-997.734
-16.5091
-997.965
-20.456
-998.598
-24.4452
-998.965
-28.4926
-999.55
-32.6125
-1000.02
-36.7806
-1000.58
-41.0514
-1001.19
-45.193
-1001.55
-49.2373
-1001.5
-57.0731
-1004.94
-73.6333
-1045.36
-61.5651
-1061.28
-605.181
12.6172
-739.554
8.73572
-1056.45
4.68374
-1005.12
1.37927
-992.011
-2.08365
-993.394
-5.55263
-993.506
-9.12991
-994.157
-12.7567
-994.338
-16.4789
-994.876
-20.2745
-995.17
-24.1608
-995.663
-28.1447
-996.033
-32.2153
-996.507
-36.4275
-996.977
-40.6136
-997.366
-44.6317
-997.478
-51.2233
-998.344
-69.1408
-1027.45
-63.9219
-1066.5
-669.103
15.3635
-754.918
11.4722
-1052.56
7.51633
-1001.16
4.75493
-989.249
1.86631
-990.506
-1.03889
-990.601
-4.03501
-991.16
-7.06938
-991.304
-10.1847
-991.761
-13.3568
-991.998
-16.6048
-992.415
-19.9296
-992.708
-23.3236
-993.113
-26.8287
-993.472
-30.3573
-993.838
-33.7627
-994.073
-38.1302
-993.976
-52.6353
-1012.94
-55.6102
-1063.52
-724.713
17.7506
-772.668
13.6231
-1048.43
9.80268
-997.341
7.54059
-986.987
5.1825
-988.148
2.80894
-988.227
0.369551
-988.721
-2.08536
-988.849
-4.59616
-989.25
-7.13542
-989.458
-9.72259
-989.828
-12.3518
-990.079
-15.0189
-990.446
-17.7491
-990.742
-20.4961
-991.091
-23.2054
-991.364
-26.039
-991.143
-35.5443
-1003.44
-42.9388
-1056.13
-767.652
19.2755
-791.944
14.6845
-1043.84
11.0645
-993.721
9.16552
-985.088
7.18143
-986.164
5.18656
-986.232
3.14514
-986.68
1.10514
-986.809
-0.971582
-987.173
-3.05575
-987.374
-5.16705
-987.717
-7.29565
-987.951
-9.43847
-988.303
-11.6133
-988.567
-13.7835
-988.921
-15.9513
-989.196
-18.0434
-989.051
-23.9089
-997.571
-31.9211
-1048.12
-799.573
19.9715
-811.916
14.8091
-1038.68
11.4538
-990.366
9.79546
-983.43
8.04724
-984.415
6.29375
-984.479
4.50366
-984.89
2.72245
-985.028
0.913618
-985.365
-0.892551
-985.568
-2.71713
-985.893
-4.54726
-986.121
-6.38161
-986.469
-8.23593
-986.713
-10.0729
-987.084
-11.9212
-987.348
-13.6624
-987.309
-17.6928
-993.54
-25.0048
-1040.81
-824.578
20.1427
-832.058
14.3811
-1032.92
11.3204
-987.305
9.81658
-981.926
8.21481
-982.814
6.61239
-982.876
4.97785
-983.255
3.35433
-983.404
1.70583
-983.716
0.0634856
-983.926
-1.59617
-984.233
-3.25655
-984.46
-4.92132
-984.804
-6.6018
-985.033
-8.26257
-985.423
-9.94889
-985.662
-11.5141
-985.744
-14.7122
-990.342
-21.5961
-1033.92
-846.174
20.0774
-852.136
13.715
-1026.56
10.9516
-984.542
9.55359
-980.528
8.05236
-981.312
6.55416
-981.378
5.02519
-981.726
3.50754
-981.887
1.96519
-982.174
0.42936
-982.39
-1.12527
-982.678
-2.67831
-982.907
-4.24094
-983.242
-5.8152
-983.458
-7.37515
-983.863
-8.96853
-984.068
-10.4386
-984.274
-13.2074
-987.573
-20.1764
-1026.95
-866.35
19.9548
-872.09
12.9823
-1019.58
10.5092
-982.069
9.19197
-979.211
7.77101
-979.892
6.35628
-979.964
4.9099
-980.28
3.47464
-980.451
2.01488
-980.714
0.560235
-980.935
-0.913867
-981.204
-2.38488
-981.436
-3.87175
-981.755
-5.36333
-981.967
-6.85113
-982.375
-8.37132
-982.548
-9.77406
-982.871
-12.2491
-985.098
-19.6074
-1019.59
-885.957
19.8668
-891.957
12.2647
-1011.98
10.0811
-979.885
8.83856
-977.969
7.49318
-978.546
6.1571
-978.628
4.7845
-978.907
3.42075
-979.088
2.03226
-979.326
0.644301
-979.547
-0.762904
-979.797
-2.16765
-980.032
-3.59384
-980.329
-5.01511
-980.546
-6.44703
-980.943
-7.89921
-981.096
-9.24672
-981.524
-11.4648
-982.88
-19.3246
-1011.73
-905.282
19.8764
-911.834
11.6172
-1003.72
9.74737
-978.016
8.60381
-976.825
7.35187
-977.294
6.11321
-977.389
4.82875
-977.623
3.5451
-977.804
2.23422
-978.015
0.913359
-978.227
-0.429735
-978.454
-1.77861
-978.683
-3.15698
-978.95
-4.52744
-979.175
-5.93233
-979.538
-7.33624
-979.692
-8.67055
-980.19
-10.6751
-980.876
-19.0457
-1003.36
-924.328
20.0794
-931.913
11.1027
-994.746
9.59035
-976.503
8.6053
-975.84
7.4836
-976.173
6.37181
-976.277
5.20303
-976.454
4.01769
-976.619
2.79977
-976.797
1.55832
-976.985
0.289632
-977.185
-0.996899
-977.396
-2.31823
-977.629
-3.63946
-977.854
-5.02054
-978.157
-6.37965
-978.333
-7.75928
-978.81
-9.59892
-979.036
-18.4215
-994.542
-942.749
20.7995
-952.713
11.0695
-985.016
9.96461
-975.398
9.25152
-975.127
8.35715
-975.278
7.43185
-975.352
6.42359
-975.446
5.35215
-975.547
4.213
-975.658
3.00883
-975.781
1.74153
-975.918
0.416933
-976.072
-0.967337
-976.245
-2.38493
-976.436
-3.87416
-976.668
-5.32791
-976.879
-6.87843
-977.26
-8.53097
-977.384
-17.5627
-985.51
-960.312
22.2874
12.271
11.8726
11.7456
11.4674
11.1155
10.6696
10.1224
9.46453
8.6835
7.76546
6.69381
5.4489
4.0125
2.34437
0.465229
-1.79433
-4.17803
-14.6881
-464.343
596.72
-1061.09
596.681
596.638
596.612
600.204
-3.61929
600.172
600.137
600.127
-2047.8
2647.92
-2047.81
-2047.81
-8377.07
6329.25
-8377.07
-8377.07
-8377.07
-16168.3
7791.27
-16168.3
-16168.3
-23985.3
7816.96
-23663.9
-23179.7
-22622.6
-22007.7
-21343.5
-20630.8
-19867.7
-19049.8
-23938
5756.47
-23009.9
-22013.3
-20944.9
-19802.1
-18579.5
-17267.3
-15829.4
-14216
-12439.1
-10972.7
153.05
-10394.8
-10394.8
-11476.5
1081.64
-11783.8
307.301
-11783.8
-11874.2
90.4251
-11874.2
-11541.4
-332.743
-10565
-976.477
-10565
-8979.91
-1585.05
-8979.91
-6750.77
-2229.14
-4202.83
-2547.94
-4202.83
-1488.03
-2714.8
617.95
-2105.97
617.956
1100.78
-482.821
1100.79
1100.79
776.215
-776.215
-347.243
1123.46
-881.215
533.972
63.7131
-944.928
890.662
-826.948
634.888
255.774
-790.24
1425.13
-2816.71
2026.47
-4149.36
1332.66
-4264.57
115.205
-3857.89
-406.683
-3432.31
-425.577
-2460.18
-972.129
-390.785
-2069.4
2823.37
-3214.15
6065.92
-3242.55
6251.33
-185.407
2299.58
3951.75
3400.37
1035.84
-1812.05
219.191
1940.1
-1253.96
2007.13
-1501.39
-697.503
-1167.43
-1160.91
-1563.05
651.392
-3213.37
3075.45
-4988.59
3801.68
-5223.31
1567.38
-4574.7
-533.4
-4205.33
-776.053
-3865.95
-764.961
-2916.82
-1921.25
-934.243
-4051.98
2214.02
-6362.41
5250.91
-6279.45
6618.67
-1553.16
4487.38
6083.05
7404.93
1050.02
-2862.07
675.026
2315.1
-1092.99
3775.14
-2540.24
749.748
-3115.53
-585.616
-3730.61
1266.47
-4762.36
4107.2
-5416.75
4456.07
-4942.41
1093.04
-4465.91
-1009.9
-4466.64
-775.317
-4251.58
-980.027
-3309.73
-2863.1
-1353.19
-6008.51
1580.03
-9295.64
4408.19
-9107.61
5955.84
-3100.81
5061.54
6977.35
10360.5
941.73
-3803.8
957.076
2299.75
-539.099
5271.32
-2695.32
2905.97
-3884.44
603.502
-4603.87
1985.9
-5201.5
4704.84
-5129.85
4384.41
-4517.28
480.478
-4449.61
-1077.57
-4730.17
-494.757
-4520.79
-1189.41
-3483.46
-3900.43
-1585.74
-7906.23
998.476
-11879.9
3567.55
-11676.7
5040.85
-4574.12
4800.1
7218.11
12445.8
839.023
-4642.82
1038.43
2100.34
97.5191
6212.23
-2182.16
5185.65
-3843.76
2265.1
-4583.29
2725.43
-4951.24
5072.79
-4612.9
4046.06
-4172.56
40.1444
-4494.27
-755.864
-4851.93
-137.104
-4452.71
-1588.63
-3307.24
-5045.9
-1633.65
-9579.82
426.763
-13940.3
2611.94
-13861.9
3963.7
-5925.88
4121.27
7060.54
14019.1
744.591
-5387.42
948.606
1896.33
523.884
6636.95
-1449.96
7159.49
-3381.79
4196.93
-4167.81
3511.46
-4420.58
5325.56
-4068.41
3693.89
-3882.81
-145.458
-4415.36
-223.311
-4613.35
60.8853
-3950.11
-2251.87
-2871.63
-6124.38
-1663.06
-10788.4
-229.698
-15373.6
1544.04
-15635.6
2788.56
-7170.4
3196.04
6653.06
14986
644.808
-6032.22
779.603
1761.53
686.41
6730.15
-776.055
8621.96
-2728.91
6149.78
-3634.08
4416.63
-3832.37
5523.85
-3526.88
3388.41
-3537.81
-134.525
-4075.62
314.492
-4008.64
-6.09681
-3256.83
-3003.68
-2533.78
-6847.43
-1916.19
-11406
-1029.81
-16260
424.116
-17089.5
1585.31
-8331.6
2164.14
6074.23
15565.1
541.516
-6573.74
601.134
1701.91
634.961
6696.32
-285.894
9542.81
-2027.53
7891.42
-3089.4
5478.49
-3284.64
5719.09
-3006.2
3109.96
-3132.5
-8.21684
-3592.54
774.526
-3398.98
-199.654
-2862.41
-3540.25
-2641.93
-7067.92
-2502.6
-11545.3
-1948.16
-16814.5
-716.386
-18321.3
389.51
-9437.49
1112.57
5351.18
15701.2
439.559
-7013.3
434.277
1707.2
444.782
6685.81
-25.1468
10012.7
-1396.62
9262.89
-2566.56
6648.43
-2822.6
5975.13
-2591.52
2878.87
-2820.94
221.211
-3265.11
1218.69
-3184.63
-280.135
-3018.96
-3705.91
-3177.42
-6909.46
-3271.14
-11451.6
-2887.57
-17198
-1846.4
-19362.5
-788.425
-10495.5
38.8726
4523.88
15407.4
336.786
-7350.09
280.035
1763.95
199.392
6766.46
32.6451
10179.5
-918.813
10214.4
-2085.79
7815.41
-2463.33
6352.68
-2356.09
2771.63
-2717.61
582.731
-3250.74
1751.82
-3419.09
-111.791
-3549.74
-3575.26
-3832.09
-6627.11
-3964.19
-11319.5
-3739.19
-17423
-2924.95
-20176.7
-1912.28
-11508.1
-921.55
3533.16
14576.2
227.61
-7577.7
146.137
1845.42
-28.0725
6940.67
-44.083
10195.5
-629.414
10799.7
-1683.67
8869.67
-2204.08
6873.08
-2288.44
2855.99
-2798.3
1092.59
-3484.44
2437.96
-3915.54
319.313
-4180.8
-3310
-4368.71
-6439.2
-4446.15
-11242.1
-4451.1
-17418.1
-3942.01
-20685.8
-2878
-12572.2
-1643.48
2298.63
13240.1
129.084
-7706.78
63.377
1911.13
-210.369
7214.41
-199.661
10184.8
-532.346
11132.4
-1406.18
9743.5
-2031.24
7498.14
-2331.72
3156.47
-3004.58
1765.45
-3874.69
3308.07
-4537.21
981.83
-4816.15
-3031.06
-4790.13
-6465.22
-4761.68
-11270.5
-5036.77
-17143
-4929.53
-20793
-3744.43
-13757.2
-2393.24
947.438
11928.5
-75.3893
-7631.39
-105.415
1941.15
-402.712
7511.71
-414.641
10196.7
-602.187
11319.9
-1275.62
10416.9
-1930.07
8152.6
-2436.26
3662.66
-3294.01
2623.19
-4376.31
4390.37
-5246.66
1852.18
-5480.32
-2797.4
-5198.9
-6746.63
-5014.1
-11455.3
-5512.41
-16644.7
-5922.33
-20383.1
-4309.05
-15370.5
-2349.97
-1011.65
9731.54
-378.828
-7252.56
-407.616
1969.94
-666.491
7770.58
-677.965
10208.2
-783.457
11425.4
-1268.58
10902.1
-1885.79
8769.8
-2573.25
4350.12
-3639.15
3689.09
-4950.91
5702.13
-5957.45
2858.72
-6042.14
-2712.71
-5505.11
-7283.66
-5200.49
-11759.9
-5824.29
-16020.9
-6902.9
-19304.5
-5800.37
-16473.1
-3931.89
-2880.13
11556.1
-685.699
-6566.86
-759.516
2043.76
-980.735
7991.8
-953.364
10180.8
-999.617
11471.7
-1322.57
11225
-1876.4
9323.63
-2726.11
5199.83
-4011.24
4974.22
-5494.48
7185.38
-6345.88
3710.12
-5993.64
-3064.94
-5292.15
-7985.15
-5186.66
-11865.4
-5938.51
-15269
-7548.91
-17694.1
-8219.68
-15802.3
-7343.69
-3756.12
12029.4
-1000.28
-5566.58
-1110.86
2154.34
-1284.09
8165.03
-1187.84
10084.6
-1173.16
11457
-1374.18
11426
-1897
9846.45
-2906.91
6209.74
-4382.56
6449.87
-5816.97
8619.79
-5919.46
3812.61
-4765.01
-4219.39
-4178.47
-8571.7
-4853
-11190.9
-5969.5
-14152.5
-7410.57
-16253
-9090.99
-14121.9
-9123.88
-3723.23
10696.8
-1403.19
-4163.38
-1532.84
2283.99
-1585.4
8217.59
-1384.37
9883.54
-1311.57
11384.2
-1463.52
11578
-2016.06
10399
-3159.55
7353.23
-4733.19
8023.51
-5797.41
9684.01
-4726.3
2741.5
-2827.68
-6118.01
-2582.16
-8817.22
-4279.42
-9493.65
-6136.15
-12295.8
-6871.03
-15518.1
-8010.44
-12982.5
-8471.63
-3262.04
8554.39
-1998.73
-2164.66
-2195.11
2480.37
-2058.35
8080.83
-1755.39
9580.58
-1659.15
11287.9
-1804.62
11723.5
-2339.49
10933.9
-3493.44
8507.17
-5023.47
9553.54
-5509.21
10169.8
-3631.39
863.682
-1651.13
-8098.27
-1533.94
-8934.42
-3652.54
-7375.04
-6352.11
-9596.22
-6790.22
-15080
-6212.27
-13560.4
-5778.45
-3695.86
5423.85
-2746.2
581.543
-3151.78
2885.95
-2956.76
7885.82
-2640.69
9264.51
-2512.32
11159.6
-2514.39
11725.5
-2819.32
11238.8
-3820.6
9508.46
-5180.38
10913.3
-5014.93
10004.3
-2927.67
-1223.58
-1392.15
-9633.79
-1124.57
-9202
-2762.48
-5737.12
-5842.23
-6516.47
-7093.2
-13829.1
-5671.16
-14982.5
-3692.29
-5674.74
1727.94
-3393.78
-4174.19
-4161.04
-3905.17
-3632.63
-3280.65
-3215.75
-4018.25
-5159.81
-4428.29
-2390.39
-1273.81
-791.939
-1237.87
-3772.05
-6494.3
-6420.5
-2805.67
-669.258
1644.26
-1085.82
1391.56
-1511.58
1400.75
-1853.85
1317.27
-2157.8
1278.96
-2412.24
1229.44
-2625.08
1187.84
-2795.84
1145.77
-2926.45
1105.61
-3017.75
1066.3
-3070.51
1027.76
-3083.33
987.82
-3050.1
941.771
-2957.58
882.483
-2785.13
802.542
-2507.83
697.699
-2103.24
570.413
-1555.85
427.607
-852.788
271.939
122.212
-220.316
1864.57
-490.45
1661.7
-776.083
1686.39
-1022.65
1563.84
-1261.11
1517.42
-1469.06
1437.39
-1655.72
1374.5
-1816.52
1306.56
-1954.45
1243.54
-2069.55
1181.4
-2161.56
1119.78
-2224.59
1050.85
-2244.48
961.658
-2195.57
833.576
-2037.13
644.099
-1720.09
380.661
-1262.58
112.901
-798.868
-36.1061
-350.246
-176.684
-228.034
-161.906
2026.48
-354.205
1853.99
-506.16
1838.34
-615.882
1673.56
-715.339
1616.87
-781.861
1503.91
-832.827
1425.46
-861.426
1335.15
-872.369
1254.48
-864.481
1173.51
-838.832
1094.13
-795.878
1007.89
-736.875
902.654
-662.791
759.491
-573.636
554.943
-469.541
276.564
-374.769
18.1274
-293.606
-117.271
-210.339
-259.952
-438.373
35.2094
1991.27
-12.4068
1901.61
-13.3348
1839.27
4.42226
1655.8
27.189
1594.11
67.0955
1464
115.388
1377.17
176.74
1273.8
250.278
1180.94
336.866
1086.92
435.589
995.403
541.155
902.327
641.06
802.748
712.13
688.421
715.251
551.82
602.238
389.577
384.687
235.677
197.023
70.3914
52.3796
-115.311
-385.993
118.851
1872.42
117.133
1903.33
164.422
1791.98
219.032
1601.19
280.37
1532.77
345.019
1399.35
415.653
1306.53
490.439
1199.01
569.692
1101.69
650.818
1005.79
732.552
913.668
810.754
824.125
878.236
735.266
922.341
644.314
924.714
549.447
863.361
450.929
742.029
357.009
554.314
258.105
297.523
141.479
-88.4701
95.9791
1776.44
128.061
1871.24
182.044
1737.99
240.632
1542.6
302.667
1470.73
371.263
1330.75
442.425
1235.37
519.833
1121.61
599.823
1021.7
683.791
921.826
769.814
827.645
856.621
737.317
939.806
652.081
1009.75
574.366
1047.96
511.24
1025.82
473.075
917.746
465.078
698.392
477.459
380.508
459.362
292.038
29.5577
1746.88
75.5592
1825.24
116.274
1697.28
139.161
1519.71
159.511
1450.38
168.495
1321.77
170.033
1233.83
177.352
1114.28
201.235
997.813
253.103
869.957
338.984
741.763
464.526
611.774
623.694
492.913
795.691
402.368
942.026
364.905
1006.78
408.323
932.973
538.881
700.374
710.057
355.828
803.909
647.866
-127.368
1874.25
-184.031
1881.91
-264.28
1777.53
-384.736
1640.17
-512.909
1578.56
-671.489
1480.35
-840.336
1402.68
-1003.93
1277.88
-1140.07
1133.95
-1238.69
968.577
-1294.71
797.789
-1303.15
620.213
-1260.6
450.364
-1165.65
307.418
-1018.7
217.956
-812.976
202.598
-543.071
268.977
-248.951
415.937
-41.2312
596.19
606.635
-101.377
1975.62
-261.736
2042.27
-394.237
1910.03
-540.23
1786.16
-692.847
1731.17
-858.658
1646.16
-1033.18
1577.2
-1211.68
1456.38
-1387.95
1310.22
-1557.34
1137.97
-1721.89
962.342
-1880.81
779.131
-2023.36
592.91
-2122.2
406.261
-2131.78
227.53
-1999.81
70.6266
-1701.63
-29.2035
-1210.54
-75.1474
-546.578
-67.7748
60.0568
160.353
1815.27
14.6162
2188
-91.7137
2016.36
-155.308
1849.76
-198.038
1773.9
-231.372
1679.49
-258.968
1604.8
-295.065
1492.48
-345.767
1360.92
-411.819
1204.02
-489.802
1040.33
-579.501
868.83
-679.048
692.457
-781.504
508.716
-870.486
316.513
-926.901
127.043
-939.756
-16.3486
-841.082
-173.821
-543.852
-365.004
-483.795
382.362
1432.91
398.77
2171.59
355.263
2059.86
371.571
1833.45
437.586
1707.89
520.843
1596.23
619.058
1506.58
709.704
1401.83
782.289
1288.33
825.358
1160.95
839.015
1026.67
820.292
887.553
766.842
745.907
674.309
601.249
538.387
452.435
369.406
296.024
221.369
131.688
118.065
-70.5171
11.8826
-258.822
-471.913
341.975
1090.93
440.086
2073.48
444.801
2055.15
477.38
1800.87
550.375
1634.89
635.601
1511.01
728.449
1413.74
816.698
1313.58
893.557
1211.48
949.947
1104.56
982.279
994.338
988.017
881.815
966.061
767.863
914.965
652.346
832.932
534.468
718.114
410.842
571.631
278.172
382.345
118.769
198.537
-75.0121
-273.376
169.33
921.602
236.014
2006.8
267.835
2023.33
305.201
1763.51
355.971
1584.12
408.761
1458.22
460.817
1361.68
509.034
1265.36
550.327
1170.18
580.546
1074.34
596.368
978.517
595.778
882.405
577.859
785.783
542.442
687.763
489.552
587.359
419.511
480.883
332.99
364.693
226.304
225.456
106.344
44.9487
-167.031
35.8544
885.748
58.3409
1984.31
95.5149
1986.15
131.903
1727.12
164.052
1551.98
191.875
1430.4
216.215
1337.34
238.547
1243.03
257.177
1151.55
270.987
1060.53
277.741
971.764
276.338
883.808
265.743
796.378
245.955
707.552
216.79
616.524
179.246
518.427
133.626
410.315
82.1396
276.944
31.0228
96.0676
-136.009
-5.63004
891.379
3.7652
1974.92
29.158
1960.76
54.5936
1701.68
72.0796
1534.49
84.4871
1417.99
94.1025
1327.73
103.726
1233.41
111.908
1143.37
119.053
1053.39
123.528
967.289
125.143
882.194
122.649
798.873
116.041
714.161
104.327
628.239
88.2378
534.517
66.7024
431.851
42.3926
301.255
16.7455
121.716
-119.263
11.2819
880.098
27.531
1958.67
37.0275
1951.27
49.3755
1689.34
57.9463
1525.92
63.0253
1412.91
66.2689
1324.48
69.9941
1229.69
73.2408
1140.13
76.9662
1049.67
80.1601
964.096
83.1843
879.171
84.9764
797.081
85.457
713.681
83.2765
630.42
78.2672
539.528
68.1915
441.927
52.6039
316.844
30.4065
143.916
-88.8565
41.9331
838.165
68.6434
1931.96
68.696
1951.21
70.5364
1687.5
75.6845
1520.77
80.529
1408.07
84.5263
1320.49
87.9005
1226.31
90.7232
1137.3
93.468
1046.92
96.0535
961.511
98.6248
876.6
100.815
794.891
102.005
712.492
101.168
631.258
96.686
544.01
86.4988
452.115
65.9823
337.361
35.0607
174.838
-53.7958
67.6426
770.523
112.172
1887.43
118.781
1944.61
126.926
1679.35
144.601
1503.1
162.097
1390.57
176.577
1306.01
187.46
1215.43
195.738
1129.03
201.588
1041.07
205.604
957.496
207.193
875.012
206.255
795.829
201.697
717.051
192.86
640.095
177.393
559.478
153.615
475.892
115.916
375.06
55.3511
235.405
1.55537
111.785
658.738
166.776
1832.44
150.598
1960.78
114.772
1715.18
106.105
1511.77
119.02
1377.66
142.702
1282.32
167.078
1191.05
190.512
1105.59
210.554
1021.03
227.344
940.706
239.427
862.929
245.827
789.429
244.275
718.604
233.5
650.871
210.715
582.264
175.054
511.555
122.781
427.334
46.2417
311.948
47.7972
80.8572
293.852
477.707
579.471
653.367
718.788
778.529
826.791
864.001
888.417
901.053
895.683
867.264
822.768
760.879
678.998
575.629
445.857
273.588
)
;

boundaryField
{
    outletWallLeft
    {
        type            calculated;
        value           nonuniform List<scalar> 
40
(
344.121
233.874
156.417
94.8616
42.8975
-4.09063
-48.7752
-92.1064
-136.225
-179.214
-227.498
-267.576
-331.428
-346.383
-479.802
-349.36
-830.459
88.2527
-2265.03
2431.41
-5404.36
-4891.27
-4852.74
-4569.14
-4952.86
-5233.99
-6092.45
-7111.74
-8056.24
-8871.25
-8934.73
-6619.76
2416.64
5486.14
4964.1
7560
9629.54
24852
1061.86
60785.2
)
;
    }
    fineWallsLeft
    {
        type            calculated;
        value           uniform 0;
    }
    fineFrontAndBackLeft
    {
        type            calculated;
        value           nonuniform List<scalar> 
880
(
-2.71937e-15
3.22604e-15
-3.99299e-14
4.8157e-14
-8.62011e-13
-1.16634e-12
-3.09082e-13
-1.11073e-12
-1.42738e-12
-3.88961e-13
-1.50932e-12
-4.65182e-13
-1.54241e-12
-1.75852e-12
-4.41411e-13
-1.40919e-12
-3.64402e-13
-9.99394e-13
-1.0151e-12
-2.5078e-13
-4.38618e-14
8.27797e-13
-4.00533e-13
-4.59848e-13
-4.71346e-13
-6.78779e-13
-6.66954e-13
-6.667e-13
-6.83984e-13
-7.02285e-13
-7.23984e-13
-5.77787e-12
-7.7649e-13
-7.98984e-13
-8.25616e-13
-8.37252e-13
-8.36379e-13
-8.3378e-13
-7.64036e-13
-9.76758e-13
-1.06848e-11
-1.41335e-12
-1.26897e-12
-7.20783e-12
-1.07094e-12
-1.07152e-12
-1.14216e-12
-7.95358e-12
-1.49139e-12
-1.96253e-12
-5.16631e-12
4.80549e-12
4.17487e-12
4.57779e-12
2.43003e-11
2.97806e-12
3.06722e-12
2.93358e-12
1.73546e-11
3.16786e-12
-8.19064e-13
-1.74617e-13
4.31161e-13
1.31056e-12
2.37086e-12
2.54157e-12
-2.61718e-12
-1.94479e-11
-3.82355e-11
-3.17333e-11
2.04762e-12
1.75243e-12
-1.71903e-13
8.45573e-13
-1.47461e-13
-8.38264e-12
-2.24457e-11
-2.48453e-11
-2.69245e-12
-8.02514e-13
-8.93379e-14
8.33429e-13
1.77988e-12
2.38716e-12
1.38093e-12
-5.04226e-12
-2.14055e-11
-3.74804e-11
-2.76502e-11
2.51297e-12
3.56925e-13
1.92634e-13
7.52812e-13
8.40493e-13
1.14764e-12
-1.16297e-11
-2.35563e-11
-1.21232e-11
-7.26703e-13
-2.00028e-13
6.31291e-13
1.01538e-12
6.32652e-13
-1.40233e-12
-7.84972e-12
-2.24517e-11
-3.57318e-11
-2.40556e-11
1.41306e-12
-8.38442e-13
6.5587e-13
4.944e-13
-1.91783e-13
6.742e-13
-3.8727e-12
-1.45624e-11
-1.8255e-11
-5.80778e-13
-3.09732e-13
7.70416e-14
-8.04679e-13
-2.79157e-12
-5.77005e-12
-1.12821e-11
-2.31905e-11
-3.34972e-11
-2.09166e-11
-2.30836e-14
-1.52436e-12
9.76163e-13
2.84098e-13
-1.53633e-14
-2.07068e-13
-2.06958e-12
-8.07727e-12
-1.33933e-11
-4.01284e-13
-2.86851e-13
-4.95407e-13
-3.37423e-12
-7.8096e-12
-1.18422e-11
-1.56032e-11
-2.39929e-11
-3.10531e-11
-1.8096e-11
-1.7093e-12
-1.37531e-12
1.01961e-12
1.34721e-13
1.00843e-14
1.36853e-13
-8.40503e-13
-4.78212e-12
-1.05252e-11
-2.37859e-13
-1.27623e-13
-8.39552e-13
-6.37202e-12
-1.44129e-11
-1.982e-11
-2.10756e-11
-2.52824e-11
-2.88126e-11
-1.56091e-11