/*--------------------------------*- C++ -*----------------------------------*\
| =========                 |                                                 |
| \\      /  F ield         | OpenFOAM: The Open Source CFD Toolbox           |
|  \\    /   O peration     | Version:  4.1                                   |
|   \\  /    A nd           | Web:      www.OpenFOAM.org                      |
|    \\/     M anipulation  |                                                 |
\*---------------------------------------------------------------------------*/
FoamFile
{
    version     2.0;
    format      ascii;
    class       volVectorField;
    location    "6";
    object      U;
}
// * * * * * * * * * * * * * * * * * * * * * * * * * * * * * * * * * * * * * //

dimensions      [0 1 -1 0 0 0 0];

internalField   nonuniform List<vector> 
1680
(
(-7.48365e-19 2.61449 -0.00651618)
(2.33138e-18 1.92621 0.00123143)
(-1.09886e-17 1.90906 0.0126254)
(3.48018e-17 1.61134 0.0390119)
(-3.68744e-16 2.00201 -0.0486953)
(-3.20975e-16 2.05211 -0.131711)
(-2.23365e-16 1.69355 -0.088408)
(-3.05671e-16 2.0248 -0.162593)
(-3.92811e-16 2.20882 -0.25)
(-2.81092e-16 1.7152 -0.166254)
(-4.15361e-16 2.45262 -0.329198)
(-3.36175e-16 1.89846 -0.225969)
(-4.24469e-16 2.17694 -0.351902)
(-4.83941e-16 2.46109 -0.530414)
(-3.18996e-16 2.0125 -0.339736)
(-3.87806e-16 2.6866 -0.647249)
(-2.63344e-16 2.39449 -0.378266)
(-2.75031e-16 1.96216 -0.870759)
(-2.79354e-16 4.51866 -0.140236)
(-1.81232e-16 0.666973 -3.00512)
(-1.79946e-16 3.26863 2.46784)
(3.31949e-16 1.71147 -0.70907)
(-1.64321e-15 4.1119 6.40509)
(-1.88655e-15 4.63625 7.35613)
(-1.93373e-15 4.80549 8.23351)
(-2.78473e-15 4.9293 9.009)
(-2.73622e-15 5.0855 9.69834)
(-2.73518e-15 5.15239 10.298)
(-2.80609e-15 5.30669 10.8578)
(-2.88117e-15 5.21726 11.2681)
(-2.97019e-15 5.60179 11.9281)
(-2.31694e-15 5.03174 10.2144)
(-3.1856e-15 6.9898 13.7519)
(-3.27788e-15 7.11839 14.1668)
(-3.38714e-15 7.17481 14.5054)
(-3.43488e-15 7.16094 14.7858)
(-3.4313e-15 7.26198 15.0544)
(-3.42063e-15 7.10895 15.2443)
(-3.13451e-15 7.47793 16.0612)
(-4.00721e-15 7.0729 14.5797)
(-3.7197e-15 9.85099 16.3223)
(-2.27044e-15 6.74707 11.7034)
(-2.0385e-15 5.77102 10.967)
(-2.4998e-15 6.14138 13.9933)
(-1.72039e-15 4.38039 9.87065)
(-1.72132e-15 4.07968 9.63402)
(-1.83961e-15 3.32887 9.36838)
(-2.76887e-15 2.81872 10.9515)
(-2.39581e-15 1.74682 7.10209)
(-3.15265e-15 1.61579 7.26378)
(-1.79854e-15 0.00589338 4.56329)
(7.71966e-15 -0.430396 -5.56302)
(6.70662e-15 -0.1035 -4.713)
(7.35388e-15 0.498195 -5.23271)
(9.08544e-15 -0.792457 -5.71108)
(4.78403e-15 -0.404371 -3.15045)
(4.92726e-15 -0.160865 -3.49459)
(4.71258e-15 -0.0104028 -3.4327)
(6.04163e-15 -0.0563792 -3.96234)
(5.08894e-15 -0.237723 -2.81599)
(-1.82014e-16 -1.92591 5.79773)
(-3.88038e-17 -1.36545 7.63886)
(9.58134e-17 -2.64864 8.47241)
(2.91236e-16 -2.9681 8.46318)
(5.26857e-16 -3.56653 7.81999)
(5.64793e-16 -3.6966 6.7364)
(-5.81596e-16 -3.68186 5.49599)
(-4.32176e-15 -3.55628 5.59479)
(-8.49679e-15 -4.18702 7.86067)
(-7.05185e-15 -2.94941 8.81065)
(4.55026e-16 1.39588 4.21283)
(3.89428e-16 3.74732 2.13227)
(-3.82008e-17 3.31796 1.45841)
(1.87905e-16 1.86149 0.417896)
(-3.27692e-17 0.936646 -0.793364)
(-1.86281e-15 3.09342 3.69934)
(-4.98794e-15 4.78452 11.2744)
(-5.52117e-15 3.54629 12.0783)
(-5.98323e-16 1.35903 4.54915)
(-1.78336e-16 -3.13632 5.71191)
(-1.98529e-17 -1.69491 7.57501)
(1.85207e-16 -2.78436 8.94414)
(3.95529e-16 -2.88667 9.00928)
(5.3048e-16 -3.3634 8.12469)
(3.06874e-16 -3.40835 6.64195)
(-1.1205e-15 -3.54953 5.19573)
(-4.75678e-15 -3.78155 5.37676)
(-8.32897e-15 -4.4754 7.63981)
(-6.14449e-15 -2.53241 8.05184)
(5.58438e-16 2.03467 3.36772)
(7.93166e-17 4.01128 1.71446)
(4.28076e-17 3.46021 1.06625)
(1.67292e-16 2.149 0.38025)
(1.86776e-16 0.967432 -0.715918)
(2.55032e-16 1.91104 -0.0138039)
(-2.58438e-15 3.51324 8.32459)
(-5.23473e-15 4.0146 13.377)
(-2.69404e-15 3.8546 8.99565)
(-1.6149e-16 -4.32848 4.98491)
(-4.44507e-17 -2.04915 6.90191)
(1.40287e-16 -2.9644 8.59066)
(2.25641e-16 -2.77154 8.57002)
(1.40589e-16 -3.11172 7.44546)
(-3.1163e-16 -3.09557 5.83703)
(-1.74438e-15 -3.44406 4.55096)
(-4.98927e-15 -4.02819 5.03068)
(-7.94041e-15 -4.72446 7.30496)
(-5.3457e-15 -2.06683 7.22938)
(3.14014e-16 2.64548 2.61186)
(-1.8632e-16 4.24378 1.37801)
(1.45749e-16 3.56444 0.662094)
(1.09867e-16 2.2552 0.377796)
(-4.26185e-17 1.03904 0.110634)
(1.49822e-16 1.29856 0.0931368)
(-8.606e-16 2.12591 5.54983)
(-3.23609e-15 3.53831 12.0272)
(-4.05667e-15 5.01337 12.2153)
(-1.29062e-16 -5.38572 4.05629)
(-6.88293e-17 -2.41346 5.89737)
(1.71204e-17 -3.16377 7.78418)
(-1.78817e-16 -2.61688 7.67138)
(-6.20349e-16 -2.84226 6.36224)
(-1.28223e-15 -2.81094 4.84888)
(-2.50714e-15 -3.40553 3.90791)
(-5.15344e-15 -4.30772 4.74032)
(-7.44383e-15 -4.9312 6.94428)
(-4.64813e-15 -1.56959 6.35092)
(-5.12968e-18 3.18689 1.7638)
(-3.38746e-16 4.43894 1.11259)
(2.16925e-16 3.6404 0.304703)
(6.3133e-17 2.28877 0.493192)
(-3.41406e-18 0.992442 0.39736)
(-4.6015e-17 0.874803 0.546616)
(-4.59906e-16 1.10575 3.29468)
(-1.79495e-15 2.69665 9.0974)
(-2.9763e-15 5.35523 12.9762)
(-8.91743e-17 -6.26088 3.17234)
(-6.37448e-17 -2.76287 4.7794)
(-1.10091e-16 -3.38416 6.81245)
(-7.49828e-16 -2.43597 6.75136)
(-1.73547e-15 -2.5807 5.36688)
(-2.63159e-15 -2.58087 4.11365)
(-3.46738e-15 -3.44113 3.54818)
(-5.33175e-15 -4.60529 4.62432)
(-6.90068e-15 -5.07152 6.58838)
(-4.02133e-15 -1.02214 5.38754)
(-3.79844e-16 3.66057 0.834948)
(-3.05624e-16 4.56905 0.793113)
(2.2658e-16 3.6721 0.0721912)
(2.99379e-17 2.25755 0.703445)
(2.24095e-18 1.0004 0.727461)
(3.04118e-17 0.746204 0.509242)
(-1.86778e-16 0.391027 0.736668)
(-1.06269e-15 1.5553 4.12398)
(-2.33893e-15 4.81564 10.4609)
(-5.28576e-17 -6.96854 2.43389)
(-2.83607e-17 -3.07799 3.7121)
(-1.86567e-16 -3.64432 5.82222)
(-1.416e-15 -2.26409 6.05403)
(-3.20286e-15 -2.35797 4.78043)
(-4.40445e-15 -2.41775 3.92511)
(-4.68346e-15 -3.52855 3.62382)
(-5.61831e-15 -4.88212 4.69331)
(-6.4028e-15 -5.11353 6.22819)
(-3.46868e-15 -0.412019 4.32842)
(-8.7925e-16 4.07839 0.108656)
(-1.45184e-16 4.62073 0.349228)
(1.9219e-16 3.64189 0.0147117)
(1.15961e-17 2.17594 0.953634)
(-2.18844e-18 1.01304 0.958941)
(1.11701e-17 0.831512 0.683816)
(2.75059e-17 0.477187 0.2628)
(-2.5489e-16 0.513078 -0.749176)
(-1.83696e-15 3.8525 4.97966)
(-2.69156e-17 -7.53191 1.84623)
(1.73754e-17 -3.34356 2.81982)
(-1.86252e-16 -3.95855 4.87299)
(-2.04512e-15 -2.14869 5.64449)
(-4.89229e-15 -2.20629 4.73154)
(-6.573e-15 -2.31473 4.38433)
(-6.30147e-15 -3.6173 4.15695)
(-6.2712e-15 -5.09125 4.95446)
(-6.16432e-15 -5.02508 5.88869)
(-2.96607e-15 0.26614 3.1265)
(-1.28669e-15 4.44758 -0.269068)
(1.71092e-17 4.61385 -0.131985)
(1.47117e-16 3.53608 0.120076)
(1.52841e-18 2.08175 1.19016)
(-1.5271e-18 1.04395 1.07595)
(-1.58576e-18 0.884273 0.71136)
(4.74299e-18 0.653012 0.332163)
(6.69062e-17 0.639612 -0.220199)
(-6.3833e-17 0.831786 -2.11524)
(-1.20562e-17 -7.99914 1.36925)
(5.06771e-17 -3.55275 2.18137)
(-1.15142e-16 -4.33852 3.99298)
(-2.40937e-15 -2.14593 5.43005)
(-6.3777e-15 -2.16877 5.06428)
(-8.88465e-15 -2.2683 5.31435)
(-8.46642e-15 -3.66753 5.09816)
(-7.62507e-15 -5.19651 5.5024)
(-6.43179e-15 -4.76743 5.64013)
(-2.46989e-15 0.829214 1.70906)
(-1.31111e-15 4.74796 -0.524811)
(1.31233e-16 4.56529 -0.494751)
(1.03459e-16 3.36421 0.340262)
(-2.92874e-18 1.99601 1.35925)
(3.17772e-20 1.10191 1.11875)
(8.52646e-19 0.958176 0.708198)
(-3.68068e-19 0.735531 0.287209)
(-8.2725e-18 0.962625 -0.155246)
(3.38956e-17 1.42177 -2.72097)
(-5.19262e-18 -8.37757 0.947396)
(6.14196e-17 -3.70141 1.82984)
(-1.03845e-17 -4.75137 3.20733)
(-2.31864e-15 -2.25485 5.24638)
(-7.07773e-15 -2.24722 5.39079)
(-1.07687e-14 -2.28403 6.29786)
(-1.09436e-14 -3.68083 6.26129)
(-9.66215e-15 -5.17409 6.34128)
(-7.19613e-15 -4.27521 5.45338)
(-2.32377e-15 1.30721 0.147094)
(-1.06542e-15 4.92059 -0.862598)
(2.07826e-16 4.45725 -0.634631)
(6.15737e-17 3.15351 0.617659)
(-3.40519e-18 1.93526 1.4303)
(1.13881e-19 1.172 1.11087)
(2.79711e-19 1.03829 0.700546)
(1.37666e-18 0.849489 0.253472)
(3.02966e-18 1.08953 -0.248425)
(3.08733e-17 1.27547 -0.78122)
(-2.63075e-18 -8.76785 0.548058)
(5.4069e-17 -3.80286 1.74024)
(7.89652e-17 -5.19835 2.54581)
(-1.81259e-15 -2.47361 4.99773)
(-6.67717e-15 -2.4609 5.37924)
(-1.15331e-14 -2.4109 6.86241)
(-1.2977e-14 -3.70239 7.21649)
(-1.17677e-14 -5.01739 7.14669)
(-8.14757e-15 -3.5252 5.16083)
(-3.05884e-15 1.9124 -0.795997)
(-8.18055e-16 4.94659 -1.23552)
(2.31007e-16 4.27862 -0.530003)
(2.83899e-17 2.94018 0.879381)
(-2.19155e-18 1.90513 1.4101)
(1.17031e-19 1.24665 1.07474)
(-1.49553e-19 1.11671 0.678189)
(-1.19385e-19 0.951084 0.225613)
(2.94509e-19 1.20577 -0.183945)
(3.76337e-17 1.38341 -1.24218)
(-1.80353e-18 -9.03929 0.142915)
(3.89832e-17 -3.85672 1.89153)
(1.22724e-16 -5.57192 2.02727)
(-1.13925e-15 -2.67776 4.72134)
(-5.36654e-15 -2.68262 4.97587)
(-1.08182e-14 -2.60453 6.75014)
(-1.37542e-14 -3.75126 7.49227)
(-1.31778e-14 -4.75495 7.43984)
(-8.90431e-15 -2.61789 4.58769)
(-3.44232e-15 2.56715 -1.1986)
(-5.68562e-16 4.90723 -1.52586)
(1.88563e-16 4.03949 -0.238926)
(8.45247e-18 2.75678 1.04967)
(-9.05267e-19 1.90134 1.33095)
(5.1672e-20 1.31807 1.02377)
(-7.57392e-20 1.19476 0.643305)
(-9.98512e-20 1.04588 0.192533)
(1.18222e-19 1.31326 -0.180966)
(3.11543e-17 1.45039 -0.733234)
(-1.46002e-18 -9.57703 -0.219691)
(2.40414e-17 -3.90253 2.18594)
(1.21924e-16 -6.02161 1.66028)
(-5.52983e-16 -2.95886 4.49233)
(-3.67496e-15 -2.98579 4.33955)
(-8.84763e-15 -2.89028 6.01662)
(-1.29644e-14 -3.84893 6.90601)
(-1.35309e-14 -4.44471 7.00055)
(-9.17409e-15 -1.70601 3.68057)
(-2.65362e-15 3.10736 -1.66539)
(-1.93748e-16 4.79577 -1.71052)
(1.15811e-16 3.76635 0.102856)
(-5.38512e-19 2.6221 1.0967)
(-9.80692e-20 1.91545 1.22772)
(-2.69611e-21 1.38588 0.960079)
(-5.10762e-20 1.27254 0.597258)
(-1.15673e-19 1.13563 0.159598)
(-4.28758e-21 1.38071 -0.152192)
(2.54972e-17 1.50137 -0.606265)
(-1.17845e-18 -9.56162 -0.592565)
(1.28217e-17 -3.89722 2.70841)
(9.55541e-17 -6.16661 1.41794)
(-1.74395e-16 -2.99168 4.40172)
(-2.12781e-15 -3.00627 3.68998)
(-6.27234e-15 -3.04687 4.98017)
(-1.08537e-14 -3.93277 5.65837)
(-1.28036e-14 -4.13934 5.94865)
(-8.93906e-15 -0.847014 2.51911)
(-1.71389e-15 3.56588 -2.13786)
(1.46295e-16 4.59019 -1.69986)
(6.32464e-17 3.48128 0.377967)
(-2.18834e-18 2.53161 1.04618)
(1.21536e-19 1.93504 1.12036)
(-1.14078e-20 1.44889 0.88354)
(-1.48374e-20 1.34701 0.541926)
(-5.35184e-20 1.21587 0.129048)
(-3.88815e-20 1.45169 -0.12975)
(1.75222e-17 1.53722 -0.567453)
(-8.63735e-19 -10.9508 -0.774532)
(5.50206e-18 -3.95274 3.1432)
(6.2406e-17 -6.85114 1.30718)
(8.75021e-18 -3.41137 4.3892)
(-1.0047e-15 -3.34977 3.10848)
(-3.79038e-15 -3.30779 3.88174)
(-7.98154e-15 -4.04639 4.06688)
(-1.1129e-14 -3.86268 4.51348)
(-8.43235e-15 0.0284728 1.11974)
(-1.2713e-15 3.87979 -2.33996)
(2.59284e-16 4.31122 -1.36734)
(3.4172e-17 3.20551 0.554755)
(-1.01627e-18 2.46143 0.951165)
(4.97861e-20 1.94165 1.01309)
(-2.11774e-21 1.49632 0.79594)
(-2.63049e-21 1.40654 0.479516)
(-1.45016e-20 1.27744 0.103776)
(-1.83596e-20 1.49063 -0.107452)
(1.10566e-17 1.56141 -0.385517)
(-5.59945e-19 -9.2986 -1.23355)
(1.14342e-18 -3.85835 4.20142)
(3.3634e-17 -6.18003 1.21048)
(6.87082e-17 -2.84487 4.59907)
(-3.2822e-16 -2.68477 2.69837)
(-1.86818e-15 -3.08496 3.0417)
(-5.02946e-15 -4.00595 2.53101)
(-8.67591e-15 -3.60875 2.94983)
(-7.15444e-15 0.682923 -0.438724)
(-9.6842e-16 4.00038 -2.3319)
(1.98378e-16 4.0243 -0.804065)
(1.18561e-17 3.00746 0.633755)
(-1.36325e-19 2.42958 0.848724)
(-5.9696e-21 1.95902 0.904238)
(1.6441e-21 1.55064 0.701462)
(6.1296e-23 1.47143 0.412889)
(-4.92395e-21 1.34164 0.0839344)
(-2.45371e-20 1.53071 -0.0854999)
(6.14611e-18 1.58919 -0.292421)
(-3.04443e-19 -14.8962 -0.795847)
(-1.11415e-18 -4.02475 4.18717)
(1.46184e-17 -8.42679 1.35586)
(7.10178e-17 -4.24602 4.64669)
(-2.08246e-18 -3.82296 2.41346)
(-6.68581e-16 -3.47029 2.41134)
(-2.62567e-15 -4.08716 1.32013)
(-5.89446e-15 -3.38163 1.56441)
(-4.31627e-15 1.04571 -1.60027)
(-5.53735e-16 3.98323 -2.24395)
(9.9095e-17 3.80518 -0.299626)
(6.94048e-21 2.94692 0.610941)
(4.49217e-20 2.47293 0.742629)
(-4.11185e-21 2.031 0.788151)
(1.78198e-22 1.64927 0.600671)
(1.2772e-22 1.57128 0.34415)
(-1.83321e-21 1.43553 0.0699941)
(-8.5881e-21 1.60507 -0.069108)
(3.45451e-18 1.64731 -0.287653)
(-2.97251e-19 -4.18902 -3.06455)
(-1.71256e-18 -3.69623 7.26637)
(7.92805e-18 -3.93005 0.814099)
(5.36881e-17 -1.3722 5.26046)
(2.73246e-17 -0.939933 2.77429)
(-2.58456e-16 -2.37219 2.92964)
(-1.27978e-15 -3.62783 1.23248)
(-3.58453e-15 -3.03306 0.922003)
(-1.91396e-15 1.31889 -2.29765)
(-1.93091e-16 3.7024 -2.09764)
(3.50779e-17 3.42582 -0.0471244)
(-8.76181e-19 2.76024 0.521727)
(9.59073e-21 2.36172 0.627321)
(1.37008e-21 1.96352 0.661009)
(-2.40665e-22 1.62007 0.492241)
(-1.33005e-22 1.54503 0.274128)
(-2.33981e-22 1.40831 0.0600759)
(4.33809e-21 1.55808 -0.0569371)
(1.21298e-18 1.59243 -0.158301)
(4.64724e-19 -31.0736 3.7464)
(6.65391e-18 -4.20217 3.54655)
(1.3708e-17 -14.4263 2.82148)
(-7.89296e-17 -7.41567 5.52741)
(-4.25618e-16 -6.24036 4.52326)
(-7.64274e-16 -4.02682 4.37914)
(-1.20614e-15 -4.14255 2.42596)
(-2.35822e-15 -2.79084 1.1431)
(-6.48104e-16 1.36743 -2.82009)
(1.59703e-17 3.14261 -1.78781)
(1.21223e-17 2.87692 0.0337423)
(-6.45819e-20 2.41518 0.438395)
(-4.39018e-21 2.0848 0.524329)
(2.02812e-22 1.74503 0.545824)
(2.38012e-23 1.45782 0.393287)
(-5.92417e-23 1.40121 0.21257)
(2.56737e-22 1.27565 0.0518265)
(2.17541e-21 1.40793 -0.0516655)
(3.27761e-19 1.43421 -0.148961)
(-5.2758e-18 28.4789 -23.3854)
(-4.42651e-18 -3.47134 16.5808)
(3.67194e-17 9.85639 -5.49154)
(1.25818e-16 4.57357 4.45235)
(-3.95552e-16 4.68264 2.67124)
(-1.20421e-15 -0.130777 6.01034)
(-1.61556e-15 -1.78899 4.27223)
(-1.87849e-15 -1.63735 1.94047)
(-8.49222e-17 2.49378 -2.37337)
(6.99903e-17 3.76962 -1.06862)
(2.04899e-18 3.68011 0.092251)
(4.98654e-20 3.31505 0.36358)
(-9.9896e-23 2.91662 0.421205)
(-2.15576e-22 2.48587 0.433378)
(2.13037e-23 2.11991 0.300739)
(1.93734e-23 2.02078 0.159941)
(2.33935e-23 1.85417 0.0424684)
(-1.09309e-21 1.98254 -0.04901)
(-1.42051e-19 1.99946 0.0096686)
(4.04727e-17 -92.2804 81.0684)
(3.9058e-17 -5.1176 -4.90347)
(-2.33745e-16 -38.4923 29.8165)
(-1.5272e-15 -18.2901 15.2715)
(-3.32793e-15 -15.0149 19.3914)
(-3.83017e-15 -7.58789 12.3998)
(-3.5312e-15 -6.2381 7.62795)
(-2.26786e-15 -2.40666 0.826633)
(1.95916e-17 3.02003 -0.722794)
(1.25372e-17 4.1474 -0.181697)
(-5.73835e-19 4.09644 0.064417)
(-2.52714e-21 3.73188 0.151108)
(3.52114e-22 3.30701 0.173151)
(2.82607e-23 2.83793 0.176346)
(-5.9878e-24 2.42748 0.117923)
(3.9488e-24 2.28975 0.0632545)
(-3.45602e-23 2.10529 0.0161475)
(-3.23323e-22 2.22713 -0.0253917)
(3.74214e-20 2.24913 -0.0951826)
(7.85032e-17 6.03199 10.836)
(-5.88821e-15 9.94479 16.9351)
(-4.8038e-15 9.80324 16.6713)
(-4.33736e-15 9.67195 16.2026)
(-4.34181e-15 9.67329 16.1082)
(-6.49128e-15 9.72957 16.0563)
(-5.14742e-15 9.74736 16.0253)
(-4.65442e-15 9.78518 15.9927)
(-4.43092e-15 9.79275 15.9693)
(-4.41343e-15 9.82699 15.9621)
(-4.57472e-15 9.81361 15.9399)
(-4.20665e-15 9.74121 15.7449)
(-4.29604e-15 9.77545 15.8695)
(-4.22464e-15 9.78358 15.9277)
(-4.47494e-15 9.75789 15.9558)
(-4.4165e-15 9.71184 15.9716)
(-4.41052e-15 9.71276 16.0441)
(-4.15788e-15 10.0423 16.7677)
(-3.83672e-15 10.356 17.1535)
(-7.13956e-15 6.04383 10.3916)
(3.95852e-17 5.62549 9.51402)
(-4.81436e-15 9.36408 16.0698)
(-4.04881e-15 8.9285 15.3218)
(-3.47363e-15 8.79016 15.038)
(-3.3654e-15 8.7919 15.082)
(-5.85865e-15 8.83834 15.0972)
(-3.90172e-15 8.84326 15.1288)
(-3.78054e-15 8.87699 15.1452)
(-3.56871e-15 8.89138 15.175)
(-3.66326e-15 8.91574 15.1941)
(-3.97514e-15 8.93563 15.2253)
(-3.73706e-15 8.98176 15.2893)
(-3.56354e-15 8.9993 15.2918)
(-3.6495e-15 9.01245 15.3104)
(-3.79705e-15 9.0285 15.3293)
(-3.68506e-15 9.02678 15.3323)
(-3.98435e-15 9.1098 15.4776)
(-3.54545e-15 9.56988 16.2597)
(-3.44983e-15 9.53756 16.2074)
(-6.52989e-15 4.86777 8.29561)
(-3.83366e-19 6.09069 10.626)
(-1.89271e-15 9.67656 16.6008)
(-1.51615e-15 9.18232 15.8826)
(-1.32505e-15 9.08398 15.6039)
(-1.05731e-15 9.05635 15.6165)
(-3.79758e-15 9.08309 15.6006)
(-1.90925e-15 9.0695 15.6038)
(-1.88158e-15 9.08506 15.5938)
(-1.81822e-15 9.0806 15.595)
(-1.80543e-15 9.09111 15.5915)
(-1.75052e-15 9.09237 15.592)
(-1.55726e-15 9.09265 15.5837)
(-1.5468e-15 9.09848 15.5914)
(-1.67604e-15 9.10311 15.5986)
(-1.87551e-15 9.10839 15.5951)
(-1.67178e-15 9.09557 15.5838)
(-1.78916e-15 9.19418 15.7336)
(-1.59911e-15 9.65549 16.5427)
(-1.7181e-15 9.47758 16.1901)
(-3.39502e-15 4.56474 7.8789)
(-1.26227e-18 6.06642 10.503)
(4.25314e-16 9.55029 16.4257)
(3.26565e-16 9.04998 15.6602)
(3.1612e-16 8.95035 15.4145)
(2.70596e-16 8.9306 15.4427)
(-2.3022e-15 8.95546 15.4405)
(-1.96868e-15 8.94397 15.4551)
(-1.70715e-15 8.95897 15.4563)
(-1.63844e-15 8.95589 15.4675)
(-1.70263e-15 8.96581 15.472)
(-1.80132e-15 8.96805 15.4813)
(-1.40408e-15 8.9763 15.4909)
(-1.6985e-15 8.98305 15.4973)
(-1.67489e-15 8.9861 15.5072)
(-1.80332e-15 8.99375 15.5057)
(-1.70198e-15 8.98163 15.5002)
(-1.54982e-15 9.09688 15.6729)
(-1.7611e-15 9.56915 16.5079)
(-1.6052e-15 9.25387 15.9369)
(-3.34727e-15 4.20091 7.27794)
(4.89313e-19 6.22555 10.8262)
(-9.56998e-17 9.58096 16.4755)
(-7.16174e-17 9.06086 15.7016)
(-6.80787e-17 8.9681 15.4677)
(-7.05088e-17 8.94416 15.4943)
(5.27448e-16 8.96251 15.491)
(4.23221e-16 8.94768 15.5034)
(4.37823e-16 8.95658 15.5042)
(4.15594e-16 8.94953 15.5137)
(4.18485e-16 8.95423 15.5179)
(4.1539e-16 8.952 15.526)
(3.70058e-16 8.95395 15.5324)
(3.68276e-16 8.95606 15.5401)
(3.90978e-16 8.95574 15.5503)
(4.39631e-16 8.95946 15.5486)
(3.92677e-16 8.94313 15.5446)
(4.1039e-16 9.05905 15.7171)
(3.68256e-16 9.51434 16.5551)
(4.0449e-16 9.17274 15.9287)
(7.77151e-16 4.21202 7.40261)
(-1.46437e-19 6.29676 10.9286)
(2.16669e-17 9.52362 16.3939)
(1.58788e-17 9.00838 15.6102)
(1.54515e-17 8.91278 15.3879)
(1.74816e-17 8.89254 15.4152)
(-1.20783e-16 8.90724 15.4164)
(-9.59788e-17 8.89359 15.4303)
(-1.03919e-16 8.89979 15.4345)
(-9.70068e-17 8.89224 15.446)
(-1.03515e-16 8.89466 15.4527)
(-9.76066e-17 8.89068 15.4632)
(-9.24573e-17 8.89105 15.4722)
(-9.17823e-17 8.89023 15.4819)
(-8.69481e-17 8.88804 15.4936)
(-9.69929e-17 8.88885 15.4961)
(-9.81459e-17 8.8706 15.4937)
(-1.01724e-16 8.96526 15.6363)
(-8.68172e-17 9.3866 16.4434)
(-9.42143e-17 9.15955 16.0277)
(-1.73561e-16 4.47269 7.91541)
(4.03958e-20 6.40063 11.1032)
(-5.02508e-18 9.49487 16.3468)
(-3.63201e-18 8.98234 15.5611)
(-3.72391e-18 8.88495 15.3436)
(-4.11669e-18 8.86628 15.3685)
(2.7968e-17 8.87779 15.37)
(2.26859e-17 8.8643 15.3823)
(2.39941e-17 8.868 15.3861)
(2.32589e-17 8.85948 15.3964)
(2.38428e-17 8.85978 15.4024)
(2.22045e-17 8.85397 15.4119)
(2.17306e-17 8.85231 15.4197)
(2.24797e-17 8.84873 15.4289)
(2.0679e-17 8.84495 15.4392)
(2.19448e-17 8.84355 15.4441)
(2.37617e-17 8.82499 15.4419)
(2.38678e-17 8.8802 15.5218)
(2.08166e-17 9.23591 16.2276)
(2.20827e-17 9.25345 16.2519)
(3.77003e-17 4.96009 8.8035)
(-1.03879e-20 6.50709 11.2679)
(1.17721e-18 9.45686 16.2812)
(8.67278e-19 8.94995 15.4926)
(9.08859e-19 8.85285 15.2836)
(9.6594e-19 8.83726 15.3061)
(-6.50797e-18 8.84716 15.308)
(-5.40989e-18 8.83508 15.3189)
(-5.47703e-18 8.83794 15.3222)
(-5.58036e-18 8.82991 15.3313)
(-5.4424e-18 8.8297 15.3364)
(-5.10083e-18 8.82371 15.3447)
(-4.96113e-18 8.82176 15.3512)
(-5.3171e-18 8.81722 15.3592)
(-5.11324e-18 8.81347 15.3676)
(-5.06583e-18 8.81117 15.3737)
(-5.56876e-18 8.79645 15.3741)
(-5.47198e-18 8.81732 15.4)
(-4.90887e-18 9.08415 15.9381)
(-5.25171e-18 9.34432 16.4034)
(-7.92836e-18 5.53988 9.81774)
(2.34673e-21 6.64277 11.4865)
(-2.76068e-19 9.42687 16.2244)
(-2.13172e-19 8.92297 15.4333)
(-2.17907e-19 8.83169 15.2391)
(-2.29132e-19 8.81858 15.2592)
(1.51208e-18 8.82748 15.2608)
(1.27618e-18 8.81692 15.27)
(1.27356e-18 8.8195 15.2724)
(1.31452e-18 8.81244 15.2799)
(1.2535e-18 8.81235 15.2838)
(1.20401e-18 8.80697 15.2907)
(1.14008e-18 8.80548 15.2957)
(1.24717e-18 8.8011 15.3023)
(1.26157e-18 8.79831 15.3085)
(1.1828e-18 8.79571 15.3143)
(1.2761e-18 8.78642 15.3174)
(1.26046e-18 8.7897 15.3183)
(1.15013e-18 8.96653 15.6756)
(1.25725e-18 9.37859 16.4121)
(1.66691e-18 6.10083 10.7702)
(-4.0198e-22 6.79959 11.7427)
(6.48258e-20 9.39324 16.1628)
(5.26594e-20 8.89358 15.3723)
(5.13971e-20 8.81285 15.2)
(5.42747e-20 8.80207 15.2186)
(-3.53675e-19 8.81028 15.2199)
(-2.97432e-19 8.80133 15.2279)
(-3.04953e-19 8.80394 15.23)
(-3.04525e-19 8.79813 15.2365)
(-2.92017e-19 8.79847 15.2398)
(-2.88566e-19 8.7941 15.2458)
(-2.69609e-19 8.79342 15.2499)
(-2.96348e-19 8.78978 15.2557)
(-3.03844e-19 8.78832 15.2606)
(-2.77842e-19 8.78595 15.266)
(-2.93453e-19 8.78085 15.2702)
(-2.94332e-19 8.77898 15.2664)
(-2.69618e-19 8.8916 15.4925)
(-3.00928e-19 9.3551 16.3126)
(-3.55099e-19 6.56084 11.5301)
(2.29552e-23 6.97293 12.0317)
(-1.52562e-20 9.35536 16.0967)
(-1.28039e-20 8.86397 15.3151)
(-1.20712e-20 8.79672 15.1689)
(-1.27439e-20 8.78762 15.1861)
(8.38601e-20 8.79511 15.1872)
(6.89447e-20 8.78751 15.1944)
(7.42954e-20 8.79004 15.1963)
(6.99263e-20 8.78532 15.2021)
(6.888e-20 8.78594 15.2052)
(6.89702e-20 8.78247 15.2107)
(6.53448e-20 8.78244 15.2143)
(7.11815e-20 8.77947 15.2198)
(7.16134e-20 8.77912 15.224)
(6.56968e-20 8.77705 15.2294)
(6.90397e-20 8.77449 15.2336)
(6.95642e-20 8.77185 15.2307)
(6.32985e-20 8.84768 15.3828)
(7.16983e-20 9.30603 16.1841)
(7.65564e-20 6.90489 12.0907)
(1.86465e-23 7.15353 12.336)
(3.59728e-21 9.31056 16.0217)
(3.04385e-21 8.83434 15.2611)
(2.84205e-21 8.78122 15.1417)
(2.94036e-21 8.7733 15.1576)
(-2.01534e-20 8.78004 15.1586)
(-1.60307e-20 8.77352 15.1652)
(-1.80001e-20 8.77585 15.1672)
(-1.60481e-20 8.77202 15.1726)
(-1.64169e-20 8.7727 15.1757)
(-1.63447e-20 8.76994 15.1808)
(-1.5944e-20 8.77028 15.1844)
(-1.70511e-20 8.76776 15.1897)
(-1.67425e-20 8.76824 15.1936)
(-1.56704e-20 8.76619 15.1992)
(-1.65908e-20 8.76542 15.2034)
(-1.65423e-20 8.76262 15.2019)
(-1.48962e-20 8.81725 15.3119)
(-1.69869e-20 9.25164 16.0658)
(-1.66415e-20 7.16157 12.5118)
(-1.08392e-23 7.33628 12.646)
(-8.49915e-22 9.25953 15.9377)
(-7.13807e-22 8.80633 15.2118)
(-6.72494e-22 8.76648 15.1177)
(-6.5943e-22 8.75934 15.1321)
(4.87852e-21 8.76529 15.1331)
(3.76812e-21 8.75965 15.1392)
(4.269e-21 8.76166 15.1414)
(3.70491e-21 8.75853 15.1463)
(3.93026e-21 8.75908 15.1495)
(3.85682e-21 8.75687 15.1544)
(3.86075e-21 8.75733 15.1579)
(4.03818e-21 8.75507 15.1632)
(3.92364e-21 8.75612 15.1668)
(3.76384e-21 8.75381 15.1727)
(4.00957e-21 8.7545 15.1766)
(3.93801e-21 8.75123 15.1769)
(3.52266e-21 8.7922 15.2586)
(4.01287e-21 9.19604 15.959)
(3.64433e-21 7.36962 12.8598)
(3.99381e-24 7.51847 12.9558)
(2.01246e-22 9.20262 15.8444)
(1.67581e-22 8.78046 15.1669)
(1.60254e-22 8.75231 15.0955)
(1.42243e-22 8.74569 15.1083)
(-1.17811e-21 8.75086 15.1093)
(-8.97898e-22 8.746 15.1149)
(-9.89115e-22 8.7476 15.1173)
(-8.6375e-22 8.7451 15.1219)
(-9.39234e-22 8.74539 15.1252)
(-9.11013e-22 8.74366 15.1298)
(-9.22513e-22 8.74406 15.1333)
(-9.45876e-22 8.74203 15.1385)
(-9.2367e-22 8.7434 15.1419)
(-9.04403e-22 8.74076 15.1481)
(-9.60678e-22 8.7427 15.1515)
(-9.35739e-22 8.73865 15.1537)
(-8.38512e-22 8.76998 15.2135)
(-9.48766e-22 9.13743 15.854)
(-8.04453e-22 7.5561 13.1763)
(-1.21119e-24 7.6995 13.2637)
(-4.76677e-23 9.14028 15.7419)
(-3.97057e-23 8.75702 15.1266)
(-3.84589e-23 8.73882 15.0746)
(-2.92926e-23 8.73255 15.0858)
(2.81297e-22 8.737 15.0869)
(2.15855e-22 8.73284 15.092)
(2.25679e-22 8.73399 15.0946)
(2.0346e-22 8.73204 15.0988)
(2.23167e-22 8.73204 15.1022)
(2.15736e-22 8.73073 15.1064)
(2.1768e-22 8.73095 15.11)
(2.20316e-22 8.72921 15.115)
(2.17636e-22 8.73068 15.1183)
(2.15834e-22 8.72781 15.1246)
(2.26857e-22 8.73077 15.1275)
(2.21492e-22 8.72585 15.1316)
(2.00722e-22 8.75 15.1733)
(2.25034e-22 9.07433 15.7445)
(1.78807e-22 7.73435 13.4806)
(3.26567e-25 7.87961 13.5699)
(1.12524e-23 9.07265 15.63)
(9.46681e-24 8.73616 15.0909)
(9.25882e-24 8.7262 15.055)
(5.74187e-24 8.72016 15.0647)
(-6.61208e-23 8.7239 15.0659)
(-5.18633e-23 8.72047 15.0705)
(-5.12645e-23 8.72111 15.0732)
(-4.82668e-23 8.71967 15.077)
(-5.26526e-23 8.71937 15.0804)
(-5.11426e-23 8.71842 15.0844)
(-5.09374e-23 8.71839 15.088)
(-5.13231e-23 8.717 15.0927)
(-5.11098e-23 8.71829 15.096)
(-5.09709e-23 8.71545 15.1022)
(-5.28801e-23 8.71907 15.1046)
(-5.21571e-23 8.71337 15.1105)
(-4.81965e-23 8.73223 15.1373)
(-5.35794e-23 9.00615 15.6276)
(-3.99147e-23 7.90948 13.7796)
(-8.12234e-26 8.05933 13.8751)
(-2.63859e-24 8.99953 15.5081)
(-2.25313e-24 8.7178 15.0597)
(-2.22311e-24 8.71456 15.0366)
(-1.07348e-24 8.70878 15.0447)
(1.53211e-23 8.71174 15.0461)
(1.23556e-23 8.70917 15.0501)
(1.16879e-23 8.7093 15.053)
(1.14662e-23 8.7083 15.0564)
(1.23428e-23 8.70781 15.0598)
(1.21095e-23 8.70712 15.0635)
(1.18797e-23 8.70686 15.0672)
(1.19975e-23 8.70588 15.0715)
(1.19402e-23 8.70673 15.0749)
(1.19243e-23 8.70427 15.0809)
(1.22299e-23 8.70799 15.0831)
(1.22165e-23 8.70175 15.0904)
(1.15786e-23 8.71697 15.1052)
(1.27898e-23 8.93309 15.5027)
(8.92135e-24 8.08314 14.0752)
(1.90388e-26 8.23965 14.1804)
(6.14712e-25 8.92061 15.3748)
(5.32509e-25 8.70165 15.0324)
(5.30368e-25 8.70362 15.0189)
(1.93888e-25 8.69851 15.0253)
(-3.51591e-24 8.70035 15.0269)
(-2.9095e-24 8.69873 15.0302)
(-2.68134e-24 8.6984 15.033)
(-2.71088e-24 8.6977 15.0361)
(-2.87817e-24 8.69712 15.0394)
(-2.85597e-24 8.69657 15.0428)
(-2.76876e-24 8.69617 15.0464)
(-2.81255e-24 8.69557 15.0503)
(-2.77505e-24 8.69586 15.054)
(-2.77273e-24 8.69426 15.0594)
(-2.81987e-24 8.69726 15.0619)
(-2.84765e-24 8.69129 15.0701)
(-2.77531e-24 8.70425 15.0762)
(-3.05287e-24 8.85558 15.3705)
(-1.99481e-24 8.25515 14.3662)
(-4.28238e-27 8.42318 14.4926)
(-1.44886e-25 8.83809 15.2311)
(-1.27087e-25 8.69069 15.012)
(-1.27806e-25 8.69522 15.0051)
(-3.50852e-26 8.69182 15.0089)
(8.15176e-25 8.69212 15.0105)
(6.89341e-25 8.69115 15.0126)
(6.28206e-25 8.69035 15.0148)
(6.44912e-25 8.68952 15.0171)
(6.78845e-25 8.68863 15.0197)
(6.79075e-25 8.68775 15.0224)
(6.54674e-25 8.68689 15.0254)
(6.69399e-25 8.68605 15.0287)
(6.51808e-25 8.68543 15.0321)
(6.52516e-25 8.68433 15.0364)
(6.6001e-25 8.68532 15.0397)
(6.71028e-25 8.68104 15.0469)
(6.72211e-25 8.69107 15.0483)
(7.37049e-25 8.77265 15.2324)
(4.52563e-25 8.42326 14.6449)
(7.47051e-28 8.61058 14.8239)
(2.84355e-26 8.75271 15.0801)
(2.52811e-26 8.69281 15.0032)
(2.5636e-26 8.695 15.0014)
(5.68407e-27 8.69442 15.0021)
(-1.58397e-25 8.69407 15.0026)
(-1.36769e-25 8.69366 15.0031)
(-1.24041e-25 8.69305 15.0038)
(-1.2737e-25 8.69232 15.0046)
(-1.33893e-25 8.69143 15.0056)
(-1.34154e-25 8.69038 15.0067)
(-1.29366e-25 8.68914 15.008)
(-1.32911e-25 8.68772 15.0095)
(-1.28136e-25 8.68604 15.0113)
(-1.28846e-25 8.68417 15.0133)
(-1.29883e-25 8.68208 15.0156)
(-1.32267e-25 8.67892 15.0189)
(-1.35375e-25 8.67938 15.02)
(-1.47906e-25 8.69418 15.0844)
(-8.57542e-26 8.5934 14.8933)
(5.25077e-15 -0.0585907 -2.95862)
(7.02594e-15 -0.176094 -3.66083)
(5.15102e-15 0.0510289 -2.88831)
(5.13676e-15 0.173486 -2.92971)
(4.96484e-15 0.368291 -2.77514)
(7.25569e-15 0.173239 -4.23562)
(5.71183e-15 0.0504069 -3.71917)
(5.78063e-15 0.23756 -3.50689)
(6.22635e-15 0.489378 -3.81103)
(4.6826e-15 0.414437 0.392588)
(2.09241e-15 -0.712187 4.93223)
(1.94686e-15 -0.804471 4.65362)
(1.84283e-15 -1.58706 8.32745)
(9.96219e-16 -2.3152 8.0399)
(7.45559e-16 -2.88183 8.08023)
(6.13435e-16 -3.1536 8.30619)
(7.89144e-16 -4.75186 12.2759)
(6.73398e-16 -4.94323 9.93491)
(8.48838e-16 -5.55355 10.4859)
(1.71848e-15 -8.096 14.6763)
(1.97263e-15 -6.8013 12.1372)
(1.71479e-15 -7.14489 12.9304)
(1.90482e-15 -7.10167 12.908)
(1.87516e-15 -7.24551 13.0558)
(1.85552e-15 -7.29144 13.0936)
(1.79107e-15 -7.35203 13.1639)
(1.68185e-15 -7.35052 13.2507)
(1.54717e-15 -7.47833 13.3444)
(1.48912e-15 -6.43327 12.4681)
(1.24704e-15 -6.75317 12.838)
(1.02464e-15 -6.62532 13.1972)
(8.31258e-16 -6.58026 13.5235)
(6.24928e-16 -6.48039 13.81)
(4.33955e-16 -6.39027 14.0176)
(2.56567e-16 -6.29136 14.1112)
(7.48909e-17 -6.08277 14.1064)
(-6.923e-17 -5.82696 13.8203)
(-2.20672e-16 -5.66344 12.6262)
(-5.09304e-16 -0.248512 -1.03302)
(-5.34125e-16 -3.84119 2.63814)
(-6.35704e-16 -1.65468 -1.81211)
(-7.83544e-16 -5.21209 1.15884)
(-6.49248e-16 -3.72583 0.0884813)
(-5.32368e-16 -3.69307 0.155601)
(-4.96376e-16 -4.80207 0.260032)
(-2.31206e-16 -3.47139 0.00250581)
(2.23132e-16 -4.44247 -0.00972379)
(7.312e-16 -3.9458 -0.652848)
(8.62751e-16 -3.2382 -0.791726)
(2.22972e-15 -4.10285 -1.41481)
(2.01918e-15 -2.51228 -1.39139)
(3.86555e-15 -3.05248 -2.36562)
(3.59694e-15 -1.97589 -2.39812)
(2.87082e-15 -1.17678 -1.8234)
(4.9499e-15 -1.22258 -2.76589)
(3.33744e-15 -0.426898 -1.64162)
(1.65092e-15 0.316315 -1.18342)
(1.13856e-15 0.345441 1.0592)
(1.51216e-15 0.289817 1.11047)
(-4.92621e-15 0.499482 2.78452)
(-3.74433e-17 0.0943858 -1.0728)
(-1.93076e-17 -0.223331 -1.01776)
(6.98338e-17 0.0316531 1.7513)
(2.24242e-16 0.31796 0.966681)
(3.27476e-16 0.270042 -0.710122)
(3.03735e-16 0.153256 -1.9303)
(3.53793e-17 -0.124974 -0.567867)
(1.88729e-15 -0.326912 3.09555)
(4.49256e-15 -0.31814 6.36055)
(6.19316e-15 -0.109913 7.50294)
(6.73918e-15 0.0499708 6.71314)
(7.63786e-15 0.0678631 6.18099)
(8.75906e-15 0.167248 5.24448)
(9.55178e-15 0.374977 2.68313)
(9.59841e-15 0.564029 -1.75025)
(9.14064e-15 0.592254 -7.31477)
(9.27216e-15 -0.0150122 -12.1172)
(6.50171e-15 -0.759024 -9.01602)
(-2.47213e-16 -0.383257 0.800012)
(-9.41954e-17 0.438742 -0.994233)
(-7.13471e-17 -0.518687 -2.19442)
(6.00451e-17 -0.373004 1.23878)
(4.01965e-16 0.33554 2.83058)
(7.11923e-16 0.390649 2.39677)
(8.72354e-16 -0.160208 1.65822)
(1.6401e-15 -0.772498 3.36169)
(3.93294e-15 -1.0245 7.31121)
(5.74202e-15 -0.549577 9.34541)
(5.81069e-15 0.0609586 8.09236)
(6.7003e-15 0.227209 7.1535)
(8.73933e-15 0.21561 6.89337)
(1.01921e-14 0.490804 5.97561)
(1.06102e-14 1.03666 3.59549)
(9.94647e-15 1.62795 -0.672738)
(8.88082e-15 1.6152 -6.58454)
(8.66131e-15 0.247537 -10.2247)
(9.50883e-15 -1.76674 -12.1876)
(3.25185e-15 -1.83093 -3.07091)
(-1.54611e-16 0.79258 -1.0098)
(-1.40867e-16 -0.728616 -2.25996)