/*--------------------------------*- C++ -*----------------------------------*\
| =========                 |                                                 |
| \\      /  F ield         | OpenFOAM: The Open Source CFD Toolbox           |
|  \\    /   O peration     | Version:  4.1                                   |
|   \\  /    A nd           | Web:      www.OpenFOAM.org                      |
|    \\/     M anipulation  |                                                 |
\*---------------------------------------------------------------------------*/
FoamFile
{
    version     2.0;
    format      ascii;
    class       volScalarField;
    location    "17";
    object      p;
}
// * * * * * * * * * * * * * * * * * * * * * * * * * * * * * * * * * * * * * //

dimensions      [0 2 -2 0 0 0 0];

internalField   nonuniform List<scalar> 
1680
(
170.073
-53.4365
-44.1414
-50.0078
-62.573
-49.5714
-43.6262
-42.6755
-37.2132
-35.027
-33.1425
-31.2165
-29.6949
-28.8657
-28.5542
-27.9902
-27.8094
-29.128
-26.2971
-34.4718
-25.7441
-53.6172
-22.7767
-24.6712
-23.4891
-22.029
-20.8887
-19.8523
-18.0024
-17.5598
-14.1041
-41.6135
-23.2729
-23.4505
-22.2745
-21.7302
-20.4316
-20.8088
-16.5646
-20.7828
-66.5633
-41.2297
-37.8064
-18.4928
-23.7056
-23.2715
-19.457
-10.4735
-13.033
-12.5707
-10.8729
-10.834
-10.8045
-10.7867
-10.9284
-10.8491
-10.7835
-10.8558
-11.1697
-10.8063
118.751
133.001
114.19
135.379
106.875
96.4533
87.1119
73.5276
56.5998
40.2303
17.9772
11.2191
18.1765
41.583
7.27994
-57.1589
-55.1726
-23.1816
-8.03821
110.064
121.913
102.98
132.542
98.7819
88.2449
79.3177
68.2054
52.4514
37.7143
18.0456
12.6705
18.0066
40.6774
-0.604141
-66.3331
-52.7306
-23.1373
-11.3943
89.7871
108.885
89.1185
127.541
86.4843
77.2397
69.3755
62.2729
48.1772
35.1597
17.8576
13.6274
17.1567
36.8808
-6.29932
-70.0059
-50.3873
-25.6213
-10.8658
57.3367
94.0442
72.1674
119.61
68.1362
62.4909
56.4803
55.5608
43.737
32.5589
17.4113
14.154
16.1015
31.8514
-7.04135
-70.6147
-48.3809
-28.3111
-6.18314
12.54
78.435
51.6645
108.335
41.8445
42.9264
39.6064
47.8566
39.0706
29.9169
16.7403
14.3198
14.9815
26.9857
-7.9659
-68.0099
-47.0894
-29.4881
-9.64454
-45.4246
62.7993
26.7067
93.1012
6.02263
17.7745
17.7417
38.9752
34.1357
27.2209
15.8757
14.2123
13.9407
22.6524
-9.00419
-63.8266
-45.8696
-29.4764
-25.0144
-118.281
46.4135
-4.62077
73.0556
-38.1064
-11.6229
-8.15395
29.0175
28.8667
24.4779
14.861
13.9127
12.9965
18.9856
-9.09103
-58.8583
-43.8683
-30.1089
-27.7368
-209.791
28.2436
-46.4911
50.8265
-73.3812
-34.1334
-30.9397
18.364
23.3646
21.6724
13.6973
13.4939
12.178
16.0983
-8.64365
-53.5638
-41.4733
-30.5622
-27.3441
-342.086
9.00714
-104.531
33.1639
-83.0096
-40.0849
-33.6822
10.3992
17.6029
18.8057
12.4057
12.9928
11.4149
13.7705
-8.25551
-48.7612
-39.1137
-30.4251
-26.9463
-530.887
-11.7149
-169.038
16.963
-82.3945
-35.2722
-30.5497
5.23429
11.7708
15.8802
10.9619
12.472
10.8631
12.2148
-7.6431
-44.6067
-36.8379
-30.8666
-26.7899
-819.019
-37.2943
-230.932
-2.70769
-80.852
-33.5887
-32.3458
3.83351
6.46905
12.8134
9.32543
11.9248
10.2847
10.7642
-7.54481
-41.5502
-35.2283
-31.4535
-27.2223
-1169.87
-71.5709
-293.499
-24.687
-83.2441
-33.1771
-30.4213
3.22158
3.64235
9.92463
7.47989
11.442
10.2275
10.5215
-6.40249
-38.4415
-33.6752
-32.0527
-28.4009
-1755.43
-124.782
-360.809
-45.5658
-87.0671
-33.0075
-28.3448
2.25064
4.58105
6.98143
5.31666
10.9474
9.77164
9.14719
-7.40565
-37.7174
-33.6591
-33.7666
-32.2911
-2287.47
-199.392
-409.962
-58.5732
-91.2588
-32.6718
-27.6208
1.75659
3.43113
4.09139
2.65516
10.6002
10.8731
11.239
-3.82095
-33.7766
-31.9359
-34.5219
-38.0701
-3673.54
-281.438
-444.944
-57.9752
-94.4069
-29.4008
-26.7971
0.905905
1.06836
5.05498
0.226581
10.0689
9.96806
7.58465
-9.81134
-39.0452
-35.9354
-39.4421
-46.4707
-3960.61
-512.44
-571.473
-54.1217
-100.037
-26.5855
-28.7164
-1.37188
-3.32366
2.05492
-2.36122
9.87164
14.3332
16.9705
4.56794
-25.5767
-28.6425
-36.0454
-53.3864
-8069.56
-805.897
-618.65
-50.2108
-98.1177
-22.2121
-27.3273
-2.45272
-3.84481
0.346684
-2.48926
8.8141
9.46105
0.799016
-24.953
-56.6034
-48.9563
-54.5117
-65.1611
-3528.29
-205.433
1.97641
-28.8413
-67.9036
-12.6993
-18.3791
-0.955118
-1.25679
0.599283
0.93516
9.8614
24.9245
38.699
40.4521
11.3081
-6.87007
-19.738
-60.6933
-17830
-121.869
-300.97
-21.5594
-148.931
-25.0534
-47.1462
-6.74461
-11.2276
-3.77091
0.475619
2.40299
-2.75028
-35.9251
-100.991
-147.426
-109.738
-115.571
-79.7085
19495.4
-6001.19
-2419.99
-67.1494
-317.348
-44.8111
-81.6334
-14.9873
-22.9315
-9.4143
-0.944503
18.3754
59.2311
113.287
213.391
238.791
136.082
164.352
-10.6549
81.6395
81.0559
80.7208
79.8168
78.8946
77.905
76.8923
75.8457
74.7957
73.7578
72.6995
71.7359
70.6054
69.3549
68.222
67.1146
66.1417
65.0862
64.4203
63.1092
61.0794
61.5824
61.7957
62.0476
62.2351
62.3604
62.4529
62.485
62.4902
62.4425
62.3728
62.2652
62.1084
61.9223
61.729
61.5054
61.3049
61.0688
60.8746
60.6023
70.2398
69.9471
69.8006
69.5965
69.434
69.2429
69.0683
68.8766
68.6918
68.4939
68.3009
68.0931
67.8966
67.6788
67.4769
67.2495
67.054
66.814
66.6458
66.3408
67.2033
67.2216
67.2308
67.2231
67.229
67.2102
67.2013
67.1737
67.1508
67.1135
67.0787
67.031
66.9874
66.9287
66.8803
66.81
66.7613
66.6804
66.6329
66.5264
69.2911
69.1817
69.1421
69.0603
69.0095
68.9366
68.8803
68.8115
68.7521
68.6846
68.6238
68.5554
68.4948
68.4236
68.3655
68.2889
68.2368
68.1514
68.1102
67.9988
69.3188
69.2651
69.2519
69.2067
69.1855
69.1443
69.117
69.0777
69.0464
69.0074
68.9737
68.9334
68.8992
68.8559
68.8236
68.7748
68.7478
68.6902
68.6729
68.5983
70.1825
70.1102
70.0895
70.0337
70.0039
69.955
69.9205
69.8755
69.8386
69.7956
69.7579
69.7152
69.6782
69.634
69.6001
69.5517
69.524
69.4676
69.4513
69.3789
70.6861
70.6253
70.6092
70.5612
70.537
70.4949
70.4661
70.4274
70.396
70.3591
70.3265
70.29
70.2579
70.2199
70.1905
70.1485
70.125
70.0751
70.0625
69.9982
71.3083
71.2468
71.2297
71.1816
71.1566
71.1147
71.0854
71.0472
71.0155
70.9794
70.9468
70.9114
70.8793
70.8429
70.8135
70.7734
70.7499
70.7022
70.6897
70.628
71.8525
71.795
71.7791
71.7339
71.7105
71.6711
71.6435
71.6076
71.5777
71.544
71.513
71.48
71.4493
71.4156
71.3872
71.3501
71.3274
71.2828
71.2708
71.2126
72.3975
72.342
72.3263
72.2827
72.2598
72.2219
72.1951
72.1606
72.1315
72.0992
72.069
72.0377
72.0075
71.9758
71.9477
71.9129
71.8902
71.8482
71.836
71.7805
72.9109
72.8583
72.8432
72.8017
72.7797
72.7437
72.718
72.6852
72.6574
72.6267
72.5976
72.5682
72.5388
72.5094
72.4816
72.4495
72.4268
72.3877
72.3753
72.3226
73.4058
73.3556
73.3408
73.3013
73.28
73.2456
73.2209
73.1896
73.1628
73.1336
73.1055
73.0778
73.0492
73.0218
72.9943
72.9648
72.9419
72.9057
72.893
72.8432
73.8785
73.8312
73.8166
73.779
73.7585
73.7256
73.7019
73.672
73.6462
73.6185
73.5913
73.5652
73.5373
73.5119
73.4845
73.4577
73.4343
73.4013
73.3879
73.341
74.33
74.2859
74.2718
74.2365
74.2171
74.1859
74.1636
74.1353
74.1108
74.0845
74.0586
74.0339
74.0069
73.9834
73.9561
73.9321
73.9078
73.8782
73.8637
73.8199
74.749
74.7083
74.6947
74.662
74.6444
74.6152
74.5947
74.5689
74.5462
74.5224
74.4986
74.476
74.4512
74.4301
74.4038
74.3835
74.3585
74.3334
74.3176
74.2779
75.1439
75.1065
75.0918
75.0595
75.0432
75.0147
74.9945
74.9701
74.948
74.9253
74.9029
74.8814
74.8586
74.8392
74.8146
74.7986
74.7728
74.7545
74.7385
74.7042
75.5434
75.516
75.5047
75.4722
75.4592
75.4336
75.4138
75.3913
75.369
75.3461
75.3225
75.2986
75.2734
75.2495
75.2212
75.2009
75.1667
75.1515
75.1253
75.0875
75.8174
75.8083
75.8234
75.8027
75.8029
75.7955
75.7908
75.7856
75.7799
75.7735
75.7658
75.7563
75.7442
75.7294
75.7091
75.6881
75.6495
75.6282
75.5562
75.4992
75.7827
75.7244
75.7625
75.7732
75.7907
75.8084
75.8273
75.848
75.8706
75.8957
75.9235
75.9546
75.9893
76.0281
76.0716
76.1206
76.1733
76.2419
76.2832
76.4464
-10.7801
-11.0691
-11.0319
-11.0336
-11.0357
-11.104
-10.8307
-10.9721
-10.6059
-10.2448
-13.3162
-11.8414
-9.45057
-20.4288
-23.5054
-19.4321
-12.0187
-41.5457
-30.9183
-30.3859
-47.547
-41.6479
-39.3293
-35.0235
-31.2776
-26.3718
-20.4776
-21.9258
-13.4994
-3.03745
0.623515
2.79659
4.32098
4.68372
4.45073
2.47286
-5.79028
-18.4383
-36.3173
-28.7019
-31.5287
-18.6168
-38.3862
-29.8283
-36.3685
-28.4145
-17.7602
-31.9685
-24.1305
-26.701
-21.9349
-17.5358
-25.072
-21.9348
-23.0231
-27.8468
-27.8611
-28.3141
-28.322
-28.377
136.567
132.826
133.683
130.315
128.33
124.674
115.162
93.1028
78.6436
80.9086
72.7729
57.065
57.5656
72.1295
64.8369
1.21904
-85.6021
-84.387
-40.7404
136.544
132.57
133.748
130.303
128.245
124.494
114.837
92.2184
77.816
80.4793
71.871
55.3461
56.143
70.9103
62.9535
-1.59167
-90.9417
-90.6113
-42.9226
136.453
131.92
133.717
130.369
127.844
123.867
114.415
92.2613
77.7181
79.1247
67.8236
51.7122
53.5025
68.0764
59.1705
-6.37451
-98.0405
-100.743
-47.9419
136.374
131.104
133.379
130.403
127.457
123.032
114.491
94.0962
79.5504
77.7895
62.7497
46.9239
49.385
63.6767
53.8105
-12.6066
-106.501
-111.786
-53.3831
136.771
130.302
133.089
130.42
127.116
122.292
114.782
96.7438
82.4381
76.6811
57.1977
41.067
43.8279
57.8101
47.3114
-19.7076
-115.03
-122.511
-59.0569
137.899
129.417
132.958
130.439
126.799
121.688
115.261
99.0434
84.6822
75.3136
51.0227
34.2935
37.1614
50.9185
40.2556
-27.0067
-122.954
-132.003
-65.7623
139.425
128.171
132.979
130.51
126.557
121.224
115.886
101.119
86.3143
73.6467
44.5089
27.1744
30.0465
43.6503
33.1969
-33.8838
-129.429
-139.433
-71.3426
140.503
126.383
132.714
130.708
126.288
120.905
116.514
103.039
87.3519
71.6912
38.1638
20.4796
23.264
36.6833
26.606
-39.7377
-133.796
-144.27
-75.5501
140.5
124.55
131.645
130.974
125.98
120.735
116.882
104.635
87.7684
69.4497
32.5779
14.7197
17.305
30.3665
20.8472
-43.8839
-135.781
-145.888
-77.8666
139.732
123.089
130.119
131.126
125.86
120.526
116.952
105.441
87.536
66.9731
28.0544
9.9237
12.1562
24.7995
16.1658
-45.8604
-134.834
-144.736
-77.3351
138.606
122.16
129.022
131.187
125.692
120.056
116.563
105.121
86.6577
64.3424
24.3941
5.9596
7.71554
20.3298
12.8284
-45.7252
-131.115
-140.707
-75.8162
137.33
122.413
128.751
131.207
125.151
119.237
115.421
103.982
85.2103
61.6912
21.329
2.95164
4.39523
17.8022
11.1612
-43.5727
-125.581
-134.744
-70.6686
135.979
124.387
129.433
131.328
124.303
118.314
113.974
102.175
83.2802
59.129
19.0048
1.18875
2.75122
17.731
11.2216
-39.8735
-117.826
-126.003
-69.5656
134.578
127.693
130.937
131.804
123.316
117.427
112.559
99.9286
80.9826
56.8141
17.682
0.648096
2.72796
19.4278
12.613
-35.9954
-112.942
-117.935
-59.1206
133.025
131.612
132.889
132.685
122.254
116.337
110.921
97.3418
78.3449
54.6537
17.1672
0.904129
3.81231
22.0428
14.4797
-32.6356
-103.128
-108.38
-54.8998
131.163
135.866
134.639
133.725
121.139
114.949
108.775
94.3393
75.3388
52.3893
16.9057
1.79848
5.70499
25.1592
16.0341
-31.6577
-88.5332
-88.5716
-33.1121
129.6
140.097
135.094
134.868
119.838
113.092
106.008
90.9054
72.0196
50.033
16.847
3.15567
8.30173
28.7256
16.846
-32.9514
-74.9142
-65.686
-17.6057
129.003
143.757
133.52
136.007
118.121
110.563
102.574
87.0738
68.428
47.6333
17.0213
4.96176
11.4076
32.7132
16.9511
-35.8702
-64.7934
-45.7406
-12.9264
128.384
144.839
129.614
136.722
115.717
107.162
98.404
82.896
64.6147
45.19
17.3472
7.09246
14.5019
36.8763
16.0997
-40.1642
-59.3226
-32.3365
-11.7582
125.026
141.586
123.09
136.638
112.193
102.587
93.3403
78.3924
60.6551
42.7191
17.7067
9.28485
16.9004
40.1679
13.1886
-47.0266
-56.6002
-24.9829
-9.99469
689.397
607.125
558.164
502.158
453.311
406.151
362.261
320.765
281.665
244.675
209.629
176.346
144.659
114.566
86.1963
58.7996
32.4026
10.894
-13.5133
-50.3197
8.57171
-13.9728
-5.81363
-16.8554
-19.4691
-26.0205
-30.804
-35.9121
-40.2697
-44.1128
-47.183
-49.4226
-50.7073
-50.899
-49.7163
-47.1818
-43.9431
-40.234
-37.0872
-36.1713
-13.8519
-21.7846
-14.2473
-22.0394
-20.8247
-25.067
-27.2665
-30.796
-34.0985
-37.7341
-41.4027
-45.1422
-48.7808
-52.1014
-54.7047
-56.1743
-56.7773
-57.3961
-58.7233
-58.7836
-32.0522
-37.4571
-35.7659
-42.996
-43.4392
-48.7442
-51.3427
-55.3605
-58.5599
-61.9554
-65.0197
-67.8963
-70.4147
-72.3794
-73.5123
-73.5064
-73.0365
-72.2032
-71.7267
-69.6803
-52.312
-54.9289
-51.8466
-55.2372
-52.218
-54.1293
-52.5929
-52.8426
-52.0153
-51.4495
-50.6081
-49.6627
-48.573
-47.2868
-45.793
-43.8712
-41.7613
-39.1108
-36.7333
-33.1637
-26.8828
-26.5585
-22.6378
-23.8332
-19.7184
-19.8329
-16.9953
-15.7289
-13.6682
-11.8223
-9.88071
-7.89999
-5.90541
-3.883
-1.86902
0.197663
2.23293
4.47959
6.36749
8.8264
2.00994
3.42205
6.49225
5.97193
9.47093
9.60468
12.139
13.1943
14.9304
16.2467
17.4956
18.4555
19.0835
19.3614
19.4545
19.6686
20.4228
21.7334
22.9296
23.9179
19.8978
20.609
22.1358
21.3186
23.367
22.7396
24.117
23.9647
24.5065
24.3575
24.2153
23.777
23.2571
22.6687
22.1124
21.6048
21.1554
20.5523
20.4265
19.3334
21.4213
18.9556
19.4184
17.0498
17.5868
15.704
15.7527
14.3968
13.9032
12.7706
11.8132
10.4295
8.74489
6.50293
3.80887
0.801803
-1.85081
-2.95468
-3.71574
-7.72417
-24.7514
-30.4777
-31.737
-36.3414
-38.3614
-42.7032
-45.5839
-49.823
-53.3534
-57.4023
-60.8814
-64.1569
-66.7796
-68.8528
-70.1839
-70.9021
-71.0465
-70.6885
-71.2253
-71.4939
-64.4868
-68.9449
-69.232
-72.2451
-73.0289
-75.6864
-76.8543
-79.0225
-80.3268
-81.778
-82.5715
-83.0181
-82.9774
-82.6106
-81.9759
-81.1069
-80.1181
-78.8386
-77.6624
-74.4591
-59.8216
-59.9168
-58.5497
-58.9475
-57.5831
-57.6047
-56.5048
-56.0977
-55.2393
-54.5567
-53.7162
-52.8264
-51.8285
-50.6862
-49.3981
-47.7845
-45.9607
-43.1288
-40.6907
-37.2084
-34.2821
-32.1518
-29.8718
-28.6746
-26.5539
-25.2931
-23.4434
-21.9595
-20.3132
-18.7426
-17.1638
-15.5803
-13.9933
-12.3632
-10.7197
-8.98321
-7.3077
-5.4581
-4.07014
-2.00426
-14.2728
-11.819
-9.6123
-8.01495
-6.08846
-4.76726
-3.14693
-1.80541
-0.425494
0.874953
2.13624
3.37314
4.58501
5.80118
7.00416
8.26142
9.46702
10.833
11.8329
13.2666
5.31554
7.64397
9.07679
10.4788
11.9227
12.9936
14.2874
15.3815
16.5406
17.6657
18.7958
19.9295
21.0584
22.1743
23.283
24.4231
25.5568
26.8199
27.716
28.8914
27.0137
28.7761
29.5112
30.7049
31.6918
32.6168
33.6525
34.4929
35.2756
35.7898
36.0046
35.8053
35.1547
34.1472
33.1458
32.5477
32.7871
33.4043
34.0726
34.0423
36.9282
37.343
36.3885
36.4583
36.1822
35.7334
35.1199
34.2578
33.2434
31.9931
30.5987
29.0677
27.4453
25.7787
24.2313
23.0514
22.3772
21.8545
21.9561
20.7503
41.374
39.1231
36.3878
34.3752
32.3804
30.7042
29.2842
27.8376
26.2962
24.5249
22.4722
19.9891
17.0226
13.6788
10.2947
7.30364
5.16954
4.45595
4.5349
1.39894
-2.64755
-6.62618
-10.0923
-13.3615
-16.7088
-20.2099
-24.039
-28.1216
-32.1823
-36.0096
-39.4671
-42.4828
-44.8769
-46.4925
-47.2455
-47.1061
-46.2289
-45.0579
-44.4745
-45.658
-15.8169
-17.2033
-17.2958
-17.9349
-20.0296
-22.9706
-26.3562
-29.7582
-32.8081
-35.4797
-37.5439
-39.2904
-40.5078
-40.9825
-40.8728
-40.3559
-39.7309
-39.2216
-39.2456
-38.9223
)
;

boundaryField
{
    outletWallLeft
    {
        type            fixedValue;
        value           uniform 0;
    }
    fineWallsLeft
    {
        type            zeroGradient;
    }
    fineFrontAndBackLeft
    {
        type            zeroGradient;
    }
    fineplugLeft
    {
        type            cyclicAMI;
        value           nonuniform List<scalar> 
20
(
60.1628
65.4126
60.0213
58.9192
58.4179
57.9182
57.3361
56.7061
56.2361
55.4943
55.3388
58.5695
51.8298
50.7938
50.1227
49.3457
48.8271
47.9072
48.2233
46.3308
)
;
    }
    symmetryWallLeft
    {
        type            cyclicAMI;
        value           nonuniform List<scalar> 
20
(
-10.7932
-9.01645
-24.0822
-55.8864
-52.0927
10.2343
40.8754
17.5385
10.252
17.8419
41.4747
58.6275
75.96
90.2261
99.5199
109.534
136.009
118.64
137.294
121.888
)
;
    }
    inletOutletLeft
    {
        type            cyclicAMI;
        value           nonuniform List<scalar> 
20
(
46.3308
48.2233
47.9072
48.8271
49.3457
50.1227
50.7938
51.8298
58.5695
55.3388
55.4943
56.2361
56.7061
57.3361
57.9182
58.4179
58.9192
60.0213
65.4126
60.1628
)
;
    }
    inletLeft
    {
        type            zeroGradient;
    }
    inletWallsLeft
    {
        type            zeroGradient;
    }
    inletFacesLeft
    {
        type            zeroGradient;
    }
    fineWallsRight
    {
        type            zeroGradient;
    }
    outletWallRight
    {
        type            zeroGradient;
    }
    fineplugRight
    {
        type            cyclicAMI;
        value           nonuniform List<scalar> 
20
(
-40.6473
-39.726
-39.2431
-38.7894
-38.5403
-37.9726
-36.8815
-36.7914
-36.2946
-30.6426
-28.2591
-25.6872
-22.9424
-20.1482
-17.4863
-15.5291
-15.506
-17.5243
-19.4235
-18.3939
)
;
    }
    fineFrontAndBackRight
    {
        type            zeroGradient;
    }
    symmetryWallRight
    {
        type            cyclicAMI;
        value           nonuniform List<scalar> 
20
(
-10.7932
-9.01645
-24.0822
-55.8864
-52.0927
10.2343
40.8754
17.5385
10.252
17.8419
41.4747
58.6275
75.96
90.2261
99.5199
109.534
136.009
118.64
137.294
121.888
)
;
    }
    inletOutletRight
    {
        type            cyclicAMI;
        value           nonuniform List<scalar> 
20
(
-40.6473
-39.726
-39.2431
-38.7894
-38.5403
-37.9726
-36.8815
-36.7914
-36.2946
-30.6426
-28.2591
-25.6872
-22.9424
-20.1482
-17.4863
-15.5291
-15.506
-17.5243
-19.4235
-18.3939
)
;
    }
    inletRight
    {
        type            zeroGradient;
    }
    inletWallsRight
    {
        type            zeroGradient;
    }
    inletFacesRight
    {
        type            zeroGradient;
    }
}


// ************************************************************************* //
