/*--------------------------------*- C++ -*----------------------------------*\
| =========                 |                                                 |
| \\      /  F ield         | OpenFOAM: The Open Source CFD Toolbox           |
|  \\    /   O peration     | Version:  4.1                                   |
|   \\  /    A nd           | Web:      www.OpenFOAM.org                      |
|    \\/     M anipulation  |                                                 |
\*---------------------------------------------------------------------------*/
FoamFile
{
    version     2.0;
    format      ascii;
    class       surfaceScalarField;
    location    "17";
    object      phi;
}
// * * * * * * * * * * * * * * * * * * * * * * * * * * * * * * * * * * * * * //

dimensions      [0 3 -1 0 0 0 0];

internalField   nonuniform List<scalar> 
3120
(
-1688.95
-24821.3
-1688.96
3515.75
-5204.71
3515.74
4581.76
-1066.01
4187.3
394.445
4187.31
3674.19
513.119
2762.75
911.444
2762.75
2040.14
722.616
2040.14
1574.52
465.639
1500.66
73.8697
1500.66
2706.23
-1205.55
2706.23
4492.9
-1786.66
6025.2
-1532.31
6025.2
6586.57
10265.6
-2703.9
11250.7
12211.1
13173.4
14143.1
15120.4
16103.9
17093.3
18087.9
19089.3
17755.7
2332.74
18777.3
19807.4
20843
21884.2
22928.7
23994.7
25106.2
25896.5
19469.7
6426.72
19469.7
19469.7
11969.2
7500.51
11969.2
11969.2
11969.2
4749.1
7220.11
4749.1
4749.1
-144.532
4893.75
-144.248
-143.932
-143.831
-650.531
506.74
-650.506
-650.47
-650.462
-223.486
-426.92
-5992.4
31717.5
-4877.43
14304.4
-1532.23
-18143.2
2719.36
-30678.3
4557.14
-17657.9
4891.09
-4619.89
4560.89
6452.92
4353.78
10685.3
4460.32
12368.6
4803.46
13349.2
4877.45
11437.3
4261.82
7015.87
1931.74
3299.31
-1920.94
3061.72
-6045.6
7486.19
-7983.62
-3247.97
-8039.99
-14197
-4572.47
-10681.1
-3603.23
-6581.63
37905.3
-5174.23
12897
-1294.42
-22023
3645.14
-35617.8
5639.62
-19652.4
5819.98
-4800.25
5186.05
7086.85
4725.52
11145.8
4678.02
12416.1
5006.72
13020.5
5170.78
11273.3
4683.49
7503.16
3212.92
4769.87
-97.706
6372.35
-3372.23
10760.7
-5575.83
-1044.37
-7918.06
-11854.8
-6990.66
-11608.5
-10087.1
-6863.62
44496.3
-5249.83
11283.2
-684.961
-26587.9
4793.24
-41096
6926.53
-21785.7
6930.74
-4804.46
5935.9
8081.68
5180.55
11901.2
4909.34
12687.3
5118
12811.8
5299.67
11091.6
4936.17
7866.67
4122.89
5583.14
1687.84
8807.4
20.3037
12428.3
-2631.69
1607.62
-6153.61
-8332.89
-7915.14
-9846.99
-13108.5
-7001.13
51352
-5012.81
9294.88
386.004
-31986.7
6138.11
-46848.1
8372.54
-24020.1
8217.11
-4649.03
6829.79
9469
5740.91
12990
5200.33
13227.8
5206.38
12805.8
5313.38
10984.6
5029.88
8150.18
4571.02
6042
3257.04
10121.4
1949.46
13735.8
-438.923
3996.01
-3942.77
-4829.04
-7286.08
-6503.68
-13174.5
-7033.61
58370
-4400.59
6661.86
1901.45
-38288.8
7564.55
-52511.2
9794.28
-26249.9
9578.27
-4433.02
7865.81
11181.5
6427.77
14428.1
5578.36
14077.3
5326.93
13057.2
5285.9
11025.6
5031.25
8404.82
4716.49
6356.77
4374.1
10463.8
3501.36
14608.6
1501.27
5996.09
-1210.41
-2117.37
-4859.97
-2854.13
-10533.9
-6973.37
65460.7
-3451.42
3139.9
3714.88
-45455
8764.16
-57560.5
10594.4
-28080.1
10584.3
-4422.91
8947.62
12818.2
7260.15
16115.6
6073.61
15263.8
5518.45
13612.4
5278.96
11265.1
5009.3
8674.49
4729.5
6636.56
5006.72
10186.5
4768.2
14847.1
3100.36
7663.93
1322.1
-339.107
-1211.55
-320.473
-5318.77
-6967.5
72684.3
-2228.31
-1599.29
5526.3
-53209.7
8978.74
-61013
9194.27
-28295.7
9857.87
-5086.52
9651.17
13024.9
8209.77
17557
6724.7
16748.9
5813.48
14523.6
5327.48
11751.1
4999.93
9002.04
4723.14
6913.35
5273.76
9635.93
5578.44
14542.4
4358.03
8884.33
2612
1406.92
1971.07
320.439
-1014.98
-7382.95
80474.4
-1163.29
-7818.96
6892.31
-61265.3
7161.68
-61282.3
3367.73
-24501.7
5154.19
-6872.98
9007.69
9171.36
9076.39
17488.3
7566.7
18258.6
6256.08
15834.2
5454.34
12552.9
5011.59
9444.79
4739.09
7185.85
5335.22
9039.8
5934.49
13943.1
5140.22
9678.6
3637.86
2909.3
3153.13
805.169
-565.752
-8091.75
89169.6
-1373.28
-14537.4
7425.91
-70064.5
3321.2
-57177.6
-3980.79
-17199.7
-780.855
-10072.9
6900.38
1490.13
9481.7
14906.9
8562.63
19177.6
6908.35
17488.5
5698.73
13762.5
5061.56
10081.9
4782.36
7465.05
5316.12
8506.03
5976.18
13283.1
5427
10227.8
4238.17
4098.12
2976.57
2066.76
878.474
-9105.35
99118
-2112.29
-21530.5
7131.59
-79308.3
-8.13505
-50037.9
-6203.43
-11004.4
-3778.28
-12498.1
2783.56
-5071.71
8588.92
9101.57
9367.29
18399.3
7778.17
19077.6
6121.7
15419
5181.24
11022.4
4843.56
7802.74
5283.9
8065.7
5865.17
12701.8
5409.24
10683.7
4309.3
5198.06
3108.2
3267.86
2200.02
-10506.3
110779
-3091.29
-28945.5
6329.62
-88729.2
-1517.36
-42190.9
-5895.99
-6625.79
-4444.29
-13949.8
-225.891
-9290.11
6283.68
2592
9399.24
15283.7
8660.88
19816
6747.9
17331.9
5430.44
12339.9
4948.25
8284.92
5271.9
7742.05
5705.06
12268.7
5220.88
11167.9
4115.95
6302.98
2866.66
4517.14
3861.1
-12148.9
124388
-4353.97
-36740.5
5156.62
-98239.8
-2742.17
-34292.1
-5330.82
-4037.14
-4437.16
-14843.4
-3406.07
-10321.2
2158.4
-2972.46
8327.05
9115.04
9287.69
18855.4
7520.33
19099.3
5832.23
14028
5107.55
9009.61
5281.78
7567.82
5546.78
12003.7
4963.51
11751.2
3810.26
7456.24
2458.18
5869.22
6393.15
-14286.4
140603
-6066.98
-44959.8
3491.51
-107798
-4434.04
-26366.6
-5108.22
-3362.96
-3856.07
-16095.6
-3428.99
-10748.3
-57.0583
-6344.4
6356.38
2701.61
9243.36
15968.4
8220.09
20122.6
6397.2
15850.9
5415.4
9991.4
5358.2
7625.02
5381.85
11980
4632
12501
3406.93
8681.3
1954.7
7321.44
8813.47
-16647.6
159471
-8331.19
-53276.2
1368.04
-117498
-5647.27
-19351.3
-4318.8
-4691.43
-3291.13
-17123.3
-2789.8
-11249.6
-2220.31
-6913.88
3219.93
-2738.63
8340.51
10847.8
8639.49
19823.6
7002.97
17487.4
5807.31
11187.1
5470.46
7961.87
5228.57
12221.9
4307.87
13421.7
3028.84
9960.34
1523.8
8826.48
11059.9
-19560.3
182141
-11231.9
-61604.6
-966.603
-127763
-5637.93
-14679.9
-2655.31
-7674.05
-3007.57
-16771
-2132.54
-12124.6
-2264.53
-6781.9
1685.84
-6689
6936.15
5597.49
8638.89
18120.8
7653.05
18473.2
6459.81
12380.3
5736.62
8685.06
5019.99
12938.5
3824.59
14617.1
2514.03
11270.9
1016.28
10324.2
12987.6
-20742.8
205865
-12918.9
-69428.5
-2873.75
-137808
-4985.63
-12568
-1299.11
-11360.6
-2767.9
-15302.2
-1540.56
-13352
-1797
-6525.45
318.714
-8804.71
4935.64
980.562
8123.91
14932.6
8037.93
18559.2
6971.45
13446.8
5943.26
9713.26
4895.49
13986.3
3562.12
15950.5
2283.88
12549.1
880.342
11727.8
14381.1
-14746.8
226006
-8983.53
-75191.8
-3787.77
-143004
-4699.31
-11656.5
-970.16
-15089.7
-2609.31
-13663.1
-1291.16
-14670.1
-1616.95
-6199.66
-1555.29
-8866.37
2123.8
-2698.52
7157.01
9899.37
8413.71
17302.5
7708.49
14152
6131.08
11290.7
4289.99
15827.4
2562.29
17678.2
1381.19
13730.2
162.441
12946.5
14937.9
-3274.36
231589
5853.31
-84319.5
-3601.26
-133549
-5617.53
-9640.25
-956.757
-19750.5
-2468.41
-12151.4
-1164.12
-15974.4
-1212.4
-6151.38
-1216.77
-8862.01
1066.2
-4981.5
5749.32
5216.26
8074.58
14977.2
8141.87
14084.7
6897.45
12535.1
5267.26
17457.6
3724.72
19220.7
2634.03
14820.9
1309.62
14270.9
15181.6
32522
209800
19713.1
-71510.6
-8149.42
-105687
-9068.98
-8720.68
-1409.67
-27409.8
-2027.05
-11534
-1175.68
-16825.8
-782.484
-6544.58
-741.364
-8903.13
111.482
-5834.34
4120.66
1207.08
7360
11737.9
6494.57
14950.1
2924.23
16105.4
-649.418
21031.2
-2883.35
21454.6
-3788.44
15726
-3579.36
14061.8
6397.49
-61459.1
16266.5
-10684.3
-7026.99
-1545.48
-582.207
-757.41
-190.829
-434.443
-1229.9
1251.38
7844.93
13675.5
17073.5
18963.7
19008.5
20126.9
16080.5
-24.2891
-537.065
43.9039
-1043.35
103.873
-1045.04
147.418
-1003.93
183.968
-998.822
213.495
-999.305
236.569
-1000.3
253.843
-1000.83
266.323
-1001.86
274.905
-1003.14
277.756
-1004.29
280.46
-1001.85
264.116
-1005.28
242.948
-1008.92
218.707
-1011.31
191.924
-1014.46
163.18
-1015.72
138.485
-1041.28
112.032
-1085.08
-678.224
49.8547
-586.917
60.424
-1053.92
49.5499
-1034.16
45.859
-1000.24
46.5337
-999.495
47.4537
-1000.22
48.281
-1001.13
48.8523
-1001.4
49.2635
-1002.27
48.96
-1002.83
48.4982
-1003.82
52.4582
-1005.8
53.0923
-1005.91
51.1386
-1006.97
47.6239
-1007.79
42.3745
-1009.21
36.4722
-1009.81
29.1253
-1033.93
18.5276
-1074.48
-659.696
30.5258
-617.442
35.667
-1059.06
30.771
-1029.27
30.4613
-999.927
30.8015
-999.835
30.7951
-1000.22
30.6205
-1000.95
30.2658
-1001.05
29.6269
-1001.63
28.7655
-1001.97
27.4286
-1002.49
24.4157
-1002.79
21.969
-1003.46
19.3195
-1004.32
16.2243
-1004.69
12.5737
-1005.56
8.40482
-1005.64
3.89712
-1029.42
-0.372096
-1070.21
-660.068
25.4507
-642.893
26.97
-1060.58
21.5358
-1023.83
19.5596
-997.951
18.1971
-998.473
16.7676
-998.788
15.2911
-999.475
13.79
-999.546
12.2417
-1000.08
10.5931
-1000.32
8.8921
-1000.79
7.34169
-1001.24
5.44873
-1001.57
3.29276
-1002.16
0.984927
-1002.39
-1.59298
-1002.99
-4.33456
-1002.9
-8.40531
-1025.35
-10.9084
-1067.71
-670.976
23.0506
-665.944
22.9446
-1060.47
17.851
-1018.74
15.777
-995.877
13.9943
-996.69
12.1309
-996.924
10.2272
-997.571
8.32075
-997.64
6.37865
-998.141
4.41559
-998.36
2.41107
-998.78
0.28428
-999.114
-1.81497
-999.47
-3.98628
-999.99
-6.17317
-1000.2
-8.44588
-1000.71
-10.8519
-1000.5
-15.225
-1020.97
-17.0689
-1065.86
-688.045
21.7691
-687.713
20.7151
-1059.42
15.907
-1013.93
13.8755
-993.845
12.0226
-994.837
10.119
-995.02
8.17373
-995.626
6.22995
-995.696
4.25788
-996.169
2.268
-996.37
0.259466
-996.772
-1.77015
-997.085
-3.8237
-997.416
-5.94342
-997.871
-8.05725
-998.086
-10.2164
-998.553
-12.4693
-998.243
-17.0441
-1016.4
-19.1289
-1063.78
-707.174
21.2919
-709.005
19.4367
-1057.56
14.8619
-1009.36
12.8743
-991.858
10.9959
-992.959
9.07676
-993.101
7.12295
-993.672
5.17794
-993.751
3.21041
-994.202
1.23798
-994.398
-0.746332
-994.787
-2.75614
-995.075
-4.759
-995.414
-6.80482
-995.825
-8.82649
-996.064
-10.8729
-996.507
-12.9605
-996.156
-17.3752
-1011.99
-19.9327
-1061.22
-727.107
20.9647
-729.969
18.438
-1055.03
14.1094
-1005.03
12.2259
-989.974
10.3901
-991.123
8.52437
-991.236
6.62381
-991.771
4.73329
-991.86
2.82022
-992.289
0.904591
-992.482
-1.0218
-992.861
-2.96521
-993.132
-4.90438
-993.474
-6.88237
-993.847
-8.83297
-994.114
-10.8072
-994.532
-12.7782
-994.185
-17.0092
-1007.75
-20.1374
-1058.09
-747.244
20.7675
-750.737
17.584
-1051.85
13.506
-1000.95
11.7144
-988.183
9.9276
-989.336
8.11807
-989.426
6.27555
-989.929
4.44435
-990.029
2.59098
-990.435
0.737849
-990.629
-1.12603
-990.997
-3.00407
-991.254
-4.87625
-991.602
-6.78297
-991.94
-8.66076
-992.236
-10.5648
-992.628
-12.4281
-992.321
-16.4233
-1003.76
-20.1439
-1054.37
-767.388
20.5899
-771.327
16.7722
-1048.03
12.9518
-997.128
11.2557
-986.487
9.52692
-987.607
7.78287
-987.682
6.00629
-988.152
4.24158
-988.265
2.45408
-988.648
0.668553
-988.843
-1.12915
-989.199
-2.93809
-989.445
-4.74311
-989.797
-6.57994
-990.103
-8.38865
-990.427
-10.2282
-990.789
-11.997
-990.553
-15.7477
-1000.01
-20.0654
-1050.05
-787.454
20.4353
-791.762
15.9885
-1043.59
12.4324
-993.572
10.8237
-984.878
9.15448
-985.938
7.476
-986.004
5.76586
-986.442
4.06781
-986.567
2.34644
-986.927
0.628654
-987.126
-1.10305
-987.468
-2.84318
-987.705
-4.58175
-988.059
-6.34903
-988.336
-8.0899
-988.686
-9.8659
-989.013
-11.5484
-988.87
-15.0455
-996.511
-19.9595
-1045.14
-807.413
20.2873
-812.05
15.217
-1038.51
11.9294
-990.285
10.4027
-983.351
8.79475
-984.33
7.18281
-984.392
5.53996
-984.799
3.90918
-984.936
2.25453
-985.272
0.604852
-985.476
-1.06077
-985.802
-2.73183
-986.033
-4.40465
-986.386
-6.10252
-986.638
-7.77682
-987.012
-9.48966
-987.3
-11.093
-987.267
-14.3332
-993.271
-19.8417
-1039.63
-827.255
20.1486
-832.198
14.4564
-1032.82
11.4411
-987.269
9.9903
-981.901
8.44487
-982.785
6.89964
-982.846
5.32419
-983.224
3.76058
-983.372
2.17263
-983.684
0.590677
-983.894
-1.0092
-984.202
-2.61141
-984.431
-4.21951
-984.778
-5.84787
-985.01
-7.4569
-985.403
-9.10615
-985.651
-10.6365
-985.737
-13.6179
-990.289
-19.7191
-1033.53
-846.974
20.0195
-852.218
13.7046
-1026.51
10.9641
-984.529
9.58475
-980.521
8.10393
-981.304
6.62667
-981.369
5.11937
-981.716
3.62361
-981.876
2.10321
-982.164
0.58898
-982.38
-0.944725
-982.668
-2.47796
-982.898
-4.02218
-983.233
-5.58046
-983.452
-7.12596
-983.857
-8.71093
-984.066
-10.1744
-984.273
-12.898
-987.566
-19.5889
-1026.84
-866.563
19.9101
-872.128
12.9649
-1019.56
10.5011
-982.065
9.18951
-979.21
7.77512
-979.889
6.36725
-979.961
4.92809
-980.277
3.50018
-980.448
2.0478
-980.711
0.600409
-980.932
-0.86673
-981.201
-2.33126
-981.433
-3.81231
-981.752
-5.29907
-981.965
-6.78291
-982.373
-8.3014
-982.547
-9.70321
-982.871
-12.1712
-985.098
-19.4454
-1019.57
-886.008
19.8437
-891.971
12.2549
-1011.97
10.0744
-979.884
8.83323
-977.968
7.48966
-978.546
6.15554
-978.627
4.78507
-978.907
3.42355
-979.087
2.03734
-979.325
0.651651
-979.547
-0.753353
-979.796
-2.15603
-980.031
-3.58039
-980.328
-5.00014
-980.545
-6.43087
-980.943
-7.88257
-981.096
-9.22997
-981.524
-11.4472
-982.881
-19.2845
-1011.73
-905.293
19.8668
-911.838
11.6131
-1003.72
9.74416
-978.015
8.60082
-976.825
7.34927
-977.294
6.11106
-977.389
4.82713
-977.623
3.54407
-977.804
2.23381
-978.015
0.913593
-978.226
-0.428855
-978.454
-1.7771
-978.683
-3.15489
-978.95
-4.52486
-979.175
-5.92934
-979.538
-7.33302
-979.692
-8.6672
-980.19
-10.6718
-980.876
-19.0369
-1003.36
-924.33
20.0761
-931.914
11.1013
-994.746
9.58912
-976.503
8.60404
-975.84
7.48237
-976.173
6.37063
-976.277
5.20194
-976.454
4.01671
-976.619
2.79893
-976.797
1.55762
-976.985
0.289102
-977.185
-0.997256
-977.396
-2.31841
-977.629
-3.63947
-977.854
-5.0204
-978.157
-6.37939
-978.333
-7.75889
-978.81
-9.59848
-979.036
-18.4199
-994.542
-942.749
20.7986
-952.713
11.0692
-985.016
9.96433
-975.398
9.25123
-975.127
8.35686
-975.278
7.43158
-975.352
6.42334
-975.446
5.35192
-975.547
4.2128
-975.658
3.00867
-975.781
1.74141
-975.918
0.416846
-976.072
-0.967384
-976.245
-2.38494
-976.436
-3.87413
-976.668
-5.32785
-976.879
-6.87834
-977.26
-8.53085
-977.384
-17.5625
-985.51
-960.312
22.2872
12.2711
11.8727
11.7458
11.4677
11.1158
10.6699
10.1228
9.46506
8.6841
7.76612
6.69452
5.44964
4.01325
2.34511
0.465926
-1.79371
-4.17753
-14.688
-223.313
-135.993
-86.8657
-134.625
-133.315
-132.892
-2782.46
2649.58
-2782.46
-2782.46
-2782.47
-8404.56
5622.1
-8404.57
-8404.57
-15954.8
7550.22
-15954.8
-15954.8
-15954.8
-23797.5
7842.7
-23797.5
-23797.5
-30465.5
6667.95
-30399.3
-30220.4
-29956.6
-29595.8
-29123
-28527.9
-27806.5
-26959.3
-31269.8
5282.12
-30192.3
-28993
-27674
-26232.3
-24660.2
-22945.3
-21096.4
-19231.2
-17637.1
-16551.8
-47.4782
-16200.1
-16200.1
-17185.7
985.559
-17189.7
4.00142
-17189.7
-16639.3
-550.33
-16639.3
-15432.6
-1206.78
-13508.4
-1924.19
-13508.4
-11000.7
-2507.7
-11000.7
-7972.51
-3028.19
-4763.83
-3208.68
-4763.84
-1500.41
-3263.45
960.274
-2460.7
960.248
1466.43
-506.202
1466.41
1466.41
985.542
-985.544
134.417
851.125
570.216
-435.801
785.85
-215.636
931.706
-145.857
1830.47
-898.765
3437.97
-1607.5
4086.51
-648.542
3389.48
697.033
1613.52
1775.96
-1533.8
3147.31
-3492.48
1958.68
-2636.22
-856.259
427.327
-3063.55
4565.91
-4138.58
8319.91
-3754
8354.1
-34.1959
3092.81
5261.28
4559.21
601.278
-1586.82
-675.086
2127.49
-1787.04
676.157
-1598.45
-404.232
-879.633
-864.674
-107.881
-1670.52
1359.87
-3075.24
2986.48
-2275.16
2386.06
1297.46
-832.904
4994.92
-3966.59
6281
-4663.48
2655.57
-3379.68
-2140.06
-496.043
-5947.18
3659.97
-8294.6
7269.69
-7363.73
8863.13
-1627.64
5920.72
8203.68
9973.72
294.025
-1880.85
-975.97
3397.48
-2208.28
1908.47
-2106.67
-505.849
-1534.56
-1436.78
-1077.41
-2127.67
-422.793
-3729.87
192.714
-2890.66
-1001.5
2491.67
-3386.05
7379.47
-4969.87
7864.82
-5235.43
2921.13
-4033
-3342.5
-1243.67
-8736.51
2701.5
-12239.8
6185.64
-10847.9
8046.58
-3488.58
6667.25
9583.01
14180.3
-24.4884
-1856.36
-994.243
4367.24
-2002.99
2917.21
-1930.65
-578.19
-1509.6
-1857.82
-1408.73
-2228.55
-1531.16
-3607.44
-2119.48
-2302.34
-3228.34
3600.54
-4427.74
8578.87
-5442.67
8879.76
-5690.4
3168.85
-4519.98
-4512.91
-1923.17
-11333.3
1708.86
-15871.8
5050.67
-14189.7
6885.12
-5323.03
6399.9
10068.2
17316.7
-657.474
-1198.89
-1386.69
5096.46
-1828.78
3359.31
-1503.31
-903.669
-1219.26
-2141.87
-1397.19
-2050.62
-1727.06
-3277.57
-2694.55
-1334.85
-3781.7
4687.69
-4704.22
9501.39
-5728.72
9904.26
-5936.87
3377
-4784.46
-5665.31
-2495.04
-13622.7
718.366
-19085.2
3838.8
-17310.1
5586.23
-7070.46
5652.07
10002.4
19760.1
-1772.43
573.535
-2439.42
5763.45
-1837.72
2757.61
-867.908
-1873.49
-758.792
-2250.99
-1244.37
-1565.04
-1676.63
-2845.3
-2674.27
-337.217
-3774.38
5787.81
-4774.4
10501.4
-5801.89
10931.7
-5838.09
3413.2
-4787.5
-6715.91
-2954.04
-15456.2
-243.542
-21795.7
2575.82
-20129.5
4215.11
-8709.75
4623.5
9593.97
21355.4
-2792.93
3366.46
-3383.77
6354.29
-1707.23
1081.07
-268.412
-3312.31
-294.616
-2224.78
-945.544
-914.114
-1585.9
-2204.95
-2603.27
680.154
-3683.28
6867.82
-4725.85
11544
-5568
11773.9
-5363.67
3208.87
-4576.86
-7502.72
-3329.04
-16704
-1158.29
-23966.5
1282.63
-22570.4
2783.9
-10211
3448.09
8929.78
22295.8
-3014.99
6381.45
-3560.72
6900.02
-1578.33
-901.314
-131.476
-4759.16
190.978
-2547.24
-424.508
-298.629
-1382.59
-1246.87
-2513.2
1810.77
-3537.3
7891.92
-4501.07
12507.7
-5005.78
12278.6
-4657.19
2860.27
-4318.15
-7841.76
-3656.61
-17365.6
-2013.12
-25609.9
-20.2955
-24563.2
1308.32
-11539.6
2209.88
8028.21
22581.5
-2606.32
8987.77
-3418.01
7711.71
-1751.59
-2567.74
-276.62
-6234.13
883.922
-3707.78
461.343
123.948
-912.987
127.456
-2323.22
3221
-3276.23
8844.93
-4068.13
13299.6
-4218.72
12429.2
-3975
2616.56
-4152.7
-7664.06
-3907.83
-17610.4
-2787.87
-26729.9
-1320.99
-26030.1
-165.105
-12695.5
867.938
6995.16
22242.6
-1934.46
10922.2
-3170.46
8947.71
-1894.14
-3844.06
-361.959
-7766.31
1073.83
-5143.57
1116.52
81.2516
-460.363
1704.34
-2014.07
4774.7
-2871.15
9702.01
-3453.08
13881.6
-3379.46
12355.6
-3424.07
2661.16
-3955.55
-7132.58
-3932.79
-17633.2
-3428.15
-27234.5
-2573.03
-26885.2
-1613.68
-13654.9
-413.326
5794.8
21279
-1232.87
12155.1
-2630.41
10345.3
-1635.13
-4839.35
-255.463
-9145.97
1080.39
-6479.42
1347
-185.359
-202.76
3254.1
-1591.93
6163.87
-2329.64
10439.7
-2714.05
14266
-2572.63
12214.2
-2805.39
2893.92
-3356.06
-6581.92
-3508.65
-17480.6
-3849.36
-26893.8
-3739.72
-26994.9
-2885.2
-14509.4
-1452.08
4361.67
19830.9
-667.322
12822.4
-1953.37
11631.3
-1073.32
-5719.4
119.103
-10338.4
1059.21
-7419.53
1476.83
-602.969
170.451
4560.48
-1066.03
7400.34
-1679.12
11052.8
-1902.33
14489.2
-1737.98
12049.8
-1895.53
3051.48
-2183.88
-6293.58
-2544.76
-17119.7
-3990.29
-25448.3
-4836.58
-26148.6
-3942.4
-15403.6
-2421.27
2840.53
18395.2
-320.98
13143.4
-1441.31
12751.6
-650.217
-6510.49
562.563
-11551.2
1110.53
-7967.5
1523.9
-1016.35
572.884
5511.49
-459.067
8432.3
-952.593
11546.3
-1050.52
14587.1
-851.607
11850.9
-892.235
3092.1
-881.698
-6304.12
-1338.01
-16663.4
-3914.69
-22871.6
-5910.57
-24152.7
-4955.47
-16358.7
-3099.02
984.086
15248.7
-120.246
13263.6
-1170.62
13802
-632.994
-7048.12
766.076
-12950.2
1224.91
-8426.33
1580.22
-1371.66
1000.66
6091.06
198.983
9233.97
-181.877
11927.2
-184.252
14589.5
59.7928
11606.8
-85.1022
3237
-50.3922
-6338.83
-476.777
-16237
-3853.92
-19494.5
-6960.51
-21046.1
-5800.85
-17518.3
-4045.94
-770.831
16484.8
47.3295
13216.3
-1060.5
14909.8
-848.013
-7260.6
729.099
-14527.4
1388.7
-9085.93
1772.98
-1755.94
1494.98
6369.05
890.176
9838.78
605.637
12211.7
680.27
14514.9
871.584
11415.5
596.463
3512.12
403.474
-6145.84
-271.414
-15562.1
-4023.84
-15742.1
-7988.9
-17081.1
-8237.34
-17269.9
-6747.68
-2260.49
16405.1
-67.1458
13283.5
-1207.84
16050.5
-1018.92
-7449.53
677.264
-16223.5
1627.83
-10036.5
2106.89
-2234.99
2065.28
6410.66
1632.82
10271.2
1401.41
12443.1
1528.25
14388
1621.15
11322.6
1221.52
3911.75
763.093
-5687.41
-576.045
-14223
-4424.81
-11893.3
-8373.78
-13132.1
-9983.73
-15659.9
-9231.4
-3012.82
15016.4
-998.983
14282.4
-1744.9
16796.5
-1043.55
-8150.88
768.72
-18035.8
1968.45
-11236.2
2512.18
-2778.72
2632.86
6289.99
2404.89
10499.2
2221.18
12626.8
2352.45
14256.8
2349.8
11325.3
1835.87
4425.68
1025.51
-4877.05
-1198.01
-11999.5
-4960.27
-8131.03
-8049.76
-10042.6
-10006.8
-13702.9
-9920.36
-3099.27
12646.3
-2640.51
16923
-2621.1
16777
-1103.83
-9668.15
1030.1
-20169.7
2410.56
-12616.7
2958.93
-3327.09
3125.43
6123.49
3099.82
10524.8
3026.94
12699.7
3151.37
14132.3
3081.14
11395.5
2470.94
5035.88
1120.7
-3526.81
-2014.09
-8864.68
-5679.81
-4465.32
-7663.43
-8058.97
-8705.31
-12661
-8545.75
-3258.82
9722.62
-4205.89
21128.9
-3584.92
16156.1
-1311.99
-11941.1
1441.79
-22923.5
2968.16
-14143.1
3481.75
-3840.68
3569.45
6035.79
3630.67
10463.6
3703.54
12626.9
3875.06
13960.8
3788.89
11481.7
3111.6
5713.17
1112.71
-1527.93
-2784.95
-4967.01
-6552.47
-697.804
-7929.48
-6681.96
-7449.14
-13141.3
-6252.9
-4455.06
6119.3
-5099.67
-4362.97
-1506.03
1997.15
3674.24
4119.5
4032.58
4017.99
4169.76
4438.24
4408.6
3721.53
1224.37
-2951.68
-7011.02
-8507
-7394.91
-4636.34
-663.511
1638.51
-1073.1
1384.59
-1491.94
1393.84
-1826.57
1309.63
-2122.41
1270.84
-2368.1
1220.69
-2571.7
1178.6
-2732.82
1136.11
-2853.59
1095.78
-2934.87
1056.28
-2977.02
1017.14
-2977.94
975.927
-2931.86
928.913
-2828.32
871.464
-2652.41
799.092
-2388.25
710.837
-2022.55
609.3
-1529.16
481.605
-861.333
307.177
113.667
-212.555
1851.07
-478.931
1650.96
-759.297
1674.21
-1002.24
1552.57
-1237.58
1506.18
-1443.86
1426.97
-1629.96
1364.7
-1791.98
1298.14
-1932.69
1236.48
-2051.65
1175.24
-2146.82
1112.32
-2209.68
1038.78
-2220.78
940.018
-2143.8
794.486
-1933.52
588.804
-1579.72
357.04
-1143.24
172.824
-690.604
28.9664
-264.522
-118.905
-150.855
-177.476
2028.54
-376.196
1849.68
-539.736
1837.75
-664.115
1676.95
-779.104
1621.17
-863.196
1511.06
-934.531
1436.03
-985.889
1349.5
-1023.37
1273.97
-1045.58
1197.45
-1053.53
1120.27
-1045.22
1030.47
-1015.68
910.472
-952.767
731.575
-840.372
476.409
-680.164
196.832
-529.05
21.71
-404.775
-95.3083
-249.237
-274.443
-400.092
-0.368283
2028.91
-59.6762
1908.99
-83.3302
1861.4
-89.2475
1682.87
-92.5882
1624.51
-77.641
1496.12
-56.3364
1414.73
-21.1176
1314.28
24.683
1228.17
82.5132
1139.62
150.212
1052.57
222.077
958.608
283.508
849.041
305.797
709.286
253.058
529.148
128.36
321.53
20.514
129.556
-0.904528
-73.8896
-55.2139
-220.134
-455.306
103.932
1924.98
86.0147
1926.91
121.303
1826.12
164.727
1639.45
214.861
1574.37
270.325
1440.65
332.35
1352.71
400.5
1246.13
476.863
1151.8
560.592
1055.89
650.967
962.195
741.902
867.674
821.038
769.904
865.767
664.558
846.531
548.384
748.619
419.442
590.701
287.475
379.659
137.152
191.64
-32.1147
-263.666
114.243
1810.73
127.167
1913.99
174.808
1778.47
228.081
1586.17
286.967
1515.49
347.393
1380.23
412.373
1287.73
481.063
1177.44
553.298
1079.57
626.566
982.623
698.125
890.636
763.866
801.933
818.937
714.833
855.812
627.683
864.122
540.074
828.386
455.178
736.923
378.938
566.001
308.074
309.057
224.829
45.3915
63.8902
1746.84
103.512
1874.36
151.209
1730.78
195.458
1541.93
240.837
1470.11
287.533
1333.53
332.54
1242.72
379.949
1130.03
428.799
1030.72
486.86
924.563
559.928
817.568
654.335
707.526
767.801
601.368
884.991
510.492
972.349
452.716
985.935
441.592
891.537
473.336
673.501
526.11
357.864
540.467
403.255
-37.1525
1784
-19.4481
1856.66
-19.9819
1731.31
-45.4748
1567.42
-71.977
1496.61
-113.288
1374.84
-165.82
1295.25
-224.943
1189.15
-277.789
1083.56
-305.492
952.266
-294.461
806.537
-237.318
650.383
-137.923
501.972
-6.86219
379.431
138.41
307.443
275.835
304.167
368.788
380.383
359.899
534.998
215.303
685.063
618.558
-124.444
1908.44
-216.229
1948.45
-309.236
1824.32
-431.863
1690.05
-559.437
1624.18
-706.608
1522.01
-867.191
1455.83
-1037.15
1359.11
-1202.97
1249.39
-1351.81
1101.1
-1478.51
933.24
-1581.53
753.4
-1657.83
578.28
-1688.87
410.471
-1638.78
257.349
-1477.24
142.631
-1192.23
95.3705
-776.107
118.876
-310.375
219.331
308.183
31.6874
1876.75
-118.483
2098.62
-223.594
1929.43
-313.273
1779.72
-398.555
1709.46
-484.623
1608.08
-569.304
1540.51
-654.747
1444.55
-743.369
1338.01
-838.109
1195.84
-941.58
1036.71
-1053.11
864.933
-1167.86
693.022
-1275.55
518.169
-1359.41
341.203
-1392.69
175.918
-1349.56
52.2373
-1105.4
-125.285
-618.364
-267.705
-310.181
296.898
1579.86
237.319
2158.19
161.2
2005.55
140.761
1800.16
153.896
1696.33
176.105
1585.87
212.298
1504.32
250.255
1406.59
282.925
1305.34
295.176
1183.59
281.907
1049.98
241.043
905.797
176.853
757.212
91.1625
603.859
-11.8714
444.237
-107.066
271.113
-101.768
46.94
-123.8
-103.253
-153.263
-238.242
-463.444
386.21
1193.65
462.576
2081.83
433.07
2035.05
443.949
1789.28
502.904
1637.37
574.462
1514.31
660.097
1418.69
748.504
1318.19
836.219
1217.62
910.219
1109.59
964.016
996.183
991.736
878.077
991.255
757.693
959.016
636.098
888.896
514.357
770.507
389.503
556.733
260.714
336.587
116.892
157.033
-58.6874
-306.411
264.043
929.603
352.665
1993.21
367.893
2019.83
394.171
1763.01
449.857
1581.69
514.455
1449.72
584.898
1348.24
654.724
1248.36
721.942
1150.41
779.886
1051.64
823.126
952.944
846.265
854.937
845.574
758.384
818.447
663.226
763.484
569.319
678.743
474.244
560.644
378.813
404.638
272.898
202.783
143.168
-103.627
74.5996
855.004
111.602
1956.2
160.813
1970.62
209.872
1713.95
267.911
1523.65
329.583
1388.05
391.92
1285.91
450.757
1189.52
504.381
1096.78
550.066
1005.96
585.53
917.48
609.387
831.08
622.066
745.705
624.547
660.746
615.259
578.607
584.58
504.923
515.593
447.8
389.35
399.141
196.975
335.543
93.3473
-72.9529
927.956
-46.967
1930.22
43.5075
1880.14
118.098
1639.36
188.822
1452.92
260.715
1316.15
332.436
1214.19
402.03
1119.93
469.33
1029.48
535.483
939.806
602.593
850.371
673.753
759.92
749.227
670.232
820.998
588.975
868.699
530.906
858.979
514.642
763.665
543.114
571.173
591.632
305.565
601.151
398.912
-148.645
1076.6
-133.639
1915.21
-17.989
1764.49
78.6509
1542.72
147.021
1384.55
203.043
1260.13
261.833
1155.4
331.314
1050.45
417.552
943.242
526.244
831.115
660.345
716.269
816.483
603.781
976.504
510.211
1102.96
462.518
1148.49
485.373
1079.12
584.012
891.809
730.429
609.926
873.515
296.209
914.869
695.121
-88.4308
1165.03
-126.958
1953.74
-152.78
1790.31
-153.164
1543.1
-159.531
1390.92
-187.77
1288.37
-217.827
1185.45
-236.724
1069.35
-238.347
944.865
-220.31
813.079
-182.761
678.72
-128.677
549.698
-62.1346
443.669
14.4886
385.895
99.0028
400.859
179.699
503.316
222.114
688.014
191.439
904.19
92.8774
1013.43
787.999
121.785
1043.25
242.811
1832.71
129.31
1903.81
-84.7738
1757.18
-295.703
1601.85
-489.718
1482.38
-673.89
1369.63
-852.421
1247.88
-1028.64
1121.08
-1205.3
989.739
-1381.01
854.437
-1546.01
714.695
-1677.04
574.7
-1731.3
440.152
-1656.48
326.036
-1421.52
268.359
-1046.71
313.205
-606.138
463.618
-221.115
628.407
566.884
412.113
631.134
828.07
1416.76
860.346
1871.54
616.347
2001.18
315.589
1902.61
58.1313
1739.84
-157.092
1584.85
-349.857
1440.64
-531.636
1302.86
-708.135
1166.24
-880.76
1027.06
-1050.54
884.478
-1212.6
736.759
-1354.16
581.707
-1452.41
424.288
-1463.46
279.409
-1326.87
176.62
-1002.01
138.756
-525.488
151.884
41.3964
279.424
658.329
935.763
1071.76
1125.51
1150.42
1163.18
1162.09
1145.95
1112.92
1062.51
975.342
864.938
725.203
554.439
360.961
176.791
51.7407
24.7769
)
;

boundaryField
{
    outletWallLeft
    {
        type            calculated;
        value           nonuniform List<scalar> 
40
(
503.43
393.814
272.653
145.444
15.5405
-117.342
-256.071
-407.168
-603.406
-843.04
-1154.46
-1460.27
-1928.56
-2220.74
-3109.44
-2981.42
-5394.4
-2308.58
-10732.6
10433
26510.3
-2343.35
18108.2
14607.6
21409.9
19141
12707.5
9119.55
5144.35
-1274.2
-5038.88
-8659.52
-7111.16
-16650.6
-12497.3
-32891.3
-12378
-78735.8
-149236
260826
)
;
    }
    fineWallsLeft
    {
        type            calculated;
        value           uniform 0;
    }
    fineFrontAndBackLeft
    {
        type            calculated;
        value           nonuniform List<scalar> 
880
(
6.62205e-13
1.93106e-13
4.09415e-13
-7.00503e-14
2.6669e-12
2.1805e-12
2.20893e-13
-1.32704e-12
-2.30703e-12
-9.77076e-13
-1.05727e-12
2.70653e-13
2.69713e-12
2.59466e-12
5.00975e-13
-1.74805e-12
-5.92699e-13
-2.99434e-12
-4.01624e-12
-1.04142e-12
-1.23957e-13
-1.42566e-12
-5.15645e-13
-5.52282e-13
-5.2569e-13
-7.41974e-13
-7.22503e-13
-7.04512e-13
-7.1344e-13
-7.30898e-13
-7.52551e-13
-6.54156e-12
-8.23408e-13
-8.5085e-13
-8.66218e-13
-8.55835e-13
-8.80884e-13
-8.92013e-13
-8.57121e-13
-1.01785e-12
-1.17807e-11
-1.61218e-12
-1.5128e-12
-8.93701e-12
-1.31633e-12
-1.28786e-12
-1.25928e-12
-6.81049e-12
-9.16636e-13
-9.98012e-13
8.14763e-14
5.19707e-12
6.50202e-12
8.29101e-12
6.23174e-11
1.01292e-11
1.02473e-11
9.4294e-12
5.37244e-11
8.15803e-12
2.01244e-12
-4.90468e-12
-1.31591e-11
-1.29071e-11
-1.36157e-11
-1.28728e-11
-3.77481e-12
-8.94587e-13
-3.98717e-12
-6.27678e-12
-8.22081e-12
-9.89885e-12
-9.38174e-12
-1.77318e-11
-3.13706e-11
-2.11139e-11
-1.20124e-11
7.77566e-12
4.56528e-11
-3.33395e-13
-6.97335e-12
-1.18219e-11
-1.04769e-11
-1.2686e-11
-1.42236e-11
-7.84665e-12
-9.45416e-13
-2.33664e-12
-5.03225e-12
-6.55772e-12
-7.64397e-12
-7.56317e-12
-1.17716e-11
-3.12419e-11
-1.58268e-11
-1.76112e-11
-2.14777e-11
4.95883e-12
-2.14582e-12
-7.8449e-12
-6.43512e-12
-5.0733e-12
-8.71526e-12
-1.25821e-11
-1.17047e-11
-3.18328e-12
-9.33966e-13
-3.54746e-12
-5.33196e-12
-6.04887e-12
-6.10238e-12
-7.021e-12
-2.87274e-11
-1.2288e-11
-1.18458e-11
-1.67868e-11
-1.49835e-11
-3.49821e-12
-7.31205e-12
1.11987e-12
2.0901e-12
-2.33984e-12
-7.85824e-12
-1.33007e-11
-6.76659e-12
-5.96378e-13
-1.7157e-12
-4.09654e-12
-5.06399e-12
-5.12112e-12
-4.54276e-12
-2.20489e-11
-1.62402e-11
-1.17075e-11
-1.37249e-11
-1.55814e-11
-4.28978e-12
-5.64983e-12
7.88056e-12
9.10028e-12
4.93054e-12
-8.70605e-13
-1.17851e-11
-1.02821e-11
-2.04255e-12
-2.71172e-13
-2.68275e-12
-4.38624e-12
-4.71135e-12
-3.79236e-12
-1.49244e-11
-1.60419e-11
-1.22659e-11
-1.33572e-11
-1.64695e-11
-4.31713e-12
-3.46816e-12
1.23782e-11
1.43976e-11
1.09962e-11
6.44735e-12
-7.54778e-12
-1.23395e-11
-5.02407e-12
-2.86046e-14
-1.21728e-12
-3.55754e-12
-4.56633e-12
-3.93923e-12
-1.00425e-11
-1.31771e-11
-1.21079e-11
-1.06171e-11
-1.42136e-11
-3.48114e-12
-1.14158e-12
1.48855e-11
1.7115e-11
1.35847e-11
1.07574e-11
-2.15164e-12
-1.2142e-11
-8.42568e-12
-1.2921e-12
-6.76072e-14
-2.26218e-12
-4.09128e-12
-4.26189e-12
-7.61184e-12
-1.0604e-11