/*--------------------------------*- C++ -*----------------------------------*\
| =========                 |                                                 |
| \\      /  F ield         | OpenFOAM: The Open Source CFD Toolbox           |
|  \\    /   O peration     | Version:  4.1                                   |
|   \\  /    A nd           | Web:      www.OpenFOAM.org                      |
|    \\/     M anipulation  |                                                 |
\*---------------------------------------------------------------------------*/
FoamFile
{
    version     2.0;
    format      ascii;
    class       volVectorField;
    location    "17";
    object      U;
}
// * * * * * * * * * * * * * * * * * * * * * * * * * * * * * * * * * * * * * //

dimensions      [0 1 -1 0 0 0 0];

internalField   nonuniform List<vector> 
1680
(
(1.82237e-16 -63.5306 -67.7439)
(1.39553e-16 11.4571 -47.9672)
(1.1267e-16 1.63707 -20.4662)
(-5.06235e-17 0.23164 -5.39319)
(-3.90962e-16 3.2213 -2.97672)
(6.00067e-16 1.86871 0.315425)
(1.59634e-16 1.1706 0.560225)
(-3.65198e-16 1.74705 1.49838)
(-6.34889e-16 1.42237 3.09717)
(-2.14835e-16 0.890629 1.98336)
(-2.90958e-16 1.08344 3.37473)
(1.95594e-16 0.645584 2.34004)
(7.42244e-16 0.513331 3.39829)
(7.14045e-16 0.605464 3.28378)
(3.62041e-16 0.614343 1.58497)
(-4.81059e-16 0.4164 -0.0639856)
(-4.28328e-16 1.15462 -0.367273)
(-8.24036e-16 0.333845 -1.45989)
(-1.10526e-15 3.69579 -1.12375)
(-7.52605e-16 -0.107585 -3.72407)
(-5.08542e-16 2.72719 1.82552)
(-5.71694e-16 1.03338 -2.3398)
(-2.11547e-15 3.82471 5.6942)
(-2.26577e-15 4.38064 6.74148)
(-2.15668e-15 4.5744 7.70318)
(-3.044e-15 4.70634 8.56935)
(-2.96412e-15 4.87513 9.33748)
(-2.89031e-15 4.944 10.0019)
(-2.92693e-15 5.11268 10.617)
(-2.99856e-15 5.0096 11.0628)
(-3.08739e-15 5.43165 11.7864)
(-2.62318e-15 4.81178 9.77704)
(-3.37808e-15 6.94971 13.5137)
(-3.49067e-15 7.0942 13.9177)
(-3.55371e-15 7.1567 14.231)
(-3.51112e-15 7.14404 14.495)
(-3.61388e-15 7.26691 14.7499)
(-3.65954e-15 7.10657 14.8619)
(-3.51639e-15 7.47163 15.6835)
(-4.1758e-15 7.11036 14.3935)
(-4.10121e-15 9.79521 15.9701)
(-2.58984e-15 6.80589 11.471)
(-2.47685e-15 5.85741 10.7955)
(-3.11123e-15 6.1833 13.9012)
(-2.11459e-15 4.42168 9.87368)
(-2.06886e-15 4.11983 9.67703)
(-2.02294e-15 3.37348 9.39566)
(-2.37093e-15 2.83377 10.8916)
(-1.47251e-15 1.75311 6.97481)
(-1.60323e-15 1.59356 6.91448)
(2.83643e-17 0.218291 4.76145)
(8.34871e-15 -0.186749 -2.96955)
(1.0445e-14 -0.174513 -3.30647)
(1.33189e-14 0.404918 -4.43622)
(1.94658e-14 -0.826396 -5.07086)
(1.62719e-14 -0.319147 -2.32371)
(1.64615e-14 -0.15539 -2.61076)
(1.51476e-14 -0.132404 -2.48188)
(1.8703e-14 -0.32149 -2.99455)
(1.31053e-14 0.0455982 -2.4214)
(4.47209e-16 -9.65079 10.727)
(-1.08993e-15 -4.98231 9.53706)
(-2.92424e-15 5.462 6.97365)
(-2.86824e-15 9.45627 -2.10243)
(-3.02572e-15 5.56444 -6.8)
(-2.86062e-15 1.49393 -8.44435)
(-8.38847e-16 -2.07584 -7.89568)
(-1.98797e-16 -3.50934 -7.29764)
(-8.86038e-16 -4.1335 -7.19684)
(-1.39484e-15 -4.51309 -7.69068)
(-1.82685e-15 -3.83792 -8.23905)
(-2.19974e-15 -2.24949 -7.99884)
(-2.08483e-15 -0.742808 -6.08096)
(-3.94041e-15 -0.450295 -1.41049)
(-6.97125e-15 -1.74518 8.5983)
(-4.69197e-15 1.53754 12.1192)
(-2.66942e-15 4.93685 14.2267)
(1.72793e-15 3.09954 12.4466)
(1.01451e-14 0.176397 2.64886)
(-7.40877e-17 -11.5612 12.0451)
(-1.54963e-15 -4.55873 10.0983)
(-2.6271e-15 6.6549 7.40795)
(-2.3282e-15 10.9958 -3.34392)
(-2.8191e-15 6.20408 -8.62739)
(-3.16081e-15 1.58263 -10.2316)
(-1.7437e-15 -2.23132 -9.19323)
(-2.10092e-16 -3.61778 -8.10278)
(-5.19253e-16 -4.11687 -7.62554)
(-1.11828e-15 -4.39198 -7.98656)
(-1.45727e-15 -3.79375 -8.62848)
(-1.69866e-15 -2.43419 -8.60292)
(-1.6807e-15 -1.39801 -6.91966)
(-2.6159e-15 -1.55815 -4.5238)
(-6.94263e-15 -3.11255 5.39797)
(-3.51706e-15 0.854997 6.72146)
(-3.9136e-15 4.50959 11.1987)
(-4.77282e-15 4.03255 15.1129)
(1.10196e-15 2.67344 8.18775)
(-4.76848e-16 -13.6923 12.1291)
(-1.74331e-15 -4.05089 10.8088)
(-1.43003e-15 8.04668 6.99082)
(-1.1274e-15 12.7506 -4.97202)
(-1.93672e-15 6.89581 -10.8041)
(-2.79602e-15 1.61499 -12.3609)
(-2.60103e-15 -2.49723 -10.749)
(-7.07394e-16 -3.81679 -9.07033)
(-2.07548e-16 -4.16586 -8.16798)
(-7.88325e-16 -4.29437 -8.21345)
(-1.18488e-15 -3.72816 -8.77887)
(-1.34419e-15 -2.5739 -8.89454)
(-1.35609e-15 -1.76743 -7.48392)
(-1.56022e-15 -2.59167 -6.71446)
(-6.38386e-15 -4.01609 1.40006)
(-2.73067e-15 -0.0861783 0.503639)
(-2.63239e-15 3.39158 6.48808)
(-3.7304e-15 3.76112 14.0012)
(-3.32966e-15 4.03983 12.3702)
(-7.77381e-16 -15.9497 11.5144)
(-1.6249e-15 -3.47256 11.6716)
(2.4886e-16 9.6959 5.42734)
(4.64467e-16 14.6526 -6.99198)
(-5.19965e-16 7.63222 -13.2366)
(-1.74628e-15 1.58979 -14.7786)
(-2.95572e-15 -2.89154 -12.594)
(-1.50369e-15 -4.12221 -10.2344)
(-1.32528e-16 -4.29868 -8.86312)
(-3.81266e-16 -4.25316 -8.4857)
(-9.10343e-16 -3.67248 -8.80637)
(-1.12533e-15 -2.67741 -8.92162)
(-1.13803e-15 -1.95795 -7.77856)
(-1.0095e-15 -3.24853 -7.77683)
(-4.89976e-15 -4.40547 -2.89112)
(-3.60893e-15 -1.10125 -2.24504)
(-2.60166e-15 2.16716 2.48908)
(-3.04998e-15 2.86218 10.7256)
(-3.46253e-15 4.5406 13.4795)
(-9.53284e-16 -18.2648 10.4731)
(-1.25552e-15 -2.73279 12.5155)
(1.75124e-15 11.6418 2.71269)
(2.02228e-15 16.5841 -9.33884)
(1.09568e-15 8.39138 -15.6051)
(-1.93468e-16 1.52336 -17.1964)
(-2.61891e-15 -3.41564 -14.6785)
(-2.28492e-15 -4.54292 -11.639)
(-4.53899e-16 -4.5267 -9.73695)
(-6.02605e-17 -4.29116 -8.86859)
(-5.96168e-16 -3.65732 -8.82965)
(-9.7472e-16 -2.76314 -8.81267)
(-1.04697e-15 -2.0753 -7.8987)
(-8.42746e-16 -3.50091 -8.06995)
(-3.31654e-15 -4.76103 -6.37132)
(-3.56488e-15 -1.72111 -4.55597)
(-2.72575e-15 1.09418 -1.09453)
(-2.96826e-15 1.51169 5.27276)
(-3.65989e-15 4.19831 10.8277)
(-9.59362e-16 -20.6298 9.04451)
(-7.70702e-16 -1.73763 13.2504)
(2.75071e-15 13.8937 -0.835317)
(3.19947e-15 18.4263 -11.8543)
(2.44359e-15 9.14254 -17.0328)
(1.43275e-15 1.48766 -18.5056)
(-1.67728e-15 -4.00233 -16.6725)
(-2.74211e-15 -5.07739 -13.2947)
(-1.11646e-15 -4.86625 -10.8424)
(-6.35658e-18 -4.42118 -9.40983)
(-2.70507e-16 -3.70004 -8.93053)
(-7.90564e-16 -2.84774 -8.69206)
(-1.01474e-15 -2.17288 -7.95263)
(-8.75385e-16 -3.48283 -8.01491)
(-2.23168e-15 -4.97522 -8.55716)
(-2.92825e-15 -2.31751 -6.8427)
(-2.69064e-15 0.408198 -3.88231)
(-2.35936e-15 0.307165 -0.574796)
(-3.15858e-15 3.37736 4.65617)
(-7.73587e-16 -22.9953 7.23217)
(-2.53684e-16 -0.353297 14.0425)
(3.30789e-15 16.4128 -4.85533)
(3.80333e-15 19.9648 -13.9027)
(3.01881e-15 9.72887 -15.6224)
(2.39054e-15 1.69642 -15.3541)
(-4.78143e-16 -4.43607 -17.3265)
(-2.69823e-15 -5.66882 -15.0381)
(-1.87237e-15 -5.31672 -12.2491)
(-2.87133e-16 -4.66211 -10.1696)
(-1.50238e-17 -3.81818 -9.1574)
(-5.02707e-16 -2.94357 -8.62836)
(-9.09173e-16 -2.26295 -7.99127)
(-9.47088e-16 -3.31741 -7.92071)
(-1.69152e-15 -4.94568 -9.56082)
(-2.35645e-15 -2.81369 -8.65597)
(-2.4241e-15 -0.20324 -6.14205)
(-2.44383e-15 0.0167896 -2.66498)
(-2.01671e-15 0.0752666 -3.70836)
(-4.36651e-16 -25.4969 5.16694)
(2.31187e-16 1.5591 15.9678)
(3.60879e-15 19.0762 -8.97349)
(3.80046e-15 20.735 -14.3916)
(2.48441e-15 9.25841 -8.97941)
(1.81577e-15 1.91206 -2.74878)
(3.9871e-16 -3.99696 -14.0966)
(-2.21101e-15 -6.0067 -16.1912)
(-2.44199e-15 -5.85955 -13.9773)
(-8.37942e-16 -5.02952 -11.2445)
(4.93615e-17 -4.0242 -9.56073)
(-1.63963e-16 -3.06722 -8.64813)
(-6.64824e-16 -2.36091 -8.01531)
(-9.48423e-16 -3.12368 -7.92285)
(-1.48559e-15 -4.77547 -9.77997)
(-2.04002e-15 -3.14052 -9.68842)
(-2.24839e-15 -0.763014 -7.65318)
(-2.19877e-15 -0.188485 -4.48303)
(-2.59856e-15 0.510195 -6.26185)
(-5.7588e-17 -28.0944 3.12767)
(5.27674e-16 3.68446 20.3142)
(3.79471e-15 21.8698 -12.7749)
(3.31113e-15 20.0896 -12.4682)
(1.15215e-15 6.91619 2.01609)
(4.51019e-16 2.48504 10.6544)
(9.60664e-16 -2.36714 -7.61085)
(-1.42553e-15 -5.67145 -15.7307)
(-2.64482e-15 -6.32353 -15.7956)
(-1.49764e-15 -5.53622 -12.7495)
(-1.62272e-16 -4.35373 -10.2326)
(7.42784e-17 -3.23868 -8.79048)
(-3.45316e-16 -2.4399 -8.04323)
(-8.42516e-16 -2.91221 -8.01801)
(-1.41041e-15 -4.53407 -9.6342)
(-1.90375e-15 -3.3328 -10.014)
(-2.13472e-15 -1.18969 -8.24243)
(-2.17515e-15 -0.427528 -5.85959)
(-2.26484e-15 -0.0619459 -3.91921)
(2.36873e-16 -31.3645 1.40662)
(9.19771e-16 5.96477 25.5387)
(3.91595e-15 24.8539 -15.9314)
(2.58796e-15 17.9977 -8.4318)
(1.59424e-16 4.39881 9.24172)
(2.31988e-16 3.81627 10.7906)
(3.63669e-16 0.946151 2.22641)
(-8.64506e-16 -4.23422 -11.8818)
(-2.51602e-15 -6.46765 -16.6563)
(-2.07174e-15 -6.13489 -14.5795)
(-6.1694e-16 -4.83139 -11.304)
(8.85536e-17 -3.49351 -9.12829)
(-7.61767e-17 -2.5569 -8.10723)
(-6.60116e-16 -2.78867 -8.14215)
(-1.35452e-15 -4.35325 -9.41357)
(-1.84445e-15 -3.51599 -9.89178)
(-2.06761e-15 -1.58294 -8.2845)
(-2.11362e-15 -0.92151 -6.01405)
(-2.24423e-15 -0.453143 -4.31758)
(3.67683e-16 -34.5057 0.121787)
(1.64532e-15 8.37296 31.1491)
(3.96605e-15 27.971 -18.2992)
(1.88402e-15 15.3643 -3.47237)
(-5.63991e-17 2.83286 9.47059)
(1.80682e-16 4.55725 9.45094)
(-1.34865e-17 2.80309 5.7307)
(-3.53568e-16 -1.88415 -5.43485)
(-2.16349e-15 -5.78822 -15.2808)
(-2.44308e-15 -6.59204 -16.0758)
(-1.18085e-15 -5.45796 -12.7519)
(-1.29559e-16 -3.8645 -9.76763)
(5.67351e-17 -2.64794 -8.30095)
(-4.56866e-16 -2.58066 -8.28419)
(-1.27978e-15 -4.11062 -9.24013)
(-1.80767e-15 -3.60915 -9.55348)
(-2.02179e-15 -1.89031 -7.97912)
(-2.04233e-15 -1.2623 -5.65463)
(-2.11812e-15 -0.90265 -3.85028)
(3.36737e-16 -39.6912 -0.671612)
(2.74758e-15 10.8715 37.0283)
(3.93587e-15 31.1665 -19.9319)
(1.25418e-15 12.7874 1.96416)
(-4.67539e-17 1.63477 8.31381)
(2.11856e-16 4.74013 8.61545)
(1.80239e-16 3.24961 6.45652)
(-3.77712e-16 0.0784572 4.39821)
(-1.92801e-15 -4.37328 -11.2268)
(-2.6493e-15 -6.6332 -16.5661)
(-1.71858e-15 -6.10838 -14.3533)
(-4.93099e-16 -4.37435 -10.7412)
(4.4689e-17 -2.91008 -8.66916)
(-2.76007e-16 -2.6528 -8.43773)
(-1.1828e-15 -4.14544 -9.12823)
(-1.77242e-15 -3.90821 -9.15473)
(-1.97699e-15 -2.38788 -7.50698)
(-1.9518e-15 -1.81391 -5.09893)
(-1.88808e-15 -1.65246 -3.02728)
(2.37413e-16 -42.4418 -1.25008)
(4.08853e-15 13.6731 43.9247)
(3.83175e-15 34.4012 -20.8723)
(6.46088e-16 10.1329 8.29393)
(-8.56995e-17 1.07992 7.77859)
(8.75874e-17 5.14968 8.39699)
(1.77983e-16 3.58208 4.71515)
(-1.09319e-16 1.92188 6.34729)
(-1.56667e-15 -1.84459 -5.91367)
(-2.71262e-15 -5.94829 -15.2841)
(-2.16284e-15 -6.63743 -15.495)
(-9.04822e-16 -4.98732 -11.9354)
(-7.99336e-17 -3.0748 -9.36062)
(-1.45747e-16 -2.30898 -8.7616)
(-1.07496e-15 -3.76805 -9.06471)
(-1.72959e-15 -3.85499 -8.68523)
(-1.91406e-15 -2.53545 -6.86482)
(-1.82114e-15 -2.05094 -4.40136)
(-1.53351e-15 -2.42947 -1.98696)
(1.23923e-16 -52.9586 -1.32071)
(5.23733e-15 16.4458 51.5134)
(3.68815e-15 37.4572 -20.9304)
(1.15787e-16 7.50472 15.2101)
(-4.26779e-17 1.21259 5.09694)
(-6.14322e-19 5.60792 8.483)
(1.24928e-16 3.60032 2.75054)
(2.0348e-16 2.25642 6.26653)
(-5.29414e-16 0.0240353 1.28782)
(-2.47523e-15 -4.6493 -12.0182)
(-2.48054e-15 -6.78167 -15.7502)
(-1.31255e-15 -5.59508 -13.0823)
(-2.88607e-16 -3.66439 -10.2345)
(-9.70812e-17 -2.99803 -9.18798)
(-9.78195e-16 -4.48344 -9.02462)
(-1.67111e-15 -4.7271 -8.22592)
(-1.81325e-15 -3.48143 -6.23263)
(-1.63419e-15 -3.02954 -3.7939)
(-1.17938e-15 -3.37141 -1.09717)
(1.92018e-16 -49.6424 -2.55663)
(5.82184e-15 18.4665 60.6346)
(3.57417e-15 40.6157 -19.7044)
(-2.52313e-16 5.25183 21.4145)
(1.00102e-16 1.79322 -0.763237)
(-1.51069e-17 5.73857 8.77351)
(6.28383e-17 3.82427 1.55022)
(2.43862e-16 2.29932 5.27375)
(-2.99492e-17 1.76604 2.47625)
(-2.02607e-15 -2.73917 -8.17147)
(-2.6161e-15 -6.45004 -14.8688)
(-1.68649e-15 -6.06895 -13.9779)
(-5.81665e-16 -3.69574 -11.5108)
(-1.63046e-16 -1.9488 -10.0734)
(-9.18534e-16 -3.20368 -9.02365)
(-1.59224e-15 -3.79001 -7.54608)
(-1.65915e-15 -2.81493 -5.30984)
(-1.38724e-15 -2.54027 -3.01009)
(-8.57108e-16 -3.8221 -0.142058)
(4.12148e-17 -79.2407 -0.394345)
(6.23282e-15 23.2208 63.0947)
(3.56129e-15 44.9357 -17.0365)
(-4.38525e-16 4.46597 24.4613)
(1.66458e-16 3.57177 -5.3471)
(-8.10015e-18 5.46516 8.80122)
(1.30786e-17 4.37017 0.798597)
(9.98791e-17 2.2892 4.01084)
(1.28351e-17 2.88686 2.2259)
(-1.37184e-15 -0.845418 -3.43531)
(-2.5453e-15 -5.60995 -12.8711)
(-1.99613e-15 -6.27072 -14.2628)
(-9.3465e-16 -4.78307 -12.5112)
(-3.48561e-16 -4.59411 -10.7755)
(-9.09127e-16 -6.45262 -9.03598)
(-1.48362e-15 -6.99118 -7.1301)
(-1.45168e-15 -5.59539 -4.82086)
(-1.10652e-15 -5.1886 -2.77856)
(-5.82667e-16 -4.94388 0.160815)
(1.23828e-15 -40.3248 -12.4682)
(7.63054e-15 26.6897 49.6574)
(3.68461e-15 48.1058 -14.2769)
(-5.56718e-16 4.20745 24.5053)
(1.43498e-16 4.34969 -6.11164)
(-4.74099e-18 4.80024 8.53887)
(-1.20661e-18 4.59662 0.573535)
(3.54361e-17 2.09919 3.42029)
(1.04234e-16 2.93131 2.19154)
(-3.19068e-16 0.254884 2.84869)
(-2.25473e-15 -4.32873 -9.76559)
(-2.2267e-15 -6.07787 -14.1572)
(-1.30475e-15 -3.79996 -13.886)
(-5.87125e-16 -0.556522 -11.8422)
(-9.23978e-16 -0.875695 -8.55681)
(-1.33552e-15 -1.51382 -5.59045)
(-1.18744e-15 -0.95758 -3.09694)
(-8.05869e-16 -0.869876 -1.43705)
(-3.09423e-16 -4.17712 1.1636)
(-2.78067e-15 -146.991 10.2688)
(9.90689e-15 17.5399 -4.72489)
(3.8686e-15 43.9674 -12.4344)
(-6.30683e-16 2.97904 24.4349)
(1.04726e-16 3.4806 -5.35959)
(-2.98857e-18 3.75448 8.00318)
(-1.10984e-18 4.37905 0.557069)
(1.36299e-17 1.64845 3.1023)
(9.3729e-17 2.53934 1.08809)
(3.99831e-18 1.12145 2.93666)
(-1.85303e-15 -2.43928 -6.42687)
(-2.33302e-15 -5.60807 -12.7621)
(-1.71645e-15 -6.48453 -14.1648)
(-9.884e-16 -9.51542 -13.002)
(-1.02323e-15 -13.6721 -10.0397)
(-1.19754e-15 -14.7801 -7.40945)
(-9.55575e-16 -12.1522 -5.00107)
(-5.7072e-16 -11.7905 -3.88271)
(-1.68004e-16 -6.64094 -0.0960169)
(1.46724e-14 81.5056 -87.9995)
(9.90639e-15 22.5893 -44.7151)
(3.63122e-15 42.9101 -9.94209)
(-6.29803e-16 2.87194 35.6179)
(5.48711e-17 10.4063 -3.52144)
(-1.11613e-18 4.63252 7.03884)
(1.96221e-20 6.80764 0.570151)
(5.27309e-19 2.59918 2.78516)
(1.38998e-17 3.63773 0.249393)
(-2.7652e-18 2.3649 2.12131)
(-1.35738e-15 -0.985939 -2.48057)
(-2.18006e-15 -3.89464 -11.2419)
(-1.52338e-15 -1.12895 -13.3485)
(-5.11031e-16 6.07467 -8.33829)
(-5.64412e-16 10.7137 -1.26984)
(-6.89243e-16 12.2174 3.6441)
(-4.61227e-16 10.5836 5.62562)
(-2.29666e-16 11.3911 7.31901)
(-3.079e-17 -1.43827 4.50916)
(-7.11075e-14 -371.211 294.036)
(3.713e-15 80.799 -62.7517)
(2.27616e-15 50.3535 -4.27658)
(-2.66337e-16 6.57213 32.8752)
(3.84013e-18 15.6728 -0.602243)
(9.80955e-20 5.74197 3.43099)
(6.4964e-20 7.85805 0.285167)
(-3.75718e-19 3.35421 1.29083)
(-1.57083e-18 4.1573 0.0771493)
(2.08911e-17 2.66666 1.19168)
(-3.8735e-16 0.571573 3.22423)
(-2.42672e-15 -5.5704 -7.55895)
(-3.26815e-15 -12.4072 -18.6489)
(-3.26258e-15 -23.6157 -26.8511)
(-2.85141e-15 -36.3396 -30.2581)
(-2.03602e-15 -40.3248 -33.0662)
(-1.12266e-15 -31.6184 -29.8793)
(-4.64809e-16 -33.2174 -37.8213)
(-1.43779e-16 -5.72563 -14.454)
(-4.05351e-18 5.19768 9.55182)
(-6.05573e-15 9.83076 16.8197)
(-4.80709e-15 10.0076 17.117)
(-4.50797e-15 9.74066 16.3932)
(-4.38727e-15 9.68985 16.2013)
(-6.67168e-15 9.74153 16.15)
(-5.02696e-15 9.76464 16.1199)
(-4.42158e-15 9.79703 16.0894)
(-4.43234e-15 9.8032 16.0647)
(-4.39301e-15 9.83368 16.0611)
(-4.27069e-15 9.81469 16.0374)
(-4.4309e-15 9.73596 15.8359)
(-4.59362e-15 9.78238 15.9862)
(-4.62434e-15 9.78963 16.0571)
(-4.53699e-15 9.77455 16.0894)
(-4.27142e-15 9.72893 16.1384)
(-4.44195e-15 9.71582 16.1425)
(-4.28396e-15 9.80463 16.5341)
(-4.08212e-15 10.3236 17.2221)
(-6.46536e-15 6.4619 11.2837)
(1.20912e-16 4.78862 8.02411)
(-5.19436e-15 9.22802 15.7658)
(-3.81926e-15 9.09606 15.5608)
(-3.89865e-15 8.77352 15.008)
(-3.7318e-15 8.75882 15.0129)
(-5.91281e-15 8.79911 15.0494)
(-3.80903e-15 8.8079 15.0841)
(-3.76766e-15 8.83301 15.1079)
(-3.61184e-15 8.84766 15.1414)
(-3.70416e-15 8.86552 15.1667)
(-3.71488e-15 8.88529 15.2027)
(-3.74913e-15 8.92667 15.2756)
(-3.85574e-15 8.94079 15.2742)
(-3.82861e-15 8.94472 15.3022)
(-3.87675e-15 8.96824 15.33)
(-3.73421e-15 8.96348 15.3672)
(-3.75014e-15 8.98999 15.3917)
(-3.66969e-15 9.16601 15.7734)
(-3.44855e-15 9.56229 16.4118)
(-5.61238e-15 5.72238 9.95716)
(-9.0208e-18 5.50661 9.5863)
(-1.90206e-15 9.61232 16.4335)
(-1.18697e-15 9.30949 16.0367)
(-1.55956e-15 9.064 15.551)
(-1.3278e-15 9.02935 15.5351)
(-3.61029e-15 9.04786 15.5333)
(-1.70307e-15 9.0362 15.5379)
(-1.88983e-15 9.04346 15.5331)
(-1.79346e-15 9.03683 15.5362)
(-1.88995e-15 9.04088 15.5371)
(-1.70988e-15 9.03808 15.54)
(-1.66042e-15 9.03162 15.5354)
(-1.93296e-15 9.03415 15.5474)
(-1.8367e-15 9.03135 15.5596)
(-1.98211e-15 9.03803 15.5635)
(-1.89657e-15 9.02206 15.5762)
(-1.67917e-15 9.03885 15.5751)
(-1.65883e-15 9.20495 15.9431)
(-1.68845e-15 9.6099 16.5587)
(-2.53431e-15 5.82132 10.2089)
(-7.52407e-19 5.56963 9.58913)
(4.33361e-16 9.46806 16.2476)
(3.39631e-16 9.1209 15.726)
(3.4944e-16 8.89969 15.3061)
(3.28345e-16 8.87967 15.3145)
(-2.22405e-15 8.89958 15.3235)
(-1.49773e-15 8.89127 15.3373)
(-1.79044e-15 8.90061 15.3413)
(-1.61875e-15 8.89686 15.3525)
(-1.88962e-15 8.90225 15.3589)
(-1.75032e-15 8.90185 15.3688)
(-1.50448e-15 8.90555 15.38)
(-1.83277e-15 8.90818 15.3864)
(-1.78498e-15 8.90554 15.3982)
(-1.84418e-15 8.91344 15.4039)
(-1.64852e-15 8.90155 15.416)
(-1.49884e-15 8.91756 15.4177)
(-1.47775e-15 9.09206 15.7781)
(-1.70198e-15 9.4877 16.4148)
(-2.57042e-15 5.81856 10.1668)
(8.34606e-19 5.84839 10.1216)
(-9.69502e-17 9.52709 16.3463)
(-7.81708e-17 9.11626 15.7377)
(-7.2514e-17 8.92633 15.3625)
(-7.59018e-17 8.90492 15.3721)
(5.13173e-16 8.92023 15.3747)
(3.83509e-16 8.90873 15.3839)
(4.26597e-16 8.9145 15.3838)
(4.12879e-16 8.90768 15.3907)
(4.22397e-16 8.91006 15.3933)
(4.0227e-16 8.90655 15.399)
(3.90793e-16 8.90585 15.4033)
(4.40471e-16 8.9057 15.4083)
(4.2031e-16 8.9021 15.4162)
(4.50909e-16 8.90665 15.4187)
(4.30336e-16 8.89428 15.4263)
(3.99735e-16 8.90685 15.4232)
(3.89299e-16 9.06582 15.7551)
(3.8996e-16 9.47962 16.4233)
(5.68901e-16 5.97466 10.4582)
(-3.30639e-19 6.0197 10.3965)
(2.30323e-17 9.49011 16.2994)
(1.76509e-17 9.04909 15.624)
(1.71791e-17 8.88222 15.2951)
(1.81791e-17 8.86588 15.3098)
(-1.15244e-16 8.8803 15.3135)
(-9.24253e-17 8.87024 15.3236)
(-9.85324e-17 8.87616 15.3251)
(-9.72232e-17 8.87028 15.333)
(-9.1323e-17 8.873 15.3366)
(-9.41014e-17 8.86993 15.3433)
(-9.61631e-17 8.87034 15.3488)
(-9.97512e-17 8.87 15.3542)
(-9.86886e-17 8.86733 15.3619)
(-1.00771e-16 8.87118 15.3654)
(-9.85672e-17 8.861 15.3731)
(-9.85581e-17 8.87073 15.3692)
(-9.3041e-17 9.01371 15.6669)
(-8.97762e-17 9.44701 16.3793)
(-1.33744e-16 6.1307 10.7222)
(1.02685e-19 6.22342 10.7529)
(-5.41874e-18 9.48353 16.2914)
(-4.11377e-18 9.0141 15.5673)
(-4.2267e-18 8.87026 15.2784)
(-4.4539e-18 8.85555 15.2946)
(2.76899e-17 8.86816 15.2968)
(2.24403e-17 8.85816 15.3057)
(2.29248e-17 8.86311 15.3067)
(2.32945e-17 8.85712 15.3136)
(2.22111e-17 8.85921 15.3165)
(2.1225e-17 8.85575 15.3224)
(2.41407e-17 8.85585 15.3268)
(2.35874e-17 8.85475 15.3318)
(2.39111e-17 8.85248 15.3383)
(2.29416e-17 8.85507 15.3417)
(2.27203e-17 8.84633 15.3486)
(2.35047e-17 8.85334 15.3432)
(2.21464e-17 8.97809 15.6044)
(2.23945e-17 9.42822 16.3501)
(3.24013e-17 6.31006 11.034)
(-2.90255e-20 6.4095 11.067)
(1.25421e-18 9.45627 16.2515)
(9.95214e-19 8.97041 15.4925)
(1.0331e-18 8.84742 15.2428)
(1.09842e-18 8.83515 15.2604)
(-6.5965e-18 8.84656 15.2624)
(-5.51546e-18 8.83744 15.271)
(-5.30842e-18 8.84203 15.2723)
(-5.62418e-18 8.83659 15.2792)
(-5.56599e-18 8.83861 15.2822)
(-4.92921e-18 8.83535 15.2882)
(-6.01331e-18 8.83576 15.2926)
(-5.76211e-18 8.8344 15.2979)
(-5.73374e-18 8.83291 15.3039)
(-5.40674e-18 8.83466 15.3079)
(-5.37862e-18 8.82775 15.3145)
(-5.53255e-18 8.83252 15.3091)
(-5.41629e-18 8.94002 15.5348)
(-5.6689e-18 9.40049 16.304)
(-7.52336e-18 6.48842 11.3401)
(8.01803e-21 6.59946 11.3919)
(-2.90113e-19 9.4294 16.21)
(-2.47444e-19 8.93393 15.4304)
(-2.48253e-19 8.8307 15.2169)
(-2.68385e-19 8.81995 15.2347)
(1.53603e-18 8.83008 15.2362)
(1.35383e-18 8.8216 15.2442)
(1.25687e-18 8.82564 15.2456)
(1.35513e-18 8.82058 15.252)
(1.35869e-18 8.82233 15.2549)
(1.20134e-18 8.81915 15.2607)
(1.44254e-18 8.81966 15.2647)
(1.42281e-18 8.81796 15.27)
(1.37321e-18 8.81708 15.2754)
(1.30072e-18 8.81792 15.2797)
(1.29469e-18 8.81266 15.286)
(1.30864e-18 8.81545 15.2808)
(1.33636e-18 8.90644 15.4726)
(1.40965e-18 9.37029 16.2523)
(1.70321e-18 6.66932 11.6516)
(-2.2056e-21 6.78556 11.7084)
(6.80957e-20 9.39441 16.1551)
(6.18501e-20 8.8979 15.3685)
(5.89778e-20 8.8129 15.1891)
(6.50607e-20 8.80353 15.2068)
(-3.57067e-19 8.81252 15.208)
(-3.28292e-19 8.80482 15.2155)
(-3.04752e-19 8.8084 15.2172)
(-3.25627e-19 8.80385 15.2233)
(-3.20775e-19 8.80539 15.2263)
(-2.99682e-19 8.80243 15.2318)
(-3.3599e-19 8.80308 15.2357)
(-3.46601e-19 8.80118 15.2411)
(-3.3038e-19 8.80094 15.2461)
(-3.12591e-19 8.80096 15.2508)
(-3.1461e-19 8.79735 15.2567)
(-3.12866e-19 8.79846 15.2524)
(-3.24741e-19 8.87434 15.4125)
(-3.39975e-19 9.33405 16.1901)
(-3.8436e-19 6.84908 11.9606)
(5.99736e-22 6.97114 12.0245)
(-1.62249e-20 9.35484 16.0919)
(-1.52611e-20 8.86506 15.3122)
(-1.3968e-20 8.7968 15.1641)
(-1.57575e-20 8.78842 15.181)
(8.42307e-20 8.79633 15.182)
(7.84975e-20 8.78936 15.189)
(7.45013e-20 8.79244 15.1908)
(7.8108e-20 8.78839 15.1966)
(7.46426e-20 8.78966 15.1996)
(7.41008e-20 8.78694 15.205)
(7.76951e-20 8.78763 15.2086)
(8.24127e-20 8.78557 15.2141)
(7.95832e-20 8.78589 15.2186)
(7.48592e-20 8.78511 15.2238)
(7.65927e-20 8.78306 15.2291)
(7.50015e-20 8.78269 15.2261)
(7.6997e-20 8.84488 15.3569)
(8.00261e-20 9.29288 16.1192)
(8.75638e-20 7.0283 12.2687)
(-1.59576e-22 7.15503 12.3375)
(3.88691e-21 9.30931 16.0185)
(3.69107e-21 8.83431 15.2593)
(3.31107e-21 8.78115 15.1399)
(3.82308e-21 8.77356 15.1556)
(-2.01244e-20 8.78048 15.1566)
(-1.86148e-20 8.77425 15.1631)
(-1.81291e-20 8.77684 15.1651)
(-1.87116e-20 8.77332 15.1705)
(-1.74736e-20 8.77431 15.1736)
(-1.79465e-20 8.77189 15.1787)
(-1.8139e-20 8.77257 15.1823)
(-1.91443e-20 8.77044 15.1878)
(-1.90559e-20 8.77126 15.1918)
(-1.79456e-20 8.76976 15.1974)
(-1.85063e-20 8.76918 15.2021)
(-1.79082e-20 8.76751 15.2007)
(-1.79441e-20 8.81762 15.305)
(-1.86884e-20 9.24623 16.039)
(-2.0186e-20 7.20647 12.5748)
(4.13816e-23 7.3378 12.6486)
(-9.27328e-22 9.25842 15.9358)
(-8.77248e-22 8.80613 15.2109)
(-7.85334e-22 8.76638 15.1171)
(-9.26338e-22 8.75937 15.1314)
(4.81192e-21 8.76539 15.1324)
(4.40947e-21 8.75987 15.1384)
(4.3754e-21 8.76198 15.1406)
(4.47277e-21 8.75898 15.1456)
(4.15175e-21 8.75965 15.1488)
(4.28439e-21 8.75758 15.1536)
(4.29776e-21 8.75818 15.1572)
(4.38489e-21 8.75607 15.1626)
(4.52023e-21 8.75726 15.1663)
(4.30951e-21 8.75515 15.1722)
(4.40759e-21 8.75592 15.1763)
(4.26069e-21 8.75307 15.1767)
(4.17527e-21 8.79276 15.2572)
(4.39167e-21 9.19429 15.9497)
(4.68549e-21 7.38372 12.8792)
(-1.04698e-23 7.51934 12.9575)
(2.19173e-22 9.20192 15.8434)
(2.06385e-22 8.78032 15.1666)
(1.86058e-22 8.75223 15.0953)
(2.22959e-22 8.74566 15.1081)
(-1.14073e-21 8.75086 15.1091)
(-1.04825e-21 8.74603 15.1146)
(-1.04865e-21 8.74768 15.117)
(-1.06498e-21 8.74522 15.1216)
(-9.9781e-22 8.74556 15.1249)
(-1.01961e-21 8.74387 15.1295)
(-1.02909e-21 8.74432 15.133)
(-1.00331e-21 8.74235 15.1383)
(-1.0654e-21 8.74377 15.1417)
(-1.03294e-21 8.74119 15.1479)
(-1.0337e-21 8.74317 15.1514)
(-1.01294e-21 8.73924 15.1537)
(-9.82092e-22 8.77025 15.2133)
(-1.04269e-21 9.13696 15.8513)
(-1.08655e-21 7.55999 13.1816)
(2.59381e-24 7.69989 13.2645)
(-5.12507e-23 9.13993 15.7414)
(-4.8433e-23 8.75696 15.1265)
(-4.39915e-23 8.73879 15.0745)
(-5.30899e-23 8.73252 15.0858)
(2.6746e-22 8.73698 15.0868)
(2.50361e-22 8.73283 15.0919)
(2.49874e-22 8.734 15.0945)
(2.52405e-22 8.73207 15.0987)
(2.40579e-22 8.73208 15.1021)
(2.43267e-22 8.73079 15.1064)
(2.46992e-22 8.73102 15.1099)
(2.31833e-22 8.7293 15.115)
(2.51021e-22 8.73078 15.1183)
(2.46074e-22 8.72793 15.1246)
(2.39849e-22 8.7309 15.1275)
(2.40787e-22 8.72602 15.1316)
(2.34061e-22 8.75009 15.1733)
(2.49091e-22 9.07422 15.7438)
(2.50215e-22 7.7353 13.4819)
(-6.32187e-25 7.87976 13.5703)
(1.18709e-23 9.07251 15.6298)
(1.13937e-23 8.73615 15.0909)
(1.0386e-23 8.72619 15.055)
(1.24968e-23 8.72015 15.0647)
(-6.21832e-23 8.72389 15.0658)
(-5.99343e-23 8.72046 15.0704)
(-5.9186e-23 8.72111 15.0731)
(-5.96393e-23 8.71967 15.077)
(-5.78074e-23 8.71938 15.0804)
(-5.80817e-23 8.71843 15.0844)
(-5.89838e-23 8.7184 15.088)
(-5.42878e-23 8.71702 15.0927)
(-5.93587e-23 8.71832 15.096)
(-5.81369e-23 8.71548 15.1022)
(-5.54887e-23 8.7191 15.1046)
(-5.71338e-23 8.71342 15.1105)
(-5.6195e-23 8.73227 15.1373)
(-5.95604e-23 9.00613 15.6274)
(-5.71353e-23 7.90968 13.7798)
(1.52378e-25 8.05938 13.8752)
(-2.73071e-24 8.99947 15.5081)
(-2.69059e-24 8.7178 15.0597)
(-2.45246e-24 8.71456 15.0366)
(-2.91632e-24 8.70878 15.0447)
(1.44032e-23 8.71174 15.0461)
(1.43167e-23 8.70917 15.0501)
(1.39325e-23 8.7093 15.053)
(1.40929e-23 8.7083 15.0564)
(1.37964e-23 8.70781 15.0598)
(1.38071e-23 8.70712 15.0635)
(1.39619e-23 8.70686 15.0672)
(1.28332e-23 8.70588 15.0715)
(1.40857e-23 8.70674 15.0749)
(1.3629e-23 8.70428 15.0809)
(1.28895e-23 8.708 15.0831)
(1.35097e-23 8.70176 15.0904)
(1.34917e-23 8.71698 15.1052)
(1.42235e-23 8.93309 15.5027)
(1.29742e-23 8.08318 14.0752)
(-3.64972e-26 8.23966 14.1804)
(6.25655e-25 8.92059 15.3748)
(6.36635e-25 8.70166 15.0324)
(5.79926e-25 8.70362 15.0189)
(6.78162e-25 8.69851 15.0253)
(-3.33669e-24 8.70035 15.0269)
(-3.39682e-24 8.69873 15.0302)
(-3.26069e-24 8.6984 15.033)
(-3.33606e-24 8.6977 15.0361)
(-3.26549e-24 8.69712 15.0394)
(-3.25427e-24 8.69658 15.0428)
(-3.2745e-24 8.69617 15.0463)
(-3.04071e-24 8.69557 15.0503)
(-3.3425e-24 8.69586 15.054)
(-3.17726e-24 8.69426 15.0594)
(-3.01388e-24 8.69726 15.0619)
(-3.18152e-24 8.6913 15.0701)
(-3.22286e-24 8.70426 15.0762)
(-3.39219e-24 8.85558 15.3705)
(-2.94463e-24 8.25515 14.3662)
(8.80958e-27 8.42319 14.4926)
(-1.44564e-25 8.83808 15.2311)
(-1.52069e-25 8.69069 15.012)
(-1.389e-25 8.69522 15.0051)
(-1.59459e-25 8.69182 15.0089)
(7.83297e-25 8.69212 15.0105)
(8.06483e-25 8.69115 15.0126)
(7.67052e-25 8.69035 15.0148)
(7.99537e-25 8.68952 15.0171)
(7.73812e-25 8.68863 15.0197)
(7.67325e-25 8.68775 15.0224)
(7.70337e-25 8.68689 15.0254)
(7.25764e-25 8.68605 15.0287)
(7.98811e-25 8.68543 15.0321)
(7.4604e-25 8.68433 15.0364)
(7.15321e-25 8.68532 15.0397)
(7.54353e-25 8.68104 15.0469)
(7.72444e-25 8.69108 15.0483)
(8.16009e-25 8.77265 15.2324)
(6.76236e-25 8.42326 14.6449)
(-1.80363e-27 8.61058 14.8239)
(2.81085e-26 8.75271 15.0801)
(3.04521e-26 8.69281 15.0032)
(2.8062e-26 8.695 15.0014)
(3.1921e-26 8.69442 15.0021)
(-1.54714e-25 8.69407 15.0026)
(-1.60051e-25 8.69366 15.0031)
(-1.5124e-25 8.69305 15.0038)
(-1.60518e-25 8.69232 15.0046)
(-1.53052e-25 8.69143 15.0056)
(-1.5082e-25 8.69038 15.0067)
(-1.52115e-25 8.68914 15.008)
(-1.45204e-25 8.68772 15.0095)
(-1.59543e-25 8.68605 15.0113)
(-1.47916e-25 8.68417 15.0133)
(-1.43122e-25 8.68208 15.0156)
(-1.50311e-25 8.67892 15.0189)
(-1.54645e-25 8.67938 15.02)
(-1.6488e-25 8.69418 15.0844)
(-1.31096e-25 8.5934 14.8933)
(1.06763e-14 -0.245087 -2.65142)
(8.20212e-15 0.605609 -3.89375)
(6.76987e-15 -0.966799 -3.39816)
(6.19881e-15 -0.545457 -2.19271)
(4.71822e-15 1.25939 -1.82217)
(2.12801e-15 -0.321916 0.397764)
(1.89125e-16 -0.871843 2.71059)
(-5.82777e-17 -0.979915 2.64448)
(-3.94734e-16 -1.07191 3.15399)
(-1.77024e-15 -2.07237 6.35549)
(-2.05697e-15 -2.72679 6.48847)
(-2.42557e-15 -2.91998 6.91904)
(-3.56891e-15 -4.4538 10.724)
(-2.62464e-15 -4.71065 8.75062)
(-2.34004e-15 -5.52516 8.9525)
(-1.76422e-15 -5.5672 9.02394)
(-7.12989e-16 -7.84325 12.6428)
(6.4927e-16 -7.557 9.27675)
(1.84537e-15 -7.94328 9.50425)
(4.02899e-15 -10.4995 12.1828)
(3.09267e-15 -9.27265 8.85296)
(1.75252e-15 -9.62341 9.41801)
(1.049e-15 -9.65984 9.49116)
(3.75047e-16 -9.78392 9.81544)
(4.596e-17 -9.86923 10.2522)
(-2.92229e-16 -9.91151 10.8272)
(-4.89242e-16 -9.89953 11.4645)
(-5.30028e-16 -10.0943 12.0137)
(1.80945e-15 -9.06626 11.07)
(-2.9977e-16 -9.12402 12.6115)
(-3.80401e-16 -9.02461 13.3029)
(-6.22096e-16 -8.84135 13.8266)
(-8.42109e-16 -8.67967 14.3043)
(-9.19882e-16 -8.47862 14.6731)
(-7.16075e-16 -8.23739 14.8457)
(-4.62235e-16 -7.8992 14.4287)
(-5.13678e-16 -7.51042 12.5912)
(-2.96763e-16 -6.94077 9.05523)
(2.53915e-15 -3.37923 -2.1247)
(1.50332e-15 -5.55203 1.91943)
(1.72407e-15 -4.32305 0.0420335)
(1.89733e-15 -6.51927 1.38632)
(1.70912e-15 -6.09655 0.00958213)
(1.26542e-15 -5.26993 -0.234725)
(1.71238e-15 -7.01664 -0.504842)
(1.11478e-15 -4.81115 -0.80539)
(1.66329e-15 -6.09789 -1.27624)
(1.2216e-15 -5.16132 -1.84935)
(8.87169e-16 -4.14555 -1.6633)
(1.13404e-15 -5.15896 -2.42884)
(6.41419e-16 -3.03135 -1.92734)
(6.7998e-16 -3.73426 -2.96023)
(2.77018e-16 -2.28525 -2.60105)
(3.08203e-17 -1.28047 -1.83326)
(-1.10611e-16 -1.4622 -2.80739)
(-5.59671e-16 -0.377104 -1.39363)
(-2.95217e-16 0.468548 -0.923398)
(-9.98542e-16 0.502213 1.81227)
(3.13155e-16 0.378392 1.71507)
(-2.8934e-15 0.611988 3.87525)
(6.46937e-16 0.201972 -1.17035)
(5.05423e-16 -0.090471 -1.59943)
(8.58713e-17 0.29119 0.402318)
(1.1534e-16 0.0900673 -1.55607)
(5.28722e-17 -0.142002 -1.27003)
(3.05996e-18 0.0889588 -1.95932)
(1.15286e-16 0.185281 -4.23666)
(2.70652e-16 -0.123788 -6.86994)
(3.24978e-16 -0.251041 -6.55625)
(2.03392e-16 -0.11099 -5.1864)
(5.86386e-17 -0.488605 -0.166674)
(-2.11621e-17 -0.464372 5.70564)
(-2.98404e-17 0.113789 5.9461)
(8.02197e-17 0.556647 2.23196)
(2.53202e-16 0.7086 -3.9386)
(4.75479e-16 0.671645 -10.6751)
(5.28282e-16 -0.0616853 -16.2422)
(4.76705e-16 -1.00679 -11.9191)
(-1.52461e-15 -0.529338 0.911796)
(1.16676e-15 0.447875 -0.58414)
(7.46223e-16 -0.451197 -1.10893)
(-4.1744e-17 -0.0451419 3.05597)
(-4.06695e-16 0.0756003 3.14891)
(-5.4683e-16 0.19617 2.09546)
(-3.59708e-16 0.461626 0.691747)
(-5.66473e-17 0.889913 -0.477736)
(1.55145e-16 0.696805 -3.63231)
(3.32165e-16 -0.0807377 -6.11415)
(1.95032e-16 -1.08523 -2.26195)
(-9.50305e-17 -1.6664 5.09043)
(-3.21249e-16 -0.793767 8.36649)
(-2.82146e-16 0.508495 7.19528)
(3.00054e-17 1.52627 3.73504)
(5.37522e-16 2.10685 -2.25991)
(1.19321e-15 1.88054 -9.64767)
(1.42233e-15 0.218767 -13.8286)