/*--------------------------------*- C++ -*----------------------------------*\
| =========                 |                                                 |
| \\      /  F ield         | OpenFOAM: The Open Source CFD Toolbox           |
|  \\    /   O peration     | Version:  4.1                                   |
|   \\  /    A nd           | Web:      www.OpenFOAM.org                      |
|    \\/     M anipulation  |                                                 |
\*---------------------------------------------------------------------------*/
FoamFile
{
    version     2.0;
    format      ascii;
    class       volScalarField;
    location    "4";
    object      p;
}
// * * * * * * * * * * * * * * * * * * * * * * * * * * * * * * * * * * * * * //

dimensions      [0 2 -2 0 0 0 0];

internalField   nonuniform List<scalar> 
1280
(
0.264122
-0.239315
-0.0213065
0.594372
0.98184
1.10904
1.24309
1.66419
1.75805
1.95402
2.12325
2.2411
2.13698
2.0336
1.7239
-0.202017
-1.25786
-1.80558
-5.10165
-10.7645
-6.79753
5.67054
17.9615
17.7466
16.251
18.3352
-4.12171
3.77971
3.45842
4.65309
5.39928
5.93729
6.65054
7.33019
8.10926
8.71807
9.79308
9.93494
11.9679
9.85811
-29.5881
-13.4802
-6.90054
-3.53627
3.09285
3.38745
3.59481
3.4645
5.16475
5.14188
5.1766
5.34345
3.56965
3.66424
3.45674
3.17746
-3.4342
-6.7984
-13.3857
-29.5415
9.98187
12.0934
10.0411
9.89611
8.81532
8.20267
7.42004
6.73715
6.02092
5.47863
4.72874
3.5325
3.85109
-4.06689
18.3843
16.3049
17.7846
17.9673
5.67581
-6.78251
-10.763
-5.10795
-1.86194
-1.31169
-0.251726
1.67051
1.98267
2.08861
2.19068
2.07059
1.90627
1.71551
1.62442
1.21066
1.08301
0.953054
0.572231
-0.0319192
-0.237054
0.259647
0.0138003
0.33965
0.35725
0.531871
0.631963
0.530189
-0.205331
-1.15724
-1.24785
-4.4951
-2.37967
0.238942
2.41336
3.31731
2.62423
0.808405
-0.111475
0.053874
0.242805
-0.145703
0.474348
0.273659
0.289379
0.0636269
-0.220876
-0.460307
-0.636194
-1.12814
-5.17075
-1.04576
3.53575
7.46046
8.62553
6.28185
2.3323
0.027778
0.290942
0.76674
-0.205516
0.80949
0.592716
0.757799
0.61052
0.29957
-0.367453
-1.80387
-2.9815
-6.39276
-0.764679
5.22432
10.0253
11.363
8.07804
2.89272
-0.0237993
0.271451
1.22929
-0.301293
0.875897
0.596485
0.788845
0.69933
0.565101
-0.0278857
-2.59892
-6.08094
-8.89304
-1.50068
6.81483
12.8842
14.5757
9.91979
3.23282
-0.46667
0.29867
2.3652
-0.297669
0.92692
0.749407
1.11485
1.22349
1.2814
0.60761
-3.1604
-9.09532
-10.2345
-1.95391
8.90808
16.2247
18.0493
11.298
2.9677
-1.12817
-0.171792
2.96579
-0.209808
0.893239
0.870757
1.39136
1.68034
1.92547
1.31867
-2.87127
-10.5507
-10.0316
-2.16818
11.0663
19.6414
21.094
11.5506
0.0830093
-3.95037
0.547925
5.55394
-0.0541786
0.91991
1.10588
1.76075
2.17944
2.51603
1.96763
-1.92154
-9.77645
-8.78887
-1.76562
13.3179
22.689
22.4113
11.4943
-2.09357
-6.90004
-2.59691
6.62913
0.0758517
0.984183
1.32911
2.04833
2.51425
2.84318
2.32844
-0.867172
-7.63478
-7.50145
-0.527967
15.3625
25.9406
22.4152
11.4214
-2.89321
-6.44859
5.16917
7.92692
0.147489
1.08177
1.51385
2.22604
2.6532
2.89778
2.38915
-0.0967821
-5.2778
-6.09352
0.611076
16.4937
26.9124
22.0461
13.6004
0.876077
-1.98378
18.5308
23.0235
0.160941
1.14946
1.61502
2.32227
2.72537
2.93826
2.47735
0.380876
-3.85947
-4.68768
2.04765
16.5281
24.7574
20.5032
12.971
2.70686
5.40979
33.904
20.8292
0.157604
1.14608
1.61091
2.31879
2.72139
2.93665
2.48082
0.39035
-3.84756
-4.68605
2.0524
16.5471
24.8263
20.5499
12.992
2.7316
5.44899
33.9221
20.8683
0.143084
1.08223
1.50518
2.21123
2.63373
2.88546
2.39497
-0.0676143
-5.24437
-6.10638
0.574064
16.3988
26.879
22.0701
13.7115
1.0973
-1.79787
18.6147
23.1122
0.0680653
0.984165
1.31788
2.0301
2.48836
2.82168
2.33027
-0.821846
-7.57788
-7.49266
-0.559022
15.2674
25.7464
22.4633
11.4702
-2.51577
-6.03776
5.28667
7.82599
-0.0617164
0.922546
1.09676
1.74392
2.15247
2.49029
1.96616
-1.87128
-9.74116
-8.7733
-1.85803
13.1934
22.4791
22.3895
11.5851
-1.51509
-6.3956
-2.46627
6.5392
-0.217245
0.896488
0.8635
1.37767
1.65681
1.90151
1.31839
-2.81927
-10.5513
-10.0087
-2.25307
10.9542
19.4416
20.964
11.7094
0.619836
-3.50674
0.620256
5.52751
-0.303669
0.930993
0.744692
1.10547
1.20592
1.26274
0.60976
-3.11215
-9.12292
-10.2477
-2.04089
8.79743
16.0264
17.8453
11.3806
3.22275
-0.928052
-0.122816
2.96159
-0.305537
0.879606
0.593366
0.782619
0.686637
0.550657
-0.0265567
-2.5579
-6.09425
-8.93096
-1.57135
6.7153
12.7118
14.4159
9.95301
3.37192
-0.327658
0.341405
2.3851
-0.208123
0.8127
0.591337
0.754962
0.603401
0.290179
-0.368481
-1.77623
-2.96267
-6.44234
-0.821138
5.1376
9.88678
11.2428
8.07571
2.96874
0.0424866
0.294139
1.23831
-0.147106
0.476249
0.272907
0.288119
0.060122
-0.225784
-0.462018
-0.623332
-1.09625
-5.21587
-1.09143
3.45981
7.34664
8.53174
6.26943
2.37163
0.0639102
0.307569
0.775171
0.0135878
0.340883
0.35778
0.532776
0.633175
0.531846
-0.206496
-1.16088
-1.2342
-4.52362
-2.40988
0.191681
2.34421
3.25736
2.60282
0.815827
-0.100098
0.0620208
0.245734
103.504
102.46
101.543
100.121
98.922
97.2426
96.0009
94.3343
92.7355
91.2326
89.8897
88.6076
87.4169
86.2991
85.2565
84.2762
83.4029
82.548
81.9764
81.1242
77.8604
78.4267
78.4358
78.6318
79.1526
79.2472
79.572
79.5514
79.6202
79.5599
79.5135
79.4352
79.3517
79.265
79.1736
79.0919
79.0058
78.9365
78.8725
78.7965
83.031
83.0754
83.1607
83.0385
83.1275
82.9727
82.9763
82.894
82.8392
82.7759
82.7129
82.6567
82.6009
82.5585
82.5131
82.4944
82.4556
82.4718
82.432
82.4631
73.4298
74.0169
74.2719
74.577
74.9397
75.1592
75.4776
75.7352
76.0149
76.2868
76.557
76.83
77.0969
77.3728
77.6309
77.9182
78.1495
78.4694
78.6287
79.0105
67.7605
68.4279
68.674
69.0071
69.407
69.6904
70.0843
70.4289
70.8014
71.1746
71.5494
71.9316
72.3085
72.6983
73.0652
73.4703
73.799
74.2461
74.4715
75.0072
58.3848
59.2292
59.6343
59.9846
60.5944
60.9485
61.5209
61.9803
62.5039
63.0161
63.5361
64.0649
64.5881
65.1264
65.6365
66.1897
66.6492
67.2469
67.5702
68.2793
49.8472
50.6402
51.2248
51.4464
52.2155
52.4857
53.1567
53.5808
54.1489
54.6692
55.2168
55.7748
56.3327
56.9129
57.4674
58.0731
58.5828
59.241
59.6147
60.3685
41.8194
42.4622
43.1717
43.2392
44.0845
44.19
44.9028
45.1869
45.7379
46.1681
46.6654
47.1652
47.6751
48.2171
48.739
49.3253
49.8183
50.4752
50.8458
51.6067
35.849
36.2399
36.9346
36.8172
37.6267
37.506
38.1784
38.2454
38.7087
38.9575
39.323
39.6658
40.0273
40.4249
40.8004
41.2553
41.6092
42.1572
42.3986
43.143
31.8094
32.0552
32.7409
32.4979
33.3431
33.073
33.7599
33.7051
34.129
34.2641
34.5376
34.7525
34.977
35.221
35.4262
35.7039
35.8695
36.2222
36.3016
36.8084
27.4592
27.9028
28.8451
28.6143
29.8177
29.6152
30.5674
30.6768
31.2874
31.591
32.0055
32.3404
32.6535
32.9503
33.1804
33.4336
33.562
33.7978
33.8032
34.069
17.9606
18.923
20.601
20.4756
22.496
22.599
24.1691
24.7897
25.9256
26.7906
27.7258
28.5972
29.4199
30.1995
30.8867
31.5302
32.0154
32.4933
32.6898
33.023
-2.24467
-1.11537
1.67611
1.47363
4.55101
4.92059
7.28045
8.49004
10.3266
11.933
13.6294
15.3234
17.005
18.6851
20.3127
21.9193
23.3837
24.8026
25.8736
27.2264
-32.6039
-33.1293
-29.941
-31.2648
-28.1276
-28.6735
-26.5171
-25.9639
-24.5
-23.3931
-22.1243
-20.8504
-19.4952
-17.988
-16.3256
-14.3686
-12.1913
-9.41509
-6.99507
-3.72472
-46.2953
-50.1936
-48.3964
-51.9757
-50.7121
-53.5574
-53.4681
-55.3013
-56.0175
-57.2571
-58.108
-58.7624
-58.8376
-58.3405
-57.5204
-56.5051
-55.3532
-53.7305
-52.2466
-48.8346
-13.8423
-19.6743
-18.9682
-24.6059
-24.6731
-29.0127
-30.4965
-33.7349
-36.0056
-38.8242
-41.3454
-43.8165
-45.8057
-47.2885
-48.2955
-49.1721
-49.9626
-50.3379
-51.0818
-50.1565
38.2702
33.4175
35.814
29.1288
29.6388
25.2723
23.7219
20.8333
18.7607
16.531
14.6268
12.9111
11.4728
10.1582
8.86048
7.51053
6.20594
4.72268
1.95144
-1.00399
23.429
17.6582
26.7335
20.73
23.8225
21.4686
21.299
19.7989
18.6251
17.1618
15.7878
14.5424
13.6088
13.0001
12.6821
12.6091
12.593
12.4435
12.6181
13.4832
22.8477
1.10804
9.35581
-1.24703
-3.74621
-10.0836
-14.8242
-19.9368
-24.4445
-28.5622
-32.0425
-34.7882
-36.6595
-37.581
-37.4193
-36.2202
-34.2962
-31.1759
-26.9369
-23.9987
711
628.448
579.345
523.287
474.473
427.469
383.84
342.706
304.047
267.553
233.024
200.244
169.018
139.262
110.938
83.3048
56.4036
33.7067
8.79444
-25.5272
711.047
628.493
579.389
523.329
474.515
427.512
383.883
342.75
304.094
267.603
233.077
200.302
169.081
139.33
111.012
83.3838
56.4867
33.8019
8.90386
-25.4273
22.8531
1.11095
9.35676
-1.24737
-3.7482
-10.0864
-14.8279
-19.941
-24.4492
-28.5674
-32.0484
-34.7951
-36.668
-37.5922
-37.4348
-36.2401
-34.3192
-31.209
-26.9879
-24.0498
23.3696
17.6059
26.6845
20.6868
23.7833
21.4348
21.27
19.7755
18.6073
17.1502
15.783
14.5447
13.6177
13.0143
12.7015
12.634
12.622
12.471
12.6514
13.5412
38.4139
33.5757
35.9821
29.3089
29.8313
25.4768
23.9388
21.0621
19.0012
16.7828
14.8893
13.1836
11.7531
10.4453
9.15584
7.8141
6.51776
5.04436
2.29186
-0.652591
-13.615
-19.4458
-18.7366
-24.3729
-24.4379
-28.7744
-30.2554
-33.4898
-35.7558
-38.5682
-41.081
-43.5413
-45.5187
-46.9911
-47.9917
-48.8677
-49.6622
-50.0396
-50.7848
-49.8839
-46.166
-50.073
-48.2816
-51.8642
-50.6088
-53.4576
-53.3755
-55.2149
-55.9382
-57.1858
-58.0443
-58.7061
-58.7896
-58.3055
-57.5037
-56.5083
-55.3717
-53.7636
-52.2888
-48.8866
-32.6629
-33.2002
-30.0182
-31.352
-28.2247
-28.7825
-26.6379
-26.099
-24.6491
-23.5583
-22.3055
-21.0478
-19.7069
-18.2107
-16.5556
-14.6006
-12.4216
-9.63709
-7.21361
-3.93686
-2.31919
-1.19148
1.60073
1.39595
4.47381
4.84241
7.20251
8.41245
10.2501
11.8582
13.557
15.2543
16.94
18.6248
20.2577
21.8699
23.34
24.7648
25.841
27.2026
17.9372
18.9032
20.5836
20.4597
22.4833
22.5889
24.1618
24.7858
25.9246
26.7933
27.7318
28.6067
29.4326
30.2153
30.9052
31.5511
32.0382
32.5179
32.7158
33.0507
27.4731
27.9199
28.8636
28.6344
29.8399
29.6394
30.5932
30.7048
31.3169
31.6225
32.0384
32.3748
32.6891
32.987
33.218
33.4719
33.6009
33.8371
33.8427
34.1084
31.84
32.0871
32.7728
32.5304
33.3761
33.1066
33.7937
33.7397
34.1636
34.2992
34.5726
34.7876
35.0121
35.256
35.4609
35.7383
35.9035
36.2558
36.3349
36.8411
35.8793
36.2703
36.9642
36.8467
37.656
37.5353
38.2072
38.2741
38.737
38.9857
39.3508
39.6934
40.0546
40.4519
40.8272
41.2819
41.6356
42.1836
42.4247
43.1692
41.8462
42.4891
43.1982
43.2657
44.1108
44.2162
44.9288
45.2128
45.7635
46.1935
46.6907
47.1903
47.7002
48.2422
48.7641
49.3506
49.8436
50.5008
50.8714
51.6328
49.8718
50.6652
51.2499
51.4717
52.2409
52.5112
53.1822
53.6063
54.1743
54.6946
55.2422
55.8002
56.3581
56.9384
57.493
58.0988
58.6087
59.2671
59.6409
60.3947
58.4047
59.2494
59.6546
60.0053
60.6151
60.9693
61.5417
62.0011
62.5246
63.0367
63.5566
64.0854
64.6085
65.1467
65.6568
66.21
66.6695
67.2672
67.5903
68.2994
67.7677
68.4354
68.6812
69.0145
69.4145
69.6978
70.0916
70.4361
70.8085
71.1816
71.5562
71.9383
72.3151
72.7048
73.0716
73.4765
73.805
74.252
74.477
75.0123
73.421
74.008
74.2624
74.5677
74.93
75.1495
75.4678
75.7253
76.0048
76.2766
76.5466
76.8195
77.0862
77.3619
77.6199
77.9069
78.138
78.4577
78.6165
78.9978
83.0004
83.0453
83.1298
83.0085
83.0972
82.9426
82.9462
82.864
82.8093
82.7463
82.6835
82.6275
82.5719
82.5297
82.4844
82.4659
82.4272
82.4435
82.4036
82.4346
77.8261
78.3916
78.3996
78.5948
79.1143
79.2094
79.5342
79.5143
79.5832
79.5234
79.4772
79.3991
79.3159
79.2294
79.1382
79.0568
78.9709
78.9019
78.8379
78.762
103.443
102.4
101.481
100.059
98.8597
97.1812
95.9381
94.2725
92.6746
91.173
89.8309
88.55
87.3606
86.2446
85.2039
84.2263
83.3557
82.5041
81.9357
81.0873
)
;

boundaryField
{
    outletWall
    {
        type            fixedValue;
        value           uniform 0;
    }
    fineWalls
    {
        type            zeroGradient;
    }
    fineFrontAndBack
    {
        type            zeroGradient;
    }
    fineplugLeft
    {
        type            cyclicAMI;
        value           nonuniform List<scalar> 
20
(
66.871
67.9747
68.0254
68.681
69.1646
69.827
70.5053
71.2636
72.0735
72.9916
73.9167
74.8801
76.2234
84.6162
81.4612
82.3878
83.6458
84.8266
83.1025
81.4433
)
;
    }
    fineplugRight
    {
        type            cyclicAMI;
        value           nonuniform List<scalar> 
20
(
66.8662
67.9673
68.0115
68.6638
69.1441
69.8037
70.4797
71.2359
72.0442
72.9604
73.8841
74.8462
76.1882
84.5668
81.4218
82.3487
83.6039
84.7782
83.0551
81.398
)
;
    }
    inletOutletLeft
    {
        type            cyclicAMI;
        value           nonuniform List<scalar> 
20
(
66.871
67.9747
68.0254
68.681
69.1646
69.827
70.5053
71.2636
72.0735
72.9916
73.9167
74.8801
76.2234
84.6162
81.4612
82.3878
83.6458
84.8266
83.1025
81.4433
)
;
    }
    inletLeft
    {
        type            zeroGradient;
    }
    inletWallsLeft
    {
        type            zeroGradient;
    }
    inletFacesLeft
    {
        type            zeroGradient;
    }
    inletOutletRight
    {
        type            cyclicAMI;
        value           nonuniform List<scalar> 
20
(
66.8662
67.9673
68.0115
68.6638
69.1441
69.8037
70.4797
71.2359
72.0442
72.9604
73.8841
74.8462
76.1882
84.5668
81.4218
82.3487
83.6039
84.7782
83.0551
81.398
)
;
    }
    inletRight
    {
        type            zeroGradient;
    }
    inletWallsRight
    {
        type            zeroGradient;
    }
    inletFacesRight
    {
        type            zeroGradient;
    }
}


// ************************************************************************* //
