/*--------------------------------*- C++ -*----------------------------------*\
| =========                 |                                                 |
| \\      /  F ield         | OpenFOAM: The Open Source CFD Toolbox           |
|  \\    /   O peration     | Version:  4.1                                   |
|   \\  /    A nd           | Web:      www.OpenFOAM.org                      |
|    \\/     M anipulation  |                                                 |
\*---------------------------------------------------------------------------*/
FoamFile
{
    version     2.0;
    format      ascii;
    class       surfaceScalarField;
    location    "4";
    object      phi;
}
// * * * * * * * * * * * * * * * * * * * * * * * * * * * * * * * * * * * * * //

dimensions      [0 3 -1 0 0 0 0];

internalField   nonuniform List<scalar> 
2360
(
-5761.89
-4423.27
-1338.63
-4423.27
-4423.27
-3066.6
-1356.67
-3066.6
-3066.6
-3066.6
-1319.81
-1746.79
-1319.81
-1319.81
995.758
-2315.57
995.758
995.762
4098.67
-3102.91
4098.68
4098.67
8832.7
-4734.02
8832.7
8832.7
9656.42
11121.8
12499.3
13667.2
14722.1
15710.9
12438.9
4226.39
13383
14314.9
15236.3
16149.9
17057.8
17962.1
18864.4
19765.8
20667.6
21569.4
22470.2
23375
24106.3
8626.94
15479.3
8626.94
8626.94
8626.94
-1520.78
10147.7
-1520.78
-1520.78
-1520.78
-8.59979
-1512.18
-8.58994
-8.58932
1520.2
-1528.79
1520.2
1520.2
1520.2
-8617.57
10137.8
-8617.57
-8617.58
-8617.58
-24089.2
15471.6
-23358.2
-22453
-21552
-20650.2
-19748.5
-18847.1
-17944.8
-17040.6
-16132.8
-15219.2
-14297.9
-13366.3
-12422.6
-15698.2
4229.58
-14709.7
-13654.7
-12486.1
-11108.3
-9642.95
-8818.74
-8818.74
-8818.74
-4105.14
-4713.6
-4105.14
-4105.14
-1007.69
-3097.45
-1007.68
-1007.68
1303.45
-2311.13
1303.45
1303.45
3048.21
-1744.76
3048.21
3048.21
3048.21
4409.98
-1361.77
4409.98
4409.98
5743.71
-1333.73
-3320.15
-3310.69
-4099.8
-4265.95
-5056.61
-4162.3
-6180.87
-4462.74
-7271.51
-5143.54
-7962.86
-6564.73
-7616.51
-7997.65
-5842.24
-6405.66
-3963.02
1986.3
-3138.14
9251.03
-2464.67
12392.6
-1789.4
13305
-1083.56
12476.5
-316.636
9890.6
406.022
5416.03
951.836
4118.2
1162.17
2494.85
1280.51
1762.51
-433.389
-4394.23
-2723.77
-5399.1
-3261.08
-6399.58
-3161.83
-7239.52
-3622.8
-7692.03
-4691.03
-7667.48
-6589.28
-7031.21
-8633.92
-5437.6
-7999.28
-3609.72
158.425
-3048.06
8689.37
-2660.65
12005.2
-2015.79
12660.1
-1160.97
11621.7
-113.176
8842.8
887.698
4415.16
1492.27
3513.63
1486.07
2501.05
1271.64
1976.94
-523.507
-5085.26
-2066.8
-6024.24
-2322.1
-6692.28
-2493.79
-6936.18
-3378.9
-6704.72
-4922.49
-6230.29
-7063.7
-5748.63
-9115.58
-5035.87
-8712.03
-3686.49
-1190.96
-3071.93
8074.81
-2853.32
11786.6
-2373.65
12180.5
-1377.55
10625.6
79.1894
7386.06
1493.77
3000.57
2272.35
2735.05
2237.6
2535.81
1783.2
2431.33
-485.074
-5723.19
-1429.27
-6415.76
-1629.54
-6618.58
-2290.97
-6401.81
-3595.67
-5988.42
-5335.88
-5749.74
-7302.39
-5818.32
-9047
-5709.62
-8820.73
-4476.04
-2424.54
-3489.2
7087.96
-3144.08
11441.4
-2807.31
11843.7
-1748.74
9567.04
283.012
5354.3
2227.94
1055.65
3156.3
1806.69
3051.27
2640.83
2395.95
3086.65
-400.251
-6035.23
-962.568
-6310.78
-1353.99
-6121.7
-2480.04
-5822.15
-3895.22
-5774.41
-5383.62
-6243.81
-6832.99
-7090.79
-8200.02
-7527.93
-8383.59
-6262.32
-3690.15
-4586.85
5412.5
-3775.78
10630.4
-3330.74
11398.7
-2166.71
8403.01
775.454
2412.14
3361.18
-1530.08
4296.71
871.16
4145.55
2792
3340.44
3891.75
-157.261
-5910.24
-752.076
-5836.2
-1428.03
-5625.48
-2690.76
-5705.7
-3815.01
-6328.52
-4760.79
-7534.78
-5626.72
-9003.95
-6730.85
-9887.98
-7499.57
-8798.4
-4779.72
-6502.03
3116.13
-4987.82
9116.15
-4090.86
10501.7
-2443.99
6756.14
1153.54
-1185.39
3863.05
-4239.59
5031.42
-297.219
4962.89
2860.53
4479.04
4375.61
-391.819
-5539.63
-706.928
-5439.95
-1527.71
-5584.49
-2546.22
-6217.11
-3182.39
-7405.7
-3572.2
-9047.81
-3984.62
-10852.4
-4926.25
-12191.9
-6160.1
-11760.7
-5210.89
-9330.16
685.581
-7026.23
6812.22
-5183.76
8659.23
-2489.71
4062.09
-620.322
-3054.78
-541.108
-4318.8
991.313
-1829.64
3081.39
770.455
4161.82
3295.17
7999.58
-5300.02
-637.731
-5469.51
-1358.22
-6068.28
-1947.45
-7110.04
-2140.62
-8532.24
-2150.01
-10208.2
-2308.66
-12047
-3087.46
-13832.9
-4374.16
-14505.7
-4538.15
-12637.9
-1182.14
-9435.28
3609.56
-6424.99
5648.94
-5143.3
2780.4
-6869.62
-1328.46
-8330.34
-2858.08
-7532.93
-2627.04
-6932.52
170.042
-9293.88
5656.53
14177.3
-5337.54
-416.937
-5871.36
-824.399
-6802.44
-1016.37
-7965.36
-977.696
-9238.99
-876.386
-10595.2
-952.447
-12234.4
-1448.3
-14369
-2239.54
-16371
-2536.13
-16350.6
-1202.6
-13970.9
1229.88
-11385
3063.05
-11303.3
2698.69
-13200.2
568.451
-14694.9
-1363.42
-15609.4
-1712.46
-15549.9
110.532
-14148.5
4255.11
10166.5
-5535.58
-3.99677
-6376.78
16.8009
-7427.24
34.0868
-8446.1
41.1651
-9357.68
35.1953
-10322.5
12.3392
-11758.7
-12.0778
-13979.8
-18.4083
-16514.2
-1.71224
-17740.7
23.9017
-16542.6
31.7177
-13488.8
9.24333
-10736.5
-53.5267
-10071.8
-96.2933
-11365.2
-70.0212
-13024.2
-53.4191
-12879.8
-33.8737
-8626.11
1.37909
11.645
-5561.37
399.955
-6383.36
838.799
-7417.19
1067.91
-8426.29
1050.27
-9335.45
944.353
-10305.2
982.078
-11749
1431.76
-13973.8
2206.35
-16510
2534.52
-17746.1
1260
-16568
-1146.43
-13556.2
-3002.52
-10888.1
-2721.64
-10274.6
-709.79
-11510.3
1165.7
-13083.4
1519.62
-12895.6
-221.625
-8630.93
-4263.31
-10131.5
-5383.25
616.646
-5897.5
1353.04
-6798.51
1968.93
-7932.71
2184.47
-9188.78
2200.43
-10545.9
2339.22
-12198.4
3084.2
-14345.4
4353.38
-16356.9
4546.04
-16341.9
1244.98
-13942.8
-3545.55
-11309.8
-5635.51
-11216.4
-2815
-13192.8
1266.59
-14739.3
2712.21
-15619.5
2399.84
-15542.8
-298.351
-14160.8
-5645.25
-14144.6
-5343.45
689.05
-5505.99
1515.58
-6082.52
2545.46
-7094.46
3196.4
-8490.57
3596.54
-10155.9
4004.59
-12001.7
4929.98
-13807.7
6159.35
-14510.5
5248.89
-12656.4
-609.191
-9435.37
-6766.56
-6374.17
-8696.71
-4962.71
-4226.46
-6588.67
2892.54
-8102.62
4226.16
-7352.77
1649.99
-6857.93
-793.188
-9304.06
-3199.13
-7969.3
-5576.72
738.974
-5477.1
1415.96
-5611.06
2679.43
-6223.38
3808.72
-7388.25
4761.4
-9014.34
5630.68
-10818.7
6734.31
-12176.2
7516.86
-11774
4846.74
-9339.15
-3044.07
-7010.48
-9095.24
-5165.06
-10542.1
-2462.45
-6929.07
-422.615
852.707
-208.527
4012.07
1207.67
233.789
3154.73
-2740.25
4186.34
-4230.73
443.42
-5940.67
954.327
-5869.86
1345.15
-5656.66
2466.23
-5727.17
3879.22
-6334.49
5368.72
-7526.54
6822.74
-8991.72
8199.48
-9887.72
8412.87
-8816.79
3775.81
-6506.71
-5354.15
-4969.24
-10632.7
-4066.55
-11444.8
-2471.16
-8524.46
1115.36
-2733.81
3901.64
1225.8
5053.44
-918.015
4974.79
-2661.6
4506.97
-3762.92
216.367
-6058.04
1425.35
-6338.3
1625.41
-6151.93
2279.86
-5851.05
3578.34
-5796.92
5314.59
-6257.84
7283.66
-7100.54
9042.19
-7542.42
8854.74
-6281.42
2514.81
-4586.21
-7049.36
-3758.82
-11460.1
-3310.9
-11892.7
-2164.68
-9670.68
685.103
-5583.6
3230.49
-1319.59
4199.45
-1886.98
4101.24
-2563.38
3339.31
-3000.99
452.756
-5739.18
2066.16
-6436.35
2322.57
-6644.51
2488.02
-6432.46
3366.29
-6021.22
4903.36
-5781.99
7044.42
-5849.54
9109.74
-5739.29
8744.49
-4493.81
1269.34
-3484.85
-8058.32
-3131.18
-11813.8
-2795.02
-12228.9
-1746.73
-10719
228.194
-7558.52
2141.02
-3232.42
3096.1
-2842.05
3026.91
-2494.19
2397.54
-2371.62
534.734
-5096.27
2725.4
-6038.83
3265.14
-6712.44
3161.63
-6964.23
3618.08
-6741.99
4681.12
-6276.29
6578.73
-5799.72
8633.17
-5079.83
8024.6
-3701.92
-108.57
-3067.13
-8693.11
-2846.5
-12034.4
-2367.32
-12708.1
-1377.04
-11709.2
52.3396
-8987.91
1444.7
-4624.77
2235.61
-3632.97
2222.59
-2481.18
1785.67
-1934.69
573.612
-4402.08
3313.91
-5409.68
4272.74
-6414.74
4166.68
-7262.65
4466
-7727.05
5145.52
-7715.8
6567.47
-7086
8003.37
-5478.61
6417.2
-3618.66
-1968.52
-3045.94
-9265.83
-2658.74
-12421.6
-2013.13
-13353.7
-1161.32
-12561.1
-126.994
-10022.2
861.359
-5613.13
1472.55
-4244.16
1478.17
-2486.8
1276.17
-1732.69
493.114
-3324.76
-4106.14
-5065.51
-6194.18
-7291.69
-7990.64
-7646.15
-5861.32
-3967.38
-3139.51
-2465.44
-1789.19
-1083.47
-320.365
396.531
942.853
1156.43
1276.84
159.343
-983.058
337.293
-1643.35
416.312
-1456.48
472.306
-1223.9
527.288
-1109.83
570.468
-1032.01
594.528
-978.466
591.659
-941.222
578.215
-918.47
557.461
-900.714
531.618
-887.751
501.407
-877.674
467.39
-870.281
429.688
-864.586
388.282
-860.031
341.967
-855.483
288.937
-848.717
225.062
-836.988
143.478
-823.132
-587.841
105.087
-1088.14
79.5901
-1617.85
64.4028
-1441.29
112.107
-1271.6
174.634
-1172.35
232.191
-1089.56
281.663
-1027.94
316.138
-975.695
334.482
-936.811
340.698
-906.928
337.271
-884.322
326.144
-866.544
308.325
-852.46
284.446
-840.704
255.137
-830.719
220.359
-820.703
180.737
-809.092
132.261
-788.509
72.0233
-762.891
-515.817
54.1083
-1142.25
64.8859
-1628.62
150.539
-1526.94
252.63
-1373.69
324.881
-1244.6
375.362
-1140.04
406.151
-1058.72
424.705
-994.247
431.981
-944.085
429.991
-904.935
419.781
-874.11
402.508
-849.27
378.808
-828.757
349.023
-810.917
313.265
-794.959
271.055
-778.491
222.169
-760.204
163.014
-729.352
90.2904
-690.165
-425.527
20.2596
-1162.51
69.5046
-1677.87
164.188
-1621.62
251.228
-1460.73
319.232
-1312.6
370.716
-1191.52
409.042
-1097.05
435.289
-1020.49
449.751
-958.544
452.997
-908.179
446.094
-867.206
430.2
-833.373
406.321
-804.876
375.059
-779.654
336.813
-756.711
291.186
-732.863
238.092
-707.108
174.167
-665.426
96.2978
-612.294
-329.229
-10.2596
-1152.24
74.4335
-1762.56
172.064
-1719.25
247.527
-1536.19
308.389
-1373.46
358.88
-1242.01
401.797
-1139.96
435.523
-1054.21
458.834
-981.854
470.689
-920.031
471.042
-867.557
460.452
-822.78
439.744
-784.167
409.568
-749.475
370.414
-717.557
321.98
-684.427
264.073
-649.2
194.007
-595.359
107.969
-526.253
-221.261
-18.057
-1134.18
73.5775
-1854.19
154.946
-1800.62
205.335
-1586.58
252.497
-1420.62
299.27
-1288.78
346.79
-1187.48
388.797
-1096.22
422.699
-1015.75
445.74
-943.069
456.84
-878.656
455.633
-821.57
442.407
-770.941
417.58
-724.646
381.596
-681.572
334.256
-637.085
275.279
-590.223
202.943
-523.023
111.44
-434.75
-109.821
-1.63339
-1132.55
72.7984
-1928.62
127.079
-1854.9
153.131
-1612.63
189.195
-1456.68
231.858
-1331.44
280.43
-1236.05
325.827
-1141.61
366.081
-1056.01
397.466
-974.45
418.36
-899.549
427.221
-830.428
423.382
-767.101
406.484
-707.746
376.555
-651.643
333.227
-593.756
276.098
-533.094
204.099
-451.024
106.972
-337.623
-2.84874
30.8471
-1163.39
83.7887
-1981.56
108.672
-1879.78
118.011
-1621.96
146.67
-1485.34
182.382
-1367.15
224.1
-1277.77
263.07
-1180.58
299.633
-1092.57
330.163
-1004.98
353.411
-922.797
367.04
-844.055
369.636
-769.698
359.897
-698.006
337.311
-629.057
300.9
-557.345
250.066
-482.26
182.738
-383.696
84.9806
-239.868
82.1319
67.8836
-1231.27
103.323
-2016.99
103.584
-1880.04
103.922
-1622.3
125.148
-1506.57
149.335
-1391.33
176.575
-1305
200.816
-1204.82
224.139
-1115.89
243.981
-1024.82
259.928
-938.741
269.967
-854.09
272.916
-772.645
267.378
-692.464
252.731
-614.408
227.343
-531.955
189.872
-444.788
136.079
-329.903
55.1846
-158.972
137.316
96.3548
-1327.63
117.159
-2037.8
102.611
-1865.49
99.5224
-1619.21
112.375
-1519.42
124.108
-1403.06
135.726
-1316.62
144.773
-1213.86
152.674
-1123.79
158.663
-1030.8
162.596
-942.675
163.886
-855.379
162.185
-770.945
157.043
-687.321
147.792
-605.158
132.658
-516.821
108.806
-420.937
72.7108
-293.809
26.7531
-113.017
164.07
115.741
-1443.37
126.201
-2048.26
112.433
-1851.72
114.448
-1621.22
125.448
-1530.42
133.565
-1411.18
139.364
-1322.42
143.536
-1218.03
145.328
-1125.58
145.696
-1031.17
143.927
-940.906
140.508
-851.959
135.108
-765.544
127.506
-679.717
115.931
-593.583
98.7332
-499.623
72.5729
-394.777
38.9353
-260.172
12.3941
-86.476
176.464
141.879
-1585.25
150.016
-2056.4
152.649
-1854.36
171.693
-1640.27
196.146
-1554.87
217.201
-1432.23
235.645
-1340.87
252.826
-1235.22
267.211
-1139.97
279.706
-1043.67
288.793
-949.995
293.821
-856.988
292.662
-764.387
282.889
-669.946
260.726
-571.421
224.213
-463.112
171.823
-342.387
108.066
-196.418
39.4284
-17.842
215.892
179.814
-1765.06
185.452
-2062.03
210.452
-1879.36
253.894
-1683.71
305.029
-1606.01
352.799
-1480
401.772
-1389.84
450.719
-1284.16
500.157
-1189.4
548.478
-1091.99
592.305
-993.821
625.765
-890.449
641.233
-779.854
631.624
-660.337
591.976
-531.773
520.581
-391.716
418.407
-240.213
287.955
-65.9644
136.255
133.86
352.147
192.133
-1957.2
175.645
-2045.55
211.901
-1915.62
267.855
-1739.67
335.974
-1674.13
403.86
-1547.89
481.082
-1467.07
563.774
-1366.86
655.575
-1281.21
750.655
-1187.07
839.774
-1082.94
904.548
-955.227
927.184
-802.492
900.986
-634.142
828.757
-459.547
711.12
-274.083
530.605
-59.7008
330.516
134.121
168.11
296.263
520.257
112.949
-2070.15
50.7135
-1983.32
55.8708
-1920.78
74.9476
-1758.75
103.562
-1702.75
138.598
-1582.94
184.668
-1513.14
241.355
-1423.55
309.579
-1349.43
379.543
-1257.04
431.432
-1134.83
434.222
-958.02
373.95
-742.223
275.205
-535.4
171.447
-355.792
84.1573
-186.8
51.5419
-27.0923
-4.24629
189.904
-73.9718
365.985
446.285
-24.1578
-2046
-115.459
-1892.02
-175.394
-1860.85
-232.142
-1702.01
-289.223
-1645.67
-339.119
-1533.05
-388.688
-1463.57
-431.64
-1380.6
-473.174
-1307.91
-517.445
-1212.78
-577.562
-1074.72
-662.521
-873.066
-759.947
-644.801
-835.122
-460.23
-869.242
-321.675
-877.836
-178.208
-874.764
-30.1665
-793.959
109.098
-558.076
130.101
-111.791
-86.013
-1959.99
-190.743
-1787.29
-282.105
-1769.49
-372.901
-1611.21
-466.844
-1551.73
-555.69
-1444.2
-650.544
-1368.72
-745.713
-1285.44
-845.512
-1208.11
-941.983
-1116.31
-1020.62
-996.081
-1053.72
-839.968
-1022.47
-676.049
-935.252
-547.455
-803.84
-453.088
-628.744
-353.305
-423.488
-235.424
-194.691
-119.7
-41.5529
-23.0404
-153.344
-139.678
-1820.31
-317.813
-1609.16
-456.113
-1631.19
-566.294
-1501.03
-667.53
-1450.49
-747.012
-1364.72
-818.278
-1297.46
-877.852
-1225.87
-926.95
-1159.01
-953.413
-1089.85
-934.083
-1015.41
-841.888
-932.164
-674.648
-843.291
-465.329
-756.776
-240.585
-677.834
5.84773
-599.741
267.41
-496.989
461.358
-313.65
389.461
48.8548
236.117
-172.938
-1647.37
-393.872
-1388.23
-628.058
-1397
-819.593
-1309.5
-1001.65
-1268.44
-1150.83
-1215.54
-1277.15
-1171.14
-1376.03
-1126.98
-1449.12
-1085.93
-1492.29
-1046.67
-1499.12
-1008.59
-1462.02
-969.263
-1379.38
-925.937
-1259.21
-876.942
-1114.77
-822.274
-953.149
-761.363
-768.341
-681.797
-549.263
-532.729
-245.419
-254.991
-9.3025
-672.375
-1085.6
-1507.61
-1842.11
-2135.55
-2376.09
-2572.23
-2724.21
-2835.14
-2906.81
-2940.4
-2934.66
-2885.6
-2787.54
-2634.82
-2421.18
-2127.98
-1685.71
-965.698
-672.437
1647.44
-1085.72
1388.29
-1507.79
1397.06
-1842.35
1309.56
-2135.85
1268.5
-2376.45
1215.6
-2572.65
1171.2
-2724.69
1127.04
-2835.69
1086
-2907.43
1046.74
-2941.09
1008.65
-2935.41
969.319
-2886.38
925.974
-2788.35
876.972
-2635.68
822.32
-2422.09
761.414
-2128.81
681.718
-1686.06
532.254
-965.357
254.294
9.64258
-172.925
1820.36
-393.785
1609.15
-627.894
1631.17
-819.301
1500.97
-1001.2
1450.4
-1150.2
1364.59
-1276.29
1297.29
-1374.91
1225.67
-1447.7
1158.78
-1490.57
1089.61
-1497.1
1015.19
-1459.82
932.029
-1377.16
843.313
-1257.18
756.99
-1113.09
678.23
-951.912
600.239
-767.604
497.41
-549.078
313.726
-246.123
-48.6653
-236.48
-139.314
1959.67
-317.133
1786.96
-455.093
1769.13
-564.929
1610.8
-665.819
1551.29
-744.954
1443.72
-815.878
1368.21
-875.113
1284.9
-923.844
1207.51
-949.844
1115.6
-929.903
995.251
-837.082
839.206
-669.525
675.754
-460.277
547.74
-235.635
453.585
10.705
353.895
271.97
236.142
464.912
120.782
391.047
25.1969
154.567
-85.9668
2045.64
-190.648
1891.64
-281.983
1860.47
-372.832
1701.65
-466.832
1645.29
-555.806
1532.7
-650.822
1463.23
-746.215
1380.29
-846.251
1307.55
-942.872
1212.22
-1021.37
1073.75
-1053.92
871.753
-1021.95
643.791
-934.194
459.978
-802.426
321.817
-626.922
178.39
-420.935
30.1539
-191.559
-108.595
-39.5319
-126.833
115.035
-24.6724
2070.31
-116.161
1983.13
-176.439
1920.74
-233.598
1758.8
-291.13
1702.82
-341.518
1583.08
-391.639
1513.35
-435.197
1423.85
-477.422
1349.77
-522.472
1257.27
-583.41
1134.68
-668.985
957.326
-766.504
741.308
-841.293
534.765
-875.004
355.526
-883.374
186.759
-880.288
27.0675
-798.642
-190.242
-559.594
-365.882
-444.559
112.429
1957.88
49.8283
2045.73
54.5956
1915.97
73.2714
1740.12
101.455
1674.63
136.087
1548.45
181.741
1467.69
238.032
1367.55
305.831
1281.97
375.277
1187.82
426.427
1083.53
428.284
955.467
367.281
802.311
268.42
633.625
165.164
458.783
78.8348
273.087
48.2282
57.6735
-7.08044
-134.934
-76.1199
-296.842
-520.678
192.213
1765.66
175.551
2062.39
211.749
1879.77
267.695
1684.18
335.847
1606.48
403.798
1480.49
481.143
1390.35
564.01
1284.68
656.044
1189.94
751.357
1092.51
840.611
994.279
905.305
890.772
927.646
779.969
901.076
660.194
828.498
531.36
710.531
391.053
528.89
239.314
329.115
64.8407
167.333
-135.061
-353.345
180.09
1585.57
185.767
2056.71
210.849
1854.69
254.419
1640.61
305.726
1555.18
353.669
1432.55
402.851
1341.17
452.021
1235.52
501.712
1140.25
550.289
1043.93
594.344
950.225
627.949
857.168
643.43
764.489
633.695
669.929
593.808
571.248
522.105
462.757
419.56
341.86
288.698
195.704
136.678
16.9611
-216.667
142.003
1443.57
150.246
2048.47
153.005
1851.93
172.173
1621.44
196.759
1530.59
217.944
1411.37
236.524
1322.59
253.836
1218.2
268.357
1125.73
280.984
1031.3
290.196
941.013
295.321
852.042
294.214
765.595
284.423
679.72
262.161
593.509
225.474
499.444
172.852
394.482
108.812
259.744
39.7897
85.983
-176.877
115.69
1327.88
126.206
2037.95
112.551
1865.59
114.648
1619.34
125.707
1519.53
133.88
1403.19
139.729
1316.74
143.945
1213.99
145.774
1123.9
146.175
1030.9
144.436
942.753
141.042
855.437
135.661
770.977
128.06
687.321
116.457
605.113
99.1853
516.716
72.9131
420.754
39.1335
293.525
12.4996
112.618
-164.377
96.2783
1231.6
117.093
2017.14
102.606
1880.07
99.5634
1622.39
112.43
1506.66
124.171
1391.45
135.785
1305.12
144.823
1204.95
152.704
1116.02
158.666
1024.94
162.568
938.852
163.827
854.178
162.111
772.693
156.977
692.455
147.752
614.338
132.646
531.822
108.804
444.596
72.6911
329.638
26.77
158.539
-137.607
67.8905
1163.71
103.348
1981.68
103.637
1879.79
104.011
1622.01
125.253
1485.42
149.441
1367.27
176.667
1277.9
200.893
1180.73
224.194
1092.72
244.003
1005.13
259.9
922.956
269.881
844.198
272.787
769.789
267.235
698.009
252.613
628.961
227.273
557.163
189.847
482.023
136.059
383.427
55.1627
239.437
-82.4448
30.9197
1132.8
83.9033
1928.7
108.811
1854.88
118.198
1612.63
146.89
1456.73
182.619
1331.54
224.345
1236.17
263.332
1141.74
299.912
1056.14
330.444
974.602
353.669
899.731
367.252
830.615
369.803
767.238
360.033
707.779
337.44
651.554
301.033
593.571
250.195
532.861
182.822
450.8
84.959
337.301
2.51421
-1.55267
1134.35
72.9062
1854.24
127.201
1800.59
153.292
1586.54
189.387
1420.64
232.079
1288.85
280.694
1187.56
326.155
1096.28
366.476
1015.82
397.906
943.175
418.814
878.823
427.664
821.767
423.806
771.098
406.887
724.7
376.937
681.505
333.578
636.931
276.398
590.041
204.312
522.886
107.013
434.6
109.528
-18.004
1152.36
73.6031
1762.63
154.935
1719.26
205.298
1536.18
252.45
1373.49
299.255
1242.04
346.854
1139.96
388.966
1054.17
422.966
981.819
446.073
920.069
457.209
867.687
456.022
822.956
442.811
784.309
417.99
749.522
381.998
717.498
334.624
684.305
275.587
649.078
203.159
595.314
111.475
526.285
221.003
-10.2663
1162.62
74.3727
1678
171.892
1621.74
247.236
1460.83
308.045
1312.68
358.582
1191.51
401.615
1096.93
435.467
1020.32
458.875
958.412
470.79
908.157
471.185
867.294
460.638
833.506
439.977
804.971
409.838
779.662
370.7
756.637
322.253
732.754
264.304
707.028
194.164
665.454
107.954
612.496
328.957
20.1603
1142.46
69.3805
1628.78
163.884
1527.23
250.752
1373.97
318.706
1244.73
370.27
1139.95
408.733
1058.47
435.096
993.958
449.625
943.884
452.91
904.873
446.047
874.156
430.21
849.343
406.396
828.785
375.19
810.869
336.976
794.851
291.355
778.375
238.245
760.138
174.271
729.428
96.2379
690.529
425.194
53.9281
1088.54
64.7439
1617.96
150.154
1441.82
252.049
1272.07
324.347
1172.43
374.979
1089.32
405.914
1027.54
424.54
975.333
431.837
936.588
429.855
906.855
419.676
884.336
402.458
866.562
378.818
852.425
349.083
840.604
313.354
830.581
271.156
820.574
222.269
809.025
163.076
788.622
90.2055
763.401
515.4
104.877
983.66
79.4761
1643.36
64.219
1457.08
111.698
1224.59
174.171
1109.95
231.782
1031.71
281.319
978
315.819
940.834
334.164
918.242
340.385
900.636
336.988
887.733
325.912
877.64
308.148
870.19
284.318
864.435
255.048
859.851
220.309
855.314
180.728
848.607
132.257
837.094
71.9502
823.709
587.35
159.452
337.49
416.72
472.783
527.741
570.914
594.962
592.116
578.718
558.021
532.22
502.017
467.955
430.162
388.631
342.185
289.047
225.118
143.564
)
;

boundaryField
{
    outletWall
    {
        type            calculated;
        value           nonuniform List<scalar> 
60
(
5743.71
380.166
-1880.86
-2705.18
-4664.02
-6138.69
-10657.5
-13182.4
-13980.3
-13066
-10075.9
-3865.52
4631.39
7651.29
7256.09
6234.18
5587
5119.1
5045.61
3707.11
2927.4
3813.57
4437.03
5098.37
5587.02
5725.32
5526.8
5271.05
5166.56
5157.42
5122.64
5116.75
5230.82
5494.48
5699.75
5568.52
5085.67
4428.29
3807.31
2923.73
5761.89
431.332
-1853.11
-2700.37
-4790.48
-6330.02
-10785.3
-13266.8
-14029.9
-13095.7
-10093.7
-3862.45
4632.36
7658.89
7266.42
6243.03
5594.67
5126.05
5054.11
3711.27
)
;
    }
    fineWalls
    {
        type            calculated;
        value           uniform 0;
    }
    fineFrontAndBack
    {
        type            calculated;
        value           nonuniform List<scalar> 
960
(
1.64163e-13
3.05256e-13
-1.83411e-13
-5.9394e-13
-6.47287e-12
-1.47881e-12
-1.01913e-12
-3.18203e-13
3.82245e-12
1.75135e-12
1.68687e-12
8.68779e-12
2.8329e-12
3.79953e-12
1.3068e-11
2.06877e-12
2.14636e-12
7.29995e-12
1.26838e-12
8.28958e-13
3.22843e-13
8.80982e-14
2.48463e-14
-4.44794e-14
-7.88677e-14
-3.65571e-13
-2.01735e-12
-6.76205e-13
-7.69986e-13
-9.00213e-13
-1.03088e-12
-1.14469e-12
-1.24711e-12
-1.31284e-12
-1.33664e-12
-1.38619e-12
-1.4031e-12
-1.43155e-12
-1.43832e-12
-1.60157e-12
-3.95525e-11
-6.2653e-12
-6.17668e-12
-7.61512e-12
-1.47089e-11
8.00098e-12
5.06031e-12
5.76104e-12
6.77143e-12
-1.70182e-11
-1.29655e-11
3.62021e-11
8.80563e-12
7.11909e-12
5.48664e-12
3.0322e-11
6.16788e-12
5.52703e-12
5.13278e-12
3.38511e-11
1.37966e-12
1.07151e-12
9.54446e-13
8.14915e-13
7.14115e-13
6.93722e-13
7.28642e-13
7.76992e-13
8.03526e-13
7.83288e-13
7.7184e-13
7.52464e-13
7.59031e-13
7.98984e-12
6.82053e-13
5.4839e-13
5.65496e-13
5.02354e-13
4.21629e-13
1.4567e-13
1.29338e-12
9.40051e-13
5.76917e-12
1.48449e-12
1.22894e-12
7.30686e-12
2.24896e-12
1.62378e-12
4.44794e-12
7.89572e-13
5.75029e-13
4.11962e-12
1.32686e-12
1.59145e-12
2.09044e-12
1.14565e-11
2.18282e-12
1.85334e-12
7.15213e-12
6.41958e-13
-2.69626e-12
-2.31766e-12
-1.75383e-12
-1.87353e-12
-2.66887e-12
-3.64544e-12
-4.1475e-12
-4.23591e-12
-4.89031e-12
-5.01714e-12
-4.19603e-12
-3.0741e-12
-2.00461e-12
-1.14033e-12
-4.94948e-13
-1.5563e-13
-1.40616e-14
2.73506e-14
-2.39019e-12
-4.01217e-12
-3.08472e-12
-2.6988e-12
-3.32462e-12
-4.26932e-12
-4.53655e-12
-3.34989e-12
-1.26292e-12
-2.04523e-12
-4.86567e-12
-4.13808e-12
-2.95719e-12
-1.95171e-12
-1.11401e-12
-5.06008e-13
-1.81804e-13
-5.53361e-14
4.22193e-13
-5.28332e-12
-4.49566e-12
-3.289e-12
-3.32606e-12
-4.22407e-12
-5.09095e-12
-4.94528e-12
-2.61327e-12
1.98621e-12
3.09883e-12
-3.34339e-12
-4.19909e-12
-2.82509e-12
-1.84981e-12
-1.08444e-12
-5.27842e-13
-2.27413e-13
-1.43573e-13
4.61467e-13
-2.35766e-12
-4.89809e-12
-3.60662e-12
-4.18348e-12
-5.40017e-12
-6.37517e-12
-5.74597e-12
-1.41257e-12
6.57087e-12
9.50349e-12
1.8312e-13
-3.79347e-12
-2.86856e-12
-1.66974e-12
-1.01469e-12
-5.36689e-13
-2.57746e-13
-2.05951e-13
5.87591e-13
-2.9543e-12
-5.09579e-12
-3.99581e-12
-5.27725e-12
-6.96468e-12
-7.91651e-12
-5.60085e-12
2.77459e-12
1.48384e-11
1.78355e-11
4.99586e-12
-2.26712e-12
-2.96373e-12
-1.59086e-12
-9.13635e-13
-1.75217e-14
-3.17644e-13
-9.30956e-13
3.78499e-13
-3.63646e-12
-5.27664e-12
-4.77297e-12
-7.08636e-12
-9.25631e-12
-9.10939e-12
-2.89312e-12
1.12185e-11
2.7045e-11
2.87119e-11
1.05893e-11
-1.36342e-13
-2.55588e-12
-1.81725e-12
-5.53494e-14
1.69827e-11
1.63059e-11
8.70094e-12
2.02651e-12
-3.761e-12
-5.95466e-12
-6.84393e-12
-1.04663e-11
-1.21298e-11
-8.5911e-12
3.44366e-12
2.31241e-11
4.1707e-11
4.27445e-11
1.86791e-11
1.32086e-12
-2.11267e-12
-7.4127e-13
1.90959e-11
5.2573e-11
4.58103e-11
3.41163e-11
1.84522e-11
-1.11996e-11
-8.45761e-12
-1.16605e-11
-1.55581e-11
-1.4339e-11
-5.47897e-12
1.19903e-11
3.48102e-11
5.5073e-11
5.94059e-11
3.45337e-11
1.3711e-12
-8.80826e-12
4.93215e-12
5.44531e-11
6.95719e-11
4.89308e-11
3.11171e-11
2.94092e-11
3.60828e-11
-1.48419e-11
-1.87074e-11
-1.96903e-11
-1.42759e-11
-1.74853e-12
1.71058e-11
3.8646e-11
5.84093e-11
7.01833e-11
6.45643e-11
4.04623e-11
2.86965e-11
5.02511e-11
8.45033e-11
8.7812e-11
7.90134e-11
6.76344e-11
6.10528e-11
5.90469e-11
-2.39408e-11
-2.06656e-11
-1.75891e-11
-1.21122e-11
-3.31748e-12
8.38617e-12
2.22768e-11
3.65684e-11
4.78934e-11
5.91731e-11
6.16373e-11
5.87921e-11
6.69465e-11
6.67839e-11
7.21809e-11
8.68373e-11
7.82158e-11
7.5268e-11
7.08625e-11
6.58673e-13
-3.20804e-12
-5.64674e-12
-7.3822e-12
-1.03428e-11
-1.62871e-11
-2.71555e-11
-4.184e-11
-5.50213e-11
-6.89428e-11
-7.25734e-11
-6.16785e-11
-4.34578e-11
-1.48131e-11
1.01567e-11
9.13646e-12
-5.87781e-12
-1.8592e-11
-1.62768e-11
2.17869e-12
1.34959e-12
-1.07251e-12
-5.76176e-12
-1.40983e-11
-2.71449e-11
-4.39925e-11
-6.17806e-11
-7.39434e-11
-6.95543e-11
-4.60138e-11
-3.57076e-11
-5.9589e-11
-8.52334e-11
-6.95505e-11
-5.4254e-11
-5.45096e-11
-5.59557e-11
-5.03319e-11
1.76819e-12
1.5683e-12
2.58153e-13
-3.5408e-12
-1.12127e-11
-2.40434e-11
-4.13376e-11
-5.77712e-11
-6.05125e-11
-3.46296e-11
8.26344e-14
1.08197e-11
-6.0923e-12
-6.87591e-11
-8.75998e-11
-6.7376e-11
-5.28898e-11
-4.77692e-11
-4.74639e-11
1.84795e-12
1.74031e-12
1.00016e-12
-1.23228e-12
-6.37978e-12
-1.63188e-11
-3.12601e-11
-4.51208e-11
-4.32891e-11
-1.81948e-11
-8.0695e-13
2.82222e-12
1.69366e-12
-2.39357e-11
-7.46536e-11
-7.36154e-11
-5.87129e-11
-2.93864e-11
1.36004e-11
2.04792e-12
2.32298e-12
2.0054e-12
8.31666e-13
-2.15914e-12
-8.82849e-12
-2.03105e-11
-3.18628e-11
-2.99663e-11
-1.03748e-11
5.59395e-13
3.35632e-12
2.76927e-12
5.56597e-13
-2.3761e-11
-2.38042e-11
-1.36231e-11
-1.06974e-12
-2.91069e-12
1.9747e-12
2.61612e-12
2.80953e-12
2.38377e-12
7.7704e-13
-3.30788e-12
-1.12931e-11
-2.06373e-11
-2.01561e-11
-5.28898e-12
2.72611e-12
3.89953e-12
2.46546e-12
1.55432e-12
4.73399e-13
8.68322e-13
1.1117e-12
1.54458e-12
-5.59045e-12
1.67263e-12
2.41907e-12
2.98905e-12
3.15887e-12
2.46099e-12
6.62046e-14
-5.14768e-12
-1.21661e-11
-1.2381e-11
-5.28998e-13
4.48702e-12
3.83233e-12
2.51353e-12
1.69491e-12
1.00931e-12
5.51835e-13
2.02596e-13
5.09072e-13
-6.39716e-12
1.29847e-12
1.94032e-12
2.62797e-12
3.17506e-12
3.10631e-12
1.7365e-12
-1.66563e-12
-6.33542e-12
-5.55608e-12
3.42532e-12
5.01358e-12
3.7238e-12
2.69595e-12
1.79651e-12
9.98012e-13
4.65967e-13
2.53275e-13
-3.08482e-13
-1.75018e-13
9.89995e-13
1.46888e-12
2.08812e-12
2.80703e-12
3.22517e-12
2.66231e-12
6.55172e-13
-1.60807e-12
7.60407e-13
5.25929e-12
4.87735e-12
3.8136e-12
2.81375e-12
1.83703e-12
9.66312e-13
3.78914e-13
1.01615e-13
-5.68196e-14
2.14694e-12
5.79764e-13
8.67973e-13
1.21504e-12
1.73008e-12
2.37115e-12
2.83719e-12
2.83581e-12
2.94919e-12
4.56513e-12
5.3434e-12
4.86357e-12
3.92592e-12
2.87282e-12
1.86941e-12
9.50326e-13
3.25933e-13
6.67903e-14
4.72096e-14
-6.0272e-15
-1.64163e-13
-3.05256e-13
1.83411e-13
5.9394e-13
6.47287e-12
1.47881e-12
1.01913e-12
3.18203e-13
-3.82245e-12
-1.75135e-12
-1.68687e-12
-8.68779e-12
-2.8329e-12
-3.79953e-12
-1.3068e-11
-2.06877e-12
-2.14636e-12
-7.29995e-12
-1.26838e-12
-8.28958e-13
-3.22843e-13
-8.80982e-14
-2.48463e-14
4.44794e-14
7.88677e-14
3.65571e-13
2.01735e-12
6.76205e-13
7.69986e-13
9.00213e-13
1.03088e-12
1.14469e-12
1.24711e-12
1.31284e-12
1.33664e-12
1.38619e-12
1.4031e-12
1.43155e-12
1.43832e-12
1.60157e-12
3.95525e-11
6.2653e-12
6.17668e-12
7.61512e-12
1.47089e-11
-8.00098e-12
-5.06031e-12
-5.76104e-12
-6.77143e-12
1.70182e-11
1.29655e-11
-3.62021e-11
-8.80563e-12
-7.11909e-12
-5.48664e-12
-3.0322e-11
-6.16788e-12
-5.52703e-12
-5.13278e-12
-3.38511e-11
-1.37966e-12
-1.07151e-12
-9.54446e-13
-8.14915e-13
-7.14115e-13
-6.93722e-13
-7.28642e-13
-7.76992e-13
-8.03526e-13
-7.83288e-13
-7.7184e-13
-7.52464e-13
-7.59031e-13
-7.98984e-12
-6.82053e-13
-5.4839e-13
-5.65496e-13
-5.02354e-13
-4.21629e-13
-1.4567e-13
-1.29338e-12
-9.40051e-13
-5.76917e-12
-1.48449e-12
-1.22894e-12
-7.30686e-12
-2.24896e-12
-1.62378e-12
-4.44794e-12
-7.89572e-13
-5.75029e-13
-4.11962e-12
-1.32686e-12
-1.59145e-12
-2.09044e-12
-1.14565e-11
-2.18282e-12
-1.85334e-12
-7.15213e-12
-6.41958e-13
2.69626e-12
2.31766e-12
1.75383e-12
1.87353e-12
2.66887e-12
3.64544e-12
4.1475e-12
4.23591e-12
4.89031e-12
5.01714e-12
4.19603e-12
3.0741e-12
2.00461e-12
1.14033e-12
4.94948e-13
1.5563e-13
1.40616e-14
-2.73506e-14
2.39019e-12
4.01217e-12
3.08472e-12
2.6988e-12
3.32462e-12
4.26932e-12
4.53655e-12
3.34989e-12
1.26292e-12
2.04523e-12
4.86567e-12
4.13808e-12
2.95719e-12
1.95171e-12
1.11401e-12
5.06008e-13
1.81804e-13
5.53361e-14
-4.22193e-13
5.28332e-12
4.49566e-12
3.289e-12
3.32606e-12
4.22407e-12
5.09095e-12
4.94528e-12
2.61327e-12
-1.98621e-12
-3.09883e-12
3.34339e-12
4.19909e-12
2.82509e-12
1.84981e-12
1.08444e-12
5.27842e-13
2.27413e-13
1.43573e-13
-4.61467e-13
2.35766e-12
4.89809e-12
3.60662e-12
4.18348e-12
5.40017e-12
6.37517e-12
5.74597e-12
1.41257e-12
-6.57087e-12
-9.50349e-12
-1.8312e-13
3.79347e-12
2.86856e-12
1.66974e-12
1.01469e-12
5.36689e-13
2.57746e-13
2.05951e-13
-5.87591e-13
2.9543e-12
5.09579e-12
3.99581e-12
5.27725e-12
6.96468e-12
7.91651e-12
5.60085e-12
-2.77459e-12
-1.48384e-11
-1.78355e-11
-4.99586e-12
2.26712e-12
2.96373e-12
1.59086e-12
9.13635e-13
1.75217e-14
3.17644e-13
9.30956e-13
-3.78499e-13
3.63646e-12
5.27664e-12
4.77297e-12
7.08636e-12
9.25631e-12
9.10939e-12
2.89312e-12
-1.12185e-11
-2.7045e-11
-2.87119e-11
-1.05893e-11
1.36342e-13
2.55588e-12
1.81725e-12
5.53494e-14
-1.69827e-11
-1.63059e-11
-8.70094e-12
-2.02651e-12
3.761e-12