/*--------------------------------*- C++ -*----------------------------------*\
| =========                 |                                                 |
| \\      /  F ield         | OpenFOAM: The Open Source CFD Toolbox           |
|  \\    /   O peration     | Version:  4.1                                   |
|   \\  /    A nd           | Web:      www.OpenFOAM.org                      |
|    \\/     M anipulation  |                                                 |
\*---------------------------------------------------------------------------*/
FoamFile
{
    version     2.0;
    format      ascii;
    class       volVectorField;
    location    "4";
    object      U;
}
// * * * * * * * * * * * * * * * * * * * * * * * * * * * * * * * * * * * * * //

dimensions      [0 1 -1 0 0 0 0];

internalField   nonuniform List<vector> 
1280
(
(1.18636e-16 -1.89534 -0.96213)
(5.18812e-17 -1.62218 -0.974853)
(-1.32865e-16 -1.59846 -0.72278)
(-4.29225e-16 -1.37648 -0.853846)
(-1.10013e-15 -1.49124 -1.21401)
(-1.0687e-15 -1.13124 -0.889687)
(-7.36499e-16 -1.06172 -0.973366)
(-2.00439e-16 -0.83651 -1.02156)
(6.79122e-16 -0.833715 -1.54496)
(1.26565e-15 -0.509954 -1.30048)
(1.15032e-15 -0.28138 -1.39916)
(1.7888e-15 -0.0134439 -1.91919)
(2.13708e-15 0.191079 -1.43934)
(2.7235e-15 0.496382 -1.23346)
(2.39901e-15 0.665482 -2.39992)
(1.49505e-15 1.14214 -1.95111)
(1.55112e-15 1.48247 -1.55751)
(1.2407e-15 1.9964 -3.58906)
(9.16625e-16 2.76073 -1.95987)
(5.99066e-16 2.35524 -4.17781)
(1.32448e-15 2.72351 0.74997)
(3.61429e-16 3.11664 6.5282)
(1.01934e-16 2.64583 9.25895)
(-1.8248e-16 2.9871 10.1449)
(-3.2356e-16 3.00718 10.6449)
(-1.49978e-15 3.28506 11.0095)
(-4.25265e-16 3.05884 9.48851)
(-2.77418e-15 6.5436 13.034)
(-3.15892e-15 6.66088 12.9634)
(-3.69318e-15 6.64373 12.8619)
(-4.22926e-15 6.65889 12.7967)
(-4.69617e-15 6.69175 12.7831)
(-5.11634e-15 6.71947 12.8142)
(-5.38602e-15 6.7412 12.884)
(-5.48364e-15 6.77661 13.0064)
(-5.68694e-15 6.77566 13.2181)
(-5.7563e-15 6.8288 13.5712)
(-5.87302e-15 6.72991 13.9821)
(-5.90081e-15 6.86387 14.7771)
(-6.57056e-15 6.59704 14.7625)
(-6.88468e-15 8.80335 15.8464)
(-5.03237e-15 4.54741 11.1534)
(-4.96118e-15 2.96264 10.8844)
(-6.11123e-15 2.0161 11.3163)
(-2.5693e-15 -0.651329 6.38352)
(6.42649e-15 -0.805643 -4.20807)
(4.06451e-15 -0.477056 -3.31467)
(4.62734e-15 -0.258053 -3.88014)
(1.64073e-15 2.33632 -5.9839)
(-9.9399e-15 5.01805 -8.30477)
(-2.34018e-14 -5.48885 -9.40073)
(6.3015e-15 -2.40285 -6.03303)
(7.0728e-15 0.256022 -3.86352)
(5.71814e-15 0.482052 -3.30784)
(4.40694e-15 0.809846 -4.23283)
(5.27798e-15 0.655361 6.37771)
(4.95945e-15 -2.01393 11.3139)
(4.43938e-15 -2.9584 10.8822)
(4.12272e-15 -4.54455 11.1535)
(5.59107e-15 -8.80279 15.8487)
(5.66016e-15 -6.59035 14.7664)
(4.39596e-15 -6.85806 14.7897)
(3.91568e-15 -6.72324 13.9942)
(3.34324e-15 -6.8228 13.5848)
(2.9297e-15 -6.76985 13.2322)
(2.84604e-15 -6.77115 13.0197)
(2.9893e-15 -6.73596 12.8954)
(3.18766e-15 -6.71431 12.823)
(3.29652e-15 -6.68652 12.7888)
(3.21349e-15 -6.65346 12.7992)
(3.16652e-15 -6.63798 12.8616)
(3.08703e-15 -6.65483 12.9608)
(3.11397e-15 -6.5373 13.0301)
(1.68429e-15 -3.05668 9.48749)
(2.79816e-15 -3.28134 11.0062)
(2.24981e-15 -3.00275 10.6458)
(2.31999e-15 -2.98222 10.1483)
(2.06094e-15 -2.64149 9.26036)
(1.72976e-15 -3.11132 6.52817)
(5.97622e-16 -2.71923 0.752848)
(9.34689e-16 -2.34726 -4.17741)
(6.7935e-16 -2.75806 -1.95276)
(9.80525e-16 -1.99627 -3.5782)
(1.0728e-15 -1.48422 -1.55607)
(8.88122e-16 -1.14452 -1.94679)
(1.33076e-15 -0.672184 -2.3945)
(1.62526e-15 -0.499129 -1.23265)
(1.2624e-15 -0.195295 -1.43634)
(9.12329e-16 0.00535084 -1.91473)
(5.01142e-16 0.276847 -1.39627)
(4.15558e-16 0.504625 -1.29818)
(9.37477e-16 0.824879 -1.54373)
(9.88551e-16 0.830607 -1.02378)
(1.1501e-15 1.05484 -0.978815)
(1.51071e-15 1.12696 -0.898226)
(1.94714e-15 1.48333 -1.22593)
(1.57747e-15 1.37205 -0.86015)
(1.33904e-15 1.59444 -0.722863)
(1.22343e-15 1.61447 -0.963228)
(4.63926e-16 1.88964 -0.960012)
(-2.99585e-16 1.22701 2.44219)
(-2.57517e-16 1.66043 3.0806)
(-1.94871e-16 1.67838 3.75917)
(-2.0817e-16 1.82298 4.66539)
(-2.96541e-16 2.03197 5.63508)
(-4.05049e-16 2.38265 6.48142)
(-4.60833e-16 2.56032 6.79536)
(-4.70656e-16 1.61611 5.90769)
(-5.43367e-16 -1.17036 3.78823)
(-5.5746e-16 -3.25266 2.87432)
(-4.66225e-16 -4.29774 2.32827)
(-3.41566e-16 -4.63602 1.77659)
(-2.22734e-16 -4.39473 1.20264)
(-1.26704e-16 -3.57025 0.601515)
(-5.49943e-17 -2.0762 -0.073493)
(-1.72922e-17 -1.55232 -0.583438)
(-1.5624e-18 -0.881901 -0.994587)
(3.03895e-18 -0.617843 -0.963309)
(-2.65577e-16 0.133219 -1.2239)
(-4.45797e-16 0.994626 3.18939)
(-3.42747e-16 1.21185 4.10573)
(-2.99867e-16 1.13847 4.90788)
(-3.69402e-16 1.21302 5.75265)
(-4.74368e-16 1.47233 6.31559)
(-5.04061e-16 2.05739 6.50505)
(-3.7221e-16 2.76834 6.2739)
(-1.40324e-16 2.55996 5.44652)
(-2.27248e-16 -0.332974 3.5602)
(-5.4063e-16 -3.05475 2.56873)
(-4.59786e-16 -4.05859 2.43127)
(-3.28577e-16 -4.29979 1.99924)
(-2.16856e-16 -3.98286 1.34361)
(-1.23779e-16 -3.07662 0.582544)
(-5.62231e-17 -1.57616 -0.372288)
(-2.02004e-17 -1.23334 -1.04485)
(-6.14845e-18 -0.80827 -1.41405)
(4.69104e-17 -0.585716 -1.13554)
(-5.87036e-16 0.14133 -1.01272)
(-4.99518e-16 0.815435 3.71577)
(-3.65444e-16 0.944424 4.7155)
(-3.69562e-16 0.944856 5.34876)
(-4.69341e-16 1.1674 5.796)
(-5.65662e-16 1.61381 5.76639)
(-5.49475e-16 2.30262 5.40648)
(-2.90363e-16 2.98938 4.97537)
(2.20691e-16 2.81601 4.62076)
(3.44314e-16 0.190977 3.71372)
(-3.71488e-16 -2.75965 2.56073)
(-4.66566e-16 -3.95145 2.45456)
(-3.13899e-16 -4.1133 2.2966)
(-2.05534e-16 -3.7067 1.64002)
(-1.20493e-16 -2.72954 0.63739)
(-5.86491e-17 -1.25686 -0.733157)
(-2.52681e-17 -1.0533 -1.66805)
(-1.59526e-17 -0.866632 -2.10766)
(5.12742e-17 -0.708834 -1.68945)
(-2.61963e-16 0.305902 -1.32539)
(-5.44233e-16 0.56824 4.26946)
(-4.00736e-16 0.613879 5.2154)
(-4.64831e-16 0.733922 5.50666)
(-6.00019e-16 1.10716 5.51386)
(-7.08353e-16 1.69059 5.15849)
(-6.38441e-16 2.42123 4.81802)
(-1.56953e-16 3.08778 4.75449)
(7.30096e-16 2.98909 4.95992)
(1.05594e-15 0.627754 4.54111)
(2.03467e-17 -2.54159 3.0449)
(-4.21497e-16 -3.89144 2.63738)
(-3.18729e-16 -4.00095 2.58967)
(-1.85527e-16 -3.37621 2.06931)
(-1.12743e-16 -2.20015 0.80194)
(-5.96321e-17 -0.754607 -1.20248)
(-2.86384e-17 -0.772347 -2.3855)
(-2.28834e-17 -0.802683 -2.87565)
(6.52878e-17 -0.943897 -2.28534)
(-3.28255e-16 -0.133713 -1.83543)
(-5.66199e-16 0.382751 4.67244)
(-4.43978e-16 0.469554 5.33174)
(-5.86361e-16 0.785653 5.21619)
(-7.73853e-16 1.27733 4.97485)
(-8.79612e-16 1.8512 4.73104)
(-6.22316e-16 2.43405 4.88655)
(3.08288e-16 2.93987 5.50388)
(1.64871e-15 2.90485 6.33136)
(1.98172e-15 1.0325 6.25444)
(5.55095e-16 -2.15302 4.26517)
(-2.51903e-16 -3.74699 3.25404)
(-3.29304e-16 -3.9091 3.00574)
(-1.76762e-16 -3.01254 2.52575)
(-1.01515e-16 -1.4027 0.983556)
(-1.94685e-18 0.0071264 -2.10432)
(-3.52938e-17 -0.539473 -3.34648)
(-1.0344e-16 -1.04414 -3.8641)
(4.20555e-17 -1.04673 -3.10921)
(-4.04051e-16 0.634199 -2.65103)
(-5.86293e-16 0.257062 4.77714)
(-5.3033e-16 0.438842 5.02671)
(-7.87374e-16 0.871707 4.72655)
(-1.02848e-15 1.32265 4.63733)
(-1.01215e-15 1.73976 4.87433)
(-3.21458e-16 2.12093 5.66574)
(1.2465e-15 2.52329 6.87393)
(3.005e-15 2.68166 8.14472)
(3.19021e-15 1.45893 8.41355)
(1.17659e-15 -1.46319 6.27738)
(-1.51491e-17 -3.33929 4.47703)
(-2.83986e-16 -3.69756 3.77219)
(-2.01916e-16 -2.59967 3.01981)
(-6.14994e-18 -0.309543 0.776505)
(1.88697e-15 1.14273 -2.30891)
(1.81177e-15 0.237417 -3.89548)
(9.66771e-16 -0.724051 -4.5882)
(2.25168e-16 -1.7372 -3.82612)
(-4.17889e-16 -0.805295 -3.97309)
(-6.61629e-16 0.239128 4.599)
(-7.60437e-16 0.510713 4.59861)
(-1.16293e-15 0.915808 4.48809)
(-1.34776e-15 1.21399 4.80848)
(-9.54567e-16 1.42788 5.5554)
(3.82628e-16 1.62511 6.78018)
(2.56934e-15 1.95882 8.28306)
(4.63411e-15 2.30859 9.8113)
(4.74939e-15 1.72479 10.5941)
(2.07545e-15 -0.655622 9.00015)
(1.46763e-16 -2.73153 6.52079)
(-2.34741e-16 -3.31667 5.0922)
(-8.23633e-17 -1.884 3.498)
(2.12176e-15 1.19682 0.379184)
(5.84145e-15 1.71566 1.07031)
(5.09004e-15 0.0961138 0.403866)
(3.7907e-15 -0.87618 -2.34905)
(2.05024e-15 -0.648748 -3.07466)
(-1.2444e-15 1.16578 -4.22973)
(-9.39735e-16 0.230864 4.37407)
(-1.29561e-15 0.505977 4.43223)
(-1.72867e-15 0.779669 4.69896)
(-1.59322e-15 0.906396 5.40526)
(-6.08775e-16 0.952817 6.44664)
(1.33226e-15 1.03108 7.7673)
(3.8678e-15 1.32404 9.23369)
(6.11923e-15 1.78904 10.8483)
(6.60065e-15 1.73309 12.2782)
(3.83708e-15 0.185025 11.893)
(1.52344e-16 -1.82137 9.16732)
(-9.78695e-16 -2.47797 6.44728)
(5.48017e-16 -0.905863 4.1571)
(6.05034e-15 0.991208 4.50035)
(7.73022e-15 1.24628 7.0498)
(5.43675e-15 1.04586 6.98895)
(3.45745e-15 0.205268 5.64583)
(3.26769e-15 -1.85023 5.56711)
(4.0092e-15 -6.33546 9.79457)
(-1.6491e-15 0.194921 4.27763)
(-2.0786e-15 0.395072 4.59263)
(-2.18781e-15 0.516578 5.20667)
(-1.58621e-15 0.522061 6.12224)
(-1.94281e-16 0.484847 7.15525)
(1.90064e-15 0.514624 8.23747)
(4.294e-15 0.739819 9.41183)
(6.48992e-15 1.12236 10.9813)
(7.79814e-15 1.27152 13.0209)
(7.17381e-15 0.606965 14.2725)
(4.49581e-15 -0.569127 12.981)
(3.1885e-15 -1.29413 10.193)
(5.58345e-15 -0.927645 8.72141)
(9.38925e-15 -0.142401 10.2223)
(9.75689e-15 0.528053 11.7895)
(8.77927e-15 0.536538 12.8005)
(7.51494e-15 -0.396334 13.3144)
(6.78364e-15 -1.99425 12.3185)
(6.56077e-15 -3.50927 11.2274)
(-2.66009e-15 0.0862494 4.28434)
(-2.29618e-15 0.151535 4.91264)
(-1.95434e-15 0.159779 5.72994)
(-1.3458e-15 0.12917 6.64036)
(-3.68609e-16 0.0993392 7.43869)
(9.31797e-16 0.119371 8.15201)
(2.41128e-15 0.221991 9.04321)
(4.06315e-15 0.363379 10.5574)
(5.32149e-15 0.404067 12.7927)
(6.57479e-15 0.171735 14.7445)
(6.84859e-15 -0.278793 14.8132)
(6.18845e-15 -0.720596 12.653)
(7.4385e-15 -0.756302 9.79281)
(7.42043e-15 -0.169705 8.18292)
(7.49933e-15 0.440047 8.62048)
(9.64859e-15 0.588344 10.4709)
(8.69065e-15 0.0835677 11.3425)
(8.36311e-15 -1.24573 9.47835)
(7.87361e-15 -2.98674 5.24417)
(7.31859e-17 -0.0833139 4.31338)
(-3.56449e-16 -0.162187 4.92657)
(-6.27416e-16 -0.182369 5.72694)
(-8.20245e-16 -0.156775 6.6266)
(-1.1492e-15 -0.123055 7.41948)
(-1.80968e-15 -0.127855 8.13414)
(-2.95325e-15 -0.214101 9.03222)
(-4.64889e-15 -0.351112 10.5522)
(-6.11348e-15 -0.402943 12.7878)
(-7.66031e-15 -0.18788 14.7425)
(-8.06371e-15 0.256726 14.8243)
(-6.85316e-15 0.71147 12.6842)
(-4.82864e-15 0.786112 9.87364)
(-1.6459e-15 0.230404 8.35543)
(1.12852e-15 -0.391336 8.78591)
(1.01516e-15 -0.549746 10.5461)
(-6.5309e-16 -0.0585356 11.3644)
(-2.06578e-15 1.24575 9.48577)
(-1.80853e-15 2.97258 5.23868)
(2.42077e-16 -0.186961 4.31933)
(1.49955e-16 -0.394668 4.62676)
(-1.19168e-16 -0.528285 5.21632)
(-6.40195e-16 -0.542317 6.10607)
(-1.56647e-15 -0.505934 7.11706)
(-3.0161e-15 -0.525737 8.19189)
(-4.88805e-15 -0.736828 9.37514)
(-6.86451e-15 -1.11261 10.9578)
(-8.21593e-15 -1.27129 13.0051)
(-7.72826e-15 -0.627916 14.2651)
(-5.11265e-15 0.537752 12.974)
(-3.96751e-15 1.2676 10.1534)
(-6.621e-15 0.916084 8.63396)
(-9.47038e-15 0.180348 10.1664)
(-7.72783e-15 -0.450491 11.8329)
(-6.02823e-15 -0.451725 12.8303)
(-6.05662e-15 0.444 13.3011)
(-6.2173e-15 1.99756 12.3217)
(-5.59243e-15 3.49937 11.2421)
(1.96466e-16 -0.224413 4.40801)
(1.74256e-16 -0.502618 4.47001)
(2.86837e-17 -0.782202 4.72233)
(-3.93422e-16 -0.915474 5.4056)
(-1.24586e-15 -0.965432 6.42044)
(-2.67149e-15 -1.04028 7.72403)
(-4.59306e-15 -1.32481 9.18971)
(-6.41902e-15 -1.78513 10.8165)
(-6.72362e-15 -1.73914 12.2682)
(-3.84773e-15 -0.207065 11.9112)
(9.1816e-18 1.80798 9.18034)
(1.20219e-15 2.49351 6.43394)
(-6.76922e-16 0.947234 4.08963)
(-7.6399e-15 -0.994766 4.25315)
(-9.73331e-15 -1.21664 6.84399)
(-7.48622e-15 -0.974697 6.81039)
(-5.87665e-15 -0.172736 5.52258)
(-5.30769e-15 1.84143 5.56893)
(-5.27377e-15 6.33079 9.81003)
(2.05328e-16 -0.233859 4.62636)
(1.93368e-16 -0.506234 4.63235)
(1.11129e-16 -0.912963 4.51665)
(-1.3692e-16 -1.21434 4.82415)
(-7.08865e-16 -1.43148 5.55032)
(-1.8132e-15 -1.62919 6.75619)
(-3.47334e-15 -1.9605 8.25113)
(-5.01342e-15 -2.31186 9.78636)
(-4.8099e-15 -1.74327 10.5938)
(-2.02165e-15 0.626803 9.02132)
(-8.96612e-17 2.71716 6.51662)
(3.1358e-16 3.32738 5.06877)
(1.88184e-16 1.95044 3.49545)
(-2.65952e-15 -1.09027 0.321249)
(-8.29485e-15 -1.69066 0.81588)
(-8.17949e-15 -0.072869 0.0948282)
(-6.52365e-15 0.841132 -2.41876)
(-3.26516e-15 0.594556 -3.10245)
(1.51115e-15 -1.18042 -4.24215)
(2.27547e-16 -0.253523 4.79885)
(2.58109e-16 -0.4352 5.05503)
(2.22822e-16 -0.866995 4.75468)
(9.24073e-17 -1.31815 4.6611)
(-2.39904e-16 -1.73662 4.88649)
(-9.80943e-16 -2.11954 5.6636)
(-2.25672e-15 -2.524 6.86219)
(-3.54031e-15 -2.69002 8.1351)
(-3.32958e-15 -1.48443 8.42461)
(-1.15276e-15 1.44356 6.2951)
(6.2155e-17 3.33785 4.46863)
(3.72924e-16 3.71265 3.74845)
(3.07696e-16 2.64579 3.00555)
(6.18441e-17 0.445983 0.864283)
(-2.64011e-15 -1.03078 -2.36618)
(-2.64491e-15 -0.198692 -3.91433)
(-1.51368e-15 0.696365 -4.59522)
(-1.1886e-16 1.69367 -3.83265)
(-3.2341e-16 0.779558 -4.0085)
(2.19412e-16 -0.380842 4.68818)
(2.9068e-16 -0.46736 5.35347)
(3.1217e-16 -0.781222 5.24064)
(2.64863e-16 -1.27126 5.00071)
(8.63378e-17 -1.84452 4.75346)
(-3.67542e-16 -2.4287 4.90173)
(-1.25479e-15 -2.9389 5.51195)
(-2.29303e-15 -2.91613 6.33832)
(-2.23956e-15 -1.06352 6.27397)
(-5.87664e-16 2.13614 4.27636)
(3.02901e-16 3.75051 3.24212)
(4.33281e-16 3.92525 2.98853)
(2.7394e-16 3.04918 2.51147)
(1.72702e-16 1.48411 1.00404)
(5.25999e-17 0.0910689 -1.99294)
(9.64802e-17 0.555791 -3.23712)
(1.23523e-16 0.997829 -3.80526)
(1.7162e-16 1.00575 -3.09285)
(-6.21161e-16 -0.647772 -2.66221)
(1.85847e-16 -0.567555 4.28029)
(2.68786e-16 -0.613295 5.23082)
(3.32116e-16 -0.730937 5.5258)
(3.50986e-16 -1.10167 5.53788)
(2.73443e-16 -1.68305 5.18565)
(7.35607e-18 -2.41403 4.84563)
(-5.71964e-16 -3.08548 4.78059)
(-1.35179e-15 -3.00067 4.98474)
(-1.37567e-15 -0.65832 4.56745)
(-5.87776e-17 2.5321 3.04844)
(4.98558e-16 3.89988 2.62594)
(4.25814e-16 4.01735 2.57931)
(2.79282e-16 3.40821 2.06056)
(1.88323e-16 2.26329 0.810889)
(1.12145e-16 0.837694 -1.12723)
(6.1315e-17 0.804802 -2.31763)
(2.25107e-17 0.789869 -2.84013)
(5.65635e-17 0.924841 -2.27809)
(-7.10796e-16 0.112931 -1.84375)
(1.44274e-16 -0.815709 3.72321)
(2.15591e-16 -0.945341 4.72612)
(2.91997e-16 -0.944025 5.36261)
(3.52785e-16 -1.16453 5.81569)
(3.45145e-16 -1.60864 5.7935)
(1.92944e-16 -2.29694 5.44155)
(-1.8507e-16 -2.98761 5.01698)
(-7.03936e-16 -2.82595 4.66363)
(-6.17343e-16 -0.215115 3.74397)
(3.80591e-16 2.75718 2.55812)
(5.57065e-16 3.96102 2.4481)
(4.13755e-16 4.1291 2.29178)
(2.99549e-16 3.73651 1.63524)
(1.99612e-16 2.78117 0.642509)
(1.1089e-16 1.32915 -0.696223)
(5.17741e-17 1.0909 -1.62551)
(2.81416e-17 0.85479 -2.08581)
(-3.42758e-17 0.690006 -1.68557)
(-1.94465e-17 -0.316223 -1.3318)
(1.09999e-16 -0.995432 3.19469)
(1.63208e-16 -1.21362 4.11336)
(2.32013e-16 -1.13916 4.91797)
(3.11892e-16 -1.21275 5.76778)
(3.58352e-16 -1.47091 6.33904)
(2.95812e-16 -2.05604 6.53999)
(7.27969e-17 -2.7695 6.31952)
(-1.78674e-16 -2.56646 5.4921)
(8.44896e-17 0.322446 3.58111)
(5.84366e-16 3.0592 2.56548)
(5.41928e-16 4.06864 2.43008)
(4.23734e-16 4.3164 1.9975)
(3.12639e-16 4.01232 1.34159)
(2.04114e-16 3.12339 0.585531)
(1.07368e-16 1.64563 -0.353721)
(4.21016e-17 1.27504 -1.02098)
(1.12906e-17 0.804277 -1.40293)
(-6.31329e-18 0.574621 -1.13325)
(2.38549e-16 -0.164182 -1.02083)
(6.44182e-17 -1.22838 2.44527)
(9.64415e-17 -1.66323 3.08515)
(1.35004e-16 -1.68066 3.76521)
(1.92231e-16 -1.82548 4.67417)
(2.63461e-16 -2.03481 5.64849)
(3.15243e-16 -2.38595 6.50163)
(3.1509e-16 -2.56289 6.82148)
(3.27688e-16 -1.61679 5.93113)
(5.07237e-16 1.17014 3.79552)
(5.93711e-16 3.25825 2.87534)
(5.40396e-16 4.30725 2.32929)
(4.36213e-16 4.65197 1.77691)
(3.19202e-16 4.42184 1.20215)
(2.07713e-16 3.61154 0.601917)
(1.05592e-16 2.13818 -0.067815)
(3.62148e-17 1.59395 -0.573898)
(7.42114e-18 0.879939 -0.988687)
(5.24551e-18 0.608831 -0.95965)
(-6.69689e-19 -0.150026 -1.22001)
(7.45213e-17 8.56188 15.1243)
(-3.35056e-15 15.9151 26.2517)
(-3.34446e-15 14.4493 23.911)
(-3.60197e-15 12.3652 19.65)
(-3.97462e-15 10.9301 17.3388)
(-6.04424e-15 10.401 15.987)
(-5.6992e-15 9.84254 15.0268)
(-4.87524e-15 9.65512 14.6278)
(-4.55808e-15 9.49804 14.4168)
(-4.49708e-15 9.38129 14.2475)
(-4.5493e-15 9.25093 14.1208)
(-4.66674e-15 9.1407 14.0193)
(-4.6329e-15 9.03202 13.9471)
(-4.61349e-15 8.9319 13.8947)
(-4.55388e-15 8.82668 13.8513)
(-4.85668e-15 8.71271 13.8074)
(-4.74637e-15 8.57278 13.7202)
(-4.7206e-15 8.35948 13.5993)
(-4.737e-15 8.22361 13.4719)
(-6.39888e-15 5.8679 10.079)
(7.30598e-17 9.25752 15.7693)
(-2.96851e-15 14.5938 24.6517)
(-2.55358e-15 12.2236 21.2361)
(-3.03307e-15 10.9233 18.3655)
(-3.38035e-15 10.1053 17.1634)
(-5.47474e-15 9.7923 16.1013)
(-4.41997e-15 9.35618 15.3613)
(-3.92338e-15 9.10499 14.6582)
(-4.08489e-15 8.82806 14.1528)
(-4.03927e-15 8.64237 13.7613)
(-3.91309e-15 8.47157 13.4771)
(-4.13046e-15 8.33504 13.259)
(-3.99828e-15 8.20742 13.0951)
(-4.12497e-15 8.09427 12.9649)
(-4.36567e-15 7.97621 12.8618)
(-4.58757e-15 7.86125 12.7609)
(-4.59089e-15 7.70457 12.6366)
(-4.4319e-15 7.4956 12.3972)
(-4.65379e-15 7.2012 12.1023)
(-6.8417e-15 4.90736 8.34815)
(-3.77722e-18 10.1554 17.4522)
(-1.15809e-15 14.5925 24.9707)
(-9.53763e-16 13.3728 22.9382)
(-1.06036e-15 12.3735 20.5797)
(-7.58282e-16 11.3859 18.7357)
(-2.51737e-15 10.7098 17.2604)
(-1.98417e-15 10.0993 16.1152)
(-1.70166e-15 9.63959 15.2208)
(-1.80255e-15 9.26871 14.5398)
(-1.741e-15 8.97292 14.0197)
(-1.81651e-15 8.72601 13.615)
(-1.9673e-15 8.51225 13.292)
(-1.9358e-15 8.31632 13.0276)
(-1.9616e-15 8.13505 12.8003)
(-1.93667e-15 7.94726 12.5997)
(-1.98194e-15 7.76287 12.3951)
(-2.19023e-15 7.51859 12.1639)
(-2.13053e-15 7.21941 11.7694)
(-2.1625e-15 6.74857 11.2726)
(-3.44275e-15 4.41651 7.37978)
(-9.66307e-19 10.3727 17.8056)
(2.63645e-16 14.6291 25.2116)
(2.18318e-16 14.1493 24.1181)
(2.30472e-16 13.0329 21.76)
(3.08935e-16 11.9077 19.6291)
(-1.55406e-15 11.0498 17.8854)
(-1.5146e-15 10.3359 16.5254)
(-1.48934e-15 9.77691 15.4348)
(-1.72658e-15 9.31575 14.5702)
(-1.61894e-15 8.93725 13.8844)
(-1.70674e-15 8.61735 13.3392)
(-2.10662e-15 8.33965 12.8967)
(-1.92289e-15 8.0844 12.529)
(-2.11134e-15 7.8478 12.2066)
(-1.90437e-15 7.60081 11.9157)
(-2.18811e-15 7.36061 11.6135)
(-2.44562e-15 7.03777 11.2828)
(-2.02023e-15 6.6662 10.7294)
(-2.15868e-15 6.00589 10.0251)
(-4.2761e-15 3.62324 5.80511)
(4.923e-19 10.3347 17.9267)
(-5.63948e-17 15.3001 26.3915)
(-5.23445e-17 15.1211 25.7551)
(-5.11782e-17 13.8466 23.164)
(-8.73872e-17 12.5296 20.7376)
(2.82589e-16 11.5264 18.757)
(3.85305e-16 10.7102 17.211)
(3.93731e-16 10.0635 15.947)
(4.12389e-16 9.51829 14.9065)
(4.0717e-16 9.05537 14.0435)
(4.30815e-16 8.6539 13.3289)
(4.6322e-16 8.29946 12.7311)
(4.58371e-16 7.97088 12.2228)
(4.65711e-16 7.66435 11.7698)
(4.64768e-16 7.34357 11.3554)
(4.84205e-16 7.03035 10.9243)
(5.21678e-16 6.61417 10.463)
(5.21836e-16 6.15025 9.73341)
(5.43225e-16 5.30348 8.80264)
(8.95619e-16 2.84918 4.29953)
(-9.15468e-20 10.0317 17.5541)
(1.25728e-17 16.2086 27.8584)
(1.17117e-17 15.874 27.1609)
(1.1258e-17 14.3736 24.1202)
(2.16011e-17 12.8615 21.5397)
(-5.81193e-17 11.8355 19.4759)
(-9.24749e-17 10.971 17.8821)
(-9.58091e-17 10.2861 16.5074)
(-9.60526e-17 9.6716 15.3214)
(-9.80992e-17 9.13073 14.2818)
(-1.00531e-16 8.64399 13.3817)
(-1.0453e-16 8.20504 12.6016)
(-1.06889e-16 7.79377 11.9218)
(-1.10429e-16 7.40795 11.3073)
(-1.10253e-16 7.00497 10.7398)
(-1.18881e-16 6.60962 10.1519)
(-1.21872e-16 6.09199 9.53003)
(-1.30162e-16 5.52853 8.60396)
(-1.34181e-16 4.48439 7.4118)
(-2.24094e-16 1.95862 2.54575)
(2.34891e-20 9.82467 17.3403)
(-2.85703e-18 17.1124 29.1924)
(-2.60302e-18 16.3798 28.2412)
(-2.53773e-18 14.6892 24.6964)
(-5.11913e-18 13.0527 22.1706)
(1.23895e-17 12.1394 20.1779)
(2.18486e-17 11.261 18.6552)
(2.25661e-17 10.5762 17.2219)
(2.23085e-17 9.89789 15.9327)
(2.28182e-17 9.28671 14.7359)
(2.31888e-17 8.71192 13.6545)
(2.40205e-17 8.18089 12.6785)
(2.51902e-17 7.67449 11.8009)
(2.58132e-17 7.19459 10.9912)
(2.60507e-17 6.69394 10.2338)
(2.84509e-17 6.20061 9.4533)
(2.93464e-17 5.56856 8.63364)
(3.13284e-17 4.89352 7.49273)
(3.31869e-17 3.6343 5.9689)
(6.45987e-17 1.12213 0.834916)
(-9.87793e-21 9.85412 17.5112)
(6.63357e-19 17.8441 30.1521)
(6.16924e-19 16.606 28.8354)
(5.94977e-19 14.8458 24.9258)
(1.22346e-18 13.1828 22.6534)
(-2.63472e-18 12.4518 20.7927)
(-5.06885e-18 11.5395 19.3805)
(-5.39005e-18 10.8704 17.9081)
(-5.31561e-18 10.1201 16.5639)
(-5.3923e-18 9.45147 15.2512)
(-5.51404e-18 8.79036 14.0285)
(-5.73152e-18 8.16856 12.878)
(-6.06159e-18 7.56052 11.8075)
(-6.20142e-18 6.97727 10.7913)
(-6.36132e-18 6.36586 9.82298)
(-6.86991e-18 5.76588 8.82294)
(-7.19887e-18 5.00576 7.77684)
(-7.56807e-18 4.22162 6.39399)
(-8.23122e-18 2.67005 4.43009)
(-1.04297e-17 0.356439 -0.700589)
(4.21387e-21 10.2404 18.2783)
(-1.61806e-19 18.4098 30.8147)
(-1.60586e-19 16.6091 29.0013)
(-1.46575e-19 14.9372 24.9779)
(-3.08283e-19 13.3041 23.0466)
(5.3384e-19 12.7318 21.2712)
(1.17075e-18 11.7374 19.9336)
(1.3346e-18 11.0797 18.4163)
(1.33785e-18 10.2472 17.0534)
(1.35365e-18 9.53756 15.6715)
(1.39445e-18 8.7984 14.3666)
(1.45324e-18 8.10102 13.095)
(1.53524e-18 7.40134 11.8788)
(1.58272e-18 6.7269 10.6902)
(1.65149e-18 6.01437 9.53849)
(1.76357e-18 5.32681 8.33372)
(1.85552e-18 4.44421 7.07217)
(1.94273e-18 3.57726 5.42624)
(2.36115e-18 1.65407 2.97859)
(-7.96696e-18 -0.336413 -1.77681)
(-1.71592e-21 10.9568 19.5915)
(4.22466e-20 18.8041 31.2369)
(4.49777e-20 16.4298 28.8374)
(3.82839e-20 14.983 24.9292)
(8.28005e-20 13.3759 23.2993)
(-1.0178e-19 12.8937 21.5291)
(-2.74043e-19 11.8005 20.2106)
(-3.41021e-19 11.1389 18.6454)
(-3.51507e-19 10.2339 17.2723)
(-3.56892e-19 9.49333 15.8522)
(-3.67588e-19 8.69389 14.509)
(-3.8124e-19 7.94534 13.1763)
(-3.99802e-19 7.18571 11.8873)
(-4.1504e-19 6.45802 10.6095)
(-4.38812e-19 5.68897 9.36055)
(-4.66943e-19 4.95334 8.02958)
(-4.91553e-19 3.98585 6.6107)
(-5.18651e-19 3.03782 4.7259)
(-7.43659e-19 0.86879 1.92669)
(-1.55202e-19 -0.823075 -2.46005)
(6.29126e-22 11.8755 21.2389)
(-1.14033e-20 19.0554 31.4509)
(-1.2784e-20 16.1875 28.5479)
(-1.03115e-20 15.0515 24.876)
(-2.25853e-20 13.4476 23.4349)
(1.8425e-20 12.9963 21.6236)
(6.48778e-20 11.8527 20.2816)
(8.71502e-20 11.1691 18.6836)
(9.17997e-20 10.2393 17.2838)
(9.30238e-20 9.47059 15.8413)
(9.48253e-20 8.64749 14.4711)
(9.71453e-20 7.87311 13.1159)
(1.00791e-19 7.09478 11.8048)
(1.04949e-19 6.34697 10.5074)
(1.11859e-19 5.56027 9.22546)
(1.18986e-19 4.77655 7.835)
(1.25842e-19 3.75378 6.29712)
(1.35336e-19 2.68462 4.25878)
(1.86435e-19 0.559422 1.43088)
(1.64169e-18 -1.07704 -2.71055)
(-2.00044e-22 12.9298 23.1587)
(2.95613e-21 19.2981 31.5601)
(3.42053e-21 16.0589 28.4131)
(2.65468e-21 15.2887 24.9903)
(5.75689e-21 13.6732 23.6366)
(-3.1162e-21 13.2387 21.7763)
(-1.48044e-20 12.1161 20.3858)
(-2.09638e-20 11.4102 18.7691)
(-2.22387e-20 10.515 17.3215)
(-2.22264e-20 9.73273 15.856)
(-2.22221e-20 8.92659 14.445)
(-2.23519e-20 8.14621 13.059)
(-2.286e-20 7.3648 11.7059)
(-2.3813e-20 6.58414 10.3562)
(-2.5638e-20 5.74422 8.97977)
(-2.76512e-20 4.84137 7.46802)
(-3.01328e-20 3.71515 5.76093)
(-3.4765e-20 2.47466 3.61441)
(-5.05744e-20 0.486499 0.866552)
(5.54191e-19 -1.26686 -2.92363)
(5.36884e-23 14.1823 25.633)
(-6.85405e-22 19.6856 31.7197)
(-8.00219e-22 16.1036 28.6463)
(-5.9597e-22 15.8157 25.48)
(-1.26087e-21 14.1429 24.2036)
(4.88064e-22 13.7861 22.2867)
(3.02184e-21 12.6992 20.8627)
(4.37318e-21 12.0245 19.2247)
(4.55585e-21 11.1959 17.7375)
(4.38377e-21 10.4497 16.2354)
(4.21343e-21 9.6882 14.7587)
(4.08341e-21 8.91536 13.2763)
(4.02373e-21 8.09927 11.7717)
(4.07727e-21 7.21028 10.2043)
(4.32162e-21 6.19166 8.53346)
(4.66418e-21 5.03892 6.68914)
(5.0792e-21 3.65614 4.64216)
(4.70836e-21 2.11948 2.21135)
(2.84738e-20 -0.027787 -0.646396)
(-1.58448e-19 -1.59057 -4.03227)
(-1.16359e-23 15.5595 28.7692)
(1.37095e-22 20.0675 31.8049)
(1.55595e-22 16.1712 29.261)
(1.09087e-22 16.5386 26.4134)
(2.27149e-22 14.682 25.2983)
(-8.24834e-23 14.5309 23.3416)
(-5.39959e-22 13.4194 21.9913)
(-7.70863e-22 12.8817 20.3808)
(-7.77856e-22 12.1327 18.9542)
(-7.20214e-22 11.4954 17.4624)
(-6.73655e-22 10.7871 15.9239)
(-6.4898e-22 9.97709 14.2338)
(-6.50769e-22 8.981 12.3481)
(-6.88045e-22 7.77337 10.2557)
(-7.70446e-22 6.3574 7.99478)
(-8.7098e-22 4.7891 5.56279)
(-1.10563e-21 2.97256 3.00261)
(-1.4698e-21 1.10878 0.176168)
(1.13414e-20 -1.50107 -2.90497)
(-1.53516e-19 -2.61602 -6.39847)
(2.18146e-24 16.5173 31.5194)
(-2.44751e-23 19.8578 31.2114)
(-2.61324e-23 15.9254 29.7712)
(-1.80484e-23 16.8525 27.2144)
(-4.15012e-23 14.6825 26.3227)
(1.16212e-23 14.7566 24.4074)
(9.24682e-23 13.5095 23.2788)
(1.39136e-22 13.1334 21.8173)
(1.54716e-22 12.3802 20.6163)
(1.63841e-22 11.7982 19.2204)
(1.77489e-22 10.9384 17.5657)
(1.98032e-22 9.73333 15.3433)
(2.16529e-22 8.05937 12.5591)
(2.25969e-22 6.11453 9.52286)
(2.83831e-22 4.11627 6.51047)
(4.6996e-22 2.11254 3.46135)
(7.29924e-22 -0.22372 0.176505)
(4.56528e-22 -1.59588 -3.03455)
(-3.44023e-21 -4.02597 -5.30828)
(-3.90661e-20 -3.99245 -8.93885)
(-3.86189e-25 16.3789 32.0846)
(4.39053e-24 18.8534 29.7278)
(4.9998e-24 15.203 29.2442)
(3.9323e-24 16.0943 26.8091)
(7.21392e-24 13.8355 25.9796)
(-1.71306e-24 13.7645 24.2061)
(-1.5597e-23 12.4426 23.1876)
(-2.89981e-23 11.9594 21.8938)
(-4.13086e-23 11.0614 20.819)
(-4.96426e-23 10.2483 19.3792)
(-5.105e-23 8.88515 17.2827)
(-6.34393e-23 6.91086 14.0708)
(-1.47844e-22 4.47303 10.2067)
(-2.7598e-22 2.33939 6.8381)
(-1.57355e-22 0.728119 4.22923)
(2.58958e-22 -0.69849 1.86672)
(7.96215e-22 -2.10454 -0.526216)
(3.23622e-21 -3.88411 -3.80929)
(1.00696e-20 -5.42776 -6.46921)
(1.33623e-20 -3.24144 -4.88886)
(1.543e-25 15.2609 30.6154)
(-1.02305e-24 18.0453 28.2126)
(-1.39739e-24 14.1136 27.7503)
(-1.37553e-24 14.9231 25.2902)
(-4.24216e-24 12.7424 24.389)
(-3.27348e-24 12.3922 22.6937)
(4.45383e-24 11.1513 21.5737)
(1.44825e-23 10.4265 20.3095)
(2.20379e-23 9.46759 19.1425)
(2.89427e-23 8.43929 17.6439)
(4.04207e-23 6.98165 15.474)
(4.00673e-23 5.11559 12.4478)
(-1.80683e-23 3.258 9.24075)
(-7.37963e-23 2.02569 6.8756)
(1.79443e-22 1.25814 5.15846)
(9.78016e-22 0.318372 3.00179)
(2.10842e-21 -0.594016 0.644873)
(3.74341e-21 -0.701678 -0.507709)
(6.86221e-21 0.397981 1.00109)
(3.94745e-21 2.66488 5.9509)
(-1.68664e-26 13.8962 29.9801)
(4.45018e-25 17.8201 27.041)
(7.86668e-25 13.0923 26.903)
(1.46349e-24 14.0359 24.4801)
(2.08404e-24 11.9174 23.5168)
(-4.91625e-25 11.4375 21.8821)
(-5.10675e-24 10.291 20.6568)
(-8.7958e-24 9.52528 19.34)
(-1.06746e-23 8.65223 18.1112)
(-1.07694e-23 7.81565 16.7725)
(-8.25901e-24 6.89541 15.2336)
(-5.34452e-24 5.96941 13.4491)
(-1.54365e-23 5.17471 11.6039)
(-5.82532e-23 4.64923 9.99554)
(-1.29477e-22 4.38968 8.77676)
(-1.7995e-22 4.31057 7.79027)
(-1.44444e-22 4.10961 6.50399)
(4.0466e-25 3.28078 4.32709)
(1.28355e-21 1.22592 0.11609)
(2.32907e-21 0.760683 -0.382194)
(3.6462e-26 11.0763 28.4103)
(-2.86201e-25 17.0606 24.802)
(-5.73308e-25 11.9813 25.1869)
(-6.26566e-25 12.7065 23.4067)
(4.51486e-26 10.9715 22.6195)
(1.52982e-24 10.3409 21.4748)
(2.68972e-24 9.37051 20.5137)
(3.08842e-24 8.63327 19.5327)
(2.90799e-24 7.91523 18.6242)
(2.28992e-24 7.30917 17.7681)
(1.83926e-24 6.78757 16.9654)
(3.81791e-24 6.349 16.157)
(1.09093e-23 5.95105 15.2606)
(1.91357e-23 5.55928 14.2257)
(9.77869e-24 5.16405 13.0632)
(-3.73919e-23 4.72032 11.7595)
(-6.54995e-23 3.99454 9.97747)
(2.01069e-22 2.41353 6.48889)
(1.04757e-21 -0.641904 0.0481951)
(1.45613e-21 -2.35313 -4.85215)
(3.13161e-26 2.61722 17.0747)
(1.23232e-25 8.05606 13.7047)
(8.9383e-26 5.18954 14.5473)
(-5.20628e-26 5.00168 14.1523)
(-2.63958e-25 4.09007 14.106)
(-4.38488e-25 3.53832 13.9278)
(-4.76184e-25 2.98352 13.7705)
(-4.19141e-25 2.5414 13.5903)
(-3.33606e-25 2.16731 13.4015)
(-3.22026e-25 1.86423 13.1903)
(-5.92894e-25 1.61553 12.9427)
(-1.30821e-24 1.41569 12.6475)
(-2.01575e-24 1.26816 12.3055)
(-1.17268e-24 1.19107 11.9212)
(2.82703e-24 1.20326 11.4929)
(8.64223e-24 1.27055 11.0276)
(1.0441e-23 1.3899 10.4684)
(5.06755e-24 1.7909 9.50341)
(7.32912e-24 1.85301 7.99362)
(2.48453e-23 -0.398931 5.77452)
(-3.19855e-26 -2.6174 17.0749)
(-1.25048e-25 -8.05604 13.7051)
(-9.18841e-26 -5.18951 14.5477)
(4.19723e-26 -5.00154 14.1528)
(2.47007e-25 -4.08988 14.1066)
(4.18923e-25 -3.53807 13.9285)
(4.56378e-25 -2.98323 13.7713)
(3.94728e-25 -2.54105 13.5913)
(3.05034e-25 -2.16684 13.4025)
(3.0325e-25 -1.86355 13.1911)
(6.05447e-25 -1.61456 12.9433)
(1.36658e-24 -1.41445 12.6478)
(2.09574e-24 -1.26674 12.3057)
(1.17634e-24 -1.18959 11.9214)
(-3.05076e-24 -1.20171 11.4931)
(-9.147e-24 -1.26873 11.0275)
(-1.09306e-23 -1.38765 10.4679)
(-4.9036e-24 -1.78949 9.50288)
(-6.44066e-24 -1.85459 7.99494)
(-2.45127e-23 0.397137 5.78087)
(-3.59843e-26 -11.0766 28.412)
(2.93935e-25 -17.0619 24.8034)
(5.64332e-25 -11.9821 25.1884)
(6.3612e-25 -12.7077 23.4079)
(1.17949e-26 -10.9727 22.6206)
(-1.42961e-24 -10.3425 21.4757)
(-2.60021e-24 -9.37242 20.5144)
(-2.99606e-24 -8.63565 19.5334)
(-2.74247e-24 -7.9182 18.625)
(-2.06894e-24 -7.31288 17.769)
(-1.66142e-24 -6.79201 16.9665)
(-3.79897e-24 -6.35386 16.1579)
(-1.11591e-23 -5.9559 15.2611)
(-1.96549e-23 -5.56384 14.2259)
(-1.00901e-23 -5.16829 13.0639)
(3.84393e-23 -4.72397 11.7606)
(6.75541e-23 -3.99547 9.97485)
(-2.07064e-22 -2.40551 6.47344)
(-1.08411e-21 0.659731 0.0221115)
(-1.52804e-21 2.35629 -4.85726)
(1.60599e-26 -13.8949 29.9789)
(-4.70741e-25 -17.8204 27.0382)
(-7.74264e-25 -13.0916 26.9005)
(-1.44616e-24 -14.0365 24.4763)
(-2.13104e-24 -11.9177 23.5126)
(2.35668e-25 -11.4383 21.8769)
(4.80086e-24 -10.292 20.6509)
(8.68816e-24 -9.52651 19.3332)
(1.04833e-23 -8.65365 18.1037)
(1.01275e-23 -7.8176 16.7645)
(7.18567e-24 -6.89878 15.2262)
(4.18693e-24 -5.97591 13.4447)
(1.51433e-23 -5.18546 11.6049)
(6.06667e-23 -4.66371 10.0029)
(1.36037e-22 -4.40677 8.78939)
(1.89581e-22 -4.33001 7.80644)
(1.54865e-22 -4.1268 6.51742)
(1.9527e-23 -3.29395 4.33963)
(-1.35367e-21 -1.24672 0.145423)
(-2.48387e-21 -0.761682 -0.391991)
(-1.52691e-25 -15.2576 30.6081)