/*--------------------------------*- C++ -*----------------------------------*\
| =========                 |                                                 |
| \\      /  F ield         | OpenFOAM: The Open Source CFD Toolbox           |
|  \\    /   O peration     | Version:  4.1                                   |
|   \\  /    A nd           | Web:      www.OpenFOAM.org                      |
|    \\/     M anipulation  |                                                 |
\*---------------------------------------------------------------------------*/
FoamFile
{
    version     2.0;
    format      ascii;
    class       volScalarField;
    location    "8";
    object      p;
}
// * * * * * * * * * * * * * * * * * * * * * * * * * * * * * * * * * * * * * //

dimensions      [0 2 -2 0 0 0 0];

internalField   nonuniform List<scalar> 
1280
(
0.153888
0.257689
0.304233
0.311764
0.347999
0.341498
0.283439
0.292069
0.238481
-0.180221
-0.535319
-0.469601
-1.50877
-2.58331
-2.59776
-5.2469
-8.18329
-7.67625
-14.7374
-19.77
-19.8853
-5.55152
17.2641
26.663
28.3325
31.6768
15.7086
14.5469
16.3026
15.8766
15.1554
14.4284
13.3027
11.8181
10.1273
8.05411
5.94317
3.05021
0.764268
-4.35297
-15.0585
-4.11496
1.2833
6.41005
18.3552
17.368
17.5557
17.7499
17.8089
17.7802
17.8045
17.8597
17.7931
17.6434
17.4655
18.3686
6.65989
1.65526
-3.59172
-14.3793
-3.74962
1.33245
3.60077
6.46452
8.55155
10.5984
12.2637
13.7216
14.8218
15.5272
16.2147
16.5976
14.9074
16.4132
31.8605
28.405
26.6301
17.126
-5.70229
-20.0348
-19.9465
-14.8741
-8.65214
-9.15649
-6.12875
-3.75502
-3.55253
-2.32093
-1.37048
-1.32004
-0.798491
-0.36899
-0.270449
-0.201849
-0.0552741
0.036724
0.066782
0.0944785
0.0113839
0.0394538
0.3333
-0.640273
-1.18286
-0.664835
0.253067
0.916253
1.34115
0.0799541
-0.116295
-0.968674
-1.58192
-2.75972
-0.214964
1.74274
1.69568
0.549648
-0.0269124
-0.0582254
0.0582728
1.19026
-0.895877
-1.96295
-1.48258
0.20819
1.60041
2.88344
1.06023
0.273391
-2.65355
-4.95452
-6.55065
-0.451533
3.48701
3.68397
1.31212
-0.159397
-0.230096
0.220704
1.41256
-1.79848
-3.13142
-2.28748
0.263879
1.80347
3.3294
1.6304
-0.0609734
-5.60993
-9.52232
-10.2365
-0.123358
4.92927
5.26986
1.84862
-0.442343
-0.577486
0.250459
1.12502
-2.90119
-3.98661
-3.46763
0.368265
2.22156
3.79152
2.31626
-0.095105
-8.30969
-13.8643
-15.243
0.0225245
6.71774
7.06086
2.22868
-1.07318
-1.02295
0.471205
0.751719
-3.5826
-4.64758
-4.80402
0.549311
3.09031
4.4517
3.07257
0.206343
-9.85146
-17.3181
-18.9233
0.272874
8.89953
8.75526
2.10664
-2.44006
-2.00322
0.395809
0.450981
-3.59973
-5.56617
-5.80344
0.981565
5.04906
5.63196
4.56559
1.28523
-9.76215
-20.0674
-20.4342
0.787979
11.9805
10.4593
0.665834
-5.54486
-2.85269
0.979111
0.148363
-3.22083
-6.6484
-6.1372
1.57563
7.88175
6.99929
6.42798
2.82023
-8.38599
-22.2758
-20.9538
1.40786
16.0665
11.6401
-0.757444
-7.26306
-5.26921
-0.215665
-0.135838
-2.46269
-6.89014
-5.68724
2.46375
10.2822
7.94977
7.8491
4.28386
-6.26726
-22.6947
-20.2501
1.70878
19.9995
12.9671
-0.548001
-6.71999
-1.48457
0.364405
-0.489252
-1.88714
-6.43757
-5.31225
2.98133
11.3248
8.56514
8.51252
5.36505
-3.72759
-20.0189
-18.8922
1.02475
20.2119
14.4751
2.66874
-2.27126
11.5972
26.606
-0.625906
-1.68018
-5.94977
-4.95978
3.16718
10.6285
8.10796
8.4878
6.1638
-1.39546
-15.4864
-16.5184
-1.28588
15.2959
13.0126
5.54522
5.5921
25.9791
23.4545
-0.650442
-2.95618
-7.35415
-6.43621
2.15032
10.1278
8.4516
9.13828
6.68901
-0.537261
-13.812
-15.9043
-3.07934
13.1732
12.3108
6.58054
6.02149
25.494
23.6589
-0.422912
-4.07381
-7.60051
-6.68983
1.65941
8.31593
7.41163
8.54949
6.27932
-0.943908
-15.6423
-18.4091
-5.92784
12.6072
13.394
6.79449
1.96863
12.5277
27.1967
-0.180876
-4.81499
-7.2124
-6.30299
1.13807
6.14551
6.40925
7.36764
5.42097
-2.35476
-19.3653
-19.9529
-7.6085
10.5657
12.6316
7.35817
1.96338
2.16949
0.88228
0.23628
-4.50904
-6.55893
-5.003
0.851021
4.18552
5.55353
5.67389
4.05619
-4.06783
-22.8129
-21.1875
-9.17678
8.73943
10.7206
6.77986
1.58485
0.12531
-0.489259
0.689257
-3.37119
-5.61574
-3.58806
0.628832
3.09374
5.10336
4.49415
2.7539
-5.265
-24.3646
-22.6791
-9.70638
6.19903
8.62511
6.34043
2.58647
1.22259
0.846987
1.07065
-2.36329
-3.94206
-2.38753
0.510936
2.72955
4.88877
3.75134
1.72219
-5.4482
-22.7161
-23.0213
-9.24582
4.32884
6.62519
5.37498
2.26084
0.44462
1.05484
1.01798
-1.83043
-2.11149
-1.57046
0.426184
2.58391
4.809
3.2439
1.1282
-4.58883
-18.1499
-21.5788
-8.16972
2.87519
4.95055
4.29977
2.01485
0.697238
1.05931
0.807488
-1.60783
-1.38797
-1.07954
0.370386
2.33628
4.57385
2.32324
0.662189
-3.3983
-11.9926
-17.1872
-6.46329
1.85073
3.52474
3.17156
1.49973
0.436774
0.709509
0.563862
-1.20938
-1.12929
-0.877119
0.235198
2.10824
4.1945
1.47479
0.670746
-1.79728
-5.76153
-11.2687
-5.21985
0.980523
2.39207
2.16109
0.995654
0.347453
0.477695
0.212944
-0.731525
-0.869711
-0.764261
-0.19352
0.91196
1.95613
0.115468
-0.0358135
-0.908199
-1.78629
-5.21304
-2.80635
0.474926
1.12435
0.941334
0.403594
0.148799
0.183926
45.0021
46.0947
44.8332
44.2456
42.3819
40.5506
38.1664
35.6817
33.2665
31.0814
29.1098
27.3984
25.9728
24.845
24.0037
23.4538
23.1557
23.1252
23.2115
23.5148
10.4912
14.4296
12.7351
11.839
11.0915
10.7435
10.4688
10.1987
9.90374
9.57612
9.25923
8.97639
8.74734
8.61174
8.56637
8.66936
8.86229
9.30038
9.66164
10.514
-38.9016
-34.7528
-29.4866
-24.7382
-20.8448
-17.5475
-14.6503
-12.1079
-9.8456
-7.86292
-6.12858
-4.61231
-3.29839
-2.1466
-1.15391
-0.250335
0.536522
1.39629
2.04175
3.15404
-85.3977
-84.2577
-77.6475
-70.3167
-64.3432
-59.2697
-54.6556
-50.4274
-46.4591
-42.7368
-39.2196
-35.8769
-32.7102
-29.722
-26.9895
-24.4999
-22.3412
-20.2811
-18.5909
-16.0252
-56.7937
-61.3982
-64.4601
-65.968
-67.6649
-69.5311
-71.1228
-72.6677
-73.9477
-74.9764
-75.5931
-75.6675
-75.0464
-73.627
-71.4825
-68.7812
-66.0461
-63.3532
-61.2507
-57.7214
-21.3542
-28.5786
-33.9854
-39.2244
-43.7403
-48.6687
-53.1423
-57.6145
-61.8272
-66.0466
-70.1916
-74.2416
-77.9803
-81.1043
-83.2462
-84.4391
-84.8041
-84.3011
-83.9908
-82.2198
34.8563
28.1482
23.9359
18.5217
14.1676
9.14463
4.62849
-0.00824669
-4.06789
-7.80039
-10.8983
-13.397
-15.1671
-16.2361
-16.5887
-16.499
-16.3735
-16.0542
-17.115
-21.3537
80.7722
79.5141
79.554
78.8441
78.7292
77.8178
77.181
75.7743
74.0229
71.3162
67.548
62.3017
55.5708
47.8554
40.3006
34.0107
29.7727
28.1486
28.2026
24.3286
57.826
59.4367
60.1972
60.7585
61.8718
62.3473
63.3409
63.9344
64.684
65.2864
65.849
66.2499
66.3543
65.8903
64.724
62.8772
61.0135
59.384
59.1689
58.0487
46.9652
49.0256
50.5931
51.2996
53.0419
53.6531
54.95
55.633
56.3719
56.8172
57.0989
57.2674
57.4992
57.9891
58.9258
60.266
61.8331
63.3018
64.3501
65.1258
22.608
24.6548
26.6703
27.2527
29.503
30.2486
32.0116
33.1828
34.595
35.9118
37.2184
38.5069
39.7664
41.0314
42.3276
43.7511
45.2241
46.9139
48.2358
49.8871
1.56675
3.08893
5.49654
5.69886
8.42257
9.01797
11.1503
12.3979
14.0898
15.6149
17.1808
18.7411
20.2847
21.8383
23.3724
24.9652
26.4899
28.1987
29.4993
31.3752
-26.8506
-26.8809
-24.2447
-25.0273
-22.1632
-22.319
-20.1186
-19.2566
-17.5176
-16.0462
-14.3539
-12.6039
-10.7612
-8.80619
-6.80421
-4.65689
-2.51184
0.0121115
2.12642
5.36661
-43.1066
-46.249
-44.914
-48.0348
-47.0072
-49.7207
-49.6558
-51.511
-52.1609
-53.369
-54.0826
-54.5583
-54.4205
-53.667
-52.4193
-50.7229
-48.8743
-46.6743
-44.9776
-41.3373
-20.2026
-24.8738
-24.2537
-28.6861
-28.6903
-32.5794
-33.8739
-37.2029
-39.607
-42.8878
-45.9846
-49.2428
-52.179
-54.7681
-56.8344
-58.5411
-59.8457
-60.4545
-61.2919
-59.767
15.3517
11.2455
13.002
8.68153
10.2406
7.52948
7.86544
6.57618
6.32341
5.66302
5.26932
4.74573
4.15501
3.3429
2.33506
0.971998
-0.917164
-3.09642
-6.59889
-9.75821
37.4564
34.091
37.2428
31.5766
33.0774
29.7209
29.2432
27.4749
26.5834
25.599
24.9855
24.5768
24.4402
24.5239
24.7695
25.0705
25.2401
25.2919
25.0261
24.1724
15.4875
9.7332
18.6734
12.6532
15.6131
13.2399
13.0008
11.514
10.3604
8.96759
7.66062
6.41342
5.32946
4.4269
3.74635
3.34089
3.1688
3.6572
5.13464
7.46448
23.327
1.05748
9.08054
-1.88334
-4.67908
-11.2828
-16.2395
-21.4934
-26.0673
-30.1681
-33.5735
-36.2238
-38.0104
-38.8572
-38.6472
-37.3883
-35.189
-32.0778
-28.7039
-25.6633
716.071
633.23
583.939
527.632
478.579
431.319
387.434
346.057
307.191
270.549
235.954
203.2
172.075
142.484
114.403
86.9771
60.4778
39.4791
15.9055
-20.02
716.429
633.586
584.295
527.986
478.932
431.67
387.784
346.406
307.539
270.896
236.3
203.546
172.422
142.83
114.75
87.3242
60.8261
39.8324
16.263
-19.6655
23.6599
1.38898
9.41132
-1.55328
-4.34959
-10.9534
-15.9102
-21.1636
-25.7368
-29.8364
-33.2405
-35.8893
-37.6744
-38.5198
-38.309
-37.0499
-34.85
-31.74
-28.3711
-25.3299
15.7969
10.044
18.9841
12.9644
15.9239
13.5508
13.3111
11.824
10.6698
9.27643
7.96888
6.72116
5.63673
4.73397
4.05362
3.64816
3.4768
3.96721
5.45355
7.79354
37.7993
34.4436
37.6008
31.9416
33.4489
30.0995
29.6292
27.8691
26.9865
26.0119
25.4089
25.011
24.8854
24.9801
25.237
25.5488
25.7254
25.7876
25.5339
24.6938
15.8841
11.7887
13.5519
9.2392
10.8075
8.10457
8.4498
7.16894
6.92436
6.27127
5.88338
5.36353
4.77386
3.96024
2.94831
1.57938
-0.313962
-2.48876
-5.98687
-9.16094
-19.675
-24.3511
-23.7332
-28.1707
-28.1795
-32.0737
-33.3736
-36.7084
-39.1179
-42.404
-45.5052
-48.7664
-51.7032
-54.2928
-56.3582
-58.061
-59.3624
-59.9712
-60.8148
-59.3012
-42.7126
-45.8673
-44.5379
-47.6643
-46.6441
-49.3631
-49.3046
-51.1655
-51.8204
-53.0332
-53.7502
-54.2282
-54.0917
-53.3419
-52.1002
-50.4107
-48.5706
-46.379
-44.6872
-41.0484
-26.5469
-26.5848
-23.9491
-24.7347
-21.8726
-22.0318
-19.8334
-18.9752
-17.2391
-15.7717
-14.0835
-12.338
-10.4999
-8.54909
-6.55061
-4.40534
-2.26064
0.266212
2.3838
5.62788
1.90931
3.43014
5.83998
6.0424
8.76779
9.36379
11.4979
12.7465
14.4402
15.9668
17.5344
19.0965
20.6419
22.1976
23.734
25.3294
26.857
28.5687
29.8717
31.7525
22.9654
25.0137
27.0311
27.615
29.8673
30.6147
32.3795
33.5521
34.9656
36.2829
37.59
38.8785
40.1383
41.4039
42.7009
44.1253
45.5989
47.2887
48.6105
50.2633
47.3171
49.3752
50.9413
51.6445
53.3842
53.992
55.2854
55.9663
56.7041
57.1528
57.4431
57.6262
57.8772
58.3825
59.3344
60.6824
62.2503
63.7181
64.7649
65.5475
58.1776
59.8021
60.575
61.1515
62.2805
62.7756
63.7909
64.41
65.1864
65.8147
66.399
66.8122
66.9081
66.4286
65.2461
63.3716
61.4918
59.8642
59.6572
58.5479
81.3207
80.0924
80.1457
79.4511
79.3456
78.4424
77.8085
76.3994
74.6392
71.9178
68.1299
62.8623
56.1112
48.3907
40.8299
34.5351
30.2935
28.6621
28.7195
24.8678
35.649
28.9623
24.7602
19.3631
15.0294
10.0273
5.53205
0.91664
-3.12374
-6.8408
-9.92863
-12.4243
-14.2017
-15.2882
-15.6653
-15.5905
-15.4667
-15.1391
-16.183
-20.4379
-20.5565
-27.7905
-33.2017
-38.4455
-42.9727
-47.9161
-52.4102
-56.9078
-61.1528
-65.4111
-69.5965
-73.6758
-77.4274
-80.5546
-82.6847
-83.8572
-84.2109
-83.7022
-83.3991
-81.6571
-56.2815
-60.9185
-64.0122
-65.543
-67.2667
-69.1593
-70.7754
-72.3418
-73.6386
-74.6784
-75.2974
-75.3625
-74.7247
-73.2919
-71.1412
-68.4447
-65.7226
-63.0454
-60.9532
-57.4251
-85.0991
-83.9573
-77.3581
-70.0319
-64.0649
-58.996
-54.3865
-50.1628
-46.199
-42.4812
-38.9686
-35.6307
-32.4699
-29.4892
-26.7664
-24.2869
-22.1355
-20.0765
-18.3848
-15.8099
-38.438
-34.2961
-29.0589
-24.3279
-20.4473
-17.1591
-14.2691
-11.733
-9.47677
-7.4997
-5.77043
-4.25851
-2.94818
-1.79883
-0.807363
0.0966642
0.885839
1.75051
2.40003
3.52126
10.6886
14.6409
12.9663
12.0948
11.3665
11.0336
10.7719
10.5134
10.2291
9.91162
9.60435
9.33097
9.11125
8.9849
8.94866
9.06053
9.2615
9.70763
10.0735
10.9308
45.4805
46.5677
45.306
44.7179
42.8499
41.0122
38.6245
36.1432
33.7273
31.5409
29.5696
27.8593
26.4356
25.3104
24.4722
23.9259
23.6314
23.6057
23.6949
24.0037
)
;

boundaryField
{
    outletWall
    {
        type            fixedValue;
        value           uniform 0;
    }
    fineWalls
    {
        type            zeroGradient;
    }
    fineFrontAndBack
    {
        type            zeroGradient;
    }
    fineplugLeft
    {
        type            cyclicAMI;
        value           nonuniform List<scalar> 
20
(
17.9412
18.722
19.1102
19.7132
20.3739
21.2284
22.2396
23.4388
24.8044
26.3189
28.0405
29.8737
31.4548
35.6127
38.7758
39.572
40.7291
39.3193
35.7655
32.0246
)
;
    }
    fineplugRight
    {
        type            cyclicAMI;
        value           nonuniform List<scalar> 
20
(
18.453
19.2224
19.6047
20.198
20.8511
21.6975
22.701
23.8928
25.2518
26.7611
28.4757
30.3014
31.896
36.0989
39.1819
39.9609
41.1003
39.67
36.1137
32.3775
)
;
    }
    inletOutletLeft
    {
        type            cyclicAMI;
        value           nonuniform List<scalar> 
20
(
17.9412
18.722
19.1102
19.7132
20.3739
21.2284
22.2396
23.4388
24.8044
26.3189
28.0405
29.8737
31.4548
35.6127
38.7758
39.572
40.7291
39.3193
35.7655
32.0246
)
;
    }
    inletLeft
    {
        type            zeroGradient;
    }
    inletWallsLeft
    {
        type            zeroGradient;
    }
    inletFacesLeft
    {
        type            zeroGradient;
    }
    inletOutletRight
    {
        type            cyclicAMI;
        value           nonuniform List<scalar> 
20
(
18.453
19.2224
19.6047
20.198
20.8511
21.6975
22.701
23.8928
25.2518
26.7611
28.4757
30.3014
31.896
36.0989
39.1819
39.9609
41.1003
39.67
36.1137
32.3775
)
;
    }
    inletRight
    {
        type            zeroGradient;
    }
    inletWallsRight
    {
        type            zeroGradient;
    }
    inletFacesRight
    {
        type            zeroGradient;
    }
}


// ************************************************************************* //
