/*--------------------------------*- C++ -*----------------------------------*\
| =========                 |                                                 |
| \\      /  F ield         | OpenFOAM: The Open Source CFD Toolbox           |
|  \\    /   O peration     | Version:  4.1                                   |
|   \\  /    A nd           | Web:      www.OpenFOAM.org                      |
|    \\/     M anipulation  |                                                 |
\*---------------------------------------------------------------------------*/
FoamFile
{
    version     2.0;
    format      ascii;
    class       surfaceScalarField;
    location    "8";
    object      phi;
}
// * * * * * * * * * * * * * * * * * * * * * * * * * * * * * * * * * * * * * //

dimensions      [0 3 -1 0 0 0 0];

internalField   nonuniform List<scalar> 
2360
(
-1471.37
-299.569
-1171.8
-299.571
-299.569
1169.07
-1468.64
1169.07
1169.07
1169.07
2907.26
-1738.19
2907.26
2907.26
5061.63
-2154.37
5061.63
5061.63
8015.73
-2954.1
8015.73
8015.73
12410.9
-4395.17
12410.9
12410.9
12824.8
14328.9
16108.2
17789.2
19299.4
20665.4
16380.3
5569.44
17577.5
18704.1
19762.4
20752
21671.9
22521.7
23301.2
24010.2
24647.4
25209.5
25690.4
26075.4
26341.5
12931.1
13410.4
12931.1
12931.1
12931.1
816.104
12115
816.103
816.103
816.103
-87.4193
903.523
-87.4165
-87.4174
-749.418
662.003
-749.421
-749.419
-749.422
-12828.1
12078.7
-12828.1
-12828.1
-12828.1
-26303
13474.9
-26037.3
-25652.1
-25171.1
-24608.7
-23971.2
-23261.9
-22482
-21631.9
-20711.6
-19721.7
-18663.2
-17536.4
-16339.2
-20622.6
5567.77
-19256.6
-17746.4
-16065.8
-14287.5
-12785.3
-12370.8
-12370.8
-12370.8
-7937.47
-4433.32
-7937.47
-7937.47
-5136.1
-2801.37
-5136.1
-5136.1
-3175.68
-1960.42
-3175.68
-3175.68
-1660.37
-1515.31
-1660.37
-1660.37
-1660.37
-493.871
-1166.5
-493.87
-493.871
616.195
-1110.06
-3756
1618.6
-2569.56
571.823
-2553.28
3433.27
-2847.02
4944.56
-3018.92
4818.55
-2876.38
3687.01
-2027.94
-504.084
-1101.15
-4880
-172.788
-6597.51
883.095
-5850.03
1489.81
2436.6
1317.78
7469.34
1163.55
8356.58
1103.5
6295.64
1181.92
3133.53
1291.82
948.891
1270.09
590.916
1162.6
1093.81
730.031
-2547.76
-55.4423
-1341.5
-634.436
-2034.35
4126.12
-2903.76
5813.97
-3280.52
5195.3
-2949.03
3355.53
-1896.98
-1556.14
-1074.53
-5702.46
139.618
-7811.66
1569.53
-7279.94
2015.46
1990.67
1260.53
8224.27
829.796
8787.31
900.819
6224.62
1415.94
2618.41
1772.12
592.715
1686.37
676.661
1355.91
1424.27
919.441
-3085.85
-1325.68
-1624.71
-2095.57
-1440.82
3942.23
-2464.83
6837.99
-3384.52
6114.99
-3292.23
3263.23
-2280.94
-2567.43
-1255.35
-6728.05
168.626
-9235.63
1557.43
-8668.75
2046.33
1501.77
1296.79
8973.82
528.783
9555.32
527.796
6225.61
1532.49
1613.71
2203.53
-78.3165
2156.23
723.961
1711.1
1869.4
1115.23
-4044.46
-2180.26
-2628.75
-3511.29
-1461.65
2775.13
-1855.18
7231.52
-3049.24
7309.05
-3429.08
3643.07
-2500.82
-3495.69
-1411.64
-7817.23
-373.257
-10274
434.262
-9476.27
1204.56
731.47
889.31
9289.07
194.437
10250.2
195.111
6224.93
1768.09
40.7338
2764.82
-1075.05
2643.54
845.243
2082.9
2430.04
1237.71
-5160.74
-2647.28
-4163.07
-4508.96
-2415.24
1027.3
-1780.09
6596.37
-2478.47
8007.44
-3006.98
4171.58
-2407.76
-4094.91
-1956.5
-8268.48
-1942.27
-10288.2
-1898.26
-9520.28
-548.376
-618.414
-149.463
8890.16
-429.582
10530.3
37.6292
5757.72
2244.45
-2166.09
3544.56
-2375.16
3437.04
952.759
2841.94
3025.14
1278.27
-6410.62
-2737.58
-6032.3
-4887.27
-4287.92
-717.089
-2721.18
5029.63
-2330.24
7616.5
-2487.07
4328.4
-2609.69
-3972.28
-3337.16
-7541.01
-4397.3
-9228.11
-4736.59
-9180.99
-3062.97
-2292.04
-1818.16
7645.34
-1444.09
10156.2
-36.6672
4350.3
2207.33
-4410.09
3426.67
-3594.49
3448.92
930.505
3643.77
2830.3
488.717
-7840.16
-2424.19
-8181.24
-4546.2
-6960.01
-1938.32
-4850.77
2920.4
-3213.05
5978.77
-2645.73
3761.08
-3658.64
-2959.37
-5482.72
-5716.94
-7192.43
-7518.4
-7862.41
-8511
-6320.96
-3833.48
-4298.48
5622.86
-3010.49
8868.26
-1192.2
2532.01
-660.329
-4941.96
-448.522
-3806.3
1023.16
-541.173
1704.87
2148.58
7761.35
-9511.6
-1656.05
-10720
-3337.78
-10441.1
-2217.27
-8222.96
702.289
-5406.71
3162.52
-4051.11
2405.48
-5552.17
-1458.3
-7712.99
-3556.12
-9624.47
-5606.93
-10978
-7157.45
-10222.3
-4589.2
-7465.58
2866.13
-5031.69
6434.37
-4973.36
2473.68
-7199.36
-2715.96
-7898.38
-3107.28
-7565.38
-874.175
-9438.89
4022.1
11797.4
-11273.7
-425.191
-13441.7
-1169.8
-14480.1
-1178.82
-13034.8
-743.053
-9708.99
-163.266
-7227.06
-76.448
-7642.77
-1042.6
-9096.75
-2102.15
-11150.5
-3553.13
-13712.3
-4595.71
-15060.9
-3240.54
-13609.1
1414.26
-11793.4
4618.65
-12661
3341.33
-14855.1
-521.909
-15882.4
-2079.95
-15911.3
-845.31
-15001.9
3112.75
8874.17
-12455.5
1088.99
-15230.3
1605.03
-17061.7
652.554
-16459.8
-1344.97
-13298.5
-3324.48
-9653.98
-3721.01
-8371.84
-2324.74
-9270.53
-1203.46
-11817.5
-1006.13
-15444.9
-968.374
-18620
-65.4063
-19032.9
1827.14
-17035.1
2620.89
-14763.1
1069.29
-13849.3
-1435.65
-13849.5
-2079.81
-13283.5
-1411.25
-9686.15
-484.632
-149.98
-11325.7
2177.12
-13097.1
3376.37
-13285.2
840.716
-11185.5
-3444.74
-7860.83
-6649.11
-5498.84
-6083
-6319.38
-1504.2
-8719.55
1196.71
-11721.3
1995.66
-15445.3
2755.56
-18961.1
3450.45
-19922.9
2788.9
-18017.1
715.105
-15436.3
-1511.55
-14660
-2211.91
-14719.6
-2020.18
-13792
-2338.87
-9872.95
-4403.7
-9119.41
-9571.94
2692.55
-10071.7
3876.12
-8695.19
-535.779
-6074.76
-6065.17
-3825.67
-8898.2
-3191.74
-6716.93
-5218.37
522.424
-7981.52
3959.87
-10790.7
4804.81
-14010.3
5975.24
-16773.8
6213.86
-16298.3
2313.45
-13104.5
-2478.66
-11061.9
-3554.2
-12419.1
-854.658
-14271.7
-167.594
-15001.5
-1609.06
-14768
-4637.22
-11772.4
-7789.67
2688.51
-7146.48
3232.93
-4986.75
-2695.51
-3012.38
-8039.55
-2407.22
-9503.35
-3081.14
-6043.02
-4772.8
2214.09
-6905.26
6092.33
-9397.92
7297.47
-11815.3
8392.66
-12926.1
7324.63
-10376.7
-236.016
-6221.61
-6633.7
-2681.92
-7093.89
-1657.69
-1878.88
-3265.64
1440.35
-5381.35
506.648
-8774.6
-1243.96
-7136.68
-6168.56
2179.45
-4602.09
1666.46
-2467
-4830.6
-1705.54
-8801.01
-2490.84
-8718.05
-3613.77
-4920.08
-4421.16
3021.47
-5706.4
7377.57
-7633.18
9224.25
-9263.31
10022.8
-9166.92
7228.24
-6467.42
-2935.52
-3947.57
-9153.55
-2029.53
-9011.94
745.418
-4653.83
2568.96
-383.194
3375.89
-300.28
2646.15
-514.214
1078.9
-4602.11
1145.95
-2579.43
-356.222
-1314
-6096.03
-1928.41
-8186.59
-3397.76
-7248.7
-4250.97
-4066.87
-4192.8
2963.3
-4556.5
7741.28
-5653.86
10321.6
-6593.13
10962.1
-5855.2
6490.31
-3442.04
-5348.69
-1899.99
-10695.6
-1000.38
-9911.55
387.862
-6042.07
2124.37
-2119.71
2747.89
-923.8
3554.51
-1320.83
238.242
-2834
-457.728
-1291.12
-1899.1
-1587.81
-5799.34
-3016.4
-6758
-4215.15
-6049.96
-4478.2
-3803.82
-3930.46
2415.56
-3623.35
7434.16
-3782.65
10480.9
-4030.58
11210
-3014.83
5474.56
-1246.53
-7116.98
-535.142
-11407
-268.376
-10178.3
522.962
-6833.4
1754.37
-3351.11
2340.16
-1509.59
2569.54
-1550.21
-146.326
-2217.7
-2132.29
-1619.72
-2497.08
-2846.6
-4572.46
-3985.3
-5619.3
-4447.96
-5587.29
-4216.47
-4035.31
-3491.57
1690.66
-2936.48
6879.08
-2339.7
9884.12
-1854.15
10724.5
-626.932
4247.34
286.312
-8030.23
335.14
-11455.8
293.919
-10137.1
760.896
-7300.38
1586.17
-4176.39
2014.6
-1938.01
2052.42
-1588.04
-248.271
-3738.8
-3005.79
-3445.06
-2790.83
-3959.28
-4058.24
-4319.62
-5258.97
-4281.98
-5624.93
-3780.68
-4536.6
-2877.69
787.667
-2383.27
6384.66
-1466.66
8967.51
-366.326
9624.13
929.808
2951.2
1179.1
-8279.52
853.366
-11130.1
754.332
-10038.1
1073.12
-7619.17
1610.4
-4713.67
1881.75
-2209.37
1785.9
-1492.19
-200.564
-4651.98
-3417.79
-4384.99
-3057.82
-4326.21
-4117.01
-4275.99
-5309.19
-4111.57
-5789.35
-3566.36
-5081.81
-2422.38
-356.315
-1868.97
5831.25
-1036.43
8134.96
297.4
8290.3
1617.03
1631.57
1509.52
-8172
1180.37
-10800.9
1153.08
-10010.8
1329.31
-7795.4
1583.78
-4968.14
1664.28
-2289.87
1543.16
-1371.06
-126.04
-4963.61
-4654.32
-4405.71
-4199.94
-3989.26
-3589.5
-2524.45
-1605.16
-856.135
241.811
1423.83
1555.86
1471
1413.91
1422.26
1470.48
1459.96
1372.67
-140.1
-273.752
53.2592
-1697.48
314.853
-2040.91
529.909
-1896.02
699.961
-1680.32
838.758
-1504.79
925.536
-1371.12
995.185
-1266.84
1043.09
-1174.54
1069.83
-1085
1075.66
-995.43
1061.05
-905.291
1026.37
-815.102
971.371
-724.53
895.504
-633.13
796.697
-538.39
672.157
-437.573
513.487
-322.198
303.085
-174.65
37.0459
-0.131253
-273.619
-124.941
-1572.67
-101.59
-2064.27
-36.7421
-1960.87
35.9001
-1752.96
111.343
-1580.23
190.425
-1450.2
263.683
-1340.1
326.538
-1237.39
376.319
-1134.78
411.624
-1030.74
431.874
-925.541
436.877
-820.104
426.583
-714.236
401.086
-607.632
359.783
-497.087
302.487
-380.275
224.778
-244.487
129.25
-79.1183
166.296
-286.373
12.754
-441.652
-1417.39
-390.754
-2115.16
-252.657
-2098.96
-110.359
-1895.26
18.9236
-1709.51
135.004
-1566.28
237.873
-1442.97
325.041
-1324.56
394.576
-1204.32
445.292
-1081.45
476.679
-956.928
488.506
-831.931
480.767
-706.497
453.418
-580.282
406.056
-449.725
338.29
-312.509
242.07
-148.267
108.373
54.5802
274.669
191.895
-179.142
220.788
-1446.28
223.129
-2117.51
270.358
-2146.19
343.701
-1968.6
429.737
-1795.55
518.877
-1655.42
601.092
-1525.18
669.356
-1392.82
719.817
-1254.78
750.534
-1112.17
759.77
-966.164
745.908
-818.069
707.689
-668.278
644.171
-516.765
554.518
-360.073
441.993
-199.984
296.439
-2.71211
140.288
210.731
414.956
751.414
-930.556
1158.42
-1853.29
1164.4
-2123.48
1071.38
-2053.18
1022.9
-1920.12
1021.23
-1793.88
1037.41
-1671.6
1048.53
-1536.3
1046.59
-1390.89
1027.64
-1235.83
988.969
-1073.5
926.539
-903.734
835.995
-727.525
714.353
-546.636
559.756
-362.167
377.863
-178.18
205.6
-27.7212
90.2499
112.638
2.77174
298.209
417.728
607.794
-1538.35
888.933
-2134.43
772.568
-2007.11
579.576
-1860.18
440.24
-1780.78
331.419
-1685.06
224.665
-1564.85
106.693
-1418.33
-20.7491
-1263.44
-154.925
-1101.65
-293.458
-934.965
-436.536
-760.656
-582.454
-581.607
-724.73
-404.36
-847.967
-238.93
-928.149
-97.9982
-943.918
-11.9529
-841.913
10.6326
-531.499
-12.2047
-113.771
105.01
-1643.36
-15.9892
-2013.43
-236.683
-1786.42
-440.05
-1656.82
-631.452
-1589.38
-828.85
-1487.66
-1032.33
-1361.37
-1240.28
-1210.38
-1451.6
-1052.13
-1666.59
-886.658
-1882.35
-719.199
-2087.91
-555.1
-2262.7
-406.819
-2374.75
-292.313
-2376.48
-237.191
-2210.11
-264.374
-1845.12
-376.946
-1277.77
-556.711
-554.567
-735.411
-668.338
-219.259
-1424.1
-344.548
-1888.14
-442.557
-1688.41
-591.609
-1507.76
-779.269
-1401.72
-980.649
-1286.28
-1171.28
-1170.74
-1345.18
-1036.48
-1500.01
-897.292
-1633.89
-752.781
-1740.11
-612.98
-1806.28
-488.932
-1815.24
-397.859
-1745.82
-361.732
-1579.59
-403.417
-1306.55
-537.423
-932.483
-751.008
-511.778
-977.416
-173.848
-1073.34
-842.185
-109.561
-1314.54
-55.9368
-1941.77
11.915
-1756.26
24.3941
-1520.24
16.1325
-1393.46
3.48056
-1273.63
5.79294
-1173.05
33.0255
-1063.71
92.2489
-956.515
187.474
-848.006
316.851
-742.357
472.067
-644.149
636.308
-562.1
785.101
-510.525
886.841
-505.157
903.573
-554.155
799.3
-646.735
569.347
-747.463
267.156
-771.15
-575.029
12.3429
-1326.88
64.8518
-1994.27
129.997
-1821.41
190.474
-1580.72
255.024
-1458.01
322.057
-1340.66
394.583
-1245.58
477.518
-1146.64
574.575
-1053.57
689.429
-962.86
821.266
-874.194
963.362
-786.244
1100.19
-698.929
1205.37
-615.708
1244.38
-544.161
1184.51
-494.281
1008.86
-471.088
722.008
-460.612
373.768
-422.91
-201.262
117.554
-1444.44
167.756
-2044.48
206.093
-1859.75
253.929
-1628.56
316.107
-1520.19
377.351
-1401.9
438.295
-1306.52
494.997
-1203.35
548.017
-1106.59
596.462
-1011.31
641.076
-918.808
683.275
-828.443
723.859
-739.513
758.974
-650.824
776.921
-562.108
755.759
-473.119
671.356
-386.685
504.655
-293.911
260.871
-179.125
59.6088
189.068
-1633.5
220.993
-2076.4
243.102
-1881.85
285.031
-1670.49
345.482
-1580.64
401.91
-1458.33
462.043
-1366.66
520.891
-1262.19
581.168
-1166.87
638.794
-1068.93
689.905
-969.918
728.197
-866.735
747.618
-758.934
743.169
-646.375
711.596
-530.535
648.799
-410.322
548.411
-286.297
399.062
-144.563
200.789
19.1486
260.397
224.018
-1857.52
218.549
-2070.93
241.969
-1905.28
292.02
-1720.54
360.129
-1648.75
424.454
-1522.66
498.137
-1440.34
574.81
-1338.87
659.601
-1251.66
745.38
-1154.71
824.526
-1049.06
882.797
-925.006
908.577
-784.714
896.184
-633.983
843.636
-477.986
748.133
-314.819
607.779
-145.943
408.606
54.61
202.669
225.085
463.067
165.884
-2023.41
107.189
-2012.24
117.27
-1915.36
146.701
-1749.97
189.083
-1691.13
233.303
-1566.88
290.126
-1497.16
354.673
-1403.41
429.999
-1326.99
504.6
-1229.31
563.362
-1107.83
584.747
-946.39
562.698
-762.665
507.567
-578.852
424.404
-394.823
315.774
-206.188
219.192
-49.3615
139.609
134.193
25.0274
339.667
488.094
22.8859
-2046.29
-71.1441
-1918.21
-114.773
-1871.73
-155.129
-1709.61
-192.912
-1653.35
-225.956
-1533.83
-255.929
-1467.19
-279.017
-1380.33
-298.445
-1307.56
-318.247
-1209.51
-348.608
-1077.47
-393.707
-901.292
-442.239
-714.133
-477.103
-543.988
-498.554
-373.372
-521.903
-182.839
-552.731
-18.533
-545.204
126.666
-414.513
208.976
73.5812
-53.7211
-1992.57
-134.535
-1837.39
-203.14
-1803.12
-280.225
-1632.53
-361.518
-1572.06
-444.84
-1450.51
-538.019
-1374.01
-635.449
-1282.89
-740.691
-1202.32
-844.695
-1105.51
-936.818
-985.342
-998.207
-839.903
-1017.52
-694.823
-995.095
-566.409
-931.184
-437.284
-825.41
-288.614
-710.167
-133.776
-538.675
-44.8259
-338.415
8.71635
-264.834
-34.6673
-1957.9
-94.7146
-1777.35
-137.319
-1760.52
-179.146
-1590.7
-222.043
-1529.16
-260.515
-1412.04
-304.289
-1330.24
-349.402
-1237.78
-396.801
-1154.92
-434.456
-1067.85
-444.016
-975.783
-408.244
-875.674
-329.441
-773.627
-221.997
-673.852
-88.4485
-570.832
69.8464
-446.909
222.458
-286.388
310.93
-133.297
266.229
53.4172
1.39482
-119.029
-1838.87
-270.833
-1625.54
-382.143
-1649.21
-455.864
-1516.98
-518.555
-1466.47
-551.566
-1379.03
-571.329
-1310.47
-572.569
-1236.54
-559.545
-1167.94
-527.454
-1099.94
-470.269
-1032.97
-382.153
-963.79
-265.314
-890.466
-127.328
-811.839
25.8517
-724.012
188.363
-609.42
332.28
-430.306
357.452
-158.469
286.461
124.408
287.855
-186.373
-1652.5
-416.602
-1395.31
-661.417
-1404.39
-859.903
-1318.49
-1047.8
-1278.58
-1199.68
-1227.14
-1326.32
-1183.84
-1422.73
-1140.13
-1492.35
-1098.32
-1535.42
-1056.87
-1552.97
-1015.42
-1544.02
-972.738
-1506.68
-927.805
-1439.2
-879.32
-1339.32
-823.891
-1196.38
-752.359
-984.243
-642.445
-682.544
-460.167
-338.789
-219.347
-50.9332
-677.501
-1097.82
-1527.21
-1870.7
-2174.27
-2426.41
-2635.25
-2800.39
-2923.71
-3005.58
-3045.99
-3043.73
-2996.54
-2900.86
-2749.75
-2527.11
-2194.55
-1679.72
-924.067
-677.523
1652.53
-1097.86
1395.34
-1527.28
1404.42
-1870.8
1318.52
-2174.41
1278.61
-2426.59
1227.18
-2635.46
1183.88
-2800.64
1140.17
-2924
1098.36
-3005.9
1056.91
-3046.35
1015.45
-3044.12
972.766
-2996.95
927.833
-2901.3
879.352
-2750.22
823.92
-2527.56
752.348
-2194.88
642.32
-1679.81
459.925
-923.992
219.184
51.0085
-186.403
1838.93
-416.65
1625.59
-661.489
1649.26
-859.988
1517.02
-1047.89
1466.52
-1199.78
1379.07
-1326.42
1310.51
-1422.81
1236.57
-1492.42
1167.97
-1535.47
1099.96
-1553
1032.99
-1544.06
963.819
-1506.74
890.516
-1439.31
811.922
-1339.5
724.115
-1196.62
609.469
-984.485
430.186
-682.73
158.172
-339.024
-124.52
-288.015
-118.943
1957.88
-270.632
1777.28
-381.837
1760.47
-455.412
1590.6
-517.952
1529.06
-550.777
1411.9
-570.333
1330.07
-571.333
1237.58
-558.047
1154.68
-525.689
1067.61
-468.27
975.571
-379.986
875.538
-263.048
773.581
-125.004
673.882
28.1747
570.94
190.556
447.092
333.992
286.753
357.598
134.569
285.468
-52.3856
-2.54656
-34.4206
1992.3
-94.2719
1837.14
-136.656
1802.85
-178.262
1632.21
-220.936
1571.73
-259.186
1450.15
-302.743
1373.63
-347.648
1282.48
-394.84
1201.88
-432.275
1105.04
-441.597
984.894
-405.627
839.57
-326.725
694.682
-219.252
566.411
-85.6702
437.363
72.6441
288.783
225.374
134.029
313.841
46.1078
267.885
-6.42403
265.339
-53.8418
2046.14
-134.644
1917.94
-203.302
1871.52
-280.502
1709.41
-361.904
1653.14
-445.392
1533.64
-538.759
1467
-636.426
1380.15
-741.917
1307.37
-846.127
1209.25
-938.324
1077.09
-999.62
900.868
-1018.75
713.816
-996.129
543.79
-931.86
373.096
-825.568
182.494
-710.019
18.4824
-537.751
-126.158
-336.574
-207.597
-71.235
22.4568
2023.69
-71.6744
2012.07
-115.515
1915.36
-156.132
1750.03
-194.197
1691.2
-227.538
1566.98
-257.844
1497.31
-281.289
1403.6
-301.115
1327.2
-321.337
1229.48
-352.103
1107.86
-397.497
946.264
-446.164
762.485
-481.075
578.703
-502.618
394.641
-526.159
206.036
-557.15
49.4747
-548.753
-134.553
-416.415
-339.934
-487.65
165.632
1858.06
106.718
2070.99
116.635
1905.44
145.888
1720.78
188.067
1649.03
232.105
1522.95
288.735
1440.68
353.1
1339.24
428.226
1252.07
502.586
1155.12
561.034
1049.41
582.068
925.232
559.759
784.795
504.533
633.93
421.382
477.793
312.987
314.434
217.173
145.292
138.092
-55.4693
23.8997
-225.738
-463.75
224.18
1633.87
218.581
2076.59
241.961
1882.06
292.015
1670.72
360.138
1580.9
424.491
1458.59
498.231
1366.94
574.985
1262.48
659.887
1167.17
745.776
1069.23
825.002
970.188
883.289
866.944
909.034
759.049
896.591
646.374
843.979
530.405
748.352
410.06
607.754
285.891
408.293
143.992
202.518
-19.9625
-261.232
189.43
1444.45
221.319
2044.7
243.382
1860
285.322
1628.79
345.808
1520.42
402.272
1402.13
462.454
1306.76
521.364
1203.57
581.719
1106.82
639.438
1011.51
690.643
918.985
729.014
828.575
748.469
739.597
743.999
650.845
712.353
562.054
649.454
472.961
548.941
386.405
399.441
293.494
200.966
178.517
-60.2658
117.896
1326.55
168.066
1994.53
206.268
1821.8
253.99
1581.06
316.092
1458.32
377.246
1340.98
438.101
1245.9
494.7
1146.97
547.625
1053.89
595.957
963.178
640.418
874.524
682.373
786.619
722.655
699.315
757.463
616.037
775.237
544.281
754.179
494.02
670.109
470.476
503.815
459.789
260.36
421.974
200.094
12.7925
1313.76
65.2648
1942.06
130.344
1756.72
190.904
1520.5
255.62
1393.6
322.848
1273.75
395.542
1173.21
478.559
1063.95
575.501
956.95
689.941
848.738
821.135
743.331
962.493
645.26
1098.87
562.939
1203.53
511.375
1242.59
505.223
1183.09
553.517
1007.99
645.585
721.625
746.151
373.682
769.92
573.776
-108.933
1422.69
-54.985
1888.11
13.2934
1688.44
26.3892
1507.4
18.8348
1401.15
6.95306
1285.63
10.0717
1170.09
38.0974
1035.92
97.9779
897.065
193.669
753.041
323.4
613.595
478.923
489.732
643.331
398.527
792.071
362.631
893.425
403.866
909.139
537.801
803.258
751.465
571.582
977.826
268.11
1073.39
841.886
-219.535
1642.22
-344.093
2012.66
-441.181
1785.53
-589.63
1655.85
-776.739
1588.26
-977.496
1486.38
-1167.34
1359.93
-1340.29
1208.88
-1493.98
1050.75
-1626.42
885.481
-1731.04
718.214
-1795.73
554.423
-1803.92
406.722
-1734.32
293.03
-1569.01
238.553
-1297.12
265.913
-924.383
378.726
-506.127
559.569
-171.648
738.911
670.237
103.376
1538.85
-18.1936
2134.23
-238.955
2006.28
-442.512
1859.41
-634.317
1780.07
-832.233
1684.29
-1036.23
1563.92
-1244.6
1417.25
-1456.16
1262.31
-1671.2
1100.51
-1886.77
933.79
-2091.86
759.506
-2265.93
580.796
-2377.14
404.236
-2378.16
239.571
-2210.74
98.4914
-1844.54
12.526
-1276.38
-8.59472
-553.084
15.6109
117.153
606.625
932.219
887.124
1853.73
770.249
2123.16
576.633
2053.02
436.454
1920.24
326.652
1794.1
218.84
1671.73
99.8481
1536.24
-28.4585
1390.61
-163.257
1235.31
-302.297
1072.83
-445.851
903.057
-591.922
726.863
-733.835
546.145
-856.342
362.074
-935.961
178.107
-951.268
27.8297
-847.284
-112.582
-533.495
-298.182
-416.341
751.8
180.416
1160.45
1445.08
1166.53
2117.07
1072.84
2146.71
1023.59
1969.49
1021.18
1796.51
1036.58
1656.33
1046.83
1525.98
1043.95
1393.49
1023.97
1255.29
984.266
1112.53
920.94
966.381
829.661
818.139
707.618
668.186
553.162
516.527
371.669
359.595
200.341
199.153
86.6863
1.0651
0.349852
-211.852
-415.992
193.178
-12.7659
223.52
1414.74
225.745
2114.85
272.584
2099.87
345.64
1896.43
431.492
1710.66
520.504
1567.31
602.598
1443.89
670.729
1325.36
721.037
1204.98
751.589
1081.97
760.667
957.302
746.655
832.149
708.3
706.54
644.699
580.126
554.939
449.353
442.208
311.881
296.059
147.211
139.924
-55.7195
-276.068
-283.726
270.958
-439.489
1570.5
-389.055
2064.41
-251.037
1961.85
-108.664
1754.06
20.7422
1581.25
136.965
1451.09
239.989
1340.86
327.304
1238.04
396.962
1135.32
447.772
1031.16
479.218
925.854
491.062
820.305
483.279
714.321
455.81
607.593
408.228
496.934
340.122
379.987
243.325
244.006
109.059
78.5434
-167.009
-0.406545
271.364
-126.007
1696.1
-102.692
2041.1
-37.6356
1896.79
35.2643
1681.16
110.99
1505.52
190.411
1371.67
263.987
1267.29
327.116
1174.91
377.115
1085.32
412.577
995.698
432.923
905.507
437.966
815.261
427.66
724.626
402.097
633.156
360.68
538.35
303.209
437.459
225.257
321.958
129.511
174.29
-37.4972
-143.118
50.7627
313.542
529.725
700.721
840.27
927.502
997.579
1045.71
1072.51
1078.3
1063.56
1028.68
973.432
897.26
798.11
673.193
514.115
303.272
)
;

boundaryField
{
    outletWall
    {
        type            calculated;
        value           nonuniform List<scalar> 
60
(
616.195
-677.499
-986.316
-569.188
-1058.8
-3211.94
-6235.59
-8202.36
-7297.31
-3043.31
4794.15
5669.15
3953.22
-344.36
-3829.55
-4646.65
-4650.82
-3449.54
-1758.27
-2669.61
5181.23
5063.99
4612.3
3892.26
4437.68
5635.61
6677.62
7793.7
9056.51
10237.6
10941.3
10042.8
8743.46
7526.77
6500.92
5627.77
4899.04
4356.08
4221.8
4807.01
1471.37
74.8313
-1283.78
-2279.35
-5016.37
-7803.74
-9953.68
-10716.1
-8304.03
449.553
7192.35
7385.94
4911.96
-1421.37
-5481.56
-6000.04
-5514.96
-4365.63
-3367.1
-3635.42
)
;
    }
    fineWalls
    {
        type            calculated;
        value           uniform 0;
    }
    fineFrontAndBack
    {
        type            calculated;
        value           nonuniform List<scalar> 
960
(
1.75539e-15
3.01542e-13
1.61273e-13
-7.36654e-16
2.2507e-13
2.66762e-14
9.82616e-15
2.50162e-14
7.78216e-14
-1.3783e-14
4.89684e-14
-4.33347e-13
-1.8038e-13
-1.80138e-13
-2.43213e-12
-7.52208e-13
-8.14049e-13
-3.15111e-12
-5.23595e-13
-5.94692e-13
-1.08326e-13
-1.63618e-13
-1.76339e-13
-1.88981e-13
-1.87537e-13
-2.21225e-13
-4.12239e-12
-2.60003e-13
-2.71972e-13
-2.8568e-13
-2.98557e-13
-3.09039e-13
-3.20501e-13
-3.38673e-13
-3.56301e-13
-3.78932e-13
-4.09271e-13
-4.82188e-13
-4.95049e-13
-8.48737e-13
-1.63869e-11
-1.9996e-12
-1.7871e-12
-2.18004e-12
3.37578e-12
2.58788e-12
5.68424e-12
4.79413e-12
1.61688e-10
-1.71979e-11
2.44e-12
1.6241e-11
3.3729e-12
2.20186e-12
1.28597e-12
9.35356e-12
1.84743e-12
1.72264e-12
1.88469e-12
1.79831e-11
9.30634e-13
5.86513e-13
5.60084e-13
4.86819e-13
4.48107e-13
4.12093e-13
3.84395e-13
3.63517e-13
3.43041e-13
3.1939e-13
2.90256e-13
2.55096e-13
2.20421e-13
2.31077e-12
1.2602e-13
6.0639e-14
3.27934e-14
1.36025e-16
-2.72581e-14
-8.00795e-14
-3.23445e-13
-4.19162e-13
-2.56284e-12
-7.77109e-13
-7.75213e-13
-3.07293e-12
-3.08082e-13
-3.49758e-13
-5.86293e-13
-1.12099e-13
-2.47077e-13
-9.02807e-13
-2.57038e-14
-2.45636e-14
-2.47711e-14
-1.19761e-13
-1.48891e-14
-2.12575e-15
-8.293e-14
-8.52644e-14
-2.0946e-12
-6.77633e-13
-2.73769e-12
-4.99801e-12
-5.17134e-12
-4.43063e-12
-3.64513e-12
-2.65992e-12
-9.14755e-13
2.41347e-12
4.17615e-12
6.27288e-13
-1.02075e-12
-1.54826e-12
-1.23922e-12
-7.52302e-13
-5.73382e-13
-2.85953e-13
-8.39493e-15
6.31151e-12
2.31347e-11
5.47802e-12
-4.7614e-12
-5.92847e-12
-4.3933e-12
-3.00356e-12
-1.11533e-12
3.32693e-12
1.02958e-11
1.31461e-11
3.62553e-12
-7.1511e-13
-1.63536e-12
-1.31516e-12
-8.61692e-13
-6.39187e-13
-3.85695e-13
-1.13563e-13
1.82976e-11
4.30589e-11
2.56296e-11
3.10315e-12
-5.98024e-12
-5.71017e-12
-2.68747e-12
1.49875e-12
1.0008e-11
1.90383e-11
2.2751e-11
1.07325e-11
1.66736e-12
-1.6018e-12
-1.47735e-12
-1.08754e-12
-7.80935e-13
-4.52403e-13
3.45348e-14
2.92172e-11
5.81456e-11
4.89567e-11
2.15531e-11
5.94096e-13
-6.79085e-12
-2.54822e-12
7.25791e-12
1.93841e-11
2.66108e-11
2.75926e-11
1.90412e-11
6.82899e-12
-4.18273e-13
-1.53614e-12
-1.50901e-12
-1.43159e-12
-9.40346e-13
-1.70325e-14
3.89401e-11
6.72603e-11
6.53181e-11
4.41022e-11
1.68554e-11
-1.93236e-12
1.85082e-12
1.71797e-11
2.75926e-11
2.87785e-11
2.60778e-11
2.40833e-11
1.26826e-11
2.42378e-12
-3.38317e-13
1.62938e-12
7.8166e-13
-1.14073e-12
-3.82165e-13
4.58132e-11
6.86099e-11
6.89592e-11
5.98475e-11
3.72862e-11
1.21045e-11
1.32069e-11
2.73711e-11
3.0328e-11
2.67037e-11
2.40252e-11
2.4579e-11
1.80046e-11
6.79389e-12
4.89001e-12
1.0672e-11
9.89044e-12
3.29012e-12
3.39051e-12
4.82564e-11
6.32323e-11
6.31945e-11
6.36576e-11
5.21966e-11
3.10266e-11
2.73082e-11
3.13976e-11
2.7495e-11
2.40959e-11
2.27015e-11
2.30986e-11
2.06155e-11
1.17711e-11
1.42241e-11
2.13155e-11
1.85731e-11
1.29073e-11
-1.29571e-13
4.57153e-11
5.29364e-11
5.29528e-11
5.91652e-11
5.81908e-11
4.66932e-11
3.47391e-11
2.6622e-11
2.22848e-11
2.3029e-11
2.2902e-11
2.03221e-11
1.91414e-11
1.66691e-11
2.19936e-11
2.30661e-11
1.9167e-11
1.7277e-11
1.96023e-11
3.8624e-11
3.8608e-11
3.65593e-11
4.20337e-11
4.73136e-11
4.25081e-11
2.48152e-11
1.46947e-11
1.60455e-11
2.27506e-11
2.66011e-11
2.07907e-11
1.78712e-11
2.00681e-11
2.41622e-11
2.68618e-11
2.6084e-11
2.37086e-11
2.16842e-11
2.81745e-11
1.93456e-11
3.85833e-12
-1.44542e-11
-2.80527e-11
-3.0755e-11
-2.1334e-11
-3.38371e-12
4.55257e-12
1.5959e-11
3.18236e-11
3.57638e-11
1.8447e-11
1.18174e-11
1.07389e-11
3.51048e-11
4.97021e-11
4.19948e-11
2.89635e-11
1.59762e-11
-2.29155e-12
-3.15512e-11
-5.2029e-11
-5.05567e-11
-3.63256e-11
-2.43596e-11
-2.80138e-11
-2.13813e-11
-2.68093e-11
-3.73724e-11
-5.01231e-11
-6.62835e-11
-7.22866e-11
-4.43146e-11
3.81328e-11
1.483e-10
2.18692e-10
2.41244e-10
4.80924e-12
-7.90724e-12
-3.1217e-11
-3.98781e-11
-3.42011e-11
-2.45879e-11
-2.48469e-11
-3.14749e-11
-3.27013e-11
-3.73682e-11
-4.34033e-11
-4.12843e-11
-3.01966e-11
-2.74141e-11
-4.19966e-11
-6.16255e-11
-6.86483e-11
-6.36137e-11
-3.97677e-11
-4.35919e-12
-1.16356e-11
-2.71361e-11
-3.12973e-11
-2.31562e-11
-1.1026e-11
-1.69797e-11
-3.2051e-11
-3.77843e-11
-3.97019e-11
-3.89267e-11
-3.15728e-11
-2.47783e-11
-2.04456e-11
-1.12662e-11
-1.16834e-11
-6.23587e-12
-5.82744e-12
-1.60618e-11
-1.16467e-11
-1.85449e-11
-2.7036e-11
-2.35598e-11
-1.00915e-11
4.71788e-13
-1.07869e-11
-2.86684e-11
-3.90181e-11
-4.08823e-11
-3.72927e-11
-3.22361e-11
-3.04676e-11
-2.12965e-11
-7.81675e-12
-3.45186e-12
2.86357e-13
-1.39512e-12
5.45816e-13
-1.65515e-11
-2.56518e-11
-2.38088e-11
-1.06152e-11
2.21971e-12
6.11399e-12
-5.81207e-12
-2.2099e-11
-3.61659e-11
-4.15144e-11
-3.87355e-11
-3.53946e-11
-3.06612e-11
-1.52495e-11
-2.56924e-12
2.8251e-14
1.18771e-12
8.38333e-13
3.7871e-12
-1.7141e-11
-2.55935e-11
-1.08648e-11
2.51796e-12
7.63575e-12
6.19749e-12
-2.39772e-12
-1.45267e-11
-2.93149e-11
-3.96524e-11
-4.08146e-11
-3.7472e-11
-2.59319e-11
-8.57718e-12
5.5972e-13
2.19815e-12
2.50663e-12
1.91672e-12
4.14926e-12
-5.72341e-12
-8.53164e-12
2.93251e-12
7.26108e-12
6.61073e-12
4.86475e-12
1.73801e-13
-7.9524e-12
-2.03371e-11
-3.37665e-11
-4.06463e-11
-3.50789e-11
-1.75764e-11
-3.17846e-12
2.11838e-12
2.40782e-12
2.00596e-12
1.41705e-12
1.24774e-12
1.74151e-12
6.14759e-12
6.30578e-12
5.40631e-12
4.97154e-12
4.96865e-12
2.74884e-12
-2.94106e-12
-1.18114e-11
-2.46135e-11
-3.55069e-11
-2.56615e-11
-9.28825e-12
3.43964e-13
2.46116e-12
2.09406e-12
1.54504e-12
1.04711e-12
7.8107e-13
-1.67697e-13
2.977e-12
3.573e-12
4.22224e-12
5.04692e-12
5.51221e-12
4.51613e-12
5.98578e-13
-5.36492e-12
-1.5191e-11
-2.61801e-11
-1.39219e-11
-3.50006e-12
1.43806e-12
2.26975e-12
1.88196e-12
1.38251e-12
9.52687e-13
6.99179e-13
-1.0856e-12
2.1303e-12
3.52151e-12
4.47919e-12
5.17679e-12
5.54158e-12
5.31122e-12
3.21418e-12
-6.51662e-16
-5.40004e-12
-1.26746e-11
-7.25843e-12
-1.77832e-12
1.43984e-12
2.17276e-12
1.79831e-12
1.2735e-12
8.41661e-13
5.51603e-13
-1.75539e-15
-3.01542e-13
-1.61273e-13
7.36654e-16
-2.2507e-13
-2.66762e-14
-9.82616e-15
-2.50162e-14
-7.78216e-14
1.3783e-14
-4.89684e-14
4.33347e-13
1.8038e-13
1.80138e-13
2.43213e-12
7.52208e-13
8.14049e-13
3.15111e-12
5.23595e-13
5.94692e-13
1.08326e-13
1.63618e-13
1.76339e-13
1.88981e-13
1.87537e-13
2.21225e-13
4.12239e-12
2.60003e-13
2.71972e-13
2.8568e-13
2.98557e-13
3.09039e-13
3.20501e-13
3.38673e-13
3.56301e-13
3.78932e-13
4.09271e-13
4.82188e-13
4.95049e-13
8.48737e-13
1.63869e-11
1.9996e-12
1.7871e-12
2.18004e-12
-3.37578e-12
-2.58788e-12
-5.68424e-12
-4.79413e-12
-1.61688e-10
1.71979e-11
-2.44e-12
-1.6241e-11
-3.3729e-12
-2.20186e-12
-1.28597e-12
-9.35356e-12
-1.84743e-12
-1.72264e-12
-1.88469e-12
-1.79831e-11
-9.30634e-13
-5.86513e-13
-5.60084e-13
-4.86819e-13
-4.48107e-13
-4.12093e-13
-3.84395e-13
-3.63517e-13
-3.43041e-13
-3.1939e-13
-2.90256e-13
-2.55096e-13
-2.20421e-13
-2.31077e-12
-1.2602e-13
-6.0639e-14
-3.27934e-14
-1.36025e-16
2.72581e-14
8.00795e-14
3.23445e-13
4.19162e-13
2.56284e-12
7.77109e-13
7.75213e-13
3.07293e-12
3.08082e-13
3.49758e-13
5.86293e-13
1.12099e-13
2.47077e-13
9.02807e-13
2.57038e-14
2.45636e-14
2.47711e-14
1.19761e-13
1.48891e-14
2.12575e-15
8.293e-14
8.52644e-14
2.0946e-12
6.77633e-13
2.73769e-12
4.99801e-12
5.17134e-12
4.43063e-12
3.64513e-12
2.65992e-12
9.14755e-13
-2.41347e-12
-4.17615e-12
-6.27288e-13
1.02075e-12
1.54826e-12
1.23922e-12
7.52302e-13
5.73382e-13
2.85953e-13
8.39493e-15
-6.31151e-12
-2.31347e-11
-5.47802e-12
4.7614e-12
5.92847e-12
4.3933e-12
3.00356e-12
1.11533e-12
-3.32693e-12
-1.02958e-11
-1.31461e-11
-3.62553e-12
7.1511e-13
1.63536e-12
1.31516e-12
8.61692e-13
6.39187e-13
3.85695e-13
1.13563e-13
-1.82976e-11
-4.30589e-11
-2.56296e-11
-3.10315e-12
5.98024e-12
5.71017e-12
2.68747e-12
-1.49875e-12
-1.0008e-11
-1.90383e-11
-2.2751e-11
-1.07325e-11
-1.66736e-12
1.6018e-12
1.47735e-12
1.08754e-12
7.80935e-13
4.52403e-13
-3.45348e-14
-2.92172e-11
-5.81456e-11
-4.89567e-11
-2.15531e-11
-5.94096e-13
6.79085e-12
2.54822e-12
-7.25791e-12
-1.93841e-11
-2.66108e-11
-2.75926e-11
-1.90412e-11
-6.82899e-12
4.18273e-13
1.53614e-12
1.50901e-12
1.43159e-12
9.40346e-13
1.70325e-14
-3.89401e-11
-6.72603e-11
-6.53181e-11
-4.41022e-11
-1.68554e-11
1.93236e-12
-1.85082e-12
-1.71797e-11
-2.75926e-11
-2.87785e-11
-2.60778e-11
-2.40833e-11
-1.26826e-11
-2.42378e-12
3.38317e-13
-1.62938e-12
-7.8166e-13
1.14073e-12
3.82165e-13
-4.58132e-11
-6.86099e-11
-6.89592e-11
-5.98475e-11
-3.72862e-11
-1.21045e-11
-1.32069e-11
-2.73711e-11
-3.0328e-11
-2.67037e-11