/*--------------------------------*- C++ -*----------------------------------*\
| =========                 |                                                 |
| \\      /  F ield         | OpenFOAM: The Open Source CFD Toolbox           |
|  \\    /   O peration     | Version:  4.1                                   |
|   \\  /    A nd           | Web:      www.OpenFOAM.org                      |
|    \\/     M anipulation  |                                                 |
\*---------------------------------------------------------------------------*/
FoamFile
{
    version     2.0;
    format      ascii;
    class       volVectorField;
    location    "8";
    object      U;
}
// * * * * * * * * * * * * * * * * * * * * * * * * * * * * * * * * * * * * * //

dimensions      [0 1 -1 0 0 0 0];

internalField   nonuniform List<vector> 
1280
(
(1.26857e-18 -0.465396 -1.21955)
(5.125e-17 -0.0858833 -0.882707)
(1.73726e-16 -0.200483 -0.446713)
(-5.32361e-19 -0.0649989 -0.559377)
(3.82527e-17 0.0729074 -1.18492)
(1.92782e-17 0.251352 -0.942055)
(7.10111e-18 0.399153 -0.918266)
(2.70009e-17 0.507415 -0.811114)
(-1.98999e-18 0.757059 -1.36648)
(-9.96065e-18 0.901046 -1.04042)
(4.2996e-17 1.07809 -0.895066)
(-1.09264e-16 1.47103 -1.63523)
(-1.30356e-16 1.54319 -1.29244)
(-1.47987e-16 1.79498 -1.1055)
(-4.92774e-16 2.30203 -2.16641)
(-5.43601e-16 2.43418 -1.78017)
(-5.88292e-16 2.73064 -1.51882)
(-5.35561e-16 3.72548 -3.26926)
(-3.78388e-16 3.57666 -2.7044)
(-4.29768e-16 4.30904 -2.71502)
(-4.44415e-16 3.96452 -2.43361)
(-6.71254e-16 4.31116 3.80253)
(-7.2344e-16 3.99913 7.96694)
(-7.75306e-16 4.22145 9.8902)
(-7.69384e-16 4.45162 10.5698)
(-9.07588e-16 4.83491 11.0014)
(-8.69015e-16 3.69144 8.03979)
(-1.06668e-15 8.14429 13.6175)
(-1.11578e-15 8.18713 13.8317)
(-1.17202e-15 8.27539 13.8786)
(-1.22485e-15 8.32058 13.8079)
(-1.26785e-15 8.32076 13.6428)
(-1.31488e-15 8.30581 13.41)
(-1.38943e-15 8.27435 13.1363)
(-1.46175e-15 8.2358 12.8434)
(-1.55459e-15 8.17296 12.5437)
(-1.67906e-15 8.12741 12.2428)
(-1.97821e-15 8.01219 11.9201)
(-2.03097e-15 8.00311 11.635)
(-3.482e-15 7.73695 11.0125)
(-2.85237e-15 9.14976 12.8093)
(-1.60611e-15 5.55668 9.15635)
(-1.43542e-15 4.51835 9.03683)
(-1.73691e-15 3.52083 9.1058)
(1.09617e-15 1.64922 8.67144)
(2.07862e-15 0.927476 4.76167)
(4.56566e-15 0.171079 4.21926)
(3.85071e-15 -0.160276 3.62502)
(3.16554e-14 -0.628248 -3.09879)
(-2.14479e-14 -0.0993912 -3.89543)
(1.95984e-15 0.0779458 -4.46789)
(2.82698e-15 0.325843 -3.35131)
(2.70916e-15 0.157813 3.0821)
(1.76856e-15 -0.160589 3.97713)
(1.03291e-15 -0.898619 4.66246)
(1.62812e-15 -1.61612 8.62513)
(1.51239e-15 -3.48806 9.10217)
(1.38364e-15 -4.48472 9.02073)
(1.51381e-15 -5.51927 9.14755)
(2.99173e-15 -9.11884 12.8171)
(3.81799e-15 -7.72382 11.0243)
(2.40621e-15 -7.98877 11.6513)
(2.29778e-15 -7.9988 11.9383)
(1.99721e-15 -8.11396 12.2621)
(1.83839e-15 -8.15999 12.5623)
(1.69064e-15 -8.22301 12.8601)
(1.577e-15 -8.2617 13.1505)
(1.49135e-15 -8.29316 13.4213)
(1.40735e-15 -8.30792 13.6506)
(1.31032e-15 -8.30704 13.8111)
(1.19079e-15 -8.26119 13.8746)
(1.04655e-15 -8.17258 13.8169)
(9.04292e-16 -8.12309 13.5898)
(4.87118e-16 -3.69106 7.98542)
(5.17004e-16 -4.83229 10.9426)
(2.48775e-16 -4.4478 10.494)
(1.34537e-16 -4.21934 9.7983)
(5.58052e-19 -3.99786 7.8554)
(-1.11828e-16 -4.30785 3.67424)
(-3.28531e-16 -3.96142 -2.55951)
(-2.33745e-16 -4.28557 -2.83605)
(-3.02918e-16 -3.54841 -2.80067)
(-4.35579e-16 -3.74844 -3.31965)
(-5.61596e-16 -2.68734 -1.51745)
(-5.60226e-16 -2.41686 -1.74011)
(-6.14322e-16 -2.33438 -2.05143)
(-2.22643e-16 -1.80376 -1.03626)
(-2.70556e-16 -1.57572 -1.19433)
(-1.44125e-16 -1.58107 -1.47148)
(-6.66422e-17 -1.14333 -0.792283)
(-1.78556e-16 -0.995808 -0.904725)
(-1.75009e-16 -0.937991 -1.15904)
(-2.54251e-17 -0.639306 -0.669541)
(-1.77514e-17 -0.576331 -0.735933)
(-1.6189e-17 -0.434326 -0.719355)
(-2.03546e-17 -0.387534 -0.878944)
(-1.07599e-17 -0.170938 -0.40219)
(-1.53623e-18 -0.0998428 -0.486276)
(-1.60174e-17 -0.12092 -0.897134)
(-6.16183e-17 0.180307 -1.07244)
(-2.32733e-16 -0.882757 3.98603)
(-7.52926e-17 -0.519194 2.30599)
(-3.04187e-16 -1.0944 1.97924)
(-5.55334e-16 -1.54201 2.26306)
(-5.74593e-16 -1.5655 2.47597)
(-4.92292e-16 -1.30666 2.55705)
(-4.05014e-16 -0.169013 2.20426)
(-2.95546e-16 1.37413 1.23599)
(-1.01639e-16 1.92009 0.56065)
(2.68163e-16 1.62459 -0.249806)
(4.64016e-16 -0.99163 -1.23949)
(6.96987e-17 -2.39636 -1.20374)
(-1.13417e-16 -2.74087 -1.03123)
(-1.72029e-16 -2.12013 -0.91813)
(-1.37692e-16 -1.12133 -0.917433)
(-8.35891e-17 -0.370075 -1.01576)
(-6.37091e-17 -0.193751 -1.1295)
(-3.17726e-17 -0.333807 -1.01235)
(-9.3277e-19 -0.221711 -0.93907)
(7.01278e-16 -0.239303 3.40914)
(2.57052e-15 0.00394469 0.990584)
(6.08669e-16 -1.26961 1.24816)
(-5.29045e-16 -1.76794 2.10787)
(-6.58719e-16 -1.63175 2.70981)
(-4.88145e-16 -1.13593 2.76785)
(-3.33729e-16 0.494233 2.04642)
(-1.23926e-16 1.81519 1.23716)
(3.69659e-16 2.43166 0.49998)
(1.14398e-15 2.24906 -0.670283)
(1.46068e-15 -0.68089 -1.8988)
(4.02836e-16 -2.61784 -1.46528)
(-7.94567e-17 -2.83375 -0.785488)
(-1.81707e-16 -2.06317 -0.611803)
(-1.46128e-16 -0.951752 -0.889565)
(-9.57436e-17 -0.248934 -1.33749)
(-7.10208e-17 -0.196781 -1.59333)
(-4.2855e-17 -0.410064 -1.2805)
(-1.26181e-17 -0.292268 -1.0407)
(2.03306e-15 0.291089 3.48103)
(4.78432e-15 0.476977 1.86065)
(2.84773e-15 -1.3989 0.880307)
(3.44795e-16 -2.1342 1.45183)
(-6.64471e-16 -1.83697 2.62234)
(-6.34464e-16 -1.063 3.04518)
(-2.98608e-16 0.680857 2.35733)
(1.66528e-16 2.01962 1.52782)
(1.112e-15 2.82604 0.513206)
(2.11537e-15 2.70139 -0.687766)
(2.52789e-15 -0.548672 -1.81484)
(1.1925e-15 -2.93742 -1.69768)
(1.85262e-16 -3.06456 -0.671196)
(-1.77977e-16 -2.06497 -0.201576)
(-1.6415e-16 -0.756736 -0.711822)
(-1.20837e-16 -0.123107 -1.61902)
(-8.67706e-17 -0.255089 -2.02983)
(-5.0267e-17 -0.529977 -1.64728)
(3.8372e-18 -0.286218 -1.30785)
(3.24635e-15 0.630202 3.96714)
(6.46063e-15 0.985837 2.95289)
(5.43963e-15 -1.21446 1.43842)
(2.39479e-15 -2.4297 0.946016)
(6.60106e-17 -2.25153 2.07796)
(-7.54539e-16 -1.10429 3.04424)
(-2.83135e-16 1.04304 2.61617)
(8.06435e-16 2.46813 1.59879)
(2.15379e-15 3.33775 0.701744)
(2.95675e-15 3.13166 0.0629585)
(3.06585e-15 -0.580817 -0.745514)
(2.11569e-15 -3.02298 -1.35004)
(7.58777e-16 -3.32822 -0.443041)
(-4.64748e-17 -2.09017 0.149063)
(-1.70682e-16 -0.341651 -0.589162)
(-1.67668e-16 0.158455 -1.9993)
(-1.59066e-16 -0.235784 -2.55744)
(-1.04483e-16 -0.74534 -1.96472)
(-1.89251e-18 -0.51179 -1.68007)
(4.32668e-15 0.834666 4.60524)
(7.47337e-15 1.37803 4.14344)
(7.25757e-15 -0.696556 2.76742)
(4.90024e-15 -2.38192 1.26789)
(1.87282e-15 -2.63538 1.58414)
(-2.14707e-16 -1.31043 2.58768)
(2.05646e-16 1.28976 2.39453)
(1.90886e-15 2.75754 1.64921)
(3.06584e-15 3.52599 1.56428)
(3.19761e-15 3.19527 1.81192)
(2.89754e-15 -0.200542 1.35652)
(2.67592e-15 -3.17141 -0.363586)
(1.40917e-15 -3.53085 0.194145)
(2.69309e-16 -2.0426 0.549306)
(-3.75908e-17 0.377748 -0.791616)
(1.81043e-16 0.561824 -2.48013)
(8.68511e-17 -0.371585 -3.33954)
(-1.26747e-16 -0.838708 -2.53353)
(-4.24627e-17 -0.246936 -2.44921)
(5.09035e-15 0.929406 5.35825)
(7.62332e-15 1.61756 5.42757)
(7.66213e-15 -0.0184077 4.61227)
(6.64972e-15 -1.9996 2.5848)
(4.14291e-15 -2.72913 1.80264)
(1.34494e-15 -1.50224 2.08892)
(1.46744e-15 1.3939 2.08836)
(3.04123e-15 2.73521 2.26349)
(3.36977e-15 3.32648 3.26505)
(2.96708e-15 3.12696 4.1697)
(2.66947e-15 0.511197 3.76986)
(2.731e-15 -2.79692 1.45481)
(2.00051e-15 -3.51832 1.18458)
(7.54877e-16 -1.81338 1.17017)
(5.43335e-16 1.0808 -1.12574)
(1.18578e-15 1.18298 -2.15069)
(1.09894e-15 0.0361844 -3.38218)
(3.65569e-16 -1.26702 -2.66709)
(3.76723e-16 -0.772253 -3.77297)
(5.36182e-15 0.898358 6.23663)
(7.02581e-15 1.63569 6.8818)
(7.02161e-15 0.529496 6.78405)
(7.07307e-15 -1.34588 4.85542)
(5.79962e-15 -2.36737 3.08755)
(3.4474e-15 -1.46384 2.20648)
(3.03425e-15 1.19689 2.34109)
(3.48862e-15 2.26612 3.70971)
(3.055e-15 2.81427 5.41112)
(2.67732e-15 2.97005 6.63941)
(2.52239e-15 1.06736 6.57382)
(2.56651e-15 -2.27542 4.04971)
(2.29061e-15 -3.28141 2.77103)
(1.30789e-15 -1.17821 2.04742)
(1.58046e-15 1.92496 0.13412)
(2.36839e-15 1.37245 1.40466)
(2.06368e-15 -0.268167 -0.119827)
(1.43414e-15 -0.0635881 -2.42813)
(-1.43968e-17 0.612392 -0.281166)
(5.07948e-15 0.716922 7.27299)
(5.88183e-15 1.37789 8.58665)
(5.88365e-15 0.766895 9.34309)
(6.57391e-15 -0.635895 8.07169)
(6.46565e-15 -1.64614 5.52031)
(5.18813e-15 -1.09373 3.38002)
(3.8599e-15 0.778124 3.5885)
(2.95799e-15 1.53505 5.57554)
(2.47609e-15 2.18879 7.27325)
(2.55878e-15 2.68998 8.79698)
(2.54466e-15 1.54191 9.64989)
(2.25802e-15 -1.47787 7.43324)
(2.12682e-15 -2.65413 4.73591)
(1.85212e-15 -0.62704 3.38662)
(2.44374e-15 1.33806 5.2059)
(2.5629e-15 1.12387 6.99836)
(2.12966e-15 0.19154 6.2142)
(1.91966e-15 -1.64591 6.17243)
(2.17803e-15 -5.49863 9.49489)
(4.29155e-15 0.397392 8.37579)
(4.28978e-15 0.838564 10.3887)
(4.06215e-15 0.69975 12.0839)
(4.67041e-15 0.164244 12.05)
(5.25706e-15 -0.46386 9.59089)
(4.72313e-15 -0.519638 6.48152)
(2.75724e-15 0.174762 5.76143)
(1.63275e-15 0.835424 6.89525)
(1.78284e-15 1.54467 8.26036)
(2.52785e-15 2.06372 10.3334)
(2.95568e-15 1.52282 12.673)
(2.31008e-15 -0.419814 12.4426)
(1.98568e-15 -1.635 10.0523)
(2.22978e-15 -0.964603 9.46404)
(2.68469e-15 0.388137 11.7841)
(2.98464e-15 0.835989 13.0906)
(2.89822e-15 0.315322 13.4574)
(2.63428e-15 -1.23387 12.9274)
(2.40935e-15 -3.10118 11.9394)
(3.1305e-15 -0.115457 9.13132)
(2.14951e-15 -0.0843425 11.5947)
(4.28704e-16 0.0505886 13.8534)
(-1.60602e-15 0.302081 14.5798)
(-3.11697e-15 0.565272 12.7823)
(-3.41722e-15 0.634082 9.31683)
(-2.9569e-15 0.586862 6.91181)
(-3.75968e-16 0.594871 6.96598)
(5.05842e-16 0.814881 8.47687)
(1.77322e-15 0.96603 11.2252)
(3.53595e-15 0.569587 14.6544)
(4.26777e-15 -0.560203 16.3722)
(2.04967e-15 -1.38723 15.2338)
(1.31305e-15 -1.12348 13.057)
(7.60493e-16 0.0420379 11.639)
(3.90053e-15 0.504913 11.5506)
(5.52245e-15 0.0278209 11.6363)
(4.66609e-15 -1.20115 10.1224)
(3.21817e-15 -2.34488 6.16413)
(1.77513e-15 -0.606559 8.53248)
(-2.54616e-16 -0.945073 10.3353)
(-3.50569e-15 -0.429487 11.5508)
(-5.781e-15 0.649808 10.5955)
(-5.61741e-15 1.67934 7.95711)
(-4.03617e-15 1.80583 5.0718)
(-2.3653e-15 0.904443 4.2545)
(-3.11264e-15 0.143449 6.17688)
(-2.3757e-15 -0.16204 8.36404)
(-2.97881e-15 -0.321013 11.1764)
(-4.15249e-15 -0.533051 14.6974)
(-5.56923e-15 -0.673442 16.892)
(-7.36484e-15 -0.373569 16.2299)
(-8.03184e-15 0.386303 13.6856)
(-4.92385e-15 0.938836 12.1377)
(4.23697e-15 0.898555 12.3683)
(1.64778e-14 0.981755 12.2754)
(2.42992e-14 1.59894 10.377)
(2.68049e-14 2.44043 6.18395)
(5.3436e-16 -0.853408 7.52736)
(-8.78583e-16 -1.29566 8.46049)
(-3.46856e-15 -0.146942 8.3624)
(-4.4309e-15 1.63335 6.13793)
(-3.80013e-15 2.75069 3.87703)
(-2.73199e-15 2.2792 2.44744)
(-2.76077e-15 0.138825 3.03745)
(-3.49721e-15 -0.911339 5.55007)
(-3.63348e-15 -1.15658 7.76114)
(-4.15203e-15 -1.508 10.2196)
(-4.82259e-15 -1.72781 13.2734)
(-4.58715e-15 -1.12542 14.6763)
(-3.35518e-15 -0.0671254 12.4156)
(-3.04601e-15 0.553401 9.25526)
(-4.66629e-15 0.469762 9.29151)
(-6.84728e-15 0.465615 11.4817)
(-7.62759e-15 0.732912 12.4019)
(-7.06819e-15 1.63691 12.5082)
(-4.41864e-15 3.17136 11.9516)
(-4.84354e-16 -0.940446 6.4534)
(-1.29285e-15 -1.27018 6.60821)
(-3.01512e-15 0.504235 5.32305)
(-3.47748e-15 2.41451 2.97708)
(-2.57291e-15 3.20229 1.93775)
(-1.22511e-15 2.22585 2.05728)
(-1.88663e-15 -0.512928 3.17326)
(-3.56122e-15 -1.71596 4.73024)
(-4.19826e-15 -2.04727 6.76452)
(-4.41132e-15 -2.45893 8.89067)
(-4.32519e-15 -2.37706 10.9836)
(-3.50809e-15 -0.432791 10.5322)
(-2.75314e-15 1.6957 6.67499)
(-2.27173e-15 1.86314 3.4848)
(-1.2518e-15 0.0351279 1.02152)
(-1.29815e-15 -0.469997 1.94687)
(-6.92874e-16 0.248976 3.62647)
(-6.47493e-16 1.64837 5.17251)
(-1.78465e-15 5.422 9.37944)
(-1.29407e-15 -0.861201 5.5017)
(-2.06055e-15 -0.901243 4.88636)
(-3.004e-15 1.31137 2.82206)
(-2.61775e-15 2.92269 1.22736)
(-1.12128e-15 3.14823 1.54105)
(5.24209e-17 1.83923 2.6246)
(-1.19854e-15 -0.959834 3.39608)
(-3.18538e-15 -2.31944 3.99144)
(-4.33534e-15 -2.80679 5.486)
(-4.54247e-15 -3.12138 7.22254)
(-4.14363e-15 -2.48121 8.44386)
(-3.58179e-15 0.60473 6.79702)
(-3.38529e-15 2.74404 3.84876)
(-2.36628e-15 2.84241 2.54538)
(-8.68528e-16 1.25966 0.9001)
(-3.8354e-16 -0.353142 -2.03264)
(3.18175e-17 -0.453806 -2.06324)
(-1.55013e-16 -0.816427 -3.71673)
(6.06462e-17 -0.916887 -0.414833)
(-1.83905e-15 -0.599468 4.61231)
(-2.8502e-15 -0.269129 3.18024)
(-2.64543e-15 1.91831 1.17054)
(-1.17947e-15 2.9454 0.932202)
(2.46635e-16 2.6816 2.24284)
(6.79332e-16 1.44847 3.44241)
(-6.45786e-16 -1.04928 3.5956)
(-2.45545e-15 -2.59916 3.43826)
(-4.01844e-15 -3.3375 4.11794)
(-4.61271e-15 -3.55351 5.28283)
(-4.30395e-15 -2.32793 5.96099)
(-3.93274e-15 1.43968 3.80222)
(-3.4068e-15 3.35867 1.70332)
(-1.69439e-15 3.21105 1.3348)
(-2.85471e-16 1.85621 0.408698)
(3.139e-18 0.501497 -1.0071)
(1.31967e-16 0.383812 -2.37577)
(9.31481e-17 0.811165 -2.29644)
(4.20789e-16 0.0198337 -3.8891)
(-1.90456e-15 -0.183935 3.5726)
(-2.84372e-15 0.481862 1.35034)
(-1.2072e-15 2.08896 0.77704)
(2.79773e-16 2.52013 1.8164)
(8.48417e-16 2.15932 3.19133)
(6.88609e-16 1.25401 3.84706)
(-2.66413e-16 -0.903912 3.55456)
(-1.61407e-15 -2.56023 3.05426)
(-3.25721e-15 -3.5377 2.95118)
(-4.40583e-15 -3.75498 3.32418)
(-4.53496e-15 -2.02887 3.6382)
(-4.16355e-15 2.14873 1.46627)
(-2.88133e-15 3.77171 0.28992)
(-9.5302e-16 3.39889 0.523595)
(6.21911e-17 2.17988 0.0035357)
(2.44238e-16 0.950759 -0.854886)
(2.78515e-16 0.36959 -1.96643)
(2.12969e-16 0.287113 -1.92398)
(4.61029e-16 -0.128256 -2.62055)
(-6.35934e-16 0.491503 3.12001)
(-9.4796e-16 0.82157 0.807425)
(3.25834e-16 1.7213 1.79106)
(8.06787e-16 1.99925 2.95387)
(7.34526e-16 1.88005 3.67372)
(5.40527e-16 1.27493 3.74279)
(1.93113e-17 -0.70747 3.1993)
(-8.836e-16 -2.41337 2.70227)
(-2.25968e-15 -3.45523 2.166)
(-3.75183e-15 -3.732 1.70491)
(-4.51625e-15 -1.67285 1.57067)
(-3.89765e-15 2.61112 -0.353604)
(-1.95293e-15 3.84152 -0.505401)
(-3.53162e-16 3.3933 -0.0867369)
(2.35375e-16 2.37225 -0.336045)
(2.67535e-16 1.28097 -0.918197)
(2.22885e-16 0.601947 -1.65283)
(1.5745e-16 0.631078 -1.69278)
(1.38638e-16 0.211099 -1.88371)
(1.93501e-16 0.931526 3.77407)
(6.83065e-16 0.877126 2.59253)
(7.00642e-16 1.36479 3.08124)
(6.00701e-16 1.75353 3.52821)
(5.52393e-16 1.84574 3.6643)
(5.52072e-16 1.42039 3.47236)
(3.05426e-16 -0.430751 2.69831)
(-3.26784e-16 -2.16577 2.23274)
(-1.31238e-15 -3.12629 1.70953)
(-2.73483e-15 -3.41448 0.721971)
(-3.94521e-15 -1.20519 -0.0413827)
(-2.85128e-15 2.64141 -1.32746)
(-1.03203e-15 3.78803 -0.926632)
(3.82182e-17 3.36324 -0.513585)
(2.73462e-16 2.49804 -0.693364)
(2.32674e-16 1.50913 -1.08648)
(1.71671e-16 0.71114 -1.55016)
(1.16346e-16 0.487622 -1.56524)
(8.67856e-17 0.0182196 -1.50189)
(-1.8633e-17 1.06884 4.17798)
(3.30778e-16 0.969142 3.654)
(3.97e-16 1.36136 3.61832)
(4.69138e-16 1.7618 3.59829)
(5.60769e-16 1.89811 3.52727)
(6.12468e-16 1.56432 3.31871)
(5.01792e-16 -0.242331 2.49244)
(6.65087e-17 -2.11566 1.70776)
(-5.96102e-16 -2.8912 1.35929)
(-1.68789e-15 -3.03937 0.37867)
(-2.9089e-15 -0.858162 -0.926573)
(-1.54688e-15 2.84802 -1.56897)
(-3.88896e-16 3.69547 -1.12206)
(1.59785e-16 3.33811 -0.879053)
(2.52195e-16 2.56894 -1.00709)
(2.09107e-16 1.61672 -1.19954)
(1.53612e-16 0.752005 -1.40568)
(1.05854e-16 0.483404 -1.35857)
(7.76865e-17 0.0952346 -1.25896)
(-1.20623e-16 1.21235 4.30491)
(2.367e-16 1.09103 3.99103)
(3.91278e-16 1.42035 3.75782)
(4.97688e-16 1.81201 3.58568)
(5.75199e-16 1.98736 3.41428)
(6.15731e-16 1.84351 3.22955)
(5.90136e-16 0.542346 2.71093)
(3.57131e-16 -1.69269 1.57411)
(-7.24069e-20 -2.48785 1.05836)
(-6.00004e-16 -2.4396 0.384163)
(-1.40829e-15 -0.0894617 -0.894189)
(-8.06493e-16 2.69273 -1.34378)
(-1.97592e-16 3.53965 -1.29066)
(1.59982e-16 3.32892 -1.17795)
(2.41418e-16 2.61962 -1.168)
(1.99812e-16 1.68835 -1.19938)
(1.415e-16 0.768391 -1.24218)
(9.35179e-17 0.43488 -1.18916)
(6.12892e-17 -0.013186 -1.10297)
(-1.17462e-16 4.51114 7.65708)
(-4.7628e-16 15.6245 27.7292)
(-3.14021e-16 19.0108 32.0404)
(-3.48769e-16 17.9986 29.6975)
(-3.85949e-16 16.4143 26.2387)
(-6.23821e-16 15.0737 23.3603)
(-7.42679e-16 13.9744 21.1102)
(-7.25956e-16 13.1834 19.473)
(-7.78504e-16 12.4981 18.0739)
(-8.88033e-16 11.8125 16.7592)
(-1.01448e-15 11.0943 15.463)
(-1.15245e-15 10.3399 14.1695)
(-1.32418e-15 9.54598 12.8843)
(-1.54503e-15 8.71904 11.604)
(-1.77004e-15 7.84332 10.321)
(-2.00316e-15 6.91818 9.01113)
(-2.31317e-15 5.89024 7.63429)
(-2.85756e-15 4.76319 6.12847)
(-3.6428e-15 3.30423 4.30447)
(-7.85392e-15 1.5536 1.8891)
(1.88263e-16 2.55574 1.3971)
(1.76743e-16 13.7046 24.627)
(1.01267e-16 17.616 30.8555)
(5.14637e-17 16.4517 28.7466)
(6.81415e-17 14.7946 25.5763)
(1.90038e-16 13.477 23.0576)
(5.56362e-17 12.5606 21.2025)
(1.76868e-17 11.8171 19.6402)
(-9.91418e-17 11.1134 18.192)
(-1.83496e-16 10.3962 16.749)
(-2.60668e-16 9.63669 15.2885)
(-3.57427e-16 8.84101 13.8099)
(-4.8025e-16 8.00609 12.3245)
(-6.34477e-16 7.14191 10.8258)
(-8.26067e-16 6.22192 9.30859)
(-1.03596e-15 5.25887 7.7214)
(-1.2549e-15 4.14678 6.02635)
(-1.8127e-15 2.9616 4.034)
(-2.48019e-15 1.06105 1.46117)
(-1.21151e-14 -0.418938 -2.24775)
(3.13859e-16 4.95544 7.50307)
(6.33068e-16 12.9704 23.8304)
(2.49562e-16 17.986 32.6643)
(2.79322e-16 17.6064 31.5703)
(2.7657e-16 16.0173 28.3235)
(8.69014e-16 14.6773 25.5109)
(4.54932e-16 13.6678 23.3522)
(4.65879e-16 12.8311 21.5168)
(4.01136e-16 12.0259 19.797)
(3.91132e-16 11.1882 18.0756)
(2.96034e-16 10.2982 16.3282)
(2.36183e-16 9.36165 14.564)
(1.81073e-16 8.38307 12.7991)
(1.38578e-16 7.37188 11.0337)
(4.31811e-17 6.30725 9.26261)
(-5.97234e-17 5.19628 7.43609)
(-1.18769e-16 3.94469 5.51613)
(-3.09311e-16 2.6022 3.27649)
(-4.43155e-16 0.545301 0.56469)
(-1.01209e-14 -1.03835 -3.30471)
(3.17195e-17 -2.75101 -5.10249)
(-6.04291e-17 12.2174 20.0941)
(-3.46384e-17 19.3349 32.6261)
(-2.70658e-17 19.6681 33.198)
(-4.7401e-17 18.0311 30.1679)
(9.49221e-16 16.5315 27.2571)
(6.37951e-16 15.4006 24.9955)
(6.68405e-16 14.4409 23.0187)
(5.75395e-16 13.4725 21.0772)
(5.79521e-16 12.4407 19.081)
(5.29203e-16 11.3388 17.0304)
(5.8857e-16 10.1768 14.9456)
(5.39697e-16 8.95844 12.8467)
(5.95915e-16 7.68971 10.7349)
(6.30915e-16 6.34699 8.60607)
(6.03316e-16 4.93491 6.40136)
(6.88942e-16 3.35652 4.08963)
(7.38267e-16 1.59519 1.24952)
(5.74279e-16 -1.08334 -2.1758)
(-4.43553e-15 -1.78694 -5.12325)
(1.35699e-18 4.89486 7.95406)
(-4.1886e-18 16.103 24.136)
(-5.794e-18 21.1437 32.3898)
(-6.04476e-18 21.1462 32.7455)
(-2.85267e-18 19.5503 30.3446)
(-8.0035e-17 18.1777 27.9667)
(-5.59711e-17 17.0215 25.9532)
(-4.78712e-17 15.9176 23.96)
(-3.5723e-17 14.7139 21.8663)
(-2.79116e-17 13.4212 19.6527)
(-1.07444e-17 12.0394 17.3541)
(5.93911e-18 10.5799 14.9852)
(2.81032e-17 9.03614 12.5639)
(5.61212e-17 7.41143 10.1002)
(9.64429e-17 5.68916 7.60221)
(1.32415e-16 3.8831 5.04238)
(2.29927e-16 1.99005 2.5722)
(2.00018e-16 0.0935366 -0.344114)
(6.06087e-16 -2.45583 -3.4068)
(-2.71869e-15 -2.76429 -6.95816)
(-4.84391e-19 12.023 20.6382)
(2.06013e-18 20.9144 32.8648)
(3.2764e-18 20.6746 32.9228)
(3.1585e-18 18.9623 30.3981)
(3.78938e-18 17.4886 28.6954)
(5.58127e-18 16.4789 27.1825)
(-1.04158e-18 15.1871 25.4313)
(-4.02591e-18 13.7427 23.2635)
(-5.58626e-18 12.0811 20.8934)
(-7.78598e-18 10.3451 18.3625)
(-9.15757e-18 8.50492 15.7152)
(8.44064e-19 6.60394 12.9247)
(2.94971e-17 4.62684 10.0062)
(6.13737e-17 2.62065 7.00415)
(5.61793e-17 0.614569 3.92506)
(6.28403e-17 -1.3513 0.909118)
(4.00834e-16 -2.68845 -1.23408)
(5.9148e-16 -3.50193 -2.85685)
(-1.00919e-15 -4.99406 -5.41647)
(-3.20034e-15 -3.13066 -5.03376)
(1.23567e-19 14.9415 26.5647)
(-6.42166e-19 19.4653 32.7376)
(-1.03078e-18 16.159 28.7662)
(-9.81294e-19 14.9498 26.7684)
(-1.46275e-18 13.8892 26.0191)
(9.26098e-19 12.8181 24.5722)
(3.46816e-18 11.1758 22.6043)
(5.20287e-18 9.45306 20.2312)
(7.26816e-18 7.57785 17.7805)
(8.30221e-18 5.7029 15.2417)
(1.25135e-17 3.74991 12.6397)
(3.23553e-17 1.77668 9.96068)
(6.5532e-17 -0.175559 7.27732)
(7.28604e-17 -1.95044 4.73901)
(-2.62075e-17 -3.29503 2.65267)
(-4.15216e-16 -3.96811 1.25287)
(-1.26572e-15 -3.78454 0.663573)
(-2.2066e-15 -2.20493 1.62968)
(-2.33519e-15 0.942289 4.79202)
(-9.60167e-16 2.90975 6.89437)
(-2.27033e-20 13.2847 23.8382)
(2.04817e-19 16.4562 29.0807)
(3.00736e-19 14.1568 26.0328)
(3.17541e-19 13.0428 24.0192)
(7.99298e-20 11.699 22.6825)
(-1.05581e-18 10.4644 20.9874)
(-1.33143e-18 8.85084 19.0585)
(-5.81933e-20 7.22048 16.7762)
(1.95768e-18 5.45603 14.3537)
(7.2837e-19 3.70611 11.8041)
(-1.07744e-17 1.97859 9.26633)
(-4.3483e-17 0.437568 6.92106)
(-1.36278e-16 -0.727967 5.08029)
(-3.84574e-16 -1.22393 4.14533)
(-8.43185e-16 -0.728114 4.59247)
(-1.30884e-15 1.04368 6.88754)
(-1.34512e-15 4.07898 10.9961)
(-7.39927e-16 7.63211 15.6122)
(1.16384e-16 10.0754 17.9857)
(4.03565e-16 7.31908 13.9239)
(2.95907e-21 11.4872 20.3814)
(-5.51765e-20 16.9756 29.3303)
(-7.56876e-20 14.966 26.2577)
(-7.86643e-20 13.4409 22.7349)
(6.04135e-21 11.9617 20.8099)
(2.73319e-19 11.1306 18.9521)
(3.41981e-19 10.0097 17.3235)
(7.79693e-19 9.07468 15.4732)
(2.68141e-18 8.04356 13.6119)
(5.14827e-18 7.14862 11.7132)
(-8.51867e-19 6.3324 9.91839)
(-4.15381e-17 5.72067 8.36526)
(-1.47617e-16 5.39259 7.28693)
(-3.25488e-16 5.48385 6.98305)
(-4.82282e-16 6.15412 7.72236)
(-4.79013e-16 7.28128 9.51338)
(-2.09143e-16 8.72463 11.9804)
(2.18866e-16 9.65612 14.3643)
(4.49607e-16 9.72092 14.9846)
(1.71123e-16 6.79399 11.8833)
(-5.93487e-22 11.2801 19.9441)
(1.3799e-20 17.9532 30.3447)
(1.81911e-20 15.8748 27.7033)
(1.91872e-20 14.437 23.9627)
(1.75321e-22 12.9775 21.9916)
(-6.2668e-20 12.3437 20.1744)
(-8.2392e-20 11.4921 18.726)
(-1.69305e-19 10.8576 17.2387)
(-4.89657e-19 10.2068 15.8412)
(-7.8917e-19 9.63158 14.4646)
(1.31526e-19 9.08927 13.0864)
(3.75371e-18 8.55507 11.6741)
(9.3091e-18 8.02754 10.2461)
(1.05406e-17 7.52428 8.93187)
(4.00899e-18 7.13385 7.96808)
(5.49609e-18 6.91901 7.63135)
(4.51464e-17 6.89187 7.9854)
(1.13739e-16 6.82353 8.68475)
(1.11998e-16 6.19677 8.79863)
(-4.77886e-18 3.92386 5.85382)
(1.52828e-22 11.9135 20.9677)
(-3.24953e-21 18.736 31.0739)
(-4.30214e-21 16.3609 28.3998)
(-4.67245e-21 15.0711 24.7381)
(-1.02383e-21 13.6198 22.9342)
(1.35195e-20 13.0241 21.139)
(2.18101e-20 12.1313 19.6597)
(4.05864e-20 11.4129 18.0994)
(7.36919e-20 10.6529 16.6296)
(9.12591e-21 9.93724 15.2117)
(-3.15994e-19 9.24962 13.8602)
(-6.40417e-19 8.58853 12.5679)
(6.54361e-20 7.94695 11.3134)
(3.52619e-18 7.313 10.0714)
(1.05716e-17 6.65818 8.8378)
(1.98586e-17 5.99515 7.64413)
(2.59163e-17 5.26126 6.58657)
(1.78494e-17 4.51391 5.58348)
(-1.35163e-17 3.21841 4.35455)
(-4.12372e-17 1.17103 0.611385)
(-4.3837e-23 13.1836 23.4298)
(7.39446e-22 19.5321 31.8005)
(1.00712e-21 16.4762 28.7886)
(1.12397e-21 15.6237 25.3321)
(4.40968e-22 14.0877 23.7998)
(-2.76229e-21 13.612 21.9532)
(-5.31652e-21 12.6317 20.4961)
(-9.90106e-21 11.9333 18.8801)
(-1.45624e-20 11.1385 17.3722)
(9.98099e-21 10.395 15.8579)
(9.82877e-20 9.64153 14.3639)
(1.72569e-19 8.8755 12.8767)
(-2.93776e-20 8.07826 11.3956)
(-8.89485e-19 7.24157 9.90841)
(-2.67946e-18 6.33123 8.40983)
(-5.51061e-18 5.3678 6.86008)
(-9.34414e-18 4.23262 5.24911)
(-1.4333e-17 3.03101 3.383)
(-1.87426e-17 1.03184 1.04442)
(-3.2652e-17 -0.419424 -2.57532)
(1.23644e-23 14.8273 26.9094)
(-1.65902e-22 20.1091 32.1477)
(-2.34035e-22 16.3946 29.1769)
(-2.67036e-22 16.3047 26.1323)
(-1.45435e-22 14.5835 24.8963)
(5.37765e-22 14.3362 22.9779)
(1.18151e-21 13.264 21.609)
(2.14353e-21 12.6988 20.0056)
(3.16395e-21 11.9415 18.574)
(-8.49676e-22 11.2783 17.0673)
(-1.70116e-20 10.5372 15.5074)
(-3.53031e-20 9.70549 13.8124)
(-1.39018e-20 8.72631 11.9702)
(1.12069e-19 7.60186 9.98843)
(3.99998e-19 6.32783 7.91752)
(8.91878e-19 4.9641 5.76129)
(1.68503e-18 3.38767 3.54366)
(2.88294e-18 1.77628 1.01552)
(4.91029e-18 -0.723984 -1.71156)
(-1.56726e-17 -1.90885 -5.46952)
(-3.30717e-24 16.1908 30.3102)
(3.85123e-23 19.9981 31.6442)
(5.5412e-23 16.0442 29.5363)
(6.42444e-23 16.7249 26.9107)
(4.16496e-23 14.6581 25.9496)
(-1.10966e-22 14.6991 24.0056)
(-2.73072e-22 13.4595 22.8546)
(-4.78278e-22 13.0975 21.3524)
(-6.83142e-22 12.3233 20.1137)
(-4.01055e-23 11.7287 18.6514)
(2.71452e-21 10.8619 16.9752)
(6.1137e-21 9.75279 14.8703)
(3.1626e-21 8.32699 12.4172)
(-1.6335e-20 6.72526 9.78922)
(-5.91636e-20 5.01786 7.10607)
(-1.41068e-19 3.23531 4.33136)
(-2.88455e-19 1.27313 1.56193)
(-3.52993e-19 -0.567185 -1.82408)
(5.14734e-18 -3.0801 -4.38988)
(-4.79749e-18 -3.33839 -8.12647)
(8.692e-25 16.5378 31.8348)
(-9.78306e-24 19.0332 30.1637)
(-1.37717e-23 15.3659 29.2892)
(-1.57715e-23 16.2395 26.8165)
(-9.96932e-24 13.9187 25.972)
(2.59051e-23 13.964 24.0928)
(5.50047e-23 12.551 23.1067)
(8.21586e-23 12.176 21.7348)
(1.58058e-22 11.2251 20.6394)
(3.27191e-22 10.4593 19.1208)
(4.31662e-22 9.15567 17.0923)
(-8.84326e-22 7.48792 14.2721)
(-6.68534e-21 5.54271 11.1206)
(-1.4231e-20 3.7342 8.14573)
(-1.29014e-20 2.0119 5.22936)
(-1.04281e-19 0.228813 2.28959)
(-4.34378e-19 -1.00169 0.291759)
(2.41177e-19 -2.36526 -2.25545)
(3.18711e-18 -4.96763 -5.96421)
(2.49345e-18 -3.6119 -6.4731)
(-1.92867e-25 15.8404 31.0441)
(2.61605e-24 18.2177 28.7644)
(3.71633e-24 14.5949 28.2002)
(4.54265e-24 15.3471 25.6661)
(2.01546e-24 13.0593 24.7613)
(-1.23796e-23 12.8344 22.9388)
(-3.70943e-23 11.4619 21.8479)
(-6.69104e-23 10.7991 20.514)
(7.75696e-25 9.76074 19.3342)
(4.84121e-22 8.72589 17.7887)
(1.27708e-21 7.27531 15.6965)
(-4.63226e-22 5.5812 13.0204)
(-1.07983e-20 3.92673 10.3228)
(-3.07335e-20 2.56587 7.95757)
(-3.57583e-20 1.22574 5.48936)
(8.97019e-20 -0.420386 2.35478)
(6.37157e-19 -2.11936 -0.985281)
(1.80723e-18 -2.7939 -2.74224)
(3.12937e-18 -1.96336 -1.49147)
(2.21884e-18 0.788941 2.89974)
(5.60509e-26 14.9628 30.2025)
(-7.33647e-25 18.0659 27.6971)
(-9.79032e-25 13.8711 27.2189)
(-8.71666e-25 14.9468 24.5084)
(-1.03795e-26 12.6129 23.5632)
(8.88839e-25 12.3875 21.6547)
(-5.132e-24 11.0919 20.4023)
(-2.07737e-23 10.3974 18.9414)
(-1.03694e-23 9.45001 17.6497)
(1.74513e-22 8.58053 16.2219)
(6.519e-22 7.5779 14.6183)
(5.65731e-22 6.56816 12.8144)
(-2.69243e-21 5.66238 11.0315)
(-9.96939e-21 4.9307 9.40943)
(-1.2088e-20 4.27246 7.8295)
(1.07945e-20 3.67756 6.18562)
(6.62761e-20 3.01056 4.46124)
(2.13882e-19 2.85728 3.45613)
(1.79463e-18 1.07048 0.521277)
(4.43748e-19 2.78049 4.32303)
(-2.6179e-27 13.9602 30.2886)
(1.81395e-25 18.0963 27.218)
(2.69208e-25 13.2435 27.1321)
(5.67834e-25 14.3493 24.6125)
(5.86897e-25 12.1989 23.6358)
(-1.28562e-24 11.8163 21.9256)
(-7.67392e-24 10.7058 20.6449)
(-2.28764e-23 10.0194 19.2489)
(-4.67532e-23 9.23909 17.9815)
(-5.25867e-23 8.58125 16.7256)
(6.51302e-23 7.94728 15.4983)
(5.22561e-22 7.36687 14.2349)
(1.42299e-21 6.80824 12.9068)
(2.03052e-21 6.26334 11.5122)
(-5.66909e-23 5.69976 10.0253)
(-8.61261e-21 4.96884 8.17692)
(-2.35951e-20 3.68315 5.47625)
(-8.56986e-20 1.89754 1.85727)
(2.25928e-19 0.148342 -1.04053)
(2.87174e-19 -0.681522 -3.22301)
(3.43511e-27 11.1843 28.5912)
(-8.74039e-26 17.1374 25.036)
(-1.1244e-25 12.0779 25.4224)
(1.35414e-25 12.7826 23.6784)
(7.1071e-25 11.0579 22.9112)
(6.24231e-25 10.4298 21.7955)
(-2.85649e-24 9.47153 20.8562)
(-1.47351e-23 8.74299 19.8882)
(-4.11222e-23 8.02763 18.97)
(-7.5023e-23 7.40271 18.0694)
(-5.57861e-23 6.82518 17.1799)
(1.60716e-22 6.28883 16.2659)
(6.83629e-22 5.77229 15.2954)
(1.24261e-21 5.26062 14.2315)
(1.01079e-21 4.70511 12.9782)
(-6.55051e-22 3.93438 11.2433)
(-2.62912e-21 2.61848 8.38265)
(1.05716e-21 0.462795 3.72144)
(3.03689e-20 -2.06997 -1.85459)
(1.23414e-19 -2.35649 -4.57619)
(4.30519e-27 2.62624 17.0777)
(1.66936e-26 8.04323 13.7242)
(2.42848e-26 5.17743 14.5744)
(7.18569e-26 4.97602 14.1922)
(1.0932e-25 4.05478 14.159)
(-2.05853e-25 3.48849 13.9949)
(-1.51693e-24 2.9152 13.8475)
(-4.35679e-24 2.44599 13.6664)
(-9.03072e-24 2.03667 13.4619)
(-1.68401e-23 1.69652 13.2268)
(-2.9874e-23 1.42136 12.9631)
(-3.97624e-23 1.2155 12.6739)
(-1.90514e-24 1.08186 12.3633)
(1.69193e-22 1.03179 12.0314)
(5.11508e-22 1.08183 11.6752)
(8.50806e-22 1.2004 11.312)
(8.08423e-22 1.42295 10.8829)
(2.03382e-22 2.068 10.02)
(-5.47352e-22 2.35276 8.59749)
(-6.29219e-22 -0.203379 6.43004)
(-4.11166e-27 -2.62632 17.0779)
(-1.6225e-26 -8.04323 13.7243)
(-2.3287e-26 -5.17742 14.5745)
(-6.78206e-26 -4.97596 14.1924)
(-1.01361e-25 -4.05467 14.1592)
(2.14758e-25 -3.48834 13.9952)
(1.5252e-24 -2.91499 13.8478)
(4.3683e-24 -2.4457 13.6667)
(8.9892e-24 -2.03631 13.4622)
(1.63567e-23 -1.6961 13.2271)
(2.78638e-23 -1.42088 12.9635)
(3.51065e-23 -1.215 12.6743)
(-2.65149e-24 -1.08135 12.3638)
(-1.59045e-22 -1.03127 12.0319)
(-4.52741e-22 -1.08131 11.6758)
(-6.9525e-22 -1.19993 11.3128)
(-5.29159e-22 -1.42274 10.884)
(1.31599e-22 -2.06846 10.0214)
(7.51742e-22 -2.35377 8.59879)
(6.28407e-22 0.203008 6.43123)
(-3.80434e-27 -11.1846 28.5918)
(8.41986e-26 -17.1377 25.0367)
(1.12188e-25 -12.0782 25.4232)
(-1.3313e-25 -12.7829 23.6792)
(-7.05521e-25 -11.0582 22.9121)
(-5.744e-25 -10.4302 21.7964)
(3.03255e-24 -9.47191 20.8572)
(1.48621e-23 -8.7434 19.8892)
(3.98814e-23 -8.02807 18.971)
(6.96825e-23 -7.40314 18.0703)
(4.70682e-23 -6.82555 17.1807)
(-1.55283e-22 -6.28912 16.2665)
(-6.20016e-22 -5.77254 15.2959)
(-1.08206e-21 -5.26087 14.2321)
(-8.48594e-22 -4.70512 12.9787)
(3.103e-22 -3.93337 11.2424)
(5.15904e-22 -2.61532 8.37786)
(-6.48189e-21 -0.45735 3.71274)
(-3.76295e-20 2.07478 -1.86108)
(-1.23732e-19 2.35614 -4.57567)
(3.00445e-27 -13.9604 30.2894)
(-1.7504e-25 -18.097 27.2184)
(-2.63988e-25 -13.2439 27.1327)
(-5.65715e-25 -14.3503 24.6128)
(-5.38879e-25 -12.1999 23.636)
(1.46221e-24 -11.8177 21.9256)
(7.95724e-24 -10.7073 20.6447)
(2.27505e-23 -10.0213 19.2484)
(4.4807e-23 -9.24132 17.9809)
(4.78742e-23 -8.58398 16.7248)
(-6.6988e-23 -7.95062 15.4977)
(-4.96044e-22 -7.37082 14.2347)
(-1.30662e-21 -6.81276 12.907)
(-1.7427e-21 -6.2684 11.5132)
(4.78242e-22 -5.70515 10.0267)
(8.63478e-21 -4.9733 8.17726)
(2.179e-20 -3.68669 5.47509)
(7.91457e-20 -1.897 1.85417)
(-2.1662e-19 -0.145221 -1.04046)