/*--------------------------------*- C++ -*----------------------------------*\
| =========                 |                                                 |
| \\      /  F ield         | OpenFOAM: The Open Source CFD Toolbox           |
|  \\    /   O peration     | Version:  4.1                                   |
|   \\  /    A nd           | Web:      www.OpenFOAM.org                      |
|    \\/     M anipulation  |                                                 |
\*---------------------------------------------------------------------------*/
FoamFile
{
    version     2.0;
    format      ascii;
    class       volScalarField;
    location    "4";
    object      p;
}
// * * * * * * * * * * * * * * * * * * * * * * * * * * * * * * * * * * * * * //

dimensions      [0 2 -2 0 0 0 0];

internalField   nonuniform List<scalar> 
1280
(
0.234136
-0.203465
0.00915045
0.469386
0.796422
0.938507
1.02583
1.3504
1.38502
1.55286
1.66327
1.7454
1.6455
1.50577
1.15459
-0.737025
-1.7385
-2.62007
-5.13949
-12.28
-5.90203
7.91804
19.5683
18.3124
16.657
18.6302
-5.20281
1.25951
0.631321
1.71902
2.32608
2.71098
3.28021
3.857
4.48832
5.06792
5.90837
6.25533
7.64955
6.66451
-20.8471
-12.3562
-6.03092
-1.7376
5.15268
5.80201
6.11304
5.98327
7.87889
7.83749
7.83613
7.84042
5.74069
5.86415
5.57298
4.95205
-1.9287
-6.18474
-12.4913
-21.1893
6.57414
7.57695
6.17355
5.83715
5.00106
4.42821
3.80179
3.2293
2.66329
2.27944
1.67431
0.589344
1.20973
-5.28121
18.7154
16.766
18.429
19.6776
8.04509
-5.75925
-12.1272
-4.95431
-2.39593
-1.52953
-0.55683
1.33001
1.67549
1.80348
1.89253
1.79916
1.67502
1.49648
1.45804
1.11108
1.00864
0.861938
0.526251
0.0321107
-0.201385
0.24209
0.0138137
0.338932
0.357126
0.531814
0.632864
0.53669
-0.173173
-1.09792
-1.04916
-4.42628
-2.38498
0.195573
2.28515
3.14008
2.47247
0.75518
-0.117136
0.0733762
0.228276
-0.145003
0.473655
0.274997
0.292189
0.0712944
-0.205413
-0.419436
-0.508637
-0.903957
-5.09366
-1.07326
3.42446
7.2072
8.27335
5.98723
2.26251
0.0484589
0.347312
0.754605
-0.204258
0.807923
0.595344
0.764679
0.628288
0.335321
-0.296851
-1.6813
-2.91509
-6.33108
-0.805396
5.08795
9.70473
10.9008
7.67501
2.80042
0.0435462
0.306645
1.17538
-0.298775
0.873638
0.600737
0.799985
0.725228
0.612148
0.052849
-2.49362
-6.12293
-8.7989
-1.54402
6.66051
12.4899
13.9826
9.40769
3.11646
-0.306564
0.32182
2.20779
-0.293431
0.924015
0.755827
1.13101
1.25772
1.33859
0.695026
-3.06018
-9.13443
-10.0653
-1.96796
8.7378
15.7477
17.3041
10.7082
2.91713
-0.813463
-0.188217
2.86366
-0.20371
0.89049
0.880039
1.4132
1.72297
1.9908
1.40697
-2.76756
-10.5046
-9.795
-2.12931
10.8929
19.1151
20.2703
10.8601
0.135319
-3.19867
0.544937
5.38737
-0.0471626
0.917908
1.11808
1.78783
2.22884
2.58545
2.05008
-1.81958
-9.63447
-8.53408
-1.65941
13.1288
22.0726
21.5458
10.5599
-1.83449
-5.96785
-2.57585
6.84468
0.0835554
0.984348
1.3442
2.07875
2.5649
2.90743
2.3937
-0.790976
-7.47421
-7.2747
-0.338445
15.1999
25.3156
21.5705
10.3502
-2.75447
-5.68903
5.79722
8.4868
0.153779
1.0829
1.52951
2.25872
2.70567
2.95769
2.43827
-0.0596278
-5.17734
-5.91202
0.778485
16.2433
26.1599
21.2399
12.7141
0.70711
-1.55036
18.8696
21.4786
0.166685
1.15536
1.62861
2.34578
2.76195
2.98234
2.51666
0.404466
-3.79813
-4.49676
2.27674
16.5583
24.4092
19.7939
11.9423
2.01125
5.04931
33.1358
21.4262
0.157093
1.15163
1.62061
2.34004
2.75539
2.97943
2.51907
0.393193
-3.84784
-4.51348
2.25832
16.5374
24.24
19.7209
11.917
1.88372
4.8819
33.1008
21.4998
0.139802
1.09262
1.51543
2.2263
2.65152
2.9075
2.4219
-0.0700304
-5.258
-5.89061
0.855075
16.6978
26.5943
21.5047
12.3422
-0.301016
-2.35943
18.5861
21.5215
0.0648958
0.996487
1.32791
2.04181
2.49737
2.82544
2.32361
-0.887061
-7.66411
-7.35497
-0.260549
15.7483
26.4479
22.0325
10.2787
-4.65873
-7.43802
5.38427
9.05964
-0.0635908
0.935283
1.10828
1.75557
2.15683
2.47855
1.92542
-1.96313
-9.7313
-8.66665
-1.35369
13.7586
23.2812
22.1719
10.0673
-4.32709
-7.95716
-3.0045
7.23272
-0.216113
0.907893
0.875855
1.39035
1.66173
1.88621
1.26241
-2.91258
-10.4486
-9.96121
-1.83501
11.4402
20.0568
21.1003
10.0892
-1.93251
-4.89824
0.226261
5.56659
-0.301021
0.938829
0.755365
1.11777
1.21291
1.25158
0.555958
-3.18955
-8.9529
-10.0945
-1.63269
9.24263
16.6487
18.2428
10.2843
1.78463
-1.6674
-0.420609
2.89799
-0.302377
0.884441
0.601719
0.793579
0.695776
0.54744
-0.0681679
-2.63631
-5.99034
-8.76343
-1.24394
7.09849
13.2567
14.6891
9.18162
2.48832
-0.876134
0.136607
2.16728
-0.205765
0.814913
0.595988
0.761179
0.609537
0.290561
-0.397308
-1.86285
-2.98754
-6.30521
-0.562475
5.45871
10.3133
11.4113
7.58026
2.43766
-0.236821
0.204336
1.15739
-0.145662
0.477234
0.275403
0.292091
0.0660734
-0.220016
-0.47592
-0.706763
-1.2267
-5.12694
-0.884037
3.73931
7.69796
8.65138
5.94834
2.05985
-0.108831
0.264096
0.731456
0.0139359
0.340824
0.35776
0.531798
0.630076
0.525101
-0.220664
-1.1864
-1.33352
-4.46495
-2.26858
0.368274
2.56833
3.36362
2.50702
0.705897
-0.164827
0.0355143
0.219679
105.604
104.483
103.476
102.028
100.806
99.1076
97.897
96.1898
94.5135
92.9398
91.5246
90.1676
88.8991
87.7071
86.5859
85.537
84.5835
83.6714
83.0106
82.1185
78.0112
78.5249
78.5783
78.8343
79.4532
79.5872
79.9814
79.9964
80.1096
80.0801
80.0639
80.0125
79.9523
79.8898
79.8176
79.7605
79.6908
79.6504
79.5994
79.5624
83.3173
83.3323
83.504
83.3524
83.5007
83.3484
83.3843
83.3187
83.2832
83.2369
83.189
83.1477
83.1046
83.0762
83.0417
83.0384
83.0085
83.0456
83.0102
83.0763
73.1894
73.7662
74.1182
74.4154
74.8418
75.0755
75.4294
75.7118
76.0171
76.3133
76.6062
76.9016
77.1893
77.4865
77.7636
78.0725
78.3198
78.6648
78.8336
79.2536
67.3859
68.0446
68.3782
68.6969
69.1508
69.4432
69.8633
70.2259
70.6163
71.0071
71.3983
71.7971
72.19
72.5964
72.9786
73.4015
73.7436
74.213
74.4457
75.0177
57.707
58.5482
59.0325
59.3595
60.0244
60.3823
60.9839
61.4604
62.0042
62.5361
63.0752
63.6237
64.1663
64.7248
65.2543
65.8298
66.3073
66.9332
67.2667
68.0197
48.83
49.6125
50.2601
50.4391
51.2682
51.5226
52.2323
52.6646
53.2572
53.7973
54.3668
54.9474
55.528
56.132
56.7096
57.3416
57.8729
58.5645
58.9492
59.7648
40.3901
41.0136
41.7581
41.7691
42.6846
42.7423
43.5125
43.7844
44.3677
44.8119
45.3328
45.8551
46.3889
46.956
47.5025
48.1162
48.6321
49.3216
49.7059
50.5241
34.0403
34.3852
35.0994
34.9154
35.81
35.6067
36.3573
36.3861
36.8919
37.1427
37.5333
37.8953
38.2803
38.703
39.1039
39.5873
39.9662
40.5472
40.8055
41.6014
29.66
29.8283
30.5359
30.2097
31.1551
30.7766
31.5494
31.4364
31.9034
32.026
32.3201
32.5452
32.7873
33.0512
33.277
33.5813
33.7688
34.1571
34.251
34.8129
25.0994
25.4409
26.4168
26.0748
27.3856
27.0598
28.0835
28.1216
28.7549
29.0285
29.4425
29.7671
30.0767
30.3731
30.6035
30.8657
30.9977
31.2563
31.2648
31.5757
15.57
16.4412
18.1775
17.935
20.0725
20.0619
21.688
22.241
23.3747
24.1963
25.1014
25.934
26.7184
27.4618
28.1132
28.7308
29.1878
29.659
29.8369
30.2018
-4.6409
-3.4964
-0.580048
-0.823657
2.42598
2.77371
5.23472
6.45747
8.33478
9.95053
11.6454
13.3186
14.9592
16.5802
18.1294
19.6488
21.0123
22.3468
23.3177
24.5935
-36.0674
-36.3518
-32.9169
-34.1181
-30.6779
-31.0273
-28.5908
-27.7685
-26.0105
-24.5876
-22.9915
-21.3794
-19.7022
-17.9095
-16.0211
-13.9144
-11.6763
-8.95526
-6.62081
-3.3815
-53.3978
-57.0543
-55.0957
-58.6472
-57.2458
-60.0403
-59.8519
-61.6079
-62.2322
-63.3704
-64.1134
-64.6419
-64.5666
-63.8414
-62.6933
-61.3055
-59.8041
-57.8232
-56.1254
-52.3829
-21.6274
-27.6503
-27.0844
-32.8975
-33.203
-37.7624
-39.5303
-43.0637
-45.6837
-48.8886
-51.8506
-54.7975
-57.285
-59.2469
-60.6921
-61.9796
-63.0554
-63.6345
-64.6621
-63.3747
36.4586
31.0177
33.1063
26.0092
26.108
21.3261
19.3512
16.0379
13.543
10.8982
8.60158
6.53318
4.8013
3.24559
1.73687
0.182127
-1.39193
-3.2411
-6.71004
-10.297
29.1587
23.0872
32.16
26.0101
29.0723
26.6294
26.4192
24.8573
23.6351
22.1153
20.6863
19.3836
18.395
17.7308
17.338
17.1595
17.0843
16.9952
16.9284
16.8801
26.4561
4.74829
13.1707
2.63495
0.279969
-5.95517
-10.5674
-15.5579
-19.9293
-23.8997
-27.2127
-29.7683
-31.4241
-32.0956
-31.6354
-30.133
-27.9027
-24.1759
-19.2051
-16.1593
712.978
630.38
581.415
525.401
476.653
429.683
386.072
344.931
306.239
269.683
235.063
202.168
170.807
140.9
112.421
84.6511
57.6326
34.5426
9.15294
-24.7304
712.929
630.329
581.363
525.349
476.6
429.63
386.02
344.88
306.19
269.636
235.019
202.128
170.771
140.868
112.393
84.6269
57.6112
34.5258
9.1435
-24.7473
26.3751
4.66615
13.0862
2.54931
0.192216
-6.04451
-10.6588
-15.6514
-20.0253
-23.9987
-27.3153
-29.8753
-31.5365
-32.2147
-31.763
-30.2698
-28.0475
-24.3341
-19.3776
-16.3272
29.0558
22.9909
32.0656
25.9199
28.9848
26.5452
26.3377
24.7788
23.5595
22.043
20.6176
19.3191
18.3347
17.6745
17.2865
17.1139
17.0436
16.9586
16.9005
16.8753
36.5612
31.1291
33.2246
26.1358
26.244
21.4712
19.5064
16.2031
13.7184
11.084
8.79763
6.73903
5.01524
3.46641
1.9641
0.414137
-1.15493
-2.99775
-6.45771
-10.0422
-21.4988
-27.5256
-26.9603
-32.7751
-33.0818
-37.6414
-39.4096
-42.9423
-45.5611
-48.7635
-51.7214
-54.6621
-57.1418
-59.0961
-60.5373
-61.8247
-62.9027
-63.4838
-64.5133
-63.2386
-53.3902
-57.0549
-55.1012
-58.6559
-57.262
-60.0601
-59.8783
-61.6404
-62.2715
-63.4173
-64.1676
-64.7033
-64.635
-63.9201
-62.7869
-61.4149
-59.9256
-57.9531
-56.2602
-52.5234
-36.1761
-36.4677
-33.0351
-34.242
-30.8073
-31.1637
-28.7341
-27.9208
-26.1715
-24.759
-23.1732
-21.5717
-19.9037
-18.1179
-16.233
-14.1257
-11.884
-9.15601
-6.81803
-3.57277
-4.73318
-3.58793
-0.669506
-0.913947
2.33698
2.68484
5.14663
6.37033
8.24891
9.86652
11.5637
13.24
14.8843
16.5097
18.0638
19.5885
20.9571
22.2969
23.2724
24.5555
15.527
16.4021
18.1405
17.8993
20.0393
20.0311
21.6593
22.2154
23.3515
24.1763
25.0843
25.9201
26.7075
27.4539
28.1079
28.7278
29.1868
29.6597
29.8389
30.2052
25.0896
25.4342
26.411
26.0703
27.3827
27.0587
28.0837
28.124
28.7585
29.034
29.4494
29.7756
30.0865
30.384
30.6154
30.8784
31.0111
31.27
31.279
31.5898
29.6656
29.835
30.5425
30.2169
31.1628
30.7851
31.5581
31.446
31.9132
32.0365
32.3309
32.5563
32.7986
33.0625
33.2884
33.5926
33.78
34.168
34.2617
34.8232
34.0487
34.3937
35.1073
34.9234
35.8178
35.6145
36.3649
36.3938
36.8993
37.1502
37.5406
37.9025
38.2875
38.71
39.1109
39.5942
39.9731
40.5541
40.8122
41.6084
40.3991
41.0227
41.7669
41.778
42.6934
42.7511
43.5212
43.7932
44.3763
44.8205
45.3414
45.8638
46.3976
46.9649
47.5116
48.1256
48.6419
49.3319
49.7164
50.5352
48.8452
49.6282
50.2758
50.4551
51.2844
51.5388
52.2486
52.681
53.2735
53.8137
54.3833
54.964
55.5447
56.149
56.7269
57.3592
57.8908
58.5828
58.9678
59.7837
57.7266
58.5683
59.0528
59.3802
60.0454
60.4034
61.0052
61.4818
62.0257
62.5576
63.0969
63.6455
64.1882
64.7469
65.2765
65.8523
66.3299
66.956
67.2895
68.043
67.408
68.0669
68.4006
68.7194
69.1736
69.466
69.8862
70.2488
70.6391
71.03
71.4211
71.8199
72.2127
72.6191
73.0012
73.4241
73.7662
74.2355
74.468
75.04
73.2056
73.7827
74.1345
74.432
74.8584
75.0923
75.4463
75.7288
76.0341
76.3302
76.6231
76.9185
77.2062
77.5034
77.7804
78.0893
78.3366
78.6814
78.85
79.27
83.3325
83.3482
83.5195
83.369
83.517
83.3651
83.4008
83.3352
83.2996
83.2533
83.2053
83.1638
83.1206
83.0919
83.0571
83.0537
83.0234
83.0603
83.0247
83.0905
78.0232
78.5374
78.5912
78.8468
79.4647
79.599
79.9928
80.008
80.1207
80.0909
80.074
80.0222
79.9614
79.8985
79.8259
79.7686
79.6986
79.658
79.6066
79.5694
105.632
104.51
103.501
102.052
100.829
99.1294
97.9166
96.2079
94.5292
92.9543
91.5377
90.1802
88.9112
87.719
86.5973
85.5476
84.5929
83.6791
83.017
82.1224
)
;

boundaryField
{
    outletWall
    {
        type            fixedValue;
        value           uniform 0;
    }
    fineWalls
    {
        type            zeroGradient;
    }
    fineFrontAndBack
    {
        type            zeroGradient;
    }
    fineplugLeft
    {
        type            cyclicAMI;
        value           nonuniform List<scalar> 
20
(
67.0277
67.9384
68.1882
68.8485
69.4432
70.1664
70.9371
71.7753
72.6763
73.6849
74.6956
75.7371
77.2038
86.1738
83.0121
83.9759
85.2847
86.6942
85.1699
83.3031
)
;
    }
    fineplugRight
    {
        type            cyclicAMI;
        value           nonuniform List<scalar> 
20
(
67.0128
67.929
68.178
68.8417
69.4383
70.1635
70.9356
71.7748
72.6768
73.6861
74.6983
75.7413
77.2082
86.1822
83.0466
84.0161
85.3275
86.7367
85.2171
83.3537
)
;
    }
    inletOutletLeft
    {
        type            cyclicAMI;
        value           nonuniform List<scalar> 
20
(
67.0277
67.9384
68.1882
68.8485
69.4432
70.1664
70.9371
71.7753
72.6763
73.6849
74.6956
75.7371
77.2038
86.1738
83.0121
83.9759
85.2847
86.6942
85.1699
83.3031
)
;
    }
    inletLeft
    {
        type            zeroGradient;
    }
    inletWallsLeft
    {
        type            zeroGradient;
    }
    inletFacesLeft
    {
        type            zeroGradient;
    }
    inletOutletRight
    {
        type            cyclicAMI;
        value           nonuniform List<scalar> 
20
(
67.0128
67.929
68.178
68.8417
69.4383
70.1635
70.9356
71.7748
72.6768
73.6861
74.6983
75.7413
77.2082
86.1822
83.0466
84.0161
85.3275
86.7367
85.2171
83.3537
)
;
    }
    inletRight
    {
        type            zeroGradient;
    }
    inletWallsRight
    {
        type            zeroGradient;
    }
    inletFacesRight
    {
        type            zeroGradient;
    }
}


// ************************************************************************* //
