/*--------------------------------*- C++ -*----------------------------------*\
| =========                 |                                                 |
| \\      /  F ield         | OpenFOAM: The Open Source CFD Toolbox           |
|  \\    /   O peration     | Version:  4.1                                   |
|   \\  /    A nd           | Web:      www.OpenFOAM.org                      |
|    \\/     M anipulation  |                                                 |
\*---------------------------------------------------------------------------*/
FoamFile
{
    version     2.0;
    format      ascii;
    class       surfaceScalarField;
    location    "4";
    object      phi;
}
// * * * * * * * * * * * * * * * * * * * * * * * * * * * * * * * * * * * * * //

dimensions      [0 3 -1 0 0 0 0];

internalField   nonuniform List<scalar> 
2360
(
-5398.73
-4035.56
-1363.17
-4035.56
-4035.56
-2699.69
-1335.88
-2699.69
-2699.69
-2699.69
-1018.49
-1681.2
-1018.49
-1018.49
1232.43
-2250.93
1232.43
1232.43
4256.81
-3024.38
4256.82
4256.82
8913.66
-4656.84
8913.67
8913.67
9880.82
11412.7
12791.6
13946.4
14986.9
15960
13428.2
3466.69
14351.9
15263.9
16165.9
17060.6
17950.4
18837.4
19723.2
20608.9
21495.4
22382.6
23270
24157.2
24947
9540.55
15406.4
9540.55
9540.55
9540.55
-1059.25
10599.8
-1059.25
-1059.25
-1059.25
-27.4284
-1031.83
-27.4295
-27.4327
1077.28
-1104.71
1077.28
1077.28
1077.28
-9526.61
10603.9
-9526.61
-9526.61
-9526.61
-24966.7
15440.1
-24177.5
-23289.9
-22402.5
-21515.5
-20629.1
-19743.5
-18857.8
-17970.7
-17080.8
-16185.9
-15283.8
-14372
-13448.7
-15958.4
3444.14
-14985.6
-13945
-12789.7
-11410.4
-9878.51
-8910.8
-8910.8
-8910.8
-4201.94
-4708.86
-4201.94
-4201.94
-1172.64
-3029.3
-1172.63
-1172.63
1083.33
-2255.97
1083.33
1083.33
2764.4
-1681.07
2764.4
2764.4
2764.4
4090.26
-1325.86
4090.26
4090.26
5456.53
-1366.27
-3315.01
-3301.13
-4094.91
-4252.34
-5050.92
-4147.85
-6171.24
-4446.19
-7253.93
-5123.79
-7940.28
-6545.28
-7610.66
-8016.37
-5868.39
-6566.31
-3980.18
1724.72
-3148.91
9092.32
-2473.29
12259.7
-1799.27
13185.7
-1089.77
12405.9
-325.159
9877.07
389.663
5528.12
933.041
4433.55
1144.53
2637.87
1272.66
1931.23
-123.309
-4388.91
-2713.91
-5393.62
-3247.63
-6390.07
-3151.41
-7218.28
-3617.98
-7649.24
-4692.83
-7599.74
-6594.78
-6960.98
-8655.12
-5418.78
-8108.51
-3616.42
-77.6446
-3055.46
8531.36
-2664.23
11868.5
-2020.11
12541.6
-1162.39
11548.2
-126.936
8841.61
838.964
4562.22
1432.04
3840.47
1427.98
2641.94
1202.59
2156.62
-246.58
-5078.81
-2057.34
-6015.51
-2310.93
-6676.17
-2490.76
-6906.37
-3387.77
-6655.81
-4943.39
-6161.1
-7089.49
-5671.18
-9145.04
-4991.75
-8787.94
-3689.75
-1379.64
-3084.26
7925.87
-2854.93
11639.1
-2369.83
12056.5
-1372.16
10550.5
61.9841
7407.47
1413.44
3210.77
2170.95
3082.96
2134.34
2678.55
1657.52
2633.44
-270.128
-5713.03
-1422.05
-6399.94
-1624.02
-6593.11
-2297.58
-6365.23
-3615.65
-5942.75
-5365.87
-5699.83
-7332.41
-5773.48
-9071.39
-5691.3
-8870.12
-4497.03
-2573.91
-3510.06
6938.9
-3150.12
11279.2
-2795.63
11702
-1733.05
9487.97
256.207
5418.21
2102.89
1364.09
3010.05
2175.79
2926.33
2762.27
2269.63
3290.14
-256.465
-6018.24
-959.997
-6285.56
-1356.7
-6088.04
-2495.1
-5783.44
-3920.26
-5736.25
-5413.06
-6212.37
-6856.29
-7073.35
-8210.41
-7537.6
-8405.87
-6308.41
-3803.11
-4622.69
5253.19
-3790.06
10446.6
-3314.53
11226.5
-2136.61
8310.05
746.082
2535.52
3184.21
-1074.04
4077.11
1282.89
3973.4
2865.98
3171.22
4092.32
-114.549
-5884.65
-755.885
-5802.52
-1438.83
-5587.7
-2709.91
-5669.95
-3838.01
-6301.62
-4781.38
-7522.07
-5635.84
-9009.04
-6723.44
-9917.54
-7497.37
-8860.23
-4860.41
-6552.32
2945.28
-5012.98
8907.22
-4078.1
10291.6
-2403.85
6635.79
1179.95
-1048.28
3872.46
-3766.56
4979.07
176.28
4909.78
2935.28
4412.3
4589.8
-411.109
-5506.39
-717.64
-5400.57
-1544.65
-5546.78
-2563.71
-6190.05
-3194.74
-7396.69
-3574.74
-9058.23
-3974.31
-10878.4
-4903.32
-12233.6
-6142.15
-11830.2
-5263.79
-9395.24
510.333
-7059.71
6571.68
-5163.25
8395.12
-2415.35
3887.9
-526.242
-2937.39
-270.383
-4022.42
1284.68
-1378.78
3276.42
943.535
4677.68
3188.54
7710.7
-5259.07
-655.683
-5425.68
-1378.04
-6035.23
-1954.17
-7098.8
-2131.16
-8546.6
-2126.94
-10239.8
-2281.1
-12080.3
-3062.79
-13861.1
-4361.37
-14543.5
-4581.43
-12678.4
-1354.74
-9445.15
3338.42
-6404.77
5354.74
-5162.75
2645.87
-6932.39
-1167.74
-8401.64
-2553.18
-7566.31
-2214.11
-6979.37
356.594
-9253.6
5462.78
13897.2
-5290.04
-438.175
-5830.19
-837.889
-6781.95
-1002.4
-7972.14
-940.971
-9269
-830.085
-10629.5
-920.584
-12248.8
-1443.51
-14353.1
-2257.1
-16342.7
-2591.76
-16345.4
-1352.06
-14004.2
997.236
-11489.7
2840.23
-11542.6
2698.71
-13594.9
884.58
-15170.2
-977.812
-16019.4
-1364.98
-15916.4
253.582
-14548.6
4094.98
9952.48
-5503.39
-24.8661
-6351.91
10.6318
-7415.04
60.7262
-8448.01
92.0035
-9372.03
93.931
-10338.4
45.7606
-11758.7
-23.1374
-13951.2
-64.6261
-16455.2
-87.7548
-17667
-140.272
-16492.9
-176.899
-13529.3
-123.325
-10953.3
122.73
-10388.5
319.7
-11619.8
253.561
-13191.9
207.073
-13045.2
106.879
-8920.86
-29.353
-73.086
-5578.99
377.134
-6391.6
823.241
-7413.72
1082.84
-8420.11
1098.4
-9343.06
1016.88
-10343
1045.68
-11818.6
1452.51
-14049.9
2166.7
-16539.8
2402.14
-17679.1
999.019
-16404.7
-1451.33
-13277.7
-3250.33
-10397.4
-2757.52
-9667.79
-409.957
-11144
1729.73
-13042.5
2105.66
-13041.2
105.512
-8952.85
-4117.67
-10057.8
-5419.35
599.568
-5930.83
1334.72
-6814.01
1966.02
-7925.64
2210.03
-9168.65
2259.88
-10541.4
2418.46
-12239.7
3150.74
-14427.1
4354.12
-16423.6
4398.67
-16377.5
952.874
-14082.2
-3746.6
-11720
-5612.54
-11790.5
-2687.04
-13541.3
1340.9
-14962.8
3151.18
-15972.1
3115.02
-15946.5
79.9053
-14535.7
-5528.51
-13993.6
-5375.2
682.171
-5545.98
1505.49
-6115.16
2535.2
-7105.68
3200.55
-8474.29
3628.49
-10123.4
4067.62
-11973.2
5000.44
-13778.2
6159.14
-14436.4
5056.84
-12575.5
-907.928
-9440.3
-6881.85
-6606.31
-8446.53
-5836.25
-3457.1
-7884.5
3389.14
-9187.95
4454.63
-8206.18
2133.24
-7218.52
-907.754
-9200.91
-3546.12
-7788.13
-5594.64
741.749
-5508.6
1419.46
-5648
2674.6
-6251.83
3804.39
-7393.37
4770.03
-8989.37
5663.62
-10766.9
6777.97
-12101.2
7493.46
-11691.4
4647
-9346.85
-3252.44
-7102.98
-9125.72
-5218.06
-10331.4
-2615.67
-6059.49
-1397.83
2171.3
-1485.54
4542.34
569.097
78.6059
3070.4
-3409.06
4607.14
-5082.85
285.698
-5941.58
962.172
-5882.39
1360.27
-5682.33
2474.54
-5758.58
3880.64
-6357.09
5368.54
-7524.66
6831.19
-8956.66
8209.97
-9825.02
8361.82
-8764.33
3586.3
-6538.92
-5477.85
-5061.16
-10603.5
-4143.85
-11248.8
-2252.35
-7950.99
1264.89
-1345.94
3687.41
2119.82
4908.51
-1142.49
4879.01
-3379.56
4336.82
-4540.66
-34.3198
-6047.73
1432.92
-6331.81
1644.34
-6156.64
2299.38
-5868.84
3592.83
-5820.91
5320.61
-6273.51
7283.79
-7094.02
9030.47
-7514.51
8782.31
-6266.34
2338.14
-4628.33
-7115.86
-3828.03
-11403.8
-3379.63
-11697.2
-2131.92
-9198.71
1110.64
-4588.5
3681.94
-451.486
4457.69
-1918.23
4143.01
-3064.88
3192.68
-3590.33
133.977
-5725.99
2070.47
-6419.63
2337.99
-6630.5
2510.25
-6428.13
3390.46
-6029.63
4922.11
-5797.66
7051.82
-5860.61
9093.42
-5739.07
8660.77
-4502.38
1101.45
-3522.06
-8096.18
-3178.54
-11747.3
-2836.84
-12038.9
-1725.62
-10309.9
517.044
-6831.17
2465.54
-2399.98
3251.75
-2704.45
3021.62
-2834.75
2264.13
-2832.84
147.18
-5084.92
2726.14
-6020.94
3274.01
-6689.65
3178.95
-6941.66
3642.47
-6726.94
4707.4
-6272.85
6597.73
-5803.55
8624.11
-5080.54
7937.77
-3711.99
-267.104
-3088.92
-8719.26
-2871.46
-11964.8
-2385.82
-12524.5
-1359.31
-11336.4
196.812
-8387.29
1620.32
-3823.49
2318.28
-3402.41
2194.66
-2711.12
1650.39
-2288.57
116.369
-4393.45
3311.97
-5394.88
4275.44
-6391.76
4175.83
-7231.44
4482.15
-7691.25
5167.21
-7681.19
6587.67
-7054.54
7997.46
-5447.86
6331.09
-3613.02
-2101.94
-3050.82
-9281.45
-2666.83
-12348.8
-2018.73
-13172.6
-1148.98
-12206.2
-53.4899
-9482.78
952.728
-4829.71
1512.42
-3962.1
1460.32
-2659.02
1196.09
-2024.35
-23.4143
-3319.03
-4097.11
-5050.7
-6170.5
-7257.12
-7945.69
-7593.97
-5813.59
-3946.1
-3130.02
-2463.48
-1788.89
-1080.92
-298.455
437.885
973.9
1169.62
1287.23
194.947
-1162.09
366.295
-1703.22
428.765
-1441.4
475.807
-1201.82
525.622
-1090.3
564.524
-1012.01
588.366
-958.762
586.548
-921.87
574.258
-899.72
554.564
-882.343
529.484
-869.694
499.517
-859.809
465.133
-852.636
426.47
-847.091
383.589
-842.829
335.389
-838.377
280.291
-832.089
213.944
-821.012
131.986
-805.308
-657.753
107.057
-1269.15
62.6922
-1658.85
43.0774
-1421.79
92.3545
-1251.1
157.841
-1155.79
218.83
-1073
271.554
-1011.49
308.595
-958.914
328.949
-920.077
336.822
-890.22
334.804
-867.679
324.926
-849.934
308.232
-835.944
285.394
-824.255
257.035
-814.472
223.233
-804.577
184.607
-793.464
137.614
-774.02
81.0373
-748.732
-576.715
52.9721
-1322.13
50.7853
-1656.67
141.144
-1512.15
243.782
-1353.75
314.998
-1227.01
365.604
-1123.61
397.078
-1042.97
416.808
-978.647
425.276
-928.549
424.477
-889.426
415.434
-858.638
399.344
-833.847
376.854
-813.457
348.358
-795.762
313.979
-780.096
273.323
-763.923
226.208
-746.35
169.242
-717.055
99.693
-679.185
-477.022
19.6447
-1341.77
61.7126
-1698.74
157.335
-1607.77
243.952
-1440.36
311.214
-1294.27
362.856
-1175.25
402.008
-1082.12
429.347
-1005.98
444.888
-944.088
449.139
-893.674
443.186
-852.684
428.249
-818.907
405.376
-790.582
375.229
-765.613
338.227
-743.092
294.059
-719.754
242.654
-694.944
180.781
-655.181
106.001
-604.403
-371.021
-8.94081
-1332.83
76.4642
-1784.14
172.932
-1704.24
246.55
-1513.98
306.68
-1354.4
357.284
-1225.86
400.759
-1125.59
435.149
-1040.37
459.096
-968.036
471.518
-906.097
472.391
-853.559
462.325
-808.843
442.19
-770.448
412.678
-736.103
374.31
-704.725
326.832
-672.277
270.078
-638.19
201.276
-586.38
117.457
-520.584
-253.565
-13.3471
-1319.48
85.1063
-1882.59
163.178
-1782.31
210.507
-1561.31
257.621
-1401.51
304.838
-1273.07
352.83
-1173.58
395.034
-1082.58
429.067
-1002.07
452.177
-929.205
463.318
-864.697
462.143
-807.665
448.967
-757.269
424.239
-711.373
388.434
-668.917
341.379
-625.22
282.836
-579.645
210.82
-514.362
120.821
-430.583
-132.743
5.48756
-1324.97
87.8069
-1964.91
136.045
-1830.54
158.88
-1584.14
196.36
-1438.99
239.988
-1316.7
289.304
-1222.9
334.848
-1128.12
375.271
-1042.49
406.762
-960.693
427.761
-885.695
436.683
-816.584
432.856
-753.441
415.927
-694.442
385.94
-638.929
342.538
-581.816
285.351
-522.458
213.023
-442.033
116.838
-334.395
-15.905
36.9638
-1361.93
92.8029
-2020.75
109.604
-1847.34
117.564
-1592.1
149.321
-1470.74
186.329
-1353.7
229.187
-1265.75
268.615
-1167.54
305.895
-1079.76
337.077
-991.87
361.045
-909.661
375.327
-830.862
378.482
-756.593
369.153
-685.109
346.803
-616.576
310.411
-545.422
259.397
-471.442
191.529
-374.164
94.1039
-236.966
78.1989
69.7994
-1431.72
98.6309
-2049.58
92.374
-1841.08
94.844
-1594.56
119.919
-1495.82
145.407
-1379.19
174.019
-1294.36
199.164
-1192.68
223.804
-1104.4
244.905
-1012.97
262.249
-927.003
273.637
-842.246
277.865
-760.819
273.401
-680.642
259.559
-602.732
234.567
-520.428
197.144
-434.018
142.977
-319.996
61.9559
-155.942
140.155
90.5604
-1522.28
96.5884
-2055.6
80.9879
-1825.48
82.9587
-1596.53
99.0451
-1511.9
112.17
-1392.31
125.315
-1307.5
135.87
-1203.23
145.523
-1114.05
153.291
-1020.73
159.118
-932.827
162.32
-845.446
162.528
-761.026
159.167
-677.278
151.526
-595.089
137.672
-506.572
114.853
-411.197
79.4108
-284.552
33.2581
-109.787
173.413
99.2191
-1621.5
92.769
-2049.15
84.0838
-1816.79
91.7178
-1604.16
104.594
-1524.77
114.313
-1402.03
121.598
-1314.78
127.666
-1209.3
131.257
-1117.64
133.611
-1023.08
133.856
-933.07
132.564
-844.151
129.349
-757.809
124.006
-671.932
114.787
-585.868
100.008
-491.792
76.2337
-387.421
44.7538
-253.069
18.491
-83.5206
191.904
113.425
-1734.92
108.288
-2044.01
119.631
-1828.14
143.293
-1627.82
168.289
-1549.77
190.665
-1424.4
209.97
-1334.09
228.494
-1227.82
243.901
-1133.05
257.599
-1036.78
267.868
-943.338
274.244
-850.526
274.624
-758.188
266.754
-664.061
246.897
-566.011
213.139
-458.033
163.671
-337.953
102.918
-192.315
37.4556
-18.0563
229.36
142.593
-1877.52
141.584
-2043
176.513
-1863.06
223.707
-1675.01
274.659
-1600.72
323.117
-1472.86
372
-1382.97
420.957
-1276.77
469.827
-1181.92
517.442
-1084.39
560.501
-986.395
593.622
-883.645
609.615
-774.179
601.633
-656.077
564.6
-528.977
496.823
-390.253
399.015
-240.143
272.908
-66.2055
126.358
128.497
355.718
155.95
-2033.47
142.808
-2029.86
189.647
-1909.9
250.278
-1735.65
319.955
-1670.4
389.924
-1542.83
468.095
-1461.14
551.217
-1359.9
642.353
-1273.05
736.07
-1178.11
823.747
-1074.07
888.328
-948.228
912.714
-798.566
889.513
-632.878
821.228
-460.692
709.621
-278.648
546.115
-76.6381
350.754
129.156
179.999
299.251
535.717
90.2239
-2123.69
43.7968
-1983.44
61.0795
-1927.19
89.9714
-1764.54
127.623
-1708.05
172.373
-1587.58
228.195
-1516.97
294.718
-1426.42
372.863
-1351.2
453.047
-1258.3
516.499
-1137.53
532.947
-964.677
485.977
-751.596
396.182
-543.084
296.11
-360.62
204.465
-187.004
148.28
-20.4522
78.3646
199.072
-16.3031
393.919
519.414
-35.2624
-2088.43
-113.923
-1904.78
-166.464
-1874.65
-214.539
-1716.47
-262.108
-1660.49
-301.152
-1548.54
-338.406
-1479.72
-367.54
-1397.3
-393.572
-1325.17
-420.839
-1231.03
-462.561
-1095.81
-528.735
-898.508
-609.012
-671.323
-669.731
-482.369
-692.043
-338.313
-694.715
-184.334
-691.926
-23.2463
-633.876
141.019
-463.582
223.621
55.8322
-98.6307
-1989.8
-206.089
-1797.32
-300.632
-1780.11
-393.352
-1623.75
-488.729
-1565.11
-577.996
-1459.28
-672.429
-1385.28
-766.072
-1303.65
-863.574
-1227.67
-957.832
-1136.78
-1036.48
-1017.16
-1074.03
-860.952
-1051.35
-694.009
-976.273
-557.444
-864.722
-449.861
-720.036
-329.021
-549.92
-193.358
-339.217
-69.6807
-180.43
64.8385
-124.597
-157.901
-1831.9
-346.46
-1608.76
-494.951
-1631.62
-616.145
-1502.56
-728.531
-1452.72
-819.763
-1368.05
-903.173
-1301.87
-975.275
-1231.55
-1037.09
-1165.85
-1076.46
-1097.4
-1070.76
-1022.87
-993.147
-938.561
-839.86
-847.296
-641.63
-755.674
-423.944
-667.547
-173.688
-579.277
105.53
-472.576
335.716
-299.868
342.735
57.8193
218.138
-181.74
-1650.16
-404.664
-1385.84
-641.157
-1395.12
-836.236
-1307.48
-1022.46
-1266.5
-1176.93
-1213.57
-1309.6
-1169.2
-1416.05
-1125.1
-1497.71
-1084.19
-1549.99
-1045.12
-1565.67
-1007.18
-1536.37
-967.864
-1459.28
-924.385
-1339.87
-875.085
-1187.51
-819.906
-1007.64
-759.157
-795.186
-685.026
-541.372
-553.683
-197.176
-286.379
20.9614
-675.161
-1086
-1506.12
-1838.6
-2130.1
-2368.67
-2562.87
-2712.98
-2822.17
-2892.29
-2924.47
-2917.34
-2866.72
-2766.81
-2611.71
-2395.87
-2105.9
-1684.58
-995.961
-675.203
1650.2
-1086.07
1385.87
-1506.23
1395.16
-1838.75
1307.51
-2130.28
1266.54
-2368.88
1213.6
-2563.11
1169.23
-2713.24
1125.13
-2822.47
1084.22
-2892.62
1045.15
-2924.83
1007.21
-2917.71
967.881
-2867.1
924.387
-2767.19
875.085
-2612.12
819.93
-2396.34
759.22
-2106.4
685.061
-1684.85
553.45
-995.618
285.765
-20.6185
-181.684
1831.89
-404.507
1608.7
-640.895
1631.55
-835.829
1502.45
-1021.89
1452.59
-1176.16
1367.88
-1308.62
1301.68
-1414.82
1231.34
-1496.21
1165.62
-1548.21
1097.15
-1563.63
1022.63
-1534.13
938.378
-1456.97
847.23
-1337.64
755.759
-1185.53
667.814
-1006.06
579.748
-794.239
473.242
-541.453
300.662
-198.183
-57.5096
-218.802
-157.611
1989.5
-345.921
1797.01
-494.149
1779.78
-615.088
1623.39
-727.221
1564.73
-818.211
1458.87
-901.39
1384.86
-973.27
1303.22
-1034.85
1227.19
-1073.9
1136.2
-1067.74
1016.46
-989.645
860.288
-836.133
693.717
-638.006
557.631
-420.359
450.166
-169.935
329.323
109.358
193.946
339.397
70.6207
344.495
-62.6095
125.693
-98.6648
2088.16
-206.202
1904.54
-300.818
1874.39
-393.681
1716.25
-489.206
1660.25
-578.683
1548.35
-673.356
1479.53
-767.291
1397.15
-865.1
1325
-959.594
1230.7
-1038.24
1095.11
-1075.45
897.499
-1052.28
670.543
-976.866
482.215
-865.088
338.387
-720.028
184.262
-549.042
22.9598
-337.4
-141.021
-177.97
-222.041
-52.277
-35.6927
2123.85
-114.569
1983.42
-167.437
1927.26
-215.886
1764.69
-263.854
1708.22
-303.327
1587.82
-341.05
1517.26
-370.691
1426.79
-397.295
1351.6
-425.21
1258.61
-467.628
1137.53
-534.351
964.219
-614.753
750.945
-675.196
542.655
-697.306
360.496
-700.094
187.049
-697.324
20.1897
-638.546
-199.8
-466.559
-394.028
-518.836
89.8489
2034
43.1853
2030.08
60.1852
1910.26
88.7996
1736.08
126.158
1670.86
170.642
1543.33
226.197
1461.7
292.478
1360.51
370.364
1273.71
450.216
1178.75
513.159
1074.58
528.928
948.449
481.437
798.435
391.648
632.443
292.096
460.048
201.325
277.818
146.198
75.3171
76.4137
-130.015
-17.7478
-299.866
-536.583
156.037
1877.97
142.78
2043.34
189.593
1863.44
250.24
1675.43
319.966
1601.13
390.008
1473.29
468.3
1383.41
551.583
1277.22
642.926
1182.37
736.848
1084.83
824.651
986.781
889.182
883.917
913.342
774.274
889.84
655.945
821.284
528.604
709.442
389.659
545.414
239.345
350.175
65.2235
179.838
-129.53
-356.745
142.82
1735.15
141.845
2044.31
176.851
1828.44
224.161
1628.12
275.265
1550.03
323.873
1424.68
372.935
1334.34
422.08
1228.08
471.165
1133.29
518.994
1037
562.244
943.531
595.486
850.675
611.494
758.267
603.404
664.035
566.169
565.839
498.13
457.699
400.003
337.472
273.538
191.69
126.722
17.288
-230.024
113.512
1621.63
108.484
2049.34
119.933
1816.99
143.698
1604.35
168.809
1524.91
191.292
1402.19
210.712
1314.92
229.343
1209.45
244.864
1117.76
258.67
1023.19
269.041
933.159
275.498
844.218
275.92
757.845
268.032
671.922
248.086
585.785
214.173
491.612
164.505
387.14
103.508
252.686
37.734
83.061
-192.29
99.1465
1522.49
92.7782
2055.71
84.1932
1825.57
91.8909
1596.66
104.814
1511.99
114.581
1392.43
121.906
1307.6
128.008
1203.34
131.63
1114.14
134.01
1020.82
134.278
932.891
133.008
845.49
129.81
761.043
124.47
677.263
115.227
595.028
100.387
506.452
76.5187
411.009
44.9181
284.286
18.566
109.413
-173.724
90.4528
1432.03
96.5055
2049.65
80.9759
1841.1
82.9851
1594.65
99.0794
1495.9
112.21
1379.3
125.345
1294.46
135.889
1192.8
145.52
1104.51
153.26
1013.08
159.051
927.099
162.22
842.32
162.41
760.853
159.053
680.62
151.436
602.645
137.612
520.276
114.812
433.809
79.3702
319.728
33.2485
155.535
-140.475
69.7588
1362.28
98.5967
2020.82
92.3863
1847.32
94.9007
1592.13
119.988
1470.81
145.477
1353.81
174.073
1265.87
199.201
1167.67
223.816
1079.9
244.88
992.013
262.171
909.809
273.497
830.996
277.673
756.677
273.188
685.105
259.365
616.469
234.419
545.223
197.048
471.181
142.909
373.868
61.8993
236.546
-78.576
36.9886
1325.29
92.8447
1964.96
109.681
1830.48
117.702
1584.11
149.491
1439.02
186.514
1316.79
229.376
1223.01
268.817
1128.23
306.11
1042.6
337.29
960.834
361.23
885.869
375.461
816.766
378.564
753.575
369.197
694.473
346.833
638.832
310.445
581.611
259.436
522.19
191.546
441.758
94.0389
334.053
15.4629
5.53758
1319.75
87.8676
1882.63
136.119
1782.23
158.999
1561.23
196.508
1401.51
240.163
1273.14
289.518
1173.65
335.122
1082.63
375.607
1002.12
407.139
929.303
428.148
864.861
437.054
807.862
433.201
757.429
416.247
711.428
386.238
668.842
342.808
625.041
285.58
579.418
213.188
514.15
116.867
430.374
132.33
-13.2912
1333.04
85.1261
1784.22
163.154
1704.2
210.455
1513.94
257.557
1354.41
304.804
1225.89
352.869
1125.59
395.173
1040.33
429.295
968
452.464
906.136
463.633
853.692
462.471
809.025
449.302
770.598
424.578
736.153
388.763
704.658
341.679
672.126
283.083
638.014
210.996
586.237
120.853
520.517
253.183
-8.90953
1341.96
76.4322
1698.88
172.777
1607.86
246.27
1440.44
306.347
1294.34
356.996
1175.24
400.579
1082.01
435.088
1005.82
459.122
943.967
471.595
893.665
472.502
852.787
462.473
819.056
442.378
790.693
412.902
765.63
374.547
743.013
327.057
719.617
270.264
694.808
201.404
655.097
117.442
604.479
370.625
19.5999
1322.36
61.6449
1656.83
157.076
1512.43
243.522
1354
310.741
1227.12
362.467
1123.52
401.752
1042.72
429.198
978.377
444.796
928.37
449.074
889.389
443.149
858.713
428.256
833.951
405.437
813.513
375.336
795.733
338.357
779.992
294.188
763.787
242.763
746.232
180.849
717.012
105.928
679.401
476.553
52.8285
1269.53
50.7001
1658.96
140.766
1422.36
243.196
1251.57
314.457
1155.86
365.204
1072.77
396.809
1011.12
416.594
958.593
425.067
919.898
424.267
890.189
415.249
867.731
399.218
849.982
376.799
835.932
348.367
824.165
314.03
814.328
273.396
804.421
226.285
793.344
169.287
774.01
99.6
749.088
576.153
106.83
1162.7
62.5962
1703.2
42.9797
1441.98
92.105
1202.45
157.565
1090.4
218.616
1011.72
271.423
958.313
308.528
921.488
328.934
899.492
336.857
882.268
334.897
869.691
325.074
859.806
308.415
852.592
285.584
846.997
257.204
842.708
223.368
838.258
184.711
832.002
137.652
821.07
80.9642
805.777
657.117
194.995
366.341
429.004
476.116
525.943
564.9
588.796
586.943
574.591
554.791
529.569
499.456
464.953
426.217
383.325
335.168
280.161
213.922
132.101
)
;

boundaryField
{
    outletWall
    {
        type            calculated;
        value           nonuniform List<scalar> 
60
(
5456.53
29.6998
-2059.36
-2849.36
-4976.93
-6242.95
-10641.7
-13115.4
-13859.7
-12935.3
-9923.6
-3612.93
4824.03
7686.75
7231.63
6206.48
5566.51
5103.86
5032.25
3697.65
2922.91
3807.61
4429.25
5088.44
5576.99
5721.16
5535.06
5292.6
5196.91
5176.99
5090.08
5072.53
5197.11
5468.15
5680.53
5556.18
5077.74
4422.24
3801.69
2918.49
5398.73
-99.3575
-2141.96
-2854.73
-4498.11
-5566.05
-10265.2
-12914.2
-13847.2
-13015.3
-10097.5
-3969.44
4550.72
7645.74
7276.24
6253.83
5601.95
5129.42
5053.52
3708.09
)
;
    }
    fineWalls
    {
        type            calculated;
        value           uniform 0;
    }
    fineFrontAndBack
    {
        type            calculated;
        value           nonuniform List<scalar> 
960
(
1.91723e-13
6.99781e-13
-1.24839e-13
-5.77453e-13
-5.89752e-12
-1.08571e-12
-4.73814e-13
1.42571e-13
4.71257e-12
2.06247e-12
1.98443e-12
9.86074e-12
2.53584e-12
2.95819e-12
1.1749e-11
2.0648e-12
2.29023e-12
9.18503e-12
1.40884e-12
8.70424e-13
2.60872e-13
-6.33022e-15
-7.77601e-14
-1.47239e-13
-1.40215e-13
-3.68813e-13
-1.81478e-14
-5.37326e-13
-5.7117e-13
-5.80002e-13
-5.55519e-13
-4.61356e-13
-3.53781e-13
-2.34688e-13
-2.49456e-13
-4.40026e-13
-8.07897e-13
-1.35909e-12
-1.96177e-12
-2.85657e-12
-9.70867e-11
-1.93453e-11
-2.17895e-11
-2.55392e-11
-1.35525e-10
-1.96368e-11
-1.63322e-11
-9.69137e-12
-8.87151e-11
-4.04126e-11
4.27055e-11
2.62273e-10
3.33465e-11
3.30669e-11
3.30822e-11
1.45153e-10
2.55306e-11
2.23742e-11
2.04005e-11
1.13678e-10
3.77998e-12
3.16224e-12
2.80388e-12
2.46338e-12
2.26069e-12
2.12697e-12
2.04555e-12
1.97548e-12
1.90547e-12
1.76623e-12
1.54446e-12
1.3517e-12
1.22064e-12
1.12334e-11
8.42282e-13
5.8626e-13
6.10351e-13
5.30687e-13
4.66514e-13
2.26592e-13
1.50702e-12
6.80405e-13
1.84855e-12
1.25202e-12
8.93855e-13
5.13299e-12
2.16493e-12
1.4565e-12
3.63102e-12
1.04113e-12
1.14663e-12
5.64918e-12
2.07286e-12
2.76139e-12
3.50831e-12
1.75087e-11
3.0533e-12
2.49283e-12
9.28994e-12
8.35184e-13
-2.10835e-08
-1.6557e-08
-9.43889e-09
-3.55095e-09
-3.21387e-10
5.64237e-10
5.18237e-10
3.02065e-10
9.48525e-12
-7.26906e-11
-2.81368e-11
1.11575e-11
1.65739e-11
-7.88232e-12
-2.92027e-11
-2.64659e-11
-1.29822e-11
-3.07966e-12
-2.11127e-12
-2.55075e-08
-1.539e-08
-6.28335e-09
-9.61581e-10
8.25684e-10
9.71082e-10
9.67158e-10
9.64404e-10
4.45315e-10
-7.67081e-11
-3.19415e-11
1.53723e-11
1.52964e-11
-8.72478e-12
-2.8981e-11
-2.75013e-11
-1.67889e-11
-5.20177e-12
-9.97823e-12
-2.38274e-08
-1.05289e-08
-2.76261e-09
6.7978e-10
1.43993e-09
1.47697e-09
1.60641e-09
1.62018e-09
9.99335e-10
6.16402e-11
-5.54069e-11
1.63878e-11
1.54112e-11
-1.04859e-11
-2.86553e-11
-2.88719e-11
-2.18313e-11
-9.41646e-12
-1.00377e-11
-2.07353e-08
-5.6265e-09
-1.11969e-10
1.78606e-09
1.99334e-09
1.98689e-09
2.01757e-09
1.79197e-09
1.09718e-09
2.65734e-10
-3.92475e-11
-1.01248e-12
1.65925e-11
-1.25646e-11
-2.8159e-11
-2.99095e-11
-2.572e-11
-1.36208e-11
-1.28197e-11
-1.60322e-08
-1.08571e-09
1.67938e-09
2.44992e-09
2.33841e-09
2.21592e-09
1.99454e-09
1.48291e-09
7.79342e-10
2.66445e-10
2.03616e-11
-2.29947e-11
9.2548e-12
-1.39105e-11
-2.47217e-11
-3.22351e-11
-3.29289e-11
-1.97e-11
-1.72177e-11
-1.14206e-08
1.83095e-09
2.2196e-09
2.4599e-09
2.25721e-09
2.02006e-09
1.57004e-09
9.40517e-10
3.66982e-10
7.66554e-11
1.23086e-11
-3.28184e-11
-1.05584e-11
-1.22511e-11
7.01047e-11
5.34079e-11
1.51531e-11
-1.5232e-11
-2.27587e-11
-8.429e-09
2.43498e-09
1.56394e-09
1.96567e-09
1.87926e-09
1.54256e-09
9.76368e-10
4.45965e-10
1.2276e-10
-4.4058e-11
-7.37106e-11
-6.10811e-11
-3.01354e-11
8.58246e-11
2.60131e-10
2.18629e-10
1.65512e-10
7.87148e-11
-3.82325e-11
-7.99035e-09
1.20953e-09
6.70112e-10
1.53302e-09
1.45465e-09
9.68177e-10
4.25549e-10
1.44004e-10
1.09752e-10
5.98888e-11
-8.29655e-11
-1.17107e-10
-9.7984e-12
2.65043e-10
3.25818e-10
2.15404e-10
1.3311e-10
1.20777e-10
1.32319e-10
-8.72862e-09
2.27023e-10
5.82266e-10
1.39533e-09
1.01737e-09
4.13861e-10
3.28687e-11
1.33369e-11
1.86058e-10
2.91888e-10
2.08647e-10
1.29303e-10
2.33991e-10
3.97234e-10
3.97028e-10
3.37078e-10
2.78621e-10
2.49073e-10
2.45248e-10
-6.51465e-09
9.80596e-10
1.079e-09
1.23287e-09
5.64234e-10
1.5165e-11
-1.75583e-10
-7.19566e-11
1.23219e-10
2.82483e-10
3.54059e-10
3.59054e-10
3.74699e-10
3.76303e-10
3.50604e-10
3.44785e-10
3.31826e-10
3.15578e-10
3.18753e-10
-7.22654e-10
1.74793e-09
1.11341e-09
1.02928e-09
4.82355e-10
1.80619e-12
-2.63254e-10
-3.18613e-10
-2.99234e-10
-3.12449e-10
-3.41518e-10
-3.39875e-10
-3.35e-10
-3.20982e-10
-3.07226e-10
-3.25836e-10
-3.40976e-10
-3.11003e-10
-2.49306e-10
5.09837e-10
1.88887e-09
1.22804e-09
1.08653e-09
6.21911e-10
1.54998e-10
-1.92734e-10
-3.57297e-10
-3.77445e-10
-3.0202e-10
-1.78459e-10
-1.36797e-10
-2.46488e-10
-3.90733e-10
-3.90785e-10
-3.39188e-10
-2.78571e-10
-2.4525e-10
-2.4246e-10
5.22033e-10
1.53652e-09
1.0814e-09
1.06396e-09
7.60173e-10
3.59584e-10
-2.19213e-11
-2.65812e-10
-3.10803e-10
-1.66539e-10
-2.76839e-12
3.97737e-11
-4.35156e-11
-2.77811e-10
-3.19769e-10
-2.18565e-10
-1.32416e-10
-1.13241e-10
-1.16846e-10
2.91535e-10
1.04699e-09
7.05967e-10
8.17832e-10
7.42821e-10
4.98326e-10
1.69011e-10
-1.08246e-10
-2.01272e-10
-9.99627e-11
-1.24922e-11
9.39541e-12
-5.43855e-13
-1.28738e-10
-2.68722e-10
-2.23084e-10
-1.65199e-10
-8.38551e-11
3.44117e-11
1.6769e-10
7.29313e-10
3.49108e-10
4.28366e-10
5.29559e-10
4.80845e-10
2.8789e-10
4.40492e-11
-9.12663e-11
-5.6892e-11
-8.42677e-12
9.54947e-12
8.18039e-12
-8.07468e-12
-1.11849e-10
-1.02498e-10
-5.36113e-11
-6.23755e-12
-1.36685e-12
2.11229e-10
6.82699e-10
2.39226e-10
1.13251e-10
2.31026e-10
3.10716e-10
2.74998e-10
1.26831e-10
-1.09404e-11
-2.73572e-11
1.56781e-12
1.32017e-11
6.2274e-12
3.0313e-12
-7.43389e-12
6.8487e-13
5.74207e-12
4.16097e-12
-3.94419e-12
3.97238e-10
8.00075e-10
4.08416e-10
2.55016e-11
1.65911e-11
9.70349e-11
1.50817e-10
1.07524e-10
1.40276e-11
-1.20638e-11
1.24335e-11
1.36333e-11
6.09009e-12
3.52517e-12
2.38668e-12
1.96472e-12
1.51698e-12
1.03944e-12
-5.1707e-12
6.88133e-10
9.29109e-10
7.30735e-10
1.5546e-10
-3.22165e-11
-3.75653e-11
1.13991e-11
2.10897e-11
-8.0911e-12
8.14255e-13
1.84254e-11
1.25879e-11
6.96324e-12
3.81674e-12
2.27627e-12
1.92887e-12
1.61505e-12
4.53383e-13
-1.70998e-13
1.16057e-09
1.05829e-09
1.12656e-09
4.32539e-10
4.47306e-11
-7.65331e-11
-7.04569e-11
-4.86542e-11
-2.10534e-11
1.27778e-11
1.78075e-11
1.25922e-11
7.60077e-12
3.88026e-12
2.21098e-12
1.88329e-12
1.20368e-12
2.46141e-13
1.05184e-12
1.82499e-09
1.18018e-09
1.48586e-09
9.71776e-10
4.28151e-10
1.01812e-10
-1.37195e-11
-3.06442e-11
-4.88044e-12
1.3155e-11
1.66812e-11
1.32031e-11
7.87973e-12
3.97399e-12
2.18394e-12
1.86074e-12
9.62833e-13
-5.07019e-14
-1.25295e-12
-1.91723e-13
-6.99781e-13
1.24839e-13
5.77453e-13
5.89752e-12
1.08571e-12
4.73814e-13
-1.42571e-13
-4.71257e-12
-2.06247e-12
-1.98443e-12
-9.86074e-12
-2.53584e-12
-2.95819e-12
-1.1749e-11
-2.0648e-12
-2.29023e-12
-9.18503e-12
-1.40884e-12
-8.70424e-13
-2.60872e-13
6.33022e-15
7.77601e-14
1.47239e-13
1.40215e-13
3.68813e-13
1.81478e-14
5.37326e-13
5.7117e-13
5.80002e-13
5.55519e-13
4.61356e-13
3.53781e-13
2.34688e-13
2.49456e-13
4.40026e-13
8.07897e-13
1.35909e-12
1.96177e-12
2.85657e-12
9.70867e-11
1.93453e-11
2.17895e-11
2.55392e-11
1.35525e-10
1.96368e-11
1.63322e-11
9.69137e-12
8.87151e-11
4.04126e-11
-4.27055e-11
-2.62273e-10
-3.33465e-11
-3.30669e-11
-3.30822e-11
-1.45153e-10
-2.55306e-11
-2.23742e-11
-2.04005e-11
-1.13678e-10
-3.77998e-12
-3.16224e-12
-2.80388e-12
-2.46338e-12
-2.26069e-12
-2.12697e-12
-2.04555e-12
-1.97548e-12
-1.90547e-12
-1.76623e-12
-1.54446e-12
-1.3517e-12
-1.22064e-12
-1.12334e-11
-8.42282e-13
-5.8626e-13
-6.10351e-13
-5.30687e-13
-4.66514e-13
-2.26592e-13
-1.50702e-12
-6.80405e-13
-1.84855e-12
-1.25202e-12
-8.93855e-13
-5.13299e-12
-2.16493e-12
-1.4565e-12
-3.63102e-12
-1.04113e-12
-1.14663e-12
-5.64918e-12
-2.07286e-12
-2.76139e-12
-3.50831e-12
-1.75087e-11
-3.0533e-12
-2.49283e-12
-9.28994e-12
-8.35184e-13
2.10835e-08
1.6557e-08
9.43889e-09
3.55095e-09
3.21387e-10
-5.64237e-10
-5.18237e-10
-3.02065e-10
-9.48525e-12
7.26906e-11
2.81368e-11
-1.11575e-11
-1.65739e-11
7.88232e-12
2.92027e-11
2.64659e-11
1.29822e-11
3.07966e-12
2.11127e-12
2.55075e-08
1.539e-08
6.28335e-09
9.61581e-10
-8.25684e-10
-9.71082e-10
-9.67158e-10
-9.64404e-10
-4.45315e-10
7.67081e-11
3.19415e-11
-1.53723e-11
-1.52964e-11
8.72478e-12
2.8981e-11
2.75013e-11
1.67889e-11
5.20177e-12
9.97823e-12
2.38274e-08
1.05289e-08
2.76261e-09
-6.7978e-10
-1.43993e-09
-1.47697e-09
-1.60641e-09
-1.62018e-09
-9.99335e-10
-6.16402e-11
5.54069e-11
-1.63878e-11
-1.54112e-11
1.04859e-11
2.86553e-11
2.88719e-11
2.18313e-11
9.41646e-12
1.00377e-11
2.07353e-08
5.6265e-09
1.11969e-10
-1.78606e-09
-1.99334e-09
-1.98689e-09
-2.01757e-09
-1.79197e-09
-1.09718e-09
-2.65734e-10
3.92475e-11
1.01248e-12
-1.65925e-11
1.25646e-11
2.8159e-11
2.99095e-11
2.572e-11
1.36208e-11
1.28197e-11
1.60322e-08
1.08571e-09
-1.67938e-09
-2.44992e-09
-2.33841e-09
-2.21592e-09
-1.99454e-09
-1.48291e-09
-7.79342e-10
-2.66445e-10
-2.03616e-11
2.29947e-11
-9.2548e-12
1.39105e-11
2.47217e-11
3.22351e-11
3.29289e-11
1.97e-11
1.72177e-11
1.14206e-08
-1.83095e-09
-2.2196e-09
-2.4599e-09
-2.25721e-09
-2.02006e-09
-1.57004e-09
-9.40517e-10
-3.66982e-10
-7.66554e-11
-1.23086e-11
3.28184e-11
1.05584e-11
1.22511e-11
-7.01047e-11
-5.34079e-11
-1.51531e-11
1.5232e-11
2.27587e-11
8.429e-09