/*--------------------------------*- C++ -*----------------------------------*\
| =========                 |                                                 |
| \\      /  F ield         | OpenFOAM: The Open Source CFD Toolbox           |
|  \\    /   O peration     | Version:  4.1                                   |
|   \\  /    A nd           | Web:      www.OpenFOAM.org                      |
|    \\/     M anipulation  |                                                 |
\*---------------------------------------------------------------------------*/
FoamFile
{
    version     2.0;
    format      ascii;
    class       volVectorField;
    location    "4";
    object      U;
}
// * * * * * * * * * * * * * * * * * * * * * * * * * * * * * * * * * * * * * //

dimensions      [0 1 -1 0 0 0 0];

internalField   nonuniform List<vector> 
1280
(
(1.38553e-16 -1.77602 -0.996046)
(1.18935e-16 -1.46846 -1.00123)
(-9.03808e-17 -1.47581 -0.748017)
(-4.1731e-16 -1.24987 -0.877056)
(-1.00234e-15 -1.33319 -1.2347)
(-7.84614e-16 -1.01972 -0.917895)
(-3.42413e-16 -0.93095 -0.989981)
(1.19666e-16 -0.721717 -1.02146)
(7.51003e-16 -0.692549 -1.524)
(1.49049e-15 -0.412559 -1.31583)
(1.43409e-15 -0.184694 -1.39737)
(1.79599e-15 0.0902259 -1.89247)
(1.83258e-15 0.271887 -1.43992)
(2.13781e-15 0.564177 -1.26188)
(2.12524e-15 0.791482 -2.36301)
(1.49218e-15 1.18287 -1.91804)
(1.65509e-15 1.56249 -1.53061)
(1.56108e-15 1.85021 -3.55469)
(9.97498e-16 2.93837 -1.75129)
(6.29033e-16 2.01772 -4.59968)
(1.07024e-15 2.76929 1.57358)
(-2.59701e-17 3.13139 7.22966)
(-3.19016e-16 2.68891 9.6085)
(-6.04058e-16 3.07461 10.3159)
(-5.75241e-16 3.09372 10.7188)
(-1.51308e-15 3.36655 10.9989)
(-3.82562e-18 3.35132 9.09656)
(-2.20442e-15 6.77562 12.5101)
(-2.34326e-15 6.89857 12.416)
(-2.37949e-15 6.88556 12.3133)
(-2.27905e-15 6.90754 12.2707)
(-1.89274e-15 6.95051 12.297)
(-1.45141e-15 6.98422 12.3765)
(-9.62821e-16 7.01527 12.4934)
(-1.02341e-15 7.04809 12.6558)
(-1.80524e-15 7.06199 12.9024)
(-3.31445e-15 7.0929 13.2703)
(-5.57576e-15 7.03862 13.7466)
(-8.04827e-15 7.09108 14.4372)
(-1.17192e-14 6.91949 14.8165)
(-1.68993e-14 8.50476 15.7671)
(-1.55384e-14 4.82124 10.9157)
(-1.75016e-14 3.33283 10.6473)
(-2.0511e-14 2.32465 11.0107)
(-2.34346e-14 -0.286939 6.73165)
(-1.57725e-14 -0.832056 -5.11996)
(-1.31182e-14 -0.232293 -4.00263)
(-7.78424e-15 -0.150369 -4.49681)
(-1.41113e-14 3.25167 -5.46144)
(-2.83653e-14 4.41242 -4.63333)
(3.43016e-14 -5.05609 -5.19017)
(4.56525e-14 -3.33424 -5.56079)
(2.67843e-14 0.167995 -4.42024)
(2.65598e-14 0.25174 -3.9516)
(2.6572e-14 0.828013 -5.05244)
(2.5266e-14 0.290093 6.72089)
(2.05089e-14 -2.31947 11.0205)
(1.79712e-14 -3.32716 10.6547)
(1.63859e-14 -4.81605 10.9212)
(1.97002e-14 -8.5177 15.7681)
(1.55076e-14 -6.92593 14.8106)
(1.29733e-14 -7.09902 14.4301)
(1.15031e-14 -7.04539 13.7333)
(1.01062e-14 -7.1 13.2567)
(9.27462e-15 -7.06864 12.891)
(8.72603e-15 -7.05472 12.6491)
(8.392e-15 -7.02206 12.4931)
(8.10453e-15 -6.99143 12.3828)
(7.81733e-15 -6.95824 12.308)
(7.24609e-15 -6.91568 12.2829)
(6.33624e-15 -6.89347 12.3226)
(5.54545e-15 -6.90563 12.4196)
(5.00773e-15 -6.78248 12.508)
(2.36805e-15 -3.35375 9.0808)
(3.45551e-15 -3.36789 10.9882)
(2.40517e-15 -3.09363 10.7149)
(2.504e-15 -3.07353 10.3202)
(2.17718e-15 -2.68766 9.61554)
(1.9139e-15 -3.12928 7.23518)
(9.29609e-16 -2.76897 1.57549)
(1.08909e-15 -2.01514 -4.62044)
(4.71064e-16 -2.93638 -1.76847)
(3.14179e-16 -1.83179 -3.58383)
(9.04803e-16 -1.54659 -1.5375)
(6.45966e-16 -1.16374 -1.92881)
(9.15684e-16 -0.76012 -2.37379)
(1.56454e-15 -0.548177 -1.26729)
(1.05258e-15 -0.249982 -1.44349)
(7.7679e-16 -0.0683161 -1.89697)
(7.52396e-16 0.205379 -1.39858)
(8.28641e-16 0.433803 -1.31787)
(1.25356e-15 0.723891 -1.52486)
(1.51431e-15 0.742565 -1.01329)
(1.99559e-15 0.954083 -0.97657)
(2.53536e-15 1.03827 -0.904182)
(2.97577e-15 1.35921 -1.22186)
(2.20654e-15 1.26783 -0.8715)
(1.80154e-15 1.49248 -0.74698)
(1.58717e-15 1.49574 -1.00889)
(6.03566e-16 1.79484 -0.987304)
(-2.34261e-12 1.22387 2.43781)
(-1.83967e-12 1.65597 3.07642)
(-1.04877e-12 1.67327 3.75518)
(-3.9455e-13 1.81611 4.6599)
(-3.57097e-14 2.02267 5.62455)
(6.26929e-14 2.37421 6.46276)
(5.75819e-14 2.57095 6.77624)
(3.35628e-14 1.6781 5.91818)
(1.05392e-15 -1.09905 3.81166)
(-8.07673e-15 -3.2032 2.88725)
(-3.12632e-15 -4.25397 2.33297)
(1.23972e-15 -4.59547 1.78595)
(1.84155e-15 -4.37092 1.21011)
(-8.75814e-16 -3.56252 0.604645)
(-3.24475e-15 -2.10695 -0.0620649)
(-2.94065e-15 -1.65438 -0.569559)
(-1.44246e-15 -0.929235 -0.977192)
(-3.42184e-16 -0.678157 -0.951288)
(-2.34586e-16 0.0240436 -1.22534)
(-2.83417e-12 0.991381 3.18469)
(-1.71e-12 1.2072 4.1016)
(-6.9815e-13 1.13393 4.90284)
(-1.06842e-13 1.20888 5.74184)
(9.17426e-14 1.46853 6.29095)
(1.07898e-13 2.05329 6.45847)
(1.07462e-13 2.77127 6.20784)
(1.07156e-13 2.60335 5.39464)
(4.94794e-14 -0.235375 3.57124)
(-8.52312e-15 -2.99984 2.57979)
(-3.54906e-15 -4.01478 2.43145)
(1.70804e-15 -4.26076 2.00473)
(1.6996e-15 -3.96004 1.34628)
(-9.6942e-16 -3.0759 0.583666)
(-3.22011e-15 -1.62136 -0.348582)
(-3.05569e-15 -1.34298 -0.996393)
(-1.86543e-15 -0.856059 -1.36021)
(-5.77975e-16 -0.641561 -1.09242)
(-1.10869e-15 0.0236131 -0.943768)
(-2.64749e-12 0.812115 3.71069)
(-1.16988e-12 0.940094 4.70992)
(-3.06957e-13 0.942363 5.33973)
(7.55312e-14 1.16815 5.77821)
(1.59992e-13 1.61845 5.73445)
(1.64108e-13 2.30961 5.35693)
(1.7849e-13 2.99938 4.9094)
(1.8002e-13 2.84609 4.55595)
(1.11037e-13 0.265769 3.70526)
(6.84891e-15 -2.70658 2.57714)
(-6.15633e-15 -3.90427 2.4581)
(1.82087e-15 -4.07395 2.29535)
(1.71235e-15 -3.68162 1.63617)
(-1.1651e-15 -2.73179 0.63453)
(-3.18392e-15 -1.3128 -0.697529)
(-3.20799e-15 -1.16463 -1.58352)
(-2.4257e-15 -0.912269 -2.02257)
(-1.04627e-15 -0.767597 -1.5974)
(-1.1153e-15 0.26056 -1.21608)
(-2.30393e-12 0.565244 4.26274)
(-6.25166e-13 0.610769 5.20539)
(-1.2441e-14 0.7344 5.49018)
(1.98451e-13 1.11234 5.48791)
(2.21483e-13 1.69993 5.12341)
(2.20766e-13 2.43157 4.77697)
(2.24174e-13 3.09757 4.71189)
(1.99107e-13 3.01031 4.92583)
(1.21909e-13 0.685014 4.54958)
(2.9526e-14 -2.49288 3.06792)
(-4.36083e-15 -3.83967 2.65026)
(-1.12498e-16 -3.95775 2.58588)
(1.84361e-15 -3.35123 2.0553)
(-1.39607e-15 -2.21222 0.793976)
(-3.12878e-15 -0.836427 -1.14277)
(-3.32327e-15 -0.887948 -2.25693)
(-2.85778e-15 -0.853707 -2.76333)
(-1.51342e-15 -1.02138 -2.17948)
(-1.42441e-15 -0.227747 -1.73966)
(-1.78136e-12 0.3809 4.66195)
(-1.20634e-13 0.468991 5.3143)
(1.86598e-13 0.78954 5.19137)
(2.72214e-13 1.2854 4.94359)
(2.59823e-13 1.86179 4.69767)
(2.46214e-13 2.44361 4.85625)
(2.21615e-13 2.94622 5.48126)
(1.64768e-13 2.91687 6.3234)
(8.65936e-14 1.07529 6.28349)
(2.9605e-14 -2.10376 4.30666)
(2.2624e-15 -3.69061 3.2756)
(-2.55497e-15 -3.85774 3.00646)
(1.02831e-15 -2.98377 2.49982)
(-1.54561e-15 -1.42774 0.968588)
(-2.74686e-15 -0.130984 -2.03567)
(-3.58167e-15 -0.672354 -3.14581)
(-3.65876e-15 -1.06707 -3.70114)
(-2.18889e-15 -1.10161 -2.96686)
(-1.91308e-15 0.616404 -2.53044)
(-1.26896e-12 0.257139 4.7608)
(2.03439e-13 0.441205 5.00097)
(2.46622e-13 0.877814 4.69581)
(2.73322e-13 1.33121 4.60512)
(2.50801e-13 1.74873 4.84682)
(2.24451e-13 2.12685 5.64832)
(1.74449e-13 2.52393 6.86983)
(1.04502e-13 2.68459 8.15649)
(4.07758e-14 1.48987 8.45381)
(8.51727e-15 -1.40935 6.33406)
(1.36762e-15 -3.27313 4.50861)
(-3.64649e-15 -3.63483 3.78085)
(-1.17315e-15 -2.56894 2.99158)
(-1.36123e-15 -0.369235 0.757437)
(7.78941e-15 0.975747 -2.33957)
(5.93421e-15 0.0913926 -3.8959)
(1.68368e-15 -0.776397 -4.52715)
(-1.69245e-15 -1.81346 -3.76186)
(-2.52874e-15 -0.779694 -3.9411)
(-9.36556e-13 0.241613 4.57665)
(2.70553e-13 0.515563 4.5663)
(1.73771e-13 0.922426 4.45437)
(2.18408e-13 1.22069 4.77933)
(2.08807e-13 1.43252 5.53926)
(1.71396e-13 1.62519 6.78119)
(1.08485e-13 1.9533 8.29935)
(4.95517e-14 2.30406 9.83807)
(1.364e-14 1.74541 10.6371)
(-4.89533e-15 -0.596482 9.06897)
(-8.19006e-15 -2.65774 6.56425)
(-6.78679e-15 -3.23811 5.10333)
(-3.34838e-15 -1.83074 3.45484)
(9.53606e-15 1.15875 0.292557)
(2.89034e-14 1.5954 1.04311)
(2.42921e-14 -0.108949 0.0130775)
(1.83903e-14 -0.927098 -2.62004)
(8.74609e-15 -0.719601 -3.02313)
(-4.24805e-15 1.11944 -5.19472)
(-8.87816e-13 0.235409 4.34553)
(1.34392e-13 0.512289 4.39329)
(7.44569e-14 0.784619 4.66444)
(1.70336e-13 0.90798 5.38466)
(1.61627e-13 0.950089 6.44834)
(1.07575e-13 1.02446 7.78945)
(4.72832e-14 1.31471 9.26432)
(1.60004e-14 1.78198 10.8734)
(1.21946e-14 1.74751 12.2991)
(6.65431e-15 0.244424 11.9338)
(-9.21839e-15 -1.73752 9.19476)
(-1.30119e-14 -2.38391 6.43616)
(-1.08871e-15 -0.84979 4.13699)
(2.94493e-14 0.950147 4.55023)
(3.6202e-14 1.17203 7.12493)
(2.39338e-14 0.957706 7.00812)
(1.479e-14 0.193251 5.66884)
(1.34197e-14 -1.7268 5.64377)
(1.47021e-14 -6.12597 9.6912)
(-9.69846e-13 0.202529 4.24044)
(2.52248e-14 0.402184 4.55125)
(6.46962e-14 0.516073 5.1791)
(1.55036e-13 0.513782 6.11555)
(1.13041e-13 0.471679 7.17303)
(4.59846e-14 0.50268 8.26964)
(3.65208e-15 0.73306 9.43698)
(1.48188e-15 1.12194 10.9806)
(2.06731e-14 1.28767 12.9942)
(3.2432e-14 0.664352 14.251)
(2.3183e-14 -0.468799 12.9931)
(1.4367e-14 -1.18296 10.2378)
(2.5999e-14 -0.879778 8.85608)
(4.41372e-14 -0.208774 10.4819)
(4.41142e-14 0.380114 12.1944)
(3.74531e-14 0.351271 13.1793)
(3.09579e-14 -0.50914 13.609)
(2.76747e-14 -1.98299 12.6368)
(2.72497e-14 -3.44797 11.6142)
(-7.2385e-13 0.0924333 4.25695)
(1.08955e-13 0.153045 4.88669)
(1.19889e-13 0.151151 5.71435)
(1.36986e-13 0.113745 6.63553)
(6.26927e-14 0.0826724 7.44656)
(1.685e-15 0.110789 8.16793)
(-1.95731e-14 0.225663 9.05375)
(-7.99518e-15 0.375029 10.5474)
(1.3691e-14 0.424356 12.7547)
(3.1387e-14 0.212072 14.6825)
(3.93399e-14 -0.228197 14.752)
(3.95061e-14 -0.696109 12.6317)
(4.16333e-14 -0.828781 9.88414)
(4.18114e-14 -0.32113 8.45309)
(3.84437e-14 0.340322 8.88432)
(3.83094e-14 0.555139 10.6218)
(3.68696e-14 0.130698 11.4611)
(3.50642e-14 -1.10891 9.66792)
(3.5417e-14 -3.02374 5.53282)
(-8.02949e-14 -0.0750676 4.32976)
(1.94214e-13 -0.159031 4.93944)
(1.23713e-13 -0.191248 5.72791)
(1.14364e-13 -0.175652 6.61969)
(5.3595e-14 -0.146405 7.41598)
(2.00688e-16 -0.142474 8.1502)
(-2.91073e-14 -0.210668 9.07898)
(-3.54015e-14 -0.331017 10.6221)
(-3.32482e-14 -0.364276 12.8453)
(-3.47166e-14 -0.117754 14.7321)
(-3.79464e-14 0.348427 14.7219)
(-3.77639e-14 0.787908 12.5149)
(-3.72222e-14 0.768272 9.58272)
(-3.56647e-14 0.119878 7.82354)
(-3.41362e-14 -0.519826 8.31531)
(-3.62039e-14 -0.705628 10.4019)
(-3.78863e-14 -0.207546 11.4337)
(-3.45559e-14 1.12589 9.68618)
(-2.77007e-14 3.06338 5.56503)
(5.66486e-14 -0.179999 4.34502)
(2.09874e-13 -0.387863 4.66058)
(1.36449e-13 -0.529507 5.23833)
(1.20726e-13 -0.555152 6.10975)
(6.91012e-14 -0.530147 7.10162)
(1.7222e-14 -0.552835 8.17374)
(-2.14149e-14 -0.754364 9.3855)
(-3.96997e-14 -1.10766 11.0167)
(-4.19383e-14 -1.22365 13.0833)
(-3.35577e-14 -0.527265 14.2953)
(-1.98288e-14 0.645386 13.0018)
(-1.51996e-14 1.34779 10.3574)
(-2.73875e-14 0.961691 9.12374)
(-4.34148e-14 0.0711326 10.6176)
(-4.34206e-14 -0.676713 11.9783)
(-3.76875e-14 -0.678395 13.0527)
(-3.09523e-14 0.350387 13.6554)
(-2.725e-14 1.98909 12.6383)
(-2.694e-14 3.49262 11.5906)
(5.80037e-14 -0.220037 4.4264)
(1.70724e-13 -0.497139 4.5038)
(1.20156e-13 -0.778923 4.75552)
(1.18218e-13 -0.919621 5.42668)
(8.44637e-14 -0.980872 6.41807)
(3.99538e-14 -1.06583 7.69924)
(-2.4357e-15 -1.35086 9.16007)
(-2.95346e-14 -1.78859 10.7992)
(-3.45337e-14 -1.68489 12.2373)
(-1.85043e-14 -0.108938 11.8171)
(-3.07599e-16 1.83874 9.13724)
(4.41929e-15 2.39492 6.48605)
(-4.83507e-15 0.770039 4.40956)
(-3.08679e-14 -0.934484 5.42117)
(-3.55299e-14 -1.31564 7.81812)
(-2.4285e-14 -1.23169 7.64743)
(-1.47128e-14 -0.298551 6.09451)
(-1.25824e-14 1.76113 5.60864)
(-1.29829e-14 6.12983 9.6338)
(3.23928e-14 -0.233622 4.63359)
(1.16332e-13 -0.505021 4.65435)
(7.84408e-14 -0.909495 4.54741)
(9.08702e-14 -1.21299 4.85485)
(8.25356e-14 -1.43722 5.56702)
(5.53696e-14 -1.64527 6.74804)
(1.8779e-14 -1.98078 8.21773)
(-1.20273e-14 -2.30843 9.73462)
(-2.23635e-14 -1.6728 10.5193)
(-1.1107e-14 0.727763 8.96199)
(-1.38802e-15 2.7546 6.58062)
(1.04393e-15 3.25864 5.16342)
(-6.04283e-17 1.62233 3.46285)
(-1.43043e-14 -1.41148 0.736009)
(-2.9858e-14 -1.68994 1.93902)
(-2.47871e-14 -0.0486707 1.11804)
(-1.83554e-14 1.05313 -2.4268)
(-9.31723e-15 0.912187 -2.94956)
(3.82352e-15 -1.0643 -5.15611)
(1.86322e-14 -0.255768 4.79553)
(8.10348e-14 -0.438773 5.05955)
(3.87897e-14 -0.867333 4.77116)
(4.75963e-14 -1.31669 4.68733)
(5.88399e-14 -1.7367 4.91259)
(5.34272e-14 -2.12542 5.67517)
(3.19877e-14 -2.53262 6.8479)
(4.89435e-15 -2.67773 8.09256)
(-1.01407e-14 -1.42245 8.35848)
(-6.32133e-15 1.48482 6.27911)
(-9.36308e-16 3.32922 4.53234)
(1.06105e-15 3.64643 3.84064)
(9.08932e-16 2.42362 3.03318)
(-8.97187e-16 -0.138203 0.421121)
(-1.24276e-14 -1.3652 -2.07696)
(-1.13887e-14 -0.167065 -3.82271)
(-5.95681e-15 0.915519 -4.51673)
(-6.93062e-16 1.96204 -3.74441)
(-1.51872e-16 0.81735 -3.84774)
(2.34698e-14 -0.383822 4.67984)
(7.58555e-14 -0.47374 5.34456)
(2.65807e-14 -0.786352 5.23871)
(1.25835e-14 -1.27363 5.01044)
(2.56696e-14 -1.84433 4.77334)
(3.4524e-14 -2.42851 4.9218)
(3.05553e-14 -2.93727 5.51862)
(1.40924e-14 -2.89459 6.3228)
(-1.2156e-15 -1.00111 6.2377)
(-3.03969e-15 2.168 4.29026)
(1.74201e-16 3.73725 3.29618)
(1.46685e-15 3.86014 3.05237)
(6.91933e-16 2.87857 2.55578)
(3.36812e-16 1.11825 0.859045)
(-8.25988e-16 -0.212915 -2.44722)
(7.60967e-17 0.607616 -3.5726)
(6.38007e-16 1.23236 -3.93065)
(4.62329e-16 1.2435 -3.0279)
(-4.38243e-16 -0.554826 -2.51364)
(4.41376e-14 -0.569642 4.27195)
(8.88973e-14 -0.61953 5.21724)
(4.53796e-14 -0.738849 5.51147)
(2.83352e-15 -1.10905 5.52882)
(1.84345e-15 -1.68743 5.18745)
(1.07817e-14 -2.41454 4.85775)
(1.67574e-14 -3.07946 4.79505)
(1.19471e-14 -2.97327 4.99081)
(1.55862e-15 -0.599077 4.55737)
(-1.34042e-15 2.54789 3.07216)
(1.3815e-15 3.87765 2.66438)
(1.51481e-15 3.95288 2.62121)
(6.76677e-16 3.26611 2.08251)
(3.91685e-16 1.99479 0.739748)
(2.65187e-16 0.551946 -1.47927)
(2.18302e-16 0.776963 -2.53025)
(1.68553e-16 0.904085 -2.90478)
(1.15494e-16 1.0862 -2.20525)
(-5.74522e-16 0.256321 -1.71474)
(7.64592e-14 -0.816444 3.71666)
(1.03234e-13 -0.949326 4.71385)
(8.11928e-14 -0.95081 5.34503)
(1.72733e-14 -1.17306 5.79528)
(-3.57961e-15 -1.61654 5.77627)
(-4.17392e-15 -2.30126 5.43358)
(1.26657e-15 -2.98283 5.01934)
(2.3433e-15 -2.79692 4.66933)
(-8.99011e-16 -0.156162 3.74036)
(9.04728e-17 2.77045 2.57368)
(2.04727e-15 3.9395 2.46968)
(1.39866e-15 4.06762 2.31244)
(7.73693e-16 3.60815 1.64113)
(4.24082e-16 2.56613 0.602866)
(2.52919e-16 1.05791 -0.870547)
(2.14319e-16 1.02804 -1.75339)
(1.7945e-16 0.955042 -2.11058)
(5.03759e-17 0.828257 -1.61291)
(-1.89998e-17 -0.221552 -1.19931)
(1.28952e-13 -0.995178 3.18968)
(1.17588e-13 -1.21557 4.10405)
(1.25174e-13 -1.14397 4.9026)
(4.80599e-14 -1.22062 5.74486)
(4.97007e-15 -1.48083 6.30991)
(-8.50368e-15 -2.06486 6.50932)
(-7.82855e-15 -2.7688 6.29235)
(-5.40602e-15 -2.53735 5.4677)
(-2.33927e-15 0.376934 3.56104)
(1.41976e-15 3.06535 2.56736)
(1.97861e-15 4.04331 2.43697)
(1.39913e-15 4.25378 2.00433)
(8.44529e-16 3.88887 1.34102)
(4.3114e-16 2.93246 0.565136)
(2.45665e-16 1.37451 -0.441449)
(2.09255e-16 1.18793 -1.09192)
(1.33743e-16 0.86726 -1.4074)
(2.7349e-17 0.675947 -1.09936)
(1.16871e-16 0.0249912 -0.935219)
(2.02777e-13 -1.22732 2.44152)
(1.31131e-13 -1.66306 3.07938)
(1.65095e-13 -1.68185 3.75593)
(1.07975e-13 -1.8281 4.65877)
(4.75723e-14 -2.03877 5.62442)
(1.13124e-14 -2.38974 6.46805)
(-1.52439e-15 -2.55906 6.78013)
(-3.40491e-15 -1.59016 5.88497)
(-5.42271e-16 1.20004 3.76768)
(1.46167e-15 3.26046 2.86287)
(1.85346e-15 4.28251 2.32607)
(1.46701e-15 4.5934 1.77705)
(8.75526e-16 4.30783 1.20065)
(4.41554e-16 3.44136 0.599339)
(2.4266e-16 1.88637 -0.0998458)
(2.06749e-16 1.49564 -0.610764)
(1.06981e-16 0.931576 -1.0061)
(-5.63355e-18 0.704147 -0.963865)
(-1.39217e-16 0.0190426 -1.23337)
(1.02597e-16 10.1391 17.734)
(-3.29815e-15 16.6359 27.3592)
(-3.48635e-15 14.4446 23.8468)
(-3.94498e-15 12.2076 19.344)
(-3.98346e-15 10.7471 17.0313)
(-5.8332e-15 10.216 15.6743)
(-5.51855e-15 9.65325 14.7221)
(-4.85909e-15 9.48004 14.3478)
(-4.86001e-15 9.33585 14.152)
(-4.93601e-15 9.22732 13.9919)
(-5.07812e-15 9.10176 13.8716)
(-5.13525e-15 8.99539 13.7737)
(-5.39535e-15 8.88764 13.705)
(-5.2988e-15 8.7892 13.655)
(-5.25115e-15 8.68152 13.6165)
(-5.14497e-15 8.56918 13.5733)
(-5.04942e-15 8.42198 13.4937)
(-4.66805e-15 8.21909 13.3769)
(-4.76076e-15 8.02657 13.1947)
(-5.13747e-15 6.50656 11.1905)
(5.55677e-17 10.8829 18.5977)
(-3.07912e-15 15.023 25.3871)
(-2.61802e-15 11.9351 20.8546)
(-3.32693e-15 10.7034 18.0179)
(-3.17689e-15 9.89772 16.8958)
(-5.05743e-15 9.61177 15.8239)
(-4.21415e-15 9.16706 15.0837)
(-3.77967e-15 8.9247 14.3712)
(-4.13321e-15 8.64913 13.8677)
(-4.07396e-15 8.46962 13.4773)
(-4.06169e-15 8.3021 13.1952)
(-4.32244e-15 8.16982 12.9785)
(-4.48983e-15 8.04483 12.8169)
(-4.43085e-15 7.93646 12.6883)
(-4.48922e-15 7.81983 12.5889)
(-4.52001e-15 7.71183 12.4898)
(-4.80654e-15 7.55503 12.3726)
(-4.71175e-15 7.36653 12.1488)
(-5.43077e-15 7.06163 11.854)
(-6.27685e-15 5.53991 9.37604)
(-3.40367e-18 11.7403 20.2149)
(-1.07873e-15 14.8928 25.4905)
(-9.2899e-16 13.1913 22.7041)
(-1.25696e-15 12.1991 20.2798)
(-9.42154e-16 11.2099 18.4783)
(-2.5982e-15 10.5509 17.0137)
(-2.00446e-15 9.93899 15.8733)
(-1.73183e-15 9.48323 14.9792)
(-1.83059e-15 9.11483 14.299)
(-1.98093e-15 8.822 13.7796)
(-1.96943e-15 8.57762 13.3756)
(-1.92788e-15 8.36684 13.053)
(-1.90559e-15 8.17335 12.7898)
(-2.01245e-15 7.99629 12.5637)
(-2.06602e-15 7.81127 12.3664)
(-2.1558e-15 7.63412 12.1643)
(-2.22356e-15 7.39347 11.9419)
(-2.40191e-15 7.11767 11.5675)
(-2.36511e-15 6.64445 11.0816)
(-3.10155e-15 4.94875 8.23771)
(-6.94783e-19 11.9475 20.5678)
(2.44885e-16 14.8384 25.5578)
(2.22087e-16 13.9932 23.9029)
(2.76917e-16 12.8519 21.4515)
(3.0313e-16 11.7255 19.3503)
(-1.6809e-15 10.889 17.6315)
(-1.79355e-15 10.1824 16.2871)
(-1.57284e-15 9.62888 15.2009)
(-1.92549e-15 9.17035 14.3373)
(-1.88217e-15 8.79392 13.6514)
(-2.05532e-15 8.476 13.1064)
(-2.15122e-15 8.20095 12.6649)
(-2.04479e-15 7.94859 12.2996)
(-2.05023e-15 7.71663 11.9803)
(-2.00778e-15 7.47404 11.6951)
(-2.06541e-15 7.24226 11.3993)
(-2.17059e-15 6.92646 11.0817)
(-2.61902e-15 6.58106 10.556)
(-2.36327e-15 5.93044 9.88145)
(-3.72451e-15 4.07113 6.52596)
(3.96008e-19 11.8962 20.6825)
(-5.42481e-17 15.4973 26.6857)
(-5.13236e-17 14.9865 25.5419)
(-5.912e-17 13.6698 22.8435)
(-8.48563e-17 12.356 20.4501)
(2.96234e-16 11.3807 18.5083)
(3.87734e-16 10.5782 16.9878)
(3.90256e-16 9.93813 15.7324)
(4.17312e-16 9.3948 14.6927)
(4.487e-16 8.93223 13.8283)
(4.5777e-16 8.53136 13.113)
(4.56225e-16 8.17857 12.5161)
(4.5959e-16 7.85252 12.0108)
(4.81237e-16 7.55034 11.5624)
(5.02049e-16 7.2344 11.1554)
(5.2821e-16 6.92982 10.7335)
(5.55604e-16 6.52196 10.2882)
(5.88849e-16 6.08444 9.58991)
(6.05729e-16 5.25335 8.70186)
(8.51653e-16 3.20193 4.86483)
(-7.76784e-20 11.6088 20.3522)
(1.24458e-17 16.4723 28.2287)
(1.12949e-17 15.7342 26.9128)
(1.28674e-17 14.1869 23.7581)
(2.14213e-17 12.693 21.2415)
(-5.81774e-17 11.7061 19.2286)
(-8.9446e-17 10.8559 17.664)
(-9.33564e-17 10.1771 16.2968)
(-9.85e-17 9.56273 15.1107)
(-1.04308e-16 9.02068 14.0689)
(-1.0249e-16 8.53333 13.1675)
(-1.01903e-16 8.09508 12.3884)
(-1.06576e-16 7.68584 11.7122)
(-1.13171e-16 7.304 11.1038)
(-1.19931e-16 6.90585 10.5454)
(-1.2746e-16 6.51918 9.9691)
(-1.316e-16 6.01009 9.3662)
(-1.3783e-16 5.47218 8.47121)
(-1.52585e-16 4.44868 7.33793)
(-2.20328e-16 2.22508 2.96971)
(2.00826e-20 11.4533 20.2442)
(-2.86503e-18 17.4732 29.6961)
(-2.58381e-18 16.1943 27.9259)
(-2.88143e-18 14.4804 24.2811)
(-5.20576e-18 12.885 21.8809)
(1.21063e-17 12.0264 19.9423)
(2.09331e-17 11.154 18.446)
(2.22013e-17 10.475 17.013)
(2.28494e-17 9.79447 15.7226)
(2.36312e-17 9.18223 14.5226)
(2.34645e-17 8.60672 13.4397)
(2.36479e-17 8.07631 12.4643)
(2.54492e-17 7.57195 11.5903)
(2.67238e-17 7.09599 10.7869)
(2.8235e-17 6.60031 10.0393)
(2.99456e-17 6.11574 9.27155)
(3.07886e-17 5.49225 8.4726)
(3.32066e-17 4.84088 7.35955)
(3.75808e-17 3.60843 5.91531)
(6.41655e-17 1.30118 1.11631)
(-5.04446e-21 11.5346 20.5279)
(6.5888e-19 18.2793 30.7653)
(6.09172e-19 16.3156 28.4017)
(6.52147e-19 14.6142 24.4652)
(1.25174e-18 13.0101 22.3991)
(-2.59282e-18 12.3521 20.5755)
(-4.89672e-18 11.4253 19.1856)
(-5.29047e-18 10.7676 17.7024)
(-5.28066e-18 10.0112 16.3588)
(-5.36898e-18 9.34452 15.042)
(-5.44106e-18 8.68312 13.8179)
(-5.62501e-18 8.06283 12.6671)
(-6.05666e-18 7.45717 11.5989)
(-6.31584e-18 6.878 10.5874)
(-6.64855e-18 6.27154 9.62758)
(-6.95562e-18 5.67985 8.63887)
(-7.15299e-18 4.92796 7.61242)
(-7.90985e-18 4.16365 6.25275)
(-8.98964e-18 2.65067 4.38741)
(-1.35715e-17 0.462236 -0.575192)
(1.6513e-21 11.9473 21.3713)
(-1.55798e-19 18.8345 31.4073)
(-1.50135e-19 16.1871 28.4368)
(-1.55871e-19 14.7127 24.5195)
(-3.16459e-19 13.1289 22.8516)
(5.37422e-19 12.6444 21.0748)
(1.14194e-18 11.6079 19.7587)
(1.29451e-18 10.9746 18.2207)
(1.29249e-18 10.1297 16.8645)
(1.31816e-18 9.42851 15.4774)
(1.36404e-18 8.68866 14.173)
(1.43388e-18 7.99461 12.9)
(1.53072e-18 7.2973 11.6842)
(1.60283e-18 6.62678 10.4973)
(1.68515e-18 5.91775 9.34992)
(1.73495e-18 5.23671 8.15105)
(1.77327e-18 4.35916 6.90386)
(1.95354e-18 3.50938 5.27432)
(2.38919e-18 1.62687 2.93207)
(-7.02968e-18 -0.282492 -1.77761)
(-8.34262e-22 12.633 22.6684)
(4.06146e-20 19.1121 31.647)
(4.23823e-20 15.9173 28.2031)
(4.35758e-20 14.8007 24.5342)
(8.88257e-20 13.2027 23.1636)
(-1.01264e-19 12.8137 21.352)
(-2.67688e-19 11.6585 20.058)
(-3.31541e-19 11.0353 18.4677)
(-3.43492e-19 10.1126 17.1079)
(-3.55758e-19 9.38702 15.6818)
(-3.71251e-19 8.58596 14.3416)
(-3.89214e-19 7.84328 13.0071)
(-4.11125e-19 7.08593 11.7181)
(-4.33505e-19 6.36248 10.4387)
(-4.56274e-19 5.59474 9.1898)
(-4.67814e-19 4.86511 7.8574)
(-4.8206e-19 3.89742 6.44733)
(-5.29051e-19 2.9723 4.57226)
(-7.68284e-19 0.8296 1.87801)
(9.01981e-19 -0.814858 -2.5512)
(4.28762e-22 13.434 24.1533)
(-1.18589e-20 19.1832 31.5885)
(-1.36303e-20 15.6705 27.9504)
(-1.36682e-20 14.9172 24.5729)
(-2.61027e-20 13.2805 23.3391)
(1.69034e-20 12.915 21.4697)
(6.3663e-20 11.7102 20.1535)
(8.65285e-20 11.067 18.5343)
(9.24034e-20 10.1212 17.1489)
(9.53374e-20 9.36841 15.7021)
(9.79897e-20 8.54472 14.336)
(1.00706e-19 7.77732 12.9802)
(1.04895e-19 7.00187 11.6697)
(1.10549e-19 6.25906 10.3702)
(1.1599e-19 5.47358 9.08758)
(1.19121e-19 4.69783 7.6932)
(1.25507e-19 3.6733 6.16257)
(1.3967e-19 2.63333 4.13026)
(2.01861e-19 0.511946 1.38949)
(1.7921e-18 -1.11105 -2.89468)
(-1.64032e-22 14.2688 25.7253)
(3.44141e-21 19.2533 31.4495)
(4.16864e-21 15.6103 27.9347)
(3.93876e-21 15.181 24.7675)
(6.90008e-21 13.5146 23.5579)
(-2.67496e-21 13.1468 21.6478)
(-1.46738e-20 11.9795 20.2782)
(-2.07268e-20 11.302 18.6491)
(-2.17277e-20 10.398 17.212)
(-2.14971e-20 9.62562 15.7464)
(-2.124e-20 8.82096 14.3395)
(-2.10918e-20 8.04547 12.9555)
(-2.14623e-20 7.26727 11.6044)
(-2.23964e-20 6.49169 10.2558)
(-2.34685e-20 5.65568 8.88258)
(-2.4495e-20 4.76261 7.37155)
(-2.7761e-20 3.63771 5.67223)
(-3.44641e-20 2.42254 3.5282)
(-3.75934e-20 0.40759 0.830353)
(3.42383e-19 -1.34863 -3.19416)
(4.09898e-23 15.215 27.6671)
(-8.37835e-22 19.521 31.4477)
(-9.87059e-22 15.7619 28.3157)
(-8.40141e-22 15.7213 25.3169)
(-1.35908e-21 13.9981 24.1219)
(5.8124e-22 13.683 22.1704)
(2.96823e-21 12.5689 20.7576)
(3.80252e-21 11.9064 19.1126)
(3.38434e-21 11.0725 17.6296)
(2.7615e-21 10.3275 16.1286)
(2.29466e-21 9.56548 14.6553)
(1.93992e-21 8.79387 13.1777)
(1.67267e-21 7.98125 11.6802)
(1.44461e-21 7.10064 10.123)
(1.1484e-21 6.09253 8.46566)
(7.68219e-22 4.9554 6.63345)
(3.04012e-22 3.58334 4.60201)
(-9.26254e-22 2.07683 2.18356)
(2.89946e-20 -0.0480077 -0.589895)
(-3.14808e-19 -1.66101 -4.14077)
(-3.47354e-24 16.2688 30.1903)
(1.44603e-22 19.8706 31.4934)
(1.38527e-22 15.9777 29.0913)
(8.71404e-23 16.4783 26.3079)
(1.35806e-22 14.5868 25.2144)
(-2.01841e-22 14.4526 23.2333)
(-5.11444e-22 13.3304 21.878)
(-4.63826e-22 12.7905 20.2555)
(-2.1345e-22 12.0357 18.8186)
(-1.18842e-23 11.3906 17.3187)
(7.4999e-23 10.6783 15.7775)
(7.9439e-23 9.87118 14.0966)
(2.5963e-23 8.88866 12.2323)
(-6.76521e-23 7.7019 10.1659)
(-1.86516e-22 6.30544 7.92763)
(-2.79255e-22 4.75742 5.51183)
(-6.97549e-22 2.96176 2.95438)
(-1.21533e-21 1.11244 0.0880572)
(1.03178e-20 -1.48763 -2.95123)
(-2.13735e-19 -2.68209 -6.55588)
(-9.84298e-25 16.9917 32.467)
(-1.2287e-23 19.7668 31.0648)
(-1.16614e-25 15.9215 29.7903)
(5.70797e-24 16.8861 27.2233)
(-7.76099e-24 14.7207 26.3194)
(3.91764e-23 14.8026 24.3894)
(8.11717e-23 13.5713 23.2405)
(8.68372e-23 13.197 21.7604)
(9.64156e-23 12.456 20.5339)
(1.42913e-22 11.8815 19.1225)
(2.25097e-22 11.0498 17.4737)
(3.34337e-22 9.89802 15.2995)
(4.3162e-22 8.29674 12.5866)
(4.61942e-22 6.41126 9.60037)
(5.89875e-22 4.45825 6.62314)
(1.16186e-21 2.50187 3.61019)
(1.87543e-21 0.307894 0.420775)
(3.53526e-21 -1.33916 -3.00308)
(-2.51311e-21 -3.80867 -5.35453)
(-6.32338e-20 -4.06606 -9.23268)
(4.57391e-25 16.7351 32.7926)
(-1.41091e-24 18.9356 29.8836)
(-2.84145e-24 15.3131 29.4305)
(-2.84035e-24 16.2185 26.9882)
(-3.24212e-24 13.9728 26.1585)
(-4.94e-24 13.926 24.3819)
(-7.00845e-24 12.62 23.3623)
(-2.50689e-23 12.1635 22.0621)
(-6.18311e-23 11.2887 20.9839)
(-9.87716e-23 10.513 19.5511)
(-1.13001e-22 9.21074 17.503)
(-1.46196e-22 7.32452 14.3809)
(-4.31462e-22 4.94421 10.5551)
(-1.01222e-21 2.80534 7.12401)
(-7.35977e-22 1.18747 4.45596)
(1.04802e-21 -0.262172 2.05056)
(1.84684e-21 -1.55957 -0.177592)
(2.58132e-21 -3.35504 -3.50819)
(6.37055e-21 -5.56465 -6.95887)
(7.65184e-21 -3.91709 -6.57787)
(3.95184e-25 15.5478 31.1936)
(8.59989e-26 18.1347 28.4263)
(-5.8348e-25 14.2119 27.967)
(-1.7376e-24 15.012 25.5344)
(-1.10225e-23 12.8481 24.6437)
(-1.3926e-23 12.502 22.9715)
(6.14113e-24 11.2746 21.8706)
(3.99436e-23 10.563 20.6268)
(6.98107e-23 9.61734 19.4764)
(9.9011e-23 8.60425 17.9946)
(1.47332e-22 7.16625 15.8539)
(1.57391e-22 5.31416 12.8583)
(-9.0189e-23 3.42782 9.62708)
(-4.76758e-22 2.11787 7.16539)
(3.79609e-22 1.23867 5.30953)
(4.24977e-21 0.0599512 2.82932)
(1.00567e-20 -1.29123 -0.147671)
(1.36613e-20 -1.81623 -1.87624)
(1.55247e-20 -1.24574 -1.03695)
(1.22115e-20 0.931701 3.16436)
(-9.4714e-26 14.0578 30.2799)
(9.82405e-25 17.7865 27.0961)
(2.50387e-24 13.0872 26.9744)
(5.49147e-24 13.9959 24.5814)
(7.02094e-24 11.8818 23.6329)
(-2.51151e-24 11.3862 22.0262)
(-1.94162e-23 10.235 20.8272)
(-3.36699e-23 9.46023 19.5407)
(-4.15039e-23 8.57702 18.337)
(-4.16834e-23 7.72138 17.0099)
(-2.98147e-23 6.76934 15.4606)
(-1.71603e-23 5.79525 13.6417)
(-7.08491e-23 4.93004 11.7256)
(-2.92037e-22 4.29243 9.96606)
(-6.28605e-22 3.85801 8.47667)
(-6.51877e-22 3.57411 7.16792)
(2.07246e-22 3.35209 5.77177)
(1.83465e-21 2.69251 3.59248)
(1.14961e-20 0.321688 -1.20748)
(1.52969e-20 0.980381 0.428669)
(1.90826e-25 11.1202 28.4879)
(-1.14302e-24 17.0152 24.7587)
(-2.36244e-24 11.9385 25.1493)
(-2.34375e-24 12.6587 23.3703)
(7.31043e-25 10.9173 22.5875)
(6.51622e-24 10.2799 21.4458)
(1.092e-23 9.30006 20.4895)
(1.24467e-23 8.55251 19.5146)
(1.16639e-23 7.82236 18.6136)
(9.10808e-24 7.20259 17.765)
(7.42283e-24 6.66509 16.9666)
(1.59856e-23 6.20864 16.1568)
(4.54675e-23 5.79255 15.2539)
(7.81431e-23 5.38669 14.2082)
(3.20042e-23 4.98771 13.0275)
(-2.00274e-22 4.56567 11.721)
(-4.67377e-22 3.96829 10.0993)
(4.18699e-22 2.81114 7.18284)
(5.18389e-21 0.224902 1.26697)
(1.15953e-20 -2.22573 -4.94057)
(1.37646e-25 2.61549 17.1091)
(5.33297e-25 8.05827 13.6895)
(3.45255e-25 5.18109 14.5397)
(-2.96458e-25 5.0018 14.1396)
(-1.17324e-24 4.09039 14.0919)
(-1.83777e-24 3.54193 13.9107)
(-1.96476e-24 2.98906 13.7506)
(-1.72364e-24 2.54944 13.5678)
(-1.35727e-24 2.17802 13.3775)
(-1.27123e-24 1.87831 13.1664)
(-2.34001e-24 1.63374 12.921)
(-5.30327e-24 1.4388 12.6296)
(-8.28434e-24 1.29659 12.2921)
(-4.38813e-24 1.22508 11.9119)
(1.42029e-23 1.24394 11.4886)
(4.22898e-23 1.32276 11.0327)
(5.28236e-23 1.45897 10.4876)
(3.13242e-23 1.83159 9.53324)
(6.73281e-23 1.77503 7.96227)
(2.55859e-22 -0.483751 5.48381)
(-1.38621e-25 -2.61562 17.1093)
(-5.36382e-25 -8.05826 13.6898)
(-3.46241e-25 -5.18109 14.54)
(2.93894e-25 -5.00173 14.14)
(1.16928e-24 -4.0903 14.0923)
(1.83705e-24 -3.54182 13.9112)
(1.97007e-24 -2.98894 13.7512)
(1.7333e-24 -2.5493 13.5685)
(1.37188e-24 -2.17782 13.3781)
(1.30581e-24 -1.87796 13.1669)
(2.42501e-24 -1.63318 12.9213)
(5.4375e-24 -1.43804 12.6296)
(8.32048e-24 -1.29571 12.2919)
(3.95992e-24 -1.22416 11.9116)
(-1.54717e-23 -1.24295 11.4883)
(-4.4229e-23 -1.32156 11.0321)
(-5.44379e-23 -1.45722 10.4865)
(-3.23711e-23 -1.82946 9.53115)
(-7.25459e-23 -1.77427 7.96006)
(-2.7071e-22 0.483644 5.48604)
(-1.91212e-25 -11.1202 28.4888)
(1.16078e-24 -17.016 24.7594)
(2.36447e-24 -11.939 25.1499)
(2.34399e-24 -12.6596 23.3707)
(-7.05442e-25 -10.9183 22.5877)
(-6.47806e-24 -10.2812 21.4458)
(-1.09125e-23 -9.30166 20.4894)
(-1.24943e-23 -8.55451 19.5143)
(-1.17502e-23 -7.82488 18.6134)
(-9.21211e-24 -7.20576 17.7648)
(-7.62787e-24 -6.66891 16.9666)
(-1.66174e-23 -6.21286 16.1566)
(-4.67975e-23 -5.79685 15.2534)
(-7.91218e-23 -5.39095 14.2076)
(-2.84629e-23 -4.99202 13.0276)
(2.14864e-22 -4.57009 11.7224)
(4.88561e-22 -3.97172 10.1002)
(-4.55266e-22 -2.80765 7.17558)
(-5.46723e-21 -0.208359 1.245)
(-1.21571e-20 2.23195 -4.94895)
(1.00671e-25 -14.0564 30.2778)
(-1.04215e-24 -17.7862 27.0929)
(-2.52543e-24 -13.0862 26.9713)
(-5.46196e-24 -13.9958 24.5773)
(-7.03367e-24 -11.8814 23.6285)
(2.3922e-24 -11.3862 22.0211)
(1.92566e-23 -10.235 20.8215)
(3.36383e-23 -9.46047 19.5344)
(4.16935e-23 -8.57732 18.3301)
(4.20355e-23 -7.72193 17.0025)
(3.00763e-23 -6.77085 15.4536)
(1.78085e-23 -5.79909 13.6369)
(7.46618e-23 -4.93711 11.7248)
(3.02574e-22 -4.30236 9.97016)
(6.42418e-22 -3.87056 8.48589)
(6.52624e-22 -3.59043 7.18277)
(-2.34706e-22 -3.3705 5.79009)
(-1.89707e-21 -2.70946 3.61309)
(-1.1659e-20 -0.344302 -1.17673)
(-1.57448e-20 -0.981375 0.415419)
(-4.42637e-25 -15.5453 31.1878)
(8.21453e-26 -18.1315 28.4213)