/*--------------------------------*- C++ -*----------------------------------*\
| =========                 |                                                 |
| \\      /  F ield         | OpenFOAM: The Open Source CFD Toolbox           |
|  \\    /   O peration     | Version:  4.1                                   |
|   \\  /    A nd           | Web:      www.OpenFOAM.org                      |
|    \\/     M anipulation  |                                                 |
\*---------------------------------------------------------------------------*/
FoamFile
{
    version     2.0;
    format      ascii;
    class       volVectorField;
    location    "11";
    object      U;
}
// * * * * * * * * * * * * * * * * * * * * * * * * * * * * * * * * * * * * * //

dimensions      [0 1 -1 0 0 0 0];

internalField   nonuniform List<vector> 
1280
(
(3.92968e-18 7.30101 0.242384)
(-5.77181e-17 9.33341 -1.57592)
(-2.99886e-17 8.6132 -1.50186)
(9.65276e-18 8.87405 -1.38077)
(1.95936e-17 11.5212 -4.1852)
(-5.33347e-17 10.026 -3.64867)
(9.11809e-17 11.5663 -3.77878)
(-7.84345e-16 11.1823 -3.41871)
(2.09599e-16 14.602 -7.44111)
(1.54031e-15 13.5839 -6.10457)
(1.96859e-15 14.7897 -5.36723)
(-2.60963e-15 18.4934 -11.1494)
(-4.3354e-15 17.5412 -9.21717)
(-3.54971e-15 19.3421 -8.20309)
(-1.11574e-14 24.5069 -16.6998)
(-9.37093e-15 23.2593 -13.214)
(-9.00948e-15 26.8653 -12.0729)
(-9.42096e-15 27.2463 -23.3512)
(-6.78916e-15 35.3238 -18.1029)
(-6.64272e-15 28.0849 -24.8798)
(-9.53382e-15 33.8007 50.8493)
(-1.30658e-14 33.7939 77.5701)
(-1.49169e-14 35.6351 90.9167)
(-1.69512e-14 37.8482 97.5246)
(-1.9028e-14 39.0786 100.813)
(-2.08613e-14 41.9762 103.606)
(-2.00672e-14 38.2863 79.7861)
(-2.44453e-14 74.4349 125.925)
(-2.52221e-14 74.4288 125.859)
(-2.59421e-14 75.1484 124.817)
(-2.71445e-14 75.3199 123.438)
(-2.84384e-14 75.3267 121.634)
(-2.99865e-14 75.2713 119.486)
(-3.14835e-14 75.0694 117.131)
(-3.33469e-14 74.8665 114.629)
(-3.53822e-14 74.45 112.058)
(-3.8928e-14 74.2299 109.271)
(-4.01094e-14 73.4388 106.483)
(-4.63143e-14 73.5046 102.587)
(-7.40344e-14 71.6339 97.8971)
(-6.23105e-14 88.0812 109.757)
(-3.33244e-14 55.5675 77.6357)
(-3.0712e-14 47.9198 77.6587)
(-2.97199e-14 37.507 75.8758)
(-2.6451e-14 28.7319 76.0612)
(-1.36091e-14 17.1493 43.9022)
(-9.6513e-15 12.3257 35.1842)
(-2.52092e-15 9.229 22.8168)
(1.71025e-14 6.9254 3.06456)
(2.1663e-14 3.37492 -6.35423)
(1.8152e-14 4.61928 -9.06028)
(8.26125e-15 2.6427 -12.7117)
(2.46829e-15 -0.33936 5.13423)
(1.85974e-15 -0.313777 17.6279)
(3.07315e-15 -4.6529 31.2579)
(8.10559e-15 -12.4211 72.8562)
(9.29977e-15 -25.5452 88.2341)
(1.07608e-14 -36.2714 92.3731)
(1.35169e-14 -46.5613 92.4534)
(3.54838e-14 -85.1651 130.341)
(5.87528e-14 -67.6113 116.965)
(4.3889e-14 -69.8311 122.819)
(4.23212e-14 -69.6054 124.65)
(4.0148e-14 -70.2918 125.754)
(3.87238e-14 -70.279 126.104)
(3.66446e-14 -70.3245 125.993)
(3.51441e-14 -70.0938 125.541)
(3.42269e-14 -69.7568 124.816)
(3.33711e-14 -69.257 123.737)
(3.24129e-14 -68.6231 122.296)
(3.15123e-14 -67.8288 120.6)
(3.06252e-14 -66.6397 118.699)
(2.9393e-14 -65.7481 115.988)
(1.96096e-14 -26.129 61.5609)
(2.50778e-14 -31.0788 87.9609)
(2.32882e-14 -28.2782 84.2847)
(2.10731e-14 -27.6412 80.5322)
(1.84388e-14 -25.8843 75.0899)
(1.45733e-14 -24.3032 65.9674)
(7.74626e-15 -23.9694 48.087)
(-9.30982e-16 -19.2589 -12.3088)
(-1.67753e-15 -26.0971 -14.1691)
(-1.78222e-15 -17.8575 -18.7463)
(-2.21894e-15 -18.3485 -9.32346)
(-2.6698e-15 -15.4291 -10.56)
(-3.2468e-15 -16.2871 -12.9201)
(-1.27745e-15 -12.9851 -7.51879)
(-8.88297e-16 -11.3452 -8.27411)
(-9.24063e-16 -11.6651 -10.2109)
(-1.89365e-16 -8.77137 -5.52566)
(-7.39561e-16 -7.76078 -6.27386)
(-1.10245e-15 -7.53628 -8.19302)
(-3.09498e-16 -5.40485 -4.86993)
(-1.57412e-16 -5.05013 -5.57719)
(-1.04152e-16 -3.81956 -5.84926)
(-1.25495e-16 -3.6565 -7.70291)
(-2.32259e-16 -1.83531 -4.20528)
(-2.44877e-16 -1.11506 -4.76797)
(-3.31248e-16 -1.02596 -7.58622)
(-3.10723e-16 1.15875 -6.29804)
(-4.03527e-15 -2.08893 39.7976)
(2.27113e-15 17.7697 30.8629)
(7.55676e-15 24.5097 32.6072)
(1.43924e-14 27.0983 36.2701)
(2.19356e-14 28.7244 40.3655)
(2.91767e-14 22.8371 40.4555)
(3.47748e-14 -0.977044 27.0572)
(3.57908e-14 -23.4943 14.6042)
(3.55279e-14 -34.9166 10.2625)
(3.47869e-14 -38.5971 6.23685)
(3.27762e-14 -39.9278 2.14048)
(2.80854e-14 -40.9918 -0.459356)
(1.80108e-14 -27.3458 -3.10702)
(7.54441e-15 -14.5874 -7.01613)
(2.36282e-15 -2.80957 -9.98401)
(1.5649e-16 -0.972506 -10.9758)
(-8.79849e-16 2.35125 -10.1338)
(-5.17983e-16 -1.21769 -7.02615)
(1.2181e-16 -3.77548 -7.30453)
(-1.48661e-15 2.14789 40.7773)
(7.87889e-15 19.4271 35.662)
(1.48545e-14 22.4642 41.7121)
(2.19135e-14 24.2865 47.9515)
(2.71729e-14 27.2709 53.3734)
(3.04269e-14 26.7368 53.8796)
(3.36926e-14 9.38347 38.8756)
(3.65011e-14 -19.6644 12.2257)
(3.55561e-14 -33.4112 10.0135)
(3.47161e-14 -36.3896 7.70125)
(3.27424e-14 -38.2948 3.1897)
(2.80813e-14 -39.3775 0.708186)
(1.82443e-14 -24.7613 -2.66268)
(8.42776e-15 -11.7569 -8.68416)
(3.89101e-15 -1.39589 -15.1953)
(1.36678e-15 -0.875677 -16.7743)
(-1.25433e-16 0.779905 -15.7631)
(-5.36121e-16 -2.36703 -8.46371)
(-5.35315e-18 -3.94712 -7.45476)
(1.49399e-15 1.69135 43.7616)
(1.21454e-14 17.5834 43.4388)
(1.79055e-14 19.7029 50.9283)
(2.16753e-14 22.1787 58.0996)
(2.23209e-14 26.2503 63.7781)
(2.18642e-14 28.792 65.1757)
(2.54074e-14 18.0933 53.8288)
(3.53401e-14 -12.8451 18.5993)
(3.61512e-14 -32.5191 8.10755)
(3.45756e-14 -35.4244 9.55148)
(3.24288e-14 -36.7427 5.65617)
(2.79284e-14 -38.0654 2.62123)
(1.83768e-14 -22.8451 -1.12256)
(9.53931e-15 -8.92084 -10.1414)
(5.7869e-15 0.206026 -20.6287)
(3.00136e-15 -0.948609 -23.2194)
(8.42068e-16 -0.892836 -21.3031)
(-3.91397e-16 -4.26836 -11.2041)
(-8.45093e-17 -2.71764 -8.18126)
(4.61767e-15 2.21064 48.7422)
(1.49657e-14 15.9986 52.991)
(1.71149e-14 16.5988 62.0831)
(1.53386e-14 19.2174 70.7713)
(1.03169e-14 24.5854 76.8915)
(6.49666e-15 30.5494 78.4386)
(1.06725e-14 27.1305 70.0911)
(2.70251e-14 -1.32166 37.6166)
(3.70126e-14 -29.3483 8.55567)
(3.52241e-14 -34.5972 8.8437)
(3.2938e-14 -35.8336 5.96249)
(2.76e-14 -37.1798 5.79417)
(1.81807e-14 -19.8812 1.269)
(1.05578e-14 -4.36428 -11.5365)
(6.49692e-15 3.46731 -23.5846)
(3.74034e-15 -0.829229 -27.2346)
(1.19057e-15 -3.68152 -24.26)
(-3.54199e-16 -8.56261 -11.9687)
(-1.82457e-16 -6.48601 -9.37465)
(6.50554e-15 0.601982 54.4436)
(1.33845e-14 12.249 64.2899)
(9.15485e-15 12.6403 74.3856)
(3.95536e-16 16.1989 83.075)
(-9.55567e-15 23.1792 87.8438)
(-1.44399e-14 31.6971 88.1617)
(-7.89157e-15 34.0214 82.1826)
(1.33328e-14 12.9764 59.1553)
(3.52855e-14 -22.1266 19.9463)
(3.51943e-14 -34.6342 10.4237)
(3.10711e-14 -36.0955 13.4303)
(2.71927e-14 -35.7404 8.99079)
(1.74085e-14 -15.7998 5.84885)
(9.77538e-15 1.6499 -12.2131)
(6.52024e-15 6.44403 -18.7293)
(4.37441e-15 -0.66983 -22.7181)
(1.47944e-15 -6.07281 -23.0918)
(-3.33638e-16 -9.55523 -12.3502)
(6.78092e-17 0.621036 -10.0312)
(5.44016e-15 -1.87546 60.3618)
(5.08922e-15 7.96756 75.3667)
(-6.4006e-15 9.02229 83.9617)
(-1.99436e-14 13.8873 89.1158)
(-3.02697e-14 22.6353 89.3133)
(-3.25205e-14 32.9358 87.2743)
(-2.34286e-14 38.7576 84.6298)
(-1.2308e-16 24.5947 73.3751)
(2.85216e-14 -11.109 40.3084)
(3.19362e-14 -30.1989 22.8772)
(2.88082e-14 -35.2498 25.3951)
(2.61146e-14 -34.967 16.2517)
(1.47671e-14 -10.9016 10.8858)
(8.36292e-15 6.26874 -2.62152)
(8.58363e-15 7.79722 -2.28531)
(7.17754e-15 0.0353891 -5.08085)
(2.47625e-15 -7.81613 -14.8612)
(-2.37411e-16 -16.7485 -8.88219)
(-2.7042e-16 -10.8997 -20.5672)
(9.76711e-16 -5.67379 64.4933)
(-9.07476e-15 3.12815 81.8381)
(-2.37728e-14 7.09301 84.1738)
(-3.37723e-14 14.1151 80.161)
(-3.69357e-14 23.9418 73.0862)
(-3.58154e-14 33.5634 70.5916)
(-2.93181e-14 39.7132 75.8914)
(-9.05474e-15 30.3322 79.788)
(2.11938e-14 -3.16612 61.5284)
(2.98116e-14 -27.807 40.2063)
(2.71192e-14 -33.863 36.4403)
(2.27387e-14 -30.3171 24.786)
(1.18071e-14 -7.6918 16.3675)
(1.02187e-14 6.242 15.7499)
(1.17159e-14 7.44899 21.5893)
(1.03454e-14 3.26959 21.296)
(5.36402e-15 -2.63862 7.29773)
(-1.38936e-16 -2.03572 -1.82863)
(-1.83986e-15 15.9954 -34.3413)
(-4.2537e-15 -9.31621 64.6645)
(-2.0511e-14 0.552277 76.9473)
(-2.85032e-14 9.55354 68.7987)
(-2.53923e-14 18.2541 55.2637)
(-1.98861e-14 26.2964 45.821)
(-2.25055e-14 31.5556 48.2271)
(-2.68653e-14 35.2613 63.9578)
(-1.29325e-14 30.0402 81.6025)
(1.45009e-14 4.54485 77.7759)
(2.61361e-14 -21.1276 56.0924)
(2.24665e-14 -29.7051 46.8757)
(1.71466e-14 -25.9459 34.0362)
(1.10433e-14 -6.71273 27.1246)
(1.32687e-14 3.90359 38.7336)
(1.4787e-14 5.40176 50.3713)
(1.50065e-14 4.18226 58.4407)
(1.58364e-14 -0.584853 61.9424)
(1.96832e-14 -11.1701 68.6581)
(2.8595e-14 -43.5987 92.9846)
(-6.81379e-15 -11.0743 61.79)
(-1.8038e-14 1.85807 62.029)
(-1.41811e-14 15.4916 46.9866)
(-3.83979e-15 23.1199 34.1241)
(1.02523e-15 26.7645 31.1157)
(-1.05804e-14 26.242 39.9757)
(-2.59602e-14 26.7456 61.6475)
(-1.44972e-14 24.6021 85.6587)
(1.08841e-14 7.94647 91.9218)
(2.28783e-14 -14.6701 72.8478)
(1.83339e-14 -24.9586 57.8807)
(1.46204e-14 -22.4794 47.556)
(1.44499e-14 -9.6781 50.895)
(1.61214e-14 -2.59658 69.7108)
(1.59145e-14 0.015857 83.4651)
(1.65875e-14 -0.794772 93.5817)
(1.88639e-14 -5.55488 102.024)
(2.10568e-14 -11.7959 106.298)
(1.96968e-14 -17.6598 96.5689)
(-4.39253e-15 -9.78371 62.0667)
(-9.04789e-15 6.18796 47.6055)
(-3.08414e-17 20.7609 34.8831)
(6.03364e-15 24.6589 29.5666)
(4.14965e-15 24.1551 33.5026)
(-1.10585e-14 19.2944 46.1221)
(-2.98664e-14 17.3947 68.5447)
(-1.85505e-14 17.6041 92.4012)
(6.13783e-15 9.27162 105.943)
(2.23331e-14 -7.76017 97.6632)
(1.76257e-14 -20.0015 83.2214)
(9.52192e-15 -22.5757 76.7478)
(1.14267e-14 -15.6297 84.3187)
(6.22869e-15 -8.97335 96.1243)
(3.96689e-15 -4.18379 101.969)
(6.38935e-15 -3.06215 104.231)
(5.89968e-15 -5.47895 102.191)
(6.68553e-15 -9.14224 87.2883)
(7.06953e-15 -10.97 47.9)
(2.87449e-15 -5.03077 67.4531)
(-1.45961e-15 12.4407 34.7467)
(5.19052e-15 23.0536 32.8249)
(5.14928e-15 23.4865 32.5166)
(-1.71325e-15 20.2077 38.3277)
(-1.37708e-14 12.0246 52.9389)
(-2.22356e-14 8.52555 74.828)
(-2.71434e-14 9.50267 95.7681)
(-9.14498e-15 5.63171 112.862)
(6.08591e-15 -5.72974 117.293)
(9.03161e-15 -16.9138 110.865)
(3.03678e-15 -22.3412 104.892)
(-4.43331e-15 -17.4425 104.934)
(-1.15614e-14 -9.74908 106.037)
(-1.54997e-14 -3.47071 105.547)
(-1.73491e-14 -0.933202 104.321)
(-1.9983e-14 1.14381 99.639)
(-2.06367e-14 7.6972 84.4765)
(-1.24338e-14 17.8178 49.2638)
(4.1464e-15 4.86109 62.4263)
(4.85243e-15 19.0947 28.0173)
(5.74793e-15 22.1363 36.0832)
(3.97316e-15 22.1569 34.6686)
(-5.67663e-15 16.0967 39.0895)
(-2.56153e-14 4.51574 54.0091)
(-3.45953e-14 0.594476 74.1427)
(-3.14683e-14 2.36025 91.1622)
(-2.44383e-14 0.641757 106.884)
(-1.65201e-14 -6.93063 115.964)
(-1.25614e-14 -15.3716 116.195)
(-1.54861e-14 -20.1156 110.341)
(-2.28277e-14 -16.0149 103.051)
(-2.91237e-14 -9.06866 97.8111)
(-3.26822e-14 -3.63316 95.1953)
(-3.55305e-14 -0.854373 95.6239)
(-4.08497e-14 2.98034 97.579)
(-4.57791e-14 11.2765 97.6772)
(-4.46637e-14 24.8653 90.2481)
(2.0558e-15 11.0187 47.93)
(7.17434e-15 21.4269 32.0207)
(5.0526e-15 21.1507 37.9457)
(4.36449e-15 21.8918 35.0437)
(-3.66084e-15 12.7904 36.8716)
(-2.46567e-14 -2.05565 47.4174)
(-3.52182e-14 -6.04552 62.9631)
(-3.48584e-14 -3.67373 76.7339)
(-3.23737e-14 -4.21013 89.7059)
(-2.95559e-14 -9.2391 98.4352)
(-2.74288e-14 -14.7089 100.22)
(-2.70963e-14 -17.0153 93.9422)
(-2.77619e-14 -12.6198 82.0629)
(-2.7356e-14 -6.57621 69.5447)
(-2.63529e-14 -2.47636 59.6835)
(-2.68545e-14 -1.28809 52.694)
(-2.92386e-14 0.343182 45.0713)
(-3.60732e-14 8.11261 45.2385)
(-5.06883e-14 39.388 67.0481)
(3.60943e-15 12.9205 42.7622)
(6.34691e-15 22.1777 35.5541)
(5.06919e-15 21.4115 37.6744)
(4.82312e-15 22.1739 35.2348)
(-1.30887e-15 11.5033 34.2754)
(-2.04815e-14 -5.98844 37.0686)
(-3.17915e-14 -11.0437 47.9708)
(-3.41838e-14 -8.43969 59.1912)
(-3.3419e-14 -8.00972 69.0981)
(-3.21266e-14 -11.0534 75.5322)
(-3.01864e-14 -13.5198 76.0098)
(-2.71992e-14 -12.6375 68.385)
(-2.31365e-14 -6.57013 55.2733)
(-1.85338e-14 -0.648863 41.1303)
(-1.4483e-14 2.87824 29.8765)
(-1.09167e-14 4.74788 19.1085)
(-6.15878e-15 5.75238 6.02032)
(-1.11734e-15 2.87351 -0.873638)
(-2.65961e-15 -7.94182 -14.2183)
(4.49484e-15 14.832 40.589)
(6.07671e-15 22.6037 36.5023)
(5.34883e-15 21.7524 37.3669)
(5.07162e-15 22.8396 35.4594)
(1.36211e-15 12.4807 32.6163)
(-1.3676e-14 -7.38864 27.2818)
(-2.57643e-14 -14.9097 33.5933)
(-3.07085e-14 -12.2931 43.2714)
(-3.12312e-14 -10.7725 51.1932)
(-3.01987e-14 -12.0264 55.8794)
(-2.76755e-14 -12.1179 55.286)
(-2.2834e-14 -8.62562 46.7494)
(-1.62007e-14 -1.28971 31.7055)
(-1.11607e-14 4.01856 19.6668)
(-7.1464e-15 6.55748 12.0059)
(-4.11776e-15 8.19296 6.12963)
(-2.24135e-15 8.33019 -0.388481)
(-7.34635e-16 11.6587 -1.74804)
(1.75746e-15 2.64612 -24.2739)
(4.92132e-15 15.6741 39.2543)
(5.96566e-15 22.8059 37.1673)
(5.44596e-15 22.1991 36.9899)
(5.15152e-15 23.7234 35.4598)
(3.25674e-15 15.0839 32.2421)
(-6.59742e-15 -6.44518 20.499)
(-1.831e-14 -17.487 21.1738)
(-2.53577e-14 -15.4823 29.8437)
(-2.77219e-14 -13.0027 37.0343)
(-2.71511e-14 -12.6352 41.0372)
(-2.3713e-14 -9.88854 39.2577)
(-1.65212e-14 -3.61356 27.7823)
(-7.89677e-15 4.06644 9.77773)
(-6.34859e-15 6.63609 5.96233)
(-3.6875e-15 8.18849 2.87792)
(-1.75337e-15 9.73715 1.66922)
(-1.03014e-15 9.1891 -2.3346)
(-3.09188e-16 13.5833 -2.67653)
(1.36681e-15 4.99662 -16.2514)
(4.93838e-15 16.2685 38.4324)
(5.81637e-15 23.0384 37.3517)
(5.55365e-15 22.7267 36.5635)
(5.23695e-15 24.5284 35.2851)
(4.22789e-15 18.2604 32.6114)
(-9.0361e-16 -3.00388 18.6045)
(-1.09084e-14 -19.2402 11.7425)
(-1.88476e-14 -18.7681 18.7275)
(-2.33643e-14 -15.313 25.5642)
(-2.3785e-14 -12.9187 29.1517)
(-1.86168e-14 -6.49323 25.0517)
(-8.16179e-15 3.27722 9.31033)
(-3.46865e-15 7.73087 0.0896165)
(-2.2898e-15 7.11297 -2.33326)
(-1.35185e-15 8.19626 -2.18051)
(-4.89087e-16 10.2896 -0.520859)
(-2.34936e-16 10.0668 -3.52598)
(-5.26924e-17 16.0629 -4.26575)
(-8.66832e-18 8.76376 -10.3443)
(4.72113e-15 16.5645 37.7998)
(5.66637e-15 23.2061 37.3387)
(5.64354e-15 23.2308 36.2999)
(5.34172e-15 25.1762 34.9666)
(4.62666e-15 21.1643 32.8599)
(2.16372e-15 3.43977 20.7469)
(-4.90272e-15 -17.7242 6.01033)
(-1.2108e-14 -20.6161 10.0345)
(-1.80879e-14 -17.0586 16.4595)
(-2.02151e-14 -12.6003 19.8776)
(-1.54952e-14 -2.41363 14.8641)
(-7.59715e-15 6.40381 1.91964)
(-3.40833e-15 9.1781 -1.18629)
(-2.70345e-16 7.69506 -5.03778)
(4.93802e-16 7.52305 -4.8069)
(3.09305e-16 10.2764 -1.9434)
(7.82049e-17 10.8077 -4.26425)
(-7.54663e-17 16.2958 -4.89206)
(-1.65302e-16 9.14233 -7.84688)
(4.41217e-15 16.7979 37.3312)
(5.51696e-15 23.4267 37.2909)
(5.69124e-15 23.7539 36.1196)
(5.45333e-15 25.7005 34.561)
(4.83106e-15 23.1041 32.7365)
(3.37603e-15 8.87977 24.3368)
(-9.40906e-16 -16.5301 4.96138)
(-6.39208e-15 -23.1619 2.92769)
(-1.26672e-14 -19.3704 8.66326)
(-1.69242e-14 -12.3572 12.6123)
(-1.39347e-14 1.62283 7.80602)
(-7.65671e-15 9.10213 -1.30124)
(-2.70234e-15 10.4847 -3.27255)
(8.42579e-17 8.33647 -5.56748)
(1.03565e-15 6.82017 -5.07434)
(4.45162e-16 10.0092 -2.6357)
(1.18123e-17 11.2513 -4.37729)
(-8.24681e-17 16.9014 -4.89545)
(-7.84305e-17 9.8344 -6.51479)
(4.13914e-15 16.6608 37.1501)
(5.3814e-15 23.6687 37.2051)
(5.69927e-15 24.6395 35.9575)
(5.53757e-15 26.7973 34.1228)
(4.96932e-15 25.38 32.2384)
(3.91871e-15 16.7601 27.9725)
(1.4714e-15 -9.0084 11.4482)
(-1.43935e-15 -20.6492 1.50121)
(-5.42014e-15 -20.8571 2.64005)
(-1.00764e-14 -12.7559 4.85804)
(-1.1431e-14 3.6139 1.97274)
(-7.18216e-15 10.6242 -2.50808)
(-2.44008e-15 11.4597 -4.43853)
(2.15977e-16 8.49849 -5.72232)
(9.19343e-16 6.05897 -4.73365)
(3.36733e-16 10.0467 -2.773)
(2.14477e-18 11.9374 -4.54611)
(-7.82862e-17 17.2803 -4.87364)
(-9.5641e-17 8.78415 -6.1292)
(-6.74117e-18 105.04 176.818)
(-1.71018e-14 149.639 254.08)
(-1.46539e-14 157.231 256.588)
(-1.40835e-14 150.161 241.105)
(-1.46915e-14 141.752 221.089)
(-2.07661e-14 132.439 201.702)
(-2.15601e-14 123.567 183.973)
(-2.05027e-14 116.614 170.887)
(-2.05683e-14 110.544 159.39)
(-2.0335e-14 104.616 148.877)
(-2.26504e-14 98.6946 138.77)
(-2.4707e-14 92.625 128.888)
(-2.8038e-14 86.3639 119.178)
(-3.08049e-14 79.8807 109.566)
(-3.39596e-14 73.0447 99.8665)
(-3.86261e-14 65.6664 89.8474)
(-4.49057e-14 57.4502 78.8542)
(-5.1323e-14 47.5762 66.3282)
(-9.03869e-14 34.8801 48.3438)
(-1.66361e-13 19.6643 32.7131)
(-6.81719e-16 101.715 170.582)
(-1.29541e-14 142.864 248.666)
(-9.18146e-15 147.404 249.405)
(-1.01587e-14 136.676 232.855)
(-1.04014e-14 126.512 212.559)
(-1.65022e-14 116.269 194.847)
(-1.40724e-14 108.658 180.008)
(-1.31779e-14 101.845 167.139)
(-1.52346e-14 95.7346 155.486)
(-1.49091e-14 89.7422 144.35)
(-1.85623e-14 83.6289 133.336)
(-1.95311e-14 77.3249 122.301)
(-2.41332e-14 70.7437 111.211)
(-2.62061e-14 63.9131 99.9516)
(-3.1101e-14 56.588 88.3822)
(-3.69087e-14 48.8285 76.0776)
(-4.20405e-14 39.767 62.4835)
(-5.52612e-14 29.8492 46.4446)
(-9.19995e-14 15.2015 24.7836)
(-1.64742e-13 5.0618 4.98454)
(7.34035e-17 104.506 176.008)
(-2.69169e-15 155.491 267.385)
(-2.36186e-15 158.828 266.274)
(-2.70851e-15 147.611 246.35)
(-2.34286e-15 137.204 225.585)
(-5.39696e-15 127.874 207.427)
(-4.09828e-15 119.968 191.533)
(-3.73536e-15 112.909 177.272)
(-4.42903e-15 106.131 163.916)
(-5.02372e-15 99.2686 150.872)
(-5.31516e-15 92.1077 137.89)
(-6.36397e-15 84.6393 124.9)
(-8.28855e-15 76.8435 111.949)
(-9.93351e-15 68.8008 99.002)
(-1.11127e-14 60.3384 85.9983)
(-1.36464e-14 51.5642 72.608)
(-1.69726e-14 41.7792 58.5098)
(-2.21563e-14 31.5555 42.7148)
(-2.90197e-14 17.321 23.4831)
(-5.11449e-14 6.44815 2.9091)
(1.29657e-17 114.351 190.745)
(9.56565e-16 168.898 283.747)
(8.51686e-16 166.934 276.589)
(8.63338e-16 155.332 254.121)
(1.00129e-15 144.992 234.078)
(-3.31864e-16 136.98 216.723)
(-1.44561e-15 129.745 201.114)
(-1.90943e-15 122.739 185.667)
(-2.61759e-15 115.234 170.061)
(-3.15723e-15 107.204 154.166)
(-4.02856e-15 98.6195 138.131)
(-4.62533e-15 89.5801 122.069)
(-6.13516e-15 80.0821 106.097)
(-7.80416e-15 70.2087 90.1758)
(-9.21229e-15 59.6956 74.2548)
(-1.21137e-14 48.6835 57.8317)
(-1.54184e-14 36.1789 40.6678)
(-2.33421e-14 22.4406 19.7514)
(-4.21703e-14 0.685349 -6.89292)
(-1.14773e-13 -9.32556 -34.8639)
(-7.31415e-18 137.463 233.26)
(-2.52481e-16 183.385 303.855)
(-2.43084e-16 172.846 288.456)
(-2.29924e-16 163.228 267.252)
(-3.42452e-16 154.3 250.912)
(4.80502e-16 148.367 235.927)
(9.58856e-16 141.56 220.868)
(1.111e-15 133.965 203.754)
(1.27084e-15 124.908 185.256)
(1.39124e-15 115.068 165.871)
(1.52815e-15 104.519 146.172)
(1.74646e-15 93.438 126.3)
(2.1861e-15 81.6756 106.37)
(2.63999e-15 69.235 86.3079)
(3.05155e-15 55.7592 66.1936)
(3.71921e-15 41.3761 45.3465)
(5.13826e-15 25.1324 24.8842)
(5.52593e-15 8.53327 0.516546)
(5.09954e-15 -15.8574 -27.032)
(-1.0165e-13 -23.212 -61.0123)
(2.77668e-18 156.87 274.369)
(6.23222e-17 181.056 304.781)
(6.3907e-17 164.986 288.023)
(5.754e-17 158.659 273.114)
(9.79859e-17 149.848 261.509)
(-1.48166e-16 143.693 248.887)
(-2.95389e-16 134.122 233.473)
(-3.46121e-16 122.847 213.633)
(-3.80509e-16 109.547 192.024)
(-3.93806e-16 95.8949 169.46)
(-4.19135e-16 81.4385 146.355)
(-4.94245e-16 66.4099 122.22)
(-6.16089e-16 50.3037 96.8396)
(-8.12992e-16 33.1932 69.9862)
(-1.28824e-15 15.4918 41.8074)
(-1.42345e-15 -4.39899 10.3211)
(1.77058e-15 -21.8606 -17.0397)
(6.17792e-15 -25.1279 -28.6958)
(-8.96709e-15 -46.1991 -54.2911)
(-6.07978e-14 -34.9844 -66.5503)
(-1.30231e-18 153.694 275.297)
(-1.60522e-17 160.651 280.218)
(-1.63833e-17 148.71 271.373)
(-1.77975e-17 141.715 260.054)
(-1.69388e-17 131.099 248.986)
(5.66434e-17 121.583 236.165)
(9.22037e-17 108.135 218.969)
(9.94931e-17 92.9564 197.379)
(1.02488e-16 76.6048 174.782)
(1.14532e-16 60.3419 151.729)
(1.297e-16 43.4558 128.124)
(1.44194e-16 26.0969 103.499)
(1.62597e-16 8.23759 78.0466)
(2.00846e-18 -9.23254 52.4943)
(-5.12848e-16 -24.4973 29.0356)
(-1.91215e-16 -35.3556 9.82466)
(3.189e-15 -40.3523 -4.81912)
(7.87238e-15 -35.2121 -9.93838)
(6.02853e-15 -15.7209 4.85374)
(-3.7264e-15 7.04344 27.9692)
(6.47344e-19 133.729 239.009)
(4.04234e-18 144.301 256.747)
(4.35366e-18 133.205 244.509)
(4.61451e-18 122.438 229.838)
(-4.87427e-19 109.903 216.269)
(-1.94265e-17 98.4086 202.658)
(-2.72913e-17 84.2278 186.184)
(-3.20503e-17 68.9304 165.915)
(-3.32438e-17 52.6633 144.306)
(-2.42252e-17 36.4156 121.631)
(-2.06589e-17 19.95 98.4948)
(-4.39247e-17 4.21915 75.7544)
(-6.32197e-17 -9.44051 55.4736)
(-3.60042e-17 -18.4123 40.7837)
(4.3592e-17 -19.0204 36.6603)
(2.802e-16 -7.24873 49.3577)
(7.67696e-16 18.2131 81.3954)
(1.0723e-15 51.8362 122.971)
(6.15706e-16 78.7497 148.825)
(8.03527e-17 61.8354 119.315)
(-2.13128e-19 123.42 216.406)
(-9.6625e-19 142.896 247.795)
(-1.05938e-18 131.223 229.849)
(-9.86582e-19 119.293 207.621)
(9.203e-19 106.703 190.573)
(5.72213e-18 98.0267 175.069)
(6.61376e-18 87.4071 160.886)
(4.50183e-18 77.7283 143.934)
(2.74311e-18 66.8309 126.363)
(1.30357e-17 56.7925 107.454)
(4.3368e-17 47.1963 88.9255)
(7.22785e-17 40.1156 72.8916)
(7.09942e-17 37.6919 63.9573)
(6.19493e-17 41.8563 65.7749)
(8.69867e-17 51.4804 77.5294)
(1.16875e-16 64.625 97.0662)
(4.38714e-17 79.714 120.244)
(-2.11858e-16 89.3181 140.473)
(-4.86689e-16 90.0536 142.954)
(-3.35084e-16 64.5893 113.941)
(5.61349e-20 123.171 215.773)
(2.19858e-19 152.004 258.465)
(2.44741e-19 138.372 238.721)
(2.40172e-19 126.87 211.61)
(-1.70352e-19 115.26 195.933)
(-1.29771e-18 109.834 180.585)
(-1.59754e-18 101.903 168.592)
(-1.22895e-18 96.7036 155.747)
(-8.62064e-19 90.8368 144.348)
(-2.68808e-18 86.3124 132.895)
(-7.9661e-18 82.0217 121.664)
(-1.01812e-17 78.1731 110.115)
(5.8953e-18 74.5085 98.4033)
(5.37036e-17 71.1269 87.7999)
(1.27441e-16 68.7823 80.6345)
(1.87468e-16 67.9303 79.4296)
(1.8028e-16 68.4751 84.0943)
(1.0284e-16 67.9631 90.7703)
(4.91011e-17 61.7358 90.2812)
(7.29214e-17 40.7473 63.829)
(-1.45655e-20 126.007 221.098)
(-5.00668e-20 161.243 270.39)
(-5.81816e-20 141.95 245.657)
(-6.00289e-20 131.956 217.723)
(2.79163e-20 120.647 204.218)
(2.78774e-19 116.213 189.144)
(3.65779e-19 108.262 177.057)
(3.17863e-19 102.708 163.755)
(3.54064e-19 96.2365 151.797)
(9.58141e-19 90.6026 140.127)
(2.17784e-18 85.0436 129.193)
(2.03176e-18 79.8114 118.742)
(-3.31436e-18 74.7403 108.642)
(-1.61659e-17 69.7841 98.6234)
(-3.42768e-17 64.6285 88.6605)
(-5.20484e-17 59.4515 79.0186)
(-6.43654e-17 53.5038 70.5526)
(-6.81699e-17 47.3137 62.3018)
(-5.92606e-17 35.903 51.2406)
(-4.84006e-17 15.6426 17.0644)
(3.45095e-21 131.948 233.113)
(1.18876e-20 167.995 277.793)
(1.4369e-20 141.989 248.835)
(1.52067e-20 136.121 222.826)
(-4.269e-21 123.635 211.187)
(-6.14861e-20 120.182 195.42)
(-8.59715e-20 111.273 183.615)
(-8.07804e-20 105.909 169.801)
(-9.99124e-20 98.8829 157.561)
(-2.40193e-19 92.9017 144.991)
(-4.8739e-19 86.6305 132.969)
(-4.3371e-19 80.5626 121.112)
(5.92936e-19 74.3681 109.577)
(2.79876e-18 68.1027 98.1604)
(5.51078e-18 61.2529 86.7023)
(7.87006e-18 53.9717 74.5206)
(9.94785e-18 44.8453 61.4175)
(1.34889e-17 34.9381 45.5465)
(2.13764e-17 17.8617 24.478)
(2.43916e-17 0.612322 -10.9295)
(-7.82948e-22 141.824 253.613)
(-2.90554e-21 172.017 279.929)
(-3.60685e-21 142.855 253.824)
(-3.92091e-21 142.24 230.106)
(1.87764e-22 128.046 219.888)
(1.32762e-20 126.184 203.348)
(2.0595e-20 116.512 191.985)
(2.12697e-20 112.14 178.043)
(2.53473e-20 105.283 166.226)
(4.76399e-20 100.008 153.641)
(8.19873e-20 94.0307 141.329)
(6.73427e-20 87.9448 128.303)
(-7.62921e-20 80.9342 114.52)
(-3.35288e-19 72.9096 99.5956)
(-5.48546e-19 63.3164 83.6403)
(-4.86207e-19 52.6681 66.3464)
(-5.08807e-20 39.5692 47.8923)
(1.00924e-18 25.8094 26.0341)
(1.89973e-18 3.48453 -0.189808)
(2.36953e-17 -11.7367 -36.8268)
(1.80738e-22 151.069 276.347)
(7.2658e-22 172.024 277.192)
(9.1279e-22 142.91 259.683)
(1.01551e-21 147.041 238.224)
(1.58539e-22 130.598 229.645)
(-2.84462e-21 130.871 213.047)
(-4.92644e-21 120.191 203.222)
(-5.57688e-21 117.597 190.007)
(-6.38633e-21 110.861 179.736)
(-9.25781e-21 106.867 167.962)
(-1.30248e-20 101.015 155.94)
(-1.08153e-20 94.3675 141.265)
(7.36372e-21 84.9733 123.649)
(4.81638e-20 73.1842 102.933)
(9.03205e-20 59.0135 80.4351)
(4.27072e-20 43.6722 56.4021)
(-2.25804e-19 25.9568 31.8511)
(-5.33577e-19 8.94455 3.5447)
(-2.5759e-18 -17.626 -26.1063)
(1.595e-17 -25.4874 -63.5964)
(-4.4579e-23 153.286 287.071)
(-1.88099e-22 165.59 267.687)
(-2.34507e-22 138.864 259.785)
(-2.61847e-22 144.107 239.516)
(-5.32312e-23 125.766 232.177)
(6.92462e-22 126.288 216.288)
(1.18896e-21 114.189 208.176)
(1.37873e-21 111.937 196.34)
(2.04673e-21 104.102 188.115)
(3.56223e-21 99.9058 177.453)
(1.34133e-21 91.8204 165.113)
(-1.28462e-20 81.6016 146.404)
(-1.56372e-20 66.3247 121.383)
(7.7819e-20 48.8367 92.3028)
(2.13554e-19 30.7071 63.0329)
(-5.39271e-20 12.5204 33.4315)
(-8.10172e-19 -3.53581 8.25158)
(-1.34159e-18 -16.3775 -14.5185)
(1.0541e-18 -38.7564 -45.8336)
(9.17389e-18 -31.2727 -56.7137)
(1.20594e-23 146.861 279.068)
(4.93665e-23 158.735 256.775)
(6.25239e-23 131.938 250.686)
(7.02359e-23 136.151 230.198)
(4.82468e-24 117.668 222.608)
(-2.05083e-22 116.007 207.269)
(-3.96383e-22 103.985 198.573)
(-3.9366e-22 99.1657 187.344)
(3.28768e-22 90.5644 178.686)
(8.87107e-22 83.6436 168.082)
(-6.17572e-21 73.3216 154.48)
(-2.28462e-20 60.0235 134.131)
(1.2515e-20 43.3303 108.172)
(1.91275e-19 26.8137 80.9996)
(2.36686e-19 11.576 54.8244)
(-6.914e-19 -4.00077 26.4708)
(-2.642e-18 -19.0291 -2.22918)
(-3.47343e-18 -24.7846 -17.2962)
(-1.60329e-18 -13.8978 -6.04953)
(8.76902e-19 5.67893 24.5689)
(-3.0829e-24 139.162 270.318)
(-1.30242e-23 156.421 246.637)
(-1.65909e-23 125.255 241.418)
(-1.70094e-23 132.471 219.074)
(3.89014e-24 112.827 211.397)
(4.81462e-23 111.585 195.016)
(4.85363e-23 99.7448 185.072)
(8.74065e-23 94.4798 172.597)
(5.58287e-22 86.0581 162.372)
(1.12582e-21 79.1742 151.132)
(-2.14449e-21 70.6397 138.849)
(-1.17401e-20 61.3715 123.698)
(-5.35018e-21 51.5856 106.539)
(5.451e-20 43.0566 89.4463)
(1.01398e-19 36.1257 73.5358)
(-1.01528e-19 30.7502 58.7226)
(-6.33291e-19 28.4931 47.4955)
(-1.19408e-18 26.8441 41.4551)
(-1.90404e-18 33.4442 44.7851)
(-1.47189e-18 30.2449 54.2873)
(9.31664e-25 130.892 268.725)
(3.18144e-24 156.262 241.51)
(3.96396e-24 119.26 239.707)
(5.34211e-24 128.138 218.029)
(1.66358e-24 109.149 210.34)
(-1.32351e-23 107.191 195.208)
(-4.26216e-23 96.9866 184.837)
(-9.14577e-23 91.8288 172.696)
(-7.47854e-23 84.8951 162.066)
(3.16121e-22 79.4614 151.261)
(1.37891e-21 73.9272 140.967)
(1.60676e-21 69.0888 130.616)
(-5.14174e-21 64.5886 120.062)
(-2.49485e-20 60.4619 108.937)
(-4.32242e-20 56.3089 96.9095)
(-8.43165e-21 50.9238 82.3346)
(1.28923e-19 42.1709 62.013)
(3.8331e-19 28.2149 33.0876)
(5.20147e-19 7.5796 -0.115622)
(1.18407e-19 -5.88671 -26.5906)
(-2.11911e-25 108.656 255.089)
(-1.18141e-24 149.057 225.585)
(-1.78328e-24 108.25 228.506)
(-4.07811e-25 114.766 213.008)
(4.88856e-24 98.7534 207.116)
(8.54918e-24 94.2957 197.216)
(-8.55551e-24 85.6125 189.477)
(-6.50475e-23 79.7447 181.125)
(-1.0313e-22 73.5718 173.34)
(1.20323e-22 68.4044 165.599)
(8.64754e-22 63.6102 158.058)
(1.6497e-21 59.3066 150.444)
(6.17565e-22 55.203 142.467)
(-4.02823e-21 51.1102 133.689)
(-9.43674e-21 46.6853 123.435)
(-2.29393e-21 41.0814 110.058)
(4.32338e-20 32.098 89.6341)
(1.49083e-19 16.4838 55.228)
(2.79135e-19 -6.82662 3.90417)
(2.72066e-19 -19.0104 -36.5778)
(1.29899e-25 35.9623 158.158)
(2.55198e-25 78.4166 130.835)
(7.49329e-26 52.7683 138.968)
(-1.4805e-25 52.6307 134.939)
(-6.5621e-26 44.2014 134.952)
(-7.49588e-25 39.8669 133.352)
(-6.61663e-24 34.9327 132.134)
(-2.39357e-23 31.1063 130.58)
(-5.05969e-23 27.6979 128.91)
(-4.90867e-23 24.9119 126.992)
(9.50436e-23 22.6326 124.819)
(5.58286e-22 20.9078 122.391)
(1.34257e-21 19.779 119.777)
(1.77849e-21 19.336 117.087)
(2.75124e-22 19.7985 114.364)
(-4.77263e-21 21.1669 111.698)
(-1.27664e-20 23.051 109.031)
(-1.88951e-20 27.5432 103.389)
(-1.58169e-20 30.7903 90.3245)
(-3.66285e-21 7.06312 64.8391)
(-5.59721e-26 -35.9641 158.16)
(9.15264e-26 -78.4178 130.838)
(2.47316e-25 -52.77 138.971)
(4.17123e-25 -52.6322 134.941)
(5.74638e-25 -44.2031 134.955)
(6.60103e-25 -39.8688 133.354)
(6.89832e-25 -34.9351 132.136)
(9.31291e-25 -31.1099 130.583)
(1.9611e-24 -27.7033 128.914)
(4.38819e-24 -24.9192 126.997)
(8.77967e-24 -22.641 124.825)
(1.6353e-23 -20.9158 122.395)
(2.79615e-23 -19.785 119.777)
(3.63933e-23 -19.3393 117.08)
(1.57321e-23 -19.7986 114.349)
(-7.28743e-23 -21.1634 111.677)
(-2.43512e-22 -23.0438 109.009)
(-4.23311e-22 -27.5304 103.372)
(-4.1536e-22 -30.7678 90.3065)
(-1.11007e-22 -7.05312 64.8045)
(3.12208e-25 -108.653 255.087)
(-7.18902e-26 -149.059 225.579)
(-5.11944e-25 -108.25 228.499)
(-1.0295e-24 -114.771 212.999)
(-1.86799e-24 -98.7591 207.104)
(-3.18815e-24 -94.3047 197.202)
(-4.90337e-24 -85.6246 189.458)
(-6.69929e-24 -79.7608 181.103)
(-7.61778e-24 -73.5934 173.314)
(-3.34897e-24 -68.4337 165.572)
(1.49844e-23 -63.6498 158.033)
(4.84799e-23 -59.3577 150.422)
(6.92329e-23 -55.2643 142.446)
(3.78265e-23 -51.1796 133.668)
(-3.94879e-24 -46.7659 123.429)
(2.03742e-22 -41.1839 110.098)
(1.29267e-21 -32.222 89.7349)
(4.07885e-21 -16.5925 55.3384)
(7.13623e-21 6.80378 3.9224)
(3.36937e-21 19.068 -36.6703)
(-1.29944e-24 -130.874 268.703)
(3.36183e-25 -156.264 241.47)
(2.31662e-24 -119.248 239.672)
(4.37558e-24 -128.145 217.974)
(6.56792e-24 -109.149 210.285)
(8.94275e-24 -107.202 195.14)
(1.18743e-23 -96.997 184.761)
(1.65939e-23 -91.8446 172.607)
(2.47833e-23 -84.913 161.966)
(3.79491e-23 -79.484 151.149)
(6.29717e-23 -73.9561 140.847)
(1.14109e-22 -69.1322 130.497)
(1.46205e-22 -64.6621 119.961)
(-8.90137e-23 -60.5876 108.885)
(-9.48358e-22 -56.4884 96.9354)
(-2.25743e-21 -51.143 82.4495)
(-2.5553e-21 -42.4321 62.28)
(-6.77043e-22 -28.48 33.4517)
(3.40674e-21 -7.74715 0.236935)
(1.94249e-20 5.78337 -26.4185)
(5.71239e-24 -139.115 270.205)
(-3.80868e-25 -156.348 246.504)
(-8.17265e-24 -125.183 241.28)
(-1.67721e-23 -132.414 218.937)
(-2.72411e-23 -112.77 211.256)
(-4.09024e-23 -111.537 194.861)
(-5.72308e-23 -99.6988 184.907)
(-7.49788e-23 -94.4412 172.417)