/*--------------------------------*- C++ -*----------------------------------*\
| =========                 |                                                 |
| \\      /  F ield         | OpenFOAM: The Open Source CFD Toolbox           |
|  \\    /   O peration     | Version:  4.1                                   |
|   \\  /    A nd           | Web:      www.OpenFOAM.org                      |
|    \\/     M anipulation  |                                                 |
\*---------------------------------------------------------------------------*/
FoamFile
{
    version     2.0;
    format      ascii;
    class       volScalarField;
    location    "7";
    object      p;
}
// * * * * * * * * * * * * * * * * * * * * * * * * * * * * * * * * * * * * * //

dimensions      [0 2 -2 0 0 0 0];

internalField   nonuniform List<scalar> 
1680
(
-7.53689
-4.93328
-1.9692
-3.05296
-4.1543
-2.27157
-3.13117
-4.22387
-2.1611
-3.45189
-4.05825
-3.62012
-4.48248
-2.47898
-4.17332
-5.37339
-4.27856
-7.49408
-0.690379
-11.0642
-1.50897
-28.321
0.130902
-1.85364
-0.776641
0.576981
1.6231
2.56752
4.30278
4.6685
7.94715
-18.7292
-1.52335
-1.66579
-0.722476
-0.280544
0.818542
0.816067
5.36165
-1.39931
-50.9594
-21.8491
-18.2678
0.775033
-5.69895
-5.36338
-1.66205
7.34079
3.75006
4.16479
5.68942
5.71032
5.72583
5.74975
5.58343
5.64672
5.7616
5.80211
5.61859
5.7469
19.4675
-4.46233
6.6201
3.95354
4.1965
3.78524
1.32176
-7.41022
-15.0241
-15.7153
-0.249684
2.5476
2.55485
0.715873
0.906512
-2.23468
-10.4524
10.3056
9.1758
21.6142
-2.23963
5.12006
3.63035
3.1192
2.94301
0.076538
-10.2954
-15.7938
-16.7401
-0.928871
1.4765
1.7094
0.571651
-0.319887
-3.1557
-7.37038
9.54016
3.46797
23.2941
-0.173327
3.29705
3.4994
1.93453
2.098
-1.11086
-13.236
-16.6978
-17.4499
-1.59574
0.477681
0.898224
0.324313
-0.473863
-2.71972
-4.53552
5.45073
5.87435
23.8977
2.61166
1.13498
3.57619
0.720441
1.34431
-2.16404
-16.0865
-17.7432
-17.8463
-2.2325
-0.424544
0.31905
0.181417
-0.463886
-2.26662
-2.43984
1.96464
14.5163
21.9788
5.83446
-1.39783
3.77483
-0.461228
0.722092
-3.07066
-18.6781
-18.8204
-17.8816
-2.80502
-1.21001
-0.125703
0.0156935
-0.444517
-1.93775
-1.72306
0.0711565
14.8852
16.9381
8.85892
-4.26999
3.98112
-1.60745
0.204081
-3.86185
-20.8185
-19.9297
-17.551
-3.29862
-1.85379
-0.461972
-0.151129
-0.516906
-1.81419
-1.71095
0.0653014
1.00924
9.01624
11.5026
-7.41209
4.13154
-2.73357
-0.256913
-4.56733
-22.2993
-21.3161
-16.9399
-3.75518
-2.35665
-0.72995
-0.320126
-0.588932
-1.71183
-1.64014
-0.299767
-2.06272
-1.09925
13.8262
-10.6805
4.23868
-3.82962
-0.688906
-5.18577
-22.7223
-22.9011
-16.1686
-4.22243
-2.74262
-0.959457
-0.502852
-0.688767
-1.64736
-1.61977
-0.671043
-1.77238
-13.1776
15.9398
-14.1199
4.29477
-4.91066
-1.09954
-5.7133
-21.6879
-24.2115
-15.3028
-4.67298
-3.03983
-1.1734
-0.691045
-0.799175
-1.61629
-1.62786
-0.809901
-1.7371
-26.3109
18.0391
-17.5612
4.39862
-5.91106
-1.42004
-6.14707
-19.3222
-24.5324
-14.2889
-5.04935
-3.26713
-1.38406
-0.883387
-0.918665
-1.60485
-1.63872
-1.10234
-1.78726
-42.3312
20.1905
-21.5315
4.54213
-6.86307
-1.56494
-6.51296
-15.9948
-23.6859
-13.0588
-5.31929
-3.4443
-1.5942
-1.07393
-1.04386
-1.61383
-1.66121
-1.2549
-1.8543
-57.3367
22.6261
-25.1839
4.96185
-7.49049
-1.28902
-6.79165
-12.4725
-22.1883
-11.8348
-5.5337
-3.61165
-1.81575
-1.26752
-1.17703
-1.6429
-1.69281
-1.43523
-1.88615
-82.5868
25.141
-30.5203
5.35433
-8.11897
-0.741402
-7.23083
-9.68411
-20.5645
-10.8578
-5.72515
-3.78589
-2.04594
-1.46254
-1.31521
-1.68649
-1.73105
-1.59775
-1.9415
-93.0979
28.0952
-32.7379
6.11463
-7.85426
0.45538
-7.60103
-8.01053
-18.8251
-9.99095
-5.77119
-3.88509
-2.21773
-1.61453
-1.42277
-1.71093
-1.74518
-1.69394
-1.9719
-153.351
31.026
-41.4807
6.26076
-8.68023
0.866117
-8.50164
-7.32347
-17.1549
-9.50173
-5.89704
-4.05429
-2.4212
-1.78497
-1.55162
-1.76935
-1.79028
-1.81113
-2.0062
-111.248
33.919
-33.9402
7.13439
-6.39049
3.05197
-8.16215
-7.42562
-15.9074
-9.90145
-6.54809
-4.64121
-2.91441
-2.15284
-1.83546
-1.97454
-1.9709
-2.08721
-2.21694
-343.701
39.2686
-58.8026
6.3839
-10.1745
0.879967
-9.06018
-7.58213
-13.2997
-8.67082
-6.0228
-4.37846
-2.82912
-2.10777
-1.77815
-1.85484
-1.83514
-1.96924
-2.0561
62.0006
34.5449
-7.95498
7.7633
-0.282727
7.76604
-4.48328
-6.97432
-8.40807
-5.12081
-3.78166
-2.74658
-1.75148
-1.35975
-1.17944
-1.26539
-1.26108
-1.32311
-1.40457
-1128.49
60.513
-112.494
4.97826
-18.5978
-5.60866
-5.96395
-7.17354
-14.3447
-13.028
-10.0604
-7.61929
-5.20935
-3.87345
-3.21875
-3.15282
-3.0519
-3.40215
-3.34133
1790.77
-31.6985
139.335
8.27035
25.3525
24.3097
4.5928
-6.55538
-22.5308
-22.2349
-17.3699
-13.3587
-9.33648
-6.83964
-5.57207
-5.27527
-5.06424
-5.77559
-5.62776
98.2157
97.5509
97.1409
96.2372
95.3176
94.337
93.3474
92.3184
91.2929
90.272
89.2323
88.2781
87.1865
85.9974
84.9175
83.8869
82.9669
82.0278
81.4125
80.2504
77.7774
78.2444
78.3987
78.6022
78.7498
78.8235
78.8786
78.8672
78.8371
78.7531
78.6518
78.5147
78.3328
78.1254
77.9097
77.6743
77.449
77.2141
76.941
76.7384
86.1594
85.8585
85.7174
85.4971
85.3319
85.1214
84.9344
84.7205
84.5153
84.291
84.0704
83.8309
83.5995
83.3435
83.0997
82.8279
82.5806
82.2919
82.0185
81.6988
83.4945
83.4742
83.4731
83.434
83.421
83.371
83.336
83.2749
83.2191
83.1442
83.0696
82.9785
82.8879
82.7778
82.6752
82.5432
82.4336
82.2781
82.1256
81.9529
85.8042
85.6701
85.6269
85.524
85.4636
85.3715
85.3006
85.2121
85.1337
85.0441
84.9595
84.8652
84.7758
84.6729
84.5813
84.464
84.3765
84.2348
84.1445
83.9562
86.1475
86.0765
86.063
86.0037
85.9771
85.925
85.8904
85.8413
85.8014
85.7527
85.7092
85.6587
85.6133
85.5582
85.5141
85.4491
85.4133
85.3265
85.3141
85.1869
87.1986
87.1204
87.1034
87.0423
87.013
86.9622
86.9282
86.8828
86.8469
86.8048
86.7686
86.7282
86.6934
86.6524
86.622
86.5761
86.5567
86.4944
86.5078
86.4205
87.828
87.7664
87.7546
87.7056
87.6839
87.6435
87.6177
87.5824
87.5552
87.5233
87.4963
87.4665
87.4415
87.4122
87.3918
87.3599
87.3492
87.3064
87.3221
87.2705
88.5145
88.4543
88.4407
88.3934
88.371
88.3317
88.3058
88.2713
88.2442
88.2131
88.1862
88.1574
88.1323
88.1042
88.0832
88.0534
88.0405
88.0034
88.0087
87.9686
89.0933
89.0372
89.0233
88.9791
88.9575
88.9201
88.895
88.8619
88.8352
88.805
88.778
88.7497
88.7239
88.6959
88.6733
88.6434
88.6274
88.5914
88.5883
88.5481
89.6541
89.5996
89.5851
89.5422
89.5204
89.4837
89.4584
89.4256
89.3984
89.3683
89.3404
89.3118
89.2845
89.2561
89.2314
89.2008
89.1818
89.1449
89.1368
89.0923
90.1748
90.1227
90.1082
90.0672
90.0459
90.0105
89.9857
89.9538
89.927
89.8975
89.8696
89.8417
89.8138
89.7861
89.7601
89.7301
89.7093
89.6728
89.6623
89.6152
90.6722
90.6224
90.608
90.5687
90.5479
90.5138
90.4896
90.4588
90.4326
90.4041
90.3766
90.3497
90.3218
90.2954
90.2688
90.2403
90.2184
90.1835
90.1716
90.1243
91.1458
91.0986
91.0843
91.0469
91.0267
90.994
90.9706
90.941
90.9156
90.8882
90.8615
90.8357
90.8082
90.7833
90.7564
90.7302
90.7073
90.6749
90.662
90.6162
91.5973
91.5533
91.5395
91.5043
91.4851
91.4541
91.4319
91.4038
91.3795
91.3535
91.3279
91.3033
91.2767
91.2534
91.2264
91.2027
91.1787
91.1495
91.1352
91.0919
92.0162
91.9756
91.9622
91.9296
91.9121
91.8831
91.8627
91.837
91.8145
91.7908
91.7672
91.7447
91.72
91.6991
91.673
91.6529
91.6281
91.6032
91.5877
91.5482
92.4111
92.3738
92.3591
92.3269
92.3107
92.2823
92.2621
92.2379
92.2158
92.1933
92.171
92.1496
92.1269
92.1076
92.0831
92.0672
92.0416
92.0234
92.0076
91.9734
92.8105
92.7832
92.7719
92.7395
92.7265
92.701
92.6813
92.6587
92.6365
92.6137
92.5901
92.5663
92.5412
92.5173
92.4891
92.4689
92.4348
92.4197
92.3935
92.3559
93.0846
93.0755
93.0906
93.07
93.0702
93.0628
93.0581
93.0529
93.0473
93.0409
93.0332
93.0237
93.0117
92.997
92.9767
92.9557
92.9172
92.8959
92.8239
92.767
93.05
92.9917
93.0298
93.0405
93.058
93.0757
93.0946
93.1153
93.138
93.163
93.1909
93.2219
93.2567
93.2955
93.339
93.3881
93.4408
93.5094
93.5507
93.7139
5.78495
5.7576
5.69066
5.69764
5.69177
5.71408
5.70925
5.69675
5.67918
5.60833
5.10925
5.08803
6.17328
1.14847
-1.02893
-0.291487
2.83523
-13.7835
-11.2604
-17.7862
-16.3205
-10.9557
-9.12961
-6.53805
-5.03514
-3.07843
-0.984752
-2.72311
-4.75472
5.91483
6.91215
7.87106
8.16196
7.99097
7.24881
7.90552
7.92194
-0.941968
-30.7747
-14.5439
-21.3212
-9.02637
-23.1727
-17.1535
-21.6036
-16.5919
-9.77312
-18.9359
-13.805
-15.547
-12.2278
-9.24927
-14.0987
-11.9564
-12.6586
-15.7883
-15.8047
-16.1648
-16.1079
-16.1809
23.0219
23.3533
21.6606
9.54482
9.45656
16.841
15.7589
13.7159
11.3993
11.6579
15.4451
22.5922
31.5888
38.6166
32.161
-3.09373
-52.2285
-49.3606
-24.8664
23.0154
23.366
21.4137
9.1851
9.00386
16.8484
15.7864
13.4646
10.9116
11.2496
15.175
22.3002
31.0798
38.0017
31.2418
-4.57202
-55.3722
-52.9164
-26.2197
23.0442
23.2508
21.4254
8.98191
8.48928
16.0402
15.116
12.6722
10.3223
10.8543
14.741
21.7018
30.1109
36.7478
29.424
-7.12472
-59.5872
-58.9312
-28.8668
23.0783
22.9927
21.6903
9.54154
8.52345
14.5745
14.0466
11.8207
9.64075
10.2795
14.1561
20.9027
28.8062
35.0363
27.0201
-10.3613
-64.5127
-65.4122
-31.6665
23.0624
22.5655
21.7583
10.8876
9.39835
13.5274
12.98
10.9862
8.96667
9.65311
13.5049
19.9813
27.2577
32.9324
24.2761
-13.9906
-69.383
-71.5473
-34.5369
22.9554
21.7047
21.457
12.0677
10.3411
12.6444
11.9766
10.2503
8.32374
9.02562
12.813
18.9733
25.5031
30.4931
21.3965
-17.6771
-73.7536
-76.7215
-38.025
22.6145
20.5418
20.8028
12.7563
11.0397
11.8196
11.1099
9.65426
7.7062
8.40664
12.0464
17.8627
23.5337
27.7539
18.4807
-21.1124
-77.0918
-80.471
-40.6549
22.0261
19.0735
19.9899
12.9392
11.4178
11.0865
10.4141
9.16979
7.0304
7.71493
11.1633
16.6433
21.3707
24.7971
15.6033
-23.9175
-79.0874
-82.4148
-42.3872
21.3002
17.3061
19.2612
12.6639
11.5079
10.4406
9.85295
8.74456
6.18854
6.84323
10.1447
15.3341
19.0661
21.7042
12.859
-25.7117
-79.5167
-82.4942
-42.9975
20.5287
15.3874
18.5719
12.0376
11.371
9.8737
9.36462
8.32613
5.0541
5.70555
9.00336
13.9591
16.6759
18.5476
10.3068
-26.3409
-78.1346
-80.8536
-41.6755
19.747
13.4671
17.7382
11.2753
11.0659
9.37153
8.90982
7.87238
3.51606
4.22134
7.71954
12.5346
14.2461
15.3901
7.9665
-25.8097
-75.1803
-77.6704
-40.2902
18.9634
11.5701
16.7346
10.5297
10.6253
8.91636
8.46594
7.32553
1.47008
2.33584
6.28148
11.101
11.8653
12.3172
5.81295
-24.065
-70.7667
-73.132
-35.9123
18.1902
9.6591
15.6378
9.77405
10.1017
8.4912
8.01541
6.62573
-1.15595
0.123089
4.8302
9.83346
9.73726
9.4575
3.8532
-21.5392
-66.6242
-67.3808
-34.6962
17.4305
7.66457
14.522
8.97348
9.55392
8.07659
7.53717
5.72901
-4.22419
-2.01739
3.74919
9.01015
8.06961
6.91716
2.1923
-18.4195
-62.6249
-61.6954
-28.5362
16.6542
5.44338
13.424
8.14651
9.00081
7.64772
7.00135
4.61618
-7.25882
-3.80558
3.20945
8.49599
6.78064
4.61914
0.839283
-14.5092
-53.054
-52.268
-22.9724
15.8501
2.85419
12.3418
7.30968
8.41371
7.17648
6.37171
3.28405
-9.78406
-5.79638
2.88417
7.85793
5.81414
2.39322
-0.111574
-10.6475
-40.2477
-33.6668
-2.52746
15.0622
-0.0458968
11.2508
6.48409
7.75092
6.63677
5.61625
1.72344
-11.5976
-8.24916
2.40789
6.88616
5.27538
0.716664
-0.201452
-7.38743
-28.8623
-15.3808
6.582
14.396
-2.71681
10.152
5.70716
6.98299
6.01544
4.7189
-0.109165
-12.7995
-10.6875
1.79782
5.83609
4.73421
0.405353
0.873083
-4.82475
-21.2765
-1.61019
6.62545
14.6085
-4.62381
9.03087
5.01292
6.11616
5.32247
3.68594
-2.25287
-13.6274
-12.7174
1.12529
4.78351
4.07785
0.715246
1.83555
-2.71937
-17.1159
6.56872
7.85744
16.7234
-5.29489
7.85708
4.42528
5.18296
4.57738
2.54172
-4.70134
-14.3204
-14.3715
0.433226
3.64543
3.34324
0.822154
1.94323
-1.74817
-14.1611
8.35605
9.93423
695.816
613.606
564.695
508.812
460.111
413.145
369.475
328.218
289.354
252.584
217.727
184.593
152.993
122.877
94.3135
66.5369
39.5478
17.0683
-8.0911
-43.7548
13.9643
-8.08092
0.194838
-10.5516
-13.0253
-19.4108
-24.1075
-29.1652
-33.5385
-37.4605
-40.6704
-43.0906
-44.5461
-44.8446
-43.8154
-41.7052
-38.833
-34.7266
-30.5941
-29.3161
5.60698
-1.7766
6.29513
-0.892804
1.09642
-2.39985
-3.69865
-6.3416
-8.6812
-11.3394
-13.9901
-16.6375
-19.0777
-21.0592
-22.4626
-23.5859
-24.4574
-25.185
-26.7228
-28.7755
-14.4214
-20.863
-19.6269
-27.6461
-28.7679
-34.7669
-38.1178
-42.8774
-46.8899
-51.1466
-55.1166
-58.9283
-62.2966
-65.0027
-66.8671
-68.2293
-69.3387
-70.2837
-71.8534
-71.298
-60.1967
-64.6869
-62.961
-67.4874
-66.1927
-69.4007
-69.5258
-71.3634
-72.1706
-73.3344
-74.1767
-74.9225
-75.3584
-75.3371
-74.7525
-73.7294
-72.8392
-71.4664
-70.3555
-67.3831
-52.5331
-53.7415
-50.317
-52.2119
-48.8093
-49.7347
-47.5587
-47.1675
-45.7857
-44.7675
-43.5598
-42.3391
-41.0465
-39.6033
-37.9804
-35.9854
-33.8554
-31.1288
-28.7843
-25.2352
-23.3019
-22.3478
-18.981
-19.598
-16.0297
-15.8995
-13.3794
-12.196
-10.3469
-8.70619
-6.97342
-5.20049
-3.38457
-1.49061
0.452459
2.50685
4.52444
6.73796
8.45507
10.8378
4.13028
5.6874
8.23386
8.00064
10.8454
11.1334
13.1416
14.2215
15.7256
17.1344
18.5883
20.0792
21.5663
23.03
24.4453
25.8546
27.2354
28.791
29.9861
31.4172
24.8639
26.9745
29.1642
29.6861
32.3515
33.2043
35.4063
36.7199
38.288
39.3376
39.9728
39.9415
39.2101
37.8631
36.3439
35.2282
35.2382
36.0134
36.9142
36.946
43.5846
44.251
44.9301
44.3449
45.1891
44.3059
44.2346
42.8919
41.5301
39.414
37.0038
34.2169
31.2698
28.3023
25.6202
23.5369
22.2196
21.3991
21.5113
19.7316
32.3974
28.472
27.5338
24.4844
23.1892
20.4925
18.7908
16.3736
14.3576
11.9916
9.60991
6.88999
3.90614
0.652199
-2.54996
-5.43433
-7.34106
-7.12927
-6.94388
-11.6676
-32.4579
-40.0433
-43.2717
-49.0584
-53.1732
-58.8221
-63.7445
-69.3204
-74.2622
-79.0684
-83.1534
-86.6179
-89.1774
-90.8049
-91.3559
-91.1655
-90.595
-88.8659
-88.8295
-89.4241
-82.1002
-87.3401
-89.156
-92.5861
-94.5573
-97.4773
-99.4412
-101.548
-102.819
-103.684
-103.917
-103.71
-103.087
-102.191
-101.139
-100.042
-98.7505
-97.346
-95.9811
-92.2788
-78.0118
-77.866
-76.874
-76.7353
-75.7557
-75.3524
-74.4751
-73.83
-73.0189
-72.2428
-71.4296
-70.604
-69.7358
-68.768
-67.6451
-66.1683
-64.1841
-60.7825
-58.0534
-54.4954
-57.0387
-54.5448
-51.2023
-48.4646
-45.7909
-43.6188
-41.3309
-39.251
-37.2055
-35.2576
-33.3858
-31.5679
-29.7945
-28.0356
-26.303
-24.5652
-22.9144
-21.2988
-20.0377
-18.395
-34.0715
-31.6405
-29.099
-26.7897
-24.7733
-23.1202
-21.4639
-20.0061
-18.6004
-17.308
-16.1074
-14.9942
-13.9743
-13.0326
-12.1917
-11.4162
-10.773
-10.1491
-9.7659
-9.23699
-15.3349
-13.6247
-13.1751
-12.3311
-11.6659
-11.0608
-10.4081
-9.86563
-9.3012
-8.80173
-8.3261
-7.88883
-7.49217
-7.11943
-6.79567
-6.47212
-6.21567
-5.90765
-5.71649
-5.38177
-0.393548
0.182696
-0.802937
-0.888201
-1.11809
-1.23123
-1.27247
-1.35094
-1.36047
-1.39268
-1.39673
-1.39638
-1.39105
-1.36202
-1.33836
-1.27413
-1.22592
-1.12295
-1.04883
-0.930722
-2.11935
-1.39264
-2.08901
-2.005
-2.04464
-1.9195
-1.82403
-1.81878
-1.80282
-1.85516
-1.90264
-1.97644
-2.05713
-2.13224
-2.21158
-2.25678
-2.30669
-2.30914
-2.31281
-2.26501
17.4169
17.9616
17.9992
17.4985
16.3659
14.9033
13.311
11.6061
9.96892
8.33197
6.85732
5.37031
3.93689
2.83699
1.92218
1.17156
0.599668
0.205829
0.00173797
-0.114496
)
;

boundaryField
{
    outletWallLeft
    {
        type            fixedValue;
        value           uniform 0;
    }
    fineWallsLeft
    {
        type            zeroGradient;
    }
    fineFrontAndBackLeft
    {
        type            zeroGradient;
    }
    fineplugLeft
    {
        type            cyclicAMI;
        value           nonuniform List<scalar> 
20
(
78.2708
82.93
77.7389
76.619
76.0988
75.585
75.0025
74.3682
73.8949
73.1513
72.9753
75.8484
69.4446
68.4648
67.7895
67.0534
66.5372
65.7854
66.2023
63.9204
)
;
    }
    symmetryWallLeft
    {
        type            cyclicAMI;
        value           nonuniform List<scalar> 
20
(
5.76593
9.55501
9.3308
-12.3068
-1.99142
1.42487
0.769013
2.94905
3.09652
0.0917708
-15.0434
-14.6723
-6.05578
1.93174
4.18131
4.68973
4.18941
7.23859
-4.87861
18.0954
)
;
    }
    inletOutletLeft
    {
        type            cyclicAMI;
        value           nonuniform List<scalar> 
20
(
63.9204
66.2023
65.7854
66.5372
67.0534
67.7895
68.4648
69.4446
75.8484
72.9753
73.1513
73.8949
74.3682
75.0025
75.585
76.0988
76.619
77.7389
82.93
78.2708
)
;
    }
    inletLeft
    {
        type            zeroGradient;
    }
    inletWallsLeft
    {
        type            zeroGradient;
    }
    inletFacesLeft
    {
        type            zeroGradient;
    }
    fineWallsRight
    {
        type            zeroGradient;
    }
    outletWallRight
    {
        type            zeroGradient;
    }
    fineplugRight
    {
        type            cyclicAMI;
        value           nonuniform List<scalar> 
20
(
-3.3557
-2.18976
-1.66126
-0.827875
-0.0697838
0.922056
2.07264
2.60489
4.19422
6.66882
8.04801
9.54935
10.9173
12.247
13.3724
14.6738
15.5832
14.2109
12.3005
11.0247
)
;
    }
    fineFrontAndBackRight
    {
        type            zeroGradient;
    }
    symmetryWallRight
    {
        type            cyclicAMI;
        value           nonuniform List<scalar> 
20
(
5.76593
9.55501
9.3308
-12.3068
-1.99142
1.42487
0.769013
2.94905
3.09652
0.0917708
-15.0434
-14.6723
-6.05578
1.93174
4.18131
4.68973
4.18941
7.23859
-4.87861
18.0954
)
;
    }
    inletOutletRight
    {
        type            cyclicAMI;
        value           nonuniform List<scalar> 
20
(
-3.3557
-2.18976
-1.66126
-0.827875
-0.0697838
0.922056
2.07264
2.60489
4.19422
6.66882
8.04801
9.54935
10.9173
12.247
13.3724
14.6738
15.5832
14.2109
12.3005
11.0247
)
;
    }
    inletRight
    {
        type            zeroGradient;
    }
    inletWallsRight
    {
        type            zeroGradient;
    }
    inletFacesRight
    {
        type            zeroGradient;
    }
}


// ************************************************************************* //
