/*--------------------------------*- C++ -*----------------------------------*\
| =========                 |                                                 |
| \\      /  F ield         | OpenFOAM: The Open Source CFD Toolbox           |
|  \\    /   O peration     | Version:  4.1                                   |
|   \\  /    A nd           | Web:      www.OpenFOAM.org                      |
|    \\/     M anipulation  |                                                 |
\*---------------------------------------------------------------------------*/
FoamFile
{
    version     2.0;
    format      ascii;
    class       volScalarField;
    location    "8";
    object      p;
}
// * * * * * * * * * * * * * * * * * * * * * * * * * * * * * * * * * * * * * //

dimensions      [0 2 -2 0 0 0 0];

internalField   nonuniform List<scalar> 
1280
(
0.0003923
-0.152937
0.110447
-0.176973
-0.168222
-0.212045
-0.65139
-0.818364
-1.11321
-1.28538
-2.20122
-2.14928
-2.80182
-4.42031
-4.37195
-6.14076
-8.86111
-9.30253
-11.7639
-20.7738
-15.1737
-0.106012
15.9652
19.7421
21.2798
26.4582
-4.86025
7.96215
7.93742
7.42873
6.77325
5.98171
5.17297
4.03893
3.19554
1.66465
0.934477
-1.30985
-2.1516
-4.30166
-33.4099
-15.5929
-8.95948
-4.48303
5.06446
6.68427
6.36578
7.01341
6.5866
6.91428
6.91957
6.50793
6.9262
6.33128
6.62323
5.1118
-4.58872
-9.14075
-15.8286
-32.956
-4.94686
-2.93932
-2.09207
0.179528
0.979729
2.55414
3.43982
4.59967
5.42927
6.238
6.9101
7.39817
7.44137
-4.57563
26.3632
21.1121
19.4568
15.6819
-0.294167
-15.3277
-20.9551
-12.0017
-9.54269
-9.05269
-6.37591
-4.49396
-4.45074
-2.90165
-2.2046
-2.19595
-1.35215
-1.14207
-0.82175
-0.650641
-0.234571
-0.202033
-0.163406
0.0925157
-0.123648
0.00082307
-0.0153826
-0.0156791
0.919676
1.02903
0.382484
-0.077019
0.0617358
-0.245465
-0.426527
-0.147327
0.303249
0.291577
0.103437
-0.335173
-0.238652
0.034765
0.0995781
-0.140546
-0.168629
-0.499731
0.235143
1.87112
2.97446
1.72839
0.653107
-0.194336
-0.938438
-0.737218
0.192844
1.88
2.15597
1.01262
-0.657909
-0.372059
0.250579
0.42757
-0.0233749
0.0073836
-1.19212
0.446753
2.69334
4.44709
2.47268
0.718752
-1.18101
-2.01855
-1.39002
-0.0562554
2.72974
3.49888
1.40564
-1.45122
-0.947178
0.357725
0.580236
-0.324426
-0.305636
-1.71791
0.497769
3.87988
6.4974
3.83432
1.09893
-2.22057
-2.97911
-2.21275
0.329934
4.36913
5.26655
1.42856
-2.82539
-1.99946
0.674113
0.970386
-0.197132
-0.0932004
-2.26864
0.626487
5.08343
7.95452
4.85931
1.44675
-3.24018
-3.74156
-2.67727
1.78576
6.99007
7.72972
0.435463
-6.13095
-4.28881
1.30482
1.38806
-1.0284
-1.09654
-2.30935
0.889226
6.14019
8.60541
5.65049
1.92993
-3.68519
-4.43251
-2.88215
3.55892
10.8381
12.0849
-0.539674
-9.61373
-7.01206
1.89223
2.46871
0.0830561
-0.520279
-2.08276
1.2763
6.736
8.35347
5.8077
2.24995
-3.60501
-4.94187
-2.50612
5.53076
14.6814
15.5657
-0.266285
-10.9203
-7.27199
2.51027
2.10536
-2.96273
-3.08192
-1.43557
1.80112
6.90975
7.65803
5.6564
2.65754
-2.79331
-4.47716
-1.46925
6.86281
16.5954
16.3391
0.274567
-12.086
-8.12719
3.18143
4.91725
3.29542
-1.24201
-0.730602
2.24735
6.7716
6.93944
5.4181
3.07196
-1.81459
-3.54228
-0.208049
8.3084
17.141
15.7754
3.03931
-9.42116
-6.58008
3.30152
5.12716
16.72
20.1779
0.0236553
2.68779
6.61688
6.49616
5.21714
3.05924
-1.64813
-3.32123
0.343608
9.37756
18.1742
16.3663
5.11973
-7.19023
-5.80823
3.71949
10.3056
29.5716
14.8563
0.264438
2.60703
6.41943
6.40776
5.0173
2.23261
-2.7721
-4.3582
-0.0200215
10.3389
19.7383
16.9185
4.71932
-8.40453
-7.65515
2.81803
10.0054
29.2474
14.9062
-0.0461702
2.31444
6.24598
6.51589
4.66228
0.974144
-3.93945
-5.25971
-0.535022
10.6485
21.456
17.4543
1.70316
-13.031
-12.1824
1.51309
6.73757
17.8945
20.6187
-0.812775
1.47906
6.01987
7.1097
4.66078
0.257222
-4.02522
-5.13848
-0.520199
10.4913
23.0055
18.5516
-1.40543
-18.1905
-15.9088
0.64817
7.84413
5.47513
-0.821156
-1.59705
0.569343
5.52289
7.39741
4.83319
0.0629668
-3.49978
-4.39891
-0.658584
8.58804
20.7634
17.2594
-3.43852
-17.5866
-14.5511
0.449307
4.45078
-1.5262
-2.94526
-2.09852
-0.327185
4.65168
6.79135
5.11011
0.597723
-2.4242
-3.01193
-0.831724
5.62162
15.2435
13.8842
-5.9124
-17.7032
-15.3485
-0.810949
3.84614
1.36937
-0.0612806
-2.30468
-0.881034
3.59278
5.4527
4.58915
1.35543
-1.00712
-1.49583
-0.723689
3.42848
10.1213
10.1732
-6.37545
-16.5412
-14.3999
-1.1387
2.18318
-0.359755
-0.759136
-1.91147
-0.958718
2.59899
4.1446
3.83005
1.74204
-0.145997
-0.539598
-0.0919173
2.61046
7.36818
7.38199
-4.70704
-13.2154
-11.0162
-1.23373
1.41329
0.165952
0.171333
-1.46463
-0.719082
1.75362
2.8803
2.75249
1.38803
0.159081
-0.0624924
0.265513
2.0044
5.0548
4.37883
-2.41481
-7.39062
-6.3968
-0.928506
0.791764
-0.177258
-0.138078
-0.520824
-0.447444
1.18068
2.06957
2.09372
1.14839
0.310645
0.136598
0.416757
1.60047
3.20739
1.98885
-0.564566
-2.74324
-2.96368
-0.650186
0.486646
0.0196569
0.11587
0.127645
-0.226536
0.53047
0.859147
0.72745
0.217596
-0.192683
-0.315675
-0.210544
0.216825
0.527475
0.0381623
-0.555688
-0.710353
-0.740053
-0.166017
0.168407
-0.128826
-0.15936
110.54
109.543
108.229
109.669
106.63
105.358
102.617
100.683
98.2221
96.4283
94.704
93.2448
92.113
90.9522
90.37
89.3131
89.3966
88.1674
89.2516
88.1252
59.4857
59.9529
60.1113
62.2554
61.2117
62.2477
61.7109
62.3268
62.2043
62.6049
62.786
63.1061
63.5583
63.8363
64.5857
64.7431
65.9281
65.8672
67.735
68.0152
73.0018
72.0255
72.4671
73.6155
72.4152
73.0057
72.1353
72.2492
71.6626
71.5434
71.2947
71.1833
71.2941
71.2086
71.6938
71.515
72.5021
72.105
73.8257
73.6725
58.3777
58.0636
59.3925
60.3228
60.0322
60.447
59.9606
60.1116
59.6998
59.6864
59.5377
59.5003
59.6938
59.6371
60.2176
60.0426
61.1041
60.7618
62.467
62.6673
60.5019
60.7895
62.8138
63.958
64.7364
64.9536
64.7941
64.8454
64.4549
64.3899
64.1665
63.9599
63.9458
63.5734
63.8634
63.2585
64.0039
63.1774
64.6078
64.4984
48.1353
49.7798
52.3851
54.2175
56.5316
57.0746
57.6051
58.2501
58.1848
58.5833
58.7888
58.9778
59.2988
59.2124
59.6928
59.3028
60.1458
59.6725
61.1483
61.5322
30.4244
32.5067
34.5278
35.9145
39.6898
39.8089
40.7987
42.6371
43.0082
44.2231
45.1142
46.1019
47.2409
48.12
49.4774
50.2561
51.9697
52.9398
55.1955
56.9379
1.38659
2.06659
2.27428
1.88284
6.24872
3.30836
2.86407
4.99256
4.22189
5.15456
5.43874
6.2105
7.33576
8.66388
10.6224
12.6307
15.3734
18.0239
21.2777
24.2654
-3.8075
-4.79507
-7.48871
-9.20511
-5.01376
-11.5004
-13.5797
-12.074
-14.5157
-14.6112
-15.8248
-16.293
-16.5368
-16.3718
-15.5117
-14.1196
-11.8547
-9.21837
-5.9054
-4.41905
20.982
20.0533
14.4837
12.6088
17.3095
8.18943
4.81733
6.29002
2.58492
1.19201
-1.37081
-3.15237
-4.84926
-6.16425
-6.9915
-7.26813
-6.88352
-6.12905
-3.55567
-3.91995
58.7049
59.4028
53.1861
51.9682
57.1544
50.5222
47.5857
48.4687
45.5703
42.983
40.2298
37.1616
34.0607
30.4235
26.3306
22.0209
18.516
14.8226
15.6196
14.0611
74.859
77.4417
78.1864
79.0796
74.2285
56.5592
59.5661
56.4346
56.8599
53.9565
52.6134
49.7559
47.2065
43.941
40.9301
37.8436
36.7309
35.0568
35.0057
32.9117
51.3591
55.0558
57.6235
57.9368
61.8697
61.6445
64.8384
64.51
66.7451
66.7573
67.7093
67.355
67.2238
66.2369
65.2741
64.3206
64.3318
64.6816
65.2284
65.111
17.1255
19.6294
23.1473
23.137
27.8016
27.7529
32.2859
32.9734
36.3982
38.5741
41.0852
43.3343
45.5751
47.9853
50.5126
53.4752
56.2711
59.4744
62.2537
65.9603
-20.6365
-22.273
-20.2362
-22.9817
-21.186
-23.4445
-22.8109
-24.3425
-24.8308
-25.7966
-26.4507
-26.9644
-26.9992
-26.383
-24.9424
-22.0925
-18.7843
-15.1813
-12.8052
-7.94502
7.14128
2.86901
3.52372
-1.52936
-1.30676
-5.27777
-6.44932
-9.39526
-11.4097
-14.0037
-16.3524
-18.7712
-20.93
-22.8009
-24.3672
-25.6954
-26.6793
-27.4517
-28.544
-26.9296
49.9695
46.0814
48.1581
41.5806
41.9807
37.5496
35.8769
32.8598
30.6032
28.1685
26.0039
23.991
22.2451
20.7333
19.3837
18.1448
16.9784
15.5071
13.0629
10.6193
42.6681
37.1968
45.7831
39.5201
42.3296
39.7178
39.3297
37.6323
36.292
34.6742
33.1321
31.6336
30.3085
29.2012
28.3486
27.736
27.454
27.6117
27.7548
27.7281
46.2454
24.814
33.1337
22.4226
20.0009
13.699
9.09581
4.17322
-0.0552841
-3.81035
-6.85129
-9.11244
-10.4801
-10.8519
-10.0483
-8.18135
-5.52103
-1.24097
3.66374
6.00223
735.016
652.463
603.471
547.185
498.24
451.037
407.21
365.865
327.006
290.334
255.668
222.8
191.52
161.733
133.43
105.822
79.0602
57.0588
32.3731
-3.33728
730.499
647.961
598.979
542.706
493.776
446.59
402.783
361.46
322.625
285.981
251.346
218.514
187.273
157.528
129.269
101.709
74.9966
53.0305
28.4142
-7.22946
41.924
20.4694
28.7564
18.0102
15.5383
9.17801
4.50146
-0.508102
-4.84051
-8.71823
-11.9032
-14.3313
-15.8905
-16.481
-15.9185
-14.2927
-11.8897
-7.9548
-3.2668
-0.722196
37.5959
32.2102
40.8074
34.5821
37.3843
34.78
34.374
32.6631
31.2983
29.6585
28.0951
26.5811
25.2444
24.1331
23.3022
22.7479
22.4996
22.7314
23.0933
23.5392
48.6412
45.0822
47.3308
40.9914
41.6447
37.4646
36.0799
33.3513
31.4168
29.3176
27.5196
25.8784
24.5025
23.3583
22.344
21.3767
20.4385
19.1588
17.048
14.9239
10.6554
6.53497
7.36942
2.4625
2.95509
-0.720609
-1.48817
-4.0046
-5.54054
-7.54668
-9.2856
-11.0244
-12.5172
-13.8824
-14.8822
-15.8005
-16.7622
-17.6422
-18.8353
-18.027
-21.5978
-24.1587
-22.9107
-26.2711
-25.2057
-28.435
-27.6318
-29.4428
-30.2444
-32.1132
-33.4826
-34.5585
-35.7672
-34.7716
-33.8878
-34.0218
-34.0026
-33.0527
-32.4522
-29.563
-6.76717
-5.70459
-2.93917
-4.00516
-0.613312
-1.44665
0.99632
1.43847
2.59016
3.92465
3.86624
7.70972
3.1845
-5.99245
-1.6252
-5.59305
-1.80641
1.81297
4.25871
10.2615
30.9166
34.7582
37.7684
38.4321
42.3066
43.2116
46.1659
47.8425
50.0255
52.4547
54.353
56.9378
59.5407
61.2774
64.43
64.6287
69.0397
75.4289
71.1118
77.5906
69.9756
74.3483
76.3783
77.7626
80.7626
81.5193
83.4897
84.1642
85.6818
86.6293
87.9523
87.8667
88.2504
86.6252
85.4512
84.5852
84.3748
86.369
83.329
84.6432
81.4041
83.1216
82.715
82.503
82.6207
81.757
81.4082
80.1095
79.0517
77.3352
75.6264
73.1507
70.419
66.5122
62.0501
57.1876
52.1003
47.7131
45.9161
45.15
55.8758
54.2903
52.3978
50.413
48.5383
45.9763
43.85
41.0697
38.594
35.7941
33.1937
30.4318
27.723
24.9292
22.2757
19.8433
17.7612
16.1624
17.5967
15.9233
15.1545
12.1987
10.1499
7.61921
5.27635
2.40723
-0.00618644
-3.02994
-5.57077
-8.1499
-10.0508
-11.6003
-12.4378
-12.7415
-12.2045
-11.0208
-8.95618
-6.48536
-3.13397
-2.99626
-3.32763
-4.0442
-4.17994
-4.65516
-4.95147
-5.68326
-5.78273
-6.45293
-6.49923
-6.50202
-5.86544
-4.93534
-3.41346
-1.60313
0.876628
3.50077
6.82432
10.0909
13.8131
16.759
23.6884
25.9217
28.0059
30.0922
31.569
32.4886
33.5661
34.364
35.4738
36.4771
37.701
38.8547
40.2476
41.4312
43.0725
44.182
46.1115
47.3421
49.713
51.7814
44.6625
46.7471
49.5895
52.275
53.1825
53.9009
54.1771
54.643
55.1087
55.5711
56.0935
56.4326
56.9372
57.0225
57.6247
57.3916
58.2947
57.9654
59.529
60.1792
58.6519
59.2364
61.3744
63.4136
63.2206
63.7619
63.3254
63.4767
63.275
63.2803
63.2444
63.1253
63.2151
62.9221
63.2481
62.7019
63.428
62.6574
64.0596
64.0849
57.7077
57.5746
58.8652
60.4885
59.6073
60.3188
59.5806
59.7975
59.3783
59.3865
59.2822
59.262
59.468
59.4155
59.9654
59.786
60.7729
60.4274
62.0449
62.307
72.7378
71.8251
72.2443
73.7229
72.2997
72.8936
71.8378
71.8907
71.2267
71.0721
70.7888
70.6468
70.7189
70.5998
71.0315
70.826
71.7298
71.3138
72.9313
72.8745
59.0076
59.4785
59.627
61.8493
60.7633
61.7174
61.0932
61.6605
61.4874
61.8591
62.0074
62.3
62.7199
62.9704
63.6853
63.8285
64.9654
64.9035
66.6958
67.0923
109.556
108.588
107.258
108.747
105.733
104.41
101.649
99.6527
97.1443
95.3042
93.5389
92.0439
90.8742
89.6891
89.0727
88.0171
88.0646
86.862
87.8783
86.8318
)
;

boundaryField
{
    outletWall
    {
        type            fixedValue;
        value           uniform 0;
    }
    fineWalls
    {
        type            zeroGradient;
    }
    fineFrontAndBack
    {
        type            zeroGradient;
    }
    fineplugLeft
    {
        type            cyclicAMI;
        value           nonuniform List<scalar> 
20
(
69.6399
70.971
70.272
71.7041
71.7834
72.9351
73.5696
74.725
75.7922
77.1178
78.6284
80.1652
82.1388
90.3962
89.5783
89.5597
91.6836
89.7766
87.6135
85.3977
)
;
    }
    fineplugRight
    {
        type            cyclicAMI;
        value           nonuniform List<scalar> 
20
(
68.4761
69.7147
69.0712
70.4876
70.6096
71.769
72.4392
73.6193
74.721
76.0787
77.6254
79.195
81.2104
89.5708
88.8003
88.8091
90.8888
88.9427
86.8115
84.5794
)
;
    }
    inletOutletLeft
    {
        type            cyclicAMI;
        value           nonuniform List<scalar> 
20
(
69.6399
70.971
70.272
71.7041
71.7834
72.9351
73.5696
74.725
75.7922
77.1178
78.6284
80.1652
82.1388
90.3962
89.5783
89.5597
91.6836
89.7766
87.6135
85.3977
)
;
    }
    inletLeft
    {
        type            zeroGradient;
    }
    inletWallsLeft
    {
        type            zeroGradient;
    }
    inletFacesLeft
    {
        type            zeroGradient;
    }
    inletOutletRight
    {
        type            cyclicAMI;
        value           nonuniform List<scalar> 
20
(
68.4761
69.7147
69.0712
70.4876
70.6096
71.769
72.4392
73.6193
74.721
76.0787
77.6254
79.195
81.2104
89.5708
88.8003
88.8091
90.8888
88.9427
86.8115
84.5794
)
;
    }
    inletRight
    {
        type            zeroGradient;
    }
    inletWallsRight
    {
        type            zeroGradient;
    }
    inletFacesRight
    {
        type            zeroGradient;
    }
}


// ************************************************************************* //
