/*--------------------------------*- C++ -*----------------------------------*\
| =========                 |                                                 |
| \\      /  F ield         | OpenFOAM: The Open Source CFD Toolbox           |
|  \\    /   O peration     | Version:  4.1                                   |
|   \\  /    A nd           | Web:      www.OpenFOAM.org                      |
|    \\/     M anipulation  |                                                 |
\*---------------------------------------------------------------------------*/
FoamFile
{
    version     2.0;
    format      ascii;
    class       surfaceScalarField;
    location    "8";
    object      phi;
}
// * * * * * * * * * * * * * * * * * * * * * * * * * * * * * * * * * * * * * //

dimensions      [0 3 -1 0 0 0 0];

internalField   nonuniform List<scalar> 
2360
(
220.589
1310.74
-1090.15
1310.74
1310.74
2459.84
-1149.1
2459.84
2459.85
2459.84
3713.43
-1253.59
3713.43
3713.43
5312.89
-1599.46
5312.89
5312.89
7502.46
-2189.58
7502.46
7502.47
11298.4
-3795.91
11298.4
11298.4
12039.6
13609.2
15166.6
16633.4
17994.1
19264.1
15459.5
4996.11
16567.7
17599.9
18568
19479.3
20341.3
21158.2
21936.1
22675.4
23380.9
24045.1
24666.3
25247.3
25802.3
10615.2
15187.1
10615.2
10615.2
10615.2
-479.628
11094.8
-479.627
-479.629
-479.629
-43.1202
-436.51
-43.1202
-43.1219
428.206
-471.328
428.204
428.204
428.202
-10734.6
11162.8
-10734.6
-10734.6
-10734.6
-25879.8
15145.2
-25324.5
-24748.2
-24134
-23476.5
-22775.6
-22038.7
-21261.4
-20443.7
-19580
-18666.1
-17694.9
-16659.2
-15547.6
-19204.8
4851.75
-17931.9
-16568.6
-15101.4
-13547
-11976
-11231.5
-11231.5
-11231.5
-7442.22
-3789.31
-7442.22
-7442.22
-5187.25
-2254.98
-5187.25
-5187.25
-3534.31
-1652.94
-3534.31
-3534.31
-2256.23
-1278.07
-2256.23
-2256.23
-2256.23
-1093.65
-1162.58
-1093.65
-1093.65
-44.2442
-1049.41
-4867.13
3423.58
-4885.75
8034.15
-4915.53
8223.65
-4293.07
4950.49
-3016.35
-1985.65
-2097.37
-4799.65
-2067.27
-1674.71
-2280.47
2796.55
-2190.1
4746.24
-1873.19
5777.8
-1432.16
5342.6
-878.531
3576.14
-238.755
988.916
247.849
1460.51
435.621
2450.66
567.801
2188.47
790.03
1631.04
957.017
2631.8
2796.48
-4911.75
3397
-4999
8121.41
-4982.73
8207.38
-3994.67
3962.42
-2609.02
-3371.29
-1734.62
-5674.05
-1735.6
-1673.73
-2248.11
3309.06
-2426.87
4924.99
-2137.61
5488.54
-1596.96
4801.95
-784.622
2763.8
245.709
-41.4153
713.753
992.467
592.05
2572.36
570.765
2209.76
780.697
1421.11
941.463
2471.03
2575.36
-5166.89
3414.58
-5244.06
8198.58
-5152.17
8115.49
-4089.36
2899.61
-3018.37
-4442.28
-2421.5
-6270.93
-1932.64
-2162.59
-1996.03
3372.45
-2306.14
5235.1
-2287.17
5469.57
-1905.96
4420.75
-859.193
1717.03
862.978
-1763.59
1574.02
281.429
1087.18
3059.2
809.167
2487.76
936.063
1294.21
1055.23
2351.86
2352.52
-5766.26
3436.88
-5714.52
8146.84
-5472.49
7873.45
-4568.36
1995.48
-4011.08
-4999.56
-3693.12
-6588.89
-2660.57
-3195.14
-1752.17
2464.05
-1615.84
5098.78
-1748.74
5602.47
-1744.74
4416.75
-579.698
551.99
1660.19
-4003.48
2549.41
-607.791
1811.76
3796.85
1189.15
3110.38
1078.18
1405.18
1235.6
2194.44
1935.18
-6656.8
3493.37
-6441.53
7931.57
-5976.82
7408.74
-5367.72
1386.39
-5376.06
-4991.22
-5349.22
-6615.73
-4171.68
-4372.68
-2431.25
723.621
-1500.78
4168.3
-1198.21
5299.91
-1062.69
4281.23
404.875
-915.578
2293.42
-5892.02
2585.57
-899.947
1976.09
4406.33
1487
3599.47
1484.72
1407.46
1712.15
1967.02
1392.35
-7782.03
3510.9
-7350.25
7499.78
-6652.12
6710.61
-6330.37
1064.63
-6803.8
-4517.79
-7148.6
-6270.93
-6408.08
-5113.2
-4557.9
-1126.57
-2975.18
2585.58
-1943.79
4268.52
-1007.43
3344.87
528.144
-2451.15
959.36
-6323.23
467.161
-407.747
527.872
4345.62
684.329
3443.01
1115.01
976.775
2255.8
826.231
-141.159
-9056.76
3401.28
-8332.03
6775.05
-7404.7
5783.29
-7266.93
926.858
-8084.64
-3700.08
-8911.64
-5443.92
-8943.67
-5081.17
-7651.25
-2418.99
-5855.46
789.787
-4141.27
2554.33
-2346.76
1550.37
-1893.16
-2904.75
-3082.65
-5133.74
-2938.27
-552.127
-1723.33
3130.68
-324.056
2043.74
1648.48
-995.759
2508.8
-34.0963
7219.39
-10397.1
3044.96
-9271.68
5649.67
-8100.71
4612.32
-8027.1
853.251
-9129.03
-2598.15
-10578
-3995
-11557
-4102.16
-11024.8
-2951.15
-9015.53
-1219.49
-6563.14
101.931
-5149.83
137.063
-6359.22
-1695.36
-7927.85
-3565.12
-6692.62
-1787.36
-4510.35
948.409
-3689.54
1222.93
-5366.8
681.499
-9441.54
4040.65
12923
-11650.1
2410.77
-10102.6
4102.11
-8671.09
3180.84
-8541.25
723.403
-9894.84
-1244.56
-12003.2
-1886.65
-13853.3
-2252.02
-14156.1
-2648.38
-12566.7
-2808.84
-10308.9
-2155.96
-9512.91
-658.879
-11041.2
-167.108
-13323.7
-1282.55
-14466
-645.065
-14319.4
801.801
-14210.7
1114.2
-14730.5
1201.3
-14500.1
3810.29
9585.71
-12603.5
1403.72
-10470
1968.62
-8686.29
1397.12
-8529.91
567.02
-10211.7
437.262
-12741.7
643.305
-14767.1
-226.611
-15196.9
-2218.57
-13878.9
-4126.82
-11555.1
-4479.74
-10070.5
-2143.51
-11220.7
983.032
-14158.6
1655.34
-16368.8
1565.15
-16475.5
908.519
-15035.2
-326.057
-13135.5
-698.454
-9103.44
-221.743
10.9453
-12679.6
155.372
-10227.7
-483.256
-8350.43
-480.129
-8146.47
363.057
-9601.27
1892.07
-11592.5
2634.52
-12768.8
949.733
-12578.4
-2408.97
-11508
-5197.27
-10124.6
-5863.11
-9353.41
-2914.71
-10695.6
2325.23
-13913.2
4872.95
-16544.6
4196.58
-16783.3
1147.13
-15282.4
-1826.91
-13304.8
-2676.01
-9143.74
-4382.84
-9569.3
-12412.3
-771.734
-10447.8
-2447.76
-8720.74
-2207.19
-8138.81
-218.873
-8679.52
2432.78
-9401.41
3356.41
-9346.79
895.105
-8660.93
-3094.83
-8053.31
-5804.89
-7837.53
-6078.89
-8616.39
-2135.85
-10646
4354.81
-13254.6
7481.54
-14773.4
5715.4
-14117.7
491.486
-13358.3
-2586.36
-14209.4
-1824.91
-14426.8
-4165.47
-12901.3
-11649.4
-1370.47
-10089.2
-4008.04
-8352.91
-3943.46
-7452.21
-1119.57
-7477.65
2458.22
-7303.91
3182.67
-6324.5
-84.3114
-5363.9
-4055.42
-5018.7
-6150.09
-5003.64
-6093.95
-6144.52
-994.969
-8677.74
6888.03
-10321.5
9125.27
-8989.63
4383.56
-5570.24
-2927.91
-3410.38
-4746.22
-4951.96
-283.332
-9447.83
330.406
-7161.99
-10381.9
-1680.91
-9265.06
-5124.87
-7656.46
-5552.06
-6349.2
-2426.83
-5844.62
1953.64
-5124.61
2462.66
-3674.67
-1534.26
-2738.58
-4991.51
-2641.09
-6247.59
-2797.27
-5937.78
-3475.74
-316.5
-5562.61
8974.9
-6826.07
10388.7
-5106.5
2664
-2750.59
-5283.82
-913.027
-6583.78
1198.78
-2395.14
2268.46
-739.264
102.581
-8896.65
-1804.08
-8168.07
-5853.45
-6922.75
-6797.37
-5334.82
-4014.77
-3935.7
554.521
-2766.02
1292.98
-1806.33
-2493.95
-1598.38
-5199.46
-1702.8
-6143.16
-1964.32
-5676.26
-1913.81
-367.019
-2564.41
9625.51
-3444.27
11268.6
-2277.87
1497.6
-1035.85
-6525.83
-351.808
-7267.83
504.243
-3251.19
2113.54
-2348.56
-1579.79
-7480.43
-1847.54
-6986.36
-6347.52
-6191.9
-7591.84
-4912.88
-5293.78
-2937.87
-1420.49
-1518.82
-126.066
-1467.71
-2545.06
-1940.01
-4727.15
-2216.82
-5866.35
-2479.92
-5413.16
-1763.38
-1083.56
-456.823
8318.95
-328.795
11140.6
-74.9492
1243.75
474.317
-7075.1
363.13
-7156.64
793.686
-3681.75
1450.24
-3005.11
-2319.12
-6282.6
-1915.61
-5939.11
-6691.01
-5543.25
-7987.7
-4828.87
-6008.17
-3418.2
-2831.16
-2331.3
-1212.97
-2270.88
-2605.48
-2582.46
-4415.57
-2831.98
-5616.84
-2906.55
-5338.58
-1941.76
-2048.35
536.781
5840.41
2140.97
9536.37
2081.78
1302.94
1418.25
-6411.57
629.008
-6367.4
618.16
-3670.9
1036.89
-3423.85
-2881.69
-5385.5
-1992.56
-5216.96
-6859.54
-5115.97
-8088.69
-4726.36
-6397.78
-3841.76
-3715.75
-3073.68
-1981.05
-2837.42
-2841.74
-2862.01
-4390.97
-2893.16
-5585.69
-2734.11
-5497.64
-1830.49
-2951.97
577.807
3432.11
2758.63
7355.54
2819.58
1242
1632.43
-5224.42
731.787
-5466.75
727.583
-3666.7
953.966
-3650.23
-3181.31
-4915.94
-2122.78
-4848.19
-6927.3
-4900.13
-8036.76
-4679.3
-6618.61
-4111.77
-4283.27
-3535.55
-2557.28
-3201.88
-3175.41
-2999.59
-4593.26
-2794.94
-5790.34
-2452.74
-5839.84
-1641.91
-3762.81
122.575
1667.63
2094.24
5383.88
2384.87
951.374
1358.1
-4197.66
748.123
-4856.78
790.897
-3709.47
944.708
-3804.04
-3385.7
-4809.22
-4747.7
-4801.35
-4690.7
-4333.34
-3841.45
-3396.46
-3025.23
-2674.95
-2265.65
-1591.44
-409.6
976.61
1474.53
1086.87
836.923
876.321
987.751
139.227
-880.455
404.25
-1834.65
591.591
-1744.65
737.045
-1612.33
842.676
-1466.33
924.923
-1352.19
964.398
-1230.98
990.827
-1134.64
1004.94
-1046.36
1006.22
-969.395
991.088
-896.147
958.309
-829.204
905.984
-764.598
834.055
-705.955
741.114
-646.389
628.922
-593.241
495.492
-530.842
343.689
-469.375
179.188
-416.526
-375.73
99.7745
-980.227
145.861
-1880.73
164.491
-1763.28
178.204
-1626.04
168.857
-1456.98
162.761
-1346.09
175.512
-1243.73
198.519
-1157.65
223.525
-1071.36
244.968
-990.837
259.055
-910.233
263.798
-833.945
257.551
-758.35
239.47
-687.872
208.441
-615.359
165.823
-550.622
111.873
-476.893
52.224
-409.726
2.29551
-366.598
-373.434
-19.5072
-960.717
-8.75012
-1891.48
48.0785
-1820.11
91.0508
-1669.01
119.534
-1485.46
138.83
-1365.39
159.454
-1264.35
176.312
-1174.5
186.704
-1081.75
190.548
-994.679
189.634
-909.317
183.83
-828.14
173.096
-747.614
156.661
-671.436
133.8
-592.496
105.178
-521.998
69.8155
-441.53
31.6141
-371.524
0.0996026
-335.082
-373.335
-51.8561
-908.858
-65.0085
-1878.33
-17.4223
-1867.69
-2.88766
-1683.54
30.8632
-1519.21
43.869
-1378.39
46.2348
-1266.71
46.077
-1174.34
46.0775
-1081.75
47.0191
-995.619
48.0133
-910.309
46.9154
-827.04
42.7556
-743.452
35.5579
-664.237
25.1348
-582.071
12.8371
-509.699
-2.42276
-426.269
-18.1172
-355.828
-26.8688
-326.328
-400.203
-20.2691
-888.584
-30.2798
-1868.32
1.53449
-1899.5
-13.9375
-1668.07
23.4131
-1556.56
65.423
-1420.4
77.6701
-1278.96
82.5525
-1179.22
88.4255
-1087.62
96.2749
-1003.47
102.637
-916.67
104.164
-828.565
99.3949
-738.682
89.8792
-654.719
77.7469
-569.937
65.9285
-497.88
57.0453
-417.385
49.0338
-347.816
34.8128
-312.105
-365.391
128.648
-1017.23
168.058
-1907.72
190.992
-1922.44
160.61
-1637.68
183.028
-1578.98
264.179
-1501.55
311.162
-1325.94
339.805
-1207.86
362.957
-1110.77
382.267
-1022.77
392.299
-926.7
389.346
-825.61
372.049
-721.384
341.896
-624.564
303.406
-531.446
260.125
-454.598
220.47
-377.729
180.606
-307.951
127.13
-258.628
-238.26
284.301
-1301.53
371.628
-1995.05
381.183
-1931.99
351.995
-1608.49
383.371
-1610.35
491.307
-1609.48
579.823
-1414.46
652.922
-1280.96
709.379
-1167.23
746.765
-1060.16
760.047
-939.98
749.727
-815.289
717.785
-689.441
664.972
-571.75
595.453
-461.927
510.856
-370
420.495
-287.368
323.94
-211.395
207.582
-142.268
-30.6786
294.191
-1595.72
353.349
-2054.21
355.969
-1934.61
355.57
-1608.09
424.745
-1679.53
528.273
-1713.01
611.901
-1498.08
707.903
-1376.96
775.569
-1234.89
806.641
-1091.23
803.655
-936.993
777.476
-789.109
734.799
-646.763
676.263
-513.212
602.551
-388.214
511.178
-278.626
405.31
-181.5
286.732
-92.8156
150.271
-5.8062
119.593
113.83
-1709.54
103.424
-2043.79
88.3756
-1919.55
98.5511
-1618.26
133.021
-1713.99
159.089
-1739.08
161.965
-1500.96
185.347
-1400.34
174.512
-1224.05
129.274
-1045.99
65.2156
-872.932
-3.98653
-719.903
-70.5698
-580.177
-134.079
-449.699
-195.508
-326.783
-258.377
-215.755
-316.752
-123.123
-338.982
-70.5841
-249.586
-95.1992
-129.993
-64.6732
-1644.87
-90.9992
-2017.47
-131.107
-1879.44
-138.449
-1610.91
-188.901
-1663.54
-260.951
-1667.02
-340.916
-1420.99
-428.912
-1312.34
-524.089
-1128.88
-629.647
-940.43
-736.51
-766.068
-846.448
-609.964
-953.211
-473.413
-1050.7
-352.205
-1127.09
-250.4
-1162.3
-180.545
-1108.29
-177.133
-888.404
-290.467
-464.498
-519.105
-594.491
-86.6333
-1558.23
-104.198
-1999.9
-164.877
-1818.76
-183.906
-1591.88
-265.966
-1581.48
-386.134
-1546.85
-468.351
-1338.77
-578.739
-1201.96
-664.448
-1043.17
-739.626
-865.251
-807.301
-698.393
-882.33
-534.933
-964.615
-391.128
-1043.17
-273.652
-1074.81
-218.756
-988.377
-266.979
-754.167
-411.344
-425.26
-619.374
-135.209
-809.156
-729.701
9.77182
-1568
5.87238
-1996
-21.7009
-1791.19
-15.2818
-1598.3
-80.5165
-1516.24
-210.581
-1416.79
-268.033
-1281.32
-322.65
-1147.34
-338.235
-1027.58
-317.919
-885.568
-267.158
-749.156
-194.754
-607.338
-108.654
-477.229
-10.9193
-371.388
104.089
-333.766
240.151
-403.044
349.403
-520.598
347.221
-617.194
192.682
-654.62
-537.019
141.167
-1709.17
154.081
-2008.91
187.31
-1824.42
222.102
-1633.09
236.22
-1530.36
202.929
-1383.5
197.084
-1275.48
216.444
-1166.7
271.729
-1082.87
363.734
-977.572
484.04
-869.462
633.071
-756.369
803.329
-647.487
979.287
-547.346
1110.1
-464.578
1123.2
-416.143
986.445
-383.846
722.771
-353.521
373.718
-305.568
-163.301
189.624
-1898.79
173.054
-1992.34
205.413
-1856.78
253.776
-1681.46
332.654
-1609.24
421.697
-1472.54
520.294
-1374.08
628.446
-1274.85
739.677
-1194.1
860.795
-1098.69
985.886
-994.554
1105.76
-876.242
1204.78
-746.516
1268.98
-611.547
1285.28
-480.875
1233.26
-364.121
1107.07
-257.663
875.019
-121.468
496.148
73.3
332.847
141.719
-2040.52
96.8133
-1947.44
125.014
-1884.98
161.9
-1718.35
209.938
-1657.28
272.821
-1535.43
361.616
-1462.87
455.721
-1368.96
549.803
-1288.19
645.529
-1194.42
735.298
-1084.33
801.099
-942.047
830.741
-776.16
824.586
-605.394
783.448
-439.739
688.851
-269.525
541.517
-110.33
344.99
75.0564
127.703
290.583
460.55
-1.18997
-2039.33
-77.7639
-1870.87
-118.309
-1844.44
-158.063
-1678.6
-195.102
-1620.25
-229.633
-1500.9
-264.805
-1427.71
-294.479
-1339.29
-318.744
-1263.93
-338.57
-1174.6
-356.824
-1066.08
-372.192
-926.685
-377.988
-770.37
-363.994
-619.394
-338.29
-465.452
-331.018
-276.808
-352.773
-88.5847
-360.908
83.184
-309.893
239.561
150.657
-62.458
-1976.87
-140.819
-1792.51
-206.315
-1778.95
-268.799
-1616.11
-333.266
-1555.78
-389.403
-1444.77
-449.813
-1367.3
-508.321
-1280.78
-569.395
-1202.85
-624.383
-1119.61
-662.812
-1027.65
-668.187
-921.311
-633.455
-805.105
-568.307
-684.545
-482.359
-551.403
-374.827
-384.344
-281.013
-182.404
-217.927
20.0919
-143.187
164.813
7.47
-141.175
-1835.7
-313.242
-1620.44
-447.492
-1644.7
-549.242
-1514.36
-640.493
-1464.53
-706.482
-1378.78
-761.871
-1311.91
-802.447
-1240.21
-831.507
-1173.79
-843.757
-1107.37
-830.871
-1040.54
-782.595
-969.589
-695.932
-891.77
-576.272
-804.206
-424.564
-703.113
-229.766
-579.145
-4.40483
-407.771
159.678
-143.997
197.57
126.916
205.04
-188.775
-1646.93
-421.061
-1388.16
-665.164
-1400.6
-866.103
-1313.43
-1057.36
-1273.27
-1215.02
-1221.12
-1349.6
-1177.34
-1456.64
-1133.17
-1539.31
-1091.12
-1596.98
-1049.7
-1629.02
-1008.5
-1632.52
-966.084
-1603.27
-921.023
-1535.79
-871.691
-1423.7
-815.203
-1255.95
-746.888
-1008.59
-655.137
-646.199
-506.388
-245.589
-273.696
-40.5486
-671.927
-1085.09
-1510.68
-1849.11
-2147.38
-2393.51
-2595.84
-2754.01
-2870.14
-2944.83
-2978.34
-2969.42
-2915.45
-2812.14
-2652.34
-2424.23
-2104.37
-1635.75
-934.451
-671.885
1646.89
-1085.17
1388.28
-1510.87
1400.71
-1849.47
1313.6
-2147.95
1273.48
-2394.32
1221.37
-2596.95
1177.63
-2755.48
1133.53
-2872.03
1091.55
-2947.2
1050.18
-2981.25
1009.04
-2972.91
966.663
-2919.54
921.629
-2816.86
872.326
-2657.87
816.01
-2431.23
748.365
-2113.99
657.755
-1647.36
508.37
-940.885
268.527
34.1154
-189.121
1836.01
-421.098
1620.26
-665.016
1644.63
-865.325
1513.92
-1055.8
1463.96
-1212.39
1377.96
-1345.6
1310.85
-1450.86
1238.79
-1531.31
1172
-1586.35
1105.22
-1615.39
1038.09
-1615.58
966.852
-1582.64
888.687
-1511.05
800.742
-1394.78
699.744
-1224.72
578.3
-983.82
416.859
-647.824
172.376
-267.597
-111.698
-233.481
-136.656
1972.67
-305.093
1788.7
-434.953
1774.49
-531.928
1610.89
-618.274
1550.3
-678.521
1438.21
-727.633
1359.97
-761.627
1272.78
-783.952
1194.32
-788.889
1110.16
-768.077
1017.28
-711.581
910.358
-616.967
794.075
-488.905
672.682
-327.153
537.995
-124.763
375.913
101.5
190.601
278.09
-4.20859
285.24
-118.842
51.7583
-60.1112
2032.78
-135.145
1863.74
-198.396
1837.74
-259.734
1672.23
-322.572
1613.14
-379.628
1495.27
-442.221
1422.56
-503.362
1333.93
-565.722
1256.69
-621.456
1165.9
-658.294
1054.12
-657.629
909.696
-609.722
746.169
-525.343
588.305
-425.754
438.408
-313.163
263.325
-189.474
66.9162
-75.9226
-117.756
15.2281
-209.983
66.9866
-23.5897
2056.37
-104.122
1944.27
-157.419
1891.04
-213.168
1727.99
-269.151
1669.13
-320.683
1546.8
-368.746
1470.63
-415.187
1380.37
-467.436
1308.94
-518.744
1217.21
-569.18
1104.56
-613.452
953.971
-649.216
781.937
-674.845
613.937
-675.887
439.452
-674.13
261.571
-684.088
76.8772
-676.979
-124.864
-535.896
-351.064
-468.909
109.744
1946.63
42.392
2011.63
46.3412
1887.1
58.3639
1715.96
82.0286
1645.47
112.56
1516.27
156.672
1426.52
208.388
1328.65
264.636
1252.69
324.151
1157.69
367.589
1061.12
406.254
915.306
430.12
758.072
400.477
643.581
245.922
594.009
120.305
387.192
29.4729
167.715
-11.5478
-83.8377
-87.6973
-274.912
-556.606
213.263
1733.37
190.853
2034.04
224.855
1853.09
277.487
1663.33
353.221
1569.73
443.425
1426.07
549.604
1320.34
659.262
1219
768.525
1143.43
873.487
1052.73
963.141
971.468
1029.71
848.738
1069.38
718.403
1118.86
594.096
1053.23
659.647
896.081
544.341
701.877
361.922
468.702
149.341
200.716
-6.92118
-355.89
201.061
1532.31
227.326
2007.77
269.558
1810.86
333.335
1599.55
420.315
1482.75
507.399
1338.98
602.377
1225.36
706.551
1114.82
813.962
1036.02
916.5
950.192
1019.41
868.556
1099.16
768.985
1157.13
660.433
1235.89
515.334
1377.32
518.219
1380.84
540.82
1253.94
488.829
936.928
466.35
474.369
455.639
118.479
69.6215
1462.69
91.9502
1985.45
121.263
1781.55
152.615
1568.2
180.745
1454.62
192.686
1327.04
209.949
1208.1
241.163
1083.61
290.132
987.05
355.544
884.781
443.897
780.205
549.08
663.804
667.676
541.839
764.362
418.65
896.508
386.074
1027.82
409.505
1032
484.656
839.428
658.922
494.515
800.555
612.994
-83.1474
1545.84
-91.0651
1993.36
-100.325
1790.81
-148.86
1616.74
-230.264
1536.03
-326.294
1423.07
-410.77
1292.57
-480.915
1153.75
-524.892
1031.03
-544.751
904.639
-542.333
777.788
-526.042
647.511
-505.423
521.219
-494.348
407.574
-431.159
322.886
-299.007
277.352
-121.587
307.237
74.0871
463.248
158.013
716.629
771.007
-132.889
1678.72
-176.702
2037.18
-221.812
1835.92
-315.931
1710.86
-445.278
1665.37
-586.293
1564.09
-724.38
1430.66
-848.517
1277.89
-950.45
1132.96
-1033.73
987.917
-1104.98
849.038
-1170.14
712.674
-1231.38
582.452
-1281.86
458.059
-1300.28
341.301
-1262.41
239.489
-1120.92
165.743
-819.215
161.542
-373.803
271.217
397.204
42.2045
1636.52
0.120257
2079.26
-44.507
1880.54
-90.5139
1756.86
-136.111
1710.97
-183.757
1611.73
-245.241
1492.14
-315.675
1348.32
-384.694
1201.97
-448.57
1051.79
-506.454
906.919
-559.137
765.353
-605.988
629.301
-647.92
499.988
-685.088
378.467
-717.277
271.676
-728.672
177.136
-661.309
94.1778
-418.319
28.2232
-21.1147
295.573
1340.94
345.445
2029.38
322.004
1903.98
324.741
1754.12
376.848
1658.86
453.835
1534.74
520.987
1424.99
558.873
1310.43
571.513
1189.33
564.459
1058.84
545.186
926.19
515.682
794.856
477.669
667.313
428.275
549.38
366.612
440.129
289.893
348.393
200.024
267.004
102.607
191.595
10.9703
119.857
-10.1444
320.571
1020.36
423.582
1926.37
417.053
1910.51
414.179
1756.99
480.469
1592.57
575.122
1440.09
669.782
1330.32
745.934
1234.28
797.628
1137.64
823.083
1033.38
825.079
924.192
805.371
814.561
765.835
706.847
706.607
608.605
630.984
515.75
540.895
438.48
443.792
364.106
340.659
294.727
218.783
241.73
208.638
149.537
870.823
203.293
1872.61
217.648
1896.15
223.372
1751.27
275.278
1540.66
324.709
1390.65
372.547
1282.48
417.552
1189.27
455.425
1099.76
479.582
1009.22
487.123
916.648
477.419
824.263
451.471
732.793
411.78
648.295
363.322
564.206
309.991
491.809
259.605
414.491
208.62
345.712
143.448
306.9
352.087
-22.1281
892.946
-26.6873
1877.16
2.63921
1866.82
31.5086
1722.4
67.2558
1504.91
82.4733
1375.43
94.6824
1270.27
108.043
1175.91
124.155
1083.65
137.578
995.798
145.066
909.158
144.592
824.734
136.428
740.955
122.961
661.76
107.11
580.055
91.6872
507.23
80.2292
425.948
68.8374
357.103
48.5477
327.188
400.634
-61.2336
954.178
-73.4816
1889.41
-24.1607
1817.5
19.6199
1678.61
38.6251
1485.91
42.1928
1371.87
44.5114
1267.95
45.4068
1175.01
48.0366
1081.02
50.6
993.233
52.1719
907.585
50.744
826.161
46.0276
745.67
38.4299
669.357
28.3448
590.139
16.8246
518.75
4.0897
438.682
-9.61698
370.808
-19.625
337.194
381.009
-26.8562
981.032
-17.1613
1879.71
42.3198
1758.02
94.7913
1626.14
118.081
1462.62
137.905
1352.04
158.4
1247.46
173.606
1159.8
182.414
1072.21
184.74
990.907
182.488
909.836
175.466
833.182
163.908
757.226
147.208
686.056
125.022
612.324
97.8184
545.952
65.4242
471.076
30.4415
405.79
0.595873
367.038
381.605
96.6493
884.381
141.055
1835.31
159.311
1739.76
173.102
1612.35
164.961
1470.76
160.689
1356.31
173.377
1234.77
194.774
1138.41
217.296
1049.69
236.086
972.116
247.766
898.155
250.558
830.389
243.019
764.764
224.397
704.678
193.629
643.091
152.098
587.483
100.298
522.875
44.0546
462.034
-1.81468
412.907
379.79
139.956
404.241
589.587
734.74
842.137
925.622
965.823
992.672
1006.64
1007.48
991.795
958.422
905.487
832.888
739.057
625.716
491.016
338.874
175.516
)
;

boundaryField
{
    outletWall
    {
        type            calculated;
        value           nonuniform List<scalar> 
60
(
-44.2442
-2888.87
-2798.79
-1853.27
-2320.65
-2638.43
-1947.12
-1628.69
-4129.77
-5783.63
-6094.72
-4836.6
-2583.35
1644.61
3880.66
708.931
-5572.94
-8193.87
-8015.54
-3497.8
4947.16
5046.17
5462.45
6350.67
7523.89
9019.82
10692.3
12248.2
13339.4
13927.9
13610.5
12284.3
10753.4
9166.39
7764.5
6600.31
5743.96
5149.3
4938.34
4941.35
-220.588
-3488.11
-3915.47
-3748.87
-4606.83
-3810
453.453
3997.67
485.798
-4437.02
-6249.13
-6140.62
-4964.49
-3620.4
-3049.17
-4640.64
-6729.25
-7983.1
-6988.82
-2260.73
)
;
    }
    fineWalls
    {
        type            calculated;
        value           uniform 0;
    }
    fineFrontAndBack
    {
        type            calculated;
        value           nonuniform List<scalar> 
960
(
-5.32995e-13
6.95037e-14
3.69228e-14
-3.26104e-13
-1.27984e-12
-6.4769e-14
-8.49978e-14
-4.82473e-13
-2.77398e-12
-4.48642e-13
-2.51044e-13
-1.99259e-12
-6.79415e-13
-8.28949e-13
-7.40232e-12
-1.89407e-12
-1.90534e-12
-8.73989e-12
-1.44299e-12
-1.59325e-12
-1.75169e-13
-3.53781e-13
-3.89526e-13
-4.25063e-13
-4.19318e-13
-4.82697e-13
-6.91965e-12
-5.65149e-13
-5.75946e-13
-5.89619e-13
-6.07975e-13
-6.4091e-13
-6.86974e-13
-7.3825e-13
-7.94568e-13
-8.61072e-13
-9.05686e-13
-1.01418e-12
-9.84818e-13
-1.16074e-12
-2.09671e-11
-2.27388e-12
-2.21327e-12
-2.17925e-12
-1.28786e-11
-8.48514e-12
-1.21155e-11
-3.20892e-12
7.36076e-11
3.09447e-12
1.07538e-11
5.19258e-11
1.75192e-11
2.252e-11
1.45677e-11
2.11889e-11
2.29586e-12
2.39579e-12
2.26988e-12
2.33121e-11
1.34794e-12
1.12173e-12
1.14187e-12
1.01182e-12
9.49639e-13
8.67068e-13
7.91266e-13
7.13296e-13
6.48038e-13
5.92659e-13
5.41104e-13
4.98084e-13
4.59082e-13
2.05716e-12
2.86685e-13
1.86439e-13
1.43021e-13
6.8065e-14
-1.31636e-14
-2.67177e-13
-1.26738e-12
-1.53166e-12
-8.86931e-12
-1.44969e-12
-1.61235e-12
-8.44724e-12
-1.14134e-12
-1.27592e-12
-5.26727e-12
-4.24046e-13
-4.12052e-13
-1.4441e-12
1.24313e-13
-3.4898e-13
-5.41478e-13
-1.42106e-12
2.00718e-13
-2.26693e-13
-5.29714e-12
-6.4036e-13
1.19564e-09
1.01476e-09
8.46609e-10
5.95565e-10
1.65779e-10
-6.95887e-11
-1.03915e-10
-1.15051e-10
-1.03205e-10
-8.78412e-11
-6.82285e-11
-5.45122e-11
-4.93339e-11
-4.67523e-11
-4.27854e-11
-3.36368e-11
-2.3873e-11
-1.4502e-11
-8.90227e-12
1.09659e-09
1.0076e-09
8.08524e-10
5.11133e-10
1.02706e-10
-2.35071e-11
-1.30428e-11
-9.0589e-11
-9.56885e-11
-8.08033e-11
-6.42798e-11
-5.28193e-11
-4.6879e-11
-4.20374e-11
-4.33135e-11
-3.6207e-11
-2.61835e-11
-1.58608e-11
-9.74181e-12
9.05026e-10
9.9516e-10
7.71674e-10
4.05688e-10
4.94957e-11
3.22333e-11
8.70272e-11
-2.8996e-11
-8.07022e-11
-7.68899e-11
-6.19976e-11
-4.67476e-11
-4.02723e-11
-3.3299e-11
-4.09775e-11
-3.69526e-11
-2.61192e-11
-1.6155e-11
-1.12452e-11
7.45735e-10
9.5117e-10
7.43277e-10
2.97808e-10
2.17658e-11
1.03291e-10
1.79642e-10
7.72833e-11
-3.36904e-11
-6.98708e-11
-6.91648e-11
-5.10222e-11
-3.54966e-11
-1.17987e-11
-2.32734e-11
-3.07386e-11
-2.57846e-11
-1.61328e-11
-1.03835e-11
6.42776e-10
8.8056e-10
6.9683e-10
2.20347e-10
3.75242e-11
1.60799e-10
2.20968e-10
1.706e-10
6.28106e-11
1.1642e-12
-4.29446e-11
-4.92655e-11
-1.78578e-11
1.38048e-11
5.24696e-12
-1.41232e-11
-2.04664e-11
-1.77794e-11
-1.20128e-11
5.95903e-10
7.97986e-10
6.16402e-10
1.83968e-10
7.90154e-11
1.77588e-10
2.03862e-10
1.8991e-10
1.49834e-10
9.95274e-11
3.45027e-11
-6.39594e-12
1.71727e-11
2.96292e-11
2.62939e-11
-1.65039e-12
-1.52076e-11
-1.56513e-11
-1.59823e-11
5.68965e-10
7.06166e-10
5.15521e-10
1.76857e-10
1.07814e-10
1.51991e-10
1.51979e-10
1.48966e-10
1.55349e-10
1.43927e-10
9.61774e-11
4.23682e-11
2.24118e-11
2.02084e-11
2.47182e-11
1.49328e-11
7.69524e-12
3.29645e-12
-1.51525e-11
5.17478e-10
6.03636e-10
4.2343e-10
1.78792e-10
1.05469e-10
1.03304e-10
9.45118e-11
1.00215e-10
1.17554e-10
1.21469e-10
8.9089e-11
3.47602e-11
1.58852e-11
2.25454e-11
2.44949e-11
2.11377e-11
1.58888e-11
1.50475e-11
1.97721e-11
3.75455e-10
4.38777e-10
3.17001e-10
1.56126e-10
7.38892e-11
4.58446e-11
3.76533e-11
4.47109e-11
4.96758e-11
4.46792e-11
3.10022e-11
2.26714e-11
2.60633e-11
2.3572e-11
2.01277e-11
2.16106e-11
2.29245e-11
2.47971e-11
2.78862e-11
2.51945e-10
2.69415e-10
2.06405e-10
1.13669e-10
3.11208e-11
-1.36547e-11
-2.64763e-11
-2.71884e-11
-2.24575e-11
-2.62359e-12
2.1932e-11
3.56915e-11
4.86702e-11
3.48964e-11
2.95156e-11
2.51837e-11
2.85378e-11
3.36261e-11
4.52392e-11
2.2397e-11
1.9282e-11
-1.58139e-11
-4.38073e-11
-5.28894e-11
-6.92769e-11
-1.01519e-10
-1.21342e-10
-1.1245e-10
-8.22038e-11
-3.23988e-11
2.21465e-12
1.87095e-12
-1.18416e-11
-2.0121e-11
-2.13838e-11
-1.83663e-11
-1.14504e-11
1.50122e-11
4.40078e-11
4.25739e-11
-3.50033e-11
-1.12787e-10
-1.3049e-10
-1.13171e-10
-1.11618e-10
-1.26945e-10
-1.40631e-10
-1.21002e-10
-5.89713e-11
-1.50299e-11
-2.00603e-11
-2.29305e-11
-2.10936e-11
-2.20896e-11
-2.34487e-11
-2.51877e-11
-2.59205e-11
9.17972e-11
1.45943e-10
7.51519e-11
-7.55551e-11
-1.81738e-10
-1.72836e-10
-1.54354e-10
-1.65111e-10
-1.74204e-10
-1.52305e-10
-8.96267e-11
-2.54097e-11
-2.26365e-11
-2.5454e-11
-2.65953e-11
-2.93458e-11
-2.61717e-11
-2.45001e-11
-2.6449e-11
8.5243e-11
2.03805e-10
1.82303e-10
9.9956e-12
-1.93021e-10
-2.29384e-10
-2.04108e-10
-1.7278e-10
-1.4325e-10
-1.16705e-10
-6.93666e-11
-3.66627e-11
-2.2952e-11
-2.57502e-11
-3.2144e-11
-2.86764e-11
-2.1282e-11
-2.45713e-11
-3.78773e-12
7.41559e-11
2.49026e-10
2.70835e-10
1.00018e-10
-1.37447e-10
-2.35044e-10
-1.87885e-10
-1.04907e-10
-6.21117e-11
-4.42597e-11
-1.6894e-11
-3.06499e-11
-3.19778e-11
-3.02664e-11
-3.79701e-11
-2.11287e-11
-8.65992e-12
-6.92057e-12
1.79883e-13
1.12319e-10
3.11e-10
3.28803e-10
1.44272e-10
-3.39852e-11
-1.23714e-10
-7.7175e-11
-2.86881e-11
-7.7012e-12
4.36322e-12
9.00907e-12
-1.21711e-11
-4.16863e-11
-3.7651e-11
-4.03819e-11
-1.46523e-11
-2.71888e-12
6.36181e-13
4.83364e-12
2.40203e-10
4.0145e-10
3.4978e-10
1.54477e-10
3.12573e-11
-1.01251e-11
-9.04654e-12
-9.09882e-12
-5.76625e-12
1.14315e-12
3.16252e-12
-3.3551e-12
-3.67769e-11
-4.27614e-11
-2.77816e-11
-7.16772e-12
2.17144e-12
2.76836e-12
2.86072e-12
4.07199e-10
4.65749e-10
3.3446e-10
1.67861e-10
6.60564e-11
1.51636e-11
2.85987e-13
-1.70026e-12
1.24563e-12
4.16573e-12
6.41118e-12
4.59997e-13
-2.06876e-11
-3.17281e-11
-1.38136e-11
4.99251e-13
3.40059e-12
2.37692e-12
2.42866e-12
5.20211e-10
4.61668e-10
3.19632e-10
1.94607e-10
9.19622e-11
2.71083e-11
6.15272e-12
3.40023e-12
5.92066e-12
7.85771e-12
8.82956e-12
5.96644e-12
-6.69515e-12
-1.54273e-11
-2.23892e-12
3.48936e-12
3.27826e-12
2.08651e-12
1.85377e-12
5.122e-10
4.32522e-10
3.30117e-10
2.18286e-10
1.1089e-10
3.83205e-11
1.19828e-11
6.53835e-12
7.53394e-12
8.60978e-12
1.00895e-11
8.96484e-12
2.19178e-12
-1.83188e-12
3.07085e-12
3.91961e-12
3.06575e-12
1.95429e-12
1.70552e-12
5.32995e-13
-6.95037e-14
-3.69228e-14
3.26104e-13
1.27984e-12
6.4769e-14
8.49978e-14
4.82473e-13
2.77398e-12
4.48642e-13
2.51044e-13
1.99259e-12
6.79415e-13
8.28949e-13
7.40232e-12
1.89407e-12
1.90534e-12
8.73989e-12
1.44299e-12
1.59325e-12
1.75169e-13
3.53781e-13
3.89526e-13
4.25063e-13
4.19318e-13
4.82697e-13
6.91965e-12
5.65149e-13
5.75946e-13
5.89619e-13
6.07975e-13
6.4091e-13
6.86974e-13
7.3825e-13
7.94568e-13
8.61072e-13
9.05686e-13
1.01418e-12
9.84818e-13
1.16074e-12
2.09671e-11
2.27388e-12
2.21327e-12
2.17925e-12
1.28786e-11
8.48514e-12
1.21155e-11
3.20892e-12
-7.36076e-11
-3.09447e-12
-1.07538e-11
-5.19258e-11
-1.75192e-11
-2.252e-11
-1.45677e-11
-2.11889e-11
-2.29586e-12
-2.39579e-12
-2.26988e-12
-2.33121e-11
-1.34794e-12
-1.12173e-12
-1.14187e-12
-1.01182e-12
-9.49639e-13
-8.67068e-13
-7.91266e-13
-7.13296e-13
-6.48038e-13
-5.92659e-13
-5.41104e-13
-4.98084e-13
-4.59082e-13
-2.05716e-12
-2.86685e-13
-1.86439e-13
-1.43021e-13
-6.8065e-14
1.31636e-14
2.67177e-13
1.26738e-12
1.53166e-12
8.86931e-12
1.44969e-12
1.61235e-12
8.44724e-12
1.14134e-12
1.27592e-12
5.26727e-12
4.24046e-13
4.12052e-13
1.4441e-12
-1.24313e-13
3.4898e-13
5.41478e-13
1.42106e-12
-2.00718e-13
2.26693e-13
5.29714e-12
6.4036e-13
-1.19564e-09
-1.01476e-09
-8.46609e-10
-5.95565e-10
-1.65779e-10
6.95887e-11
1.03915e-10
1.15051e-10
1.03205e-10
8.78412e-11
6.82285e-11
5.45122e-11
4.93339e-11
4.67523e-11
4.27854e-11
3.36368e-11
2.3873e-11
1.4502e-11
8.90227e-12
-1.09659e-09
-1.0076e-09
-8.08524e-10
-5.11133e-10
-1.02706e-10
2.35071e-11
1.30428e-11
9.0589e-11
9.56885e-11
8.08033e-11
6.42798e-11
5.28193e-11
4.6879e-11
4.20374e-11
4.33135e-11
3.6207e-11
2.61835e-11
1.58608e-11
9.74181e-12
-9.05026e-10
-9.9516e-10
-7.71674e-10
-4.05688e-10
-4.94957e-11
-3.22333e-11
-8.70272e-11
2.8996e-11
8.07022e-11
7.68899e-11
6.19976e-11
4.67476e-11
4.02723e-11
3.3299e-11
4.09775e-11
3.69526e-11
2.61192e-11
1.6155e-11
1.12452e-11
-7.45735e-10
-9.5117e-10
-7.43277e-10
-2.97808e-10
-2.17658e-11
-1.03291e-10
-1.79642e-10
-7.72833e-11
3.36904e-11
6.98708e-11
6.91648e-11
5.10222e-11
3.54966e-11
1.17987e-11
2.32734e-11
3.07386e-11
2.57846e-11
1.61328e-11
1.03835e-11
-6.42776e-10
-8.8056e-10
-6.9683e-10
-2.20347e-10
-3.75242e-11
-1.60799e-10
-2.20968e-10
-1.706e-10
-6.28106e-11
-1.1642e-12
4.29446e-11
4.92655e-11
1.78578e-11
-1.38048e-11
-5.24696e-12
1.41232e-11
2.04664e-11
1.77794e-11
1.20128e-11
-5.95903e-10
-7.97986e-10
-6.16402e-10
-1.83968e-10
-7.90154e-11
-1.77588e-10
-2.03862e-10
-1.8991e-10