/*--------------------------------*- C++ -*----------------------------------*\
| =========                 |                                                 |
| \\      /  F ield         | OpenFOAM: The Open Source CFD Toolbox           |
|  \\    /   O peration     | Version:  4.1                                   |
|   \\  /    A nd           | Web:      www.OpenFOAM.org                      |
|    \\/     M anipulation  |                                                 |
\*---------------------------------------------------------------------------*/
FoamFile
{
    version     2.0;
    format      ascii;
    class       volVectorField;
    location    "8";
    object      U;
}
// * * * * * * * * * * * * * * * * * * * * * * * * * * * * * * * * * * * * * //

dimensions      [0 1 -1 0 0 0 0];

internalField   nonuniform List<vector> 
1280
(
(-3.85181e-16 0.0901473 -0.885491)
(1.18128e-17 0.429897 -0.925041)
(2.66831e-17 0.351622 -0.538822)
(-2.35667e-16 0.453741 -0.598036)
(-2.17521e-16 0.72591 -1.02536)
(-4.68069e-17 0.667161 -0.776914)
(-6.14257e-17 0.862297 -0.76043)
(-3.57628e-16 0.88749 -0.691537)
(-4.401e-16 1.22532 -1.11909)
(-3.17258e-16 1.16344 -0.876617)
(-1.67637e-16 1.32166 -0.780347)
(-4.93713e-16 1.70639 -1.42579)
(-5.01776e-16 1.62485 -1.17235)
(-6.20503e-16 1.86601 -1.06228)
(-1.40335e-15 2.32211 -1.91768)
(-1.3688e-15 2.24258 -1.63732)
(-1.37694e-15 2.61274 -1.43401)
(-1.48543e-15 3.04078 -3.11804)
(-1.06661e-15 3.53733 -2.08247)
(-1.1514e-15 3.27495 -3.6887)
(-7.18641e-16 3.6455 -0.417087)
(-1.45141e-15 3.92299 5.53802)
(-1.59806e-15 3.67022 8.157)
(-1.74385e-15 3.9642 9.62366)
(-1.72028e-15 4.07503 10.3726)
(-1.98029e-15 4.41795 11.047)
(-1.45869e-15 3.60417 8.81746)
(-2.31856e-15 7.80415 13.9534)
(-2.36286e-15 7.87529 13.9417)
(-2.41895e-15 7.88715 13.8317)
(-2.49426e-15 7.89798 13.7245)
(-2.62937e-15 7.88204 13.6801)
(-2.81835e-15 7.88154 13.7028)
(-3.02872e-15 7.83369 13.8035)
(-3.25977e-15 7.82529 13.929)
(-3.5326e-15 7.71188 14.0713)
(-3.71564e-15 7.71552 14.1551)
(-4.16075e-15 7.50641 14.1482)
(-4.04028e-15 7.55596 14.1236)
(-4.762e-15 7.28238 13.9101)
(-3.64962e-15 9.21377 15.1098)
(-1.82641e-15 5.06758 10.4926)
(-1.77773e-15 3.69021 10.183)
(-1.76043e-15 2.77473 10.3597)
(-2.19612e-15 0.126446 7.28456)
(-6.81537e-15 -0.803215 -5.659)
(-9.7313e-15 -0.0396476 -5.11938)
(-2.57745e-15 0.488978 -5.54241)
(1.27351e-14 1.8161 -5.26969)
(2.50083e-15 -0.644285 -0.43788)
(8.69895e-15 0.617603 -0.264163)
(9.03843e-15 -1.92954 -5.3624)
(1.40716e-14 -0.506725 -5.66958)
(1.80883e-14 0.0130592 -5.17245)
(1.1701e-14 0.792631 -5.62298)
(3.68824e-15 -0.189095 7.36208)
(1.83403e-15 -2.81053 10.3385)
(1.92433e-15 -3.73397 10.1777)
(1.8232e-15 -5.10735 10.492)
(3.85871e-15 -9.21089 15.1107)
(5.53002e-15 -7.31115 13.8962)
(4.60198e-15 -7.58257 14.0892)
(4.6846e-15 -7.53744 14.1051)
(4.15106e-15 -7.74666 14.1105)
(3.89595e-15 -7.74523 14.033)
(3.5572e-15 -7.85838 13.8975)
(3.24622e-15 -7.86729 13.7774)
(2.92634e-15 -7.91424 13.6784)
(2.65862e-15 -7.91386 13.6533)
(2.43142e-15 -7.92764 13.693)
(2.21991e-15 -7.91428 13.7951)
(2.04342e-15 -7.90093 13.9005)
(1.88341e-15 -7.82591 13.9079)
(4.33656e-16 -3.58847 8.73705)
(1.17615e-15 -4.39648 11.0533)
(7.6488e-16 -4.0521 10.3798)
(5.86751e-16 -3.94263 9.62654)
(2.79241e-16 -3.64694 8.15241)
(-5.40047e-17 -3.9013 5.56087)
(-1.09611e-15 -3.62202 -0.39344)
(-9.15904e-16 -3.24485 -3.66804)
(-1.10689e-15 -3.52332 -2.05067)
(-1.50743e-15 -3.0172 -3.08548)
(-1.04765e-15 -2.59155 -1.42674)
(-1.16521e-15 -2.22644 -1.6348)
(-1.60155e-15 -2.28142 -1.92735)
(-8.46905e-16 -1.8243 -1.06724)
(-9.33196e-16 -1.58595 -1.17519)
(-9.44565e-16 -1.64725 -1.42897)
(-2.91932e-16 -1.26083 -0.78008)
(-2.90442e-16 -1.10809 -0.875866)
(-3.53109e-16 -1.14468 -1.11966)
(8.01867e-17 -0.824426 -0.694504)
(-2.52199e-16 -0.790714 -0.765797)
(-3.91312e-16 -0.601792 -0.789057)
(-2.41522e-16 -0.643361 -1.05389)
(1.45054e-16 -0.385932 -0.63405)
(-1.63825e-16 -0.276296 -0.53635)
(-8.92199e-16 -0.368397 -0.878355)
(-4.62772e-16 -0.0350988 -0.920057)
(1.32849e-13 -1.17302 4.11834)
(1.12751e-13 -2.66978 3.99659)
(9.40676e-14 -2.74255 4.13839)
(6.61739e-14 -1.857 4.05428)
(1.84199e-14 0.296232 3.11806)
(-7.73207e-15 1.32382 1.89869)
(-1.15461e-14 0.530804 1.58264)
(-1.27834e-14 -0.867231 1.87381)
(-1.14673e-14 -1.60172 1.92769)
(-9.76014e-15 -2.0222 1.71947)
(-7.58095e-15 -1.91347 1.39892)
(-6.05691e-15 -1.35377 0.989855)
(-5.48155e-15 -0.518423 0.472905)
(-5.1947e-15 -0.631883 -0.0625067)
(-4.75394e-15 -0.865651 -0.35811)
(-3.73742e-15 -0.768513 -0.37494)
(-2.65255e-15 -0.611482 -0.573121)
(-1.61133e-15 -0.917765 -0.73422)
(-9.89141e-16 -0.943512 -0.86274)
(1.21844e-13 -1.10562 4.1258)
(1.11955e-13 -2.69102 4.05289)
(8.9836e-14 -2.73366 4.27125)
(5.67925e-14 -1.45912 4.01448)
(1.14118e-14 0.998146 2.69118)
(-2.6119e-15 1.82761 1.63402)
(-1.4492e-15 0.577567 1.26145)
(-1.00654e-14 -1.00757 1.64233)
(-1.06321e-14 -1.58768 2.09082)
(-8.97815e-15 -1.85479 1.95122)
(-7.1422e-15 -1.67516 1.59849)
(-5.86881e-15 -1.06079 1.0634)
(-5.20878e-15 -0.173065 0.25003)
(-4.67082e-15 -0.376729 -0.620828)
(-4.81261e-15 -0.806027 -0.601241)
(-4.023e-15 -0.705094 -0.402258)
(-2.90928e-15 -0.492461 -0.551193)
(-1.76231e-15 -0.870864 -0.726214)
(-1.08242e-15 -0.96217 -0.856728)
(1.00558e-13 -1.15539 4.3139)
(1.10573e-13 -2.72586 4.27558)
(8.57415e-14 -2.73333 4.45887)
(4.50765e-14 -1.16863 4.09421)
(5.49952e-15 1.28317 2.78096)
(3.58147e-15 1.99441 2.23263)
(9.66969e-15 0.568665 1.82206)
(-3.22178e-15 -1.17737 1.40384)
(-8.96691e-15 -1.69487 1.89677)
(-8.54332e-15 -1.78427 1.9493)
(-6.88862e-15 -1.50496 1.84382)
(-5.19418e-15 -0.767522 1.32695)
(-4.47469e-15 0.210176 0.119791)
(-3.69989e-15 -0.288828 -1.48868)
(-4.55306e-15 -0.913653 -1.19431)
(-4.10584e-15 -0.755188 -0.653235)
(-2.90213e-15 -0.431121 -0.694184)
(-1.795e-15 -0.736839 -0.824407)
(-1.24947e-15 -0.708045 -0.967445)
(8.28594e-14 -1.12459 4.81817)
(1.05686e-13 -2.73886 4.76306)
(8.25863e-14 -2.68376 4.75184)
(3.30898e-14 -0.792458 4.32323)
(2.41842e-15 1.63524 3.35341)
(1.14768e-14 2.17987 3.32465)
(1.99602e-14 0.875669 2.86918)
(8.58703e-15 -1.06259 1.55549)
(-3.74338e-15 -1.78627 1.34274)
(-7.76342e-15 -1.8591 1.34223)
(-7.68498e-15 -1.44067 1.5501)
(-5.66913e-15 -0.372105 1.34451)
(-3.94407e-15 0.959737 -0.344108)
(-1.31096e-15 0.0360327 -2.32825)
(-2.58593e-15 -1.16047 -2.0034)
(-3.4154e-15 -0.905296 -1.08418)
(-2.86496e-15 -0.442582 -0.879759)
(-1.79253e-15 -0.890272 -0.866253)
(-1.15372e-15 -0.935795 -1.25727)
(7.14196e-14 -1.16033 5.54198)
(9.784e-14 -2.69329 5.5142)
(7.74255e-14 -2.5686 5.20649)
(2.4483e-14 -0.536661 4.71149)
(4.16936e-15 1.69519 4.29242)
(1.78665e-14 2.21746 4.6623)
(2.4552e-14 1.27579 4.30798)
(1.89556e-14 -0.589235 2.62204)
(6.97895e-15 -1.62321 1.42096)
(1.29355e-16 -1.89167 1.05303)
(-4.77162e-15 -1.50141 0.922276)
(-5.47395e-15 0.0273513 0.815759)
(-1.9842e-15 1.74467 -1.41533)
(1.53387e-15 0.461988 -2.26767)
(5.82996e-16 -1.35348 -2.16853)
(-1.56925e-15 -1.19121 -1.258)
(-2.27405e-15 -0.4636 -1.17143)
(-1.97548e-15 -0.450168 -1.22063)
(-1.33476e-15 -0.226815 -1.74038)
(6.62115e-14 -1.17313 6.51487)
(8.86651e-14 -2.59538 6.41594)
(6.84891e-14 -2.37546 5.81003)
(2.04408e-14 -0.38223 5.24894)
(8.77949e-15 1.62131 5.34433)
(1.9732e-14 2.18705 5.99185)
(2.26513e-14 1.63854 5.9782)
(2.11012e-14 0.100127 4.68015)
(1.66482e-14 -1.15345 2.92157)
(1.10586e-14 -1.64936 1.99814)
(3.83364e-15 -1.36979 1.21223)
(-7.10661e-16 0.536722 0.399164)
(1.90807e-15 2.22552 -1.12749)
(3.29213e-15 0.307912 -0.188665)
(2.92154e-15 -1.47174 -0.86494)
(-1.83376e-16 -1.21768 -0.252749)
(-1.68973e-15 -0.569988 -0.791581)
(-1.73903e-15 -1.11335 -0.983541)
(-1.77581e-15 -0.940048 -3.00626)
(6.32183e-14 -1.16646 7.68118)
(7.84629e-14 -2.40448 7.3768)
(5.72801e-14 -2.09782 6.47782)
(1.96508e-14 -0.312218 5.85583)
(1.19793e-14 1.39656 6.28133)
(1.68879e-14 1.9976 7.19026)
(1.68866e-14 1.77325 7.71092)
(1.65518e-14 0.660797 7.18555)
(1.7261e-14 -0.572717 5.57421)
(1.59919e-14 -1.21498 4.14424)
(1.06864e-14 -0.892322 2.70803)
(4.70758e-15 1.06848 1.13431)
(2.4902e-15 1.9724 2.21326)
(2.24538e-15 -0.200654 3.12621)
(2.74647e-15 -1.56976 1.54419)
(1.6592e-15 -1.07626 1.10147)
(8.55027e-16 0.145963 -0.475582)
(3.66272e-16 1.20199 -2.0864)
(-1.68361e-15 1.35599 -2.22265)
(5.74976e-14 -1.10792 8.99382)
(6.70706e-14 -2.11407 8.30773)
(4.70478e-14 -1.75479 7.10903)
(1.98658e-14 -0.294078 6.40245)
(1.17187e-14 1.073 6.987)
(1.14783e-14 1.62925 8.22516)
(1.05013e-14 1.60427 9.44516)
(1.1135e-14 0.941268 9.81622)
(1.30616e-14 0.0370896 8.55992)
(1.34965e-14 -0.473299 6.43613)
(9.89877e-15 -0.140124 4.42228)
(3.86225e-15 0.893954 4.12401)
(1.76502e-15 1.48919 6.64576)
(2.50504e-15 0.647118 6.67122)
(2.72166e-15 -0.434087 4.38412)
(2.34864e-15 -0.314044 2.95251)
(1.76542e-15 0.27293 3.28047)
(1.67194e-15 -1.44074 5.68431)
(2.1969e-15 -6.07362 9.9228)
(4.17173e-14 -0.923533 10.258)
(4.87531e-14 -1.65016 9.14306)
(3.52224e-14 -1.31357 7.6583)
(1.73474e-14 -0.267963 6.8142)
(8.20991e-15 0.660332 7.42338)
(5.09384e-15 1.02626 9.06362)
(4.1837e-15 1.11589 10.9779)
(4.96787e-15 1.00939 12.1152)
(5.51953e-15 0.760444 11.4735)
(4.96436e-15 0.398063 9.44131)
(3.44469e-15 0.0918932 7.67337)
(2.51904e-15 0.278544 8.17689)
(2.89593e-15 0.825345 10.324)
(2.61912e-15 0.45367 11.9575)
(2.23641e-15 -0.268047 12.0941)
(2.40118e-15 -0.481405 11.6801)
(2.54716e-15 -0.557295 12.1307)
(2.75523e-15 -1.45609 12.3064)
(3.09847e-15 -3.09714 11.8159)
(2.79939e-14 -0.693242 11.3513)
(2.9935e-14 -1.09057 9.6504)
(2.29339e-14 -0.804939 7.76403)
(1.26299e-14 -0.212751 6.73752)
(3.45787e-15 0.168942 7.4766)
(-1.51718e-15 0.225597 9.5392)
(-2.92773e-15 0.377872 11.7338)
(-3.02093e-15 0.750441 12.884)
(-2.49527e-15 1.11103 12.4356)
(-2.9151e-16 1.04436 10.6649)
(2.43689e-15 0.348003 8.53403)
(3.60609e-15 -0.188779 8.25392)
(5.4078e-15 -0.00415921 10.5208)
(3.87738e-15 -0.0640541 13.1501)
(3.34822e-15 -0.286507 14.0932)
(2.79819e-15 -0.285707 13.3001)
(3.17086e-15 -0.42359 11.8752)
(3.73623e-15 -1.3328 9.66379)
(5.02658e-15 -2.85466 5.82825)
(2.48856e-15 -0.243947 11.6109)
(2.14244e-15 -0.216879 9.52489)
(-1.7571e-15 -0.124967 7.48217)
(-4.86748e-15 -0.168995 6.45806)
(-5.8766e-15 -0.46146 7.11647)
(-7.69744e-15 -0.644388 8.88909)
(-1.13218e-14 -0.206664 10.47)
(-1.34824e-14 0.747876 10.8198)
(-1.24944e-14 1.64771 10.132)
(-9.13375e-15 1.93226 9.00655)
(-3.59986e-15 1.07679 7.8043)
(2.46073e-16 -0.462891 7.80213)
(2.07883e-16 -1.09689 10.0931)
(-1.31574e-15 -0.972775 13.1616)
(-2.23566e-15 -0.318566 14.3901)
(-2.37598e-15 0.516679 13.506)
(-2.0407e-15 0.936522 12.0753)
(-1.27226e-15 1.52905 9.76494)
(1.66802e-15 2.8532 5.77985)
(4.88975e-15 0.1421 11.1251)
(4.73044e-15 0.533341 9.56074)
(-3.88926e-15 0.443061 7.81553)
(-1.25319e-14 -0.0674608 6.73232)
(-1.44989e-14 -0.787616 6.83417)
(-1.25745e-14 -1.09172 7.64578)
(-1.2402e-14 -0.406897 8.05665)
(-1.4105e-14 0.872557 7.53205)
(-1.56257e-14 1.82671 6.88955)
(-1.34447e-14 1.97578 6.48578)
(-6.55237e-15 0.863689 6.49619)
(-1.66999e-15 -1.07465 7.88954)
(-2.22892e-15 -2.11416 9.9418)
(-2.54783e-15 -1.78802 12.2062)
(-2.34374e-15 -0.400509 12.4094)
(-2.4544e-15 0.704823 10.9905)
(-2.60541e-15 0.964795 11.379)
(-2.79863e-15 1.58415 12.2153)
(-2.88005e-15 3.0768 11.7876)
(1.01997e-14 0.380977 10.2262)
(1.62159e-14 1.105 9.18011)
(8.35021e-15 1.02225 7.59905)
(-8.39502e-15 0.193968 6.31965)
(-2.01931e-14 -0.834695 6.11485)
(-1.9204e-14 -1.1435 6.3738)
(-1.71505e-14 -0.197966 5.82425)
(-1.83456e-14 1.18145 4.72454)
(-1.9356e-14 2.03341 4.20236)
(-1.69228e-14 2.05884 4.12383)
(-9.95853e-15 0.501893 4.11304)
(-2.8233e-15 -1.87112 6.1448)
(-2.51517e-15 -2.85101 8.441)
(-2.82823e-15 -1.94041 8.83701)
(-2.95503e-15 0.151999 6.13493)
(-3.26064e-15 1.02332 2.94926)
(-2.90797e-15 0.03218 2.71862)
(-2.72223e-15 1.35546 5.6276)
(-2.93878e-15 6.08111 10.0052)
(9.47144e-15 0.539033 8.94058)
(2.2645e-14 1.5673 8.34366)
(2.02559e-14 1.6042 7.0647)
(1.11062e-15 0.537634 5.6822)
(-2.14468e-14 -0.799669 4.91901)
(-2.54871e-14 -0.971376 4.86132)
(-2.26787e-14 0.260047 3.69921)
(-1.91978e-14 1.52378 2.4197)
(-1.59166e-14 2.07247 2.13264)
(-1.29673e-14 2.01993 2.24329)
(-7.7074e-15 0.168215 2.32038)
(-4.07363e-15 -2.71418 3.47077)
(-2.55022e-15 -3.25431 5.95485)
(-2.86113e-15 -1.08817 5.51164)
(-3.57155e-15 1.65588 2.94333)
(-3.18626e-15 2.11438 1.42866)
(-2.36467e-15 0.409514 0.0683863)
(-2.73014e-15 -1.26848 -1.83279)
(-4.20859e-16 -1.37714 -2.04936)
(8.23954e-15 0.583629 7.55199)
(2.76695e-14 1.85315 7.25227)
(3.00927e-14 2.09984 6.33048)
(1.11131e-14 1.08392 5.19793)
(-1.52719e-14 -0.527116 3.69526)
(-2.6116e-14 -0.687166 2.91966)
(-2.08761e-14 0.75991 1.7113)
(-1.16564e-14 1.79438 1.27005)
(-6.9013e-15 2.10531 1.39096)
(-4.91775e-15 1.967 1.43012)
(-1.87712e-15 0.0919288 1.76925)
(-3.40555e-15 -3.24566 1.38402)
(-3.55308e-15 -3.6254 3.0702)
(-3.36293e-15 -0.615493 2.81342)
(-4.2189e-15 1.9628 0.869366)
(-2.34763e-15 2.32288 0.621676)
(-9.62213e-16 1.04659 -0.0144296)
(-7.68952e-16 1.12775 -0.718502)
(1.9987e-17 0.947079 -2.99889)
(1.24799e-14 0.625278 6.30597)
(3.45555e-14 2.05065 6.13553)
(3.65336e-14 2.43586 5.48242)
(1.60302e-14 1.60747 4.83525)
(-3.77613e-15 0.168992 3.34807)
(-1.3746e-14 -0.210202 1.59223)
(-8.575e-15 0.852076 0.95593)
(-3.18757e-15 1.65808 1.46)
(-8.55688e-16 1.99909 1.78098)
(4.84802e-16 1.82795 1.90043)
(1.00101e-15 0.181732 2.18333)
(-1.35234e-15 -3.15819 0.698802)
(-4.63181e-15 -3.88295 0.23298)
(-4.18345e-15 -0.220544 0.642306)
(-4.48688e-15 2.4333 -0.822254)
(-1.62803e-15 2.51277 -0.223394)
(-3.02098e-16 1.18441 -0.341486)
(7.06868e-17 0.688669 -0.872119)
(5.37071e-16 0.358181 -1.63706)
(2.66892e-14 0.59917 5.32032)
(4.46055e-14 2.18028 5.13084)
(3.88644e-14 2.62762 4.74762)
(1.71642e-14 1.92246 4.49131)
(3.47303e-15 0.772983 3.5533)
(-1.12501e-15 0.278575 2.16651)
(-1.00517e-15 0.84437 1.73491)
(-1.01098e-15 1.4986 2.03142)
(-6.40694e-16 1.8995 2.27857)
(1.27017e-16 1.76925 2.43462)
(3.51391e-16 0.514642 2.3713)
(-3.72789e-16 -2.40972 0.817564)
(-4.08632e-15 -3.58401 -1.59115)
(-4.75126e-15 -0.615183 -1.78724)
(-3.08685e-15 2.25243 -1.85062)
(-7.96413e-16 2.27132 -0.682991)
(2.41271e-16 1.24557 -0.333615)
(3.07596e-16 1.20142 -0.621578)
(3.17858e-16 1.06857 -1.16391)
(4.52443e-14 0.685764 4.57363)
(5.17498e-14 2.2785 4.38579)
(3.71623e-14 2.70056 4.29594)
(1.86512e-14 2.08978 4.23099)
(7.3396e-15 1.13017 3.6442)
(1.68485e-15 0.560783 2.77351)
(3.17763e-17 0.906943 2.35786)
(-1.88918e-16 1.45246 2.36091)
(1.38404e-16 1.84877 2.41325)
(4.62859e-16 1.79214 2.40491)
(7.12353e-16 0.852612 2.12142)
(5.11108e-17 -1.47018 0.910231)
(-2.29863e-15 -2.80949 -1.80456)
(-3.52534e-15 -0.460803 -2.70223)
(-1.53485e-15 1.95519 -2.06962)
(5.54724e-17 1.96934 -0.754052)
(3.77844e-16 1.20973 -0.455116)
(2.64103e-16 1.13264 -0.700655)
(2.69851e-16 0.922212 -0.921135)
(5.78012e-14 0.632912 4.21206)
(5.12964e-14 2.29516 3.9798)
(3.55147e-14 2.68905 4.09027)
(2.1623e-14 2.16276 4.076)
(1.0218e-14 1.32148 3.72082)
(3.01203e-15 0.73285 3.14299)
(6.83636e-16 0.972227 2.75458)
(3.77804e-16 1.46683 2.57675)
(6.57851e-16 1.86457 2.42431)
(8.73078e-16 1.85535 2.22903)
(9.81063e-16 1.09804 1.83826)
(6.62938e-16 -0.815786 0.90901)
(-7.43906e-16 -2.14388 -1.09768)
(-1.71415e-15 -0.460797 -2.35941)
(-2.48769e-16 1.52815 -1.62422)
(3.87707e-16 1.68889 -0.694739)
(3.64251e-16 1.22341 -0.557979)
(2.31835e-16 1.26761 -0.725165)
(2.05974e-16 1.1545 -0.864453)
(5.69111e-14 0.770265 4.11827)
(4.8058e-14 2.32759 3.90608)
(3.66797e-14 2.66635 3.99985)
(2.42539e-14 2.24955 4.0023)
(1.23211e-14 1.54709 3.81566)
(4.25783e-15 1.00212 3.41032)
(1.33143e-15 1.18461 2.99337)
(7.26483e-16 1.63384 2.66595)
(8.37105e-16 2.03064 2.3761)
(9.56643e-16 2.06992 2.07927)
(1.12105e-15 1.45264 1.69254)
(9.96093e-16 -0.238958 0.96593)
(2.43531e-16 -1.37202 -0.277378)
(-2.03542e-16 -0.104974 -1.35286)
(3.41205e-16 1.29282 -1.10226)
(4.35512e-16 1.54194 -0.720073)
(3.40639e-16 1.25125 -0.679168)
(2.17143e-16 1.29369 -0.770438)
(1.89502e-16 1.14365 -0.878255)
(8.6742e-17 8.26988 13.7665)
(-2.65132e-15 16.6785 28.5216)
(-2.48927e-15 17.3705 27.7085)
(-2.63482e-15 15.9688 25.6295)
(-2.59574e-15 15.2233 23.4249)
(-3.39491e-15 14.1835 21.5454)
(-3.58301e-15 13.1486 19.3877)
(-3.62026e-15 12.1738 17.7236)
(-3.70389e-15 11.4215 16.2658)
(-3.86542e-15 10.7108 15.0593)
(-4.06711e-15 10.1015 13.9898)
(-4.36716e-15 9.49144 13.0517)
(-4.72192e-15 8.92929 12.1777)
(-5.0559e-15 8.31358 11.4015)
(-5.4937e-15 7.77135 10.626)
(-6.04046e-15 7.05085 9.93795)
(-6.63183e-15 6.52306 9.11619)
(-7.80443e-15 5.4363 8.27948)
(-7.82491e-15 5.15775 7.4614)
(-1.0097e-14 3.65172 6.79605)
(8.53269e-17 8.74709 14.1721)
(-2.37816e-15 16.2273 28.2967)
(-1.78708e-15 15.8543 26.2933)
(-2.20028e-15 14.1214 24.2436)
(-2.2737e-15 13.1614 21.8861)
(-3.46138e-15 11.8961 20.212)
(-2.74127e-15 11.1657 18.6187)
(-2.59626e-15 10.3375 17.3304)
(-2.74117e-15 9.74768 16.075)
(-2.99512e-15 9.07082 14.9186)
(-3.30241e-15 8.46703 13.7394)
(-3.58792e-15 7.80478 12.621)
(-4.00516e-15 7.20248 11.5089)
(-4.38823e-15 6.52525 10.4818)
(-4.98845e-15 5.95956 9.4259)
(-5.55902e-15 5.19108 8.48135)
(-6.33134e-15 4.69453 7.39165)
(-7.8254e-15 3.62517 6.3579)
(-7.65926e-15 3.613 5.62787)
(-9.44937e-15 2.69163 5.32707)
(2.88712e-17 9.15181 15.5292)
(-8.09108e-16 16.6241 29.3585)
(-5.66868e-16 16.3742 27.7597)
(-9.16763e-16 14.7371 25.6254)
(-8.81028e-16 13.5563 22.8273)
(-2.03533e-15 12.3637 21.1131)
(-1.11993e-15 11.6712 19.5632)
(-1.05826e-15 10.8146 18.2006)
(-1.15144e-15 10.1013 16.7961)
(-1.26794e-15 9.30376 15.4708)
(-1.43833e-15 8.58318 14.1668)
(-1.52957e-15 7.83807 12.9367)
(-1.76399e-15 7.15686 11.7227)
(-2.03192e-15 6.41122 10.5823)
(-2.2511e-15 5.79299 9.40796)
(-2.66093e-15 4.97398 8.36142)
(-3.09682e-15 4.48238 7.18037)
(-4.22657e-15 3.4136 6.13959)
(-3.61946e-15 3.55408 5.50134)
(-3.66953e-15 2.92967 5.85074)
(1.25215e-17 8.31689 14.2575)
(2.2121e-16 16.3901 28.9496)
(1.43061e-16 16.5228 28.3467)
(1.81813e-16 14.7303 25.817)
(1.98204e-16 13.4023 22.9448)
(-1.35405e-15 12.1168 20.9509)
(-1.05109e-15 11.3531 19.3889)
(-1.18511e-15 10.4524 17.9898)
(-1.27139e-15 9.67782 16.5455)
(-1.41508e-15 8.86051 15.1956)
(-1.44679e-15 8.12498 13.8756)
(-1.64518e-15 7.3714 12.6093)
(-1.92864e-15 6.67035 11.3459)
(-2.17881e-15 5.90114 10.1421)
(-2.4473e-15 5.26605 8.88682)
(-2.86617e-15 4.41638 7.76374)
(-3.41846e-15 3.91428 6.46993)
(-4.40186e-15 2.83715 5.36137)
(-4.43551e-15 3.11521 4.90526)
(-3.34005e-15 2.94958 5.83822)
(-5.30457e-18 7.83998 13.5428)
(-5.47732e-17 16.5114 28.7686)
(-3.62268e-17 16.8601 29.0442)
(-4.4043e-17 14.8996 25.9126)
(-4.38537e-17 13.7526 23.7439)
(2.99005e-16 12.4392 21.4162)
(2.54951e-16 11.4908 19.5461)
(2.70135e-16 10.5909 18.1016)
(2.89477e-16 9.83931 16.6935)
(3.18735e-16 9.06824 15.3904)
(3.48571e-16 8.35074 14.084)
(3.6851e-16 7.58912 12.7883)
(4.26325e-16 6.86658 11.4806)
(4.83865e-16 6.07015 10.2487)
(5.41577e-16 5.43292 8.97723)
(6.22491e-16 4.5743 7.87538)
(7.26892e-16 4.11503 6.60264)
(1.09628e-15 3.05219 5.54265)
(8.42979e-16 3.37626 5.07591)
(9.88914e-16 3.31526 6.35625)
(1.10122e-18 8.17332 13.8557)
(1.30996e-17 17.0381 28.7431)
(9.20176e-18 17.3095 29.4231)
(1.01467e-17 15.1292 25.4276)
(1.1192e-17 14.245 24.1609)
(-6.25873e-17 13.2998 22.2945)
(-6.09254e-17 12.0976 19.8116)
(-6.20466e-17 11.1269 18.1877)
(-6.55186e-17 10.4287 16.7778)
(-7.09583e-17 9.68973 15.4914)
(-7.95939e-17 8.9601 14.1265)
(-8.5302e-17 8.12292 12.7107)
(-9.68043e-17 7.30039 11.2524)
(-1.08781e-16 6.39988 9.90079)
(-1.22524e-16 5.67184 8.56371)
(-1.39438e-16 4.76095 7.44864)
(-1.61263e-16 4.24616 6.24538)
(-1.94546e-16 3.16891 5.16525)
(-2.3903e-16 3.23745 4.5373)
(-3.92199e-16 2.73313 4.90897)
(-1.26782e-19 10.2715 17.4318)
(-2.85972e-18 18.3429 29.9481)
(-2.37627e-18 17.6524 29.7185)
(-2.29678e-18 15.3812 24.9467)
(-3.05442e-18 14.7393 24.4075)
(1.18407e-17 14.5988 23.8915)
(1.44481e-17 13.3081 20.9726)
(1.45282e-17 12.1347 18.963)
(1.51567e-17 11.4569 17.3829)
(1.62036e-17 10.676 15.9577)
(1.80231e-17 9.83581 14.3617)
(1.98604e-17 8.83209 12.6632)
(2.24929e-17 7.8094 10.9114)
(2.54488e-17 6.72852 9.2815)
(2.8892e-17 5.80565 7.7518)
(3.30992e-17 4.79498 6.50036)
(3.77283e-17 4.13018 5.33621)
(3.88498e-17 3.06758 4.26189)
(6.56082e-17 2.68029 3.34903)
(7.66584e-17 1.52457 2.21864)
(3.28254e-21 13.0206 22.7448)
(5.97313e-19 19.5362 31.5206)
(5.87889e-19 17.3256 29.8183)
(5.21927e-19 15.4016 24.6662)
(7.89489e-19 15.227 25.2484)
(-2.05582e-18 15.648 25.7119)
(-3.26182e-18 14.402 22.617)
(-3.48645e-18 13.0507 20.5129)
(-3.61451e-18 12.316 18.5985)
(-3.82626e-18 11.2436 16.7382)
(-4.20586e-18 10.0969 14.6445)
(-4.68386e-18 8.81326 12.5118)
(-5.3258e-18 7.53619 10.3935)
(-6.09209e-18 6.25737 8.40158)
(-6.98551e-18 5.10244 6.55021)
(-8.10147e-18 3.95466 4.96974)
(-9.4206e-18 3.05796 3.59145)
(-1.04054e-17 1.97539 2.33396)
(-6.76e-18 1.21681 1.15681)
(-3.14035e-17 -0.19988 -0.964079)
(2.35101e-21 14.5958 26.3525)
(-1.3147e-19 19.4019 31.6936)
(-1.39791e-19 16.4138 29.7218)
(-1.17872e-19 15.258 24.8358)
(-1.91058e-19 15.3359 26.4497)
(3.9788e-19 15.6005 27.016)
(7.35977e-19 14.2574 23.4996)
(8.37415e-19 12.744 21.8756)
(8.85908e-19 11.7363 19.4221)
(9.42064e-19 9.99025 16.8682)
(1.03444e-18 8.4297 14.223)
(1.16265e-18 6.86825 11.8125)
(1.33557e-18 5.43351 9.55732)
(1.52812e-18 4.07597 7.44464)
(1.73319e-18 2.82225 5.45181)
(2.03737e-18 1.63441 3.66083)
(2.41529e-18 0.629373 2.05027)
(2.6182e-18 -0.400608 0.582558)
(3.18409e-18 -1.06384 -0.899055)
(-2.93812e-17 -1.88493 -2.50161)
(-6.79351e-22 14.3982 26.1884)
(3.09661e-20 18.5959 31.1445)
(3.24139e-20 15.7153 29.2926)
(2.92592e-20 14.961 24.8905)
(4.42419e-20 14.6908 26.2233)
(-9.14552e-20 14.4689 26.4508)
(-1.82719e-19 12.9091 22.647)
(-2.15545e-19 11.2155 21.1801)
(-2.28985e-19 9.71566 18.2136)
(-2.4961e-19 7.61688 15.2823)
(-2.81912e-19 5.9333 12.5952)
(-3.09418e-19 4.36097 10.289)
(-3.15261e-19 2.95021 8.23788)
(-3.39603e-19 1.65159 6.33343)
(-4.73593e-19 0.425357 4.54556)
(-7.10862e-19 -0.626433 2.92228)
(-1.19063e-18 -1.36285 1.68414)
(-3.30538e-18 -1.248 1.53164)
(-7.48217e-18 0.854809 3.74508)
(-4.75497e-18 2.98368 6.29627)
(2.63994e-23 13.6381 24.3099)
(-7.30425e-21 18.1454 30.8385)
(-7.65477e-21 15.3414 28.4522)
(-7.12365e-21 14.5988 24.5846)
(-7.22967e-21 13.8002 24.8633)
(2.76556e-20 13.4027 24.7222)
(4.83032e-20 11.5031 20.99)
(5.77999e-20 9.93871 19.1191)
(6.11513e-20 8.23659 16.4338)
(6.27084e-20 6.45207 13.5586)
(6.49688e-20 4.71868 10.8757)
(1.01295e-19 3.17977 8.38003)
(2.52533e-19 1.74929 6.23416)
(5.21464e-19 0.549341 4.41989)
(5.33749e-19 -0.386101 3.09055)
(-5.22884e-19 -0.653188 2.58032)
(-3.06556e-18 0.357568 3.72601)
(-5.35522e-18 2.9636 7.37712)
(-3.52231e-18 6.77564 12.1945)
(1.08569e-18 6.48908 11.9177)
(-1.76796e-23 13.497 23.5646)
(1.73218e-21 18.0426 30.6413)
(1.84397e-21 15.4675 27.404)
(2.34093e-21 14.4633 24.5012)
(2.86507e-21 13.4977 23.9766)
(-5.14074e-21 13.2902 22.9913)
(-1.26603e-20 10.9458 20.2487)
(-1.49962e-20 9.95279 17.9164)
(-1.54182e-20 8.25547 15.7063)
(-1.84655e-20 7.00444 13.1151)
(-3.07952e-20 5.50339 10.6642)
(-4.67337e-20 4.27277 8.13318)
(7.2618e-21 3.04828 5.85304)
(3.16278e-19 2.22696 4.04984)
(9.69921e-19 2.2074 3.68444)
(1.53142e-18 3.56779 5.6768)
(1.56303e-18 5.91189 8.96735)
(1.61271e-18 7.36175 11.6995)
(1.49055e-18 8.24265 12.7232)
(-2.88933e-19 5.80465 10.5896)
(1.10894e-23 14.1347 24.7977)
(-3.84147e-22 18.78 30.8613)
(-4.36358e-22 15.8043 27.8227)
(-5.41696e-22 15.1258 24.6974)
(-7.20256e-22 13.3508 22.7301)
(1.17118e-21 12.5573 20.5994)
(3.02769e-21 11.2896 19.1595)
(3.73073e-21 10.5679 17.3579)
(4.01321e-21 9.55288 15.8787)
(4.65119e-21 8.83404 14.0946)
(4.14418e-21 7.93095 12.3435)
(-2.96093e-21 7.20221 10.5043)
(-1.4003e-20 6.49363 8.77424)
(1.40086e-20 6.01636 7.31242)
(1.16034e-19 5.89822 6.50483)
(1.49976e-19 6.11668 6.61547)
(2.85018e-20 6.22923 6.92148)
(-1.32856e-19 5.88154 7.1672)
(-3.6969e-19 5.40187 7.28554)
(-7.91861e-19 3.56681 5.65464)
(-4.32463e-24 15.4738 27.8272)
(8.55584e-23 19.3155 30.9773)
(1.04952e-22 15.8003 28.3379)
(1.26344e-22 15.9026 25.563)
(1.73558e-22 14.2315 24.3578)
(-2.09425e-22 13.6964 21.9855)
(-6.59547e-22 12.399 20.0957)
(-8.7346e-22 11.9575 18.5482)
(-9.5568e-22 11.4046 17.439)
(-1.0575e-21 10.8437 15.9821)
(-9.55566e-22 10.1724 14.4082)
(3.48267e-22 9.47547 12.7675)
(2.69349e-21 8.76738 11.1439)
(1.40644e-21 7.99931 9.52088)
(-1.47158e-20 7.07947 7.78526)
(-4.86951e-20 6.15071 6.18608)
(-8.71952e-20 5.17328 4.87743)
(-1.34263e-19 4.20407 3.63137)
(-1.79955e-19 2.41615 1.85546)
(-2.47065e-19 0.498321 -1.26515)
(1.33482e-24 16.4761 30.7956)
(-1.93371e-23 19.3481 30.5267)
(-2.44482e-23 15.7123 29.0208)
(-2.73887e-23 16.4898 26.4189)
(-4.12696e-23 14.3988 25.4083)
(1.81402e-23 14.4609 23.5505)
(8.64132e-23 13.3527 22.4041)
(1.17015e-22 12.9861 20.9057)
(1.74183e-22 12.2478 19.5517)
(3.6886e-22 11.6516 18.0831)
(6.46506e-22 10.8766 16.4642)
(4.1703e-22 9.90874 14.4804)
(-1.04834e-21 8.64387 12.1424)
(-2.63023e-21 7.21108 9.60767)
(-2.44466e-22 5.79738 7.25472)
(7.51628e-21 4.5609 5.23755)
(1.94601e-20 3.12381 3.32219)
(3.70305e-20 1.36486 0.623719)
(6.02172e-21 -1.75434 -2.84101)
(-9.13289e-20 -2.6612 -7.27522)
(-3.6251e-25 16.4247 31.8286)
(4.84187e-24 18.575 29.2427)
(6.91806e-24 15.0374 28.8227)
(8.62342e-24 15.9582 26.2861)
(6.17175e-24 13.6441 25.4179)
(-2.95791e-23 13.6012 23.5233)
(-8.61794e-23 12.229 22.4431)
(-1.12203e-22 11.7504 21.0652)
(1.44536e-23 10.838 19.9445)
(4.01018e-22 10.0893 18.5324)
(6.08453e-22 8.97187 16.7673)
(-9.93291e-22 7.58479 14.3827)
(-5.56372e-21 5.94901 11.6244)
(-7.49411e-21 4.4191 8.95696)
(7.50147e-21 2.93825 6.3262)
(4.31604e-20 1.17572 3.22824)
(7.22621e-20 -0.456089 0.39727)
(7.54191e-20 -2.26905 -2.65029)
(4.46435e-20 -4.85119 -6.36161)
(-2.80055e-20 -3.66388 -6.98343)
(7.40086e-26 15.3948 30.7286)
(-1.09659e-24 18.0618 28.1062)
(-8.54739e-25 14.1519 27.719)
(-8.99353e-25 15.0648 25.1448)
(-5.54792e-24 12.8306 24.2186)
(-1.83733e-23 12.557 22.4367)
(-4.41589e-23 11.3173 21.2631)
(-4.72739e-23 10.632 19.9145)
(8.10048e-23 9.72105 18.7107)
(3.70171e-22 8.86116 17.3615)
(2.44897e-22 7.82252 15.7679)
(-1.69431e-21 6.65802 13.8289)
(-5.46657e-21 5.47177 11.7238)
(-5.01257e-21 4.39656 9.66494)
(1.22933e-20 3.25987 7.43412)
(5.38163e-20 1.76126 4.49131)
(9.95519e-20 0.10043 1.09357)
(1.03782e-19 -1.11944 -1.38464)
(6.5785e-20 -1.80045 -2.09958)
(6.60987e-21 -0.291505 0.675051)
(-7.42533e-27 14.1323 30.3036)
(3.84228e-25 17.909 27.2258)
(8.4512e-25 13.2233 27.1526)
(1.10059e-24 14.2066 24.7056)
(-2.19208e-24 12.0705 23.7439)
(-1.52835e-23 11.6281 22.0899)
(-3.94023e-23 10.4922 20.859)
(-5.75898e-23 9.76187 19.5283)
(-2.62881e-23 8.93622 18.319)
(6.46168e-23 8.2083 17.0953)
(4.1241e-23 7.4741 15.8504)
(-4.97552e-22 6.76222 14.5122)
(-1.75544e-21 6.04666 13.0397)
(-2.75853e-21 5.3054 11.3894)
(-3.50624e-22 4.49944 9.52472)
(1.05891e-20 3.56219 7.32733)
(3.4324e-20 2.32964 4.44269)
(7.22099e-20 0.591302 0.291649)
(1.0712e-19 -1.29705 -3.11293)
(1.29897e-19 -0.214991 -1.21961)
(4.25125e-27 11.2407 28.5075)
(-7.68119e-26 17.024 24.8973)
(-7.05759e-27 11.9987 25.3154)
(2.24345e-25 12.7107 23.5529)
(-2.3263e-25 10.9664 22.7859)
(-4.55858e-24 10.3313 21.6608)
(-1.8731e-23 9.35373 20.7182)
(-4.70409e-23 8.60677 19.7476)
(-7.73682e-23 7.86841 18.8328)
(-6.29716e-23 7.22128 17.9425)
(5.38207e-23 6.62359 17.0705)
(2.23309e-22 6.06945 16.174)
(1.64999e-22 5.53374 15.2099)
(-4.40803e-22 5.00406 14.134)
(-1.17852e-21 4.45776 12.8697)
(1.93436e-22 3.80017 11.2676)
(8.46036e-21 2.86103 9.021)
(3.06868e-20 1.51397 5.48651)
(6.986e-20 -0.415462 0.378554)
(9.06741e-20 -1.79665 -3.47951)
(6.25688e-27 2.66615 17.0747)
(2.42614e-26 8.07577 13.704)
(3.67145e-26 5.18694 14.572)
(1.25896e-25 5.00995 14.1724)
(2.01985e-25 4.08726 14.1345)
(-6.36282e-25 3.52995 13.9608)
(-4.61957e-24 2.96323 13.8052)
(-1.39547e-23 2.50331 13.6161)
(-2.60289e-23 2.10427 13.4051)
(-2.69512e-23 1.7754 13.1644)
(9.21724e-24 1.51132 12.8957)
(1.0409e-22 1.31577 12.6011)
(2.35413e-22 1.19138 12.284)
(2.92319e-22 1.14906 11.942)
(8.00508e-23 1.20532 11.569)
(-5.62865e-22 1.32954 11.1783)
(-1.53585e-21 1.54162 10.7149)
(-2.26296e-21 2.09598 9.83966)
(-1.81396e-21 2.22368 8.40532)
(-8.32227e-23 -0.274782 6.11994)
(-6.0794e-27 -2.66446 17.0709)
(-2.42226e-26 -8.07349 13.7015)
(-3.60341e-26 -5.1854 14.5702)
(-1.20193e-25 -5.00844 14.1713)
(-1.8743e-25 -4.08577 14.134)
(6.46771e-25 -3.52839 13.9611)
(4.57515e-24 -2.9615 13.8061)
(1.37543e-23 -2.50135 13.6178)
(2.54588e-23 -2.10201 13.4076)
(2.53673e-23 -1.77283 13.168)
(-1.33174e-23 -1.50846 12.9006)
(-1.11408e-22 -1.31275 12.6078)
(-2.36726e-22 -1.18856 12.2932)
(-2.50035e-22 -1.14694 11.9547)
(7.89998e-23 -1.20393 11.5855)
(8.95833e-22 -1.32784 11.1975)
(1.97001e-21 -1.5361 10.7346)
(2.56838e-21 -2.08192 9.85892)
(1.82813e-21 -2.20901 8.4196)
(-7.63068e-24 0.27445 6.1256)
(-5.14433e-27 -11.2434 28.513)
(7.23302e-26 -17.0269 24.9054)
(4.06085e-27 -12.0025 25.3218)
(-2.15314e-25 -12.7147 23.5596)
(2.67366e-25 -10.9718 22.7921)
(4.61874e-24 -10.3381 21.6666)
(1.87324e-23 -9.36282 20.7239)
(4.65206e-23 -8.61889 19.7534)
(7.47258e-23 -7.88443 18.8385)
(5.57273e-23 -7.24172 17.9477)
(-6.14264e-23 -6.64881 17.0744)
(-1.99328e-22 -6.09952 16.1755)
(-4.07178e-23 -5.5685 15.2077)
(6.81478e-22 -5.04321 14.1267)
(1.26955e-21 -4.50402 12.8606)
(-8.69006e-22 -3.86435 11.2729)
(-1.0185e-20 -2.94383 9.055)
(-3.20038e-20 -1.53264 5.48418)
(-6.59569e-20 0.635985 0.1246)
(-7.38399e-20 2.11925 -4.01457)
(9.82748e-27 -14.1264 30.2899)
(-3.68734e-25 -17.911 27.1938)
(-8.25807e-25 -13.2225 27.1269)
(-1.06942e-24 -14.22 24.6684)
(2.22885e-24 -12.0845 23.7037)
(1.52281e-23 -11.6525 22.0431)
(3.90664e-23 -10.523 20.8052)
(5.67399e-23 -9.80029 19.4637)
(2.53663e-23 -8.98089 18.2433)
(-6.12773e-23 -8.26164 17.01)
(-1.69428e-23 -7.53828 15.7575)
(5.69978e-22 -6.83976 14.4133)
(1.83325e-21 -6.13677 12.9345)
(2.48642e-21 -5.40737 11.2783)
(-1.09383e-21 -4.62465 9.42038)
(-1.32086e-20 -3.75511 7.29038)
(-3.33162e-20 -2.65187 4.6395)
(-5.64372e-20 -1.0966 0.858911)
(1.07106e-21 0.712568 -2.49244)
(-2.36276e-20 0.316442 -1.85643)