/*--------------------------------*- C++ -*----------------------------------*\
| =========                 |                                                 |
| \\      /  F ield         | OpenFOAM: The Open Source CFD Toolbox           |
|  \\    /   O peration     | Version:  4.1                                   |
|   \\  /    A nd           | Web:      www.OpenFOAM.org                      |
|    \\/     M anipulation  |                                                 |
\*---------------------------------------------------------------------------*/
FoamFile
{
    version     2.0;
    format      ascii;
    class       volScalarField;
    location    "9";
    object      p;
}
// * * * * * * * * * * * * * * * * * * * * * * * * * * * * * * * * * * * * * //

dimensions      [0 2 -2 0 0 0 0];

internalField   nonuniform List<scalar> 
1280
(
-0.277569
-0.253459
-0.322968
-0.7876
-0.552426
-0.847984
-1.50464
-1.6753
-1.4704
-2.03091
-3.39415
-3.00145
-4.16103
-6.42454
-6.01608
-8.802
-13.0507
-13.1678
-18.9457
-28.7815
-24.5593
-13.2227
7.61141
21.9172
24.6902
25.9712
20.3975
7.66494
11.0631
9.0681
6.99209
5.17149
2.68931
-0.206016
-3.30564
-6.70598
-10.1633
-14.1559
-17.5809
-23.5895
-14.0708
-10.768
-6.61954
-1.01244
12.8928
10.7407
11.3035
11.7812
12.936
12.774
12.7632
12.8928
11.3888
10.867
10.2437
12.5075
-2.00486
-7.67643
-11.8528
-15.5727
-24.4734
-18.389
-14.913
-10.852
-7.33643
-3.87243
-0.71223
2.24349
4.78521
6.6755
8.81403
10.8521
7.57697
20.6889
27.1744
26.0255
23.3793
9.14765
-11.7967
-23.2278
-27.275
-16.6859
-9.3036
-8.48105
-4.76325
-0.567657
-0.00497001
1.00106
2.4943
2.68697
2.76084
2.96708
2.96948
2.67232
2.48669
2.25219
1.75604
0.974606
0.288457
0.563475
-0.0819873
0.362121
1.06641
0.430413
0.207376
0.166706
-0.542855
-2.24904
-2.07831
-6.23239
-3.01191
-0.994416
0.797588
2.50566
2.55483
1.53125
0.443801
0.0960771
0.250316
0.0961233
0.926343
2.23136
1.29162
1.0779
0.453799
-0.899746
-3.76185
-3.71402
-9.23572
-3.23305
-0.0799669
2.93899
5.8322
5.8575
3.87733
1.29633
0.260168
0.747413
0.255907
1.14607
2.38223
1.71778
1.51998
0.516539
-1.20134
-4.91739
-6.29809
-10.7224
-3.39732
0.518495
4.25266
8.11154
8.38157
6.02482
2.19693
0.304459
1.07158
0.363077
1.39264
2.76609
2.45085
2.02161
0.634685
-1.22547
-5.41463
-10.1676
-11.7212
-4.26407
0.905045
5.54668
10.6588
11.3642
8.50831
3.0674
0.0210783
1.04189
0.455731
1.57327
2.95452
2.81487
2.3038
0.616906
-1.35936
-5.82459
-13.2588
-10.4481
-4.99594
1.25409
6.86119
13.3006
14.5866
10.8634
3.76082
-0.779969
0.457822
0.531578
1.67131
3.03158
2.98761
2.56984
0.53742
-1.74186
-5.98217
-13.6436
-8.61822
-5.06322
1.83772
8.12252
15.6806
17.6057
12.8445
3.47693
-2.34099
-1.64931
0.592706
1.66743
3.04729
2.87989
2.71855
0.247694
-2.91232
-6.94497
-12.7089
-7.78757
-2.3303
1.75669
9.14275
18.1453
20.8872
14.6455
1.66061
-4.81505
-5.67535
0.553429
1.52533
3.15189
2.76759
2.90472
-0.320744
-5.43227
-10.0354
-12.4185
-4.83879
1.8304
1.35248
9.72602
19.0641
22.0272
16.6704
3.93966
-2.995
-2.10965
0.31566
1.27695
3.50168
2.86975
3.11337
-1.19123
-9.4886
-15.5454
-14.4083
-1.29997
3.47275
2.39408
9.60521
21.0529
21.7661
16.5695
7.31443
11.3817
32.3545
-0.0929892
0.870071
3.98364
3.05215
3.11483
-2.51715
-14.6952
-21.1715
-14.8901
2.61326
5.52829
4.50599
7.76572
16.5666
16.2657
12.9131
9.25099
17.6747
29.6054
-0.404712
0.544449
4.67505
3.19082
2.54186
-4.3403
-18.4318
-23.9829
-11.1563
6.82443
10.7136
7.54374
4.88554
8.89123
8.82051
10.1363
10.1025
17.702
28.9466
-0.793319
0.526771
5.74747
3.89634
1.9169
-6.14023
-18.482
-23.5821
-5.4649
10.1013
15.7209
9.45144
3.3783
2.05353
-0.0331148
2.55904
6.55539
13.6546
33.3279
-1.37714
1.2976
6.74864
4.76693
1.61757
-7.2258
-16.634
-20.5204
-0.477789
11.6848
18.0237
9.34257
2.02993
-7.67054
-11.5708
-2.92896
7.26151
4.39343
0.974652
-1.20176
2.85505
7.89896
5.85489
2.29385
-6.24821
-14.9668
-15.0218
2.08671
11.0974
15.9571
8.09892
0.0138521
-14.1707
-12.1344
-3.19625
3.83355
2.47681
-1.97628
-0.799486
2.26569
7.84425
6.73359
3.07663
-4.05207
-12.6092
-8.81537
1.8224
9.81942
11.1395
5.99403
-2.65531
-18.3804
-13.9717
-4.54496
3.13946
2.39128
-0.0887214
-0.0733644
1.77511
6.7427
6.05003
3.0786
-1.76476
-6.81052
-3.72277
0.319066
8.37497
7.28626
3.98567
-4.44815
-19.0941
-16.1904
-4.64815
1.91708
1.25788
0.959291
0.116632
0.950925
5.39124
5.23434
2.95271
-0.338175
-3.09176
-1.00741
0.305371
6.19258
5.1702
2.60554
-4.6193
-16.8635
-16.6065
-4.62975
1.17726
0.789837
0.728084
0.0229884
0.724092
4.1581
4.13415
2.50556
0.0950315
-1.57416
0.328545
1.0272
3.87054
3.59726
1.59752
-3.72257
-12.2445
-13.431
-3.88754
0.612449
0.368326
0.551727
-0.186594
0.37452
3.10852
3.20105
1.99403
0.269494
-0.719409
1.02132
1.28553
2.11773
2.20164
1.11979
-1.76125
-6.30541
-8.37928
-3.14755
0.220616
0.188452
0.336826
-0.336676
-0.294025
1.28208
1.33004
0.83702
0.0463039
-0.383467
0.950012
0.872967
0.775623
0.63352
0.0882285
-1.03143
-1.95355
-3.39683
-1.44051
0.156451
0.074409
0.253751
-71.6065
-67.0952
-61.4609
-57.0673
-54.4411
-52.6197
-52.1173
-52.0281
-51.9304
-51.8433
-51.8031
-51.6896
-51.4531
-51.0496
-50.4615
-49.6144
-48.5693
-47.112
-45.7713
-43.7098
-157.203
-154.669
-147.001
-139.124
-132.65
-127.034
-121.923
-117.301
-113.072
-109.164
-105.505
-102.052
-98.8021
-95.7484
-92.9529
-90.3511
-87.9914
-85.484
-83.3142
-79.7336
-117.547
-123.472
-128.653
-132.205
-135.656
-139.256
-142.332
-145.097
-147.267
-148.77
-149.432
-149.145
-147.874
-145.684
-142.758
-139.362
-136.063
-132.926
-130.582
-126.147
-87.9339
-96.1876
-101.307
-107.312
-112.806
-118.85
-124.582
-130.46
-136.231
-141.934
-147.336
-152.257
-156.47
-159.698
-161.569
-162.448
-162.613
-161.624
-161.23
-158.975
-20.1361
-27.7574
-31.8515
-37.4043
-41.897
-47.1779
-52.037
-56.9163
-61.3297
-65.3853
-68.8517
-71.7161
-73.8865
-75.3052
-75.8194
-75.709
-75.5143
-75.049
-76.3653
-81.4586
35.0635
34.0765
34.0342
33.4314
32.9979
32.0615
30.9919
29.2083
26.7676
23.1931
18.2371
11.5818
3.23842
-6.1209
-15.1372
-22.5062
-27.2403
-28.7651
-28.4662
-32.7086
6.52547
8.31816
9.01026
9.88338
10.8613
11.5625
12.5065
13.2198
13.9906
14.6418
15.1847
15.521
15.4755
14.7595
13.3012
11.1412
8.96859
7.1038
6.80978
5.49072
-2.60285
-0.447259
0.869192
1.84686
3.29387
4.02682
5.13655
5.78942
6.39141
6.73628
6.92334
7.03684
7.27499
7.81205
8.85486
10.3842
12.1923
13.8475
15.0248
15.7891
-28.3886
-26.1147
-24.4172
-23.4684
-21.5234
-20.5657
-18.9358
-17.7084
-16.3258
-15.0117
-13.7141
-12.4357
-11.1761
-9.89185
-8.54732
-7.03734
-5.44693
-3.60339
-2.1698
-0.36806
-48.0811
-46.191
-44.3158
-43.7531
-41.5207
-40.7471
-38.9172
-37.6946
-36.174
-34.7596
-33.3232
-31.8879
-30.47
-29.0434
-27.6419
-26.1854
-24.8037
-23.2194
-22.0436
-20.2825
-74.7584
-73.8674
-71.5821
-71.6939
-69.1461
-68.8107
-66.7674
-65.684
-63.969
-62.4197
-60.6824
-58.8549
-56.9203
-54.8586
-52.7362
-50.4832
-48.2902
-45.9008
-44.0259
-41.0306
-97.6679
-99.7271
-98.226
-100.299
-99.0926
-100.856
-100.432
-101.608
-101.827
-102.569
-102.885
-103.04
-102.765
-101.999
-100.688
-98.7827
-96.5577
-93.7918
-91.8293
-88.2795
-84.0316
-88.5511
-88.3341
-92.0629
-92.5028
-95.8259
-97.112
-100.07
-102.13
-104.914
-107.321
-109.795
-111.984
-113.902
-115.407
-116.787
-117.87
-117.983
-117.833
-115.445
-42.2873
-46.6695
-46.3557
-50.6415
-50.9512
-54.705
-56.0124
-59.1765
-61.2574
-64.0211
-66.2849
-68.5605
-70.4707
-72.141
-73.4838
-74.8162
-76.3499
-77.6483
-79.5136
-81.5061
-14.1089
-15.4064
-12.9748
-15.1267
-12.1916
-13.5815
-11.6785
-12.0943
-11.3368
-11.5366
-11.6429
-12.2168
-13.0218
-14.1856
-15.7324
-17.8477
-20.2969
-22.1263
-23.4903
-26.3458
-36.0389
-36.6236
-33.4246
-35.6193
-31.7601
-32.5542
-29.8599
-28.8886
-26.7044
-24.7933
-22.5441
-20.2958
-18.0358
-15.9557
-14.2705
-13.2723
-12.8984
-12.8842
-12.3132
-11.0038
-36.8777
-39.7141
-36.6781
-42.3165
-40.7331
-44.2681
-44.8338
-46.7522
-47.8436
-49.0035
-49.8608
-50.5255
-50.9615
-51.135
-51.0287
-50.3864
-49.0703
-46.8337
-44.132
-41.1985
-48.7558
-55.5015
-47.2498
-54.0813
-52.0377
-55.3011
-56.5276
-58.9949
-61.1795
-63.6349
-66.0776
-68.5784
-71.072
-73.5275
-75.8243
-77.4819
-78.1883
-77.163
-75.9687
-73.5944
-28.2473
-51.287
-43.3852
-54.8416
-57.9095
-64.8938
-70.1573
-75.7188
-80.5448
-84.8413
-88.365
-91.0648
-92.8482
-93.645
-93.3714
-92.0011
-89.511
-86.3611
-83.9364
-81.6177
666.593
583.434
534.138
477.638
428.433
380.949
336.821
295.165
256.005
219.067
184.2
151.213
119.894
90.1865
62.1831
35.1392
9.58022
-9.98086
-33.1435
-70.3727
668.052
584.893
535.598
479.097
429.893
382.409
338.281
296.625
257.464
220.526
185.659
152.672
121.353
91.6454
63.6421
36.5988
11.0406
-8.51998
-31.6829
-68.913
-26.7822
-49.8221
-41.92
-53.3765
-56.4443
-63.4284
-68.6918
-74.253
-79.0789
-83.3751
-86.8985
-89.5978
-91.3809
-92.1771
-91.9029
-90.5323
-88.0418
-84.891
-82.4675
-80.1506
-47.3004
-54.0477
-45.7967
-52.6296
-50.587
-53.8517
-55.0796
-57.5485
-59.7347
-62.192
-64.6366
-67.1396
-69.6354
-72.0932
-74.3924
-76.0515
-76.7586
-75.7339
-74.5404
-72.1688
-35.4524
-38.2912
-35.2561
-40.8964
-39.3148
-42.8519
-43.4201
-45.3407
-46.4346
-47.5967
-48.4558
-49.1216
-49.5579
-49.7305
-49.6224
-48.9776
-47.6594
-45.4217
-42.7195
-39.7859
-34.6161
-35.1988
-31.9963
-34.1892
-30.3268
-31.1194
-28.4218
-27.4489
-25.2625
-23.3489
-21.0967
-18.8462
-16.5857
-14.5063
-12.8235
-11.8292
-11.4571
-11.4367
-10.8569
-9.53776
-12.6249
-13.9142
-11.479
-13.6259
-10.6865
-12.0729
-10.1659
-10.5789
-9.81874
-10.0165
-10.1213
-10.6944
-11.4989
-12.6612
-14.2045
-16.3132
-18.7536
-20.5754
-21.9293
-24.7729
-40.6716
-45.0475
-44.7303
-49.011
-49.3136
-53.0606
-54.3592
-57.5143
-59.5852
-62.3387
-64.5929
-66.8604
-68.7648
-70.4326
-71.7776
-73.1176
-74.6596
-75.9592
-77.8294
-79.842
-82.4647
-86.99
-86.7786
-90.5142
-90.9611
-94.2921
-95.5862
-98.5537
-100.625
-103.424
-105.845
-108.336
-110.54
-112.472
-113.992
-115.387
-116.465
-116.575
-116.437
-114.051
-96.2405
-98.3114
-96.8171
-98.8975
-97.6998
-99.4712
-99.055
-100.24
-100.466
-101.215
-101.535
-101.692
-101.417
-100.648
-99.3327
-97.4255
-95.1992
-92.4373
-90.4755
-86.9204
-73.3812
-72.4946
-70.2087
-70.3222
-67.774
-67.4396
-65.3952
-64.3117
-62.5951
-61.0444
-59.3049
-57.4749
-55.5377
-53.4733
-51.3484
-49.0932
-46.8994
-44.5081
-42.63
-39.6296
-46.6466
-44.7577
-42.8807
-42.3179
-40.0834
-39.309
-37.4769
-36.2529
-34.7302
-33.314
-31.8759
-30.4392
-29.0202
-27.5928
-26.1909
-24.7341
-23.3526
-21.7687
-20.5929
-18.8287
-26.9741
-24.6972
-22.9966
-22.0456
-20.0973
-19.1371
-17.5045
-16.2749
-14.8905
-13.5754
-12.2771
-10.9985
-9.73831
-8.45313
-7.10771
-5.5965
-4.00553
-2.16139
-0.726975
1.0804
-1.16674
0.98731
2.30301
3.2779
4.72355
5.45402
6.56251
7.21575
7.82115
8.17576
8.37886
8.5173
8.786
9.34793
10.4154
11.9572
13.7666
15.42
16.5951
17.3718
7.97116
9.78295
10.4939
11.3877
12.3894
13.1191
14.0962
14.8466
15.6567
16.3454
16.9218
17.2781
17.2194
16.4777
14.9893
12.7791
10.5743
8.71005
8.42935
7.12385
36.8282
35.8863
35.861
35.2824
34.8672
33.9463
32.8857
31.1039
28.6561
25.0635
20.0789
13.3845
4.99712
-4.38871
-13.4318
-20.8229
-25.5749
-27.1149
-26.8202
-31.0494
-18.065
-25.6641
-29.7396
-35.2717
-39.7508
-45.0212
-49.8738
-54.7512
-59.1689
-63.2361
-66.7252
-69.6215
-71.8241
-73.2642
-73.7964
-73.7412
-73.611
-73.125
-74.4243
-79.5283
-86.0786
-94.3531
-99.4733
-105.507
-111.037
-117.123
-122.905
-128.841
-134.672
-140.428
-145.872
-150.815
-155.024
-158.218
-160.078
-160.98
-161.093
-160.085
-159.701
-157.437
-115.832
-121.771
-127.002
-130.622
-134.126
-137.778
-140.898
-143.699
-145.89
-147.4
-148.056
-147.751
-146.459
-144.245
-141.301
-137.904
-134.624
-131.492
-129.132
-124.674
-155.093
-152.526
-144.919
-137.113
-130.691
-125.118
-120.042
-115.45
-111.245
-107.356
-103.712
-100.274
-97.0369
-93.9967
-91.2128
-88.6145
-86.2566
-83.7422
-81.5583
-77.9851
-69.0128
-64.5297
-58.9885
-54.6766
-52.1369
-50.399
-49.9732
-49.9636
-49.9401
-49.9201
-49.9383
-49.8769
-49.6871
-49.3261
-48.777
-47.9665
-46.9558
-45.5365
-44.2292
-42.2162
)
;

boundaryField
{
    outletWall
    {
        type            fixedValue;
        value           uniform 0;
    }
    fineWalls
    {
        type            zeroGradient;
    }
    fineFrontAndBack
    {
        type            zeroGradient;
    }
    fineplugLeft
    {
        type            cyclicAMI;
        value           nonuniform List<scalar> 
20
(
-39.6857
-40.1332
-40.5208
-40.8881
-41.0327
-41.0303
-40.8809
-40.6246
-40.3174
-40.0441
-39.6611
-39.3317
-40.0895
-43.8718
-36.9016
-38.6149
-41.2704
-47.6465
-56.3207
-62.197
)
;
    }
    fineplugRight
    {
        type            cyclicAMI;
        value           nonuniform List<scalar> 
20
(
-38.6677
-39.0612
-39.4118
-39.7351
-39.8405
-39.7961
-39.6033
-39.301
-38.9445
-38.6156
-38.1733
-37.7817
-38.4555
-41.9384
-34.8843
-36.5044
-39.0654
-45.3613
-53.9831
-59.8558
)
;
    }
    inletOutletLeft
    {
        type            cyclicAMI;
        value           nonuniform List<scalar> 
20
(
-39.6857
-40.1332
-40.5208
-40.8881
-41.0327
-41.0303
-40.8809
-40.6246
-40.3174
-40.0441
-39.6611
-39.3317
-40.0895
-43.8718
-36.9016
-38.6149
-41.2704
-47.6465
-56.3207
-62.197
)
;
    }
    inletLeft
    {
        type            zeroGradient;
    }
    inletWallsLeft
    {
        type            zeroGradient;
    }
    inletFacesLeft
    {
        type            zeroGradient;
    }
    inletOutletRight
    {
        type            cyclicAMI;
        value           nonuniform List<scalar> 
20
(
-38.6677
-39.0612
-39.4118
-39.7351
-39.8405
-39.7961
-39.6033
-39.301
-38.9445
-38.6156
-38.1733
-37.7817
-38.4555
-41.9384
-34.8843
-36.5044
-39.0654
-45.3613
-53.9831
-59.8558
)
;
    }
    inletRight
    {
        type            zeroGradient;
    }
    inletWallsRight
    {
        type            zeroGradient;
    }
    inletFacesRight
    {
        type            zeroGradient;
    }
}


// ************************************************************************* //
