/*--------------------------------*- C++ -*----------------------------------*\
| =========                 |                                                 |
| \\      /  F ield         | OpenFOAM: The Open Source CFD Toolbox           |
|  \\    /   O peration     | Version:  4.1                                   |
|   \\  /    A nd           | Web:      www.OpenFOAM.org                      |
|    \\/     M anipulation  |                                                 |
\*---------------------------------------------------------------------------*/
FoamFile
{
    version     2.0;
    format      ascii;
    class       surfaceScalarField;
    location    "9";
    object      phi;
}
// * * * * * * * * * * * * * * * * * * * * * * * * * * * * * * * * * * * * * //

dimensions      [0 3 -1 0 0 0 0];

internalField   nonuniform List<scalar> 
2360
(
2456.37
3268.07
-811.706
3268.07
3268.07
4331.04
-1062.97
4331.04
4331.04
4331.04
5627.85
-1296.81
5627.85
5627.85
7266.25
-1638.39
7266.25
7266.25
9852.84
-2586.6
9852.84
9852.84
13931.5
-4078.62
13931.5
13931.5
14420.2
15772.8
17666.1
19531.7
21219.2
22732.9
17816.9
6330.95
19102.5
20286.5
21373.9
22367.5
23268.7
24079
24799.9
25432.1
25974.9
26425.4
26774.3
27013.9
27100.4
13481.7
13618.7
13481.7
13481.7
13481.7
2140.15
11341.5
2140.15
2140.15
2140.15
-16.4604
2156.61
-16.448
-16.4427
-2458.29
2441.84
-2458.29
-2458.29
-2458.29
-13834.1
11375.9
-13834.1
-13834.1
-13834.1
-27423.1
13588.9
-27332.1
-27090.3
-26740
-26288.4
-25744.6
-25111.4
-24389.3
-23577.6
-22674.9
-21679.8
-20591.1
-19405.8
-18119.1
-22970
6266
-21456.2
-19768.9
-17904.2
-16014.3
-14668.1
-14189.1
-14189.1
-14189.1
-8693.07
-5496.04
-8693.07
-8693.07
-4202.65
-4490.42
-4202.65
-4202.65
-870.965
-3331.69
-870.964
-870.964
1670.41
-2541.38
1670.41
1670.41
1670.41
3615.18
-1944.77
3615.18
3615.18
5308.78
-1693.6
-4807.61
4970.18
-4679.47
5603.18
-4191.23
3338.65
-3701.84
-3160.35
-3622.56
-7017.16
-3720.1
-8857.7
-3428.57
-10092.6
-2068.01
-8159.32
-291.023
3123.9
367.262
11283.4
835.185
14455.5
1190.43
15429.4
1435.73
14671.3
1584.93
11812.1
1719.9
7774.09
1930.93
3347.02
2056.97
26.4166
2005.38
-798.037
-2259.71
-4886.8
4965.17
-4748.19
5464.57
-4255.31
2845.77
-4147.63
-3268.03
-4409.71
-6755.08
-4643.35
-8624.06
-4457.48
-10278.4
-3169.09
-9447.71
-573.929
528.741
241.592
10467.9
604.188
14092.9
974.256
15059.4
1264.04
14381.5
1534.05
11542.1
1867.44
7440.71
2408.39
2806.07
2724.73
-289.931
2546.96
-620.266
-1657.51
-4934.69
4990.91
-4879.79
5409.66
-4646.29
2612.27
-4775.87
-3138.45
-5063.83
-6467.12
-5325.29
-8362.61
-5446.98
-10156.8
-4749.17
-10145.5
-1865.65
-2354.78
-133.343
8735.62
287.128
13672.5
610.254
14736.2
959.959
14031.8
1363.09
11139
1931.41
6872.39
2836.98
1900.5
3368.56
-821.506
3163.46
-415.166
-1035.43
-4964.54
5072.89
-5071.09
5516.21
-5115.09
2656.28
-5385.4
-2868.14
-5734.15
-6118.37
-6232.61
-7864.15
-6845.69
-9543.67
-6665.43
-10325.8
-3827.97
-5192.23
-1039.7
5947.34
-139.842
12772.6
109.027
14487.4
495.615
13645.2
1043.07
10591.5
1899.59
6015.86
3242.99
557.095
3989.2
-1567.71
3887.27
-313.234
-479.85
-4932.02
5260.7
-5262.83
5847.02
-5554.24
2947.69
-5955.17
-2467.21
-6443.86
-5629.67
-7341.13
-6966.88
-8599.69
-8285.11
-9057.29
-9868.19
-6528.6
-7720.92
-2589.87
2008.61
-846.653
11029.4
-528.396
14169.1
-151.556
13268.4
554.533
9885.44
1834.65
4735.75
3663.17
-1271.43
4606.35
-2510.9
4805.5
-512.386
-164.763
-4672.86
5637.1
-5361.98
6536.15
-5930.9
3516.6
-6489.17
-1908.94
-7235.62
-4883.23
-8707.28
-5495.22
-10735.3
-6257.08
-11972.1
-8631.38
-10143.8
-9549.21
-5113.75
-3021.48
-1933.87
7849.52
-1309.13
13544.4
-924.494
12883.7
-72.8174
9033.76
2059.57
2603.36
4079.97
-3291.83
4837.47
-3268.39
5395.69
-1070.61
-265.117
-4025.39
6195.71
-5154
7664.75
-6114.26
4476.87
-6981.85
-1041.36
-8167.27
-3697.8
-10316.8
-3345.65
-13078.7
-3495.26
-15051.4
-6658.68
-14100
-10500.5
-8580.08
-8541.42
-3509.34
2778.79
-2298.59
12333.6
-1984.09
12569.2
-952.069
8001.74
1516.73
134.567
2201.72
-3976.82
1912.04
-2978.71
744.145
97.2889
6745.03
-3076.8
6776.91
-4510.34
9098.3
-5974.58
5941.1
-7411.7
395.761
-9200.44
-1909.06
-11915.1
-631.041
-15039.2
-371.106
-17215.5
-4482.43
-16934.9
-10781.1
-12484.8
-12991.5
-6124.9
-3581.16
-3423.86
9632.58
-2937.7
12083.1
-1470.54
6534.58
-2094.94
758.969
-5677.33
-394.441
-8427.14
-228.897
-10955.5
2625.69
9378.44
-2275.66
7130.89
-3608.14
10430.8
-5431.92
7764.88
-7570.98
2534.82
-9917.83
437.793
-12680.5
2131.63
-15346
2294.41
-16522.7
-3305.79
-15850.7
-11453.1
-13348.9
-15493.3
-8459.72
-8470.29
-4592.8
5765.65
-3901.01
11391.3
-6064.46
8698.04
-10999.3
5693.85
-14552.8
3159.05
-15426.4
644.642
-14678
1877.29
6076.32
-2324.65
6944.81
-2927.95
11034.1
-4550.71
9387.64
-6934.06
4918.18
-9439.4
2943.13
-11675.8
4368.04
-12849.7
3468.31
-11874.3
-4281.24
-10080.3
-13247
-9991.65
-15582
-9872.01
-8589.93
-7748.96
3642.6
-7415.82
11058.1
-10650.4
11932.6
-13644.7
8688.11
-13173.2
2687.63
-11127.4
-1401.16
-8352.8
-897.336
165.355
-3896.45
5901.27
-3017.33
10155
-3545.19
9915.5
-5260.01
6633
-7474.66
5157.78
-9128.37
6021.75
-8462.96
2802.9
-5846.35
-6897.85
-4065.74
-15027.6
-6476.23
-13171.5
-10675
-4391.13
-11739
4706.6
-11865.2
11184.3
-13569
13636.4
-14421.6
9540.75
-13468.3
1734.25
-11829.1
-3040.33
-8645.33
-4081.1
-6323.36
-7675.34
4221.53
-5052.56
7532.18
-3648.97
8511.91
-4010.1
6994.13
-5455.87
6603.55
-6229.17
6795.05
-4005.97
579.692
-1492.51
-9411.31
-1494.09
-15026.1
-6132.98
-8532.58
-11665.5
1141.35
-14062
7103.14
-14725.4
11847.7
-15570.8
14481.8
-15692.3
9662.23
-14693.4
735.413
-14438.1
-3295.61
-14409.7
-4109.58
-9391.48
-13074.4
3091.48
-10146.9
4604.71
-7015.41
5380.44
-5366.87
5345.58
-4795.52
6032.2
-3399.69
5399.22
-308.236
-2511.76
1099.84
-10819.4
-731.958
-13194.3
-6278
-2986.54
-11292.2
6155.55
-13908.5
9719.44
-14786.1
12725.3
-13915.8
13611.5
-9889.96
5636.38
-5605.22
-3549.33
-6184.27
-2716.55
-10398.6
104.733
-6171.33
-14776.6
2537.35
-12180
2008.12
-8420.18
1620.65
-5738.9
2664.3
-3654.32
3947.62
-340.906
2085.81
2127.87
-4980.54
2188.96
-10880.5
-664.207
-10341.1
-5478.98
1828.24
-9221.08
9897.65
-11708.3
12206.7
-12378
13395
-10091.2
11324.7
-4953.86
499.062
-1569.4
-6933.79
836.172
-5122.13
1207.08
-266.181
1366.71
-10728
1111.31
-7258.21
-1461.64
-3970.18
-1667.37
-2354.71
1048.83
-700.361
2293.28
1956.85
-571.403
3018.74
-6042.43
2100.51
-9962.25
-1298.67
-6941.91
-4486.91
5016.48
-6599.41
12010.1
-8409.25
14016.5
-8771.83
13757.6
-6157.03
8709.87
-2389.81
-3268.15
-999.568
-8324.04
-421.718
-5699.98
1881.25
-2569.16
-830.661
-6570.65
-521.986
-4025.9
-4006.39
-1865.64
-3827.63
118.607
-935.416
2006.81
405.08
3100.98
-1665.58
2569.85
-5511.31
865.636
-8258.03
-2339.74
-3736.53
-3888.55
6565.29
-4341.15
12462.7
-5077.6
14753
-5227.45
13907.4
-3279.64
6762.07
-934.147
-5613.65
-217.473
-9040.71
81.5318
-5998.98
1235.78
-3723.41
-2181.47
-4062.39
-1671.67
-2716.18
-5352.6
-1675.9
-4867.91
-27.3585
-2583.96
1619.65
-1241.93
2077.62
-2123.55
1289.36
-4723.05
-651.242
-6317.42
-3363.11
-1024.67
-3672.96
6875.14
-2896.54
11686.3
-2465.97
14322.4
-2234.9
13676.3
-833.007
5360.18
290.762
-6737.42
220.332
-8970.28
280.998
-6059.65
885.27
-4327.68
-2934.59
-2614.23
-2310.95
-1998.05
-5968.79
-1415.15
-5450.81
-324.144
-3674.97
760.887
-2326.96
1050.71
-2413.37
417.841
-4090.18
-1437.61
-4461.97
-3641.59
1179.32
-3464.2
6697.75
-2194.21
10416.3
-915.24
13043.4
-30.6477
12791.8
960.56
4368.97
1149.86
-6926.72
601.378
-8421.79
541.939
-6000.21
834.365
-4620.11
-3397.04
-1950.83
-2581.13
-1676.34
-6243.28
-1237.38
-5889.77
-479.931
-4432.42
218.108
-3025
397.019
-2592.28
-23.3689
-3669.79
-1518.72
-2966.62
-3278.67
2939.26
-3115.86
6534.94
-1972.33
9272.81
-435.221
11506.3
1036.36
11320.2
1815.23
3590.09
1402.77
-6514.26
861.991
-7881.01
797.273
-5935.49
886.805
-4709.64
-3573.2
-1793.35
-1490.26
-1165.39
-669.775
-197.747
81.2566
69.2843
-887.676
-2166.06
-2181.23
-1569.29
-519.208
836.339
1609.85
1390.96
1080.09
950.226
926.086
-408.317
-80.4461
-274.483
-1486.39
14.3745
-2182.17
301.682
-2152.94
548.375
-1934.15
763.889
-1729.22
914.911
-1566.04
1056.25
-1426.9
1168.22
-1296
1248.79
-1167.95
1296.17
-1040.97
1309.87
-914.918
1289.61
-790.106
1234.89
-666.149
1145.09
-542.412
1018.33
-416.002
851.538
-283.75
627.836
-125.221
336.753
51.4576
250.254
302.225
-382.678
446.659
-1630.82
456.097
-2191.61
473.951
-2170.8
530.122
-1990.32
617.878
-1816.98
718.485
-1666.65
813.362
-1521.78
892.461
-1375.1
949.541
-1225.03
981.425
-1072.86
986.234
-919.731
962.937
-766.813
911.32
-614.536
831.222
-462.317
723.552
-308.336
593.32
-153.52
423.322
44.7734
223.005
251.771
473.259
862.097
-1244.78
1317.89
-2086.62
1319.31
-2193.03
1227.64
-2079.13
1189.56
-1952.25
1192.06
-1819.47
1203.66
-1678.25
1206.11
-1524.24
1194.04
-1363.03
1163.85
-1194.84
1111.81
-1020.83
1033.5
-841.424
925.758
-659.076
787.415
-476.197
612.799
-287.706
411.073
-106.617
243.482
14.0622
136.401
151.845
30.1346
358.03
503.393
536.115
-1780.9
666.249
-2216.76
499.103
-2025.88
319.841
-1899.87
186.806
-1819.21
71.0946
-1703.76
-43.838
-1563.32
-161.862
-1406.22
-282.203
-1242.69
-405.815
-1071.23
-532.404
-894.239
-660.484
-713.347
-785.775
-533.789
-899.139
-362.835
-986.793
-200.056
-1038.45
-54.9627
-1048.44
24.049
-935.894
39.2932
-596.316
18.4468
-92.9226
-41.179
-1739.72
-240.617
-2017.32
-472.281
-1794.22
-688.344
-1683.81
-907.565
-1600
-1130.64
-1480.69
-1353.1
-1340.87
-1573.12
-1186.2
-1791.51
-1024.31
-2006.65
-856.098
-2213.2
-687.685
-2399.67
-526.88
-2547.77
-385.695
-2630.77
-279.84
-2600.87
-229.951
-2400.66
-255.179
-2008.26
-368.353
-1402.34
-566.622
-614.57
-769.329
-707.493
-307.859
-1431.86
-415.525
-1909.66
-516.169
-1693.58
-702.855
-1497.12
-929.173
-1373.68
-1154.84
-1255.02
-1362.44
-1133.26
-1550.79
-997.859
-1718.09
-856.999
-1860.44
-713.746
-1970.9
-577.229
-2038.27
-459.503
-2049.88
-374.088
-1985.8
-343.921
-1820.2
-395.547
-1525.75
-549.632
-1097.85
-796.252
-610.085
-1054.39
-217.615
-1161.8
-925.107
-122.77
-1309.09
-62.4711
-1969.96
12.0524
-1768.1
30.5979
-1515.67
24.8941
-1367.97
18.7643
-1248.9
32.6859
-1147.18
74.7096
-1039.88
150.369
-932.659
260.962
-824.339
401.296
-717.563
560.21
-618.417
719.946
-533.824
859.221
-483.196
951.709
-488.036
959.455
-557.378
841.777
-678.574
593.464
-806.075
272.008
-840.345
-653.099
-5.32467
-1303.76
47.576
-2022.85
123.604
-1844.13
193.768
-1585.83
267.46
-1441.66
343.637
-1325.07
427.571
-1231.12
523.931
-1136.24
636.383
-1045.11
767.411
-955.365
915.974
-866.125
1074.12
-776.565
1226.83
-686.53
1343.88
-600.245
1383.92
-528.069
1310.21
-483.676
1105.72
-474.079
782.352
-482.708
403.711
-461.703
-249.388
100.747
-1404.51
157.442
-2079.55
198.748
-1885.43
246.511
-1633.6
311.125
-1506.28
376.515
-1390.46
440.279
-1294.88
498.687
-1194.65
552.734
-1099.16
602.768
-1005.4
650.814
-914.171
698.973
-824.726
748.696
-736.252
796.142
-647.693
827.353
-559.28
815.342
-471.665
730.831
-389.566
552.478
-304.354
291.29
-200.512
41.902
180.184
-1584.69
224.213
-2123.58
243.381
-1904.6
283.298
-1673.51
344.118
-1567.1
403.205
-1449.55
464.396
-1356.07
523.163
-1253.42
580.65
-1156.64
632.307
-1057.06
673.832
-955.695
700.39
-851.283
708.799
-744.66
697.497
-636.39
665.605
-527.387
608.942
-415.001
519.179
-299.803
380.946
-166.119
191.812
-11.3753
233.714
239.604
-1824.3
247.105
-2131.08
262.92
-1920.42
314.39
-1724.98
387.42
-1640.13
457.225
-1519.35
534.935
-1433.78
614.263
-1332.75
697.509
-1239.89
774.612
-1134.16
837.985
-1019.07
878.716
-892.014
891.138
-757.081
870.778
-616.031
815.035
-471.644
721.177
-321.142
588.84
-167.465
409.137
13.5847
203.19
194.572
436.905
211.812
-2036.11
155.175
-2074.44
164.307
-1929.55
206.341
-1767.01
265.736
-1699.52
325.944
-1579.56
401.281
-1509.12
482.8
-1414.26
571.189
-1328.27
649.28
-1212.25
708.275
-1078.06
739.325
-923.061
738.888
-756.643
701.815
-578.955
626.884
-396.711
507.669
-201.925
342.616
-2.4094
220.985
135.218
93.2402
322.32
530.145
62.6096
-2098.72
-47.0338
-1964.8
-83.7126
-1892.87
-109.959
-1740.77
-129.961
-1679.52
-146.534
-1562.98
-154.833
-1500.82
-157.318
-1411.78
-157.616
-1327.97
-164.044
-1205.82
-179.054
-1063.05
-202.344
-899.769
-234.985
-724
-278.132
-535.807
-320.565
-354.275
-342.577
-179.91
-327.906
-17.0762
-339.009
146.323
-283.871
267.184
246.274
-67.6511
-2031.06
-167.931
-1864.51
-245.443
-1815.35
-334.813
-1651.39
-422.526
-1591.8
-517.372
-1468.13
-617.92
-1400.27
-723.231
-1306.46
-831.243
-1219.96
-932.487
-1104.57
-1020.17
-975.371
-1089.45
-830.485
-1145.3
-668.151
-1196.85
-484.253
-1250.04
-301.078
-1277.41
-152.539
-1229.99
-64.5033
-1016.53
-67.1345
-561.243
-188.099
-314.969
-58.5211
-1972.54
-119.21
-1803.82
-175.415
-1759.15
-254.69
-1572.12
-329.893
-1516.6
-422.29
-1375.74
-525.133
-1297.42
-641.067
-1190.53
-759.236
-1101.79
-862.404
-1001.4
-936.741
-901.032
-973.228
-793.997
-964.773
-676.605
-908.286
-540.739
-816.199
-393.164
-700.417
-268.32
-542.334
-222.584
-314.744
-294.724
-87.4564
-415.385
-402.425
30.6615
-2003.2
40.4976
-1813.66
65.1259
-1783.77
83.4814
-1590.47
101.401
-1534.51
119.77
-1394.1
130.621
-1308.27
138.722
-1198.63
142.622
-1105.69
151.849
-1010.63
171.506
-920.688
208.123
-830.609
271.012
-739.492
372.778
-642.501
514.921
-535.306
663.993
-417.389
738.274
-296.865
657.001
-213.451
388.848
-147.232
-13.5772
11.4702
-2014.67
5.91863
-1808.11
18.5761
-1796.43
51.2616
-1623.15
81.465
-1564.72
133.822
-1446.46
189.561
-1364.01
260.203
-1269.27
338.143
-1183.63
425.067
-1097.55
518.691
-1014.31
619.344
-931.262
725.562
-845.708
832.036
-748.975
921.763
-625.031
956.577
-452.203
892.305
-232.592
633.709
45.1467
332.448
154.031
318.871
-139.929
-1874.74
-294.935
-1653.1
-414.022
-1677.34
-487.885
-1549.29
-551.575
-1501.03
-580.869
-1417.16
-593.504
-1351.37
-582.906
-1279.86
-553.941
-1212.59
-506.471
-1145.02
-441.961
-1078.82
-360.721
-1012.5
-264.079
-942.351
-157.043
-856.01
-51.6833
-730.39
33.4391
-537.325
78.8841
-278.035
96.7082
27.3247
25.2666
225.474
344.138
-215.728
-1659.01
-470.36
-1398.47
-739.294
-1408.41
-964.532
-1324.05
-1180.13
-1285.43
-1361.92
-1235.38
-1520.03
-1193.26
-1649.41
-1150.49
-1752.71
-1109.29
-1829.52
-1068.22
-1880.99
-1027.35
-1907.4
-986.088
-1906.96
-942.793
-1871.01
-891.957
-1779.3
-822.097
-1597.32
-719.306
-1299.34
-576.015
-874.625
-397.392
-433.538
-215.613
-89.4
-684.013
-1107.48
-1540.89
-1889.94
-2200.37
-2460.74
-2679
-2854.49
-2988.78
-3081.99
-3134.34
-3145.43
-3113.22
-3030.18
-2877.27
-2621.58
-2222.59
-1644.99
-885.6
-684.007
1659.01
-1107.47
1398.46
-1540.88
1408.41
-1889.93
1324.05
-2200.35
1285.43
-2460.73
1235.38
-2678.99
1193.26
-2854.48
1150.49
-2988.77
1109.29
-3081.99
1068.22
-3134.35
1027.36
-3145.45
986.101
-3113.26
942.807
-3030.22
891.962
-2877.3
822.08
-2621.56
719.262
-2222.53
575.966
-1644.9
397.374
-885.552
215.653
89.4477
-215.746
1874.76
-470.401
1653.12
-739.356
1677.36
-964.621
1549.32
-1180.25
1501.05
-1362.07
1417.2
-1520.22
1351.41
-1649.63
1279.9
-1752.97
1212.64
-1829.82
1145.07
-1881.34
1078.88
-1907.81
1012.57
-1907.43
942.423
-1871.52
856.057
-1779.81
730.366
-1597.74
537.195
-1299.6
277.821
-874.642
-27.5819
-433.517
-225.471
-344.069
-139.972
2014.73
-295.022
1808.17
-414.149
1796.49
-488.059
1623.23
-551.793
1564.79
-581.138
1446.54
-593.822
1364.1
-583.28
1269.36
-554.37
1183.73
-506.949
1097.65
-442.479
1014.41
-361.273
931.366
-264.661
845.812
-157.66
749.057
-52.3488
625.057
32.7412
452.107
78.2467
232.319
96.2444
-45.5759
24.9867
-154.211
-319.083
11.4877
2003.24
5.91643
1813.74
18.5755
1783.83
51.2711
1590.53
81.4897
1534.57
133.864
1394.17
189.63
1308.33
260.303
1198.69
338.282
1105.75
425.246
1010.69
518.904
920.755
619.574
830.696
725.776
739.611
832.16
642.674
921.711
535.506
956.277
417.542
891.664
296.932
632.776
213.313
331.787
146.779
12.7045
30.7917
1972.45
40.7356
1803.8
65.4817
1759.09
83.9919
1572.02
102.057
1516.51
120.612
1375.62
131.662
1297.28
139.996
1190.36
144.136
1101.61
153.587
1001.24
173.441
900.902
210.24
793.9
273.309
676.543
375.24
540.746
517.473
393.274
666.352
268.664
739.995
223.289
657.843
295.466
389.093
415.531
401.797
-58.3341
2030.78
-118.839
1864.31
-174.866
1815.12
-253.959
1651.12
-328.979
1591.53
-421.186
1467.82
-523.838
1399.93
-639.575
1306.1
-757.548
1219.58
-860.525
1104.22
-934.677
975.054
-970.965
830.188
-962.28
667.858
-905.546
484.012
-813.252
300.98
-697.248
152.66
-538.955
64.9962
-311.732
68.2425
-85.7395
189.538
316.058
-67.8856
2098.67
-168.148
1964.57
-245.766
1892.73
-335.297
1740.65
-423.172
1679.4
-518.234
1562.89
-619.033
1500.73
-724.638
1411.7
-832.952
1327.9
-934.463
1205.73
-1022.35
1062.95
-1091.8
899.63
-1147.74
723.807
-1199.33
535.596
-1252.41
354.057
-1279.52
179.77
-1231.65
17.129
-1016.92
-146.483
-560.763
-266.622
-244.706
62.1282
2036.54
-47.5968
2074.29
-84.4565
1929.59
-110.94
1767.13
-131.2
1699.66
-148.03
1579.72
-156.614
1509.32
-159.39
1414.48
-159.987
1328.49
-166.673
1212.42
-181.879
1078.15
-205.302
923.052
-238.03
756.533
-281.185
578.75
-323.505
396.376
-345.427
201.689
-331.229
2.93071
-342.105
-135.608
-285.679
-323.048
-530.385
211.591
1824.95
154.767
2131.12
163.832
1920.53
205.77
1725.19
265.044
1640.39
325.15
1519.61
400.387
1434.08
481.807
1333.06
570.079
1240.22
648.019
1134.48
706.834
1019.34
737.679
892.207
737.027
757.186
699.754
616.023
624.643
471.487
505.511
320.821
341.495
166.946
220.292
-14.4053
92.6184
-195.374
-437.766
239.728
1585.22
247.091
2123.76
262.888
1904.73
314.376
1673.71
387.415
1567.35
457.231
1449.8
534.966
1356.34
614.327
1253.7
697.611
1156.94
774.741
1057.35
838.124
955.953
878.849
851.482
891.26
744.775
870.88
636.403
815.083
527.284
721.139
414.765
588.691
299.394
408.807
165.479
202.998
10.4342
-234.768
180.484
1404.74
224.44
2079.8
243.53
1885.64
283.435
1633.8
344.252
1506.53
403.327
1390.72
464.52
1295.15
523.312
1194.91
580.855
1099.4
632.583
1005.62
674.175
914.361
700.77
824.887
709.148
736.397
697.745
647.805
665.701
559.329
608.866
471.6
518.944
389.317
380.63
303.793
191.59
199.475
-43.1788
101.092
1303.65
157.766
2023.12
198.903
1844.5
246.517
1586.18
311.009
1442.04
376.282
1325.45
439.943
1231.49
498.24
1136.61
552.142
1045.49
601.989
955.769
649.784
866.565
697.612
777.057
747.012
686.997
794.096
600.72
824.998
528.427
812.986
483.611
728.812
473.491
551.014
481.592
290.382
460.109
247.203
-4.81241
1308.46
48.0475
1970.26
123.919
1768.63
194.076
1516.03
267.887
1368.23
344.193
1249.14
428.158
1147.52
524.386
1040.38
636.453
933.425
766.853
825.367
914.569
718.849
1071.87
619.76
1224.14
534.721
1340.7
484.156
1381.09
488.037
1308.18
556.523
1104.65
677.023
782.113
804.129
403.908
838.315
651.11
-121.759
1430.22
-61.1674
1909.67
13.8999
1693.56
33.3336
1496.59
28.5821
1372.98
23.3208
1254.4
38.0548
1132.79
80.9112
997.519
157.42
856.914
268.749
714.035
409.749
577.847
569.425
460.082
729.908
374.237
869.675
344.387
961.913
395.798
968.135
550.301
847.941
797.216
597.005
1055.07
273.585
1161.73
924.695
-308.137
1738.35
-414.477
2016.01
-514.166
1793.25
-700.208
1682.63
-925.926
1598.69
-1151.02
1479.49
-1357.94
1339.71
-1545.4
1184.98
-1711.53
1023.05
-1852.45
854.945
-1961.31
686.707
-2027.16
525.939
-2037.56
384.634
-1971.96
278.783
-1805.73
229.575
-1512.15
256.713
-1087
372.067
-602.905
570.972
-214.501
773.331
710.194
-44.3118
1782.66
-244.373
2216.07
-475.829
2024.71
-692.131
1898.93
-911.93
1818.49
-1135.59
1703.14
-1358.56
1562.68
-1579.06
1405.48
-1797.83
1241.81
-2013.13
1070.25
-2219.75
893.327
-2406.28
712.463
-2554.15
532.505
-2635.93
360.558
-2604.4
198.049
-2404.67
56.9856
-2012.96
-19.6467
-1403.33
-38.6522
-613.736
-16.2667
96.4582
532.937
1249.72
659.684
2089.32
491.543
2192.85
312.178
2078.3
178.917
1951.75
62.8729
1819.19
-52.379
1677.94
-170.636
1523.74
-291.199
1362.37
-415.009
1194.06
-541.638
1019.95
-669.746
840.571
-795.291
658.048
-909.213
474.48
-997.385
286.22
-1049.01
108.614
-1056.87
-11.789
-941.709
-153.817
-599.282
-358.694
-502.824
862.694
387.03
1318.85
1633.17
1320
2191.69
1228.12
2170.18
1189.98
1989.89
1192.39
1816.78
1203.79
1666.54
1205.9
1521.62
1193.43
1374.85
1162.81
1224.67
1110.38
1072.39
1031.79
919.167
923.691
766.143
784.49
613.681
609.429
461.281
410.776
307.266
247.035
151.952
138.344
-45.1264
30.4019
-250.752
-472.422
307.919
79.1112
456.499
1484.59
467.1
2181.09
484.488
2152.79
540.242
1934.14
627.857
1729.17
728.528
1565.87
823.485
1426.66
902.6
1295.73
959.62
1167.65
991.364
1040.64
995.962
914.569
972.348
789.757
920.192
665.836
839.287
542.185
730.654
415.899
598.877
283.729
427.518
126.232
225.863
-49.0972
-246.559
-399.845
-261.434
29.6946
317.768
564.645
780.038
930.752
1070.75
1181.2
1260.08
1305.65
1317.54
1295.58
1239.35
1148.26
1020.4
852.573
628.464
337.568
)
;

boundaryField
{
    outletWall
    {
        type            calculated;
        value           nonuniform List<scalar> 
60
(
5308.78
2571.49
849.625
-152.452
-3558.05
-7909.06
-11961.3
-14916.6
-15784.7
-14923.5
-11941.7
-4900.89
6798.76
9801.06
8955.23
6937.89
2670.95
-3826.89
-5731.32
-5010.6
2050.79
2221.02
3253.51
5212.08
8203.95
12154
15330.7
14204.4
9355.08
4939.99
2510.74
1921.67
2495.6
3466.78
4296.45
4744.22
4882.56
4908.95
4891.81
4848.03
-2456.37
-3458.82
-4685.5
-5805.63
-7570.13
-6295.37
2816.58
9964.62
10456.2
8660.86
6550.12
4217.64
-2009.66
-3657.82
-2871.29
-3497.02
-4928.03
-6214.64
-6546.38
-2838.56
)
;
    }
    fineWalls
    {
        type            calculated;
        value           uniform 0;
    }
    fineFrontAndBack
    {
        type            calculated;
        value           nonuniform List<scalar> 
960
(
3.22716e-14
4.19673e-13
6.76408e-14
6.75136e-14
6.58128e-13
1.16995e-13
1.44942e-13
7.76736e-14
1.4669e-12
4.13136e-13
5.81895e-13
1.58535e-12
-7.71012e-14
-8.57735e-14
-4.78746e-12
-1.681e-12
-1.71663e-12
-7.30441e-12
-1.11067e-12
-1.06245e-12
-1.22674e-13
-6.54703e-15
-4.5632e-14
-7.29699e-14
-1.03728e-13
-1.36038e-13
-5.6458e-12
-1.37708e-13
-1.64341e-13
-1.94378e-13
-2.19641e-13
-2.41963e-13
-2.6226e-13
-2.79588e-13
-2.958e-13
-3.24079e-13
-3.20015e-13
-4.04071e-13
-3.47438e-13
-4.91576e-13
-1.15599e-11
-1.5516e-12
-1.50393e-12
-1.66793e-12
-3.7154e-12
2.51118e-13
7.76934e-13
4.83382e-13
3.36532e-11
4.6481e-11
1.18259e-11
1.85156e-13
5.94713e-13
9.69509e-13
7.55377e-13
6.39252e-12
1.21244e-12
1.16064e-12
1.15994e-12
9.69663e-12
4.51687e-13
2.84923e-13
3.24496e-13
2.35167e-13
2.11082e-13
1.48012e-13
1.0002e-13
4.44964e-14
-1.41852e-14
-7.28261e-14
-1.30991e-13
-1.96893e-13
-2.60452e-13
-7.46591e-12
-3.7116e-13
-4.31043e-13
-5.03208e-13
-5.90323e-13
-6.92553e-13
-6.21852e-13
-3.23557e-12
-3.33563e-12
-1.82207e-11
-3.04872e-12
-3.21777e-12
-1.70376e-11
-2.51051e-12
-2.72216e-12
-1.66166e-11
-2.79694e-12
-2.39408e-12
-9.94462e-12
3.57587e-13
1.02928e-12
9.87322e-13
-1.06555e-11
-3.4137e-12
-3.52879e-12
-1.97106e-11
-4.62337e-12
6.55301e-10
2.19623e-10
9.7942e-11
-2.24611e-11
-1.39416e-11
2.65896e-11
5.48993e-11
7.13984e-11
8.03461e-11
7.94791e-11
7.40129e-11
6.39363e-11
4.52437e-11
1.91816e-11
-3.7889e-12
-1.87896e-11
-2.559e-11
-2.89823e-11
-3.19145e-11
5.50875e-10
1.61306e-10
5.97404e-11
-1.82542e-11
1.50154e-11
5.11231e-11
6.76124e-11
7.55268e-11
8.21739e-11
8.09968e-11
7.42563e-11
6.41561e-11
4.59701e-11
2.05638e-11
-2.02258e-12
-1.65971e-11
-2.29799e-11
-2.64238e-11
-3.21587e-11
4.27553e-10
9.88267e-11
2.72521e-11
-1.04784e-11
2.83364e-11
5.32329e-11
6.22012e-11
6.74346e-11
7.63664e-11
8.35977e-11
7.60546e-11
6.4697e-11
4.64459e-11
2.16678e-11
-3.04762e-13
-1.40876e-11
-2.03361e-11
-2.36419e-11
-3.1997e-11
3.08003e-10
4.61076e-11
6.43781e-12
-9.27151e-13
3.51907e-11
4.97767e-11
5.36435e-11
5.73036e-11
6.83611e-11
8.37956e-11
7.95579e-11
6.64595e-11
4.68052e-11
2.20013e-11
6.42183e-13
-1.17987e-11
-1.85399e-11
-2.23327e-11
-2.84467e-11
2.00939e-10
5.9522e-12
-4.77534e-12
4.17012e-12
3.26362e-11
3.94636e-11
4.08704e-11
4.47349e-11
5.89485e-11
8.15694e-11
8.27038e-11
7.00143e-11
4.78991e-11
2.14314e-11
5.11725e-13
-9.84451e-12
-1.68784e-11
-2.12304e-11
-2.59023e-11
1.14801e-10
-2.72568e-11
-1.32768e-11
1.89646e-12
2.31642e-11
2.6447e-11
2.70449e-11
3.14816e-11
4.7226e-11
7.46931e-11
8.52846e-11
7.40256e-11
5.06881e-11
2.06481e-11
-2.82999e-13
-9.07755e-12
-1.13286e-11
-1.23804e-11
-1.85349e-11
6.21557e-11
-5.68463e-11
-2.74374e-11
-8.31952e-12
1.10872e-11
1.35729e-11
1.32792e-11
1.65669e-11
2.86678e-11
5.50137e-11
8.44559e-11
7.74772e-11
5.37919e-11
1.98037e-11
-2.07595e-12
-3.49191e-12
-4.31817e-13
3.7283e-12
-2.23091e-11
4.85878e-11
-6.86487e-11
-4.35839e-11
-2.3173e-11
-3.00763e-13
1.37254e-12
-9.88292e-13
-2.39963e-12
-7.46331e-14
1.71596e-11
5.93483e-11
8.02018e-11
5.69811e-11
2.08212e-11
-3.13357e-12
4.0601e-12
4.64353e-12
2.2642e-12
3.72088e-12
5.61681e-11
-4.38105e-11
-4.47835e-11
-3.63718e-11
-1.134e-11
-1.11028e-11
-1.71771e-11
-2.678e-11
-3.47848e-11
-2.75558e-11
1.2868e-11
6.85633e-11
5.98986e-11
2.27642e-11
-4.13207e-12
-9.64492e-13
6.39454e-12
9.89494e-12
1.17234e-11
7.49095e-11
1.84398e-11
-1.8219e-11
-3.8742e-11
-2.44658e-11
-2.01166e-11
-2.68269e-11
-5.25456e-11
-6.26829e-11
-5.73187e-11
-2.0631e-11
2.79591e-11
3.44177e-11
3.76196e-12
5.52188e-12
4.70134e-11
4.81015e-11
3.45381e-11
2.78314e-11
1.18233e-10
1.00075e-10
3.38808e-11
-1.49772e-11
-2.32703e-11
-3.45855e-11
-5.61453e-11
-6.8584e-11
-7.56908e-11
-6.64757e-11
-1.9477e-11
2.76244e-11
3.47756e-11
4.16166e-11
7.17433e-11
7.0711e-11
2.42186e-11
2.00219e-11
2.48511e-11
1.52099e-10
1.74562e-10
1.11119e-10
5.44655e-11
1.66721e-11
-2.09323e-11
-6.00842e-11
-7.64099e-11
-8.36423e-11
-6.16781e-11
-1.02473e-11
3.39352e-11
5.42833e-11
6.24663e-11
3.88947e-11
-2.76115e-11
-3.89952e-11
-2.15652e-11
-1.49482e-11
1.0299e-10
1.71641e-10
1.52976e-10
1.12645e-10
5.46478e-11
-6.60958e-12
-5.74331e-11
-7.5055e-11
-8.98604e-11
-4.94772e-11
-1.67365e-11
1.25624e-11
3.42743e-11
3.1511e-11
-5.01396e-12
-3.33459e-11
-1.6115e-11
-1.94733e-11
-2.04983e-11
-3.44283e-11
4.55731e-12
1.81802e-11
3.36393e-11
2.67195e-11
-6.29308e-12
-5.03865e-11
-8.59058e-11
-8.70323e-11
-3.58178e-11
-2.99575e-11
-1.73156e-11
-4.04949e-12
-1.02016e-11
-3.06131e-11
-2.78919e-11
-1.28115e-11
-7.18671e-12
-8.13819e-12
-1.71884e-10
-2.01761e-10
-1.83911e-10
-1.04476e-10
-4.03924e-11
-3.29079e-11
-8.69196e-11
-1.03973e-10
-7.12715e-11
-2.3787e-11
-3.38069e-11
-3.84662e-11
-3.23888e-11
-3.57528e-11
-3.90523e-11
-2.51039e-11
-6.04416e-12
-6.86215e-13
3.27079e-12
-2.34476e-10
-2.37026e-10
-1.98418e-10
-1.61527e-10
-1.23785e-10
-1.18471e-10
-1.2678e-10
-1.01696e-10
-4.12763e-11
-8.09333e-12
-2.65294e-11
-4.5724e-11
-4.69905e-11
-4.7105e-11
-4.2314e-11
-1.93512e-11
-1.4625e-12
2.49399e-12
6.0343e-12
-2.49152e-10
-2.19435e-10
-1.76119e-10
-1.591e-10
-1.48952e-10
-1.41996e-10
-1.24845e-10
-8.03131e-11
-1.28428e-11
2.93307e-12
-1.50763e-11
-4.00756e-11
-5.10128e-11
-5.16641e-11
-4.26356e-11
-1.21117e-11
1.79446e-12
2.83752e-12
1.50011e-12
-2.36499e-10
-2.00562e-10
-1.66877e-10
-1.60924e-10
-1.51304e-10
-1.39747e-10
-1.17645e-10
-6.32578e-11
3.11135e-12
6.71273e-12
-5.90019e-12
-2.69743e-11
-4.50751e-11
-4.97047e-11
-3.02543e-11
-5.24494e-12
2.96648e-12
2.41786e-12
1.66192e-12
-2.0406e-10
-1.91712e-10
-1.67809e-10
-1.63763e-10
-1.52466e-10
-1.37243e-10
-1.1103e-10
-5.37475e-11
9.47369e-12
7.21195e-12
-4.68499e-13
-1.38034e-11
-3.1865e-11
-3.95414e-11
-1.51811e-11
5.50246e-13
3.01324e-12
2.1326e-12
1.65054e-12
-1.77007e-10
-1.9337e-10
-1.69895e-10
-1.6483e-10
-1.52816e-10
-1.35807e-10
-1.0859e-10
-5.65568e-11
1.10148e-11
7.57502e-12
3.4327e-12
-2.13004e-12
-1.2715e-11
-1.95504e-11
-5.12597e-12
2.6023e-12
2.79874e-12
1.96601e-12
1.57125e-12
-3.22716e-14
-4.19673e-13
-6.76408e-14
-6.75136e-14
-6.58128e-13
-1.16995e-13
-1.44942e-13
-7.76736e-14
-1.4669e-12
-4.13136e-13
-5.81895e-13
-1.58535e-12
7.71012e-14
8.57735e-14
4.78746e-12
1.681e-12
1.71663e-12
7.30441e-12
1.11067e-12
1.06245e-12
1.22674e-13
6.54703e-15
4.5632e-14
7.29699e-14
1.03728e-13
1.36038e-13
5.6458e-12
1.37708e-13
1.64341e-13
1.94378e-13
2.19641e-13
2.41963e-13
2.6226e-13
2.79588e-13
2.958e-13
3.24079e-13
3.20015e-13
4.04071e-13
3.47438e-13
4.91576e-13
1.15599e-11
1.5516e-12
1.50393e-12
1.66793e-12
3.7154e-12
-2.51118e-13
-7.76934e-13
-4.83382e-13
-3.36532e-11
-4.6481e-11
-1.18259e-11
-1.85156e-13
-5.94713e-13
-9.69509e-13
-7.55377e-13
-6.39252e-12
-1.21244e-12
-1.16064e-12
-1.15994e-12
-9.69663e-12
-4.51687e-13
-2.84923e-13
-3.24496e-13
-2.35167e-13
-2.11082e-13
-1.48012e-13
-1.0002e-13
-4.44964e-14
1.41852e-14
7.28261e-14
1.30991e-13
1.96893e-13
2.60452e-13
7.46591e-12
3.7116e-13
4.31043e-13
5.03208e-13
5.90323e-13
6.92553e-13
6.21852e-13
3.23557e-12
3.33563e-12
1.82207e-11
3.04872e-12
3.21777e-12
1.70376e-11
2.51051e-12
2.72216e-12
1.66166e-11
2.79694e-12
2.39408e-12
9.94462e-12
-3.57587e-13
-1.02928e-12
-9.87322e-13
1.06555e-11
3.4137e-12
3.52879e-12
1.97106e-11
4.62337e-12
-6.55301e-10
-2.19623e-10
-9.7942e-11
2.24611e-11
1.39416e-11
-2.65896e-11
-5.48993e-11
-7.13984e-11
-8.03461e-11
-7.94791e-11
-7.40129e-11
-6.39363e-11
-4.52437e-11
-1.91816e-11
3.7889e-12
1.87896e-11
2.559e-11
2.89823e-11
3.19145e-11
-5.50875e-10
-1.61306e-10
-5.97404e-11
1.82542e-11
-1.50154e-11
-5.11231e-11
-6.76124e-11
-7.55268e-11
-8.21739e-11
-8.09968e-11
-7.42563e-11
-6.41561e-11
-4.59701e-11
-2.05638e-11
2.02258e-12
1.65971e-11
2.29799e-11
2.64238e-11
3.21587e-11
-4.27553e-10
-9.88267e-11
-2.72521e-11
1.04784e-11
-2.83364e-11
-5.32329e-11
-6.22012e-11
-6.74346e-11
-7.63664e-11
-8.35977e-11
-7.60546e-11
-6.4697e-11
-4.64459e-11
-2.16678e-11
3.04762e-13
1.40876e-11
2.03361e-11
2.36419e-11
3.1997e-11
-3.08003e-10
-4.61076e-11
-6.43781e-12
9.27151e-13
-3.51907e-11
-4.97767e-11
-5.36435e-11
-5.73036e-11
-6.83611e-11
-8.37956e-11
-7.95579e-11
-6.64595e-11
-4.68052e-11
-2.20013e-11
-6.42183e-13
1.17987e-11
1.85399e-11
2.23327e-11
2.84467e-11
-2.00939e-10
-5.9522e-12
4.77534e-12
-4.17012e-12
-3.26362e-11
-3.94636e-11
-4.08704e-11
-4.47349e-11
-5.89485e-11
-8.15694e-11
-8.27038e-11
-7.00143e-11
-4.78991e-11
-2.14314e-11
-5.11725e-13
9.84451e-12
1.68784e-11
2.12304e-11
2.59023e-11
-1.14801e-10
2.72568e-11
1.32768e-11
-1.89646e-12
-2.31642e-11
-2.6447e-11
-2.70449e-11