/*--------------------------------*- C++ -*----------------------------------*\
| =========                 |                                                 |
| \\      /  F ield         | OpenFOAM: The Open Source CFD Toolbox           |
|  \\    /   O peration     | Version:  4.1                                   |
|   \\  /    A nd           | Web:      www.OpenFOAM.org                      |
|    \\/     M anipulation  |                                                 |
\*---------------------------------------------------------------------------*/
FoamFile
{
    version     2.0;
    format      ascii;
    class       volVectorField;
    location    "9";
    object      U;
}
// * * * * * * * * * * * * * * * * * * * * * * * * * * * * * * * * * * * * * //

dimensions      [0 1 -1 0 0 0 0];

internalField   nonuniform List<vector> 
1280
(
(2.33218e-17 0.801157 -0.222892)
(7.13274e-17 1.12619 -0.548987)
(4.54092e-17 1.00791 -0.490269)
(4.87903e-17 1.09174 -0.480182)
(1.11855e-16 1.48021 -0.897525)
(8.45492e-17 1.26871 -0.73402)
(1.04746e-16 1.50235 -0.749562)
(3.51615e-17 1.49946 -0.671338)
(2.33125e-16 1.95336 -1.12643)
(2.98562e-16 1.78199 -0.852083)
(4.20521e-16 1.94741 -0.71127)
(1.93929e-16 2.46713 -1.33953)
(-5.5719e-17 2.26824 -1.10364)
(-6.19863e-17 2.49263 -0.954556)
(-9.25241e-16 3.1632 -1.98593)
(-1.21481e-15 3.02362 -1.67446)
(-1.24056e-15 3.35653 -1.41389)
(-1.24146e-15 4.17573 -3.09468)
(-8.02649e-16 4.23085 -2.66419)
(-7.67802e-16 4.39084 -2.65837)
(-5.03277e-16 4.67135 -2.04742)
(-2.68596e-17 4.71012 2.37606)
(-1.87208e-16 4.68653 7.58886)
(-2.99364e-16 4.71819 10.1732)
(-4.25552e-16 4.98923 11.0722)
(-5.58104e-16 5.36754 11.3646)
(-1.19016e-15 4.05233 7.62165)
(-5.64958e-16 8.66295 13.1859)
(-6.74221e-16 8.57691 13.2039)
(-7.97449e-16 8.70339 13.0627)
(-9.01091e-16 8.76986 12.8834)
(-9.92667e-16 8.77759 12.686)
(-1.07594e-15 8.77565 12.4768)
(-1.14703e-15 8.75252 12.2592)
(-1.21354e-15 8.70917 12.0318)
(-1.32956e-15 8.6393 11.7861)
(-1.31288e-15 8.56639 11.5266)
(-1.65773e-15 8.43868 11.2114)
(-1.42539e-15 8.37537 10.9585)
(-2.01672e-15 8.07198 10.2799)
(-2.01217e-15 8.77608 12.2622)
(-1.24627e-15 5.62691 8.6759)
(-1.20798e-15 4.76516 8.55582)
(-1.3397e-15 3.69341 8.57132)
(-4.30477e-16 2.23931 8.1207)
(2.01702e-16 1.22505 4.64596)
(6.24044e-16 0.721488 4.32529)
(3.88258e-16 0.00838952 4.84403)
(7.22634e-15 -0.274997 -0.0860498)
(7.34288e-14 6.96287 -4.834)
(1.15625e-15 -7.65816 -5.10233)
(3.2229e-17 0.0651982 0.247847)
(4.77681e-16 -0.0903274 4.84407)
(7.78722e-16 -0.836552 4.39814)
(6.06729e-16 -1.31976 4.7254)
(1.11271e-15 -2.40474 8.19643)
(9.73849e-16 -3.8065 8.53789)
(9.32239e-16 -4.8861 8.54331)
(9.31681e-16 -5.73744 8.67704)
(1.58145e-15 -8.94274 12.2642)
(1.85307e-15 -8.18056 10.2595)
(1.16892e-15 -8.48174 10.9508)
(1.33127e-15 -8.54305 11.2202)
(9.6479e-16 -8.67079 11.5523)
(8.65976e-16 -8.74372 11.8315)
(6.07231e-16 -8.81496 12.098)
(4.10338e-16 -8.86028 12.3469)
(1.82549e-16 -8.88636 12.5836)
(-5.81956e-17 -8.89143 12.8056)
(-2.98774e-16 -8.88586 13.0068)
(-5.37399e-16 -8.82135 13.1801)
(-8.07765e-16 -8.69691 13.3085)
(-1.06852e-15 -8.77575 13.2785)
(-1.57384e-15 -4.21549 7.6571)
(-1.52271e-15 -5.44722 11.3561)
(-1.76838e-15 -5.07738 11.028)
(-2.06444e-15 -4.81223 10.0758)
(-2.42184e-15 -4.78693 7.40889)
(-2.84124e-15 -4.82106 2.08822)
(-2.55119e-15 -4.78593 -2.46101)
(-2.33826e-15 -4.49793 -3.14055)
(-2.41057e-15 -4.2407 -3.20714)
(-3.09678e-15 -3.95535 -4.06039)
(-2.20323e-15 -3.02591 -2.2016)
(-2.3254e-15 -2.56514 -2.60977)
(-2.90619e-15 -2.20416 -3.25249)
(-1.81484e-15 -1.56977 -1.63326)
(-1.95647e-15 -1.22048 -1.9862)
(-2.73808e-15 -0.823743 -2.48526)
(-2.11913e-15 -0.48045 -1.24709)
(-1.82799e-15 -0.21422 -1.46647)
(-1.40054e-15 0.187479 -1.93667)
(3.87211e-16 0.333853 -1.32999)
(7.43836e-16 0.597388 -1.26242)
(7.13512e-16 0.704264 -1.10483)
(-1.811e-15 1.15438 -1.43055)
(-2.46699e-15 1.11059 -1.01196)
(-2.55016e-15 1.33575 -0.939923)
(-3.35882e-15 1.51138 -1.2279)
(-3.34119e-15 1.72873 -1.17891)
(7.28112e-14 -1.66376 4.04486)
(2.44026e-14 -1.91719 3.96332)
(1.08824e-14 -1.30241 3.82138)
(-2.49567e-15 0.922269 3.20049)
(-1.54906e-15 2.32288 2.9473)
(2.9544e-15 2.9849 3.08429)
(6.09992e-15 3.2899 3.11471)
(7.93316e-15 2.37596 2.63709)
(8.92735e-15 -1.47004 0.711798)
(8.83101e-15 -3.86153 -0.124905)
(8.22366e-15 -4.92325 -0.532141)
(7.10403e-15 -5.23738 -0.854266)
(5.02708e-15 -4.96989 -1.12931)
(2.13129e-15 -4.00913 -1.27055)
(-4.20989e-16 -2.66771 -1.36969)
(-2.08774e-15 -1.20746 -1.48932)
(-2.84333e-15 -0.0462747 -1.69272)
(-3.22025e-15 0.283063 -1.75054)
(-3.54606e-15 0.857828 -1.61709)
(6.12083e-14 -1.6578 4.08436)
(1.79229e-14 -1.83001 4.05242)
(6.63782e-15 -0.949139 3.81783)
(-2.02824e-15 1.17049 3.35202)
(1.66838e-15 2.33232 3.52311)
(5.68034e-15 2.92048 3.82833)
(7.51249e-15 3.42901 3.90633)
(8.39187e-15 3.0165 3.57968)
(9.13043e-15 -0.818738 1.45609)
(8.99965e-15 -3.76803 -0.23876)
(8.2507e-15 -4.78371 -0.314706)
(7.12845e-15 -5.08724 -0.659263)
(5.10779e-15 -4.83802 -0.966779)
(2.28487e-15 -3.87494 -1.16279)
(-2.24731e-16 -2.5129 -1.38966)
(-1.84413e-15 -1.01196 -1.70511)
(-2.55332e-15 0.050315 -2.21901)
(-2.93598e-15 0.246 -2.3426)
(-3.57319e-15 0.638343 -1.92646)
(4.75058e-14 -1.65398 4.09519)
(1.09807e-14 -1.8033 4.12275)
(3.02801e-15 -0.906203 3.97279)
(-1.16427e-15 1.01739 3.82872)
(3.14849e-15 2.1846 4.10584)
(5.91476e-15 2.83526 4.3393)
(6.91124e-15 3.4298 4.52997)
(7.49273e-15 3.27786 4.59821)
(8.48516e-15 0.301617 3.1797)
(9.28863e-15 -3.23425 0.1435)
(8.45051e-15 -4.63389 -0.103305)
(7.18856e-15 -4.95115 -0.332457)
(5.16066e-15 -4.73733 -0.686208)
(2.40754e-15 -3.79327 -0.946005)
(-3.38624e-17 -2.41203 -1.3225)
(-1.56528e-15 -0.830252 -1.88872)
(-2.25956e-15 0.144007 -2.72505)
(-2.62688e-15 0.157017 -2.87885)
(-3.55522e-15 0.454402 -2.44596)
(3.42226e-14 -1.67256 4.07211)
(5.12306e-15 -1.80721 4.19602)
(7.15312e-16 -0.851978 4.22346)
(-1.03017e-16 1.02633 4.3349)
(3.91008e-15 2.11913 4.63394)
(5.53074e-15 2.73606 4.93154)
(5.96039e-15 3.3333 5.44592)
(6.36707e-15 3.46605 5.98842)
(7.59568e-15 1.32652 5.11087)
(9.31063e-15 -2.50109 1.38953)
(8.83976e-15 -4.46927 0.173982)
(7.38439e-15 -4.87299 0.093697)
(5.20058e-15 -4.62034 -0.271893)
(2.44458e-15 -3.64157 -0.600038)
(7.13537e-17 -2.18158 -1.1411)
(-1.31096e-15 -0.464314 -2.03357)
(-2.05999e-15 0.403311 -3.22061)
(-2.48141e-15 0.120315 -3.38115)
(-3.16074e-15 0.228805 -3.2032)
(2.23266e-14 -1.70954 3.95556)
(6.61356e-16 -1.87063 4.25861)
(-5.30593e-16 -0.914894 4.4862)
(4.63347e-16 0.881504 4.78886)
(3.62625e-15 1.96356 5.13724)
(4.38485e-15 2.50845 5.61506)
(4.54116e-15 3.02544 6.60698)
(4.97054e-15 3.41664 7.73256)
(6.54984e-15 2.19345 7.43456)
(9.06327e-15 -1.52118 3.42415)
(9.18931e-15 -4.04507 0.826739)
(7.77937e-15 -4.78384 0.592882)
(5.32212e-15 -4.48188 0.29534)
(2.38126e-15 -3.43478 -0.104547)
(5.68583e-17 -1.85489 -0.844752)
(-1.09383e-15 0.0760108 -2.21839)
(-1.87538e-15 0.615347 -3.70168)
(-2.35893e-15 0.0881129 -3.89701)
(-2.87803e-15 0.0444033 -4.31108)
(1.27556e-14 -1.79747 3.58081)
(-3.02854e-15 -2.02781 4.20242)
(-1.4752e-15 -1.04846 4.71189)
(2.10718e-16 0.750536 5.18292)
(2.5738e-15 1.78754 5.63366)
(2.93856e-15 2.13424 6.44317)
(3.00499e-15 2.48787 8.05883)
(3.49795e-15 3.14316 9.83168)
(5.24733e-15 2.93481 10.2047)
(8.29923e-15 0.0910492 6.59704)
(9.47607e-15 -3.24075 1.97348)
(8.22507e-15 -4.68087 1.22408)
(5.63201e-15 -4.36895 0.969982)
(2.29424e-15 -3.15045 0.496255)
(-3.14443e-17 -1.29567 -0.457398)
(-1.00862e-15 0.790664 -2.91469)
(-1.25873e-15 1.06167 -3.68403)
(-1.3756e-15 0.27826 -4.31204)
(-2.05944e-15 0.0578698 -5.01394)
(6.90619e-15 -1.96397 2.88661)
(-6.31625e-15 -2.33129 3.82047)
(-3.04859e-15 -1.29058 4.74718)
(-9.24391e-16 0.533051 5.45851)
(1.23191e-15 1.47428 6.16791)
(1.5081e-15 1.53049 7.46574)
(1.47547e-15 1.67558 9.73139)
(1.84077e-15 2.59125 12.0648)
(3.18531e-15 3.40429 13.0737)
(6.11263e-15 1.97573 10.3633)
(9.38399e-15 -2.00148 3.93057)
(8.60858e-15 -4.35307 1.9574)
(5.97688e-15 -4.22669 1.86195)
(2.20041e-15 -2.92162 1.36059)
(-2.30661e-16 -0.634689 -0.00667446)
(-3.8799e-16 1.43103 -2.33304)
(-4.79797e-17 1.43336 -0.99691)
(4.14255e-16 1.08354 -2.04845)
(-2.47879e-15 0.538493 1.01571)
(5.39865e-15 -2.1725 2.07545)
(-7.62764e-15 -2.77949 3.05441)
(-4.84266e-15 -1.68799 4.43523)
(-2.57478e-15 0.179183 5.55238)
(-3.34181e-17 0.994805 6.76703)
(1.52504e-16 0.704317 8.5914)
(-1.0981e-16 0.658452 11.2953)
(-2.66625e-16 1.84721 13.7785)
(-8.29256e-18 3.57499 14.9319)
(1.90662e-15 3.69682 13.2382)
(6.59425e-15 0.037087 7.51147)
(8.91132e-15 -3.82186 2.84219)
(6.33123e-15 -4.15546 2.79576)
(2.31346e-15 -2.33758 2.01475)
(-3.48175e-16 0.623079 0.168965)
(4.51122e-16 1.07051 3.53934)
(5.15948e-16 0.365322 6.21056)
(2.51578e-16 -1.40208 7.8221)
(4.13432e-16 -4.88349 10.2582)
(6.2409e-15 -2.34873 1.60138)
(-4.86783e-15 -3.29023 2.19238)
(-4.97595e-15 -2.27308 3.78388)
(-4.04131e-15 -0.436974 5.31343)
(-1.26e-15 0.273623 7.24177)
(-1.23365e-15 -0.277053 9.31728)
(-1.90857e-15 -0.387354 11.883)
(-2.97555e-15 1.18082 13.7187)
(-3.86498e-15 3.64574 13.8043)
(-3.06176e-15 4.95872 12.525)
(1.42978e-15 2.41131 9.72159)
(7.61815e-15 -2.58172 4.51128)
(6.6554e-15 -3.92406 3.07874)
(2.52935e-15 -2.20432 3.29205)
(-4.59119e-16 -1.06319 6.87621)
(-1.07166e-16 -0.760374 11.4759)
(7.10504e-16 -0.307504 12.9266)
(1.09944e-15 -0.851553 12.7918)
(1.3026e-15 -2.36611 11.3105)
(8.32328e-15 -2.39919 2.10131)
(2.04886e-15 -3.66251 1.77037)
(-2.02433e-15 -2.89985 3.05864)
(-4.30467e-15 -1.24804 4.58151)
(-2.71842e-15 -0.575215 6.89074)
(-2.23518e-15 -1.12849 8.87473)
(-2.60486e-15 -1.08138 10.6947)
(-5.83841e-15 1.07664 10.7712)
(-6.96476e-15 4.00677 8.93694)
(-6.36875e-15 5.37336 7.75043)
(-2.29233e-15 3.31172 8.95787)
(3.01909e-15 -1.23791 7.57442)
(3.82419e-15 -3.65039 5.30479)
(4.17995e-16 -3.48366 6.96757)
(3.16194e-16 -2.64049 10.8267)
(5.22371e-15 -1.25635 11.9301)
(5.34461e-15 -0.124415 10.1424)
(3.83756e-15 -0.432363 8.32816)
(3.09238e-15 -1.09075 5.12749)
(1.3137e-14 -2.23844 4.12943)
(1.11195e-14 -3.69139 2.36575)
(3.76454e-15 -3.35208 2.59396)
(-1.66413e-15 -2.00269 3.3835)
(-2.58559e-15 -1.36657 5.29441)
(-3.84283e-15 -1.75774 7.20064)
(-6.68399e-15 -1.1919 8.1471)
(-7.62044e-15 1.7844 6.06139)
(-8.41009e-15 4.77634 3.46586)
(-7.38619e-15 5.01035 3.22965)
(-2.16411e-15 2.38753 7.61129)
(3.06938e-15 -1.20348 10.2525)
(3.86395e-15 -3.66846 9.31493)
(4.62407e-15 -4.40744 10.406)
(7.97147e-15 -3.14592 12.2359)
(7.85678e-15 -0.648714 11.7811)
(2.69096e-15 0.994626 10.7494)
(2.22466e-15 1.10951 8.93605)
(2.76124e-15 1.07361 5.0328)
(1.68998e-14 -1.70576 7.81228)
(1.93958e-14 -3.07171 4.9826)
(1.23466e-14 -3.26957 3.35509)
(6.05172e-15 -2.41981 2.79898)
(1.85246e-15 -2.05217 3.80948)
(-2.32581e-15 -2.23159 5.34459)
(-6.67602e-15 -0.740349 5.1426)
(-8.48998e-15 2.78231 1.71179)
(-9.29359e-15 5.1855 0.40355)
(-6.85313e-15 3.75958 2.08295)
(-1.13859e-15 0.471217 8.10464)
(3.77057e-15 -1.9247 11.4913)
(6.03148e-15 -3.7964 11.9395)
(6.9407e-15 -4.71513 12.5784)
(4.32163e-15 -3.22339 13.3958)
(-3.06794e-15 -0.389651 12.74)
(-4.3328e-15 1.18045 11.7686)
(-2.39614e-15 1.60637 12.354)
(-1.66091e-15 2.45611 11.3435)
(1.14433e-14 -1.09574 11.8645)
(1.90712e-14 -1.94704 9.9099)
(1.69973e-14 -2.40061 6.93183)
(1.25161e-14 -2.23747 4.81896)
(6.07198e-15 -2.32716 4.07228)
(-7.34398e-16 -2.25262 4.00368)
(-6.38146e-15 0.302003 1.79171)
(-8.33945e-15 3.44247 -1.21485)
(-9.98449e-15 4.80114 -1.02335)
(-5.49746e-15 1.89622 2.29898)
(-1.85961e-15 -1.28088 8.09156)
(1.39582e-15 -2.80174 10.9185)
(3.80825e-15 -4.10627 12.2247)
(3.50122e-15 -4.86482 12.4579)
(-5.57107e-16 -3.02825 10.7751)
(-3.70511e-15 -0.00500587 5.63843)
(-1.79056e-15 0.790749 3.5303)
(-2.1637e-15 1.45648 6.95921)
(-2.27759e-15 4.791 10.3016)
(-3.82537e-15 -0.97721 12.8077)
(5.06368e-16 -1.17302 11.788)
(2.02002e-15 -1.20996 8.44982)
(3.7377e-15 -1.33221 5.64381)
(2.96883e-15 -1.71107 3.87305)
(-6.99231e-16 -1.38935 2.2925)
(-5.5985e-15 1.50736 -1.44068)
(-9.54509e-15 3.6872 -2.32721)
(-9.67025e-15 4.00667 -1.57452)
(-3.97976e-15 0.0565109 2.68056)
(-3.32861e-15 -2.74814 6.52426)
(-1.92396e-15 -3.69027 8.94913)
(-4.49943e-16 -4.37424 10.5288)
(-1.13352e-15 -4.21585 10.2139)
(-3.40146e-15 -0.935224 6.57722)
(-3.0991e-15 2.18034 1.56413)
(-1.4235e-15 1.33672 0.933459)
(-7.98523e-16 -1.27583 -2.42483)
(-9.04243e-16 -0.950428 1.23485)
(-1.90983e-14 -0.710529 10.1554)
(-2.24179e-14 -0.12871 7.71518)
(-2.04346e-14 0.102301 4.25609)
(-1.16085e-14 -0.547418 2.43519)
(-4.48804e-15 -0.964426 1.46962)
(-3.65643e-15 -0.070467 -0.258009)
(-9.65774e-15 1.88092 -2.73633)
(-1.15526e-14 3.54383 -2.5064)
(-7.91906e-15 2.98023 -1.07416)
(-2.643e-15 -1.31558 3.01582)
(-3.75632e-15 -3.79091 4.71833)
(-4.27403e-15 -4.44593 6.30581)
(-3.59875e-15 -4.53348 7.69234)
(-3.97253e-15 -3.31049 7.09567)
(-4.33915e-15 0.644754 3.11842)
(-2.78932e-15 2.51885 0.71149)
(-6.71573e-16 1.89823 0.857004)
(-7.62461e-17 0.831191 -0.055196)
(3.63421e-16 -0.221056 -3.36355)
(-2.60529e-14 -0.0500181 6.84797)
(-2.63362e-14 1.08991 4.12174)
(-2.20465e-14 1.05119 2.45025)
(-1.79474e-14 -0.097625 0.68216)
(-1.37539e-14 -0.566973 -0.845419)
(-1.31635e-14 0.342625 -2.37913)
(-1.40866e-14 1.87298 -2.69693)
(-1.12996e-14 3.07889 -1.72903)
(-4.58625e-15 1.78258 0.361893)
(-8.99259e-16 -2.00876 3.27026)
(-2.94771e-15 -4.22244 3.39697)
(-5.08045e-15 -4.89631 3.82454)
(-5.22117e-15 -4.62255 4.63793)
(-5.23388e-15 -2.50226 4.26211)
(-4.70156e-15 1.65237 1.22596)
(-2.15013e-15 2.99869 0.0458597)
(-1.625e-16 1.95483 0.280454)
(2.7711e-16 1.03285 -0.260347)
(6.70478e-16 0.712639 -2.07228)
(-2.76836e-14 0.423413 4.34486)
(-2.43817e-14 1.61655 2.45658)
(-1.95687e-14 1.51275 1.95137)
(-1.76777e-14 0.686478 0.86699)
(-1.65502e-14 0.21894 -0.798022)
(-1.57774e-14 0.697941 -1.80642)
(-1.38717e-14 1.78175 -1.60486)
(-8.92368e-15 2.45941 -0.672573)
(-1.42698e-15 0.690271 1.89454)
(3.25897e-16 -2.26723 3.49597)
(-1.67515e-15 -4.11025 2.71769)
(-4.45284e-15 -4.94542 2.09382)
(-5.66809e-15 -4.65367 2.02213)
(-5.74045e-15 -1.9942 1.88981)
(-4.73728e-15 2.16352 -0.435657)
(-1.34575e-15 3.05464 -0.393046)
(1.99385e-16 2.02958 0.0223032)
(3.1528e-16 1.39892 -0.365378)
(1.66679e-16 0.859633 -1.24613)
(-2.62777e-14 0.716054 2.72491)
(-2.22846e-14 1.93192 1.64031)
(-1.85418e-14 1.74024 1.60326)
(-1.78805e-14 1.06304 0.781943)
(-1.68115e-14 0.628566 -0.223924)
(-1.55275e-14 0.757025 -0.978523)
(-1.30717e-14 1.41972 -0.732263)
(-7.02865e-15 1.78841 -0.0916571)
(3.45706e-16 -0.107023 2.58062)
(7.45859e-16 -2.26995 3.39321)
(-6.55577e-16 -3.68305 2.40477)
(-2.99714e-15 -4.60055 1.24429)
(-5.00834e-15 -4.4643 0.290601)
(-5.52275e-15 -1.58241 -0.102403)
(-3.36159e-15 2.24185 -1.44999)
(-5.82771e-16 2.91808 -0.728189)
(3.29609e-16 2.01175 -0.275038)
(2.68651e-16 1.49672 -0.531165)
(1.84658e-16 1.08871 -0.938114)
(-2.26733e-14 0.842183 1.87762)
(-2.13013e-14 2.04504 1.3641)
(-1.86454e-14 1.85455 1.36295)
(-1.81959e-14 1.31936 0.721256)
(-1.69407e-14 0.860508 0.0967063)
(-1.52492e-14 0.82106 -0.410572)
(-1.23367e-14 1.30352 -0.214606)
(-5.97194e-15 1.17272 0.117889)
(1.05263e-15 -0.694154 2.46078)
(8.01328e-16 -2.20651 2.99245)
(-5.20555e-17 -3.27013 2.19984)
(-1.53371e-15 -4.12414 1.08391)
(-3.54056e-15 -4.12715 -0.350581)
(-4.39349e-15 -1.44042 -1.32407)
(-1.68679e-15 2.32879 -1.6253)
(6.11384e-17 2.74549 -0.874752)
(3.34805e-16 1.99691 -0.585672)
(2.36956e-16 1.5732 -0.676883)
(1.83393e-16 1.1881 -0.835526)
(-1.96675e-14 0.911339 1.72131)
(-2.14856e-14 2.1623 1.26413)
(-1.88772e-14 2.0898 1.19552)
(-1.83144e-14 1.66221 0.755662)
(-1.69796e-14 1.17972 0.36307)
(-1.50897e-14 0.942921 -0.0215617)
(-1.20656e-14 1.2008 -0.0942672)
(-6.28409e-15 0.772865 -0.0831868)
(1.22387e-15 -1.27956 1.58566)
(8.41669e-16 -2.17102 2.0327)
(3.81412e-16 -2.89784 1.60023)
(-2.36671e-16 -3.51227 1.0149)
(-1.41278e-15 -3.36566 -0.139241)
(-2.17227e-15 -0.92266 -1.27293)
(-5.69552e-16 2.04931 -1.36215)
(2.89145e-16 2.50571 -0.995064)
(3.10971e-16 1.94299 -0.816925)
(2.18446e-16 1.56313 -0.747147)
(1.74583e-16 1.16961 -0.810584)
(1.64991e-15 5.04344 9.23736)
(3.46048e-15 13.8588 25.2973)
(2.49522e-15 19.6609 34.4423)
(2.24495e-15 19.5679 33.2658)
(2.07932e-15 17.9638 29.6034)
(2.15452e-15 16.5005 26.175)
(2.03368e-15 15.2593 23.5071)
(1.85818e-15 14.3052 21.3067)
(1.64143e-15 13.443 19.3671)
(1.56718e-15 12.5864 17.5592)
(1.40995e-15 11.7016 15.8065)
(1.2283e-15 10.7699 14.0862)
(1.06126e-15 9.78587 12.3976)
(9.02121e-16 8.75311 10.7349)
(7.13552e-16 7.65438 9.08972)
(5.13826e-16 6.49226 7.42986)
(3.71701e-16 5.18962 5.71902)
(1.89516e-17 3.79349 3.8214)
(-2.53007e-17 1.89225 1.749)
(-2.19549e-15 0.29355 -1.28624)
(-7.46608e-16 -1.53795 -3.48032)
(4.24229e-15 13.1978 21.1046)
(2.9887e-15 20.1227 33.1483)
(2.62888e-15 20.2029 33.372)
(2.51737e-15 18.478 30.2683)
(3.22212e-15 16.9591 27.3544)
(3.18471e-15 15.7956 24.9971)
(3.04712e-15 14.759 22.8498)
(2.86127e-15 13.7045 20.7166)
(3.13065e-15 12.5926 18.5507)
(2.99933e-15 11.4203 16.367)
(3.27498e-15 10.1958 14.1831)
(3.27242e-15 8.91917 12.0117)
(3.30079e-15 7.59527 9.8471)
(3.37937e-15 6.20053 7.68046)
(3.51874e-15 4.7438 5.45705)
(3.48862e-15 3.11015 3.1232)
(5.10892e-15 1.29738 0.189954)
(7.85129e-15 -1.41158 -3.05691)
(4.85895e-15 -1.98217 -5.90952)
(-1.51443e-16 7.98492 12.9758)
(1.22447e-15 19.0462 28.675)
(1.11555e-15 22.4085 34.0522)
(1.0137e-15 21.7435 33.2411)
(8.34888e-16 20.1568 30.8343)
(2.23652e-15 18.8093 28.4627)
(1.94039e-15 17.5367 26.2458)
(1.78412e-15 16.2614 23.9859)
(1.88448e-15 14.9043 21.6522)
(2.04672e-15 13.4793 19.2426)
(2.17586e-15 11.9815 16.7807)
(2.44787e-15 10.4176 14.2823)
(2.84712e-15 8.78368 11.7697)
(3.33931e-15 7.09129 9.26336)
(4.40167e-15 5.33161 6.76247)
(5.79305e-15 3.51698 4.28283)
(4.84981e-15 1.64842 1.94132)
(1.82628e-15 -0.206287 -1.06218)
(2.19717e-15 -2.90856 -4.20044)
(1.21109e-15 -3.32801 -8.27109)
(2.85496e-17 14.7176 25.4209)
(-1.78466e-16 22.2108 35.5629)
(-2.13789e-16 20.384 33.4422)
(-1.78146e-16 18.604 30.736)
(-2.90543e-16 17.278 29.2306)
(1.94823e-15 16.1359 27.5131)
(1.80728e-15 14.6098 25.3892)
(1.92194e-15 12.9681 22.9293)
(2.25675e-15 11.1916 20.3366)
(2.79815e-15 9.3793 17.6162)
(3.49824e-15 7.48638 14.7863)
(4.35612e-15 5.54433 11.8454)
(5.84828e-15 3.55397 8.84096)
(8.3357e-15 1.57802 5.82207)
(1.65901e-14 -0.41503 2.63059)
(3.0922e-14 -2.3126 -0.339603)
(3.17968e-14 -3.16602 -1.73475)
(1.60146e-14 -3.84252 -3.14853)
(1.06637e-14 -5.72027 -6.2509)
(3.34662e-15 -3.71855 -6.13733)
(-4.42434e-18 16.2521 29.1774)
(3.21048e-17 18.9136 32.5214)
(3.62898e-17 15.7329 28.7728)
(3.78474e-17 14.9159 27.5857)
(-2.38531e-17 13.7181 26.5838)
(-4.25275e-16 12.2932 24.7186)
(-3.94473e-16 10.4877 22.4741)
(-4.05488e-16 8.66313 20.0285)
(-4.14215e-16 6.74326 17.5049)
(-3.97227e-16 4.79626 14.8754)
(-3.89312e-16 2.80378 12.1819)
(-3.48767e-16 0.837639 9.47199)
(-1.52697e-16 -1.02257 6.86086)
(3.52315e-16 -2.61824 4.52841)
(1.09089e-15 -3.79768 2.61567)
(1.4057e-15 -4.52379 1.00215)
(5.35178e-16 -4.53415 -0.0449234)
(-1.54519e-15 -2.89072 0.92552)
(-2.36271e-15 0.603895 4.54004)
(-8.21869e-16 2.94588 7.10831)
(2.08147e-19 13.448 24.176)
(-4.66355e-18 16.3627 29.4012)
(-5.08496e-18 14.2731 26.2545)
(-2.9512e-18 12.8 24.0242)
(1.97509e-17 11.3504 22.4385)
(7.20402e-17 9.8946 20.6241)
(6.64797e-17 8.22018 18.5587)
(7.43499e-17 6.5053 16.2403)
(9.03744e-17 4.70995 13.7826)
(1.02411e-16 2.93163 11.243)
(1.07525e-16 1.23249 8.77)
(9.24131e-17 -0.238036 6.55961)
(-3.87382e-17 -1.31993 4.86886)
(-5.10084e-16 -1.78855 4.00041)
(-1.43488e-15 -1.30749 4.44466)
(-2.43197e-15 0.570524 6.90712)
(-2.70343e-15 3.97062 11.5042)
(-1.75686e-15 8.00602 16.6987)
(-1.22423e-16 10.7489 19.376)
(6.44651e-16 7.93691 15.0808)
(8.99721e-21 11.6237 20.3596)
(5.05059e-19 17.0313 29.7375)
(4.75258e-19 15.1114 26.2662)
(7.88019e-20 13.1954 22.4784)
(-3.34663e-18 11.7492 20.2655)
(-1.01611e-17 10.8081 18.4272)
(-7.04177e-18 9.75747 16.7435)
(-3.58681e-18 8.80803 14.8962)
(-3.72598e-19 7.83429 13.0237)
(-2.8368e-18 6.96931 11.1473)
(-2.75877e-17 6.18336 9.36599)
(-1.00662e-16 5.60666 7.85214)
(-2.47334e-16 5.27139 6.77529)
(-4.73831e-16 5.39353 6.56531)
(-6.97373e-16 6.21348 7.59476)
(-7.78764e-16 7.57041 9.82649)
(-5.4908e-16 9.30464 12.8224)
(2.47968e-17 10.4368 15.6119)
(5.9982e-16 10.5043 16.2879)
(3.88677e-16 7.54432 13.2485)
(-2.81403e-21 11.3418 19.7511)
(-2.10078e-20 17.9752 30.7748)
(4.70532e-21 16.1897 28.0263)
(7.5707e-20 14.3724 24.0433)
(4.43145e-19 12.9067 21.7177)
(1.04134e-18 12.1841 19.9077)
(4.68051e-19 11.4281 18.4844)
(-3.67539e-19 10.8287 17.0632)
(-1.44232e-18 10.2302 15.6854)
(-2.54798e-18 9.67962 14.2997)
(-3.37129e-18 9.14264 12.8725)
(-6.6628e-18 8.60381 11.3943)
(-2.57667e-17 8.06298 9.88874)
(-9.04743e-17 7.55268 8.51119)
(-2.28284e-16 7.19091 7.56868)
(-4.22156e-16 7.06752 7.41112)
(-5.7024e-16 7.19742 8.11116)
(-5.12588e-16 7.29114 9.22543)
(-2.37875e-16 6.75517 9.60581)
(-3.87358e-17 4.52107 6.8615)
(4.68162e-22 11.8218 20.4802)
(-1.24408e-20 18.7794 31.5413)
(-2.05987e-20 16.7349 28.7946)
(-3.16648e-20 14.9993 24.8351)
(-5.42398e-20 13.5539 22.7252)
(-6.98077e-20 12.869 20.9446)
(-3.26193e-21 12.0421 19.4734)
(-5.87439e-21 11.3379 17.9701)
(-2.64137e-20 10.61 16.539)
(2.4873e-19 9.91665 15.1593)
(1.48983e-18 9.25157 13.8392)
(5.23206e-18 8.60922 12.5629)
(1.31207e-17 7.97914 11.3026)
(2.27822e-17 7.34956 10.03)
(2.00555e-17 6.69901 8.75575)
(-1.50064e-17 6.05611 7.55157)
(-7.60247e-17 5.37527 6.5671)
(-1.02564e-16 4.72021 5.7385)
(-5.06636e-17 3.53142 4.76239)
(1.35256e-17 1.5051 1.11125)
(-1.2552e-22 13.0087 22.6736)
(5.89766e-21 19.627 32.4051)
(8.32081e-21 16.9121 29.1784)
(9.95889e-21 15.5034 25.3854)
(6.47763e-21 14.0506 23.5776)
(-6.70207e-21 13.4652 21.7941)
(-1.23176e-20 12.5657 20.3251)
(1.59425e-20 11.8492 18.7447)
(3.32334e-20 11.0695 17.2387)
(-1.03968e-19 10.3184 15.7351)
(-5.49742e-19 9.55533 14.2504)
(-1.27749e-18 8.77419 12.7771)
(-1.17942e-18 7.96404 11.3176)
(2.77408e-18 7.12832 9.86718)
(1.47388e-17 6.23852 8.42175)
(3.54324e-17 5.31464 6.92971)
(5.83632e-17 4.23083 5.38741)
(7.42229e-17 3.10154 3.59613)
(7.23102e-17 1.18295 1.38325)
(4.57791e-17 -0.330587 -2.36736)
(5.27118e-23 14.7751 26.134)
(-1.84942e-21 20.3192 32.9663)
(-2.56754e-21 16.8601 29.4562)
(-2.83968e-21 16.155 26.1394)
(-1.09598e-21 14.6345 24.6696)
(3.96261e-21 14.233 22.8333)
(5.08849e-21 13.2726 21.4215)
(1.53961e-21 12.6616 19.838)
(1.47348e-20 11.9115 18.3602)
(7.78387e-20 11.194 16.792)
(1.75739e-19 10.385 15.1495)
(1.46167e-19 9.48575 13.4001)
(-4.50451e-19 8.48055 11.5671)
(-2.14475e-18 7.38701 9.67159)
(-4.81345e-18 6.18613 7.74465)
(-6.89399e-18 4.9164 5.75336)
(-6.05861e-18 3.45754 3.71184)
(-1.67974e-18 1.9224 1.30649)
(1.10669e-17 -0.473686 -1.34928)
(2.60115e-17 -1.71836 -5.17916)
(-1.91754e-23 16.5405 30.0819)
(5.05513e-22 20.3549 32.683)
(7.07787e-22 16.5111 29.7257)
(7.641e-22 16.6793 27.0411)
(2.86483e-22 14.9116 25.9074)
(-1.09352e-21 14.7844 24.0401)
(-1.63737e-21 13.6896 22.8276)
(-2.43346e-21 13.2816 21.3157)
(-9.72213e-21 12.5017 19.9484)
(-2.69836e-20 11.792 18.2794)
(-3.64464e-20 10.8134 16.3992)
(1.92175e-20 9.68944 14.2616)
(2.09681e-19 8.39179 11.97)
(5.02363e-19 6.9756 9.55973)
(6.38378e-19 5.42996 7.08914)
(1.51548e-20 3.78681 4.51819)
(-2.40209e-18 1.96376 1.97486)
(-7.03846e-18 0.14899 -0.991664)
(-8.22736e-18 -2.45083 -3.79925)
(4.08683e-18 -3.0125 -7.55182)
(5.44097e-24 17.3509 32.498)
(-1.3421e-22 19.3078 31.0882)
(-1.83799e-22 15.8094 29.5872)
(-1.9625e-22 16.4001 27.2654)
(-9.11265e-23 14.3004 26.3287)
(1.95102e-22 14.2978 24.5059)
(3.59643e-22 12.965 23.5574)
(1.52584e-21 12.6336 22.1576)
(4.87591e-21 11.584 20.8908)
(4.75389e-21 10.6616 19.0068)
(-9.59761e-21 9.23749 16.7831)
(-3.15931e-20 7.73471 14.1872)
(-2.14354e-20 6.02162 11.4118)
(1.49022e-19 4.21626 8.43752)
(9.67556e-19 2.37803 5.41372)
(2.28196e-18 0.284371 2.18277)
(7.74716e-20 -1.73387 -0.848223)
(-7.34419e-18 -1.91769 -2.49302)
(-1.54118e-17 -4.84298 -5.67968)
(-1.57718e-17 -4.0724 -8.27359)
(-1.11191e-24 16.7558 31.9367)
(3.6092e-23 18.0413 29.2202)
(5.00446e-23 14.9555 28.5009)
(5.17271e-23 15.365 26.1365)
(-7.38194e-24 13.2167 25.1871)
(-1.69355e-22 12.9923 23.4168)
(-1.7518e-22 11.5986 22.4457)
(2.71161e-22 11.0003 21.0918)
(-7.99191e-22 9.78271 19.7598)
(-9.56808e-21 8.59546 17.851)
(-1.87285e-20 7.04651 15.6319)
(2.30058e-20 5.4828 13.132)
(1.84603e-19 3.7576 10.4007)
(5.83896e-19 1.95863 7.44956)
(1.36815e-18 0.262687 4.69926)
(8.17428e-19 -1.27657 2.24379)
(-6.26154e-18 -2.97967 -0.627705)
(-2.01257e-17 -4.32606 -3.40649)
(-2.87542e-17 -3.85254 -3.47699)
(-1.61069e-17 -0.948769 -0.125999)
(1.35814e-25 15.7506 30.4673)
(-9.24263e-24 17.7086 28.0389)
(-1.20719e-23 14.0815 27.2329)
(-1.2018e-23 14.8406 24.5336)
(-1.07785e-23 12.3611 23.6347)
(-1.89025e-23 12.2237 21.5833)
(1.23244e-22 10.6308 20.4531)
(7.86647e-22 9.93837 18.9098)
(-5.49909e-23 8.70152 17.5723)
(-9.74696e-21 7.62713 15.9235)
(-2.37362e-20 6.37289 14.1603)
(2.31542e-20 5.14794 12.1946)
(2.49174e-19 3.79296 9.92139)
(5.46433e-19 2.29781 7.19914)
(3.67335e-20 0.787913 4.29093)
(-2.66966e-18 -0.253055 2.13998)
(-7.11673e-18 0.0331093 2.23841)
(-9.12152e-18 2.13029 5.01578)
(-4.58902e-18 4.92773 8.67085)
(3.16185e-18 4.5601 9.03187)
(-3.80969e-26 15.3961 30.4756)
(2.28462e-24 18.238 27.7328)
(3.36344e-24 14.0168 27.1607)
(4.01874e-24 15.4628 24.1206)
(1.02074e-24 12.7624 23.3058)
(-1.3135e-23 12.9427 21.0246)
(-7.65164e-23 11.3809 19.7369)
(-2.44057e-22 10.8371 17.9775)
(-1.68029e-22 9.81316 16.5657)
(9.51688e-22 9.08223 15.1013)
(1.43966e-21 8.28464 13.7454)
(-5.17915e-21 7.57332 12.3803)
(-1.9201e-20 6.86263 10.9981)
(-8.50229e-21 6.16109 9.49928)
(9.82177e-20 5.4443 7.84228)
(3.43306e-19 4.75316 6.15999)
(6.46567e-19 4.20722 4.70124)
(8.67249e-19 3.92469 4.24051)
(1.78472e-18 3.75865 4.3642)
(3.91234e-18 2.74042 3.41475)
(1.01904e-26 15.2638 31.0575)
(-5.2294e-25 18.5769 27.9639)
(-3.40052e-25 14.1186 27.6379)
(3.61868e-25 15.6074 24.7442)
(-4.22382e-25 13.1929 23.862)
(-1.04616e-23 13.2035 21.8478)
(-3.99677e-23 12.0092 20.5284)
(-9.75132e-23 11.4642 18.9512)
(-2.2168e-22 10.7096 17.549)
(-3.22295e-22 10.0965 16.1419)
(3.56024e-22 9.48747 14.7912)
(2.67506e-21 8.91179 13.4499)
(4.38731e-21 8.33359 12.0919)
(-1.78646e-21 7.72779 10.6569)
(-2.05994e-20 6.98735 9.03676)
(-4.63912e-20 6.02748 7.07845)
(-4.80718e-20 4.67645 4.81258)
(-1.38549e-19 3.28203 2.71387)
(-9.66572e-20 1.20968 0.605435)
(1.12908e-18 -0.217962 -2.2383)
(-6.15006e-27 14.3664 31.0612)
(1.64718e-25 18.3255 27.768)
(6.74783e-25 13.5362 27.6908)
(1.67547e-24 14.6138 25.24)
(-8.86242e-25 12.5163 24.2923)
(-1.95434e-23 12.1495 22.6431)
(-6.28573e-23 11.0821 21.4036)
(-8.78892e-23 10.431 20.045)
(4.43579e-24 9.68912 18.795)
(9.07819e-23 9.06549 17.5404)
(-6.49382e-22 8.4605 16.3206)
(-3.02669e-21 7.90557 15.1035)
(-3.6033e-21 7.34494 13.8336)
(1.24885e-20 6.66413 12.3084)
(7.21263e-20 5.59884 10.152)
(1.91875e-19 3.91992 6.87002)
(3.57544e-19 1.37706 2.54971)
(2.8375e-19 -1.40684 -3.31611)
(-1.37325e-19 -3.28615 -4.82858)
(8.8679e-19 -2.87559 -7.10474)
(-4.85037e-27 11.3484 28.8305)
(-3.92795e-26 17.1005 25.2129)
(2.47788e-25 12.0907 25.6084)
(1.04141e-24 12.722 23.9141)
(-3.48317e-25 10.9857 23.1808)
(-1.22229e-23 10.3137 22.1067)
(-3.68038e-23 9.3181 21.2027)
(-3.76133e-23 8.53847 20.2618)
(4.32711e-23 7.76327 19.3556)
(6.3672e-23 7.06846 18.4519)
(-6.28234e-22 6.42148 17.5581)
(-2.50564e-21 5.82275 16.655)
(-2.31289e-21 5.22924 15.678)
(1.29097e-20 4.54396 14.4409)
(6.71996e-20 3.59258 12.5968)
(1.82614e-19 2.20296 9.75875)
(3.54811e-19 0.428875 5.83941)
(5.34179e-19 -1.38734 1.3888)
(6.17613e-19 -2.73571 -2.40113)
(5.37401e-19 -2.16871 -3.72409)
(2.17161e-27 2.63532 17.1278)
(1.03317e-26 8.04953 13.7358)
(5.21284e-26 5.16573 14.5993)
(2.8844e-25 4.96288 14.2181)
(5.74829e-25 4.0284 14.1898)
(-1.04958e-24 3.44938 14.0277)
(-8.78104e-24 2.85859 13.8822)
(-1.88819e-23 2.37128 13.7041)
(8.57091e-24 1.94501 13.5081)
(1.59092e-22 1.59169 13.2891)
(4.27949e-22 1.30753 13.0497)
(3.10236e-22 1.09752 12.7962)
(-1.66995e-21 0.969392 12.5461)
(-7.61075e-21 0.947374 12.3179)
(-1.81413e-20 1.062 12.1066)
(-2.97267e-20 1.28106 11.8746)
(-3.54993e-20 1.62916 11.466)
(-3.13604e-20 2.39472 10.4956)
(-2.02562e-20 2.70738 8.98992)
(-7.82697e-21 -0.099999 6.82301)
(-2.30236e-27 -2.63529 17.1277)
(-1.01996e-26 -8.04952 13.7357)
(-5.07848e-26 -5.16573 14.5993)
(-2.8863e-25 -4.96288 14.2181)
(-5.81997e-25 -4.02841 14.1898)
(1.05543e-24 -3.44939 14.0277)
(8.87479e-24 -2.8586 13.8822)
(1.89993e-23 -2.37129 13.7041)
(-9.38963e-24 -1.94503 13.5081)
(-1.63476e-22 -1.5917 13.2891)
(-4.37776e-22 -1.30752 13.0497)
(-3.155e-22 -1.0975 12.7962)
(1.71133e-21 -0.969388 12.5462)
(7.78437e-21 -0.947415 12.3181)
(1.85445e-20 -1.06212 12.107)
(3.0384e-20 -1.28127 11.875)
(3.62922e-20 -1.62941 11.4662)
(3.20687e-20 -2.39499 10.4957)
(2.06962e-20 -2.70764 8.99008)
(7.96554e-21 0.0999464 6.8232)
(4.95228e-27 -11.3485 28.8305)
(3.71036e-26 -17.1004 25.213)
(-2.58895e-25 -12.0907 25.6085)
(-1.04319e-24 -12.7219 23.9142)
(4.76531e-25 -10.9856 23.1809)
(1.27604e-23 -10.3135 22.1068)
(3.78932e-23 -9.31788 21.2029)
(3.8381e-23 -8.5382 20.2621)
(-4.47464e-23 -7.76295 19.3558)
(-6.52398e-23 -7.0681 18.4522)
(6.43583e-22 -6.42107 17.5586)
(2.56323e-21 -5.82228 16.6555)
(2.36273e-21 -5.22863 15.6784)
(-1.32031e-20 -4.54301 14.441)
(-6.87095e-20 -3.59111 12.5961)
(-1.86758e-19 -2.20105 9.75714)
(-3.62921e-19 -0.4272 5.83778)
(-5.45907e-19 1.3878 1.38831)
(-6.29109e-19 2.73481 -2.39974)
(-5.44486e-19 2.16779 -3.72203)
(5.9526e-27 -14.3667 31.0616)
(-1.71589e-25 -18.3256 27.7685)
(-6.99322e-25 -13.5364 27.6913)
(-1.68706e-24 -14.6139 25.2407)
(1.11004e-24 -12.5164 24.293)
(2.05412e-23 -12.1495 22.6438)
(6.51636e-23 -11.082 21.4044)
(9.06343e-23 -10.4309 20.0459)
(-4.49772e-24 -9.68889 18.796)
(-9.32683e-23 -9.06522 17.5415)
(6.65108e-22 -8.46024 16.3219)
(3.10075e-21 -7.90535 15.105)
(3.69661e-21 -7.3447 13.8352)
(-1.27556e-20 -6.66362 12.3096)
(-7.37577e-20 -5.59744 10.1518)
(-1.96327e-19 -3.91679 6.86711)
(-3.66031e-19 -1.37098 2.54264)
(-2.89198e-19 1.41327 -3.3272)