/*--------------------------------*- C++ -*----------------------------------*\
| =========                 |                                                 |
| \\      /  F ield         | OpenFOAM: The Open Source CFD Toolbox           |
|  \\    /   O peration     | Version:  4.1                                   |
|   \\  /    A nd           | Web:      www.OpenFOAM.org                      |
|    \\/     M anipulation  |                                                 |
\*---------------------------------------------------------------------------*/
FoamFile
{
    version     2.0;
    format      ascii;
    class       volScalarField;
    location    "19";
    object      p;
}
// * * * * * * * * * * * * * * * * * * * * * * * * * * * * * * * * * * * * * //

dimensions      [0 2 -2 0 0 0 0];

internalField   nonuniform List<scalar> 
1280
(
-102.021
-44.2514
-89.0467
-192.87
-77.7528
-172.195
-271.239
-282.625
-224.325
-300.591
-486.472
-351.821
-489.533
-779.242
-596.036
-871.443
-1302.4
-1352.44
-1051.19
-3272.48
-961.683
1238.94
2360.41
2808.99
2927.89
3698.12
491.889
47.176
281.467
-292.249
-607.914
-942.025
-1344.73
-1763.99
-2200.01
-2635.38
-3052.95
-3388.05
-3733.07
-4045.84
79.6543
-1473.32
-1338.71
-911.953
677.286
97.9615
158.613
158.638
113.786
181.306
155.675
4.91387
166.884
129.048
6.79998
458.514
-554.471
-759.133
-1134.05
-1981.14
-1976.65
-1189.99
-871.476
-478.594
-167.832
126.024
387.076
622.628
834.358
995.542
1166.25
1582.91
1213.64
1392.89
3198.72
2665.67
2639.57
2080.56
928.814
-791.492
-2127.03
-651.359
-778.496
-542.25
-291.666
-91.3261
-30.6529
84.7917
147.478
178.376
204.924
208.952
214.781
206.852
211.645
186.655
119.741
99.4512
14.4938
65.1698
160.93
42.3976
42.0508
-17.4519
-160.004
-393
-466.182
-223.981
-108.86
30.4321
158.101
259.464
145.219
20.2216
-23.6892
-56.9798
-67.6386
-25.7752
29.8243
432.287
147.531
169.737
-125.046
-366.622
-408.779
-630.256
-249.428
-45.928
224.978
442.637
663.46
409.238
114.623
-88.5099
-217.932
-176.404
-2.93001
83.5699
519.233
166.219
205.521
-115.411
-401.109
-319.158
-806.156
-293.592
-37.6859
309.467
576.511
941.577
636.819
179.655
-253.899
-501.968
-369.745
-20.4949
110.486
545.932
197.7
213.843
-163.779
-394.546
-448.096
-1045.14
-406.5
-47.6153
364.928
720.675
1299.73
908.029
263.603
-471.091
-881.265
-604.893
3.54824
151.263
448.672
104.305
168.839
-220.607
-385.68
-735.666
-1165.78
-535.185
-42.2133
472.449
879.157
1560.27
1073.74
324.076
-636.623
-1166.95
-899.676
-48.9607
140.942
299.9
-9.98622
121.59
-261.729
-396.533
-985.513
-1167.6
-671.908
-55.4617
416.257
1126.51
1899.85
1192.85
410.482
-607.285
-1244.89
-838.407
102.547
233.016
170.177
-113.125
81.2922
-252.568
-378.615
-1087.32
-1096.95
-800.449
-95.6552
336.375
1401.78
2102.52
1390.29
568.272
-446.187
-1249.51
-919.451
-47.193
100.482
88.8277
-163.495
76.6206
-212.143
-332.096
-1035.15
-997.688
-873.511
-138.471
378.746
1447.56
1951.17
1451.28
665.939
-188.209
-779.571
-489.678
340.101
568.89
45.0506
-182.978
93.1046
-154.729
-249.5
-863.759
-876.453
-859.853
-203.306
332.579
1330.93
1741.87
1349.44
677.8
-24.5918
-422.171
-6.24038
1312.16
4059.42
22.6722
-187.643
125.211
-82.0924
-132.754
-618.121
-734.368
-784.369
-264.188
248.981
1109.75
1399.05
1101.78
662.575
138.67
-167.307
181.794
1167.05
2752.8
12.6724
-178.725
152.85
2.27198
10.1462
-317.253
-544.279
-655.924
-302.596
142.706
779.143
919.232
716.484
615.833
241.746
-40.6576
278.613
1233.27
3078.98
7.59738
-160.311
155.069
90.7383
157.194
-11.4641
-309.282
-461.47
-273.851
52.0554
459.453
558.52
445.086
658.476
440.901
92.4623
128.518
930.902
3544.73
3.91213
-141.001
121.088
173.505
280.375
225.674
-106.074
-248.305
-191.309
-0.0363838
254.336
399.097
453.396
689.638
492.729
31.5775
-49.642
234.58
254.227
-5.88846
-139.861
57.4489
233.554
341.29
357.904
33.1954
-89.6531
-145.73
-67.5227
146.769
231.687
488.968
646.219
403.386
-122.558
-299.542
-275.029
-300.763
-16.1035
-148.88
-4.54151
262.024
351.439
392.973
104.787
-28.2035
-159.992
-104.87
164.475
183.01
423.973
518.629
322.194
-65.9074
-190.716
-121.743
-99.321
-37.794
-186.65
-55.7806
255.112
346.386
357.796
120.278
-40.9854
-199.86
-113.06
101.243
236.558
369.391
429.047
265.344
-45.0701
-150.517
-151.156
-122.64
-43.419
-193.829
-78.3483
212.45
329.338
292.025
91.3096
-101.888
-198.425
-104.404
49.8546
187.656
300.14
354.343
212.721
-13.5828
-85.158
-89.6644
-62.5476
-70.7054
-251.144
-117.661
151.489
286.793
214.757
60.811
-146.233
-110.292
-140.524
57.7385
143.973
236.147
277.99
161.969
9.53799
-47.2417
-62.4495
-62.5626
-31.3036
-145.272
-129.539
126.008
277.817
131.925
-1.64186
-168.334
-35.7949
-167.309
36.186
106.851
177.056
203.23
117.696
17.2147
-23.432
-28.2649
-38.037
-74.2058
-190.561
-134.649
-22.6184
134.591
45.4008
29.7429
-90.9101
-24.2847
-143.228
-37.3614
10.3886
56.2437
80.0005
47.1344
5.44565
-4.87126
-9.31606
-5.36547
752.169
580.012
495.878
202.918
-96.8348
-451.274
-870.235
-1289.28
-1656.66
-1962.78
-2205.68
-2378.44
-2489.34
-2543.46
-2553.29
-2534.96
-2537.25
-2557.35
-2629.88
-2621.34
1095.69
639.752
384.971
-40.1334
-403.961
-836.031
-1255.79
-1682.34
-2077.22
-2436.37
-2737.98
-2972.29
-3124.61
-3186.65
-3158.07
-3065.08
-2950.97
-2821.67
-2722.89
-2870.28
7110.22
7011.75
6986.44
6949.63
6890.55
6811.86
6691.13
6532.5
6317.52
6032.66
5653.44
5156.07
4535.3
3836.03
3162.42
2627.97
2278.06
2101.26
2113.53
1796.92
3872.14
4025
4082.82
4211.37
4294.79
4404.54
4497.25
4593.14
4681.24
4766.62
4843.72
4901.64
4922.55
4883.77
4774.98
4602.5
4445.8
4319.2
4306.05
4211.3
3803.1
3947.85
3984.89
4093.17
4150.27
4222.94
4278.91
4329.14
4368.66
4395.43
4413.59
4429.06
4456.25
4507.03
4591.75
4700.58
4817.42
4922.97
4995.2
5054
1615.13
1823.81
1888.88
2024.71
2122.15
2229.59
2334.65
2434.76
2536.89
2635.06
2732.56
2828.21
2922.39
3018.96
3118.45
3231.45
3345.37
3480.73
3578.05
3719.34
182.114
404.226
496.262
632.572
754.536
873.689
1005.24
1121.48
1244.8
1359.2
1471.99
1580.88
1685.44
1789.57
1889.03
1994.8
2090.55
2206.63
2284.78
2406.91
-2374.12
-2189.23
-2041.98
-1928.8
-1772.11
-1644.35
-1463.46
-1311.57
-1125.63
-946.819
-755.214
-560.915
-365.687
-168.775
20.64
214.72
390.146
595.998
748.9
1015.81
-4612.08
-4782.59
-4746.08
-4880.75
-4919.06
-5052.06
-5104.93
-5230.62
-5295.9
-5370.32
-5383.83
-5352.05
-5259.39
-5110.43
-4914.83
-4673.26
-4428.19
-4153.83
-3957.27
-3580.06
-2229.53
-2672.75
-2772.49
-3096.82
-3292.41
-3619.88
-3876.08
-4230.12
-4553.11
-4920.12
-5254.65
-5578.78
-5857.4
-6086.74
-6241.01
-6317
-6306.16
-6227.19
-6215.46
-6070.89
2186.01
1825.26
1745.27
1465.3
1347.69
1086.78
939.938
707.447
544.432
352.626
208.889
66.998
-46.2555
-152.454
-241.537
-326.252
-404.103
-410.347
-445.722
-797.198
4643.51
4622.31
4680.16
4613.33
4709.49
4624.94
4677.4
4579.39
4535.73
4390.62
4233.73
4006.14
3741.73
3437.22
3133.91
2872.62
2680.76
2565.17
2560.42
2352.27
2781.92
2912.78
3051.2
3066.96
3270.3
3291.16
3479.04
3555.84
3715.27
3824.96
3944.45
4020.94
4058.21
4027.85
3936.2
3801.37
3704.75
3674.68
3712.19
3712.43
1717.33
1810.7
1994.49
1945.77
2182.34
2150.39
2331.15
2364.3
2484.39
2557.49
2649.84
2736.34
2827.69
2924.49
3022.19
3122.11
3213.8
3320.01
3396.75
3499.57
-484.162
-440.555
-183.499
-263.127
41.1846
-0.83575
234.123
285.245
451.561
562.787
702.448
836.431
974.885
1119.75
1266.1
1426.08
1579.44
1757.51
1885.6
2089.37
-2200.95
-2379.7
-2184.35
-2425.7
-2206.6
-2384.16
-2248.74
-2315.37
-2247.16
-2242.82
-2197.1
-2160.08
-2113.28
-2057.67
-1995.7
-1900.21
-1791.61
-1619.54
-1443.89
-1170.51
-501.017
-903.418
-820.703
-1357.47
-1365.99
-1787.37
-1938.35
-2246.65
-2453.93
-2699.99
-2905.58
-3105.41
-3276.89
-3416.23
-3509.33
-3532.04
-3517.7
-3481.8
-3469.85
-3355.23
1873.42
1346.26
1855.1
1200.26
1317.59
901.387
729.711
395.728
111.102
-217.836
-542.79
-879.973
-1212.81
-1529.64
-1803.07
-1994.83
-2087.05
-2163.26
-2235.23
-2273.14
1599.36
-65.0367
704.766
-236.942
-283.231
-793.846
-1071.28
-1426.18
-1699.79
-1949.63
-2138.23
-2270.46
-2332.5
-2318.85
-2212.41
-1991.78
-1692.85
-1353.51
-995.504
-827.539
53563.3
47101.8
43668.3
39365.1
35773.1
32219.1
28946.3
25833.4
22904.2
20127.6
17493.6
14987.1
12596.2
10310.8
8142.84
6070.21
4013.89
2254.93
532.758
-2405.35
47466.2
41006.1
37574.2
33273.4
29684.4
26134
22865.4
19757.1
16833
14061.7
11433.1
8931.93
6546.29
4265.71
2101.68
32.0006
-2022.82
-3782.86
-5506.29
-8443.4
-4520.24
-6182.35
-5410.27
-6348.09
-6389.82
-6894.58
-7165.18
-7512.07
-7776.64
-8016.45
-8194.12
-8314.7
-8364.65
-8338.89
-8220.51
-7989.29
-7684.03
-7341.26
-6980.96
-6812.41
-4324.66
-4849.33
-4338.28
-4990.84
-4870.63
-5283.46
-5450.39
-5778.33
-6054.76
-6373.1
-6684.16
-7003.01
-7312.31
-7599.87
-7838.57
-7991.06
-8047.5
-8097.86
-8184.65
-8231.11
-6752.22
-7157.64
-7078.19
-7620.62
-7635.78
-8065.43
-8226.43
-8545.96
-8766.6
-9028.12
-9252.86
-9476.28
-9676.42
-9849.88
-9980.8
-10040.6
-10054.8
-10035
-10043.4
-9930.92
-8457.47
-8644.56
-8455.84
-8702.95
-8492.23
-8676.14
-8548.21
-8622.38
-8560.42
-8563.23
-8522.8
-8490.69
-8446.58
-8391.09
-8325.28
-8220.2
-8093.38
-7900.22
-7749.11
-7500.68
-6812.56
-6775.78
-6521.38
-6606.41
-6307.49
-6354.64
-6125.67
-6076.72
-5913.72
-5801.8
-5660.99
-5524.04
-5381.79
-5232.2
-5080.57
-4914.54
-4756.01
-4574.21
-4445.67
-4240.29
-4478.01
-4360.49
-4194.32
-4291.03
-4062.19
-4118.99
-3933.33
-3907.1
-3772.29
-3699.57
-3607.85
-3531.73
-3451.17
-3360.53
-3265.24
-3166.97
-3077.48
-2973.03
-2896.43
-2796.25
-3223.07
-3197.32
-3052.83
-3215.09
-3115
-3172.82
-3088.33
-3048.44
-2935.57
-2830.17
-2707.93
-2614.38
-2534.39
-2503.08
-2532.05
-2594.24
-2623.08
-2599.54
-2552.8
-2528.01
-2325.46
-2356.99
-2356.12
-2420.13
-2407.44
-2412.77
-2385.72
-2370.42
-2345.67
-2336.38
-2357.75
-2424.06
-2519.39
-2649.95
-2782.59
-2885.47
-2942.67
-2966.29
-2935.55
-3006.97
-3046.67
-3224.04
-3263.62
-3295.48
-3297.02
-3304.72
-3328.99
-3379.38
-3479.51
-3632.63
-3782.65
-3878.42
-3933.75
-3971.18
-4003.97
-4047.74
-4083.13
-4063.07
-4057.83
-4257.86
-5657.78
-5840.45
-5850.44
-5898.31
-5943.5
-6017.87
-6127.83
-6277.35
-6475.11
-6705.51
-6917.97
-7109.14
-7320.04
-7546.01
-7749.98
-7883.08
-7912.09
-7894.92
-7908.56
-7826.22
-6786.35
-6752.08
-6718.31
-6728.9
-6764.31
-6818.56
-6891.52
-6966.87
-7057.62
-7163.38
-7246.81
-7298.15
-7320.21
-7287.94
-7191.55
-7025.7
-6837.98
-6611.24
-6459.52
-6191.51
-5030.72
-4845.96
-4766.56
-4678.98
-4608.29
-4527.3
-4434.84
-4320.17
-4224.67
-4150.32
-4014.48
-3844.93
-3685.84
-3521.53
-3362.33
-3199.97
-3063.13
-2904.15
-2805.98
-2604.07
-3452.85
-3268.14
-3201.59
-3107.78
-3030.92
-2944.32
-2852.58
-2748.76
-2631.63
-2518.82
-2410.45
-2304.73
-2211.81
-2121.43
-2036.37
-1944.28
-1859.81
-1757.77
-1690.74
-1595.27
-1737.8
-1602.08
-1566.79
-1488.36
-1424.95
-1358.34
-1301.43
-1251.81
-1211.9
-1190.55
-1187.79
-1193.99
-1192.61
-1155.89
-1080.42
-982.427
-891.272
-802.096
-746.244
-678.565
-1108.19
-991.267
-962.156
-887.145
-836.924
-780.705
-721.712
-650.025
-575.933
-501.565
-420.945
-331.204
-246.212
-206.079
-256.856
-400.423
-531.27
-616.236
-609.927
-661.375
1053.49
954.89
895.532
838.533
784.308
702.632
574.485
408.601
209.389
-32.9452
-328.197
-691.743
-1132.87
-1630.48
-2101.97
-2454.83
-2668.83
-2765.91
-2741.62
-3063.59
-3627.08
-4231.92
-4524.11
-5005.09
-5417.15
-5866.1
-6272.64
-6670.38
-7034.83
-7358.3
-7619.39
-7806.69
-7909.63
-7924
-7860.05
-7745.05
-7610.09
-7500.07
-7542.51
-7833.38
-9077.48
-9374.8
-9436.91
-9693.41
-9871.35
-10084.3
-10265.7
-10451.6
-10631.6
-10790.6
-10922.9
-11031.2
-11121.9
-11202.2
-11285.8
-11360.5
-11420
-11450.1
-11484.1
-11275.7
-5608.97
-5366.81
-5377.41
-5533.33
-5770.17
-6037.96
-6412.48
-6739.04
-7000.93
-7241.1
-7454.81
-7631
-7769.89
-7858.1
-7893.63
-7830.68
-7673.12
-7356.12
-7041.03
-6673.59
)
;

boundaryField
{
    outletWall
    {
        type            fixedValue;
        value           uniform 0;
    }
    fineWalls
    {
        type            zeroGradient;
    }
    fineFrontAndBack
    {
        type            zeroGradient;
    }
    fineplugLeft
    {
        type            cyclicAMI;
        value           nonuniform List<scalar> 
20
(
-2906.24
-2850.52
-2723.49
-2640.39
-2555.05
-2482.63
-2387.56
-2260.42
-2091.16
-1886.12
-1628.67
-1269.03
-1021.99
-715.351
378.604
508.11
724.133
868.785
711.798
409.398
)
;
    }
    fineplugRight
    {
        type            cyclicAMI;
        value           nonuniform List<scalar> 
20
(
-5734.21
-5870.82
-6059.19
-6234.22
-6298.11
-6289.7
-6209.07
-6091.38
-5937.93
-5764.74
-5559.63
-5284.17
-5148.51
-5524.95
-4190.63
-4083
-3898.75
-3885.82
-4107.68
-4645.48
)
;
    }
    inletOutletLeft
    {
        type            cyclicAMI;
        value           nonuniform List<scalar> 
20
(
-2906.24
-2850.52
-2723.49
-2640.39
-2555.05
-2482.63
-2387.56
-2260.42
-2091.16
-1886.12
-1628.67
-1269.03
-1021.99
-715.351
378.604
508.11
724.133
868.785
711.798
409.398
)
;
    }
    inletLeft
    {
        type            zeroGradient;
    }
    inletWallsLeft
    {
        type            zeroGradient;
    }
    inletFacesLeft
    {
        type            zeroGradient;
    }
    inletOutletRight
    {
        type            cyclicAMI;
        value           nonuniform List<scalar> 
20
(
-5734.21
-5870.82
-6059.19
-6234.22
-6298.11
-6289.7
-6209.07
-6091.38
-5937.93
-5764.74
-5559.63
-5284.17
-5148.51
-5524.95
-4190.63
-4083
-3898.75
-3885.82
-4107.68
-4645.48
)
;
    }
    inletRight
    {
        type            zeroGradient;
    }
    inletWallsRight
    {
        type            zeroGradient;
    }
    inletFacesRight
    {
        type            zeroGradient;
    }
}


// ************************************************************************* //
