/*--------------------------------*- C++ -*----------------------------------*\
| =========                 |                                                 |
| \\      /  F ield         | OpenFOAM: The Open Source CFD Toolbox           |
|  \\    /   O peration     | Version:  4.1                                   |
|   \\  /    A nd           | Web:      www.OpenFOAM.org                      |
|    \\/     M anipulation  |                                                 |
\*---------------------------------------------------------------------------*/
FoamFile
{
    version     2.0;
    format      ascii;
    class       surfaceScalarField;
    location    "21";
    object      phi;
}
// * * * * * * * * * * * * * * * * * * * * * * * * * * * * * * * * * * * * * //

dimensions      [0 3 -1 0 0 0 0];

internalField   nonuniform List<scalar> 
2360
(
44755
50210.7
-5455.74
50210.7
50210.7
57133.3
-6922.52
57133.3
57133.3
57133.3
66529.8
-9396.56
66529.8
66529.8
79168.2
-12638.4
79168.3
79168.2
99066.2
-19898
99066.2
99066.3
129671
-30605.1
129671
129671
138522
151871
165934
179466
192033
203590
172915
41494.3
182967
192338
201084
209227
216766
223684
230007
235880
241701
248039
255352
263315
270177
159759
110418
159759
159759
159759
64905.5
94853.4
64905.5
64905.5
64905.5
7602.43
57303.1
7602.42
7602.42
-29580.7
37183.2
-29580.7
-29580.8
-29580.8
-132413
102832
-132413
-132413
-132413
-252934
120521
-244329
-233887
-223290
-213661
-205205
-197785
-190935
-184222
-177310
-169998
-162148
-153687
-144606
-173232
38128.2
-163301
-152864
-141780
-130297
-118851
-109061
-109061
-109061
-69356.3
-39705.1
-69356.3
-69356.3
-43807.7
-25548.6
-43807.7
-43807.7
-22316.1
-21491.6
-22316.1
-22316.1
-1670.78
-20645.3
-1670.81
-1670.79
-1670.82
20812.6
-22483.4
20812.6
20812.6
44261.5
-23449
-45109.8
-41464.8
-33086.3
37887.3
-27978.5
95739.6
-23664.2
116698
-19751.2
134597
-16207.7
140219
-12938.5
133896
-9186.23
109693
750.753
44059.4
8089.34
-78025.9
11419.1
-94144.7
16795.7
-101604
25609.3
-63638
33239.4
36365.8
34489.5
87691.3
31385.8
93473.9
28108.2
72800.5
26620.2
49834.3
15943.4
-46080.3
-55573.2
-29937.7
21744.8
-26718.8
92520.7
-24075
114054
-20631.3
131153
-17439.8
137027
-14489.3
130946
-10312.4
105516
2964.56
30782.5
3405.66
-78467
1568.06
-92307.1
6372.32
-106409
16269.8
-73535.5
27855.9
24779.7
31791.5
83755.7
29470.6
95794.8
26451.8
75819.3
24117.9
52168.2
17578
-45871.6
-67469.7
-27621
3494.19
-24484.1
89383.7
-24268.8
113839
-21965.5
128850
-19264.7
134326
-16801.9
128483
-12305.5
101020
-282.577
18759.5
-5883.16
-72866.4
-10231.1
-87959.2
-7853.29
-108786
-603.252
-80785.5
15284.1
8892.29
25604.2
73435.6
26254.2
95144.9
24213.1
77860.4
21265.3
55115.9
18198
-47330.2
-76368.4
-28192.1
-15644
-23102.5
84294.2
-24013.8
114750
-23568.5
128404
-21822.7
132581
-19873.3
126534
-15098.8
96245.4
-6772.27
10433
-15468.4
-64170.3
-21924.7
-81502.9
-24170.7
-106540
-20826.9
-84129.3
-1393.58
-10541
14112.3
57929.7
19792.4
89464.8
21138.1
76514.7
19851.1
56403
16557.5
-50941
-82254.7
-32699.4
-33885.6
-24196.4
75791.1
-24036.3
114590
-25104.9
129473
-24958.6
132434
-23633.6
125209
-19032.1
91643.8
-14647.7
6048.61
-23879.3
-54938.8
-33204.1
-72178.1
-42327.6
-97416.8
-43118.1
-83338.8
-24362.8
-29296.3
-4131.91
37698.8
9569.13
75763.7
17011
69072.8
19539.5
53874.5
10548.5
-56405.9
-85480.7
-40676.7
-49614.8
-28882.7
63997.1
-25732.3
111439
-26801.8
130543
-28285.7
133918
-28094.3
125017
-24260.7
87810.3
-22552.2
4340.14
-31100
-46390.9
-44479.6
-58798.5
-61829.9
-80066.6
-67779.7
-77389
-54544.6
-42531.4
-30188.2
13342.4
-6017.19
51592.7
8900.45
54155.2
23074.1
39700.8
-6082.51
-62801.2
-86152.7
-51080.4
-61335.5
-37294.9
50211.6
-30408.7
104553
-29645
129779
-31712.5
135986
-32796.7
126102
-30121.7
85135.3
-33903.7
8122.14
-46138.9
-34155.7
-64367.3
-40570.1
-84546.5
-59887.5
-93634.7
-68300.7
-89421.2
-46744.9
-67230.9
-8847.88
-33744
18105.8
-1981.74
22392.9
16031.8
21687.2
48077.5
-69597
-84321.2
-62731.5
-68201
-48725.2
36205.3
-38649.2
94477
-34801.2
125931
-35756
136941
-38389.6
128735
-44008.8
90754.5
-63413
27526.3
-83570.4
-13998.4
-93404.7
-30735.8
-104298
-48994.2
-118149
-54449.1
-126022
-38872.6
-123880
-10990
-113838
8064.37
-102483
11037.8
-101303
20507
67295.3
-76590
-80048.7
-74688.7
-70102.3
-62020.5
23537.1
-50056.3
82512.8
-42892.8
118767
-41212.7
135260
-44054.8
131577
-54124
100824
-76122.3
49524.7
-94820.2
4699.55
-105492
-20063.7
-118660
-35826.9
-134725
-38383.9
-147506
-26091.8
-154092
-4403.36
-155223
9195.58
-151018
6832.27
-137169
6658.19
32958.3
-83583.7
-73411
-86250.8
-67435.2
-75889.2
13175.4
-63477.8
70101.4
-53812.1
109102
-49044.1
130492
-50558.3
133092
-61915.2
112181
-83081.4
70690.9
-99350.6
20968.7
-109386
-10028.7
-122398
-22814.9
-136627
-24154.7
-145835
-16883.2
-148553
-1685.36
-144464
5106.7
-131064
-6568.47
-100512
-23894
-30370
-90338.1
-64457.9
-97081.3
-60692.1
-89405.9
5500.1
-77510.4
58205.8
-66657.2
98248.4
-59619.7
123455
-59284.8
132757
-69205.4
122101
-84721.8
86207.3
-93431.6
29678.5
-101227
-2233.35
-115541
-8500.98
-130723
-8972.17
-140256
-7350.16
-142778
835.899
-139881
2210.12
-130296
-16153.8
-107011
-47178.6
-80078.1
-96519.4
-53181.3
-107378
-49833.4
-103122
1243.85
-92369.9
47453.9
-81450.1
87328.6
-73780.1
115785
-72147.9
131124
-77252.1
127205
-80041
88996.2
-76121.3
25758.8
-81245
2890.37
-95756.6
6010.64
-109724
4994.82
-119240
2165.81
-120674
2270.05
-115064
-3399.24
-108528
-22690.4
-108524
-47182.7
-93748.5
-101413
-39745.2
-116714
-34531.8
-117914
2443.58
-110622
40162.2
-101513
78219
-94635.4
108908
-90302.3
126791
-83209.4
120112
-63715.9
69502.7
-46458
8500.92
-52449.4
8881.77
-66025.4
19586.7
-73107.4
12076.8
-73087.2
2145.61
-63775.1
-7042.06
-44932.7
-22241.7
-29536.2
-38086.8
-48888.5
-27830.5
-32218.6
-103677
-24891.6
-122485
-15724.4
-130317
10275.5
-130014
39859.6
-125672
73876.3
-118857
102093
-105195
113129
-75671.5
90589.3
-32547.4
26378.5
-16527.6
-7518.86
-27943
20297.2
-37496.6
29140.2
-41282.3
15862.5
-36622.7
-2514.03
-24734.1
-18930.6
-9409.05
-37566.7
-387.258
-47108.6
8352.33
-36570
17628.1
-101560
-10144.4
-121069
3784.57
-134038
23244.2
-141338
47159.8
-141286
73824.1
-129127
89934.1
-96806.5
80808.6
-44417.5
38200.3
-6787.41
-11251.5
-5847.7
-8458.58
-13473.9
27923.5
-17658.7
33325
-17513.6
15717.4
-10948.9
-9078.75
-2681.26
-27198.3
3718.45
-43966.4
4820.68
-48210.8
15306.4
-47055.8
2329.47
-93861.8
2896.64
-111902
21824.4
-127489
38831.1
-138102
57772.8
-135217
70939.7
-108787
63504.3
-58176.4
30197.7
-12780.6
-7195.43
-1845.88
-22186.3
-3571.29
-6733.16
-3061.45
27413.6
-3397.02
33660.6
-594.822
12915.2
5022.77
-14696.3
8954.43
-31130
10179.1
-45191.1
7438.58
-45470.3
9996.95
-49614.2
-7571.51
-81368.4
13297.3
-97296.6
37752.6
-113056
54590.3
-120805
65522.1
-106373
56507.1
-65080.8
22212.5
-22288.3
-12594.7
-7641.47
-21842.3
-6765.56
-23062.2
141.034
-13639.8
5558.62
21996.1
9162.67
30056.6
13282.2
8795.64
16035.3
-17449.4
15717.9
-30812.6
13237.4
-42710.6
8139.87
-40372.8
6107.05
-47581.3
-14102.9
-67314.4
21155.4
-80689
51127.2
-94162.8
68064.1
-95238.8
66598.2
-69829.9
31098.2
-34509
-13108.4
-17273.6
-29830.2
-12627.5
-26488.3
-7683.38
-28006.3
-210.247
-21112.9
8616.63
13169.2
15314.2
23359
19542.5
4567.36
19990.8
-17897.7
16865.1
-27686.9
12119.6
-37965.1
7500.71
-35753.8
5962.72
-46043.4
-17536.8
-53894.5
26249.6
-64802.7
62035.5
-76471.3
79732.6
-72516.7
62643.6
-46949.6
5531.17
-27530.9
-32527.1
-20147.6
-37213.5
-14129.5
-32506.4
-9333.42
-32802.4
-2828.62
-27617.7
6776.98
3563.59
14304.3
15831.6
16910.4
1961.21
15010.4
-15997.7
11850.4
-24526.8
9529.32
-35644
7684.76
-33909.3
6872.32
-45230.9
-17587
-38735.1
-43652.8
-51832.1
-50133.9
-37049.2
-27665.2
-21281.4
-15694.5
-11031.2
-6335.68
1548.14
8215.75
10341.1
9922.7
9413.87
9659.92
8631.32
8036.25
426.192
-9276.76
2249.93
-15172.6
4105.21
-15918.5
5671.02
-15098
6890.09
-13785.8
7828.88
-12495.5
8301.07
-11292.1
8576.05
-10326.2
8704.34
-9499.53
8723.83
-8765.13
8659.8
-8079.48
8532.39
-7411.07
8351.14
-6736.67
8094.86
-6067.08
7700.62
-5478.87
7041.85
-5161.23
5993.18
-5290.01
4466.71
-5785.99
2509.31
-6005.48
-4353.33
174.662
-9451.37
942.935
-15940.8
1642.12
-16617.7
2148.55
-15604.4
2585.66
-14222.8
3034.31
-12944.1
3574.6
-11832.3
4107.27
-10858.8
4612.66
-10004.9
5081.74
-9234.15
5518.16
-8515.86
5934.52
-7827.38
6351.01
-7153.12
6762.75
-6478.78
7096.7
-5812.78
7123.12
-5187.62
6520
-4686.89
4996.56
-4262.54
2655.4
-3664.3
-1697.93
896.424
-10347.7
2091.36
-17135.7
2927.2
-17453.5
3501.83
-16179
4048.97
-14769.9
4627.25
-13522.3
5237.2
-12442.2
5844.13
-11465.7
6385.07
-10545.8
6802.32
-9651.34
7062.25
-8775.76
7155.37
-7920.45
7095.62
-7093.34
6908.17
-6291.29
6606.29
-5510.87
6136.9
-4718.19
5362.78
-3912.75
4094.09
-2993.84
2165.3
-1735.48
467.373
2106.43
-12454.1
3444.58
-18473.8
4094.93
-18103.8
4594.42
-16678.5
5209.51
-15385
5952.08
-14264.9
6778.76
-13268.8
7579.52
-12266.4
8267.88
-11234.1
8783.11
-10166.6
9091.53
-9084.16
9170.37
-7999.27
9003.32
-6926.28
8578
-5865.94
7890.48
-4823.34
6933.52
-3761.22
5697.97
-2677.17
4145.44
-1441.29
2193.14
216.859
2660.51
3044.03
-15498.1
4026.42
-19456.2
4395.25
-18472.6
4905.05
-17188.2
5693.55
-16173.5
6696.09
-15267.4
7792.96
-14365.7
8812.71
-13286.2
9665.09
-12086.5
10310.5
-10811.9
10737.1
-9510.76
10920.1
-8182.26
10820.5
-6826.65
10377.3
-5422.73
9497.02
-3943.04
8039.75
-2303.93
5791.55
-428.955
3553.36
796.926
1555.26
2215
4215.77
2037.24
-17535.4
1605.79
-19024.7
1208.99
-18075.8
1138.92
-17118.1
1301.34
-16335.9
1616.25
-15582.3
1928.4
-14677.8
2092.16
-13449.9
2082.87
-12077.2
1919.73
-10648.8
1615.91
-9206.93
1154.35
-7720.68
515.072
-6187.35
-294.29
-4613.34
-1168.81
-3068.46
-1875.54
-1597.12
-2034.9
-269.498
-2350.41
1112.49
-2079.74
1944.37
2136.03
-592.931
-16942.4
-2025.73
-17591.9
-3251.38
-16850.2
-4389.04
-15980.5
-5520.47
-15204.5
-6645.12
-14457.6
-7813.81
-13509.1
-9041.34
-12222.4
-10305.6
-10812.9
-11593.4
-9360.95
-12907.9
-7892.41
-14240.6
-6387.98
-15538.1
-4889.87
-16667
-3484.38
-17376.7
-2358.71
-17192.3
-1781.57
-15537.5
-1924.27
-11723.6
-2701.38
-5994.9
-3784.3
-3858.87
-1934.29
-15008.2
-3100.4
-16425.8
-4489.92
-15460.7
-6189.69
-14280.7
-8071.98
-13322.2
-10088.8
-12440.8
-12083.2
-11514.8
-13972.5
-10333
-15719.5
-9065.92
-17355.6
-7724.87
-18875
-6373.04
-20196.8
-5066.15
-21096.5
-3990.17
-21186.2
-3394.73
-20045.2
-3499.7
-17455.6
-4371.19
-13437.9
-5941.9
-8320.13
-7819.16
-3282.44
-8821.98
-7141.3
-786.474
-14221.7
-749.168
-16463.1
-976.533
-15233.3
-1593.73
-13663.5
-2281.35
-12634.6
-3079.67
-11642.5
-3794.31
-10800.1
-4302.27
-9825.04
-4494.7
-8873.47
-4349.47
-7870.07
-3846.58
-6875.9
-2991.8
-5920.9
-1830.57
-5151.36
-446.686
-4778.56
1014.75
-4961.09
2295.08
-5651.46
2971.86
-6618.67
2662.98
-7510.26
1403.06
-7562.04
-5738.25
78.9078
-14300.6
750.935
-17135.2
1199.9
-15682.3
1450.07
-13913.7
1795.52
-12980
2134.23
-11981.2
2524.19
-11190.1
3025.44
-10326.3
3711.81
-9559.86
4642.75
-8801.04
5845.69
-8078.86
7292.8
-7368.02
8813.01
-6671.58
10055.9
-6021.43
10585.5
-5490.75
10099.8
-5165.77
8540.91
-5059.76
6040.92
-5010.28
3086.38
-4607.52
-2651.87
562.305
-14862.9
1216.07
-17788.9
1587.31
-16053.5
1991.8
-14318.2
2518.19
-13506.4
3039.38
-12502.4
3574.58
-11725.3
4091.38
-10843.1
4587.73
-10056.2
5055.08
-9268.38
5498.25
-8522.04
5926.96
-7796.73
6348.4
-7093.04
6723.89
-6396.91
6936.63
-5703.51
6771.65
-5000.8
6019.17
-4307.3
4536.72
-3527.86
2410.67
-2481.51
-241.197
1009.82
-15872.8
1315.59
-18094.7
1584.11
-16322.1
1981.3
-14715.4
2481.33
-14006.5
2935.18
-12956.3
3414.63
-12204.8
3876.28
-11304.8
4345.13
-10525.1
4786.67
-9709.96
5186.23
-8921.64
5505.28
-8115.82
5708.09
-7295.88
5753.84
-6442.69
5604.96
-5554.67
5204.55
-4600.42
4476.95
-3579.71
3314.01
-2364.94
1691
-858.569
1449.8
1371.81
-17244.6
1341.37
-18064.3
1681.56
-16662.3
2161.58
-15195.5
2737.9
-14582.8
3283.26
-13501.7
3890.03
-12811.6
4510.6
-11925.4
5191.84
-11206.4
5894.46
-10412.6
6593.05
-9620.24
7192.87
-8715.66
7585.22
-7688.25
7663.36
-6520.84
7368.64
-5259.97
6668.48
-3900.28
5562.54
-2473.79
3974.89
-777.321
2033.03
1083.24
3482.84
1106.45
-18351.1
753.114
-17711
990.705
-16899.9
1342.39
-15547.2
1787.04
-15027.5
2256.73
-13971.4
2830.98
-13385.9
3474.15
-12568.6
4231.55
-11963.8
5048.39
-11229.5
5857.24
-10429.1
6468.52
-9326.98
6697.19
-7916.95
6446.91
-6270.59
5742.22
-4555.31
4615.19
-2773.3
3266.4
-1125.05
1956.8
532.223
572.249
2467.74
4055.09
58.722
-18409.8
-602.673
-17049.6
-902.349
-16600.2
-1170.21
-15279.4
-1400.55
-14797.2
-1585.32
-13786.7
-1726.8
-13244.4
-1795.03
-12500.4
-1799.77
-11959.1
-1749.78
-11279.5
-1728.55
-10450.4
-1856.69
-9198.88
-2206.38
-7567.29
-2705.55
-5771.47
-3261.42
-3999.48
-3876.38
-2158.39
-4506.75
-494.733
-4676.09
701.524
-3528.04
1319.65
527.043
-561.569
-17848.3
-1254.95
-16356.3
-1869.64
-15985.6
-2560.04
-14589
-3266.21
-14091
-3998.15
-13054.8
-4797.91
-12444.7
-5629.94
-11668.4
-6538.71
-11050.3
-7479.28
-10339
-8427.94
-9501.72
-9265.99
-8360.86
-9850.6
-6982.69
-10050.5
-5571.57
-9819.2
-4230.82
-9105.4
-2872.21
-7937.86
-1662.28
-6208.81
-1027.53
-3383.75
-1505.41
-2856.71
-350.004
-17498.3
-857.732
-15848.6
-1216.24
-15627.1
-1611.04
-14194.2
-2002.89
-13699.2
-2384.1
-12673.6
-2815.67
-12013.1
-3274.09
-11210
-3794.98
-10529.5
-4322.48
-9811.49
-4743.05
-9081.17
-4841.44
-8262.49
-4447.06
-7377.09
-3544.65
-6474
-2209.12
-5566.37
-510.137
-4571.22
1264.48
-3436.95
2454.45
-2217.55
2200.6
-1251.6
-656.117
-985.759
-16512.5
-2139.24
-14695.1
-2942.28
-14824
-3482.93
-13653.6
-3927.6
-13254.5
-4132.5
-12468.7
-4241.68
-11904
-4195.54
-11256.2
-4052.13
-10672.9
-3780.44
-10083.2
-3345.59
-9516.02
-2663.53
-8944.56
-1686.51
-8354.12
-443.983
-7716.54
989.395
-6999.77
2518.04
-6099.87
3856.86
-4775.78
4334.01
-2694.71
2974.21
108.179
2318.1
-1976.52
-14536
-4197.36
-12474.3
-6385.36
-12636.1
-8144.38
-11894.6
-9786.96
-11612
-11080.7
-11175
-12153.4
-10831.3
-12941.6
-10467.9
-13489
-10125.5
-13790.7
-9781.52
-13867.6
-9439.15
-13723.5
-9088.65
-13355.4
-8722.23
-12743.4
-8328.57
-11857.1
-7886
-10616.7
-7340.34
-8832.29
-6560.17
-6300.37
-5226.64
-3148.78
-3043.42
-830.686
-5436.04
-8810.31
-12346.4
-15141
-17652.9
-19727.9
-21459.2
-22827.1
-23852.6
-24534.1
-24873.3
-24861.9
-24484.2
-23712.7
-22498.7
-20739.1
-18199.3
-14325.9
-8269.31
-5437.88
14537.9
-8814.51
12476.6
-12353
12638.5
-15150.5
11897.6
-17665.8
11615.3
-19744.6
11178.8
-21480.2
10835.6
-22852.9
10472.7
-23883.4
10130.5
-24569.9
9786.52
-24913.7
9443.76
-24906.2
9092.55
-24531.7
8725.47
-23763.6
8331.91
-22554.2
7890.62
-20800.2
7346
-18261.1
6560.83
-14371.2
5210.16
-8282.07
3010.85
817.928
-1979.69
16517.6
-4202.16
14699.1
-6392.59
14828.9
-8152.38
13657.3
-9795.72
13258.6
-11088.9
12471.9
-12160.2
11906.9
-12945.7
11258.2
-13489.2
10674.1
-13786.4
10083.6
-13859.1
9516.53
-13713
8946.4
-13346.4
8358.91
-12740.3
7725.77
-11864
7014.36
-10633.1
6115.02
-8857.76
4785.51
-6331.33
2683.72
-3182.28
-138.209
-2364.35
-976.209
17493.7
-2115.77
15838.6
-2905.64
15618.7
-3428.57
14180.3
-3855.15
13685.2
-4037.45
12654.2
-4121.86
11991.3
-4046.72
11183
-3871.17
10498.5
-3564.74
9777.19
-3096.24
9048.01
-2387.64
8237.79
-1398.86
7370.12
-164.721
6491.62
1240.04
5609.58
2712.18
4642.88
3960.25
3537.43
4337.18
2306.78
2934.76
1264.2
570.413
-320.367
17814.1
-803.41
16321.7
-1134.48
15949.8
-1498.13
14543.9
-1858.19
14045.2
-2206.09
13002.1
-2603.51
12388.7
-3027.15
11606.6
-3512.76
10984.1
-4003.28
10267.7
-4380.78
9425.52
-4428.53
8285.53
-3983.11
6924.69
-3039.71
5548.21
-1679.12
4248.98
18.8551
2944.89
1771.91
1784.37
2892.17
1186.51
2435.75
1720.61
3006.16
-555.932
18370
-1230.33
16996
-1830.71
16550.2
-2520.55
15233.7
-3224.96
14749.6
-3962
13739.2
-4770.55
13197.2
-5619.31
12455.4
-6550.42
11915.2
-7515.67
11232.9
-8482.85
10392.7
-9320.47
9123.14
-9877.54
7481.75
-10025.9
5696.58
-9716.83
3939.88
-8896.38
2124.44
-7632.92
520.911
-5866.72
-579.704
-3112.04
-1034.07
-105.88
70.0983
18299.9
-654.862
17721
-977.701
16873
-1249.24
15505.3
-1489.53
14989.9
-1689.99
13939.6
-1848.5
13355.7
-1935.67
12542.5
-1964.77
11944.3
-1950.41
11218.6
-1975.93
10418.2
-2157.8
9305.01
-2558.82
7882.78
-3100.31
6238.07
-3695.22
4534.79
-4351.01
2780.22
-5000.03
1169.93
-5077.94
-501.794
-3721.19
-2390.82
-3827.07
1063.64
17236.3
1045.35
17739.3
1390.6
16527.8
1723.53
15172.3
2247.45
14466
2725.68
13461.4
3311.84
12769.6
3918.87
11935.5
4643.93
11219.3
5438.53
10424
6217.25
9639.49
6771.85
8750.41
6928.86
7725.77
6605.35
6561.57
5834.23
5305.92
4662.52
3951.93
3301.75
2530.7
1949.27
850.686
530.679
-972.23
-3296.39
1184.72
16051.6
2169.46
16754.5
2991.16
15706
3559.81
14603.7
4284.85
13740.9
4878.63
12867.6
5527.73
12120.5
6096.5
11366.7
6663.18
10652.6
7204.82
9882.33
7744.39
9099.93
8189.58
8305.21
8429.51
7485.84
8362.11
6628.98
7933.06
5734.97
7109.67
4775.31
5895.59
3744.78
4211.12
2535.16
2178.23
1060.66
-1118.16
904.026
15147.5
2078.08
15580.5
2927.15
14857
3461.09
14069.7
3927.36
13274.7
4331.03
12463.9
4772.96
11678.5
5187.38
10952.3
5531.75
10308.2
5746.13
9667.94
5898.46
8947.6
5992.92
8210.75
5991.27
7487.49
5853.26
6766.98
5541.41
6046.82
5006.39
5310.34
4195.94
4555.23
3042.32
3688.78
1560.04
2542.94
441.877
542.505
14605
1206.32
14916.7
1493.16
14570.1
1489.46
14073.4
1379.14
13385
1326.67
12516.4
1509.57
11495.6
2051.29
10410.6
2916.61
9442.9
3770.62
8813.94
4371.4
8346.83
4812.26
7769.9
5149.88
7149.87
5373.96
6542.91
5413.43
6007.35
5141.28
5582.48
4447.1
5249.42
3274.68
4861.19
1696.11
4121.51
2137.99
1.3705
14603.7
-191.899
15109.9
-739.428
15117.7
-1499.75
14833.8
-2341.26
14226.5
-3099.59
13274.7
-3488.25
11884.3
-3068.36
9990.71
-1753.96
8128.49
34.3547
7025.62
1829.53
6551.65
3630.35
5969.08
5363.13
5417.09
6751.73
5154.32
7443.33
5315.75
7207
5818.81
6075.45
6380.97
4265.94
6670.69
2153.5
6233.95
4291.49
-812.178
15415.9
-1780.3
16078.1
-2881.79
16219.2
-4045.64
15997.6
-5290.94
15471.8
-6613.72
14597.5
-7886.02
13156.6
-8937.61
11042.3
-9733.78
8924.68
-9735.82
7027.66
-8822.29
5638.14
-7715.09
4861.89
-6359.43
4061.44
-4733.93
3528.83
-2892.2
3474.03
-1079.56
4006.19
286.416
5015.01
894.162
6062.96
693.373
6434.76
4984.86
-1013.05
16428.9
-2068.55
17133.6
-2874
17024.6
-3528.91
16652.5
-4214.24
16157.1
-5117.85
15501.1
-6458.85
14497.6
-8461.35
13044.8
-11097.7
11561
-13777
9707.02
-15801.2
7662.33
-17473.5
6534.23
-18731.9
5319.76
-19227.7
4024.65
-18535.5
2781.81
-16327.6
1798.35
-12541.1
1228.48
-7740.73
1262.6
-3087.99
1782.02
1896.87
311.728
16117.2
95.1583
17350.1
419.915
16699.9
1094.56
15977.9
1897.38
15354.3
2603.79
14794.7
2904.78
14196.6
2581.03
13368.6
1735.85
12406.2
213.236
11229.7
-1789.71
9665.29
-3673.14
8417.68
-5572.58
7219.22
-7476.48
5928.57
-9207.06
4512.4
-10319.5
2910.77
-10220.6
1129.63
-8509.39
-448.612
-5036.31
-1691.06
-3139.44
2015.03
14102.2
3120
16245.2
4524.39
15295.5
6180.14
14322.1
7973.05
13561.4
9794.25
12973.5
11508.6
12482.3
12931.4
11945.8
14029.6
11307.9
14640.7
10618.6
14463.8
9842.15
13819.1
9062.46
12757.5
8280.76
11254.9
7431.19
9311.63
6455.69
6933.9
5288.5
4141.5
3922.04
1428.98
2263.92
-120.162
-141.897
-3259.6
2057.44
12044.7
3594.24
14708.4
5015.45
13874.3
6382.18
12955.4
7694.58
12249
8949.22
11718.9
10148.4
11283.1
11241.8
10852.5
12197.7
10352
12992.7
9823.63
13491.5
9343.35
13649.3
8904.64
13454.4
8475.67
12893.4
7992.21
11946.4
7402.67
10578.3
6656.6
8750.65
5749.71
6435.93
4578.64
3361.57
2932.47
101.971
1365.32
10679.4
2753.44
13320.3
3869.74
12758
4752.07
12073.1
5482.03
11519.1
6117.24
11083.7
6697.36
10703
7222.64
10327.2
7685.35
9889.29
8092.36
9416.63
8430.28
9005.44
8652.45
8682.48
8717.76
8410.37
8579.13
8130.84
8171.2
7810.62
7394.47
7433.33
6167.38
6976.81
4445.02
6300.99
2307.47
5070.03
2409.44
674.624
10004.8
1858.99
12135.9
2811.39
11805.6
3551.03
11333.5
4177.01
10893.1
4729.04
10531.7
5253.74
10178.3
5802.72
9778.24
6359.01
9333
6909.33
8866.32
7458.36
8456.41
7998.46
8142.39
8491.01
7917.83
8827.46
7794.4
8832.71
7805.37
8283.89
7982.15
7047.2
8213.5
5104.53
8243.66
2669.65
7504.92
5079.09
-225.558
10230.4
-189.712
12100.1
-304.905
11920.8
-386.62
11415.2
-259.465
10766
4.02755
10268.2
492.132
9690.21
1145.97
9124.42
1981.06
8497.93
2959.45
7887.94
4051.68
7364.18
5214.79
6979.28
6356.77
6775.85
7286.94
6864.23
7750.83
7341.48
7483.4
8249.59
6406.2
9290.7
4562.23
10087.6
2351.21
9715.93
7430.31
440.861
1094.56
1532.86
1863.92
2192.68
2530.38
2717.89
2761.32
2798.04
2836.58
2888.6
2955.99
3018.75
3033.26
2954.39
2748.23
2410.01
1900.6
1174.44
)
;

boundaryField
{
    outletWall
    {
        type            calculated;
        value           nonuniform List<scalar> 
60
(
44261.5
-12772.2
-48346.3
-69523
-90370.2
-88941.3
-43995.9
54824.4
96227.7
90814.9
70687.3
-53996.4
-113446
-137166
-143762
-138510
-121012
-100847
-49910.9
31576.6
37736.9
48800.3
59456.3
70967.7
80820.8
86813
88823.9
87976.6
85242.8
81385.1
76946
72317.5
67765.5
63473.2
59631.9
56827.3
56228.9
57768.2
60188.7
54998
-44755
-15006.5
-44635.8
-32880.7
-35890.1
-24018
-15579.3
-164.15
9164.03
-4320.23
-32313.2
-37465.6
-38093.4
-43597.2
-41911.1
-7553.56
60945.3
87911.9
66953.2
27247.8
)
;
    }
    fineWalls
    {
        type            calculated;
        value           uniform 0;
    }
    fineFrontAndBack
    {
        type            calculated;
        value           nonuniform List<scalar> 
960
(
-1.70192e-14
7.77545e-14
3.61921e-14
2.8622e-14
1.90621e-13
-9.85641e-15
1.97433e-13
-3.34322e-13
-2.01582e-13
8.28592e-14
9.60973e-13
-4.36246e-13
-9.4293e-13
-1.54528e-12
-3.49987e-11
-1.09841e-11
-1.25541e-11
-6.40678e-11
-1.2542e-11
-1.28928e-11
-3.09741e-12
-4.08689e-12
-3.39213e-12
-2.89684e-12
-2.75011e-12
-3.22243e-12
2.33832e-12
-3.68515e-12
-3.13607e-12
-2.40617e-12
-1.63002e-12
-6.61663e-13
6.74415e-13
2.35168e-12
3.56821e-12
2.95217e-12
5.52904e-13
-1.87249e-12
-2.48047e-12
-4.50383e-12
-3.08963e-11
-5.55391e-12
-1.37003e-11
-2.24922e-11
-1.07314e-10
-8.21557e-12
-1.53784e-12
6.00556e-12
1.36697e-10
9.05021e-12
5.8078e-12
1.05889e-10
1.14104e-11
9.07035e-12
1.09196e-11
1.27675e-10
2.68007e-11
2.24926e-11
1.53962e-11
9.76496e-11
7.23955e-12
4.26928e-12
3.7496e-12
2.39067e-12
7.7126e-13
-3.9543e-13
-8.76069e-13
-8.40217e-13
-7.01526e-13
-7.07297e-14
7.70306e-13
1.70293e-12
2.53475e-12
8.20595e-12
2.72958e-12
2.85408e-12
3.13077e-12
3.8173e-12
5.33916e-12
4.63135e-12
2.38882e-11
2.38592e-11
1.4485e-10
2.60916e-11
2.89777e-11
1.75456e-10
3.35532e-11
3.67772e-11
2.24234e-10
4.77598e-11
5.43208e-11
2.96414e-10
5.17203e-11
3.7063e-11
3.05381e-11
1.57892e-10
2.62232e-11
2.65472e-11
1.34607e-10
3.31501e-11
-7.78093e-11
1.22295e-11
6.7136e-11
9.27072e-11
1.14904e-10
1.33432e-10
1.47681e-10
1.57924e-10
1.63497e-10
1.64188e-10
1.60558e-10
1.52241e-10
1.39414e-10
1.55974e-10
1.60601e-10
1.59479e-10
1.71522e-10
1.93505e-10
2.04683e-10
-1.80365e-10
1.66307e-12
8.09328e-11
9.55432e-11
1.16178e-10
1.34489e-10
1.48353e-10
1.58313e-10
1.63586e-10
1.62492e-10
1.49923e-10
1.22788e-10
8.29741e-11
1.13134e-10
1.51555e-10
1.60504e-10
1.69995e-10
1.89646e-10
1.98445e-10
-2.25136e-10
-5.22499e-11
9.03338e-11
1.03431e-10
1.18126e-10
1.35651e-10
1.49322e-10
1.58896e-10
1.63729e-10
1.58784e-10
1.3411e-10
8.21102e-11
3.3324e-11
5.22331e-11
1.31631e-10
1.60814e-10
1.69926e-10
1.88525e-10
1.5682e-10
-2.33281e-10
-9.09687e-11
7.4944e-11
1.10981e-10
1.23046e-10
1.36783e-10
1.50406e-10
1.59707e-10
1.63742e-10
1.52907e-10
1.1541e-10
4.12104e-11
1.04249e-11
5.71394e-11
1.15641e-10
1.55159e-10
1.68927e-10
1.88317e-10
1.4845e-10
-2.1216e-10
-8.3896e-11
5.40185e-11
1.07441e-10
1.30165e-10
1.39144e-10
1.51416e-10
1.60793e-10
1.6271e-10
1.42915e-10
9.93912e-11
7.8777e-12
-1.97789e-12
6.01318e-11
1.14977e-10
1.48486e-10
1.66556e-10
1.87477e-10
1.56946e-10
-1.86552e-10
-5.45368e-11
5.62684e-11
9.67445e-11
1.33841e-10
1.43914e-10
1.52915e-10
1.61635e-10
1.56102e-10
1.18761e-10
7.98278e-11
-1.72541e-11
-1.17573e-11
5.63147e-11
1.27855e-10
1.5202e-10
1.63367e-10
1.86114e-10
1.64245e-10
-1.64516e-10
-2.07491e-11
8.42935e-11
9.54035e-11
1.31039e-10
1.48236e-10
1.55223e-10
1.62804e-10
1.37217e-10
5.91725e-11
3.61489e-11
-3.70865e-11
-1.62911e-11
4.64586e-11
1.37217e-10
1.78943e-10
1.82137e-10
1.79004e-10
8.14241e-11
-1.45479e-10
1.1692e-11
1.26553e-10
1.15742e-10
1.33003e-10
1.54024e-10
1.61022e-10
1.57709e-10
7.86548e-11
-2.81945e-11
-2.94947e-11
-1.53245e-11
-1.00765e-11
3.37811e-11
1.34169e-10
2.32232e-10
2.99759e-10
3.01444e-10
2.21423e-10
-1.26904e-10
4.04673e-11
1.6527e-10
1.40552e-10
1.34111e-10
1.52542e-10
1.65697e-10
1.53736e-10
6.33138e-11
-2.57263e-11
-9.59723e-12
1.92245e-11
1.78756e-11
2.11025e-11
6.762e-11
1.21773e-10
1.75143e-10
2.12383e-10
2.29148e-10
-1.0933e-10
6.42681e-11
2.11507e-10
1.90547e-10
1.57019e-10
1.5554e-10
1.49971e-10
1.45759e-10
3.19624e-11
-5.26604e-11
4.04384e-12
4.06683e-11
4.61743e-11
3.72515e-11
4.06499e-11
1.78693e-11
6.28731e-11
1.23006e-10
1.9046e-10
-9.40171e-11
7.45421e-11
2.19864e-10
2.2323e-10
1.90331e-10
1.7519e-10
1.77179e-10
1.26365e-10
2.5748e-11
8.12909e-12
7.14432e-11
3.81737e-11
-5.18571e-12
-3.63868e-11
-5.365e-11
-6.18161e-11
-5.6985e-11
-1.71998e-11
9.24553e-11
-8.50837e-11
7.92626e-11
2.13879e-10
2.19476e-10
1.9557e-10
1.75302e-10
1.60477e-10
1.04082e-10
2.66711e-11
3.08318e-11
6.03628e-11
3.20774e-11
-9.62177e-12
-6.8069e-11
-1.15909e-10
-1.42156e-10
-1.59702e-10
-1.64702e-10
-1.68303e-10
-8.4582e-11
6.64885e-11
1.98255e-10
2.12019e-10
1.91643e-10
1.68485e-10
1.36982e-10
7.81363e-11
1.15364e-11
7.19294e-12
3.44751e-11
3.68762e-11
2.51678e-12
-4.98364e-11
-9.61157e-11
-1.10499e-10
-8.91839e-11
-5.52323e-11
-3.41901e-11
-9.11928e-11
3.20092e-11
1.51371e-10
1.82557e-10
1.79443e-10
1.55077e-10
1.08299e-10
3.55619e-11
-4.33185e-11
-7.5276e-11
-1.23647e-11
1.91484e-11
1.21605e-11
-2.20832e-11
-4.89918e-11
-5.16652e-11
-3.06439e-11
-1.15394e-11
8.73622e-11
-1.05505e-10
-2.53123e-11
6.87832e-11
1.1276e-10
1.28985e-10
1.08408e-10
5.03701e-11
-3.68412e-11
-1.22724e-10
-1.29564e-10
-4.91214e-11
-7.96549e-12
8.00189e-12
-1.50773e-11
-3.38231e-11
-3.93964e-11
-3.40641e-11
-2.21829e-11
3.58834e-11
-1.24767e-10
-9.62874e-11
-2.31773e-11
2.19038e-11
4.34063e-11
2.27157e-11
-4.19942e-11
-1.23428e-10
-1.57245e-10
-1.32337e-10
-7.69975e-11
-3.05858e-11
2.20282e-12
-2.52641e-11
-4.29668e-11
-4.67217e-11
-4.06979e-11
-2.37353e-11
3.61409e-12
-1.33774e-10
-1.57818e-10
-1.02957e-10
-6.68057e-11
-5.27068e-11
-8.07632e-11
-1.39456e-10
-1.68089e-10
-1.51482e-10
-1.38633e-10
-1.07157e-10
-6.87983e-11
-3.67348e-11
-5.31326e-11
-6.38757e-11
-5.92865e-11
-4.73064e-11
-1.98727e-11
-5.20211e-12
-1.13288e-10
-1.92484e-10
-1.61005e-10
-1.3842e-10
-1.34661e-10
-1.61552e-10
-1.79769e-10
-1.67406e-10
-1.54333e-10
-1.41147e-10
-1.26339e-10
-1.04944e-10
-8.78652e-11
-9.6846e-11
-8.9972e-11
-6.87078e-11
-4.5908e-11
-1.50682e-11
-1.40844e-13
-6.97111e-11
-2.0019e-10
-1.99815e-10
-1.89447e-10
-1.86188e-10
-1.92755e-10
-1.84938e-10
-1.7116e-10
-1.56803e-10
-1.42709e-10
-1.29905e-10
-1.21215e-10
-1.13538e-10
-1.09628e-10
-9.29963e-11
-6.31098e-11
-3.91169e-11
-1.25036e-11
2.16508e-13
1.44371e-11
-1.50367e-10
-1.97146e-10
-2.13257e-10
-2.07958e-10
-1.99983e-10
-1.88704e-10
-1.74009e-10
-1.58915e-10
-1.44231e-10
-1.28917e-10
-1.21492e-10
-1.15981e-10
-1.04274e-10
-8.16529e-11
-5.525e-11
-3.63284e-11
-1.11267e-11
8.30143e-13
1.70192e-14
-7.77545e-14
-3.61921e-14
-2.8622e-14
-1.90621e-13
9.85641e-15
-1.97433e-13
3.34322e-13
2.01582e-13
-8.28592e-14
-9.60973e-13
4.36246e-13
9.4293e-13
1.54528e-12
3.49987e-11
1.09841e-11
1.25541e-11
6.40678e-11
1.2542e-11
1.28928e-11
3.09741e-12
4.08689e-12
3.39213e-12
2.89684e-12
2.75011e-12
3.22243e-12
-2.33832e-12
3.68515e-12
3.13607e-12
2.40617e-12
1.63002e-12
6.61663e-13
-6.74415e-13
-2.35168e-12
-3.56821e-12
-2.95217e-12
-5.52904e-13
1.87249e-12
2.48047e-12
4.50383e-12
3.08963e-11
5.55391e-12
1.37003e-11
2.24922e-11
1.07314e-10
8.21557e-12
1.53784e-12
-6.00556e-12
-1.36697e-10
-9.05021e-12
-5.8078e-12
-1.05889e-10
-1.14104e-11
-9.07035e-12
-1.09196e-11
-1.27675e-10
-2.68007e-11
-2.24926e-11
-1.53962e-11
-9.76496e-11
-7.23955e-12
-4.26928e-12
-3.7496e-12
-2.39067e-12
-7.7126e-13
3.9543e-13
8.76069e-13
8.40217e-13
7.01526e-13
7.07297e-14
-7.70306e-13
-1.70293e-12
-2.53475e-12
-8.20595e-12
-2.72958e-12
-2.85408e-12
-3.13077e-12
-3.8173e-12
-5.33916e-12
-4.63135e-12
-2.38882e-11
-2.38592e-11
-1.4485e-10
-2.60916e-11
-2.89777e-11
-1.75456e-10
-3.35532e-11
-3.67772e-11
-2.24234e-10
-4.77598e-11
-5.43208e-11
-2.96414e-10
-5.17203e-11
-3.7063e-11
-3.05381e-11
-1.57892e-10
-2.62232e-11
-2.65472e-11
-1.34607e-10
-3.31501e-11
7.78093e-11
-1.22295e-11
-6.7136e-11
-9.27072e-11
-1.14904e-10
-1.33432e-10
-1.47681e-10
-1.57924e-10
-1.63497e-10
-1.64188e-10
-1.60558e-10
-1.52241e-10
-1.39414e-10
-1.55974e-10
-1.60601e-10
-1.59479e-10
-1.71522e-10
-1.93505e-10
-2.04683e-10
1.80365e-10
-1.66307e-12
-8.09328e-11
-9.55432e-11
-1.16178e-10
-1.34489e-10
-1.48353e-10
-1.58313e-10
-1.63586e-10
-1.62492e-10
-1.49923e-10
-1.22788e-10
-8.29741e-11
-1.13134e-10
-1.51555e-10
-1.60504e-10
-1.69995e-10
-1.89646e-10
-1.98445e-10
2.25136e-10
5.22499e-11
-9.03338e-11
-1.03431e-10
-1.18126e-10
-1.35651e-10
-1.49322e-10
-1.58896e-10
-1.63729e-10
-1.58784e-10
-1.3411e-10
-8.21102e-11
-3.3324e-11
-5.22331e-11
-1.31631e-10
-1.60814e-10
-1.69926e-10
-1.88525e-10
-1.5682e-10
2.33281e-10
9.09687e-11
-7.4944e-11
-1.10981e-10
-1.23046e-10
-1.36783e-10
-1.50406e-10
-1.59707e-10
-1.63742e-10
-1.52907e-10
-1.1541e-10
-4.12104e-11
-1.04249e-11
-5.71394e-11
-1.15641e-10
-1.55159e-10
-1.68927e-10
-1.88317e-10
-1.4845e-10
2.1216e-10
8.3896e-11
-5.40185e-11
-1.07441e-10
-1.30165e-10
-1.39144e-10
-1.51416e-10
-1.60793e-10
-1.6271e-10
-1.42915e-10
-9.93912e-11
-7.8777e-12
1.97789e-12
-6.01318e-11
-1.14977e-10
-1.48486e-10
-1.66556e-10
-1.87477e-10
-1.56946e-10
1.86552e-10
5.45368e-11
-5.62684e-11
-9.67445e-11
-1.33841e-10
-1.43914e-10
-1.52915e-10
-1.61635e-10
-1.56102e-10
-1.18761e-10
-7.98278e-11
1.72541e-11
1.17573e-11
-5.63147e-11
-1.27855e-10
-1.5202e-10
-1.63367e-10
-1.86114e-10
-1.64245e-10
1.64516e-10
2.07491e-11
-8.42935e-11
-9.54035e-11
-1.31039e-10
-1.48236e-10