/*--------------------------------*- C++ -*----------------------------------*\
| =========                 |                                                 |
| \\      /  F ield         | OpenFOAM: The Open Source CFD Toolbox           |
|  \\    /   O peration     | Version:  4.1                                   |
|   \\  /    A nd           | Web:      www.OpenFOAM.org                      |
|    \\/     M anipulation  |                                                 |
\*---------------------------------------------------------------------------*/
FoamFile
{
    version     2.0;
    format      ascii;
    class       volScalarField;
    location    "15";
    object      p;
}
// * * * * * * * * * * * * * * * * * * * * * * * * * * * * * * * * * * * * * //

dimensions      [0 2 -2 0 0 0 0];

internalField   nonuniform List<scalar> 
1280
(
-151.373
-72.8693
-114.735
-264.863
-117.274
-220.846
-354.528
-380.691
-306.144
-370.969
-610.322
-460.441
-569.343
-921.777
-704.36
-935.605
-1375.74
-1588.91
-1117.15
-3641.05
-1220.19
720.897
1245.36
1735.5
1881.77
2632.03
-505.996
186.818
335.513
451.124
476.104
499.309
556.625
677.514
924.106
1260.91
1832.61
2321.55
3027.78
2831.36
-2730.79
567.553
1211.3
1317.59
3378.53
2866.74
2818.24
2841.62
2815.21
3152.93
3141.02
2921.03
3314.31
3375.35
3352.14
3641.68
2747.17
2562.47
2311.54
1861.07
3268.3
3046.82
2452.74
2036.47
1747.57
1557.5
1480.18
1460.14
1496.26
1537.44
1542.12
1573.67
1508.89
-1620.51
4290.57
3288.22
3058
2318.48
1518.49
-406.35
-2768.36
-617.749
-772.262
-496.949
-352.495
-103.512
-133.539
-46.381
37.1259
36.6285
57.4296
88.802
95.0462
91.9572
93.6532
89.2364
77.6357
62.0909
31.3138
29.134
-86.9744
-126.567
-85.4453
-82.9438
-14.1808
59.0517
170.429
211.912
11.8828
44.1176
-1.36018
-165.495
-232.525
-357.721
-88.7589
70.1735
86.7095
33.4676
22.079
-53.8811
-40.1058
-37.6661
16.85
131.048
266.74
473.514
646.788
189.709
250.605
73.1836
-347.902
-538.495
-685.844
-181.249
85.3227
160.583
71.0271
55.8239
-29.9693
-18.0857
-15.0347
47.2663
177.84
340.418
602.27
908.827
358.481
348.448
113.243
-468.41
-722.754
-873.782
-203.636
180.215
277.166
106.994
83.7841
-28.293
-35.9345
-10.3078
60.601
219.579
421.261
744.234
1165.9
543.264
474.761
147.583
-467.2
-819.273
-953.355
-228.519
291.459
427.518
164.566
102.915
-34.317
-61.9888
-7.02488
73.5771
259.335
496.792
871.01
1320.89
707.126
598.626
306.877
-430.086
-900.241
-967.351
-250.187
404.135
562.47
180.408
102.638
-47.5651
-106.245
-14.2318
73.5165
281.418
549.08
985.665
1370.72
835.634
486.67
666.072
-74.1756
-856.492
-933.271
-265.914
556.35
767.26
288.466
48.0833
-64.022
-163.711
-32.5082
61.1829
287.444
576.972
1097.33
1346.48
890.7
302.838
593.581
263.057
-789.386
-876.184
-305.883
639.29
783.528
221.534
-85.9443
-77.0659
-225.502
-60.1486
37.8667
276.525
580.509
1174.71
1281.35
943.132
439.852
351.425
73.684
-649.784
-811.073
-322.638
930.388
1164.42
414.681
477.453
-85.3962
-284.095
-96.1153
3.54629
244.645
533.53
1029.3
1067.26
713.16
323.05
352.824
145.098
-415.629
-567.088
-298.707
580.297
1015.45
1510.79
4629.83
-91.577
-331.466
-137.752
-38.3205
195.083
459.214
841.268
840.209
374.151
112.997
184.36
123.035
-166.678
-226.517
-56.3016
466.902
725.886
1008.65
3521.52
-100.632
-359.974
-180.88
-81.0741
134.732
370.346
647.366
555.9
-18.9487
-76.0777
179.138
177.086
56.0371
31.3331
105.31
311.43
579.529
1118.83
3952.77
-122.598
-361.764
-222.945
-120.652
67.9858
273.818
461.444
257.589
-309.93
-214.607
221.793
256.763
208.116
223.632
253.364
184.84
120.24
417.578
4056.87
-172.998
-325.148
-254.51
-148.297
3.95424
180.724
302.856
3.41746
-333.05
-240.623
268.462
299.034
255.096
277.097
275.962
-91.1284
-462.095
-375.068
789.204
-238.14
-241.484
-271.563
-168.777
-57.0161
96.4144
177.4
-199.469
-229.22
-224.866
261.389
282.98
248.354
237.083
113.987
-352.49
-559.188
-603.238
335.001
-279.047
-120.919
-247.341
-159.998
-92.3338
39.1391
94.5531
-323.643
-241.521
-176.119
235.239
231.701
182.934
122.372
-7.22534
-321.3
-480.602
-498.428
116
-270.205
0.449883
-183.695
-113.7
-79.4226
28.7327
40.2213
-219.428
-343.859
-78.6194
207.739
209.166
140.175
67.9111
-56.6344
-280.602
-384.447
-408.958
45.1485
-236.453
78.4415
-90.4171
-11.9046
13.6698
69.9831
-16.6021
-21.5942
-344.541
-41.3843
169.249
199.618
133.253
53.3774
-60.001
-200.625
-240.162
-279.627
7.05875
-170.313
108.242
-42.5227
10.3473
30.0122
33.781
-81.7569
-73.2639
-181.78
-24.9535
136.144
177.137
95.3996
37.4086
-41.8649
-120.886
-155.947
-200.483
-32.8096
-121.199
64.2705
6.58711
72.3784
85.6597
26.6109
-1.83937
-123.613
-131.315
-15.9435
102.27
131.236
49.1057
22.8814
-19.139
-62.314
-92.5363
-127.162
-38.2181
-24.983
46.4698
-17.2355
-40.2089
-61.8121
-64.3334
-4.564
-46.7014
-76.6963
-22.7662
39.9971
54.3741
11.5668
5.03165
-4.0254
-19.6175
-35.206
-68.4424
-0.377017
10123.3
10031.9
9879.63
9664.24
9404.28
9131.98
8843.7
8530.3
8215.22
7945.08
7710.56
7514.43
7348.03
7202.34
7074.46
6966.43
6912.51
6844.76
6879.99
6738.71
6827.84
6960.04
6983.55
7070.52
7096.47
7144.9
7166.65
7191.05
7213.98
7243.32
7274.08
7291.25
7276.86
7217.95
7132.19
7038.19
7010.8
7000.57
7066.05
7027.73
6816.38
6963.37
7001.17
7117.52
7164.05
7233.64
7275.13
7315.04
7342.58
7366.36
7393.5
7434.13
7497
7578.53
7678.92
7786.32
7901.16
8009.2
8090.52
8152.93
4436.18
4639.05
4695.79
4841.16
4932.45
5043.7
5144.17
5244.11
5342.17
5437.48
5531.51
5625.02
5719.87
5820.7
5928.18
6051.02
6174.77
6319.74
6421.87
6570.18
3258.91
3474.82
3543.92
3690.83
3801.84
3923.24
4043.8
4159.93
4276.12
4387.94
4496.69
4602.32
4703.5
4803.43
4897.67
4995.97
5083.63
5190.47
5260.16
5376.04
726.21
955.312
1054.37
1192.88
1337.15
1476.1
1638.41
1794.96
1967.88
2144.6
2331.48
2526.68
2727.96
2937.07
3143.69
3354.76
3545.08
3747.67
3890.68
4138.78
-1552.53
-1609.53
-1595.79
-1675.93
-1707.17
-1793.79
-1852.06
-1945.96
-2014.84
-2080.6
-2111.78
-2107.72
-2054.49
-1939.53
-1763.3
-1513.76
-1237.81
-921.337
-700.622
-327.213
-312.316
-727.867
-790.059
-1048.07
-1236.33
-1508.79
-1761.67
-2059.24
-2333.41
-2618.06
-2886.91
-3154.7
-3408.26
-3639.11
-3828
-3961.05
-4017.12
-3977.69
-3961.99
-3739.79
4112.71
3622.14
3474.56
3142.07
2903.71
2571.21
2280.03
1946.32
1659.12
1380.21
1158.94
978.085
861.852
803.626
807.666
842.254
862.69
885.697
813.836
512.389
8424.44
8318.15
8312.64
8240.25
8256.93
8182.4
8174.75
8080.72
8004.38
7854.85
7671.34
7407.28
7065.36
6637.01
6179.99
5777.98
5491.04
5364.13
5375.47
5063.79
6743.22
6855.44
6915.45
6959.86
7083.66
7116.5
7242.32
7293.89
7387.4
7440.5
7502.43
7550.52
7595.47
7617.83
7597.7
7509.53
7396.39
7283.8
7274.1
7217.99
6085.57
6214.27
6316.26
6334.68
6494.15
6504.63
6638.95
6677.09
6766.63
6811.03
6857.18
6880.76
6898.69
6923.9
6976.7
7060.86
7159.43
7261.58
7333.38
7407.88
4184.33
4313.71
4479.76
4478.3
4699.75
4707.04
4887.41
4949.95
5083.39
5180.94
5293.21
5399.58
5504.4
5608.55
5709.29
5816.5
5918.68
6039.86
6125.63
6248.18
2435.8
2500.7
2712.16
2662.54
2924.15
2899.7
3111.13
3164.63
3324.12
3434.35
3576.07
3714.19
3860.39
4014.52
4170.43
4338.06
4495.33
4674.04
4795.07
5002.14
403.248
303.699
496.226
325.747
532.004
386.758
520.7
452.65
513.704
500.778
526.538
537.745
559.895
597.81
658.591
775.234
916.702
1132.01
1302.09
1570.37
675.53
354.461
436.829
103.854
173.383
-102.234
-118.662
-313.573
-397.824
-548.77
-665.244
-798.908
-918.542
-1021.62
-1094.29
-1131.17
-1163.63
-1139.81
-1129.57
-982.596
4327.17
3889.26
3964.05
3396.88
3376.26
2936.77
2768.87
2446.26
2222.3
1961.95
1740.04
1522.9
1335.6
1178.52
1062.88
970.353
884.272
768.145
594.101
504.472
6098.28
5657.56
6236.64
5662.57
5873.92
5552.05
5489.02
5264.84
5101.91
4898.71
4709.25
4517.09
4341.14
4192.02
4084.95
4007.95
3946.23
3911.11
3870.67
3782.3
4484.88
2864.04
3642.64
2727.61
2691.41
2197.16
1927.07
1579
1305.63
1051.81
853.033
705.886
626.295
623.474
713.28
900.853
1152.65
1486.85
1915.09
2171.38
56840.2
50364.9
46926.6
42621.6
39032
35485.5
32223.8
29125.7
26213.6
23455.4
20840.3
18351.9
15976
13697.6
11521.4
9422.62
7323.84
5507.49
3747.63
844.918
66579.2
60103.4
56664.9
52359.8
48770.3
45224
41962.8
38865.4
35954.4
33197.5
30584.1
28097.6
25724
23447.9
21274.1
19177.7
17081.1
15266.1
13506.9
10606.4
14215.1
12594.4
13372.3
12456.8
12419.6
11924.3
11652.9
11303.5
11028.7
10773.3
10573.1
10424.6
10343.9
10340.3
10429.7
10617.3
10869.8
11205.3
11637.9
11898.1
15867.3
15427.5
16006.9
15433.4
15645.5
15324.4
15262.3
15039.1
14877.2
14675.1
14486.8
14295.8
14121.2
13973.5
13867.4
13791.3
13730.3
13694.7
13654.9
13570.4
14129.4
13693.7
13769.1
13203.9
13185.5
12748.6
12583.5
12264.1
12043.4
11786.6
11568.2
11354.7
11170.8
11016.3
10901.6
10807.9
10719.6
10600.4
10418.7
10313.1
10473.9
10148.5
10228
9890.61
9955.3
9674.64
9651.96
9450.37
9358.45
9198.76
9072.62
8928
8796.42
8680.75
8595.62
8546.14
8503.96
8519.11
8521.55
8666
10086.2
9987.12
10176.8
10006.9
10206.9
10055.9
10182
10105.4
10158.1
10136.3
10154.3
10157.8
10173.5
10206.5
10264.9
10382
10525.9
10743.2
10910.8
11179.8
12312.3
12422.3
12620.2
12499.7
12746.8
12674.1
12864.6
12890.4
13033.6
13130.5
13259.8
13389.2
13529.4
13679.6
13832.8
13998.6
14154.6
14331.2
14452
14655.3
14362.7
14491.3
14676.4
14546.5
14677.3
14628.6
14709.3
14728
14809.9
14880.9
14972.7
15062.1
15157.4
15251.2
15339.8
15433.4
15520.5
15622.1
15691.6
15788.4
15847.1
15982.5
16014.3
15990
15996.4
15988.8
16004.4
16021.9
16061.2
16112.4
16175.7
16226.9
16248.7
16255
16279.8
16333.1
16395.2
16462.2
16506
16554.7
16136.3
16177.2
16144.7
16146.1
16142.9
16157.7
16179.4
16214.2
16257.1
16300.9
16335.4
16374.6
16411.3
16448.4
16477.5
16477.3
16454.6
16429.3
16443.8
16434.8
16825.8
16744.8
16719.3
16735.2
16781.3
16843.8
16907.4
16971.7
16993.9
16966.8
16919.2
16823.3
16681.5
16493.9
16281.2
16092.8
15968.3
15926.1
15953.2
15788.6
14986.2
14716.9
14654
14556.4
14473.3
14357.7
14199.8
13982.3
13710.3
13434.2
13167.9
12936.5
12801.7
12738.5
12742.1
12797.6
12885.8
12968.7
12960.6
12824.2
11873.1
11702.3
11686
11599.3
11508.7
11384.2
11233.9
11099.9
10995
10907.6
10852.4
10839.8
10832.6
10812.3
10775.9
10735.2
10703.5
10702.2
10695.6
10903.1
12540.5
12648.8
12712
12749.6
12770.3
12782.9
12792.5
12816
12865.7
12908.2
12918.3
12923.3
12918.9
12924.4
12944.1
13013.2
13121.2
13344.2
13556.9
13876.8
14545.6
14762.3
14844.1
14961.3
15060.1
15171.1
15295.5
15433.1
15577.4
15723.4
15870.7
16025.5
16182.9
16350
16520.2
16706.6
16883.5
17080.2
17211
17403.2
16735.5
16898.7
16950.3
17041.7
17111.5
17192.4
17278.9
17372.5
17466.9
17560.4
17652.3
17741.1
17823.4
17901.6
17975.4
18057.1
18136
18231.7
18290.9
18372.3
17558.4
17753.4
17828.2
17973.1
18089.6
18215
18333.8
18439.5
18509.7
18536.1
18513.6
18442.3
18339.3
18241.1
18205.4
18251.5
18352.8
18452
18519.4
18528
20194.3
20213.5
20152.7
20123.6
20037.6
19947
19829.1
19687
19509.6
19309.2
19099.7
18899.4
18726.6
18598.4
18512.3
18421.7
18307.1
18111.8
18031.3
17779
17657.4
17513.2
17440.4
17276.6
17128.9
16938
16734.2
16494.9
16228.3
15920.1
15564.3
15146.9
14669.1
14149.8
13637
13203
12887.2
12676.9
12644.5
12284.6
18727
18398.9
18153
17652.4
17138
16547.3
15923.3
15235.7
14512.7
13829.6
13187.5
12612.2
12129.9
11759.6
11489.9
11270.9
11041.7
10814.2
10637.8
10319.3
)
;

boundaryField
{
    outletWall
    {
        type            fixedValue;
        value           uniform 0;
    }
    fineWalls
    {
        type            zeroGradient;
    }
    fineFrontAndBack
    {
        type            zeroGradient;
    }
    fineplugLeft
    {
        type            cyclicAMI;
        value           nonuniform List<scalar> 
20
(
5957.24
6109.55
5940.12
5896.53
5825.32
5844.39
5897.38
5989.75
6111.4
6263.67
6446.29
6639.28
6861.6
7780.57
7831.99
7899.78
8078.49
8152.78
8169.68
7854.58
)
;
    }
    fineplugRight
    {
        type            cyclicAMI;
        value           nonuniform List<scalar> 
20
(
8909.13
9119.56
9141.92
9240.64
9366.27
9503.45
9703.71
9995.96
10389
10857.5
11372.1
11924.9
12490.3
13928.4
14095.9
14368
14733.5
14986.1
15022.8
14900.3
)
;
    }
    inletOutletLeft
    {
        type            cyclicAMI;
        value           nonuniform List<scalar> 
20
(
5957.24
6109.55
5940.12
5896.53
5825.32
5844.39
5897.38
5989.75
6111.4
6263.67
6446.29
6639.28
6861.6
7780.57
7831.99
7899.78
8078.49
8152.78
8169.68
7854.58
)
;
    }
    inletLeft
    {
        type            zeroGradient;
    }
    inletWallsLeft
    {
        type            zeroGradient;
    }
    inletFacesLeft
    {
        type            zeroGradient;
    }
    inletOutletRight
    {
        type            cyclicAMI;
        value           nonuniform List<scalar> 
20
(
8909.13
9119.56
9141.92
9240.64
9366.27
9503.45
9703.71
9995.96
10389
10857.5
11372.1
11924.9
12490.3
13928.4
14095.9
14368
14733.5
14986.1
15022.8
14900.3
)
;
    }
    inletRight
    {
        type            zeroGradient;
    }
    inletWallsRight
    {
        type            zeroGradient;
    }
    inletFacesRight
    {
        type            zeroGradient;
    }
}


// ************************************************************************* //
