/*--------------------------------*- C++ -*----------------------------------*\
| =========                 |                                                 |
| \\      /  F ield         | OpenFOAM: The Open Source CFD Toolbox           |
|  \\    /   O peration     | Version:  4.1                                   |
|   \\  /    A nd           | Web:      www.OpenFOAM.org                      |
|    \\/     M anipulation  |                                                 |
\*---------------------------------------------------------------------------*/
FoamFile
{
    version     2.0;
    format      ascii;
    class       volScalarField;
    location    "16";
    object      p;
}
// * * * * * * * * * * * * * * * * * * * * * * * * * * * * * * * * * * * * * //

dimensions      [0 2 -2 0 0 0 0];

internalField   nonuniform List<scalar> 
1280
(
1.63876
0.189328
1.83191
4.39732
6.24767
6.751
7.32875
8.63687
9.06846
9.6812
10.1357
9.81191
9.21776
8.88853
8.26022
5.19852
2.72585
0.49185
-9.43256
-15.8073
-17.0284
-1.7511
21.49
29.3305
29.3069
31.3119
1.92568
6.5763
7.13481
6.25213
5.11059
3.80366
2.23141
0.401385
-1.49975
-3.70775
-5.52448
-7.83902
-7.98821
-11.7005
-34.9545
-15.6668
-7.31102
-2.51643
11.3395
9.22934
9.83088
10.4928
11.1788
10.7593
10.9086
11.8186
11.0391
10.7799
10.3258
11.379
-2.28861
-5.9244
-12.7912
-37.6585
-13.5711
-9.91047
-9.74306
-7.42045
-5.57582
-3.32631
-1.37663
0.528923
2.21935
3.55789
4.77069
6.3346
5.26046
-20.961
24.0071
23.8655
26.3961
20.9301
-3.15896
-21.035
-21.2156
-12.1988
-13.9527
-13.2183
-4.43682
-4.35286
-1.08473
5.09367
5.71232
8.46857
11.0846
10.7835
10.1005
9.89858
10.3222
9.47643
3.85302
2.79823
1.12542
2.27843
-0.218102
-0.627316
-0.921376
-1.61444
-2.48345
-0.0241567
-5.23605
-3.4996
-4.08932
-2.88291
-0.79815
1.99397
5.54116
7.59038
3.31417
0.879837
-1.01086
-2.64599
-0.782854
-0.309877
-0.90299
-1.33676
-1.90359
-1.81762
0.679792
-8.07922
-4.78415
-4.87697
-1.37143
3.36774
9.11459
16.1489
20.6511
11.2902
5.30058
-2.8947
-9.65547
-4.7104
-0.548669
-1.39718
-2.40786
-3.84607
-4.46277
-1.96581
-10.1698
-5.47519
-5.08174
-0.670239
5.12534
12.2066
21.5473
30.059
20.3649
9.01139
-8.45866
-21.7689
-13.5394
-0.773437
-1.70378
-3.08287
-4.90676
-5.78538
-6.11767
-13.9185
-7.60533
-6.12273
-0.874707
6.10519
14.6488
26.6546
39.3962
30.2448
13.2792
-15.0404
-37.0445
-26.2459
-0.945897
-2.00368
-3.83085
-6.20086
-8.00406
-11.8918
-17.9159
-10.2086
-7.20873
-1.13575
7.04148
16.8998
31.2648
47.1759
37.6972
17.3766
-17.8453
-45.0464
-39.6042
-1.1419
-2.22161
-4.38219
-7.08281
-9.88128
-17.769
-21.3167
-12.8967
-8.19563
-1.55058
7.47426
18.1068
33.8878
50.7164
41.5054
20.5808
-16.5107
-46.0917
-38.108
-1.28511
-2.36001
-4.81062
-7.75153
-11.7169
-23.0787
-24.0337
-15.6272
-9.21631
-2.21197
7.31216
18.2089
34.731
49.1909
42.2547
22.838
-14.2532
-53.6669
-40.775
-1.42379
-2.38682
-5.02675
-8.01415
-13.1088
-26.8964
-25.6879
-18.0518
-10.2064
-3.03778
6.66711
17.3193
33.5209
43.4548
39.0591
22.9985
0.846403
-21.3161
-11.5972
-1.50369
-2.28229
-5.01634
-7.88864
-13.9819
-28.8448
-26.1506
-19.8169
-11.0848
-3.97053
5.61806
15.532
29.8883
35.4413
31.7825
20.2918
10.7508
15.647
39.9959
-1.53048
-2.03116
-4.74626
-7.34139
-14.1685
-28.8248
-25.5598
-20.6983
-11.8086
-4.95103
4.26167
13.1238
24.7251
26.2054
23.0665
17.2423
13.2126
16.1683
30.1566
-1.48396
-1.63775
-4.21845
-6.4203
-13.6405
-27.0946
-24.0785
-20.6631
-12.3203
-5.89146
2.73957
10.4755
19.2478
15.1903
12.4559
13.0318
18.5967
22.1452
29.8415
-1.38681
-1.13173
-3.46733
-5.19784
-12.4167
-24.1039
-21.9506
-19.8134
-12.5552
-6.71918
1.17829
7.84041
13.9298
4.58427
6.68075
12.0973
24.7836
25.6185
43.4631
-1.23871
-0.547022
-2.54944
-3.78784
-10.5952
-20.373
-19.4871
-18.3555
-12.4805
-7.35512
-0.241197
5.56426
10.0548
0.482199
4.93558
12.2136
25.4905
23.5243
12.0009
-1.08586
0.0187855
-1.5381
-2.3294
-8.35705
-16.3607
-16.7846
-16.4193
-12.0414
-7.77341
-1.4935
3.71741
7.4179
1.15681
1.81033
11.9605
21.2399
17.574
3.19476
-1.1234
0.395363
-0.542168
-0.947906
-5.92819
-12.6143
-14.1886
-14.3687
-11.3589
-7.93187
-2.3797
2.43056
5.34381
7.40065
0.712926
11.5621
18.3648
15.9538
8.5155
-1.21804
0.820044
0.36427
0.284697
-3.20909
-8.89005
-11.4124
-12.1789
-10.5254
-8.05821
-3.27431
1.32436
1.96986
8.32364
0.542166
9.88543
14.7867
12.635
9.73521
-1.07139
1.48031
1.11512
1.11604
-0.899457
-6.17895
-9.134
-10.362
-9.58562
-7.49119
-2.92575
1.25627
-1.19692
4.07987
1.3939
7.67683
11.5083
10.1376
7.97546
-0.352819
1.862
1.45309
1.42599
1.05992
-3.45814
-5.80608
-7.40179
-7.66901
-6.64247
-3.45282
-0.00390236
3.87013
0.85478
2.48629
5.92414
8.42294
7.38317
6.32395
0.0656588
1.51389
1.39108
1.18185
1.08277
-2.34702
-4.16232
-5.36212
-5.26721
-3.4506
0.283592
1.42295
5.10968
-0.626437
1.51523
3.56557
5.26764
4.80845
4.1439
0.194526
1.23382
1.11419
0.727612
1.04061
0.671205
0.632902
0.151207
-0.632156
-1.92602
-4.5529
-6.74943
-0.410115
-2.98902
-2.44258
-1.10513
1.21736
1.41567
1.56235
56.639
58.3901
58.9124
59.3493
58.6355
57.7877
56.4895
54.899
53.1649
51.624
50.192
48.888
47.7412
46.769
45.9691
45.3581
44.9081
44.6008
44.4146
44.1535
-1.02055
2.34932
5.7319
9.02511
11.7565
14.126
16.3266
18.2429
19.9844
21.5279
22.9322
24.2248
25.4175
26.5477
27.5943
28.6193
29.5253
30.4821
31.1399
32.0177
-6.02764
-4.33121
-1.96028
0.171022
2.09745
3.66718
5.29407
6.79294
8.26601
9.69761
11.1088
12.537
13.9958
15.5289
17.1113
18.8049
20.4718
22.2441
23.6034
25.467
-33.6518
-33.5083
-33.5009
-33.7792
-33.4296
-33.412
-33.0604
-32.8334
-32.4662
-32.0686
-31.5828
-30.9976
-30.2786
-29.3497
-28.1796
-26.5488
-24.454
-21.0559
-18.288
-14.5097
-37.1862
-42.5025
-44.8191
-48.164
-50.4845
-53.4316
-55.7257
-57.9852
-59.5868
-60.7733
-61.4259
-61.6472
-61.4602
-60.9609
-60.2522
-59.4055
-58.3805
-57.1304
-55.9457
-52.4368
9.96483
2.71137
-0.74933
-6.10477
-10.2793
-15.5334
-20.4308
-25.7028
-30.5352
-35.1482
-39.1624
-42.5701
-45.1563
-46.8397
-47.5142
-47.4699
-46.934
-45.6157
-45.8908
-46.5834
72.8625
69.6501
68.5444
66.2823
64.8833
62.822
61.2267
59.2411
57.3835
55.2383
52.9228
50.2039
47.0743
43.5924
40.121
36.9921
34.8715
34.9141
35.094
30.4997
77.1957
78.1925
78.473
78.4724
78.8841
78.4696
78.3056
77.3709
76.2737
74.6607
72.8028
70.6934
68.4836
66.2852
64.3195
62.8217
61.8991
61.2805
61.4043
59.9212
60.3383
62.664
64.2572
65.3256
67.3284
68.4213
70.2233
71.4861
72.81
73.72
74.248
74.2234
73.6295
72.5859
71.5175
70.9237
71.3051
72.2976
73.2319
73.502
39.3141
41.3756
43.1562
43.7272
45.8484
46.546
48.2248
49.3422
50.7097
52.0084
53.325
54.6522
55.9601
57.2441
58.4942
59.7796
61.0625
62.5641
63.7151
65.2059
14.0012
15.7927
18.1219
18.4629
21.1685
21.8261
23.9534
25.2194
26.9106
28.4339
29.9975
31.5591
33.1155
34.6979
36.279
37.9321
39.5259
41.3216
42.6907
44.6699
-12.8437
-12.6042
-10.146
-10.7568
-8.04123
-8.15697
-6.05809
-5.28043
-3.62917
-2.2829
-0.687986
0.963792
2.73298
4.6349
6.61385
8.76125
10.8832
13.3282
15.2882
18.4462
-29.8252
-32.2729
-30.8801
-33.3886
-32.2342
-34.4203
-34.0627
-35.5476
-35.8292
-36.7424
-37.1418
-37.4286
-37.2684
-36.6796
-35.63
-34.0606
-32.3047
-30.1237
-28.5345
-25.1719
-11.7019
-15.5656
-14.958
-18.6929
-18.6947
-22.0611
-23.0745
-26.0179
-27.9641
-30.7954
-33.328
-36.0711
-38.5903
-40.9258
-42.8505
-44.5308
-45.8897
-46.4246
-47.0416
-45.3982
18.248
15.1535
16.7911
13.4804
14.9563
12.5504
13.0291
11.6217
11.3505
10.4441
9.87605
9.16277
8.53877
7.87264
7.18237
6.14142
4.5059
2.77527
0.888816
-1.16153
27.9256
25.8069
28.4172
25.3324
28.18
26.5434
28.1668
27.995
28.9216
29.3596
30.0423
30.5907
31.1349
31.5966
31.9323
32.0104
31.7524
31.1723
30.7124
30.0791
32.0733
29.1185
32.2275
26.7887
28.2955
25.0597
24.62
22.9712
22.1946
21.3709
20.9245
20.6595
20.6172
20.7205
20.8646
20.9663
20.9337
21.1967
22.0659
23.5548
19.9078
13.4546
21.9209
15.3429
17.6954
14.7297
13.8439
11.7313
9.9247
7.87955
5.88208
3.88792
1.98218
0.203301
-1.38014
-2.54436
-3.11133
-2.33444
-1.12959
1.03335
34.2007
11.4961
19.5217
8.30719
5.42227
-1.3387
-6.39353
-11.7334
-16.3414
-20.4219
-23.7404
-26.2479
-27.85
-28.468
-28.0083
-26.5133
-23.9101
-20.2762
-17.1787
-14.7858
727.652
644.596
595.353
538.941
489.813
442.419
398.384
356.827
317.767
280.931
246.16
213.264
182.026
152.367
124.312
97.0372
70.9777
50.8183
27.559
-9.12215
722.199
639.143
589.899
533.487
484.359
436.965
392.929
351.372
312.312
275.475
240.705
207.808
176.571
146.911
118.857
91.5828
65.525
45.3684
22.1101
-14.5736
28.7419
6.03633
14.0615
2.84633
-0.0391279
-6.80074
-11.8562
-17.1967
-21.8052
-25.8863
-29.2054
-31.7133
-33.3158
-33.9342
-33.4747
-31.98
-29.3775
-25.7452
-22.6491
-20.2551
14.4353
7.9811
16.4464
9.86739
12.2185
9.25155
8.36432
6.25043
4.44244
2.39605
0.397383
-1.59796
-3.50501
-5.28544
-6.87074
-8.03685
-8.60454
-7.82655
-6.6215
-4.45679
26.6131
23.6598
26.7683
21.3303
22.8372
19.6019
19.1625
17.5139
16.7376
15.9134
15.466
15.2
15.1561
15.2576
15.3997
15.5002
15.4691
15.7369
16.6114
18.1079
22.5013
20.3879
22.9996
19.9179
22.7681
21.134
22.7606
22.592
23.5223
23.9643
24.6516
25.2051
25.755
26.2227
26.5648
26.65
26.3981
25.8236
25.3705
24.7428
12.9355
9.84552
11.4847
8.17697
9.65721
7.25474
7.73839
6.33516
6.06862
5.16651
4.60203
3.89128
3.26814
2.60051
1.90532
0.856275
-0.788791
-2.53158
-4.4355
-6.50347
-17.061
-20.931
-20.3285
-24.0701
-24.0786
-27.4524
-28.4737
-31.4257
-33.3808
-36.2217
-38.7639
-41.5167
-44.0452
-46.3902
-48.3234
-50.0098
-51.3718
-51.9103
-52.5349
-50.896
-35.3038
-37.7614
-36.3751
-38.8896
-37.7428
-39.9351
-39.5846
-41.0761
-41.3638
-42.2832
-42.6874
-42.9785
-42.8215
-42.2359
-41.1891
-39.6231
-37.8714
-35.6949
-34.1078
-30.7445
-18.3923
-18.1589
-15.7027
-16.3166
-13.6037
-13.7226
-11.626
-10.8515
-9.2025
-7.85911
-6.26659
-4.61728
-2.8503
-0.950351
1.0269
3.17299
5.29392
7.73925
9.69994
12.8589
8.45958
10.2483
12.5774
12.917
15.6223
16.2787
18.4057
19.6708
21.3617
22.8845
24.4478
26.0092
27.5655
29.1479
30.729
32.3822
33.9762
35.7724
37.142
39.1235
33.7599
35.8225
37.6048
38.1766
40.2993
40.9979
42.6781
43.7967
45.1656
46.4655
47.7832
49.111
50.4192
51.7036
52.9545
54.2414
55.5262
57.0305
58.1842
59.6784
54.856
57.1802
58.7726
59.8388
61.8399
62.9298
64.7283
65.9871
67.3064
68.2124
68.7372
68.7126
68.1242
67.0921
66.0394
65.4624
65.8577
66.8585
67.7948
68.0701
71.6264
72.6262
72.9059
72.9066
73.3192
72.9078
72.7487
71.8224
70.7367
69.1399
67.3024
65.2181
63.0369
60.8687
58.932
57.4592
56.5514
55.9341
56.0556
54.5797
67.542
64.3469
63.2506
61.0033
59.6171
57.57
55.9885
54.0157
52.1686
50.0304
47.7169
44.9944
41.8558
38.3588
34.8665
31.7149
29.5733
29.5991
29.7782
25.1897
4.78079
-2.4639
-5.92944
-11.2814
-15.4544
-20.7054
-25.6006
-30.8695
-35.6981
-40.3058
-44.3134
-47.7135
-50.2916
-51.9655
-52.6303
-52.5737
-52.0233
-50.7226
-51.0065
-51.7171
-42.237
-47.5656
-49.9186
-53.2875
-55.6314
-58.5991
-60.9137
-63.1918
-64.8114
-66.015
-66.6846
-66.9238
-66.756
-66.2762
-65.587
-64.7589
-63.7548
-62.5192
-61.3447
-57.8461
-38.8008
-38.6871
-38.7701
-39.0985
-38.7903
-38.8056
-38.4818
-38.2756
-37.9242
-37.5369
-37.0563
-36.4718
-35.7495
-34.8136
-33.6334
-31.9897
-29.8809
-26.4899
-23.7228
-19.9456
-11.4777
-9.9055
-7.57128
-5.42393
-3.49104
-1.91126
-0.27151
1.24644
2.74385
4.20444
5.64714
7.10753
8.59809
10.1609
11.7704
13.4865
15.1719
16.9552
18.3212
20.1864
-8.53326
-5.10379
-1.35054
2.24137
5.19161
7.72613
10.0559
12.0914
13.9486
15.5975
17.094
18.467
19.7291
20.9174
22.0118
23.0741
24.0082
24.9832
25.6519
26.5387
51.5283
53.3984
54.1407
54.5534
53.6847
52.6111
51.0234
49.497
47.8898
46.4219
45.0481
43.7979
42.6942
41.7545
40.9806
40.3878
39.9547
39.6577
39.4825
39.2433
)
;

boundaryField
{
    outletWall
    {
        type            fixedValue;
        value           uniform 0;
    }
    fineWalls
    {
        type            zeroGradient;
    }
    fineFrontAndBack
    {
        type            zeroGradient;
    }
    fineplugLeft
    {
        type            cyclicAMI;
        value           nonuniform List<scalar> 
20
(
32.9827
33.934
34.1129
34.8216
35.545
36.4753
37.4955
38.6392
39.8711
41.1757
42.5496
43.9589
45.2345
50.2852
52.4926
52.7698
53.3455
51.4279
46.3619
41.9055
)
;
    }
    fineplugRight
    {
        type            cyclicAMI;
        value           nonuniform List<scalar> 
20
(
28.6804
29.6039
29.7776
30.4797
31.1951
32.1192
33.1283
34.2611
35.4822
36.7501
38.0916
39.5788
40.6497
42.8382
46.8903
47.7209
48.922
47.4986
42.0869
37.0157
)
;
    }
    inletOutletLeft
    {
        type            cyclicAMI;
        value           nonuniform List<scalar> 
20
(
32.9827
33.934
34.1129
34.8216
35.545
36.4753
37.4955
38.6392
39.8711
41.1757
42.5496
43.9589
45.2345
50.2852
52.4926
52.7698
53.3455
51.4279
46.3619
41.9055
)
;
    }
    inletLeft
    {
        type            zeroGradient;
    }
    inletWallsLeft
    {
        type            zeroGradient;
    }
    inletFacesLeft
    {
        type            zeroGradient;
    }
    inletOutletRight
    {
        type            cyclicAMI;
        value           nonuniform List<scalar> 
20
(
28.6804
29.6039
29.7776
30.4797
31.1951
32.1192
33.1283
34.2611
35.4822
36.7501
38.0916
39.5788
40.6497
42.8382
46.8903
47.7209
48.922
47.4986
42.0869
37.0157
)
;
    }
    inletRight
    {
        type            zeroGradient;
    }
    inletWallsRight
    {
        type            zeroGradient;
    }
    inletFacesRight
    {
        type            zeroGradient;
    }
}


// ************************************************************************* //
