/*--------------------------------*- C++ -*----------------------------------*\
| =========                 |                                                 |
| \\      /  F ield         | OpenFOAM: The Open Source CFD Toolbox           |
|  \\    /   O peration     | Version:  4.1                                   |
|   \\  /    A nd           | Web:      www.OpenFOAM.org                      |
|    \\/     M anipulation  |                                                 |
\*---------------------------------------------------------------------------*/
FoamFile
{
    version     2.0;
    format      ascii;
    class       surfaceScalarField;
    location    "16";
    object      phi;
}
// * * * * * * * * * * * * * * * * * * * * * * * * * * * * * * * * * * * * * //

dimensions      [0 3 -1 0 0 0 0];

internalField   nonuniform List<scalar> 
2360
(
-11434
-8156.13
-3277.9
-8156.13
-8156.13
-5167.05
-2989.09
-5167.05
-5167.05
-5167.05
-1958.58
-3208.47
-1958.58
-1958.58
1753.23
-3711.82
1753.23
1753.23
6423.36
-4670.13
6423.36
6423.36
12605.5
-6182.11
12605.5
12605.5
13066.3
14646.2
16466.7
18147.4
19632.4
20961.3
18067.1
4132.92
19213
20283.4
21281.8
22210.8
23072.9
23871.2
24608.3
25285.8
25905.9
26476.8
27016.7
27542.4
27972.6
12733.5
15239.2
12733.5
12733.5
12733.5
1375.97
11357.5
1375.97
1375.97
1375.97
-1032.55
2408.52
-1032.55
-1032.55
-743.342
-289.209
-743.346
-743.348
-743.35
-11721.6
10978.3
-11721.6
-11721.6
-11721.6
-28825.5
17103.9
-28399.9
-27876.8
-27338
-26766.9
-26146.2
-25468.2
-24731
-23932.8
-23070.8
-22142.2
-21144.4
-20074.8
-18928.7
-24060.2
6374.16
-22742.5
-21268.2
-19596.9
-17781.8
-16194.3
-15699.7
-15699.7
-15699.7
-13579.8
-2119.82
-13579.8
-13579.8
-9951.75
-3628.08
-9951.75
-9951.75
-4701.97
-5249.78
-4701.97
-4701.97
1711.28
-6413.25
1711.28
1711.28
1711.28
8183.64
-6472.36
8183.64
8183.64
13933.5
-5749.88
-7692.97
-5478.99
-7333.9
-8472.73
-6942.69
-11070.6
-6081.21
-13995.6
-4040.49
-13094.4
-1957.71
419.82
-1758.25
14842.3
-1552.86
19802.5
-1199.49
23279.3
-722.8
25720.6
-148.747
26428.2
505.647
24997.5
1278.84
20906.6
2388.91
12167.1
3791.64
-4108.38
5508.69
-9719.64
6638.87
-8985.71
6810.96
-3104.5
2497.94
-6664.61
-5674.2
-6364.61
-8772.74
-6110.54
-11324.7
-5523.11
-14583
-3903.89
-14713.6
-1745.72
-1738.35
-1678.6
14775.2
-1643.14
19767.1
-1318.62
22954.7
-883.671
25285.6
-350.062
25894.6
264.895
24382.5
1096.5
20075
2802.66
10460.9
4827.24
-6132.96
7290.75
-12183.1
9042.28
-10737.2
8709.73
-2771.94
4735.31
-6434.81
-5771.05
-6191.05
-9016.5
-5850.72
-11665
-5255.34
-15178.4
-3967.04
-16001.9
-1841.08
-3864.31
-1605.06
14539.2
-1784.88
19946.9
-1519.38
22689.2
-1124.03
24890.3
-660.921
25431.5
-126.194
23847.8
673.038
19275.8
2728.14
8405.83
5126.24
-8531.06
7584.26
-14641.2
9441.46
-12594.4
9113.88
-2444.37
7435.94
-6193.33
-5833.9
-5930.44
-9279.39
-5520.45
-12075
-4918.13
-15780.7
-3857.67
-17062.3
-2031
-5690.98
-1641.14
14149.3
-1901.45
20207.2
-1798.67
22586.5
-1433.64
24525.2
-1065.93
25063.8
-673.488
23455.3
-36.1114
18638.4
2296.17
6073.55
4250.82
-10485.7
5483.97
-15874.3
6908.9
-14019.4
7226.07
-2761.53
9412.22
-5945.74
-5880.33
-5664.45
-9560.69
-5221.31
-12518.2
-4646.11
-16355.9
-3854.34
-17854.1
-2468.56
-7076.76
-1841.65
13522.4
-2016.48
20382
-2131.57
22701.6
-1830.7
24224.4
-1558.1
24791.2
-1365.97
23263.2
-962.452
18234.9
977.761
4133.34
1091.81
-10599.8
471.167
-15253.7
1403.05
-14951.3
2970.79
-4329.27
8754.94
-5678.39
-5892.59
-5412.75
-9826.32
-4983.14
-12947.8
-4479.19
-16859.9
-3975.63
-18357.7
-3100.41
-7951.98
-2273.19
12695.2
-2202.68
20311.5
-2469.26
22968.1
-2309.97
24065.1
-2124.11
24605.3
-2146.47
23285.6
-1935.54
18024
-1598.22
3796.02
-3546.8
-8651.19
-4743.82
-14056.6
-3755.52
-15939.6
-1122.35
-6962.44
5512.77
-5360.19
-5849.29
-5155.12
-10031.4
-4785.84
-13317.1
-4411.04
-17234.7
-4253.16
-18515.6
-3910.39
-8294.74
-2966.57
11751.4
-2540.42
19885.4
-2794.23
23221.9
-2836.19
24107
-2752.86
24522
-2951.77
23484.5
-3152.13
18224.3
-4670.74
5314.63
-7496.52
-5825.41
-9028.68
-12524.5
-8867.97
-16100.3
-5689.33
-10141.1
6197.59
-4992.64
-5713.57
-4899.72
-10124.3
-4633.71
-13583.1
-4446.03
-17422.4
-4683.14
-18278.4
-4852.02
-8125.86
-3872.05
10771.4
-3084.9
19098.2
-3142.5
23279.5
-3361.28
24325.8
-3417.78
24578.5
-3733.02
23799.7
-4505.51
18996.8
-7134.36
7943.48
-10201.6
-2758.2
-12447.2
-10278.9
-14758.5
-13789
-16637
-8262.53
6664.43
-4563.78
-5459.81
-4629.89
-10058.2
-4514.79
-13698.2
-4574.54
-17362.6
-5247.44
-17605.5
-5875.46
-7497.84
-4914.64
9810.58
-3843.98
18027.6
-3579.82
23015.4
-3857.03
24603
-4072.27
24793.7
-4453.29
24180.7
-5612.67
20156.2
-8550.51
10881.3
-11220.3
-88.4554
-12642.2
-8856.94
-13590.8
-12840.4
-14052.9
-7800.5
3589.86
-4081.08
-5065.17
-4347.13
-9792.14
-4429.96
-13615.3
-4792.2
-17000.4
-5911.97
-16485.8
-6912.85
-6496.95
-6015.82
8913.55
-4772
16783.7
-4158.43
22401.8
-4336.64
24781.2
-4672.75
25129.9
-5085.02
24593
-6339.65
21410.8
-9172.23
13713.9
-11148.5
1887.85
-11382.2
-8623.29
-10494.7
-13727.8
-7134.06
-11161.2
-3833.41
-3574.04
-4520.49
-4061.25
-9304.93
-4380
-13296.6
-5090.21
-16290.1
-6637.59
-14938.4
-7900.03
-5234.51
-7094.54
8108.06
-5788.57
15477.8
-4888.52
21501.8
-4846.75
24739.5
-5209.39
25492.5
-5628.13
25011.7
-6786.25
22568.9
-8923.19
15850.8
-8880.52
1845.18
-8512.76
-8991.05
-10638.3
-11602.3
-10068.6
-11730.8
-11493.5
-3097.85
-3832.66
-3794.12
-8608.66
-4368.84
-12721.9
-5456.47
-15202.5
-7378
-13016.9
-8784.86
-3827.64
-8093
7416.2
-6826.3
14211.1
-5754.59
20430.1
-5447.59
24432.5
-5706.31
25751.2
-6079.88
25385.3
-6915.44
23404.5
-7207.36
16142.8
-3708.87
-1653.31
-2059.31
-10640.6
-6763.28
-6898.33
-12471.5
-6022.6
-12607.5
-2698.45
-3030.88
-3559.64
-7747.47
-4397.88
-11883.6
-5876.81
-13723.6
-8089.36
-10804.3
-9524.9
-2392.1
-8975.34
6866.64
-7850.6
13086.3
-6735.7
19315.2
-6172.54
23869.3
-6198.66
25777.3
-6516.25
25702.9
-7005.27
23893.5
-5411.15
14548.6
-1540.82
-5523.65
207.869
-12389.3
-1331.18
-5359.28
-7906.37
552.587
-5274.73
-2353.61
-2134.85
-3348.89
-6752.18
-4465.33
-10767.2
-6338.92
-11850
-8745.78
-8397.46
-10086.7
-1051.14
-9674.07
6453.96
-8771.32
12183.6
-7723.59
18267.4
-6961.6
23107.3
-6767.08
25582.8
-7150.74
26086.6
-7141.02
23883.8
-3255.73
10663.3
123.221
-8902.6
391.451
-12657.5
2382.85
-7350.68
4039.2
-1103.76
2897.4
-1949.48
-1022.38
-3123.47
-5578.18
-4563.62
-9327.06
-6830.08
-9583.54
-9350.28
-5877.27
-10497.5
96.1206
-10154.2
6110.67
-9464.98
11494.3
-8562.31
17364.8
-7787.53
22332.5
-7668.52
25463.8
-8236.87
26654.9
-7347.27
22994.2
-1996.99
5313.07
1183.88
-12083.5
1400.87
-12874.5
2409.42
-8359.22
4511.03
-3205.37
1226.31
-1298.93
495.698
-2830.87
-4046.24
-4673.2
-7484.73
-7328.76
-6927.98
-9950.86
-3255.17
-10925.5
1070.81
-10590.2
5775.35
-10023.1
10927.2
-9337.36
16679
-8886.63
21881.8
-9197.47
25774.6
-9571.89
27029.3
-6874.22
20296.5
-1139.19
-421.966
1204.68
-14427.3
1910.13
-13580
2938.46
-9387.56
4081.03
-4347.93
637.207
-155.856
2226.11
-2459.24
-1742.86
-4752.17
-5191.79
-7719.03
-3961.13
-10467.2
-507.041
-11519.2
2122.89
-11367.1
5623.2
-10970.5
10530.6
-10599.2
16307.7
-10633.2
21915.8
-11117.6
26259
-10219
26130.7
-4456.08
14533.6
813.654
-5691.7
1308.43
-14922.1
2240.9
-14512.4
3220.71
-10367.4
3804.84
-4932.06
730.23
730.08
3839.07
-2018.44
1005.67
-4728.62
-2481.62
-7731.17
-958.582
-10522.5
2284.31
-11931.2
3531.52
-12270.5
5962.53
-12241.6
10501.7
-12247.7
16313.8
-12554.4
22222.5
-12525.8
26230.4
-9788.93
23393.8
-2779.93
7524.65
1331.53
-9803.15
1672.42
-15263
2597.34
-15437.3
3371.96
-11142
3601.07
-5161.17
1122.84
1788.33
4903.17
-1318.43
4112.43
-4387.16
587.115
-6976.37
1630.62
-9957.74
5265.68
-12189.7
5763.44
-13354.7
7127.53
-13844.6
10991.7
-14113.5
16582.7
-14145
22254
-12729.8
24815.2
-7865.8
18529.9
-1645.77
1304.62
847.019
-12295.9
1811.16
-16227.2
2826.44
-16452.6
3418.49
-11734.1
3496.32
-5239
1630.07
1881
-792.961
-3477.74
-5000.02
-7328.1
-9938.2
-12057.2
-13346.1
-13854.4
-13310.5
-10638.4
-5176.66
-566.884
736.865
1926.83
2948.4
3411.62
3664.63
-180.226
-280.599
20.5773
-1780.7
284.173
-2084.06
492.123
-1888.7
649.215
-1642.06
777.18
-1456.89
861.611
-1323.13
935.445
-1219.72
991.958
-1126.91
1030.5
-1036.96
1049.69
-948.171
1048.3
-860.735
1025.37
-775.363
980.376
-692.08
913.773
-610.899
824.66
-530.994
708.679
-454.926
551.666
-382.817
330.532
-304.639
-99.6365
53.7475
-334.342
9.60198
-1736.55
43.6753
-2118.13
98.7934
-1943.81
163.15
-1706.41
237.599
-1531.34
322.465
-1407.99
404.425
-1301.68
476.314
-1198.8
533.761
-1094.4
574.358
-988.765
596.987
-883.36
601.442
-779.815
588.056
-678.69
557.646
-580.487
509.192
-482.537
438.214
-383.947
330.243
-274.846
172.951
-147.345
73.3151
356.355
-690.694
486.375
-1866.57
519.886
-2151.64
552.864
-1976.79
612.02
-1765.56
690.599
-1609.91
774.622
-1492.01
853.522
-1380.58
920.059
-1265.33
969.477
-1143.82
998.754
-1018.04
1005.39
-889.997
986.979
-761.399
941.059
-632.767
865.326
-504.752
757.347
-374.556
616.471
-243.069
441.351
-99.7235
223.727
70.2821
297.042
588.956
-1279.65
845.506
-2123.12
825.098
-2131.23
785.497
-1937.19
814.206
-1794.27
887.234
-1682.94
974.886
-1579.66
1054.15
-1459.84
1116.47
-1327.65
1158.58
-1185.93
1179.9
-1039.36
1178.31
-888.401
1150.32
-733.405
1090.6
-573.05
991.535
-405.687
837.72
-220.739
574.984
19.6687
362.976
112.288
172.825
260.436
469.867
495.752
-1775.4
583.072
-2210.43
457.298
-2005.46
375.881
-1855.77
365.269
-1783.66
382.369
-1700.04
399.004
-1596.29
397.182
-1458.01
375.303
-1305.77
334.891
-1145.52
277.303
-981.773
200.711
-811.807
103.877
-636.567
-11.7205
-457.448
-132.409
-284.989
-213.576
-139.55
-140.514
-53.3712
-173.925
145.708
-175.405
261.922
294.462
79.7455
-1855.15
-77.3183
-2053.37
-251.407
-1831.37
-385.133
-1722.05
-504.635
-1664.16
-624.665
-1580.01
-750.88
-1470.08
-884.26
-1324.64
-1022.33
-1167.7
-1163.22
-1004.63
-1306.5
-838.488
-1449.82
-668.492
-1584.9
-501.489
-1695.62
-346.723
-1760.24
-220.37
-1749.58
-150.207
-1651.33
-151.622
-1291.16
-214.461
-692.082
-337.154
-397.62
-220.562
-1634.58
-350.347
-1923.59
-470.092
-1711.62
-641.097
-1551.04
-842.968
-1462.29
-1060.43
-1362.55
-1276.86
-1253.65
-1483.44
-1118.05
-1678.02
-973.112
-1862.16
-820.486
-2034.14
-666.517
-2183.16
-519.464
-2285.72
-398.93
-2303.94
-328.501
-2197.03
-327.281
-1943.04
-404.198
-1533.64
-561.026
-975.015
-773.081
-386.317
-925.852
-783.936
-142.627
-1491.96
-119.68
-1946.54
-109.095
-1722.21
-156.856
-1503.28
-229.977
-1389.17
-317.773
-1274.76
-397.642
-1173.78
-455.396
-1060.3
-482.141
-946.368
-474.37
-828.258
-430.307
-710.581
-350.88
-598.893
-242.448
-507.364
-115.141
-455.812
21.2414
-463.666
154.395
-537.354
250.041
-656.673
257.205
-780.246
147.706
-816.353
-636.23
-1.16355
-1490.79
58.2342
-2005.93
125.324
-1789.3
177.684
-1555.64
226.523
-1438
272.027
-1320.26
321.684
-1223.44
383.645
-1122.26
464.919
-1027.64
572.203
-935.539
707.986
-846.364
868.142
-759.047
1034.69
-673.913
1173.54
-594.658
1239.24
-529.367
1191.5
-489.616
1015.1
-480.274
721.294
-486.44
365.981
-461.041
-270.249
88.1528
-1578.94
141.212
-2058.99
188.868
-1836.95
245.45
-1612.22
314.013
-1506.57
382.646
-1388.89
452.619
-1293.41
521.038
-1190.68
587.943
-1094.55
652.377
-999.974
713.887
-907.876
772.191
-817.351
826.011
-727.735
869.951
-638.598
891.109
-550.527
865.478
-463.985
767.338
-382.136
577.337
-296.44
307.862
-191.57
37.6129
158.908
-1737.85
187.003
-2087.09
218.186
-1868.14
268.711
-1662.75
335.518
-1573.37
397.555
-1450.93
463.56
-1359.42
528.085
-1255.2
593.959
-1160.42
656.037
-1062.05
710.092
-961.932
749.772
-857.031
769.897
-747.86
766.447
-635.148
736.631
-520.712
675.52
-402.875
575.026
-281.642
421.431
-142.847
215.81
14.0484
253.423
194.345
-1932.2
180.289
-2073.03
208.179
-1896.03
260.77
-1715.34
329.449
-1642.06
393.413
-1514.89
466.731
-1432.74
541.749
-1330.22
624.056
-1242.73
704.705
-1142.7
776.835
-1034.06
829.097
-909.295
854.005
-772.77
845.377
-626.522
798.669
-474.005
711.229
-315.437
580.888
-151.302
397.096
40.9431
197.492
213.65
450.915
143.03
-2075.23
81.5996
-2011.6
94.8009
-1909.23
124.629
-1745.17
165.671
-1683.1
206.965
-1556.19
260.104
-1485.88
318.588
-1388.71
386.027
-1310.17
450.519
-1207.2
503.536
-1087.08
534.498
-940.257
540.672
-778.945
516.05
-601.9
454.283
-412.24
361.003
-222.158
259.753
-50.0542
178.104
122.589
64.9376
326.815
515.853
14.2507
-2089.48
-70.1982
-1927.15
-105.07
-1874.36
-138.149
-1712.09
-168.078
-1653.17
-195.497
-1528.77
-219.857
-1461.52
-239.401
-1369.17
-255.848
-1293.72
-270.786
-1192.26
-286.258
-1071.61
-299.797
-926.72
-309.626
-769.12
-321.397
-590.132
-340.421
-393.22
-360.782
-201.802
-374.925
-35.9161
-386.4
134.061
-315.552
255.964
200.301
-58.5055
-2030.98
-130.828
-1854.83
-192.485
-1812.7
-265.144
-1639.43
-337.687
-1580.63
-415.51
-1450.95
-500.887
-1376.14
-591.244
-1278.81
-687.28
-1197.69
-778.303
-1101.24
-854.997
-994.919
-906.891
-874.827
-933.113
-742.899
-938.838
-584.408
-937.801
-394.259
-941.928
-197.677
-933.737
-44.1087
-814.716
15.0385
-448.672
-110.083
-248.371
-21.9984
-2008.98
-58.0422
-1818.79
-83.1891
-1787.56
-119.24
-1603.38
-154.784
-1545.08
-194.849
-1410.89
-242.324
-1328.67
-295.978
-1225.16
-355.134
-1138.53
-409.025
-1047.35
-446.133
-957.812
-457.66
-863.302
-439.068
-761.491
-381.1
-642.378
-279.419
-495.94
-150.089
-327.01
-21.0915
-173.11
84.8191
-90.8775
101.615
-126.884
-146.756
-5.90167
-2003.08
-29.521
-1795.17
-33.6298
-1783.45
-26.8821
-1610.13
-20.6103
-1551.36
-0.0245169
-1431.47
20.5791
-1349.27
48.7142
-1253.29
78.7816
-1168.6
114.658
-1083.23
157.813
-1000.97
211.499
-916.989
279.072
-829.066
369.193
-732.499
491.048
-617.798
627.653
-463.615
712.797
-258.256
628.785
-6.86662
366.843
135.055
220.088
-138.13
-1864.95
-291.37
-1641.93
-408.502
-1666.32
-481.713
-1536.92
-544.936
-1488.13
-573.314
-1403.09
-586.309
-1336.28
-575.935
-1263.67
-549.114
-1195.42
-505.424
-1126.92
-447.211
-1059.18
-373.844
-990.357
-284.422
-918.488
-179.277
-837.644
-63.6041
-733.472
51.2478
-578.468
137.318
-344.329
150.566
-20.1168
78.6401
206.979
298.728
-207.516
-1657.43
-453.316
-1396.13
-713.698
-1405.94
-929.622
-1321
-1135.81
-1281.95
-1307.52
-1231.38
-1455.08
-1188.72
-1573.41
-1145.34
-1665.37
-1103.47
-1730.64
-1061.65
-1769.93
-1019.89
-1782.72
-977.565
-1767.5
-933.714
-1719.82
-885.32
-1628.48
-824.814
-1468.25
-738.703
-1204.03
-608.55
-801.859
-422.283
-377.979
-216.901
-79.2507
-682.433
-1103.57
-1534.51
-1880.5
-2187.45
-2443.83
-2657.55
-2827.89
-2956.36
-3043.01
-3087.9
-3090.46
-3049.18
-2959.5
-2809.31
-2573.02
-2206.56
-1653.85
-895.749
-682.438
1657.44
-1103.58
1396.14
-1534.52
1405.95
-1880.53
1321.01
-2187.49
1281.96
-2443.89
1231.4
-2657.62
1188.73
-2827.97
1145.35
-2956.46
1103.48
-3043.13
1061.67
-3088.04
1019.91
-3090.63
977.592
-3049.38
933.745
-2959.73
885.349
-2809.55
824.821
-2573.2
738.655
-2206.63
608.43
-1653.79
422.158
-895.672
216.883
79.3283
-207.54
1864.98
-453.367
1641.97
-713.776
1666.36
-929.73
1536.96
-1135.95
1488.18
-1307.69
1403.14
-1455.29
1336.33
-1573.66
1263.72
-1665.65
1195.48
-1730.95
1126.97
-1770.27
1059.24
-1783.09
990.418
-1767.91
918.56
-1720.28
837.718
-1628.96
733.509
-1468.71
578.4
-1204.44
344.158
-802.257
19.9781
-378.291
-207.083
-298.963
-138.133
2003.11
-291.36
1795.2
-408.489
1783.49
-481.684
1610.16
-544.897
1551.39
-573.257
1431.5
-586.234
1349.31
-575.834
1253.32
-548.984
1168.63
-505.259
1083.25
-447.005
1000.98
-373.595
917.008
-284.136
829.102
-178.975
732.557
-63.3311
617.865
51.4133
463.656
137.353
258.219
150.494
6.83784
78.3765
-134.964
-220.586
-5.83682
2008.95
-29.369
1818.73
-33.4028
1787.52
-26.5484
1603.3
-20.1756
1545.02
0.540261
1410.79
21.2839
1328.56
49.5877
1225.02
79.8412
1138.37
115.909
1047.18
159.241
957.651
213.084
863.165
280.805
761.381
371.06
642.303
492.974
495.952
629.42
327.21
714.212
173.427
629.823
91.2276
367.242
127.618
146.655
-21.825
2030.77
-57.7349
1854.64
-82.7244
1812.51
-118.618
1639.2
-153.999
1580.4
-193.899
1450.69
-241.203
1375.87
-294.69
1278.51
-353.683
1197.37
-407.421
1100.92
-444.41
994.64
-455.858
874.614
-437.198
742.721
-379.139
584.244
-277.353
394.167
-147.897
197.754
-19.1618
44.6934
85.6302
-13.5628
102.879
110.371
249.534
-58.6012
2089.38
-130.934
1926.97
-192.644
1874.22
-265.404
1711.96
-338.037
1653.03
-415.995
1528.64
-501.52
1461.39
-592.063
1369.05
-688.294
1293.6
-779.497
1192.12
-856.33
1071.47
-908.326
926.61
-934.606
769.002
-940.316
589.953
-939.156
393.008
-942.979
201.577
-933.919
35.6333
-813.444
-134.037
-447.963
-255.11
-198.429
13.9591
2075.42
-70.5426
2011.47
-105.552
1909.23
-138.801
1745.21
-168.907
1683.14
-196.51
1556.25
-221.075
1485.96
-240.835
1388.81
-257.512
1310.27
-272.663
1207.27
-288.3
1087.11
-301.931
940.242
-311.812
778.883
-323.622
601.764
-342.692
412.078
-363.231
222.117
-377.854
50.2562
-389.124
-122.767
-317.147
-327.086
-515.576
142.85
1932.57
81.2838
2073.04
94.3808
1896.13
124.093
1715.49
164.999
1642.23
206.174
1515.07
259.185
1432.95
317.547
1330.45
384.847
1242.97
449.186
1142.93
502.042
1034.25
532.866
909.419
538.931
772.818
514.217
626.477
452.433
473.863
359.347
315.203
258.664
150.94
177.325
-41.4283
64.2721
-214.033
-451.304
194.413
1738.15
180.24
2087.21
208.09
1868.28
260.661
1662.92
329.319
1573.57
393.27
1451.12
466.588
1359.63
541.617
1255.42
623.943
1160.65
704.605
1062.27
776.73
962.128
828.973
857.177
853.852
747.939
845.184
635.146
798.429
520.618
710.954
402.678
580.563
281.332
396.721
142.414
197.306
-14.6175
-253.998
159.104
1579.05
187.122
2059.2
218.259
1837.15
268.775
1612.41
335.589
1506.76
397.631
1389.08
463.652
1293.61
528.201
1190.87
594.115
1094.73
656.24
1000.15
710.337
908.031
750.033
817.48
770.143
727.83
766.637
638.652
736.716
550.539
675.473
463.921
574.87
381.935
421.245
296.039
215.679
190.948
-38.3189
88.4009
1490.65
141.449
2006.15
189.054
1789.54
245.617
1555.84
314.188
1438.19
382.812
1320.46
452.775
1223.65
521.164
1122.48
588.02
1027.88
652.367
935.801
713.766
846.632
771.935
759.311
825.603
674.162
869.356
594.899
890.357
529.539
864.648
489.63
766.559
480.025
576.743
485.855
307.491
460.202
269.172
-0.994185
1491.64
58.3614
1946.79
125.412
1722.49
177.839
1503.42
226.815
1389.21
272.498
1274.77
322.333
1173.81
384.444
1060.37
465.837
946.485
573.179
828.458
708.879
710.932
868.733
599.456
1034.87
508.027
1173.38
456.384
1238.94
463.981
1191.24
537.335
1015.02
656.241
721.35
779.524
366.155
815.398
635.326
-142.1
1633.74
-118.749
1923.44
-107.646
1711.39
-154.797
1550.57
-227.268
1461.68
-314.378
1361.88
-393.561
1252.99
-450.619
1117.43
-476.633
972.499
-468.109
819.935
-423.407
666.23
-343.561
519.61
-234.885
399.35
-107.407
328.907
28.873
327.701
161.28
404.928
255.434
562.086
260.525
774.433
149.022
926.9
784.349
-220.47
1854.21
-349.965
2052.93
-469.338
1830.76
-640.07
1721.3
-841.75
1663.36
-1059.06
1579.19
-1275.31
1469.25
-1481.68
1323.8
-1675.99
1166.81
-1859.77
1003.71
-2031.26
837.719
-2179.68
668.028
-2281.58
501.255
-2299.28
346.606
-2192.11
220.534
-1938.09
150.906
-1529.04
153.034
-971.481
216.875
-384.736
340.155
399.613
80.0437
1774.17
-76.8805
2209.86
-251.121
2005
-385.015
1855.19
-504.687
1783.03
-624.953
1699.46
-751.448
1595.74
-885.15
1457.5
-1023.6
1305.26
-1164.9
1145.01
-1308.53
981.347
-1452.05
811.556
-1587.3
636.497
-1698.27
457.576
-1763.19
285.454
-1752.6
140.317
-1651.84
52.2748
-1290.96
-144.006
-691.261
-259.548
-291.648
497.962
1276.21
586.916
2120.91
461.113
2130.8
379.042
1937.27
367.922
1794.15
384.65
1682.73
400.929
1579.46
398.7
1459.73
376.341
1327.62
335.396
1185.95
277.304
1039.44
200.325
888.535
103.233
733.588
-12.4657
573.274
-132.947
405.932
-213.746
221.11
-145.161
-16.3164
-177.271
-111.899
-176.697
-260.124
-468.345
593.82
682.385
854.957
1859.77
834.934
2150.83
793.921
1978.28
821.309
1766.77
893.407
1610.63
980.348
1492.52
1058.99
1381.09
1120.69
1265.92
1162.14
1144.5
1182.76
1018.82
1180.44
890.857
1151.7
762.326
1091.23
633.742
991.407
505.757
836.91
375.606
576.412
244.181
363.598
100.914
172.561
-69.0877
-295.784
365.205
317.18
497.449
1727.52
529.377
2118.9
560.364
1947.29
618.12
1709.01
695.809
1532.94
779.117
1409.22
857.166
1303.04
922.804
1200.28
971.376
1095.93
999.897
990.295
1005.87
884.883
986.887
781.31
940.486
680.143
864.353
581.89
756.048
483.911
614.94
385.288
439.699
276.154
221.972
148.639
-73.812
45.2754
271.904
-3.23101
1776.03
32.0611
2083.6
88.8085
1890.55
153.572
1644.25
227.404
1459.11
311.225
1325.39
392.824
1221.44
465.038
1128.07
523.007
1037.96
564.099
949.203
587.147
861.835
591.926
776.531
578.736
693.333
548.421
612.205
500.075
532.257
429.54
455.823
322.823
382.871
168.066
303.396
94.2542
-222.78
-34.2393
234.261
453.493
623.458
764.87
847.62
922.983
981.426
1021.62
1042.17
1042.07
1020.37
976.457
910.695
822.226
706.974
551.023
331.374
)
;

boundaryField
{
    outletWall
    {
        type            calculated;
        value           nonuniform List<scalar> 
60
(
13933.5
-1436.87
2932.41
7855.53
8002.59
2705.66
-13277.2
-21679.8
-25651.8
-27002.3
-26197.2
-23632.6
-20007.9
-15041.8
-2502.6
11053.6
13134.1
10679.4
8113.66
5295.34
-2359
-2852.43
-2343.04
-1574.56
-219.152
837.002
1457.58
1896.67
2410.02
3029.36
3686.45
4310.02
4856.92
5316.88
5690.64
5992.18
6256.18
6531.66
6859.83
7876.61
11434
2016.79
-5492
-12197.3
-17474.2
-17417.1
-13599.7
-3305.15
13068.1
22143.1
21710.1
17091
12280.6
9246.52
8373.54
7593.76
3152.91
3271.89
6786.38
5381.18
)
;
    }
    fineWalls
    {
        type            calculated;
        value           uniform 0;
    }
    fineFrontAndBack
    {
        type            calculated;
        value           nonuniform List<scalar> 
960
(
-1.07629e-12
-1.35241e-11
-3.7296e-12
-6.02642e-12
-4.73438e-11
-1.06108e-11
-1.04172e-11
-8.62931e-12
-3.09499e-11
-2.48139e-12
-5.00988e-13
-2.0154e-12
2.14008e-12
3.88443e-12
6.14504e-12
1.21022e-12
1.41274e-12
-5.32354e-12
-1.46503e-12
-1.79489e-12
-2.66294e-13
-4.1597e-13
-4.33515e-13
-5.01274e-13
-5.36334e-13
-7.04038e-13
-1.52194e-11
-9.4309e-13
-1.00096e-12
-1.02955e-12
-1.01145e-12
-9.445e-13
-8.23218e-13
-6.22179e-13
-3.32924e-13
-3.53579e-15
2.69312e-13
3.34743e-13
2.75918e-13
-1.04703e-13
1.21197e-11
2.88227e-12
2.76604e-12
2.26743e-12
1.0714e-11
1.2064e-12
9.86193e-13
-1.83079e-13
2.67218e-11
4.11954e-12
3.38187e-13
3.3858e-12
-1.78427e-13
-8.29986e-13
-1.42289e-12
-1.42214e-11
-3.33832e-12
-3.56871e-12
-3.71958e-12
-1.28436e-11
3.12925e-13
-2.27338e-14
-3.18361e-14
2.29518e-14
2.62735e-13
5.54672e-13
8.16595e-13
1.00133e-12
1.10362e-12
1.15204e-12
1.17396e-12
1.17515e-12
1.15628e-12
2.45149e-11
1.15251e-12
1.12631e-12
1.19265e-12
1.28112e-12
1.41511e-12
1.39897e-12
8.51909e-12
8.44456e-12
4.6988e-11
7.93993e-12
7.76671e-12
4.04668e-11
6.91075e-12
6.28134e-12
2.80081e-11
4.6604e-12
6.62484e-12
4.12387e-11
9.08403e-12
9.30669e-12
9.64302e-12
4.30587e-11
7.49409e-12
7.64821e-12
3.71764e-11
9.77173e-12
-4.00051e-11
-5.24433e-11
-5.52914e-11
-5.58439e-11
-4.82462e-11
-2.61586e-11
-1.10876e-11
-7.00885e-13
4.89571e-12
6.02193e-12
5.62639e-12
4.86407e-12
4.04409e-12
1.32039e-11
2.12074e-11
2.8279e-11
3.20954e-11
3.71786e-11
3.57566e-11
-5.58517e-11
-6.22801e-11
-5.98117e-11
-5.65419e-11
-4.83849e-11
-2.94313e-11
-1.00315e-11
-3.28534e-13
4.96841e-12
6.02618e-12
5.61896e-12
4.86257e-12
3.99873e-12
1.25669e-11
1.7998e-11
2.49339e-11
2.92446e-11
3.42586e-11
3.05028e-11
-5.92987e-11
-5.99343e-11
-5.50331e-11
-5.04406e-11
-4.29194e-11
-2.79906e-11
-9.63106e-12
3.85071e-13
5.03786e-12
6.03287e-12
5.60478e-12
4.85578e-12
3.96415e-12
1.2007e-11
1.6583e-11
2.44407e-11
2.87854e-11
3.294e-11
3.0265e-11
-6.09023e-11
-5.64807e-11
-5.02947e-11
-4.534e-11
-3.84592e-11
-2.54479e-11
-9.96848e-12
1.01223e-12
5.22272e-12
6.01705e-12
5.58338e-12
4.80476e-12
3.9902e-12
1.17311e-11
1.98659e-11
2.61415e-11
2.64572e-11
2.92079e-11
3.18247e-11
-5.80637e-11
-4.9943e-11
-4.35336e-11
-3.93783e-11
-3.383e-11
-2.16575e-11
-9.61406e-12
8.43958e-13
5.63909e-12
5.96268e-12
5.54868e-12
4.69726e-12
4.17835e-12
1.18919e-11
2.71176e-11
2.56242e-11
1.89638e-11
2.08068e-11
2.83879e-11
-5.09588e-11
-4.04184e-11
-3.50194e-11
-3.3134e-11
-2.96644e-11
-1.7104e-11
-7.71907e-12
5.59479e-14
6.02306e-12
5.9491e-12
5.47629e-12
4.52282e-12
4.5297e-12
1.45816e-11
3.03348e-11
2.08311e-11
1.20032e-11
1.621e-11
2.02084e-11
-3.92941e-11
-2.78568e-11
-2.50988e-11
-2.69565e-11
-2.60597e-11
-1.18057e-11
-4.22472e-12
-2.67362e-13
5.93937e-12
6.08702e-12
5.35676e-12
4.33789e-12
5.61544e-12
1.99489e-11
2.94457e-11
1.93691e-11
7.75906e-12
1.14271e-11
4.56167e-11
-2.43449e-11
-1.3905e-11
-1.51556e-11
-2.14902e-11
-2.31932e-11
-6.07714e-12
1.24933e-12
6.90383e-13
5.44195e-12
6.26457e-12
5.03536e-12
3.90848e-12
7.2523e-12
2.40717e-11
3.20593e-11
2.24999e-11
7.1431e-12
-9.98927e-12
-1.02272e-11
-8.91251e-12
-8.64253e-13
-6.34166e-12
-1.68167e-11
-2.08194e-11
-2.31815e-13
6.9655e-12
3.01496e-12
5.16428e-12
6.24733e-12
5.07115e-12
5.19476e-12
1.0359e-11
3.0552e-11
3.05508e-11
2.25307e-11
1.34399e-11
-4.80683e-12
-2.78603e-11
4.04164e-12
9.79165e-12
9.92288e-13
-1.25924e-11
-1.81866e-11
5.51799e-12
3.74703e-11
4.06719e-12
5.92746e-12
6.2027e-12
3.92455e-12
-3.61701e-14
1.26446e-11
1.40847e-11
-1.05324e-11
6.99635e-12
7.24117e-12
1.9501e-11
1.02267e-11
1.27715e-11
1.74831e-11
6.81201e-12
-8.64013e-12
-1.34026e-11
-3.69743e-12
5.52315e-12
1.12686e-11
6.93204e-12
5.8853e-12
2.76031e-12
-1.13797e-13
1.28129e-11
4.94311e-12
-1.76967e-11
-2.18642e-11
-1.28917e-11
6.8309e-12
2.62444e-11
1.67689e-11
2.17196e-11
1.10885e-11
-5.64762e-12
-7.45818e-12
1.36394e-11
1.32918e-11
1.43167e-11
7.24874e-12
4.84735e-12
2.07015e-12
2.93551e-12
1.18272e-11
-1.25204e-12
-2.42474e-11
-2.54045e-11
-1.95622e-11
2.1147e-12
1.6083e-11
1.63144e-11
2.20926e-11
1.40215e-11
-2.26951e-12
-4.20122e-12
1.78603e-11
2.35275e-11
1.50653e-11
7.36783e-12
3.77317e-12
2.54257e-12
6.09225e-12
9.43305e-12
-6.65475e-12
-2.06009e-11
-1.26371e-11
-2.10274e-11
-5.23966e-12
8.50296e-12
1.21814e-11
1.88338e-11
1.56909e-11
1.00053e-12
-8.93588e-13
1.958e-11
2.56129e-11
1.75195e-11
9.61014e-12
5.16584e-12
5.1056e-12
8.56878e-12
5.71964e-12
-9.90513e-12
-1.01599e-11
-9.93172e-12
-2.04592e-11
-2.39132e-11
-3.1033e-11
4.04558e-12
1.27067e-11
1.66865e-11
4.00206e-12
9.26545e-13
1.73506e-11
2.34737e-11
1.9641e-11
1.39095e-11
9.53477e-12
8.73814e-12
8.89294e-12
1.3329e-12
-9.98508e-12
-3.19169e-13
-8.57466e-12
-2.05775e-11
-2.39567e-11
-3.78006e-11
-9.23609e-12
4.87319e-12
1.72772e-11
6.4491e-12
1.50467e-12
1.18039e-11
1.60632e-11
1.66465e-11
1.51917e-11
1.2251e-11
9.62976e-12
5.87065e-12
-2.36942e-12
-6.81753e-12
2.65781e-12
-9.043e-12
-2.20073e-11
-2.69228e-11
-4.55934e-11
-2.58201e-11
-2.9495e-12
1.76901e-11
8.05221e-12
1.35487e-12
6.49587e-12
7.28665e-12
8.34431e-12
9.63803e-12
8.59394e-12
5.37389e-12
6.89085e-13
-3.82386e-12
2.7911e-13
2.45876e-12
-1.10585e-11
-2.41287e-11
-3.0655e-11
-4.62793e-11
-3.3649e-11
-1.05899e-11
1.85441e-11
8.77786e-12
8.89543e-13
4.21694e-12
2.22026e-12
4.08039e-13
1.00341e-12
9.27878e-13
-1.11797e-12
-3.64075e-12
-3.13032e-12
3.80948e-12
2.24724e-12
-1.27912e-11
-2.62023e-11
-3.33375e-11
-2.43645e-11
-4.0111e-11
-2.43434e-11
2.04874e-11
9.19055e-12
1.04853e-12
6.04e-12
4.15352e-12
-1.31808e-12
-4.13075e-12
-5.0375e-12
-5.7177e-12
-5.21263e-12
-9.81261e-13
3.37098e-12
1.78044e-12
-1.4347e-11
-2.80168e-11
-3.25657e-11
-2.32157e-11
-5.05892e-11
-4.48628e-11
2.40787e-11
9.24113e-12
-4.80854e-12
-3.21781e-13
5.13983e-12
3.75879e-12
9.71815e-14
-2.54729e-12
-3.79177e-12
-2.76266e-12
1.55084e-12
3.2056e-12
1.3952e-12
-1.56798e-11
-2.93041e-11
-3.22858e-11
-3.86422e-11
1.07629e-12
1.35241e-11
3.7296e-12
6.02642e-12
4.73438e-11
1.06108e-11
1.04172e-11
8.62931e-12
3.09499e-11
2.48139e-12
5.00988e-13
2.0154e-12
-2.14008e-12
-3.88443e-12
-6.14504e-12
-1.21022e-12
-1.41274e-12
5.32354e-12
1.46503e-12
1.79489e-12
2.66294e-13
4.1597e-13
4.33515e-13
5.01274e-13
5.36334e-13
7.04038e-13
1.52194e-11
9.4309e-13
1.00096e-12
1.02955e-12
1.01145e-12
9.445e-13
8.23218e-13
6.22179e-13
3.32924e-13
3.53579e-15
-2.69312e-13
-3.34743e-13
-2.75918e-13
1.04703e-13
-1.21197e-11
-2.88227e-12
-2.76604e-12
-2.26743e-12
-1.0714e-11
-1.2064e-12
-9.86193e-13
1.83079e-13
-2.67218e-11
-4.11954e-12
-3.38187e-13
-3.3858e-12
1.78427e-13
8.29986e-13
1.42289e-12
1.42214e-11
3.33832e-12
3.56871e-12
3.71958e-12
1.28436e-11
-3.12925e-13
2.27338e-14
3.18361e-14
-2.29518e-14
-2.62735e-13
-5.54672e-13
-8.16595e-13
-1.00133e-12
-1.10362e-12
-1.15204e-12
-1.17396e-12
-1.17515e-12
-1.15628e-12
-2.45149e-11
-1.15251e-12
-1.12631e-12
-1.19265e-12
-1.28112e-12
-1.41511e-12
-1.39897e-12
-8.51909e-12
-8.44456e-12
-4.6988e-11
-7.93993e-12
-7.76671e-12
-4.04668e-11
-6.91075e-12
-6.28134e-12
-2.80081e-11
-4.6604e-12
-6.62484e-12
-4.12387e-11
-9.08403e-12
-9.30669e-12
-9.64302e-12
-4.30587e-11
-7.49409e-12
-7.64821e-12
-3.71764e-11
-9.77173e-12
4.00051e-11
5.24433e-11
5.52914e-11
5.58439e-11
4.82462e-11
2.61586e-11
1.10876e-11
7.00885e-13
-4.89571e-12
-6.02193e-12
-5.62639e-12
-4.86407e-12
-4.04409e-12
-1.32039e-11
-2.12074e-11
-2.8279e-11
-3.20954e-11
-3.71786e-11
-3.57566e-11
5.58517e-11
6.22801e-11
5.98117e-11
5.65419e-11
4.83849e-11
2.94313e-11
1.00315e-11
3.28534e-13
-4.96841e-12
-6.02618e-12
-5.61896e-12
-4.86257e-12
-3.99873e-12
-1.25669e-11
-1.7998e-11
-2.49339e-11
-2.92446e-11
-3.42586e-11
-3.05028e-11
5.92987e-11
5.99343e-11
5.50331e-11
5.04406e-11
4.29194e-11
2.79906e-11
9.63106e-12
-3.85071e-13
-5.03786e-12
-6.03287e-12
-5.60478e-12
-4.85578e-12
-3.96415e-12
-1.2007e-11
-1.6583e-11
-2.44407e-11
-2.87854e-11
-3.294e-11
-3.0265e-11
6.09023e-11
5.64807e-11
5.02947e-11
4.534e-11
3.84592e-11
2.54479e-11
9.96848e-12
-1.01223e-12
-5.22272e-12
-6.01705e-12
-5.58338e-12
-4.80476e-12
-3.9902e-12
-1.17311e-11
-1.98659e-11
-2.61415e-11
-2.64572e-11
-2.92079e-11
-3.18247e-11
5.80637e-11
4.9943e-11
4.35336e-11
3.93783e-11
3.383e-11
2.16575e-11
9.61406e-12
-8.43958e-13
-5.63909e-12
-5.96268e-12
-5.54868e-12
-4.69726e-12
-4.17835e-12
-1.18919e-11
-2.71176e-11
-2.56242e-11
-1.89638e-11
-2.08068e-11
-2.83879e-11
5.09588e-11
4.04184e-11
3.50194e-11
3.3134e-11
2.96644e-11
1.7104e-11
7.71907e-12
-5.59479e-14
-6.02306e-12