/*--------------------------------*- C++ -*----------------------------------*\
| =========                 |                                                 |
| \\      /  F ield         | OpenFOAM: The Open Source CFD Toolbox           |
|  \\    /   O peration     | Version:  4.1                                   |
|   \\  /    A nd           | Web:      www.OpenFOAM.org                      |
|    \\/     M anipulation  |                                                 |
\*---------------------------------------------------------------------------*/
FoamFile
{
    version     2.0;
    format      ascii;
    class       volVectorField;
    location    "16";
    object      U;
}
// * * * * * * * * * * * * * * * * * * * * * * * * * * * * * * * * * * * * * //

dimensions      [0 1 -1 0 0 0 0];

internalField   nonuniform List<vector> 
1280
(
(-7.77804e-16 -3.75112 -2.29194)
(-2.30254e-15 -3.1249 -2.26369)
(-2.69529e-15 -2.97445 -1.59424)
(-4.35513e-15 -2.5303 -1.76486)
(-8.04654e-15 -2.69172 -2.36283)
(-7.66817e-15 -1.91401 -1.62046)
(-7.52825e-15 -1.79777 -1.7711)
(-6.16539e-15 -1.39543 -1.82611)
(-5.89717e-15 -1.3547 -2.65102)
(-1.97991e-15 -0.759469 -2.04616)
(-5.48724e-16 -0.367479 -2.237)
(8.36072e-16 -0.14203 -3.13458)
(1.7532e-15 0.389484 -2.36535)
(3.0138e-15 0.810958 -2.03977)
(1.49864e-15 1.28643 -3.8899)
(8.74596e-16 1.73587 -3.18768)
(1.02095e-15 2.34938 -2.72317)
(-9.04788e-16 3.15916 -5.2577)
(-1.05874e-15 3.52668 -3.72634)
(-1.29712e-15 4.3713 -4.43093)
(-1.09249e-15 4.0736 -3.23404)
(-1.70655e-15 4.424 4.11037)
(-1.77852e-15 4.01266 8.70514)
(-2.05651e-15 4.26768 10.5661)
(-2.20035e-15 4.49171 11.0744)
(-2.88836e-15 4.92319 11.1808)
(-3.2083e-15 4.24995 7.85447)
(-3.86909e-15 8.49746 12.6823)
(-4.10649e-15 8.52942 12.5145)
(-4.22379e-15 8.57979 12.2479)
(-4.14954e-15 8.61674 12.0203)
(-3.87487e-15 8.64138 11.8921)
(-3.3773e-15 8.66364 11.8868)
(-2.55253e-15 8.66342 11.9753)
(-1.36584e-15 8.65031 12.0807)
(-1.45058e-17 8.58826 12.1319)
(1.10487e-15 8.5512 12.1935)
(1.3733e-15 8.40019 12.352)
(1.13197e-15 8.4067 12.981)
(-4.29551e-16 8.06017 13.2345)
(2.10961e-15 9.89861 15.0074)
(2.31508e-15 5.72621 10.4804)
(2.22172e-15 4.40655 10.1265)
(1.82123e-15 3.36478 9.61383)
(1.97905e-15 1.73946 8.0777)
(9.68992e-16 1.01138 4.09341)
(7.92123e-16 0.379387 3.78376)
(-1.47051e-16 -0.0776002 4.25257)
(5.06891e-15 -1.01219 -1.07027)
(2.94902e-15 -0.240831 -1.46168)
(-5.37479e-16 -0.458745 -2.44997)
(5.89347e-16 0.681863 -1.7667)
(-1.43315e-16 0.38495 4.09117)
(-6.66655e-16 -0.167042 3.53575)
(-1.14288e-15 -0.828008 3.83143)
(-2.47543e-15 -1.59036 7.71505)
(-2.68138e-15 -3.04204 9.4106)
(-2.86643e-15 -4.05909 9.80735)
(-2.98762e-15 -5.26563 10.1205)
(-2.38699e-15 -9.89938 14.7376)
(1.28379e-15 -8.36092 13.1201)
(-9.3267e-17 -8.69619 12.8606)
(-1.30609e-16 -8.69202 12.2614)
(9.41612e-17 -8.83865 12.1184)
(1.07789e-15 -8.87494 12.0611)
(2.27558e-15 -8.93473 12.0018)
(3.35013e-15 -8.94614 11.8902)
(4.10801e-15 -8.94466 11.8045)
(4.52767e-15 -8.92025 11.8192)
(4.7263e-15 -8.89812 11.9513)
(4.81624e-15 -8.86169 12.1667)
(4.82113e-15 -8.77794 12.4073)
(4.74372e-15 -8.7647 12.5363)
(5.16783e-15 -5.3437 7.76651)
(4.72827e-15 -6.16766 9.9788)
(4.62076e-15 -5.7234 9.99902)
(4.8929e-15 -5.44342 9.73644)
(5.25588e-15 -5.10247 8.37224)
(5.80559e-15 -5.41594 4.60032)
(5.73935e-15 -5.05746 -1.82325)
(6.15652e-15 -5.27863 -2.63739)
(6.10266e-15 -4.71906 -1.75974)
(7.98607e-15 -5.80248 -2.6856)
(5.73798e-15 -4.5931 -2.18814)
(5.6128e-15 -4.12797 -2.07052)
(6.82331e-15 -4.77481 -2.90391)
(4.9889e-15 -3.48028 -2.599)
(4.55828e-15 -3.00129 -2.50382)
(4.72243e-15 -3.27348 -3.41411)
(3.38932e-15 -1.84343 -2.83783)
(4.70196e-15 -1.33651 -3.17899)
(7.7406e-15 -1.18816 -4.47665)
(6.72862e-15 0.120164 -3.23393)
(6.7257e-15 0.592469 -3.24026)
(6.96876e-15 1.05603 -2.95272)
(7.31825e-15 1.78031 -4.64995)
(5.41578e-15 2.45334 -3.37009)
(5.53766e-15 3.28688 -2.96954)
(6.28998e-15 2.97873 -4.10046)
(7.06177e-15 4.58889 -3.89013)
(-4.44502e-15 1.77326 6.56411)
(-5.82704e-15 2.72402 6.2584)
(-6.14349e-15 3.5831 5.96058)
(-6.20488e-15 4.42197 5.6123)
(-5.36069e-15 3.78036 4.5474)
(-2.90651e-15 -0.794296 1.97838)
(-1.23196e-15 -4.95454 1.47193)
(-7.78761e-17 -6.63133 1.42819)
(5.43968e-16 -7.8331 1.17179)
(6.69103e-16 -8.69323 0.824629)
(6.25154e-16 -8.97054 0.379741)
(5.40453e-16 -8.53448 -0.131756)
(4.49344e-16 -7.23281 -0.716999)
(1.4671e-15 -4.45246 -1.43646)
(2.35638e-15 1.01912 -2.45549)
(3.14211e-15 2.73157 -3.91725)
(3.56616e-15 2.62313 -5.26464)
(4.13096e-15 0.930342 -5.75873)
(3.97295e-15 -0.558956 -5.6325)
(-6.20574e-15 1.86683 5.71649)
(-6.92001e-15 2.89954 5.39223)
(-6.64575e-15 3.76043 5.21258)
(-6.28243e-15 4.83604 4.97541)
(-5.3761e-15 4.80385 4.2439)
(-3.27014e-15 0.302904 2.01901)
(-1.11461e-15 -5.00946 1.16895)
(-3.65037e-17 -6.60821 1.53443)
(5.52046e-16 -7.72914 1.24199)
(6.69575e-16 -8.50794 0.942118)
(6.24329e-16 -8.71 0.53084)
(5.40285e-16 -8.20011 0.0536198)
(4.44304e-16 -6.77929 -0.516439)
(1.39632e-15 -3.72932 -1.42292)
(1.99978e-15 1.67942 -3.04084)
(2.77043e-15 3.66477 -5.09223)
(3.2494e-15 3.30938 -7.02491)
(3.80651e-15 1.08679 -7.93431)
(3.3892e-15 -1.14124 -6.58021)
(-6.58875e-15 1.92101 5.44558)
(-6.65936e-15 2.9579 5.27523)
(-6.11479e-15 3.80753 5.04043)
(-5.60452e-15 4.92444 4.71791)
(-4.76882e-15 5.0737 4.05752)
(-3.11007e-15 0.904771 2.36036)
(-1.07012e-15 -4.885 0.95139)
(4.27857e-17 -6.60028 1.61312)
(5.59763e-16 -7.59266 1.40742)
(6.70319e-16 -8.35196 1.10939)
(6.22754e-16 -8.53611 0.76512)
(5.39531e-16 -8.01668 0.340784)
(4.40461e-16 -6.53978 -0.147853)
(1.33411e-15 -3.1852 -1.16263)
(1.84255e-15 2.35276 -3.19405)
(2.71563e-15 4.4834 -5.37066)
(3.19838e-15 3.9125 -7.19487)
(3.66e-15 0.839861 -8.35045)
(3.36278e-15 -1.94455 -6.88854)
(-6.76693e-15 1.92648 5.21949)
(-6.27563e-15 3.04876 5.09286)
(-5.5883e-15 3.96014 4.79044)
(-5.03778e-15 5.17768 4.41855)
(-4.27325e-15 5.56187 3.7794)
(-2.82755e-15 1.6589 2.53493)
(-1.10761e-15 -4.78518 1.0451)
(1.1247e-16 -6.68892 1.56262)
(5.80303e-16 -7.52515 1.65541)
(6.68561e-16 -8.23391 1.32914)
(6.20376e-16 -8.41153 1.06135)
(5.33863e-16 -7.87823 0.724139)
(4.43355e-16 -6.31822 0.383402)
(1.30345e-15 -2.47174 -0.618242)
(2.20732e-15 3.23993 -2.98444)
(2.90461e-15 5.27273 -4.08345)
(2.93969e-15 4.56585 -4.93714)
(3.24532e-15 1.09331 -6.23009)
(3.53608e-15 -2.92567 -5.9979)
(-6.45152e-15 1.96124 5.00195)
(-5.54923e-15 3.139 4.89267)
(-4.83707e-15 4.09439 4.54913)
(-4.37537e-15 5.35291 4.16024)
(-3.75889e-15 5.82977 3.57201)
(-2.40639e-15 2.16554 2.81451)
(-1.06823e-15 -4.63179 1.43475)
(9.37731e-17 -6.7826 1.50458)
(6.26566e-16 -7.5322 1.90279)
(6.6252e-16 -8.11911 1.64142)
(6.1652e-16 -8.30408 1.40988)
(5.21918e-16 -7.76972 1.20052)
(4.64261e-16 -6.13153 1.05966)
(1.32132e-15 -1.678 0.111372)
(3.01306e-15 3.72602 -1.41424)
(2.84714e-15 5.30294 -0.388531)
(2.10709e-15 4.80249 -0.213946)
(2.31187e-15 0.832888 -1.56916)
(3.15421e-15 -2.98737 -3.68418)
(-5.66209e-15 1.96055 4.75461)
(-4.49094e-15 3.23421 4.68771)
(-3.89104e-15 4.24969 4.33731)
(-3.68156e-15 5.5488 3.97171)
(-3.29604e-15 6.06849 3.47013)
(-1.90044e-15 2.56232 3.19407)
(-8.57674e-16 -4.37791 2.04089)
(6.21643e-18 -6.80956 1.63005)
(6.69228e-16 -7.60508 2.07833)
(6.61011e-16 -8.03254 2.03547)
(6.08477e-16 -8.22497 1.81311)
(5.02535e-16 -7.73895 1.74419)
(5.033e-16 -6.02027 1.80958)
(1.62017e-15 -1.07116 0.95663)
(3.37053e-15 3.36551 2.05827)
(2.31456e-15 4.8712 3.87943)
(1.33369e-15 5.09403 4.18834)
(1.80111e-15 1.45221 2.58042)
(2.24538e-15 -3.38923 -1.0211)
(-4.36601e-15 1.96668 4.44676)
(-3.0952e-15 3.31699 4.45895)
(-2.78875e-15 4.38399 4.13982)
(-2.99516e-15 5.69445 3.83509)
(-2.89552e-15 6.17483 3.48633)
(-1.31175e-15 2.75698 3.7006)
(-4.69413e-16 -4.07119 2.82043)
(-2.97069e-17 -6.73021 2.02998)
(6.59931e-16 -7.70736 2.22685)
(6.76336e-16 -8.01024 2.43585)
(5.95196e-16 -8.17744 2.28805)
(4.81988e-16 -7.78206 2.32049)
(6.23938e-16 -5.99962 2.55458)
(2.21654e-15 -1.32642 2.4603)
(3.27175e-15 2.39242 5.47328)
(2.15213e-15 4.48487 7.0467)
(8.62118e-16 5.67479 8.09483)
(1.26967e-15 4.2116 7.09758)
(5.06852e-15 0.697576 2.09008)
(-2.70498e-15 1.93419 4.06859)
(-1.545e-15 3.37054 4.21647)
(-1.68395e-15 4.49463 3.96064)
(-2.3878e-15 5.79534 3.75378)
(-2.57703e-15 6.16984 3.62521)
(-6.75238e-16 2.78396 4.31993)
(1.38815e-16 -3.75122 3.716)
(7.67092e-17 -6.52341 2.67413)
(6.04661e-16 -7.77387 2.47306)
(6.96063e-16 -8.06025 2.77637)
(5.59485e-16 -8.16943 2.82066)
(4.34275e-16 -7.87138 2.8974)
(8.05811e-16 -6.15024 3.26047)
(2.67463e-15 -2.127 4.17438)
(3.56214e-15 1.49332 7.72385)
(2.49999e-15 3.85531 9.36578)
(7.93678e-16 4.83085 11.4097)
(-1.10992e-15 1.81921 13.3416)
(-1.13635e-15 -5.36614 14.0391)
(-9.90279e-16 1.8747 3.61846)
(-9.60281e-17 3.37887 3.94315)
(-7.04629e-16 4.56166 3.78879)
(-1.86852e-15 5.82004 3.71974)
(-2.31327e-15 6.0186 3.87899)
(-2.57572e-17 2.64232 5.02825)
(7.73944e-16 -3.42348 4.67257)
(3.34995e-16 -6.2049 3.48682)
(5.73809e-16 -7.74594 2.9091)
(6.94147e-16 -8.15565 3.07364)
(5.63461e-16 -8.21466 3.34716)
(5.77195e-16 -7.99003 3.4593)
(1.151e-15 -6.4955 3.89692)
(3.39466e-15 -3.13705 5.45364)
(3.39453e-15 0.406893 8.76775)
(2.50341e-15 3.02703 10.0328)
(1.49333e-15 4.32062 11.0865)
(-5.34092e-16 3.10245 11.5964)
(-3.09559e-15 -0.419979 11.3588)
(4.49071e-16 1.76566 3.10572)
(1.08796e-15 3.32593 3.64098)
(1.10254e-16 4.57057 3.62476)
(-1.39915e-15 5.75427 3.73469)
(-2.02074e-15 5.72013 4.23701)
(6.13109e-16 2.36005 5.78057)
(5.05041e-15 -3.11325 5.6271)
(4.5191e-16 -5.81006 4.3925)
(6.58606e-16 -7.59719 3.53805)
(6.89189e-16 -8.24445 3.41089)
(4.36061e-16 -8.31232 3.80683)
(-2.03249e-16 -8.12444 3.996)
(1.40495e-15 -6.92158 4.41941)
(1.56496e-15 -4.11233 6.18273)
(-1.5471e-15 -0.348812 9.09184)
(7.77373e-16 2.86586 9.52796)
(8.04575e-16 4.36391 9.46041)
(2.16677e-15 2.69238 8.0563)
(1.1363e-15 -0.501907 3.26226)
(1.41905e-15 1.61016 2.56634)
(1.94257e-15 3.20087 3.32324)
(7.5689e-16 4.50563 3.47125)
(-9.60014e-16 5.57831 3.79822)
(-1.48918e-15 5.27195 4.68277)
(-4.10826e-16 1.97176 6.53208)
(2.26861e-16 -2.82841 6.51657)
(1.25207e-15 -5.37615 5.3165)
(7.70226e-16 -7.33619 4.30196)
(6.53923e-16 -8.2745 3.86306)
(3.06701e-16 -8.43889 4.20319)
(-1.26442e-17 -8.26652 4.4893)
(1.42366e-15 -7.34175 4.83081)
(5.49235e-16 -4.98081 6.56143)
(-1.9663e-15 -0.740506 8.31588)
(-2.42935e-15 2.93467 6.47504)
(-1.43241e-15 4.7538 7.66771)
(7.58989e-16 4.62888 10.0907)
(2.91604e-15 2.96804 6.46336)
(1.86321e-15 1.40347 2.06129)
(2.41329e-15 3.00099 3.01913)
(1.23205e-15 4.35731 3.33531)
(-6.27513e-16 5.28046 3.91054)
(-8.28686e-16 4.68762 5.19325)
(1.51548e-15 1.51633 7.23405)
(1.47686e-15 -2.5791 7.29907)
(1.59075e-15 -4.9403 6.20462)
(8.05416e-16 -6.99681 5.1424)
(5.38594e-16 -8.21653 4.46354)
(2.30017e-16 -8.55365 4.6033)
(3.26168e-16 -8.40338 4.91243)
(1.31413e-15 -7.68861 5.1598)
(-1.39115e-16 -5.51296 6.5038)
(-2.69416e-15 -0.493857 5.46795)
(-2.82272e-15 3.00359 0.711704)
(-2.17358e-15 2.85476 2.56017)
(2.34967e-16 3.14141 8.92225)
(1.78701e-15 3.82175 11.5068)
(1.81271e-15 1.14936 1.6484)
(2.45474e-15 2.73477 2.74623)
(1.55794e-15 4.12177 3.22242)
(-2.52168e-16 4.85315 4.0692)
(-4.66802e-16 3.98945 5.74471)
(1.98448e-15 1.034 7.84235)
(2.61417e-15 -2.36453 7.94384)
(1.67392e-15 -4.53063 7.02922)
(8.18648e-16 -6.62088 6.02823)
(4.19241e-16 -8.07038 5.20955)
(2.82508e-16 -8.61306 5.06547)
(6.76917e-16 -8.51904 5.26826)
(1.04812e-15 -7.91714 5.5421)
(-7.39417e-16 -5.28154 6.27154)
(-2.28899e-15 1.42671 2.72379)
(-1.40412e-15 4.06523 -0.194536)
(-2.33637e-15 1.6498 -0.453994)
(-5.82185e-16 0.844953 2.79544)
(9.44774e-16 5.48644 10.3155)
(1.35349e-15 0.85591 1.30542)
(2.09264e-15 2.42297 2.48511)
(1.74343e-15 3.79734 3.13597)
(1.1117e-16 4.29499 4.26884)
(-9.92876e-17 3.21113 6.32024)
(2.17555e-15 0.554898 8.3358)
(2.84588e-15 -2.21863 8.40987)
(1.94661e-15 -4.194 7.72274)
(1.06779e-15 -6.25504 6.87477)
(5.73983e-16 -7.84078 6.00651)
(5.67289e-16 -8.56952 5.58423)
(9.52086e-16 -8.61525 5.69509)
(6.35516e-16 -8.01964 6.19157)
(-1.10057e-15 -4.42584 5.78635)
(-1.12888e-15 2.40654 -0.235352)
(-1.10352e-15 4.20353 -0.160282)
(-2.27324e-15 2.17957 -0.671843)
(-2.65702e-15 -0.725859 -3.39168)
(-3.44811e-15 -1.81871 -2.8164)
(4.49509e-16 0.567249 0.861447)
(1.41186e-15 2.08205 2.17159)
(1.85405e-15 3.37721 3.07486)
(4.44674e-16 3.60514 4.49876)
(1.02949e-16 2.39087 6.90769)
(1.92784e-15 0.159453 8.73795)
(2.60819e-15 -2.07786 8.71312)
(2.18234e-15 -3.92417 8.21346)
(1.5455e-15 -5.92248 7.54597)
(1.05942e-15 -7.56541 6.73102)
(9.70904e-16 -8.48881 6.2369)
(9.88105e-16 -8.77936 6.54201)
(1.481e-16 -7.91905 7.1922)
(-1.10945e-15 -2.89887 4.97049)
(-3.54632e-17 3.43453 -1.36864)
(-9.5274e-16 4.21985 -0.835471)
(-2.28638e-15 2.65798 -1.57452)
(-2.66186e-15 1.0219 -2.41817)
(-4.20007e-15 -0.799543 -5.01054)
(-1.02623e-15 0.153728 0.0883227)
(5.41465e-16 1.64729 1.73731)
(1.91969e-15 2.83628 3.02956)
(7.16567e-16 2.77982 4.73569)
(1.67186e-16 1.51375 7.4902)
(1.31154e-15 -0.241442 9.14605)
(1.7848e-15 -2.00698 9.03736)
(1.84962e-15 -3.74243 8.61106)
(1.68797e-15 -5.65268 8.08386)
(1.36122e-15 -7.31525 7.48361)
(1.06997e-15 -8.47535 7.31747)
(6.52294e-16 -8.98422 8.00023)
(-2.63269e-16 -7.39026 7.99206)
(-7.57504e-16 -0.649457 3.23218)
(2.95312e-16 4.62578 -0.986517)
(-1.00478e-15 4.38766 -1.20678)
(-2.44525e-15 2.94915 -2.01557)
(-2.99142e-15 1.23986 -2.80865)
(-5.06594e-15 -0.0218127 -3.94628)
(-2.8689e-15 -0.475831 -1.18223)
(-3.27722e-16 1.00665 1.20051)
(1.96557e-15 2.14315 2.99796)
(8.9469e-16 1.83605 4.90988)
(1.50541e-16 0.66041 7.94285)
(7.21763e-16 -0.434122 9.56143)
(8.09628e-16 -1.81218 9.6199)
(9.27146e-16 -3.51769 9.3226)
(1.07089e-15 -5.45549 8.95532)
(9.54882e-16 -7.27595 8.71303)
(5.97099e-16 -8.72523 8.99816)
(7.6565e-17 -9.0538 9.51194)
(-4.24873e-16 -6.05461 7.57704)
(3.10122e-17 1.17995 -0.334138)
(2.73196e-16 4.96249 -0.812974)
(-1.22872e-15 4.6857 -1.45355)
(-2.68097e-15 3.30816 -2.31282)
(-3.40611e-15 1.61274 -3.00979)
(-5.14215e-15 -0.238654 -3.20382)
(-3.73877e-15 -1.05674 -1.90549)
(-1.17666e-15 0.092484 0.502656)
(2.06046e-15 1.31638 2.99262)
(9.75317e-16 0.800517 4.89404)
(9.88381e-17 -0.371504 7.94844)
(4.68549e-16 -1.01551 9.65836)
(2.46695e-16 -1.98156 10.2074)
(4.53377e-17 -3.52596 10.2455)
(1.1149e-16 -5.41793 10.1546)
(1.03098e-16 -7.31328 10.2602)
(-1.24218e-16 -8.73778 10.6568)
(-4.04528e-16 -8.33472 10.2209)
(-3.47814e-16 -3.81894 6.03814)
(4.23276e-16 2.58175 -1.27456)
(2.49693e-16 4.95021 -1.00426)
(-1.42124e-15 4.97227 -1.8026)
(-2.91136e-15 3.60111 -2.55068)
(-3.70416e-15 1.69173 -3.03367)
(-2.70717e-15 -0.293839 -2.85324)
(-4.45678e-15 -1.49943 -2.36137)
(-2.70483e-15 -0.664129 -0.691196)
(2.27638e-15 0.354912 2.93736)
(1.02117e-15 -0.135357 4.40762)
(1.16504e-16 -1.09007 7.18112)
(6.71111e-16 -1.26805 9.46111)
(4.61502e-16 -1.91379 10.8429)
(-1.46454e-16 -3.41895 11.4175)
(-4.58972e-16 -5.44052 11.6565)
(-5.59722e-16 -7.53666 11.8651)
(-6.353e-16 -8.84938 11.6948)
(-5.79181e-16 -7.36924 9.54113)
(-1.09029e-16 -1.2947 3.44333)
(3.74553e-16 3.87034 -0.505464)
(1.97827e-16 5.2137 -0.987914)
(-1.59411e-15 5.29366 -2.03353)
(-3.11298e-15 3.81183 -2.69263)
(-3.61841e-15 1.71405 -2.9865)
(-2.57953e-15 -0.448747 -2.76012)
(-5.62102e-15 -1.77616 -1.95818)
(-4.98476e-15 -2.15877 -1.2077)
(2.67542e-15 -0.90179 2.53951)
(1.02679e-15 -1.01743 3.30155)
(-5.34283e-16 -2.48536 5.00377)
(-3.57535e-17 -2.70775 7.21806)
(5.71092e-16 -2.98689 9.34)
(4.17644e-16 -4.02374 10.7575)
(1.07979e-17 -5.66665 11.4854)
(-2.83032e-16 -7.26013 11.6029)
(-4.21308e-16 -7.50298 10.5874)
(-3.06962e-16 -4.62561 7.18298)
(1.72315e-16 0.862736 1.2746)
(3.56178e-16 4.44042 -0.188269)
(1.55022e-16 5.73148 -1.05127)
(-1.7422e-15 5.76981 -2.15979)
(-3.25601e-15 4.04903 -2.76655)
(-3.58732e-15 1.81886 -2.91002)
(-4.29358e-15 -0.644145 -3.23375)
(-2.93811e-16 4.89451 8.58376)
(-1.79433e-15 16.4811 29.0678)
(-1.19548e-15 19.2499 32.6205)
(-1.44722e-15 17.845 29.4933)
(-1.52756e-15 15.9569 25.5943)
(-2.37156e-15 14.5117 22.57)
(-2.87175e-15 13.3788 20.2798)
(-3.02788e-15 12.592 18.6661)
(-3.14173e-15 11.931 17.2709)
(-3.51943e-15 11.27 15.9651)
(-3.98756e-15 10.5916 14.6934)
(-4.56292e-15 9.88956 13.445)
(-5.2752e-15 9.15777 12.222)
(-5.9866e-15 8.39876 11.023)
(-6.59176e-15 7.60554 9.84872)
(-7.08667e-15 6.80689 8.72471)
(-7.68005e-15 6.03764 7.75053)
(-8.85034e-15 5.4005 7.08756)
(-1.00745e-14 4.77118 6.61565)
(-1.45282e-14 2.98666 4.49702)
(3.39064e-17 2.0291 2.17616)
(-5.61562e-16 15.1571 26.2106)
(-3.24625e-16 18.4724 31.8778)
(-5.42196e-16 16.8957 28.9686)
(-5.70363e-16 14.8542 25.2724)
(-1.17518e-15 13.4619 22.5831)
(-1.19581e-15 12.5471 20.7416)
(-1.19414e-15 11.8217 19.1708)
(-1.28992e-15 11.114 17.6831)
(-1.71878e-15 10.3902 16.1998)
(-2.01748e-15 9.63525 14.7228)
(-2.45277e-15 8.85975 13.2681)
(-3.02354e-15 8.06806 11.8558)
(-3.77913e-15 7.27433 10.4888)
(-4.5386e-15 6.45599 9.16737)
(-5.52006e-15 5.63221 7.84256)
(-6.21693e-15 4.7004 6.49656)
(-7.16149e-15 3.73481 4.97806)
(-7.95037e-15 2.23733 3.13198)
(-1.46934e-14 0.265515 -0.653593)
(1.22245e-17 4.53079 6.92045)
(6.66301e-17 16.5472 26.9618)
(1.38249e-18 20.1071 33.0907)
(1.04808e-17 18.7838 30.6334)
(9.94997e-18 16.7387 27.02)
(-5.10937e-17 15.36 24.325)
(-1.24636e-16 14.3943 22.3816)
(-1.44427e-16 13.5932 20.694)
(-1.99732e-16 12.7808 19.028)
(-2.67179e-16 11.907 17.3075)
(-3.22506e-16 10.9684 15.5394)
(-3.91365e-16 9.97756 13.7523)
(-4.95427e-16 8.942 11.9753)
(-6.43277e-16 7.87498 10.2217)
(-9.31734e-16 6.75833 8.50433)
(-1.37279e-15 5.60867 6.78698)
(-1.85682e-15 4.33071 5.05104)
(-2.5901e-15 3.00092 3.12219)
(-3.55155e-15 1.05961 0.8307)
(-6.69635e-15 -0.411145 -2.59012)
(-1.01205e-17 9.02822 14.641)
(3.63382e-17 19.3879 30.5625)
(4.40994e-17 20.8042 33.1956)
(4.74037e-17 19.1184 30.2816)
(4.11013e-17 17.3409 27.4035)
(3.42554e-16 16.3141 25.3131)
(2.26397e-16 15.4792 23.6306)
(1.63591e-16 14.6649 21.893)
(1.31828e-16 13.7172 20.0192)
(8.59486e-17 12.6633 18.0107)
(4.04674e-17 11.5183 15.923)
(-3.57655e-17 10.3079 13.7898)
(-1.42089e-16 9.03332 11.6357)
(-2.56884e-16 7.69983 9.46497)
(-3.89718e-16 6.27689 7.28823)
(-6.25373e-16 4.77362 5.06405)
(-1.00766e-15 3.0545 2.86704)
(-1.82146e-15 1.38514 0.507393)
(-4.03387e-15 -1.14916 -2.19917)
(-7.59529e-15 -1.99562 -5.54519)
(3.47148e-18 14.3871 24.7533)
(-1.61369e-17 21.6892 34.805)
(-2.11072e-17 19.5781 32.4305)
(-2.18178e-17 17.8882 29.3807)
(-2.85939e-17 16.7093 27.8666)
(-1.73142e-18 16.11 26.5348)
(5.3633e-17 15.1965 25.0411)
(8.12052e-17 14.1409 23.0928)
(1.00576e-16 12.8119 20.8989)
(1.24541e-16 11.3962 18.5455)
(1.48739e-16 9.8764 16.1232)
(1.73917e-16 8.28242 13.6149)
(1.97078e-16 6.57636 11.0134)
(2.37166e-16 4.74642 8.28871)
(4.1483e-16 2.74246 5.42705)
(8.55781e-16 0.43195 2.33399)
(1.17066e-15 -2.6281 -1.37241)
(9.16566e-17 -2.29651 -3.06029)
(-3.53499e-15 -4.52884 -5.32374)
(-1.15072e-14 -3.77507 -8.53267)
(-9.49628e-19 16.6212 29.7291)
(5.70732e-18 19.659 33.1277)
(7.30849e-18 16.227 29.2074)
(7.36215e-18 15.5232 27.6506)
(9.82917e-18 14.5576 26.9478)
(-1.57923e-17 13.8062 25.7155)
(-3.44407e-17 12.4573 24.0305)
(-4.23109e-17 10.9535 21.7386)
(-4.59517e-17 9.19726 19.2605)
(-4.94784e-17 7.46221 16.6911)
(-5.99477e-17 5.64612 14.075)
(-1.03466e-16 3.78629 11.3392)
(-1.91348e-16 1.85661 8.50628)
(-2.11841e-16 -0.0648544 5.61668)
(1.35299e-16 -1.81022 2.91322)
(7.85068e-16 -3.10073 0.826989)
(3.37693e-16 -4.0287 -0.939198)
(-2.80364e-15 -4.73379 -2.93115)
(-7.22069e-15 -4.14795 -3.3325)
(-6.86415e-15 -1.20541 -0.669848)
(1.65539e-19 15.0097 27.1125)
(-2.03245e-18 16.9366 29.8379)
(-2.47268e-18 14.6043 26.8961)
(-2.82081e-18 13.5609 25.0738)
(-1.29862e-18 12.3379 23.9869)
(8.90302e-18 11.2575 22.6151)
(1.43787e-17 9.73298 20.8981)
(1.72159e-17 8.08336 18.6888)
(2.18345e-17 6.27392 16.3103)
(2.87684e-17 4.48011 13.8344)
(2.99612e-17 2.64994 11.3142)
(1.23942e-17 0.867355 8.80146)
(-1.87556e-17 -0.749719 6.48741)
(-9.57393e-18 -1.98099 4.61519)
(9.77374e-17 -2.59527 3.4348)
(2.15073e-16 -2.29232 3.36341)
(7.62832e-17 -0.595521 5.16946)
(-3.65269e-16 2.75162 9.06725)
(-5.15556e-16 6.43306 13.0824)
(8.01258e-17 5.84172 11.8621)
(6.58541e-21 13.1467 23.386)
(6.53567e-19 16.9623 29.5173)
(7.80044e-19 14.6278 25.9419)
(8.58263e-19 13.1363 22.8258)
(-1.54414e-19 11.758 21.1769)
(-3.40359e-18 10.8287 19.4798)
(-4.88991e-18 9.5693 17.8482)
(-5.47863e-18 8.383 15.8913)
(-5.97319e-18 7.05717 13.8175)
(-7.14181e-18 5.78993 11.6043)
(-1.1085e-17 4.5611 9.39089)
(-1.83343e-17 3.54216 7.3776)
(-1.98581e-17 2.93619 5.97285)
(-2.86039e-19 3.00538 5.65516)
(3.73136e-17 3.91895 6.76095)
(6.13609e-17 5.57595 9.14899)
(5.81265e-17 7.54693 12.1107)
(7.41763e-17 9.06331 14.793)
(1.44556e-16 9.74019 15.6086)
(1.34781e-16 6.97129 12.5447)
(-7.20198e-21 12.7978 22.5472)
(-1.84645e-19 17.9178 30.4022)
(-2.10976e-19 15.5225 27.0723)
(-2.38841e-19 14.1132 23.4531)
(-2.55356e-20 12.694 21.5857)
(8.29983e-19 12.023 19.7563)
(1.25437e-18 11.085 18.274)
(1.37841e-18 10.3881 16.7312)
(1.43782e-18 9.65961 15.2933)
(1.42729e-18 9.03825 13.871)
(1.36664e-18 8.47195 12.4718)
(1.32135e-18 7.96637 11.0734)
(9.2462e-19 7.52336 9.70882)
(-8.36538e-19 7.15602 8.50767)
(-4.94224e-18 6.94362 7.71114)
(-1.24109e-17 6.92439 7.61982)
(-2.41562e-17 7.11371 8.276)
(-3.84297e-17 7.18846 9.28752)
(-5.11916e-17 6.6567 9.53446)
(-4.89253e-17 4.45964 7.03019)
(2.22891e-21 13.2688 23.3463)
(4.80253e-20 18.8012 31.3417)
(5.49101e-20 16.1144 28.0121)
(6.13114e-20 14.8759 24.4501)
(1.41584e-20 13.4879 22.7059)
(-1.87282e-19 12.9032 20.9213)
(-3.00121e-19 12.0278 19.4356)
(-3.27647e-19 11.3282 17.8761)
(-3.32212e-19 10.5998 16.4132)
(-3.14766e-19 9.92062 15.0083)
(-2.26073e-19 9.27174 13.6655)
(-1.36537e-20 8.64326 12.3741)
(3.34938e-19 8.02715 11.1136)
(7.46955e-19 7.41194 9.87121)
(9.8992e-19 6.78117 8.65664)
(9.59294e-19 6.14921 7.52125)
(1.50466e-18 5.46925 6.5742)
(4.88943e-18 4.78595 5.74799)
(1.28455e-17 3.57391 4.7306)
(2.39881e-17 1.59378 1.37202)
(-4.07672e-22 14.239 25.2413)
(-1.12314e-20 19.5365 32.0132)
(-1.31739e-20 16.2765 28.5094)
(-1.40771e-20 15.4632 25.1535)
(-3.61244e-21 13.9782 23.6438)
(3.94866e-20 13.5037 21.8041)
(6.49233e-20 12.5436 20.3491)
(6.7909e-20 11.8603 18.7445)
(6.25684e-20 11.0849 17.2478)
(5.17003e-20 10.3569 15.7422)
(2.12736e-20 9.61361 14.2523)
(-4.39465e-20 8.84951 12.7612)
(-1.29783e-19 8.04772 11.2693)
(-1.6795e-19 7.20795 9.77545)
(-5.38958e-20 6.30612 8.28716)
(2.58022e-19 5.36149 6.76548)
(6.3401e-19 4.25299 5.1974)
(7.25133e-19 3.08285 3.38976)
(-4.90816e-19 1.1442 1.18315)
(2.36812e-18 -0.294877 -2.42486)
(4.05155e-23 15.653 28.2703)
(2.37081e-21 20.0191 32.2373)
(2.95617e-21 16.2574 29.0077)
(3.13643e-21 16.1699 26.046)
(6.98392e-22 14.4696 24.8034)
(-8.90547e-21 14.2161 22.8754)
(-1.60922e-20 13.135 21.5114)
(-1.79775e-20 12.5819 19.9063)
(-1.53416e-20 11.8134 18.4825)
(-7.32764e-21 11.1401 16.9561)
(9.2253e-21 10.3619 15.3601)
(3.51444e-20 9.4896 13.6173)
(6.17728e-20 8.48399 11.744)
(6.74772e-20 7.36541 9.76286)
(2.71188e-20 6.11924 7.72257)
(-6.88051e-20 4.79446 5.60852)
(-2.02207e-19 3.2555 3.43102)
(-3.73023e-19 1.68561 0.931474)
(-3.39388e-19 -0.779573 -1.72633)
(-2.05408e-18 -1.86779 -5.44714)
(-5.69844e-24 16.8394 31.2388)
(-4.4355e-22 19.8133 31.6085)
(-4.19065e-22 15.9883 29.4069)
(-3.20791e-22 16.5864 26.8198)
(-4.94804e-22 14.542 25.8165)
(-1.01814e-21 14.5616 23.8455)
(-3.22537e-21 13.2859 22.6915)
(-4.75073e-21 12.9325 21.156)
(-1.0149e-21 12.0997 19.8986)
(1.08993e-20 11.4669 18.3602)
(3.03141e-20 10.5329 16.6272)
(5.44317e-20 9.44432 14.5472)
(8.08609e-20 8.13646 12.2394)
(1.07347e-19 6.68911 9.74698)
(1.3121e-19 5.08116 7.13444)
(1.50802e-19 3.39121 4.43731)
(1.64986e-19 1.49482 1.71774)
(9.96893e-20 -0.261744 -1.49808)
(-1.65157e-19 -2.82373 -4.16982)
(-1.79408e-18 -3.21089 -7.88356)
(-2.57368e-24 17.1059 32.5113)
(1.04527e-22 18.8819 30.1846)
(2.35114e-22 15.4389 29.234)
(2.07307e-22 16.1813 26.7664)
(-8.69143e-22 13.9001 25.8654)
(-3.83647e-21 13.9384 23.9317)
(-7.16897e-21 12.4769 22.9301)
(-6.63499e-21 12.1268 21.4845)
(3.38243e-21 11.0982 20.3399)
(2.60736e-20 10.3222 18.7294)
(6.02183e-20 9.0574 16.7929)
(1.01785e-19 7.68725 14.3899)
(1.43752e-19 6.11329 11.7811)
(1.73216e-19 4.42413 8.89518)
(1.77627e-19 2.5912 5.77342)
(1.63722e-19 0.73191 2.78349)
(1.69976e-19 -0.736877 0.500537)
(1.17879e-19 -1.72217 -1.87129)
(-3.88596e-19 -4.70329 -5.58244)
(-1.10536e-18 -3.87901 -7.52365)
(-2.36862e-24 16.4235 31.6745)
(1.02288e-23 18.1735 28.9921)
(1.0936e-22 14.7586 28.3081)
(6.54284e-23 15.4102 25.7666)
(-8.56256e-22 13.1003 24.8406)
(-3.30371e-21 12.933 22.9267)
(-6.27302e-21 11.4661 21.839)
(-6.1178e-21 10.8582 20.4172)
(1.89912e-21 9.7577 19.2117)
(1.99186e-20 8.77938 17.6604)
(4.6413e-20 7.49035 15.8332)
(7.90472e-20 6.15683 13.7064)
(1.14333e-19 4.71125 11.3706)
(1.42136e-19 3.0949 8.61434)
(1.4223e-19 1.2882 5.47826)
(7.60994e-20 -0.582669 2.2731)
(-1.09791e-19 -2.58923 -1.07605)
(-3.85778e-19 -3.95369 -3.62193)
(-6.18116e-19 -3.43185 -3.35249)
(-4.48388e-19 -0.698086 0.162112)
(-7.61729e-25 15.7033 30.8929)
(1.61842e-23 18.1378 28.1577)
(7.26663e-23 14.2169 27.5409)
(3.60456e-23 15.279 24.7496)
(-5.39384e-22 12.77 23.8574)
(-2.14409e-21 12.7166 21.7757)
(-4.59621e-21 11.2135 20.5526)
(-6.58914e-21 10.5814 18.971)
(-6.06457e-21 9.52498 17.6717)
(-1.96281e-21 8.67487 16.2476)
(5.05256e-21 7.70012 14.7964)
(1.49473e-20 6.7601 13.2208)
(3.0354e-20 5.75995 11.4877)
(4.96609e-20 4.60929 9.35064)
(4.94133e-20 3.19717 6.59765)
(-1.82739e-20 1.7759 3.641)
(-1.69515e-19 1.10193 1.83691)
(-3.09457e-19 1.3006 1.97291)
(-2.75622e-19 4.28854 5.46527)
(-4.96386e-20 3.4887 6.60315)
(-2.50346e-25 15.2151 30.8909)
(1.08619e-23 18.3523 27.77)
(4.40917e-23 13.9774 27.443)
(1.59981e-24 15.368 24.5794)
(-3.91776e-22 12.9123 23.6951)
(-1.43283e-21 12.9012 21.6633)
(-3.14628e-21 11.5935 20.3752)
(-5.24568e-21 11.0297 18.7882)
(-7.26238e-21 10.1659 17.438)
(-8.92262e-21 9.50631 16.0708)
(-1.03312e-20 8.8118 14.7809)
(-1.18711e-20 8.15923 13.464)
(-1.34593e-20 7.47793 12.0847)
(-1.30674e-20 6.77398 10.5906)
(-5.06245e-21 6.00541 8.91043)
(1.60906e-20 5.10406 6.84393)
(4.90659e-20 3.9494 4.45463)
(1.02657e-19 2.97059 2.53118)
(2.49846e-21 1.23674 0.278755)
(-6.6282e-20 0.329209 -0.979333)
(3.50811e-26 14.2594 30.878)
(7.85832e-24 18.2386 27.5762)
(2.74268e-23 13.4243 27.5009)
(-2.13512e-23 14.5164 25.0264)
(-3.52184e-22 12.3999 24.0729)
(-1.17638e-21 12.0309 22.4011)
(-2.4462e-21 10.9513 21.1444)
(-3.80227e-21 10.2899 19.7673)
(-4.75925e-21 9.54012 18.5037)
(-5.10532e-21 8.90497 17.2402)
(-5.00897e-21 8.28 15.9998)
(-4.74725e-21 7.68423 14.7374)
(-4.11746e-21 7.08169 13.4196)
(-1.68371e-21 6.42675 11.9538)
(5.88605e-21 5.57342 10.1216)
(2.26292e-20 4.28661 7.48371)
(4.66002e-20 2.16809 3.65626)
(7.59154e-20 -0.584137 -1.89344)
(4.04365e-20 -2.35778 -4.05484)
(-8.01138e-21 -2.08859 -5.32939)
(1.30124e-26 11.2981 28.7612)
(1.5169e-24 17.0939 25.1218)
(7.80392e-24 12.0671 25.5171)
(-5.68379e-24 12.7263 23.8069)
(-1.3057e-22 10.9944 23.0641)
(-4.84177e-22 10.3381 21.9773)
(-1.08315e-21 9.35464 21.0609)
(-1.77134e-21 8.58983 20.1071)
(-2.29975e-21 7.82932 19.1876)
(-2.55749e-21 7.14852 18.2683)
(-2.68738e-21 6.51283 17.3539)
(-2.86396e-21 5.92661 16.4284)
(-2.71199e-21 5.36753 15.4608)
(-5.37062e-22 4.78869 14.3557)
(7.25608e-21 4.07098 12.8829)
(2.48234e-20 2.99306 10.6256)
(5.06036e-20 1.37606 7.10833)
(6.95463e-20 -0.639895 2.3815)
(6.10453e-20 -2.37247 -2.09007)
(2.21296e-20 -2.06428 -3.69819)
(-7.5806e-26 2.63065 17.1213)
(-6.98324e-25 8.04687 13.7227)
(-3.80253e-25 5.16614 14.5835)
(5.89319e-24 4.9669 14.1995)
(1.96541e-23 4.03778 14.1685)
(2.90882e-23 3.46444 14.0035)
(1.219e-23 2.88 13.854)
(-4.27763e-23 2.39898 13.6702)
(-1.18702e-22 1.9795 13.4668)
(-1.83802e-22 1.63435 13.2406)
(-2.4434e-22 1.36022 12.9945)
(-3.98243e-22 1.15993 12.7302)
(-8.38719e-22 1.03478 12.4532)
(-1.79055e-21 0.998711 12.1687)
(-3.35465e-21 1.07559 11.8773)
(-5.1784e-21 1.24015 11.585)
(-6.12816e-21 1.53309 11.1897)
(-4.9098e-21 2.25837 10.2822)
(-2.06758e-21 2.56059 8.7973)
(-1.44445e-22 -0.155429 6.63574)
(8.243e-26 -2.63066 17.1214)
(7.3287e-25 -8.04689 13.7228)
(3.87891e-25 -5.16615 14.5836)
(-6.1564e-24 -4.96689 14.1995)
(-2.06597e-23 -4.03776 14.1685)
(-3.1562e-23 -3.46439 14.0036)
(-1.71454e-23 -2.87993 13.8541)
(3.43296e-23 -2.39889 13.6703)
(1.06623e-22 -1.97939 13.4669)
(1.69915e-22 -1.63423 13.2408)
(2.33631e-22 -1.36008 12.9947)
(4.00783e-22 -1.15976 12.7304)
(8.7174e-22 -1.03458 12.4535)
(1.87655e-21 -0.998512 12.1691)
(3.50917e-21 -1.07546 11.8779)
(5.38481e-21 -1.24016 11.5859)
(6.31626e-21 -1.53333 11.1906)
(4.98925e-21 -2.25884 10.2828)
(2.03231e-21 -2.56117 8.79786)
(9.69612e-23 0.155263 6.63652)
(-8.58262e-27 -11.2982 28.7613)
(-1.43521e-24 -17.0939 25.1221)
(-7.58816e-24 -12.0671 25.5174)
(5.95064e-24 -12.7262 23.8072)
(1.30229e-22 -10.9944 23.0645)
(4.81426e-22 -10.3381 21.9777)
(1.0759e-21 -9.35453 21.0613)
(1.76017e-21 -8.58966 20.1076)
(2.29034e-21 -7.8291 19.1881)
(2.56071e-21 -7.14825 18.2689)
(2.71768e-21 -6.51253 17.3545)
(2.93085e-21 -5.9263 16.4291)
(2.79125e-21 -5.36718 15.4615)
(5.17326e-22 -4.78815 14.3563)
(-7.60872e-21 -4.06984 12.8826)
(-2.5739e-20 -2.99076 10.6233)
(-5.18348e-20 -1.37253 7.10374)
(-6.98085e-20 0.643493 2.37682)
(-5.85538e-20 2.37438 -2.09166)
(-1.66435e-20 2.06417 -3.6975)
(-4.33975e-26 -14.2598 30.8786)
(-7.88142e-24 -18.239 27.5768)
(-2.71915e-23 -13.4247 27.5015)
(2.28887e-23 -14.5168 25.0271)
(3.55954e-22 -12.4004 24.0736)
(1.18094e-21 -12.0314 22.4018)
(2.44827e-21 -10.952 21.1452)
(3.80287e-21 -10.2906 19.7681)
(4.76873e-21 -9.54083 18.5045)
(5.14092e-21 -8.90571 17.2409)
(5.086e-21 -8.28079 16.0006)
(4.86816e-21 -7.68514 14.7382)
(4.24988e-21 -7.0828 13.4206)
(1.71468e-21 -6.428 11.955)
(-6.18914e-21 -5.5744 10.1224)
(-2.35363e-20 -4.2866 7.48311)
(-4.79422e-20 -2.16731 3.65472)
(-8.00171e-20 0.584523 -1.89498)
(-3.76505e-20 2.36133 -4.0581)
(2.40213e-20 2.09287 -5.33882)
(2.35275e-25 -15.2151 30.8914)
(-1.09099e-23 -18.353 27.7702)
(-4.39811e-23 -13.9777 27.4435)
(3.08583e-25 -15.369 24.5795)
(3.98142e-22 -12.913 23.6954)
(1.44403e-21 -12.9025 21.6634)