/*--------------------------------*- C++ -*----------------------------------*\
| =========                 |                                                 |
| \\      /  F ield         | OpenFOAM: The Open Source CFD Toolbox           |
|  \\    /   O peration     | Version:  4.1                                   |
|   \\  /    A nd           | Web:      www.OpenFOAM.org                      |
|    \\/     M anipulation  |                                                 |
\*---------------------------------------------------------------------------*/
FoamFile
{
    version     2.0;
    format      ascii;
    class       volScalarField;
    location    "14";
    object      p;
}
// * * * * * * * * * * * * * * * * * * * * * * * * * * * * * * * * * * * * * //

dimensions      [0 2 -2 0 0 0 0];

internalField   nonuniform List<scalar> 
1280
(
0.0868071
0.0144594
0.359214
0.304926
0.401177
0.255416
0.00960358
0.0264546
-0.151673
-0.727075
-1.59828
-1.15972
-2.46178
-4.4696
-3.61796
-6.47992
-9.66562
-10.7826
-10.033
-26.5344
-11.4275
8.59682
24.5178
24.1065
22.2876
29.8778
18.0164
14.3932
14.2065
13.0045
10.9534
8.70552
6.61468
4.2941
2.4297
0.00554351
-1.15804
-2.95295
-1.30232
1.12608
-10.1571
-1.9075
3.66332
9.38064
21.0897
21.9667
21.6193
21.9462
20.6578
20.9056
21.3087
19.1655
21.0055
20.9053
20.9253
22.2152
8.15559
3.78438
-5.22139
-29.6089
23.9897
20.4461
9.15187
5.81094
3.4248
4.04748
4.63894
6.00298
7.22874
8.69528
10.1525
11.0823
11.6128
10.0386
30.6091
22.8008
21.3063
22.2128
9.12652
-10.58
-24.9381
-9.28708
-11.2846
-10.3851
-7.05891
-5.04082
-6.63873
-3.934
-2.93992
-4.02246
-2.35316
-1.85817
-2.18186
-2.07425
-1.24881
-0.482836
-1.39757
-0.59744
-0.269964
-0.642205
0.12238
0.699158
1.15693
0.852776
0.116252
-0.180098
-0.104234
0.0465645
-0.0356884
-0.343499
-0.582796
-0.439699
-0.0430938
0.207169
0.16312
-0.0522417
-0.187278
-0.300132
0.0915636
-0.0622001
2.0079
3.54468
2.3347
0.781016
0.244622
0.155942
0.243556
0.0111703
-0.491511
-0.891375
-0.463134
0.44385
0.908985
0.602784
0.0468856
-0.273652
-0.395933
-0.259492
-0.303837
3.78336
6.35057
4.11526
1.46557
0.342027
0.0732375
0.202007
-0.236181
-1.259
-1.91061
-0.991159
0.644355
1.33561
0.801923
-0.173186
-0.759135
-0.984848
-0.608059
-0.581753
5.04961
8.17573
5.52086
2.18207
0.706315
0.0996343
-0.0632988
-0.473782
-1.66541
-2.75152
-1.64349
0.856159
1.81102
1.05343
-0.266413
-0.917268
-1.09843
-0.404077
-1.09378
5.99988
9.35107
6.51319
2.60739
0.818076
-0.0574143
-0.439585
-0.773249
-2.26017
-4.01547
-2.21341
1.13052
2.05123
0.937045
-0.76058
-1.89342
-2.15761
-1.19608
-1.61112
6.21633
9.10666
6.41992
2.14448
0.249079
-0.508788
-0.567062
-0.372959
-2.15212
-5.20993
-3.64719
1.08597
2.08828
0.822706
-0.954544
-1.95933
-1.55547
-0.2406
-1.99441
5.58695
7.60549
4.83621
0.317442
-1.4629
-1.53756
-0.643216
0.404667
-1.30719
-5.27527
-4.58881
0.61308
1.39457
-0.0317835
-1.92239
-3.02745
-3.48532
-2.35443
-2.10679
4.23559
4.90182
1.65812
-2.57378
-3.77292
-2.61724
-0.62413
1.332
0.316585
-4.92753
-5.31204
-1.06441
0.269253
-0.732044
-2.69019
-3.17014
1.0888
1.13309
-2.20068
2.46731
1.55919
-2.4465
-5.59524
-5.42492
-2.89505
-0.0210038
2.75486
3.24497
-1.78404
-4.0109
-0.250501
1.67161
0.524731
-1.38288
-1.14777
12.2398
25.4609
-2.5335
0.547384
-1.46761
-6.03345
-7.86389
-5.82731
-2.35404
1.13942
4.67647
7.41645
5.92823
2.46442
0.885306
-1.30158
-2.67144
-1.34809
6.45722
29.4068
19.1596
-3.1564
-1.40636
-4.10114
-8.3862
-9.29428
-5.49583
-1.67119
2.2067
6.35099
10.7024
12.4454
9.66196
3.82448
-3.45142
-6.53916
-2.6213
6.48788
29.0016
21.2575
-3.78663
-2.93826
-6.57
-9.90586
-10.3076
-4.97927
-1.14281
2.8005
7.42402
14.0412
18.3669
15.644
4.25545
-8.64638
-13.2896
-6.54685
3.18809
17.6798
24.8392
-4.0241
-3.62655
-8.77923
-10.7072
-10.5286
-4.25164
-0.854825
2.82244
7.10436
13.1995
20.88
19.7156
5.5278
-13.9445
-18.6955
-7.65952
5.26362
5.33785
-1.52579
-3.81273
-4.04167
-10.7001
-11.3855
-9.7591
-3.35929
-0.451989
2.61078
6.3886
12.4943
19.5886
18.6973
4.03627
-14.8281
-17.0308
-6.52551
1.94793
-1.04562
-2.87166
-3.35113
-4.8264
-11.6342
-12.3528
-8.48612
-2.57084
0.250918
2.75052
5.25257
9.92639
15.9623
17.6523
2.98861
-14.7262
-17.591
-6.81863
2.28358
1.39351
-0.192468
-2.82452
-6.10173
-11.2755
-12.4819
-7.14632
-1.94341
0.77745
2.96711
4.71481
8.21138
13.0372
14.8165
2.5028
-12.1422
-14.71
-5.39519
1.18094
-0.266784
-0.746977
-2.24024
-6.55414
-9.8639
-10.8089
-5.72673
-1.49892
0.911396
2.81031
4.15334
6.42666
9.93482
11.3738
2.53881
-7.08352
-9.13207
-3.73234
0.764891
0.21367
0.273742
-1.67206
-6.10273
-8.51241
-8.36118
-4.21417
-1.07944
0.887117
2.40321
3.45938
4.87914
6.99731
7.81298
1.91612
-3.31484
-4.96422
-2.36904
0.252275
-0.1318
0.0584083
-0.891257
-2.97696
-6.12056
-6.48986
-3.13485
-0.846472
0.729787
1.90418
2.69919
3.50875
4.46752
4.62557
1.00911
-1.16482
-2.0345
-1.19407
0.0954424
0.0430114
0.29371
-0.550641
-1.39293
-3.19008
-3.98661
-2.11493
-0.89093
-0.0983795
0.490684
0.83337
1.08737
1.2834
1.22352
0.105505
-0.341999
-0.505555
-0.391579
-0.0071437
-0.0452019
0.012495
93.5922
92.5596
91.9357
92.3366
90.5323
87.8886
85.2103
82.8943
80.7153
79.2878
78.366
77.5847
77.2217
76.8289
77.0276
76.7394
77.3946
76.5588
77.2218
76.3094
37.9447
37.0411
37.8178
38.8201
38.8719
38.7225
38.3144
37.8535
37.6496
37.5575
37.8153
38.1557
38.7264
39.3431
40.2103
41.1671
42.8222
44.177
47.1343
48.1455
61.8569
59.7815
60.6994
61.0173
60.1442
59.7696
58.6291
57.8764
56.8101
55.8953
54.7226
53.4837
51.9234
50.0977
48.0334
45.8561
44.7237
43.6164
45.7826
46.1249
50.0758
48.7925
50.2413
50.2078
50.0925
49.6509
48.9915
48.6482
47.8475
47.3912
46.3938
45.6608
44.4081
42.9688
41.3753
39.1352
38.0886
36.3333
37.6571
37.2735
64.1997
62.9732
64.5992
63.864
64.837
63.6968
63.6488
63.1149
62.5081
62.3206
61.3531
61.2657
60.5266
60.2493
60.1054
59.6331
60.154
59.2988
60.455
59.3322
60.7519
60.3274
61.7802
60.9462
63.0867
61.1165
61.5753
60.9256
60.3322
60.2387
59.282
59.4556
58.767
59.0367
59.2672
59.7541
61.1599
61.4496
63.3771
63.1018
63.688
63.8537
64.451
63.6081
66.7475
63.6912
64.3457
64.0545
63.2022
63.2533
62.138
62.0747
61.236
61.0234
60.7847
60.6019
61.3484
61.1989
63.0544
62.9159
62.4223
63.7915
63.5099
63.201
67.7
63.811
64.4731
65.4234
64.1814
64.9077
63.8943
63.9377
63.379
62.9618
62.8389
62.2545
62.728
62.3409
64.0454
63.9589
57.3172
59.9766
58.8079
58.968
65.1718
60.8357
61.1678
63.8841
62.5909
63.9585
63.4658
63.7382
63.6504
63.4377
63.5281
63.1552
63.6172
63.4857
65.184
65.3145
43.1504
46.8194
44.6463
45.1376
53.914
48.7005
48.5082
53.5223
52.7956
54.6412
55.334
56.251
57.2742
58.0795
59.1263
59.925
61.1647
62.2446
64.4076
66.1552
21.4232
24.1816
21.2212
21.3158
29.563
25.1002
24.1029
28.1229
28.1356
28.209
28.8113
28.7301
29.329
29.5342
30.062
30.4887
31.3846
32.7747
34.8485
38.2813
15.2862
14.8832
15.0375
12.5144
15.1522
15.5648
17.1477
13.7577
14.9226
12.2883
12.5443
10.7702
10.5008
9.49823
9.29856
9.4734
10.4703
11.4004
12.2705
13.0597
38.9611
39.7674
40.0079
38.3591
40.1006
37.024
38.1723
34.9339
35.7495
33.2461
33.1017
31.2918
30.5951
29.2144
28.2687
26.7798
25.2926
24.3523
24.6499
24.0533
28.5097
31.1074
33.5958
33.3717
37.1878
36.7705
39.8181
38.4668
41.1241
41.8938
43.3971
44.0202
44.5595
45.0862
45.0102
44.3665
42.9757
42.2582
43.0088
43.4081
-4.40837
-3.71451
-0.678831
-2.08495
1.37506
0.702997
3.07568
3.62833
5.07443
6.16228
7.36983
8.55318
9.683
10.8714
11.9608
13.0767
14.5292
16.8718
19.3952
22.1626
-11.6946
-14.6654
-13.1563
-17.2659
-15.8687
-18.818
-18.7455
-20.3655
-20.9585
-21.9299
-22.5939
-23.1927
-23.5213
-23.4754
-22.9676
-22.0582
-21.1999
-20.0862
-19.0285
-16.4893
28.9044
23.8799
25.1736
17.729
16.9998
11.4931
8.62874
4.38778
0.911739
-2.78049
-6.17119
-9.39757
-12.2075
-14.4457
-15.9714
-17.0094
-17.8397
-18.716
-20.0811
-19.8878
42.9172
36.4493
44.365
37.3469
39.3819
35.9731
34.7481
32.1911
29.94
27.3799
24.8323
22.289
19.9454
18.0085
16.5975
15.5503
14.8142
14.296
13.3086
11.9814
51.3683
29.8569
38.1982
27.4478
25.0456
18.6835
14.0341
9.01447
4.68404
0.801891
-2.37173
-4.76281
-6.19882
-6.49865
-5.49711
-3.38361
-0.374358
3.92025
8.14621
9.83427
733.65
651.486
602.73
546.703
497.975
450.949
407.248
365.968
327.104
290.355
255.541
222.461
190.909
160.823
132.271
104.485
77.4884
55.276
30.5276
-6.28579
735.543
653.455
604.734
548.69
499.904
452.762
408.899
367.41
328.3
291.271
256.156
222.776
190.97
160.734
132.209
104.633
77.9754
56.1733
31.5851
-5.80027
56.3695
34.5282
42.8386
31.8984
29.4438
22.9701
18.2671
13.1881
8.82775
4.93502
1.77342
-0.593671
-2.02155
-2.30949
-1.16968
1.18757
4.16947
7.7918
10.9793
11.8437
37.679
30.3166
37.579
29.7344
30.836
26.4653
24.1379
20.4385
16.9462
13.0837
9.17872
5.215
1.41406
-1.93034
-4.41268
-5.94018
-7.0187
-7.23398
-8.4413
-9.06633
14.7415
9.88529
11.205
3.93445
3.30575
-2.08418
-4.75593
-8.80842
-12.0155
-15.3796
-18.3455
-21.0241
-23.1923
-24.6585
-25.2316
-24.9977
-24.5238
-24.0379
-23.8267
-22.073
-9.05937
-10.4804
-7.76472
-10.911
-7.95588
-9.64834
-8.02422
-8.15192
-7.33958
-6.68968
-5.82663
-4.82458
-3.88172
-2.6155
-2.04243
-0.632332
1.15286
3.66088
5.22275
7.32599
13.299
14.2668
16.5133
15.1429
18.255
17.1111
19.002
18.2096
19.4502
20.1234
21.0523
21.2488
22.6875
20.7495
19.3578
21.2203
21.5341
22.055
21.7465
22.5874
14.5656
15.3087
16.3919
14.8589
16.8896
15.1623
16.3505
15.6163
16.197
16.3313
15.908
17.4408
14.4657
25.2381
15.4976
14.1876
14.5951
14.6523
14.0635
16.3435
19.2399
20.3228
21.3749
20.4647
22.3262
21.1697
22.3902
21.8206
22.3218
22.6139
22.4878
23.1539
23.5887
22.786
22.2436
19.7468
21.4051
25.147
17.2103
21.2739
28.1933
29.502
30.4174
29.6145
31.6137
30.4415
32.1162
31.5988
32.6575
32.7281
33.6241
33.6044
34.8168
34.4332
35.696
36.1093
38.023
40.5693
38.7612
40.4797
39.906
41.7189
42.5091
42.4593
44.0445
43.8278
45.0477
44.961
45.8048
45.9724
46.8902
47.3799
48.3493
48.9408
49.8097
50.5304
51.2841
52.5953
53.647
56.1542
51.1963
53.4153
53.8976
54.233
55.4688
55.2991
56.2954
56.1776
56.7461
56.7891
57.2101
57.4295
57.7854
58.0618
58.5004
58.8723
59.6238
60.2362
61.9119
63.1379
61.1151
63.2844
63.634
64.342
65.1147
65.0387
65.7144
65.5721
65.9393
65.8394
65.9903
65.9121
65.9912
65.8705
66.1234
66.0365
66.7776
66.989
68.9331
69.4142
67.6202
69.1691
69.6232
70.632
70.8482
70.8259
71.0327
70.7821
70.9348
70.6293
70.6781
70.3317
70.3735
69.934
70.1801
69.6269
70.3424
70.0406
71.8526
72.14
72.0644
72.6708
73.2907
74.2952
73.9628
73.9329
73.6609
73.263
73.1177
72.6226
72.5573
72.0626
72.113
71.5824
71.893
71.2217
72.0196
71.4477
73.2086
73.3923
71.0331
71.1699
72.1426
73.356
72.8389
72.9983
72.5897
72.3289
72.1111
71.7502
71.7213
71.433
71.6118
71.4149
71.9153
71.8103
72.9245
72.8853
74.88
75.2356
77.5203
77.3518
78.6531
80.0825
79.502
79.77
79.1921
79.0399
78.6779
78.4321
78.3359
78.1898
78.3815
78.4493
79.0873
79.4729
80.8581
81.3028
83.1784
83.322
75.4134
75.1789
76.5404
78.1324
77.4206
77.8869
77.1811
77.2714
76.8682
76.856
76.7364
76.7385
76.9208
77.0293
77.6109
77.8351
78.945
78.905
80.3398
79.8504
86.2689
84.545
85.0748
85.9097
84.3431
84.339
82.9168
82.4738
81.2753
80.5941
79.4873
78.5246
77.3948
76.0074
74.8232
72.9667
72.2924
70.4942
71.3691
70.0131
55.4234
54.5683
54.6019
56.0782
54.4512
54.447
52.7762
52.3764
51.2007
50.8651
50.1433
49.8033
49.2041
48.5521
47.754
46.5753
46.216
45.2253
46.9318
47.2501
105.732
104.433
102.665
103.695
100.245
98.36
95.0235
92.6329
89.6523
87.6122
85.6759
84.1005
82.8524
81.5727
80.7643
79.5343
79.0562
77.7285
78.7177
78.7197
)
;

boundaryField
{
    outletWall
    {
        type            fixedValue;
        value           uniform 0;
    }
    fineWalls
    {
        type            zeroGradient;
    }
    fineFrontAndBack
    {
        type            zeroGradient;
    }
    fineplugLeft
    {
        type            cyclicAMI;
        value           nonuniform List<scalar> 
20
(
61.2728
61.517
60.6564
61.6841
61.3926
62.108
62.3219
63.1003
63.8089
64.8835
66.0311
67.4135
69.1941
77.5698
76.2864
76.8834
78.6906
78.4521
75.767
72.5883
)
;
    }
    fineplugRight
    {
        type            cyclicAMI;
        value           nonuniform List<scalar> 
20
(
67.7737
67.0634
64.0132
64.4071
64.3124
65.4209
66.186
67.4825
68.7262
70.2798
72.1203
73.9383
76.4289
85.3601
84.8099
84.7564
87.217
86.5743
85.372
82.4694
)
;
    }
    inletOutletLeft
    {
        type            cyclicAMI;
        value           nonuniform List<scalar> 
20
(
61.2728
61.517
60.6564
61.6841
61.3926
62.108
62.3219
63.1003
63.8089
64.8835
66.0311
67.4135
69.1941
77.5698
76.2864
76.8834
78.6906
78.4521
75.767
72.5883
)
;
    }
    inletLeft
    {
        type            zeroGradient;
    }
    inletWallsLeft
    {
        type            zeroGradient;
    }
    inletFacesLeft
    {
        type            zeroGradient;
    }
    inletOutletRight
    {
        type            cyclicAMI;
        value           nonuniform List<scalar> 
20
(
67.7737
67.0634
64.0132
64.4071
64.3124
65.4209
66.186
67.4825
68.7262
70.2798
72.1203
73.9383
76.4289
85.3601
84.8099
84.7564
87.217
86.5743
85.372
82.4694
)
;
    }
    inletRight
    {
        type            zeroGradient;
    }
    inletWallsRight
    {
        type            zeroGradient;
    }
    inletFacesRight
    {
        type            zeroGradient;
    }
}


// ************************************************************************* //
