/*--------------------------------*- C++ -*----------------------------------*\
| =========                 |                                                 |
| \\      /  F ield         | OpenFOAM: The Open Source CFD Toolbox           |
|  \\    /   O peration     | Version:  4.1                                   |
|   \\  /    A nd           | Web:      www.OpenFOAM.org                      |
|    \\/     M anipulation  |                                                 |
\*---------------------------------------------------------------------------*/
FoamFile
{
    version     2.0;
    format      ascii;
    class       surfaceScalarField;
    location    "14";
    object      phi;
}
// * * * * * * * * * * * * * * * * * * * * * * * * * * * * * * * * * * * * * //

dimensions      [0 3 -1 0 0 0 0];

internalField   nonuniform List<scalar> 
2360
(
-1054.55
722.897
-1777.45
722.897
722.897
2436.07
-1713.17
2436.07
2436.07
2436.07
4309.25
-1873.19
4309.25
4309.25
6539.32
-2230.06
6539.32
6539.32
9165.36
-2626.05
9165.36
9165.36
13019
-3853.61
13019
13019
14104.2
15841.1
17460.5
18841.6
20178.7
21507.7
17773.3
5041.78
19000.2
20128.7
21147.8
22061.4
22881.7
23618.9
24282.4
24874.4
25404.8
25882.6
26350.8
26890.9
27477.2
12474.9
15002.3
12474.9
12474.9
12474.9
-9.2009
12484.1
-9.20066
-9.20137
-9.20077
-704.196
694.994
-704.195
-704.197
-896.538
192.343
-896.541
-896.539
-896.542
-13332.5
12435.9
-13332.5
-13332.5
-13332.5
-27447.6
14115.1
-26494.4
-25406.3
-24595.6
-24024.6
-23542.7
-23058
-22518.6
-21909.4
-21217.3
-20433.3
-19543.6
-18540.4
-17417
-21010.2
4829.24
-19708.7
-18382.4
-17007.5
-15515.5
-13821.8
-12776.8
-12776.8
-12776.9
-9559.61
-3217.24
-9559.61
-9559.61
-7615.27
-1944.34
-7615.27
-7615.27
-6067.27
-1548.01
-6067.27
-6067.26
-4916.55
-1150.72
-4916.55
-4916.55
-4916.54
-4086.23
-830.316
-4086.23
-4086.23
-3457.56
-628.67
-2426.98
1012.15
-2672.33
677.399
-3300.47
-6192.4
-3680.16
-8505.82
-3522.45
-6814.85
-2831.61
-4323.83
-1997.03
-1968.97
-1433.88
69.477
-1082.51
1734.51
-728.687
3290.83
-409.368
4582.28
-99.218
5035.42
192.28
4362.33
485.642
2969.2
721.736
1757.65
898.116
2030.98
937.935
2176.42
988.15
4086.07
4409.14
-3027.34
779.302
-3294.39
944.45
-4210.17
-5276.62
-4760.99
-7955.01
-4697.05
-6878.79
-3985.02
-5035.87
-2900.24
-3053.75
-1915.57
-915.187
-1226.34
1045.28
-747.215
2811.7
-432.852
4267.91
-153.491
4756.06
135.017
4073.82
501.883
2602.33
816.518
1443.02
999.7
1847.8
1010.51
2165.61
1029.29
4067.29
4608.11
-3852.49
541.802
-4123.65
1215.62
-5121.55
-4278.73
-5829.28
-7247.27
-6000.19
-6707.88
-5405.16
-5630.89
-4147.32
-4311.59
-2725.83
-2336.68
-1631.62
-48.9369
-950
2130.09
-589.973
3907.89
-350.498
4516.59
-18.4607
3741.78
482.78
2101.09
925.479
1000.32
1183.77
1589.51
1182
2167.39
1140.2
4109.09
4597.59
-4791.86
315.65
-5108.12
1531.88
-6377.5
-3009.34
-7514.41
-6110.36
-8092.73
-6129.57
-7693.03
-6030.59
-6238.59
-5766.03
-4099.77
-4475.5
-2148.72
-1999.99
-991.275
972.639
-602.846
3519.46
-591.42
4505.16
-306.687
3457.05
319.37
1475.04
811.61
508.076
1120.57
1280.55
1187.29
2100.67
1263.25
4033.13
4312.83
-5766.88
353.387
-6354.01
2119.01
-7972.63
-1390.72
-9650.71
-4432.28
-10714.3
-5066
-10708.5
-6036.36
-9459.8
-7014.75
-7043.46
-6891.84
-4018.46
-5024.98
-1616.71
-1429.11
-760.761
2663.5
-893.85
4638.25
-717.072
3280.27
-85.5412
843.506
375.436
47.0991
879.301
776.682
1196.29
1783.68
1357.84
3871.58
3726.33
-6641.33
897.42
-7787.39
3265.06
-9821.54
643.432
-11940.1
-2313.68
-13305.1
-3701.04
-13654.4
-5687.11
-12876.7
-7792.44
-10867.5
-8901.03
-7669.59
-8222.87
-4098.88
-4999.81
-1873.23
437.854
-1530.03
4295.04
-1639.41
3389.66
-1534.79
738.878
-1103.7
-383.986
-190.73
-136.289
213.207
1379.74
1279.18
2805.6
1788.27
-7401.35
1859.02
-9064.6
4928.32
-11444.2
3023.06
-13716.3
-41.624
-14982.9
-2434.39
-15372
-5298.07
-15022.4
-8141.99
-13832.8
-10090.7
-11392.4
-10663.2
-7601.57
-8790.66
-3903.77
-3259.95
-2635.35
3026.63
-3014.99
3769.3
-2588
311.887
-1430.16
-1541.82
-370.647
-1195.81
853.418
155.673
1705.14
1953.88
8322.65
-7864.07
2901.01
-9651.64
6715.89
-12099.6
5471.03
-14225.2
2083.95
-14999.9
-1659.71
-14987.9
-5310.09
-14841.8
-8288.01
-14648.4
-10284.1
-13781
-11530.6
-11338.5
-11233.2
-7282.68
-7315.76
-3965.74
-290.314
-3055.21
2858.77
-3583.46
840.138
-4676.1
-449.178
-5207.35
-664.552
-5551.28
499.595
-8376.27
4778.87
14061.5
-7897.55
3741.85
-9390.52
8208.86
-11578.4
7658.9
-13307.8
3813.4
-13384.2
-1583.3
-12730.6
-5963.72
-12525.9
-8492.75
-13057.4
-9752.6
-13741.1
-10846.8
-13525.9
-11448.4
-11567
-9274.63
-8903.33
-2954.01
-8860.19
2815.62
-12004.6
3984.59
-14901.6
2447.79
-15863.4
297.243
-15754.2
390.433
-15207.2
4231.79
11290.3
-7903.6
4257.99
-8887.05
9192.31
-10639.4
9411.21
-11800.5
4974.57
-11187.3
-2196.53
-10041.1
-7109.88
-9657.68
-8876.21
-10320
-9090.3
-11835.8
-9331.03
-13502.4
-9781.79
-14290.2
-8486.9
-14178.6
-3065.59
-14569.9
3206.96
-15981.4
5396.08
-16832.6
3298.98
-16302.5
-232.882
-14802.3
-1109.71
-10722
151.461
760.656
-8606.25
4506.12
-9065.19
9651.25
-10182.3
10528.3
-10542.7
5335.03
-9307.21
-3432.06
-7950.96
-8466.13
-7460.55
-9366.62
-7745.34
-8805.52
-9076.14
-8000.22
-11553.5
-7304.39
-13852.9
-6187.51
-14920.9
-1997.64
-15707.4
3993.47
-16664.4
6353.03
-17034.8
3669.44
-16404.2
-863.539
-14569.2
-2944.66
-10088.1
-4329.66
-8632.44
-10167.3
4700.89
-10252.3
9736.2
-10410.3
10686.4
-9432.91
4357.6
-7379.67
-5485.3
-5976.64
-9869.15
-5663.48
-9679.77
-5770.58
-8698.42
-6297.5
-7473.29
-8285.1
-5316.79
-11837
-2635.63
-14397.8
563.178
-15398.3
4994.01
-15900.5
6855.14
-15649.8
3418.74
-15170.7
-1342.55
-15613.6
-2501.81
-15743.6
-4199.61
-11891.9
-11748.6
5024
-11617.3
9604.86
-10567.7
9636.79
-7987.73
1777.6
-5359.14
-8113.89
-4225.42
-11002.9
-4130.67
-9774.53
-4341.02
-8488.07
-4409.4
-7404.92
-4286.97
-5439.23
-6189.74
-732.855
-9722.19
4095.63
-11178
6449.84
-9905.59
5582.71
-6680.01
193.165
-4530.39
-3492.18
-5958.72
-1073.48
-10156.6
-1.74649
-7046.25
-12395.1
5463.35
-12035.5
9245.29
-9797.67
7398.92
-6272.52
-1747.55
-3953.01
-10433.4
-3387.28
-11568.6
-3342.19
-9819.61
-3373.18
-8457.08
-3464.76
-7313.35
-3267.54
-5636.45
-2946.14
-1054.25
-4654.65
5804.14
-6121.32
7916.51
-4606.53
4067.92
-2302.31
-2111.05
-816.034
-4978.46
970.532
-2860.05
1747.78
-778.99
-256.692
-11819.5
5904.39
-11186.5
8612.29
-8214.01
4426.41
-4773.75
-5187.82
-3214.39
-11992.8
-3019.4
-11763.6
-2958.68
-9880.33
-2863.04
-8552.72
-2697.55
-7478.83
-2466.39
-5867.6
-1411.15
-2109.49
-825.848
5218.84
-1420.75
8511.41
-875.469
3522.64
50.817
-3037.34
355.195
-5282.84
708.074
-3212.93
2184.79
-2255.7
-1925.51
-10336.3
6266.26
-9522.53
7798.49
-6461.19
1365.07
-3653.01
-7996
-2720.67
-12925.1
-2583.93
-11900.3
-2397.31
-10067
-2313.24
-8636.8
-2239.81
-7552.27
-1988.47
-6118.95
-872.854
-3225.1
1448.73
2897.25
2777.59
7182.55
2872.55
3427.69
2607.93
-2772.72
2135.81
-4810.72
2072.53
-3149.64
2351.92
-2535.1
-2199.63
-8550.34
6497.94
-7616.08
6864.23
-4843.86
-1407.15
-2823.98
-10015.9
-2353.13
-13396
-2166.31
-12087.1
-1864.19
-10369.1
-1673.09
-8827.9
-1575.5
-7649.85
-1328.53
-6365.92
-395.651
-4157.98
2071.95
429.651
4266.74
4987.76
4724.76
2969.67
4010.79
-2058.75
3026
-3825.92
2510.33
-2633.98
2367.11
-2391.88
-2062.59
-6916.1
6563.15
-5893.2
5841.32
-3597.71
-3702.64
-2297.99
-11315.6
-2092.01
-13601.9
-1844.22
-12334.9
-1528.69
-10684.6
-1256.4
-9100.19
-1027.26
-7879
-733.711
-6659.47
-23.0769
-4868.62
1756.57
-1350
3669.18
3075.15
4404.64
2234.2
3855.89
-1510
3045.23
-3015.27
2586.74
-2175.49
2261.63
-2066.76
-1674.15
-5800.08
6482.18
-4599.76
4641
-2785.89
-5516.5
-2052.31
-12049.2
-1899.15
-13755.1
-1626.78
-12607.3
-1338.78
-10972.6
-1051.77
-9387.2
-754.222
-8176.54
-419.786
-6993.91
121.173
-5409.57
1236.06
-2464.88
2561.82
1749.39
3296.22
1499.8
3051.03
-1264.82
2536.76
-2500.99
2223.29
-1862.02
1985.87
-1829.34
-1401.45
-4732.96
-3656.26
-2456.63
-1997.18
-1766.65
-1511.08
-1240.61
-959.77
-652.266
-315.898
109.562
769.306
1543.03
2072.05
2143.72
2055.18
1991.26
1919.57
326.51
-1411.71
600.706
-2011.14
732.807
-1751.49
783.815
-1432.15
919.204
-1472.46
1071.11
-1480.92
1135.85
-1372.13
1141.42
-1232.42
1076.21
-1063.31
960.36
-903.272
818.625
-771.887
663.178
-664.784
497.476
-571.521
323.777
-489.775
150.714
-419.004
-1.95788
-377.751
-94.4836
-385.209
-79.1128
-483.586
20.4138
-639.657
-565.878
219.956
-1631.67
202.503
-1993.69
139.854
-1688.85
62.0556
-1354.36
68.1989
-1478.61
104.259
-1516.98
34.7428
-1302.62
-75.8342
-1121.84
-232.186
-906.956
-399.193
-736.268
-558.101
-612.982
-706.162
-516.725
-843.4
-434.285
-962.948
-370.23
-1042.77
-339.184
-1044.52
-376.008
-911.358
-518.367
-613.842
-781.103
-235.409
-1018.09
-801.287
23.0433
-1654.72
2.10101
-1972.75
33.9859
-1720.73
49.0642
-1369.44
30.1568
-1459.7
36.5058
-1523.34
-78.391
-1187.72
-155.305
-1044.93
-218.364
-843.899
-254.828
-699.807
-287.549
-580.263
-328.896
-475.381
-385.128
-378.055
-444.42
-310.94
-487.484
-296.121
-484.374
-379.12
-414.663
-588.08
-286.587
-909.18
-157.636
-1147.05
-958.923
-24.7065
-1630.02
-12.6973
-1984.76
23.7563
-1757.19
30.8305
-1376.51
3.90242
-1432.78
5.75421
-1525.19
-60.8456
-1121.13
-47.1476
-1058.63
16.5155
-907.563
124.104
-807.396
239.684
-695.844
349.336
-585.035
430.915
-459.635
474.851
-354.878
470.287
-291.559
414.696
-323.53
305.997
-479.381
159.977
-763.162
0.340629
-987.411
-958.582
-36.8608
-1593.16
-46.6655
-1974.96
-30.0383
-1773.82
-33.5561
-1373
-55.5232
-1410.81
-60.9046
-1519.81
-82.9222
-1099.11
-60.1479
-1081.41
9.22099
-976.935
119.392
-917.571
251.357
-827.812
403.272
-736.952
555.788
-612.154
686.342
-485.435
755.8
-361.019
731.789
-299.52
596.728
-344.321
373.862
-540.297
137.463
-751.013
-821.119
-13.3562
-1579.81
-23.9342
-1964.39
-0.189094
-1797.57
9.4034
-1382.6
-5.19413
-1396.22
-12.251
-1512.75
-3.95623
-1107.41
-8.71736
-1076.65
9.86485
-995.518
42.4355
-950.143
83.0965
-868.474
140.654
-794.511
217.268
-688.769
310.17
-578.337
389.435
-440.285
420.835
-330.92
367.768
-291.255
237.183
-409.713
107.696
-621.527
-713.423
2.50772
-1582.32
-12.0219
-1949.86
2.90191
-1812.5
15.8651
-1395.56
14.4624
-1394.81
7.1554
-1505.45
39.1373
-1139.39
34.3097
-1071.82
35.2308
-996.44
34.1396
-949.053
31.3258
-865.661
28.8072
-791.994
36.0554
-696.019
60.1281
-602.411
100.642
-480.8
142.164
-372.442
149.233
-298.325
114.542
-375.023
70.1379
-577.124
-643.285
26.8381
-1609.15
9.26588
-1932.29
18.4134
-1821.64
39.1815
-1416.33
45.5165
-1401.15
33.6716
-1493.6
68.5459
-1174.26
77.4744
-1080.75
83.0991
-1002.06
83.554
-949.508
87.1293
-869.236
87.125
-791.989
91.4276
-700.321
98.3681
-609.351
119.671
-502.103
150.948
-403.719
176.284
-323.661
169.385
-368.123
110.609
-518.348
-532.676
55.2884
-1664.45
41.3073
-1918.31
48.3877
-1828.73
87.2063
-1455.15
104.343
-1418.29
95.747
-1485.01
134.15
-1212.67
164.778
-1111.38
192.182
-1029.47
208.604
-965.933
226.212
-886.846
237.278
-803.058
249.634
-712.679
259.859
-619.579
277.248
-519.493
297.319
-423.792
314.221
-340.564
287.242
-341.145
177.504
-408.612
-355.172
67.5993
-1732.05
66.8444
-1917.55
68.8077
-1830.69
134.637
-1520.98
171.909
-1455.56
164.087
-1477.19
227.229
-1275.81
286.792
-1170.94
346.296
-1088.98
387.399
-1007.04
424.336
-923.784
450.203
-828.925
470.366
-732.842
483.296
-632.51
494.218
-530.415
498.74
-428.313
490.321
-332.144
427.211
-278.035
259.454
-240.854
-95.7176
55.5556
-1787.61
73.1849
-1935.19
56.5317
-1814.04
139.342
-1603.8
204.373
-1520.59
188.858
-1461.68
272.759
-1359.71
348.463
-1246.65
426.781
-1167.29
491.529
-1071.79
553.415
-985.67
605.632
-881.142
652.056
-779.265
688.931
-669.385
709.395
-550.878
698.137
-417.056
652.812
-286.818
534.7
-159.921
275.333
18.5143
179.616
21.8023
-1809.41
38.5314
-1951.91
27.7478
-1803.26
62.1779
-1638.23
99.0911
-1557.51
85.1223
-1447.71
117.384
-1391.97
149.693
-1278.96
175.169
-1192.77
198.976
-1095.59
218.251
-1004.94
231.495
-894.385
238.774
-786.543
228.412
-659.022
158.098
-480.561
4.34029
-263.296
-127.424
-155.052
-183.604
-103.738
-153.322
-11.7633
26.2936
-4.427
-1804.98
-12.9079
-1943.43
-17.6294
-1798.54
-30.5975
-1625.26
-37.5163
-1550.59
-59.3678
-1425.86
-99.0184
-1352.32
-139.17
-1238.81
-188.149
-1143.79
-236.047
-1047.7
-288.307
-952.683
-336.806
-845.886
-384.02
-739.327
-433.931
-609.112
-508.275
-406.216
-617.963
-153.607
-689.466
-83.5477
-582.794
-210.41
-311.309
-283.247
-285.015
66.1697
-1871.15
72.3663
-1949.63
94.7901
-1820.96
111.066
-1641.53
129.353
-1568.87
137.543
-1434.05
134.787
-1349.56
135.443
-1239.46
135.729
-1144.07
136.856
-1048.82
138.719
-954.544
148.231
-855.397
160.113
-751.208
181.817
-630.815
250.482
-474.88
373.605
-276.728
440.544
-150.486
406.718
-176.581
266.032
-142.557
-18.983
120.394
-1991.54
115.888
-1945.12
158.46
-1863.53
205.151
-1688.22
261.869
-1625.59
323.946
-1496.12
386.727
-1412.34
458.833
-1311.56
540.067
-1225.3
626.477
-1135.23
715.875
-1043.94
801.08
-940.599
866.075
-816.201
898.02
-662.758
909.642
-486.501
929.371
-296.457
899.002
-120.117
669.449
52.974
356.442
170.453
337.459
63.6617
-2055.2
24.03
-1905.49
31.8701
-1871.36
46.6459
-1702.99
66.2355
-1645.17
93.5399
-1523.42
128.997
-1447.8
172.231
-1354.79
223.737
-1276.81
282.218
-1193.7
342.475
-1104.19
390.482
-988.602
403.757
-829.471
359.829
-618.825
258.376
-385.041
164.774
-202.845
146.709
-102.038
137.9
61.7964
52.7472
255.615
390.206
-44.5898
-2010.61
-124.257
-1825.82
-180.319
-1815.3
-224.945
-1658.36
-269.091
-1601.03
-298.628
-1493.88
-326.745
-1419.68
-345.169
-1336.37
-358.808
-1263.16
-366.228
-1186.28
-370.397
-1100.02
-373.855
-985.141
-378.531
-824.793
-378.531
-618.821
-361.675
-401.892
-328.454
-236.061
-302.302
-128.182
-255.791
15.291
-194.205
194.034
196.001
-175.415
-1835.19
-373.741
-1627.49
-538.093
-1650.94
-669.976
-1526.48
-792.094
-1478.91
-888.214
-1397.76
-973.597
-1334.29
-1043.41
-1266.55
-1103.02
-1203.55
-1149.73
-1139.58
-1178.39
-1071.36
-1173.3
-990.231
-1109.96
-888.13
-964.797
-763.983
-740.294
-626.393
-495.869
-480.484
-308.448
-315.601
-174.89
-118.263
-50.5903
69.74
145.411
-196.943
-1638.25
-444.225
-1380.21
-702.633
-1392.53
-923.276
-1305.84
-1136.26
-1265.92
-1319.92
-1214.1
-1483.53
-1170.68
-1623.06
-1127.01
-1740.87
-1085.74
-1835.07
-1045.38
-1900.67
-1005.76
-1925.35
-965.545
-1891.01
-922.474
-1782.33
-872.661
-1596.8
-811.921
-1339.41
-737.878
-1009.97
-645.032
-616.836
-511.4
-232.72
-314.374
-87.3094
-663.244
-1068.45
-1485.98
-1816.82
-2107.74
-2346.84
-2542.52
-2694.54
-2805.27
-2875.65
-2906.41
-2896.95
-2844.43
-2742.09
-2579.01
-2341.89
-2011.92
-1548.32
-887.691
-660.341
1635.34
-1065.17
1379.83
-1482.39
1392.22
-1814.44
1307.05
-2107.67
1268.23
-2350.38
1217.71
-2550.87
1175.48
-2708.87
1133.01
-2826.92
1093.05
-2906.11
1054.19
-2946.71
1015.6
-2946.4
974.69
-2899.37
927.974
-2795.35
870.974
-2619.42
799.077
-2356.56
712.14
-1995.08
613.516
-1511.62
491.547
-863.095
326.473
111.905
-214.578
1849.92
-480.114
1645.37
-757.874
1669.99
-999.734
1548.91
-1234.54
1503.05
-1441.34
1424.51
-1628.95
1363.1
-1793.76
1297.82
-1938.43
1237.72
-2061.67
1177.43
-2159.34
1113.27
-2218.98
1034.33
-2215.59
924.58
-2110.49
765.882
-1870.63
559.215
-1504.37
345.88
-1061.23
170.379
-595.555
25.8711
-188.889
-80.1905
-76.984
-187.15
2037.08
-391.862
1850.08
-563.426
1841.55
-698.107
1683.6
-822.937
1627.88
-917.818
1519.4
-1000.37
1445.65
-1063.82
1361.27
-1114.44
1288.34
-1150.19
1213.18
-1170.12
1133.2
-1168.41
1032.62
-1133.59
889.766
-1046.24
678.534
-890.908
403.881
-675.799
130.772
-619.631
114.212
-444.925
-148.832
-252.519
-272.595
-329.503
-6.20528
2043.28
-72.712
1916.59
-103.674
1872.51
-117.8
1697.72
-128.701
1638.78
-122.845
1513.54
-110.522
1433.33
-84.3138
1335.06
-46.5086
1250.53
2.75968
1163.92
58.4947
1077.47
110.095
981.023
134.454
865.409
97.871
715.119
-10.7686
512.525
-158.071
278.108
55.7145
-99.5378
-50.3947
-42.7153
-97.7161
-225.269
-427.219
90.3181
1952.97
76.0288
1930.88
107.769
1840.78
145.441
1660.05
186.908
1597.31
238.917
1461.53
296.827
1375.42
358.187
1273.7
421.979
1186.74
492.334
1093.56
569.964
999.84
647.81
903.178
739.94
773.281
877.145
577.915
826.631
563.042
616.959
487.783
201.715
315.71
69.8915
89.114
58.917
-214.29
-368.301
59.7097
1893.25
53.8577
1936.73
72.1034
1822.53
86.4605
1645.69
103.586
1580.19
126.645
1438.47
151.207
1350.86
180.123
1244.78
197.649
1169.22
219.301
1071.91
241.525
977.617
302.873
841.828
331.498
744.658
374.962
534.452
293.937
644.069
249.267
532.456
149.439
415.544
85.953
152.609
-7.0202
-121.31
-375.322
33.133
1860.12
35.7077
1934.15
48.7085
1809.53
55.0482
1639.35
62.9784
1572.26
58.0109
1443.44
45.2395
1363.63
51.134
1238.88
62.325
1158.02
84.3974
1049.83
107.427
954.582
166.225
783.029
159.742
751.141
62.6639
631.53
-60.0909
766.828
-30.0127
502.385
36.5072
349.037
81.3128
107.824
-73.2205
33.2389
-448.542
39.3914
1820.73
33.7026
1939.84
44.7737
1798.45
48.6524
1635.47
54.2903
1566.62
46.2799
1451.45
34.4723
1375.44
32.283
1241.07
47.1651
1143.14
76.861
1020.13
125.363
906.079
170.072
738.313
256.622
664.592
334.004
554.146
396.176
704.657
352.895
545.667
370.89
331.044
251.393
227.324
116.203
168.437
-332.339
84.5516
1736.18
65.315
1959.07
77.4222
1786.35
88.8349
1624.06
104.718
1550.73
116.014
1440.15
130.535
1360.92
136.825
1234.78
151.732
1128.23
168.787
1003.07
197.228
877.639
197.49
738.052
243.391
618.694
284.711
512.826
439.31
550.06
492.733
492.246
449.63
374.15
352.269
324.688
296.126
224.585
-36.2128
132.619
1603.55
108.895
1982.79
111.041
1784.2
124.132
1610.96
147.942
1526.92
173.785
1414.3
207.123
1327.58
230.087
1211.81
250.003
1108.32
258.178
994.895
256.075
879.742
226.448
767.677
189.823
655.319
163.623
539.026
271.906
441.777
389.399
374.753
425.317
338.232
387.515
362.491
259.752
352.349
223.539
149.295
1454.26
139.276
1992.81
132.869
1790.61
142.774
1601.06
167.878
1501.82
198.842
1383.34
238.89
1287.53
273.658
1177.04
301.85
1080.13
316.01
980.734
313.398
882.354
291.368
789.706
251.47
695.217
218.156
572.34
239.556
420.377
280.832
333.477
301.72
317.344
280.752
383.459
174.995
458.106
398.534
118.351
1335.9
122.457
1988.7
117.333
1795.73
121.204
1597.18
138.897
1484.12
162.688
1359.55
194.071
1256.14
225.254
1145.86
251.959
1053.42
269.181
963.509
275.701
875.831
275.038
790.366
271.849
698.403
268.06
576.126
257.104
431.331
239.581
350.999
232.653
324.271
212.387
403.725
131.863
538.628
530.398
63.4138
1272.49
71.7389
1980.38
77.0248
1790.44
76.0001
1598.2
83.9696
1476.15
94.0062
1349.51
106.169
1243.98
119.096
1132.93
133.795
1038.72
148.31
948.992
164.063
860.077
183.533
770.895
206.314
675.621
212.724
569.714
190.022
454.032
163.566
377.454
159.672
328.165
152.068
411.328
96.0785
594.616
626.476
22.9056
1249.58
30.0217
1973.26
43.9385
1776.52
40.8645
1601.28
47.5129
1469.5
55.5605
1341.46
61.3426
1238.19
62.0489
1132.22
66.7318
1034.03
77.0499
938.671
93.056
844.068
110.558
753.39
120.178
665.999
106.846
583.043
76.4423
484.434
60.4898
393.405
61.8283
326.825
65.103
408.052
49.418
610.299
675.894
11.7861
1237.79
23.6332
1961.41
51.748
1748.4
56.3796
1596.64
73.4133
1452.47
93.7364
1321.13
114.113
1217.82
122.932
1123.4
127.216
1029.74
129.213
936.672
127.393
845.887
118.424
762.358
101.418
683.003
81.5333
602.927
66.0267
499.939
60.0287
399.401
46.7545
340.098
25.9209
428.885
16.1169
620.101
692.011
-9.67814
1247.46
-0.242916
1951.97
35.87
1712.29
45.7667
1586.74
65.6326
1432.6
85.9828
1300.78
118.125
1185.67
143.691
1097.83
159.614
1013.82
165.868
930.415
166.541
845.211
168.71
760.187
183.585
668.126
217.061
569.449
256.595
460.404
276.567
379.427
247.151
369.514
164.779
511.256
71.4624
713.417
763.473
-34.6123
1282.07
-28.5391
1945.9
6.04162
1677.7
11.1756
1581.61
9.25047
1434.52
-2.37469
1312.41
10.8311
1172.47
42.3487
1066.31
85.0195
971.148
133.522
881.912
192.824
785.908
267.508
685.502
359.168
576.465
457.157
471.46
536.095
381.464
562.322
353.2
502.82
429.015
350.723
663.352
153.919
910.221
917.392
-49.9514
1332.03
-48.7662
1944.71
-8.16207
1637.1
13.3682
1560.08
1.99399
1445.9
-29.5153
1343.91
-42.4779
1185.43
-19.3721
1043.2
43.5464
908.229
137.772
787.685
256.407
667.273
386.943
554.966
515.385
448.022
623.275
363.569
683.59
321.149
664.335
372.455
541.807
551.542
337.577
867.582
109.98
1137.82
1027.37
76.082
1255.94
81.7721
1939.02
82.9608
1635.91
117.548
1525.49
111.935
1451.51
68.8917
1386.96
10.5065
1243.81
-39.3403
1093.05
-67.6487
936.537
-74.319
794.355
-68.0495
661.003
-58.8179
545.734
-53.9866
443.191
-54.9061
364.488
-56.85
323.094
-54.0833
369.688
-44.2529
541.712
-39.4894
862.82
-61.6652
1159.99
965.707
211.03
456.309
600.215
750.858
875.991
961.459
969.27
938.884
872.207
776.864
653.89
507.51
341.534
166.658
5.04591
-107.208
-136.518
-84.4057
-12.4339
)
;

boundaryField
{
    outletWall
    {
        type            calculated;
        value           nonuniform List<scalar> 
60
(
-3457.56
-4049.66
-4136.29
-2216.24
-2207.36
-1993.74
-3262.56
-4653.83
-5345.57
-4901.6
-3644.65
-2085.89
-632.622
1134.39
3633
6657.15
8885.51
6820.53
-432.048
-1102.55
4941.93
5881.04
6850.89
8318.67
9974.45
11378.5
11955.8
11425.5
9972.56
8358.13
7387.45
7056.71
6822.07
6439.75
6097.3
5729.14
5018.01
4089.99
3260.19
2517.38
1054.55
-1259.33
-1757.65
-1798.09
-2412.45
-1336.49
970.777
975.67
-3124.63
-5835.03
-7330.27
-8484.04
-9668.03
-11243.1
-12862.9
-13985.6
-12508.6
-6716.13
3564.31
6273.21
)
;
    }
    fineWalls
    {
        type            calculated;
        value           uniform 0;
    }
    fineFrontAndBack
    {
        type            calculated;
        value           nonuniform List<scalar> 
960
(
-4.49215e-13
2.59068e-13
3.85193e-13
2.44512e-13
7.65367e-13
1.45014e-13
1.95563e-13
1.6157e-13
3.13333e-13
7.35382e-14
1.56962e-13
5.31616e-14
-1.92529e-13
-2.40675e-13
-4.08559e-12
-1.12154e-12
-1.27063e-12
-3.24045e-12
-5.78775e-13
-6.68197e-13
-5.84415e-14
-1.25539e-13
-1.41728e-13
-1.76061e-13
-1.94526e-13
-2.59521e-13
-3.10089e-12
-4.23496e-13
-4.66771e-13
-5.14002e-13
-5.61556e-13
-6.19285e-13
-6.83508e-13
-7.57445e-13
-8.34136e-13
-9.26754e-13
-1.01214e-12
-1.11591e-12
-1.14996e-12
-8.79668e-13
-2.27006e-11
-3.18405e-12
-2.90811e-12
-2.65396e-12
-7.31367e-12
-5.61947e-12
-6.06453e-12
7.38277e-12
1.98448e-10
-8.1032e-12
5.4862e-13
6.58195e-11
1.50309e-11
1.52727e-11
6.82687e-12
1.39424e-11
2.01685e-12
2.039e-12
1.93915e-12
1.31696e-11
5.63674e-13
6.70636e-13
8.11286e-13
8.21407e-13
7.68702e-13
6.74996e-13
5.77979e-13
4.85758e-13
4.04354e-13
3.32653e-13
2.66491e-13
2.12404e-13
1.59935e-13
-5.58526e-12
-3.52562e-14
-1.23319e-13
-1.58489e-13
-2.22665e-13
-3.02521e-13
-5.44132e-13
-2.89293e-12
-3.05772e-12
-1.71495e-11
-2.81303e-12
-3.00915e-12
-1.51579e-11
-1.99421e-12
-2.2819e-12
-1.14811e-11
-1.38875e-12
-1.62636e-12
-8.03433e-12
-4.97705e-13
-6.05553e-13
-6.00093e-13
-3.73805e-12
-1.62865e-13
-2.45081e-13
-1.50788e-12
2.06184e-13
-5.95714e-11
-7.93451e-11
-5.3282e-11
-4.42057e-11
-2.99232e-11
-2.20887e-11
-6.31427e-12
-1.0095e-11
-2.34291e-11
-2.7802e-11
-3.06516e-11
-4.13217e-11
-5.25076e-11
-5.39376e-11
-5.14202e-11
-4.72686e-11
-4.38592e-11
-3.61211e-11
-2.7248e-11
-4.37197e-11
-8.33046e-11
-5.59046e-11
-5.1778e-11
-5.29142e-11
-5.36437e-11
-2.36877e-11
1.22767e-11
6.19704e-12
-1.41458e-11
-2.72124e-11
-4.18478e-11
-5.12444e-11
-5.17159e-11
-5.11734e-11
-4.80894e-11
-4.51899e-11
-3.73212e-11
-2.82399e-11
-3.47094e-11
-6.89951e-11
-6.03031e-11
-6.29496e-11
-6.6844e-11
-6.7452e-11
-5.51884e-11
-2.50798e-11
8.61969e-12
1.96446e-12
-1.50714e-11
-3.29107e-11
-4.85472e-11
-4.89443e-11
-5.10188e-11
-4.6289e-11
-4.26435e-11
-3.74624e-11
-2.9645e-11
-1.54139e-11
-4.94931e-11
-6.36584e-11
-6.92904e-11
-6.23499e-11
-5.4401e-11
-5.73227e-11
-6.67715e-11
-7.14657e-11
-5.59975e-11
-2.36834e-11
-2.31179e-11
-4.08708e-11
-4.38499e-11
-4.64272e-11
-4.29339e-11
-3.94592e-11
-3.60736e-11
-3.05239e-11
-1.78555e-11
-4.18776e-11
-6.5661e-11
-6.65576e-11
-4.74356e-11
-3.60939e-11
-4.18726e-11
-5.63925e-11
-7.35352e-11
-7.38304e-11
-4.5545e-11
-1.69521e-11
-3.07394e-11
-3.50075e-11
-4.04616e-11
-4.2052e-11
-3.43811e-11
-3.29376e-11
-2.88977e-11
-2.61478e-11
-4.26563e-11
-6.32963e-11
-5.8279e-11
-3.61701e-11
-2.83083e-11
-3.2579e-11
-4.10371e-11
-4.90012e-11
-5.01344e-11
-3.79992e-11
-8.85148e-12
-1.64369e-11
-3.24483e-11
-5.0086e-11
-5.0762e-11
-4.47438e-11
-3.13373e-11
-2.90261e-11
-3.1297e-11
-4.78683e-11
-6.09659e-11
-5.09817e-11
-3.34794e-11
-2.78239e-11
-2.70501e-11
-2.7601e-11
-2.91086e-11
-3.48713e-11
-4.12106e-11
-2.91079e-11
-2.37965e-11
-4.80616e-11
-4.25202e-11
-2.22304e-11
-2.7993e-11
-3.7239e-11
-3.807e-11
-4.37783e-11
-5.90841e-11
-6.13747e-11
-4.8562e-11
-3.14409e-11
-2.35086e-11
-1.8079e-11
-1.24152e-11
-9.55968e-12
-1.5336e-11
-3.09127e-11
-4.8414e-11
-4.95833e-11
-4.25656e-11
-1.59918e-11
-1.01117e-11
-1.62588e-11
-1.62582e-11
-3.34513e-12
-6.17799e-11
-8.05747e-11
-6.80594e-11
-4.58521e-11
-1.91926e-11
-4.09043e-12
-4.25316e-13
1.91912e-13
1.18636e-12
-2.11059e-12
-1.17356e-11
-2.68729e-11
-3.30608e-11
-1.60275e-11
-1.86709e-12
2.12399e-12
3.33373e-12
5.783e-12
1.23569e-11
-6.71935e-11
-1.02981e-10
-7.50488e-11
-3.07948e-11
1.7879e-11
3.42042e-11
2.58145e-11
1.53717e-11
1.06059e-11
7.96892e-12
3.86535e-12
-2.97495e-12
-4.36664e-12
1.6115e-12
1.05064e-11
1.42486e-11
1.65351e-11
2.04636e-11
3.76683e-11
-3.36515e-11
-9.24365e-11
-6.22679e-11
-8.90809e-14
5.71651e-11
5.35103e-11
3.54101e-11
2.28722e-11
1.4021e-11
1.25553e-11
1.23189e-11
1.49577e-11
1.35468e-11
7.95711e-12
5.06896e-12
3.69926e-12
1.48352e-11
4.70738e-11
1.21618e-10
1.30534e-11
-4.63107e-11
-2.63911e-11
2.73036e-11
4.75278e-11
1.73037e-11
1.24133e-11
1.58304e-11
1.02986e-11
8.30745e-12
5.77665e-12
-5.93878e-13
4.96728e-13
-6.21242e-12
-1.83378e-11
-2.65475e-11
-2.82885e-11
-3.27765e-11
-2.90196e-11
4.55964e-11
4.45678e-12
1.00302e-11
2.24029e-11
-1.19824e-11
-3.59707e-11
-2.40902e-11
-2.67836e-12
3.26998e-12
5.06758e-12
1.47603e-11
5.38243e-12
-1.40886e-11
-1.4297e-11
-1.27305e-11
-1.94299e-12
-6.13453e-13
-1.12419e-11
-2.19907e-11
6.41675e-11
3.58156e-11
2.42699e-11
-2.71108e-12
-4.06942e-11
-4.27342e-11
-3.6011e-11
-2.25462e-11
-9.46564e-12
-5.7529e-12
-2.42319e-12
1.26844e-11
-1.3922e-11
-1.81784e-11
-1.10375e-11
3.34242e-12
1.27709e-11
1.21605e-11
1.67514e-11
7.19038e-11
4.58353e-11
1.83549e-11
-1.96875e-11
-3.29362e-11
-2.69752e-11
-2.64497e-11
-2.75659e-11
-2.13894e-11
-1.46729e-11
-1.01337e-11
2.27188e-12
-2.85494e-12
-1.70989e-11
-1.19717e-12
6.32722e-12
1.19707e-11
8.63618e-12
1.51299e-11
6.69188e-11
4.4903e-11
1.1098e-11
-2.08321e-11
-2.31409e-11
-2.11569e-11
-1.882e-11
-2.15765e-11
-2.28134e-11
-2.07198e-11
-1.31489e-11
-8.11535e-12
1.7508e-12
-5.82164e-12
-3.27028e-12
5.20808e-13
-4.31384e-13
-1.15563e-12
-1.87832e-13
5.01759e-11
3.83082e-11
1.00299e-11
-1.55895e-11
-2.04038e-11
-2.06407e-11
-1.62176e-11
-1.57087e-11
-1.8134e-11
-1.83132e-11
-1.17905e-11
-7.70874e-12
-4.79785e-12
-4.08062e-12
-3.59242e-12
-4.67664e-12
-4.80318e-12
-3.96889e-12
-1.77552e-12
2.72944e-11
2.19933e-11
8.29549e-12
-1.31539e-11
-1.9653e-11
-2.08216e-11
-1.54495e-11
-1.14495e-11
-1.17437e-11
-1.47117e-11
-9.6673e-12
-4.85064e-12
-7.62572e-12
-6.46319e-12
-6.14269e-12
-5.50262e-12
-4.74886e-12
-3.65348e-12
-1.39289e-12
1.2995e-11
1.37431e-13
4.00621e-13
-1.2484e-11
-1.84476e-11
-2.10351e-11
-1.51397e-11
-9.55076e-12
-8.94276e-12
-1.27659e-11
-8.93246e-12
-1.94285e-12
-5.03379e-12
-5.6753e-12
-5.26487e-12
-4.32216e-12
-3.78574e-12
-3.03964e-12
-1.07733e-12
3.09708e-12
-1.68819e-11
-4.59561e-12
-1.12009e-11
-1.77546e-11
-2.12362e-11
-1.48522e-11
-8.26788e-12
-7.28578e-12
-1.1743e-11
-7.5934e-12
-6.44864e-13
-9.90456e-13
-2.51779e-12
-2.88507e-12
-3.08531e-12
-3.26228e-12
-2.78116e-12
-8.34801e-13
4.49215e-13
-2.59068e-13
-3.85193e-13
-2.44512e-13
-7.65367e-13
-1.45014e-13
-1.95563e-13
-1.6157e-13
-3.13333e-13
-7.35382e-14
-1.56962e-13
-5.31616e-14
1.92529e-13
2.40675e-13
4.08559e-12
1.12154e-12
1.27063e-12
3.24045e-12
5.78775e-13
6.68197e-13
5.84415e-14
1.25539e-13
1.41728e-13
1.76061e-13
1.94526e-13
2.59521e-13
3.10089e-12
4.23496e-13
4.66771e-13
5.14002e-13
5.61556e-13
6.19285e-13
6.83508e-13
7.57445e-13
8.34136e-13
9.26754e-13
1.01214e-12
1.11591e-12
1.14996e-12
8.79668e-13
2.27006e-11
3.18405e-12
2.90811e-12
2.65396e-12
7.31367e-12
5.61947e-12
6.06453e-12
-7.38277e-12
-1.98448e-10
8.1032e-12
-5.4862e-13
-6.58195e-11
-1.50309e-11
-1.52727e-11
-6.82687e-12
-1.39424e-11
-2.01685e-12
-2.039e-12
-1.93915e-12
-1.31696e-11
-5.63674e-13
-6.70636e-13
-8.11286e-13
-8.21407e-13
-7.68702e-13
-6.74996e-13
-5.77979e-13
-4.85758e-13
-4.04354e-13
-3.32653e-13
-2.66491e-13
-2.12404e-13
-1.59935e-13
5.58526e-12
3.52562e-14
1.23319e-13
1.58489e-13
2.22665e-13
3.02521e-13
5.44132e-13
2.89293e-12
3.05772e-12
1.71495e-11
2.81303e-12
3.00915e-12
1.51579e-11
1.99421e-12
2.2819e-12
1.14811e-11
1.38875e-12
1.62636e-12
8.03433e-12
4.97705e-13
6.05553e-13
6.00093e-13
3.73805e-12
1.62865e-13
2.45081e-13
1.50788e-12
-2.06184e-13
5.95714e-11
7.93451e-11
5.3282e-11
4.42057e-11
2.99232e-11
2.20887e-11
6.31427e-12
1.0095e-11
2.34291e-11
2.7802e-11
3.06516e-11
4.13217e-11
5.25076e-11
5.39376e-11
5.14202e-11
4.72686e-11
4.38592e-11
3.61211e-11
2.7248e-11
4.37197e-11
8.33046e-11
5.59046e-11
5.1778e-11
5.29142e-11
5.36437e-11
2.36877e-11
-1.22767e-11
-6.19704e-12
1.41458e-11
2.72124e-11
4.18478e-11
5.12444e-11
5.17159e-11
5.11734e-11
4.80894e-11
4.51899e-11
3.73212e-11
2.82399e-11
3.47094e-11
6.89951e-11
6.03031e-11
6.29496e-11
6.6844e-11
6.7452e-11
5.51884e-11
2.50798e-11
-8.61969e-12
-1.96446e-12
1.50714e-11
3.29107e-11
4.85472e-11
4.89443e-11
5.10188e-11
4.6289e-11
4.26435e-11
3.74624e-11
2.9645e-11
1.54139e-11
4.94931e-11
6.36584e-11
6.92904e-11
6.23499e-11
5.4401e-11
5.73227e-11
6.67715e-11
7.14657e-11
5.59975e-11
2.36834e-11
2.31179e-11
4.08708e-11
4.38499e-11
4.64272e-11
4.29339e-11
3.94592e-11
3.60736e-11
3.05239e-11
1.78555e-11
4.18776e-11
6.5661e-11
6.65576e-11
4.74356e-11
3.60939e-11
4.18726e-11
5.63925e-11
7.35352e-11
7.38304e-11
4.5545e-11
1.69521e-11
3.07394e-11
3.50075e-11
4.04616e-11
4.2052e-11
3.43811e-11
3.29376e-11
2.88977e-11
2.61478e-11
4.26563e-11
6.32963e-11
5.8279e-11
3.61701e-11
2.83083e-11