/*--------------------------------*- C++ -*----------------------------------*\
| =========                 |                                                 |
| \\      /  F ield         | OpenFOAM: The Open Source CFD Toolbox           |
|  \\    /   O peration     | Version:  4.1                                   |
|   \\  /    A nd           | Web:      www.OpenFOAM.org                      |
|    \\/     M anipulation  |                                                 |
\*---------------------------------------------------------------------------*/
FoamFile
{
    version     2.0;
    format      ascii;
    class       volVectorField;
    location    "14";
    object      U;
}
// * * * * * * * * * * * * * * * * * * * * * * * * * * * * * * * * * * * * * //

dimensions      [0 1 -1 0 0 0 0];

internalField   nonuniform List<vector> 
1280
(
(-3.24636e-16 -0.330563 -0.849841)
(4.24645e-17 -0.0255304 -1.39211)
(2.8186e-16 0.133168 -0.958636)
(1.76703e-16 0.272699 -0.758257)
(1.30082e-16 0.534838 -1.2987)
(1.04798e-16 0.651402 -0.936368)
(1.41572e-16 0.848474 -0.899354)
(1.16901e-16 0.896747 -0.783805)
(5.14958e-17 1.27899 -1.36406)
(5.70953e-17 1.36208 -1.04216)
(1.13432e-16 1.53651 -0.914506)
(-5.7308e-17 2.00613 -1.69201)
(-1.4849e-16 2.01831 -1.3491)
(-1.92551e-16 2.28348 -1.20916)
(-7.40926e-16 2.8788 -2.13036)
(-8.1051e-16 2.74787 -1.74488)
(-9.1825e-16 3.22585 -1.52409)
(-5.50745e-16 3.2966 -3.08071)
(-4.39627e-16 4.37838 -1.8576)
(-4.82889e-16 3.12731 -4.34534)
(-2.3976e-16 4.27612 1.22974)
(-5.15033e-16 4.51229 6.37745)
(-5.81449e-16 4.43016 8.48279)
(-7.22301e-16 4.78391 9.01466)
(-7.98055e-16 4.91456 9.66469)
(-1.0647e-15 5.26328 10.6642)
(-6.53678e-16 3.64183 7.47414)
(-1.73742e-15 8.57313 13.6893)
(-1.91496e-15 8.71741 13.9569)
(-2.10872e-15 8.76916 14.0144)
(-2.30382e-15 8.79324 13.9496)
(-2.54066e-15 8.75879 13.8325)
(-2.80414e-15 8.72159 13.6781)
(-3.10747e-15 8.62643 13.5124)
(-3.4221e-15 8.57265 13.3152)
(-3.80207e-15 8.41284 13.1284)
(-4.15236e-15 8.37766 12.9454)
(-4.57808e-15 8.12883 12.8146)
(-4.71777e-15 8.16365 12.913)
(-3.60889e-15 7.93017 12.9571)
(-3.95137e-15 9.13698 14.1372)
(-2.55747e-15 5.56273 9.91112)
(-2.33584e-15 4.39387 9.8726)
(-2.11347e-15 3.35094 10.1068)
(-1.10528e-15 0.976632 8.40925)
(-4.51363e-15 -0.349083 -2.61555)
(-4.87111e-15 0.0161715 -4.00776)
(5.92994e-15 0.598857 -4.36195)
(3.5132e-14 1.18656 -4.11608)
(-6.72878e-15 -0.797125 -0.873327)
(3.58005e-16 0.380817 -2.65173)
(1.14568e-14 -1.3101 -5.42726)
(1.2073e-14 -0.876655 -3.87978)
(1.22672e-14 -0.203009 -2.63871)
(5.48343e-15 -0.331176 0.68409)
(2.42687e-15 -1.58522 8.72039)
(1.63751e-15 -3.67219 9.49543)
(1.63775e-15 -4.59587 9.40689)
(1.55755e-15 -5.84211 9.65139)
(2.10374e-15 -10.2944 14.4541)
(2.31251e-15 -7.63942 14.2584)
(2.75133e-15 -7.91671 14.881)
(3.32835e-15 -7.62999 13.7706)
(3.36987e-15 -7.91025 13.2433)
(3.15365e-15 -7.92933 13.0281)
(2.76921e-15 -8.13298 12.9624)
(2.3712e-15 -8.20455 12.9926)
(1.99285e-15 -8.33007 13.0213)
(1.65889e-15 -8.38175 13.0857)
(1.36473e-15 -8.44568 13.1668)
(1.0933e-15 -8.44951 13.2837)
(8.71403e-16 -8.45651 13.3667)
(6.56143e-16 -8.35547 13.3276)
(-1.17739e-15 -4.00256 7.83672)
(-1.44641e-16 -5.05298 10.7321)
(-5.05923e-16 -4.75466 9.74109)
(-6.50211e-16 -4.66282 9.10522)
(-9.13497e-16 -4.2512 8.27914)
(-1.24111e-15 -4.41866 6.80725)
(-2.23233e-15 -4.18363 1.32697)
(-2.09064e-15 -3.03542 -4.31638)
(-2.23143e-15 -4.36309 -1.44787)
(-2.91472e-15 -3.31867 -2.75927)
(-2.0329e-15 -3.35788 -1.32422)
(-2.17463e-15 -2.87881 -1.49233)
(-2.6367e-15 -3.24265 -1.74468)
(-1.44116e-15 -2.6122 -0.992782)
(-1.64907e-15 -2.3792 -1.06309)
(-2.04371e-15 -2.5794 -1.26622)
(-1.00361e-15 -2.0867 -0.64765)
(-1.16496e-15 -1.93298 -0.706441)
(-1.45579e-15 -2.12295 -0.86053)
(-3.71964e-16 -1.63931 -0.431423)
(-4.37617e-16 -1.71348 -0.456458)
(-4.33671e-16 -1.4953 -0.424256)
(-6.35318e-16 -1.73947 -0.487016)
(-1.17699e-16 -1.34628 -0.164489)
(-1.8066e-16 -1.31758 -0.173075)
(-2.48479e-16 -1.43582 -0.177232)
(1.49004e-16 -1.12093 0.0543134)
(-6.61904e-15 -0.379521 2.10142)
(-8.81612e-15 -0.14384 1.93984)
(-5.92022e-15 2.27345 2.50632)
(-4.91175e-15 2.95849 2.99948)
(-3.3248e-15 2.23204 3.14202)
(-2.4543e-15 1.24089 2.72928)
(-7.01585e-16 0.40532 1.9855)
(-1.12167e-15 -0.202489 1.3338)
(-2.60323e-15 -0.690018 1.05978)
(-3.08912e-15 -1.2003 0.749225)
(-3.40574e-15 -1.61802 0.467282)
(-4.5913e-15 -1.768 0.213691)
(-5.83418e-15 -1.54018 -0.0512703)
(-5.99307e-15 -1.07903 -0.271364)
(-5.71336e-15 -0.658472 -0.537232)
(-5.25207e-15 -0.725822 -0.661057)
(-4.87324e-15 -0.725573 -0.837013)
(-4.01346e-15 -1.3648 -0.721188)
(-3.02756e-15 -1.36536 -0.940393)
(-4.85775e-15 -0.284829 2.73313)
(-9.25606e-15 -0.296804 2.29334)
(-6.21162e-15 1.86096 3.17979)
(-5.75312e-15 2.72472 3.85696)
(-5.87936e-15 2.30084 4.08773)
(-5.96041e-15 1.60458 3.73667)
(-2.63197e-15 0.867092 2.90203)
(1.36407e-15 0.133172 1.92101)
(6.8856e-16 -0.486016 1.27418)
(-1.57176e-15 -1.02384 0.776516)
(-3.0236e-15 -1.46451 0.473406)
(-4.64976e-15 -1.61133 0.244737)
(-5.69382e-15 -1.38672 0.00408767)
(-5.74621e-15 -0.919502 -0.235728)
(-5.68594e-15 -0.530595 -0.593494)
(-5.34326e-15 -0.652772 -0.756667)
(-5.0211e-15 -0.757347 -0.911395)
(-4.1468e-15 -1.39167 -0.773656)
(-3.13777e-15 -1.55915 -0.951399)
(-3.8566e-15 -0.235749 3.44145)
(-7.66612e-15 -0.353387 2.93571)
(-6.70034e-15 1.63315 3.91454)
(-6.9944e-15 2.56869 4.6542)
(-7.42711e-15 2.28697 5.0743)
(-7.49466e-15 1.76935 4.92161)
(-6.13204e-15 1.1855 4.08261)
(-2.78664e-15 0.480986 2.81473)
(9.57743e-16 -0.195934 1.72801)
(2.18274e-16 -0.826643 1.00541)
(-1.6746e-15 -1.36595 0.584321)
(-3.65674e-15 -1.55414 0.392608)
(-5.39414e-15 -1.32391 0.179089)
(-5.43826e-15 -0.803751 -0.159509)
(-5.66876e-15 -0.412063 -0.633366)
(-5.14323e-15 -0.552645 -0.888141)
(-4.73817e-15 -0.650485 -1.08826)
(-4.16248e-15 -1.28576 -0.881451)
(-3.29388e-15 -1.4949 -1.05078)
(-1.71265e-15 -0.129155 4.22919)
(-5.49924e-15 -0.456186 3.69281)
(-7.07315e-15 1.22434 4.79913)
(-7.69893e-15 2.26368 5.8673)
(-6.92777e-15 2.17959 6.67232)
(-6.04456e-15 1.97338 6.80848)
(-6.36919e-15 1.68143 6.00944)
(-7.41906e-15 1.08295 4.38099)
(-7.94063e-15 0.225378 2.44483)
(-6.22194e-15 -0.604147 1.1481)
(-2.63149e-15 -1.24746 0.515637)
(-2.56865e-15 -1.45457 0.483232)
(-4.5412e-15 -1.17131 0.480501)
(-4.87221e-15 -0.612798 0.0104986)
(-5.15858e-15 -0.290838 -0.521629)
(-4.77043e-15 -0.534966 -0.792737)
(-4.38436e-15 -0.84597 -1.08485)
(-4.00818e-15 -1.50205 -0.892887)
(-3.39155e-15 -1.6221 -1.27003)
(-1.98395e-15 -0.078137 4.84129)
(-4.65307e-15 -0.5733 4.67824)
(-7.29567e-15 0.768304 5.89514)
(-7.39529e-15 1.80122 7.4313)
(-5.27062e-15 1.89862 8.67126)
(-4.01043e-15 2.04122 9.17727)
(-4.65251e-15 2.16172 8.66661)
(-6.26583e-15 1.90773 7.09627)
(-8.17058e-15 1.12273 4.63343)
(-8.20337e-15 -0.0293583 2.07232)
(-5.06056e-15 -1.09215 0.642914)
(-1.88356e-15 -1.56291 0.613023)
(-3.41549e-15 -1.14361 0.844348)
(-3.88972e-15 -0.37077 0.322101)
(-4.49573e-15 -0.00759256 -0.145592)
(-4.67244e-15 -0.269931 -0.429892)
(-3.82013e-15 -0.475675 -1.04004)
(-3.65974e-15 -1.10181 -0.95645)
(-3.21085e-15 -1.15947 -1.39535)
(-2.90531e-15 -0.155659 5.16533)
(-4.73959e-15 -0.84257 5.78615)
(-7.03292e-15 0.16263 7.18826)
(-6.47544e-15 1.14952 9.21337)
(-4.0189e-15 1.47452 10.709)
(-3.14537e-15 1.97874 11.4568)
(-3.61989e-15 2.51236 11.2968)
(-4.55967e-15 2.68285 10.1614)
(-5.44457e-15 2.2187 7.93949)
(-5.57049e-15 0.981534 4.84769)
(-4.22214e-15 -0.667246 2.01653)
(-9.83498e-16 -1.51181 1.0953)
(-1.82632e-15 -1.05 1.39778)
(-3.60537e-15 -0.227761 1.31981)
(-5.56511e-15 -0.0909566 1.28691)
(-5.64023e-15 -0.315987 0.596773)
(-4.97153e-15 -0.80107 -0.276272)
(-3.48193e-15 -1.62739 -0.0989691)
(-3.22512e-15 -1.52268 -2.28098)
(-3.47745e-15 -0.43986 5.45726)
(-5.31869e-15 -1.33299 6.75001)
(-6.77399e-15 -0.587315 8.36514)
(-5.66463e-15 0.392893 10.7326)
(-3.71994e-15 1.00138 12.1536)
(-3.09155e-15 1.82229 12.8081)
(-3.00556e-15 2.69012 12.8065)
(-3.06678e-15 3.25149 12.2265)
(-3.23429e-15 3.2598 10.8161)
(-3.87459e-15 2.35152 8.17381)
(-4.57896e-15 0.36564 4.53256)
(-3.23422e-15 -1.35329 1.97362)
(-2.64405e-15 -1.23096 2.34141)
(-5.34018e-15 -0.238319 2.6901)
(-4.72447e-15 0.424615 1.66494)
(-2.47004e-15 0.464388 0.7465)
(-3.11034e-15 -0.0239894 -0.135235)
(-4.13767e-15 0.113794 -1.28164)
(-4.23e-15 0.647 -1.4114)
(-4.86426e-15 -0.803789 5.7668)
(-6.5649e-15 -1.94709 7.22087)
(-6.81941e-15 -1.4159 8.881)
(-5.39577e-15 -0.350507 11.3065)
(-3.49344e-15 0.63827 12.4248)
(-2.61207e-15 1.72543 12.5646)
(-2.00877e-15 2.74677 12.4062)
(-1.37946e-15 3.48007 12.3258)
(-1.06219e-15 3.85179 12.0771)
(-1.704e-15 3.51323 10.887)
(-3.43474e-15 1.83898 8.05346)
(-5.37933e-15 -0.629245 4.09143)
(-5.50925e-15 -1.18844 2.44706)
(-4.72952e-15 0.152811 2.64641)
(-1.77687e-15 0.660644 3.35456)
(-1.12352e-15 0.394915 4.47278)
(-1.80653e-15 -0.0544888 4.24713)
(-1.80647e-15 -1.53227 4.89757)
(-3.71681e-16 -6.12033 8.92877)
(-6.86443e-15 -1.13425 5.94855)
(-8.95274e-15 -2.5245 7.11096)
(-7.56216e-15 -2.21566 8.5602)
(-5.09468e-15 -1.01458 10.7635)
(-2.13251e-15 0.481959 11.43)
(-4.54492e-16 1.81975 10.8625)
(-4.72573e-17 2.77748 10.3444)
(2.13235e-17 3.3751 10.5296)
(1.31817e-16 3.83487 11.224)
(-2.3451e-16 3.9744 11.6668)
(-1.30395e-15 3.0577 10.9132)
(-2.98587e-15 0.870279 8.38738)
(-3.67342e-15 -0.780155 6.39362)
(-1.78083e-15 -0.882825 8.37333)
(-2.07455e-16 -0.494078 11.6506)
(2.35999e-16 -0.0371001 13.2037)
(3.70415e-16 -0.256801 13.3061)
(6.42555e-16 -1.71183 12.8672)
(1.37298e-15 -3.83917 12.4033)
(-7.46595e-15 -1.36111 6.21429)
(-1.14423e-14 -2.94491 6.86968)
(-8.33876e-15 -2.88809 7.9622)
(-3.42165e-15 -1.51951 9.80166)
(1.98656e-15 0.573226 9.87444)
(3.80047e-15 2.14602 8.74547)
(2.89176e-15 2.87555 7.98326)
(1.70797e-15 3.11858 8.11249)
(1.17843e-15 3.3877 9.0838)
(8.85436e-16 3.63437 10.6292)
(4.29483e-16 3.06037 11.8871)
(-3.62324e-16 1.03121 11.9469)
(-4.85182e-16 -1.06614 11.6689)
(1.79055e-16 -1.68927 12.6231)
(1.19069e-15 -1.07866 14.0225)
(1.58318e-15 -0.169784 14.0554)
(1.83724e-15 -0.227987 13.173)
(2.27373e-15 -1.50911 11.168)
(4.18536e-15 -3.17789 7.02237)
(-3.73906e-15 -1.47252 7.01816)
(-1.02707e-14 -3.17579 7.24796)
(-6.91866e-15 -3.38943 7.88033)
(-9.89788e-18 -1.80788 9.11729)
(6.35167e-15 0.881271 8.46742)
(5.94559e-15 2.58445 7.00432)
(3.92175e-15 3.03757 6.24963)
(2.54135e-15 2.93538 6.18517)
(1.55789e-15 2.82698 6.72373)
(1.39504e-15 2.89512 8.3892)
(1.36877e-15 2.59898 10.8606)
(1.66196e-15 0.985152 12.233)
(1.5052e-15 -1.1197 12.6458)
(8.84124e-16 -1.94262 13.5594)
(5.63218e-16 -1.14555 14.2285)
(4.11029e-16 0.304124 14.1564)
(1.64835e-15 1.04458 13.2352)
(5.23042e-15 1.52504 10.7517)
(1.35131e-14 2.51445 6.33841)
(1.45038e-15 -1.52475 8.36061)
(-5.14563e-15 -3.2508 8.51366)
(-2.93234e-15 -3.62871 8.59886)
(3.03373e-15 -1.75658 8.76509)
(5.28086e-15 1.40644 6.97962)
(1.92263e-15 3.05865 5.26555)
(1.37925e-15 3.20491 4.70749)
(1.75894e-15 2.93249 4.73457)
(1.14429e-15 2.49154 4.89164)
(9.2305e-16 1.90875 5.5774)
(6.4185e-16 1.4864 8.20857)
(-6.59864e-17 0.336715 11.5087)
(5.5192e-17 -1.49523 12.5368)
(-6.90269e-16 -2.25721 13.168)
(-2.03753e-15 -1.24755 13.3494)
(-2.94972e-15 0.345216 12.6892)
(-3.14316e-15 1.038 12.6072)
(-3.64183e-15 1.5333 13.3506)
(-3.2244e-15 2.8703 12.8771)
(5.06626e-15 -1.60796 9.56714)
(4.95198e-16 -3.24345 9.94575)
(1.11446e-15 -3.49438 9.45601)
(2.48921e-15 -1.16154 8.15238)
(-1.33138e-15 2.2439 5.18644)
(-3.99674e-15 3.5199 3.68441)
(-2.67669e-15 3.25406 3.38032)
(-2.97595e-16 2.8722 3.50562)
(3.63332e-16 2.50757 3.73745)
(5.63064e-16 1.69953 3.60846)
(1.64003e-15 0.248454 3.46953)
(5.98048e-16 -0.780481 6.8133)
(-1.5654e-15 -1.87926 9.46363)
(-1.58856e-15 -2.24737 9.27679)
(-1.4145e-15 -0.931608 7.2523)
(-2.15888e-16 0.551545 3.77633)
(-6.81614e-17 0.39444 3.61566)
(-1.2491e-15 1.43534 6.41005)
(-2.44342e-15 5.72318 10.5684)
(7.12972e-15 -1.74367 10.0005)
(3.97952e-15 -3.16361 10.5977)
(2.69665e-15 -2.92167 9.51355)
(-3.01231e-16 -0.0253936 6.80554)
(-4.52157e-15 3.15069 3.65353)
(-4.74824e-15 3.8123 2.88383)
(-4.00122e-15 3.26564 2.78724)
(-2.50514e-15 2.79668 2.78659)
(-1.05174e-15 2.42849 2.84485)
(-6.39211e-16 1.90268 2.91986)
(-2.69243e-16 0.266756 2.47359)
(1.40937e-15 -1.85386 2.39044)
(-1.54688e-15 -2.37308 5.442)
(-2.01982e-15 -1.51815 4.94511)
(-1.22639e-15 0.613634 2.7187)
(3.7138e-16 1.6911 0.926372)
(1.41899e-15 0.615773 0.303761)
(1.35117e-15 -1.14981 -1.72339)
(1.86127e-15 -1.20208 -0.824992)
(7.98932e-15 -1.90068 9.50707)
(5.09281e-15 -2.99918 10.1509)
(2.03943e-15 -2.01013 8.53868)
(-2.1875e-15 1.21842 5.15992)
(-3.65958e-15 3.79848 2.76341)
(-2.99725e-15 3.89995 2.56495)
(-2.93886e-15 3.2715 2.48632)
(-3.06288e-15 2.83662 2.44713)
(-2.3766e-15 2.46316 2.33834)
(-1.63032e-15 1.88717 2.14973)
(-1.12597e-15 0.479404 1.93068)
(2.52431e-16 -2.049 0.326014)
(-3.17216e-16 -2.89485 1.15573)
(-1.89987e-15 -1.09156 1.5201)
(-1.33018e-16 1.05306 -0.0775506)
(7.03025e-16 1.71626 -0.339562)
(1.33008e-15 1.11464 -0.346061)
(9.59576e-16 1.08113 -0.71287)
(1.6811e-15 1.06817 -3.11267)
(7.43542e-15 -2.0352 8.32301)
(4.98922e-15 -2.72881 8.89106)
(1.23311e-15 -0.945598 7.0019)
(-2.31467e-15 2.24639 3.78886)
(-2.57121e-15 4.19937 2.25144)
(-2.35077e-15 3.94298 2.27022)
(-2.09111e-15 3.31148 2.04917)
(-2.39739e-15 2.85674 1.94693)
(-2.53482e-15 2.51353 1.9238)
(-2.3022e-15 2.01514 1.80369)
(-1.46098e-15 0.918295 1.48777)
(-9.01705e-16 -1.40962 -0.126015)
(1.94533e-16 -2.78417 -2.18553)
(-6.46849e-16 -1.27901 -2.23583)
(-3.63365e-16 0.898603 -2.56326)
(5.78676e-17 1.7715 -2.02493)
(-4.79316e-17 1.09785 -1.59322)
(-1.28404e-16 0.643392 -1.74793)
(-2.08703e-17 0.431834 -2.22558)
(5.5751e-15 -2.14316 6.93296)
(4.25647e-15 -2.47029 7.32489)
(1.11444e-15 0.0260718 5.37596)
(-1.73216e-15 3.06043 2.71357)
(-2.26709e-15 4.41897 1.95226)
(-2.29341e-15 3.99415 1.96433)
(-1.80196e-15 3.4051 1.65456)
(-1.74541e-15 2.9044 1.45193)
(-2.01489e-15 2.52023 1.34813)
(-2.0348e-15 2.06915 1.27757)
(-1.31006e-15 1.2367 0.918297)
(-8.56526e-16 -0.514384 -0.337175)
(-5.33095e-16 -2.04722 -3.02324)
(-4.53402e-16 -1.15941 -3.97916)
(-3.99158e-16 0.787877 -3.89617)
(-5.19626e-16 1.42942 -2.92053)
(-5.33686e-16 0.982505 -2.17246)
(-4.40988e-16 0.950311 -1.93644)
(-1.97279e-16 0.92848 -2.04033)
(3.03271e-15 -2.18582 5.70429)
(2.4437e-15 -2.091 5.83769)
(9.21721e-16 0.931156 3.9933)
(-1.46154e-15 3.59841 2.00278)
(-2.18366e-15 4.50623 1.79913)
(-2.31351e-15 4.06229 1.68668)
(-1.71661e-15 3.50906 1.39156)
(-1.27217e-15 2.98515 1.15611)
(-1.30486e-15 2.58169 0.94475)
(-1.63463e-15 2.17537 0.76893)
(-1.07414e-15 1.54024 0.442086)
(-5.3896e-16 0.237458 -0.455693)
(-8.47302e-16 -1.28185 -2.39915)
(-7.18132e-16 -0.855466 -3.67125)
(-6.82521e-16 0.579795 -3.65733)
(-6.11402e-16 1.1299 -2.84572)
(-5.27651e-16 0.792925 -2.27004)
(-4.05943e-16 0.690282 -1.98901)
(-1.54766e-16 0.50961 -1.7951)
(1.44389e-15 -2.19876 4.89956)
(1.52701e-17 -1.8528 4.76333)
(4.45135e-17 1.53212 2.93053)
(-1.38711e-15 3.96202 1.70831)
(-2.04974e-15 4.5688 1.68606)
(-2.33724e-15 4.16013 1.48106)
(-1.68219e-15 3.60442 1.23211)
(-1.0612e-15 3.06565 0.999335)
(-9.9364e-16 2.65085 0.757096)
(-1.41844e-15 2.24439 0.501041)
(-9.92495e-16 1.69049 0.192991)
(-2.15872e-16 0.648768 -0.420673)
(-5.5931e-16 -0.768422 -1.58809)
(-6.30589e-16 -0.644955 -2.67769)
(-5.84985e-16 0.407159 -2.80743)
(-4.8024e-16 0.877977 -2.30727)
(-4.20638e-16 0.650478 -1.9489)
(-3.37738e-16 0.65911 -1.72873)
(-1.19703e-16 0.56471 -1.5885)
(3.4412e-16 -2.10431 4.12039)
(-1.87576e-15 -1.20571 3.75762)
(-5.10623e-16 2.18299 2.35309)
(-1.24455e-15 4.11683 1.74322)
(-1.97273e-15 4.63305 1.57248)
(-2.35958e-15 4.26961 1.37274)
(-1.65024e-15 3.73657 1.14658)
(-9.18653e-16 3.21782 0.920796)
(-8.09532e-16 2.82588 0.679684)
(-1.30477e-15 2.4403 0.407678)
(-8.43711e-16 1.93551 0.11776)
(-7.16516e-17 1.01905 -0.307846)
(-1.10051e-16 -0.365778 -0.950237)
(-2.79754e-16 -0.317036 -1.62904)
(-3.20563e-16 0.471728 -1.82565)
(-3.42812e-16 0.804423 -1.74998)
(-3.62475e-16 0.59522 -1.6868)
(-3.09018e-16 0.578791 -1.62306)
(-9.27557e-17 0.407058 -1.57886)
(5.20919e-17 12.0202 20.1462)
(-1.30013e-15 19.1252 31.5749)
(-1.36451e-15 18.1848 28.8433)
(-1.60703e-15 15.4331 24.1436)
(-1.64754e-15 15.0071 23.1506)
(-1.9749e-15 15.2018 22.7758)
(-2.11217e-15 14.7333 21.6117)
(-2.17792e-15 13.9099 20.0801)
(-2.30656e-15 12.7287 18.1224)
(-2.51057e-15 11.3015 16.0024)
(-2.81714e-15 9.87454 13.9835)
(-3.34955e-15 8.53329 12.2096)
(-4.04813e-15 7.33376 10.6441)
(-4.96971e-15 6.14728 9.26012)
(-6.08454e-15 5.09965 7.92528)
(-7.4654e-15 3.96867 6.77773)
(-8.77288e-15 3.34438 5.79435)
(-9.71098e-15 2.80523 5.63101)
(-7.18582e-15 4.23766 6.94392)
(-1.51597e-15 4.15961 7.63559)
(6.03689e-17 14.1443 23.916)
(-1.56992e-15 18.2166 30.6643)
(-1.23454e-15 15.0264 25.3892)
(-1.56181e-15 11.9284 20.2289)
(-1.43386e-15 12.9266 22.3726)
(-1.82722e-15 13.5472 22.955)
(-1.3517e-15 12.1283 20.7496)
(-1.42254e-15 10.4036 17.998)
(-1.76703e-15 8.22887 14.7597)
(-2.1215e-15 6.28653 11.9657)
(-2.70988e-15 4.78879 9.95094)
(-3.45899e-15 3.60382 8.43571)
(-4.45555e-15 2.57418 7.13568)
(-5.69393e-15 1.64404 6.00706)
(-7.09984e-15 0.96398 5.16801)
(-8.08425e-15 0.758032 5.04918)
(-8.08129e-15 1.61977 6.26669)
(-5.98783e-15 3.79091 9.46236)
(-1.98504e-15 6.81703 13.003)
(-1.34067e-16 5.70532 10.2769)
(2.37093e-17 14.7702 25.9119)
(-8.69511e-16 17.7406 30.4282)
(-5.92048e-16 15.1541 26.3161)
(-7.95232e-16 12.4643 21.2133)
(-7.66101e-16 13.2325 22.9697)
(-1.3088e-15 13.8232 23.6015)
(-7.36643e-16 11.0561 19.2173)
(-9.23227e-16 9.22548 16.3998)
(-1.10926e-15 7.14763 13.0169)
(-1.32139e-15 5.60713 10.5519)
(-1.65696e-15 4.53665 8.77078)
(-2.0707e-15 3.62067 7.32669)
(-2.65854e-15 2.81898 6.09653)
(-3.25517e-15 2.20371 5.26426)
(-3.7333e-15 2.03793 5.1604)
(-3.74674e-15 2.68217 6.42662)
(-2.9403e-15 4.65902 9.60184)
(-1.49146e-15 7.54589 14.4999)
(2.26039e-17 10.3291 18.2404)
(8.53918e-17 7.76827 14.2197)
(1.22857e-17 14.1952 25.2031)
(2.04423e-16 17.7355 30.4142)
(1.2459e-16 15.3793 26.7764)
(1.41827e-16 12.3214 21.0568)
(1.40556e-16 12.7118 22.0347)
(-8.00913e-16 13.5252 23.3398)
(-8.1547e-16 10.035 17.3961)
(-9.51993e-16 8.93249 15.8238)
(-1.12995e-15 7.54182 13.0294)
(-1.33628e-15 6.46612 11.0662)
(-1.55359e-15 5.70901 9.17037)
(-1.855e-15 4.83306 7.38617)
(-2.3629e-15 4.07193 5.61809)
(-2.91162e-15 3.42837 4.38097)
(-3.07513e-15 3.33625 4.02231)
(-2.81128e-15 3.89817 5.30495)
(-1.79936e-15 5.80386 8.55368)
(-9.43499e-16 8.11241 13.5344)
(-4.40245e-16 10.3396 17.1281)
(-7.25829e-16 8.41154 15.4309)
(-3.4424e-18 13.8294 24.805)
(-4.31265e-17 17.9023 30.5496)
(-2.71935e-17 15.4215 27.1773)
(-3.24607e-17 12.2957 21.1869)
(-2.47159e-17 12.6167 21.9707)
(1.88036e-16 13.3951 23.529)
(1.83452e-16 9.83842 17.0415)
(2.12432e-16 9.31967 16.6888)
(2.44969e-16 8.64859 14.8269)
(2.73072e-16 7.90179 13.7018)
(3.10806e-16 7.49525 12.1636)
(3.67418e-16 6.66391 10.5377)
(4.64537e-16 5.90346 8.44751)
(5.91827e-16 4.9463 6.46066)
(7.52827e-16 4.35928 4.86917)
(8.86494e-16 4.10023 4.56737)
(8.54715e-16 5.04354 6.11185)
(6.58216e-16 6.52005 9.85784)
(2.12268e-16 8.35651 13.1392)
(-2.01322e-18 7.69808 13.8525)
(8.2795e-19 13.4836 24.3008)
(9.4768e-18 17.946 30.2803)
(6.05315e-18 15.4595 27.468)
(7.31722e-18 12.448 21.1334)
(4.83759e-18 12.4637 21.4926)
(-4.46566e-17 13.2224 23.272)
(-4.17045e-17 9.96475 16.8126)
(-4.76403e-17 9.32439 16.6214)
(-5.50499e-17 9.06848 15.2727)
(-6.04455e-17 8.24842 14.5749)
(-6.92328e-17 8.02446 13.3527)
(-8.20464e-17 7.10933 12.1825)
(-1.01983e-16 6.48767 10.433)
(-1.2689e-16 5.3575 8.51891)
(-1.60182e-16 4.43298 6.28194)
(-2.0431e-16 3.45551 4.68937)
(-2.46755e-16 3.59117 4.52146)
(-2.41326e-16 4.37613 6.8034)
(-1.31642e-16 6.38118 10.0114)
(-4.1057e-17 6.41198 11.4817)
(-1.88644e-19 13.4108 24.2707)
(-2.18126e-18 18.0418 30.1364)
(-1.37052e-18 15.4617 27.8136)
(-1.66579e-18 12.763 21.3744)
(-1.01604e-18 12.4405 21.4422)
(1.00701e-17 13.1494 23.2578)
(9.65839e-18 10.3957 17.2482)
(1.10466e-17 9.25538 16.4943)
(1.3025e-17 9.25996 15.3459)
(1.44437e-17 8.25622 14.6472)
(1.67797e-17 8.01964 13.3561)
(2.01526e-17 6.94781 12.2517)
(2.47739e-17 6.42916 10.7489)
(2.97034e-17 5.2987 9.26739)
(3.54026e-17 4.49198 7.25934)
(4.36746e-17 3.2593 5.4903)
(5.63437e-17 3.08799 4.44166)
(6.2566e-17 3.36811 5.80901)
(4.20641e-17 5.82096 9.12351)
(1.54263e-17 5.73408 10.4941)
(4.13931e-20 13.5423 24.4183)
(5.14785e-19 18.0349 29.8594)
(3.17683e-19 15.3768 27.9556)
(3.83871e-19 13.1055 21.5642)
(2.41124e-19 12.4702 21.4731)
(-2.18637e-18 13.0131 23.0619)
(-2.39625e-18 10.8561 17.8091)
(-2.79213e-18 9.28332 16.4835)
(-3.28164e-18 9.3322 15.3131)
(-3.63714e-18 8.3376 14.5526)
(-4.18436e-18 8.021 13.2777)
(-5.00863e-18 7.04581 12.1148)
(-6.02925e-18 6.45173 10.6637)
(-6.96156e-18 5.42993 9.265)
(-7.77649e-18 4.69093 7.52975)
(-9.20556e-18 3.55201 5.96492)
(-1.22417e-17 3.28113 4.7327)
(-1.57409e-17 3.39725 5.72577)
(-1.23733e-17 5.68536 8.6301)
(-5.23736e-18 5.05751 9.29395)
(-8.17903e-21 13.9996 25.0771)
(-1.21341e-19 18.0272 29.5804)
(-7.68036e-20 15.3105 28.0775)
(-8.7887e-20 13.6069 21.9923)
(-6.49676e-20 12.6419 21.6206)
(4.62902e-19 12.9367 22.8769)
(5.95319e-19 11.3358 18.3094)
(7.13282e-19 9.60839 16.7601)
(8.28208e-19 9.5693 15.5088)
(9.17097e-19 8.73229 14.6508)
(1.03164e-18 8.28632 13.4555)
(1.21132e-18 7.50188 12.2422)
(1.39788e-18 6.80394 10.8739)
(1.54127e-18 5.94681 9.47482)
(1.75846e-18 5.16205 7.91195)
(2.22877e-18 4.21882 6.45046)
(2.56185e-18 3.75043 5.22058)
(2.94419e-18 3.69995 5.5962)
(3.42282e-18 5.00689 7.31391)
(2.28511e-18 3.98828 7.09398)
(1.40345e-21 14.6663 26.1448)
(2.83247e-20 18.058 29.4448)
(1.91793e-20 15.2506 28.1935)
(2.13913e-20 14.2503 22.7844)
(2.01005e-20 12.997 22.0108)
(-9.65553e-20 13.0201 22.8214)
(-1.55043e-19 11.8372 19.0044)
(-1.83905e-19 10.3181 17.4283)
(-2.03946e-19 10.0966 16.1561)
(-2.24874e-19 9.40928 15.0524)
(-2.48495e-19 8.79579 13.8093)
(-2.8146e-19 8.08178 12.4398)
(-3.10176e-19 7.29375 11.0226)
(-3.52041e-19 6.47582 9.55268)
(-4.194e-19 5.63831 8.0326)
(-4.24697e-19 4.75669 6.54584)
(-3.75543e-19 4.05175 5.21144)
(-4.12463e-19 3.70248 4.8461)
(-5.72584e-19 3.84305 5.18035)
(-7.3834e-19 2.41594 3.62643)
(-2.06251e-22 15.2503 27.232)
(-6.58335e-21 18.1156 29.6289)
(-4.94532e-21 15.3184 28.2268)
(-3.87548e-21 14.941 24.1151)
(-5.4294e-21 13.4362 22.8482)
(1.79719e-20 13.243 22.6958)
(3.65279e-20 12.3595 20.3055)
(4.52831e-20 11.4071 18.6447)
(4.91585e-20 10.7517 17.4011)
(5.38353e-20 10.2468 15.9945)
(5.84022e-20 9.46788 14.6803)
(6.38561e-20 8.79483 13.1348)
(7.13799e-20 7.93974 11.5972)
(8.06643e-20 7.12524 9.98059)
(7.84451e-20 6.23618 8.35907)
(8.03998e-20 5.29854 6.70473)
(1.23247e-19 4.30598 5.08173)
(1.82852e-19 3.42874 3.78896)
(2.64227e-19 2.23056 2.34257)
(3.2171e-19 0.291925 -0.421665)
(1.90647e-23 15.4104 27.8139)
(1.54086e-21 18.0488 29.9749)
(1.25735e-21 15.511 27.6309)
(1.87084e-21 15.0567 25.2422)
(2.44488e-21 13.6135 23.9142)
(-6.18e-21 13.4312 22.1963)
(-9.99333e-21 12.2309 21.53)
(-1.14572e-20 11.9988 19.7335)
(-1.17149e-20 10.7904 18.5264)
(-1.15156e-20 10.3789 17.002)
(-1.07621e-20 9.34995 15.6673)
(-1.05053e-20 8.62882 14.0031)
(-1.15575e-20 7.58917 12.4102)
(-1.51367e-20 6.67112 10.6534)
(-2.60174e-20 5.39442 8.63913)
(-4.89384e-20 3.79375 6.19527)
(-7.25368e-20 2.0321 3.83298)
(-9.40347e-20 0.369034 1.22871)
(7.00798e-20 -2.01682 -2.79252)
(5.51446e-19 -2.92416 -4.78896)
(-1.77098e-24 15.1511 27.6476)
(-3.70731e-22 18.145 29.8743)
(-3.17055e-22 15.1116 27.6417)
(-4.77551e-22 15.1261 25.0691)
(-5.63865e-22 13.2734 23.9535)
(1.31325e-21 13.2212 22.3208)
(2.11674e-21 11.7992 21.2635)
(2.12023e-21 11.3544 19.5756)
(2.47389e-21 9.94697 18.1301)
(4.06807e-21 9.35954 16.6614)
(6.88707e-21 8.15789 15.2045)
(9.17328e-21 7.23192 13.4629)
(6.97136e-21 6.00842 11.7338)
(-1.04844e-20 4.75264 9.56185)
(-6.80356e-20 2.56902 6.07414)
(-1.57407e-19 -0.050798 1.81007)
(-2.23365e-19 -0.919481 0.820009)
(-2.82179e-19 -0.315185 1.84956)
(-3.37752e-19 0.872723 3.00834)
(-3.30922e-19 1.659 3.66681)
(-9.49552e-25 15.2875 27.9429)
(8.8481e-23 18.55 29.9617)
(8.25447e-23 15.1889 27.726)
(1.13148e-22 15.4136 24.9457)
(1.11575e-22 13.4373 23.7283)
(-4.10133e-22 13.0854 21.5331)
(-8.01051e-22 11.7499 20.3322)
(-9.02404e-22 11.1686 18.5187)
(-6.81061e-22 10.0035 17.0177)
(-3.01254e-22 9.31363 15.5258)
(6.97956e-22 8.37084 14.0573)
(1.68364e-21 7.53905 12.5101)
(5.15235e-23 6.6261 10.9525)
(-1.04895e-20 5.6334 9.10943)
(-6.08367e-20 4.04427 6.35289)
(-1.98803e-19 2.28093 2.82354)
(-3.35762e-19 1.76856 1.62425)
(-3.34527e-19 3.48061 4.43789)
(-3.30026e-19 3.92084 5.33179)
(-2.49833e-19 2.81793 4.17334)
(5.51148e-25 15.9572 29.7897)
(-1.93397e-23 19.1228 30.1849)
(-1.70258e-23 15.4587 28.4741)
(-2.72645e-23 16.1725 25.7382)
(-4.71769e-23 14.1182 24.7059)
(4.5192e-23 14.0501 22.6979)
(1.89953e-22 12.8412 21.2904)
(4.06676e-22 12.2915 19.7102)
(6.41419e-22 11.5477 18.2999)
(6.63997e-22 10.9059 16.8565)
(-5.63918e-23 10.2512 15.4188)
(-1.77023e-21 9.55868 13.9121)
(-4.1596e-21 8.76686 12.2662)
(-4.84173e-21 7.80577 10.4071)
(6.73725e-21 6.63063 8.3561)
(-1.5986e-20 5.19204 5.79743)
(-1.36328e-19 3.68502 3.12945)
(-2.24466e-19 2.41948 1.15884)
(-2.76125e-19 0.575438 -0.628765)
(-2.75784e-19 -0.597712 -2.87005)
(-2.65521e-25 16.3421 31.5391)
(5.93999e-24 19.0656 29.7295)
(7.96859e-24 15.2676 28.9462)
(3.26082e-24 16.366 26.2981)
(-1.06628e-23 14.0624 25.4112)
(-1.447e-23 14.1238 23.448)
(1.14891e-22 12.8519 22.2845)
(4.45507e-22 12.4077 20.7812)
(7.59818e-22 11.6151 19.5395)
(3.43747e-22 11.0356 18.2185)
(-1.70025e-21 10.3346 16.8513)
(-5.37466e-21 9.50048 15.1888)
(-8.62871e-21 8.31407 13.0252)
(-9.06143e-21 6.66046 10.2018)
(-8.9045e-21 4.59256 6.91405)
(-3.29464e-21 2.5529 3.78852)
(2.22316e-20 0.808122 1.30179)
(1.49437e-20 -0.638885 -1.75752)
(-9.6588e-20 -2.54527 -3.79904)
(-2.25372e-19 -2.73366 -6.66755)
(5.85566e-26 15.7643 31.4632)
(1.85183e-25 18.4321 28.6494)
(1.0616e-24 14.5463 28.3927)
(-8.15942e-24 15.557 25.8567)
(-2.11602e-23 13.3337 24.976)
(3.46659e-23 13.1632 23.1985)
(2.78465e-22 11.9443 22.0471)
(7.12249e-22 11.3693 20.6985)
(8.58749e-22 10.5523 19.5544)
(-3.77176e-22 9.88391 18.3316)
(-3.83423e-21 9.04914 16.9589)
(-7.98477e-21 7.96624 15.0774)
(-8.10697e-21 6.37326 12.3527)
(-1.42024e-21 4.24745 8.69032)
(6.54929e-21 1.99152 4.75365)
(2.03205e-20 0.545132 2.18503)
(5.55687e-20 0.163015 1.37249)
(5.52108e-20 -1.0201 -0.750535)
(-3.32393e-20 -3.44949 -4.40939)
(-1.29901e-19 -2.90707 -5.47364)
(3.79979e-26 14.2815 30.4733)
(1.36705e-24 17.8936 27.5614)
(1.19749e-24 13.3468 27.4533)
(-8.26022e-24 14.1836 25.1409)
(-1.85802e-23 12.1123 24.22)
(3.65836e-23 11.6113 22.6722)
(2.6567e-22 10.4871 21.5108)
(6.4703e-22 9.73106 20.2682)
(7.71779e-22 8.89948 19.1343)
(-9.37617e-23 8.13556 17.9668)
(-2.10171e-21 7.29327 16.6613)
(-3.52788e-21 6.28932 14.9806)
(-1.5956e-21 5.04365 12.734)
(3.37216e-21 3.66447 9.99534)
(7.2119e-21 2.4038 7.14164)
(1.06546e-20 1.32907 4.4109)
(2.25002e-20 0.197788 1.61651)
(3.75487e-20 -1.03919 -1.24815)
(1.1733e-20 -2.02171 -3.01359)
(-5.19432e-20 -1.5782 -2.18025)
(4.48807e-26 11.2063 28.3449)
(4.03197e-25 16.8757 24.7752)
(-4.37287e-26 11.9032 25.1933)
(-6.52107e-24 12.5545 23.4618)
(-1.74817e-23 10.7999 22.7137)
(1.2324e-24 10.1239 21.6142)
(1.24813e-22 9.10843 20.6972)
(4.18211e-22 8.31364 19.7516)
(8.44115e-22 7.51893 18.8571)
(1.22816e-21 6.8051 17.9769)
(1.34709e-21 6.13855 17.1129)
(1.11518e-21 5.53536 16.2376)
(7.62992e-22 4.99007 15.297)
(7.05063e-22 4.48834 14.1886)
(8.70511e-22 3.99217 12.8039)
(6.14087e-22 3.42919 11.0694)
(4.35331e-22 2.71952 8.85818)
(2.25959e-21 1.82306 5.85742)
(3.85015e-21 0.518869 1.91039)
(-3.72281e-21 -0.853282 -1.56661)
(4.40047e-26 2.62555 17.0164)
(1.61507e-25 8.06631 13.6301)
(-2.71946e-25 5.17887 14.4948)
(-3.09536e-24 5.01765 14.0844)
(-9.62562e-24 4.10187 14.037)
(-1.18998e-23 3.55347 13.8518)
(2.08097e-23 2.9935 13.6848)
(1.41631e-22 2.54291 13.4892)
(3.87116e-22 2.15907 13.2843)
(7.06287e-22 1.85472 13.0691)
(9.26523e-22 1.62256 12.8428)
(8.40863e-22 1.4581 12.596)
(3.98101e-22 1.35361 12.3166)
(-1.73932e-22 1.31605 11.9912)
(-4.99123e-22 1.36759 11.6064)
(-4.10305e-22 1.48298 11.1765)
(-1.65188e-22 1.68403 10.6671)
(-1.1595e-22 2.2589 9.7758)
(-1.63807e-22 2.42939 8.42315)
(-1.97024e-23 -0.259712 6.34352)
(1.71258e-26 -2.61803 16.9851)
(1.23021e-25 -8.05831 13.6004)
(1.35978e-25 -5.17466 14.4704)
(-5.10722e-25 -5.01346 14.0617)
(-2.06616e-24 -4.09483 14.0166)
(-2.37075e-24 -3.54174 13.8337)
(4.76466e-24 -2.97398 13.6683)
(2.65998e-23 -2.51305 13.4736)
(6.23508e-23 -2.11743 13.2716)
(9.75032e-23 -1.804 13.0689)
(1.17482e-22 -1.57203 12.8765)
(1.34174e-22 -1.42398 12.6935)
(1.83404e-22 -1.35419 12.5029)
(2.72261e-22 -1.36306 12.2679)
(3.42242e-22 -1.4609 11.9404)
(3.30092e-22 -1.61294 11.5057)
(2.57373e-22 -1.83764 10.9282)
(1.86901e-22 -2.42886 9.94325)
(1.13913e-22 -2.59411 8.53625)
(2.09045e-23 0.239489 6.48252)
(2.90252e-26 -11.2573 28.3652)
(7.44428e-25 -16.8373 24.8788)
(1.31104e-24 -11.9 25.2906)
(-1.87381e-24 -12.4963 23.6067)
(-1.01634e-23 -10.7346 22.8891)
(-1.31525e-23 -10.0275 21.8278)
(1.18116e-23 -8.98821 20.946)
(8.18005e-23 -8.16358 20.0371)
(1.8616e-22 -7.34021 19.1816)
(2.83469e-22 -6.59024 18.3365)
(3.14198e-22 -5.86328 17.4723)
(1.96552e-22 -5.14402 16.5138)
(-1.74106e-22 -4.41035 15.374)
(-8.17503e-22 -3.67647 13.9551)
(-1.47988e-21 -2.98992 12.1706)
(-1.76354e-21 -2.38857 10.0479)
(-1.72709e-21 -1.88169 7.74467)
(-1.76963e-21 -1.45546 5.24229)
(-1.46322e-21 -0.872098 2.42111)
(-8.46329e-23 -0.102567 0.097633)
(7.9601e-26 -14.4817 30.8367)
(7.83172e-25 -18.0322 27.9104)
(1.36782e-26 -13.5569 27.8403)
(-8.44558e-24 -14.3576 25.5747)
(-2.29353e-23 -12.324 24.6697)
(-2.42441e-23 -11.8231 23.1571)
(1.8525e-23 -10.7228 22.0158)
(1.21356e-22 -9.9909 20.8034)
(2.52004e-22 -9.19679 19.7096)
(3.28744e-22 -8.49449 18.6087)
(2.39096e-22 -7.73685 17.4139)
(-1.74427e-22 -6.82257 15.865)
(-9.37382e-22 -5.51188 13.556)
(-1.27625e-21 -3.58391 10.0282)
(1.97003e-22 -1.15355 5.39471)
(2.42279e-21 1.05294 0.881743)
(1.48272e-21 2.52863 -2.2906)