/*--------------------------------*- C++ -*----------------------------------*\
| =========                 |                                                 |
| \\      /  F ield         | OpenFOAM: The Open Source CFD Toolbox           |
|  \\    /   O peration     | Version:  4.1                                   |
|   \\  /    A nd           | Web:      www.OpenFOAM.org                      |
|    \\/     M anipulation  |                                                 |
\*---------------------------------------------------------------------------*/
FoamFile
{
    version     2.0;
    format      ascii;
    class       volVectorField;
    location    "17";
    object      U;
}
// * * * * * * * * * * * * * * * * * * * * * * * * * * * * * * * * * * * * * //

dimensions      [0 1 -1 0 0 0 0];

internalField   nonuniform List<vector> 
1280
(
(-1.33631e-18 1.60692 -0.0874826)
(4.90206e-18 0.927084 -0.30841)
(5.51525e-17 1.09857 -0.0589129)
(-2.51638e-18 1.36032 -0.0146126)
(-3.03278e-17 1.67204 0.0240152)
(-3.91293e-17 1.35236 0.0583961)
(8.48361e-18 1.53961 0.0771695)
(-1.02351e-16 1.39313 0.0592803)
(-2.61547e-17 1.74019 0.0713174)
(8.09868e-17 1.36334 -0.035215)
(3.4328e-16 1.40953 -0.0763283)
(-1.1127e-16 1.74356 -0.173604)
(-5.41169e-16 1.35562 -0.203803)
(-5.93787e-16 1.4431 -0.238801)
(-1.77674e-15 1.72345 -0.359279)
(-1.51631e-15 1.38534 -0.340005)
(-1.39055e-15 1.48632 -0.242498)
(-1.50015e-15 1.78443 -1.0811)
(-9.03841e-16 1.9385 -0.522442)
(-1.18592e-15 1.52648 -2.07263)
(-3.56124e-16 1.79245 0.931001)
(-1.93615e-15 2.00042 4.47816)
(-2.23984e-15 1.71504 6.33558)
(-2.35444e-15 1.93763 7.41553)
(-2.34734e-15 1.83948 8.15613)
(-2.94921e-15 2.2023 8.95077)
(-2.95183e-15 -0.299015 10.7331)
(-3.67499e-15 3.77002 15.7761)
(-3.64534e-15 3.99121 16.1805)
(-3.62556e-15 3.95643 16.4569)
(-3.62475e-15 3.97243 16.6241)
(-3.65266e-15 3.97848 16.7291)
(-3.71075e-15 3.97377 16.7931)
(-3.6679e-15 3.94651 16.8312)
(-3.71814e-15 3.95529 16.8473)
(-3.76307e-15 3.89166 16.8409)
(-3.81262e-15 3.95963 16.8441)
(-3.82154e-15 3.76056 16.7415)
(-3.57383e-15 4.11838 17.3894)
(-4.27696e-15 3.69931 15.6395)
(5.64121e-15 6.75453 13.1218)
(7.16307e-14 -4.28718 -5.90345)
(7.98653e-14 1.31361 -5.59156)
(7.94118e-14 -0.0128259 -5.86761)
(4.97698e-14 0.277819 -6.22859)
(6.91518e-15 -0.787728 -2.98732)
(1.34399e-14 0.0192751 -3.07753)
(1.37375e-14 0.161997 -2.95892)
(2.02465e-14 -0.40078 -3.58641)
(1.4255e-14 0.0621874 -2.73135)
(1.64357e-14 0.402538 -3.57105)
(1.5016e-15 0.0541006 3.63417)
(-3.23924e-15 -1.49342 6.50872)
(-2.22407e-15 -2.20969 6.19305)
(-2.12594e-15 -2.84448 6.47668)
(-1.75926e-15 -4.58338 9.81692)
(-4.31869e-16 -5.67948 8.43169)
(5.52957e-16 -6.88359 8.32937)
(1.35347e-15 -7.50826 8.18222)
(3.14123e-15 -10.7884 10.6575)
(3.05956e-15 -9.31539 8.18137)
(1.94191e-15 -9.53919 8.69902)
(1.32611e-15 -9.57764 8.87458)
(7.43153e-16 -9.66383 9.23281)
(4.16891e-16 -9.72046 9.67274)
(-1.60684e-18 -9.75733 10.1775)
(-4.06302e-16 -9.78189 10.7013)
(-7.63964e-16 -9.78213 11.2364)
(-1.06209e-15 -9.77142 11.7713)
(-1.31277e-15 -9.74678 12.3082)
(-1.44171e-15 -9.68364 12.8396)
(-1.51872e-15 -9.60251 13.3146)
(-1.55008e-15 -9.57598 13.5509)
(-1.23385e-15 -3.69399 7.10611)
(-1.65046e-15 -5.43456 12.4389)
(-1.64706e-15 -4.92033 11.5118)
(-1.99481e-15 -5.03988 9.07016)
(-2.12449e-15 -5.10976 4.44778)
(-1.47236e-15 -5.2582 -0.396652)
(-2.61765e-16 -5.23498 -3.0592)
(-5.12981e-16 -4.85522 -3.92806)
(-6.92468e-16 -4.4948 -3.51054)
(-1.2201e-15 -4.31168 -4.80654)
(-1.45053e-15 -3.18614 -2.76453)
(-2.14564e-15 -2.63886 -3.29703)
(-4.064e-15 -2.24711 -4.25687)
(-3.44701e-15 -1.37085 -2.51613)
(-3.82135e-15 -0.85392 -2.96072)
(-4.24726e-15 -0.936461 -4.01095)
(-1.13374e-15 0.386649 -2.95826)
(1.87428e-15 0.444647 -2.38437)
(-3.15386e-15 2.31838 -5.122)
(-3.79861e-15 2.11675 -3.95133)
(-3.48296e-15 3.01995 -3.82213)
(-2.73996e-15 3.03971 -3.09079)
(-2.10392e-15 7.08042 -5.66774)
(-6.20769e-16 2.98946 -4.13553)
(-1.60265e-15 11.1532 -2.01783)
(2.0664e-15 -30.2527 -1.20171)
(1.06013e-14 29.7114 -32.4678)
(-1.20424e-12 585.209 343.498)
(-3.72462e-14 -55.6335 -151.473)
(5.7913e-14 -106.443 -27.9051)
(-1.84399e-14 -14.866 107.853)
(4.09398e-15 -26.4317 -17.459)
(1.94686e-15 -11.552 -1.30618)
(-1.2715e-17 -3.47243 3.29396)
(2.92661e-17 -5.36804 -1.31813)
(2.11013e-16 -6.65817 -0.770556)
(-1.19331e-15 -7.30422 2.9137)
(-3.76155e-15 -3.17339 7.62107)
(-4.12213e-15 5.45756 9.48845)
(-2.20704e-15 12.0234 4.11499)
(-2.82628e-15 14.2963 -1.07018)
(-2.74778e-15 15.3854 -7.09312)
(-2.33786e-15 13.0532 -11.5446)
(-1.94835e-15 11.6378 -16.8296)
(-1.0434e-15 4.45904 -12.9054)
(-1.48702e-15 14.2082 -27.4268)
(3.88816e-13 -168.363 -120.401)
(2.03995e-14 15.1308 166.26)
(7.70917e-14 -100.021 -30.8496)
(2.74758e-15 26.8357 79.2379)
(1.4101e-14 18.5981 3.74098)
(2.51779e-15 -9.97728 2.38762)
(-6.71277e-17 -2.19147 3.32349)
(2.47352e-17 -3.80032 -1.75272)
(-1.34429e-15 -6.89708 2.30748)
(-4.52421e-15 -8.12327 7.74808)
(-4.24352e-15 -6.65401 10.118)
(-5.25241e-16 -2.37319 8.84752)
(7.49048e-16 1.76816 5.64546)
(-2.34087e-16 2.02837 2.74719)
(-4.06582e-16 1.46928 0.445856)
(-5.41536e-16 0.00826975 -1.91548)
(-5.80015e-16 -3.6803 -3.63237)
(-5.96437e-16 -1.7042 -4.36078)
(-4.20511e-16 -9.90824 -7.75044)
(1.70325e-14 199.736 1.99886)
(7.17115e-14 42.1547 -7.96273)
(8.26625e-14 -75.6738 -25.9765)
(5.24757e-14 -19.847 -1.17621)
(1.95594e-14 14.983 9.73674)
(9.8909e-16 -6.35744 6.99002)
(-1.02713e-16 -0.183473 0.882162)
(-8.57386e-16 -3.00837 1.10573)
(-3.7486e-15 -7.61504 5.62405)
(-5.602e-15 -7.62754 9.18322)
(-2.566e-15 -4.06303 11.0694)
(-1.16202e-17 3.25138 11.2649)
(1.56342e-16 8.44506 7.05341)
(-7.60579e-16 9.27378 2.36775)
(-1.14203e-15 9.38563 -1.03828)
(-1.07365e-15 7.65777 -4.23549)
(-8.27398e-16 5.24996 -6.6777)
(-7.04361e-16 3.72626 -6.79592)
(-3.61103e-17 4.46258 -5.80775)
(9.81964e-14 21.6881 -12.3565)
(9.06657e-14 -38.0904 73.9249)
(8.52612e-14 -70.388 -17.012)
(7.75024e-14 -9.69303 -9.45505)
(1.9425e-14 13.014 -1.33312)
(3.88433e-17 -5.31337 9.17627)
(-2.95835e-16 -0.0693522 -0.744699)
(-2.04763e-15 -4.6954 3.19114)
(-4.96449e-15 -9.50815 6.24775)
(-3.59838e-15 -9.30155 8.81528)
(2.34907e-15 -6.14209 11.5354)
(6.76142e-15 1.78619 11.8562)
(1.75739e-15 8.17475 8.37914)
(-5.00963e-16 8.55833 3.24183)
(-2.35389e-15 8.0879 -0.419594)
(-1.9989e-15 6.06187 -3.63462)
(-1.41442e-15 2.19242 -5.9395)
(-9.41755e-16 -0.301422 -6.11122)
(3.41356e-17 -2.45847 -4.63734)
(7.8229e-14 87.5687 7.86321)
(9.5149e-14 29.2459 31.8964)
(8.83458e-14 -57.204 -6.7428)
(9.46157e-14 -9.28463 -7.06735)
(4.24456e-15 6.39493 3.45088)
(-2.47902e-16 -5.29545 8.85202)
(-1.2691e-15 0.839248 0.0605386)
(-2.69763e-15 -5.93216 3.50418)
(-3.33246e-15 -10.5288 4.82466)
(3.68792e-15 -10.1417 7.0498)
(1.47581e-14 -6.18624 9.71542)
(2.34109e-14 3.49526 9.78958)
(8.088e-15 10.8866 8.0786)
(7.00386e-16 11.4614 3.40894)
(-5.1617e-15 10.6231 -0.439702)
(-3.52657e-15 8.37093 -3.11662)
(-2.57257e-15 4.40092 -5.53141)
(-1.79641e-15 1.76202 -6.06878)
(-2.81948e-16 -0.0122771 -5.15443)
(7.90016e-14 39.0288 18.5003)
(9.66024e-14 -9.54848 43.731)
(9.0371e-14 -45.0174 3.5465)
(9.1491e-14 -10.7287 -3.43474)
(-3.56286e-15 3.69405 6.82776)
(-2.58286e-16 -3.57907 7.75032)
(-1.52039e-15 1.29669 0.544683)
(-1.89823e-15 -6.21897 2.22362)
(7.19321e-16 -11.0153 1.62392)
(1.39545e-14 -10.8012 2.98493)
(3.2317e-14 -7.06646 4.43372)
(4.68604e-14 2.74111 4.16366)
(2.16167e-14 11.4364 5.12611)
(4.49537e-15 12.6204 2.81022)
(-9.35068e-15 11.3626 -0.0972072)
(-4.58966e-15 8.77703 -1.11399)
(-3.44575e-15 4.20701 -2.94308)
(-2.76581e-15 0.326307 -4.0014)
(-1.4522e-15 -1.42211 -5.12902)
(7.2134e-14 45.3226 29.1927)
(8.88619e-14 8.49575 33.0378)
(8.35396e-14 -34.9241 12.4928)
(5.54733e-14 -11.5146 -1.47861)
(3.15191e-16 0.601001 8.43143)
(-1.27975e-16 -1.78118 6.01606)
(1.81362e-15 2.59393 -0.896643)
(-8.10827e-16 -5.83252 -0.200292)
(5.14344e-15 -11.0009 -2.97008)
(2.23363e-14 -10.8747 -2.78163)
(4.43197e-14 -7.41831 -2.28668)
(6.04628e-14 1.70158 -3.08347)
(3.83482e-14 11.3974 -0.684153)
(1.23088e-14 13.3994 0.512218)
(-1.28216e-14 11.9461 0.259717)
(-4.36393e-15 9.29649 1.83518)
(-3.41584e-15 5.27156 1.30582)
(-1.71441e-15 2.0217 -0.613201)
(-1.6481e-15 0.0493158 -1.63196)
(6.41019e-14 23.2678 37.0763)
(6.83285e-14 0.0920689 34.2328)
(6.4712e-14 -25.0368 18.5163)
(2.20624e-14 -9.9499 -5.70894)
(9.55594e-15 1.04315 2.80141)
(6.16359e-15 2.60726 -5.20988)
(5.96645e-15 2.86354 -6.5798)
(3.69523e-15 -4.38896 -3.54488)
(1.08774e-14 -10.3536 -8.26288)
(2.85003e-14 -10.6973 -9.89883)
(4.86174e-14 -7.12704 -9.81316)
(5.98383e-14 1.18176 -9.98524)
(4.88778e-14 10.2802 -7.77299)
(2.24193e-14 12.4754 -3.62949)
(-1.23152e-14 10.9031 -0.0601661)
(-4.03131e-15 8.54515 4.53094)
(-3.19834e-15 5.54956 5.85075)
(2.60484e-16 1.51226 4.81393)
(1.29001e-15 -4.57677 6.65434)
(5.42726e-14 15.7252 44.3241)
(4.76912e-14 2.26767 33.4146)
(4.78557e-14 -14.1044 20.486)
(1.63524e-14 -8.14172 -16.1998)
(8.73169e-15 -2.02152 -23.2588)
(9.73655e-15 1.13793 -25.1629)
(9.01332e-15 -0.19323 -23.1656)
(7.4151e-15 -4.45634 -14.044)
(1.53151e-14 -8.79895 -13.9378)
(3.12456e-14 -9.89811 -15.9598)
(4.59734e-14 -7.07539 -16.0105)
(5.83499e-14 0.704435 -17.0766)
(5.30039e-14 8.91564 -15.3839)
(3.10852e-14 10.4213 -9.13642)
(-6.51052e-15 8.54378 -2.38212)
(-3.93504e-15 6.66585 5.30726)
(-3.84422e-15 4.29583 9.81825)
(-2.34023e-15 0.0773034 12.0576)
(-1.59708e-15 -4.0859 11.6756)
(3.7994e-14 1.14811 46.0129)
(1.66119e-14 3.64757 31.4131)
(1.86445e-14 2.98913 18.2192)
(1.3287e-14 1.93854 -21.5973)
(1.0504e-14 4.37911 -29.3179)
(1.10117e-14 3.83241 -30.5111)
(1.28821e-14 -0.729871 -33.0532)
(1.40899e-14 -6.80357 -30.0859)
(1.99981e-14 -9.76516 -26.58)
(3.2039e-14 -9.84515 -25.1882)
(4.29114e-14 -6.63164 -24.6446)
(6.07828e-14 0.821387 -26.3048)
(5.0361e-14 7.13242 -23.4641)
(3.38222e-14 7.46878 -15.1399)
(3.86786e-15 5.3116 -7.05828)
(-2.26807e-15 3.89328 1.3684)
(-3.14286e-15 3.02414 7.65823)
(-2.46212e-15 0.857698 10.015)
(-1.2749e-15 -1.95525 8.97961)
(1.80428e-14 -7.55776 42.94)
(-9.67865e-15 3.84074 30.2368)
(-8.45132e-16 18.1005 18.4299)
(-2.55219e-15 9.09551 -18.8579)
(-2.59871e-15 4.72875 -13.3854)
(-1.85104e-15 2.93854 -11.3067)
(-1.6678e-15 -0.507729 -18.4912)
(4.46344e-15 -6.54655 -29.3213)
(1.30148e-14 -10.3741 -35.1342)
(2.43471e-14 -10.3985 -37.0683)
(3.46089e-14 -6.76409 -37.7)
(3.76359e-14 -0.306699 -37.0657)
(3.39346e-14 4.13782 -30.2148)
(2.85976e-14 3.94703 -19.788)
(2.11893e-14 2.32386 -11.3091)
(4.10553e-15 1.50844 -4.91497)
(-1.71059e-15 1.41469 2.64209)
(3.20928e-16 0.297573 4.54412)
(3.72761e-15 -2.28303 2.90247)
(1.18593e-14 -21.3925 37.7438)
(-5.4154e-15 4.73422 29.7419)
(5.87464e-16 28.9903 18.5432)
(-1.23432e-15 8.22724 -7.17412)
(1.93632e-15 1.75904 12.1351)
(1.94499e-15 6.64091 1.1253)
(3.39028e-15 4.50611 -6.45941)
(2.57893e-15 -1.10182 -16.6861)
(4.59158e-15 -7.07266 -28.9504)
(1.06611e-14 -8.9459 -37.2435)
(1.7569e-14 -6.88475 -40.6824)
(2.05666e-14 -2.39998 -38.3518)
(2.17787e-14 0.278142 -30.0513)
(2.2532e-14 -0.108574 -19.7079)
(1.72906e-14 -1.1579 -11.2309)
(-1.90802e-15 -2.33812 0.607867)
(-5.25889e-15 -2.15047 10.4064)
(2.85671e-15 0.583681 11.8224)
(1.99238e-14 2.42464 8.45629)
(9.83366e-15 -28.3015 30.1626)
(-4.04826e-15 5.39608 32.7399)
(-1.59668e-16 37.7952 15.8526)
(-1.97783e-15 8.81413 1.85905)
(8.5805e-17 2.34884 8.51808)
(8.94614e-16 10.3963 4.65715)
(3.57548e-15 7.15242 -3.65058)
(5.0471e-15 3.25105 -9.99306)
(4.50262e-15 -2.21968 -19.1632)
(4.49399e-15 -5.50787 -27.9137)
(6.47088e-15 -6.11602 -32.8156)
(9.75929e-15 -4.28195 -30.852)
(1.44574e-14 -3.03592 -23.589)
(1.85033e-14 -3.48705 -15.2917)
(1.0878e-14 -5.06281 -7.13212)
(-4.00934e-15 -6.12004 5.30573)
(-5.25643e-15 -2.34774 10.6828)
(-5.45821e-15 2.64323 10.9323)
(-4.63884e-15 6.33129 13.9176)
(9.46323e-15 -49.5538 22.8876)
(-2.81276e-15 -1.05329 35.8019)
(1.09837e-16 46.1693 10.132)
(-2.0307e-15 9.50044 5.36791)
(-1.07571e-15 1.57384 8.87158)
(4.93247e-16 12.0654 9.17764)
(3.62592e-15 9.59768 1.67034)
(5.20134e-15 5.67944 -3.59831)
(5.87811e-15 0.128992 -11.4451)
(4.60804e-15 -3.39664 -17.8306)
(3.14206e-15 -5.80521 -22.2355)
(5.65597e-15 -6.1474 -20.7872)
(1.20445e-14 -6.06508 -15.3843)
(1.47049e-14 -6.9352 -9.57349)
(3.53888e-15 -9.26841 -0.960728)
(-3.33494e-15 -9.08012 6.89789)
(-2.71946e-15 -4.32085 4.90461)
(4.27978e-17 -1.17073 -0.979205)
(-8.48312e-16 -0.361368 3.6289)
(8.87239e-15 -42.8345 12.3437)
(-1.98111e-15 15.8011 47.26)
(2.99015e-16 55.5182 2.15755)
(-1.41693e-15 8.41088 7.04925)
(-1.73689e-15 0.318047 8.96507)
(-1.23624e-16 13.5449 12.3971)
(2.77217e-15 11.8437 6.79569)
(4.99918e-15 8.70832 2.66971)
(4.43026e-15 2.7014 -5.50923)
(3.83112e-15 -0.987091 -10.2745)
(2.00711e-15 -4.89804 -13.2093)
(5.52213e-15 -6.73541 -11.423)
(1.14544e-14 -7.15365 -7.57551)
(8.14067e-15 -9.05211 -1.8834)
(-5.97156e-16 -11.4205 4.8818)
(-2.25319e-15 -8.66252 6.05995)
(-1.31405e-15 -1.6407 0.195145)
(-3.19654e-16 1.75284 1.45267)
(1.77732e-16 1.79254 -1.18887)
(9.20002e-15 -92.4305 1.21109)
(-8.21904e-16 -30.533 33.0013)
(3.47744e-16 66.6468 -7.56685)
(-9.25691e-16 4.52477 5.29382)
(-2.11483e-15 -1.15101 6.29982)
(-6.55136e-16 13.85 13.4953)
(1.26114e-15 13.4947 10.5763)
(3.89089e-15 11.2401 8.24298)
(3.98951e-15 5.27333 1.36294)
(2.36687e-15 -0.653574 -2.76273)
(1.79023e-15 -5.89667 -5.31253)
(7.34301e-15 -8.94984 -2.69082)
(7.60564e-15 -10.6983 0.924289)
(1.8448e-15 -12.8259 5.3699)
(-1.55489e-15 -12.7925 7.06264)
(-1.68985e-15 -7.57572 4.02542)
(-7.58169e-16 -1.6199 0.913277)
(-2.13965e-17 1.04624 2.10286)
(-7.01583e-17 1.21274 0.249797)
(7.8557e-15 -20.9714 -17.7982)
(-1.53551e-15 44.4912 80.1224)
(3.35453e-16 77.2705 -17.2461)
(-1.19195e-15 5.80899 -0.400989)
(-2.25386e-15 -8.2291 3.49882)
(-5.85688e-16 12.3578 11.5616)
(-3.80568e-16 13.7075 11.8672)
(1.97272e-15 12.8235 13.1358)
(3.97813e-15 7.68071 8.45468)
(3.59684e-15 3.7389 4.84259)
(4.34027e-15 -3.50267 3.10614)
(6.63284e-15 -7.44481 5.32692)
(2.23178e-15 -8.69751 7.64908)
(-7.19419e-16 -10.0374 9.14988)
(-1.60444e-15 -9.55172 7.40272)
(-1.77555e-15 -4.88295 3.48562)
(-1.17915e-15 -0.578961 3.43204)
(-4.28379e-16 2.13295 2.34325)
(-1.19849e-17 2.26033 0.263272)
(6.47118e-15 -210.651 0.196981)
(4.92949e-15 -41.8742 -8.41719)
(2.83998e-16 82.1149 -25.6044)
(-1.98466e-15 18.0042 -2.36073)
(-2.04586e-15 -9.90001 18.8433)
(-5.23305e-17 12.3076 7.70575)
(-1.14122e-15 11.4347 10.1427)
(-7.04039e-16 12.0018 15.5647)
(2.20524e-15 6.46749 15.3384)
(4.63901e-15 -4.51357 12.011)
(4.03607e-15 -9.35184 10.7038)
(2.11898e-15 -13.8286 10.1326)
(-2.0375e-15 -15.8221 9.62918)
(-2.23421e-15 -16.3646 7.94013)
(-1.96612e-15 -13.1078 4.33498)
(-1.65253e-15 -8.37202 1.13402)
(-3.30873e-15 -3.68852 1.53244)
(-2.25933e-15 2.73467 0.22091)
(-1.61153e-16 2.49301 0.253076)
(7.51907e-15 183.788 -133.475)
(1.53029e-15 -26.5233 174.721)
(1.82609e-16 108.99 -30.9043)
(-2.34528e-15 -27.568 78.3306)
(-9.42033e-16 -15.2589 0.503596)
(1.44227e-16 16.3043 3.94957)
(-5.33858e-16 11.5005 5.6268)
(-2.30681e-15 11.8583 12.5768)
(-2.15456e-15 11.985 19.4938)
(1.77389e-15 10.8314 15.3306)
(3.58079e-15 3.79495 11.0338)
(2.02067e-15 -0.0473312 9.63579)
(1.99966e-15 0.0426187 9.26718)
(2.1821e-15 0.155931 8.74736)
(4.86058e-18 -0.648562 6.93784)
(-2.84739e-15 2.15983 3.70503)
(-9.94256e-15 3.77829 -4.13939)
(-5.75364e-15 2.99613 -4.85782)
(-7.15828e-16 2.35037 -0.845324)
(-6.32931e-15 -621.63 377.48)
(-7.05312e-17 70.4206 -159.228)
(3.9494e-16 115.871 -26.9227)
(-5.31832e-16 13.8954 115.935)
(1.25803e-16 34.3145 -18.5193)
(2.74124e-17 17.8329 0.353742)
(1.44809e-16 12.6276 1.89967)
(-7.78051e-16 11.0052 3.76873)
(-4.00968e-15 5.63385 14.4165)
(-6.62886e-15 -6.49506 21.7454)
(-8.07718e-15 -17.6363 20.104)
(-1.1938e-14 -26.8691 13.0821)
(-1.64226e-14 -32.0934 5.68204)
(-1.83005e-14 -32.7286 0.796182)
(-1.68227e-14 -22.4585 -5.37688)
(-1.69515e-14 -13.1208 -12.4132)
(-1.35927e-14 -6.35011 -14.045)
(-6.61907e-15 -1.33773 -9.39813)
(-1.25395e-15 0.619768 -2.62913)
(1.47211e-16 5.26389 9.46206)
(-4.94375e-15 10.1056 17.1037)
(-4.07466e-15 10.2352 17.1248)
(-3.66152e-15 9.92709 16.3675)
(-3.67346e-15 9.90226 16.1438)
(-5.42553e-15 9.96936 16.0764)
(-4.29092e-15 9.84358 15.7267)
(-3.69573e-15 9.75734 15.5869)
(-3.59297e-15 9.68151 15.5742)
(-3.56298e-15 9.64405 15.5733)
(-3.59568e-15 9.59582 15.583)
(-3.72557e-15 9.548 15.594)
(-3.79035e-15 9.50296 15.6011)
(-3.59788e-15 9.45003 15.612)
(-3.59342e-15 9.4075 15.6107)
(-3.64452e-15 9.34343 15.6136)
(-3.68472e-15 9.30727 15.6016)
(-3.61585e-15 9.50199 16.0651)
(-3.51669e-15 9.79652 16.5518)
(-5.43999e-15 5.6051 9.36132)
(3.05095e-17 4.99345 8.48988)
(-4.14818e-15 9.27655 15.9346)
(-2.94689e-15 9.00789 15.5918)
(-2.95137e-15 8.7321 15.136)
(-2.97965e-15 8.71195 15.1906)
(-5.1322e-15 8.73918 15.2402)
(-3.18771e-15 8.77604 15.3608)
(-3.12822e-15 8.81907 15.4062)
(-3.14006e-15 8.83352 15.4327)
(-3.08041e-15 8.85158 15.45)
(-3.1593e-15 8.86296 15.4656)
(-3.23983e-15 8.87342 15.4794)
(-3.29643e-15 8.8849 15.4893)
(-3.14637e-15 8.88745 15.5025)
(-3.06089e-15 8.90286 15.5046)
(-3.11827e-15 8.89008 15.5108)
(-3.14148e-15 8.92679 15.521)
(-3.22533e-15 9.15622 15.9747)
(-3.14134e-15 9.42963 16.3761)
(-5.03637e-15 5.33443 9.36007)
(5.87855e-18 5.47278 9.49898)
(-1.41776e-15 9.58136 16.392)
(-9.82564e-16 9.29969 16.0059)
(-1.01006e-15 9.05344 15.5094)
(-9.64381e-16 9.01697 15.484)
(-2.96636e-15 9.03493 15.4807)
(-1.56504e-15 9.01204 15.4675)
(-1.46302e-15 9.00908 15.4592)
(-1.40587e-15 8.99705 15.4648)
(-1.37821e-15 8.99504 15.4679)
(-1.47721e-15 8.98751 15.4753)
(-1.42034e-15 8.98264 15.4828)
(-1.48567e-15 8.97952 15.4897)
(-1.41635e-15 8.97051 15.5016)
(-1.45703e-15 8.97349 15.5062)
(-1.37009e-15 8.95436 15.5182)
(-1.37388e-15 8.96922 15.5193)
(-1.45631e-15 9.15786 15.9277)
(-1.42223e-15 9.51899 16.4937)
(-2.33814e-15 5.65087 9.92339)
(-3.52431e-18 5.61067 9.68427)
(3.29891e-16 9.4897 16.2881)
(2.55192e-16 9.12139 15.7452)
(2.37017e-16 8.90601 15.3373)
(2.48951e-16 8.88581 15.351)
(-1.81504e-15 8.90411 15.3592)
(-1.36695e-15 8.89633 15.3768)
(-1.40556e-15 8.90642 15.3807)
(-1.60518e-15 8.90169 15.3906)
(-1.38837e-15 8.90652 15.395)
(-1.43081e-15 8.90492 15.4024)
(-1.36649e-15 8.90596 15.4087)
(-1.37554e-15 8.90755 15.4141)
(-1.37622e-15 8.90418 15.4231)
(-1.38832e-15 8.91047 15.4256)
(-1.37199e-15 8.89687 15.4334)
(-1.60172e-15 8.91316 15.4337)
(-1.33023e-15 9.09342 15.8049)
(-1.33839e-15 9.47225 16.4143)
(-2.1599e-15 5.77324 10.101)
(1.29252e-18 5.84188 10.1052)
(-7.78541e-17 9.51748 16.3354)
(-6.61776e-17 9.10939 15.727)
(-5.58187e-17 8.91995 15.3523)
(-6.57559e-17 8.89836 15.3613)
(4.28557e-16 8.91367 15.3643)
(3.40637e-16 8.90159 15.3729)
(3.43908e-16 8.90673 15.373)
(3.31143e-16 8.89959 15.3803)
(3.25808e-16 8.90158 15.3833)
(3.47297e-16 8.89776 15.3896)
(3.36994e-16 8.89714 15.3948)
(3.49087e-16 8.89663 15.3997)
(3.33467e-16 8.8927 15.4077)
(3.3953e-16 8.89704 15.4103)
(3.23878e-16 8.88456 15.4178)
(3.28941e-16 8.89714 15.4149)
(3.40504e-16 9.05927 15.7521)
(3.35137e-16 9.46802 16.4148)
(5.3174e-16 5.95242 10.4197)
(-4.08361e-19 6.02572 10.4109)
(1.85695e-17 9.49411 16.3061)
(1.61636e-17 9.05071 15.629)
(1.33316e-17 8.88456 15.301)
(1.62811e-17 8.86799 15.316)
(-1.03796e-16 8.88215 15.3194)
(-8.39707e-17 8.87191 15.3295)
(-8.08565e-17 8.87772 15.3308)
(-7.98864e-17 8.87161 15.3384)
(-7.69045e-17 8.87413 15.3416)
(-8.07217e-17 8.87083 15.348)
(-8.42016e-17 8.87092 15.3529)
(-8.72586e-17 8.87036 15.358)
(-8.04948e-17 8.86749 15.3653)
(-8.26332e-17 8.8711 15.3684)
(-7.89397e-17 8.86067 15.3756)
(-7.98317e-17 8.87033 15.3714)
(-8.58562e-17 9.01393 15.6703)
(-8.08846e-17 9.4458 16.3805)
(-1.22334e-16 6.12543 10.7148)
(1.20619e-19 6.22232 10.75)
(-4.45983e-18 9.48175 16.2893)
(-3.75823e-18 9.01266 15.565)
(-3.23195e-18 8.86888 15.2765)
(-3.83427e-18 8.85421 15.2927)
(2.50835e-17 8.86682 15.295)
(2.02581e-17 8.85681 15.3039)
(1.88072e-17 8.86174 15.3049)
(1.908e-17 8.85574 15.3119)
(1.85439e-17 8.85782 15.3149)
(1.88622e-17 8.85435 15.3209)
(2.02548e-17 8.85446 15.3254)
(2.09043e-17 8.85335 15.3304)
(1.89695e-17 8.85107 15.337)
(2.0161e-17 8.85365 15.3403)
(1.9543e-17 8.84492 15.3472)
(1.9308e-17 8.85192 15.3418)
(2.03014e-17 8.97707 15.6036)
(1.92218e-17 9.42676 16.3489)
(2.73306e-17 6.30728 11.029)
(-3.39749e-20 6.41036 11.069)
(1.07394e-18 9.45692 16.2525)
(8.59553e-19 8.97079 15.4934)
(7.85324e-19 8.84788 15.2438)
(8.94203e-19 8.83556 15.2613)
(-5.96442e-18 8.84692 15.2633)
(-4.79535e-18 8.83776 15.2719)
(-4.47538e-18 8.84233 15.2732)
(-4.53433e-18 8.83684 15.28)
(-4.53942e-18 8.83882 15.283)
(-4.45571e-18 8.83552 15.2889)
(-4.72812e-18 8.83589 15.2932)
(-4.86448e-18 8.8345 15.2984)
(-4.43831e-18 8.83297 15.3044)
(-4.87857e-18 8.83468 15.3083)
(-4.79104e-18 8.82775 15.3149)
(-4.62058e-18 8.8325 15.3094)
(-4.60262e-18 8.94005 15.5353)
(-4.54613e-18 9.40045 16.3043)
(-6.06254e-18 6.48786 11.3392)
(9.16345e-21 6.59928 11.3914)
(-2.57017e-19 9.42909 16.2096)
(-1.97767e-19 8.93366 15.4299)
(-1.8835e-19 8.83044 15.2165)
(-2.12295e-19 8.8197 15.2344)
(1.40056e-18 8.82983 15.2359)
(1.12553e-18 8.82135 15.2439)
(1.08433e-18 8.82539 15.2453)
(1.07906e-18 8.82034 15.2517)
(1.10491e-18 8.82209 15.2547)
(1.0556e-18 8.81891 15.2604)
(1.10716e-18 8.81942 15.2644)
(1.11736e-18 8.81773 15.2697)
(1.05125e-18 8.81685 15.2752)
(1.15197e-18 8.81769 15.2795)
(1.15498e-18 8.81243 15.2857)
(1.10099e-18 8.81523 15.2805)
(1.04096e-18 8.90626 15.4724)
(1.07373e-18 9.37009 16.2521)
(1.34389e-18 6.66899 11.6509)
(-2.37761e-21 6.78569 11.7086)
(6.06652e-20 9.39451 16.1552)
(4.60412e-20 8.89795 15.3687)
(4.44043e-20 8.81297 15.1893)
(5.13661e-20 8.80358 15.2069)
(-3.28418e-19 8.81257 15.2081)
(-2.65892e-19 8.80486 15.2156)
(-2.6268e-19 8.80843 15.2173)
(-2.57028e-19 8.80388 15.2234)
(-2.64167e-19 8.80541 15.2263)
(-2.52501e-19 8.80245 15.2319)
(-2.63171e-19 8.80309 15.2358)
(-2.57541e-19 8.80118 15.2412)
(-2.51813e-19 8.80094 15.2461)
(-2.66937e-19 8.80095 15.2509)
(-2.74596e-19 8.79734 15.2567)
(-2.62924e-19 8.79845 15.2524)
(-2.41188e-19 8.87432 15.4126)
(-2.55557e-19 9.33405 16.1901)
(-2.99793e-19 6.84903 11.9605)
(5.99257e-22 6.97111 12.0244)
(-1.41007e-20 9.35478 16.0918)
(-1.08124e-20 8.86499 15.3121)
(-1.03811e-20 8.79674 15.1641)
(-1.25381e-20 8.78836 15.1809)
(7.72965e-20 8.79628 15.182)
(6.36723e-20 8.78931 15.189)
(6.30987e-20 8.79238 15.1908)
(6.13604e-20 8.78833 15.1965)
(6.22682e-20 8.78961 15.1995)
(6.11586e-20 8.78688 15.2049)
(6.28022e-20 8.78758 15.2086)
(6.01606e-20 8.78552 15.214)
(6.03366e-20 8.78584 15.2185)
(6.17251e-20 8.78506 15.2237)
(6.45627e-20 8.78301 15.229)
(6.29645e-20 8.78264 15.226)
(5.74994e-20 8.84483 15.3569)
(6.1559e-20 9.29285 16.1192)
(6.73608e-20 7.02827 12.2686)
(-1.48598e-22 7.15505 12.3375)
(3.2423e-21 9.30932 16.0185)
(2.55437e-21 8.8343 15.2594)
(2.43862e-21 8.78115 15.1399)
(3.06319e-21 8.77355 15.1556)
(-1.82123e-20 8.78048 15.1566)
(-1.54026e-20 8.77424 15.1631)
(-1.50938e-20 8.77684 15.1651)
(-1.47308e-20 8.77331 15.1705)
(-1.46408e-20 8.7743 15.1736)
(-1.48514e-20 8.77188 15.1787)
(-1.48823e-20 8.77256 15.1823)
(-1.41974e-20 8.77043 15.1878)
(-1.43721e-20 8.77124 15.1918)
(-1.43876e-20 8.76975 15.1974)
(-1.50651e-20 8.76917 15.2021)
(-1.50558e-20 8.76749 15.2007)
(-1.39404e-20 8.81759 15.305)
(-1.49431e-20 9.24623 16.039)
(-1.52099e-20 7.20647 12.5748)
(3.66615e-23 7.3378 12.6486)
(-7.43236e-22 9.2584 15.9358)
(-6.07074e-22 8.80611 15.2109)
(-5.79961e-22 8.76636 15.117)
(-7.4496e-22 8.75935 15.1314)
(4.27779e-21 8.76536 15.1323)
(3.73618e-21 8.75984 15.1384)
(3.62679e-21 8.76196 15.1406)
(3.55168e-21 8.75896 15.1456)
(3.46561e-21 8.75963 15.1487)
(3.57396e-21 8.75756 15.1536)
(3.50032e-21 8.75816 15.1572)
(3.35581e-21 8.75605 15.1626)
(3.40684e-21 8.75724 15.1663)
(3.38416e-21 8.75513 15.1722)
(3.50974e-21 8.7559 15.1763)
(3.5764e-21 8.75305 15.1767)
(3.38714e-21 8.79274 15.2572)
(3.63007e-21 9.19428 15.9497)
(3.4518e-21 7.38372 12.8791)
(-9.04754e-24 7.51934 12.9575)
(1.70994e-22 9.20192 15.8434)
(1.45184e-22 8.78031 15.1666)
(1.39322e-22 8.75222 15.0953)
(1.79346e-22 8.74565 15.1081)
(-1.00035e-21 8.75085 15.1091)
(-9.02765e-22 8.74602 15.1146)
(-8.77716e-22 8.74767 15.117)
(-8.54664e-22 8.7452 15.1216)
(-8.26839e-22 8.74555 15.1249)
(-8.48845e-22 8.74386 15.1295)
(-8.21622e-22 8.74431 15.133)
(-7.91256e-22 8.74233 15.1383)
(-8.06862e-22 8.74376 15.1417)
(-8.01778e-22 8.74118 15.1479)
(-8.20883e-22 8.74316 15.1514)
(-8.42161e-22 8.73923 15.1537)
(-8.1734e-22 8.77024 15.2133)
(-8.78146e-22 9.13695 15.8513)
(-7.88271e-22 7.55999 13.1816)
(2.23085e-24 7.69989 13.2645)
(-3.95864e-23 9.13992 15.7414)
(-3.48707e-23 8.75695 15.1265)
(-3.35216e-23 8.73878 15.0745)
(-4.25626e-23 8.73251 15.0858)
(2.33292e-22 8.73697 15.0868)
(2.16233e-22 8.73282 15.0919)
(2.12516e-22 8.73399 15.0945)
(2.04099e-22 8.73205 15.0987)
(1.97716e-22 8.73207 15.1021)
(1.99464e-22 8.73077 15.1064)
(1.93341e-22 8.73101 15.1099)
(1.86475e-22 8.72928 15.115)
(1.91402e-22 8.73077 15.1183)
(1.90959e-22 8.72792 15.1246)
(1.93e-22 8.73089 15.1275)
(1.96837e-22 8.72601 15.1316)
(1.95366e-22 8.75008 15.1733)
(2.11055e-22 9.07421 15.7438)
(1.80921e-22 7.73531 13.4819)
(-5.47303e-25 7.87976 13.5702)
(9.20618e-24 9.0725 15.6298)
(8.37773e-24 8.73614 15.0909)
(8.0141e-24 8.72618 15.055)
(9.95867e-24 8.72014 15.0647)
(-5.43914e-23 8.72388 15.0658)
(-5.11939e-23 8.72045 15.0704)
(-5.0943e-23 8.7211 15.0731)
(-4.82875e-23 8.71966 15.077)
(-4.70419e-23 8.71937 15.0804)
(-4.6563e-23 8.71842 15.0844)
(-4.56279e-23 8.7184 15.088)
(-4.4078e-23 8.71701 15.0927)
(-4.54379e-23 8.71831 15.096)
(-4.55674e-23 8.71547 15.1022)
(-4.5474e-23 8.7191 15.1046)
(-4.57763e-23 8.71341 15.1105)
(-4.62971e-23 8.73226 15.1373)
(-5.03685e-23 9.00613 15.6274)
(-4.15771e-23 7.90968 13.7798)
(1.33246e-25 8.05938 13.8752)
(-2.14353e-24 8.99947 15.5081)
(-2.00555e-24 8.7178 15.0597)
(-1.8979e-24 8.71455 15.0366)
(-2.30907e-24 8.70877 15.0447)
(1.26929e-23 8.71173 15.0461)
(1.19747e-23 8.70916 15.0501)
(1.20053e-23 8.70929 15.053)
(1.13334e-23 8.7083 15.0564)
(1.10888e-23 8.70781 15.0598)
(1.08308e-23 8.70712 15.0635)
(1.07693e-23 8.70686 15.0672)
(1.04581e-23 8.70588 15.0715)
(1.07584e-23 8.70673 15.0749)
(1.0839e-23 8.70428 15.0809)
(1.06886e-23 8.70799 15.0831)
(1.06077e-23 8.70176 15.0903)
(1.08948e-23 8.71697 15.1052)
(1.19414e-23 8.93309 15.5027)
(9.52942e-24 8.08318 14.0752)
(-3.2209e-26 8.23966 14.1804)
(4.98423e-25 8.92059 15.3748)
(4.77296e-25 8.70165 15.0324)
(4.46036e-25 8.70362 15.0189)
(5.34628e-25 8.6985 15.0253)
(-2.96147e-24 8.70034 15.0269)
(-2.77269e-24 8.69873 15.0302)
(-2.77936e-24 8.69839 15.033)
(-2.64345e-24 8.6977 15.0361)
(-2.58946e-24 8.69712 15.0394)
(-2.51442e-24 8.69657 15.0428)
(-2.53308e-24 8.69617 15.0463)
(-2.48305e-24 8.69556 15.0503)
(-2.5311e-24 8.69586 15.054)
(-2.55756e-24 8.69426 15.0594)
(-2.49839e-24 8.69726 15.0619)
(-2.44994e-24 8.69129 15.07)
(-2.54869e-24 8.70425 15.0762)
(-2.81547e-24 8.85558 15.3705)
(-2.17548e-24 8.25515 14.3662)
(7.83598e-27 8.42319 14.4926)
(-1.16888e-25 8.83808 15.2311)
(-1.1407e-25 8.69069 15.012)
(-1.05513e-25 8.69522 15.0051)
(-1.25533e-25 8.69182 15.0089)
(6.96639e-25 8.69212 15.0105)
(6.43667e-25 8.69115 15.0126)
(6.40682e-25 8.69035 15.0148)
(6.19205e-25 8.68951 15.0171)
(6.06851e-25 8.68862 15.0197)
(5.89006e-25 8.68775 15.0224)
(5.98517e-25 8.68689 15.0254)
(5.93252e-25 8.68605 15.0287)
(5.961e-25 8.68543 15.0321)
(6.02923e-25 8.68433 15.0364)
(5.8594e-25 8.68532 15.0397)
(5.69155e-25 8.68103 15.0469)
(5.9889e-25 8.69107 15.0483)
(6.66959e-25 8.77265 15.2324)
(4.98986e-25 8.42326 14.6449)
(-1.61625e-27 8.61058 14.8239)
(2.30612e-26 8.7527 15.0801)
(2.28928e-26 8.69281 15.0032)
(2.11035e-26 8.695 15.0014)
(2.51806e-26 8.69442 15.0021)
(-1.36813e-25 8.69407 15.0026)
(-1.25764e-25 8.69366 15.0031)
(-1.235e-25 8.69305 15.0038)
(-1.21379e-25 8.69232 15.0046)
(-1.19654e-25 8.69143 15.0056)
(-1.16334e-25 8.69038 15.0067)
(-1.18442e-25 8.68914 15.008)
(-1.18394e-25 8.68772 15.0095)
(-1.17515e-25 8.68604 15.0113)
(-1.1862e-25 8.68417 15.0133)
(-1.15667e-25 8.68208 15.0156)
(-1.11556e-25 8.67892 15.0189)
(-1.18091e-25 8.67938 15.02)
(-1.32948e-25 8.69418 15.0844)
(-9.63384e-26 8.5934 14.8933)
(1.8515e-26 -2.57885 16.9833)
(-1.53637e-25 -8.03481 13.6176)
(-8.60276e-25 -5.17359 14.4662)
(-2.55421e-24 -4.99187 14.0722)
(-5.68154e-24 -4.07725 14.0282)
(-1.0903e-23 -3.51866 13.8507)
(-1.58159e-23 -2.94794 13.689)
(-7.02482e-24 -2.48131 13.4962)
(4.67766e-23 -2.07781 13.2906)
(1.88003e-22 -1.75353 13.0774)
(4.43149e-22 -1.51001 12.871)
(7.87889e-22 -1.3544 12.6794)
(1.13303e-21 -1.28621 12.4954)
(1.35292e-21 -1.30677 12.2827)
(1.3472e-21 -1.41988 11.9835)
(1.10165e-21 -1.58408 11.5693)
(7.09241e-22 -1.81876 10.9959)
(3.17511e-22 -2.4152 10.0013)
(4.59246e-23 -2.5853 8.57052)
(-3.46273e-23 0.228875 6.48293)
(1.2226e-25 -11.1823 28.3969)
(-5.5603e-25 -16.9124 24.9638)
(-4.25898e-24 -11.9432 25.3515)
(-1.06242e-23 -12.5257 23.681)
(-1.6808e-23 -10.7729 22.9614)
(-1.869e-23 -10.0626 21.9051)
(-1.27448e-24 -9.02781 21.023)
(6.68181e-23 -8.20444 20.111)
(2.04599e-22 -7.38322 19.2465)
(3.50693e-22 -6.63673 18.392)
(3.12555e-22 -5.91633 17.5248)
(-1.84447e-22 -5.19891 16.5659)
(-1.33426e-21 -4.44295 15.4115)
(-3.04979e-21 -3.64393 13.9576)
(-4.78222e-21 -2.86188 12.1303)
(-5.52017e-21 -2.18221 9.94411)
(-4.52943e-21 -1.61617 7.53893)
(-2.32728e-21 -1.03918 4.84226)
(-2.17609e-22 -0.155563 1.61523)
(2.58838e-22 0.499869 -0.673622)
(1.40075e-25 -14.3403 30.8363)
(-1.94726e-24 -18.1842 27.9926)
(-6.67329e-24 -13.5757 27.8789)
(-8.5091e-24 -14.4324 25.5853)
(-3.07282e-24 -12.3884 24.6702)
(8.37933e-24 -11.9048 23.1351)
(4.11089e-23 -10.8097 21.9714)
(1.4248e-22 -10.0825 20.7263)
(3.25708e-22 -9.29337 19.5973)
(4.26398e-22 -8.60805 18.4796)
(-1.85175e-23 -7.90226 17.3281)
(-1.72287e-21 -7.10405 15.9449)
(-5.2196e-21 -6.00058 13.985)
(-9.63904e-21 -4.2919 10.8909)
(-1.15278e-20 -1.81673 6.32489)
(-8.08049e-21 0.776125 1.31111)
(-3.41924e-21 2.34181 -2.05341)
(-1.63839e-21 3.17996 -3.92195)
(-5.90563e-22 4.11945 -5.40663)
(-1.13269e-20 2.8038 -4.97748)
(1.09586e-25 -15.6207 31.5984)
(-6.42368e-25 -18.9009 28.8973)
(-4.08161e-24 -14.6406 28.6025)