/*--------------------------------*- C++ -*----------------------------------*\
| =========                 |                                                 |
| \\      /  F ield         | OpenFOAM: The Open Source CFD Toolbox           |
|  \\    /   O peration     | Version:  4.1                                   |
|   \\  /    A nd           | Web:      www.OpenFOAM.org                      |
|    \\/     M anipulation  |                                                 |
\*---------------------------------------------------------------------------*/
FoamFile
{
    version     2.0;
    format      ascii;
    class       volScalarField;
    location    "1";
    object      p;
}
// * * * * * * * * * * * * * * * * * * * * * * * * * * * * * * * * * * * * * //

dimensions      [0 2 -2 0 0 0 0];

internalField   nonuniform List<scalar> 
1680
(
-5.73126
-3.75409
-1.83566
-2.42529
-3.25348
-1.61337
-2.19836
-3.07534
-0.81861
-1.71967
-2.31656
-1.09574
-1.78671
1.17937
0.179758
-0.587605
1.86066
-0.0704635
7.17102
-1.18463
6.6758
6.51195
11.3828
11.6313
11.0652
10.1427
9.70434
8.84175
7.86862
6.34941
5.18168
-13.6903
7.08992
8.48291
8.10613
6.92387
7.35319
6.23841
4.70424
7.98907
-11.2885
-6.12175
-4.9029
-4.19131
-2.94662
-2.2023
-1.39296
-0.0121435
0.413988
0.706014
1.74452
2.0765
2.21099
2.49887
2.87215
3.00873
3.03204
3.10707
3.20613
3.18299
2.26371
-1.2243
2.08242
1.18125
1.85407
1.71611
1.9773
2.10267
2.34953
2.63238
2.9875
3.37831
3.76366
4.45091
2.80997
-8.14607
-16.9832
-1.73349
5.30186
2.58205
-1.05665
2.03958
1.05854
1.78319
1.62731
1.89742
2.01627
2.26062
2.53893
2.89586
3.30016
3.73942
4.46908
2.88691
-8.29238
-16.9908
-1.81683
5.43417
2.8422
-0.977739
1.99506
0.949432
1.70925
1.53614
1.81341
1.92519
2.16611
2.4387
2.79585
3.22183
3.724
4.43524
3.00184
-8.91005
-17.7295
-1.91503
6.03434
3.05532
-1.00264
1.94459
0.847792
1.63221
1.443
1.72539
1.82961
2.06605
2.33162
2.68662
3.13638
3.71375
4.42973
3.26486
-10.0085
-18.4058
-1.71402
6.5701
3.24754
-0.987001
1.89016
0.752632
1.55204
1.34818
1.63349
1.72969
1.96049
2.2176
2.56726
3.03733
3.69786
4.41124
3.6241
-10.9413
-18.8739
-0.923096
8.35017
3.37353
-0.948138
1.83161
0.664069
1.46871
1.25194
1.53778
1.62559
1.84952
2.09659
2.43721
2.91663
3.64823
4.35544
4.10651
-10.5762
-19.3
-1.1501
4.31028
3.43897
-0.908317
1.76785
0.581231
1.38214
1.15451
1.43839
1.51751
1.73326
1.96866
2.29611
2.76719
3.52902
4.26211
4.38428
-8.52428
-19.6703
-8.29278
-8.01212
3.44357
-0.865073
1.69749
0.503256
1.29219
1.05604
1.33543
1.40564
1.61187
1.83399
2.14469
2.59002
3.30596
4.09847
4.59384
-5.08105
-19.0896
-13.2118
-7.5626
3.38614
-0.817156
1.61865
0.429513
1.19864
0.956654
1.22895
1.29014
1.48549
1.69281
1.98356
2.3951
3.02302
3.69615
4.20655
-2.87785
-19.9406
-15.7788
-5.74373
3.26904
-0.766249
1.52948
0.359643
1.1015
0.856697
1.11933
1.17151
1.35467
1.54584
1.814
2.18712
2.72643
3.23773
3.48845
-2.12057
-20.9068
-17.776
-8.92284
3.09327
-0.713905
1.42731
0.292216
0.999616
0.75522
1.00554
1.04874
1.21833
1.39204
1.63538
1.96695
2.42121
2.77893
2.6562
-1.92815
-19.0581
-18.4217
-7.61094
2.86871
-0.659294
1.31316
0.229915
0.896241
0.656015
0.891713
0.926396
1.08151
1.23714
1.45455
1.74376
2.11877
2.34939
1.91687
-1.79306
-15.6625
-18.0055
-7.82275
2.57438
-0.606991
1.17644
0.162638
0.780576
0.547642
0.765503
0.791172
0.929685
1.06521
1.25403
1.49877
1.79867
1.92893
1.29933
-1.7482
-12.0415
-15.8618
-7.22866
2.28312
-0.547782
1.04248
0.117439
0.68284
0.462702
0.662324
0.681609
0.805185
0.923344
1.08706
1.29338
1.5319
1.59556
0.890628
-1.63774
-9.01724
-13.4853
-6.71041
1.78935
-0.504006
0.834502
0.0224845
0.522549
0.315031
0.488636
0.496129
0.596526
0.687838
0.814621
0.969449
1.13611
1.1343
0.425056
-1.63489
-6.68897
-11.417
-6.11368
1.65515
-0.427626
0.760866
0.0572061
0.505937
0.323849
0.4831
0.494214
0.589029
0.676158
0.794873
0.936502
1.08292
1.08128
0.462803
-1.2056
-4.6863
-9.44695
-5.95247
0.362428
-0.41818
0.261573
-0.213788
0.118735
-0.0529866
0.0542324
0.0328004
0.0751682
0.100359
0.138055
0.176512
0.199455
0.0995086
-0.449105
-1.5898
-3.37281
-7.4459
-5.01992
1.86082
-0.265395
0.824221
0.247187
0.63183
0.506752
0.650389
0.686446
0.789243
0.89448
1.03101
1.19257
1.36127
1.43017
1.06959
-0.061559
-2.00745
-5.44796
-3.47559
-4.15478
-0.390957
-1.37253
-0.981994
-1.04449
-1.16651
-1.2178
-1.33547
-1.4475
-1.60573
-1.80465
-2.05794
-2.35969
-2.68262
-2.92067
-2.45206
-1.47817
-6.51274
-6.9549
10.0881
0.0634113
3.82591
1.93314
2.87275
2.78611
3.15809
3.41646
3.79443
4.24946
4.81813
5.49806
6.21589
6.70225
6.22706
3.35181
-0.605035
-7.6218
-10.9262
39.6208
37.3213
37.9558
36.208
36.4112
35.3591
35.3292
34.9475
34.9038
34.829
34.969
34.7651
35.0071
34.8358
35.9631
35.142
37.0455
35.9275
37.8145
37.6055
36.8639
35.9124
36.6447
35.2092
36.1582
35.0294
35.3337
34.7603
34.6215
34.3267
34.108
33.7828
33.8346
33.0877
33.796
32.4073
33.8105
32.0774
33.361
32.2884
38.6548
37.7352
38.7104
37.2217
38.2814
37.2259
37.6988
37.2139
37.2292
37.035
36.9312
36.69
36.8033
36.1481
36.8693
35.4839
36.9173
35.0869
36.2995
35.3809
39.2504
38.2881
39.3871
37.7881
38.9797
37.8403
38.3703
37.8609
37.8886
37.6939
37.5904
37.3606
37.4688
36.8342
37.5449
36.2009
37.6129
35.8452
37.0741
36.159
40.5717
39.5829
40.7614
39.0904
40.3611
39.1819
39.7562
39.241
39.2896
39.1038
39.0104
38.794
38.9009
38.2906
38.9722
37.68
39.0216
37.3316
38.477
37.5988
41.5084
40.4958
41.7653
40.0414
41.3489
40.1548
40.7414
40.2277
40.2806
40.1019
40.0121
39.8074
39.9122
39.3253
39.9934
38.7363
40.0587
38.4053
39.5336
38.7016
42.6792
41.6173
42.9866
41.1959
42.5246
41.3269
41.897
41.3944
41.432
41.2568
41.1593
40.9568
41.047
40.4788
41.1066
39.8995
41.1504
39.5684
40.6264
39.8392
43.803
42.6865
44.1806
42.3253
43.673
42.4922
43.0388
42.5638
42.5863
42.4232
42.323
42.1295
42.2083
41.6696
42.2544
41.1134
42.2863
40.79
41.7752
41.0437
44.8677
43.6683
45.3046
43.3631
44.7488
43.5805
44.1061
43.6641
43.6719
43.5243
43.4236
43.2426
43.3091
42.8108
43.3405
42.292
43.3593
41.9862
42.8718
42.222
45.8908
44.573
46.346
44.2881
45.7708
44.5792
45.1175
44.7009
44.7076
44.5787
44.4839
44.3224
44.377
43.9345
44.395
43.4738
44.401
43.2023
43.9513
43.4227
46.7846
45.3603
47.1704
44.9967
46.6362
45.3557
45.962
45.5408
45.5687
45.4565
45.3738
45.24
45.2806
44.9133
45.2852
44.5333
45.2766
44.3164
44.8788
44.523
47.6988
46.3935
47.9841
45.8694
47.5484
46.1739
46.8457
46.3707
46.4222
46.3028
46.2197
46.1094
46.1137
45.8353
46.0774
45.5307
46.0326
45.3567
45.6777
45.5133
48.9796
48.0653
49.2218
47.4784
48.8135
47.5579
48.1363
47.6265
47.6592
47.5038
47.3929
47.2887
47.2211
47.0399
47.0958
46.7848
46.9896
46.6029
46.6604
46.6364
50.2878
49.972
50.5967
49.4322
50.2268
49.3456
49.6868
49.2516
49.223
49.0452
48.8967
48.7787
48.6296
48.5185
48.3689
48.2841
48.1718
48.0469
47.8645
47.9041
50.3258
50.4782
50.7769
50.2908
50.6199
50.2574
50.3742
50.158
50.0896
49.963
49.8247
49.7078
49.5389
49.4529
49.189
49.245
48.8828
48.9299
48.5052
48.5954
48.937
49.2699
49.5066
49.5307
49.6867
49.7351
49.8228
49.8518
49.855
49.8547
49.8134
49.7622
49.6729
49.6001
49.398
49.4342
49.0853
49.0642
48.6329
48.7434
47.6523
47.9034
48.1315
48.2676
48.4519
48.6084
48.7737
48.9394
49.0765
49.2225
49.3496
49.4614
49.5667
49.6339
49.6939
49.7695
49.7484
49.673
49.6762
49.7794
47.5747
47.6276
47.7727
47.7611
47.9217
47.9712
48.1025
48.2131
48.3439
48.4788
48.6278
48.777
48.9531
49.0938
49.3084
49.4551
49.6817
49.7702
50.0245
50.3392
47.9991
47.9372
48.0194
47.953
48.0091
48.0012
48.0376
48.0612
48.1032
48.1466
48.2016
48.2612
48.3394
48.4053
48.5144
48.5983
48.7164
48.8121
48.9157
49.3107
47.8897
47.7982
47.8452
47.8626
47.8803
47.9114
47.9396
47.9766
48.0176
48.0652
48.1186
48.179
48.2457
48.3218
48.4015
48.4979
48.5921
48.7149
48.8001
49.0366
3.20154
3.37616
3.18207
3.10714
3.2728
3.23327
2.9592
2.95792
3.05791
2.97016
2.55286
2.69503
2.55473
1.55822
1.46286
1.53781
1.01184
0.391388
-0.606194
-2.78324
9.99307
6.32788
7.21325
7.51839
6.60273
7.11682
6.84461
4.91607
-12.6241
1.40867
1.78256
2.55396
2.75525
2.87462
2.58337
2.74418
2.38537
1.14523
-4.71247
-5.03148
-12.4109
-4.70808
-10.3769
-8.41673
-9.8614
-9.21735
-8.20785
-9.83755
-9.23571
-9.60094
-9.14137
-8.26794
-9.23138
-8.63775
-8.24556
-8.66225
-8.48993
-8.87996
-8.98996
-9.04709
2.63349
2.57306
2.56893
2.49671
2.53539
2.56939
2.68063
2.82433
3.01399
3.22908
3.47791
3.7515
3.96094
3.7822
2.27529
-1.88112
-12.1647
-18.5669
-11.0387
2.63688
2.56376
2.56379
2.48947
2.5317
2.56543
2.67685
2.81848
3.00589
3.22252
3.47279
3.74287
3.94587
3.75838
2.22859
-1.97252
-12.5457
-19.3178
-11.6399
2.64224
2.53947
2.54906
2.47507
2.52357
2.55699
2.67082
2.81501
3.00496
3.2204
3.46621
3.73222
3.92943
3.73324
2.16561
-2.13481
-13.0924
-20.1956
-12.0035
2.62924
2.50855
2.53493
2.45914
2.51518
2.54805
2.66478
2.80927
2.99947
3.21496
3.45872
3.72313
3.91984
3.72563
2.111
-2.32693
-13.8907
-21.1887
-12.2879
2.60363
2.47431
2.52146
2.43988
2.50462
2.53599
2.65641
2.80251
2.99538
3.211
3.45208
3.71622
3.91922
3.74277
2.09151
-2.52432
-14.9774
-22.3245
-12.6184
2.57326
2.43651
2.5071
2.41601
2.49134
2.52031
2.64487
2.79224
2.98816
3.20462
3.44561
3.71226
3.92934
3.78948
2.12794
-2.70096
-16.3756
-23.6374
-12.8887
2.54005
2.39424
2.4907
2.38667
2.47475
2.50047
2.62995
2.77909
2.97957
3.1974
3.44079
3.71152
3.95012
3.86686
2.23933
-2.8222
-18.0865
-25.0179
-13.2243
2.50514
2.3463
2.47168
2.35134
2.45463
2.47627
2.61141
2.76232
2.96796
3.18812
3.4375
3.71354
3.98004
3.97421
2.44936
-2.85641
-20.2054
-26.4571
-13.3516
2.46958
2.29134
2.45003
2.30967
2.43092
2.44754
2.58903
2.74155
2.95311
3.17791
3.43608
3.71796
4.01689
4.11075
2.78757
-2.7925
-22.9202
-27.7906
-13.4515
2.43414
2.22793
2.42602
2.26123
2.40349
2.41405
2.5626
2.71641
2.93449
3.1668
3.43487
3.72396
4.05753
4.27466
3.25583
-2.72513
-25.5538
-27.7345
-12.7474
2.39937
2.15439
2.4
2.20556
2.37228
2.37562
2.53195
2.68656
2.91155
3.15408
3.4313
3.73136
4.09963
4.46359
3.79021
-2.81149
-26.763
-26.5648
-13.1634
2.36605
2.06857
2.37236
2.14216
2.33725
2.33212
2.49692
2.65177
2.88343
3.13775
3.42282
3.74032
4.13882
4.65155
4.16844
-3.75145
-26.1976
-24.7954
-9.6997
2.33428
1.96761
2.34352
2.07053
2.29836
2.28344
2.45741
2.6118
2.84939
3.11602
3.41021
3.74699
4.1551
4.75187
4.12002
-6.15852
-24.8664
-20.8438
-10.675
2.30374
1.84758
2.31386
1.99018
2.25565
2.22953
2.41335
2.56655
2.80901
3.08721
3.39441
3.74827
4.15517
4.74042
3.51675
-9.78606
-25.2027
-13.726
-10.8369
2.27574
1.70212
2.28362
1.90066
2.20912
2.17039
2.36469
2.51597
2.762
3.04844
3.36888
3.73301
4.13234
4.69306
2.99917
-12.0809
-24.8565
-5.57533
3.93523
2.24999
1.52184
2.25332
1.80163
2.15885
2.10612
2.31143
2.46008
2.70822
2.9978
3.32738
3.70373
4.09279
4.53766
2.46305
-12.5239
-24.1993
-4.8576
6.41741
2.23022
1.29145
2.2226
1.69294
2.10489
2.03685
2.25357
2.39888
2.64819
2.93886
3.27466
3.65083
4.0182
4.39116
2.19813
-11.598
-23.0387
-3.69224
5.72083
2.20507
0.987003
2.19301
1.57498
2.04734
1.96284
2.19117
2.33246
2.58219
2.87257
3.2142
3.58988
3.94086
4.3088
2.15686
-10.1806
-21.5993
-2.91643
5.83257
2.20444
0.557597
2.15993
1.44843
1.98626
1.88442
2.12427
2.26089
2.51036
2.79921
3.14603
3.52378
3.87118
4.31114
2.30097
-9.09608
-19.8274
-2.4947
5.73747
2.11946
-0.0739346
2.13171
1.31669
1.92182
1.80201
2.05295
2.18425
2.43278
2.71911
3.07057
3.45366
3.81146
4.3812
2.58884
-8.45417
-18.0054
-1.98794
5.53344
649.127
566.339
516.921
460.64
411.684
364.605
321.001
279.945
241.485
205.3
171.238
139.087
108.641
79.742
52.2974
25.5439
-0.70188
-23.1761
-47.6758
-81.6419
-48.9076
-70.9138
-62.5838
-73.2648
-75.5849
-81.5792
-85.729
-90.0407
-93.5122
-96.412
-98.5358
-99.8867
-100.41
-100.088
-98.862
-96.6761
-93.6827
-90.1138
-85.8252
-80.6806
-44.9019
-49.0435
-38.9957
-43.689
-39.1376
-40.0797
-38.8487
-38.7106
-38.3162
-38.0085
-37.6258
-37.1507
-36.5244
-35.7509
-34.7474
-33.5476
-32.1504
-30.4468
-28.8623
-23.8212
5.42309
4.4117
9.89716
4.83189
8.3353
6.58694
7.05668
6.95589
7.04302
7.31701
7.78264
8.45714
9.38837
10.5365
11.9592
13.6284
15.4384
17.6071
19.229
21.8671
11.2093
11.2645
14.4226
11.3494
14.2972
13.4945
14.3203
14.8715
15.4025
16.104
16.8548
17.6761
18.559
19.4946
20.4383
21.4125
22.3148
23.1655
23.7094
24.5587
20.5996
20.0668
23.022
20.1233
23.5915
22.3223
23.3251
23.6487
23.9565
24.3664
24.7198
25.089
25.4226
25.7857
26.0759
26.4021
26.6801
26.8752
26.988
27.3414
27.4099
24.6748
28.1001
24.5068
28.1759
26.3456
27.2523
27.258
27.3568
27.5345
27.653
27.8109
27.9222
28.0944
28.1857
28.3541
28.4684
28.551
28.5499
28.8135
28.7121
24.5131
28.8023
25.0903
28.0335
26.6686
27.3316
27.3564
27.4506
27.6025
27.6957
27.826
27.9017
28.022
28.0756
28.1731
28.2431
28.2564
28.2147
28.4337
29.1169
25.418
30.0481
26.7357
28.7997
28.0616
28.4561
28.5231
28.5931
28.7117
28.7739
28.8634
28.9195
28.971
29.046
29.0425
29.178
29.0962
29.1199
29.3374
30.7807
28.1222
32.1136
29.2242
30.706
30.118
30.3231
30.2953
30.2704
30.2925
30.2691
30.2644
30.274
30.199
30.3032
30.1153
30.3502
30.0779
30.1739
30.2926
31.9159
29.8652
33.0591
30.4572
31.7029
30.9945
31.1502
30.9919
30.8977
30.8348
30.7397
30.65
30.6288
30.4219
30.5778
30.1771
30.5391
30.0309
30.2256
30.1843
31.8085
30.0603
32.6509
30.2772
31.4912
30.6424
30.8589
30.6068
30.5082
30.406
30.2869
30.1539
30.1407
29.8368
30.0787
29.4924
30.0177
29.2864
29.6269
29.4351
31.0915
29.5474
31.7206
29.5442
30.7857
29.8326
30.144
29.8264
29.7563
29.6373
29.5193
29.366
29.3777
29.0017
29.3389
28.5938
29.2914
28.3545
28.8578
28.5277
30.1293
28.7465
30.6126
28.5962
29.8571
28.8305
29.2219
28.8516
28.8117
28.6784
28.5653
28.3962
28.432
27.9953
28.4189
27.5355
28.3911
27.2694
27.9255
27.468
29.0432
27.7982
29.429
27.5505
28.8104
27.7449
28.1945
27.7875
27.7756
27.6327
27.5281
27.349
27.4096
26.9245
27.429
26.4264
27.4317
26.1422
26.9482
26.3736
28.1313
26.9796
28.4142
26.6406
27.8753
26.7914
27.2625
26.8293
26.8269
26.6697
26.5644
26.3678
26.4412
25.9091
26.4662
25.3688
26.4685
25.0575
25.9563
25.2782
26.8112
25.7357
27.007
25.3406
26.5035
25.4327
25.8882
25.4405
25.4329
25.2632
25.1551
24.9454
25.0346
24.4645
25.0893
23.8975
25.1352
23.5851
24.6335
23.8744
26.0642
25.0858
26.1709
24.6495
25.6949
24.6975
25.1342
24.707
24.7174
24.5613
24.4773
24.2755
24.4005
23.8198
24.5051
23.2601
24.592
22.9513
24.0557
23.2785
24.3231
23.304
24.0796
22.6255
23.5716
22.5104
22.828
22.3418
22.2605
22.0548
21.9188
21.6911
21.8192
21.1908
21.9375
20.7088
22.0978
20.5626
21.8086
20.9411
25.2531
23.0332
23.8335
22.3814
22.8602
22.1236
22.3958
22.3095
22.5406
22.7293
23.104
23.1077
23.5376
23.591
24.8885
24.3342
26.3908
25.5841
27.6013
27.8174
)
;

boundaryField
{
    outletWallLeft
    {
        type            fixedValue;
        value           uniform 0;
    }
    fineWallsLeft
    {
        type            zeroGradient;
    }
    fineFrontAndBackLeft
    {
        type            zeroGradient;
    }
    fineplugLeft
    {
        type            cyclicAMI;
        value           nonuniform List<scalar> 
20
(
33.0318
33.7426
32.6412
31.2927
31.342
30.3158
30.2042
29.7264
29.4968
29.1331
29.0115
29.1367
29.4236
29.5652
30.3917
29.4984
31.1071
29.9897
31.1925
31.6822
)
;
    }
    symmetryWallLeft
    {
        type            cyclicAMI;
        value           nonuniform List<scalar> 
20
(
3.19227
5.41765
-1.86072
-17.4943
-8.30012
2.6994
4.41606
3.78756
3.41599
3.02904
2.67575
2.39115
2.14346
2.01512
1.75906
1.88795
1.24897
2.10706
-0.64912
2.19159
)
;
    }
    inletOutletLeft
    {
        type            cyclicAMI;
        value           nonuniform List<scalar> 
20
(
31.6822
31.1925
29.9897
31.1071
29.4984
30.3917
29.5652
29.4236
29.1367
29.0115
29.1331
29.4968
29.7264
30.2042
30.3158
31.342
31.2927
32.6412
33.7426
33.0318
)
;
    }
    inletLeft
    {
        type            zeroGradient;
    }
    inletWallsLeft
    {
        type            zeroGradient;
    }
    inletFacesLeft
    {
        type            zeroGradient;
    }
    fineWallsRight
    {
        type            zeroGradient;
    }
    outletWallRight
    {
        type            zeroGradient;
    }
    fineplugRight
    {
        type            cyclicAMI;
        value           nonuniform List<scalar> 
20
(
24.2525
23.3466
21.9099
22.6163
20.7879
21.3341
20.2417
19.8133
18.9572
18.7649
18.5399
18.5433
18.3986
18.4916
18.2156
18.837
18.3822
19.2958
19.8103
19.1962
)
;
    }
    fineFrontAndBackRight
    {
        type            zeroGradient;
    }
    symmetryWallRight
    {
        type            cyclicAMI;
        value           nonuniform List<scalar> 
20
(
3.19227
5.41765
-1.86072
-17.4943
-8.30012
2.6994
4.41606
3.78756
3.41599
3.02904
2.67575
2.39115
2.14346
2.01512
1.75906
1.88795
1.24897
2.10706
-0.64912
2.19159
)
;
    }
    inletOutletRight
    {
        type            cyclicAMI;
        value           nonuniform List<scalar> 
20
(
24.2525
23.3466
21.9099
22.6163
20.7879
21.3341
20.2417
19.8133
18.9572
18.7649
18.5399
18.5433
18.3986
18.4916
18.2156
18.837
18.3822
19.2958
19.8103
19.1962
)
;
    }
    inletRight
    {
        type            zeroGradient;
    }
    inletWallsRight
    {
        type            zeroGradient;
    }
    inletFacesRight
    {
        type            zeroGradient;
    }
}


// ************************************************************************* //
