/*--------------------------------*- C++ -*----------------------------------*\
| =========                 |                                                 |
| \\      /  F ield         | OpenFOAM: The Open Source CFD Toolbox           |
|  \\    /   O peration     | Version:  4.1                                   |
|   \\  /    A nd           | Web:      www.OpenFOAM.org                      |
|    \\/     M anipulation  |                                                 |
\*---------------------------------------------------------------------------*/
FoamFile
{
    version     2.0;
    format      ascii;
    class       surfaceScalarField;
    location    "1";
    object      phi;
}
// * * * * * * * * * * * * * * * * * * * * * * * * * * * * * * * * * * * * * //

dimensions      [0 3 -1 0 0 0 0];

internalField   nonuniform List<scalar> 
3120
(
4388.42
103.837
4388.42
4326.49
61.9306
4326.49
4530.44
-203.95
4764.22
-233.778
4764.22
5090.04
-325.819
5338.82
-248.787
5338.82
5628.31
-289.481
5628.31
5968.08
-339.776
6146.83
-178.747
6146.83
6363.68
-216.852
6363.68
6830.17
-466.491
5981.72
848.455
5981.72
6769.98
6562.68
1166.7
7509.55
8430.55
9383.74
10341.8
11314.8
12293.9
13275.3
14255.7
15231.4
7026.11
9183.8
8002.27
8984.21
9948.88
10943.5
11896.5
12918.2
13870.4
15131.2
5788.85
9342.37
5788.85
5788.85
3070.01
2718.84
3070.01
3070.01
3070.01
2215.43
854.589
2215.43
2215.43
1031.54
1183.89
1031.54
1031.55
1031.55
164.966
866.593
164.983
165.001
165.013
-351.332
516.362
-595.752
-21.9314
-249.729
4465.2
-327.564
1981.66
-365.424
2410.03
-430.675
1933.15
-497.337
1965.25
-571.362
1883.38
-651.816
1886.5
-742.81
1884.25
-855.033
1875.84
-1008.65
1808.61
-1167.97
1619.43
-1055.53
1065.5
-199.478
-283.314
1233.66
-1715.48
1792.05
-1322.64
532.083
-710.454
-979.876
-339.417
-1281.6
-664.504
36.9221
-287.926
4088.62
-362.257
2055.99
-368.945
2416.72
-430.69
1994.89
-492.337
2026.9
-563.54
1954.58
-641.239
1964.2
-729.227
1972.24
-836.443
1983.05
-982.026
1954.19
-1134.82
1772.23
-1063.05
993.721
-473.337
-873.021
499.602
-2688.42
1164.33
-1987.36
-734.155
1188.03
-1711.74
638.172
-2126.74
-730.046
183.612
-312.941
3671.52
-379.084
2122.13
-372.594
2410.23
-430.682
2052.98
-487.688
2083.9
-556.073
2022.96
-631.009
2039.14
-716.161
2057.39
-818.816
2085.71
-956.789
2092.16
-1120.97
1936.4
-1162.7
1035.46
-844.372
-1191.35
-168.394
-3364.4
406.007
-2561.76
-743.712
2337.75
-1577.4
1471.86
-2520.25
-725.838
377.302
-341.58
3287.26
-387.58
2168.13
-376.362
2399.01
-430.466
2107.09
-483.295
2136.73
-548.893
2088.56
-621.071
2111.31
-703.445
2139.77
-801.825
2184.09
-933.337
2223.67
-1114.71
2117.78
-1274.49
1195.24
-1216.44
-1249.41
-902.496
-3678.34
-362.531
-3101.72
-766.334
2741.55
-1340.81
2046.34
-3006.47
-708.014
611.316
-367.087
2946.33
-392.867
2193.92
-379.724
2385.87
-429.998
2157.36
-479.049
2185.78
-541.919
2151.43
-611.345
2180.74
-690.938
2219.36
-785.214
2278.36
-910.067
2348.53
-1107.09
2314.8
-1410.71
1498.86
-1714.27
-945.848
-1904.38
-3488.23
-1636.4
-3369.71
-1361.66
2466.81
-2329.24
3013.91
-2616.87
-680.322
878.892
-380.002
2646.01
-396.579
2210.49
-382.095
2371.38
-429.235
2204.5
-474.852
2231.4
-535.078
2211.66
-601.762
2247.42
-678.572
2296.17
-768.823
2368.61
-885.223
2464.93
-1088.2
2517.78
-1555.52
1966.19
-2346.49
-154.877
-3236.27
-2598.45
-3789.79
-2816.18
-4388.37
3065.4
-7186.42
5811.96
-460.914
-642.703
1165.43
-379.395
2382.7
-398.925
2230.02
-383.239
2355.69
-428.118
2249.38
-470.625
2273.91
-528.306
2269.34
-592.264
2311.38
-666.283
2370.19
-752.73
2455.06
-859.03
2571.23
-1043.59
2702.34
-1602.79
2525.39
-2925.22
1167.55
-4766.03
-757.641
-6487.87
-1094.35
-7420.46
3997.99
-8397.18
6788.68
325.707
-600.315
1459.44
-369.948
2152.34
-399.559
2259.63
-383.211
2339.35
-426.602
2292.77
-466.309
2313.61
-521.555
2324.59
-582.802
2372.63
-653.946
2441.33
-736.975
2538.09
-835.723
2669.98
-982.928
2849.55
-1438.5
2980.95
-2934.93
2663.99
-5706.32
2013.75
-8759.75
1959.08
-9616.35
4854.59
-6322.78
3495.11
-4830.37
-557.974
1754.87
-356.249
1950.61
-398.357
2301.74
-382.178
2323.17
-424.663
2335.25
-461.866
2350.82
-514.789
2377.51
-573.352
2431.19
-641.496
2509.48
-721.025
2617.62
-815.235
2764.19
-937.386
2971.7
-1215.59
3259.16
-2156.1
3604.51
-4329.53
4187.17
-7116.36
4745.91
-7413.68
5151.91
-3504.14
-414.429
-7486.06
-517.992
2048.97
-340.711
1773.33
-395.623
2356.65
-380.321
2307.87
-422.304
2377.24
-457.273
2385.78
-507.982
2428.22
-563.912
2487.12
-628.977
2574.54
-704.622
2693.27
-794.332
2853.9
-903.485
3080.85
-1074.89
3430.56
-1526.41
4056.02
-2676.19
5336.96
-4333.37
6403.09
-3872.19
4690.73
-1007.54
-3279.08
-8960.1
-481.464
2341.19
-324.364
1616.23
-391.847
2424.14
-377.808
2293.83
-419.535
2418.97
-452.509
2418.76
-501.106
2476.81
-554.466
2540.48
-616.438
2636.51
-687.9
2764.73
-771.974
2937.97
-871.761
3180.64
-995.439
3554.24
-1186.19
4246.78
-1564.75
5715.52
-2195.78
7034.11
-1582.27
4077.23
-139.994
-4721.36
-9316.94
-449.187
2632.17
-307.95
1475
-387.56
2503.75
-374.847
2281.11
-416.411
2460.53
-447.596
2449.94
-494.174
2523.39
-545.04
2591.35
-603.952
2695.42
-671.162
2831.94
-748.928
3015.74
-839.08
3270.79
-938.856
3654.01
-1019.47
4327.39
-995.284
5691.33
-949.284
6988.11
-269.978
3397.93
394.577
-5385.91
-9101.11
-422.366
2925.78
-292.437
1345.07
-383.039
2594.35
-371.528
2269.6
-412.877
2501.88
-442.444
2479.51
-487.076
2568.02
-535.517
2639.79
-591.411
2751.32
-654.446
2894.97
-725.901
3087.19
-805.941
3350.83
-887.331
3735.4
-920.436
4360.5
-739.165
5510.06
-340.083
6589.03
322.379
2735.47
574.404
-5637.94
-8866.49
-400.439
3222.02
-278.715
1223.34
-379.045
2694.68
-368.33
2258.89
-409.22
2542.77
-437.333
2507.62
-480.112
2610.8
-526.253
2685.93
-579.255
2804.32
-638.353
2954.07
-703.931
3152.77
-774.243
3421.14
-838.473
3799.63
-844.136
4366.16
-620.187
5286.11
-97.1433
6065.99
563.299
2075.02
614.71
-5689.35
-8541.26
-389.864
3537.62
-269.637
1103.12
-374.803
2799.85
-364.647
2248.73
-404.757
2582.88
-431.499
2534.37
-472.432
2651.74
-516.264
2729.76
-566.337
2854.39
-621.524
3009.26
-681.498
3212.74
-742.881
3482.53
-792.137
3848.89
-779.437
4353.46
-556.089
5062.76
-25.4611
5535.36
620.041
1429.52
648.505
-5717.81
-8141.54
-372.446
3846.63
-261.058
991.728
-372.817
2911.6
-362.586
2238.5
-401.327
2621.62
-426.976
2560.02
-466.26
2691.02
-508.168
2771.67
-555.786
2902.01
-607.725
3061.2
-663.078
3268.1
-717.228
3536.68
-754.857
3886.52
-729.739
4328.34
-517.437
4850.46
-6.24068
5024.16
616.025
807.257
654.497
-5756.29
-7812.86
-412.949
4248.58
-275.764
854.543
-367.494
3003.33
-356.285
2227.29
-392.929
2658.26
-417.116
2584.2
-454.395
2728.3
-493.686
2810.96
-537.929
2946.25
-585.543
3108.81
-635.382
3317.94
-682.659
3583.95
-712.886
3916.75
-686.942
4302.4
-504.825
4668.35
-44.8204
4564.16
615.126
147.311
644.677
-5785.84
-7401.96
-351.537
4538.98
-264.314
767.321
-384.546
3123.57
-377.78
2220.52
-413.004
2693.49
-438.345
2609.54
-475.806
2765.76
-515.831
2850.99
-560.736
2991.16
-608.86
3156.94
-658.543
3367.62
-703.987
3629.4
-729.172
3941.93
-694.919
4268.14
-509.687
4483.11
-25.1135
4079.58
676.518
-554.321
643.887
-5753.21
-6962.02
-462.408
5127.51
-273.042
577.954
-238.033
3088.56
-208.121
2190.61
-231.479
2716.85
-242.625
2620.69
-265.705
2788.84
-288.069
2873.35
-312.952
3016.04
-338.738
3182.72
-365.245
3394.13
-391.233
3655.38
-412.826
3963.52
-421.088
4276.41
-376.607
4438.63
-106.089
3809.07
758.694
-1419.1
499.645
-5494.16
-6400.45
-1239.92
-813.976
-1221.67
-1213.29
-1300.09
-1385.97
-1489.62
-1604.05
-1728.45
-1859.49
-1988.75
-2094.37
-2125.99
-1980.89
-1446.62
-194.249
606.113
174.478
205.32
-993.582
284.011
-1038.09
336.29
-999.15
347.233
-931.937
350.838
-956.793
331.143
-938.348
307.055
-948.916
273.814
-945.845
242.01
-949.62
213.694
-952.064
192.306
-954.343
172.463
-958.655
151.115
-954.806
136.011
-966.836
117.138
-945.795
104.059
-981.554
78.76
-927.641
68.7817
-1011.81
-4.57418
-878.831
-1265.37
66.6783
-1060.26
16.3408
-987.75
9.48087
-992.289
8.76498
-931.22
23.8401
-971.868
31.2004
-945.707
42.5892
-960.304
49.8942
-953.149
56.1299
-955.855
59.4859
-955.419
60.4975
-955.354
59.3838
-957.54
57.1448
-952.566
55.8639
-965.555
53.9095
-943.84
55.381
-983.025
54.0681
-926.327
58.3303
-1016.07
27.6796
-848.18
-1237.69
41.9389
-1102.2
23.8998
-969.71
26.2795
-994.667
22.1476
-927.087
21.0575
-970.776
18.0329
-942.681
16.8793
-959.149
15.3881
-951.656
14.6907
-955.156
13.8971
-954.624
12.9977
-954.453
12.0602
-956.601
11.7991
-952.304
10.9333
-964.688
9.59141
-942.498
7.70302
-981.136
5.477
-924.101
3.22882
-1013.82
17.5865
-862.537
-1220.1
33.3043
-1135.5
17.2413
-953.647
21.0345
-998.46
21.4331
-927.485
24.2538
-973.596
25.2243
-943.651
26.7606
-960.685
27.4305
-952.326
27.845
-955.57
27.9664
-954.745
28.2067
-954.693
28.3522
-956.747
27.819
-951.77
26.4072
-963.276
25.6263
-941.716
22.9287
-978.438
22.2319
-923.404
16.8809
-1008.47
17.1065
-862.762
-1202.99
24.4398
-1159.94
14.484
-943.69
16.6336
-1000.61
16.9578
-927.808
18.4341
-975.072
18.9501
-944.166
19.686
-961.42
20.1961
-952.835
20.6885
-956.062
20.989
-955.045
21.012
-954.715
20.5477
-956.281
20.3694
-951.591
19.6669
-962.572
19.5153
-941.564
18.1273
-977.049
18.431
-923.707
16.2655
-1006.3
16.4155
-862.912
-1186.58
19.4643
-1179.4
19.6086
-943.834
20.5322
-1001.53
21.0698
-928.346
21.3669
-975.369
21.9982
-944.798
22.0097
-961.431
22.1723
-952.997
21.9576
-955.847
21.6659
-954.753
21.272
-954.321
20.7195
-955.729
20.2131
-951.085
19.0892
-961.449
18.7234
-941.198
16.8575
-975.183
16.9711
-923.82
13.9171
-1003.25
15.861
-864.856
-1170.72
16.6666
-1196.07
26.4755
-953.643
27.6491
-1002.71
29.0024
-929.699
29.0181
-975.384
30.0825
-945.862
29.8106
-961.159
30.012
-953.198
29.6096
-955.445
29.1445
-954.287
28.4632
-953.64
27.4674
-954.733
26.634
-950.251
24.9901
-959.804
24.4864
-940.694
21.8181
-972.515
22.2071
-924.209
18.0525
-999.095
20.2704
-867.074
-1150.45
16.5256
-1212.6
36.1433
-973.261
38.8342
-1005.4
40.848
-931.713
41.2582
-975.795
42.7925
-947.396
42.5755
-960.943
42.7746
-953.398
42.126
-954.797
41.2777
-953.44
40.0797
-952.442
38.4299
-953.083
36.8768
-948.698
34.2381
-957.166
32.9854
-939.442
28.9456
-968.475
28.749
-924.013
22.8267
-993.173
25.166
-869.413
-1125.28
19.8818
-1232.48
44.3284
-997.707
50.6776
-1011.75
54.1741
-935.209
56.8799
-978.5
59.5961
-950.112
60.5364
-961.882
61.3088
-954.17
60.9736
-954.461
60.0891
-952.555
58.5948
-950.947
56.3498
-950.838
54.0528
-946.401
50.2232
-953.336
48.026
-937.244
42.0699
-962.519
40.9909
-922.934
32.2232
-984.405
34.5726
-871.762
-1090.71
26.4878
-1258.97
42.6329
-1013.85
54.3153
-1023.43
61.2969
-942.191
69.0893
-986.293
74.4373
-955.46
78.4214
-965.867
80.9117
-956.66
81.9725
-955.522
81.8464
-952.429
80.7106
-949.812
78.3838
-948.511
75.7624
-943.78
71.0325
-948.606
68.1109
-934.323
60.2402
-954.648
58.1402
-920.834
46.0658
-972.331
48.9573
-874.654
-1041.75
27.657
-1286.62
20.646
-1006.84
36.8606
-1039.64
50.171
-955.501
64.3539
-1000.48
73.9965
-965.103
82.6184
-974.489
88.095
-962.137
91.8223
-959.249
93.6157
-954.222
94.0464
-950.243
92.8939
-947.359
91.3793
-942.265
87.2075
-944.435
85.223
-932.338
76.846
-946.271
75.2193
-919.207
61.6329
-958.744
68.6268
-881.648
-973.124
-0.892486
-1285.73
-19.8795
-987.855
-6.58865
-1052.93
13.1192
-975.21
28.1771
-1015.53
41.2483
-978.175
52.2902
-985.532
60.0017
-969.849
65.9687
-965.217
69.947
-958.201
72.8483
-953.145
74.4323
-948.944
76.3246
-944.158
75.5319
-943.643
78.0462
-934.853
72.7804
-941.006
76.836
-923.263
69.327
-951.236
89.7455
-902.067
-883.379
-65.2164
-1220.51
-61.1032
-991.969
-61.7125
-1052.33
-42.7698
-994.153
-38.2023
-1020.1
-27.4132
-988.965
-21.5785
-991.367
-15.7765
-975.652
-11.1818
-969.812
-6.90563
-962.478
-2.35229
-957.699
2.39781
-953.694
8.96223
-950.723
14.109
-948.79
24.1537
-944.898
27.0645
-943.917
45.3545
-941.554
58.6558
-964.538
104.204
-947.615
-779.175
-122.22
-1098.3
-89.7783
-1024.41
-107.613
-1034.49
-100.385
-1001.38
-111.25
-1009.24
-109.973
-990.243
-114.412
-986.928
-114.462
-975.603
-114.304
-969.971
-111.813
-964.97
-107.276
-962.236
-100.445
-960.526
-90.6321
-960.537
-79.6337
-959.789
-63.6569
-960.876
-49.1725
-958.402
-13.5168
-977.21
31.0353
-1009.09
99.558
-1016.14
-679.616
-131.646
-966.651
-102.825
-1053.23
-129.081
-1008.24
-136.827
-993.636
-155.86
-990.207
-164.687
-981.416
-175.5
-976.116
-180.599
-970.505
-183.579
-966.992
-182.919
-965.631
-179.319
-965.837
-172.491
-967.355
-162.671
-970.357
-149.561
-972.9
-132.874
-977.563
-110.061
-981.217
-69.3767
-1017.89
-9.34282
-1069.12
54.9618
-1080.44
-624.655
-86.8926
-879.76
-86.8509
-1053.28
-107.004
-988.084
-120.264
-980.377
-134.994
-975.478
-145.254
-971.158
-153.881
-967.489
-158.843
-965.544
-161.362
-964.474
-161.568
-965.425
-159.973
-967.432
-156.564
-970.765
-151.704
-975.217
-144.086
-980.519
-134.75
-986.899
-118.469
-997.498
-101.045
-1035.32
-73.4754
-1096.69
-41.2837
-1112.64
-665.938
-11.5015
-868.258
-31.4594
-1033.32
-38.5041
-981.04
-45.0002
-973.882
-47.8695
-972.609
-49.81
-969.218
-49.6096
-967.69
-48.5769
-966.577
-46.7525
-966.298
-45.2303
-966.948
-44.3818
-968.281
-44.5024
-970.645
-45.9893
-973.731
-47.9312
-978.578
-51.3892
-983.441
-55.1281
-993.76
-76.496
-1013.95
-116.541
-1056.65
-131.676
-1097.5
-797.614
40.2923
-908.551
18.5642
-1011.59
17.1751
-979.651
18.2104
-974.917
21.4662
-975.865
26.1443
-973.896
31.9431
-973.489
37.9449
-972.579
43.8208
-972.175
48.7518
-971.879
52.3243
-971.854
54.0092
-972.33
53.3071
-973.029
49.7786
-975.049
42.8753
-976.538
30.0887
-980.973
-0.151325
-983.711
-63.4365
-993.365
-126.425
-1034.51
-924.039
41.7858
-950.337
20.4729
-990.278
17.4889
-976.667
18.4574
-975.886
19.0067
-976.415
21.3625
-976.252
24.1702
-976.297
27.727
-976.136
31.5608
-976.009
35.5
-975.819
39.2727
-975.627
42.4441
-975.502
44.7622
-975.347
45.2111
-975.498
44.0618
-975.389
38.7866
-975.698
29.5096
-974.434
7.37096
-971.227
-46.9667
-980.175
-971.006
24.6628
9.38505
7.7175
6.8314
5.4163
4.16416
2.86702
1.73088
0.722171
-0.0966469
-0.723306
-1.22498
-1.57227
-2.0707
-2.45967
-3.15814
-2.59227
1.18111
-3.99413
-351.214
-954.607
603.401
-954.599
-954.59
-954.588
-1749.67
795.089
-1749.67
-1749.67
-1749.67
-2747.8
998.13
-2747.8
-2747.8
-3634.94
887.139
-3634.94
-3634.94
-3634.94
-5152.29
1517.36
-5152.29
-5152.29
-13787.1
8634.83
-12545.5
-11604.4
-10591.7
-9645.56
-8658.48
-7701.34
-6728.31
-5761.86
-13613.3
8822.45
-12643.9
-11667.4
-10687.9
-9707.88
-8730.38
-7765.15
-6801.3
-5865.16
-4896.86
-5992.2
2076.53
-5186.12
-5186.12
-5754.6
568.475
-5291.95
-462.654
-5291.95
-5137.75
-154.192
-5137.75
-4988.53
-149.225
-4641.92
-346.612
-4641.92
-4291.04
-350.874
-4291.04
-3858.64
-432.405
-3181.28
-677.355
-3181.28
-2251.52
-929.76
-960.267
-1291.26
-960.268
384.871
-1345.14
384.87
384.87
11.2331
-11.2329
-225.36
236.594
-381.459
156.098
-527.101
145.642
-645.704
118.604
-767.509
121.805
-882.909
115.4
-982.041
99.1322
-1028.35
46.3093
-978.918
-49.4317
-824.422
-154.495
-566.24
-258.182
-175.904
-390.335
399.748
-575.652
1149.58
-749.832
2116.55
-966.971
2521.69
-405.14
1529.43
992.254
1914.3
-260.414
249.182
-496.48
472.66
-645.135
304.753
-779.551
280.057
-892.183
231.236
-991.995
221.617
-1054.55
177.956
-1060.83
105.41
-1011.09
-3.4341
-943.321
-117.195
-859.199
-238.617
-701.578
-415.803
-404.857
-687.056
93.5122
-1074.02
822.225
-1478.54
1766.43
-1911.18
2355.14
-993.841
2110.3
1237.09
2679.47
-309.369
558.55
-488.192
651.483
-581.754
398.316
-691.981
390.284
-781.862
321.118
-863.949
303.704
-923.234
237.241
-960.522
142.698
-972.885
8.92829
-954.597
-135.483
-891.72
-301.494
-758.672
-548.851
-514.225
-931.502
-96.6054
-1491.64
571.288
-2146.44
1485.17
-2825.06
2028.69
-1537.37
1855.08
1410.7
3243.29
-263.218
821.769
-397.302
785.567
-476.055
477.068
-585.926
500.155
-675.968
411.161
-767.411
395.147
-852.054
321.885
-927.302
217.946
-969.626
51.2525
-962.701
-142.408
-909.704
-354.491
-801.523
-657.031
-602.323
-1130.7
-246.716
-1847.25
371.025
-2764.18
1254.41
-3708.44
1824.23
-2107.2
1559.12
1675.81
3872.65
-199.386
1021.15
-317.024
903.205
-407.138
567.182
-524.73
617.746
-622.356
508.787
-723.615
496.406
-821.92
420.189
-912.707
308.734
-969.72
108.265
-973.943
-138.185
-933.641
-394.793
-848.936
-741.736
-689.502
-1290.14
-387.317
-2149.43
188.874
-3340.37
1056.31
-4575.88
1654.37
-2705.26
1335.18
1995.01
4530.47
-146.428
1167.58
-264.091
1020.87
-368.397
671.488
-491.566
740.916
-593.808
611.029
-698.458
601.056
-800.381
522.113
-898.462
406.815
-969.575
179.378
-988.639
-119.121
-962.72
-420.711
-902.168
-802.288
-783.261
-1409.04
-533.295
-2399.4
4.96672
-3878.63
861.419
-5432.33
1482.88
-3326.72
1141.97
2335.92
5240.03
-108.153
1275.74
-231.765
1144.48
-342.236
781.959
-467.589
866.269
-570.941
714.38
-675.692
705.807
-778.131
624.552
-881.994
510.678
-968.899
266.283
-1006.71
-81.3115
-997.534
-429.885
-963.142
-836.68
-887.717
-1484.47
-691.971
-2595.14
-195.938
-4374.66
620.612
-6248.88
1260.46
-3966.56
963.954
2632.42
5853.11
-80.1713
1355.91
-211.284
1275.59
-320.187
890.862
-446.008
992.091
-548.897
817.269
-652.949
809.858
-755.166
726.769
-863.626
619.139
-966.284
368.941
-1026.5
-21.0978
-1037.31
-419.077
-1030.65
-843.337
-1000.98
-1514.14
-865.428
-2730.69
-445.737
-4794.35
220.302
-6914.92
851.92
-4598.18
755.316
2729.03
6261.82
-57.8378
1413.74
-196.981
1414.74
-300.64
994.522
-426.372
1117.82
-528.212
919.108
-631.381
913.028
-732.844
828.232
-844.024
730.319
-960.47
485.387
-1045.86
64.2944
-1080.02
-384.921
-1100.05
-823.308
-1115.46
-1498.72
-1059.34
-2786.82
-830.167
-5023.52
-549.304
-7195.79
83.8055
-5231.29
396.09
2416.74
6508.68
-38.3103
1452.05
-186.196
1562.62
-283.925
1092.25
-409.331
1243.23
-509.695
1019.47
-611.741
1015.07
-711.875
928.366
-823.723
842.168
-951.148
612.812
-1062.9
176.047
-1122.05
-325.767
-1164.74
-780.624
-1228.36
-1435.1
-1315.55
-2699.64
-1521.8
-4817.27
-1935.13
-6782.46
-1314.71
-5851.71
-226.756
1328.79
6127.73
-19.9625
1472.02
-177.981
1720.64
-270.222
1184.49
-395.099
1368.11
-493.544
1117.92
-594.145
1115.68
-692.504
1026.72
-803.192
952.856
-937.84
747.459
-1074.69
312.894
-1160.01
-240.441
-1226.56
-714.074
-1369.98
-1291.68
-1752.03
-2317.58
-2746.36
-3822.94
-4184.77
-5344.05
-3722.23
-6314.25
-1109.9
-1283.55
4555.18
-1.40317
1473.42
-172.105
1891.34
-259.372
1271.76
-383.539
1492.27
-479.654
1214.03
-578.472
1214.49
-674.799
1123.05
-782.945
1061
-920.127
884.643
-1078.39
471.157
-1196.62
-122.207
-1312.41
-598.291
-1623.87
-980.222
-2513.49
-1427.96
-4518.09
-1818.33
-7113.76
-2748.38
-7375
-6053.01
-3307.74
-5350.81
1815.91
18.612
1454.81
-168.056
2078.01
-251.135
1354.84
-374.412
1615.55
-467.854
1307.47
-564.553
1311.19
-658.724
1217.22
-763.506
1165.78
-898.727
1019.86
-1073.92
646.354
-1245.94
49.8119
-1472.28
-371.955
-2053.88
-398.623
-3472.59
-9.24725
-6066.63
775.706
-9020.12
205.109
-10058.6
-5014.55
-7101.45
-8307.94
-3209.01
41.6012
1413.21
-165.809
2285.42
-245.348
1434.38
-367.485
1737.69
-457.979
1397.97
-552.221
1405.44
-644.152
1309.15
-745.079
1266.71
-875.188
1149.97
-1066.89
838.058
-1325.15
308.068
-1695.94
-1.16675
-2381.01
286.448
-3604.67
1214.42
-5376.77
2547.8
-7059.04
1887.38
-7933.4
-4140.18
-8438.48
-7802.86
-2825.03
69.5515
1343.66
-165.494
2520.47
-242.04
1510.92
-362.565
1858.21
-449.876
1485.28
-541.308
1496.87
-630.904
1398.75
-727.996
1363.8
-851.669
1273.65
-1049.69
1036.08
-1350.2
608.577
-1712.7
361.33
-2178.56
752.311
-2882.81
1918.67
-3794.64
3459.63
-4347.22
2439.96
-4669.38
-3818.03
-6389.96
-6082.28
-580.162
105.298
1238.36
-167.333
2793.1
-241.42
1585.01
-359.469
1976.26
-443.401
1569.21
-531.653
1585.12
-618.87
1485.97
-712.705
1457.64
-828.629
1389.57
-1009.8
1217.26
-1283.17
881.94
-1582.49
660.657
-1847.07
1016.89
-2088.86
2160.46
-2300.48
3671.26
-2090.24
2229.71
-1775.97
-4132.29
-1579.47
-6278.78
-642.277
153.345
1085.01
-172.009
3118.45
-244.094
1657.09
-358.068
2090.23
-438.422
1649.57
-523.107
1669.8
-607.879
1570.74
-698.904
1548.66
-807.526
1498.19
-966.861
1376.59
-1201.37
1116.45
-1445.79
905.084
-1578.62
1149.72
-1485.04
2066.89
-1131.82
3318.03
-437.598
1535.49
-510.971
-4058.92
-1150.44
-5639.3
-905.581
226.307
858.705
-177.715
3522.47
-250.806
1730.18
-358.153
2197.58
-434.807
1726.22
-515.535
1750.53
-597.758
1652.96
-686.165
1637.07
-788.868
1600.89
-929.793
1517.52
-1130.45
1317.11
-1335.44
1110.08
-1392.14
1206.41
-1079.81
1754.56
-293.943
2532.17
563.931
677.619
137.121
-3632.11
-889.603
-4612.58
-797.052
331.103
527.602
-194.686
4048.26
-263.851
1799.35
-359.688
2293.42
-432.427
1798.96
-508.802
1826.91
-588.367
1732.53
-674.178
1722.88
-772.248
1698.96
-899.868
1645.14
-1076.14
1493.38
-1256.35
1290.28
-1266.79
1216.85
-792.027
1279.79
422.956
1317.19
1219.75
-119.176
519.561
-2931.92
-742.883
-3350.13
-744.843
584.028
-178.932
-283.411
-362.159
-431.1
-502.78
-579.602
-662.768
-757.061
-875.537
-1037.15
-1206.98
-1168.07
-461.006
1138.53
1783.6
822.104
-676.65
-688.658
1663.66
-1102.93
1389.27
-1532.81
1404.89
-1870.69
1312.88
-2167.53
1271.84
-2411.06
1218.53
-2611.42
1175.36
-2767.8
1131.38
-2882.47
1089.67
-2955.07
1047.6
-2985.13
1005.07
-2971.06
960.929
-2910.35
914.29
-2799.57
864.215
-2635.67
811.101
-2419.23
758.557
-2146.91
702.686
-1751.03
579.121
-1032.82
256.79
-57.8245
-156.846
1820.5
-343.837
1576.26
-565.063
1626.11
-725.047
1472.86
-883.695
1430.49
-1003.41
1338.24
-1101.18
1273.13
-1170.37
1200.58
-1213.95
1133.25
-1231.97
1065.61
-1225.47
998.567
-1195.48
930.942
-1143.01
861.82
-1069.02
790.223
-973.16
715.237
-854.763
640.16
-712.071
559.994
-541.348
408.398
-314.391
29.832
-372.216
8.05651
1812.45
-86.7332
1671.05
-118.565
1657.94
-112.284
1466.58
-97.1403
1415.35
-63.921
1305.02
-19.2259
1228.43
35.3618
1145.99
98.0188
1070.59
165.474
998.158
234.815
929.225
302.771
862.986
366.311
798.28
422.681
733.852
470.893
667.025
512.825
598.228
546.804
526.014
519.926
435.276
284.495
265.262
-87.7209
107.107
1705.34
177.706
1600.45
303.248
1532.4
416.209
1353.62
535.143
1296.41
637.411
1202.75
733.295
1132.55
815.314
1063.97
884.934
1000.97
938.93
944.162
974.721
893.433
989.7
848.007
981.366
806.613
948.441
766.777
889.127
726.338
803.651
683.703
690.556
639.109
537.886
587.946
309.137
494.011
221.416
-16.4953
1721.83
139.164
1444.79
295.295
1376.27
431.998
1216.91
549.919
1178.49
649.733
1102.94
729.268
1053.01
788.457
1004.78
828.595
960.833
849.607
923.149
851.639
891.401
835.056
864.589
799.63
842.039
746.344
820.063
674.126
798.556
583.87
773.958
473.367
749.613
340.677
720.635
186.811
647.877
408.227
-94.2678
1816.1
-16.1705
1366.69
111.446
1248.65
248.338
1080.02
345.746
1081.08
431.876
1016.81
494.998
989.888
540.67
959.106
569.427
932.076
582.682
909.894
582.037
892.046
569.21
877.416
544.712
866.537
509.677
855.098
462.594
845.638
404.158
832.394
330.995
822.776
241.77
809.859
130.605
759.041
538.832
1.74181
1814.36
-76.5174
1444.95
-12.4523
1184.59
101.022
966.547
188.679
993.424
257.035
948.452
306.342
940.582
341.214
924.233
362.673
910.618
372.586
899.98
372.766
891.865
365.063
885.119
350.231
881.368
328.887
876.442
300.127
874.398
263.952
868.569
218.476
868.25
162.369
865.967
84.9858
836.424
623.818
128.071
1686.29
41.1105
1531.91
45.3238
1180.37
99.4868
912.385
164.564
928.347
203.566
909.451
231.959
912.188
249.848
906.345
259.114
901.352
261.196
897.898
257.414
895.647
248.995
893.538
236.837
893.526
220.681
892.598
201.368
893.711
176.827
893.11
149.413
895.665
114.21
901.169
68.7581
881.876
692.576
152.429
1533.86
185.106
1499.23
192.348
1173.13
196.124
908.608
219.141
905.329
226.918
901.674
231.387
907.718
230.801
906.931
226.331
905.822
218.647
905.581
208.434
905.86
196.068
905.903
182.566
907.028
166.692
908.471
151.282
909.121
131.479
912.912
114.828
912.316
90.6219
925.375
71.0826
901.415
763.659
114.036
1419.82
226.178
1387.09
265.83
1133.48
257.416
917.022
248.39
914.355
237.801
912.263
227.263
918.256
215.882
918.311
203.45
918.254
190.24
918.791
176.573
919.527
162.264
920.213
148.444
920.848
133.17
923.745
120.68
921.611
103.99
929.602
94.3678
921.938
76.2766
943.466
73.6067
904.085
837.265
74.3841
1345.44
195.611
1265.86
244.722
1084.37
239.689
922.055
221.057
932.987
207.004
926.316
193.06
932.199
180.166
931.205
167.147
931.274
154.324
931.613
141.871
931.98
129.395
932.688
118.08
932.163
105.653
936.171
96.8708
930.393
83.8351
942.638
79.1977
926.576
65.1251
957.539
70.5013
898.709
907.767
51.1667
1294.27
149.329
1167.7
187.307
1046.39
184.634
924.729
168.535
949.086
158.339
936.513
147.111
943.428
137.42
940.896
127.587
941.107
118.152
941.049
109.183
940.95
100.277
941.595
92.5627
939.877
83.7446
944.99
78.4519
935.686
68.8494
952.241
67.3072
928.118
55.9517
968.894
63.5692
891.092
971.336
39.4828
1254.79
110.278
1096.91
133.469
1023.2
131.447
926.751
120.584
959.949
115.003
942.094
107.586
950.845
101.643
946.84
95.3376
947.412
89.3629
947.024
83.6913
946.621
77.9776
947.309
73.2204
944.635
67.2939
950.917
64.3861
938.594
57.2951
959.332
57.2946
928.119
47.8649
978.324
55.0969
883.86
1026.43
33.8088
1220.98
81.3997
1049.32
93.9083
1010.69
92.4827
928.177
86.1165
966.316
83.7109
944.501
79.3275
955.229
76.1688
949.999
72.5154
951.066
69.0764
950.463
65.7501
949.948
62.2405
950.819
59.4458
947.43
55.4523
954.911
53.9776
940.069
48.5547
964.755
49.3184
927.355
41.3037
986.339
47.4839
877.68
1073.92
32.0515
1188.93
61.2412
1020.13
67.554
1004.38
66.5285
929.203
63.1807
969.664
62.3523
945.33
59.9499
957.632
58.3513
951.598
56.2278
953.19
54.1842
952.507
52.1651
951.968
49.9723
953.012
48.1972
949.205
45.29
957.818
44.3408
941.019
40.0258
969.07
40.6331
926.748
33.8631
993.109
38.9728
872.57
1112.89
33.5213
1155.41
45.9542
1007.69
49.9421
1000.39
49.7326
929.414
49.0195
970.378
49.1081
945.242
48.3308
958.41
47.9524
951.977
47.2715
953.872
46.5147
953.265
45.4972
952.986
43.9123
954.598
42.8758
950.242
40.8011
959.893
40.3339
941.487
36.8874
972.517
37.8035
925.833
32.4394
998.474
35.2961
869.714
1148.19
39.7004
1115.71
40.5619
1006.83
44.3457
996.607
44.7729
928.986
46.0839
969.067
46.9698
944.356
47.3079
958.072
47.3604
951.925
46.8336
954.399
46.1373
953.961
45.5935
953.53
44.9462
955.245
43.8698
951.319
41.518
962.245
40.6919
942.313
36.561
976.648
36.6796
925.714
29.0434
1006.11
31.537
867.22
1179.72
45.4284
1070.28
39.7053
1012.56
40.9166
995.396
36.341
933.562
33.4902
971.918
30.2052
947.641
28.0754
960.202
26.2545
953.746
24.9705
955.683
23.8035
955.129
22.556
954.778
21.2129
956.588
20.7054
951.827
19.1485
963.802
18.0849
943.377
15.1606
979.573
14.2996
926.575
10.5141
1009.9
27.6582
850.077
1207.38
64.8249
1005.46
22.4029
1054.98
13.8819
1003.92
12.0376
935.407
24.1225
959.833
29.8982
941.866
38.3825
951.717
43.6004
948.528
47.8883
951.395
49.7149
953.302
49.5066
954.986
47.6826
958.413
45.9868
953.522
45.773
964.016
46.4207
942.729
49.5514
976.442
52.0615
924.065
57.4815
1004.48
33.9314
873.627
1241.31
199.379
273.17
308.788
308.048
304.033
280.675
254.89
223.429
195.292
172.064
157.698
145.076
132.149
123.138
108.725
98.0877
76.0353
67.7907
0.295258
)
;

boundaryField
{
    outletWallLeft
    {
        type            calculated;
        value           nonuniform List<scalar> 
40
(
561.256
605.65
583.357
532.147
474
412.746
356.164
306.303
262.541
223.898
189.242
158.207
128.753
104.202
74.2639
63.4342
10.9996
61.1413
-126.129
244.901
-4492.26
-6122.13
-5062.52
-2219.47
2556.7
3904.36
4131.3
3995.15
3761
3523.38
3313.76
3140.44
2987.78
2892.49
2706.57
2803.65
2182.23
3496.25
152.015
6122.53
)
;
    }
    fineWallsLeft
    {
        type            calculated;
        value           uniform 0;
    }
    fineFrontAndBackLeft
    {
        type            calculated;
        value           nonuniform List<scalar> 
880
(
-4.18975e-15
5.89796e-15
-6.24139e-14
4.12884e-14
-3.99546e-13
-1.0825e-12
-4.15945e-13
-1.54608e-12
-1.54847e-12
-3.00384e-13
-4.11948e-13
4.10022e-14
4.13458e-13
4.7216e-13
8.58859e-14
1.48765e-13
1.38497e-14
3.07516e-14
1.37494e-13
-6.2591e-13
2.02746e-13
1.04711e-12
-3.95539e-12
-4.89148e-12
-4.82015e-12
-5.77134e-12
-5.81222e-12
-5.06122e-12
-3.84142e-12
-3.90312e-12
-3.53517e-12
-3.04027e-11
-3.33643e-12
-3.51473e-12
-3.46415e-12
-3.5251e-12
-3.81332e-12
-3.22786e-12
-3.12334e-12
-5.03114e-12
-5.65612e-11
-6.12018e-12
-4.03255e-12
-1.35086e-11
-8.3347e-13
-3.7402e-13
-1.46788e-13
-2.05686e-13
1.85514e-13
2.21179e-13
-9.96049e-13
-4.5068e-13
8.80981e-13
9.95112e-12
1.53716e-10
3.42656e-11
3.33339e-11
2.7546e-11
1.11573e-10
8.6503e-12
3.22399e-22
8.71081e-23
-5.20132e-21
-5.41381e-20
1.58312e-19
4.50791e-18
1.18322e-17
-1.17696e-16
-7.64917e-16
-5.86535e-17
1.23127e-14
3.53171e-14
2.90679e-15
-8.1202e-14
3.01891e-14
1.03993e-13
-4.68347e-13
1.09468e-11
1.1671e-10
1.96648e-22
-7.18337e-23
-4.86261e-21
-1.65789e-20
2.72428e-19
2.22117e-18
-2.57845e-18
-8.01349e-17
-2.0258e-16
7.12054e-16
3.49169e-15
3.27678e-15
3.53982e-14
2.06058e-13
2.46667e-13
2.83026e-13
-1.67869e-12
2.31903e-11
1.28066e-10
-1.98773e-23
-7.03165e-23
-1.15787e-21
4.34881e-21
8.59359e-20
-5.45482e-20
-3.05454e-18
2.11301e-18
8.60381e-17
-1.76863e-16
-2.93208e-15
3.92089e-16
4.95778e-14
8.15507e-14
5.65307e-14
2.05783e-13
2.48913e-13
-4.16507e-13
-4.02543e-11
-3.49804e-23
6.47267e-23
1.05971e-21
-1.54521e-21
-1.00181e-19
-4.61632e-19
3.49831e-18
3.71243e-17
2.38346e-17
-9.2434e-16
-3.28601e-15
4.63534e-15
4.29636e-14
1.18865e-13
3.6641e-13
9.1817e-13
1.7725e-12
-8.95457e-13
-1.28133e-11
2.82674e-23
1.36735e-22
6.09685e-22
-1.1298e-20
-1.12538e-19
1.14049e-19
5.9355e-18
2.24237e-17
-8.11005e-17
-7.93665e-16
-1.49177e-15
3.09826e-15
3.98061e-14
3.16085e-13
9.89536e-13
1.76097e-12
2.23955e-12
-1.01117e-12
-2.9605e-11
4.63061e-23
8.65889e-23
-4.04825e-22
-1.1021e-20
-3.92362e-20
4.26831e-19
3.63242e-18
1.47412e-18
-7.67819e-17
-2.82174e-16
-8.48083e-16
-5.25903e-15
4.45683e-14
6.33484e-13
1.86813e-12
2.40138e-12
-5.13158e-12
-3.39796e-11
-9.26884e-11
2.78017e-23
1.05689e-23
-6.78438e-22
-5.30745e-21
1.05715e-20
3.22211e-19
8.4377e-19
-6.24946e-18
-2.25996e-17
8.62759e-17
-8.08555e-16
-1.12473e-14
2.24756e-14
6.20155e-13
2.0726e-12