/*--------------------------------*- C++ -*----------------------------------*\
| =========                 |                                                 |
| \\      /  F ield         | OpenFOAM: The Open Source CFD Toolbox           |
|  \\    /   O peration     | Version:  4.1                                   |
|   \\  /    A nd           | Web:      www.OpenFOAM.org                      |
|    \\/     M anipulation  |                                                 |
\*---------------------------------------------------------------------------*/
FoamFile
{
    version     2.0;
    format      ascii;
    class       volVectorField;
    location    "1";
    object      U;
}
// * * * * * * * * * * * * * * * * * * * * * * * * * * * * * * * * * * * * * //

dimensions      [0 1 -1 0 0 0 0];

internalField   nonuniform List<vector> 
1680
(
(-1.15301e-18 2.12942 0.244734)
(4.2623e-18 1.53805 0.151744)
(-1.71762e-17 1.53702 0.268535)
(2.98381e-17 1.27019 0.0785797)
(-1.89032e-16 1.62411 -0.0642969)
(-2.97901e-16 1.70906 -0.0384741)
(-3.00592e-16 1.43225 -0.128601)
(-4.25477e-16 1.79576 -0.208868)
(-4.26135e-16 1.95751 -0.0761325)
(-2.17079e-16 1.5399 -0.170633)
(-1.13367e-16 2.2627 -0.265692)
(3.01217e-17 1.71451 -0.347189)
(1.13783e-16 2.10699 -0.364134)
(1.29937e-16 2.23427 0.0369133)
(6.09497e-17 1.79825 -0.0831968)
(4.09399e-17 2.50893 -0.180634)
(1.00088e-17 2.02767 -0.296326)
(8.46276e-18 1.9925 -0.762624)
(3.78379e-17 3.69395 1.54078)
(-4.52329e-16 -0.134314 -3.58312)
(8.31777e-16 2.54281 0.706643)
(4.19894e-16 0.469707 -1.00933)
(-1.62272e-14 3.16955 9.97099)
(-2.00676e-14 3.51226 12.781)
(-1.9775e-14 3.57378 14.7656)
(-2.36773e-14 3.65568 15.8336)
(-2.3845e-14 3.60882 16.5586)
(-2.0764e-14 3.5599 16.9091)
(-1.57597e-14 3.55279 16.7025)
(-1.60128e-14 3.50039 16.249)
(-1.45033e-14 3.66167 15.5592)
(-1.21916e-14 2.40197 15.5446)
(-1.36879e-14 3.64729 15.1777)
(-1.44194e-14 3.34361 15.0282)
(-1.42119e-14 3.71674 14.8836)
(-1.4462e-14 3.33632 15.1957)
(-1.56444e-14 3.83482 15.0408)
(-1.32425e-14 3.24188 15.3554)
(-1.28137e-14 3.75584 15.1285)
(-2.06406e-14 3.38073 16.9041)
(-1.96906e-14 4.0906 15.4168)
(-9.83162e-15 2.17358 7.96975)
(-6.49411e-15 1.56997 5.32743)
(-4.70273e-15 1.60708 3.73948)
(-1.33891e-15 1.09105 1.47004)
(-6.00835e-16 0.993712 1.18592)
(-2.35804e-16 0.967188 0.65349)
(-7.16051e-17 0.913247 0.323505)
(2.98015e-16 0.721823 0.850014)
(3.55307e-16 0.747377 0.991679)
(-3.46753e-16 0.52669 0.8818)
(-7.23985e-16 0.374854 0.792686)
(1.41523e-15 0.327882 0.973798)
(1.59857e-14 0.336664 0.51779)
(5.3781e-14 0.148277 -0.244581)
(5.50451e-14 0.0248419 -0.0711609)
(5.35485e-14 0.0193294 -0.00536715)
(4.42506e-14 0.0815789 -0.354399)
(3.88419e-14 0.043627 -0.787969)
(1.38961e-14 -0.176011 0.370395)
(7.16442e-26 -0.117558 3.08399)
(1.93574e-26 -1.62436 -0.188347)
(-1.15585e-24 -0.648108 0.814333)
(-1.20307e-23 -0.79934 0.432395)
(3.51804e-23 -0.633237 0.725189)
(1.00176e-21 -0.6437 0.743268)
(2.62937e-21 -0.615048 0.89898)
(-2.61546e-20 -0.614949 1.01164)
(-1.69982e-19 -0.612485 1.15739)
(-1.30341e-20 -0.606355 1.31809)
(2.73616e-18 -0.577377 1.52927)
(7.84824e-18 -0.513896 1.83039)
(6.45953e-19 -0.380333 2.06854)
(-1.80449e-17 -0.0533202 1.29706)
(6.70869e-18 0.406153 -0.879964)
(2.31095e-17 0.337039 -2.68877)
(-1.04077e-16 0.45877 -2.79971)
(2.43262e-15 0.302498 0.0116827)
(2.59356e-14 0.285823 3.38984)
(4.36997e-26 -0.00736084 3.32155)
(-1.5963e-26 -1.44455 -0.164408)
(-1.08058e-24 -0.673218 0.924073)
(-3.68421e-24 -0.806112 0.431477)
(6.05397e-23 -0.654393 0.734232)
(4.93593e-22 -0.665071 0.735966)
(-5.7299e-22 -0.639228 0.888921)
(-1.78078e-20 -0.641283 0.995997)
(-4.50177e-20 -0.642261 1.13774)
(1.58234e-19 -0.642833 1.29268)
(7.75931e-19 -0.627333 1.49285)
(7.28174e-19 -0.565312 1.77869)
(7.86626e-18 -0.334801 2.00783)
(4.57907e-17 0.247235 1.386)
(5.4815e-17 0.775865 0.0945822)
(6.28946e-17 0.518445 -1.3962)
(-3.73043e-16 -0.0483317 -1.45434)
(5.1534e-15 -0.0150834 2.1723)
(2.84592e-14 0.566703 3.84079)
(-4.41718e-27 -0.00948125 3.47161)
(-1.56259e-26 -1.28134 -0.134057)
(-2.57303e-25 -0.696994 0.974964)
(9.66402e-25 -0.804729 0.433231)
(1.90969e-23 -0.674384 0.741901)
(-1.21218e-23 -0.684814 0.729415)
(-6.78786e-22 -0.662471 0.879394)
(4.69557e-22 -0.6667 0.980949)
(1.91196e-20 -0.671075 1.11865)
(-3.93029e-20 -0.677738 1.26842)
(-6.51574e-19 -0.674405 1.45873)
(8.7131e-20 -0.617192 1.72892)
(1.10173e-17 -0.331006 2.00768)
(1.81224e-17 0.354608 1.77341)
(1.25624e-17 1.02131 0.941678)
(4.57296e-17 0.778914 -0.0893409)
(5.5314e-17 -0.462546 -0.465243)
(-9.25571e-17 -0.416673 1.70218)
(-8.94541e-15 0.765483 3.626)
(-7.77341e-27 -0.106443 3.33313)
(1.43837e-26 -1.15602 -0.0714001)
(2.3549e-25 -0.716497 0.998114)
(-3.4338e-25 -0.80121 0.43771)
(-2.22626e-23 -0.693079 0.747902)
(-1.02585e-22 -0.703085 0.723465)
(7.77401e-22 -0.68478 0.870244)
(8.24985e-21 -0.691199 0.966424)
(5.29658e-21 -0.698963 1.10003)
(-2.05409e-19 -0.711174 1.24484)
(-7.30224e-19 -0.719124 1.42616)
(1.03008e-18 -0.674514 1.68359)
(9.54746e-18 -0.364516 2.02866)
(2.64145e-17 0.421815 2.14838)
(8.14244e-17 1.2135 1.80412)
(2.04038e-16 1.01471 1.48422)
(3.93888e-16 -1.00903 0.311797)
(-1.9899e-16 -0.563062 1.26376)
(-2.84739e-15 0.991684 3.16169)
(6.28165e-27 -0.157647 3.13603)
(3.03855e-26 -1.03771 -0.00645671)
(1.35486e-25 -0.727883 1.00908)
(-2.51066e-24 -0.797164 0.443062)
(-2.50084e-23 -0.710418 0.752312)
(2.53442e-23 -0.720034 0.717925)
(1.319e-21 -0.706164 0.861312)
(4.98305e-21 -0.714777 0.952302)
(-1.80223e-20 -0.725922 1.08173)
(-1.7637e-19 -0.743212 1.22161)
(-3.31504e-19 -0.761822 1.39453)
(6.88503e-19 -0.737909 1.63811)
(8.8458e-18 -0.439029 2.045)
(7.0241e-17 0.399137 2.602)
(2.19897e-16 1.23937 2.99934)
(3.91327e-16 1.17189 3.62822)
(4.97677e-16 -0.818892 2.21259)
(-2.24704e-16 -0.943467 1.6248)
(-6.57889e-15 0.324365 5.96958)
(1.02902e-26 -0.243351 2.93945)
(1.9242e-26 -0.928995 0.0217063)
(-8.99611e-26 -0.733723 1.0155)
(-2.44911e-24 -0.792583 0.447322)
(-8.71917e-24 -0.726565 0.755167)
(9.48512e-23 -0.735785 0.712611)
(8.07203e-22 -0.726653 0.852461)
(3.27583e-22 -0.73744 0.938475)
(-1.70626e-20 -0.751952 1.06362)
(-6.27054e-20 -0.773907 1.19862)
(-1.88463e-19 -0.802114 1.3633)
(-1.16867e-18 -0.80511 1.58714)
(9.90406e-18 -0.565657 2.02999)
(1.40774e-16 0.23174 3.11972)
(4.15139e-16 1.06328 4.57105)
(5.3364e-16 1.119 6.48053)
(-1.14035e-15 -0.823078 6.35373)
(-7.55102e-15 -1.1765 7.86826)
(-2.05974e-14 1.68858 16.0438)
(6.17816e-27 -0.33744 2.75977)
(2.34865e-27 -0.835029 0.00805)
(-1.50764e-25 -0.738901 1.01882)
(-1.17943e-24 -0.787504 0.449709)
(2.34923e-24 -0.741815 0.756429)
(7.16025e-23 -0.750447 0.707386)
(1.87504e-22 -0.746278 0.843569)
(-1.38877e-21 -0.759195 0.92485)
(-5.02212e-21 -0.777059 1.04562)
(1.91724e-20 -0.803259 1.17574)
(-1.79679e-19 -0.839092 1.33273)
(-2.49939e-18 -0.871542 1.53094)
(4.99458e-18 -0.747018 1.93685)
(1.37812e-16 -0.121971 3.38829)
(4.60578e-16 0.672292 6.21269)
(5.62651e-16 0.750997 9.90347)
(-6.92698e-16 -1.17322 11.8336)
(-4.23349e-15 -2.406 12.6823)
(-8.62449e-15 -0.750183 15.3131)
(2.05889e-27 -0.434369 2.59666)
(-5.12116e-27 -0.753352 -0.0286573)
(-9.81164e-26 -0.746737 1.0171)
(-2.27821e-25 -0.782092 0.450459)
(4.52187e-24 -0.756461 0.756042)
(3.00757e-23 -0.764128 0.70216)
(-1.0258e-22 -0.765079 0.834539)
(-1.32946e-21 -0.78005 0.911358)
(2.71404e-21 -0.801238 1.02762)
(5.56884e-20 -0.831439 1.15266)
(-1.00967e-19 -0.872797 1.30326)
(-3.00734e-18 -0.926427 1.48262)
(-4.27774e-18 -0.929027 1.78566)
(1.01817e-16 -0.666089 2.99953)
(5.26259e-16 -0.206646 6.66552)
(9.08046e-16 -0.143219 12.4879)
(4.42434e-16 -1.54658 16.8248)
(-1.06692e-15 -2.09367 15.1156)
(-1.34878e-15 0.181271 6.03784)
(2.73744e-28 -0.532797 2.4464)
(-4.93605e-27 -0.681531 -0.0707086)
(-4.1007e-26 -0.758537 1.00899)
(1.07017e-25 -0.77656 0.450189)
(3.14853e-24 -0.770676 0.753975)
(7.25962e-24 -0.776876 0.696882)
(-1.47216e-22 -0.783036 0.825298)
(-8.89978e-22 -0.79995 0.897953)
(4.36801e-21 -0.82438 1.0096)
(5.48276e-20 -0.858462 1.12921)
(-2.18938e-20 -0.904708 1.27348)
(-2.26522e-18 -0.96985 1.44356)
(-6.70754e-18 -1.04906 1.67418)
(4.5034e-17 -1.08923 2.3716)
(3.17229e-16 -1.11554 4.73915)
(6.9164e-16 -1.19954 9.73042)
(6.67895e-16 -1.67656 14.1569)
(1.67634e-16 -0.264116 10.474)
(1.08563e-16 2.80064 1.17921)
(-1.25814e-28 -0.631941 2.30627)
(-2.85435e-27 -0.618636 -0.109768)
(-1.26334e-26 -0.77481 0.994761)
(1.33027e-25 -0.771443 0.449531)
(1.6941e-24 -0.784911 0.750252)
(-1.25582e-25 -0.789094 0.691535)
(-1.0955e-22 -0.800508 0.81579)
(-5.15383e-22 -0.819247 0.884603)
(3.42086e-21 -0.846803 0.99159)
(3.7906e-20 -0.884575 1.1055)
(9.0884e-21 -0.935676 1.24244)
(-1.28843e-18 -1.00804 1.40453)
(-4.91432e-18 -1.11808 1.60068)
(1.34872e-17 -1.30315 1.97679)
(1.41712e-16 -1.6583 3.05888)
(3.89735e-16 -1.94383 5.85171)
(4.78656e-16 -1.69325 8.8055)
(1.70157e-16 0.665273 4.03955)
(-4.75135e-18 2.50102 -0.79088)
(-1.18068e-28 -0.728032 2.17472)
(-1.37998e-27 -0.562794 -0.142877)
(-2.92158e-27 -0.794544 0.97546)
(8.98361e-26 -0.76582 0.44904)
(8.31413e-25 -0.798074 0.744924)
(-1.63592e-24 -0.799593 0.686112)
(-6.59799e-23 -0.816191 0.805962)
(-2.53532e-22 -0.836558 0.871268)
(2.15675e-21 -0.867025 0.973575)
(2.09068e-20 -0.908107 1.08172)
(8.32275e-21 -0.963673 1.21043)
(-6.13873e-19 -1.04174 1.36178)
(-2.58288e-18 -1.163 1.53801)
(2.59853e-18 -1.39253 1.77347)
(5.11952e-17 -1.88208 2.14532)
(1.75845e-16 -2.3134 3.04569)
(2.6554e-16 -1.51153 4.48068)
(6.71864e-17 1.51189 0.80358)
(-6.78513e-18 3.27428 -0.533934)
(-6.5944e-29 -0.83139 2.05195)
(-6.34152e-28 -0.514614 -0.16854)
(-1.12779e-28 -0.821113 0.952274)
(5.20068e-26 -0.763707 0.449325)
(3.71808e-25 -0.81441 0.738115)
(-1.58263e-24 -0.812897 0.680668)
(-3.451e-23 -0.834795 0.795827)
(-9.65274e-23 -0.856801 0.857978)
(1.20341e-21 -0.890167 0.955615)
(9.56176e-21 -0.934347 1.05805)
(1.22422e-21 -0.993941 1.17828)
(-2.59015e-19 -1.07692 1.31699)
(-1.07738e-18 -1.20315 1.47431)
(2.00109e-19 -1.43421 1.64739)
(1.57286e-17 -1.92017 1.72896)
(6.47574e-17 -2.381 1.56389)
(1.239e-16 -1.28214 1.76404)
(2.02252e-17 1.64059 -0.811997)
(-3.95715e-18 3.02013 -0.69077)
(-3.27712e-29 -0.911403 1.93378)
(-2.74383e-28 -0.466241 -0.182557)
(5.85847e-28 -0.843214 0.925662)
(2.72465e-26 -0.752718 0.45078)
(1.38923e-25 -0.820948 0.729767)
(-1.12439e-24 -0.815265 0.675082)
(-1.55637e-23 -0.841864 0.785208)
(-2.29184e-23 -0.864843 0.844547)
(5.93996e-22 -0.900397 0.937511)
(3.64177e-21 -0.946722 1.03434)
(-2.10252e-21 -1.00901 1.14628)
(-9.87159e-20 -1.09508 1.27222)
(-3.6707e-19 -1.22277 1.40924)
(-1.68423e-20 -1.44035 1.54015)
(4.33202e-18 -1.86432 1.51496)
(1.95365e-17 -2.2744 0.932556)
(4.53517e-17 -1.0118 0.306786)
(1.93659e-18 1.83467 -1.31626)
(7.07248e-18 3.0277 -0.770852)
(-1.5037e-29 -1.05728 1.82667)
(-1.01493e-28 -0.433532 -0.18694)
(5.73953e-28 -0.893091 0.897686)
(1.25308e-26 -0.768234 0.454417)
(3.72353e-26 -0.854579 0.720402)
(-6.3991e-25 -0.84606 0.669817)
(-5.91624e-24 -0.878588 0.774569)
(1.08961e-24 -0.903801 0.831504)
(2.54235e-22 -0.942802 0.919907)
(1.13416e-21 -0.99249 1.0114)
(-2.11147e-21 -1.05852 1.1156)
(-3.37642e-20 -1.14815 1.2297)
(-1.01151e-19 -1.27621 1.34677)
(2.84645e-20 -1.47541 1.43991)
(1.12963e-18 -1.81956 1.36616)
(4.80072e-18 -2.13144 0.693642)
(1.20944e-17 -0.792307 -0.314212)
(-3.04199e-18 1.90815 -1.48564)
(2.85877e-17 2.89927 -0.706952)
(-6.14237e-30 -1.03506 1.70371)
(-2.72633e-29 -0.371756 -0.156538)
(3.62139e-28 -0.878555 0.864553)
(4.88708e-27 -0.714847 0.459848)
(3.41158e-27 -0.816232 0.708845)
(-2.97321e-25 -0.800067 0.663691)
(-1.84034e-24 -0.834966 0.762585)
(4.4995e-24 -0.858514 0.817351)
(9.28868e-23 -0.896888 0.901052)
(2.72972e-22 -0.945319 0.987179)
(-1.19165e-21 -1.00975 1.08382)
(-1.01434e-20 -1.09673 1.18684)
(-2.11175e-20 -1.21853 1.28586)
(3.23618e-20 -1.39637 1.34721)
(2.89077e-19 -1.67089 1.24665)
(9.35977e-19 -1.89289 0.607117)
(2.03333e-18 -0.544564 -0.514001)
(-5.31731e-18 1.90002 -1.45853)
(4.20868e-17 2.78876 -0.811528)
(-2.12312e-30 -1.45089 1.62325)
(-2.32895e-30 -0.383707 -0.151156)
(1.75619e-28 -1.04477 0.838824)
(1.56596e-27 -0.836457 0.468788)
(-3.22492e-27 -0.960183 0.698542)
(-1.13992e-25 -0.947245 0.659834)
(-4.38544e-25 -0.992738 0.752726)
(2.7838e-24 -1.02401 0.806044)
(2.84299e-23 -1.07147 0.885653)
(4.07637e-23 -1.1295 0.967349)
(-4.89753e-22 -1.2043 1.05771)
(-2.56194e-21 -1.30094 1.15164)
(-2.5441e-21 -1.42656 1.23617)
(1.62754e-20 -1.58693 1.27356)
(7.22003e-20 -1.78495 1.15608)
(1.53744e-19 -1.87044 0.573882)
(9.37106e-20 -0.42579 -0.583713)
(-4.61975e-18 1.92447 -1.36716)
(3.4044e-17 2.6929 -0.904277)
(-6.057e-31 -0.802677 1.41864)
(2.7028e-30 -0.228227 0.0444747)
(6.87247e-29 -0.743424 0.785395)
(4.00794e-28 -0.528447 0.479745)
(-2.39201e-27 -0.64947 0.67808)
(-3.65821e-26 -0.615321 0.64805)
(-7.18954e-26 -0.650683 0.733619)
(1.14254e-24 -0.666044 0.784864)
(7.50784e-24 -0.697639 0.858963)
(6.15829e-26 -0.736637 0.934532)
(-1.63679e-22 -0.789285 1.0168)
(-6.05182e-22 -0.860175 1.10057)
(3.2822e-23 -0.956867 1.17302)
(6.58768e-21 -1.08569 1.19876)
(2.6708e-20 -1.24845 1.09063)
(5.34356e-20 -1.33171 0.601165)
(-1.12411e-19 -0.0214661 -0.530387)
(-1.13512e-18 1.91563 -1.40259)
(1.23052e-17 2.52042 -0.802365)
(-1.29257e-31 -2.7653 1.57236)
(2.33262e-30 -0.449715 -0.144759)
(2.39017e-29 -1.63023 0.818915)
(6.92734e-29 -1.25022 0.517389)
(-1.20445e-27 -1.44784 0.707642)
(-1.07006e-26 -1.44366 0.685272)
(2.53672e-27 -1.51935 0.76772)
(4.47469e-25 -1.57522 0.821636)
(2.01367e-24 -1.65145 0.896224)
(-4.32769e-24 -1.74175 0.973116)
(-7.21871e-23 -1.85259 1.05587)
(-2.15013e-22 -1.98557 1.13851)
(5.50064e-22 -2.13581 1.2061)
(6.31352e-21 -2.27857 1.21993)
(1.87482e-20 -2.34132 1.09344)
(-1.30728e-20 -2.07375 0.613289)
(-3.34023e-19 -0.156397 -0.58213)
(1.91056e-18 1.77637 -1.60105)
(-2.0249e-18 2.1943 -0.607681)
(8.06359e-32 1.53125 0.317808)
(3.85213e-30 0.183599 0.781526)
(1.67453e-29 0.531762 0.44112)
(-4.2425e-29 0.511037 0.309765)
(-1.69771e-27 0.49636 0.396501)
(-8.30645e-27 0.567908 0.377311)
(5.32314e-26 0.582717 0.42891)
(7.13919e-25 0.62363 0.458431)
(1.35986e-24 0.654843 0.501035)
(-1.98997e-23 0.69152 0.542608)
(-1.361e-22 0.727166 0.58666)
(-6.88864e-23 0.755664 0.631316)
(2.8186e-21 0.759159 0.673432)
(1.25553e-20 0.706213 0.703849)
(1.51117e-21 0.529445 0.706733)
(-1.58205e-19 0.126506 0.545196)
(-4.12025e-19 0.775716 -0.61269)
(1.51602e-18 2.24137 -1.47676)
(-9.40489e-19 2.6409 -0.183287)
(-1.15089e-30 -7.96995 5.46179)
(-4.27303e-29 -0.872101 -0.38853)
(-1.92326e-28 -4.29667 2.38744)
(4.11753e-28 -3.1485 1.82671)
(1.77327e-26 -3.71242 2.14523)
(9.74573e-26 -3.71758 2.21308)
(-3.49312e-25 -3.92157 2.39668)
(-6.3789e-24 -4.07784 2.572)
(-2.08197e-23 -4.28046 2.77345)
(1.0123e-22 -4.5181 2.98784)
(1.03098e-21 -4.80039 3.20958)
(2.25508e-21 -5.12014 3.41793)
(-9.14723e-21 -5.43878 3.55995)
(-6.49829e-20 -5.64909 3.51983)
(-1.25505e-19 -5.45949 3.07102)
(5.52891e-20 -4.01954 1.77366)
(4.8021e-19 0.261156 -1.27168)
(1.50001e-20 2.37478 -0.546597)
(5.181e-19 2.86963 0.000945077)
(1.11504e-15 7.65836 14.7916)
(-6.93657e-15 11.0163 16.7069)
(-9.42238e-15 9.02014 15.6078)
(-8.67273e-15 9.39482 14.4085)
(-7.19918e-15 8.84782 14.5516)
(-1.75075e-14 9.09838 14.3743)
(-2.07379e-14 8.93238 14.4947)
(-1.966e-14 8.97334 14.5225)
(-1.4192e-14 8.9385 14.6237)
(-1.65351e-14 8.92103 14.7165)
(-1.42403e-14 8.97358 14.7943)
(-1.42341e-14 8.86058 14.8903)
(-1.4891e-14 9.0483 14.8788)
(-1.51113e-14 8.70701 15.0562)
(-1.29636e-14 9.21955 14.7483)
(-1.49657e-14 8.26803 15.2593)
(-1.69873e-14 9.64826 14.4819)
(-1.41582e-14 7.72993 15.7317)
(-1.6207e-14 10.2553 14.443)
(-2.68787e-14 9.41104 19.9263)
(-3.7458e-16 7.8546 15.8911)
(2.23821e-15 10.2042 15.2601)
(3.05316e-15 7.63154 15.1738)
(2.30125e-15 9.0953 14.3054)
(1.95596e-15 8.07852 14.9116)
(-4.40343e-15 8.73121 14.5212)
(-6.17215e-15 8.40246 14.7223)
(-6.06849e-15 8.56771 14.6031)
(-3.63688e-15 8.51265 14.6247)
(-5.11217e-15 8.53605 14.6135)
(-4.33092e-15 8.55416 14.6157)
(-4.40538e-15 8.51411 14.6546)
(-4.93864e-15 8.6289 14.5497)
(-4.82087e-15 8.3264 14.7445)
(-3.68706e-15 8.93131 14.4203)
(-4.59974e-15 7.92956 15.0116)
(-5.27404e-15 9.47225 14.1536)
(-4.56492e-15 7.44762 15.4893)
(-2.54136e-15 9.36426 12.7142)
(-7.18868e-15 8.88274 19.1193)
(-7.73311e-17 8.04039 16.6639)
(5.79403e-16 10.2166 15.0413)
(4.29693e-16 7.60938 15.2687)
(4.31954e-16 9.17967 14.2648)
(3.28459e-16 8.02727 14.9092)
(1.51465e-15 8.74341 14.4943)
(2.08317e-15 8.34136 14.7428)
(2.00588e-15 8.54349 14.6395)
(9.98928e-16 8.46936 14.7003)
(1.44838e-15 8.49441 14.6947)
(1.15544e-15 8.50141 14.6867)
(1.555e-15 8.44569 14.7148)
(1.34066e-15 8.60524 14.6644)
(1.0995e-15 8.29695 14.8636)
(1.18092e-15 8.9107 14.5189)
(1.59549e-15 7.87089 15.1288)
(1.77996e-15 9.48605 14.241)
(1.27188e-15 7.35191 15.6663)
(1.06135e-15 9.64865 13.2497)
(3.09327e-15 8.73721 18.8888)
(5.24947e-17 8.19638 17.2344)
(-7.03664e-16 10.1795 14.7499)
(-6.29488e-16 7.49907 15.2967)
(-5.40672e-16 9.2356 14.2275)
(-5.81044e-16 7.98897 14.9211)
(1.96411e-16 8.77135 14.475)
(9.32489e-16 8.34289 14.7317)
(8.13241e-16 8.55284 14.6059)
(1.87695e-16 8.469 14.6543)
(5.64611e-16 8.49443 14.6431)
(2.69571e-16 8.50725 14.6462)
(3.62796e-16 8.46659 14.6858)
(4.73461e-16 8.5973 14.6039)
(5.36597e-16 8.29746 14.7842)
(2.73627e-16 8.87988 14.4498)
(6.90424e-16 7.88091 15.0236)
(6.30413e-16 9.41642 14.1636)
(3.95816e-16 7.36084 15.4923)
(1.039e-16 9.58226 13.2396)
(2.04063e-15 8.65413 18.6445)
(-3.53285e-18 8.31197 17.6719)
(-6.6582e-17 10.1404 14.5251)
(7.87324e-18 7.45421 15.3651)
(-6.76288e-18 9.29734 14.2549)
(-2.68481e-17 7.97397 14.9754)
(-3.25581e-16 8.79596 14.5022)
(-4.02406e-16 8.3391 14.7679)
(-4.09819e-16 8.56146 14.6371)
(-1.53577e-16 8.47263 14.6891)
(-2.47252e-16 8.49918 14.6737)
(-1.78454e-16 8.5057 14.6686)
(-2.99776e-16 8.45848 14.6934)
(-2.63761e-16 8.58715 14.6216)
(-1.83666e-16 8.29865 14.7935)
(-1.79732e-16 8.86087 14.4678)
(-3.28254e-16 7.89584 15.0198)
(-3.33331e-16 9.38261 14.1921)
(-2.58487e-16 7.40592 15.4775)
(-1.71093e-16 9.50515 13.2301)
(-6.24425e-16 8.55983 18.3418)
(-3.22529e-18 8.40999 17.9963)
(1.42962e-16 10.1586 14.4534)
(8.39581e-17 7.43636 15.3731)
(7.88449e-17 9.31693 14.2479)
(1.00972e-16 7.97444 14.9766)
(-1.73482e-16 8.80323 14.5016)
(-2.47621e-16 8.34244 14.7648)
(-2.36652e-16 8.56203 14.6325)
(-1.68399e-16 8.47106 14.6805)
(-2.60169e-16 8.49475 14.6635)
(-1.69557e-16 8.49912 14.6583)
(-1.8294e-16 8.45471 14.6829)
(-2.03324e-16 8.57528 14.6099)
(-2.26236e-16 8.29515 14.7741)
(-1.74086e-16 8.8381 14.4564)
(-2.11403e-16 7.89835 14.9924)
(-2.20201e-16 9.34717 14.1839)
(-1.80507e-16 7.41258 15.4363)
(-2.01393e-16 9.47202 13.2556)
(-5.11025e-16 8.49849 18.1469)
(1.24174e-18 8.50841 18.266)
(-5.41096e-17 10.2345 14.5233)
(-3.40533e-17 7.45689 15.3883)
(-3.10276e-17 9.33049 14.2655)
(-3.98137e-17 8.00927 14.9791)
(1.51289e-16 8.81147 14.5162)
(1.86711e-16 8.36923 14.7627)
(1.81766e-16 8.57315 14.6367)
(1.19709e-16 8.48823 14.6771)
(1.76273e-16 8.50671 14.6595)
(1.21527e-16 8.50922 14.6513)
(1.45123e-16 8.46513 14.6713)
(1.44392e-16 8.57608 14.6011)
(1.47013e-16 8.31075 14.754)
(1.24851e-16 8.82029 14.4521)
(1.62341e-16 7.93266 14.9577)
(1.68669e-16 9.29714 14.1918)
(1.34344e-16 7.47581 15.3794)
(1.45751e-16 9.39113 13.2862)
(3.5079e-16 8.45433 17.8508)
(-2.50994e-19 8.62017 18.5114)
(1.19395e-17 10.3889 14.7581)
(7.68161e-18 7.51057 15.4115)
(6.8873e-18 9.33731 14.2916)
(9.07475e-18 8.06706 14.9794)
(-5.06434e-17 8.82152 14.5365)
(-5.9493e-17 8.41104 14.7584)
(-5.82106e-17 8.59092 14.6406)
(-3.84065e-17 8.51454 14.6698)
(-5.49791e-17 8.52547 14.6509)
(-3.88751e-17 8.52524 14.6388)
(-4.75406e-17 8.48146 14.6535)
(-4.51562e-17 8.57979 14.5855)
(-4.49696e-17 8.33161 14.7245)
(-3.99e-17 8.79935 14.4416)
(-5.2594e-17 7.97423 14.911)
(-5.45972e-17 9.2365 14.1961)
(-4.2958e-17 7.54811 15.309)
(-4.73918e-17 9.29834 13.324)
(-1.0828e-16 8.4116 17.5225)
(3.51327e-20 8.7528 18.7746)
(-1.83298e-18 10.6229 15.128)
(-1.193e-18 7.58036 15.4712)
(-1.055e-18 9.35403 14.3281)
(-1.44655e-18 8.13817 14.9925)
(1.04746e-17 8.84148 14.564)
(1.20868e-17 8.46546 14.757)
(1.18657e-17 8.61847 14.6437)
(7.90856e-18 8.55061 14.6581)
(1.10829e-17 8.55287 14.6345)
(7.98682e-18 8.54838 14.6156)
(9.86496e-18 8.50441 14.6216)
(9.08785e-18 8.58609 14.5546)
(8.95546e-18 8.35958 14.6739)
(8.17457e-18 8.77116 14.4147)
(1.08637e-17 8.02994 14.8344)
(1.12837e-17 9.15075 14.1869)
(8.81859e-18 7.64698 15.198)
(9.88356e-18 9.16322 13.3595)
(2.1656e-17 8.36548 17.0765)
(-3.72982e-21 8.91894 19.1236)
(2.11195e-19 10.8929 15.5116)
(1.37786e-19 7.62879 15.6066)
(1.20353e-19 9.41741 14.4006)
(1.7311e-19 8.20613 15.0632)
(-1.52354e-18 8.89002 14.6205)
(-1.75508e-18 8.52849 14.7881)
(-1.72832e-18 8.66226 14.6646)
(-1.1654e-18 8.59643 14.66)
(-1.60285e-18 8.59016 14.624)
(-1.17556e-18 8.57846 14.5931)
(-1.45805e-18 8.53371 14.5845)
(-1.31423e-18 8.59386 14.5151)
(-1.28599e-18 8.39384 14.6066)
(-1.1986e-18 8.73352 14.374)
(-1.60613e-18 8.09909 14.7275)
(-1.67241e-18 9.03514 14.1626)
(-1.30427e-18 7.77161 15.0386)
(-1.47782e-18 8.98166 13.3959)
(-3.13516e-18 8.29464 16.4571)
(3.10064e-22 9.121 19.5931)
(-1.91877e-20 11.0273 15.6282)
(-1.23476e-20 7.61718 15.833)
(-1.06817e-20 9.5535 14.5493)
(-1.60779e-20 8.24466 15.2355)
(1.66576e-19 8.9734 14.7328)
(1.92382e-19 8.58017 14.8837)
(1.89916e-19 8.71181 14.7238)
(1.29472e-19 8.63374 14.6945)
(1.75024e-19 8.61966 14.6339)
(1.30446e-19 8.59669 14.584)
(1.62011e-19 8.55164 14.5529)
(1.43658e-19 8.58542 14.4771)
(1.39731e-19 8.42005 14.5312)
(1.32328e-19 8.67217 14.3277)
(1.78994e-19 8.17124 14.5949)
(1.8718e-19 8.87685 14.1249)
(1.46366e-19 7.91594 14.8285)
(1.66561e-19 8.75652 13.4514)
(3.46304e-19 8.15541 15.5702)
(-1.99422e-23 9.31596 19.9794)
(1.42534e-21 10.7785 15.2953)
(8.87236e-22 7.62428 16.1073)
(7.64223e-22 9.70565 14.8138)
(1.18306e-21 8.25315 15.4996)
(-1.44565e-20 9.06094 14.9204)
(-1.6603e-20 8.58792 15.0552)
(-1.63943e-20 8.73156 14.8355)
(-1.12578e-20 8.62203 14.7774)
(-1.50269e-20 8.60032 14.6815)
(-1.13117e-20 8.56241 14.6093)
(-1.40817e-20 8.52107 14.5515)
(-1.22875e-20 8.52558 14.4715)
(-1.18828e-20 8.41167 14.4811)
(-1.13792e-20 8.5617 14.316)
(-1.55514e-20 8.22868 14.4732)
(-1.63083e-20 8.66472 14.1159)
(-1.28097e-20 8.08142 14.624)
(-1.45103e-20 8.53817 13.6159)
(-3.00385e-20 7.88701 14.3459)
(2.24577e-25 9.33245 19.562)
(-8.29533e-23 10.1848 15.034)
(-5.06594e-23 7.84808 16.2362)
(-4.5067e-23 9.64728 15.1467)
(-6.53801e-23 8.28691 15.6917)
(1.04153e-21 9.03865 15.1295)
(1.1803e-21 8.52304 15.2164)
(1.16521e-21 8.65738 14.9562)
(7.99901e-22 8.51482 14.8732)
(1.06735e-21 8.48559 14.7518)
(8.00085e-22 8.4373 14.6697)
(1.00563e-21 8.40888 14.5978)
(8.56479e-22 8.38992 14.5326)
(8.23714e-22 8.35111 14.5039)
(7.92779e-22 8.39067 14.4026)
(1.09438e-21 8.26648 14.4314)
(1.13914e-21 8.42409 14.248)
(8.91113e-22 8.32605 14.5973)
(9.9334e-22 8.44651 14.0803)
(2.0776e-21 7.44287 12.804)
(7.43198e-26 8.99926 17.9611)
(3.75569e-24 9.67073 15.4062)
(2.3301e-24 8.21738 16.0761)
(2.21522e-24 9.27749 15.3822)
(1.58638e-24 8.36947 15.6283)
(-5.83609e-23 8.80089 15.2397)
(-6.51805e-23 8.41143 15.2217)
(-6.364e-23 8.4632 15.003)
(-4.46084e-23 8.33677 14.9071)
(-5.8947e-23 8.30041 14.8027)
(-4.46326e-23 8.26379 14.7394)
(-5.65738e-23 8.25604 14.6881)
(-4.73156e-23 8.23955 14.6642)
(-4.57084e-23 8.27476 14.6309)
(-4.488e-23 8.23621 14.6155)
(-6.30341e-23 8.31848 14.5543)
(-6.51479e-23 8.30307 14.6698)
(-5.01575e-23 8.76206 15.0255)
(-5.45786e-23 8.63249 15.0113)
(-1.15204e-22 6.81351 11.1252)
(-6.60833e-27 8.40744 15.7961)
(-1.35481e-25 9.40075 16.0359)
(-8.64096e-26 8.47633 15.6841)
(-8.60946e-26 8.8093 15.3652)
(4.14877e-26 8.39818 15.3565)
(2.58954e-24 8.49149 15.1652)
(2.8462e-24 8.29496 15.0773)
(2.7329e-24 8.26225 14.9519)
(1.95871e-24 8.19369 14.8746)
(2.54266e-24 8.16342 14.8258)
(1.95271e-24 8.15877 14.8065)
(2.47134e-24 8.17267 14.8061)
(2.03174e-24 8.18967 14.8318)
(1.97015e-24 8.25598 14.8413)
(1.9845e-24 8.22967 14.8908)
(2.80067e-24 8.4178 14.876)
(2.88029e-24 8.48819 15.3437)
(2.25337e-24 9.32037 15.963)
(2.49233e-24 9.0828 16.1879)
(5.09815e-24 6.05651 9.73028)
(2.92195e-28 7.82311 13.92)
(4.00323e-27 9.28374 16.3159)
(2.57825e-27 8.56945 15.2802)
(2.55804e-27 8.51968 15.1542)
(-4.82303e-27 8.40827 15.0534)
(-9.29496e-26 8.34073 14.9747)
(-1.00175e-25 8.28058 14.8948)
(-9.47051e-26 8.2286 14.8494)
(-6.89384e-26 8.21402 14.8169)
(-8.7927e-26 8.20523 14.8233)
(-6.83472e-26 8.22683 14.849)
(-8.59565e-26 8.25637 14.8967)
(-6.95589e-26 8.30169 14.9635)
(-6.75869e-26 8.36409 15.0328)
(-6.97237e-26 8.39709 15.1255)
(-9.84719e-26 8.5819 15.2575)
(-1.01959e-25 8.8588 15.9203)
(-8.08576e-26 9.65503 16.8714)
(-9.38652e-26 9.49013 16.991)
(-1.71946e-25 5.54181 9.42738)
(-7.61575e-30 7.60162 13.1375)
(-9.84613e-29 9.22909 16.0647)
(-6.24246e-29 8.62158 15.0854)
(-5.99762e-29 8.55598 14.9769)
(1.86949e-28 8.51683 14.9233)
(2.77977e-27 8.46866 14.8672)
(2.96015e-27 8.45581 14.8292)
(2.7857e-27 8.4347 14.813)
(2.0374e-27 8.44279 14.8091)
(2.58541e-27 8.45108 14.8286)
(2.01638e-27 8.4748 14.8616)
(2.54007e-27 8.50072 14.9139)
(2.02388e-27 8.54404 14.9809)
(1.9669e-27 8.5793 15.0724)
(2.0555e-27 8.64613 15.1714)
(2.91291e-27 8.73977 15.3695)
(3.02378e-27 9.03674 15.8682)
(2.39331e-27 9.4636 16.799)
(2.80122e-27 9.6326 17.1673)
(4.04109e-27 6.03896 10.9784)
(1.38845e-31 7.87757 13.5672)
(1.87577e-30 9.1993 15.7143)
(1.19202e-30 8.67871 15.0792)
(1.09769e-30 8.72383 14.9687)
(-4.58737e-30 8.66477 14.9815)
(-6.68899e-29 8.68218 14.9326)
(-7.0779e-29 8.66725 14.9212)
(-6.64138e-29 8.67437 14.9017)
(-4.83743e-29 8.67877 14.8953)
(-6.09936e-29 8.68854 14.8936)
(-4.7568e-29 8.70018 14.8994)
(-6.0112e-29 8.71125 14.9176)
(-4.75967e-29 8.73565 14.9428)
(-4.64174e-29 8.74017 14.9971)
(-4.90517e-29 8.79263 15.0441)
(-7.07947e-29 8.78837 15.1638)
(-7.5143e-29 8.90296 15.2829)
(-5.9356e-29 8.91496 15.6545)
(-6.72688e-29 9.39337 16.548)
(-7.44621e-29 7.45766 13.5145)
(-1.89676e-33 8.35859 14.3797)
(-2.68194e-32 9.00625 15.4008)
(-1.70759e-32 8.69094 15.0519)
(-1.47044e-32 8.73945 15.0162)
(8.7938e-32 8.70846 15.032)
(1.25632e-30 8.7263 15.0201)
(1.32637e-30 8.71876 15.0184)
(1.24559e-30 8.7252 15.0093)
(9.04832e-31 8.72576 15.0029)
(1.13903e-30 8.7294 14.995)
(8.85074e-31 8.73259 14.9879)
(1.12306e-30 8.73517 14.9838)
(8.80183e-31 8.74182 14.9798)
(8.58028e-31 8.73918 14.9862)
(9.08489e-31 8.75065 14.9852)
(1.32139e-30 8.73636 15.0022)
(1.40307e-30 8.72232 14.9674)
(1.13013e-30 8.62536 14.8846)
(1.2951e-30 8.77527 15.2629)
(1.12898e-30 8.49732 14.913)
(1.85337e-35 8.64394 14.8654)
(2.71241e-34 8.74235 15.0712)
(1.71234e-34 8.68734 15.0014)
(1.30824e-34 8.68817 15.0118)
(-1.27321e-33 8.69036 15.0111)
(-1.77558e-32 8.68744 15.0172)
(-1.87425e-32 8.68788 15.0192)
(-1.76978e-32 8.68614 15.0223)
(-1.28451e-32 8.68504 15.0236)
(-1.62948e-32 8.68341 15.0245)
(-1.25788e-32 8.68177 15.0244)
(-1.6128e-32 8.68003 15.0233)
(-1.24555e-32 8.6773 15.0213)
(-1.21414e-32 8.67564 15.0177)
(-1.28131e-32 8.66922 15.014)
(-1.86101e-32 8.66852 15.0052)
(-1.95665e-32 8.6538 14.999)
(-1.57909e-32 8.66122 14.9786)
(-1.82218e-32 8.57845 14.8748)
(-1.27068e-32 8.66392 14.9521)
(6.8597e-15 -0.140934 -0.00727907)
(1.30348e-15 0.222842 -0.166285)
(-1.50678e-16 -0.419045 0.188739)
(-5.54332e-17 -0.225994 -0.100942)
(-4.21437e-17 -0.374068 0.165977)
(8.8365e-16 -0.588504 0.430068)
(3.20126e-15 -0.558998 0.194184)
(9.57337e-15 -0.589298 0.530063)
(2.25136e-14 -0.639393 0.967991)
(5.85138e-14 -0.891891 0.99375)
(4.74963e-14 -0.902944 0.543915)
(3.48707e-14 -0.901042 0.757052)
(1.22896e-14 -1.21811 0.593144)
(-1.16284e-15 -1.185 0.377924)
(-4.34432e-15 -1.20881 0.853326)
(-7.62925e-15 -1.26436 1.0646)
(-9.62238e-15 -1.55207 2.71886)
(-1.32247e-15 -1.44018 4.2591)
(5.87243e-15 -1.95228 7.24068)
(1.88204e-14 -3.33219 15.31)
(2.12634e-14 -2.94533 16.9007)
(1.45193e-14 -3.29033 15.1516)
(1.44889e-14 -2.80556 15.4083)
(1.44705e-14 -3.38943 15.1185)
(1.45617e-14 -2.89593 15.2506)
(1.48508e-14 -3.27694 14.8287)
(1.47669e-14 -2.88979 14.781)
(1.38836e-14 -3.22018 14.7347)
(1.33881e-14 -1.71382 14.8414)
(1.55361e-14 -3.16324 15.1246)
(1.69151e-14 -2.96757 15.9551)
(1.9749e-14 -3.01989 16.5142)
(2.16784e-14 -3.01273 16.8717)
(2.46895e-14 -3.06048 16.7729)
(2.29378e-14 -3.1155 16.2998)
(1.65237e-14 -3.0352 15.5059)
(1.75716e-14 -3.02326 13.9444)
(1.50691e-14 -2.75833 11.5395)
(9.32766e-16 0.16484 0.655776)
(-7.21555e-16 -2.2447 1.47714)
(3.5953e-16 0.466187 -3.31807)
(-2.90573e-16 -3.55678 1.56592)
(-1.02089e-15 -1.43852 -0.759907)
(-2.28771e-15 -1.72723 -0.0698615)
(-6.61327e-15 -2.0508 0.0405781)
(-8.13886e-15 -1.51401 0.142779)
(-1.28962e-14 -1.8901 0.32579)
(-6.96115e-15 -1.72826 -0.0561893)
(-6.26906e-16 -1.40789 -0.0485773)
(2.41302e-15 -1.84885 0.0812254)
(1.05031e-15 -1.24449 0.0391508)
(-4.82415e-16 -1.56101 0.0629703)
(5.65488e-17 -1.27065 -0.318025)
(5.38644e-16 -0.958257 -0.308376)
(7.6269e-16 -1.01791 -0.720723)
(6.53763e-16 -0.664148 -1.28564)
(8.41942e-17 -0.274653 -1.1445)
(-1.34654e-15 -0.302535 -1.34219)
(-2.80424e-15 0.0409516 0.14907)
(-9.74468e-15 0.814234 2.55496)
(2.96828e-27 0.0388508 -0.164246)
(-1.31369e-25 -0.0338131 0.195911)
(-1.02155e-24 -0.0251149 0.531916)
(-3.18572e-24 -0.0238171 0.760352)
(-3.29007e-25 -0.0192719 0.982558)
(4.88186e-23 -0.0222092 1.1746)
(2.63646e-22 -0.0251979 1.37778)
(7.47825e-22 -0.0270604 1.5637)
(1.01319e-21 -0.0182322 1.70628)
(-8.03487e-22 0.00653654 1.71992)
(-6.17394e-21 0.0362168 1.54031)
(-9.59087e-21 0.0594788 1.20012)
(-6.03456e-22 0.0809125 0.654816)
(-4.15386e-20 0.109616 -0.165508)
(-9.35999e-19 0.12921 -1.14415)
(4.67988e-18 0.164791 -2.68244)
(-6.60053e-18 0.067241 -4.07725)
(-2.66229e-17 -0.192091 -4.12838)
(-4.43009e-16 -0.351061 -1.4769)
(-2.54874e-26 -0.0456779 0.222651)
(-9.42416e-26 -0.119396 0.66599)
(-7.97212e-26 -0.0791527 0.97593)
(1.32872e-24 -0.0715969 1.18802)
(8.08831e-24 -0.0594078 1.40068)
(2.12042e-23 -0.0585902 1.57713)
(1.46872e-24 -0.050901 1.72496)
(-2.1088e-22 -0.0363833 1.78922)
(-8.40996e-22 -0.00824526 1.74399)
(-1.7008e-21 0.0294315 1.62438)
(-2.46627e-21 0.0678904 1.51682)