/*--------------------------------*- C++ -*----------------------------------*\
| =========                 |                                                 |
| \\      /  F ield         | OpenFOAM: The Open Source CFD Toolbox           |
|  \\    /   O peration     | Version:  4.1                                   |
|   \\  /    A nd           | Web:      www.OpenFOAM.org                      |
|    \\/     M anipulation  |                                                 |
\*---------------------------------------------------------------------------*/
FoamFile
{
    version     2.0;
    format      ascii;
    class       volScalarField;
    location    "3";
    object      p;
}
// * * * * * * * * * * * * * * * * * * * * * * * * * * * * * * * * * * * * * //

dimensions      [0 2 -2 0 0 0 0];

internalField   nonuniform List<scalar> 
1280
(
-10.6906
-0.413279
-1.91052
-4.16092
-2.26557
-2.39888
-3.30077
-3.23021
-2.50928
-2.46818
-3.5175
-2.85566
-2.80207
-4.10004
-3.45409
-3.76865
-5.08443
-5.51652
-4.51297
-9.66639
-4.14095
3.51299
7.23198
7.09861
8.64765
11.7317
-3.69408
-0.177614
-1.66207
-1.21742
-0.913741
-1.16671
-0.926534
-0.901908
-0.56588
-0.328058
-0.0245991
0.632067
0.552437
0.645194
-23.9252
-18.7379
-14.0344
-11.074
-6.52427
-6.28572
-6.05117
-5.76581
-5.01345
-4.97484
-4.95638
-4.90197
-5.75615
-6.0864
-6.35243
-6.62018
-11.1473
-13.8881
-18.827
-27.7123
2.45986
3.71542
2.7962
2.51283
2.08163
1.82561
1.58993
1.52296
1.45538
1.6195
1.58185
1.33375
2.11149
-6.5816
16.7592
15.5526
15.658
13.512
4.72538
-4.35104
-9.03417
-4.43672
-5.33021
-4.95977
-3.68083
-3.4107
-4.05112
-2.78016
-2.85428
-3.5133
-2.47646
-2.52972
-3.24979
-3.32212
-2.4264
-2.30206
-4.18731
-1.93889
-0.459217
-10.7335
189.502
-17.5626
37.7301
12.5463
21.6151
16.9401
17.5858
16.4119
16.9261
12.3116
0.732077
-7.80951
-26.9658
-31.8815
-18.4541
-8.36442
-3.78203
-3.26421
-5.32422
-39.6064
-8.97052
-7.71751
-8.82293
-6.83495
-7.39561
-6.78316
-6.89875
-6.81491
-5.19288
-2.83432
-8.3991
-21.6721
-17.2121
-7.32996
-2.69203
-0.821744
-1.37117
-2.72299
41.15
-8.88763
11.318
1.1711
6.15703
4.01659
5.44915
6.14553
6.42415
3.61891
-1.74007
-11.91
-19.4185
-9.13443
0.251411
0.12366
0.541205
-0.177597
-0.619796
9.44491
-8.73678
2.46949
-3.24484
0.0132653
-1.73437
-1.68887
-2.38938
-2.94302
-3.85874
-5.3487
-15.4562
-21.3139
-17.691
-2.14548
-0.788397
0.608193
-0.371137
-0.896846
23.5065
-7.62133
6.45556
-0.438015
3.16754
2.24293
3.08527
2.18754
1.18181
-1.0074
-4.26156
-15.4062
-22.2315
-21.3522
-0.322622
0.71329
0.869996
-0.779564
-1.3545
19.3686
-7.67057
4.61745
-1.49966
0.752647
-1.13157
-0.727972
-1.11445
-1.02533
-1.64812
-3.59041
-14.1176
-24.136
-22.7163
3.09546
4.84578
0.942657
-0.0926628
-0.30316
22.2596
-7.15042
5.38822
-0.306917
2.48492
0.932709
1.01791
0.735443
0.846657
0.295617
-1.51029
-11.2088
-24.528
-20.2316
7.11654
11.5992
0.539155
-4.16508
-2.68734
22.0339
-7.20608
4.80049
-0.767372
1.43104
0.0904395
0.319457
0.318023
0.942867
0.793627
-0.537329
-8.53669
-23.2555
-18.205
7.87125
16.6838
4.98083
0.101847
-2.01577
22.6972
-7.14195
5.02665
-0.239746
1.74334
0.428459
0.793498
1.07548
1.58032
1.18879
-0.182891
-6.14114
-17.3162
-12.9934
9.24962
15.5271
9.72881
19.2096
11.7966
22.8914
-7.34916
4.85565
-0.254343
1.65278
0.438383
0.898084
1.27691
1.70768
1.18289
-0.207515
-5.50751
-15.0618
-10.6702
8.92557
14.7835
12.9718
27.0435
10.5277
22.8939
-7.3533
4.86786
-0.256044
1.66029
0.433341
0.881855
1.25912
1.6886
1.16412
-0.203537
-5.46388
-15.0165
-10.6605
8.92358
14.7435
12.9595
27.0872
10.7037
22.6973
-7.14958
5.03401
-0.250726
1.75235
0.439085
0.803237
1.06527
1.54021
1.13506
-0.199921
-6.05911
-17.1868
-12.8979
9.30974
15.6458
10.209
19.8138
11.58
22.0384
-7.20868
4.80853
-0.77168
1.43988
0.0928774
0.329978
0.305447
0.891745
0.717324
-0.563257
-8.39119
-23.0936
-18.057
8.07988
17.0838
5.40932
0.277781
-2.56587
22.2643
-7.14983
5.39261
-0.304747
2.4989
0.947686
1.03673
0.739963
0.820944
0.248574
-1.50444
-11.0478
-24.4571
-20.0611
7.35995
12.0895
0.681963
-4.17637
-2.66122
19.3756
-7.66738
4.62227
-1.49819
0.75895
-1.12682
-0.718131
-1.10979
-1.04188
-1.67563
-3.56872
-13.9764
-24.0909
-22.581
3.35496
5.32835
1.09086
-0.135027
-0.247723
23.5143
-7.61813
6.46084
-0.433699
3.18068
2.25273
3.09969
2.20347
1.19033
-1.00358
-4.23029
-15.3197
-22.1748
-21.2664
-0.11285
0.996163
1.011
-0.749192
-1.27535
9.45424
-8.73487
2.47413
-3.24326
0.0186446
-1.72895
-1.6781
-2.38216
-2.93979
-3.85296
-5.32838
-15.4372
-21.2632
-17.6079
-1.98987
-0.624776
0.708003
-0.329092
-0.823684
41.1633
-8.88268
11.3292
1.18124
6.17817
4.04417
5.48652
6.18416
6.46869
3.66813
-1.71506
-11.9222
-19.3773
-9.05621
0.353603
0.22767
0.632075
-0.130694
-0.550613
-39.6005
-8.97561
-7.71916
-8.83528
-6.85103
-7.42216
-6.81936
-6.94086
-6.85426
-5.22005
-2.85623
-8.42443
-21.6669
-17.1375
-7.19129
-2.5332
-0.655976
-1.26285
-2.58241
189.555
-17.5528
37.7687
12.5889
21.681
17.0232
17.6971
16.5361
17.0543
12.4152
0.750451
-7.84075
-26.997
-31.8154
-18.2991
-8.16547
-3.55287
-3.08963
-5.10763
89.1193
87.8887
87.6724
86.3756
85.9115
84.5072
83.9322
82.4429
81.2305
79.6176
78.44
76.9417
75.8273
74.4933
73.5923
72.5059
71.8969
71.1009
70.7792
70.2177
71.1704
71.2739
71.5781
71.5494
72.04
71.7585
72.1938
71.8272
72.0698
71.6993
71.7695
71.4025
71.3605
70.9937
70.8855
70.543
70.4071
70.1211
69.9968
69.7771
77.1417
76.7864
76.8732
76.5316
76.6668
76.2743
76.4149
76.0369
76.1275
75.7834
75.8124
75.5067
75.4851
75.2114
75.1552
74.9131
74.8307
74.625
74.5264
74.3281
74.5402
74.4929
74.6196
74.5174
74.6851
74.5329
74.7225
74.5507
74.7244
74.5682
74.7002
74.5734
74.661
74.5624
74.6132
74.5391
74.5613
74.5084
74.5045
74.4654
75.6253
75.5705
75.5952
75.4972
75.5607
75.4405
75.5171
75.3983
75.4681
75.3655
75.4175
75.3375
75.3684
75.3114
75.3235
75.286
75.2854
75.26
75.2586
75.2245
75.2042
75.2119
75.2259
75.1964
75.2345
75.1889
75.2345
75.1885
75.2292
75.1929
75.2219
75.2006
75.2152
75.2105
75.2119
75.2209
75.2167
75.2325
75.2426
75.2439
75.283
75.2894
75.2893
75.2757
75.2869
75.2662
75.2797
75.2601
75.2699
75.2569
75.2596
75.2573
75.2512
75.2611
75.2484
75.2673
75.2571
75.2784
75.2871
75.3002
75.1049
75.1153
75.1197
75.1157
75.1231
75.1157
75.121
75.1145
75.1158
75.1131
75.1096
75.1134
75.105
75.115
75.1032
75.1166
75.1072
75.1251
75.1278
75.1494
75.1361
75.1257
75.1303
75.1118
75.1117
75.0932
75.0871
75.0694
75.0581
75.0413
75.0251
75.0097
74.9901
74.9768
74.9563
74.9459
74.9251
74.9207
74.8964
74.8986
75.4115
75.3711
75.3686
75.3273
75.3139
75.2743
75.2517
75.2115
75.1817
75.1398
75.104
75.06
75.0195
74.9726
74.9285
74.8795
74.8303
74.7844
74.7135
74.6623
76.0594
75.995
75.9796
75.9205
75.8923
75.8359
75.7981
75.7409
75.6948
75.6346
75.5803
75.5152
75.4533
75.3811
75.3126
75.2308
75.1556
75.068
74.9565
74.8343
76.9304
76.8625
76.84
76.7792
76.7461
76.6894
76.6488
76.5928
76.5452
76.488
76.4332
76.3728
76.3109
76.2443
76.1767
76.0984
76.0296
75.9347
75.8464
75.6842
77.8128
77.754
77.7331
77.6813
77.6537
77.6082
77.5764
77.5348
77.4993
77.46
77.4207
77.3822
77.3392
77.2995
77.2539
77.2077
77.1665
77.0993
77.077
76.9459
78.556
78.5056
78.4891
78.4454
78.4243
78.3885
78.3653
78.3354
78.3112
78.2862
78.2617
78.2409
78.2162
78.1995
78.1749
78.1601
78.1405
78.1153
78.1229
78.074
79.1526
79.1049
79.0913
79.0517
79.0334
79.0014
78.9811
78.9552
78.9345
78.9135
78.8937
78.8773
78.8586
78.8477
78.8296
78.8253
78.8088
78.8075
78.8013
78.8141
79.6375
79.5912
79.5787
79.5424
79.5251
79.495
79.4752
79.4502
79.4295
79.4082
79.3881
79.3699
79.3505
79.3365
79.3167
79.3085
79.288
79.2856
79.2645
79.281
80.055
80.0125
79.9987
79.9641
79.9475
79.9182
79.8977
79.8732
79.8513
79.8293
79.8079
79.7877
79.7669
79.7496
79.7279
79.7157
79.6923
79.6827
79.6627
79.6553
80.4584
80.4283
80.4174
80.3839
80.3705
80.3445
80.3244
80.3015
80.2791
80.256
80.2325
80.2087
80.1838
80.1603
80.1327
80.113
80.0798
80.066
80.0394
80.0082
80.7318
80.7217
80.7369
80.716
80.716
80.7084
80.7035
80.6981
80.6923
80.6857
80.6779
80.6684
80.6563
80.6415
80.6212
80.6002
80.5618
80.5405
80.4688
80.4123
80.6972
80.6385
80.6766
80.6871
80.7046
80.7222
80.7409
80.7615
80.784
80.809
80.8367
80.8677
80.9023
80.941
80.9845
81.0335
81.0861
81.1547
81.196
81.3591
707.416
625.267
576.372
520.427
471.614
424.463
380.554
339.011
299.836
262.744
227.567
194.132
162.304
132.125
103.737
76.3049
49.6641
27.6574
2.89664
-33.885
29.02
6.45335
14.6374
3.58879
0.993982
-5.56762
-10.3583
-15.4923
-19.8832
-23.7743
-26.9054
-29.2223
-30.5924
-30.8081
-29.5443
-27.1244
-24.2352
-20.6196
-17.4506
-16.7811
4.5217
-3.70341
3.64443
-4.3992
-3.40394
-7.9065
-10.3429
-14.1326
-17.6843
-21.5705
-25.4805
-29.4419
-33.2261
-36.4832
-38.6801
-39.8305
-40.7652
-41.4036
-42.8465
-43.5972
-18.951
-24.8031
-23.2856
-30.8177
-31.5015
-37.063
-39.9101
-44.1693
-47.6274
-51.2766
-54.6087
-57.7569
-60.5142
-62.5937
-63.6685
-63.8302
-63.7412
-63.5138
-63.3476
-61.4987
-43.7525
-46.9729
-44.1734
-47.8699
-45.1781
-47.4266
-46.2199
-46.8496
-46.3932
-46.2538
-45.8658
-45.43
-44.9002
-44.1866
-43.2196
-41.6876
-39.8448
-37.0751
-35.0307
-31.9498
-22.6177
-23.1261
-19.6571
-21.039
-17.2635
-17.7056
-15.0342
-14.122
-12.2136
-10.6436
-8.88973
-7.11883
-5.32065
-3.482
-1.67651
0.14225
1.80218
3.47346
4.73463
6.57746
-1.02602
-0.945256
1.47019
0.485544
3.25179
2.7307
4.67851
5.08543
6.32915
7.19846
8.19645
9.1514
10.0824
11.0016
11.8501
12.6898
13.3664
14.1031
14.4586
15.0857
9.21365
9.31242
10.9489
10.1323
12.0518
11.503
12.847
12.9758
13.7714
14.2679
14.8723
15.453
16.0241
16.6071
17.1446
17.7235
18.1684
18.7752
19.011
19.7564
16.8379
17.2613
18.6704
18.1567
19.7288
19.47
20.5641
20.8275
21.5262
22.0629
22.6666
23.2814
23.901
24.5517
25.1754
25.8623
26.4296
27.192
27.5907
28.567
26.5847
27.4074
28.6971
28.528
29.9212
30.0377
31.0161
31.5292
32.258
32.9352
33.6376
34.3597
35.0842
35.8347
36.5596
37.3425
38.0141
38.863
39.3714
40.3611
38.1649
39.1434
40.163
40.2511
41.3756
41.693
42.5026
43.0878
43.7555
44.4172
45.0814
45.7584
46.4319
47.1221
47.7859
48.4968
49.1072
49.8702
50.3159
51.2095
49.3129
50.1403
50.8651
51.0041
51.8232
52.0943
52.6739
53.1263
53.6126
54.1027
54.589
55.0842
55.5752
56.0786
56.5608
57.08
57.5204
58.08
58.3923
59.036
57.9892
58.4227
59.0295
58.9798
59.634
59.6929
60.085
60.3252
60.6121
60.8961
61.1787
61.471
61.7608
62.0625
62.3509
62.6672
62.932
63.2771
63.464
63.8545
63.6403
63.683
64.2166
63.9064
64.5226
64.3137
64.62
64.6466
64.7945
64.9052
65.0299
65.1616
65.2934
65.4374
65.5741
65.7315
65.8605
66.035
66.128
66.3169
66.0415
65.9367
66.3058
65.9661
66.5318
66.1514
66.4813
66.3505
66.4695
66.4757
66.5331
66.58
66.6324
66.6935
66.7488
66.819
66.8722
66.9483
66.9887
67.0586
67.1319
66.9606
67.1684
66.9233
67.3364
66.929
67.2712
67.0473
67.1768
67.1165
67.1508
67.1475
67.1596
67.1721
67.1797
67.1981
67.2021
67.2211
67.2222
67.226
65.6917
65.6354
65.8953
65.7305
66.1067
65.8831
66.2631
66.1305
66.331
66.3222
66.4158
66.4499
66.5026
66.5416
66.5747
66.6114
66.6291
66.6642
66.6691
66.6976
68.8655
68.5774
68.7732
68.357
68.5991
68.3607
68.5217
68.3632
68.4061
68.3085
68.2798
68.1975
68.1366
68.0527
67.9756
67.8928
67.8061
67.7312
67.6488
67.5585
63.4929
63.8101
64.1193
63.9596
64.4185
64.5035
64.8316
64.9167
65.0569
65.0612
65.0792
65.0167
64.9637
64.8527
64.7593
64.6346
64.5319
64.4289
64.3523
64.2853
84.4115
83.6334
83.3024
82.1383
81.4411
80.4049
79.5125
78.3051
76.9583
75.6077
74.3459
73.056
71.8919
70.7489
69.8019
68.9083
68.2549
67.6483
67.3235
66.9008
)
;

boundaryField
{
    outletWall
    {
        type            fixedValue;
        value           uniform 0;
    }
    fineWalls
    {
        type            zeroGradient;
    }
    fineFrontAndBack
    {
        type            zeroGradient;
    }
    fineplugLeft
    {
        type            cyclicAMI;
        value           nonuniform List<scalar> 
20
(
56.3032
56.7339
57.0072
57.5126
57.9391
58.7606
59.4142
60.4766
61.32
62.5693
63.4506
64.652
65.9188
73.9684
69.9521
70.4587
70.5202
71.5843
71.0136
70.4673
)
;
    }
    fineplugRight
    {
        type            cyclicAMI;
        value           nonuniform List<scalar> 
20
(
54.0126
54.6019
54.6779
55.1065
55.543
56.2067
56.9171
57.8181
58.7359
59.8006
60.8025
61.8334
63.0663
69.7229
67.6758
68.2634
68.8422
69.3443
67.8518
66.659
)
;
    }
    inletOutletLeft
    {
        type            cyclicAMI;
        value           nonuniform List<scalar> 
20
(
56.3032
56.7339
57.0072
57.5126
57.9391
58.7606
59.4142
60.4766
61.32
62.5693
63.4506
64.652
65.9188
73.9684
69.9521
70.4587
70.5202
71.5843
71.0136
70.4673
)
;
    }
    inletLeft
    {
        type            zeroGradient;
    }
    inletWallsLeft
    {
        type            zeroGradient;
    }
    inletFacesLeft
    {
        type            zeroGradient;
    }
    inletOutletRight
    {
        type            cyclicAMI;
        value           nonuniform List<scalar> 
20
(
54.0126
54.6019
54.6779
55.1065
55.543
56.2067
56.9171
57.8181
58.7359
59.8006
60.8025
61.8334
63.0663
69.7229
67.6758
68.2634
68.8422
69.3443
67.8518
66.659
)
;
    }
    inletRight
    {
        type            zeroGradient;
    }
    inletWallsRight
    {
        type            zeroGradient;
    }
    inletFacesRight
    {
        type            zeroGradient;
    }
}


// ************************************************************************* //
