/*--------------------------------*- C++ -*----------------------------------*\
| =========                 |                                                 |
| \\      /  F ield         | OpenFOAM: The Open Source CFD Toolbox           |
|  \\    /   O peration     | Version:  4.1                                   |
|   \\  /    A nd           | Web:      www.OpenFOAM.org                      |
|    \\/     M anipulation  |                                                 |
\*---------------------------------------------------------------------------*/
FoamFile
{
    version     2.0;
    format      ascii;
    class       surfaceScalarField;
    location    "3";
    object      phi;
}
// * * * * * * * * * * * * * * * * * * * * * * * * * * * * * * * * * * * * * //

dimensions      [0 3 -1 0 0 0 0];

internalField   nonuniform List<scalar> 
2360
(
5287.19
5070.21
216.98
5070.21
5070.21
4994.94
75.2705
4994.94
4994.94
4994.94
5144.36
-149.425
5144.37
5144.36
5469.51
-325.14
5469.51
5469.51
5893.3
-423.79
5893.3
5893.29
7074.59
-1181.29
7074.58
7074.58
7949.57
9016.44
10007.3
10937.8
11876.6
12806
11493
2254.47
12439.1
13393.3
14350.3
15310.7
16280.5
17255.7
18248.1
19244.7
20260.8
21273.8
22313.1
23320
24320.1
7189.91
17130.2
7189.91
7189.91
7189.91
-1438.43
8628.34
-1438.43
-1438.43
-1438.43
131.13
-1569.56
131.133
131.131
1527.09
-1395.96
1527.09
1527.09
1527.09
-7005.62
8532.71
-7005.62
-7005.62
-7005.62
-23912.9
16907.3
-23029.6
-22042.9
-21053.9
-20079.2
-19109.5
-18153.6
-17208.4
-16277.5
-15356.1
-14444.1
-13537.9
-12640.4
-11753.6
-13326.8
2449.29
-12429.2
-11449.1
-10325.7
-9033.4
-7711.98
-6862.13
-6862.13
-6862.14
-5792.41
-1069.72
-5792.41
-5792.41
-5408.98
-383.428
-5408.98
-5408.98
-5110.27
-298.709
-5110.27
-5110.27
-4976.98
-133.287
-4976.98
-4976.98
-4976.98
-5069.66
92.6805
-5069.66
-5069.66
-5299.99
230.335
-19159.7
-9981.29
-10368.3
-5190.37
-14480.4
-3669.24
-12878.3
-4269.01
-13672.5
-3747.61
-13335.7
-3867.04
-13218.6
-3788.39
-12317.4
-4367.95
-10229.4
-5761.79
-6144.03
-7058.54
-748.79
-5336.61
2424.33
2515.93
875.704
10581.7
-791.092
11437.3
-1212.1
7703.83
-893.367
4507.69
-217.539
2689.23
60.895
3048.44
4429.74
106.125
-7663.98
-1150.67
-3933.58
-584.841
-4235.07
-939.669
-3914.18
-1479.15
-3208.13
-2416.25
-2929.94
-3818.92
-2385.71
-5690.09
-2496.78
-7615.11
-3836.78
-8086.91
-6586.74
-4869.51
-8554.02
1026.97
-3380.55
2466.21
9142.5
-249.247
14152.8
-2182.41
9637
-1834.4
4159.68
-407.898
1262.73
-112.969
2753.51
4409.45
-1780.83
-8369.22
-2538.22
-3176.19
-3661.01
-3112.29
-4422.25
-3152.93
-5418.62
-2211.77
-6703.61
-1644.94
-7973.58
-1115.74
-8772.68
-1697.68
-8987.88
-3621.58
-8535.96
-7038.65
-6599.89
-10490.1
-1603.54
-8376.9
1786.16
5752.8
730.768
15208.2
-1616.27
11984
-1804.86
4348.26
-417.516
-124.61
-215.422
2551.41
4060.74
-2259.77
-6738.99
-2912.89
-2523.07
-3350.02
-2675.16
-4201.52
-2301.44
-5212.77
-1200.52
-6426.53
-431.173
-7574.07
31.791
-8194.27
-1077.48
-8076.1
-3739.76
-7440.5
-7674.24
-6337.09
-11593.5
-3517.32
-11196.7
78.6717
2156.82
908.969
14377.9
-1012.38
13905.4
-1743.67
5079.55
-454.094
-1414.19
-155.926
2253.24
3606.1
-2379.36
-6051.27
-3095.39
-1807.04
-4020.09
-1750.46
-5145.46
-1176.06
-6387.11
41.1297
-7292.17
473.884
-7449.63
189.25
-6759.14
-1767.96
-5646.41
-4852.5
-5018.55
-8302.1
-5254.48
-11357.6
-5077.72
-11373.4
-2226.16
-694.742
-46.5943
12198.3
-593.334
14452.1
-672.58
5158.8
352.097
-2438.86
32.1273
2573.21
3254.8
-2823.4
-4766.58
-3552.79
-1077.65
-4252.22
-1051.04
-5104.68
-323.594
-5966.72
903.172
-6499.57
1006.73
-6033.12
-277.205
-4918.49
-2882.58
-4213.33
-5557.67
-4725.37
-7790.06
-6319.35
-9763.6
-7532.65
-10160.1
-5348.96
-2878.43
-2117.21
8966.54
-831.554
13166.5
593.392
3733.85
948.869
-2794.34
57.6697
3464.41
2242.74
-3241.7
-3505.94
-3975.98
-343.372
-4750.17
-276.839
-5383.59
309.823
-5599.49
1119.07
-5267.23
674.471
-4396.84
-1147.59
-3819.58
-3459.85
-4400.35
-4976.89
-6287.15
-5903.27
-8921.35
-7129.4
-10812.3
-8269.21
-9084.86
-4605.84
-4937.27
4818.95
-1489.6
9718.81
278.075
1966.18
1092.08
-3608.35
3139.27
1417.22
7831.3
-3557.58
-2222.82
-4104.01
203.057
-4480.21
99.3664
-4810.82
640.426
-4719.69
1027.95
-4120.92
75.6964
-3635.81
-1632.7
-4112.32
-2983.34
-5751.32
-3337.88
-8289.96
-3364.63
-11275.2
-4144.16
-13794.1
-5750.29
-13277.1
-5122.81
-8903.76
445.575
-4307.92
5122.97
-4970.9
2629.16
-8865.54
286.291
-12080.8
4632.43
12657.8
-4008.51
-941.716
-4140.42
334.968
-4264.72
223.665
-4112.35
488.058
-3630.37
545.971
-3226.21
-328.472
-3591.14
-1267.76
-4940.47
-1634.01
-6892.28
-1386.07
-9137.73
-1119.18
-11752.5
-1529.35
-14895.5
-2607.32
-17245.8
-2772.49
-16363.7
-436.541
-13622
2381.21
-13480.8
2487.98
-14644.7
1450.17
-13529.5
3517.24
7661.04
-4182.59
-8.21811
-3837.42
-10.2011
-3581.7
-32.0517
-3056.21
-37.4392
-2454.85
-55.3852
-2758.27
-25.0498
-4047.91
21.8709
-5743.65
61.73
-7218.05
88.3326
-8413.58
76.3489
-9954.9
11.9669
-12505.6
-56.5939
-15209.1
-68.9669
-15611.3
-34.3452
-13224.8
-5.3421
-10748
11.2349
-9357.34
59.4642
-6030.37
190.265
234.71
-4191.14
933.473
-3853.54
-347.801
-3635.8
-249.801
-3140.94
-532.294
-2577.09
-619.235
-2856.97
254.829
-4085.48
1250.38
-5721.04
1697.29
-7141.17
1508.45
-8294.02
1229.21
-9830.5
1548.45
-12420.1
2532.96
-15176
2686.98
-15613.6
403.209
-13230.1
-2388.84
-10697.7
-2521.17
-9196.78
-1441.42
-5772.83
-3233.69
-7107.68
-4010.98
2214.53
-4142.86
-215.917
-4280.87
-111.788
-4151.5
-661.665
-3714.16
-1056.58
-3337.56
-121.762
-3678.96
1591.77
-4957.1
2975.44
-6818.87
3370.23
-8989.7
3400.03
-11582.5
4141.29
-14770.9
5721.38
-17216.5
5132.52
-16423.4
-389.831
-13728.7
-5083.6
-13602.5
-2647.37
-14766.1
-277.762
-13627.9
-4371.89
-12107.3
-3560.96
3498.99
-4109.24
332.367
-4488.18
267.154
-4827.68
-322.169
-4756.03
-1128.23
-4186.48
-691.318
-3715.24
1120.54
-4166.4
3426.6
-5746.89
4950.72
-8229.12
5882.26
-11195.6
7107.72
-13752.5
8278.3
-13316.6
4696.6
-8978.6
-4727.8
-4427.79
-9634.4
-5247.43
-1827.73
-9290.8
3765.61
-12497.9
-1164.82
-7474.92
-3244.59
4761.01
-3983.33
1071.11
-4759.49
1043.31
-5397.05
315.387
-5620.19
-905.083
-5302.64
-1008.87
-4450.02
267.911
-3878.54
2855.12
-4442.98
5515.16
-6306.15
7745.42
-8936.2
9737.77
-10851.6
10193.7
-9147.4
2992.43
-4972.09
-8903.11
-1496.37
-13110.1
187.119
-3511.22
920.605
3032.12
3135.57
-3379.78
-2084.88
-2825.8
6046.92
-3557.82
1803.13
-4258.89
1744.39
-5115.06
1171.56
-5980.95
-39.1978
-6521.66
-468.155
-6069.15
-184.591
-4970.93
1756.9
-4277.06
4821.29
-4795.45
8263.81
-6398.91
11341.2
-7615.73
11410.5
-5408.16
784.852
-2141.97
-12169.3
-850.692
-14401.4
594.979
-4956.89
993.839
2633.26
146.447
-2532.39
-3119.73
-2381.5
6735.79
-3099.43
2521.06
-4026.27
2671.23
-5154.45
2299.73
-6397.7
1204.05
-7307.53
441.674
-7474.55
-17.5658
-6800.86
1083.2
-5711.68
3732.11
-5109.1
7661.23
-5361.92
11594.1
-5171.39
11220
-2269.04
-2117.51
-63.7076
-14374.6
-607.604
-13857.5
-625.311
-4939.18
406.993
1600.96
58.9629
-2184.37
-3484.56
-2260.98
8366.44
-2915.37
3175.45
-3354.01
3109.87
-4207.63
3153.36
-5220.07
2216.48
-6434.74
1656.34
-7585.06
1132.76
-8216.16
1714.3
-8119.1
3635.05
-7509.26
7051.39
-6419.72
10504.5
-3580.33
8380.57
58.1019
-5755.94
894.609
-15211.1
-1022.92
-11940
-1717.59
-4244.51
-419.206
302.577
-136.419
-2467.15
-3946.12
-1782.95
7662.33
-2541.09
3933.59
-3665.68
4234.46
-4429.14
3916.82
-5426.35
3213.69
-6710.55
2940.55
-7980.3
2402.51
-8783.29
2517.29
-9006.78
3858.54
-8565.51
6610.12
-6633.47
8572.48
-1622.21
3369.31
1779.84
-9157.99
716.466
-14147.8
-1626.83
-9596.68
-1794.78
-4076.57
-392.901
-1099.3
-204.599
-2655.45
-4300.14
106.995
9978.76
-1150.48
5191.07
-584.383
3668.36
-939.96
4272.4
-1479.41
3753.14
-2416.43
3877.56
-3819.33
3805.42
-5691.15
4389.11
-7618.51
5785.9
-8093.91
7085.52
-4873.74
5352.31
1023.98
-2528.42
2457.08
-10591.1
-265.237
-11425.4
-2198.87
-7663.05
-1846.01
-4429.42
-400.857
-2544.45
-106.537
-2949.77
-4331.41
-19167
-10377.9
-14494.1
-12895.3
-13692.3
-13357.1
-13239.5
-12336.3
-10244.3
-6151.02
-746.92
2424.75
869.831
-799.961
-1224.99
-910.648
-218.172
62.6885
122.544
-997.548
189.208
-1133.53
232.157
-1033.82
274.007
-972.35
323.016
-987.798
359.431
-965.849
388.73
-970.756
401.095
-958.472
411.18
-964.258
414.201
-960.032
413.362
-959.508
404.412
-960.88
385.043
-955.846
355.092
-962.47
312.57
-954.061
262.635
-966.102
205.729
-956.131
148.973
-982.523
89.5265
-947.468
-910.617
48.2843
-1045.83
-6.92318
-1078.33
-23.3578
-1017.39
-14.5719
-981.136
-2.55596
-999.815
5.38669
-973.792
19.9361
-985.306
27.8666
-966.403
33.9203
-970.312
35.4473
-961.559
37.5084
-961.57
37.289
-960.661
38.1622
-956.72
37.143
-961.451
36.7524
-953.67
34.3709
-963.721
35.5016
-957.261
36.0253
-983.046
47.297
-958.738
-863.32
6.21065
-1052.04
-26.4293
-1045.69
-22.9812
-1020.84
-10.5719
-993.547
-6.619
-1003.77
1.22227
-981.634
2.31671
-986.402
5.57117
-969.658
7.1014
-971.843
7.89886
-962.358
8.53269
-962.204
7.02242
-959.152
6.86571
-956.563
3.64566
-958.232
3.35789
-953.383
1.25807
-961.621
8.44686
-964.45
17.9087
-992.508
42.4893
-983.319
-820.831
-28.2755
-1023.77
-47.2938
-1026.67
-52.527
-1015.6
-48.3102
-997.763
-51.2425
-1000.84
-49.0515
-983.825
-51.4358
-984.017
-50.4129
-970.68
-51.6079
-970.647
-50.8351
-963.13
-49.8954
-963.144
-48.5567
-960.49
-45.3699
-959.75
-43.4803
-960.121
-38.1415
-958.721
-33.0607
-966.702
-17.2377
-980.273
3.35791
-1013.1
39.2867
-1019.25
-781.544
-48.5984
-975.17
-48.3749
-1026.89
-54.8886
-1009.09
-55.0376
-997.614
-60.7048
-995.168
-61.1244
-983.405
-65.3061
-979.835
-65.2552
-970.731
-66.9509
-968.952
-65.8727
-964.208
-64.7643
-964.252
-62.3453
-962.909
-58.3402
-963.755
-54.4448
-964.017
-47.4018
-965.765
-39.839
-974.265
-22.9696
-997.142
0.676618
-1036.75
38.0479
-1056.62
-743.496
-52.5253
-922.644
-44.0965
-1035.32
-52.2889
-1000.9
-55.6055
-994.296
-61.1139
-989.659
-62.5413
-981.977
-64.9411
-977.435
-63.8364
-971.835
-62.974
-969.814
-59.6955
-967.486
-56.0334
-967.914
-51.0177
-967.924
-44.8725
-969.9
-38.2066
-970.682
-29.693
-974.278
-21.4075
-982.55
-9.15856
-1009.39
9.95346
-1055.86
38.8551
-1085.52
-704.641
-47.1013
-875.542
-37.2548
-1045.17
-42.9623
-995.188
-45.8462
-991.411
-48.3086
-987.196
-47.8036
-982.481
-46.4092
-978.829
-42.4209
-975.823
-37.7835
-974.451
-31.5479
-973.721
-24.9895
-974.472
-17.6786
-975.234
-9.99944
-977.579
-1.85872
-978.822
6.58873
-982.725
13.5174
-989.479
17.9205
-1013.79
26.8557
-1064.8
40.6924
-1099.36
-663.949
-36.4625
-839.078
-29.9257
-1051.7
-31.1006
-994.012
-31.5309
-990.98
-30.0634
-988.663
-26.6158
-985.927
-21.4187
-984.025
-14.6203
-982.62
-6.9658
-982.104
1.34601
-982.031
9.59749
-982.723
17.8903
-983.526
25.6937
-985.382
33.6336
-986.762
40.6948
-989.786
45.7219
-994.505
43.8031
-1011.87
42.7545
-1063.75
41.106
-1097.71
-622.843
-23.128
-815.949
-20.9771
-1053.85
-18.7486
-996.239
-17.3215
-992.406
-13.8365
-992.147
-9.09198
-990.67
-2.80071
-990.315
4.30393
-989.723
11.9943
-989.794
19.7986
-989.835
27.3373
-990.261
34.6414
-990.83
41.1407
-991.88
47.5121
-993.132
52.6569
-994.93
55.8349
-997.683
51.4221
-1007.46
45.3715
-1057.7
34.3167
-1086.65
-588.526
-10.1092
-805.84
-10.9393
-1053.02
-8.86368
-998.314
-7.9655
-993.303
-5.75207
-994.36
-2.68992
-993.732
1.22945
-994.234
5.58018
-994.074
10.237
-994.45
14.9599
-994.557
19.5625
-994.863
24.0078
-995.274
27.9146
-995.787
31.5272
-996.745
34.1849
-997.587
35.096
-998.593
30.8959
-1003.26
24.6726
-1051.47
13.3225
-1075.3
-575.204
-0.462096
-805.377
-2.71771
-1050.77
-3.40213
-997.629
-4.82767
-991.877
-5.84554
-993.341
-6.28499
-993.292
-6.47521
-994.043
-6.35867
-994.19
-6.10655
-994.702
-5.70973
-994.953
-5.2488
-995.323
-4.82434
-995.698
-4.51872
-996.092
-4.52995
-996.733
-4.95884
-997.158
-6.64117
-996.911
-10.2524
-999.65
-16.9051
-1044.82
-21.9027
-1070.31
-597.106
6.4333
-811.811
2.53665
-1046.87
-0.772243
-994.321
-4.2343
-988.416
-7.81904
-989.757
-11.1346
-989.977
-14.508
-990.67
-17.7136
-990.985
-20.9033
-991.512
-23.9851
-991.872
-26.9738
-992.335
-29.9671
-992.705
-32.8781
-993.181
-36.0321
-993.579
-39.1816
-994.009
-42.7683
-993.324
-47.2934
-995.125
-60.018
-1032.1
-58.9987
-1071.32
-656.105
13.1813
-824.992
6.78195
-1040.47
2.42843
-989.967
-1.46035
-984.527
-5.58925
-985.628
-9.72541
-985.841
-14.0026
-986.393
-18.2805
-986.707
-22.6202
-987.173
-26.9616
-987.531
-31.302
-987.994
-35.6794
-988.328
-40.0211
-988.839
-44.5089
-989.091
-48.8709
-989.647
-52.9673
-989.228
-58.2566
-989.835
-77.5131
-1012.84
-80.1558
-1068.68
-736.261
19.2588
-844.251
10.9029
-1032.11
6.84606
-985.911
3.81095
-981.492
0.587496
-982.405
-2.7337
-982.52
-6.17522
-982.952
-9.69616
-983.186
-13.3125
-983.557
-16.9969
-983.847
-20.7634
-984.228
-24.5876
-984.504
-28.4772
-984.95
-32.4276
-985.141
-36.3575
-985.717
-39.9172
-985.668
-43.8678
-985.885
-61.0848
-995.623
-76.1149
-1053.65
-812.376
22.4643
-866.716
13.2807
-1022.93
10.0298
-982.66
8.00686
-979.47
5.83606
-980.235
3.62056
-980.305
1.32572
-980.657
-1.01776
-980.843
-3.44026
-981.134
-5.91418
-981.373
-8.47396
-981.669
-11.0679
-981.911
-13.7549
-982.263
-16.4407
-982.456
-19.2144
-982.944
-21.8481
-983.035
-24.2232
-983.51
-33.4069
-986.439
-55.0536
-1032.01
-867.43
22.6568
-889.373
13.3172
-1013.59
10.764
-980.108
9.31677
-978.023
7.72768
-978.646
6.14801
-978.726
4.51019
-979.02
2.86904
-979.202
1.18032
-979.446
-0.523905
-979.669
-2.27538
-979.918
-4.03378
-980.153
-5.85295
-980.444
-7.65131
-980.658
-9.53594
-981.059
-11.3971
-981.174
-13.2097
-981.698
-16.7468
-982.902
-34.0335
-1014.72
-901.463
21.5499
-910.923
12.2732
-1004.32
10.2413
-978.076
9.05089
-976.833
7.7218
-977.317
6.41237
-977.417
5.04737
-977.655
3.68457
-977.84
2.29011
-978.052
0.885802
-978.265
-0.541936
-978.49
-1.9757
-978.719
-3.44107
-978.979
-4.89488
-979.204
-6.39976
-979.554
-7.87612
-979.698
-9.39922
-980.175
-11.4658
-980.836
-22.6074
-1003.58
-924.07
20.7502
-931.674
11.3428
-994.908
9.77466
-976.508
8.77938
-975.838
7.63502
-976.173
6.49884
-976.281
5.30252
-976.459
4.08838
-976.626
2.84165
-976.805
1.5713
-976.995
0.276996
-977.196
-1.03507
-977.407
-2.37503
-977.639
-3.71571
-977.864
-5.10704
-978.163
-6.46615
-978.339
-7.83835
-978.802
-9.66454
-979.009
-18.7255
-994.516
-942.796
20.9942
-952.668
11.1328
-985.047
10.0212
-975.396
9.30862
-975.125
8.41239
-975.277
7.48242
-975.351
6.46859
-975.445
5.38958
-975.547
4.24227
-975.658
3.02883
-975.782
1.75231
-975.919
0.41829
-976.073
-0.973849
-976.247
-2.39881
-976.439
-3.89087
-976.671
-5.34726
-976.882
-6.88408
-977.266
-8.50657
-977.387
-17.5171
-985.506
-960.313
22.3321
12.2854
11.8888
11.7635
11.4867
11.1358
10.6906
10.1436
9.48553
8.70381
7.78438
6.7111
5.46373
4.02501
2.35374
0.471393
-1.79429
-4.18136
-14.687
-660.632
1635.63
-1067.99
1382.36
-1484.78
1391.79
-1817.86
1308.08
-2112.49
1269.63
-2357.37
1219.89
-2560.43
1178.06
-2721.07
1135.64
-2841.27
1095.21
-2921.87
1055.6
-2962.91
1016.05
-2960.93
973.017
-2907.74
921.813
-2791.89
859.147
-2602
785.116
-2331.3
704.301
-1974.65
618.352
-1503.64
503.999
-862.506
333.865
112.494
-217.003
1852.64
-489.801
1655.16
-776.551
1678.54
-1027.38
1558.91
-1271.25
1513.5
-1487.1
1435.73
-1683.58
1374.54
-1856.96
1309.02
-2010.46
1248.71
-2144.06
1189.2
-2254.07
1126.06
-2324.96
1043.9
-2323.44
920.299
-2200.07
735.773
-1921.06
506.116
-1521.74
304.985
-1077.26
173.872
-616.973
43.7144
-195.199
-87.8986
-82.7049
-187.085
2039.72
-393.934
1862.01
-566.384
1851
-700.247
1692.77
-824.391
1637.64
-918.37
1529.71
-999.675
1455.85
-1061.6
1370.94
-1110.39
1297.5
-1145.61
1224.42
-1169.39
1149.84
-1180.17
1054.68
-1169.11
909.245
-1113.78
680.452
-989.193
381.528
-805.02
120.816
-691.469
60.3276
-522.138
-125.611
-294.97
-315.057
-377.675
-6.53699
2046.26
-71.9945
1927.46
-102.049
1881.05
-113.736
1704.46
-123.116
1647.03
-113.848
1520.44
-98.3504
1440.35
-68.7172
1341.31
-27.8201
1256.61
26.1197
1170.48
89.0847
1086.88
149.294
994.473
180.533
878.013
144.653
716.336
22.8436
503.352
-121.536
265.247
-44.4565
-16.6942
-85.1985
-84.846
-123.358
-276.887
-501.033
114.313
1931.95
82.2145
1959.56
113.492
1849.78
155.096
1662.86
200.907
1601.22
254.94
1466.41
314.199
1381.1
381.366
1274.15
456.579
1181.4
540.907
1086.16
633.685
994.105
727.575
900.587
804.186
801.406
831.559
688.967
776.227
558.69
632.456
409.024
365.051
250.719
219.099
61.1167
100.321
-158.099
-400.711
156.73
1775.22
125.48
1990.81
152.113
1823.15
189.647
1625.32
231.998
1558.87
274.023
1424.39
317.396
1337.73
362.355
1229.19
408.475
1135.28
456.194
1038.44
505.271
945.031
553.48
852.38
594.506
760.383
616.702
666.774
605.499
569.896
552.363
462.164
460.883
342.202
328.504
193.502
161.692
8.7195
-239.019
162.958
1612.27
141.225
2012.55
145.275
1819.1
165.772
1604.83
195.598
1529.05
220.004
1399.98
244.337
1313.4
266.427
1207.1
286.834
1114.88
304.93
1020.35
320.34
929.626
332.319
840.406
339.205
753.501
337.976
668.008
323.921
583.956
291.3
494.789
236.289
397.217
158.053
271.747
65.8782
100.905
-173.141
147.99
1464.28
152.524
2008.02
145.79
1825.84
155.907
1594.72
184.66
1500.3
207.516
1377.13
232.221
1288.7
252.767
1186.56
271.694
1095.96
286.497
1005.55
296.415
919.71
299.902
836.921
295.771
757.635
282.949
680.832
260.382
606.526
225.993
529.182
177.018
446.195
112.462
336.308
39.3869
173.988
-133.754
108.675
1355.61
150.303
1966.4
159.926
1816.22
175.171
1579.48
215.303
1460.17
253.541
1338.9
295.68
1246.57
332.644
1149.6
366.562
1062.05
393.695
978.423
412.532
900.879
420.815
828.646
416.953
761.503
399.808
697.984
368.959
637.381
323.7
574.447
263.109
506.789
185.066
414.356
77.7732
281.292
-55.9808
52.4603
1303.15
131.87
1886.99
177.984
1770.1
211.882
1545.58
266.127
1405.93
321.281
1283.75
379.07
1188.78
429.954
1098.72
473.587
1018.42
506.474
945.537
527.001
880.353
533.647
822.002
525.505
769.647
501.953
721.537
462.807
676.53
407.605
629.651
336.086
578.31
246.562
503.882
125.79
402.07
69.8094
0.799743
1302.35
109.362
1778.43
194.193
1685.28
253.99
1485.79
319.432
1340.49
382.219
1220.96
442.387
1128.61
492.92
1048.19
532.026
979.313
557.551
920.015
568.828
869.079
565.756
825.076
548.602
786.805
517.602
752.538
472.992
721.144
414.372
688.272
341.455
651.229
251.898
593.442
137.925
516.049
207.734
-25.6915
1328.04
84.6249
1668.1
194.727
1575.17
278.902
1401.61
351.021
1268.36
412.724
1159.25
465.016
1076.32
505.174
1008.03
531.979
952.502
545.038
906.95
544.894
869.218
532.436
837.528
508.573
810.664
473.963
787.143
429.061
766.042
373.523
743.807
306.956
717.794
225.709
674.687
125.216
616.541
332.95
-9.33401
1337.38
54.7853
1603.99
168.012
1461.95
265.148
1304.47
337.611
1195.9
394.376
1102.49
436.337
1034.36
465.008
979.357
480.361
937.151
483.735
903.576
476.416
876.539
459.642
854.302
434.39
835.918
401.358
820.175
361.001
806.4
313.073
791.735
257.066
773.803
188.59
743.163
103.745
701.388
436.694
36.0712
1301.3
30.9554
1609.09
116.876
1376.01
210.415
1210.92
276.828
1129.48
328.373
1050.93
361.958
1000.76
382.812
958.491
391.247
928.707
390.26
904.553
381.128
885.662
365.142
870.278
343.101
857.951
315.642
847.626
283.143
838.892
245.472
829.399
201.938
817.333
148.193
796.904
80.0791
769.496
516.773
70.5747
1230.72
27.2636
1652.4
52.1622
1351.11
124.698
1138.38
181.634
1072.54
229.006
1003.55
257.64
972.122
275.17
940.953
281.484
922.387
280.903
905.126
274.197
892.362
262.656
881.811
246.897
873.705
227.461
867.056
204.705
861.644
178.508
855.59
148.068
847.77
109.576
835.393
58.736
820.332
575.509
76.5737
1154.13
45.2729
1683.69
5.37031
1391
34.6898
1109.04
80.5121
1026.7
123.992
960.055
151.924
944.176
169.465
923.395
177.314
914.526
179.805
902.62
177.661
894.495
171.935
887.525
163.325
882.306
152.085
878.285
138.809
874.913
123.069
871.321
104.373
866.461
79.393
860.368
44.5927
855.127
620.102
63.9268
1090.2
76.5102
1671.1
16.4228
1451.08
-11.2448
1136.7
11.7109
1003.74
44.7171
927.043
73.7697
915.118
92.3068
904.853
103.248
903.58
108.986
896.878
111.416
892.061
110.905
888.032
108.4
884.807
103.604
883.076
97.4433
881.07
88.9147
879.847
78.3178
877.055
62.3438
876.34
40.208
877.26
660.31
52.3078
1037.89
118.204
1605.2
104.464
1464.82
63.6954
1177.47
64.0494
1003.38
81.0977
909.989
103.72
892.491
118.17
890.397
127.594
894.153
131.353
893.113
131.998
891.412
129.03
890.995
124.006
889.827
116.09
890.988
107.141
890.016
95.4526
891.532
82.8868
889.619
65.4657
893.759
46.9432
895.78
707.253
64.7826
973.103
147.222
1522.76
174.816
1437.22
155.169
1197.11
141.333
1017.21
135.598
915.721
145.734
882.352
153.009
883.12
155.901
891.258
153.456
895.555
148.679
896.188
141.765
897.907
134.262
897.329
125.013
900.235
115.287
899.742
102.64
904.178
89.1915
903.068
69.988
912.963
54.3459
911.423
761.599
123.256
324.599
469.473
543.249
580.282
598.468
604.661
601.028
594.756
584.167
568.349
544.87
511.301
466.261
410.177
344.647
272.977
196.997
121.724
)
;

boundaryField
{
    outletWall
    {
        type            calculated;
        value           nonuniform List<scalar> 
60
(
-5299.99
-4138.51
-3326.87
-3365.06
-4826.42
-7282.83
-9770.51
-9033.12
-5689.04
-58.6303
2973.17
3673.8
3466.77
3671.24
3530.26
4541.82
2666.91
7781.33
-3601.08
25121.6
4020.1
-2423.43
2487.06
630.332
1692.63
1539.89
1982.57
2276.5
2729.92
3249.45
3249.09
2727.41
2274.45
1981.06
1538.71
1691.64
629.542
2486.07
-2423.43
4019.45
-5287.19
-4051.74
-3230.63
-3236.93
-4743.77
-7238.02
-9755.65
-9036.16
-5700.1
-51.7874
2992.26
3693.85
3485.9
3687.83
3542.36
4550.2
2673.54
7784.61
-3598.02
25125.6
)
;
    }
    fineWalls
    {
        type            calculated;
        value           uniform 0;
    }
    fineFrontAndBack
    {
        type            calculated;
        value           nonuniform List<scalar> 
960
(
-3.50625e-15
6.79493e-14
4.01781e-14
4.06297e-14
2.31939e-13
2.99295e-15
5.01019e-14
-1.56699e-13
-1.29174e-13
1.954e-13
3.02478e-13
-1.16568e-12
-6.80355e-13
-4.17294e-13
-3.72832e-12
-8.54372e-13
-8.20253e-13
-4.65695e-12
-6.96382e-13
-1.54224e-12
3.5748e-14
-2.8066e-13
-3.99734e-13
-5.53727e-13
-6.91378e-13
-1.29545e-12
-3.08251e-11
-2.19955e-12
-2.347e-12
-2.3894e-12
-2.33955e-12
-2.22216e-12
-2.12757e-12
-2.03795e-12
-2.01359e-12
-2.02285e-12
-2.11293e-12
-2.19463e-12
-2.34678e-12
-2.43981e-12
-6.40395e-11
-9.52963e-12
-9.01382e-12
-1.04767e-11
-1.21912e-12
1.8031e-11
5.69511e-12
-3.38896e-13
-2.59186e-11
-3.43145e-12
-2.24599e-12
5.49707e-11
9.29543e-12
6.03068e-12
1.39972e-12
3.06241e-11
9.54952e-12
9.20029e-12
9.17441e-12
6.05376e-11
2.32709e-12
2.11337e-12
1.91887e-12
1.72429e-12
1.48666e-12
1.22837e-12
9.15149e-13
5.75331e-13
2.25006e-13
-9.2813e-14
-3.26161e-13
-4.34824e-13
-4.33813e-13
-2.22801e-11
-3.81209e-13
-5.15474e-13
-5.35132e-13
-5.94886e-13
-6.60709e-13
-8.59973e-13
-2.04962e-12
-2.37898e-12
-9.11765e-12
-1.99235e-12
-1.84922e-12
-6.64467e-12
-4.54536e-13
-3.63928e-13
-8.66698e-13
-1.80715e-13
-4.90185e-13
-2.23694e-12
1.86399e-13
1.34538e-13
5.69191e-14
3.09757e-13
7.13183e-14
8.72479e-14
2.70569e-13
-8.1117e-15
-1.08049e-11
2.87885e-11
5.32167e-11
5.4458e-11
6.13281e-11
4.97754e-11
3.55244e-11
1.9669e-11
6.6541e-12
-3.37409e-12
-7.23487e-12
-2.14372e-12
1.02701e-15
1.41709e-13
-1.48681e-14
2.85655e-16
2.1969e-15
5.77277e-15
2.39029e-14
-4.05199e-10
3.62806e-12
-2.75191e-11
1.82043e-11
4.04697e-11
4.22164e-11
2.71469e-11
1.02681e-11
-1.42512e-12
-7.66837e-12
-9.37683e-12
-7.0427e-12
-1.88539e-12
2.55191e-14
8.17706e-14
-1.06542e-14
-3.66523e-15
-1.77899e-14
2.67803e-14
-7.42459e-10
-1.06398e-11
-7.72802e-11
-3.83879e-12
2.63751e-11
2.8006e-11
1.3815e-11
7.35539e-13
-6.57946e-12
-8.70042e-12
-6.64797e-12
-3.36729e-12
-3.70082e-12
-8.26869e-13
1.02271e-13
9.20812e-15
-2.29961e-14
1.2528e-14
-8.61688e-14
-1.05979e-09
-7.77651e-11
-1.86723e-10
-5.55768e-11
6.52256e-12
2.01487e-11
7.57779e-12
-3.55713e-12
-6.58127e-12
-3.0478e-12
3.65141e-12
7.56218e-12
6.67537e-13
-1.94738e-12
-2.49235e-13
2.65137e-14
1.79657e-15
3.07025e-13
7.57308e-13
-1.53825e-09
-1.70177e-10
-2.94458e-10
-8.88256e-11
-2.84282e-12
1.35816e-11
2.30886e-12
-3.44935e-12
1.3722e-12
1.10361e-11
1.94109e-11
2.14837e-11
9.46078e-12
-2.60408e-12
-5.57203e-13
-2.30174e-13
-4.71946e-13
-5.29335e-14
-1.69218e-12
-1.89221e-09
-2.72949e-10
-3.8737e-10
-1.03697e-10
-3.2648e-12
1.36496e-11
5.53613e-12
7.51306e-12
1.83014e-11
2.76023e-11
3.21296e-11
3.23671e-11
1.8793e-11
-1.24256e-12
-7.53061e-13
1.03017e-12
-5.32517e-13
1.90017e-12
9.14315e-12
-2.28258e-09
-3.46665e-10
-4.36928e-10
-9.9799e-11
-4.20323e-12
1.7653e-11
1.75451e-11
2.5468e-11
3.32734e-11
3.56551e-11
3.71894e-11
4.15961e-11
3.26143e-11
2.46204e-12
-5.32639e-12
-3.01428e-12
1.02467e-11
8.38962e-12
-4.44041e-11
-2.54013e-09
-3.94571e-10
-4.74049e-10
-1.15396e-10
-1.45027e-11
2.56836e-11
3.24686e-11
3.53846e-11
3.50441e-11
3.27348e-11
3.79361e-11
5.29775e-11
5.80978e-11
2.85539e-11
2.0669e-12
1.21127e-11
4.7143e-11
4.77364e-11
6.01251e-11
-2.65452e-09
-4.15146e-10
-5.34878e-10
-1.92393e-10
-6.16426e-11
1.23817e-11
2.79328e-11
3.04289e-11
2.55976e-11
2.37012e-11
3.52751e-11
5.8677e-11
8.03387e-11
8.47513e-11
7.32732e-11
7.91953e-11
9.24995e-11
8.77229e-11
7.82388e-11
-2.44512e-09
-3.74791e-10
-5.56787e-10
-2.77944e-10
-1.30198e-10
-2.41935e-11
1.46512e-11
2.09141e-11
1.03701e-11
5.85995e-12
1.46302e-11
2.99219e-11
4.56041e-11
6.63949e-11
7.73206e-11
8.11606e-11
8.21528e-11
8.21896e-11
8.3299e-11
-1.12646e-09
-4.13987e-11
-8.51827e-11
-8.81502e-13
2.31938e-11
2.45745e-11
2.03506e-11
8.05509e-12
-1.4441e-11
-4.70992e-11
-7.85567e-11
-1.06269e-10
-1.34916e-10
-1.59795e-10
-1.63677e-10
-1.50539e-10
-1.25485e-10
-8.98008e-11
-5.53317e-11
-3.26591e-10
-2.75524e-11
4.04139e-11
2.63358e-11
2.46217e-11
1.26474e-11
1.29979e-11
7.23071e-12
-1.16e-11
-4.53483e-11
-8.30261e-11
-1.13156e-10
-1.25669e-10
-1.10793e-10
-9.12053e-11
-1.08962e-10
-1.31396e-10
-1.14372e-10
-7.48569e-11
1.899e-10
-5.6974e-11
8.22471e-11
2.25616e-11
1.56578e-11
2.99723e-12
3.22538e-12
3.49108e-12
-6.04321e-12
-3.04944e-11
-6.2789e-11
-8.50395e-11
-7.40974e-11
-2.28749e-11
4.56587e-12
-1.75206e-11
-7.43105e-11
-8.11877e-11
-9.16908e-11
5.47788e-10
-8.44042e-11
1.00702e-10
2.38079e-11
1.25448e-11
9.16479e-13
-7.13514e-13
-8.73404e-13
-4.42617e-12
-1.81316e-11
-4.12302e-11
-5.64289e-11
-3.77112e-11
2.44512e-12
7.58118e-12
3.11287e-12
-2.16079e-11
3.18218e-12
8.4937e-12
7.28137e-10
-8.94063e-11
1.07118e-10
3.05562e-11
1.30779e-11
1.33171e-12
-5.84879e-13
-1.89784e-12
-4.45377e-12
-1.16366e-11
-2.58176e-11
-3.60816e-11
-1.98137e-11
4.32631e-12
2.10563e-12
-8.54795e-13
-1.35106e-12
-2.2466e-12
6.08293e-13
8.0946e-10
-8.25626e-11
9.82484e-11
3.56782e-11
1.55749e-11
2.68688e-12
7.06901e-13
-1.44907e-13
-2.65298e-12
-7.62465e-12
-1.58661e-11
-2.15725e-11
-8.68455e-12
4.93294e-12
1.34002e-12
2.73321e-13
9.88827e-13
6.61579e-13
-5.0447e-13
6.70681e-10
-6.18142e-11
8.14101e-11
3.67325e-11
1.84616e-11
4.84795e-12
1.74376e-12
1.72908e-12
7.25552e-13
-2.34307e-12
-6.87533e-12
-8.88303e-12
6.14827e-13
3.36803e-12
5.41335e-13
-1.22269e-13
2.11056e-13
1.16171e-13
2.56759e-13
5.46113e-10
-4.02695e-11
5.47352e-11
2.76552e-11
1.46027e-11
4.62714e-12
1.78905e-12
2.38852e-12
3.28725e-12
2.98452e-12
1.60948e-12
1.37461e-12
4.89986e-12
1.42445e-12
-1.0176e-13
-3.46787e-14
-1.08003e-14
-7.19124e-14
-3.17304e-14
3.26167e-10
-1.95391e-11
3.87092e-11
2.56648e-11
1.5923e-11
6.66039e-12
2.38846e-12
1.99333e-12
3.42627e-12
5.25919e-12
6.58521e-12
6.43758e-12
2.57848e-12
8.32941e-14
-1.43473e-13
2.49227e-14
7.46004e-15
2.3449e-14
5.2658e-14
2.16759e-11
2.07804e-12
6.23778e-12
4.22615e-12
4.9883e-13
-1.17006e-12
-1.26204e-12
6.86097e-13
4.17287e-12
7.80279e-12
8.23115e-12
2.73395e-12
7.02454e-15
-2.09443e-13
1.92116e-14
1.30271e-15
-3.33142e-15
-5.4708e-15
9.52296e-16
3.50625e-15
-6.79493e-14
-4.01781e-14
-4.06297e-14
-2.31939e-13
-2.99295e-15
-5.01019e-14
1.56699e-13
1.29174e-13
-1.954e-13
-3.02478e-13
1.16568e-12
6.80355e-13
4.17294e-13
3.72832e-12
8.54372e-13
8.20253e-13
4.65695e-12
6.96382e-13
1.54224e-12
-3.5748e-14
2.8066e-13
3.99734e-13
5.53727e-13
6.91378e-13
1.29545e-12
3.08251e-11
2.19955e-12
2.347e-12
2.3894e-12
2.33955e-12
2.22216e-12
2.12757e-12
2.03795e-12
2.01359e-12
2.02285e-12
2.11293e-12
2.19463e-12
2.34678e-12
2.43981e-12
6.40395e-11
9.52963e-12
9.01382e-12
1.04767e-11
1.21912e-12
-1.8031e-11
-5.69511e-12
3.38896e-13
2.59186e-11
3.43145e-12
2.24599e-12
-5.49707e-11
-9.29543e-12
-6.03068e-12
-1.39972e-12
-3.06241e-11
-9.54952e-12
-9.20029e-12
-9.17441e-12
-6.05376e-11
-2.32709e-12
-2.11337e-12
-1.91887e-12
-1.72429e-12
-1.48666e-12
-1.22837e-12
-9.15149e-13
-5.75331e-13
-2.25006e-13
9.2813e-14
3.26161e-13
4.34824e-13
4.33813e-13
2.22801e-11
3.81209e-13
5.15474e-13
5.35132e-13
5.94886e-13
6.60709e-13
8.59973e-13
2.04962e-12
2.37898e-12
9.11765e-12
1.99235e-12
1.84922e-12
6.64467e-12
4.54536e-13
3.63928e-13
8.66698e-13
1.80715e-13
4.90185e-13
2.23694e-12
-1.86399e-13
-1.34538e-13
-5.69191e-14
-3.09757e-13
-7.13183e-14
-8.72479e-14
-2.70569e-13
8.1117e-15
1.08049e-11
-2.87885e-11
-5.32167e-11
-5.4458e-11
-6.13281e-11
-4.97754e-11
-3.55244e-11
-1.9669e-11
-6.6541e-12
3.37409e-12
7.23487e-12
2.14372e-12
-1.02701e-15
-1.41709e-13
1.48681e-14
-2.85655e-16
-2.1969e-15
-5.77277e-15
-2.39029e-14
4.05199e-10
-3.62806e-12
2.75191e-11
-1.82043e-11
-4.04697e-11
-4.22164e-11
-2.71469e-11
-1.02681e-11
1.42512e-12
7.66837e-12
9.37683e-12
7.0427e-12
1.88539e-12
-2.55191e-14
-8.17706e-14
1.06542e-14
3.66523e-15
1.77899e-14
-2.67803e-14
7.42459e-10
1.06398e-11
7.72802e-11
3.83879e-12
-2.63751e-11
-2.8006e-11
-1.3815e-11
-7.35539e-13
6.57946e-12
8.70042e-12
6.64797e-12
3.36729e-12
3.70082e-12
8.26869e-13
-1.02271e-13
-9.20812e-15
2.29961e-14
-1.2528e-14
8.61688e-14
1.05979e-09
7.77651e-11
1.86723e-10
5.55768e-11
-6.52256e-12
-2.01487e-11
-7.57779e-12
3.55713e-12
6.58127e-12
3.0478e-12
-3.65141e-12
-7.56218e-12
-6.67537e-13
1.94738e-12
2.49235e-13
-2.65137e-14
-1.79657e-15
-3.07025e-13
-7.57308e-13
1.53825e-09
1.70177e-10
2.94458e-10
8.88256e-11
2.84282e-12
-1.35816e-11
-2.30886e-12
3.44935e-12
-1.3722e-12
-1.10361e-11
-1.94109e-11
-2.14837e-11
-9.46078e-12
2.60408e-12
5.57203e-13
2.30174e-13
4.71946e-13
5.29335e-14
1.69218e-12
1.89221e-09
2.72949e-10
3.8737e-10
1.03697e-10
3.2648e-12
-1.36496e-11