/*--------------------------------*- C++ -*----------------------------------*\
| =========                 |                                                 |
| \\      /  F ield         | OpenFOAM: The Open Source CFD Toolbox           |
|  \\    /   O peration     | Version:  4.1                                   |
|   \\  /    A nd           | Web:      www.OpenFOAM.org                      |
|    \\/     M anipulation  |                                                 |
\*---------------------------------------------------------------------------*/
FoamFile
{
    version     2.0;
    format      ascii;
    class       volVectorField;
    location    "3";
    object      U;
}
// * * * * * * * * * * * * * * * * * * * * * * * * * * * * * * * * * * * * * //

dimensions      [0 1 -1 0 0 0 0];

internalField   nonuniform List<vector> 
1280
(
(-2.53388e-18 2.99793 -0.0823044)
(1.15486e-17 1.81606 -0.242416)
(2.90356e-17 1.42216 -0.244501)
(2.9362e-17 1.80391 -0.254229)
(3.94202e-17 1.96689 -0.324749)
(2.16293e-18 1.50473 -0.264438)
(3.62074e-17 1.73833 -0.262826)
(-1.49444e-16 1.65923 -0.233176)
(4.87399e-17 1.96908 -0.473975)
(1.58883e-16 1.62766 -0.413325)
(2.18593e-16 1.74445 -0.345482)
(-3.32106e-16 2.08766 -0.566437)
(-5.08422e-16 1.72287 -0.422231)
(-3.01567e-16 1.83169 -0.334062)
(-9.15565e-16 2.25505 -0.544544)
(-6.17433e-16 1.81848 -0.47742)
(-5.92775e-16 2.02873 -0.38661)
(-7.91494e-16 2.00022 -1.17105)
(-5.03257e-16 2.61499 -0.00235648)
(-1.11454e-15 1.24155 -3.24197)
(1.46658e-16 2.21198 3.08682)
(-1.15142e-15 2.44074 5.92492)
(-1.63994e-15 2.07462 7.20764)
(-2.2717e-15 2.55907 7.7888)
(-2.83642e-15 2.3465 8.24797)
(-5.31467e-15 2.786 8.74552)
(-6.49804e-15 2.22518 6.25692)
(-9.02378e-15 5.8341 10.9648)
(-9.62871e-15 6.1222 11.3486)
(-9.80268e-15 6.19748 11.7725)
(-9.59815e-15 6.33985 12.2961)
(-9.11654e-15 6.43024 13.0611)
(-8.7285e-15 6.59269 13.9478)
(-8.36084e-15 6.59064 14.9968)
(-8.26087e-15 6.70735 15.8597)
(-8.29888e-15 6.60467 16.6681)
(-8.66843e-15 6.67001 17.0267)
(-9.00362e-15 6.54154 17.4421)
(-9.62783e-15 6.59136 17.2415)
(-1.00095e-14 6.51765 17.1959)
(-1.1147e-14 7.4493 16.4939)
(-7.65432e-15 3.92438 10.054)
(-7.24001e-15 2.51408 9.36872)
(-8.46596e-15 1.65538 9.34633)
(-3.81922e-16 -0.427465 4.61905)
(1.44827e-14 -0.792686 -3.43919)
(4.57439e-15 -0.482509 -3.25132)
(-2.72206e-16 -0.0594068 -3.66699)
(-5.44237e-15 0.629641 -4.57378)
(-2.75618e-15 0.24389 -3.53011)
(-1.46975e-15 -0.200679 -2.96135)
(9.56844e-15 -0.664079 -4.50884)
(7.46621e-15 0.0638025 -3.82536)
(4.84392e-15 0.515945 -3.4343)
(1.12427e-15 0.837354 -3.63074)
(5.33057e-15 0.546538 4.54477)
(7.61808e-15 -1.59418 9.50492)
(7.38979e-15 -2.42041 9.55)
(7.369e-15 -3.88064 10.2533)
(1.02934e-14 -7.74409 16.4817)
(9.54702e-15 -6.39076 16.8271)
(8.67025e-15 -6.52187 17.3323)
(7.8723e-15 -6.47077 17.2652)
(7.074e-15 -6.57974 16.9707)
(6.09913e-15 -6.58207 16.54)
(5.03947e-15 -6.63607 15.7723)
(3.75446e-15 -6.58828 14.8629)
(2.36033e-15 -6.55428 13.836)
(9.23102e-16 -6.44105 12.9226)
(-3.80771e-16 -6.34316 12.1745)
(-1.3381e-15 -6.22388 11.6531)
(-1.78389e-15 -6.14399 11.2459)
(-1.77975e-15 -5.92872 10.8966)
(-4.69673e-15 -2.71217 6.62937)
(-1.56393e-15 -2.90468 8.80812)
(-2.11477e-15 -2.48195 8.91181)
(-2.19541e-15 -2.39026 9.26638)
(-2.44056e-15 -2.0137 8.99348)
(-2.7106e-15 -2.2672 7.06214)
(-3.52809e-15 -2.05957 2.71164)
(-1.48121e-15 -1.29375 -3.04317)
(-1.71923e-15 -2.5111 -0.00550948)
(-1.54963e-15 -1.98208 -1.12337)
(-1.43982e-15 -1.99162 -0.373677)
(-1.33638e-15 -1.78762 -0.45754)
(-1.25683e-15 -2.22735 -0.521964)
(-3.28481e-16 -1.8109 -0.324552)
(-2.79935e-16 -1.70348 -0.409309)
(-2.99693e-16 -2.07171 -0.551826)
(-1.30598e-16 -1.73241 -0.338785)
(-3.36454e-16 -1.61646 -0.404852)
(-5.04743e-16 -1.96039 -0.465553)
(9.8374e-17 -1.65276 -0.229024)
(9.72274e-17 -1.73208 -0.255556)
(4.11339e-17 -1.49988 -0.254708)
(5.26462e-17 -1.96553 -0.310367)
(5.15399e-17 -1.80313 -0.248134)
(6.30518e-17 -1.42283 -0.233721)
(6.28975e-17 -1.8219 -0.228815)
(-5.86211e-18 -3.00346 -0.0829211)
(-1.20055e-15 44.1565 37.1912)
(3.19872e-15 0.645499 -0.906026)
(5.91297e-15 16.3583 15.8904)
(6.05088e-15 9.21485 9.05241)
(6.81423e-15 11.9389 12.0656)
(5.53061e-15 10.3598 10.8618)
(3.94715e-15 10.3373 11.3156)
(2.18545e-15 9.37985 10.7408)
(7.39345e-16 8.27217 9.73866)
(-3.74899e-16 5.87825 7.30036)
(-8.03875e-16 1.69156 3.04507)
(-2.38191e-16 -2.89181 -2.09004)
(1.14113e-19 -4.78187 -1.5329)
(1.57455e-17 -4.83051 0.0701046)
(-1.65201e-18 -3.61774 1.0033)
(3.17394e-20 -2.51967 0.965796)
(2.44101e-19 -1.71559 0.51551)
(6.41419e-19 -1.55533 -0.106322)
(2.65587e-18 -1.98845 0.286477)
(-4.50221e-14 -20.8947 -4.11638)
(4.03118e-16 1.46617 1.78487)
(-3.05767e-15 -7.61993 0.795975)
(2.0227e-15 -3.53258 0.315218)
(4.49663e-15 -5.46121 1.09939)
(4.69071e-15 -4.73737 1.45719)
(3.01632e-15 -4.98123 2.52606)
(1.14089e-15 -4.11285 3.85654)
(-1.58346e-16 -2.40286 5.63892)
(-8.52042e-16 0.186051 7.03663)
(-1.04187e-15 2.03965 6.36948)
(-7.82522e-16 0.155269 1.68947)
(-2.09488e-16 -4.02333 -3.03279)
(2.83545e-18 -4.95318 -1.27818)
(9.08562e-18 -3.22062 1.58834)
(-1.1838e-18 -1.69259 2.07892)
(-4.07248e-19 -0.991511 0.948106)
(-1.97666e-18 -1.24976 -0.20637)
(2.97559e-18 -1.85171 0.467206)
(-8.24954e-14 12.6797 8.33628)
(-1.1822e-15 1.73371 -2.12385)
(-8.58669e-15 4.97216 4.22924)
(-4.26533e-16 3.54878 2.68756)
(2.93056e-15 4.11359 4.31608)
(3.11178e-15 4.0284 4.88637)
(1.53499e-15 4.11 6.21978)
(8.17266e-17 3.7667 7.07377)
(-7.31051e-16 3.4318 7.52769)
(-9.66713e-16 3.39984 7.46917)
(-7.38663e-16 3.52829 6.74207)
(-3.74143e-16 2.23649 4.31897)
(-4.11202e-16 -2.10746 -1.36323)
(-9.18743e-17 -4.68995 -1.97974)
(1.13634e-17 -3.31017 0.706507)
(1.02312e-18 -1.09607 2.09721)
(-2.55513e-18 0.157402 0.841828)
(1.392e-18 -0.641262 -0.0772409)
(-9.57431e-18 -1.19828 0.383696)
(-1.17754e-13 -1.93172 4.60795)
(-8.64057e-15 0.412905 0.363696)
(-2.0747e-14 -0.947468 3.45224)
(-6.1752e-15 -0.519471 2.65379)
(7.24728e-16 -1.42572 4.07975)
(2.23874e-15 -1.86494 4.74062)
(8.41977e-16 -2.21228 5.92551)
(-3.95236e-16 -1.55231 6.71194)
(-7.31253e-16 -0.125217 6.93899)
(-3.38644e-16 1.78796 6.51892)
(4.05712e-16 3.60339 5.82703)
(8.40243e-16 3.48195 4.85519)
(7.41708e-17 -1.48087 1.23678)
(-2.16376e-16 -5.04069 -1.66294)
(-2.76928e-17 -4.38409 -0.0431995)
(2.94597e-18 -1.54786 1.86757)
(1.99619e-19 0.138942 0.906988)
(3.41139e-17 -0.951968 0.010121)
(8.41453e-17 -1.36151 0.187451)
(-1.70916e-13 4.112 6.87587)
(-1.89085e-14 1.1423 -0.564601)
(-3.27175e-14 1.75674 4.10776)
(-9.86951e-15 1.52128 3.25086)
(-3.15869e-16 1.50407 5.02739)
(1.50906e-15 1.38789 5.73483)
(2.5654e-16 1.35177 6.36439)
(-3.83262e-16 1.54266 6.07846)
(1.52467e-16 2.08643 5.17663)
(1.22623e-15 3.05105 4.23806)
(2.15677e-15 4.05357 4.07825)
(2.38708e-15 3.95168 4.80568)
(1.0512e-15 -0.21234 3.73058)
(-2.89342e-16 -4.60559 -0.076971)
(-6.19115e-17 -4.96341 -0.169521)
(-2.55748e-17 -1.83767 1.33618)
(-5.24384e-17 0.752203 -0.27266)
(-5.8815e-18 -0.367299 -0.162139)
(-1.8802e-16 -0.892996 -0.000352412)
(-2.10245e-13 0.900593 6.70614)
(-3.03277e-14 0.168528 0.163264)
(-4.30411e-14 -0.123633 4.26524)
(-1.15219e-14 -0.417033 3.43689)
(-3.62756e-16 -1.02018 4.80057)
(1.51663e-15 -1.13477 5.26974)
(6.15125e-16 -0.891645 5.50122)
(8.34785e-16 0.121313 4.57883)
(2.03349e-15 1.44862 3.59966)
(3.06693e-15 2.61509 3.41826)
(3.56995e-15 3.54826 4.4079)
(3.59634e-15 3.62589 6.23156)
(2.08811e-15 0.67598 6.38334)
(-1.38062e-16 -3.48516 2.60628)
(-8.36734e-17 -4.71241 0.514638)
(1.14463e-16 -1.64941 0.989016)
(-5.91686e-17 0.855513 -1.68107)
(2.1113e-16 -1.95638 -0.00409738)
(1.01591e-15 -1.71878 -0.331213)
(-2.53621e-13 1.83755 7.72912)
(-3.85183e-14 0.470029 0.265748)
(-4.85476e-14 0.589384 4.70353)
(-1.10888e-14 0.401539 3.85437)
(-4.67026e-16 0.0522571 4.84036)
(1.96144e-15 0.0871301 4.60873)
(1.94945e-15 0.696496 4.12677)
(2.82978e-15 1.49231 3.21439)
(3.69705e-15 2.07017 3.13601)
(3.96167e-15 2.48048 4.19406)
(4.13216e-15 2.9151 6.24099)
(4.62179e-15 3.10407 8.69448)
(3.62381e-15 1.24158 9.44175)
(2.7356e-16 -2.57345 5.76794)
(-5.91821e-16 -4.15376 2.04286)
(-3.3492e-16 -1.0288 0.349247)
(1.13853e-15 1.49907 -0.221507)
(9.3218e-16 0.793208 -1.61922)
(-4.93379e-15 0.670007 -3.90954)
(-2.82236e-13 0.694719 8.36632)
(-4.38413e-14 -0.189007 0.416822)
(-5.26721e-14 -0.26221 4.66888)
(-1.28218e-14 -0.444466 3.47806)
(-1.61142e-15 -0.5895 4.27536)
(2.85374e-15 -0.338428 3.70056)
(3.60762e-15 0.281056 3.12476)
(3.93162e-15 0.960862 2.94492)
(3.89379e-15 1.3225 3.8882)
(3.63719e-15 1.48881 5.69667)
(4.21513e-15 1.84465 8.08345)
(5.88639e-15 2.39678 10.7397)
(6.45531e-15 1.90173 12.3961)
(3.17265e-15 -0.557274 9.77474)
(2.29656e-16 -2.27021 4.7002)
(1.34586e-15 -0.326022 2.41956)
(5.23812e-15 0.528497 6.24679)
(5.30405e-15 -2.00652 8.46296)
(6.68056e-15 -5.8797 11.5039)
(-2.94947e-13 0.711374 9.35035)
(-4.61273e-14 0.0237365 0.452561)
(-5.94309e-14 0.106438 4.71633)
(-2.1377e-14 -0.08161 3.08062)
(-6.84918e-15 -0.189956 3.50569)
(1.37574e-15 0.194422 2.68181)
(3.10365e-15 0.700176 2.63233)
(3.38099e-15 0.948341 3.35556)
(2.84418e-15 0.869067 4.8638)
(2.63347e-15 0.748924 6.62707)
(3.91946e-15 0.920121 8.57548)
(6.51966e-15 1.39305 11.0297)
(8.92652e-15 1.39052 13.9182)
(9.41681e-15 0.148815 14.8347)
(8.14146e-15 -1.16836 12.1899)
(8.79948e-15 -1.18596 10.5853)
(1.02777e-14 -0.774591 12.0762)
(9.74699e-15 -1.61008 12.1007)
(8.6932e-15 -2.92761 10.4794)
(-2.7168e-13 -0.0670511 10.375)
(-4.16434e-14 -0.211786 0.107969)
(-6.18652e-14 -0.20852 4.48322)
(-3.08827e-14 -0.208392 2.26674)
(-1.44664e-14 -0.142211 2.47939)
(-2.68816e-15 0.0498572 1.81026)
(1.52876e-15 0.156211 2.69356)
(2.32378e-15 0.156802 4.05485)
(1.15223e-15 0.07013 5.50451)
(6.51106e-16 0.0104255 6.53197)
(1.62558e-15 0.10729 7.45865)
(3.44569e-15 0.354315 9.14982)
(5.06712e-15 0.466186 11.8417)
(7.37721e-15 0.144473 13.4852)
(8.38117e-15 -0.36989 12.2911)
(9.01785e-15 -0.469505 9.84559)
(9.12809e-15 -0.243628 8.30023)
(9.13218e-15 -0.80627 6.72412)
(9.25545e-15 -1.9005 3.70301)
(-1.25163e-13 0.0719186 10.3716)
(-4.59986e-15 0.218941 0.12208)
(-9.46475e-15 0.227125 4.50419)
(-9.79446e-17 0.233014 2.32753)
(2.57708e-15 0.177976 2.56766)
(2.7305e-15 -0.0299457 1.91964)
(2.30993e-15 -0.165499 2.75161)
(8.9501e-16 -0.195654 4.05886)
(-1.60456e-15 -0.128358 5.46292)
(-5.23324e-15 -0.061429 6.44557)
(-8.72852e-15 -0.116599 7.34508)
(-1.18076e-14 -0.318307 9.05555)
(-1.49907e-14 -0.420351 11.7951)
(-1.7755e-14 -0.120166 13.4764)
(-1.81863e-14 0.374984 12.3029)
(-1.67266e-14 0.468389 9.84359)
(-1.39428e-14 0.219079 8.21916)
(-9.97786e-15 0.687342 6.52392)
(-6.14797e-15 1.71168 3.47631)
(-3.62879e-14 -0.709743 9.35087)
(-3.06138e-15 -0.0218448 0.454991)
(4.49043e-15 -0.104585 4.72134)
(2.9262e-15 0.0883067 3.10129)
(2.73574e-15 0.204276 3.55226)
(1.40527e-15 -0.170281 2.77251)
(1.44421e-15 -0.685649 2.72827)
(8.03412e-16 -0.953691 3.40632)
(-1.28889e-15 -0.892222 4.84134)
(-5.0387e-15 -0.770839 6.52732)
(-9.22512e-15 -0.922566 8.42785)
(-1.25728e-14 -1.37841 10.8929)
(-1.39633e-14 -1.37989 13.8488)
(-1.23104e-14 -0.152032 14.8549)
(-1.01339e-14 1.16897 12.2699)
(-1.21069e-14 1.20542 10.6848)
(-1.45996e-14 0.765488 12.1732)
(-1.2708e-14 1.51056 12.2014)
(-8.31743e-15 2.77418 10.556)
(2.11e-14 -0.691538 8.36852)
(-6.33044e-15 0.194757 0.420841)
(9.13856e-15 0.267979 4.67314)
(2.50685e-15 0.450199 3.48803)
(1.73976e-15 0.593877 4.29385)
(3.33025e-16 0.346741 3.7423)
(3.58376e-16 -0.26723 3.19194)
(3.87898e-16 -0.949477 3.01072)
(-6.71468e-16 -1.32007 3.91314)
(-3.38827e-15 -1.48936 5.66482)
(-6.97656e-15 -1.83995 8.01348)
(-9.44883e-15 -2.39333 10.6748)
(-8.23304e-15 -1.91903 12.3935)
(-2.54165e-15 0.523262 9.84356)
(5.07319e-16 2.23892 4.75668)
(-1.94674e-15 0.313726 2.56322)
(-8.25672e-15 -0.522876 6.55251)
(-9.02086e-15 1.95493 8.87023)
(-1.01879e-14 5.68412 11.8239)
(6.08653e-14 -1.83585 7.73113)
(-9.37824e-15 -0.468502 0.27078)
(1.11891e-14 -0.588211 4.70926)
(2.64532e-15 -0.399061 3.86434)
(1.39387e-15 -0.0506326 4.85294)
(1.01831e-16 -0.0849125 4.63043)
(-7.92793e-17 -0.692427 4.16401)
(-9.70449e-17 -1.48261 3.26595)
(-4.91797e-16 -2.05686 3.18319)
(-2.01462e-15 -2.46754 4.2185)
(-4.58114e-15 -2.90641 6.2479)
(-6.26987e-15 -3.11339 8.70953)
(-4.19013e-15 -1.2818 9.49534)
(2.7168e-16 2.54588 5.81854)
(8.42353e-16 4.13076 2.05039)
(3.45875e-16 0.94004 0.328748)
(-2.40087e-15 -1.58419 -0.0250794)
(3.53575e-16 -0.863574 -1.51083)
(9.43745e-16 -0.741162 -3.97813)
(8.09041e-14 -0.898552 6.70762)
(-9.93404e-15 -0.165804 0.16698)
(1.19019e-14 0.127465 4.26919)
(3.39514e-15 0.420524 3.44449)
(1.4531e-15 1.02038 4.81011)
(1.47967e-16 1.13467 5.28388)
(-6.49866e-17 0.893592 5.52378)
(-2.10871e-16 -0.112697 4.61625)
(-4.94863e-16 -1.43306 3.65011)
(-1.29295e-15 -2.59795 3.47446)
(-2.86863e-15 -3.53958 4.46839)
(-4.00907e-15 -3.63926 6.30081)
(-2.20152e-15 -0.71333 6.45578)
(4.80701e-16 3.47161 2.63336)
(2.33959e-16 4.69635 0.528126)
(-9.49773e-17 1.58277 0.992326)
(-1.50118e-16 -0.937686 -1.67768)
(-2.49622e-16 1.93336 -0.0610617)
(6.75881e-17 1.6883 -0.456364)
(8.994e-14 -4.11131 6.87716)
(-9.17362e-15 -1.14231 -0.561558)
(1.09165e-14 -1.75667 4.11121)
(3.96424e-15 -1.52218 3.25792)
(1.73054e-15 -1.5061 5.03511)
(2.98543e-16 -1.39151 5.74498)
(7.85446e-17 -1.35597 6.37975)
(-1.61008e-17 -1.54346 6.10455)
(-2.94775e-16 -2.08179 5.2203)
(-8.47183e-16 -3.04319 4.30343)
(-1.7629e-15 -4.05127 4.16385)
(-2.39695e-15 -3.96252 4.89722)
(-9.6495e-16 0.185783 3.79504)
(5.48105e-16 4.59993 -0.0653609)
(1.48891e-16 4.94663 -0.154402)
(3.03691e-17 1.78445 1.33991)
(1.0987e-16 -0.800344 -0.336814)
(7.35087e-17 0.34562 -0.187248)
(-5.60522e-17 0.847477 -0.0390208)
(7.45201e-14 1.9337 4.60897)
(-6.86824e-15 -0.411197 0.365371)
(9.04557e-15 0.950491 3.45437)
(4.08139e-15 0.522058 2.6585)
(2.05129e-15 1.42624 4.08526)
(5.38661e-16 1.86142 4.74723)
(1.93751e-16 2.20605 5.93247)
(1.9212e-16 1.54897 6.72346)
(8.06169e-17 0.126129 6.96406)
(-2.60341e-16 -1.78666 6.56554)
(-7.63926e-16 -3.60559 5.895)
(-9.87004e-16 -3.48528 4.92456)
(6.83141e-17 1.47782 1.26854)
(3.74226e-16 5.04273 -1.65475)
(6.01483e-17 4.36954 -0.028707)
(-1.35854e-17 1.50981 1.86954)
(2.34507e-17 -0.20317 0.86771)
(1.29079e-17 0.927167 -0.00531141)
(2.85288e-17 1.32176 0.161309)
(6.06792e-14 -12.6808 8.33764)
(-4.47438e-15 -1.73594 -2.12133)
(6.08169e-15 -4.97454 4.23171)
(3.0728e-15 -3.55286 2.69286)
(1.62253e-15 -4.11893 4.32232)
(5.14127e-16 -4.03424 4.89285)
(1.98783e-16 -4.11656 6.22487)
(2.65391e-16 -3.77618 7.08007)
(3.6525e-16 -3.44374 7.53903)
(3.31614e-16 -3.41145 7.48908)
(1.78831e-16 -3.53624 6.77165)
(1.52734e-16 -2.23505 4.3461)
(5.44429e-16 2.11347 -1.36138)
(1.58273e-16 4.69004 -1.96982)
(-1.13066e-17 3.2969 0.719995)
(-3.85319e-18 1.06645 2.10137)
(-1.20003e-18 -0.21958 0.817123)
(-7.99027e-18 0.612673 -0.0846847)
(-3.5256e-18 1.16313 0.367324)
(3.62407e-14 20.9007 -4.11623)
(-2.17101e-15 -1.46149 1.78383)
(4.30102e-15 7.62766 0.795826)
(2.85164e-15 3.53981 0.315192)
(1.76922e-15 5.46917 1.09967)
(7.40043e-16 4.7438 1.45746)
(2.65384e-16 4.9849 2.52624)
(2.21481e-16 4.11625 3.857)
(3.80697e-16 2.40675 5.64013)
(5.84355e-16 -0.185206 7.04094)
(7.3169e-16 -2.0417 6.37698)
(7.15287e-16 -0.148727 1.6898)
(2.86498e-16 4.02852 -3.02918)
(9.2549e-18 4.94945 -1.26664)
(-1.59415e-17 3.20427 1.60262)
(2.76918e-18 1.66088 2.09211)
(8.28893e-19 0.933383 0.950397)
(2.60545e-18 1.2095 -0.211608)
(5.85088e-18 1.8112 0.456449)
(2.40843e-15 -44.1651 37.1968)
(2.30893e-16 -0.653099 -0.899269)
(6.93087e-16 -16.3706 15.8999)
(4.69572e-16 -9.23024 9.06556)
(5.54256e-17 -11.9581 12.081)
(-1.30006e-16 -10.3827 10.8794)
(-1.40227e-16 -10.3636 11.3336)
(7.6233e-17 -9.4086 10.7578)
(4.63653e-16 -8.30228 9.75319)
(8.66977e-16 -5.9053 7.31041)
(9.14572e-16 -1.70393 3.04763)
(3.03773e-16 2.89568 -2.09469)
(7.80504e-19 4.78474 -1.52998)
(-2.32714e-17 4.82483 0.0760028)
(2.13463e-18 3.60133 1.0113)
(1.44746e-19 2.48812 0.978835)
(-3.70158e-19 1.66252 0.52663)
(-6.07866e-19 1.51279 -0.108207)
(1.05811e-19 1.94711 0.282282)
(1.60355e-16 8.46484 15.6314)
(-4.99185e-15 11.7415 18.7144)
(-4.92783e-15 9.73649 16.9473)
(-4.82115e-15 9.92507 15.6422)
(-4.28008e-15 9.38186 15.7045)
(-6.30106e-15 9.80898 15.4217)
(-5.39108e-15 9.43444 15.233)
(-4.41923e-15 9.65163 15.2016)
(-4.2432e-15 9.59538 15.2676)
(-4.13315e-15 9.63097 15.2219)
(-4.17219e-15 9.62565 15.1669)
(-4.19062e-15 9.52563 15.1657)
(-4.40629e-15 9.58577 15.0538)
(-4.40051e-15 9.36787 15.1297)
(-4.4509e-15 9.49285 14.9973)
(-4.26292e-15 9.16239 15.1756)
(-4.41836e-15 9.37612 15.0276)
(-4.19929e-15 9.0171 15.4361)
(-4.40863e-15 9.12504 14.8554)
(-3.75574e-15 8.28475 14.7373)
(2.34843e-17 8.50606 15.5667)
(-4.20119e-15 10.2488 16.5526)
(-3.44204e-15 8.14166 15.2574)
(-3.91768e-15 9.0065 14.6641)
(-3.48165e-15 8.19122 15.0471)
(-6.0422e-15 8.85663 14.6321)
(-3.84515e-15 8.33798 14.9041)
(-3.64344e-15 8.70746 14.6085)
(-3.79495e-15 8.42595 14.7002)
(-3.51773e-15 8.57504 14.597)
(-3.69387e-15 8.51182 14.618)
(-3.67664e-15 8.50376 14.6455)
(-3.69979e-15 8.58661 14.5892)
(-3.82511e-15 8.46073 14.7035)
(-3.75917e-15 8.64048 14.57)
(-3.71665e-15 8.4282 14.7531)
(-4.01731e-15 8.69497 14.5942)
(-3.82732e-15 8.52867 14.9915)
(-4.07228e-15 8.68033 14.5045)
(-4.01319e-15 7.67262 13.4979)
(2.27306e-18 8.92499 16.4142)
(-1.80015e-15 10.0495 16.4525)
(-1.03302e-15 8.577 15.8658)
(-1.23841e-15 9.31727 15.3476)
(-1.37921e-15 8.56236 15.5524)
(-3.38694e-15 9.1046 15.1741)
(-1.78008e-15 8.56325 15.2693)
(-1.67178e-15 8.87357 14.9916)
(-1.91799e-15 8.56146 15.0331)
(-1.46403e-15 8.70161 14.8759)
(-1.58376e-15 8.56652 14.8647)
(-1.62375e-15 8.58286 14.8171)
(-1.67717e-15 8.57563 14.7592)
(-1.7553e-15 8.50457 14.7971)
(-1.67987e-15 8.58328 14.6957)
(-1.63201e-15 8.47195 14.8272)
(-1.7019e-15 8.67004 14.7897)
(-1.65629e-15 8.67809 15.1912)
(-1.51374e-15 8.81703 14.9301)
(-1.77922e-15 7.47413 12.9985)
(-7.19791e-19 8.82626 16.0326)
(3.53109e-16 9.44381 15.7902)
(2.62381e-16 8.54021 15.6122)
(3.39663e-16 9.08152 15.2874)
(2.0119e-16 8.49339 15.3935)
(-2.12824e-15 8.88217 15.0887)
(-1.81503e-15 8.43342 15.1359)
(-1.74512e-15 8.67825 14.8973)
(-1.86903e-15 8.39551 14.9194)
(-1.51009e-15 8.5292 14.7837)
(-1.45497e-15 8.39398 14.7878)
(-1.55251e-15 8.44472 14.7401)
(-1.70025e-15 8.41252 14.7168)
(-1.65179e-15 8.40516 14.7288)
(-1.90452e-15 8.4367 14.68)
(-1.58465e-15 8.43729 14.8005)
(-1.78173e-15 8.62219 14.9238)
(-1.61996e-15 8.81928 15.3836)
(-1.46621e-15 8.97012 15.3606)
(-1.71248e-15 7.16715 12.2954)
(-2.95883e-19 8.575 15.4374)
(-8.46199e-17 9.26228 15.7707)
(-6.25974e-17 8.69298 15.6094)
(-8.27772e-17 8.98776 15.3863)
(-3.67352e-17 8.59266 15.3765)
(4.99338e-16 8.79292 15.1589)
(4.04788e-16 8.48588 15.1191)
(3.99097e-16 8.61046 14.9485)
(4.45041e-16 8.41731 14.9266)
(3.58342e-16 8.49711 14.8322)
(3.83517e-16 8.40085 14.8298)
(3.90229e-16 8.45078 14.797)
(3.9685e-16 8.41776 14.7986)
(4.1077e-16 8.4479 14.7991)
(4.03753e-16 8.45282 14.8057)
(3.91443e-16 8.54177 14.9319)
(4.12177e-16 8.73427 15.227)
(3.88493e-16 9.09319 15.7788)
(3.75875e-16 9.27648 15.9913)
(4.36825e-16 6.90102 11.7416)
(3.24756e-19 8.18754 14.5814)
(2.29093e-17 9.18571 15.8376)
(1.65127e-17 8.72534 15.4508)
(2.08678e-17 8.84572 15.32)
(8.79511e-18 8.61221 15.2541)
(-1.15629e-16 8.68435 15.1092)
(-9.9812e-17 8.50128 15.0386)
(-9.31407e-17 8.55082 14.9289)
(-1.00634e-16 8.44155 14.8953)
(-9.06919e-17 8.48829 14.8437)
(-1.00425e-16 8.44057 14.8468)
(-9.66808e-17 8.48914 14.8383)
(-1.00242e-16 8.47658 14.8622)
(-9.98248e-17 8.52842 14.8696)
(-9.45544e-17 8.53456 14.9164)
(-9.60711e-17 8.67051 15.0517)
(-1.03218e-16 8.87741 15.4602)
(-9.58243e-17 9.34562 16.127)
(-9.4275e-17 9.56772 16.5255)
(-1.08155e-16 6.57981 11.1421)
(-2.07992e-19 7.81827 13.803)
(-6.5254e-18 9.22898 16.0144)
(-4.69323e-18 8.74653 15.3423)
(-5.59903e-18 8.7739 15.2701)
(-2.21443e-18 8.65387 15.1935)
(3.03227e-17 8.66056 15.1022)
(2.51947e-17 8.57022 15.0332)
(2.4059e-17 8.58339 14.9708)
(2.51229e-17 8.53955 14.9422)
(2.45871e-17 8.56948 14.9225)
(2.61342e-17 8.56153 14.9325)
(2.50758e-17 8.60637 14.9417)
(2.70398e-17 8.61531 14.9785)
(2.58832e-17 8.67264 14.9955)
(2.4818e-17 8.68799 15.0592)
(2.52998e-17 8.82023 15.1788)
(2.58765e-17 9.01807 15.5961)
(2.49473e-17 9.52685 16.3595)
(2.41809e-17 9.78855 16.8738)
(2.66543e-17 6.21987 10.5374)
(9.28813e-20 7.49571 13.14)
(1.77777e-18 9.28715 16.1472)
(1.29005e-18 8.75901 15.2816)
(1.48533e-18 8.75513 15.2374)
(4.72159e-19 8.7038 15.1842)
(-8.33048e-18 8.69592 15.1303)
(-6.51659e-18 8.66435 15.0868)
(-6.4243e-18 8.67161 15.0566)
(-6.54899e-18 8.66783 15.0428)
(-6.55817e-18 8.69198 15.04)
(-6.69981e-18 8.70639 15.0529)
(-6.61425e-18 8.74266 15.0672)
(-7.2332e-18 8.76472 15.1021)
(-6.8817e-18 8.81088 15.1235)
(-6.87871e-18 8.83594 15.1796)
(-6.74298e-18 8.92832 15.2679)
(-6.65789e-18 9.09243 15.5986)
(-6.5686e-18 9.58295 16.4043)
(-6.402e-18 9.86677 16.9534)
(-6.69634e-18 5.81831 9.89299)
(-2.73092e-20 7.26386 12.6777)
(-4.14187e-19 9.33947 16.2129)
(-3.04339e-19 8.795 15.3034)
(-3.4431e-19 8.78881 15.2544)
(-6.83942e-20 8.76742 15.2364)
(2.13689e-18 8.77019 15.2061)
(1.60689e-18 8.76405 15.1911)
(1.61459e-18 8.77627 15.1782)
(1.62292e-18 8.78593 15.1761)
(1.62048e-18 8.80484 15.1768)
(1.61188e-18 8.82298 15.1851)
(1.65337e-18 8.84605 15.1957)
(1.80137e-18 8.87046 15.2178)
(1.72902e-18 8.89817 15.2389)
(1.77969e-18 8.92801 15.2758)
(1.67193e-18 8.97495 15.3328)
(1.66134e-18 9.08882 15.5365)
(1.63922e-18 9.53543 16.3267)
(1.63026e-18 9.80307 16.8226)
(1.64466e-18 5.41816 9.27236)
(4.53046e-21 7.1385 12.4287)
(7.34556e-20 9.36921 16.2135)
(5.39601e-20 8.83511 15.3504)
(6.11732e-20 8.82911 15.2815)
(-5.31243e-22 8.81298 15.2916)
(-4.70271e-19 8.82841 15.2765)
(-3.40154e-19 8.82424 15.2806)
(-3.44075e-19 8.8391 15.2755)
(-3.44202e-19 8.84469 15.2797)
(-3.44611e-19 8.85771 15.2805)
(-3.33944e-19 8.86909 15.2852)
(-3.55323e-19 8.881 15.2923)
(-3.79632e-19 8.89853 15.3026)
(-3.69239e-19 8.91118 15.3201)
(-3.84506e-19 8.93511 15.3386)
(-3.52441e-19 8.94752 15.3664)
(-3.62008e-19 9.01138 15.4637)
(-3.5272e-19 9.42531 16.219)
(-3.58419e-19 9.64695 16.6142)
(-3.55484e-19 5.11202 8.83935)
(-5.22021e-23 7.11411 12.3645)
(-8.30459e-21 9.37678 16.1856)
(-5.77475e-21 8.85428 15.3655)
(-6.83467e-21 8.83963 15.2803)
(3.73792e-21 8.82123 15.3027)
(8.23967e-20 8.83904 15.2985)
(5.49033e-20 8.82927 15.31)
(5.49893e-20 8.84048 15.3102)
(5.58428e-20 8.8378 15.3176)
(5.80585e-20 8.84433 15.3203)
(5.39555e-20 8.84599 15.325)
(6.03059e-20 8.8502 15.3307)
(6.13997e-20 8.8559 15.3363)
(6.14823e-20 8.85979 15.3484)
(6.35367e-20 8.8692 15.356)
(5.79228e-20 8.86182 15.3593)
(6.35198e-20 8.89384 15.4058)
(6.01666e-20 9.29444 16.134)
(6.18881e-20 9.48226 16.4721)
(5.90574e-20 5.05565 8.86025)
(-1.52045e-22 7.16115 12.4144)
(6.1509e-22 9.36284 16.144)
(3.56237e-22 8.84403 15.3291)
(4.63872e-22 8.81575 15.2373)
(-8.152e-22 8.79798 15.2599)
(-1.1146e-20 8.80996 15.2625)
(-6.26915e-21 8.79762 15.2742)
(-5.85474e-21 8.80211 15.2784)
(-6.39002e-21 8.79463 15.2867)
(-7.47047e-21 8.79525 15.2918)
(-6.42147e-21 8.79017 15.2984)
(-7.68508e-21 8.78977 15.3041)
(-6.86438e-21 8.78558 15.3106)
(-7.54136e-21 8.7859 15.3181)
(-7.20685e-21 8.78116 15.3236)
(-6.79808e-21 8.76824 15.3126)
(-8.52093e-21 8.78575 15.3502)
(-7.3117e-21 9.14983 16.0121)
(-7.38982e-21 9.38254 16.4578)
(-6.88327e-21 5.36774 9.50765)
(8.62021e-24 7.27084 12.5633)
(-4.37334e-22 9.32302 16.0665)
(-3.52332e-22 8.81803 15.2644)
(-3.5915e-22 8.78184 15.1744)
(-1.47886e-22 8.76775 15.193)
(1.98058e-21 8.77357 15.1971)
(1.34461e-21 8.76273 15.2067)
(1.20675e-21 8.76258 15.2121)
(1.34349e-21 8.75491 15.2199)
(1.56595e-21 8.75239 15.2259)
(1.4522e-21 8.7455 15.2334)
(1.54496e-21 8.74308 15.239)
(1.33757e-21 8.73497 15.247)
(1.51587e-21 8.7342 15.2516)
(1.31596e-21 8.72314 15.2593)
(1.27114e-21 8.71537 15.2491)
(1.64317e-21 8.71329 15.2667)
(1.24027e-21 8.97311 15.7426)
(1.29704e-21 9.3649 16.5036)
(1.17139e-21 6.00658 10.6751)
(2.16293e-23 7.43965 12.8212)
(3.50497e-22 9.26021 15.9481)
(2.99113e-22 8.78908 15.1963)
(2.98886e-22 8.75736 15.1188)
(1.65832e-22 8.74684 15.1341)
(-9.82233e-22 8.75038 15.1365)
(-9.55837e-22 8.74235 15.1439)
(-9.5881e-22 8.74127 15.1482)
(-9.44624e-22 8.73569 15.1546)
(-9.17169e-22 8.733 15.1597)
(-9.70484e-22 8.72763 15.1664)
(-9.18748e-22 8.72525 15.1711)
(-9.60968e-22 8.71822 15.1787)
(-9.4838e-22 8.71775 15.1818)
(-9.28432e-22 8.70751 15.1912)
(-8.30649e-22 8.70801 15.1885)
(-8.86865e-22 8.6914 15.1895)
(-8.06917e-22 8.82455 15.4214)
(-8.84462e-22 9.31749 16.3789)
(-6.10181e-22 6.76256 11.9781)
(-1.24013e-23 7.6432 13.1561)
(-1.66406e-22 9.18317 15.8096)
(-1.44358e-22 8.76278 15.1398)
(-1.44542e-22 8.74217 15.0813)
(-6.9454e-23 8.73379 15.0942)
(5.19247e-22 8.73755 15.0953)
(5.31595e-22 8.73185 15.1012)
(5.52885e-22 8.73162 15.1042)
(5.24263e-22 8.72821 15.1092)
(4.81528e-22 8.72657 15.1131)
(5.22081e-22 8.7235 15.1182)
(4.90011e-22 8.72202 15.1221)
(5.43194e-22 8.71788 15.1282)
(5.12069e-22 8.7181 15.131)
(5.30414e-22 8.7113 15.1394)
(4.61417e-22 8.71568 15.1407)
(4.63055e-22 8.70138 15.1465)
(4.61618e-22 8.75178 15.2141)
(5.07116e-22 9.17959 16.0425)
(3.04381e-22 7.4009 13.0198)
(4.32002e-24 7.85205 13.5125)
(5.73797e-23 9.09793 15.6655)
(5.02586e-23 8.73948 15.0962)
(5.04954e-23 8.72909 15.0566)
(2.04982e-23 8.72195 15.0672)
(-2.08579e-22 8.72578 15.0683)
(-2.13065e-22 8.7217 15.0732)
(-2.24574e-22 8.72196 15.0759)
(-2.09429e-22 8.71997 15.0799)
(-1.88681e-22 8.71907 15.0834)
(-2.05137e-22 8.71754 15.0874)
(-1.93302e-22 8.71672 15.091)
(-2.18803e-22 8.71469 15.0958)
(-2.02498e-22 8.71519 15.0989)
(-2.15334e-22 8.71125 15.1055)
(-1.85256e-22 8.71513 15.1072)
(-1.82297e-22 8.70636 15.1161)
(-1.8717e-22 8.73038 15.1386)
(-2.05879e-22 9.03098 15.7123)
(-1.16281e-22 7.82017 13.6717)
(-1.16157e-24 8.04989 13.8533)
(-1.58541e-23 9.01056 15.5223)
(-1.39727e-23 8.71917 15.0614)
(-1.40881e-23 8.71605 15.0369)
(-4.7739e-24 8.70987 15.0454)
(6.61573e-23 8.71294 15.0469)
(6.69158e-23 8.71017 15.051)
(7.10851e-23 8.71021 15.0539)
(6.56963e-23 8.70905 15.0574)
(5.87297e-23 8.70838 15.0608)
(6.37587e-23 8.70752 15.0644)
(6.03298e-23 8.70698 15.068)
(6.91018e-23 8.70588 15.0722)
(6.32594e-23 8.70633 15.0756)
(6.83885e-23 8.70378 15.0813)
(5.84806e-23 8.70702 15.0832)
(5.7059e-23 8.70002 15.0903)
(5.92647e-23 8.71664 15.1048)
(6.50563e-23 8.93139 15.5099)
(3.5711e-23 8.07288 14.0659)
(2.60422e-25 8.23739 14.1743)
(3.69251e-24 8.92407 15.379)
(3.26733e-24 8.70198 15.0326)
(3.3057e-24 8.70405 15.0189)
(9.1534e-25 8.69888 15.0254)
(-1.74079e-23 8.70071 15.0271)
(-1.74262e-23 8.69908 15.0304)
(-1.86257e-23 8.6987 15.0332)
(-1.71048e-23 8.69797 15.0364)
(-1.52379e-23 8.69734 15.0396)
(-1.651e-23 8.69674 15.0431)
(-1.56797e-23 8.69628 15.0466)
(-1.812e-23 8.69561 15.0506)
(-1.64554e-23 8.69583 15.0542)
(-1.80114e-23 8.69417 15.0594)
(-1.53395e-23 8.69702 15.062)
(-1.48947e-23 8.69096 15.0696)
(-1.55613e-23 8.70362 15.0754)
(-1.70304e-23 8.85448 15.3698)
(-9.17191e-24 8.2561 14.3674)
(-5.04469e-26 8.42282 14.4914)
(-7.47969e-25 8.83887 15.2319)
(-6.63762e-25 8.69073 15.0119)
(-6.7377e-25 8.69531 15.0051)
(-1.46818e-25 8.69193 15.0089)
(3.94221e-24 8.69221 15.0104)
(3.91061e-24 8.69125 15.0126)
(4.20304e-24 8.69044 15.0148)
(3.83951e-24 8.6896 15.0171)
(3.41524e-24 8.6887 15.0197)
(3.69309e-24 8.68781 15.0225)
(3.52031e-24 8.68694 15.0254)
(4.10243e-24 8.68607 15.0288)
(3.69881e-24 8.68547 15.0322)
(4.09078e-24 8.68433 15.0365)
(3.471e-24 8.68534 15.0398)
(3.35868e-24 8.68108 15.047)
(3.52031e-24 8.69105 15.0483)
(3.84311e-24 8.77268 15.2323)
(2.03251e-24 8.42337 14.6449)
(7.1939e-27 8.61057 14.8238)
(1.11973e-25 8.75281 15.0802)
(9.96096e-26 8.69283 15.0032)
(1.01366e-25 8.69503 15.0014)
(1.73673e-26 8.69445 15.002)
(-6.45893e-25 8.69411 15.0026)
(-6.38001e-25 8.69369 15.0031)
(-6.88357e-25 8.69308 15.0038)
(-6.26478e-25 8.69235 15.0046)
(-5.5686e-25 8.69146 15.0056)
(-6.00719e-25 8.69041 15.0067)
(-5.74782e-25 8.68917 15.008)
(-6.74519e-25 8.68775 15.0095)
(-6.05614e-25 8.68607 15.0113)
(-6.75709e-25 8.68419 15.0133)
(-5.72519e-25 8.6821 15.0156)
(-5.52559e-25 8.67894 15.0189)
(-5.79888e-25 8.67944 15.0202)
(-6.33135e-25 8.69417 15.0843)
(-3.28886e-25 8.59336 14.8932)
(-1.75744e-26 -2.56667 16.96)
(-7.45921e-26 -8.03029 13.5922)
(-5.26545e-26 -5.17095 14.4407)
(-1.52686e-26 -4.99278 14.045)
(3.83181e-26 -4.07993 13.9999)
(9.63529e-26 -3.5226 13.8211)
(1.09486e-25 -2.95135 13.6564)
(9.67735e-26 -2.48172 13.4569)
(8.09678e-26 -2.07295 13.2405)
(6.67614e-26 -1.74573 13.0202)
(5.27673e-26 -1.51143 12.8275)
(3.16547e-26 -1.3862 12.6839)
(1.41448e-27 -1.36582 12.5676)
(4.3805e-26 -1.4309 12.3974)
(4.78215e-25 -1.56348 12.0785)
(1.77115e-24 -1.71665 11.599)
(3.54179e-24 -1.91506 10.9702)
(3.21786e-24 -2.46425 9.96155)
(-1.39546e-24 -2.58754 8.54349)
(-3.83055e-24 0.249505 6.45613)
(1.01653e-26 -11.1837 28.3557)
(5.14073e-25 -16.8669 24.9456)
(5.24073e-25 -11.9211 25.3379)
(3.96162e-25 -12.4822 23.6856)
(7.36001e-26 -10.7275 22.9775)
(-7.51713e-25 -10.0041 21.9354)
(-1.26983e-24 -8.9569 21.0643)
(-1.32549e-24 -8.11661 20.161)
(-1.21168e-24 -7.2761 19.3041)
(-1.06559e-24 -6.50408 18.4527)
(-9.02306e-25 -5.73672 17.5582)
(-6.51343e-25 -4.93006 16.4938)
(-1.75093e-25 -4.05363 15.1395)
(-1.56231e-26 -3.19117 13.4783)
(-3.60677e-24 -2.52547 11.6161)
(-1.67205e-23 -2.14962 9.72581)
(-3.03038e-23 -1.93162 7.86689)
(1.66345e-23 -1.64323 5.62833)
(2.18453e-22 -0.982406 2.66969)
(3.62918e-22 -0.114859 0.248412)
(7.14027e-26 -14.4022 30.9198)
(-2.28623e-24 -18.2061 28.1243)
(-2.71634e-24 -13.6301 28.0084)
(-2.50859e-24 -14.4557 25.7542)
(-2.76217e-24 -12.4226 24.856)
(1.56381e-24 -11.9273 23.3489)
(6.98234e-24 -10.8284 22.2059)
(9.52617e-24 -10.0919 20.9827)
(9.91764e-24 -9.30071 19.8859)
(9.54719e-24 -8.62005 18.8176)
(8.88603e-24 -7.8984 17.6868)
(8.27647e-24 -6.97414 16.1469)
(7.74785e-24 -5.50729 13.6309)
(3.31089e-24 -3.20222 9.55833)
(-1.27992e-23 -0.353732 4.30527)
(-1.45351e-23 1.82011 -0.0512543)
(1.30358e-22 2.80848 -2.3056)
(5.96629e-22 3.60983 -4.15876)
(1.28901e-21 4.21674 -5.45846)
(1.59004e-21 2.63856 -4.12451)
(-8.4591e-25 -15.7535 31.8466)