/*--------------------------------*- C++ -*----------------------------------*\
| =========                 |                                                 |
| \\      /  F ield         | OpenFOAM: The Open Source CFD Toolbox           |
|  \\    /   O peration     | Version:  4.1                                   |
|   \\  /    A nd           | Web:      www.OpenFOAM.org                      |
|    \\/     M anipulation  |                                                 |
\*---------------------------------------------------------------------------*/
FoamFile
{
    version     2.0;
    format      ascii;
    class       volScalarField;
    location    "19";
    object      p;
}
// * * * * * * * * * * * * * * * * * * * * * * * * * * * * * * * * * * * * * //

dimensions      [0 2 -2 0 0 0 0];

internalField   nonuniform List<scalar> 
1280
(
0.140781
0.276621
0.56121
0.265424
0.395504
0.338746
-0.217507
-0.511725
-1.01365
-1.35627
-2.66917
-2.74919
-3.73097
-6.30806
-5.6432
-8.09277
-11.1586
-13.9916
-10.7604
-30.4743
-11.497
9.99615
21.8175
19.8998
17.0379
24.1676
14.1518
10.7288
7.5182
7.84221
7.28572
6.52001
5.88306
4.58009
3.21268
0.880404
-0.443421
-1.26342
1.43751
7.01744
-12.9197
-5.19607
0.683363
5.60068
16.7793
17.1785
16.9195
17.0362
16.2677
16.9987
16.8077
16.3081
17.1841
16.8483
16.7945
16.5945
5.8724
0.33076
-6.30792
-7.29238
4.50663
-2.76722
-5.431
-2.98627
-1.55812
0.834693
2.16406
3.93099
5.2027
6.48395
7.46867
8.23753
8.58342
-3.57491
30.827
25.0288
23.3762
24.9379
12.5386
-7.53288
-22.6019
-6.77814
-8.60393
-7.821
-4.77305
-2.67108
-4.75056
-2.15451
-1.08079
-2.61911
-1.03449
-0.469508
-1.14193
-1.28635
-0.53504
0.368802
-0.990798
-0.270224
0.124451
-0.56745
-2.2479
-3.42862
-1.41006
-1.21302
0.956733
0.194334
0.177572
0.225055
0.211674
-0.00464245
-0.0420164
-0.27747
-1.78709
-2.12318
-2.44755
-0.618567
0.375217
0.273029
0.545074
0.527836
1.27678
-0.61628
-1.60814
1.63993
0.49301
0.467447
0.560613
0.600739
0.369638
1.02315
1.28272
-5.15978
-7.88598
-6.69649
-1.9804
0.349711
0.521596
0.605371
-1.56699
-2.36392
-2.79991
-2.18679
1.80218
0.693839
0.603576
0.598676
0.544046
0.595744
1.90015
2.28095
-10.2742
-13.5908
-10.5108
-2.65035
0.685055
0.646639
0.755048
-0.934427
-2.75072
-5.22016
-2.95438
1.85316
0.820943
0.589412
0.461461
0.521908
1.2956
3.25299
3.95012
-12.3506
-15.4942
-12.7433
-3.40834
1.27989
1.30825
1.3601
-1.52095
-4.73379
-8.15061
-3.91007
1.56186
0.72177
0.29972
0.122104
0.731926
2.44465
4.82524
5.54939
-11.8335
-15.643
-13.4852
-3.92602
1.8447
1.35006
1.16015
-1.44225
-5.39766
-9.8853
-4.61945
1.00488
0.408271
-0.142009
-0.155992
1.28178
3.72442
5.90264
6.95929
-8.90799
-15.6174
-13.7569
-4.9688
3.02616
3.23155
2.18333
-1.61029
-5.92842
-10.6197
-5.01619
0.154205
-0.206255
-0.644879
-0.15131
2.06906
4.72761
4.82491
5.0683
-6.93362
-14.3307
-11.6022
-5.87415
3.43806
1.24821
0.78751
-1.57362
-5.59672
-9.9812
-4.94244
-0.502282
-0.729094
-0.933385
0.273407
3.05981
5.0488
0.799808
-1.54847
-7.98143
-11.6744
-12.0583
-7.96374
5.83171
8.60553
4.84195
-1.52609
-4.89384
-8.6708
-4.55527
-0.59899
-0.951421
-1.06524
0.483554
3.48892
4.35566
-5.53207
-9.9713
-8.37746
-4.29556
-7.20517
-6.38416
3.50502
17.2494
22.319
-1.32546
-3.84687
-7.39765
-4.17542
-0.219527
-0.808659
-1.28416
0.254236
3.27591
2.72794
-12.1326
-16.7906
-5.2656
5.12512
5.54854
-1.46645
3.35629
27.7197
16.1927
-0.906661
-2.00209
-5.73869
-3.59418
-0.117869
-0.679594
-1.17777
0.744494
3.83794
2.04226
-15.5839
-19.8461
-0.872239
10.6555
11.9941
-0.307943
1.41007
28.2298
18.0773
-0.107852
1.20499
-2.59801
-2.2716
-0.364804
-1.03553
-1.11212
2.02041
5.96397
3.06296
-15.5298
-19.1877
1.84632
14.1025
16.6849
-0.80837
-5.88844
13.5317
21.5646
1.09681
5.5541
2.16456
0.19844
-0.679377
-2.92377
-2.35251
3.15403
8.89984
4.45391
-14.325
-15.8218
3.39078
11.2686
12.2944
-6.35731
-17.0498
-7.59494
-0.719323
2.5286
10.26
7.53687
3.36205
-0.927173
-5.42308
-4.04003
3.29467
9.84586
5.1502
-10.3343
-9.91156
6.49322
10.9629
8.76196
-10.6575
-21.7062
-15.8865
-3.06175
3.73062
14.087
11.811
6.04028
-1.54453
-7.59505
-5.20742
3.35892
9.15124
4.54247
-6.48546
-5.52271
8.40318
11.5491
8.09891
-9.00029
-16.4872
-10.9004
-2.11413
4.28914
15.9652
13.8302
7.45907
-2.74644
-8.53312
-6.21513
3.08879
7.08511
3.37551
-3.55328
-2.41014
8.70101
11.6414
7.96702
-5.39632
-12.4672
-9.39124
-2.91679
4.16883
15.4309
13.2983
6.92342
-4.16029
-6.91832
-6.56769
2.84541
5.27266
2.79731
-1.511
-0.600508
7.78613
10.8951
7.0326
-2.96592
-7.97988
-5.86813
-1.66151
3.49299
12.3358
11.059
5.39552
-5.13584
-5.09027
-5.77528
2.26117
3.78371
2.18747
-0.506476
0.199974
6.17069
9.14689
5.24453
-1.67778
-5.01064
-3.98636
-1.33535
2.60226
8.08942
6.75555
2.25958
-4.76622
-4.62607
-4.64019
1.61361
2.69874
1.73348
0.155952
0.531064
4.41286
6.43813
3.07417
-0.680353
-2.40945
-2.02562
-0.67442
0.883546
2.5431
2.36774
1.45512
-2.39829
-3.77729
-3.6997
-0.138771
0.575644
0.137191
-0.445747
-0.189667
1.56965
2.45009
0.865674
-0.218464
-0.656236
-0.6769
-0.190412
155.636
153.213
151.33
151.174
147.938
145.629
141.892
140.235
136.837
134.443
131.872
129.53
127.563
125.535
124.306
122.541
122.247
120.324
120.997
119.347
100.065
99.8178
101.072
102.392
102.448
102.798
102.228
102.255
102.192
102.132
102.222
102.122
102.312
102.163
102.578
102.351
103.223
102.8
104.317
104.286
120.322
119.22
120.741
120.97
120.934
120.175
120.03
119.014
118.693
117.902
117.629
117.042
116.942
116.416
116.561
115.961
116.506
115.782
116.98
116.658
103.068
102.921
105.016
105.5
106.336
105.939
106.36
105.861
105.982
105.721
105.865
105.781
106.128
106.083
106.684
106.587
107.49
107.364
108.804
109.202
103.063
102.863
104.993
104.981
106.484
105.84
106.437
106.187
106.222
106.188
106.215
106.27
106.555
106.608
107.228
107.227
108.192
108.198
109.721
110.132
90.7109
90.88
92.8119
92.4961
94.9381
93.7615
94.4279
94.7384
94.6676
95.1102
95.0396
95.4091
95.7107
96.0442
96.8239
97.1537
98.4201
98.8369
100.741
101.435
84.7989
85.2106
86.2807
85.6636
89.0635
86.7384
87.2597
88.0302
87.5101
88.2599
87.8021
88.195
88.2389
88.4917
89.1503
89.4822
90.8606
91.3763
93.6411
94.1742
77.9583
79.097
78.8649
78.3873
82.9295
79.0496
79.3828
80.8468
79.6815
80.6861
79.8797
80.1404
79.9785
79.9458
80.4241
80.4753
81.7937
82.0962
84.5352
84.9643
75.2458
77.2393
75.3657
75.135
80.9124
75.7443
75.6401
77.8793
76.1912
77.1447
76.2053
76.0842
75.7875
75.2932
75.4815
75.0266
75.8721
75.707
77.7077
77.9784
73.4966
76.2725
72.7724
72.7517
80.455
73.863
72.9344
76.6149
74.796
75.4452
74.7957
74.2806
74.0762
73.2316
73.1848
72.3128
72.5566
71.8983
73.0438
73.3307
70.4997
73.1237
69.616
69.6719
77.3868
72.552
71.5212
75.1783
74.939
74.8887
75.3159
74.83
75.3842
74.7884
75.2489
74.3518
74.8343
74.1475
75.295
75.9545
61.8179
62.0891
63.5005
61.0723
67.187
66.7511
70.1473
67.3453
69.5086
67.5165
68.5762
67.2415
67.5995
66.6483
66.7919
66.2713
66.8469
67.1961
68.3627
68.7044
66.3438
66.0849
66.5945
63.8319
66.5074
62.6044
65.6952
63.5682
65.1915
63.765
64.8072
64.3006
64.9112
65.0021
65.3334
65.2632
65.0875
65.291
65.8166
66.573
76.356
77.0818
78.1656
76.479
79.1065
76.1117
78.5943
75.3903
76.5549
75.0757
75.0777
73.9392
73.3307
72.3741
71.3276
70.2975
69.124
67.8846
67.7797
67.4609
65.4913
66.9899
69.5207
68.6108
72.0155
71.542
74.2358
74.9838
76.9213
78.2669
79.8819
81.381
82.8283
84.141
84.8888
84.6372
83.7041
82.7874
82.6431
82.8623
44.1067
43.524
46.4446
43.805
47.249
46.015
48.2019
48.7364
50.3453
51.7973
53.5373
55.4212
57.4555
59.6214
61.8355
64.0052
65.9302
67.7531
69.4819
71.9948
53.2516
49.6074
51.361
44.7946
44.8231
40.0347
38.0067
34.582
31.9862
29.2691
26.8862
24.7172
22.8725
21.4496
20.633
20.8024
21.9064
23.5909
24.7097
27.1768
65.7496
58.8198
66.3172
58.8099
60.2136
56.2164
54.2759
51.0216
48.0255
44.7003
41.3597
37.9355
34.5512
31.3448
28.5721
26.7354
26.2918
26.2181
25.4919
26.0617
85.666
63.6057
71.7886
60.6816
58.0604
51.4618
46.6472
41.5119
37.1374
33.2928
30.2347
28.0168
26.7558
26.5426
27.5172
29.8952
33.4024
37.047
40.054
41.2702
770.858
688.426
639.505
583.222
534.239
486.919
442.912
401.32
362.161
325.149
290.126
256.9
225.285
195.263
166.958
139.632
113.467
92.4697
68.3852
30.8459
731.091
648.215
599.027
542.505
493.354
445.952
401.949
360.454
321.486
284.757
250.1
217.313
186.183
156.62
128.613
101.252
74.8549
54.4645
31.5916
-4.9903
36.557
14.742
22.7833
11.7384
8.92905
2.2652
-2.73442
-8.03231
-12.6399
-16.7648
-20.1878
-22.8576
-24.6696
-25.5417
-25.3809
-24.2347
-22.1345
-19.2896
-16.3733
-13.0826
28.3907
23.6565
32.4182
26.6324
29.6515
27.4456
27.3468
26.0669
25.1418
24.0337
23.0521
22.1676
21.455
20.8683
20.336
19.9156
19.897
21.1994
23.3549
26.9006
58.177
56.7125
60.1311
55.4083
57.6855
55.2205
55.6582
54.8586
54.9521
54.9811
55.3676
55.9121
56.6502
57.5412
58.5497
59.4908
60.1721
60.2091
60.2537
60.4527
48.6132
45.911
47.3553
43.4044
45.0201
42.3748
42.8071
41.5284
41.3261
40.6128
40.0806
39.3563
38.4434
37.1559
36.0404
34.537
32.7133
30.8586
28.5876
25.581
4.96156
2.11336
2.3031
-1.62685
-1.54232
-5.39674
-5.2592
-7.43637
-9.26965
-12.19
-14.7182
-16.7015
-19.8364
-17.535
-16.76
-19.0128
-19.5069
-20.1467
-22.8557
-20.3026
-6.34335
-7.59609
-7.27031
-9.92797
-8.91828
-11.9053
-11.5459
-13.6083
-14.71
-16.2696
-18.4312
-18.3393
-22.3514
-26.1508
-36.9544
-38.4921
-38.8559
-38.0998
-38.3502
-34.4568
-14.3597
-14.0666
-13.2447
-14.9531
-13.4128
-15.4302
-14.5531
-15.9137
-16.0546
-16.4986
-17.2772
-17.202
-16.8117
-17.084
-15.8459
-17.0905
-13.3471
-7.70589
-13.2263
-7.51199
10.2076
13.2193
15.4456
16.2027
19.3439
19.7549
22.4689
23.1369
25.4579
26.8927
29.037
30.5142
32.5793
33.8372
35.768
37.5668
40.7288
44.5147
44.1348
47.6253
42.0013
45.6271
47.0432
48.2534
50.329
51.2295
53.1129
53.963
55.5923
56.4771
58.0311
58.8946
60.1103
60.7263
61.3108
61.8793
62.5642
63.6193
64.6918
67.1156
58.4969
61.1342
61.3442
62.115
63.0792
63.2098
64.1606
64.159
64.8896
64.8359
65.5027
65.4679
65.926
65.8207
65.9971
65.912
66.3709
66.4005
67.8611
68.4092
62.8808
64.4949
64.3624
64.7955
65.1999
64.7911
65.2977
64.7247
65.0121
64.4608
64.6549
64.2674
64.426
64.1683
64.448
64.3516
65.1092
65.279
67.3063
67.4795
65.5098
66.7516
67.2022
67.8476
68.2974
67.9372
68.4558
67.9376
68.2649
67.8733
68.1199
67.9407
68.2578
68.2095
68.8383
68.9717
70.1541
70.5484
72.7652
73.2744
73.7976
74.7132
75.7327
76.7247
76.9481
76.8185
76.9711
76.564
76.7467
76.3512
76.5349
76.1732
76.4431
76.0542
76.5784
76.24
77.1589
77.1105
78.819
79.068
76.4427
76.654
77.7551
78.8597
78.4282
78.3164
77.8219
77.3124
77.0661
76.4126
76.3733
75.6288
75.7702
74.9226
75.2815
74.3861
74.9722
74.281
75.5075
75.4483
77.6349
76.8673
77.8202
78.7297
77.7346
77.5507
76.6254
75.9748
75.3721
74.5271
74.251
73.3314
73.3416
72.3833
72.6579
71.6034
72.1227
71.0396
72.122
71.979
67.956
67.1888
68.2515
69.4755
68.4704
68.6297
67.8353
67.5268
67.106
66.6141
66.5745
66.1101
66.4356
66.0133
66.613
66.1384
67.013
66.3855
67.8603
68.2525
80.1247
79.018
79.8346
81.1608
80.0276
80.2576
79.37
79.1207
78.6049
78.2097
78.0788
77.7225
77.9632
77.61
78.1813
77.7087
78.6475
78.0681
79.499
79.696
65.4778
65.7193
66.4243
68.7774
68.0834
68.88
68.4044
68.7985
68.6881
68.8958
69.134
69.2839
69.8562
69.9244
70.838
70.7559
72.0619
71.9214
73.7325
74.2082
118.562
117.491
115.779
116.941
113.64
111.963
109.115
106.885
104.167
102.078
100.146
98.4104
97.1578
95.7219
95.13
93.8048
94.0307
92.5185
93.4698
92.3894
)
;

boundaryField
{
    outletWall
    {
        type            fixedValue;
        value           uniform 0;
    }
    fineWalls
    {
        type            zeroGradient;
    }
    fineFrontAndBack
    {
        type            zeroGradient;
    }
    fineplugLeft
    {
        type            cyclicAMI;
        value           nonuniform List<scalar> 
20
(
96.8811
97.085
96.0062
97.709
98.2087
100.087
101.344
103.227
104.928
106.955
109.123
110.974
114.334
127.367
121.336
121.758
124.919
125.428
124.57
122.209
)
;
    }
    fineplugRight
    {
        type            cyclicAMI;
        value           nonuniform List<scalar> 
20
(
74.8129
74.2224
72.9286
74.6273
74.7322
76.2709
77.0104
78.5125
79.7688
81.4132
83.156
84.981
87.2244
96.3013
95.7355
95.9176
98.2283
97.6106
96.5004
93.343
)
;
    }
    inletOutletLeft
    {
        type            cyclicAMI;
        value           nonuniform List<scalar> 
20
(
96.8811
97.085
96.0062
97.709
98.2087
100.087
101.344
103.227
104.928
106.955
109.123
110.974
114.334
127.367
121.336
121.758
124.919
125.428
124.57
122.209
)
;
    }
    inletLeft
    {
        type            zeroGradient;
    }
    inletWallsLeft
    {
        type            zeroGradient;
    }
    inletFacesLeft
    {
        type            zeroGradient;
    }
    inletOutletRight
    {
        type            cyclicAMI;
        value           nonuniform List<scalar> 
20
(
74.8129
74.2224
72.9286
74.6273
74.7322
76.2709
77.0104
78.5125
79.7688
81.4132
83.156
84.981
87.2244
96.3013
95.7355
95.9176
98.2283
97.6106
96.5004
93.343
)
;
    }
    inletRight
    {
        type            zeroGradient;
    }
    inletWallsRight
    {
        type            zeroGradient;
    }
    inletFacesRight
    {
        type            zeroGradient;
    }
}


// ************************************************************************* //
