/*--------------------------------*- C++ -*----------------------------------*\
| =========                 |                                                 |
| \\      /  F ield         | OpenFOAM: The Open Source CFD Toolbox           |
|  \\    /   O peration     | Version:  4.1                                   |
|   \\  /    A nd           | Web:      www.OpenFOAM.org                      |
|    \\/     M anipulation  |                                                 |
\*---------------------------------------------------------------------------*/
FoamFile
{
    version     2.0;
    format      ascii;
    class       surfaceScalarField;
    location    "19";
    object      phi;
}
// * * * * * * * * * * * * * * * * * * * * * * * * * * * * * * * * * * * * * //

dimensions      [0 3 -1 0 0 0 0];

internalField   nonuniform List<scalar> 
2360
(
-1680.62
247.211
-1927.83
247.213
247.212
2220.07
-1972.86
2220.07
2220.07
2220.07
4326.39
-2106.31
4326.38
4326.39
6652.68
-2326.29
6652.68
6652.68
9162.23
-2509.55
9162.23
9162.23
13188.1
-4025.85
13188.1
13188.1
14400.6
16151.6
17668.4
18970.9
20143.4
21395.2
16998.1
5542.18
18035.6
18999.7
19920.8
20804
21649.7
22444.5
23178
23829.9
24406.9
24937.2
25520.9
26256.8
27145.8
12196.7
14949.2
12196.7
12196.7
12196.7
317.231
11879.4
317.231
317.23
317.231
378.691
-61.4613
378.691
378.691
84.2126
294.478
84.2119
84.2114
84.2113
-11955.9
12040.2
-11955.9
-11955.9
-11955.9
-27405
15449
-26498.3
-25771
-25241.1
-24726.2
-24143.9
-23498.1
-22788.7
-22022.7
-21194.7
-20306
-19353.1
-18337.4
-17253.4
-20715.7
4616.68
-19490.5
-18191.5
-16820.6
-15340.1
-13618.6
-12521.7
-12521.7
-12521.7
-9443.72
-3077.93
-9443.72
-9443.72
-7731.57
-1712.15
-7731.57
-7731.57
-6363.47
-1368.11
-6363.47
-6363.47
-5305.96
-1057.51
-5305.96
-5305.96
-5305.96
-4484.27
-821.684
-4484.27
-4484.27
-3820.25
-664.025
-7269.95
-15962.6
-3810.91
-12503.9
-1604.23
2263.93
-1335.12
10575.2
-1376.66
5683.72
-1413.67
-79.0507
-1460.93
97.4677
-1380.74
582.292
-1148.5
114.301
-857.259
-1688.44
-363.219
-4470.73
650.313
-7639.84
1703.71
-7375.84
2084.18
2280.55
1784.12
8112.35
1461.85
8477.48
1210.08
6433.93
1116.78
6066.38
4113.16
-6420.34
-16906.9
-4053.56
-14870.7
-1795.67
6.04751
-1351.42
10131
-1488.79
5821.09
-1609.58
41.7313
-1835.6
323.496
-1854.17
600.858
-1682.54
-57.3266
-1437.31
-1933.67
-758.144
-5149.9
694.854
-9092.84
2010.92
-8691.91
2267.55
2023.92
1706.15
8673.75
1273.6
8910.03
1103.75
6603.79
1087.57
6082.56
4379.05
-5045.27
-17226.6
-4072.49
-15843.5
-2220.58
-1845.86
-1533.8
9444.2
-1863.56
6150.85
-2108.9
287.071
-2495.24
709.838
-2677.08
782.697
-2558.14
-176.27
-2227.53
-2264.28
-1342.2
-6035.23
-83.1347
-10351.9
722.903
-9497.94
1316.08
1430.74
1277.81
8712.02
939.494
9248.34
919.606
6623.68
1047.72
5954.44
4369.25
-4614.98
-17425.7
-4081.35
-16377.1
-2800.76
-3126.45
-2040.69
8684.13
-2326.68
6436.85
-2793.57
753.963
-3265.18
1181.44
-3560.25
1077.77
-3437.84
-298.681
-3019.59
-2682.52
-2435.87
-6618.94
-2260.69
-10527.1
-1973.25
-9785.39
-288.483
-254.022
495.001
7928.54
352.596
9390.74
573.843
6402.43
1000.31
5527.98
4001.46
-4492.94
-17496.6
-4342.86
-16527.2
-3653.34
-3815.97
-2754.34
7785.12
-2861.9
6544.41
-3560.6
1452.66
-4039.33
1660.17
-4328.45
1366.89
-4155.14
-471.987
-3912.29
-2925.38
-4494.37
-6036.86
-5682.84
-9338.62
-5126.73
-10341.5
-2102.93
-3277.82
-658.827
6484.43
-443.049
9174.97
205.264
5754.12
940.792
4792.45
3230.1
-4449.34
-17477.7
-4628.46
-16348.1
-4477.97
-3966.46
-3605.48
6912.63
-3580.7
6519.63
-4327.46
2199.43
-4629.23
1961.94
-4719.89
1457.55
-4731.78
-460.098
-5514.39
-2142.78
-7837.5
-3713.75
-9904.11
-7272
-8915.49
-11330.1
-4642.99
-7550.32
-2046.87
3888.31
-1695.6
8823.7
-804.381
4862.9
1124.52
2863.54
1276.7
-4535.37
-17319.9
-5036.77
-15846.7
-5275.12
-3728.1
-4507.9
6145.4
-4203.62
6215.35
-4544.79
2540.59
-4568.79
1985.94
-4842.91
1731.66
-6009.09
706.081
-8535.08
383.219
-11910.4
-338.43
-13889.7
-5292.69
-12850
-12369.8
-8239.11
-12161.2
-3646.04
-704.766
-2117
7294.66
-647.703
3393.6
1520.62
695.224
7414
-4811.39
-17029.2
-5504.94
-15153.1
-5916.34
-3316.7
-5173.2
5402.26
-4306.14
5348.29
-3996.71
2231.16
-4141
2130.23
-5330.63
2921.29
-7858.6
3234.06
-11326.7
3851.27
-14551
2885.91
-15803.2
-4040.46
-15049.6
-13123.4
-11976.5
-15234.4
-6482.55
-6198.69
-3161.76
3973.87
-4639.66
4871.51
-9396.14
5451.7
13466.9
-5204.74
-16613.4
-5958.13
-14399.7
-6247.12
-3027.72
-5395.78
4550.92
-4223.98
4176.49
-3895.02
1902.2
-4505.17
2740.39
-6046.53
4462.65
-8620.19
5807.72
-11801
7032.13
-14218.9
5303.81
-14436.2
-3823.16
-13904.2
-13655.5
-13861.7
-15276.9
-12811
-7249.37
-11884
3046.84
-13398.8
6386.37
-14803.1
6855.97
10703.9
-5690.23
-16069.6
-6476.68
-13613.3
-6507.8
-2996.61
-5813.01
3856.13
-5617.52
3981
-6383.09
2667.77
-7083.11
3440.4
-7705.67
5085.2
-9026.16
7128.21
-10856
8861.94
-11635.7
6083.5
-10418.9
-5039.97
-9977.6
-14096.7
-12648.6
-12605.9
-15280.2
-4617.72
-15841.4
3608.07
-14851.3
5396.2
-10599.9
2604.6
398.494
-6242.76
-15367
-7268.57
-12587.5
-7440.72
-2824.45
-7459.25
3874.65
-8788.69
5310.45
-10630.4
4509.53
-11126.3
3936.29
-10482.5
4441.39
-9975.39
6621.08
-9763.75
8650.3
-8448.45
4768.2
-5859.75
-7628.67
-5597.99
-14358.5
-10210.8
-7993.07
-14076.4
-752.141
-14603.5
4135.16
-13454.9
4247.55
-9471.84
-1378.41
-9134.81
-6735.81
-14497.9
-8231.5
-11091.8
-9038.01
-2017.94
-9826.86
4663.5
-11976.2
7459.8
-14284.6
6817.93
-14733.3
4385
-13319.1
3027.15
-11174.7
4476.74
-8670.76
6146.31
-5390.26
1487.7
-2679.4
-10339.5
-3340.26
-13697.6
-9070.59
-2262.74
-14840.7
5017.99
-16946
6240.41
-17034.8
4336.35
-15666.8
-2746.36
-12922.2
-6975.92
-13530
-8956.21
-9111.47
-10485.3
-488.894
-11696.8
5875.01
-13760.4
9523.41
-15554.6
8612.17
-15353.6
4184.04
-13336.4
1009.89
-10345.2
1485.51
-6472.31
2273.47
-2413.12
-2571.49
-1140.43
-11612.2
-2897.42
-11940.6
-6040.65
880.485
-9901.83
8879.17
-11814.1
8152.71
-10879.1
3401.37
-11339.3
-2286.17
-9312.33
-6826.86
-12612.4
-9097.37
-6840.96
-11220.2
1633.96
-12571.1
7225.9
-14056.3
11008.6
-14644.7
9200.66
-13015
2554.31
-10070.1
-1935.07
-6785.89
-1798.66
-3029.63
-1482.79
-163.699
-5437.42
-663.292
-11112.6
-2766.67
-9837.26
-3456.63
1570.45
-4156.1
9578.64
-4575.5
8572.1
-1616.85
442.718
585.574
-4488.59
-3184.58
-6263.32
-11928.2
-8457.89
-4646.39
-11037.2
4213.24
-12505.6
8694.33
-13258.4
11761.3
-12373.1
8315.44
-9384.1
-434.739
-6244.67
-5074.49
-3733.99
-4309.33
-1108.95
-4107.83
390.069
-6936.44
-515.489
-10207.1
-2016.9
-8335.85
-1750.11
1303.66
-359.154
8187.69
893.087
7319.86
1788.34
-452.537
2709.96
-5410.2
-4500.47
-5432.42
-11571.3
-7163.42
-2915.4
-9994.6
7044.43
-11690.6
10390.3
-11650.6
11721.3
-9118.16
5783.03
-5415.12
-4137.78
-2891.21
-7598.4
-1331.05
-5869.5
96.7401
-5535.62
599.987
-7439.69
-173.135
-9433.94
-1056.71
-7452.27
-539.679
786.626
1188.11
6459.9
3105.74
5402.24
3421.41
-768.212
2679.72
-4668.51
-4330.3
-4555.73
-11479.6
-5669.82
-1801.3
-8424.77
9799.38
-10323.1
12288.6
-9587.42
10985.7
-6034.01
2229.62
-2920.55
-7251.24
-1541.26
-8977.68
-559.227
-6851.53
358.8
-6453.65
672.825
-7753.72
215.012
-8976.13
-208.845
-7028.41
550.12
27.661
1820.39
5189.63
3207.13
4015.5
3293.89
-854.971
2675.57
-4050.19
-3981.02
-3743.65
-11550.7
-4334.07
-1210.89
-6703.66
12169
-8585.87
14170.8
-7359.32
9759.1
-3759.05
-1370.64
-1746.23
-9264.07
-1103.12
-9620.79
-359.435
-7595.22
340.347
-7153.43
656.624
-8069.99
485.08
-8804.59
422.888
-6966.22
1288.88
-838.332
2284.67
4193.84
3127.33
3172.83
3158.68
-886.317
2576.74
-3468.24
-3510.6
-3066.24
-11719.8
-3239.31
-1037.82
-5169.15
14098.8
-7007.82
16009.5
-5449.04
8200.32
-2411.1
-4408.58
-1292.37
-10382.8
-818.127
-10095
-180.976
-8232.37
367.077
-7701.48
668.43
-8371.35
710.989
-8847.15
879.872
-7135.11
1667.97
-1626.43
2425.43
3436.39
2941.54
2656.71
2857.79
-802.565
2372.96
-2983.41
-3110.5
-2688.66
-2522.15
-3551.28
-4899.13
-3867.74
-1903.02
-1119.84
-630.389
-128.416
326.662
659.752
871.823
1103.93
1603.03
2089.4
2382.05
2371.14
2229.45
210.51
-1423.04
428.549
-1969
553.466
-1641.74
646.443
-1395.51
750.372
-1276.43
877.658
-1379.05
889.25
-1156.7
885.291
-1033.52
873.281
-952.094
856.788
-904.608
829.364
-855.822
788.434
-804.787
730.932
-737.271
659.563
-662.127
568.037
-560.35
459.133
-468.146
332.062
-403.222
204.505
-456.155
107.267
-638.655
-781.757
61.7955
-1484.84
39.0667
-1946.27
34.9007
-1637.57
41.2833
-1401.89
74.7532
-1309.9
103.01
-1407.31
123.074
-1176.77
129.69
-1040.13
137.801
-960.206
147.793
-914.602
156.304
-864.334
161.65
-810.135
163.216
-738.839
167.806
-666.719
172.096
-564.642
169.389
-465.44
147.389
-381.225
110.941
-419.709
75.2146
-602.933
-706.542
3.13285
-1487.97
5.19135
-1948.33
62.6576
-1695.04
95.4998
-1434.73
136.994
-1351.4
151.196
-1421.51
215.483
-1241.06
248.037
-1072.69
258.616
-970.786
258.311
-914.299
251.284
-857.308
240.507
-799.359
224.811
-723.144
210.984
-652.893
204.126
-557.785
198.694
-460.009
183.805
-366.337
159.075
-394.98
107.879
-551.738
-598.663
26.6406
-1514.61
28.5787
-1950.27
77.0649
-1743.53
96.5381
-1454.21
131.144
-1386
155.286
-1445.65
182.525
-1268.3
201.346
-1091.51
209.716
-979.156
215.375
-919.96
215.872
-857.805
211.969
-795.456
201.364
-712.539
185.948
-637.478
177.745
-549.583
183.317
-465.581
192.396
-375.416
177.212
-379.797
111.223
-485.75
-487.44
41.9013
-1556.51
44.2998
-1952.67
89.9285
-1789.16
103.456
-1467.74
137.387
-1419.94
173.979
-1482.25
188.977
-1283.3
211.988
-1114.52
236.854
-1004.02
258.715
-941.823
270.885
-869.976
273.578
-798.15
268.601
-707.563
253.029
-621.906
235.177
-531.732
226.342
-456.747
226.874
-375.948
202.574
-355.498
121.435
-404.612
-366.005
52.8853
-1609.4
62.175
-1961.96
104.024
-1831.01
112.189
-1475.91
147.479
-1455.23
188.339
-1523.11
181.619
-1276.58
203.43
-1136.33
237.862
-1038.46
271.079
-975.04
291.519
-890.417
299.84
-806.473
299.57
-707.294
287.888
-610.225
263.056
-506.9
230.985
-424.678
203.475
-348.438
162.267
-314.29
81.82
-324.166
-284.185
38.522
-1647.93
50.4414
-1973.88
80.4591
-1861.03
84.9631
-1480.41
112.5
-1482.76
142.456
-1553.07
122.693
-1256.81
146.811
-1160.45
182.608
-1074.25
214.473
-1006.91
235.097
-911.041
244.938
-816.315
248.843
-711.2
242.382
-603.764
219.323
-483.842
178.823
-384.178
129.633
-299.249
70.8764
-255.533
9.1012
-262.391
-275.084
23.5855
-1671.51
35.6772
-1985.98
51.958
-1877.31
63.9279
-1492.38
80.1674
-1499
91.1768
-1564.08
74.1931
-1239.83
94.443
-1180.7
118.494
-1098.31
134.781
-1023.19
148.238
-924.499
154.018
-822.096
159.148
-716.33
152.568
-597.184
125.395
-456.67
78.9438
-337.727
21.8071
-242.113
-37.0602
-196.666
-61.1034
-238.348
-336.187
24.4243
-1695.94
24.1012
-1985.66
22.253
-1875.46
46.8424
-1516.98
51.6772
-1503.84
39.987
-1552.39
43.569
-1243.41
52.847
-1189.98
63.8405
-1109.3
65.7419
-1025.1
74.1551
-932.913
78.2417
-826.185
87.2521
-725.342
89.494
-599.428
75.0851
-442.262
46.7522
-309.395
16.292
-211.653
-14.0935
-166.282
-31.8792
-220.564
-368.066
44.393
-1740.33
26.3231
-1967.59
5.4458
-1854.59
51.4933
-1563.02
56.585
-1508.93
19.0707
-1514.87
46.8602
-1271.2
47.7977
-1190.92
54.9388
-1116.44
52.2749
-1022.43
57.742
-938.381
62.115
-830.559
71.8649
-735.092
86.5011
-614.065
102.545
-458.307
118.63
-325.48
133.429
-226.453
135.78
-168.632
86.3787
-171.163
-281.688
68.3977
-1808.73
36.1585
-1935.35
-8.83385
-1809.6
48.5793
-1620.44
76.023
-1536.38
20.8034
-1459.66
66.4832
-1316.88
77.5968
-1202.03
92.1684
-1131.01
98.7462
-1029.01
106.496
-946.131
114.331
-838.394
121.004
-741.765
136.857
-629.918
174.891
-496.341
229.215
-379.804
279.533
-276.77
285.616
-174.714
197.585
-83.132
-84.1023
75.6841
-1884.42
37.1826
-1896.85
16.5335
-1788.95
40.6317
-1644.54
71.9952
-1567.74
53.8216
-1441.48
92.9081
-1355.97
129.694
-1238.82
161.756
-1163.08
195.902
-1063.16
224.98
-975.208
253.091
-866.505
270.313
-758.987
285.625
-645.229
316.769
-527.484
346.488
-409.522
343.391
-273.671
294.07
-125.392
188.154
22.7866
104.052
32.1481
-1916.56
-6.23024
-1858.47
-4.66154
-1790.52
-24.8015
-1624.4
-29.1866
-1563.36
-23.7388
-1446.93
-9.99415
-1369.71
10.5834
-1259.4
20.1451
-1172.64
35.3552
-1078.37
47.6434
-987.497
59.201
-878.062
60.8052
-760.591
52.4946
-636.918
35.621
-510.61
-13.0872
-360.813
-118.427
-168.331
-219.58
-24.2396
-137.522
-59.27
-33.4706
-4.85734e-05
-1916.56
-9.07946
-1849.39
-15.5305
-1784.06
-35.132
-1604.79
-52.8069
-1545.68
-81.5644
-1418.17
-108.666
-1342.61
-137.183
-1230.88
-171.378
-1138.44
-205.274
-1044.47
-238.087
-954.683
-258.148
-858
-262.724
-756.014
-261.461
-638.181
-277.702
-494.368
-317.69
-320.825
-373.185
-112.836
-372.216
-25.2079
-234.536
-196.948
-268.007
33.5319
-1950.09
49.9305
-1865.79
68.7249
-1802.85
81.7429
-1617.81
95.0157
-1558.95
94.0276
-1417.18
84.3425
-1332.92
78.2873
-1224.82
73.5847
-1133.74
66.9819
-1037.87
58.7447
-946.444
57.221
-856.473
65.1714
-763.963
86.0728
-659.08
120.119
-528.413
173.038
-373.743
267.594
-207.391
353.391
-111.004
246.651
-90.2066
-21.3556
65.4349
-2015.53
71.6367
-1871.99
103.272
-1834.49
138.417
-1652.95
173.633
-1594.16
219.617
-1463.16
266.252
-1379.56
317.893
-1276.46
370.806
-1186.65
428.03
-1095.09
487.576
-1005.99
545.179
-914.074
595.654
-814.436
634.464
-697.888
658.363
-552.309
654.964
-370.342
645.116
-197.541
562.202
-28.087
349.47
122.528
328.115
7.91251
-2023.44
-28.2276
-1835.85
-36.497
-1826.22
-27.8888
-1661.56
-17.2964
-1604.76
11.1531
-1491.61
45.3335
-1413.74
92.6648
-1323.79
149.935
-1243.92
218.19
-1163.34
296.246
-1084.04
381.22
-999.047
465.416
-898.631
530.451
-762.922
539.352
-561.209
448.396
-279.385
275.802
-24.9461
138.66
109.057
36.6912
224.499
364.806
-165.101
-1858.34
-350.733
-1650.21
-501.986
-1674.96
-612.578
-1550.97
-713.338
-1503.99
-781.941
-1423.01
-836.293
-1359.38
-869.348
-1290.74
-886.47
-1226.79
-886.55
-1163.26
-870.417
-1100.17
-837.506
-1031.96
-787.385
-948.751
-718.176
-832.131
-624.158
-655.226
-498.748
-404.793
-372.984
-150.709
-259.493
-4.4322
-166.321
131.329
198.485
-216.009
-1642.33
-479.395
-1386.83
-754.96
-1399.4
-991.52
-1314.41
-1219.8
-1275.71
-1417.49
-1225.32
-1593.79
-1183.08
-1744.22
-1140.31
-1871.51
-1099.5
-1975.5
-1059.27
-2056.21
-1019.46
-2109.8
-978.366
-2125.89
-932.658
-2081.28
-876.745
-1932.58
-803.927
-1627.65
-709.72
-1183.32
-595.04
-728.815
-458.934
-308.418
-289.067
-109.934
-667.325
-1079.15
-1503.55
-1842.96
-2143.67
-2393.99
-2602.06
-2767.38
-2891.88
-2976.15
-3020.61
-3023.98
-2981.63
-2883.38
-2712.31
-2447.03
-2067.07
-1551
-865.066
-678.447
1653.45
-1099.06
1395.62
-1532.18
1408.12
-1879.05
1321.87
-2186.41
1282.36
-2442.5
1231.09
-2655.61
1188.12
-2825.33
1144.72
-2953.55
1103.22
-3040.57
1062.02
-3086.28
1020.71
-3089.28
978.005
-3047.28
932.993
-2957.04
884.767
-2811.72
829.682
-2591.99
755.262
-2250.82
633.832
-1710.83
435.008
-928.296
192.47
46.7043
-193.547
1847
-425.084
1627.16
-669.89
1652.93
-866.741
1518.72
-1052.65
1468.27
-1201.16
1379.6
-1323.44
1310.4
-1413.96
1235.24
-1476.3
1165.56
-1510.97
1096.69
-1519.95
1029.69
-1503.85
961.908
-1462.74
891.878
-1395.49
817.525
-1297.92
732.106
-1159.17
616.521
-958.001
432.66
-680.137
157.145
-363.541
-124.124
-316.837
-105.647
1952.65
-238.544
1760.06
-334.25
1748.64
-389.186
1573.66
-432.581
1511.66
-443.132
1390.15
-438.348
1305.62
-412.444
1209.34
-370.376
1123.5
-307.762
1034.08
-218.993
940.92
-98.0137
840.932
51.2384
742.628
216.199
652.567
381.702
566.604
524.533
473.691
604.423
352.771
549.714
211.854
309.328
116.263
-7.50852
-17.715
1970.36
-60.0642
1802.41
-85.847
1774.42
-112.452
1600.27
-140.147
1539.36
-164.009
1414.02
-194.691
1336.3
-227.502
1242.15
-263.52
1159.51
-288.498
1059.06
-278.258
930.68
-210.975
773.652
-93.9268
625.581
44.0062
514.637
191.094
419.516
353.389
311.398
488.159
218.001
505.714
194.299
362.347
259.63
354.838
-51.2358
2021.6
-134.513
1885.69
-203.485
1843.4
-284.407
1681.2
-367.431
1622.39
-458.431
1505.03
-555.284
1433.16
-657.01
1343.89
-767.656
1270.16
-875.925
1167.34
-969.444
1024.2
-1029.07
833.282
-1061.23
657.741
-1060.2
513.605
-998.284
357.6
-949.114
262.227
-880.929
149.812
-688.656
2.02256
-354.507
-74.5252
0.330639
14.1276
2007.48
-59.614
1959.45
-94.0406
1877.83
-130.3
1717.47
-162.085
1654.18
-190.625
1533.58
-216.177
1458.71
-240.186
1367.91
-265.918
1295.9
-294.594
1196.03
-347.595
1077.2
-405.822
891.523
-478.665
730.576
-581.529
616.471
-780.113
556.17
-838.048
320.154
-893.248
204.998
-745.583
-145.658
-537.525
-282.602
-537.194
84.7476
1922.74
22.9603
2021.24
16.3664
1884.43
14.0718
1719.78
23.2811
1644.98
50.7066
1506.17
92.6011
1416.84
134.547
1325.99
166.774
1263.7
189.512
1173.33
184.417
1082.32
146.353
929.597
85.8262
791.102
32.4206
669.877
-107.932
696.508
-127.566
339.753
-47.7107
125.095
-4.36409
-189.051
-132.034
-154.96
-669.229
139.485
1783.27
127.389
2033.35
157.113
1854.71
198.568
1678.34
253.169
1590.38
315.761
1443.59
388.335
1344.27
473.853
1240.49
560.273
1177.28
641.047
1092.57
710.755
1012.61
743.01
897.355
758.031
776.075
786.655
641.257
866.493
616.663
719.47
486.774
586.516
258.043
301.486
95.9678
180.277
-33.7667
-488.952
120.013
1663.26
136.687
2016.69
167.449
1823.96
208.679
1637.12
258.978
1540.08
307.417
1395.16
354.356
1297.33
417.433
1177.42
488.609
1106.1
562.89
1018.29
637.295
938.208
703.31
831.345
761.98
717.405
836.796
566.445
904.756
548.702
867.5
524.031
733.586
391.956
549.223
280.33
392.314
123.141
-96.638
68.602
1594.66
92.1847
1993.11
115.376
1800.77
139.089
1613.41
163.581
1515.59
178.111
1380.63
187.879
1287.56
208.663
1156.64
241.817
1072.95
284.175
975.937
333.464
888.918
391.132
773.678
455.138
653.398
505.055
516.528
564.767
488.99
614.554
474.244
592.401
414.11
501.889
370.841
313.192
311.836
216.554
39.3774
1555.29
53.2222
1979.27
65.9481
1788.04
71.7736
1607.58
75.5064
1511.86
64.6038
1391.53
48.3373
1303.83
34.8713
1170.11
36.345
1071.48
49.6178
962.667
75.0871
863.449
107.073
741.693
137.087
623.384
143.773
509.842
197.684
435.079
272.114
399.814
297.981
388.242
266.084
402.737
159.127
418.792
375.681
50.6162
1504.66
57.212
1972.67
67.5908
1777.66
71.3132
1603.86
77.881
1505.29
75.9179
1393.49
71.5337
1308.21
56.6706
1184.97
52.3722
1075.77
56.1512
958.883
69.9427
849.653
77.1954
734.437
71.5899
628.986
59.3452
522.083
85.3957
409.025
118.952
366.255
138.194
368.998
128.675
412.254
72.9498
474.514
448.631
63.6999
1440.96
73.0383
1963.33
93.4443
1757.25
105.248
1592.05
124.456
1486.08
149.315
1368.63
180.066
1277.46
197.732
1167.3
210.866
1062.64
217.72
952.029
219.195
848.178
205.675
747.956
187.094
647.566
174.286
534.891
162.176
421.134
150.859
377.571
153.235
366.622
136.198
429.291
77.0793
533.632
525.71
37.0376
1403.92
43.0749
1957.28
70.8002
1729.52
80.9808
1581.87
95.8823
1471.17
118.678
1345.84
154.407
1241.73
189.35
1132.35
212.292
1039.69
218.408
945.908
212.274
854.308
203.117
757.109
204.2
646.478
202.985
536.102
194.639
429.478
197.996
374.21
214.133
350.484
197.924
445.499
121.731
609.822
647.441
-2.77412
1406.69
-2.8612
1957.37
27.3668
1699.29
29.1908
1580.04
28.6215
1471.74
26.1699
1348.28
33.5903
1234.3
48.6499
1117.29
61.3537
1026.98
65.1963
942.062
69.2227
850.278
84.5783
741.75
106.408
624.647
115.875
526.632
127.893
417.457
153.644
348.458
184.572
319.556
188.165
441.904
125.274
672.711
772.714
-29.5789
1436.26
-34.2768
1962.06
-2.67747
1667.69
-3.17375
1580.53
-6.95367
1475.52
-16.7404
1358.07
-25.4401
1243
-32.6185
1124.46
-30.3935
1024.75
-22.367
934.03
-4.16298
832.069
20.0975
717.485
38.4613
606.278
47.5952
517.494
56.8601
408.187
73.358
331.956
98.3378
294.573
115.671
424.568
82.8916
705.487
855.606
-15.5916
1451.85
-11.874
1958.34
27.3838
1628.43
39.1989
1568.72
45.6543
1469.06
47.2662
1356.46
45.8065
1244.46
36.0407
1134.23
33.3647
1027.43
38.9463
928.448
49.1314
821.883
51.8164
714.799
44.0969
613.997
31.4426
530.147
10.0722
429.558
-7.62748
349.655
-7.67482
294.62
11.2537
405.639
15.7636
700.977
871.37
13.495
1438.35
21.9413
1949.89
69.7011
1580.67
104.657
1533.76
132.388
1441.33
159.372
1329.47
184.073
1219.76
194.95
1123.35
199.628
1022.75
200.855
927.219
195.62
827.118
176.522
733.895
147.474
643.043
112.147
565.472
66.4077
475.296
20.3325
395.729
-11.3228
326.275
-13.2666
407.582
-4.34937
692.058
867.02
113.22
1325.13
108.559
1954.55
91.0522
1598.17
118.991
1505.82
142.369
1417.95
157.755
1314.08
180.126
1197.38
198.257
1105.22
207.055
1013.95
205.435
928.839
191.564
840.988
165.662
759.796
130.784
677.92
90.5171
605.738
42.8045
523.007
-5.74396
444.276
-45.764
366.294
-48.8635
410.68
-21.2884
664.482
845.732
228.156
461.27
578.901
713.782
832.783
921.662
964.686
985.842
984.102
960.097
912.35
844.125
756.078
652.397
529.587
391.574
242.999
123.771
60.9108
)
;

boundaryField
{
    outletWall
    {
        type            calculated;
        value           nonuniform List<scalar> 
60
(
-3820.25
-3660.4
-5973.08
-6182.16
-8155.21
-7812.29
-2661.02
6322.44
6626.31
3976.69
1397.2
-346.538
-662.486
-50.2093
116.062
-5642.18
-10844.3
-4470.62
9044.87
14211.2
2847.83
3235.29
3814.74
4464.11
5075.44
5579.15
5909.31
6007.98
5866.69
5540.18
5146.45
4788.88
4520.72
4377.61
4430.46
4563.82
4814.04
5364.98
7364.64
9021.31
1680.62
-2808.88
-2841.72
-791.655
2364.07
2950.02
-2125.53
-7367.22
-9059.22
-8704.44
-8156.56
-8734.34
-10584.5
-11166
-6373.3
7168.93
17357.3
15127.9
-1204.33
-11878.9
)
;
    }
    fineWalls
    {
        type            calculated;
        value           uniform 0;
    }
    fineFrontAndBack
    {
        type            calculated;
        value           nonuniform List<scalar> 
960
(
-3.63334e-13
-1.3713e-12
-4.84712e-14
-6.22985e-13
-2.31838e-12
-2.95723e-13
-3.45327e-13
-3.44775e-13
-1.60309e-12
-3.06965e-13
-3.05449e-13
-4.35394e-12
-1.00907e-12
-7.85354e-13
-8.12879e-12
-1.83643e-12
-1.60439e-12
-5.36678e-12
-7.12945e-13
-1.09083e-12
-2.70384e-14
-3.73157e-13
-4.40251e-13
-5.38706e-13
-6.03618e-13
-7.52619e-13
-1.00345e-11
-9.12475e-13
-9.41261e-13
-9.65555e-13
-9.88538e-13
-1.0066e-12
-1.03546e-12
-1.06096e-12
-1.09592e-12
-1.16237e-12
-1.20388e-12
-1.23609e-12
-1.11587e-12
-8.66274e-13
-1.49573e-11
-1.45545e-12
-1.2286e-12
-1.16737e-12
1.11278e-12
-1.28463e-12
9.08838e-13
1.7458e-11
2.97159e-10
1.94331e-11
9.31131e-12
4.15333e-11
9.1729e-12
1.0645e-11
6.35422e-12
1.05203e-11
1.47501e-12
1.7824e-12
2.09908e-12
1.71332e-11
7.93885e-13
1.13032e-12
1.33063e-12
1.20414e-12
1.05518e-12
9.3547e-13
8.45032e-13
7.60311e-13
6.69329e-13
5.88786e-13
5.19454e-13
4.47664e-13
3.8478e-13
-6.36985e-12
4.80325e-14
-1.71679e-13
-2.1827e-13
-3.33491e-13
-4.55103e-13
-7.28552e-13
-3.80217e-12
-4.07258e-12
-2.35985e-11
-3.45598e-12
-3.7433e-12
-1.98473e-11
-2.5898e-12
-2.76474e-12
-1.4504e-11
-1.59099e-12
-1.77646e-12
-8.94676e-12
-6.37866e-13
-7.99154e-13
-8.12398e-13
-5.61507e-12
-1.89306e-13
-3.81502e-13
-2.85275e-12
3.74485e-13
-5.07294e-13
-1.54304e-12
-7.20427e-12
-7.56912e-12
-1.42962e-11
-2.0015e-11
-1.51691e-11
-1.24756e-11
-9.09611e-12
-7.64044e-12
-1.28973e-11
-2.64364e-11
-3.15393e-11
-3.31322e-11
-3.89769e-11
-4.91002e-11
-5.41487e-11
-4.98026e-11
-4.68091e-11
1.06734e-11
3.76905e-12
-7.52675e-12
-8.83012e-12
-1.4799e-11
-1.83907e-11
-8.405e-12
-5.74755e-13
6.25678e-12
3.0305e-12
-9.13068e-12
-2.06629e-11
-2.17652e-11
-2.27715e-11
-3.44333e-11
-4.76299e-11
-5.43341e-11
-5.03882e-11
-4.75609e-11
1.10437e-11
4.88828e-12
-5.43401e-12
-1.32366e-11
-1.43064e-11
-8.81738e-12
4.97248e-12
1.7572e-11
1.90404e-11
1.81646e-12
-1.33264e-11
-1.94859e-11
-2.00104e-11
-2.14481e-11
-3.00097e-11
-4.38778e-11
-5.28993e-11
-5.05265e-11
-4.86439e-11
7.42133e-12
3.8547e-12
-2.91878e-12
-1.70333e-11
-1.2274e-11
1.2755e-11
3.3475e-11
3.00157e-11
1.80402e-12
-2.85249e-11
-3.1842e-11
-2.49432e-11
-2.06308e-11
-2.19717e-11
-2.59457e-11
-4.00887e-11
-5.09153e-11
-4.9695e-11
-4.93489e-11
7.2515e-12
5.26804e-12
-2.77332e-12
-1.84743e-11
-7.50092e-12
3.81501e-11
4.71243e-11
9.35227e-12
-4.84652e-11
-7.11522e-11
-5.59667e-11
-2.56406e-11
-1.89098e-11
-2.58363e-11
-2.58249e-11
-3.70346e-11
-4.74751e-11
-4.79928e-11
-4.80182e-11
1.10295e-11
7.6817e-12
-4.09853e-12
-1.85917e-11
-1.84166e-12
3.21444e-11
3.90604e-12
-6.40937e-11
-1.24268e-10
-1.12802e-10
-6.23342e-11
-1.99403e-11
-1.50559e-11
-2.9276e-11
-3.79742e-11
-3.89722e-11
-4.53302e-11
-4.44836e-11
-4.91435e-11
1.5938e-11
9.89722e-12
-6.97655e-12
-1.23894e-11
-2.60021e-12
-2.42177e-11
-9.56781e-11
-1.50855e-10
-1.50679e-10
-8.87162e-11
-3.73015e-11
-1.30455e-11
-1.16601e-11
-2.22052e-11
-4.20808e-11
-4.56078e-11
-4.57685e-11
-4.88623e-11
-5.23838e-11
2.04048e-11
1.356e-11
-1.24197e-11
-1.03666e-11
-1.17711e-11
-8.67472e-11
-1.6988e-10
-1.72447e-10
-1.16135e-10
-5.4557e-11
-2.14208e-11
-1.18539e-11
-1.25925e-11
-1.26012e-11
-2.30538e-11
-4.34731e-11
-4.04838e-11
-2.15016e-11
-1.54253e-12
2.43911e-11
2.00971e-11
-2.37613e-11
-4.34619e-11
-4.88147e-11
-1.26216e-10
-1.71797e-10
-1.42277e-10
-8.69575e-11
-4.31418e-11
-2.02978e-11
-1.46515e-11
-1.48601e-11
-1.22887e-11
-1.25226e-11
-1.92711e-11
-1.54246e-11
7.50341e-13
1.10441e-11
2.65168e-11
2.88855e-11
-2.50437e-11
-9.50641e-11
-9.7292e-11
-1.09904e-10
-1.04435e-10
-8.7235e-11
-6.53569e-11
-3.85851e-11
-1.33714e-11
-8.05887e-13
-6.92891e-12
-8.66474e-12
-7.1222e-12
-1.72052e-12
-4.5725e-13
1.09563e-11
2.75038e-11
2.47587e-11
3.47715e-11
-2.09676e-12
-8.35208e-11
-7.66014e-11
-3.18504e-11
-1.62521e-11
-3.06115e-11
-3.66944e-11
-2.63254e-11
-6.53962e-12
7.71814e-12
3.73989e-12
-9.58323e-13
4.51164e-12
1.48831e-11
2.14361e-11
4.41634e-11
1.32893e-10
1.78163e-11
3.25595e-11
1.83901e-11
-3.09986e-11
-2.43907e-11
2.1102e-11
3.13519e-11
1.1146e-11
-3.89895e-12
-6.3909e-12
3.33038e-12
1.03134e-11
-1.56263e-12
-2.18686e-12
-8.39179e-12
-9.1157e-12
-1.1336e-11
-1.9822e-11
-1.61813e-11
1.02811e-11
2.94462e-11
2.66277e-11
4.35893e-12
9.65434e-12
3.74899e-11
4.39614e-11
3.32441e-11
2.30285e-11
1.72123e-11
1.39961e-11
9.32815e-13
-1.15033e-11
-2.47183e-12
-1.14854e-11
-1.56595e-11
-1.33386e-11
-1.09764e-11
-1.57113e-11
3.11726e-12
2.87269e-11
3.37711e-11
2.14853e-11
2.34306e-11
3.55832e-11
3.67221e-11
2.91431e-11
2.28173e-11
1.67088e-11
3.06111e-12
-1.72529e-11
-1.36518e-11
1.29412e-12
-8.30637e-12
-1.31897e-11
-9.28972e-12
2.82127e-12
3.26434e-12
-5.61749e-12
2.36807e-11
3.93034e-11
2.88386e-11
2.63087e-11
2.76151e-11
1.35627e-11
-4.75643e-12
-5.09787e-12
-7.41859e-12
-2.27208e-11
-2.59597e-11
-1.28874e-11
-5.915e-13
2.90278e-13
-5.03839e-12
9.57605e-13
3.28284e-12
5.21484e-12
-1.40163e-11
1.19465e-11
3.86797e-11
3.29552e-11
2.56659e-11
1.49772e-11
-1.79732e-11
-3.96499e-11
-4.02478e-11
-3.46759e-11
-3.34062e-11
-2.25291e-11
-1.03115e-11
-3.67222e-12
3.19597e-12
4.3863e-12
7.1183e-12
2.86041e-12
2.33427e-14
-1.84111e-11
-4.98925e-13
2.96623e-11
3.60274e-11
2.53963e-11
5.40149e-12
-2.54394e-11
-4.10734e-11
-4.92735e-11
-4.65087e-11
-3.48074e-11
-1.96976e-11
-8.83897e-12
-2.52982e-12
8.1857e-13
5.11096e-12
4.67996e-12
2.95636e-13
-1.11643e-12
-1.83914e-11
-9.5101e-12
1.67433e-11
3.65173e-11
2.75706e-11
1.93867e-12
-2.10891e-11
-3.44517e-11
-4.06796e-11
-4.11529e-11
-3.08167e-11
-1.70259e-11
-7.57309e-12
-2.64663e-12
-1.0463e-12
1.38205e-12
3.30613e-13
-1.20902e-12
-2.07796e-12
-1.59321e-11
-1.1361e-11
4.53295e-12
3.42422e-11
3.31479e-11
2.35067e-12
-1.86749e-11
-3.19919e-11
-3.66035e-11
-3.69762e-11
-2.89549e-11
-1.49726e-11
-6.27586e-12
-2.23679e-12
-1.17296e-12
-6.71944e-13
-1.03032e-12
-1.43272e-12
-2.19505e-12
-1.41603e-11
-1.0114e-11
-3.17381e-12
2.19504e-11
3.12597e-11
3.28172e-12
-1.59666e-11
-2.98043e-11
-3.48608e-11
-3.60595e-11
-2.76547e-11
-1.40162e-11
-5.20863e-12
-1.91881e-12
-1.06199e-12
-1.02714e-12
-1.17471e-12
-1.43147e-12
-2.49785e-12
3.63334e-13
1.3713e-12
4.84712e-14
6.22985e-13
2.31838e-12
2.95723e-13
3.45327e-13
3.44775e-13
1.60309e-12
3.06965e-13
3.05449e-13
4.35394e-12
1.00907e-12
7.85354e-13
8.12879e-12
1.83643e-12
1.60439e-12
5.36678e-12
7.12945e-13
1.09083e-12
2.70384e-14
3.73157e-13
4.40251e-13
5.38706e-13
6.03618e-13
7.52619e-13
1.00345e-11
9.12475e-13
9.41261e-13
9.65555e-13
9.88538e-13
1.0066e-12
1.03546e-12
1.06096e-12
1.09592e-12
1.16237e-12
1.20388e-12
1.23609e-12
1.11587e-12
8.66274e-13
1.49573e-11
1.45545e-12
1.2286e-12
1.16737e-12
-1.11278e-12
1.28463e-12
-9.08838e-13
-1.7458e-11
-2.97159e-10
-1.94331e-11
-9.31131e-12
-4.15333e-11
-9.1729e-12
-1.0645e-11
-6.35422e-12
-1.05203e-11
-1.47501e-12
-1.7824e-12
-2.09908e-12
-1.71332e-11
-7.93885e-13
-1.13032e-12
-1.33063e-12
-1.20414e-12
-1.05518e-12
-9.3547e-13
-8.45032e-13
-7.60311e-13
-6.69329e-13
-5.88786e-13
-5.19454e-13
-4.47664e-13
-3.8478e-13
6.36985e-12
-4.80325e-14
1.71679e-13
2.1827e-13
3.33491e-13
4.55103e-13
7.28552e-13
3.80217e-12
4.07258e-12
2.35985e-11
3.45598e-12
3.7433e-12
1.98473e-11
2.5898e-12
2.76474e-12
1.4504e-11
1.59099e-12
1.77646e-12
8.94676e-12
6.37866e-13
7.99154e-13
8.12398e-13
5.61507e-12
1.89306e-13
3.81502e-13
2.85275e-12
-3.74485e-13
5.07294e-13
1.54304e-12
7.20427e-12
7.56912e-12
1.42962e-11
2.0015e-11
1.51691e-11
1.24756e-11
9.09611e-12
7.64044e-12
1.28973e-11
2.64364e-11
3.15393e-11
3.31322e-11
3.89769e-11
4.91002e-11
5.41487e-11
4.98026e-11
4.68091e-11
-1.06734e-11
-3.76905e-12
7.52675e-12
8.83012e-12
1.4799e-11
1.83907e-11
8.405e-12
5.74755e-13
-6.25678e-12
-3.0305e-12
9.13068e-12
2.06629e-11
2.17652e-11
2.27715e-11
3.44333e-11
4.76299e-11
5.43341e-11
5.03882e-11
4.75609e-11
-1.10437e-11
-4.88828e-12
5.43401e-12
1.32366e-11
1.43064e-11
8.81738e-12
-4.97248e-12
-1.7572e-11
-1.90404e-11
-1.81646e-12
1.33264e-11
1.94859e-11
2.00104e-11
2.14481e-11
3.00097e-11
4.38778e-11
5.28993e-11
5.05265e-11
4.86439e-11
-7.42133e-12
-3.8547e-12
2.91878e-12
1.70333e-11
1.2274e-11
-1.2755e-11
-3.3475e-11
-3.00157e-11
-1.80402e-12
2.85249e-11
3.1842e-11
2.49432e-11
2.06308e-11
2.19717e-11
2.59457e-11
4.00887e-11
5.09153e-11
4.9695e-11
4.93489e-11
-7.2515e-12
-5.26804e-12
2.77332e-12
1.84743e-11
7.50092e-12
-3.81501e-11
-4.71243e-11
-9.35227e-12
4.84652e-11
7.11522e-11
5.59667e-11
2.56406e-11
1.89098e-11
2.58363e-11
2.58249e-11
3.70346e-11
4.74751e-11
4.79928e-11
4.80182e-11
-1.10295e-11
-7.6817e-12
4.09853e-12
1.85917e-11
1.84166e-12
-3.21444e-11
-3.90604e-12
6.40937e-11
1.24268e-10
1.12802e-10
6.23342e-11
1.99403e-11
1.50559e-11
2.9276e-11