/*--------------------------------*- C++ -*----------------------------------*\
| =========                 |                                                 |
| \\      /  F ield         | OpenFOAM: The Open Source CFD Toolbox           |
|  \\    /   O peration     | Version:  4.1                                   |
|   \\  /    A nd           | Web:      www.OpenFOAM.org                      |
|    \\/     M anipulation  |                                                 |
\*---------------------------------------------------------------------------*/
FoamFile
{
    version     2.0;
    format      ascii;
    class       volVectorField;
    location    "19";
    object      U;
}
// * * * * * * * * * * * * * * * * * * * * * * * * * * * * * * * * * * * * * //

dimensions      [0 1 -1 0 0 0 0];

internalField   nonuniform List<vector> 
1280
(
(-2.62572e-16 -0.552266 -1.51525)
(-2.33066e-16 0.161182 -1.43561)
(-3.71677e-17 -0.119593 -0.99401)
(-4.50215e-16 0.158814 -1.23021)
(-3.94031e-16 0.495757 -1.55695)
(-2.13711e-16 0.535452 -1.11679)
(-2.49558e-16 0.786754 -1.16209)
(-2.53897e-16 0.857651 -1.09388)
(-2.43999e-16 1.35065 -1.63146)
(-2.1545e-16 1.34939 -1.22266)
(-2.08089e-16 1.55619 -1.11185)
(-8.11088e-16 2.09322 -1.82679)
(-7.29226e-16 2.05236 -1.42728)
(-5.67555e-16 2.30422 -1.31426)
(-1.50609e-15 3.04355 -2.11344)
(-1.32714e-15 2.70436 -1.76265)
(-1.15945e-15 3.28062 -1.52786)
(-9.12137e-16 2.99206 -3.33075)
(-5.36317e-16 4.64924 -1.58558)
(-7.88315e-16 2.74086 -5.51866)
(-1.10927e-16 4.38977 1.87763)
(-1.5309e-15 4.54972 7.15726)
(-1.80616e-15 4.43824 8.65917)
(-2.21008e-15 4.93108 9.21938)
(-2.47638e-15 4.90855 9.18324)
(-3.08767e-15 5.36056 10.472)
(-2.1153e-15 4.22842 8.01775)
(-3.74349e-15 8.00889 12.7835)
(-3.86158e-15 8.27056 13.0151)
(-3.96125e-15 8.26701 13.3193)
(-4.05554e-15 8.32995 13.5836)
(-4.12962e-15 8.32776 13.7955)
(-4.24804e-15 8.3336 13.8681)
(-4.35265e-15 8.25112 13.8118)
(-4.49608e-15 8.22636 13.556)
(-4.76871e-15 8.06546 13.231)
(-4.939e-15 8.04854 12.8903)
(-5.07114e-15 7.82542 12.9122)
(-4.57792e-15 7.85927 13.3186)
(-3.55395e-15 7.72684 14.0923)
(-2.60353e-15 8.95103 14.2181)
(-1.16903e-15 5.38284 9.18655)
(-9.87836e-16 4.26448 8.92537)
(-9.28419e-16 3.33242 9.07611)
(3.64275e-16 1.21143 8.04022)
(-1.03183e-15 0.232012 0.850149)
(7.2999e-16 -0.0856762 -1.90679)
(1.40225e-14 0.690482 -3.45206)
(5.23603e-14 0.934829 -5.11712)
(1.57544e-14 -0.501696 -2.93922)
(7.59546e-15 0.73958 -2.98418)
(7.22947e-15 -0.509876 -5.03249)
(7.36779e-15 -0.553826 -3.01311)
(8.55022e-15 0.270828 -1.53622)
(5.10379e-15 -0.198972 1.50807)
(1.83122e-15 -1.05697 8.11476)
(1.19414e-15 -3.21429 9.39948)
(1.43062e-15 -4.1987 9.52285)
(1.68601e-15 -5.43994 9.86155)
(2.93498e-15 -8.69997 15.1328)
(3.25697e-15 -7.72277 14.8777)
(4.63723e-15 -7.92867 13.9924)
(5.45899e-15 -7.86747 13.3297)
(4.94008e-15 -8.17099 13.3571)
(4.32896e-15 -8.16511 13.5236)
(3.83783e-15 -8.34119 13.6112)
(3.4668e-15 -8.35268 13.695)
(3.11923e-15 -8.44818 13.7362)
(2.74597e-15 -8.4549 13.7982)
(2.41553e-15 -8.49412 13.8275)
(2.13109e-15 -8.46841 13.8453)
(1.83657e-15 -8.44939 13.8026)
(1.57858e-15 -8.3414 13.6739)
(-1.34279e-15 -4.42633 8.56307)
(1.97056e-16 -4.90055 10.9221)
(-7.04323e-16 -4.62787 10.301)
(-8.95466e-16 -4.53332 9.70077)
(-1.36817e-15 -4.11334 8.7861)
(-1.86709e-15 -4.3123 7.43784)
(-2.98893e-15 -4.07606 1.86069)
(-2.74773e-15 -2.85705 -4.23802)
(-2.94315e-15 -4.35406 -1.18468)
(-4.01078e-15 -3.18789 -2.55876)
(-2.49755e-15 -3.32081 -1.133)
(-2.70519e-15 -2.85651 -1.31271)
(-3.40375e-15 -3.24041 -1.52908)
(-1.88835e-15 -2.64059 -0.833461)
(-1.99801e-15 -2.42844 -0.91243)
(-2.48331e-15 -2.63377 -1.10088)
(-1.13985e-15 -2.17932 -0.541239)
(-1.2838e-15 -2.03203 -0.603636)
(-1.54226e-15 -2.23091 -0.750911)
(-4.66768e-16 -1.75631 -0.356688)
(-5.77528e-16 -1.84693 -0.386636)
(-5.87099e-16 -1.62652 -0.373855)
(-9.54335e-16 -1.86244 -0.449863)
(-1.36806e-16 -1.48422 -0.141697)
(-2.75701e-16 -1.44681 -0.159352)
(-4.8847e-16 -1.54898 -0.179808)
(2.70631e-16 -1.24322 0.061616)
(-5.6366e-17 4.81086 7.53124)
(-1.71449e-16 3.15901 4.5867)
(-8.00475e-16 -1.39642 1.73908)
(-8.41013e-16 -3.59233 0.954486)
(-1.58846e-15 -1.9055 1.23847)
(-2.22388e-15 0.0381847 1.11218)
(-1.68545e-15 -0.0207688 1.21329)
(-1.38618e-15 -0.22692 1.2176)
(-1.01068e-15 -0.11394 1.08056)
(-8.48938e-16 0.486818 0.84193)
(-1.43304e-15 1.35826 0.581478)
(-2.93738e-15 2.25355 0.0162601)
(-3.50437e-15 2.11535 -1.07843)
(-3.68136e-15 -0.930616 -1.76978)
(-4.33077e-15 -2.5925 -1.69277)
(-5.45558e-15 -2.72144 -1.30058)
(-6.01653e-15 -2.07685 -1.13905)
(-5.53362e-15 -1.99738 -0.865912)
(-5.20102e-15 -1.25079 -1.00696)
(1.18593e-15 5.71534 6.13579)
(4.18784e-16 4.95932 4.5575)
(-8.36305e-16 -0.255373 2.22447)
(-9.81124e-16 -3.48694 0.775098)
(-1.64433e-15 -1.87517 1.39781)
(-2.04341e-15 0.0214034 1.17753)
(-9.33889e-16 -0.0469111 1.46775)
(-6.38617e-17 -0.170658 1.58683)
(6.95198e-16 0.0208266 1.50183)
(3.36722e-16 0.6165 1.31631)
(-1.01452e-15 1.58992 1.06769)
(-2.29588e-15 2.79206 0.163876)
(-2.41835e-15 2.78552 -1.25923)
(-2.53017e-15 -0.50531 -2.05685)
(-3.82593e-15 -2.81552 -1.76064)
(-5.29221e-15 -2.91322 -1.13913)
(-6.03713e-15 -2.18898 -0.985228)
(-5.59869e-15 -2.0451 -0.829447)
(-5.28455e-15 -1.45767 -0.986799)
(1.22708e-15 5.62146 4.47861)
(5.43142e-16 5.06202 3.92598)
(-6.03779e-16 0.302942 2.86934)
(-1.47073e-15 -3.26604 0.839587)
(-1.5896e-15 -1.99578 1.63732)
(-9.79709e-16 -0.0487294 1.56034)
(5.52498e-16 -0.167329 1.92419)
(1.95245e-15 -0.219687 2.2318)
(2.1156e-15 0.0453359 2.23603)
(2.01829e-16 0.689613 2.03544)
(-1.48071e-15 1.85608 1.66294)
(-2.1651e-15 3.28957 0.519697)
(-2.22338e-15 3.09737 -0.255594)
(-2.38313e-15 -0.653355 -0.890002)
(-3.33441e-15 -2.94248 -1.40256)
(-4.87531e-15 -3.0475 -0.817233)
(-5.8777e-15 -2.21792 -0.743229)
(-5.61405e-15 -1.99058 -0.747388)
(-5.40488e-15 -1.44895 -1.02018)
(8.24592e-16 5.82857 4.01156)
(4.283e-16 5.4598 3.68132)
(-3.24308e-16 0.919135 3.15349)
(-1.89259e-15 -3.03207 1.49424)
(-1.36378e-15 -2.11263 1.82965)
(1.41722e-15 -0.150671 2.13533)
(3.71944e-15 -0.311049 2.49973)
(3.33507e-15 -0.300939 2.94415)
(2.00447e-16 0.0801589 2.99877)
(-3.16943e-15 0.819967 2.72955)
(-3.538e-15 2.16487 2.29018)
(-2.77146e-15 3.60657 1.70591)
(-2.29231e-15 3.23259 2.21734)
(-2.4413e-15 -0.40193 1.10709)
(-2.88286e-15 -2.86208 -0.701683)
(-4.4543e-15 -3.11349 -0.248304)
(-5.65726e-15 -2.2089 -0.346638)
(-5.52166e-15 -2.01337 -0.551806)
(-5.48321e-15 -1.50745 -1.15278)
(8.05722e-16 5.80586 3.80234)
(5.85338e-16 5.48401 3.68997)
(-3.08147e-16 1.19101 3.59358)
(-2.0527e-15 -2.75059 2.45073)
(-8.33435e-16 -2.17611 2.07243)
(4.2389e-15 -0.348625 2.77279)
(5.23603e-15 -0.46782 3.1544)
(1.03914e-15 -0.405734 3.58556)
(-5.38502e-15 0.121548 3.63199)
(-7.90579e-15 0.964732 3.28617)
(-6.21852e-15 2.24167 3.22422)
(-2.84896e-15 3.41269 4.20394)
(-2.10108e-15 3.28697 5.4169)
(-2.8707e-15 0.457609 3.11791)
(-2.86943e-15 -2.45116 0.389901)
(-4.11495e-15 -3.16768 0.573477)
(-5.27501e-15 -2.04154 0.129271)
(-5.33253e-15 -1.59429 -0.387783)
(-5.33536e-15 -1.08421 -1.24536)
(1.2255e-15 5.85015 3.68773)
(8.53522e-16 5.52464 3.73482)
(-4.55392e-16 1.34886 4.0386)
(-2.06575e-15 -2.43867 3.36047)
(-2.04629e-16 -2.18629 2.59261)
(3.5716e-15 -0.621202 3.43694)
(4.34004e-16 -0.633814 3.78019)
(-7.12152e-15 -0.499432 3.94497)
(-1.38076e-14 0.189724 3.9164)
(-1.25336e-14 0.981142 3.96066)
(-6.92603e-15 1.76832 5.22868)
(-2.21559e-15 2.78439 7.77472)
(-1.67288e-15 3.56437 8.84557)
(-3.25289e-15 1.74404 6.02529)
(-4.21935e-15 -1.79026 1.73446)
(-4.33024e-15 -2.93642 1.56767)
(-5.03668e-15 -1.83861 1.18266)
(-4.94262e-15 -1.79026 0.233461)
(-5.46039e-15 -1.23258 -2.29812)
(1.77089e-15 5.80641 3.64346)
(1.09969e-15 5.38169 3.92366)
(-7.75172e-16 1.30199 4.53593)
(-1.37661e-15 -2.16562 4.1795)
(-2.88912e-16 -2.14815 3.29231)
(-2.69085e-15 -0.830268 3.76379)
(-1.06309e-14 -0.664889 3.82168)
(-1.67616e-14 -0.470488 3.79912)
(-1.67421e-14 0.115172 4.25979)
(-9.85735e-15 0.442034 5.73792)
(-4.14462e-15 0.699329 8.50944)
(-1.4495e-15 2.0513 11.2925)
(-1.29556e-15 3.96517 11.9269)
(-2.46724e-15 3.29015 9.51784)
(-4.67564e-15 -0.954091 4.19036)
(-5.06753e-15 -2.97326 1.87103)
(-5.08539e-15 -1.31992 1.4945)
(-5.42915e-15 0.445416 -0.235548)
(-5.82043e-15 0.694096 -2.39905)
(2.2672e-15 5.73841 3.76365)
(1.50667e-15 5.17773 4.26267)
(-1.37997e-15 1.17184 4.97506)
(-1.15185e-15 -1.93248 4.8104)
(-1.30791e-15 -1.98682 3.77939)
(-9.63858e-15 -0.855776 3.44063)
(-1.88755e-14 -0.66193 3.23416)
(-1.91607e-14 -0.702767 3.66508)
(-1.29039e-14 -0.604374 5.19836)
(-6.06189e-15 -0.700427 7.87029)
(-2.38009e-15 -0.460635 11.0669)
(-1.3171e-15 1.50914 13.1563)
(-1.39917e-15 4.31015 13.2064)
(-1.40013e-15 4.84886 11.8803)
(-2.56154e-15 1.56878 8.08936)
(-4.83034e-15 -1.79379 2.75936)
(-4.49821e-15 -1.13034 2.31654)
(-2.38907e-15 -1.30182 5.47808)
(-1.71393e-16 -5.66054 10.1969)
(2.71013e-15 5.61623 3.98967)
(2.23301e-15 4.92397 4.68952)
(-2.64014e-15 1.02567 5.29468)
(-4.8291e-15 -1.67374 5.0551)
(-5.42385e-15 -1.57972 3.90419)
(-1.4024e-14 -0.627528 3.17971)
(-1.90886e-14 -0.766071 3.32275)
(-1.58086e-14 -1.25126 4.17906)
(-9.66194e-15 -1.55343 5.87123)
(-4.79354e-15 -1.86076 8.45625)
(-2.25532e-15 -1.42762 11.3126)
(-1.62794e-15 1.22715 12.3861)
(-1.65112e-15 4.45416 11.6391)
(-1.36541e-15 5.28019 11.509)
(-1.3914e-15 2.5887 11.6344)
(-2.14123e-15 -0.868231 9.74907)
(-1.71384e-15 -1.967 10.0189)
(8.33712e-17 -2.3502 12.2473)
(1.22712e-15 -3.74458 12.4227)
(2.94631e-15 5.46032 4.28966)
(3.2095e-15 4.68209 5.1943)
(-2.78263e-15 1.00107 5.64803)
(-1.05627e-14 -1.35499 5.15229)
(-1.08102e-14 -1.21969 4.49457)
(-1.22115e-14 -0.647943 4.91075)
(-1.15789e-14 -1.04997 5.73929)
(-9.69278e-15 -1.70189 6.05751)
(-7.26188e-15 -2.29562 6.753)
(-4.28724e-15 -2.79932 8.24646)
(-1.48571e-15 -2.06488 9.98286)
(2.04253e-16 1.34757 9.44861)
(-7.69879e-16 4.61263 7.79259)
(-9.62749e-16 4.84229 8.81788)
(-8.3574e-16 2.07616 12.266)
(-1.91169e-16 -1.24441 13.3069)
(-5.08056e-17 -2.33024 13.1193)
(1.21736e-15 -2.39175 11.313)
(3.05598e-15 -2.96025 6.67402)
(2.75096e-15 5.25447 4.62021)
(3.8635e-15 4.40156 5.77527)
(-2.32974e-16 1.01957 6.38593)
(-9.28009e-15 -1.20368 5.98217)
(-8.51127e-15 -1.43427 6.41269)
(-3.53894e-15 -1.13733 8.26697)
(-1.82466e-15 -1.24994 9.46199)
(-3.40128e-15 -1.68941 9.07131)
(-4.07716e-15 -2.44604 8.36602)
(-2.92505e-15 -3.09767 8.21661)
(-7.26625e-16 -1.99325 8.21545)
(8.57571e-16 1.99696 5.93233)
(4.15543e-16 4.74502 3.62601)
(-1.0648e-16 3.58307 5.71553)
(5.01293e-16 1.05442 11.2624)
(1.65367e-15 -1.1243 12.3731)
(2.38179e-15 -1.32341 12.012)
(4.90704e-15 0.51222 9.98289)
(1.47659e-14 2.56211 6.16999)
(1.97959e-15 4.98981 4.89543)
(3.61773e-15 3.9885 6.30719)
(2.04335e-15 0.868818 7.45741)
(-3.44429e-15 -1.3698 7.5882)
(-2.71008e-15 -2.10023 8.76392)
(2.34467e-15 -1.88105 11.2167)
(3.48355e-15 -1.39294 12.6009)
(1.23844e-15 -1.28839 11.9399)
(-4.33216e-16 -1.97935 10.2203)
(-7.101e-16 -2.68272 8.37207)
(3.70042e-16 -1.22188 6.2554)
(1.14593e-15 3.05451 2.77529)
(-1.73626e-16 4.83202 1.46984)
(-2.42984e-16 1.68767 4.11956)
(-9.32422e-16 -0.650229 10.9304)
(-1.01286e-15 -1.65664 13.9941)
(-1.25956e-15 -1.47338 14.296)
(-2.20245e-15 0.611802 13.9013)
(-1.79792e-15 3.20485 12.2187)
(1.14234e-15 4.67196 5.01565)
(3.2718e-15 3.39714 6.57113)
(2.95863e-15 0.461769 8.39679)
(4.84326e-16 -1.7429 9.07711)
(1.0727e-15 -2.86818 10.4028)
(4.16554e-15 -2.65117 12.5524)
(4.8846e-15 -1.52397 13.3783)
(3.69379e-15 -0.748444 12.1844)
(2.55872e-15 -1.04431 9.99003)
(1.91247e-15 -1.42432 7.24683)
(1.55512e-15 0.261358 3.72859)
(1.03646e-16 3.8259 0.285162)
(-1.27814e-15 4.34526 1.40785)
(-2.74648e-16 -0.0287167 3.46675)
(-1.27615e-15 -2.55348 6.54725)
(-1.73994e-15 -2.42213 10.1231)
(-1.48206e-15 -1.2566 9.6379)
(-1.2196e-15 1.54117 8.33457)
(-1.7457e-15 5.92162 10.4904)
(3.46362e-16 4.34039 4.93393)
(3.19188e-15 2.66268 6.39068)
(3.75235e-15 -0.162237 8.8073)
(2.38726e-15 -2.18569 9.90511)
(2.6034e-15 -3.48096 11.0452)
(3.95369e-15 -3.07778 12.4096)
(4.08023e-15 -1.25508 11.9981)
(3.23812e-15 0.0829813 9.64953)
(2.53526e-15 0.0541077 7.07624)
(1.85654e-15 -0.103925 4.25931)
(3.40124e-16 1.4048 0.937726)
(-1.91699e-15 3.85637 -0.678746)
(-1.51687e-15 3.57389 1.59017)
(1.43791e-16 -0.605445 3.03498)
(-9.2293e-16 -3.33265 2.733)
(-1.46552e-15 -2.93269 4.3817)
(-1.03219e-15 -0.851262 3.35068)
(3.13475e-16 0.206932 -0.760445)
(3.62705e-16 0.150806 -0.225337)
(-6.24166e-16 4.06045 4.65804)
(2.63119e-15 1.88622 5.71793)
(4.36704e-15 -0.938827 8.41537)
(3.20429e-15 -2.63678 9.99463)
(2.92319e-15 -3.85537 10.8628)
(3.06834e-15 -3.04414 11.2661)
(1.50697e-15 -0.452053 9.35416)
(-5.28493e-16 1.19799 6.20878)
(-5.6643e-16 1.14961 4.16287)
(-8.24288e-16 1.09763 2.10691)
(-2.52454e-15 2.20436 -0.169049)
(-2.88441e-15 3.55961 -0.477059)
(-1.43193e-15 2.97257 1.1547)
(-6.57222e-17 -0.560071 2.13434)
(3.22531e-17 -3.09775 0.883974)
(-5.59821e-16 -2.84316 -0.0491468)
(1.06401e-16 0.261791 -1.34816)
(3.6476e-16 2.24852 -1.816)
(5.79427e-16 1.82565 -3.01254)
(-1.55736e-15 3.8896 4.23777)
(1.32739e-15 1.20695 4.74908)
(4.29774e-15 -1.86837 7.23136)
(3.66169e-15 -3.16381 9.43402)
(2.85176e-15 -3.97771 10.0863)
(1.66414e-15 -2.48298 9.35054)
(-1.99703e-15 0.760075 5.86527)
(-4.40555e-15 2.19082 3.03408)
(-4.47197e-15 1.75301 1.78742)
(-3.85288e-15 1.64949 0.47586)
(-3.7118e-15 2.41472 -0.581507)
(-2.50323e-15 3.24543 -0.408828)
(-1.14573e-15 2.59084 0.54658)
(-4.08025e-16 -0.425407 1.00278)
(3.55108e-16 -2.40932 0.146067)
(4.87366e-16 -2.12332 -1.92419)
(7.90922e-16 0.107217 -3.17664)
(3.17824e-16 1.497 -2.65844)
(2.59364e-18 1.29464 -1.95308)
(-2.04567e-15 3.82561 3.72704)
(-5.54362e-17 0.734388 3.8018)
(3.29581e-15 -2.8169 5.68907)
(4.00304e-15 -3.752 8.3555)
(2.82181e-15 -3.82922 8.90747)
(6.00166e-16 -1.4134 7.04498)
(-2.82661e-15 2.0079 3.07281)
(-4.56371e-15 2.87509 1.6442)
(-5.47484e-15 2.1611 0.955521)
(-5.16763e-15 2.02825 0.00694899)
(-3.86749e-15 2.5406 -0.568177)
(-2.18863e-15 3.05133 -0.542664)
(-9.82108e-16 2.39754 0.078642)
(-2.81091e-16 -0.175291 -0.00153561)
(9.09522e-17 -1.91403 -0.62645)
(5.67884e-16 -1.50081 -2.24161)
(5.19996e-16 0.304099 -3.05731)
(3.28485e-17 1.52235 -2.53639)
(-1.24047e-16 1.50641 -2.00818)
(-2.04348e-15 3.83195 3.18162)
(-1.05668e-15 0.482907 3.01257)
(1.86036e-15 -3.72072 4.23692)
(4.05748e-15 -4.44801 6.9386)
(3.0634e-15 -3.4841 7.44426)
(2.15408e-16 -0.100694 4.75504)
(-2.34324e-15 2.79757 1.57713)
(-3.82797e-15 3.12289 1.20836)
(-4.51996e-15 2.40712 0.664148)
(-4.57255e-15 2.2744 -0.0453896)
(-3.42407e-15 2.63456 -0.497043)
(-1.89177e-15 2.94303 -0.589401)
(-8.41455e-16 2.3107 -0.282755)
(-2.9407e-16 0.183554 -0.595378)
(-1.16256e-16 -1.53503 -1.37123)
(1.53561e-16 -1.16712 -2.33057)
(3.67347e-17 0.302739 -2.86025)
(-1.34336e-16 1.22492 -2.46744)
(-2.30884e-16 1.18621 -1.87626)
(-1.77024e-15 3.86316 2.69278)
(-1.26233e-15 0.324751 2.39372)
(5.03661e-16 -4.3728 3.02005)
(3.80469e-15 -4.96218 5.60207)
(3.6831e-15 -3.02085 6.12566)
(2.61185e-16 1.10244 2.93101)
(-2.07499e-15 3.3675 1.10471)
(-3.55465e-15 3.27455 0.963042)
(-4.06706e-15 2.62623 0.428999)
(-4.10846e-15 2.47117 -0.11375)
(-3.21721e-15 2.73153 -0.483135)
(-1.66362e-15 2.92055 -0.624417)
(-6.97318e-16 2.31866 -0.599744)
(-2.48533e-16 0.386377 -0.962659)
(-1.30329e-16 -1.25362 -1.69747)
(-7.46605e-17 -0.97483 -2.30333)
(-1.1448e-16 0.250212 -2.59205)
(-1.59191e-16 1.06219 -2.20131)
(-2.43894e-16 1.1371 -1.77011)
(-1.57336e-15 3.9615 2.37205)
(-1.12377e-15 0.380004 2.10162)
(-3.52646e-16 -5.03637 2.10506)
(2.43894e-15 -5.76537 3.80721)
(3.4733e-15 -2.43739 4.38644)
(3.64635e-16 1.95717 2.06652)
(-1.77406e-15 3.64578 1.09928)
(-3.31159e-15 3.50584 0.736076)
(-3.87342e-15 2.89775 0.32325)
(-4.00661e-15 2.6999 -0.103203)
(-3.07275e-15 2.88315 -0.436399)
(-1.55736e-15 3.00813 -0.660841)
(-5.78736e-16 2.46358 -0.805312)
(-2.13201e-16 0.744797 -1.06307)
(-1.17998e-16 -1.01237 -1.55942)
(-1.14126e-16 -0.791288 -1.92008)
(-1.30523e-16 0.285428 -2.05355)
(-1.59052e-16 0.945275 -1.90224)
(-2.77539e-16 0.93879 -1.82006)
(1.02933e-16 13.2204 22.3228)
(-4.68409e-15 18.6644 31.5664)
(-4.21049e-15 16.73 26.7485)
(-4.81303e-15 14.0572 22.5114)
(-5.39161e-15 13.0582 20.0575)
(-6.65482e-15 13.8819 21.3038)
(-6.30367e-15 12.6832 18.6535)
(-5.99467e-15 11.3136 16.6353)
(-6.23216e-15 10.5747 15.1616)
(-6.67746e-15 9.93575 14.2552)
(-7.20218e-15 9.50381 13.4566)
(-7.75591e-15 8.91825 12.6797)
(-8.62744e-15 8.32206 11.6795)
(-9.5381e-15 7.41592 10.5149)
(-1.07585e-14 6.52806 9.00497)
(-1.23661e-14 5.33047 7.64523)
(-1.34796e-14 4.92735 6.81606)
(-1.38505e-14 4.7689 7.82676)
(-1.09365e-14 6.83741 10.6079)
(-7.01227e-15 7.22604 13.2425)
(3.47851e-17 13.088 22.1782)
(-4.29924e-15 16.9475 29.4355)
(-3.11366e-15 14.2261 24.1676)
(-3.71381e-15 11.9168 20.7697)
(-4.25765e-15 11.4708 19.4618)
(-6.22296e-15 12.4094 21.3087)
(-5.30858e-15 10.1738 17.0814)
(-5.46199e-15 9.0636 15.3358)
(-5.94053e-15 8.58924 14.3099)
(-6.32556e-15 8.18448 13.7613)
(-6.80039e-15 7.91738 13.0638)
(-6.98871e-15 7.34379 12.2732)
(-8.12635e-15 6.88074 11.1971)
(-8.9957e-15 6.0351 10.0502)
(-1.04025e-14 5.34303 8.43137)
(-1.21312e-14 4.20386 6.95841)
(-1.36421e-14 3.90098 5.80088)
(-1.36744e-14 3.68423 6.43335)
(-9.37944e-15 5.95785 9.32019)
(-6.0324e-15 6.17926 11.2413)
(2.95739e-17 13.2632 23.1064)
(-1.58014e-15 17.4513 30.1911)
(-1.16779e-15 15.1234 25.9553)
(-1.2267e-15 12.9058 22.1491)
(-1.42498e-15 12.2464 20.6943)
(-3.62315e-15 12.8929 21.8828)
(-2.40033e-15 11.3735 19.0214)
(-2.44504e-15 10.0344 16.559)
(-2.63332e-15 9.28523 15.1195)
(-2.80289e-15 8.71605 14.2608)
(-3.05392e-15 8.32512 13.409)
(-3.21234e-15 7.66004 12.5318)
(-3.70188e-15 7.16083 11.4147)
(-4.05154e-15 6.29494 10.3449)
(-4.92818e-15 5.65747 8.82443)
(-6.29893e-15 4.41044 7.24684)
(-7.43642e-15 3.98346 5.81231)
(-7.51373e-15 3.71793 6.36165)
(-5.02371e-15 5.93591 9.0877)
(-3.0695e-15 5.61645 10.2567)
(1.04299e-17 13.0899 22.8766)
(3.91458e-16 17.4539 29.8885)
(2.55849e-16 15.2609 26.3333)
(3.06364e-16 12.9963 22.1091)
(3.73348e-16 12.3207 20.9665)
(-2.46037e-15 12.9566 21.9148)
(-2.03306e-15 11.466 19.2216)
(-2.24466e-15 9.89488 16.5062)
(-2.5164e-15 9.03051 14.8153)
(-2.61668e-15 8.41634 13.9387)
(-2.8688e-15 8.05049 13.0384)
(-3.06319e-15 7.35112 12.1328)
(-3.46971e-15 6.8293 10.9045)
(-3.99507e-15 5.93159 9.81164)
(-4.70546e-15 5.36863 8.40484)
(-6.15335e-15 4.19895 6.97272)
(-7.53444e-15 3.79958 5.52542)
(-6.99807e-15 3.4979 5.85861)
(-4.77866e-15 5.2675 7.97184)
(-3.76394e-15 4.58728 8.31467)
(-2.25488e-18 13.3618 23.6212)
(-9.25707e-17 17.758 30.0486)
(-6.33123e-17 15.6548 27.2395)
(-7.41165e-17 13.3912 22.5675)
(-1.00608e-16 12.6595 21.6296)
(5.40623e-16 13.3472 22.5291)
(5.21992e-16 11.8302 19.7683)
(5.72532e-16 10.1863 17.0426)
(6.20621e-16 9.34689 15.2736)
(6.56974e-16 8.70843 14.3268)
(7.11079e-16 8.30434 13.3139)
(7.5367e-16 7.58226 12.3014)
(8.768e-16 6.97814 10.9791)
(9.73796e-16 6.07161 9.76344)
(1.1736e-15 5.50135 8.4668)
(1.41488e-15 4.53292 7.31538)
(1.57788e-15 4.10001 5.98868)
(1.70701e-15 3.56742 5.78939)
(1.26996e-15 4.65486 6.92539)
(8.19931e-16 3.63641 6.58285)
(4.23494e-19 13.6269 24.3377)
(2.15992e-17 17.9955 30.0807)
(1.5772e-17 15.8565 27.8606)
(1.78771e-17 13.59 22.6461)
(2.63164e-17 12.9162 22.1015)
(-1.17838e-16 13.6698 23.1067)
(-1.3111e-16 11.8902 19.7431)
(-1.3453e-16 10.2335 17.2759)
(-1.45788e-16 9.59489 15.6466)
(-1.5803e-16 8.90351 14.6807)
(-1.69453e-16 8.44189 13.4837)
(-1.79699e-16 7.62897 12.2859)
(-2.04337e-16 6.92377 10.8204)
(-2.26265e-16 5.95371 9.39932)
(-2.60439e-16 5.22634 7.92042)
(-2.93119e-16 4.28715 6.76349)
(-3.05597e-16 3.81977 5.6036)
(-3.33185e-16 3.17676 5.1743)
(-3.1047e-16 3.74227 5.5573)
(-2.7089e-16 2.55567 4.74857)
(-7.97601e-20 13.9075 25.1552)
(-5.01245e-18 18.2767 30.2685)
(-3.82703e-18 15.9338 28.4578)
(-4.29867e-18 13.7737 22.7449)
(-6.603e-18 13.1498 22.6572)
(2.58608e-17 13.8695 23.7458)
(3.18268e-17 11.7688 19.5271)
(3.06265e-17 10.2519 17.6799)
(3.23287e-17 9.93046 16.2973)
(3.55907e-17 9.11306 15.3113)
(3.8248e-17 8.58981 13.9044)
(4.05631e-17 7.64761 12.5194)
(4.47969e-17 6.8747 10.9338)
(4.87138e-17 5.85033 9.36874)
(5.33626e-17 4.9817 7.66907)
(5.73203e-17 3.93811 6.29651)
(5.95611e-17 3.41 5.11046)
(6.79183e-17 2.59654 4.48866)
(6.75738e-17 2.92635 4.40544)
(7.57693e-17 1.93331 3.96925)
(1.64214e-20 14.0393 25.5661)
(1.16292e-18 18.5231 30.477)
(9.13735e-19 15.8599 28.8169)
(1.02505e-18 13.9781 22.8231)
(1.61042e-18 13.2624 22.9792)
(-5.70784e-18 13.8299 24.0504)
(-7.29824e-18 11.5867 19.152)
(-6.63042e-18 10.2658 18.0328)
(-6.85572e-18 10.1414 16.7644)
(-7.67771e-18 9.15997 15.6788)
(-8.3044e-18 8.54888 14.1371)
(-8.80999e-18 7.53574 12.6078)
(-9.46743e-18 6.68685 10.959)
(-1.00891e-17 5.60119 9.21848)
(-1.07345e-17 4.53627 7.22787)
(-1.1438e-17 3.29872 5.53406)
(-1.24594e-17 2.64374 4.10662)
(-1.56367e-17 1.68698 3.3847)
(-1.53013e-17 2.38287 3.68188)
(-1.74465e-17 2.07222 4.52502)
(-3.49291e-21 14.2264 25.8538)
(-2.71451e-19 18.6958 30.6199)
(-2.1825e-19 15.6566 28.9358)
(-2.47555e-19 14.2957 23.0831)
(-3.8896e-19 13.2872 23.1339)
(1.30156e-18 13.6221 24.0658)
(1.643e-18 11.5172 18.991)
(1.42725e-18 10.3381 18.2922)
(1.44489e-18 10.1528 17.0251)
(1.637e-18 9.17433 15.7991)
(1.77241e-18 8.41967 14.3038)
(1.87855e-18 7.49948 12.6826)
(1.9694e-18 6.54538 11.0771)
(2.04093e-18 5.47049 9.15225)
(2.11694e-18 4.15242 6.81943)
(2.30348e-18 2.84135 4.85401)
(2.66296e-18 2.14097 3.34003)
(3.63153e-18 1.29937 2.66381)
(3.75015e-18 2.42581 3.64988)
(2.76895e-18 2.86623 5.81794)
(6.39325e-22 14.6337 26.3203)
(6.37615e-20 18.6646 30.4672)
(5.26697e-20 15.3619 28.7646)
(5.68291e-20 14.7209 23.5853)
(8.89241e-20 13.2949 23.1223)
(-2.83699e-19 13.372 23.6997)
(-3.35889e-19 11.5872 19.2664)
(-2.94905e-19 10.5016 18.3177)
(-3.01588e-19 10.0158 17.1054)
(-3.47553e-19 9.27413 15.74)
(-3.74292e-19 8.31921 14.3994)
(-3.91678e-19 7.59176 12.7376)
(-3.98514e-19 6.54142 11.2411)
(-4.20065e-19 5.57568 9.29266)
(-4.97207e-19 4.10694 6.79086)
(-5.86396e-19 2.87726 4.66841)
(-6.27675e-19 2.17816 3.17704)
(-7.7301e-19 1.54398 2.45872)
(-1.43638e-18 2.31354 3.14991)
(-1.85628e-18 3.03788 5.53852)
(-7.63782e-23 15.2481 27.2137)
(-1.50431e-20 18.4147 30.058)
(-1.30412e-20 15.1387 28.2935)
(-1.56461e-20 15.1512 24.4903)
(-2.3749e-20 13.3434 23.2947)
(7.20341e-20 13.1842 22.9013)
(7.1695e-20 11.6242 19.8463)
(6.16554e-20 10.8707 18.3164)
(6.20925e-20 9.91985 17.2342)
(7.12225e-20 9.48488 15.7045)
(7.69685e-20 8.37408 14.454)
(8.15858e-20 7.76548 12.7949)
(8.52771e-20 6.69939 11.35)
(8.31829e-20 5.83744 9.57272)
(4.99513e-20 4.50314 7.2803)
(1.23182e-20 3.43326 5.31735)
(6.15537e-20 2.77884 3.76019)
(1.59932e-19 2.02172 2.69689)
(-8.83009e-20 1.92804 2.06389)
(-3.4019e-19 1.83898 2.99406)
(-4.18451e-24 15.7891 28.5014)
(3.55313e-21 18.0331 29.563)
(3.23371e-21 15.2251 27.4284)
(2.11853e-21 15.2275 25.4241)
(2.34402e-21 13.508 23.9806)
(-7.45248e-21 13.3286 21.97)
(-1.22201e-20 11.5984 20.6763)
(-1.07079e-20 11.4196 18.6925)
(-1.08386e-20 10.147 17.5778)
(-1.2664e-20 9.82211 15.9787)
(-1.45669e-20 8.73799 14.679)
(-1.61295e-20 8.12762 13.03)
(-1.68907e-20 7.10208 11.5044)
(-1.70624e-20 6.28306 9.84374)
(-2.43077e-20 5.21606 8.02867)
(-3.89729e-20 4.36017 6.40822)
(-4.09853e-20 3.53467 4.80154)
(-3.50507e-20 2.15942 2.72791)
(-6.90112e-20 0.98431 0.55513)
(-4.69659e-19 -0.0415658 -0.245126)
(3.19833e-24 15.8782 29.444)
(-8.52213e-22 17.8556 28.7644)
(-7.88521e-22 14.8364 27.6002)
(-5.02213e-22 15.3503 25.1733)
(-5.66113e-22 13.3774 24.2505)
(1.53605e-21 13.3012 22.389)
(2.32889e-21 11.8033 21.0543)
(2.64447e-21 11.4902 19.4281)
(3.27992e-21 10.3652 18.2175)
(2.71771e-21 9.86198 16.7393)
(-5.74349e-22 8.85319 15.333)
(-6.68733e-21 8.04457 13.6342)
(-1.39236e-20 6.93542 11.8498)
(-1.76734e-20 5.92254 10.0065)
(-1.05032e-20 4.81206 8.19762)
(4.69289e-21 3.62597 6.18842)
(7.60053e-21 1.93576 3.61725)
(-1.63858e-20 0.306061 1.12062)
(-1.29918e-19 -1.28871 -1.26786)
(-1.2968e-18 -1.67546 -2.99864)
(-8.62186e-26 15.6679 29.4464)
(2.0433e-22 17.7562 28.3297)
(1.8457e-22 14.54 27.3932)
(1.06761e-22 15.2735 24.711)
(1.10705e-22 12.9421 23.7807)
(-2.9749e-22 13.1356 22.0936)
(-1.98604e-22 11.6033 21.0638)
(3.73438e-22 11.1932 19.2944)
(1.24282e-21 9.81593 17.8262)
(2.8282e-22 9.2161 16.4089)
(-4.69341e-21 8.17482 15.0235)
(-1.39201e-20 7.25433 13.3604)
(-2.52006e-20 6.11507 11.5346)
(-3.47355e-20 5.03334 9.57847)
(-3.25243e-20 3.7923 7.50552)
(-2.4479e-20 2.27132 4.90639)
(-9.85411e-20 0.189937 1.55676)
(-3.7267e-19 -1.0502 -0.357983)
(-4.10003e-19 1.2412 3.15171)
(-5.35119e-20 1.96821 4.2472)
(-3.83651e-26 15.5669 29.5702)
(-4.84814e-23 18.2241 28.6159)
(-4.78424e-23 14.6058 27.5364)
(-3.16982e-23 15.5716 24.6886)
(-1.50842e-23 13.1214 23.7878)
(1.67443e-22 13.1563 21.5044)
(3.85903e-22 11.575 20.2069)
(7.36269e-22 11.0243 18.52)
(1.22603e-21 9.9986 17.1327)
(2.05689e-21 9.21814 15.6377)
(3.56673e-21 8.36154 14.2349)
(5.88629e-21 7.58132 12.8969)
(7.66908e-21 6.81366 11.5468)
(3.02765e-21 5.89189 9.8864)
(-1.19844e-20 4.57717 7.5905)
(-2.51134e-20 3.10263 4.87355)
(-8.22945e-20 1.44384 1.80311)
(-2.13391e-19 1.15125 0.892151)
(-1.33648e-19 2.18535 2.39126)
(-4.62581e-20 2.15603 3.07548)
(1.14396e-26 15.7769 30.5636)
(1.00782e-23 18.7331 28.9376)
(7.9384e-24 14.8238 28.086)
(5.74028e-24 15.9922 25.2555)
(2.71514e-23 13.6363 24.3396)
(8.03445e-23 13.6799 22.2759)
(2.42837e-22 12.4035 20.9726)
(5.26727e-22 11.8472 19.343)
(9.17518e-22 11.0158 17.9193)
(1.38023e-21 10.3272 16.4731)
(1.88737e-21 9.62598 15.0704)
(2.28581e-21 8.92878 13.6507)
(2.29624e-21 8.18126 12.1671)
(2.19057e-21 7.34299 10.5486)
(1.81481e-21 6.34865 8.72088)
(5.37085e-22 5.18336 6.62728)
(-1.79687e-21 3.90925 4.55217)
(4.01774e-21 2.77905 2.50683)
(7.29737e-21 1.12593 0.461124)
(-2.98447e-20 -0.229299 -2.36463)
(-6.39842e-26 15.6501 31.3596)
(-2.84423e-24 18.6977 28.5654)
(-2.8753e-24 14.5284 28.2908)
(1.31522e-24 15.8705 25.547)
(2.22882e-23 13.4974 24.6854)
(1.00257e-22 13.5112 22.7464)
(2.72477e-22 12.2853 21.5112)
(5.71029e-22 11.7688 20.0056)
(9.45348e-22 11.0025 18.7029)
(1.20418e-21 10.4047 17.3712)
(9.86022e-22 9.7827 16.0702)
(-1.64616e-22 9.16093 14.7)
(-2.77345e-21 8.43965 13.1574)
(-7.45387e-21 7.49059 11.236)
(-1.38497e-20 6.08052 8.65155)
(-1.86012e-20 4.09445 5.27343)
(-1.95479e-20 2.06354 2.33111)
(-1.80223e-20 0.303705 -0.380347)
(9.00071e-21 -2.1162 -2.79803)
(-5.63177e-20 -2.30852 -6.34937)
(1.78171e-27 14.4675 30.9055)
(9.40295e-25 18.1505 27.887)
(1.48151e-24 13.577 27.8232)
(1.62685e-24 14.4826 25.4804)
(8.60965e-24 12.4189 24.5527)
(4.72903e-23 11.9678 22.9768)
(1.6045e-22 10.8719 21.7839)
(3.82651e-22 10.1623 20.4911)
(6.92178e-22 9.3766 19.3116)
(9.37257e-22 8.70704 18.1424)
(7.33763e-22 8.04448 16.9878)
(-6.25755e-22 7.37071 15.7321)
(-4.19579e-21 6.54972 14.1782)
(-1.08511e-20 5.35748 11.916)
(-1.87163e-20 3.39319 8.2743)
(-2.05742e-20 0.504016 2.91101)
(-1.6256e-20 -2.06771 -2.19994)
(-2.75922e-20 -2.851 -3.89753)
(-5.35423e-20 -3.7472 -4.99667)
(-7.74468e-20 -2.70379 -5.41796)
(5.30218e-26 11.3221 28.5208)
(7.77263e-25 16.9272 25.0228)
(1.38463e-24 11.9799 25.4389)
(-3.64082e-24 12.589 23.7496)
(-1.94174e-23 10.8331 23.0269)
(-3.8271e-23 10.1388 21.9592)
(-2.81983e-23 9.1137 21.0668)
(6.37774e-23 8.30454 20.1405)
(2.76867e-22 7.4978 19.2583)
(5.66788e-22 6.77043 18.3864)
(7.24223e-22 6.08027 17.5177)
(3.49022e-22 5.40998 16.5939)
(-1.06057e-21 4.70427 15.5072)
(-3.9088e-21 3.90313 14.1008)
(-8.26604e-21 2.97964 12.2183)
(-1.37065e-20 2.01196 9.77815)
(-1.97942e-20 1.15469 6.90636)
(-2.7852e-20 0.420972 3.91276)
(-3.82093e-20 -0.487263 0.74555)
(-3.40984e-20 -0.994726 -1.50498)
(9.16611e-26 2.64309 17.0254)
(5.21137e-25 8.06424 13.6566)
(2.58651e-25 5.17614 14.5293)
(-3.93152e-24 5.00215 14.1298)
(-1.63971e-23 4.07459 14.0925)
(-3.79297e-23 3.5109 13.9183)
(-6.00397e-23 2.93321 13.7619)
(-6.17427e-23 2.46105 13.574)
(-8.71529e-24 2.05081 13.371)
(1.44281e-22 1.71633 13.1518)
(4.41932e-22 1.45646 12.9257)
(9.01496e-22 1.279 12.7033)
(1.47889e-21 1.18989 12.4929)
(2.0529e-21 1.2019 12.2814)
(2.4556e-21 1.3266 12.0233)
(2.55974e-21 1.51957 11.675)
(2.3794e-21 1.79833 11.151)
(2.04114e-21 2.4484 10.1602)
(1.51229e-21 2.6579 8.70194)
(5.57707e-22 -0.185548 6.59041)
(-7.83242e-27 -2.68085 17.0955)
(-3.05803e-26 -8.06792 13.7391)
(-3.35506e-26 -5.17816 14.6136)
(-3.5838e-26 -4.98729 14.2249)
(-1.21254e-26 -4.05502 14.1979)
(-5.76625e-26 -3.48502 14.0363)
(-5.2419e-25 -2.90495 13.8932)
(-1.94048e-24 -2.42963 13.7164)
(-4.49786e-24 -2.0137 13.5173)
(-7.37097e-24 -1.66709 13.2885)
(-8.99073e-24 -1.3853 13.0317)
(-8.74793e-24 -1.17205 12.748)
(-8.01685e-24 -1.02897 12.4394)
(-6.19526e-24 -0.967021 12.1049)
(8.67931e-24 -1.00586 11.7477)
(6.0924e-23 -1.1214 11.4034)
(1.53454e-22 -1.36608 11.02)
(2.12078e-22 -2.07748 10.1833)
(1.39119e-22 -2.42557 8.72646)
(2.05488e-23 0.173464 6.5299)
(4.62359e-27 -11.3216 28.6811)
(2.24189e-25 -17.1218 25.0871)
(3.10085e-25 -12.097 25.5006)
(-1.83485e-25 -12.8145 23.7511)
(-2.663e-24 -11.0867 22.9893)
(-8.43697e-24 -10.4691 21.8743)
(-1.74167e-23 -9.51858 20.9392)
(-2.80926e-23 -8.80297 19.9745)
(-3.72839e-23 -8.10179 19.0586)
(-4.17138e-23 -7.49261 18.1572)
(-4.02126e-23 -6.9301 17.2631)
(-3.53019e-23 -6.40548 16.3408)
(-2.98896e-23 -5.89711 15.3643)
(-2.64902e-23 -5.39511 14.3101)
(-7.63984e-23 -4.84199 13.0682)
(-4.29776e-22 -4.00028 11.2252)
(-1.59171e-21 -2.44895 7.95537)
(-3.60962e-21 0.080589 2.72554)
(-4.6436e-21 2.77567 -2.90982)
(-3.4389e-21 2.57309 -5.02574)
(3.06792e-27 -14.1011 30.3807)
(-3.78465e-25 -18.0939 27.1479)
(-6.56722e-26 -13.2849 27.1321)
(-9.26902e-25 -14.4612 24.561)
(-5.62428e-24 -12.2967 23.5822)
(-1.6641e-23 -11.9656 21.8356)
(-3.45101e-23 -10.8725 20.5331)
(-5.28954e-23 -10.2241 19.0984)
(-6.45655e-23 -9.47697 17.7985)
(-6.83312e-23 -8.86746 16.5193)
(-7.28426e-23 -8.29789 15.2984)
(-7.96135e-23 -7.81211 14.0878)
(-3.65177e-23 -7.38194 12.8633)
(1.59845e-22 -6.95017 11.5592)
(5.81647e-22 -6.43056 10.0943)
(1.20014e-21 -5.73408 8.32365)
(1.62044e-21 -4.55664 5.92097)
(2.71492e-21 -2.94903 2.78173)