/*--------------------------------*- C++ -*----------------------------------*\
| =========                 |                                                 |
| \\      /  F ield         | OpenFOAM: The Open Source CFD Toolbox           |
|  \\    /   O peration     | Version:  4.1                                   |
|   \\  /    A nd           | Web:      www.OpenFOAM.org                      |
|    \\/     M anipulation  |                                                 |
\*---------------------------------------------------------------------------*/
FoamFile
{
    version     2.0;
    format      ascii;
    class       volScalarField;
    location    "1";
    object      p;
}
// * * * * * * * * * * * * * * * * * * * * * * * * * * * * * * * * * * * * * //

dimensions      [0 2 -2 0 0 0 0];

internalField   nonuniform List<scalar> 
1280
(
-2.18774
-0.907187
-1.48658
-3.59085
-1.39991
-2.81512
-4.7057
-5.13864
-3.53394
-4.67593
-7.89182
-5.88021
-7.33937
-11.3554
-9.41725
-11.3788
-16.2225
-14.8224
-17.9109
-29.5906
-22.5661
-17.5199
-20.9532
-26.5269
-27.9596
-29.7005
-53.8594
-25.5463
-23.7373
-22.0206
-20.2413
-18.5227
-16.7093
-15.4964
-13.6046
-12.9403
-11.0685
-10.1952
-10.1425
-4.35149
-13.571
-13.5683
-13.6507
-13.4618
-15.2662
-14.2099
-14.1651
-13.7135
-13.304
-13.4673
-13.4579
-13.4761
-13.6711
-14.0998
-14.3899
-15.4588
-13.7438
-13.9315
-13.8919
-14.096
-5.09619
-11.0943
-11.2522
-12.1967
-14.1712
-14.8915
-16.8574
-18.1101
-19.9483
-21.685
-23.5248
-25.27
-27.0054
-54.5429
-30.4591
-28.7023
-27.2485
-21.5681
-18.1128
-23.2512
-30.394
-18.5545
-15.4236
-16.7932
-11.8483
-9.86009
-11.7925
-7.71114
-6.23377
-8.22284
-4.95573
-3.78543
-5.37247
-4.90789
-2.98958
-1.55005
-3.71472
-1.58094
-0.995227
-2.23597
0.00151559
0.00526232
0.00960228
0.0154959
0.0233943
0.0342104
0.049063
0.0695271
0.0977828
0.136794
0.189976
0.258813
0.332049
0.35381
0.0648629
-1.61673
-3.3644
-3.97688
0.216102
0.00423257
0.0149861
0.0274609
0.0442611
0.0666401
0.097153
0.138848
0.196019
0.274614
0.382903
0.53152
0.731435
0.973964
1.14462
0.480512
-4.46171
-8.11908
-8.4307
-0.761662
0.00672795
0.0245757
0.0454008
0.0733569
0.110547
0.161218
0.230413
0.325224
0.455457
0.634741
0.881679
1.2223
1.66285
2.01613
0.86101
-7.85739
-11.0615
-11.6087
-0.542764
0.00899629
0.033575
0.0619235
0.100056
0.150685
0.219617
0.313622
0.442217
0.618463
0.860495
1.19548
1.67362
2.34056
3.00591
1.8905
-8.25414
-13.2903
-15.3241
1.49478
0.0110084
0.0420484
0.0771986
0.124696
0.18765
0.273342
0.390074
0.549477
0.767267
1.06487
1.47681
2.07838
2.96037
4.016
3.5344
-5.80122
-16.1876
-15.0257
3.66866
0.0127218
0.0497717
0.0907002
0.146389
0.220069
0.320365
0.456833
0.642798
0.895832
1.23899
1.71033
2.40002
3.40691
4.67474
4.63156
-1.84329
-16.7089
-12.2357
8.87598
0.0140855
0.0565713
0.102156
0.164728
0.247375
0.359909
0.51286
0.720801
1.00226
1.3801
1.89239
2.63456
3.65932
4.71921
3.11791
-2.0276
-9.41869
-4.9383
15.3181
0.015035
0.0621655
0.111165
0.179104
0.268701
0.390747
0.556464
0.781211
1.08358
1.48398
2.00491
2.69145
3.59268
4.02135
0.711974
-2.01813
2.57622
11.0199
-10.5483
0.0156109
0.0663505
0.117544
0.189247
0.283694
0.412419
0.587095
0.823551
1.13995
1.55326
2.07268
2.73329
3.68563
4.25603
1.71572
-0.0974425
6.02295
17.2349
-6.433
0.0157189
0.0684183
0.120492
0.193948
0.290625
0.422416
0.601185
0.843004
1.16619
1.58822
2.11746
2.7797
3.7574
4.46856
2.33461
0.489205
6.60595
15.2488
-2.29123
0.0157189
0.0684179
0.120491
0.193947
0.290622
0.422411
0.601176
0.842986
1.16616
1.58817
2.11737
2.77951
3.75649
4.47134
2.37166
0.512079
6.48383
15.1345
-2.20141
0.0156108
0.0663493
0.117542
0.189243
0.283686
0.412404
0.587067
0.823498
1.13985
1.55307
2.07234
2.73272
3.68417
4.25994
1.7798
-0.0245764
5.86184
17.1024
-6.09581
0.0150348
0.0621634
0.111161
0.179097
0.268687
0.390721
0.556416
0.78112
1.0834
1.48365
2.00426
2.6904
3.59143
4.02981
0.796858
-1.90624
2.57522
10.9305
-11.2439
0.0140853
0.0565685
0.102151
0.164718
0.247357
0.359875
0.512796
0.720678
1.00202
1.37962
1.89134
2.63259
3.65715
4.72142
3.15772
-2.03295
-9.7032
-5.19331
15.5654
0.0127214
0.0497685
0.0906943
0.146378
0.220048
0.320327
0.456759
0.642654
0.895544
1.23839
1.70902
2.3973
3.40235
4.66905
4.61837
-2.01758
-17.0155
-12.3392
9.52112
0.0110079
0.0420451
0.0771925
0.124685
0.187628
0.273302
0.389997
0.549325
0.766957
1.06422
1.47537
2.07524
2.95417
4.0049
3.49556
-6.04533
-16.402
-15.3461
3.78738
0.00899576
0.033572
0.0619179
0.100046
0.150665
0.219579
0.31355
0.442072
0.618165
0.859855
1.19406
1.67045
2.33376
2.99164
1.84164
-8.51343
-13.5083
-15.4235
1.68326
0.00672746
0.0245731
0.0453961
0.0733481
0.110531
0.161188
0.230353
0.325104
0.455207
0.6342
0.880465
1.21956
1.65666
2.00263
0.82428
-8.03998
-11.3093
-11.6958
-0.470743
0.00423222
0.0149844
0.0274578
0.0442554
0.0666296
0.0971331
0.138809
0.195941
0.274451
0.382546
0.530717
0.729614
0.969752
1.13522
0.460381
-4.53779
-8.28738
-8.50287
-0.70623
0.00151543
0.00526165
0.00960106
0.0154937
0.0233902
0.0342027
0.0490481
0.0694973
0.0977205
0.136658
0.18967
0.258122
0.330452
0.350215
0.0582574
-1.63901
-3.41466
-3.99309
0.244988
25.5951
22.8597
23.1047
20.4463
20.2749
19.3642
18.9735
18.1409
17.9706
17.8047
17.8015
17.7654
18.1978
17.9713
19.1541
18.4344
20.4229
19.4262
21.3503
21.3356
18.1868
17.5467
18.4319
17.0512
17.902
16.9131
17.1286
16.6511
16.4721
16.2058
16.015
15.7056
15.7843
15.1039
15.8082
14.5113
15.9004
14.2542
15.5492
14.4903
20.9207
19.9926
21.053
19.5962
20.5535
19.5899
19.9817
19.5339
19.5199
19.3316
19.2161
18.9792
19.0817
18.445
19.1304
17.808
19.1608
17.4271
18.5573
17.6758
20.9322
19.86
21.1595
19.5242
20.6974
19.6702
20.1315
19.7109
19.7136
19.5588
19.4626
19.2572
19.3624
18.7831
19.4337
18.2138
19.5002
17.8891
19.0039
18.1743
22.1282
20.9525
22.4356
20.6803
21.91
20.8759
21.3428
20.9412
20.9492
20.8115
20.7223
20.5386
20.6325
20.105
20.6892
19.5853
20.73
19.2812
20.2471
19.5224
22.5926
21.3153
23.0179
21.1458
22.42
21.3978
21.8573
21.482
21.4895
21.3706
21.2891
21.1293
21.2168
20.7449
21.2814
20.284
21.3371
20.0242
20.8971
20.3018
23.3797
21.9499
23.9032
21.8814
23.1652
22.1737
22.5797
22.2374
22.2175
22.1072
22.0164
21.8666
21.928
21.5048
21.9588
21.0818
21.9829
20.8411
21.5569
21.0945
23.9208
22.3237
24.6074
22.4225
23.6933
22.7777
23.1101
22.8232
22.7781
22.6857
22.594
22.464
22.5044
22.1462
22.5156
21.7825
22.5244
21.5757
22.1314
21.8156
24.1965
22.3874
25.1107
22.7243
23.971
23.1631
23.404
23.1862
23.1164
23.0445
22.9556
22.8501
22.869
22.5881
22.864
22.2972
22.8653
22.1331
22.5197
22.3627
23.7988
21.6738
25.0223
22.4034
23.6857
23.0221
23.2059
23.0858
23.0249
22.9966
22.9365
22.8793
22.8948
22.7171
22.9103
22.5381
22.9424
22.4467
22.6825
22.6976
22.1306
19.3693
23.5351
20.6239
22.15
21.6079
21.8454
21.8583
21.8706
21.9306
21.9457
21.9776
22.0273
21.9868
22.131
21.9793
22.2562
22.009
22.1421
22.3358
19.9354
16.0932
20.9005
17.5654
19.6884
18.9885
19.4213
19.5292
19.6383
19.796
19.8981
20.0258
20.123
20.2118
20.3273
20.3647
20.5403
20.4936
20.5501
20.8538
19.075
14.7193
19.1395
15.4206
18.4393
17.0906
17.7992
17.86
17.9908
18.1786
18.3079
18.4729
18.5849
18.7394
18.8279
18.964
19.067
19.1176
19.1012
19.404
17.3674
14.4981
18.0471
14.4547
18.2021
16.3714
17.3291
17.3649
17.4964
17.7058
17.8551
18.0425
18.1834
18.3842
18.5024
18.703
18.8412
18.9567
18.9714
19.3059
10.1789
9.57915
12.6113
9.71519
13.259
11.9975
13.0457
13.3995
13.7389
14.1803
14.5642
14.963
15.3257
15.7176
16.0339
16.3914
16.6927
16.9207
17.0473
17.468
0.33891
0.338697
3.57157
0.475445
3.47424
2.68314
3.54079
4.11818
4.67689
5.4073
6.18701
7.03733
7.94894
8.91355
9.88358
10.8878
11.8136
12.6957
13.2495
14.1746
-5.7745
-6.90224
-1.34605
-6.43052
-2.90693
-4.65625
-4.16767
-4.26138
-4.16145
-3.87446
-3.39448
-2.704
-1.75501
-0.587247
0.855822
2.549
4.38009
6.57873
8.20772
10.9155
-55.9059
-60.106
-49.9766
-54.6951
-50.1338
-51.0916
-49.8622
-49.7392
-49.3543
-49.0584
-48.6866
-48.2218
-47.6045
-46.8387
-45.8406
-44.6426
-43.2425
-41.5332
-39.9782
-34.9061
-60.1768
-82.223
-73.8232
-84.5148
-86.7874
-92.765
-96.8837
-101.169
-104.613
-107.487
-109.585
-110.912
-111.413
-111.069
-109.824
-107.617
-104.612
-101.039
-96.6904
-91.4821
637.692
554.779
505.462
449.187
400.274
353.223
309.652
268.626
230.197
194.042
160.01
127.889
97.4725
68.6017
41.1879
14.4665
-11.7562
-34.2007
-58.7188
-92.8047
636.879
553.972
504.659
448.388
399.479
352.431
308.863
267.841
229.415
193.262
159.233
127.115
96.7033
67.8379
40.4308
13.7158
-12.501
-34.931
-59.427
-93.5043
-60.9059
-82.943
-74.5411
-85.2289
-87.4975
-93.4718
-97.5885
-101.871
-105.313
-108.185
-110.281
-111.606
-112.105
-111.76
-110.511
-108.302
-105.301
-101.734
-97.3806
-92.1515
-56.6726
-60.8763
-50.7456
-55.4683
-50.91
-51.8716
-50.6438
-50.5271
-50.146
-49.856
-49.4905
-49.0331
-48.4241
-47.6673
-46.679
-45.4897
-44.0979
-42.4045
-40.8462
-35.7615
-6.70174
-7.82669
-2.26889
-7.35057
-3.82474
-5.57485
-5.07984
-5.17407
-5.07113
-4.78195
-4.29961
-3.60629
-2.6538
-1.48105
-0.0332784
1.66907
3.51347
5.71438
7.36218
10.1026
-0.486316
-0.467145
2.79564
-0.290155
2.72851
1.95645
2.83224
3.42928
4.00795
4.75892
5.56023
6.43317
7.36817
8.35855
9.35235
10.3865
11.3419
12.246
12.8294
13.8038
9.62326
9.05432
12.127
9.23386
12.7981
11.565
12.6254
13.0025
13.3607
13.8216
14.2252
14.6439
15.026
15.4389
15.7719
16.1527
16.4716
16.7136
16.8526
17.311
17.0351
14.1953
17.7726
14.1782
17.9404
16.1361
17.0982
17.1511
17.2942
17.5159
17.6771
17.8759
18.0273
18.2393
18.364
18.5774
18.7208
18.8419
18.8562
19.2121
18.8952
14.5586
19.0028
15.2779
18.3018
16.9685
17.6791
17.7479
17.8839
18.0771
18.2108
18.3798
18.4948
18.6525
18.7406
18.8807
18.982
19.0319
19.0088
19.3206
19.8392
16.0072
20.8237
17.4826
19.606
18.9085
19.3415
19.449
19.5574
19.7142
19.8144
19.94
20.0342
20.1201
20.2303
20.2649
20.4349
20.383
20.4296
20.7323
22.0398
19.2803
23.4467
20.5267
22.0513
21.504
21.7392
21.7464
21.7542
21.809
21.8183
21.8444
21.8878
21.841
21.9778
21.8197
22.0895
21.836
21.9591
22.1458
23.6638
21.5356
24.8792
22.2504
23.5301
22.8582
23.0381
22.9102
22.8434
22.8084
22.7416
22.6777
22.6865
22.5022
22.6887
22.3101
22.7078
22.2075
22.4353
22.4408
23.9931
22.1787
24.8951
22.5
23.7442
22.9279
23.1652
22.9401
22.8652
22.7875
22.6931
22.5822
22.5959
22.3098
22.5806
22.009
22.5714
21.8366
22.2168
22.0481
23.6558
22.0518
24.3294
22.1377
23.4074
22.4836
22.8138
22.5206
22.4716
22.3744
22.2781
22.1435
22.1793
21.8164
22.181
21.4426
22.1786
21.2269
21.7758
21.444
23.0646
21.6241
23.572
21.5434
22.8275
21.8259
22.231
21.8809
21.8571
21.7409
21.6446
21.4889
21.544
21.1141
21.562
20.6761
21.5701
20.4223
21.1292
20.6446
22.2317
20.9375
22.6327
20.7508
22.0261
20.9888
21.4471
21.0602
21.0618
20.9338
20.8438
20.6752
20.7534
20.2712
20.7996
19.7883
20.8335
19.511
20.3742
19.7509
21.7024
20.5024
21.9752
20.2053
21.4351
20.3812
20.8445
20.428
20.4275
20.2778
20.1776
19.9826
20.0651
19.5256
20.1007
18.9812
20.1186
18.6596
19.6183
18.8637
20.4057
19.3042
20.5923
18.9409
20.1115
19.0644
19.5192
19.0842
19.0771
18.9105
18.8036
18.5878
18.6828
18.0935
18.7373
17.5047
18.7871
17.169
18.2836
17.4273
20.2925
19.3336
20.383
18.914
19.8672
18.8873
19.2725
18.8141
18.7918
18.595
18.472
18.2286
18.3248
17.6835
18.3664
17.0381
18.3924
16.6572
17.7968
16.8988
17.4333
16.7668
17.6485
16.2637
17.1158
16.1186
16.3316
15.8521
15.6709
15.4054
15.2143
14.9054
14.9852
14.308
15.0169
13.7226
15.121
13.4775
14.7935
13.7298
24.9169
22.1523
22.4035
19.752
19.5851
18.6783
18.292
17.4663
17.2935
17.1072
17.0927
17.0507
17.4764
17.2465
18.4261
17.7038
19.696
18.6921
20.6403
20.6173
)
;

boundaryField
{
    outletWall
    {
        type            fixedValue;
        value           uniform 0;
    }
    fineWalls
    {
        type            zeroGradient;
    }
    fineFrontAndBack
    {
        type            zeroGradient;
    }
    fineplugLeft
    {
        type            cyclicAMI;
        value           nonuniform List<scalar> 
20
(
16.1982
15.0517
13.5019
14.1246
12.1595
12.6024
11.2778
11.2164
10.5078
10.1929
9.83967
9.62903
9.40347
10.6918
9.55122
10.628
11.0517
14.2931
14.7838
15.9628
)
;
    }
    fineplugRight
    {
        type            cyclicAMI;
        value           nonuniform List<scalar> 
20
(
15.4746
14.2934
12.7032
13.3175
11.3288
11.7626
10.4257
10.3591
9.65088
9.33718
8.98083
8.78083
8.57195
10.0101
8.8508
9.92759
10.3519
13.6092
14.0993
15.2833
)
;
    }
    inletOutletLeft
    {
        type            cyclicAMI;
        value           nonuniform List<scalar> 
20
(
16.1982
15.0517
13.5019
14.1246
12.1595
12.6024
11.2778
11.2164
10.5078
10.1929
9.83967
9.62903
9.40347
10.6918
9.55122
10.628
11.0517
14.2931
14.7838
15.9628
)
;
    }
    inletLeft
    {
        type            zeroGradient;
    }
    inletWallsLeft
    {
        type            zeroGradient;
    }
    inletFacesLeft
    {
        type            zeroGradient;
    }
    inletOutletRight
    {
        type            cyclicAMI;
        value           nonuniform List<scalar> 
20
(
15.4746
14.2934
12.7032
13.3175
11.3288
11.7626
10.4257
10.3591
9.65088
9.33718
8.98083
8.78083
8.57195
10.0101
8.8508
9.92759
10.3519
13.6092
14.0993
15.2833
)
;
    }
    inletRight
    {
        type            zeroGradient;
    }
    inletWallsRight
    {
        type            zeroGradient;
    }
    inletFacesRight
    {
        type            zeroGradient;
    }
}


// ************************************************************************* //
