/*--------------------------------*- C++ -*----------------------------------*\
| =========                 |                                                 |
| \\      /  F ield         | OpenFOAM: The Open Source CFD Toolbox           |
|  \\    /   O peration     | Version:  4.1                                   |
|   \\  /    A nd           | Web:      www.OpenFOAM.org                      |
|    \\/     M anipulation  |                                                 |
\*---------------------------------------------------------------------------*/
FoamFile
{
    version     2.0;
    format      ascii;
    class       surfaceScalarField;
    location    "1";
    object      phi;
}
// * * * * * * * * * * * * * * * * * * * * * * * * * * * * * * * * * * * * * //

dimensions      [0 3 -1 0 0 0 0];

internalField   nonuniform List<scalar> 
2360
(
6540.57
7148.3
-607.728
7148.3
7148.3
7637.47
-489.174
7637.47
7637.47
7637.47
8222.96
-585.495
8222.96
8222.96
8813.84
-590.872
8813.84
8813.84
9515.7
-701.866
9515.7
9515.7
12125.3
-2609.58
12125.3
12125.3
13003.1
13896.2
14768.4
15666.8
16649.4
17654.2
338.198
18312.7
1328.54
2312.75
3292.19
4267.99
5242.45
6211.8
7189.36
8150.58
9139.81
10083
11092.3
12019.6
13312.6
-1311.57
14624.2
-1311.57
-1311.57
-1311.57
-2793.48
1481.91
-2793.48
-2793.48
-2793.48
-451.347
-2342.14
-451.351
-451.351
2521.17
-2972.52
2521.17
2521.16
2521.16
1263.07
1258.09
1263.08
1263.08
1263.08
-13440.9
14703.9
-12146.9
-11216.8
-10207.4
-9263.59
-8274.01
-7312.46
-6334.81
-5365.6
-4391.64
-3416.72
-2438.4
-1454.92
-464.521
-17800.7
18332.2
-16796.7
-15815.1
-14917.8
-14045.6
-13150.8
-12273.1
-12273.1
-12273.1
-9630.05
-2643.03
-9630.05
-9630.05
-8884.27
-745.775
-8884.27
-8884.27
-8271.14
-613.137
-8271.14
-8271.14
-7669.11
-602.03
-7669.11
-7669.11
-7669.11
-7170.92
-498.183
-7170.92
-7170.92
-6559.8
-611.122
-121.325
-307.805
-133.566
-548.302
-153.9
-732.885
-181.662
-933.686
-217.595
-1157.22
-262.672
-1414.81
-318.41
-1716.36
-386.734
-2072.76
-469.972
-2496.46
-570.541
-3002.31
-689.418
-3609.56
-819.185
-4347
-918.58
-5257.66
-844.388
-6396.85
-306.472
-7565.22
874.095
-6520.37
1431.24
4135.83
1139.67
9813.45
10576.8
-192.534
-299.989
-212.344
-528.492
-244.979
-700.25
-288.955
-889.71
-345.369
-1100.81
-415.653
-1344.52
-502.079
-1629.94
-607.587
-1967.25
-735.909
-2368.13
-891.709
-2846.51
-1079.92
-3421.35
-1296.5
-4130.41
-1480.41
-5073.76
-1383.43
-6493.83
-536.129
-8412.51
1104.59
-8161.09
1710.22
3530.2
1059.88
10463.8
11138.5
-238.546
-288.743
-264.277
-502.761
-305.53
-658.997
-360.521
-834.718
-430.591
-1030.74
-517.486
-1257.63
-623.974
-1523.45
-753.694
-1837.53
-911.478
-2210.35
-1104.67
-2653.32
-1346.08
-3179.94
-1647.84
-3828.65
-1956.76
-4764.84
-1998.97
-6451.62
-1322.46
-9089.02
175.733
-9659.29
1456.87
2249.06
1057.55
10863.1
11594
-286.511
-272.608
-320.375
-468.896
-372.072
-607.301
-440.024
-766.766
-525.921
-944.843
-631.973
-1151.58
-761.571
-1393.85
-919.167
-1679.94
-1110.82
-2018.69
-1347.46
-2416.68
-1655.71
-2871.69
-2084.86
-3399.5
-2643.81
-4205.89
-3169.18
-5926.25
-3392.04
-8866.16
-2880.64
-10170.7
-126.088
-505.485
785.772
9951.25
11766.6
-334.283
-250.439
-377.665
-425.514
-440.844
-544.122
-522.786
-684.824
-625.57
-842.059
-751.953
-1025.19
-905.974
-1239.83
-1092.83
-1493.08
-1319.44
-1792.08
-1599.98
-2136.14
-1980.16
-2491.51
-2577.88
-2801.78
-3562.38
-3221.39
-5068.65
-4419.98
-7025.84
-6908.98
-7796.23
-9400.3
-3426.06
-4875.66
26.4329
6498.76
11047.3
-383.743
-220.911
-438.355
-370.903
-514.456
-468.02
-611.963
-587.317
-733.384
-720.638
-882.124
-876.454
-1062.89
-1059.06
-1281.54
-1274.43
-1545.44
-1528.18
-1871.12
-1810.46
-2327.17
-2035.46
-3131.09
-1997.86
-4685.19
-1667.29
-7432.91
-1672.26
-11334.9
-3007.02
-13957.7
-6777.42
-10294.9
-8538.47
-2552.44
-1243.73
5851.8
-436.936
-182.439
-504.865
-302.973
-595.685
-377.201
-710.872
-472.13
-853.37
-578.14
-1027.34
-702.48
-1238.17
-848.237
-1492.39
-1020.21
-1798.32
-1222.26
-2174.48
-1434.29
-2701.19
-1508.76
-3648.13
-1050.92
-5468.34
152.918
-8549.61
1409.02
-12615.2
1058.54
-15723.7
-3668.86
-16317
-7945.17
-15311.5
-2249.25
8872.54
-495.969
-133.292
-579.628
-219.315
-687.286
-269.542
-822.77
-336.646
-989.428
-411.482
-1192.32
-499.589
-1437.55
-603.007
-1732.73
-725.03
-2088.61
-866.368
-2521.79
-1001.11
-3047.11
-983.441
-3650.4
-447.633
-4335.4
837.922
-5175.84
2249.45
-5843.4
1726.1
-6664.14
-2848.12
-10279.1
-4330.19
-14661
2132.6
8915.5
-561.052
-72.1925
-662.486
-117.882
-788.769
-143.258
-946.818
-178.597
-1140.33
-217.966
-1375.44
-264.481
-1659.21
-319.236
-2000.4
-383.844
-2409.92
-456.848
-2893.47
-517.566
-3402.26
-474.645
-3735.11
-114.784
-3619.52
722.331
-3055.85
1685.78
-2394.22
1064.48
-3144.82
-2097.53
-6338.94
-1136.06
-7932.35
3726.02
2241.24
-621.642
0.00930404
-739.542
0.0183564
-882.826
0.0258225
-1061.46
0.0377905
-1279.48
0.0557308
-1544.05
0.0837686
-1863.41
0.12768
-2247.45
0.195188
-2704.6
0.29827
-3222.64
0.476368
-3698.14
0.854644
-3814.57
1.64752
-3094.3
2.05886
-1397.76
-10.7635
-246.472
-86.8078
-2244.4
-99.5997
-3343.69
-36.7783
445.924
-63.5917
-285.357
-621.634
72.2093
-739.532
117.916
-882.812
143.306
-1061.44
178.667
-1279.45
218.069
-1544.01
264.638
-1863.36
319.477
-2247.38
384.217
-2704.51
457.432
-3222.57
518.534
-3698.18
476.465
-3814.99
118.455
-3096.2
-716.733
-1417.24
-1689.72
-371.577
-1132.47
-2406.19
1935.01
-3461.19
1018.22
221.64
-3746.42
-2405.85
-561.041
133.306
-662.469
219.344
-788.747
269.583
-946.786
336.706
-1140.29
411.572
-1375.38
499.725
-1659.12
603.218
-2000.26
725.361
-2409.73
866.902
-2893.25
1002.05
-3402.21
985.429
-3735.85
452.091
-3623
-829.581
-3076.32
-2236.4
-2482.42
-1726.37
-3307.88
2760.47
-6439.83
4150.17
-7927.61
-2258.64
-8851.55
-495.949
182.449
-579.601
302.996
-687.251
377.233
-822.723
472.178
-989.362
578.212
-1192.23
702.589
-1437.42
848.409
-1732.54
1020.48
-2088.35
1222.71
-2521.43
1435.13
-3046.65
1510.65
-3650.01
1055.46
-4335.64
-143.95
-5182.54
-1389.51
-5889.89
-1019.02
-6811.54
3682.12
-10501.3
7839.93
-14772.6
2012.69
-9000.02
-436.907
220.915
-504.828
370.917
-595.636
468.042
-710.807
587.349
-853.282
720.687
-1027.22
876.529
-1238
1059.18
-1492.15
1274.64
-1797.98
1528.54
-2173.98
1811.13
-2700.2
2036.87
-3645.9
2001.16
-5464.5
1674.65
-8543.21
1689.2
-12608.9
3046.62
-15748.6
6821.92
-16381.4
8472.69
-15351.4
982.678
-6038.69
-383.71
250.438
-438.311
425.518
-514.399
544.13
-611.888
684.838
-733.283
842.081
-881.984
1025.23
-1062.69
1239.89
-1281.25
1493.2
-1545.03
1792.32
-1870.5
2136.6
-2326.06
2492.43
-3128.67
2803.77
-4679.84
3225.82
-7421.33
4430.69
-11309.4
6934.65
-13908.5
9421.02
-10194.4
4758.67
-2510.79
-6700.97
-11159.1
-334.249
272.601
-377.621
468.89
-440.786
607.296
-522.71
766.761
-625.467
944.838
-751.81
1151.57
-905.768
1393.85
-1092.52
1679.95
-1318.97
2018.76
-1599.24
2416.87
-1978.91
2872.1
-2575.51
3400.36
-3557.49
4207.8
-5057.77
5930.96
-6999.53
8876.42
-7744.79
10166.3
-3363.44
377.319
22.3632
-10086.8
-11838.6
-286.479
288.731
-320.334
502.745
-372.018
658.979
-439.952
834.695
-525.825
1030.71
-631.839
1257.59
-761.377
1523.39
-918.873
1837.45
-1110.35
2210.24
-1346.67
2653.19
-1654.34
3179.77
-2082.39
3828.41
-2639.16
4764.57
-3159.45
6451.25
-3368.51
9085.48
-2825.43
9623.2
-87.8047
-2360.31
779.381
-10954
-11650.1
-238.518
299.972
-264.241
528.468
-305.483
700.221
-360.46
889.672
-430.508
1100.76
-517.37
1344.45
-623.806
1629.82
-753.437
1967.08
-911.061
2367.87
-1103.94
2846.07
-1344.79
3420.61
-1645.48
4129.1
-1952.35
5071.44
-1990.45
6489.36
-1304.83
8399.86
213.557
8104.82
1481.68
-3628.43
1054.16
-10526.4
-11181.4
-192.511
307.784
-212.315
548.272
-244.941
732.848
-288.905
933.636
-345.302
1157.16
-415.56
1414.71
-501.944
1716.21
-607.382
2072.52
-735.577
2496.06
-891.134
3001.63
-1078.88
3608.36
-1294.58
4344.8
-1476.78
5253.64
-1376.65
6389.23
-524.611
7547.82
1118.59
6461.62
1712.66
-4222.5
1056.4
-9870.18
-10614.2
-121.309
-133.546
-153.875
-181.629
-217.552
-262.613
-318.327
-386.611
-469.777
-570.213
-688.841
-818.13
-916.593
-840.676
-300.634
884.552
1438.22
1139.82
167.266
-1045.07
309.441
-1035.24
428.652
-991.406
457.275
-927.018
421.16
-946.563
352.424
-936.034
306.193
-950.472
266.33
-950.47
233.636
-951.502
205.712
-951.511
181.638
-951.72
161.334
-954.158
141.302
-949.307
124.202
-960.456
102.165
-939.182
86.928
-973.979
63.9271
-920.232
58.6375
-1003.99
-6.75857
-861.888
-1299.74
40.6968
-1085.76
19.5569
-1014.09
23.0108
-994.854
31.0827
-935.084
53.697
-969.172
63.7206
-946.052
69.8883
-956.635
69.2727
-949.849
69.5433
-951.768
69.5392
-951.502
68.8754
-951.051
67.8925
-953.171
66.6735
-948.084
66.3277
-960.107
65.5376
-938.388
67.1256
-975.564
67.4991
-920.603
71.7242
-1008.21
42.3699
-832.532
-1257.37
48.8372
-1134.59
48.986
-1014.24
45.7289
-991.591
35.2906
-924.64
30.2125
-964.088
24.0933
-939.927
20.9431
-953.479
19.0759
-947.976
17.8289
-950.516
16.5485
-950.216
15.5961
-950.094
14.6342
-952.204
14.3075
-947.753
13.5724
-959.367
13.9199
-938.732
13.0465
-974.687
14.0867
-921.64
11.9144
-1006.04
30.3021
-850.917
-1227.07
44.868
-1179.46
40.4847
-1009.85
44.6649
-995.769
46.198
-926.17
48.177
-966.065
50.0312
-941.779
51.1627
-954.609
51.5382
-948.349
51.2366
-950.212
50.7531
-949.731
50.0411
-949.38
48.809
-950.97
47.7886
-946.73
45.2331
-956.81
44.4501
-937.947
39.5541
-969.789
39.8116
-921.896
31.2597
-997.484
35.3595
-855.015
-1191.71
37.284
-1216.73
49.1772
-1021.74
53.3574
-999.945
53.2074
-926.015
52.7679
-965.62
52.9959
-942.001
52.2414
-953.849
51.9524
-948.055
51.2642
-949.519
50.4153
-948.877
49.3844
-948.346
47.9435
-949.525
46.7679
-945.551
44.3952
-954.434
43.7335
-937.282
39.8863
-965.939
40.7362
-922.744
34.7802
-991.526
38.0987
-858.332
-1153.61
35.4196
-1252.15
63.832
-1050.15
70.4244
-1006.54
69.1555
-924.746
65.9917
-962.457
64.9904
-941
62.6328
-951.492
60.9343
-946.357
58.7729
-947.358
56.6694
-946.773
54.559
-946.235
52.1849
-947.151
50.3167
-943.683
47.3025
-951.419
46.2864
-936.266
41.8176
-961.47
42.3924
-923.319
35.3524
-984.486
41.057
-864.036
-1112.55
36.6213
-1288.77
83.6652
-1097.19
96.3505
-1019.22
94.8745
-923.269
88.6448
-956.226
86.1844
-938.538
81.7743
-947.08
78.5109
-943.092
74.7327
-943.578
71.1345
-943.174
67.6415
-942.741
63.9664
-943.475
61.0002
-940.716
56.8149
-947.233
55.2011
-934.651
49.6023
-955.871
50.3513
-924.067
42.146
-976.28
49.4098
-871.3
-1063.14
41.5057
-1330.28
112.988
-1168.68
136.384
-1042.62
134.156
-921.044
123.134
-945.206
117.356
-932.763
109.772
-939.499
103.646
-936.97
97.1694
-937.104
91.0196
-937.027
85.1801
-936.904
79.2968
-937.594
74.3965
-935.818
68.3087
-941.147
65.3109
-931.655
58.0507
-948.612
58.0741
-924.091
48.3559
-966.563
56.9822
-879.927
-1006.16
52.4912
-1382.77
152.544
-1268.73
191.082
-1081.16
188.197
-918.156
171.847
-928.854
161.429
-922.342
150.016
-928.084
140.152
-927.104
130.16
-927.11
120.563
-927.427
111.433
-927.772
102.354
-928.513
94.4726
-927.935
85.4394
-932.113
79.982
-926.197
70.0872
-938.716
68.4307
-922.435
56.5437
-954.676
65.4861
-888.869
-940.674
75.3292
-1458.1
198.982
-1392.38
248.881
-1131.06
243.577
-912.854
224.666
-909.945
210.359
-908.037
196.238
-913.966
183.184
-914.051
170.024
-913.952
157.061
-914.466
144.465
-915.177
131.829
-915.879
120.348
-916.455
107.696
-919.463
98.7128
-917.215
85.3453
-925.35
80.4996
-917.59
65.7883
-939.965
72.2711
-895.353
-868.402
114.969
-1573.07
228.652
-1506.07
268.653
-1171.06
259.792
-903.993
250.687
-900.84
239.936
-897.287
229.334
-903.364
217.899
-902.616
205.428
-901.482
192.184
-901.223
178.481
-901.475
164.119
-901.518
150.24
-902.577
134.849
-904.072
122.252
-904.619
105.333
-908.432
95.555
-907.813
76.9051
-921.316
75.1765
-893.625
-793.226
153.376
-1726.45
184.416
-1537.11
191.02
-1177.67
194.506
-907.485
218.144
-924.483
226.123
-905.271
230.884
-908.131
230.539
-902.276
226.298
-897.245
218.834
-893.763
208.831
-891.476
196.654
-889.345
183.331
-889.257
167.571
-888.316
152.282
-889.333
132.489
-888.642
115.881
-891.207
91.3861
-896.823
72.7022
-874.943
-720.524
128.065
-1854.52
35.3829
-1444.43
39.002
-1181.29
93.8302
-962.316
160.16
-990.815
199.878
-944.992
229.002
-937.257
247.494
-920.769
257.302
-907.056
259.891
-896.353
256.594
-888.182
248.63
-881.383
236.911
-877.54
221.134
-872.541
202.206
-870.407
177.98
-864.417
150.885
-864.114
115.825
-861.765
71.2173
-830.337
-649.306
-0.667243
-1853.85
-83.972
-1361.13
-19.44
-1245.83
95.3141
-1077.08
183.856
-1079.36
253.137
-1014.28
303.249
-987.373
338.829
-956.354
360.927
-929.157
371.448
-906.878
372.226
-888.963
365.104
-874.265
350.849
-863.288
330.051
-851.746
301.854
-842.212
266.237
-828.803
221.322
-819.201
165.772
-806.217
89.2812
-753.849
-560.025
-97.2586
-1756.6
-19.8727
-1438.52
108.173
-1373.87
245.835
-1214.74
343.47
-1177
430.268
-1101.08
493.974
-1051.08
540.237
-1002.62
569.581
-958.504
583.435
-920.734
583.406
-888.937
571.206
-862.068
547.351
-839.435
512.961
-817.359
466.537
-795.791
408.789
-771.058
336.282
-746.696
247.7
-717.637
137.405
-643.557
-422.62
-18.4908
-1738.11
138.062
-1595.07
294.209
-1530.02
431.072
-1351.61
549.085
-1295.01
649.245
-1201.24
729.23
-1131.07
788.953
-1062.34
829.707
-999.26
851.383
-942.413
854.11
-891.665
838.247
-846.207
803.563
-804.752
751.033
-764.831
679.557
-724.317
590.034
-681.536
480.133
-636.796
347.839
-585.344
194.966
-490.686
-227.654
101.95
-1840.06
172.679
-1665.8
298.869
-1656.22
412.101
-1464.84
531.236
-1414.15
633.748
-1303.75
730.05
-1227.37
812.588
-1144.88
882.82
-1069.49
937.446
-997.04
973.862
-928.082
989.449
-861.795
981.703
-797.007
949.329
-732.459
890.466
-665.455
805.292
-596.363
692.27
-523.775
539.843
-432.918
313.063
-263.908
85.4085
-3.66146
-1836.4
-95.9161
-1573.55
-126.754
-1625.38
-119.812
-1471.78
-104.314
-1429.65
-70.741
-1337.33
-25.7525
-1272.36
29.1511
-1199.79
92.1345
-1132.48
159.915
-1064.82
229.578
-997.746
297.852
-930.07
361.709
-860.865
418.384
-789.135
466.827
-713.899
508.871
-638.407
543.299
-558.204
519.173
-408.792
289.168
-33.9042
374.576
-168.251
-1668.15
-353.329
-1388.47
-574.153
-1404.56
-733.573
-1312.36
-891.783
-1271.44
-1011.01
-1218.1
-1108.41
-1174.97
-1177.21
-1130.98
-1220.44
-1089.26
-1238.1
-1047.16
-1231.25
-1004.6
-1200.9
-960.418
-1148.05
-913.719
-1073.63
-863.551
-977.272
-810.258
-858.209
-757.469
-714.455
-701.959
-542.268
-580.979
-314.392
-261.782
60.1845
-693.149
-1106.62
-1536.18
-1873.54
-2169.98
-2413.08
-2613.05
-2769.03
-2883.29
-2955.45
-2985.05
-2970.47
-2909.19
-2797.74
-2632.99
-2415.46
-2142.42
-1748.4
-1035.18
-693.009
1668.01
-1106.45
1388.44
-1535.98
1404.53
-1873.37
1312.39
-2169.87
1271.49
-2413.06
1218.2
-2613.16
1175.09
-2769.3
1131.14
-2883.74
1089.43
-2956.08
1047.35
-2985.87
1004.79
-2971.48
960.608
-2910.38
913.899
-2799.09
863.705
-2634.46
810.369
-2416.97
757.509
-2143.79
701.819
-1749.19
580.399
-1035.14
260.949
-60.1368
-168.421
1836.43
-353.452
1573.47
-574.33
1625.41
-733.866
1471.92
-892.197
1429.82
-1011.54
1337.53
-1109.12
1272.68
-1178.14
1200.16
-1221.59
1132.88
-1239.49
1065.24
-1232.87
998.171
-1202.76
930.49
-1150.13
861.265
-1075.92
789.498
-979.767
714.213
-860.884
638.625
-717.225
558.159
-544.819
407.992
-315.839
31.9657
-375.976
-4.21003
1840.63
-96.7319
1665.99
-128.067
1656.74
-121.623
1465.47
-106.628
1414.83
-73.4919
1304.39
-28.9473
1228.13
25.621
1145.59
88.3688
1070.13
155.977
997.63
225.508
928.638
293.694
862.301
357.52
797.437
414.235
732.781
462.795
665.65
505.058
596.361
539.697
523.519
515.542
432.145
286.319
261.186
-89.6573
101.752
1738.88
172.001
1595.74
297.675
1531.06
410.572
1352.58
529.472
1295.93
631.648
1202.21
727.634
1132.14
810.034
1063.19
880.339
999.826
935.144
942.824
971.773
892.008
987.587
846.486
980.07
804.953
947.922
764.928
889.25
724.321
804.266
681.344
691.38
636.403
538.83
584.695
311.7
488.314
222.043
-18.265
1757.14
138.245
1439.22
294.25
1375.06
431.347
1215.48
549.791
1177.48
650.07
1101.93
730.148
1052.06
789.969
1003.37
830.89
958.903
852.771
920.941
855.7
889.077
840.015
862.17
805.46
839.506
752.992
817.395
681.454
795.857
591.755
771.041
481.455
746.701
348.439
717.709
194.325
642.426
416.367
-96.9029
1854.05
-18.8133
1361.13
109.439
1246.8
247.492
1077.42
345.663
1079.31
432.735
1014.86
496.753
988.045
543.205
956.914
572.655
929.452
586.577
907.018
586.602
889.052
574.438
874.334
550.585
863.358
516.15
851.829
469.597
842.409
411.63
829.008
338.667
819.663
249.313
807.062
137.772
753.966
554.14
-0.531902
1854.58
-82.7522
1443.35
-17.4908
1181.54
97.4414
962.489
186.072
990.677
255.526
945.405
305.878
937.693
341.593
921.197
363.705
907.339
374.182
896.54
374.903
888.33
367.721
881.515
353.397
877.681
332.523
872.703
304.239
870.692
268.516
864.73
223.38
864.798
167.502
862.939
90.6295
830.837
644.769
127.958
1726.62
36.0343
1535.28
40.6023
1176.97
95.5115
907.581
161.522
924.667
201.259
905.669
230.439
908.513
248.967
902.67
258.723
897.584
261.215
894.048
257.813
891.732
249.746
889.582
237.931
889.496
222.073
888.561
203.102
889.663
178.861
888.972
151.787
891.872
116.877
897.848
72.7608
874.953
717.53
153.302
1573.31
184.49
1504.09
191.568
1169.89
195.171
903.975
218.545
901.291
226.486
897.725
231.213
903.783
230.847
903.033
226.538
901.89
218.977
901.607
208.869
901.839
196.59
901.86
183.176
902.908
167.347
904.388
152.047
904.962
132.285
908.733
115.836
908.32
91.7314
921.952
73.7803
892.904
791.31
115.005
1458.31
228.464
1390.63
268.37
1129.99
259.58
912.766
250.469
910.403
239.759
908.435
229.161
914.381
217.73
914.466
205.236
914.384
191.948
914.895
178.19
915.597
163.772
916.278
149.847
916.834
134.426
919.809
121.847
917.541
104.981
925.599
95.3871
917.913
77.116
940.224
75.7751
894.245
867.085
75.3287
1382.98
198.691
1267.27
248.287
1080.39
243.002
918.051
224.232
929.173
210.059
922.608
196.027
928.413
183.051
927.441
169.952
927.483
157.035
927.812
144.471
928.16
131.86
928.89
120.401
928.292
107.777
932.433
98.8371
926.481
85.524
938.912
80.8058
922.631
66.3236
954.706
72.6808
887.887
939.766
52.3228
1330.66
152.219
1167.37
190.482
1042.13
187.615
920.92
171.423
945.368
161.173
932.861
149.903
939.685
140.183
937.164
130.325
937.343
120.854
937.285
111.839
937.177
102.862
937.869
95.069
936.087
86.1104
941.393
80.7131
931.88
70.855
948.772
69.2516
924.236
57.4233
966.535
65.8937
879.418
1005.66
41.1818
1289.48
112.616
1095.94
135.76
1018.99
133.559
923.123
122.626
956.301
117.001
938.487
109.553
947.133
103.593
943.126
97.2821
943.654
91.3028
943.266
85.6293
942.852
79.9011
943.598
75.1401
940.849
69.166
947.368
66.2638
934.783
59.0348
956.002
59.0994
924.172
49.345
976.29
57.4316
871.332
1063.09
36.317
1253.17
83.1116
1049.15
95.5025
1006.6
94.0612
924.567
87.8232
962.542
85.4682
940.845
81.1396
951.465
78.0116
946.257
74.3756
947.293
70.9398
946.704
67.617
946.177
64.1141
947.104
61.3185
943.647
57.2837
951.405
55.8294
936.24
50.3047
961.528
51.1842
923.294
42.9967
984.479
49.8425
864.488
1112.93
35.3416
1217.83
62.9939
1021.5
69.3043
1000.29
68.1036
925.77
64.9014
965.747
63.9577
941.791
61.6289
953.796
60.0037
947.885
57.9207
949.378
55.9199
948.707
53.9273
948.171
51.6894
949.344
49.974
945.364
47.1205
954.26
46.3062
937.056
41.9922
965.844
42.8141
922.473
35.986
991.308
41.3815
859.093
1154.32
37.4579
1180.37
48.1901
1010.77
52.2648
996.22
52.2315
925.807
51.8234
966.157
52.0698
941.548
51.3341
954.534
51.0565
948.165
50.386
950.051
49.5698
949.526
48.588
949.155
47.2268
950.707
46.1574
946.435
43.9325
956.487
43.4558
937.534
39.8086
969.493
40.9371
921.346
35.3596
996.887
38.2432
856.211
1192.56
45.1133
1135.26
39.7944
1016.09
44.0938
991.923
45.8124
924.09
47.9188
964.053
49.7823
939.686
50.9411
953.377
51.2923
947.816
50.9685
950.377
50.4661
950.03
49.7467
949.877
48.5348
951.921
47.5524
947.419
45.0868
958.955
44.4142
938.208
39.6985
974.21
40.1714
920.874
31.9926
1005.07
35.3418
852.863
1227.9
48.8796
1086.38
48.3944
1016.58
45.2958
995.022
34.9737
934.413
30.0942
968.934
24.0395
945.742
21.024
956.394
19.2204
949.621
18.08
951.518
16.8644
951.247
15.9386
950.803
14.976
952.884
14.6095
947.787
13.8572
959.708
14.1697
937.896
13.368
975.012
14.4071
919.835
12.4545
1007.02
30.186
835.132
1258.09
41.0075
1045.37
19.8767
1037.71
23.4639
991.436
31.9037
925.975
55.2104
945.628
65.7877
935.166
72.4611
949.721
72.265
949.818
72.5647
951.219
72.472
951.341
71.6931
951.583
70.5597
954.019
69.1458
949.201
68.5572
960.297
67.3453
939.109
68.5086
973.849
68.3176
920.027
72.0769
1003.26
42.5037
864.705
1300.59
167.688
310.514
429.758
458.419
422.452
353.669
307.314
266.728
234.474
207.501
184.168
164.227
144.216
126.866
104.421
88.6926
64.9378
58.7323
-6.61556
)
;

boundaryField
{
    outletWall
    {
        type            calculated;
        value           nonuniform List<scalar> 
60
(
-6559.8
-10048.2
-9521.88
-4692.97
5339.8
7027.3
6322.65
5357.06
4476.76
3728.44
3102.88
2579.7
2141.08
1772.1
1459.88
1193.16
961.447
753.219
560.542
312.222
116.894
184.699
227.277
270.35
312.086
354.187
398.44
446.807
499.944
549.434
549.44
499.953
446.823
398.464
354.215
312.114
270.376
227.3
184.719
116.908
-6540.57
-10082.1
-9571.78
-4776.17
5276.43
7007.78
6313.31
5352.1
4474.09
3726.98
3102.07
2579.23
2140.8
1771.92
1459.77
1193.08
961.39
753.177
560.508
312.2
)
;
    }
    fineWalls
    {
        type            calculated;
        value           uniform 0;
    }
    fineFrontAndBack
    {
        type            calculated;
        value           nonuniform List<scalar> 
960
(
-1.04399e-14
-1.73081e-14
3.74411e-16
1.77037e-14
-5.53649e-13
-9.8226e-14
6.81994e-14
-1.66343e-13
-4.11433e-12
4.76037e-13
2.70385e-12
1.86864e-11
3.6801e-12
5.54899e-12
4.66739e-11
1.27626e-11
1.40705e-11
8.49593e-11
1.57832e-11
8.31828e-12
3.98809e-12
-3.29944e-12
-9.43418e-12
-1.15812e-11
-1.04367e-11
-1.25641e-11
-2.23501e-10
-2.04285e-11
-2.05415e-11
-2.07048e-11
-2.04099e-11
-1.96344e-11
-1.87838e-11
-1.79623e-11
-1.73586e-11
-1.66964e-11
-1.63167e-11
-1.6092e-11
-1.71234e-11
-1.1378e-11
-1.45881e-10
4.00325e-11
3.85425e-11
2.85829e-11
1.11597e-10
1.37375e-11
-2.34598e-12
-1.34979e-11
-1.63602e-10
-5.81194e-11
-7.16433e-11
-4.60468e-10
-5.86882e-11
-3.48401e-11
-1.17489e-11
-1.34886e-11
3.88875e-12
1.11899e-11
9.95528e-12
1.86756e-10
1.14406e-11
1.71472e-11
1.59405e-11
1.62215e-11
1.66e-11
1.71151e-11
1.78389e-11
1.86818e-11
1.9707e-11
2.03972e-11
2.06789e-11
2.04856e-11
2.06652e-11
2.18361e-10
1.23972e-11
1.08937e-11
1.22536e-11
1.04185e-11
5.27396e-12
-5.33285e-13
2.47945e-11
1.94838e-11
1.16173e-10
2.07228e-11
2.17113e-11
1.13278e-10
1.88395e-11
1.67247e-11
5.80776e-11
4.00131e-12
-1.30608e-12
-9.26716e-12
6.25143e-13
7.1227e-13
6.25399e-13
3.42928e-12
3.45687e-13
6.50299e-14
-7.69832e-13
-1.5284e-13
2.4595e-12
1.08094e-11
2.49762e-11
3.45455e-11
2.06417e-11
-6.46923e-12
-3.01919e-12
2.7736e-11
3.69949e-11
2.82727e-11
1.04934e-11
1.39865e-11
1.68047e-11
-6.634e-12
-9.77395e-12
-4.0157e-12
-2.43355e-13
-1.15436e-12
-8.50515e-13
4.66066e-12
3.66258e-11
1.10306e-10
2.04459e-10
2.25809e-10
1.24006e-10
3.22893e-11
9.37962e-11
2.1636e-10
2.61665e-10
2.20361e-10
1.77059e-10
1.66263e-10
1.00374e-10
1.13014e-11
-2.30843e-11
-4.58171e-12
-1.54252e-12
-1.94049e-13
-1.83822e-12
7.1519e-11
2.7631e-10
5.78065e-10
7.08907e-10
4.40338e-10
9.21591e-11
2.02175e-10
6.12777e-10
8.09337e-10
7.27892e-10
5.60554e-10
5.14173e-10
3.49632e-10
4.71128e-11
-5.40003e-11
-4.35555e-12
-1.45126e-12
1.54598e-12
-5.11405e-11
4.58154e-11
4.4005e-10
1.08692e-09
1.41363e-09
8.62436e-10
7.73307e-11
2.73545e-10
1.16673e-09
1.62182e-09
1.48791e-09
1.16077e-09
1.08332e-09
6.96608e-10
5.4474e-11
-8.264e-11
7.2565e-12
1.45509e-12
-1.50798e-12
-2.48612e-10
-3.75195e-10
-4.69131e-11
7.94769e-10
1.39956e-09
7.89241e-10
-3.38483e-10
-2.3752e-10
9.05573e-10
1.60756e-09
1.60107e-09
1.43045e-09
1.50988e-09
8.84512e-10
-1.6825e-12
-9.75644e-11
-3.54097e-12
-1.21523e-11
-2.38132e-11
-8.65923e-10
-2.18464e-09
-3.11792e-09
-2.89864e-09
-1.56745e-09
-8.84552e-10
-1.87702e-09
-3.08445e-09
-3.0365e-09
-2.1834e-09
-1.23383e-09
-9.11004e-11
9.6735e-10
6.62657e-10
-6.86991e-11
-9.38234e-11
-2.86432e-11
-3.35124e-11
8.9314e-12
-2.49879e-09
-7.41044e-09
-1.2131e-08
-1.35485e-08
-9.57522e-09
-4.84067e-09
-5.9921e-09
-1.1823e-08
-1.51963e-08
-1.37681e-08
-1.00841e-08
-5.48652e-09
-1.2521e-09
2.3687e-10
-3.00368e-11
-1.04099e-10
-7.11854e-11
-7.66237e-11
3.0211e-11
-6.06347e-09
-1.82161e-08
-2.90109e-08
-3.10379e-08
-2.06622e-08
-1.0329e-08
-1.51108e-08
-3.00474e-08
-3.78168e-08
-3.4197e-08
-2.62004e-08
-1.62704e-08
-5.18231e-09
4.60425e-11
1.15604e-10
-2.34941e-10
-1.29582e-10
1.33906e-11
1.53281e-10
-1.15309e-08
-3.20199e-08
-4.63419e-08
-4.44493e-08
-2.66308e-08
-1.60414e-08
-3.04021e-08
-5.45206e-08
-6.32551e-08
-5.59992e-08
-4.51055e-08
-3.13566e-08
-1.30784e-08
-1.2537e-09
8.92605e-10
4.1905e-10
-3.01494e-11
-2.81059e-10
2.63052e-10
-1.28793e-08
-3.07668e-08
-3.828e-08
-3.14355e-08
-1.84313e-08
-2.03573e-08
-4.28021e-08
-6.50884e-08
-6.90759e-08
-6.07373e-08
-5.16285e-08
-3.76351e-08
-1.36667e-08
5.36008e-09
7.72626e-09
3.89215e-09
3.49886e-10
-2.03466e-09
-9.26537e-10
1.2995e-08
3.11881e-08
3.87594e-08
2.98123e-08
7.98843e-09
-1.05333e-08
-1.79474e-08
-2.07346e-08
-2.22306e-08
-1.96617e-08
-1.49253e-08
-9.54371e-09
-2.97804e-09
7.40031e-10
7.57424e-10
6.51736e-10
1.36207e-10
-3.96216e-10
-1.01606e-10
1.15866e-08
3.22531e-08
4.6714e-08
4.39561e-08
2.14932e-08
-1.44293e-09
-7.64161e-09
-4.0469e-09
-3.20026e-09
-3.40653e-09
-1.88991e-09
-6.02093e-10
2.76452e-10
5.98773e-11
-2.72918e-10
-1.10036e-10
-8.44545e-12
-6.45225e-11
-3.82e-11
6.08609e-09
1.83149e-08
2.91927e-08
3.09314e-08
1.86522e-08
2.72319e-09
-2.75426e-09
5.94757e-10
2.42268e-09
1.82395e-09
1.74359e-09
1.40978e-09
7.84572e-10
1.42899e-10
-5.74412e-11
-1.18568e-11
-2.13222e-11
-6.04521e-11
-1.35475e-10
2.50748e-09
7.44695e-09
1.21943e-08
1.34996e-08
8.8259e-09
2.05772e-09
-4.89482e-10
1.20663e-09
2.52338e-09
2.33304e-09
1.8871e-09
1.29259e-09
6.50857e-10
1.17842e-10
-1.50756e-11
5.37322e-11
9.27594e-11
1.05643e-10
-3.18054e-11
8.68264e-10
2.1967e-09
3.13368e-09
2.859e-09
1.27486e-09
-1.38756e-11
1.44039e-10
9.0842e-10
1.34365e-09
1.42459e-09
1.11618e-09
7.42393e-10
4.11666e-10
1.08356e-10
1.61632e-12
4.10363e-11
5.97321e-11
1.77716e-11
-2.9317e-12
2.48248e-10
3.77961e-10
4.86155e-11
-8.20052e-10
-1.51506e-09
-1.04696e-09
9.10898e-11
5.3268e-10
4.77597e-10
5.8036e-10
4.47641e-10
2.98776e-10
1.77668e-10
6.02081e-11
6.06506e-12
2.04067e-11
2.0566e-11
-9.7121e-12
-9.67139e-12
5.02254e-11
-4.61079e-11
-4.41311e-10
-1.09921e-09
-1.45543e-09
-9.23498e-10
-1.61601e-11
2.48022e-10
1.04463e-10
1.47614e-10
1.05993e-10
7.29934e-11
4.10755e-11
1.00928e-11
2.37371e-12
9.5201e-12
6.68576e-12
-2.0446e-13
2.42586e-13
1.2403e-12
-7.22433e-11
-2.77539e-10
-5.82951e-10
-7.21759e-10
-4.48883e-10
-2.62058e-11
8.39616e-11
1.67865e-12
5.44473e-12
-5.13209e-12
-2.00716e-12
-6.622e-12
-1.26141e-11
-2.36411e-12
4.95124e-12
2.53853e-12
-1.53408e-12
1.26101e-13
-4.89095e-12
-3.70225e-11
-1.1095e-10
-2.06119e-10
-2.28977e-10
-1.22341e-10
2.14554e-13
1.50874e-11
-1.03805e-11
-1.67958e-11
-1.93642e-11
-1.26549e-11
-1.18633e-11
-1.33114e-11
-3.77001e-12
2.45456e-12
6.83622e-13
-8.77943e-13
-3.25071e-13
-2.48479e-12
-1.08771e-11
-2.51261e-11
-3.48963e-11
-2.09957e-11
8.17902e-12
1.26644e-11
-3.81633e-12
-4.61251e-12
-8.45049e-12
-8.70897e-12
-5.96534e-12
-5.3721e-12
-5.63137e-12
-1.96516e-12
7.91471e-13
-2.19816e-13
-7.20781e-13
-2.91933e-13
1.04399e-14
1.73081e-14
-3.74411e-16
-1.77037e-14
5.53649e-13
9.8226e-14
-6.81994e-14
1.66343e-13
4.11433e-12
-4.76037e-13
-2.70385e-12
-1.86864e-11
-3.6801e-12
-5.54899e-12
-4.66739e-11
-1.27626e-11
-1.40705e-11
-8.49593e-11
-1.57832e-11
-8.31828e-12
-3.98809e-12
3.29944e-12
9.43418e-12
1.15812e-11
1.04367e-11
1.25641e-11
2.23501e-10
2.04285e-11
2.05415e-11
2.07048e-11
2.04099e-11
1.96344e-11
1.87838e-11
1.79623e-11
1.73586e-11
1.66964e-11
1.63167e-11
1.6092e-11
1.71234e-11
1.1378e-11
1.45881e-10
-4.00325e-11
-3.85425e-11
-2.85829e-11
-1.11597e-10
-1.37375e-11
2.34598e-12
1.34979e-11
1.63602e-10
5.81194e-11
7.16433e-11
4.60468e-10
5.86882e-11
3.48401e-11
1.17489e-11
1.34886e-11
-3.88875e-12
-1.11899e-11
-9.95528e-12
-1.86756e-10
-1.14406e-11
-1.71472e-11
-1.59405e-11
-1.62215e-11
-1.66e-11
-1.71151e-11
-1.78389e-11
-1.86818e-11
-1.9707e-11
-2.03972e-11
-2.06789e-11
-2.04856e-11
-2.06652e-11
-2.18361e-10
-1.23972e-11
-1.08937e-11
-1.22536e-11
-1.04185e-11
-5.27396e-12
5.33285e-13
-2.47945e-11
-1.94838e-11
-1.16173e-10
-2.07228e-11
-2.17113e-11
-1.13278e-10
-1.88395e-11
-1.67247e-11
-5.80776e-11
-4.00131e-12
1.30608e-12
9.26716e-12
-6.25143e-13
-7.1227e-13
-6.25399e-13
-3.42928e-12
-3.45687e-13
-6.50299e-14
7.69832e-13
1.5284e-13
-2.4595e-12
-1.08094e-11
-2.49762e-11
-3.45455e-11
-2.06417e-11
6.46923e-12
3.01919e-12
-2.7736e-11
-3.69949e-11
-2.82727e-11
-1.04934e-11
-1.39865e-11
-1.68047e-11
6.634e-12
9.77395e-12
4.0157e-12
2.43355e-13
1.15436e-12
8.50515e-13
-4.66066e-12
-3.66258e-11
-1.10306e-10
-2.04459e-10
-2.25809e-10
-1.24006e-10
-3.22893e-11
-9.37962e-11
-2.1636e-10
-2.61665e-10
-2.20361e-10
-1.77059e-10
-1.66263e-10
-1.00374e-10
-1.13014e-11
2.30843e-11
4.58171e-12
1.54252e-12
1.94049e-13
1.83822e-12
-7.1519e-11
-2.7631e-10
-5.78065e-10
-7.08907e-10
-4.40338e-10
-9.21591e-11
-2.02175e-10
-6.12777e-10
-8.09337e-10
-7.27892e-10
-5.60554e-10
-5.14173e-10
-3.49632e-10
-4.71128e-11
5.40003e-11
4.35555e-12
1.45126e-12
-1.54598e-12
5.11405e-11
-4.58154e-11
-4.4005e-10
-1.08692e-09
-1.41363e-09
-8.62436e-10
-7.73307e-11
-2.73545e-10
-1.16673e-09
-1.62182e-09
-1.48791e-09
-1.16077e-09
-1.08332e-09
-6.96608e-10
-5.4474e-11
8.264e-11
-7.2565e-12
-1.45509e-12
1.50798e-12
2.48612e-10
3.75195e-10
4.69131e-11
-7.94769e-10
-1.39956e-09
-7.89241e-10
3.38483e-10
2.3752e-10
-9.05573e-10
-1.60756e-09
-1.60107e-09
-1.43045e-09
-1.50988e-09
-8.84512e-10
1.6825e-12
9.75644e-11
3.54097e-12
1.21523e-11
2.38132e-11
8.65923e-10
2.18464e-09
3.11792e-09
2.89864e-09
1.56745e-09
8.84552e-10
1.87702e-09
3.08445e-09
3.0365e-09
2.1834e-09
1.23383e-09
9.11004e-11
-9.6735e-10
-6.62657e-10
6.86991e-11
9.38234e-11
2.86432e-11
3.35124e-11