/*--------------------------------*- C++ -*----------------------------------*\
| =========                 |                                                 |
| \\      /  F ield         | OpenFOAM: The Open Source CFD Toolbox           |
|  \\    /   O peration     | Version:  4.1                                   |
|   \\  /    A nd           | Web:      www.OpenFOAM.org                      |
|    \\/     M anipulation  |                                                 |
\*---------------------------------------------------------------------------*/
FoamFile
{
    version     2.0;
    format      ascii;
    class       volVectorField;
    location    "1";
    object      U;
}
// * * * * * * * * * * * * * * * * * * * * * * * * * * * * * * * * * * * * * //

dimensions      [0 1 -1 0 0 0 0];

internalField   nonuniform List<vector> 
1280
(
(-7.54463e-18 2.11487 0.0267196)
(-2.94168e-18 2.74686 -0.129564)
(1.87076e-18 2.30318 -0.0191838)
(1.2794e-17 2.33574 -0.0430472)
(-9.40979e-17 3.06455 -0.0899721)
(-7.09854e-17 2.40018 0.107752)
(4.92859e-17 2.66664 0.0857627)
(-1.44378e-16 2.45193 -0.0928932)
(-6.08822e-16 3.21265 -0.304411)
(3.72279e-16 2.64652 0.0605883)
(1.954e-15 2.68993 -0.00744008)
(3.00564e-15 3.47747 -0.359603)
(2.65951e-15 2.843 0.090415)
(3.96754e-15 2.8717 0.0182967)
(7.61434e-15 3.74109 -0.509046)
(9.22323e-15 3.09206 0.140991)
(1.01684e-14 3.10151 0.349531)
(1.44397e-14 3.96937 -2.1331)
(1.14061e-14 4.4067 1.26421)
(6.0114e-15 3.07129 -0.941058)
(1.63614e-14 4.10103 1.84053)
(-1.35362e-14 4.46035 1.46621)
(-3.87043e-14 4.0739 4.92585)
(-4.75126e-14 3.68921 11.5644)
(-4.28171e-14 2.57604 17.7307)
(-5.15451e-14 2.34112 19.2719)
(-4.71149e-14 0.801889 18.7929)
(-8.38091e-14 2.56165 16.2813)
(-8.42727e-14 2.91376 15.7979)
(-8.49427e-14 2.91951 15.4703)
(-8.37331e-14 2.91437 15.1406)
(-8.05512e-14 2.85655 14.8879)
(-7.70616e-14 2.94458 14.729)
(-7.36916e-14 2.79955 14.7584)
(-7.12148e-14 3.07458 14.6795)
(-6.84979e-14 2.69634 14.856)
(-6.69402e-14 3.21082 14.4272)
(-6.60186e-14 2.66924 14.5696)
(-7.025e-14 3.11677 14.022)
(-4.66789e-14 2.86888 16.5558)
(-2.53927e-14 2.29499 10.6837)
(3.21546e-14 -0.887202 -1.73662)
(3.09578e-14 -0.284867 -1.12002)
(2.23981e-14 -0.301861 -2.42865)
(1.83509e-14 -0.411203 -3.50278)
(1.10341e-14 -1.15656 -0.880644)
(-1.88432e-15 -0.875191 -1.15471)
(-1.08417e-14 -0.754373 -1.75126)
(-2.98195e-14 -0.358772 -2.78051)
(-4.66823e-14 -0.0435555 -0.57603)
(-5.57526e-14 -0.201793 -1.78273)
(-8.01511e-14 0.258615 -3.45905)
(-4.71391e-14 0.622111 -1.99397)
(-2.7984e-14 0.809558 -1.30932)
(-9.4369e-15 1.03477 -0.917557)
(-2.34789e-15 0.416506 -3.86554)
(2.5317e-15 0.254468 -2.87414)
(8.9879e-15 0.277114 -1.37231)
(7.99621e-15 0.887386 -1.8037)
(3.25572e-14 -2.30434 10.813)
(4.69357e-14 -2.90951 16.5601)
(7.03474e-14 -3.15743 14.049)
(6.53969e-14 -2.70712 14.582)
(6.65496e-14 -3.25154 14.4333)
(6.81027e-14 -2.7365 14.8456)
(7.02159e-14 -3.11382 14.6648)
(7.31852e-14 -2.83984 14.7373)
(7.66434e-14 -2.98287 14.6895)
(8.08494e-14 -2.89151 14.8198)
(8.36808e-14 -2.9431 15.0415)
(8.48363e-14 -2.95239 15.3521)
(8.40434e-14 -2.96341 15.7236)
(8.47803e-14 -2.68099 16.3193)
(4.60313e-14 -0.940498 18.8081)
(5.08603e-14 -2.38865 19.2683)
(4.4692e-14 -2.62916 17.7173)
(5.02713e-14 -3.74074 11.5436)
(4.27427e-14 -4.12589 4.90767)
(2.16367e-14 -4.51203 1.45404)
(-2.18784e-15 -4.15145 1.81164)
(1.79183e-14 -3.12251 -0.972104)
(1.40804e-14 -4.44788 1.21814)
(1.97447e-14 -4.01245 -2.16706)
(1.49759e-14 -3.14057 0.333841)
(1.56902e-14 -3.12773 0.107543)
(1.90955e-14 -3.77088 -0.541913)
(1.35726e-14 -2.89476 0.0125614)
(1.20865e-14 -2.86635 0.0734533)
(9.68077e-15 -3.49794 -0.377013)
(2.89164e-15 -2.70571 -0.0107156)
(-9.15758e-16 -2.66294 0.0501071)
(-1.77746e-15 -3.22768 -0.31693)
(4.27689e-16 -2.46185 -0.0925127)
(5.14739e-16 -2.67811 0.0820522)
(4.5196e-16 -2.40979 0.101028)
(5.8284e-16 -3.07633 -0.098321)
(2.49819e-16 -2.34232 -0.0436269)
(4.8592e-17 -2.31103 -0.0220413)
(-1.0527e-16 -2.7572 -0.132856)
(-1.10454e-16 -2.12059 0.0270575)
(2.73278e-16 0.103647 0.097578)
(1.20104e-15 0.186079 0.104387)
(2.77514e-15 0.250088 0.118255)
(3.83838e-15 0.319241 0.138161)
(2.29353e-15 0.396207 0.164567)
(-7.18803e-16 0.48482 0.198045)
(-3.35465e-16 0.588564 0.239707)
(3.08178e-15 0.711193 0.290954)
(4.11054e-15 0.856989 0.353594)
(3.14141e-15 1.03094 0.429676)
(1.16593e-15 1.23911 0.521129)
(1.55406e-15 1.4889 0.627546)
(1.86719e-15 1.78503 0.736914)
(-7.37111e-16 2.11412 0.790549)
(-1.08599e-15 2.36108 0.601058)
(-4.46189e-16 1.82565 -0.0601431)
(-2.70395e-17 -1.42701 -1.35933)
(-1.28263e-16 -3.11735 -1.0295)
(-9.45017e-17 -3.37373 -0.933587)
(5.17851e-16 0.101394 0.154398)
(4.06953e-15 0.179199 0.165844)
(1.22563e-14 0.238268 0.188146)
(2.27176e-14 0.30305 0.219946)
(2.50899e-14 0.375248 0.261554)
(1.37785e-14 0.458558 0.313952)
(3.5877e-15 0.556143 0.378732)
(1.04218e-14 0.671517 0.458035)
(2.40399e-14 0.808712 0.554633)
(2.90739e-14 0.972617 0.671931)
(2.44845e-14 1.16997 0.814243)
(1.96732e-14 1.41263 0.985223)
(1.84737e-14 1.72445 1.17398)
(1.11527e-14 2.1533 1.28281)
(1.25571e-15 2.68081 0.977979)
(-2.56493e-15 2.55925 0.0317982)
(-5.09079e-16 -1.1225 -1.73708)
(-1.71391e-16 -3.43439 -1.23797)
(-2.1561e-17 -3.63483 -0.714304)
(-2.04246e-16 0.0983974 0.190308)
(7.94656e-15 0.17237 0.206143)
(3.07011e-14 0.227278 0.234432)
(6.42294e-14 0.288385 0.274455)
(7.87674e-14 0.356541 0.326267)
(4.89264e-14 0.435341 0.391206)
(1.02399e-14 0.527671 0.471153)
(2.24639e-14 0.636814 0.568754)
(6.80864e-14 0.766498 0.687442)
(8.99263e-14 0.921101 0.831807)
(8.08769e-14 1.10662 1.00951)
(6.22838e-14 1.33676 1.2337)
(5.71303e-14 1.65515 1.50961)
(3.88479e-14 2.17904 1.73182)
(5.23475e-15 2.96444 1.53509)
(-6.00004e-15 3.08419 0.901688)
(-4.8395e-16 -1.33241 -1.16863)
(-1.61251e-16 -3.63118 -1.48143)
(1.71775e-16 -3.7891 -0.54348)
(-5.68228e-15 0.0939245 0.226617)
(5.0906e-15 0.162349 0.249268)
(4.88944e-14 0.211454 0.284918)
(1.20769e-13 0.267375 0.334752)
(1.5707e-13 0.329831 0.398437)
(9.58262e-14 0.402259 0.47786)
(8.59229e-15 0.487161 0.575275)
(3.03939e-14 0.587485 0.693948)
(1.29637e-13 0.706477 0.838062)
(1.80203e-13 0.847331 1.01358)
(1.65323e-13 1.01288 1.23295)
(1.28974e-13 1.21451 1.52695)
(1.20369e-13 1.51808 1.94395)
(7.74009e-14 2.11775 2.43778)
(6.05267e-15 3.10307 2.78516)
(-9.18222e-15 3.35969 3.08426)
(8.06277e-16 -0.672008 1.62)
(1.61676e-16 -3.5321 -1.40865)
(-1.67553e-16 -3.99638 -0.346134)
(-2.76236e-14 0.087666 0.261852)
(-4.16884e-14 0.149708 0.293056)
(-5.21257e-15 0.192628 0.336806)
(8.83077e-14 0.242801 0.397352)
(1.55507e-13 0.29889 0.473745)
(8.76935e-14 0.364138 0.568574)
(-3.76092e-14 0.44064 0.684489)
(-2.63911e-14 0.530966 0.825383)
(1.00619e-13 0.637787 0.996069)
(1.78617e-13 0.762271 1.20344)
(1.77896e-13 0.899882 1.46462)
(1.58939e-13 1.0488 1.83683)
(1.67765e-13 1.27846 2.45624)
(9.82791e-14 1.8189 3.45704)
(-1.86944e-16 2.78389 4.94499)
(-1.08405e-14 3.36456 6.89467)
(-3.93441e-16 0.932294 6.1432)
(-1.35026e-15 -3.15358 -0.359986)
(-2.64591e-15 -3.80451 -0.236399)
(-9.62136e-14 0.0791719 0.297414)
(-2.42738e-13 0.133495 0.339234)
(-3.46435e-13 0.169493 0.392066)
(-3.22071e-13 0.212966 0.46463)
(-1.74162e-13 0.261588 0.555075)
(-9.82835e-14 0.318345 0.666875)
(-2.08558e-13 0.38489 0.803098)
(-3.42716e-13 0.463402 0.968264)
(-3.37389e-13 0.55599 1.16767)
(-2.426e-13 0.661062 1.40861)
(-1.37092e-13 0.760613 1.71189)
(-1.01223e-14 0.818401 2.16809)
(1.07483e-13 0.867256 3.04746)
(7.36285e-14 1.11955 4.73862)
(-7.63324e-15 1.77956 7.63115)
(-1.04248e-14 2.79282 11.3012)
(-3.18258e-15 2.40033 12.0795)
(-3.7236e-15 -1.12832 5.12565)
(9.92378e-16 -3.57029 -1.54763)
(-2.77643e-13 0.0680024 0.334799)
(-8.23382e-13 0.113299 0.389713)
(-1.34789e-12 0.141918 0.452818)
(-1.50539e-12 0.177822 0.539097)
(-1.06391e-12 0.217966 0.645444)
(-5.37853e-13 0.264993 0.776422)
(-6.65789e-13 0.320129 0.935537)
(-1.31367e-12 0.385191 1.1279)
(-1.68848e-12 0.461864 1.35939)
(-1.52979e-12 0.545186 1.63841)
(-1.12046e-12 0.594869 1.98811)
(-6.09614e-13 0.506984 2.51429)
(-1.39122e-13 0.237078 3.55883)
(2.63189e-14 -0.00252514 5.5184)
(-3.33743e-15 0.285753 8.77175)
(-1.15666e-14 1.77582 12.2867)
(-7.90949e-15 3.23573 13.9557)
(-8.51374e-15 1.97762 13.2739)
(3.35678e-15 -0.828387 11.6126)
(-6.73719e-13 0.053611 0.375629)
(-2.02401e-12 0.0882949 0.446407)
(-3.22344e-12 0.109107 0.521181)
(-3.44866e-12 0.136372 0.62323)
(-2.2958e-12 0.166827 0.747804)
(-1.14767e-12 0.202636 0.900768)
(-1.67897e-12 0.244652 1.0861)
(-3.3386e-12 0.294295 1.30956)
(-4.20186e-12 0.352544 1.57815)
(-3.79967e-12 0.411161 1.903)
(-2.91115e-12 0.413878 2.30146)
(-1.80782e-12 0.207748 2.77909)
(-5.75813e-13 -0.30559 3.28276)
(5.11583e-15 -0.851749 3.89634)
(1.28449e-14 -0.832205 4.86001)
(-2.61045e-14 0.684097 4.97073)
(-1.4398e-14 1.78135 5.98698)
(1.48785e-15 -0.790516 10.8669)
(1.70312e-14 -4.13976 13.9761)
(-1.28121e-12 0.0351853 0.420402)
(-3.55777e-12 0.0573665 0.509259)
(-5.1491e-12 0.0700071 0.596907)
(-4.93881e-12 0.0873253 0.716472)
(-2.95898e-12 0.10664 0.861306)
(-1.78238e-12 0.129442 1.03872)
(-3.37801e-12 0.156261 1.2533)
(-6.05785e-12 0.187924 1.51171)
(-7.02835e-12 0.224113 1.82196)
(-6.22213e-12 0.256332 2.19434)
(-5.01172e-12 0.244492 2.62987)
(-3.48407e-12 0.0935414 3.04647)
(-1.45315e-12 -0.268676 3.1553)
(-1.393e-13 -0.703154 2.8285)
(9.91783e-14 -0.518949 2.40017)
(4.65611e-14 1.04052 1.80695)
(-3.34994e-15 1.16581 3.15271)
(-3.12288e-14 -0.785027 6.82011)
(2.9228e-14 -2.225 7.20669)
(-1.43103e-12 0.0131428 0.462094)
(-3.41854e-12 0.0210777 0.567796)
(-4.25333e-12 0.0254871 0.667226)
(-3.49284e-12 0.0317157 0.802757)
(-2.04793e-12 0.0386625 0.966087)
(-2.26193e-12 0.0468972 1.1658)
(-4.75589e-12 0.0566274 1.40719)
(-7.23205e-12 0.0680971 1.69811)
(-7.6751e-12 0.080563 2.0473)
(-6.74859e-12 0.0883088 2.46007)
(-5.7365e-12 0.0698955 2.91258)
(-4.18187e-12 -0.020676 3.25827)
(-1.51852e-12 -0.217882 3.07715)
(5.95564e-13 -0.446495 1.9979)
(8.58177e-13 -0.317591 0.528122)
(4.32461e-13 0.330506 0.500857)
(3.88763e-14 -0.381276 2.38155)
(-2.26073e-13 -1.18863 2.13483)
(-1.02949e-13 0.230371 -1.34077)
(1.44389e-12 -0.013149 0.462089)
(3.46535e-12 -0.0210898 0.567789)
(4.3066e-12 -0.0255041 0.667216)
(3.31248e-12 -0.0317406 0.802743)
(8.87603e-13 -0.0386992 0.966068)
(-1.17036e-12 -0.0469525 1.16577)
(-1.99395e-12 -0.0567117 1.40715)
(-2.30384e-12 -0.0682262 1.69806)
(-2.47007e-12 -0.0807606 2.04723)
(-2.18463e-12 -0.0886244 2.45999)
(-1.65836e-12 -0.0704595 2.91254)
(-1.06041e-12 0.0196156 3.25837)
(-3.30893e-13 0.216779 3.07798)
(8.22257e-14 0.453318 2.0014)
(8.41582e-14 0.364673 0.55217)
(7.24151e-14 -0.26422 0.683106)
(1.51341e-14 0.426275 2.48004)
(-4.4024e-14 1.26128 2.23271)
(-1.12895e-14 -0.0814291 -1.03307)
(1.2874e-12 -0.0351904 0.420394)
(3.58368e-12 -0.0573769 0.509247)
(5.19045e-12 -0.0700218 0.596891)
(4.88401e-12 -0.0873469 0.71645)
(2.38814e-12 -0.106672 0.861275)
(-1.60326e-13 -0.12949 1.03868)
(-8.49068e-13 -0.156336 1.25323)
(-4.49655e-13 -0.188041 1.51161)
(-3.55584e-13 -0.2243 1.82182)
(-3.78503e-13 -0.256653 2.19416)
(-2.0999e-13 -0.245126 2.62969)
(-6.68992e-14 -0.0948958 3.04656)
(3.07169e-14 0.266104 3.15673)
(6.65303e-15 0.699845 2.83409)
(-3.03242e-14 0.525612 2.42501)
(-1.22263e-14 -1.00118 1.92377)
(-9.38384e-16 -1.14239 3.32053)
(-7.16916e-15 0.717928 6.8353)
(-4.24445e-15 2.17193 7.14414)
(6.76232e-13 -0.053615 0.375616)
(2.03499e-12 -0.0883037 0.446388)
(3.24363e-12 -0.109119 0.521157)
(3.43683e-12 -0.136391 0.623197)
(2.07246e-12 -0.166854 0.747758)
(3.02577e-13 -0.202677 0.900703)
(-3.06029e-13 -0.244716 1.08601)
(6.60841e-14 -0.294396 1.30943)
(2.69186e-13 -0.352708 1.57797)
(2.02661e-13 -0.411459 1.90275)
(1.93732e-13 -0.414555 2.30111)
(1.56642e-13 -0.209365 2.77869)
(8.71747e-14 0.302478 3.28291)
(1.58777e-14 0.845482 3.89749)
(-6.38235e-15 0.821939 4.86729)
(-1.31742e-15 -0.671648 5.03884)
(-2.36913e-15 -1.70028 6.16941)
(-6.7169e-15 0.928632 11.0543)
(-1.50527e-14 4.20372 13.9784)
(2.78609e-13 -0.0680049 0.334779)
(8.27439e-13 -0.113305 0.389686)
(1.35492e-12 -0.141927 0.452783)
(1.49995e-12 -0.177835 0.539051)
(9.80656e-13 -0.217987 0.645382)
(2.28635e-13 -0.265024 0.776337)
(-5.43869e-14 -0.320178 0.935419)
(1.3407e-13 -0.385271 1.12773)
(2.80376e-13 -0.462001 1.35915)
(2.59227e-13 -0.545436 1.63808)
(2.09678e-13 -0.595422 1.9876)
(1.43621e-13 -0.508306 2.5132)
(7.23174e-14 -0.239927 3.55638)
(1.30935e-14 -0.00377701 5.51484)
(-1.67506e-15 -0.298915 8.76285)
(5.97025e-15 -1.79042 12.2847)
(1.03066e-14 -3.23226 14.0037)
(1.17382e-14 -1.9521 13.3347)
(-3.53393e-15 0.82513 11.6139)
(9.64738e-14 -0.0791726 0.297391)
(2.44078e-13 -0.133498 0.339202)
(3.48187e-13 -0.169498 0.392026)
(3.17667e-13 -0.212973 0.464577)
(1.41651e-13 -0.2616 0.555004)
(-1.54173e-15 -0.318364 0.666777)
(1.60043e-14 -0.384921 0.802962)
(1.00936e-13 -0.463457 0.968069)
(1.49294e-13 -0.556091 1.16739)
(1.58287e-13 -0.661252 1.4082)
(1.2402e-13 -0.760995 1.71127)
(8.24881e-14 -0.819258 2.1669)
(4.57407e-14 -0.869175 3.0447)
(1.20395e-14 -1.12428 4.73236)
(1.79591e-16 -1.79129 7.61664)
(4.55959e-15 -2.80435 11.2755)
(6.6369e-15 -2.36163 12.0261)
(1.97463e-15 1.26157 5.0149)
(-3.25745e-16 3.68342 -1.5192)
(2.75831e-14 -0.0876646 0.261828)
(4.19957e-14 -0.149708 0.293023)
(5.40173e-15 -0.192628 0.336765)
(-9.11169e-14 -0.242802 0.397297)
(-1.6834e-13 -0.298893 0.473672)
(-1.16329e-13 -0.364144 0.568475)
(1.01211e-14 -0.44065 0.684349)
(5.91866e-14 -0.530989 0.82518)
(5.30663e-14 -0.63784 0.995762)
(6.44844e-14 -0.762385 1.20296)
(4.97379e-14 -0.900108 1.46386)
(3.31974e-14 -1.04926 1.83552)
(1.97408e-14 -1.27948 2.45365)
(6.68978e-15 -1.82128 3.45121)
(6.73896e-16 -2.78928 4.93128)
(2.26742e-15 -3.36642 6.86921)
(2.28511e-15 -0.897602 6.08122)
(-1.07912e-15 3.17722 -0.400749)
(-1.0746e-15 3.80334 -0.194646)
(5.5806e-15 -0.0939212 0.226595)
(-5.1231e-15 -0.162345 0.249238)
(-4.90346e-14 -0.21145 0.284879)
(-1.22134e-13 -0.26737 0.334701)
(-1.61715e-13 -0.329825 0.398369)
(-1.02611e-13 -0.402251 0.477767)
(-1.79557e-15 -0.487151 0.575144)
(2.7558e-14 -0.587475 0.693756)
(1.16069e-14 -0.706472 0.837764)
(1.64015e-14 -0.847344 1.01309)
(1.1777e-14 -1.01293 1.23212)
(8.11038e-15 -1.21462 1.5255)
(4.56394e-15 -1.51834 1.94131)
(1.12142e-15 -2.1184 2.43235)
(2.63746e-16 -3.10421 2.77281)
(1.05779e-15 -3.35339 3.0633)
(7.42863e-16 0.728711 1.55394)
(-2.27178e-17 3.57836 -1.42008)
(2.6954e-17 4.02937 -0.325472)
(1.37811e-16 -0.0983923 0.190288)
(-8.02703e-15 -0.172363 0.206116)
(-3.08376e-14 -0.22727 0.234399)
(-6.47724e-14 -0.288374 0.274411)
(-8.01954e-14 -0.356527 0.326209)
(-4.98759e-14 -0.435321 0.391126)
(-2.91176e-15 -0.527642 0.47104)
(9.32907e-15 -0.636771 0.568587)
(1.86516e-16 -0.766434 0.687181)
(6.0497e-16 -0.921006 0.831371)
(-5.70232e-16 -1.10647 1.00875)
(-2.23018e-16 -1.33651 1.23231)
(-7.35778e-16 -1.65472 1.50707)
(-1.40157e-15 -2.17819 1.72687)
(-2.62679e-16 -2.96171 1.52442)
(5.50137e-16 -3.07047 0.886159)
(2.82059e-16 1.34868 -1.20356)
(-1.70453e-16 3.65379 -1.48892)
(1.40112e-17 3.80169 -0.529561)
(-5.43439e-16 -0.101388 0.154381)
(-4.11361e-15 -0.17919 0.165822)
(-1.23277e-14 -0.238257 0.188118)
(-2.29021e-14 -0.303036 0.219911)
(-2.54418e-14 -0.375228 0.261507)
(-1.35934e-14 -0.45853 0.313887)
(2.38393e-17 -0.5561 0.378641)
(1.67638e-15 -0.671449 0.457902)
(-1.15339e-15 -0.808603 0.554425)
(-1.8662e-15 -0.972435 0.671584)
(-2.15158e-15 -1.16965 0.813632)
(-1.4061e-15 -1.41206 0.984104)
(-1.31815e-15 -1.72342 1.17189)
(-1.47905e-15 -2.15132 1.27885)
(-4.1889e-16 -2.67562 0.969964)
(2.72729e-16 -2.54028 0.020844)
(7.5958e-17 1.14707 -1.7438)
(-9.75492e-17 3.4531 -1.23887)
(-3.6119e-17 3.64836 -0.708106)
(-2.76088e-16 -0.10364 0.097566)
(-1.20857e-15 -0.186068 0.104372)
(-2.79179e-15 -0.250074 0.118237)
(-3.87737e-15 -0.319222 0.138138)
(-2.33286e-15 -0.396181 0.164536)
(9.0878e-16 -0.484782 0.198003)
(1.40716e-15 -0.588507 0.23965)
(-4.24036e-16 -0.711102 0.290873)
(-5.12501e-16 -0.856838 0.35347)
(-9.38943e-16 -1.03068 0.429475)
(-9.67663e-16 -1.23865 0.520784)
(-6.62815e-16 -1.48804 0.626928)
(-5.969e-16 -1.78345 0.735774)
(-6.25708e-16 -2.11115 0.788396)
(-2.18352e-16 -2.35464 0.596788)
(8.79412e-17 -1.80428 -0.065662)
(-2.4424e-17 1.45836 -1.37024)
(-8.00868e-17 3.13469 -1.03072)
(-3.24369e-17 3.38563 -0.932384)
(-2.61102e-15 8.28005 16.1539)
(-3.49975e-14 10.9357 16.6112)
(-4.04211e-14 9.02733 15.3674)
(-3.62376e-14 9.45675 14.2058)
(-3.25179e-14 8.96074 14.3245)
(-8.42579e-14 9.17999 14.3523)
(-8.69889e-14 8.99838 14.661)
(-6.92923e-14 9.14203 14.8021)
(-6.39656e-14 9.02191 14.8189)
(-6.35475e-14 8.97105 14.8217)
(-6.42611e-14 8.94865 14.8428)
(-6.43837e-14 8.87217 14.893)
(-6.35565e-14 8.96876 14.8346)
(-6.27227e-14 8.65573 15.0031)
(-6.36878e-14 9.15845 14.7)
(-6.14539e-14 8.20338 15.2152)
(-6.03488e-14 9.57852 14.4262)
(-5.76357e-14 7.6641 15.6712)
(-5.06053e-14 10.0984 14.228)
(-1.04125e-14 9.85074 20.6299)
(7.35595e-16 8.11408 16.202)
(1.80699e-14 10.0929 15.3588)
(1.68992e-14 7.83978 15.2452)
(1.38195e-14 9.04597 14.4225)
(1.30732e-14 8.22506 14.8814)
(-1.33148e-14 8.72084 14.5374)
(-1.90035e-14 8.47106 14.6569)
(-1.44099e-14 8.53541 14.5184)
(-1.35008e-14 8.4943 14.5302)
(-1.34441e-14 8.49811 14.5252)
(-1.41455e-14 8.51039 14.5104)
(-1.45808e-14 8.45166 14.5381)
(-1.39175e-14 8.58679 14.4505)
(-1.41402e-14 8.27884 14.6264)
(-1.49784e-14 8.85131 14.2871)
(-1.36636e-14 7.88586 14.8409)
(-1.34419e-14 9.34794 14.0001)
(-1.2729e-14 7.44687 15.3222)
(-1.44215e-14 9.13322 12.4195)
(-5.56531e-15 9.20334 19.4762)
(2.58056e-16 8.35622 17.0884)
(5.82993e-15 10.544 15.7051)
(4.70632e-15 7.73613 15.2332)
(4.7134e-15 9.08665 14.2292)
(4.62928e-15 8.06556 14.8229)
(1.24083e-14 8.68091 14.4545)
(1.14919e-14 8.32433 14.6635)
(8.97374e-15 8.50409 14.5948)
(8.2903e-15 8.44143 14.6415)
(8.45991e-15 8.45658 14.6362)
(8.1746e-15 8.46893 14.6349)
(8.15878e-15 8.42131 14.6714)
(8.36451e-15 8.56003 14.6)
(7.96629e-15 8.26418 14.7902)
(7.86895e-15 8.85284 14.4606)
(7.84108e-15 7.8685 15.0477)
(7.5983e-15 9.39989 14.1961)
(7.53505e-15 7.4052 15.571)
(6.91104e-15 9.41674 13.0381)
(1.83436e-15 9.03351 19.125)
(-1.47146e-16 8.5796 17.8108)
(-3.7248e-15 10.5571 15.4577)
(-3.0882e-15 7.60211 15.2366)
(-2.85619e-15 9.14543 14.1876)
(-2.68725e-15 8.05961 14.8012)
(4.77788e-15 8.7135 14.428)
(4.83568e-15 8.3758 14.6345)
(4.04685e-15 8.52892 14.5343)
(4.05167e-15 8.47063 14.5671)
(4.14578e-15 8.48435 14.5622)
(4.21658e-15 8.49467 14.5595)
(4.38749e-15 8.452 14.5891)
(4.39107e-15 8.57081 14.5235)
(4.43996e-15 8.30403 14.6881)
(4.6271e-15 8.81852 14.3866)
(4.39341e-15 7.93186 14.9002)
(4.24734e-15 9.28374 14.1266)
(4.2088e-15 7.48659 15.3419)
(4.16453e-15 9.28736 13.0846)
(1.2543e-15 8.92716 18.6198)
(5.10906e-17 8.80321 18.4375)
(-1.21483e-16 10.6867 15.5342)
(-1.31802e-16 7.63644 15.3266)
(-1.13166e-16 9.19851 14.2375)
(-1.10403e-16 8.10204 14.8495)
(-2.00208e-15 8.74185 14.4762)
(-1.64089e-15 8.40151 14.6635)
(-1.24495e-15 8.54774 14.5721)
(-1.18454e-15 8.49029 14.5972)
(-1.22676e-15 8.49774 14.5866)
(-1.18543e-15 8.50294 14.5781)
(-1.21783e-15 8.46104 14.5986)
(-1.27772e-15 8.56324 14.5338)
(-1.24599e-15 8.3202 14.6771)
(-1.27735e-15 8.7815 14.4017)
(-1.29159e-15 7.98321 14.864)
(-1.25952e-15 9.20181 14.1696)
(-1.30384e-15 7.59963 15.2768)
(-1.28e-15 9.14061 13.131)
(-4.18406e-16 8.78538 18.0114)
(-1.62271e-17 9.01281 18.9736)
(5.289e-16 10.9365 15.8402)
(4.7163e-16 7.68753 15.3815)
(4.17834e-16 9.19953 14.1999)
(3.52383e-16 8.12269 14.803)
(-8.97695e-16 8.73463 14.4512)
(-9.83503e-16 8.41323 14.6264)
(-9.12347e-16 8.5419 14.5408)
(-9.37417e-16 8.48748 14.561)
(-9.18992e-16 8.48986 14.5512)
(-9.50041e-16 8.49096 14.5429)
(-9.52187e-16 8.45246 14.5596)
(-9.26522e-16 8.53949 14.5022)
(-9.3629e-16 8.32216 14.6298)
(-9.71576e-16 8.73211 14.3806)
(-9.09961e-16 8.01314 14.7965)
(-8.98712e-16 9.10844 14.1667)
(-8.51446e-16 7.66532 15.1718)
(-7.96287e-16 9.02446 13.2016)
(-2.05721e-16 8.65448 17.4571)
(4.24939e-18 9.26805 19.5201)
(-1.98346e-16 11.306 16.4008)
(-1.78856e-16 7.84084 15.5211)
(-1.57004e-16 9.20118 14.1888)
(-1.23247e-16 8.18598 14.7435)
(7.36606e-16 8.73306 14.4366)
(7.34778e-16 8.45179 14.582)
(6.51573e-16 8.54979 14.5111)
(6.54654e-16 8.5036 14.5219)
(6.49417e-16 8.49788 14.5132)
(6.59563e-16 8.49438 14.5046)
(6.61376e-16 8.45924 14.517)
(6.54944e-16 8.52724 14.4681)
(6.56362e-16 8.34161 14.5762)
(6.75017e-16 8.68496 14.3626)
(6.49928e-16 8.07374 14.7189)
(6.41586e-16 8.99996 14.1804)
(6.29557e-16 7.78883 15.0529)
(5.87718e-16 8.87276 13.3)
(1.61424e-16 8.5101 16.7418)
(-8.46531e-19 9.58542 20.1051)
(4.2449e-17 11.8445 17.2947)
(3.89724e-17 8.12347 15.7768)
(3.3927e-17 9.18923 14.1587)
(2.4943e-17 8.25923 14.616)
(-2.34461e-16 8.71527 14.3799)
(-2.32768e-16 8.49073 14.4945)
(-2.04796e-16 8.55092 14.4442)
(-2.04203e-16 8.51424 14.4481)
(-2.03284e-16 8.50017 14.4436)
(-2.05518e-16 8.49134 14.4383)
(-2.0602e-16 8.46067 14.449)
(-2.0495e-16 8.50781 14.4133)
(-2.05295e-16 8.35852 14.503)
(-2.10163e-16 8.62833 14.3325)
(-2.04835e-16 8.13678 14.6258)
(-2.02164e-16 8.87876 14.1908)
(-2.01626e-16 7.91782 14.9202)
(-1.86281e-16 8.72109 13.4265)
(-5.22116e-17 8.32814 15.9352)
(1.2798e-19 9.99251 20.7968)
(-6.24427e-18 12.6181 18.6024)
(-5.82946e-18 8.57359 16.2408)
(-5.04002e-18 9.1843 14.1195)
(-3.54419e-18 8.32676 14.4042)
(4.61781e-17 8.6799 14.2586)
(4.68897e-17 8.52332 14.3484)
(4.12461e-17 8.54407 14.3226)
(4.0932e-17 8.51617 14.3226)
(4.08832e-17 8.49445 14.3242)
(4.12974e-17 8.47906 14.3252)
(4.14475e-17 8.4534 14.3361)
(4.137e-17 8.47705 14.3177)
(4.1513e-17 8.36834 14.3892)
(4.23764e-17 8.55586 14.2705)
(4.17201e-17 8.19793 14.496)
(4.11478e-17 8.73643 14.1815)
(4.15975e-17 8.05103 14.7539)
(3.79392e-17 8.55852 13.5667)
(1.08881e-17 8.08725 14.9862)
(-1.49754e-20 10.5276 21.7221)
(6.76788e-19 13.7106 20.3779)
(6.38869e-19 9.16267 16.9641)
(5.48044e-19 9.19184 14.0708)
(3.79878e-19 8.34505 14.1134)
(-6.32449e-18 8.61679 14.0592)
(-6.68195e-18 8.52775 14.143)
(-5.91287e-18 8.51872 14.14)
(-5.85096e-18 8.49695 14.1398)
(-5.8709e-18 8.47064 14.1472)
(-5.94319e-18 8.44825 14.1561)
(-5.98515e-18 8.42812 14.168)
(-6.00055e-18 8.42736 14.1691)
(-6.04429e-18 8.36083 14.2232)
(-6.16501e-18 8.46332 14.1622)
(-6.13173e-18 8.24287 14.3193)
(-6.04637e-18 8.57569 14.1373)
(-6.19187e-18 8.16773 14.5514)
(-5.5723e-18 8.393 13.6997)
(-1.64942e-18 7.76616 13.9137)
(1.3747e-21 11.2375 23.1242)
(-5.64015e-20 15.0994 22.4201)
(-5.3515e-20 9.62233 17.7861)
(-4.52655e-20 9.17205 13.969)
(-3.10733e-20 8.24807 13.8325)
(6.38191e-19 8.51961 13.8267)
(7.05273e-19 8.47843 13.9226)
(6.31577e-19 8.4614 13.928)
(6.24502e-19 8.4451 13.9244)
(6.30369e-19 8.41956 13.9313)
(6.41266e-19 8.39259 13.943)
(6.49596e-19 8.37878 13.952)
(6.55539e-19 8.35651 13.9686)
(6.64426e-19 8.32909 14.0038)
(6.79112e-19 8.35309 13.9968)
(6.83213e-19 8.2576 14.0875)
(6.75121e-19 8.40255 14.0344)
(7.00585e-19 8.24244 14.3019)
(6.24075e-19 8.21848 13.768)
(1.91413e-19 7.35056 12.7577)
(-9.83486e-23 12.1407 25.2677)
(3.79152e-21 16.3625 23.8858)
(3.59844e-21 9.35988 18.2026)
(2.95881e-21 9.15789 13.8179)
(1.86581e-21 8.04748 13.846)
(-4.9974e-20 8.46762 13.7405)
(-5.69939e-20 8.40769 13.8318)
(-5.17066e-20 8.40514 13.8008)
(-5.11388e-20 8.39135 13.7693)
(-5.19063e-20 8.36691 13.7525)
(-5.31211e-20 8.33639 13.747)
(-5.42025e-20 8.32581 13.7383)
(-5.5154e-20 8.28646 13.7539)
(-5.63649e-20 8.28476 13.7617)
(-5.7937e-20 8.24579 13.7856)
(-5.90639e-20 8.23514 13.8105)
(-5.87812e-20 8.23191 13.8475)
(-6.19223e-20 8.23962 13.9875)
(-5.51536e-20 8.0067 13.658)
(-1.74661e-20 6.84047 11.6069)
(5.40571e-24 13.1017 27.837)
(-2.18852e-22 16.4751 23.3564)
(-2.03703e-22 8.22813 17.9663)
(-1.58121e-22 9.54492 14.0724)
(-7.51151e-23 8.01575 14.542)
(3.16304e-21 8.6817 14.0607)
(3.62109e-21 8.48565 14.063)
(3.30386e-21 8.48853 13.9105)
(3.25747e-21 8.45401 13.7898)
(3.31259e-21 8.40947 13.6985)
(3.40453e-21 8.36109 13.6331)
(3.49672e-21 8.33592 13.5761)
(3.58981e-21 8.27509 13.5577)
(3.70378e-21 8.26723 13.5192)
(3.84408e-21 8.17826 13.5261)
(3.98145e-21 8.17968 13.4797)
(4.02405e-21 8.07516 13.5241)
(4.32448e-21 8.11557 13.5488)
(3.92819e-21 7.69497 13.1949)
(1.27462e-21 6.24968 10.5183)
(-2.26859e-25 13.732 29.2091)
(1.07566e-23 14.9059 21.0151)
(9.18938e-24 8.0262 18.2815)
(6.69733e-24 10.5327 15.4637)
(1.6496e-24 8.65047 15.8452)
(-1.58767e-22 9.3195 14.9291)
(-1.7973e-22 8.97026 14.6955)
(-1.63224e-22 8.90346 14.3397)
(-1.59209e-22 8.80062 14.0436)
(-1.61227e-22 8.68935 13.8063)
(-1.65801e-22 8.5858 13.6212)
(-1.71112e-22 8.50818 13.4704)
(-1.77267e-22 8.40315 13.3711)
(-1.84928e-22 8.33893 13.2553)
(-1.94756e-22 8.19292 13.1815)
(-2.05926e-22 8.11756 13.0436)
(-2.13858e-22 7.93139 12.9908)
(-2.36981e-22 7.8524 12.8839)
(-2.25801e-22 7.23044 12.2561)
(-7.64241e-23 5.57734 9.36899)
(1.91634e-27 13.605 27.8407)
(-3.99708e-25 13.9518 20.8255)
(-3.29735e-25 9.93703 19.9934)
(-2.20214e-25 11.591 17.6238)
(-1.1324e-27 10.078 17.3055)
(5.908e-24 10.3033 16.2246)
(6.6827e-24 9.92338 15.6291)
(6.00705e-24 9.69662 15.0288)
(5.74601e-24 9.47806 14.4898)
(5.75422e-24 9.25449 14.0404)
(5.89612e-24 9.05034 13.6737)
(6.10446e-24 8.87334 13.3728)
(6.38662e-24 8.68443 13.1344)
(6.75657e-24 8.50789 12.8951)
(7.26352e-24 8.26953 12.6747)
(7.90021e-24 8.0426 12.401)
(8.54625e-24 7.73827 12.1607)
(9.93527e-24 7.43939 11.8593)
(1.02167e-23 6.5775 10.8607)
(3.90663e-24 4.71678 7.7921)
(4.75261e-29 13.2077 26.226)
(1.14627e-26 15.2601 23.4409)
(8.97441e-27 12.1105 22.2818)
(5.43966e-27 12.8247 19.7522)
(-1.40609e-27 11.6243 18.9091)
(-1.60126e-25 11.478 17.6567)
(-1.81804e-25 11.0351 16.7081)
(-1.60866e-25 10.6482 15.8149)
(-1.49291e-25 10.288 14.9944)
(-1.46171e-25 9.93294 14.2775)
(-1.47913e-25 9.598 13.6615)
(-1.52768e-25 9.28166 13.1318)
(-1.61017e-25 8.96068 12.6695)
(-1.72979e-25 8.61878 12.225)
(-1.90696e-25 8.22946 11.7765)
(-2.1517e-25 7.79298 11.2853)
(-2.45964e-25 7.28449 10.7753)
(-3.06663e-25 6.72985 10.1704)
(-3.50607e-25 5.55995 8.87378)
(-1.7309e-25 3.40397 5.15613)
(-2.03695e-30 13.1366 27.0646)
(-2.61952e-28 17.2563 25.4352)
(-1.94252e-28 13.0046 24.6049)
(-1.06001e-28 14.1532 21.6518)
(7.51478e-29 12.5184 20.7608)
(3.54995e-27 12.3575 19.1428)
(3.94888e-27 11.6931 17.9381)
(3.38486e-27 11.2036 16.7239)
(2.99934e-27 10.7127 15.6104)
(2.81128e-27 10.2449 14.5817)
(2.74446e-27 9.79165 13.6381)
(2.76105e-27 9.34188 12.7688)
(2.86329e-27 8.88334 11.9525)
(3.05641e-27 8.37861 11.1614)
(3.38417e-27 7.8291 10.3506)
(3.88843e-27 7.19058 9.50672)
(4.62164e-27 6.46647 8.614)
(6.12071e-27 5.69143 7.57886)
(8.04678e-27 4.05947 5.85007)
(5.36954e-27 1.68703 0.978254)
(5.52108e-32 13.1163 29.8371)
(5.2114e-30 18.4022 26.0754)
(3.60039e-30 12.7702 26.5734)
(1.73895e-30 14.6916 23.6099)
(-4.46898e-30 12.3241 22.9083)
(-9.21739e-29 12.268 21.0944)
(-9.72989e-29 11.2632 19.9136)
(-8.09838e-29 10.7217 18.5557)
(-6.92958e-29 10.0868 17.3262)
(-6.22154e-29 9.52463 16.1054)
(-5.78436e-29 8.97396 14.9151)
(-5.52721e-29 8.4333 13.7389)
(-5.43657e-29 7.89145 12.5627)
(-5.49896e-29 7.31785 11.3741)
(-5.75688e-29 6.72005 10.1369)
(-6.23331e-29 6.06814 8.87819)
(-6.93679e-29 5.39413 7.57451)
(-8.61982e-29 4.50428 5.86059)
(-1.2499e-28 1.88706 2.47374)
(9.21004e-28 0.126151 -3.01625)
(-2.35211e-33 11.0341 28.9716)
(-7.15857e-32 17.296 24.6896)
(-4.38376e-32 11.9969 25.3331)
(-2.9897e-33 12.9162 23.4149)
(2.02863e-31 11.1285 22.6405)
(1.30233e-30 10.6023 21.4881)
(1.18369e-30 9.69118 20.5726)
(9.21338e-31 9.03486 19.6096)
(7.59404e-31 8.36875 18.6951)
(6.60055e-31 7.78172 17.7676)
(5.97622e-31 7.22752 16.8341)
(5.60056e-31 6.70978 15.8724)
(5.43566e-31 6.21039 14.8671)
(5.45757e-31 5.71698 13.7984)
(5.71246e-31 5.23413 12.6727)
(6.35054e-31 4.80948 11.5573)
(8.07003e-31 4.36047 10.3387)
(1.28294e-30 2.96143 7.43373)
(4.94761e-30 -1.3213 -0.454312)
(6.96077e-29 -3.70709 -7.48311)
(6.95353e-35 2.60668 17.1031)
(5.04162e-34 8.01401 13.6948)
(1.96106e-34 5.11172 14.5211)
(-3.9346e-34 4.90955 14.0945)
(-2.56107e-33 3.97554 14.0374)
(-8.14726e-33 3.42025 13.8467)
(-6.43562e-33 2.84804 13.6817)
(-4.70396e-33 2.39391 13.4881)
(-3.70428e-33 2.00062 13.2847)
(-3.09762e-33 1.68499 13.0579)
(-2.71833e-33 1.43586 12.8056)
(-2.48857e-33 1.25449 12.5186)
(-2.37497e-33 1.13689 12.1894)
(-2.35643e-33 1.08985 11.8119)
(-2.418e-33 1.13698 11.3966)
(-2.39733e-33 1.2685 11.0001)
(-1.37765e-33 1.48356 10.6235)
(1.60834e-33 1.94304 9.91553)
(-6.53657e-33 1.92365 8.41044)
(2.09884e-31 -0.50173 5.51713)
(-6.94033e-35 -2.60628 17.1026)
(-5.0318e-34 -8.01419 13.6948)
(-1.95065e-34 -5.11225 14.5215)
(3.96397e-34 -4.91058 14.0959)
(2.57565e-33 -3.97679 14.0393)
(8.19196e-33 -3.4215 13.8488)
(6.46065e-33 -2.8491 13.6839)
(4.72399e-33 -2.39479 13.4905)
(3.72381e-33 -2.0013 13.2873)
(3.11836e-33 -1.68537 13.0607)
(2.73551e-33 -1.43585 12.8084)
(2.5022e-33 -1.254 12.5213)
(2.38712e-33 -1.13582 12.1917)
(2.36668e-33 -1.08806 11.8136)
(2.42504e-33 -1.1343 11.3972)
(2.39109e-33 -1.26483 10.9994)
(1.20192e-33 -1.47921 10.6219)
(-3.86068e-33 -1.93914 9.91359)
(-2.21372e-32 -1.92134 8.40769)
(-4.30564e-31 0.502738 5.51572)
(2.3473e-33 -11.0328 28.9679)
(7.14457e-32 -17.2937 24.6887)
(4.37269e-32 -11.9959 25.3319)
(2.80512e-33 -12.9149 23.4146)
(-2.04451e-31 -11.1276 22.6407)
(-1.3091e-30 -10.6014 21.4893)
(-1.1889e-30 -9.69083 20.5748)
(-9.25543e-31 -9.03444 19.6127)
(-7.63584e-31 -8.36804 18.6985)
(-6.65194e-31 -7.78061 17.7712)
(-6.01961e-31 -7.226 16.8378)
(-5.63398e-31 -6.70779 15.8762)
(-5.46579e-31 -6.20784 14.8709)
(-5.48401e-31 -5.7138 13.802)
(-5.72975e-31 -5.23038 12.6761)
(-6.36887e-31 -4.80478 11.5596)
(-8.19179e-31 -4.3517 10.3358)
(-1.47134e-30 -2.94326 7.41662)
(-7.68995e-30 1.34522 -0.479654)
(-8.98049e-29 3.70989 -7.48181)
(-5.48626e-32 -13.1185 29.8409)
(-5.20184e-30 -18.3969 26.0723)
(-3.59361e-30 -12.7691 26.5739)
(-1.73222e-30 -14.6888 23.6128)
(4.5413e-30 -12.3207 22.9115)
(9.25149e-29 -12.2647 21.0972)
(9.76125e-29 -11.2583 19.9188)
(8.136e-29 -10.7176 18.5617)
(6.96595e-29 -10.0817 17.3329)
(6.27504e-29 -9.51928 16.1119)
(5.83097e-29 -8.96802 14.9213)
(5.56152e-29 -8.42669 13.7445)
(5.46699e-29 -7.88408 12.5673)