/*--------------------------------*- C++ -*----------------------------------*\
| =========                 |                                                 |
| \\      /  F ield         | OpenFOAM: The Open Source CFD Toolbox           |
|  \\    /   O peration     | Version:  4.1                                   |
|   \\  /    A nd           | Web:      www.OpenFOAM.org                      |
|    \\/     M anipulation  |                                                 |
\*---------------------------------------------------------------------------*/
FoamFile
{
    version     2.0;
    format      ascii;
    class       surfaceScalarField;
    location    "23";
    object      phi;
}
// * * * * * * * * * * * * * * * * * * * * * * * * * * * * * * * * * * * * * //

dimensions      [0 3 -1 0 0 0 0];

internalField   nonuniform List<scalar> 
2360
(
264791
266506
-1714.85
266507
266506
255851
10656.5
255850
255851
255851
250629
5221.86
250630
250630
247718
2912.43
247719
247719
251032
-3312.5
251033
251033
255292
-4259.09
255291
255290
252090
249066
246642
244894
243801
243185
241821
1435.22
242359
243054
243968
245126
246539
248240
250275
252687
255548
258898
262890
267534
273391
326485
-53094
326486
326486
326486
384602
-58115.9
384602
384603
384603
447629
-63026.2
447630
447630
509758
-62127.5
509758
509759
509759
569296
-59536.8
569297
569297
569297
609041
-39744.1
598346
587692
578667
571098
564910
560195
557092
555739
556001
557533
560047
563380
567458
708740
-136330
714497
721300
729317
738812
750018
764887
764888
764888
1.00065e+06
-235765
1.00065e+06
1.00065e+06
1.2782e+06
-277551
1.2782e+06
1.2782e+06
1.61061e+06
-332405
1.61061e+06
1.61061e+06
2.44748e+06
-836868
2.44748e+06
2.44748e+06
2.44748e+06
-5.0435e+06
7.49098e+06
-5.0435e+06
-5.0435e+06
1.9564e+06
-6.9999e+06
-50574.3
-465072
127839
-23825.5
-46760.9
331695
-39389.1
28702.4
-9256.44
66176.7
-42661.1
67668.5
-160100
98693.8
-329229
71976.9
-478535
-6449.67
-597590
-167478
-776212
-273084
-1.1308e+06
-61918.6
-1.53106e+06
9058.68
-1.9701e+06
94237.1
-2.6294e+06
278435
-3.42343e+06
257549
-4.18484e+06
-233500
-3.49176e+06
-2.34971e+06
-6.0355e+06
-90031.4
-317400
-70217.6
-43639.3
-46125.6
307603
-42886.3
25463.1
7075.27
16215.1
-22992.5
97736.2
-56599.5
132301
8020.04
7357.24
122147
-120576
157180
-202511
147749
-263653
58720.7
27109.5
-461012
528791
-868873
502099
-1.10552e+06
515085
-1.14166e+06
293687
-1.69082e+06
315657
-3.68197e+06
-358559
-2.22649e+06
33046
-349358
9114.14
-19707.5
15858.2
300859
-8490.02
49811.3
-7190.8
14916
-10090.3
100636
17572
104639
40337.9
-15408.5
39903.2
-120142
13486.9
-176095
-41678.3
-208488
-5568.73
-8999.86
-32558.1
555781
-224584
694125
-181751
472252
77378.6
34558.1
653995
-260959
1.20565e+06
-910218
-1.85771e+06
-48625.4
-279660
-44923.7
-23409.2
4835.42
251100
-1639.85
56286.6
-11376.3
24652.4
-3918.94
93178.4
27545.7
73173.9
56630
-44492.7
61563.8
-125075
44898.1
-159429
-17115.6
-146474
-77695
51579.5
45534.3
432551
118141
621519
228680
361713
380403
-117165
498180
-378735
469605
-881644
-1.7205e+06
-16355.8
-254029
-31952.9
-7812.19
-4003.31
223151
-7973.59
60256.9
-8412.56
25091.6
5609.26
79156.7
34401.3
44382
47831.5
-57922.7
40463.6
-117707
14874.9
-133840
-26359.3
-105239
-61088.2
86309.2
47662.7
323801
210652
458530
337581
234784
412366
-191949
489351
-455719
487199
-879492
-1.51086e+06
-43686.2
-199242
-49449.4
-2049.03
-10956.8
184658
-9192.35
58492.4
-3189.06
19088.3
16209.4
59758.2
43070.3
17521.2
48502.4
-63354.6
35251.3
-104456
12824.9
-111414
-18397.2
-74016.8
-13941.9
81855
65894.8
243964
207796
316629
330900
111681
379270
-240319
397580
-474029
364139
-846051
-1.38248e+06
-45040.2
-148184
-48704
1614.79
-12010.8
147965
-2787.23
49268.9
3780.91
12520.3
26000.2
37539
51469.1
-7947.44
53630.2
-65515.6
37343.4
-88169.1
18023.6
-92093.7
5072.48
-61065.2
30498.8
56429.8
95814.4
178649
209985
202459
311276
10390
340790
-269833
345670
-478908
288139
-788519
-1.23067e+06
-52856.5
-91155.5
-52420.9
1179.14
-3479.77
99023.7
8919.99
36869.1
11873.7
9566.71
40299
9113.75
64530.7
-32179
62968.4
-63953
45390.4
-70590.9
28493
-75196
23804.9
-56376.6
57441
22794.6
120809
115281
220351
102917
295055
-64313.2
305307
-280084
292336
-465936
215703
-711885
-1.05471e+06
-57677.5
-33360.3
-54978.9
-1519.48
10830.2
33214.5
37333.9
10365.5
49207.5
-2306.76
68681.3
-10360
75358.4
-38856
65478.6
-54073.1
48026.5
-53138.6
34319.4
-61488.7
34043.1
-56099.9
67709.3
-10870.9
134377
48613.9
219332
17962.7
271544
-116524
273414
-281954
253858
-446380
193258
-651285
-920990
-57575.4
22127.1
-54325.5
-4769.34
19111.1
-40222.1
50205.8
-20729.2
61839
-13939.8
66502.7
-15023.5
59243.5
-31596.7
49498.8
-44328
41105.6
-44745
36122.6
-56505.3
39978.9
-59955.6
69558.1
-40449.5
131624
-13450.9
197126
-47539.1
233141
-152539
236460
-285273
216981
-426900
166295
-600597
-816822
-56622.5
78683
-53333.3
-8058.53
14793.6
-108349
38720.6
-44656.2
30962.4
-6181.48
30398.3
-14459.2
26604.3
-27802.5
27257.9
-44981.5
32267.1
-49754
36221.1
-60459.1
42827.3
-66561.5
65537.3
-63159.1
111403
-59315.7
159699
-95834.8
189791
-182631
197835
-293317
183406
-412470
145699
-562891
-734148
-53286.7
134807
-51693.9
-9651.35
5352.3
-165395
13007.6
-52311.4
-1188.67
8015.24
15741.8
-31389.5
21529.5
-33589.9
23826.9
-47278.5
29920
-55846.7
35692.5
-66231.1
43257.7
-74126.3
60836.7
-80737.4
93196.3
-91674.6
128619
-131257
152793
-206804
162127
-302650
151700
-402042
124734
-535923
-667530
-50010.4
191727
-51334
-8327.72
-1634.83
-215094
2591.01
-56537.1
-5300.43
15906.8
10381.2
-47071
18275.6
-41484.1
21696.2
-50699
27426.1
-61576.5
33896.4
-72701.2
42177
-82406.8
56318.9
-94879.1
79685.8
-115041
105807
-157378
123996
-224994
131838
-310492
122948
-393151
99948.1
-512923
-620676
-41406.5
241750
-48468.5
-1265.75
-2967.71
-260595
-1487.26
-58017.4
-6730.71
21150.7
4200.85
-58002.4
12903.3
-50186.2
18044.1
-55839.5
24530.2
-68062.1
31440
-79610.6
40012.5
-90978.7
51906.5
-106772
68957.1
-132091
88054.2
-176474
101142
-238081
106273
-315622
97160.9
-384039
66374.5
-482136
-552865
-47340
303598
-53722.7
5116.94
-2233.85
-312084
-3296.86
-56954.4
-7099.67
24953.5
45.7722
-65147.7
8952.91
-59093.3
15127.8
-62014.3
21611
-74545.2
28393
-86392.6
36820.9
-99406.6
47342.1
-117294
60134.6
-144884
73556.9
-189896
82425.2
-246949
84428.4
-317625
76428.3
-376038
51759.5
-457467
-505365
-18151.7
333694
-37845.5
24810.7
1548.69
-351478
-1737.03
-53668.5
-7243.48
30460.3
-2794.37
-69596.6
5806.54
-67693.9
12499.7
-68707.1
18678.5
-80723.6
24993
-92706.7
32764.9
-107178
42194.7
-126723
52309.9
-154998
61269.2
-198855
66877.3
-252556
65183.2
-315930
58889.7
-369744
38424
-437000
-470252
-64605.8
425950
-58627.5
18832.4
7601.9
-417708
1252.36
-47319
-7101.84
38814.5
-3965.38
-72733
3552.9
-75212.1
10125.5
-75279.7
15713.7
-86311.7
21312.8
-98305.7
28004.7
-113870
36102.9
-134821
44404.9
-163300
50304.6
-204755
53695.4
-255947
49131.3
-311365
44793.9
-365406
21794.4
-414000
-445545
40253.7
386399
5088.49
53997.7
25488.6
-438108
-26269.7
4439.31
-18876.8
31421.5
-3434.59
-88175.2
2703.33
-81350
8242.22
-80818.5
13071.7
-91141.1
17857
-103091
23384
-119397
29963.3
-141400
36813
-170150
41132.9
-209074
43246.2
-258060
37865
-305984
33978.1
-361519
7497.93
-387520
-432825
-108004
571177
-96910.9
42904.9
-66702.6
-468316
-57813.1
-4450.2
9135.17
-35526.8
614.942
-79655
3043.1
-83778.1
7004.23
-84779.6
10758.7
-94895.5
14630.3
-106963
19059.7
-123826
24144.1
-146485
29633.9
-175640
33297.7
-212738
34398.2
-259160
30446.8
-302033
24985.9
-356058
3509.72
-366043
-418659
-123973
155966
-96620.7
-63867.5
8319.31
1348.47
1348.42
3466.59
4887.26
6610.93
8617.68
10840.3
13318.4
15252.4
15148.6
14581.2
9202.75
8157.06
4031.53
-833.856
6181.91
870.736
7683.46
922.245
8861.87
564.476
9689.57
263.363
10195.1
110.116
10273.5
-148.92
10117.6
-376.045
9971.54
-543.029
9770.71
-709.186
9501.38
-883.717
9157.52
-1065.64
8716.04
-1256.52
8145.7
-1461.37
7417.63
-1682.91
6498.15
-1938.54
5359.34
-2211.1
3950.08
-2582.38
2219.43
-2912.66
-3637.18
-400.993
-434.878
738.444
-270.249
2183.1
-522.929
3422.32
-675.478
4400.39
-714.943
5222.93
-712.958
5795.08
-721.206
6168.58
-749.948
6416
-790.522
6545.36
-838.853
6557.17
-895.548
6452.32
-961.006
6230.88
-1035.07
5887.77
-1118.39
5415.15
-1210.25
4791.22
-1314.66
4003.48
-1423.28
2986.77
-1565.56
1789.64
-1715.39
-1847.54
-239.49
-198.494
377.323
-889.217
806.515
-953.082
1023.9
-894.292
1177.62
-869.345
1334.71
-871.248
1494.93
-881.936
1639.8
-895.784
1762.07
-913.123
1856.55
-934.07
1919.42
-958.638
1944.73
-986.851
1928.13
-1018.59
1863.65
-1054.26
1746.58
-1093.29
1569.26
-1137.51
1327.41
-1181.46
1009.78
-1247.94
626.631
-1332.23
-1220.91
343.314
-542.719
467.214
-1013.99
523.542
-1009.68
600.176
-971.591
695.212
-964.476
787.428
-963.946
870.16
-964.672
940.076
-966.031
996.167
-969.154
1035.64
-973.752
1057.18
-980.107
1058.37
-988.147
1037.66
-997.803
992.694
-1009.32
921.591
-1022.13
821.191
-1037.08
691.008
-1051.28
526.122
-1083.03
338.957
-1145.04
-881.955
90.1941
-634.202
121.344
-1046.31
120.889
-1010.12
131.695
-983.554
150.415
-983.986
170.452
-985.034
191.584
-986.493
212.37
-987.726
232.325
-989.679
249.629
-991.805
263.589
-994.525
272.509
-997.667
275.599
-1001.26
271.343
-1005.52
258.841
-1009.95
236.71
-1015.28
204.832
-1019.57
162.629
-1040.98
110.658
-1093.25
-771.296
48.2798
-682.367
59.8162
-1057.8
63.907
-1014.06
72.76
-992.323
81.7792
-992.828
89.8461
-992.983
97.1364
-993.596
103.38
-993.826
108.466
-994.581
112.063
-995.245
113.954
-996.258
113.814
-997.366
111.348
-998.665
106.241
-1000.27
98.1956
-1001.8
86.871
-1003.85
72.2955
-1004.95
53.6702
-1022.32
33.3196
-1072.86
-737.976
26.9975
-709.309
27.4488
-1058.21
23.8116
-1010.37
24.0994
-992.549
24.9831
-993.644
25.9057
-993.822
26.83
-994.448
27.7251
-994.618
28.4064
-995.194
28.837
-995.564
28.8095
-996.17
28.2793
-996.726
27.0367
-997.38
25.0212
-998.164
22.0725
-998.818
18.068
-999.788
12.9927
-999.855
5.78014
-1015.09
-1.66644
-1065.39
-739.639
22.8424
-731.409
21.4456
-1056.16
18.0787
-1006.34
17.3714
-991.131
16.6718
-992.283
15.9674
-992.396
15.1154
-992.947
14.2683
-993.064
13.2141
-993.535
12.1011
-993.788
10.707
-994.244
9.18852
-994.608
7.32936
-995.062
5.23782
-995.567
2.79763
-995.977
-0.0123026
-996.593
-3.254
-996.381
-8.36965
-1009.78
-13.1938
-1060.34
-752.832
21.2584
-752.437
18.3685
-1053.06
14.5073
-1002.28
13.0738
-989.463
11.6378
-990.643
10.2236
-990.736
8.73185
-991.253
7.28556
-991.37
5.73663
-991.797
4.20299
-992.016
2.54598
-992.416
0.863224
-992.708
-0.953386
-993.098
-2.85604
-993.484
-4.8676
-993.829
-7.03423
-994.299
-9.28652
-994.026
-13.568
-1005.41
-17.8063
-1056.01
-770.636
20.7051
-772.771
17.051
-1049.06
13.3738
-998.262
11.8679
-987.592
10.3032
-988.739
8.75621
-988.818
7.14079
-989.301
5.56246
-989.426
3.9085
-989.824
2.27345
-990.036
0.555436
-990.411
-1.163
-990.675
-2.95688
-991.049
-4.79323
-991.38
-6.66486
-991.727
-8.62556
-992.13
-10.597
-991.899
-14.5398
-1001.34
-19.0875
-1051.31
-789.722
20.4535
-792.938
16.1045
-1044.45
12.6297
-994.524
11.1287
-985.809
9.54526
-986.892
7.97612
-986.963
6.35017
-987.412
4.75547
-987.548
3.10265
-987.92
1.46854
-988.132
-0.224798
-988.488
-1.91268
-988.738
-3.64789
-989.107
-5.41084
-989.4
-7.1806
-989.765
-9.01775
-990.119
-10.8086
-989.975
-14.4215
-997.607
-19.4562
-1046.14
-809.176
20.2818
-812.932
15.2837
-1039.19
12.0593
-991.029
10.6042
-984.078
9.06178
-985.076
7.51907
-985.144
5.94364
-985.561
4.37561
-985.707
2.77973
-986.054
1.17774
-986.269
-0.450473
-986.606
-2.09544
-986.849
-3.75112
-987.213
-5.45413
-987.478
-7.13029
-987.863
-8.88928
-988.172
-10.5599
-988.139
-13.8831
-994.137
-19.4646
-1040.4
-828.638
20.1523
-832.817
14.5312
-1033.32
11.5719
-987.815
10.1878
-982.432
8.698
-983.331
7.21644
-983.399
5.69609
-983.785
4.19001
-983.942
2.64794
-984.263
1.11004
-984.482
-0.46417
-984.801
-2.04069
-985.04
-3.6419
-985.397
-5.27177
-985.641
-6.88872
-986.045
-8.57557
-986.31
-10.1732
-986.399
-13.2321
-990.95
-19.3993
-1034.1
-848.036
20.03
-852.636
13.7726
-1026.86
11.0781
-984.916
9.74764
-980.898
8.31354
-981.691
6.88035
-981.762
5.41984
-982.115
3.96195
-982.282
2.4823
-982.577
0.994865
-982.801
-0.513051
-983.098
-2.03383
-983.336
-3.56524
-983.68
-5.13106
-983.908
-6.67537
-984.323
-8.29376
-984.545
-9.80363
-984.756
-12.5846
-988.049
-19.3217
-1027.23
-867.356
19.9267
-872.377
13.0335
-1019.79
10.6105
-982.312
9.3417
-979.449
7.96875
-980.136
6.59894
-980.212
5.20036
-980.533
3.80446
-980.71
2.38682
-980.978
0.961364
-981.206
-0.484636
-981.481
-1.93981
-981.721
-3.4112
-982.047
-4.9058
-982.267
-6.39012
-982.684
-7.9385
-982.868
-9.3826
-983.198
-11.9003
-985.427
-19.209
-1019.81
-886.564
19.8685
-892.12
12.3188
-1012.13
10.1713
-980.041
8.96304
-978.119
7.65346
-978.701
6.34706
-978.785
5.009
-979.067
3.66931
-979.251
2.31067
-979.493
0.938373
-979.718
-0.44968
-979.972
-1.84907
-980.212
-3.26557
-980.514
-4.69488
-980.737
-6.12655
-981.14
-7.60342
-981.301
-8.98328
-981.733
-11.238
-983.095
-19.0955
-1011.88
-905.659
19.8902
-911.929
11.6618
-1003.82
9.8162
-978.113
8.69706
-976.92
7.47012
-977.391
6.25277
-977.487
4.99214
-977.723
3.7259
-977.906
2.43505
-978.119
1.12543
-978.332
-0.205409
-978.562
-1.55082
-978.794
-2.92413
-979.064
-4.30129
-979.293
-5.70828
-979.659
-7.13177
-979.817
-8.48992
-980.318
-10.5232
-981.009
-18.9026
-1003.44
-924.561
20.0944
-931.967
11.1364
-994.807
9.64069
-976.562
8.6727
-975.897
7.5683
-976.231
6.47129
-976.336
5.31896
-976.513
4.14571
-976.678
2.94166
-976.857
1.70802
-977.047
0.44781
-977.248
-0.83631
-977.46
-2.15433
-977.694
-3.48034
-977.92
-4.86344
-978.225
-6.23655
-978.403
-7.63379
-978.882
-9.49546
-979.111
-18.3271
-994.574
-942.888
20.8114
-952.733
11.0913
-985.043
9.99761
-975.422
9.29586
-975.15
8.41331
-975.302
7.49816
-975.376
6.50154
-975.47
5.4387
-975.571
4.30974
-975.682
3.11145
-975.805
1.85071
-975.943
0.528434
-976.097
-0.852658
-976.27
-2.27297
-976.462
-3.76258
-976.695
-5.2257
-976.907
-6.78845
-977.288
-8.45682
-977.414
-17.4864
-985.515
-960.374
22.2965
12.2835
11.8919
11.7712
11.5001
11.1538
10.7152
10.1729
9.5219
8.74439
7.8311
6.76103
5.51911
4.08138
2.41421
0.529721
-1.73705
-4.13112
-14.6264
-677.965
1653.33
-1101.41
1398.76
-1534.09
1407.94
-1882.59
1323.75
-2192.37
1285.01
-2452.13
1234.97
-2669.73
1192.8
-2844.52
1149.99
-2978.08
1108.75
-3070.58
1067.69
-3122.32
1026.91
-3132.91
985.755
-3100.13
942.38
-3016.15
891.179
-2862.1
821.115
-2606.17
719.214
-2208.89
577.842
-1633.97
400.235
-878.986
220.249
96.0193
-208.743
1862.48
-463.791
1654.2
-733.872
1678.36
-960.714
1550.92
-1178.2
1502.78
-1362.23
1419.3
-1522.93
1353.78
-1655.21
1282.55
-1761.79
1215.58
-1842.17
1148.33
-1897.39
1082.36
-1927.2
1015.81
-1928.96
944.344
-1892.78
855.218
-1797.52
726.084
-1608.9
530.802
-1300.95
270.101
-862.2
-38.2206
-420.173
-221.279
-324.142
-131.631
1994.45
-293.857
1816.77
-416.776
1801.62
-495.265
1629.76
-563.041
1570.9
-597.185
1453.82
-614.595
1371.57
-609.35
1277.7
-585.868
1192.51
-543.976
1106.84
-484.932
1023.73
-409.187
940.492
-318.093
853.719
-216.237
753.858
-114.59
625.085
-29.2849
446.378
26.908
216.071
63.737
-72.757
5.00106
-161.33
-319.131
28.7891
1965.99
15.9241
1829.99
28.6226
1789.28
61.0382
1597.74
92.3485
1539.97
144.901
1401.68
202.071
1314.81
273.867
1206.32
353.944
1112.85
442.728
1018.46
537.36
929.475
636.644
841.56
737.473
753.233
832.062
659.573
903.198
554.289
915.256
434.616
825.67
305.952
548.112
205.188
269.271
118.154
-49.85
48.9219
1917.51
66.9952
1812.38
99.0726
1757.69
128.577
1568.76
156.955
1512.13
189.362
1369.85
215.808
1288.94
242.728
1180.03
266.736
1089.46
296.705
989.146
337.116
889.691
393.774
785.561
472.873
674.731
581.919
551.108
714.231
422.524
824.839
324.458
832.062
299.076
685.047
352.542
395.275
408.487
345.433
-38.5991
1956.41
-75.3393
1849.44
-113.222
1795.89
-171.764
1627.64
-227.459
1568.15
-296.889
1439.64
-376.841
1369.23
-468.574
1272.13
-564.081
1185.29
-644.988
1070.41
-696.275
941.278
-707.393
797.037
-672.125
639.79
-589.071
468.448
-471.701
305.616
-332.632
185.893
-174.558
141.529
-14.9817
193.554
70.7029
323.457
416.143
-54.8139
2011.61
-159.705
1954.74
-238.245
1874.81
-331.588
1721.41
-424.393
1661.32
-526.761
1542.44
-637.238
1480.06
-755.75
1391.04
-880.031
1309.88
-999.161
1189.89
-1104.82
1047.22
-1189.64
882.176
-1255.59
706.016
-1308.55
521.693
-1347.23
344.589
-1333.66
172.568
-1210.83
18.9276
-925.34
-91.7102
-463.896
-137.624
-47.7494
85.6787
1926.1
-37.0151
2077.64
-90.2906
1928.27
-130.816
1762.18
-164.039
1694.74
-195.851
1574.53
-220.213
1504.63
-239.307
1410.45
-256.172
1326.96
-278.637
1212.7
-310.303
1079.11
-350.877
923.125
-400.853
756.247
-459.655
580.871
-518.265
403.512
-564.365
219.027
-591.853
46.757
-573.476
-109.856
-411.073
-299.774
-458.815
245.79
1680.84
197.992
2125.96
187.456
1939.34
214.98
1735.28
265.332
1644.95
316.199
1524.33
382.786
1438.61
456.143
1337.75
537.806
1245.82
610.1
1141.04
662.666
1027
685.596
900.805
675.228
767.06
628.833
627.874
546.833
486.046
427.989
338.598
288.942
186.564
171.969
7.9831
44.3025
-171.377
-414.512
264.853
1415.99
295.375
2095.45
303.023
1931.7
344.189
1694.15
412.579
1576.57
479.279
1457.68
554.674
1363.23
631.906
1260.59
714.165
1163.58
791.236
1064.04
855.141
963.109
896.407
859.618
909.008
754.468
888.711
648.268
832.985
541.802
739.009
432.692
604.764
320.794
421.145
191.629
210.526
39.2856
-203.984
176.827
1239.37
232.572
2039.89
258.502
1905.96
298.113
1654.76
357.634
1517.24
416.777
1398.77
478.154
1302.04
537.319
1201.63
595.471
1105.58
648.206
1011.48
691.27
920.161
719.856
831.171
730.634
743.774
721.76
657.258
691.453
572.183
634.597
489.656
541.926
413.471
399.023
334.578
202.464
235.931
-1.52478
64.1685
1174.57
114.172
1989.37
168.554
1851.04
223.694
1599
288.439
1451.91
354.67
1331.86
420.507
1235.61
483.47
1137.97
543.503
1045
600.078
954.215
654.127
865.657
706.269
778.38
757.104
692.601
800.796
613.018
823.755
548.949
800.739
512.294
707.733
506.397
528.744
513.474
276.257
488.234
274.725
-68.1632
1243.03
-19.7718
1941.32
63.2637
1768.26
122.739
1539.95
173.639
1401.23
222.452
1283.52
276.71
1181.5
344.022
1071.09
429.228
959.796
539.223
844.512
675.727
729.008
834.509
619.628
995.618
531.246
1122.3
486.121
1169.32
501.636
1104.38
576.98
922.759
687.784
641.909
794.104
318.434
811.367
593.141
-205.393
1447.52
-215.199
1950.29
-182.393
1734.6
-209.289
1565.9
-273.879
1464.91
-351.909
1360.64
-418.948
1247.59
-464.034
1115.29
-481.029
975.749
-466.244
828.72
-418.442
679.957
-338.433
538.28
-231.119
422.223
-103.175
356.345
34.2373
362.009
160.41
448.849
235.48
611.41
216.025
812.542
104.696
921.563
697.826
-250.643
1697.55
-419.186
2118.19
-583.147
1898.09
-785.656
1767.81
-1025.49
1704.38
-1281.61
1616.26
-1534.33
1500.01
-1778.64
1359.18
-2013.36
1210.2
-2239.31
1054.34
-2451.97
892.367
-2637.68
723.779
-2767.1
551.365
-2790.73
379.869
-2650.51
221.468
-2303.06
101.211
-1742.61
50.6151
-1022.5
92.018
-338.218
236.603
359.606
-100.216
1796.48
-326.869
2343.61
-642.92
2213.15
-960.382
2084.14
-1277.83
2021.03
-1602.65
1940.07
-1932.77
1829.47
-2266.83
1692.34
-2600.8
1543.64
-2931.34
1384.1
-3250.88
1211.54
-3547.36
1019.58
-3793.85
797.632
-3941.2
526.661
-3919.22
199.281
-3655.59
-162.858
-3051.97
-552.961
-2022.56
-937.456
-756.854
-1029.25
-397.266
-395.753
2192.19
-731.141
2679.07
-1233.33
2715.29
-1720.24
2571.18
-2166.38
2467.07
-2586.83
2360.67
-2993.37
2235.87
-3386.57
2085.65
-3760.15
1917.02
-4108.22
1732.23
-4430.23
1533.28
-4727.46
1316.81
-4994.81
1064.62
-5192.72
724.516
-5223.35
229.489
-4948.3
-438.003
-4227.32
-1274.42
-2989.12
-2176.03
-1333.27
-2685.75
-1730.55
-348.799
2540.31
-939.066
3268.98
-1646.17
3421.85
-2422.12
3346.84
-3223.7
3268.11
-4040.98
3177.66
-4861.13
3055.48
-5668.66
2892.88
-6458.86
2706.68
-7234.3
2507.35
-7997.99
2296.48
-8735.78
2054.23
-9368.41
1696.82
-9691.46
1047.17
-9432.62
-29.8036
-8489.3
-1381.71
-6933.17
-2830.82
-4843.59
-4265.91
-2236
-5293.81
-3966.55
-3530.84
6071.34
-6379.92
6118.43
-8900.86
5942.78
-11098
5544.32
-12985.7
5155.61
-14537.6
4729.82
-15720.9
4238.63
-16629.3
3801.39
-17339.1
3416.22
-17795.6
2963.88
-17899
2399.57
-17491.8
1646.88
-16410.6
615.315
-14659.1
-704.584
-12446.3
-2242.98
-10016.6
-3811.76
-7570.18
-5277.49
-5112.41
-6723.94
-2373.75
-8032.82
-6340.3
-8797.41
-13884.2
-17435.3
-19907.4
-21554.2
-22581.1
-23294
-23571.1
-23486.7
-23036.3
-22168.9
-20783
-18814.4
-16416.4
-13944.6
-11568.6
-9276.73
-6975.75
-4354.83
)
;

boundaryField
{
    outletWall
    {
        type            calculated;
        value           nonuniform List<scalar> 
60
(
1.9564e+06
-4.45616e+06
1.65664e+06
994907
536478
380866
344805
391197
416510
451705
286533
155755
97152.9
18744.7
-34263.7
-96309.4
-36074.1
-157095
-154588
444522
95882.8
-76775
-702.683
-27650.2
-11943.8
-14508.6
-8616.46
-6908.92
-2837.79
66.6844
2087.94
-117.751
-4171.61
-6018.61
-11100.9
-9274.52
-21072.8
-1088.37
-57640.2
71123.6
-264791
-412217
-364998
-350680
-301465
-259057
-214672
-178118
-148707
-125833
-108686
-96316.2
-86897.8
-83778
-72684.1
-107714
-37203.4
-215729
-237034
599268
)
;
    }
    fineWalls
    {
        type            calculated;
        value           uniform 0;
    }
    fineFrontAndBack
    {
        type            calculated;
        value           nonuniform List<scalar> 
960
(
-5.16628e-12
-4.32331e-10
-1.38553e-10
-1.06306e-10
-2.9922e-10
-1.25143e-11
1.32993e-11
-2.16016e-11
4.09393e-10
1.3551e-10
1.48484e-10
-6.42549e-10
-3.07234e-10
-2.5522e-10
-2.65814e-09
-4.66155e-10
-3.20653e-10
-1.26518e-09
-1.4008e-10
-8.43115e-11
-7.74692e-12
-4.22379e-12
3.90403e-12
9.48042e-12
8.80418e-12
4.86841e-12
-1.16114e-10
2.87093e-12
2.35947e-12
2.22762e-12
2.46496e-12
3.0851e-12
3.36663e-12
3.24193e-12
3.36867e-12
3.96185e-12
4.27289e-12
4.85905e-12
3.65432e-12
1.02316e-11
-1.00051e-10
-3.2335e-11
-1.21098e-11
-4.25068e-11
-1.39164e-09
-2.52186e-10
-1.86264e-10
-9.34245e-11
-2.02784e-09
5.16526e-11
5.51792e-10
3.30127e-09
3.83496e-10
2.89619e-10
2.08307e-10
1.09096e-09
5.5332e-11
2.3585e-11
6.21446e-11
-7.55769e-10
-4.25852e-11
-3.11636e-11
-2.08903e-11
-1.48407e-11
-1.3199e-11
-1.42181e-11
-1.4889e-11
-1.2622e-11
-6.27128e-12
1.4408e-12
6.6906e-12
8.29787e-12
6.18077e-12
5.80298e-10
-4.80167e-12
-7.32643e-12
-1.11156e-11
-6.85581e-12
-2.42e-11
-8.74063e-12
1.08347e-10
9.25322e-11
3.45819e-10
2.20918e-11
8.48885e-11
-2.5704e-09
-6.27579e-10
-4.09449e-10
-4.35331e-09
-8.38267e-10
-3.87773e-10
-4.06451e-09
-1.04656e-09
-9.18119e-10
-5.97331e-10
-8.57437e-09
-3.28295e-09
-3.94942e-09
1.3277e-08
2.74303e-08
-1.15593e-08
-1.28413e-09
4.28512e-10
-8.11799e-11
-1.85196e-12
-1.04314e-11
2.65504e-10
1.50633e-09
3.52785e-09
5.42505e-09
6.46582e-09
4.33782e-09
-5.8024e-10
-3.25767e-09
-3.79845e-09
-4.92962e-09
-6.62955e-09
-7.6751e-09
-5.3578e-09
3.59455e-09
-6.75042e-12
5.67504e-10
-1.61558e-10
4.88821e-11
7.3751e-12
2.80145e-10
1.04601e-09
5.79184e-10
6.84778e-11
-4.56688e-10
-9.48878e-10
-4.45765e-10
-1.67833e-09
-2.00458e-09
-1.49901e-09
-1.28689e-09
-3.05786e-09
-7.61056e-09
3.75504e-11
4.70767e-10
6.26409e-10
1.60081e-10
8.03256e-11
9.19849e-11
2.86325e-10
4.47367e-10
2.33224e-10
1.75951e-10
1.94846e-10
1.70898e-10
-5.43403e-10
-8.27893e-10
-1.06933e-09
-4.77696e-10
-9.04231e-11
-3.91718e-11
1.84445e-09
8.34613e-10
7.83171e-10
6.44758e-10
2.98051e-10
1.62837e-10
2.14736e-10
3.56086e-10
3.18045e-10
1.63161e-10
9.07544e-11
5.51915e-11
-2.69669e-11
-3.4937e-10
-4.78975e-10
-5.79656e-10
-4.19019e-10
-2.25195e-10
8.51215e-11
3.70982e-10
6.63332e-10
7.75417e-10
6.50187e-10
3.26988e-10
2.5232e-10
3.07635e-10
4.07816e-10
2.78409e-10
9.21327e-11
1.69172e-11
-1.96966e-13
2.52924e-11
-1.03382e-10
-2.80015e-10
-3.24418e-10
-2.77547e-10
-1.28698e-10
1.35016e-10
4.34799e-10
7.11696e-10
7.44703e-10
6.35633e-10
3.29294e-10
3.17032e-10
3.55393e-10
4.15635e-10
2.52697e-10
5.65635e-11
-1.45221e-11
-2.45588e-11
5.589e-11
2.62444e-11
-6.79112e-11
-1.53796e-10
-1.55235e-10
-5.43284e-11
2.04767e-10
3.0641e-10
6.96684e-10
7.1027e-10
6.09868e-10
3.28283e-10
3.54276e-10
3.81102e-10
4.02578e-10
2.41598e-10
5.84328e-11
-8.90662e-12
-2.44604e-11
8.14246e-11
8.86873e-11
9.89459e-11
2.32413e-11
-2.2942e-11
4.73449e-11
2.58943e-10
3.25854e-10
6.70464e-10
6.60169e-10
5.74821e-10
3.1414e-10
3.15068e-10
3.74299e-10
3.58089e-10
2.25334e-10
6.54613e-11
-3.04654e-12
-2.71831e-11
1.45733e-10
1.42781e-10
1.73801e-10
1.41857e-10
1.16868e-10
1.95171e-10
3.16727e-10
3.22312e-10
6.11043e-10
6.06996e-10
5.69355e-10
4.1773e-10
3.57048e-10
3.10195e-10
2.78398e-10
1.65102e-10
3.46614e-11
-1.07905e-11
-3.26093e-11
3.65379e-10
2.41814e-10
1.69564e-10
3.01795e-10
4.74639e-10
4.05362e-10
3.53345e-10
2.78808e-10
4.59022e-10
3.01092e-10
2.76319e-10
2.03657e-10
1.41248e-10
9.06346e-11
9.02282e-11
1.29845e-11
-3.67502e-11
-1.78829e-11
-2.67079e-11
5.16838e-10
3.63228e-10
-2.35847e-10
1.39034e-09
1.02352e-09
4.54025e-10
3.32047e-10
2.73866e-10
2.25736e-10
-1.09397e-10
-2.03133e-11
-2.89664e-11
-4.49375e-11
-7.83079e-12
-2.63046e-10
-1.54739e-10
-4.46058e-11
-4.52599e-12
6.34378e-12
-5.17505e-11
-8.32391e-12
3.51634e-11
-1.49246e-11
7.78095e-11
2.18984e-10
2.97549e-10
3.2022e-10
1.53004e-10
-7.14635e-11
2.42669e-12
-8.03578e-12
5.84817e-12
2.49373e-12
4.52277e-11
3.45849e-11
1.3017e-11
1.37656e-12
-2.44627e-12
1.51557e-11
2.99213e-11
6.08337e-11
1.0315e-10
1.47223e-10
2.25813e-10
2.53454e-10
2.42059e-10
1.29051e-10
-7.39829e-11
-1.58722e-11
-2.48571e-11
3.90053e-12
-1.00993e-12
-6.57524e-12
-5.29636e-12
-1.9911e-12
-4.95555e-13
-9.16856e-13
1.08185e-12
1.76159e-11
5.274e-11
1.00928e-10
1.52113e-10
2.08891e-10
1.81688e-10
2.18198e-10
1.26742e-10
-6.97231e-11
-2.11823e-11
-2.77722e-11
1.11107e-12
1.34679e-13
9.04404e-13
6.11843e-13
2.22236e-13
9.47791e-14
-7.83278e-13
-8.91424e-13
9.29736e-12
3.29097e-11
6.63216e-11
1.08626e-10
1.44601e-10
8.91567e-11
2.64995e-10
1.15179e-10
-7.1093e-11
-2.66612e-11
-2.99303e-11
1.14001e-12
1.12626e-13
-5.87705e-14
-4.41053e-14
-1.25656e-14
7.63514e-14
-1.6185e-13
-1.68726e-12
1.56612e-12
1.23064e-11
2.6281e-11
4.41694e-11
6.4145e-11
1.02962e-11
3.35863e-10
1.20091e-10
-5.90821e-11
-3.19808e-11
-3.10198e-11
2.89081e-13
1.18607e-13
3.73236e-14
1.57881e-15
-2.29718e-15
1.56595e-14
1.0631e-13
-5.17265e-13
-1.09225e-12
4.73902e-13
1.94905e-12
2.35155e-12
1.21142e-11
-2.38819e-11
3.78222e-10
8.65568e-11
-7.90626e-11
-3.65481e-11
-3.17336e-11
-3.74448e-12
-5.19106e-14
2.03492e-14
-6.36813e-16
-2.93345e-15
-1.154e-14
6.70396e-14
1.91848e-13
-7.52769e-13
-2.3606e-12
-3.54954e-12
-5.80773e-12
-3.50794e-12
-1.38014e-11
3.55142e-10
1.18809e-10
7.36545e-11
-4.2006e-11
-2.71443e-11
-1.8984e-12
-3.54293e-13
1.38912e-14
2.0428e-15
2.43481e-16
-3.87868e-15
-1.12746e-14
1.37334e-13
-1.33982e-14
-8.64299e-13
-1.24702e-12
-1.67952e-12
-2.71014e-12
5.35817e-12
2.58794e-10
-9.84832e-11
1.82938e-11
-4.52952e-11
6.42626e-12
-2.88256e-12
-5.68372e-13
6.17501e-16
1.21764e-15
2.55349e-16
1.43961e-15
-1.02371e-14
-1.95302e-14
1.08542e-13
2.06804e-13
2.17587e-13
3.85382e-13
-1.4214e-13
5.92122e-12
9.90532e-11
7.95577e-10
2.16319e-11
-3.67696e-11
8.78247e-12
-9.39186e-13
-1.99296e-13
-9.69648e-16
1.26155e-16
-3.68086e-17
1.3756e-16
1.73241e-15
-8.8741e-15
-1.23959e-15
6.50631e-14
8.19412e-14
1.06076e-13
2.16121e-13
-9.61471e-13
1.78325e-11
5.16628e-12
4.32331e-10
1.38553e-10
1.06306e-10
2.9922e-10
1.25143e-11
-1.32993e-11
2.16016e-11
-4.09393e-10
-1.3551e-10
-1.48484e-10
6.42549e-10
3.07234e-10
2.5522e-10
2.65814e-09
4.66155e-10
3.20653e-10
1.26518e-09
1.4008e-10
8.43115e-11
7.74692e-12
4.22379e-12
-3.90403e-12
-9.48042e-12
-8.80418e-12
-4.86841e-12
1.16114e-10
-2.87093e-12
-2.35947e-12
-2.22762e-12
-2.46496e-12
-3.0851e-12
-3.36663e-12
-3.24193e-12
-3.36867e-12
-3.96185e-12
-4.27289e-12
-4.85905e-12
-3.65432e-12
-1.02316e-11
1.00051e-10
3.2335e-11
1.21098e-11
4.25068e-11
1.39164e-09
2.52186e-10
1.86264e-10
9.34245e-11
2.02784e-09
-5.16526e-11
-5.51792e-10
-3.30127e-09
-3.83496e-10
-2.89619e-10
-2.08307e-10
-1.09096e-09
-5.5332e-11
-2.3585e-11
-6.21446e-11
7.55769e-10
4.25852e-11
3.11636e-11
2.08903e-11
1.48407e-11
1.3199e-11
1.42181e-11
1.4889e-11
1.2622e-11
6.27128e-12
-1.4408e-12
-6.6906e-12
-8.29787e-12
-6.18077e-12
-5.80298e-10
4.80167e-12
7.32643e-12
1.11156e-11
6.85581e-12
2.42e-11
8.74063e-12
-1.08347e-10
-9.25322e-11
-3.45819e-10
-2.20918e-11
-8.48885e-11
2.5704e-09
6.27579e-10
4.09449e-10
4.35331e-09
8.38267e-10
3.87773e-10
4.06451e-09
1.04656e-09
9.18119e-10
5.97331e-10
8.57437e-09
3.28295e-09
3.94942e-09
-1.3277e-08
-2.74303e-08
1.15593e-08
1.28413e-09
-4.28512e-10
8.11799e-11
1.85196e-12
1.04314e-11
-2.65504e-10
-1.50633e-09
-3.52785e-09
-5.42505e-09
-6.46582e-09
-4.33782e-09
5.8024e-10
3.25767e-09
3.79845e-09
4.92962e-09
6.62955e-09
7.6751e-09
5.3578e-09
-3.59455e-09
6.75042e-12
-5.67504e-10
1.61558e-10
-4.88821e-11
-7.3751e-12
-2.80145e-10
-1.04601e-09
-5.79184e-10
-6.84778e-11
4.56688e-10
9.48878e-10
4.45765e-10
1.67833e-09
2.00458e-09
1.49901e-09
1.28689e-09
3.05786e-09
7.61056e-09
-3.75504e-11
-4.70767e-10
-6.26409e-10
-1.60081e-10
-8.03256e-11
-9.19849e-11
-2.86325e-10
-4.47367e-10
-2.33224e-10
-1.75951e-10
-1.94846e-10
-1.70898e-10
5.43403e-10
8.27893e-10
1.06933e-09
4.77696e-10
9.04231e-11
3.91718e-11
-1.84445e-09
-8.34613e-10
-7.83171e-10
-6.44758e-10
-2.98051e-10
-1.62837e-10
-2.14736e-10
-3.56086e-10
-3.18045e-10
-1.63161e-10
-9.07544e-11
-5.51915e-11
2.69669e-11
3.4937e-10
4.78975e-10
5.79656e-10
4.19019e-10
2.25195e-10
-8.51215e-11
-3.70982e-10
-6.63332e-10
-7.75417e-10
-6.50187e-10
-3.26988e-10
-2.5232e-10
-3.07635e-10
-4.07816e-10
-2.78409e-10
-9.21327e-11
-1.69172e-11
1.96966e-13
-2.52924e-11
1.03382e-10
2.80015e-10
3.24418e-10
2.77547e-10
1.28698e-10
-1.35016e-10
-4.34799e-10
-7.11696e-10
-7.44703e-10
-6.35633e-10
-3.29294e-10
-3.17032e-10
-3.55393e-10
-4.15635e-10
-2.52697e-10
-5.65635e-11
1.45221e-11
2.45588e-11
-5.589e-11
-2.62444e-11
6.79112e-11
1.53796e-10
1.55235e-10
5.43284e-11
-2.04767e-10
-3.0641e-10
-6.96684e-10
-7.1027e-10
-6.09868e-10
-3.28283e-10
-3.54276e-10
-3.81102e-10
-4.02578e-10
-2.41598e-10
-5.84328e-11
8.90662e-12