/*--------------------------------*- C++ -*----------------------------------*\
| =========                 |                                                 |
| \\      /  F ield         | OpenFOAM: The Open Source CFD Toolbox           |
|  \\    /   O peration     | Version:  4.1                                   |
|   \\  /    A nd           | Web:      www.OpenFOAM.org                      |
|    \\/     M anipulation  |                                                 |
\*---------------------------------------------------------------------------*/
FoamFile
{
    version     2.0;
    format      ascii;
    class       volVectorField;
    location    "23";
    object      U;
}
// * * * * * * * * * * * * * * * * * * * * * * * * * * * * * * * * * * * * * //

dimensions      [0 1 -1 0 0 0 0];

internalField   nonuniform List<vector> 
1280
(
(-3.73353e-15 126.314 -9.03778)
(-7.34789e-14 121.698 -26.944)
(-1.0401e-13 77.8588 -49.0416)
(-7.68249e-14 87.7346 -47.2015)
(-5.08553e-14 123.224 -18.8795)
(-9.04373e-15 78.9935 -1.84885)
(9.61105e-15 89.5267 -4.61615)
(-2.22239e-14 83.5157 -11.888)
(9.60323e-14 110.883 -17.0942)
(1.06413e-13 80.5104 -10.8206)
(1.14093e-13 81.0913 -11.1227)
(-1.63505e-13 111.593 -9.43073)
(-2.20318e-13 79.5398 -8.26013)
(-1.82729e-13 79.5208 -10.7045)
(-4.91986e-13 111.158 -4.43819)
(-3.36878e-13 81.0058 -4.01622)
(-2.31728e-13 79.7201 -9.0459)
(-2.15029e-13 118.189 0.0464132)
(-1.01232e-13 77.8884 -1.03558)
(-6.09297e-14 94.9232 2.70818)
(-3.17822e-14 86.8813 -12.6631)
(-1.73284e-14 84.6024 -13.7926)
(1.60165e-14 85.5881 -7.29267)
(3.8894e-14 82.5036 1.9066)
(3.61197e-14 82.7663 10.6547)
(1.9973e-14 74.9464 16.0859)
(-2.44772e-14 144.446 29.9345)
(1.17782e-14 86.936 29.4817)
(9.67987e-15 84.2916 24.0987)
(9.13896e-15 85.3166 18.0803)
(1.01127e-14 84.6091 13.2797)
(1.26568e-14 84.243 10.0251)
(1.38118e-14 84.5744 8.7872)
(1.33002e-14 85.0289 9.7948)
(1.38202e-14 85.7811 12.684)
(1.62537e-14 86.099 16.8215)
(1.75298e-14 87.4157 21.291)
(1.99346e-14 86.4734 26.0627)
(1.49921e-14 90.3048 29.7968)
(4.19756e-14 84.6552 36.7363)
(-1.74154e-14 197.8 1.39892)
(-2.59719e-14 108.101 0.116444)
(-9.72676e-15 109.931 1.43123)
(-5.44795e-14 101.785 6.2643)
(-3.11383e-13 162.165 -17.6053)
(-2.02559e-13 119.837 -11.8505)
(-1.49609e-13 136.312 -8.37173)
(-7.50397e-14 121.892 -1.9563)
(-4.86588e-13 180.647 -20.7521)
(1.78814e-13 145.802 -12.9522)
(5.84243e-13 142.775 -8.09965)
(5.74634e-13 219.52 -21.0626)
(3.08029e-13 158.107 -14.415)
(2.32626e-13 180.453 -12.3625)
(1.67315e-13 161.058 -6.1082)
(1.89898e-13 246.124 -13.2041)
(2.10818e-14 177.391 -7.17735)
(1.89438e-14 203.58 -3.21907)
(4.99154e-14 175.096 0.769107)
(-2.18991e-13 306.328 9.04039)
(-1.74709e-13 204.257 -29.2524)
(-1.27851e-13 194.971 -32.7889)
(-8.57038e-14 196.681 -28.7327)
(-6.0885e-14 195.037 -23.2126)
(-5.41499e-14 192.668 -16.0151)
(-5.83306e-14 191.05 -6.43976)
(-6.10832e-14 189.347 4.37327)
(-5.17826e-14 187.944 13.8677)
(-2.57283e-14 186.566 20.0636)
(5.91098e-15 186.943 23.7103)
(2.74486e-14 184.634 26.5357)
(3.40426e-14 189.56 30.1384)
(2.5357e-14 176.424 36.282)
(1.22329e-13 388.299 -28.5764)
(-1.96991e-14 239.496 13.0956)
(-3.00571e-14 241.16 11.0221)
(-4.56026e-14 249.769 11.2806)
(-2.81264e-14 250.314 16.8995)
(-9.92821e-14 258.95 22.3075)
(-3.5859e-14 249.049 42.0887)
(7.82999e-14 327.629 0.915399)
(6.68706e-14 229.749 11.1507)
(5.87753e-14 366.157 -121.442)
(1.59652e-14 325.296 -79.0577)
(6.13467e-14 326.663 -37.862)
(-6.0388e-13 477.273 -133.746)
(-4.53535e-13 416.001 -82.4782)
(-3.4809e-13 408.193 -41.0918)
(-8.72466e-13 622.474 -199.611)
(-5.64363e-13 512.45 -141.278)
(-2.47088e-13 522.213 -77.6407)
(-1.06161e-12 837.253 -375.477)
(-7.99946e-13 726.434 -286.981)
(-6.63501e-13 929.107 -69.5468)
(-4.31676e-13 671.75 -765.301)
(-1.4573e-12 1335.66 7733.99)
(-2.3725e-12 -1534.38 15121)
(-2.85415e-12 -2622.33 18182.5)
(2.27179e-12 -5060.3 -13732.7)
(1.98232e-11 -13335.4 -124538)
(-1.28436e-12 750.107 366.746)
(-1.42681e-13 -11.7848 -192.762)
(4.76124e-14 -131.555 -56.2829)
(-9.01998e-15 -35.3019 101.616)
(-2.05773e-16 -48.2067 -6.11559)
(-1.15905e-15 -25.2536 14.9069)
(2.95004e-14 -6.53498 61.5992)
(1.6737e-13 120.18 201.083)
(3.91984e-13 318.902 351.696)
(6.02784e-13 514.983 442.037)
(7.18425e-13 765.76 541.92)
(4.8198e-13 961.043 758.338)
(-6.44711e-14 846.15 1125.96)
(-3.61963e-13 635.676 1428.28)
(-4.2205e-13 790.924 1856.33)
(-5.47736e-13 1258.44 2533.37)
(-7.36617e-13 1649.47 3170.99)
(-8.52788e-13 1567.73 3437.16)
(-5.95312e-13 68.2296 3106.96)
(3.99395e-13 -201.166 -161.197)
(-7.50046e-16 -22.3681 227.953)
(6.3056e-14 -121.893 -59.3679)
(-1.79509e-14 8.14863 119.478)
(5.43134e-15 -20.6996 -30.8078)
(8.19455e-16 -29.7188 11.6558)
(3.11272e-14 -45.8594 27.9789)
(1.16223e-13 -66.1823 63.0484)
(6.43538e-14 -137.005 -70.1761)
(7.60864e-15 -194.935 -125.082)
(-5.07431e-14 -297.063 -129.567)
(-1.05431e-13 -584.361 -186.572)
(-4.95295e-14 -479.579 156.581)
(-1.86481e-13 -401.146 592.365)
(-2.22731e-13 -609.827 888.756)
(-1.66556e-13 -944.125 958.476)
(-1.42987e-13 -826.154 978.889)
(-3.39762e-13 545.407 1763.38)
(-8.45618e-13 2385.74 4370.88)
(4.17226e-15 262.493 -18.6605)
(5.23075e-14 80.8602 -2.49346)
(6.9601e-14 -93.4182 -47.9788)
(1.77867e-14 -21.1459 25.5762)
(8.92507e-15 7.06435 -8.66406)
(1.02205e-14 -32.9978 13.8377)
(3.18139e-14 -42.4135 6.26404)
(4.97074e-14 -4.22982 -29.0469)
(2.59138e-14 73.4927 -40.2176)
(1.95501e-14 157.657 -28.4014)
(2.16496e-14 241.776 -0.717269)
(1.89886e-14 236.176 75.6284)
(-6.03781e-14 -203.623 -79.7619)
(-9.19881e-14 -197.966 123.87)
(-1.18815e-13 -81.3772 271.924)
(-5.30774e-14 171.576 61.9392)
(-1.0047e-14 151.601 -291.933)
(-4.35243e-15 -163.561 -743.428)
(2.04939e-13 -161.435 -1159.19)
(9.27348e-14 37.5077 -29.2348)
(8.70191e-14 -62.8815 102.954)
(7.16398e-14 -92.5711 -32.2047)
(3.31168e-14 -17.3349 17.5144)
(1.8093e-14 -7.68289 -2.69758)
(2.38596e-14 -33.1796 14.76)
(3.95651e-14 -29.9408 -5.11658)
(3.53383e-14 12.8647 -41.0812)
(1.8129e-14 32.8982 -51.4809)
(1.00838e-14 26.355 -49.3063)
(6.13239e-15 -4.07456 -29.1434)
(-2.99632e-15 -88.5144 77.2499)
(-3.88189e-14 -113.877 11.9045)
(-5.32195e-14 -193.095 -86.1858)
(-6.44062e-14 -108.179 -88.019)
(-4.65577e-14 67.1103 -279.4)
(-2.50216e-14 122.074 -382.638)
(9.45795e-15 443.893 -437.186)
(4.12202e-14 941.934 -332.984)
(7.37035e-14 122.108 -0.447866)
(8.61574e-14 47.4892 45.6334)
(7.2243e-14 -80.471 -15.335)
(3.6332e-14 -18.1738 20.9723)
(2.80355e-14 -10.4274 -2.36121)
(3.41817e-14 -29.5032 11.4252)
(4.53129e-14 -19.622 -17.3769)
(3.09343e-14 17.0911 -39.2338)
(1.0237e-14 42.82 -40.1462)
(1.87969e-15 57.6935 -26.9838)
(-2.18851e-17 64.4235 -4.39788)
(2.81027e-15 15.3065 50.7846)
(-1.14869e-14 -132.32 40.9102)
(-3.11128e-14 -191.632 -115.903)
(-3.60464e-14 -123.239 -221.207)
(-3.08386e-14 19.6383 -333.335)
(-1.42998e-14 133.158 -376.561)
(1.50018e-14 240.287 -427.974)
(4.8311e-14 398.116 -349.745)
(7.90773e-14 60.3758 18.815)
(8.27448e-14 -19.5478 63.9924)
(7.06259e-14 -67.4049 1.3719)
(3.65882e-14 -20.5209 19.4963)
(3.52258e-14 -7.42921 -3.11074)
(3.94881e-14 -23.2545 4.90649)
(4.61817e-14 -10.2507 -28.0471)
(2.80774e-14 20.3995 -43.866)
(6.28483e-15 36.7766 -36.9685)
(-1.61356e-15 38.2377 -21.471)
(-2.72875e-15 21.1237 -5.36116)
(6.21e-15 -49.4752 25.1574)
(2.91604e-15 -97.7289 2.51834)
(-7.54569e-15 -131.063 -105.744)
(-1.70884e-14 -57.4078 -231.164)
(-1.72483e-14 83.4897 -313.187)
(-6.03648e-15 161.715 -327.767)
(2.27518e-14 307.373 -328.312)
(3.40455e-14 530.818 -267.303)
(7.74094e-14 66.0034 35.996)
(7.89189e-14 6.78083 50.8294)
(6.77631e-14 -55.7525 13.9099)
(3.64758e-14 -18.8069 10.7801)
(3.9364e-14 -4.9566 -6.92687)
(4.23446e-14 -17.0123 -3.30372)
(4.47309e-14 -2.39043 -35.7217)
(2.68443e-14 21.4595 -50.4791)
(6.49253e-15 32.2704 -39.1537)
(-9.89625e-16 34.4856 -23.0717)
(-2.71782e-15 24.8182 -11.4539)
(9.04718e-15 -18.811 -9.73609)
(9.85414e-15 -68.2236 -36.2553)
(1.0994e-14 -82.2737 -116.477)
(2.58236e-15 -15.4952 -226.274)
(-2.54911e-15 82.7599 -283.64)
(5.26055e-15 155.907 -288.971)
(2.87714e-14 264.531 -283.37)
(3.6206e-14 414.12 -186.552)
(7.4496e-14 35.6136 47.1289)
(7.33521e-14 -2.32019 51.3143)
(6.3869e-14 -42.5051 21.0741)
(3.49045e-14 -13.879 -7.64581)
(3.50076e-14 -2.72621 -9.85796)
(4.15888e-14 -7.41482 -14.3416)
(3.97877e-14 8.10181 -48.567)
(2.50371e-14 22.1397 -59.3327)
(7.27348e-15 26.4876 -45.9975)
(-3.38505e-16 27.8767 -29.836)
(-3.02034e-15 19.5802 -20.4561)
(1.61926e-14 -10.776 -31.016)
(1.58646e-14 -48.1334 -61.2322)
(1.93113e-14 -50.8417 -133.307)
(1.57619e-14 8.99008 -226.793)
(1.29853e-14 92.0242 -257.682)
(2.16856e-14 158.19 -251.534)
(3.51919e-14 251.31 -232.968)
(3.58125e-14 385.867 -106.249)
(6.78937e-14 22.373 56.6769)
(6.7444e-14 -1.07636 51.7218)
(6.32617e-14 -24.8937 23.0272)
(4.64144e-14 -11.3527 -29.3756)
(3.9672e-14 -3.92197 -37.1486)
(3.44662e-14 0.775145 -47.7598)
(3.09331e-14 12.9115 -64.0789)
(1.83447e-14 19.9496 -61.8316)
(3.85126e-15 20.422 -47.5759)
(-1.19895e-15 22.6753 -32.8361)
(-3.62325e-15 19.3019 -26.4368)
(4.05977e-14 0.441582 -37.5908)
(2.68682e-14 -26.9233 -75.992)
(1.88404e-14 -20.9853 -142.41)
(3.35328e-14 30.2238 -214.417)
(5.27376e-14 93.0751 -232.362)
(4.50402e-14 150.751 -221.989)
(3.92605e-14 223.406 -198.857)
(3.09787e-14 320.7 -107.985)
(5.10025e-14 0.37924 58.8089)
(3.34546e-14 1.55174 50.8535)
(3.07022e-14 1.32827 20.4682)
(2.26286e-14 2.11892 -37.8597)
(1.56942e-14 4.40856 -50.2109)
(1.00705e-14 6.08986 -55.0609)
(1.86371e-14 12.2329 -53.9916)
(1.44273e-15 15.5256 -45.0484)
(-4.08335e-15 14.9916 -37.608)
(-1.98699e-15 18.9354 -31.5085)
(-2.96754e-15 19.5557 -30.3663)
(7.36267e-14 10.1071 -40.2306)
(4.03587e-14 -4.36558 -78.9264)
(-2.62052e-14 6.6525 -135.886)
(2.44452e-13 44.858 -183.499)
(1.13724e-13 93.1628 -199.957)
(5.04473e-14 144.068 -192.092)
(3.68941e-14 207.037 -167.418)
(3.04296e-14 287.956 -98.7898)
(2.50817e-14 -14.6656 55.7407)
(-1.21552e-14 2.85537 50.7746)
(-2.25704e-15 26.8827 21.8668)
(-3.21849e-15 14.4126 -35.5589)
(-4.99306e-15 6.16026 -32.4756)
(-8.70088e-16 3.30985 -22.9292)
(-4.41833e-14 8.75837 -24.6519)
(-1.71932e-14 14.351 -20.2699)
(-4.9562e-15 15.2912 -25.2945)
(-5.02887e-16 19.3889 -29.2416)
(7.04865e-16 21.4509 -32.4075)
(-5.75006e-15 18.3991 -41.1507)
(-9.24879e-16 13.8218 -70.4621)
(3.90705e-15 25.3522 -112.063)
(-1.65829e-15 56.0461 -147.361)
(8.6455e-15 95.4715 -164.455)
(2.43316e-14 138.406 -162.964)
(3.3061e-14 191.464 -140.594)
(3.558e-14 254.892 -95.3015)
(1.70004e-14 -38.1112 49.128)
(-7.94039e-15 2.14548 50.2046)
(2.69632e-16 46.5694 21.763)
(-8.92865e-16 15.9494 -22.7765)
(6.49797e-16 -2.21328 -1.12493)
(2.77081e-16 6.99649 -2.5196)
(5.0253e-15 10.1197 -19.9889)
(3.84276e-15 15.6672 -16.8547)
(1.44634e-15 18.0097 -22.8121)
(1.52951e-16 21.3578 -27.7426)
(-2.71808e-16 23.7443 -32.6652)
(1.68396e-15 24.7139 -40.6614)
(3.32459e-15 26.2547 -61.8277)
(6.7593e-15 38.5902 -91.5507)
(1.14612e-14 65.0549 -118.195)
(1.63581e-14 98.7476 -132.659)
(2.50903e-14 134.631 -135.158)
(2.81616e-14 181.629 -115.748)
(2.68954e-14 231.585 -87.6672)
(1.4339e-14 -49.0832 37.9559)
(-8.22032e-15 7.82573 54.806)
(-1.76358e-15 63.7615 16.2697)
(-2.7619e-15 18.2012 -8.07685)
(4.33392e-16 -4.00092 2.87105)
(-1.12214e-16 13.9694 1.85756)
(-7.30582e-16 12.6082 -16.5694)
(-5.88484e-16 16.0468 -15.1404)
(-2.21234e-16 19.5057 -20.7848)
(-5.50617e-17 23.2651 -25.5125)
(-1.01873e-16 26.3434 -31.6269)
(1.20205e-16 29.8055 -39.361)
(1.95732e-15 35.2165 -54.9355)
(5.86e-15 48.6519 -76.4568)
(1.12142e-14 72.0777 -96.4765)
(1.69014e-14 101.768 -107.114)
(2.32101e-14 131.639 -110.115)
(2.01876e-14 173.859 -93.6387)
(2.42442e-14 213.257 -74.4643)
(1.40824e-14 -82.5733 25.0441)
(-7.74701e-15 -10.4865 56.2326)
(-2.35359e-15 79.2259 6.79745)
(-3.0858e-15 19.703 1.51781)
(1.23452e-16 -6.03256 1.44683)
(1.49643e-17 17.7427 6.60935)
(1.00489e-16 15.1788 -11.5279)
(6.79826e-17 17.7185 -11.4081)
(2.46929e-17 21.6583 -18.2551)
(1.0531e-17 25.4834 -23.1175)
(-8.70308e-17 29.0329 -29.712)
(-9.90471e-17 33.8552 -37.3491)
(1.03304e-15 41.5727 -49.2354)
(3.65664e-15 55.8791 -64.5655)
(7.36906e-15 77.0511 -79.5163)
(1.20696e-14 103.822 -86.704)
(1.60668e-14 128.543 -87.5255)
(9.90631e-15 164.657 -74.1108)
(2.94439e-14 194.334 -32.521)
(1.27977e-14 -70.4922 8.56703)
(-7.89922e-15 26.7032 78.1502)
(-2.96235e-15 94.7196 -4.94835)
(-3.32559e-15 19.0649 9.49426)
(1.26668e-16 -7.69999 -0.653952)
(1.2514e-17 21.0518 9.14591)
(-6.53005e-18 18.2753 -7.3993)
(-4.90059e-18 19.6172 -8.896)
(-1.39618e-18 23.8349 -15.8572)
(8.48349e-18 27.7732 -20.5543)
(-1.79833e-17 31.8552 -27.0364)
(-1.87474e-16 37.475 -34.5096)
(1.74013e-16 46.3486 -44.2729)
(1.36737e-15 61.2105 -55.0352)
(2.92011e-15 80.6953 -65.3481)
(4.90771e-15 105.18 -70.3611)
(7.12723e-15 125.752 -67.201)
(1.14403e-15 155.011 -60.8582)
(3.73181e-14 173.332 -17.9367)
(1.33434e-14 -149.38 -8.94487)
(-6.56468e-15 -53.8416 57.3477)
(-3.55342e-15 112.208 -18.5556)
(-3.44665e-15 16.0246 12.9051)
(3.21201e-17 -8.94564 -2.55603)
(1.31785e-17 22.6359 10.5405)
(4.14706e-18 21.733 -4.0764)
(1.75423e-19 22.3469 -6.88493)
(-2.55243e-19 26.5066 -13.4968)
(1.73995e-18 30.5466 -17.9353)
(1.18122e-17 35.2112 -23.8722)
(-5.74739e-17 41.4904 -30.7907)
(-1.21362e-16 50.8515 -39.3076)
(5.26558e-17 65.749 -47.1377)
(2.16561e-16 84.0801 -53.0565)
(2.61283e-16 106.422 -57.3452)
(1.34602e-15 124.636 -47.9344)
(-2.65354e-15 149.476 -51.7003)
(4.20247e-14 162.409 -6.30925)
(9.61742e-15 -36.7084 -38.266)
(-8.78473e-15 70.7655 130.867)
(-4.0609e-15 128.541 -32.9699)
(-3.52595e-15 16.5946 11.6171)
(-4.16053e-16 -11.3194 -1.94851)
(-5.76784e-18 22.7372 10.2516)
(2.26102e-18 23.4711 -1.69768)
(-7.0757e-20 23.6627 -5.32458)
(-3.25939e-19 27.5549 -11.1849)
(-1.28222e-18 31.5891 -15.2184)
(7.44884e-18 36.6043 -20.3747)
(2.13165e-17 43.2794 -26.2828)
(-8.3641e-17 52.5619 -33.611)
(-2.62289e-16 66.5528 -39.8404)
(-3.94393e-16 83.6202 -42.3311)
(-6.45303e-16 103.045 -46.6337)
(-3.89771e-16 120.274 -31.8613)
(-1.53348e-15 139.921 -45.1175)
(3.94602e-14 149.532 14.0702)
(1.3201e-14 -337.96 -11.3529)
(8.18383e-15 -74.0688 -9.38091)
(-4.66733e-15 132.589 -46.2077)
(-3.01603e-15 29.3718 12.7814)
(-2.10934e-16 -16.2755 24.4187)
(-3.93658e-17 26.0121 7.25255)
(1.54347e-18 23.683 -0.701058)
(2.26978e-19 23.489 -4.27059)
(2.70534e-20 26.7865 -9.22056)
(-4.30964e-19 30.454 -12.7093)
(-1.25273e-18 35.3242 -17.0734)
(1.52593e-17 41.8863 -21.8553)
(-1.48869e-18 50.6291 -27.8134)
(-9.60333e-17 63.0772 -33.1758)
(-1.38557e-16 78.7461 -34.0038)
(-1.86613e-16 94.927 -37.9459)
(-3.01127e-16 112.17 -21.9907)
(5.95352e-16 124.728 -37.4136)
(2.87549e-14 135.134 29.3773)
(-1.09426e-14 288 -216.864)
(2.03265e-15 -27.9891 285.706)
(-5.0328e-15 171.459 -55.4122)
(7.14029e-16 -39.386 139.701)
(-3.20285e-16 -7.49193 -20.3612)
(-6.31525e-17 32.6896 2.92406)
(6.86112e-20 33.77 -2.15316)
(1.35293e-19 33.7619 -3.72342)
(2.83721e-20 37.5016 -7.61971)
(1.59957e-19 42.0632 -10.3989)
(-1.13746e-18 48.4637 -13.9382)
(-2.17003e-18 57.0999 -17.705)
(1.20602e-17 68.1907 -22.2449)
(2.29782e-17 82.5896 -26.7683)
(2.41763e-17 100.855 -27.2942)
(4.28202e-17 117.964 -30.0373)
(-1.57934e-17 139.573 -16.8688)
(6.57914e-16 144.369 -28.509)
(1.10059e-14 163.702 32.0663)
(8.83975e-14 -992.048 575.333)
(2.40355e-15 92.8588 -252.156)
(-4.08551e-15 185.989 -51.6413)
(9.7583e-16 44.5048 168.388)
(-1.04354e-16 58.27 -22.9508)
(-2.21439e-17 35.123 2.02237)
(-1.07739e-19 37.2756 -1.06371)
(1.40173e-20 38.4652 -1.89693)
(-4.08985e-21 43.0448 -3.50512)
(1.52844e-20 48.6532 -4.68787)
(1.9249e-19 56.3048 -6.25968)
(-9.86012e-19 66.3756 -7.95331)
(-1.37732e-19 79.1501 -9.88868)
(7.22923e-18 94.9587 -11.9348)
(9.10457e-18 113.989 -12.2261)
(1.17863e-17 131.659 -13.0458)
(2.40134e-17 152.697 -7.57075)
(-1.0683e-16 156.284 -12.6201)
(1.98139e-15 181.989 12.4503)
(1.71386e-14 0.851508 -34.4413)
(-3.66739e-14 -11.453 -41.5136)
(6.02012e-15 -7.77748 -37.0988)
(7.93535e-14 0.795291 -28.9211)
(1.28473e-13 7.58672 -20.0297)
(1.42085e-13 12.7605 -13.9596)
(1.50016e-13 17.912 -3.54623)
(1.55217e-13 21.9336 2.61956)
(1.52422e-13 24.4105 7.48017)
(1.51339e-13 26.6178 12.4145)
(1.52621e-13 28.87 17.277)
(1.58852e-13 30.9735 22.145)
(1.67215e-13 32.9289 27.0963)
(1.78731e-13 34.7352 32.2594)
(1.90711e-13 36.5513 37.7458)
(2.1749e-13 38.1012 44.0453)
(2.59365e-13 40.4637 50.8088)
(3.042e-13 40.8752 60.0834)
(3.5858e-13 48.2616 68.2301)
(5.40942e-13 35.2863 87.6543)
(4.34517e-13 4.96947 25.5916)
(2.50689e-12 0.402281 -1.8929)
(1.87557e-12 4.35891 2.42876)
(1.43567e-12 10.1287 7.83779)
(1.16527e-12 13.3411 9.38662)
(1.0102e-12 14.9833 9.069)
(9.21573e-13 16.2321 8.86631)
(8.07086e-13 17.2934 9.20282)
(7.04044e-13 18.2052 9.77453)
(6.67528e-13 18.9844 10.5089)
(6.46153e-13 19.6368 11.4473)
(6.3624e-13 20.1735 12.5977)
(6.36468e-13 20.6044 13.961)
(6.54744e-13 20.9153 15.5546)
(6.44747e-13 21.1276 17.3654)
(6.5665e-13 21.1407 19.4775)
(7.34522e-13 21.1503 21.7418)
(7.49937e-13 20.4905 24.6939)
(8.1466e-13 21.3377 27.8255)
(1.01249e-12 15.7332 31.9968)
(3.2525e-14 0.608323 -1.51604)
(1.96405e-12 7.21878 12.4672)
(1.35161e-12 9.39793 14.0462)
(1.25202e-12 9.41334 13.004)
(1.13674e-12 9.4269 12.5238)
(1.33783e-12 9.83298 12.6964)
(7.91638e-13 10.3903 13.1285)
(5.08372e-13 10.9828 13.6442)
(4.47309e-13 11.5676 14.2261)
(4.59877e-13 12.1376 14.8749)
(4.37931e-13 12.6839 15.5858)
(4.48454e-13 13.1932 16.3588)
(4.2175e-13 13.6603 17.1924)
(4.19054e-13 14.0669 18.0962)
(4.37617e-13 14.4289 19.0632)
(4.76745e-13 14.6789 20.1408)
(4.9982e-13 14.9644 21.221)
(4.97922e-13 14.8749 22.7253)
(4.9505e-13 16.0367 24.3151)
(7.44857e-13 11.8397 24.6505)
(1.02963e-14 4.67127 6.97555)
(-1.28582e-13 9.52407 14.9876)
(-1.24086e-13 9.88475 15.3298)
(-1.06186e-13 9.57458 14.5847)
(-1.67477e-13 9.59844 14.3442)
(1.49112e-12 9.76171 14.2904)
(1.35549e-12 9.91241 14.2682)
(1.13216e-12 10.0621 14.2676)
(9.86112e-13 10.2038 14.3095)
(1.15979e-12 10.3431 14.3938)
(1.07866e-12 10.4718 14.5236)
(1.11844e-12 10.5878 14.6994)
(1.04873e-12 10.6892 14.9196)
(1.07603e-12 10.7654 15.1882)
(1.10787e-12 10.8247 15.4964)
(1.2044e-12 10.8346 15.8592)
(1.16911e-12 10.8373 16.2218)
(1.19926e-12 10.8023 16.8712)
(1.14282e-12 11.3599 18.0031)
(1.47685e-12 7.9437 14.6825)
(-1.04328e-15 5.6139 9.41368)
(1.38229e-14 9.48838 16.0336)
(1.3842e-14 9.21724 15.5474)
(1.14453e-14 8.99105 15.1068)
(1.86694e-14 9.01161 15.1224)
(-1.58445e-13 9.08371 15.1562)
(-1.44113e-13 9.1352 15.1969)
(-1.18327e-13 9.20506 15.2361)
(-1.19666e-13 9.26774 15.2886)
(-1.24972e-13 9.3385 15.3462)
(-1.15952e-13 9.40412 15.4152)
(-1.22321e-13 9.46854 15.4935)
(-1.12043e-13 9.52867 15.581)
(-1.13764e-13 9.5773 15.6818)
(-1.1892e-13 9.62496 15.7875)
(-1.26532e-13 9.64269 15.911)
(-1.29135e-13 9.67241 16.0173)
(-1.21213e-13 9.75169 16.3919)
(-1.18116e-13 10.2755 17.2147)
(-1.80879e-13 6.9341 12.5564)
(9.30349e-17 5.95971 10.1857)
(-1.67223e-15 9.50526 16.2125)
(-1.61427e-15 9.11581 15.5842)
(-1.3486e-15 8.94218 15.2102)
(-2.1216e-15 8.93895 15.21)
(1.72463e-14 8.97175 15.2118)
(1.58251e-14 8.98041 15.2207)
(1.39725e-14 9.00377 15.2252)
(1.43475e-14 9.0166 15.2394)
(1.44417e-14 9.0368 15.2542)
(1.41182e-14 9.05137 15.2761)
(1.414e-14 9.06767 15.3019)
(1.34481e-14 9.08213 15.3324)
(1.30276e-14 9.09173 15.37)
(1.38647e-14 9.10536 15.4081)
(1.42937e-14 9.1012 15.4566)
(1.50279e-14 9.11244 15.4909)
(1.31661e-14 9.2146 15.7833)
(1.41706e-14 9.69112 16.571)
(2.20284e-14 6.47246 11.4101)
(-8.02279e-18 6.22563 10.7485)
(2.09307e-16 9.50067 16.298)
(1.95864e-16 9.03714 15.5811)
(1.66915e-16 8.8937 15.2862)
(2.4535e-16 8.88357 15.3024)
(-2.08558e-15 8.90244 15.3058)
(-1.78063e-15 8.89895 15.3163)
(-1.71798e-15 8.91068 15.3197)
(-1.80276e-15 8.9119 15.3299)
(-1.77353e-15 8.92114 15.3372)
(-1.74415e-15 8.92486 15.3485)
(-1.6752e-15 8.93173 15.3595)
(-1.63682e-15 8.93696 15.3722)
(-1.59543e-15 8.94006 15.3878)
(-1.73571e-15 8.94745 15.4011)
(-1.79366e-15 8.94172 15.4204)
(-1.79707e-15 8.95112 15.4254)
(-1.63753e-15 9.05657 15.6733)
(-1.85234e-15 9.52989 16.4452)
(-2.53433e-15 6.44848 11.3206)
(7.32381e-19 6.41694 11.0819)
(-2.57365e-17 9.46956 16.2657)
(-2.34675e-17 8.98593 15.5108)
(-2.08102e-17 8.86443 15.2572)
(-2.83048e-17 8.85335 15.2745)
(2.59315e-16 8.86726 15.2764)
(2.08563e-16 8.86038 15.2853)
(2.15824e-16 8.86727 15.2872)
(2.27474e-16 8.86422 15.295)
(2.22774e-16 8.86854 15.2994)
(2.15668e-16 8.86755 15.3072)
(2.02826e-16 8.87006 15.3138)
(2.04475e-16 8.87067 15.3218)
(2.03053e-16 8.87075 15.3311)
(2.21486e-16 8.87407 15.3386)
(2.27619e-16 8.86782 15.35)
(2.1883e-16 8.8737 15.3481)
(2.05248e-16 8.97365 15.5699)
(2.35766e-16 9.4423 16.3457)
(2.84221e-16 6.54359 11.4549)
(-7.36064e-20 6.60978 11.4177)
(3.06363e-18 9.44161 16.2285)
(2.7132e-18 8.94533 15.451)
(2.52293e-18 8.8437 15.2366)
(3.17095e-18 8.83301 15.2548)
(-3.22136e-17 8.84419 15.2563)
(-2.49597e-17 8.8365 15.2645)
(-2.65817e-17 8.84143 15.2662)
(-2.77625e-17 8.83729 15.273)
(-2.7079e-17 8.83994 15.2765)
(-2.61249e-17 8.83764 15.2829)
(-2.44462e-17 8.83897 15.2877)
(-2.53582e-17 8.83803 15.2939)
(-2.53433e-17 8.83774 15.3005)
(-2.6985e-17 8.83922 15.3059)
(-2.77009e-17 8.83402 15.3138)
(-2.6277e-17 8.83781 15.3096)
(-2.49016e-17 8.92519 15.5003)
(-2.86185e-17 9.39265 16.2803)
(-3.19947e-17 6.69596 11.7112)
(8.23222e-21 6.79499 11.7325)
(-3.58003e-19 9.40489 16.1721)
(-3.06833e-19 8.90746 15.3874)
(-2.96151e-19 8.82388 15.2075)
(-3.49578e-19 8.81433 15.2255)
(3.91827e-18 8.82395 15.2267)
(2.97352e-18 8.81663 15.2344)
(3.12316e-18 8.82064 15.2362)
(3.23247e-18 8.81653 15.2425)
(3.14302e-18 8.81849 15.2458)
(3.05249e-18 8.81592 15.2517)
(2.88639e-18 8.81692 15.2559)
(3.00917e-18 8.81533 15.2617)
(3.03285e-18 8.81532 15.2671)
(3.1066e-18 8.81564 15.2723)
(3.19726e-18 8.8119 15.2789)
(3.07184e-18 8.81379 15.2749)
(2.92734e-18 8.88707 15.4345)
(3.32019e-18 9.34896 16.2111)
(3.58304e-18 6.86617 12.0001)
(-9.94778e-22 6.97854 12.0439)
(4.24462e-20 9.36315 16.1059)
(3.55058e-20 8.8726 15.3277)
(3.48852e-20 8.80545 15.1793)
(3.97041e-20 8.79689 15.1965)
(-4.69073e-19 8.80523 15.1976)
(-3.51883e-19 8.79849 15.2048)
(-3.55322e-19 8.80184 15.2068)
(-3.68091e-19 8.79807 15.2127)
(-3.58061e-19 8.7996 15.2159)
(-3.50811e-19 8.79711 15.2215)
(-3.37953e-19 8.79801 15.2254)
(-3.47016e-19 8.79614 15.2311)
(-3.53254e-19 8.7966 15.2358)
(-3.4881e-19 8.79602 15.2413)
(-3.58422e-19 8.79384 15.2471)
(-3.53597e-19 8.79414 15.2441)
(-3.38803e-19 8.85437 15.3747)
(-3.77923e-19 9.30385 16.1356)
(-3.97721e-19 7.0408 12.2981)
(1.10904e-22 7.16078 12.3529)
(-5.16197e-21 9.31601 16.0299)
(-4.30519e-21 8.84043 15.272)
(-4.26903e-21 8.7881 15.1523)
(-4.78123e-21 8.78037 15.1683)
(5.65716e-20 8.78761 15.1693)
(4.23237e-20 8.78156 15.176)
(4.08045e-20 8.78435 15.1781)
(4.30529e-20 8.78102 15.1836)
(4.17662e-20 8.7822 15.1869)
(4.1362e-20 8.77995 15.1922)
(4.03254e-20 8.78078 15.196)
(4.06816e-20 8.77879 15.2016)
(4.15936e-20 8.7797 15.2058)
(4.01624e-20 8.77835 15.2116)
(4.10157e-20 8.77767 15.2167)
(4.1248e-20 8.77655 15.2153)
(3.95104e-20 8.82506 15.3194)
(4.37444e-20 9.25468 16.0518)
(4.47842e-20 7.21645 12.5982)
(-3.63063e-24 7.34184 12.6596)
(5.69046e-22 9.2634 15.9443)
(4.8416e-22 8.81073 15.2204)
(5.01328e-22 8.77156 15.1263)
(5.55058e-22 8.76451 15.1409)
(-6.86817e-21 8.77077 15.1419)
(-5.16355e-21 8.76542 15.148)
(-4.79037e-21 8.7677 15.1503)
(-5.21524e-21 8.76487 15.1555)
(-4.97382e-21 8.7657 15.1588)
(-5.02236e-21 8.76377 15.1638)
(-4.83694e-21 8.7645 15.1675)
(-4.8687e-21 8.7625 15.173)
(-4.95094e-21 8.76377 15.1769)
(-4.75997e-21 8.76178 15.183)
(-4.82421e-21 8.76249 15.1874)
(-4.82735e-21 8.76006 15.1878)
(-4.56628e-21 8.79848 15.2682)
(-5.04463e-21 9.2006 15.9592)
(-5.08068e-21 7.39147 12.8972)
(-4.16394e-24 7.52207 12.9651)
(-2.15018e-23 9.20556 15.8495)
(-2.08211e-23 8.7837 15.1734)
(-3.2289e-23 8.75598 15.1019)
(-3.574e-23 8.74942 15.1149)
(7.31683e-22 8.75479 15.116)
(5.49779e-22 8.7501 15.1216)
(4.91729e-22 8.75188 15.1241)
(5.5576e-22 8.74955 15.1289)
(5.06532e-22 8.75002 15.1323)
(5.33198e-22 8.74845 15.137)
(4.81592e-22 8.749 15.1406)
(4.95093e-22 8.74712 15.1461)
(4.95644e-22 8.74862 15.1496)
(4.81594e-22 8.74613 15.156)
(4.81539e-22 8.74808 15.1597)
(4.63881e-22 8.74448 15.162)
(4.2173e-22 8.77453 15.2216)
(4.3889e-22 9.1415 15.8581)
(4.77717e-22 7.56596 13.1953)
(2.10222e-24 7.7015 13.2692)
(-1.78668e-23 9.1424 15.7456)
(-1.44678e-23 8.75927 15.1311)
(-1.0271e-23 8.74131 15.0789)
(-1.06945e-23 8.7351 15.0903)
(-1.85736e-23 8.73969 15.0914)
(-1.07254e-23 8.73566 15.0966)
(-4.85632e-24 8.73693 15.0992)
(-9.6029e-24 8.73511 15.1035)
(-1.78515e-24 8.73522 15.107)
(-8.29362e-24 8.73402 15.1114)
(4.88467e-24 8.73434 15.1151)
(1.72524e-24 8.73269 15.1203)
(3.22659e-24 8.73424 15.1237)
(2.14195e-24 8.73146 15.1301)
(4.56325e-24 8.73442 15.1332)
(9.58227e-24 8.72976 15.1374)
(1.53169e-23 8.75316 15.1791)
(3.56273e-23 9.07728 15.7482)
(8.41219e-24 7.73967 13.4918)
(-7.20289e-25 7.88066 13.573)
(8.78844e-24 9.07413 15.6325)
(7.33614e-24 8.73763 15.0937)
(6.14749e-24 8.72781 15.0577)
(6.40747e-24 8.72182 15.0675)
(-2.63169e-23 8.72566 15.0687)
(-2.17749e-23 8.72231 15.0733)
(-2.14153e-23 8.72303 15.0761)
(-2.25708e-23 8.72168 15.08)
(-2.32152e-23 8.72145 15.0835)
(-2.2176e-23 8.72057 15.0875)
(-2.51496e-23 8.72061 15.0912)
(-2.48133e-23 8.71928 15.0961)
(-2.50608e-23 8.72062 15.0994)
(-2.43807e-23 8.71782 15.1058)
(-2.53986e-23 8.72145 15.1083)
(-2.60336e-23 8.71589 15.1142)
(-2.64103e-23 8.73431 15.1411)
(-3.7046e-23 9.00802 15.63)
(-2.50749e-23 7.91266 13.7865)
(2.07548e-25 8.05994 13.8769)
(-2.87177e-24 9.00061 15.5099)
(-2.42788e-24 8.71879 15.0615)
(-2.13852e-24 8.71563 15.0384)
(-2.22838e-24 8.70989 15.0465)
(1.21641e-23 8.71291 15.0479)
(9.9718e-24 8.71039 15.052)
(9.49817e-24 8.71057 15.0548)
(1.01528e-23 8.70963 15.0584)
(1.0069e-23 8.70918 15.0618)
(1.00049e-23 8.70853 15.0655)
(1.06052e-23 8.70831 15.0692)
(1.06546e-23 8.70736 15.0736)
(1.06252e-23 8.70823 15.0771)
(1.04643e-23 8.7058 15.0831)
(1.07879e-23 8.70951 15.0854)
(1.07207e-23 8.70335 15.0927)
(1.05972e-23 8.71831 15.1077)
(1.42938e-23 8.93419 15.5042)
(1.01376e-23 8.08508 14.0795)
(-5.35581e-26 8.24001 14.1815)
(7.86727e-25 8.92138 15.376)
(6.71721e-25 8.70231 15.0336)
(6.07785e-25 8.70434 15.02)
(6.36925e-25 8.69925 15.0264)
(-3.86927e-24 8.70112 15.0281)
(-3.19675e-24 8.69954 15.0314)
(-3.00154e-24 8.69924 15.0342)
(-3.19832e-24 8.69858 15.0373)
(-3.15368e-24 8.69802 15.0406)
(-3.18501e-24 8.6975 15.044)
(-3.28789e-24 8.69711 15.0476)
(-3.32423e-24 8.69652 15.0516)
(-3.29713e-24 8.69683 15.0553)
(-3.26895e-24 8.69523 15.0607)
(-3.36009e-24 8.69822 15.0633)
(-3.29535e-24 8.69228 15.0715)
(-3.22249e-24 8.70509 15.0777)
(-4.28797e-24 8.85616 15.3712)
(-3.04919e-24 8.25637 14.3689)
(1.28738e-26 8.42333 14.4931)
(-1.94895e-25 8.83848 15.2317)
(-1.68065e-25 8.69102 15.0126)
(-1.54768e-25 8.69558 15.0057)
(-1.63948e-25 8.69221 15.0095)
(1.0513e-24 8.69253 15.011)
(8.80849e-25 8.69158 15.0132)
(8.17681e-25 8.6908 15.0154)
(8.6411e-25 8.68999 15.0177)
(8.56076e-25 8.68911 15.0202)
(8.74138e-25 8.68825 15.023)
(8.85607e-25 8.68739 15.026)
(8.97254e-25 8.68656 15.0293)
(8.895e-25 8.68595 15.0328)
(8.84245e-25 8.68485 15.0371)
(9.07674e-25 8.68583 15.0403)
(8.84524e-25 8.68154 15.0475)
(8.59216e-25 8.69151 15.049)
(1.13326e-24 8.77284 15.2325)
(7.99283e-25 8.42395 14.6464)
(-2.44958e-27 8.6106 14.824)
(3.71476e-26 8.7528 15.0802)
(3.2449e-26 8.69289 15.0033)
(3.01817e-26 8.69509 15.0015)
(3.26094e-26 8.69452 15.0021)
(-2.11839e-25 8.69418 15.0027)
(-1.81541e-25 8.69378 15.0032)
(-1.66732e-25 8.69318 15.0039)
(-1.74461e-25 8.69246 15.0047)
(-1.74452e-25 8.69158 15.0057)
(-1.79641e-25 8.69053 15.0068)
(-1.79007e-25 8.6893 15.0081)
(-1.81137e-25 8.68788 15.0096)
(-1.8051e-25 8.6862 15.0113)
(-1.79588e-25 8.68433 15.0134)
(-1.84139e-25 8.68224 15.0157)
(-1.79272e-25 8.67906 15.019)
(-1.73172e-25 8.67951 15.0201)
(-2.26979e-25 8.69421 15.0842)
(-1.58258e-25 8.59361 14.8936)
(1.21311e-26 -2.62984 17.0772)
(4.97582e-26 -8.04772 13.7329)
(-7.34829e-26 -5.17673 14.5879)
(-7.21397e-25 -4.97014 14.2089)
(-1.84473e-24 -4.03828 14.1792)
(-2.4912e-24 -3.45945 14.0167)
(-1.60151e-24 -2.8696 13.8701)
(4.32118e-26 -2.3829 13.6909)
(-7.55645e-25 -1.9576 13.494)
(-5.4989e-24 -1.60586 13.2752)
(-4.05639e-24 -1.32452 13.0384)
(3.71553e-23 -1.11919 12.7912)
(1.75874e-22 -0.997735 12.5511)
(4.61436e-22 -0.982629 12.3325)
(8.62478e-22 -1.1005 12.1225)
(1.21484e-21 -1.31569 11.8797)
(1.30148e-21 -1.65338 11.4559)
(1.05207e-21 -2.40701 10.4761)
(6.27261e-22 -2.71013 8.96321)
(2.30485e-22 0.105286 6.78989)
(8.38922e-27 -11.2916 28.6883)
(-3.41495e-26 -17.1084 25.2189)
(-2.36081e-25 -12.107 25.6028)
(7.06391e-25 -12.7282 23.9139)
(6.38453e-24 -10.9937 23.1799)
(1.90976e-23 -10.3161 22.1081)
(3.38249e-23 -9.31723 21.2046)
(4.0153e-23 -8.5319 20.2645)
(3.57456e-23 -7.75096 19.3585)
(4.16827e-23 -7.04967 18.4558)
(9.22017e-23 -6.39583 17.563)
(1.67133e-22 -5.78808 16.6574)
(5.68642e-23 -5.18142 15.6683)
(-7.56729e-22 -4.48172 14.4107)
(-2.98351e-21 -3.53002 12.5591)
(-7.00859e-21 -2.1729 9.76008)
(-1.22336e-20 -0.458682 5.91835)
(-1.68045e-20 1.29349 1.5169)
(-1.80487e-20 2.57647 -2.19368)
(-1.51821e-20 1.97915 -3.39608)
(-3.15846e-26 -14.2634 30.8455)
(-4.7823e-25 -18.3515 27.8068)
(-9.3084e-25 -13.5658 27.7364)
(2.86843e-24 -14.6329 25.2965)
(1.99746e-23 -12.5341 24.3517)
(5.43414e-23 -12.1607 22.7104)
(9.15981e-23 -11.0877 21.4775)
(1.05142e-22 -10.4312 20.1255)
(8.28915e-23 -9.68211 18.8836)
(5.90781e-23 -9.05266 17.6365)
(9.84791e-23 -8.43956 16.4222)
(1.97955e-22 -7.87135 15.2002)
(1.08012e-22 -7.28414 13.9031)
(-8.23456e-22 -6.55872 12.3169)
(-3.50401e-21 -5.43421 10.0691)
(-8.36743e-21 -3.66737 6.66635)
(-1.43983e-20 -0.928691 2.0953)
(-1.14922e-20 1.85741 -4.05591)
(2.97043e-21 3.4737 -4.97571)
(-2.30952e-20 2.81266 -6.87915)
(3.81341e-26 -15.0771 30.637)
(1.65777e-25 -18.6934 28.1736)
(-7.28912e-25 -14.224 27.7343)
(2.44625e-24 -15.6707 24.871)
(2.0202e-23 -13.3007 23.9714)
(6.03932e-23 -13.2852 21.9839)
(1.1483e-22 -12.1217 20.6623)
(1.60899e-22 -11.571 19.1043)
(1.83081e-22 -10.833 17.7071)
(1.84885e-22 -10.2213 16.3049)
(1.67846e-22 -9.61655 14.9528)