/*--------------------------------*- C++ -*----------------------------------*\
| =========                 |                                                 |
| \\      /  F ield         | OpenFOAM: The Open Source CFD Toolbox           |
|  \\    /   O peration     | Version:  4.1                                   |
|   \\  /    A nd           | Web:      www.OpenFOAM.org                      |
|    \\/     M anipulation  |                                                 |
\*---------------------------------------------------------------------------*/
FoamFile
{
    version     2.0;
    format      ascii;
    class       volScalarField;
    location    "18";
    object      p;
}
// * * * * * * * * * * * * * * * * * * * * * * * * * * * * * * * * * * * * * //

dimensions      [0 2 -2 0 0 0 0];

internalField   nonuniform List<scalar> 
1280
(
-84.9137
-24.8059
-65.8748
-154.583
-41.1768
-129.325
-214.913
-218.554
-161.463
-232.996
-398.803
-269.628
-405.527
-670.84
-498.463
-758.202
-1199.07
-1039.73
-1217.02
-2448.57
-1555.98
174.61
1883.46
2751.36
2835.21
3519.77
38.9811
721.531
1008.7
631.225
427.755
214.856
-45.2971
-329.504
-628.843
-954.641
-1274.66
-1650.33
-1956.26
-2565.52
-3013.5
-1979.09
-1498.57
-1187.79
527.029
-109.608
-12.4771
8.82336
11.1603
32.7248
7.3557
-31.2706
8.0202
-43.6459
-169.882
317.517
-733.862
-852.714
-1369.92
-3814.5
-129.914
411.679
492.249
646.99
711.171
800.172
864.246
926.167
968.743
985.291
992.532
1112.94
957.499
-1729.36
2178.07
1630.15
1705.88
1309.65
389.176
-1116.8
-2221.22
-847.33
-831.304
-564.938
-310.528
-6.37504
69.303
165.145
285.695
308.37
312.428
320.613
323.111
283.879
275.423
242.687
170.137
77.4997
12.7537
86.6708
-7.84347
144.888
353.262
21.2514
56.8874
-2.20896
-185.303
-402.019
-434.531
-174.351
-86.1122
81.6267
244.778
237.357
119.707
32.1657
-2.19932
9.87904
41.1303
22.7222
318.552
877.798
255.544
281.978
-68.3816
-462.609
-512.643
-623.108
-161.428
15.3215
353.855
689.067
627.62
322.18
78.7702
-16.2224
43.4439
93.9244
47.3895
377.443
1057.39
432.612
368.75
-19.9879
-502.912
-455.607
-755.181
-149.616
27.8784
459.699
938.165
875.751
456.616
76.9583
-64.0312
50.5458
143.653
66.1677
429.928
1151.37
624.078
453.387
8.37012
-461.476
-541.516
-973.466
-226.154
38.6521
604.02
1196.49
1141.3
588.075
44.8378
-134.531
90.0548
178.709
80.9328
453.42
1099.52
648.847
431.409
9.51211
-357.684
-732.151
-1046.97
-202.479
45.2197
672.429
1433.01
1327.26
684.45
-69.7712
-310.362
46.6245
182.584
86.8338
437.491
945.921
550.369
346.279
-32.7531
-280.378
-866.891
-1011.21
-413.681
-125.582
890.937
1622.64
1424.29
761.837
-162.665
-373.175
160.396
62.141
81.8803
380.875
719.657
308.083
206.277
-71.4731
-184.554
-825.473
-895.98
-655.501
-194.202
1118.62
1723.47
1505.85
870.597
-128.56
-515.155
48.6654
-60.5719
68.1524
302.507
491.772
31.5479
77.0357
-29.3833
-52.2518
-656.935
-735.368
-599.145
-152.87
1033.78
1620.14
1548.86
1027.87
256.599
-102.172
235.604
755.222
49.8941
223.534
313.659
-170.952
-11.8204
80.2156
105.253
-430.129
-630.467
-587.48
-185.291
901.455
1367.46
1344.93
980.591
466.266
365.443
1235.03
4365.89
30.1417
152.646
184.297
-304.224
-72.1809
226.511
288.316
-128.079
-440.876
-490.887
-211.954
665.321
973.318
973.417
849.923
614.768
556.952
1149.41
3166.18
11.1755
91.9759
86.9729
-417.463
-123.378
409.457
495.841
183.858
-203.845
-318.028
-195.607
368.368
496.207
521.591
679.203
686.482
549.68
1115.03
3367.42
-6.52975
38.9358
14.0013
-510.631
-168.276
625.508
706.505
429.453
21.3489
-119.256
-148.18
107.117
69.4429
137.085
693.939
883.431
535.121
1030.61
4260.66
-20.0138
-3.21712
-34.3613
-570.656
-212.95
839.453
873.179
553.927
171.819
19.9997
-123.715
-41.1105
-21.6817
30.9438
746.714
884.308
266.87
124.446
522.319
-32.1974
-43.5737
-72.7352
-592.54
-254.947
993.577
982.432
579.144
249.369
71.1639
-168.237
-193.177
-52.7367
72.0724
640.451
664.783
11.0955
-342.201
-164.011
-35.3015
-64.2412
-82.1314
-555.313
-288.731
1058.08
1021.8
551.498
259.4
55.1725
-194.46
-235.455
-89.1905
97.0771
508.955
566.864
118.41
-112.872
27.6119
-44.1244
-99.3834
-106.881
-476.814
-308.42
1045.78
951.183
487.907
225.184
-3.27913
-197.023
-159.643
-67.1184
148.185
379.907
411.156
56.6861
-106.786
-10.9451
-27.0956
-73.8309
-53.844
-311.337
-298.476
987.854
798.929
400.431
163.606
-86.013
-200.465
-164.74
-29.9115
120.833
279.116
285.073
58.5544
-39.7622
17.539
-48.1116
-135.184
-112.055
-179.214
-250.076
917.183
598.772
300.002
102.264
-131.609
-121.81
-194.757
-19.5176
90.1366
198.484
192.492
46.3475
-19.8377
-4.42444
15.2331
16.1329
93.2143
74.1976
-218.158
823.799
384.146
190.234
35.2548
-152.031
-99.6497
-171.981
-19.7483
62.5313
138.17
133.981
36.0809
9.23591
0.139112
-83.7047
-215.995
-234.66
-48.482
-288.043
402.782
126.507
71.1469
16.284
-81.8471
-75.9125
-139.22
-53.1451
2.79118
59.4131
59.7553
19.1562
7.02505
8.1722
-154.069
215.739
424.433
584.185
642.292
661.243
596.821
540.423
517.697
528.499
565.733
635.891
734.016
859.099
1004.5
1176.37
1356.65
1582.24
1764.4
2049.85
-7059.74
-7192.37
-7321.34
-7527.35
-7666.39
-7849.28
-7990.46
-8116.28
-8188.56
-8209.58
-8165
-8050.1
-7865.06
-7610.66
-7307.07
-6960.52
-6618.58
-6236.22
-5934.72
-5436.99
-2082.31
-2718.47
-3014.66
-3521.95
-3951.28
-4455.7
-4940.58
-5444.47
-5926.11
-6390.16
-6816.35
-7193.46
-7504.14
-7731.82
-7861.41
-7900.16
-7861.03
-7768.33
-7772.14
-7694.15
2531.29
2074.71
1887.46
1569.18
1306.34
994.876
702.615
406.499
131.887
-124.136
-348.247
-536.665
-681.233
-779.844
-828.202
-836.775
-814.293
-697.338
-644.079
-1052.05
6382.16
6370.97
6348.78
6348.15
6309.41
6244.56
6129.19
5962.76
5730.07
5418.26
5016.16
4519.28
3943.13
3330.54
2762.22
2327.34
2061.36
1937.83
1973.17
1726.51
3743.81
3915.7
3996.61
4141.18
4257.61
4397.36
4536.36
4676.72
4810.66
4924.49
5004.08
5025.26
4969.72
4824.54
4611.26
4375.51
4224.43
4156.47
4178.82
4111.06
3232.09
3370.15
3409.18
3494.13
3547.13
3606.62
3666.47
3716.42
3770.17
3818.47
3872.26
3932.04
4002.31
4082.16
4169.01
4259.05
4344.82
4434.34
4488.89
4563.75
1315.33
1502.96
1578.4
1683.31
1777.99
1865.31
1970.66
2055.86
2153.67
2242.14
2332.34
2420.78
2508.53
2599.23
2690.53
2791.52
2888.21
3004.74
3084.09
3210.2
-91.656
106.1
215.724
297.858
426.12
511.65
651.309
746.544
869.863
977.572
1090.92
1202.41
1313.18
1426.9
1538.18
1657.86
1766.98
1894.36
1981.61
2114.45
-2596.24
-2471.72
-2327.6
-2289.36
-2116.82
-2063.9
-1893.54
-1804.05
-1656.61
-1537.85
-1401.55
-1268.55
-1131.75
-989.44
-846.784
-686.209
-531.952
-328.078
-158.645
124.226
-4143.76
-4374.41
-4348.67
-4537.43
-4540.99
-4726.72
-4766.2
-4919.07
-4986.26
-5092.21
-5135.05
-5151.69
-5111.66
-5031.47
-4918.16
-4771.08
-4620.61
-4431.75
-4293.33
-3979.27
-1180.58
-1611.99
-1682.71
-2042.75
-2186.52
-2532.49
-2745.77
-3089.66
-3369.54
-3719.38
-4022.78
-4323.16
-4561.2
-4749.94
-4865.38
-4916.42
-4899.48
-4841.26
-4858.15
-4823.6
2789.36
2556.88
2587.32
2364.87
2402.15
2212.36
2215.24
2070.95
2033.92
1925.23
1860.19
1760.39
1658.63
1518.91
1354.33
1163.4
974.763
887.979
855.772
515.875
3136.15
3159.58
3283.29
3200.12
3379.36
3295.43
3433.5
3386.42
3448.26
3409.77
3394.3
3332.72
3269.12
3192.62
3121.41
3064.5
3027.39
2979.97
2976.41
2872.33
1632.53
1719.14
1954.52
1903.76
2205.21
2182.24
2426.42
2485.02
2659.08
2764.27
2891.78
2983.2
3050.4
3075.88
3070.99
3063.01
3095.11
3189.75
3271.99
3353.72
-395.572
-455.502
-201.348
-373.525
-61.5478
-157.224
68.8131
108.865
270.496
391.433
544.644
702.094
869.215
1045.61
1223.6
1410.94
1589.34
1797.05
1935.23
2159.49
-470.253
-748.077
-612.24
-1077.38
-992.228
-1351.18
-1412.83
-1641.72
-1762.7
-1915.03
-2027.57
-2128.8
-2206.81
-2258.35
-2282.99
-2249.42
-2170.33
-1993.25
-1841.67
-1609.97
881.635
385.208
910.889
281.069
415.361
23.3453
-126.766
-436.362
-693.525
-994.279
-1287.25
-1593.21
-1899.78
-2204.75
-2490.93
-2715.2
-2861.2
-2835.69
-2819.26
-2732.57
776.88
-920.766
-168.637
-1137.87
-1211.5
-1748.41
-2053.97
-2434.19
-2733.66
-3006.59
-3217.55
-3370.34
-3453.99
-3463.76
-3389.43
-3232.27
-2977.8
-2615.66
-2364.72
-2183.6
53484.7
46979.7
43525.2
39192.8
35578.4
32002.4
28711.5
25583.6
22644.2
19862.5
17230.1
14731.3
12352.4
10081
7932.76
5887.36
3880.58
2250.11
625.062
-2321.66
56300.9
49796.9
46342.9
42011
38396.9
34821.1
31530.4
28402.5
25462.9
22681.1
20048.3
17549.2
15169.7
12897.7
10749
8702.85
6694.9
5061.9
3433.77
486.043
3622.3
1924.53
2676.81
1707.64
1634.33
1097.64
792.428
412.49
113.347
-159.29
-369.973
-522.529
-605.988
-615.472
-540.702
-383.813
-129.372
232.629
487.866
667.529
3703.25
3206.77
3732.27
3101.88
3235.81
2843.29
2692.65
2382.59
2124.94
1823.82
1530.52
1224.34
917.754
613.063
328.042
104.634
-37.4161
-11.7418
3.52407
90.3185
2374.61
2091.27
2223.78
1756.86
1838.66
1477.38
1413.38
1182.24
1059.48
905.367
791.472
688.977
610.033
557.727
532.662
565.684
644.164
821.189
967.33
1196.67
2296.36
2237.82
2493.39
2321.58
2634.99
2539.87
2767.83
2809.1
2973.14
3096.05
3251.81
3411.53
3580.84
3759.18
3939
4128.66
4308.94
4518.34
4656.59
4884.15
4498.72
4578.24
4807.43
4752
5045.76
5019.27
5257.42
5313.92
5483.99
5587.8
5712.72
5804.02
5873.57
5908.19
5921.16
5942.57
6001.31
6107.27
6188.93
6278
5658.14
5665.6
5785.9
5658.18
5854.09
5762.48
5932.96
5914.59
6024.79
6034.84
6071.67
6066.8
6062.88
6044.15
6028.13
6018.87
6016.46
5986.64
5988.91
5928.86
5751.26
5434.84
5560.33
5298.03
5380.34
5278.62
5339.36
5317.01
5342.58
5308.71
5316.43
5291.69
5244.02
5145.25
5010.46
4843.53
4683.16
4607.8
4600.84
4363.11
3162.16
2871.77
2891.96
2769.52
2748.23
2671.58
2583.62
2443.13
2242.27
1964.49
1628.26
1281.54
991.869
777.474
646.393
592.335
612.946
653.877
649.085
645.734
990.665
967.105
982.109
950.155
904.584
833.655
739.576
623.498
487.762
353.356
230.425
155.179
154.643
213.524
304.943
419.154
530.419
661.454
750.023
952.709
2156.99
2351.81
2416.17
2474.6
2501.65
2529.82
2562.7
2613.64
2683.51
2779
2891.77
3005.58
3115.92
3222.99
3319.11
3421.2
3508.82
3637.67
3739.5
3955.8
3681.97
3888.03
3947.91
4035.24
4100.48
4176.66
4258.85
4355.04
4442.42
4526.06
4616.73
4711.33
4802.6
4894.57
4984.08
5080.38
5168.25
5270.77
5342.5
5438.54
5246.55
5366.54
5390.61
5436.73
5467.28
5506.32
5539.44
5588.94
5607.76
5590.21
5631.14
5705.72
5765.33
5825.53
5879.14
5934.08
5985.34
6050.33
6094.28
6160.83
5767.39
5894.6
5944.17
6036.66
6124.97
6222.06
6308.14
6403.86
6526.84
6644.24
6737.68
6773.61
6726.13
6625.38
6515.27
6451.88
6465.07
6520.99
6563.71
6572.48
7827.27
7810.98
7760.12
7734.41
7695.47
7652.79
7586.19
7464.09
7304.26
7109.41
6897.74
6673.24
6444.62
6234.16
6068.16
5968.33
5924.4
5881.48
5886.82
5731.18
5781.31
5407.04
5272.61
5063.56
4916.23
4760.25
4611.85
4455.05
4314.74
4189.78
4078
3966.26
3841.21
3697.46
3543.14
3392.44
3281.51
3264.57
3220.47
2769.32
561.385
60.0284
-152.369
-556.02
-927.201
-1384.66
-1870.28
-2379.03
-2892.33
-3397.75
-3871.57
-4296.79
-4651.73
-4906.03
-5037.92
-5041.05
-4927.34
-4792.55
-4751.82
-4579.32
-2480.01
-2657.71
-2774.11
-2994.22
-3192.46
-3434.31
-3643.85
-3779.72
-3824.16
-3788.71
-3671.58
-3470.73
-3189.84
-2828.62
-2412.27
-1949.3
-1496.32
-1000.26
-667.393
-119.295
863.967
1303.12
1497.7
1770.76
2033.49
2295.67
2567.03
2843.46
3126.76
3416.09
3709.66
4006.5
4300.74
4592.92
4871.48
5151.12
5396.6
5682.42
5857.07
6210.22
7670.31
7934.13
7977.46
8056.85
8043.27
8032.14
7957.96
7903.88
7867.68
7835.2
7810.57
7796.91
7791.24
7794.64
7805.55
7827.21
7851.94
7887
7909.62
7899.82
)
;

boundaryField
{
    outletWall
    {
        type            fixedValue;
        value           uniform 0;
    }
    fineWalls
    {
        type            zeroGradient;
    }
    fineFrontAndBack
    {
        type            zeroGradient;
    }
    fineplugLeft
    {
        type            cyclicAMI;
        value           nonuniform List<scalar> 
20
(
1126.77
1020.27
935.73
830.385
750.166
677.834
621.378
578.154
551.684
538.138
549.045
615.898
576.644
533.39
1232.95
1080.88
1017.62
716.238
207.513
-434.45
)
;
    }
    fineplugRight
    {
        type            cyclicAMI;
        value           nonuniform List<scalar> 
20
(
6293.87
6410.04
6408.05
6410.95
6404
6404.47
6408.56
6418.23
6431.28
6445.52
6466.67
6516.73
6514.61
6856.44
6861.33
6760.64
6786.65
6643.9
6425.14
5912.89
)
;
    }
    inletOutletLeft
    {
        type            cyclicAMI;
        value           nonuniform List<scalar> 
20
(
1126.77
1020.27
935.73
830.385
750.166
677.834
621.378
578.154
551.684
538.138
549.045
615.898
576.644
533.39
1232.95
1080.88
1017.62
716.238
207.513
-434.45
)
;
    }
    inletLeft
    {
        type            zeroGradient;
    }
    inletWallsLeft
    {
        type            zeroGradient;
    }
    inletFacesLeft
    {
        type            zeroGradient;
    }
    inletOutletRight
    {
        type            cyclicAMI;
        value           nonuniform List<scalar> 
20
(
6293.87
6410.04
6408.05
6410.95
6404
6404.47
6408.56
6418.23
6431.28
6445.52
6466.67
6516.73
6514.61
6856.44
6861.33
6760.64
6786.65
6643.9
6425.14
5912.89
)
;
    }
    inletRight
    {
        type            zeroGradient;
    }
    inletWallsRight
    {
        type            zeroGradient;
    }
    inletFacesRight
    {
        type            zeroGradient;
    }
}


// ************************************************************************* //
