/*--------------------------------*- C++ -*----------------------------------*\
| =========                 |                                                 |
| \\      /  F ield         | OpenFOAM: The Open Source CFD Toolbox           |
|  \\    /   O peration     | Version:  4.1                                   |
|   \\  /    A nd           | Web:      www.OpenFOAM.org                      |
|    \\/     M anipulation  |                                                 |
\*---------------------------------------------------------------------------*/
FoamFile
{
    version     2.0;
    format      ascii;
    class       surfaceScalarField;
    location    "18";
    object      phi;
}
// * * * * * * * * * * * * * * * * * * * * * * * * * * * * * * * * * * * * * //

dimensions      [0 3 -1 0 0 0 0];

internalField   nonuniform List<scalar> 
2360
(
42155.1
47204.7
-5049.58
47204.7
47204.7
53808
-6603.3
53808
53808
53808
63906.2
-10098.2
63906.2
63906.2
78626.1
-14719.9
78626.1
78626.1
101149
-22523.2
101149
101149
131875
-30725.7
131875
131875
138348
152249
168480
184420
199263
212894
179997
45789.6
191807
202660
212587
221627
229815
237200
243825
249732
254945
259472
263277
266283
268086
138221
129865
138221
138221
138221
34264.8
103957
34264.8
34264.8
34264.8
7990.07
26274.7
7990.06
7990.07
-8215.05
16205.1
-8215.04
-8215.04
-8215.04
-90473.2
82258.1
-90473.2
-90473.2
-90473.1
-231601
141128
-227054
-220844
-213871
-206542
-198956
-191127
-183023
-174607
-165862
-156796
-147424
-137731
-127662
-188861
71682.1
-178048
-166446
-153969
-140893
-128479
-121284
-121284
-121284
-79008.2
-42275.3
-79008.2
-79008.2
-37605.3
-41403
-37605.3
-37605.3
-4395.73
-33209.6
-4395.73
-4395.74
23399.8
-27795.6
23399.8
23399.8
23399.8
48851.8
-25451.9
48851.8
48851.8
73387.6
-24535.9
-35931.7
108455
-34757
114513
-24196.9
68305.8
-12981.1
-61959.5
-14528.3
-104775
-22606.3
-97894.8
-17234.6
-51568.7
-6199.42
43222.5
-1457.5
96922.5
2859.23
112385
6674.93
114881
10482.2
121746
16209.9
87925.9
22335
47115
27141.9
14190.8
29680.9
8875.47
29949.2
15353.9
29410.7
9461.71
-12005
-37571
108986
-35929.4
112871
-23244.9
55621.3
-21645
-63559.4
-34443.9
-91975.9
-43817.4
-88521.3
-29295.2
-66090.8
-8050.93
21978.2
-2974.2
91845.7
626.47
108784
4356.1
111152
8130
117972
15475.1
80580.8
24719.7
37870.4
31840
7070.45
34251.7
6463.72
32859.9
16745.7
29999.9
12321.7
-7457.05
-39407.4
109804
-37763.5
111228
-29447.6
47305.4
-37307.2
-55699.7
-52996.8
-76286.4
-58931.9
-82586.2
-44283.2
-80739.5
-15722.5
-6582.58
-5316.29
81439.5
-2660.07
106128
294.109
108197
3923.96
114342
12930.1
71574.6
26218.7
24581.8
36895.1
-3605.95
40194.6
3164.2
37223.9
19716.4
33018.6
16527
-2234
-41346.9
110881
-40884.2
110765
-40383.1
46804.3
-55955.8
-40127.1
-71414
-60828.1
-75195.9
-78804.3
-62370.1
-93565.3
-29791.5
-39161.1
-9972.85
61620.9
-3949.82
100105
-3445.34
107693
-2005.37
112902
8719.34
60849.9
25927
7374.15
39649.2
-17328.2
44423
-1609.58
40453.1
23686.4
36551.6
20428.5
1108.01
-43120.8
112174
-44900.2
112544
-53261.7
55165.8
-74120.3
-19268.5
-86796.5
-48152
-87709.2
-77891.5
-76809.6
-104465
-47962.3
-68008.5
-22816.7
36475.3
-14604.7
91893.1
-13561.8
106650
-9962.04
109303
2339.45
48548.4
19474
-9760.44
31242.7
-29096.8
40253.4
-10620.3
39510.5
24429.2
38364.5
21574.6
-1930.49
-44511.6
113676
-48886.6
116919
-63982.9
70262.2
-86150.4
2898.94
-93405.9
-40896.5
-90558.8
-80738.6
-82967
-112057
-64462.5
-86513
-42456.5
14469.3
-32555.5
81992.1
-28453.4
102548
-21072.5
101922
-11373.7
38849.6
-3851.68
-17282.4
1061.4
-34009.9
14391.8
-23950.7
25252.5
13568.6
31624.5
15202.5
-12581.2
-45333.6
115334
-51394.5
122980
-68494.2
87361.9
-87389.5
21794.3
-87617.2
-40668.8
-81856.1
-86499.7
-80717.1
-113196
-76686
-90544.1
-61924.9
-291.809
-50273.5
70340.7
-43482.3
95756.8
-34917.1
93356.3
-33505.2
37437.7
-38619.2
-12168.5
-40041
-32588.1
-30128.1
-33863.6
-4289.89
-12269.7
-3479.31
14391.9
55621.5
-45537.5
117078
-52107.3
129550
-67644.3
102899
-80377.7
34527.7
-75024
-46022.6
-70017.8
-91505.9
-77070
-106143
-86148.3
-81465.8
-79508.1
-6932.05
-67892.8
58725.4
-60123.5
87987.5
-54528
87760.8
-62340
45249.7
-75596.8
1088.38
-82125.9
-26059
-86621.7
-29367.8
-96316.7
-2574.64
-118298
36373
78451.9
-45194.6
118887
-51487.2
135843
-64532.3
115944
-73354
43349.4
-67497.4
-51879.1
-66315.8
-92687.5
-80218.9
-92240.4
-96916.2
-64768.6
-95961.1
-7887.09
-85829.4
48593.7
-80546.7
82704.9
-83399
90613.1
-97731.2
59581.8
-109195
12552.3
-111304
-23949.9
-113279
-27393.4
-117019
1165.48
-112120
31474.5
48589.9
-44412.9
120815
-50122.4
141552
-61087.7
126909
-69286.2
51547.8
-66232.1
-54933.2
-69418.6
-89500.9
-88684.8
-72974.2
-109893
-43560.8
-114646
-3133.68
-109203
43150.6
-107940
81441.8
-114431
97103.9
-123672
68823.4
-124226
13105.9
-118718
-29457.6
-112865
-33246.9
-101194
-10505.1
-72140
2420.38
-7344.99
-43297.6
122954
-48402.3
146657
-57654.7
136162
-66221.7
60114.8
-65732.4
-55422.5
-72269.1
-82964.2
-95573.1
-49670.3
-118927
-20207.1
-128782
6721.23
-129610
43978.7
-129988
81820.4
-130768
97883.2
-127146
65201.4
-119051
5010.94
-116269
-32239.9
-117823
-31692.3
-109128
-19200.5
-80314.3
-26393
-61384.6
-41947.6
125391
-46574.3
151283
-54241.9
143829
-62680.2
68553.1
-63117.1
-54985.6
-71241.1
-74840.2
-96703.9
-24207.4
-119265
2353.61
-130807
18264.1
-135461
48632.1
-134329
80688.9
-124520
88074
-105626
46307.1
-91287.9
-9326.87
-96852
-26675.8
-117941
-10603.8
-133184
-3957.55
-130324
-29252.3
-87752.2
-40552.8
128092
-44800.3
155531
-50878.3
149907
-58204.5
75879.4
-57800.9
-55389.3
-65021.7
-67619.3
-89467.2
237.996
-109898
22784.7
-121702
30068.3
-127131
54060.6
-122912
76469.8
-104737
69899.3
-77446.9
19016.7
-58875.8
-27898
-57920.2
-27631.4
-72146
3622.05
-86787.8
10684.3
-101880
-14160.3
-59767.4
-39353.9
130855
-43209.2
159386
-47701.5
154400
-52831.2
81009.1
-50335.9
-57884.6
-54685.9
-63269.3
-75676.5
21228.5
-93693
40801.3
-104971
41345.9
-109240
58329.7
-101677
68906.9
-78605.8
46828.3
-50791.3
-8797.81
-34398.7
-44290.7
-24295.6
-37734.5
-13592.8
-7080.77
778.096
-3686.61
8471.41
-21853.6
-5506.43
-38950.3
133254
-42089.1
162525
-44769.5
157080
-46501.9
82741.4
-41571.7
-62814.7
-42932.7
-61908.3
-60164.4
38460.2
-75693.3
56330.2
-85963.6
51616.2
-88772.4
61138.6
-78099
58233.5
-50736.9
19466.2
-25477.2
-34057.6
-16051.1
-53716.8
-9333.83
-44451.7
1124.57
-17539.2
7664.93
-10227
17299.3
-31488
-18932.8
-39727.7
134853
-41802.9
164600
-42472.6
157750
-39742.4
80011.2
-32845.1
-69712
-32611.1
-62142.3
-46344.8
52193.9
-58900.1
68885.5
-68042
60758.1
-69046.5
62143
-53237.7
42424.7
-22646.6
-11124.9
-5366.9
-51337.3
-4321.18
-54762.5
-1761.46
-47011.4
4583.59
-23884.2
8253.69
-13897.1
14866.9
-38101.2
-26589.2
-42405.1
134967
-42571
164766
-40535.6
155714
-32584.5
72060.1
-25305.7
-76990.8
-25017
-62430.9
-35200.1
62377
-44382.8
78068.2
-51717
68092.2
-49623.2
60049.2
-27727.7
20529.3
-5353.76
-33498.9
759.382
-57450.4
1434.47
-55437.6
2753.46
-48330.4
7335.97
-28466.7
9831.57
-16392.7
11478
-39747.6
-29831.1
-45966.3
133178
-44111.7
162912
-39790.3
151393
-26315.6
58585.3
-18904.7
-84401.7
-18828.6
-62507.1
-25975.8
69524.2
-32378.6
84471
-37531.5
73245.1
-33409.1
55926.8
-13365.1
485.209
-668.307
-46195.6
2048.93
-60167.6
4517.67
-57906.3
6271.74
-50084.5
10155.7
-32350.7
10612.5
-16849.4
9530.73
-38665.9
-30398.6
-54503.9
128847
-49186.9
157595
-39932.4
142138
-21042.5
39695.5
-13846.4
-91597.8
-12140.9
-64212.6
-17589.4
74972.6
-23142.5
90024.2
-26954
77056.6
-21315.6
50288.4
-5688.98
-15141.4
1416.91
-53301.5
4181.36
-62932.1
6726.87
-60451.8
8360.6
-51718.2
10193.8
-34183.9
8691.83
-15347.4
7836.79
-37810.8
-29165.1
-74762.8
-61551.7
-41963.3
-18918.7
-10600.8
-7292.99
-8660.19
-11863.5
-14716.2
-10999.3
-2309
2403
5616.43
7864.4
8643.31
8837.5
7349.39
7286.79
3231.17
-9704.04
6835.32
-17505.7
9559.22
-18954.1
11667.9
-18049.5
13511.2
-16686
15195.7
-15314.9
16322.3
-14019.3
17279.9
-12767.9
17956.6
-11529.3
18331.2
-10302
18384.7
-9093.03
18101.2
-7905.34
17460.9
-6743.91
16441.6
-5605.94
15025.1
-4490.86
13176.1
-3363.87
10849.4
-2199.8
7943.21
-898.911
4378.83
557.94
2576.05
5117.75
-14821.8
7123.5
-19511.4
7290.64
-19121.2
7179.01
-17937.8
7379.82
-16886.8
7881.67
-15816.7
8527.24
-14664.8
9147.11
-13387.7
9673.79
-12056
10047.2
-10675.3
10217.2
-9263.04
10126
-7814.17
9715.38
-6333.23
8949.56
-4840.09
7838.91
-3380.19
6432.13
-1957.08
4781.89
-549.526
2864.87
1018.14
863.423
2559.43
3439.47
1874.38
-16696.1
1006.78
-18643.8
-235.049
-17879.4
-1218.38
-16954.5
-2011.61
-16093.5
-2707.62
-15120.7
-3394.6
-13977.8
-4093.84
-12688.5
-4813.18
-11336.6
-5564.74
-9923.76
-6363.9
-8463.86
-7225.37
-6952.69
-8154.84
-5403.74
-9112.72
-3882.2
-9971.22
-2521.67
-10464.5
-1463.76
-10170
-844.062
-8466.34
-685.482
-4951.52
-955.373
-1512.04
-1595.07
-15101.1
-3634.58
-16604.3
-5443.28
-16070.7
-7195.82
-15202
-9102.42
-14186.9
-11040.7
-13182.4
-12933.8
-12084.8
-14766.2
-10856.1
-16573.3
-9529.48
-18371.9
-8125.14
-20146.6
-6689.17
-21813.8
-5285.49
-23193.5
-4024.03
-23971.7
-3104.02
-23678.5
-2814.86
-21770
-3372.21
-17873.4
-4740.66
-12005.5
-6553.39
-5092.84
-7868.05
-6604.88
-2080.35
-13020.7
-3103.96
-15580.7
-4231.87
-14942.7
-5534.41
-13899.4
-7066.52
-12654.8
-8698.68
-11550.3
-10223
-10560.4
-11546.4
-9532.77
-12628.6
-8447.22
-13438.8
-7314.96
-13942.5
-6185.43
-14089.3
-5138.68
-13785.7
-4327.63
-12893.3
-3996.39
-11276.6
-4431.56
-8888.4
-5760.41
-5960.28
-7668.77
-3082.86
-9430.8
-1079.2
-9871.7
-7684.08
-360.475
-12660.2
18.9637
-15960.1
353.945
-15277.7
580.063
-14125.5
736.735
-12811.5
829.729
-11643.3
997.07
-10727.7
1348.03
-9883.73
1965.76
-9064.96
2900.03
-8249.23
4162.79
-7448.2
5698.05
-6673.94
7350.23
-5979.82
8832.24
-5478.4
9717.32
-5316.64
9558.97
-5602.05
8126.27
-6236.06
5591.91
-6896.44
2605
-6884.79
-5079.08
214.321
-12874.5
1032.25
-16778.1
1752.37
-15997.8
2303.72
-14676.9
2864.01
-13371.8
3464.61
-12243.8
4108.71
-11371.8
4788.89
-10563.9
5528.28
-9804.35
6343.43
-9064.37
7246.42
-8351.2
8224.49
-7652
9202.09
-6957.42
9998.37
-6274.67
10330.8
-5649.11
9878.97
-5150.18
8471.79
-4828.89
6134.26
-4558.91
3271.1
-4021.64
-1807.98
666.39
-13540.9
1552.78
-17664.5
2148.95
-16594
2510.71
-15038.6
2915.57
-13776.6
3378.88
-12707.2
3874.79
-11867.7
4329.7
-11018.8
4738.37
-10213
5086.37
-9412.37
5373.48
-8638.32
5605.96
-7884.49
5799.25
-7150.72
5947.75
-6423.18
5994.25
-5695.62
5787.54
-4943.48
5136.46
-4177.81
3877.48
-3299.94
1993.21
-2137.39
185.234
1245.11
-14786
2002.9
-18422.3
2430.37
-17021.5
2725.16
-15333.4
3207.28
-14258.8
3747.38
-13247.3
4333.4
-12453.8
4906.12
-11591.5
5469.28
-10776.2
5972.84
-9915.92
6371
-9036.47
6610.25
-8123.74
6655.05
-7195.52
6485.66
-6253.79
6097.73
-5307.68
5476.17
-4321.92
4582.68
-3284.31
3339.56
-2056.82
1699.59
-497.408
1884.82
1837.75
-16623.8
2201.02
-18785.5
2449.82
-17270.3
2849.21
-15732.8
3522.67
-14932.2
4247.88
-13972.5
5074.28
-13280.2
5950.91
-12468.2
6874.96
-11700.3
7728.74
-10769.7
8422.65
-9730.38
8865.3
-8566.4
9016.94
-7347.16
8847.14
-6083.99
8325.06
-4785.6
7410.19
-3407.05
6061.07
-1935.2
4122.92
-118.676
2055.18
1570.33
3940
1530.52
-18154.3
1068.05
-18323.1
982.13
-17184.4
1210.7
-15961.4
1633.9
-15355.4
2134.44
-14473
2795.6
-13941.3
3563.8
-13236.4
4388.16
-12524.6
5074.83
-11456.4
5492.08
-10147.6
5547.01
-8621.33
5259.47
-7059.62
4647.59
-5472.12
3709.01
-3847.02
2498.37
-2196.41
1197.71
-634.538
129.399
949.637
-672.58
2372.31
3267.42
-57.3943
-18096.9
-1155.06
-17225.4
-1861.12
-16478.3
-2471.96
-15350.6
-3030.24
-14797.2
-3556.9
-13946.4
-4012.48
-13485.8
-4419.91
-12829
-4829
-12115.5
-5337.57
-10947.8
-6018.32
-9466.89
-6887.59
-7752.07
-7902.07
-6045.15
-8989.52
-4384.68
-10034.5
-2802
-10774
-1456.98
-10706
-702.549
-9071.26
-685.076
-5357.93
-1341.01
-2090.51
-991.99
-17105
-1876.09
-16341.3
-2790.6
-15563.8
-3885.84
-14255.3
-4989.45
-13693.5
-6259.62
-12676.2
-7633.41
-12112
-9148.25
-11314.1
-10705.6
-10558.2
-12198.7
-9454.73
-13535.9
-8129.68
-14677.3
-6610.59
-15606.7
-5115.81
-16180.7
-3810.69
-16033.6
-2949.03
-14712.6
-2777.99
-12015.8
-3399.33
-8028.02
-4672.9
-3434.44
-5934.6
-5524.94
-297.324
-16807.6
-405.593
-16233
-603.782
-15365.6
-1003.43
-13855.7
-1387.4
-13309.6
-1950.45
-12113.2
-2627.87
-11434.6
-3465.53
-10476.5
-4319.59
-9704.15
-4984.05
-8790.27
-5246.32
-7867.43
-4989.29
-6867.62
-4219.09
-5886.02
-3000.53
-5029.25
-1441.61
-4507.96
257.229
-4476.83
1683.49
-4825.6
2284.33
-5273.74
1605.8
-5256.07
-3919.15
437.057
-17244.7
688.116
-16484.1
1047.42
-15724.9
1351.2
-14159.5
1678.02
-13636.4
2001.27
-12436.4
2295.53
-11728.8
2586.79
-10767.7
2867.82
-9985.19
3242.84
-9165.29
3797.55
-8422.13
4633.87
-7703.94
5760.89
-7013.04
7049.65
-6318.03
8146.76
-5605.07
8544.34
-4874.41
7882.1
-4163.36
6098.93
-3490.58
3362.81
-2519.95
-556.338
603.767
-17848.5
696.146
-16576.5
1067.3
-16096.1
1467.1
-14559.3
1894.63
-14063.9
2382.68
-12924.5
2892.94
-12239.1
3470.02
-11344.8
4076.69
-10591.9
4712.35
-9800.95
5344.69
-9054.47
5958.43
-8317.69
6534.76
-7589.37
7026.43
-6809.69
7330.26
-5908.91
7234.69
-4778.84
6480.94
-3409.61
5016.57
-2026.21
2793.18
-296.568
2236.84
150.018
-17998.5
-66.3718
-16360.1
4.38555
-16166.8
194.888
-14749.8
419.537
-14288.6
779.843
-13284.8
1187.73
-12647
1697.95
-11855
2284.69
-11178.6
2963.08
-10479.4
3731.68
-9823.07
4578.33
-9164.34
5456.08
-8467.12
6247.92
-7601.53
6742.53
-6403.51
6627.11
-4663.42
5422.76
-2205.27
2717.04
679.513
970.357
1450.11
3207.2
-1273.35
-16725.1
-2660.79
-14972.7
-3717.7
-15109.9
-4459.92
-14007.6
-5110.84
-13637.7
-5486.11
-12909.5
-5745.27
-12387.8
-5812.3
-11788
-5743.25
-11247.7
-5518.56
-10704
-5150.67
-10191
-4637.57
-9677.44
-3999.06
-9105.64
-3272.41
-8328.18
-2532.75
-7143.17
-1851.98
-5344.19
-1288.7
-2768.56
-937.091
327.897
-862.858
1375.87
2344.34
-2200.59
-14524.5
-4685.08
-12488.2
-7143.04
-12652
-9219.76
-11930.8
-11196
-11661.4
-12862.9
-11242.6
-14336.3
-10914.5
-15558.1
-10566.1
-16568.9
-10236.9
-17365.3
-9907.64
-17970.1
-9586.18
-18381.5
-9265.99
-18560.7
-8926.45
-18378
-8510.88
-17596.8
-7924.42
-15866.9
-7074.05
-12716.1
-5919.43
-7940.44
-4447.73
-3705.9
-2858.67
-1361.55
-5424.55
-8812.72
-12364.7
-15195.5
-17757
-19899.5
-21714
-23180.2
-24317
-25124.6
-25610.8
-25776.8
-25603.3
-25014.1
-23838.6
-21812.6
-18632
-13979.8
-7738.45
-5422.66
14522.7
-8809.19
12486.5
-12359.6
12650.4
-15188.9
11929.3
-17748.8
11659.9
-19889.9
11241.1
-21702.9
10913
-23167.5
10564.6
-24302.8
10235.3
-25108.9
9906.11
-25593.6
9584.66
-25757.9
9264.34
-25582
8924.1
-24989
8507.02
-23807.9
7918.86
-21776.4
7068.55
-18593.4
5917.04
-13946.2
4452.78
-7723.92
2877.71
1376.08
-2202.21
16724.9
-4689.03
14973.4
-7148.9
15110.3
-9228.1
14008.6
-11206.9
13638.8
-12877
12911.2
-14353.8
12389.8
-15579.7
11790.5
-16594.9
11250.6
-17396.4
10707.6
-18007
10195.2
-18424.4
9681.83
-18608.4
9108.06
-18427
8325.65
-17641.6
7133.48
-15898.1
5325.05
-12708.4
2727.33
-7925.47
-330.156
-3685.83
-1361.92
-2309.75
-1278.73
18003.7
-2668.37
16363.1
-3730.28
16172.2
-4477.96
14756.3
-5135.33
14296.2
-5517.13
13293
-5783.65
12656.3
-5858.07
11864.9
-5796.85
11189.4
-5580.31
10491.1
-5221.48
9836.42
-4718.59
9178.96
-4091.51
8481
-3376.45
7610.6
-2645.77
6402.82
-1966.62
4645.92
-1391.9
2152.64
-1036.33
-685.677
-923.041
-1475.17
-3232.79
142.352
17861.3
-85.6731
16591.1
-23.3527
16109.9
159.429
14573.5
376.021
14079.6
729.333
12939.7
1129.56
12256.1
1632.37
11362.1
2210.46
10611.3
2880.32
9821.27
3641.48
9075.26
4483.27
8337.19
5358.4
7605.87
6148.4
6820.6
6639.46
5911.77
6515.08
4770.32
5283.18
3384.54
2605.97
1991.55
899.854
230.966
-2332.93
610.43
17250.9
701.112
16500.4
1068.6
15742.5
1458.92
14183.2
1878.72
13659.8
2351.34
12467.1
2847.13
11760.4
3405.2
10804.1
3995.31
10021.2
4613.65
9202.96
5228.73
8460.2
5822.6
7743.34
6374.79
7053.7
6836
6359.4
7106.56
5641.24
6987.68
4889.21
6236.77
4135.47
4824.41
3403.94
2681.72
2373.68
348.789
401.637
16849.3
655.736
16246.3
1016.34
15381.9
1334.51
13865
1670.91
13323.4
2008.39
12129.6
2313.9
11454.8
2620.78
10497.2
2918.63
9723.34
3314.31
8807.29
3880.92
7893.58
4702.62
6921.64
5773.04
5983.27
6949.92
5182.52
7883.81
4707.34
8140.86
4632.16
7471.09
4805.24
5800.25
5074.77
3225.31
4948.63
3574.09
-123.437
16972.7
-260.048
16383
-520.222
15642
-1117.12
14461.9
-1639.52
13845.8
-2335.16
12825.3
-3031.74
12151.4
-3784.46
11249.9
-4447.84
10386.7
-4882.63
9242.08
-4923.62
7934.58
-4421.25
6419.28
-3389.79
4951.81
-1942.65
3735.4
-229.109
2993.81
1442.88
2960.18
2577.95
3670.17
2695.02
4957.69
1648.18
5995.47
5222.28
-503.51
17476.2
-1202.36
17081.8
-2003.41
16443.1
-3147.87
15606.4
-4192.96
14890.9
-5458.32
14090.7
-6706.76
13399.8
-8084.6
12627.8
-9484.95
11787.1
-10903.5
10660.6
-12181.1
9212.12
-13218.2
7456.38
-13993.6
5727.21
-14404.3
4146.04
-14117.8
2707.34
-12730.2
1572.57
-10086.7
1026.68
-6439.1
1310.03
-2662.51
2218.85
2559.77
200.066
17276.2
24.9478
17256.9
10.0844
16458
-12.8661
15629.4
17.7924
14860.2
-24.0816
14132.5
-97.4349
13473.2
-320.971
12851.3
-753.675
12219.8
-1489.16
11396.2
-2503.5
10226.5
-3813.34
8766.24
-5342.23
7256.11
-6965
5768.83
-8529.02
4271.37
-9671.56
2715.12
-9773.82
1128.94
-8250.71
-213.088
-4679.08
-1352.79
-2119.31
1239.19
16037
2104.65
16391.5
3065.44
15497.2
4016.63
14678.2
4942.62
13934.2
5823.43
13251.7
6666.03
12630.6
7436.81
12080.5
8091.18
11565.4
8520.47
10966.9
8568.98
10178
8139.23
9195.99
7299.39
8095.93
6143.48
6924.74
4709.85
5704.99
3024.45
4400.51
1168.69
2984.69
-323.649
1279.21
-848.729
-827.735
-2968.04
1415.73
14621.2
2643.33
15163.9
3713.95
14426.5
4628.09
13764
5424.42
13137.9
6139.73
12536.4
6797.7
11972.6
7431.43
11446.8
8037.31
10959.5
8554.63
10449.5
8944.97
9787.64
9134.21
9006.75
9078.35
8151.8
8758.06
7245.03
8156.8
6306.25
7245.76
5311.55
5982.89
4247.56
4247.81
3014.3
1973.31
1446.77
-994.727
993.517
13627.7
1953.16
14204.2
2641.38
13738.3
3136.06
13269.3
3540.15
12733.8
3935.52
12141
4399.98
11508.2
5013.26
10833.5
5648.95
10323.8
6147.86
9950.61
6430.47
9505
6513.57
8923.62
6434.76
8230.59
6198.04
7481.73
5785.92
6718.35
5159.33
5938.12
4278.14
5128.74
3107.31
4185.12
1647.9
2906.17
653.17
500.395
13127.3
998.759
13705.8
1184.91
13552.2
1237.31
13216.9
1372.83
12598.3
1784.91
11728.9
2589.16
10703.9
3713.39
9709.25
4840.44
9196.75
5779.51
9011.52
6408.33
8876.18
6816.52
8515.42
7076.95
7970.17
7156.1
7402.57
6958.88
6915.57
6360.33
6536.67
5294.75
6194.34
3772.51
5707.36
1936.28
4742.41
2589.45
22.5216
13104.8
-288.219
14016.6
-965.607
14229.5
-1710.96
13962.3
-2183.34
13070.7
-2038.34
11583.9
-1188.74
9854.28
-25.025
8545.49
1213.86
7957.82
2609.1
7616.23
4251.87
7233.38
6096.46
6670.81
7908.25
6158.37
9311.18
5999.62
9892.92
6333.82
9397.68
7031.89
7856.09
7735.92
5503.98
8059.47
2780.45
7465.94
5369.9
-1403.62
14508.4
-3004.55
15617.5
-4858.41
16083.4
-6742.12
15846
-8479.78
14808.3
-9806.1
12910.2
-10650.2
10698.4
-11306.5
9201.74
-11737.4
8388.7
-11732.6
7611.43
-11174.2
6674.95
-10130.9
5627.49
-8666.98
4694.48
-6773.09
4105.72
-4474.62
4035.34
-2027.15
4584.41
17.2898
5691.47
1112.67
6964.08
975.987
7602.61
6345.89
-1736.72
16245.1
-3752.68
17633.4
-5571.73
17902.4
-7336.42
17610.6
-9287.69
16759.6
-11516.5
15138.9
-13895.2
13077.1
-16166.7
11473.2
-18164.4
10386.4
-19905
9352.02
-21451.4
8221.26
-22792.6
6968.73
-23716.4
5618.31
-23810.1
4199.39
-22599.2
2824.4
-19746.8
1731.98
-15176.7
1121.35
-9435.11
1222.51
-3847.6
2015.09
2498.29
590.053
15655
-286.468
18509.9
-683.082
18299
-730.785
17658.3
-825.215
16854
-1359.71
15673.4
-2409.14
14126.5
-3565.38
12629.5
-4551.92
11373
-5413.9
10214
-6266.36
9073.73
-7199.22
7901.59
-8254.58
6673.67
-9428.96
5373.77
-10615.9
4011.33
-11434.7
2550.79
-11244.7
931.321
-9456.28
-565.873
-5759.41
-1681.79
-3261.12
3400.41
12254.6
4742.53
17167.8
6024.77
17016.8
7687.31
15995.8
9575.22
14966.1
11308.9
13939.8
12566.5
12868.9
13404.6
11791.3
14001.8
10775.8
14382.9
9832.87
14508.7
8947.99
14315.4
8094.9
13729.7
7259.28
12671.8
6431.69
11070.3
5612.84
8866.11
4754.98
5991.87
3805.55
2821.45
2604.55
393.701
745.949
-2867.41
3265.15
8989.45
5299.27
15133.7
6819.03
15497
8336.6
14478.2
10010.5
13292.1
11702.4
12248
13229.6
11341.7
14440.4
10580.5
15291.4
9924.74
15785.1
9339.21
15942.8
8790.27
15784.3
8253.38
15314.7
7728.93
14516
7230.31
13357.6
6771.3
11787.5
6325.06
9760.64
5832.4
7224.65
5140.53
4091.01
3879.58
1223.59
1794.31
4513.58
6934.18
8935.84
10626.1
12061
12919.9
13430.7
13663.2
13629.7
13353.8
12862.5
12175.9
11302.2
10244.2
8983.46
7486.8
5654.24
3324.06
)
;

boundaryField
{
    outletWall
    {
        type            calculated;
        value           nonuniform List<scalar> 
60
(
73387.6
16879.9
-8923.21
-15622.2
-11414.4
-18997.7
-53240.1
-93653.6
-125553
-118697
-116702
-101664
-54257.7
46197
105973
106322
50743.7
-78865.9
-115688
-108511
81973.8
58835.5
47755
42290.7
38129.3
36551.4
36590.2
37851.8
39511.5
41157.9
42485.3
43385.1
43793.4
43676.2
43009.2
41827.5
40269.9
38589.8
37040.3
35986.9
-42155.1
-26927.9
-37748.2
-13859.3
-34378.1
-52497.1
-62699.8
-66145.5
-58013.6
-23831.7
46571.5
79909.3
93227.6
76339.8
-67520.4
-99915.7
16650.9
122550
144383
121636
)
;
    }
    fineWalls
    {
        type            calculated;
        value           uniform 0;
    }
    fineFrontAndBack
    {
        type            calculated;
        value           nonuniform List<scalar> 
960
(
-4.28899e-15
5.18145e-15
2.20919e-14
3.17376e-14
1.99315e-13
-3.61975e-14
2.37811e-13
-8.76534e-13
2.54636e-12
1.0711e-12
1.85816e-12
-1.11578e-11
-4.09495e-12
-4.86186e-12
-6.05011e-11
-1.27276e-11
-1.05741e-11
-4.2634e-11
-6.75358e-12
-6.7001e-12
-2.18292e-12
-2.71726e-12
-3.20846e-12
-3.44699e-12
-3.50158e-12
-3.41522e-12
-8.01e-11
-3.28133e-12
-3.60149e-12
-3.91209e-12
-4.19762e-12
-4.52068e-12
-4.90179e-12
-5.33318e-12
-5.72904e-12
-6.04292e-12
-6.1021e-12
-5.93137e-12
-4.8854e-12
-4.35023e-12
3.03677e-11
2.34626e-11
2.75e-11
2.40782e-11
1.10916e-10
5.27681e-12
-2.90792e-12
-6.88953e-12
-3.84932e-11
8.89789e-12
1.7451e-11
1.11311e-10
1.40213e-11
1.05978e-11
3.02261e-12
-8.22699e-11
-2.44022e-11
-2.60776e-11
-2.50631e-11
-5.99815e-11
4.45595e-12
2.91196e-12
4.13491e-12
4.68895e-12
5.35146e-12
5.63627e-12
5.62917e-12
5.5155e-12
5.472e-12
5.42751e-12
5.29193e-12
5.0176e-12
4.5898e-12
4.5193e-11
3.30601e-12
3.27496e-12
3.34715e-12
3.34785e-12
3.05656e-12
2.40955e-12
1.28297e-11
1.62755e-11
1.20693e-10
2.43567e-11
2.70387e-11
1.69512e-10
3.2671e-11
3.3162e-11
1.41929e-10
1.20459e-11
2.55073e-11
2.35746e-10
5.39279e-11
5.44991e-11
5.2484e-11
2.40736e-10
3.70094e-11
3.22802e-11
1.56907e-10
2.85264e-11
2.35462e-10
2.97908e-10
3.06825e-10
2.85794e-10
2.1234e-10
1.48733e-10
1.36829e-10
1.55004e-10
1.62889e-10
1.6439e-10
1.61211e-10
1.51073e-10
1.59074e-10
1.81467e-10
2.00835e-10
2.12823e-10
2.15062e-10
2.15699e-10
1.9362e-10
2.41912e-10
3.02075e-10
3.03872e-10
2.28222e-10
1.20026e-10
8.35634e-11
1.09975e-10
1.52218e-10
1.63384e-10
1.64542e-10
1.61308e-10
1.51212e-10
1.58235e-10
1.78107e-10
1.94743e-10
2.07808e-10
2.13299e-10
2.21485e-10
1.75265e-10
2.501e-10
3.07169e-10
2.93194e-10
1.59091e-10
6.22762e-11
5.75616e-11
8.47222e-11
1.30746e-10
1.62163e-10
1.64173e-10
1.61295e-10
1.51295e-10
1.57657e-10
1.74778e-10
1.8776e-10
2.01044e-10
2.09909e-10
2.223e-10
1.82508e-10
2.59038e-10
3.11543e-10
2.68989e-10
8.04367e-11
1.13293e-12
6.95328e-12
3.01019e-11
8.96992e-11
1.56325e-10
1.62594e-10
1.62566e-10
1.51345e-10
1.57781e-10
1.7262e-10
1.85663e-10
1.96356e-10
2.06852e-10
2.17182e-10
2.09539e-10
2.68387e-10
3.13924e-10
2.34877e-10
2.32441e-12
-7.08186e-11
-6.75633e-11
-4.28672e-11
4.0984e-11
1.44657e-10
1.54967e-10
1.49191e-10
1.51191e-10
1.58893e-10
1.77674e-10
1.99848e-10
2.02938e-10
2.06974e-10
2.17011e-10
1.90696e-10
2.77692e-10
3.14554e-10
2.02803e-10
-6.92118e-11
-1.59336e-10
-1.54232e-10
-1.13686e-10
-2.45427e-12
1.28983e-10
1.44067e-10
1.40463e-10
1.494e-10
1.65933e-10
2.04123e-10
2.12962e-10
1.82031e-10
2.01984e-10
2.38334e-10
1.4679e-10
2.8644e-10
3.1496e-10
1.82652e-10
-1.19665e-10
-2.39917e-10
-2.13992e-10
-1.50104e-10
-2.03463e-11
1.23706e-10
1.4233e-10
1.36795e-10
1.51372e-10
1.85258e-10
2.22072e-10
1.91173e-10
1.12497e-10
8.85765e-11
2.30787e-10
8.45812e-12
2.9422e-10
3.1629e-10
1.76916e-10
-1.355e-10
-2.69941e-10
-2.2044e-10
-1.46488e-10
-7.14899e-12
1.36612e-10
1.50384e-10
1.38295e-10
1.62875e-10
2.11786e-10
2.16144e-10
1.47913e-10
4.08692e-11
-8.86718e-11
-1.47437e-10
-1.70119e-10
3.00764e-10
3.18768e-10
1.83358e-10
-1.18489e-10
-2.49423e-10
-1.99743e-10
-1.32261e-10
2.16909e-11
1.71349e-10
1.76206e-10
1.62476e-10
1.99193e-10
2.25871e-10
1.6144e-10
8.4892e-11
5.18567e-11
-2.78032e-11
-1.07038e-10
-1.36228e-10
3.05644e-10
3.22505e-10
1.98364e-10
-8.42516e-11
-2.22734e-10
-1.79991e-10
-1.17059e-10
3.58799e-11
2.21442e-10
2.52319e-10
2.05513e-10
1.73417e-10
1.19587e-10
-2.92506e-11
-4.9483e-11
4.31472e-11
2.08986e-11
-3.91074e-12
1.26926e-11
3.08001e-10
3.27991e-10
2.17521e-10
-4.945e-11
-2.04534e-10
-1.59362e-10
-8.88816e-11
-2.80212e-12
1.71511e-10
2.36774e-10
2.03987e-10
1.23062e-10
1.4238e-11
-6.11555e-11
-2.79456e-11
1.3587e-11
3.78672e-11
4.53265e-11
3.25019e-11
3.06443e-10
3.34811e-10
2.38379e-10
-1.12181e-11
-1.84864e-10
-1.76345e-10
-1.57864e-10
-6.60543e-11
4.42892e-11
1.1339e-10
1.09787e-10
3.42291e-11
-5.90047e-11
-7.83648e-11
-2.48324e-11
3.94772e-11
1.01072e-10
1.52604e-10
1.85014e-10
2.99865e-10
3.41537e-10
2.58813e-10
2.6059e-11
-1.62266e-10
-1.68445e-10
-1.85711e-10
-1.58177e-10
-9.56957e-11
-4.08044e-11
-2.70286e-11
-6.40488e-11
-1.06403e-10
-9.22766e-11
-3.61156e-11
5.48611e-11
1.38566e-10
1.45223e-10
9.92972e-11
2.89066e-10
3.45643e-10
2.77198e-10
6.07999e-11
-1.40872e-10
-1.60944e-10
-2.00781e-10
-2.12778e-10
-1.90692e-10
-1.59521e-10
-1.41308e-10
-1.40773e-10
-1.30028e-10
-1.00068e-10
-5.94938e-11
-4.25192e-12
4.51034e-11
1.43264e-11
-1.00859e-10
2.78273e-10
3.44462e-10
2.92097e-10
9.23658e-11
-1.24798e-10
-1.56836e-10
-1.91208e-10
-2.2481e-10
-2.31988e-10
-2.21243e-10
-2.03044e-10
-1.74333e-10
-1.27577e-10
-9.5974e-11
-6.49297e-11
-2.97993e-11
-1.03869e-12
2.80725e-12
6.40238e-12
2.74432e-10
3.37595e-10
3.02321e-10
1.20231e-10
-1.13762e-10
-1.55003e-10
-1.67002e-10
-2.09032e-10
-2.34834e-10
-2.39392e-10
-2.20429e-10
-1.65367e-10
-1.01115e-10
-8.2289e-11
-6.06117e-11
-3.32361e-11
-9.7617e-12
-2.59077e-13
1.41545e-11
2.85368e-10
3.32914e-10
3.11446e-10
1.44418e-10
-1.12658e-10
-1.48043e-10
-1.42603e-10
-1.80698e-10
-2.15699e-10
-2.3078e-10
-2.05396e-10
-1.27621e-10
-9.1806e-11
-7.03355e-11
-5.45866e-11
-3.24322e-11
-1.19814e-11
6.0175e-13
1.95361e-12
3.07362e-10
3.40619e-10
3.22933e-10
1.57464e-10
-1.25841e-10
-1.3795e-10
-1.26538e-10
-1.51244e-10
-1.85984e-10
-2.08041e-10
-1.81547e-10
-1.16808e-10
-9.36182e-11
-6.79834e-11
-5.15765e-11
-3.12963e-11
-1.24207e-11
8.97049e-13
1.11975e-12
3.39852e-10
3.79208e-10
3.43132e-10
1.49879e-10
-1.3016e-10
-1.34303e-10
-1.20128e-10
-1.27751e-10
-1.54546e-10
-1.81666e-10
-1.58245e-10
-1.15473e-10
-9.21086e-11
-6.77584e-11
-5.13353e-11
-3.02581e-11
-1.02618e-11
1.57383e-12
9.85905e-13
2.2563e-10
2.92097e-10
2.39503e-10
5.79106e-11
-1.1803e-10
-1.35465e-10
-1.22279e-10
-1.15784e-10
-1.20107e-10
-1.39963e-10
-1.37491e-10
-1.15931e-10
-9.16541e-11
-6.67814e-11
-5.05286e-11
-2.82878e-11
-7.23902e-12
2.09984e-12
5.36378e-13
4.28899e-15
-5.18145e-15
-2.20919e-14
-3.17376e-14
-1.99315e-13
3.61975e-14
-2.37811e-13
8.76534e-13
-2.54636e-12
-1.0711e-12
-1.85816e-12
1.11578e-11
4.09495e-12
4.86186e-12
6.05011e-11
1.27276e-11
1.05741e-11
4.2634e-11
6.75358e-12
6.7001e-12
2.18292e-12
2.71726e-12
3.20846e-12
3.44699e-12
3.50158e-12
3.41522e-12
8.01e-11
3.28133e-12
3.60149e-12
3.91209e-12
4.19762e-12
4.52068e-12
4.90179e-12
5.33318e-12
5.72904e-12
6.04292e-12
6.1021e-12
5.93137e-12
4.8854e-12
4.35023e-12
-3.03677e-11
-2.34626e-11
-2.75e-11
-2.40782e-11
-1.10916e-10
-5.27681e-12
2.90792e-12
6.88953e-12
3.84932e-11
-8.89789e-12
-1.7451e-11
-1.11311e-10
-1.40213e-11
-1.05978e-11
-3.02261e-12
8.22699e-11
2.44022e-11
2.60776e-11
2.50631e-11
5.99815e-11
-4.45595e-12
-2.91196e-12
-4.13491e-12
-4.68895e-12
-5.35146e-12
-5.63627e-12
-5.62917e-12
-5.5155e-12
-5.472e-12
-5.42751e-12
-5.29193e-12
-5.0176e-12
-4.5898e-12
-4.5193e-11
-3.30601e-12
-3.27496e-12
-3.34715e-12
-3.34785e-12
-3.05656e-12
-2.40955e-12
-1.28297e-11
-1.62755e-11
-1.20693e-10
-2.43567e-11
-2.70387e-11
-1.69512e-10
-3.2671e-11
-3.3162e-11
-1.41929e-10
-1.20459e-11
-2.55073e-11
-2.35746e-10
-5.39279e-11
-5.44991e-11
-5.2484e-11
-2.40736e-10
-3.70094e-11
-3.22802e-11
-1.56907e-10
-2.85264e-11
-2.35462e-10
-2.97908e-10
-3.06825e-10
-2.85794e-10
-2.1234e-10
-1.48733e-10
-1.36829e-10
-1.55004e-10
-1.62889e-10
-1.6439e-10
-1.61211e-10
-1.51073e-10
-1.59074e-10
-1.81467e-10
-2.00835e-10
-2.12823e-10
-2.15062e-10
-2.15699e-10
-1.9362e-10
-2.41912e-10
-3.02075e-10
-3.03872e-10
-2.28222e-10
-1.20026e-10
-8.35634e-11
-1.09975e-10
-1.52218e-10
-1.63384e-10
-1.64542e-10
-1.61308e-10
-1.51212e-10
-1.58235e-10
-1.78107e-10
-1.94743e-10
-2.07808e-10
-2.13299e-10
-2.21485e-10
-1.75265e-10
-2.501e-10
-3.07169e-10
-2.93194e-10
-1.59091e-10
-6.22762e-11
-5.75616e-11
-8.47222e-11
-1.30746e-10
-1.62163e-10
-1.64173e-10
-1.61295e-10
-1.51295e-10
-1.57657e-10
-1.74778e-10
-1.8776e-10
-2.01044e-10
-2.09909e-10
-2.223e-10
-1.82508e-10
-2.59038e-10
-3.11543e-10
-2.68989e-10
-8.04367e-11
-1.13293e-12
-6.95328e-12
-3.01019e-11
-8.96992e-11
-1.56325e-10
-1.62594e-10
-1.62566e-10
-1.51345e-10
-1.57781e-10
-1.7262e-10
-1.85663e-10
-1.96356e-10
-2.06852e-10
-2.17182e-10
-2.09539e-10
-2.68387e-10
-3.13924e-10
-2.34877e-10
-2.32441e-12
7.08186e-11
6.75633e-11
4.28672e-11
-4.0984e-11
-1.44657e-10
-1.54967e-10
-1.49191e-10
-1.51191e-10
-1.58893e-10
-1.77674e-10
-1.99848e-10
-2.02938e-10
-2.06974e-10
-2.17011e-10
-1.90696e-10
-2.77692e-10
-3.14554e-10
-2.02803e-10
6.92118e-11
1.59336e-10
1.54232e-10
1.13686e-10
2.45427e-12
-1.28983e-10
-1.44067e-10
-1.40463e-10
-1.494e-10
-1.65933e-10
-2.04123e-10
-2.12962e-10
-1.82031e-10
-2.01984e-10
-2.38334e-10
-1.4679e-10
-2.8644e-10
-3.1496e-10
-1.82652e-10
1.19665e-10
2.39917e-10
2.13992e-10
1.50104e-10
2.03463e-11
-1.23706e-10
-1.4233e-10
-1.36795e-10