/*--------------------------------*- C++ -*----------------------------------*\
| =========                 |                                                 |
| \\      /  F ield         | OpenFOAM: The Open Source CFD Toolbox           |
|  \\    /   O peration     | Version:  4.1                                   |
|   \\  /    A nd           | Web:      www.OpenFOAM.org                      |
|    \\/     M anipulation  |                                                 |
\*---------------------------------------------------------------------------*/
FoamFile
{
    version     2.0;
    format      ascii;
    class       volScalarField;
    location    "17";
    object      p;
}
// * * * * * * * * * * * * * * * * * * * * * * * * * * * * * * * * * * * * * //

dimensions      [0 2 -2 0 0 0 0];

internalField   nonuniform List<scalar> 
1280
(
1.65823
0.0226609
1.8854
4.36256
6.15148
6.82666
7.38246
8.70866
9.1725
9.79237
10.198
9.99892
9.3433
8.91634
8.18357
4.63086
1.91823
-1.09216
-9.47809
-18.4249
-18.5188
-9.61001
11.2508
30.336
37.2258
42.1243
28.8049
21.8044
24.3307
23.6497
22.4037
21.0497
19.0438
16.5463
13.7364
10.5832
7.30696
3.54257
0.331414
-5.49364
-9.02664
0.0271023
5.45633
11.5349
28.3466
25.0477
25.5234
26.3331
26.9106
26.7659
26.7692
27.1153
26.5238
26.164
25.8881
27.9912
12.8834
8.5983
5.16482
-7.43153
-3.42492
3.0426
6.89425
11.2929
15.253
19.1011
22.6318
25.875
28.6771
30.7147
32.6299
34.5696
32.2492
25.9059
49.4074
46.8514
42.5091
24.0995
0.405534
-11.7119
-14.4459
-2.98861
-5.40411
-10.0668
-0.181868
-1.31629
-4.20577
4.43253
3.32912
2.87601
9.06866
7.31896
7.9389
9.87718
12.2725
7.99422
8.15951
8.52816
6.85527
1.58362
-0.370284
-1.00494
-1.4545
-0.265913
-3.5659
-2.65468
-3.09425
-2.55167
-1.64694
-0.131498
2.78477
6.72451
10.8758
3.24894
-0.0407384
-4.35122
-8.92575
-11.5634
-2.09079
-0.533036
-1.2531
-1.41441
-0.468248
-5.50686
-4.32951
-4.67778
-2.90288
-0.467441
3.03716
8.83674
16.6134
23.923
14.2972
4.92891
-8.55096
-26.6211
-32.75
-10.329
-0.957883
-2.48106
-3.42337
-2.99842
-6.81841
-5.07641
-5.10966
-2.89494
0.0161665
4.09395
10.8443
20.5852
29.3534
21.4705
7.16081
-13.3154
-41.0772
-48.0169
-16.9696
-1.21981
-3.19041
-4.76268
-6.17565
-9.33514
-6.78829
-6.12841
-3.5172
-0.0855034
4.54453
12.0914
23.6759
31.1604
25.8449
10.2758
-13.2419
-48.0845
-54.4923
-20.4072
-1.51915
-4.00892
-6.61194
-10.2048
-12.1885
-8.82117
-7.25351
-4.23691
-0.246682
4.85991
12.9004
25.916
30.3634
27.2094
11.8673
-10.5557
-50.7653
-55.0165
-22.1906
-1.73473
-4.56511
-8.31024
-14.2239
-14.7934
-10.8235
-8.24735
-4.95184
-0.577522
4.6863
12.6491
26.2719
27.0965
26.3325
11.8699
-6.48114
-48.532
-49.1094
-16.265
-1.88547
-4.9311
-9.98791
-17.821
-17.115
-12.7702
-9.20163
-5.73004
-1.11823
4.04226
11.4214
24.0217
21.6058
22.3171
10.2982
-1.84442
-44.0247
-45.888
-16.4215
-1.92657
-5.00211
-11.4028
-20.422
-18.8723
-14.4388
-10.0782
-6.51681
-1.78581
3.07727
9.51235
19.6668
13.8722
15.9134
8.67988
5.41296
-22.5264
-27.0775
2.07089
-1.86737
-4.8097
-12.457
-21.759
-19.8268
-15.6181
-10.7999
-7.2475
-2.5141
1.92075
7.2228
14.5327
5.21948
8.85149
8.52012
11.6368
-0.63306
8.71132
45.4656
-1.72603
-4.39165
-13.0034
-21.7496
-19.9189
-16.196
-11.3179
-7.87539
-3.25052
0.719042
4.89279
9.95396
-1.08726
3.70353
10.7021
15.8182
7.06483
18.5738
43.5304
-1.54209
-3.82424
-12.9759
-20.5639
-19.2135
-16.1609
-11.5954
-8.35227
-3.93506
-0.385622
2.80541
6.47788
-3.13086
1.14252
13.3234
20.3768
15.583
21.6795
42.0669
-1.3573
-3.17173
-12.374
-18.5096
-17.8324
-15.5642
-11.5932
-8.63914
-4.53188
-1.34532
1.0527
3.60804
-3.58852
-0.576858
13.5771
22.5542
19.0025
20.5195
47.4661
-1.2268
-2.49824
-11.3009
-16.0019
-16.0521
-14.5522
-11.3117
-8.70682
-4.97991
-2.09319
-0.268504
0.997307
-4.1808
-2.10649
12.7925
19.1822
19.5192
19.3815
13.1737
-1.19967
-1.85092
-9.90681
-13.3384
-14.0023
-13.2024
-10.7289
-8.54656
-5.29787
-2.71576
-1.22481
-1.13993
-2.89189
-2.66068
11.6452
18.1247
18.2618
15.1635
7.01237
-1.23576
-1.17791
-8.47987
-11.0747
-12.0353
-11.7135
-9.90634
-8.1268
-5.34498
-2.96081
-1.48504
-2.58394
0.573555
-2.40779
10.5332
15.485
16.4678
14.139
9.61057
-1.34815
-0.481276
-6.76864
-8.85081
-9.92934
-9.94488
-8.74665
-7.44792
-5.3141
-3.33312
-1.80267
-4.50328
2.20644
-2.0737
8.96613
13.0192
14.3046
11.4563
9.99281
-1.76624
-0.454073
-5.67396
-7.21804
-8.18892
-8.26751
-7.44133
-6.46842
-4.74212
-2.74782
-0.575902
-6.19988
-0.146389
-2.19026
7.0462
10.2334
11.4329
9.33009
8.25199
-0.83968
1.15556
-3.42216
-4.93308
-5.88298
-6.14162
-5.73425
-5.28046
-4.473
-3.43497
-1.1326
-6.26201
-3.04173
-1.22223
5.40372
7.89712
8.54143
6.87906
6.33284
-1.46909
-0.227177
-2.85398
-3.64357
-4.30402
-4.41248
-4.19195
-3.91267
-2.92278
-0.590083
3.4153
1.43035
-4.30863
-0.65997
3.36206
5.28273
5.54158
4.63201
4.14137
-0.24312
1.40705
0.185254
-0.473385
-1.06468
-1.54209
-1.7166
-1.77122
-2.08434
-3.56582
-4.84262
-1.2009
-5.14883
-1.8432
-1.09632
0.0947149
1.35392
1.3501
1.51723
24.0781
26.1473
28.8576
31.1908
31.4911
30.9703
29.4168
27.617
25.7723
24.316
23.2348
22.6291
22.5386
22.9621
23.8015
25.0578
26.4917
28.3532
29.9842
32.4378
-38.0192
-38.5403
-37.9735
-37.5515
-37.9676
-38.7908
-39.856
-41.2988
-42.9118
-44.5741
-46.0236
-47.0199
-47.3321
-46.7589
-45.3294
-43.0863
-40.5146
-37.4722
-34.8804
-30.9489
17.3843
9.88356
4.60243
0.432774
-3.61345
-8.05027
-12.3163
-16.6245
-20.8657
-25.1883
-29.5396
-33.8579
-37.932
-41.4554
-44.1427
-45.8474
-46.5781
-46.8359
-47.3897
-46.1689
65.1531
59.1434
54.7612
49.8964
45.7316
41.3635
37.2851
33.2306
29.5895
26.2595
23.4188
21.0665
19.287
18.072
17.3763
17.0523
17.1306
17.6392
16.8258
12.877
106.005
105.302
105.301
105.172
104.999
104.418
103.75
102.479
100.699
98.0191
94.2885
89.239
82.9361
75.8046
68.8161
62.9614
58.9703
57.3683
57.4901
54.193
78.2034
80.1957
81.011
82.1025
83.24
84.2303
85.4903
86.6078
87.7957
88.8612
89.7913
90.3799
90.4645
89.8182
88.3651
86.3249
84.5219
83.2471
83.2972
82.651
65.9456
68.233
69.5729
70.6776
72.1475
72.9945
74.191
75.014
75.846
76.5123
77.1012
77.6817
78.357
79.2524
80.4458
81.8939
83.4445
84.9487
86.0203
87.0877
40.5964
43.0332
44.833
45.9182
47.9252
48.9929
50.6922
51.9918
53.432
54.7934
56.1315
57.4493
58.7452
60.0605
61.4127
62.8992
64.4188
66.1746
67.5339
69.3624
18.8753
20.7872
22.7885
23.4775
25.8008
26.6983
28.66
29.996
31.6585
33.1917
34.7579
36.317
37.8616
39.422
40.9645
42.575
44.1112
45.8543
47.1647
49.2028
-9.00812
-8.78841
-6.76952
-7.07575
-4.84366
-4.72884
-2.87676
-2.03019
-0.440204
0.919943
2.54108
4.23027
6.05062
8.00258
10.0178
12.1833
14.3251
16.8403
18.8823
22.1485
-23.254
-26.5029
-25.8267
-28.4653
-28.2191
-30.5912
-30.9712
-32.8227
-33.6305
-34.9389
-35.6505
-36.163
-36.0732
-35.4351
-34.2708
-32.6195
-30.7926
-28.5968
-26.9208
-23.3028
4.09014
-0.898324
-1.28534
-5.47652
-6.67319
-10.5662
-12.634
-16.3397
-19.2062
-22.9079
-26.2504
-29.747
-32.8264
-35.5556
-37.6664
-39.319
-40.3578
-40.5044
-41.0156
-39.4558
48.4186
45.0672
45.4679
42.1172
42.3776
39.54
39.1303
36.9372
35.9141
34.1653
32.8743
31.3946
30.0454
28.5425
26.9374
25.1374
23.2043
21.7048
19.6888
15.9944
61.9255
61.82
63.9366
62.5199
65.1669
64.1221
65.9575
65.622
66.4307
66.2652
66.2276
65.72
65.0201
64.0379
62.8707
61.4886
60.0587
59.0679
58.6236
56.9006
36.8805
37.6172
41.1845
40.2326
44.3463
44.2238
47.2894
48.4455
50.6756
52.4255
54.3474
56.0908
57.6135
58.7127
59.2777
59.2846
59.1949
59.6472
60.7564
62.1688
14.4206
12.8575
16.3181
13.4382
17.1037
15.7953
17.9802
18.4872
19.9928
21.3443
22.9325
24.6505
26.4909
28.4563
30.4945
32.6491
34.7738
37.0552
39.0081
41.8499
19.2246
14.9905
17.2364
10.7448
11.0908
6.47051
4.69699
1.51505
-0.845618
-3.3137
-5.46088
-7.3991
-9.03645
-10.2731
-10.922
-10.6032
-9.266
-7.21076
-5.87246
-3.16097
29.0126
21.3101
29.0243
21.4353
22.8159
18.7784
16.7842
13.4708
10.412
7.01687
3.60014
0.082383
-3.41907
-6.75945
-9.6638
-11.6378
-12.036
-11.9515
-12.5073
-11.4823
52.1206
29.2477
37.3562
26.0927
23.32
16.5883
11.6375
6.3794
1.88627
-2.06675
-5.22752
-7.54346
-8.89717
-9.20121
-8.36052
-6.10492
-2.59874
0.778599
3.4256
4.73056
738.62
655.887
606.826
550.581
501.568
454.235
410.203
368.587
329.404
292.377
257.346
224.123
192.523
162.545
134.334
107.153
81.2698
60.7071
36.7824
-0.37342
733.981
651.249
602.189
545.945
496.932
449.599
405.567
363.951
324.768
287.741
252.71
219.486
187.886
157.908
129.696
102.515
76.6309
56.0663
32.1406
-5.01503
47.4954
24.6226
32.7313
21.4679
18.6955
11.964
7.01341
1.75551
-2.73742
-6.69026
-9.85087
-12.1667
-13.5202
-13.8241
-12.9827
-10.726
-7.22023
-3.8427
-1.19471
0.108004
24.3809
16.6766
24.3898
16.7994
18.1788
14.1398
12.1442
8.82921
5.76883
2.37194
-1.04666
-4.56638
-8.06974
-11.4117
-14.3171
-16.2906
-16.6891
-16.6066
-17.1651
-16.1416
14.5607
10.3237
12.5681
6.07461
6.41833
1.79598
0.0202346
-3.16422
-5.5273
-7.99803
-10.1478
-12.0886
-13.7283
-14.9668
-15.6168
-15.2976
-13.9601
-11.9059
-10.5692
-7.85678
9.73654
8.17179
11.6331
8.75239
12.4179
11.1091
13.2938
13.8008
15.3064
16.6583
18.247
19.9658
21.8071
23.7735
25.8125
27.9678
30.0932
32.3759
34.3305
37.1751
32.2304
32.9672
36.5376
35.5855
39.7015
39.5802
42.6468
43.8042
46.0342
47.7842
49.7047
51.4462
52.9662
54.0623
54.6253
54.6337
54.551
55.0157
56.1308
57.5451
57.2718
57.1731
59.2909
57.8772
60.5254
59.4832
61.3194
60.9865
61.7966
61.6339
61.5985
61.094
60.3977
59.4204
58.2605
56.8886
55.4698
54.4854
54.0455
52.3306
43.9147
40.5716
40.975
37.63
37.8967
35.0651
34.6625
32.4761
31.46
29.718
28.4331
26.9585
25.6122
24.1096
22.5018
20.6941
18.7524
17.2518
15.2373
11.5336
-0.449845
-5.44295
-5.83287
-10.0287
-11.2296
-15.1273
-17.1998
-20.91
-23.7811
-27.487
-30.8324
-34.3309
-37.4107
-40.1378
-42.2461
-43.8988
-44.9336
-45.0785
-45.5919
-44.0395
-27.9043
-31.163
-30.49
-33.1327
-32.8912
-35.2669
-35.6512
-37.5061
-38.3174
-39.6288
-40.3426
-40.8569
-40.7689
-40.1334
-38.9731
-37.3285
-35.51
-33.3196
-31.6454
-28.0282
-13.7302
-13.5161
-11.497
-11.8055
-9.57468
-9.46223
-7.61176
-6.76794
-5.18026
-3.82334
-2.20535
-0.51969
1.29727
3.24605
5.25865
7.42335
9.56533
12.0829
14.127
17.3958
14.1726
16.0838
18.0864
18.7749
21.0992
21.9966
23.9592
25.2954
26.9587
28.4926
30.0596
31.6197
33.1654
34.7272
36.2712
37.8836
39.4217
41.1666
42.4782
44.5192
35.8985
38.3353
40.1354
41.2204
43.2278
44.2956
45.9954
47.295
48.7354
50.0968
51.4346
52.7524
54.0485
55.3642
56.7169
58.2032
59.722
61.4765
62.8342
64.663
61.2102
63.4965
64.835
65.9381
67.407
68.253
69.4492
70.2731
71.108
71.7796
72.3783
72.9715
73.6615
74.5702
75.7694
77.2194
78.7669
80.2681
81.3374
82.4105
73.5182
75.5165
76.3397
77.439
78.5866
79.5882
80.8611
81.9924
83.1947
84.2752
85.2157
85.8065
85.8854
85.2176
83.7437
81.6953
79.8918
78.6317
78.6931
78.058
101.248
100.57
100.577
100.464
100.303
99.7313
99.0711
97.8055
96.0282
93.3521
89.6265
84.5869
78.2986
71.1853
64.2244
58.3969
54.4296
52.841
52.9723
49.7077
60.8463
54.8423
50.4738
45.6378
41.5015
37.1777
33.1507
29.1516
25.5643
22.283
19.4808
17.1527
15.3805
14.1578
13.4441
13.1101
13.1938
13.7317
12.9464
8.96968
11.8282
4.28707
-0.860601
-4.88486
-8.83141
-13.1813
-17.385
-21.6563
-25.8869
-30.2255
-34.6065
-38.9394
-42.9998
-46.494
-49.1264
-50.7596
-51.4217
-51.6156
-52.1379
-50.9249
-44.3499
-44.8386
-43.9352
-43.2279
-43.4409
-44.1025
-45.0586
-46.4082
-47.9375
-49.5249
-50.9038
-51.8229
-52.0571
-51.4238
-49.9535
-47.694
-45.123
-42.0909
-39.5148
-35.5634
16.8187
19.0617
22.0714
24.654
25.0811
24.6053
22.9519
21.3687
19.841
18.6119
17.7168
17.274
17.3134
17.8378
18.7542
20.0729
21.5577
23.4823
25.1611
27.732
)
;

boundaryField
{
    outletWall
    {
        type            fixedValue;
        value           uniform 0;
    }
    fineWalls
    {
        type            zeroGradient;
    }
    fineFrontAndBack
    {
        type            zeroGradient;
    }
    fineplugLeft
    {
        type            cyclicAMI;
        value           nonuniform List<scalar> 
20
(
24.8515
24.0537
23.3911
22.6547
22.1629
21.7885
21.6789
21.8396
22.3132
23.0686
24.1827
25.484
26.4545
29.3472
33.2011
32.638
31.0198
25.3363
18.9958
15.5588
)
;
    }
    fineplugRight
    {
        type            cyclicAMI;
        value           nonuniform List<scalar> 
20
(
21.5006
20.7374
20.1647
19.5047
19.1089
18.8236
18.7966
19.0257
19.5546
20.3164
21.4155
22.7867
23.5448
23.2878
29.5657
29.4352
28.225
22.4771
15.3305
11.1126
)
;
    }
    inletOutletLeft
    {
        type            cyclicAMI;
        value           nonuniform List<scalar> 
20
(
24.8515
24.0537
23.3911
22.6547
22.1629
21.7885
21.6789
21.8396
22.3132
23.0686
24.1827
25.484
26.4545
29.3472
33.2011
32.638
31.0198
25.3363
18.9958
15.5588
)
;
    }
    inletLeft
    {
        type            zeroGradient;
    }
    inletWallsLeft
    {
        type            zeroGradient;
    }
    inletFacesLeft
    {
        type            zeroGradient;
    }
    inletOutletRight
    {
        type            cyclicAMI;
        value           nonuniform List<scalar> 
20
(
21.5006
20.7374
20.1647
19.5047
19.1089
18.8236
18.7966
19.0257
19.5546
20.3164
21.4155
22.7867
23.5448
23.2878
29.5657
29.4352
28.225
22.4771
15.3305
11.1126
)
;
    }
    inletRight
    {
        type            zeroGradient;
    }
    inletWallsRight
    {
        type            zeroGradient;
    }
    inletFacesRight
    {
        type            zeroGradient;
    }
}


// ************************************************************************* //
