/*--------------------------------*- C++ -*----------------------------------*\
| =========                 |                                                 |
| \\      /  F ield         | OpenFOAM: The Open Source CFD Toolbox           |
|  \\    /   O peration     | Version:  4.1                                   |
|   \\  /    A nd           | Web:      www.OpenFOAM.org                      |
|    \\/     M anipulation  |                                                 |
\*---------------------------------------------------------------------------*/
FoamFile
{
    version     2.0;
    format      ascii;
    class       surfaceScalarField;
    location    "17";
    object      phi;
}
// * * * * * * * * * * * * * * * * * * * * * * * * * * * * * * * * * * * * * //

dimensions      [0 3 -1 0 0 0 0];

internalField   nonuniform List<scalar> 
2360
(
-11477.7
-8185.04
-3292.65
-8185.04
-8185.04
-5105.04
-3080
-5105.04
-5105.04
-5105.04
-1846.01
-3259.03
-1846.01
-1846.01
1987.15
-3833.16
1987.15
1987.15
6789.64
-4802.48
6789.64
6789.63
12977
-6187.4
12977
12977
13257.3
14417.8
16216.6
18104.5
19846.6
21419.3
18588.9
4298.3
19926.2
21159.3
22289.6
23317.5
24243
25067.6
25793.4
26423.8
26961.4
27409.6
27767.8
28036.9
28178.7
15712.3
12466.4
15712.3
15712.3
15712.3
2955.69
12756.6
2955.69
2955.69
2955.69
-276.886
3232.58
-276.881
-276.879
-2958.5
2681.62
-2958.49
-2958.49
-2958.49
-15434.8
12476.3
-15434.8
-15434.8
-15434.8
-29241
13806.2
-29116.9
-28862.6
-28517.4
-28080.9
-27554.2
-26934.2
-26218.4
-25403.2
-24486
-23465.1
-22339.8
-21109
-19770.8
-25320.3
7022.48
-23754.9
-22017
-20126
-18301
-17088.3
-16763.5
-16763.5
-16763.5
-15835.1
-928.383
-15835.1
-15835.1
-13865.4
-1969.72
-13865.4
-13865.4
-10545.7
-3319.67
-10545.7
-10545.7
-6070.33
-4475.42
-6070.33
-6070.33
-6070.33
-1205.23
-4865.1
-1205.23
-1205.23
4510.74
-5715.97
-5396.79
-9416.54
-4724.31
-12759.6
-3399.3
-12037.6
-2070.72
-921.787
-1969.58
12337.7
-1928.49
16965.4
-1797.88
20596.3
-1576.35
23556.4
-1266.24
25532.8
-874.332
26061.7
-411.128
24147.6
231.904
18498.8
1917.99
2814.6
3421.65
-15643.9
4728.36
-19914.7
6356.19
-18353.2
7457.26
-5005.98
7184.33
10563.6
14259
-4642.02
-9632.31
-4075.94
-13325.7
-2992.26
-13121.3
-1791.13
-2122.91
-1882.02
12428.6
-1970.64
17054.1
-1864.44
20490.1
-1671.48
23363.5
-1397.99
25259.3
-1070.19
25733.9
-712.938
23790.3
-108.342
17894.3
1931.08
775.182
2523.18
-16236
2882.88
-20274.4
4458.78
-19929.1
6420.79
-6968
6725.49
10258.9
16119.4
-4218.91
-9846.43
-3675.62
-13869
-2813.73
-13983.1
-1747.47
-3189.17
-1794.11
12475.3
-2035.39
17295.3
-1977.03
20431.7
-1814.46
23200.9
-1594.82
25039.6
-1350.32
25489.4
-1159.86
23599.9
-689.126
17423.5
866.466
-780.409
-66.7361
-15302.8
-566.949
-19774.2
771.413
-21267.5
3556.49
-9753.07
5287.35
8528.07
16931.3
-3778.73
-10023.6
-3271.26
-14376.4
-2571.01
-14683.4
-1772.43
-3987.75
-1780.03
12482.9
-2088.19
17603.5
-2133.34
20476.9
-1995.9
23063.5
-1836.55
24880.3
-1693.63
25346.5
-1695.88
23602.1
-1425.71
17153.3
-1263.01
-943.106
-3314.52
-13251.3
-4001.84
-19086.9
-2735.77
-22533.6
318.241
-12807.1
2744.08
6102.23
16355.7
-3373.84
-10133.5
-2942.54
-14807.7
-2453.73
-15172.2
-1988.28
-4453.21
-1879.07
12373.6
-2152.75
17877.2
-2322.1
20646.2
-2228.64
22970
-2121.4
24773
-2091.17
25316.2
-2285.28
23796.2
-2397.86
17265.9
-4004.47
663.505
-6359.79
-10895.9
-7164.51
-18282.1
-6183.16
-23514.9
-3055.09
-15935.2
-259.212
3306.35
14126.8
-2994.63
-10145.5
-2696.65
-15105.7
-2475.04
-15393.8
-2381.27
-4546.98
-2137.4
12129.8
-2271.84
18011.6
-2521.95
20896.3
-2509.7
22957.8
-2442.02
24705.4
-2516.95
25391.2
-2890.44
24169.7
-3598.41
17973.9
-6337.47
3402.56
-8815.92
-8417.48
-9858.74
-17239.3
-9586.83
-23786.8
-6515.51
-19006.5
-2630.49
-578.673
10567.9
-2651.11
-10039.5
-2549.55
-15207.3
-2673.48
-15269.9
-2957.67
-4262.8
-2586.43
11758.5
-2492.19
17917.4
-2728.79
21132.9
-2820.37
23049.3
-2794.27
24679.3
-2942.95
25539.8
-3464.52
24691.3
-4710.97
19220.3
-7909.58
6601.17
-10062.3
-6264.8
-11154.9
-16146.7
-12135.6
-22806.1
-10890.2
-20251.9
-6539.02
-4929.82
11051.4
-2383.56
-9815.81
-2530.72
-15060.1
-3069.38
-14731.2
-3695.68
-3636.49
-3211.79
11274.7
-2850.52
17556.1
-2962.68
21245.1
-3137.22
23223.9
-3171.7
24713.7
-3351.92
25720.1
-3962.59
25301.9
-5499.85
20757.6
-8434.39
9535.71
-9650.17
-5049.02
-10560.7
-15236.2
-13034.3
-20332.5
-15506.3
-17779.9
-15021.2
-5414.97
9836.42
-2234.68
-9491.39
-2668.66
-14626.1
-3665.58
-13734.3
-4557.23
-2744.84
-3972.22
10689.6
-3358.04
16941.9
-3257
21144
-3447.15
23414
-3558.85
24825.4
-3742.14
25903.3
-4357.68
25917.5
-5852.74
22252.7
-7818.43
11501.4
-7730.55
-5136.89
-8615.89
-14350.9
-11966.9
-16981.5
-15359.4
-14387.4
-16253.9
-4520.51
6058.87
-2238.34
-9080.89
-2990.35
-13874.1
-4437.83
-12286.8
-5483.81
-1698.86
-4816.06
10021.9
-3996.98
16122.8
-3642.56
20789.6
-3757.23
23528.7
-3936.73
25004.9
-4121.83
26088.4
-4670.79
26466.4
-5886.57
23468.4
-6580.17
12195
-5318.37
-6398.7
-6500.3
-13168.9
-10830.5
-12651.2
-12465.5
-12752.4
-9564.69
-7421.3
-824.205
-2407.88
-8571.75
-3511.68
-12770.3
-5340.03
-10458.5
-6409.8
-629.08
-5686.26
9298.35
-4729.9
15166.5
-4135.2
20194.9
-4093.46
23487
-4296.1
25207.6
-4497.58
26289.9
-4950.12
26919
-5838.21
24356.5
-5660.31
12017.1
-3804.93
-8254.08
-4567.65
-12406.2
-9778.37
-7440.53
-13885.4
-8645.36
-11582.3
-9724.42
-9173.93
-2758.16
-7916.54
-4235.48
-11293
-6308.03
-8385.92
-7273.88
336.779
-6528.7
8553.16
-5509.73
14147.5
-4727.89
19413.1
-4485.93
23245
-4643.84
25365.5
-4866.96
26513.1
-5220.84
27272.9
-5766.71
24902.4
-5017.22
11267.6
-3156.39
-10114.9
-2593.41
-12969.2
-5006.27
-5027.67
-10522.9
-3128.74
-14527.8
-5719.51
-10945.1
-3323.7
-7052.66
-5144.79
-9471.92
-7265.05
-6265.65
-8028.7
1100.43
-7305.61
7830.08
-6294.53
13136.4
-5396.94
18515.5
-4956.02
22804.1
-5003.38
25412.8
-5228
26737.7
-5482.64
27527.5
-5598.29
25018.1
-3997.87
9667.2
-2373.89
-11738.9
-1663.34
-13679.7
900.69
-7591.7
-45.4015
-2182.65
-6457.96
693.049
-4936.69
-4144.36
-5944.99
-6191.04
-7425.25
-8140.25
-4316.45
-8655.77
1615.95
-7997.01
7171.32
-7053.51
12192.9
-6112.3
17574.3
-5509.21
22201
-5406.49
25310.1
-5595.4
26926.6
-5748.32
27680.4
-5346.88
24616.6
-2584.47
6904.79
-1177.77
-13145.6
-1037.36
-13820.1
521.848
-9150.9
2987.09
-4647.89
3749.07
-68.9272
3110.68
-5212.79
-4627.42
-7277.07
-5360.96
-8866.62
-2726.89
-9170.65
1919.98
-8618.32
6618.99
-7793.16
11367.8
-6875.29
16656.4
-6165.68
21491.4
-5899.61
25044
-5997.77
27024.7
-6024.77
27707.4
-5083.38
23675.2
-1445.85
3267.25
-234.504
-14356.9
-353.823
-13700.8
1214.79
-10719.5
2699.99
-6133.09
4597.35
-1966.28
1520.62
-6428.45
-3187.73
-8312.08
-3477.33
-9430.27
-1608.7
-9557.3
2047.01
-9134.42
6196.1
-8473.46
10706.8
-7640.57
15823.5
-6880.69
20731.5
-6461.21
24624.6
-6445.2
27008.7
-6330.14
27592.4
-4799.74
22144.8
-1010.68
-521.809
-50.7903
-15316.8
221.177
-13972.8
1651.88
-12150.2
3053.69
-7534.9
4257.12
-3169.71
975.254
-7588.07
-1723.65
-9212.83
-1852.57
-9954.62
-866.905
-9951.9
2044.29
-9594.35
5838.55
-9070.7
10183.2
-8350.98
15103.8
-7604.24
19984.8
-7108.32
24128.6
-7025.55
26926
-6651.42
27218.3
-4038.6
19532
-561.452
-3998.95
-129.736
-15748.5
670.097
-14772.6
2011.58
-13491.7
3188.13
-8711.46
3844.11
-3825.69
986.208
-8540.19
-361.609
-9923.03
-469.725
-10434.2
-355.778
-10361.4
1971.56
-9994.52
5471.64
-9522.25
9710.89
-8898.66
14480.2
-8242.88
19329
-7858.35
23744.1
-7872.24
26939.8
-7049.25
26395.3
-2813.71
15296.5
259.548
-7072.21
85.5603
-15574.6
1103.31
-15790.4
2284.88
-14673.3
3211.81
-9638.39
3516.57
-4130.45
1243.75
-8885.39
1420.92
-10842.3
1487.22
-11441.2
243.093
-11332
1862.34
-10802.8
4942.41
-10185.4
9093.53
-9588.07
13882.9
-9187.23
18928.1
-9194.99
23751.9
-9200.45
26945.3
-7301.41
24496.2
-2204.12
10199.2
378.364
-9654.69
406.414
-15602.6
1418.48
-16802.4
2442.52
-15697.3
3132.13
-10328
3320.23
-4318.55
1483.98
-5815.37
-9289.66
-11191.6
-12067.4
-12219
-11997.8
-11725
-11565.5
-11363.7
-10198.6
-6675.81
-1910.65
61.9024
580.286
1574.65
2512.31
3063.38
3457.57
-14.1388
-266.158
232.224
-1406.79
507.385
-2073.96
750.942
-2131.46
960.165
-1951.39
1148.8
-1761.29
1283.52
-1602.66
1412.38
-1466.18
1512.94
-1333.67
1582.39
-1199.73
1618.54
-1063.99
1619.99
-927.025
1585.46
-790.02
1513.13
-653.48
1400.79
-518.044
1244.19
-381.069
1037.32
-241.356
767.904
-88.734
426.471
72.3397
284.667
603.051
-869.21
977.263
-1781
998.364
-2095.06
907.396
-2040.5
855.413
-1899.41
862.296
-1768.18
904.475
-1644.84
950.589
-1512.3
987.376
-1370.46
1007.68
-1220.04
1007.11
-1063.42
981.664
-901.584
927.419
-735.777
841.522
-567.585
724.678
-401.203
582.227
-238.62
421.08
-80.2106
248.183
84.161
72.0579
248.462
356.725
638.666
-1507.88
982.203
-2124.54
881.237
-1994.1
667.904
-1827.16
503.781
-1735.29
376.525
-1640.92
255.617
-1523.94
128.252
-1384.93
-5.84401
-1236.37
-144.646
-1081.24
-285.5
-922.568
-427.386
-759.701
-569.125
-594.042
-706.31
-430.404
-826.463
-281.053
-904.949
-160.137
-908.368
-76.7936
-783.819
-40.3902
-480.165
-55.1959
-123.44
120.934
-1628.81
29.6119
-2033.22
-187.509
-1776.98
-399.247
-1615.43
-599.357
-1535.18
-800.663
-1439.62
-1004.3
-1320.3
-1209.38
-1179.86
-1415.92
-1029.82
-1624.39
-872.767
-1831.9
-715.063
-2028.81
-562.787
-2197.18
-425.677
-2308.44
-319.146
-2319.92
-269.569
-2176.45
-303.614
-1826.89
-426.352
-1258.12
-609.162
-545.881
-767.436
-669.321
-220.277
-1408.54
-328.193
-1925.31
-397.728
-1707.45
-508.947
-1504.21
-668.858
-1375.27
-846.652
-1261.82
-1015.73
-1151.22
-1167.1
-1028.49
-1296.96
-899.965
-1403.01
-766.716
-1481.52
-636.562
-1526.4
-517.905
-1524.99
-427.089
-1460.69
-383.443
-1315.59
-414.679
-1081.24
-537.965
-768.021
-739.569
-424.937
-952.247
-152.493
-1039.88
-821.814
-121.457
-1287.08
-54.3253
-1992.44
40.1808
-1801.95
80.3899
-1544.42
93.2564
-1388.14
98.7033
-1267.27
115.117
-1167.64
151.913
-1065.28
216.035
-964.087
311.615
-862.296
437.599
-762.546
586.593
-666.9
743.217
-583.712
883.495
-523.721
973.251
-504.435
971.701
-536.415
845.315
-613.183
595.743
-702.675
280.014
-724.153
-541.8
-2.33777
-1284.75
51.461
-2046.24
122.699
-1873.19
188.64
-1610.36
260.714
-1460.21
334.356
-1340.91
411.391
-1244.67
494.323
-1148.22
586.23
-1056
689.879
-965.947
805.192
-877.86
928.905
-790.614
1049.14
-703.948
1145.51
-620.091
1186.15
-545.078
1137.73
-487.989
979.555
-455.009
710.597
-433.716
375.115
-388.669
-166.686
112.469
-1397.21
168.176
-2101.95
207.323
-1912.34
253.817
-1656.86
318.084
-1524.48
383.795
-1406.62
449.295
-1310.17
510.278
-1209.2
567.14
-1112.86
618.269
-1017.07
663.023
-922.613
701.491
-829.081
734.012
-736.468
758.264
-644.343
765.998
-552.812
738.907
-460.897
654.67
-370.773
493.019
-272.065
256.328
-151.978
89.6429
206.503
-1603.72
249.119
-2144.56
262.371
-1925.59
301.725
-1696.21
365.466
-1588.22
428.016
-1469.18
494.067
-1376.22
558.394
-1273.53
622.847
-1177.31
681.584
-1075.81
729.77
-970.8
761.194
-860.506
771.314
-746.588
756.95
-629.98
716.318
-512.18
646.374
-390.954
542.069
-266.467
392.315
-122.31
196.908
43.43
286.551
259.067
-1862.78
251.92
-2137.42
255.346
-1929.02
300.935
-1741.8
370.81
-1658.09
438.467
-1536.83
515.732
-1453.49
594.76
-1352.56
678.813
-1261.36
757.256
-1154.26
823.963
-1037.51
868.565
-905.109
884.109
-762.131
866.145
-612.015
811.975
-458.01
716.799
-295.778
577.155
-126.822
385.967
68.8788
193.302
236.096
479.853
192.663
-2055.45
110.59
-2055.34
101.396
-1919.82
125.646
-1766.05
165.141
-1697.59
206.95
-1578.64
262.168
-1508.71
323.044
-1413.43
391.003
-1329.32
453.277
-1216.53
502.041
-1086.27
522.431
-925.499
508.253
-747.953
461.894
-565.657
385.755
-381.871
282.873
-192.896
188.655
-32.6048
112.751
144.782
7.82735
341.019
487.68
14.1639
-2069.61
-102.583
-1938.59
-158.572
-1863.83
-209.048
-1715.57
-255.003
-1651.63
-298.928
-1534.72
-338.055
-1469.58
-373.039
-1378.45
-403.866
-1298.49
-432.224
-1188.17
-463.633
-1054.86
-506.472
-882.658
-563.201
-691.222
-625.485
-503.37
-681.922
-325.432
-725.556
-149.26
-749.185
-8.97554
-694.424
90.0216
-477.042
123.638
10.6386
-93.5164
-1976.09
-179.9
-1852.21
-262.955
-1780.78
-362.993
-1615.53
-460.822
-1553.8
-570.883
-1424.66
-688.603
-1351.86
-815.615
-1251.43
-946.374
-1167.73
-1070.8
-1063.75
-1182.57
-943.089
-1276.62
-788.601
-1355.76
-612.087
-1423.26
-435.868
-1464.3
-284.386
-1431.5
-182.059
-1280.89
-159.585
-959.648
-231.223
-468.153
-367.856
-457.514
-39.9943
-1936.1
-63.0308
-1829.17
-92.1708
-1751.63
-141.539
-1566.16
-188.017
-1507.32
-248.619
-1364.05
-318.304
-1282.17
-399.703
-1170.03
-488.28
-1079.15
-571.82
-980.205
-633.714
-881.194
-652.363
-769.95
-618.016
-646.433
-538.644
-515.238
-429.438
-393.591
-292.59
-318.904
-126.646
-325.526
29.6486
-387.516
92.5606
-430.766
-364.953
44.7541
-1980.85
70.5459
-1854.96
107.892
-1788.98
140.336
-1598.61
172.476
-1539.46
206.682
-1398.25
236.226
-1311.71
266.816
-1200.62
292.854
-1105.19
320.173
-1007.52
353.915
-914.935
408.245
-824.278
495.301
-733.487
617.872
-637.808
757.967
-533.685
862.591
-423.527
859.029
-321.964
697.895
-226.381
394.473
-127.343
29.5197
60.9571
-2041.81
73.7632
-1867.77
114.19
-1829.41
160.655
-1645.07
207.285
-1586.09
263.117
-1454.08
320.345
-1368.94
385.295
-1265.57
454.493
-1174.39
528.794
-1081.82
605.737
-991.877
682.28
-900.819
753.472
-804.679
811.09
-695.424
839.745
-562.34
812.752
-396.533
724.488
-233.701
562.98
-64.8734
320.074
115.562
349.594
0.725487
-2042.53
-28.6227
-1838.42
-31.1402
-1826.89
-15.5408
-1660.67
2.18105
-1603.81
38.1253
-1490.03
80.612
-1411.43
135.966
-1320.92
201.849
-1240.27
279.384
-1159.36
368.088
-1080.58
464.633
-997.363
559.696
-899.741
632.91
-768.638
646.031
-575.46
547.307
-297.809
340.336
-26.7279
171.003
104.461
55.0407
231.527
404.635
-170.405
-1872.13
-352.617
-1656.21
-499.459
-1680.04
-604.017
-1556.11
-698.675
-1509.15
-760.468
-1428.24
-807.149
-1364.74
-831.882
-1296.19
-839.786
-1232.37
-830.024
-1169.12
-803.768
-1106.84
-761.265
-1039.87
-703.502
-957.504
-631.386
-840.753
-543.794
-663.052
-436.725
-404.877
-333.536
-129.917
-245.964
16.8901
-169.609
155.172
235.026
-222.116
-1650.01
-487.936
-1390.39
-767.437
-1400.54
-1007.08
-1316.47
-1238.2
-1278.03
-1438.26
-1228.18
-1616.63
-1186.37
-1768.78
-1144.04
-1897.61
-1103.53
-2003.23
-1063.51
-2086.13
-1023.93
-2142.8
-983.198
-2162.72
-937.583
-2122.97
-880.501
-1981.74
-804.277
-1682.49
-704.132
-1231.11
-581.294
-774.867
-439.353
-345.291
-274.403
-110.265
-675.009
-1090.39
-1515.94
-1857.4
-2160.44
-2413.61
-2624.98
-2794.03
-2922.55
-3011.06
-3059.99
-3068.19
-3030.77
-2936.28
-2765.55
-2494.68
-2100.98
-1565.33
-864.735
-674.993
1649.99
-1090.36
1390.37
-1515.89
1400.53
-1857.34
1316.45
-2160.36
1278.02
-2413.53
1228.16
-2624.89
1186.36
-2793.92
1144.03
-2922.43
1103.52
-3010.93
1063.5
-3059.86
1023.93
-3068.05
983.192
-3030.62
937.572
-2936.1
880.48
-2765.36
804.254
-2494.48
704.123
-2100.81
581.329
-1565.24
439.433
-864.704
274.464
110.296
-222.126
1872.12
-487.963
1656.21
-767.482
1680.05
-1007.15
1556.12
-1238.3
1509.17
-1438.39
1428.26
-1616.8
1364.77
-1768.98
1296.22
-1897.87
1232.4
-2003.54
1169.16
-2086.5
1106.89
-2143.21
1039.91
-2163.15
957.509
-2123.35
840.685
-1981.97
662.872
-1682.49
404.638
-1231.06
129.902
-774.845
-16.7837
-345.193
-155.188
-234.897
-170.452
2042.57
-352.706
1838.46
-499.592
1826.93
-604.198
1660.73
-698.906
1603.87
-760.75
1490.1
-807.487
1411.51
-832.276
1321.01
-840.241
1240.37
-830.542
1159.47
-804.356
1080.7
-761.925
997.477
-704.233
899.817
-632.169
768.622
-544.575
575.278
-437.428
297.492
-334.159
26.6334
-246.445
-104.497
-169.906
-231.726
-404.803
0.711363
2041.86
-28.6867
1867.86
-31.2313
1829.48
-15.6594
1645.16
2.04348
1586.17
37.9684
1454.17
80.4414
1369.03
135.784
1265.67
201.66
1174.49
279.194
1081.93
367.901
991.993
464.448
900.93
559.499
804.766
632.66
695.461
645.647
562.292
546.744
396.395
339.83
233.548
170.716
64.6167
54.8155
-115.825
-349.987
61.0542
1980.81
73.8167
1855.1
114.27
1789.03
160.758
1598.67
207.435
1539.5
263.294
1398.32
320.572
1311.76
385.559
1200.68
454.813
1105.24
529.17
1007.58
606.175
914.988
682.766
824.339
753.971
733.562
811.534
637.899
840.011
533.815
812.735
423.672
724.244
322.039
562.597
226.264
319.756
127.017
-30.2311
44.8924
1935.92
70.7402
1829.25
108.181
1751.59
140.754
1566.1
173.022
1507.23
207.385
1363.95
237.11
1282.03
267.911
1169.88
294.19
1078.96
321.769
979.998
355.778
880.98
410.348
769.77
497.567
646.342
620.162
515.305
760.018
393.958
864.041
319.649
859.714
326.367
698.102
387.875
394.625
430.494
364.394
-39.7375
1975.65
-62.51
1852.03
-91.3909
1780.47
-140.48
1615.19
-186.697
1553.44
-247.01
1424.27
-316.414
1351.44
-397.515
1250.98
-485.796
1167.24
-569.022
1063.22
-630.57
942.527
-648.848
788.048
-614.158
611.652
-534.508
435.655
-425.01
284.461
-287.873
182.512
-122.077
160.571
33.1338
232.665
94.2955
369.333
458.69
-93.7189
2069.37
-179.998
1938.3
-263.112
1863.58
-363.265
1715.34
-461.21
1651.39
-571.442
1534.5
-689.363
1469.36
-816.616
1378.23
-947.626
1298.25
-1072.28
1187.88
-1184.22
1054.46
-1278.33
882.165
-1357.43
690.744
-1424.77
502.998
-1465.45
325.143
-1432.19
149.251
-1280.83
9.21298
-958.585
-89.5823
-467.096
-122.157
-8.40607
13.6519
2055.72
-103.119
2055.08
-159.286
1919.75
-210.005
1766.06
-256.221
1697.6
-300.421
1578.7
-339.856
1508.79
-375.166
1413.54
-406.339
1329.42
-435.041
1216.58
-466.801
1086.22
-509.96
925.325
-566.929
747.713
-629.355
565.425
-685.908
381.695
-729.734
193.078
-753.36
32.8396
-697.753
-145.189
-478.8
-341.11
-487.206
192.373
1863.35
110.077
2137.37
100.756
1929.07
124.85
1741.96
164.158
1658.3
205.804
1537.05
260.85
1453.75
321.559
1352.83
389.332
1261.65
451.404
1154.51
499.928
1037.7
520.054
905.199
505.654
762.112
459.185
611.894
383.107
457.774
280.756
295.428
187.325
126.271
111.527
-69.3913
6.8941
-236.477
-480.312
259.197
1604.15
251.886
2144.68
255.251
1925.7
300.826
1696.39
370.692
1588.43
438.358
1469.39
515.656
1376.45
594.731
1273.76
678.84
1177.54
757.329
1076.02
824.059
970.967
868.65
860.608
884.156
746.606
866.149
629.901
811.921
512.002
716.676
390.673
576.882
266.065
385.671
121.82
193.211
-44.017
-287.101
206.81
1397.34
249.383
2102.11
262.576
1912.51
301.935
1657.03
365.702
1524.66
428.282
1406.81
494.377
1310.35
558.758
1209.38
623.275
1113.03
682.078
1017.22
730.325
922.72
761.793
829.139
771.921
736.478
757.508
644.313
716.778
552.732
646.712
460.738
542.268
370.508
392.409
271.679
196.922
151.47
-90.179
112.707
1284.63
168.377
2046.44
207.418
1873.47
253.84
1610.61
318.044
1460.46
383.685
1341.17
449.114
1244.92
510.026
1148.46
566.824
1056.23
617.869
966.174
662.488
878.1
700.749
790.878
732.995
704.233
756.994
620.314
764.554
545.172
737.425
487.868
653.368
454.564
492.091
432.957
255.806
387.755
165.627
-2.03685
1286.67
51.7822
1992.62
122.867
1802.38
188.715
1544.76
260.801
1388.37
334.482
1267.48
411.515
1167.89
494.347
1065.63
586.005
964.569
689.174
863.005
803.864
763.41
926.937
667.805
1046.73
584.442
1143
524.042
1183.63
504.542
1135.52
535.972
977.934
612.153
709.682
701.208
374.78
722.657
540.407
-121.069
1407.74
-53.7422
1925.29
41.1857
1707.46
81.8169
1504.13
95.1227
1375.06
101.051
1261.55
117.938
1151
155.158
1028.41
219.614
900.113
315.467
767.151
441.732
637.144
591.024
518.512
747.922
427.543
888.276
383.688
977.68
415.137
975.217
538.436
847.493
739.876
596.692
952.009
280.331
1039.02
820.738
-219.304
1627.04
-327.251
2033.24
-396.8
1777
-507.278
1614.6
-666.259
1534.04
-843.197
1438.49
-1011.43
1319.24
-1161.92
1178.89
-1290.82
1029.02
-1395.82
872.145
-1473.32
714.642
-1517.45
562.644
-1515.71
425.801
-1451.5
319.48
-1306.58
270.22
-1072.93
304.782
-761.159
428.107
-420.342
611.192
-150.608
769.285
670.13
120.356
1506.68
29.8241
2123.77
-187.784
1994.61
-400.848
1827.67
-602.357
1735.55
-804.998
1641.13
-1009.87
1524.11
-1216
1385.03
-1423.38
1236.4
-1632.45
1081.22
-1840.34
922.528
-2037.39
759.697
-2205.67
594.073
-2316.38
430.196
-2326.82
280.662
-2181.19
159.143
-1828.83
75.7475
-1258.01
40.3711
-544.844
56.1223
125.286
634.798
871.886
973.952
1784.62
869.866
2098.7
653.869
2043.67
487.139
1902.28
357.498
1770.77
234.698
1646.91
105.818
1513.91
-29.3309
1371.54
-168.526
1220.42
-309.285
1063.29
-450.881
901.293
-591.928
735.12
-728.141
566.409
-847.141
399.663
-923.954
235.956
-924.769
76.5619
-796.417
-87.9811
-487.361
-252.933
-362.075
580.926
290.959
940.125
1425.42
956.501
2082.32
869.011
2131.15
820.956
1950.34
829.718
1762.01
871.715
1604.91
917.329
1468.29
953.989
1334.88
974.39
1200.02
974.318
1063.36
950.137
925.473
897.754
787.502
814.219
649.944
700.364
513.518
561.036
375.284
403.594
234.004
236.329
79.2832
65.3173
-81.9216
-296.758
-33.8559
178.86
436.244
676.374
888.814
1085.38
1217.35
1347.47
1451.54
1526.22
1568.67
1576.98
1549.28
1483.37
1376.92
1225.52
1022.99
757.105
420.883
)
;

boundaryField
{
    outletWall
    {
        type            calculated;
        value           nonuniform List<scalar> 
60
(
4510.74
-12790.7
-10290.7
3904.91
16725.4
18608
14140.2
-4500.69
-19141.9
-24610.8
-26453.6
-25842.9
-23778
-20726.9
-17006.5
-12438.9
-406.794
10712.6
12087.1
9169.99
3399.59
7102.86
7178.15
6123.99
4988.75
3895.21
3036.7
2459.82
2102.94
1898.74
1827.85
1910.26
2159.87
2545.08
3006.67
3483.74
3955.89
4433.04
4857.78
5643.34
11477.7
1648.89
-4712.74
-10879.1
-16635
-17796.8
-16121
-11627.2
5434
20973.4
25780.3
23550
18768.7
13610
8872.34
5094.05
2738.12
2145.05
4961.51
3836.7
)
;
    }
    fineWalls
    {
        type            calculated;
        value           uniform 0;
    }
    fineFrontAndBack
    {
        type            calculated;
        value           nonuniform List<scalar> 
960
(
-8.32392e-12
-3.33783e-11
-5.81335e-12
-5.18803e-12
-2.4896e-11
-4.14912e-12
-4.17395e-12
-4.45162e-12
-2.23346e-11
-1.1862e-12
-2.71262e-13
-7.47522e-13
2.21934e-12
3.43129e-12
6.91743e-12
1.29101e-12
1.32423e-12
-3.18593e-12
-1.07871e-12
-1.18073e-12
-1.91116e-13
-6.42815e-14
-5.82273e-14
-8.84685e-14
-1.15983e-13
-1.54165e-13
-7.45231e-12
-2.16734e-13
-2.87909e-13
-3.86373e-13
-4.98857e-13
-6.18913e-13
-7.45242e-13
-8.69011e-13
-9.79637e-13
-1.07164e-12
-1.12145e-12
-1.14528e-12
-1.03352e-12
-9.39821e-13
-1.22334e-11
4.46703e-13
1.49723e-12
2.19114e-12
1.98737e-11
3.46354e-12
3.33763e-12
2.41662e-12
3.3599e-11
-5.73726e-12
-4.34319e-12
-1.03753e-11
-2.19606e-12
-2.3216e-12
-2.4126e-12
-1.47113e-11
-2.0724e-12
-1.22372e-12
-5.78786e-14
1.68227e-11
1.1271e-12
1.1749e-12
1.27478e-12
1.25474e-12
1.21658e-12
1.14813e-12
1.07549e-12
1.00158e-12
9.29233e-13
8.66772e-13
8.22336e-13
8.01768e-13
8.00407e-13
2.62328e-11
9.30038e-13
9.91119e-13
1.00266e-12
1.01217e-12
1.02178e-12
1.12198e-12
5.83059e-12
5.60851e-12
2.85802e-11
4.72038e-12
5.02636e-12
3.062e-11
6.00931e-12
7.03649e-12
4.43078e-11
8.47956e-12
8.40646e-12
3.67432e-11
5.01846e-12
4.29931e-12
4.26261e-12
2.27402e-11
3.50377e-12
2.85752e-12
1.53089e-11
4.92223e-12
-5.34004e-11
-4.7308e-11
-4.15776e-11
-3.3941e-11
-2.85378e-11
-2.01241e-11
-9.14047e-12
2.63159e-13
5.13421e-12
6.02802e-12
5.6065e-12
4.86833e-12
3.8773e-12
7.15902e-12
1.54589e-11
1.97374e-11
2.13962e-11
2.62679e-11
3.15867e-11
-4.57721e-11
-3.64338e-11
-3.31997e-11
-2.98378e-11
-2.78121e-11
-1.95247e-11
-8.64168e-12
5.21759e-13
5.19987e-12
6.02805e-12
5.59636e-12
4.86136e-12
3.66076e-12
1.27671e-11
2.086e-11
1.80686e-11
1.64998e-11
2.34686e-11
3.02206e-11
-3.62985e-11
-2.79457e-11
-2.731e-11
-2.62251e-11
-2.63707e-11
-1.87303e-11
-7.99556e-12
8.61332e-13
5.28891e-12
6.02644e-12
5.57871e-12
4.77431e-12
3.48451e-12
2.11396e-11
2.06244e-11
1.08556e-11
9.82199e-12
2.00507e-11
2.57329e-11
-2.47024e-11
-1.84078e-11
-2.10024e-11
-2.24284e-11
-2.4433e-11
-1.77888e-11
-7.25314e-12
1.23623e-12
5.39192e-12
6.02318e-12
5.53828e-12
4.55364e-12
7.00064e-12
2.51211e-11
1.49136e-11
5.33179e-12
8.67704e-12
1.6904e-11
2.10306e-11
-1.17029e-11
-9.15077e-12
-1.51861e-11
-1.87538e-11
-2.21522e-11
-1.67285e-11
-6.44661e-12
1.66837e-12
5.4948e-12
6.01798e-12
5.42617e-12
4.55869e-12
1.27735e-11
2.29748e-11
1.01341e-11
2.82291e-12
9.18156e-12
1.75923e-11
2.043e-11
5.54561e-13
-1.13567e-12
-1.00875e-11
-1.50418e-11
-1.94853e-11
-1.54524e-11
-5.64168e-12
2.19483e-12
5.58938e-12
5.99813e-12
5.22576e-12
4.9693e-12
1.58417e-11
1.96956e-11
7.35187e-12
2.44382e-13
7.20796e-12
2.4039e-11
1.7693e-11
1.03493e-11
5.14389e-12
-5.66127e-12
-1.10008e-11
-1.64469e-11
-1.40892e-11
-5.24764e-12
2.82502e-12
5.6978e-12
5.94005e-12
5.04885e-12
5.90627e-12
1.69751e-11
1.42959e-11
3.74686e-12
-1.17918e-12
1.57073e-12
3.11828e-11
4.22219e-11
1.65101e-11
9.43309e-12
-1.81133e-12
-6.40983e-12
-1.20088e-11
-1.09077e-11
-3.8668e-12
3.20476e-12
5.89814e-12
5.81364e-12
4.74395e-12
6.5471e-12
1.49542e-11
1.29665e-12
-4.63727e-12
1.15255e-12
-4.12945e-12
8.92791e-12
3.40315e-11
1.87939e-11
1.17426e-11
1.62148e-12
-1.23554e-12
-9.00958e-12
-1.08311e-11
-6.41766e-12
3.71396e-12
6.10593e-12
5.61983e-12
5.11339e-12
9.04524e-12
9.19553e-12
-2.04508e-11
-1.73086e-11
4.37372e-12
2.19103e-12
-1.75217e-11
-1.47353e-11
1.77577e-11
1.23992e-11
4.69009e-12
5.401e-12
-1.43497e-13
-3.07947e-12
5.01052e-12
3.49126e-12
6.27521e-12
5.56282e-12
4.59554e-12
4.39775e-12
2.35577e-12
-3.10274e-11
-1.8907e-11
2.72569e-12
1.95956e-11
6.25245e-12
-2.24934e-11
1.449e-11
1.21242e-11
7.52436e-12
1.14341e-11
1.29154e-11
7.9605e-12
4.68888e-12
2.83094e-12
6.38955e-12
5.40881e-12
3.54607e-12
2.44955e-12
5.22697e-13
-1.44034e-11
-3.32457e-12
-3.27998e-12
1.71649e-11
3.47836e-11
5.02128e-11
1.02883e-11
1.16853e-11
1.01274e-11
1.31873e-11
1.58513e-11
1.21137e-11
3.25188e-12
2.70665e-12
6.41113e-12
5.01851e-12
2.52891e-12
2.4379e-12
4.00947e-13
-6.1692e-12
9.66355e-13
-7.7471e-12
-2.17192e-12
9.32098e-12
2.04479e-11
6.44202e-12
1.1569e-11
1.2678e-11
1.38341e-11
1.2322e-11
9.30489e-12
4.45109e-12
4.17282e-12
6.23541e-12
4.4273e-12
2.07977e-12
3.09707e-12
8.78877e-13
-1.37216e-12
2.67408e-12
-8.13791e-12
-1.76436e-11
-1.55883e-11
-1.72614e-11
3.99066e-12
1.18246e-11
1.51178e-11
1.72236e-11
1.31863e-11
8.59044e-12
6.30245e-12
6.16282e-12
5.66121e-12
3.72912e-12
2.34227e-12
4.13397e-12
1.3936e-12
1.64616e-12
2.70048e-12
-7.88305e-12
-1.52773e-11
-1.53546e-11
-2.39973e-11
3.26461e-12
1.20125e-11
1.65399e-11
2.1168e-11
1.78896e-11
1.2012e-11
8.56419e-12
6.90873e-12
4.63897e-12
3.13683e-12
3.24474e-12
4.9544e-12
1.57262e-12
3.67883e-12
2.95745e-12
-7.82755e-12
-1.69503e-11
-1.74712e-11
-2.79769e-11
3.60973e-12
1.13302e-11
1.56551e-11
2.18366e-11
2.08533e-11
1.56105e-11
1.05483e-11
6.86542e-12
3.99795e-12
3.32678e-12
4.65322e-12
5.08361e-12
1.01025e-12
3.75372e-12
2.92934e-12
-8.15873e-12
-1.81855e-11
-2.09804e-11
-3.77763e-11
3.88794e-12
9.28362e-12
1.19753e-11
1.81616e-11
1.97647e-11
1.70557e-11
1.24377e-11
8.0058e-12
5.14506e-12
4.95521e-12
6.03697e-12
4.14207e-12
5.37195e-14
3.22178e-12
2.65818e-12
-8.87456e-12
-1.97918e-11
-2.5281e-11
-4.1062e-11
3.69951e-12
6.734e-12
6.81081e-12
1.15954e-11
1.49886e-11
1.55973e-11
1.36756e-11
1.04797e-11
7.96616e-12
7.17749e-12
6.18236e-12
2.51317e-12
1.92488e-12
3.15088e-12
2.48385e-12
-9.80719e-12
-2.16437e-11
-2.90322e-11
-3.25884e-11
4.61676e-12
6.72761e-12
3.70456e-12
5.96439e-12
8.32471e-12
1.05887e-11
1.18831e-11
1.14202e-11
9.77319e-12
7.62682e-12
4.31059e-12
1.02126e-12
3.55542e-12
3.25696e-12
2.35849e-12
-1.08348e-11
-2.35012e-11
-3.06685e-11
-2.773e-11
-1.26316e-11
5.29049e-12
2.99976e-12
1.93498e-12
3.20636e-12
3.497e-12
4.41938e-12
5.01802e-12
4.35526e-12
2.49567e-12
4.43172e-13
4.97931e-13
3.25919e-12
3.23054e-12
2.20064e-12
-1.17817e-11
-2.49294e-11
-3.11979e-11
-2.51956e-11
8.32392e-12
3.33783e-11
5.81335e-12
5.18803e-12
2.4896e-11
4.14912e-12
4.17395e-12
4.45162e-12
2.23346e-11
1.1862e-12
2.71262e-13
7.47522e-13
-2.21934e-12
-3.43129e-12
-6.91743e-12
-1.29101e-12
-1.32423e-12
3.18593e-12
1.07871e-12
1.18073e-12
1.91116e-13
6.42815e-14
5.82273e-14
8.84685e-14
1.15983e-13
1.54165e-13
7.45231e-12
2.16734e-13
2.87909e-13
3.86373e-13
4.98857e-13
6.18913e-13
7.45242e-13
8.69011e-13
9.79637e-13
1.07164e-12
1.12145e-12
1.14528e-12
1.03352e-12
9.39821e-13
1.22334e-11
-4.46703e-13
-1.49723e-12
-2.19114e-12
-1.98737e-11
-3.46354e-12
-3.33763e-12
-2.41662e-12
-3.3599e-11
5.73726e-12
4.34319e-12
1.03753e-11
2.19606e-12
2.3216e-12
2.4126e-12
1.47113e-11
2.0724e-12
1.22372e-12
5.78786e-14
-1.68227e-11
-1.1271e-12
-1.1749e-12
-1.27478e-12
-1.25474e-12
-1.21658e-12
-1.14813e-12
-1.07549e-12
-1.00158e-12
-9.29233e-13
-8.66772e-13
-8.22336e-13
-8.01768e-13
-8.00407e-13
-2.62328e-11
-9.30038e-13
-9.91119e-13
-1.00266e-12
-1.01217e-12
-1.02178e-12
-1.12198e-12
-5.83059e-12
-5.60851e-12
-2.85802e-11
-4.72038e-12
-5.02636e-12
-3.062e-11
-6.00931e-12
-7.03649e-12
-4.43078e-11
-8.47956e-12
-8.40646e-12
-3.67432e-11
-5.01846e-12
-4.29931e-12
-4.26261e-12
-2.27402e-11
-3.50377e-12
-2.85752e-12
-1.53089e-11
-4.92223e-12
5.34004e-11
4.7308e-11
4.15776e-11
3.3941e-11
2.85378e-11
2.01241e-11
9.14047e-12
-2.63159e-13
-5.13421e-12
-6.02802e-12
-5.6065e-12
-4.86833e-12
-3.8773e-12
-7.15902e-12
-1.54589e-11
-1.97374e-11
-2.13962e-11
-2.62679e-11
-3.15867e-11
4.57721e-11
3.64338e-11
3.31997e-11
2.98378e-11
2.78121e-11
1.95247e-11
8.64168e-12
-5.21759e-13
-5.19987e-12
-6.02805e-12
-5.59636e-12
-4.86136e-12
-3.66076e-12
-1.27671e-11
-2.086e-11
-1.80686e-11
-1.64998e-11
-2.34686e-11
-3.02206e-11
3.62985e-11
2.79457e-11
2.731e-11
2.62251e-11
2.63707e-11
1.87303e-11
7.99556e-12
-8.61332e-13
-5.28891e-12
-6.02644e-12
-5.57871e-12
-4.77431e-12
-3.48451e-12
-2.11396e-11
-2.06244e-11
-1.08556e-11
-9.82199e-12
-2.00507e-11
-2.57329e-11
2.47024e-11
1.84078e-11
2.10024e-11
2.24284e-11
2.4433e-11
1.77888e-11
7.25314e-12
-1.23623e-12
-5.39192e-12
-6.02318e-12
-5.53828e-12
-4.55364e-12
-7.00064e-12
-2.51211e-11
-1.49136e-11
-5.33179e-12
-8.67704e-12
-1.6904e-11
-2.10306e-11
1.17029e-11
9.15077e-12
1.51861e-11
1.87538e-11
2.21522e-11
1.67285e-11
6.44661e-12
-1.66837e-12
-5.4948e-12
-6.01798e-12
-5.42617e-12
-4.55869e-12
-1.27735e-11
-2.29748e-11
-1.01341e-11
-2.82291e-12
-9.18156e-12
-1.75923e-11
-2.043e-11
-5.54561e-13
1.13567e-12
1.00875e-11
1.50418e-11
1.94853e-11
1.54524e-11
5.64168e-12
-2.19483e-12
-5.58938e-12
-5.99813e-12
-5.22576e-12
-4.9693e-12