/*--------------------------------*- C++ -*----------------------------------*\
| =========                 |                                                 |
| \\      /  F ield         | OpenFOAM: The Open Source CFD Toolbox           |
|  \\    /   O peration     | Version:  4.1                                   |
|   \\  /    A nd           | Web:      www.OpenFOAM.org                      |
|    \\/     M anipulation  |                                                 |
\*---------------------------------------------------------------------------*/
FoamFile
{
    version     2.0;
    format      ascii;
    class       volScalarField;
    location    "2";
    object      p;
}
// * * * * * * * * * * * * * * * * * * * * * * * * * * * * * * * * * * * * * //

dimensions      [0 2 -2 0 0 0 0];

internalField   nonuniform List<scalar> 
1280
(
-22.9251
-0.904554
-3.45889
-7.80909
-3.85088
-3.44866
-4.72966
-4.1474
-2.31852
-1.79095
-2.79302
-1.23484
-0.388235
-1.28979
0.101492
1.35894
0.85768
1.4542
4.25965
-1.7182
7.57489
18.142
23.5066
25.4387
30.0168
36.1558
37.7474
40.4671
39.1201
39.4193
39.9046
39.5219
39.8023
39.1719
39.2158
38.2989
37.649
37.3204
34.6042
36.0015
7.13951
15.0119
16.1823
16.2276
16.4264
16.5636
16.5247
16.5306
16.5382
16.5553
16.5807
16.6634
16.414
16.3053
16.3898
16.6254
16.6533
16.5387
15.4068
7.54041
35.9473
35.64
37.9163
38.2734
38.9878
39.7429
39.8186
40.3103
40.116
40.396
39.981
39.6403
40.8871
37.1164
36.9123
30.695
26.6925
25.016
18.7624
7.72116
-1.56946
4.35648
1.53259
0.959681
1.44146
0.182815
-1.20083
-0.31471
-1.16437
-2.71724
-1.72859
-2.25965
-4.08454
-4.67128
-3.39909
-3.80189
-7.76017
-3.42443
-0.864592
-22.8605
38.1483
-0.367914
11.7142
6.60775
10.2394
10.8098
13.1236
14.8159
16.7784
18.542
20.3781
20.4081
10.184
-2.48568
-18.4731
-25.3037
-18.7034
-12.2569
-14.4516
-6.75185
-2.40982
-2.40216
-2.81785
-2.88955
-3.61684
-4.17325
-4.90249
-5.52464
-6.11746
-6.63838
-6.80196
-6.84505
-7.80788
-18.5097
-15.0257
-10.0009
-5.4427
-7.8406
9.04047
-1.39994
3.32128
1.22896
2.75412
2.71709
3.5657
4.13183
4.94208
5.72662
6.55178
6.6867
2.20244
-10.5054
-16.3052
-9.79187
-2.98888
-0.314452
-2.1537
3.74118
-1.97565
1.05333
-0.578288
0.228855
-0.182654
0.0386897
0.0436413
0.259657
0.378986
0.267681
-0.261036
-3.03465
-13.0682
-17.3099
-17.7924
-5.77917
-1.16394
-2.82965
6.59715
-1.6254
2.28027
0.450412
1.58074
1.38372
1.90468
2.16972
2.58136
2.80601
2.62104
1.71556
-1.30082
-9.93852
-18.68
-19.153
-6.20734
0.19354
-3.11921
6.17396
-1.8249
1.93235
0.109968
1.09621
0.807461
1.1961
1.346
1.50341
1.01987
-0.0558159
-1.80844
-4.2545
-8.42988
-19.1549
-16.6395
-4.13726
3.85222
-0.0730753
6.95109
-1.76478
2.24108
0.405371
1.45095
1.22182
1.6583
1.87909
2.17621
1.52753
-0.0624888
-1.82001
-2.86045
-4.24725
-15.727
-17.7996
-5.35547
5.51249
-1.07738
7.12821
-1.88877
2.20489
0.364397
1.36795
1.11151
1.4661
1.58398
1.59636
0.638653
-0.515385
-1.30632
-0.580446
-0.13836
-7.87027
-12.2131
1.23514
11.276
0.867013
7.4218
-1.94447
2.28895
0.45909
1.45902
1.2183
1.58814
1.78102
1.7674
0.819383
-0.146922
-0.188907
1.03583
1.56243
-3.74062
-4.27666
13.2501
23.6632
15.224
7.52971
-2.03243
2.29557
0.472791
1.45444
1.21312
1.56071
1.74625
1.74732
0.89873
-0.0131199
0.473611
1.82621
2.0946
-2.47525
-1.22172
18.2555
25.1501
16.4253
7.52969
-2.03237
2.29557
0.472865
1.45457
1.21351
1.56166
1.74877
1.75406
0.905829
-0.0150698
0.453973
1.80028
2.0561
-2.50634
-1.22138
18.2457
25.4904
16.5216
7.42173
-1.94433
2.28895
0.459267
1.4592
1.21857
1.58816
1.78053
1.7686
0.830774
-0.129176
-0.181373
1.03083
1.55778
-3.67889
-4.14393
13.1525
23.4567
15.2196
7.12814
-1.88859
2.20496
0.364715
1.36846
1.11265
1.46825
1.58767
1.60454
0.657581
-0.490198
-1.28007
-0.573614
-0.156225
-7.80999
-12.0229
1.41881
11.3266
0.573422
6.95102
-1.76459
2.24121
0.405764
1.4516
1.22307
1.66045
1.88304
2.18538
1.54836
-0.0318696
-1.78323
-2.83553
-4.25033
-15.6739
-17.7197
-5.30402
5.43822
-1.23255
6.17391
-1.82469
1.93254
0.110442
1.09703
0.809032
1.19903
1.35143
1.51384
1.03959
-0.0261987
-1.76754
-4.21542
-8.42231
-19.1027
-16.5213
-4.06687
3.81938
-0.140017
6.59707
-1.6252
2.28048
0.450907
1.58163
1.38539
1.90772
2.17523
2.59152
2.82328
2.64651
1.75111
-1.26828
-9.94428
-18.6568
-19.0352
-6.15472
0.169325
-3.19416
3.74115
-1.97544
1.05358
-0.577781
0.22972
-0.181146
0.0413186
0.0481461
0.267317
0.390987
0.28405
-0.240691
-3.02116
-13.0839
-17.3017
-17.7132
-5.74476
-1.1847
-2.88575
9.04026
-1.39975
3.32149
1.22948
2.75513
2.71897
3.56914
4.1379
4.95248
5.74282
6.57348
6.71229
2.22213
-10.512
-16.304
-9.74992
-2.97969
-0.337325
-2.19958
-6.7518
-2.40963
-2.402
-2.81757
-2.88927
-3.61657
-4.17312
-4.90268
-5.52548
-6.11973
-6.64353
-6.81089
-6.85705
-7.81403
-18.5134
-14.99
-9.97682
-5.46027
-7.89045
38.1471
-0.36765
11.7145
6.60869
10.2415
10.8141
13.1317
14.8298
16.801
18.5755
20.4228
20.4611
10.2265
-2.47822
-18.4618
-25.2612
-18.6488
-12.2545
-14.496
113.588
111.461
111.155
109.001
108.207
105.816
104.687
102.941
101.937
100.325
99.5662
98.2548
97.9115
96.7377
96.7983
95.725
96.0277
95.1647
95.4305
94.9807
95.7088
95.6867
96.2531
95.9495
96.6679
96.1586
96.6903
96.1127
96.3987
95.8419
95.9683
95.358
95.5057
94.7888
95.0431
94.2713
94.5792
93.9101
94.1237
93.7491
101.044
100.433
100.956
100.135
100.648
99.9478
100.283
99.7572
99.9393
99.4995
99.642
99.1724
99.3836
98.8112
99.1253
98.4798
98.8163
98.2348
98.4333
98.0708
98.9194
98.5529
99.1633
98.5136
99.1656
98.5831
99.0754
98.6569
98.9739
98.6655
98.91
98.5933
98.8803
98.4771
98.8444
98.3784
98.7543
98.3489
98.5845
98.3939
100.017
99.5748
100.177
99.4419
100.104
99.4677
99.9449
99.5206
99.806
99.5204
99.7276
99.4558
99.6951
99.3597
99.6652
99.2819
99.5923
99.2627
99.4517
99.3028
99.9061
99.506
100.066
99.3698
100.088
99.4233
99.9684
99.5326
99.8557
99.5931
99.8045
99.5885
99.8005
99.5509
99.8023
99.5243
99.7702
99.541
99.6842
99.5999
100.277
99.9002
100.351
99.7505
100.406
99.7564
100.309
99.853
100.193
99.9254
100.13
99.9427
100.116
99.9287
100.112
99.92
100.087
99.9409
100.025
99.9824
100.4
100.119
100.465
100.03
100.516
100.011
100.472
100.074
100.385
100.143
100.327
100.177
100.309
100.187
100.307
100.198
100.297
100.226
100.269
100.255
100.568
100.434
100.624
100.343
100.646
100.315
100.617
100.341
100.563
100.388
100.522
100.425
100.509
100.452
100.513
100.48
100.522
100.51
100.531
100.527
100.646
100.604
100.679
100.526
100.675
100.492
100.642
100.491
100.602
100.508
100.571
100.531
100.559
100.559
100.562
100.594
100.582
100.627
100.635
100.644
100.625
100.614
100.629
100.558
100.601
100.517
100.558
100.486
100.509
100.462
100.463
100.445
100.425
100.44
100.396
100.444
100.391
100.45
100.433
100.453
100.652
100.636
100.625
100.587
100.575
100.529
100.51
100.463
100.434
100.39
100.349
100.315
100.258
100.24
100.166
100.165
100.085
100.087
100.018
100.001
101.046
101.007
100.988
100.945
100.914
100.865
100.824
100.77
100.718
100.659
100.596
100.531
100.456
100.388
100.299
100.223
100.124
100.039
99.9136
99.7975
101.839
101.791
101.77
101.718
101.691
101.635
101.6
101.542
101.497
101.435
101.38
101.31
101.245
101.164
101.09
100.994
100.911
100.792
100.679
100.48
102.717
102.679
102.662
102.613
102.598
102.552
102.533
102.491
102.467
102.427
102.399
102.358
102.325
102.282
102.244
102.195
102.156
102.085
102.052
101.893
103.423
103.386
103.375
103.333
103.323
103.29
103.277
103.253
103.239
103.222
103.209
103.196
103.185
103.179
103.165
103.168
103.152
103.155
103.153
103.135
103.961
103.914
103.904
103.863
103.85
103.82
103.802
103.781
103.763
103.748
103.733
103.723
103.711
103.709
103.696
103.708
103.689
103.72
103.694
103.765
104.416
104.374
104.367
104.328
104.314
104.287
104.266
104.244
104.221
104.2
104.178
104.158
104.136
104.118
104.095
104.085
104.053
104.063
104.02
104.056
104.698
104.679
104.697
104.673
104.672
104.664
104.658
104.652
104.645
104.639
104.631
104.621
104.61
104.595
104.577
104.556
104.52
104.501
104.428
104.388
104.665
104.604
104.641
104.651
104.668
104.685
104.703
104.723
104.745
104.769
104.797
104.827
104.861
104.899
104.943
104.991
105.044
105.112
105.155
105.315
737.496
654.214
604.685
548
498.609
450.943
406.646
364.824
325.511
288.434
253.457
220.388
189
159.212
131.114
104.087
79.0571
60.375
37.3172
-0.520297
38.6296
15.4676
23.1449
11.5227
8.20916
1.02321
-4.48045
-10.2514
-15.3025
-19.7984
-23.518
-26.3825
-28.3062
-29.2264
-29.0942
-27.8099
-25.3252
-22.6896
-20.9015
-18.3983
15.3012
8.22593
16.4046
9.42125
11.3474
7.96223
6.63923
4.06425
1.80679
-0.719593
-3.1843
-5.67554
-8.14063
-10.6188
-13.053
-14.8139
-15.316
-14.0464
-12.8831
-10.5095
26.3082
22.4482
25.4252
19.5845
21.135
17.4564
16.8742
14.8916
13.8313
12.7114
11.9795
11.4925
11.2837
11.3455
11.5731
12.2497
13.3564
15.3446
17.2575
19.9217
24.2762
21.9491
25.4214
22.2911
25.9269
24.5376
26.5363
27.016
28.3642
29.6131
31.0776
32.6644
34.3606
36.1724
38.0204
39.953
41.7533
43.5734
44.6756
46.3992
38.5884
37.9948
41.5941
39.7139
43.1116
42.6206
44.5176
45.3423
46.5936
47.781
49.0015
50.2465
51.4912
52.7441
53.9537
55.1724
56.2433
57.4292
58.1617
59.3855
55.6738
56.1278
59.0942
57.858
60.3934
60.3777
61.6869
62.4937
63.4317
64.383
65.3334
66.3024
67.2743
68.259
69.2188
70.2127
71.0924
72.1273
72.7793
73.9485
71.3602
72.1058
74.2475
73.4917
75.2895
75.4497
76.3467
77.0186
77.7081
78.426
79.1319
79.8481
80.5637
81.288
81.9929
82.7272
83.3717
84.1384
84.5942
85.4768
83.4999
83.9353
85.4631
84.6643
86.072
85.9353
86.5442
86.8754
87.2542
87.6473
88.0254
88.4172
88.8065
89.2064
89.5945
90.0061
90.3629
90.795
91.0431
91.5124
90.5895
90.3493
91.5587
90.5052
91.9053
91.2732
91.857
91.8421
92.0456
92.2008
92.358
92.5325
92.7014
92.8856
93.06
93.255
93.4179
93.6214
93.738
93.9372
93.6137
92.8918
93.7545
92.7537
94.0987
93.1554
93.8503
93.6024
93.7865
93.8202
93.8957
93.9767
94.0513
94.1419
94.2192
94.3167
94.3868
94.4855
94.5359
94.6168
94.0441
93.2911
94.0235
93.2572
94.346
93.5088
94.1951
93.9338
94.1502
94.1697
94.2573
94.3299
94.4017
94.4792
94.545
94.6241
94.6766
94.7561
94.7886
94.8583
93.8252
93.2519
94.1766
93.4535
94.3392
93.8536
94.3833
94.2811
94.5052
94.5741
94.7034
94.7991
94.9083
94.9975
95.0947
95.1798
95.2566
95.347
95.3925
95.4948
94.6924
94.3094
95.3399
94.5816
95.3355
95.1154
95.4613
95.4776
95.6566
95.7377
95.8697
95.9475
96.071
96.1319
96.2502
96.3048
96.4047
96.4749
96.5358
96.6451
96.2982
96.0154
96.9955
96.2479
96.8573
96.6868
96.9019
96.9133
97.0298
97.0645
97.1689
97.1866
97.3042
97.2978
97.428
97.4137
97.5344
97.5466
97.6215
97.7002
98.3263
97.9751
98.8471
98.0679
98.5619
98.2971
98.4274
98.3475
98.4032
98.3486
98.4117
98.3365
98.4356
98.3271
98.4602
98.3387
98.4716
98.3859
98.4644
98.4685
98.2424
97.9024
98.7232
97.9991
98.5194
98.2111
98.3968
98.2659
98.357
98.2573
98.3437
98.2139
98.3414
98.16
98.3323
98.1252
98.299
98.1337
98.2357
98.1878
101.148
100.518
101.204
100.297
100.683
100.187
100.254
99.9498
99.9214
99.6511
99.6295
99.3228
99.3614
98.9909
99.0964
98.692
98.812
98.4552
98.5053
98.2696
95.7561
95.7117
96.4308
96.0309
96.6969
96.3619
96.6942
96.3412
96.4352
96.0694
96.0461
95.607
95.6039
95.0836
95.1552
94.6107
94.7264
94.2672
94.3455
94.0914
114.312
112.23
111.932
109.756
108.829
106.597
105.237
103.617
102.459
100.952
100.057
98.8566
98.361
97.3391
97.2082
96.3323
96.4211
95.7602
95.8601
95.52
)
;

boundaryField
{
    outletWall
    {
        type            fixedValue;
        value           uniform 0;
    }
    fineWalls
    {
        type            zeroGradient;
    }
    fineFrontAndBack
    {
        type            zeroGradient;
    }
    fineplugLeft
    {
        type            cyclicAMI;
        value           nonuniform List<scalar> 
20
(
83.1848
83.2653
83.5958
84.3519
84.2398
85.2818
85.2245
86.2896
86.5083
87.6339
88.1438
89.3734
90.4464
97.0754
91.8836
92.5691
92.2887
93.6249
92.7976
92.3856
)
;
    }
    fineplugRight
    {
        type            cyclicAMI;
        value           nonuniform List<scalar> 
20
(
83.6054
83.8161
84.1914
84.7916
84.8634
85.7151
85.835
86.7509
87.1085
88.1247
88.7576
89.8955
91.0709
97.4909
92.6602
93.2025
93.1432
94.5486
93.5365
92.9936
)
;
    }
    inletOutletLeft
    {
        type            cyclicAMI;
        value           nonuniform List<scalar> 
20
(
83.1848
83.2653
83.5958
84.3519
84.2398
85.2818
85.2245
86.2896
86.5083
87.6339
88.1438
89.3734
90.4464
97.0754
91.8836
92.5691
92.2887
93.6249
92.7976
92.3856
)
;
    }
    inletLeft
    {
        type            zeroGradient;
    }
    inletWallsLeft
    {
        type            zeroGradient;
    }
    inletFacesLeft
    {
        type            zeroGradient;
    }
    inletOutletRight
    {
        type            cyclicAMI;
        value           nonuniform List<scalar> 
20
(
83.6054
83.8161
84.1914
84.7916
84.8634
85.7151
85.835
86.7509
87.1085
88.1247
88.7576
89.8955
91.0709
97.4909
92.6602
93.2025
93.1432
94.5486
93.5365
92.9936
)
;
    }
    inletRight
    {
        type            zeroGradient;
    }
    inletWallsRight
    {
        type            zeroGradient;
    }
    inletFacesRight
    {
        type            zeroGradient;
    }
}


// ************************************************************************* //
