/*--------------------------------*- C++ -*----------------------------------*\
| =========                 |                                                 |
| \\      /  F ield         | OpenFOAM: The Open Source CFD Toolbox           |
|  \\    /   O peration     | Version:  4.1                                   |
|   \\  /    A nd           | Web:      www.OpenFOAM.org                      |
|    \\/     M anipulation  |                                                 |
\*---------------------------------------------------------------------------*/
FoamFile
{
    version     2.0;
    format      ascii;
    class       surfaceScalarField;
    location    "2";
    object      phi;
}
// * * * * * * * * * * * * * * * * * * * * * * * * * * * * * * * * * * * * * //

dimensions      [0 3 -1 0 0 0 0];

internalField   nonuniform List<scalar> 
2360
(
7734.94
7166.07
568.871
7166.06
7166.07
6605.49
560.575
6605.49
6605.49
6605.49
6096.56
508.928
6096.55
6096.55
5906.35
190.198
5906.35
5906.35
5828.32
78.0268
5828.31
5828.31
8155.5
-2327.2
8155.49
8155.49
9015.91
10011.2
10953.1
11841.6
12744.4
13630.9
8386.27
6164.99
9333.98
10304.7
11293.8
12292.5
13304.2
14308.7
15329.4
16329.7
17357.2
18351.4
19394.9
20350.7
21490.5
4371
17119.5
4371
4371
4371
-85.5114
4456.44
-85.8696
-86.1425
-86.3129
-85.1319
-1.20737
-85.1694
-85.1666
193.275
-278.451
193.293
193.298
193.306
-4309.35
4502.64
-4309.34
-4309.34
-4309.34
-21384.4
17075
-20311.2
-19347.5
-18315.4
-17320.1
-16301.4
-15301.8
-14287.8
-13285.6
-12278.9
-11283.8
-10298.3
-9332.01
-8386.42
-13666.5
6194.8
-12782.5
-11888.7
-10990
-10007.2
-8944.56
-8079.21
-8079.22
-8079.22
-5777.58
-2301.65
-5777.58
-5777.58
-5871.87
94.2822
-5871.87
-5871.87
-6071.32
199.442
-6071.32
-6071.32
-6586.38
515.053
-6586.38
-6586.38
-6586.38
-7151.89
565.507
-7151.89
-7151.89
-7722.59
570.697
-7406.71
-5853.1
-5526.39
-1661.46
-7527.16
-2563.55
-7736.07
-2345.08
-8569.45
-2687.02
-9000.04
-3019.47
-9384.75
-3493.64
-9501.19
-4017.49
-9327.84
-4660.48
-8667.85
-5517.35
-7200.22
-6837.37
-4379.74
-8522.22
167.742
-8257.98
2925.21
747.702
1341.09
8732.19
-235.511
10355.8
-571.456
8173.81
-260.953
6036.86
7144.71
-574.181
-4560.43
-615.112
-1620.53
-374.238
-2804.42
-333.444
-2385.87
-340.173
-2680.29
-425.636
-2934.01
-629.774
-3289.5
-979.888
-3667.38
-1538.58
-4101.79
-2348.04
-4707.9
-3350.19
-5835.22
-4119.06
-7753.35
-3397.37
-8979.66
997.21
-3646.88
2761.63
6967.77
801.41
12316
-796.19
9771.41
-952.751
6193.43
6757.47
-1024.54
-4547.82
-1402.12
-1242.95
-1902.46
-2304.08
-2166.25
-2122.08
-2442.26
-2404.27
-2739.75
-2636.52
-3110.96
-2918.29
-3594.06
-3184.28
-4245.88
-3449.97
-5073.2
-3880.57
-5953.5
-4954.91
-6531.33
-7175.52
-5829.6
-9681.39
-1608.36
-7868.13
1962.91
3396.5
1536.8
12742.1
-192.987
11501.2
-970.153
6970.59
6302.36
-1219.75
-3787.3
-1427.45
-1035.25
-1652.35
-2079.18
-1855.17
-1919.26
-2100.66
-2158.79
-2394.83
-2342.34
-2811.7
-2501.42
-3434.56
-2561.42
-4390.66
-2493.87
-5776.63
-2494.61
-7529.82
-3201.72
-9187.79
-5517.55
-9489.8
-9379.38
-6170.62
-11187.3
-515.622
-2258.5
1474.2
10752.3
370.851
12604.5
-465.561
7807
6036.26
-1355.37
-3309.1
-1609.71
-780.91
-1943.94
-1744.96
-2198.56
-1664.63
-2494.52
-1862.83
-2851.72
-1985.14
-3375.24
-1977.9
-4199.87
-1736.8
-5473.43
-1220.31
-7204.35
-763.693
-9146.21
-1259.86
-10793.9
-3869.86
-11434
-8739.26
-9574.23
-13047.1
-3575
-8257.72
482.603
6694.67
434.919
12652.2
-277.263
8519.18
5853.26
-1528.6
-2686.82
-1769.41
-540.101
-2058.42
-1455.94
-2325.05
-1398
-2648.11
-1539.77
-3065.98
-1567.28
-3705.93
-1337.95
-4700.65
-742.072
-6103.94
182.982
-7762.67
895.037
-9077.82
55.2936
-9666.22
-3281.46
-10057.2
-8348.28
-10276.9
-12827.5
-7392.93
-11141.7
-2071.61
1373.34
803.752
9776.86
1952.15
7370.78
5503.77
-1759.68
-2055.83
-1976.85
-322.923
-2293.48
-1139.31
-2593.29
-1098.2
-2957.65
-1175.41
-3434.48
-1090.45
-4133.85
-638.574
-5060.22
184.292
-6032.05
1154.82
-6706.89
1569.87
-6466.68
-184.916
-5792.38
-3955.76
-6462.26
-7678.4
-9230.05
-10059.7
-10818
-9553.7
-6679.97
-2764.68
-1902.65
4999.54
-2011.04
7479.17
9687.52
-1986.45
-1380.2
-2176.24
-133.136
-2504.89
-810.652
-2836.92
-766.176
-3226.3
-786.028
-3666.35
-650.398
-4134.84
-170.079
-4574.24
623.69
-4844.51
1425.09
-4554.5
1279.86
-3664.97
-1074.44
-3629.86
-3990.88
-5801.35
-5506.91
-10224.6
-5636.44
-14744.6
-5033.68
-15648
-1861.33
-14419.3
3770.93
-15644.4
8704.19
11118.2
-2269.11
-672.167
-2381.53
-20.7174
-2762.86
-429.321
-3130.36
-398.671
-3533.2
-383.192
-3913.9
-269.698
-4145.03
61.0542
-4098.31
576.97
-3687.61
1014.39
-2959.86
552.103
-2846.14
-1188.16
-4395.91
-2441.11
-7546.37
-2356.45
-11642.6
-1540.26
-15588.9
-1087.37
-17360.5
-89.7017
-16158.5
2568.97
-12565.4
5111.06
3055.43
-2518.8
0.00433326
-2539.31
-0.205096
-2968.48
-0.155129
-3366.71
-0.440627
-3749
-0.903486
-4016.42
-2.28007
-3949.55
-5.80941
-3358.44
-14.1462
-2312.58
-31.4605
-1714.8
-45.6824
-2880.55
-22.4082
-5333.83
12.1699
-7726.96
36.6735
-9330.43
63.2071
-10488.6
70.7882
-10623.5
45.2056
-8034.29
-20.2444
-2771.71
-151.539
5.23409
-2518.79
672.175
-2539.37
20.3694
-2968.54
429.018
-3366.88
397.895
-3749.52
381.744
-4018.46
266.654
-3957
-67.2682
-3381.32
-589.821
-2369.23
-1043.56
-1802.57
-612.34
-2949.93
1124.96
-5356.88
2419.12
-7698.12
2377.92
-9231.11
1596.2
-10320.1
1159.82
-10453.7
178.748
-8002.93
-2471
-3103.29
-5051.19
-3099.26
-2269.09
1380.22
-2381.62
132.896
-2762.94
810.339
-3130.53
765.48
-3533.41
784.626
-3914.31
647.552
-4146.68
165.111
-4105.85
-630.655
-3713.98
-1435.43
-3023.75
-1302.56
-2933.53
1034.73
-4467.01
3952.59
-7576.59
5487.5
-11622.9
5642.48
-15524.9
5061.85
-17281.1
1934.93
-16085.9
-3666.17
-12525.3
-8611.8
-11168.2
-1986.45
2055.87
-2176.32
322.768
-2505.02
1139.04
-2837.2
1097.66
-3226.91
1174.34
-3667.7
1088.33
-4137.59
635.009
-4579.81
-188.441
-4857.19
-1158.05
-4586.01
-1573.75
-3723.53
172.261
-3703.83
3932.88
-5871.27
7654.95
-10278.8
10050
-14783.7
9566.72
-15685.5
2836.72
-14448.6
-4903.06
-15658.2
-7402.22
-9706.8
-1759.68
2686.88
-1976.92
540.011
-2293.62
1455.74
-2593.6
1397.64
-2958.31
1539.05
-3435.94
1565.96
-4136.8
1335.87
-5065.31
740.067
-6040.78
-182.581
-6723.77
-890.759
-6500.49
-51.025
-5847.52
3279.92
-6531.94
8339.37
-9298.6
12816.7
-10874.6
11142.7
-6718.15
-1319.7
-1917.28
-9703.93
-1994.47
-7325.04
-5536.28
-1528.6
3309.19
-1769.45
780.863
-2058.55
1744.84
-2325.34
1664.44
-2648.74
1862.45
-3067.29
1984.51
-3708.4
1976.98
-4704.63
1736.3
-6109.44
1222.23
-7770.13
769.929
-9090.85
1269.7
-9690.9
3879.97
-10095.3
8743.8
-10320
13041.4
-7429.78
8252.43
-2085.61
-6663.87
812.798
-12602.3
1977.47
-8489.71
-5886.01
-1355.36
3787.4
-1609.73
1035.24
-1944.04
2079.14
-2198.81
1919.2
-2495.06
2158.7
-2852.81
2342.25
-3377.22
2501.4
-4202.9
2561.98
-5477.06
2496.38
-7207.86
2500.73
-9149.95
3211.79
-10800
5529.98
-11445.1
9388.93
-9589.97
11186.2
-3591.13
2253.57
476.488
-10731.5
442.434
-12568.3
-255.418
-7791.86
-6063.41
-1219.75
4547.93
-1427.47
1242.95
-1652.43
2304.1
-1855.35
2122.13
-2101.05
2404.4
-2395.6
2636.81
-2813.1
2918.9
-3436.72
3185.6
-4393.28
3452.94
-5778.91
3886.37
-7531.07
4963.94
-9188.19
7187.1
-9491.31
9692.06
-6176.09
7871.02
-524.746
-3397.77
1470.19
-12726.4
376.039
-11474.1
-452.33
-6963.49
-6325.53
-1024.51
4560.56
-1402.11
1620.55
-1902.52
2804.51
-2166.41
2386.02
-2442.6
2680.59
-2740.38
2934.59
-3112.07
3290.58
-3595.8
3669.33
-4248.14
4105.28
-5075.44
4713.67
-5955.01
5843.51
-6531.61
7763.7
-5829.91
8990.35
-1612.26
3653.37
1955.85
-6965.88
1534.4
-12305
-188.416
-9751.32
-960.596
-6191.31
-6777.2
-574.223
5853.25
-615.124
1661.45
-374.299
2563.69
-333.535
2345.25
-340.324
2687.38
-425.859
3020.12
-630.113
3494.84
-980.386
4019.61
-1539.18
4664.07
-2348.5
5522.99
-3350.21
6845.22
-4119.02
8532.52
-3400.05
8271.38
993.536
-740.212
2757.64
-8729.98
799.699
-10347
-791.586
-8160.04
-944.436
-6038.46
-7161.06
-7406.39
-5526.22
-7527.04
-7736.16
-8569.85
-9000.95
-9386.38
-9503.74
-9331.39
-8672.23
-7204.91
-4383.86
166.427
2923.67
1340.14
-236.281
-568.107
-256.199
134.067
-994.496
219.037
-1080.26
285.971
-1008.89
338.839
-941.373
409.957
-973.924
474.378
-950.9
514.73
-960.719
511.89
-944.849
492.221
-950.989
453.918
-950.854
405.61
-950.301
355.041
-961.158
301.927
-951.339
254.708
-973.544
205.057
-950.628
163.565
-985.98
117.909
-948.568
80.4054
-1006.02
30.3724
-905.712
-1109.47
54.3849
-1048.88
28.7452
-1054.62
17.9077
-998.05
12.4085
-935.876
11.5905
-973.108
6.32536
-945.637
14.7144
-969.11
26.23
-956.366
38.9444
-963.704
49.7266
-961.638
58.1397
-958.715
63.5869
-966.607
65.764
-953.518
65.3093
-973.09
62.297
-947.617
56.849
-980.533
50.3503
-942.071
40.6515
-996.327
33.5293
-898.591
-1075.94
34.7484
-1083.63
48.1975
-1068.07
61.0695
-1010.92
69.72
-944.528
74.9628
-978.351
80.549
-951.224
79.4201
-967.982
78.192
-955.139
75.1235
-960.637
71.8706
-958.386
68.4113
-955.256
63.7897
-961.986
60.1565
-949.885
54.1661
-967.101
50.4133
-943.865
43.0144
-973.135
39.1697
-938.227
30.1372
-987.295
28.0144
-896.469
-1047.92
23.6745
-1107.31
34.5399
-1078.94
39.2773
-1015.66
42.6211
-947.871
46.8343
-982.564
50.1569
-954.546
53.659
-971.483
56.1851
-957.665
57.9071
-962.358
58.4513
-958.929
58.6718
-955.476
57.0646
-960.378
56.2317
-949.052
52.3557
-963.224
50.8703
-942.379
44.7315
-966.995
42.6391
-936.134
34.0009
-978.657
35.2148
-897.682
-1012.71
22.1516
-1129.46
28.6646
-1085.45
35.4569
-1022.45
42.8286
-955.243
50.0387
-989.774
54.6087
-959.116
58.5039
-975.379
60.3894
-959.55
61.7265
-963.695
61.3751
-958.578
61.1316
-955.233
58.7666
-958.013
57.7413
-948.027
53.3553
-958.838
52.068
-941.092
45.6226
-960.55
44.1388
-934.65
35.746
-970.264
40.1937
-902.13
-972.514
20.5441
-1150
7.02913
-1071.94
12.3612
-1027.78
23.6748
-966.555
34.1667
-1000.27
40.9899
-965.938
47.6982
-982.086
50.8345
-962.686
53.9631
-966.823
54.3836
-958.997
55.2312
-956.08
53.549
-956.33
53.3508
-947.828
49.7141
-955.201
49.1819
-940.559
43.555
-954.923
43.5189
-934.614
37.604
-964.349
47.0652
-911.591
-925.449
6.31848
-1156.32
-22.8941
-1042.72
-19.3778
-1031.3
-5.26276
-980.669
3.28256
-1008.81
11.6573
-974.312
17.6958
-988.124
21.3971
-966.386
24.6866
-970.112
25.6193
-959.929
27.3181
-957.778
26.7159
-955.728
28.1357
-949.247
26.3343
-953.399
28.093
-942.318
25.3322
-952.162
30.3897
-939.671
32.3316
-966.291
52.2581
-931.517
-873.19
-27.0436
-1129.27
-49.5569
-1020.21
-50.1211
-1030.73
-37.5029
-993.287
-35.603
-1010.71
-28.0716
-981.842
-26.5678
-989.627
-23.3986
-969.554
-22.1728
-971.337
-21.0876
-961.014
-19.2767
-959.589
-18.6302
-956.373
-15.2792
-952.598
-14.6309
-954.047
-9.41929
-947.529
-7.53738
-954.043
6.41798
-953.626
21.4956
-981.368
55.8031
-965.825
-817.387
-60.9587
-1068.31
-62.7914
-1018.37
-69.6131
-1023.91
-63.3886
-999.51
-68.733
-1005.36
-65.3224
-985.251
-69.0997
-985.848
-67.7264
-970.926
-69.0875
-969.975
-67.9939
-962.106
-66.3894
-961.192
-64.2164
-958.545
-59.2294
-957.584
-55.656
-957.619
-47.1552
-956.029
-39.5924
-961.605
-16.7069
-976.511
12.1398
-1010.21
57.9226
-1011.61
-759.465
-75.2682
-993.046
-62.8198
-1030.82
-74.9561
-1011.77
-76.3559
-998.109
-85.6098
-996.109
-86.9244
-983.936
-92.7307
-980.042
-92.814
-970.842
-94.4065
-968.382
-92.502
-964.01
-89.9126
-963.781
-85.5281
-962.929
-78.8195
-964.292
-71.8468
-964.591
-60.8266
-967.049
-48.363
-974.068
-22.3852
-1002.49
13.0552
-1045.65
58.5644
-1057.12
-700.9
-70.1152
-922.93
-56.2786
-1044.66
-68.662
-999.39
-74.0852
-992.685
-82.241
-987.952
-84.9073
-981.269
-88.2982
-976.65
-87.1848
-971.955
-85.7498
-969.817
-81.3447
-968.414
-76.0511
-969.074
-68.9256
-970.054
-60.3381
-972.879
-50.4832
-974.446
-38.3587
-979.173
-24.5913
-987.835
-5.4286
-1021.65
23.2762
-1074.36
54.0623
-1087.9
-646.838
-51.9793
-870.951
-46.0713
-1050.57
-53.4553
-992.007
-58.0781
-988.063
-61.4937
-984.538
-61.7737
-980.99
-60.3015
-978.123
-56.0503
-976.207
-50.539
-975.329
-43.3779
-975.576
-35.6726
-976.78
-27.0641
-978.663
-18.2432
-981.701
-8.31533
-984.374
1.70584
-989.195
11.591
-997.721
16.1964
-1026.26
25.5976
-1083.76
35.1373
-1097.44
-611.701
-27.2315
-843.719
-30.0464
-1047.75
-32.1693
-989.884
-34.4322
-985.8
-33.998
-984.971
-31.937
-983.051
-27.7109
-982.349
-22.2141
-981.703
-15.6993
-981.843
-8.8206
-982.455
-2.09768
-983.503
4.43248
-985.193
10.0495
-987.318
15.7732
-990.097
20.04
-993.461
22.1807
-999.862
12.3769
-1016.45
-1.12247
-1070.26
-6.03037
-1092.53
-617.731
-3.77873
-839.942
-10.1202
-1041.41
-11.0513
-988.954
-12.6832
-984.169
-12.4388
-985.217
-11.1829
-984.308
-8.76041
-984.772
-5.88741
-984.577
-2.72279
-985.009
0.199103
-985.377
2.59847
-985.903
4.26873
-986.864
4.76114
-987.811
4.32822
-989.665
2.1748
-991.309
-3.18927
-994.498
-19.8841
-999.759
-50.6292
-1039.52
-59.2492
-1083.91
-676.98
13.3719
-853.314
5.73172
-1033.77
2.96221
-986.185
0.544426
-981.752
-1.55989
-983.113
-2.90714
-982.961
-4.13278
-983.547
-5.10889
-983.602
-6.20268
-983.915
-7.48328
-984.097
-9.11085
-984.276
-11.3436
-984.632
-14.2662
-984.888
-18.3836
-985.548
-23.589
-986.104
-31.4733
-986.614
-45.1872
-986.045
-79.7206
-1004.98
-94.5246
-1069.11
-771.505
24.1989
-877.515
12.9956
-1022.57
8.75959
-981.95
6.07504
-979.069
2.92543
-979.965
0.147642
-980.185
-2.84357
-980.557
-5.65489
-980.792
-8.55752
-981.014
-11.4432
-981.213
-14.3553
-981.365
-17.4763
-981.512
-20.7145
-981.651
-24.5716
-981.692
-28.7296
-981.946
-33.8728
-981.472
-39.3194
-980.599
-60.6318
-983.671
-89.1683
-1040.57
-860.673
27.5871
-905.102
13.713
-1008.7
10.1221
-978.359
8.0885
-977.036
5.67129
-977.548
3.25101
-977.765
0.706713
-978.013
-1.81092
-978.275
-4.32935
-978.496
-6.80598
-978.737
-9.20559
-978.965
-11.5654
-979.153
-13.8269
-979.39
-16.0691
-979.45
-18.249
-979.767
-20.1921
-979.529
-20.7484
-980.043
-25.3337
-979.086
-55.8709
-1010.04
-916.544
25.001
-930.103
12.2198
-995.915
10.2863
-976.426
9.0508
-975.801
7.63474
-976.132
6.12124
-976.252
4.54578
-976.438
2.89669
-976.626
1.22485
-976.824
-0.478478
-977.034
-2.18357
-977.26
-3.85461
-977.482
-5.50495
-977.74
-7.00173
-977.954
-8.4913
-978.277
-9.59832
-978.422
-10.5009
-979.14
-10.2655
-979.322
-27.2278
-993.075
-943.772
22.3729
-952.476
11.5508
-985.093
10.529
-975.405
9.83835
-975.11
8.97298
-975.267
8.05001
-975.329
7.03789
-975.426
5.93397
-975.522
4.74612
-975.637
3.47225
-975.76
2.11316
-975.901
0.692385
-976.061
-0.806588
-976.241
-2.31088
-976.449
-3.90193
-976.686
-5.38888
-976.935
-7.214
-977.315
-8.8804
-977.655
-17.021
-984.935
-960.793
22.5236
12.4304
12.0255
11.9151
11.6482
11.3191
10.8928
10.3705
9.73379
8.97371
8.07204
7.01062
5.76949
4.31996
2.63352
0.698247
-1.61701
-4.27227
-14.207
-682.138
1657.14
-1111.95
1404.81
-1550.22
1413.27
-1904.72
1329.5
-2220.54
1290.82
-2486.69
1241.15
-2711.13
1199.44
-2893.49
1157.36
-3035.16
1116.68
-3136.08
1075.92
-3196.31
1035.23
-3216.39
995.083
-3196.32
954.932
-3128.67
907.343
-2985.25
831.585
-2712.83
702.582
-2262.17
524.335
-1632.79
345.622
-865.552
207.766
109.448
-215.668
1872.81
-472.454
1661.6
-746.463
1687.28
-976.089
1559.12
-1195.44
1510.18
-1380.57
1426.28
-1541.74
1360.61
-1673.7
1289.32
-1779.04
1222.02
-1857.02
1153.9
-1909.19
1087.41
-1937.66
1023.55
-1945.05
962.326
-1926.51
888.806
-1856.3
761.379
-1682.7
528.984
-1368.98
210.612
-935.291
-88.0615
-477.08
-250.441
-367.632
-127.16
1999.97
-293.803
1828.24
-414.329
1807.81
-489.746
1634.54
-554.887
1575.32
-585.038
1456.43
-599.132
1374.71
-589.518
1279.71
-561.622
1194.12
-514.033
1106.31
-447.479
1020.85
-360.748
936.817
-254.382
855.963
-135.392
769.82
-26.7345
652.725
35.2269
467.027
28.3685
217.481
9.85163
-69.5321
-50.3707
-190.213
-418.003
73.6931
1926.28
15.7234
1886.21
19.9504
1803.59
42.8048
1611.69
67.8167
1550.31
107.437
1416.81
152.041
1330.1
206.124
1225.63
267.194
1133.06
335.051
1038.46
409.474
946.433
491.182
855.111
581.289
765.858
674.649
676.462
746.027
581.348
744.644
468.412
623.472
338.656
358.404
195.538
147.05
21.1453
-270.953
162.113
1764.17
132.747
1915.58
158.187
1778.15
195.579
1574.3
244.383
1501.51
290.154
1371.05
339.017
1281.24
385.521
1179.13
431.058
1087.52
472.055
997.465
507.102
911.389
533.892
828.324
551.253
748.5
556.952
670.765
544.133
594.169
498.665
513.882
409.4
427.923
283.758
321.184
135.244
169.664
-135.709
158.242
1605.93
186.255
1887.57
228.965
1735.44
279.215
1524.06
349.846
1430.88
411.124
1309.77
473.728
1218.64
527.592
1125.27
574.239
1040.88
609.611
962.096
631.686
889.316
637.828
822.184
626.097
760.233
595.027
701.838
543.968
645.231
472.177
585.675
379.817
520.283
266.507
434.495
122.222
313.952
-13.4866
91.426
1514.5
192.102
1786.9
275.91
1651.64
351.111
1448.86
440.961
1341.03
519.425
1231.31
592.564
1145.51
652.02
1065.81
697.707
995.192
727.432
932.375
740.156
876.594
734.939
827.404
711.046
784.127
667.967
744.919
605.762
707.438
524.861
666.577
426.434
618.712
308.58
552.35
160.463
462.072
146.976
9.67524
1504.83
153.994
1642.58
273.374
1532.26
369.695
1352.54
461.364
1249.36
539.575
1153.1
605.472
1079.61
655.388
1015.9
688.837
961.743
705.748
915.465
706.548
875.795
691.838
842.115
662.15
813.816
617.956
789.115
559.44
765.955
486.289
739.729
397.977
707.025
290.811
659.517
160.813
592.072
307.789
-35.4465
1540.28
81.4244
1525.72
212.059
1401.63
319.022
1245.58
400.798
1167.59
469.494
1084.41
520.825
1028.28
557.035
979.696
577.776
941.008
584.541
908.706
578.447
881.895
560.716
859.851
532.365
842.172
494.321
827.163
446.776
813.505
389.213
797.296
319.852
776.39
233.658
745.714
129.066
696.669
436.855
-6.08915
1546.37
2.52806
1517.1
109.183
1294.97
213.512
1141.25
284.503
1096.6
345.597
1023.32
385.402
988.479
412.608
952.492
426.383
927.233
429.56
905.529
423.145
888.31
408.518
874.479
386.75
863.941
358.803
855.111
324.801
847.507
284.321
837.776
235.139
825.572
172.601
808.253
93.9649
775.307
530.82
66.0232
1480.35
-17.365
1600.49
13.6586
1263.95
94.5355
1060.38
159.561
1031.58
215.21
967.674
248.989
954.702
271.666
929.816
283.144
915.757
286.827
901.848
283.499
891.64
274.45
883.53
260.765
877.627
243.064
872.813
221.641
868.933
195.878
863.54
164.045
857.407
122.459
849.84
67.124
830.644
597.944
107.184
1373.16
39.0392
1668.63
-10.3197
1313.31
19.4219
1030.63
76.2953
974.7
122.631
921.331
153.06
924.268
171.659
911.211
181.97
905.441
186.299
897.513
185.754
892.179
181.105
888.174
173.637
885.09
163.214
883.232
150.819
881.323
135.005
879.351
115.69
876.719
89.2196
876.308
53.3445
866.516
651.288
99.2165
1273.95
112.379
1655.47
60.85
1364.84
44.2046
1047.28
78.1544
940.751
106.147
893.337
128.114
902.301
139.004
900.321
144.882
899.563
146.221
896.174
144.626
893.774
140.018
892.782
134.035
891.073
125.518
891.749
116.571
890.271
104.382
891.539
91.3533
889.748
72.4485
895.213
51.0092
887.955
702.298
68.31
1205.63
152.049
1571.72
163.501
1353.38
147.987
1062.78
155.067
933.665
159.402
888.995
164.658
897.038
163.901
901.071
161.037
902.42
155.376
901.828
148.48
900.664
139.521
901.735
130.473
900.115
119.168
903.049
108.888
900.545
95.3567
905.066
83.4782
901.623
66.1264
912.562
53.9085
900.17
756.206
41.7695
1163.86
153.599
1459.89
219.061
1287.91
233.327
1048.51
228.816
938.172
216.524
901.283
206.235
907.323
195.59
911.712
184.79
913.216
172.783
913.832
160.729
912.715
147.314
915.145
134.85
912.576
120.27
917.626
107.963
912.849
92.2624
920.764
80.1926
913.691
62.5329
930.219
55.9919
906.708
812.198
29.5637
1134.29
136.021
1353.43
217.297
1206.63
249.935
1015.87
244.399
943.701
227.405
918.268
210.438
924.283
196.056
926.086
182.126
927.139
168.004
927.946
154.432
926.28
139.87
929.701
126.943
925.496
111.871
932.692
99.9365
924.777
84.3421
936.354
73.6001
924.428
56.9216
946.894
54.5526
909.073
866.75
29.7056
1104.58
112.636
1270.5
179.864
1139.4
209.578
986.151
204.432
948.847
190.901
931.799
177.295
937.888
166.5
936.879
155.785
937.854
144.926
938.805
134.427
936.778
122.763
941.364
112.58
935.679
99.9752
945.296
90.4121
934.341
76.8685
949.897
68.1823
933.115
53.2338
961.842
52.5725
909.734
919.323
40.5
1064.08
106.585
1204.41
164.233
1081.75
192.46
957.921
190.862
950.442
185.197
937.462
173.158
949.925
162.747
947.288
151.178
949.42
139.786
950.194
128.849
947.714
116.891
953.319
106.772
945.797
94.2144
957.852
85.0121
943.541
71.7847
963.123
63.629
941.269
49.3386
976.131
47.5745
911.497
966.897
60.6467
1003.43
79.1557
1185.9
93.7128
1067.19
96.625
955.006
88.3649
958.7
77.968
947.856
78.4786
949.412
85.1231
940.64
92.0614
942.48
97.9306
944.323
101.717
943.925
102.254
952.78
100.844
947.206
95.5689
963.124
89.9457
949.163
79.85
973.217
71.5437
949.574
57.3343
990.339
52.2858
916.544
1019.18
138.073
261.268
345.687
401.97
466.856
530.699
565.406
560.449
536.629
495.499
444.294
390.392
335.464
284.56
234.112
188.625
142.907
101.138
54.013
)
;

boundaryField
{
    outletWall
    {
        type            calculated;
        value           nonuniform List<scalar> 
60
(
-7722.59
-6834.97
-6347.37
-7837.87
-8779.17
-7148.07
-3505.17
3710.49
5701.74
5369.73
4857.36
4487.13
4133.94
3878.35
3450.06
3520.4
2553.99
4564.32
-218.86
11430.9
1828.91
-718.46
1011.88
459.222
877.142
906.29
1128.66
1310.8
1561.05
1846.62
1846.63
1561.07
1310.83
1128.69
906.312
877.166
459.234
1011.92
-718.481
1828.94
-7734.94
-6848.39
-6350.37
-7828.21
-8770.62
-7146.44
-3497.46
3721.1
5711.47
5377.9
4863.82
4491.72
4136.97
3880.27
3451.22
3521.07
2554.37
4564.51
-218.712
11430.7
)
;
    }
    fineWalls
    {
        type            calculated;
        value           uniform 0;
    }
    fineFrontAndBack
    {
        type            calculated;
        value           nonuniform List<scalar> 
960
(
-1.32525e-15
8.19805e-14
-2.70642e-14
-5.65996e-14
-1.76587e-13
-4.88617e-14
5.80925e-14
-1.59818e-13
-3.44046e-13
2.37841e-13
6.09445e-13
3.97309e-12
-3.63534e-13
-1.12494e-12
-9.43286e-12
-9.81998e-13
-2.99406e-13
5.06472e-12
-8.96823e-13
-1.13776e-12
-1.23801e-12
-2.38887e-12
-2.95548e-12
-3.19554e-12
-3.14206e-12
-2.90303e-12
-6.4433e-11
-2.45906e-12
-2.34752e-12
-2.34346e-12
-2.45992e-12
-2.65287e-12
-2.85031e-12
-3.02926e-12
-3.15203e-12
-3.1695e-12
-3.23086e-12
-3.15703e-12
-3.15461e-12
-2.95988e-12
-7.29115e-11
-1.11066e-11
-1.2251e-11
-1.75534e-11
-1.01369e-10
-1.16674e-11
-9.72323e-12
-7.58195e-12
4.59378e-11
-5.99054e-12
-2.85032e-12
-1.71045e-11
-1.53522e-12
-1.15033e-12
-1.2794e-12
4.16663e-12
6.2869e-12
7.73617e-12
9.19939e-12
7.2909e-11
2.97246e-12
3.04389e-12
3.05896e-12
3.10585e-12
3.08044e-12
3.03352e-12
2.84847e-12
2.59483e-12
2.31867e-12
2.04147e-12
1.78654e-12
1.48363e-12
1.07246e-12
-7.87772e-12
-9.64709e-13
-1.7123e-12
-1.82788e-12
-1.77104e-12
-1.6989e-12
-2.15039e-12
-1.20464e-11
-1.21455e-11
-6.14149e-11
-1.01161e-11
-6.8324e-12
-1.83096e-11
-2.33737e-12
-2.21996e-12
-1.23171e-11
-1.63081e-12
-1.00367e-12
1.29131e-12
7.82343e-13
7.72736e-13
7.72317e-13
3.66846e-12
4.67235e-13
3.40718e-13
4.89187e-13
-3.1475e-14
1.07336e-11
8.89388e-13
2.79868e-12
2.85247e-12
4.71903e-12
5.96595e-12
6.58985e-12
6.48103e-12
5.86939e-12
4.70662e-12
3.00111e-12
8.99464e-13
-1.09602e-12
-1.22896e-12
-2.17502e-13
2.76441e-14
1.21637e-15
8.5183e-16
-4.18562e-14
2.51544e-11
1.83426e-11
1.75825e-11
1.32098e-11
2.04293e-11
2.98425e-11
3.50645e-11
3.30124e-11
2.648e-11
1.85842e-11
1.0605e-11
3.39928e-12
-1.63932e-12
-3.00002e-12
-7.42816e-13
-7.72003e-14
-1.27867e-15
-1.25473e-13
8.09514e-13
2.4812e-11
2.87846e-11
2.21127e-11
1.86796e-11
2.93467e-11
4.28996e-11
4.93189e-11
4.52784e-11
3.48109e-11
2.24644e-11
1.05982e-11
9.01967e-13
-4.87103e-12
-5.38691e-12
-1.24499e-12
-3.77884e-13
6.11117e-15
-9.26311e-14
1.08815e-12
-2.97455e-11
3.6035e-11
1.54384e-11
1.27593e-11
2.3999e-11
4.35132e-11
5.55033e-11
5.39038e-11
4.15892e-11
2.45541e-11
8.27419e-12
-3.43314e-12
-9.13124e-12
-8.72725e-12
-3.29408e-12
-1.54673e-13
6.69919e-14
6.33972e-14
5.81338e-13
-1.89974e-10
1.91801e-11
-3.14936e-11
-3.34584e-11
-3.33867e-11
-1.31196e-11
1.32368e-11
3.21281e-11
3.25916e-11
1.81717e-11
1.78076e-12
-8.77076e-12
-1.26981e-11
-1.09904e-11
-5.03366e-12
1.7782e-13
2.71583e-13
1.42344e-12
6.11862e-13
-5.22053e-10
-3.44061e-11
-1.45646e-10
-1.60119e-10
-1.91318e-10
-1.67356e-10
-9.57438e-11
-1.85884e-11
1.59018e-11
1.06868e-11
-3.51796e-12
-1.0874e-11
-1.05696e-11
-5.92711e-12
4.4308e-13
1.57868e-12
-2.44866e-12
-6.09308e-12
3.36563e-12
-1.0375e-09
-1.28044e-10
-3.46448e-10
-3.99837e-10
-4.74257e-10
-4.24113e-10
-2.59137e-10
-8.17456e-11
2.13841e-12
9.02789e-12
-1.89533e-12
-2.89247e-12
3.20758e-12
7.95523e-12
1.56397e-11
2.1583e-11
1.07946e-11
1.172e-11
1.52443e-11
-1.61995e-09
-2.50961e-10
-6.25458e-10
-7.41734e-10
-8.41793e-10
-7.31199e-10
-4.45144e-10
-1.53525e-10
-1.35377e-11
1.63649e-11
1.41398e-11
2.09328e-11
2.39254e-11
1.90051e-11
2.95915e-11
5.45246e-11
7.32351e-11
9.42269e-11
1.18309e-10
-1.96554e-09
-3.7747e-10
-9.00262e-10
-1.06235e-09
-1.13626e-09
-9.65077e-10
-6.26997e-10
-2.99012e-10
-9.80986e-11
-5.37387e-12
3.25241e-11
4.58632e-11
3.09374e-11
1.59601e-11
3.08358e-11
5.98889e-11
8.12428e-11
8.9111e-11
6.86343e-11
-1.51754e-09
-4.74823e-10
-9.50316e-10
-1.08662e-09
-1.0952e-09
-9.38725e-10
-6.93309e-10
-4.28496e-10
-1.99988e-10
-3.46973e-11
4.53508e-11
4.57752e-11
1.44362e-11
-2.13169e-12
1.44661e-11
3.80205e-11
4.40382e-11
2.87684e-11
-7.93065e-12
7.86377e-10
-4.54339e-10
-3.14527e-10
-3.70014e-10
-3.25543e-10
-2.42655e-10
-1.33218e-10
-4.43959e-11
1.89651e-12
1.24911e-11
1.6459e-11
1.53062e-11
-8.50191e-12
-4.52304e-11
-7.8814e-11
-1.07689e-10
-1.31417e-10
-1.41754e-10
-9.32102e-11
1.5186e-09
-2.67156e-10
-4.1786e-11
-7.9601e-11
-2.10035e-11
9.60467e-12
2.62436e-11
3.23205e-11
2.37035e-11
9.45489e-12
1.95101e-12
8.09852e-13
-9.4934e-12
-3.58262e-11
-6.80566e-11
-9.29513e-11
-1.1123e-10
-1.40211e-10
-1.73336e-10
1.3991e-09
-1.06979e-10
6.2735e-11
2.31843e-11
7.81484e-11
9.04014e-11
6.76061e-11
3.48921e-11
1.34036e-11
2.63908e-12
-1.69709e-12
-3.72051e-12
-8.18656e-12
-2.16943e-11
-4.03088e-11
-5.19344e-11
-6.26085e-11
-9.38234e-11
-1.27928e-10
9.43176e-10
-3.5365e-11
7.65855e-11
4.62423e-11
8.61917e-11
9.35074e-11
6.85515e-11
3.23766e-11
9.55954e-12
1.614e-12
-4.21215e-13
-2.34398e-12
-5.759e-12
-1.17458e-11
-1.70063e-11
-1.13685e-11
-2.72343e-12
-1.40493e-11
-6.21982e-11
4.86029e-10
-2.60902e-11
4.67907e-11
3.77459e-11
6.25115e-11
6.64871e-11
5.10781e-11
2.67125e-11
8.70773e-12
2.2065e-12
1.7371e-12
1.75745e-12
5.13816e-13
-9.6811e-13
-9.33565e-14
4.19878e-12
2.3555e-12
3.91263e-12
1.61937e-11
1.77164e-10
-3.55413e-11
1.05e-11
2.10048e-11
3.52881e-11
3.57473e-11
2.80028e-11
1.63692e-11
6.32562e-12
1.88633e-12
2.30171e-12
4.50091e-12
6.60513e-12
8.0293e-12
7.7856e-12
2.86077e-12
-1.97176e-13
-1.23753e-12
-4.16576e-12
2.54241e-11
-3.75986e-11
-1.13251e-11
7.57761e-12
1.59778e-11
1.46027e-11
1.05009e-11
6.43974e-12
2.6418e-12
6.26014e-13
1.46078e-12
4.49017e-12
8.44546e-12
1.09672e-11
8.13126e-12
1.40208e-12
1.48373e-13
1.27321e-13
1.24748e-12
-2.62604e-11
-2.69914e-11
-1.43113e-11
1.38552e-12
4.78744e-12
3.07528e-12
9.26295e-13
1.02302e-13
-4.53704e-13
-6.98471e-13
2.92977e-13
2.97723e-12
6.98977e-12
9.54055e-12
4.59828e-12
9.36916e-13
-1.51334e-13
-7.3906e-14
-2.44109e-13
-2.56229e-11
-1.68191e-11
-1.2389e-11
-6.59815e-13
1.05329e-12
-4.21683e-13
-2.09442e-12
-2.26337e-12
-1.90793e-12
-1.51113e-12
-6.45293e-13
1.28623e-12
4.50653e-12
6.67647e-12
1.50454e-12
1.37294e-13
-5.07946e-14
1.60658e-14
1.32295e-14
-1.0574e-11
4.10412e-15
-9.04984e-13
3.14041e-14
-7.30073e-13
-1.28952e-12
-1.55528e-12
-1.56982e-12
-1.48989e-12
-1.30604e-12
-8.40099e-13
3.49932e-13
2.46812e-12
2.551e-12
2.70746e-13
-9.74394e-14
8.47695e-15
6.46723e-16
2.13146e-14
1.32525e-15
-8.19805e-14
2.70642e-14
5.65996e-14
1.76587e-13
4.88617e-14
-5.80925e-14
1.59818e-13
3.44046e-13
-2.37841e-13
-6.09445e-13
-3.97309e-12
3.63534e-13
1.12494e-12
9.43286e-12
9.81998e-13
2.99406e-13
-5.06472e-12
8.96823e-13
1.13776e-12
1.23801e-12
2.38887e-12
2.95548e-12
3.19554e-12
3.14206e-12
2.90303e-12
6.4433e-11
2.45906e-12
2.34752e-12
2.34346e-12
2.45992e-12
2.65287e-12
2.85031e-12
3.02926e-12
3.15203e-12
3.1695e-12
3.23086e-12
3.15703e-12
3.15461e-12
2.95988e-12
7.29115e-11
1.11066e-11
1.2251e-11
1.75534e-11
1.01369e-10
1.16674e-11
9.72323e-12
7.58195e-12
-4.59378e-11
5.99054e-12
2.85032e-12
1.71045e-11
1.53522e-12
1.15033e-12
1.2794e-12
-4.16663e-12
-6.2869e-12
-7.73617e-12
-9.19939e-12
-7.2909e-11
-2.97246e-12
-3.04389e-12
-3.05896e-12
-3.10585e-12
-3.08044e-12
-3.03352e-12
-2.84847e-12
-2.59483e-12
-2.31867e-12
-2.04147e-12
-1.78654e-12
-1.48363e-12
-1.07246e-12
7.87772e-12
9.64709e-13
1.7123e-12
1.82788e-12
1.77104e-12
1.6989e-12
2.15039e-12
1.20464e-11
1.21455e-11
6.14149e-11
1.01161e-11
6.8324e-12
1.83096e-11
2.33737e-12
2.21996e-12
1.23171e-11
1.63081e-12
1.00367e-12
-1.29131e-12
-7.82343e-13
-7.72736e-13
-7.72317e-13
-3.66846e-12
-4.67235e-13
-3.40718e-13
-4.89187e-13
3.1475e-14
-1.07336e-11
-8.89388e-13
-2.79868e-12
-2.85247e-12
-4.71903e-12
-5.96595e-12
-6.58985e-12
-6.48103e-12
-5.86939e-12
-4.70662e-12
-3.00111e-12
-8.99464e-13
1.09602e-12
1.22896e-12
2.17502e-13
-2.76441e-14
-1.21637e-15
-8.5183e-16
4.18562e-14
-2.51544e-11
-1.83426e-11
-1.75825e-11
-1.32098e-11
-2.04293e-11
-2.98425e-11
-3.50645e-11
-3.30124e-11
-2.648e-11
-1.85842e-11
-1.0605e-11
-3.39928e-12
1.63932e-12
3.00002e-12
7.42816e-13
7.72003e-14
1.27867e-15
1.25473e-13
-8.09514e-13
-2.4812e-11
-2.87846e-11
-2.21127e-11
-1.86796e-11
-2.93467e-11
-4.28996e-11
-4.93189e-11
-4.52784e-11
-3.48109e-11
-2.24644e-11
-1.05982e-11
-9.01967e-13
4.87103e-12
5.38691e-12
1.24499e-12
3.77884e-13
-6.11117e-15
9.26311e-14
-1.08815e-12
2.97455e-11
-3.6035e-11
-1.54384e-11
-1.27593e-11
-2.3999e-11
-4.35132e-11
-5.55033e-11
-5.39038e-11
-4.15892e-11
-2.45541e-11
-8.27419e-12
3.43314e-12
9.13124e-12
8.72725e-12
3.29408e-12
1.54673e-13
-6.69919e-14
-6.33972e-14
-5.81338e-13
1.89974e-10
-1.91801e-11
3.14936e-11
3.34584e-11
3.33867e-11
1.31196e-11
-1.32368e-11
-3.21281e-11
-3.25916e-11
-1.81717e-11
-1.78076e-12
8.77076e-12
1.26981e-11
1.09904e-11
5.03366e-12
-1.7782e-13
-2.71583e-13
-1.42344e-12
-6.11862e-13
5.22053e-10
3.44061e-11
1.45646e-10
1.60119e-10
1.91318e-10
1.67356e-10
9.57438e-11
1.85884e-11
-1.59018e-11
-1.06868e-11
3.51796e-12
1.0874e-11