/*--------------------------------*- C++ -*----------------------------------*\
| =========                 |                                                 |
| \\      /  F ield         | OpenFOAM: The Open Source CFD Toolbox           |
|  \\    /   O peration     | Version:  4.1                                   |
|   \\  /    A nd           | Web:      www.OpenFOAM.org                      |
|    \\/     M anipulation  |                                                 |
\*---------------------------------------------------------------------------*/
FoamFile
{
    version     2.0;
    format      ascii;
    class       volVectorField;
    location    "2";
    object      U;
}
// * * * * * * * * * * * * * * * * * * * * * * * * * * * * * * * * * * * * * //

dimensions      [0 1 -1 0 0 0 0];

internalField   nonuniform List<vector> 
1280
(
(-9.57725e-19 4.39932 -0.124722)
(1.39334e-17 2.60639 -0.166406)
(-1.95586e-17 2.00098 -0.268455)
(-4.09031e-17 2.56175 -0.331781)
(-3.00127e-17 2.69338 -0.188883)
(-3.53111e-17 2.01081 -0.109676)
(4.19819e-17 2.29001 -0.107136)
(-1.42465e-16 2.17287 -0.0888045)
(-4.53443e-18 2.44192 -0.0732999)
(1.68234e-16 1.91957 -0.136022)
(4.58685e-16 2.06465 -0.23738)
(6.16837e-16 2.34153 -0.327781)
(-2.66447e-16 1.81498 -0.455721)
(-8.12965e-16 2.02905 -0.640357)
(-1.59063e-15 2.31908 -0.680241)
(-7.09665e-16 1.71521 -0.685367)
(-2.16373e-16 2.05932 -0.725833)
(8.60797e-16 1.92561 -1.81341)
(-6.48111e-16 2.93064 -0.610003)
(-8.22228e-16 1.44532 -3.84167)
(-5.07903e-15 2.66161 1.74972)
(-9.80049e-15 2.96295 3.73238)
(-1.2125e-14 2.60185 4.96735)
(-1.31099e-14 3.15328 5.74091)
(-1.28905e-14 2.95505 5.84323)
(-1.19099e-14 3.56518 6.03849)
(-1.35827e-14 2.03557 6.10682)
(-1.00885e-14 5.20421 13.3195)
(-9.63086e-15 5.68044 15.0418)
(-9.61421e-15 5.79228 16.4377)
(-1.0092e-14 5.89627 17.1576)
(-1.08836e-14 5.78769 17.4205)
(-1.16936e-14 5.88468 17.228)
(-1.24277e-14 5.63891 17.0849)
(-1.29314e-14 5.84995 16.63)
(-1.30031e-14 5.53142 16.5573)
(-1.32548e-14 5.83602 16.0174)
(-1.29519e-14 5.53354 16.2999)
(-1.2942e-14 5.75515 15.4441)
(-1.21431e-14 5.63724 16.344)
(-1.26913e-14 6.428 14.1305)
(-8.92095e-15 2.46282 7.2167)
(-9.8402e-15 1.41432 5.7088)
(-1.39213e-14 1.18711 3.43309)
(-1.69337e-14 0.825936 -0.325177)
(-9.3714e-15 -0.519586 -1.43694)
(-7.80982e-15 -0.0222236 -0.869166)
(-6.08992e-15 0.194429 -0.0127142)
(1.93274e-14 -0.314575 -0.559709)
(-4.81168e-15 -0.214616 -1.34905)
(-3.10904e-15 0.133522 -0.543481)
(-2.97729e-15 0.557769 -0.762575)
(-1.23311e-15 -0.405528 -0.0563244)
(-9.23963e-16 -0.149498 0.066196)
(-1.02763e-15 0.762523 -0.759904)
(7.25262e-16 -0.669597 -0.269964)
(5.23015e-15 -1.18723 3.53271)
(6.21379e-15 -1.38374 5.73052)
(7.38907e-15 -2.44506 7.2412)
(1.27598e-14 -6.41298 14.0722)
(1.21947e-14 -5.63829 16.1226)
(1.24878e-14 -5.71316 15.5318)
(1.25496e-14 -5.5669 16.241)
(1.27419e-14 -5.77302 16.0428)
(1.26377e-14 -5.56632 16.526)
(1.24452e-14 -5.80237 16.6459)
(1.16861e-14 -5.65981 17.0697)
(1.06454e-14 -5.8571 17.2421)
(9.51247e-15 -5.79667 17.4228)
(8.37526e-15 -5.88679 17.1746)
(7.32939e-15 -5.79366 16.4573)
(6.08669e-15 -5.6815 15.0673)
(4.39984e-15 -5.21147 13.361)
(-1.66065e-15 -2.08159 6.16171)
(-3.95778e-15 -3.56656 6.04611)
(-7.02483e-15 -2.99674 5.83853)
(-7.49898e-15 -3.11838 5.84191)
(-7.26581e-15 -2.6031 5.21247)
(-6.96986e-15 -2.91993 4.05841)
(-8.82211e-15 -2.62117 1.73434)
(-8.70559e-15 -1.41137 -3.8238)
(-8.77727e-15 -2.9107 -0.594811)
(-1.04381e-14 -1.89738 -1.79842)
(-7.31063e-15 -2.04318 -0.720051)
(-4.9376e-15 -1.69887 -0.678701)
(-3.10346e-15 -2.30354 -0.673736)
(-1.68728e-15 -2.01753 -0.636663)
(-1.60572e-15 -1.80397 -0.451621)
(-2.1154e-15 -2.32987 -0.324109)
(-1.16022e-15 -2.05632 -0.235786)
(-7.28986e-16 -1.91133 -0.133919)
(5.72187e-17 -2.4331 -0.0708531)
(5.38338e-16 -2.16648 -0.0869433)
(5.58436e-16 -2.28332 -0.104285)
(5.58134e-16 -2.00506 -0.107013)
(6.2349e-16 -2.68616 -0.186239)
(3.37658e-16 -2.55741 -0.330222)
(2.46228e-16 -1.99637 -0.266796)
(1.06248e-16 -2.60063 -0.165821)
(-2.27461e-17 -4.39363 -0.124973)
(1.19263e-15 16.67 13.5664)
(9.88209e-17 2.38097 0.839609)
(3.10965e-16 8.1936 7.24771)
(3.16941e-16 6.4407 5.63466)
(5.24336e-16 7.96077 7.11032)
(6.62884e-16 8.14227 7.22581)
(7.32205e-16 8.77291 7.7492)
(7.20115e-16 9.04777 7.901)
(6.52154e-16 9.25408 7.93044)
(5.22958e-16 9.28318 7.61873)
(3.33456e-16 9.22515 6.81007)
(9.99404e-17 8.73151 5.11308)
(-1.2178e-16 6.18623 2.29135)
(-1.36552e-16 -0.521044 -2.71621)
(-2.41669e-17 -3.77064 -1.88399)
(3.07157e-18 -4.39808 -0.331627)
(1.35153e-19 -3.679 0.558765)
(9.46478e-20 -3.03773 0.241564)
(-4.65068e-18 -3.32138 0.621236)
(2.79493e-15 -6.3671 -0.474601)
(2.03806e-15 -0.770538 0.77555)
(1.95361e-15 -3.25066 0.482317)
(1.46776e-15 -2.54979 0.176054)
(2.26992e-15 -3.22193 0.33514)
(3.31583e-15 -3.20082 0.267054)
(3.89606e-15 -3.3421 0.430086)
(3.66804e-15 -3.26177 0.627816)
(2.94223e-15 -3.06529 1.00251)
(2.06491e-15 -2.61859 1.56196)
(1.17833e-15 -1.78611 2.35432)
(3.77698e-16 -0.387777 3.22476)
(-1.82147e-16 1.10463 3.63552)
(-3.33335e-16 0.0786386 1.76622)
(-8.25351e-17 -3.19967 -2.96228)
(-8.57781e-18 -4.38513 -1.83273)
(-1.42075e-19 -3.43081 0.478285)
(-1.39414e-17 -2.42006 0.732049)
(8.9946e-17 -2.88518 1.08145)
(2.75688e-15 4.84938 3.8158)
(3.19829e-15 1.21326 -0.686222)
(2.45697e-15 2.51948 2.06551)
(2.07551e-15 2.1232 1.42399)
(3.26074e-15 2.50544 2.03496)
(4.76663e-15 2.65692 2.09779)
(5.47987e-15 2.92677 2.44054)
(5.03093e-15 3.1454 2.75474)
(3.86788e-15 3.351 3.23047)
(2.49604e-15 3.51926 3.84702)
(1.17758e-15 3.7213 4.59867)
(1.00219e-16 4.01382 5.29192)
(-5.41225e-16 4.00446 5.5857)
(-5.98546e-16 2.24123 4.26117)
(-1.38332e-16 -1.67119 -1.39882)
(-4.19872e-17 -4.02962 -2.15723)
(6.79019e-19 -3.27919 -0.432567)
(-1.02923e-17 -1.8604 0.721398)
(1.20905e-16 -1.8405 0.993582)
(-3.30506e-15 -0.056764 2.84822)
(4.00389e-15 -0.0683886 -0.0117583)
(1.71538e-15 -0.0675912 1.76917)
(1.4177e-15 -0.0259996 1.22899)
(2.66655e-15 -0.0696117 1.74304)
(4.8348e-15 -0.048904 1.81197)
(6.16703e-15 -0.0643586 2.15671)
(5.98931e-15 -0.0825673 2.5388)
(4.62102e-15 -0.110391 3.17927)
(2.72824e-15 -0.0286744 4.13732)
(9.19355e-16 0.408441 5.48968)
(-3.8146e-16 1.43681 7.04856)
(-1.01458e-15 2.83445 8.24098)
(-9.69694e-16 3.10435 7.66006)
(-3.66009e-16 -0.441791 2.65407)
(-1.71859e-17 -3.99676 -1.76075)
(7.44354e-18 -4.1019 -0.886597)
(7.04414e-18 -2.48236 0.250577)
(6.45931e-17 -2.0974 0.673157)
(-2.11082e-14 1.81956 3.75857)
(2.13112e-15 0.55995 -0.242626)
(-3.49928e-15 1.01243 2.06798)
(-3.7176e-15 0.947963 1.4709)
(-3.70964e-15 1.08123 2.05533)
(-1.45773e-15 1.16748 2.16003)
(1.47075e-15 1.25727 2.56737)
(3.56979e-15 1.30734 3.06732)
(3.62128e-15 1.29558 3.92679)
(2.01908e-15 1.22995 5.19356)
(1.97862e-16 1.31882 6.81252)
(-9.74529e-16 1.93418 8.42623)
(-1.4109e-15 3.23471 9.55061)
(-1.22115e-15 4.24056 9.5405)
(-5.59295e-16 1.96861 6.48438)
(1.97577e-17 -3.16012 -0.421217)
(3.01759e-17 -4.30817 -0.643387)
(1.5816e-16 -2.71465 -0.129979)
(6.79847e-17 -1.79144 0.836424)
(-5.80059e-14 0.706577 3.90343)
(-3.8229e-15 0.0714353 -0.0695157)
(-1.61829e-14 0.349072 2.15708)
(-1.7791e-14 0.330847 1.57499)
(-2.12576e-14 0.360303 2.16422)
(-1.85951e-14 0.365414 2.30679)
(-1.06382e-14 0.286869 2.77815)
(-2.06538e-15 0.0854315 3.40462)
(1.76686e-15 -0.225205 4.41889)
(1.18742e-15 -0.446905 5.76363)
(-3.90885e-16 -0.226935 7.17424)
(-1.20822e-15 0.854586 7.96237)
(-1.1744e-15 2.72984 8.14074)
(-6.58567e-16 4.50901 8.59876)
(4.92311e-17 3.61894 8.6565)
(1.75409e-16 -1.58744 3.70817)
(-2.72074e-16 -4.27575 -0.475988)
(-6.77009e-16 -3.10299 -0.937639)
(3.73959e-16 -2.41386 -2.10852)
(-1.15278e-13 0.937858 4.41517)
(-1.42271e-14 0.225652 0.00282619)
(-3.84943e-14 0.527892 2.35967)
(-4.44264e-14 0.515878 1.7821)
(-5.26952e-14 0.567644 2.40039)
(-4.71237e-14 0.574196 2.58693)
(-2.8793e-14 0.488793 3.11254)
(-9.08284e-15 0.27746 3.7845)
(2.37601e-16 -0.0583346 4.62929)
(1.0031e-15 -0.298953 5.43726)
(-2.10592e-16 0.0799993 5.75156)
(-3.21385e-16 1.25214 5.03823)
(3.56398e-16 2.76644 4.59619)
(8.83915e-16 4.00063 6.11594)
(1.73774e-15 3.82738 9.41201)
(2.39812e-15 0.932934 8.67051)
(1.19941e-15 -1.96938 2.28638)
(1.30222e-15 -1.62991 0.730624)
(1.69382e-15 -1.06066 3.26685)
(-1.79995e-13 0.493044 4.80695)
(-2.78846e-14 0.0254156 0.132864)
(-6.94953e-14 0.275667 2.53319)
(-8.24149e-14 0.257515 1.97333)
(-9.35326e-14 0.264009 2.61371)
(-8.12443e-14 0.205965 2.82134)
(-4.94604e-14 0.00399741 3.26469)
(-1.70583e-14 -0.310656 3.63062)
(-1.50419e-15 -0.599583 3.97929)
(1.81833e-15 -0.636153 4.12055)
(1.57109e-15 0.103151 3.47574)
(2.32587e-15 1.37755 2.64254)
(2.65838e-15 2.30875 3.37198)
(2.11168e-15 2.65975 6.2417)
(3.28794e-15 2.41618 10.9111)
(6.05829e-15 0.821694 13.7388)
(8.13724e-15 -1.46276 12.1894)
(1.04697e-14 -3.40166 11.7675)
(1.31455e-14 -5.33329 14.4796)
(-2.18393e-13 0.393511 5.32563)
(-4.19411e-14 0.0497876 0.25107)
(-1.00029e-13 0.244936 2.74547)
(-1.18039e-13 0.233425 2.20671)
(-1.26251e-13 0.238426 2.86758)
(-1.07231e-13 0.203302 3.0798)
(-6.96663e-14 0.0745886 3.41936)
(-3.32236e-14 -0.157289 3.48818)
(-1.08998e-14 -0.401838 3.33095)
(-5.97096e-16 -0.279502 2.84528)
(3.61379e-15 0.54557 2.11526)
(5.09591e-15 1.22803 2.60338)
(3.43748e-15 1.35848 4.68934)
(1.77334e-15 1.1195 7.84983)
(3.4262e-15 0.92231 11.6636)
(6.65432e-15 0.290205 14.3933)
(9.02698e-15 -1.21527 14.3714)
(9.90123e-15 -2.64167 12.4881)
(7.62604e-15 -2.48341 8.63012)
(-1.68616e-13 0.0599443 5.82411)
(-5.27582e-14 -0.0199856 0.339209)
(-1.05591e-13 0.0482429 2.9233)
(-1.20736e-13 0.0382011 2.39782)
(-1.21689e-13 0.0252192 3.06525)
(-1.04303e-13 -0.0144343 3.24324)
(-7.72158e-14 -0.101461 3.427)
(-4.76107e-14 -0.20841 3.15429)
(-2.22209e-14 -0.262103 2.4259)
(-3.85525e-15 -0.0971533 1.46577)
(5.03898e-15 0.246812 1.45886)
(5.04076e-15 0.373652 3.2667)
(1.60402e-15 0.210297 5.58838)
(-2.36855e-16 -0.0784115 7.25598)
(1.68796e-15 -0.187706 8.44625)
(4.2245e-15 -0.234427 9.15812)
(4.89313e-15 -0.531627 8.19519)
(3.19649e-15 -0.665446 5.07086)
(-8.81184e-16 0.595555 0.157242)
(8.73753e-14 -0.0599463 5.82409)
(-5.04821e-14 0.0201184 0.33924)
(-3.49475e-14 -0.0481376 2.92332)
(-4.11126e-14 -0.037914 2.3979)
(-3.61714e-14 -0.0246394 3.06544)
(-2.69617e-14 0.0158723 3.24393)
(-1.4598e-14 0.105092 3.42974)
(-4.93288e-15 0.217136 3.16403)
(2.10723e-16 0.281291 2.45432)
(1.3879e-15 0.127325 1.53113)
(1.82878e-15 -0.228099 1.53858)
(1.70068e-15 -0.376869 3.3049)
(-9.44657e-16 -0.231577 5.58829)
(-5.0256e-15 0.0401921 7.20828)
(-8.75711e-15 0.144628 8.32905)
(-1.19655e-14 0.206652 8.99546)
(-1.46019e-14 0.540654 8.07449)
(-1.57505e-14 0.732136 5.13677)
(-1.03567e-14 -0.598258 0.619317)
(1.68734e-13 -0.393511 5.32556)
(-2.9684e-14 -0.0496931 0.251138)
(-4.64289e-15 -0.244836 2.74551)
(-8.84456e-15 -0.233189 2.20682)
(-2.33372e-15 -0.237997 2.86773)
(1.06719e-15 -0.202555 3.08001)
(2.91595e-15 -0.0735915 3.41983)
(3.59117e-15 0.158416 3.49057)
(2.63373e-15 0.404618 3.34132)
(1.05054e-15 0.289756 2.87832)
(2.16778e-16 -0.527715 2.18788)
(8.99835e-17 -1.21509 2.67743)
(-1.05482e-15 -1.35471 4.73416)
(-3.98069e-15 -1.12342 7.856)
(-7.56184e-15 -0.933669 11.6235)
(-1.03279e-14 -0.325667 14.3246)
(-1.23588e-14 1.14951 14.3102)
(-1.5579e-14 2.58115 12.429)
(-1.92595e-14 2.51807 8.61873)
(1.55455e-13 -0.493059 4.80688)
(-1.18866e-14 -0.0253499 0.132937)
(6.97056e-15 -0.275566 2.53324)
(2.57603e-15 -0.257299 1.97349)
(8.68315e-15 -0.263549 2.61402)
(1.00446e-14 -0.204965 2.82205)
(7.51179e-15 -0.00209728 3.26623)
(3.8769e-15 0.313252 3.63375)
(1.48929e-15 0.602413 3.9855)
(2.93231e-16 0.6401 4.13516)
(-1.88565e-16 -0.0943978 3.51325)
(-4.1339e-16 -1.36534 2.7028)
(-9.09618e-16 -2.299 3.43552)
(-2.41047e-15 -2.65792 6.29587)
(-4.47876e-15 -2.42228 10.946)
(-5.77049e-15 -0.83735 13.7675)
(-6.9565e-15 1.44825 12.2242)
(-1.04248e-14 3.38665 11.7811)
(-1.42142e-14 5.33764 14.4904)
(1.04797e-13 -0.937866 4.41509)
(-3.92944e-15 -0.225612 0.00288444)
(8.5095e-15 -0.527813 2.35972)
(5.13803e-15 -0.515736 1.78227)
(9.57685e-15 -0.567371 2.40073)
(1.03897e-14 -0.573721 2.5877)
(7.61684e-15 -0.488118 3.11423)
(3.5974e-15 -0.276911 3.7878)
(1.06217e-15 0.0581409 4.63453)
(1.79333e-16 0.297944 5.44631)
(-4.68017e-17 -0.0799266 5.77051)
(-2.60442e-16 -1.24908 5.07558)
(-6.39888e-16 -2.76111 4.65095)
(-1.30509e-15 -3.99688 6.17824)
(-1.88959e-15 -3.83007 9.46252)
(-1.26317e-15 -0.958927 8.71326)
(-3.02603e-16 1.93144 2.3088)
(-1.56103e-15 1.60385 0.732741)
(-6.91091e-15 1.06506 3.24579)
(5.40032e-14 -0.706618 3.90336)
(-2.89891e-15 -0.0714168 -0.069471)
(5.19896e-15 -0.349023 2.15712)
(4.19398e-15 -0.330753 1.57515)
(6.94572e-15 -0.360106 2.16454)
(7.38746e-15 -0.365047 2.30751)
(5.67534e-15 -0.286269 2.77961)
(2.96806e-15 -0.0848518 3.40729)
(9.67525e-16 0.224882 4.42286)
(2.45166e-16 0.445038 5.76868)
(1.93011e-16 0.224085 7.18158)
(1.95272e-16 -0.856849 7.97664)
(5.70907e-17 -2.72966 8.16757)
(-1.07568e-16 -4.50587 8.63618)
(-1.03729e-17 -3.61723 8.69038)
(4.66531e-16 1.57292 3.73328)
(2.61723e-16 4.25816 -0.475233)
(4.34737e-16 3.09127 -0.952553)
(1.7993e-15 2.43091 -2.13707)
(1.96849e-14 -1.81957 3.7585)
(-3.94903e-15 -0.559933 -0.242599)
(1.16666e-15 -1.0124 2.068)
(2.33387e-15 -0.947924 1.47104)
(3.9209e-15 -1.08117 2.05561)
(3.97192e-15 -1.16741 2.16064)
(3.11143e-15 -1.25723 2.56857)
(1.8188e-15 -1.3075 3.06943)
(7.02846e-16 -1.29639 3.92971)
(2.09592e-16 -1.232 5.19661)
(2.55745e-16 -1.32223 6.8153)
(5.00101e-16 -1.93838 8.42958)
(7.33903e-16 -3.23766 9.5573)
(8.92144e-16 -4.23948 9.5529)
(8.65067e-16 -1.96555 6.49832)
(3.17863e-16 3.15421 -0.410891)
(-2.19084e-17 4.29386 -0.641477)
(-1.37503e-16 2.70802 -0.144432)
(-4.62862e-16 1.79974 0.814568)
(2.8249e-15 0.0566657 2.84817)
(-4.17762e-15 0.0683751 -0.0117306)
(-1.25835e-15 0.0675751 1.76919)
(8.41957e-16 0.0259914 1.2291)
(1.77532e-15 0.0696139 1.74325)
(1.62252e-15 0.0489084 1.81241)
(1.16676e-15 0.0643495 2.15756)
(7.15527e-16 0.0823953 2.54028)
(2.93533e-16 0.109609 3.18137)
(6.95572e-17 0.0267527 4.13953)
(1.62309e-16 -0.411482 5.49125)
(4.98907e-16 -1.44043 7.04899)
(9.38385e-16 -2.83733 8.24118)
(1.21858e-15 -3.10455 7.66287)
(9.03473e-16 0.442161 2.66078)
(1.55787e-16 3.99041 -1.75428)
(1.64859e-17 4.09165 -0.885282)
(1.41468e-17 2.47849 0.240759)
(1.38609e-16 2.10603 0.660752)
(-2.91782e-15 -4.84929 3.81572)
(-2.99904e-15 -1.21324 -0.686213)
(-1.59014e-15 -2.51947 2.06551)
(1.53946e-16 -2.12322 1.42409)
(5.31938e-16 -2.50554 2.03514)
(3.41698e-16 -2.65717 2.09816)
(1.02922e-16 -2.92727 2.44121)
(1.13669e-17 -3.1463 2.7559)
(-5.04116e-17 -3.35252 3.23219)
(-7.76079e-17 -3.52169 3.84902)
(3.2553e-17 -3.72494 4.60039)
(3.30803e-16 -4.01876 5.29266)
(7.76641e-16 -4.00961 5.58538)
(1.06006e-15 -2.24348 4.26246)
(5.1092e-16 1.6713 -1.39327)
(1.04102e-16 4.02562 -2.15259)
(-1.68149e-17 3.27189 -0.43238)
(-8.21178e-18 1.85942 0.713523)
(-2.71232e-17 1.84758 0.985374)
(-2.84698e-15 6.36673 -0.474554)
(-1.86879e-15 0.770518 0.775572)
(-1.37656e-15 3.25052 0.482332)
(-7.33128e-17 2.54974 0.176127)
(1.17032e-16 3.22193 0.335229)
(-4.68536e-17 3.20092 0.26721)
(-2.32714e-16 3.34233 0.430307)
(-2.51485e-16 3.26215 0.628157)
(-2.11992e-16 3.06571 1.00299)
(-1.67903e-16 2.61893 1.56247)
(-7.16993e-17 1.78641 2.35459)
(1.42915e-16 0.388223 3.22455)
(5.00725e-16 -1.10455 3.63576)
(7.41829e-16 -0.0803891 1.77051)
(1.67171e-16 3.19909 -2.95998)
(1.52549e-17 4.38175 -1.82961)
(-5.64385e-18 3.42457 0.478308)
(1.78509e-18 2.42051 0.724649)
(1.46995e-18 2.89236 1.07526)
(-1.17489e-15 -16.6695 13.566)
(4.56014e-19 -2.38098 0.839506)
(-1.00554e-16 -8.19355 7.24753)
(3.48934e-18 -6.44086 5.63465)
(-8.11193e-17 -7.96123 7.11049)
(-1.4328e-16 -8.14328 7.22632)
(-1.72809e-16 -8.77479 7.75021)
(-1.74424e-16 -9.05094 7.9027)
(-1.65543e-16 -9.25899 7.93297)
(-1.45115e-16 -9.29021 7.62208)
(-9.33443e-17 -9.2344 6.814)
(3.88813e-17 -8.74312 5.1169)
(2.74236e-16 -6.19941 2.29427)
(2.83445e-16 0.515264 -2.71509)
(3.00829e-17 3.76829 -1.88381)
(-1.08266e-17 4.39415 -0.33075)
(9.41883e-19 3.67344 0.558475)
(7.18582e-20 3.03764 0.237198)
(2.36829e-18 3.32665 0.618149)
(8.94073e-16 8.09689 15.6269)
(-5.56109e-15 11.5496 17.8357)
(-4.13799e-15 9.39697 16.535)
(-3.98898e-15 9.9932 15.3222)
(-3.92197e-15 9.39577 15.6026)
(-4.45769e-15 9.95391 15.2718)
(-3.48334e-15 9.5188 14.977)
(-3.30215e-15 9.63462 14.7102)
(-2.99121e-15 9.48257 14.7268)
(-2.90999e-15 9.44352 14.738)
(-2.70985e-15 9.47406 14.7471)
(-2.81265e-15 9.22835 14.9408)
(-2.67282e-15 9.49332 14.8489)
(-2.84831e-15 8.97489 15.2057)
(-2.83535e-15 9.57748 14.9208)
(-2.48425e-15 8.66696 15.4687)
(-3.11791e-15 9.71297 14.9549)
(-2.81289e-15 8.42203 15.8401)
(-3.54337e-15 9.45799 14.3433)
(-2.55982e-15 9.10106 17.6839)
(-1.45016e-16 8.06576 15.5055)
(-7.83535e-15 10.2185 15.8156)
(-5.22305e-15 7.74544 14.9071)
(-5.63545e-15 8.92185 14.0238)
(-5.70253e-15 7.88295 14.6981)
(-7.59107e-15 8.76152 14.2806)
(-4.84964e-15 8.21316 14.7843)
(-5.13182e-15 8.69217 14.5888)
(-4.98361e-15 8.48444 14.7422)
(-5.13202e-15 8.59511 14.7109)
(-4.71872e-15 8.68348 14.6736)
(-5.07978e-15 8.49126 14.805)
(-5.10165e-15 8.86045 14.5939)
(-5.23839e-15 8.34204 14.9148)
(-5.35808e-15 9.04756 14.5012)
(-4.76044e-15 8.14173 15.0371)
(-5.30349e-15 9.23654 14.4128)
(-4.87202e-15 8.01452 15.2894)
(-5.60592e-15 9.01512 13.7304)
(-4.23247e-15 8.60018 16.6238)
(6.09188e-17 8.52185 16.5808)
(-2.67359e-15 10.6165 16.473)
(-1.85709e-15 8.28808 15.6372)
(-1.76373e-15 9.27048 14.6161)
(-2.24499e-15 8.35115 15.1065)
(-5.2578e-15 9.02873 14.6913)
(-2.52305e-15 8.53243 14.9263)
(-2.49174e-15 8.8311 14.7373)
(-2.54927e-15 8.65122 14.8216)
(-2.48038e-15 8.6908 14.796)
(-2.31134e-15 8.75087 14.7501)
(-2.51299e-15 8.55734 14.8655)
(-2.98337e-15 8.86691 14.6768)
(-2.76829e-15 8.39728 14.9606)
(-3.08947e-15 9.01757 14.5903)
(-2.60597e-15 8.20368 15.07)
(-2.63394e-15 9.1857 14.5079)
(-2.64578e-15 8.09448 15.3058)
(-2.62626e-15 8.96467 13.8491)
(-1.7347e-15 8.58627 16.427)
(-1.48077e-17 8.65943 16.8258)
(6.85316e-16 10.5876 16.4475)
(4.35924e-16 8.16877 15.5262)
(4.42152e-16 9.17872 14.5013)
(5.74824e-16 8.23674 15.0462)
(-3.56323e-15 8.95052 14.6252)
(-2.35317e-15 8.44625 14.901)
(-2.33332e-15 8.76762 14.6947)
(-2.23907e-15 8.58053 14.7764)
(-2.23678e-15 8.63024 14.732)
(-2.38047e-15 8.67675 14.6807)
(-2.3679e-15 8.50566 14.7707)
(-2.74438e-15 8.77501 14.5877)
(-2.55715e-15 8.36093 14.8312)
(-2.78306e-15 8.89699 14.4877)
(-2.49987e-15 8.18993 14.9062)
(-2.37914e-15 9.02799 14.3948)
(-2.58199e-15 8.10314 15.1047)
(-2.37236e-15 8.78951 13.7679)
(-2.05546e-15 8.42738 15.8451)
(2.80524e-18 8.86293 17.2203)
(-1.39286e-16 10.7596 16.7261)
(-1.04039e-16 8.24094 15.7002)
(-9.77047e-17 9.26276 14.641)
(-1.25196e-16 8.312 15.1647)
(7.91664e-16 9.00763 14.725)
(5.37942e-16 8.50722 14.9719)
(5.68813e-16 8.80329 14.7539)
(5.73498e-16 8.61461 14.8181)
(5.59694e-16 8.65751 14.7575)
(5.22429e-16 8.67989 14.7042)
(5.65204e-16 8.5341 14.765)
(6.52056e-16 8.74387 14.6013)
(6.19418e-16 8.40054 14.7937)
(6.7373e-16 8.8268 14.4972)
(5.77179e-16 8.24959 14.8367)
(6.01713e-16 8.91461 14.3987)
(5.89271e-16 8.18129 14.9991)
(6.09766e-16 8.68626 13.8428)
(4.2581e-16 8.29276 15.3088)
(-5.74466e-19 9.04237 17.543)
(1.74973e-17 10.7422 16.68)
(1.41563e-17 8.17369 15.7688)
(1.30386e-17 9.35157 14.7617)
(1.65168e-17 8.29932 15.2973)
(-1.47337e-16 9.06185 14.7951)
(-1.05291e-16 8.49455 15.0468)
(-1.10402e-16 8.82067 14.7782)
(-1.09677e-16 8.59146 14.841)
(-1.10064e-16 8.65418 14.7436)
(-1.00169e-16 8.63764 14.6943)
(-1.13913e-16 8.52809 14.7179)
(-1.17212e-16 8.6743 14.5752)
(-1.13665e-16 8.40766 14.7141)
(-1.22524e-16 8.72134 14.4654)
(-1.03486e-16 8.28128 14.7238)
(-1.19617e-16 8.76796 14.3649)
(-1.07467e-16 8.24623 14.8605)
(-1.24221e-16 8.57545 13.9193)
(-9.16458e-17 8.08912 14.6202)
(1.59783e-19 9.23736 17.839)
(6.89454e-19 10.4491 16.297)
(7.39053e-19 8.15274 15.8519)
(5.57179e-19 9.44386 14.9753)
(8.69981e-19 8.29853 15.4753)
(1.90028e-17 9.1229 14.9237)
(1.16042e-17 8.46104 15.1673)
(1.12743e-17 8.83472 14.8404)
(1.09247e-17 8.53719 14.9045)
(1.27067e-17 8.63539 14.7612)
(1.08763e-17 8.56599 14.7214)
(1.35523e-17 8.50139 14.7048)
(1.15089e-17 8.5829 14.587)
(1.22666e-17 8.39573 14.6742)
(1.24903e-17 8.60363 14.4732)
(1.09071e-17 8.2998 14.6565)
(1.40998e-17 8.632 14.3906)
(1.19132e-17 8.33491 14.8107)
(1.4394e-17 8.54145 14.1273)
(1.22606e-17 7.83085 13.8548)
(-5.98936e-20 9.30344 17.7437)
(-6.07207e-19 9.91899 15.787)
(-5.26465e-19 8.26767 15.8824)
(-4.79571e-19 9.3977 15.1999)
(-6.77702e-19 8.34831 15.5654)
(-5.29624e-19 9.08957 15.0568)
(5.70349e-19 8.42205 15.2363)
(9.58769e-19 8.78712 14.896)
(8.40279e-19 8.45095 14.9454)
(7.69782e-20 8.57315 14.7757)
(5.10943e-19 8.45961 14.7496)
(8.78006e-20 8.44476 14.7024)
(9.11611e-19 8.46551 14.6217)
(3.41521e-19 8.36666 14.6614)
(8.23818e-19 8.47264 14.5221)
(5.46674e-19 8.3189 14.6414)
(-8.29225e-20 8.53077 14.5229)
(4.29008e-19 8.49756 14.9225)
(4.7547e-19 8.62422 14.5347)
(7.67052e-20 7.51766 13.0139)
(1.91455e-20 9.09115 17.0049)
(-1.89009e-19 9.4888 15.6017)
(-1.68869e-19 8.47086 15.832)
(-1.28363e-19 9.22249 15.3613)
(-1.77557e-19 8.44854 15.5321)
(7.62119e-20 8.94082 15.1533)
(8.69322e-20 8.41932 15.2121)
(-6.14612e-21 8.66687 14.9362)
(5.89244e-20 8.38492 14.9405)
(1.66609e-19 8.48196 14.7931)
(1.64341e-19 8.37014 14.7752)
(1.385e-19 8.38937 14.7232)
(2.25734e-20 8.37324 14.6881)
(1.38765e-19 8.35708 14.6925)
(-5.90003e-21 8.38169 14.6315)
(3.89503e-20 8.38224 14.7126)
(1.90574e-19 8.53474 14.818)
(3.21332e-20 8.78734 15.2728)
(-1.52855e-20 8.86699 15.1812)
(-3.56317e-20 7.15205 12.1353)
(2.82283e-21 8.67009 15.8681)
(2.18881e-19 9.28667 15.7323)
(1.86164e-19 8.63206 15.6734)
(1.68431e-19 8.99686 15.3925)
(1.84219e-19 8.53053 15.402)
(-4.45986e-19 8.75794 15.1623)
(-5.10789e-19 8.43254 15.1211)
(-5.27034e-19 8.54077 14.9389)
(-5.2077e-19 8.36316 14.9043)
(-4.72904e-19 8.41444 14.8103)
(-5.30488e-19 8.34483 14.7997)
(-4.73459e-19 8.3779 14.7703)
(-5.25263e-19 8.36281 14.776)
(-4.97956e-19 8.40068 14.7725)
(-5.0261e-19 8.39316 14.7847)
(-4.33794e-19 8.51372 14.8751)
(-4.48418e-19 8.68502 15.2282)
(-4.00137e-19 9.174 15.8108)
(-4.26615e-19 9.23043 15.9444)
(-3.32827e-19 6.71383 11.232)
(-4.98538e-21 8.19247 14.6889)
(-9.33524e-20 9.255 15.9858)
(-7.90549e-20 8.70014 15.4596)
(-7.64522e-20 8.80546 15.3194)
(-6.07946e-20 8.57807 15.2483)
(2.88038e-19 8.62921 15.1137)
(3.05967e-19 8.46851 15.0344)
(3.24923e-19 8.4892 14.9343)
(3.08422e-19 8.40991 14.8924)
(2.73501e-19 8.43318 14.8525)
(3.02122e-19 8.41542 14.8556)
(2.77631e-19 8.45468 14.859)
(3.16983e-19 8.46404 14.8952)
(2.89644e-19 8.52685 14.908)
(3.08506e-19 8.53112 14.9714)
(2.61532e-19 8.70721 15.0971)
(2.54104e-19 8.93383 15.6184)
(2.43327e-19 9.54206 16.3642)
(2.66182e-19 9.58726 16.583)
(2.28149e-19 6.19215 10.3351)
(2.17391e-21 7.77412 13.7107)
(2.68711e-20 9.27936 16.1586)
(2.28329e-20 8.71559 15.2926)
(2.2895e-20 8.70658 15.2263)
(1.1712e-20 8.62114 15.1516)
(-1.07193e-19 8.60311 15.0808)
(-1.08786e-19 8.5479 15.0175)
(-1.16365e-19 8.54237 14.9737)
(-1.08252e-19 8.52898 14.9493)
(-9.57865e-20 8.5467 14.9465)
(-1.04677e-19 8.56554 14.9634)
(-9.7728e-20 8.60561 14.9904)
(-1.12706e-19 8.63873 15.0409)
(-1.0178e-19 8.70044 15.0767)
(-1.10946e-19 8.7327 15.1585)
(-9.37143e-20 8.88612 15.2998)
(-8.98718e-20 9.13555 15.8188)
(-8.83243e-20 9.72875 16.6948)
(-9.73336e-20 9.77851 16.893)
(-8.80634e-20 5.65735 9.57158)
(-5.76868e-22 7.49916 13.0868)
(-5.99908e-21 9.29371 16.1656)
(-5.09502e-21 8.7342 15.23)
(-5.20405e-21 8.70724 15.1751)
(-1.47627e-21 8.6784 15.1413)
(2.88514e-20 8.66376 15.1031)
(2.83843e-20 8.65304 15.078)
(3.05438e-20 8.65514 15.0633)
(2.80637e-20 8.66663 15.0604)
(2.48418e-20 8.68451 15.0712)
(2.70147e-20 8.71231 15.0911)
(2.54573e-20 8.74126 15.1224)
(2.97306e-20 8.77988 15.1651)
(2.66434e-20 8.8175 15.212)
(2.96039e-20 8.86534 15.2783)
(2.5049e-20 8.94596 15.3999)
(2.3955e-20 9.14886 15.759)
(2.38726e-20 9.63447 16.6523)
(2.63234e-20 9.73505 16.8755)
(2.40023e-20 5.32661 9.25352)
(1.08755e-22 7.41655 12.8707)
(1.10386e-21 9.29005 16.0702)
(9.32247e-22 8.76138 15.2252)
(9.61065e-22 8.74928 15.1545)
(1.18472e-22 8.72645 15.1628)
(-6.17156e-21 8.73593 15.142)
(-5.93638e-21 8.72778 15.1454)
(-6.43577e-21 8.73915 15.1404)
(-5.86109e-21 8.74514 15.1475)
(-5.19505e-21 8.75666 15.1556)
(-5.63394e-21 8.77183 15.1677)
(-5.34643e-21 8.78229 15.1885)
(-6.31309e-21 8.80645 15.211)
(-5.62642e-21 8.81651 15.2497)
(-6.34101e-21 8.85202 15.2867)
(-5.37362e-21 8.86832 15.3621)
(-5.15856e-21 8.96754 15.5135)
(-5.22612e-21 9.32327 16.2758)
(-5.74722e-21 9.56056 16.7375)
(-4.82754e-21 5.48412 9.74828)
(-1.61827e-23 7.50551 12.9717)
(-1.72144e-22 9.27292 15.9713)
(-1.44966e-22 8.77164 15.2021)
(-1.50015e-22 8.76539 15.1255)
(-2.14013e-24 8.74013 15.1494)
(1.10184e-21 8.75834 15.1422)
(1.04055e-21 8.74423 15.153)
(1.13662e-21 8.75291 15.1519)
(1.02626e-21 8.74815 15.158)
(9.11097e-22 8.75003 15.1611)
(9.84743e-22 8.75023 15.165)
(9.40601e-22 8.74817 15.1736)
(1.12191e-21 8.75225 15.1801)
(9.94891e-22 8.74895 15.1982)
(1.13357e-21 8.75552 15.2115)
(9.58707e-22 8.74712 15.2339)
(9.21223e-22 8.74626 15.2442)
(9.50142e-22 8.95839 15.7052)
(1.02898e-21 9.41039 16.6091)
(7.62965e-22 6.19251 11.0733)
(2.02237e-24 7.71831 13.2842)
(2.30185e-23 9.20625 15.8371)
(1.94544e-23 8.75548 15.1421)
(2.01654e-23 8.74541 15.0822)
(-1.65981e-24 8.72811 15.1002)
(-1.67817e-22 8.73823 15.1027)
(-1.56324e-22 8.72756 15.1099)
(-1.71927e-22 8.72853 15.1127)
(-1.5378e-22 8.72226 15.1162)
(-1.36714e-22 8.71897 15.1186)
(-1.47107e-22 8.71387 15.1203)
(-1.41323e-22 8.70938 15.1226)
(-1.69785e-22 8.70311 15.1239)
(-1.49933e-22 8.69994 15.126)
(-1.72152e-22 8.68828 15.1298)
(-1.45168e-22 8.68585 15.1229)
(-1.39295e-22 8.64271 15.0952)
(-1.4571e-22 8.72274 15.2166)
(-1.56112e-22 9.24429 16.2864)
(-1.03197e-22 7.13196 12.6637)
(-2.19685e-25 7.98584 13.7168)
(-2.6857e-24 9.07971 15.6272)
(-2.28028e-24 8.72411 15.0726)
(-2.36645e-24 8.71993 15.0438)
(4.13998e-25 8.71156 15.0534)
(2.21274e-23 8.71365 15.0578)
(2.04e-23 8.70965 15.0621)
(2.25966e-23 8.70728 15.0666)
(2.00196e-23 8.70449 15.07)
(1.78167e-23 8.70147 15.0738)
(1.90882e-23 8.6981 15.0769)
(1.8422e-23 8.6958 15.0792)
(2.22991e-23 8.6904 15.0822)
(1.9592e-23 8.69031 15.0815)
(2.26723e-23 8.67955 15.0856)
(1.90556e-23 8.68582 15.078)
(1.8247e-23 8.65859 15.079)
(1.9212e-23 8.68131 15.052)
(2.06804e-23 9.00157 15.7337)
(1.26138e-23 7.86908 13.8215)
(2.12402e-26 8.2235 14.1319)
(2.76766e-25 8.94606 15.409)
(2.35564e-25 8.70122 15.0304)
(2.44809e-25 8.70444 15.0185)
(-6.54813e-26 8.69938 15.0247)
(-2.55454e-24 8.69978 15.0271)
(-2.33432e-24 8.69852 15.0305)
(-2.60425e-24 8.69696 15.0341)
(-2.28959e-24 8.69607 15.0377)
(-2.0411e-24 8.69471 15.0415)
(-2.17794e-24 8.6935 15.0455)
(-2.10935e-24 8.69265 15.0492)
(-2.5748e-24 8.69097 15.0537)
(-2.24925e-24 8.69116 15.0565)
(-2.62582e-24 8.68804 15.0622)
(-2.1999e-24 8.6924 15.0628)
(-2.1037e-24 8.6861 15.0776)
(-2.21923e-24 8.70612 15.0754)
(-2.40566e-24 8.82779 15.3457)
(-1.40238e-24 8.25266 14.3821)
(-1.83745e-27 8.42193 14.4858)
(-2.53177e-26 8.84167 15.2331)
(-2.15687e-26 8.69117 15.0118)
(-2.24414e-26 8.69621 15.0045)
(8.14736e-27 8.69273 15.0085)
(2.59967e-25 8.69298 15.0097)
(2.35796e-25 8.69196 15.0119)
(2.64764e-25 8.69117 15.014)
(2.3095e-25 8.69025 15.0165)
(2.06356e-25 8.68932 15.0191)
(2.1956e-25 8.68838 15.022)
(2.1359e-25 8.68737 15.0252)
(2.63162e-25 8.68666 15.0288)
(2.28487e-25 8.68569 15.0327)
(2.6912e-25 8.68531 15.0372)
(2.2479e-25 8.6854 15.0415)
(2.14751e-25 8.68337 15.0493)
(2.26863e-25 8.69425 15.0579)
(2.46429e-25 8.76031 15.2116)
(1.3951e-25 8.43641 14.6602)
(1.2848e-28 8.61038 14.8235)
(1.86023e-27 8.75348 15.0804)
(1.58523e-27 8.69326 15.0035)
(1.65011e-27 8.69541 15.0014)
(-7.4636e-28 8.69479 15.0022)
(-2.09426e-26 8.69455 15.0027)
(-1.89017e-26 8.69409 15.0032)
(-2.13264e-26 8.69354 15.0038)
(-1.84731e-26 8.6928 15.0046)
(-1.65391e-26 8.69193 15.0055)
(-1.75418e-26 8.69089 15.0065)
(-1.71294e-26 8.68963 15.0078)
(-2.12727e-26 8.68822 15.0092)
(-1.84083e-26 8.68648 15.011)
(-2.18797e-26 8.68462 15.013)
(-1.82815e-26 8.68234 15.0154)
(-1.74723e-26 8.67909 15.0181)
(-1.84794e-26 8.67822 15.0186)
(-2.01226e-26 8.69627 15.0872)
(-1.10643e-26 8.59383 14.8924)
(-1.62714e-28 -2.65093 17.1148)
(-8.48516e-28 -8.04861 13.7626)
(-4.97518e-28 -5.17686 14.6336)
(-1.67404e-28 -4.9619 14.2592)
(3.61713e-28 -4.02036 14.2357)
(1.20276e-27 -3.43347 14.0787)
(1.24963e-27 -2.83497 13.9412)
(1.01513e-27 -2.34 13.7718)
(8.46938e-28 -1.90456 13.5852)
(6.96666e-28 -1.54018 13.3731)
(5.78224e-28 -1.24118 13.1349)
(5.0543e-28 -1.0096 12.8713)
(4.48953e-28 -0.850359 12.6019)
(3.97797e-28 -0.794688 12.3654)
(5.76607e-28 -0.894631 12.1889)
(1.56574e-27 -1.14609 12.0243)
(2.63224e-27 -1.59029 11.636)
(-4.84835e-27 -2.47705 10.6324)
(-4.28812e-26 -2.85828 9.15377)
(-1.06483e-25 0.0299387 7.01671)
(4.55224e-28 -11.3493 28.7629)
(1.4047e-26 -17.162 25.3798)
(1.07006e-26 -12.173 25.7258)
(6.97367e-27 -12.7652 24.0456)
(7.79528e-28 -11.0404 23.3062)
(-2.54649e-26 -10.3512 22.2388)
(-3.47697e-26 -9.36056 21.339)
(-3.11054e-26 -8.57658 20.4105)
(-2.75777e-26 -7.8039 19.5102)
(-2.40269e-26 -7.10475 18.6089)
(-2.05131e-26 -6.45984 17.7187)
(-1.82363e-26 -5.88432 16.8591)
(-1.70917e-26 -5.35208 15.9986)
(-1.57885e-26 -4.70576 14.8714)
(-1.90921e-26 -3.58204 12.812)
(-5.00058e-26 -1.64735 9.09473)
(-1.09204e-25 0.748414 4.05968)
(2.47876e-25 2.56519 -0.399797)
(3.23703e-24 3.19567 -2.92788)
(1.37547e-23 2.02972 -3.50572)
(1.74518e-27 -14.384 31.0695)
(-1.55046e-25 -18.3888 27.8519)
(-1.3653e-25 -13.6328 27.8697)
(-1.00088e-25 -14.7077 25.4001)
(-1.17712e-25 -12.5868 24.4387)
(2.72168e-25 -12.2271 22.7822)
(5.36447e-25 -11.1444 21.5432)
(5.43228e-25 -10.499 20.1798)
(5.13196e-25 -9.74213 18.9237)
(4.79319e-25 -9.11228 17.651)
(4.28294e-25 -8.49758 16.4199)
(3.84456e-25 -7.97092 15.2354)
(3.72832e-25 -7.51292 14.1215)
(3.71248e-25 -7.01428 12.874)
(3.89323e-25 -6.041 10.8714)
(4.35883e-25 -4.15535 7.26836)
(4.51346e-25 -1.11235 2.21128)
(-1.38988e-24 1.68812 -3.48473)
(-1.49635e-23 3.97554 -5.04443)