/*--------------------------------*- C++ -*----------------------------------*\
| =========                 |                                                 |
| \\      /  F ield         | OpenFOAM: The Open Source CFD Toolbox           |
|  \\    /   O peration     | Version:  4.1                                   |
|   \\  /    A nd           | Web:      www.OpenFOAM.org                      |
|    \\/     M anipulation  |                                                 |
\*---------------------------------------------------------------------------*/
FoamFile
{
    version     2.0;
    format      ascii;
    class       volScalarField;
    location    "22";
    object      p;
}
// * * * * * * * * * * * * * * * * * * * * * * * * * * * * * * * * * * * * * //

dimensions      [0 2 -2 0 0 0 0];

internalField   nonuniform List<scalar> 
1280
(
0.633667
0.874022
1.81745
2.38048
3.00518
3.40803
3.53008
3.80489
3.67688
3.53383
3.36811
3.57775
2.61706
1.36394
2.16425
-0.768176
-2.82444
-5.36172
-4.11346
-22.9893
-4.64841
16.703
28.7632
26.5727
24.6445
30.9987
14.5061
16.7984
14.9346
14.3706
13.5428
12.7734
12.2995
11.1696
10.3459
8.3855
7.21177
4.22738
5.37019
9.4107
-12.5658
-0.990303
5.49582
10.6094
22.6404
22.8744
22.7597
22.8932
22.2753
22.5461
22.5741
22.1221
22.765
22.6481
22.5315
22.9159
10.674
5.16281
-1.8275
-5.33001
12.6844
2.98207
-2.13151
0.153365
0.726033
2.8691
3.82078
5.46768
6.42085
7.34478
7.88378
8.10446
8.35642
-1.70627
31.672
25.0349
22.3801
24.147
13.3816
-7.08723
-24.2793
-6.8326
-7.81661
-5.81581
-3.91777
-0.106151
-0.781706
0.259299
1.71405
1.4981
1.55834
2.27088
2.30135
2.10818
1.956
1.70195
1.56352
0.892556
0.419018
0.406542
0.0411909
0.7138
1.79374
1.3954
0.627695
0.283311
0.0556797
-0.520221
-1.54762
-1.44914
-5.113
-3.16017
2.43567
3.79876
1.58815
0.243133
-0.0638497
-0.0863889
0.424069
0.0164027
2.24497
3.19882
1.89092
0.589115
-0.303476
-0.58762
-0.296959
0.224151
-0.912175
-7.03238
-3.52528
7.13982
10.1121
4.68526
0.67769
-0.293692
-0.144971
0.888717
-0.246311
4.68207
5.39528
3.23968
0.577609
-1.32672
-2.35353
-2.47111
-1.61389
-2.93934
-8.87181
-5.68093
10.6217
15.4651
7.53381
0.805649
-0.97876
-0.660808
1.22637
-0.497363
6.49636
5.7223
3.09432
-0.85187
-3.64334
-5.00866
-4.77388
-2.58391
-2.5504
-10.9424
-6.93942
14.5005
21.3798
10.3651
0.359249
-2.21381
-1.08419
2.29497
-0.989715
7.28747
5.3404
2.1237
-3.11802
-6.4643
-7.7685
-7.09713
-4.40071
-4.47918
-14.8383
-7.76274
18.6679
26.9053
12.3433
-1.7272
-4.97826
-2.99902
1.96048
-1.31717
6.66955
3.81609
-0.0609733
-5.80535
-8.83472
-9.30281
-7.90083
-5.60376
-8.07389
-19.5171
-9.01403
22.1321
29.3693
12.9128
-5.11152
-8.3593
-3.70204
2.97058
-1.70664
5.08068
1.99128
-2.25711
-7.94509
-10.082
-9.5115
-7.33741
-5.74766
-10.5583
-21.2642
-9.33978
24.8032
28.5161
12.4769
-7.13331
-11.0176
-7.55748
2.66261
-1.9533
3.25542
0.200062
-3.54195
-8.97872
-9.84579
-8.31365
-5.46775
-4.4107
-9.53826
-17.8785
-8.23666
23.5215
24.549
12.3747
-5.56853
-9.65986
-0.341924
5.20824
-2.01219
1.78298
-0.825375
-3.67339
-8.60197
-8.35132
-6.13605
-2.95798
-2.48905
-7.50556
-12.8492
-6.35411
17.5208
19.2355
12.7406
2.02783
-1.15643
15.0536
26.2931
-1.88217
1.14008
-0.706638
-2.98684
-6.86815
-6.09293
-3.6298
-0.363783
-0.349067
-6.02946
-8.93235
-6.28648
8.55325
11.0319
10.9241
7.07812
9.56195
33.1939
22.6925
-1.60694
1.55945
0.233011
-1.50827
-4.6603
-3.83527
-1.35121
1.87552
2.01046
-3.75609
-5.7915
-7.94696
0.422404
2.2252
7.47229
9.96274
11.7756
32.7421
22.1097
-1.25755
2.93222
1.59729
0.194381
-2.93414
-2.17336
0.0894306
3.20187
4.2586
0.404665
-2.28503
-11.6937
-10.4503
-6.50427
6.52287
16.1993
12.8039
21.8015
29.1443
-0.85819
3.8562
2.62421
1.23264
-1.55006
-0.913338
0.851115
3.50867
5.61277
5.09192
1.91942
-14.3895
-15.5881
-8.53551
4.91287
14.6394
14.1212
12.4538
5.74918
-0.687003
2.93192
2.84123
1.68357
-0.405786
0.349505
1.70918
3.50359
5.6284
7.93701
5.12986
-17.1249
-18.4146
-12.6155
4.95789
13.8327
11.904
6.60348
4.28474
-0.125513
0.532655
2.23348
1.7513
0.52395
1.4587
2.69117
3.6795
4.95304
8.15045
5.9612
-21.7396
-21.0719
-16.237
4.23847
12.2192
12.4069
8.60293
5.4511
0.570124
-2.41952
1.74304
1.59249
1.07841
2.07758
3.36032
3.83301
4.59456
6.89863
5.01763
-26.6226
-23.8274
-16.8093
3.4659
10.1254
10.2566
6.10146
4.63119
1.18622
-4.14208
1.12502
1.17365
1.20348
2.17304
3.45489
3.56742
4.45204
5.51231
3.79603
-28.38
-26.3228
-16.8131
2.31933
7.80969
8.57428
5.59172
4.56081
0.988054
-4.11638
0.687371
0.916729
1.25155
2.04337
3.05697
2.75244
3.78886
4.07225
2.33464
-25.9853
-26.7605
-15.8572
1.26572
5.37113
6.04932
3.79038
3.24852
1.01946
-4.01176
0.308453
0.69712
1.21918
1.86132
2.49583
1.80867
2.29461
2.47819
1.53821
-17.1605
-23.2802
-13.6956
-0.0279161
3.21743
3.90155
2.62046
2.03096
0.630099
-2.71041
-1.17234
-1.05923
-0.70959
0.0172717
0.691397
0.535243
0.556097
0.533609
-0.415744
-6.57294
-12.195
-7.85809
-0.342793
1.37256
1.5898
0.934963
0.860437
141.615
139.67
138.316
138.276
135.587
133.195
130.102
127.652
124.975
122.771
120.806
118.819
117.347
115.654
114.791
113.219
113.147
111.45
112.363
110.801
85.8445
85.6599
87.1027
88.4598
88.834
89.0827
89.0251
88.6986
88.8863
88.8416
89.2266
89.2458
89.7411
89.7046
90.4367
90.2589
91.3994
91.1151
92.8795
92.9557
102.973
101.802
103.497
103.768
103.859
103.314
103.202
102.553
102.409
101.918
101.834
101.526
101.667
101.407
101.864
101.468
102.369
101.801
103.36
103.099
84.7774
84.1947
86.3827
86.5961
87.4487
87.0041
87.3314
86.9658
87.1248
86.9706
87.1109
87.1545
87.5352
87.6172
88.3796
88.2965
89.5064
89.2879
91.0342
91.4947
87.1843
86.369
88.4057
87.8815
89.3014
88.2518
88.6755
88.1719
88.0854
87.841
87.6396
87.5481
87.5871
87.4887
87.9509
87.6513
88.5829
88.0836
89.6102
89.9054
80.3723
80.1145
81.7376
80.9642
83.2246
81.4393
82.0119
81.6818
81.3992
81.3208
80.8977
80.8462
80.7155
80.5956
80.9765
80.7171
81.6756
81.2972
82.9205
83.2042
80.2144
80.6196
81.362
80.621
83.8571
81.1255
81.7422
81.8523
81.2183
81.4484
80.747
80.6985
80.3901
80.0896
80.3541
79.9924
80.9155
80.6992
82.4306
82.5217
75.7952
77.2871
77.0273
76.7471
81.2901
77.5212
78.1249
79.3122
78.2591
79.0702
78.3347
78.4325
78.215
77.9058
78.1997
77.8363
78.7485
78.6987
80.6186
80.8174
70.5859
73.1873
71.6889
71.782
77.7973
73.1488
73.3401
75.8515
74.5582
75.6768
75.1571
75.2297
75.1839
74.8937
75.1481
74.8406
75.5712
75.5806
77.4309
77.6969
61.162
64.6309
61.8102
62.2713
70.576
64.8197
64.4372
68.8387
67.8953
69.1422
69.4331
69.7065
70.3329
70.4983
71.1649
71.4148
72.2762
72.8136
74.5674
75.7253
48.0658
50.7033
47.2475
47.2737
55.0855
50.3327
49.3211
52.9309
52.9144
52.7253
53.3154
52.8638
53.4809
53.203
53.6845
53.5414
54.1542
54.693
56.1984
58.2235
44.3024
44.242
45.0976
42.4427
48.0667
47.0535
50.2039
46.8556
48.6599
46.1807
46.8696
45.0525
45.0549
43.6496
43.5369
42.5714
43.1772
43.2835
44.5328
44.5088
53.892
54.024
54.5591
52.047
54.9352
51.0253
54.0661
51.7843
53.337
51.789
52.7287
51.995
52.439
52.159
52.2802
51.8511
51.6497
51.3111
51.4497
51.5679
55.6306
56.7595
58.1411
56.8284
59.9019
57.2595
60.3969
57.7162
59.4248
58.4419
59.0633
58.4796
58.4475
58.0626
57.5204
57.0456
56.3185
55.8512
55.746
55.399
41.2957
42.2382
44.6858
43.5073
46.6773
45.9758
48.4872
48.9805
50.7982
51.9919
53.5893
55.0969
56.6425
58.1186
59.0752
59.1956
58.9378
59.1352
59.634
60.4325
27.8347
26.1777
28.2757
24.817
27.106
24.8773
25.8469
25.0945
25.3947
25.3641
25.6192
25.9156
26.3437
26.906
27.6456
28.663
29.971
31.6031
32.7961
34.7732
54.4761
50.2909
51.88
44.9682
44.7463
39.7661
37.4654
33.8315
30.9832
27.9642
25.2509
22.6768
20.372
18.4175
17.0058
16.3982
16.2431
16.2254
16.124
16.972
65.971
59.3521
67.0784
59.8622
61.6347
57.9945
56.4931
53.6915
51.1917
48.4086
45.6486
42.8674
40.1785
37.6789
35.6629
34.619
34.1303
33.6715
32.9317
32.3238
80.5141
58.7382
67.0193
56.1102
53.6283
47.1935
42.519
37.5207
33.2659
29.5237
26.548
24.388
23.1496
22.9428
24.0455
26.5494
29.9561
34.0399
37.7046
38.975
764.131
681.822
632.974
576.802
527.922
480.721
436.837
395.376
356.35
319.475
284.586
251.489
219.981
189.977
161.526
133.894
107.175
85.3226
60.816
23.9762
744.751
662.272
613.336
557.134
508.281
461.182
417.46
376.213
337.434
300.816
266.167
233.272
201.923
172.038
143.623
115.916
88.9587
66.3788
41.3376
6.13121
56.4706
35.2514
43.6224
33.0187
30.629
24.334
19.679
14.6484
10.2492
6.25536
2.91295
0.305996
-1.42034
-2.15211
-1.71207
-0.202603
1.94431
5.39483
10.1812
12.9766
57.9795
52.6912
61.4081
55.3001
58.2272
55.7372
55.4441
53.8311
52.5535
50.9896
49.4965
48.0839
46.9494
46.1932
45.7729
45.5881
45.492
45.4613
45.6678
46.1973
65.9892
62.1495
64.277
57.7933
58.2198
53.8936
52.2949
49.3987
47.291
45.0359
43.1078
41.3481
39.9537
38.7811
37.6498
36.4759
35.3766
34.0948
31.8341
29.4405
24.8596
20.7936
21.4023
16.4892
16.7821
12.9318
11.9376
9.09438
7.14301
4.65947
2.32484
-0.0498966
-2.2452
-3.89185
-5.0266
-5.87195
-6.47201
-7.22703
-8.15082
-6.65575
-4.76586
-5.67941
-3.56609
-6.17648
-4.04558
-6.31001
-4.64964
-5.53026
-4.95615
-5.19852
-4.78804
-4.22493
-3.29814
-0.591372
0.744038
1.25422
1.2432
1.51813
0.942808
2.46123
38.7588
40.7514
43.2598
43.2128
47.0995
47.4521
50.9936
52.4432
55.2581
57.7027
59.8458
63.7784
63.322
37.6723
-11.7006
-12.2529
-11.0023
-10.7241
-11.6422
-9.22181
28.7488
29.1254
28.9795
26.8516
27.2093
24.2782
23.7015
20.8606
19.2048
16.7865
13.7072
11.1696
8.15546
4.5504
3.32076
0.982483
2.84787
8.06193
1.61333
6.75169
30.8447
32.4886
33.499
33.2758
35.1361
34.3875
35.9127
35.4145
36.6216
36.9135
38.0377
38.5277
39.9026
40.0993
41.5414
42.5554
45.2747
48.6021
47.947
50.6922
52.1393
54.5939
55.6725
56.2366
57.9326
58.2446
59.7146
59.9902
61.222
61.5954
62.8831
63.3021
64.4242
64.739
65.4252
65.866
66.478
67.4388
68.5219
70.9775
64.1729
66.2018
66.5662
66.8059
67.8942
67.5982
68.5505
68.2257
68.8914
68.7047
69.3263
69.3782
69.9371
70.1426
70.6655
71.0236
71.8355
72.3903
74.1052
75.0696
70.9625
72.7804
73.1345
73.5132
74.4301
74.0384
74.8866
74.4769
74.9723
74.7548
75.0993
75.1358
75.4993
75.6721
76.2465
76.5566
77.6178
78.2287
80.4382
81.064
79.541
81.255
82.0433
82.9205
83.6585
83.4865
84.1322
83.8479
84.2566
84.071
84.3134
84.2215
84.4792
84.3659
84.8724
84.8126
85.8438
86.0823
88.1627
88.6836
88.749
89.7232
90.6475
91.7336
91.7549
91.6908
91.6261
91.2251
91.273
90.79
90.851
90.2957
90.4103
89.7159
90.0053
89.2127
89.862
89.3483
90.8771
90.9311
88.3759
88.4318
89.3203
90.4241
89.7328
89.6687
89.0335
88.4926
88.1472
87.4115
87.3141
86.4779
86.5936
85.6479
85.9684
84.9024
85.4956
84.5996
85.8985
85.8258
89.2002
88.4318
89.3362
90.3339
89.3133
89.2532
88.3937
87.8098
87.2932
86.5147
86.3574
85.5473
85.6941
84.889
85.2981
84.4126
85.1337
84.2511
85.5495
85.5001
80.3828
79.8028
80.9402
82.3125
81.4174
81.7206
81.0741
80.8681
80.6099
80.2164
80.3395
79.9666
80.4395
80.1146
80.8776
80.5453
81.6384
81.2585
82.8353
83.1924
94.5916
93.5649
94.47
95.7932
94.731
94.9275
94.0686
93.7534
93.2549
92.7611
92.6251
92.1251
92.3006
91.8105
92.2665
91.7396
92.5341
91.9376
93.2519
93.0488
76.59
76.4613
77.1575
79.3337
78.4501
78.9792
78.2937
78.3532
78.0799
77.9662
78.0551
77.8603
78.2781
78.0654
78.7974
78.5341
79.5774
79.3314
80.7831
81.0033
127.264
125.708
123.773
124.688
121.102
119.225
116.138
113.603
110.613
108.202
105.992
103.929
102.507
100.882
100.226
98.7657
98.9461
97.2602
98.1427
97.0953
)
;

boundaryField
{
    outletWall
    {
        type            fixedValue;
        value           uniform 0;
    }
    fineWalls
    {
        type            zeroGradient;
    }
    fineFrontAndBack
    {
        type            zeroGradient;
    }
    fineplugLeft
    {
        type            cyclicAMI;
        value           nonuniform List<scalar> 
20
(
90.5231
90.9642
90.0052
91.96
92.2523
93.9023
94.7571
96.3374
97.61
99.3534
101.091
102.967
105.481
116.958
112.756
113.399
115.936
116.405
115.077
112.363
)
;
    }
    fineplugRight
    {
        type            cyclicAMI;
        value           nonuniform List<scalar> 
20
(
80.2131
79.1106
77.3818
79.1876
79.1577
80.7547
81.4694
83.0989
84.4275
86.2629
88.1384
90.1112
92.5539
102.738
101.715
101.889
104.227
103.848
103.242
100.393
)
;
    }
    inletOutletLeft
    {
        type            cyclicAMI;
        value           nonuniform List<scalar> 
20
(
90.5231
90.9642
90.0052
91.96
92.2523
93.9023
94.7571
96.3374
97.61
99.3534
101.091
102.967
105.481
116.958
112.756
113.399
115.936
116.405
115.077
112.363
)
;
    }
    inletLeft
    {
        type            zeroGradient;
    }
    inletWallsLeft
    {
        type            zeroGradient;
    }
    inletFacesLeft
    {
        type            zeroGradient;
    }
    inletOutletRight
    {
        type            cyclicAMI;
        value           nonuniform List<scalar> 
20
(
80.2131
79.1106
77.3818
79.1876
79.1577
80.7547
81.4694
83.0989
84.4275
86.2629
88.1384
90.1112
92.5539
102.738
101.715
101.889
104.227
103.848
103.242
100.393
)
;
    }
    inletRight
    {
        type            zeroGradient;
    }
    inletWallsRight
    {
        type            zeroGradient;
    }
    inletFacesRight
    {
        type            zeroGradient;
    }
}


// ************************************************************************* //
