/*--------------------------------*- C++ -*----------------------------------*\
| =========                 |                                                 |
| \\      /  F ield         | OpenFOAM: The Open Source CFD Toolbox           |
|  \\    /   O peration     | Version:  4.1                                   |
|   \\  /    A nd           | Web:      www.OpenFOAM.org                      |
|    \\/     M anipulation  |                                                 |
\*---------------------------------------------------------------------------*/
FoamFile
{
    version     2.0;
    format      ascii;
    class       surfaceScalarField;
    location    "22";
    object      phi;
}
// * * * * * * * * * * * * * * * * * * * * * * * * * * * * * * * * * * * * * //

dimensions      [0 3 -1 0 0 0 0];

internalField   nonuniform List<scalar> 
2360
(
-4345.71
-2312.53
-2033.18
-2312.53
-2312.53
104.436
-2416.97
104.435
104.436
104.435
2555.8
-2451.36
2555.79
2555.8
5273.24
-2717.45
5273.25
5273.24
8219.59
-2946.35
8219.59
8219.6
12692
-4472.4
12692
12692
13921.7
15684.6
17210.2
18522.2
19725.6
20954.7
17004.3
5165.55
18121.8
19130.9
20059.4
20933.8
21769.2
22561.5
23308.8
23999.8
24629.7
25179.7
25691.9
26306.7
27026.4
12462.6
14563.8
12462.6
12462.6
12462.6
166.536
12296.1
166.537
166.535
166.536
-49.6014
216.136
-49.601
-49.6029
-239.907
190.305
-239.91
-239.91
-239.912
-12603.9
12364
-12604
-12604
-12604
-27396.2
14792.2
-26464.7
-25702.3
-25220.8
-24768.5
-24244.8
-23653.3
-22984.2
-22242.3
-21419
-20522.3
-19554.8
-18519.1
-17406.6
-20534
4314.9
-19279.7
-17966
-16597.1
-15139.6
-13401.7
-12211.1
-12211.1
-12211.1
-7948.35
-4262.7
-7948.35
-7948.35
-4876.05
-3072.3
-4876.05
-4876.05
-2183.25
-2692.81
-2183.25
-2183.25
128.535
-2311.78
128.536
128.536
128.536
2308.66
-2180.12
2308.66
2308.66
3968.92
-1660.26
-2563.58
3692.31
-2958.74
-184.139
-4524.17
-9539.03
-6097.43
-8305.95
-7145.86
-5802.85
-7865.66
-6799.87
-8042.3
-8960.83
-7195.52
-11318.4
-4790.74
-11356.6
-1388.35
-5064.41
601.955
7441.3
1130.71
16253.6
1381.69
15722.5
1779.26
9237.97
2173.5
2221.39
2342.31
301.355
2320.1
401.295
2200.61
716.443
-1749.45
-2851.54
3537.72
-3487.15
451.462
-5559.16
-7467.02
-7772.02
-6093.08
-9463.92
-4110.96
-10659.2
-5604.63
-11043.8
-8576.15
-10200.4
-12161.8
-7533.98
-14023
-2972.69
-9625.7
216.564
4252.05
876.524
15593.6
1188.14
15410.9
2077.35
8348.76
2902.04
1396.7
3190.34
13.0512
3009.75
581.893
2616.51
1109.68
-1313.06
-3438.82
3660.73
-4282.06
1294.71
-6513.77
-5235.32
-9027.92
-3578.93
-10901.3
-2237.62
-11978
-4527.94
-12090.3
-8463.76
-11179.9
-13072.3
-8991.45
-16211.5
-5079.4
-13537.7
-1100.73
273.373
309.513
14183.4
688.906
15031.5
2301.07
6736.6
3744.34
-46.5639
4222.93
-465.54
3942.68
862.141
3242.52
1809.84
-382.324
-4184.05
3988.78
-5230.45
2341.11
-7756.74
-2709.03
-10416.4
-919.245
-11933.5
-720.54
-12237.3
-4224.13
-11531.8
-9169.26
-10230.9
-14373.2
-8512.76
-17929.6
-6033.66
-16016.8
-2745.48
-3014.8
-928.202
12366.1
-121.178
14224.5
2446.66
4168.76
4611.76
-2211.67
5188.51
-1042.29
4617.17
1433.48
3603.71
2823.3
528.575
-5037.11
4494.39
-6312.7
3616.71
-8856.42
-165.308
-10995.7
1220.02
-11507.3
-208.881
-10646.3
-5085.18
-9095.71
-10719.9
-7523.52
-15945.4
-6279.4
-19173.7
-5555.85
-16740.4
-4385.32
-4185.33
-2791.19
10772
-1202.25
12635.5
2188.66
777.853
4830.99
-4853.99
5626.76
-1838.06
5128.15
1932.09
3946.49
4004.96
1402.77
-5906.22
5119.06
-7288.39
4998.88
-9395.74
1942.04
-10416
2240.31
-9669.75
-955.17
-8019.5
-6735.42
-6373.98
-12365.4
-5149.99
-17169.4
-4498.93
-19824.8
-5128.64
-16110.7
-6008.66
-3305.32
-4895.9
9659.23
-2316.84
10056.5
505.171
-2044.16
1795.99
-6144.81
3209.6
-3251.67
3829.57
1312.12
3794.64
4039.89
934.702
-6668.61
5790.58
-7839.42
6169.68
-9043.72
3146.34
-8745.87
1942.47
-7139.2
-2561.84
-5517.33
-8357.3
-4509.76
-13372.9
-4200.71
-17478.4
-4514.35
-19511.2
-6104.38
-14520.7
-7941.75
-1467.95
-7036.7
8754.17
-4725.25
7745.02
-4467.57
-2301.83
-4417.36
-6195.03
-2123.04
-5545.98
702.501
-1513.43
2533.12
2209.27
7782.72
-7172.61
6382.19
-7827.27
6824.34
-7905.68
3224.75
-6530.36
567.152
-4728.61
-4363.59
-3623.97
-9461.94
-3438.74
-13558.2
-4086.72
-16830.4
-5321.29
-18276.6
-7508.59
-12333.4
-9540.28
563.745
-9200.12
8414.01
-8871.44
7416.35
-10610.3
-562.997
-11050
-5755.29
-9715.87
-6880.14
-8199.36
-3029.93
-9557.71
3567.62
13017.2
-7272.41
6743
-7165.87
6717.8
-6133.12
2191.99
-4183.9
-1382.06
-2660
-5887.5
-2175.81
-9946.13
-2763.04
-12970.9
-4174.85
-15418.6
-5977.56
-16473.9
-8192.6
-10118.3
-10285.7
2656.83
-11470.9
9599.24
-13170.9
9116.36
-15370.5
1636.57
-16093.9
-5031.82
-16482.1
-6491.99
-16566.7
-2945.37
-15585.2
2586.14
9796.09
-6914.8
6762.67
-5906.87
5709.87
-3997.82
282.946
-2023.41
-3356.47
-977.641
-6933.27
-1102.22
-9821.55
-2385.08
-11688.1
-4417.18
-13386.5
-6691.66
-14199.4
-8668.02
-8141.96
-10428.9
4417.7
-12544.1
11714.4
-14626.6
11198.9
-15742.3
2752.26
-15582.6
-5191.46
-15192.5
-6882.16
-14058.4
-4079.41
-10096.9
-1375.39
-110.497
-6201.74
6463.09
-4524.61
4032.74
-2487.23
-1754.44
-855.264
-4988.43
-86.8928
-7701.64
-667.432
-9241.02
-2392.21
-9963.29
-4826.64
-10952.1
-7632.13
-11393.9
-9684.21
-6089.88
-11007
5740.51
-13271.8
13979.2
-15303.8
13230.8
-15461.4
2909.86
-14991.5
-5661.31
-15452.1
-6421.54
-14711.1
-4820.41
-10348.4
-5738.1
-10242.8
-5695.75
6246.99
-4444.46
2781.46
-2781.01
-3417.89
-1036.71
-6732.73
-311.29
-8427.06
-1067.28
-8485.03
-2753.53
-8277.04
-5199.31
-8506.3
-8423.71
-8169.53
-11002.2
-3511.36
-12256.8
6995.13
-13837.4
15559.8
-13853.9
13247.3
-10870.2
-73.8576
-9248.23
-7283.23
-11643.7
-4026.06
-14426.2
-2037.9
-14970.7
-5193.64
-12917.4
-6650.95
6435.13
-5806.64
1937.15
-3714.03
-5510.5
-1748.6
-8698.16
-1222.98
-8952.68
-1871.98
-7836.03
-3227.35
-6921.67
-5349.26
-6384.39
-8607.98
-4910.81
-11803.9
-315.4
-13449.6
8640.81
-14047.7
16157.8
-11610.6
10810.2
-6965.3
-4719.11
-3697.31
-10551.2
-2496.89
-5226.48
-4308.81
-225.991
-8963.53
-538.917
-7317.11
-8590.31
6197.72
-6759.2
106.035
-4150.25
-8119.45
-2469.44
-10379
-1920.97
-9501.15
-2305.1
-7451.9
-3447.04
-5779.73
-5234.4
-4597.02
-7995.67
-2149.54
-11253.2
2942.12
-13321.1
10708.7
-13100.4
15937.1
-9301.11
7010.9
-5642.64
-8377.59
-3722.57
-12471.3
-1185.87
-7763.19
1881.69
-3293.55
2569.14
-1226.37
417.581
-9653.18
4895.58
-6737.27
-2809.87
-4234.94
-10621.8
-2808.02
-11805.9
-2089.92
-10219.3
-2213.86
-7327.96
-3228.59
-4765
-4861.79
-2963.83
-6952.65
-58.6823
-9616.21
5605.68
-11663.8
12756.3
-10940.5
15213.9
-6673.9
2744.3
-3757.87
-11293.6
-2291.83
-13937.3
-416.799
-9638.22
1193.44
-4903.79
2974.07
-3007
-1080.75
-9184.89
2949.81
-6062.91
-5931.86
-4045.23
-12639.5
-2878.11
-12973
-2143.47
-10953.9
-1999.3
-7472.12
-2708.84
-4055.47
-4221.1
-1451.56
-5821.29
1541.5
-7585.36
7369.75
-9110.65
14281.6
-8175.51
14278.7
-4159.58
-1271.63
-1896.19
-13557
-710.848
-15122.7
793.401
-11142.5
2045.5
-6155.89
2691.74
-3653.24
-1335.35
-7950.72
1060.97
-5306.26
-8576.31
-3838.14
-14107.6
-2945.2
-13865.9
-2233.65
-11665.4
-1848.87
-7856.91
-2102.18
-3802.15
-3340.4
-213.353
-4595.5
2796.61
-5497.39
8271.64
-6290.18
15074.4
-5387.15
13375.7
-1998.83
-4659.94
-196.457
-15359.4
603.539
-15922.7
1580
-12118.9
2342.31
-6918.21
2710.01
-4020.93
-1342.79
-6605.71
-441.699
-4678.27
-10503.8
-3705.58
-15080.3
-3000.56
-14571
-2300.53
-12365.5
-1745.03
-8412.4
-1547.86
-3999.32
-2359.79
598.573
-3331.91
3768.72
-3597.51
8537.25
-3620.74
15097.6
-2831.47
12586.4
-324.537
-7166.87
1149.63
-16833.6
1666.74
-16439.8
2182.32
-12634.5
2592.55
-7328.44
2666.16
-4094.54
-1127.99
-5462
-1559.95
-4239.29
-11726.5
-3648.66
-15670.9
-3039.93
-15179.7
-2359.2
-13046.2
-1706.74
-9064.87
-1156.03
-4550.02
-1408.81
851.35
-2110.5
4470.41
-2174.23
8600.98
-1565.2
14488.6
-336.408
11357.6
1255.34
-8758.62
2070.11
-17648.3
2343.03
-16712.7
2493.2
-12784.7
2614.68
-7449.92
2594.45
-4074.31
-950.514
-4600.76
-4058.57
-3628.45
-3065.96
-2400.87
-1732.06
-1102.85
-852.828
-1020.6
-939.67
-143.653
1141.9
2191.75
2613.89
2660.81
2616.38
2565.45
2543.71
254.426
-1484.09
467.044
-1975.52
582.503
-1641.05
665.23
-1394.76
778.583
-1316.75
914.019
-1364.61
976.826
-1277.87
982.813
-1123.49
961.872
-988.155
934.148
-900.773
898.49
-838.789
849.79
-786.716
781
-723.507
694.236
-660.489
588.946
-585.731
470.817
-511.813
338.433
-417.535
218.546
-392.371
120.401
-516.62
-599.334
117.694
-1601.78
74.3452
-1932.18
59.0051
-1625.71
53.7581
-1389.51
97.4231
-1360.41
158.7
-1425.89
172.555
-1291.72
157.033
-1107.97
151.001
-982.123
160.849
-910.621
170.51
-848.45
170.316
-786.521
154.439
-707.631
126.129
-632.179
89.7062
-549.308
57.745
-479.851
35.9153
-395.707
30.7182
-387.175
15.5956
-501.499
-583.739
40.8538
-1642.64
24.0043
-1915.33
81.6844
-1683.39
111.87
-1419.7
149.244
-1397.78
188.678
-1465.32
168.556
-1271.6
159.201
-1098.61
175.204
-998.126
198.882
-934.299
209.818
-859.387
206.224
-782.926
188.643
-690.05
160.201
-603.738
122.245
-511.351
87.4646
-445.071
65.5334
-373.776
48.8646
-370.506
15.5597
-468.195
-568.179
32.3554
-1674.99
25.0253
-1908
77.1329
-1735.49
95.2538
-1437.82
116.731
-1419.26
145.384
-1493.97
105.021
-1231.24
97.7954
-1091.39
116.617
-1016.95
139.475
-957.156
150.076
-869.988
150.537
-783.387
139.784
-679.297
119.672
-583.626
83.4641
-475.143
40.4193
-402.026
5.83231
-339.188
-16.2593
-348.415
-28.619
-455.835
-596.798
7.16489
-1682.15
10.0595
-1910.89
57.4511
-1782.89
67.7575
-1448.12
81.2584
-1432.76
98.4604
-1511.17
70.3668
-1203.15
82.8312
-1103.85
103.951
-1038.07
122.293
-975.499
133.078
-880.772
141.474
-791.782
146.464
-684.287
147.172
-584.333
130.024
-457.996
94.8269
-366.828
55.1529
-299.514
18.4606
-311.722
-7.35447
-430.02
-604.152
-10.3228
-1671.83
10.2934
-1931.51
51.9063
-1824.5
57.9417
-1454.16
68.7842
-1443.6
79.5057
-1521.9
70.7495
-1194.39
86.8875
-1119.99
100.069
-1051.25
111.815
-987.245
122.807
-891.764
135.295
-804.27
149.674
-698.666
166.455
-601.114
171.924
-463.465
156.311
-351.215
123.624
-266.827
81.0217
-269.12
39.9855
-388.983
-564.167
-21.1155
-1650.72
4.16939
-1956.79
33.9363
-1854.27
38.8034
-1459.03
45.7542
-1450.56
49.2204
-1525.36
57.5683
-1202.74
71.7577
-1134.18
80.2545
-1059.74
87.7983
-994.788
97.624
-901.589
106.416
-813.062
116.91
-709.16
131.442
-615.646
149.748
-481.771
158.076
-359.543
150.926
-259.677
122.99
-241.184
79.3158
-345.309
-484.851
-8.51459
-1642.2
15.5276
-1980.83
35.4569
-1874.2
50.9123
-1474.48
58.911
-1458.55
57.573
-1524.02
76.3887
-1221.55
91.3321
-1149.12
101.347
-1069.76
106.869
-1000.31
115.519
-910.239
119.553
-817.097
122.743
-712.35
122.164
-615.067
132.868
-492.475
144.687
-371.363
151.805
-266.795
139.333
-228.712
99.4216
-305.398
-385.43
20.7815
-1662.98
34.2503
-1994.3
40.269
-1880.21
70.9311
-1505.14
82.8956
-1470.52
75.3525
-1516.48
102.216
-1248.42
123.615
-1170.52
141.804
-1087.95
150.373
-1008.88
163.066
-922.932
171.499
-825.53
180.953
-721.805
182.351
-616.464
191.114
-501.238
200.95
-381.199
208.425
-274.27
194.377
-214.664
135.377
-246.398
-250.052
58.1124
-1721.1
53.772
-1989.96
40.8264
-1867.27
93.7068
-1558.02
114.139
-1490.95
91.0409
-1493.38
130.815
-1288.19
156.313
-1196.02
182.67
-1114.31
196.451
-1022.66
214.696
-941.176
230.509
-841.343
250.892
-742.187
268.664
-634.237
290.207
-522.78
308.503
-399.495
315.071
-280.838
293.28
-192.872
194.85
-147.968
-55.2022
86.8348
-1807.93
65.7053
-1968.83
28.9416
-1830.5
97.7371
-1626.82
142.935
-1536.15
105.563
-1456.01
158.235
-1340.86
188.01
-1225.79
222.575
-1148.87
248.941
-1049.03
277.568
-969.803
304.949
-868.724
336.045
-773.283
369.175
-667.367
404.824
-558.428
433.803
-428.475
423.771
-270.806
361.39
-130.491
162.916
50.5067
107.714
78.3463
-1886.28
37.3597
-1927.85
13.3053
-1806.45
42.0255
-1655.54
81.0516
-1575.18
67.0797
-1442.04
93.1717
-1366.95
119.084
-1251.71
146.467
-1176.26
175.051
-1077.61
198.059
-992.811
217.46
-888.125
228.675
-784.498
233.064
-671.757
229.229
-554.593
211.999
-411.245
141.053
-199.859
23.0563
-12.4951
-52.4136
125.977
55.3002
37.1423
-1923.42
-9.33045
-1881.38
-11.7928
-1803.99
-29.4941
-1637.84
-28.4714
-1576.2
-19.103
-1451.41
-14.56
-1371.5
-3.6777
-1262.59
1.4765
-1181.41
10.1872
-1086.32
12.7156
-995.34
10.3309
-885.74
-5.95607
-768.211
-36.1175
-641.595
-79.8754
-510.835
-130.241
-360.88
-179.728
-150.372
-221.335
29.1121
-142.305
46.9467
-87.0047
21.8949
-1945.32
8.84672
-1868.33
10.6006
-1805.74
-0.931282
-1626.31
-9.78302
-1567.35
-23.6806
-1437.51
-33.9367
-1361.24
-45.5595
-1250.97
-63.6972
-1163.27
-80.4447
-1069.57
-95.7535
-980.031
-100.33
-881.165
-91.9154
-776.625
-77.1035
-656.407
-77.2604
-510.678
-81.56
-356.58
-44.1514
-187.781
32.987
-48.0258
58.3609
21.5741
-28.6437
41.9452
-1987.26
52.577
-1878.96
73.5363
-1826.7
91.7668
-1644.54
110.974
-1586.55
120.23
-1446.77
124.915
-1365.93
133.187
-1259.24
141.41
-1171.49
150.407
-1078.57
160.71
-990.333
180.912
-901.367
213.335
-809.047
256.838
-699.911
299.549
-553.389
324.565
-381.596
352.829
-216.045
366.672
-61.8676
288.494
99.7542
259.85
48.1437
-2035.41
48.3277
-1879.15
69.9138
-1848.29
96.9968
-1671.63
124.269
-1613.83
163.587
-1486.09
203.876
-1406.22
251.368
-1306.73
302.033
-1222.16
358.105
-1134.65
417.999
-1050.23
478.835
-962.204
532.665
-862.876
564.578
-731.824
552.743
-541.552
454.711
-283.563
285.838
-47.1686
184.232
39.7412
106.337
177.652
366.187
-19.8491
-2015.56
-71.3009
-1827.7
-101.499
-1818.09
-117.225
-1655.9
-132.541
-1598.51
-131.753
-1486.88
-128.082
-1409.89
-113.732
-1321.09
-93.2523
-1242.64
-64.8537
-1163.05
-29.9396
-1085.14
9.32141
-1001.47
44.5125
-898.067
55.234
-742.546
14.2119
-500.53
-70.4537
-198.897
-84.1896
-33.4331
-72.1255
27.6771
-93.4879
199.014
272.699
-167.578
-1847.98
-355.704
-1639.57
-509.974
-1663.82
-626.718
-1539.16
-733.556
-1491.67
-810.538
-1409.9
-875.09
-1345.34
-920.656
-1275.52
-953.391
-1209.9
-972.261
-1144.18
-978.782
-1078.62
-971.37
-1008.88
-944.194
-925.243
-879.519
-807.22
-746.723
-633.326
-528.136
-417.483
-337.367
-224.202
-237.823
-71.8657
-123.128
84.32
149.571
-207.337
-1640.64
-462.831
-1384.08
-730.072
-1396.58
-958.366
-1310.87
-1178.42
-1271.62
-1367.82
-1220.5
-1535.72
-1177.43
-1677.61
-1133.63
-1795.97
-1091.55
-1890.46
-1049.69
-1961.15
-1007.93
-2004.85
-965.178
-2010.03
-920.062
-1947.46
-869.786
-1772.06
-808.732
-1458.89
-730.652
-1051.32
-631.768
-625.825
-497.364
-236.682
-304.822
-87.1116
-665.646
-1074.73
-1496.31
-1832.18
-2128.8
-2374.3
-2576.73
-2735.36
-2851.91
-2926.6
-2959.53
-2949.71
-2894.77
-2789.55
-2623.28
-2378.94
-2035.7
-1558.07
-887.888
-670.605
1645.61
-1081.46
1385.86
-1504.56
1398.1
-1839.78
1310.22
-2134.36
1269.58
-2376.23
1216.88
-2573.99
1172.76
-2727.51
1128.53
-2839.35
1086.84
-2910.64
1046.3
-2942.33
1006.69
-2933.67
966.347
-2881.54
922.867
-2780.36
873.821
-2623.08
817.717
-2401.59
753.515
-2098.66
672.071
-1654.93
531.274
-955.186
275.253
19.8139
-181.571
1827.19
-408.224
1612.52
-646.244
1636.13
-842.389
1506.37
-1029.35
1456.55
-1183.96
1371.49
-1316.27
1305.07
-1421.81
1234.07
-1502.96
1167.99
-1557.25
1100.59
-1579.81
1029.25
-1561.77
948.315
-1495.2
856.291
-1379.25
757.879
-1223.75
662.216
-1041.17
570.937
-830.576
461.478
-582.063
282.762
-249.711
-57.0972
-229.897
-145.984
1973.18
-323.768
1790.31
-464.448
1776.81
-575.005
1616.94
-675.741
1557.29
-752.494
1448.25
-819.386
1371.97
-873.047
1287.74
-916.903
1211.85
-944.378
1128.07
-941.743
1026.61
-884.289
890.865
-749.459
721.464
-543.924
552.348
-309.599
427.895
-72.2459
333.589
162.878
226.36
340.21
105.437
299.886
-16.767
69.9892
-68.2685
2041.45
-155.966
1878.01
-229.595
1850.44
-299.706
1687.05
-372.532
1630.12
-437.675
1513.4
-508.525
1442.82
-576.277
1355.5
-646.092
1281.67
-713.709
1195.69
-774.398
1087.3
-810.633
927.102
-797.273
708.106
-734.894
489.972
-633.462
326.465
-494.205
194.335
-334.329
66.4862
-187.642
-41.2461
-98.4151
-105.988
-28.4258
-0.453906
2041.91
-76.7591
1954.32
-117.819
1891.51
-155.655
1724.89
-190.157
1664.62
-214.216
1537.46
-227.705
1456.31
-235.591
1363.39
-244.225
1290.31
-249.635
1201.11
-258.404
1096.08
-284.509
953.213
-346.199
769.801
-394.39
538.17
-430.551
362.632
-466.155
229.945
-514.851
115.187
-577.56
21.4664
-443.744
-239.802
-472.169
113.923
1927.99
94.8851
1973.36
130.892
1855.5
172.99
1682.8
221.708
1615.91
277.757
1481.41
345.833
1388.24
420.358
1288.87
498.35
1212.32
581.563
1117.9
657.156
1020.49
717.395
892.978
710.107
777.089
630.67
617.608
424.094
569.206
261.499
392.54
108.954
267.728
7.73963
122.676
-93.2277
-138.837
-565.397
69.3298
1858.66
37.3043
2005.39
35.33
1857.48
31.7922
1686.34
37.1092
1610.59
56.4651
1462.06
74.2699
1370.44
84.5446
1278.6
74.5013
1222.37
53.4409
1138.97
9.63938
1064.3
-32.8667
935.487
-70.9342
815.156
-135.118
681.792
-266.401
700.489
-299.424
425.561
-215.79
184.091
-32.9089
-60.2108
-54.2911
-117.459
-619.688
67.9233
1790.74
75.3449
1997.97
98.7533
1834.07
126.274
1658.82
160.201
1576.67
189.745
1432.52
216.552
1343.63
264.438
1230.71
319.678
1167.13
383.785
1074.86
450.365
997.715
500.035
885.817
531.579
783.611
556.12
657.25
580.532
676.076
499.929
506.164
450.364
233.655
273.74
116.413
136.998
19.2824
-482.691
62.6501
1728.09
85.5675
1975.06
112.726
1806.92
139.495
1632.05
167.885
1548.28
183.296
1417.11
194.032
1332.9
224.204
1200.55
271.811
1119.52
329.766
1016.91
395.634
931.851
461.943
819.511
541.068
704.487
628.282
570.038
703.034
601.327
683.379
525.821
562.618
354.418
426.394
252.64
349.468
96.2128
-133.223
60.3903
1667.7
70.7739
1964.67
89.0233
1788.67
104.043
1617.03
118.27
1534.05
119.203
1416.18
117.696
1334.4
119.508
1198.73
140.219
1098.81
171.815
985.315
218.303
885.361
271.674
766.139
334.307
641.853
381.985
522.36
487.375
495.937
559.847
453.349
528.879
385.386
447.456
334.064
279.487
264.182
146.264
85.0972
1582.6
82.6573
1967.11
93.2505
1778.07
102.857
1607.43
115.466
1521.44
119.603
1412.04
124.306
1329.7
119.309
1203.73
124.342
1093.78
134.299
975.357
154.014
865.646
171.943
748.21
179.708
634.087
173.692
528.375
232.505
437.123
296.627
389.227
308.159
373.854
267.674
374.549
156.321
375.536
302.585
105.761
1476.83
105.066
1967.8
114.413
1768.72
126.134
1595.7
148.351
1499.22
175.37
1385.02
209.052
1296.01
229.822
1182.95
247.368
1076.23
258.568
964.153
265.792
858.416
259.333
754.664
236.884
656.532
214.558
550.697
220.744
430.934
232.878
377.089
232.314
374.417
197.562
409.299
115.002
458.093
417.586
79.9977
1396.83
84.8747
1962.92
102.21
1751.38
114.058
1583.85
137.167
1476.11
172.423
1349.76
220.13
1248.31
264.806
1138.28
297.356
1043.67
313.687
947.82
314.876
857.227
302.534
767.003
289.405
669.66
283.314
556.786
277.973
436.274
266.454
388.607
252.437
388.432
210.317
451.419
126.605
541.803
544.191
20.305
1376.52
20.5429
1962.68
43.1777
1728.74
47.2764
1579.74
56.1493
1467.23
68.1307
1337.77
90.6238
1225.81
121.058
1107.84
145.549
1019.18
158.652
934.711
163.685
852.189
170.87
759.813
188.924
651.602
207.167
538.538
219.337
424.1
223.727
384.213
225.911
386.246
198.861
478.467
129.01
611.651
673.201
-21.4492
1397.96
-23.7903
1965.01
3.83131
1701.11
2.53666
1581.04
0.000850708
1469.77
-9.46374
1347.23
-17.4664
1233.81
-20.4836
1110.85
-15.5794
1014.27
-6.56618
925.694
9.55804
836.061
34.052
735.315
60.9675
624.683
79.5582
519.944
91.0999
412.555
104.298
371.013
123.437
367.105
124.519
477.383
90.0437
646.123
763.245
-39.9459
1437.9
-42.8014
1967.86
-9.9256
1668.23
-8.3002
1579.41
-6.72988
1468.19
-10.4611
1350.96
-17.416
1240.76
-31.3727
1124.8
-36.9462
1019.84
-33.6508
922.393
-20.7028
823.108
-7.52684
722.134
1.65425
615.498
3.10968
518.484
1.27798
414.383
12.3595
359.928
37.361
342.101
55.2189
459.523
40.8823
660.456
804.127
-25.373
1463.27
-16.6748
1959.16
26.6695
1624.89
41.7357
1564.34
52.0292
1457.9
58.2968
1344.69
64.896
1234.16
62.5921
1127.1
59.0053
1023.42
53.4689
927.928
47.2711
829.305
35.717
733.686
22.3139
628.899
3.38147
537.415
-17.0929
434.856
-24.7083
367.542
-13.2881
330.68
9.95751
436.276
2.4944
667.918
806.621
-18.1393
1481.41
-3.14339
1944.17
52.6561
1569.09
80.3262
1536.67
97.4747
1440.75
110.098
1332.07
124.374
1219.88
134.768
1116.71
140.213
1017.98
134.336
933.803
121.652
841.987
105.885
749.452
91.1452
643.638
71.7292
556.83
51.9257
454.658
40.118
379.348
45.5824
325.215
54.9402
426.918
25.6427
697.214
832.264
67.335
1414.07
55.4634
1956.04
52.1989
1572.35
81.4261
1507.44
92.8287
1429.35
88.1737
1336.72
86.8253
1221.23
83.6854
1119.85
79.6561
1022.01
73.5248
939.933
63.9906
851.521
53.1591
760.283
39.3591
657.437
25.1922
570.996
7.59302
472.257
-4.72743
391.668
2.41829
318.069
36.004
393.332
27.4732
705.745
859.737
223.398
441.555
556.406
694.982
810.614
893.032
926.755
934.08
920.412
892.831
847.624
784.634
700.174
602.084
482.837
350.814
216.518
128.373
71.7223
)
;

boundaryField
{
    outletWall
    {
        type            calculated;
        value           nonuniform List<scalar> 
60
(
3968.92
2289.8
-596.946
-379.089
-470.161
-2615.64
-9635.54
-15973.5
-16782.3
-9431.61
1662.02
8951.81
10471.6
9137.47
7519.68
6851.28
9879.2
11104.5
579.302
-3917.35
5085.51
6580.25
8108.37
9839.56
11130.7
10955.3
8827.72
6462.8
5911.85
6501.31
6895.13
6911.6
6581.01
5997.09
5281.55
4531.5
3855.99
3315.81
3006.14
2788.62
4345.71
-439.982
-4052.58
-7398.98
-12740.2
-16759.6
-18070.5
-9808.47
10072.1
13692.5
8520.05
4638.18
601.328
-5179.23
-9733.68
-13711.3
-15742.2
-16101
-12268.7
-2044.7
)
;
    }
    fineWalls
    {
        type            calculated;
        value           uniform 0;
    }
    fineFrontAndBack
    {
        type            calculated;
        value           nonuniform List<scalar> 
960
(
-1.46281e-13
2.47474e-13
-3.95803e-14
-1.93625e-13
-7.93815e-13
-1.2433e-13
-1.82221e-13
5.25438e-13
-4.61991e-12
-1.10165e-12
-1.15203e-12
9.36648e-13
7.37653e-13
5.42775e-13
3.15164e-12
5.36034e-13
2.64895e-13
5.85788e-13
-1.44175e-13
-6.4304e-13
-2.68519e-14
-3.3349e-13
-4.15724e-13
-5.00834e-13
-5.31706e-13
-6.63733e-13
-9.08435e-12
-8.76631e-13
-9.33666e-13
-9.90843e-13
-1.04334e-12
-1.0914e-12
-1.14723e-12
-1.20805e-12
-1.2922e-12
-1.41964e-12
-1.58711e-12
-1.83447e-12
-1.8191e-12
-1.50221e-12
-3.21336e-11
-4.0538e-12
-3.71483e-12
-3.5935e-12
-4.68002e-12
2.47032e-13
3.94217e-12
2.55931e-11
4.47379e-10
2.23841e-11
7.82424e-12
3.27341e-11
7.5084e-12
8.87018e-12
5.15576e-12
1.75941e-11
2.82167e-12
2.65657e-12
2.60313e-12
1.66644e-11
7.14342e-13
9.13947e-13
1.20568e-12
9.73971e-13
7.65551e-13
6.34416e-13
5.37799e-13
4.61616e-13
3.86107e-13
3.27011e-13
2.76906e-13
2.36565e-13
2.03828e-13
-8.14829e-12
-6.48323e-15
-1.56511e-13
-1.93191e-13
-3.04927e-13
-4.3059e-13
-7.45053e-13
-3.95884e-12
-4.2172e-12
-2.38375e-11
-3.28387e-12
-3.72941e-12
-2.05723e-11
-3.00466e-12
-3.50081e-12
-2.00054e-11
-2.71588e-12
-3.22651e-12
-1.7851e-11
-1.72614e-12
-3.29254e-12
-4.65261e-12
-3.43935e-11
-3.91374e-12
-2.48011e-12
-2.55399e-11
-6.35971e-12
-7.97e-13
-4.56005e-12
-2.54661e-11
-5.32164e-11
-5.35996e-11
-4.7294e-11
-3.96152e-11
-3.10498e-11
-2.09077e-11
-1.1538e-11
-9.45738e-12
-1.25555e-11
-2.11013e-11
-2.99963e-11
-3.4905e-11
-3.8585e-11
-4.20758e-11
-4.35483e-11
-5.09577e-11
1.77308e-12
-1.03536e-11
-5.52453e-11
-8.60637e-11
-6.6342e-11
-5.14806e-11
-4.12591e-11
-3.23491e-11
-2.39992e-11
-1.41004e-11
-6.32245e-12
-1.23782e-11
-2.05504e-11
-2.89316e-11
-3.39173e-11
-3.73615e-11
-4.09923e-11
-4.35754e-11
-5.00954e-11
1.08738e-11
-1.66389e-11
-7.50444e-11
-8.6082e-11
-5.23041e-11
-3.91453e-11
-3.35113e-11
-2.96792e-11
-2.77703e-11
-2.17091e-11
-7.63808e-12
-9.35824e-12
-1.97277e-11
-2.79806e-11
-3.29008e-11
-3.43605e-11
-3.59026e-11
-3.81047e-11
-4.72481e-11
1.85951e-11
-2.5881e-11
-8.92894e-11
-7.67701e-11
-3.81938e-11
-2.83673e-11
-2.40293e-11
-2.27196e-11
-2.65281e-11
-2.858e-11
-1.84289e-11
-7.1165e-12
-1.87191e-11
-2.65235e-11
-2.91858e-11
-3.14424e-11
-3.3182e-11
-3.4602e-11
-4.21489e-11
1.98225e-11
-3.86597e-11
-9.67083e-11
-6.27428e-11
-2.75085e-11
-1.98555e-11
-1.387e-11
-1.02687e-11
-1.49197e-11
-2.46277e-11
-2.79826e-11
-1.02754e-11
-1.78328e-11
-2.38284e-11
-2.73034e-11
-3.1951e-11
-3.41123e-11
-3.38252e-11
-3.77124e-11
1.08056e-11
-5.52542e-11
-9.8041e-11
-5.48874e-11
-2.42156e-11
-1.5379e-11
-3.13048e-12
4.76557e-12
9.7824e-13
-1.66273e-11
-3.31112e-11
-1.73752e-11
-1.66333e-11
-2.35983e-11
-2.32473e-11
-2.77034e-11
-4.09194e-11
-4.25638e-11
-4.90317e-11
-7.52978e-12
-7.52812e-11
-1.02132e-10
-5.55181e-11
-2.72726e-11
-1.03212e-11
1.35436e-11
2.22762e-11
1.27261e-11
-1.32405e-11
-3.68778e-11
-2.58388e-11
-2.18795e-11
-2.58031e-11
-8.66199e-12
-1.46624e-11
-2.94656e-11
-4.45821e-11
-5.93e-11
-3.10396e-11
-9.54768e-11
-1.08651e-10
-6.04068e-11
-2.46465e-11
1.10533e-11
4.16324e-11
3.8624e-11
1.75336e-11
-1.47327e-11
-4.49451e-11
-3.50586e-11
-2.22175e-11
-1.51782e-12
6.47875e-12
-6.25429e-12
-2.0065e-11
-2.43849e-11
-7.44971e-12
-5.45672e-11
-1.16473e-10
-1.20371e-10
-6.27843e-11
-5.22121e-12
4.82365e-11
6.75178e-11
4.45307e-11
1.74205e-11
-1.29838e-11
-5.10534e-11
-4.02815e-11
-1.29075e-11
1.17766e-11
1.57716e-11
1.67118e-11
1.26707e-11
1.03903e-11
1.94456e-11
-7.47022e-11
-1.35733e-10
-1.27064e-10
-4.45492e-11
3.48936e-11
7.14773e-11
6.19337e-11
3.72293e-11
1.68261e-11
-5.10638e-12
-3.94349e-11
-3.62526e-11
-1.11943e-11
9.74173e-13
-3.70514e-12
1.5201e-11
3.07272e-11
3.57395e-11
3.65936e-11
-7.95141e-11
-1.29339e-10
-8.1794e-11
1.20515e-11
5.43125e-11
4.46291e-11
2.1492e-11
1.83528e-11
1.44937e-11
3.49805e-12
-2.60425e-11
-2.95671e-11
-1.29279e-11
-1.38672e-11
-2.75074e-11
-2.47415e-11
-4.51085e-12
4.9231e-11
2.05581e-10
-7.28915e-11
-8.95538e-11
-3.96942e-12
2.75399e-11
8.91143e-12
-1.92825e-11
-2.63112e-11
-4.61766e-12
1.02716e-11
1.1124e-11
-9.94086e-12
-1.96226e-11
-1.03787e-11
-8.93471e-12
-1.184e-11
-2.6962e-11
-4.65672e-11
-5.07985e-11
-4.39863e-11
-4.96133e-11
-2.82656e-11
9.77306e-12
-1.63355e-11
-3.27641e-11
-5.22335e-11
-5.56366e-11
-2.59176e-11
3.86239e-12
1.86186e-11
7.32613e-12
-6.539e-12
-4.02176e-12
2.21684e-12
4.43721e-12
3.70753e-12
-9.26635e-12
-1.9596e-11
-3.35074e-11
-9.9958e-12
-1.18223e-12
-9.52206e-12
-1.47912e-11
-2.04915e-11
-4.19041e-11
-5.87779e-11
-4.50734e-11
-9.36645e-12
1.72783e-11
1.67218e-11
3.72032e-12
4.08429e-13
3.35288e-13
-1.975e-12
1.02122e-12
2.31942e-12
1.23377e-12
7.10117e-12
1.8619e-11
7.70816e-12
4.88434e-12
6.20944e-12
-8.21727e-12
-2.88466e-11
-5.39415e-11
-5.9482e-11
-2.87322e-11
3.51373e-12
1.54367e-11
6.85214e-12
-3.37993e-12
-8.20469e-12
-4.25142e-12
3.15271e-13
1.23177e-12
-9.65696e-13
1.58363e-12
2.74256e-11
1.27591e-11
1.65685e-11
1.10233e-11
-5.47874e-12
-2.33271e-11
-4.65829e-11
-6.46856e-11
-4.76531e-11
-1.74188e-11
6.77682e-12
4.99451e-12
-8.60223e-12
-1.02708e-11
-5.98856e-12
-1.7714e-12
-1.64399e-12
-9.18947e-13
-2.0742e-12
2.67114e-11
1.92236e-11
2.20244e-11
1.40886e-11
-1.75535e-12
-1.82189e-11
-3.72557e-11
-5.99428e-11
-5.91655e-11
-3.41153e-11
-4.96819e-12
2.00967e-12
-1.01119e-11
-9.43035e-12
-6.21112e-12
-3.11836e-12
-1.37729e-12
-9.40512e-13
-1.01829e-12
2.3795e-11
2.551e-11
2.63055e-11
1.71651e-11
1.52631e-12
-1.55191e-11
-3.058e-11
-4.70737e-11
-5.37412e-11
-4.14104e-11
-1.56306e-11
-1.69584e-12
-9.92472e-12
-9.78384e-12
-6.50207e-12
-2.95317e-12
-1.36513e-12
-9.51559e-13
-3.03424e-13
2.19451e-11
3.03592e-11
2.8349e-11
1.95948e-11
3.95817e-12
-1.38776e-11
-2.70448e-11
-3.93314e-11
-4.70333e-11
-4.32977e-11
-2.45314e-11
-6.3966e-12
-1.03056e-11
-9.93119e-12
-6.30504e-12
-2.80283e-12
-1.27404e-12
-8.95641e-13
-1.07078e-12
2.25836e-11
3.19182e-11
2.95693e-11
2.13111e-11
5.65405e-12
-1.24876e-11
-2.44287e-11
-3.24789e-11
-3.95767e-11
-4.31943e-11
-3.12497e-11
-1.3871e-11
-1.13005e-11
-1.00073e-11
-6.02682e-12
-2.55036e-12
-1.18296e-12
-9.097e-13
-1.21996e-12
1.46281e-13
-2.47474e-13
3.95803e-14
1.93625e-13
7.93815e-13
1.2433e-13
1.82221e-13
-5.25438e-13
4.61991e-12
1.10165e-12
1.15203e-12
-9.36648e-13
-7.37653e-13
-5.42775e-13
-3.15164e-12
-5.36034e-13
-2.64895e-13
-5.85788e-13
1.44175e-13
6.4304e-13
2.68519e-14
3.3349e-13
4.15724e-13
5.00834e-13
5.31706e-13
6.63733e-13
9.08435e-12
8.76631e-13
9.33666e-13
9.90843e-13
1.04334e-12
1.0914e-12
1.14723e-12
1.20805e-12
1.2922e-12
1.41964e-12
1.58711e-12
1.83447e-12
1.8191e-12
1.50221e-12
3.21336e-11
4.0538e-12
3.71483e-12
3.5935e-12
4.68002e-12
-2.47032e-13
-3.94217e-12
-2.55931e-11
-4.47379e-10
-2.23841e-11
-7.82424e-12
-3.27341e-11
-7.5084e-12
-8.87018e-12
-5.15576e-12
-1.75941e-11
-2.82167e-12
-2.65657e-12
-2.60313e-12
-1.66644e-11
-7.14342e-13
-9.13947e-13
-1.20568e-12
-9.73971e-13
-7.65551e-13
-6.34416e-13
-5.37799e-13
-4.61616e-13
-3.86107e-13
-3.27011e-13
-2.76906e-13
-2.36565e-13
-2.03828e-13
8.14829e-12
6.48323e-15
1.56511e-13
1.93191e-13
3.04927e-13
4.3059e-13
7.45053e-13
3.95884e-12
4.2172e-12
2.38375e-11
3.28387e-12
3.72941e-12
2.05723e-11
3.00466e-12
3.50081e-12
2.00054e-11
2.71588e-12
3.22651e-12
1.7851e-11
1.72614e-12
3.29254e-12
4.65261e-12
3.43935e-11
3.91374e-12
2.48011e-12
2.55399e-11
6.35971e-12
7.97e-13
4.56005e-12
2.54661e-11
5.32164e-11
5.35996e-11
4.7294e-11
3.96152e-11
3.10498e-11
2.09077e-11
1.1538e-11
9.45738e-12
1.25555e-11
2.11013e-11
2.99963e-11
3.4905e-11
3.8585e-11
4.20758e-11
4.35483e-11
5.09577e-11
-1.77308e-12
1.03536e-11
5.52453e-11
8.60637e-11
6.6342e-11
5.14806e-11
4.12591e-11
3.23491e-11
2.39992e-11
1.41004e-11
6.32245e-12
1.23782e-11
2.05504e-11
2.89316e-11
3.39173e-11
3.73615e-11
4.09923e-11
4.35754e-11
5.00954e-11
-1.08738e-11
1.66389e-11
7.50444e-11
8.6082e-11
5.23041e-11
3.91453e-11
3.35113e-11
2.96792e-11
2.77703e-11
2.17091e-11
7.63808e-12
9.35824e-12
1.97277e-11
2.79806e-11
3.29008e-11
3.43605e-11
3.59026e-11
3.81047e-11
4.72481e-11
-1.85951e-11
2.5881e-11
8.92894e-11
7.67701e-11
3.81938e-11
2.83673e-11
2.40293e-11
2.27196e-11
2.65281e-11
2.858e-11
1.84289e-11
7.1165e-12
1.87191e-11
2.65235e-11
2.91858e-11
3.14424e-11
3.3182e-11
3.4602e-11
4.21489e-11
-1.98225e-11
3.86597e-11
9.67083e-11
6.27428e-11
2.75085e-11
1.98555e-11
1.387e-11
1.02687e-11
1.49197e-11
2.46277e-11
2.79826e-11
1.02754e-11
1.78328e-11
2.38284e-11
2.73034e-11
3.1951e-11
3.41123e-11
3.38252e-11
3.77124e-11
-1.08056e-11
5.52542e-11
9.8041e-11
5.48874e-11
2.42156e-11
1.5379e-11
3.13048e-12
-4.76557e-12