/*--------------------------------*- C++ -*----------------------------------*\
| =========                 |                                                 |
| \\      /  F ield         | OpenFOAM: The Open Source CFD Toolbox           |
|  \\    /   O peration     | Version:  4.1                                   |
|   \\  /    A nd           | Web:      www.OpenFOAM.org                      |
|    \\/     M anipulation  |                                                 |
\*---------------------------------------------------------------------------*/
FoamFile
{
    version     2.0;
    format      ascii;
    class       volVectorField;
    location    "22";
    object      U;
}
// * * * * * * * * * * * * * * * * * * * * * * * * * * * * * * * * * * * * * //

dimensions      [0 1 -1 0 0 0 0];

internalField   nonuniform List<vector> 
1280
(
(-1.05714e-16 -1.41614 -1.69962)
(4.20606e-17 -0.905681 -1.3216)
(-2.86036e-17 -0.936971 -0.938241)
(-1.39927e-16 -0.678338 -1.2785)
(-1.34916e-16 -0.53232 -1.98434)
(-8.98497e-17 -0.172547 -1.37374)
(-1.31687e-16 0.0471031 -1.29211)
(4.42624e-16 0.19403 -1.16308)
(-9.36758e-16 0.499877 -1.94579)
(-7.96133e-16 0.767222 -1.45577)
(-8.3254e-16 1.01049 -1.27564)
(2.29915e-16 1.38741 -2.18005)
(5.43746e-16 1.58924 -1.65808)
(3.97553e-16 1.88397 -1.46286)
(6.44871e-16 2.48472 -2.43483)
(3.87378e-16 2.39015 -1.93549)
(1.91433e-16 2.98706 -1.61515)
(9.95603e-17 2.65166 -3.56072)
(-1.15064e-16 4.47461 -1.69349)
(-4.64708e-16 2.60067 -5.42332)
(-1.10162e-16 4.19539 2.10446)
(-1.36816e-15 4.3797 7.48336)
(-1.70553e-15 4.22709 9.05507)
(-2.0547e-15 4.70685 9.64509)
(-2.18136e-15 4.70376 9.82139)
(-2.72301e-15 5.11266 10.8065)
(-1.91502e-15 3.89829 8.31763)
(-3.59644e-15 8.23116 13.6463)
(-3.83043e-15 8.37202 13.6181)
(-4.065e-15 8.34632 13.5369)
(-4.28035e-15 8.3667 13.4979)
(-4.47753e-15 8.3408 13.5084)
(-4.70658e-15 8.34571 13.4765)
(-4.95609e-15 8.26567 13.4166)
(-5.30135e-15 8.27403 13.2785)
(-5.82418e-15 8.12195 13.1074)
(-6.51124e-15 8.15919 12.8251)
(-7.52604e-15 7.88213 12.5569)
(-7.46299e-15 7.97631 12.8538)
(-6.16291e-15 7.72678 13.4065)
(-5.59332e-15 9.27844 14.2217)
(-3.25607e-15 5.5427 9.69143)
(-2.9838e-15 4.35746 9.51888)
(-2.86814e-15 3.37877 9.59811)
(-6.46595e-16 1.13646 8.56675)
(1.98419e-16 0.347472 1.79789)
(3.1664e-15 -0.221093 -1.13402)
(2.05567e-14 0.623835 -2.83725)
(7.85297e-14 0.610059 -5.07183)
(1.78262e-14 -0.647766 -3.09948)
(6.28453e-15 0.619701 -3.34645)
(5.69785e-15 -0.591305 -5.13389)
(6.03084e-15 -0.517174 -2.0635)
(7.12464e-15 0.181952 -0.324345)
(4.14117e-15 -0.457299 2.83868)
(3.0625e-15 -1.35304 8.56091)
(2.28459e-15 -3.41501 9.38325)
(2.13379e-15 -4.4207 9.40622)
(2.09087e-15 -5.61038 9.6388)
(2.87706e-15 -8.97925 14.6161)
(2.93063e-15 -7.72563 14.3128)
(3.74953e-15 -8.0013 13.2579)
(4.94637e-15 -7.83852 12.258)
(3.99578e-15 -8.2165 12.3898)
(3.14072e-15 -8.16414 12.6336)
(2.60273e-15 -8.3756 12.8517)
(2.20635e-15 -8.37308 13.1287)
(1.89381e-15 -8.49841 13.3757)
(1.58403e-15 -8.50823 13.6453)
(1.34158e-15 -8.57054 13.8287)
(1.13603e-15 -8.54405 13.951)
(9.70523e-16 -8.54952 13.9802)
(8.36219e-16 -8.42813 13.9044)
(-1.71769e-15 -4.27119 8.63305)
(-2.65978e-17 -4.78628 11.2619)
(-6.42097e-16 -4.50449 10.5186)
(-7.92578e-16 -4.45813 9.84878)
(-1.25098e-15 -4.01464 8.88611)
(-1.76652e-15 -4.20213 7.74599)
(-3.05663e-15 -4.01143 2.22959)
(-2.86095e-15 -2.48764 -5.00194)
(-3.04766e-15 -4.34703 -1.40461)
(-4.05142e-15 -2.58169 -3.16824)
(-2.37316e-15 -2.86432 -1.37502)
(-2.69515e-15 -2.35442 -1.70681)
(-3.49646e-15 -2.31281 -2.1517)
(-2.17139e-15 -1.71918 -1.1349)
(-2.52852e-15 -1.50351 -1.36361)
(-3.3493e-15 -1.2076 -1.79945)
(-1.96044e-15 -0.824475 -0.832745)
(-2.32943e-15 -0.698446 -1.0789)
(-2.88507e-15 -0.238794 -1.52139)
(-1.2112e-15 -0.063228 -0.558461)
(-2.37943e-15 0.0654352 -0.686586)
(-3.36232e-15 0.135125 -0.887027)
(-5.8455e-15 0.620849 -1.63179)
(-2.82836e-15 0.725849 -0.790724)
(-1.79231e-15 0.822867 -0.431265)
(-4.35703e-15 1.03454 -1.00771)
(-4.59599e-15 1.29617 -1.00096)
(-8.85556e-17 -1.30923 2.32703)
(-5.06673e-16 0.211205 1.95359)
(-2.82956e-15 3.66535 2.9566)
(-5.91293e-15 3.25325 4.59174)
(-5.95551e-15 2.2564 5.57641)
(-5.25488e-15 2.48382 6.33072)
(-4.40169e-15 3.03331 6.77546)
(-3.44998e-15 3.51274 6.62849)
(-2.32308e-15 3.07003 5.37512)
(-1.282e-15 0.645669 2.55377)
(-1.05082e-15 -3.03816 -0.163876)
(-1.39506e-15 -5.55325 -0.858995)
(-2.34459e-15 -5.32738 -1.04874)
(-3.33293e-15 -3.22802 -1.25787)
(-3.87833e-15 -0.870302 -1.67757)
(-4.28722e-15 -0.155608 -1.93213)
(-4.67509e-15 -0.132026 -1.99091)
(-4.8387e-15 -0.191901 -1.8705)
(-5.66196e-15 0.740512 -1.82206)
(1.97009e-16 -1.15699 2.51552)
(-1.1504e-15 -0.0615588 2.22736)
(-6.13837e-15 2.74611 3.57238)
(-9.56264e-15 2.34188 5.70644)
(-7.37133e-15 1.64378 7.24953)
(-5.72006e-15 2.06916 8.52532)
(-4.58434e-15 2.93965 9.2387)
(-3.59435e-15 3.98097 9.16486)
(-2.66657e-15 4.36886 7.82556)
(-1.56671e-15 2.59326 4.70838)
(-7.02494e-16 -2.02129 0.342108)
(-1.37535e-15 -5.34752 -0.744501)
(-2.28338e-15 -5.16987 -0.77667)
(-3.21462e-15 -2.93524 -1.23005)
(-3.76859e-15 -0.61181 -2.13809)
(-4.15128e-15 -0.0495016 -2.66375)
(-4.5547e-15 -0.147154 -2.69674)
(-4.84171e-15 -0.31248 -2.32551)
(-5.56616e-15 0.443441 -2.05368)
(1.2082e-15 -1.19998 2.7923)
(-1.84876e-15 -0.271018 2.89103)
(-8.33826e-15 2.19533 4.25038)
(-9.56467e-15 1.6835 6.61947)
(-5.81157e-15 1.07294 8.43604)
(-4.34948e-15 1.65694 9.73353)
(-3.72348e-15 2.78496 10.2283)
(-3.29769e-15 4.15827 9.9209)
(-3.08559e-15 5.03334 8.69673)
(-2.41212e-15 3.88955 6.2798)
(-8.48676e-16 -0.819352 2.26323)
(-1.0398e-15 -5.02424 -0.443045)
(-2.19196e-15 -5.08925 -0.174116)
(-3.10895e-15 -2.60447 -1.02829)
(-3.65565e-15 -0.305198 -2.65857)
(-3.81783e-15 0.0397679 -3.52)
(-3.98918e-15 -0.236293 -3.57832)
(-4.23385e-15 -0.403069 -3.00515)
(-5.24979e-15 0.468507 -2.43499)
(2.06613e-15 -1.24439 3.25729)
(-2.87567e-15 -0.595974 3.63501)
(-9.92104e-15 1.31419 5.11168)
(-8.53001e-15 0.717583 7.81864)
(-4.24375e-15 0.435363 9.56064)
(-3.15192e-15 1.37867 10.3292)
(-2.66992e-15 2.86931 10.0639)
(-2.5244e-15 4.55659 9.15412)
(-2.94757e-15 5.7556 7.87805)
(-3.17555e-15 5.09386 6.29261)
(-2.04765e-15 0.615197 3.85508)
(-7.90722e-16 -4.43719 0.716512)
(-2.0799e-15 -4.93783 0.69418)
(-2.94706e-15 -1.9137 -0.616339)
(-3.24286e-15 0.302277 -3.22101)
(-3.4936e-15 0.245689 -4.37422)
(-3.68689e-15 -0.362875 -4.34205)
(-3.84466e-15 -0.851562 -3.37877)
(-4.68321e-15 -0.30741 -2.72544)
(2.2025e-15 -1.40875 3.83419)
(-4.29552e-15 -0.968612 4.4546)
(-1.07454e-14 0.486724 6.11071)
(-6.97143e-15 -0.106277 8.64559)
(-3.05649e-15 0.0574901 9.7101)
(-2.20617e-15 1.45391 9.46579)
(-1.54111e-15 3.25963 8.27206)
(-1.14097e-15 5.04049 6.8836)
(-1.65775e-15 6.21115 5.6344)
(-2.73641e-15 5.59393 4.81375)
(-3.10918e-15 1.4078 4.55074)
(-1.14171e-15 -3.81609 2.75205)
(-1.98142e-15 -4.56144 1.73333)
(-2.6476e-15 -0.978859 0.00396569)
(-3.03371e-15 1.17067 -3.25304)
(-3.55011e-15 0.491319 -4.65924)
(-3.79026e-15 -0.550652 -4.80919)
(-3.75835e-15 -0.954044 -3.77384)
(-4.19027e-15 0.069671 -2.95524)
(1.20063e-15 -1.58961 4.46333)
(-6.13935e-15 -1.43594 5.26672)
(-1.08934e-14 -0.361465 6.92976)
(-6.0986e-15 -0.679056 8.72749)
(-2.69062e-15 0.103651 8.66697)
(-1.70878e-15 1.94444 7.43934)
(-3.47831e-16 3.88445 5.91544)
(5.29508e-16 5.58591 4.6996)
(1.08693e-16 6.57714 3.8614)
(-1.84748e-15 5.5937 3.63114)
(-3.67902e-15 1.42061 5.03538)
(-1.93058e-15 -3.35276 4.9613)
(-1.84814e-15 -3.86415 2.98571)
(-2.62203e-15 0.407408 0.44986)
(-2.58304e-15 2.08245 -0.7148)
(-3.07816e-15 0.832903 -2.03193)
(-4.5466e-15 -0.68889 -3.44048)
(-4.72931e-15 -1.82745 -3.03367)
(-5.44797e-15 -1.11942 -3.62911)
(-8.36643e-16 -1.81824 5.05887)
(-8.36458e-15 -1.88733 5.9462)
(-1.1348e-14 -0.927437 7.16455)
(-6.16868e-15 -0.796951 7.90945)
(-3.03029e-15 0.547181 6.70868)
(-1.1468e-15 2.547 5.16799)
(1.50484e-15 4.3577 4.01473)
(2.47514e-15 5.85898 3.48861)
(1.41401e-15 6.6453 3.49181)
(-1.47117e-15 5.17089 4.04105)
(-4.09753e-15 0.809816 6.26039)
(-2.87098e-15 -3.08199 6.95234)
(-2.43105e-15 -2.89763 4.49654)
(-2.86701e-15 1.05228 3.29182)
(-9.62443e-16 2.06696 4.4249)
(-1.62916e-15 1.37451 3.14046)
(-3.27396e-15 -0.049756 0.343508)
(-4.95357e-15 -0.392071 -1.55394)
(-6.58889e-15 0.648932 -2.97488)
(-3.44884e-15 -2.03995 5.53954)
(-1.06085e-14 -2.21888 6.31816)
(-1.20723e-14 -1.15824 6.76867)
(-6.71186e-15 -0.496545 6.39955)
(-2.7385e-15 1.16474 4.54195)
(1.22814e-15 3.01611 3.30319)
(4.62582e-15 4.54991 2.72574)
(4.29155e-15 5.78555 2.98896)
(1.94818e-15 6.35499 3.80817)
(-1.63697e-15 4.48373 5.07692)
(-4.9939e-15 0.125111 7.55754)
(-3.8954e-15 -2.75806 8.32696)
(-2.46861e-15 -2.26781 6.72426)
(-1.68647e-16 0.561533 8.13676)
(7.19861e-16 2.05778 9.63341)
(-6.94921e-16 2.31658 8.90069)
(-2.22944e-15 1.03951 7.31663)
(-2.70943e-15 -1.3062 6.19807)
(-8.27746e-16 -5.70479 9.67762)
(-6.06303e-15 -2.21399 5.80704)
(-1.29414e-14 -2.32501 6.23324)
(-1.33746e-14 -0.984931 5.74513)
(-6.97603e-15 0.111217 4.45863)
(-5.80134e-16 1.73409 2.58211)
(5.35961e-15 3.28013 1.80933)
(7.50198e-15 4.47898 1.8079)
(4.94785e-15 5.42853 2.77761)
(1.93561e-15 5.82737 4.17405)
(-1.44265e-15 3.71751 5.81367)
(-5.67261e-15 -0.548259 7.91867)
(-4.47572e-15 -2.87739 9.21922)
(-1.43417e-15 -2.6306 9.71118)
(1.30851e-15 -0.198843 12.302)
(1.7524e-15 1.74218 13.347)
(1.85686e-15 2.14579 13.5319)
(1.40786e-15 0.860804 14.0082)
(1.15448e-15 -1.20185 13.4655)
(2.16062e-15 -3.47336 12.4717)
(-8.30024e-15 -2.28198 5.78722)
(-1.50815e-14 -2.15107 5.66899)
(-1.41182e-14 -0.482407 4.20173)
(-4.94991e-15 0.811295 2.45119)
(3.87707e-15 2.16326 0.977081)
(7.94193e-15 3.33543 0.615966)
(6.95944e-15 4.15954 1.213)
(4.13659e-15 4.84541 2.73908)
(1.86957e-15 5.15755 4.61923)
(-5.67376e-16 3.04477 6.57586)
(-4.38166e-15 -1.20686 7.88608)
(-3.91956e-15 -3.5145 9.51204)
(-1.24381e-15 -3.39813 11.2908)
(1.08241e-16 -0.858596 13.1256)
(-5.31505e-16 1.61113 13.1062)
(1.689e-15 2.18111 12.9178)
(3.41413e-15 0.941678 12.4953)
(3.97105e-15 -0.9079 10.5554)
(4.06595e-15 -2.71501 6.61849)
(-8.8349e-15 -2.22838 5.45747)
(-1.4371e-14 -1.65914 4.80887)
(-9.08823e-15 0.283489 2.76076)
(1.33905e-15 1.40314 1.37688)
(6.03473e-15 2.4365 0.0974032)
(4.95879e-15 3.20146 0.0183736)
(2.36639e-15 3.6223 1.08533)
(2.0392e-15 4.07129 2.87771)
(1.61041e-15 4.30609 5.16095)
(3.88672e-16 2.40256 7.61171)
(-2.89361e-15 -1.7049 8.50389)
(-3.28523e-15 -4.29088 9.88188)
(-1.43644e-15 -4.09519 12.1732)
(-1.5408e-15 -0.961721 13.3735)
(-3.05637e-15 1.89349 12.3597)
(-2.74906e-15 2.46875 12.6419)
(-5.01205e-16 1.88531 13.2206)
(5.47011e-15 1.99677 10.9841)
(2.28423e-14 2.89018 6.56843)
(-8.09905e-15 -2.08277 4.96899)
(-9.95042e-15 -1.06149 4.43782)
(-4.41047e-16 0.86455 3.01705)
(3.05999e-15 1.89939 1.60405)
(9.90159e-16 2.70341 0.17201)
(-2.1425e-15 2.96483 0.320324)
(-2.92346e-15 3.02364 1.4517)
(-5.13073e-16 3.22862 3.11754)
(1.14129e-15 3.27846 5.53907)
(1.236e-15 1.64287 8.53763)
(-1.10454e-15 -2.10612 9.76037)
(-2.18029e-15 -4.98992 10.7374)
(-1.15319e-15 -4.64832 12.2943)
(-9.92745e-16 -0.901485 10.8312)
(-1.31556e-15 1.82443 7.20959)
(-2.99577e-15 1.6465 8.15386)
(-5.17413e-15 1.34908 11.4128)
(-5.64428e-15 2.02292 12.5423)
(-4.88737e-15 3.43174 12.3536)
(-5.51259e-15 -2.08829 5.42265)
(-3.14062e-15 -0.81784 5.58138)
(1.0859e-15 1.40471 4.14194)
(-1.81506e-15 2.59466 2.04146)
(-3.64046e-15 2.91712 0.908636)
(-5.80372e-15 2.70151 1.10769)
(-6.18184e-15 2.51071 2.00927)
(-2.87973e-15 2.45468 3.35885)
(4.29155e-16 2.15869 5.54831)
(2.06874e-15 0.6659 8.8035)
(8.14015e-16 -2.5691 10.8371)
(-7.26556e-16 -5.38448 11.6806)
(-4.46862e-16 -4.21688 11.7048)
(2.46316e-16 0.835323 7.66007)
(4.93024e-16 3.0685 3.87143)
(4.11947e-16 1.18024 2.23322)
(-1.02959e-15 -0.130642 2.00293)
(-2.17734e-15 1.50118 5.14477)
(-3.72305e-15 5.79595 9.77672)
(-1.11064e-15 -2.19389 7.37967)
(-1.31359e-16 -0.462631 6.89102)
(-1.05801e-15 2.27022 4.39247)
(-1.64346e-15 3.20823 2.52841)
(-2.27683e-15 3.05087 1.61184)
(-4.65601e-15 2.51844 1.57067)
(-6.53088e-15 2.105 2.26928)
(-5.00815e-15 1.81224 3.47605)
(-1.04072e-15 1.12281 5.24846)
(1.91981e-15 -0.463227 8.05648)
(1.85798e-15 -3.19955 10.6647)
(4.13369e-16 -5.39371 11.6708)
(4.5381e-17 -3.01691 10.1119)
(3.72542e-17 2.35238 5.44935)
(-2.19445e-16 3.93463 3.80879)
(1.13469e-16 2.26482 2.36797)
(2.57714e-16 0.506916 -0.349874)
(1.37085e-16 -0.91033 -2.69408)
(7.89019e-16 -1.1058 -1.43483)
(2.06878e-15 -1.94233 9.12962)
(8.56462e-16 0.41056 6.96755)
(5.42705e-16 3.15476 4.24198)
(6.89937e-16 3.71227 2.82597)
(-9.1303e-16 3.27977 1.87072)
(-3.20517e-15 2.44137 1.59787)
(-5.9935e-15 1.73674 2.08575)
(-6.60911e-15 1.25028 3.30437)
(-3.19247e-15 0.325655 4.80998)
(3.90415e-16 -1.48286 6.74644)
(1.71519e-15 -3.93447 9.22978)
(7.61348e-16 -5.21268 10.3866)
(-3.75548e-16 -1.65741 7.75709)
(-9.11632e-16 3.26084 3.45264)
(-4.7238e-16 4.39042 2.61471)
(3.50301e-17 2.9168 1.2291)
(1.36863e-16 1.52581 -0.514761)
(-1.073e-16 1.27144 -1.42307)
(1.75958e-16 0.643634 -3.69901)
(3.04729e-15 -1.32531 9.25036)
(1.41768e-15 1.48375 6.11844)
(1.84094e-15 3.92264 3.93239)
(1.22481e-15 4.15705 2.82861)
(-6.08748e-16 3.53211 1.9778)
(-2.5919e-15 2.44332 1.58571)
(-5.17588e-15 1.43049 1.73267)
(-7.18728e-15 0.716221 2.80232)
(-5.29479e-15 -0.289777 4.23944)
(-1.93542e-15 -2.24128 5.43818)
(7.5298e-16 -4.55959 7.13318)
(5.54946e-16 -4.89829 8.27294)
(-9.55803e-16 -0.135263 5.25282)
(-1.1412e-15 4.21476 1.70921)
(-6.65395e-16 4.89954 1.2691)
(-1.96822e-16 3.51325 -0.040322)
(-1.82665e-16 1.82706 -1.27113)
(-1.02105e-16 0.932583 -2.06379)
(-2.30467e-16 0.192718 -2.47239)
(2.96793e-15 -0.649842 8.15487)
(2.13595e-15 2.47058 5.18369)
(2.44715e-15 4.50619 3.59654)
(1.5654e-15 4.49531 2.82229)
(-1.95039e-16 3.77565 2.09083)
(-2.02432e-15 2.54536 1.62767)
(-4.13952e-15 1.27449 1.43407)
(-6.66031e-15 0.248154 2.10699)
(-6.57394e-15 -0.755042 3.44406)
(-3.79059e-15 -2.67305 4.20619)
(-5.52021e-16 -4.96357 4.87232)
(2.23297e-16 -4.6153 5.84998)
(-1.12354e-15 1.07608 3.08886)
(-1.04782e-15 4.83015 0.168677)
(-6.90124e-16 5.19347 0.0079187)
(-3.46485e-16 3.91839 -0.953581)
(-1.53033e-16 2.24559 -1.67813)
(-1.04501e-16 1.41062 -2.16813)
(-1.13143e-16 0.621935 -2.37027)
(2.64389e-15 -0.0397519 6.71346)
(2.83445e-15 3.22893 4.37588)
(2.92284e-15 4.8973 3.36679)
(1.90724e-15 4.74628 2.82837)
(1.6959e-16 4.00094 2.17381)
(-1.72434e-15 2.69705 1.65882)
(-3.39778e-15 1.27139 1.22849)
(-5.23041e-15 -0.0850341 1.40753)
(-5.97124e-15 -1.11755 2.48342)
(-4.60115e-15 -2.84404 3.07158)
(-1.73673e-15 -5.08066 2.84288)
(-1.88426e-16 -4.28579 3.40631)
(-1.10275e-15 2.07495 1.3356)
(-1.08709e-15 5.40982 -0.930558)
(-7.22452e-16 5.42057 -1.0931)
(-3.28131e-16 4.16955 -1.62665)
(-1.51681e-16 2.39576 -2.01231)
(-1.05729e-16 1.32396 -2.2624)
(-3.37138e-17 0.323156 -2.18398)
(2.43835e-15 0.329815 5.44016)
(3.37325e-15 3.785 3.74104)
(3.14988e-15 5.1449 3.27422)
(2.1772e-15 4.94921 2.82379)
(4.39797e-16 4.21579 2.24207)
(-1.54196e-15 2.87842 1.68872)
(-3.00498e-15 1.36338 1.13759)
(-4.37016e-15 -0.318992 0.848196)
(-5.22592e-15 -1.38315 1.45692)
(-4.81086e-15 -2.85414 2.06111)
(-2.72572e-15 -5.00672 1.50116)
(-7.10734e-16 -4.16818 1.23572)
(-1.14506e-15 2.7655 -0.569787)
(-1.10347e-15 5.84791 -1.68338)
(-7.0056e-16 5.55889 -1.83854)
(-3.11425e-16 4.25437 -2.02292)
(-1.41559e-16 2.47764 -2.13216)
(-9.95157e-17 1.37278 -2.19974)
(-1.18976e-16 0.427558 -2.10258)
(2.50929e-15 0.698259 4.20092)
(3.54646e-15 4.05609 3.51985)
(3.28547e-15 5.34037 3.22428)
(2.3679e-15 5.21731 2.82825)
(6.28228e-16 4.53983 2.28217)
(-1.38751e-15 3.22199 1.71749)
(-2.7143e-15 1.71822 1.16242)
(-3.60877e-15 -0.238142 0.696868)
(-4.39741e-15 -1.56953 0.709124)
(-4.79937e-15 -2.86088 0.986593)
(-3.47219e-15 -4.60733 0.560538)
(-1.54122e-15 -3.39404 -0.294023)
(-1.25562e-15 3.0698 -1.54723)
(-1.11192e-15 5.95102 -2.15827)
(-6.69647e-16 5.57923 -2.22539)
(-2.83374e-16 4.25584 -2.19636)
(-1.3144e-16 2.47938 -2.1635)
(-1.01078e-16 1.35458 -2.10137)
(-1.35551e-16 0.174443 -2.14126)
(1.51923e-16 13.4273 22.6476)
(-3.78823e-15 18.9428 31.7453)
(-3.66188e-15 16.7739 26.8433)
(-4.06377e-15 14.2213 22.609)
(-4.23478e-15 13.3047 20.5084)
(-5.21537e-15 13.6974 20.7981)
(-5.21951e-15 13.435 19.8457)
(-5.24234e-15 12.3385 17.9691)
(-5.61564e-15 11.155 15.8897)
(-6.0507e-15 10.177 14.3564)
(-6.48848e-15 9.56091 13.322)
(-6.94527e-15 8.98837 12.566)
(-7.56891e-15 8.47209 11.7425)
(-8.3323e-15 7.71667 10.8905)
(-9.54343e-15 7.06858 9.83981)
(-1.14434e-14 5.96638 8.70638)
(-1.42262e-14 5.18716 7.2249)
(-1.69847e-14 4.03272 6.5527)
(-1.36682e-14 5.62612 8.39803)
(-8.00969e-15 5.39269 10.1235)
(6.7661e-17 13.9373 23.6636)
(-3.62077e-15 17.1758 29.4278)
(-2.85576e-15 14.0592 24.0261)
(-3.5021e-15 12.0071 20.6288)
(-3.73714e-15 11.8082 20.2347)
(-4.58495e-15 12.6247 21.3592)
(-3.77294e-15 11.6893 19.6091)
(-3.89875e-15 10.0103 16.7565)
(-4.64045e-15 8.7969 14.6783)
(-5.09517e-15 8.10176 13.531)
(-5.54311e-15 7.69551 12.6641)
(-5.9124e-15 7.12406 11.8216)
(-6.67406e-15 6.59494 10.702)
(-7.4951e-15 5.74135 9.617)
(-8.77351e-15 5.19422 8.3699)
(-1.04411e-14 4.13561 7.23368)
(-1.34389e-14 3.70612 5.82657)
(-1.50621e-14 3.04137 5.74633)
(-1.02393e-14 5.01145 7.78759)
(-6.82134e-15 4.59124 8.80698)
(2.95331e-17 14.4618 25.2623)
(-1.53268e-15 17.404 29.7785)
(-1.1303e-15 14.8939 25.7443)
(-1.37318e-15 12.9495 21.9178)
(-1.53695e-15 12.5901 21.4836)
(-2.36893e-15 13.3616 22.4084)
(-1.66264e-15 11.9388 20.0375)
(-1.82135e-15 10.2632 17.2303)
(-1.98601e-15 9.26284 15.4284)
(-2.13955e-15 8.64952 14.3698)
(-2.39243e-15 8.1621 13.3206)
(-2.55101e-15 7.44853 12.2561)
(-3.08892e-15 6.80474 10.948)
(-3.45981e-15 5.86936 9.71173)
(-3.99208e-15 5.27782 8.40949)
(-4.76313e-15 4.30937 7.40888)
(-6.21285e-15 3.981 6.22437)
(-7.20774e-15 3.28439 6.03621)
(-4.88934e-15 4.83172 7.4792)
(-3.0631e-15 4.60523 8.86337)
(6.56431e-18 14.4405 25.466)
(3.81004e-16 17.2441 29.2887)
(2.37946e-16 15.0493 26.1888)
(3.0385e-16 12.9736 21.8815)
(3.44309e-16 12.583 21.6062)
(-1.62982e-15 13.4815 22.7393)
(-1.54787e-15 11.3304 19.1472)
(-1.92206e-15 9.75588 16.6367)
(-1.98803e-15 9.13779 15.3523)
(-2.14487e-15 8.5446 14.4508)
(-2.37393e-15 8.00081 13.1969)
(-2.47438e-15 7.10282 11.9097)
(-3.09071e-15 6.38385 10.3603)
(-3.50404e-15 5.31181 8.9406)
(-4.18986e-15 4.64221 7.39968)
(-4.72799e-15 3.6014 6.36046)
(-5.72039e-15 3.38661 5.35199)
(-6.02076e-15 2.80152 5.44267)
(-4.5152e-15 4.423 7.02778)
(-3.27208e-15 4.60127 8.80196)
(-1.29207e-18 14.4989 25.9728)
(-9.31528e-17 17.3969 29.345)
(-5.52299e-17 15.4389 27.1351)
(-6.88456e-17 13.2293 22.2902)
(-8.24746e-17 12.7591 22.0136)
(3.5693e-16 13.6155 23.192)
(3.85588e-16 11.0315 18.7023)
(4.35327e-16 9.81141 16.9082)
(4.71007e-16 9.49174 15.8991)
(5.04569e-16 8.75612 14.9592)
(5.53924e-16 8.19821 13.5302)
(5.94884e-16 7.17796 12.153)
(7.20039e-16 6.48647 10.5003)
(8.13802e-16 5.34295 8.97734)
(9.77721e-16 4.61146 7.18151)
(1.18955e-15 3.47101 5.97211)
(1.53606e-15 3.33093 5.04782)
(1.79315e-15 2.76188 5.24053)
(1.07198e-15 4.43837 6.95141)
(6.44512e-16 5.00761 9.47833)
(3.12475e-19 14.2713 25.8387)
(2.22607e-17 17.6074 29.4919)
(1.30973e-17 15.6519 27.7647)
(1.58858e-17 13.3198 22.3135)
(2.02144e-17 12.8077 22.1064)
(-8.10045e-17 13.5705 23.3301)
(-9.49643e-17 10.8918 18.3396)
(-1.02708e-16 9.84707 17.0787)
(-1.12565e-16 9.65436 16.0648)
(-1.2188e-16 8.75783 15.0814)
(-1.32249e-16 8.25103 13.5968)
(-1.43018e-16 7.18015 12.2361)
(-1.67598e-16 6.54695 10.581)
(-1.92032e-16 5.37477 9.02758)
(-2.37176e-16 4.54053 6.93551)
(-3.09875e-16 3.2038 5.33879)
(-3.96111e-16 2.98091 4.1915)
(-4.52735e-16 2.39408 4.37526)
(-3.10325e-16 4.18888 6.31144)
(-2.03847e-16 4.89362 9.16962)
(-1.09461e-19 14.0204 25.566)
(-5.19568e-18 17.9662 29.9107)
(-3.0879e-18 15.7747 28.3431)
(-3.68397e-18 13.4802 22.3939)
(-4.95654e-18 12.8622 22.283)
(1.90965e-17 13.4924 23.4774)
(2.34638e-17 10.9916 18.3946)
(2.51344e-17 9.91237 17.3677)
(2.7559e-17 9.78718 16.2656)
(2.9782e-17 8.79942 15.2784)
(3.20186e-17 8.34062 13.824)
(3.46282e-17 7.28064 12.4923)
(3.99206e-17 6.65887 10.8985)
(4.5953e-17 5.55845 9.45143)
(5.69652e-17 4.68111 7.30895)
(7.38662e-17 3.25285 5.45263)
(8.90395e-17 2.89724 4.00364)
(1.03063e-16 2.19857 3.88919)
(8.68847e-17 3.89533 5.63504)
(5.30005e-17 4.34318 8.14928)
(2.97335e-20 13.8431 25.2373)
(1.19375e-18 18.3279 30.3062)
(7.33352e-19 15.8044 28.72)
(8.50761e-19 13.7433 22.5099)
(1.22511e-18 12.9088 22.357)
(-4.52639e-18 13.39 23.4618)
(-5.87168e-18 11.2601 18.6169)
(-6.26364e-18 9.9889 17.5332)
(-6.79305e-18 9.88741 16.3455)
(-7.30051e-18 8.89502 15.3336)
(-7.80603e-18 8.38926 13.9204)
(-8.44543e-18 7.38722 12.5277)
(-9.64991e-18 6.6409 10.9241)
(-1.11244e-17 5.6346 9.49344)
(-1.3425e-17 4.71641 7.5162)
(-1.6333e-17 3.35695 5.61154)
(-1.81875e-17 2.82363 3.98742)
(-2.14608e-17 2.0555 3.5329)
(-2.19996e-17 3.54012 4.98985)
(-1.50979e-17 3.60671 6.7666)
(-5.78095e-21 13.9543 25.28)
(-2.73405e-19 18.6592 30.6318)
(-1.7755e-19 15.7373 28.9361)
(-1.96266e-19 14.1532 22.8447)
(-3.09254e-19 13.0166 22.511)
(1.06141e-18 13.3014 23.4205)
(1.44244e-18 11.5859 18.9631)
(1.53851e-18 10.2121 17.8199)
(1.64796e-18 10.0331 16.5656)
(1.7741e-18 9.12187 15.4404)
(1.88889e-18 8.49022 14.0825)
(2.03761e-18 7.6086 12.6102)
(2.3001e-18 6.72273 10.992)
(2.64827e-18 5.78506 9.43031)
(3.03766e-18 4.83702 7.63678)
(3.35022e-18 3.66394 5.81596)
(3.42589e-18 2.98607 4.2237)
(4.17243e-18 2.24884 3.50821)
(5.13046e-18 3.2152 4.41285)
(4.23694e-18 2.79306 5.11113)
(8.30296e-22 14.4425 25.8896)
(6.27615e-20 18.8338 30.727)
(4.37071e-20 15.5494 28.9148)
(4.54294e-20 14.6819 23.463)
(7.43177e-20 13.1836 22.721)
(-2.44971e-19 13.2373 23.2403)
(-3.5528e-19 11.8384 19.4467)
(-3.73197e-19 10.6111 18.1868)
(-3.90421e-19 10.1573 16.8988)
(-4.23037e-19 9.41802 15.586)
(-4.52699e-19 8.61691 14.296)
(-4.91847e-19 7.87565 12.7683)
(-5.51741e-19 6.91614 11.1925)
(-6.20859e-19 6.03021 9.51063)
(-6.66358e-19 5.04689 7.75748)
(-7.03856e-19 3.97498 5.88291)
(-7.18029e-19 3.09795 4.18387)
(-7.49992e-19 2.31389 3.06054)
(-1.11758e-18 2.47791 3.11715)
(-1.91389e-18 1.59334 2.44507)
(-3.86592e-23 15.1993 27.1112)
(-1.43891e-20 18.7491 30.5407)
(-1.0978e-20 15.3852 28.5968)
(-1.03781e-20 15.2512 24.5362)
(-2.20047e-20 13.4022 23.2047)
(6.02794e-20 13.2657 22.7551)
(8.51819e-20 12.0163 20.2316)
(9.06193e-20 11.2441 18.6447)
(9.37745e-20 10.2969 17.4224)
(1.01954e-19 9.85039 15.9228)
(1.06992e-19 8.88556 14.7078)
(1.09806e-19 8.29508 13.1657)
(1.12179e-19 7.33162 11.69)
(1.15228e-19 6.5471 10.0494)
(1.18516e-19 5.60303 8.37123)
(1.10569e-19 4.56183 6.45172)
(7.54931e-20 3.51793 4.49993)
(1.02355e-19 2.44858 2.92125)
(2.18003e-19 1.55908 1.50417)
(2.16581e-19 -0.167783 -0.58274)
(-2.16879e-23 15.8014 28.5268)
(3.33531e-21 18.3331 30.0649)
(2.70736e-21 15.3667 27.7226)
(2.4105e-21 15.3126 25.5198)
(2.79497e-21 13.5113 24.0284)
(-1.05266e-20 13.3872 21.9669)
(-2.11361e-20 11.7832 21.0025)
(-2.03925e-20 11.6416 19.0744)
(-1.96728e-20 10.3041 17.9188)
(-2.17092e-20 10.0162 16.3536)
(-2.51833e-20 8.9414 15.1304)
(-3.05788e-20 8.38685 13.5686)
(-3.77532e-20 7.36628 12.1113)
(-4.44883e-20 6.57849 10.4997)
(-4.36761e-20 5.56115 8.83221)
(-3.55706e-20 4.3214 6.7654)
(-9.64345e-20 2.72962 3.88058)
(-2.20054e-19 0.688029 1.15854)
(1.82118e-19 -1.542 -2.99117)
(5.84593e-19 -1.90994 -2.52039)
(9.4354e-24 15.9183 29.4327)
(-7.91968e-22 18.0842 29.1687)
(-6.59136e-22 14.9143 27.7875)
(-5.94835e-22 15.4817 25.3802)
(-6.16032e-22 13.4408 24.4144)
(2.37547e-21 13.3373 22.3978)
(4.63113e-21 11.7897 21.0521)
(4.7718e-21 11.4821 19.4269)
(5.00035e-21 10.3435 18.2635)
(5.25794e-21 9.86397 16.7891)
(4.60883e-21 8.8212 15.4013)
(2.34999e-21 8.03443 13.7368)
(-1.22705e-21 6.90205 12.0015)
(-4.99964e-21 5.84835 10.1366)
(-5.47823e-21 4.61115 8.19034)
(1.65174e-21 3.13936 5.82497)
(-9.40129e-20 0.964789 2.1713)
(-5.20043e-19 -0.993454 -0.878325)
(-9.11058e-19 -0.96151 -0.993023)
(-1.73496e-18 0.105098 0.530443)
(-2.70442e-24 15.8639 29.7235)
(1.85943e-22 18.0241 28.6849)
(1.49582e-22 14.7048 27.6784)
(1.3179e-22 15.5203 24.9651)
(1.75736e-22 13.1302 24.0358)
(-3.42342e-22 13.3374 22.2349)
(-4.64258e-22 11.7562 21.1283)
(-1.62434e-22 11.4341 19.4009)
(-1.36937e-22 10.137 18.0561)
(-7.27266e-22 9.56671 16.6084)
(-2.04185e-21 8.54296 15.2003)
(-3.96464e-21 7.63232 13.4969)
(-5.96874e-21 6.49496 11.6189)
(-7.46048e-21 5.39298 9.59243)
(-8.33849e-21 4.18505 7.52234)
(-4.53032e-21 2.90859 5.27997)
(-2.13855e-20 1.22404 2.46163)
(-1.49487e-19 -0.0210014 -0.028121)
(-7.43984e-19 -0.112814 -0.540832)
(-9.11992e-19 0.72226 2.04949)
(9.56534e-25 15.8844 30.1975)
(-4.42258e-23 18.4091 28.8683)
(-4.08994e-23 14.8316 27.9467)
(-3.55186e-23 15.8503 25.1313)
(-6.5839e-24 13.3886 24.2365)
(2.36971e-22 13.497 21.9955)
(4.99201e-22 11.9301 20.7504)
(7.32179e-22 11.4559 19.0712)
(9.9428e-22 10.4375 17.7128)
(1.18791e-21 9.73347 16.2584)
(1.2248e-21 8.91248 14.8893)
(1.11335e-21 8.16831 13.5277)
(9.6515e-22 7.42866 12.1595)
(-5.07774e-22 6.55664 10.4877)
(-3.35153e-21 5.23271 8.10942)
(-4.95235e-21 3.90096 5.63292)
(-8.40494e-21 2.51923 3.24473)
(-2.03103e-20 1.54669 1.33365)
(-1.63535e-21 0.341175 -0.619609)
(-4.19392e-19 -0.41386 -2.04852)
(-1.47554e-25 15.988 31.0677)
(9.219e-24 18.7759 29.0808)
(4.29474e-24 14.9563 28.4051)
(6.25376e-24 16.1302 25.6335)
(4.23606e-23 13.7608 24.7465)
(1.07094e-22 13.8428 22.7073)
(2.49507e-22 12.5355 21.4663)
(4.51459e-22 12.0459 19.8821)
(6.45522e-22 11.2169 18.5439)
(8.1026e-22 10.5851 17.1587)
(9.49821e-22 9.91249 15.8307)
(9.80128e-22 9.2602 14.4782)
(5.20547e-22 8.54301 13.0319)
(-1.01347e-21 7.65467 11.3294)
(-4.63875e-21 6.42453 9.15062)
(-1.1431e-20 4.74159 6.36058)
(-1.34282e-20 2.91511 3.76169)
(-2.13815e-20 1.17289 1.1287)
(7.31774e-20 -1.0307 -1.62226)
(-2.94116e-19 -1.85719 -5.05956)
(1.45292e-25 15.6537 31.3765)
(-3.39809e-24 18.5546 28.5414)
(-6.2568e-24 14.4938 28.2867)
(-1.66867e-24 15.6983 25.6213)
(3.69291e-23 13.3727 24.7487)
(1.45659e-22 13.3095 22.8676)
(3.13166e-22 12.061 21.6691)
(5.03054e-22 11.5194 20.2093)
(6.65852e-22 10.6947 18.9645)
(7.59525e-22 10.0637 17.6788)
(7.14427e-22 9.37518 16.4329)
(2.52024e-22 8.69137 15.1031)
(-1.43382e-21 7.84633 13.5203)
(-6.05012e-21 6.57435 11.2261)
(-1.65458e-20 4.44565 7.62407)
(-3.75553e-20 1.48282 2.72551)
(-4.06691e-20 -0.891591 -0.678136)
(4.07223e-21 -0.591599 -0.781349)
(-5.86971e-20 -2.73545 -3.35685)
(-2.88333e-19 -2.68844 -5.82393)
(7.96469e-26 14.3677 30.6976)
(-1.86126e-25 18.0394 27.7136)
(-3.07748e-24 13.461 27.6324)
(-3.24619e-25 14.3541 25.2901)
(2.84747e-23 12.2776 24.3594)
(1.04417e-22 11.8079 22.7777)
(2.30514e-22 10.6922 21.5774)
(3.82977e-22 9.95137 20.2755)
(5.3119e-22 9.1318 19.0783)
(6.49559e-22 8.41123 17.8849)
(6.19544e-22 7.69419 16.703)
(-1.01529e-23 6.96061 15.4293)
(-2.28823e-21 6.04925 13.8052)
(-8.06713e-21 4.65929 11.2743)
(-2.08311e-20 2.5467 7.32092)
(-4.71795e-20 0.179374 2.5428)
(-9.28227e-20 -1.41039 -1.04979)
(-1.50964e-19 -2.15029 -2.80617)
(-2.10765e-19 -2.7779 -3.89573)
(-2.36825e-19 -2.11276 -3.4327)
(5.69424e-26 11.2734 28.4504)
(-3.43886e-25 16.9121 24.9208)
(-2.07497e-24 11.9516 25.3386)
(-3.75503e-24 12.5835 23.6308)
(3.63966e-24 10.8296 22.8963)
(3.27749e-23 10.1455 21.812)
(8.97397e-23 9.1249 20.9008)
(1.70969e-22 8.31978 19.9511)
(2.69096e-22 7.51298 19.0393)
(3.67808e-22 6.78258 18.1299)
(3.8846e-22 6.0883 17.2201)
(1.35935e-22 5.42778 16.2774)
(-6.05237e-22 4.78148 15.2619)
(-1.8199e-21 4.14634 14.1029)
(-3.36977e-21 3.53305 12.6612)
(-6.19878e-21 2.93772 10.7709)
(-1.4179e-20 2.30809 8.3846)
(-3.3824e-20 1.52747 5.40212)
(-6.60726e-20 0.299284 1.62131)
(-7.05221e-20 -0.887145 -1.46709)
(3.97628e-26 2.63782 17.0205)
(3.0474e-26 8.0643 13.6453)
(-4.75807e-25 5.17768 14.5143)
(-1.91069e-24 5.00807 14.1103)
(-3.8413e-24 4.0855 14.0684)
(-4.64712e-24 3.52736 13.8885)
(-3.05338e-24 2.95612 13.7251)
(2.60198e-25 2.49121 13.5288)
(7.33493e-24 2.08947 13.3153)
(3.85514e-23 1.76444 13.0825)
(1.48268e-22 1.51376 12.836)
(4.06827e-22 1.34207 12.5798)
(8.26183e-22 1.2495 12.3149)
(1.28536e-21 1.24071 12.0288)
(1.58938e-21 1.32483 11.693)
(1.69628e-21 1.46698 11.2955)
(1.83979e-21 1.68931 10.7822)
(2.15888e-21 2.27907 9.86128)
(2.07216e-21 2.45998 8.47762)
(7.4012e-22 -0.246341 6.37797)
(-7.4912e-27 -2.66126 17.0798)
(-3.10873e-26 -8.08078 13.7003)
(-3.133e-26 -5.1897 14.5654)
(1.28523e-26 -5.01792 14.16)
(2.2986e-25 -4.09819 14.1171)
(8.94254e-25 -3.54644 13.9381)
(2.27955e-24 -2.98664 13.7792)
(4.14746e-24 -2.53756 13.5923)
(5.0186e-24 -2.15394 13.3921)
(1.71653e-24 -1.84393 13.1701)
(-1.04555e-23 -1.5973 12.922)
(-3.59928e-23 -1.41178 12.6422)
(-7.53074e-23 -1.28657 12.3286)
(-1.19996e-22 -1.23255 11.9746)
(-1.49999e-22 -1.2667 11.5707)
(-1.32659e-22 -1.36047 11.1335)
(-2.64595e-23 -1.52934 10.6294)
(1.68247e-22 -2.01176 9.74723)
(2.52707e-22 -2.08822 8.30337)
(-5.29824e-23 0.314388 5.96955)
(4.3806e-28 -11.1987 28.4324)
(8.52876e-26 -16.9946 24.797)
(1.27737e-26 -11.9656 25.2131)
(-1.46202e-25 -12.6874 23.4348)
(4.0702e-25 -10.944 22.6591)
(3.53863e-24 -10.3113 21.5229)
(1.01794e-23 -9.33437 20.5735)
(1.71897e-23 -8.589 19.5988)
(1.82192e-23 -7.85261 18.6838)
(6.66734e-24 -7.213 17.8006)
(-2.03374e-23 -6.63969 16.9543)
(-5.62836e-23 -6.13912 16.1024)
(-7.59742e-23 -5.68399 15.1766)
(-2.47433e-23 -5.25115 14.1124)
(1.74566e-22 -4.82708 12.8826)
(4.93107e-22 -4.34569 11.4497)
(1.92354e-22 -3.5913 9.55552)
(-3.58235e-21 -2.18377 6.25033)
(-1.52997e-20 0.367691 0.441789)
(-2.76594e-20 2.24844 -4.43235)
(-6.52635e-27 -14.1025 30.1578)
(-3.47344e-25 -17.8004 27.1291)
(-6.43402e-25 -13.1677 27.0361)
(-1.02146e-24 -14.0971 24.6212)
(1.38731e-24 -11.984 23.6659)
(1.06082e-23 -11.5158 22.0422)
(2.2616e-23 -10.3814 20.8294)
(2.90844e-23 -9.63342 19.5227)
(1.93403e-23 -8.78891 18.3221)
(-9.29774e-25 -8.00607 17.0612)
(2.50242e-23 -7.14947 15.6543)
(2.27106e-22 -6.22797 13.9739)
(7.44331e-22 -5.30049 12.0479)
(1.53533e-21 -4.53275 10.0925)
(2.2273e-21 -4.0393 8.42269)
(2.33439e-21 -3.79736 7.15026)
(1.60661e-21 -3.51825 5.82655)
(9.56188e-22 -2.7369 3.68046)
(-3.30257e-20 -0.576392 -0.613615)
(-5.32856e-20 -0.385839 -0.7067)
(-2.10413e-26 -15.4615 30.7539)