/*--------------------------------*- C++ -*----------------------------------*\
| =========                 |                                                 |
| \\      /  F ield         | OpenFOAM: The Open Source CFD Toolbox           |
|  \\    /   O peration     | Version:  4.1                                   |
|   \\  /    A nd           | Web:      www.OpenFOAM.org                      |
|    \\/     M anipulation  |                                                 |
\*---------------------------------------------------------------------------*/
FoamFile
{
    version     2.0;
    format      ascii;
    class       volScalarField;
    location    "3";
    object      epsilon;
}
// * * * * * * * * * * * * * * * * * * * * * * * * * * * * * * * * * * * * * //

dimensions      [0 2 -3 0 0 0 0];

internalField   nonuniform List<scalar> 
1280
(
7.04768e-05
3.55704e-05
7.15667e-05
7.26026e-05
3.44646e-05
6.50927e-05
6.8713e-05
6.9745e-05
3.47918e-05
6.3571e-05
6.45875e-05
3.68713e-05
6.60692e-05
6.62836e-05
3.71498e-05
6.68171e-05
7.17772e-05
7.39314e-05
0.000128161
0.000137329
0.03349
0.0565236
0.0567928
0.0568524
0.0581775
0.0553806
0.026227
0.0249772
0.0223646
0.0195972
0.0172183
0.0152689
0.0135128
0.0121141
0.010938
0.0100296
0.0090729
0.0085201
0.00760847
0.00883126
0.000163368
0.00029003
0.000297736
0.000319092
0.000262648
0.000975271
0.00120507
0.00141215
0.000979214
0.00151241
0.00151447
0.00098218
0.00132605
0.00109429
0.000873125
0.000246604
0.00030785
0.000289278
0.000282641
0.000156956
0.00868334
0.00742695
0.00834785
0.00880077
0.00978655
0.0106223
0.0118306
0.0132022
0.0149488
0.0169088
0.0189994
0.0218012
0.0241692
0.0255117
0.0539099
0.0567844
0.0567073
0.0574479
0.0573262
0.0321371
0.000128886
0.000119714
6.87823e-05
6.52454e-05
6.03626e-05
3.32571e-05
6.04902e-05
6.02749e-05
3.338e-05
5.89715e-05
5.81134e-05
3.15337e-05
6.4181e-05
6.36964e-05
6.03871e-05
3.14381e-05
6.51205e-05
6.49635e-05
3.15588e-05
6.31645e-05
0.000233615
0.000338859
0.000447212
0.000640899
0.000888183
0.00118043
0.001369
0.00145134
0.00139662
0.00135448
0.00142121
0.00131914
0.000341398
0.000208298
0.000135533
0.000103978
8.39927e-05
5.61982e-05
4.01487e-05
0.000255894
0.000363026
0.000476955
0.000676433
0.000928124
0.00121664
0.0013469
0.00136088
0.00130335
0.00130038
0.00152262
0.00172101
0.000420989
0.000204541
0.000136857
0.000107226
8.50752e-05
5.91282e-05
4.18841e-05
0.000262735
0.000378559
0.000491457
0.000680189
0.000898215
0.00104204
0.00115357
0.00113584
0.00111097
0.00112443
0.00109391
0.000927925
0.00103538
0.000194894
0.000126675
0.000109445
9.8515e-05
6.29518e-05
5.27331e-05
0.000274177
0.00039678
0.000511377
0.000697685
0.00086686
0.00101081
0.00106438
0.00118707
0.0014921
0.00168673
0.00165698
0.000767703
0.000550585
0.000197573
0.00012055
0.000128902
0.000112375
7.34947e-05
6.29853e-05
0.000278932
0.000395994
0.000486515
0.000648615
0.000787074
0.000887693
0.00101544
0.00132863
0.00185219
0.00220268
0.00221661
0.00136013
0.000381815
0.000256053
0.000124784
0.00012692
0.00014355
0.000104874
0.000152836
0.00028031
0.000393912
0.000471286
0.000605295
0.000699535
0.00082282
0.00105034
0.00148439
0.00193908
0.00258203
0.00294247
0.00206986
0.000567851
0.000217923
0.000150298
0.000204642
0.000604348
0.000561479
0.000960036
0.000274808
0.000369261
0.000440185
0.000551323
0.000649803
0.000809041
0.00112396
0.00154478
0.00215084
0.00297385
0.00318284
0.00253296
0.00152196
0.000495694
0.000313682
0.000654587
0.00422748
0.0048194
0.0142033
0.000268062
0.000353122
0.000408734
0.00051776
0.00062563
0.000820826
0.00117594
0.00162391
0.00235668
0.00266719
0.00275762
0.00278713
0.00296012
0.00360355
0.00382736
0.00677864
0.00960036
0.00469768
0.00415997
0.000257604
0.000337093
0.000388516
0.000504281
0.000631858
0.000877053
0.00132867
0.0019003
0.00215694
0.0022488
0.00230317
0.00235057
0.00242702
0.0027618
0.00339412
0.00350618
0.00269716
0.00200505
0.00161657
0.000250639
0.000328096
0.000379684
0.000512781
0.000680392
0.00100491
0.00165518
0.0019535
0.00204986
0.00215279
0.00265435
0.00288226
0.00312648
0.0031886
0.00379917
0.00454179
0.00585281
0.00677919
0.00660213
0.00024398
0.000319261
0.00037172
0.000504432
0.000672085
0.000991105
0.00162298
0.0019636
0.00204648
0.00210835
0.00261609
0.00285111
0.00310909
0.00335958
0.00406943
0.00482552
0.00604447
0.00702934
0.00670026
0.00024719
0.000325284
0.000377874
0.00049452
0.000623529
0.000861126
0.00128848
0.00192159
0.00216895
0.00223675
0.00232264
0.00232373
0.00245862
0.00290196
0.0036375
0.00379126
0.0028069
0.00239355
0.00164807
0.000257074
0.000342062
0.000402791
0.000517174
0.000629661
0.000822656
0.00117388
0.00162992
0.00253584
0.00289269
0.00299542
0.00301138
0.00319127
0.00425911
0.00450239
0.00722144
0.0099319
0.00497261
0.00439383
0.000268089
0.000364828
0.000441833
0.000565008
0.000674396
0.000837471
0.0011481
0.00158912
0.00224307
0.00340502
0.00371732
0.00290487
0.00178977
0.000668992
0.000477214
0.000654613
0.00440958
0.00457184
0.0148396
0.000270054
0.00037841
0.000478287
0.000629275
0.000737812
0.000872714
0.00110679
0.00156791
0.00208576
0.00288838
0.00347621
0.0026207
0.000712375
0.000328108
0.000146315
0.000209124
0.000375353
0.000657334
0.000886485
0.000279271
0.000402671
0.000500717
0.00067718
0.000834712
0.000966948
0.00109858
0.00143525
0.00202559
0.00255794
0.00269658
0.00178899
0.000409971
0.000334047
0.000141604
0.000138189
0.000161591
0.000118091
0.000167975
0.000271464
0.000405152
0.00054225
0.000755253
0.000979481
0.00111461
0.00119658
0.0013475
0.0017238
0.00206213
0.00208716
0.00101176
0.000539486
0.000255427
0.000132594
0.00013656
0.000126717
6.77874e-05
5.34096e-05
0.000262893
0.000394202
0.000519371
0.000724981
0.00100244
0.00120545
0.00130736
0.00131363
0.00131389
0.00138507
0.0013989
0.00119892
0.00146994
0.000236619
0.000143224
0.000122095
0.000101609
6.46966e-05
5.22884e-05
0.000258917
0.000362243
0.000484282
0.000699111
0.00103093
0.00137779
0.00155615
0.00158371
0.00153634
0.00155877
0.00184106
0.00206724
0.00044592
0.00023867
0.000152736
0.00011389
9.4251e-05
6.25265e-05
4.24936e-05
0.000240637
0.000354307
0.00047365
0.000688499
0.000990368
0.00134833
0.00161751
0.00171099
0.00166807
0.00162508
0.00172782
0.00173718
0.000441842
0.00024494
0.000152135
0.000111231
8.81832e-05
5.76107e-05
4.09399e-05
0.335065
0.280664
0.15524
0.158837
0.131732
0.0786154
0.041827
0.0170312
0.00360421
0.000942002
0.000147476
0.000169355
0.000123785
0.000110083
9.86062e-05
9.05594e-05
8.15852e-05
0.000220197
0.000719196
0.0374143
0.355391
0.284815
0.156636
0.194497
0.145298
0.0679779
0.0216407
0.00629833
0.00257386
0.000784179
0.000255762
0.000125106
0.000108167
5.73942e-05
1.66633e-05
2.15997e-05
4.58364e-06
9.45369e-06
0.000735032
0.026526
0.386867
0.321236
0.166379
0.214122
0.15335
0.0635827
0.0208522
0.00608688
0.00183891
0.00051867
0.000177197
4.99376e-05
1.52774e-06
6.23557e-06
3.32637e-06
8.9582e-07
6.79113e-07
3.25753e-06
0.000701669
0.0177366
0.412333
0.311096
0.150786
0.203361
0.111263
0.0262199
0.00552414
0.00140492
0.000453406
0.00027734
0.000125259
5.22831e-05
2.46967e-05
7.75711e-06
2.91995e-06
1.4628e-06
7.04451e-07
4.13003e-06
0.000723039
0.0110582
0.447696
0.255935
0.111207
0.120259
0.0523292
0.0162032
0.00514202
0.00156843
0.000602156
0.000255598
0.000103585
3.57715e-05
1.09664e-05
4.92068e-06
2.09885e-06
8.40309e-07
6.07038e-07
3.86799e-06
0.000775563
0.00652345
0.489904
0.234347
0.0654735
0.0498202
0.0193329
0.00640514
0.00220205
0.0011714
0.000523252
0.000219249
7.62447e-05
2.73138e-05
1.08495e-05
4.23204e-06
1.72993e-06
8.33362e-07
6.07448e-07
4.20443e-06
0.000846319
0.00358451
0.534769
0.222748
0.0460404
0.0293659
0.0130542
0.00539716
0.00246379
0.000892987
0.000304907
9.99507e-05
3.67343e-05
1.40034e-05
5.38319e-06
2.2692e-06
1.05941e-06
5.83657e-07
6.1496e-07
4.35285e-06
0.000979492
0.00186472
0.571543
0.242101
0.0321052
0.0135202
0.00588219
0.00266242
0.00101094
0.000376995
0.000132911
5.08688e-05
1.96345e-05
8.06411e-06
3.33729e-06
1.5592e-06
7.86677e-07
6.26047e-07
5.27294e-07
5.0797e-06
0.0011961
0.000951571
0.597403
0.272224
0.0330436
0.0106139
0.00358305
0.00121548
0.000422839
0.000143412
4.58234e-05
1.51928e-05
5.92092e-06
2.73008e-06
1.23244e-06
8.56577e-07
6.16197e-07
7.44661e-07
6.72963e-07
7.86083e-06
0.00144685
0.000505071
0.617919
0.276712
0.0273088
0.00576365
0.00123349
0.000250977
5.46257e-05
9.68262e-06
5.34522e-06
2.98358e-06
1.57308e-06
8.70567e-07
4.83975e-07
6.43942e-07
6.56844e-07
7.22791e-07
8.3974e-07
1.42651e-05
0.00183238
0.00029269
0.641573
0.226548
0.0204166
0.0030293
0.000566136
0.000111044
2.74494e-05
7.04871e-06
4.69652e-06
2.43514e-06
9.56314e-07
3.19335e-07
3.38204e-07
5.7685e-07
4.97849e-07
8.7742e-07
1.15464e-06
3.08243e-05
0.00238718
0.00019173
0.666393
0.162797
0.0134437
0.00118144
7.55625e-05
1.79159e-05
1.12961e-06
1.99015e-06
6.25725e-07
1.23718e-07
4.42893e-08
1.61108e-08
1.31825e-07
3.41339e-07
1.51233e-07
1.22564e-06
1.35058e-06
7.80937e-05
0.00332331
0.000192703
0.675347
0.115853
0.00769758
0.000617313
4.97617e-05
1.55598e-05
5.18049e-06
6.90254e-07
1.17435e-07
6.26493e-08
2.98328e-08
1.87379e-08
5.1049e-08
6.80813e-08
4.68614e-08
2.84557e-06
3.03569e-06
0.000144558
0.00464072
0.000265822
0.646895
0.0805843
0.00398243
0.000120791
1.53941e-05
3.43289e-06
1.21003e-07
2.65385e-08
4.07285e-08
7.11084e-09
3.86933e-09
8.63063e-09
1.60156e-08
6.65522e-08
3.68468e-08
1.6655e-05
9.07416e-06
0.000169284
0.00522798
0.000401396
0.574738
0.0530289
0.00147188
5.38073e-05
2.23175e-06
5.65336e-07
2.08884e-07
1.29884e-07
4.15182e-08
1.24807e-08
2.6443e-09
1.77036e-08
3.32758e-08
1.22423e-07
1.4725e-06
5.96042e-05
3.02356e-05
0.0001325
0.00327844
0.00052222
0.469995
0.0240868
0.000480491
1.43474e-05
5.2854e-07
2.33395e-07
4.44157e-08
5.96134e-08
4.56839e-08
1.44006e-08
2.64277e-09
4.68712e-08
1.46684e-07
4.41503e-06
0.000128161
0.000300904
0.000125195
0.000245932
0.00300436
0.000718482
0.353813
0.00873856
1.25801e-05
3.15075e-07
6.49353e-08
3.60076e-07
9.69944e-08
1.09547e-07
1.2973e-07
7.88401e-08
6.70772e-08
2.80358e-06
1.00279e-05
0.000673948
0.00121122
0.0013151
0.000239995
0.000315735
0.00339633
0.00140848
0.247108
0.0127789
2.10792e-05
9.25333e-06
8.64401e-06
7.92264e-06
7.34035e-06
6.74425e-06
6.2148e-06
5.71962e-06
6.23736e-06
8.54925e-05
0.000535154
0.00140732
0.0022987
0.00229744
0.00200993
0.00196475
0.00240044
0.00201092
0.193358
0.0275822
0.00126623
0.0011932
0.00116001
0.00111533
0.00107737
0.00103784
0.00100194
0.000966256
0.000931015
0.000891564
0.000843347
0.000784265
0.000716086
0.000790213
0.0017602
0.00666833
0.0185439
0.028215
0.164325
0.743177
0.726441
0.727071
0.726901
0.727122
0.727006
0.726765
0.726883
0.726882
0.726955
0.726812
0.726559
0.726835
0.726952
0.726936
0.726567
0.714723
0.783991
0.169991
0.164331
0.743147
0.726434
0.727092
0.726803
0.726955
0.726978
0.726966
0.726932
0.727062
0.726832
0.726593
0.726892
0.726936
0.726948
0.726963
0.726589
0.714723
0.78398
0.169997
0.193366
0.0267948
0.00126585
0.00119272
0.00115876
0.00111368
0.00107647
0.00103777
0.0010012
0.00096617
0.000929442
0.000889538
0.000843133
0.000783891
0.000715772
0.000793223
0.00174932
0.00669992
0.0186097
0.0283554
0.24707
0.0115911
1.68126e-05
9.23242e-06
8.66392e-06
7.91954e-06
7.32497e-06
6.73511e-06
6.20424e-06
5.73336e-06
7.71466e-06
0.000151562
0.000593474
0.00165888
0.00260657
0.0025411
0.00217913
0.00219689
0.00270462
0.00221955
0.353793
0.00805444
1.00134e-05
1.61736e-07
8.54339e-08
9.38257e-08
1.63855e-07
8.17357e-08
6.67378e-08
5.88964e-08
6.33569e-08
4.11664e-06
2.00118e-05
0.000645786
0.00122358
0.00145929
0.000218345
0.000310927
0.00370916
0.00157482
0.470033
0.0230481
0.000366423
2.27354e-05
2.51403e-07
7.27214e-08
9.56173e-08
5.8716e-08
2.90083e-08
7.89009e-09
9.9649e-10
4.15924e-08
1.18138e-07
5.42445e-06
0.000286797
0.000390514
0.000281717
0.000149333
0.0032244
0.000809294
0.574837
0.0528509
0.0013639
3.32249e-05
5.85888e-06
2.26853e-07
4.22774e-08
4.51277e-08
2.68324e-08
9.5882e-09
4.1225e-10
2.15675e-08
9.18696e-09
1.2235e-05
6.07138e-05
0.000110868
8.9859e-05
0.000103291
0.00361764
0.000594905
0.647062
0.0807363
0.00391608
0.000274414
1.74372e-05
2.86717e-06
2.56213e-07
8.7714e-08
5.01116e-08
2.21544e-08
7.49915e-09
1.19788e-08
2.43313e-08
2.16744e-06
1.0841e-05
2.5675e-05
6.77848e-06
0.000105048
0.00596005
0.000464974
0.675565
0.115363
0.00752083
0.000455931
3.01981e-05
3.29838e-08
2.2695e-07
9.88064e-08
6.47973e-08
3.64652e-08
1.50461e-08
1.29732e-08
3.28147e-08
7.41269e-07
3.68051e-06
1.47587e-05
1.12037e-06
9.02177e-05
0.00530632
0.000310104
0.666626
0.163654
0.0136058
0.00141576
0.000184712
2.6236e-05
4.66074e-06
1.09079e-06
3.42617e-07
1.3267e-07
5.83564e-08
2.38484e-08
2.43476e-08
2.33746e-08
1.57842e-06
7.1226e-06
3.63875e-06
4.81011e-05
0.00378559
0.000230791
0.641722
0.224639
0.0200887
0.00268087
0.00039092
5.74915e-05
1.21491e-05
3.24909e-06
9.63287e-07
3.91101e-07
1.5747e-07
7.44436e-08
3.53705e-08
4.57548e-08
9.4784e-07
2.33403e-06
2.85846e-06
2.29261e-05
0.00271526
0.000229941
0.618004
0.279217
0.0288079
0.00612958
0.00130422
0.000324752
8.01607e-05
2.02594e-05
6.04282e-06
1.75117e-06
6.41519e-07
2.38556e-07
1.25968e-07
1.18497e-07
4.50955e-07
7.00942e-07
1.63819e-06
1.25622e-05
0.00208046
0.000347646
0.597231
0.273626
0.0305669
0.00974994
0.00303781
0.000825283
0.000238473
7.21268e-05
2.16549e-05
7.34063e-06
2.39198e-06
8.87625e-07
3.22448e-07
1.06157e-07
2.66374e-07
4.46182e-07
7.90421e-07
7.56349e-06
0.00165562
0.000590057
0.571098
0.239339
0.0376484
0.0169643
0.00632945
0.00219722
0.000723545
0.000212893
6.35798e-05
1.86846e-05
6.22785e-06
2.04973e-06
8.82301e-07
3.73883e-07
2.34204e-07
3.21989e-07
6.12431e-07
5.12591e-06
0.00137369
0.0010881
0.534344
0.226167
0.0430601
0.0230746
0.0097242
0.0039219
0.00146093
0.000540706
0.000194499
6.21432e-05
1.85614e-05
5.80814e-06
1.66259e-06
6.90035e-07
2.97649e-07
2.52517e-07
5.24747e-07
4.35383e-06
0.00113614
0.00208398
0.489592
0.236387
0.0668862
0.0559294
0.0225679
0.00734815
0.00247362
0.000875798
0.000289526
0.000102886
3.52577e-05
1.11833e-05
3.63351e-06
1.07337e-06
5.10157e-07
3.00698e-07
4.28153e-07
3.82479e-06
0.00097806
0.0039245
0.447491
0.255512
0.107715
0.110098
0.0395688
0.0108471
0.00291049
0.00087732
0.000439794
0.000140374
4.69233e-05
1.88291e-05
4.7123e-06
1.9519e-06
6.25763e-07
3.38813e-07
3.92103e-07
4.29273e-06
0.000902537
0.00701861
0.412027
0.323874
0.145205
0.193209
0.105494
0.0254412
0.00787808
0.00262342
0.000710433
0.00023642
6.2609e-05
2.65673e-05
9.06269e-06
1.34245e-06
9.4347e-07
4.24329e-07
4.25928e-07
4.35563e-06
0.000823339
0.0117209
0.386267
0.326608
0.15907
0.205318
0.147038
0.0582577
0.0164834
0.00448246
0.00113807
0.000345149
9.68161e-05
3.64266e-05
1.66726e-05
6.42003e-06
1.50645e-06
5.24873e-07
4.18265e-07
4.60668e-06
0.000812252
0.0185501
0.354602
0.284921
0.150394
0.186821
0.139405
0.0615078
0.0250641
0.00663293
0.00168556
0.00066737
0.000174304
8.22107e-05
9.69505e-05
6.49509e-05
5.28211e-05
5.66615e-05
2.85017e-05
5.55358e-06
0.000818482
0.0274568
0.333878
0.282383
0.150783
0.153444
0.127809
0.0764658
0.0378423
0.0154867
0.00404215
0.000991955
0.000155769
0.000136099
0.000120743
0.000107707
9.6583e-05
8.91636e-05
8.3206e-05
1.76846e-05
0.000848135
0.0384436
)
;

boundaryField
{
    outletWall
    {
        type            zeroGradient;
    }
    fineWalls
    {
        Cmu             0.09;
        kappa           0.41;
        E               9.8;
        type            epsilonWallFunction;
        value           nonuniform List<scalar> 
60
(
0.000137329
0.000128161
7.39314e-05
7.17772e-05
6.68171e-05
3.71498e-05
6.62836e-05
6.60692e-05
3.68713e-05
6.45875e-05
6.3571e-05
3.47918e-05
6.9745e-05
6.8713e-05
6.50927e-05
3.44646e-05
7.26026e-05
7.15667e-05
3.55704e-05
7.04768e-05
0.000156956
0.000282641
0.000289278
0.00030785
0.000246604
0.000873125
0.00109429
0.00132605
0.00098218
0.00151447
0.00151241
0.000979214
0.00141215
0.00120507
0.000975271
0.000262648
0.000319092
0.000297736
0.00029003
0.000163368
6.31645e-05
3.15588e-05
6.49635e-05
6.51205e-05
3.14381e-05
6.03871e-05
6.36964e-05
6.4181e-05
3.15337e-05
5.81134e-05
5.89715e-05
3.338e-05
6.02749e-05
6.04902e-05
3.32571e-05
6.03626e-05
6.52454e-05
6.87823e-05
0.000119714
0.000128886
)
;
    }
    fineFrontAndBack
    {
        type            zeroGradient;
    }
    fineplugLeft
    {
        type            cyclicAMI;
        value           nonuniform List<scalar> 
20
(
0.0316977
0.00209705
0.00167787
0.00162281
0.00178713
0.0021455
0.00239771
0.00260134
0.00294261
0.00356164
0.00387847
0.00735629
0.0186204
0.0400531
0.0739685
0.117021
0.13844
0.135551
0.235836
0.27475
)
;
    }
    fineplugRight
    {
        type            cyclicAMI;
        value           nonuniform List<scalar> 
20
(
0.0324915
0.0021639
0.00168372
0.00175568
0.00187444
0.00208239
0.00232116
0.0025979
0.00284756
0.00247335
0.0035754
0.00759397
0.0172232
0.0364402
0.0719546
0.113604
0.134097
0.132116
0.237371
0.273529
)
;
    }
    inletOutletLeft
    {
        type            cyclicAMI;
        value           nonuniform List<scalar> 
20
(
0.0316977
0.00209705
0.00167787
0.00162281
0.00178713
0.0021455
0.00239771
0.00260134
0.00294261
0.00356164
0.00387847
0.00735629
0.0186204
0.0400531
0.0739685
0.117021
0.13844
0.135551
0.235836
0.27475
)
;
    }
    inletLeft
    {
        type            fixedValue;
        value           uniform 2180.89;
    }
    inletWallsLeft
    {
        Cmu             0.09;
        kappa           0.41;
        E               9.8;
        type            epsilonWallFunction;
        value           nonuniform List<scalar> 
40
(
0.164325
0.193358
0.247108
0.353813
0.469995
0.574738
0.646895
0.675347
0.666393
0.641573
0.617919
0.597403
0.571543
0.534769
0.489904
0.447696
0.412333
0.386867
0.355391
0.335065
0.0374143
0.026526
0.0177366
0.0110582
0.00652345
0.00358451
0.00186472
0.000951571
0.000505071
0.00029269
0.00019173
0.000192703
0.000265822
0.000401396
0.00052222
0.000718482
0.00140848
0.00201092
0.028215
0.169991
)
;
    }
    inletFacesLeft
    {
        type            zeroGradient;
    }
    inletOutletRight
    {
        type            cyclicAMI;
        value           nonuniform List<scalar> 
20
(
0.0324915
0.0021639
0.00168372
0.00175568
0.00187444
0.00208239
0.00232116
0.0025979
0.00284756
0.00247335
0.0035754
0.00759397
0.0172232
0.0364402
0.0719546
0.113604
0.134097
0.132116
0.237371
0.273529
)
;
    }
    inletRight
    {
        type            fixedValue;
        value           uniform 2180.89;
    }
    inletWallsRight
    {
        Cmu             0.09;
        kappa           0.41;
        E               9.8;
        type            epsilonWallFunction;
        value           nonuniform List<scalar> 
40
(
0.333878
0.354602
0.386267
0.412027
0.447491
0.489592
0.534344
0.571098
0.597231
0.618004
0.641722
0.666626
0.675565
0.647062
0.574837
0.470033
0.353793
0.24707
0.193366
0.164331
0.169997
0.0283554
0.00221955
0.00157482
0.000809294
0.000594905
0.000464974
0.000310104
0.000230791
0.000229941
0.000347646
0.000590057
0.0010881
0.00208398
0.0039245
0.00701861
0.0117209
0.0185501
0.0274568
0.0384436
)
;
    }
    inletFacesRight
    {
        type            zeroGradient;
    }
}


// ************************************************************************* //
