/*--------------------------------*- C++ -*----------------------------------*\
| =========                 |                                                 |
| \\      /  F ield         | OpenFOAM: The Open Source CFD Toolbox           |
|  \\    /   O peration     | Version:  4.1                                   |
|   \\  /    A nd           | Web:      www.OpenFOAM.org                      |
|    \\/     M anipulation  |                                                 |
\*---------------------------------------------------------------------------*/
FoamFile
{
    version     2.0;
    format      ascii;
    class       volScalarField;
    location    "3";
    object      k;
}
// * * * * * * * * * * * * * * * * * * * * * * * * * * * * * * * * * * * * * //

dimensions      [0 2 -2 0 0 0 0];

internalField   nonuniform List<scalar> 
1280
(
0.0335151
0.033298
0.0352788
0.0359588
0.0340857
0.0350949
0.036141
0.0365412
0.0348427
0.035466
0.0361795
0.0383797
0.0384446
0.0384309
0.0388469
0.0393673
0.0422327
0.0725917
0.0707938
0.0731371
0.150795
0.250689
0.302096
0.344789
0.355692
0.353621
0.241284
0.228268
0.213104
0.197446
0.181905
0.167639
0.155289
0.144347
0.134631
0.125828
0.11773
0.110533
0.104555
0.108318
0.1099
0.109885
0.111331
0.116768
0.152171
0.251136
0.290657
0.324434
0.376256
0.34162
0.341745
0.377545
0.314545
0.276959
0.238318
0.146887
0.113519
0.108385
0.106874
0.106827
0.105313
0.101214
0.106981
0.114007
0.121906
0.130513
0.140014
0.150742
0.162858
0.176816
0.191877
0.206611
0.220599
0.232527
0.340985
0.342552
0.331926
0.291946
0.244841
0.147569
0.0687786
0.0657934
0.0667821
0.0387569
0.0361026
0.035401
0.0353985
0.0353922
0.035061
0.033075
0.0325967
0.0317388
0.0336961
0.0335144
0.0323447
0.0308821
0.0326864
0.032831
0.0307148
0.0315403
0.113749
0.128376
0.146092
0.170457
0.202286
0.239892
0.275256
0.29487
0.298187
0.302492
0.323709
0.334851
0.190545
0.0963004
0.0592086
0.0607322
0.04651
0.0349462
0.0310005
0.116934
0.131431
0.149006
0.172569
0.202195
0.234848
0.261506
0.271951
0.272309
0.283322
0.320691
0.377856
0.234564
0.095081
0.0594364
0.0631614
0.049082
0.0375573
0.0306916
0.118072
0.132174
0.148608
0.169157
0.192127
0.212071
0.218999
0.214575
0.212946
0.224657
0.247977
0.285235
0.31269
0.0970161
0.0587326
0.06682
0.0523665
0.0400362
0.0293443
0.120101
0.133672
0.148443
0.164904
0.179713
0.186756
0.18472
0.183335
0.19497
0.218049
0.234287
0.232711
0.247716
0.104734
0.0581955
0.0718769
0.0614949
0.0474732
0.0395401
0.122554
0.135754
0.149126
0.161664
0.16945
0.171016
0.17354
0.188908
0.221213
0.263595
0.285898
0.25179
0.188559
0.119319
0.0624128
0.0809105
0.0853766
0.0625085
0.0352245
0.124224
0.136453
0.147813
0.157621
0.163887
0.170316
0.18559
0.218986
0.274082
0.334765
0.359438
0.312511
0.228227
0.143859
0.0795177
0.100594
0.150574
0.198956
0.154623
0.125637
0.137082
0.146714
0.156287
0.166134
0.180291
0.207166
0.258051
0.327621
0.385615
0.394859
0.35054
0.295072
0.233286
0.155299
0.179118
0.392733
0.696421
0.617362
0.125916
0.136989
0.146989
0.159072
0.173928
0.1954
0.234498
0.29637
0.353794
0.381642
0.370163
0.344585
0.339023
0.363558
0.358615
0.414747
0.519106
0.379852
0.263894
0.125049
0.136342
0.148191
0.164188
0.184731
0.214837
0.26489
0.323302
0.34528
0.333001
0.31719
0.304661
0.292412
0.292234
0.309463
0.303142
0.269812
0.259013
0.22884
0.121381
0.131971
0.144012
0.162505
0.19104
0.23946
0.310717
0.361667
0.354945
0.348131
0.36741
0.392565
0.393024
0.391036
0.409105
0.448768
0.515655
0.598889
0.581476
0.116507
0.125735
0.136383
0.153144
0.179611
0.22681
0.303695
0.362523
0.353943
0.342877
0.359505
0.383147
0.386873
0.393154
0.419634
0.459151
0.52263
0.607388
0.595692
0.120584
0.131017
0.142427
0.158248
0.178723
0.208395
0.261412
0.329259
0.357508
0.340358
0.316238
0.303167
0.29501
0.296992
0.315654
0.311554
0.278288
0.268969
0.241572
0.123994
0.134908
0.145357
0.158242
0.174091
0.195959
0.235794
0.304972
0.377872
0.422564
0.415332
0.385666
0.382014
0.417762
0.423728
0.459379
0.540057
0.395762
0.273972
0.126888
0.138992
0.15004
0.161166
0.172198
0.187438
0.214999
0.270214
0.35456
0.436336
0.465207
0.42185
0.36071
0.297767
0.196849
0.211133
0.426374
0.736288
0.647848
0.129451
0.143032
0.156186
0.16841
0.176624
0.183788
0.200253
0.236376
0.301404
0.383109
0.431014
0.388153
0.289417
0.187065
0.0993015
0.117012
0.177004
0.221921
0.171169
0.13048
0.145395
0.161734
0.17793
0.188552
0.191159
0.193846
0.210584
0.248777
0.304129
0.34428
0.314628
0.236613
0.157821
0.0752775
0.0926705
0.0991556
0.071246
0.0405469
0.131011
0.146144
0.163523
0.183589
0.202074
0.212588
0.210617
0.208428
0.222308
0.252323
0.278009
0.276292
0.270974
0.140286
0.0691853
0.0824332
0.069461
0.0529774
0.0441793
0.131591
0.147125
0.166548
0.191404
0.218972
0.243887
0.253897
0.248846
0.246631
0.261448
0.291123
0.336267
0.399599
0.127669
0.0697321
0.0768007
0.0585256
0.0438923
0.0327529
0.133207
0.149724
0.170443
0.198362
0.232315
0.271452
0.304432
0.317773
0.317967
0.330032
0.372668
0.439822
0.32206
0.122547
0.0707504
0.0723845
0.0544972
0.0406512
0.0333882
0.131384
0.148062
0.168846
0.197432
0.233693
0.277908
0.32032
0.344809
0.349587
0.355863
0.383811
0.410212
0.252673
0.122523
0.0704323
0.0692608
0.0514642
0.0375206
0.0335785
1.12257
1.25869
1.08389
1.1395
0.934566
0.682749
0.447432
0.264935
0.148421
0.0792751
0.0451204
0.0255656
0.0131549
0.0064533
0.00309085
0.00139455
0.000618094
0.000345096
0.0111984
0.24699
1.16574
1.25071
1.05167
1.19045
0.930713
0.604596
0.344572
0.176714
0.0828389
0.0375772
0.0178712
0.00888654
0.00485338
0.0027935
0.00157796
0.000861754
0.000486726
0.000452259
0.0105334
0.196162
1.23213
1.30909
1.04765
1.26698
0.953362
0.568867
0.285984
0.129063
0.0568028
0.0262837
0.0133643
0.00720165
0.00435121
0.00264172
0.00145911
0.000821136
0.000467652
0.00043994
0.00929116
0.149443
1.28445
1.24197
0.94271
1.17628
0.818068
0.428841
0.188347
0.0780847
0.034467
0.0172659
0.00982354
0.00592439
0.00357687
0.00212911
0.00123673
0.000711975
0.000417004
0.000414987
0.0082078
0.108649
1.35609
1.09114
0.771645
0.927496
0.576187
0.257718
0.102311
0.0444931
0.0230912
0.0135584
0.0084079
0.00521997
0.00317618
0.00188252
0.00108863
0.000628098
0.000373608
0.00040251
0.00734077
0.0760892
1.43851
0.911776
0.533869
0.545647
0.299837
0.135495
0.0632715
0.032769
0.0190218
0.0117093
0.00732679
0.00451845
0.00271947
0.00160022
0.000923059
0.000532872
0.000320723
0.000388732
0.00661709
0.0508699
1.52179
0.827408
0.323262
0.258707
0.148306
0.0802558
0.0443585
0.0258594
0.0157091
0.00968774
0.00595752
0.00361326
0.00215138
0.00125856
0.00072488
0.000419886
0.000255947
0.00037272
0.00607324
0.0329364
1.58761
0.819967
0.228933
0.147876
0.0905855
0.0530492
0.0311742
0.0184874
0.0111001
0.00669561
0.00403526
0.002415
0.00142923
0.0008362
0.000484706
0.000284648
0.000178301
0.000356541
0.00584712
0.0212225
1.63421
0.844116
0.198092
0.103857
0.0579661
0.0319774
0.0179621
0.0102918
0.00599335
0.00352677
0.00208784
0.00123788
0.000732645
0.000432105
0.000254617
0.000153922
0.000101425
0.000354434
0.00612012
0.0141686
1.67424
0.838887
0.176819
0.0733674
0.0333543
0.0156641
0.00779238
0.00412074
0.00227159
0.00128435
0.000742446
0.000436798
0.000260091
0.000156012
9.4664e-05
6.02592e-05
4.36269e-05
0.000391817
0.00671564
0.0101076
1.7215
0.746086
0.142717
0.0451101
0.0155017
0.00574584
0.00238871
0.00110503
0.00055106
0.000291914
0.000163113
9.52668e-05
5.72303e-05
3.49104e-05
2.19356e-05
1.5064e-05
1.33324e-05
0.000506657
0.00788761
0.00786725
1.76944
0.58377
0.0998926
0.0230246
0.00587886
0.00164036
0.000540565
0.000200969
8.65387e-05
4.1235e-05
2.15241e-05
1.22061e-05
7.15185e-06
4.087e-06
2.556e-06
2.55208e-06
4.41773e-06
0.000761454
0.00987967
0.00881604
1.78555
0.419038
0.0604796
0.0100053
0.00196153
0.000422257
0.000108793
3.28674e-05
1.26309e-05
5.06927e-06
2.27663e-06
1.1549e-06
5.22163e-07
2.07053e-07
1.94885e-07
2.81409e-06
5.87625e-06
0.00124864
0.0131529
0.0104309
1.73304
0.289736
0.0317132
0.00401429
0.000620021
0.000112232
2.60371e-05
6.78537e-06
2.03456e-06
7.01296e-07
2.77073e-07
1.15729e-07
2.5582e-08
1.2058e-08
2.38908e-07
1.45541e-05
1.49459e-05
0.00175498
0.0170505
0.0118713
1.59948
0.181836
0.0136966
0.00131002
0.000170732
2.71105e-05
5.43961e-06
1.20538e-06
3.17052e-07
9.61413e-08
3.40893e-08
7.8774e-09
1.85362e-09
2.44268e-08
3.99413e-06
0.000101452
5.81422e-05
0.00159096
0.0122589
0.0156579
1.39697
0.0880205
0.00348551
0.000207848
1.93533e-05
2.29219e-06
3.70227e-07
5.17441e-08
6.05217e-09
5.5698e-10
4.1444e-11
2.38316e-11
3.53647e-10
2.18682e-06
0.000252777
0.000559394
0.00021965
0.00127694
0.0109587
0.0202935
1.15433
0.0157847
4.1596e-06
1.63369e-09
5.87809e-10
7.29735e-10
4.1277e-10
3.73367e-10
3.48205e-10
2.71677e-10
2.35164e-10
1.471e-09
4.25443e-07
0.000167358
0.00210557
0.0033681
0.00104398
0.000689885
0.0119459
0.0312545
0.908439
0.00700387
6.201e-08
2.19574e-08
2.07875e-08
1.8944e-08
1.75785e-08
1.61696e-08
1.48976e-08
1.37024e-08
1.41513e-08
4.17584e-07
0.000142242
0.00340815
0.010051
0.0154263
0.0181199
0.020615
0.0255707
0.0384662
0.772911
0.0012568
2.04138e-06
1.91352e-06
1.86264e-06
1.78973e-06
1.73053e-06
1.66962e-06
1.61156e-06
1.5545e-06
1.49807e-06
1.4376e-06
1.36422e-06
1.26831e-06
1.15201e-06
1.70028e-06
6.412e-05
0.00203212
0.0239617
0.233624
0.693282
0.000698456
0.000663037
0.000662682
0.0006628
0.000662736
0.000662767
0.000662815
0.000662793
0.000662796
0.000662784
0.000662816
0.000662869
0.000662819
0.000662806
0.000662825
0.000662848
0.000667478
0.0020296
0.835378
0.693299
0.000698464
0.000663038
0.000662678
0.00066282
0.000662769
0.000662772
0.000662775
0.000662785
0.00066276
0.000662808
0.000662859
0.000662804
0.0006628
0.000662807
0.000662819
0.000662843
0.000667477
0.0020296
0.835366
0.772936
0.00126314
2.04135e-06
1.91356e-06
1.86277e-06
1.78991e-06
1.73067e-06
1.66974e-06
1.61175e-06
1.55463e-06
1.49829e-06
1.4379e-06
1.3646e-06
1.26859e-06
1.15232e-06
1.72864e-06
6.60604e-05
0.0020469
0.0240561
0.234332
0.908362
0.00697206
5.07139e-08
2.19837e-08
2.08758e-08
1.90312e-08
1.76581e-08
1.62448e-08
1.49746e-08
1.3784e-08
1.73369e-08
1.36773e-06
0.000374628
0.00432345
0.0115766
0.0168769
0.0194214
0.021693
0.0268813
0.040832
1.15417
0.0158445
3.38003e-06
8.76788e-10
5.93982e-10
4.68618e-10
4.75806e-10
3.52028e-10
3.00906e-10
2.59766e-10
2.57611e-10
3.64775e-09
2.34347e-06
0.000566475
0.00269046
0.00395023
0.00127864
0.000464824
0.0126551
0.0335854
1.39693
0.0884041
0.00351501
0.00019813
1.83391e-05
2.2131e-06
3.2051e-07
4.78478e-08
6.03478e-09
5.10195e-10
3.87044e-11
3.17013e-11
2.94975e-09
1.58331e-05
0.000293125
0.000675289
0.000179133
0.000269527
0.0114627
0.0221529
1.5996
0.182005
0.0137943
0.00131147
0.000164313
2.61661e-05
5.37244e-06
1.25847e-06
3.30189e-07
9.58224e-08
3.49232e-08
6.24287e-09
1.34905e-09
8.92025e-10
2.86401e-06
0.000108447
1.89829e-05
0.000465799
0.013012
0.0169042
1.73331
0.289584
0.0318396
0.00389614
0.000601661
0.000109472
2.54546e-05
6.69945e-06
2.0302e-06
6.8649e-07
2.71262e-07
1.11002e-07
4.32489e-08
1.17479e-08
8.52361e-08
1.3742e-05
1.52223e-06
0.00070308
0.0191901
0.0129999
1.7859
0.418968
0.0607082
0.00998313
0.00183173
0.000435002
0.000121836
3.50444e-05
1.20786e-05
4.77606e-06
2.18951e-06
1.13876e-06
6.47581e-07
3.28897e-07
2.20252e-07
2.33227e-06
4.9227e-07
0.000570412
0.0150701
0.0114753
1.76985
0.582634
0.0998543
0.0227758
0.00556754
0.00156877
0.00052663
0.000198242
8.50975e-05
4.05813e-05
2.13257e-05
1.219e-05
7.47274e-06
4.89502e-06
2.91017e-06
2.61523e-06
1.82114e-06
0.000379777
0.0113425
0.0099004
1.72174
0.74621
0.142784
0.0449351
0.01515
0.0055133
0.00227227
0.00103793
0.000519655
0.000278636
0.000157741
9.33142e-05
5.72172e-05
3.63822e-05
2.31861e-05
1.55646e-05
1.13688e-05
0.000266292
0.00905779
0.00886563
1.67438
0.835112
0.17489
0.0724758
0.0328175
0.0152499
0.00755016
0.00395828
0.00217599
0.00123821
0.00072305
0.000430685
0.000260402
0.000159903
9.90643e-05
6.3698e-05
4.36871e-05
0.000226233
0.00773274
0.0113247
1.63396
0.843253
0.197397
0.102983
0.0578853
0.032319
0.0182318
0.0104152
0.00603786
0.00354088
0.00209456
0.00124625
0.000742875
0.000446332
0.000268822
0.000164511
0.000106549
0.000233975
0.00703802
0.0157174
1.58682
0.827917
0.222861
0.143276
0.089987
0.054594
0.0327531
0.019559
0.0117038
0.00701497
0.00420076
0.00250871
0.00148867
0.00087968
0.000518133
0.000307851
0.000190989
0.000265806
0.00672621
0.0232358
1.52096
0.834553
0.308672
0.246074
0.146324
0.0831677
0.0483642
0.0286851
0.0173337
0.0105438
0.00639479
0.00384126
0.00228671
0.00135
0.000789863
0.000463354
0.000279857
0.000303682
0.0069593
0.0355342
1.43783
0.918059
0.498236
0.515924
0.287551
0.135493
0.0672014
0.0368302
0.0218617
0.0133672
0.00819092
0.00495788
0.00295827
0.00175173
0.00102676
0.000599848
0.000357432
0.000337988
0.00757427
0.0541386
1.35568
1.0993
0.719891
0.880867
0.557138
0.260749
0.111208
0.05141
0.0272168
0.0159831
0.0097518
0.00590463
0.00353621
0.00209626
0.00122937
0.000719765
0.000423358
0.000366355
0.00837151
0.0800346
1.28381
1.23938
0.882061
1.1242
0.792505
0.425141
0.190346
0.0807863
0.0376762
0.0199921
0.011633
0.00691352
0.00407492
0.00242394
0.00143126
0.000830315
0.000479786
0.000393871
0.0093313
0.113143
1.2308
1.29912
0.98535
1.21531
0.923961
0.559362
0.287204
0.133678
0.0617992
0.0301679
0.015785
0.00887936
0.00515791
0.00294559
0.00168929
0.000970602
0.000546935
0.000433643
0.0104385
0.154193
1.16408
1.23706
0.993296
1.14399
0.902422
0.59548
0.338338
0.174859
0.0868249
0.0418764
0.0207616
0.01092
0.00597549
0.00325733
0.00178885
0.000960517
0.000514354
0.000464771
0.0116633
0.200966
1.11992
1.23488
1.02679
1.09133
0.90157
0.664643
0.438853
0.262733
0.151801
0.0836488
0.0472674
0.0266229
0.0139589
0.00693262
0.00335891
0.00153459
0.000636318
0.000479296
0.0121809
0.25164
)
;

boundaryField
{
    outletWall
    {
        type            calculated;
        value           nonuniform List<scalar> 
60
(
0.0315403
0.0310005
0.0349462
0.04651
0.0607322
0.0592086
0.0963004
0.190545
0.334851
0.323709
0.302492
0.298187
0.29487
0.275256
0.239892
0.202286
0.170457
0.146092
0.128376
0.113749
0.131384
0.133207
0.131591
0.131011
0.13048
0.129451
0.126888
0.123994
0.120584
0.116507
0.121381
0.125049
0.125916
0.125637
0.124224
0.122554
0.120101
0.118072
0.116934
0.113749
0.0335151
0.0335785
0.0375206
0.0514642
0.0692608
0.0704323
0.122523
0.252673
0.410212
0.383811
0.355863
0.349587
0.344809
0.32032
0.277908
0.233693
0.197432
0.168846
0.148062
0.131384
)
;
    }
    fineWalls
    {
        type            calculated;
        value           nonuniform List<scalar> 
60
(
0.0731371
0.0707938
0.0725917
0.0422327
0.0393673
0.0388469
0.0384309
0.0384446
0.0383797
0.0361795
0.035466
0.0348427
0.0365412
0.036141
0.0350949
0.0340857
0.0359588
0.0352788
0.033298
0.0335151
0.106827
0.106874
0.108385
0.113519
0.146887
0.238318
0.276959
0.314545
0.377545
0.341745
0.34162
0.376256
0.324434
0.290657
0.251136
0.152171
0.116768
0.111331
0.109885
0.1099
0.0315403
0.0307148
0.032831
0.0326864
0.0308821
0.0323447
0.0335144
0.0336961
0.0317388
0.0325967
0.033075
0.035061
0.0353922
0.0353985
0.035401
0.0361026
0.0387569
0.0667821
0.0657934
0.0687786
)
;
    }
    fineFrontAndBack
    {
        type            calculated;
        value           nonuniform List<scalar> 
960
(
0.0335151
0.033298
0.0352788
0.0359588
0.0340857
0.0350949
0.036141
0.0365412
0.0348427
0.035466
0.0361795
0.0383797
0.0384446
0.0384309
0.0388469
0.0393673
0.0422327
0.0725917
0.0707938
0.0731371
0.150795
0.250689
0.302096
0.344789
0.355692
0.353621
0.241284
0.228268
0.213104
0.197446
0.181905
0.167639
0.155289
0.144347
0.134631
0.125828
0.11773
0.110533
0.104555
0.108318
0.1099
0.109885
0.111331
0.116768
0.152171
0.251136
0.290657
0.324434
0.376256
0.34162
0.341745
0.377545
0.314545
0.276959
0.238318
0.146887
0.113519
0.108385
0.106874
0.106827
0.105313
0.101214
0.106981
0.114007
0.121906
0.130513
0.140014
0.150742
0.162858
0.176816
0.191877
0.206611
0.220599
0.232527
0.340985
0.342552
0.331926
0.291946
0.244841
0.147569
0.0687786
0.0657934
0.0667821
0.0387569
0.0361026
0.035401
0.0353985
0.0353922
0.035061
0.033075
0.0325967
0.0317388
0.0336961
0.0335144
0.0323447
0.0308821
0.0326864
0.032831
0.0307148
0.0315403
0.113749
0.128376
0.146092
0.170457
0.202286
0.239892
0.275256
0.29487
0.298187
0.302492
0.323709
0.334851
0.190545
0.0963004
0.0592086
0.0607322
0.04651
0.0349462
0.0310005
0.116934
0.131431
0.149006
0.172569
0.202195
0.234848
0.261506
0.271951
0.272309
0.283322
0.320691
0.377856
0.234564
0.095081
0.0594364
0.0631614
0.049082
0.0375573
0.0306916
0.118072
0.132174
0.148608
0.169157
0.192127
0.212071
0.218999
0.214575
0.212946
0.224657
0.247977
0.285235
0.31269
0.0970161
0.0587326
0.06682
0.0523665
0.0400362
0.0293443
0.120101
0.133672
0.148443
0.164904
0.179713
0.186756
0.18472
0.183335
0.19497
0.218049
0.234287
0.232711
0.247716
0.104734
0.0581955
0.0718769
0.0614949
0.0474732
0.0395401
0.122554
0.135754
0.149126
0.161664
0.16945
0.171016
0.17354
0.188908
0.221213
0.263595
0.285898
0.25179
0.188559
0.119319
0.0624128
0.0809105
0.0853766
0.0625085
0.0352245
0.124224
0.136453
0.147813
0.157621
0.163887
0.170316
0.18559
0.218986
0.274082
0.334765
0.359438
0.312511
0.228227
0.143859
0.0795177
0.100594
0.150574
0.198956
0.154623
0.125637
0.137082
0.146714
0.156287
0.166134
0.180291
0.207166
0.258051
0.327621
0.385615
0.394859
0.35054
0.295072
0.233286
0.155299
0.179118
0.392733
0.696421
0.617362
0.125916
0.136989
0.146989
0.159072
0.173928
0.1954
0.234498
0.29637
0.353794
0.381642
0.370163
0.344585
0.339023
0.363558
0.358615
0.414747
0.519106
0.379852
0.263894
0.125049
0.136342
0.148191
0.164188
0.184731
0.214837
0.26489
0.323302
0.34528
0.333001
0.31719
0.304661
0.292412
0.292234
0.309463
0.303142
0.269812
0.259013
0.22884
0.121381
0.131971
0.144012
0.162505
0.19104
0.23946
0.310717
0.361667
0.354945
0.348131
0.36741
0.392565
0.393024
0.391036
0.409105
0.448768
0.515655
0.598889
0.581476
0.116507
0.125735
0.136383
0.153144
0.179611
0.22681
0.303695
0.362523
0.353943
0.342877
0.359505
0.383147
0.386873
0.393154
0.419634
0.459151
0.52263
0.607388
0.595692
0.120584
0.131017
0.142427
0.158248
0.178723
0.208395
0.261412
0.329259
0.357508
0.340358
0.316238
0.303167
0.29501
0.296992
0.315654
0.311554
0.278288
0.268969
0.241572
0.123994
0.134908
0.145357
0.158242
0.174091
0.195959
0.235794
0.304972
0.377872
0.422564
0.415332
0.385666
0.382014
0.417762
0.423728
0.459379
0.540057
0.395762
0.273972
0.126888
0.138992
0.15004
0.161166
0.172198
0.187438
0.214999
0.270214
0.35456
0.436336
0.465207
0.42185
0.36071
0.297767
0.196849
0.211133
0.426374
0.736288
0.647848
0.129451
0.143032
0.156186
0.16841
0.176624
0.183788
0.200253
0.236376
0.301404
0.383109
0.431014
0.388153
0.289417
0.187065
0.0993015
0.117012
0.177004
0.221921
0.171169
0.13048
0.145395
0.161734
0.17793
0.188552
0.191159
0.193846
0.210584
0.248777
0.304129
0.34428
0.314628
0.236613
0.157821
0.0752775
0.0926705
0.0991556
0.071246
0.0405469
0.131011
0.146144
0.163523
0.183589
0.202074
0.212588
0.210617
0.208428
0.222308
0.252323
0.278009
0.276292
0.270974
0.140286
0.0691853
0.0824332
0.069461
0.0529774
0.0441793
0.131591
0.147125
0.166548
0.191404
0.218972
0.243887
0.253897
0.248846
0.246631
0.261448
0.291123
0.336267
0.399599
0.127669
0.0697321
0.0768007
0.0585256
0.0438923
0.0327529
0.133207
0.149724
0.170443
0.198362
0.232315
0.271452
0.304432
0.317773
0.317967
0.330032
0.372668
0.439822
0.32206
0.122547
0.0707504
0.0723845
0.0544972
0.0406512
0.0333882
0.131384
0.148062
0.168846
0.197432
0.233693
0.277908
0.32032
0.344809
0.349587
0.355863
0.383811
0.410212
0.252673
0.122523
0.0704323
0.0692608
0.0514642
0.0375206
0.0335785
0.0335151
0.033298
0.0352788
0.0359588
0.0340857
0.0350949
0.036141
0.0365412
0.0348427
0.035466
0.0361795
0.0383797
0.0384446
0.0384309
0.0388469
0.0393673
0.0422327
0.0725917
0.0707938
0.0731371
0.150795
0.250689
0.302096
0.344789
0.355692
0.353621
0.241284
0.228268
0.213104
0.197446
0.181905
0.167639
0.155289
0.144347
0.134631
0.125828
0.11773
0.110533
0.104555
0.108318
0.1099
0.109885
0.111331
0.116768
0.152171
0.251136
0.290657
0.324434
0.376256
0.34162
0.341745
0.377545
0.314545
0.276959
0.238318
0.146887
0.113519
0.108385
0.106874
0.106827
0.105313
0.101214
0.106981
0.114007
0.121906
0.130513
0.140014
0.150742
0.162858
0.176816
0.191877
0.206611
0.220599
0.232527
0.340985
0.342552
0.331926
0.291946
0.244841
0.147569
0.0687786
0.0657934
0.0667821
0.0387569
0.0361026
0.035401
0.0353985
0.0353922
0.035061
0.033075
0.0325967
0.0317388
0.0336961
0.0335144
0.0323447
0.0308821
0.0326864
0.032831
0.0307148
0.0315403
0.113749
0.128376
0.146092
0.170457
0.202286
0.239892
0.275256
0.29487
0.298187
0.302492
0.323709
0.334851
0.190545
0.0963004
0.0592086
0.0607322
0.04651
0.0349462
0.0310005
0.116934
0.131431
0.149006
0.172569
0.202195
0.234848
0.261506
0.271951
0.272309
0.283322
0.320691
0.377856
0.234564
0.095081
0.0594364
0.0631614
0.049082
0.0375573
0.0306916
0.118072
0.132174
0.148608
0.169157
0.192127
0.212071
0.218999
0.214575
0.212946
0.224657
0.247977
0.285235
0.31269
0.0970161
0.0587326
0.06682
0.0523665
0.0400362
0.0293443
0.120101
0.133672
0.148443
0.164904
0.179713
0.186756
0.18472
0.183335
0.19497
0.218049
0.234287
0.232711
0.247716
0.104734
0.0581955
0.0718769
0.0614949
0.0474732
0.0395401
0.122554
0.135754
0.149126
0.161664
0.16945
0.171016
0.17354
0.188908
0.221213
0.263595
0.285898
0.25179
0.188559
0.119319
0.0624128
0.0809105
0.0853766
0.0625085
0.0352245
0.124224
0.136453
0.147813
0.157621
0.163887
0.170316
0.18559
0.218986
0.274082
0.334765
0.359438
0.312511
0.228227
0.143859
0.0795177
0.100594
0.150574
0.198956
0.154623
0.125637
0.137082
0.146714
0.156287
0.166134
0.180291
0.207166
0.258051
0.327621
0.385615
0.394859
0.35054
0.295072
0.233286
0.155299
0.179118
0.392733
0.696421
0.617362
0.125916
0.136989
0.146989
0.159072
0.173928
0.1954
0.234498
0.29637
0.353794
0.381642
0.370163
0.344585
0.339023
0.363558
0.358615
0.414747
0.519106
0.379852
0.263894
0.125049
0.136342
0.148191
0.164188
0.184731
0.214837
0.26489
0.323302
0.34528
0.333001
0.31719
0.304661
0.292412
0.292234
0.309463
0.303142
0.269812
0.259013
0.22884
0.121381
0.131971
0.144012
0.162505
0.19104
0.23946
0.310717
0.361667
0.354945
0.348131
0.36741
0.392565
0.393024
0.391036
0.409105
0.448768
0.515655
0.598889
0.581476
0.116507
0.125735
0.136383
0.153144
0.179611
0.22681
0.303695
0.362523
0.353943
0.342877
0.359505
0.383147
0.386873
0.393154
0.419634
0.459151
0.52263
0.607388
0.595692
0.120584
0.131017
0.142427
0.158248
0.178723
0.208395
0.261412
0.329259
0.357508
0.340358
0.316238
0.303167
0.29501
0.296992
0.315654
0.311554
0.278288
0.268969
0.241572
0.123994
0.134908
0.145357
0.158242
0.174091
0.195959
0.235794
0.304972
0.377872
0.422564
0.415332
0.385666
0.382014
0.417762
0.423728
0.459379
0.540057
0.395762
0.273972
0.126888
0.138992
0.15004
0.161166
0.172198
0.187438
0.214999
0.270214
0.35456
0.436336
0.465207
0.42185
0.36071
0.297767
0.196849
0.211133
0.426374
0.736288
0.647848
0.129451
0.143032
0.156186
0.16841
0.176624
0.183788
0.200253
0.236376
0.301404
0.383109
0.431014
0.388153
0.289417
0.187065
0.0993015
0.117012
0.177004
0.221921
0.171169
0.13048
0.145395
0.161734
0.17793
0.188552
0.191159
0.193846
0.210584
0.248777
0.304129
0.34428
0.314628
0.236613
0.157821
0.0752775
0.0926705
0.0991556
0.071246
0.0405469
0.131011
0.146144
0.163523
0.183589
0.202074
0.212588
0.210617
0.208428
0.222308
0.252323
0.278009
0.276292
0.270974
0.140286
0.0691853
0.0824332
0.069461
0.0529774
0.0441793
0.131591
0.147125
0.166548
0.191404
0.218972
0.243887
0.253897
0.248846
0.246631
0.261448
0.291123
0.336267
0.399599
0.127669
0.0697321
0.0768007
0.0585256
0.0438923
0.0327529
0.133207
0.149724
0.170443
0.198362
0.232315
0.271452
0.304432
0.317773
0.317967
0.330032
0.372668
0.439822
0.32206
0.122547
0.0707504
0.0723845
0.0544972
0.0406512
0.0333882
0.131384
0.148062
0.168846
0.197432
0.233693
0.277908
0.32032
0.344809
0.349587
0.355863
0.383811
0.410212
0.252673
0.122523
0.0704323
0.0692608
0.0514642
0.0375206
0.0335785
)
;
    }
    fineplugLeft
    {
        type            cyclicAMI;
        value           nonuniform List<scalar> 
20
(
0.219256
0.0298697
0.0223828
0.0240406
0.0262812
0.029399
0.034032
0.0415817
0.0539803
0.0724773
0.102909
0.161358
0.257602
0.423991
0.616923
0.818791
0.980561
0.927531
1.05709
0.928214
)
;
    }
    fineplugRight
    {
        type            cyclicAMI;
        value           nonuniform List<scalar> 
20
(
0.222374
0.0299875
0.0217796
0.0233104
0.025609
0.0287897
0.0335489
0.0413155
0.0538699
0.0731772
0.105294
0.162763
0.254306
0.415392
0.599912
0.789766
0.939451
0.879823
1.03687
0.925446
)
;
    }
    inletOutletLeft
    {
        type            cyclicAMI;
        value           nonuniform List<scalar> 
20
(
0.219256
0.0298697
0.0223828
0.0240406
0.0262812
0.029399
0.034032
0.0415817
0.0539803
0.0724773
0.102909
0.161358
0.257602
0.423991
0.616923
0.818791
0.980561
0.927531
1.05709
0.928214
)
;
    }
    inletLeft
    {
        type            calculated;
        value           uniform 1.13;
    }
    inletWallsLeft
    {
        type            calculated;
        value           nonuniform List<scalar> 
40
(
0.693282
0.772911
0.908439
1.15433
1.39697
1.59948
1.73304
1.78555
1.76944
1.7215
1.67424
1.63421
1.58761
1.52179
1.43851
1.35609
1.28445
1.23213
1.16574
1.12257
0.24699
0.196162
0.149443
0.108649
0.0760892
0.0508699
0.0329364
0.0212225
0.0141686
0.0101076
0.00786725
0.00881604
0.0104309
0.0118713
0.0156579
0.0202935
0.0312545
0.0384662
0.233624
0.835378
)
;
    }
    inletFacesLeft
    {
        type            calculated;
        value           nonuniform List<scalar> 
800
(
1.12257
1.25869
1.08389
1.1395
0.934566
0.682749
0.447432
0.264935
0.148421
0.0792751
0.0451204
0.0255656
0.0131549
0.0064533
0.00309085
0.00139455
0.000618094
0.000345096
0.0111984
0.24699
1.16574
1.25071
1.05167
1.19045
0.930713
0.604596
0.344572
0.176714
0.0828389
0.0375772
0.0178712
0.00888654
0.00485338
0.0027935
0.00157796
0.000861754
0.000486726
0.000452259
0.0105334
0.196162
1.23213
1.30909
1.04765
1.26698
0.953362
0.568867
0.285984
0.129063
0.0568028
0.0262837
0.0133643
0.00720165
0.00435121
0.00264172
0.00145911
0.000821136
0.000467652
0.00043994
0.00929116
0.149443
1.28445
1.24197
0.94271
1.17628
0.818068
0.428841
0.188347
0.0780847
0.034467
0.0172659
0.00982354
0.00592439
0.00357687
0.00212911
0.00123673
0.000711975
0.000417004
0.000414987
0.0082078
0.108649
1.35609
1.09114
0.771645
0.927496
0.576187
0.257718
0.102311
0.0444931
0.0230912
0.0135584
0.0084079
0.00521997
0.00317618
0.00188252
0.00108863
0.000628098
0.000373608
0.00040251
0.00734077
0.0760892
1.43851
0.911776
0.533869
0.545647
0.299837
0.135495
0.0632715
0.032769
0.0190218
0.0117093
0.00732679
0.00451845
0.00271947
0.00160022
0.000923059
0.000532872
0.000320723
0.000388732
0.00661709
0.0508699
1.52179
0.827408
0.323262
0.258707
0.148306
0.0802558
0.0443585
0.0258594
0.0157091
0.00968774
0.00595752
0.00361326
0.00215138
0.00125856
0.00072488
0.000419886
0.000255947
0.00037272
0.00607324
0.0329364
1.58761
0.819967
0.228933
0.147876
0.0905855
0.0530492
0.0311742
0.0184874
0.0111001
0.00669561
0.00403526
0.002415
0.00142923
0.0008362
0.000484706
0.000284648
0.000178301
0.000356541
0.00584712
0.0212225
1.63421
0.844116
0.198092
0.103857
0.0579661
0.0319774
0.0179621
0.0102918
0.00599335
0.00352677
0.00208784
0.00123788
0.000732645
0.000432105
0.000254617
0.000153922
0.000101425
0.000354434
0.00612012
0.0141686
1.67424
0.838887
0.176819
0.0733674
0.0333543
0.0156641
0.00779238
0.00412074
0.00227159
0.00128435
0.000742446
0.000436798
0.000260091
0.000156012
9.4664e-05
6.02592e-05
4.36269e-05
0.000391817
0.00671564
0.0101076
1.7215
0.746086
0.142717
0.0451101
0.0155017
0.00574584
0.00238871
0.00110503
0.00055106
0.000291914
0.000163113
9.52668e-05
5.72303e-05
3.49104e-05
2.19356e-05
1.5064e-05
1.33324e-05
0.000506657
0.00788761
0.00786725
1.76944
0.58377
0.0998926
0.0230246
0.00587886
0.00164036
0.000540565
0.000200969
8.65387e-05
4.1235e-05
2.15241e-05
1.22061e-05
7.15185e-06
4.087e-06
2.556e-06
2.55208e-06
4.41773e-06
0.000761454
0.00987967
0.00881604
1.78555
0.419038
0.0604796
0.0100053
0.00196153
0.000422257
0.000108793
3.28674e-05
1.26309e-05
5.06927e-06
2.27663e-06
1.1549e-06
5.22163e-07
2.07053e-07
1.94885e-07
2.81409e-06
5.87625e-06
0.00124864
0.0131529
0.0104309
1.73304
0.289736
0.0317132
0.00401429
0.000620021
0.000112232
2.60371e-05
6.78537e-06
2.03456e-06
7.01296e-07
2.77073e-07
1.15729e-07
2.5582e-08
1.2058e-08
2.38908e-07
1.45541e-05
1.49459e-05
0.00175498
0.0170505
0.0118713
1.59948
0.181836
0.0136966
0.00131002
0.000170732
2.71105e-05
5.43961e-06
1.20538e-06
3.17052e-07
9.61413e-08
3.40893e-08
7.8774e-09
1.85362e-09
2.44268e-08
3.99413e-06
0.000101452
5.81422e-05
0.00159096
0.0122589
0.0156579
1.39697
0.0880205
0.00348551
0.000207848
1.93533e-05
2.29219e-06
3.70227e-07
5.17441e-08
6.05217e-09
5.5698e-10
4.1444e-11
2.38316e-11
3.53647e-10
2.18682e-06
0.000252777
0.000559394
0.00021965
0.00127694
0.0109587
0.0202935
1.15433
0.0157847
4.1596e-06
1.63369e-09
5.87809e-10
7.29735e-10
4.1277e-10
3.73367e-10
3.48205e-10
2.71677e-10
2.35164e-10
1.471e-09
4.25443e-07
0.000167358
0.00210557
0.0033681
0.00104398
0.000689885
0.0119459
0.0312545
0.908439
0.00700387
6.201e-08
2.19574e-08
2.07875e-08
1.8944e-08
1.75785e-08
1.61696e-08
1.48976e-08
1.37024e-08
1.41513e-08
4.17584e-07
0.000142242
0.00340815
0.010051
0.0154263
0.0181199
0.020615
0.0255707
0.0384662
0.772911
0.0012568
2.04138e-06
1.91352e-06
1.86264e-06
1.78973e-06
1.73053e-06
1.66962e-06
1.61156e-06
1.5545e-06
1.49807e-06
1.4376e-06
1.36422e-06
1.26831e-06
1.15201e-06
1.70028e-06
6.412e-05
0.00203212
0.0239617
0.233624
0.693282
0.000698456
0.000663037
0.000662682
0.0006628
0.000662736
0.000662767
0.000662815
0.000662793
0.000662796
0.000662784
0.000662816
0.000662869
0.000662819
0.000662806
0.000662825
0.000662848
0.000667478
0.0020296
0.835378
1.12257
1.25869
1.08389
1.1395
0.934566
0.682749
0.447432
0.264935
0.148421
0.0792751
0.0451204
0.0255656
0.0131549
0.0064533
0.00309085
0.00139455
0.000618094