/*--------------------------------*- C++ -*----------------------------------*\
| =========                 |                                                 |
| \\      /  F ield         | OpenFOAM: The Open Source CFD Toolbox           |
|  \\    /   O peration     | Version:  4.1                                   |
|   \\  /    A nd           | Web:      www.OpenFOAM.org                      |
|    \\/     M anipulation  |                                                 |
\*---------------------------------------------------------------------------*/
FoamFile
{
    version     2.0;
    format      ascii;
    class       volScalarField;
    location    "3";
    object      nut;
}
// * * * * * * * * * * * * * * * * * * * * * * * * * * * * * * * * * * * * * //

dimensions      [0 2 -1 0 0 0 0];

internalField   nonuniform List<scalar> 
1280
(
1.43442
2.80537
1.56516
1.60288
3.03398
1.70294
1.71082
1.72304
3.14044
1.78077
1.82398
3.59549
2.01332
2.00539
3.65594
2.0875
2.23642
6.41486
3.51948
3.50555
0.0611083
0.100065
0.144624
0.188192
0.19572
0.203218
0.199779
0.187754
0.182753
0.179038
0.172958
0.165648
0.160612
0.154798
0.149142
0.142073
0.137491
0.129058
0.129311
0.11957
6.65383
3.74691
3.74662
3.84569
7.93474
5.82018
6.30945
6.70835
13.0116
6.94481
6.94045
13.0614
6.715
6.30872
5.85436
7.87426
3.76739
3.65478
3.63708
6.54371
0.114953
0.12414
0.12339
0.132918
0.136668
0.144321
0.149134
0.154905
0.15968
0.166407
0.1744
0.176225
0.181212
0.190744
0.194109
0.18598
0.174859
0.133528
0.094115
0.0609855
3.30327
3.25434
5.83561
2.07201
1.94335
3.39148
1.86435
1.87034
3.3144
1.66955
1.64556
2.87507
1.59219
1.58705
1.55921
2.73023
1.47659
1.49328
2.69041
1.41743
4.98469
4.37717
4.29518
4.08022
4.14639
4.38764
4.98099
5.39183
5.72983
6.07995
6.6358
7.64991
9.57147
4.00695
2.32792
3.19255
2.31789
1.95577
2.15431
4.80913
4.28252
4.18962
3.96225
3.96438
4.07992
4.56952
4.89105
5.12044
5.55564
6.07891
7.46639
11.7624
3.97786
2.32317
3.34847
2.54849
2.14702
2.0241
4.77551
4.15337
4.04429
3.78611
3.69861
3.88439
3.74181
3.64824
3.67349
4.03972
5.05921
7.89104
8.49907
4.34642
2.45082
3.67163
2.50523
2.2916
1.46963
4.73479
4.05297
3.87811
3.50787
3.35315
3.10545
2.88519
2.54835
2.29286
2.53691
2.9814
6.34869
10.0306
4.99679
2.52845
3.60712
3.02867
2.75983
2.23398
4.84621
4.18853
4.11387
3.62647
3.28329
2.96518
2.66925
2.41735
2.37781
2.839
3.31876
4.19508
8.38075
5.00421
2.80952
4.64217
4.57
3.35313
0.730644
4.95468
4.25413
4.17236
3.69406
3.45558
3.17286
2.95135
2.90757
3.48663
3.90625
3.95164
4.24651
8.25549
8.54698
3.78632
4.45033
3.3764
6.34489
2.24132
5.1695
4.58008
4.40097
3.98734
3.82278
3.61594
3.43661
3.87962
4.49136
4.50021
4.4087
4.36604
5.14865
9.88109
6.91976
4.41119
3.28364
9.05719
2.4151
5.3232
4.78288
4.75742
4.3985
4.35175
4.1864
4.20861
4.86798
4.78017
4.91473
4.47192
3.83424
3.49455
3.30111
3.02412
2.28384
2.5262
2.76432
1.50665
5.46323
4.96308
5.08718
4.81118
4.86072
4.73625
4.75288
4.95036
4.97448
4.43795
3.93147
3.55387
3.17073
2.783
2.5394
2.35885
2.42918
3.01136
2.91549
5.29045
4.77746
4.91605
4.63491
4.82759
5.13551
5.24962
6.02625
5.53147
5.06673
4.57705
4.81208
4.44656
4.31595
3.96482
3.9908
4.08881
4.76164
4.60915
5.00714
4.45665
4.50345
4.18444
4.32001
4.67141
5.11451
6.02368
5.50937
5.01854
4.44633
4.63404
4.33256
4.14078
3.89448
3.93196
4.06699
4.72347
4.76644
5.29408
4.74938
4.83149
4.55761
4.61046
4.53891
4.77326
5.07758
5.30353
4.6612
3.87517
3.55976
3.18585
2.73552
2.46527
2.30422
2.48315
2.72021
3.18684
5.38248
4.78861
4.72099
4.3576
4.332
4.201
4.2627
5.13564
5.0677
5.55552
5.18293
4.44529
4.11563
3.68792
3.58901
2.63003
2.64295
2.83483
1.53749
5.40508
4.76575
4.5856
4.13749
3.95717
3.77561
3.62358
4.13525
5.04405
5.0323
5.23968
5.51356
6.54276
11.9282
7.30795
6.12871
3.71046
10.672
2.54545
5.58476
4.86568
4.5903
4.05638
3.80537
3.48342
3.2609
3.20721
3.91989
4.57333
4.80971
5.17405
10.5823
9.59863
6.06547
5.89253
7.51225
6.74298
2.97456
5.48661
4.7249
4.70169
4.20762
3.83326
3.40117
3.07838
2.78078
2.74987
3.25438
3.95596
4.98
12.2904
6.71066
3.60162
5.59308
5.47594
3.86854
0.88087
5.69044
4.74447
4.43811
4.01644
3.75204
3.6492
3.33649
2.90153
2.58027
2.7787
3.33277
6.7905
12.2495
6.9343
3.24897
4.47839
3.42681
3.72628
3.28898
5.92811
4.94192
4.80668
4.54799
4.30489
4.44088
4.43775
4.24259
4.16656
4.4416
5.45266
8.48829
9.77671
6.19964
3.05557
4.34785
3.0339
2.68002
1.84645
6.16789
5.56961
5.39884
5.06539
4.7116
4.81333
5.36009
5.73854
5.92269
6.28887
6.78919
8.42181
20.9343
5.66306
2.94957
4.14045
2.83599
2.37861
2.36105
6.45599
5.56865
5.41712
5.09538
4.96291
5.15526
5.70902
6.25392
6.59384
7.01346
7.67325
8.71795
13.0045
5.51594
2.93465
3.88144
2.70313
2.19927
2.47867
0.338485
0.508039
0.681097
0.735738
0.596722
0.533651
0.430765
0.370918
0.550079
0.600432
1.24242
0.347342
0.125819
0.0340474
0.00871955
0.00193274
0.000421444
4.86754e-05
0.015693
0.146745
0.344141
0.494305
0.635495
0.655773
0.536557
0.483954
0.49378
0.446231
0.239953
0.16206
0.112387
0.0568105
0.0195991
0.0122369
0.0134484
0.00309429
0.00465158
0.00194722
0.0135854
0.130557
0.35318
0.480128
0.593708
0.674718
0.533424
0.458063
0.353
0.246294
0.157915
0.119874
0.0907141
0.0934713
1.11536
0.100726
0.0576033
0.0677411
0.0289832
0.00534737
0.0110726
0.113324
0.360107
0.446244
0.530443
0.612349
0.541339
0.631254
0.57796
0.390591
0.23581
0.0967405
0.0693378
0.0604183
0.046624
0.0525944
0.0471428
0.031188
0.0222164
0.00375283
0.0083856
0.0960748
0.369687
0.418671
0.481886
0.643798
0.570985
0.368921
0.183213
0.113596
0.0796944
0.064729
0.0614213
0.0685554
0.0827925
0.0648179
0.050818
0.0422531
0.0206947
0.00376974
0.00625329
0.079875
0.38015
0.319271
0.391785
0.537849
0.418518
0.257966
0.163618
0.0825021
0.0622353
0.056282
0.0633667
0.0672727
0.0613482
0.0544568
0.0443273
0.0306659
0.0152403
0.00323472
0.00465632
0.0649731
0.38975
0.27661
0.204274
0.205124
0.151638
0.107407
0.0718773
0.0673958
0.0728414
0.0845087
0.0869563
0.0839086
0.0773816
0.0628226
0.0446387
0.0271861
0.00958725
0.00287233
0.00338908
0.052358
0.396898
0.249942
0.146921
0.145564
0.125551
0.0951311
0.0865181
0.0815937
0.083432
0.0793177
0.074639
0.0650911
0.0550873
0.040361
0.0268783
0.011648
0.00542621
0.00225229
0.00257252
0.0425987
0.402337
0.23557
0.106878
0.0914626
0.0843992
0.075715
0.0686722
0.0664726
0.0705496
0.0736815
0.0662591
0.0505155
0.039198
0.019618
0.00946885
0.00286344
0.00137575
0.00143828
0.00232991
0.0357718
0.408269
0.228887
0.103038
0.0840527
0.0811727
0.0879868
0.100043
0.157833
0.0868834
0.0497593
0.0315371
0.0197243
0.0125797
0.00340183
0.00122786
0.000452143
0.000203989
0.000968577
0.00221515
0.0314144
0.415728
0.221136
0.0897856
0.0604574
0.0382015
0.0267582
0.0187083
0.0155912
0.0058192
0.00314941
0.00250391
0.00255787
0.000871599
0.000190147
8.69849e-05
2.32763e-05
1.38552e-05
0.000749511
0.00234557
0.0290535
0.422848
0.188399
0.066802
0.0403845
0.0411644
0.0135171
0.0232815
0.00182648
0.00107716
0.00123692
0.00094144
0.000832302
3.49206e-05
4.40419e-06
3.88793e-06
4.78264e-07
1.30053e-06
0.00066821
0.00264336
0.0362995
0.424872
0.136408
0.0427667
0.0145949
0.00695883
0.00103132
0.000205624
0.000140852
0.000122267
3.69162e-05
1.56362e-05
6.40632e-06
4.80692e-07
5.66732e-08
7.29429e-08
2.50465e-07
1.02373e-06
0.000970681
0.00335508
0.0368381
0.417857
0.0937557
0.0227288
0.0120068
0.00224752
0.000330232
0.000504233
0.00015614
9.14713e-06
6.22479e-06
1.78565e-06
1.39663e-07
3.67762e-09
1.96621e-10
1.39414e-07
1.14464e-06
2.21553e-06
0.00163746
0.00500473
0.0315987
0.400619
0.0561162
0.0114709
0.00287048
0.00117552
0.000117007
1.27489e-05
1.00678e-06
2.17904e-07
6.66537e-08
3.95521e-08
3.15462e-10
9.29297e-12
4.38647e-10
9.75057e-07
1.55413e-05
1.00625e-05
0.00171927
0.00412554
0.0422528
0.373698
0.0289488
0.00227557
0.000270996
6.37783e-05
2.02606e-06
2.77743e-07
4.04222e-09
7.21608e-11
1.93884e-12
5.84933e-14
1.09054e-15
7.67361e-14
9.7484e-08
4.48705e-05
9.35945e-05
3.4683e-05
0.000596713
0.00359758
0.0515869
0.338942
0.0025661
1.23783e-07
7.62375e-13
4.78889e-13
1.331e-13
1.58093e-13
1.14529e-13
8.41146e-14
8.42562e-14
7.42011e-14
6.94636e-14
1.62448e-09
3.74034e-06
0.000329428
0.000776343
0.000408716
0.000135667
0.00378159
0.0624192
0.300571
0.000345481
1.64177e-11
4.6893e-12
4.49914e-12
4.07677e-12
3.78871e-12
3.48904e-12
3.214e-12
2.95438e-12
2.88958e-12
1.8357e-10
3.40267e-06
0.000742826
0.0039553
0.00932231
0.014702
0.0194672
0.0245154
0.0662227
0.27806
5.15401e-06
2.96196e-10
2.76182e-10
2.69179e-10
2.58474e-10
2.5017e-10
2.4174e-10
2.33288e-10
2.25076e-10
2.16944e-10
2.08624e-10
1.98612e-10
1.84599e-10
1.66797e-10
3.2926e-10
2.10217e-07
5.57343e-05
0.00278662
0.174099
0.263245
5.90783e-08
5.4465e-08
5.43596e-08
5.43917e-08
5.43645e-08
5.43784e-08
5.44043e-08
5.4392e-08
5.43924e-08
5.43851e-08
5.44009e-08
5.44286e-08
5.43997e-08
5.43888e-08
5.43931e-08
5.44245e-08
5.61021e-08
4.72883e-07
0.369472
0.263248
5.9082e-08
5.44657e-08
5.43574e-08
5.44022e-08
5.43825e-08
5.43813e-08
5.43827e-08
5.43869e-08
5.43731e-08
5.43982e-08
5.44244e-08
5.4393e-08
5.4389e-08
5.43893e-08
5.43902e-08
5.44221e-08
5.61019e-08
4.72888e-07
0.36945
0.278068
5.35917e-06
2.96275e-10
2.76307e-10
2.69505e-10
2.58905e-10
2.50421e-10
2.41791e-10
2.33519e-10
2.25135e-10
2.17375e-10
2.09188e-10
1.98773e-10
1.84769e-10
1.6696e-10
3.39043e-10
2.2452e-07
5.62816e-05
0.00279869
0.174289
0.300567
0.000377435
1.37677e-11
4.71116e-12
4.52703e-12
4.11599e-12
3.8311e-12
3.52638e-12
3.25287e-12
2.98254e-12
3.50648e-12
1.11084e-09
2.12835e-05
0.00101412
0.00462742
0.0100881
0.0155782
0.0192786
0.0240457
0.067605
0.338869
0.00280521
1.02685e-07
4.27784e-13
3.71671e-13
2.10649e-13
1.24349e-13
1.36454e-13
1.22105e-13
1.03114e-13
9.42709e-14
2.90904e-13
2.46988e-08
4.47215e-05
0.000532431
0.000962376
0.000673904
6.25404e-05
0.00388596
0.0644634
0.373648
0.0305177
0.00303468
0.000155396
0.0001204
6.06154e-06
9.66916e-08
3.50922e-09
1.12991e-10
2.96916e-12
1.35298e-13
2.17462e-15
6.62863e-12
4.15926e-06
2.69634e-05
0.000105096
1.02513e-05
4.37815e-05
0.00366751
0.0545756
0.40061
0.0564099
0.0125563
0.00465902
0.000414736
0.000271628
6.14437e-05
3.15853e-06
3.65686e-07
8.61865e-08
2.66262e-07
1.62634e-10
1.7829e-11
5.85319e-15
1.21592e-08
9.54702e-06
3.60917e-07
0.00018905
0.00421214
0.0432299
0.417877
0.0934811
0.0232984
0.00497856
0.0018684
0.000376181
0.000227601
4.60523e-05
7.4026e-06
1.91448e-06
8.83095e-07
9.25737e-08
6.91874e-09
5.73083e-12
6.03145e-11
6.61958e-07
3.0766e-08
0.000423509
0.00556091
0.032711
0.424901
0.136943
0.0441034
0.0196733
0.00999969
0.516327
0.00588661
0.00111865
0.000202638
5.62994e-05
2.86757e-05
8.99613e-06
1.15017e-06
1.31337e-08
1.18624e-09
3.31707e-08
1.94665e-08
0.000324585
0.00385195
0.0382173
0.422897
0.186684
0.0659555
0.032976
0.0151034
0.00844234
0.00535547
0.00324261
0.00190225
0.00111717
0.000701393
0.00056078
0.000206418
9.22588e-05
4.829e-07
8.6422e-08
8.2031e-08
0.000269865
0.00305863
0.0382233
0.415747
0.22309
0.0913379
0.0677859
0.052842
0.0475841
0.0382488
0.0298414
0.02523
0.017866
0.0142212
0.0105271
0.00833016
0.00260366
5.10462e-05
9.34144e-06
4.06945e-06
0.000278375
0.00271941
0.0307642
0.408282
0.224797
0.0955569
0.0771254
0.0743197
0.0644501
0.0640021
0.0696033
0.0705206
0.0787962
0.0733448
0.0699798
0.0484473
0.0194199
0.00195859
0.000520969
0.000104854
0.00036668
0.00258673
0.0332013
0.40233
0.233884
0.114728
0.0978979
0.0992704
0.113908
0.125447
0.135358
0.151514
0.15372
0.165071
0.157478
0.154033
0.168893
0.0244164
0.00545907
0.00129267
0.000651418
0.00269267
0.0376799
0.396815
0.257752
0.118732
0.108906
0.115143
0.122084
0.133439
0.161724
0.193901
0.237034
0.255012
0.276341
0.22606
0.186276
0.103165
0.02649
0.00536046
0.00124052
0.00296411
0.0446567
0.389635
0.277154
0.199141
0.236179
0.198163
0.158728
0.144099
0.13696
0.139031
0.161008
0.198282
0.22864
0.28306
0.237704
0.188643
0.0765206
0.0134327
0.00190638
0.00383657
0.0545309
0.380035
0.320893
0.334023
0.428326
0.329748
0.224854
0.164311
0.139395
0.148567
0.156303
0.171259
0.197818
0.216766
0.257294
0.185984
0.107695
0.0268553
0.00268806
0.00527908
0.067216
0.369637
0.425664
0.433013
0.634284
0.706017
0.564125
0.382424
0.271131
0.151589
0.163787
0.182399
0.166648
0.238828
0.202618
0.217368
0.137614
0.0411394
0.00281393
0.00698852
0.0821385
0.360012
0.42685
0.482235
0.588715
0.535822
0.639397
0.413912
0.223898
0.179827
0.152151
0.19453
0.161917
0.164901
0.3939
0.195413
0.146226
0.0486408
0.00320553
0.00951806
0.0982954
0.352964
0.465063
0.549331
0.647419
0.522542
0.483364
0.450379
0.358797
0.302021
0.237315
0.231624
0.194799
0.143611
0.121633
0.170488
0.161537
0.0643669
0.00367384
0.0120733
0.115352
0.34393
0.48339
0.590432
0.630461
0.525756
0.518855
0.411048
0.414871
0.40252
0.236491
0.222565
0.130544
0.0331467
0.0147022
0.00545233
0.00146543
0.000835401
0.00350063
0.014958
0.132384
0.338085
0.486021
0.629296
0.698564
0.572372
0.51994
0.458039
0.401156
0.513072
0.634849
1.29088
0.468706
0.145238
0.0401599
0.0105133
0.00237705
0.000437962
0.00116911
0.0157448
0.148244
)
;

boundaryField
{
    outletWall
    {
        type            calculated;
        value           nonuniform List<scalar> 
60
(
1.41743
2.15431
1.95577
2.31789
3.19255
2.32792
4.00695
9.57147
7.64991
6.6358
6.07995
5.72983
5.39183
4.98099
4.38764
4.14639
4.08022
4.29518
4.37717
4.98469
6.45599
6.16789
5.92811
5.69044
5.48661
5.58476
5.40508
5.38248
5.29408
5.00714
5.29045
5.46323
5.3232
5.1695
4.95468
4.84621
4.73479
4.77551
4.80913
4.98469
1.43442
2.47867
2.19927
2.70313
3.88144
2.93465
5.51594
13.0045
8.71795
7.67325
7.01346
6.59384
6.25392
5.70902
5.15526
4.96291
5.09538
5.41712
5.56865
6.45599
)
;
    }
    fineWalls
    {
        type            nutkWallFunction;
        Cmu             0.09;
        kappa           0.41;
        E               9.8;
        value           nonuniform List<scalar> 
60
(
0.201018
0.197984
0.340719
0.155577
0.150562
0.254317
0.148882
0.148906
0.252883
0.14475
0.143412
0.241709
0.145423
0.144678
0.142711
0.23924
0.144338
0.143059
0.23664
0.139679
0.4123
0.239988
0.241567
0.24685
0.478666
0.349223
0.37468
0.397692
0.74547
0.413448
0.413377
0.744272
0.403501
0.383247
0.357895
0.486664
0.250127
0.244614
0.243124
0.417816
0.135781
0.227877
0.138343
0.138059
0.228456
0.137385
0.139678
0.140031
0.231396
0.137882
0.138822
0.242415
0.143273
0.143285
0.243511
0.144606
0.149469
0.327673
0.191328
0.195333
)
;
    }
    fineFrontAndBack
    {
        type            calculated;
        value           nonuniform List<scalar> 
960
(
1.43442
2.80537
1.56516
1.60288
3.03398
1.70294
1.71082
1.72304
3.14044
1.78077
1.82398
3.59549
2.01332
2.00539
3.65594
2.0875
2.23642
6.41486
3.51948
3.50555
0.0611083
0.100065
0.144624
0.188192
0.19572
0.203218
0.199779
0.187754
0.182753
0.179038
0.172958
0.165648
0.160612
0.154798
0.149142
0.142073
0.137491
0.129058
0.129311
0.11957
6.65383
3.74691
3.74662
3.84569
7.93474
5.82018
6.30945
6.70835
13.0116
6.94481
6.94045
13.0614
6.715
6.30872
5.85436
7.87426
3.76739
3.65478
3.63708
6.54371
0.114953
0.12414
0.12339
0.132918
0.136668
0.144321
0.149134
0.154905
0.15968
0.166407
0.1744
0.176225
0.181212
0.190744
0.194109
0.18598
0.174859
0.133528
0.094115
0.0609855
3.30327
3.25434
5.83561
2.07201
1.94335
3.39148
1.86435
1.87034
3.3144
1.66955
1.64556
2.87507
1.59219
1.58705
1.55921
2.73023
1.47659
1.49328
2.69041
1.41743
4.98469
4.37717
4.29518
4.08022
4.14639
4.38764
4.98099
5.39183
5.72983
6.07995
6.6358
7.64991
9.57147
4.00695
2.32792
3.19255
2.31789
1.95577
2.15431
4.80913
4.28252
4.18962
3.96225
3.96438
4.07992
4.56952
4.89105
5.12044
5.55564
6.07891
7.46639
11.7624
3.97786
2.32317
3.34847
2.54849
2.14702
2.0241
4.77551
4.15337
4.04429
3.78611
3.69861
3.88439
3.74181
3.64824
3.67349
4.03972
5.05921
7.89104
8.49907
4.34642
2.45082
3.67163
2.50523
2.2916
1.46963
4.73479
4.05297
3.87811
3.50787
3.35315
3.10545
2.88519
2.54835
2.29286
2.53691
2.9814
6.34869
10.0306
4.99679
2.52845
3.60712
3.02867
2.75983
2.23398
4.84621
4.18853
4.11387
3.62647
3.28329
2.96518
2.66925
2.41735
2.37781
2.839
3.31876
4.19508
8.38075
5.00421
2.80952
4.64217
4.57
3.35313
0.730644
4.95468
4.25413
4.17236
3.69406
3.45558
3.17286
2.95135
2.90757
3.48663
3.90625
3.95164
4.24651
8.25549
8.54698
3.78632
4.45033
3.3764
6.34489
2.24132
5.1695
4.58008
4.40097
3.98734
3.82278
3.61594
3.43661
3.87962
4.49136
4.50021
4.4087
4.36604
5.14865
9.88109
6.91976
4.41119
3.28364
9.05719
2.4151
5.3232
4.78288
4.75742
4.3985
4.35175
4.1864
4.20861
4.86798
4.78017
4.91473
4.47192
3.83424
3.49455
3.30111
3.02412
2.28384
2.5262
2.76432
1.50665
5.46323
4.96308
5.08718
4.81118
4.86072
4.73625
4.75288
4.95036
4.97448
4.43795
3.93147
3.55387
3.17073
2.783
2.5394
2.35885
2.42918
3.01136
2.91549
5.29045
4.77746
4.91605
4.63491
4.82759
5.13551
5.24962
6.02625
5.53147
5.06673
4.57705
4.81208
4.44656
4.31595
3.96482
3.9908
4.08881
4.76164
4.60915
5.00714
4.45665
4.50345
4.18444
4.32001
4.67141
5.11451
6.02368
5.50937
5.01854
4.44633
4.63404
4.33256
4.14078
3.89448
3.93196
4.06699
4.72347
4.76644
5.29408
4.74938
4.83149
4.55761
4.61046
4.53891
4.77326
5.07758
5.30353
4.6612
3.87517
3.55976
3.18585
2.73552
2.46527
2.30422
2.48315
2.72021
3.18684
5.38248
4.78861
4.72099
4.3576
4.332
4.201
4.2627
5.13564
5.0677
5.55552
5.18293
4.44529
4.11563
3.68792
3.58901
2.63003
2.64295
2.83483
1.53749
5.40508
4.76575
4.5856
4.13749
3.95717
3.77561
3.62358
4.13525
5.04405
5.0323
5.23968
5.51356
6.54276
11.9282
7.30795
6.12871
3.71046
10.672
2.54545
5.58476
4.86568
4.5903
4.05638
3.80537
3.48342
3.2609
3.20721
3.91989
4.57333
4.80971
5.17405
10.5823
9.59863
6.06547
5.89253
7.51225
6.74298
2.97456
5.48661
4.7249
4.70169
4.20762
3.83326
3.40117
3.07838
2.78078
2.74987
3.25438
3.95596
4.98
12.2904
6.71066
3.60162
5.59308
5.47594
3.86854
0.88087
5.69044
4.74447
4.43811
4.01644
3.75204
3.6492
3.33649
2.90153
2.58027
2.7787
3.33277
6.7905
12.2495
6.9343
3.24897
4.47839
3.42681
3.72628
3.28898
5.92811
4.94192
4.80668
4.54799
4.30489
4.44088
4.43775
4.24259
4.16656
4.4416
5.45266
8.48829
9.77671
6.19964
3.05557
4.34785
3.0339
2.68002
1.84645
6.16789
5.56961
5.39884
5.06539
4.7116
4.81333
5.36009
5.73854
5.92269
6.28887
6.78919
8.42181
20.9343
5.66306
2.94957
4.14045
2.83599
2.37861
2.36105
6.45599
5.56865
5.41712
5.09538
4.96291
5.15526
5.70902
6.25392
6.59384
7.01346
7.67325
8.71795
13.0045
5.51594
2.93465
3.88144
2.70313
2.19927
2.47867
1.43442
2.80537
1.56516
1.60288
3.03398
1.70294
1.71082
1.72304
3.14044
1.78077
1.82398
3.59549
2.01332
2.00539
3.65594
2.0875
2.23642
6.41486
3.51948
3.50555
0.0611083
0.100065
0.144624
0.188192
0.19572
0.203218
0.199779
0.187754
0.182753
0.179038
0.172958
0.165648
0.160612
0.154798
0.149142
0.142073
0.137491
0.129058
0.129311
0.11957
6.65383
3.74691
3.74662
3.84569
7.93474
5.82018
6.30945
6.70835
13.0116
6.94481
6.94045
13.0614
6.715
6.30872
5.85436
7.87426
3.76739
3.65478
3.63708
6.54371
0.114953
0.12414
0.12339
0.132918
0.136668
0.144321
0.149134
0.154905
0.15968
0.166407
0.1744
0.176225
0.181212
0.190744
0.194109
0.18598
0.174859
0.133528
0.094115
0.0609855
3.30327
3.25434
5.83561
2.07201
1.94335
3.39148
1.86435
1.87034
3.3144
1.66955
1.64556
2.87507
1.59219
1.58705
1.55921
2.73023
1.47659
1.49328
2.69041
1.41743
4.98469
4.37717
4.29518
4.08022
4.14639
4.38764
4.98099
5.39183
5.72983
6.07995
6.6358
7.64991
9.57147
4.00695
2.32792
3.19255
2.31789
1.95577
2.15431
4.80913
4.28252
4.18962
3.96225
3.96438
4.07992
4.56952
4.89105
5.12044
5.55564
6.07891
7.46639
11.7624
3.97786
2.32317
3.34847
2.54849
2.14702
2.0241
4.77551
4.15337
4.04429
3.78611
3.69861
3.88439
3.74181
3.64824
3.67349
4.03972
5.05921
7.89104
8.49907
4.34642
2.45082
3.67163
2.50523
2.2916
1.46963
4.73479
4.05297
3.87811
3.50787
3.35315
3.10545
2.88519
2.54835
2.29286
2.53691
2.9814
6.34869
10.0306
4.99679
2.52845
3.60712
3.02867
2.75983
2.23398
4.84621
4.18853
4.11387
3.62647
3.28329
2.96518
2.66925
2.41735
2.37781
2.839
3.31876
4.19508
8.38075
5.00421
2.80952
4.64217
4.57
3.35313
0.730644
4.95468
4.25413
4.17236
3.69406
3.45558
3.17286
2.95135
2.90757
3.48663
3.90625
3.95164
4.24651
8.25549
8.54698
3.78632
4.45033
3.3764
6.34489
2.24132
5.1695
4.58008
4.40097
3.98734
3.82278
3.61594
3.43661
3.87962
4.49136
4.50021
4.4087
4.36604
5.14865
9.88109
6.91976
4.41119
3.28364
9.05719
2.4151
5.3232
4.78288
4.75742
4.3985
4.35175
4.1864
4.20861
4.86798
4.78017
4.91473
4.47192
3.83424
3.49455
3.30111
3.02412
2.28384
2.5262
2.76432
1.50665
5.46323
4.96308
5.08718
4.81118
4.86072
4.73625
4.75288
4.95036
4.97448
4.43795
3.93147
3.55387
3.17073
2.783
2.5394
2.35885
2.42918
3.01136
2.91549
5.29045
4.77746
4.91605
4.63491
4.82759
5.13551
5.24962
6.02625
5.53147
5.06673
4.57705
4.81208
4.44656
4.31595
3.96482
3.9908
4.08881
4.76164
4.60915
5.00714
4.45665
4.50345
4.18444
4.32001
4.67141
5.11451
6.02368
5.50937
5.01854
4.44633
4.63404
4.33256
4.14078
3.89448
3.93196
4.06699
4.72347
4.76644
5.29408
4.74938
4.83149
4.55761
4.61046
4.53891
4.77326
5.07758
5.30353
4.6612
3.87517
3.55976
3.18585
2.73552
2.46527
2.30422
2.48315
2.72021
3.18684
5.38248
4.78861
4.72099
4.3576
4.332
4.201
4.2627
5.13564
5.0677
5.55552
5.18293
4.44529
4.11563
3.68792
3.58901
2.63003
2.64295
2.83483
1.53749
5.40508
4.76575
4.5856
4.13749
3.95717
3.77561
3.62358
4.13525
5.04405
5.0323
5.23968
5.51356
6.54276
11.9282
7.30795
6.12871
3.71046
10.672
2.54545
5.58476
4.86568
4.5903
4.05638
3.80537
3.48342
3.2609
3.20721
3.91989
4.57333
4.80971
5.17405
10.5823
9.59863
6.06547
5.89253
7.51225
6.74298
2.97456
5.48661
4.7249
4.70169
4.20762
3.83326
3.40117
3.07838
2.78078
2.74987
3.25438
3.95596
4.98
12.2904
6.71066
3.60162
5.59308
5.47594
3.86854
0.88087
5.69044
4.74447
4.43811
4.01644
3.75204
3.6492
3.33649
2.90153
2.58027
2.7787
3.33277
6.7905
12.2495
6.9343
3.24897
4.47839
3.42681
3.72628
3.28898
5.92811
4.94192
4.80668
4.54799
4.30489
4.44088
4.43775
4.24259
4.16656
4.4416
5.45266
8.48829
9.77671
6.19964
3.05557
4.34785
3.0339
2.68002
1.84645
6.16789
5.56961
5.39884
5.06539
4.7116
4.81333
5.36009
5.73854
5.92269
6.28887
6.78919
8.42181
20.9343
5.66306
2.94957
4.14045
2.83599
2.37861
2.36105
6.45599
5.56865
5.41712
5.09538
4.96291
5.15526
5.70902
6.25392
6.59384
7.01346
7.67325
8.71795
13.0045
5.51594
2.93465
3.88144
2.70313
2.19927
2.47867
)
;
    }
    fineplugLeft
    {
        type            cyclicAMI;
        value           nonuniform List<scalar> 
20
(
0.14131
0.0384166
0.0258505
0.0278354
0.0299608
0.036804
0.0581975
0.132778
0.311003
1.02852
0.516153
0.476614
0.334285
0.4045
0.467564
0.516522
0.626229
0.573802
0.426444
0.283009
)
;
    }
    fineplugRight
    {
        type            cyclicAMI;
        value           nonuniform List<scalar> 
20
(
0.141586
0.0374239
0.0256133
0.026934
0.0292352
0.0372748
0.0619548
0.147171
0.406901
1.06598
0.542759
0.445702
0.357167
0.427646
0.454773
0.495094
0.593823
0.530143
0.40764
0.282665
)
;
    }
    inletOutletLeft
    {
        type            cyclicAMI;
        value           nonuniform List<scalar> 
20
(
0.14131
0.0384166
0.0258505
0.0278354
0.0299608
0.036804
0.0581975
0.132778
0.311003
1.02852
0.516153
0.476614
0.334285
0.4045
0.467564
0.516522
0.626229
0.573802
0.426444
0.283009
)
;
    }
    inletLeft
    {
        type            calculated;
        value           uniform 5.26945e-05;
    }
    inletWallsLeft
    {
        type            nutkWallFunction;
        Cmu             0.09;
        kappa           0.41;
        E               9.8;
        value           nonuniform List<scalar> 
40
(
0.0207618
0.021829
0.0235177
0.0262665
0.0286855
0.0305368
0.0316898
0.0321299
0.0319957
0.031592
0.0311882
0.0308414
0.0304318
0.0298423
0.0290764
0.0282947
0.0275944
0.0270696
0.026386
0.0259304
0.0129113
0.0116146
0.0102512
0.0088568
0.00752309
0.006257
0.00512939
0.0041967
0.00349035
0.00299239
0.00266962
0.00281171
0.00303563
0.00321995
0.0036531
0.00411184
0.00500802
0.00550638
0.0125854
0.0226255
)
;
    }
    inletFacesLeft
    {
        type            calculated;
        value           nonuniform List<scalar> 
800
(
0.338485
0.508039
0.681097
0.735738
0.596722
0.533651
0.430765
0.370918
0.550079
5.65609e+11
1.24242
5.88241e+10
1.55745e+10
3.74806e+09
8.59802e+08
1.75028e+08
3.43836e+07
1.07182e+07
0.015693
0.146745
0.344141
0.494305
0.635495
0.655773
0.536557
0.483954
0.49378
0.446231
0.239953
0.16206
0.112387
0.0568105
0.0195991
0.0122369
0.0134484
0.00309429
0.00465158
0.00194722
0.0135854
0.130557
0.35318
0.480128
0.593708
0.674718
0.533424
0.458063
0.353
0.246294
0.157915
0.119874
0.0907141
0.0934713
1.11536
0.100726
0.0576033
0.0677411
0.0289832
0.00534737
0.0110726
0.113324
0.360107
0.446244
0.530443
0.612349
0.541339
0.631254
0.57796
0.390591
0.23581
0.0967405
0.0693378
0.0604183
0.046624
0.0525944
0.0471428
0.031188
0.0222164
0.00375283
0.0083856
0.0960748
0.369687
0.418671
0.481886
0.643798
0.570985
0.368921
0.183213
0.113596
0.0796944
0.064729
0.0614213
0.0685554
0.0827925
0.0648179
0.050818
0.0422531
0.0206947
0.00376974
0.00625329
0.079875
0.38015
0.319271
0.391785
0.537849
0.418518
0.257966
0.163618
0.0825021
0.0622353
0.056282
0.0633667
0.0672727
0.0613482
0.0544568
0.0443273
0.0306659
0.0152403
0.00323472
0.00465632
0.0649731
0.38975
0.27661
0.204274
0.205124
0.151638
0.107407
0.0718773
0.0673958
0.0728414
0.0845087
0.0869563
0.0839086
0.0773816
0.0628226
0.0446387
0.0271861
0.00958725
0.00287233
0.00338908
0.052358
0.396898
0.249942
0.146921
0.145564
0.125551
0.0951311
0.0865181
0.0815937
0.083432
0.0793177
0.074639
0.0650911
0.0550873
0.040361
0.0268783
0.011648
0.00542621
0.00225229
0.00257252
0.0425987
0.402337
0.23557
0.106878
0.0914626
0.0843992
0.075715
0.0686722
0.0664726
0.0705496
0.0736815
0.0662591
0.0505155
0.039198
0.019618
0.00946885
0.00286344
0.00137575
0.00143828
0.00232991
0.0357718
0.408269
0.228887
0.103038
0.0840527
0.0811727
0.0879868
0.100043
0.157833
0.0868834
0.0497593
0.0315371
0.0197243
0.0125797
0.00340183
0.00122786
0.000452143
0.000203989
0.000968577
0.00221515
0.0314144
0.415728
0.221136
0.0897856
0.0604574
0.0382015
0.0267582
0.0187083
0.0155912
0.0058192
0.00314941
0.00250391
0.00255787
0.000871599
0.000190147
8.69849e-05
2.32763e-05
1.38552e-05
0.000749511
0.00234557
0.0290535
0.422848
0.188399
0.066802
0.0403845
0.0411644
2.42171e+08
2.6299e+07
0.00182648
0.00107716
0.00123692
0.00094144
0.000832302
3.49206e-05
4.40419e-06
3.88793e-06
4.78264e-07
1.30053e-06
0.00066821
0.00264336
0.0362995
0.424872
0.136408
0.0427667
0.0145949
0.00695883
0.00103132
0.000205624
0.000140852
0.000122267
3.69162e-05
1.56362e-05
6.40632e-06
4.80692e-07
5.66732e-08
7.29429e-08
2.50465e-07
1.02373e-06
0.000970681
0.00335508
0.0368381
0.417857
0.0937557
0.0227288
0.0120068
0.00224752
1.13365e+06
61013.6
4143.72
9.14713e-06
6.22479e-06
6.90927
1.39663e-07
3.67762e-09
1.96621e-10
1.39414e-07
1.14464e-06
2.21553e-06
0.00163746
0.00500473
0.0315987
0.400619
0.0561162
0.0114709
0.00287048
0.00117552
0.000117007
1.27489e-05
1.00678e-06
2.17904e-07
6.66537e-08
3.95521e-08
3.15462e-10
9.29297e-12
4.38647e-10
9.75057e-07
1.55413e-05
1.00625e-05
0.00171927
0.00412554
0.0422528
0.373698
0.0289488
0.00227557
0.000270996
6.37783e-05
2.02606e-06
2.77743e-07
4.04222e-09
7.21608e-11
1.93884e-12
5.84933e-14
1.09054e-15
7.67361e-14
9.7484e-08
4.48705e-05
9.35945e-05
3.4683e-05
0.000596713
0.00359758
0.0515869
0.338942
0.0025661
1.23783e-07
7.62375e-13
4.78889e-13
1.331e-13
1.58093e-13
1.14529e-13
8.41146e-14
8.42562e-14
7.42011e-14
6.94636e-14
1.62448e-09
3.74034e-06
0.000329428
0.000776343
0.000408716
0.000135667
0.00378159
0.0624192
0.300571
0.000345481
1.64177e-11
4.6893e-12
4.49914e-12
4.07677e-12
3.78871e-12
3.48904e-12
3.214e-12
2.95438e-12
2.88958e-12
1.8357e-10
3.40267e-06
0.000742826
0.0039553
0.00932231
0.014702
0.0194672
0.0245154
0.0662227
0.27806
5.15401e-06
2.96196e-10
2.76182e-10
2.69179e-10
2.58474e-10
2.5017e-10
2.4174e-10
2.33288e-10
2.25076e-10
2.16944e-10
2.08624e-10
1.98612e-10
1.84599e-10
1.66797e-10
3.2926e-10
2.10217e-07
5.57343e-05
0.00278662
0.174099
0.263245
5.90783e-08
5.4465e-08
5.43596e-08
5.43917e-08
5.43645e-08
5.43784e-08
5.44043e-08
5.4392e-08
5.43924e-08
5.43851e-08
5.44009e-08
5.44286e-08
5.43997e-08
5.43888e-08
5.43931e-08
5.44245e-08
5.61021e-08
4.72883e-07
0.369472
0.338485
0.508039
0.681097
0.735738
0.596722
0.533651
0.430765
0.370918
0.550079
5.65609e+11
1.24242
5.88241e+10
1.55745e+10
3.74806e+09
8.59802e+08
1.75028e+08
3.43836e+07
1.07182e+07
0.015693
0.146745
0.344141
0.494305
0.635495
0.655773
0.536557
0.483954
0.49378
0.446231
0.239953
0.16206
0.112387
0.0568105
0.0195991
0.0122369
0.0134484
0.00309429
0.00465158
0.00194722
0.0135854
0.130557
0.35318
0.480128
0.593708
0.674718
0.533424
0.458063
0.353
0.246294
0.157915
0.119874
0.0907141
0.0934713
1.11536
0.100726
0.0576033
0.0677411
0.0289832
0.00534737
0.0110726
0.113324
0.360107
0.446244
0.530443
0.612349
0.541339
0.631254
0.57796
0.390591
0.23581
0.0967405
0.0693378
0.0604183
0.046624
0.0525944
0.0471428
0.031188
0.0222164
0.00375283
0.0083856
0.0960748
0.369687
0.418671
0.481886
0.643798
0.570985
0.368921
0.183213
0.113596
0.0796944
0.064729
0.0614213
0.0685554
0.0827925
0.0648179
0.050818
0.0422531
0.0206947
0.00376974
0.00625329
0.079875
0.38015
0.319271
0.391785
0.537849
0.418518
0.257966
0.163618
0.0825021
0.0622353
0.056282
0.0633667
0.0672727
0.0613482
0.0544568
0.0443273
0.0306659
0.0152403
0.00323472
0.00465632
0.0649731
0.38975
0.27661
0.204274
0.205124
0.151638
0.107407
0.0718773
0.0673958
0.0728414
0.0845087
0.0869563
0.0839086
0.0773816
0.0628226
0.0446387
0.0271861
0.00958725
0.00287233
0.00338908
0.052358
0.396898
0.249942
0.146921
0.145564
0.125551
0.0951311
0.0865181
0.0815937
0.083432
0.0793177
0.074639
0.0650911
0.0550873
0.040361
0.0268783
0.011648
0.00542621
0.00225229
0.00257252
0.0425987
0.402337
0.23557
0.106878
0.0914626
0.0843992
0.075715
0.0686722
0.0664726
0.0705496
0.0736815
0.0662591
0.0505155
0.039198
0.019618
0.00946885
0.00286344
0.00137575
0.00143828
0.00232991
0.0357718
0.408269
0.228887
0.103038
0.0840527
0.0811727
0.0879868
0.100043
0.157833
0.0868834
0.0497593
0.0315371
0.0197243
0.0125797
0.00340183
0.00122786
0.000452143
0.000203989
0.000968577
0.00221515
0.0314144
0.415728