/*--------------------------------*- C++ -*----------------------------------*\
| =========                 |                                                 |
| \\      /  F ield         | OpenFOAM: The Open Source CFD Toolbox           |
|  \\    /   O peration     | Version:  4.1                                   |
|   \\  /    A nd           | Web:      www.OpenFOAM.org                      |
|    \\/     M anipulation  |                                                 |
\*---------------------------------------------------------------------------*/
FoamFile
{
    version     2.0;
    format      ascii;
    class       volScalarField;
    location    "3";
    object      p;
}
// * * * * * * * * * * * * * * * * * * * * * * * * * * * * * * * * * * * * * //

dimensions      [0 2 -2 0 0 0 0];

internalField   nonuniform List<scalar> 
1280
(
0.0624022
0.192848
0.209763
0.459997
0.88929
0.791102
1.03058
1.4501
1.83676
1.67693
1.79373
2.64367
2.14407
1.85207
2.9675
1.82196
1.23277
1.3277
2.18653
-4.07487
2.7404
10.0653
14.6667
16.2698
17.6601
21.1148
1.84145
7.92439
6.2501
6.46871
6.3692
5.9184
5.81584
5.60358
5.59104
5.63879
5.52358
6.12108
5.2995
5.2333
-14.0177
-12.4867
-8.09208
-5.27719
-0.873199
-1.05483
-0.869615
-0.478453
-0.351662
-0.0942847
-0.129713
-0.249214
-0.436436
-0.838691
-1.02572
-0.839912
-5.27708
-8.11707
-12.5198
-13.9487
4.6558
4.77688
5.60678
5.00352
5.10604
5.03999
5.02874
5.19746
5.26891
5.70474
5.80022
5.57215
7.20097
2.34256
20.7487
17.3899
16.0597
14.4868
9.91985
2.62788
-4.14407
2.12207
1.31457
1.21764
1.80428
2.96955
1.86489
2.14105
2.64351
1.80038
1.66915
1.82969
1.45035
1.0354
0.790326
0.880364
0.478905
0.236159
0.194762
0.0613055
0.0260403
0.0997534
0.130593
0.189225
0.246136
0.32086
0.430528
0.605313
0.707513
0.150813
-1.23018
-0.557941
-5.57591
-4.6875
-0.957037
1.22382
2.13589
0.922528
0.418498
0.0457817
0.209947
0.27115
0.392178
0.490748
0.588324
0.676588
0.756792
0.564568
-0.189043
-0.985046
-0.71979
-6.64317
-5.4746
0.449325
4.19593
5.15608
2.41957
1.20838
0.0747012
0.353641
0.46568
0.676358
0.850757
1.01249
1.12315
1.16719
0.78835
-0.287178
-1.41229
-2.47975
-5.97916
-6.99988
1.38901
6.00778
7.11072
3.45031
1.98291
0.0832425
0.453397
0.59458
0.864122
1.07138
1.21326
1.17971
0.940109
0.200409
-0.987888
-1.69141
-3.09388
-7.09695
-9.70004
1.71411
8.05775
9.49101
4.87287
2.9421
0.0864302
0.546471
0.708228
1.02379
1.24587
1.34063
1.12751
0.685674
-0.0199897
-0.773
-1.12423
-3.6606
-10.5613
-12.2973
2.36337
10.7867
11.8819
5.54392
3.20403
0.0769505
0.615745
0.780355
1.11783
1.31299
1.28006
0.919265
0.544351
0.318514
0.336731
0.367323
-3.5985
-14.3109
-13.9027
2.65566
13.6361
14.4686
7.59004
4.47853
0.0582295
0.667288
0.81508
1.14128
1.3035
1.1847
0.843445
0.684023
1.06217
1.6853
2.0084
-2.23386
-14.3589
-11.8269
4.50698
17.3345
15.6015
4.89489
2.54705
0.0307328
0.699522
0.824833
1.1515
1.29186
1.13351
0.890393
1.03326
1.91818
2.87016
3.29433
-0.496556
-11.9189
-11.0495
3.50638
20.7743
19.1532
12.7496
2.9194
0.000647967
0.710697
0.812978
1.14421
1.26635
1.13018
0.957272
1.4421
2.58385
3.42865
3.5577
0.565172
-6.94142
-6.11363
6.60531
20.7599
20.6939
28.2751
16.9452
-0.0176935
0.723741
0.819953
1.15886
1.29104
1.18387
1.03167
1.70188
2.94857
3.685
3.55756
0.681738
-5.6499
-4.92824
7.31784
20.6764
24.1085
34.6197
16.491
-0.0145258
0.72433
0.820171
1.1558
1.28489
1.17857
1.03311
1.71262
2.97147
3.70744
3.55542
0.634489
-5.72835
-5.03439
7.29023
20.781
24.2162
34.676
16.5054
0.0080723
0.712482
0.815015
1.14378
1.26904
1.12672
0.932193
1.38134
2.56986
3.54292
3.76669
0.766155
-6.7674
-6.08226
6.12506
20.2755
20.6991
28.448
16.9341
0.0388823
0.698903
0.821859
1.14048
1.28018
1.1179
0.848527
0.939938
1.86899
2.96024
3.55339
-0.0198884
-11.4906
-11.2129
2.53768
20.2518
19.3463
12.9883
2.86044
0.0670137
0.667434
0.814047
1.13267
1.29423
1.17408
0.791263
0.584257
0.971869
1.70731
2.2272
-1.63343
-14.2525
-11.9345
3.48805
17.0685
15.6191
4.90184
2.47738
0.0859138
0.617338
0.780209
1.10711
1.29539
1.25819
0.858975
0.458026
0.218321
0.314346
0.544324
-2.92634
-14.6571
-14.0478
1.68422
13.346
14.3834
7.59257
4.45327
0.0957602
0.550706
0.711431
1.01877
1.23654
1.32503
1.08768
0.625073
-0.108287
-0.816597
-0.99614
-2.94122
-10.964
-12.7391
1.56298
10.5205
11.762
5.53171
3.18248
0.0922168
0.459567
0.600328
0.862575
1.06343
1.19633
1.14892
0.899257
0.143742
-1.02385
-1.58741
-2.25561
-6.68672
-10.2336
1.09861
7.80878
9.37173
4.87314
2.93204
0.0825047
0.360772
0.473137
0.678447
0.847419
1.00048
1.0997
1.14177
0.769701
-0.258689
-1.22487
-1.80645
-4.74798
-7.50054
1.008
5.7954
7.00665
3.4565
1.97524
0.0504069
0.214324
0.275438
0.393089
0.488463
0.579626
0.659317
0.739591
0.559488
-0.124839
-0.798148
-0.603284
-5.37626
-5.68596
0.200332
4.03247
5.07962
2.43187
1.20974
0.0271807
0.101749
0.133627
0.191845
0.248049
0.320157
0.425659
0.59965
0.716694
0.250078
-1.0764
-0.604533
-5.10052
-4.76433
-1.10969
1.13409
2.09221
0.92755
0.423892
103.504
103.207
102.072
101.339
100.407
99.3903
98.5111
97.2184
95.7547
94.1115
92.6599
91.1346
89.9132
88.5827
87.5659
86.4334
85.7254
84.8355
84.4456
83.6561
81.8785
82.8843
82.5367
82.9306
83.055
83.2735
83.5044
83.5525
83.648
83.5974
83.5834
83.4293
83.3261
83.1014
82.9748
82.7209
82.6108
82.3534
82.3079
82.0227
88.8668
89.3955
88.7938
88.8692
88.7257
88.7654
88.7679
88.6774
88.5811
88.4195
88.2864
88.1084
87.9758
87.7923
87.669
87.4865
87.3804
87.2013
87.1299
86.8933
83.6768
84.5979
84.1554
84.4714
84.5892
84.888
85.12
85.2476
85.3776
85.4505
85.5401
85.5975
85.6695
85.7139
85.774
85.81
85.861
85.8933
85.9339
85.9419
83.7965
84.6815
84.2264
84.5011
84.615
84.8306
85.0031
85.0758
85.186
85.2523
85.3361
85.4024
85.4726
85.534
85.5944
85.6518
85.7015
85.7568
85.7905
85.825
82.3418
83.39
83.0091
83.3808
83.4954
83.6319
83.8016
83.867
83.9988
84.0902
84.1983
84.2977
84.3963
84.496
84.5879
84.6877
84.7672
84.8669
84.9196
85.0035
81.0601
82.2894
82.0056
82.4898
82.5999
82.7004
82.8703
82.9338
83.0622
83.1677
83.2848
83.4058
83.5268
83.6581
83.7818
83.924
84.0377
84.1912
84.2667
84.4173
76.7865
78.3289
78.1876
78.8647
79.0867
79.3019
79.5842
79.7791
80.0141
80.2433
80.4763
80.7193
80.9622
81.2187
81.464
81.7369
81.9626
82.2605
82.4136
82.7408
69.0342
70.9249
70.9383
71.7561
72.1973
72.5748
73.0615
73.4631
73.8954
74.3304
74.7653
75.211
75.655
76.1137
76.5538
77.0313
77.4336
77.9502
78.2274
78.8213
58.0485
60.2035
60.4747
61.2351
61.9987
62.4456
63.1692
63.7405
64.376
65.0124
65.6522
66.307
66.9613
67.6341
68.2818
68.9774
69.5716
70.3206
70.7426
71.6339
45.8207
47.968
48.5507
48.9961
50.0823
50.3738
51.2819
51.8394
52.5722
53.2711
53.9893
54.7306
55.4778
56.2529
57.0029
57.8123
58.5068
59.3854
59.901
60.9177
35.1379
36.982
37.7734
37.7593
39.0897
39.0096
40.0422
40.3738
41.0792
41.6544
42.2921
42.9496
43.6166
44.3191
44.9984
45.7453
46.3731
47.2028
47.6547
48.6592
27.0615
28.5884
29.6412
29.213
30.9206
30.4906
31.767
31.9319
32.7145
33.2257
33.8375
34.4327
35.021
35.6255
36.187
36.7949
37.2679
37.9141
38.1685
38.9829
17.0485
18.5003
20.3587
19.6907
22.2551
21.8023
23.6813
24.0862
25.2968
26.1468
27.1206
28.0542
28.9646
29.8657
30.6971
31.5257
32.1862
32.9224
33.2543
33.9084
-4.17837
-3.36909
-0.338642
-1.42494
2.24723
1.89396
4.5636
5.50968
7.4288
9.01121
10.7666
12.5319
14.3151
16.1303
17.9019
19.6806
21.2868
22.9273
24.1243
25.898
-26.5377
-28.5422
-25.9672
-29.3611
-26.5823
-28.6467
-27.267
-27.701
-27.0411
-26.673
-26.049
-25.3635
-24.5833
-23.635
-22.4842
-20.8527
-19.0292
-16.2447
-14.0672
-10.8679
-4.15295
-9.1286
-7.8799
-15.2719
-15.997
-21.5442
-24.3911
-28.6476
-32.0874
-35.7017
-38.9848
-42.0651
-44.7352
-46.694
-47.5981
-47.4619
-47.1386
-46.6418
-46.2644
-44.1995
20.813
13.1426
20.1613
12.02
12.8406
8.16175
5.54454
1.55784
-2.19382
-6.29909
-10.4483
-14.6797
-18.7622
-22.3324
-24.8256
-26.1774
-27.1098
-27.7647
-29.2433
-29.8034
46.3495
24.249
32.4932
21.3963
18.8545
12.2793
7.50911
2.38214
-1.99009
-5.85889
-8.95886
-11.2367
-12.5613
-12.7299
-11.4132
-8.92477
-5.96642
-2.34866
0.711785
1.24773
725.109
643.006
594.272
538.181
489.336
442.109
398.143
356.538
317.308
280.164
244.938
211.461
179.601
149.412
121.063
93.7064
67.1514
45.4046
20.9762
-16.6256
723.141
641.04
592.308
536.219
487.376
440.15
396.186
354.583
315.354
278.21
242.985
209.508
177.647
147.457
119.106
91.7463
65.1855
43.431
18.9981
-18.6009
44.4261
22.3282
30.5734
19.4784
16.938
10.364
5.5947
0.468088
-3.90431
-7.77395
-10.8754
-13.1553
-14.4823
-14.6525
-13.3368
-10.8523
-7.89778
-4.27873
-1.21517
-0.679078
18.9253
11.2558
18.274
10.1328
10.9535
6.2741
3.65642
-0.331443
-4.0848
-8.1919
-12.3431
-16.5761
-20.6595
-24.2289
-26.7196
-28.0753
-29.0244
-29.6693
-31.145
-31.7171
-6.0564
-11.0394
-9.79176
-17.187
-17.9139
-23.4617
-26.309
-30.5652
-34.0054
-37.6198
-40.9019
-43.9804
-46.6471
-48.6014
-49.5024
-49.3735
-49.0592
-48.5781
-48.2139
-46.1641
-28.6332
-30.6474
-28.0825
-31.4791
-28.7149
-30.7886
-29.4212
-29.8684
-29.2225
-28.8706
-28.2638
-27.5972
-26.8374
-25.9094
-24.7769
-23.1589
-21.3427
-18.5423
-16.3666
-13.1675
-6.33003
-5.52294
-2.49114
-3.57932
0.0921996
-0.261505
2.40762
3.35342
5.27266
6.85548
8.6118
10.3785
12.1638
13.9816
15.7566
17.5395
19.1508
20.7967
21.9987
23.7814
14.9452
16.3994
18.2614
17.5935
20.1613
19.7112
21.5925
22.0007
23.214
24.0674
25.0444
25.9813
26.8949
27.7992
28.6338
29.4654
30.1291
30.868
31.2017
31.8578
24.9999
26.5289
27.5823
27.1586
28.8606
28.4362
29.7124
29.8805
30.6637
31.1762
31.7893
32.3862
32.9762
33.5822
34.1453
34.7547
35.2293
35.8768
36.132
36.9471
33.0871
34.9345
35.7253
35.7143
37.0451
36.9627
37.9948
38.3279
39.0362
39.6146
40.2545
40.9135
41.5819
42.286
42.9667
43.7149
44.3442
45.1747
45.6275
46.6345
43.8265
45.979
46.5637
47.0132
48.1021
48.3948
49.3028
49.8592
50.587
51.2819
51.9999
52.7409
53.4867
54.2606
55.0097
55.8184
56.5126
57.3903
57.906
58.9227
56.1009
58.2566
58.5293
59.2897
60.0564
60.5032
61.2276
61.7958
62.4271
63.0564
63.6892
64.3365
64.9827
65.6488
66.2911
66.9831
67.5746
68.3204
68.7406
69.6276
67.0588
68.946
68.9588
69.7738
70.2142
70.5913
71.0766
71.4739
71.9011
72.3282
72.7537
73.1889
73.6217
74.0716
74.5047
74.9792
75.3796
75.8951
76.171
76.7618
74.783
76.3263
76.1866
76.8679
77.0886
77.3095
77.5932
77.7887
78.022
78.2462
78.4714
78.704
78.9357
79.1837
79.4238
79.6965
79.9233
80.2247
80.3792
80.7095
79.146
80.3803
80.1072
80.6001
80.7097
80.8165
80.9843
81.0479
81.1727
81.275
81.387
81.4994
81.608
81.7272
81.8425
81.9827
82.0973
82.2556
82.3335
82.4898
80.5026
81.5539
81.1853
81.5686
81.6741
81.8074
81.9696
82.0314
82.1575
82.2444
82.3481
82.4434
82.5373
82.6315
82.7192
82.8189
82.9003
83.0049
83.0607
83.1497
81.9764
82.8592
82.4148
82.6954
82.7974
83.0084
83.1773
83.2519
83.364
83.4331
83.5201
83.5886
83.6621
83.7255
83.7882
83.8497
83.9035
83.9652
84.0031
84.0434
81.8705
82.7961
82.3665
82.6895
82.7979
83.0942
83.3261
83.4557
83.5903
83.6632
83.753
83.812
83.8969
83.9569
84.033
84.0838
84.1472
84.193
84.2426
84.2615
87.3206
87.8669
87.2847
87.3747
87.2316
87.2775
87.2867
87.2052
87.1261
86.9809
86.8771
86.7021
86.5782
86.3895
86.2666
86.083
85.9747
85.7993
85.7286
85.4977
80.8914
81.8934
81.5515
81.945
82.055
82.2579
82.4628
82.4707
82.5188
82.411
82.3576
82.1781
82.0679
81.8368
81.7041
81.4474
81.3318
81.0733
81.0234
80.734
101.886
101.627
100.529
99.831
98.9284
97.9488
97.0937
95.8343
94.3861
92.8318
91.4347
89.9048
88.5982
87.227
86.1867
85.048
84.3452
83.4717
83.106
82.3489
)
;

boundaryField
{
    outletWall
    {
        type            fixedValue;
        value           uniform 0;
    }
    fineWalls
    {
        type            zeroGradient;
    }
    fineFrontAndBack
    {
        type            zeroGradient;
    }
    fineplugLeft
    {
        type            cyclicAMI;
        value           nonuniform List<scalar> 
20
(
67.9715
68.6164
69.0926
69.685
70.2745
71.1709
71.9869
73.0937
74.0913
75.4018
76.5829
77.8538
79.3596
87.519
83.7352
83.8575
84.3255
84.5913
84.5787
83.3511
)
;
    }
    fineplugRight
    {
        type            cyclicAMI;
        value           nonuniform List<scalar> 
20
(
66.8103
67.4401
67.8987
68.4768
69.0596
69.9574
70.7873
71.9181
72.9777
74.2887
75.4255
76.6233
78.1076
86.3198
82.5088
82.6207
83.0767
83.3205
83.2859
82.0345
)
;
    }
    inletOutletLeft
    {
        type            cyclicAMI;
        value           nonuniform List<scalar> 
20
(
67.9715
68.6164
69.0926
69.685
70.2745
71.1709
71.9869
73.0937
74.0913
75.4018
76.5829
77.8538
79.3596
87.519
83.7352
83.8575
84.3255
84.5913
84.5787
83.3511
)
;
    }
    inletLeft
    {
        type            zeroGradient;
    }
    inletWallsLeft
    {
        type            zeroGradient;
    }
    inletFacesLeft
    {
        type            zeroGradient;
    }
    inletOutletRight
    {
        type            cyclicAMI;
        value           nonuniform List<scalar> 
20
(
66.8103
67.4401
67.8987
68.4768
69.0596
69.9574
70.7873
71.9181
72.9777
74.2887
75.4255
76.6233
78.1076
86.3198
82.5088
82.6207
83.0767
83.3205
83.2859
82.0345
)
;
    }
    inletRight
    {
        type            zeroGradient;
    }
    inletWallsRight
    {
        type            zeroGradient;
    }
    inletFacesRight
    {
        type            zeroGradient;
    }
}


// ************************************************************************* //
