/*--------------------------------*- C++ -*----------------------------------*\
| =========                 |                                                 |
| \\      /  F ield         | OpenFOAM: The Open Source CFD Toolbox           |
|  \\    /   O peration     | Version:  4.1                                   |
|   \\  /    A nd           | Web:      www.OpenFOAM.org                      |
|    \\/     M anipulation  |                                                 |
\*---------------------------------------------------------------------------*/
FoamFile
{
    version     2.0;
    format      ascii;
    class       surfaceScalarField;
    location    "3";
    object      phi;
}
// * * * * * * * * * * * * * * * * * * * * * * * * * * * * * * * * * * * * * //

dimensions      [0 3 -1 0 0 0 0];

internalField   nonuniform List<scalar> 
2360
(
-618.615
225.809
-844.425
225.81
225.81
1307.04
-1081.23
1307.04
1307.04
1307.04
2480.01
-1172.97
2480.01
2480.01
3753.23
-1273.22
3753.23
3753.23
5096.39
-1343.16
5096.39
5096.39
6983.26
-1886.87
6983.25
6983.25
7799.74
8902.35
9950.4
10933.4
11881.6
12814.5
11903.1
1842.45
12841.6
13783
14727.5
15676
16636
17605.4
18591.2
19584.7
20594.4
21604.2
22636.8
23623.7
24640.9
7252.62
17388.3
7252.62
7252.62
7252.62
-1364.94
8617.57
-1364.94
-1364.94
-1364.95
40.3226
-1405.27
40.3199
40.3226
1375.53
-1335.21
1375.53
1375.53
1375.53
-7273.33
8648.85
-7273.32
-7273.31
-7273.31
-24644.7
17371.4
-23629.4
-22643.8
-21611.7
-20602.4
-19593.1
-18599.7
-17613.6
-16643.3
-15682.2
-14732.3
-13785.5
-12843.2
-11905.4
-12821.4
1845.7
-11889.5
-10941.9
-9958.47
-8909.49
-7806.86
-6990.61
-6990.61
-6990.61
-5076.8
-1913.82
-5076.79
-5076.8
-3706.41
-1370.38
-3706.42
-3706.42
-2408.74
-1297.68
-2408.74
-2408.74
-1212.71
-1196.03
-1212.71
-1212.71
-1212.71
-104.024
-1108.68
-104.026
-104.025
764.381
-868.407
-1185.59
-2117.31
-1359.82
-3161.18
-1580.63
-3661.56
-1873.25
-4263.32
-2273.53
-4771.05
-2866.71
-5180.75
-3753.09
-5487.22
-4963.02
-5987.7
-6266.04
-6999.55
-6802.3
-8137.2
-5237.95
-7185.78
-2399.49
-675.275
-1055.57
7969.5
-426.852
12833.8
74.2716
13617.9
526.077
12190.2
823.655
8469.37
1011.15
5645.48
115.762
-1551.96
-2005.19
-1765.9
-2947.24
-2051.9
-3375.56
-2452.9
-3862.32
-3048.82
-4175.13
-3978.68
-4250.89
-5343.13
-4122.78
-7072.02
-4258.81
-8793.99
-5277.57
-9589.02
-7342.18
-7881.61
-8893.18
-3334.64
-5222.25
-795.841
5430.7
-597.854
12635.8
-202.115
13222.2
422.821
11565.3
962.571
7929.61
1281.94
5326.11
289.016
-1798.62
-1876.06
-2038.35
-2707.52
-2380.17
-3033.74
-2891.43
-3351.05
-3688.43
-3378.14
-4895.54
-3043.77
-6481.18
-2537.14
-8166.26
-2573.74
-9520.97
-3922.86
-10035.3
-6827.81
-8871.81
-10056.7
-4915.05
-9179.02
-1189.49
1705.14
-606.506
12052.8
-621.558
13237.3
181.729
10762
1027.76
7083.58
1441.02
4912.85
534.016
-2075.57
-1718.17
-2361.51
-2421.58
-2789.09
-2606.15
-3465.16
-2674.98
-4516.06
-2327.24
-5954.44
-1605.39
-7486.8
-1004.78
-8588.57
-1471.96
-8899.42
-3612.01
-8521.04
-7206.19
-7677.99
-10899.8
-5714.5
-11142.5
-2348.44
-1660.92
-899.699
10604.1
-1031.97
13369.5
-260.771
9990.78
993.999
5828.81
1572.31
4334.54
808.661
-2364.44
-1525.9
-2709.55
-2076.47
-3244.71
-2070.99
-4097.57
-1822.12
-5321.67
-1103.14
-6689.68
-237.377
-7624.02
-70.4394
-7625.25
-1470.73
-6853.86
-4383.41
-6108.19
-7951.86
-6070.1
-10937.8
-6107.58
-11105
-4129.87
-3638.63
-1967.32
8441.52
-1447.76
12850
-716.325
9259.34
1036.43
4076.06
1738.52
3632.45
1176.8
-2675.66
-1290.93
-3091.04
-1661.08
-3722.2
-1439.83
-4642.88
-901.441
-5712.34
-33.6814
-6530.27
580.555
-6609.83
9.11708
-5923.24
-2157.32
-5194.51
-5112.13
-5364.38
-7781.99
-6719.87
-9582.36
-8069.98
-9754.91
-6830.59
-4878.02
-3919.76
5530.68
-2337.88
11268.1
-1348.41
8269.87
702.625
2025.03
1803.22
2531.86
1066.22
-3012.42
-1010.6
-3480.29
-1193.22
-4108.78
-811.342
-4851.23
-158.988
-5475.92
591.007
-5685.42
790.057
-5298.61
-377.696
-4770.65
-2685.29
-4972.28
-4910.5
-6497.58
-6256.68
-9107.63
-6972.3
-11319.3
-7543.2
-10533.7
-5663.66
-6800.67
1797.64
-3428.1
7895.51
-908.787
5750.56
1778.94
-662.698
3920.71
390.086
6832.63
-3360.4
-694.522
-3824.21
-729.411
-4312.95
-322.6
-4723.57
251.627
-4898.67
766.108
-4731.82
623.208
-4402.64
-706.875
-4558.69
-2529.23
-5771.37
-3697.83
-8160.33
-3867.72
-11270.6
-3862.06
-14088.9
-4724.88
-14644
-5108.52
-11270.2
-1576.22
-6776.04
3401.39
-5431.73
4406.25
-8291.07
2196.64
-12544
4643.04
11660
-3685.36
-364.808
-4082.42
-332.351
-4356.18
-48.84
-4422.96
318.408
-4231.68
574.825
-3925.37
316.901
-4013.12
-619.129
-4975.27
-1567.08
-6798.05
-1875.04
-9129.25
-1536.53
-11713.6
-1277.72
-14603.2
-1835.32
-17249.2
-2462.45
-17588.8
-1236.69
-15442.1
1254.69
-13882.4
2846.62
-14300.6
2614.78
-13520.6
3863.07
6788.27
-3933.64
-37.8434
-4236.73
-29.2616
-4267.48
-18.0898
-3959.93
10.8644
-3437.35
52.2382
-3222.52
102.078
-3962.97
121.314
-5602.19
72.1427
-7427.5
-49.7292
-8774.99
-189.039
-9839.7
-213.007
-11604.2
-70.7804
-14179.5
112.78
-15647
230.888
-14619.9
227.558
-11891.3
117.969
-9284.27
7.78783
-5436.25
15.0569
16.8097
-3924.65
288.938
-4228.08
274.163
-4256.48
10.3085
-3925.97
-319.642
-3337.77
-535.966
-3027.44
-208.252
-3717.98
811.858
-5404.93
1759.09
-7344.42
1889.76
-8794.16
1260.7
-9858.09
850.919
-11480.3
1551.42
-13892.2
2524.65
-15333.5
1672.27
-14408.7
-697.322
-11768.8
-2521.86
-9189.38
-2571.67
-5350.27
-3824.06
-6738.73
-3652.92
618.077
-4052.16
673.41
-4330.26
288.402
-4388.81
-261.09
-4148.29
-776.481
-3719.89
-636.654
-3663.27
755.231
-4581.81
2677.64
-6526.7
3834.65
-9093.83
3827.83
-11831.5
3588.6
-14651.4
4371.28
-17211.2
5084.44
-17717.7
2178.77
-15735.7
-2679.33
-14039.6
-4217.92
-14308.5
-2302.72
-13503.3
-4629.34
-11624.4
-3307.48
931.1
-3768.39
1134.32
-4255.77
775.787
-4663.26
146.393
-4826.02
-613.713
-4602.66
-860.021
-4143.91
296.49
-4169.17
2702.89
-5359.33
5024.81
-7875.31
6343.81
-11167.6
6880.88
-14130.6
7334.28
-14919.9
5873.76
-11735.7
-1005.39
-7168.36
-7246.71
-5591.61
-5794.67
-8340.38
446.056
-12594.7
-375.047
-6830.82
-2949.72
1206.95
-3411.87
1596.47
-4035.03
1398.95
-4772.84
884.202
-5397.46
10.9113
-5600.71
-656.776
-5153.05
-151.171
-4499.12
2048.96
-4583.73
5109.42
-6089.59
7849.68
-8807.25
9598.53
-11240.8
9767.8
-10809.5
5442.51
-7148.72
-4666.19
-3570
-10825.4
-964.107
-8400.56
1687.29
-2205.34
3891.1
-2578.85
-1097.27
-2609.4
1437.42
-3018.62
2005.7
-3641.25
2021.57
-4552.14
1795.09
-5619.19
1077.96
-6446.73
170.768
-6522.91
-74.9874
-5768.79
1294.83
-4918.08
4258.71
-4978.42
7910.02
-6329.35
10949.5
-7871.64
11310.1
-7020.59
4591.47
-4140.97
-7545.82
-2375.35
-12591
-1386.52
-9389.4
605.239
-4197.1
1750.89
-3724.5
-1233.25
-2296.76
1626.32
-2638.42
2347.35
-3167.4
2550.56
-4012
2639.69
-5237
2302.95
-6624.04
1557.81
-7586.51
887.48
-7573.22
1281.55
-6710.16
3395.65
-5824.23
7024.09
-5706.28
10831.5
-5907.09
11510.9
-4300.63
2985.01
-2092.63
-9753.82
-1415.2
-13268.5
-754.294
-10050.3
965.392
-5916.79
1691.45
-4450.56
-884.949
-2003.93
1782.14
-2289.96
2633.39
-2716.46
2977.05
-3387.78
3311.02
-4436.99
3352.16
-5890.62
3011.44
-7458.41
2455.27
-8586.02
2409.15
-8871.03
3680.66
-8410.62
6563.68
-7539.54
9960.44
-5812.83
9784.19
-2565.88
-261.947
-932.648
-11387
-1002.08
-13199
-303.682
-10748.7
946.392
-7166.86
1533.91
-5038.08
-624.258
-1721.95
1910.3
-1964.5
2875.94
-2309.75
3322.3
-2820.67
3821.94
-3615.36
4146.84
-4827.52
4223.6
-6436.53
4064.29
-8158.82
4131.44
-9545.47
5067.31
-10089.6
7107.85
-9046.52
8917.31
-5372.01
6109.68
-1387.94
-4246.01
-566.189
-12208.8
-631.054
-13134.2
150.2
-11530
995.12
-8011.78
1412.14
-5455.11
-385.081
-1465.41
2023.35
-1685.11
3095.65
-1978.45
3615.63
-2384.13
4227.63
-2981.04
4743.75
-3911.85
5154.42
-5287.07
5439.51
-7045.68
5890.05
-8823.29
6844.92
-9729.4
8013.97
-8228.43
7416.34
-3710.14
1591.39
-821.888
-7134.26
-577.122
-12453.6
-224.748
-13486.5
404.144
-12158.9
941.588
-8549.22
1261.36
-5774.89
-204.949
-1097.42
-1278.55
-1508.77
-1810.21
-2217.04
-2814.59
-3707.34
-4934.35
-6281.33
-6925.96
-5523.08
-2618.36
-1086.02
-445.996
57.7361
513.971
812.766
1000.01
99.8969
-916.406
246.665
-1249.39
362.194
-1163.59
446.604
-1067.38
504.194
-1005.8
540.981
-969.778
557.007
-947.035
560.811
-942.314
561.438
-942.006
558.809
-941.932
548.415
-938.068
526.612
-938.288
492.206
-934.974
445.559
-939.154
388.112
-936.101
322.192
-943.765
250.759
-938.331
174.347
-956.186
99.5938
-912.175
-917.621
47.7833
-964.2
130.646
-1332.26
208.873
-1241.83
258.671
-1117.19
275.506
-1022.65
270.712
-964.996
263.558
-939.891
251.956
-930.725
237.62
-927.682
222.122
-926.446
207.245
-923.202
191.888
-922.943
177.165
-920.263
160.611
-922.61
144.267
-919.768
123.894
-923.401
103.563
-918.008
74.8211
-927.451
62.9587
-900.321
-854.663
22.8398
-987.052
130.557
-1439.99
226.251
-1337.53
279.266
-1170.22
295.414
-1038.81
291.313
-960.906
279.124
-927.714
267.121
-918.734
256.079
-916.652
243.616
-913.995
229.925
-909.523
213.684
-906.713
196.685
-903.276
176.792
-902.728
156.744
-899.73
133.066
-899.732
109.9
-894.85
79.3454
-896.904
60.0616
-881.045
-794.601
27.3257
-1014.38
122.243
-1534.91
189.875
-1405.16
216.054
-1196.4
217.914
-1040.67
210.936
-953.931
205.368
-922.15
201.351
-914.722
197.825
-913.129
192.815
-908.99
186.29
-903.001
177.42
-897.847
167.103
-892.962
154.153
-889.781
140.074
-885.655
122.826
-882.488
104.385
-876.41
78.7794
-871.301
57.1095
-859.377
-737.492
43.0292
-1057.42
108.969
-1600.86
140.65
-1436.85
150.258
-1206.02
157.936
-1048.36
168.351
-964.359
180.073
-933.887
188.996
-923.659
194.157
-918.303
195.221
-910.068
192.761
-900.554
186.701
-891.8
177.936
-884.209
166.051
-877.907
152.107
-871.721
134.901
-865.291
115.28
-856.797
88.4878
-844.516
58.6644
-829.562
-678.827
58.4759
-1115.9
86.5881
-1628.97
97.1678
-1447.43
121.021
-1229.87
158.321
-1085.66
196.562
-1002.6
226.028
-963.351
244.167
-941.797
252.769
-926.905
254.446
-911.745
250.76
-896.866
242.39
-883.431
230.142
-871.959
214.173
-861.939
195.1
-852.646
172.325
-842.515
145.779
-830.251
111.49
-810.225
68.6285
-786.699
-610.199
59.2553
-1175.16
68.3609
-1638.08
99.2282
-1478.3
163.224
-1293.87
235.966
-1158.4
298.797
-1065.43
341.666
-1006.22
365.511
-965.647
374.489
-935.885
373.322
-910.583
364.608
-888.154
349.661
-868.487
329.341
-851.64
304.113
-836.713
274.416
-822.951
239.86
-807.961
199.951
-790.341
150.841
-761.115
89.1751
-725.033
-521.024
41.761
-1216.91
69.8802
-1666.19
143.025
-1551.44
235.028
-1385.86
324.125
-1247.49
398.614
-1139.92
451.99
-1059.59
484.215
-997.865
498.361
-950.021
498.744
-910.959
488.425
-877.826
469.222
-849.278
442.249
-824.658
408.19
-802.648
367.51
-782.262
319.823
-760.268
264.518
-735.028
197.652
-694.242
115.213
-642.585
-405.811
21.7175
-1238.63
94.4033
-1738.88
194.092
-1651.13
285.156
-1476.93
370.397
-1332.74
445.141
-1214.67
506.238
-1120.69
549.832
-1041.47
575.578
-975.772
585.168
-920.555
580.728
-873.39
563.952
-832.507
536.09
-796.799
497.967
-764.53
450.144
-734.441
392.226
-702.353
323.633
-666.435
240.711
-611.321
139.127
-541.001
-266.684
24.5645
-1263.19
127.858
-1842.18
220.894
-1744.17
289.597
-1545.63
360.78
-1403.92
428.954
-1282.84
493.326
-1185.06
546.339
-1094.48
585.289
-1014.72
608.633
-943.896
616.394
-881.146
609.077
-825.187
587.39
-775.106
551.885
-729.022
503.026
-685.575
440.491
-639.814
363.889
-589.827
270.514
-517.94
153.819
-424.295
-112.864
61.3293
-1324.52
156.454
-1937.3
215.799
-1803.51
254.847
-1584.68
310.102
-1459.17
366.492
-1339.23
425.974
-1244.54
479.066
-1147.57
523.982
-1059.63
556.792
-976.705
575.839
-900.19
579.915
-829.262
568.417
-763.605
540.995
-701.598
497.706
-642.282
438.283
-580.388
362.504
-514.045
268.387
-423.819
144.364
-300.261
31.4998
114.966
-1439.48
172.504
-1994.83
190.529
-1821.53
206.12
-1600.27
246.208
-1499.25
284.958
-1377.97
328.438
-1288.01
367.346
-1186.47
403.125
-1095.4
431.51
-1005.08
450.728
-919.398
458.514
-837.041
453.282
-758.364
433.933
-682.242
400.19
-608.53
351.521
-531.711
287.132
-449.649
204.568
-341.248
91.8869
-187.561
123.387
156.341
-1595.82
168.994
-2007.48
163.819
-1816.35
171.731
-1608.18
200.543
-1528.06
223.353
-1400.77
248.621
-1313.28
269.645
-1207.49
289.263
-1115.01
304.747
-1020.56
315.206
-929.853
318.92
-840.75
314.593
-754.032
301.124
-668.767
277.586
-584.988
242.039
-496.158
191.851
-399.458
125.544
-274.935
47.746
-109.752
171.133
171.948
-1767.76
151.43
-1986.96
154.428
-1819.34
172.514
-1626.25
201.938
-1557.47
225.169
-1424
248.686
-1336.79
269.672
-1228.46
289.125
-1134.46
306.246
-1037.67
320.706
-944.305
331.741
-851.775
337.766
-760.05
335.91
-666.903
321.682
-570.752
289.366
-463.834
234.85
-344.936
157.664
-197.735
67.3887
-19.4613
238.522
163.451
-1931.21
130.945
-1954.45
157.745
-1846.14
193.662
-1662.17
235.331
-1599.14
275.923
-1464.58
317.92
-1378.78
361.157
-1271.7
405.351
-1178.65
450.916
-1083.23
497.684
-991.068
543.67
-897.756
582.968
-799.344
604.495
-688.425
594.101
-560.354
542.97
-412.699
453.085
-255.047
324.093
-68.737
158.959
145.68
397.481
119.134
-2050.33
87.7561
-1923.06
121.582
-1879.96
163.531
-1704.11
210.298
-1645.9
264.645
-1518.92
324.15
-1438.28
391.101
-1338.64
465.644
-1253.18
548.916
-1166.5
640.45
-1082.6
733.475
-990.776
810.583
-876.447
841.372
-719.21
794.377
-513.353
666.357
-284.672
415.053
-3.73388
251.073
95.2541
122.076
274.686
519.558
-2.21354
-2048.12
-63.4033
-1861.87
-89.199
-1854.16
-97.4735
-1695.83
-102.748
-1640.62
-89.2244
-1532.45
-68.9578
-1458.54
-34.1728
-1373.42
12.2252
-1299.58
71.9309
-1226.2
141.26
-1151.92
208.484
-1058
247.177
-915.136
218.031
-690.061
98.5706
-393.885
-53.8823
-132.193
-3.93969
-53.6472
-42.9704
134.298
-96.6572
328.379
422.901
-187.886
-1860.23
-392.161
-1657.6
-564.013
-1682.3
-697.352
-1562.49
-820.612
-1517.36
-913.41
-1439.65
-993.227
-1378.72
-1053.22
-1313.43
-1099.3
-1253.5
-1130.92
-1194.59
-1150.42
-1132.42
-1157.03
-1051.39
-1143.66
-928.504
-1090.52
-743.204
-974.571
-509.831
-804.503
-302.258
-693.96
-164.188
-532.756
-26.9025
-316.056
111.682
106.845
-225.061
-1635.17
-501.707
-1380.95
-790.313
-1393.7
-1043.28
-1309.53
-1289.24
-1271.4
-1507.19
-1221.69
-1705.86
-1180.05
-1881.48
-1137.8
-2037.35
-1097.62
-2173.59
-1058.35
-2286.79
-1019.21
-2361.75
-976.432
-2365.43
-924.824
-2248.06
-860.568
-1974.24
-783.655
-1577.52
-698.976
-1133.01
-608.69
-669.29
-490.626
-234.491
-323.114
-127.646
-660.17
-1066.12
-1484.82
-1819.34
-2115.74
-2362.43
-2567.48
-2730.29
-2852.91
-2936.26
-2980.47
-2981.91
-2931.73
-2817.3
-2625.95
-2349.93
-1983.62
-1499.24
-847.354
-660.119
1635.12
-1066.01
1380.89
-1484.64
1393.64
-1819.1
1309.46
-2115.43
1271.33
-2362.05
1221.62
-2567.02
1179.97
-2729.74
1137.72
-2852.28
1097.54
-2935.55
1058.27
-2979.67
1019.12
-2981
976.332
-2930.72
924.725
-2816.23
860.508
-2624.91
783.684
-2349.06
699.152
-1983.06
609
-1499.03
490.965
-847.429
323.404
127.571
-224.998
1860.12
-501.615
1657.51
-790.184
1682.21
-1043.13
1562.41
-1289.08
1517.28
-1507.04
1439.58
-1705.72
1378.66
-1881.37
1313.37
-2037.27
1253.44
-2173.53
1194.53
-2286.73
1132.32
-2361.57
1051.18
-2364.94
928.09
-2247.01
742.584
-1972.73
509.399
-1576.1
302.524
-1131.87
164.771
-668.163
27.2639
-233.583
-111.17
-106.012
-188.024
2048.14
-392.372
1861.85
-564.331
1854.17
-697.815
1695.89
-821.217
1640.68
-914.18
1532.54
-994.17
1458.65
-1054.36
1373.56
-1100.67
1299.75
-1132.53
1226.39
-1152.3
1152.08
-1159.12
1058
-1145.77
914.747
-1092.26
689.07
-975.448
392.59
-804.225
131.304
-696.369
56.9175
-534.186
-134.916
-316.538
-328.814
-422.55
-2.56181
2050.71
-63.98
1923.27
-90.0824
1880.27
-98.68
1704.49
-104.273
1646.28
-91.0923
1519.36
-71.1952
1438.75
-36.8016
1339.17
9.18979
1253.77
68.4641
1167.12
137.317
1083.23
203.975
991.346
241.936
876.79
211.903
719.105
91.7855
512.713
-60.3638
283.477
-1.92238
-1.49639
-42.7773
-94.0492
-96.9129
-274.673
-519.462
119.059
1931.65
87.6237
1954.71
121.421
1846.48
163.361
1662.55
210.13
1599.51
264.496
1464.99
324.054
1379.2
391.097
1272.12
465.786
1179.08
549.244
1083.66
641
991.479
734.233
898.114
811.437
799.589
842.075
688.469
794.663
560.128
665.954
412.19
410.196
254.266
248.57
67.5827
120.848
-146.946
-398.615
163.524
1768.13
131.081
1987.15
157.957
1819.6
193.958
1626.55
235.733
1557.74
276.449
1424.28
318.593
1337.05
361.98
1228.74
406.345
1134.72
452.092
1037.92
499.052
944.52
545.217
851.95
584.645
760.161
606.197
666.919
595.687
570.64
544.324
463.555
454.129
344.462
324.761
196.953
159.336
18.4819
-239.278
172
1596.13
151.579
2007.57
154.706
1816.48
172.893
1608.37
202.353
1528.28
225.646
1400.99
249.241
1313.46
270.29
1207.69
289.798
1115.21
306.975
1020.74
321.501
929.997
332.605
840.849
338.696
754.072
336.882
668.735
322.65
584.874
290.265
495.942
235.62
399.109
158.211
274.365
67.6585
109.039
-171.62
156.417
1439.71
169.119
1994.87
164.087
1821.51
172.143
1600.31
200.929
1499.49
223.572
1378.34
248.68
1288.35
269.624
1186.75
289.188
1095.65
304.629
1005.3
315.06
919.567
318.775
837.135
314.48
758.368
301.064
682.152
277.584
608.354
242.07
531.457
191.877
449.302
125.497
340.746
47.7303
186.808
-123.889
115.161
1324.55
172.591
1937.44
190.686
1803.42
206.458
1584.54
246.579
1459.38
285.201
1339.73
328.496
1245.06
367.213
1148.03
402.825
1060.04
431.19
976.939
450.441
900.319
458.239
829.341
453.007
763.604
433.677
701.486
399.98
642.054
351.373
580.067
287.04
513.638
204.472
423.316
91.7813
299.506
-32.1079
61.5164
1263.04
156.19
1842.77
215.187
1744.42
254.107
1545.62
309.377
1404.11
365.911
1283.19
425.614
1185.36
478.944
1094.7
524.13
1014.85
557.224
943.845
576.43
881.114
580.465
825.305
568.782
775.287
541.154
729.115
497.737
685.472
438.282
639.523
362.516
589.405
268.405
517.429
144.335
423.579
112.227
24.7797
1238.26
127.584
1739.97
219.753
1652.25
287.613
1477.76
358.346
1333.38
426.534
1215
491.189
1120.71
544.752
1041.14
584.4
975.206
608.291
919.955
616.317
873.09
608.962
832.661
586.997
797.254
551.145
764.967
502.033
734.585
439.444
702.113
362.95
665.901
269.777
610.604
153.268
540.091
265.496
22.1235
1216.13
94.981
1667.11
193.854
1553.38
283.425
1388.18
367.288
1249.51
441.098
1141.19
501.796
1060
545.479
997.453
571.678
949.003
581.83
909.799
577.857
877.06
561.351
849.162
533.558
825.045
495.418
803.103
447.62
782.381
389.876
759.854
321.627
734.149
239.175
693.055
138.055
641.208
403.55
42.1102
1174.02
71.0429
1638.17
144.167
1480.25
234.91
1297.44
322.428
1161.99
395.404
1068.21
447.882
1007.53
479.817
965.518
494.14
934.681
494.946
908.993
485.131
886.875
466.41
867.883
439.833
851.622
406.075
836.861
365.636
822.821
318.187
807.304
263.163
789.173
196.616
759.603
114.47
723.355
518.02
59.0929
1114.92
68.6106
1628.65
99.9853
1448.87
164.181
1233.24
237.034
1089.13
299.615
1005.63
342.094
965.042
365.561
942.043
374.3
925.937
372.997
910.29
364.277
895.59
349.477
882.677
329.404
871.69
304.371
861.89
274.756
852.432
240.177
841.878
200.194
829.153
150.931
808.862
89.1376
785.145
607.158
58.1073
1056.81
85.7644
1600.99
96.4157
1438.22
121.627
1208.02
160.881
1049.87
200.662
965.839
230.644
935.056
248.432
924.251
256.273
918.091
257.094
909.464
252.714
899.966
243.907
891.48
231.474
884.12
215.394
877.966
196.198
871.624
173.228
864.846
146.447
855.931
111.81
843.498
68.7678
828.185
675.925
43.0213
1013.78
108.248
1535.76
139.34
1407.12
149.917
1197.44
159.536
1040.25
171.979
953.388
184.789
922.237
193.617
915.414
197.882
913.818
197.761
909.578
194.26
903.458
187.487
898.246
178.381
893.219
166.321
890.02
152.298
885.64
134.999
882.14
115.288
875.636
88.3078
870.473
58.5967
857.89
734.522
27.6387
986.143
122.391
1441
189.736
1339.78
216.335
1170.84
219.187
1037.4
213.545
959.028
209.071
926.709
205.474
919.009
201.588
917.702
195.692
915.471
187.765
911.385
177.257
908.751
165.991
904.484
152.87
903.139
138.821
899.688
121.641
899.318
103.4
893.877
77.9757
895.897
56.8013
879.064
791.323
22.7479
963.391
130.806
1332.94
226.68
1243.9
279.685
1117.83
295.699
1021.38
291.684
963.039
279.909
938.481
268.276
930.639
257.198
928.776
244.39
928.276
230.568
925.204
214.555
924.762
197.679
921.358
177.685
923.131
157.701
919.669
134.029
922.987
110.717
917.186
79.9192
926.692
60.5524
898.428
851.876
46.4696
916.916
129.319
1250.09
207.848
1165.37
257.456
1068.22
273.622
1005.21
268.195
968.462
260.735
945.936
249.705
941.664
236.91
941.567
222.857
942.324
208.564
939.494
193.235
940.085
178.572
936.016
162.008
939.691
145.531
936.141
125.017
943.497
104.392
937.807
75.3695
955.71
63.2794
910.513
915.155
100.657
248.091
364.468
449.275
506.807
543.36
559.626
563.462
562.71
558.311
547.894
526.826
492.58
446.166
388.917
323.116
251.647
175.2
100.112
)
;

boundaryField
{
    outletWall
    {
        type            calculated;
        value           nonuniform List<scalar> 
60
(
764.381
26.9881
-5832.98
-8766.94
-12642
-14119.1
-13462.5
-9313.42
-2163.18
5621.43
8673.46
8302.57
7197.63
6373.6
5773.93
5171.33
4555.94
3882.38
3335.4
2205.47
1007.03
1352.36
1593.79
1848.11
2107.87
2378.92
2673.87
2994.45
3323.78
3597.87
3606.67
3355.65
3044.33
2732.09
2440.68
2172.16
1917.69
1669.49
1439.84
1097.43
618.617
-49.3594
-5962.13
-8848.02
-12615.1
-13990.3
-13093.6
-8666.6
-1313.33
6013.46
8658.59
8191.9
7117.06
6332.26
5751.97
5150.58
4529.07
3845.85
3276.78
2113.74
)
;
    }
    fineWalls
    {
        type            calculated;
        value           uniform 0;
    }
    fineFrontAndBack
    {
        type            calculated;
        value           nonuniform List<scalar> 
960
(
-4.62829e-15
-2.13764e-13
3.97577e-14
4.40661e-14
-4.26487e-14
2.39499e-14
-7.65112e-14
2.43693e-13
-2.03525e-12
-8.56157e-13
-1.33955e-12
-8.03475e-13
1.29596e-12
1.53199e-12
1.4171e-11
3.80834e-12
4.20463e-12
1.80242e-11
3.49232e-12
2.48174e-12
6.04249e-13
8.86495e-15
-2.1676e-13
-3.61606e-13
-3.93206e-13
-4.67514e-13
1.1019e-11
-3.47534e-13
-4.3502e-13
-8.07658e-13
-1.53063e-12
-2.51271e-12
-3.59112e-12
-4.60317e-12
-5.51129e-12
-6.30242e-12
-7.06875e-12
-7.72065e-12
-8.436e-12
-9.07542e-12
-2.63137e-10
-4.29034e-11
-4.41389e-11
-4.65093e-11
-1.41069e-10
7.20263e-12
3.71064e-12
7.18811e-12
3.21922e-11
1.32418e-13
5.59446e-12
3.97856e-11
-1.38492e-11
-1.76643e-11
-1.60641e-11
1.37544e-10
4.67638e-11
4.42703e-11
4.28569e-11
2.61151e-10
9.01503e-12
8.36968e-12
7.70173e-12
7.0683e-12
6.38315e-12
5.67651e-12
4.85335e-12
3.97182e-12
3.12908e-12
2.40815e-12
1.91535e-12
1.64391e-12
1.60734e-12
1.95666e-11
1.54963e-12
1.32927e-12
1.2875e-12
1.20209e-12
1.06289e-12
6.41945e-13
4.7843e-12
3.14092e-12
1.3861e-11
1.7179e-12
1.57798e-12
9.3269e-12
2.30345e-12
2.79709e-12
1.34664e-11
2.15022e-12
2.18506e-12
5.07623e-12
-1.31303e-13
-1.81417e-13
-2.68744e-13
-1.65029e-12
-4.03085e-13
-4.60318e-13
-2.00663e-12
-2.80538e-15
-4.19238e-09
-5.33128e-09
-6.14462e-09
-7.32124e-09
-6.94346e-09
-4.3303e-09
-1.09208e-09
6.65445e-10
8.08152e-10
3.79021e-10
2.29166e-11
-1.07313e-10
-6.70292e-11
-5.094e-11
-4.43223e-11
-1.99513e-11
-3.2988e-12
-2.11552e-13
7.0404e-14
-9.73197e-09
-1.19973e-08
-1.36079e-08
-1.51268e-08
-1.30538e-08
-7.45293e-09
-2.02701e-09
3.39358e-10
4.50496e-10
9.09385e-11
-6.50603e-11
-7.84437e-11
-8.85947e-11
-4.74154e-11
-4.46434e-11
-1.97662e-11
-3.64824e-12
-2.41054e-13
2.53957e-13
-1.52783e-08
-1.8322e-08
-2.06421e-08
-2.12606e-08
-1.6112e-08
-7.59077e-09
-1.38494e-09
4.87704e-10
3.40369e-10
1.51414e-10
2.54923e-10
3.35073e-10
3.79731e-11
-6.93388e-11
-4.30177e-11
-1.94045e-11
-3.80232e-12
-1.63879e-13
-7.25478e-13
-2.19742e-08
-2.62122e-08
-2.88934e-08
-2.68796e-08
-1.72471e-08
-6.1667e-09
-3.12962e-10
6.5903e-10
3.99716e-10
5.24575e-10
9.2355e-10
1.09686e-09
5.6057e-10
-8.08664e-11
-4.39599e-11
-1.95495e-11
-3.04456e-12
3.64611e-13
-2.31914e-12
-2.91619e-08
-3.48889e-08
-3.65777e-08
-2.98438e-08
-1.54936e-08
-3.57184e-09
7.14831e-10
8.31347e-10
7.18434e-10
1.13608e-09
1.62714e-09
1.68328e-09
9.40726e-10
2.3909e-11
-5.64307e-11
-1.81468e-11
-4.79586e-12
-2.17796e-12
-6.19559e-12
-3.63436e-08
-4.3292e-08
-4.19119e-08
-2.93568e-08
-1.19088e-08
-1.34295e-09
1.25916e-09
1.12744e-09
1.22523e-09
1.6381e-09
1.90703e-09
1.6523e-09
8.13549e-10
6.19848e-11
-6.71623e-11
-4.26233e-12
5.4716e-12
9.23842e-12
1.71564e-11
-4.273e-08
-4.97149e-08
-4.36862e-08
-2.65052e-08
-8.96608e-09
-4.36107e-10
1.55173e-09
1.53949e-09
1.58933e-09
1.75095e-09
1.67692e-09
1.16392e-09
4.4759e-10
-5.51884e-11
-1.26549e-10
-4.12648e-11
-1.51385e-11
-9.99721e-12
-1.22853e-10
-4.69778e-08
-5.23779e-08
-4.21935e-08
-2.37694e-08
-8.22735e-09
-5.31387e-10
1.65526e-09
1.61095e-09
1.51743e-09
1.49142e-09
1.13892e-09
5.94276e-10
2.44882e-10
9.34045e-11
-2.02589e-11
2.2159e-11
1.85239e-10
2.86604e-10
3.40142e-10
-4.71376e-08
-4.99597e-08
-3.85978e-08
-2.31252e-08
-1.02457e-08
-2.50493e-09
4.20442e-10
9.06959e-10
1.19222e-09
1.0762e-09
5.28835e-10
1.25528e-10
1.64435e-10
3.82178e-10
4.2061e-10
3.75176e-10
4.17415e-10
4.38868e-10
3.92506e-10
-4.10385e-08
-4.13704e-08
-3.20614e-08
-2.21351e-08
-1.29872e-08
-6.02126e-09
-1.72043e-09
3.86045e-10
1.06301e-09
7.12962e-10
3.91723e-11
-2.4265e-10
-4.38856e-11
2.72237e-10
4.20967e-10
4.03545e-10
3.65595e-10
3.45355e-10
2.79286e-10
-2.59363e-08
-2.32003e-08
-1.35937e-08
-6.21986e-09
-1.70115e-09
5.86789e-11
5.60488e-10
8.80633e-10
1.07243e-09
7.29304e-10
7.88692e-11
-3.33788e-10
-3.78516e-10
-3.14987e-10
-3.3188e-10
-3.72614e-10
-3.71513e-10
-3.36089e-10
-2.46122e-10
-1.65635e-08
-1.62614e-08
-7.94469e-09
-2.56712e-09
7.16526e-11
6.81164e-10
8.03092e-10
9.78756e-10
1.10614e-09
8.99886e-10
3.07496e-10
-2.44325e-10
-4.66328e-10
-4.57597e-10
-3.86785e-10
-3.53905e-10
-3.97751e-10
-4.21444e-10
-3.81725e-10
-8.3106e-09
-1.20019e-08
-5.2908e-09
-1.0524e-09
5.7456e-10
5.32194e-10
4.12795e-10
6.57382e-10
9.3568e-10
9.68936e-10
5.7879e-10
-8.40977e-12
-3.55746e-10
-3.12766e-10
-1.00607e-10
-3.9694e-11
-1.71334e-10
-2.82043e-10
-3.35755e-10
-8.39129e-10
-8.18196e-09
-3.79513e-09
-3.92763e-10
7.48168e-10
4.32578e-10
1.60481e-10
3.01339e-10
6.06488e-10
8.24279e-10
7.15209e-10
2.57782e-10
-1.47781e-10
-1.51435e-10
-5.34598e-12
3.07339e-11
1.82511e-11
8.38609e-12
1.38656e-10
5.06686e-09
-4.14722e-09
-2.56027e-09
5.73913e-11
9.74779e-10
4.86302e-10
7.67645e-11
9.40794e-11
3.01158e-10
5.38271e-10
6.29509e-10
3.99735e-10
3.44434e-11
-5.62319e-11
1.30138e-12
-9.76486e-13
-8.61042e-12
-9.96355e-12
-3.06706e-11
8.46861e-09
-2.567e-10
-1.24955e-09
4.62001e-10
1.30819e-09
7.39451e-10
1.21642e-10
1.76607e-12
1.02797e-10
2.53499e-10
3.7797e-10
3.26381e-10
9.45239e-11
-1.25582e-11
7.62639e-12
2.33166e-12
2.17238e-12
1.75048e-12
2.20284e-12
9.05684e-09
2.6379e-09
5.33199e-11
8.1426e-10
1.60959e-09
1.13931e-09
3.40021e-10
1.92875e-11
1.20549e-11
7.12735e-11
1.3241e-10
1.37591e-10
4.74758e-11
2.76554e-12
5.29659e-12
2.38476e-12
4.54524e-13
-8.97492e-13
-1.05271e-12
7.42406e-09
3.86382e-09
1.00662e-09
1.04219e-09
1.72752e-09
1.4698e-09
6.36598e-10
1.28178e-10
4.78233e-12
5.64862e-12
1.69527e-11
1.83051e-11
4.78522e-12
8.76849e-12
4.11708e-12
2.73635e-12
6.32786e-13
-5.54128e-13
-4.42058e-13
4.87543e-09
3.53694e-09
1.36302e-09
1.11494e-09
1.68807e-09
1.65737e-09
9.32048e-10
3.0611e-10
5.62507e-11
5.67492e-12
1.02251e-12
9.69457e-13
9.70729e-12
7.33824e-12
4.69101e-12
2.64811e-12
6.50911e-13
-5.62138e-13
-6.98651e-13
1.83447e-09
1.53022e-09
6.26464e-10
6.38325e-10
1.18371e-09
1.35689e-09
9.32397e-10
4.21067e-10
1.35008e-10
3.42716e-11
1.2863e-11
1.11744e-11
1.13518e-11
6.95635e-12
4.8079e-12
2.6505e-12
5.74404e-13
-6.53331e-13
-6.97408e-13
4.62829e-15
2.13764e-13
-3.97577e-14
-4.40661e-14
4.26487e-14
-2.39499e-14
7.65112e-14
-2.43693e-13
2.03525e-12
8.56157e-13
1.33955e-12
8.03475e-13
-1.29596e-12
-1.53199e-12
-1.4171e-11
-3.80834e-12
-4.20463e-12
-1.80242e-11
-3.49232e-12
-2.48174e-12
-6.04249e-13
-8.86495e-15
2.1676e-13
3.61606e-13
3.93206e-13
4.67514e-13
-1.1019e-11
3.47534e-13
4.3502e-13
8.07658e-13
1.53063e-12
2.51271e-12
3.59112e-12
4.60317e-12
5.51129e-12
6.30242e-12
7.06875e-12
7.72065e-12
8.436e-12
9.07542e-12
2.63137e-10
4.29034e-11
4.41389e-11
4.65093e-11
1.41069e-10
-7.20263e-12
-3.71064e-12
-7.18811e-12
-3.21922e-11
-1.32418e-13
-5.59446e-12
-3.97856e-11
1.38492e-11
1.76643e-11
1.60641e-11
-1.37544e-10
-4.67638e-11
-4.42703e-11
-4.28569e-11
-2.61151e-10
-9.01503e-12
-8.36968e-12
-7.70173e-12
-7.0683e-12
-6.38315e-12
-5.67651e-12
-4.85335e-12
-3.97182e-12
-3.12908e-12
-2.40815e-12
-1.91535e-12
-1.64391e-12
-1.60734e-12
-1.95666e-11
-1.54963e-12
-1.32927e-12
-1.2875e-12
-1.20209e-12
-1.06289e-12
-6.41945e-13
-4.7843e-12
-3.14092e-12
-1.3861e-11
-1.7179e-12
-1.57798e-12
-9.3269e-12
-2.30345e-12
-2.79709e-12
-1.34664e-11
-2.15022e-12
-2.18506e-12
-5.07623e-12
1.31303e-13
1.81417e-13
2.68744e-13
1.65029e-12
4.03085e-13
4.60318e-13
2.00663e-12
2.80538e-15
4.19238e-09
5.33128e-09
6.14462e-09
7.32124e-09
6.94346e-09
4.3303e-09
1.09208e-09
-6.65445e-10
-8.08152e-10
-3.79021e-10
-2.29166e-11
1.07313e-10
6.70292e-11
5.094e-11
4.43223e-11
1.99513e-11
3.2988e-12
2.11552e-13
-7.0404e-14
9.73197e-09
1.19973e-08
1.36079e-08
1.51268e-08
1.30538e-08
7.45293e-09
2.02701e-09
-3.39358e-10
-4.50496e-10
-9.09385e-11
6.50603e-11
7.84437e-11
8.85947e-11
4.74154e-11
4.46434e-11
1.97662e-11
3.64824e-12
2.41054e-13
-2.53957e-13
1.52783e-08
1.8322e-08
2.06421e-08
2.12606e-08
1.6112e-08
7.59077e-09
1.38494e-09
-4.87704e-10
-3.40369e-10
-1.51414e-10
-2.54923e-10
-3.35073e-10
-3.79731e-11
6.93388e-11
4.30177e-11
1.94045e-11
3.80232e-12
1.63879e-13
7.25478e-13
2.19742e-08
2.62122e-08
2.88934e-08
2.68796e-08
1.72471e-08
6.1667e-09
3.12962e-10
-6.5903e-10
-3.99716e-10
-5.24575e-10
-9.2355e-10
-1.09686e-09
-5.6057e-10
8.08664e-11
4.39599e-11
1.95495e-11
3.04456e-12
-3.64611e-13
2.31914e-12
2.91619e-08
3.48889e-08
3.65777e-08
2.98438e-08
1.54936e-08
3.57184e-09
-7.14831e-10
-8.31347e-10
-7.18434e-10
-1.13608e-09
-1.62714e-09
-1.68328e-09
-9.40726e-10
-2.3909e-11
5.64307e-11
1.81468e-11
4.79586e-12
2.17796e-12
6.19559e-12
3.63436e-08
4.3292e-08
4.19119e-08
2.93568e-08
1.19088e-08
1.34295e-09
-1.25916e-09
-1.12744e-09
-1.22523e-09
-1.6381e-09
-1.90703e-09
-1.6523e-09
-8.13549e-10
-6.19848e-11
6.71623e-11
4.26233e-12
-5.4716e-12
-9.23842e-12
-1.71564e-11
4.273e-08
4.97149e-08
4.36862e-08
2.65052e-08
8.96608e-09