/*--------------------------------*- C++ -*----------------------------------*\
| =========                 |                                                 |
| \\      /  F ield         | OpenFOAM: The Open Source CFD Toolbox           |
|  \\    /   O peration     | Version:  4.1                                   |
|   \\  /    A nd           | Web:      www.OpenFOAM.org                      |
|    \\/     M anipulation  |                                                 |
\*---------------------------------------------------------------------------*/
FoamFile
{
    version     2.0;
    format      ascii;
    class       volSymmTensorField;
    location    "3";
    object      R;
}
// * * * * * * * * * * * * * * * * * * * * * * * * * * * * * * * * * * * * * //

dimensions      [0 2 -2 0 0 0 0];

internalField   nonuniform List<symmTensor> 
1280
(
(0.0233721 -3.05608e-18 6.00859e-19 0.0289377 -0.00125368 0.0147204)
(0.022513 -3.94694e-18 8.77636e-19 0.0292683 -0.00322245 0.0148147)
(0.0250011 -2.63421e-18 4.82427e-19 0.0283694 -0.00164349 0.0171872)
(0.0253379 -2.45607e-18 4.00425e-19 0.0275528 -0.000764071 0.0190268)
(0.0219709 -3.82233e-18 8.24577e-19 0.0275718 -0.00222725 0.0186286)
(0.0222886 -2.65524e-18 7.77805e-19 0.0231364 -0.00470194 0.0247648)
(0.023662 -2.51502e-18 8.13226e-19 0.0231472 -0.00458896 0.0254728)
(0.0242623 -2.07583e-18 7.60178e-19 0.0234385 -0.00410825 0.0253815)
(0.0224039 -2.27907e-18 1.85497e-18 0.0257049 -0.0037159 0.0215766)
(0.0228309 -1.87092e-18 2.66873e-18 0.0245729 -0.00426808 0.0235282)
(0.0229797 -2.74339e-18 4.27474e-18 0.0233821 -0.00538891 0.0259972)
(0.0234272 -5.44106e-18 2.65308e-18 0.028936 -0.0045399 0.0243962)
(0.023688 -5.24936e-18 1.99798e-18 0.0281103 -0.00488458 0.0250908)
(0.023913 -4.99182e-18 1.03809e-18 0.0275261 -0.00487035 0.0254228)
(0.0236929 -1.1602e-18 -2.59036e-18 0.0288646 -0.00350115 0.0251362)
(0.0240147 -1.87559e-18 -4.41211e-18 0.0284299 -0.00453236 0.0262901)
(0.0254625 -5.04553e-18 -9.62334e-18 0.0302285 -0.00455989 0.0287745)
(0.0395493 -4.16197e-17 -4.12595e-17 0.0575884 0.00349223 0.0480457)
(0.0390285 -3.82792e-17 -3.76315e-17 0.0559196 0.00193972 0.0466396)
(0.041002 -3.64383e-17 -3.21558e-17 0.0548182 -0.00405842 0.0504539)
(0.0954571 -1.73172e-17 -2.31634e-17 0.0658723 0.00306347 0.14026)
(0.153182 6.90795e-18 -4.96082e-17 0.100146 0.00977639 0.248049)
(0.183143 1.11018e-17 -4.67693e-17 0.146714 0.0359873 0.274335)
(0.206432 1.13716e-17 -4.20159e-17 0.19244 0.0618169 0.290706)
(0.213009 1.70906e-17 -3.70274e-17 0.212023 0.0713892 0.286352)
(0.211478 1.80036e-17 -3.59531e-17 0.216501 0.0766012 0.279264)
(0.142695 -1.63014e-18 -5.22821e-17 0.124226 0.0363539 0.215647)
(0.135731 9.1075e-19 -4.83468e-17 0.118425 0.0353803 0.20238)
(0.127055 7.91335e-18 -4.48012e-17 0.111495 0.031803 0.187657)
(0.117971 2.36668e-17 -4.19314e-17 0.103926 0.0263611 0.172995)
(0.109062 4.43605e-17 -4.07796e-17 0.0956139 0.0199052 0.159134)
(0.100857 6.47658e-17 -4.17428e-17 0.0877529 0.013315 0.146668)
(0.0936415 8.12669e-17 -4.38991e-17 0.0811658 0.00737704 0.135771)
(0.087203 9.26587e-17 -4.54535e-17 0.0754994 0.00279587 0.125991)
(0.0814711 9.98412e-17 -4.5556e-17 0.0707238 -0.000334967 0.117068)
(0.0762819 1.04356e-16 -4.35091e-17 0.0665745 -0.00196581 0.108799)
(0.0715531 1.0673e-16 -4.04115e-17 0.0626962 -0.00280803 0.101212)
(0.0673079 1.08044e-16 -3.53078e-17 0.0593426 -0.00254551 0.0944162)
(0.0638247 1.08906e-16 -2.95627e-17 0.0565624 -0.00166279 0.0887228)
(0.0662106 1.05665e-16 -2.47493e-17 0.0604391 0.00416029 0.0899869)
(0.0677748 1.10025e-16 -7.90915e-18 0.0646796 0.0103119 0.0873459)
(0.0704551 1.01657e-16 2.05132e-17 0.0738017 0.0128655 0.0755124)
(0.0738146 9.47366e-17 3.82496e-17 0.0826455 0.0163001 0.0662012)
(0.0782469 6.09009e-17 4.06357e-17 0.0925966 0.0189102 0.0626925)
(0.0966944 -1.20339e-16 -4.654e-17 0.128143 0.0378646 0.0795056)
(0.14663 -5.09494e-16 -2.43341e-16 0.221974 0.0622502 0.133669)
(0.165179 -7.16853e-16 -3.44564e-16 0.257339 0.0785359 0.158795)
(0.181179 -8.8004e-16 -4.11234e-16 0.290104 0.0864028 0.177586)
(0.209157 -1.36295e-15 -5.39946e-16 0.35645 0.109097 0.186904)
(0.196423 -7.29404e-16 -2.95502e-16 0.327055 0.0743395 0.159763)
(0.19643 -6.41501e-16 -2.66705e-16 0.328753 0.0792137 0.158307)
(0.211136 -8.78951e-16 -3.21183e-16 0.365685 0.121227 0.17827)
(0.180659 -5.2596e-16 -1.62331e-16 0.297978 0.0662062 0.150452)
(0.161973 -4.33411e-16 -8.93996e-17 0.259924 0.0383527 0.13202)
(0.142295 -3.16245e-16 -5.01846e-17 0.220973 0.0178518 0.113368)
(0.0929259 -6.61017e-17 -3.79721e-17 0.123285 -0.0120634 0.0775629)
(0.0744214 5.88211e-17 -4.12392e-17 0.0861055 -0.0139971 0.0665114)
(0.0705838 8.23917e-17 -2.91361e-17 0.0771259 -0.014153 0.0690595)
(0.0678546 8.59649e-17 -1.53428e-17 0.0698721 -0.0121227 0.0760217)
(0.0656535 9.17968e-17 6.25688e-18 0.0629602 -0.010272 0.0850394)
(0.0642064 8.88459e-17 1.48327e-17 0.0590645 -0.00461053 0.087355)
(0.0616063 9.08896e-17 1.89064e-17 0.0550107 0.00123733 0.0858109)
(0.0649581 8.93379e-17 2.37181e-17 0.0576937 0.00207325 0.09131)
(0.0690912 8.74114e-17 2.78814e-17 0.0609984 0.00227859 0.0979241)
(0.0736901 8.46046e-17 3.03627e-17 0.0648188 0.00139561 0.105304)
(0.0787455 8.02408e-17 3.20049e-17 0.0689137 -0.000262022 0.113366)
(0.0843294 7.33607e-17 3.19097e-17 0.0736248 -0.00338541 0.122073)
(0.0906171 6.29035e-17 3.07698e-17 0.0792127 -0.00791408 0.131654)
(0.0976711 4.93822e-17 2.95003e-17 0.0856982 -0.0137314 0.142346)
(0.105685 3.43909e-17 2.94298e-17 0.0933882 -0.0201291 0.154559)
(0.114318 2.03264e-17 3.11458e-17 0.101402 -0.0262914 0.168034)
(0.122885 9.88857e-18 3.42579e-17 0.108404 -0.0312907 0.181933)
(0.130925 5.76507e-18 3.8393e-17 0.11457 -0.0343837 0.195703)
(0.137367 5.83595e-18 4.33952e-17 0.119633 -0.0349018 0.208054)
(0.203652 3.01441e-17 1.96742e-17 0.208406 -0.0733711 0.269912)
(0.204987 2.12983e-17 2.59471e-17 0.203548 -0.0679336 0.276568)
(0.198752 6.60747e-18 3.59989e-17 0.18419 -0.0584498 0.280911)
(0.177182 5.11834e-18 4.14686e-17 0.140333 -0.0339544 0.266376)
(0.149792 2.86864e-18 4.41379e-17 0.0968943 -0.0103916 0.242996)
(0.0938111 -1.64062e-17 2.06187e-17 0.0630698 -0.00510551 0.138257)
(0.0388615 -3.10306e-17 3.02691e-17 0.0506957 0.00157204 0.0480001)
(0.0365227 -3.25026e-17 3.46097e-17 0.0511717 -0.00275959 0.0438924)
(0.0365271 -3.53232e-17 3.85232e-17 0.0522165 -0.00407372 0.0448206)
(0.0233862 -5.2809e-18 2.35254e-18 0.0266881 0.00378043 0.0274395)
(0.022047 -4.27344e-18 1.42536e-19 0.0248495 0.00360854 0.0253086)
(0.0215046 -4.1912e-18 5.43893e-19 0.0248792 0.00242817 0.0244183)
(0.0218751 -3.75268e-18 -3.77878e-18 0.0237438 0.0035878 0.0251781)
(0.0215689 -3.48908e-18 -3.84359e-18 0.0237849 0.00345887 0.0254306)
(0.0208985 -3.1042e-18 -3.14864e-18 0.0237651 0.00281244 0.0254584)
(0.0205126 1.32623e-18 -6.92358e-18 0.0186062 0.00310287 0.0270312)
(0.020126 1.55169e-18 -5.65824e-18 0.018548 0.00222226 0.0265193)
(0.0190152 1.85301e-18 -5.23362e-18 0.0181648 0.000926977 0.0262975)
(0.0223962 -1.75458e-18 1.77385e-19 0.0214071 0.00204916 0.023589)
(0.0223425 -3.72549e-18 1.63817e-18 0.0220613 0.00241479 0.0226249)
(0.0210982 -4.99117e-18 2.06586e-18 0.0222007 0.00193964 0.0213906)
(0.0195949 -7.04934e-18 2.22853e-18 0.0237009 0.000672876 0.0184684)
(0.0227441 -4.89957e-18 1.75202e-18 0.0244612 0.000887957 0.0181675)
(0.0231236 -5.40023e-18 1.65058e-18 0.0250845 0.00139471 0.0174539)
(0.0203883 -8.6743e-18 2.01261e-18 0.0259744 0.0024191 0.015067)
(0.0216605 -7.20701e-18 1.72877e-18 0.0258932 0.00135126 0.0155269)
(0.0629118 -3.06554e-14 -1.20762e-14 0.0528147 0.024631 0.111772)
(0.0703326 -2.6336e-14 -5.53838e-15 0.0575657 0.0259995 0.128855)
(0.0793343 -2.03195e-14 3.17793e-15 0.063681 0.0273856 0.149169)
(0.0912418 -1.27363e-14 1.14529e-14 0.0738872 0.032737 0.175785)
(0.106316 -4.81134e-15 1.74159e-14 0.0884512 0.0419123 0.209804)
(0.123461 4.80154e-16 1.61651e-14 0.10893 0.0564324 0.247392)
(0.138891 1.78506e-15 8.84594e-15 0.136082 0.0754545 0.275539)
(0.147083 9.53603e-16 1.90919e-15 0.16895 0.0924727 0.273707)
(0.148369 6.61361e-16 -4.39768e-16 0.208801 0.101394 0.239205)
(0.150283 1.25275e-15 -1.75567e-16 0.26223 0.103907 0.192471)
(0.159214 1.7499e-15 2.89553e-16 0.332505 0.10652 0.155699)
(0.163356 1.16485e-15 3.2314e-16 0.375713 0.102685 0.130634)
(0.100403 4.95241e-17 -6.55566e-17 0.227992 0.0337048 0.0526956)
(0.0561193 -1.16607e-16 -1.3084e-16 0.108958 0.00516534 0.0275234)
(0.0362132 -2.19337e-17 -5.82991e-17 0.0615046 0.00342842 0.0206994)
(0.0351795 -3.54816e-17 -9.06241e-18 0.0659853 0.00545755 0.0202996)
(0.0269553 -2.21953e-17 -6.4473e-19 0.0482267 0.00567491 0.0178379)
(0.0202867 -1.26884e-17 2.86283e-20 0.0351125 0.00575142 0.0144931)
(0.0184596 -9.05764e-18 2.9303e-19 0.0307411 0.00576424 0.0128003)
(0.064631 -3.36053e-14 -1.14958e-14 0.0524313 0.0234542 0.116807)
(0.0719406 -2.81926e-14 -3.4909e-15 0.0568071 0.0243346 0.134114)
(0.0807582 -2.09369e-14 7.45156e-15 0.0625372 0.0255695 0.154718)
(0.0921254 -1.15507e-14 1.76309e-14 0.071699 0.0303611 0.181313)
(0.105989 -2.52879e-15 2.3473e-14 0.0844119 0.0385156 0.213989)
(0.120748 2.37347e-15 1.95934e-14 0.101829 0.0510305 0.247119)
(0.132368 2.6106e-15 9.55423e-15 0.124518 0.0664958 0.266125)
(0.136816 1.28123e-15 1.86328e-15 0.152603 0.07895 0.254482)
(0.137044 1.10278e-15 -2.28236e-16 0.189432 0.0840839 0.218143)
(0.14165 1.94765e-15 5.66557e-17 0.243707 0.0857513 0.181287)
(0.156878 2.86081e-15 4.53609e-16 0.325622 0.0930149 0.158883)
(0.180055 3.1949e-15 7.55102e-16 0.426795 0.109266 0.14886)
(0.119179 6.04836e-16 1.09631e-16 0.286197 0.042439 0.0637524)
(0.0552272 -1.15641e-16 -1.16982e-16 0.107097 0.00178705 0.0278373)
(0.0360472 -2.11327e-17 -5.36975e-17 0.0617554 0.00514775 0.0210701)
(0.0360868 -3.42294e-17 -7.56758e-18 0.0691101 0.00764819 0.021126)
(0.0280291 -2.18171e-17 -2.55204e-20 0.0518855 0.0067225 0.0182494)
(0.0215776 -1.31182e-17 5.78469e-19 0.0390467 0.00577119 0.0144903)
(0.0183465 -1.00348e-17 1.13071e-18 0.0308091 0.00370567 0.0122276)
(0.0655557 -3.20434e-14 -5.73462e-15 0.0516905 0.0202182 0.118898)
(0.072605 -2.55377e-14 3.54561e-15 0.0559233 0.0206225 0.13582)
(0.0807976 -1.65332e-14 1.68561e-14 0.0610897 0.0212571 0.155329)
(0.0906792 -5.45101e-15 2.76953e-14 0.0687938 0.024776 0.178841)
(0.101487 2.89276e-15 3.0069e-14 0.0787305 0.0304861 0.204036)
(0.11073 5.13137e-15 2.0821e-14 0.0911815 0.0380396 0.22223)
(0.114231 3.18941e-15 7.99311e-15 0.105411 0.0439854 0.218356)
(0.112855 1.43806e-15 1.0706e-15 0.122332 0.0449154 0.193962)
(0.112551 1.40022e-15 -2.34547e-16 0.144736 0.0416283 0.168605)
(0.117333 2.03896e-15 -1.70714e-16 0.176215 0.0405666 0.155766)
(0.125993 2.65372e-15 -1.45434e-16 0.223408 0.0475598 0.146553)
(0.139945 3.25783e-15 1.36977e-16 0.301704 0.0672345 0.12882)
(0.151459 2.41893e-15 7.29298e-16 0.369003 0.0860013 0.104918)
(0.0557143 -1.09886e-16 -1.09258e-16 0.109831 0.000628567 0.0284864)
(0.0354697 -2.06316e-17 -4.78045e-17 0.0604846 0.00655223 0.0215109)
(0.0375076 -3.27577e-17 -6.59256e-18 0.0734144 0.0114405 0.022718)
(0.0293545 -2.04811e-17 6.06306e-19 0.0565952 0.00848419 0.0187834)
(0.0228172 -1.30725e-17 1.01056e-18 0.0428747 0.00610753 0.0143804)
(0.0177385 -1.00435e-17 2.86111e-18 0.0290429 0.0034195 0.0119071)
(0.066924 -2.94146e-14 1.0052e-15 0.0512887 0.0172372 0.121988)
(0.0736898 -2.22298e-14 1.18941e-14 0.055289 0.0170542 0.138365)
(0.0810755 -1.16011e-14 2.75384e-14 0.0598401 0.0169848 0.15597)
(0.0890796 -1.75631e-16 3.66115e-14 0.0660441 0.0191851 0.174684)
(0.0963263 5.8556e-15 3.2561e-14 0.0732583 0.0226368 0.189842)
(0.1002 5.27431e-15 1.77373e-14 0.0813202 0.026158 0.191992)
(0.10027 2.42547e-15 4.96918e-15 0.0908103 0.0275744 0.17836)
(0.100678 9.98084e-16 2.6846e-16 0.103352 0.0264861 0.16264)
(0.106375 9.76232e-16 -2.3123e-16 0.119365 0.0276745 0.1642)
(0.115977 1.11391e-15 -2.85977e-16 0.137167 0.0362618 0.182953)
(0.120678 1.09511e-15 -6.69158e-16 0.155871 0.0484713 0.192024)
(0.116445 1.44267e-15 -8.17519e-16 0.189463 0.0595268 0.159514)
(0.120721 2.36953e-15 3.4333e-16 0.268949 0.0799445 0.105761)
(0.0585111 -2.84983e-17 -1.2446e-16 0.118487 0.0109494 0.0324702)
(0.0349561 -2.36391e-17 -4.15447e-17 0.0594385 0.00766676 0.0219965)
(0.0394355 -2.93457e-17 -4.99533e-18 0.0786675 0.0164989 0.0256509)
(0.0331734 -1.90756e-17 1.53677e-18 0.0688874 0.0115489 0.020929)
(0.0262124 -1.3363e-17 1.89136e-18 0.0530495 0.00649259 0.0156845)
(0.0223821 -1.26963e-17 5.87533e-18 0.0414373 0.00312714 0.0152607)
(0.0685841 -2.4936e-14 9.6682e-15 0.0516041 0.0139197 0.12492)
(0.0751869 -1.73326e-14 2.25878e-14 0.0556526 0.0129857 0.140669)
(0.0819774 -5.84339e-15 3.95252e-14 0.0601067 0.012073 0.156167)
(0.0883278 4.26674e-15 4.35316e-14 0.0658073 0.0129938 0.169194)
(0.092724 7.20886e-15 3.12014e-14 0.072422 0.0146901 0.173753)
(0.094644 4.61275e-15 1.29759e-14 0.0809805 0.0162606 0.166407)
(0.0972219 1.75007e-15 2.4502e-15 0.0932358 0.0172502 0.156623)
(0.105321 7.5702e-16 -4.97683e-17 0.109197 0.020714 0.163298)
(0.120187 6.20721e-16 -8.03199e-17 0.125426 0.0330305 0.196813)
(0.137638 2.69315e-16 -3.04659e-16 0.139515 0.0551182 0.250036)
(0.143597 -2.65247e-16 -1.17904e-15 0.147507 0.0747108 0.280693)
(0.123877 -4.20832e-16 -1.80689e-15 0.147041 0.0783123 0.232663)
(0.0931725 4.70843e-17 -1.16442e-15 0.154492 0.0708875 0.129453)
(0.0635362 1.94757e-17 -1.74793e-16 0.127337 0.0315617 0.0477657)
(0.0364157 -2.98749e-17 -3.98629e-17 0.0640917 0.0116359 0.0243182)
(0.0430295 -1.73164e-17 8.86823e-19 0.0885359 0.022543 0.0302556)
(0.0435844 -6.11214e-18 6.70315e-18 0.0990046 0.0193764 0.0281643)
(0.0334237 4.89159e-18 1.40442e-17 0.0700639 0.0100921 0.0215293)
(0.0208561 4.02062e-18 1.45897e-17 0.033865 0.00118545 0.0157278)
(0.0699959 -1.84891e-14 1.97249e-14 0.052271 0.0100433 0.126181)
(0.0762274 -1.11728e-14 3.41789e-14 0.0564789 0.00804892 0.1402)
(0.0822697 -8.46379e-16 4.93909e-14 0.0612402 0.00589945 0.152115)
(0.0876886 6.1e-15 4.5589e-14 0.0676115 0.0053058 0.159942)
(0.0918495 6.26356e-15 2.67275e-14 0.0759707 0.00560104 0.159953)
(0.0963143 3.05889e-15 8.76928e-15 0.087722 0.00707841 0.156597)
(0.104606 1.06296e-15 1.24009e-15 0.102823 0.0119857 0.163751)
(0.120642 3.8544e-16 -1.29186e-16 0.119578 0.0242453 0.197753)
(0.144974 -1.91144e-17 -1.94646e-16 0.136438 0.0479769 0.266751)
(0.169074 -6.48954e-16 -8.21876e-16 0.153117 0.0771473 0.347338)
(0.175181 -1.20971e-15 -1.94618e-15 0.164935 0.100017 0.378759)
(0.149747 -1.26818e-15 -2.34723e-15 0.163617 0.105899 0.311659)
(0.109117 -8.00865e-16 -1.61522e-15 0.157346 0.0967222 0.189992)
(0.0719464 -1.31986e-16 -3.33156e-16 0.13701 0.0588233 0.0787615)
(0.0432822 -4.87787e-17 -4.22524e-17 0.0815139 0.0234238 0.0342392)
(0.0515391 -1.19607e-17 1.2912e-17 0.111369 0.0284294 0.0382802)
(0.0732985 3.07212e-17 3.90288e-17 0.17448 0.0246678 0.0533684)
(0.0957609 1.07873e-16 1.35253e-16 0.20502 0.032804 0.0971317)
(0.0767711 -1.2537e-16 1.43427e-16 0.134819 -0.0285157 0.0976563)
(0.0714138 -1.00723e-14 3.01151e-14 0.0538005 0.00585434 0.12606)
(0.0774032 -4.81675e-15 4.47893e-14 0.0585477 0.00275735 0.138214)
(0.082836 1.47054e-15 5.55764e-14 0.0640072 -0.000580774 0.146584)
(0.0883509 4.11702e-15 4.48591e-14 0.0715393 -0.00221968 0.152684)
(0.0942617 2.48525e-15 2.37935e-14 0.0815437 -0.00196483 0.156463)
(0.102108 7.76797e-16 7.94992e-15 0.0935902 0.00256634 0.164885)
(0.115608 -1.03956e-16 1.41178e-15 0.107846 0.0124124 0.190879)
(0.139074 -6.4383e-16 -1.6433e-16 0.122996 0.0305348 0.254032)
(0.168655 -9.99131e-16 -7.29803e-16 0.140573 0.0545533 0.346013)
(0.190909 -1.43699e-15 -1.53482e-15 0.159467 0.0801766 0.420854)
(0.190988 -1.64849e-15 -2.15742e-15 0.175158 0.103474 0.423572)
(0.16804 -1.28313e-15 -1.77306e-15 0.185994 0.11806 0.347046)
(0.139783 -5.84579e-16 -9.0715e-16 0.1996 0.126635 0.25076)
(0.108072 -7.85948e-17 -2.81023e-16 0.198865 0.113463 0.159634)
(0.0752111 5.25624e-17 4.50422e-17 0.150315 0.0656902 0.0850725)
(0.0866201 1.29262e-16 1.2761e-16 0.182255 0.0670811 0.0893614)
(0.188514 6.89588e-16 6.23061e-16 0.309798 0.165776 0.287154)
(0.311342 9.84636e-16 1.37622e-15 0.400646 0.315029 0.680854)
(0.293464 4.17338e-16 9.21847e-16 0.241113 0.145416 0.700148)
(0.0723844 1.69189e-15 3.81471e-14 0.0561331 0.00140912 0.123315)
(0.0783302 1.90628e-15 5.11544e-14 0.0618695 -0.00268286 0.133778)
(0.0840617 1.89699e-16 5.77e-14 0.0686128 -0.0069482 0.141303)
(0.090744 -3.01573e-15 4.50402e-14 0.07711 -0.00911163 0.150291)
(0.0988297 -4.60289e-15 2.57826e-14 0.0866528 -0.00774336 0.162373)
(0.109985 -3.6931e-15 1.05676e-14 0.0969495 -0.00110708 0.183866)
(0.128836 -2.73453e-15 3.02001e-15 0.108714 0.0109775 0.231447)
(0.156542 -1.97105e-15 2.93544e-17 0.123153 0.0265092 0.313045)
(0.180297 -1.6452e-15 -9.33413e-16 0.138554 0.0398521 0.388738)
(0.190081 -1.74336e-15 -1.38085e-15 0.152507 0.0545322 0.420695)
(0.183311 -1.5347e-15 -1.11989e-15 0.165951 0.071919 0.391065)
(0.171013 -7.6715e-16 -2.33408e-16 0.184542 0.0921658 0.333616)
(0.166696 1.61656e-16 4.65642e-16 0.215605 0.123537 0.295745)
(0.173597 8.14734e-16 8.08611e-16 0.257368 0.163961 0.296151)
(0.169386 8.05587e-16 8.61882e-16 0.256146 0.162097 0.291698)
(0.199342 7.00835e-16 1.00344e-15 0.24302 0.156018 0.387131)
(0.249404 5.90747e-16 1.26897e-15 0.20055 0.136534 0.588258)
(0.183268 3.60786e-16 7.44964e-16 0.133658 0.0772775 0.442779)
(0.134698 2.3744e-16 3.6722e-16 0.104256 0.0459875 0.288833)
(0.0728147 2.18227e-14 3.96322e-14 0.0592136 -0.00290213 0.118069)
(0.0789904 1.51142e-14 4.92923e-14 0.0662438 -0.00782899 0.127449)
(0.0856573 2.83885e-15 5.35191e-14 0.0744585 -0.0133776 0.136266)
(0.0940866 -8.17937e-15 4.50045e-14 0.0835067 -0.0169368 0.150782)
(0.10473 -1.1779e-14 3.14108e-14 0.0920026 -0.0164872 0.172728)
(0.11977 -9.25106e-15 1.74485e-14 0.0998542 -0.0102137 0.21005)
(0.143355 -4.8616e-15 7.18316e-15 0.109751 0.000631575 0.276674)
(0.169282 -2.2644e-15 1.86393e-15 0.124384 0.00730804 0.352937)
(0.178025 -1.72826e-15 -5.62097e-17 0.133682 0.00456685 0.378854)
(0.171666 -1.81529e-15 -3.30282e-16 0.138609 -0.00161007 0.355728)
(0.16406 -1.58641e-15 4.04985e-16 0.147068 -0.00345113 0.323252)
(0.158185 -1.01595e-15 1.04135e-15 0.160283 0.00503141 0.290853)
(0.152308 -3.64376e-16 1.0697e-15 0.175494 0.0307557 0.257022)
(0.15094 2.69388e-16 8.23839e-16 0.191043 0.0707982 0.242486)
(0.156929 5.75196e-16 7.27009e-16 0.201454 0.0971868 0.260542)
(0.155398 3.88991e-16 6.09445e-16 0.180558 0.0732962 0.270326)
(0.141849 1.50933e-16 4.10404e-16 0.149871 0.0181312 0.247905)
(0.136336 7.25138e-17 2.65401e-16 0.156401 -0.0143921 0.22529)
(0.124318 3.92404e-17 1.34384e-16 0.154351 -0.0210367 0.17901)
(0.071615 6.04081e-14 2.96821e-14 0.0622402 -0.00476262 0.108906)
(0.0775763 5.43588e-14 3.39186e-14 0.0707414 -0.00807168 0.115624)
(0.0844562 4.10291e-14 3.43275e-14 0.0804217 -0.0119851 0.123146)
(0.0941483 2.29916e-14 3.04265e-14 0.0899385 -0.0156182 0.140922)
(0.108598 9.13992e-15 2.61242e-14 0.0982236 -0.0176726 0.175258)
(0.132005 1.6957e-15 2.05619e-14 0.106105 -0.0168256 0.240811)
(0.165066 -9.33393e-16 1.28508e-14 0.120168 -0.0150494 0.336199)
(0.188184 -1.42008e-15 4.8174e-15 0.138774 -0.0200589 0.396376)
(0.186109 -1.81259e-15 4.85878e-16 0.152585 -0.0336394 0.371195)
(0.183922 -2.28176e-15 1.3106e-16 0.172553 -0.0527121 0.339787)
(0.192496 -2.73312e-15 1.3545e-15 0.200071 -0.0745095 0.342252)
(0.203247 -3.19218e-15 2.43182e-15 0.230683 -0.0924034 0.3512)
(0.203865 -3.56436e-15 2.56818e-15 0.266702 -0.096476 0.315481)
(0.203706 -3.78921e-15 1.94152e-15 0.318303 -0.0890923 0.260063)
(0.211642 -3.65891e-15 1.40199e-15 0.370894 -0.0786463 0.235674)
(0.228828 -3.50338e-15 1.4343e-15 0.413282 -0.0982654 0.255426)
(0.257779 -3.55287e-15 1.8179e-15 0.462582 -0.16584 0.31095)
(0.291662 -3.27456e-15 1.90353e-15 0.532782 -0.221411 0.373334)
(0.283255 -2.41854e-15 1.29712e-15 0.548896 -0.214707 0.3308)
(0.0690841 6.8282e-14 2.48379e-14 0.0606515 0.000756186 0.103278)
(0.0743944 6.16153e-14 2.96229e-14 0.0687261 0.00343126 0.108349)
(0.0806207 5.21892e-14 2.77173e-14 0.0780812 0.00656585 0.114064)
(0.0895437 3.75299e-14 2.02473e-14 0.0873997 0.00924221 0.129344)
(0.103131 2.29063e-14 1.29272e-14 0.0955952 0.00983932 0.160496)
(0.126141 1.07387e-14 6.58003e-15 0.103199 0.0071218 0.22428)
(0.161894 2.98057e-15 1.9848e-15 0.118005 0.00515887 0.327491)
(0.18858 -7.2401e-17 -6.3904e-16 0.137906 0.0136432 0.39856)
(0.185794 -1.07094e-15 -2.36556e-15 0.150856 0.0323515 0.371236)
(0.181927 -1.48376e-15 -2.79861e-15 0.170119 0.0541452 0.333709)
(0.189594 -1.9916e-15 -2.43733e-15 0.197842 0.074736 0.331575)
(0.200047 -2.74354e-15 -2.09065e-15 0.229019 0.0887869 0.337227)
(0.202329 -3.46929e-15 -1.87938e-15 0.266555 0.0915285 0.304861)
(0.205814 -3.92877e-15 -1.68917e-15 0.322001 0.0884702 0.258492)
(0.217397 -3.91082e-15 -1.46829e-15 0.381176 0.0853045 0.240694)
(0.234178 -3.59279e-15 -1.45637e-15 0.42275 0.102572 0.261374)
(0.261463 -3.52217e-15 -1.78238e-15 0.467942 0.167575 0.315856)
(0.295988 -3.27464e-15 -1.86704e-15 0.538857 0.22497 0.379933)
(0.289881 -2.4763e-15 -1.31313e-15 0.55902 0.224832 0.342482)
(0.0705156 4.01656e-14 1.55906e-14 0.0580308 0.000694851 0.112621)
(0.076338 2.76414e-14 2.09313e-14 0.0650038 0.00577827 0.120693)
(0.0828609 1.8256e-14 1.86954e-14 0.0734975 0.0116435 0.128496)
(0.0912766 1.01446e-14 1.05463e-14 0.0831183 0.0156208 0.142102)
(0.101964 4.13633e-15 4.37809e-15 0.0922803 0.015681 0.163201)
(0.116891 9.73465e-16 1.16458e-15 0.100214 0.00937423 0.199686)
(0.141967 5.74267e-17 1.24981e-16 0.109694 -0.0029326 0.271163)
(0.172092 -4.07438e-16 -9.21631e-16 0.125373 -0.010729 0.361053)
(0.183383 -3.62344e-16 -2.13878e-15 0.135276 -0.00790146 0.396357)
(0.17495 -9.2307e-17 -2.53624e-15 0.139132 -0.00160171 0.366635)
(0.16417 -1.07943e-16 -1.95483e-15 0.147123 0.00162711 0.321184)
(0.158541 -3.71689e-16 -1.24468e-15 0.162474 -0.00331633 0.285319)
(0.154783 -4.28687e-16 -7.92785e-16 0.180132 -0.0250932 0.255105)
(0.154559 -5.26384e-17 -5.58239e-16 0.196631 -0.0633805 0.242793)
(0.161135 3.95918e-16 -5.54432e-16 0.206898 -0.0944605 0.263276)
(0.160067 3.62211e-16 -5.73218e-16 0.187942 -0.0729654 0.275098)
(0.146278 1.57587e-16 -4.20166e-16 0.155189 -0.0157912 0.25511)
(0.141295 5.88766e-17 -2.80907e-16 0.16226 0.0196595 0.234382)
(0.130369 1.21255e-17 -1.68711e-16 0.16201 0.0309032 0.190765)
(0.0714361 2.80306e-14 5.82824e-15 0.0559042 -0.0027095 0.120647)
(0.0774042 1.5057e-14 1.29006e-14 0.0617968 0.0017557 0.130614)
(0.083457 7.2825e-15 1.29078e-14 0.0690323 0.0066081 0.138224)
(0.0905969 2.67486e-15 5.46655e-15 0.0782718 0.00951296 0.147615)
(0.0992074 9.71872e-17 9.76301e-16 0.0887083 0.00889343 0.160266)
(0.110589 -1.0527e-15 -4.73367e-16 0.0996618 0.0027287 0.181666)
(0.129847 -1.23812e-15 -3.31157e-16 0.111543 -0.00994278 0.230199)
(0.160951 -9.45676e-16 -4.75594e-16 0.126936 -0.0281481 0.322057)
(0.191473 -3.73919e-16 -1.5101e-15 0.146016 -0.0450687 0.418255)
(0.208464 3.49338e-16 -2.59979e-15 0.165574 -0.0651782 0.471089)
(0.2038 7.71164e-16 -2.61652e-15 0.183695 -0.0868461 0.443169)
(0.190337 7.0772e-16 -1.7152e-15 0.206063 -0.107834 0.374932)
(0.187491 5.88003e-16 -9.67611e-16 0.24308 -0.139895 0.333456)
(0.199812 6.94038e-16 -7.06429e-16 0.295106 -0.186318 0.340606)
(0.199357 6.93841e-16 -6.91154e-16 0.30344 -0.193836 0.344659)
(0.219733 6.93598e-16 -9.39575e-16 0.274191 -0.177342 0.424834)
(0.259328 6.08932e-16 -1.25915e-15 0.211129 -0.146063 0.609657)
(0.190852 3.79108e-16 -7.45831e-16 0.141088 -0.0843623 0.459585)
(0.139809 2.54967e-16 -3.52691e-16 0.108782 -0.0499759 0.299353)
(0.0721084 2.29044e-14 -3.98208e-15 0.0547611 -0.00683774 0.126906)
(0.0785369 1.12281e-14 5.21663e-15 0.0599218 -0.0033154 0.139524)
(0.084793 3.89879e-15 9.45479e-15 0.0661868 0.00064108 0.149099)
(0.0911599 9.54135e-16 3.57597e-15 0.0747185 0.00293857 0.156454)
(0.0976956 -2.76012e-16 -3.71919e-18 0.0857364 0.00322728 0.160964)
(0.106106 -8.55025e-16 -8.09456e-16 0.0988582 -0.00110889 0.169911)
(0.119952 -1.14832e-15 -4.57295e-16 0.114031 -0.0112756 0.196015)
(0.145454 -1.1278e-15 -2.85523e-16 0.130221 -0.031422 0.264752)
(0.181648 -6.52534e-16 -8.23763e-16 0.151619 -0.060271 0.375853)
(0.214216 1.6121e-16 -1.9411e-15 0.178147 -0.0932868 0.48031)
(0.222436 8.60366e-16 -2.65519e-15 0.202619 -0.125327 0.505358)
(0.199702 1.03036e-15 -2.15044e-15 0.219593 -0.145189 0.424405)
(0.16917 8.08999e-16 -1.15003e-15 0.239622 -0.156162 0.312628)
(0.136616 4.54232e-16 -4.20009e-16 0.249041 -0.146509 0.209877)
(0.0941013 1.18823e-16 -7.68636e-17 0.188722 -0.0861029 0.110875)
(0.101376 1.29566e-16 -1.09832e-16 0.213804 -0.0821949 0.107085)
(0.203487 6.78476e-16 -5.94794e-16 0.34664 -0.183458 0.302622)
(0.327392 1.06604e-15 -1.3746e-15 0.43228 -0.362817 0.712903)
(0.307505 4.25449e-16 -8.35574e-16 0.255474 -0.161448 0.732716)
(0.0727018 1.95843e-14 -1.23104e-14 0.0545963 -0.0112713 0.131604)
(0.0797136 1.06496e-14 -2.36122e-15 0.0593644 -0.00887678 0.146985)
(0.0867958 3.13464e-15 6.21332e-15 0.0649847 -0.00615105 0.160592)
(0.0935291 8.19868e-16 2.62856e-15 0.0725347 -0.00507555 0.170756)
(0.0987564 1.57238e-16 -5.31461e-16 0.0821718 -0.00499028 0.17232)
(0.103656 -3.05316e-16 -1.02783e-15 0.0952154 -0.00628568 0.168705)
(0.112557 -7.00327e-16 -5.63406e-16 0.111973 -0.011495 0.175976)
(0.129844 -9.15837e-16 -3.43165e-16 0.130638 -0.024923 0.21227)
(0.158693 -7.61287e-16 -5.44753e-16 0.150625 -0.0528293 0.293489)
(0.19199 -1.80705e-16 -1.23919e-15 0.173877 -0.0897525 0.400351)
(0.207707 5.12679e-16 -2.04302e-15 0.194172 -0.12171 0.460149)
(0.183458 8.26083e-16 -1.99403e-15 0.197491 -0.132277 0.395356)
(0.136446 6.42599e-16 -1.10058e-15 0.192564 -0.122545 0.249823)
(0.0918289 1.88924e-16 -1.8298e-16 0.174329 -0.0797448 0.107972)
(0.0530641 -8.33367e-18 7.74726e-18 0.102015 -0.0315982 0.0435243)
(0.0595735 -1.36788e-17 -3.94515e-18 0.129316 -0.0347172 0.0451351)
(0.0856544 4.40616e-17 -5.25023e-17 0.20318 -0.0360602 0.0651735)
(0.106489 1.37161e-16 -1.52621e-16 0.227023 -0.0422668 0.11033)
(0.0844014 -1.51726e-16 -1.43657e-16 0.149479 0.0287577 0.108458)
(0.0726461 1.53722e-14 -1.69214e-14 0.0549563 -0.0156048 0.133358)
(0.0801987 1.04652e-14 -8.52467e-15 0.0596171 -0.0143277 0.150975)
(0.0885922 3.21934e-15 2.59711e-15 0.0651853 -0.0130611 0.169691)
(0.0968548 9.15052e-16 1.74345e-15 0.0723571 -0.0138269 0.186648)
(0.102757 5.74413e-16 -1.10216e-15 0.0804352 -0.0154968 0.193912)
(0.10535 3.00059e-16 -1.61153e-15 0.0904057 -0.0171429 0.186562)
(0.108156 -1.91749e-16 -8.23654e-16 0.104388 -0.0182046 0.175148)
(0.116943 -5.33074e-16 -4.39927e-16 0.122556 -0.0220429 0.181668)
(0.13453 -5.87166e-16 -5.19941e-16 0.141717 -0.0364581 0.221307)
(0.157776 -3.28804e-16 -8.81871e-16 0.160142 -0.0638641 0.290341)
(0.171208 1.31296e-16 -1.39295e-15 0.173933 -0.0907782 0.343419)
(0.152767 4.09225e-16 -1.44684e-15 0.175952 -0.0975591 0.300536)
(0.115436 2.95829e-16 -7.48417e-16 0.184044 -0.0882771 0.173745)
(0.0821143 6.14225e-17 -5.7794e-17 0.16746 -0.0465135 0.0660675)
(0.0433906 -1.92728e-17 1.19978e-17 0.07831 -0.0149125 0.0288546)
(0.0489986 -1.28949e-17 5.39617e-18 0.10168 -0.0265456 0.034662)
(0.0502047 3.98344e-18 -4.93676e-18 0.114663 -0.0237921 0.0334438)
(0.0377837 1.46114e-17 -1.46224e-17 0.0800263 -0.0125723 0.024682)
(0.0237493 1.31324e-17 -9.63314e-18 0.0393025 -0.00173058 0.018042)
(0.0724612 9.90285e-15 -1.71144e-14 0.0557922 -0.0197558 0.133768)
(0.0800867 9.27145e-15 -1.19042e-14 0.0602794 -0.0191858 0.151922)
(0.088898 3.30203e-15 -7.87297e-16 0.0657593 -0.0187437 0.172388)
(0.098789 9.15379e-16 8.17198e-16 0.0733412 -0.0209667 0.195047)
(0.10792 7.24262e-16 -1.52469e-15 0.082065 -0.0247062 0.214163)
(0.11352 7.09697e-16 -2.42522e-15 0.0917949 -0.028898 0.219861)
(0.113803 2.54063e-16 -1.46005e-15 0.102595 -0.0305428 0.204836)
(0.114027 -1.8461e-16 -6.54208e-16 0.116724 -0.0292042 0.186105)
(0.120854 -3.52046e-16 -5.52825e-16 0.135144 -0.0304511 0.188618)
(0.133607 -3.05061e-16 -7.35919e-16 0.156069 -0.0409153 0.21497)
(0.142298 -1.2728e-16 -9.61629e-16 0.177948 -0.0566529 0.235772)
(0.13754 -2.27013e-17 -9.01384e-16 0.210838 -0.0685383 0.204207)
(0.132774 -1.05324e-16 -2.89296e-16 0.280922 -0.0852922 0.128252)
(0.0763066 -4.74764e-18 -6.27642e-18 0.160718 -0.0194068 0.0435462)
(0.0412049 -2.17968e-17 1.1507e-17 0.0716699 -0.00942063 0.0254959)
(0.0449 -1.61512e-17 7.40596e-18 0.0906231 -0.0199112 0.0293431)
(0.0371917 -1.02277e-17 2.73806e-18 0.0781998 -0.0137878 0.0235305)
(0.0290434 -6.99972e-18 5.24869e-19 0.0597452 -0.00779225 0.0171663)
(0.0248731 -6.37217e-18 -2.11534e-20 0.0469608 -0.00399935 0.0165248)
(0.0723705 3.97401e-15 -1.36544e-14 0.0573514 -0.0237323 0.13346)
(0.0802009 6.7113e-15 -1.19237e-14 0.0619363 -0.0236883 0.152112)
(0.0899684 2.97363e-15 -3.01542e-15 0.0680423 -0.0240336 0.175086)
(0.102029 7.89858e-16 7.18227e-17 0.0773286 -0.0278193 0.203451)
(0.115125 6.72054e-16 -1.68278e-15 0.0891366 -0.0340843 0.233683)
(0.126743 9.83328e-16 -3.12257e-15 0.103858 -0.0427562 0.257172)
(0.13173 6.89648e-16 -2.34887e-15 0.12053 -0.0499413 0.255535)
(0.130265 1.29644e-16 -1.07569e-15 0.139742 -0.0509504 0.227685)
(0.129893 -1.94056e-16 -6.07748e-16 0.165023 -0.0466935 0.198346)
(0.136149 -2.80676e-16 -6.04147e-16 0.200904 -0.0449862 0.185843)
(0.147555 -2.75329e-16 -6.32019e-16 0.25509 -0.0528911 0.179601)
(0.164857 -2.74113e-16 -4.56267e-16 0.347228 -0.0755833 0.160448)
(0.191984 -1.77687e-16 1.01802e-17 0.470747 -0.112338 0.136467)
(0.0716044 -2.964e-17 3.31091e-18 0.14818 -0.00240235 0.0355548)
(0.0417606 -2.20065e-17 1.18375e-17 0.0727117 -0.00834102 0.0249919)
(0.0427462 -1.70101e-17 7.6397e-18 0.0849836 -0.0142431 0.0258716)
(0.0325729 -1.05084e-17 3.48892e-18 0.0637998 -0.0100374 0.0206785)
(0.0248256 -7.05841e-18 1.72633e-18 0.047489 -0.00705169 0.0154701)
(0.0195984 -4.66593e-18 3.1798e-19 0.0330124 -0.00413572 0.012895)
(0.0727734 -1.57699e-15 -8.45271e-15 0.059333 -0.0281304 0.134308)
(0.0811228 2.8284e-15 -9.31904e-15 0.064103 -0.0287412 0.154222)
(0.0915738 1.63518e-15 -3.45633e-15 0.070679 -0.0296862 0.178632)
(0.105122 1.43084e-16 -7.94814e-17 0.0814137 -0.0348233 0.210188)