/*--------------------------------*- C++ -*----------------------------------*\
| =========                 |                                                 |
| \\      /  F ield         | OpenFOAM: The Open Source CFD Toolbox           |
|  \\    /   O peration     | Version:  4.1                                   |
|   \\  /    A nd           | Web:      www.OpenFOAM.org                      |
|    \\/     M anipulation  |                                                 |
\*---------------------------------------------------------------------------*/
FoamFile
{
    version     2.0;
    format      ascii;
    class       volVectorField;
    location    "3";
    object      U;
}
// * * * * * * * * * * * * * * * * * * * * * * * * * * * * * * * * * * * * * //

dimensions      [0 1 -1 0 0 0 0];

internalField   nonuniform List<vector> 
1280
(
(-3.34475e-18 -0.259242 -0.0411587)
(-3.63313e-17 -0.218927 -0.498318)
(2.6339e-17 0.0547147 -0.285462)
(3.18454e-17 0.0909227 -0.194518)
(-7.24856e-18 0.11174 -0.692668)
(1.73079e-17 0.359217 -0.459745)
(-5.52927e-17 0.447982 -0.380623)
(2.16017e-16 0.464591 -0.329495)
(-4.30713e-16 0.632825 -0.753146)
(-6.18722e-16 0.785119 -0.501634)
(-9.6141e-16 0.884312 -0.388346)
(8.80822e-17 1.08396 -0.808849)
(9.56064e-16 1.17491 -0.542518)
(1.12661e-15 1.29543 -0.435695)
(2.66212e-15 1.62832 -0.857006)
(2.75219e-15 1.5467 -0.62412)
(3.03858e-15 1.81314 -0.459841)
(3.06338e-15 1.57567 -1.29875)
(2.52381e-15 2.65953 -0.0664276)
(1.79349e-15 1.11281 -2.94856)
(2.47897e-15 2.24017 2.87333)
(3.6369e-17 2.27019 5.95931)
(-8.89272e-16 2.16438 7.19457)
(-1.48351e-15 2.47039 7.77612)
(-1.61315e-15 2.39172 8.12692)
(-1.91801e-15 2.79477 8.69184)
(2.32284e-15 2.36568 6.23434)
(-1.42578e-15 5.96612 10.9859)
(-1.7847e-15 6.25906 11.3434)
(-3.31347e-15 6.33177 11.8144)
(-6.2795e-15 6.48086 12.4444)
(-1.03085e-14 6.58444 13.3208)
(-1.47328e-14 6.72271 14.2788)
(-1.88848e-14 6.73693 15.2928)
(-2.26104e-14 6.80908 16.0875)
(-2.58561e-14 6.74251 16.7909)
(-2.9e-14 6.75074 17.0678)
(-3.16745e-14 6.69165 17.4941)
(-3.46092e-14 6.65215 17.1494)
(-3.72325e-14 6.66112 17.2695)
(-4.58028e-14 7.23323 16.4494)
(-3.44606e-14 3.93346 9.87288)
(-3.54529e-14 2.57761 9.31496)
(-3.73778e-14 1.68016 9.08283)
(-2.45574e-14 -0.204519 4.55204)
(5.78524e-15 -0.642489 -1.93545)
(2.98014e-15 -0.465779 -2.57814)
(5.77358e-15 -0.021776 -3.4734)
(5.57926e-15 0.593911 -4.27787)
(1.48744e-16 -0.172968 -0.166794)
(4.53705e-15 0.190007 0.136)
(6.92525e-15 -0.60417 -4.22418)
(-1.11239e-14 0.0305779 -3.44028)
(-1.41885e-14 0.471005 -2.53105)
(-1.29029e-14 0.642207 -1.91733)
(2.39629e-14 0.207476 4.58701)
(3.75404e-14 -1.68624 9.09787)
(3.55585e-14 -2.58495 9.32613)
(3.44232e-14 -3.94258 9.88518)
(4.5457e-14 -7.22002 16.454)
(3.69847e-14 -6.66175 17.2587)
(3.43372e-14 -6.6553 17.1401)
(3.15968e-14 -6.69488 17.4842)
(2.89982e-14 -6.75349 17.0539)
(2.61873e-14 -6.7455 16.7717)
(2.32883e-14 -6.81118 16.0615)
(1.99112e-14 -6.73825 15.2593)
(1.62947e-14 -6.72308 14.2408)
(1.28372e-14 -6.58306 13.2842)
(9.8796e-15 -6.47959 12.4159)
(7.85787e-15 -6.3296 11.7988)
(6.74426e-15 -6.25682 11.3348)
(6.59423e-15 -5.96966 10.9786)
(4.1247e-15 -2.38552 6.21444)
(6.35747e-15 -2.79305 8.68803)
(5.45341e-15 -2.3961 8.12461)
(5.28206e-15 -2.47305 7.78017)
(4.93164e-15 -2.16756 7.20079)
(4.36057e-15 -2.27227 5.95877)
(2.63362e-15 -2.24405 2.86918)
(3.45749e-15 -1.11652 -2.95927)
(2.26986e-15 -2.6613 -0.0712277)
(2.35581e-15 -1.57401 -1.30942)
(1.24148e-15 -1.80673 -0.463842)
(1.14037e-15 -1.54006 -0.631613)
(1.5852e-15 -1.61327 -0.869201)
(1.68448e-15 -1.28056 -0.439542)
(2.04124e-15 -1.15947 -0.550023)
(2.35101e-15 -1.05889 -0.82181)
(1.56075e-15 -0.861383 -0.392096)
(1.57909e-15 -0.76208 -0.50946)
(1.0952e-15 -0.597501 -0.767525)
(-5.29448e-17 -0.433517 -0.330035)
(-1.31106e-16 -0.414828 -0.383831)
(-1.94214e-16 -0.328436 -0.470021)
(-2.80483e-16 -0.0666795 -0.718666)
(-2.91299e-16 -0.0457182 -0.19739)
(-3.35359e-16 -0.0153013 -0.294843)
(-3.71252e-16 0.268608 -0.530593)
(-2.02738e-18 0.278377 -0.058046)
(-4.65821e-13 0.732197 0.915247)
(-5.92365e-13 1.10557 1.0587)
(-6.82736e-13 1.28688 1.20938)
(-8.13472e-13 1.50957 1.42428)
(-7.71496e-13 1.71266 1.69812)
(-4.81144e-13 1.90994 2.09127)
(-1.21342e-13 2.10328 2.68672)
(7.39383e-14 2.36828 3.56656)
(8.97947e-14 2.73137 4.70012)
(4.21135e-14 2.88349 5.74489)
(2.54629e-15 1.94341 5.61842)
(-1.19237e-14 -0.685646 2.98838)
(-7.44769e-15 -2.93838 1.15462)
(-5.65999e-15 -4.3956 0.575634)
(-4.9247e-15 -4.67567 0.116216)
(-2.21681e-15 -4.21027 -0.238357)
(-3.66534e-16 -2.94285 -0.6452)
(-2.35058e-17 -1.94864 -0.705874)
(7.82267e-18 0.0329249 -0.968261)
(-1.08133e-12 0.682964 1.2021)
(-1.33304e-12 1.00952 1.37954)
(-1.51198e-12 1.16369 1.56734)
(-1.68076e-12 1.34474 1.85071)
(-1.45042e-12 1.48328 2.23789)
(-8.28103e-13 1.5639 2.84346)
(-2.25223e-13 1.58223 3.78766)
(3.77065e-14 1.66209 5.1151)
(5.00551e-14 1.98214 6.6708)
(1.01043e-14 2.55814 7.99167)
(-7.22892e-15 2.76808 7.99625)
(-8.71597e-15 1.04756 5.05648)
(-9.84385e-15 -2.44211 0.701822)
(-5.26838e-15 -4.27709 0.53077)
(-4.96037e-15 -4.45479 0.406563)
(-2.19624e-15 -3.95456 -0.0721181)
(-4.0536e-16 -2.71895 -0.649161)
(-2.67838e-17 -1.82233 -0.873756)
(2.82175e-17 -0.0850599 -1.23832)
(-1.69758e-12 0.651543 1.3951)
(-2.03577e-12 0.950238 1.59429)
(-2.29357e-12 1.07988 1.80897)
(-2.36229e-12 1.2213 2.15501)
(-1.79022e-12 1.28917 2.66457)
(-8.43419e-13 1.25588 3.48249)
(-1.53882e-13 1.14716 4.67666)
(5.41894e-14 1.15307 6.12214)
(3.78188e-14 1.51157 7.48835)
(1.68238e-14 2.32387 8.38725)
(2.83248e-14 3.1786 8.33746)
(3.72303e-14 2.52542 6.43339)
(4.21924e-15 -1.30559 1.85143)
(-7.70431e-15 -4.17201 0.107756)
(-4.77975e-15 -4.36967 0.790754)
(-2.15606e-15 -3.72565 0.25005)
(-4.2248e-16 -2.52114 -0.578678)
(-1.82088e-17 -1.69045 -1.01901)
(-8.06087e-17 -0.0798008 -1.35434)
(-2.44157e-12 0.600374 1.60402)
(-2.91247e-12 0.856812 1.84337)
(-3.21038e-12 0.945099 2.10056)
(-2.98662e-12 1.01569 2.54377)
(-1.91634e-12 0.96686 3.23174)
(-6.85189e-13 0.779648 4.294)
(-3.47736e-14 0.555088 5.63031)
(7.32255e-14 0.582474 6.84584)
(4.44129e-14 1.13241 7.47148)
(5.82861e-14 2.25448 7.369)
(1.02617e-13 3.5336 6.82188)
(1.21873e-13 3.57939 5.97218)
(6.22855e-14 0.0920896 3.59032)
(-8.98516e-15 -3.83951 0.39553)
(-4.88443e-15 -4.44856 0.928438)
(-2.17217e-15 -3.44138 0.796825)
(-3.38284e-16 -2.21635 -0.39834)
(4.05124e-17 -1.63725 -1.10181)
(-2.57683e-16 -0.378132 -1.4957)
(-3.24021e-12 0.544652 1.81834)
(-3.87655e-12 0.756409 2.10656)
(-4.06419e-12 0.790807 2.41964)
(-3.31597e-12 0.765677 2.98284)
(-1.72151e-12 0.582039 3.84632)
(-3.96871e-13 0.286702 5.02137)
(7.94257e-14 0.114449 6.13049)
(9.23719e-14 0.403727 6.57721)
(7.9826e-14 1.27775 6.13406)
(1.26231e-13 2.54527 5.29162)
(1.80794e-13 3.733 4.86817)
(1.87031e-13 3.85826 5.24911)
(1.04525e-13 1.05049 4.99364)
(2.65656e-15 -3.20155 1.99017)
(-6.27007e-15 -4.49154 1.06139)
(-2.01631e-15 -3.23621 1.34692)
(-5.32873e-16 -1.66055 -0.20039)
(-2.41996e-16 -1.13884 -1.29762)
(-6.88399e-16 0.0406518 -1.59758)
(-4.03818e-12 0.473048 2.04472)
(-4.81023e-12 0.628251 2.39447)
(-4.65688e-12 0.590102 2.76986)
(-3.26187e-12 0.448883 3.42688)
(-1.3232e-12 0.155629 4.31037)
(-1.49216e-13 -0.119574 5.21098)
(1.39906e-13 -0.0563785 5.67785)
(1.25271e-13 0.580234 5.34092)
(1.36136e-13 1.63545 4.52943)
(1.82011e-13 2.73835 4.12407)
(2.11893e-13 3.546 4.7869)
(1.83589e-13 3.55917 6.41333)
(9.03944e-14 1.47195 7.15566)
(6.8872e-15 -2.33412 4.29992)
(-7.46248e-15 -4.05196 1.99472)
(-4.73592e-16 -2.92436 1.87057)
(6.07956e-16 -1.14078 0.322725)
(1.02649e-15 -1.6421 -1.21779)
(1.90626e-15 -1.23707 -1.89411)
(-4.74777e-12 0.387873 2.29042)
(-5.52387e-12 0.479206 2.70512)
(-4.85402e-12 0.370863 3.11043)
(-2.94503e-12 0.155687 3.72973)
(-9.96232e-13 -0.128905 4.35421)
(-4.84563e-14 -0.262708 4.77688)
(1.72415e-13 0.0482683 4.70433)
(1.71055e-13 0.851117 4.1301)
(1.76592e-13 1.75953 3.81224)
(1.9455e-13 2.43878 4.46892)
(1.86325e-13 2.83275 6.3297)
(1.29324e-13 2.92713 8.84714)
(4.97322e-14 1.76385 10.1604)
(-6.13204e-15 -1.48742 7.42224)
(-1.4061e-14 -3.55654 3.71289)
(-4.58498e-15 -2.6105 1.90126)
(-1.68206e-15 0.140053 -0.507642)
(-1.1108e-15 0.892051 -1.92247)
(-1.36503e-14 0.928392 -4.78955)
(-5.21976e-12 0.286575 2.55367)
(-5.81977e-12 0.316428 3.01678)
(-4.68817e-12 0.170544 3.37486)
(-2.64105e-12 -0.0499346 3.80393)
(-9.1415e-13 -0.264749 4.06818)
(-5.9043e-14 -0.263462 4.10329)
(1.83918e-13 0.198392 3.79139)
(1.78994e-13 0.927619 3.54487)
(1.68603e-13 1.50188 4.03914)
(1.65714e-13 1.72034 5.57468)
(1.26546e-13 1.80167 7.99853)
(6.60307e-14 2.08269 10.7808)
(2.72091e-14 2.02364 12.8256)
(1.03783e-14 0.393267 11.5958)
(-2.25099e-15 -1.57326 7.07363)
(2.46211e-15 -1.33094 4.03754)
(2.05821e-14 0.0534387 5.17724)
(3.18449e-14 -1.57723 8.67524)
(3.77935e-14 -5.40363 12.2095)
(-5.23751e-12 0.177684 2.81591)
(-5.55107e-12 0.171663 3.29165)
(-4.28865e-12 0.0472178 3.53302)
(-2.56946e-12 -0.11542 3.71625)
(-1.13842e-12 -0.242379 3.65621)
(-2.78326e-13 -0.152595 3.4034)
(4.67157e-14 0.27146 3.15452)
(1.00773e-13 0.744941 3.52094)
(1.32469e-13 0.959961 4.7553)
(1.19578e-13 0.868351 6.57314)
(5.87595e-14 0.788808 8.6225)
(1.39475e-14 1.0535 10.903)
(1.82706e-14 1.28133 13.524)
(4.24642e-14 0.529321 15.233)
(4.67344e-14 -0.793667 13.9994)
(4.16862e-14 -1.5148 11.6503)
(4.63795e-14 -1.43795 11.6495)
(4.87631e-14 -1.86088 12.0072)
(4.36118e-14 -2.75981 10.5956)
(-4.55983e-12 0.0662753 3.02739)
(-4.59672e-12 0.0491061 3.49024)
(-3.56238e-12 -0.016239 3.59352)
(-2.45946e-12 -0.0992767 3.50719)
(-1.44302e-12 -0.146063 3.09316)
(-6.69029e-13 -0.0668344 2.64309)
(-1.91245e-13 0.134226 2.75012)
(4.28939e-14 0.29211 3.83305)
(1.18112e-13 0.287271 5.48513)
(7.9218e-14 0.158238 6.89414)
(4.35247e-15 0.0691902 7.71091)
(-2.69727e-14 0.180825 8.69314)
(-4.87617e-15 0.383937 10.7486)
(3.02486e-14 0.326143 12.8939)
(4.65701e-14 -0.0107168 13.0878)
(4.48383e-14 -0.371711 11.2041)
(4.06217e-14 -0.412951 8.78449)
(3.83728e-14 -0.758825 6.26597)
(3.10318e-14 -1.51958 3.13601)
(-2.88181e-12 -0.0411808 3.02011)
(-2.57781e-12 -0.0296035 3.48235)
(-1.51042e-12 0.0284193 3.58715)
(-6.91095e-13 0.0926431 3.4952)
(-1.89017e-13 0.112597 3.04856)
(6.51988e-15 -0.000886334 2.52184)
(6.23649e-14 -0.217845 2.54684)
(9.78481e-14 -0.34583 3.62712)
(1.19159e-13 -0.257468 5.36177)
(8.10338e-14 -0.030509 6.8789)
(8.76324e-15 0.0793711 7.75774)
(-3.70876e-14 -0.124669 8.67751)
(-4.20573e-14 -0.45008 10.5595)
(-3.49986e-14 -0.473529 12.6043)
(-3.68755e-14 -0.150175 12.8535)
(-4.14016e-14 0.276683 11.0831)
(-4.12793e-14 0.400109 8.70579)
(-3.73432e-14 0.746609 6.18118)
(-2.73469e-14 1.50634 3.08042)
(-1.84039e-12 -0.152318 2.78933)
(-1.80682e-12 -0.152615 3.26394)
(-8.82744e-13 -0.0342166 3.51058)
(-2.85235e-13 0.121406 3.69547)
(7.9614e-15 0.247177 3.61963)
(7.56849e-14 0.146976 3.30107)
(8.92324e-14 -0.312416 2.9151)
(1.08751e-13 -0.812249 3.17843)
(1.22904e-13 -0.997687 4.44073)
(9.99873e-14 -0.819176 6.43359)
(3.41663e-14 -0.664477 8.70201)
(-2.71472e-14 -0.929001 11.0214)
(-5.18142e-14 -1.2639 13.4873)
(-5.08442e-14 -0.681649 15.2024)
(-4.29761e-14 0.593493 14.2532)
(-3.93227e-14 1.41895 11.884)
(-4.41946e-14 1.43558 11.673)
(-4.68271e-14 1.84751 11.9962)
(-4.24139e-14 2.7407 10.5811)
(-9.234e-13 -0.260765 2.51188)
(-1.33354e-12 -0.297693 2.97043)
(-5.87867e-13 -0.159831 3.32834)
(-1.16933e-13 0.0519431 3.75526)
(6.38399e-14 0.268959 4.01597)
(5.91327e-14 0.279524 4.03422)
(4.58661e-14 -0.190289 3.64532)
(7.30425e-14 -0.959247 3.26212)
(1.03964e-13 -1.55565 3.67111)
(1.0766e-13 -1.74113 5.25465)
(6.431e-14 -1.74338 7.8426)
(-9.34419e-16 -1.97597 10.7627)
(-3.95274e-14 -2.03044 12.9158)
(-3.47517e-14 -0.634865 11.9626)
(-1.11786e-14 1.30474 7.49947)
(-4.41044e-15 1.29851 4.25707)
(-1.90371e-14 0.00360793 5.21265)
(-3.13381e-14 1.57445 8.72466)
(-3.73062e-14 5.40091 12.2493)
(-9.32366e-14 -0.360741 2.24152)
(-9.09107e-13 -0.458848 2.64987)
(-4.21682e-13 -0.358417 3.05166)
(-4.36404e-14 -0.150388 3.66574)
(8.31298e-14 0.138367 4.28728)
(4.80643e-14 0.291697 4.71249)
(1.78313e-14 -0.00206253 4.62839)
(3.34821e-14 -0.83075 3.96483)
(6.73876e-14 -1.78029 3.52432)
(9.15865e-14 -2.47425 4.1083)
(7.94676e-14 -2.82896 6.00953)
(2.86424e-14 -2.89416 8.65859)
(-1.64201e-14 -1.88605 10.2312)
(-1.68261e-14 1.19854 7.80169)
(-5.93998e-16 3.38063 3.93052)
(3.41488e-15 2.65747 1.9042)
(2.0279e-15 -0.0492659 -0.40732)
(9.31788e-16 -0.881988 -1.8854)
(1.54063e-14 -0.924479 -4.78126)
(5.62984e-13 -0.444153 1.99276)
(-4.60802e-13 -0.605494 2.33648)
(-2.84474e-13 -0.575059 2.70706)
(6.37681e-15 -0.441939 3.35495)
(1.08309e-13 -0.148386 4.23096)
(5.40336e-14 0.142974 5.13452)
(8.52939e-15 0.106311 5.61634)
(1.04533e-14 -0.528823 5.25734)
(3.3462e-14 -1.61263 4.35612)
(5.98079e-14 -2.74784 3.83616)
(6.99454e-14 -3.56109 4.43108)
(4.4415e-14 -3.60228 6.10405)
(3.82704e-15 -1.71694 7.16027)
(-6.24799e-15 2.05428 4.60042)
(1.44598e-16 3.9327 2.07186)
(-1.08498e-16 2.97359 1.84267)
(-9.56713e-16 1.18501 0.417116)
(-1.10706e-15 1.66077 -1.15613)
(-3.40784e-15 1.24754 -1.85998)
(9.40956e-13 -0.514636 1.7642)
(-2.85222e-14 -0.732123 2.04844)
(-1.38839e-13 -0.773103 2.35913)
(5.13334e-14 -0.755137 2.91468)
(1.45355e-13 -0.573621 3.77171)
(8.21613e-14 -0.266722 4.95464)
(1.35158e-14 -0.0691063 6.08848)
(1.9623e-16 -0.338828 6.55619)
(1.14218e-14 -1.21728 6.06915)
(2.81665e-14 -2.50756 5.1169)
(4.19967e-14 -3.72526 4.57016)
(3.62646e-14 -3.95282 4.92367)
(1.05027e-14 -1.42956 5.01139)
(-1.39536e-15 2.89391 2.25979)
(8.47377e-16 4.43582 0.99434)
(2.59073e-16 3.273 1.35139)
(2.41375e-16 1.69123 -0.136496)
(1.94498e-16 1.1773 -1.25133)
(2.4476e-16 -0.0112624 -1.56095)
(1.00632e-12 -0.569146 1.54548)
(2.931e-13 -0.831625 1.78305)
(5.92444e-15 -0.92574 2.04157)
(9.04734e-14 -1.00255 2.48186)
(1.78843e-13 -0.958532 3.16462)
(1.2659e-13 -0.767324 4.22935)
(3.77802e-14 -0.522265 5.58879)
(2.14306e-15 -0.520566 6.8397)
(1.33944e-15 -1.04913 7.47372)
(7.91927e-15 -2.17012 7.31977)
(1.47122e-14 -3.49466 6.689)
(1.52879e-14 -3.7388 5.86009)
(5.27509e-15 -0.631482 3.86394)
(3.07282e-16 3.56954 0.523927)
(5.8851e-16 4.43708 0.838394)
(2.64973e-16 3.4452 0.832749)
(5.05027e-17 2.24475 -0.359626)
(-9.97213e-17 1.6773 -1.06686)
(-1.16968e-16 0.403587 -1.46411)
(8.24896e-13 -0.620256 1.33155)
(4.29313e-13 -0.926191 1.53051)
(1.11847e-13 -1.0617 1.7496)
(1.15799e-13 -1.208 2.09714)
(1.91947e-13 -1.28046 2.60446)
(1.63311e-13 -1.24697 3.42086)
(7.07331e-14 -1.1255 4.6251)
(1.4242e-14 -1.10557 6.09908)
(5.3137e-16 -1.43455 7.49917)
(6.27624e-16 -2.2342 8.41743)
(1.88364e-15 -3.15624 8.39817)
(2.0339e-15 -2.76864 6.6617)
(5.31691e-16 0.827089 2.33663)
(9.74277e-16 3.99516 0.0284535)
(4.57454e-16 4.35225 0.780655)
(3.04039e-16 3.71239 0.276006)
(7.03095e-17 2.5483 -0.551368)
(-6.15698e-17 1.73284 -0.995623)
(-4.91176e-17 0.112835 -1.32732)
(5.41714e-13 -0.650829 1.12891)
(3.92993e-13 -0.98577 1.30875)
(1.51446e-13 -1.14601 1.50343)
(1.23882e-13 -1.33081 1.79228)
(1.87563e-13 -1.4729 2.18165)
(1.84153e-13 -1.55441 2.78678)
(1.03561e-13 -1.56466 3.73311)
(3.40122e-14 -1.6242 5.07615)
(6.25008e-15 -1.91806 6.66617)
(6.30546e-16 -2.49094 8.04472)
(1.13612e-16 -2.80598 8.17449)
(1.07717e-16 -1.37272 5.47528)
(1.07859e-15 2.14642 0.863084)
(8.1536e-16 4.15777 0.457218)
(5.21224e-16 4.41574 0.431696)
(2.94234e-16 3.94445 -0.060226)
(7.23235e-17 2.74674 -0.629812)
(-6.24598e-17 1.86583 -0.860876)
(-7.76279e-17 0.115221 -1.21534)
(2.0383e-13 -0.701633 0.839878)
(1.70024e-13 -1.08583 0.987141)
(6.96072e-14 -1.27437 1.14549)
(7.0925e-14 -1.50025 1.36842)
(1.31524e-13 -1.70538 1.64888)
(1.50766e-13 -1.90238 2.04637)
(1.036e-13 -2.0894 2.64481)
(4.67852e-14 -2.34123 3.5323)
(1.50009e-14 -2.69328 4.68703)
(3.80796e-15 -2.87288 5.78221)
(1.42923e-15 -2.06429 5.78467)
(1.2416e-15 0.402883 3.3008)
(1.26131e-15 2.71426 1.20238)
(7.72928e-16 4.26939 0.585916)
(5.34211e-16 4.6303 0.135592)
(2.945e-16 4.20002 -0.230759)
(6.38227e-17 2.96889 -0.632447)
(-7.25924e-17 1.99171 -0.701194)
(-7.74898e-17 -0.00535242 -0.955434)
(2.21415e-17 8.53374 14.5482)
(-6.37394e-15 11.5222 19.4198)
(-6.14256e-15 11.0989 18.0961)
(-5.90721e-15 10.5027 16.7198)
(-5.58484e-15 10.1704 15.9649)
(-7.16208e-15 10.0523 15.546)
(-7.47086e-15 9.82431 15.0676)
(-6.64979e-15 9.81241 15.079)
(-5.98452e-15 9.84769 15.0777)
(-5.13252e-15 9.79909 15.0474)
(-4.53724e-15 9.79535 14.9608)
(-4.26138e-15 9.69008 14.9472)
(-4.10876e-15 9.68243 14.8738)
(-3.83396e-15 9.50688 14.9285)
(-3.76432e-15 9.52913 14.8731)
(-3.35377e-15 9.27956 15.0096)
(-3.26865e-15 9.35445 14.9365)
(-2.77243e-15 9.08117 15.2736)
(-3.05435e-15 8.86049 14.4646)
(-2.63386e-15 8.5108 15.021)
(5.68316e-17 8.50395 14.2238)
(-4.51092e-15 11.2339 19.3772)
(-3.54608e-15 10.8197 18.025)
(-3.57749e-15 9.97309 16.4243)
(-3.74107e-15 9.36757 15.2752)
(-5.91421e-15 8.99302 14.5735)
(-5.38118e-15 8.79324 14.3093)
(-4.82673e-15 8.72395 14.1903)
(-5.06812e-15 8.67675 14.1541)
(-5.01459e-15 8.63015 14.1634)
(-5.05613e-15 8.61931 14.1362)
(-4.83851e-15 8.55262 14.1665)
(-4.96171e-15 8.58019 14.1388)
(-4.75187e-15 8.5002 14.2102)
(-5.21972e-15 8.55769 14.1697)
(-5.31018e-15 8.43868 14.2632)
(-5.44774e-15 8.50947 14.1707)
(-5.10737e-15 8.3865 14.379)
(-5.78808e-15 8.25756 13.8479)
(-5.69322e-15 7.74682 13.4629)
(-1.17733e-17 8.9383 15.1936)
(-1.37311e-15 12.4158 21.4586)
(-1.14378e-15 12.0192 20.039)
(-1.24923e-15 10.7991 17.8092)
(-1.15503e-15 9.8708 16.0502)
(-3.41836e-15 9.25791 14.9804)
(-2.45151e-15 8.93586 14.4756)
(-2.15076e-15 8.82075 14.3181)
(-2.00045e-15 8.77445 14.2676)
(-1.87384e-15 8.71626 14.2256)
(-1.87749e-15 8.66913 14.1572)
(-2.02253e-15 8.59441 14.1234)
(-1.94463e-15 8.565 14.0734)
(-1.9574e-15 8.49042 14.0798)
(-1.9781e-15 8.4762 14.037)
(-1.87058e-15 8.38486 14.0592)
(-1.79993e-15 8.3686 13.9878)
(-1.93895e-15 8.28157 14.0732)
(-1.9426e-15 8.14772 13.7694)
(-2.29834e-15 7.39412 12.7485)
(1.56529e-18 9.03764 15.2829)
(3.39288e-16 13.257 22.9133)
(2.70797e-16 12.6359 21.1777)
(2.72156e-16 10.9562 18.2582)
(3.6494e-16 9.6779 15.9747)
(-1.92126e-15 8.90697 14.6487)
(-1.89333e-15 8.57448 14.1318)
(-2.23887e-15 8.51048 14.0127)
(-2.18579e-15 8.4893 13.9974)
(-2.13974e-15 8.45671 13.956)
(-2.2623e-15 8.41129 13.8854)
(-2.1015e-15 8.35349 13.8314)
(-2.21884e-15 8.31615 13.7741)
(-2.31766e-15 8.26022 13.749)
(-2.32254e-15 8.225 13.6987)
(-2.16511e-15 8.15771 13.6757)
(-1.78517e-15 8.10037 13.5965)
(-2.20669e-15 8.02215 13.5733)
(-2.22141e-15 7.88118 13.3892)
(-2.36348e-15 6.88088 11.7531)
(1.09829e-18 9.4014 15.8872)
(-9.45618e-17 14.0929 24.2911)
(-7.61374e-17 13.0433 22.0367)
(-7.26974e-17 11.0032 18.5316)
(-1.15687e-16 9.55597 16.0217)
(4.42891e-16 8.82665 14.6788)
(5.12169e-16 8.55053 14.2179)
(5.14869e-16 8.53451 14.1092)
(5.02023e-16 8.51676 14.0766)
(4.86375e-16 8.4795 13.9919)
(4.99172e-16 8.41273 13.8796)
(5.22909e-16 8.34204 13.7763)
(5.15034e-16 8.27754 13.6845)
(5.21387e-16 8.21174 13.6129)
(5.31357e-16 8.14508 13.5372)
(5.09859e-16 8.07058 13.4638)
(5.0919e-16 7.97027 13.3569)
(5.26723e-16 7.85679 13.2238)
(5.3775e-16 7.67665 13.0416)
(6.20585e-16 6.4156 10.9273)
(-1.18238e-18 9.9196 16.6581)
(2.76443e-17 14.4889 24.972)
(2.58508e-17 13.0327 22.1812)
(2.45203e-17 10.9615 18.5821)
(3.91849e-17 9.63583 16.2398)
(-9.95455e-17 9.05468 14.9993)
(-1.29316e-16 8.80324 14.5229)
(-1.24362e-16 8.76224 14.3173)
(-1.2259e-16 8.69542 14.1851)
(-1.18032e-16 8.61396 14.0165)
(-1.13254e-16 8.50469 13.8359)
(-1.2148e-16 8.39722 13.6699)
(-1.22134e-16 8.29342 13.5281)
(-1.18975e-16 8.19642 13.4058)
(-1.24648e-16 8.09093 13.2911)
(-1.23678e-16 7.9849 13.1667)
(-1.28638e-16 7.834 13.0124)
(-1.28927e-16 7.65569 12.7677)
(-1.3459e-16 7.38389 12.4898)
(-1.51827e-16 5.88248 9.96781)
(4.72622e-19 10.5752 17.6638)
(-8.015e-18 14.5318 25.142)
(-8.53668e-18 13.1089 22.3473)
(-7.7624e-18 11.3878 19.2494)
(-1.21452e-17 10.2917 17.1524)
(2.03389e-17 9.72405 15.838)
(3.46599e-17 9.37056 15.1068)
(3.47032e-17 9.1929 14.65)
(3.30986e-17 9.02557 14.3244)
(3.12973e-17 8.86296 14.0272)
(2.95802e-17 8.69088 13.7503)
(3.11866e-17 8.52522 13.5034)
(3.14677e-17 8.36569 13.2926)
(3.04402e-17 8.21631 13.1068)
(3.15025e-17 8.05597 12.9358)
(3.17832e-17 7.89502 12.7486)
(3.29165e-17 7.6732 12.5257)
(3.25284e-17 7.40475 12.154)
(3.5277e-17 6.98376 11.7078)
(3.91259e-17 5.25292 8.79604)
(-6.07999e-20 11.0825 18.4989)
(1.98718e-18 14.5306 25.2631)
(2.11714e-18 13.6386 23.143)
(1.73643e-18 12.2603 20.5649)
(2.58744e-18 11.2414 18.4927)
(-3.82643e-18 10.5463 16.9471)
(-8.35966e-18 10.0228 15.8557)
(-9.25989e-18 9.65978 15.0639)
(-8.98731e-18 9.3597 14.4733)
(-8.62939e-18 9.09429 13.9917)
(-8.45218e-18 8.84387 13.5781)
(-8.74444e-18 8.60764 13.2196)
(-8.92286e-18 8.38082 12.9118)
(-8.867e-18 8.16575 12.638)
(-8.9385e-18 7.93691 12.3853)
(-9.12083e-18 7.70535 12.1108)
(-9.31635e-18 7.39103 11.7914)
(-9.08212e-18 7.01761 11.2629)
(-9.71647e-18 6.39442 10.5986)
(-1.05982e-17 4.44066 7.2282)
(-2.65227e-20 11.2686 18.9521)
(-3.24934e-19 14.9779 26.0098)
(-2.80345e-19 14.559 24.6007)
(-1.64059e-19 13.2545 22.0842)
(-1.82022e-19 12.1452 19.8982)
(7.53619e-19 11.3198 18.1342)
(1.36693e-18 10.6411 16.7533)
(1.40325e-18 10.1132 15.6456)
(1.37468e-18 9.67158 14.7636)
(1.44694e-18 9.28897 14.043)
(1.5643e-18 8.94268 13.4367)
(1.701e-18 8.62153 12.9165)
(1.83109e-18 8.31383 12.4666)
(1.94474e-18 8.01969 12.0629)
(2.03254e-18 7.70715 11.6881)
(2.17121e-18 7.3893 11.2854)
(2.30645e-18 6.96078 10.8281)
(2.3612e-18 6.46821 10.1005)
(2.44411e-18 5.60569 9.17547)
(2.88104e-18 3.43435 5.25286)
(1.44811e-20 11.2511 19.173)
(5.96431e-21 15.9992 27.5039)
(-2.21545e-20 15.481 26.2132)
(-3.86804e-20 14.0804 23.3704)
(-7.03949e-20 12.8083 21.1193)
(-1.46315e-19 11.9473 19.2507)
(-9.52509e-20 11.1702 17.7399)
(3.2917e-20 10.5355 16.4094)
(9.7738e-20 9.9672 15.2698)
(8.43544e-20 9.4642 14.2912)
(4.67729e-20 9.00665 13.4461)
(1.4706e-20 8.58209 12.7083)
(-1.5198e-20 8.17484 12.0595)
(-5.1326e-20 7.7835 11.4702)
(-9.03492e-20 7.36839 10.9192)
(-1.45611e-19 6.94504 10.3345)
(-2.15499e-19 6.38258 9.687)
(-2.94773e-19 5.75709 8.71834)
(-3.45023e-19 4.63271 7.481)
(-6.47967e-19 2.28805 2.95272)
(-1.62964e-21 11.3993 19.7056)
(1.13583e-20 17.2505 29.1865)
(1.5351e-20 16.0693 27.4616)
(1.24213e-20 14.6195 24.197)
(1.24094e-20 13.2032 22.0877)
(1.25932e-20 12.4372 20.2316)
(-9.6928e-22 11.5875 18.7344)
(-1.99925e-20 10.9047 17.2775)
(-3.26824e-20 10.2306 15.9636)
(-3.9594e-20 9.61918 14.7633)
(-4.34882e-20 9.04409 13.6784)
(-4.65836e-20 8.50122 12.695)
(-5.01557e-20 7.97517 11.8035)
(-5.35766e-20 7.4655 10.9754)
(-5.71148e-20 6.92618 10.1905)
(-5.98841e-20 6.37877 9.36816)
(-5.92344e-20 5.66987 8.47928)
(-5.33692e-20 4.90782 7.23872)
(-4.3592e-20 3.50201 5.59923)
(1.36273e-20 1.14078 0.567272)
(-1.34917e-21 12.0063 21.0463)
(-8.30322e-22 18.3053 30.4214)
(1.6902e-21 16.158 28.0312)
(4.01416e-21 14.921 24.5637)
(1.05727e-20 13.3828 22.8115)
(7.21048e-21 12.803 20.9786)
(-1.09845e-20 11.8374 19.5633)
(-3.08688e-20 11.1524 18.0372)
(-4.10851e-20 10.3782 16.6472)
(-4.1822e-20 9.67825 15.297)
(-3.96853e-20 8.98992 14.0294)
(-3.86307e-20 8.32797 12.832)
(-3.82232e-20 7.67514 11.705)
(-3.7186e-20 7.03666 10.6271)
(-3.41779e-20 6.36506 9.58913)
(-2.85504e-20 5.69476 8.50973)
(-2.04121e-20 4.84382 7.36117)
(-9.48925e-21 3.96557 5.83264)
(-6.8942e-22 2.20425 3.6874)
(-4.16001e-20 0.10407 -1.34863)
(9.36221e-22 13.0553 23.2219)
(-1.73765e-21 18.9494 30.9407)
(-3.87526e-21 15.8257 27.9991)
(-4.50231e-21 15.135 24.6576)
(-8.23428e-21 13.431 23.3008)
(-4.45097e-21 13.0522 21.4027)
(9.6505e-21 11.9164 20.05)
(2.44054e-20 11.2498 18.4519)
(3.21741e-20 10.3798 17.0406)
(3.37825e-20 9.62493 15.612)
(3.34926e-20 8.84923 14.2442)
(3.38559e-20 8.0958 12.9084)
(3.4915e-20 7.34261 11.6158)
(3.60634e-20 6.60486 10.353)
(3.65528e-20 5.83664 9.12464)
(3.60604e-20 5.07777 7.84255)
(3.42926e-20 4.11229 6.46891)
(3.13726e-20 3.13293 4.66755)
(2.82887e-20 1.03908 2.10254)
(-9.54987e-22 -0.710542 -2.49296)
(-3.59482e-22 14.2766 25.8501)
(1.09649e-21 19.2031 30.8)
(2.04494e-21 15.4092 27.8563)
(2.09982e-21 15.4378 24.788)
(3.45432e-21 13.5108 23.6769)
(1.52138e-21 13.2942 21.6552)
(-4.62454e-21 12.0319 20.3129)
(-1.07447e-20 11.3936 18.6523)
(-1.38709e-20 10.4796 17.2151)
(-1.45562e-20 9.7069 15.7335)
(-1.4509e-20 8.89923 14.3064)
(-1.47278e-20 8.11542 12.8961)
(-1.53031e-20 7.33034 11.5157)
(-1.60817e-20 6.55642 10.1492)
(-1.68588e-20 5.74003 8.79247)
(-1.76316e-20 4.88833 7.33101)
(-1.83707e-20 3.7934 5.71129)
(-1.91417e-20 2.62756 3.6426)
(-3.45689e-20 0.499306 0.964762)
(4.41669e-20 -1.15718 -3.07201)
(1.03829e-22 15.3874 28.5849)
(-4.19463e-22 19.3005 30.3681)
(-7.23316e-22 15.259 28.1513)
(-6.97579e-22 15.9415 25.2757)
(-1.08869e-21 13.7983 24.2638)
(-3.98451e-22 13.7193 22.1726)
(1.58461e-21 12.4338 20.8235)
(3.4851e-21 11.8372 19.143)
(4.43056e-21 10.9586 17.6786)
(4.61938e-21 10.2207 16.1721)
(4.57155e-21 9.46113 14.7156)
(4.59042e-21 8.7239 13.2667)
(4.72645e-21 7.96964 11.8113)
(4.96243e-21 7.17268 10.2955)
(5.28067e-21 6.24014 8.67312)
(5.72444e-21 5.14141 6.8161)
(6.40997e-21 3.74031 4.72969)
(7.33657e-21 2.18677 2.1685)
(6.42942e-21 -0.185711 -0.822229)
(4.36142e-20 -1.77717 -4.66698)
(-2.43339e-23 16.1034 30.9754)
(1.23532e-22 19.3307 29.9118)
(2.00357e-22 15.2894 28.809)
(1.8483e-22 16.4472 26.0367)
(2.7428e-22 14.1484 25.1108)
(8.3349e-23 14.2049 23.0713)
(-4.18598e-22 12.9552 21.7816)
(-8.81691e-22 12.447 20.1729)
(-1.10197e-21 11.6568 18.7766)
(-1.13171e-21 11.0336 17.3506)
(-1.09609e-21 10.4006 15.9747)
(-1.06907e-21 9.77502 14.5572)
(-1.06824e-21 9.04728 12.9933)
(-1.09589e-21 8.09371 11.1125)
(-1.15705e-21 6.74846 8.82465)
(-1.27504e-21 5.09032 6.1919)
(-1.42455e-21 3.09348 3.54176)
(-2.21548e-21 1.11789 0.547929)
(4.33798e-21 -1.74012 -2.85872)
(1.7307e-20 -2.89353 -6.94852)
(5.19309e-24 15.9766 31.9597)
(-3.21112e-23 18.9143 29.1032)
(-4.82405e-23 14.849 28.8997)
(-4.25164e-23 16.106 26.2649)
(-6.68926e-23 13.7932 25.426)
(-1.26108e-23 13.7916 23.576)
(1.11749e-22 12.5772 22.4112)
(2.12124e-22 12.0908 20.9811)
(2.50037e-22 11.3397 19.7761)
(2.4606e-22 10.7993 18.5619)
(2.29947e-22 10.2253 17.3813)
(2.16197e-22 9.5744 15.9978)
(2.08618e-22 8.57223 14.0714)
(2.14164e-22 6.91538 11.1568)
(2.54021e-22 4.47 7.20557)
(3.47014e-22 1.7971 3.14645)
(4.023e-22 -1.16105 -0.299173)
(-1.81152e-21 -0.968003 -1.91147)
(1.5016e-22 -3.98839 -4.99738)
(-3.23204e-21 -3.89414 -8.60221)
(-5.67116e-25 14.5827 31.0505)
(7.95798e-24 18.162 28.1356)
(1.03579e-23 13.6759 28.064)
(9.8867e-24 14.4916 25.8093)
(9.28495e-24 12.4597 24.9131)
(-9.7518e-24 11.9698 23.4059)
(-3.26772e-23 10.8722 22.266)
(-4.39178e-23 10.142 21.0444)
(-4.43998e-23 9.35652 19.9519)
(-4.06473e-23 8.68732 18.8912)
(-3.69586e-23 7.98268 17.7768)
(-3.49901e-23 7.0833 16.2646)
(-3.37992e-23 5.64545 13.7863)
(-1.92698e-23 3.35843 9.74289)
(4.05506e-23 0.481989 4.46277)
(8.28272e-23 -1.77038 0.0149231)
(-3.1322e-22 -2.82071 -2.33912)
(-1.85484e-21 -3.70713 -4.32755)
(-4.624e-21 -4.50746 -5.86657)
(-6.81018e-21 -3.01286 -4.84584)
(-2.89502e-27 11.3065 28.4147)
(-1.75589e-24 16.8245 24.9637)
(-1.9647e-24 11.9158 25.3818)
(-1.40162e-24 12.4805 23.725)
(2.08994e-25 10.717 23.0229)
(3.68344e-24 9.99441 21.9819)
(5.82358e-24 8.94314 21.1149)
(5.9819e-24 8.10154 20.2155)
(5.28348e-24 7.25955 19.3647)
(4.52542e-24 6.48779 18.522)
(3.88425e-24 5.72067 17.6379)
(3.01654e-24 4.90886 16.5769)
(1.26226e-24 4.01109 15.2017)
(1.26456e-25 3.10147 13.4795)
(1.14854e-23 2.36515 11.5172)
(5.95237e-23 1.90879 9.50171)
(1.26289e-22 1.61306 7.50827)
(8.61384e-24 1.25969 5.1611)
(-6.76656e-22 0.585369 2.21721)
(-1.28215e-21 -0.0478861 0.17727)
(5.72751e-26 2.61469 16.9705)
(2.53707e-25 8.05391 13.5941)
(1.87524e-25 5.17104 14.467)
(2.1676e-26 5.0075 14.0624)
(-2.16653e-25 4.08576 14.0214)
(-4.51653e-25 3.5278 13.8427)
(-4.97631e-25 2.95273 13.6798)
(-4.31433e-25 2.48023 13.4818)
(-3.51501e-25 2.06789 13.2673)
(-2.88954e-25 1.73676 13.049)
(-2.3633e-25 1.49812 12.8591)
(-1.62052e-25 1.36908 12.7206)
(-5.31734e-26 1.34713 12.6137)
(-1.64387e-25 1.4147 12.4567)
(-1.56675e-24 1.5546 12.1504)
(-6.06804e-24 1.71839 11.6783)
(-1.31865e-23 1.92848 11.0506)
(-1.49716e-23 2.50341 10.0294)
(-1.7298e-24 2.67304 8.58704)
(1.07897e-23 -0.232696 6.55305)
(-5.73003e-26 -2.6145 16.9702)
(-2.53497e-25 -8.0539 13.5937)
(-1.87367e-25 -5.17104 14.4666)
(-2.17586e-26 -5.00761 14.0619)
(2.15038e-25 -4.08595 14.0208)
(4.48233e-25 -3.52809 13.842)
(4.9383e-25 -2.95312 13.679)
(4.28106e-25 -2.48073 13.4809)
(3.48642e-25 -2.06854 13.2664)
(2.86849e-25 -1.73763 13.0482)
(2.34338e-25 -1.49924 12.8585)
(1.58019e-25 -1.37044 12.72)
(4.66824e-26 -1.34858 12.6129)
(1.69575e-25 -1.41598 12.4553)
(1.62987e-24 -1.5555 12.1482)
(6.24189e-24 -1.7188 11.6756)
(1.33977e-23 -1.92833 11.0479)
(1.48909e-23 -2.50277 10.0272)
(1.10188e-24 -2.67208 8.58545)
(-1.13453e-23 0.233222 6.55187)
(3.42363e-27 -11.3058 28.4133)
(1.75297e-24 -16.8238 24.9622)
(1.96119e-24 -11.9151 25.3802)
(1.39372e-24 -12.4799 23.7234)
(-2.05441e-25 -10.7164 23.0213)
(-3.64874e-24 -9.99377 21.9802)
(-5.7739e-24 -8.94245 21.1132)
(-5.93734e-24 -8.10081 20.2137)
(-5.24093e-24 -7.25875 19.363)
(-4.48913e-24 -6.48686 18.5201)
(-3.85694e-24 -5.7195 17.6357)
(-2.97987e-24 -4.90752 16.5743)
(-1.20086e-24 -4.01023 15.1993)
(-1.5499e-25 -3.10257 13.4789)
(-1.2049e-23 -2.36965 11.5202)
(-6.10142e-23 -1.91659 9.50977)
(-1.26792e-22 -1.62252 7.52064)
(-3.0104e-25 -1.26964 5.17425)
(7.04346e-22 -0.595823 2.23013)
(1.31347e-21 0.0411399 0.186518)
(5.62107e-25 -14.5821 31.0486)
(-7.93534e-24 -18.1607 28.1347)
(-1.0335e-23 -13.6751 28.0628)
(-9.81394e-24 -14.4902 25.8085)
(-9.19902e-24 -12.4585 24.9124)
(9.609e-24 -11.9682 23.4055)
(3.23147e-23 -10.8705 22.2657)
(4.35898e-23 -10.1401 21.0444)
(4.40928e-23 -9.35426 19.9521)
(4.03153e-23 -8.68452 18.8913)
(3.6698e-23 -7.97885 17.776)
(3.48454e-23 -7.07725 16.2608)
(3.37027e-23 -5.63528 13.7759)
(1.89377e-23 -3.34395 9.72453)
(-4.12731e-23 -0.470379 4.44665)
(-8.1177e-23 1.77057 0.0150072)
(3.28227e-22 2.81883 -2.33317)
(1.90134e-21 3.71001 -4.32778)
(4.71181e-21 4.50505 -5.86245)
(6.93273e-21 3.00813 -4.83193)