/*--------------------------------*- C++ -*----------------------------------*\
| =========                 |                                                 |
| \\      /  F ield         | OpenFOAM: The Open Source CFD Toolbox           |
|  \\    /   O peration     | Version:  4.1                                   |
|   \\  /    A nd           | Web:      www.OpenFOAM.org                      |
|    \\/     M anipulation  |                                                 |
\*---------------------------------------------------------------------------*/
FoamFile
{
    version     2.0;
    format      ascii;
    class       volScalarField;
    location    "25";
    object      p;
}
// * * * * * * * * * * * * * * * * * * * * * * * * * * * * * * * * * * * * * //

dimensions      [0 2 -2 0 0 0 0];

internalField   nonuniform List<scalar> 
1280
(
-2.47082e+08
-1.80223e+08
-1.84376e+08
-2.44043e+08
-2.6484e+08
-2.81656e+08
-3.14538e+08
-3.42523e+08
-3.56083e+08
-3.7466e+08
-4.16065e+08
-4.33692e+08
-4.49335e+08
-4.91666e+08
-5.10601e+08
-5.25576e+08
-5.69045e+08
-5.85672e+08
-6.07861e+08
-6.36977e+08
-6.61393e+08
-6.8112e+08
-7.04746e+08
-7.25299e+08
-7.43149e+08
-7.66331e+08
-8.35218e+08
-8.23529e+08
-8.37938e+08
-8.60657e+08
-8.80619e+08
-9.00374e+08
-9.20731e+08
-9.41318e+08
-9.62051e+08
-9.83393e+08
-1.0046e+09
-1.02749e+09
-1.04835e+09
-1.07498e+09
-1.26013e+09
-1.17956e+09
-1.19936e+09
-1.2552e+09
-1.27419e+09
-1.33185e+09
-1.40226e+09
-1.46422e+09
-1.49465e+09
-1.55892e+09
-1.67954e+09
-1.72521e+09
-1.81609e+09
-1.93373e+09
-2.04133e+09
-2.08611e+09
-2.21492e+09
-2.35909e+09
-2.49785e+09
-2.51134e+09
-2.73519e+09
-2.80282e+09
-2.92279e+09
-3.03297e+09
-3.13678e+09
-3.24014e+09
-3.34216e+09
-3.44259e+09
-3.54283e+09
-3.64103e+09
-3.74284e+09
-3.8362e+09
-3.95038e+09
-4.50894e+09
-4.38046e+09
-4.52944e+09
-4.72902e+09
-4.91791e+09
-5.10306e+09
-5.3371e+09
-5.79116e+09
-5.76941e+09
-5.78153e+09
-6.25352e+09
-6.89957e+09
-7.19834e+09
-7.8605e+09
-8.9313e+09
-9.26963e+09
-1.01015e+10
-1.18333e+10
-1.28756e+10
-1.74796e+10
-2.02395e+10
-2.40225e+10
-1.74588e+10
-1.04285e+11
-8.16879e+10
3.30275e+09
9.17802e+09
1.4304e+07
3.71757e+06
7.70194e+06
9.5736e+06
1.54201e+07
2.32193e+07
3.70618e+07
6.09368e+07
1.0015e+08
1.64394e+08
2.71924e+08
4.53714e+08
7.5619e+08
1.25369e+09
2.06785e+09
3.36808e+09
8.0189e+09
1.73167e+10
-8.64133e+10
-7.03091e+06
-1.833e+06
-653497
-6.50375e+06
-9.1196e+06
-1.54895e+07
-1.94812e+07
-3.26864e+07
-5.63324e+07
-1.00849e+08
-1.86874e+08
-3.6265e+08
-7.43247e+08
-1.49238e+09
-2.34058e+09
-2.83761e+09
-3.61171e+09
-3.7843e+07
-1.59001e+09
-33741
907918
1.65172e+06
2.60243e+06
5.43051e+06
8.55242e+06
1.26372e+07
1.73198e+07
2.4785e+07
3.54401e+07
4.87427e+07
5.56096e+07
9.26535e+06
-1.88555e+08
-6.15381e+08
-1.1168e+09
-1.90073e+09
-5.92433e+09
-1.34258e+10
1.87345e+06
587434
929204
2.61536e+06
3.63375e+06
4.876e+06
4.66852e+06
5.38147e+06
6.00953e+06
5.768e+06
-702651
-2.88176e+07
-1.2657e+08
-3.52555e+08
-6.54156e+08
-1.08257e+09
-1.73735e+09
-3.34737e+09
-5.91042e+09
1.29409e+06
746207
1.08358e+06
1.2423e+06
1.39706e+06
1.42601e+06
1.07181e+06
291206
-2.50639e+06
-9.85417e+06
-2.89931e+07
-7.70095e+07
-1.95083e+08
-4.02312e+08
-6.7344e+08
-1.04866e+09
-1.64746e+09
-3.27722e+09
-6.00147e+09
1.20048e+06
498341
1.05296e+06
1.16005e+06
1.40956e+06
1.44744e+06
1.20956e+06
206412
-2.95676e+06
-1.09334e+07
-3.07425e+07
-7.73158e+07
-1.829e+08
-3.5712e+08
-5.97181e+08
-9.62471e+08
-1.50854e+09
-2.57466e+09
-4.20445e+09
1.20324e+06
394127
943112
965860
1.15376e+06
1.07767e+06
465948
-1.05769e+06
-5.07349e+06
-1.43547e+07
-3.57328e+07
-8.27218e+07
-1.77861e+08
-3.33871e+08
-5.58731e+08
-8.9234e+08
-1.36715e+09
-2.19461e+09
-3.44458e+09
1.09776e+06
293467
816922
713894
769969
466312
-459343
-2.52313e+06
-7.46157e+06
-1.81043e+07
-4.07072e+07
-8.69217e+07
-1.7024e+08
-3.07931e+08
-5.09873e+08
-8.05751e+08
-1.21662e+09
-1.81105e+09
-2.62e+09
968758
210718
684122
512472
489049
55201.3
-1.06213e+06
-3.49154e+06
-8.94392e+06
-2.01483e+07
-4.26591e+07
-8.54364e+07
-1.59817e+08
-2.82807e+08
-4.66388e+08
-7.26212e+08
-1.07624e+09
-1.53932e+09
-2.12576e+09
840598
154285
560622
350518
274099
-237666
-1.50122e+06
-4.16464e+06
-9.84724e+06
-2.10843e+07
-4.27451e+07
-8.17086e+07
-1.49364e+08
-2.59922e+08
-4.22606e+08
-6.47539e+08
-9.43345e+08
-1.30393e+09
-1.72218e+09
709691
111763
446752
222609
105530
-472259
-1.82999e+06
-4.59255e+06
-1.0266e+07
-2.1179e+07
-4.13868e+07
-7.73421e+07
-1.38982e+08
-2.37466e+08
-3.80589e+08
-5.74171e+08
-8.2237e+08
-1.11082e+09
-1.42257e+09
584892
80138.6
348511
124095
-26898.9
-642299
-2.01644e+06
-4.75363e+06
-1.02208e+07
-2.0529e+07
-3.93812e+07
-7.2683e+07
-1.2845e+08
-2.15392e+08
-3.40149e+08
-5.0519e+08
-7.12312e+08
-9.43756e+08
-1.18119e+09
467809
55508.6
266472
50657.6
-125788
-736791
-2.06631e+06
-4.67582e+06
-9.82973e+06
-1.95247e+07
-3.71719e+07
-6.76429e+07
-1.17462e+08
-1.93644e+08
-3.01538e+08
-4.41075e+08
-6.12919e+08
-7.96384e+08
-9.90163e+08
369585
36657.9
197499
1239.97
-186016
-761667
-1.99551e+06
-4.43683e+06
-9.28002e+06
-1.83775e+07
-3.4564e+07
-6.19601e+07
-1.06011e+08
-1.72118e+08
-2.64519e+08
-3.81331e+08
-5.22632e+08
-6.60282e+08
-8.035e+08
274108
20874.8
139008
-27182.9
-211164
-723836
-1.849e+06
-4.13002e+06
-8.64006e+06
-1.69395e+07
-3.14985e+07
-5.57959e+07
-9.42652e+07
-1.51055e+08
-2.29535e+08
-3.26749e+08
-4.42656e+08
-5.48303e+08
-6.54876e+08
218590
9778.02
96261.3
-37249.9
-205512
-652421
-1.68121e+06
-3.79331e+06
-7.87988e+06
-1.53326e+07
-2.82715e+07
-4.95836e+07
-8.29094e+07
-1.3143e+08
-1.97812e+08
-2.78513e+08
-3.73631e+08
-4.56097e+08
-5.37646e+08
119303
-339.014
63102.2
-35758.8
-184063
-572821
-1.48538e+06
-3.33915e+06
-6.88826e+06
-1.32994e+07
-2.43079e+07
-4.22287e+07
-6.99273e+07
-1.09723e+08
-1.63612e+08
-2.27874e+08
-3.02894e+08
-3.64117e+08
-4.2882e+08
152385
-548.156
52080.1
-21703.3
-146915
-461147
-1.18967e+06
-2.66251e+06
-5.4621e+06
-1.04869e+07
-1.90604e+07
-3.29139e+07
-5.418e+07
-8.44943e+07
-1.25374e+08
-1.735e+08
-2.29787e+08
-2.72003e+08
-3.2601e+08
-113750
-11067.1
22449
-15547.5
-133897
-450431
-1.19215e+06
-2.71556e+06
-5.63351e+06
-1.08946e+07
-1.98922e+07
-3.44518e+07
-5.68317e+07
-8.8788e+07
-1.31954e+08
-1.82814e+08
-2.42026e+08
-2.82621e+08
-3.31808e+08
384452
12750.6
-6995.66
-22033.4
-136585
-473965
-1.25751e+06
-2.8677e+06
-5.94761e+06
-1.14824e+07
-2.09054e+07
-3.60831e+07
-5.92673e+07
-9.21851e+07
-1.36169e+08
-1.87654e+08
-2.45722e+08
-2.83933e+08
-3.27726e+08
-8.6003e+08
-8.55853e+08
-8.53766e+08
-8.5233e+08
-8.51055e+08
-8.50044e+08
-8.5002e+08
-8.50527e+08
-8.50767e+08
-8.51245e+08
-8.52069e+08
-8.53175e+08
-8.54529e+08
-8.56101e+08
-8.57865e+08
-8.59843e+08
-8.61925e+08
-8.64374e+08
-8.66503e+08
-8.70246e+08
-8.51353e+08
-8.51678e+08
-8.51691e+08
-8.51585e+08
-8.51508e+08
-8.51441e+08
-8.51433e+08
-8.51511e+08
-8.51631e+08
-8.51805e+08
-8.5204e+08
-8.52327e+08
-8.52661e+08
-8.53039e+08
-8.53458e+08
-8.53911e+08
-8.54368e+08
-8.54859e+08
-8.55275e+08
-8.55893e+08
-8.50714e+08
-8.50743e+08
-8.5071e+08
-8.50705e+08
-8.50721e+08
-8.50736e+08
-8.50749e+08
-8.50768e+08
-8.50795e+08
-8.5083e+08
-8.50876e+08
-8.50932e+08
-8.51001e+08
-8.51081e+08
-8.51172e+08
-8.51276e+08
-8.51385e+08
-8.51511e+08
-8.51621e+08
-8.51795e+08
-8.50603e+08
-8.50611e+08
-8.50628e+08
-8.50642e+08
-8.50658e+08
-8.50677e+08
-8.50699e+08
-8.50723e+08
-8.50746e+08
-8.50769e+08
-8.50793e+08
-8.50818e+08
-8.50844e+08
-8.5087e+08
-8.50896e+08
-8.50923e+08
-8.50949e+08
-8.50978e+08
-8.51002e+08
-8.5104e+08
-8.50602e+08
-8.50601e+08
-8.50604e+08
-8.50605e+08
-8.50607e+08
-8.5061e+08
-8.50613e+08
-8.50618e+08
-8.50624e+08
-8.50631e+08
-8.50638e+08
-8.50646e+08
-8.50654e+08
-8.50663e+08
-8.50673e+08
-8.50682e+08
-8.50692e+08
-8.50703e+08
-8.50712e+08
-8.50726e+08
-8.5061e+08
-8.5061e+08
-8.50612e+08
-8.50613e+08
-8.50615e+08
-8.50616e+08
-8.50618e+08
-8.5062e+08
-8.50623e+08
-8.50625e+08
-8.50628e+08
-8.5063e+08
-8.50633e+08
-8.50636e+08
-8.50638e+08
-8.50641e+08
-8.50644e+08
-8.50647e+08
-8.50649e+08
-8.50653e+08
-8.50599e+08
-8.506e+08
-8.506e+08
-8.50601e+08
-8.50601e+08
-8.50602e+08
-8.50603e+08
-8.50604e+08
-8.50605e+08
-8.50606e+08
-8.50607e+08
-8.50608e+08
-8.50609e+08
-8.50611e+08
-8.50612e+08
-8.50613e+08
-8.50614e+08
-8.50616e+08
-8.50617e+08
-8.50618e+08
-8.50601e+08
-8.50601e+08
-8.50601e+08
-8.50602e+08
-8.50602e+08
-8.50602e+08
-8.50602e+08
-8.50603e+08
-8.50603e+08
-8.50604e+08
-8.50604e+08
-8.50604e+08
-8.50605e+08
-8.50605e+08
-8.50606e+08
-8.50606e+08
-8.50606e+08
-8.50607e+08
-8.50607e+08
-8.50608e+08
-8.50601e+08
-8.50601e+08
-8.50601e+08
-8.50601e+08
-8.50601e+08
-8.50601e+08
-8.50601e+08
-8.50601e+08
-8.50601e+08
-8.50602e+08
-8.50602e+08
-8.50602e+08
-8.50602e+08
-8.50602e+08
-8.50602e+08
-8.50603e+08
-8.50603e+08
-8.50603e+08
-8.50603e+08
-8.50603e+08
-8.50601e+08
-8.50601e+08
-8.50601e+08
-8.50601e+08
-8.50601e+08
-8.50601e+08
-8.50601e+08
-8.50601e+08
-8.50601e+08
-8.50601e+08
-8.50601e+08
-8.50601e+08
-8.50601e+08
-8.50601e+08
-8.50602e+08
-8.50602e+08
-8.50602e+08
-8.50602e+08
-8.50602e+08
-8.50602e+08
-8.50601e+08
-8.50601e+08
-8.50601e+08
-8.50601e+08
-8.50601e+08
-8.50601e+08
-8.50601e+08
-8.50601e+08
-8.50601e+08
-8.50601e+08
-8.50601e+08
-8.50601e+08
-8.50601e+08
-8.50601e+08
-8.50601e+08
-8.50601e+08
-8.50601e+08
-8.50601e+08
-8.50601e+08
-8.50601e+08
-8.50601e+08
-8.50601e+08
-8.50601e+08
-8.50601e+08
-8.50601e+08
-8.50601e+08
-8.50601e+08
-8.50601e+08
-8.50601e+08
-8.50601e+08
-8.50601e+08
-8.50601e+08
-8.50601e+08
-8.50601e+08
-8.50601e+08
-8.50601e+08
-8.50601e+08
-8.50601e+08
-8.50601e+08
-8.50601e+08
-8.50601e+08
-8.50601e+08
-8.50601e+08
-8.50601e+08
-8.50601e+08
-8.50601e+08
-8.50601e+08
-8.50601e+08
-8.50601e+08
-8.50601e+08
-8.50601e+08
-8.50601e+08
-8.50601e+08
-8.50601e+08
-8.50601e+08
-8.50601e+08
-8.50601e+08
-8.50601e+08
-8.50601e+08
-8.50601e+08
-8.50601e+08
-8.50601e+08
-8.50601e+08
-8.50601e+08
-8.50601e+08
-8.50601e+08
-8.50601e+08
-8.50601e+08
-8.50601e+08
-8.50601e+08
-8.50601e+08
-8.50601e+08
-8.50601e+08
-8.50601e+08
-8.50601e+08
-8.50601e+08
-8.50601e+08
-8.50601e+08
-8.50601e+08
-8.50601e+08
-8.50601e+08
-8.50601e+08
-8.50601e+08
-8.50601e+08
-8.50601e+08
-8.50601e+08
-8.50601e+08
-8.50601e+08
-8.50601e+08
-8.50601e+08
-8.50601e+08
-8.50601e+08
-8.50601e+08
-8.50601e+08
-8.50601e+08
-8.50601e+08
-8.50601e+08
-8.50601e+08
-8.50601e+08
-8.50601e+08
-8.50601e+08
-8.50601e+08
-8.50601e+08
-8.50601e+08
-8.50601e+08
-8.50601e+08
-8.50601e+08
-8.50601e+08
-8.50601e+08
-8.50601e+08
-8.50601e+08
-8.50601e+08
-8.50601e+08
-8.50601e+08
-8.50601e+08
-8.50601e+08
-8.50601e+08
-8.50601e+08
-8.50601e+08
-8.50601e+08
-8.50601e+08
-8.50601e+08
-8.50601e+08
-8.50601e+08
-8.50601e+08
-8.50601e+08
-8.50601e+08
-8.50601e+08
-8.50601e+08
-8.50601e+08
-8.50601e+08
-8.50601e+08
-8.50601e+08
-8.50601e+08
-8.50601e+08
-8.50601e+08
-8.50601e+08
-8.50601e+08
-8.50601e+08
-8.50601e+08
-8.50601e+08
-8.50601e+08
-8.50601e+08
-8.50601e+08
-8.50601e+08
-8.50601e+08
-8.50601e+08
-8.50601e+08
-8.50601e+08
-8.50601e+08
-8.50601e+08
-8.50601e+08
-8.50601e+08
-8.50601e+08
-8.50601e+08
-8.50601e+08
-8.50601e+08
-8.50601e+08
-8.50601e+08
-8.50601e+08
-8.50601e+08
-8.50601e+08
-8.50601e+08
-8.50601e+08
-8.50601e+08
-8.50601e+08
-8.50601e+08
-8.50601e+08
-8.50601e+08
-8.50601e+08
-8.50601e+08
-8.50601e+08
-8.50601e+08
-8.50601e+08
-8.50601e+08
-8.50601e+08
-8.50601e+08
-8.50601e+08
-8.50601e+08
-8.50601e+08
-8.50601e+08
-8.50601e+08
-8.50601e+08
-8.50601e+08
-8.50601e+08
-8.50601e+08
-8.50601e+08
-8.50601e+08
-8.50601e+08
-8.50601e+08
-8.50601e+08
-8.50601e+08
-8.50601e+08
-8.50601e+08
-8.50601e+08
-8.50601e+08
-8.50601e+08
-8.50601e+08
-8.50601e+08
-8.50601e+08
-3.65736e+09
-3.65736e+09
-3.65736e+09
-3.65736e+09
-3.65736e+09
-3.65736e+09
-3.65736e+09
-3.65736e+09
-3.65736e+09
-3.65736e+09
-3.65736e+09
-3.65736e+09
-3.65736e+09
-3.65736e+09
-3.65736e+09
-3.65736e+09
-3.65736e+09
-3.65736e+09
-3.65736e+09
-3.65736e+09
-3.65736e+09
-3.65736e+09
-3.65736e+09
-3.65736e+09
-3.65736e+09
-3.65736e+09
-3.65736e+09
-3.65736e+09
-3.65736e+09
-3.65736e+09
-3.65736e+09
-3.65736e+09
-3.65736e+09
-3.65736e+09
-3.65736e+09
-3.65736e+09
-3.65736e+09
-3.65736e+09
-3.65736e+09
-3.65736e+09
-3.65736e+09
-3.65736e+09
-3.65736e+09
-3.65736e+09
-3.65736e+09
-3.65736e+09
-3.65736e+09
-3.65736e+09
-3.65736e+09
-3.65736e+09
-3.65736e+09
-3.65736e+09
-3.65736e+09
-3.65736e+09
-3.65736e+09
-3.65736e+09
-3.65736e+09
-3.65736e+09
-3.65736e+09
-3.65736e+09
-3.65736e+09
-3.65736e+09
-3.65736e+09
-3.65736e+09
-3.65736e+09
-3.65736e+09
-3.65736e+09
-3.65736e+09
-3.65736e+09
-3.65736e+09
-3.65736e+09
-3.65736e+09
-3.65736e+09
-3.65736e+09
-3.65736e+09
-3.65736e+09
-3.65736e+09
-3.65736e+09
-3.65736e+09
-3.65736e+09
-3.65736e+09
-3.65736e+09
-3.65736e+09
-3.65736e+09
-3.65736e+09
-3.65736e+09
-3.65736e+09
-3.65736e+09
-3.65736e+09
-3.65736e+09
-3.65736e+09
-3.65736e+09
-3.65736e+09
-3.65736e+09
-3.65736e+09
-3.65736e+09
-3.65736e+09
-3.65736e+09
-3.65736e+09
-3.65736e+09
-3.65736e+09
-3.65736e+09
-3.65736e+09
-3.65736e+09
-3.65736e+09
-3.65736e+09
-3.65736e+09
-3.65736e+09
-3.65736e+09
-3.65736e+09
-3.65736e+09
-3.65736e+09
-3.65736e+09
-3.65736e+09
-3.65736e+09
-3.65736e+09
-3.65736e+09
-3.65736e+09
-3.65736e+09
-3.65736e+09
-3.65736e+09
-3.65736e+09
-3.65736e+09
-3.65736e+09
-3.65736e+09
-3.65736e+09
-3.65736e+09
-3.65736e+09
-3.65736e+09
-3.65736e+09
-3.65736e+09
-3.65736e+09
-3.65736e+09
-3.65736e+09
-3.65736e+09
-3.65736e+09
-3.65736e+09
-3.65736e+09
-3.65736e+09
-3.65736e+09
-3.65736e+09
-3.65736e+09
-3.65736e+09
-3.65736e+09
-3.65736e+09
-3.65736e+09
-3.65736e+09
-3.65736e+09
-3.65736e+09
-3.65736e+09
-3.65736e+09
-3.65736e+09
-3.65736e+09
-3.65736e+09
-3.65736e+09
-3.65736e+09
-3.65736e+09
-3.65736e+09
-3.65736e+09
-3.65736e+09
-3.65736e+09
-3.65736e+09
-3.65736e+09
-3.65736e+09
-3.65736e+09
-3.65736e+09
-3.65736e+09
-3.65736e+09
-3.65736e+09
-3.65736e+09
-3.65736e+09
-3.65736e+09
-3.65736e+09
-3.65736e+09
-3.65736e+09
-3.65736e+09
-3.65736e+09
-3.65736e+09
-3.65736e+09
-3.65736e+09
-3.65736e+09
-3.65736e+09
-3.65736e+09
-3.65736e+09
-3.65736e+09
-3.65736e+09
-3.65736e+09
-3.65736e+09
-3.65736e+09
-3.65736e+09
-3.65736e+09
-3.65736e+09
-3.65736e+09
-3.65736e+09
-3.65736e+09
-3.65736e+09
-3.65736e+09
-3.65736e+09
-3.65736e+09
-3.65736e+09
-3.65736e+09
-3.65736e+09
-3.65736e+09
-3.65736e+09
-3.65736e+09
-3.65736e+09
-3.65736e+09
-3.65736e+09
-3.65736e+09
-3.65736e+09
-3.65736e+09
-3.65736e+09
-3.65736e+09
-3.65736e+09
-3.65736e+09
-3.65736e+09
-3.65736e+09
-3.65736e+09
-3.65736e+09
-3.65736e+09
-3.65737e+09
-3.65737e+09
-3.65737e+09
-3.65737e+09
-3.65737e+09
-3.65737e+09
-3.65737e+09
-3.65737e+09
-3.65737e+09
-3.65737e+09
-3.65737e+09
-3.65737e+09
-3.65736e+09
-3.65736e+09
-3.65736e+09
-3.65736e+09
-3.65736e+09
-3.65736e+09
-3.65736e+09
-3.65736e+09
-3.65737e+09
-3.65737e+09
-3.65737e+09
-3.65737e+09
-3.65737e+09
-3.65737e+09
-3.65737e+09
-3.65737e+09
-3.65737e+09
-3.65737e+09
-3.65737e+09
-3.65737e+09
-3.65737e+09
-3.65737e+09
-3.65737e+09
-3.65737e+09
-3.65737e+09
-3.65736e+09
-3.65736e+09
-3.65736e+09
-3.65737e+09
-3.65738e+09
-3.65738e+09
-3.65738e+09
-3.65738e+09
-3.65738e+09
-3.65738e+09
-3.65738e+09
-3.65738e+09
-3.65738e+09
-3.65738e+09
-3.65738e+09
-3.65738e+09
-3.65737e+09
-3.65737e+09
-3.65737e+09
-3.65736e+09
-3.65736e+09
-3.65736e+09
-3.65736e+09
-3.65742e+09
-3.65743e+09
-3.65743e+09
-3.65743e+09
-3.65743e+09
-3.65743e+09
-3.65743e+09
-3.65743e+09
-3.65743e+09
-3.65743e+09
-3.65742e+09
-3.65741e+09
-3.6574e+09
-3.65739e+09
-3.65738e+09
-3.65737e+09
-3.65735e+09
-3.65734e+09
-3.65734e+09
-3.65733e+09
-3.65748e+09
-3.65751e+09
-3.65753e+09
-3.65755e+09
-3.65756e+09
-3.65758e+09
-3.65758e+09
-3.65758e+09
-3.65758e+09
-3.65756e+09
-3.65754e+09
-3.65751e+09
-3.65748e+09
-3.65744e+09
-3.6574e+09
-3.65736e+09
-3.65732e+09
-3.65728e+09
-3.65727e+09
-3.65724e+09
-3.65828e+09
-3.65834e+09
-3.65839e+09
-3.65843e+09
-3.65846e+09
-3.65848e+09
-3.65848e+09
-3.65846e+09
-3.65842e+09
-3.65835e+09
-3.65826e+09
-3.65814e+09
-3.658e+09
-3.65784e+09
-3.65767e+09
-3.65748e+09
-3.65731e+09
-3.65716e+09
-3.65703e+09
-3.65694e+09
-3.65938e+09
-3.65992e+09
-3.66023e+09
-3.6606e+09
-3.66088e+09
-3.6611e+09
-3.66122e+09
-3.66122e+09
-3.66108e+09
-3.66079e+09
-3.66035e+09
-3.65977e+09
-3.65909e+09
-3.65835e+09
-3.65755e+09
-3.65672e+09
-3.65594e+09
-3.65523e+09
-3.65464e+09
-3.65465e+09
-3.67326e+09
-3.67382e+09
-3.67444e+09
-3.67478e+09
-3.67484e+09
-3.67447e+09
-3.67366e+09
-3.67245e+09
-3.67092e+09
-3.66913e+09
-3.66723e+09
-3.66542e+09
-3.66369e+09
-3.66207e+09
-3.6606e+09
-3.65934e+09
-3.65838e+09
-3.65765e+09
-3.65695e+09
-3.65743e+09
-3.68207e+09
-3.69984e+09
-3.70894e+09
-3.71759e+09
-3.72278e+09
-3.72617e+09
-3.72743e+09
-3.72617e+09
-3.72331e+09
-3.71967e+09
-3.71551e+09
-3.71131e+09
-3.70735e+09
-3.70371e+09
-3.70054e+09
-3.69791e+09
-3.69606e+09
-3.69506e+09
-3.69442e+09
-3.69572e+09
)
;

boundaryField
{
    outletWall
    {
        type            fixedValue;
        value           uniform 0;
    }
    fineWalls
    {
        type            zeroGradient;
    }
    fineFrontAndBack
    {
        type            zeroGradient;
    }
    fineplugLeft
    {
        type            cyclicAMI;
        value           nonuniform List<scalar> 
20
(
-9.11192e+08
-9.02872e+08
-8.96996e+08
-8.9046e+08
-8.84553e+08
-8.78702e+08
-8.73144e+08
-8.67769e+08
-8.62615e+08
-8.57779e+08
-8.53128e+08
-8.48201e+08
-8.45128e+08
-8.48337e+08
-8.33301e+08
-8.29473e+08
-8.26924e+08
-8.23962e+08
-8.20906e+08
-8.20303e+08
)
;
    }
    fineplugRight
    {
        type            cyclicAMI;
        value           nonuniform List<scalar> 
20
(
-3.50361e+09
-3.5161e+09
-3.5406e+09
-3.56344e+09
-3.58569e+09
-3.60846e+09
-3.6314e+09
-3.6544e+09
-3.67761e+09
-3.70061e+09
-3.7243e+09
-3.74588e+09
-3.77101e+09
-3.8163e+09
-3.85703e+09
-3.88411e+09
-3.91987e+09
-3.95074e+09
-3.98049e+09
-4.01308e+09
)
;
    }
    inletOutletLeft
    {
        type            cyclicAMI;
        value           nonuniform List<scalar> 
20
(
-9.11192e+08
-9.02872e+08
-8.96996e+08
-8.9046e+08
-8.84553e+08
-8.78702e+08
-8.73144e+08
-8.67769e+08
-8.62615e+08
-8.57779e+08
-8.53128e+08
-8.48201e+08
-8.45128e+08
-8.48337e+08
-8.33301e+08
-8.29473e+08
-8.26924e+08
-8.23962e+08
-8.20906e+08
-8.20303e+08
)
;
    }
    inletLeft
    {
        type            zeroGradient;
    }
    inletWallsLeft
    {
        type            zeroGradient;
    }
    inletFacesLeft
    {
        type            zeroGradient;
    }
    inletOutletRight
    {
        type            cyclicAMI;
        value           nonuniform List<scalar> 
20
(
-3.50361e+09
-3.5161e+09
-3.5406e+09
-3.56344e+09
-3.58569e+09
-3.60846e+09
-3.6314e+09
-3.6544e+09
-3.67761e+09
-3.70061e+09
-3.7243e+09
-3.74588e+09
-3.77101e+09
-3.8163e+09
-3.85703e+09
-3.88411e+09
-3.91987e+09
-3.95074e+09
-3.98049e+09
-4.01308e+09
)
;
    }
    inletRight
    {
        type            zeroGradient;
    }
    inletWallsRight
    {
        type            zeroGradient;
    }
    inletFacesRight
    {
        type            zeroGradient;
    }
}


// ************************************************************************* //
