/*--------------------------------*- C++ -*----------------------------------*\
| =========                 |                                                 |
| \\      /  F ield         | OpenFOAM: The Open Source CFD Toolbox           |
|  \\    /   O peration     | Version:  4.1                                   |
|   \\  /    A nd           | Web:      www.OpenFOAM.org                      |
|    \\/     M anipulation  |                                                 |
\*---------------------------------------------------------------------------*/
FoamFile
{
    version     2.0;
    format      ascii;
    class       volVectorField;
    location    "25";
    object      U;
}
// * * * * * * * * * * * * * * * * * * * * * * * * * * * * * * * * * * * * * //

dimensions      [0 1 -1 0 0 0 0];

internalField   nonuniform List<vector> 
1280
(
(-1.04749e-14 13905.5 -217.702)
(1.55923e-13 11868.5 1441.43)
(-7.75623e-13 7993.64 944.818)
(-4.9064e-13 8324.58 539.572)
(-4.24622e-13 11032.6 1611.48)
(-3.4083e-13 7369.49 803.899)
(4.24372e-13 8214.69 545.667)
(-2.87987e-12 7358.72 551.581)
(6.96112e-12 9839.77 88.0794)
(7.65415e-12 7527.09 -43.7971)
(8.23924e-12 7431.26 81.9618)
(-1.30527e-11 10136.1 35.0001)
(-1.52775e-11 7619.47 -17.5174)
(-1.06367e-11 7528.25 -7.59503)
(-3.71654e-11 10299.7 430.447)
(-2.35094e-11 7712.97 248.781)
(-1.75584e-11 7532.99 57.2064)
(-1.82982e-11 10853.9 1088.17)
(-9.06627e-12 7151 526.775)
(-1.04198e-11 8648.79 736.562)
(2.13666e-12 7828.01 -307.255)
(5.6311e-12 7620.64 -444.221)
(-3.49233e-13 7746.77 -339.702)
(-5.28277e-12 7532.29 -185.823)
(-6.78946e-12 7656.14 63.5965)
(-5.71285e-12 6944.99 203.971)
(-4.04728e-12 13406 1420.02)
(-2.84088e-12 7589.96 746.902)
(-1.89889e-12 7336.24 320.457)
(-1.1202e-12 7461.77 -2.47866)
(-5.12044e-13 7422.95 -140.729)
(-8.98335e-14 7398.23 -156.574)
(2.14196e-13 7421.4 -80.5284)
(7.12788e-13 7443.97 65.7292)
(1.44681e-12 7490.08 259.777)
(2.21574e-12 7504.46 496.949)
(2.93476e-12 7612.66 752.898)
(4.10836e-12 7532.98 1073.65)
(4.16101e-12 7875.79 1325.97)
(1.56957e-11 7375.71 1947.86)
(-4.8815e-13 17206.6 -1152)
(-5.02885e-12 9246.22 -914.814)
(-3.33812e-12 9555.57 -768.443)
(-6.32264e-12 8956.05 -278.149)
(-3.48933e-11 14243.9 -2426.2)
(-2.59538e-11 10395.5 -1663.93)
(-1.98077e-11 11923.8 -1267.45)
(-1.06804e-11 10719.1 -552.831)
(-4.43207e-11 15835.5 -2085.89)
(4.00353e-12 12678.3 -1220.66)
(4.4348e-11 12413.4 -706.658)
(4.39111e-11 19117.4 -1795.11)
(2.31228e-11 13690.8 -1224.58)
(1.68774e-11 15627 -1043.45)
(1.15549e-11 13933.2 -493.31)
(1.26672e-11 21365.5 -1231.77)
(-1.87661e-12 15356.9 -733.516)
(-2.07932e-12 17653.1 -390.483)
(1.64465e-12 15159.6 -6.30959)
(-3.30837e-11 26786.4 486.172)
(-2.66501e-11 17813.9 -2833.84)
(-1.89691e-11 16990 -3120.54)
(-1.31438e-11 17144.7 -2711.65)
(-9.27028e-12 17007.8 -2206.22)
(-6.74786e-12 16802.2 -1715.09)
(-5.06287e-12 16666.4 -1221.99)
(-3.86695e-12 16536.5 -715.857)
(-3.0289e-12 16430.8 -191.945)
(-2.34987e-12 16293.6 341.136)
(-2.16012e-12 16271.1 906.546)
(-2.33097e-12 15996.2 1467.34)
(-2.48648e-12 16352.6 2057.49)
(-2.82935e-12 15143.7 2713.78)
(1.59444e-12 33242.7 -2776.55)
(-3.97397e-12 20566 332.494)
(-3.47471e-12 20630.2 92.9981)
(-4.92395e-12 21369.2 4.3268)
(-4.37917e-12 21391.3 352.535)
(-1.69339e-11 22135.6 620.618)
(-2.09433e-11 21231.5 2217.35)
(6.56773e-12 28306.7 -1355.91)
(9.4415e-12 19869.2 -500.075)
(8.37875e-12 32129.6 -12710.6)
(3.44324e-12 28551.8 -8464.01)
(5.96842e-12 28929.2 -4737.23)
(-1.98647e-11 42428.5 -13451)
(-3.09762e-11 37163.8 -8354.61)
(-2.81444e-11 36581.4 -4496.43)
(-6.83052e-11 55982.5 -18415.7)
(-4.21026e-11 46213.4 -12719.5)
(-1.62001e-11 47072.1 -6821.49)
(-8.28884e-11 75541.8 -33459.4)
(-8.17354e-11 65645.8 -25522.4)
(-6.45965e-11 83873.4 -5993.95)
(-3.67023e-11 60630.2 -68507.6)
(-1.32678e-10 120599 695299)
(-2.22199e-10 -137458 1.36142e+06)
(-2.6691e-10 -235650 1.63625e+06)
(2.15261e-10 -454689 -1.23227e+06)
(1.85712e-09 -1.19858e+06 -1.11928e+07)
(3.10572e-12 10318.7 10513.3)
(2.735e-12 4585.9 4329.59)
(2.57606e-12 9316.86 8583.69)
(1.33432e-12 9776.12 10622.2)
(-2.64358e-13 10302.3 13665.1)
(-1.87172e-12 10691.8 17116.8)
(-3.18293e-12 12386.1 21582.4)
(-4.33698e-12 15045.8 27551.5)
(-5.72062e-12 18617.1 35372.5)
(-7.66295e-12 22945.5 45479.1)
(-1.03893e-11 28526.2 58542.1)
(-1.41558e-11 36172.6 75576.7)
(-1.94095e-11 47302.8 98252.4)
(-2.69137e-11 64457.6 129477)
(-3.76363e-11 90047.6 172824)
(-5.19932e-11 121266 228603)
(-6.82419e-11 148041 283619)
(-7.84856e-11 140653 309870)
(-5.37464e-11 6166.66 278844)
(3.16667e-13 -4513.4 404.13)
(1.47109e-13 -1791.01 965.452)
(1.24304e-12 -5987.62 870.859)
(1.23459e-12 -5653 1570.99)
(3.26014e-13 -6136.12 2906.9)
(-8.14168e-13 -6422.67 5075.46)
(-1.78114e-12 -7806.42 6816)
(-2.63789e-12 -9513.33 8904.72)
(-3.59619e-12 -11779.1 11640.1)
(-4.88479e-12 -14454.1 15471.8)
(-6.68787e-12 -17982.8 21165.2)
(-9.13061e-12 -23193.2 30035.4)
(-1.21773e-11 -31750.9 43512.3)
(-1.52661e-11 -46336.8 60599.2)
(-1.69334e-11 -68814.2 73678.1)
(-1.57006e-11 -90353.7 75438)
(-1.50889e-11 -73023 85032.1)
(-3.16197e-11 48823.5 159416)
(-7.65618e-11 214502 392620)
(-8.31294e-14 -1364.78 -926.325)
(1.16277e-13 1839.87 186.72)
(3.36666e-13 1878.04 1137.51)
(7.51787e-13 -370.631 520.787)
(5.64147e-13 81.9288 1286.63)
(-9.3762e-14 -135.084 2319.71)
(-8.44352e-13 703.857 3557.91)
(-1.507e-12 606.227 4611.9)
(-2.16058e-12 399.225 5912.2)
(-2.97031e-12 -304.45 7744.34)
(-4.06505e-12 -1518.15 10497.1)
(-5.45374e-12 -3127.47 14292.7)
(-6.91504e-12 -4106.83 18599.1)
(-7.84533e-12 -1760.06 20481.1)
(-7.22731e-12 7737.96 13528.3)
(-4.03075e-12 21536.3 -8432.26)
(-1.15025e-12 8147.81 -29431.5)
(-1.43083e-12 -16919.7 -69843.7)
(1.57685e-11 -14851.9 -105659)
(1.77787e-14 -5.27029 -155.966)
(8.0093e-14 -526.422 -140.237)
(1.15874e-13 -454.621 1350.16)
(2.68465e-13 -195.071 959.364)
(3.83263e-13 -562.786 1112.9)
(2.11206e-13 -1059.73 1074.64)
(-2.66636e-13 -1316.13 1759.76)
(-8.02349e-13 -1696.31 2530.3)
(-1.30847e-12 -2259.34 3309.88)
(-1.85083e-12 -3189.67 4106.45)
(-2.52751e-12 -4638.35 4966.07)
(-3.35279e-12 -6495.89 5411.9)
(-4.14807e-12 -7748.89 4373.38)
(-4.3218e-12 -5417.62 -342.241)
(-3.17037e-12 2243.4 -15001.6)
(-1.69509e-12 4812.06 -25124.6)
(-8.11282e-13 5173.55 -38637.3)
(-2.00053e-14 37912.5 -44098.2)
(5.12996e-13 83929.3 -31266.1)
(1.26922e-13 -435.699 717.908)
(3.75041e-14 47.579 365.21)
(3.89954e-14 -349.703 983.326)
(6.8017e-14 -833.464 906.286)
(1.61486e-13 -1213.6 945.519)
(2.04941e-13 -1739.09 587.518)
(1.31424e-14 -2061.77 711.823)
(-3.50738e-13 -2509.67 1039.39)
(-7.62915e-13 -3214.21 1355.47)
(-1.1811e-12 -4368.05 1399.29)
(-1.64083e-12 -6016.68 932.12)
(-2.11004e-12 -7793.01 -767.796)
(-2.43712e-12 -8604.27 -4182.15)
(-2.26631e-12 -5941.29 -11023.1)
(-1.39478e-12 -219.643 -20503.9)
(-6.0652e-13 5384.84 -24291.4)
(-6.33227e-14 9447.66 -33522.6)
(1.88657e-13 19030.5 -40944.9)
(8.92489e-13 33849.1 -32296.4)
(1.50501e-13 -512.444 1067.45)
(3.26064e-14 -306.697 271.641)
(2.53382e-14 -369.259 838.005)
(1.95043e-14 -689.13 724.296)
(5.16274e-14 -944.793 771.543)
(1.04268e-13 -1453.04 481.66)
(7.60217e-14 -1776.2 271.717)
(-9.97921e-14 -2232.7 151.525)
(-3.85848e-13 -2811.31 17.2098)
(-6.97419e-13 -3670.79 -473.305)
(-9.96684e-13 -4759.47 -1663.7)
(-1.23477e-12 -5656.27 -4298.83)
(-1.3216e-12 -5144.63 -8238.35)
(-1.07993e-12 -756.898 -15616.1)
(-6.8386e-13 4857.82 -20371.7)
(-9.45752e-14 8511.41 -22715.3)
(4.80671e-13 11910.6 -27171.4)
(4.28492e-13 25486.6 -30115.4)
(-2.34673e-13 46357 -24387.5)
(1.46269e-13 -495.898 1162.14)
(3.71612e-14 -317.412 104.389)
(2.96821e-14 -435.549 714.993)
(1.79224e-14 -653.706 550.226)
(2.21962e-14 -856.349 604.403)
(3.96338e-14 -1272.9 390.588)
(4.97851e-14 -1610.56 59.2202)
(-2.96914e-15 -2056.89 -346.056)
(-1.41068e-13 -2542.26 -874.379)
(-3.26014e-13 -3153.53 -1751.81)
(-5.0284e-13 -3777.87 -3319.02)
(-6.2488e-13 -4116.5 -6166.4)
(-6.26498e-13 -2807.18 -10236.5)
(-4.50344e-13 1025.84 -16449.1)
(-2.0461e-13 4785.37 -19144.1)
(9.74189e-13 8618.59 -20554.5)
(1.2067e-12 13106.7 -23045.3)
(4.03134e-13 22331.9 -25134.6)
(1.11421e-13 35789.8 -17016.2)
(1.45323e-13 -534.531 1135.54)
(4.07657e-14 -318.652 -4.20582)
(3.46252e-14 -467.549 593.554)
(2.53814e-14 -659.136 386.401)
(2.27668e-14 -854.21 413.713)
(2.19267e-14 -1205.33 211.195)
(3.28919e-14 -1492.67 -152.165)
(1.43249e-14 -1868.75 -676.114)
(-3.56833e-14 -2261.84 -1451.37)
(-1.10353e-13 -2687.9 -2590.45)
(-2.04425e-13 -2982.07 -4393.49)
(-2.28177e-13 -2855.94 -7079.06)
(-1.57452e-13 -1131.6 -11548.3)
(-4.31465e-13 2403.85 -15370.4)
(1.80316e-12 5842.13 -17254.9)
(3.40625e-12 9514.54 -18419.9)
(1.74033e-12 13811.9 -19469)
(1.81005e-13 21680.9 -19936.4)
(4.68634e-14 33470.9 -9573.79)
(1.53549e-13 -563.684 1065.34)
(4.90448e-14 -321.391 -88.6062)
(4.13556e-14 -490.246 478.506)
(3.2147e-14 -634.447 242.45)
(3.01925e-14 -808.07 227.252)
(2.62046e-14 -1095.2 -8.29466)
(-4.96188e-14 -1311.11 -402.403)
(-7.65981e-15 -1586.67 -974.967)
(-5.74558e-15 -1846.9 -1861.8)
(-4.97897e-14 -2065.93 -3136.68)
(6.99179e-14 -2071.12 -5044.56)
(-4.0043e-13 -1440.28 -7713.64)
(7.69486e-13 537.093 -11814)
(-2.30242e-13 3328.06 -14235.9)
(7.8471e-12 6224.91 -15568.6)
(6.00212e-12 9679.89 -16392.3)
(1.38444e-12 13897.8 -16776.6)
(-1.06472e-13 19816.3 -16471.5)
(-1.74568e-13 27934.5 -9313.24)
(1.57649e-13 -572.272 980.028)
(5.49222e-14 -303.856 -154.427)
(4.87522e-14 -498.483 368.395)
(4.01782e-14 -596.389 111.777)
(3.64249e-14 -740.477 60.7305)
(1.85482e-14 -956.692 -223.967)
(5.26796e-13 -1103.55 -658.908)
(1.23033e-13 -1276.89 -1278.75)
(2.52287e-15 -1395.13 -2220.17)
(1.1994e-13 -1409.67 -3571.86)
(-1.23965e-12 -1135.91 -5488.65)
(8.52258e-12 -130.91 -8344.47)
(6.00991e-12 1641.22 -11090.4)
(7.05915e-13 3921.18 -12804.8)
(1.46224e-11 6630.63 -13857.1)
(4.66394e-12 9911.8 -14478)
(2.20473e-13 13820.3 -14439.2)
(-1.70562e-13 18814.2 -13530.9)
(2.0433e-13 25276.9 -8214.61)
(1.37568e-13 -568.136 877.726)
(4.45326e-14 -278.596 -190.452)
(4.63011e-14 -491.503 274.272)
(4.79466e-14 -551.987 -8.85033)
(4.25534e-14 -658.782 -95.4587)
(4.27054e-14 -803.383 -420.067)
(-3.05986e-13 -887.019 -894.23)
(-1.04845e-14 -957.181 -1563.21)
(2.45196e-14 -932.173 -2555.28)
(1.01923e-13 -752.767 -3957.3)
(-1.55987e-13 -192.869 -5965.37)
(-2.19738e-13 881.705 -8256.06)
(-4.69635e-13 2362.47 -10059.2)
(-9.01783e-14 4399.05 -11379.9)
(-1.69133e-12 6918.38 -12259.5)
(-1.08148e-12 9969.86 -12710.8)
(-1.86629e-13 13550.6 -12434.7)
(-2.20093e-15 17767.2 -11257.9)
(9.55402e-13 22622.9 -7634.39)
(9.4129e-14 -560.383 763.943)
(2.20639e-14 -254.696 -201.813)
(3.09431e-14 -470.973 200.692)
(4.46371e-14 -490.62 -113.419)
(4.00099e-14 -559.779 -247.753)
(5.59719e-14 -639.889 -593.819)
(-2.3469e-13 -655.25 -1094.94)
(-1.00963e-13 -616.113 -1806.85)
(-3.05531e-14 -448.815 -2861.1)
(-1.84134e-15 -68.2231 -4296.56)
(-8.99884e-16 610.476 -5995.69)
(3.9479e-15 1550.36 -7514.99)
(3.24199e-14 2903.23 -8888.54)
(2.84334e-15 4803.47 -10022.7)
(1.7525e-13 7160.09 -10764)
(1.67095e-13 9990.27 -11080.5)
(4.83907e-14 13231.7 -10616.3)
(-4.37143e-15 17029.3 -9357.23)
(3.46278e-13 20911.9 -6728.64)
(4.81278e-14 -538.559 643.463)
(2.95424e-15 -229.527 -195.217)
(1.20985e-14 -431.552 133.285)
(2.63114e-14 -412.573 -194.961)
(2.31089e-14 -450.186 -380.256)
(4.12141e-14 -470.439 -734.506)
(-5.13741e-14 -408.619 -1251.56)
(-6.75251e-14 -257.454 -2027)
(-4.74314e-14 53.2028 -3067.88)
(-2.61298e-14 516.964 -4258.92)
(-1.07767e-14 1139 -5428.05)
(-2.77252e-15 2051.36 -6617.97)
(-2.17539e-15 3371.48 -7778.5)
(1.42848e-15 5157.91 -8768.01)
(-1.62107e-14 7345.94 -9370.42)
(-2.24099e-14 9940.49 -9579.51)
(-9.96029e-15 12865.3 -8941.98)
(2.92821e-15 16326.3 -7747.5)
(-9.21527e-14 19735.5 -5472.31)
(1.68529e-14 -528.471 528.082)
(-5.86654e-15 -210.916 -186.881)
(-2.97607e-16 -381.748 69.8665)
(6.55866e-15 -323.426 -253.345)
(4.56641e-15 -332.415 -475.178)
(1.31414e-14 -295.187 -828.403)
(2.20355e-15 -150.452 -1390.72)
(-5.56713e-15 110.129 -2138.27)
(-3.2564e-15 457.709 -2949.84)
(2.41421e-16 905.117 -3803.27)
(1.24227e-15 1552.58 -4743.14)
(6.61024e-16 2488.08 -5759.83)
(2.24865e-16 3769.79 -6752.65)
(-4.21638e-16 5446.1 -7598.37)
(1.33732e-15 7473.46 -8070.53)
(2.96756e-15 9832.37 -8197.3)
(1.85039e-15 12451.6 -7416.85)
(1.30047e-15 15420.7 -6257)
(-6.34472e-14 18491 -2082.01)
(1.97261e-15 -478.379 407.505)
(-8.10282e-15 -187.287 -153.332)
(-5.69318e-15 -320.009 15.739)
(-3.28353e-15 -229.082 -291.958)
(-3.39745e-15 -209.363 -523.564)
(-2.2368e-15 -115.076 -900.178)
(-1.95277e-15 110.655 -1438.53)
(-1.07621e-15 381.446 -1986.58)
(-2.14189e-16 729.419 -2587.79)
(-1.83646e-17 1222.8 -3289.19)
(-9.25032e-17 1913.86 -4093.37)
(-7.9756e-17 2857.19 -4962.82)
(-2.60951e-17 4104.88 -5796.2)
(7.89196e-17 5687.41 -6505.54)
(-9.71066e-17 7570.98 -6865.74)
(-3.98008e-16 9711.5 -6934.32)
(-3.12987e-16 12044.2 -6124.12)
(7.9843e-17 14438.9 -5065.01)
(-7.52512e-14 16710 -1248.38)
(-1.77534e-15 -509.329 311.87)
(-7.87687e-15 -178.283 -144.03)
(-8.35341e-15 -257.149 -34.6348)
(-6.21803e-15 -140.564 -308.96)
(-3.79854e-15 -86.4713 -544.078)
(-1.79596e-15 70.682 -919.102)
(-5.41175e-16 299.84 -1295.78)
(-1.32353e-16 584.94 -1708.96)
(-2.42533e-17 984.309 -2207.03)
(7.52105e-18 1528.51 -2804.18)
(1.5721e-17 2256.29 -3481.52)
(1.09396e-17 3215.69 -4207.16)
(3.01926e-18 4444.53 -4892.49)
(-1.29237e-17 5955.41 -5475.3)
(5.61936e-18 7722.43 -5738.96)
(5.21074e-17 9676.9 -5768.22)
(7.29167e-17 11765.8 -4966.88)
(-1.03907e-15 13820 -4075.07)
(6.47052e-14 15569.7 -1304.08)
(-4.50937e-15 -353.221 179.598)
(-8.64321e-15 -147.918 -47.2313)
(-1.03526e-14 -176.685 -73.0415)
(-8.56374e-15 -50.8507 -322.45)
(-4.14153e-15 46.9151 -542.942)
(-4.67479e-16 205.928 -792.131)
(2.4132e-16 433.214 -1074.56)
(6.36053e-17 746.488 -1418.02)
(-2.72793e-18 1172.48 -1835.47)
(-2.72691e-18 1736.78 -2327.97)
(-1.75259e-18 2473.67 -2880.29)
(-1.41151e-18 3416.98 -3469.32)
(-3.01743e-19 4594.08 -4018.36)
(1.89551e-18 6002.32 -4484.48)
(-7.07064e-19 7621.26 -4669.82)
(-8.40731e-18 9358.52 -4676.35)
(-9.50478e-18 11194.4 -3905.8)
(-1.5136e-16 12967 -3234.46)
(2.44133e-14 14397.4 -770.424)
(7.08598e-15 -641.655 162.724)
(-8.29982e-15 -175.422 -89.1046)
(-1.10998e-14 -143.341 -117.117)
(-9.50898e-15 2.15494 -318.917)
(-3.21763e-15 93.9329 -447.03)
(-1.67991e-16 249.795 -628.061)
(8.14412e-17 483.382 -867.168)
(8.90493e-18 794.125 -1155.84)
(7.06195e-19 1208.93 -1497.51)
(6.06851e-19 1752.36 -1895.68)
(2.19251e-19 2451.62 -2339.15)
(1.4086e-19 3331.56 -2810.48)
(5.57354e-20 4413.42 -3246.08)
(-1.86323e-19 5683.94 -3615.54)
(1.62902e-19 7132.93 -3747.41)
(1.6737e-18 8645.52 -3742.32)
(3.00523e-18 10263.1 -3025.02)
(-4.93583e-17 11750 -2517.31)
(1.16946e-14 13218.6 228.56)
(-4.03601e-14 104.517 -165.195)
(-1.0503e-14 -78.8403 253.476)
(-1.02769e-14 24.9472 -170.423)
(-5.28878e-15 72.5224 -250.388)
(-5.69429e-16 196.01 -355.28)
(1.61584e-16 425.175 -517.46)
(3.37301e-17 738.268 -709.141)
(-5.24068e-19 1154.58 -938.027)
(-9.71429e-19 1705.76 -1207.9)
(-3.04441e-19 2417.97 -1520.29)
(-6.19645e-20 3319.07 -1865.71)
(-1.47422e-20 4429.35 -2230.2)
(-2.6035e-20 5765.77 -2562.85)
(1.88077e-20 7298.93 -2839.46)
(4.5307e-20 9015.21 -2924.05)
(-1.47127e-19 10741.6 -2895.26)
(-4.42101e-19 12550 -2270.48)
(1.12227e-17 13853.4 -1811.87)
(-6.9667e-15 15353.4 1557.62)
(1.6388e-13 -1531.16 623.374)
(2.17274e-14 -267.347 -362.272)
(-7.11992e-15 88.7389 -200.299)
(-2.05959e-15 131.77 -110.391)
(3.58739e-18 314.237 -189.405)
(2.34966e-17 596.359 -260.588)
(-1.58055e-18 978.753 -340.065)
(-5.71742e-19 1482.24 -439.09)
(5.0004e-20 2137.39 -556.823)
(5.9724e-20 2972.16 -692.098)
(1.43059e-20 4012.71 -839.752)
(2.48416e-21 5274.02 -992.556)
(3.98186e-21 6761.76 -1127.78)
(-3.89473e-21 8434.61 -1233.5)
(-1.81691e-20 10253.9 -1253.2)
(-2.44852e-20 12034.9 -1215.95)
(4.64165e-20 13776.8 -924.568)
(-1.07869e-17 14786.1 -721.773)
(1.14254e-14 15981 1102.79)
(4.964e-11 106.454 -2983.15)
(6.77982e-11 -818.237 -3611.18)
(3.98586e-11 -572.35 -3534.65)
(1.6253e-11 -236.833 -3260.89)
(2.87388e-12 1.23298 -2915.61)
(-3.31364e-12 237.818 -2721.56)
(-5.77351e-12 597.88 -1757.29)
(-6.22887e-12 871.819 -1465.8)
(-5.74307e-12 995.952 -1221.53)
(-5.05211e-12 1148.84 -902.056)
(-4.22161e-12 1342.61 -535.765)
(-3.39217e-12 1544.25 -107.975)
(-1.87735e-12 1779.41 405.325)
(2.00935e-12 2021.77 991.408)
(8.15611e-12 2275.3 1631.03)
(1.59775e-11 2504.94 2347.62)
(2.60937e-11 2802.77 3106.33)
(3.79523e-11 2925.53 4079.24)
(5.57568e-11 3657.72 4967.19)
(1.30344e-10 2626.15 6937.24)
(3.31284e-10 744.545 3234.79)
(8.53887e-10 1028.54 1624.76)
(1.83742e-10 -1020.65 -1898.18)
(9.37596e-11 -1000.78 -2029.26)
(8.47457e-11 -756.521 -1788.47)
(8.1418e-11 -497.03 -1650.11)
(1.1151e-10 -239.318 -1325.43)
(1.12351e-10 7.17726 -1050.17)
(1.1127e-10 201.929 -846.68)
(1.19464e-10 367.646 -682.424)
(1.10976e-10 519.956 -530.977)
(1.21853e-10 657.106 -378.979)
(1.24027e-10 779.703 -224.103)
(1.25512e-10 877.529 -53.5865)
(1.24187e-10 956.063 130.448)
(1.1527e-10 1006.22 339.769)
(1.35441e-10 1050.29 569.232)
(1.4397e-10 1036.02 871.825)
(1.68377e-10 1128.61 1170.07)
(2.41972e-10 806.635 1804.01)
(2.43954e-10 -317.577 -268.963)
(3.83012e-10 -499.696 -278.805)
(2.46229e-10 -652.807 -643.942)
(3.0323e-10 -610.958 -760.274)
(3.50985e-10 -506.939 -725.488)
(2.61228e-10 -396.667 -690.766)
(1.12e-10 -240.447 -537.626)
(7.1234e-11 -65.4372 -320.277)
(5.65967e-11 94.0084 -123.039)
(4.78374e-11 227.523 47.579)
(4.90585e-11 339.47 194.964)
(5.56185e-11 433.084 326.88)
(6.66995e-11 502.121 429.105)
(8.1659e-11 553.752 518.446)
(9.8859e-11 599.26 610.523)
(1.14473e-10 636.763 719.388)
(1.42536e-10 687.633 840.331)
(1.77958e-10 698.833 1004.62)
(2.36789e-10 825.661 1151.44)
(3.00151e-10 606.127 1496.17)
(1.75776e-10 -319.208 -613.336)
(1.68537e-10 -291.79 -377.041)
(1.97795e-10 -173.586 -286.669)
(2.19252e-10 -163.687 -325.298)
(1.73813e-10 -107.361 -308.927)
(4.86169e-10 -40.5885 -273.973)
(4.86732e-10 39.6139 -214.916)
(4.52381e-10 116.422 -143.292)
(4.37291e-10 174.903 -81.5388)
(4.5793e-10 211.862 -41.2391)
(4.68727e-10 230.847 -14.4503)
(4.82716e-10 239.921 7.65356)
(4.383e-10 244.867 32.4205)
(4.73966e-10 249.042 64.2948)
(4.77642e-10 254.761 104.29)
(4.05329e-10 259.761 154.806)
(4.02006e-10 270.139 213.456)
(4.43084e-10 268.759 293.859)
(4.65474e-10 308.802 372.892)
(3.8784e-10 231.418 542.829)
(1.14911e-10 -208.373 -442.053)
(1.13011e-10 -185.421 -347.646)
(1.14437e-10 -73.7768 -195.691)
(1.15387e-10 -27.6069 -126.592)
(8.57013e-11 8.34296 -86.2297)
(1.07947e-10 46.6018 -43.7432)
(9.83202e-11 84.5283 1.78024)
(5.89345e-11 115.675 43.3469)
(1.99559e-11 137.093 75.2088)
(-2.66913e-12 150.496 97.912)
(-1.34532e-11 160.219 117.238)
(-1.88494e-11 168.945 136.888)
(-2.26319e-11 177.563 157.774)
(-2.6901e-11 185.629 180.112)
(-3.15119e-11 193.673 204.03)
(-3.56556e-11 199.856 231.323)
(-4.36377e-11 209.489 260.605)
(-5.29238e-11 208.392 300.511)
(-6.90605e-11 238.898 335.128)
(-8.60216e-11 175.322 422.318)
(6.12064e-11 -104.544 -222.738)
(7.76241e-11 -105.882 -239.953)
(6.91163e-11 -48.8191 -166.779)
(5.41212e-11 -5.04668 -104.264)
(3.54019e-11 25.5731 -62.9328)
(1.70611e-11 48.1301 -35.4864)
(6.27238e-12 62.9681 -18.3192)
(1.47827e-12 71.402 -7.71054)
(7.07429e-14 75.9662 -0.0838077)
(1.27606e-13 78.8629 7.01768)
(5.51328e-13 81.2829 14.9931)
(9.76414e-13 83.5889 24.3322)
(1.36497e-12 85.8596 35.1685)
(1.7905e-12 88.0328 47.7697)
(2.29646e-12 90.4771 62.2212)
(3.00584e-12 92.5116 79.401)
(4.21441e-12 96.5435 98.5388)
(6.08145e-12 96.3629 124.064)
(9.47695e-12 111.444 147.626)
(1.59747e-11 84.0697 198.918)
(2.75958e-11 -39.5405 -69.8855)
(4.22297e-11 -45.8547 -108.262)
(3.48551e-11 -21.0868 -81.5864)
(2.10828e-11 8.63934 -40.1743)
(9.55076e-12 32.7767 -4.41131)
(2.97873e-12 47.7964 18.6772)
(5.06434e-13 54.7522 29.723)
(-2.71755e-14 57.7993 35.0916)
(-4.76381e-14 59.8043 39.3162)
(-3.68198e-14 61.7879 43.9235)
(-5.96294e-14 63.8158 49.0397)
(-9.43405e-14 65.7908 54.6275)
(-1.27939e-13 67.6673 60.6901)
(-1.63066e-13 69.3692 67.4002)
(-2.08733e-13 71.0849 74.7919)
(-2.82939e-13 72.2777 83.4325)
(-4.19149e-13 74.5889 92.8125)
(-6.72996e-13 73.526 105.731)
(-1.20554e-12 82.8747 116.936)
(-2.80828e-12 61.3553 145.476)
(7.86561e-12 -10.3279 -23.5562)
(1.24345e-11 -11.0086 -38.9065)
(8.2549e-12 2.18734 -29.3334)
(3.29515e-12 16.8082 -14.0051)
(8.14714e-13 25.7228 -3.88321)
(9.21227e-14 29.5597 1.26267)
(-1.27551e-14 31.2386 4.23372)
(-6.83062e-15 32.4258 6.9683)
(3.96941e-16 33.5714 10.0006)
(4.95747e-15 34.689 13.308)
(9.7234e-15 35.7141 16.8653)
(1.40411e-14 36.6553 20.7144)
(1.744e-14 37.5224 24.9025)
(2.07e-14 38.3042 29.5361)
(2.5136e-14 39.1094 34.6229)
(3.28465e-14 39.6862 40.4606)
(4.77237e-14 40.8377 46.7643)
(7.94585e-14 40.3436 55.0426)
(1.51327e-13 45.2434 62.4296)
(4.73063e-13 34.089 78.8876)
(2.442e-13 1.66878 3.85572)
(2.31294e-13 8.86558 9.99767)
(-8.74676e-15 14.8292 15.0591)
(-4.64434e-14 17.7751 16.3179)
(-1.82174e-14 19.0762 16.2876)
(-2.34235e-15 20.1876 16.733)
(5.55668e-16 21.4088 17.769)
(2.46735e-16 22.6333 19.051)
(-4.56043e-16 23.7483 20.4419)
(-1.27343e-15 24.7636 21.938)
(-2.00648e-15 25.6687 23.5676)
(-2.51386e-15 26.4824 25.3577)
(-2.85586e-15 27.1972 27.3206)
(-3.2029e-15 27.8007 29.5136)
(-3.71703e-15 28.3555 31.9259)
(-4.64108e-15 28.6836 34.7409)
(-6.41514e-15 29.304 37.7608)
(-1.04572e-14 28.771 41.8712)
(-1.95404e-14 31.5584 45.4491)
(-7.64098e-14 23.8018 53.9405)
(-1.22462e-15 6.9737 10.6187)
(4.38821e-15 12.5508 17.3407)
(6.44474e-15 13.2142 17.2686)
(3.15115e-15 13.2956 16.2949)
(6.90224e-16 13.6784 16.0412)
(-9.14251e-18 14.281 16.1827)
(-6.17716e-17 14.8922 16.4788)
(4.05923e-17 15.4818 16.8816)
(1.98795e-16 16.0344 17.4083)
(3.48147e-16 16.5652 18.0555)
(4.46105e-16 17.0534 18.8258)
(4.97907e-16 17.5074 19.7202)
(5.32758e-16 17.9166 20.735)
(5.781e-16 18.2664 21.8955)
(6.51465e-16 18.5969 23.1749)
(7.85036e-16 18.7847 24.6692)
(1.03331e-15 19.1298 26.2292)
(1.60218e-15 18.785 28.3574)
(2.78923e-15 20.3441 30.2268)
(1.17914e-14 15.6499 33.6059)
(-5.17541e-16 9.30635 18.0225)
(-9.8277e-16 13.0076 21.191)
(-5.78681e-16 12.3009 20.5137)
(-1.58768e-16 12.4201 20.0618)
(-1.07719e-17 12.5944 19.9866)
(1.35502e-17 12.85 19.9435)
(-4.93112e-19 13.0899 19.9393)
(-3.25032e-17 13.3483 19.9854)
(-6.54267e-17 13.5977 20.0858)
(-8.67074e-17 13.852 20.2472)
(-9.62098e-17 14.0882 20.4674)
(-1.00235e-16 14.3164 20.7565)
(-1.04211e-16 14.5238 21.1043)
(-1.11313e-16 14.6987 21.5351)
(-1.23128e-16 14.8736 22.0176)
(-1.44996e-16 14.9463 22.6208)
(-1.84145e-16 15.1479 23.2225)
(-2.71055e-16 14.8516 24.1742)
(-4.41402e-16 15.9448 24.9932)
(-1.7148e-15 12.4736 25.7758)
(8.35273e-17 8.78371 16.741)
(8.56349e-17 11.8008 19.6915)
(3.06371e-17 11.1894 19.1905)
(4.22146e-18 11.2995 18.9329)
(-2.63626e-18 11.3772 18.9513)
(-1.98267e-18 11.5156 18.9666)
(4.32356e-18 11.6347 18.9988)
(1.2129e-17 11.7633 19.0451)
(1.73466e-17 11.8879 19.1135)
(1.94622e-17 12.0132 19.2036)
(1.99508e-17 12.132 19.3214)
(2.01498e-17 12.2454 19.467)
(2.07062e-17 12.3551 19.6392)
(2.1848e-17 12.4432 19.8471)
(2.378e-17 12.5442 20.0759)
(2.74822e-17 12.5769 20.3611)
(3.38443e-17 12.7106 20.6247)
(4.73498e-17 12.4965 21.1129)
(7.21393e-17 13.3349 21.5721)
(2.35383e-16 10.6863 21.1502)
(-7.02112e-18 8.62963 16.2951)
(-4.49769e-18 11.2063 18.9155)
(-7.72586e-19 10.6236 18.4093)
(1.90604e-19 10.7045 18.2372)
(7.52969e-19 10.745 18.2704)
(-3.34738e-20 10.8322 18.288)
(-1.83339e-18 10.8999 18.3146)
(-3.25132e-18 10.9762 18.3467)
(-3.81937e-18 11.0466 18.3884)
(-3.90651e-18 11.1184 18.4406)
(-3.86636e-18 11.1832 18.5054)
(-3.86492e-18 11.2465 18.5845)
(-3.94684e-18 11.3055 18.6744)
(-4.11245e-18 11.3525 18.7848)
(-4.40973e-18 11.4088 18.9005)
(-5.01839e-18 11.4218 19.0507)
(-6.00282e-18 11.5062 19.1763)
(-8.00998e-18 11.341 19.4658)
(-1.14443e-17 12.0004 19.7964)
(-3.0677e-17 9.83892 18.9433)
(3.72858e-19 8.37463 15.4274)
(1.28168e-19 10.5366 17.915)
(-4.70613e-20 10.0355 17.3979)
(-6.2103e-20 10.0917 17.2883)
(-1.60089e-19 10.1247 17.3336)
(1.17947e-19 10.187 17.3617)
(5.01817e-19 10.2362 17.3983)
(6.94175e-19 10.2887 17.4346)
(7.23672e-19 10.3394 17.4788)
(7.09483e-19 10.3878 17.5249)
(6.95674e-19 10.4339 17.5811)
(6.94131e-19 10.4762 17.6408)
(7.06071e-19 10.5183 17.7094)
(7.25967e-19 10.5516 17.7837)
(7.70207e-19 10.5914 17.8643)
(8.66014e-19 10.6052 17.9592)
(1.00826e-18 10.6643 18.0389)
(1.28526e-18 10.5547 18.2262)
(1.72572e-18 11.0753 18.5076)
(3.82624e-18 9.3106 17.5117)
(-1.48924e-20 8.24341 14.868)
(2.21597e-21 10.0399 17.139)
(1.29723e-20 9.60743 16.618)
(1.21488e-20 9.64804 16.5395)
(2.88284e-20 9.67584 16.5759)
(-4.07051e-20 9.72402 16.5986)
(-1.06981e-19 9.76208 16.6273)
(-1.26093e-19 9.80232 16.6565)
(-1.22675e-19 9.84081 16.6903)
(-1.18857e-19 9.87719 16.7264)
(-1.16564e-19 9.91094 16.7689)
(-1.16298e-19 9.94191 16.8143)
(-1.17742e-19 9.97175 16.8651)
(-1.19459e-19 9.9963 16.9201)
(-1.25859e-19 10.0226 16.9793)
(-1.40152e-19 10.0353 17.0471)
(-1.59064e-19 10.0702 17.1074)
(-1.94063e-19 9.99613 17.24)
(-2.46775e-19 10.3875 17.4996)
(-4.60958e-19 8.97027 16.5126)
(7.85166e-22 8.20035 14.5185)
(-1.02766e-21 9.64018 16.5034)
(-2.29144e-21 9.26699 16.01)
(-2.03788e-21 9.2961 15.9604)
(-4.48545e-21 9.31484 15.9901)
(9.54708e-21 9.34799 16.0091)
(1.91169e-20 9.37388 16.0329)
(2.01633e-20 9.40112 16.0573)
(1.89913e-20 9.42781 16.0846)
(1.85029e-20 9.45259 16.1138)
(1.82032e-20 9.47632 16.1468)
(1.81647e-20 9.49781 16.1817)
(1.83113e-20 9.5189 16.2202)
(1.8364e-20 9.53742 16.2605)
(1.93176e-20 9.55504 16.3048)
(2.13428e-20 9.56799 16.3522)
(2.36561e-20 9.58941 16.3974)
(2.76437e-20 9.54781 16.485)
(3.36407e-20 9.83244 16.7063)
(5.38217e-20 8.74146 15.8046)
(-8.04118e-23 8.25459 14.4641)
(1.99923e-22 9.36948 16.0742)
(3.57874e-22 9.05981 15.6431)
(3.03594e-22 9.08297 15.6116)
(6.29652e-22 9.09525 15.6312)
(-1.8167e-21 9.1186 15.6431)
(-3.01232e-21 9.13645 15.658)
(-2.95022e-21 9.15543 15.6737)
(-2.75889e-21 9.17362 15.6908)
(-2.71929e-21 9.19063 15.7099)
(-2.67837e-21 9.20622 15.731)
(-2.67067e-21 9.22046 15.7542)
(-2.67875e-21 9.23362 15.7794)
(-2.66312e-21 9.24533 15.8067)
(-2.80538e-21 9.25483 15.8368)
(-3.07617e-21 9.26398 15.8684)
(-3.33334e-21 9.27192 15.9018)
(-3.73636e-21 9.24658 15.9591)
(-4.40877e-21 9.43554 16.1311)
(-6.12765e-21 8.63695 15.4023)
(8.76229e-24 8.34324 14.5068)
(-3.32374e-23 9.13977 15.7115)
(-5.02481e-23 8.90225 15.369)
(-4.1401e-23 8.92017 15.3534)
(-8.18157e-23 8.92788 15.3672)
(3.01656e-22 8.94251 15.376)
(4.31876e-22 8.95427 15.3866)
(4.04518e-22 8.96599 15.398)
(3.82293e-22 8.97769 15.4101)
(3.80965e-22 8.9883 15.4234)
(3.75101e-22 8.99819 15.4381)
(3.73181e-22 9.00698 15.454)
(3.72855e-22 9.01535 15.4713)
(3.68655e-22 9.02266 15.4898)
(3.89814e-22 9.02813 15.5106)
(4.23735e-22 9.0354 15.5309)
(4.4945e-22 9.03642 15.5562)
(4.83972e-22 9.02736 15.5895)
(5.60622e-22 9.13593 15.7018)
(6.8333e-22 8.6079 15.1986)
(-8.49866e-25 8.46617 14.6421)
(4.89408e-24 8.95019 15.4029)
(6.54176e-24 8.79388 15.1742)
(5.35296e-24 8.808 15.1669)
(1.01078e-23 8.81404 15.1736)
(-4.5467e-23 8.8229 15.1783)
(-5.7837e-23 8.83091 15.1833)
(-5.31118e-23 8.83811 15.1891)
(-5.11936e-23 8.84526 15.1951)
(-5.13504e-23 8.85143 15.202)
(-5.04886e-23 8.85674 15.2098)
(-5.00214e-23 8.8611 15.2186)
(-4.98796e-23 8.86504 15.2282)
(-4.92178e-23 8.86778 15.2391)
(-5.22287e-23 8.86958 15.2514)
(-5.62016e-23 8.87234 15.2638)
(-5.84391e-23 8.8683 15.2814)
(-6.06518e-23 8.86635 15.2992)
(-6.97117e-23 8.9031 15.3561)
(-7.51769e-23 8.62252 15.0935)
(6.93151e-26 8.61448 14.8399)
(-5.67208e-25 8.77731 15.1109)
(-7.00319e-25 8.71628 15.0253)
(-5.77778e-25 8.72279 15.0227)
(-1.04517e-24 8.72689 15.0229)
(5.45891e-24 8.73069 15.0231)
(6.35291e-24 8.73455 15.0232)
(5.82211e-24 8.73777 15.0237)
(5.72773e-24 8.7408 15.0243)
(5.75496e-24 8.74317 15.0254)
(5.65098e-24 8.74484 15.0269)
(5.56972e-24 8.74576 15.029)
(5.55678e-24 8.7461 15.0315)
(5.48762e-24 8.74542 15.0348)
(5.83129e-24 8.74398 15.0387)
(6.21469e-24 8.7417 15.0434)
(6.35905e-24 8.73597 15.0505)
(6.41645e-24 8.73154 15.0572)
(7.37682e-24 8.72226 15.0717)
(7.1927e-24 8.6554 14.999)
(7.85891e-25 -2.58852 17.2756)
(1.69943e-24 -8.28567 13.7972)
(1.6546e-25 -5.4743 14.6083)
(-2.43844e-24 -5.33354 14.1966)
(-4.59152e-24 -4.47962 14.1271)
(-2.45916e-24 -3.97004 13.9324)
(9.13334e-24 -3.45937 13.7545)
(3.58763e-23 -3.05479 13.5505)
(8.01814e-23 -2.71836 13.334)
(1.38404e-22 -2.45655 13.0984)
(2.08577e-22 -2.25898 12.8375)
(3.0352e-22 -2.12178 12.5405)
(4.49228e-22 -2.04074 12.2021)
(6.52617e-22 -2.02246 11.8195)
(8.54812e-22 -2.09176 11.3836)
(9.30266e-22 -2.21735 10.9175)
(7.80386e-22 -2.402 10.4151)
(4.6592e-22 -2.87772 9.61777)
(2.21059e-22 -2.9038 8.41358)
(1.54116e-22 0.0616495 6.67342)
(-4.75108e-24 -11.1297 29.3098)
(-1.91715e-23 -17.9555 25.5574)
(-1.02642e-23 -12.7041 26.022)
(1.07972e-23 -13.6839 24.2294)
(3.81289e-23 -12.0433 23.4439)
(5.39923e-23 -11.5383 22.3057)
(7.4866e-23 -10.6854 21.3415)
(1.38191e-22 -10.0544 20.3532)
(2.47737e-22 -9.43253 19.4146)
(3.70893e-22 -8.89572 18.5015)
(4.48766e-22 -8.41303 17.6272)
(4.41729e-22 -7.99518 16.7755)
(3.92515e-22 -7.6136 15.9056)
(3.86368e-22 -7.21252 14.9587)
(4.33832e-22 -6.79779 13.9)
(6.32715e-22 -6.36665 12.7856)
(1.59722e-21 -5.81988 11.6643)
(4.29884e-21 -5.31064 10.2799)
(1.02458e-20 -4.77075 8.24092)
(2.00982e-20 -2.10251 4.0871)
(4.32977e-23 -14.2093 31.7862)
(1.51834e-22 -19.3233 28.6492)
(7.3914e-23 -14.138 28.7089)
(-1.21785e-22 -15.5683 26.2342)
(-4.08378e-22 -13.4386 25.3464)
(-5.31383e-22 -13.1754 23.7299)
(-3.86616e-22 -12.1573 22.5379)
(-1.64879e-22 -11.5558 21.2477)
(3.47932e-23 -10.8621 20.0827)
(1.38404e-22 -10.266 18.9283)
(9.42775e-23 -9.66779 17.7937)
(-1.17651e-22 -9.09873 16.6448)
(-5.72288e-22 -8.63322 15.5778)
(-1.25202e-21 -8.36214 14.7569)
(-1.90195e-21 -8.17446 14.0295)
(-2.9578e-21 -7.75242 12.9873)
(-6.5861e-21 -7.15624 11.7462)
(-2.23726e-20 -6.28467 10.4365)
(-1.05105e-19 -5.63159 8.82369)
(-3.53862e-19 -3.65496 7.46315)
(-4.07501e-22 -15.6237 32.746)
(-1.18545e-21 -19.8424 30.0359)
(-4.349e-22 -15.2589 29.9123)
(1.28885e-21 -16.8996 27.2989)
(3.65442e-21 -14.5444 26.5712)