/*--------------------------------*- C++ -*----------------------------------*\
| =========                 |                                                 |
| \\      /  F ield         | OpenFOAM: The Open Source CFD Toolbox           |
|  \\    /   O peration     | Version:  4.1                                   |
|   \\  /    A nd           | Web:      www.OpenFOAM.org                      |
|    \\/     M anipulation  |                                                 |
\*---------------------------------------------------------------------------*/
FoamFile
{
    version     2.0;
    format      ascii;
    class       volScalarField;
    location    "11";
    object      p;
}
// * * * * * * * * * * * * * * * * * * * * * * * * * * * * * * * * * * * * * //

dimensions      [0 2 -2 0 0 0 0];

internalField   nonuniform List<scalar> 
1280
(
-0.0539501
-0.0162812
-0.0795189
-0.303619
-0.156903
-0.37777
-0.797572
-0.851285
-1.0492
-1.38956
-2.41844
-2.04381
-3.02436
-4.96097
-4.32388
-6.3093
-9.51449
-9.0786
-12.2389
-20.3145
-16.1607
-1.94933
16.3462
22.8016
23.351
27.852
-5.22305
6.57581
6.40775
6.20931
5.66833
4.86016
4.09392
2.7875
1.78686
-0.0132612
-1.01399
-2.87997
-3.58014
-0.379248
-8.25927
-6.64043
-0.265175
5.84836
16.6072
17.305
17.0301
17.3968
16.2532
16.6247
16.774
15.6009
16.8615
16.6096
16.8367
16.6871
5.60816
-0.282421
-6.82196
-10.1374
0.50925
-1.91736
-1.47735
0.447375
1.41971
3.18345
4.16313
5.4219
6.16314
6.84315
7.25248
7.48293
7.11269
-9.8703
30.0281
25.6555
22.7168
16.0737
-1.56257
-16.0671
-19.9316
-12.1994
-9.69344
-10.53
-6.84911
-5.29804
-6.20664
-3.76516
-2.944
-3.56785
-2.05871
-1.81078
-1.77158
-1.60832
-0.86756
-0.521571
-0.92462
-0.337485
-0.242391
-0.324888
-0.0163237
-0.0842255
0.474141
0.275388
0.00481952
-0.137218
-0.213307
-0.169334
-0.0835616
0.0959704
0.143196
-0.103399
-0.350649
-0.12288
0.166986
-0.00531261
-0.12239
-0.322924
0.0511826
-0.0469096
-0.249938
1.41903
1.03956
0.0924172
-0.242929
-0.419405
-0.233251
0.0547796
0.629166
1.13583
0.33669
-0.7758
0.0386845
0.620464
0.121506
-0.164692
-0.441387
-0.189629
-0.636149
-0.582832
2.27277
1.77054
0.264801
-0.299248
-0.670294
-0.543677
-0.265322
0.648996
1.85259
0.293856
-1.67887
-0.0373811
0.90096
0.0754349
-0.467515
-1.06039
-0.42828
-0.919124
-0.40433
3.07958
2.28511
0.546962
-0.312264
-1.12776
-1.22146
-0.810259
0.989005
2.94352
0.173854
-2.85236
-0.257616
1.19965
0.0506491
-0.582305
-1.16534
-0.206139
-1.2268
-0.213408
3.84498
2.7589
0.657499
-0.546875
-1.75868
-2.08371
-1.26544
1.70478
4.1238
-0.99461
-4.89542
-0.654225
1.57245
-0.0661264
-1.31232
-2.39405
-0.800816
-1.21829
0.23142
4.50994
3.35271
0.859923
-1.16444
-2.61123
-3.0874
-1.26417
3.34263
6.93811
-1.51678
-7.16914
-1.78116
1.62219
-0.0442812
-1.24411
-1.68439
-0.213263
-1.19179
0.678703
4.65834
3.4788
1.1962
-1.58353
-3.42003
-4.14014
-1.15672
4.56596
8.31717
-1.24846
-7.49682
-1.68403
1.40413
-0.877571
-2.42745
-4.18354
-1.56141
-1.17078
0.654175
4.32553
3.39056
1.79826
-1.28973
-3.82089
-5.00625
-2.10037
3.93739
7.88831
-0.461582
-8.61481
-3.34835
1.00887
-0.582306
-2.253
0.843438
1.04773
-1.03186
0.172859
4.38611
3.88019
3.00801
0.0654218
-2.89711
-4.72252
-3.22334
0.660922
3.11132
-0.343966
-4.38613
-0.180788
2.49119
0.0547845
-0.637349
12.7792
17.9794
-0.607182
0.233876
4.72267
4.57438
4.26446
1.574
-1.47934
-3.98985
-4.54574
-3.90879
-2.41551
-0.742691
-0.241691
2.23595
3.67327
2.60108
6.0431
27.7792
15.4204
-0.219362
0.786374
5.11723
5.2009
5.21707
2.75779
-0.228298
-3.31154
-5.7413
-8.3661
-8.98062
-3.35591
2.19394
4.63979
4.59338
2.77414
5.77372
27.1833
16.3269
0.226223
1.43817
5.62443
5.73236
5.62669
3.24617
0.300099
-3.40114
-7.79195
-13.4789
-14.5778
-3.46786
6.61506
6.44595
4.1918
2.09743
1.28401
13.4118
17.4246
0.741122
2.03699
6.18099
6.34814
5.82019
3.34489
0.181223
-4.06628
-9.294
-15.7741
-16.9588
-4.54232
4.5339
4.43564
3.76295
2.74062
0.95612
0.86457
-0.819692
1.13249
2.38788
6.40025
6.82823
5.85008
3.37668
0.033378
-4.74292
-10.6099
-17.9922
-19.7095
-4.57623
6.00156
5.73667
3.39547
1.70152
-0.438495
-4.09998
-2.10901
1.26854
2.49502
6.09574
6.73219
5.63066
3.36378
0.237728
-4.53021
-10.5709
-18.0882
-20.1684
-5.66957
5.0131
5.73613
3.88953
2.10189
0.692006
-0.924834
-0.595148
1.20318
2.3492
5.28671
5.81517
4.92414
3.00288
0.423262
-3.60406
-8.81274
-15.2826
-17.7409
-5.40256
4.40812
5.52524
3.74954
1.69133
0.360842
-1.79217
-0.775489
1.05815
2.03527
4.25902
4.56162
3.9494
2.43041
0.49863
-2.33031
-5.86128
-10.7088
-13.2111
-4.41792
3.36858
4.56082
3.25018
1.49537
0.588075
-0.574679
-0.00287983
0.799271
1.40142
2.89016
3.11375
2.7675
1.66116
0.35219
-1.36625
-3.27212
-6.48128
-8.32234
-2.85192
2.50223
3.46633
2.43031
0.99049
0.324821
-0.600237
-0.153248
0.585899
0.950385
1.59552
1.61578
1.63021
1.01269
0.339184
-0.413611
-1.12393
-3.18061
-4.6203
-1.78485
1.58938
2.33074
1.61533
0.657341
0.265407
-0.120807
0.0885414
0.0339409
-0.123391
0.107477
0.148858
0.313457
0.164395
-0.0388725
-0.23486
-0.345805
-1.19232
-2.18885
-1.43206
0.340962
0.836839
0.595436
0.210401
0.0616594
-0.0982834
0.10573
119.544
118.549
117.985
119.227
116.489
115.049
112.246
109.993
107.199
104.924
102.792
100.724
99.1623
97.339
96.4076
94.6995
94.509
92.7301
93.4977
92.1728
64.7924
66.4678
68.6371
71.3629
71.577
72.5715
72.721
73.2468
73.4634
73.7966
74.2489
74.5006
75.143
75.2075
75.9821
75.8134
76.7909
76.56
77.9555
78.3916
69.6849
70.4309
72.6701
74.6604
75.392
76.0348
76.4492
76.7604
77.1414
77.5007
78.0963
78.5805
79.4297
79.9302
80.9588
81.3526
82.5742
82.9434
84.5443
85.4853
34.4484
34.1135
35.8265
36.3671
37.6559
37.5077
38.2004
38.4087
38.9158
39.5584
40.5375
41.7503
43.3867
45.0904
47.2982
49.2943
51.7895
53.8048
56.296
58.456
36.2983
33.2382
33.7471
32.1467
32.6643
30.4447
30.1841
29.3081
28.6248
28.232
27.9496
28.0798
28.5739
29.5927
31.2696
33.2965
35.9641
38.2861
41.0848
41.5644
51.6528
49.2146
49.5123
47.7302
48.6426
45.9007
45.2352
44.2934
43.1566
42.5908
41.5396
41.0452
40.3398
40.1382
40.185
40.8242
42.2128
43.7384
47.1197
47.2126
63.66
63.2152
63.7507
62.7037
65.3348
62.8539
62.2051
61.8944
59.9275
59.1544
57.1045
55.66
53.151
50.4781
46.9539
43.3022
40.6141
38.7835
41.6817
41.7207
60.9047
61.5694
61.0759
60.1859
64.4073
60.1984
59.974
60.7842
58.901
59.0549
57.0468
56.2914
54.2117
52.3466
50.112
47.2659
45.6333
43.3837
45.2827
44.6287
68.1368
69.6372
67.7395
67.0888
72.7644
67.1702
67.1235
68.8797
67.0271
67.8219
66.2425
65.9571
64.9608
64.2038
63.771
63.0846
63.3665
62.7994
64.3604
63.4517
67.4648
70.2345
67.1444
67.046
75.0422
68.5393
67.9658
71.4567
69.7368
70.5531
69.9129
69.6403
69.3866
68.8865
68.8064
68.4927
68.9136
69.0275
70.5958
70.7947
61.0638
63.9611
60.7047
60.6284
68.651
64.2192
63.6317
67.7091
67.7305
68.0814
68.7952
68.791
69.5101
69.5373
70.0118
69.9309
70.4865
70.8637
72.5149
73.7829
50.2495
51.9323
54.0688
52.8673
54.7917
47.6041
50.694
48.9636
51.658
50.4971
52.3529
52.1776
53.4127
53.9091
54.995
56.0143
57.4933
59.2995
61.1649
62.9085
33.4931
34.8141
36.2281
34.7959
37.7033
34.5605
36.7935
33.5471
35.2471
33.0974
33.6035
32.505
32.5086
32.1282
32.1369
32.3439
32.7373
33.7869
34.1298
36.1334
27.2176
28.0105
29.6652
28.2342
31.0484
28.987
31.6813
29.057
30.8071
29.9288
30.2686
29.6207
29.2242
28.8063
28.6048
28.6173
28.4907
28.8631
29.3434
30.4234
15.2785
14.434
15.9834
13.5603
15.4318
13.316
14.2369
12.9266
12.7789
12.003
11.4206
10.7283
10.0968
9.73208
9.99367
11.615
13.5944
14.6483
15.0942
16.1725
30.2061
27.4601
28.7193
24.7544
26.0671
23.2861
23.438
21.9319
21.4692
20.5482
19.9391
19.2623
18.7398
18.3498
18.1407
18.0847
18.1561
18.1714
17.7277
17.7912
61.0428
57.507
59.7076
53.4144
53.934
49.7506
48.2772
45.5455
43.619
41.589
39.9006
38.4159
37.2556
36.4362
35.8802
35.3907
34.9618
34.5154
33.8713
32.8838
54.8938
49.2375
57.5983
51.1604
53.6663
50.7907
50.0587
48.026
46.3114
44.3166
42.3725
40.4621
38.75
37.3752
36.3973
35.6793
35.1894
35.277
35.8192
36.2882
61.4902
39.9587
48.2235
37.4319
34.9228
28.4978
23.7475
18.6398
14.197
10.1904
6.86192
4.27932
2.5842
1.9112
2.42664
4.01288
6.43345
10.1635
14.3267
16.8375
748.227
665.795
616.886
560.688
511.825
464.691
420.918
379.606
340.759
304.078
269.385
236.47
205.11
175.22
146.852
119.218
92.4153
70.7337
46.5405
9.5201
736.806
654.593
605.808
549.749
500.99
453.933
410.2
368.886
329.98
293.181
258.307
225.155
193.524
163.351
134.711
106.876
79.8474
57.2144
31.9027
-3.68098
53.7896
32.3441
40.702
29.9834
27.5847
21.2196
16.5442
11.4769
7.07023
3.08008
-0.238184
-2.81497
-4.48515
-5.06499
-4.34888
-2.52175
0.0280572
3.93767
8.38304
9.80448
47.7441
41.4837
49.5395
42.6931
44.8671
41.6214
40.5416
38.1436
36.0528
33.672
31.3285
29.0273
26.9696
25.3782
24.4087
23.8764
23.5583
23.3444
23.0542
22.4359
37.1179
32.4747
34.0039
26.8741
26.4995
21.4232
19.054
15.4103
12.622
9.72388
7.24614
5.03122
3.30668
2.10718
1.52339
1.15426
0.602482
0.0322177
-1.08142
-1.63362
-1.16985
-3.44021
-1.91071
-5.56841
-3.83895
-6.24051
-5.6366
-6.75183
-6.89524
-7.32208
-7.49067
-7.60753
-7.75278
-7.6669
-8.07006
-8.25297
-8.66832
-9.07062
-9.85485
-9.53182
-0.704041
-1.97408
-0.912214
-3.7825
-2.22064
-5.14033
-4.67548
-7.25325
-7.84648
-9.35488
-10.6378
-12.5464
-13.6388
-16.8517
-18.8353
-19.5462
-20.5695
-20.7246
-21.8545
-20.426
-22.391
-23.5268
-22.6814
-25.533
-24.2737
-27.3663
-27.0423
-29.0441
-29.7217
-30.9148
-32.7384
-32.2025
-36.4769
-15.2187
-22.4376
-26.2955
-25.2666
-23.4703
-23.1502
-18.8933
-6.57828
-4.81222
-2.13539
-2.49308
0.964397
0.847511
3.5608
4.37822
6.37616
8.17149
9.80535
12.0704
14.4647
15.8867
17.4688
17.0595
20.8038
26.9656
21.4562
27.8424
31.0203
34.1636
36.3737
36.6879
40.028
40.2481
42.9849
43.8467
45.9981
47.3698
49.2903
50.5687
52.3569
53.556
55.115
57.0275
59.7333
63.3497
62.0527
64.7985
53.5722
56.5126
57.4176
57.9476
59.7355
60.1124
61.5641
62.0669
63.1588
63.8101
64.8417
65.6318
66.4918
67.2097
67.5408
68.1208
68.4719
69.7158
70.6052
72.9545
67.0947
69.7864
70.2076
70.991
72.1281
72.3414
73.2922
73.4705
74.0506
74.2773
74.7132
75.0028
75.3252
75.5527
75.7769
75.9955
76.591
77.2007
78.8026
79.9869
75.2377
77.5257
77.9307
78.8621
79.4374
79.4636
79.9283
79.7695
79.9506
79.7729
79.786
79.6241
79.6041
79.4499
79.6702
79.8372
80.8369
81.4768
83.5098
83.7944
80.8445
82.2674
82.8078
83.8366
83.8897
83.7778
83.7152
83.3298
83.1711
82.6413
82.3144
81.7102
81.3314
80.6757
80.5343
80.0168
80.6406
80.2607
82.025
81.3374
81.0073
81.2346
81.7635
82.5241
81.8766
81.4353
80.5372
79.7143
78.884
77.9088
76.9221
75.6116
74.1234
72.0841
69.9578
66.8445
64.8411
61.6977
62.9487
62.0246
75.7698
74.8371
75.3202
75.7833
74.4048
73.5897
71.9407
70.656
69.1728
67.766
66.2659
64.5726
62.598
60.178
57.3438
54.1223
51.5632
49.1933
51.5019
51.6369
66.5923
64.1605
64.1117
64.2073
62.4223
61.7565
60.2361
59.3306
58.2546
57.558
57.0261
56.6943
56.6005
56.6428
57.0691
57.669
58.9803
60.1052
63.1191
63.5147
47.9104
46.2576
46.3362
47.3128
46.1093
46.4411
45.9495
46.0373
45.9026
46.0156
46.3481
46.8234
47.7616
48.8237
50.5572
52.2126
54.6206
56.4017
59.0659
59.738
67.6699
67.3502
67.8575
69.6058
68.9607
69.505
69.2416
69.4214
69.4472
69.6579
70.1266
70.6508
71.6118
72.4291
73.7965
74.722
76.3817
77.2259
79.1806
79.9264
62.7575
64.3987
66.0797
68.7231
68.82
69.7423
69.9151
70.5076
70.8106
71.3367
71.9019
72.3653
73.1339
73.4715
74.4063
74.5882
75.7276
75.837
77.3572
78.0338
118.27
117.496
117.186
118.713
116.062
114.526
111.739
109.402
106.598
104.318
102.169
100.177
98.6574
96.9574
96.0598
94.5012
94.2972
92.6916
93.3931
92.2556
)
;

boundaryField
{
    outletWall
    {
        type            fixedValue;
        value           uniform 0;
    }
    fineWalls
    {
        type            zeroGradient;
    }
    fineFrontAndBack
    {
        type            zeroGradient;
    }
    fineplugLeft
    {
        type            cyclicAMI;
        value           nonuniform List<scalar> 
20
(
73.6624
74.0821
73.6081
75.4044
75.7569
77.4835
78.4287
80.1487
81.551
83.3669
85.1812
87.0406
89.3092
98.8888
97.6096
97.8615
99.9417
97.6572
94.4496
92.4029
)
;
    }
    fineplugRight
    {
        type            cyclicAMI;
        value           nonuniform List<scalar> 
20
(
73.9063
74.331
73.8578
75.5273
75.8849
77.4846
78.3985
80.0103
81.3742
83.1037
84.9047
86.7748
88.9443
97.9115
97.6263
97.9808
99.5135
96.9637
93.6841
91.4024
)
;
    }
    inletOutletLeft
    {
        type            cyclicAMI;
        value           nonuniform List<scalar> 
20
(
73.6624
74.0821
73.6081
75.4044
75.7569
77.4835
78.4287
80.1487
81.551
83.3669
85.1812
87.0406
89.3092
98.8888
97.6096
97.8615
99.9417
97.6572
94.4496
92.4029
)
;
    }
    inletLeft
    {
        type            zeroGradient;
    }
    inletWallsLeft
    {
        type            zeroGradient;
    }
    inletFacesLeft
    {
        type            zeroGradient;
    }
    inletOutletRight
    {
        type            cyclicAMI;
        value           nonuniform List<scalar> 
20
(
73.9063
74.331
73.8578
75.5273
75.8849
77.4846
78.3985
80.0103
81.3742
83.1037
84.9047
86.7748
88.9443
97.9115
97.6263
97.9808
99.5135
96.9637
93.6841
91.4024
)
;
    }
    inletRight
    {
        type            zeroGradient;
    }
    inletWallsRight
    {
        type            zeroGradient;
    }
    inletFacesRight
    {
        type            zeroGradient;
    }
}


// ************************************************************************* //
