/*--------------------------------*- C++ -*----------------------------------*\
| =========                 |                                                 |
| \\      /  F ield         | OpenFOAM: The Open Source CFD Toolbox           |
|  \\    /   O peration     | Version:  4.1                                   |
|   \\  /    A nd           | Web:      www.OpenFOAM.org                      |
|    \\/     M anipulation  |                                                 |
\*---------------------------------------------------------------------------*/
FoamFile
{
    version     2.0;
    format      ascii;
    class       surfaceScalarField;
    location    "11";
    object      phi;
}
// * * * * * * * * * * * * * * * * * * * * * * * * * * * * * * * * * * * * * //

dimensions      [0 3 -1 0 0 0 0];

internalField   nonuniform List<scalar> 
2360
(
927.866
1864.45
-936.589
1864.45
1864.45
3087.62
-1223.16
3087.62
3087.62
3087.62
4558.37
-1470.75
4558.37
4558.37
6352.3
-1793.94
6352.31
6352.3
8569.58
-2217.28
8569.58
8569.58
12011.2
-3441.6
12011.2
12011.2
12624.4
14125.6
15758.8
17279.8
18649.4
19921
16730.9
4388
17860.6
18924.7
19928.5
20871.4
21756.6
22580.2
23346.1
24048.3
24696.7
25286
25835.5
26413.5
27123.2
12198.4
14924.8
12198.4
12198.4
12198.4
175.017
12023.3
175.017
175.016
175.017
-305.925
480.94
-305.924
-305.926
-366.07
60.1451
-366.073
-366.072
-366.075
-12355.7
11989.6
-12355.7
-12355.7
-12355.7
-27020.6
14664.9
-26356.9
-25788.9
-25246.4
-24662.9
-24019.7
-23321
-22558.2
-21736
-20850.3
-19904.6
-18897.2
-17830.6
-16699.8
-20010.1
4511.09
-18719.3
-17290
-15729.3
-14130.5
-12639.1
-12031.6
-12031.6
-12031.6
-9017.85
-3013.79
-9017.86
-9017.85
-7051.37
-1966.49
-7051.36
-7051.37
-5441.7
-1609.66
-5441.7
-5441.7
-4110.27
-1331.43
-4110.27
-4110.27
-4110.27
-3059.75
-1050.52
-3059.75
-3059.75
-2285.14
-774.613
-3029.73
-1317.09
-2456.92
1184.06
-2457.15
925.188
-2639.21
-3431.97
-2465.92
-2556.58
-2188.75
1092.8
-2126.37
2635.6
-2010.64
3593.11
-1747.31
4330.44
-1339.12
3815.32
-812.909
2210.52
-255.214
941.769
118.848
1951.91
372.885
3110.63
600.814
2240.07
778.169
2128.1
909.879
1907.61
999.306
3871.94
4431.96
-3666.02
-1808.96
-2985.86
503.902
-2941.95
881.275
-3250.21
-3123.7
-2935.59
-2871.2
-2362
519.208
-2246.77
2520.36
-2196.25
3542.59
-1929.8
4064
-1465.35
3350.88
-805.78
1550.95
-99.2708
235.26
190.78
1661.86
320.681
2980.73
601.789
1958.96
821.882
1908.01
954.901
1774.59
1021.8
3805.05
4403.24
-4451.08
-2024.23
-4010.92
63.7417
-3753.9
624.262
-3785.43
-3092.18
-3451.18
-3205.44
-2872.1
-59.8726
-2676.56
2324.82
-2629.78
3495.82
-2385.49
3819.7
-1861.78
2827.17
-941.135
630.298
113.709
-819.583
382.104
1393.46
246.651
3116.19
512.802
1692.81
877.361
1543.45
1074.01
1577.94
1093.3
3785.77
4165.1
-5642.07
-2070.72
-5263.81
-314.519
-4622.94
-16.6116
-4237.65
-3477.46
-3817.16
-3625.94
-3403.43
-473.598
-3348.99
2270.38
-3316.14
3462.97
-3043.92
3547.48
-2329.26
2112.52
-954.385
-744.582
558.047
-2332.01
855.979
1095.53
357.49
3614.68
397.134
1653.16
769.23
1171.36
999.38
1347.79
1137.98
3647.17
3693.41
-7168.27
-2097.29
-6558.32
-924.469
-5497.44
-1077.49
-4935.98
-4038.93
-4330.65
-4231.27
-3540.77
-1263.48
-3354.84
2084.45
-3354.34
3462.47
-2936.87
3130.01
-1969.68
1145.33
-653.139
-2061.12
463.061
-3448.21
670.369
888.225
230.11
4054.93
205.119
1678.16
715.214
661.263
1055.4
1007.6
1195.84
3506.73
2922.77
-8981.77
-2340.26
-7867.02
-2039.21
-6667.22
-2277.3
-6308.61
-4397.53
-5663.93
-4875.95
-4278.15
-2649.26
-3234.91
1041.21
-2929.06
3156.62
-2758.52
2959.47
-2559.37
946.187
-2462.9
-2157.6
-2055.21
-3855.9
-1140.23
-26.7582
-883.029
3797.73
-939.293
1734.42
-224.541
-53.4891
238.937
544.119
1133.39
2612.27
1042.36
-11282.9
-2575.96
-10052.5
-3269.64
-8556.8
-3773.01
-7886.45
-5067.88
-7319.72
-5442.68
-6240.62
-3728.36
-4940.61
-258.8
-4447.71
2663.72
-5060.03
3571.78
-6246.06
2132.22
-6997.32
-1406.34
-6365.74
-4487.49
-4144.88
-2247.61
-2410
2062.85
-1484.39
808.812
-137.923
-1399.96
998.413
-592.217
2105.39
1505.29
7658.85
-12482.9
-2870.26
-11112.8
-4639.74
-9340.26
-5545.57
-8557.73
-5850.41
-8511.34
-5489.07
-8455.39
-3784.31
-7980.78
-733.407
-7818.99
2501.94
-8743.46
4496.25
-10468.3
3857.06
-11715.8
-158.88
-11403.5
-4799.74
-8775.65
-4875.47
-5376.92
-1335.88
-4144.33
-423.772
-4746.04
-798.256
-5863.89
525.638
-8896.48
4537.87
13427.2
-10392.6
-3525.9
-8918.97
-6113.41
-7791.12
-6673.42
-7965.77
-5675.76
-9008.09
-4446.76
-10196.8
-2595.63
-11034.9
104.717
-11708.3
3175.36
-12764.2
5552.17
-14153.2
5245.99
-15113.1
801.004
-15560.3
-4352.49
-15530.7
-4905.03
-15046.8
-1819.85
-15033.5
-437.066
-15456.1
-375.58
-15618.5
687.966
-15140.6
4060.01
10276.2
-7018.1
-4126.98
-6147.39
-6984.12
-6025.24
-6795.56
-7252.9
-4448.1
-9264.33
-2435.33
-11193
-666.926
-12688
1599.64
-13793
4280.36
-14607.1
6366.29
-15096.4
5735.26
-15369.8
1074.43
-15796
-3926.21
-16167.4
-4533.69
-16015.6
-1971.63
-15721.4
-731.291
-15383.4
-713.597
-14302.7
-392.661
-10292.6
49.9074
43.7477
-4864.3
-4228.04
-5021.08
-6827.34
-5673.27
-6143.37
-7369.02
-2752.35
-9707.02
-97.3273
-11793.4
1419.45
-13406.5
3212.73
-14571.5
5445.37
-15128.9
6923.66
-15011.2
5617.6
-14665.6
728.864
-14875.5
-3716.38
-15702.8
-3706.35
-16123.7
-1550.77
-16034.2
-820.749
-15647.5
-1100.35
-14345.1
-1695.04
-10170.9
-4124.25
-9646.24
-3815.13
-4033.81
-4701.88
-5940.59
-5932.24
-4913.01
-7611.22
-1073.37
-9596.5
1887.95
-11444.5
3267.45
-12980.7
4748.97
-13936.5
6401.13
-13850.3
6837.46
-12562.6
4329.88
-10936.9
-896.839
-10272.9
-4380.34
-11347.4
-2631.88
-12887.9
-10.2459
-13839
130.308
-14721.5
-217.807
-15497.1
-919.444
-15333.7
-4287.63
-12956.6
-3360.07
-3951.59
-4432.03
-4868.63
-6036.79
-3308.25
-7529.89
419.725
-9015.51
3373.57
-10466.1
4718.08
-11655.8
5938.66
-12215.5
6960.77
-11758.9
6380.9
-10282.9
2853.87
-8190.17
-2989.57
-5423.2
-7147.31
-2765.71
-5289.37
-1389.03
-1386.93
-1630.5
371.782
-3245.68
1397.37
-5494.83
1329.7
-9215.59
-566.874
-7247.37
-3507.13
-4175.63
-4275.05
-4100.71
-5862.47
-1720.82
-7081.87
1639.12
-8089.03
4380.74
-9066.48
5695.53
-9768.13
6640.3
-9905.94
7098.58
-9436.93
5911.89
-8507.6
1924.54
-6946.35
-4550.82
-4673.77
-9419.89
-2507.48
-7455.66
-875.937
-3018.47
608.763
-1112.92
1741.35
264.779
2463.51
607.553
2920.59
-1023.96
61.223
-3996.29
-4518.59
-4342.62
-3754.39
-5524.37
-539.072
-6418.97
2533.73
-6974.77
4936.53
-7442.11
6162.87
-7632.87
6831.07
-7294.97
6760.68
-6571.35
5188.28
-5677.59
1030.78
-4333.52
-5894.89
-2825.06
-10928.3
-1433.22
-8847.5
-270.026
-4181.67
253.105
-1636.05
996.629
-478.744
1310.73
293.455
1929.72
-1642.95
-1450.66
-4376.9
-4762.56
-4499.94
-3631.35
-5152.9
113.887
-5694.74
3075.56
-5899.16
5140.95
-5884.17
6147.88
-5586.06
6532.95
-4781.1
5955.72
-3608.33
4015.51
-2528.97
-48.5869
-1672.25
-6751.61
-1226.38
-11374.2
-536.476
-9537.4
529.575
-5247.72
1074.45
-2180.93
1534.55
-938.839
1795.2
32.7997
1762.23
-1609.98
-1905.7
-4513.88
-4938.65
-4494.47
-3650.76
-4710.98
330.397
-4943.21
3307.79
-4983.49
5181.24
-4678.11
5842.5
-4007.42
5862.26
-2883.03
4831.33
-1354.65
2487.12
-80.0076
-1323.23
210.529
-7042.14
-118.508
-11045.2
139.383
-9795.29
893.361
-6001.7
1359.38
-2646.95
1661.54
-1241
1721.7
-27.3628
1605.42
-1493.69
-2094.22
-4512.43
-5119.77
-4311.19
-3851.99
-4198.13
217.336
-4197.12
3306.78
-4178.05
5162.17
-3830.66
5495.1
-3046.08
5077.69
-1855.62
3640.86
-377.761
1009.27
684.635
-2385.63
682.023
-7039.53
354.695
-10717.9
598.094
-10038.7
1102.02
-6505.63
1451.37
-2996.3
1695.95
-1485.58
1743.88
-75.2875
1484.61
-1234.42
-2080.36
-4460.05
-5311.24
-4114.75
-4197.29
-3782.73
-114.688
-3602.67
3126.72
-3504.91
5064.41
-3218.49
5208.68
-2572.81
4432.02
-1595.29
2663.34
-459.853
-126.172
291.814
-3137.29
467.711
-7215.43
554.63
-10804.8
847.243
-10331.3
1158.4
-6816.78
1362.94
-3200.85
1493.1
-1615.74
1482.12
-64.3023
1308.94
-1061.25
-1994.58
-4378.33
-3987.56
-3531.1
-3179.3
-2928.76
-2629.43
-2151.94
-1464.13
-685.156
-72.3883
386.394
720.975
956.084
1135.15
1243.72
1328.32
1326.75
1229.74
36.9615
-650.173
274.736
-1738.96
510.578
-1869.04
669.267
-1679.73
776.215
-1476.52
874.475
-1369.86
933.433
-1256.88
963.639
-1159.92
966.253
-1066.68
948.523
-986.118
914.274
-908.62
866.356
-837.325
802.313
-759.531
724.093
-687.641
629.613
-607.77
524.301
-543.056
407.004
-471.973
284.068
-426.597
166.059
-460.032
-543.587
132.178
-782.353
211.902
-1818.69
264.163
-1921.31
260.333
-1675.9
253.075
-1469.26
283.033
-1399.82
339.597
-1313.44
380.662
-1200.99
400.09
-1086.11
403.074
-989.102
396.827
-902.374
383.344
-823.843
362.711
-738.899
334.266
-659.197
300.831
-574.336
264.833
-507.058
232.739
-439.88
200.748
-394.608
147.639
-406.925
-395.948
258.08
-1040.43
405.004
-1965.61
433.403
-1949.71
404.048
-1646.54
449.325
-1514.54
531.972
-1482.46
625.133
-1406.61
698.6
-1274.45
744.584
-1132.1
761.356
-1005.88
754.156
-895.175
726.936
-796.623
685.838
-697.802
630.67
-604.029
567.642
-511.308
496.146
-435.562
426.083
-369.817
348.055
-316.581
226.58
-285.45
-169.368
348.469
-1388.9
477.866
-2095.01
445.693
-1917.53
370.251
-1571.1
449.033
-1593.32
545.568
-1579
605.999
-1467.04
655.641
-1324.09
682.315
-1158.77
679.467
-1003.03
649.305
-865.013
601.129
-748.448
541.649
-638.323
474.744
-537.125
403.966
-440.53
330.625
-362.222
259.701
-298.894
188.998
-245.878
97.4528
-193.906
-71.915
226.54
-1615.45
231.942
-2100.41
167.302
-1852.89
98.3455
-1502.15
153.54
-1648.52
195.841
-1621.3
149.918
-1421.11
116.257
-1290.43
56.3283
-1098.84
-27.3625
-919.338
-122.864
-769.513
-217.391
-653.922
-305.281
-550.434
-381.73
-460.677
-441.471
-380.79
-478.994
-324.699
-479.469
-298.42
-409.069
-316.278
-239.204
-363.772
-311.119
38.6462
-1654.09
-27.8767
-2033.89
-55.9054
-1824.87
-105.65
-1452.4
-146.926
-1607.24
-175.283
-1592.95
-311.434
-1284.96
-417.756
-1184.11
-550.165
-966.436
-689.578
-779.926
-831.927
-627.164
-974.195
-511.654
-1112.62
-412.013
-1235.08
-338.213
-1320.87
-295
-1334.13
-311.437
-1213.07
-419.487
-894.131
-635.213
-405.725
-852.178
-716.844
-24.1152
-1629.98
-63.5832
-1994.42
-48.9342
-1839.52
-76.5701
-1424.77
-148.43
-1535.38
-150.572
-1590.8
-257.717
-1177.82
-328.056
-1113.78
-385.059
-909.434
-408.152
-756.833
-429.063
-606.255
-466.284
-474.434
-533.593
-344.704
-624.552
-247.255
-718.468
-201.085
-767.576
-262.33
-712.836
-474.227
-516.698
-831.351
-244.395
-1124.48
-961.239
10.6115
-1640.59
-5.99923
-1977.81
9.59441
-1855.11
22.0669
-1437.24
-5.9584
-1507.36
8.4118
-1605.18
-23.0625
-1146.34
-25.2587
-1111.58
29.1199
-963.813
136.219
-863.932
265.401
-735.438
395.311
-604.344
505.939
-455.333
577.852
-319.168
592.12
-215.353
536.485
-206.695
403.116
-340.858
221.65
-649.885
46.3607
-949.194
-914.878
21.6038
-1662.2
-2.58242
-1953.63
-8.96852
-1848.73
11.5876
-1457.8
-7.43157
-1488.34
-38.4907
-1574.12
-31.7243
-1153.11
-32.5476
-1110.76
15.1106
-1011.47
80.9939
-929.817
171.647
-826.092
279.855
-712.554
407.899
-583.378
537.055
-448.324
640.947
-319.246
679.471
-245.22
616.642
-278.029
454.431
-487.675
228.582
-723.346
-686.296
34.2857
-1696.48
20.6344
-1939.98
7.26222
-1835.36
52.0438
-1502.59
46.9682
-1483.27
-3.14627
-1524
38.0602
-1194.32
37.2976
-1110
59.4252
-1033.6
73.1867
-943.579
98.565
-851.47
131.38
-745.371
183.278
-635.276
251.826
-516.873
333.975
-401.395
416.107
-327.352
470.39
-332.312
436.555
-453.839
262.973
-549.764
-423.323
50.0916
-1746.58
54.6268
-1944.52
26.7535
-1807.49
93.9865
-1569.82
122.434
-1511.71
62.8846
-1464.46
131.246
-1262.68
163.521
-1142.27
204.209
-1074.29
238.931
-978.302
279.105
-891.645
321.695
-787.962
372.809
-686.39
435.822
-579.886
514.847
-480.419
595.462
-407.967
634.547
-371.397
545.835
-365.127
300.976
-304.904
-122.346
61.3912
-1807.97
70.4629
-1953.59
64.4847
-1801.51
126.694
-1632.03
165.474
-1550.49
131.767
-1430.75
190.501
-1321.42
251.882
-1203.65
309.655
-1132.06
369.3
-1037.95
431.496
-953.84
498.515
-854.98
569.008
-756.882
640.9
-651.779
708.385
-547.903
747.522
-447.103
712.854
-336.727
546.345
-198.617
288.929
-47.4863
166.582
77.9459
-1885.91
86.3668
-1962.01
122.589
-1837.73
159.184
-1668.62
195.594
-1586.9
210.286
-1445.44
248.86
-1359.99
298.67
-1253.46
341.445
-1174.84
383.711
-1080.21
424.428
-994.556
468.772
-899.324
513.442
-801.552
549.491
-687.828
557.325
-555.736
521.515
-411.293
427.527
-242.739
261.506
-32.5957
131.613
82.4077
298.195
75.6188
-1961.53
63.8376
-1950.23
82.964
-1856.85
98.2669
-1683.93
132.797
-1621.43
171.462
-1484.11
213.777
-1402.3
258.398
-1298.08
298.028
-1214.47
339.855
-1122.04
378.991
-1033.69
414.269
-934.602
432.693
-819.975
422.77
-677.905
388.509
-521.475
330.611
-353.394
251.545
-163.673
174.086
44.8643
65.7795
190.716
363.975
65.4823
-2027.01
35.7297
-1920.47
46.4151
-1867.54
58.7251
-1696.24
77.3058
-1640.01
104.245
-1511.04
138.201
-1436.26
177.561
-1337.44
220.947
-1257.85
270.93
-1172.02
319.942
-1082.7
354.378
-969.037
347.456
-813.051
274.479
-604.927
147.794
-394.789
19.943
-225.543
-66.6935
-77.0359
-81.8328
60.0051
-94.3674
203.253
269.607
2.74203
-2029.75
-51.49
-1866.24
-80.5191
-1838.51
-107.683
-1669.07
-136.337
-1611.36
-159.137
-1488.24
-183.126
-1412.27
-202.682
-1317.88
-220.993
-1239.54
-238.686
-1154.33
-260.629
-1060.76
-295.323
-934.34
-353.902
-754.47
-434.644
-524.183
-514.94
-314.49
-543.885
-196.596
-494.968
-125.951
-361.573
-73.3874
-255.198
96.8813
14.4089
-47.6637
-1982.09
-117.08
-1796.82
-171.369
-1784.22
-218.17
-1622.27
-267.033
-1562.49
-304.245
-1451.03
-344.057
-1372.45
-377.91
-1284.03
-412.534
-1204.91
-444.485
-1122.37
-473.32
-1031.92
-489.315
-918.344
-471.98
-771.804
-392.167
-603.995
-248.455
-458.201
-85.3213
-359.727
45.5716
-256.839
58.3718
-86.1817
47.2765
107.983
61.6855
-146.272
-1835.82
-320.495
-1622.6
-458.246
-1646.47
-562.641
-1517.87
-656.474
-1468.66
-723.303
-1384.2
-777.892
-1317.86
-815.436
-1246.48
-840.596
-1179.75
-850.606
-1112.36
-839.368
-1043.16
-790.614
-967.098
-681.515
-880.902
-500.463
-785.046
-277.311
-681.352
-74.9211
-562.116
69.6716
-401.429
139.583
-156.09
145.938
101.629
207.624
-191.577
-1644.24
-428.597
-1385.58
-677.135
-1397.93
-884.134
-1310.87
-1082.02
-1270.77
-1247.51
-1218.71
-1390.33
-1175.04
-1505.76
-1131.05
-1596.2
-1089.31
-1660.22
-1048.35
-1695.21
-1008.16
-1694.6
-967.71
-1650.53
-924.974
-1559.3
-876.272
-1423.7
-816.951
-1243.75
-742.07
-1003.92
-641.257
-670.747
-489.262
-291.793
-277.324
-84.1695
-669.239
-1079.82
-1502.74
-1838.62
-2134.39
-2378.1
-2578.14
-2734.19
-2848.5
-2921.85
-2955.01
-2947.72
-2897.7
-2798.97
-2640.92
-2407.99
-2074.25
-1588.51
-890.831
-664.069
1639.07
-1069.77
1380.7
-1487.73
1392.96
-1818.77
1306.05
-2109.8
1266.02
-2348.87
1214.07
-2544.46
1170.6
-2696.43
1126.97
-2807.3
1085.88
-2878.07
1045.77
-2909.4
1006.33
-2900.5
966.105
-2848.22
922.718
-2745.37
872.16
-2580.91
810.541
-2343.76
737.852
-2023.29
654.527
-1588.96
540.675
-956.678
342.716
18.3225
-193.611
1832.69
-437.486
1624.58
-692.508
1647.99
-909.721
1523.27
-1119.22
1475.53
-1299.32
1394.18
-1459.24
1330.52
-1594.96
1262.7
-1708.73
1199.65
-1798.56
1135.6
-1859.54
1067.31
-1879.28
985.853
-1837.58
881.015
-1712.46
747.046
-1492.83
590.915
-1189
434.02
-838.035
303.564
-480.693
183.335
-125.003
-12.9668
-106.681
-174.396
2007.09
-371.846
1822.04
-535.185
1811.33
-666.107
1654.2
-787.179
1596.6
-882.016
1489.02
-966
1414.51
-1034.14
1330.85
-1091.56
1257.06
-1134.9
1178.95
-1158.66
1091.07
-1146.98
974.178
-1073.66
807.704
-905.84
579.223
-631.699
316.778
-318.112
120.438
-73.9107
59.373
81.695
27.7444
157.432
-88.6867
50.7514
-45.0499
2052.14
-121.865
1898.85
-178.585
1868.05
-223.039
1698.65
-268.919
1642.48
-300.877
1520.98
-332.759
1446.39
-355.176
1353.27
-373.581
1275.47
-387.407
1192.78
-400.728
1104.39
-417.974
991.426
-446.971
836.705
-495.003
627.259
-533.218
354.999
-569.096
156.321
-591.596
81.878
-458.385
-105.461
-281.214
-265.85
-230.462
24.9733
2027.17
-5.54492
1929.37
-12.0042
1874.52
-15.3446
1702
-19.4248
1646.57
-13.2045
1514.76
-4.84348
1438.04
5.55754
1342.87
12.444
1268.59
22.4863
1182.74
32.3747
1094.51
35.9126
987.895
33.8162
838.809
68.995
592.089
-81.47
505.479
-253.985
328.852
-302.625
130.533
-234.829
-173.245
-166.903
-333.765
-397.365
30.0811
1997.09
-11.4016
1970.85
-22.3705
1885.48
-37.8982
1717.52
-45.9734
1654.64
-46.245
1515.03
-40.5431
1432.33
-34.851
1337.17
-35.9675
1269.7
-31.0119
1177.78
-24.5816
1088.08
11.7502
951.562
63.8222
786.74
106.821
549.093
-6.63975
618.946
-87.0771
409.298
-88.646
132.114
-95.4023
-166.479
-140.606
-288.555
-537.971
92.5766
1904.51
69.8924
1993.54
93.5483
1861.83
117.422
1693.65
152.106
1619.96
182.292
1484.84
216.985
1397.64
262.911
1291.24
318.439
1214.17
380.129
1116.09
444.309
1023.9
509.841
886.029
571.545
725.036
536.31
584.328
501.817
653.443
425.783
485.341
305.11
252.801
149.136
-10.4868
-26.0522
-113.352
-564.023
145.477
1759.03
136.936
2002.07
172.349
1826.41
214.123
1651.86
269.96
1564.12
320.387
1434.41
373.717
1344.3
433.753
1231.2
506.539
1141.38
582.429
1040.19
665.391
940.934
723.775
827.638
779.766
669.046
866.097
497.994
1011.51
508.029
986.96
509.895
842.007
397.756
547.843
283.682
262.767
171.732
-301.256
164.092
1594.94
162.904
2003.26
185.608
1803.71
223.555
1613.92
274.475
1513.2
319.681
1389.2
365.168
1298.82
410.634
1185.74
464.743
1087.28
521.451
983.482
582.489
879.898
625.472
784.656
641.386
653.134
637.722
501.659
688.609
457.144
725.114
473.393
676.695
446.178
528.17
432.211
355.45
344.459
54.1939
169.367
1425.57
179.641
1992.98
183.879
1799.47
204.979
1592.81
237.065
1481.11
264.127
1362.14
293.132
1269.81
319.019
1159.84
347.689
1058.61
375.894
955.273
401.477
854.314
420.665
765.465
409.416
664.383
362.655
548.418
358.842
460.958
409.444
422.791
445.262
410.361
411.62
465.854
264.321
491.76
318.515
146.423
1279.14
165.098
1974.31
158.706
1805.86
164.744
1586.77
182.114
1463.74
200.031
1344.22
221.815
1248.03
242.129
1139.53
261.614
1039.12
276.157
940.729
280.845
849.626
276.967
769.342
250.503
690.846
203.25
595.67
182.589
481.619
210.765
394.615
262.456
358.67
282.983
445.327
188.194
586.549
506.71
83.0495
1196.08
99.034
1958.32
102.911
1801.97
105.469
1584.21
120.536
1448.67
145.253
1319.5
174.828
1218.45
199.514
1114.84
215.615
1023.01
220.419
935.918
213.725
856.315
205.736
777.325
204.659
691.92
217.098
583.226
248.55
450.164
295.723
347.438
330.697
323.695
308.274
467.748
193.583
701.237
700.293
-8.67827
1204.76
-7.70044
1957.33
11.2851
1782.99
16.6705
1578.82
30.8589
1434.48
52.3847
1297.97
89.9162
1180.91
127.571
1077.18
162.498
988.084
199.688
898.725
248.388
807.613
321.692
704.018
426.484
587.126
549.632
460.076
656.621
343.173
708.647
295.412
657.342
374.998
479.942
645.148
231.099
950.078
931.392
-84.8328
1289.59
-90.344
1962.84
-59.4956
1752.13
-60.708
1580.03
-87.1559
1460.92
-123.481
1334.29
-131.394
1188.82
-114.01
1059.79
-69.3373
943.406
3.99646
825.386
106.33
705.274
228.717
581.626
354.314
461.524
457.582
356.805
511.076
289.675
501.089
305.395
414.874
461.212
262.24
797.78
78.6054
1133.71
1010
-121.275
1410.86
-139.308
1980.87
-110.568
1723.39
-138.71
1608.17
-221.138
1543.35
-323.865
1437.01
-412.631
1277.58
-473.586
1120.74
-501.811
971.628
-505.798
829.37
-497.45
696.922
-494.893
579.066
-511.551
478.18
-552.906
398.157
-608.369
345.136
-644.048
341.072
-606.392
423.554
-446.494
637.88
-214.902
902.116
795.094
-30.5547
1441.4
-64.6346
2014.94
-77.1758
1735.92
-112.363
1643.35
-175.528
1606.51
-248.233
1509.72
-331.95
1361.3
-420.771
1209.56
-509.488
1060.34
-600.762
920.64
-696.214
792.371
-797.183
680.032
-898.539
579.533
-994.199
493.813
-1069.09
420.028
-1097.69
369.672
-1021.51
347.371
-766.786
383.152
-344.391
479.719
450.703
183.65
1257.75
211.099
1987.49
161.544
1785.48
136.13
1668.76
135.123
1607.52
152.154
1492.68
157.899
1355.55
138.344
1229.11
91.8576
1106.83
22.6713
989.824
-60.4102
875.45
-148.614
768.234
-233.696
664.613
-312.214
572.329
-378.461
486.273
-427.336
418.546
-440.366
360.399
-378.23
321.015
-206.585
308.071
244.119
288.758
968.991
408.014
1868.23
378.713
1814.78
359.143
1688.33
400.092
1566.57
474.931
1417.84
543.644
1286.84
588.512
1184.24
605.431
1089.91
594.141
1001.11
561.169
908.421
511.947
817.455
453.621
722.938
388.525
637.423
322.995
551.803
258.539
483.001
201.847
417.091
150.773
372.089
84.8257
374.017
328.944
250.498
718.493
366.964
1751.77
370.212
1811.53
341.859
1716.68
352.912
1555.51
384.855
1385.9
424.158
1247.54
454.532
1153.87
474.17
1070.27
481.109
994.172
475.412
914.117
456.514
836.353
425.942
753.509
385.66
677.705
340.43
597.032
293.564
529.867
251.476
459.181
210.589
412.977
145.407
439.2
474.352
111.053
371.432
584.16
740.14
866.363
961.468
1008.17
1031.26
1034.94
1021.68
990.137
940.729
872.037
786.959
685.274
571.971
447.647
318.14
189.282
)
;

boundaryField
{
    outletWall
    {
        type            calculated;
        value           nonuniform List<scalar> 
60
(
-2285.14
-4207.27
-3961.37
-2039.32
-2305.46
-2468
-3364.67
-2325.97
-1499.46
-2736.73
-4223.52
-4593.77
-3708.85
-2697.98
-1369.97
2383.29
3614.03
-924.965
-1756.87
824.608
4554.17
4651.52
4693.55
4689.96
4620.88
4339.25
3731.17
3277.85
3620.9
4965.36
7619.18
11048.3
12777.2
11518.6
9224.74
7194.83
5688.56
4666.35
4157.89
3522.22
-927.866
-1701.43
-964.243
-62.7261
-1700.34
-3309.42
-6995.84
-10566.4
-11139.4
-7674.21
-3750.06
-905.148
1975.53
3954.53
4909.35
4813.87
2774.92
-571.145
-4588.07
-5487.07
)
;
    }
    fineWalls
    {
        type            calculated;
        value           uniform 0;
    }
    fineFrontAndBack
    {
        type            calculated;
        value           nonuniform List<scalar> 
960
(
-4.14508e-13
-9.67305e-13
-1.13236e-13
-1.85761e-13
-2.44056e-13
-2.23401e-14
3.33282e-14
-3.81098e-14
6.91931e-13
1.82614e-13
2.59482e-13
2.17365e-13
-1.85136e-13
-2.5201e-13
-4.39712e-12
-1.26215e-12
-1.34066e-12
-4.15305e-12
-6.90162e-13
-1.00536e-12
-9.40558e-14
-3.31832e-13
-3.50809e-13
-4.02799e-13
-4.24396e-13
-5.33529e-13
-7.53785e-12
-6.1405e-13
-6.27217e-13
-6.44638e-13
-6.68106e-13
-6.97804e-13
-7.33226e-13
-7.74612e-13
-8.23919e-13
-8.90607e-13
-9.37444e-13
-1.06717e-12
-1.14565e-12
-9.60648e-13
-1.8479e-11
-2.15131e-12
-2.082e-12
-2.09211e-12
-7.30056e-12
-7.17876e-12
-8.31253e-12
3.2456e-12
1.76357e-10
2.18674e-12
7.12753e-12
3.99503e-11
1.41724e-11
1.96881e-11
1.32092e-11
1.79689e-11
1.92773e-12
2.015e-12
1.9782e-12
1.64377e-11
8.82217e-13
1.03964e-12
9.50725e-13
8.06e-13
7.31421e-13
6.61838e-13
5.97525e-13
5.40455e-13
4.87042e-13
4.43457e-13
4.05975e-13
3.77983e-13
3.5206e-13
-1.23004e-12
1.86958e-13
4.96381e-14
1.60754e-14
-4.50143e-14
-1.27801e-13
-3.90057e-13
-1.73853e-12
-2.05462e-12
-1.22627e-11
-2.12548e-12
-2.35412e-12
-1.20704e-11
-1.66005e-12
-1.90272e-12
-1.01252e-11
-1.47929e-12
-1.7756e-12
-8.65935e-12
-7.904e-13
-8.08006e-13
-7.58107e-13
-4.11762e-12
-3.76402e-13
-4.16016e-13
-2.04696e-12
4.26613e-14
3.73731e-10
-2.62458e-11
-6.59028e-11
-8.39992e-11
-7.1945e-11
-7.84179e-11
-7.89591e-11
-7.28258e-11
-6.27395e-11
-5.26468e-11
-4.44054e-11
-4.54378e-11
-5.05586e-11
-5.03951e-11
-4.71496e-11
-4.20281e-11
-3.64884e-11
-2.60886e-11
-1.6574e-11
4.33438e-10
4.19992e-12
-7.431e-11
-7.25806e-11
-4.20167e-11
-5.7896e-11
-7.23059e-11
-6.48953e-11
-5.32854e-11
-4.4744e-11
-4.07692e-11
-4.27153e-11
-4.5975e-11
-4.69016e-11
-4.65592e-11
-4.27112e-11
-3.80063e-11
-2.74822e-11
-1.74948e-11
3.50174e-10
-2.10739e-11
-7.4433e-11
-5.87796e-11
-2.08882e-11
-2.26206e-11
-4.12897e-11
-3.84715e-11
-3.02706e-11
-3.0133e-11
-3.09944e-11
-2.77492e-11
-3.23983e-11
-4.1789e-11
-4.71496e-11
-4.16309e-11
-3.59124e-11
-2.78554e-11
-1.85156e-11
2.38862e-10
-3.05148e-11
-5.39357e-11
-4.13864e-11
-1.04176e-11
-9.40573e-12
-1.31902e-11
-1.7974e-11
-3.37443e-11
-5.16643e-11
-4.15445e-11
-2.75494e-11
-1.28528e-11
-2.62029e-11
-4.05927e-11
-3.92849e-11
-3.38373e-11
-2.69145e-11
-1.90642e-11
1.29408e-10
-1.92175e-11
-2.20669e-11
-1.83734e-11
-8.7404e-13
-1.31383e-11
-2.99508e-11
-4.85563e-11
-8.3654e-11
-9.24581e-11
-6.27297e-11
-1.59088e-11
2.65848e-12
-3.98476e-12
-2.52922e-11
-3.18769e-11
-2.68241e-11
-2.38586e-11
-1.65751e-11
5.86292e-11
1.35771e-11
1.4037e-11
-5.01905e-12
-7.60383e-12
-1.95207e-11
-4.12283e-11
-7.40077e-11
-1.00445e-10
-7.80051e-11
-3.54448e-11
-1.65021e-12
6.83409e-12
1.41447e-11
-1.57052e-11
-3.78883e-11
-3.88338e-11
-2.37735e-11
-1.90692e-11
1.43325e-11
1.25786e-11
4.52682e-12
-2.33526e-11
-2.93891e-11
-3.50118e-11
-4.94889e-11
-6.87211e-11
-6.89477e-11
-4.03301e-11
-1.62664e-11
-6.07612e-12
-5.80674e-12
-5.98947e-12
-2.08589e-11
-2.24363e-11
-1.91032e-11
-2.77839e-11
-2.89023e-11
-4.58391e-11
-5.3673e-11
-4.90931e-11
-4.42178e-11
-3.22342e-11
-3.23248e-11
-4.19586e-11
-4.49513e-11
-3.3825e-11
-1.63084e-11
-3.35321e-12
1.20171e-12
-1.84126e-12
-7.56209e-12
-7.99298e-12
-4.29598e-12
-6.82083e-12
-7.33821e-12
4.87646e-12
-8.40582e-11
-8.18636e-11
-5.6712e-11
-2.9046e-11
-9.66589e-12
-1.17165e-11
-2.23002e-11
-2.35572e-11
-1.50339e-11
-6.79057e-12
-2.60958e-12
2.33654e-13
4.99718e-12
7.54069e-12
6.54348e-12
8.26365e-12
9.54788e-12
1.20377e-11
1.83768e-11
-7.42205e-11
-7.42805e-11
-3.97387e-11
1.17521e-11
3.50749e-11
2.11259e-11
5.22978e-12
1.15023e-12
-1.72185e-12
-5.0549e-12
-1.02317e-11
-1.11189e-11
-1.73145e-12
7.7105e-12
1.3309e-11
1.85773e-11
1.99048e-11
2.33421e-11
3.24743e-11
-5.84868e-11
-9.45483e-11
-4.46039e-11
4.49012e-11
8.31694e-11
6.33384e-11
3.45948e-11
1.45509e-11
4.47314e-12
-5.38046e-12
-1.29092e-11
-1.55625e-11
-1.77879e-11
-1.44856e-11
-7.38204e-12
-1.96834e-12
7.6513e-12
2.84583e-11
8.98417e-11
-7.43736e-11
-1.3229e-10
-6.04391e-11
4.76709e-11
9.09138e-11
7.3396e-11
4.46041e-11
1.8979e-11
4.28993e-12
-3.02128e-12
-4.18006e-12
-5.42394e-12
-1.10689e-11
-1.95632e-11
-2.14808e-11
-2.37482e-11
-2.53157e-11
-2.69714e-11
-2.4096e-11
-3.49282e-11
-1.24254e-10
-6.06559e-11
2.97126e-11
6.59369e-11
6.28193e-11
4.6994e-11
2.59035e-11
6.64847e-12
-4.15428e-12
-1.05038e-11
-8.84768e-12
2.97926e-12
-2.90929e-12
-2.0968e-11
-1.66683e-11
-1.42926e-11
-1.49859e-11
-2.04363e-11
1.18192e-10
-4.95327e-11
-4.50627e-11
9.76325e-12
3.31223e-11
4.05459e-11
4.10701e-11
3.18476e-11
1.41167e-11
-5.13191e-12
-2.57496e-11
-2.60832e-11
-5.21693e-12
8.32115e-12
4.63131e-12
-9.81609e-13
-6.22179e-12
-4.96435e-12
4.15716e-12
2.42053e-10
4.3959e-11
-2.25851e-11
-8.13003e-12
6.42254e-12
1.88299e-11
2.59018e-11
2.43216e-11
1.35342e-11
-6.13253e-12
-3.07793e-11
-3.09292e-11
-1.2378e-11
-3.68466e-12
8.13853e-12
1.92241e-11
2.20229e-11
1.02955e-11
1.37964e-11
2.65946e-10
8.53891e-11
1.36707e-13
-1.98362e-11
-1.19654e-11
1.20239e-12
8.72083e-12
8.10289e-12
1.44106e-12
-1.64731e-11
-3.54919e-11
-2.67489e-11
-8.56104e-12
-4.40517e-12
-2.35624e-12
6.51494e-12
7.59365e-12
4.34024e-12
4.62508e-12
2.67027e-10
8.78386e-11
2.2091e-12
-2.05058e-11
-2.10435e-11
-1.29858e-11
-7.1566e-12
-9.72756e-12
-1.57048e-11
-2.55568e-11
-3.27154e-11
-1.78721e-11
-6.14379e-12
-2.90224e-12
-5.61249e-13
1.0821e-12
3.15583e-12
3.8984e-12
3.63822e-12
2.76315e-10
9.52418e-11
6.70529e-12
-1.36748e-11
-1.78833e-11
-2.07206e-11
-2.01505e-11
-2.19425e-11
-2.43778e-11
-2.52688e-11
-2.026e-11
-7.66632e-12
-4.34952e-12
-3.06812e-12
-9.59987e-13
1.58104e-12
3.41547e-12
3.74602e-12
3.47996e-12
2.91515e-10
1.08751e-10
1.62169e-11
-3.86528e-12
-9.136e-12
-1.97776e-11
-2.5519e-11
-2.59591e-11
-2.2894e-11
-1.71756e-11
-1.04279e-11
-1.66216e-12
-3.19116e-12
-3.00926e-12
-6.68998e-13
1.86315e-12
3.45724e-12
3.63096e-12
3.55183e-12
3.04145e-10
1.17973e-10
2.17078e-11
3.75208e-12
4.95539e-13
-9.3995e-12
-1.50721e-11
-1.47391e-11
-1.11968e-11
-9.66546e-12
-5.38198e-12
-5.91311e-13
-2.76093e-12
-2.97023e-12
-3.51346e-13
2.26572e-12
3.65115e-12
3.62029e-12
3.46184e-12
4.14508e-13
9.67305e-13
1.13236e-13
1.85761e-13
2.44056e-13
2.23401e-14
-3.33282e-14
3.81098e-14
-6.91931e-13
-1.82614e-13
-2.59482e-13
-2.17365e-13
1.85136e-13
2.5201e-13
4.39712e-12
1.26215e-12
1.34066e-12
4.15305e-12
6.90162e-13
1.00536e-12
9.40558e-14
3.31832e-13
3.50809e-13
4.02799e-13
4.24396e-13
5.33529e-13
7.53785e-12
6.1405e-13
6.27217e-13
6.44638e-13
6.68106e-13
6.97804e-13
7.33226e-13
7.74612e-13
8.23919e-13
8.90607e-13
9.37444e-13
1.06717e-12
1.14565e-12
9.60648e-13
1.8479e-11
2.15131e-12
2.082e-12
2.09211e-12
7.30056e-12
7.17876e-12
8.31253e-12
-3.2456e-12
-1.76357e-10
-2.18674e-12
-7.12753e-12
-3.99503e-11
-1.41724e-11
-1.96881e-11
-1.32092e-11
-1.79689e-11
-1.92773e-12
-2.015e-12
-1.9782e-12
-1.64377e-11
-8.82217e-13
-1.03964e-12
-9.50725e-13
-8.06e-13
-7.31421e-13
-6.61838e-13
-5.97525e-13
-5.40455e-13
-4.87042e-13
-4.43457e-13
-4.05975e-13
-3.77983e-13
-3.5206e-13
1.23004e-12
-1.86958e-13
-4.96381e-14
-1.60754e-14
4.50143e-14
1.27801e-13
3.90057e-13
1.73853e-12
2.05462e-12
1.22627e-11
2.12548e-12
2.35412e-12
1.20704e-11
1.66005e-12
1.90272e-12
1.01252e-11
1.47929e-12
1.7756e-12
8.65935e-12
7.904e-13
8.08006e-13
7.58107e-13
4.11762e-12
3.76402e-13
4.16016e-13
2.04696e-12
-4.26613e-14
-3.73731e-10
2.62458e-11
6.59028e-11
8.39992e-11
7.1945e-11
7.84179e-11
7.89591e-11
7.28258e-11
6.27395e-11
5.26468e-11
4.44054e-11
4.54378e-11
5.05586e-11
5.03951e-11
4.71496e-11
4.20281e-11
3.64884e-11
2.60886e-11
1.6574e-11
-4.33438e-10
-4.19992e-12
7.431e-11
7.25806e-11
4.20167e-11
5.7896e-11
7.23059e-11
6.48953e-11
5.32854e-11
4.4744e-11
4.07692e-11
4.27153e-11
4.5975e-11
4.69016e-11
4.65592e-11
4.27112e-11
3.80063e-11
2.74822e-11
1.74948e-11
-3.50174e-10
2.10739e-11
7.4433e-11
5.87796e-11
2.08882e-11
2.26206e-11
4.12897e-11
3.84715e-11
3.02706e-11
3.0133e-11
3.09944e-11
2.77492e-11
3.23983e-11
4.1789e-11
4.71496e-11
4.16309e-11
3.59124e-11
2.78554e-11
1.85156e-11
-2.38862e-10
3.05148e-11
5.39357e-11
4.13864e-11
1.04176e-11
9.40573e-12
1.31902e-11
1.7974e-11
3.37443e-11
5.16643e-11
4.15445e-11
2.75494e-11
1.28528e-11
2.62029e-11
4.05927e-11
3.92849e-11
3.38373e-11
2.69145e-11
1.90642e-11
-1.29408e-10
1.92175e-11
2.20669e-11
1.83734e-11
8.7404e-13
1.31383e-11
2.99508e-11
4.85563e-11
8.3654e-11
9.24581e-11
6.27297e-11
1.59088e-11
-2.65848e-12
3.98476e-12
2.52922e-11
3.18769e-11
2.68241e-11
2.38586e-11
1.65751e-11
-5.86292e-11
-1.35771e-11
-1.4037e-11
5.01905e-12
7.60383e-12
1.95207e-11