/*--------------------------------*- C++ -*----------------------------------*\
| =========                 |                                                 |
| \\      /  F ield         | OpenFOAM: The Open Source CFD Toolbox           |
|  \\    /   O peration     | Version:  4.1                                   |
|   \\  /    A nd           | Web:      www.OpenFOAM.org                      |
|    \\/     M anipulation  |                                                 |
\*---------------------------------------------------------------------------*/
FoamFile
{
    version     2.0;
    format      ascii;
    class       volVectorField;
    location    "11";
    object      U;
}
// * * * * * * * * * * * * * * * * * * * * * * * * * * * * * * * * * * * * * //

dimensions      [0 1 -1 0 0 0 0];

internalField   nonuniform List<vector> 
1280
(
(-2.99554e-16 0.301583 -0.106316)
(-1.63643e-16 0.495409 -0.571963)
(-8.24843e-17 0.556707 -0.537362)
(-1.34244e-16 0.635501 -0.533483)
(-4.14796e-17 0.90556 -0.975986)
(-1.61446e-17 0.873373 -0.785944)
(2.40854e-17 1.07309 -0.810918)
(-3.54506e-17 1.10239 -0.754305)
(1.44797e-16 1.47871 -1.21995)
(1.381e-16 1.43721 -0.94142)
(1.9967e-16 1.61335 -0.841958)
(-4.66476e-17 2.03294 -1.49245)
(-1.33793e-16 1.9625 -1.20591)
(-2.01144e-16 2.21409 -1.0952)
(-8.78233e-16 2.71965 -1.8971)
(-9.12121e-16 2.5928 -1.57933)
(-9.68859e-16 2.96268 -1.38395)
(-7.05851e-16 3.45541 -2.86478)
(-4.98762e-16 3.73379 -1.90461)
(-7.26548e-16 3.68705 -3.24546)
(-3.8587e-16 3.88564 -0.767703)
(-1.36136e-15 4.08189 5.11143)
(-1.43922e-15 3.88624 8.4316)
(-1.65251e-15 4.10375 9.93709)
(-1.74111e-15 4.25947 10.484)
(-2.18884e-15 4.64292 11.115)
(-1.58901e-15 3.97852 8.51701)
(-2.51918e-15 8.2233 13.9967)
(-2.5732e-15 8.36306 14.1885)
(-2.64467e-15 8.38764 14.2789)
(-2.74095e-15 8.42499 14.2744)
(-2.86278e-15 8.39209 14.2229)
(-3.00811e-15 8.39211 14.097)
(-3.1779e-15 8.3029 13.9632)
(-3.38018e-15 8.29839 13.7728)
(-3.65377e-15 8.14672 13.6237)
(-3.84592e-15 8.16159 13.4302)
(-4.37813e-15 7.9369 13.2981)
(-4.70011e-15 7.94391 13.222)
(-3.94112e-15 7.76763 13.8356)
(-3.21653e-15 8.73554 14.6385)
(-1.72796e-15 5.47816 9.73883)
(-1.67279e-15 4.28704 9.4145)
(-1.6712e-15 3.2997 9.5111)
(-1.10046e-15 1.07569 7.90768)
(-5.76608e-15 -0.512794 -3.82787)
(-6.67673e-15 0.232852 -4.6203)
(2.60691e-15 0.584478 -4.9916)
(3.13169e-14 2.07139 -4.64529)
(1.60948e-15 -0.806346 -0.314515)
(5.60726e-15 0.626073 -0.818712)
(6.95393e-15 -2.22094 -5.4226)
(1.13834e-14 -0.665056 -5.11631)
(1.58137e-14 -0.283171 -4.61679)
(1.06098e-14 0.399236 -3.37408)
(3.12774e-15 -1.18251 7.9978)
(1.55758e-15 -3.34771 9.47688)
(1.61797e-15 -4.33707 9.42561)
(1.58892e-15 -5.53257 9.78032)
(2.75356e-15 -8.89497 14.6002)
(3.61935e-15 -7.74204 13.6523)
(4.26517e-15 -7.94097 13.1824)
(3.90041e-15 -7.92315 13.2397)
(3.30667e-15 -8.14848 13.3943)
(3.0007e-15 -8.13842 13.5994)
(2.71523e-15 -8.28703 13.7651)
(2.45138e-15 -8.29694 13.9667)
(2.21725e-15 -8.38496 14.1195)
(1.99812e-15 -8.38955 14.2701)
(1.81931e-15 -8.42623 14.3556)
(1.66554e-15 -8.39568 14.3972)
(1.5507e-15 -8.36748 14.3453)
(1.44435e-15 -8.25669 14.1863)
(-2.59296e-16 -4.09463 8.78057)
(7.67007e-16 -4.6116 11.2769)
(2.03643e-16 -4.22879 10.8155)
(6.59505e-17 -4.11045 10.0602)
(-1.84674e-16 -3.8532 8.1528)
(-5.24313e-16 -4.12772 5.0843)
(-1.60023e-15 -3.87346 -0.774486)
(-1.25639e-15 -3.74089 -3.02075)
(-1.48482e-15 -3.72123 -1.81022)
(-2.08416e-15 -3.63854 -2.66462)
(-1.53603e-15 -3.09771 -1.3285)
(-1.70126e-15 -2.74208 -1.49961)
(-2.11492e-15 -2.97501 -1.7975)
(-1.19967e-15 -2.43845 -1.0511)
(-1.37505e-15 -2.18629 -1.15119)
(-1.81904e-15 -2.36967 -1.42163)
(-1.06904e-15 -1.89871 -0.80788)
(-1.2692e-15 -1.71842 -0.901088)
(-1.56972e-15 -1.87766 -1.16524)
(-5.84995e-16 -1.4211 -0.710752)
(-5.83925e-16 -1.43269 -0.750794)
(-5.47864e-16 -1.19838 -0.708395)
(-6.99829e-16 -1.38403 -0.836331)
(-2.72016e-16 -1.01944 -0.426481)
(-3.02758e-16 -0.953881 -0.404406)
(-3.38419e-16 -1.03499 -0.420519)
(3.08302e-17 -0.740982 -0.0984548)
(4.15256e-14 0.273752 2.9343)
(-2.9162e-15 -0.585629 2.12193)
(-7.32253e-15 -0.306323 1.95845)
(-9.33324e-15 1.21316 2.14441)
(-7.99389e-15 0.79913 2.25772)
(-8.7131e-15 -0.441173 1.85328)
(-8.77323e-15 -0.890794 1.79298)
(-8.09175e-15 -1.22911 1.74924)
(-6.97105e-15 -1.52552 1.60183)
(-5.84964e-15 -1.40135 1.30843)
(-4.93393e-15 -0.895975 0.922317)
(-5.04865e-15 -0.481449 0.435574)
(-5.61762e-15 -0.766673 -0.00461857)
(-5.59946e-15 -1.11032 -0.199136)
(-5.23884e-15 -0.818293 -0.430257)
(-4.66978e-15 -0.76164 -0.562008)
(-4.05426e-15 -0.669549 -0.737591)
(-2.89873e-15 -1.30508 -0.770812)
(-1.84155e-15 -1.41204 -0.909141)
(4.81598e-14 0.595235 3.46409)
(4.66658e-16 -0.208683 2.65902)
(-8.25667e-15 -0.311135 2.28688)
(-8.06451e-15 1.06818 2.62883)
(-4.66853e-15 0.908833 2.80392)
(-6.43289e-15 -0.288951 2.08619)
(-8.03399e-15 -0.876222 1.84856)
(-7.21059e-15 -1.18536 1.88952)
(-5.9206e-15 -1.38558 1.77124)
(-4.97155e-15 -1.1636 1.44118)
(-4.52991e-15 -0.599637 0.993057)
(-4.74614e-15 -0.171695 0.358729)
(-5.10833e-15 -0.554734 -0.172206)
(-5.21129e-15 -0.986371 -0.171224)
(-5.17324e-15 -0.68987 -0.380847)
(-4.74568e-15 -0.671081 -0.592075)
(-4.22292e-15 -0.62496 -0.783004)
(-3.05358e-15 -1.31065 -0.801246)
(-1.94387e-15 -1.53297 -0.918979)
(3.89083e-14 0.625258 3.89728)
(-2.34154e-15 -0.119885 3.52817)
(-8.27034e-15 -0.277216 3.11358)
(-6.53107e-15 1.01147 3.16158)
(-2.32091e-15 1.00962 3.17107)
(-2.5134e-15 -0.0583628 2.57291)
(-4.58774e-15 -0.810664 2.21496)
(-4.27461e-15 -1.18147 2.23689)
(-3.3634e-15 -1.31721 2.14916)
(-3.34811e-15 -1.05359 1.82164)
(-3.44382e-15 -0.42281 1.26192)
(-3.08325e-15 0.0254909 0.325202)
(-3.59981e-15 -0.547668 -0.477475)
(-4.64323e-15 -1.00111 -0.211323)
(-5.23885e-15 -0.606413 -0.229156)
(-4.62565e-15 -0.587974 -0.569941)
(-3.99027e-15 -0.532204 -0.901359)
(-3.09505e-15 -1.18796 -0.870991)
(-2.05729e-15 -1.38675 -0.999045)
(2.65402e-14 0.718444 4.75485)
(-3.39054e-15 0.0680493 4.64892)
(-5.99286e-15 -0.140439 4.07647)
(-4.59849e-15 1.055 3.65435)
(-1.15751e-15 1.12065 3.42932)
(-1.04508e-15 0.0870919 2.92188)
(-1.46558e-15 -0.735743 2.75963)
(-1.99711e-15 -1.14303 2.81258)
(-3.74937e-15 -1.22372 2.7187)
(-5.74047e-15 -0.834002 2.34119)
(-4.61605e-15 -0.00307678 1.51284)
(-3.06105e-15 0.507867 0.10964)
(-1.42809e-15 -0.396553 -0.983536)
(-2.91143e-15 -1.08158 -0.527007)
(-4.51031e-15 -0.518714 -0.118128)
(-4.36499e-15 -0.446018 -0.448064)
(-3.7597e-15 -0.562543 -0.848928)
(-2.9905e-15 -1.39487 -0.797317)
(-2.11824e-15 -1.43494 -1.17725)
(1.43786e-14 0.665926 6.01592)
(-2.13528e-15 0.143856 5.92491)
(-2.45188e-15 0.149176 4.95391)
(-2.04149e-15 1.26732 4.23975)
(-9.71156e-17 1.30565 4.00695)
(-1.45981e-15 0.220919 3.198)
(-3.32787e-15 -0.77543 2.72003)
(-5.39514e-15 -1.16353 2.86457)
(-9.29489e-15 -1.13445 2.72823)
(-1.02731e-14 -0.567316 2.14167)
(-6.96997e-15 0.522474 1.10497)
(-1.76764e-15 1.07853 0.040529)
(2.95386e-16 -0.316696 -0.728792)
(-4.42751e-16 -1.36264 -0.535329)
(-2.81025e-15 -0.611393 0.0805717)
(-3.54187e-15 -0.311999 -0.278814)
(-2.98046e-15 -0.256976 -0.92505)
(-2.65096e-15 -0.928585 -0.80273)
(-1.84168e-15 -0.95359 -1.33004)
(6.51435e-15 0.726072 7.70875)
(1.50857e-15 0.46816 7.25176)
(1.55967e-15 0.561228 5.80962)
(-5.57672e-16 1.41407 5.33213)
(-8.4487e-16 1.51773 5.19905)
(-2.16896e-15 0.646305 4.24114)
(-4.58093e-15 -0.599136 2.89997)
(-8.22308e-15 -1.14499 2.49407)
(-1.11605e-14 -0.963562 2.38238)
(-8.66723e-15 -0.221715 2.18023)
(-3.93831e-15 0.809576 2.03166)
(-1.83356e-16 1.23079 2.16542)
(7.59344e-16 -0.204256 1.37429)
(1.57163e-15 -1.2648 0.329322)
(-1.74503e-15 -0.502108 1.06513)
(-4.20981e-15 -0.198944 0.657127)
(-4.31487e-15 -0.52609 -0.282717)
(-2.6415e-15 -1.60129 -0.108416)
(-2.1188e-15 -1.13978 -2.05128)
(1.5925e-15 0.832153 9.62069)
(1.39762e-15 0.884917 9.17044)
(5.0298e-16 0.958841 7.54329)
(-2.59474e-15 1.52304 6.7445)
(-3.26546e-15 1.73443 6.40503)
(-3.8902e-15 1.13488 5.807)
(-5.49877e-15 -0.0846969 4.59835)
(-7.63568e-15 -0.955731 3.6513)
(-7.66086e-15 -1.03884 3.74207)
(-4.48112e-15 -0.436334 4.65508)
(-1.80738e-15 0.621427 5.69857)
(-6.75124e-16 1.33649 6.06813)
(-6.45193e-16 0.13278 4.62637)
(-6.65496e-16 -1.38361 2.11359)
(-2.31766e-15 -0.639339 1.85521)
(-2.49293e-15 0.364948 0.748704)
(-2.12258e-15 0.304078 -0.54646)
(-3.0871e-15 0.292941 -1.04635)
(-3.21136e-15 0.681086 -2.70587)
(-5.09324e-15 0.886462 10.6682)
(-5.96366e-15 1.29696 10.1232)
(-5.45479e-15 1.56894 8.36364)
(-4.91309e-15 1.86674 7.22747)
(-3.58157e-15 1.89715 7.03052)
(-3.59164e-15 1.35599 7.17141)
(-4.66207e-15 0.274558 6.92676)
(-4.99459e-15 -0.799634 6.39065)
(-3.75834e-15 -1.32631 6.62341)
(-1.81205e-15 -0.995421 7.91552)
(-3.72579e-16 0.275052 9.47494)
(1.33523e-16 1.64003 10.138)
(-2.04585e-16 1.47476 8.9428)
(-8.40232e-16 0.191001 5.58034)
(-8.88109e-16 0.157984 3.32494)
(-4.77331e-16 0.52687 3.66507)
(-7.5787e-16 0.0759168 4.30453)
(-8.15356e-16 -1.45089 5.37102)
(5.41829e-16 -5.74571 9.42087)
(-9.3398e-15 1.02976 9.22403)
(-9.09595e-15 1.80892 8.09382)
(-6.30133e-15 2.12494 6.72705)
(-3.22733e-15 2.02579 6.28598)
(-1.07399e-15 1.75045 6.97965)
(-1.30184e-15 1.1493 8.05049)
(-2.4778e-15 0.195988 8.95142)
(-2.61747e-15 -0.879161 9.45098)
(-1.67044e-15 -1.66724 10.0491)
(-7.54507e-16 -1.54897 11.2043)
(-2.89953e-16 -0.11444 12.3614)
(2.59615e-17 1.55296 12.8639)
(5.55242e-16 1.68594 13.1061)
(8.37854e-16 0.574528 12.728)
(7.27053e-16 0.0693025 12.3331)
(9.18184e-16 0.0188743 12.7657)
(1.06088e-15 -0.39407 13.0744)
(1.33752e-15 -1.68836 12.8174)
(2.04187e-15 -3.60115 12.432)
(-8.24672e-15 1.31725 6.36169)
(-8.25339e-15 2.26528 5.34163)
(-4.41541e-15 2.32013 4.85195)
(1.30579e-15 1.75234 5.22158)
(3.89721e-15 1.20636 6.85137)
(2.34732e-15 0.571656 8.60713)
(6.02133e-16 -0.278089 10.0532)
(1.27803e-16 -1.24336 11.1002)
(-1.91316e-16 -2.02539 11.8791)
(-5.61655e-16 -1.92717 12.4638)
(-1.13686e-15 -0.423722 12.6956)
(-1.22987e-15 1.32146 12.9162)
(-1.92383e-16 1.56558 13.4232)
(8.56723e-16 0.65192 13.5067)
(1.38972e-15 0.220556 13.1792)
(2.06414e-15 0.161201 13.0685)
(2.21164e-15 -0.268719 12.6662)
(2.59357e-15 -1.34781 10.7956)
(3.60826e-15 -2.9532 6.72371)
(-6.49853e-15 1.43762 4.14797)
(-1.05054e-14 2.38432 3.96663)
(-4.95598e-15 2.2108 4.35143)
(4.98902e-15 1.2108 5.1348)
(9.24104e-15 0.410424 7.1285)
(7.0376e-15 -0.134734 9.0696)
(3.83779e-15 -0.796705 10.5886)
(1.61677e-15 -1.61831 11.7595)
(4.97016e-16 -2.22696 12.5197)
(-5.97829e-16 -1.90219 12.7046)
(-1.43435e-15 -0.264069 12.3404)
(-1.72917e-15 1.34764 12.0653)
(-1.97643e-15 1.49562 12.7138)
(-1.60951e-15 0.655935 13.4599)
(-8.20227e-16 0.253048 13.4171)
(-2.18705e-16 0.339597 13.3479)
(8.50144e-16 0.580877 12.8224)
(3.16204e-15 1.36043 10.7291)
(9.98242e-15 2.84277 6.55454)
(-8.26373e-15 1.38226 3.02289)
(-1.46989e-14 2.16465 3.34623)
(-6.71545e-15 1.88345 4.44106)
(5.29677e-15 0.626957 5.47518)
(1.01015e-14 -0.33968 7.19446)
(8.15511e-15 -0.807608 8.81764)
(4.95601e-15 -1.34359 10.2561)
(2.10877e-15 -2.00781 11.3799)
(4.76659e-16 -2.36931 11.844)
(-3.35698e-16 -1.79986 11.2667)
(-4.64451e-16 -0.190699 9.72184)
(-6.0266e-16 1.07566 8.42104)
(-1.22988e-15 0.85733 8.65126)
(-2.17368e-15 0.333888 10.3109)
(-2.38676e-15 0.312968 11.1825)
(-2.63869e-15 0.427145 11.8901)
(-2.81285e-15 0.684603 12.7208)
(-2.99682e-15 1.64456 12.9781)
(-2.67733e-15 3.37162 12.6003)
(-3.88092e-15 1.30353 2.7289)
(-1.3806e-14 1.79262 2.89006)
(-6.73955e-15 1.38486 4.44666)
(3.30139e-15 0.0824667 5.63912)
(7.32632e-15 -0.917038 6.90449)
(6.97992e-15 -1.36626 8.13374)
(5.22155e-15 -1.81336 9.30878)
(2.87817e-15 -2.25172 10.1198)
(7.38719e-16 -2.19238 10.2377)
(-4.61587e-16 -1.12221 9.38901)
(-1.16709e-15 0.732193 7.79537)
(-9.83076e-16 1.87613 5.75788)
(3.31029e-16 1.07827 3.21941)
(-3.23254e-16 -0.163629 1.47361)
(-2.32978e-15 -0.399769 0.845356)
(-1.85204e-15 -0.366139 1.86724)
(-1.58806e-15 -0.172023 3.57803)
(-1.6651e-15 1.38601 5.53945)
(-2.2707e-15 5.69917 9.80153)
(1.31324e-14 1.32939 3.10034)
(-5.50364e-15 1.45433 2.76927)
(-5.00697e-15 0.817981 4.30988)
(1.08481e-15 -0.373257 5.47548)
(3.68026e-15 -1.33326 6.3325)
(4.5051e-15 -1.77949 7.15543)
(4.56334e-15 -2.13972 7.95352)
(3.53862e-15 -2.37597 8.33082)
(1.56852e-15 -2.04646 8.17721)
(-5.70212e-16 -0.757078 7.5807)
(-2.86107e-15 1.28846 6.64425)
(-2.89813e-15 2.85668 4.83325)
(-5.79658e-16 2.30525 2.88592)
(9.24572e-16 0.924821 1.36351)
(5.1459e-16 0.190071 0.144293)
(-1.09068e-16 -0.44594 -1.17626)
(-6.9131e-16 -0.591808 -1.73989)
(-5.51594e-16 -0.879777 -2.25807)
(4.61906e-16 -0.983648 -2.7786)
(2.68948e-14 1.45682 3.60645)
(4.88434e-15 1.28066 3.07493)
(-2.50946e-15 0.3312 4.12785)
(-9.03337e-16 -0.72131 5.08717)
(7.13616e-16 -1.59179 5.61883)
(2.09221e-15 -2.02348 6.00889)
(2.87798e-15 -2.29316 6.39064)
(2.7024e-15 -2.35722 6.33544)
(1.5038e-15 -1.88758 5.82248)
(-6.81392e-16 -0.516152 5.15991)
(-3.41992e-15 1.74954 4.34409)
(-3.43658e-15 3.45473 2.78783)
(-1.37533e-15 2.73112 1.85422)
(-4.09407e-16 1.13004 0.580446)
(9.04281e-16 0.473698 -0.0759575)
(2.13601e-15 0.169695 -0.338348)
(2.44699e-15 0.0379534 -1.3339)
(1.14394e-15 1.09741 -0.818852)
(1.53293e-15 0.749967 -2.63655)
(2.95496e-14 1.55822 3.84279)
(9.48768e-15 1.22497 3.46684)
(1.51897e-17 0.0348806 4.00867)
(-2.20402e-15 -0.955585 4.58578)
(-1.32949e-15 -1.69508 4.90955)
(1.33599e-16 -2.08288 4.92574)
(9.68982e-16 -2.26307 4.87614)
(9.00322e-16 -2.15512 4.43758)
(1.60117e-16 -1.57499 3.53059)
(-1.83034e-15 -0.17761 2.51267)
(-3.94354e-15 2.17403 1.7425)
(-2.9721e-15 3.82355 0.962264)
(-9.51227e-16 3.14891 1.02152)
(-4.89463e-16 1.63345 -0.0976711)
(-2.61804e-16 0.633821 -0.735997)
(7.23882e-16 0.20157 -1.03173)
(8.43739e-16 -0.150167 -1.55638)
(4.82249e-16 0.224742 -1.37369)
(5.13897e-16 0.351002 -1.69648)
(2.96697e-14 1.61654 3.90179)
(9.75984e-15 1.19535 3.63185)
(2.45455e-16 -0.111725 3.84173)
(-2.27843e-15 -1.09141 4.016)
(-2.33817e-15 -1.73121 4.22331)
(-1.44286e-15 -2.01602 4.08685)
(-7.95178e-16 -2.09599 3.70666)
(-1.08084e-15 -1.83094 2.975)
(-1.74498e-15 -1.13245 1.82297)
(-2.83965e-15 0.182092 0.465323)
(-3.63504e-15 2.30958 -0.298957)
(-1.98579e-15 3.76013 -0.116265)
(-6.82643e-16 3.22489 0.265501)
(-3.22472e-16 1.89504 -0.476521)
(-6.2361e-17 0.82399 -0.980279)
(1.20233e-16 0.395495 -1.25734)
(3.50648e-16 0.0747058 -1.53531)
(4.33156e-16 0.720376 -1.30122)
(4.04247e-16 0.840706 -1.4474)
(3.07017e-14 1.67827 3.90589)
(1.05824e-14 1.2459 3.62303)
(7.45032e-16 -0.100564 3.55089)
(-1.51943e-15 -1.11158 3.44952)
(-1.98703e-15 -1.71808 3.54502)
(-2.30229e-15 -1.87288 3.42338)
(-2.23894e-15 -1.80579 2.95971)
(-2.43806e-15 -1.38583 2.11999)
(-2.70864e-15 -0.533521 0.956969)
(-2.80765e-15 0.687553 -0.296912)
(-2.25111e-15 2.36887 -0.823799)
(-8.51813e-16 3.59296 -0.352871)
(-4.8328e-16 3.30235 -0.26997)
(-3.40903e-16 2.11064 -0.717028)
(-1.06665e-16 0.958382 -1.09924)
(1.75671e-16 0.456122 -1.29553)
(3.79496e-16 -0.0189515 -1.55317)
(4.16225e-16 0.346928 -1.32325)
(3.86662e-16 0.608391 -1.19936)
(3.23905e-14 1.72976 3.87192)
(1.20835e-14 1.31348 3.56639)
(1.80188e-15 -0.0471505 3.28712)
(-4.29475e-16 -1.09145 3.02021)
(-1.01511e-15 -1.72887 2.97995)
(-2.19751e-15 -1.79928 2.86705)
(-2.83544e-15 -1.59487 2.49714)
(-2.88435e-15 -1.06889 1.79263)
(-2.54378e-15 -0.178609 0.844421)
(-1.9084e-15 0.893089 -0.0481428)
(-1.15866e-15 2.32561 -0.424216)
(-1.84685e-16 3.55251 -0.377746)
(-3.54573e-16 3.38581 -0.56756)
(-3.34362e-16 2.21752 -0.841458)
(-7.43331e-17 1.02925 -1.07514)
(2.07016e-16 0.518712 -1.18003)
(3.84137e-16 0.046619 -1.32046)
(4.03441e-16 0.429823 -1.13781)
(3.94647e-16 0.751322 -1.06508)
(3.37939e-14 1.82244 3.79393)
(1.31081e-14 1.51155 3.50651)
(2.41198e-15 0.158261 3.1358)
(4.16897e-16 -0.957923 2.75184)
(5.50599e-17 -1.62401 2.54244)
(-1.04439e-15 -1.65307 2.34208)
(-1.67468e-15 -1.33541 2.04129)
(-1.63768e-15 -0.672771 1.54667)
(-1.24408e-15 0.305673 0.874416)
(-1.07394e-15 1.23666 0.285356)
(-5.97998e-16 2.53138 -0.154729)
(-6.57012e-17 3.68815 -0.49519)
(-3.0677e-16 3.51601 -0.716435)
(-3.30025e-16 2.33536 -0.876018)
(-3.90385e-17 1.10833 -1.01224)
(2.51746e-16 0.565014 -1.05426)
(4.05683e-16 0.0124888 -1.16474)
(4.02254e-16 0.310759 -1.03745)
(3.84649e-16 0.577918 -1.02723)
(-1.15244e-17 6.5982 11.2182)
(-3.22313e-15 15.7259 27.282)
(-2.57001e-15 17.9304 29.0897)
(-2.82208e-15 16.4084 26.5863)
(-3.05355e-15 15.1636 23.5636)
(-4.1547e-15 14.0561 21.5549)
(-3.86922e-15 13.1655 19.5277)
(-3.55149e-15 12.342 18.1212)
(-3.56253e-15 11.692 16.811)
(-3.73859e-15 10.9282 15.6291)
(-4.0816e-15 10.2556 14.4542)
(-4.48255e-15 9.47082 13.3575)
(-4.98124e-15 8.7795 12.2012)
(-5.5751e-15 7.89422 11.1248)
(-6.32143e-15 7.20951 9.94604)
(-7.238e-15 6.18845 8.94686)
(-8.17144e-15 5.67664 7.84874)
(-1.0236e-14 4.50601 7.10854)
(-1.00133e-14 5.27471 7.62841)
(-6.77562e-15 5.36126 9.86771)
(1.45993e-16 6.18555 9.83509)
(-2.61281e-15 15.5085 26.6184)
(-1.935e-15 17.3348 28.7293)
(-2.33133e-15 15.0426 25.3513)
(-2.59627e-15 13.3452 22.0549)
(-3.96492e-15 12.4259 20.7402)
(-3.10754e-15 11.8183 19.2668)
(-2.97357e-15 10.9183 17.7028)
(-3.27313e-15 10.1657 16.1459)
(-3.52783e-15 9.35374 14.8527)
(-4.09957e-15 8.7386 13.6467)
(-4.33949e-15 7.98412 12.552)
(-4.80862e-15 7.36438 11.3155)
(-5.42951e-15 6.49025 10.1807)
(-6.26983e-15 5.91162 8.90341)
(-7.19342e-15 4.97359 7.91407)
(-8.1809e-15 4.66081 6.83345)
(-1.00239e-14 3.73921 6.19436)
(-9.20487e-15 4.62487 6.76451)
(-6.82949e-15 4.08109 7.27335)
(6.92031e-17 8.28984 13.7024)
(-8.82382e-16 17.4922 29.1167)
(-6.08662e-16 18.4482 30.1919)
(-7.97091e-16 15.8098 26.0476)
(-7.72822e-16 14.1536 23.0287)
(-1.7865e-15 13.8064 22.2315)
(-1.22987e-15 13.3415 21.0542)
(-1.09723e-15 12.3999 19.1551)
(-1.24551e-15 11.3951 17.1715)
(-1.41718e-15 10.4518 15.4745)
(-1.55707e-15 9.643 14.0083)
(-1.69264e-15 8.79814 12.6844)
(-2.00565e-15 7.99163 11.3065)
(-2.36178e-15 7.04947 9.98852)
(-2.76088e-15 6.27366 8.65519)
(-3.32876e-15 5.35552 7.57425)
(-3.71283e-15 4.84948 6.58578)
(-4.76306e-15 3.9895 5.82361)
(-4.88145e-15 4.05127 5.59113)
(-4.36039e-15 2.77548 4.5534)
(-2.01144e-18 11.0453 18.6484)
(2.01857e-16 19.2688 31.5272)
(1.74127e-16 18.2391 29.9526)
(1.94978e-16 15.1149 24.7598)
(2.7035e-16 14.3981 23.6824)
(-7.11907e-16 14.6108 23.47)
(-8.44662e-16 14.0436 22.308)
(-8.9757e-16 12.9046 20.1454)
(-1.06952e-15 11.6233 17.7565)
(-1.20165e-15 10.3652 15.5758)
(-1.33621e-15 9.23741 13.6397)
(-1.55337e-15 8.13495 11.9327)
(-1.90278e-15 7.10647 10.2702)
(-2.31535e-15 6.01645 8.70169)
(-2.79188e-15 5.07329 7.18075)
(-3.43631e-15 4.10583 5.92947)
(-3.86129e-15 3.49027 4.89559)
(-4.85666e-15 2.68415 4.02543)
(-5.17075e-15 2.34537 3.3371)
(-6.54358e-15 0.716828 0.995773)
(1.44994e-18 13.6019 23.9706)
(-4.45866e-17 19.9539 32.8808)
(-4.45794e-17 16.8665 29.002)
(-4.79655e-17 14.0514 23.5452)
(-7.29672e-17 14.6827 25.3191)
(1.74069e-16 14.9754 25.0994)
(2.44851e-16 13.5352 22.8202)
(2.64015e-16 12.131 20.5866)
(2.98936e-16 10.5613 17.8916)
(3.41144e-16 8.82922 15.2845)
(3.79975e-16 7.3769 12.9791)
(4.18646e-16 6.03846 11.1039)
(5.02571e-16 4.9166 9.38089)
(5.91741e-16 3.80166 7.83678)
(7.00813e-16 2.8885 6.38493)
(8.17036e-16 2.04329 5.22537)
(9.14582e-16 1.56294 4.30837)
(1.25695e-15 1.03671 3.54761)
(1.18883e-15 0.971318 2.63972)
(6.4387e-16 0.279803 1.2753)
(-3.75824e-19 14.1804 25.6749)
(1.05465e-17 18.9931 31.7025)
(1.0992e-17 15.5212 27.9591)
(1.20618e-17 13.3399 22.6166)
(1.6897e-17 14.1621 25.3606)
(-4.56474e-17 14.091 24.7507)
(-6.66312e-17 11.6218 20.8723)
(-7.08559e-17 10.2273 19.082)
(-8.01318e-17 8.29605 15.8747)
(-9.09909e-17 6.18201 12.9505)
(-1.00437e-16 4.67659 10.6402)
(-1.13336e-16 3.33431 8.95661)
(-1.31851e-16 2.2625 7.4962)
(-1.50737e-16 1.24934 6.27994)
(-1.70108e-16 0.478129 5.27532)
(-1.92977e-16 0.00192915 4.70989)
(-2.2469e-16 0.172861 4.81826)
(-2.47828e-16 1.26811 6.12391)
(-2.01889e-16 3.69233 8.46644)
(-1.01781e-16 4.17235 8.06288)
(6.2363e-20 13.792 25.1966)
(-2.54032e-18 18.4805 30.8577)
(-2.69046e-18 15.4555 28.16)
(-3.0786e-18 13.1689 22.0267)
(-3.1447e-18 13.4755 24.0554)
(1.18659e-17 13.6509 24.2298)
(1.71519e-17 10.5619 18.6374)
(1.76635e-17 9.23154 17.3271)
(1.97009e-17 7.42682 13.8364)
(2.21845e-17 5.44866 11.0199)
(2.50632e-17 4.24364 8.62771)
(2.89562e-17 2.97552 6.75755)
(3.39185e-17 2.03097 5.15442)
(3.94017e-17 1.20698 4.1059)
(4.45341e-17 0.847701 3.79097)
(4.6774e-17 1.26837 4.87542)
(4.35757e-17 3.16655 8.10509)
(3.59894e-17 6.37015 13.4513)
(2.74933e-17 9.76822 17.8016)
(1.59239e-17 7.63229 14.0971)
(-1.67494e-20 13.691 25.0365)
(6.08924e-19 18.5454 30.5713)
(6.43644e-19 15.5628 28.5147)
(7.21353e-19 13.3829 21.9193)
(7.22605e-19 13.3605 23.2694)
(-2.80589e-18 13.9735 24.7789)
(-4.08053e-18 10.6657 17.6534)
(-4.05599e-18 9.32805 16.9856)
(-4.34688e-18 8.50614 14.1915)
(-4.71417e-18 7.02095 12.3164)
(-5.20832e-18 6.38454 10.0796)
(-5.96758e-18 5.12966 7.89295)
(-7.25483e-18 4.15288 5.50128)
(-9.2575e-18 3.11323 3.54508)
(-1.1368e-17 2.65767 2.42858)
(-1.20611e-17 2.93486 3.21978)
(-1.15875e-17 4.86966 6.49913)
(-1.06715e-17 7.41192 12.1361)
(-6.45849e-18 10.3526 16.8088)
(-2.49958e-18 8.40511 15.5054)
(4.45356e-21 13.9701 25.3819)
(-1.45946e-19 18.4237 30.2378)
(-1.53893e-19 15.3855 28.513)
(-1.69119e-19 13.6714 22.2331)
(-1.60501e-19 13.2906 23.0538)
(6.79043e-19 13.5957 24.5709)
(9.43175e-19 10.7396 17.5877)
(9.21914e-19 9.35495 17.1918)
(9.50611e-19 9.24543 15.4372)
(1.00886e-18 8.08511 14.2329)
(1.08901e-18 7.60588 12.5129)
(1.23991e-18 6.53531 10.6657)
(1.5247e-18 5.6231 8.47094)
(1.93732e-18 4.51206 6.2374)
(2.1659e-18 3.66283 4.15801)
(1.43834e-18 3.07235 3.09613)
(-7.34478e-19 3.75622 3.94096)
(-2.29468e-18 5.44116 7.80333)
(-3.67009e-19 8.12159 12.3241)
(7.10267e-19 7.04609 12.5145)
(-1.16894e-21 14.3601 25.7744)
(3.46125e-20 18.2397 29.8779)
(3.65976e-20 15.2258 28.3783)
(3.94359e-20 14.0511 22.6304)
(3.77811e-20 13.2372 22.7387)
(-1.57557e-19 13.2533 23.8723)
(-2.12151e-19 10.9416 17.8998)
(-2.11275e-19 9.54489 16.9869)
(-2.14512e-19 9.34435 15.6898)
(-2.31986e-19 8.37195 14.3828)
(-2.61339e-19 7.65238 12.9118)
(-3.08461e-19 6.73064 11.2675)
(-3.1988e-19 5.80327 9.48938)
(-2.21337e-19 4.77627 7.57)
(-1.38043e-19 3.91031 5.68157)
(-4.17129e-19 3.27412 4.46869)
(-1.09021e-18 3.67903 4.63659)
(-1.1237e-18 5.02756 7.22596)
(6.23964e-20 6.72155 9.96043)
(4.15829e-19 5.06908 8.64549)
(3.10931e-22 14.8569 26.4324)
(-8.03549e-21 18.1666 29.8186)
(-8.74419e-21 15.2264 28.1147)
(-8.76326e-21 14.5719 23.6262)
(-8.08449e-21 13.3954 22.9072)
(3.85105e-20 13.16 23.0018)
(4.68244e-20 11.2911 18.8407)
(4.7747e-20 10.211 17.1528)
(4.85235e-20 9.58771 16.0987)
(5.37733e-20 8.9938 14.635)
(5.84611e-20 8.11298 13.2684)
(5.35894e-20 7.37662 11.6463)
(3.85447e-20 6.47247 10.0352)
(8.87431e-20 5.60261 8.31233)
(2.81272e-19 4.80801 6.64947)
(4.30061e-19 4.30594 5.58793)
(3.20714e-19 4.54123 5.57439)
(2.85051e-19 5.08319 6.7254)
(4.6472e-19 5.02742 6.93542)
(3.41152e-19 2.75784 4.31876)
(-8.01086e-23 15.2789 27.3086)
(1.85087e-21 18.1603 30.0186)
(2.06046e-21 15.485 27.466)
(2.07166e-21 14.8335 24.7435)
(2.47717e-21 13.6747 23.6822)
(-6.19457e-21 13.4221 22.0895)
(-1.04187e-20 11.5145 20.0359)
(-1.13211e-20 11.1645 18.0298)
(-1.15659e-20 10.1573 16.9798)
(-1.20554e-20 9.78824 15.4972)
(-1.23078e-20 8.90514 14.1939)
(-1.41389e-20 8.28639 12.6275)
(-2.62098e-20 7.45627 11.1104)
(-5.24578e-20 6.74694 9.55245)
(-5.98864e-20 6.05887 8.14879)
(-2.05211e-20 5.50703 6.97309)
(6.09488e-20 4.89895 5.85305)
(1.84732e-19 3.94269 4.49806)
(3.21694e-19 2.25025 2.42355)
(2.31659e-19 0.1132 -0.600265)
(2e-23 15.5843 28.3855)
(-4.21729e-22 18.6174 30.1494)
(-4.70826e-22 15.4834 28.0515)
(-4.80644e-22 15.7561 25.515)
(-6.1784e-22 13.7564 24.056)
(1.16575e-21 13.4895 21.9446)
(2.49479e-21 12.043 20.6327)
(2.91754e-21 11.8007 19.0133)
(2.96453e-21 10.7856 17.8657)
(2.85753e-21 10.3614 16.4547)
(2.77996e-21 9.50187 15.1749)
(4.29289e-21 8.86415 13.7034)
(9.05465e-21 8.00983 12.2071)
(1.47114e-20 7.18675 10.5373)
(1.44969e-20 6.17347 8.75727)
(3.00177e-21 5.09114 6.85729)
(-2.57052e-20 3.6217 4.61986)
(-1.90761e-19 1.84369 1.73417)
(-3.13179e-19 -0.35514 -0.80535)
(-8.74107e-19 -1.72671 -4.20436)
(-4.62689e-24 15.998 29.5964)
(9.67299e-23 18.8467 30.1751)
(1.06567e-22 15.4242 28.4414)
(1.16077e-22 15.9945 25.7765)
(1.64814e-22 13.878 24.7423)
(-2.21337e-22 13.77 22.5173)
(-5.93325e-22 12.2913 21.2015)
(-7.48273e-22 12.0208 19.5388)
(-8.96533e-22 10.9563 18.2571)
(-1.04938e-21 10.408 16.7533)
(-1.31657e-21 9.57017 15.3952)
(-1.43326e-21 8.88378 13.9345)
(8.5585e-23 8.01362 12.4194)
(5.07784e-21 7.01637 10.5868)
(1.39296e-20 5.597 8.29665)
(2.04842e-20 4.08154 5.73319)
(8.50914e-21 2.14395 2.75724)
(-2.85541e-19 0.00313131 -0.842879)
(-7.91701e-19 -0.950453 -1.93859)
(-1.24725e-18 -2.52977 -5.26594)
(1.05067e-24 16.3236 30.8503)
(-2.26845e-23 18.9424 29.9262)
(-2.46873e-23 15.3414 28.7959)
(-1.86529e-23 16.2819 26.1455)
(-9.23307e-24 13.9594 25.2588)
(7.3266e-23 14.0842 23.2451)
(5.63453e-23 12.7072 22.0538)
(-1.69228e-22 12.2817 20.5052)
(-4.39072e-22 11.4385 19.2224)
(-3.37477e-22 10.8367 17.8892)
(7.71709e-22 10.1291 16.5356)
(3.2649e-21 9.31444 14.9568)
(6.98781e-21 8.1954 12.9613)
(1.01172e-20 6.66022 10.4249)
(1.21658e-20 4.96904 7.86094)
(1.90016e-20 3.20198 5.22425)
(1.26805e-20 1.28412 2.37108)
(-6.27762e-20 -0.381275 -0.316813)
(-8.71476e-19 -2.36737 -3.31542)
(-1.21136e-18 -2.81052 -5.42331)
(-2.78098e-25 16.2495 31.4748)
(4.51274e-24 18.565 29.1244)
(6.50846e-24 14.9278 28.6276)
(1.96854e-23 15.9434 26.0012)
(3.89903e-23 13.5492 25.1538)
(-1.8488e-23 13.5712 23.1952)
(-2.33815e-22 12.1492 22.0794)
(-5.97544e-22 11.6609 20.5916)
(-8.10365e-22 10.7186 19.4183)
(-2.15536e-22 10.0434 18.1051)
(1.91251e-21 9.13205 16.6984)
(5.91932e-21 7.99619 14.7721)
(1.16194e-20 6.26212 11.9521)
(1.9503e-20 3.89202 8.09096)
(3.13208e-20 1.46726 4.22196)
(3.70557e-20 -0.155003 1.66161)
(-3.0317e-20 -1.09718 -0.0380323)
(-2.82741e-19 -1.84139 -1.63902)
(-7.07001e-19 -2.71395 -3.30749)
(-7.71168e-19 -2.03543 -3.05589)
(-4.88204e-26 15.4735 30.8257)
(-1.92937e-24 18.1271 28.1291)
(7.34503e-25 14.2255 27.7841)
(1.43626e-23 15.1996 25.1973)
(2.48825e-23 12.9632 24.2782)
(-3.23523e-23 12.7302 22.4551)
(-2.5447e-22 11.4845 21.2423)
(-6.08701e-22 10.8249 19.8333)
(-7.59421e-22 9.94217 18.6046)
(-1.051e-22 9.16936 17.3016)
(1.89783e-21 8.23836 15.8343)
(5.26349e-21 7.06132 13.8705)
(9.34034e-21 5.47256 11.1483)
(1.38851e-20 3.68916 7.89896)
(1.95857e-20 2.4125 5.26376)
(2.11287e-20 2.08136 4.09815)
(-6.7259e-22 2.06071 3.39604)
(-6.99086e-20 2.09025 2.49312)
(-4.24183e-19 -0.196171 -0.639477)
(-5.18174e-19 0.115741 1.18214)
(-1.0529e-25 14.1787 30.3307)
(-2.22725e-25 17.8998 27.2979)
(2.78094e-24 13.2749 27.2139)
(1.47613e-23 14.2192 24.8064)
(1.95546e-23 12.1198 23.8551)
(-4.3479e-23 11.6681 22.2291)
(-2.44536e-22 10.5477 21.0039)
(-5.59834e-22 9.81586 19.6761)
(-7.79471e-22 8.99639 18.4569)
(-5.65467e-22 8.26101 17.2105)
(3.27245e-22 7.48384 15.8878)
(1.78758e-21 6.64927 14.3532)
(3.22384e-21 5.7598 12.5644)
(3.74093e-21 4.94865 10.65)
(2.63251e-21 4.32202 8.80386)
(-1.65789e-22 3.70694 6.95168)
(-3.78798e-21 2.64282 4.57452)
(-1.91616e-21 0.822448 0.839513)
(-1.14527e-19 -0.792725 -2.41726)
(-2.81279e-19 -1.14674 -2.59218)
(-7.29296e-26 11.232 28.4636)
(-3.54321e-25 16.9777 24.8626)
(1.25139e-24 11.971 25.2779)
(8.10348e-24 12.6603 23.5247)
(1.32893e-23 10.9154 22.7634)
(-1.6838e-23 10.2667 21.6465)
(-1.36699e-22 9.27846 20.7112)
(-3.76053e-22 8.51661 19.7447)
(-6.88517e-22 7.76012 18.8269)
(-9.5409e-22 7.09281 17.9268)
(-1.04973e-21 6.48509 17.0561)
(-9.36729e-22 5.95062 16.1956)
(-7.01356e-22 5.46651 15.2894)
(-5.37234e-22 4.98682 14.226)
(-7.14373e-22 4.43932 12.8697)
(-1.85538e-21 3.70364 11.0607)
(-6.35452e-21 2.61962 8.52115)
(-2.0541e-20 1.12819 4.84745)
(-5.06136e-20 -0.654639 0.256873)
(-7.92982e-20 -1.4635 -2.81857)
(-3.1385e-26 2.65079 17.0556)
(-2.92474e-26 8.07263 13.6782)
(5.44895e-25 5.18241 14.5454)
(2.54938e-24 5.01115 14.141)
(4.66116e-24 4.08977 14.0992)
(-1.36504e-24 3.53522 13.9205)
(-3.31047e-23 2.97084 13.7612)
(-1.09909e-22 2.51641 13.5737)
(-2.3573e-22 2.12817 13.3745)
(-3.85779e-22 1.81624 13.1574)
(-5.11759e-22 1.57086 12.9172)
(-5.63495e-22 1.38772 12.6454)
(-5.07565e-22 1.2638 12.3397)
(-3.3196e-22 1.2133 12.0016)
(-4.49587e-23 1.26366 11.63)
(3.33263e-22 1.39065 11.2424)
(7.978e-22 1.61797 10.7908)
(1.31127e-21 2.24555 9.93449)
(1.52786e-21 2.4864 8.56472)
(8.16753e-22 -0.214993 6.47229)
(2.38603e-26 -2.63131 17.0269)
(-1.00482e-25 -8.06926 13.6386)
(-8.31637e-25 -5.18143 14.5036)
(-1.78158e-24 -5.01893 14.0927)
(1.60108e-24 -4.10279 14.0451)
(1.85309e-23 -3.55432 13.86)
(5.00988e-23 -2.99502 13.6938)
(6.24891e-23 -2.54575 13.5002)
(-2.38088e-23 -2.16343 13.2981)
(-2.83737e-22 -1.86003 13.0855)
(-6.82078e-22 -1.6279 12.8611)
(-1.01057e-21 -1.46371 12.617)
(-9.89672e-22 -1.3621 12.3443)
(-5.33364e-22 -1.33092 12.0302)
(4.09261e-23 -1.38889 11.6544)
(1.99182e-22 -1.5059 11.2182)
(-1.93198e-22 -1.69571 10.6834)
(-5.48799e-22 -2.20501 9.78)
(-2.81127e-22 -2.24977 8.43564)
(9.56908e-23 0.287177 6.16528)
(7.16224e-26 -11.2016 28.3465)
(4.11447e-26 -16.891 24.768)
(-2.0955e-24 -11.9101 25.1842)
(-5.76551e-24 -12.5719 23.4462)
(3.45919e-24 -10.8192 22.6952)
(5.14033e-23 -10.1491 21.5913)
(1.38494e-22 -9.13872 20.6715)
(2.01327e-22 -8.35108 19.725)
(1.48146e-22 -7.56558 18.8329)
(-6.76052e-24 -6.8626 17.957)
(-1.5957e-23 -6.20675 17.0956)
(4.82002e-22 -5.61029 16.2157)
(1.39809e-21 -5.06433 15.256)
(1.73419e-21 -4.55895 14.1092)
(7.14849e-22 -4.08761 12.6824)
(-5.54994e-23 -3.6428 10.9886)
(1.93756e-21 -3.18877 9.09087)
(4.31679e-21 -2.6628 6.72661)
(-2.86738e-21 -1.60062 2.98826)
(-2.79952e-20 0.831738 -2.18788)
(1.27134e-25 -14.2605 30.4048)
(-2.30603e-25 -17.8518 27.4935)
(-4.45535e-24 -13.3193 27.3864)
(-1.13378e-23 -14.1499 25.0734)
(6.69164e-24 -12.0848 24.1498)
(8.75697e-23 -11.582 22.6003)
(1.98086e-22 -10.4609 21.4359)
(2.08093e-22 -9.70665 20.1919)
(1.32745e-22 -8.87708 19.0542)
(5.33068e-22 -8.11586 17.8808)
(2.09831e-21 -7.28043 16.5723)
(3.57465e-21 -6.28781 14.8884)
(7.18771e-22 -5.02277 12.5816)