/*--------------------------------*- C++ -*----------------------------------*\
| =========                 |                                                 |
| \\      /  F ield         | OpenFOAM: The Open Source CFD Toolbox           |
|  \\    /   O peration     | Version:  4.1                                   |
|   \\  /    A nd           | Web:      www.OpenFOAM.org                      |
|    \\/     M anipulation  |                                                 |
\*---------------------------------------------------------------------------*/
FoamFile
{
    version     2.0;
    format      ascii;
    class       volScalarField;
    location    "8";
    object      p;
}
// * * * * * * * * * * * * * * * * * * * * * * * * * * * * * * * * * * * * * //

dimensions      [0 2 -2 0 0 0 0];

internalField   nonuniform List<scalar> 
1280
(
-0.176815
-0.529309
-0.431921
-0.8314
-1.00249
-1.23569
-1.75123
-2.07682
-2.22504
-2.72802
-3.79952
-3.92135
-4.78322
-6.57369
-6.75592
-8.70023
-11.8365
-12.1887
-17.1189
-23.4243
-22.5414
-5.8713
17.7761
25.6742
26.153
29.2463
10.3189
11.9322
13.3987
13.2527
12.7119
12.0854
11.1168
9.82186
8.31371
6.46179
4.52416
1.91263
-0.24702
-4.84516
-15.8268
-4.38051
0.970474
5.87856
18.3048
16.8217
17.0686
17.3512
17.6313
17.4385
17.4135
17.5704
17.2621
16.8802
16.6017
18.2804
5.43875
0.477483
-5.08457
-17.4823
-5.50445
-0.659437
1.67336
4.49675
6.63026
8.68085
10.3811
11.8683
13.025
13.8072
14.5303
14.9416
13.3807
10.5608
30.8368
28.0699
27.9854
20.5466
-3.1881
-20.2844
-21.5326
-14.8672
-8.03677
-8.00358
-4.98979
-2.28249
-2.59924
-1.32192
-0.23945
-0.424016
0.0121599
0.418446
0.415533
0.37583
0.446541
0.401474
0.398699
0.400501
0.330123
0.157429
0.116181
-0.733921
-0.816748
-0.789199
-0.287336
0.989954
2.36352
0.290811
0.222318
-0.738439
-3.58818
-6.98452
-6.61337
-1.6113
0.472175
1.0865
0.882031
0.457359
0.382983
0.42326
-1.13404
-1.04149
-0.946143
0.0561571
2.24963
4.9307
2.0157
1.27194
-1.34553
-8.87735
-11.8531
-12.0276
-2.89237
0.830768
2.27277
1.98272
1.04297
0.929267
0.60953
-1.53237
-1.20326
-1.10342
0.148746
2.38706
5.1152
3.08453
1.54054
-2.42174
-12.941
-13.7873
-15.2228
-2.98748
1.54832
3.43086
2.94554
1.46377
1.29993
0.867268
-2.07833
-1.65333
-1.58768
0.0527901
2.51529
5.10807
4.10034
2.05031
-2.56754
-13.7148
-15.2742
-17.956
-3.54415
2.36826
4.79677
4.02265
2.08632
1.695
0.969374
-2.44883
-2.31241
-2.22487
-0.126959
2.44042
4.79224
4.56273
2.4014
-2.27361
-13.0826
-17.6381
-19.4792
-4.01726
3.44822
6.2217
4.92468
2.35376
1.82352
0.81997
-2.89389
-4.04772
-3.25312
-0.485514
2.18906
4.4136
5.03329
2.89938
-1.4994
-11.5799
-20.4725
-19.1172
-4.27261
4.75619
7.76575
5.98063
3.39931
1.25262
0.446706
-3.65533
-6.06806
-4.79515
-1.07808
1.97352
4.19578
5.61572
3.43777
-0.740103
-9.68122
-21.0952
-16.2094
-4.16265
6.26592
9.30414
6.20726
2.6939
-0.181132
0.0549897
-4.76331
-7.38328
-6.75028
-1.91266
2.1679
4.63475
6.68768
4.07068
-0.439234
-8.02439
-18.6901
-13.5021
-3.22086
7.31141
10.0883
8.25454
4.99055
2.50326
-0.316334
-5.42965
-8.15594
-8.77771
-3.03026
2.79868
5.97728
7.81609
4.56018
-1.2431
-7.69322
-14.5191
-10.6318
-1.88084
8.68593
10.0016
7.09312
13.9563
32.535
-0.540278
-4.8306
-8.5991
-10.1003
-4.04671
3.83422
8.04296
8.48169
4.53318
-3.46301
-9.31957
-10.3727
-2.70844
3.81643
6.95725
4.92196
6.44973
23.5702
29.2268
-0.677531
-3.16254
-8.01413
-10.1353
-4.86652
4.77711
10.0421
8.68879
3.35661
-7.48437
-13.3921
-8.31817
3.81639
9.9159
7.62768
1.91455
4.87469
24.4462
28.7408
-0.568606
-1.28117
-5.96744
-8.58172
-4.44127
5.61888
10.8123
7.51356
-0.329691
-12.0569
-15.9999
-4.0553
11.4351
16.2301
7.42774
-3.84791
-4.11961
11.3452
31.1236
-0.274975
-0.250648
-4.13614
-6.63065
-2.61307
7.21604
12.0343
7.31199
-2.694
-12.1471
-15.3472
-1.44713
11.0266
15.1799
3.85841
-10.8095
-11.3949
-1.91801
2.14142
0.155363
0.0369195
-3.42728
-6.43773
-2.89194
6.62043
12.305
8.25031
-2.34883
-10.8584
-13.2546
-0.0674084
8.14602
10.9906
0.245496
-13.6464
-13.488
-6.22058
0.0112668
0.587514
-0.169613
-3.59215
-6.75831
-3.40987
5.52349
10.455
7.43335
-0.860756
-8.24607
-7.91765
0.864088
5.0376
7.23227
-1.05932
-12.2212
-12.0978
-4.97004
0.342155
0.875419
-0.570278
-3.91029
-6.21697
-4.28081
3.76259
8.24652
6.20131
0.426397
-3.08971
-3.12811
1.08527
3.25232
3.56499
-0.899997
-8.31558
-8.94399
-4.53113
-0.719853
1.10191
-0.789322
-3.90185
-5.00069
-4.53256
2.74274
6.23734
4.58097
0.73805
-0.623748
-1.24085
0.85007
2.62001
2.2136
-0.195209
-4.33179
-5.02215
-2.97374
-0.702648
1.10275
-1.01453
-3.74231
-4.11295
-3.96567
1.90442
4.49893
2.85481
0.596231
0.22291
-0.315683
0.986
2.46881
2.01587
0.184793
-2.16689
-2.87224
-2.1007
-0.770663
1.25653
-0.578703
-2.56285
-3.67523
-3.41487
1.14323
3.19602
1.70021
0.394151
0.345501
-0.145003
0.850992
2.01539
1.27285
0.200169
-0.945545
-1.49123
-1.36397
-0.578432
0.495001
-0.708765
-1.23844
-2.62256
-2.43165
0.242703
1.53298
0.882675
0.192341
0.170063
-0.127128
0.344432
0.987874
0.309508
1.87302e-05
-0.275585
-0.489128
-0.591377
-0.39388
55.9247
56.8725
55.5463
54.787
52.8775
50.9635
48.6287
46.1849
43.7557
41.5442
39.5305
37.7397
36.1964
34.9115
33.8791
33.1057
32.5682
32.2677
32.1623
32.1308
10.1895
12.9661
13.1901
14.2984
15.1135
16.025
16.8659
17.5618
18.1699
18.661
19.0811
19.4442
19.7606
20.0612
20.3373
20.6381
20.9075
21.2729
21.5018
21.976
-1.98929
0.612435
2.47136
4.39312
6.01911
7.38207
8.7662
10.0071
11.2133
12.3545
13.4383
14.4762
15.4576
16.399
17.2722
18.1177
18.8611
19.6242
20.1428
20.9035
-36.1013
-32.9728
-30.3302
-28.1853
-25.8723
-23.9936
-21.9496
-20.0623
-18.1617
-16.2679
-14.3504
-12.3757
-10.34
-8.21569
-6.0431
-3.78854
-1.62655
0.495628
2.22369
4.65235
-63.6841
-63.6795
-63.0654
-63.5525
-63.0851
-63.3542
-63.2272
-63.331
-63.2889
-63.2026
-62.9737
-62.5513
-61.8538
-60.7416
-59.0492
-56.5764
-53.445
-49.67
-46.9789
-42.9977
-67.3525
-73.4065
-74.7634
-78.3098
-80.4686
-83.5773
-85.8608
-88.16
-89.8434
-91.2184
-92.1645
-92.7773
-93.0817
-93.1276
-92.9771
-92.9516
-92.8043
-91.7015
-90.1419
-86.0997
-8.87253
-17.395
-20.8962
-27.2035
-32.0071
-38.159
-43.6998
-49.4709
-54.5936
-59.3332
-63.2828
-66.4177
-68.514
-69.4579
-69.2388
-68.484
-67.7083
-66.4386
-66.8213
-67.9582
72.7965
68.7864
67.1729
64.0285
61.9494
59.0489
56.6488
53.8348
51.1595
48.2185
45.1553
41.7935
38.1925
34.5247
31.1557
28.2431
26.5511
27.3858
28.0384
22.9002
84.7224
85.6091
85.9733
85.7362
86.0628
85.2188
84.5459
82.827
80.7821
78.0143
74.8336
71.2517
67.4514
63.6159
60.1282
57.4532
55.8475
55.0165
55.2916
53.4169
65.9301
68.3212
70.1482
71.2097
73.4868
74.6989
76.7394
78.1278
79.5156
80.3276
80.568
80.0417
78.7308
76.801
74.7824
73.3582
73.3452
74.2222
75.2118
75.0456
45.7633
47.6585
49.5186
49.8747
52.077
52.6312
54.3046
55.3666
56.7101
58.006
59.3374
60.6979
62.0502
63.379
64.6805
66.01
67.3407
68.8636
69.9929
71.4109
20.4748
22.2094
24.7037
24.8912
27.7681
28.3485
30.5289
31.7895
33.4714
34.9908
36.5364
38.0823
39.6219
41.1851
42.7468
44.3787
45.9585
47.7422
49.0758
50.9768
-6.83792
-6.27818
-3.34018
-3.92625
-0.706597
-0.653675
1.77068
2.84548
4.73787
6.38174
8.20832
10.0955
12.0614
14.1388
16.2657
18.519
20.7068
23.1415
25.0469
28.1164
-31.5486
-33.3768
-31.0775
-33.4232
-31.3515
-33.2172
-32.2211
-33.1973
-33.0494
-33.4905
-33.6087
-33.6432
-33.2874
-32.3959
-31.0114
-29.101
-26.9614
-24.2344
-22.3242
-18.815
-24.7874
-28.6099
-27.2533
-30.8986
-30.0998
-33.1023
-33.4756
-35.7727
-37.0994
-39.1578
-40.9933
-42.9343
-44.6313
-46.0725
-47.2247
-48.1607
-48.7362
-48.6462
-48.4562
-46.3271
6.35364
1.62257
2.99085
-1.87324
-1.04276
-4.431
-4.9284
-7.04615
-8.17577
-9.70752
-10.903
-12.0765
-13.0417
-13.9054
-14.7032
-15.7522
-17.331
-18.891
-21.1498
-21.4928
45.3848
41.1246
43.8536
37.5834
38.5307
34.5693
33.4683
31.0141
29.3903
27.6066
26.1403
24.8398
23.7958
22.9568
22.2572
21.6144
20.9696
19.8051
18.128
16.2141
30.6123
24.5776
33.4614
27.2908
30.2173
27.7475
27.476
25.9262
24.7315
23.2845
21.9293
20.6385
19.5281
18.6277
17.9901
17.6352
17.4787
17.7438
18.2904
19.2516
37.1677
14.9738
23.1413
12.2725
9.63553
3.15353
-1.66421
-6.80275
-11.2719
-15.2897
-18.626
-21.2174
-22.9543
-23.747
-23.4234
-22.0392
-19.8703
-16.4081
-12.2854
-9.55091
726.793
643.99
594.893
538.709
489.806
442.683
398.94
357.699
318.96
282.43
247.925
215.237
184.153
154.575
126.477
99.0591
72.5019
50.8486
26.618
-8.71243
726.784
643.98
594.882
538.697
489.793
442.67
398.926
357.685
318.946
282.415
247.91
215.223
184.14
154.564
126.467
99.0498
72.4938
50.8436
26.6163
-8.71541
37.1542
14.9585
23.1244
12.254
9.61532
3.13175
-1.68743
-6.8272
-11.2974
-15.3159
-18.6527
-21.2444
-22.9815
-23.7742
-23.4507
-22.0664
-19.8971
-16.4354
-12.3155
-9.58071
30.6001
24.5636
33.445
27.2726
30.197
27.7256
27.4525
25.9014
24.7055
23.2576
21.9018
20.6105
19.4999
18.5994
17.962
17.6079
17.4526
17.7198
18.2694
19.2378
45.3921
41.1327
43.8608
37.5908
38.5382
34.5775
33.4774
31.0244
29.4021
27.62
26.1555
24.8569
23.8148
22.9775
22.2797
21.6391
20.9962
19.8322
18.1588
16.2499
6.41138
1.68429
3.05389
-1.80748
-0.973337
-4.35747
-4.84991
-6.96198
-8.08543
-9.61035
-10.7989
-11.9656
-12.9252
-13.7849
-14.5802
-15.6274
-17.2079
-18.7785
-21.0518
-21.4123
-24.7592
-28.5828
-27.2286
-30.877
-30.082
-33.0885
-33.466
-35.7682
-37.101
-39.1669
-41.0106
-42.9612
-44.6689
-46.1219
-47.2848
-48.2315
-48.818
-48.7354
-48.5524
-46.4277
-31.617
-33.4509
-31.1572
-33.5075
-31.4425
-33.3139
-32.3242
-33.3071
-33.1656
-33.6135
-33.7376
-33.7776
-33.4257
-32.5378
-31.1562
-29.2488
-27.112
-24.3928
-22.4887
-18.9851
-6.98421
-6.43003
-3.49518
-4.08477
-0.868635
-0.819955
1.60123
2.6715
4.56043
6.20005
8.02278
9.90592
11.868
13.9415
16.0646
18.3139
20.4982
22.9295
24.833
27.9004
20.3041
22.0322
24.5234
24.7071
27.5808
28.1569
30.3346
31.5911
33.2703
34.7864
36.3293
37.8724
39.4094
40.9696
42.5281
44.1565
45.7324
47.5125
48.8432
50.7422
45.5288
47.4243
49.2866
49.6437
51.8483
52.4042
54.0805
55.145
56.4915
57.7901
59.1233
60.4847
61.8358
63.1636
64.4634
65.7931
67.126
68.6538
69.7884
71.2128
65.8243
68.2121
70.0381
71.0948
73.3686
74.5739
76.6066
77.9864
79.3653
80.1693
80.4048
79.8761
78.5726
76.6612
74.6754
73.3011
73.3296
74.2318
75.2279
75.0737
84.4167
85.3079
85.6697
85.4339
85.7627
84.9254
84.2635
82.5634
80.5444
77.8124
74.6779
71.1526
67.4177
63.6498
60.2305
57.6155
56.0528
55.2348
55.5047
53.6388
72.9328
68.9555
67.3583
64.2425
62.1904
59.3206
56.9508
54.1658
51.5145
48.5898
45.5306
42.1565
38.525
34.8144
31.3983
28.4388
26.7056
27.5087
28.1568
23.0192
-8.71691
-17.2262
-20.7158
-27.0086
-31.799
-37.9346
-43.458
-49.2104
-54.3147
-59.0346
-62.9628
-66.0737
-68.1435
-69.0523
-68.7973
-68.0279
-67.2832
-66.0575
-66.4643
-67.6547
-67.3187
-73.3899
-74.7474
-78.3021
-80.4736
-83.5966
-85.9003
-88.2262
-89.9454
-91.3641
-92.3613
-93.0316
-93.3993
-93.507
-93.4261
-93.4967
-93.4347
-92.3653
-90.8213
-86.7988
-64.1695
-64.2033
-63.6149
-64.1354
-63.7031
-64.0112
-63.9245
-64.0701
-64.0688
-64.0213
-63.8267
-63.4324
-62.7546
-61.6462
-59.9422
-57.4656
-54.3292
-50.5775
-47.9095
-43.942
-36.7881
-33.6786
-31.0435
-28.9107
-26.6075
-24.7384
-22.7024
-20.8219
-18.9261
-17.0349
-15.1178
-13.1414
-11.1021
-8.97233
-6.79279
-4.53118
-2.36341
-0.2362
1.49843
3.94274
-2.78912
-0.1832
1.69686
3.63123
5.27063
6.64527
8.04103
9.29237
10.5088
11.6595
12.752
13.798
14.7867
15.7349
16.6146
17.4668
18.2165
18.9886
19.5132
20.2894
9.64072
12.4173
12.6674
13.795
14.6252
15.5466
16.3945
17.0978
17.7131
18.2118
18.6396
19.0104
19.335
19.6443
19.9296
20.2413
20.5205
20.8999
21.1392
21.627
55.1577
56.1589
54.8799
54.1609
52.2801
50.3986
48.0868
45.6703
43.29
41.1235
39.1473
37.3909
35.8773
34.6166
33.6025
32.8431
32.3123
32.0159
31.9093
31.8689
)
;

boundaryField
{
    outletWall
    {
        type            fixedValue;
        value           uniform 0;
    }
    fineWalls
    {
        type            zeroGradient;
    }
    fineFrontAndBack
    {
        type            zeroGradient;
    }
    fineplugLeft
    {
        type            cyclicAMI;
        value           nonuniform List<scalar> 
20
(
24.7356
25.6804
26.1967
26.9594
27.7769
28.766
29.8936
31.1804
32.6089
34.1668
35.8859
37.6843
39.3344
44.2726
46.62
47.5326
48.9644
47.9923
44.3237
40.2315
)
;
    }
    fineplugRight
    {
        type            cyclicAMI;
        value           nonuniform List<scalar> 
20
(
24.3942
25.3956
25.9474
26.7492
27.6006
28.6181
29.7695
31.0755
32.5177
34.0793
35.8048
37.6203
39.2123
43.8198
46.4862
47.4381
48.9258
48.0132
44.2895
40.0693
)
;
    }
    inletOutletLeft
    {
        type            cyclicAMI;
        value           nonuniform List<scalar> 
20
(
24.7356
25.6804
26.1967
26.9594
27.7769
28.766
29.8936
31.1804
32.6089
34.1668
35.8859
37.6843
39.3344
44.2726
46.62
47.5326
48.9644
47.9923
44.3237
40.2315
)
;
    }
    inletLeft
    {
        type            zeroGradient;
    }
    inletWallsLeft
    {
        type            zeroGradient;
    }
    inletFacesLeft
    {
        type            zeroGradient;
    }
    inletOutletRight
    {
        type            cyclicAMI;
        value           nonuniform List<scalar> 
20
(
24.3942
25.3956
25.9474
26.7492
27.6006
28.6181
29.7695
31.0755
32.5177
34.0793
35.8048
37.6203
39.2123
43.8198
46.4862
47.4381
48.9258
48.0132
44.2895
40.0693
)
;
    }
    inletRight
    {
        type            zeroGradient;
    }
    inletWallsRight
    {
        type            zeroGradient;
    }
    inletFacesRight
    {
        type            zeroGradient;
    }
}


// ************************************************************************* //
