/*--------------------------------*- C++ -*----------------------------------*\
| =========                 |                                                 |
| \\      /  F ield         | OpenFOAM: The Open Source CFD Toolbox           |
|  \\    /   O peration     | Version:  4.1                                   |
|   \\  /    A nd           | Web:      www.OpenFOAM.org                      |
|    \\/     M anipulation  |                                                 |
\*---------------------------------------------------------------------------*/
FoamFile
{
    version     2.0;
    format      ascii;
    class       surfaceScalarField;
    location    "8";
    object      phi;
}
// * * * * * * * * * * * * * * * * * * * * * * * * * * * * * * * * * * * * * //

dimensions      [0 3 -1 0 0 0 0];

internalField   nonuniform List<scalar> 
2360
(
1416.98
2409.55
-992.567
2409.55
2409.55
3310.76
-901.21
3310.76
3310.76
3310.76
4451.99
-1141.23
4451.99
4451.99
5998.63
-1546.64
5998.63
5998.63
8282.06
-2283.43
8282.06
8282.06
12388.9
-4106.83
12388.9
12388.9
12926.5
14563.6
16373.1
18024.6
19486.1
20807.3
16555.2
5500.32
17725.2
18828.9
19866.3
20836.5
21738.9
22573.5
23340.2
24039.1
24668.7
25226.1
25706.2
26094.5
26388.6
13156.1
13232.5
13156.2
13156.2
13156.2
1312.18
11844
1312.18
1312.18
1312.18
114.67
1197.5
114.665
114.662
-1522.25
1636.91
-1522.25
-1522.25
-1522.25
-13391.1
11868.8
-13391.1
-13391.1
-13391.1
-26580.9
13189.8
-26288.5
-25902.4
-25424.7
-24869.6
-24242.1
-23545.2
-22780.1
-21946.9
-21045.5
-20076
-19038.9
-17935
-16764
-21272.3
5757.23
-19951
-18489.6
-16838.1
-15027
-13383.3
-12838.1
-12838.1
-12838.1
-8512.11
-4326.03
-8512.11
-8512.11
-5605.22
-2906.89
-5605.22
-5605.21
-3412.8
-2192.41
-3412.8
-3412.8
-1566.79
-1846.01
-1566.79
-1566.79
-1566.79
99.1697
-1665.96
99.1694
99.1695
1540.41
-1441.24
-4961.45
3970.65
-4761.52
3979.13
-4572.41
4819.81
-4398.48
6017.2
-4215.53
6657.77
-3844.52
6033.97
-2904.23
694.862
-2251.27
-6791.48
-1846.81
-9514.11
-1066.84
-10640.8
441.304
-7682.31
1547.48
5775.37
1773.64
11988.6
1739.17
13087.1
1651.71
11344.1
1589.64
8176.03
1529.01
4399.63
1449.18
2325.41
867.805
-4736.41
3693.44
-4555.42
3798.14
-4485.47
4749.87
-4455.37
5987.1
-4356.56
6558.95
-3919.38
5596.8
-3043.67
-180.848
-2883.16
-6951.99
-2586.71
-9810.56
-1673.62
-11553.9
87.145
-9443.07
1448.06
4414.46
1519.49
11917.2
1445.15
13161.5
1447.21
11342
1545.88
8077.36
1622.9
4322.62
1573.56
2374.75
775.403
-4460.25
3253.45
-4249.35
3587.24
-4308.3
4808.81
-4448.66
6127.47
-4480.75
6591.04
-4198.98
5315.03
-3682.98
-696.853
-3655.02
-6979.95
-3362.69
-10102.9
-2704.69
-12211.9
-1444.83
-10702.9
673.34
2296.28
1106.26
11484.2
987.635
13280.1
1065.16
11264.5
1374.53
7767.99
1671.74
4025.42
1738.96
2307.53
668.35
-3734.43
2445.98
-3504.74
3357.55
-3954.66
5258.73
-4395.87
6568.68
-4631.05
6826.22
-4637.37
5321.35
-4465.85
-868.377
-4478.34
-6967.45
-4432.1
-10149.1
-4368.54
-12275.5
-3687.11
-11384.3
-876.159
-514.67
312.599
10295.5
377.789
13214.9
556.343
11085.9
1094.68
7229.65
1632.72
3487.37
1948.27
1991.99
424.201
-2233.2
918.299
-1842.08
2966.42
-2978.83
6395.48
-4053.07
7642.92
-4724.07
7497.22
-5085.95
5683.23
-5196.13
-758.191
-5328.88
-6834.71
-5737.63
-9740.38
-6382.6
-11630.5
-6156.53
-11610.4
-3157.57
-3513.63
-983.835
8121.74
-390.914
12622
-38.6523
10733.7
845.798
6345.2
1643.8
2689.37
2297.44
1338.34
-185.247
-2487.88
-893.479
-1103.64
1582.19
-1668
6959.84
-3118.59
9093.51
-4450.17
8828.79
-5346.89
6579.95
-5784.48
-320.606
-6154.65
-6464.54
-7134.52
-8760.5
-8496.78
-10268.3
-8800.83
-11306.4
-5954.25
-6360.22
-2770.46
4937.95
-1431.76
11283.3
-730.36
10032.3
670.182
4944.66
1666.46
1693.09
3015.43
-10.6282
-1495.85
-4423.64
-2267.27
-2142.87
-698.582
-1080.8
5897.77
-1921.69
9934.41
-3594.62
10501.7
-5112.64
8097.97
-6086.89
653.645
-6895.72
-5655.71
-8491.13
-7165.1
-10557.6
-8201.75
-11648
-10216
-9432.22
-8576.03
-5282.79
788.528
-2928.83
8929.32
-1620.07
8723.5
419.706
2904.88
2898.68
-785.878
2495.69
392.359
6757.06
-6041.86
-3076.45
-3996.03
-2744.41
-1821.53
3723.27
-1360.14
9473.01
-2533.46
11675
-4333.84
9898.35
-6051.8
2371.61
-7566.22
-4141.3
-9796.22
-4935.09
-12507.3
-5490.71
-14542.6
-8180.66
-13588.6
-9530
-8634.71
-4165.36
-4085.09
4379.7
-1649.05
6287.46
-1552.51
2808.34
-4446.5
2108.12
-8781.42
4727.28
11165.5
-7622.57
-3369.47
-6428.15
-3938.83
-3945.93
1241.05
-2158.48
7685.56
-2094.35
11610.9
-3425.53
11229.5
-5725.12
4671.2
-8207.01
-1659.41
-11118.5
-2023.57
-14263.5
-2345.78
-16884.4
-5559.74
-17375.7
-9038.68
-13984.8
-7556.29
-9577.4
-27.6748
-8866.69
5576.75
-11768.1
5709.73
-14320.4
4660.4
-14670.7
5077.61
8363.61
-9341.66
-3094.25
-9345.53
-3934.96
-7411.78
-692.713
-4731.86
5005.65
-3058.89
9937.94
-2961.07
11131.7
-5080.62
6790.74
-8633.58
1893.56
-12252.9
1595.77
-15364.2
765.473
-17588.5
-3335.4
-18331.5
-8295.72
-17242.3
-8645.5
-15209.6
-2060.33
-14424.2
4791.3
-14873.7
6159.26
-13870.5
3657.23
-9807.36
1014.46
193.16
-10828.2
-2191.08
-12152
-2611.18
-11787.2
-1057.42
-9529.17
2747.57
-6660
7068.77
-4703.35
9175.06
-5502.52
7589.92
-8821.81
5212.85
-12195
4968.91
-14257.3
2827.84
-14710.3
-2882.41
-14456.2
-8549.87
-14908.9
-8192.78
-14920.8
-2048.4
-14383
4253.54
-14050
5826.19
-12961.8
2569.06
-9429.4
-2517.96
-8038.73
-11528.5
-791.568
-13923.4
-216.285
-15488.5
507.72
-15298.9
2557.96
-13185.7
4955.58
-10322.4
6311.76
-8725.9
5993.39
-9069.11
5556.06
-9846.01
5745.81
-9003.98
1985.81
-6943.88
-4942.51
-6363.44
-9130.31
-10134.7
-4421.52
-14361.7
2178.65
-15845.6
5737.42
-16333.7
6314.23
-16287.1
2522.47
-15086.3
-3718.67
-11281.1
-10915.2
577.707
-13443.8
2312.29
-15811.3
2875.21
-16976.6
3723.25
-15590.9
3569.96
-11814.1
2534.88
-8065.47
2244.79
-6339.97
3830.55
-5338.31
4744.16
-2496.03
-856.471
-467.151
-6971.39
-592.065
-9005.4
-4379.95
-633.635
-9030.81
6829.5
-11084.1
7790.75
-10477.9
5707.97
-8879.79
924.385
-9562.87
-3035.59
-7611.5
-9550.34
1572.42
-11530.5
4292.45
-13392.4
4737.09
-13677.6
4008.42
-10845.8
738.17
-6019.29
-2291.59
-2311.09
-1463.42
-1132.44
2651.91
57.1205
3554.59
1606.21
-2405.56
1798.89
-7164.07
425.65
-7632.16
-1747.53
1539.55
-3791.19
8873.17
-5151.73
9151.29
-3835.66
4391.9
-588.895
-2322.38
990.163
-4614.65
-1121.02
-8124.22
2153.06
-9383.01
5551.23
-10277.3
5631.36
-9248.69
2979.84
-6175.94
-2334.58
-3039.57
-5427.96
-310.67
-4192.31
1903.61
437.626
2892.44
2565.77
3144.51
-2657.63
2382.12
-6401.69
892.988
-6143.02
-334.345
2766.88
-270.16
8808.98
-288.188
9169.32
549.945
3553.76
1612.61
-3385.04
2476.79
-5478.84
-2751.06
-6818.8
2373.81
-7454.46
6186.9
-7558.98
5735.88
-5828.75
1249.6
-3466.92
-4696.4
-1836.38
-7058.5
-451.353
-5577.34
1659.45
-1673.18
2810.46
1414.76
2606.78
-2453.94
1446.83
-5241.74
-379.618
-4316.57
-113.803
2501.07
1070.74
7624.44
2262.18
7977.87
2901.62
2914.32
2688.85
-3172.27
2031.01
-4820.99
-3003.48
-5683.24
2280.67
-5820.47
6324.12
-5354.27
5269.69
-3362.16
-742.514
-1750.77
-6307.79
-1014.03
-7795.24
-296.026
-6295.35
1150.75
-3119.95
1756.36
809.142
1203.28
-1900.86
-115.127
-3923.34
-1243.3
-3188.4
-654.619
1912.39
870.026
6099.8
2411.31
6436.59
2896.66
2428.97
2258.39
-2534.01
1469.79
-4032.39
-3080.33
-4708.96
1927.43
-4454.25
6069.41
-3528.35
4343.79
-1651.09
-2619.77
-798.557
-7160.32
-564.097
-8029.7
-73.0258
-6786.42
924.15
-4117.13
883.136
850.156
71.617
-1089.34
-854.935
-2996.79
-1297.31
-2746.03
-748.78
1363.86
408.839
4942.18
1767.58
5077.85
2200.93
1995.63
1742.03
-2075.11
1155.79
-3446.15
-3065.77
-4030.65
1252.09
-3338.5
5377.27
-2063.8
3069.08
-725.649
-3957.92
-427.705
-7458.26
-273.449
-8183.96
80.0878
-7139.95
556.478
-4593.52
-23.6696
1430.3
-612.013
-501.001
-864.955
-2743.84
-871.628
-2739.36
-353.197
845.429
262.961
4326.02
1217.24
4123.57
1600.88
1611.99
1341.51
-1815.74
953.526
-3058.17
-3013.45
-3832.88
-2728.64
-1523.06
-579.253
-227.466
-61.3438
46.9732
3.97852
-546.884
-825.072
-736.732
-541.542
-139.57
269.541
801.755
1083.51
1051.35
925.043
37.5109
-575.147
320.777
-1920.37
568.963
-2057.63
744.122
-1826.65
877.414
-1594.86
987.865
-1431.65
1054.05
-1314.34
1105.23
-1221.19
1136.79
-1135.27
1149.17
-1049.74
1142.67
-963.724
1117.57
-877.295
1073.9
-790.88
1011.02
-703.908
927.97
-615.757
822.325
-524.045
690.809
-425.88
524.581
-313.834
310.57
-174.266
16.437
48.1249
-623.269
66.1482
-1938.39
96.6096
-2088.09
124.057
-1854.09
160.549
-1631.35
205.776
-1476.88
257.803
-1366.36
305.745
-1269.13
344.732
-1174.25
372.687
-1077.69
388.572
-979.607
391.943
-880.663
382.658
-781.592
360.729
-681.976
326.422
-581.449
279.633
-477.253
221.006
-367.253
150.115
-242.943
86.7255
-110.874
103.163
78.0152
-701.281
112.027
-1972.4
187.032
-2163.09
270.357
-1937.41
356.126
-1717.12
438.92
-1559.67
513.088
-1440.53
574.874
-1330.91
621.465
-1220.84
651.358
-1107.58
663.706
-991.953
658.348
-875.303
635.443
-758.685
595.431
-641.962
538.752
-524.768
465.65
-404.148
376.19
-277.791
264.877
-131.627
125.708
28.2976
228.871
317.3
-1018.58
442.355
-2097.45
481.813
-2202.55
527.005
-1982.6
607.028
-1797.14
705.191
-1657.83
802.865
-1538.2
886.197
-1414.24
949.193
-1283.84
989.203
-1147.59
1005.2
-1007.95
996.372
-866.471
961.928
-724.24
901.024
-581.057
813.235
-436.978
698.325
-289.237
562.684
-142.149
392.743
38.3162
186.768
234.275
415.639
522.626
-1541.2
696.007
-2270.83
673.47
-2180.01
684.169
-1993.3
764.308
-1877.28
871.418
-1764.94
976.72
-1643.5
1063.16
-1500.68
1127.34
-1348.01
1167.67
-1187.91
1182.97
-1023.25
1169.91
-853.409
1123.45
-677.781
1035.05
-492.654
898.915
-300.843
702.362
-92.6826
459.73
100.486
291.249
206.8
151.833
373.693
567.472
402.602
-1943.8
386.239
-2254.47
263.352
-2057.13
215.378
-1945.33
220.489
-1882.39
234.246
-1778.7
235.746
-1645
216.722
-1481.66
180.417
-1311.71
128.448
-1135.94
61.2379
-956.041
-21.4729
-770.697
-116.211
-583.041
-211.978
-396.884
-288.814
-224.002
-314.897
-66.5946
-279.658
65.2514
-279.563
206.708
-238.097
332.228
329.376
-7.43444
-1936.37
-199.847
-2062.06
-376.549
-1880.42
-524.563
-1797.31
-669.333
-1737.62
-816.73
-1631.3
-969.553
-1492.18
-1125.97
-1325.24
-1283.5
-1154.18
-1440.06
-979.384
-1593.72
-802.376
-1739.21
-625.21
-1865.96
-456.292
-1959.83
-303.005
-2003.89
-179.944
-1958.37
-112.116
-1783.6
-109.519
-1400.08
-176.812
-742.546
-325.303
-413.17
-276.451
-1659.92
-422.45
-1916.06
-587.158
-1715.71
-814.607
-1569.87
-1066.48
-1485.75
-1322.49
-1375.29
-1567.77
-1246.9
-1800.87
-1092.15
-2023.57
-931.474
-2235.71
-767.243
-2430.78
-607.307
-2594.16
-461.827
-2700.8
-349.66
-2712.12
-291.681
-2586.52
-305.543
-2294.27
-404.371
-1807.99
-595.792
-1139.13
-845.676
-444.648
-1019.78
-857.818
-155.881
-1504.04
-151.669
-1920.27
-170.952
-1696.43
-257.263
-1483.55
-367.847
-1375.16
-484.996
-1258.14
-580.745
-1151.15
-644.808
-1028.08
-672.44
-903.841
-663.419
-776.262
-618.744
-651.98
-542.688
-537.881
-442.842
-449.504
-323.793
-410.727
-180.84
-448.494
-14.7481
-570.46
132.598
-743.137
189.95
-903.027
114.481
-944.309
-743.337
3.7216
-1507.76
64.1114
-1980.66
133.523
-1765.84
184.536
-1534.57
230.854
-1421.48
275.161
-1302.45
330.171
-1206.16
406.883
-1104.8
512.541
-1009.5
651.67
-915.391
822.423
-822.734
1015.37
-730.824
1208.08
-642.219
1361.7
-564.349
1423.13
-509.919
1346.69
-494.026
1121.54
-517.984
775.955
-557.444
381.603
-549.958
-361.734
89.2495
-1597.01
141.36
-2032.77
189.845
-1814.33
249.438
-1594.16
321.971
-1494.01
394.814
-1375.29
468.306
-1279.65
540.299
-1176.79
611.835
-1081.04
683.926
-987.482
757.887
-896.695
834.835
-807.772
912.522
-719.907
980.967
-632.794
1018.99
-547.945
993.646
-468.68
876.066
-400.405
651.91
-333.289
346.704
-244.754
-15.0293
150.447
-1747.46
176.144
-2058.47
208.879
-1847.06
258.709
-1644
323.58
-1558.88
383.73
-1435.44
447.013
-1342.93
507.885
-1237.66
568.233
-1141.39
624.392
-1043.64
673.962
-946.267
713.194
-847.006
738.581
-745.295
746.277
-640.493
731.564
-533.234
685.054
-422.171
593.41
-308.762
439.332
-179.214
225.429
-30.8544
210.4
182.469
-1929.93
175.277
-2051.28
212.093
-1883.88
268.86
-1700.76
339.518
-1629.54
405.66
-1501.58
479.603
-1416.88
555.419
-1313.48
637.699
-1223.67
720.583
-1126.53
798.068
-1023.75
858.305
-907.243
889.551
-776.542
883.621
-634.563
837.69
-487.304
749.983
-334.465
619.664
-178.444
436.705
3.7432
219.385
186.463
429.785
145.533
-2075.46
102.777
-2008.52
132.388
-1913.49
176.633
-1745.01
232.664
-1685.58
289.923
-1558.84
359.618
-1486.57
436.233
-1390.1
523.981
-1311.42
613.61
-1216.16
693.724
-1103.87
743.595
-957.116
749.621
-782.57
713.087
-598.031
641.576
-415.795
530.37
-223.262
364.124
-12.2005
236.288
131.577
112.812
309.935
542.598
27.6297
-2103.09
-44.1871
-1936.71
-66.5965
-1891.08
-83.8265
-1727.78
-97.6198
-1671.78
-105.297
-1551.17
-107.896
-1483.98
-102.429
-1395.56
-91.1871
-1322.66
-79.1387
-1228.21
-77.6471
-1105.36
-97.4302
-937.335
-134.103
-745.9
-168.331
-563.806
-189.753
-394.376
-201.314
-211.709
-158.536
-54.9876
-169.852
142.888
-189.28
329.361
353.317
-55.4141
-2047.68
-127.865
-1864.26
-188.661
-1830.29
-252.216
-1664.23
-319.351
-1604.65
-383.664
-1486.86
-454.672
-1412.97
-525.24
-1325
-600.588
-1247.31
-675.499
-1153.3
-746.529
-1034.33
-801.111
-882.755
-826.067
-720.944
-817.732
-572.142
-788.674
-423.435
-753.019
-247.365
-751.051
-56.9549
-701.741
93.5774
-541.267
168.887
-187.95
-63.3026
-1984.38
-141.988
-1785.57
-203.91
-1768.37
-264.935
-1603.2
-327.206
-1542.38
-384.743
-1429.32
-447.283
-1350.43
-510.166
-1262.12
-574.954
-1182.52
-631.149
-1097.11
-662.622
-1002.86
-649.967
-895.41
-589.798
-781.114
-496.62
-665.322
-379.444
-540.612
-232.674
-394.136
-71.2231
-218.409
19.1713
3.17957
64.1019
123.953
-123.848
-138.025
-1846.35
-302.451
-1621.15
-426.023
-1644.8
-515.744
-1513.48
-594.989
-1463.14
-647.796
-1376.51
-689.485
-1308.74
-715.621
-1235.98
-729.596
-1168.55
-725.375
-1101.33
-694.17
-1034.07
-626.574
-963.007
-521.986
-885.702
-386.551
-800.757
-220.576
-706.588
-20.8922
-593.821
197.052
-436.354
386.324
-186.094
389.726
120.55
265.878
-192.219
-1654.14
-422.041
-1391.33
-665.874
-1400.96
-864.789
-1314.57
-1053.44
-1274.49
-1207.3
-1222.65
-1336.98
-1179.06
-1437.86
-1135.1
-1513.18
-1093.23
-1562.55
-1051.96
-1585.71
-1010.91
-1580.07
-968.648
-1541.9
-923.871
-1467.53
-875.126
-1354.24
-819.883
-1195.03
-753.024
-972.848
-658.541
-663.685
-495.257
-299.389
-243.747
-33.5102
-679.136
-1095.46
-1521.43
-1861
-2160.48
-2408.14
-2612.19
-2772.3
-2890.53
-2967.49
-3003.39
-2997.04
-2945.91
-2846.04
-2690.92
-2468.94
-2152.49
-1672.74
-941.49
-679.143
1654.14
-1095.48
1391.34
-1521.46
1400.98
-1861.04
1314.58
-2160.54
1274.5
-2408.22
1222.67
-2612.29
1179.08
-2772.42
1135.12
-2890.67
1093.25
-2967.65
1051.98
-3003.57
1010.92
-2997.23
968.657
-2946.11
923.879
-2846.25
875.138
-2691.15
819.902
-2469.19
753.041
-2152.71
658.526
-1672.89
495.171
-941.521
243.636
33.4788
-192.234
1846.38
-422.067
1621.17
-665.914
1644.82
-864.839
1513.51
-1053.5
1463.16
-1207.36
1376.54
-1337.05
1308.76
-1437.92
1236
-1513.24
1168.56
-1562.6
1101.34
-1585.76
1034.08
-1580.13
963.028
-1541.99
885.736
-1467.65
800.803
-1354.39
706.64
-1195.21
593.863
-973.034
436.349
-663.86
185.997
-299.606
-120.619
-266.127
-137.997
1984.37
-302.381
1785.55
-425.912
1768.35
-515.574
1603.17
-594.755
1542.34
-647.484
1429.27
-689.086
1350.36
-715.123
1262.03
-728.993
1182.43
-724.67
1097.02
-693.397
1002.81
-625.795
895.426
-521.266
781.206
-385.913
665.45
-220.02
540.747
-20.4759
394.318
197.233
218.639
386.492
-3.26205
389.689
-123.817
123.562
-63.2068
2047.58
-141.82
1864.17
-203.653
1830.18
-264.584
1664.1
-326.758
1604.52
-384.193
1486.7
-446.628
1412.8
-509.405
1324.81
-574.08
1247.11
-630.15
1153.09
-661.488
1034.14
-648.716
882.653
-588.481
720.972
-495.271
572.239
-378.024
423.499
-231.085
247.379
-69.4696
57.0225
20.3908
-93.1237
64.9195
-168.347
188.481
-55.4625
2103.04
-127.904
1936.61
-188.724
1891
-252.328
1727.7
-319.516
1671.7
-383.908
1551.09
-455.015
1483.9
-525.705
1395.5
-601.196
1322.6
-676.24
1228.13
-747.361
1105.26
-801.94
937.232
-826.81
745.841
-818.376
563.805
-789.247
394.369
-753.459
211.591
-750.831
54.3941
-701.001
-142.954
-540.481
-328.867
-352
27.4324
2075.61
-44.4117
2008.45
-66.9214
1913.51
-84.2732
1745.05
-98.2041
1685.63
-106.022
1558.91
-108.784
1486.67
-103.488
1390.21
-92.4357
1311.54
-80.577
1216.27
-79.2411
1103.93
-99.0902
957.08
-135.711
782.462
-169.767
597.861
-190.978
415.579
-202.369
222.98
-160.416
12.4405
-171.855
-131.517
-190.474
-310.249
-542.473
145.351
1930.26
102.499
2051.3
132.021
1883.99
176.158
1700.92
232.058
1629.73
289.198
1501.77
358.762
1417.1
435.246
1313.72
522.846
1223.94
612.298
1126.82
692.187
1024.04
741.787
907.48
747.555
776.694
710.814
634.601
639.181
487.212
527.944
334.216
362.374
178.01
235.31
-4.45322
112.206
-187.145
-430.267
182.423
1747.83
175.106
2058.62
211.872
1847.22
268.585
1644.2
339.17
1559.15
405.246
1435.7
479.126
1343.22
554.883
1237.96
637.111
1141.72
719.949
1043.98
797.396
946.592
857.592
847.284
888.795
745.491
882.821
640.575
836.835
533.197
749.054
421.997
618.685
308.379
435.737
178.494
218.799
29.7918
-211.468
150.575
1597.26
176.119
2033.07
208.757
1814.59
258.513
1594.45
323.312
1494.35
383.381
1375.63
446.598
1280
507.432
1177.13
567.783
1081.36
623.973
987.791
673.574
896.991
712.793
808.064
738.077
720.206
745.529
633.122
730.486
548.24
683.681
468.801
591.922
400.139
438.04
332.375
224.66
243.171
13.1923
89.6186
1507.64
141.672
1981.02
190
1766.26
249.492
1534.96
321.976
1421.86
394.736
1302.87
468.134
1206.61
539.964
1105.3
611.27
1010.06
683.039
916.023
756.579
823.45
833.034
731.61
910.209
643.031
978.329
565.002
1016.09
510.483
990.747
494.14
873.659
517.227
650.326
555.707
345.887
547.609
359.08
4.07771
1503.56
64.4082
1920.69
133.794
1696.87
185.038
1483.71
231.738
1375.16
276.473
1258.13
331.803
1151.28
408.662
1028.44
514.342
904.378
653.469
776.896
824.282
652.637
1017.36
538.532
1210.1
450.288
1363.44
411.67
1424.25
449.672
1347.34
571.048
1122.21
742.357
776.816
901.1
382.443
941.982
741.523
-154.774
1658.34
-149.84
1915.76
-168.121
1715.15
-253.236
1568.83
-362.56
1484.49
-478.447
1374.02
-573.055
1245.88
-636.062
1091.45
-662.617
930.933
-652.397
766.677
-606.379
606.619
-529.011
461.165
-428.169
349.448
-308.707
292.209
-165.78
306.745
-0.750499
406.02
143.811
597.797
197.084
847.827
117.524
1021.54
859.047
-276.97
1935.31
-422.316
2061.1
-586.706
1879.54
-814.17
1796.29
-1066.1
1736.42
-1322.15
1630.07
-1567.36
1491.1
-1800.3
1324.39
-2022.75
1153.38
-2234.54
978.467
-2429.18
801.257
-2592.05
624.037
-2697.96
455.357
-2708.37
302.622
-2582.1
180.471
-2289.47
113.386
-1802.77
111.104
-1134.49
179.544
-442.506
329.559
416.541
-9.31531
1944.62
-201.982
2253.77
-378.865
2056.43
-527.531
1944.96
-673.209
1882.1
-821.497
1778.36
-975.042
1644.64
-1132.03
1481.37
-1290.1
1311.46
-1447.25
1135.61
-1601.55
955.559
-1747.61
770.103
-1874.73
582.48
-1968.55
396.444
-2011.51
223.424
-1963.44
65.3222
-1785.98
-66.3558
-1401.08
-205.355
-741.713
-329.809
-325.173
401.026
1543.6
383.321
2271.48
259.731
2180.02
210.996
1993.7
215.076
1878.02
227.704
1765.73
228.152
1644.2
208.273
1501.25
171.272
1348.46
118.718
1188.16
51.0478
1023.23
-31.8766
853.028
-126.252
676.857
-221.277
491.471
-298.041
300.191
-323.638
90.9217
-290.134
-99.8568
-288.382
-207.105
-242.983
-375.207
-568.156
522.846
1020.75
695.883
2098.44
672.814
2203.09
683.15
1983.36
762.977
1798.19
869.732
1658.97
974.66
1539.27
1060.76
1415.15
1124.65
1284.57
1164.69
1148.12
1179.65
1008.28
1166.1
866.574
1118.85
724.111
1029.62
580.697
893.42
436.393
695.98
288.361
455.095
141.029
288.191
-40.2012
149.412
-236.427
-418.744
317.918
702.834
443.125
1973.23
482.372
2163.84
527.482
1938.25
607.583
1718.09
705.863
1560.69
803.626
1441.51
887.018
1331.76
950.061
1221.53
990.095
1108.09
1006.09
992.282
997.212
875.45
962.672
758.651
901.627
641.743
813.672
524.348
698.532
403.502
562.744
276.818
392.445
130.099
186.211
-30.1927
-232.532
77.3508
625.484
110.786
1939.8
185.913
2088.71
269.303
1854.86
355.119
1632.28
438.035
1477.78
512.419
1367.12
574.406
1269.78
621.171
1174.76
651.22
1078.04
663.719
979.784
658.514
880.655
635.771
781.394
595.928
681.586
539.417
580.859
466.487
476.432
377.124
366.181
265.767
241.456
126.516
109.058
-106.016
45.2573
580.226
61.6648
1923.39
92.8851
2057.49
121.712
1826.03
159.436
1594.55
205.656
1431.56
258.308
1314.47
306.795
1221.29
346.322
1135.23
374.786
1049.58
391.135
963.435
394.922
876.869
386.002
790.314
364.384
703.204
330.326
614.917
283.713
523.046
225.135
424.759
154.05
312.541
89.8214
173.287
-16.1946
35.0815
314.752
561.101
735.696
868.783
979.105
1044.66
1094.97
1126.23
1138.75
1132.65
1108.18
1065.3
1003.38
921.416
816.932
686.591
521.435
308.569
)
;

boundaryField
{
    outletWall
    {
        type            calculated;
        value           nonuniform List<scalar> 
60
(
1540.41
-859.866
-2245.58
-4339
-8113.97
-11256.6
-13052.7
-12214.7
-6881.55
6174.16
9860.86
9109.65
6138.52
-1635.15
-6404.98
-6840.71
-6191.13
-5008.93
-4179.05
-4109.51
4653.67
4705.99
5062.2
5776.38
6598.05
7543.58
8555.62
9545.95
10129
9925
9066.44
7915.59
6851.04
5797.43
4299.66
3760.88
4541.9
4900.24
5013.62
5100.3
-1416.98
-3080.98
-2931.86
-1783.58
1330.23
3591.36
3916.91
443.457
-2934.54
-2832.18
-222.813
1981.17
-4550.52
-7248.27
-8350.08
-7810.05
-4901.73
1863.5
4273.02
431.304
)
;
    }
    fineWalls
    {
        type            calculated;
        value           uniform 0;
    }
    fineFrontAndBack
    {
        type            calculated;
        value           nonuniform List<scalar> 
960
(
9.59968e-14
7.90586e-13
1.20641e-13
1.27889e-13
1.13529e-12
3.05316e-13
3.97506e-13
2.96873e-13
2.95767e-12
7.29204e-13
7.65515e-13
-5.61248e-13
-7.67235e-13
-4.5755e-13
-3.25947e-12
-1.07751e-12
-8.63573e-13
-5.46054e-12
-1.0904e-12
-1.34226e-12
-2.33674e-13
-2.92312e-13
-2.89252e-13
-2.79882e-13
-2.65546e-13
-2.77287e-13
-5.81817e-12
-2.78048e-13
-2.79684e-13
-2.86256e-13
-2.92353e-13
-2.94851e-13
-3.01966e-13
-3.08834e-13
-3.20299e-13
-3.44667e-13
-3.60336e-13
-4.64193e-13
-2.86726e-13
-1.22925e-12
-1.85326e-11
-1.39974e-12
-1.11328e-12
-1.40376e-12
5.51171e-12
2.39704e-12
5.15949e-12
2.62779e-12
1.93696e-10
7.29199e-11
1.30723e-10
2.01668e-10
-3.85517e-12
3.13317e-12
9.72276e-13
9.41418e-12
1.51729e-12
1.3079e-12
1.39634e-12
1.89987e-11
1.27962e-12
2.86532e-13
4.63238e-13
3.42953e-13
3.18474e-13
2.85058e-13
2.64038e-13
2.50777e-13
2.28534e-13
1.96956e-13
1.62772e-13
1.16328e-13
6.58552e-14
-4.95134e-12
-1.59809e-13
-2.64553e-13
-3.2074e-13
-3.91319e-13
-4.74913e-13
-6.14269e-13
-3.19705e-12
-3.41757e-12
-1.94088e-11
-3.0277e-12
-3.20736e-12
-1.76054e-11
-2.46103e-12
-2.68078e-12
-1.49575e-11
-2.17136e-12
-2.43542e-12
-1.48184e-11
-2.49519e-12
-2.91201e-12
-2.99203e-12
-1.77495e-11
-2.59107e-12
-2.96712e-12
-1.81345e-11
-3.56962e-12
1.13199e-09
5.38231e-10
2.85114e-10
1.05858e-10
-7.8112e-12
-5.59416e-11
-5.91218e-11
-6.69305e-12
2.53779e-11
4.26843e-11
5.95959e-11
6.35166e-11
4.14597e-11
1.33241e-11
-9.34334e-12
-2.37984e-11
-3.09255e-11
-3.14094e-11
-2.84594e-11
9.72861e-10
3.83609e-10
2.02824e-10
6.33059e-11
-2.60767e-11
-5.98292e-11
-4.22619e-11
1.69012e-11
4.57072e-11
6.4843e-11
8.46246e-11
8.37663e-11
5.01311e-11
1.59691e-11
-8.66224e-12
-2.32049e-11
-3.04317e-11
-3.16773e-11
-2.95663e-11
7.80802e-10
2.11213e-10
1.12257e-10
1.90788e-11
-4.31607e-11
-6.03403e-11
-2.2527e-11
3.39907e-11
5.87419e-11
7.78743e-11
9.1277e-11
9.11396e-11
6.71094e-11
2.51288e-11
-6.52338e-12
-2.29568e-11
-3.03235e-11
-3.19339e-11
-3.13016e-11
5.72522e-10
2.59302e-11
2.49825e-11
-1.82017e-11
-5.27305e-11
-5.35507e-11
-2.46607e-12
4.78137e-11
6.93826e-11
8.55706e-11
8.8901e-11
8.50551e-11
8.14138e-11
3.98223e-11
-1.02188e-13
-2.20078e-11
-3.06531e-11
-3.26321e-11
-3.31373e-11
3.80113e-10
-8.88467e-11
-3.4127e-11
-5.80185e-11
-6.58272e-11
-4.60693e-11
1.24679e-11
5.46499e-11
7.34482e-11
8.34099e-11
7.86431e-11
7.62214e-11
8.39181e-11
5.71484e-11
1.03537e-11
-1.87846e-11
-2.96169e-11
-3.28676e-11
-3.55007e-11
2.81299e-10
4.60782e-11
7.73439e-12
-6.7532e-11
-8.44766e-11
-5.29555e-11
1.34578e-11
5.28773e-11
6.8583e-11
7.08003e-11
6.47196e-11
6.74989e-11
8.02731e-11
6.92255e-11
2.43948e-11
-1.27973e-11
-2.68832e-11
-3.09314e-11
-3.09355e-11
2.53546e-10
1.61134e-10
1.2229e-10
1.1269e-12
-7.12603e-11
-6.67156e-11
-3.68638e-13
4.38661e-11
5.32019e-11
4.94742e-11
4.94171e-11
5.84915e-11
7.24142e-11
7.12286e-11
3.72342e-11
-4.7244e-12
-1.15817e-11
-1.29992e-11
-2.29506e-11
1.73165e-10
1.25691e-10
1.75861e-10
1.08741e-10
2.51412e-12
-5.0403e-11
-1.34101e-11
3.01145e-11
2.87049e-11
2.30945e-11
3.2392e-11
4.54566e-11
5.51864e-11
6.06513e-11
4.35129e-11
7.15808e-12
4.80481e-12
8.08638e-12
1.42464e-11
6.01819e-11
6.46245e-11
1.63728e-10
1.76928e-10
1.0039e-10
1.24776e-11
-3.38611e-12
1.69765e-11
5.85012e-13
-4.042e-12
1.15908e-11
2.43735e-11
3.0877e-11
3.56309e-11
2.94069e-11
1.7706e-11
1.38248e-11
9.14814e-12
7.70467e-12
-4.31333e-11
2.56827e-11
1.482e-10
2.10651e-10
1.83299e-10
1.03482e-10
3.72338e-11
1.46579e-11
-2.50026e-11
-2.94436e-11
-1.59567e-11
-1.17089e-11
-5.03956e-12
1.86823e-11
2.12321e-11
1.38923e-11
2.60899e-11
8.45493e-11
1.78963e-10
-9.34555e-11
-4.87423e-12
1.09478e-10
2.02166e-10
2.27245e-10
1.96262e-10
1.32029e-10
3.30752e-11
-4.55262e-11
-5.52881e-11
-4.72615e-11
-5.20296e-11
-5.15929e-11
-2.35559e-11
3.05678e-11
9.22842e-11
1.7617e-10
2.24802e-10
2.37526e-10
-1.06512e-10
-5.42158e-11
3.27855e-11
1.11216e-10
1.66274e-10
1.76752e-10
1.2462e-10
2.03544e-11
-4.72292e-11
-4.94055e-11
-4.38475e-11
-5.51394e-11
-5.49405e-11
-4.4637e-11
-2.94745e-11
-1.71446e-11
-3.48544e-11
-5.95315e-11
-3.47532e-11
-1.43105e-10
-1.22042e-10
-6.21295e-11
-2.42955e-11
-5.32024e-12
-7.81143e-12
-2.64106e-11
-4.64132e-11
-5.0425e-11
-4.54812e-11
-6.24683e-11
-7.21824e-11
-5.89507e-11
-4.97043e-11
-4.65354e-11
-4.49675e-11
-3.99901e-11
-2.70599e-11
-2.72238e-11
-1.75103e-10
-1.90163e-10
-1.47283e-10
-1.42207e-10
-1.74739e-10
-2.05205e-10
-1.75936e-10
-1.14962e-10
-8.39109e-11
-6.76758e-11
-7.89923e-11
-6.71093e-11
-4.34476e-11
-4.96624e-11
-4.83008e-11
-4.28207e-11
-3.73537e-11
-3.03071e-11
-1.55868e-11
-1.88328e-10
-2.4204e-10
-2.16472e-10
-2.2324e-10
-2.54499e-10
-2.40897e-10
-1.63036e-10
-9.84548e-11
-9.74175e-11
-8.82798e-11
-6.36017e-11
-3.8536e-11
-1.89305e-11
-3.93182e-11
-4.6576e-11
-4.30033e-11
-3.96825e-11
-1.85545e-11
-1.04262e-11
-1.7663e-10
-2.67258e-10
-2.65536e-10
-2.74911e-10
-2.72867e-10
-2.18082e-10
-1.30242e-10
-5.23474e-11
-4.68063e-11
-2.68797e-11
-1.04647e-11
2.24117e-13
2.79236e-12
-1.80607e-11
-3.07719e-11
-3.39467e-11
-2.40396e-11
-5.7801e-12
4.97331e-12
-1.42238e-10
-2.60301e-10
-2.87217e-10
-2.98239e-10
-2.53869e-10
-1.77658e-10
-1.08271e-10
-4.845e-11
-3.04165e-12
1.72028e-11
1.23235e-11
9.99803e-12
6.05177e-12
-1.65854e-12
-1.14434e-11
-1.59711e-11
-5.86996e-12
1.80522e-12
1.80607e-12
-9.51577e-11
-2.24543e-10
-2.74729e-10
-2.81528e-10
-2.06816e-10
-1.45388e-10
-1.03314e-10
-5.5756e-11
4.93855e-12
1.43036e-11
7.10968e-12
6.24768e-12
4.19327e-12
3.56519e-12
1.96329e-14
-2.25538e-12
2.19259e-12
2.77647e-12
1.32837e-12
-4.76049e-11
-1.75812e-10
-2.34098e-10
-2.2523e-10
-1.6551e-10
-1.35503e-10
-1.06257e-10
-5.9535e-11
9.25601e-12
1.02573e-11
7.08292e-12
6.29674e-12
4.54251e-12
3.58588e-12
3.33683e-12
2.89899e-12
2.89772e-12
2.10886e-12
1.46315e-12
-3.72112e-13
-1.10661e-10
-1.56297e-10
-1.70868e-10
-1.54992e-10
-1.36856e-10
-1.07654e-10
-5.9176e-11
1.4091e-11
1.08642e-11
7.32541e-12
6.63664e-12
5.06543e-12
3.32502e-12
3.04141e-12
2.97625e-12
2.14041e-12
1.81905e-12
1.43057e-12
-9.59968e-14
-7.90586e-13
-1.20641e-13
-1.27889e-13
-1.13529e-12
-3.05316e-13
-3.97506e-13
-2.96873e-13
-2.95767e-12
-7.29204e-13
-7.65515e-13
5.61248e-13
7.67235e-13
4.5755e-13
3.25947e-12
1.07751e-12
8.63573e-13
5.46054e-12
1.0904e-12
1.34226e-12
2.33674e-13
2.92312e-13
2.89252e-13
2.79882e-13
2.65546e-13
2.77287e-13
5.81817e-12
2.78048e-13
2.79684e-13
2.86256e-13
2.92353e-13
2.94851e-13
3.01966e-13
3.08834e-13
3.20299e-13
3.44667e-13
3.60336e-13
4.64193e-13
2.86726e-13
1.22925e-12
1.85326e-11
1.39974e-12
1.11328e-12
1.40376e-12
-5.51171e-12
-2.39704e-12
-5.15949e-12
-2.62779e-12
-1.93696e-10
-7.29199e-11
-1.30723e-10
-2.01668e-10
3.85517e-12
-3.13317e-12
-9.72276e-13
-9.41418e-12
-1.51729e-12
-1.3079e-12
-1.39634e-12
-1.89987e-11
-1.27962e-12
-2.86532e-13
-4.63238e-13
-3.42953e-13
-3.18474e-13
-2.85058e-13
-2.64038e-13
-2.50777e-13
-2.28534e-13
-1.96956e-13
-1.62772e-13
-1.16328e-13
-6.58552e-14
4.95134e-12
1.59809e-13
2.64553e-13
3.2074e-13
3.91319e-13
4.74913e-13
6.14269e-13
3.19705e-12
3.41757e-12
1.94088e-11
3.0277e-12
3.20736e-12
1.76054e-11
2.46103e-12
2.68078e-12
1.49575e-11
2.17136e-12
2.43542e-12
1.48184e-11
2.49519e-12
2.91201e-12
2.99203e-12
1.77495e-11
2.59107e-12
2.96712e-12
1.81345e-11
3.56962e-12
-1.13199e-09
-5.38231e-10
-2.85114e-10
-1.05858e-10
7.8112e-12
5.59416e-11
5.91218e-11
6.69305e-12
-2.53779e-11
-4.26843e-11
-5.95959e-11
-6.35166e-11
-4.14597e-11
-1.33241e-11
9.34334e-12
2.37984e-11
3.09255e-11
3.14094e-11
2.84594e-11
-9.72861e-10
-3.83609e-10
-2.02824e-10
-6.33059e-11
2.60767e-11
5.98292e-11
4.22619e-11
-1.69012e-11
-4.57072e-11
-6.4843e-11
-8.46246e-11
-8.37663e-11
-5.01311e-11
-1.59691e-11
8.66224e-12
2.32049e-11
3.04317e-11
3.16773e-11
2.95663e-11
-7.80802e-10
-2.11213e-10
-1.12257e-10
-1.90788e-11
4.31607e-11
6.03403e-11
2.2527e-11
-3.39907e-11
-5.87419e-11
-7.78743e-11
-9.1277e-11
-9.11396e-11
-6.71094e-11
-2.51288e-11
6.52338e-12
2.29568e-11
3.03235e-11
3.19339e-11
3.13016e-11
-5.72522e-10
-2.59302e-11
-2.49825e-11
1.82017e-11
5.27305e-11
5.35507e-11
2.46607e-12
-4.78137e-11
-6.93826e-11
-8.55706e-11
-8.8901e-11
-8.50551e-11
-8.14138e-11
-3.98223e-11
1.02188e-13
2.20078e-11
3.06531e-11
3.26321e-11
3.31373e-11
-3.80113e-10
8.88467e-11
3.4127e-11
5.80185e-11
6.58272e-11
4.60693e-11
-1.24679e-11
-5.46499e-11
-7.34482e-11
-8.34099e-11
-7.86431e-11
-7.62214e-11
-8.39181e-11
-5.71484e-11
-1.03537e-11
1.87846e-11
2.96169e-11
3.28676e-11
3.55007e-11
-2.81299e-10
-4.60782e-11
-7.73439e-12
6.7532e-11
8.44766e-11
5.29555e-11
-1.34578e-11
-5.28773e-11