/*--------------------------------*- C++ -*----------------------------------*\
| =========                 |                                                 |
| \\      /  F ield         | OpenFOAM: The Open Source CFD Toolbox           |
|  \\    /   O peration     | Version:  4.1                                   |
|   \\  /    A nd           | Web:      www.OpenFOAM.org                      |
|    \\/     M anipulation  |                                                 |
\*---------------------------------------------------------------------------*/
FoamFile
{
    version     2.0;
    format      ascii;
    class       volVectorField;
    location    "8";
    object      U;
}
// * * * * * * * * * * * * * * * * * * * * * * * * * * * * * * * * * * * * * //

dimensions      [0 1 -1 0 0 0 0];

internalField   nonuniform List<vector> 
1280
(
(6.93744e-17 0.467625 -0.597103)
(1.34368e-16 0.843344 -0.874621)
(8.71841e-17 0.722963 -0.62689)
(9.24222e-17 0.795214 -0.521664)
(1.92954e-16 1.19026 -0.726677)
(2.20644e-16 0.979209 -0.505145)
(2.87267e-16 1.15368 -0.509518)
(1.85975e-16 1.13741 -0.482946)
(5.86555e-16 1.54694 -0.922284)
(5.47943e-16 1.41445 -0.749409)
(5.53218e-16 1.53767 -0.655378)
(-3.42504e-16 2.0417 -1.23308)
(-5.85349e-16 1.86987 -1.02218)
(-3.3066e-16 2.05698 -0.903681)
(-7.31454e-16 2.67231 -1.79328)
(-7.78689e-16 2.51629 -1.60811)
(-6.24082e-16 2.82745 -1.43977)
(-9.28072e-16 3.65698 -3.33351)
(-7.88006e-16 3.6777 -2.52289)
(-9.70014e-16 4.06938 -3.62822)
(-9.58662e-16 3.93569 -1.97245)
(-1.19923e-15 4.32193 4.77495)
(-1.18668e-15 3.97545 8.66022)
(-1.14823e-15 4.27789 10.1833)
(-1.08942e-15 4.51527 10.5977)
(-1.13759e-15 4.92153 10.9181)
(-1.22649e-15 3.80625 8.09792)
(-1.14071e-15 8.15226 13.4775)
(-1.14742e-15 8.21358 13.6671)
(-1.17438e-15 8.28716 13.6868)
(-1.1994e-15 8.32478 13.5934)
(-1.20964e-15 8.32464 13.4169)
(-1.23883e-15 8.30885 13.1862)
(-1.26701e-15 8.27847 12.9251)
(-1.31405e-15 8.23994 12.6509)
(-1.41402e-15 8.18084 12.3736)
(-1.4783e-15 8.13195 12.0887)
(-1.90438e-15 8.02597 11.7967)
(-1.17631e-15 8.00544 11.4937)
(-5.04307e-15 7.76395 10.9834)
(-3.22587e-15 9.21074 12.6731)
(-1.12429e-15 5.60451 9.00702)
(-8.94198e-16 4.59417 8.87227)
(-1.11362e-15 3.59754 8.91833)
(1.18164e-15 1.8723 8.50631)
(1.92534e-15 1.03414 4.77767)
(4.14417e-15 0.38751 4.47983)
(2.11068e-15 -0.124889 4.33175)
(3.61302e-14 -0.589023 -2.15305)
(6.51761e-14 0.140187 -4.33942)
(9.83925e-14 -0.0659283 -4.62586)
(3.51033e-14 0.904931 -1.60811)
(-3.09652e-15 0.0734632 4.8948)
(2.5166e-15 -0.444817 4.56036)
(7.80944e-16 -1.10327 4.86142)
(1.63867e-15 -1.97453 8.53234)
(1.23235e-15 -3.67383 8.89996)
(1.04839e-15 -4.66953 8.86964)
(1.12156e-15 -5.68093 8.99898)
(3.06033e-15 -9.32894 12.6332)
(5.24971e-15 -7.83095 10.927)
(1.17552e-15 -8.07731 11.4233)
(1.90046e-15 -8.09529 11.7171)
(1.40699e-15 -8.20127 12.0072)
(1.30656e-15 -8.24882 12.2975)
(1.16947e-15 -8.30737 12.5875)
(1.08323e-15 -8.34601 12.8793)
(1.02883e-15 -8.37721 13.1606)
(9.37575e-16 -8.39464 13.4133)
(8.08025e-16 -8.39881 13.6143)
(6.67781e-16 -8.36543 13.7382)
(4.77245e-16 -8.29329 13.7583)
(2.70175e-16 -8.25309 13.6104)
(-1.04376e-15 -3.94223 8.323)
(-6.55627e-16 -5.05031 11.033)
(-1.08535e-15 -4.65565 10.7369)
(-1.31585e-15 -4.41306 10.3516)
(-1.60541e-15 -4.10582 8.8915)
(-1.94836e-15 -4.44552 5.10273)
(-2.52008e-15 -4.06674 -1.58235)
(-2.31042e-15 -4.21228 -3.35547)
(-2.46979e-15 -3.86472 -2.32644)
(-3.29871e-15 -3.6947 -3.31178)
(-2.18804e-15 -2.93592 -1.47712)
(-2.31788e-15 -2.57153 -1.77065)
(-3.0349e-15 -2.55463 -2.17756)
(-1.79455e-15 -1.96926 -1.13821)
(-1.94534e-15 -1.71805 -1.3273)
(-2.55018e-15 -1.66257 -1.70607)
(-1.56919e-15 -1.25567 -0.962149)
(-1.76057e-15 -1.05736 -1.12821)
(-2.46699e-15 -0.9427 -1.50515)
(-1.78996e-15 -0.647366 -0.916843)
(-2.10444e-15 -0.535275 -1.02947)
(-2.16226e-15 -0.360284 -1.0549)
(-3.0167e-15 -0.213041 -1.40457)
(-1.8725e-15 0.0495497 -0.751316)
(-2.14426e-15 0.18668 -0.80998)
(-3.11328e-15 0.0576064 -1.22459)
(-2.57967e-15 0.490213 -1.18812)
(1.25776e-13 -1.36709 4.24086)
(5.98035e-14 -1.36552 4.04576)
(3.16793e-14 -1.63998 3.88281)
(1.1762e-14 -2.03883 3.74005)
(-8.67911e-16 -2.26658 3.59219)
(-6.21573e-15 -2.15151 3.42826)
(-6.56909e-15 -0.619788 2.93451)
(-7.43672e-16 2.09244 1.98337)
(2.81977e-15 3.0559 1.72956)
(4.7427e-15 3.31853 1.34068)
(6.62176e-15 2.15422 0.453186)
(7.0574e-15 -1.9725 -1.1074)
(4.60663e-15 -3.96987 -1.50809)
(1.48046e-15 -4.33162 -1.48641)
(-1.03815e-15 -3.759 -1.40579)
(-2.64427e-15 -2.72055 -1.34529)
(-3.43617e-15 -1.46338 -1.30086)
(-3.48994e-15 -0.761794 -1.23856)
(-3.16216e-15 -0.30208 -1.1832)
(1.08096e-13 -1.2859 4.14577)
(4.26233e-14 -1.31028 3.80761)
(2.2536e-14 -1.60104 3.75725)
(7.03399e-15 -1.99922 3.7283)
(-2.89741e-15 -2.19483 3.69954)
(-6.64768e-15 -1.89243 3.55108)
(-4.69577e-15 0.0972847 2.85561)
(1.87791e-15 2.36951 2.37241)
(5.07857e-15 3.26146 2.39098)
(7.20477e-15 3.75803 1.89568)
(9.40273e-15 3.02044 1.02129)
(9.30736e-15 -1.78987 -1.06856)
(5.57012e-15 -4.06027 -1.46622)
(1.77435e-15 -4.39028 -1.20259)
(-9.62471e-16 -3.78717 -1.17636)
(-2.57833e-15 -2.71448 -1.23742)
(-3.3813e-15 -1.45473 -1.32796)
(-3.5197e-15 -0.780577 -1.34061)
(-3.28514e-15 -0.271902 -1.32843)
(8.67558e-14 -1.16991 4.03514)
(2.34682e-14 -1.22731 3.48944)
(1.2473e-14 -1.5777 3.54673)
(2.11986e-15 -2.00194 3.64939)
(-4.79563e-15 -2.17452 3.76255)
(-6.70448e-15 -1.79978 3.69917)
(-2.503e-15 0.16689 3.18892)
(3.77674e-15 2.2926 3.06742)
(6.52688e-15 3.31131 3.00187)
(8.6527e-15 3.99111 2.57556)
(1.01419e-14 3.37763 2.12317)
(1.01266e-14 -1.44785 0.135129)
(7.4566e-15 -3.94841 -1.24008)
(2.79209e-15 -4.4196 -0.804122)
(-7.24821e-16 -3.77784 -0.794852)
(-2.55075e-15 -2.66163 -0.988403)
(-3.36927e-15 -1.41155 -1.28898)
(-3.54821e-15 -0.772705 -1.43966)
(-3.47796e-15 -0.220294 -1.53428)
(6.36136e-14 -1.00573 3.70674)
(2.88113e-15 -1.14415 2.66462)
(2.77583e-15 -1.62456 3.10223)
(-2.02242e-15 -2.07954 3.51044)
(-5.85894e-15 -2.21796 3.80695)
(-5.95008e-15 -1.74919 3.90353)
(-2.74008e-16 0.305819 3.75472)
(5.31263e-15 2.35979 3.76081)
(7.70918e-15 3.42137 3.69593)
(9.50785e-15 4.14883 3.67141)
(9.87789e-15 3.71024 3.77424)
(9.45057e-15 -0.42672 2.16352)
(9.04598e-15 -3.69787 -0.524655)
(4.4247e-15 -4.43196 -0.263645)
(-1.13543e-17 -3.72816 -0.312766)
(-2.44531e-15 -2.52129 -0.628076)
(-3.4059e-15 -1.28608 -1.17345)
(-3.62579e-15 -0.804379 -1.47613)
(-3.68192e-15 -0.253746 -1.89421)
(4.22347e-14 -0.630184 3.00194)
(-9.87185e-15 -1.09394 0.965605)
(-3.79189e-15 -1.91911 1.99008)
(-6.4465e-15 -2.3088 2.99708)
(-7.31413e-15 -2.33695 3.74032)
(-5.11881e-15 -1.79655 4.12643)
(1.38532e-15 0.294831 4.31304)
(6.07221e-15 2.3088 4.38521)
(8.16091e-15 3.35578 4.49796)
(9.26777e-15 4.0382 5.0503)
(8.73813e-15 3.85221 5.70297)
(8.46904e-15 0.69271 4.47436)
(9.32423e-15 -3.13759 0.962717)
(6.34982e-15 -4.38098 0.393291)
(1.15041e-15 -3.66248 0.298141)
(-2.08718e-15 -2.29459 -0.253913)
(-3.29076e-15 -1.01641 -1.12001)
(-3.65196e-15 -0.431538 -1.52009)
(-3.94452e-15 -0.0745378 -2.54579)
(3.12554e-14 0.0358551 3.46052)
(5.1198e-15 -0.911758 0.915046)
(8.59377e-16 -2.32318 0.844093)
(-7.50355e-15 -2.7965 1.92319)
(-9.38629e-15 -2.66484 3.25311)
(-5.88394e-15 -1.98528 4.16242)
(1.49531e-15 0.224409 4.73722)
(5.87525e-15 2.25656 4.91291)
(7.62034e-15 3.13948 5.35573)
(7.8667e-15 3.70697 6.52175)
(7.19106e-15 3.86668 7.70626)
(7.49988e-15 1.7151 6.99088)
(8.91923e-15 -2.22753 3.02985)
(7.69172e-15 -4.03725 1.34442)
(2.71054e-15 -3.49451 1.05322)
(-1.42192e-15 -1.93701 0.135286)
(-2.98702e-15 -0.858161 -1.18925)
(-3.43683e-15 -0.696082 -1.54598)
(-3.43728e-15 0.222475 -3.7207)
(2.81718e-14 0.572255 4.75767)
(1.79038e-14 -0.152343 2.73519)
(1.35877e-14 -2.24921 0.860083)
(1.25212e-16 -3.27059 0.886079)
(-7.91781e-15 -3.22573 2.28707)
(-7.41284e-15 -2.39129 3.70714)
(-4.09598e-17 0.0147844 4.82246)
(4.87401e-15 2.06866 5.30712)
(5.91132e-15 2.70473 6.20694)
(5.49713e-15 3.12956 7.9341)
(5.49079e-15 3.65181 9.6942)
(6.49906e-15 2.55202 9.80949)
(8.04602e-15 -1.14715 5.90013)
(7.91429e-15 -3.47444 2.77508)
(4.13714e-15 -3.20895 2.06816)
(-5.24933e-16 -1.39772 0.56374)
(-1.28685e-15 0.00095687 -1.1385)
(-1.44435e-15 1.18499 -3.65511)
(-2.55007e-15 0.994188 -0.300588)
(1.92405e-14 0.943621 5.65454)
(1.39657e-14 0.666776 4.50873)
(1.95401e-14 -1.66074 2.19007)
(1.20823e-14 -3.34988 0.797038)
(2.79347e-16 -3.78473 1.41977)
(-5.60033e-15 -3.00934 2.8022)
(-1.49001e-15 -0.436339 4.44749)
(3.34605e-15 1.69078 5.59597)
(3.18943e-15 2.07081 7.05415)
(2.56606e-15 2.32551 9.27044)
(3.59911e-15 3.13481 11.5879)
(5.05074e-15 3.1499 12.7357)
(6.13183e-15 0.609463 9.86322)
(6.73904e-15 -2.47541 4.47784)
(4.83476e-15 -2.58275 2.25723)
(7.95342e-16 -0.533794 0.468206)
(5.33868e-16 0.107619 2.18603)
(8.98486e-16 -1.53684 5.27507)
(1.58293e-15 -5.2548 9.22745)
(6.68688e-15 1.11737 6.55696)
(7.1805e-15 1.20384 6.22606)
(1.8192e-14 -0.839367 4.49674)
(1.96586e-14 -2.94424 2.08106)
(1.11544e-14 -4.00002 1.44508)
(1.3864e-15 -3.59817 2.03005)
(-3.76234e-16 -1.14786 3.70935)
(1.88627e-15 1.04209 5.77246)
(6.50013e-17 1.21565 7.96579)
(-4.49111e-16 1.32921 10.5855)
(1.28787e-15 2.30221 13.1925)
(2.70816e-15 3.17945 14.9911)
(3.43078e-15 2.2508 13.9434)
(3.95898e-15 -0.344409 9.34661)
(3.26744e-15 -1.6919 6.52866)
(1.96733e-15 -1.38872 8.29286)
(1.53608e-15 -1.28474 11.4235)
(1.01646e-15 -1.81952 12.4466)
(8.56075e-16 -3.04045 11.7443)
(-4.79259e-15 1.13064 7.5345)
(2.85363e-15 1.4145 8.07459)
(1.64666e-14 0.0165046 7.51605)
(2.34057e-14 -2.15408 4.87258)
(2.03665e-14 -3.74659 2.93921)
(1.14981e-14 -3.90842 2.12075)
(3.86579e-15 -1.98915 2.8318)
(1.62866e-15 0.0567142 5.59675)
(-2.77807e-15 0.127419 8.84482)
(-3.27152e-15 0.232004 11.6355)
(-1.77296e-15 1.39026 13.9801)
(-1.18879e-15 2.81082 15.3316)
(-5.59951e-16 2.71133 15.1849)
(2.07582e-15 0.295306 13.528)
(2.30351e-15 -1.89837 11.8181)
(1.54359e-15 -2.28043 12.2695)
(2.89888e-15 -1.84339 12.5977)
(9.39437e-15 -1.74261 10.3323)
(1.98848e-14 -2.02247 5.85821)
(-1.03839e-14 0.936134 8.27112)
(-5.41581e-16 1.18401 9.76649)
(1.21642e-14 0.458431 10.5295)
(2.24629e-14 -1.16908 9.14716)
(2.52494e-14 -2.86322 6.68567)
(2.18069e-14 -3.52531 4.35267)
(1.51098e-14 -2.5656 3.4889)
(3.67502e-15 -1.33733 5.68539)
(-5.05847e-15 -1.20711 9.04062)
(-6.14312e-15 -0.706717 11.3727)
(-5.25128e-15 0.891508 12.4194)
(-5.78106e-15 2.75415 12.03)
(-5.73255e-15 3.09305 12.0258)
(-2.61732e-15 1.07611 12.7799)
(3.39642e-15 -1.33241 12.1373)
(1.02538e-14 -1.89104 11.8977)
(1.95744e-14 -0.712546 11.5817)
(2.4978e-14 0.91746 9.76539)
(2.63918e-14 1.89879 5.85122)
(-1.18347e-14 0.521416 8.45617)
(-6.02398e-15 0.525943 10.7142)
(3.64284e-15 0.21614 12.5484)
(1.23573e-14 -0.681427 13.2896)
(1.84748e-14 -1.84401 12.1827)
(1.96392e-14 -2.58114 9.72706)
(1.38466e-14 -2.46742 7.4697)
(2.2616e-15 -2.0782 7.09015)
(-5.24769e-15 -2.01064 8.05973)
(-5.4895e-15 -1.07082 8.44467)
(-4.87194e-15 1.06622 6.64016)
(-6.1266e-15 2.84903 4.73969)
(-6.1045e-15 2.22395 5.83506)
(-4.95967e-15 0.144517 10.9864)
(-3.27495e-15 -1.517 13.0772)
(-1.90496e-15 -1.96214 13.3895)
(-3.87271e-15 -0.835109 13.8676)
(-6.61461e-15 1.07668 13.205)
(-3.86146e-15 2.96601 11.7246)
(-1.59005e-14 0.00185856 7.97235)
(-1.35602e-14 -0.385345 10.1707)
(-6.90328e-15 -0.57458 12.2905)
(-2.6995e-15 -1.06024 14.086)
(-5.91138e-16 -1.51152 14.1878)
(-8.67936e-16 -1.67504 11.7265)
(-2.93452e-15 -1.56127 7.93999)
(-5.15702e-15 -1.60724 5.52986)
(-5.60277e-15 -1.75943 5.13854)
(-5.05346e-15 -0.340075 3.83224)
(-6.94092e-15 2.16622 0.475171)
(-8.02027e-15 3.23017 -0.0900716)
(-6.55008e-15 0.771768 1.1023)
(-5.5227e-15 -1.53716 6.08798)
(-5.17059e-15 -2.24851 9.17054)
(-4.99639e-15 -2.14524 9.40962)
(-4.44335e-15 -0.743615 8.04085)
(-3.00665e-15 1.59328 6.58805)
(-3.02487e-15 5.34775 9.26738)
(-1.94559e-14 -0.394867 7.13377)
(-2.11293e-14 -1.15088 8.75396)
(-1.63647e-14 -1.33639 10.5061)
(-1.58007e-14 -1.40348 11.8491)
(-1.94155e-14 -0.842527 10.9347)
(-2.28006e-14 -0.00282853 7.04108)
(-1.95485e-14 -0.0412247 2.8925)
(-1.27736e-14 -1.10823 0.974475)
(-9.32343e-15 -1.39399 1.24388)
(-7.51954e-15 1.1555 -1.00737)
(-8.77692e-15 2.50247 -2.07312)
(-7.45659e-15 2.81488 -1.26352)
(-4.82752e-15 -0.306211 0.612606)
(-5.51804e-15 -2.85466 2.29284)
(-5.36676e-15 -2.89567 4.18808)
(-4.75786e-15 -1.60247 4.58286)
(-4.15041e-15 0.255746 1.82066)
(-3.36746e-15 0.579266 -1.14066)
(-1.73187e-15 -0.548871 -0.368847)
(-2.09253e-14 -0.660359 6.26937)
(-2.68933e-14 -1.70247 7.26915)
(-2.40524e-14 -1.80397 8.40678)
(-2.48045e-14 -1.24431 8.76307)
(-2.82776e-14 0.352088 6.6527)
(-2.67664e-14 1.52235 3.49279)
(-1.81152e-14 1.10956 1.5108)
(-1.09394e-14 -0.622286 -1.07736)
(-1.08242e-14 -1.18571 -1.75059)
(-9.80886e-15 0.442962 -2.84486)
(-7.06686e-15 2.13551 -2.59873)
(-4.28177e-15 2.30098 -1.55577)
(-2.10339e-15 -0.542052 0.208299)
(-4.36869e-15 -3.08349 0.370511)
(-5.17511e-15 -3.23356 0.206027)
(-4.77814e-15 -1.32064 0.551985)
(-4.40917e-15 1.21175 -1.53259)
(-2.06161e-15 2.11911 -1.45595)
(-1.15847e-15 1.12698 -3.05341)
(-1.96256e-14 -0.772455 5.46162)
(-2.96953e-14 -1.98779 5.92846)
(-2.9504e-14 -1.93626 6.53716)
(-3.05456e-14 -0.751666 6.0787)
(-3.03185e-14 1.25475 3.67654)
(-2.42313e-14 2.15047 1.93254)
(-1.44713e-14 1.69933 1.09991)
(-5.81637e-15 0.246047 -0.417003)
(-5.2007e-15 -0.676768 -2.07338)
(-2.98664e-15 0.836741 -2.55246)
(-1.16274e-15 2.07376 -1.8642)
(2.49019e-17 1.81821 -0.670334)
(3.10263e-16 -1.7177 1.04234)
(-2.00674e-15 -2.77857 -0.245575)
(-3.4191e-15 -2.94671 -1.48811)
(-3.77185e-15 -1.17991 -2.1213)
(-2.67106e-15 0.959327 -2.75097)
(-6.42233e-16 1.63198 -1.87563)
(5.52591e-16 0.850576 -1.74379)
(-1.58042e-14 -0.815599 4.75879)
(-2.89224e-14 -2.13999 4.76351)
(-3.1913e-14 -1.88686 4.98795)
(-3.31377e-14 -0.109907 3.91524)
(-2.82076e-14 1.88091 1.75191)
(-1.97398e-14 2.55183 0.991933)
(-1.20301e-14 2.01527 0.689715)
(-5.38333e-15 0.846929 -0.190214)
(-3.37961e-16 -0.295033 -1.50684)
(1.91142e-15 0.765195 -1.49686)
(1.36928e-15 1.48396 -0.493528)
(1.11089e-15 1.12082 0.592251)
(6.72419e-16 -1.03308 1.2917)
(-1.84282e-16 -2.36931 0.0349552)
(-1.27149e-15 -2.43525 -1.46327)
(-1.77456e-15 -0.903449 -2.45056)
(-6.52218e-16 0.97313 -2.39925)
(2.0058e-16 1.50535 -1.44561)
(2.00674e-16 1.08554 -1.16341)
(-1.05731e-14 -0.682413 4.15314)
(-2.49493e-14 -2.05899 3.76159)
(-3.05255e-14 -1.599 3.71695)
(-3.12809e-14 0.643482 2.13896)
(-2.29795e-14 2.28684 0.635311)
(-1.61542e-14 2.65608 0.556885)
(-1.14793e-14 2.18534 0.375023)
(-6.19511e-15 1.27522 -0.206428)
(5.48728e-16 -0.206071 -1.14191)
(1.58928e-15 0.481662 -0.485194)
(7.89964e-16 1.12455 0.4315)
(6.94186e-16 0.957112 0.913424)
(4.65919e-16 -0.481399 1.07791)
(3.96132e-16 -1.79381 0.353878)
(2.18144e-18 -1.88243 -1.00416)
(-2.50598e-16 -0.724575 -1.88107)
(2.43622e-16 0.74431 -1.79461)
(3.08497e-16 1.21163 -1.15319)
(1.47597e-16 0.993207 -0.874849)
(-5.28943e-15 -0.662911 3.84184)
(-1.95347e-14 -2.03355 2.95887)
(-2.60108e-14 -1.34175 2.63537)
(-2.50255e-14 1.25819 0.866353)
(-1.839e-14 2.513 0.288606)
(-1.50558e-14 2.69564 0.320395)
(-1.18063e-14 2.30611 0.124018)
(-6.615e-15 1.47294 -0.193306)
(1.02845e-15 -0.34202 -0.606822)
(1.1397e-15 0.273045 0.469446)
(7.86991e-16 0.919501 0.654727)
(6.99638e-16 0.865473 0.714906)
(5.04723e-16 -0.51044 0.551709)
(3.98431e-16 -1.50002 0.244063)
(3.70759e-16 -1.51717 -0.665632)
(3.2211e-16 -0.623469 -1.33594)
(3.21969e-16 0.645025 -1.32885)
(2.34318e-16 1.09643 -0.920551)
(1.62572e-16 1.03315 -0.730636)
(-4.13458e-17 -0.14843 3.83694)
(-1.22957e-14 -1.48344 2.60332)
(-1.73664e-14 -0.691234 1.91693)
(-1.89854e-14 1.44837 0.683161)
(-1.72213e-14 2.53052 0.265489)
(-1.52062e-14 2.78306 0.0826858)
(-1.19615e-14 2.44707 0.0157542)
(-6.57511e-15 1.54633 -0.0775375)
(1.56567e-15 -0.648476 0.115875)
(1.20713e-15 0.10872 0.723303)
(8.13935e-16 0.933722 0.6906)
(7.37404e-16 0.997198 0.52116)
(5.62826e-16 -0.00475685 0.312588)
(3.69447e-16 -1.33237 0.00763293)
(3.37934e-16 -1.21429 -0.466013)
(3.30695e-16 -0.43962 -0.866552)
(2.37824e-16 0.588146 -0.937899)
(2.02116e-16 0.954438 -0.812892)
(1.58952e-16 0.999939 -0.741743)
(1.14683e-16 5.94768 10.0205)
(-7.99841e-16 17.536 30.0152)
(-7.16899e-16 19.7563 32.4272)
(-7.40402e-16 18.1021 29.0349)
(-7.94842e-16 16.2406 25.2726)
(-9.9247e-16 14.9014 22.4994)
(-1.02161e-15 13.8717 20.4481)
(-1.04215e-15 13.1302 18.9684)
(-1.08713e-15 12.4608 17.6573)
(-1.19322e-15 11.7715 16.3885)
(-1.32621e-15 11.0468 15.1286)
(-1.45791e-15 10.2921 13.8747)
(-1.6323e-15 9.50401 12.633)
(-1.84683e-15 8.68603 11.3978)
(-2.09769e-15 7.82198 10.1595)
(-2.41355e-15 6.90884 8.89589)
(-2.76407e-15 5.89931 7.56764)
(-3.38816e-15 4.78645 6.13003)
(-3.29426e-15 3.39851 4.38153)
(-1.60159e-14 1.7796 2.42086)
(-1.70103e-17 5.74096 8.82826)
(-5.34326e-16 16.9432 29.415)
(-3.35924e-16 18.2321 31.1516)
(-4.08196e-16 16.0656 27.4318)
(-5.30219e-16 14.1961 24.0649)
(-6.27811e-16 12.981 21.8068)
(-4.99378e-16 12.1621 20.2365)
(-5.13893e-16 11.4742 18.8492)
(-6.76231e-16 10.7739 17.4965)
(-7.91693e-16 10.0485 16.1187)
(-8.69539e-16 9.28266 14.7209)
(-9.86706e-16 8.48727 13.3077)
(-1.11544e-15 7.65685 11.8869)
(-1.34525e-15 6.79935 10.4475)
(-1.58809e-15 5.88629 8.98145)
(-1.89936e-15 4.93281 7.44)
(-2.40533e-15 3.8338 5.78167)
(-3.27688e-15 2.66541 3.83939)
(-2.68784e-15 0.959934 1.48305)
(-3.32315e-14 -0.375306 -1.80231)
(1.44693e-18 6.12121 9.83677)
(7.60077e-18 17.5245 30.0661)
(-1.05566e-17 19.3296 32.9474)
(-1.98483e-17 17.5068 29.4535)
(-7.65785e-17 15.6154 25.9575)
(5.50843e-17 14.3789 23.4618)
(1.038e-16 13.4684 21.6374)
(7.62271e-17 12.6903 20.04)
(2.64803e-17 11.8975 18.4793)
(-6.37039e-18 11.0565 16.8893)
(-6.83014e-17 10.1638 15.2699)
(-1.19333e-16 9.22871 13.6367)
(-1.85458e-16 8.25505 12.0039)
(-2.91937e-16 7.25223 10.369)
(-3.78684e-16 6.19923 8.72747)
(-5.4904e-16 5.11095 7.03931)
(-7.07243e-16 3.89795 5.27117)
(-1.21511e-15 2.6431 3.29517)
(1.27589e-15 1.04408 1.29721)
(-2.81028e-14 -0.736969 -2.3355)
(-7.53343e-19 7.48206 11.9698)
(2.40261e-17 18.6323 30.6922)
(2.22736e-17 20.3223 33.6697)
(2.79317e-17 18.5027 30.2206)
(2.99451e-17 16.6538 26.9387)
(2.81508e-16 15.5342 24.5866)
(2.0724e-16 14.6535 22.7412)
(1.44285e-16 13.8206 20.9618)
(1.16042e-16 12.9135 19.1321)
(8.43056e-17 11.9239 17.2337)
(4.28996e-17 10.8622 15.2914)
(-7.06404e-19 9.74226 13.3303)
(-4.95529e-17 8.56866 11.368)
(-1.44882e-16 7.34837 9.40225)
(-2.37621e-16 6.05619 7.4261)
(-3.89394e-16 4.70377 5.38616)
(-6.16865e-16 3.18463 3.23904)
(-1.03902e-15 1.51963 0.662005)
(-1.9374e-15 -0.797779 -2.20824)
(-1.78923e-14 -1.63008 -4.75405)
(7.43279e-19 11.624 19.4041)
(-9.48264e-18 21.1457 33.8601)
(-1.00069e-17 20.9219 34.1227)
(-1.06731e-17 19.1968 30.8132)
(-1.30937e-17 17.7458 28.3975)
(-1.64607e-17 16.9297 26.4722)
(2.80895e-18 16.0514 24.6466)
(1.62757e-17 15.099 22.6248)
(2.63568e-17 13.9901 20.4583)
(3.67261e-17 12.7853 18.1851)
(5.12734e-17 11.4966 15.8567)
(6.62385e-17 10.141 13.4963)
(8.75305e-17 8.71395 11.1218)
(1.17566e-16 7.21312 8.7332)
(1.51031e-16 5.61817 6.34171)
(1.88729e-16 3.9334 3.91609)
(2.72477e-16 2.13185 1.61138)
(2.95607e-16 0.146909 -1.21324)
(-4.80476e-16 -2.4289 -4.22687)
(-8.91015e-15 -2.92656 -7.28139)
(-2.84326e-19 16.0574 28.0638)
(2.76452e-18 22.2235 36.0654)
(3.26541e-18 19.3858 33.0183)
(3.04326e-18 18.2741 30.5835)
(4.28449e-18 17.2762 29.4289)
(-1.05609e-18 16.6094 27.8961)
(-7.91314e-18 15.4079 25.9828)
(-1.09745e-17 14.0727 23.6086)
(-1.27064e-17 12.5044 21.0768)
(-1.387e-17 10.8839 18.4267)
(-1.25792e-17 9.15322 15.6997)
(-8.95403e-19 7.33086 12.8628)
(2.60174e-17 5.36767 9.90496)
(5.35659e-17 3.24263 6.7636)
(4.65108e-17 1.07212 3.46531)
(3.16734e-17 -1.57558 -0.228415)
(1.56881e-16 -3.68928 -3.27612)
(3.96191e-16 -2.72318 -4.01224)
(3.12109e-16 -5.42259 -6.56992)
(-5.00709e-15 -4.55102 -9.57542)
(8.17038e-20 17.426 31.5984)
(-8.18824e-19 19.5617 33.2135)
(-9.04711e-19 16.5068 30.1956)
(-8.69043e-19 16.1692 29.1865)
(-1.16911e-18 15.0859 28.4071)
(1.34695e-18 14.0476 26.7579)
(3.4829e-18 12.3517 24.5654)
(5.06106e-18 10.5874 21.9173)
(6.92504e-18 8.66113 19.2147)
(1.05564e-17 6.76703 16.4396)
(2.42906e-17 4.79151 13.5927)
(6.23712e-17 2.79532 10.6492)
(1.23134e-16 0.787265 7.6709)
(1.56063e-16 -1.12172 4.74492)
(1.1831e-16 -2.70351 2.24071)
(9.1968e-17 -3.81824 0.3904)
(-1.73138e-17 -4.87345 -1.69616)
(-7.36434e-16 -5.75282 -4.20078)
(-2.05594e-15 -5.0523 -4.51189)
(-2.29791e-15 -1.56366 -1.0499)
(-8.78058e-21 15.1738 27.6858)
(2.29767e-19 16.9252 29.9679)
(2.56756e-19 14.6917 27.3797)
(2.80388e-19 13.7059 25.8251)
(6.3877e-20 12.3872 24.7649)
(-9.57242e-19 11.0595 23.1316)
(-1.11364e-18 9.25522 21.0271)
(4.76961e-19 7.37449 18.5171)
(3.28418e-18 5.39715 15.9343)
(5.83385e-18 3.45624 13.3107)
(7.95023e-18 1.51842 10.6951)
(7.18416e-18 -0.306797 8.17874)
(-8.44053e-18 -1.88606 5.96172)
(-8.60665e-17 -3.05779 4.18358)
(-3.56149e-16 -3.6946 2.91766)
(-9.1388e-16 -3.44114 2.68197)
(-1.49e-15 -1.54252 4.64987)
(-1.50408e-15 2.37269 9.16916)
(-7.41166e-16 6.69066 13.8904)
(1.4015e-16 6.25797 12.7032)
(-8.63208e-22 13.1873 23.5933)
(-5.98673e-20 16.7645 29.1579)
(-6.99837e-20 14.2883 25.576)
(-6.60435e-20 12.8863 22.6392)
(1.98031e-20 11.4621 21.1022)
(1.70568e-19 10.433 19.3362)
(3.88335e-19 9.00343 17.4935)
(2.12898e-18 7.63238 15.2499)
(6.50325e-18 6.14393 12.8981)
(8.87553e-18 4.75837 10.4775)
(-1.21187e-17 3.48715 8.17758)
(-1.15714e-16 2.49834 6.21772)
(-3.94745e-16 1.97211 4.97466)
(-8.54316e-16 2.1808 4.95011)
(-1.25902e-15 3.40063 6.6199)
(-1.26236e-15 5.59083 9.87105)
(-7.59571e-16 8.19401 13.7613)
(3.01107e-18 10.1695 16.9879)
(5.54679e-16 10.931 17.7707)
(3.66417e-16 7.75359 14.1031)
(1.7875e-22 12.8343 22.7465)
(1.42669e-20 17.7616 29.9808)
(1.70556e-20 15.2357 26.6735)
(1.73133e-20 13.9471 23.0609)
(-3.63607e-21 12.4791 21.2548)
(-5.57381e-20 11.8401 19.4092)
(-1.04227e-19 10.8906 17.9478)
(-3.01045e-19 10.2151 16.3916)
(-3.88552e-19 9.4973 14.9094)
(7.98448e-19 8.88167 13.3993)
(2.9881e-18 8.3171 11.8805)
(-6.85708e-20 7.80585 10.3507)
(-2.50243e-17 7.38281 8.91201)
(-8.63154e-17 7.10597 7.79109)
(-1.69422e-16 7.10135 7.32337)
(-1.87397e-16 7.39547 7.83205)
(-4.96491e-17 7.93552 9.20628)
(1.97543e-16 8.22132 10.8144)
(3.16591e-16 7.75239 11.2586)
(9.4965e-17 5.32801 8.7056)
(-2.04937e-23 13.3516 23.658)
(-3.34341e-21 18.6774 30.9797)
(-4.13123e-21 15.8582 27.6853)
(-4.39649e-21 14.7765 24.1925)
(7.69397e-23 13.3726 22.5298)
(1.41374e-20 12.8218 20.7265)
(3.1765e-20 11.9404 19.2413)
(6.61201e-20 11.2586 17.6948)
(-5.73554e-21 10.5528 16.2583)
(-5.02444e-19 9.89937 14.8795)
(-1.2032e-18 9.27488 13.5465)
(-1.98406e-19 8.66824 12.2411)
(6.06571e-18 8.07383 10.9433)
(1.99301e-17 7.48442 9.65906)
(4.11684e-17 6.90304 8.4469)
(6.57133e-17 6.36533 7.44346)
(8.5687e-17 5.84902 6.80195)
(8.41853e-17 5.34276 6.40009)
(3.30798e-17 4.27289 5.73107)
(-4.91491e-17 2.17605 2.478)
(-5.59498e-24 14.2706 25.484)
(7.72281e-22 19.3442 31.5665)
(9.83563e-22 15.9694 28.138)
(1.08306e-21 15.3199 24.8532)
(1.80595e-22 13.8064 23.4311)
(-3.06742e-21 13.3571 21.5776)
(-7.10681e-21 12.3767 20.117)
(-1.40553e-20 11.6791 18.4962)
(-3.15263e-21 10.8887 16.9857)
(8.45335e-20 10.1505 15.4872)
(2.34665e-19 9.4154 14.0302)
(1.60536e-19 8.68311 12.6052)
(-6.72863e-19 7.94001 11.208)
(-2.62553e-18 7.1786 9.82217)
(-5.71989e-18 6.36234 8.43498)
(-9.96441e-18 5.50405 7.01035)
(-1.62202e-17 4.49083 5.56073)
(-2.69059e-17 3.41358 3.9095)
(-4.2371e-17 1.58425 1.87718)
(-6.31575e-17 -0.0337866 -1.8069)
(4.03294e-24 15.558 28.3035)
(-1.78492e-22 19.8382 31.786)
(-2.31766e-22 16.0114 28.7099)
(-2.62906e-22 16.0583 25.7466)
(-8.6646e-23 14.3278 24.5462)
(6.31673e-22 14.0776 22.5993)
(1.41954e-21 13.0019 21.2091)
(2.60271e-21 12.4144 19.5857)
(1.9094e-21 11.6486 18.1279)
(-8.49419e-21 10.9687 16.6116)
(-2.98381e-20 10.2334 15.0644)
(-3.16556e-20 9.43385 13.4259)
(4.74156e-20 8.52204 11.6835)
(2.52465e-19 7.48841 9.83287)
(5.8264e-19 6.31025 7.90532)
(1.02259e-18 5.04378 5.89264)
(1.72181e-18 3.57179 3.82138)
(2.85565e-18 2.04122 1.41907)
(6.17845e-18 -0.351416 -1.20445)
(-3.53408e-17 -1.60004 -4.98144)
(-1.48209e-24 16.665 31.1543)
(4.22292e-23 19.847 31.4043)
(5.58718e-23 15.9183 29.341)
(6.59205e-23 16.6434 26.6807)
(2.93338e-23 14.589 25.6956)
(-1.42796e-22 14.6135 23.7181)
(-3.33609e-22 13.401 22.5101)
(-5.59926e-22 13.004 20.9649)
(-5.5779e-22 12.2493 19.6699)
(6.72727e-22 11.6626 18.2102)
(3.52123e-21 10.8865 16.6096)
(4.67291e-21 9.92499 14.6816)
(-3.36105e-21 8.67924 12.4259)
(-2.68172e-20 7.21964 9.93646)
(-6.28516e-20 5.61075 7.36909)
(-1.00376e-19 3.94691 4.73352)
(-1.25418e-19 2.07891 2.12401)
(-3.49457e-19 0.221348 -0.9093)
(5.70122e-18 -2.46335 -3.81971)
(-1.25965e-17 -3.03073 -7.59327)
(4.24154e-25 16.9964 32.6547)
(-1.06197e-23 19.2035 30.3463)
(-1.30588e-23 15.5085 29.4848)
(-1.46823e-23 16.4675 26.954)
(-1.01377e-23 14.1333 26.1142)
(1.55326e-23 14.2458 24.1911)
(2.56071e-23 12.8431 23.1793)
(2.49349e-23 12.5027 21.7608)
(3.59521e-23 11.5973 20.6441)
(2.13979e-22 10.9156 19.1869)
(1.15424e-21 9.79094 17.3548)
(2.44919e-21 8.31869 14.8024)
(-2.14773e-21 6.45059 11.7393)
(-2.09402e-20 4.55297 8.624)
(-3.81636e-20 2.77494 5.68693)
(1.6038e-21 0.83335 2.60833)
(1.15003e-20 -1.31915 -0.266327)
(-4.74337e-19 -1.24099 -2.09003)
(1.90737e-18 -4.46872 -5.31016)
(-9.74743e-20 -4.09159 -8.75295)
(-1.04108e-25 16.3408 32.0008)
(2.94534e-24 18.4586 29.1861)
(4.56459e-24 14.8619 28.6388)
(5.56266e-24 15.6411 26.1366)
(-2.65692e-24 13.3943 25.2435)
(-3.24822e-23 13.2188 23.4422)
(-7.98459e-23 11.8874 22.3699)
(-1.39386e-22 11.2921 21.045)
(-9.7432e-23 10.3152 19.8906)
(6.2992e-22 9.38385 18.4019)
(2.815e-21 8.03498 16.4013)
(2.79516e-21 6.36468 13.7086)
(-1.41391e-20 4.5721 10.7789)
(-5.39041e-20 3.0437 8.15648)
(-5.51451e-20 1.6658 5.68406)
(1.30273e-19 0.0277375 2.75948)
(6.59061e-19 -2.06149 -0.830019)
(1.64844e-18 -4.01418 -4.28012)
(3.1572e-18 -4.96437 -5.75734)
(2.96357e-18 -2.27946 -2.80749)
(1.34546e-26 15.3005 30.8247)
(-6.68853e-25 18.0713 27.9755)
(-3.01687e-25 13.9756 27.4919)
(-3.58599e-25 14.9406 24.8832)
(-3.91632e-24 12.6721 23.9516)
(-1.57366e-23 12.3989 22.133)
(-4.4849e-23 11.1329 20.9396)
(-9.78403e-23 10.4327 19.5639)
(-9.78962e-23 9.4945 18.3349)
(4.22108e-22 8.60206 16.9359)
(2.13884e-21 7.52843 15.2777)
(2.31592e-21 6.36824 13.3007)
(-1.10593e-20 5.25213 11.2357)
(-4.32358e-20 4.2747 9.25059)
(-1.98301e-20 3.24357 7.0962)
(2.86832e-19 2.00593 4.48021)
(1.11526e-18 0.896858 1.78037)
(2.38074e-18 -0.159884 -0.516888)
(3.15204e-18 -0.474995 -1.06891)
(1.60839e-18 3.47797 6.93331)
(3.61167e-27 14.0786 30.4765)
(2.98027e-25 17.9779 27.1828)
(6.98832e-25 13.1802 27.0914)
(7.33782e-25 14.2196 24.6099)
(-2.47803e-24 12.0778 23.6401)
(-1.29617e-23 11.6584 21.9619)
(-3.50296e-23 10.5321 20.7086)
(-7.58683e-23 9.81669 19.3507)
(-1.25692e-22 9.00554 18.1164)
(-6.9996e-23 8.30003 16.8759)
(4.30384e-22 7.59842 15.6266)
(1.67241e-21 6.92981 14.2947)
(2.35319e-21 6.26685 12.8454)
(-3.27426e-21 5.60443 11.2756)
(-2.45182e-20 4.94307 9.60853)
(-5.91877e-20 4.2473 7.74615)
(-7.10535e-20 3.22484 5.29692)
(-6.5233e-20 1.69723 1.67949)
(1.0317e-18 -0.11944 -1.81037)
(1.54325e-18 -0.318634 -2.29781)
(2.66423e-27 11.1994 28.6424)
(-5.96901e-26 17.0821 24.9499)
(2.50632e-27 12.0153 25.3424)
(1.44995e-25 12.7246 23.5884)
(-4.24669e-25 10.9911 22.8189)
(-3.75973e-24 10.3597 21.696)
(-1.32586e-23 9.39245 20.7527)
(-3.69561e-23 8.65569 19.782)
(-9.40406e-23 7.93089 18.8661)
(-1.95212e-22 7.29858 17.9741)
(-2.31963e-22 6.71682 17.0992)
(1.68198e-22 6.17955 16.2001)
(1.32731e-21 5.66325 15.2368)
(2.15756e-21 5.15586 14.17)
(-5.29273e-22 4.63453 12.9336)
(-4.6711e-21 3.99459 11.3649)
(2.18403e-20 2.9805 9.01917)
(1.67017e-19 1.24058 4.99993)
(4.99874e-19 -1.30651 -0.802489)
(7.54329e-19 -2.40455 -4.58692)
(7.08621e-27 2.62147 17.108)
(2.03942e-26 8.04634 13.7023)
(1.00843e-26 5.17067 14.559)
(2.99295e-26 4.98054 14.1699)
(7.70286e-26 4.06217 14.1331)
(-2.25967e-25 3.50252 13.9637)
(-2.00166e-24 2.93526 13.8114)
(-7.33975e-24 2.4735 13.6258)
(-2.01599e-23 2.07237 13.4179)
(-4.85355e-23 1.74091 13.1804)
(-1.01356e-22 1.47406 12.9148)
(-1.54168e-22 1.27555 12.6237)
(-6.75136e-23 1.14791 12.31)
(4.36089e-22 1.10179 11.9716)
(1.41766e-21 1.15257 11.603)
(1.84451e-21 1.26788 11.2167)
(-6.5257e-22 1.46553 10.7536)
(-6.6472e-21 2.01525 9.8645)
(-9.26617e-21 2.18798 8.41379)
(-1.32356e-21 -0.271537 6.20508)
(-6.6794e-27 -2.62148 17.108)
(-1.95908e-26 -8.04633 13.7023)
(-1.13149e-26 -5.17065 14.5591)
(-3.83085e-26 -4.9805 14.1699)
(-9.17007e-26 -4.06211 14.1332)
(2.49818e-25 -3.50242 13.9638)
(2.20463e-24 -2.93514 13.8115)
(7.96564e-24 -2.47333 13.626)
(2.14734e-23 -2.07215 13.418)
(5.06997e-23 -1.74065 13.1805)
(1.04292e-22 -1.47379 12.915)
(1.5697e-22 -1.27529 12.6238)
(6.6632e-23 -1.14766 12.3102)
(-4.48586e-22 -1.10155 11.9719)
(-1.44834e-21 -1.15235 11.6033)
(-1.87606e-21 -1.26765 11.2172)
(6.85037e-22 -1.46528 10.7541)
(6.811e-21 -2.01517 9.86498)
(9.47514e-21 -2.18826 8.41433)
(1.35451e-21 0.271372 6.20582)
(-2.73631e-27 -11.1996 28.6426)
(5.6923e-26 -17.0822 24.9502)
(-1.18391e-26 -12.0155 25.3427)
(-1.69114e-25 -12.7247 23.5888)
(4.27303e-25 -10.9912 22.8193)
(3.97801e-24 -10.3599 21.6965)
(1.41323e-23 -9.39261 20.7532)
(3.92908e-23 -8.65586 19.7825)
(9.90497e-23 -7.93106 18.8666)
(2.03852e-22 -7.2987 17.9745)
(2.42054e-22 -6.71686 17.0994)
(-1.66586e-22 -6.17949 16.2002)
(-1.34825e-21 -5.6631 15.2368)
(-2.18965e-21 -5.15571 14.1701)
(5.55648e-22 -4.63439 12.9338)
(4.74734e-21 -3.99432 11.365)
(-2.24516e-20 -2.97966 9.01816)
(-1.70888e-19 -1.23838 4.99663)
(-5.108e-19 1.3098 -0.807054)
(-7.70683e-19 2.4065 -4.59032)
(-2.74309e-27 -14.0787 30.4769)
(-2.98878e-25 -17.9784 27.183)
(-7.14571e-25 -13.1805 27.0917)
(-7.61003e-25 -14.2202 24.6101)
(2.5798e-24 -12.0783 23.6403)
(1.35699e-23 -11.6591 21.962)
(3.67796e-23 -10.5328 20.7086)
(7.94397e-23 -9.81754 19.3505)
(1.30999e-22 -9.00653 18.1162)
(7.41391e-23 -8.30125 16.8756)
(-4.36229e-22 -7.59996 15.6266)
(-1.70112e-21 -6.93167 14.2951)
(-2.39484e-21 -6.26889 12.8463)
(3.33147e-21 -5.60646 11.2767)
(2.49713e-20 -4.94496 9.60972)
(6.03524e-20 -4.24897 7.74716)