/*--------------------------------*- C++ -*----------------------------------*\
| =========                 |                                                 |
| \\      /  F ield         | OpenFOAM: The Open Source CFD Toolbox           |
|  \\    /   O peration     | Version:  4.1                                   |
|   \\  /    A nd           | Web:      www.OpenFOAM.org                      |
|    \\/     M anipulation  |                                                 |
\*---------------------------------------------------------------------------*/
FoamFile
{
    version     2.0;
    format      ascii;
    class       volScalarField;
    location    "14";
    object      p;
}
// * * * * * * * * * * * * * * * * * * * * * * * * * * * * * * * * * * * * * //

dimensions      [0 2 -2 0 0 0 0];

internalField   nonuniform List<scalar> 
1280
(
-3.79626
0.0762425
-0.56944
-1.40861
-0.647352
-0.781381
-1.15098
-1.13296
-0.833072
-0.975269
-1.43304
-1.06885
-1.38615
-2.05656
-1.83948
-2.47112
-3.52925
-2.96182
-3.06784
-6.19197
-3.59955
2.3181
8.19872
10.0931
11.7133
15.9292
9.17913
31.3128
33.2506
35.8504
38.324
40.7312
43.2261
45.6719
48.2092
50.5272
53.2847
55.1221
59.8177
58.5105
15.9198
19.2102
18.8959
19.4607
18.7939
19.0185
19.0433
19.1691
18.9883
19.0572
19.2754
21.1408
15.9645
13.3898
14.7864
23.0409
-1.20354
-4.26995
-11.7576
-37.7809
16.7881
19.4793
11.8937
6.74272
2.14098
-0.0353265
-0.494194
0.434376
1.75584
2.89144
3.8325
4.47072
5.00068
-4.36588
33.4086
27.4947
22.9297
13.5027
-4.54937
-21.2826
-31.1451
-18.3072
-14.73
-15.4041
-11.0495
-8.64424
-10.2142
-7.28422
-6.46843
-7.57343
-5.5703
-5.20076
-6.10611
-6.02266
-4.60988
-4.42557
-6.5654
-3.4077
-1.79321
-14.6051
27302.9
-4837.2
-6724.62
-82.1055
-508.909
-17.8049
7.73403
67.6025
18.8065
-4.83158
-22.4548
-7.07608
-0.666813
-1.76466
-2.00387
-2.57666
-3.22867
-4.29027
-5.68204
-17288.5
-730.166
-3568.73
-348.586
-214.482
-101.292
-108.041
-47.06
-18.4404
-19.7997
-22.5228
-0.936649
0.667018
-0.450924
-0.592262
-0.948947
-1.70944
-2.47238
-3.36043
49.0655
-2673.89
135.752
-197.339
-158.378
-103.959
-85.9077
-8.257
-7.11271
-18.2727
-13.9571
1.63331
0.860339
0.0226546
0.393799
0.444264
-0.512657
-1.08192
-1.20647
-4373.59
-2798.66
-813.494
3.03065
-166.447
-128.819
-143.465
-51.7182
-22.2748
-26.3961
-16.4577
0.631314
0.741893
-0.280256
-0.0503308
0.462305
-0.92587
-1.80083
-1.82342
-1265.36
-1801.27
-358.602
-119.645
-183.019
-164.69
-166.325
-54.6133
-19.5823
-22.0244
-12.2475
3.08027
1.06177
-0.981902
-0.348052
1.11215
-0.971521
-1.82439
-1.70165
-1518.58
-1652.12
-103.053
-255.373
-208.536
-201.648
-211.535
-75.9807
-19.0163
-14.0052
-2.50764
11.6
1.77182
-2.95751
-0.849886
2.11113
-1.05605
-1.75848
-2.43139
-536.083
-1090.69
150.563
-281.524
-217.939
-209.679
-228.202
-79.9118
-6.51804
0.929238
9.05593
23.6305
2.40402
-3.87534
-0.683066
3.22549
-1.04291
-0.910426
-2.96628
-236.434
-729.246
393.373
-258.864
-214.607
-204.161
-226.51
-80.5014
11.1302
17.41
19.4948
32.206
4.25203
-4.12548
0.816887
3.77659
-1.97245
-1.59782
-0.765425
108.212
-433.864
607.674
-136.609
-168.734
-193.175
-224.232
-67.4375
33.81
35.378
28.2452
34.2809
7.7221
-3.61934
1.97124
5.04259
-0.948975
-2.64589
21.4104
228.946
-240.948
777.406
-25.3651
-139.107
-179.75
-205.303
-37.4096
56.1359
51.8444
36.8233
34.5457
11.6313
-2.75097
1.45336
6.9263
3.84836
9.01286
23
249.993
-183.454
821.042
14.5036
-122.651
-155.364
-163.548
-4.65198
71.6043
61.6728
43.8438
32.9819
10.6548
-4.78281
1.14517
9.82771
7.29688
17.8533
22.4332
189.667
-293.702
721.049
-49.2573
-150.392
-159.284
-143.406
6.22448
73.54
62.8229
46.5273
31.4168
8.14998
-10.0498
-3.57825
12.945
12.4031
26.8718
23.4567
-80.0419
-531.199
515.769
-149.091
-190.827
-179.11
-153.643
-0.731598
67.0649
58.9205
42.3601
25.9655
-0.720455
-21.3027
-7.27418
22.7225
11.8082
6.08364
-6.44595
-331.53
-839.043
289.296
-254.338
-224.246
-189.771
-160.198
-8.37976
56.0546
52.8437
34.6543
19.6887
-8.44578
-23.4638
-8.82465
17.8764
2.77301
-10.6916
-10.7132
-1207.99
-1365.41
19.0857
-283.669
-229.896
-198.519
-161.099
-14.4924
38.5305
41.0458
23.1018
9.74006
-19.1223
-27.2484
-12.2494
11.1403
3.70448
-3.22381
-3.13011
-1023.63
-1524.09
-256.058
-224.62
-218.354
-182.657
-141.176
-12.959
25.1592
33.4969
20.1728
7.08197
-26.1798
-31.5687
-14.4743
4.03056
2.0527
-0.195832
-2.11478
-3845.43
-2461.88
-700.469
-113.308
-195.051
-140.365
-112.097
-19.1634
7.17288
14.8611
-0.122443
-10.5019
-37.0732
-35.6693
-14.0372
0.464872
0.773545
-0.304883
-0.262968
102.69
-2394.07
199.484
-186.561
-175.111
-100.576
-64.0117
5.91441
14.8224
26.2858
20.8992
8.34898
-26.8782
-35.8931
-7.79126
0.519145
0.542986
-0.0114011
0.0683104
-15554.2
-709.218
-3039.08
-222.4
-209.14
-73.5263
-71.7899
-30.5912
-16.3022
-28.2835
-47.5589
-46.6452
-39.1783
-42.2199
-14.1698
-2.44207
0.157869
0.0770643
-0.362346
24789.9
-4353.52
-5723.73
-37.7797
-496.267
-26.7889
4.92449
54.9531
55.3859
89.5744
83.3696
52.5305
2.27429
-26.0834
-26.6361
-7.99287
-1.39583
-0.254104
-1.14011
76.3412
75.4002
74.6527
73.6915
72.5971
71.347
70.0484
69.2197
68.71
68.2239
67.9002
67.6828
67.587
67.5878
67.7102
67.9156
68.2442
68.6564
69.2003
69.8389
65.6542
65.9184
65.9901
66.087
66.1797
66.2014
66.2154
66.1608
66.1089
66.0395
65.9652
65.8792
65.8038
65.7162
65.6522
65.5691
65.5282
65.4527
65.4156
65.3643
70.1467
69.9548
69.8789
69.7329
69.6258
69.4971
69.3857
69.2697
69.1661
69.0578
68.9635
68.8643
68.7804
68.6885
68.6171
68.5284
68.4717
68.3743
68.3504
68.2157
69.2665
69.2314
69.2179
69.1817
69.1656
69.1259
69.1001
69.0575
69.0236
68.9784
68.9396
68.8914
68.8516
68.8003
68.7636
68.7085
68.6798
68.6191
68.604
68.5328
70.5151
70.4287
70.403
70.3362
70.2994
70.2411
70.1991
70.1451
70.1006
70.0485
70.0033
69.9512
69.9071
69.8531
69.8123
69.7538
69.7198
69.6529
69.6313
69.5459
70.9057
70.8439
70.8284
70.7788
70.7547
70.7106
70.6812
70.6401
70.6076
70.5679
70.5341
70.4941
70.4608
70.4188
70.3884
70.3419
70.3176
70.2629
70.2499
70.1803
71.6309
71.563
71.5449
71.492
71.465
71.419
71.3874
71.3452
71.3112
71.271
71.2362
71.1965
71.1625
71.1213
71.0904
71.0452
71.0206
70.9673
70.9543
70.8864
72.1912
72.1296
72.1136
72.0652
72.0409
71.9987
71.9699
71.9314
71.9001
71.8636
71.8313
71.7953
71.7637
71.7263
71.6976
71.6562
71.6335
71.5844
71.5728
71.5098
72.7894
72.729
72.7127
72.6654
72.6413
72.6001
72.5717
72.5343
72.5035
72.4682
72.4364
72.4018
72.3706
72.335
72.3065
72.2673
72.2447
72.1978
72.1862
72.1257
73.3412
73.284
73.2685
73.2235
73.2004
73.1614
73.1342
73.0987
73.0691
73.0357
73.0051
72.9727
72.9424
72.9091
72.8812
72.8446
72.8223
72.7783
72.7668
72.7092
73.8813
73.8264
73.8111
73.7679
73.7455
73.708
73.6816
73.6476
73.6189
73.5871
73.5573
73.5265
73.4968
73.4655
73.4379
73.4036
73.3813
73.3398
73.3281
73.2732
74.3951
74.3428
74.328
74.2868
74.2652
74.2294
74.2041
74.1716
74.1441
74.1138
74.085
74.056
74.0269
73.9978
73.9705
73.9387
73.9164
73.8776
73.8657
73.8135
74.8884
74.8387
74.8241
74.7849
74.7639
74.7297
74.7053
74.6743
74.6478
74.619
74.5912
74.5638
74.5354
74.5084
74.4812
74.452
74.4295
74.3936
74.3813
74.3319
75.3607
75.3136
75.2993
75.2619
75.2416
75.2089
75.1855
75.1558
75.1303
75.1027
75.0759
75.0499
75.0223
74.9972
74.9701
74.9435
74.9204
74.8877
74.8746
74.828
75.8116
75.7677
75.7538
75.7187
75.6994
75.6684
75.6463
75.6182
75.5938
75.5678
75.5421
75.5175
75.4908
75.4674
75.4403
75.4165
75.3925
75.3631
75.3488
75.3053
76.2303
76.1898
76.1764
76.1437
76.1262
76.0972
76.0768
76.0511
76.0286
76.0049
75.9813
75.9587
75.9341
75.9131
75.887
75.8669
75.842
75.8171
75.8015
75.7621
76.6251
76.5878
76.5731
76.5409
76.5247
76.4963
76.4761
76.4519
76.4298
76.4073
76.385
76.3635
76.3409
76.3216
76.2971
76.2811
76.2555
76.2373
76.2215
76.1873
77.0245
76.9972
76.9858
76.9534
76.9404
76.9149
76.8952
76.8727
76.8505
76.8276
76.8041
76.7802
76.7551
76.7313
76.703
76.6828
76.6487
76.6336
76.6075
76.5698
77.2985
77.2894
77.3045
77.2839
77.2841
77.2767
77.2721
77.2668
77.2612
77.2548
77.2471
77.2376
77.2256
77.2109
77.1906
77.1696
77.1311
77.1098
77.0378
76.9809
77.2638
77.2056
77.2437
77.2544
77.2719
77.2896
77.3085
77.3292
77.3518
77.3769
77.4048
77.4358
77.4706
77.5094
77.5529
77.6019
77.6546
77.7233
77.7646
77.9277
764.045
681.85
632.943
577.058
528.348
481.366
437.676
396.394
357.51
320.724
285.859
252.723
221.125
191.011
162.452
134.686
107.729
85.3911
60.3951
24.4655
82.6616
60.557
68.8218
58.0377
55.5484
49.1423
44.4373
39.3776
35.0148
31.1151
27.9395
25.5594
24.1438
23.8919
24.9933
27.2035
30.1928
34.3402
38.3843
39.7142
72.357
64.921
72.9345
65.6957
67.6205
64.0749
62.7199
60.0367
57.6597
54.9772
52.3045
49.6293
47.1366
45.0682
43.6115
42.5236
41.6727
40.9271
39.4129
37.483
52.5574
46.2622
47.5557
39.6326
38.5942
32.6713
29.3993
24.7085
20.7627
16.5616
12.6289
8.81594
5.38765
2.57168
0.629304
-0.682865
-1.67494
-2.4941
-3.88395
-3.12632
9.76937
5.51176
7.41408
2.98926
4.48579
1.40066
1.45854
-0.212737
-0.836394
-1.8035
-2.44253
-2.97991
-3.22367
-3.02536
-2.24026
-0.90358
0.324682
1.9082
3.15296
6.31883
19.9403
19.0974
22.689
20.969
24.5783
23.8717
26.2495
26.8807
28.4795
29.7401
31.1828
32.6412
34.1553
35.7812
37.5281
39.5609
41.6859
44.3505
46.7366
50.2828
50.6803
51.881
55.3408
54.7892
58.4592
58.6725
61.278
62.5552
64.4836
66.2097
68.0054
69.823
71.6464
73.5001
75.3696
77.3326
79.3005
81.4815
83.2618
85.4996
79.0799
80.7161
83.2605
83.0693
85.99
86.2734
88.3747
89.3321
90.7428
91.8212
92.8007
93.5932
94.2454
94.8797
95.6962
96.8277
98.2552
99.833
101.039
102.161
93.9214
95.2904
96.715
96.6436
98.5987
98.687
100.271
100.868
101.993
102.731
103.5
104.117
104.64
104.95
104.919
104.359
103.433
102.283
102.128
101.624
110.383
109.198
109.808
108.534
109.396
108.414
108.837
108.054
107.719
106.629
105.284
103.167
100.29
96.5159
92.2037
87.8978
84.4394
82.8887
82.4412
78.796
67.2407
61.6567
60.0317
55.6539
53.3786
49.2472
46.2644
42.2971
38.9845
35.4769
32.6022
30.0654
28.1922
26.8997
26.2561
25.9964
25.7697
25.4514
24.0676
21.485
19.4176
13.9479
12.7087
9.15205
7.24858
3.93646
1.58567
-1.56139
-4.18144
-6.96746
-9.41361
-11.7883
-13.9834
-16.0148
-17.735
-19.1239
-19.956
-19.9627
-19.7506
-17.1054
6.50219
5.07871
5.06401
3.57343
3.41134
2.15101
1.66821
0.583437
-0.149822
-0.970447
-1.50707
-1.78343
-1.63982
-0.945913
0.379603
2.47791
5.03544
8.12758
10.4299
14.0293
25.3279
26.9589
29.0832
30.2907
32.1348
33.3672
35.0674
36.5523
38.2271
39.9236
41.7164
43.6058
45.5863
47.68
49.8204
52.0452
54.1509
56.3252
57.9862
60.5286
43.919
46.3356
49.0754
51.2626
53.4888
55.2102
57.1113
58.7871
60.4729
62.0736
63.6116
65.09
66.4944
67.8459
69.1126
70.3606
71.4836
72.714
73.5851
74.8386
65.5042
67.8331
69.5173
71.1925
72.7506
74.0072
75.3819
76.5584
77.7348
78.8243
79.8595
80.8482
81.8004
82.7512
83.7171
84.7755
85.8499
87.1146
88.0646
89.3932
84.1698
86.0758
86.5733
87.6105
88.3467
89.0453
89.8172
90.463
91.1538
91.8189
92.5182
93.2684
94.1116
95.0639
96.1376
97.2879
98.4464
99.5962
100.43
101.38
107.368
107.894
107.096
107.538
107.739
108.135
108.515
108.946
109.419
109.802
110.017
109.914
109.346
108.162
106.519
104.798
103.742
103.184
103.344
102.772
99.1273
99.7789
98.7557
98.665
98.1793
97.947
97.771
97.4884
96.9312
95.9921
94.6312
92.7868
90.4639
87.759
85.0876
82.9033
81.4688
80.5737
80.6427
79.3399
128.015
126.156
124.312
121.983
118.926
115.719
111.984
107.551
102.751
98.3077
94.2289
90.6422
87.6242
85.1277
83.0297
81.1443
79.2838
77.4414
76.3824
74.0411
)
;

boundaryField
{
    outletWall
    {
        type            fixedValue;
        value           uniform 0;
    }
    fineWalls
    {
        type            zeroGradient;
    }
    fineFrontAndBack
    {
        type            zeroGradient;
    }
    fineplugLeft
    {
        type            cyclicAMI;
        value           nonuniform List<scalar> 
20
(
67.5732
67.3237
65.9495
65.2523
64.4379
63.81
63.2046
62.7148
62.2924
61.985
61.7492
61.6181
61.6383
63.1271
60.2635
60.4204
60.9718
61.3619
60.7838
60.353
)
;
    }
    fineplugRight
    {
        type            cyclicAMI;
        value           nonuniform List<scalar> 
20
(
62.5905
65.0018
64.3319
64.7756
65.3437
66.4167
68.0033
70.1862
72.8649
75.9614
79.4127
83.0946
87.0408
98.754
99.2566
100.639
102.172
102.15
100.015
98.1556
)
;
    }
    inletOutletLeft
    {
        type            cyclicAMI;
        value           nonuniform List<scalar> 
20
(
67.5732
67.3237
65.9495
65.2523
64.4379
63.81
63.2046
62.7148
62.2924
61.985
61.7492
61.6181
61.6383
63.1271
60.2635
60.4204
60.9718
61.3619
60.7838
60.353
)
;
    }
    inletLeft
    {
        type            zeroGradient;
    }
    inletWallsLeft
    {
        type            zeroGradient;
    }
    inletFacesLeft
    {
        type            zeroGradient;
    }
    inletOutletRight
    {
        type            cyclicAMI;
        value           nonuniform List<scalar> 
20
(
62.5905
65.0018
64.3319
64.7756
65.3437
66.4167
68.0033
70.1862
72.8649
75.9614
79.4127
83.0946
87.0408
98.754
99.2566
100.639
102.172
102.15
100.015
98.1556
)
;
    }
    inletRight
    {
        type            zeroGradient;
    }
    inletWallsRight
    {
        type            zeroGradient;
    }
    inletFacesRight
    {
        type            zeroGradient;
    }
}


// ************************************************************************* //
