/*--------------------------------*- C++ -*----------------------------------*\
| =========                 |                                                 |
| \\      /  F ield         | OpenFOAM: The Open Source CFD Toolbox           |
|  \\    /   O peration     | Version:  4.1                                   |
|   \\  /    A nd           | Web:      www.OpenFOAM.org                      |
|    \\/     M anipulation  |                                                 |
\*---------------------------------------------------------------------------*/
FoamFile
{
    version     2.0;
    format      ascii;
    class       surfaceScalarField;
    location    "14";
    object      phi;
}
// * * * * * * * * * * * * * * * * * * * * * * * * * * * * * * * * * * * * * //

dimensions      [0 3 -1 0 0 0 0];

internalField   nonuniform List<scalar> 
2360
(
3120.4
3064.55
55.8577
3064.55
3064.55
3206.82
-142.267
3206.82
3206.83
3206.83
3430.95
-224.114
3430.95
3430.95
3872.62
-441.656
3872.62
3872.64
4836.75
-964.112
4836.79
4836.77
7183.57
-2346.76
7183.58
7183.62
7713.84
8671.34
9651.95
10608
11563.5
12527.1
2152.9
11374.9
3180.74
4212.16
5246.11
6281.33
7317.05
8352.39
9387.31
10421
11453.4
12484.5
13538.6
14623.3
15307.8
-693.197
16001
-693.199
-693.171
-693.159
-434.575
-258.547
-434.542
-434.469
-434.476
-2843.07
2408.62
-2843.07
-2843.05
-11635.6
8792.58
-11635.6
-11635.6
-11635.6
-22104.3
10468.7
-22104.3
-22104.3
-22104.3
-29887.5
7783.2
-29243.6
-28402.2
-27641.3
-27038.3
-26553.2
-26100.6
-25600.4
-24992.7
-24244.7
-23359.5
-22349.7
-21225.3
-19994.9
-23665.5
5002.89
-22250.6
-20744.9
-19154.8
-17541.8
-16105.8
-15390.3
-15390.3
-15390.3
-11291.2
-4099.06
-11291.2
-11291.2
-8850.44
-2440.77
-8850.45
-8850.44
-7336.03
-1514.42
-7336.03
-7336.03
-6453.33
-882.701
-6453.33
-6453.33
-6453.33
-6144.58
-308.747
-6144.58
-6144.58
-6240.99
96.4103
-76753.5
-261954
70189
-28219.9
-56452.6
231600
-38344.9
-12696.6
-10243.1
10472.1
-18789.1
11585.6
-13771.9
-6113.96
-5163.28
-18532.8
4703.63
-14294.5
6245.75
1113.92
921.321
11495
-1592.2
6117.34
-353.418
-217.433
92.3042
1932.17
116.435
2445.59
122.313
2823.94
199.106
3213.84
64.5868
3914.57
4554.13
-46625.4
-176989
-48433.3
-26412
-29456.6
212623
-32615.6
-9537.62
-16263
-5880.41
-16553.1
11875.6
-9415.23
-13251.9
-6767.83
-21180.2
-2083.2
-18979.2
2540.69
-3509.97
1606.92
12428.7
-1643.76
9368.02
-558.995
-1302.2
388.898
984.283
315.035
2519.46
276.159
2862.82
412.483
3077.52
152.714
4174.35
4398.09
22778
-199887
-600.176
-3033.81
11922.8
200100
-13375.2
15760.4
-22005.3
2749.7
-15699
5569.36
-12032.9
-16918
-6457.63
-26755.5
-2367.18
-23069.6
1190.03
-7067.19
1919.62
11699.2
-669.25
11956.9
-30.542
-1940.9
669.113
284.63
437.002
2751.57
425.064
2874.76
516.894
2985.69
433.473
4257.77
3948.88
-32278.8
-154897
-34287.7
-1024.98
-5050.61
170863
-10576.4
21286.2
-14987.4
7160.72
-14254.7
4836.62
-12594.3
-18578.3
-8076.72
-31273.1
-4363.69
-26782.6
-936.973
-10493.9
878.636
9883.55
-612.735
13448.3
272.455
-2826.09
1223.29
-666.198
652.9
3321.96
598.931
2928.73
664.696
2919.93
869.439
4053.05
3303.93
-9300.54
-140872
-20741.8
10416.3
-9575.46
159697
-17263.2
28973.9
-14473.7
4371.25
-13672.5
4035.41
-12499.1
-19751.7
-8634.37
-35137.8
-5537.36
-29879.6
-3317.94
-12713.3
-874.073
7439.68
138.862
12435.3
1305.85
-3993.08
1686.18
-1046.52
920.902
4087.23
788.229
3061.41
786.554
2921.62
1402.26
3437.36
2265.44
-22756.8
-111838
-24314.6
11974.1
-6915.94
142298
-15045.4
37103.3
-11734.6
1060.41
-9400.72
1701.55
-10485.3
-18667.1
-9153.47
-36469.7
-6998.87
-32034.2
-5437.54
-14274.7
-2523.51
4525.64
986.549
8925.28
2212.76
-5219.29
1368.52
-202.283
797.032
4658.72
974.78
2883.67
776.315
3120.09
2100.48
2113.22
266.907
-23259.5
-85779.7
-22662.4
11377
632.099
119004
-5924.33
43659.8
-5938.7
1074.77
-2320.41
-1916.74
-5914.69
-15072.8
-7916.51
-34467.8
-7585.94
-32364.8
-6461.29
-15399.3
-3774.15
1838.5
539.777
4611.35
1039.29
-5718.81
-415.765
1252.77
-23.4079
4266.37
714.328
2145.93
1031.49
2802.94
1290.93
1853.8
6560.74
-26058.9
-58111.8
-23158.5
8476.68
6898.76
88946.4
14708.4
35850.1
10979.1
4804.14
5973.71
3088.61
783.851
-9882.94
-4290.31
-29393.7
-7027.57
-29627.6
-6545.38
-15881.5
-4601.74
-105.133
-2115.57
2125.18
-3116.2
-4718.18
-2371.23
507.798
-459.178
2354.32
1331.1
355.661
2526
1608.04
-515.903
4895.71
13828.1
-27757.2
-31445
-24403.1
5122.59
9794.47
54748.8
22320.1
23324.4
17143.2
9981.06
12146.7
8085.08
9078.52
-6814.74
1895.3
-22210.5
-4546.86
-23185.4
-5845.95
-14582.4
-5720.89
-230.198
-6186.01
2590.3
-8837.16
-2067.03
-8504.8
175.436
-7009.71
859.231
-6539.43
-114.62
-7069.65
2138.26
-9378.72
7204.78
14918
-29509.4
-5820.78
-26231.8
1844.97
12070.7
16446.3
27186.6
8208.52
26917.6
10250.1
24377.6
10625.1
19536.2
-1973.36
9416.48
-12090.8
-427.619
-13341.3
-4959.67
-10050.4
-7190.75
2000.88
-10292.2
5691.74
-14548.5
2189.23
-15993.7
1620.67
-15038.2
-96.3093
-13894.7
-1258.1
-13349.9
1593.53
-12341.1
6195.93
11369.5
-30052.4
19248.2
-27297.9
-909.46
12568.9
-23420.5
28260.2
-7482.73
34726
3784.33
35419.2
9931.86
28317.9
5127.98
15637
590.095
3687.37
-1391.66
-3642.06
-2720.92
-7235.58
5594.4
-10632.3
9088.48
-14460.6
6017.56
-16011.4
3171.39
-14688.6
-1419.04
-12330.5
-3616.22
-10844.5
107.551
-8420.88
3772.28
5357.22
-29511.3
46431.4
-26752.6
-3668.24
9972.39
-60145.5
25202.4
-22712.7
30880
-1893.26
32591.1
8220.75
25873.1
11845.9
14231
12232.2
4291.16
8548.21
-2523.76
4093.99
-6487.31
9557.95
-10285.3
12886.5
-15204.1
10936.3
-18013.4
5980.73
-17102.7
-2329.79
-15372.8
-5346.09
-13827.5
-1437.71
-9667.96
-387.304
-4569.3
-27477.6
74514.2
-24971.9
-6174.03
8331.21
-93448.6
18713.1
-33094.7
18794.3
-1974.48
20061.2
6953.89
16062.8
15844.3
7692.24
20602.8
1660.78
14579.7
-2278.84
8033.62
-5483.45
12762.6
-8817.4
16220.4
-12850.9
14969.8
-12913
6042.85
-10209.7
-5033.1
-11633.3
-3922.43
-16504
3432.99
-17988.5
1097.13
-6556.77
-24392.7
100821
-23367.7
-7199.09
6233.84
-123050
10730.7
-37591.5
8856.57
-100.353
9077.64
6732.81
5952.4
18969.6
729.822
25825.4
-2112.57
17422.1
-4011.03
9932.08
-5662.64
14414.2
-7914.96
18472.7
-10649.6
17704.4
-9162.23
4555.46
-4954.89
-9240.44
-2752.19
-6125.13
-5040
5720.8
-7378.71
3435.83
-2560.55
-24259.7
130475
-24327
-7131.85
926.627
-148304
-5810.94
-30853.9
-5431.55
-479.745
-867.565
2168.83
-2792.16
20894.2
-4543.77
27577
-5350.25
18228.5
-6896.61
11478.4
-7623.6
15141.2
-8542.06
19391.2
-9135.64
18298
-6472.69
1892.51
-3247.3
-12465.8
-246.08
-9126.36
617.101
4857.61
1329.3
2723.63
-3578.01
-11008.4
145566
-19826.6
1686.37
-5510.82
-162619
-14172.8
-22191.9
-12671.9
-1980.69
-9680.81
-822.229
-8905.8
20119.1
-7225.94
25897.1
-7336.49
18339.1
-9110.15
13252.1
-9416.5
15447.5
-9035.72
19010.4
-7172.02
16434.3
-3527.18
-1752.33
-1145.71
-14847.3
-173.968
-10098.1
1426.14
3257.51
1971.85
2177.91
-2570.28
-32121
189482
-33216.9
2782.23
-6911.91
-188924
-15999.9
-13104
-17703.4
-277.194
-14176.3
-4349.29
-10850.1
16792.9
-7217.36
22264.4
-6946.69
18068.4
-8737.55
15043
-9375.9
16085.9
-8574.18
18208.7
-5032.99
12893.1
-974.134
-5811.18
151.321
-15972.8
-788.71
-9158.07
654.75
1814.04
1207.55
1625.11
-1804.38
20343.5
168819
-2074.7
25200.4
5905.32
-196904
-17561.3
10362.6
-21701.2
3862.76
-15084.5
-10966.1
-10569
12277.5
-5924.82
17620.2
-5793.34
17936.9
-7424.99
16674.6
-7215.96
15876.8
-5464.65
16457.4
-1137
8565.47
1632.44
-8580.62
555.089
-14895.4
-1439.96
-7163.01
-245.652
619.731
343.417
1036.04
-1685.07
-45683.5
250570
-46543.4
26060.4
-28035.1
-215413
-31372.7
13700.2
-15860.2
-11649.7
-14861.2
-11965.1
-6372.21
3788.48
-2674.98
13923
-1152.22
16414.2
-3367.07
18889.5
-5734.01
18243.8
-5271.35
15994.7
809.574
2484.55
3143.02
-10914.1
-249.414
-11503
-2443.08
-4969.35
-1085.21
-738.137
-83.6716
34.4984
-1911.01
-72547.8
66673.1
-52500.5
-35942.8
-8698.46
-15619.5
-12692
-8166.16
-2998.94
-1313.09
-299.853
3890.57
5737.01
2372.77
-1072.82
-1667.14
-866.951
-15.079
33.3496
-563.487
139.755
-1063.8
213.671
-1054.52
273.61
-1015.94
329.397
-1011.24
377.409
-1011.61
383.227
-1006.52
358.23
-1003.04
330.34
-1003.74
301.047
-1004.76
271.719
-1006.01
243.068
-1007.14
215.59
-1007.93
189.447
-1008.83
164.656
-1008.88
141.165
-1009.04
119.24
-1009.1
104.817
-1039.65
86.6867
-1066.56
-597.836
28.9929
-592.479
19.4829
-1054.29
-5.12079
-1029.92
-22.003
-999.063
-33.3922
-999.858
-43.9027
-1001.1
-46.1879
-1004.24
-43.7715
-1005.46
-41.14
-1006.38
-39.021
-1006.88
-37.5318
-1007.5
-36.58
-1008.1
-35.9304
-1008.58
-35.4008
-1009.36
-34.7037
-1009.58
-33.5919
-1010.16
-32.0371
-1010.65
-32.4522
-1039.23
-29.4179
-1069.58
-627.254
28.9366
-621.416
35.4881
-1060.84
36.0149
-1030.44
38.1508
-1001.2
39.2056
-1000.91
39.2486
-1001.14
36.389
-1001.39
32.1956
-1001.27
27.6593
-1001.84
22.9256
-1002.15
18.1013
-1002.68
13.1718
-1003.17
8.188
-1003.6
3.12334
-1004.3
-1.90389
-1004.55
-6.86426
-1005.2
-12.2346
-1005.28
-20.5604
-1030.91
-21.3843
-1068.76
-648.638
23.0126
-644.435
23.0332
-1060.86
15.9305
-1023.35
12.6719
-997.946
10.4139
-998.662
8.25493
-998.991
6.66912
-999.805
5.30778
-999.915
3.90539
-1000.45
2.41891
-1000.67
0.82193
-1001.09
-0.908573
-1001.44
-2.74578
-1001.77
-4.74838
-1002.3
-6.84575
-1002.46
-9.11078
-1002.94
-11.5403
-1002.85
-16.4985
-1025.95
-18.1192
-1067.14
-666.758
22.0763
-666.513
21.8462
-1060.64
17.3075
-1018.81
15.369
-996.009
13.5092
-996.804
11.5417
-997.026
9.37449
-997.64
7.15155
-997.694
4.89349
-998.189
2.62546
-998.4
0.350958
-998.814
-1.94458
-999.151
-4.22796
-999.484
-6.54852
-999.985
-8.83224
-1000.18
-11.1144
-1000.66
-13.5354
-1000.43
-18.3305
-1021.16
-19.7373
-1065.74
-686.495
21.4272
-687.943
20.2352
-1059.45
15.315
-1013.89
13.1633
-993.86
11.2241
-994.868
9.24508
-995.049
7.26329
-995.661
5.29768
-995.731
3.30763
-996.202
1.30391
-996.398
-0.71849
-996.794
-2.77388
-997.098
-4.83518
-997.425
-6.95158
-997.871
-9.05301
-998.076
-11.1821
-998.528
-13.4038
-998.214
-18.1116
-1016.45
-20.1135
-1063.74
-706.609
21.1316
-709.077
19.253
-1057.57
14.7147
-1009.35
12.7227
-991.87
10.8227
-992.97
8.88292
-993.111
6.89986
-993.679
4.92446
-993.757
2.92773
-994.207
0.928836
-994.401
-1.07781
-994.789
-3.10167
-995.076
-5.11687
-995.411
-7.16953
-995.819
-9.19178
-996.056
-11.2285
-996.493
-13.3037
-996.139
-17.7586
-1012
-20.2849
-1061.21
-726.894
20.9166
-729.995
18.3772
-1055.03
14.0428
-1005.02
12.1458
-989.975
10.2991
-991.124
8.42298
-991.237
6.51457
-991.772
4.61723
-991.861
2.69812
-992.289
0.777225
-992.482
-1.15356
-992.86
-3.10111
-993.13
-5.04218
-993.471
-7.02019
-993.843
-8.96888
-994.108
-10.938
-994.525
-12.9024
-994.176
-17.1461
-1007.76
-20.2698
-1058.09
-747.163
20.7455
-750.742
17.5597
-1051.85
13.4831
-1000.95
11.6893
-988.182
9.89873
-989.335
8.08593
-989.425
6.23962
-989.927
4.40486
-990.028
2.5481
-990.434
0.69213
-990.627
-1.17414
-990.995
-3.05362
-991.251
-4.92687
-991.599
-6.83367
-991.937
-8.71084
-992.232
-10.6128
-992.624
-12.4731
-992.316
-16.4718
-1003.76
-20.1917
-1054.37
-767.355
20.584
-771.327
16.7653
-1048.03
12.9444
-997.126
11.2465
-986.485
9.51621
-987.605
7.77063
-987.68
5.99267
-988.15
4.22671
-988.263
2.43805
-988.646
0.651519
-988.841
-1.14703
-989.197
-2.95662
-989.442
-4.76202
-989.795
-6.59887
-990.101
-8.40733
-990.424
-10.246
-990.786
-12.0136
-990.549
-15.7653
-1000.01
-20.0835
-1050.05
-787.439
20.4327
-791.76
15.9858
-1043.58
12.4295
-993.571
10.8202
-984.876
9.15044
-985.936
7.47142
-986.002
5.7607
-986.44
4.06214
-986.565
2.34027
-986.925
0.62208
-987.124
-1.10997
-987.466
-2.85031
-987.702
-4.58903
-988.056
-6.35629
-988.334
-8.09707
-988.684
-9.87272
-989.01
-11.5547
-988.868
-15.052
-996.509
-19.9664
-1045.14
-807.405
20.2868
-812.048
15.2163
-1038.51
11.9286
-990.283
10.4016
-983.35
8.7933
-984.328
7.18107
-984.39
5.53793
-984.798
3.90689
-984.934
2.25199
-985.27
0.602097
-985.474
-1.06371
-985.8
-2.7349
-986.032
-4.40782
-986.384
-6.1057
-986.636
-7.77999
-987.01
-9.49268
-987.298
-11.0958
-987.265
-14.3359
-993.269
-19.8447
-1039.63
-827.25
20.1484
-832.197
14.4561
-1032.82
11.4406
-987.268
9.98967
-981.899
8.44407
-982.783
6.89869
-982.845
5.32308
-983.223
3.75933
-983.371
2.17124
-983.683
0.589174
-983.893
-1.0108
-984.201
-2.61307
-984.43
-4.22123
-984.776
-5.84958
-985.008
-7.45863
-985.401
-9.10779
-985.649
-10.638
-985.735
-13.6194
-990.288
-19.7206
-1033.53
-846.97
20.0196
-852.217
13.7045
-1026.51
10.9639
-984.528
9.58442
-980.52
8.10349
-981.303
6.62611
-981.368
5.11869
-981.716
3.62282
-981.875
2.10232
-982.163
0.588004
-982.379
-0.94577
-982.667
-2.47905
-982.897
-4.02332
-983.233
-5.5816
-983.451
-7.12712
-983.856
-8.71204
-984.065
-10.1754
-984.272
-12.899
-987.565
-19.5899
-1026.84
-866.56
19.9101
-872.127
12.9648
-1019.56
10.5008
-982.065
9.18913
-979.209
7.77464
-979.889
6.36667
-979.961
4.92741
-980.277
3.49941
-980.448
2.04695
-980.711
0.599497
-980.932
-0.867695
-981.201
-2.33226
-981.433
-3.81333
-981.752
-5.30007
-981.964
-6.78392
-982.373
-8.30235
-982.547
-9.70408
-982.87
-12.172
-985.097
-19.4461
-1019.56
-886.006
19.8436
-891.971
12.2548
-1011.97
10.0741
-979.884
8.83279
-977.968
7.48913
-978.545
6.15491
-978.627
4.78436
-978.906
3.42274
-979.087
2.03647
-979.325
0.650719
-979.546
-0.754309
-979.796
-2.15703
-980.03
-3.58138
-980.328
-5.00113
-980.545
-6.43183
-980.942
-7.88349
-981.095
-9.23077
-981.523
-11.448
-982.88
-19.2851
-1011.73
-905.291
19.8667
-911.838
11.613
-1003.72
9.74397
-978.015
8.60056
-976.825
7.34894
-977.294
6.11069
-977.389
4.8267
-977.623
3.5436
-977.804
2.23329
-978.015
0.913062
-978.226
-0.429424
-978.454
-1.77767
-978.682
-3.15549
-978.95
-4.52543
-979.175
-5.92994
-979.538
-7.33356
-979.692
-8.66774
-980.189
-10.6723
-980.876
-19.0374
-1003.36
-924.329
20.0761
-931.914
11.1013
-994.745
9.58909
-976.503
8.60399
-975.84
7.48231
-976.172
6.37056
-976.277
5.20185
-976.454
4.0166
-976.619
2.7988
-976.797
1.55748
-976.985
0.28895
-977.185
-0.997418
-977.396
-2.31858
-977.629
-3.63965
-977.854
-5.02059
-978.157
-6.37959
-978.333
-7.7591
-978.81
-9.59872
-979.036
-18.4201
-994.542
-942.749
20.7985
-952.713
11.0691
-985.016
9.96419
-975.398
9.25105
-975.127
8.35664
-975.278
7.43132
-975.352
6.42305
-975.446
5.3516
-975.547
4.21245
-975.658
3.0083
-975.781
1.74103
-975.918
0.416462
-976.072
-0.96777
-976.245
-2.38531
-976.436
-3.8745
-976.668
-5.32818
-976.879
-6.87865
-977.259
-8.53114
-977.384
-17.5627
-985.51
-960.312
22.2871
12.2709
11.8725
11.7455
11.4673
11.1154
10.6694
10.1222
9.46434
8.6833
7.76525
6.69359
5.44868
4.01229
2.34416
0.465035
-1.7945
-4.17817
-14.6883
-662.988
1637.97
-1069.6
1381.59
-1485.17
1390.55
-1815.01
1304.83
-2104.98
1264.96
-2343.56
1213.56
-2538.96
1170.39
-2691
1127.03
-2802.12
1086.11
-2873.24
1046.11
-2904.82
1006.57
-2895.73
965.894
-2842.65
921.914
-2738.71
871.049
-2573.14
809.428
-2333.84
735.691
-2004.85
645.999
-1549.15
519.294
-902.18
328.022
72.8198
-194.506
1832.45
-444.704
1631.77
-708.259
1654.09
-934.888
1531.45
-1154.33
1484.38
-1345.16
1404.37
-1516.39
1341.61
-1664.18
1274.81
-1790.85
1212.77
-1894.55
1149.8
-1970.04
1082.04
-2003.4
999.246
-1971.27
889.774
-1849.91
749.685
-1633.61
593.117
-1336.88
438.949
-972.695
281.803
-558.867
105.453
-171.469
-59.4095
-98.65
-183.096
2015.53
-391.162
1839.82
-563.621
1826.53
-702.959
1670.77
-832.855
1614.26
-936.723
1508.23
-1030.09
1434.96
-1107.84
1352.54
-1175.56
1280.48
-1231.2
1205.43
-1271.24
1122.07
-1281.93
1009.92
-1237.92
845.759
-1108.52
620.272
-890.858
375.433
-651.553
199.625
-454.193
84.4177
-263.614
-85.1579
-79.2755
-243.796
-177.926
-43.3374
2058.86
-126.291
1922.76
-182.888
1883.12
-226.011
1713.87
-268.537
1656.78
-295.438
1535.11
-319.266
1458.77
-332.352
1365.61
-339.287
1287.4
-338.76
1204.88
-334.349
1117.64
-331.519
1007.07
-339.062
853.278
-359.872
641.057
-383.394
398.92
-396.804
212.999
-400.283
87.8576
-368.556
-116.916
-292.209
-320.172
-470.136
75.681
1983.16
34.7488
1963.67
46.2713
1871.57
67.7414
1692.38
94.2082
1630.29
129.583
1499.71
171.249
1417.08
222.078
1314.76
281.958
1227.49
350.165
1136.65
422.547
1045.24
486.151
943.44
516.242
823.166
481.153
676.121
373.357
506.683
254.755
331.56
184.381
158.172
120.39
-52.9865
16.6649
-216.491
-453.471
143.021
1840.13
128.462
1978.23
168.015
1832.01
217.682
1642.71
277.597
1570.37
337.824
1439.48
405.659
1349.24
477.978
1242.44
558.506
1146.96
645.265
1049.88
736.191
954.305
822.381
857.243
888.464
757.074
912.913
651.664
878.804
540.781
787.92
422.434
648.744
297.335
438.92
156.82
221.819
0.588103
-231.653
133.834
1706.28
154.047
1958
200.481
1785.57
256.336
1586.84
320.332
1506.35
382.208
1377.59
448.521
1282.91
516.028
1174.91
585.679
1077.29
653.968
981.582
718.181
890.079
773.981
801.431
816.458
714.584
838.909
629.201
833.783
545.893
789.182
467.023
690.328
396.179
518.894
328.239
276.616
242.84
44.9636
68.624
1637.65
112.363
1914.26
162.144
1735.78
212.367
1536.61
264.821
1453.9
319.705
1322.7
375.471
1227.14
435.302
1115.08
498.955
1013.63
572.069
908.465
656.719
805.423
752.08
706.067
849.898
616.759
934.756
544.341
983.723
496.918
966.894
483.85
857.548
505.515
639.636
546.143
336.849
545.613
381.812
-26.1021
1663.73
16.1094
1872.01
44.5524
1707.3
46.6011
1534.52
44.8535
1455.61
30.6174
1336.88
8.22419
1249.49
-13.7726
1137.02
-20.7541
1020.58
3.53057
884.122
66.1013
742.811
166.979
605.119
298.441
485.26
447.287
395.445
588.945
355.243
683.029
389.745
675.916
512.629
532.262
689.798
274.778
803.1
656.59
-155.525
1819.25
-226.755
1943.24
-307.426
1787.97
-430.534
1657.62
-564.389
1589.46
-721.792
1494.28
-891.55
1419.25
-1064.34
1309.8
-1222
1178.24
-1353.37
1015.48
-1455.13
844.579
-1523.54
673.526
-1548.8
510.529
-1514.86
361.503
-1405.52
245.919
-1206.63
190.865
-907.043
213.056
-528.264
311.041
-180.419
455.285
476.172
-14.5794
1833.8
-170.073
2098.69
-298.534
1916.41
-416.605
1775.65
-535.613
1708.46
-661.182
1619.81
-791.261
1549.33
-925.847
1444.36
-1065.36
1317.76
-1209.76
1159.86
-1358.99
993.821
-1510.06
824.585
-1654.6
655.093
-1773.08
479.985
-1833.71
306.576
-1784.33
141.504
-1575.93
4.67587
-1174.14
-90.7291
-577.296
-141.525
-101.123
304.59
1529.22
244.642
2158.63
124.36
2036.71
60.098
1839.9
35.3341
1733.24
23.7787
1631.36
22.1592
1550.98
16.5206
1450
-1.99461
1336.31
-41.7915
1199.67
-100.07
1052.15
-171.406
895.96
-251.359
735.124
-338.658
567.35
-423.879
391.895
-488.236
205.971
-509.99
26.5257
-495.715
-104.928
-357.589
-279.577
-458.711
465.485
1063.73
590.411
2033.7
540.768
2086.35
521.378
1859.28
563.573
1691.05
631.393
1563.53
716.567
1465.81
802.132
1364.43
879.739
1258.71
936.658
1142.75
968.902
1019.92
972.83
892.032
946.124
761.846
883.38
630.098
777.389
497.908
620.711
362.664
421.218
226.055
248.233
68.1052
87.8163
-119.112
-370.894
330.846
732.917
449.984
1914.58
460.857
2075.5
476.359
1843.81
526.874
1640.56
594.71
1495.72
671.752
1388.79
748.316
1287.89
819.272
1187.78
877.149
1084.9
917.017
980.075
934.645
874.432
926.976
769.537
890.999
666.1
824.335
564.597
725.04
461.983
593.44
357.678
423.671
237.907
212.754
91.8486
-158.14
72.2843
660.665
94.3132
1892.58
140.992
2028.84
194.688
1790.13
254.918
1580.35
319.08
1431.59
384.581
1323.31
447.376
1225.13
504.374
1130.81
551.837
1037.47
586.29
945.645
604.954
855.797
606.663
767.848
591.99
680.799
562.316
594.292
515.79
508.529
444.302
429.18
332.237
349.988
166.845
257.273
8.7053
-104.902
765.603
-110.804
1898.5
-30.1027
1948.16
44.5831
1715.48
111.77
1513.19
178.765
1364.64
245.542
1256.57
308.897
1161.81
366.775
1072.95
418.25
986.033
463.73
900.185
505.405
814.16
546.18
727.086
586.761
640.248
620.2
560.863
625.34
503.408
574.318
480.203
444.53
479.778
236.516
465.292
245.222
-136.925
902.558
-135.997
1897.6
-21.5511
1833.74
84.0687
1609.89
165.512
1431.78
234.509
1295.67
303.05
1188.05
373.179
1091.71
446.261
999.896
524.522
907.798
610.449
814.279
705.092
719.537
804.815
627.381
895.291
549.788
948.011
508.159
926.798
524.63
807.079
599.938
586.073
700.796
305.728
745.655
550.95
-84.0155
986.588
-92.3564
1905.95
-68.6784
1810.07
-13.8157
1555.04
59.3577
1358.61
121.209
1233.84
171.397
1137.87
224.053
1039.08
289.197
934.764
374.074
822.938
482.934
705.429
615.386
587.098
759.801
482.973
883.648
425.95
937.959
453.852
886.466
576.127
726.241
760.166
484.494
942.545
221.228
1008.92
772.178
114.474
872.127
228.114
1792.32
176.16
1862.03
39.7824
1691.44
-107.195
1505.6
-239.95
1366.61
-347.075
1245.01
-435.444
1127.46
-504.316
1003.64
-551.695
870.329
-573.374
727.113
-559.94
573.673
-506.349
429.385
-426.64
346.247
-332.002
359.216
-233.722
477.85
-150.611
677.054
-96.1449
888.076
-61.0717
973.848
711.106
156.595
512.94
762.003
863.377
863.342
815.096
727.777
624.859
504.044
364.545
206.425
32.105
-146.226
-300.255
-393.672
-400.926
-326.84
-199.668
-67.3093
)
;

boundaryField
{
    outletWall
    {
        type            calculated;
        value           nonuniform List<scalar> 
60
(
-6240.99
-4393.12
-3780.05
-3290.63
-2829.82
-2469.72
-2377.89
-1021.35
-3603.82
-6170.55
-2656.04
4427.62
9924.1
1096.83
-3039.59
-38573.9
-5411.18
-104958
-118723
291989
44568
-36067.5
318.714
-11794.3
-4082.97
-5394.2
-1914.11
-605.141
2328.1
4983.39
3885.22
1090.31
-1609.01
-2799.1
-6276.94
-4724.01
-12711.2
119.892
-38340.1
46718.3
-3120.4
-1870.23
-817.374
-1538.32
-4375.03
-8057.38
-7549.81
638.103
11804.3
17230.5
17203.6
11247
9397.09
860.99
-5044.01
-38894
-2857.49
-96239.2
-113160
278550
)
;
    }
    fineWalls
    {
        type            calculated;
        value           uniform 0;
    }
    fineFrontAndBack
    {
        type            calculated;
        value           nonuniform List<scalar> 
960
(
-6.4104e-16
3.53056e-15
6.36257e-15
5.57975e-15
3.33706e-14
-8.11535e-15
1.1798e-14
-7.22227e-14
-5.91393e-14
-5.82103e-15
7.63462e-14
-6.16839e-13
-2.02864e-13
-1.13651e-13
-2.20297e-12
-6.36895e-13
-7.57776e-13
-3.07716e-12
-6.59981e-13
-1.34059e-12
-1.5542e-13
-5.48368e-13
-5.92782e-13
-6.14326e-13
-5.79323e-13
-6.99484e-13
-1.37486e-11
-8.65716e-13
-8.69198e-13
-8.79978e-13
-9.02631e-13
-9.1354e-13
-9.20247e-13
-9.15583e-13
-9.20402e-13
-9.21939e-13
-9.26818e-13
-9.52515e-13
-9.05711e-13
-1.07817e-12
1.84349e-11
3.99394e-11
3.19068e-11
3.41317e-11
1.4125e-10
1.37876e-11
1.4165e-11
1.03231e-11
1.52777e-11
-4.78125e-12
-2.74146e-12
-1.35019e-11
-1.4276e-12
-3.16185e-13
6.25966e-13
1.26987e-11
2.93072e-12
3.10826e-12
2.75148e-12
1.41723e-11
4.77027e-13
2.41533e-13
-3.16246e-14
-3.81042e-13
-6.73076e-13
-8.46323e-13
-9.12048e-13
-9.14283e-13
-8.42812e-13
-7.0417e-13
-5.61571e-13
-4.64679e-13
-4.13928e-13
-1.31528e-11
-4.64415e-13
-4.57084e-13
-3.63914e-13
-2.24555e-13
-1.97758e-13
-3.81835e-13
-2.09173e-12
-1.9164e-12
-1.17135e-11
-2.81953e-12
-3.01925e-12
-1.50585e-11
-2.11534e-12
-1.94762e-12
-9.06038e-12
-1.37661e-12
-1.38885e-12
-3.21612e-12
2.49581e-13
3.22915e-13
2.9065e-13
1.65281e-12
2.92575e-13
3.03075e-13
8.47847e-13
-2.71809e-14
-1.06237e-08
2.16606e-10
5.74276e-10
-1.10241e-10
2.40818e-11
-9.6702e-13
-7.3186e-13
4.12415e-13
-2.15809e-12
-1.17933e-12
1.3399e-14
-1.74925e-13
1.91117e-14
-2.1471e-14
1.85463e-15
1.73256e-15
-1.34111e-15
-4.88177e-16
4.26579e-14
3.27097e-09
3.36862e-10
8.0016e-10
1.50878e-10
1.33523e-11
-2.0858e-11
-2.21486e-11
-1.86491e-11
-1.5616e-12
3.50067e-12
2.61815e-12
5.39452e-13
-1.54408e-13
2.13915e-13
-1.11125e-14
-1.53075e-14
4.79717e-15
3.76081e-16
-4.05986e-14
7.73084e-11
5.20083e-10
8.68897e-10
4.13016e-10
-6.83641e-11
-1.51794e-11
-5.38261e-12
-2.06296e-11
-8.05866e-13
7.47733e-12
5.77456e-12
2.50223e-12
-1.25221e-12
-1.27475e-12
6.42411e-14
3.13886e-14
-7.48821e-15
6.69616e-15
1.66746e-13
7.93563e-10
1.03293e-09
8.42721e-10
2.37922e-10
-6.25308e-11
8.79576e-12
3.75461e-11
-1.96603e-11
-3.93266e-12
9.64545e-12
7.29946e-12
4.53027e-12
-1.55666e-12
-1.06115e-11
-1.82572e-12
3.07922e-13
3.12301e-14
-5.90897e-14
1.07452e-12
6.23372e-10
9.94272e-10
8.05861e-10
1.7217e-10
7.49076e-12
9.34085e-11
1.43734e-10
1.03321e-11
-1.15908e-11
1.13824e-11
7.34131e-12
5.94986e-12
-2.5611e-12
-1.89511e-11
-7.0323e-12
-2.72436e-13
2.46266e-13
-1.19268e-13
4.37072e-12
6.7041e-10
9.6856e-10
8.03974e-10
3.33678e-10
1.76967e-10
2.40827e-10
2.90791e-10
8.5485e-11
-2.16744e-11
1.32814e-11
7.31647e-12
6.31144e-12
-1.06651e-11
-2.78858e-11
-1.48791e-11
-2.84478e-12
6.32522e-13
-7.95128e-13
8.43198e-12
6.39444e-10
9.4424e-10
8.32667e-10
6.07472e-10
5.11213e-10
3.2385e-10
3.88341e-10
1.993e-10
-2.57502e-11
1.42124e-11
8.03333e-12
4.66688e-12
-2.72134e-11
-3.44846e-11
-1.94112e-11
-5.37555e-12
-3.55463e-13
-1.00106e-12
-2.01048e-11
6.00292e-10
8.76707e-10
8.35692e-10
7.63954e-10
6.34762e-10
4.31177e-10
3.74034e-10
3.05859e-10
-8.10416e-12
1.17311e-11
7.44738e-12
-4.72455e-12
-3.71268e-11
-2.87637e-11
-1.81164e-11
-8.54055e-12
-6.29833e-12
9.29767e-13
6.49422e-12
5.30806e-10
7.32399e-10
7.45361e-10
6.52978e-10
4.60616e-10
3.24204e-10
3.32879e-10
3.43539e-10
4.34336e-11
4.2586e-12
2.25584e-12
-1.69661e-11
-3.96832e-11
-2.3851e-11
-9.08675e-12
1.34284e-13
8.4855e-12
1.54727e-11
2.04153e-11
4.01828e-10
5.76634e-10
5.85211e-10
4.64669e-10
3.0333e-10
1.96574e-10
2.88687e-10
2.99081e-10
1.08378e-10
-2.53068e-12
-1.82181e-11
-4.84873e-11
-4.39325e-11
-3.77897e-11
-2.90908e-11
-2.36264e-11
-1.27601e-11
-5.55138e-12
-7.8875e-12
1.01434e-10
7.87168e-11
1.29557e-10
1.29156e-10
1.35807e-10
1.55604e-10
1.33849e-10
1.65221e-10
1.31422e-10
3.62433e-12
-8.11954e-12
-3.77046e-11
-3.78287e-11
-2.41591e-11
-1.56553e-11
-1.86274e-11
-2.46173e-11
-2.06667e-11
-1.61138e-12
8.57521e-12
-1.87846e-11
-2.00929e-11
-1.62878e-11
-5.61664e-12
3.51592e-11
7.0358e-11
1.43369e-10
1.33257e-10
1.29259e-11
-1.95211e-12
-2.68294e-11
-3.82131e-11
-2.66799e-11
-1.60635e-11
-9.06753e-12
6.17533e-12
2.43748e-11
7.38579e-11
-1.35326e-11
-6.03676e-12
-1.15876e-11
-1.04788e-11
2.52866e-13
-4.11762e-12
3.42685e-11
1.33108e-10
9.99916e-11
-2.60546e-12
-3.6432e-12
-2.22829e-11
-3.84106e-11
-3.16573e-11
-2.45212e-11
-3.27254e-11
-4.02893e-11
-2.40361e-11
-4.70242e-12
-2.04331e-11
-8.47916e-12
-1.49647e-11
-1.4162e-11
-4.13677e-12
-2.07463e-11
2.8089e-11
1.30548e-10
3.12361e-11
-1.24207e-11
-1.06757e-11
-2.22307e-11
-3.54011e-11
-2.69401e-11
-1.45421e-11
-1.76529e-11
-2.52106e-11
-2.01367e-11
-1.73133e-11
-2.23818e-11
-1.00108e-11
-1.48516e-11
-6.61239e-12
-9.63628e-12
5.95526e-13
5.7263e-11
9.27422e-11
-1.72477e-11
-1.75364e-11
-1.81128e-11
-2.34549e-11
-2.98269e-11
-2.58255e-11
-2.95792e-11
-2.85288e-11
-1.36296e-11
-1.18301e-11
3.12442e-12
-2.50056e-11
-1.28235e-11
-1.40432e-11
4.77971e-12
3.28522e-11
4.77909e-11
5.7597e-11
3.26209e-11
-3.03949e-11
-2.19401e-11
-2.30577e-11
-2.37474e-11
-2.48681e-11
-2.78691e-11
-3.87735e-11
-2.75686e-11
-1.11596e-11
-4.35545e-12
-1.89911e-13
-2.60502e-11
-1.06971e-11
-1.27255e-11
7.18917e-12
2.31475e-11
2.13608e-11
2.32324e-11
-1.00841e-11
-2.89958e-11
-2.3506e-11
-2.42295e-11
-2.29328e-11
-2.29104e-11
-3.46555e-11
-4.20985e-11
-2.04654e-11
-4.13352e-12
-7.25453e-13
7.71939e-14
-2.1655e-11
-3.28372e-11
-1.1237e-11
-5.09804e-13
-2.65723e-12
-1.38379e-11
-9.19767e-12
-2.8047e-11
-2.72145e-11
-2.6482e-11
-2.79442e-11
-2.67127e-11
-2.56127e-11
-4.71902e-11
-3.72436e-11
-9.75097e-12
1.55348e-12
6.87929e-13
-5.45005e-14
-4.64173e-11
-1.71313e-11
-8.57942e-12
-8.50279e-12
-1.42368e-11
-2.08194e-11
-1.91748e-11
-2.19665e-11
-1.62984e-11
-1.48984e-11
-1.04819e-11
-9.94411e-12
-2.12546e-11
-5.14089e-11
-2.26e-11
-4.73539e-13
9.07073e-13
2.54744e-13
1.45136e-14
4.00316e-11
-2.59438e-12
-4.76724e-12
-7.64762e-12
-2.66408e-12
-1.80237e-11
-4.41308e-11
-5.05101e-11
-3.91427e-11
-5.42202e-11
-8.08593e-11
-8.19136e-11
-8.039e-11
-2.77449e-11
-1.10402e-12
9.41235e-13
-1.26482e-13
-2.75769e-14
3.67459e-15
6.4104e-16
-3.53056e-15
-6.36257e-15
-5.57975e-15
-3.33706e-14
8.11535e-15
-1.1798e-14
7.22227e-14
5.91393e-14
5.82103e-15
-7.63462e-14
6.16839e-13
2.02864e-13
1.13651e-13
2.20297e-12
6.36895e-13
7.57776e-13
3.07716e-12
6.59981e-13
1.34059e-12
1.5542e-13
5.48368e-13
5.92782e-13
6.14326e-13
5.79323e-13
6.99484e-13
1.37486e-11
8.65716e-13
8.69198e-13
8.79978e-13
9.02631e-13
9.1354e-13
9.20247e-13
9.15583e-13
9.20402e-13
9.21939e-13
9.26818e-13
9.52515e-13
9.05711e-13
1.07817e-12
-1.84349e-11
-3.99394e-11
-3.19068e-11
-3.41317e-11
-1.4125e-10
-1.37876e-11
-1.4165e-11
-1.03231e-11
-1.52777e-11
4.78125e-12
2.74146e-12
1.35019e-11
1.4276e-12
3.16185e-13
-6.25966e-13
-1.26987e-11
-2.93072e-12
-3.10826e-12
-2.75148e-12
-1.41723e-11
-4.77027e-13
-2.41533e-13
3.16246e-14
3.81042e-13
6.73076e-13
8.46323e-13
9.12048e-13
9.14283e-13
8.42812e-13
7.0417e-13
5.61571e-13
4.64679e-13
4.13928e-13
1.31528e-11
4.64415e-13
4.57084e-13
3.63914e-13
2.24555e-13
1.97758e-13
3.81835e-13
2.09173e-12
1.9164e-12
1.17135e-11
2.81953e-12
3.01925e-12
1.50585e-11
2.11534e-12
1.94762e-12
9.06038e-12
1.37661e-12
1.38885e-12
3.21612e-12
-2.49581e-13
-3.22915e-13
-2.9065e-13
-1.65281e-12
-2.92575e-13
-3.03075e-13
-8.47847e-13
2.71809e-14
1.06237e-08
-2.16606e-10
-5.74276e-10
1.10241e-10
-2.40818e-11
9.6702e-13
7.3186e-13
-4.12415e-13
2.15809e-12
1.17933e-12
-1.3399e-14
1.74925e-13
-1.91117e-14
2.1471e-14
-1.85463e-15
-1.73256e-15
1.34111e-15
4.88177e-16
-4.26579e-14
-3.27097e-09
-3.36862e-10
-8.0016e-10
-1.50878e-10
-1.33523e-11
2.0858e-11
2.21486e-11
1.86491e-11
1.5616e-12
-3.50067e-12
-2.61815e-12
-5.39452e-13
1.54408e-13
-2.13915e-13
1.11125e-14
1.53075e-14
-4.79717e-15
-3.76081e-16
4.05986e-14
-7.73084e-11
-5.20083e-10
-8.68897e-10
-4.13016e-10
6.83641e-11
1.51794e-11
5.38261e-12
2.06296e-11
8.05866e-13
-7.47733e-12
-5.77456e-12
-2.50223e-12
1.25221e-12
1.27475e-12
-6.42411e-14
-3.13886e-14
7.48821e-15
-6.69616e-15
-1.66746e-13
-7.93563e-10
-1.03293e-09
-8.42721e-10
-2.37922e-10
6.25308e-11
-8.79576e-12
-3.75461e-11
1.96603e-11
3.93266e-12
-9.64545e-12
-7.29946e-12
-4.53027e-12
1.55666e-12
1.06115e-11
1.82572e-12
-3.07922e-13
-3.12301e-14
5.90897e-14
-1.07452e-12
-6.23372e-10
-9.94272e-10
-8.05861e-10
-1.7217e-10
-7.49076e-12
-9.34085e-11
-1.43734e-10
-1.03321e-11
1.15908e-11
-1.13824e-11
-7.34131e-12
-5.94986e-12
2.5611e-12
1.89511e-11
7.0323e-12
2.72436e-13
-2.46266e-13
1.19268e-13
-4.37072e-12
-6.7041e-10
-9.6856e-10
-8.03974e-10
-3.33678e-10
-1.76967e-10
-2.40827e-10
-2.90791e-10
-8.5485e-11
2.16744e-11