/*--------------------------------*- C++ -*----------------------------------*\
| =========                 |                                                 |
| \\      /  F ield         | OpenFOAM: The Open Source CFD Toolbox           |
|  \\    /   O peration     | Version:  4.1                                   |
|   \\  /    A nd           | Web:      www.OpenFOAM.org                      |
|    \\/     M anipulation  |                                                 |
\*---------------------------------------------------------------------------*/
FoamFile
{
    version     2.0;
    format      ascii;
    class       volVectorField;
    location    "14";
    object      U;
}
// * * * * * * * * * * * * * * * * * * * * * * * * * * * * * * * * * * * * * //

dimensions      [0 1 -1 0 0 0 0];

internalField   nonuniform List<vector> 
1280
(
(-4.63263e-19 1.7876 -0.0451588)
(5.04523e-18 1.05161 -0.218522)
(4.59806e-18 0.850642 -0.221851)
(4.03234e-18 1.09623 -0.21246)
(5.67165e-18 1.21055 -0.317043)
(-5.86475e-18 0.963777 -0.22075)
(8.52614e-18 1.11822 -0.188383)
(-6.62952e-17 1.0613 -0.129928)
(-2.33508e-17 1.27286 -0.247309)
(-4.20671e-18 1.10208 -0.162775)
(6.84974e-17 1.14209 -0.099862)
(-2.0036e-16 1.42873 -0.252719)
(-1.58544e-16 1.23238 -0.223671)
(-1.11971e-16 1.29551 -0.195858)
(-5.45681e-16 1.64245 -0.481026)
(-4.60267e-16 1.52926 -0.479441)
(-5.47625e-16 1.60176 -0.383199)
(-5.22992e-16 2.15068 -1.48782)
(-4.76951e-16 2.3222 -0.822874)
(-9.68811e-16 1.95381 -2.29768)
(-6.37621e-16 2.27804 0.622218)
(-2.24971e-15 2.47136 4.02126)
(-2.43192e-15 2.21579 5.88875)
(-2.52031e-15 2.42067 7.10502)
(-2.37671e-15 2.30865 8.04616)
(-2.86968e-15 2.60502 9.05988)
(-2.89825e-15 -0.0953592 11.4725)
(-3.55166e-15 3.58851 16.3334)
(-3.56594e-15 3.79292 16.695)
(-3.61017e-15 3.77022 16.885)
(-3.7031e-15 3.76547 16.9511)
(-3.74785e-15 3.75455 16.9484)
(-3.77537e-15 3.74152 16.908)
(-3.75624e-15 3.70892 16.8541)
(-3.77601e-15 3.71581 16.7962)
(-3.78231e-15 3.6535 16.7343)
(-3.80233e-15 3.72407 16.7012)
(-3.90775e-15 3.52861 16.581)
(-3.71574e-15 3.89399 17.2153)
(-4.42325e-15 3.47287 15.4493)
(3.20885e-15 6.59327 11.8405)
(3.20799e-14 -2.66973 -6.25126)
(2.5628e-14 0.316781 -4.35176)
(2.84723e-14 -0.0533823 -4.59857)
(2.88174e-14 0.318435 -4.71766)
(1.10744e-14 -0.601488 -2.68278)
(1.13775e-14 -0.0413673 -2.85786)
(8.29162e-15 0.199763 -2.40638)
(5.20359e-15 -0.259202 -0.720618)
(-4.12311e-15 -0.907305 2.06486)
(-2.48473e-15 -1.05227 2.75916)
(-2.35019e-15 -2.05794 5.60589)
(-1.14666e-15 -3.10141 5.78881)
(-2.53964e-16 -3.92232 5.7149)
(5.02784e-16 -4.3108 5.86709)
(2.21039e-15 -6.36783 8.598)
(2.35917e-15 -6.57948 6.92681)
(2.49659e-15 -7.59473 6.92616)
(2.21002e-15 -8.24106 6.86245)
(2.27243e-15 -12.4855 9.64739)
(1.95704e-15 -8.93189 9.17224)
(9.90903e-16 -9.10752 10.3162)
(-1.29742e-16 -8.84989 10.3062)
(-1.56325e-15 -8.91733 10.3874)
(-2.76134e-15 -8.94278 10.6163)
(-3.4721e-15 -9.05721 11.0895)
(-3.74174e-15 -9.17687 11.7499)
(-3.7509e-15 -9.30875 12.5321)
(-3.45769e-15 -9.43153 13.3272)
(-2.8889e-15 -9.525 14.01)
(-2.30388e-15 -9.57605 14.4997)
(-1.90638e-15 -9.57379 14.7162)
(-1.69816e-15 -9.43895 14.549)
(-2.77265e-15 -4.88856 7.97261)
(-1.90529e-15 -5.94492 10.7731)
(-1.87522e-15 -5.71622 8.44833)
(-1.49298e-15 -5.735 6.63677)
(-9.2125e-16 -5.35852 5.01411)
(-8.11314e-16 -5.36493 3.14207)
(-1.5665e-15 -5.09064 -0.345204)
(-1.51164e-15 -4.45863 -3.73814)
(-1.38493e-15 -4.87593 -2.36755)
(-1.99082e-15 -4.44748 -3.12441)
(-2.0376e-15 -3.88315 -1.46785)
(-2.18193e-15 -3.45213 -1.70642)
(-2.65537e-15 -3.77128 -1.98572)
(-1.56958e-15 -3.02085 -1.02936)
(-1.40749e-15 -2.769 -1.1634)
(-1.70344e-15 -3.09046 -1.37559)
(-9.94841e-16 -2.51997 -0.752835)
(-9.78993e-16 -2.3252 -0.848521)
(-8.67562e-16 -2.65958 -0.99076)
(1.242e-16 -2.17497 -0.530987)
(2.33362e-16 -2.23889 -0.580115)
(2.10045e-16 -1.93561 -0.55827)
(2.80912e-16 -2.45735 -0.646743)
(2.11436e-16 -2.15695 -0.40602)
(2.19024e-16 -1.75047 -0.402321)
(2.02192e-16 -2.20093 -0.359555)
(-1.96429e-17 -3.48341 -0.0705829)
(-1.18041e-12 484.266 304.164)
(2.40674e-14 -64.2446 -120.525)
(6.38084e-14 -90.2009 -16.7485)
(-1.2249e-14 -3.72684 91.3333)
(2.67575e-15 -20.7971 -10.071)
(-1.07447e-16 1.14669 22.1499)
(-8.13177e-17 9.33497 12.0077)
(4.58239e-17 15.312 10.1944)
(-2.39787e-16 7.87568 -0.854243)
(-1.31036e-16 2.04539 -7.08972)
(1.48878e-18 -3.69646 -3.14876)
(-1.94361e-17 -2.30698 1.13918)
(2.12353e-18 -0.721572 1.23298)
(-2.38567e-18 -1.19184 -0.1095)
(2.0607e-19 -1.20593 -0.102351)
(1.92507e-19 -1.37054 -0.0807182)
(-1.49012e-19 -1.55601 -0.126892)
(-5.42419e-20 -1.79167 -0.199939)
(4.73977e-18 -2.07267 0.248239)
(3.63441e-13 -149.667 -112.441)
(3.74291e-14 30.3061 134.992)
(8.89067e-14 -85.1531 -20.0555)
(1.67642e-14 15.6818 57.5794)
(1.48359e-15 3.207 5.42765)
(-2.31755e-15 -7.35121 21.2337)
(-2.46096e-15 -1.5619 7.24035)
(-2.07212e-15 1.69257 7.93023)
(-1.73511e-16 3.7978 3.33959)
(3.88963e-16 -1.70137 0.266255)
(2.90905e-16 -4.88339 -4.32308)
(5.99391e-17 -2.73157 1.25134)
(-1.71564e-17 0.350883 1.54064)
(2.37684e-17 -0.772572 -0.382555)
(-1.23472e-18 -1.03421 -0.329987)
(-1.70083e-18 -1.16833 -0.205015)
(5.33018e-19 -1.29899 -0.231613)
(4.17868e-20 -1.61863 -0.461145)
(-4.51096e-18 -1.85989 0.204619)
(8.58982e-15 163.237 -0.385599)
(5.7787e-14 33.1327 -10.4984)
(9.65441e-14 -63.8777 -15.7514)
(4.58906e-14 -11.7743 -0.493507)
(-7.59601e-15 2.0252 21.0682)
(-1.6866e-15 -1.66924 15.3766)
(-5.98068e-16 7.78564 11.208)
(-2.29218e-15 10.1111 8.31527)
(-8.95407e-17 7.8833 2.65898)
(8.30815e-16 2.6509 1.56952)
(6.41617e-16 -3.82708 -3.74107)
(2.78026e-16 -3.47401 0.349872)
(-1.39134e-16 0.70649 0.917594)
(-1.41639e-16 0.00963329 -0.814231)
(7.1379e-18 -0.72036 -0.427276)
(3.48762e-18 -0.826491 -0.327642)
(-8.32024e-19 -0.859987 -0.32622)
(7.44018e-19 -1.27167 -0.541122)
(1.85273e-17 -1.23375 -0.295006)
(8.81737e-14 14.3051 -15.3261)
(1.1477e-13 -42.2436 64.3434)
(9.36357e-14 -60.8334 -9.39985)
(2.64358e-14 -3.12604 13.914)
(-6.94787e-15 -3.05867 9.84692)
(9.77307e-16 -1.95754 13.295)
(4.17179e-15 4.65087 11.2025)
(-2.18448e-15 8.76823 9.17949)
(-4.36962e-16 7.96099 4.33225)
(1.07172e-15 2.68957 3.20264)
(8.11051e-16 -3.59969 -1.75413)
(5.03363e-16 -4.36923 0.140203)
(-1.72962e-16 0.738308 1.01698)
(-1.17906e-15 -0.0928977 -1.39557)
(-2.02857e-16 -0.996884 -0.744545)
(3.42135e-17 -0.93854 -0.410484)
(3.47001e-18 -0.963076 -0.498449)
(-6.56553e-18 -1.39139 -0.611667)
(1.19391e-16 -1.18315 -0.9804)
(6.92636e-14 70.9471 -0.0318686)
(1.10475e-13 20.114 25.6842)
(8.95402e-14 -55.4868 -3.61283)
(1.913e-14 -7.53244 19.3772)
(8.32307e-16 -1.73106 10.935)
(1.03787e-14 -1.11689 12.5695)
(1.59704e-14 7.20527 10.7782)
(1.14802e-15 11.6731 9.42912)
(-1.28787e-15 9.7072 5.01878)
(1.26472e-15 4.07597 4.42695)
(8.15701e-16 -3.03573 1.01574)
(6.61096e-16 -4.56658 0.30209)
(-2.84567e-16 1.13842 -0.317548)
(-2.10568e-15 0.426077 -1.79849)
(-7.81367e-16 -1.27141 -1.14724)
(-3.02707e-17 -1.04457 -0.491943)
(2.73629e-17 -1.01805 -0.665534)
(-1.3252e-17 -1.35138 -0.670016)
(4.85636e-16 -1.12358 -1.8838)
(7.449e-14 32.2445 8.16295)
(1.07618e-13 -10.4287 33.2816)
(8.93304e-14 -50.6234 -0.023563)
(3.70754e-14 -10.8674 13.2933)
(1.9663e-14 -0.714065 10.9747)
(2.67586e-14 -0.801867 8.78959)
(3.23101e-14 6.46277 7.60198)
(9.49833e-15 12.0064 9.09808)
(-2.40827e-15 10.3152 6.16545)
(1.47571e-15 4.42132 5.70156)
(8.12941e-16 -2.04213 3.2996)
(7.01272e-16 -3.82876 0.704908)
(-1.18501e-15 1.49431 -1.9218)
(-3.09842e-15 0.590556 -1.60905)
(-1.65323e-15 -1.45654 -1.04515)
(-3.16087e-16 -1.0176 -0.432187)
(7.02803e-17 -0.913022 -0.923629)
(-8.83475e-17 -0.887017 -0.459566)
(9.36887e-16 -0.320373 -3.38844)
(7.10493e-14 37.7711 17.1465)
(1.04916e-13 -2.93103 27.6047)
(9.25186e-14 -44.2428 2.21929)
(6.74969e-14 -14.0856 -0.463495)
(5.68015e-14 1.31462 7.19143)
(3.59834e-14 0.346548 3.3011)
(4.3149e-14 5.92071 2.26815)
(2.21445e-14 12.2379 6.52385)
(-2.86113e-15 10.9819 6.6239)
(1.57916e-15 4.99744 6.22436)
(8.92592e-16 -1.06846 4.58286)
(5.18542e-16 -2.33624 1.22908)
(-3.02371e-15 2.07139 -1.25178)
(-3.83162e-15 -0.359924 -0.0189603)
(-2.1568e-15 -1.6424 -0.285865)
(-5.97284e-16 -0.957852 0.0945115)
(-3.94958e-17 -1.25344 -0.831014)
(-1.11229e-16 -0.742658 -1.14046)
(-2.23386e-15 0.251347 -0.910541)
(6.66991e-14 21.4091 23.3748)
(9.74119e-14 -3.60385 25.9507)
(9.28547e-14 -35.1959 4.93889)
(8.48838e-14 -14.5488 -12.8246)
(7.05291e-14 -1.96315 -13.7972)
(4.79086e-14 -0.377664 -4.74748)
(4.15594e-14 3.78234 -3.67673)
(3.39844e-14 10.8543 1.08616)
(-9.00462e-16 10.5922 5.88583)
(1.30346e-15 5.26158 6.08545)
(8.27487e-16 -0.146479 4.98209)
(-5.2495e-16 -0.796648 1.99097)
(-4.1252e-15 1.74897 2.50181)
(-3.19596e-15 -0.588959 2.81265)
(-2.01293e-15 -1.297 0.543011)
(-9.4895e-16 -0.325558 -0.0399589)
(-6.99814e-16 -0.365796 -1.56234)
(1.03307e-16 -0.356289 -2.8464)
(7.2158e-16 -4.37084 3.32708)
(5.89784e-14 15.9875 29.6137)
(8.13777e-14 -2.42962 24.2674)
(8.28179e-14 -24.2556 7.81148)
(7.25532e-14 -10.208 -19.5741)
(5.11796e-14 -2.40848 -19.5927)
(3.60226e-14 -1.87995 -9.11861)
(3.69866e-14 2.98603 -10.0168)
(3.8171e-14 8.81404 -6.29082)
(4.82596e-15 9.12222 2.82446)
(4.73178e-16 5.28004 5.10372)
(2.50649e-16 0.318612 4.90384)
(-1.88512e-15 -0.387523 4.06174)
(-4.40924e-15 1.34079 6.86905)
(-2.65011e-15 0.165148 7.88636)
(-1.00964e-15 -0.293024 6.00137)
(1.49204e-17 0.0741678 5.61671)
(9.42834e-16 -0.721649 5.48217)
(1.71919e-15 -2.6176 6.44931)
(2.26836e-15 -5.50491 8.85308)
(4.46475e-14 5.21451 33.9066)
(6.40704e-14 -1.46352 24.483)
(6.50234e-14 -12.8796 9.00755)
(5.16298e-14 -6.01429 -22.3773)
(3.37034e-14 -4.18922 -25.1135)
(2.18416e-14 -3.45456 -19.9767)
(3.54822e-14 1.61941 -19.8812)
(3.32312e-14 5.87819 -13.6797)
(1.2042e-14 6.25861 -2.36579)
(-2.81186e-16 4.32095 3.4839)
(-2.02424e-15 -0.215113 5.06077)
(-6.24567e-15 -1.32448 6.60138)
(-4.88138e-15 -0.0975522 10.8281)
(-4.19886e-15 -0.337923 13.4769)
(-3.26157e-15 -0.224518 13.0297)
(-2.62515e-15 -0.0216789 11.9785)
(-1.41779e-15 -0.849772 11.3168)
(-6.1682e-16 -2.47384 10.9264)
(-8.76389e-16 -4.22776 9.48688)
(1.12704e-14 -1.30981 35.414)
(8.74631e-15 -0.215371 24.4518)
(1.43952e-14 1.4628 9.29568)
(1.43507e-14 -0.0149028 -21.4208)
(1.50897e-14 -2.86734 -28.2786)
(1.72894e-14 -3.89145 -29.8959)
(1.35547e-14 -0.673878 -28.6323)
(1.83579e-14 1.8839 -19.4124)
(1.46025e-14 2.46881 -7.07626)
(4.02704e-16 2.25114 1.45126)
(-9.02171e-16 -1.20153 4.80646)
(-4.18939e-15 -2.43967 7.12422)
(-4.20319e-15 -1.2939 10.7471)
(-2.68434e-15 -0.751913 13.4406)
(-1.73948e-15 0.197017 13.1026)
(-2.06971e-15 0.836849 11.2916)
(-2.73525e-15 -0.144461 9.4804)
(-2.2963e-15 -1.59234 8.42781)
(-1.79043e-16 -3.27446 5.54955)
(9.52801e-16 -11.9875 32.3639)
(-2.08718e-15 1.27355 25.0539)
(-2.23254e-15 14.7276 9.67953)
(-1.80976e-15 5.78506 -19.871)
(-6.24071e-16 0.541711 -24.3346)
(3.90658e-15 -2.66645 -27.4652)
(7.81755e-15 -2.79645 -26.4805)
(1.59299e-14 -2.28205 -17.4054)
(1.48064e-14 -1.4555 -6.77291)
(1.43621e-15 -0.403803 0.163019)
(-2.16901e-16 -2.55032 4.18209)
(-2.98104e-15 -3.68153 6.59301)
(-4.2459e-15 -2.77842 10.6469)
(-2.96444e-15 -1.38829 14.7933)
(-1.78483e-15 0.848607 15.1394)
(-1.0075e-15 1.66009 13.2159)
(6.86147e-16 -0.101431 12.6205)
(2.70831e-15 -1.59802 10.1691)
(8.20644e-15 -1.28772 6.03898)
(-1.50362e-15 -17.5537 26.3028)
(-6.70751e-16 1.81994 25.9103)
(-1.28751e-15 25.8884 7.41614)
(-1.16431e-15 9.78772 -16.9925)
(2.80963e-17 0.98095 -15.8063)
(-4.57513e-16 -2.57659 -15.8386)
(3.80761e-15 -4.82381 -17.1663)
(1.47898e-14 -5.67836 -10.4056)
(1.11102e-14 -4.09246 -2.75233)
(-2.89495e-16 -2.11129 0.363242)
(-4.048e-16 -3.6896 3.61448)
(-2.47588e-15 -4.85199 5.47826)
(-4.26784e-15 -4.39127 9.32853)
(-3.51748e-15 -2.3937 12.2452)
(-2.72458e-15 0.695753 9.17547)
(-3.63616e-15 1.48323 7.40654)
(-4.47659e-15 0.969535 12.3493)
(-2.67068e-15 2.54276 15.0851)
(-5.22491e-16 5.57817 15.1159)
(-2.27035e-15 -34.048 20.3465)
(-9.42129e-16 0.912924 26.7516)
(-1.66275e-15 36.4349 3.84045)
(-1.57355e-15 13.0053 -10.8248)
(-4.59641e-16 1.11047 -8.78022)
(-2.30514e-15 -2.08156 -6.15931)
(3.121e-15 -5.71041 -8.34413)
(1.45053e-14 -8.04052 -2.50582)
(3.47068e-15 -5.63686 1.1279)
(-1.38008e-15 -3.19606 2.68787)
(-1.18618e-15 -4.78165 4.17925)
(-2.47007e-15 -5.98981 5.17399)
(-3.93346e-15 -5.63165 8.16773)
(-2.99334e-15 -1.8192 9.69866)
(-1.61579e-15 2.55985 5.44159)
(-1.96144e-15 1.32558 2.20203)
(-2.80118e-15 -2.56295 3.02802)
(-2.23741e-15 -2.35283 5.54034)
(-1.9237e-15 -1.23446 6.72842)
(-2.48687e-15 -28.7877 11.6246)
(-1.11232e-15 9.6701 32.7372)
(-1.65017e-15 45.7292 0.354433)
(-7.3471e-16 12.0933 0.70141)
(-1.0707e-15 -0.790932 7.22584)
(6.61696e-17 -1.33802 2.32079)
(6.36256e-15 -6.70855 -0.403171)
(1.03047e-14 -9.12678 4.15586)
(-1.91642e-15 -5.80765 3.45778)
(-1.94849e-15 -3.13554 5.57576)
(-2.01254e-15 -4.61497 6.08937)
(-2.6061e-15 -6.18817 6.51895)
(-3.3141e-15 -6.0922 7.89901)
(-2.8695e-15 -1.19292 7.41481)
(-3.28658e-15 3.64309 3.18272)
(-3.16986e-15 2.83454 1.85227)
(-1.5144e-15 -1.86371 -0.991965)
(-1.31446e-15 -1.20079 0.111862)
(3.47158e-16 2.31021 -2.52252)
(-2.7784e-15 -66.9221 3.79303)
(-1.42483e-15 -20.5734 24.204)
(-1.56035e-15 52.8567 -3.00986)
(5.31079e-16 7.98624 12.9781)
(3.65024e-15 -0.0793603 11.1001)
(5.3101e-15 -0.666791 9.75809)
(6.39967e-15 -7.37863 6.70434)
(3.62454e-15 -9.42154 7.48728)
(-3.37721e-15 -6.46782 4.69157)
(-2.43779e-15 -4.77639 7.54865)
(-2.56196e-15 -5.81656 7.76387)
(-2.6386e-15 -6.97257 7.84081)
(-2.76312e-15 -6.18123 7.4511)
(-3.09657e-15 0.0128863 4.69731)
(-4.30817e-15 4.71266 0.762659)
(-3.06318e-15 3.43313 0.982994)
(-1.23996e-15 -1.17925 -0.448694)
(-4.83939e-16 -0.555466 -1.93727)
(-2.11012e-17 0.56579 -1.28553)
(-2.89447e-15 -13.0327 -11.043)
(-1.18857e-15 40.3895 60.1324)
(-1.41395e-15 57.8907 -6.93764)
(7.98796e-16 4.30253 16.3564)
(2.57195e-15 1.01267 14.153)
(2.37342e-15 0.603265 14.2728)
(2.58137e-15 -5.92392 9.80804)
(-1.12046e-15 -7.49679 7.76603)
(-3.22176e-15 -5.37807 4.39561)
(-2.61178e-15 -3.42321 7.1514)
(-2.69217e-15 -3.70286 7.56342)
(-2.54809e-15 -5.12182 7.96059)
(-2.5456e-15 -4.46518 6.55778)
(-3.85061e-15 1.38207 2.09928)
(-4.67761e-15 5.26877 -1.04494)
(-2.27393e-15 3.34071 0.761155)
(-4.5928e-16 -0.866824 0.626114)
(-8.06058e-17 -0.64797 -1.62459)
(8.5771e-18 0.876427 -0.469763)
(-2.40611e-15 -155.401 2.54604)
(-3.64858e-15 -31.4502 -10.0668)
(-1.24856e-15 59.6744 -12.9871)
(-5.66449e-17 6.99009 7.03825)
(-2.95248e-16 -1.44401 20.5591)
(-1.53755e-15 2.18329 15.1132)
(-1.02196e-15 -6.10354 10.3679)
(-3.11633e-15 -8.35626 6.80928)
(-3.02383e-15 -7.53111 3.33629)
(-2.94245e-15 -8.04622 6.20379)
(-3.10492e-15 -8.81247 6.23492)
(-2.96808e-15 -8.3985 5.71582)
(-2.84585e-15 -4.88756 3.72443)
(-5.24335e-15 1.99979 -1.44685)
(-4.13818e-15 5.03899 -2.08176)
(-1.08344e-15 2.59523 1.27364)
(1.72609e-16 -0.585834 1.12814)
(7.64366e-17 -0.534439 -0.651775)
(-6.05561e-18 0.351875 -0.0299001)
(-5.15748e-15 141.804 -102.83)
(-1.90347e-15 -27.4496 127.77)
(-9.53269e-16 78.6804 -18.7395)
(-9.44754e-16 -12.6145 54.9773)
(-1.58187e-15 -2.74605 5.66952)
(-2.31327e-15 5.52484 19.6636)
(-2.13053e-15 -0.0601293 6.00838)
(-2.44072e-15 -0.78088 4.144)
(-1.81093e-15 -2.08856 0.316016)
(-1.65537e-15 0.802016 1.76018)
(-1.16465e-15 2.53618 4.01772)
(-1.1049e-15 0.60908 5.42175)
(-2.36162e-15 1.32631 3.15137)
(-5.7121e-15 4.59389 -3.98716)
(-2.51111e-15 5.01616 -1.77019)
(-5.26155e-17 2.12422 2.2266)
(1.00786e-16 -0.0156413 1.84973)
(2.83049e-17 -0.216323 0.0622571)
(1.61263e-18 0.823514 0.105461)
(4.44795e-15 -460.735 288.776)
(-2.88265e-16 59.2599 -114.274)
(-5.29694e-16 84.0201 -16.9148)
(-8.49735e-16 1.29532 86.3472)
(-2.96009e-16 21.2992 -9.94205)
(-2.00264e-15 2.28572 19.277)
(-4.90342e-15 -5.54211 9.56026)
(-5.61224e-15 -13.2626 11.142)
(-4.34918e-15 -13.798 2.93096)
(-6.02447e-15 -21.0979 1.59717)
(-8.98436e-15 -22.9342 0.698011)
(-9.10151e-15 -17.3431 -0.128845)
(-8.93222e-15 -6.48425 -5.82768)
(-3.08276e-15 3.00334 -3.83672)
(-1.22668e-16 4.49199 -0.219458)
(1.04582e-16 2.2597 1.58138)
(-1.40536e-17 1.02505 1.2101)
(-3.0641e-18 0.497582 0.263299)
(4.08288e-19 0.916368 0.117956)
(1.87015e-16 5.25782 9.47781)
(-4.82342e-15 10.1116 17.1042)
(-3.85197e-15 10.2581 17.1343)
(-3.58946e-15 9.95699 16.3738)
(-3.51016e-15 9.92939 16.1409)
(-5.02591e-15 9.99685 16.0681)
(-4.04676e-15 9.86693 15.733)
(-3.47333e-15 9.76522 15.5685)
(-3.39823e-15 9.67106 15.5551)
(-3.42113e-15 9.62845 15.5616)
(-3.49508e-15 9.57783 15.5796)
(-3.44423e-15 9.52807 15.597)
(-3.38954e-15 9.48217 15.6085)
(-3.32455e-15 9.42959 15.6213)
(-3.37225e-15 9.38773 15.6198)
(-3.30733e-15 9.32521 15.6197)
(-3.25539e-15 9.29248 15.6094)
(-3.2969e-15 9.50214 16.086)
(-3.38928e-15 9.77514 16.5357)
(-5.07501e-15 5.54432 9.25158)
(2.11217e-17 5.00847 8.50703)
(-4.25465e-15 9.28042 15.9396)
(-2.97548e-15 9.00561 15.5852)
(-2.95975e-15 8.73407 15.1381)
(-3.0332e-15 8.71725 15.199)
(-4.86554e-15 8.74549 15.2513)
(-3.03108e-15 8.78209 15.3703)
(-3.02976e-15 8.82691 15.4225)
(-3.18068e-15 8.84232 15.4477)
(-3.13726e-15 8.85839 15.4624)
(-3.10343e-15 8.868 15.4752)
(-3.07767e-15 8.87651 15.4866)
(-3.17245e-15 8.88601 15.4947)
(-3.12381e-15 8.88683 15.5064)
(-3.08111e-15 8.9005 15.5073)
(-3.03334e-15 8.88627 15.512)
(-2.96085e-15 8.92345 15.524)
(-3.00862e-15 9.15844 15.9885)
(-3.10621e-15 9.41457 16.3629)
(-4.67487e-15 5.29745 9.3019)
(8.25967e-18 5.47573 9.50433)
(-1.5612e-15 9.57915 16.3905)
(-1.09392e-15 9.29551 15.9994)
(-1.23638e-15 9.05075 15.5044)
(-9.8921e-16 9.0143 15.4794)
(-2.96522e-15 9.03243 15.4764)
(-1.4835e-15 9.00983 15.4646)
(-1.41196e-15 9.00661 15.4559)
(-1.60966e-15 8.9942 15.4627)
(-1.5073e-15 8.99248 15.4668)
(-1.38382e-15 8.98497 15.4751)
(-1.48332e-15 8.9802 15.4833)
(-1.62694e-15 8.97708 15.4906)
(-1.59563e-15 8.96806 15.5027)
(-1.39144e-15 8.97097 15.5074)
(-1.48359e-15 8.95168 15.5191)
(-1.43219e-15 8.96675 15.5205)
(-1.35796e-15 9.15818 15.9345)
(-1.42905e-15 9.51377 16.492)
(-2.03173e-15 5.63459 9.89897)
(-3.73534e-18 5.61477 9.69254)
(3.44007e-16 9.49088 16.2907)
(2.60837e-16 9.12122 15.7459)
(2.39611e-16 8.90688 15.3391)
(2.41847e-16 8.88664 15.3528)
(-1.87208e-15 8.90494 15.3607)
(-1.37365e-15 8.89706 15.3779)
(-1.3814e-15 8.90715 15.3818)
(-1.56093e-15 8.90238 15.3914)
(-1.46979e-15 8.90704 15.3957)
(-1.38353e-15 8.9053 15.4028)
(-1.52909e-15 8.90618 15.4091)
(-1.48783e-15 8.9076 15.4144)
(-1.59523e-15 8.90407 15.4234)
(-1.61412e-15 8.91017 15.4259)
(-1.53193e-15 8.89639 15.4336)
(-1.47004e-15 8.91267 15.4341)
(-1.56538e-15 9.09388 15.8074)
(-1.39571e-15 9.4704 16.4137)
(-2.08127e-15 5.76644 10.0909)
(1.24035e-18 5.84278 10.1069)
(-7.73238e-17 9.51671 16.3351)
(-5.99386e-17 9.10808 15.7255)
(-5.74857e-17 8.91902 15.3515)
(-5.99999e-17 8.89751 15.3607)
(4.40608e-16 8.91284 15.3638)
(3.26703e-16 8.90077 15.3724)
(3.26859e-16 8.90595 15.3726)
(3.6409e-16 8.89884 15.38)
(3.44549e-16 8.90087 15.3831)
(3.25882e-16 8.89708 15.3894)
(3.38293e-16 8.89648 15.3946)
(3.67598e-16 8.89599 15.3995)
(3.56498e-16 8.89208 15.4075)
(3.26882e-16 8.89641 15.4101)
(3.34842e-16 8.88392 15.4175)
(3.33399e-16 8.89654 15.4148)
(3.184e-16 9.05921 15.7529)
(3.3299e-16 9.46706 16.4144)
(4.70899e-16 5.94911 10.4146)
(-3.73897e-19 6.02643 10.4126)
(1.79112e-17 9.49415 16.3064)
(1.43315e-17 9.05058 15.6291)
(1.41772e-17 8.88461 15.3013)
(1.48339e-17 8.86799 15.3162)
(-1.02975e-16 8.88214 15.3196)
(-7.72827e-17 8.87188 15.3296)
(-7.7398e-17 8.87766 15.3309)
(-7.99693e-17 8.87151 15.3385)
(-7.82327e-17 8.87401 15.3417)
(-7.73436e-17 8.87068 15.348)
(-7.70998e-17 8.87075 15.3529)
(-8.21415e-17 8.87017 15.358)
(-7.66528e-17 8.86729 15.3653)
(-7.58051e-17 8.87087 15.3684)
(-7.44668e-17 8.86042 15.3756)
(-7.08017e-17 8.87008 15.3713)
(-7.51407e-17 9.0139 15.6707)
(-7.67632e-17 9.44543 16.3805)
(-1.06778e-16 6.12395 10.7126)
(1.10368e-19 6.22248 10.7503)
(-4.22638e-18 9.48156 16.2892)
(-3.47301e-18 9.01242 15.5648)
(-3.51629e-18 8.8687 15.2764)
(-3.6277e-18 8.85404 15.2926)
(2.39421e-17 8.86665 15.2949)
(1.82953e-17 8.85663 15.3038)
(1.8297e-17 8.86157 15.3049)
(1.83332e-17 8.85556 15.3119)
(1.85778e-17 8.85764 15.3148)
(1.85009e-17 8.85417 15.3208)
(1.82955e-17 8.85428 15.3253)
(1.8516e-17 8.85316 15.3303)
(1.73946e-17 8.85088 15.3369)
(1.76335e-17 8.85346 15.3402)
(1.75365e-17 8.84472 15.3471)
(1.61727e-17 8.85174 15.3417)
(1.77478e-17 8.97699 15.6037)
(1.81885e-17 9.42655 16.3489)
(2.42956e-17 6.30657 11.0279)
(-3.17632e-20 6.41044 11.0692)
(1.01918e-18 9.45687 16.2525)
(8.4079e-19 8.97072 15.4934)
(8.61952e-19 8.84784 15.2438)
(8.78524e-19 8.83551 15.2613)
(-5.56968e-18 8.84687 15.2633)
(-4.36567e-18 8.8377 15.2719)
(-4.3129e-18 8.84226 15.2732)
(-4.29735e-18 8.83677 15.28)
(-4.52604e-18 8.83875 15.2829)
(-4.42417e-18 8.83544 15.2889)
(-4.38642e-18 8.83581 15.2932)
(-4.32226e-18 8.83441 15.2984)
(-4.17035e-18 8.83287 15.3044)
(-4.19259e-18 8.83459 15.3083)
(-4.2879e-18 8.82765 15.3149)
(-3.99829e-18 8.8324 15.3093)
(-4.21829e-18 8.93999 15.5353)
(-4.37157e-18 9.40034 16.3043)
(-5.55126e-18 6.48753 11.3387)
(8.73317e-21 6.59928 11.3914)
(-2.46772e-19 9.42903 16.2095)
(-2.04293e-19 8.9336 15.4299)
(-2.09483e-19 8.83039 15.2165)
(-2.1317e-19 8.81965 15.2344)
(1.30658e-18 8.82978 15.2359)
(1.05184e-18 8.8213 15.2438)
(1.01845e-18 8.82534 15.2453)
(1.01762e-18 8.82029 15.2517)
(1.10037e-18 8.82203 15.2546)
(1.05633e-18 8.81885 15.2604)
(1.05607e-18 8.81936 15.2644)
(1.02908e-18 8.81767 15.2697)
(1.03814e-18 8.81679 15.2751)
(1.01627e-18 8.81762 15.2794)
(1.06705e-18 8.81237 15.2857)
(1.01254e-18 8.81516 15.2805)
(1.0107e-18 8.90621 15.4724)
(1.05452e-18 9.37002 16.2521)
(1.27876e-18 6.66882 11.6507)
(-2.28674e-21 6.78568 11.7086)
(5.88937e-20 9.39446 16.1552)
(4.99041e-20 8.89792 15.3686)
(5.10728e-20 8.81294 15.1893)
(5.2216e-20 8.80355 15.2069)
(-3.10913e-19 8.81254 15.2081)
(-2.5486e-19 8.80483 15.2156)
(-2.43247e-19 8.80839 15.2173)
(-2.4471e-19 8.80384 15.2233)
(-2.6497e-19 8.80537 15.2263)
(-2.53757e-19 8.80241 15.2319)
(-2.53675e-19 8.80304 15.2358)
(-2.48749e-19 8.80114 15.2412)
(-2.61019e-19 8.8009 15.2461)
(-2.48336e-19 8.8009 15.2509)
(-2.64352e-19 8.79729 15.2567)
(-2.5496e-19 8.7984 15.2524)
(-2.43503e-19 8.87429 15.4125)
(-2.5585e-19 9.334 16.1901)
(-2.99054e-19 6.84894 11.9603)
(5.78875e-22 6.97109 12.0244)
(-1.37975e-20 9.35475 16.0918)
(-1.21784e-20 8.86497 15.3121)
(-1.25243e-20 8.79672 15.164)
(-1.28702e-20 8.78833 15.1809)
(7.50135e-20 8.79625 15.182)
(6.19724e-20 8.78928 15.1889)
(5.91536e-20 8.79235 15.1908)
(5.99744e-20 8.7883 15.1965)
(6.36038e-20 8.78958 15.1995)
(6.16722e-20 8.78685 15.2049)
(6.09174e-20 8.78754 15.2086)
(6.10297e-20 8.78548 15.214)
(6.50571e-20 8.78581 15.2185)
(6.09335e-20 8.78503 15.2237)
(6.46557e-20 8.78297 15.229)
(6.31799e-20 8.78261 15.226)
(5.89614e-20 8.8448 15.3568)
(6.27204e-20 9.29281 16.1192)
(7.10938e-20 7.02821 12.2685)
(-1.44574e-22 7.15503 12.3375)
(3.20151e-21 9.30929 16.0185)
(2.9449e-21 8.83428 15.2593)
(3.05589e-21 8.78113 15.1399)
(3.16168e-21 8.77353 15.1556)
(-1.82263e-20 8.78045 15.1566)
(-1.51543e-20 8.77422 15.1631)
(-1.4608e-20 8.77681 15.1651)
(-1.49325e-20 8.77328 15.1705)
(-1.53534e-20 8.77427 15.1736)
(-1.5124e-20 8.77185 15.1787)
(-1.47204e-20 8.77253 15.1823)
(-1.51397e-20 8.7704 15.1877)
(-1.59826e-20 8.77121 15.1918)
(-1.50197e-20 8.76972 15.1974)
(-1.56161e-20 8.76914 15.2021)
(-1.5378e-20 8.76746 15.2007)
(-1.43952e-20 8.81757 15.305)
(-1.55421e-20 9.2462 16.039)
(-1.7023e-20 7.20644 12.5747)
(3.60887e-23 7.33778 12.6486)
(-7.4436e-22 9.25838 15.9358)
(-7.03068e-22 8.80609 15.2109)
(-7.31335e-22 8.76634 15.117)
(-7.68153e-22 8.75933 15.1314)
(4.41732e-21 8.76535 15.1323)
(3.72939e-21 8.75983 15.1384)
(3.62755e-21 8.76194 15.1406)
(3.74362e-21 8.75894 15.1456)
(3.73249e-21 8.75961 15.1487)
(3.71643e-21 8.75754 15.1536)
(3.58698e-21 8.75814 15.1571)
(3.766e-21 8.75603 15.1625)
(3.88016e-21 8.75722 15.1662)
(3.70813e-21 8.75511 15.1722)
(3.73326e-21 8.75588 15.1763)
(3.69211e-21 8.75302 15.1767)
(3.54775e-21 8.79271 15.2571)
(3.87055e-21 9.19426 15.9497)
(4.05255e-21 7.38369 12.8791)
(-9.01346e-24 7.51933 12.9575)
(1.74353e-22 9.2019 15.8434)
(1.66126e-22 8.7803 15.1666)
(1.70584e-22 8.75221 15.0953)
(1.84402e-22 8.74564 15.1081)
(-1.0593e-21 8.75083 15.1091)
(-9.19054e-22 8.74601 15.1146)
(-8.96705e-22 8.74765 15.117)
(-9.34056e-22 8.74519 15.1216)
(-9.07905e-22 8.74553 15.1249)
(-9.09465e-22 8.74384 15.1295)
(-8.77181e-22 8.74429 15.133)
(-9.29867e-22 8.74232 15.1383)
(-9.35089e-22 8.74374 15.1417)
(-9.1043e-22 8.74116 15.1479)
(-8.85373e-22 8.74314 15.1514)
(-8.80297e-22 8.73921 15.1537)
(-8.77982e-22 8.77022 15.2133)
(-9.60674e-22 9.13693 15.8513)
(-9.51752e-22 7.55998 13.1815)
(2.23898e-24 7.69988 13.2645)
(-4.10326e-23 9.13992 15.7414)
(-3.90995e-23 8.75694 15.1265)
(-3.90057e-23 8.73877 15.0745)
(-4.39645e-23 8.7325 15.0858)
(2.50415e-22 8.73696 15.0868)
(2.24885e-22 8.73281 15.0919)
(2.19286e-22 8.73398 15.0945)
(2.2951e-22 8.73204 15.0987)
(2.19138e-22 8.73205 15.1021)
(2.20777e-22 8.73076 15.1064)
(2.1371e-22 8.731 15.1099)
(2.26107e-22 8.72927 15.115)
(2.24333e-22 8.73076 15.1182)
(2.20826e-22 8.72791 15.1246)
(2.08844e-22 8.73088 15.1275)
(2.09305e-22 8.726 15.1316)
(2.16267e-22 8.75007 15.1733)
(2.36194e-22 9.0742 15.7438)
(2.20402e-22 7.7353 13.4818)
(-5.50295e-25 7.87975 13.5702)
(9.64346e-24 9.0725 15.6298)
(9.22849e-24 8.73613 15.0909)
(8.87132e-24 8.72618 15.055)
(1.04781e-23 8.72014 15.0647)
(-5.84142e-23 8.72388 15.0658)
(-5.42862e-23 8.72045 15.0704)
(-5.29336e-23 8.72109 15.0731)
(-5.52235e-23 8.71966 15.077)
(-5.22591e-23 8.71936 15.0804)
(-5.30649e-23 8.71841 15.0844)
(-5.15992e-23 8.71839 15.088)
(-5.40033e-23 8.71701 15.0927)
(-5.36293e-23 8.71831 15.0959)
(-5.27873e-23 8.71546 15.1022)
(-4.91736e-23 8.71909 15.1046)
(-4.96188e-23 8.7134 15.1105)
(-5.26789e-23 8.73225 15.1373)
(-5.74133e-23 9.00612 15.6274)
(-5.05051e-23 7.90968 13.7798)
(1.33822e-25 8.05937 13.8752)
(-2.25444e-24 8.99947 15.5081)
(-2.19331e-24 8.71779 15.0597)
(-2.0377e-24 8.71455 15.0366)
(-2.50399e-24 8.70877 15.0447)
(1.35042e-23 8.71173 15.0461)
(1.29161e-23 8.70916 15.0501)
(1.26155e-23 8.70929 15.053)
(1.30209e-23 8.7083 15.0564)
(1.23317e-23 8.7078 15.0598)
(1.26306e-23 8.70711 15.0635)
(1.23259e-23 8.70685 15.0671)
(1.27078e-23 8.70587 15.0715)
(1.27849e-23 8.70672 15.0749)
(1.24677e-23 8.70427 15.0808)
(1.16048e-23 8.70799 15.0831)
(1.17067e-23 8.70175 15.0903)
(1.26752e-23 8.71697 15.1052)
(1.38197e-23 8.93308 15.5027)
(1.14956e-23 8.08318 14.0752)
(-3.23325e-26 8.23966 14.1804)
(5.24272e-25 8.92059 15.3748)
(5.24682e-25 8.70165 15.0324)
(4.76158e-25 8.70362 15.0189)
(5.9882e-25 8.6985 15.0253)
(-3.1086e-24 8.70034 15.0269)
(-3.0406e-24 8.69872 15.0302)
(-2.97206e-24 8.69839 15.033)
(-3.02425e-24 8.6977 15.0361)
(-2.89318e-24 8.69712 15.0394)
(-2.9819e-24 8.69657 15.0428)
(-2.91589e-24 8.69617 15.0463)
(-2.96385e-24 8.69556 15.0503)
(-3.04093e-24 8.69586 15.054)
(-2.92439e-24 8.69426 15.0593)
(-2.75149e-24 8.69725 15.0619)
(-2.74785e-24 8.69129 15.07)
(-3.02074e-24 8.70425 15.0762)
(-3.30449e-24 8.85558 15.3705)
(-2.60748e-24 8.25515 14.3662)
(7.88346e-27 8.42319 14.4926)
(-1.22885e-25 8.83808 15.2311)
(-1.27292e-25 8.69069 15.012)
(-1.14133e-25 8.69522 15.0051)
(-1.44037e-25 8.69182 15.0089)
(7.22848e-25 8.69212 15.0105)
(7.19959e-25 8.69114 15.0126)
(7.00478e-25 8.69035 15.0148)
(7.03372e-25 8.68951 15.0171)
(6.85799e-25 8.68862 15.0197)
(7.07369e-25 8.68775 15.0224)
(6.92008e-25 8.68688 15.0254)
(6.96553e-25 8.68604 15.0287)
(7.30096e-25 8.68543 15.0321)
(6.91557e-25 8.68433 15.0364)
(6.62372e-25 8.68532 15.0397)
(6.49875e-25 8.68103 15.0469)
(7.23714e-25 8.69107 15.0483)
(7.95435e-25 8.77264 15.2324)
(5.95764e-25 8.42326 14.6449)
(-1.63304e-27 8.61058 14.8239)
(2.42628e-26 8.7527 15.0801)
(2.59609e-26 8.69281 15.0032)
(2.31808e-26 8.695 15.0014)
(2.90455e-26 8.69441 15.0021)
(-1.41298e-25 8.69407 15.0026)
(-1.44018e-25 8.69366 15.0031)
(-1.38068e-25 8.69304 15.0038)
(-1.37215e-25 8.69232 15.0046)
(-1.3758e-25 8.69143 15.0056)
(-1.40914e-25 8.69038 15.0067)
(-1.37937e-25 8.68914 15.008)
(-1.37971e-25 8.68772 15.0095)
(-1.47179e-25 8.68604 15.0113)
(-1.38027e-25 8.68416 15.0133)
(-1.34674e-25 8.68208 15.0156)
(-1.30017e-25 8.67892 15.0189)
(-1.45607e-25 8.67938 15.02)
(-1.61732e-25 8.69418 15.0844)
(-1.14916e-25 8.5934 14.8933)
(6.27942e-26 -2.57392 16.9966)
(3.85212e-25 -8.03962 13.6195)
(6.80975e-26 -5.17646 14.4608)
(-3.78966e-24 -5.00053 14.0597)
(-1.32999e-23 -4.09249 14.0088)
(-1.86672e-23 -3.54294 13.8239)
(1.86179e-23 -2.98406 13.6557)
(1.71372e-22 -2.53302 13.4595)
(5.21068e-22 -2.14928 13.2553)
(1.10144e-21 -1.84656 13.0452)
(1.84279e-21 -1.61981 12.8315)
(2.55799e-21 -1.46566 12.6051)
(2.98953e-21 -1.37444 12.3486)
(2.91922e-21 -1.34755 12.0379)
(2.32546e-21 -1.40149 11.6503)
(1.48029e-21 -1.51023 11.1985)
(7.95847e-22 -1.69954 10.6575)
(4.82077e-22 -2.24784 9.74608)
(3.77182e-22 -2.36476 8.39706)
(1.29945e-22 0.28049 6.27035)
(4.74016e-26 -11.101 28.2898)
(1.07566e-24 -16.9009 24.786)
(1.47887e-24 -11.9061 25.1774)
(-6.25143e-24 -12.5317 23.4678)
(-2.10988e-23 -10.7831 22.7243)
(6.09274e-24 -10.0931 21.638)
(1.89503e-22 -9.07141 20.7299)
(6.33505e-22 -8.26534 19.7949)
(1.27755e-21 -7.46014 18.9108)
(1.78847e-21 -6.73125 18.0368)
(1.61789e-21 -6.03945 17.1629)
(2.55196e-22 -5.39614 16.2529)
(-2.29942e-21 -4.8061 15.2609)
(-4.99514e-21 -4.28269 14.1042)
(-6.08667e-21 -3.81813 12.6941)
(-5.08654e-21 -3.35285 10.9914)
(-4.06189e-21 -2.79743 8.91417)
(-5.97738e-21 -2.1117 6.16878)
(-1.1878e-20 -1.06705 2.52531)
(-1.41029e-20 0.421732 -1.03872)
(-6.5723e-26 -14.1776 30.4892)
(8.56855e-25 -17.9951 27.7199)
(1.58182e-24 -13.3761 27.5687)
(-8.19023e-24 -14.1987 25.2859)
(-1.95167e-23 -12.1347 24.3741)
(5.96755e-23 -11.6182 22.8466)
(3.9889e-22 -10.4915 21.6969)
(1.03681e-21 -9.72598 20.4718)
(1.49501e-21 -8.89075 19.3562)
(5.19145e-22 -8.12326 18.2127)
(-3.52247e-21 -7.27571 16.9308)
(-1.09716e-20 -6.23529 15.2328)
(-1.86798e-20 -4.85021 12.811)
(-2.11885e-20 -3.17638 9.63301)
(-1.74954e-20 -1.57864 6.22789)
(-1.43743e-20 -0.335326 3.21907)
(-1.8945e-20 0.745051 0.532727)
(-3.37967e-20 1.76481 -2.0075)