/*--------------------------------*- C++ -*----------------------------------*\
| =========                 |                                                 |
| \\      /  F ield         | OpenFOAM: The Open Source CFD Toolbox           |
|  \\    /   O peration     | Version:  4.1                                   |
|   \\  /    A nd           | Web:      www.OpenFOAM.org                      |
|    \\/     M anipulation  |                                                 |
\*---------------------------------------------------------------------------*/
FoamFile
{
    version     2.0;
    format      ascii;
    class       volScalarField;
    location    "7";
    object      p;
}
// * * * * * * * * * * * * * * * * * * * * * * * * * * * * * * * * * * * * * //

dimensions      [0 2 -2 0 0 0 0];

internalField   nonuniform List<scalar> 
1280
(
0.0078518
-0.042123
0.159856
-0.104561
-0.0616192
-0.10361
-0.444187
-0.638816
-1.04073
-1.10531
-1.80523
-1.97905
-2.46889
-3.79449
-3.96362
-5.54931
-7.81665
-8.61574
-10.0282
-18.3496
-13.2122
0.662165
16.1698
21.4883
24.3287
29.8752
-0.800913
13.591
13.3271
12.8469
12.4043
11.9229
11.4998
10.8448
10.4181
9.29616
8.86201
6.67733
5.99923
2.8207
-32.5641
-10.8102
-4.37797
-0.421092
8.77848
10.5089
10.1339
10.7585
10.1127
10.6269
10.6128
10.2352
10.7327
10.1881
10.5641
8.90084
-0.341745
-4.21537
-10.5467
-32.3982
2.90419
6.10809
6.83878
9.08888
9.61241
10.8097
11.3058
12.0145
12.4845
13.0034
13.4792
13.9722
14.272
0.523458
30.5631
24.8906
21.9592
16.5432
0.96317
-12.977
-18.2077
-9.87815
-8.43629
-7.54065
-5.34985
-3.73638
-3.5141
-2.24051
-1.76337
-1.56423
-0.93373
-0.860879
-0.492135
-0.323861
-0.0229284
0.00947342
-0.0563466
0.168466
0.00283846
0.0229977
-0.320061
-0.147887
-1.46906
-0.573881
0.535638
1.36826
1.67246
0.924679
0.187335
-0.294649
-0.963791
-0.404088
0.212021
0.485917
0.0396363
-0.132131
-0.262212
-0.26781
-0.135723
-1.34542
-1.58283
-3.4038
-0.979685
1.17365
3.05136
3.9209
2.36668
0.723303
-0.682813
-1.83138
0.257175
1.57471
1.90696
0.251884
-0.367478
-0.53824
-0.364961
-0.060685
-3.20149
-4.40859
-5.10947
-1.40546
1.38333
3.66847
4.80899
2.57371
0.133345
-2.57563
-3.63514
0.0699376
2.31049
2.92905
0.278518
-1.05532
-1.16568
-0.799936
-0.348511
-4.42562
-6.25291
-6.87393
-1.97276
1.67863
4.53507
5.90746
2.66297
-1.0833
-5.52679
-6.20901
0.35909
3.35832
3.88461
0.152386
-2.09486
-1.91435
-0.872088
-0.0162469
-5.76485
-8.23606
-8.63748
-2.47921
1.94896
5.15779
6.07713
2.25896
-3.01637
-9.50975
-10.1409
0.493511
4.9295
4.60143
-0.64393
-4.0892
-3.17086
-1.76385
-0.861885
-6.74736
-9.0649
-9.70048
-2.73402
2.26398
5.49697
5.38127
2.0074
-4.20411
-12.5318
-13.7432
0.752192
7.77458
5.71504
-2.30082
-7.66068
-4.70905
-0.727864
0.505246
-7.63019
-9.23402
-10.291
-2.78319
2.54408
5.47355
4.41397
2.01806
-4.45062
-14.1707
-15.5022
1.38211
11.1052
6.39246
-4.07571
-10.2667
-7.15063
-3.35234
-1.59373
-8.1777
-8.28777
-9.93177
-2.35266
2.92219
5.3165
3.90073
2.4329
-3.70982
-13.796
-14.537
1.96107
12.8332
6.52524
-5.07662
-11.1379
-5.66328
3.63465
1.72762
-8.64141
-7.17577
-9.3032
-1.82062
3.2476
5.14848
3.76288
2.85942
-2.73104
-12.6171
-13.0587
3.33315
12.7701
7.86673
-1.85629
-8.99199
-4.51773
15.0429
22.9123
-8.80556
-5.89097
-8.37849
-1.00178
3.80987
5.20747
3.86158
3.12503
-2.18844
-11.3183
-10.8573
5.61998
11.9857
7.80214
-1.33971
-7.61706
0.518274
27.5731
17.2819
-8.73317
-5.44289
-8.12765
-0.976515
3.79337
5.27937
4.1271
3.18489
-2.91479
-12.6774
-11.5204
7.71574
11.7449
7.69781
-2.06734
-8.28226
0.275228
27.5105
16.9957
-8.46291
-6.20487
-8.74657
-1.58798
3.49323
5.34519
4.24973
2.79554
-4.52836
-15.1694
-13.3354
9.4755
11.694
7.64909
-4.83724
-12.5682
-6.76197
14.4824
22.9604
-7.9132
-7.25111
-9.70562
-2.62061
2.93617
5.6373
4.89464
2.75982
-5.11925
-15.6083
-12.8368
9.58885
11.524
5.21499
-10.4146
-16.7612
-8.47389
5.02072
2.7933
-7.3137
-8.55117
-10.7046
-3.48937
2.46054
5.76138
5.65732
2.75598
-4.69263
-14.7577
-11.0241
8.10946
11.1996
3.27891
-11.0412
-16.0038
-9.55527
-2.2722
-1.15034
-6.47273
-9.06189
-10.8672
-3.9309
1.95187
5.57924
6.35217
3.43576
-2.79488
-10.904
-7.10613
6.31982
10.0806
2.83247
-8.66561
-13.7389
-7.47329
-0.205047
0.873129
-5.53968
-8.87095
-10.3257
-3.89808
1.47365
4.99276
6.19537
3.95762
-0.744888
-6.00353
-3.90972
4.87018
8.51978
2.59043
-4.84265
-9.29867
-5.46273
-1.73085
-0.766475
-4.29636
-7.22601
-8.47843
-3.32439
1.08526
4.15295
5.40779
3.94298
0.347725
-3.15599
-2.27591
3.75181
6.91939
2.30153
-2.01774
-5.35481
-3.44285
-1.02596
-0.0321521
-3.10671
-5.23333
-6.39816
-2.52438
0.801402
3.17636
4.172
3.18491
0.669839
-1.53687
-1.20734
2.76726
5.05341
1.62393
-0.761501
-2.9174
-2.16835
-1.005
-0.435156
-1.38874
-1.75662
-3.7743
-1.69933
0.665167
2.47369
3.23629
2.52372
0.865326
-0.448709
-0.343079
1.94163
3.20796
0.974574
-0.133807
-1.18046
-1.11288
-0.544745
-0.137586
-0.390188
-0.112056
-1.18887
-0.840785
0.238101
0.982308
1.141
0.669688
-0.114788
-0.710905
-0.719552
0.210849
0.805813
0.20473
-0.0822969
-0.278096
-0.451723
-0.362792
-0.181998
115.899
114.923
113.783
115.195
112.301
110.957
108.366
106.655
104.478
102.845
101.288
99.97
98.9111
97.8816
97.3089
96.3741
96.4439
95.3227
96.4035
95.3969
63.5005
64.2726
64.5754
66.8316
65.9773
66.965
66.6228
67.3226
67.4344
67.9839
68.3432
68.8414
69.3835
69.8632
70.6072
70.9709
72.0849
72.2098
74.0008
74.457
75.8462
75.2379
75.4776
76.9977
75.8595
76.4177
75.623
75.6974
75.2168
75.1334
74.9725
74.9878
75.142
75.2802
75.7562
75.8602
76.8158
76.6908
78.4049
78.4954
58.4543
58.2785
58.9396
60.4747
59.7788
60.4721
59.8436
60.0253
59.6593
59.6569
59.5983
59.6981
59.9624
60.2208
60.8442
61.1105
62.249
62.3092
64.2102
64.6593
59.8905
59.7041
60.5035
61.6996
61.3178
61.8035
61.1711
61.2569
60.8338
60.6547
60.428
60.2844
60.3084
60.2872
60.6756
60.6411
61.605
61.3362
63.154
63.2027
50.7317
51.6184
52.921
54.6652
55.3994
56.0194
55.6759
55.9975
55.853
55.8083
55.7268
55.6299
55.6492
55.5612
55.8498
55.6716
56.5219
56.1586
57.9603
58.0104
42.6359
44.6788
46.2055
48.5284
50.6144
51.5433
51.8353
52.6793
53.0719
53.3644
53.6893
53.8759
54.1073
54.125
54.4537
54.25
55.0733
54.766
56.5761
56.7518
25.2181
28.3129
29.1511
31.4834
35.0714
35.3886
36.2124
38.0015
39.101
39.9611
40.9427
41.75
42.5736
43.1848
44.0394
44.4672
45.7262
46.2604
48.4775
49.5479
-1.83726
0.142609
-0.520326
0.85879
4.83846
3.78731
3.7582
5.86821
7.44657
8.46171
9.7895
11.09
12.6595
14.3053
16.3266
18.281
20.8486
23.1975
26.3971
29.1441
-16.7375
-18.1414
-21.3607
-22.4482
-19.7833
-24.3631
-27.2285
-26.9048
-27.4416
-28.9051
-29.653
-30.2942
-30.2465
-29.7418
-28.5561
-26.8292
-24.4377
-21.5232
-18.2516
-15.5449
14.4518
12.2955
7.43912
4.84864
7.24202
0.893645
-3.7727
-5.20279
-7.72797
-11.447
-14.1154
-16.951
-18.863
-20.277
-20.7585
-20.0964
-18.6765
-17.0472
-15.2535
-15.8613
48.7577
49.1684
48.6802
47.6422
62.1724
39.9923
39.8999
36.9194
35.5785
32.3778
30.2028
26.9039
23.8718
20.195
16.6321
13.8394
11.9541
11.1458
12.1647
10.757
44.0425
46.5262
47.3774
46.7585
49.2122
46.2757
46.6617
42.9132
42.189
39.1443
37.0206
33.7155
30.5261
26.9495
24.2218
21.9647
21.618
21.0626
20.0256
20.1471
26.6665
30.117
33.2734
33.5924
38.0477
38.3536
42.6772
42.7326
45.3968
46.8285
48.2937
48.7538
48.7925
48.2272
47.148
45.2193
45.1199
45.9505
47.0682
47.8301
-19.0942
-17.6507
-13.7545
-14.5154
-10.173
-9.98964
-6.83903
-5.32595
-3.00764
-0.918218
1.24962
3.4324
5.57508
7.76005
9.89753
12.0174
14.4288
17.7358
20.6328
24.445
-39.7301
-42.7696
-40.8581
-45.0206
-43.3521
-46.3122
-46.1257
-47.6958
-48.2379
-49.1285
-49.7029
-50.1551
-50.2843
-49.8792
-48.7459
-46.7451
-44.5628
-42.143
-40.2239
-36.1398
0.71791
-4.80333
-3.7887
-11.6034
-12.7395
-18.7125
-22.0691
-26.8828
-30.9742
-35.3716
-39.5393
-43.6311
-47.3736
-50.513
-52.7346
-54.1651
-55.1801
-55.8272
-56.9015
-55.7565
22.4961
15.4837
22.9914
15.5128
17.0722
13.1781
11.4466
8.38139
5.60304
2.51204
-0.578184
-3.66681
-6.56445
-9.03692
-10.852
-12.1223
-13.1668
-14.2662
-16.099
-17.8083
37.4707
15.7889
24.1292
13.286
10.8722
4.45945
-0.205631
-5.24585
-9.57507
-13.4411
-16.5721
-18.896
-20.2403
-20.4009
-19.1783
-16.8087
-13.6385
-9.47416
-5.68072
-4.55258
716.036
634.046
585.392
529.456
480.789
433.794
390.094
348.783
309.856
273.012
238.078
204.872
173.215
143.076
114.558
86.8867
60.0246
37.9752
13.3593
-23.7221
728.311
646.313
597.654
541.714
493.045
446.048
402.347
361.035
322.108
285.264
250.33
217.124
185.469
155.332
126.816
99.1434
72.2795
50.229
25.606
-11.4859
49.4868
27.8073
36.1462
25.3023
22.8871
16.4715
11.803
6.75816
2.42342
-1.44898
-4.5871
-6.91887
-8.27134
-8.44012
-7.23129
-4.88265
-1.72424
2.43465
6.22611
7.39315
34.8059
27.7577
35.2571
27.7562
29.3051
25.3927
23.649
20.5665
17.7722
14.6619
11.5519
8.44122
5.52233
3.03848
1.20333
-0.127175
-1.17033
-2.27499
-4.27742
-5.84152
11.8763
6.30709
7.29039
-0.567443
-1.74274
-7.75089
-11.1466
-15.9892
-20.1066
-24.5167
-28.6833
-32.7548
-36.4567
-39.5369
-41.6982
-43.098
-44.0606
-44.6356
-45.9462
-44.6085
-28.6915
-31.8044
-29.9794
-34.1212
-32.4522
-35.3591
-35.1058
-36.6329
-37.1186
-37.9453
-38.4379
-38.7892
-38.8276
-38.3558
-37.1831
-35.2428
-33.3295
-31.0738
-29.5134
-25.642
-11.9525
-10.8141
-7.09118
-8.04851
-3.82825
-4.19278
-1.03648
-0.0789385
1.93305
3.64309
5.49454
7.44343
9.22374
10.8468
12.1425
15.4137
17.8331
20.7297
23.5826
27.2858
28.4592
31.5573
34.5333
34.306
38.5043
37.7707
41.5742
42.1893
44.0776
46.0576
46.6865
51.1073
45.4689
-8.78077
55.2596
50.222
53.4459
55.629
57.3458
59.1804
49.5187
52.8393
54.7927
54.9847
57.6685
58.4048
60.3722
60.6787
62.8166
64.7439
66.2993
68.986
70.0649
70.7935
72.7822
66.1927
69.8443
62.1659
59.1629
62.3273
75.8515
77.2425
77.801
77.5053
78.7014
77.8108
78.0805
76.2627
75.6563
73.7359
71.6746
68.5023
64.202
58.2711
54.8563
49.296
46.813
44.7291
44.6814
41.1985
35.5085
32.3568
29.8177
26.1068
23.2286
18.822
15.023
10.0764
5.847
1.32378
-2.27633
-5.62696
-7.98146
-9.73342
-10.6192
-10.6647
-10.0032
-9.07822
-8.74588
-10.5596
-12.9085
-15.5587
-17.19
-19.8026
-21.471
-24.5396
-26.568
-29.5889
-31.7621
-33.9951
-35.3582
-36.3411
-36.6018
-36.3088
-35.3095
-33.6159
-31.1507
-28.0373
-24.7419
-21.994
-4.80747
-3.32361
-2.66899
-2.21247
-0.929143
-0.855561
0.2286
0.516977
1.40397
2.16641
3.38886
4.78846
6.54832
8.4833
10.829
13.1749
16.1034
18.8606
22.3366
25.5716
24.3684
27.5508
29.4805
31.6467
33.4798
34.4703
35.8311
36.8376
38.0806
39.1212
40.2057
41.1549
42.1033
42.861
43.8249
44.3681
45.6894
46.2633
48.5821
49.9117
43.2749
45.4539
47.654
50.026
50.8778
51.6785
52.1521
52.6931
53.2361
53.6961
54.1515
54.4713
54.7903
54.9004
55.2554
55.0918
55.8752
55.527
57.3571
57.6393
51.2598
52.1938
53.8503
55.795
55.601
56.2854
56.0793
56.2957
56.2367
56.285
56.3101
56.3188
56.409
56.3888
56.6869
56.535
57.337
56.9562
58.7649
58.8581
60.4692
60.3098
61.3528
62.8789
62.0228
62.5571
61.9018
61.9023
61.4875
61.3375
61.1637
61.0762
61.1322
61.1445
61.5185
61.4957
62.3912
62.1257
63.8913
63.9944
58.9279
58.7549
59.5295
61.3549
60.3755
61.0788
60.3944
60.5697
60.2301
60.2583
60.2359
60.3675
60.644
60.9139
61.5147
61.7805
62.8495
62.9172
64.7319
65.224
76.2616
75.6637
76.002
77.7319
76.4613
76.9543
76.0472
76.0485
75.5203
75.4053
75.2204
75.2124
75.3355
75.4454
75.878
75.9534
76.8441
76.6937
78.3178
78.4915
63.8302
64.6134
64.9474
67.2777
66.3817
67.3035
66.8957
67.5492
67.6264
68.1481
68.478
68.9458
69.4514
69.8981
70.6048
70.9393
72.0148
72.1148
73.8357
74.3916
116.003
115.033
113.856
115.273
112.359
110.933
108.286
106.496
104.25
102.554
100.946
99.584
98.4827
97.4249
96.8172
95.8733
95.91
94.7996
95.8155
94.8766
)
;

boundaryField
{
    outletWall
    {
        type            fixedValue;
        value           uniform 0;
    }
    fineWalls
    {
        type            zeroGradient;
    }
    fineFrontAndBack
    {
        type            zeroGradient;
    }
    fineplugLeft
    {
        type            cyclicAMI;
        value           nonuniform List<scalar> 
20
(
76.8817
78.3227
77.5937
78.9275
78.9585
79.9307
80.4742
81.4288
82.3606
83.5116
84.845
86.2475
88.0424
95.9526
94.7406
94.7066
96.4538
94.2608
92.0708
90.0766
)
;
    }
    fineplugRight
    {
        type            cyclicAMI;
        value           nonuniform List<scalar> 
20
(
76.4821
77.874
77.2074
78.5458
78.6212
79.6157
80.2011
81.1891
82.1641
83.3574
84.7394
86.1945
88.0511
96.033
94.8592
94.8655
96.6106
94.3936
92.219
90.2069
)
;
    }
    inletOutletLeft
    {
        type            cyclicAMI;
        value           nonuniform List<scalar> 
20
(
76.8817
78.3227
77.5937
78.9275
78.9585
79.9307
80.4742
81.4288
82.3606
83.5116
84.845
86.2475
88.0424
95.9526
94.7406
94.7066
96.4538
94.2608
92.0708
90.0766
)
;
    }
    inletLeft
    {
        type            zeroGradient;
    }
    inletWallsLeft
    {
        type            zeroGradient;
    }
    inletFacesLeft
    {
        type            zeroGradient;
    }
    inletOutletRight
    {
        type            cyclicAMI;
        value           nonuniform List<scalar> 
20
(
76.4821
77.874
77.2074
78.5458
78.6212
79.6157
80.2011
81.1891
82.1641
83.3574
84.7394
86.1945
88.0511
96.033
94.8592
94.8655
96.6106
94.3936
92.219
90.2069
)
;
    }
    inletRight
    {
        type            zeroGradient;
    }
    inletWallsRight
    {
        type            zeroGradient;
    }
    inletFacesRight
    {
        type            zeroGradient;
    }
}


// ************************************************************************* //
