/*--------------------------------*- C++ -*----------------------------------*\
| =========                 |                                                 |
| \\      /  F ield         | OpenFOAM: The Open Source CFD Toolbox           |
|  \\    /   O peration     | Version:  4.1                                   |
|   \\  /    A nd           | Web:      www.OpenFOAM.org                      |
|    \\/     M anipulation  |                                                 |
\*---------------------------------------------------------------------------*/
FoamFile
{
    version     2.0;
    format      ascii;
    class       surfaceScalarField;
    location    "7";
    object      phi;
}
// * * * * * * * * * * * * * * * * * * * * * * * * * * * * * * * * * * * * * //

dimensions      [0 3 -1 0 0 0 0];

internalField   nonuniform List<scalar> 
2360
(
-615.861
419.866
-1035.73
419.864
419.866
1528.64
-1108.78
1528.64
1528.64
1528.64
2838.66
-1310.02
2838.66
2838.66
4548.03
-1709.37
4548.03
4548.03
6863.04
-2315.01
6863.04
6863.04
10588.8
-3725.73
10588.8
10588.8
11297
12805.8
14338
15807.7
17175
18434.9
14744.1
4857.65
15816
16811.3
17750.2
18646.1
19508.4
20341.7
21149
21928.8
22680.9
23395.3
24064.3
24684.2
25231.1
10548.8
14682.3
10548.8
10548.8
10548.8
-371.422
10920.2
-371.422
-371.421
-371.421
-39.9155
-331.505
-39.9149
-39.9143
342.773
-382.686
342.773
342.774
342.774
-10584.1
10926.9
-10584.1
-10584.1
-10584.1
-25292.4
14708.3
-24750.7
-24137.3
-23474.7
-22766.3
-22018.5
-21241.2
-20434.5
-19600.6
-18736.3
-17837.5
-16894.8
-15895.1
-14819
-18424
4775.4
-17162
-15793.4
-14322.5
-12789.2
-11278.3
-10567.8
-10567.8
-10567.8
-6742.63
-3825.22
-6742.63
-6742.63
-4415.77
-2326.86
-4415.76
-4415.77
-2675.8
-1739.97
-2675.8
-2675.8
-1344.12
-1331.67
-1344.12
-1344.12
-1344.12
-223.013
-1121.11
-223.013
-223.013
814.152
-1037.17
-5308.62
-4150.16
-4879.65
1651.26
-4834.23
7173.76
-4858.25
9057.43
-4813.01
9144.3
-4577.06
7648.05
-3976.52
4626.36
-3074.27
573.747
-2327.4
-154.321
-1868.66
2493.28
-1494.15
5330.13
-1095.1
6168.46
-658.19
5035.22
-83.8146
2652.72
369.058
179.312
644.194
903.476
827.054
1965.69
976.549
2440.5
2497.37
-5395.1
-4395.06
-4923.1
1179.27
-4902.28
7152.93
-5032.4
9187.55
-4988.2
9100.1
-4590.25
7250.1
-3561.81
3597.92
-2303.83
-684.229
-1547.71
-910.44
-1419.91
2365.47
-1446.32
5356.54
-1221.1
5943.23
-696.992
4511.12
233.67
1722.06
841.497
-428.515
1012.65
732.318
1010.25
1968.09
1004.3
2446.45
2380.56
-5957.77
-4466.77
-5499.88
721.376
-5250.64
6903.69
-5319.99
9256.91
-5284.52
9064.62
-4718.36
6683.95
-3244.92
2124.47
-1647.45
-2281.7
-548.678
-2009.21
-367.793
2184.59
-931.711
5920.46
-1293.39
6304.91
-876.865
4094.59
486.428
358.764
1390.59
-1332.67
1530.68
592.23
1415.45
2083.32
1254.22
2607.68
2303.1
-6834.49
-4406.94
-6408.03
294.915
-5931.43
6427.09
-5783.86
9109.33
-5686.99
8967.75
-4971.79
5968.75
-3338.77
491.453
-1824.2
-3796.27
-402.23
-3431.18
520.443
1261.91
128.567
6312.34
-817.578
7251.05
-816.511
4093.53
838.166
-1295.91
2008.29
-2502.8
2034.12
566.394
1743.07
2374.37
1542.63
2808.12
2105.77
-7870.14
-4199.97
-7559.68
-15.5458
-6943.22
5810.64
-6494.66
8660.77
-6179.23
8652.32
-5368.53
5158.05
-4075.29
-801.791
-3094.94
-4776.62
-1762.3
-4763.81
-134.548
-365.843
501.543
5676.25
-107.399
7860
-107.752
4093.88
1545.33
-2949
2685.83
-3643.3
2718.52
533.707
2390.78
2702.1
2097.96
3100.95
1876.86
-9130.64
-3841.44
-8922.89
-223.301
-8209.75
5097.5
-7452.11
7903.13
-6799.26
7999.47
-6036.18
4394.97
-5460.29
-1377.68
-5218.3
-5018.61
-4374.26
-5607.85
-2592.22
-2147.88
-847.99
3932.01
-239.808
7251.81
413.433
3440.64
1657.37
-4192.93
2240.77
-4226.7
2377.08
397.4
2195.15
2884.03
2557.48
2738.61
609.127
-10604.4
-3293.48
-10517.1
-310.572
-9713.13
4293.51
-8642.15
6832.15
-7610
6967.33
-6952.23
3737.19
-7073.56
-1256.35
-7542.54
-4549.62
-7424.98
-5725.41
-6034.28
-3538.59
-3785.54
1683.28
-1803.76
5270.03
-401.67
2038.55
-502.904
-4091.7
-1049.33
-3680.27
-326.678
-325.254
1334.23
1223.13
2125.98
1946.85
7510.51
-12272.9
-2532.05
-12314.2
-269.232
-11393.2
3372.52
-9987.02
5425.93
-8565.5
5545.81
-7901.61
3073.3
-8417.55
-740.417
-9481.6
-3485.57
-10358.6
-4848.46
-9921.79
-3975.35
-7533.03
-705.483
-4327.33
2064.33
-3378.47
1089.69
-5393.26
-2076.9
-6602.41
-2471.13
-6041.5
-886.157
-6177.83
1359.46
-9198.81
4967.83
13020
-13901.4
-1562.39
-14079.2
-91.5033
-13050.8
2344.17
-11358.9
3733.98
-9589.57
3776.5
-8686.55
2170.29
-9160.99
-265.981
-10697.4
-1949.15
-12749.3
-2796.56
-13776.6
-2948.1
-12359.3
-2122.76
-9845.23
-449.721
-9856.68
1101.14
-12243.9
310.283
-14323.5
-391.484
-15212.8
3.10513
-15151.5
1298.16
-14341.8
4158.11
9605.16
-15353.6
-345.99
-15750.8
305.731
-14559.7
1153.04
-12374.8
1549.14
-9955.31
1356.97
-8510.12
725.094
-8983.95
207.85
-11184.7
251.549
-14137.5
156.259
-16128
-957.581
-15644
-2606.75
-13202.8
-2890.97
-11807.2
-294.375
-12633.5
1136.53
-14353.5
1328.57
-15069.1
718.638
-13759.2
-11.7424
-9312.02
-289.034
-89.5547
-15672.2
975.256
-16192.1
825.654
-14931.3
-107.758
-12510.2
-871.92
-9883.94
-1269.32
-8389.94
-768.905
-8880.82
698.727
-10944.6
2315.37
-13447.5
2659.1
-14791.6
386.588
-14045.2
-3353.15
-12075.9
-4860.35
-11269.3
-1100.98
-12211
2078.28
-14163.6
3281.17
-15142.6
1697.67
-13922.2
-1232.18
-9460.62
-4750.62
-9881.68
-14571.2
2177.01
-15048
1302.48
-14016.7
-1139.07
-12086.3
-2802.29
-10059.3
-3296.36
-8941.6
-1886.58
-9078.29
835.424
-9942.3
3179.38
-10785.9
3502.73
-10600.3
200.992
-9248.48
-4705.01
-8423.1
-5685.74
-10266.4
742.281
-12695.2
4507.17
-14573
5158.96
-15381
2505.65
-15033.1
-1580.11
-14209.7
-5573.97
-13171.2
-13119.7
3196.7
-13510.1
1692.91
-12643.6
-2005.58
-10995.1
-4450.73
-9156.24
-5135.24
-8037.05
-3005.78
-8004.45
802.832
-8176.02
3350.95
-7675.68
3002.39
-6394.39
-1080.3
-4665.25
-6434.15
-3593.26
-6757.72
-5331.36
2480.38
-7852.51
7028.33
-8420.79
5727.24
-6801.89
886.75
-5994.62
-2387.38
-8944.53
-2624.06
-7433.42
-11507.9
3985.83
-11743.4
1928.47
-10989.1
-2759.92
-9665.23
-5774.61
-8136.87
-6663.6
-6826.28
-4316.37
-6124.68
101.225
-5594.27
2820.54
-4304.88
1713
-2650.82
-2734.36
-1592.87
-7492.1
-1393.01
-6957.58
-1846.48
2933.85
-2929.57
8111.41
-2929.88
5727.55
-1153.08
-890.058
910.129
-4450.58
1842.12
-3556.05
-733.659
-9944.14
4536.16
-9982.42
1966.75
-9267.87
-3474.47
-8240.76
-6801.71
-7170.75
-7733.61
-5935.31
-5551.81
-4411.21
-1422.88
-2897.92
1307.25
-1231.58
46.66
-15.9655
-3949.97
-90.2795
-7417.78
-777.304
-6270.56
-13.4065
2169.96
509.712
7588.3
995.517
5241.74
1684.15
-1578.69
1804.62
-4571.05
2319.27
-4070.71
-2140.12
-8516.02
4898.82
-8409.11
1859.84
-7736.68
-4146.9
-6970.04
-7568.35
-6334.86
-8368.78
-5474.95
-6411.73
-3778.18
-3119.65
-1729.87
-741.052
-184.551
-1498.66
270.285
-4404.81
-462.682
-6684.81
-1205.78
-5527.46
294.629
669.551
1856.87
6026.05
2713.43
4385.19
2734.68
-1599.94
2295.69
-4132.06
2006.57
-3781.59
-2448.56
-7285.46
5097.77
-7025.39
1599.77
-6406.94
-4765.35
-5943.27
-8032.02
-5660.37
-8651.68
-5105.81
-6966.29
-3841.05
-4384.41
-2241.13
-2340.97
-1118.36
-2621.43
-896.045
-4627.13
-1366.54
-6214.32
-1578.41
-5315.6
4.0704
-912.928
1751.88
4278.24
2670.05
3467.02
2399.58
-1329.47
1776.42
-3508.9
1489.76
-3494.93
-2668.17
-6229.35
5142.2
-5861.41
1231.83
-5410.3
-5216.47
-5265.41
-8176.9
-5193.5
-8723.6
-4781.11
-7378.68
-3873.49
-5292.02
-2758.57
-3455.89
-1954.74
-3425.26
-1691.43
-4890.44
-1756.47
-6149.28
-1558.01
-5514.06
-207.845
-2263.09
1266.99
2803.4
2077.28
2656.73
1856.03
-1108.22
1432.06
-3084.94
1201.01
-3263.88
-2777.17
-5527.82
4993.27
-5053.1
757.118
-4840.96
-5428.61
-4905.09
-8112.77
-4892.08
-8736.61
-4581.37
-7689.38
-3951.2
-5922.2
-3172.85
-4234.24
-2539.38
-4058.73
-2161.6
-5268.22
-1898.29
-6412.59
-1457.37
-5954.98
-361.505
-3358.96
802.168
1639.73
1463.44
1995.46
1316.53
-961.309
1055.29
-2823.69
989.627
-3198.22
-2896.32
-5342.01
-4902.98
-4758.57
-4760.59
-4723.11
-4515.26
-4080.66
-3476.05
-2856.6
-2329.18
-1871.82
-1381.75
-622.396
284.039
810.665
858.218
895.706
995.555
136.88
-845.156
409.525
-1781.4
606.361
-1729.04
757.828
-1621.16
874.545
-1484.03
965.548
-1350.88
1010.06
-1211.41
1040.39
-1102.22
1056.65
-1011.57
1056.6
-938.848
1036.68
-875.962
996.188
-821.829
935.781
-772.858
857.179
-728.77
761.506
-684.088
649.909
-640.507
520.829
-585.311
373.032
-521.241
206.583
-453.39
-340.361
127.756
-972.914
207.346
-1860.99
220.937
-1742.63
214.487
-1614.71
200.603
-1470.15
197.147
-1347.42
218.397
-1232.66
256.233
-1140.06
300.469
-1055.81
341.156
-979.537
371.165
-905.971
386.157
-836.824
384.344
-771.046
364.846
-709.273
328.315
-647.557
275.624
-587.817
208.88
-518.567
130.796
-443.157
52.9317
-375.525
-287.429
38.5071
-1011.42
92.203
-1914.69
133.256
-1783.69
152.603
-1634.06
165.796
-1483.34
189.695
-1371.32
223.563
-1266.53
258.683
-1175.18
289.028
-1086.15
310.568
-1001.08
323.416
-918.82
326.312
-839.721
319.046
-763.781
300.204
-690.432
270.166
-617.52
229.206
-546.858
178.16
-467.522
119.042
-384.04
55.0847
-311.569
-232.345
-7.63404
-1003.79
17.7797
-1940.11
73.8966
-1839.81
97.6469
-1657.81
104.249
-1489.94
114.606
-1381.68
130.399
-1282.32
144.447
-1189.23
155.201
-1096.91
161.482
-1007.36
164.669
-922.008
163.327
-838.38
157.441
-757.896
145.191
-678.184
126.713
-599.042
101.651
-521.798
69.7712
-435.642
32.8432
-347.112
-2.85411
-275.873
-235.199
-59.4433
-944.352
-58.1941
-1941.36
1.32832
-1899.33
34.416
-1690.9
45.5677
-1501.1
51.6913
-1387.8
57.3154
-1287.95
59.5595
-1191.47
60.2585
-1097.61
59.3959
-1006.5
57.8552
-920.469
54.4841
-835.01
49.2642
-752.678
41.5876
-670.509
31.6787
-589.134
19.9575
-510.078
5.94783
-421.633
-10.0451
-331.12
-20.7651
-265.154
-255.964
-40.4118
-903.942
-45.3795
-1936.39
-0.406609
-1944.3
34.5414
-1725.85
55.4342
-1521.99
60.2434
-1392.61
60.7169
-1288.42
61.8096
-1192.57
65.0324
-1100.83
68.6871
-1010.16
70.3147
-922.097
68.4837
-833.18
62.0402
-746.235
52.266
-660.735
39.4256
-576.295
25.8395
-496.492
12.9631
-408.757
0.11344
-318.271
-5.517
-259.525
-261.481
82.637
-986.581
99.8245
-1953.58
110.085
-1954.57
124.709
-1740.47
160.308
-1557.59
183.746
-1416.05
200.917
-1305.59
220.751
-1212.4
241.88
-1121.96
259.751
-1028.03
269.049
-931.396
267.845
-831.977
254.581
-732.972
231.556
-637.711
200.201
-544.94
164.285
-460.576
129.041
-373.513
96.267
-285.498
61.8971
-225.155
-199.584
267.29
-1253.87
323.93
-2010.22
297.964
-1928.6
290.309
-1732.82
348.847
-1616.13
417.86
-1485.07
479.959
-1367.69
540.231
-1272.67
593.576
-1175.31
631.765
-1066.22
650.278
-949.91
647.541
-829.24
623.364
-708.794
579.032
-593.38
517.018
-482.926
439.79
-383.349
354.1
-287.824
264.112
-195.509
161.325
-122.37
-38.2584
340.205
-1594.08
369.415
-2039.43
327.205
-1886.39
316.725
-1722.34
391.237
-1690.64
502.06
-1595.89
611.664
-1477.3
710.033
-1371.04
787.026
-1252.3
833.405
-1112.6
852.175
-968.681
844.854
-821.921
814.929
-678.87
762.247
-540.699
688.143
-408.823
591.867
-287.073
477.443
-173.4
349.272
-67.3389
205.398
21.5024
167.14
193.326
-1787.41
145.194
-1991.3
115.545
-1856.75
100.203
-1707
132.533
-1722.97
208.676
-1672.04
286.872
-1555.49
347.111
-1431.28
379.796
-1284.99
382.044
-1114.85
364.149
-950.787
330.231
-788.003
287.318
-635.958
235.379
-488.76
175.421
-348.865
105.188
-216.841
26.7345
-94.9467
-55.038
14.4335
-102.242
68.7061
64.8977
-38.283
-1749.12
-94.1503
-1935.43
-149.86
-1801.04
-211.775
-1645.09
-284.59
-1650.16
-344.521
-1612.11
-387.54
-1512.48
-445.432
-1373.39
-518.881
-1211.54
-604.374
-1029.35
-697.391
-857.769
-796.55
-688.844
-898.182
-534.326
-998.872
-388.07
-1091.14
-256.594
-1149.45
-158.538
-1103.21
-141.181
-865.071
-223.707
-441.969
-354.395
-377.071
-94.1725
-1654.95
-109.368
-1920.24
-165.439
-1744.97
-234.4
-1576.12
-365.929
-1518.63
-525.124
-1452.91
-669.832
-1367.77
-811.634
-1231.59
-940.428
-1082.74
-1052.24
-917.542
-1152
-758.01
-1244.6
-596.237
-1330.42
-448.514
-1393.9
-324.587
-1395.33
-255.164
-1278.55
-275.317
-1052.21
-367.519
-698.69
-577.225
-267.069
-786.015
-644.14
21.102
-1676.05
43.8655
-1943
65.502
-1766.6
62.1963
-1572.82
21.4005
-1477.83
-75.1908
-1356.32
-179.13
-1263.83
-265.971
-1144.75
-315.732
-1032.98
-323.009
-910.264
-290.993
-790.026
-222.204
-665.027
-122.856
-547.862
-0.0170245
-447.425
130.681
-385.862
269.015
-413.65
370.946
-469.45
354.993
-561.271
184.367
-615.388
-459.774
111.769
-1787.82
127.858
-1959.09
165.41
-1804.15
209.584
-1616.99
264.865
-1533.11
305.965
-1397.42
341.945
-1299.81
388.169
-1190.97
450.299
-1095.11
537.658
-997.622
649.235
-901.602
787.507
-803.298
943.528
-703.882
1097.11
-601.002
1204.32
-493.08
1204.09
-413.412
1097.58
-362.946
850.219
-313.905
451.755
-216.923
-8.01825
168.759
-1956.58
167.368
-1957.7
219.934
-1856.72
280.925
-1677.98
359.225
-1611.41
444.134
-1482.33
539.238
-1394.91
639.218
-1290.95
743.392
-1199.29
851.116
-1105.34
960.071
-1010.55
1064.69
-907.918
1152.85
-792.04
1210.14
-658.293
1228.6
-511.538
1177.2
-362.011
1029.63
-215.375
747.527
-31.8003
388.461
142.146
380.443
105.752
-2062.33
69.8604
-1921.8
96.4672
-1883.32
133.05
-1714.56
177.221
-1655.58
228.393
-1533.49
289.394
-1455.91
360.41
-1361.96
443.621
-1282.49
536.414
-1198.13
634.228
-1108.37
722.926
-996.614
778.212
-847.324
767.847
-647.926
670.663
-414.351
517.361
-208.707
388.116
-86.1274
276.942
79.3784
115.035
304.056
495.478
-34.3417
-2027.98
-115.02
-1841.12
-165.665
-1832.68
-203.018
-1677.21
-237.545
-1621.05
-256.01
-1515.03
-269.559
-1442.36
-271.002
-1360.52
-264.109
-1289.39
-247.562
-1214.68
-224.773
-1131.15
-201.811
-1019.57
-189.915
-859.217
-197.734
-640.105
-219.947
-392.134
-238.178
-190.471
-245.638
-78.6605
-228.143
61.8875
-193.089
269.006
302.388
-186.773
-1841.21
-391.147
-1636.75
-563.675
-1660.15
-702.903
-1537.98
-832.482
-1491.47
-935.422
-1412.09
-1027.62
-1350.16
-1103.64
-1284.49
-1169.25
-1223.78
-1221.98
-1161.96
-1258.47
-1094.66
-1266.61
-1011.43
-1225.63
-900.197
-1110.44
-755.293
-913.716
-588.857
-683.68
-420.505
-512.139
-250.201
-378.039
-72.2105
-188.551
79.5201
113.838
-206.471
-1634.74
-465.296
-1377.92
-735.026
-1390.42
-968.529
-1304.47
-1194.92
-1265.08
-1393.12
-1213.89
-1572.14
-1171.14
-1728.26
-1128.36
-1863.74
-1088.3
-1976.38
-1049.31
-2060.45
-1010.59
-2101.86
-970.015
-2077.09
-924.966
-1960.7
-871.685
-1743.18
-806.38
-1435.59
-728.089
-1051.75
-634.046
-618.244
-505.714
-214.647
-324.075
-100.81
-659.737
-1062.66
-1478.07
-1807.55
-2097.62
-2336.51
-2532.66
-2686.02
-2799.32
-2873.63
-2909.22
-2904.24
-2854.2
-2750.89
-2582.27
-2335.36
-1994.4
-1525.12
-874.19
-659.812
1634.81
-1062.78
1377.97
-1478.22
1390.44
-1807.71
1304.49
-2097.8
1265.09
-2336.7
1213.9
-2532.86
1171.16
-2686.24
1128.38
-2799.58
1088.33
-2873.94
1049.36
-2909.58
1010.64
-2904.63
970.055
-2854.62
924.985
-2751.31
871.689
-2582.76
806.444
-2336.09
728.328
-1995.4
634.316
-1525.61
505.205
-873.015
322.407
101.985
-206.366
1841.17
-465.205
1636.8
-734.994
1660.22
-968.681
1538.17
-1195.31
1491.72
-1393.82
1412.41
-1573.23
1350.56
-1729.8
1284.95
-1865.78
1224.31
-1978.95
1162.53
-2063.53
1095.21
-2105.35
1011.88
-2080.86
900.499
-1964.74
755.565
-1747.9
589.604
-1442.11
422.53
-1060.62
252.83
-627.474
72.055
-221.31
-83.7611
-119.325
-187.755
2028.92
-393.449
1842.49
-567.09
1833.86
-707.495
1678.57
-838.155
1622.37
-942.262
1516.51
-1035.56
1443.85
-1112.71
1362.11
-1179.39
1290.98
-1233.09
1216.23
-1270.34
1132.46
-1278.77
1020.31
-1237.16
858.878
-1119.58
637.987
-918.65
388.673
-687.215
191.093
-514.687
80.2987
-373.273
-69.3635
-185.072
-271.967
-304.398
-35.9331
2064.85
-116.133
1922.69
-167.346
1885.07
-205.27
1716.5
-240.837
1657.94
-260.171
1535.84
-275.056
1458.73
-278.109
1365.16
-273.334
1286.21
-259.42
1202.31
-239.862
1112.89
-220.499
1000.94
-211.864
850.24
-221.905
648.023
-246.263
413.024
-261.916
206.739
-263.74
82.1147
-240.046
-93.0643
-198.789
-313.228
-503.187
99.6762
1965.18
59.5398
1962.82
80.7712
1863.84
111.206
1686.06
148.705
1620.44
193.579
1490.97
248.361
1403.95
312.432
1301.08
386.985
1211.65
470.746
1118.55
559.415
1024.22
640.429
919.927
688.091
802.575
670.462
665.648
584.925
498.557
445.702
345.957
325.861
201.948
235.04
-2.24947
94.8859
-173.08
-408.302
168.013
1797.16
160.69
1970.15
208.118
1816.41
265.345
1628.83
345.921
1539.86
428.354
1408.53
516.214
1316.09
605.569
1211.73
698.484
1118.74
795.873
1021.16
888.77
931.325
992.573
816.124
1051.6
743.548
1072.32
644.926
941.312
629.564
801.634
485.634
730.314
273.267
576.19
151.871
297.302
105.804
-110.999
132.961
1664.2
159.672
1943.44
212.302
1763.78
272.754
1568.38
344.812
1467.8
413.168
1340.18
491.124
1238.13
579.495
1123.36
670.291
1027.94
764.261
927.19
854.465
841.122
948.101
722.488
1024.4
667.247
1090.45
578.873
1003.02
716.996
1001.59
487.061
981.864
292.989
678.112
455.62
335.184
448.724
224.185
46.7522
1617.45
90.2388
1899.95
136.274
1717.74
152.589
1552.07
131.218
1489.17
87.2062
1384.19
53.5947
1271.74
44.3476
1132.61
62.5639
1009.73
107.125
882.633
181.583
766.667
259.316
644.761
366.733
559.83
486.958
458.649
728.642
475.311
897.507
318.196
794.075
396.42
514.303
735.391
267.948
695.076
492.133
-115.51
1732.96
-141.376
1925.82
-193.855
1770.22
-301.521
1659.73
-442.711
1630.36
-600.945
1542.43
-765.589
1436.39
-920.597
1287.61
-1047.8
1136.92
-1143.1
977.935
-1203.04
826.609
-1236.62
678.339
-1216.93
540.14
-1166.81
408.526
-984.677
293.178
-884.297
217.815
-754.199
266.32
-384.693
365.885
-76.0096
386.39
416.123
-70.3906
1803.35
-145.939
2001.37
-216.42
1840.7
-312.139
1755.45
-409.127
1727.35
-507.26
1640.56
-615.882
1545.01
-732.516
1404.25
-848.398
1252.81
-958.767
1088.31
-1063.02
930.867
-1160.85
776.171
-1249.44
628.723
-1325.95
485.041
-1380.59
347.822
-1383.53
220.748
-1219.69
102.486
-855.653
1.84391
-427.987
-41.2753
-11.8642
184.561
1618.79
127.448
2058.48
79.5459
1888.61
64.9461
1770.05
89.4655
1702.83
131.621
1598.41
171.593
1505.04
191.121
1384.72
190.376
1253.55
171.951
1106.73
143.616
959.203
108.783
811.005
70.5834
666.923
27.8967
527.728
-19.5418
395.261
-71.6757
272.883
-127.844
158.655
-178.921
52.9217
-179.771
-40.4249
-191.635
354.602
1264.19
389.206
2023.88
344.02
1933.8
349.762
1764.32
426.068
1626.53
530.526
1493.95
641.091
1394.47
733.287
1292.53
800.618
1186.22
838.615
1068.74
851.419
946.401
840.556
821.87
808.531
698.95
754.736
581.526
680.154
469.845
584.086
368.952
469.496
273.246
342
180.419
198.994
102.583
7.35941
281.134
983.062
346.541
1958.47
322.664
1957.67
326.907
1760.07
388.41
1565.03
461.624
1420.74
538.132
1317.97
608.321
1222.34
665.645
1128.9
703.577
1030.81
719.566
930.413
712.924
828.513
683.894
727.981
633.77
631.651
564.768
538.848
479.914
453.807
384.548
368.613
285.251
279.717
174.709
213.126
182.069
86.8395
896.228
108.26
1937.06
120.602
1945.34
143.788
1736.89
181.843
1526.97
208.088
1394.5
233.453
1292.6
260.313
1195.49
286.11
1103.11
305.716
1011.2
314.447
921.685
311.021
831.943
294.469
744.535
267.129
658.994
230.673
575.305
189.477
495.005
147.904
410.188
109.758
317.864
69.8611
253.025
251.93
-41.4196
937.651
-44.9602
1940.6
1.27458
1899.1
40.3792
1697.79
61.9499
1505.4
66.9224
1389.53
70.047
1289.48
73.7653
1191.77
79.5278
1097.35
85.0216
1005.71
87.5223
919.186
85.8048
833.663
78.8747
751.467
68.1262
669.744
54.2081
589.225
39.4665
509.748
26.1129
423.542
12.1533
331.825
2.8522
262.328
254.782
-62.677
1000.33
-61.5533
1939.48
-1.65558
1839.21
33.8374
1662.3
46.7096
1492.53
52.8701
1383.37
58.6665
1283.69
60.7582
1189.68
61.4419
1096.67
60.6169
1006.54
58.991
920.814
55.5534
837.103
50.2032
756.819
42.5901
677.359
33.2268
598.59
22.1561
520.82
10.365
435.334
-4.3353
346.526
-16.3051
274.3
238.477
-10.5878
1010.92
14.0705
1914.82
70.2023
1783.08
94.9728
1637.53
101.839
1485.67
111.745
1373.46
126.99
1268.44
140.043
1176.63
149.602
1087.11
154.581
1001.56
156.464
918.932
154.089
839.479
147.575
763.334
135.374
689.561
117.887
616.078
94.262
544.446
65.0823
464.514
30.3695
381.239
-3.96394
308.635
234.513
35.6027
975.32
87.82
1862.61
128.738
1742.16
150.008
1616.26
164.343
1471.33
188.579
1349.23
221.845
1235.18
255.548
1142.93
284.085
1058.57
303.652
981.997
314.547
908.038
315.749
838.278
307.37
771.713
288.181
708.75
258.742
645.518
219.041
584.147
170.002
513.554
112.77
438.472
51.2521
370.154
285.765
126.323
848.998
204.609
1784.32
216.949
1729.82
210.627
1622.58
196.432
1485.53
192.377
1353.28
212.455
1215.1
248.721
1106.66
291.298
1015.99
330.527
942.768
359.422
879.144
373.708
823.992
371.708
773.714
352.57
727.889
316.945
681.143
265.759
635.334
201.01
578.304
125.267
514.216
49.4954
445.927
335.261
138.552
412.004
608.532
760.214
877.073
968.366
1013.1
1043.61
1059.93
1060
1040.33
1000.1
939.82
861.067
764.855
652.425
522.359
373.935
206.474
)
;

boundaryField
{
    outletWall
    {
        type            calculated;
        value           nonuniform List<scalar> 
60
(
814.152
-2557.99
-2590
-2148.54
-1178.61
-632.184
-3227.09
-5472.13
-6567.51
-5704.64
-2952.02
-592.55
-1476
-5226.9
-7884
-9189.54
-9033.41
-7219.17
-2080.23
3847.8
5587.33
5676.74
6184.92
7086.51
8153.36
9393.82
10718.8
12100
13369.4
14350.9
14137.2
12931.8
11511.5
10056.4
8772.11
7663.17
6774.66
6029.48
5640
5610.97
615.859
-2936.49
-3298.07
-2861.18
-1008.86
1468.83
733.295
-4118.31
-6445.05
-6869.95
-5795.64
-4678.18
-4838.85
-6356.8
-7897.24
-8774.08
-8110.75
-5573.02
318.095
4747.95
)
;
    }
    fineWalls
    {
        type            calculated;
        value           uniform 0;
    }
    fineFrontAndBack
    {
        type            calculated;
        value           nonuniform List<scalar> 
960
(
-4.52386e-13
-1.05157e-12
-5.50004e-13
-5.48511e-13
-4.17886e-13
-5.30423e-13
-9.78139e-13
-1.18218e-12
-2.27148e-12
2.46654e-14
-1.3334e-13
-3.38612e-12
-1.35574e-12
-1.20054e-12
-8.59761e-12
-1.75201e-12
-1.35752e-12
-7.64488e-12
-1.14711e-12
-1.35493e-12
-1.33874e-13
-3.19917e-13
-3.32189e-13
-3.24143e-13
-2.89377e-13
-3.56243e-13
-3.51577e-12
-5.04412e-13
-5.55314e-13
-6.12284e-13
-6.69271e-13
-7.23375e-13
-7.71058e-13
-8.06879e-13
-8.33435e-13
-8.68429e-13
-8.90508e-13
-9.71822e-13
-9.40635e-13
-1.18184e-12
-2.16911e-11
-2.48309e-12
-2.25859e-12
-2.05794e-12
-1.03013e-11
-7.0198e-12
-1.3906e-11
-9.58695e-12
2.23872e-11
2.17461e-12
1.09238e-11
6.93517e-11
2.08751e-11
2.29746e-11
1.20746e-11
1.99878e-11
2.55519e-12
2.6985e-12
2.86653e-12
2.77258e-11
1.50162e-12
1.22615e-12
1.23424e-12
1.13017e-12
1.08447e-12
1.02496e-12
9.67661e-13
9.07475e-13
8.44933e-13
7.76644e-13
7.02456e-13
6.22746e-13
5.4022e-13
2.31821e-12
2.92375e-13
1.96541e-13
1.7902e-13
1.33476e-13
6.21624e-14
-1.75126e-13
-6.21378e-13
-9.18095e-13
-6.0218e-12
-1.22537e-12
-1.36033e-12
-6.94148e-12
-5.46376e-13
-8.08622e-13
-3.75049e-12
-5.2876e-13
-9.39908e-13
-2.92596e-12
6.2458e-13
7.73878e-13
3.21708e-13
-2.33501e-12
1.70604e-13
6.45063e-13
-1.20579e-12
2.37866e-13
1.3744e-09
1.16823e-09
9.69015e-10
8.29057e-10
5.50187e-10
3.09886e-10
7.53574e-11
-8.71448e-11
-1.23236e-10
-1.02122e-10
-7.73828e-11
-5.86973e-11
-5.01226e-11
-4.69729e-11
-4.09611e-11
-3.01067e-11
-2.03158e-11
-1.14029e-11
-7.28798e-12
1.15214e-09
1.03749e-09
1.01916e-09
8.04457e-10
4.94762e-10
2.55658e-10
3.28269e-11
-9.78709e-11
-1.00597e-10
-8.76027e-11
-7.25496e-11
-5.68907e-11
-4.89776e-11
-4.5853e-11
-4.14293e-11
-3.20979e-11
-2.23552e-11
-1.28536e-11
-7.98126e-12
7.67969e-10
8.11007e-10
1.019e-09
8.17883e-10
4.43016e-10
1.83518e-10
-1.22192e-11
-8.48204e-11
-5.3623e-11
-5.76751e-11
-6.66068e-11
-5.38509e-11
-4.52363e-11
-4.28674e-11
-3.80183e-11
-2.91083e-11
-2.10778e-11
-1.34382e-11
-8.99482e-12
4.99494e-10
6.04099e-10
9.19144e-10
8.3027e-10
4.33516e-10
1.12502e-10
-5.37576e-11
-3.98411e-11
2.81558e-11
2.21251e-11
-3.20959e-11
-5.3198e-11
-4.73249e-11
-3.91646e-11
-3.0106e-11
-2.60657e-11
-2.2755e-11
-1.57587e-11
-8.78143e-12
3.08793e-10
4.5854e-10
7.76605e-10
8.00724e-10
4.59113e-10
7.51763e-11
-7.11853e-11
3.22109e-11
1.37757e-10
1.61577e-10
8.17915e-11
-9.08954e-12
-4.17662e-11
-3.28435e-11
-9.26534e-12
-8.2523e-12
-1.46962e-11
-1.75648e-11
-1.46101e-11
2.15277e-10
3.8252e-10
6.53585e-10
7.31645e-10
4.8054e-10
9.6149e-11
-1.29798e-11
1.28999e-10
2.24139e-10
2.37457e-10
1.87328e-10
8.13916e-11
-2.54632e-12
3.2713e-12
2.59957e-11
2.56027e-11
1.01281e-11
-2.20206e-12
-5.75353e-12
1.73125e-10
3.39699e-10
5.56671e-10
6.37989e-10
4.6779e-10
1.62337e-10
9.37833e-11
1.9804e-10
2.34202e-10
2.10219e-10
1.85213e-10
1.3889e-10
5.39315e-11
3.88977e-11
4.01279e-11
3.58582e-11
3.02321e-11
1.90658e-11
-8.41738e-12
1.48833e-10
2.80137e-10
4.39817e-10
5.11537e-10
4.14085e-10
2.21219e-10
1.6578e-10
2.01903e-10
1.89382e-10
1.53861e-10
1.36979e-10
1.2895e-10
8.51144e-11
4.70978e-11
3.3697e-11
2.61488e-11
2.47559e-11
2.39543e-11
2.73255e-11
1.30021e-10
1.85821e-10
2.41976e-10
2.95737e-10
2.78514e-10
2.05598e-10
1.64712e-10
1.46833e-10
1.19595e-10
1.04234e-10
8.89182e-11
6.89642e-11
4.97241e-11
3.88912e-11
3.51126e-11
3.02372e-11
2.88304e-11
3.01396e-11
3.13895e-11
1.13576e-10
1.94592e-10
1.96746e-10
1.87979e-10
1.82925e-10
1.56097e-10
1.00278e-10
4.7495e-11
2.41492e-11
3.11135e-11
3.86928e-11
5.00317e-11
6.88618e-11
6.9648e-11
5.66364e-11
4.78845e-11
4.04627e-11
4.24219e-11
5.64384e-11
-8.54479e-11
-5.93462e-11
-4.01254e-11
-4.44994e-11
-6.61529e-11
-1.00522e-10
-1.18512e-10
-1.21344e-10
-1.2587e-10
-1.40463e-10
-1.27578e-10
-9.46858e-11
-6.32774e-11
-3.77867e-11
-2.70548e-11
-3.1947e-11
-3.15645e-11
-2.41926e-11
-1.05737e-11
-1.26567e-10
-5.79647e-11
1.20807e-11
1.88495e-11
-3.01646e-11
-1.31306e-10
-2.13433e-10
-2.11373e-10
-1.7438e-10
-1.3782e-10
-1.11115e-10
-9.04714e-11
-5.09265e-11
-3.87061e-11
-3.50897e-11
-2.6272e-11
-2.1883e-11
-2.4488e-11
-2.29985e-11
-1.47336e-10
-6.81962e-11
4.39846e-11
8.78577e-11
7.83923e-11
-3.29517e-11
-1.93432e-10
-2.48826e-10
-2.20251e-10
-1.82752e-10
-1.71234e-10
-1.33507e-10
-7.07426e-11
-4.23441e-11
-2.84539e-11
-2.1106e-11
-2.47263e-11
-2.66938e-11
-2.64561e-11
-1.51939e-10
-1.13216e-10
3.91116e-11
1.30012e-10
1.50404e-10
4.18926e-11
-1.35008e-10
-2.35625e-10
-2.49816e-10
-2.25583e-10
-1.82997e-10
-9.79545e-11
-4.54347e-11
-5.16495e-11
-3.68969e-11
-2.76095e-11
-3.26025e-11
-3.07277e-11
-4.81272e-12
-1.06468e-10
-1.3503e-10
6.67045e-11
2.01067e-10
2.04763e-10
7.27445e-11
-7.12088e-11
-1.71536e-10
-2.07979e-10
-1.83264e-10
-1.11735e-10
-3.27853e-11
-1.31642e-11
-4.78237e-11
-4.4903e-11
-3.97791e-11
-2.96814e-11
-1.77054e-11
-1.19802e-11
2.3799e-11
-6.33766e-11
1.58487e-10
2.91854e-10
2.29122e-10
6.62652e-11
-2.64535e-11
-6.67211e-11
-7.82309e-11
-5.17265e-11
-1.304e-11
6.9018e-12
2.37401e-12
-2.52205e-11
-3.5565e-11
-2.96165e-11
-1.63934e-11
-6.20708e-12
1.00265e-12
2.25494e-10
1.33487e-10
3.16977e-10
3.68284e-10
2.1653e-10
5.75843e-11
-4.95555e-13
-1.37392e-11
-1.42505e-11
-3.61583e-12
5.1363e-12
5.72545e-12
1.02146e-12
-6.49037e-12
-1.73216e-11
-1.36846e-11
-4.06223e-12
-3.16074e-13
1.45713e-12
4.26331e-10
3.77395e-10
4.64705e-10
3.81195e-10
1.86114e-10
6.53827e-11
2.03662e-11
2.7073e-12
-2.84883e-13
3.03337e-12
6.86602e-12
6.6546e-12
4.07217e-12
1.42194e-12
-4.40983e-12
-2.27507e-12
1.11462e-12
1.23879e-12
1.71071e-12
5.45836e-10
5.5318e-10
5.03675e-10
3.36184e-10
1.77413e-10
8.62131e-11
3.4457e-11
8.03627e-12
3.78213e-12
7.31232e-12
9.9017e-12
9.66639e-12
5.99609e-12
4.16614e-12
1.78113e-12
2.447e-12
2.63154e-12
1.77581e-12
1.72667e-12
5.19216e-10
5.30819e-10
4.31194e-10
3.09412e-10
1.93828e-10
1.0305e-10
4.33815e-11
1.2322e-11
6.16776e-12
8.69459e-12
1.10349e-11
1.06223e-11
7.32673e-12
5.064e-12
4.03033e-12
3.52102e-12
2.68056e-12
1.67017e-12
1.52817e-12
4.52386e-13
1.05157e-12
5.50004e-13
5.48511e-13
4.17886e-13
5.30423e-13
9.78139e-13
1.18218e-12
2.27148e-12
-2.46654e-14
1.3334e-13
3.38612e-12
1.35574e-12
1.20054e-12
8.59761e-12
1.75201e-12
1.35752e-12
7.64488e-12
1.14711e-12
1.35493e-12
1.33874e-13
3.19917e-13
3.32189e-13
3.24143e-13
2.89377e-13
3.56243e-13
3.51577e-12
5.04412e-13
5.55314e-13
6.12284e-13
6.69271e-13
7.23375e-13
7.71058e-13
8.06879e-13
8.33435e-13
8.68429e-13
8.90508e-13
9.71822e-13
9.40635e-13
1.18184e-12
2.16911e-11
2.48309e-12
2.25859e-12
2.05794e-12
1.03013e-11
7.0198e-12
1.3906e-11
9.58695e-12
-2.23872e-11
-2.17461e-12
-1.09238e-11
-6.93517e-11
-2.08751e-11
-2.29746e-11
-1.20746e-11
-1.99878e-11
-2.55519e-12
-2.6985e-12
-2.86653e-12
-2.77258e-11
-1.50162e-12
-1.22615e-12
-1.23424e-12
-1.13017e-12
-1.08447e-12
-1.02496e-12
-9.67661e-13
-9.07475e-13
-8.44933e-13
-7.76644e-13
-7.02456e-13
-6.22746e-13
-5.4022e-13
-2.31821e-12
-2.92375e-13
-1.96541e-13
-1.7902e-13
-1.33476e-13
-6.21624e-14
1.75126e-13
6.21378e-13
9.18095e-13
6.0218e-12
1.22537e-12
1.36033e-12
6.94148e-12
5.46376e-13
8.08622e-13
3.75049e-12
5.2876e-13
9.39908e-13
2.92596e-12
-6.2458e-13
-7.73878e-13
-3.21708e-13
2.33501e-12
-1.70604e-13
-6.45063e-13
1.20579e-12
-2.37866e-13
-1.3744e-09
-1.16823e-09
-9.69015e-10
-8.29057e-10
-5.50187e-10
-3.09886e-10
-7.53574e-11
8.71448e-11
1.23236e-10
1.02122e-10
7.73828e-11
5.86973e-11
5.01226e-11
4.69729e-11
4.09611e-11
3.01067e-11
2.03158e-11
1.14029e-11
7.28798e-12
-1.15214e-09
-1.03749e-09
-1.01916e-09
-8.04457e-10
-4.94762e-10
-2.55658e-10
-3.28269e-11
9.78709e-11
1.00597e-10
8.76027e-11
7.25496e-11
5.68907e-11
4.89776e-11
4.5853e-11
4.14293e-11
3.20979e-11
2.23552e-11
1.28536e-11
7.98126e-12
-7.67969e-10
-8.11007e-10
-1.019e-09
-8.17883e-10
-4.43016e-10
-1.83518e-10
1.22192e-11
8.48204e-11
5.3623e-11
5.76751e-11
6.66068e-11
5.38509e-11
4.52363e-11
4.28674e-11
3.80183e-11
2.91083e-11
2.10778e-11
1.34382e-11
8.99482e-12
-4.99494e-10
-6.04099e-10
-9.19144e-10
-8.3027e-10
-4.33516e-10
-1.12502e-10
5.37576e-11
3.98411e-11
-2.81558e-11
-2.21251e-11
3.20959e-11
5.3198e-11
4.73249e-11
3.91646e-11
3.0106e-11
2.60657e-11
2.2755e-11
1.57587e-11
8.78143e-12
-3.08793e-10
-4.5854e-10
-7.76605e-10
-8.00724e-10
-4.59113e-10
-7.51763e-11
7.11853e-11
-3.22109e-11
-1.37757e-10
-1.61577e-10
-8.17915e-11
9.08954e-12
4.17662e-11
3.28435e-11
9.26534e-12
8.2523e-12
1.46962e-11
1.75648e-11
1.46101e-11
-2.15277e-10
-3.8252e-10
-6.53585e-10
-7.31645e-10
-4.8054e-10
-9.6149e-11
1.29798e-11
-1.28999e-10
-2.24139e-10
-2.37457e-10
-1.87328e-10
-8.13916e-11
2.54632e-12
-3.2713e-12
-2.59957e-11
-2.56027e-11