/*--------------------------------*- C++ -*----------------------------------*\
| =========                 |                                                 |
| \\      /  F ield         | OpenFOAM: The Open Source CFD Toolbox           |
|  \\    /   O peration     | Version:  4.1                                   |
|   \\  /    A nd           | Web:      www.OpenFOAM.org                      |
|    \\/     M anipulation  |                                                 |
\*---------------------------------------------------------------------------*/
FoamFile
{
    version     2.0;
    format      ascii;
    class       volVectorField;
    location    "7";
    object      U;
}
// * * * * * * * * * * * * * * * * * * * * * * * * * * * * * * * * * * * * * //

dimensions      [0 1 -1 0 0 0 0];

internalField   nonuniform List<vector> 
1280
(
(-3.26928e-16 -0.199941 -0.920452)
(-1.78724e-16 0.228933 -0.835888)
(-3.97474e-16 0.00457975 -0.703508)
(-3.96395e-16 0.189486 -0.78498)
(-7.10237e-17 0.396233 -0.986325)
(-3.81913e-16 0.368947 -0.731177)
(-7.06875e-16 0.54768 -0.755191)
(-8.59862e-16 0.583132 -0.723573)
(-3.48995e-16 0.90698 -1.15366)
(2.58902e-17 0.879504 -0.887061)
(-9.63614e-17 1.03174 -0.810156)
(-6.8156e-16 1.39556 -1.47784)
(-9.91615e-16 1.37322 -1.26803)
(-8.67602e-16 1.61582 -1.19562)
(-1.61627e-15 2.08727 -2.022)
(-1.26613e-15 2.02007 -1.69029)
(-9.81042e-16 2.41616 -1.53815)
(-1.29932e-15 2.74347 -3.21488)
(-8.28984e-16 3.28879 -2.2643)
(-9.79174e-16 3.02858 -3.99388)
(-5.49229e-16 3.44752 -0.873861)
(-1.31248e-15 3.70388 4.85356)
(-1.36283e-15 3.46914 7.5409)
(-1.32982e-15 3.75614 9.11879)
(-1.18719e-15 3.86519 9.86225)
(-1.46151e-15 4.25767 10.4398)
(-7.41137e-16 3.39408 8.2937)
(-2.06938e-15 7.49022 13.5894)
(-2.27821e-15 7.59912 13.8155)
(-2.51193e-15 7.64986 14.035)
(-2.74573e-15 7.67978 14.2586)
(-2.96769e-15 7.6751 14.4582)
(-3.16331e-15 7.6626 14.5917)
(-3.31027e-15 7.60629 14.6489)
(-3.41922e-15 7.58005 14.6163)
(-3.56279e-15 7.47369 14.525)
(-3.65337e-15 7.48175 14.3747)
(-3.98696e-15 7.29712 14.1471)
(-3.85902e-15 7.38144 13.9962)
(-4.84856e-15 7.11157 13.549)
(-3.77564e-15 9.33455 14.7158)
(-1.99445e-15 5.00257 10.2524)
(-1.81413e-15 3.64659 9.91974)
(-1.6517e-15 2.78455 10.1212)
(-1.70083e-15 0.131324 7.21169)
(-5.6384e-15 -0.765185 -5.70289)
(-1.11695e-14 -0.01425 -5.18333)
(-7.70036e-15 0.550817 -5.60637)
(4.61049e-15 1.75347 -5.18024)
(1.74667e-15 -0.620628 -0.477196)
(8.77413e-15 0.590591 -0.14945)
(1.20717e-14 -1.87604 -5.18466)
(1.67671e-14 -0.560497 -5.71958)
(1.84535e-14 -0.000120325 -5.22363)
(9.69851e-15 0.757895 -5.6724)
(3.47916e-15 -0.164668 7.217)
(2.05363e-15 -2.79473 10.1062)
(2.16747e-15 -3.66008 9.90105)
(2.30243e-15 -5.00781 10.2339)
(4.62284e-15 -9.3535 14.689)
(6.16049e-15 -7.13644 13.5054)
(5.03034e-15 -7.4072 13.9558)
(5.06355e-15 -7.32425 14.1167)
(4.63658e-15 -7.50967 14.353)
(4.44909e-15 -7.50361 14.5151)
(4.20495e-15 -7.61059 14.6143)
(3.96989e-15 -7.63787 14.6505)
(3.72297e-15 -7.6939 14.595)
(3.46639e-15 -7.70645 14.4634)
(3.18623e-15 -7.71051 14.2671)
(2.88187e-15 -7.6798 14.0444)
(2.55485e-15 -7.62741 13.8176)
(2.21629e-15 -7.51316 13.5741)
(4.88688e-16 -3.37843 8.20287)
(1.19949e-15 -4.26355 10.394)
(8.06324e-16 -3.86653 9.81276)
(7.34442e-16 -3.75658 9.0738)
(5.47596e-16 -3.46811 7.49622)
(2.55025e-16 -3.7012 4.80767)
(-7.18465e-16 -3.44544 -0.931924)
(-4.49053e-16 -3.00995 -4.07384)
(-6.63483e-16 -3.28028 -2.32142)
(-1.02346e-15 -2.69852 -3.25368)
(-8.85542e-16 -2.37658 -1.52988)
(-9.83078e-16 -1.98327 -1.67599)
(-1.25905e-15 -2.04013 -2.00241)
(-3.94852e-16 -1.57134 -1.19166)
(-5.96645e-16 -1.33094 -1.26909)
(-6.92534e-16 -1.3413 -1.49741)
(-3.82121e-16 -0.979941 -0.832271)
(-6.79247e-16 -0.826151 -0.881259)
(-5.26835e-16 -0.843429 -1.15545)
(4.45349e-16 -0.525815 -0.741799)
(5.59262e-16 -0.48323 -0.758692)
(2.33067e-16 -0.310001 -0.732447)
(-3.96857e-16 -0.318526 -0.992664)
(1.23291e-16 -0.128855 -0.786683)
(4.68448e-16 0.066305 -0.709314)
(-2.06266e-16 -0.166312 -0.841598)
(1.719e-16 0.266307 -0.924665)
(1.52711e-13 1.27499 4.68171)
(1.29803e-13 -0.713508 4.1493)
(1.07668e-13 -2.39308 4.0061)
(9.21174e-14 -3.00446 4.03941)
(6.11319e-14 -3.07004 4.05558)
(3.44318e-14 -2.64356 3.96478)
(8.37304e-15 -1.76167 3.65958)
(-9.68275e-15 -0.498876 2.9781)
(-1.36929e-14 -0.185844 2.14722)
(-1.13469e-14 -0.9773 1.72469)
(-8.59809e-15 -1.88486 1.3991)
(-6.52193e-15 -2.1703 1.08302)
(-5.56918e-15 -1.80816 0.740056)
(-5.21921e-15 -1.06205 0.350984)
(-4.55123e-15 -0.194317 -0.191544)
(-3.34519e-15 -0.38902 -0.433321)
(-2.25731e-15 -0.704021 -0.639634)
(-1.26699e-15 -0.845943 -0.739169)
(-8.09775e-16 -0.838762 -0.890194)
(1.28016e-13 1.49016 4.71421)
(1.15276e-13 -0.381401 4.25626)
(1.1324e-13 -2.40128 3.98013)
(8.93841e-14 -3.04541 4.16148)
(5.49735e-14 -3.0304 4.22688)
(2.84065e-14 -2.46407 4.08106)
(3.64743e-15 -1.34008 3.55205)
(-1.08745e-14 0.0810176 2.42257)
(-1.11775e-14 0.22754 1.40981)
(-9.73364e-15 -0.727973 1.16998)
(-8.06106e-15 -1.7004 1.21171)
(-6.32119e-15 -1.97666 1.172)
(-5.44196e-15 -1.57687 0.862849)
(-5.09478e-15 -0.733644 0.277059)
(-4.60326e-15 0.0553576 -0.600546)
(-3.56643e-15 -0.243277 -0.824763)
(-2.48392e-15 -0.637557 -0.871404)
(-1.42818e-15 -0.816083 -0.817573)
(-8.86807e-16 -0.858185 -0.862313)
(8.53299e-14 1.46172 5.05407)
(9.01118e-14 -0.372769 4.85014)
(1.13223e-13 -2.37557 4.33428)
(9.08759e-14 -3.08352 4.38542)
(4.9224e-14 -3.02778 4.48521)
(2.03908e-14 -2.34161 4.31743)
(-1.35769e-15 -1.01512 3.51359)
(-9.42449e-15 0.442436 1.95147)
(-5.95811e-15 0.415294 0.779339)
(-6.40834e-15 -0.828216 0.159026)
(-7.40075e-15 -1.86742 0.461014)
(-5.98343e-15 -1.97059 1.05341)
(-5.02626e-15 -1.41332 1.10229)
(-4.76304e-15 -0.400901 0.312591)
(-4.22426e-15 0.239483 -1.02051)
(-3.23426e-15 -0.229423 -1.30358)
(-2.34197e-15 -0.663402 -1.27873)
(-1.49313e-15 -0.78511 -1.08781)
(-9.99424e-16 -0.684569 -1.02066)
(5.54993e-14 1.50711 5.68473)
(6.71221e-14 -0.128329 5.67322)
(1.02127e-13 -2.22816 5.02663)
(9.22522e-14 -3.08732 4.82106)
(4.81685e-14 -3.01887 4.82313)
(1.25002e-14 -2.12533 4.64962)
(-5.97307e-15 -0.441769 3.58173)
(-4.42679e-15 1.06599 2.05854)
(3.12842e-15 0.941723 0.975907)
(2.45835e-15 -0.616852 -0.263751)
(-3.56622e-15 -2.08913 -0.605155)
(-5.91089e-15 -2.24457 0.33183)
(-5.25832e-15 -1.31214 1.03624)
(-4.35162e-15 0.160326 0.248434)
(-3.34511e-15 0.626607 -1.50777)
(-2.89618e-15 -0.190752 -1.812)
(-2.52833e-15 -0.742423 -1.63659)
(-1.75097e-15 -1.00215 -1.28554)
(-9.75714e-16 -0.929222 -1.32739)
(3.43103e-14 1.43793 6.43712)
(5.09489e-14 -0.0518332 6.63887)
(8.62894e-14 -2.05008 5.98025)
(8.89693e-14 -2.98554 5.54664)
(5.10125e-14 -2.95981 5.28262)
(8.35292e-15 -1.85376 5.00652)
(-7.90947e-15 0.12929 3.89003)
(3.57899e-15 1.48819 2.9681)
(1.53063e-14 1.39671 2.19902)
(1.7953e-14 -0.182538 0.793306)
(9.08795e-15 -2.10344 -0.570308)
(-1.00995e-15 -2.59232 -0.355792)
(-4.64069e-15 -1.39899 0.534245)
(-3.64928e-15 0.757832 -0.419913)
(-1.02948e-15 1.05669 -2.00251)
(-9.16922e-16 -0.205669 -2.41242)
(-1.63292e-15 -0.832876 -2.22263)
(-1.95164e-15 -0.776935 -1.77444)
(-1.62334e-15 -0.331332 -1.7809)
(2.39197e-14 1.35871 7.37475)
(4.25022e-14 0.0551086 7.78637)
(7.26206e-14 -1.8273 7.11255)
(8.12938e-14 -2.79085 6.51742)
(5.33933e-14 -2.81089 5.9059)
(1.06832e-14 -1.58565 5.41161)
(-1.4422e-15 0.445939 4.64324)
(1.43332e-14 1.69923 4.47685)
(2.49043e-14 1.78444 4.23615)
(2.63841e-14 0.431039 3.11377)
(2.08142e-14 -1.6639 1.22604)
(9.04351e-15 -2.65156 0.0617819)
(-2.82925e-16 -1.35502 0.299347)
(3.63478e-16 1.17182 -0.99808)
(2.88841e-15 1.43372 -1.59261)
(2.84474e-15 -0.00789009 -2.02059)
(1.12534e-15 -0.999761 -2.12618)
(-2.44674e-16 -1.4779 -1.57695)
(-6.39281e-16 -1.17813 -2.85159)
(1.92361e-14 1.2054 8.46114)
(3.77443e-14 0.100888 9.1337)
(6.18524e-14 -1.56497 8.4347)
(7.08876e-14 -2.47547 7.69285)
(5.19766e-14 -2.52061 6.71166)
(1.80375e-14 -1.33742 5.95803)
(1.04204e-14 0.495367 5.65686)
(2.20044e-14 1.65011 6.11592)
(2.60224e-14 1.95575 6.47129)
(2.33577e-14 1.00948 5.97044)
(2.05792e-14 -0.939673 4.12977)
(1.54322e-14 -2.19623 2.01961)
(5.99239e-15 -1.00259 0.877428)
(4.32197e-15 1.62385 -0.128684)
(4.45865e-15 1.43185 1.16797)
(3.98424e-15 -0.216437 0.7054)
(3.35913e-15 -0.737487 -0.400121)
(2.11842e-15 0.137352 -1.86008)
(-9.35264e-16 1.12524 -1.63348)
(1.6537e-14 0.985699 9.68913)
(3.11263e-14 0.0922359 10.6587)
(4.88686e-14 -1.30617 9.92168)
(5.68374e-14 -2.08483 9.00069)
(4.60095e-14 -2.12592 7.64371)
(2.45798e-14 -1.14919 6.62567)
(1.842e-14 0.333017 6.57761)
(2.24337e-14 1.37469 7.42027)
(2.10425e-14 1.84986 8.39806)
(1.70956e-14 1.33094 8.93833)
(1.52199e-14 -0.215877 7.64482)
(1.43278e-14 -1.3028 4.74383)
(9.45716e-15 -0.350368 2.3383)
(5.23309e-15 1.16343 3.43564)
(3.74411e-15 1.09437 5.68026)
(2.90542e-15 0.398561 5.37291)
(2.75065e-15 -0.257589 4.60695)
(2.66159e-15 -1.71971 5.54906)
(3.03616e-15 -6.09774 9.70573)
(1.44468e-14 0.704618 10.8864)
(2.06468e-14 0.0877166 12.1505)
(2.68862e-14 -0.941511 11.3851)
(3.28597e-14 -1.52964 10.2975)
(3.0946e-14 -1.56605 8.63273)
(2.28443e-14 -0.893807 7.3506)
(1.83013e-14 0.15432 7.15759)
(1.63148e-14 0.943212 8.0733)
(1.32883e-14 1.37176 9.77067)
(1.15816e-14 1.31137 11.552)
(9.8798e-15 0.687309 11.4424)
(7.66269e-15 -0.0719286 8.99879)
(5.5249e-15 -0.322389 7.3775)
(4.32124e-15 0.154734 9.12043)
(3.9014e-15 0.409677 11.3462)
(3.35969e-15 0.110077 12.5749)
(3.20338e-15 -0.565185 12.7953)
(3.34884e-15 -1.66593 12.2952)
(3.48773e-15 -3.11688 11.5689)
(1.26196e-14 0.335379 11.9007)
(2.16214e-14 -0.0400028 13.538)
(2.18607e-14 -0.634286 12.7931)
(2.08866e-14 -0.974529 11.4027)
(2.0325e-14 -0.962615 9.22009)
(1.73441e-14 -0.554938 7.37862)
(1.10348e-14 0.0214708 6.83252)
(5.27722e-15 0.353144 8.09807)
(2.68324e-15 0.477366 10.5631)
(3.45705e-15 0.615626 13.0738)
(4.2992e-15 0.681714 13.8223)
(5.49159e-15 0.357288 12.1031)
(7.65131e-15 -0.391872 9.91474)
(7.73866e-15 -0.33547 9.79599)
(6.34244e-15 -0.12916 11.3195)
(5.3205e-15 -0.136687 12.6733)
(4.49585e-15 -0.457432 12.4687)
(4.71354e-15 -1.36318 10.0481)
(6.27093e-15 -2.84811 5.78392)
(-9.49422e-15 -0.105336 12.0804)
(-6.59402e-15 -0.167562 13.8858)
(-4.45838e-15 -0.136662 13.1841)
(-4.94438e-15 -0.0559646 11.6297)
(-7.35033e-15 0.0622981 9.21804)
(-1.11691e-14 0.070559 7.26211)
(-1.30607e-14 -0.1674 6.74538)
(-1.34827e-14 -0.524486 8.01241)
(-1.39856e-14 -0.573227 10.255)
(-1.5607e-14 0.0426031 12.2453)
(-1.41754e-14 1.07389 12.4214)
(-1.05206e-14 1.56276 10.8002)
(-7.03082e-15 0.580083 9.38107)
(-4.19852e-15 -0.418214 9.41571)
(-3.00609e-15 -0.766479 10.9997)
(-3.54967e-15 -0.365755 12.6729)
(-3.50716e-15 0.440223 12.5908)
(-2.68807e-15 1.55724 10.2048)
(-1.17486e-15 2.92714 5.87249)
(-1.4063e-14 -0.54338 11.2536)
(-6.44052e-15 -0.369871 12.8929)
(1.3423e-15 0.215979 12.2656)
(2.09439e-15 0.639671 11.0233)
(-3.35162e-15 0.783514 9.117)
(-1.45896e-14 0.446081 7.65281)
(-2.37148e-14 -0.28368 7.27105)
(-2.34858e-14 -1.00088 7.82071)
(-1.93755e-14 -1.16534 8.7799)
(-1.53133e-14 -0.249305 9.29959)
(-1.23461e-14 1.20456 8.38377)
(-1.00524e-14 1.65066 6.77541)
(-5.6585e-15 0.156943 7.37214)
(-4.30067e-15 -0.992608 9.73777)
(-3.89885e-15 -1.41787 11.4967)
(-2.91911e-15 -0.699844 12.8381)
(-2.43144e-15 0.585899 12.8076)
(-2.72089e-15 1.89735 12.0788)
(-2.55539e-15 3.2128 11.5671)
(-1.63707e-14 -0.910977 10.18)
(-7.57735e-15 -0.497799 11.5722)
(4.88717e-15 0.549008 11.0138)
(9.76196e-15 1.23705 9.99033)
(8.71026e-15 1.41759 8.32998)
(-3.6613e-15 0.800968 6.92692)
(-2.14924e-14 -0.279516 6.48616)
(-2.76473e-14 -1.12191 6.82709)
(-2.44723e-14 -1.17091 6.83176)
(-2.03057e-14 0.103184 6.06588)
(-1.9026e-14 1.91462 4.5861)
(-1.48341e-14 2.14226 2.93534)
(-7.86029e-15 -0.650707 3.1297)
(-4.7049e-15 -1.96844 5.80099)
(-3.16154e-15 -1.90711 7.41262)
(-2.34511e-15 -0.87342 6.67348)
(-2.74737e-15 0.388226 4.57885)
(-2.96598e-15 1.80691 5.22736)
(-2.93956e-15 6.07244 9.63301)
(-1.68821e-14 -1.21693 9.01081)
(-1.25796e-14 -0.616246 10.0856)
(4.34574e-15 0.800217 9.54162)
(1.44458e-14 1.73303 8.70885)
(1.67116e-14 2.00304 7.3945)
(4.65474e-15 1.19775 6.1608)
(-1.50008e-14 -0.260934 5.21746)
(-2.61806e-14 -1.09854 4.98567)
(-2.77574e-14 -0.825056 4.3635)
(-2.50647e-14 0.639955 2.91173)
(-2.0333e-14 2.38362 1.4786)
(-1.08838e-14 2.40597 0.992832)
(-5.04831e-15 -1.04583 1.24447)
(-5.73884e-15 -2.68901 2.01138)
(-4.09966e-15 -1.92377 3.02271)
(-3.06772e-15 0.233204 1.92241)
(-3.6225e-15 1.28138 -0.178582)
(-3.41419e-15 0.222796 -1.42464)
(-5.34747e-16 -1.11139 -1.56184)
(-1.18298e-14 -1.44246 7.88767)
(-1.50033e-14 -0.671536 8.63054)
(7.41161e-15 1.03726 8.04657)
(2.23408e-14 2.11788 7.34354)
(2.27515e-14 2.44025 6.38652)
(8.08272e-15 1.67631 5.55985)
(-7.91209e-15 0.16146 4.31259)
(-1.90595e-14 -0.803119 3.05252)
(-2.31088e-14 -0.346537 1.8029)
(-2.03627e-14 1.14552 0.32989)
(-1.2415e-14 2.58275 -0.33711)
(-3.64281e-15 2.26239 0.381465)
(-1.46269e-15 -0.914939 0.678906)
(-5.31374e-15 -2.7574 -0.375567)
(-4.98922e-15 -1.92088 -0.329058)
(-4.4199e-15 0.422578 -1.22566)
(-3.29793e-15 1.59687 -1.79539)
(-1.96727e-15 1.73725 -1.28426)
(-1.33113e-15 1.22458 -2.71372)
(2.64434e-15 -1.57894 6.83773)
(-7.04184e-15 -0.631653 7.32125)
(1.76097e-14 1.2859 6.72189)
(3.24282e-14 2.4183 6.12444)
(2.5458e-14 2.71716 5.48984)
(7.3628e-15 2.02731 5.06492)
(-2.93928e-15 0.790972 4.04101)
(-7.41346e-15 -0.0884259 2.26562)
(-8.69232e-15 0.276779 0.65029)
(-5.74739e-15 1.44053 -0.299407)
(-1.44889e-15 2.35929 -0.168056)
(7.66867e-16 1.92161 0.875877)
(2.63778e-16 -0.530427 0.891392)
(-2.80228e-15 -2.32464 -1.10438)
(-3.95167e-15 -1.66699 -1.92199)
(-3.29072e-15 0.511061 -2.50799)
(-1.82148e-15 1.46235 -2.20795)
(-6.89676e-16 1.14121 -1.6455)
(1.11406e-16 0.460111 -1.73311)
(2.50549e-14 -1.69249 5.93631)
(1.48319e-14 -0.623079 6.18225)
(3.52197e-14 1.46648 5.54896)
(4.09205e-14 2.6257 5.09151)
(2.40589e-14 2.86371 4.81223)
(6.39825e-15 2.24923 4.6188)
(-5.50617e-17 1.29329 3.87923)
(-1.52658e-15 0.572352 2.52715)
(-1.58339e-15 0.724571 1.23856)
(-4.01759e-16 1.50582 0.647817)
(5.707e-16 2.11215 0.839491)
(6.36161e-16 1.75825 1.39491)
(1.13495e-16 0.0456977 1.0762)
(-7.21153e-16 -1.71646 -0.879692)
(-1.92462e-15 -1.30744 -2.03007)
(-1.52052e-15 0.487885 -2.33745)
(-4.51359e-16 1.27311 -1.76819)
(-3.51193e-17 1.29985 -1.21595)
(1.61904e-16 1.03789 -1.29354)
(4.73701e-14 -1.69931 5.17631)
(4.19327e-14 -0.430254 5.18704)
(5.16338e-14 1.71539 4.60226)
(4.2355e-14 2.72877 4.38465)
(2.06793e-14 2.90664 4.39012)
(7.26475e-15 2.40305 4.26319)
(2.26291e-15 1.64691 3.69903)
(3.00812e-16 1.01126 2.7618)
(-3.16537e-17 1.03534 1.85608)
(3.37041e-16 1.58725 1.41309)
(7.62891e-16 2.03717 1.40517)
(7.394e-16 1.78646 1.49287)
(4.52463e-16 0.571333 1.0174)
(1.57993e-16 -1.11927 -0.529941)
(-4.89981e-16 -0.989533 -1.60968)
(-2.52786e-16 0.416854 -1.78985)
(1.23847e-16 1.08492 -1.37055)
(1.37643e-16 1.06986 -1.03114)
(1.90078e-16 0.812374 -0.980028)
(6.06484e-14 -1.74644 4.74358)
(6.14644e-14 -0.432811 4.44632)
(5.59639e-14 1.75968 4.00763)
(3.73537e-14 2.7255 4.03753)
(1.97126e-14 2.90345 4.13373)
(9.57924e-15 2.49635 4.01669)
(3.82856e-15 1.84858 3.61531)
(8.92919e-16 1.25774 2.976)
(4.20236e-16 1.22006 2.32464)
(8.1248e-16 1.65701 1.91261)
(1.10019e-15 2.04972 1.69043)
(1.07404e-15 1.87372 1.45484)
(6.66233e-16 0.926324 0.932139)
(4.62905e-16 -0.757128 -0.230735)
(1.97903e-16 -0.79639 -1.15208)
(2.71889e-16 0.295911 -1.25393)
(2.92393e-16 0.964796 -0.965506)
(1.97312e-16 1.08092 -0.805735)
(1.91852e-16 0.996971 -0.845561)
(5.76907e-14 -1.57823 4.6634)
(5.89799e-14 -0.0748037 4.22054)
(4.79105e-14 1.85966 3.97152)
(3.43791e-14 2.6956 3.95374)
(2.15365e-14 2.92687 3.97564)
(1.145e-14 2.63935 3.89512)
(4.82016e-15 2.12135 3.62996)
(1.36911e-15 1.60112 3.1733)
(6.85307e-16 1.5339 2.62382)
(9.66066e-16 1.90449 2.13897)
(1.2261e-15 2.26672 1.74371)
(1.18025e-15 2.1308 1.36888)
(8.14081e-16 1.35643 0.924707)
(5.62667e-16 -0.310709 0.150719)
(4.47814e-16 -0.498117 -0.649242)
(3.91224e-16 0.360446 -0.700753)
(2.9784e-16 0.94365 -0.727192)
(1.85575e-16 1.08175 -0.768947)
(1.69797e-16 0.964085 -0.891722)
(1.96458e-17 7.90701 13.2161)
(-2.90235e-15 16.1236 27.5113)
(-2.69141e-15 17.1747 27.3715)
(-2.58865e-15 16.1218 25.805)
(-2.56107e-15 15.4053 23.677)
(-3.46677e-15 14.2433 21.5018)
(-3.95145e-15 13.0171 19.0246)
(-4.13857e-15 11.9262 17.1157)
(-4.22111e-15 11.1241 15.5867)
(-4.33348e-15 10.4648 14.4453)
(-4.50737e-15 9.94426 13.5591)
(-4.7683e-15 9.47192 12.8624)
(-5.04301e-15 9.04045 12.2689)
(-5.30479e-15 8.58096 11.7565)
(-5.61359e-15 8.14664 11.2318)
(-6.06318e-15 7.5641 10.7226)
(-6.49184e-15 7.06716 10.0269)
(-7.31399e-15 6.05913 9.20287)
(-7.34152e-15 5.62859 8.24583)
(-1.06192e-14 3.7181 6.72934)
(8.65526e-17 8.43518 13.666)
(-2.53301e-15 16.0228 27.6795)
(-2.06285e-15 15.8676 26.1537)
(-2.11396e-15 14.3034 24.3406)
(-2.15205e-15 13.3592 22.1774)
(-3.46145e-15 11.9851 20.2141)
(-3.07632e-15 11.081 18.378)
(-2.93052e-15 10.2238 16.9389)
(-2.97789e-15 9.6412 15.6819)
(-3.24826e-15 9.06581 14.5903)
(-3.48137e-15 8.5553 13.5459)
(-3.8358e-15 8.03016 12.5793)
(-4.03165e-15 7.52975 11.6669)
(-4.3955e-15 6.99972 10.8231)
(-4.90425e-15 6.49162 9.9738)
(-5.36213e-15 5.84875 9.14413)
(-5.93842e-15 5.28401 8.14962)
(-7.07331e-15 4.26006 7.02197)
(-7.12909e-15 3.85218 5.9665)
(-1.15363e-14 2.29125 4.31573)
(3.46849e-17 9.39653 15.8082)
(-9.35346e-16 16.8153 29.3678)
(-7.33022e-16 16.2768 27.2649)
(-8.35319e-16 14.653 25.1804)
(-7.85343e-16 13.6914 22.9407)
(-2.07007e-15 12.4988 21.1505)
(-1.14286e-15 11.707 19.4623)
(-1.02927e-15 10.8877 18.0498)
(-1.0807e-15 10.2251 16.7101)
(-1.16848e-15 9.52778 15.4517)
(-1.35771e-15 8.8665 14.2306)
(-1.47901e-15 8.20674 13.0693)
(-1.66269e-15 7.56708 11.9584)
(-1.85579e-15 6.91589 10.9032)
(-2.06524e-15 6.29636 9.85484)
(-2.36279e-15 5.56953 8.84734)
(-2.70515e-15 4.95551 7.70899)
(-3.67568e-15 3.90942 6.5084)
(-3.37673e-15 3.569 5.4426)
(-6.85499e-15 2.17365 4.19377)
(1.17137e-17 9.21158 15.5491)
(2.32673e-16 16.8568 29.66)
(1.84853e-16 16.3835 27.7256)
(1.62193e-16 14.5665 25.1894)
(1.93106e-16 13.4699 22.7676)
(-1.2111e-15 12.3395 21.0971)
(-1.08128e-15 11.5885 19.5587)
(-1.13456e-15 10.7536 18.1631)
(-1.19028e-15 9.99983 16.7684)
(-1.31917e-15 9.22749 15.4127)
(-1.515e-15 8.47477 14.105)
(-1.49611e-15 7.75311 12.8335)
(-1.83781e-15 7.02963 11.6078)
(-1.97805e-15 6.31563 10.4058)
(-2.27455e-15 5.61643 9.21)
(-2.60291e-15 4.83732 8.04294)
(-3.06695e-15 4.15294 6.7414)
(-4.19924e-15 3.0674 5.37852)
(-4.34922e-15 2.71163 4.2435)
(-7.3016e-15 1.56447 3.19405)
(-3.35831e-18 8.87332 15.19)
(-5.53992e-17 16.9566 29.9655)
(-4.14813e-17 16.802 28.8125)
(-3.73338e-17 14.7962 25.7591)
(-4.75743e-17 13.4841 23.0292)
(2.75135e-16 12.3969 21.3777)
(2.52257e-16 11.6179 19.8648)
(2.63463e-16 10.7438 18.3944)
(2.73562e-16 9.90807 16.946)
(2.95177e-16 9.11713 15.5443)
(3.36181e-16 8.32388 14.2248)
(3.64481e-16 7.59677 12.9232)
(4.05698e-16 6.84153 11.673)
(4.50215e-16 6.11709 10.4235)
(5.06259e-16 5.39921 9.18489)
(5.73473e-16 4.61708 7.97627)
(6.62384e-16 3.94738 6.62653)
(9.79497e-16 2.87608 5.26304)
(8.62525e-16 2.64946 4.19125)
(2.10739e-15 1.8997 3.91478)
(8.06142e-19 8.19882 13.9315)
(1.28213e-17 16.9654 29.8001)
(9.16403e-18 17.2243 29.6585)
(8.75769e-18 15.168 26.2999)
(1.21376e-17 13.5516 23.1774)
(-6.02114e-17 12.4053 21.3339)
(-6.20314e-17 11.5665 19.7763)
(-6.37953e-17 10.6908 18.2785)
(-6.7761e-17 9.84456 16.8396)
(-7.21352e-17 9.07485 15.4395)
(-8.03929e-17 8.28068 14.1128)
(-8.82153e-17 7.54488 12.7853)
(-9.81028e-17 6.77209 11.502)
(-1.08041e-16 6.0226 10.2231)
(-1.20587e-16 5.29044 8.95733)
(-1.35625e-16 4.48325 7.73325)
(-1.5299e-16 3.8125 6.36172)
(-1.58693e-16 2.69818 4.9413)
(-2.53417e-16 2.56982 3.99183)
(-2.30408e-16 1.98698 4.01975)
(-9.87196e-20 8.32657 13.8369)
(-2.91714e-18 17.3375 29.7603)
(-2.09155e-18 17.6583 30.1458)
(-2.0877e-18 15.7381 26.7861)
(-3.23315e-18 13.9599 23.6246)
(1.27355e-17 12.7283 21.4823)
(1.56154e-17 11.87 19.8448)
(1.59523e-17 11.0607 18.3956)
(1.70195e-17 10.2814 17.0092)
(1.81884e-17 9.54466 15.6177)
(1.99455e-17 8.75498 14.2331)
(2.19324e-17 7.96008 12.824)
(2.45048e-17 7.14088 11.4319)
(2.68843e-17 6.30401 10.0811)
(2.97673e-17 5.52796 8.74957)
(3.317e-17 4.6466 7.51961)
(3.59797e-17 3.98382 6.19189)
(3.46788e-17 2.83019 4.82666)
(5.76861e-17 2.74134 3.96057)
(-6.13187e-18 2.04656 3.94923)
(-4.92142e-21 10.1074 16.5296)
(6.30531e-19 18.2532 30.3476)
(5.21618e-19 17.8272 30.0021)
(5.06133e-19 16.2121 26.7847)
(8.95825e-19 14.628 24.3098)
(-2.43347e-18 13.4985 22.0835)
(-3.83411e-18 12.6821 20.3241)
(-4.06543e-18 11.9549 18.9056)
(-4.2286e-18 11.2485 17.5041)
(-4.50141e-18 10.4953 16.0042)
(-4.91751e-18 9.62865 14.4144)
(-5.42428e-18 8.68731 12.7633)
(-6.05173e-18 7.71596 11.1082)
(-6.65556e-18 6.70592 9.52742)
(-7.35396e-18 5.76856 8.00431)
(-8.21513e-18 4.74733 6.63847)
(-8.983e-18 3.94897 5.28757)
(-8.88546e-18 2.75704 3.94278)
(-7.57871e-18 2.37901 2.94739)
(-6.92303e-17 1.2983 2.13068)
(6.2228e-21 13.2423 22.1352)
(-1.32716e-19 19.2616 31.546)
(-1.34151e-19 17.2852 29.3949)
(-1.23256e-19 16.3673 26.613)
(-2.37013e-19 15.2527 25.481)
(4.11572e-19 14.4894 23.6509)
(8.65802e-19 13.759 21.7975)
(1.00319e-18 13.0776 20.2883)
(1.03461e-18 12.2865 18.6853)
(1.08142e-18 11.3736 16.8299)
(1.17504e-18 10.2729 14.8405)
(1.30542e-18 9.09403 12.776)
(1.45851e-18 7.87441 10.7214)
(1.60789e-18 6.63612 8.74615)
(1.77589e-18 5.45193 6.86571)
(2.00029e-18 4.246 5.16226)
(2.22027e-18 3.19435 3.56954)
(2.4379e-18 1.95821 2.06789)
(1.04026e-17 1.15099 0.804526)
(-2.23281e-17 -0.164466 -1.01667)
(-2.01895e-21 15.5139 27.0032)
(2.95552e-20 18.9105 31.2732)
(3.40328e-20 16.1621 28.7429)
(2.98917e-20 16.1668 26.5346)
(6.01604e-20 15.3394 26.6417)
(-7.11787e-20 14.9957 25.5047)
(-1.8842e-19 14.2271 23.729)
(-2.37835e-19 13.4107 21.9811)
(-2.50518e-19 12.1891 19.9375)
(-2.6008e-19 10.9248 17.5152)
(-2.80254e-19 9.44025 15.0914)
(-3.12006e-19 8.01506 12.6515)
(-3.49261e-19 6.56342 10.313)
(-3.86849e-19 5.16929 8.04204)
(-4.29842e-19 3.79759 5.86822)
(-4.94809e-19 2.48983 3.8281)
(-6.23712e-19 1.24861 1.93078)
(-5.81351e-19 0.0756166 0.191514)
(2.7826e-18 -0.857395 -1.19558)
(-2.30267e-17 -2.03442 -3.46346)
(5.31185e-22 15.5002 27.8267)
(-7.31167e-21 17.6829 29.8256)
(-8.4725e-21 15.2343 28.218)
(-8.36295e-21 15.326 25.8905)
(-1.38666e-20 14.4033 26.2767)
(1.74084e-20 14.2045 25.786)
(4.56671e-20 13.1704 24.0568)
(5.86755e-20 11.9896 21.9985)
(6.24204e-20 10.2115 19.5188)
(6.53801e-20 8.59792 16.6968)
(7.05816e-20 6.77704 14.0703)
(7.72984e-20 5.1836 11.5026)
(8.41652e-20 3.57355 9.16328)
(9.84785e-20 2.1052 6.90492)
(1.69734e-19 0.639992 4.77264)
(3.42082e-19 -0.656106 2.74835)
(1.03178e-20 -1.8336 0.892072)
(-3.54098e-18 -2.49839 -0.74006)
(-1.20378e-17 -1.93755 -1.05463)
(-1.25686e-17 0.133094 1.18335)
(-7.99832e-23 14.3562 25.8498)
(1.80453e-21 17.3857 29.5684)
(2.1445e-21 14.8864 26.9836)
(2.41276e-21 14.2876 24.6924)
(2.97105e-21 13.2254 24.3874)
(-4.77e-21 13.0246 23.723)
(-1.20247e-20 11.6119 22.4134)
(-1.51086e-20 10.3131 20.2065)
(-1.56659e-20 8.37796 17.6881)
(-1.66971e-20 6.67098 14.8941)
(-2.19279e-20 4.81996 12.2315)
(-3.38653e-20 3.17269 9.59652)
(-3.90356e-20 1.55243 7.18015)
(3.20019e-20 0.116901 4.94129)
(4.06734e-19 -1.09981 3.03358)
(1.34512e-18 -1.55454 2.04463)
(2.28029e-18 -0.433218 3.36798)
(1.99287e-18 2.51502 7.54096)
(7.72591e-19 6.02001 11.8464)
(4.37071e-19 5.46083 10.1597)
(1.87709e-23 14.0781 25.2037)
(-4.35621e-22 17.8786 29.63)
(-5.2489e-22 14.9637 26.8372)
(-5.95459e-22 14.4355 23.8098)
(-6.6495e-22 12.7236 22.3788)
(1.31172e-21 12.3249 20.9668)
(3.06441e-21 10.9458 19.7056)
(3.81544e-21 9.92342 17.7214)
(4.3327e-21 8.36422 15.6632)
(4.93546e-21 7.13936 13.3777)
(2.03267e-21 5.76711 11.1345)
(-1.14764e-20 4.58107 8.79374)
(-9.01314e-21 3.47443 6.66354)
(1.30546e-19 2.79905 5.08884)
(4.88151e-19 2.93835 4.86626)
(7.42473e-19 4.05574 6.50597)
(6.938e-19 5.47544 8.04389)
(7.63174e-19 6.59653 10.3182)
(8.53346e-20 7.97382 12.4576)
(-4.43489e-19 5.67733 9.84993)
(-4.94854e-24 14.601 26.3064)
(1.0049e-22 18.583 30.0914)
(1.25972e-22 15.2762 27.4361)
(1.40372e-22 15.1677 24.4889)
(1.62365e-22 13.3609 22.9929)
(-2.5671e-22 12.8261 20.7346)
(-7.0797e-22 11.5392 19.1544)
(-9.19816e-22 10.9257 17.4623)
(-1.00567e-21 10.0636 16.0618)
(-1.09018e-21 9.42994 14.5651)
(-8.34716e-22 8.7379 13.1013)
(8.85329e-22 8.12911 11.5873)
(2.83638e-21 7.56354 10.0948)
(-4.49183e-21 6.9999 8.55985)
(-4.25987e-20 6.32102 6.88226)
(-1.2352e-19 5.96695 6.06457)
(-2.36758e-19 5.94969 6.1963)
(-3.68088e-19 5.93182 6.74634)
(-4.22606e-19 4.95592 6.1598)
(-1.9026e-19 2.51758 3.46917)
(1.45096e-24 15.6357 28.893)
(-2.25097e-23 19.2543 30.3592)
(-2.99559e-23 15.5257 28.2589)
(-3.28375e-23 16.059 25.4419)
(-4.01497e-23 14.1651 24.3423)
(3.7546e-23 14.0112 22.3595)
(1.36185e-22 12.9383 20.9135)
(1.92183e-22 12.3542 19.263)
(2.10506e-22 11.6253 17.7463)
(2.19181e-22 10.977 16.2342)
(2.10677e-22 10.3291 14.7327)
(6.20529e-23 9.66658 13.2105)
(-2.22086e-22 8.9572 11.6396)
(1.12918e-22 8.17352 10.002)
(3.25109e-21 7.2863 8.35566)
(1.10249e-20 6.34693 6.72149)
(2.50754e-20 5.15227 5.03474)
(5.16595e-20 3.64398 2.97169)
(9.73835e-20 1.33953 0.584645)
(1.04703e-19 -0.424276 -3.02025)
(-3.55115e-25 16.3355 31.4049)
(5.03853e-24 19.2974 29.9925)
(6.62636e-24 15.4281 29.0074)
(7.10463e-24 16.5099 26.3427)
(9.67001e-24 14.2933 25.4051)
(-5.5616e-24 14.3286 23.4332)
(-3.14606e-23 13.1246 22.1951)
(-5.80732e-23 12.6724 20.665)
(-7.91671e-23 11.9381 19.3658)
(-7.93181e-23 11.3817 17.9974)
(-2.35596e-23 10.7411 16.5915)
(1.60139e-22 10.0077 14.9693)
(5.40136e-22 9.01791 12.9953)
(9.61356e-22 7.66933 10.5423)
(7.32805e-22 5.916 7.70476)
(-7.47595e-22 4.00258 4.80454)
(-3.07185e-21 1.99244 2.10499)
(-4.85764e-21 0.111503 -1.19652)
(3.71836e-20 -2.49487 -4.00027)
(1.7029e-19 -2.86677 -7.54935)
(1.08789e-25 15.9164 31.7929)
(-1.31363e-24 18.6 28.8677)
(-1.86434e-24 14.7044 28.6801)
(-1.61695e-24 15.7737 26.1469)
(-1.04522e-24 13.5386 25.2857)
(1.43458e-24 13.4213 23.5083)
(-2.5865e-24 12.2122 22.3763)
(-1.83066e-23 11.689 21.0316)
(-3.39429e-23 10.9076 19.9077)
(-1.33971e-23 10.3018 18.7056)
(1.27036e-22 9.54059 17.38)
(5.60033e-22 8.57199 15.6009)
(1.41486e-21 7.10836 13.0282)
(1.97573e-21 5.01773 9.41221)
(-5.37017e-22 2.54003 5.16436)
(-7.90144e-21 0.594196 1.90413)
(-1.35666e-20 -0.0121525 1.00996)
(-7.4516e-21 -0.887772 -0.862518)
(4.60884e-20 -4.20476 -5.27446)
(1.64773e-19 -3.5927 -7.51699)
(-2.04888e-27 14.3742 30.6423)
(2.48971e-25 17.9591 27.7754)
(3.2189e-25 13.4492 27.6628)
(1.05011e-24 14.2516 25.3911)
(1.89475e-24 12.2005 24.4853)
(-1.39342e-24 11.6884 22.9689)
(-1.35652e-23 10.5726 21.8317)
(-3.54246e-23 9.81909 20.6241)
(-5.64206e-23 8.99824 19.5262)
(-4.11276e-23 8.2413 18.3935)
(1.12513e-22 7.39908 17.1096)
(5.95911e-22 6.36226 15.405)
(1.37153e-21 4.97228 12.971)
(1.15596e-21 3.24003 9.72338)
(-3.04154e-21 1.48136 6.11969)
(-1.21066e-20 0.0233252 2.78527)
(-1.68805e-20 -1.26481 -0.24335)
(2.17286e-21 -2.5112 -2.93331)
(5.25675e-20 -3.2792 -4.30685)
(1.01002e-19 -2.1741 -3.1621)
(5.01264e-27 11.2229 28.3261)
(-1.18618e-25 16.8304 24.7955)
(-1.2685e-25 11.8815 25.214)
(3.53983e-25 12.498 23.5075)
(1.2835e-24 10.7369 22.7751)
(4.42952e-25 10.0403 21.6962)
(-6.78905e-24 9.00862 20.8005)
(-2.40763e-23 8.19642 19.8811)
(-4.91498e-23 7.38597 19.0186)
(-6.63169e-23 6.65243 18.1674)
(-3.60243e-23 5.95117 17.3077)
(9.74427e-23 5.28585 16.3881)
(3.24119e-22 4.65288 15.3487)
(3.77018e-22 4.06406 14.1028)
(-4.26979e-22 3.52189 12.5693)
(-2.81746e-21 2.98898 10.7288)
(-6.07581e-21 2.40711 8.53568)
(-6.03093e-21 1.75049 5.77214)
(3.53849e-21 0.812144 2.36809)
(1.62725e-20 -0.32436 -0.569471)
(4.76349e-27 2.61045 16.9804)
(2.42962e-26 8.05768 13.5949)
(4.96938e-26 5.17367 14.4614)
(1.74141e-25 5.01645 14.0501)
(3.7787e-25 4.10167 14.0018)
(1.10034e-25 3.55371 13.8152)
(-1.97348e-24 2.99282 13.6472)
(-7.43082e-24 2.54121 13.4529)
(-1.74228e-23 2.1569 13.2539)
(-3.45491e-23 1.85387 13.0526)
(-6.60489e-23 1.62627 12.8505)
(-1.1836e-22 1.47127 12.6377)
(-1.72561e-22 1.38108 12.3968)
(-1.55896e-22 1.35926 12.1027)
(3.71275e-23 1.42296 11.7274)
(4.29358e-22 1.54294 11.2771)
(8.16099e-22 1.74129 10.7267)
(8.11364e-22 2.31887 9.79566)
(2.8962e-22 2.49369 8.43215)
(-1.45593e-22 -0.264704 6.39431)
(-4.50155e-27 -2.61069 16.9825)
(-2.43871e-26 -8.05819 13.5962)
(-5.05718e-26 -5.17385 14.4625)
(-1.7556e-25 -5.01654 14.051)
(-3.77641e-25 -4.10166 14.0025)
(-9.99109e-26 -3.55364 13.8159)
(2.01318e-24 -2.99271 13.6479)
(7.52391e-24 -2.54107 13.4535)
(1.75489e-23 -2.15671 13.2546)
(3.45271e-23 -1.8536 13.0532)
(6.54044e-23 -1.62587 12.8511)
(1.16389e-22 -1.47071 12.6382)
(1.68847e-22 -1.38036 12.3971)
(1.51188e-22 -1.35841 12.1027)
(-4.00781e-23 -1.42188 11.7271)
(-4.24173e-22 -1.5414 11.2765)
(-7.8744e-22 -1.73898 10.726)
(-7.31146e-22 -2.31624 9.79471)
(-1.51779e-22 -2.49289 8.43086)
(2.3835e-22 0.262232 6.39343)
(-5.78971e-27 -11.2217 28.3229)
(1.18501e-25 -16.8281 24.7925)
(1.27307e-25 -11.8802 25.2112)
(-3.49669e-25 -12.4963 23.505)
(-1.26559e-24 -10.7351 22.7729)
(-3.83443e-25 -10.038 21.6943)
(6.91397e-24 -9.0059 20.7989)
(2.42284e-23 -8.19307 19.8799)
(4.91836e-23 -7.38189 19.0178)
(6.61629e-23 -6.6475 18.167)
(3.62104e-23 -5.94525 17.3075)
(-9.52394e-23 -5.27881 16.3876)
(-3.17095e-22 -4.64478 15.3476)
(-3.62169e-22 -4.05542 14.1013)
(4.47884e-22 -3.51354 12.5697)
(2.79957e-21 -2.98106 10.7343)
(5.72773e-21 -2.39479 8.54077)
(4.19992e-21 -1.71617 5.74948)
(-9.31825e-21 -0.743576 2.29309)
(-2.5069e-20 0.356429 -0.6285)
(6.26186e-27 -14.3788 30.6507)
(-2.4724e-25 -17.9605 27.7859)
(-3.21516e-25 -13.4513 27.6735)
(-1.06014e-24 -14.2508 25.4046)
(-1.88729e-24 -12.1991 24.4997)
(1.4713e-24 -11.6854 22.985)
(1.37639e-23 -10.5682 21.8494)
(3.55723e-23 -9.81358 20.6434)
(5.6036e-23 -8.99123 19.5469)
(3.96633e-23 -8.23257 18.4147)
(-1.14125e-22 -7.38794 17.1297)
(-5.91372e-22 -6.34814 15.4221)
(-1.34374e-21 -4.95608 12.9843)
(-1.071e-21 -3.22779 9.73682)
(3.20117e-21 -1.48446 6.14683)
(1.19448e-20 -0.0500709 2.84735)
(1.4129e-20 1.21315 -0.160251)
(-1.3524e-20 2.48232 -2.90546)