/*--------------------------------*- C++ -*----------------------------------*\
| =========                 |                                                 |
| \\      /  F ield         | OpenFOAM: The Open Source CFD Toolbox           |
|  \\    /   O peration     | Version:  4.1                                   |
|   \\  /    A nd           | Web:      www.OpenFOAM.org                      |
|    \\/     M anipulation  |                                                 |
\*---------------------------------------------------------------------------*/
FoamFile
{
    version     2.0;
    format      ascii;
    class       volScalarField;
    location    "26";
    object      p;
}
// * * * * * * * * * * * * * * * * * * * * * * * * * * * * * * * * * * * * * //

dimensions      [0 2 -2 0 0 0 0];

internalField   nonuniform List<scalar> 
1680
(
19270.9
-10503.4
996.073
-4508.43
-1385.41
-2972.31
-2121.56
-1845.77
-2016.07
-1809.2
-1752.42
-1575.53
-1287.59
-1525.7
-1362.69
-1372.99
-1313.9
-1170.29
-1202.91
-1348.2
-1169.72
-1219.99
-1024.38
-957.949
-909.569
-855.53
-806.638
-758.233
-715.084
-668.066
-612.396
-564.926
-518.708
-473.336
-444.332
-408.513
-381.438
-349.213
-297.794
-272.675
-224.057
-244.061
-196.339
-157.212
-173.828
-157.493
-130.068
-101.969
-116.431
-85.0106
-81.2106
-85.0478
-74.0289
-59.1189
-54.4345
-58.4118
-48.7994
-38.0051
-34.6851
-36.7945
-1042.28
-648.98
-1067.28
-100.835
443.934
409.806
383.927
433.882
389.428
336.606
235.122
166.315
90.0726
76.3833
43.2645
131.065
33.6615
274.461
86.5785
-1479.19
-879.18
-1431.72
-250.934
462.587
408.218
383.244
430.94
386.488
323.567
222.185
153.313
76.0289
65.7596
32.1615
124.438
22.7187
265.891
48.1643
-1989.19
-1152.79
-1854.55
-431.937
485.658
405.449
383.309
425.04
383.195
308.126
208.4
140.787
63.3475
56.1935
23.1142
115.681
12.2552
242.817
-20.8874
-2575.59
-1470.5
-2329.7
-644.671
514.528
400.114
382.556
418.19
378.175
290.711
193.948
128.737
51.6488
46.9644
15.5314
105.217
0.106843
201.984
-114.863
-3240.43
-1828.04
-2839.44
-884.97
549.317
389.397
378.125
410.6
369.943
271.541
178.933
117.058
40.0309
37.3895
8.49566
94.0293
-14.3762
156.126
-230.592
-3969.49
-2208.88
-3351.55
-1136.2
589.798
370.072
365.83
400.6
356.988
250.714
163.457
105.608
28.2075
27.7211
1.55015
82.2293
-30.9642
130.912
-380.568
-4746.94
-2584.6
-3821
-1372.54
635.821
338.655
340.976
385.826
337.769
227.998
147.486
94.2565
17.2797
19.4244
-5.5112
67.4371
-48.2514
140.193
-564.912
-5547.08
-2933.87
-4203.15
-1562.85
670.911
289.095
298.724
363.904
311.317
203.183
130.938
83.0555
8.98122
13.9294
-12.3074
44.6677
-63.4189
171.903
-771.988
-6365.77
-3265.78
-4475.77
-1682.84
667.552
211.779
232.947
331.426
276.798
175.836
113.459
71.798
4.4253
11.8986
-14.6924
8.44236
-73.9898
193.755
-1070.18
-7154.02
-3623.96
-4671.33
-1681.7
612.465
97.6209
136.525
284.03
235.043
146.605
95.5465
60.7573
4.74158
12.2892
-21.7687
-46.4507
-79.9728
179.744
-1398.55
-7982.48
-4013.17
-4831.5
-1519.99
501.099
-49.1638
10.5251
215.888
184.976
114.107
75.8597
48.6088
16.2555
14.4039
-42.1129
-124.655
-88.1654
126.174
-1789.14
-8636.32
-4413.54
-4953.92
-1198.38
336.563
-215.114
-135.999
132.87
132.759
82.6511
57.1402
36.856
15.4302
9.83177
-72.605
-225.958
-109.476
44.7664
-2181.09
-9600.42
-4719.27
-5054.55
-741.31
142.729
-377.009
-285.989
37.48
72.4152
43.6734
31.7008
20.1642
2.58015
-5.97493
-123.032
-341.002
-145.301
-36.7571
-2500.36
-9757.1
-4953.92
-5118.26
-175.057
-22.5097
-480.626
-394.148
-39.9142
28.6994
19.0598
17.1459
10.9887
-9.28321
-26.9597
-171.658
-426.328
-161.529
-67.7315
-2803.76
-11854.9
-4784.24
-5067.58
441.425
-120
-485.468
-430.77
-124.267
-45.4654
-40.9736
-28.5142
-21.2664
-33.3218
-54.4522
-191.215
-443.137
-128.439
-63.875
-2929.03
-9278.08
-5017.55
-5015.18
910.368
-202.856
-436.337
-387.784
-121.423
-35.5618
-20.0079
-4.96252
-1.59445
-27.2915
-64.2249
-171.375
-422.619
-80.0471
-229.652
-3237.96
-17742.3
-3512.18
-5168.18
1219.61
-222.078
-367.154
-374.464
-252.937
-201.29
-187.898
-148.985
-109.418
-89.8937
-107.119
-172.637
-382.787
-34.9119
-122.884
-2838.32
337.67
-5852.86
-3463.07
1824.29
-107.735
-296.693
-311.493
-60.8869
44.9384
79.5201
102.627
87.9437
18.9962
-51.5892
-122.881
-310.026
31.5051
1163.3
-3803.22
-43637.8
-607.904
476.724
454.839
-216.723
-405.504
-349.084
-526.762
-634.565
-667.049
-585.22
-437.039
-263.678
-188.106
-165.599
-414.913
-32.4143
-762.446
-1536.13
85828.9
-47828.8
-21333.3
-1752.61
-440.562
-316.863
-38.6539
575.377
897.006
1022.95
1024.52
806.271
415.362
162.465
24.6446
-376.692
-136.403
-6622.98
-7649.53
-624
-627.028
-625.6
-625.12
-623.17
-620.807
-617.741
-614.257
-610.373
-606.074
-601.202
-596.472
-591.695
-586.153
-580.623
-575.152
-569.64
-564.434
-558.658
-554.544
-622.168
-622.174
-621.714
-620.92
-619.811
-618.366
-616.589
-614.528
-612.171
-609.572
-606.73
-603.696
-600.493
-597.218
-593.835
-590.425
-587.009
-583.651
-579.858
-576.86
-606.843
-607.29
-607.332
-607.454
-607.396
-607.261
-606.98
-606.589
-606.057
-605.405
-604.615
-603.706
-602.661
-601.506
-600.223
-598.853
-597.363
-595.778
-593.862
-592.126
-606.493
-606.544
-606.502
-606.488
-606.418
-606.337
-606.205
-606.049
-605.844
-605.608
-605.323
-605.007
-604.643
-604.253
-603.814
-603.36
-602.857
-602.356
-601.732
-601.086
-604.184
-604.291
-604.307
-604.368
-604.387
-604.416
-604.416
-604.416
-604.391
-604.359
-604.305
-604.242
-604.157
-604.068
-603.953
-603.843
-603.7
-603.584
-603.401
-603.246
-603.696
-603.758
-603.768
-603.811
-603.827
-603.858
-603.871
-603.892
-603.9
-603.91
-603.91
-603.911
-603.901
-603.895
-603.874
-603.865
-603.831
-603.825
-603.773
-603.762
-602.833
-602.904
-602.921
-602.973
-602.999
-603.042
-603.07
-603.106
-603.133
-603.165
-603.19
-603.219
-603.24
-603.266
-603.281
-603.31
-603.316
-603.351
-603.344
-603.388
-602.283
-602.344
-602.359
-602.406
-602.429
-602.47
-602.497
-602.533
-602.561
-602.594
-602.623
-602.655
-602.682
-602.714
-602.737
-602.773
-602.789
-602.832
-602.837
-602.892
-601.667
-601.727
-601.743
-601.791
-601.814
-601.855
-601.883
-601.92
-601.95
-601.984
-602.015
-602.048
-602.078
-602.112
-602.139
-602.176
-602.197
-602.242
-602.252
-602.31
-601.124
-601.18
-601.195
-601.24
-601.263
-601.301
-601.328
-601.363
-601.392
-601.425
-601.455
-601.486
-601.516
-601.549
-601.576
-601.611
-601.633
-601.676
-601.687
-601.743
-600.585
-600.64
-600.655
-600.698
-600.72
-600.757
-600.783
-600.817
-600.845
-600.877
-600.906
-600.937
-600.966
-600.997
-601.024
-601.058
-601.08
-601.121
-601.132
-601.186
-600.077
-600.129
-600.143
-600.184
-600.205
-600.241
-600.266
-600.298
-600.325
-600.355
-600.384
-600.412
-600.441
-600.47
-600.497
-600.528
-600.55
-600.589
-600.6
-600.652
-599.587
-599.636
-599.65
-599.689
-599.71
-599.744
-599.768
-599.799
-599.825
-599.854
-599.881
-599.909
-599.937
-599.963
-599.99
-600.019
-600.042
-600.077
-600.089
-600.138
-599.118
-599.165
-599.179
-599.216
-599.236
-599.269
-599.292
-599.321
-599.347
-599.374
-599.401
-599.426
-599.454
-599.479
-599.506
-599.532
-599.555
-599.587
-599.6
-599.646
-598.669
-598.713
-598.727
-598.762
-598.781
-598.812
-598.834
-598.862
-598.886
-598.912
-598.937
-598.962
-598.988
-599.011
-599.038
-599.062
-599.086
-599.115
-599.129
-599.172
-598.252
-598.292
-598.306
-598.338
-598.356
-598.385
-598.405
-598.43
-598.453
-598.477
-598.5
-598.522
-598.547
-598.568
-598.594
-598.614
-598.639
-598.663
-598.679
-598.718
-597.858
-597.895
-597.91
-597.942
-597.958
-597.986
-598.006
-598.031
-598.053
-598.075
-598.097
-598.119
-598.141
-598.161
-598.185
-598.201
-598.226
-598.244
-598.26
-598.294
-597.459
-597.486
-597.498
-597.53
-597.543
-597.568
-597.588
-597.611
-597.633
-597.656
-597.679
-597.703
-597.728
-597.752
-597.78
-597.8
-597.834
-597.849
-597.875
-597.913
-597.185
-597.194
-597.179
-597.2
-597.2
-597.207
-597.212
-597.217
-597.222
-597.229
-597.236
-597.246
-597.258
-597.273
-597.293
-597.314
-597.352
-597.374
-597.445
-597.502
-597.22
-597.278
-597.24
-597.229
-597.212
-597.194
-597.175
-597.155
-597.132
-597.107
-597.079
-597.048
-597.013
-596.974
-596.931
-596.882
-596.829
-596.76
-596.719
-596.556
-23.9992
-17.9091
-20.5966
-15.0917
-6.98482
5.23976
-2.1048
2.53747
11.2059
26.3684
11.7968
26.6992
40.6912
23.9486
26.3
37.2234
60.0904
33.2219
46.2619
30.3636
72.5197
85.1994
90.6801
100.01
108.119
116.691
125.575
134.096
137.348
164.368
171.39
176.963
182.669
187.923
192.904
198.161
202.849
199.666
180.742
191.301
189.483
203.69
189.392
198.681
196.495
202.568
209.858
204.613
210.143
211.931
215.362
222.05
219.627
222.353
223.95
221.872
222.035
221.703
221.394
221.19
339.715
326.89
329.593
372.902
369.288
383.131
375.663
366.079
332.129
311.413
300.476
291.064
289.413
283.658
247.285
180.999
162.654
194.989
213.964
339.489
325.791
327.789
372.203
369.148
382.256
375.118
366.056
331.488
311.007
300.113
290.932
289.944
284.144
246.862
177.54
157.443
191.734
213.611
337.511
324.301
325.609
370.758
368.852
381.027
374.568
366.131
330.604
310.554
299.642
290.54
290.656
284.951
246.344
174.164
151.459
183.812
212.289
333.712
321.862
322.503
368.525
368.279
379.782
373.906
366.056
329.391
309.831
298.928
289.935
291.552
285.992
246.067
170.33
145.243
176.902
209.339
328.577
318.771
318.576
365.839
367.537
378.698
373.153
365.954
328.033
308.922
297.949
289.17
292.512
287.384
246.12
166.474
139.649
171.325
205.125
321.983
314.855
313.482
363.187
366.699
377.647
372.422
366.066
326.878
307.858
296.674
288.141
293.223
289.6
246.319
163.143
134.807
167.15
198.837
313.565
309.724
306.828
360.772
365.664
376.685
371.929
366.691
326.312
306.749
295.088
286.549
293.408
290.596
245.556
161.715
131.497
165.055
191.698
302.783
302.838
298.038
358.581
364.316
375.936
371.746
367.785
325.831
305.328
293.167
285.007
292.024
288.923
243.177
160.549
130.339
165.814
184.484
288.865
293.528
286.405
356.419
362.679
375.603
371.88
369.162
324.995
303.575
291.61
283.037
287.368
282.647
238.654
157.8
130.426
169.238
177.551
270.852
280.995
271.007
354.001
361.002
375.844
372.357
371.008
325.916
302.617
291.043
279.574
278.643
271.973
230.624
155.059
131.401
171.767
169.939
247.599
264.255
250.598
350.932
359.802
376.679
373.213
373.887
331.726
303.756
291.06
274.365
266.699
257.464
219.165
153.633
132.978
173.255
163.101
217.64
241.988
223.43
346.484
359.736
378.176
374.486
378.112
341.634
308.918
290.94
267.796
252.239
240.135
204.607
152.634
134.152
176.255
159.256
178.984
212.407
187.01
339.148
361.481
380.522
376.271
383.565
354.185
317.487
290.099
260.076
236.151
221.351
187.882
151.774
132.622
178.692
151.144
128.865
173.062
137.615
326.829
365.489
383.768
378.505
389.724
367.239
327.441
288.185
251.391
219.052
201.829
169.571
151.045
127.556
181.132
152.902
63.4533
120.773
69.9739
307.87
371.55
388.164
380.83
396.148
378.552
337.499
285
241.81
200.744
181.278
149.548
149.601
119.367
189.86
143.864
-22.2524
51.9001
-22.0315
280.398
379.32
393.877
382.946
402.786
386.192
346.502
280.426
231.198
180.789
159.454
127.976
147.598
108.319
206.6
140.684
-134.745
-36.6455
-144.642
241.693
389.063
399.794
384.714
409.977
390.236
353.067
274.37
219.426
159.79
137.621
106.353
145.256
94.7455
226.244
135.296
-281.512
-148.725
-304.344
188.216
400.746
404.782
385.909
418.113
392.382
355.326
266.76
206.63
139.489
118.092
86.9411
142.701
79.1429
245.806
128.868
-473.3
-286.265
-507.637
115.888
413.792
408.377
386.177
426.289
392.944
352.981
257.605
193.231
121.333
101.923
70.5192
139.734
62.7174
263.378
118.936
-718.484
-454.723
-760.407
20.5614
428.052
410.053
385.305
432.196
391.857
346.61
247.001
179.686
105.156
88.3379
56.1669
135.983
47.0649
273.687
106.641
863.413
780.459
731.099
674.678
625.509
578.101
534.053
492.496
453.443
416.619
381.866
348.991
317.779
288.141
260.09
232.792
206.671
186.43
163.196
126.74
169.041
146.502
154.451
143.3
140.376
133.627
128.552
123.204
118.577
114.473
111.118
108.557
106.883
106.171
106.515
107.894
110.305
113.619
116.751
119.575
156.677
150.626
159.258
152.963
155.554
152.877
152.272
150.465
148.969
147.246
145.578
143.93
142.386
140.982
139.774
138.886
138.591
139.521
140.981
143.604
174.623
172.121
175.469
170.321
172.158
169.248
169.164
167.889
167.505
167.112
167.107
167.281
167.628
168.047
168.368
168.514
168.395
168.479
169.365
170.976
174.485
172.268
174.827
171.652
174.476
172.79
174.34
174.079
174.855
175.097
175.502
175.682
175.75
175.673
175.463
174.94
174.054
173.257
172.388
170.873
155.5
151.662
152.964
149.136
150.023
147.038
146.845
144.768
143.813
142.228
141.063
139.86
138.927
138.113
137.436
136.566
135.301
133.99
132.256
130.724
124.918
120.968
121.663
118.191
118.405
115.312
114.581
111.991
110.382
107.989
105.885
103.676
101.703
99.9191
98.4558
97.2214
96.247
96.0545
96.0723
98.202
114.874
113.085
114.795
112.693
114.217
112.448
113.132
112.069
112.031
111.425
111.159
110.998
111.241
111.964
113.188
115.027
117.144
119.811
121.753
125.124
137.264
138.118
140.504
140.227
142.866
143.081
145.151
146.174
147.868
149.381
151.072
152.844
154.714
156.704
158.756
160.931
163.057
165.373
167.18
170.042
161.996
163.998
166.161
166.686
169.141
169.93
171.886
173.17
174.757
176.221
177.69
179.148
180.586
182.035
183.478
184.979
186.435
188.055
189.284
190.979
185.573
187.587
189.218
189.843
191.695
192.345
193.793
194.726
195.856
196.903
197.975
199.085
200.235
201.421
202.62
203.831
205.001
206.268
207.203
208.425
201.569
203.841
205.276
206.456
208.314
209.476
211.297
212.696
214.223
215.4
216.254
216.53
216.108
214.927
213.248
211.561
210.735
210.73
211.313
211.215
223.406
223.872
224.206
224.046
224.304
223.734
223.36
222.128
220.619
218.378
215.633
212.295
208.519
204.498
200.677
197.543
195.398
194.263
194.327
192.35
204.402
200.19
197.895
194.88
192.899
190.179
187.965
185.422
183.182
180.843
178.638
176.399
174.201
172.037
170.052
168.376
167.394
167.747
167.59
163.361
153.87
147.347
143.447
138.818
134.504
129.545
124.674
119.462
114.493
109.659
105.293
101.435
98.3086
96.0378
94.7579
94.4456
94.9061
95.3784
95.0052
95.075
113.373
108.907
105.769
102.651
99.8705
96.945
94.4133
92.0306
90.2676
89.0499
88.5123
88.5791
89.2166
90.3357
91.7689
93.4126
94.977
96.7001
98.1395
101.178
101.715
102.265
104.947
107.555
109.76
111.653
113.596
115.439
117.312
119.139
120.93
122.663
124.313
125.904
127.406
128.959
130.457
132.425
134.368
137.335
128.772
131.304
134.729
138.123
140.991
143.407
145.633
147.582
149.368
150.958
152.385
153.679
154.865
156.002
157.093
158.239
159.337
160.612
161.613
163.006
155.226
158.553
159.442
160.947
162.044
163.133
164.121
164.941
165.666
166.268
166.792
167.276
167.728
168.203
168.7
169.29
169.873
170.635
171.198
172.036
200.341
202.486
201.583
201.324
199.79
198.217
196.46
194.608
192.76
190.94
189.215
187.615
185.942
184.55
183.327
182.276
181.394
180.521
179.862
178.547
)
;

boundaryField
{
    outletWallLeft
    {
        type            fixedValue;
        value           uniform 0;
    }
    fineWallsLeft
    {
        type            zeroGradient;
    }
    fineFrontAndBackLeft
    {
        type            zeroGradient;
    }
    fineplugLeft
    {
        type            cyclicAMI;
        value           nonuniform List<scalar> 
20
(
-733.145
-695.905
-705.356
-691.686
-680.449
-667.751
-655.521
-643.052
-631.315
-618.472
-603.441
-592.808
-577.098
-563.589
-553.365
-541.824
-531.999
-521.39
-506.485
-498.17
)
;
    }
    symmetryWallLeft
    {
        type            cyclicAMI;
        value           nonuniform List<scalar> 
20
(
-30.3968
96.6096
274.074
40.3632
133.524
49.7157
82.3606
97.6145
173
241.061
341.608
390.643
433.039
384.616
409.929
435.993
-40.1369
-913.844
-551.852
-880.383
)
;
    }
    inletOutletLeft
    {
        type            cyclicAMI;
        value           nonuniform List<scalar> 
20
(
-498.17
-506.485
-521.39
-531.999
-541.824
-553.365
-563.589
-577.098
-592.808
-603.441
-618.472
-631.315
-643.052
-655.521
-667.751
-680.449
-691.686
-705.356
-695.905
-733.145
)
;
    }
    inletLeft
    {
        type            zeroGradient;
    }
    inletWallsLeft
    {
        type            zeroGradient;
    }
    inletFacesLeft
    {
        type            zeroGradient;
    }
    fineWallsRight
    {
        type            zeroGradient;
    }
    outletWallRight
    {
        type            zeroGradient;
    }
    fineplugRight
    {
        type            cyclicAMI;
        value           nonuniform List<scalar> 
20
(
157.342
160.93
162.553
165.117
167.444
170
172.755
175.572
181.776
184.246
187.03
189.601
192.22
194.752
197.154
199.464
201.629
201.2
199.96
198.533
)
;
    }
    fineFrontAndBackRight
    {
        type            zeroGradient;
    }
    symmetryWallRight
    {
        type            cyclicAMI;
        value           nonuniform List<scalar> 
20
(
-30.3968
96.6096
274.074
40.3632
133.524
49.7157
82.3606
97.6145
173
241.061
341.608
390.643
433.039
384.616
409.929
435.993
-40.1369
-913.844
-551.852
-880.383
)
;
    }
    inletOutletRight
    {
        type            cyclicAMI;
        value           nonuniform List<scalar> 
20
(
157.342
160.93
162.553
165.117
167.444
170
172.755
175.572
181.776
184.246
187.03
189.601
192.22
194.752
197.154
199.464
201.629
201.2
199.96
198.533
)
;
    }
    inletRight
    {
        type            zeroGradient;
    }
    inletWallsRight
    {
        type            zeroGradient;
    }
    inletFacesRight
    {
        type            zeroGradient;
    }
}


// ************************************************************************* //
