/*--------------------------------*- C++ -*----------------------------------*\
| =========                 |                                                 |
| \\      /  F ield         | OpenFOAM: The Open Source CFD Toolbox           |
|  \\    /   O peration     | Version:  4.1                                   |
|   \\  /    A nd           | Web:      www.OpenFOAM.org                      |
|    \\/     M anipulation  |                                                 |
\*---------------------------------------------------------------------------*/
FoamFile
{
    version     2.0;
    format      ascii;
    class       surfaceScalarField;
    location    "26";
    object      phi;
}
// * * * * * * * * * * * * * * * * * * * * * * * * * * * * * * * * * * * * * //

dimensions      [0 3 -1 0 0 0 0];

internalField   nonuniform List<scalar> 
3120
(
-118232
-151136
-118232
-102905
-15326.9
-102905
-99972.4
-2932.53
-92014.5
-7957.87
-92014.5
-86954.3
-5060.21
-79772.4
-7181.95
-79772.3
-72343
-7429.38
-72343
-63143.1
-9199.84
-52774.4
-10368.7
-52774.4
-43705.9
-9068.54
-43705.9
-38898
-4807.87
-37667.5
-1230.5
-37667.6
-36570.4
-39588.2
4313.01
-38312.7
-37092.3
-35898.3
-34735
-33599.9
-32490.9
-31403.3
-30335.9
-29292
-31857.3
3577.14
-30873
-29917.4
-28991.1
-28090.9
-27188.4
-26281.4
-25678.4
-26057.5
-28319.7
2262.21
-28319.7
-28319.7
-27919.1
-400.681
-27919
-27919.1
-27919
-23951.8
-3967.22
-23951.8
-23951.8
-18866.4
-5085.44
-18866.4
-18866.3
-18866.3
-15448.2
-3418.16
-15448.2
-15448.2
-15448.1
-13698
-1750.11
-15845.2
131952
-22424.4
68622.9
-22737.7
2665.37
-9731.27
-110440
1856.14
-76315.6
6181.52
-43680
7049.85
-22865.8
4574.79
-6219.84
-115.152
16957.4
-2666.93
31599
-4376.95
31911.6
-5090.37
28119
-5271.38
18823.2
-5026.09
1816.74
-4219.94
-15829.4
-3178.4
-29764.8
-1344.85
-24408.2
1833.54
-29829.5
32102.1
-16179.6
149599
-23578.6
76022
-23802.9
2889.6
-10165.9
-124077
2025.88
-88507.4
6417.01
-48071.2
7010.99
-23459.9
4551.31
-3760.24
124.456
21384.2
-2140.8
33864.2
-3690.52
33461.3
-4311.36
28739.9
-4639.61
19151.4
-4350.07
1527.08
-3059.39
-17120.1
-2227.38
-30596.9
-218.414
-26417.2
4127.94
-34175.8
32811.9
-16242.6
167599
-24377
84156.4
-24356.8
2869.34
-10237.6
-138196
2538.6
-101284
7145.39
-52678
7228.04
-23542.5
4554.06
-1086.26
418.855
25519.4
-1564.15
35847.2
-2966.4
34863.6
-3587.11
29360.6
-4086.99
19651.3
-3835.51
1275.63
-2061.2
-18894.4
-1537.53
-31120.5
509.582
-28464.3
6475.88
-40142.1
34202.4
-15968.5
185620
-24571.6
92759.5
-24076.3
2374.01
-9611.32
-152661
3542.81
-114438
8514.5
-57649.7
7965.82
-22993.9
4631.13
2248.37
800.12
29350.4
-964.141
37611.5
-2236.61
36136
-2930.82
30054.8
-3683.7
20404.1
-3539.65
1131.49
-1498.54
-20935.5
-1540.82
-31078.3
826.395
-30831.5
8272.05
-47587.8
38507.2
-15284.4
203261
-23832.6
101308
-22576
1117.46
-7874.48
-167362
5120.94
-127433
10338.4
-62867.1
9116.54
-21772
4964.81
6400.12
1281.92
33033.3
-375.145
39268.5
-1523.65
37284.6
-2338.02
30869.2
-3350.42
21416.6
-3241.78
1022.86
-1545.14
-22632.1
-2575.47
-30047.9
839.015
-34246
8827.29
-55576
46933.8
-14135
220061
-22032.1
109205
-19369.2
-1545.42
-4686.22
-182045
7408.82
-139528
12401.5
-67859.8
10503.9
-19874.4
5665
11239
1903.78
36794.5
194.794
40977.5
-848.49
38327.8
-1783.38
31804
-2888.79
22522
-2693.31
827.344
-2259.75
-23065.7
-4436.38
-27871.3
767.985
-39450.3
8047.36
-62855.4
57243.3
-12528.7
235565
-19482.1
116158
-14316.1
-6711.31
47.8435
-196409
10606.2
-150087
14725.3
-71978.9
12040.1
-17189.2
6684.25
16594.8
2762.01
40716.8
825.715
42913.8
-218.621
39372.2
-1243.4
32828.8
-2208.85
23487.4
-1958.29
576.841
-3626.82
-21397.2
-6554.97
-24943.1
797.912
-46803.2
7251.01
-69308.5
68071.5
-10558.5
249409
-17067.9
122667
-8137.79
-15641.4
6100.5
-210648
14790.9
-158777
17489.3
-74677.2
13749.5
-13449.5
7917.89
22426.4
3919.96
44714.7
1696.06
45137.7
442.661
40625.6
-711.651
33983.1
-1400.68
24176.5
-1341.91
518.03
-5592.24
-17146.9
-8452.18
-22083.2
885.859
-56141.3
7588.59
-76011.2
79973.1
-8357.29
261365
-15365.1
129675
-1499.76
-29506.8
13017.4
-225165
19788.1
-165548
20730.4
-75619.5
15625.4
-8344.47
9197.67
28854.2
5271.17
48641.2
2917.31
47491.6
1301.48
42241.4
-162.475
35447.1
-289.767
24303.8
465.125
-236.719
-8029.59
-8652.14
-10017
-20095.8
645.934
-66804.2
9076.83
-84442.1
87819.4
-5937.61
271204
-13705.5
137443
5768.79
-48981.1
20248.1
-239644
24985.4
-170285
24041.8
-74675.9
17401.3
-1704
10300.2
35955.2
6575.05
52366.4
4366.53
49700.1
2441.35
44166.6
434.299
37454.1
1300.95
23437.1
-918.014
1982.17
-10675.3
1105.05
-11402.1
-19369
-464.18
-77742.1
10475.7
-95382
93487.2
-3412.72
278854
-11209.2
145240
13528.1
-73718.4
27287.9
-253404
29329.8
-172327
26218.8
-71565
18296.5
6218.28
10954.1
43297.6
7628.73
55691.8
5763.76
51565
3699.61
46230.7
1106.04
40047.7
-749.92
25293.1
-5910.58
7142.93
-12870
8064.54
-12667.1
-19571.8
-2573.51
-87835.8
10908.4
-108864
95327.1
-734.675
284093
-7891.91
152397
21911.4
-103522
33509.4
-265002
31389.2
-170207
25934.3
-66110.1
17801.7
14350.8
11028.9
50070.4
8350.7
58370
6888.62
53027.1
4792.96
48326.4
1786.6
43054
-1244.92
28324.6
-7401.42
13299.4
-13449.4
14112.4
-13140.9
-19880.3
-5083.94
-95892.8
10125
-124073
95083.4
1659.32
287359
-3966.12
158022
30709
-138197
38029.6
-272323
29489.6
-161667
22059
-58679.5
15880.8
20529
10581
55370.2
8733.78
60217.3
7619.64
54141.3
5455.66
50490.4
2275.6
46234.1
-1146.97
31747.1
-7214.64
19367.1
-11298.6
18196.4
-10945
-20233.9
-6801.03
-100037
8162.65
-139037
94046.2
4435.23
287878
1163.23
161294
39404.4
-176438
39836.1
-272754
22590.8
-144421
14003
-50091.7
12450.7
22081.3
9623.16
58197.8
8772.06
61068.3
7914.66
54998.6
5612.62
52792.4
2538.23
49308.5
-539.342
34824.7
-5346.96
24174.7
-5389.18
18238.6
-4700.58
-20922.5
-6925.63
-97811.7
5973.64
-151936
92590.5
5907.9
287962
6200.79
161002
47583.5
-217821
38264.3
-263435
12464.4
-118621
4663.71
-42291
8782.76
17962.2
8437.41
58543.2
8494.61
61011.2
7688.06
55805.2
5186.69
55293.8
2464.32
52030.9
273.181
37015.9
-3026.87
27474.8
519.142
14692.6
2246.09
-22649.4
-6192.07
-89373.5
3849.57
-161977
89258.1
7731.05
284946
13353.4
155379
54922.8
-259390
33500.8
-242013
3990.4
-89111
-845.546
-37455.1
5839.56
11277.1
7004.99
57377.7
7845.77
60170.4
6994.6
56656.4
4494.02
57794.3
2489.4
54035.5
1572.47
37932.8
-203.973
29251.2
3187.39
11301.2
5253.66
-24715.7
-6567.42
-77552.5
1083.76
-169629
85281.6
11785.1
282126
21303.4
145861
60664
-298751
26345.3
-207694
-1173.68
-61592
-2327.72
-36301
4254.48
4694.93
6088.51
55543.7
7123.32
59135.5
5780.56
57999.1
3214.59
60360.3
1872.97
55377.1
2020.01
37785.7
2331.23
28940
5702.52
7929.94
6864.58
-25877.8
-8590.56
-62097.3
-442.043
-177777
76881.7
-14896.6
296884
17411.9
113552
63009.7
-344348
16247.9
-160932
-5444.79
-39899.4
-4603.25
-37142.6
158.369
-66.6808
3753.09
51949
5374.21
57514.4
4265.34
59108
2875.83
61749.8
3084.96
55168
4116.91
36753.8
5530.38
27526.6
8460.86
4999.45
10669.9
-28086.8
-9341.66
-42085.7
-1980.81
-185138
71968.4
111637
205522
80039.9
145149
56227.3
-320536
-197.982
-104507
-7428
-32669.4
-7621.07
-36949.5
1291.83
-8979.57
6326.64
46914.2
6317.49
57523.6
2994.14
62431.3
-171.817
64915.8
-1225.74
56221.9
-552.337
36080.4
5097.32
21876.9
11212.1
-1115.28
17540.4
-34415.2
-2176.75
-22368.5
-1146.58
-186168
55494.9
-368719
130357
32109.2
-9578.55
-4684.85
-13404.5
-14285.3
-5245.48
-2879.17
-452.074
5967.92
13644.2
17866
24033.7
19229.5
14233.5
8305.77
-45747
-295.892
-801.246
-433.591
-1157.45
-581.443
-1127.65
-702.04
-1099.83
-798.102
-1097.89
-869.365
-1092.04
-918.679
-1085.86
-949.616
-1078.08
-967.408
-1069.78
-975.357
-1059.45
-971.933
-1047.34
-948.357
-1035.4
-912.255
-1020.38
-860.71
-1007.17
-794.753
-992.273
-714.835
-980.079
-625.711
-991.626
-515.579
-1017.12
-330.229
-788.279
48.7868
-139.901
-661.338
-210.324
-1087.02
-286.455
-1051.52
-357.064
-1029.21
-423.537
-1031.41
-483.607
-1031.96
-537.609
-1031.85
-585.339
-1030.34
-626.58
-1028.53
-660.02
-1026.01
-683.97
-1023.38
-699.211
-1020.16
-703.013
-1016.57
-698.36
-1011.82
-684.672
-1005.95
-664.343
-1000.41
-650.617
-1005.34
-624.762
-1042.97
-429.723
-983.289
-380.936
-16.4333
-644.899
-32.697
-1070.75
-48.9132
-1035.3
-68.6249
-1009.5
-89.4536
-1010.58
-110.497
-1010.92
-130.822
-1011.52
-149.911
-1011.25
-167.289
-1011.15
-182.883
-1010.41
-196.827
-1009.43
-208.909
-1008.07
-219.034
-1006.44
-226.054
-1004.79
-229.596
-1002.4
-230.48
-999.52
-236.975
-998.838
-249.076
-1030.86
-186.336
-1046.02
-567.272
6.8314
-651.73
0.28609
-1064.21
-9.81664
-1025.19
-18.3893
-1000.93
-27.0973
-1001.87
-35.8566
-1002.16
-44.5627
-1002.82
-53.0387
-1002.77
-61.0861
-1003.11
-68.4539
-1003.04
-74.7693
-1003.12
-79.8283
-1003.01
-83.5465
-1002.72
-85.8177
-1002.52
-86.4005
-1001.82
-84.7722
-1001.15
-83.0967
-1000.51
-88.3427
-1025.61
-73.7764
-1060.59
-641.049
16.9867
-668.714
14.3633
-1061.58
8.49312
-1019.32
4.45436
-996.884
0.395798
-997.809
-3.72939
-998.031
-7.87341
-998.672
-11.943
-998.703
-15.9071
-999.139
-19.6976
-999.25
-23.2922
-999.521
-26.6326
-999.672
-29.5571
-999.797
-32.0429
-1000.03
-33.9313
-999.93
-35.0617
-1000.02
-36.0419
-999.531
-40.7884
-1020.87
-37.4966
-1063.88
-678.545
19.8528
-688.567
18.0034
-1059.73
12.7717
-1014.09
10.0407
-994.153
7.41144
-995.18
4.74177
-995.361
2.03421
-995.965
-0.644763
-996.024
-3.30601
-996.478
-5.90994
-996.646
-8.42587
-997.005
-10.8372
-997.26
-13.113
-997.522
-15.2587
-997.889
-17.1847
-998.003
-18.8664
-998.334
-20.4692
-997.928
-24.9898
-1016.35
-25.6561
-1063.21
-704.201
20.6845
-709.251
18.6065
-1057.65
13.9358
-1009.42
11.7421
-991.959
9.63007
-993.068
7.47872
-993.209
5.29317
-993.779
3.12296
-993.853
0.942621
-994.297
-1.22206
-994.481
-3.37118
-994.856
-5.50701
-995.124
-7.58912
-995.439
-9.65671
-995.821
-11.6321
-996.028
-13.5392
-996.427
-15.4277
-996.039
-19.8295
-1011.94
-21.9808
-1061.06
-726.182
20.7855
-730.038
18.1877
-1055.06
13.8103
-1005.04
11.8516
-990.001
9.93557
-991.153
7.99088
-991.265
6.01235
-991.801
4.04743
-991.889
2.06527
-992.315
0.0885732
-992.505
-1.88815
-992.88
-3.86853
-993.145
-5.82825
-993.48
-7.80672
-993.843
-9.73525
-994.1
-11.6578
-994.505
-13.5528
-994.145
-17.761
-1007.74
-20.7757
-1058.04
-746.958
20.7126
-750.749
17.5115
-1051.85
13.4229
-1000.95
11.6105
-988.188
9.8006
-989.342
7.9679
-989.432
6.10207
-989.934
4.24813
-990.034
2.37321
-990.44
0.500624
-990.632
-1.37982
-990.999
-3.27044
-991.253
-5.15028
-991.599
-7.05856
-991.934
-8.9308
-992.227
-10.82
-992.615
-12.6604
-992.304
-16.6484
-1003.75
-20.3388
-1054.35
-767.296
20.5748
-771.324
16.751
-1048.03
12.9251
-997.126
11.2216
-986.485
9.48504
-987.606
7.73327
-987.68
5.94909
-988.15
4.17712
-988.263
2.38289
-988.646
0.591416
-988.841
-1.21118
-989.196
-3.02368
-989.441
-4.83063
-989.793
-6.66741
-990.098
-8.47382
-990.421
-10.3082
-990.781
-12.0689
-990.543
-15.8157
-1000
-20.1254
-1050.04
-787.422
20.4312
-791.756
15.9828
-1043.58
12.4251
-993.568
10.8142
-984.874
9.14258
-985.934
7.46169
-985.999
5.74916
-986.438
4.04878
-986.562
2.32524
-986.922
0.605489
-987.121
-1.12784
-987.463
-2.86919
-987.7
-4.60844
-988.054
-6.37579
-988.331
-8.11599
-988.681
-9.89041
-989.007
-11.5703
-988.863
-15.0659
-996.505
-19.9779
-1045.13
-807.4
20.2868
-812.044
15.2154
-1038.51
11.9269
-990.281
10.3992
-983.347
8.7902
-984.326
7.17723
-984.388
5.53339
-984.795
3.90167
-984.932
2.24616
-985.268
0.595731
-985.472
-1.07047
-985.798
-2.74196
-986.029
-4.415
-986.382
-6.11284
-986.634
-7.78688
-987.007
-9.49904
-987.295
-11.1012
-987.262
-14.3405
-993.266
-19.8482
-1039.63
-827.248
20.1488
-832.193
14.4561
-1032.82
11.4403
-987.266
9.98917
-981.897
8.44332
-982.781
6.89764
-982.843
5.32181
-983.22
3.75778
-983.368
2.1695
-983.68
0.587211
-983.89
-1.01289
-984.198
-2.61529
-984.427
-4.22345
-984.774
-5.8518
-985.006
-7.46071
-985.399
-9.10968
-985.647
-10.6395
-985.732
-13.6206
-990.286
-19.7212
-1033.53
-846.969
20.0199
-852.214
13.7046
-1026.51
10.9638
-984.526
9.58418
-980.518
8.10309
-981.301
6.6255
-981.366
5.11792
-981.714
3.62185
-981.874
2.10121
-982.161
0.586731
-982.377
-0.947122
-982.665
-2.48051
-982.895
-4.0248
-983.231
-5.5831
-983.449
-7.1286
-983.854
-8.71342
-984.063
-10.1765
-984.27
-12.8999
-987.563
-19.5904
-1026.84
-866.56
19.9101
-872.125
12.9648
-1019.56
10.5006
-982.063
9.1888
-979.208
7.7742
-979.887
6.36606
-979.959
4.92669
-980.275
3.49854
-980.446
2.046
-980.709
0.59842
-980.93
-0.868802
-981.199
-2.33344
-981.431
-3.8145
-981.75
-5.30125
-981.963
-6.78505
-982.371
-8.3034
-982.545
-9.70491
-982.869
-12.1726
-985.096
-19.4463
-1019.56
-886.006
19.8436
-891.97
12.2546
-1011.97
10.0738
-979.884
8.83239
-977.968
7.48861
-978.545
6.15422
-978.626
4.78355
-978.906
3.42178
-979.086
2.03539
-979.324
0.649523
-979.546
-0.755568
-979.795
-2.15836
-980.03
-3.58273
-980.327
-5.00248
-980.544
-6.43319
-980.942
-7.88474
-981.094
-9.23183
-981.522
-11.4488
-982.879
-19.2854
-1011.73
-905.291
19.8668
-911.837
11.613
-1003.72
9.74386
-978.015
8.60039
-976.824
7.34874
-977.294
6.1104
-977.388
4.82639
-977.622
3.54321
-977.803
2.23288
-978.014
0.912577
-978.226
-0.429904
-978.453
-1.7782
-978.682
-3.15599
-978.949
-4.52596
-979.174
-5.93042
-979.537
-7.33403
-979.691
-8.66809
-980.189
-10.6726
-980.875
-19.0373
-1003.36
-924.329
20.0761
-931.914
11.1013
-994.745
9.589
-976.503
8.60385
-975.84
7.48214
-976.172
6.37033
-976.277
5.2016
-976.454
4.0163
-976.618
2.79848
-976.797
1.55712
-976.985
0.288587
-977.185
-0.997805
-977.396
-2.31897
-977.629
-3.64004
-977.853
-5.02097
-978.157
-6.37995
-978.332
-7.7594
-978.809
-9.59897
-979.036
-18.4202
-994.541
-942.749
20.7985
-952.713
11.0689
-985.016
9.96388
-975.398
9.25064
-975.127
8.35616
-975.278
7.43075
-975.352
6.42242
-975.446
5.35091
-975.547
4.21173
-975.658
3.00755
-975.781
1.74028
-975.918
0.415715
-976.071
-0.968478
-976.245
-2.38598
-976.436
-3.87511
-976.668
-5.32873
-976.879
-6.87908
-977.259
-8.53147
-977.383
-17.5628
-985.51
-960.312
22.287
12.2707
11.8721
11.745
11.4666
11.1146
10.6685
10.1212
9.46332
8.68222
7.76415
6.69249
5.4476
4.01125
2.34319
0.464163
-1.79522
-4.17873
-14.6884
-13698
-13925.8
227.852
-13925.8
-13925.8
-13925.8
-15813.5
1887.66
-15813.5
-15813.5
-15813.5
-18661.7
2848.24
-18661.7
-18661.7
-22022.5
3360.8
-22022.5
-22022.6
-22022.5
-26804.8
4782.25
-26804.8
-26804.8
-32455.6
5650.81
-31927.6
-31318.8
-30720.6
-30113.4
-29468.9
-28772.7
-28021.7
-27214.7
-30065.9
3698.98
-29152.9
-28176.2
-27129.8
-26007.7
-24797.2
-23475.8
-22008.9
-20368.8
-18612.8
-15345.2
-1707.92
-14946.7
-14946.7
-14231.4
-715.23
-12943.8
-1287.67
-12943.8
-11824.2
-1119.62
-11824.1
-11144.6
-679.584
-10586.9
-557.662
-10586.9
-10031.4
-555.515
-10031.4
-8790.49
-1240.97
-6520.37
-2270.17
-6520.4
-3188.7
-3331.81
-99.0256
-3090.25
-99.5876
969.794
-1069.6
969.565
969.553
-1931.94
1931.85
-3862.37
1930.36
-3764.66
-97.7956
-1143
-2621.73
-968.467
-174.806
1426.17
-2394.72
3324.12
-1898.02
5380.41
-2056.33
6184.34
-803.981
6070.53
113.771
5515.45
555.053
4790.65
724.772
4823.4
-32.7817
6426.12
-1602.74
8883.8
-2457.69
9639.19
-755.411
6822.26
2816.91
1507.07
5315.14
2476.55
-2962.05
4893.86
-3858.38
2826.62
-3064.93
-891.344
-1147.83
-4538.9
-1276.2
-46.6905
853.602
-4524.58
2956.14
-4000.62
4983.18
-4083.42
5993.18
-1814.04
6309.17
-202.274
6183.51
680.679
5607.28
1300.97
5363.17
211.29
6495.91
-2735.52
8344.22
-4306.03
9689.51
-2100.72
9299.32
3207.07
5425.16
9189.25
6832.05
-2981.38
7875.21
-3670.94
3516.14
-2916.68
-1645.67
-1250.29
-6205.33
-1555.36
258.241
318.577
-6398.55
2713.01
-6395.08
4673.69
-6044.13
5610.61
-2750.99
5878.01
-469.704
5754.44
804.219
5272.71
1782.67
5043.85
440.132
5798.08
-3489.76
7363.74
-5871.7
8346.89
-3083.88
8548.45
3005.49
6703.13
11034.6
10444.9
-2809.36
10684.5
-3534
4240.72
-3002.66
-2177.09
-1465.57
-7742.45
-1696.57
489.092
101.141
-8196.3
2659.26
-8953.24
4574.35
-7959.26
5461.47
-3638.17
5643.86
-652.143
5411.26
1036.78
4932.63
2261.27
4597.29
775.434
4826.77
-3719.28
6091.03
-7135.99
6922.54
-3915.4
7211.72
2716.28
6288.29
11958
13401.4
-2659.35
13343.9
-3522.8
5104.14
-3271.84
-2428.09
-1826.7
-9187.61
-1827.58
489.886
-66.641
-9957.26
2371.69
-11391.6
4262.11
-9849.69
5290.04
-4666.12
5543.07
-905.205
5231.47
1348.35
4681.23
2811.49
4029.52
1427.13
3583.56
-3273.33
4555.08
-8107.52
5434.28
-4794.61
5790.19
2360.36
5200.99
12547.2
16332.2
-2617.09
15960.9
-3687.26
6174.26
-3703.47
-2411.96
-2286.75
-10604.4
-2034.46
237.482
-329.165
-11662.6
1743.5
-13464.3
3523.75
-11630
4832.73
-5975.14
5390.05
-1462.58
5138.84
1599.52
4429.61
3520.69
3157.35
2699.34
2010.28
-2126.36
2765.41
-8862.67
3749.73
-5778.96
4246.37
1863.69
3952.95
12840.6
19044.1
-2719.39
18680.3
-4038.1
7492.95
-4254.55
-2195.55
-2757.31
-12101.6
-2284.18
-235.713
-668.041
-13278.7
962.911
-15095.2
2662.23
-13329.3
4338.65
-7651.58
5170.13
-2294.07
4819.94
1949.68
3501.6
4839.02
1279.42
4921.51
96.5793
-943.542
728.773
-9494.87
1830.06
-6880.25
2451.1
1242.63
2870.04
12421.6
21358.7
-2955.15
21635.4
-4558.92
9096.68
-4897.12
-1857.42
-3191.97
-13806.8
-2525.62
-902.166
-1013.59
-14790.8
304.515
-16413.4
2087.49
-15112.3
4147.04
-9711.17
4831.58
-2978.67
3485.17
3296.06
814.976
7509.18
-1616.06
7352.51
-2323.83
-235.861
-1499.99
-10318.7
296.585
-8676.85
512.598
1026.53
2221.38
10712.8
23022.4
-3281.21
24916.7
-5222.11
11037.6
-5624.78
-1454.78
-3579.94
-15851.6
-2696.83
-1785.31
-1286.9
-16200.7
-123.524
-17576.8
1715.18
-16951
3819.71
-11815.7
3399.2
-2558.19
461.778
6233.46
-2570.49
10541.5
-4252.55
9034.57
-4526.41
38.0087
-3579.66
-11265.5
-840.234
-11416.3
-315.014
501.314
1837.43
8560.39
24180.2
-3658.92
28575.6
-6006.44
13385.1
-6443.33
-1017.96
-3919.43
-18375.6
-2746.95
-2957.85
-1420.48
-17527.2
-381.02
-18616.3
1217.25
-18549.3
2752.97
-13351.5
741.711
-547.021
-2716.91
9692.05
-4965.64
12790.2
-6189.95
10258.9
-6394.83
242.811
-5424.76
-12235.6
-2499.17
-14341.9
-578.522
-1419.38
1494.3
6487.54
24554.9
-4089.93
32665.5
-6910.9
16206
-7359.51
-569.371
-4187.77
-21547.3
-2610.52
-4535.11
-1348.28
-18789.5
-482.468
-19482.1
582.32
-19614.1
781.273
-13550.4
-1909.81
2144.04
-4686.36
12468.6
-6434.93
14538.7
-7532.7
11356.6
-7789.16
499.291
-6997.41
-13027.3
-4365.1
-16974.2
-1615.62
-4168.83
1146.04
3725.89
24413.3
-4625.05
37290.5
-7959.02
19540
-8382.23
-146.231
-4312.33
-25617.2
-2153.86
-6693.61
-996.455
-19946.9
-359.386
-20119.2
106.503
-20080
-650.519
-12793.5
-3428.63
4922.11
-5721.39
14761.4
-7316.8
16134.1
-8330.93
12370.7
-8648.14
816.433
-8131.5
-13544
-5816.21
-19289.5
-2790.52
-7194.55
809.954
125.384
24508
-5336.3
42626.8
-9194.47
23398.1
-9549.38
208.675
-4258.5
-30908.1
-1254.1
-9698
-292.023
-20909
44.2757
-20455.5
-27.1861
-20008.6
-1328.78
-11491.9
-4140.6
7733.94
-6241.97
16862.7
-7737.52
17629.7
-8693.03
13326.3
-9106.22
1229.64
-8848.38
-13801.8
-6933.36
-21204.5
-3807.26
-10320.6
480.534
-4162.38
23280.6
-6270.48
48897.3
-10649.8
27777.5
-10933.1
491.927
-4295.51
-37545.7
-122.347
-13871.2
742.138
-21773.5
736.447
-20449.8
211.017
-19483.2
-1542.63
-9738.27
-4439.48
10630.8
-6419.79
18843
-7846.43
19056.3
-8891.06
14370.9
-9436.64
1775.15
-9287.85
-13950.6
-7726.46
-22765.9
-4962.82
-13084.3
-822.768
-8302.46
26156.8
-7418.04
56315.3
-12289
32648.5
-12551.3
754.174
-4803.14
-45293.9
743.472
-19417.8
1955.41
-22985.4
1710.84
-20205.2
798.578
-18570.9
-1459.7
-7480
-4487.63
13658.7
-6371.04
20726.4
-7841.21
20526.5
-9091.33
15621
-9691.12
2374.97
-9517.1
-14124.6
-8115.83
-24167.2
-5780.27
-15419.8
-2312.11
-11770.6
29495.5
-8726.79
65042.1
-14037.8
37959.4
-14329.6
1045.94
-5691.21
-53932.3
1209.88
-26318.9
3165.15
-24940.7
2938.9
-19979
1649.46
-17281.5
-1186.35
-4644.26
-4365.79
16838.1
-6217.07
22577.7
-7811.65
22121.1
-9121.3
16930.6
-9541.79
2795.4
-9347.35
-14319.1
-8167.98
-25346.6
-6258.59
-17329.2
-3118.73
-14910.5
31159.1
-10140.6
75182.8
-15849.6
43668.4
-16174.7
1371.05
-6664.91
-63442
1455.13
-34438.9
4224.59
-27710.2
4265.9
-20020.3
2602.4
-15618
-828.328
-1213.55
-4139.95
20149.7
-6030.45
24468.2
-7676.55
23767.2
-8701.71
17955.8
-8754.01
2847.72
-8615.33
-14457.8
-7749.35
-26212.5
-6221.24
-18857.3
-3073.28
-18058.4
31446.6
-11645.5
86828.3
-17670.9
49693.7
-18005.6
1705.67
-7584.51
-73863.1
1618.91
-43642.3
5078.63
-31169.9
5475.56
-20417.3
3430.84
-13573.3
-682.882
2900.1
-3855.54
23322.4
-5797.64
26410.3
-7303.63
25273.2
-7815.95
18468.1
-7570.9
2602.59
-7507.35
-14521.3
-6827.39
-26892.5
-5655.24
-20029.5
-2612.49
-21101.1
31682.3
-13144.6
99972.9
-19421
55970.2
-19746.9
2031.57
-8406.5
-85203.5
1743.14
-53792
5697.91
-35124.7
6397.77
-21117.1
4018.09
-11193.7
-574.387
7492.61
-3521.64
26269.6
-5459.74
28348.4
-6675.09
26488.5
-6795.5
18588.5
-6495.33
2302.48
-6379.54
-14637.1
-5577.4
-27694.6
-4467.64
-21139.2
-1656.29
-23912.5
31913.7
-14958.9
-21032.4
-21353
-9123.18
1813.02
6042.96
6923.28
4424.41
-350.481
-3128.06
-4981.31
-5898.43
-5952.08
-5711.76
-5325.68
-4297.02
-2861.55
-122.896
-678.405
1653.4
-1101.06
1397.65
-1532.81
1406.75
-1879.61
1321.8
-2187.14
1282.53
-2444.08
1231.94
-2658.36
1189.27
-2829.33
1145.97
-2958.46
1104.14
-3045.69
1062.23
-3090.81
1020.11
-3092.97
977.166
-3050.67
932.696
-2959.99
884.323
-2810.15
825.154
-2576.7
741.555
-2215.18
613.482
-1666.13
425.947
-903.674
212.542
71.3264
-196.082
1849.49
-436.902
1638.47
-692.832
1662.68
-902.971
1531.94
-1103.07
1482.63
-1267.67
1396.54
-1407.44
1329.05
-1517.27
1255.8
-1600.48
1187.34
-1657.26
1119.01
-1688.9
1051.75
-1694.97
983.244
-1674.01
911.731
-1622.46
832.771
-1531.41
734.108
-1379.46
589.604
-1138.41
372.427
-785.218
72.7576
-386.254
-186.423
-314.927
-120.372
1969.86
-266.88
1784.98
-376.236
1772.03
-440.972
1596.67
-495.333
1536.99
-514.179
1415.39
-516.96
1331.83
-495.712
1234.55
-457.315
1148.94
-401.435
1063.13
-330.765
981.077
-245.434
897.913
-145.874
812.17
-33.6801
720.576
84.9219
615.505
195.492
479.034
272.465
295.452
249.31
95.9116
129.95
-67.0637
-184.978
6.00789
1963.85
-17.7168
1808.7
-20.9991
1775.31
-16.5181
1592.19
-12.0927
1532.56
3.48724
1399.8
17.669
1317.65
36.1382
1216.08
55.6925
1129.38
84.5551
1034.27
131.144
934.488
200.49
828.566
289.754
722.906
399.743
610.586
537.103
478.145
685.48
330.657
770.911
210.021
675.284
191.538
396.948
211.272
211.97
-33.0489
1996.9
-83.0615
1858.72
-125.421
1817.67
-181.644
1648.42
-238.544
1589.46
-302.675
1463.93
-376.717
1391.69
-459.542
1298.91
-549.046
1218.89
-629.593
1114.82
-681.715
986.61
-691.246
838.097
-658.551
690.21
-584.454
536.489
-469.864
363.554
-331.628
192.42
-187.45
65.8429
-29.0567
33.1432
51.9597
130.254
263.93
-36.3359
2033.23
-129.741
1952.12
-196.473
1884.4
-271.949
1723.89
-348.671
1666.18
-428.372
1543.64
-514.944
1478.26
-604.586
1388.55
-700.436
1314.74
-796.13
1210.51
-886.24
1076.72
-958.379
910.236
-1004.74
736.571
-1027.17
558.919
-1039.68
376.061
-1046.74
199.48
-1021.5
40.6046
-866.215
-122.141
-486.903
-249.059
-222.972
84.3251
1948.91
-14.7283
2051.18
-46.562
1916.24
-68.6265
1745.96
-84.2473
1681.8
-97.3362
1556.73
-103.191
1484.12
-102.114
1387.47
-95.2139
1307.84
-91.4631
1206.76
-101.375
1086.63
-128.811
937.672
-165.806
773.566
-207.085
600.197
-251.097
420.072
-284.696
233.078
-284.107
40.0158
-302.541
-103.708
-264.519
-287.081
-487.491
210.808
1738.1
170.476
2091.51
181.499
1905.21
219.794
1707.66
276.343
1625.26
331.755
1501.31
401.326
1414.55
477.232
1311.57
564.692
1220.38
650.409
1121.04
721.765
1015.28
762.1
897.337
766.048
769.618
731.621
634.624
655.942
495.751
537.02
352.001
372.661
204.375
234.705
34.2482
97.099
-149.475
-390.392
221.485
1516.61
240.06
2072.93
261.646
1883.63
309.688
1659.62
378.406
1556.54
443.051
1436.67
515.134
1342.46
588.224
1238.48
666.946
1141.66
744.156
1043.83
812.997
946.435
862.443
847.891
883.988
748.073
871.833
646.778
822.923
544.661
735.077
439.846
606.891
332.561
430.987
210.151
215.891
65.6202
-174.501
151.641
1364.97
198.831
2025.74
231.227
1851.23
276.958
1613.89
338.538
1494.96
397.573
1377.63
458.563
1281.47
517.12
1179.92
574.546
1084.23
627.281
991.097
672.45
901.267
706.241
814.099
725.662
728.653
727.912
644.527
709.523
563.05
662.162
487.207
573.211
421.512
426.056
357.306
218.479
273.197
43.9782
55.5414
1309.43
107.576
1973.71
162.628
1796.18
219.568
1556.95
284.066
1430.46
350.605
1311.1
418.408
1213.67
487.06
1111.27
556.283
1015.01
626.769
920.612
698.528
829.508
771.694
740.933
843.702
656.646
905.486
582.743
938.07
530.465
912.587
512.691
803.913
530.186
598.48
562.738
317.187
554.49
361.165
-54.9201
1364.35
5.18262
1913.61
81.3289
1720.03
126.187
1512.09
159.994
1396.65
188.222
1282.87
220.723
1181.17
267.443
1064.55
335.753
946.698
432.014
824.352
558.768
702.754
713.506
586.196
881.241
488.911
1030.52
433.461
1114.89
446.1
1088.3
539.283
928.535
689.948
651.114
840.159
318.437
887.167
679.602
-184.735
1549.09
-221.963
1950.83
-227.87
1725.94
-290.988
1575.21
-389.379
1495.04
-506.179
1399.67
-617.779
1292.77
-709.978
1156.75
-774.326
1011.05
-808.763
858.788
-812.093
706.085
-783.103
557.205
-720.913
426.721
-623.434
335.982
-487.329
309.996
-314.31
366.264
-131.442
507.08
4.43384
704.283
36.9272
854.673
716.529
-38.0097
1587.1
-179.757
2092.58
-351.371
1897.56
-513.995
1737.84
-685.513
1666.56
-873.663
1587.82
-1069.1
1488.21
-1264.26
1351.9
-1455.51
1202.3
-1643.26
1046.54
-1827.2
890.029
-1999.75
729.753
-2141.06
568.031
-2214.96
409.883
-2171.29
266.324
-1963.75
158.728
-1574.21
117.537
-1021.78
151.858
-411.346
244.236
305.184
376.791
1210.31
454.107
2015.27
275.504
2076.16
88.8829
1924.46
-45.9119
1801.36
-158.32
1700.23
-269.899
1599.79
-392.234
1474.24
-523.726
1333.79
-660.874
1183.69
-801.221
1030.38
-943.424
871.957
-1083.8
708.405
-1213.69
539.773
-1316.48
369.114
-1361.95
204.196
-1303.24
58.8296
-1080.81
-70.5712
-611.01
-225.561
-305.827
620.546
589.762
940.573
1695.24
901.072
2115.66
784.566
2040.96
725.675
1860.25
715.158
1710.75
721.731
1593.21
719.08
1476.89
699.739
1353.13
662.932
1220.5
610.607
1082.7
541.444
941.12
453.028
796.822
343.313
649.489
213.094
499.333
74.1268
343.164
-43.832
176.791
-65.922
-48.4788
-104.716
-186.766
-410.543
377.618
212.145
518.829
1554.03
532.331
2102.16
536.437
2036.86
569.102
1827.58
629.429
1650.42
704.329
1518.31
777.975
1403.24
841.116
1289.99
889.029
1172.58
920.224
1051.51
932.992
928.353
924.755
805.059
891.87
682.375
830.037
561.165
734.547
438.655
597.675
313.663
376.227
172.97
184.123
5.33793
-226.42
-13.3549
225.5
-80.2555
1620.93
-29.5404
2051.44
71.9283
1935.39
176.902
1722.61
280.817
1546.5
384.146
1414.98
482.843
1304.55
571.481
1201.35
645.283
1098.78
700.856
995.934
735.243
893.966
746.136
794.167
731.604
696.907
690.133
602.637
620.208
508.58
519.507
414.365
381.673
310.804
197.078
189.934
-29.3415
-70.8436
296.344
-157.665
1707.75
-106.058
1999.84
-17.132
1846.46
75.3246
1630.15
168.297
1453.53
262.762
1320.52
354.551
1212.76
438.415
1117.49
510.097
1027.1
566.576
939.456
607.323
853.219
631.157
770.334
636.846
691.218
624.426
615.057
590.602
542.406
526.28
478.688
409.744
427.341
224.422
375.258
195.08
-102.187
45.9418
289.737
496.098
659.404
791.471
901.531
992.156
1063.22
1113.66
1140.09
1145.57
1108.93
1049.08
967.992
865.833
737.356
566.47
332.978
)
;

boundaryField
{
    outletWallLeft
    {
        type            calculated;
        value           nonuniform List<scalar> 
40
(
-1175.3
-1467.17
-1757.83
-2052.46
-2356.19
-2664.6
-2976.1
-3285.1
-3599.2
-3901.12
-4237.35
-4504.43
-4924.94
-4954.11
-5992.13
-4715.37
-8964.62
138.99
-20275.4
22086.2
269368
-141388
-132115
-16440.8
-29419.2
3688.88
15709.2
31858.6
48545.6
58495.8
60004.3
55157.3
37874.4
-8098.8
-28229.8
-37563
-62819.4
-222288
-353926
552155
)
;
    }
    fineWallsLeft
    {
        type            calculated;
        value           uniform 0;
    }
    fineFrontAndBackLeft
    {
        type            calculated;
        value           nonuniform List<scalar> 
880
(
-6.38017e-10
3.60449e-11
-4.64543e-11
-2.91036e-12
-1.35557e-11
3.2084e-12
-5.14595e-13
-2.03083e-12
-1.13589e-12
-1.31724e-12
-9.13277e-12
-1.9747e-12
-7.62149e-12
-5.96107e-12
-1.80311e-12
-6.03033e-12
-1.20732e-12
-2.72507e-12
2.71656e-12
1.86505e-12
5.50107e-13
4.20566e-12
7.46196e-13
5.81831e-13
5.54074e-13
6.29689e-13
3.67705e-13
4.43102e-13
4.52533e-13
6.11816e-13
6.81204e-13
-3.35599e-12
4.03193e-13
3.38901e-13
2.96075e-13
2.6792e-13
1.68758e-13
1.06116e-14
1.89431e-15
-5.90967e-14
-1.88207e-11
-1.7889e-12
-1.3911e-12
-4.44253e-12
-7.80769e-13
-5.88472e-13
-2.65443e-13
2.80098e-12
9.44867e-13
1.64229e-12
1.3223e-11
1.93771e-12
1.76254e-12
1.39328e-12
9.85014e-12
2.13481e-12
2.3795e-12
2.45897e-12
1.58731e-11
2.52573e-12
2.7253e-11
1.31238e-10
2.06142e-10
1.81946e-10
8.8354e-11
5.76914e-11
4.6705e-11
3.94694e-11
2.89056e-12
-8.17251e-12
-1.06222e-11
-1.01122e-11
-8.04648e-12
-1.15999e-11
-1.31731e-11
-1.21732e-11
-1.08812e-11
-1.0606e-11
1.10751e-11
3.30821e-11
1.56912e-10
2.47342e-10
2.19054e-10
1.08547e-10
6.50719e-11
4.75697e-11
3.78804e-11
1.88448e-12
-8.68375e-12
-1.05947e-11
-8.79325e-12
-8.22307e-12
-1.45656e-11
-1.48553e-11
-1.34378e-11
-1.08706e-11
-1.16539e-11
1.30128e-11
3.88903e-11
1.85598e-10
2.96583e-10
2.65457e-10
1.37324e-10
7.95488e-11
5.33698e-11
3.68791e-11
9.3832e-13
-8.98122e-12
-1.04395e-11
-7.71904e-12
-8.83644e-12
-1.66171e-11
-1.5908e-11
-1.39597e-11
-9.75879e-12
-1.04122e-11
1.26441e-11
4.45077e-11
2.17225e-10
3.57447e-10
3.24067e-10
1.77483e-10
1.02962e-10
6.66463e-11
3.6777e-11
5.63438e-13
-9.0293e-12
-1.02916e-11
-6.97279e-12
-9.56172e-12
-1.79484e-11
-1.64839e-11
-1.37424e-11
-7.57506e-12
-7.76981e-12
1.03353e-11
4.96727e-11
2.5171e-10
4.34446e-10
3.96436e-10
2.31268e-10
1.36027e-10
8.82671e-11
3.85294e-11
7.95774e-13
-8.702e-12
-1.02325e-11
-6.55072e-12
-1.02246e-11
-1.87376e-11
-1.65309e-11
-1.24157e-11
-4.44128e-12
-4.77618e-12
5.83315e-12
5.40251e-11
2.88567e-10
5.30472e-10
4.80806e-10
2.99568e-10
1.79787e-10
1.1879e-10
4.37987e-11
1.26154e-12
-7.71311e-12
-1.02916e-11
-6.4273e-12
-1.07355e-11
-1.9095e-11
-1.59546e-11
-9.58387e-12
-6.79965e-13
-1.68856e-12
-3.71073e-12
5.71802e-11
3.25387e-10
6.36321e-10
5.71307e-10
3.80253e-10
2.35631e-10
1.59788e-10
5.34968e-11
1.53192e-12
-6.02393e-12