/*--------------------------------*- C++ -*----------------------------------*\
| =========                 |                                                 |
| \\      /  F ield         | OpenFOAM: The Open Source CFD Toolbox           |
|  \\    /   O peration     | Version:  4.1                                   |
|   \\  /    A nd           | Web:      www.OpenFOAM.org                      |
|    \\/     M anipulation  |                                                 |
\*---------------------------------------------------------------------------*/
FoamFile
{
    version     2.0;
    format      ascii;
    class       volVectorField;
    location    "26";
    object      U;
}
// * * * * * * * * * * * * * * * * * * * * * * * * * * * * * * * * * * * * * //

dimensions      [0 1 -1 0 0 0 0];

internalField   nonuniform List<vector> 
1680
(
(-1.75581e-13 -564.86 -613.049)
(2.60487e-14 113.596 105.244)
(-1.27841e-14 -193.612 -12.3251)
(-2.10324e-15 4.53316 18.5723)
(-3.73051e-15 -74.2576 14.3676)
(8.82944e-16 -19.4919 5.93742)
(-3.71884e-16 -30.814 7.96219)
(-5.58881e-16 -31.1496 6.98686)
(-3.12594e-16 -30.1847 1.79087)
(-9.51938e-16 -23.9432 1.71833)
(-2.51332e-15 -32.3687 0.212599)
(-1.42706e-15 -20.5304 -1.75397)
(-2.09742e-15 -26.7415 -5.68575)
(-1.64047e-15 -20.3925 -9.19218)
(-1.30306e-15 -16.0005 -7.07532)
(-1.65953e-15 -20.7005 -8.90229)
(-8.72497e-16 -12.165 -3.36306)
(-7.49934e-16 -16.1889 -1.58939)
(7.4759e-16 -10.0007 3.51678)
(1.34782e-15 -16.4381 7.02687)
(2.25685e-15 -11.9762 13.2295)
(1.68648e-15 -22.879 15.8194)
(3.06132e-15 -11.0883 17.382)
(2.387e-15 -12.0275 16.7606)
(2.27312e-15 -11.5444 16.2722)
(2.58334e-15 -11.7402 15.6141)
(1.50853e-15 -11.5823 14.963)
(1.81785e-15 -11.5505 14.4657)
(1.85655e-15 -11.5677 14.2468)
(2.51002e-15 -11.4572 14.3286)
(2.79468e-15 -10.9198 14.6088)
(-1.34576e-15 -17.966 12.4147)
(1.65413e-15 -8.82878 13.6146)
(1.39036e-15 -10.0978 13.0795)
(1.21467e-15 -9.45475 12.6)
(1.09916e-15 -9.70856 12.2029)
(6.92342e-16 -9.64438 12.0265)
(4.35347e-17 -9.69998 12.026)
(7.77153e-18 -8.99137 11.1512)
(-2.42448e-16 -9.94553 8.20101)
(-6.55203e-15 -12.9812 12.71)
(-2.87373e-15 -8.78008 8.44392)
(-2.34462e-15 -9.66407 8.81341)
(-1.54657e-15 -11.3202 9.21445)
(-1.25425e-15 -8.54936 5.61771)
(-9.45337e-16 -9.81061 4.30174)
(-4.26414e-16 -8.96241 2.60138)
(9.75102e-16 -11.3529 -0.817579)
(1.51786e-15 -7.73332 -1.31517)
(2.63822e-15 -7.78008 -3.53994)
(4.6033e-15 -8.99174 -6.96126)
(3.11279e-15 -6.30077 -4.03656)
(2.83139e-15 -6.68949 -4.91146)
(2.23821e-15 -5.71278 -4.89582)
(3.10809e-15 -7.60909 -6.04631)
(3.42942e-15 -5.00825 -3.31814)
(3.82249e-15 -5.42952 -4.085)
(3.95016e-15 -4.57698 -4.06878)
(5.52589e-15 -6.48421 -4.42983)
(4.0574e-15 -4.38188 -1.77218)
(6.05623e-15 -40.9708 14.6748)
(2.91641e-14 -21.7175 36.3888)
(4.58094e-14 -0.754949 42.5604)
(4.04325e-14 34.5915 29.3827)
(1.96342e-14 23.4565 2.77188)
(1.28203e-14 13.8391 -8.45988)
(1.03789e-14 7.49694 -11.9932)
(8.77098e-15 2.42853 -12.1654)
(6.42346e-16 -4.87534 -2.61209)
(-1.81611e-15 -10.1258 2.89884)
(-2.36049e-15 -10.3631 6.16466)
(-2.24716e-15 -9.26422 8.34947)
(-1.78811e-15 -6.2265 8.79959)
(-2.57775e-15 -0.647344 8.43365)
(-2.92736e-15 5.10721 8.84173)
(-2.70516e-15 9.76052 4.53102)
(-2.41805e-15 7.79758 7.16777)
(-2.3569e-15 9.33834 -4.32261)
(2.46114e-15 -10.6763 -0.83012)
(7.35159e-15 -46.856 12.3125)
(3.48694e-14 -24.0241 39.3796)
(5.49649e-14 -0.828267 44.2662)
(4.86786e-14 39.0472 30.5585)
(2.41216e-14 27.4189 2.97544)
(1.44604e-14 15.2817 -9.13695)
(1.0571e-14 7.7559 -12.1336)
(8.41787e-15 1.66297 -12.0432)
(4.18773e-16 -6.42496 -2.52417)
(-1.92972e-15 -10.9313 2.06066)
(-2.35438e-15 -10.906 5.2233)
(-1.95406e-15 -9.47807 7.00258)
(-1.82735e-15 -6.31698 7.56552)
(-3.23681e-15 -0.568595 7.48436)
(-3.30118e-15 5.4451 7.61054)
(-2.98618e-15 10.0857 1.8673)
(-2.4157e-15 8.45038 6.66824)
(-2.58975e-15 10.5044 -7.51965)
(2.89173e-15 -10.789 -5.24337)
(8.64228e-15 -52.8381 9.28159)
(4.1244e-14 -26.6192 42.1447)
(6.59074e-14 -0.834153 45.1343)
(5.89904e-14 43.6916 30.744)
(3.05165e-14 31.5832 2.94852)
(1.76775e-14 16.7595 -10.717)
(1.186e-14 7.87833 -13.0296)
(8.19535e-15 0.902012 -11.9543)
(2.08515e-16 -7.8642 -2.55987)
(-1.99583e-15 -11.6358 1.17599)
(-2.31988e-15 -11.396 4.15544)
(-1.71534e-15 -9.67834 5.65585)
(-1.96365e-15 -6.45523 6.50984)
(-3.69269e-15 -0.479716 6.62395)
(-3.53512e-15 5.95465 6.80346)
(-3.10215e-15 10.3238 -0.641593)
(-2.16862e-15 9.1392 6.81116)
(-2.31383e-15 12.2505 -9.94634)
(2.80981e-15 -11.0064 -10.5796)
(9.8906e-15 -58.8553 5.56972)
(4.82722e-14 -29.425 44.4715)
(7.94326e-14 -0.712884 44.654)
(7.20149e-14 48.4796 29.2725)
(3.94406e-14 35.9339 2.23752)
(2.28805e-14 18.351 -13.2403)
(1.48103e-14 7.8026 -15.127)
(8.17266e-15 -0.0949028 -12.1014)
(1.25208e-16 -9.18092 -2.89294)
(-2.00651e-15 -12.2529 0.292695)
(-2.28702e-15 -11.841 3.00782)
(-1.54951e-15 -9.89219 4.36881)
(-2.12483e-15 -6.65552 5.61677)
(-3.98854e-15 -0.397228 6.12402)
(-3.66309e-15 6.62785 6.32398)
(-3.05388e-15 10.4388 -1.99854)
(-1.68335e-15 9.8328 8.07321)
(-1.72662e-15 14.5966 -12.0808)
(2.29672e-15 -11.7275 -14.332)
(1.10384e-14 -64.8285 1.11385)
(5.59355e-14 -32.3167 46.171)
(9.65435e-14 -0.373208 42.1114)
(8.80968e-14 53.3679 25.3823)
(5.13929e-14 40.3543 0.227195)
(3.02282e-14 20.0781 -16.3664)
(1.96149e-14 7.50079 -18.1396)
(8.56209e-15 -1.3651 -12.6916)
(1.76839e-16 -10.4065 -3.63624)
(-1.93378e-15 -12.8113 -0.531258)
(-2.27389e-15 -12.2439 1.83994)
(-1.45572e-15 -10.1408 3.15617)
(-2.27213e-15 -6.94684 4.86015)
(-4.16392e-15 -0.317579 5.74319)
(-3.67354e-15 7.32718 5.69502)
(-2.75905e-15 10.2862 -1.17033)
(-9.8695e-16 10.727 10.587)
(-1.06137e-15 17.306 -14.4799)
(1.29626e-15 -13.9569 -13.6971)
(1.20056e-14 -70.6184 -4.13196)
(6.4126e-14 -35.1086 47.1007)
(1.17883e-13 0.274487 36.8202)
(1.06846e-13 58.291 18.5422)
(6.65707e-14 44.5987 -3.67845)
(3.99526e-14 21.8325 -19.9556)
(2.63979e-14 6.98097 -21.4818)
(9.73305e-15 -2.88071 -13.8728)
(2.80341e-16 -11.6281 -4.87567)
(-1.71403e-15 -13.3589 -1.34335)
(-2.28702e-15 -12.6071 0.727729)
(-1.42829e-15 -10.4345 2.01286)
(-2.38567e-15 -7.31472 4.16268)
(-4.24332e-15 -0.23781 4.84835)
(-3.54547e-15 7.76511 4.78118)
(-2.12975e-15 9.73003 2.15717)
(-1.51103e-16 12.1233 13.3987)
(-3.75236e-16 19.8593 -17.0263)
(-8.24606e-16 -17.217 -8.3763)
(1.27067e-14 -76.0195 -10.2205)
(7.23083e-14 -37.6312 47.3276)
(1.41405e-13 1.32279 29.0011)
(1.26957e-13 63.1461 8.82208)
(8.45007e-14 48.3833 -9.85317)
(5.23624e-14 23.4013 -24.3033)
(3.55084e-14 6.23231 -24.9233)
(1.18882e-14 -4.59123 -15.5265)
(3.40426e-16 -12.9032 -6.63869)
(-1.33865e-15 -13.9489 -2.43647)
(-2.2596e-15 -12.939 -0.301975)
(-1.46427e-15 -10.762 0.940569)
(-2.45814e-15 -7.68336 3.4408)
(-4.2352e-15 -0.157925 3.12189)
(-3.20583e-15 7.62545 4.2211)
(-1.14851e-15 8.81756 7.30018)
(7.90275e-16 14.2064 15.2908)
(4.47176e-16 22.0272 -19.1253)
(-2.66501e-15 -20.7547 -3.57361)
(1.30865e-14 -80.9854 -17.1962)
(7.9225e-14 -39.8362 47.227)
(1.59041e-13 3.23433 20.7348)
(1.46796e-13 67.8354 -2.99089)
(1.03877e-13 51.6299 -18.2659)
(6.73226e-14 24.5739 -29.7596)
(4.73121e-14 5.17878 -28.702)
(1.52212e-14 -6.45869 -17.472)
(3.50127e-16 -14.2378 -8.7906)
(-1.00253e-15 -14.6502 -4.15256)
(-2.02564e-15 -13.3053 -1.50184)
(-1.56631e-15 -11.1197 -0.0601695)
(-2.49098e-15 -7.97143 2.66568)
(-4.06318e-15 0.0459937 0.654156)
(-2.48598e-15 6.69875 5.17073)
(1.62845e-16 7.78555 12.9648)
(1.9102e-15 17.0177 15.8925)
(1.62524e-15 24.0606 -20.1624)
(-3.49223e-15 -24.8013 -3.80836)
(1.31222e-14 -85.1947 -25.1067)
(8.37769e-14 -42.0417 47.3188)
(1.65807e-13 6.56516 13.292)
(1.65936e-13 72.6618 -15.8761)
(1.23231e-13 54.2157 -28.419)
(8.36453e-14 25.2106 -36.2363)
(6.13255e-14 3.72871 -33.0183)
(1.97353e-14 -8.47614 -19.4758)
(4.3948e-16 -15.5549 -11.0238)
(-9.79295e-16 -15.4239 -6.43905)
(-1.55098e-15 -13.7682 -3.2961)
(-1.65529e-15 -11.5268 -1.11772)
(-2.48731e-15 -8.14354 1.87691)
(-3.71196e-15 0.0949296 -5.5459)
(-1.19087e-15 4.54128 8.43516)
(1.7864e-15 6.93125 18.0209)
(3.32478e-15 20.4143 15.8804)
(3.19861e-15 26.5176 -19.4646)
(-3.4363e-15 -28.2099 -8.84213)
(1.27845e-14 -89.0941 -33.9558)
(8.59479e-14 -44.3966 47.732)
(1.70111e-13 12.6099 4.81884)
(1.84647e-13 77.4765 -29.1297)
(1.40733e-13 56.1586 -39.145)
(9.87658e-14 25.2531 -42.8607)
(7.51702e-14 1.88027 -37.3712)
(2.46574e-14 -10.7402 -21.1627)
(7.79339e-16 -16.8629 -12.9854)
(-1.259e-15 -16.2314 -8.8394)
(-1.03917e-15 -14.3952 -5.73239)
(-1.59246e-15 -12.109 -2.46229)
(-2.45606e-15 -7.9924 1.18807)
(-3.40913e-15 -1.00882 -8.07966)
(7.47479e-16 1.05148 13.6193)
(3.63409e-15 6.49172 21.9921)
(4.93543e-15 24.0992 16.2329)
(4.91948e-15 29.7613 -16.1032)
(-2.43263e-15 -30.4127 -16.4336)
(1.20957e-14 -91.4324 -43.8175)
(8.63718e-14 -47.1598 48.8012)
(1.81068e-13 20.0149 -6.09875)
(2.03724e-13 82.2554 -42.6681)
(1.54077e-13 57.3839 -48.8253)
(1.08632e-13 24.6107 -47.7454)
(8.26167e-14 -0.488616 -39.7036)
(2.79193e-14 -13.128 -21.8974)
(1.41302e-15 -17.9988 -14.4226)
(-1.46059e-15 -16.8642 -10.9244)
(-6.43855e-16 -15.0256 -8.3077)
(-1.34651e-15 -12.8408 -4.04592)
(-2.43367e-15 -7.93448 0.41984)
(-1.44154e-15 -1.25224 1.46528)
(2.8735e-15 -1.6674 18.674)
(5.38283e-15 6.51197 24.6878)
(6.28719e-15 27.7051 17.3947)
(6.38734e-15 33.8597 -10.1426)
(-9.9744e-16 -31.7283 -23.5815)
(1.11208e-14 -94.9602 -54.6559)
(8.5173e-14 -49.4322 50.5146)
(1.98041e-13 29.0598 -19.8007)
(2.2301e-13 86.6259 -56.2331)
(1.60504e-13 57.5451 -55.6497)
(1.07606e-13 23.1981 -47.922)
(8.14585e-14 -3.33584 -38.5935)
(2.87902e-14 -15.6588 -21.3649)
(2.22654e-15 -19.1377 -15.2137)
(-1.22155e-15 -17.544 -12.543)
(-2.84991e-16 -15.8342 -10.4386)
(-1.01957e-15 -13.8875 -5.54661)
(-2.40699e-15 -8.85659 -0.382904)
(-7.1861e-16 -3.34234 4.1194)
(4.37105e-15 -3.62356 20.7286)
(6.33314e-15 6.71932 24.9119)
(6.71993e-15 30.872 18.3791)
(7.41725e-15 38.7902 -2.63659)
(1.69167e-16 -31.6152 -28.1947)
(1.01297e-14 -93.1974 -66.224)
(8.22811e-14 -52.1951 53.5061)
(2.19311e-13 39.9981 -36.2307)
(2.40612e-13 89.989 -68.8841)
(1.56588e-13 56.0123 -57.6425)
(8.96014e-14 21.0694 -39.7675)
(7.30205e-14 -5.81617 -33.8286)
(2.78005e-14 -17.5227 -19.7379)
(3.02698e-15 -19.6437 -15.3664)
(-5.42605e-16 -17.6824 -13.6655)
(1.561e-16 -16.2785 -11.7517)
(-7.2902e-16 -14.7292 -6.44373)
(-2.4056e-15 -9.85278 -1.11988)
(-3.54736e-16 -5.26082 4.56473)
(5.078e-15 -5.25997 19.6311)
(5.38278e-15 7.00129 19.1334)
(5.69295e-15 33.1653 16.4674)
(8.22744e-15 44.0415 5.11916)
(8.18286e-16 -31.9414 -28.9353)
(8.84936e-15 -101.243 -76.5891)
(7.63087e-14 -52.5201 54.7677)
(2.4437e-13 52.2662 -55.0305)
(2.53848e-13 91.4754 -79.0263)
(1.394e-13 51.8145 -53.0441)
(5.38048e-14 18.2092 -21.5638)
(5.81484e-14 -7.65451 -25.1353)
(2.5223e-14 -19.4689 -17.0349)
(3.58148e-15 -20.6969 -14.9064)
(2.63222e-16 -18.6493 -14.2509)
(6.32116e-16 -17.6012 -12.1469)
(-5.45375e-16 -16.2738 -6.5758)
(-2.45333e-15 -11.4227 -1.86565)
(-3.59094e-16 -7.63463 3.32103)
(4.8351e-15 -6.50121 14.5951)
(1.98057e-15 6.88275 4.87701)
(3.2089e-15 33.5808 9.45539)
(9.22901e-15 48.6155 12.6019)
(1.11155e-15 -30.2507 -28.9969)
(9.11617e-15 -83.673 -89.1833)
(6.96959e-14 -56.5031 60.2781)
(2.7421e-13 65.1741 -76.6791)
(2.59983e-13 90.1417 -84.7257)
(1.09344e-13 44.3572 -41.5701)
(1.57483e-14 14.9692 0.452476)
(4.35468e-14 -6.96263 -15.9479)
(2.16977e-14 -18.8781 -13.9881)
(3.71324e-15 -19.484 -14.0515)
(8.70771e-16 -17.4286 -14.1843)
(9.99835e-16 -17.0699 -11.4608)
(-4.90335e-16 -16.165 -5.84686)
(-2.55069e-15 -11.4349 -2.36365)
(-7.24906e-16 -8.18868 1.19889)
(4.46326e-15 -5.50594 8.78699)
(-1.61441e-15 6.65845 -8.52217)
(2.81688e-16 31.4883 -0.749737)
(1.06306e-14 52.3086 20.4707)
(1.27961e-15 -32.6032 -29.7603)
(3.12541e-15 -124.796 -92.6339)
(5.94704e-14 -46.976 60.445)
(3.10623e-13 79.8419 -102.07)
(2.56388e-13 85.4541 -83.8095)
(7.23533e-14 34.8559 -25.9871)
(9.97437e-16 13.0031 12.6926)
(3.63148e-14 -6.22285 -9.6107)
(1.78999e-14 -21.1817 -10.5846)
(3.23276e-15 -22.3735 -12.7189)
(1.07697e-15 -21.0963 -13.3652)
(1.12056e-15 -20.9724 -9.96646)
(-5.73047e-16 -19.5075 -5.03545)
(-2.67565e-15 -14.0308 -3.25063)
(-1.71709e-15 -10.6775 -2.12339)
(4.32545e-15 -5.47504 2.36413)
(-2.99934e-15 8.11731 -11.0265)
(-1.35978e-15 28.0202 -8.20047)
(1.23405e-14 56.5138 29.4355)
(1.28167e-15 -23.9087 -28.9951)
(2.83752e-14 -25.6455 -123.574)
(5.65517e-14 -66.9088 67.8874)
(3.54621e-13 95.0281 -131.512)
(2.38621e-13 76.3746 -74.0385)
(3.66158e-14 24.8721 -11.1085)
(3.89724e-15 11.7933 14.3596)
(2.99305e-14 0.189198 -6.16623)
(1.41079e-14 -14.8074 -8.54476)
(2.56457e-15 -14.9509 -11.7733)
(1.15623e-15 -13.5963 -11.9056)
(1.15923e-15 -14.7969 -7.39487)
(-6.19084e-16 -14.1654 -3.3462)
(-2.67562e-15 -9.34773 -2.9353)
(-2.72621e-15 -7.45743 -3.84116)
(2.52496e-15 -0.390742 -4.46752)
(-4.49414e-15 8.49704 -12.776)
(-1.18333e-15 23.8302 -11.5621)
(1.40926e-14 58.0391 39.6431)
(1.13689e-15 -40.3062 -35.4279)
(-9.40747e-14 -254.26 -46.2748)
(1.07633e-14 -7.25028 100.92)
(4.01248e-13 104.068 -162.137)
(1.97388e-13 58.9555 -50.3509)
(8.09657e-15 14.6517 -0.0644)
(1.88063e-15 11.0157 16.7218)
(2.34043e-14 -7.25315 0.778562)
(9.06364e-15 -27.4111 -3.55135)
(9.99331e-16 -31.0812 -8.94386)
(4.57493e-16 -32.2005 -8.90458)
(5.84951e-16 -31.8531 -5.34234)
(-1.11167e-15 -28.2488 -4.26761)
(-2.99135e-15 -20.2244 -5.96013)
(-3.82667e-15 -14.6645 -7.75798)
(-1.05305e-15 -8.2084 -11.1875)
(-5.62665e-15 6.92602 -15.5664)
(-5.18835e-16 16.9278 -20.1239)
(1.54997e-14 53.1122 48.4717)
(1.96033e-15 6.65943 -33.9337)
(4.45719e-13 287.654 -335.67)
(2.68025e-13 -156.328 -73.2719)
(4.24184e-13 103.966 -182.274)
(1.18679e-13 49.5297 -5.18211)
(-5.17762e-15 12.219 6.81091)
(-1.05556e-15 16.4567 17.553)
(1.06643e-14 21.3229 6.1107)
(7.69076e-15 5.00342 -8.70939)
(2.64622e-15 8.30452 -12.395)
(2.29763e-15 9.41586 -8.62987)
(1.80068e-15 6.12109 -1.40729)
(3.60141e-16 5.06947 1.93772)
(-1.21277e-15 6.97967 1.95519)
(-2.27505e-15 3.77992 -0.0996669)
(-4.32694e-15 13.3544 -18.248)
(-5.39395e-15 14.4102 -16.6964)
(-8.30719e-16 11.4197 -44.2988)
(1.56272e-14 69.456 53.2832)
(-4.38295e-15 -101.884 -46.6195)
(-3.47503e-12 -754.323 1585.36)
(5.10473e-13 220.317 -303.745)
(3.37159e-13 185.556 -151.715)
(2.83764e-14 38.8579 34.9591)
(-4.61837e-16 18.296 5.94873)
(-1.67887e-15 11.0425 11.6084)
(-5.56232e-15 -30.0477 33.8076)
(-3.53757e-15 -57.6753 12.5314)
(-7.31362e-15 -74.7215 4.99115)
(-5.5512e-15 -81.0171 4.70004)
(-3.80609e-15 -77.8137 -3.28347)
(-6.13332e-15 -66.6829 -16.5742)
(-8.75654e-15 -48.9716 -28.5583)
(-9.42418e-15 -29.4657 -30.9621)
(-1.23673e-14 -22.0982 -49.9683)
(-3.26147e-15 12.1186 -12.5809)
(-5.56535e-16 7.53717 -49.1452)
(1.10956e-14 92.783 37.0014)
(2.40267e-14 132.676 122.573)
(4.38058e-15 7.98303 16.2277)
(2.69424e-14 11.0131 19.6182)
(1.82812e-14 9.92634 19.3261)
(1.92116e-14 9.47677 18.5783)
(1.99743e-14 9.03672 18.3524)
(2.08501e-14 8.739 18.0477)
(1.63676e-14 8.44837 17.7778)
(1.51708e-14 8.21855 17.4939)
(1.43542e-14 8.00434 17.2145)
(1.48978e-14 7.79242 16.8806)
(1.49235e-14 7.58837 16.4786)
(1.46056e-14 7.34055 16.1157)
(1.48738e-14 7.17305 15.6308)
(1.51895e-14 7.04846 15.2628)
(1.57645e-14 6.92003 14.8844)
(1.59926e-14 6.89895 14.553)
(1.56291e-14 7.15557 14.7035)
(1.67964e-14 7.36654 14.8428)
(2.03755e-14 4.7487 9.44474)
(1.34742e-14 -4.17756 -7.16764)
(2.2761e-15 5.47017 9.90524)
(3.40619e-14 9.27627 16.6226)
(2.30143e-14 8.76838 16.0463)
(2.28893e-14 8.48848 15.7949)
(2.38363e-14 8.37928 15.867)
(2.9204e-14 8.28638 15.9025)
(2.14873e-14 8.16629 15.9125)
(1.85539e-14 8.06237 15.8944)
(1.80899e-14 7.95045 15.8663)
(1.82371e-14 7.85602 15.8279)
(1.88774e-14 7.77565 15.7936)
(1.93046e-14 7.71256 15.7494)
(1.87092e-14 7.65967 15.696)
(1.7722e-14 7.60493 15.603)
(1.92419e-14 7.56011 15.4873)
(1.92431e-14 7.53214 15.3923)
(1.95144e-14 7.67907 15.5561)
(1.86173e-14 7.99594 16.1486)
(2.50693e-14 7.12952 14.2907)
(3.78298e-14 1.84794 3.66448)
(-1.05594e-16 5.71191 10.1657)
(1.25951e-14 9.64854 16.6793)
(9.65292e-15 9.2228 16.1654)
(9.65199e-15 8.99693 15.7442)
(1.04617e-14 8.92934 15.7512)
(2.30515e-14 8.90502 15.7453)
(1.02883e-14 8.84878 15.7433)
(1.0384e-14 8.8105 15.7265)
(1.10823e-14 8.758 15.7105)
(1.06526e-14 8.7149 15.6823)
(1.01638e-14 8.66166 15.6455)
(9.86522e-15 8.6121 15.6014)
(9.62017e-15 8.56483 15.5555)
(9.35245e-15 8.51778 15.5094)
(8.57279e-15 8.48052 15.4512)
(9.36717e-15 8.42673 15.381)
(9.73094e-15 8.43527 15.3725)
(9.32561e-15 8.71219 15.9419)
(9.79378e-15 8.77143 15.9605)
(1.47027e-14 4.54605 8.01877)
(1.18984e-17 5.66571 9.8429)
(-2.50563e-15 9.49431 16.3598)
(-1.87458e-15 9.09055 15.7809)
(-1.76434e-15 8.88667 15.4014)
(-1.74599e-15 8.85628 15.4196)
(1.59653e-14 8.86134 15.4272)
(1.34243e-14 8.83738 15.4393)
(1.23405e-14 8.8305 15.4396)
(1.34738e-14 8.80986 15.4447)
(1.55365e-14 8.7982 15.4428)
(1.23369e-14 8.78195 15.4429)
(1.24707e-14 8.76926 15.4392)
(1.30858e-14 8.75707 15.4299)
(1.35323e-14 8.74218 15.4215)
(1.18983e-14 8.73698 15.4036)
(1.15674e-14 8.71458 15.3838)
(1.4051e-14 8.73172 15.372)
(1.35886e-14 8.94718 15.7915)
(1.17375e-14 9.23045 16.243)
(2.20199e-14 5.41443 9.45797)
(-3.6316e-18 5.86605 10.173)
(4.01429e-16 9.52354 16.3654)
(2.88627e-16 9.10152 15.7448)
(2.75645e-16 8.91567 15.3793)
(2.80004e-16 8.89084 15.3918)
(-3.06169e-15 8.90218 15.3945)
(-2.35297e-15 8.88594 15.4037)
(-2.3277e-15 8.88717 15.4028)
(-2.41042e-15 8.87519 15.4082)
(-2.34871e-15 8.87245 15.4081)
(-2.30122e-15 8.86337 15.4101)
(-2.21148e-15 8.85749 15.41)
(-2.17738e-15 8.85205 15.4095)
(-2.1524e-15 8.84368 15.4104)
(-1.9532e-15 8.84353 15.4054)
(-2.17412e-15 8.82747 15.4029)
(-2.21684e-15 8.83871 15.3934)
(-2.16284e-15 9.01208 15.7452)
(-2.1178e-15 9.3956 16.3685)
(-3.25141e-15 5.84382 10.2224)
(1.34201e-18 6.02943 10.4234)
(-6.67697e-17 9.49278 16.3107)
(-5.01685e-17 9.04692 15.6312)
(-5.01204e-17 8.88151 15.3059)
(-5.06391e-17 8.86393 15.3213)
(4.96629e-16 8.87673 15.3248)
(3.61568e-16 8.86497 15.3346)
(3.77659e-16 8.86919 15.3357)
(3.72531e-16 8.86148 15.3429)
(3.42827e-16 8.86237 15.3455)
(3.64111e-16 8.85749 15.351)
(3.4933e-16 8.85611 15.3548)
(3.67007e-16 8.85404 15.3583)
(3.44802e-16 8.84988 15.3637)
(3.17831e-16 8.85229 15.3645)
(3.54348e-16 8.84091 15.3687)
(3.39777e-16 8.85034 15.3623)
(3.37684e-16 8.99803 15.6659)
(3.36831e-16 9.42249 16.3652)
(5.05569e-16 6.0906 10.6507)
(-3.72689e-19 6.22484 10.757)
(1.22723e-17 9.4828 16.2927)
(1.00452e-17 9.01257 15.5679)
(1.00882e-17 8.86911 15.28)
(1.06431e-17 8.85401 15.2964)
(-8.55295e-17 8.86623 15.2987)
(-6.57863e-17 8.85575 15.3075)
(-6.63717e-17 8.86023 15.3084)
(-6.40186e-17 8.8537 15.3152)
(-6.08663e-17 8.85526 15.3178)
(-6.29495e-17 8.85123 15.3233)
(-6.23166e-17 8.85079 15.3273)
(-6.52424e-17 8.84915 15.3318)
(-6.26078e-17 8.8464 15.3376)
(-6.23618e-17 8.84853 15.3401)
(-6.18083e-17 8.83942 15.3459)
(-5.99025e-17 8.84624 15.3396)
(-5.97279e-17 8.97241 15.6026)
(-6.19788e-17 9.42027 16.3453)
(-8.672e-17 6.29734 11.0108)
(6.84153e-20 6.41039 11.0694)
(-1.92515e-18 9.45646 16.2525)
(-1.72914e-18 8.9702 15.4932)
(-1.74443e-18 8.84734 15.2439)
(-1.98106e-18 8.83492 15.2615)
(1.61025e-17 8.84616 15.2635)
(1.29842e-17 8.83687 15.2721)
(1.22331e-17 8.84129 15.2734)
(1.15757e-17 8.83567 15.2801)
(1.15597e-17 8.8375 15.2831)
(1.17503e-17 8.83405 15.2889)
(1.19758e-17 8.83429 15.2931)
(1.20672e-17 8.83275 15.2982)
(1.20691e-17 8.8311 15.304)
(1.26566e-17 8.83271 15.3077)
(1.14547e-17 8.82568 15.314)
(1.15624e-17 8.8304 15.3082)
(1.13846e-17 8.93832 15.5344)
(1.21306e-17 9.39822 16.3029)
(1.53497e-17 6.48466 11.3332)
(-5.52252e-21 6.59954 11.3921)
(1.37931e-19 9.42925 16.21)
(1.61541e-19 8.93371 15.4303)
(1.7434e-19 8.83052 15.217)
(2.26908e-19 8.81973 15.2348)
(-2.58378e-18 8.82981 15.2363)
(-2.13295e-18 8.82129 15.2443)
(-1.84461e-18 8.82528 15.2457)
(-1.70382e-18 8.82017 15.2521)
(-1.76485e-18 8.82186 15.255)
(-1.80429e-18 8.81862 15.2607)
(-1.92067e-18 8.81908 15.2646)
(-1.83141e-18 8.81733 15.2699)
(-1.86633e-18 8.8164 15.2752)
(-2.07343e-18 8.81719 15.2795)
(-1.67536e-18 8.8119 15.2856)
(-1.79663e-18 8.81467 15.2803)
(-1.74096e-18 8.90577 15.4723)
(-1.87353e-18 9.36949 16.2518)
(-2.1644e-18 6.66814 11.6493)
(-1.58545e-21 6.78563 11.7084)
(4.40274e-20 9.39439 16.1551)
(2.65869e-20 8.89782 15.3686)
(2.10628e-20 8.81285 15.1892)
(1.58552e-20 8.80345 15.2068)
(2.02757e-19 8.81243 15.2081)
(1.74797e-19 8.80471 15.2156)
(1.09068e-19 8.80827 15.2172)
(8.4885e-20 8.80371 15.2233)
(1.11233e-19 8.80523 15.2263)
(1.0367e-19 8.80225 15.2318)
(1.49233e-19 8.80287 15.2357)
(1.15876e-19 8.80095 15.2411)
(1.17343e-19 8.80071 15.246)
(1.62171e-19 8.8007 15.2508)
(6.14576e-20 8.79708 15.2565)
(1.06578e-19 8.7982 15.2522)
(9.2849e-20 8.87408 15.4124)
(1.08846e-19 9.33377 16.1899)
(9.41326e-20 6.84875 11.9599)
(9.6771e-22 6.97112 12.0244)
(-2.44374e-20 9.35477 16.0918)
(-1.89871e-20 8.86497 15.3121)
(-1.74767e-20 8.79673 15.1641)
(-1.83194e-20 8.78833 15.1809)
(5.39102e-20 8.79624 15.182)
(4.1997e-20 8.78927 15.189)
(5.32019e-20 8.79234 15.1908)
(5.58361e-20 8.78828 15.1965)
(4.55856e-20 8.78955 15.1995)
(5.50949e-20 8.78682 15.2049)
(3.99887e-20 8.7875 15.2086)
(4.86082e-20 8.78544 15.214)
(4.9783e-20 8.78576 15.2185)
(4.3862e-20 8.78497 15.2236)
(6.4415e-20 8.78291 15.2289)
(5.20631e-20 8.78255 15.2259)
(5.52138e-20 8.84473 15.3568)
(5.46651e-20 9.29273 16.1191)
(6.95946e-20 7.02821 12.2684)
(-3.30461e-22 7.15502 12.3374)
(7.78347e-21 9.30927 16.0185)
(6.45522e-21 8.83425 15.2593)
(6.17559e-21 8.78111 15.1398)
(6.72645e-21 8.7735 15.1556)
(-3.22859e-20 8.78042 15.1565)
(-2.59575e-20 8.77419 15.163)
(-2.75018e-20 8.77678 15.1651)
(-2.73492e-20 8.77325 15.1704)
(-2.38745e-20 8.77424 15.1735)
(-2.78181e-20 8.77181 15.1787)
(-2.39267e-20 8.7725 15.1822)
(-2.5952e-20 8.77036 15.1877)
(-2.61228e-20 8.77117 15.1917)
(-2.59315e-20 8.76968 15.1973)
(-2.9285e-20 8.76909 15.2021)
(-2.66271e-20 8.76743 15.2007)
(-2.70835e-20 8.81752 15.3049)
(-2.78099e-20 9.24614 16.0389)
(-3.20157e-20 7.20646 12.5747)
(9.20531e-23 7.33779 12.6485)
(-2.03935e-21 9.25838 15.9357)
(-1.74773e-21 8.80607 15.2109)
(-1.7212e-21 8.76634 15.117)
(-1.88502e-21 8.75932 15.1314)
(1.05916e-20 8.76533 15.1323)
(8.54677e-21 8.75981 15.1383)
(8.70706e-21 8.76192 15.1405)
(8.55779e-21 8.75892 15.1455)
(7.54494e-21 8.7596 15.1487)
(8.64171e-21 8.75752 15.1536)
(7.90792e-21 8.75812 15.1571)
(8.38011e-21 8.75601 15.1625)
(8.29741e-21 8.7572 15.1662)
(8.41722e-21 8.75509 15.1721)
(8.83019e-21 8.75586 15.1762)
(8.37996e-21 8.75301 15.1766)
(8.32116e-21 8.79268 15.2571)
(8.74931e-21 9.19422 15.9496)
(9.53712e-21 7.38373 12.8791)
(-2.26808e-23 7.51933 12.9574)
(4.79429e-22 9.20189 15.8433)
(4.17423e-22 8.78028 15.1666)
(4.21943e-22 8.7522 15.0952)
(4.58836e-22 8.74562 15.1081)
(-2.8169e-21 8.75082 15.109)
(-2.2729e-21 8.74599 15.1146)
(-2.26985e-21 8.74764 15.117)
(-2.24029e-21 8.74517 15.1216)
(-1.98224e-21 8.74552 15.1249)
(-2.21404e-21 8.74383 15.1295)
(-2.12942e-21 8.74428 15.133)
(-2.24004e-21 8.7423 15.1383)
(-2.18552e-21 8.74373 15.1417)
(-2.21807e-21 8.74114 15.1479)
(-2.2472e-21 8.74312 15.1514)
(-2.18947e-21 8.7392 15.1536)
(-2.11996e-21 8.77019 15.2132)
(-2.28584e-21 9.1369 15.8512)
(-2.37756e-21 7.56001 13.1815)
(5.08583e-24 7.69988 13.2645)
(-1.04305e-22 9.13991 15.7414)
(-9.11003e-23 8.75693 15.1265)
(-9.43099e-23 8.73876 15.0745)
(-1.01226e-22 8.7325 15.0858)
(6.6415e-22 8.73695 15.0868)
(5.3704e-22 8.7328 15.0919)
(5.26376e-22 8.73397 15.0945)
(5.2779e-22 8.73203 15.0987)
(4.69828e-22 8.73204 15.1021)
(5.07636e-22 8.73075 15.1063)
(5.09896e-22 8.73099 15.1099)
(5.35399e-22 8.72926 15.1149)
(5.1633e-22 8.73075 15.1182)
(5.20029e-22 8.7279 15.1245)
(5.18544e-22 8.73086 15.1275)
(5.13316e-22 8.72599 15.1316)
(4.84097e-22 8.75005 15.1733)
(5.35346e-22 9.07418 15.7437)
(5.33213e-22 7.73532 13.4818)
(-1.05772e-24 7.87975 13.5702)
(2.13175e-23 9.07249 15.6298)
(1.84973e-23 8.73613 15.0909)
(1.95631e-23 8.72617 15.055)
(2.06725e-23 8.72013 15.0647)
(-1.43565e-22 8.72387 15.0658)
(-1.17022e-22 8.72044 15.0704)
(-1.12153e-22 8.72109 15.0731)
(-1.1495e-22 8.71965 15.077)
(-1.03662e-22 8.71935 15.0804)
(-1.07925e-22 8.7184 15.0844)
(-1.12138e-22 8.71838 15.0879)
(-1.17809e-22 8.717 15.0927)
(-1.12587e-22 8.7183 15.0959)
(-1.12311e-22 8.71546 15.1022)
(-1.11734e-22 8.71908 15.1046)
(-1.11209e-22 8.71339 15.1105)
(-1.02328e-22 8.73223 15.1373)
(-1.15757e-22 9.0061 15.6274)
(-1.10811e-22 7.90969 13.7798)
(2.09713e-25 8.05937 13.8752)
(-4.15957e-24 8.99947 15.5081)
(-3.56998e-24 8.71779 15.0597)
(-3.83927e-24 8.71455 15.0366)
(-3.99957e-24 8.70877 15.0447)
(2.90085e-23 8.71173 15.0461)
(2.40283e-23 8.70915 15.0501)
(2.24327e-23 8.70928 15.0529)
(2.34563e-23 8.70829 15.0564)
(2.16777e-23 8.7078 15.0598)
(2.17576e-23 8.70711 15.0635)
(2.30913e-23 8.70685 15.0671)
(2.42949e-23 8.70587 15.0715)
(2.30247e-23 8.70672 15.0749)
(2.27853e-23 8.70427 15.0808)
(2.28671e-23 8.70798 15.0831)
(2.26312e-23 8.70175 15.0903)
(2.04303e-23 8.71696 15.1052)
(2.35261e-23 8.93307 15.5027)
(2.1713e-23 8.08318 14.0752)
(-4.15132e-26 8.23966 14.1804)
(7.96771e-25 8.92059 15.3748)
(6.80732e-25 8.70165 15.0324)
(7.35886e-25 8.70362 15.0189)
(7.63015e-25 8.6985 15.0253)
(-5.5987e-24 8.70034 15.0269)
(-4.75624e-24 8.69872 15.0302)
(-4.32114e-24 8.69839 15.033)
(-4.55621e-24 8.6977 15.0361)
(-4.38452e-24 8.69712 15.0394)
(-4.26065e-24 8.69657 15.0428)
(-4.55694e-24 8.69616 15.0463)
(-4.79866e-24 8.69556 15.0503)
(-4.505e-24 8.69586 15.054)
(-4.43842e-24 8.69425 15.0593)
(-4.5309e-24 8.69725 15.0619)
(-4.4119e-24 8.69129 15.07)
(-3.94824e-24 8.70424 15.0762)
(-4.59753e-24 8.85557 15.3705)
(-4.0926e-24 8.25515 14.3661)
(8.78013e-27 8.42319 14.4926)
(-1.57535e-25 8.83808 15.2311)
(-1.37301e-25 8.69069 15.012)
(-1.45527e-25 8.69522 15.0051)
(-1.53615e-25 8.69182 15.0089)
(1.07293e-24 8.69212 15.0105)
(9.4364e-25 8.69114 15.0126)
(8.37082e-25 8.69035 15.0148)
(8.71395e-25 8.68951 15.0171)
(8.89058e-25 8.68862 15.0196)
(8.43129e-25 8.68775 15.0224)
(8.99206e-25 8.68688 15.0254)
(9.43964e-25 8.68604 15.0287)
(8.76611e-25 8.68543 15.0321)
(8.64036e-25 8.68433 15.0364)
(9.00644e-25 8.68531 15.0397)
(8.55781e-25 8.68103 15.0469)
(7.71895e-25 8.69107 15.0483)
(9.00637e-25 8.77264 15.2324)
(7.68188e-25 8.42326 14.6449)
(-1.76521e-27 8.61058 14.8239)
(2.85241e-26 8.7527 15.0801)
(2.62625e-26 8.69281 15.0032)
(2.63799e-26 8.695 15.0014)
(2.95383e-26 8.69441 15.0021)
(-1.82024e-25 8.69407 15.0026)
(-1.66823e-25 8.69366 15.0031)
(-1.46008e-25 8.69304 15.0038)
(-1.47179e-25 8.69232 15.0046)
(-1.58971e-25 8.69143 15.0056)
(-1.49607e-25 8.69038 15.0067)
(-1.58867e-25 8.68914 15.008)
(-1.64275e-25 8.68771 15.0095)
(-1.51975e-25 8.68604 15.0113)
(-1.50238e-25 8.68416 15.0133)
(-1.5883e-25 8.68208 15.0156)
(-1.48434e-25 8.67891 15.0189)
(-1.3725e-25 8.67938 15.02)
(-1.59103e-25 8.69418 15.0844)
(-1.28232e-25 8.5934 14.8933)
(4.19089e-15 -4.45924 -1.80387)
(4.35703e-15 -5.59686 -0.519098)
(2.10198e-15 -4.31626 1.40817)
(1.13995e-15 -4.90325 1.3614)
(5.40514e-16 -4.48637 1.60751)
(1.0221e-15 -6.22604 3.36293)
(1.39569e-15 -4.8287 3.8661)
(1.91533e-15 -5.63218 3.85628)
(1.9525e-15 -5.277 3.94132)
(2.40522e-15 -7.2598 5.74571)
(1.36001e-15 -5.97519 5.03132)
(1.25079e-15 -6.28335 5.05392)
(8.40913e-16 -7.92653 7.07533)
(1.52982e-16 -6.69978 6.15973)
(-2.9863e-16 -7.67898 6.71283)
(-7.64222e-16 -7.43316 7.37338)
(-1.96327e-15 -9.9849 11.4542)
(-2.09187e-15 -8.23122 9.92146)
(-2.8891e-15 -9.19001 11.2148)
(-3.03216e-15 -12.5616 15.8686)
(5.01639e-16 -9.41245 13.7713)
(-1.1918e-15 -9.88825 13.9555)
(-1.62556e-15 -9.77613 13.5054)
(-1.7382e-15 -9.9751 13.6459)
(-9.86036e-16 -10.0146 13.9247)
(1.43334e-16 -10.1387 14.1609)
(1.30528e-15 -10.1671 14.1602)
(2.14601e-15 -10.1615 13.9293)
(2.00159e-15 -9.90897 11.6017)
(3.39212e-15 -8.78069 12.3201)
(3.56501e-15 -8.81687 12.1289)
(3.2005e-15 -8.70793 12.1319)
(2.71261e-15 -8.62381 12.1535)
(2.22606e-15 -8.49171 12.157)
(1.83647e-15 -8.34763 12.1337)
(1.56644e-15 -8.12277 12.0543)
(1.55534e-15 -7.77674 11.7122)
(1.3883e-15 -7.52498 10.4648)
(-4.24388e-16 -3.14208 -3.21512)
(-3.08528e-16 -5.21718 1.4665)
(-8.51265e-16 -3.71866 -2.08925)
(-3.79481e-16 -6.17399 -0.222085)
(2.0002e-15 -4.57477 -1.50491)
(5.26873e-15 -4.03055 -1.01776)
(1.36211e-14 -5.14585 -1.17293)
(1.37207e-14 -3.36883 -0.572268)
(1.41913e-14 -4.44815 -0.0596455)
(-1.82509e-15 -3.74201 0.458179)
(-9.4558e-15 -3.20907 0.55608)
(-1.17928e-14 -4.33862 1.05737)
(-2.9935e-15 -2.90128 0.55673)
(-7.74205e-16 -3.81157 0.334701)
(-3.15322e-15 -2.64094 -0.909473)
(-3.71298e-15 -1.97193 -1.21365)
(-3.77311e-15 -2.01637 -2.95578)
(5.51979e-15 -0.634686 -2.48916)
(2.2845e-14 0.152915 0.286124)
(3.43965e-14 -0.116159 0.203836)
(-6.38955e-16 0.339477 -0.288522)
(1.14212e-13 0.638099 0.795195)
(-1.96881e-16 -0.253574 1.23213)
(-4.04725e-16 -0.352852 5.86572)
(-4.54698e-16 0.0736174 7.40128)
(-3.59021e-16 0.536888 3.7202)
(-1.43785e-16 0.0733169 1.94819)
(-1.06355e-16 0.471012 -0.432427)
(-2.1484e-16 0.3507 -3.91718)
(-3.38368e-16 0.364295 -7.41345)
(-4.64194e-16 0.13069 -10.09)
(-5.60939e-16 -0.0490281 -10.5403)
(-6.09661e-16 -0.129288 -9.77013)
(-5.99686e-16 -0.140898 -8.54891)
(-5.63523e-16 0.0281572 -7.56226)
(-3.50269e-16 0.306541 -8.76217)
(-2.09919e-17 0.485879 -12.6217)
(2.15448e-16 0.134533 -16.4897)
(5.91869e-16 -0.626676 -15.6224)
(-2.23404e-15 -0.963388 -7.56957)
(6.61207e-14 -0.0482022 2.40146)
(-3.94693e-16 -1.10927 3.13281)
(-4.83511e-16 -0.863671 7.08981)
(-3.74053e-16 0.100693 6.25242)
(-3.93144e-16 1.21879 2.7929)
(-1.07873e-16 0.0439319 2.38751)
(3.44517e-16 1.20245 0.657596)
(2.98306e-16 0.949571 -3.30457)
(1.0962e-16 1.01443 -6.75845)
(-1.3792e-16 0.428516 -9.4744)
(-3.99896e-16 -0.00592063 -10.5207)
(-6.53836e-16 -0.22196 -10.5823)
(-8.17115e-16 -0.345437 -9.9765)
(-7.76609e-16 -0.0294172 -8.84556)
(-3.45885e-16 0.748976 -9.2239)
(2.41332e-16 1.16073 -12.4139)
(5.90303e-16 0.479871 -14.9319)
(8.81154e-16 -1.10665 -17.3886)
(-2.02726e-15 -2.53623 -13.9346)
(3.20951e-14 -1.58741 -4.19304)
(-4.80203e-16 -2.11165 3.67442)
(-4.44816e-16 -1.03969 6.51376)
(-3.62491e-16 0.46053 6.15575)
(-3.29669e-16 1.80084 2.59863)
(-2.19465e-18 -0.00478274 2.46701)
(7.29744e-16 1.84718 1.96342)