/*--------------------------------*- C++ -*----------------------------------*\
| =========                 |                                                 |
| \\      /  F ield         | OpenFOAM: The Open Source CFD Toolbox           |
|  \\    /   O peration     | Version:  4.1                                   |
|   \\  /    A nd           | Web:      www.OpenFOAM.org                      |
|    \\/     M anipulation  |                                                 |
\*---------------------------------------------------------------------------*/
FoamFile
{
    version     2.0;
    format      ascii;
    class       volScalarField;
    location    "25";
    object      p;
}
// * * * * * * * * * * * * * * * * * * * * * * * * * * * * * * * * * * * * * //

dimensions      [0 2 -2 0 0 0 0];

internalField   nonuniform List<scalar> 
1280
(
0.303424
1.02485
1.50162
1.48792
2.10431
2.57144
2.35204
2.20135
2.17073
2.12189
1.20177
0.720592
-0.167741
-2.41953
-3.3632
-6.52037
-11.9248
-13.4215
-22.2207
-31.5163
-30.0714
-20.1611
-0.911886
15.6947
24.0645
30.0214
26.1068
18.7871
24.5665
23.9523
22.5221
21.067
18.5325
15.1988
11.2921
6.96307
2.40195
-2.34304
-6.20926
-12.5912
-0.610032
2.77449
5.98317
11.3886
23.5282
22.2137
22.4694
22.7589
22.9653
22.8438
22.8285
23.1328
21.7084
20.6925
20.3149
22.3552
5.12588
0.42953
-2.83113
-15.1093
-13.7166
-6.36856
-1.94751
3.61415
8.89766
13.9938
18.6716
22.8212
26.2607
28.7152
31.023
32.7299
28.9441
37.953
46.7309
39.912
31.2079
14.4038
-5.08598
-15.5483
-16.7603
-5.40443
0.761346
4.29423
9.95685
12.7266
11.8891
12.1272
13.6347
11.8561
9.9027
9.72627
7.72295
4.69762
4.79755
4.90448
1.77097
-2.71531
-4.09219
2.19874
-0.117498
-0.123354
-0.401351
-0.668924
-1.26768
-1.63649
-2.39587
-1.00096
0.643789
0.211517
0.673537
1.70435
3.08831
5.10603
6.36951
5.86353
2.64033
0.27928
0.321454
-0.323687
-0.256346
-0.450874
-0.485397
-0.623673
-0.433706
-0.31872
0.384153
1.16951
0.506156
1.08808
2.94718
6.96588
12.6076
15.8923
14.6218
6.88795
1.42848
1.49509
-0.281808
-0.0729721
-0.271836
-0.161378
-0.202086
0.142593
0.406439
0.879031
1.55326
0.811204
1.59059
3.85809
8.93664
16.2598
20.9226
19.7261
9.51447
1.7036
2.06019
-0.274822
0.0428387
-0.187782
0.00138385
-0.0608326
0.319405
0.577849
1.13685
2.00745
1.17013
2.18402
5.00498
11.1988
20.4575
26.9017
25.3329
11.9887
1.14165
1.66096
-0.29749
0.111147
-0.122624
0.159727
0.133083
0.592497
0.932682
1.53142
2.44913
1.54169
2.76561
6.17108
13.5797
25.1193
33.6793
30.2332
13.1968
-1.44538
-1.02978
-0.30637
0.186499
-0.0405527
0.325647
0.321817
0.825377
1.21275
1.90461
2.82292
1.92288
3.33782
7.25114
15.6081
29.4517
41.1683
34.2413
11.6682
-9.74655
-7.22909
-0.309444
0.250817
0.0370556
0.468373
0.460529
0.965716
1.34312
2.22702
3.08792
2.34196
3.90136
8.22865
17.2233
32.9552
49.6562
37.0061
10.8427
-14.379
-17.6459
-0.306918
0.298849
0.111408
0.592844
0.567661
1.04549
1.37127
2.46521
3.19864
2.83332
4.45696
9.01014
18.1626
34.902
53.0848
38.6579
15.0665
-6.36401
-11.9024
-0.291602
0.332206
0.187268
0.701292
0.647556
1.06453
1.30926
2.49985
3.14336
3.40825
5.0166
9.48857
18.3278
34.6781
46.0118
35.3169
17.3785
13.5406
33.8506
-0.254871
0.350914
0.267469
0.792613
0.69965
1.02205
1.16019
2.25942
2.92179
4.05237
5.57336
9.59377
17.364
29.6928
33.8553
26.4768
17.0638
22.5955
35.4322
-0.191463
0.351171
0.353962
0.866877
0.729672
0.93968
0.939181
1.79609
2.5261
4.70876
6.08569
9.38083
15.9133
25.5548
30.356
23.8635
18.6726
23.8943
30.199
-0.0780847
0.340098
0.447282
0.922095
0.742151
0.84186
0.682511
1.31069
2.08806
5.14805
6.45177
8.89382
14.1398
21.2864
22.8283
11.0975
11.7491
22.9924
36.9393
0.0757127
0.302536
0.555325
0.970267
0.73987
0.736673
0.413328
0.877004
1.82043
5.14684
6.65631
8.14927
12.0117
16.1126
10.7628
-1.89498
7.93134
21.281
6.95865
0.354668
0.278273
0.65949
0.979495
0.705636
0.609715
0.115758
0.43813
1.7383
4.54791
6.60264
7.1493
9.80768
11.6864
3.16347
-0.00691814
6.4502
19.0372
5.57237
0.667136
0.189134
0.746768
0.975944
0.650511
0.436404
-0.213162
-0.0238526
1.55819
3.35094
6.00386
5.91002
7.8322
8.28592
-2.60332
3.44887
5.7006
16.5497
8.15824
1.146
0.0987916
0.767501
0.883682
0.470565
0.145473
-0.623218
-0.62102
0.506697
2.1499
4.82986
4.56629
5.77991
5.18783
-8.30985
1.09948
4.01421
12.5431
8.65671
1.45061
0.019029
0.655262
0.688974
0.22837
-0.264352
-1.23931
-1.49574
-1.06789
1.00006
3.24333
3.1805
4.14617
3.902
-9.50725
-3.62604
3.2097
9.74042
7.24324
1.74848
-0.356135
0.14042
0.284888
-0.261844
-0.934786
-1.87149
-2.40274
-2.01116
0.0703221
2.09737
2.1673
2.16815
1.43762
-4.68633
-5.92516
2.83474
7.17431
5.7035
1.35587
-0.523163
-0.282809
0.0548965
-0.39506
-0.972215
-1.99878
-2.81675
-2.16168
-0.651698
0.481926
0.505169
1.408
2.67109
2.78907
-7.06848
2.18297
4.85427
3.62909
0.555598
-0.486853
-1.02974
-0.483247
-0.671505
-1.10719
-1.76865
-2.03913
-1.39963
-0.23942
0.86413
1.11802
-0.621283
-4.9817
-0.824179
-8.09467
-0.302695
0.874476
0.923292
-10.6628
-12.2876
-14.0358
-16.2604
-19.8535
-24.0004
-29.1807
-33.8944
-37.5453
-39.9555
-41.157
-41.1639
-40.1182
-38.2352
-35.8141
-33.0119
-30.2369
-27.7929
-26.3801
-24.7422
2.26813
-3.01274
-7.78795
-11.7532
-15.8707
-20.5909
-25.5891
-30.8855
-36.2766
-41.5118
-46.2413
-50.231
-53.2213
-55.0604
-55.6977
-55.0097
-53.2717
-51.4755
-50.3535
-50.3976
54.9283
50.8865
47.226
44.0881
41.6264
39.391
37.3647
35.3575
33.4486
31.4032
29.1424
26.4942
23.4425
20.123
16.8392
13.9926
12.1006
11.7102
11.7158
7.8564
59.6143
60.1543
59.8527
59.8136
59.3013
58.4519
57.363
55.7861
53.8922
51.6055
49.0541
46.2905
43.3839
40.4616
37.7991
35.7463
34.4892
33.725
33.8663
32.2376
41.8391
44.3168
45.6377
47.2087
48.7515
50.0774
51.5822
52.8198
53.9343
54.6526
54.8808
54.4879
53.4266
51.8422
50.2477
49.161
49.1772
49.8122
50.5992
50.4846
21.3836
23.7111
25.1613
26.3492
27.9028
28.904
30.2777
31.3972
32.629
33.8438
35.0877
36.3521
37.6267
38.8904
40.1454
41.4375
42.7226
44.1638
45.1809
46.5255
0.659751
3.01884
4.78754
5.85225
7.74862
8.78029
10.3965
11.6177
12.9848
14.2688
15.5496
16.83
18.1084
19.418
20.737
22.1396
23.5019
25.0683
26.2162
27.9179
-22.2034
-20.3404
-18.3163
-17.6137
-15.3529
-14.4423
-12.5005
-11.177
-9.50285
-7.96187
-6.35682
-4.73908
-3.10446
-1.41835
0.280161
2.07651
3.79819
5.72395
7.15309
9.44116
-50.1696
-50.5654
-48.7712
-49.3367
-47.5387
-47.7476
-46.3491
-45.9815
-44.9183
-44.1812
-43.2088
-42.2125
-41.0604
-39.7348
-38.2449
-36.4173
-34.4132
-31.619
-29.3241
-25.7872
-55.9483
-60.0599
-59.7677
-62.6537
-62.9969
-65.5627
-66.4455
-68.5682
-69.7705
-71.3997
-72.4138
-73.1722
-73.3509
-73.1546
-72.6198
-71.7492
-70.7261
-69.2942
-68.0076
-64.7448
-18.9803
-24.1776
-24.9128
-29.227
-30.9036
-34.95
-37.45
-41.3688
-44.5686
-48.4756
-51.9434
-55.3603
-58.1687
-60.5251
-62.2117
-63.3785
-63.9299
-63.7451
-64.3239
-64.0756
26.1074
23.8109
24.2434
21.8323
22.4465
20.4681
20.6056
19.1818
18.7759
17.6756
16.8805
15.7261
14.4042
12.6179
10.4163
7.79955
5.26096
3.95048
2.70047
-1.27524
25.9012
26.4927
28.2103
27.3734
29.6666
29.0682
30.7275
30.7046
31.5794
31.6942
31.8765
31.6767
31.3399
30.8512
30.3235
29.7821
29.2615
28.7105
28.5391
27.4041
5.85019
7.15339
10.3401
9.79308
13.4598
13.5804
16.3203
17.4398
19.4058
20.9325
22.5094
23.8478
24.8947
25.565
25.9119
26.157
26.795
28.1033
29.4258
30.6799
-24.3473
-24.3435
-20.5035
-21.8906
-17.9009
-18.2128
-15.4532
-14.3757
-12.3669
-10.6339
-8.73551
-6.79179
-4.80598
-2.75813
-0.692513
1.46282
3.60707
5.98916
8.09161
11.042
-44.5749
-47.6543
-45.0977
-48.9472
-46.6584
-49.1364
-48.3498
-49.3533
-49.3034
-49.6104
-49.6345
-49.6112
-49.4214
-48.9518
-48.083
-46.4873
-44.4607
-41.9862
-40.2136
-37.0236
-13.3746
-19.0216
-17.3909
-24.7808
-25.3441
-30.734
-33.4478
-37.5465
-40.8641
-44.4123
-47.6844
-50.8535
-53.7239
-56.1139
-57.7679
-58.6231
-59.0825
-59.1665
-59.422
-58.2949
3.41144
-4.35895
3.38508
-4.1929
-2.68724
-6.65902
-8.50933
-11.6869
-14.5957
-17.8132
-21.0414
-24.2953
-27.4088
-30.1644
-32.2235
-33.4352
-34.2511
-35.1523
-36.5439
-37.1622
22.3817
-0.113487
8.15065
-2.82142
-5.344
-11.8145
-16.518
-21.5534
-25.848
-29.6447
-32.685
-34.9163
-36.2055
-36.3765
-35.1597
-32.7006
-29.466
-25.4798
-22.0628
-20.9827
702.961
620.597
571.756
515.799
467.045
419.982
376.206
334.836
295.872
259.027
224.132
191.001
159.449
129.436
101.05
73.5276
46.9193
25.2544
0.855986
-35.7477
720.071
637.708
588.868
532.911
484.158
437.095
393.32
351.95
312.987
276.142
241.247
208.117
176.565
146.552
118.166
90.6434
64.0346
42.3689
17.9698
-18.6338
39.5079
17.0129
25.2772
14.3053
11.783
5.31267
0.609469
-4.42582
-8.72025
-12.5168
-15.5571
-17.7883
-19.0772
-19.2473
-18.0293
-15.5695
-12.3346
-8.34712
-4.92908
-3.84956
20.5355
12.7641
20.5078
12.9295
14.4353
10.4637
8.61405
5.43724
2.52959
-0.686522
-3.91298
-7.16481
-10.2759
-13.0282
-15.0832
-16.2922
-17.1097
-18.0156
-19.4117
-20.0363
3.71508
-1.93622
-0.307643
-7.70102
-8.26755
-13.6611
-16.3788
-20.4818
-23.804
-27.3573
-30.635
-33.8107
-36.6883
-39.0855
-40.7463
-41.6088
-42.0746
-42.1628
-42.4233
-41.297
-27.5483
-30.6333
-28.0796
-31.9325
-29.6479
-32.1296
-31.3472
-32.3548
-32.3091
-32.62
-32.6477
-32.6276
-32.4401
-31.9711
-31.1003
-29.4998
-27.4689
-24.9948
-23.2249
-20.0319
-7.35044
-7.34721
-3.50487
-4.89156
-0.900465
-1.21134
1.5494
2.62844
4.63885
6.37376
8.27441
10.2206
12.2089
14.2596
16.3283
18.4875
20.6362
23.0232
25.1306
28.0873
22.9404
24.242
27.4306
26.8817
30.5485
30.6688
33.4066
34.5258
36.4887
38.0134
39.5865
40.9222
41.9681
42.6418
42.9984
43.2619
43.92
45.2416
46.5673
47.8239
42.926
43.5265
45.2452
44.4135
46.7083
46.1158
47.7777
47.7634
48.6452
48.7726
48.9681
48.785
48.467
47.9995
47.4941
46.9758
46.4755
45.9306
45.7601
44.6411
43.4532
41.1798
41.6219
39.2285
39.8594
37.8984
38.0535
36.6468
36.2565
35.1703
34.3854
33.237
31.9155
30.1245
27.9107
25.2771
22.7227
21.4093
20.1724
16.2024
-1.53407
-6.72861
-7.46352
-11.7773
-13.4541
-17.4998
-20
-23.9176
-27.1165
-31.0199
-34.4827
-37.8929
-40.6935
-43.0445
-44.7295
-45.8974
-46.4586
-46.2745
-46.8576
-46.6393
-38.6286
-42.7524
-42.4644
-45.3548
-45.7048
-48.2728
-49.1616
-51.2874
-52.495
-54.1281
-55.1467
-55.9111
-56.0995
-55.9173
-55.4009
-54.5514
-53.5461
-52.1373
-50.8636
-47.6173
-33.106
-33.5187
-31.7317
-32.3106
-30.526
-30.7502
-29.3689
-29.0209
-27.9793
-27.2663
-26.319
-25.3485
-24.2213
-22.9189
-21.4487
-19.6359
-17.6399
-14.8338
-12.5307
-8.98728
-5.20999
-3.34631
-1.3203
-0.619695
1.64134
2.55088
4.49233
5.8155
7.48977
9.03142
10.6381
12.2586
13.8973
15.5889
17.2944
19.0986
20.8284
22.7624
24.1984
26.4952
17.7733
20.1274
21.8926
22.9529
24.8462
25.8747
27.4882
28.7072
30.0727
31.3556
32.6359
33.9162
35.1944
36.503
37.8198
39.2186
40.5756
42.1358
43.2786
44.9725
38.2703
40.6045
42.0566
43.2493
44.8081
45.8154
47.1958
48.3221
49.5605
50.7813
52.0279
53.2938
54.5652
55.823
57.0717
58.3584
59.6412
61.0848
62.1041
63.4486
59.1071
61.5596
62.8639
64.4069
65.925
67.2214
68.6922
69.8922
70.9679
71.6477
71.8488
71.4412
70.3799
68.8276
67.2896
66.2821
66.3673
67.024
67.7986
67.683
76.1097
76.6664
76.3305
76.3156
75.8117
74.9635
73.8841
72.3296
70.4758
68.2521
65.7922
63.1435
60.3769
57.6029
55.0713
53.1163
51.9104
51.1261
51.1984
49.5366
73.591
69.5764
65.8671
62.6787
60.122
57.8485
55.7988
53.7777
51.8615
49.8098
47.5205
44.8037
41.6342
38.1471
34.6657
31.616
29.4998
28.8228
28.6013
24.6667
19.8321
15.0021
10.419
6.59011
2.64633
-1.89818
-6.75144
-11.924
-17.2449
-22.505
-27.3328
-31.4604
-34.6176
-36.6423
-37.4558
-36.9339
-35.3379
-33.5999
-32.5059
-32.7313
19.1872
17.7717
15.7188
12.9334
8.70441
3.82805
-2.04633
-7.3488
-11.8057
-14.9594
-16.7841
-17.3057
-16.6678
-15.0952
-12.8916
-10.2274
-7.52643
-5.20353
-3.97959
-2.75033
)
;

boundaryField
{
    outletWall
    {
        type            fixedValue;
        value           uniform 0;
    }
    fineWalls
    {
        type            zeroGradient;
    }
    fineFrontAndBack
    {
        type            zeroGradient;
    }
    fineplugLeft
    {
        type            cyclicAMI;
        value           nonuniform List<scalar> 
20
(
-22.312
-22.3459
-22.703
-23.7091
-25.0169
-26.3928
-27.5484
-28.3881
-28.7177
-28.4212
-27.174
-25.123
-23.3581
-22.894
-13.196
-11.0699
-9.86942
-11.411
-13.8623
-14.5445
)
;
    }
    fineplugRight
    {
        type            cyclicAMI;
        value           nonuniform List<scalar> 
20
(
-4.94358
-4.45739
-4.55233
-5.29831
-6.40241
-7.51456
-8.34182
-8.77001
-8.59241
-7.68422
-5.76296
-2.89857
-0.0902146
2.50191
12.4086
14.9459
16.5883
15.4558
13.2002
12.2401
)
;
    }
    inletOutletLeft
    {
        type            cyclicAMI;
        value           nonuniform List<scalar> 
20
(
-22.312
-22.3459
-22.703
-23.7091
-25.0169
-26.3928
-27.5484
-28.3881
-28.7177
-28.4212
-27.174
-25.123
-23.3581
-22.894
-13.196
-11.0699
-9.86942
-11.411
-13.8623
-14.5445
)
;
    }
    inletLeft
    {
        type            zeroGradient;
    }
    inletWallsLeft
    {
        type            zeroGradient;
    }
    inletFacesLeft
    {
        type            zeroGradient;
    }
    inletOutletRight
    {
        type            cyclicAMI;
        value           nonuniform List<scalar> 
20
(
-4.94358
-4.45739
-4.55233
-5.29831
-6.40241
-7.51456
-8.34182
-8.77001
-8.59241
-7.68422
-5.76296
-2.89857
-0.0902146
2.50191
12.4086
14.9459
16.5883
15.4558
13.2002
12.2401
)
;
    }
    inletRight
    {
        type            zeroGradient;
    }
    inletWallsRight
    {
        type            zeroGradient;
    }
    inletFacesRight
    {
        type            zeroGradient;
    }
}


// ************************************************************************* //
