/*--------------------------------*- C++ -*----------------------------------*\
| =========                 |                                                 |
| \\      /  F ield         | OpenFOAM: The Open Source CFD Toolbox           |
|  \\    /   O peration     | Version:  4.1                                   |
|   \\  /    A nd           | Web:      www.OpenFOAM.org                      |
|    \\/     M anipulation  |                                                 |
\*---------------------------------------------------------------------------*/
FoamFile
{
    version     2.0;
    format      ascii;
    class       surfaceScalarField;
    location    "25";
    object      phi;
}
// * * * * * * * * * * * * * * * * * * * * * * * * * * * * * * * * * * * * * //

dimensions      [0 3 -1 0 0 0 0];

internalField   nonuniform List<scalar> 
2360
(
-2614.15
-842.215
-1771.93
-842.217
-842.216
1317.97
-2160.19
1317.97
1317.97
1317.97
3625.53
-2307.56
3625.53
3625.53
6353.8
-2728.26
6353.79
6353.8
9989.44
-3635.64
9989.44
9989.44
14914
-4924.53
14914
14914
15234.9
16355.6
18006.4
19831.3
21609.9
23269.1
16644.3
8194.97
18079.6
19398.4
20600.4
21685.2
22652
23500.9
24232.6
24848.6
25351.6
25748.5
26048.3
26240.9
26218.9
12784.7
13434.2
12784.7
12784.7
12784.7
1272.95
11511.7
1272.95
1272.95
1272.95
-12.2367
1285.19
-12.2275
-12.2236
-4576.83
4564.6
-4576.83
-4576.83
-4576.83
-16308.9
11732.1
-16308.9
-16308.9
-16308.9
-28817.7
12508.8
-28732.4
-28492.4
-28161.6
-27742.4
-27223
-26595.5
-25857.1
-25006.6
-24043.3
-22967.1
-21778.3
-20476.4
-19060.5
-23440.4
5932.5
-21803.1
-20048.6
-18253.5
-16637.5
-15546.6
-15250.2
-15250.2
-15250.2
-7867.56
-7382.6
-7867.56
-7867.56
-722.526
-7145.04
-722.525
-722.525
4688.8
-5411.33
4688.8
4688.8
9335.12
-4646.32
9335.12
9335.12
9335.12
13247.1
-3912.03
13247.1
13247.1
17099.6
-3852.5
-1906.93
9540.87
-1973.81
12305.5
-1947.95
14412.6
-1842.07
16264.6
-1565.58
18471.9
-1153.59
19702.9
-466.239
20079.2
26.3288
15479.7
-43.8311
4765.95
-477.934
535.25
-663.308
10079.3
-800.692
17237.8
-687.505
22237
-280.567
22455.5
425.272
16690.3
1504.28
8025.52
2413.27
3363.66
3124.99
685.085
282.033
-1901.5
9649.1
-1972.15
12376.2
-1947.3
14387.7
-1840.41
16157.7
-1569.77
18201.3
-1159.43
19292.5
-470.691
19390.4
30.2337
14978.8
4.90138
4791.28
-521.379
1061.53
-794.513
10352.4
-982.123
17425.5
-889.248
22144.1
-420.974
21987.2
511.175
15758.1
2081.36
6455.34
3534.84
1910.17
3833.21
386.714
203.22
-1900.79
9766.66
-1975.4
12450.8
-1952.92
14365.3
-1846.57
16051.3
-1582.76
17937.5
-1166.65
18876.4
-466.375
18690.1
56.8379
14455.6
2.9955
4845.13
-600.384
1664.91
-985.604
10737.6
-1246.29
17686.1
-1194.16
22092
-680.694
21473.7
541.377
14536
2774.39
4222.32
4746.03
-61.4623
5141.02
-8.2753
697.923
-1906.8
9890.65
-1980.04
12524
-1958.13
14343.3
-1851.97
15945.2
-1594.2
17679.7
-1170.55
18452.8
-470.765
17990.4
62.051
13922.7
-17.4517
4924.63
-725.844
2373.3
-1228.38
11240.2
-1577.04
18034.8
-1595.44
22110.4
-1068.61
20946.9
491.009
12976.4
3616.02
1097.3
6144.4
-2589.84
6558.22
-422.091
1844.82
-1916.28
10020.5
-1985.58
12593.3
-1962.19
14319.9
-1856.53
15839.5
-1603.15
17426.3
-1173.78
18023.4
-482.412
17299
59.0814
13381.2
-56.7976
5040.51
-884.94
3201.44
-1522.08
11877.3
-1976.87
18489.6
-2100.22
22233.7
-1578.56
20425.2
656.366
10741.5
4622.27
-2868.6
7429.46
-5397.03
8184.52
-1177.15
2884.3
-1929.3
10153.9
-1991.11
12655.2
-1963.04
14291.9
-1856.3
15732.8
-1604.72
17174.7
-1171.71
17590.4
-500.777
16628.1
43.6352
12836.8
-140.013
5224.16
-1097.02
4158.45
-1857.84
12638.1
-2432.06
19063.8
-2710.35
22512
-2258.23
19973.1
1144.99
7338.27
4431.01
-6154.62
5644.07
-6610.09
6733.45
-2266.53
2235.14
-1946.89
10287.6
-1995.54
12703.8
-1956.43
14252.8
-1843.65
15620
-1590.04
16921.1
-1158.44
17158.8
-525.194
15994.8
-28.8865
12340.5
-355.211
5550.48
-1394.78
5198.02
-2219.25
13462.6
-2929.46
19774
-3406.48
22989
-2992.89
19559.5
-781.66
5127.04
-1263.88
-5672.39
-1898.99
-5974.98
-1234.63
-2930.89
6933.01
-1971.84
10417.3
-1998.85
12730.8
-1937.29
14191.2
-1807.9
15490.6
-1546.74
16660
-1126.8
16738.8
-557.488
15425.5
-231.099
12014.1
-772.093
6091.48
-1765.2
6191.13
-2577.11
14274.5
-3427.4
20624.3
-4078.78
23640.4
-4189.91
19670.7
-5847.08
6784.22
-9368.33
-2151.14
-10574.5
-4768.78
-11210
-2295.44
8231.81
-2009.21
10536.4
-2001.98
12723.6
-1900.37
14089.6
-1736.37
15326.6
-1458.44
16382
-1065.08
16345.5
-603.828
14964.2
-556.11
11966.4
-1298.6
6833.96
-2127.63
7020.16
-2895.41
15042.3
-3868.5
21597.4
-4720.94
24492.8
-6052.93
21002.7
-10011.1
10742.4
-13732.4
1570.19
-14727.5
-3773.68
-14686.1
-2336.86
5277.75
-2065.65
10635
-2007.46
12665.4
-1844.69
13926.8
-1622.48
15104.4
-1310.15
16069.7
-949.58
15984.9
-634.465
14649.1
-857.053
12189
-1711.82
7688.73
-2379.87
7688.21
-3142.79
15805.2
-4216.03
22670.6
-5188.67
25465.5
-6672.1
22486.1
-9032.8
13103.1
-10017.9
2555.28
-9827.28
-3964.29
-8870.55
-3293.59
971.798
-2150.22
10701.6
-2025.02
12540.2
-1781.02
13682.8
-1474.36
14797.7
-1098.17
15693.5
-745.575
15632.3
-556.929
14460.5
-922.067
12554.1
-1780.44
8547.1
-2427.97
8335.75
-3319.32
16696.5
-4491.35
23842.7
-5523.98
26498.1
-7056.95
24019.1
-9868.35
15914.5
-12756
5442.92
-12884.9
-3835.4
-9177.91
-7000.56
-6920.92
-2284.78
10723.7
-2075.66
12331.1
-1725.63
13332.8
-1304.11
14376.2
-833.088
15222.5
-433.379
15232.6
-271.71
14298.8
-566.455
12848.9
-1290.05
9270.7
-2186.01
9231.71
-3464.12
17974.6
-4731.31
25109.9
-5741.61
27508.4
-7275.69
25553.1
-10707.6
19346.4
-14043.9
8779.26
-14274.6
-3604.77
-13879
-7396.13
-9288.18
-2505.41
10682.4
-2177.94
12003.6
-1680.95
12835.8
-1118.38
13813.6
-535.928
14640.1
-21.0862
14717.8
282.827
13994.9
350.198
12781.5
-106.133
9727.03
-1678.43
10804
-3652.35
19948.6
-4964.12
26421.6
-5856.32
28400.6
-7150.86
26847.7
-9499.74
21695.3
-8597.59
7877.1
-6036.53
-6165.83
-9095.62
-4337.04
-4949.55
-2822.08
10516.5
-2296.8
11478.3
-1621.46
12160.5
-921.228
13113.4
-208.488
13927.3
500.049
14009.2
1113.8
13381.1
1707.22
12188.1
1291.05
10143.2
-1343.96
13439
-3974.52
22579.1
-5219.38
27666.5
-5989.96
29171.2
-7109.82
27967.5
-8254.79
22840.3
-4322.24
3944.54
-272.078
-10216
-799.825
-3809.29
2445.58
-3137.84
10124.8
-2317.83
10658.3
-1486.63
11329.3
-665.52
12292.3
247.668
13014.1
1231.59
13025.3
2211.52
12401.2
3054.15
11345.5
1885.59
11311.8
-1776.05
17100.7
-4458.22
25261.3
-5542.63
28750.9
-6309.1
29937.7
-7374.28
29032.7
-7253.46
22719.5
-2603
-705.922
-461.037
-12357.9
1573.36
-5843.69
-905.581
-3173.95
9324.37
-1950.04
9434.4
-1060.52
10439.7
-146.088
11377.9
1002.15
11865.9
2227.87
11799.6
3352.32
11276.8
3630.23
11067.6
1020.06
13921.9
-2967.87
21088.6
-5025.37
27318.8
-5963.66
29689.2
-6885.56
30859.6
-7825.06
29972.2
-6142.02
21036.4
-1817.12
-5030.83
-429.494
-13745.6
1277.2
-7550.39
-3264.02
-2692.84
7986.4
-1007.16
7748.72
-134.257
9566.84
807.362
10436.3
2006.3
10667
3167.15
10638.7
3777.87
10666
2480.55
12364.9
-1171.84
17574.3
-4311.33
24228.1
-5605.38
28612.8
-6525.44
30609.3
-7641.87
31976
-8109.7
30440
-4591.04
17517.8
-972.079
-8649.79
-489.007
-14228.6
1044.19
-9083.58
-4948.1
-2382.19
6323.38
-441.345
5807.88
460.577
8664.92
1353.81
9543.03
2297.9
9722.86
2837.74
10098.9
2083.56
11420.2
-587.047
15035.5
-3714.54
20701.8
-5437.32
25950.9
-6232.19
29407.7
-7165.86
31542.9
-8316.55
33126.7
-8043.71
30167.2
-3267.92
12742
-211.645
-11706.1
-146.05
-14294.2
1126.42
-10356.1
-6129.24
-4614
5270.42
-2739.37
3933.25
-1116.83
7042.38
-23.2175
8449.41
529.837
9169.81
106.717
10522
-1542.56
13069.5
-3765.49
17258.4
-5348.64
22284.9
-6084.61
26686.8
-6719.73
30042.8
-7784.47
32607.7
-8846.57
34188.8
-7560.41
28881
-2506.99
7688.55
-112.177
-14100.9
193.446
-14599.9
1198.06
-11360.7
-7091.37
-9798.61
-8659.25
-7006.8
-6063.7
-5604.78
-5682.27
-6167.59
-6688.99
-7002.46
-7296.85
-7887.61
-8780.67
-8990.65
-6394.8
-1838.2
-123.517
395.189
1191.42
509.954
-830.924
1089.67
-1700.42
1443.74
-2004.86
1608.16
-1989.35
1696.76
-1867.19
1764.88
-1727.27
1778.24
-1583.56
1780.3
-1437.33
1751.73
-1290.25
1692.38
-1142.66
1602.24
-994.678
1481.68
-846.256
1330.93
-698.142
1148.54
-549.268
931.196
-398.72
679.689
-251.465
415.798
-133.045
190.576
-74.5178
60.2661
-62.2983
82.2126
574.125
-1405.05
926.477
-2052.77
839.813
-1918.2
573.704
-1723.24
315.686
-1609.17
100.516
-1512.11
-83.73
-1399.31
-255.646
-1265.42
-425.776
-1120.12
-599.443
-969.002
-776.929
-817.193
-954.987
-668.202
-1126.61
-526.514
-1281.42
-394.469
-1401.74
-278.392
-1450.17
-203.04
-1364.8
-218.416
-1085.74
-353.575
-611.234
-536.798
-529.022
53.3852
-1458.44
-5.8636
-1993.52
-187.016
-1737.05
-376.977
-1533.28
-565.093
-1421.06
-760.378
-1316.82
-959.466
-1200.23
-1157.46
-1067.43
-1352.46
-925.123
-1545.28
-776.183
-1733.77
-628.7
-1907.56
-494.41
-2041.63
-392.442
-2092.19
-343.913
-2006
-364.583
-1742.91
-466.134
-1311.02
-650.302
-786.319
-878.278
-304.515
-1018.6
-833.537
-190.421
-1268.02
-233.144
-1950.8
-210.638
-1759.56
-217.815
-1526.11
-272.232
-1366.64
-344.764
-1244.29
-406.271
-1138.72
-445.594
-1028.11
-457.769
-912.949
-441.859
-792.095
-400.314
-670.246
-338.523
-556.202
-263.35
-467.616
-174.938
-432.327
-69.2614
-470.26
48.1009
-583.497
141.6
-743.801
161.456
-898.135
88.213
-945.36
-745.324
-100.611
-1167.41
-35.6897
-2015.72
73.3234
-1868.57
144.434
-1597.22
200.496
-1422.7
252.381
-1296.18
311.496
-1197.84
385.775
-1102.39
483.03
-1010.21
609.642
-918.709
766.831
-827.436
946.766
-736.14
1125.66
-646.508
1261.93
-568.602
1307.97
-516.3
1229.06
-504.59
1019.64
-534.381
703.719
-582.21
345.494
-587.134
-399.83
31.037
-1198.45
78.3245
-2063.01
138.207
-1928.45
196.347
-1655.36
267.64
-1494
342.724
-1371.27
418.014
-1273.13
490.913
-1175.29
562.347
-1081.64
633.926
-990.289
707.893
-901.402
785.966
-814.213
867.119
-727.661
940.018
-641.501
982.236
-558.518
960.94
-483.294
848.826
-422.267
633.204
-366.587
339.923
-293.851
-59.9074
148.467
-1346.91
204.151
-2118.7
228.706
-1953.01
262.989
-1689.64
318.558
-1549.57
377.364
-1430.07
437.126
-1332.89
492.92
-1231.09
545.043
-1133.76
590.803
-1036.05
628.21
-938.808
655.296
-841.299
671.293
-743.658
675.287
-645.494
663.868
-547.098
626.987
-446.413
549.096
-344.375
411.729
-229.219
209.886
-92.0073
149.978
254.891
-1601.8
300.304
-2164.11
299.56
-1952.26
332.887
-1722.97
395.707
-1612.39
459.325
-1493.69
527.16
-1400.72
594.131
-1298.05
662.27
-1201.9
725.381
-1099.16
777.816
-991.243
811.848
-875.33
821.651
-753.461
803.159
-627.002
754.106
-498.046
672.09
-364.397
554.517
-226.802
396.573
-71.2754
198.42
106.145
348.399
288.633
-1890.44
270.992
-2146.47
259.736
-1941.01
300.095
-1763.33
367.841
-1680.13
436.695
-1562.54
516.894
-1480.92
601.706
-1382.87
693.759
-1293.95
780.409
-1185.81
851.484
-1062.32
894.506
-918.353
905.405
-764.36
882.237
-603.834
820.743
-436.551
713.166
-256.82
529.284
-42.919
327.813
130.196
162.664
271.296
511.063
170.167
-2060.61
67.5835
-2043.88
38.0538
-1911.48
43.9192
-1769.2
62.8207
-1699.03
86.9202
-1586.64
123.439
-1517.44
168.194
-1427.62
219.397
-1345.16
260.65
-1227.06
276.775
-1078.44
257.353
-898.931
209.256
-716.263
140.339
-534.917
55.1927
-351.405
-22.918
-178.71
-26.1352
-39.7026
-54.6643
158.724
-110.959
327.59
400.103
-37.9404
-2022.67
-154.326
-1927.5
-230.488
-1835.32
-305.564
-1694.12
-378.427
-1626.17
-450.304
-1514.77
-519.989
-1447.76
-586.718
-1360.89
-652.369
-1279.51
-721.777
-1157.66
-802.686
-997.534
-895.386
-806.231
-992.331
-619.319
-1083.11
-444.134
-1157.91
-276.612
-1203.05
-133.57
-1196.26
-46.4889
-1020.39
-17.1489
-609.97
-82.8309
-209.866
-120.587
-1902.08
-190.973
-1857.11
-279.727
-1746.56
-390.751
-1583.09
-501.147
-1515.77
-627.491
-1388.42
-764.223
-1311.03
-914.937
-1210.18
-1072
-1122.44
-1221.55
-1008.1
-1350.15
-868.932
-1450.77
-705.611
-1526.96
-543.136
-1573.27
-397.823
-1560.52
-289.362
-1448.82
-245.262
-1214.55
-280.766
-831.235
-400.461
-355.73
-558.336
-565.596
-25.5817
-1876.49
-19.4357
-1863.26
-24.8257
-1741.17
-49.8207
-1558.1
-74.2911
-1491.3
-110.434
-1352.28
-156.281
-1265.18
-213.885
-1152.57
-278.758
-1057.57
-332.222
-954.636
-351.441
-849.712
-320.114
-736.938
-241.556
-621.694
-127.676
-511.703
9.00463
-426.041
152.729
-388.986
273.386
-401.423
315.249
-442.323
213.867
-456.954
-351.729
53.8297
-1930.32
89.7844
-1899.21
135.947
-1787.33
178.898
-1601.05
221.699
-1534.1
266.711
-1397.29
309.404
-1307.87
354.205
-1197.37
397.151
-1100.52
444.737
-1002.22
503.707
-908.682
584.197
-817.426
688.704
-726.201
808.9
-631.897
916.11
-533.251
958.544
-431.42
891.157
-334.035
690.538
-241.705
380.096
-146.511
28.3665
85.8747
-2016.2
101.529
-1914.86
150.463
-1836.26
203.273
-1653.86
260.099
-1590.93
320.102
-1457.29
384.16
-1371.93
453.345
-1266.56
528.092
-1175.26
607.135
-1081.26
687.536
-989.082
763.613
-893.503
828.204
-790.792
870.593
-674.285
877.671
-540.329
836.471
-390.22
741.563
-239.127
568.013
-68.155
310.909
110.593
339.276
60.8947
-2077.09
49.7764
-1903.74
79.4827
-1865.97
116.711
-1691.08
158.963
-1633.18
208.979
-1507.3
265.16
-1428.11
329.052
-1330.45
401.663
-1247.87
482.741
-1162.34
571.324
-1077.67
659.949
-982.127
732.264
-863.107
759.09
-701.111
706.414
-487.653
562.372
-246.178
379.522
-56.2779
251.14
60.2262
124.988
236.744
464.263
-35.7349
-2041.36
-97.9004
-1841.58
-134.756
-1829.11
-156.094
-1669.74
-176
-1613.27
-179.017
-1504.29
-177.668
-1429.46
-164.317
-1343.8
-143.03
-1269.16
-111.99
-1193.38
-73.5875
-1116.07
-32.6677
-1023.05
-2.40468
-893.369
-2.91253
-700.602
-44.4894
-446.075
-98.7568
-191.909
-103.246
-51.784
-83.0334
40.0165
-101.108
254.82
363.156
-184.015
-1857.34
-382.521
-1643.07
-545.341
-1666.29
-671.505
-1543.58
-787.96
-1496.82
-875.385
-1416.86
-950.804
-1354.04
-1007.83
-1286.77
-1052.78
-1224.21
-1084.53
-1161.63
-1103.71
-1096.88
-1105.33
-1021.43
-1076.96
-921.737
-995.578
-781.982
-839.839
-601.814
-620.924
-410.823
-439.056
-233.651
-346.342
-52.6981
-204.007
112.486
159.148
-213.853
-1643.49
-474.25
-1382.68
-747.904
-1392.64
-983.798
-1307.69
-1212.02
-1268.6
-1410.93
-1217.94
-1589.58
-1175.4
-1743.94
-1132.4
-1876.63
-1091.52
-1986.93
-1051.33
-2072.38
-1011.44
-2123.75
-970.058
-2120.62
-924.872
-2030.23
-872.375
-1824.36
-807.68
-1507.9
-727.277
-1114.14
-627.411
-676.684
-490.159
-261.389
-302.81
-102.24
-668.487
-1076.16
-1493.8
-1826.49
-2120.09
-2363.03
-2563.43
-2720.83
-2837.35
-2913.68
-2950.12
-2945.18
-2895.05
-2792.42
-2625.1
-2377.38
-2029.79
-1544.95
-872.76
-668.473
1643.47
-1076.13
1382.66
-1493.76
1392.62
-1826.43
1307.67
-2120.01
1268.58
-2362.94
1217.93
-2563.32
1175.38
-2720.71
1132.39
-2837.21
1091.5
-2913.53
1051.32
-2949.95
1011.43
-2945.01
970.052
-2894.88
924.872
-2792.26
872.378
-2624.94
807.682
-2377.22
727.282
-2029.65
627.43
-1544.85
490.2
-872.739
302.886
102.261
-213.851
1857.32
-474.253
1643.06
-747.911
1666.28
-983.814
1543.57
-1212.04
1496.81
-1410.98
1416.86
-1589.63
1354.04
-1744.03
1286.78
-1876.74
1224.22
-1987.07
1161.64
-2072.53
1096.89
-2123.9
1021.41
-2120.68
921.658
-2030.15
781.847
-1824.19
601.719
-1507.77
410.865
-1114.06
233.721
-676.54
52.6781
-261.215
-112.44
-158.953
-184.06
2041.38
-382.62
1841.62
-545.492
1829.15
-671.724
1669.8
-788.245
1613.33
-875.751
1504.36
-951.256
1429.54
-1008.38
1343.9
-1053.44
1269.28
-1085.31
1193.51
-1104.61
1116.19
-1106.32
1023.12
-1077.98
893.315
-996.489
700.354
-840.484
445.713
-621.269
191.65
-439.233
51.6829
-346.539
-40.0167
-204.034
-254.945
-362.987
-35.8181
2077.2
-98.0672
1903.87
-135.005
1866.09
-156.433
1691.23
-176.428
1633.33
-179.537
1507.47
-178.279
1428.28
-165.02
1330.64
-143.825
1248.08
-112.877
1162.56
-74.573
1077.89
-33.7551
982.305
-3.59383
863.152
-4.15611
700.915
-45.6189
487.174
-99.6204
245.648
-104.298
56.3543
-84.1471
-60.1714
-101.777
-237.317
-464.765
60.9132
2016.28
49.7116
1915.07
79.3864
1836.41
116.593
1654.02
158.835
1591.08
208.846
1457.46
265.031
1372.1
328.934
1266.74
401.565
1175.45
482.666
1081.46
571.274
989.279
659.901
893.677
732.148
790.905
758.769
674.292
705.729
540.213
561.37
390.006
378.873
238.851
251.01
67.6899
124.776
-111.083
-339.989
86.0899
1930.19
101.669
1899.49
150.64
1787.44
203.494
1601.17
260.396
1534.18
320.44
1397.41
384.563
1307.97
453.791
1197.51
528.59
1100.65
607.676
1002.37
688.117
908.837
764.211
817.584
828.749
726.366
870.97
632.071
877.745
533.438
836.206
431.546
741.082
333.975
567.411
241.36
310.441
145.886
-29.5481
54.0338
1876.16
89.9783
1863.54
136.211
1741.21
179.302
1558.07
222.249
1491.23
267.448
1352.21
310.374
1265.05
355.467
1152.41
398.772
1057.35
446.734
954.411
506.004
849.567
586.573
737.014
690.844
622.095
810.439
512.477
916.71
427.167
958.257
389.998
890.51
401.722
689.92
441.95
379.825
455.981
350.277
-25.0052
1901.16
-18.3679
1856.91
-23.1923
1746.03
-47.5705
1582.45
-71.4402
1515.1
-106.92
1387.69
-152.099
1310.22
-208.975
1209.29
-273.048
1121.42
-325.617
1006.98
-343.932
867.883
-311.805
704.889
-232.551
542.841
-118.045
397.973
19.0086
290.114
162.247
246.762
281.538
282.432
320.694
402.793
216.075
560.601
566.352
-120.687
2021.85
-190.773
1926.99
-279.438
1834.69
-390.485
1693.5
-500.91
1625.53
-627.383
1514.16
-764.296
1447.14
-915.26
1360.25
-1072.53
1278.69
-1222.13
1156.59
-1350.53
996.283
-1450.72
805.076
-1526.21
618.329
-1571.43
443.192
-1557.17
275.858
-1444
133.588
-1209.39
47.8275
-826.558
19.9607
-352.802
86.8464
213.55
-38.8647
2060.71
-155.248
2043.37
-231.75
1911.2
-307.314
1769.06
-380.704
1698.92
-453.178
1586.64
-523.539
1517.5
-591.029
1427.74
-657.519
1345.18
-727.773
1226.84
-809.414
1077.92
-902.637
898.3
-999.946
715.638
-1090.94
534.19
-1165.65
350.57
-1210.13
178.062
-1203.21
40.912
-1025.12
-158.131
-611.418
-326.852
-397.868
169.326
1891.39
66.2594
2146.44
36.292
1941.16
41.6408
1763.71
59.9724
1680.59
83.5249
1563.09
119.469
1481.55
163.639
1383.57
214.159
1294.66
254.614
1186.39
269.868
1062.67
249.682
918.485
200.985
764.336
131.553
603.622
46.0397
436.083
-31.7979
255.901
-30.455
39.5707
-57.5269
-131.058
-113.003
-271.376
-510.87
288.793
1602.6
270.873
2164.36
259.494
1952.54
299.827
1723.38
367.589
1612.83
436.53
1494.15
516.884
1401.2
601.913
1298.55
694.192
1202.38
781.018
1099.56
852.172
991.517
895.221
875.438
906.159
753.398
883.022
626.76
821.484
497.622
713.591
363.793
527.13
226.032
325.643
70.4289
161.442
-107.175
-349.429
255.437
1347.16
300.88
2118.92
300.152
1953.27
333.587
1689.95
396.535
1549.88
460.306
1430.38
528.32
1333.19
595.493
1231.37
663.846
1134.03
727.148
1036.26
779.724
938.941
813.835
841.328
823.657
743.577
805.11
645.307
755.903
546.829
673.627
446.069
555.72
343.94
397.491
228.659
198.994
91.3226
-150.435
148.873
1198.29
204.446
2063.35
228.8
1928.92
263.065
1655.69
318.632
1494.31
377.4
1371.61
437.115
1273.47
492.879
1175.61
544.973
1081.93
590.683
990.552
627.975
901.649
654.824
814.482
670.459
727.942
673.962
641.805
662.082
558.71
625.022
483.129
547.33
421.631
410.505
365.484
209.317
292.511
58.8816
31.6527
1166.64
79.3726
2015.63
138.811
1869.48
196.315
1598.18
267.17
1423.46
341.882
1296.9
416.733
1198.62
489.026
1103.32
559.661
1011.3
630.236
919.979
702.963
828.923
779.791
737.655
859.55
648.183
931.478
569.879
973.748
516.44
953.399
503.479
842.941
532.089
629.389
579.036
337.949
583.95
396.831
-100.08
1266.72
-34.9485
1950.5
75.313
1759.22
147.155
1526.34
203.584
1367.03
256.004
1244.48
315.64
1138.99
390.254
1028.71
487.538
914.015
613.865
793.653
770.611
672.176
950.261
558.006
1128.84
469.602
1264.37
434.354
1308.85
471.952
1228.27
584.061
1018.33
742.025
703.055
894.311
345.857
941.145
742.688
-182.373
1449.09
-226.808
1994.94
-207.499
1739.91
-211.691
1530.54
-261.077
1416.42
-329.125
1312.53
-386.601
1196.47
-422
1064.11
-430.382
922.398
-411.051
774.324
-366.683
627.809
-303.229
494.553
-227.849
394.224
-141.195
347.7
-38.9323
369.692
74.158
470.971
162.193
653.992
175.29
881.216
95.425
1021.01
838.113
68.8579
1380.24
25.012
2038.78
-152.587
1917.51
-343.757
1721.71
-531.499
1604.16
-724.875
1505.91
-921.958
1393.55
-1118.08
1260.23
-1311.01
1115.33
-1501.37
964.68
-1687.55
813.986
-1859.76
666.763
-1992.77
527.243
-2041.94
396.865
-1952.62
280.377
-1684.75
203.101
-1250.5
219.742
-733.476
364.188
-274.38
561.916
563.733
584.5
795.735
951.101
1672.18
881.467
1987.15
621.905
1981.27
363.768
1862.3
147.604
1722.07
-35.8773
1577.03
-205.906
1430.26
-373.312
1282.74
-544.287
1135.66
-719.29
988.988
-895.187
842.66
-1064.91
696.962
-1218.38
550.338
-1339
400.992
-1390.08
254.186
-1309.5
139.16
-1037.97
92.6559
-577.549
101.497
-13.8159
499.319
1080.53
1451.74
1637.86
1745.69
1830.5
1854.9
1869.26
1850.08
1796.9
1709.7
1589.1
1435.54
1247.54
1020.96
755.747
475.71
237.591
99.0537
)
;

boundaryField
{
    outletWall
    {
        type            calculated;
        value           nonuniform List<scalar> 
60
(
17099.6
-1009.54
-1396.81
-4272.65
-9104.52
-17396.1
-22862.4
-22350.2
-17100.5
-9893.88
-101.147
-4695.79
-15972.3
-20766.5
-20114.8
-18748.4
-16370.5
-14438.4
-12238.7
-9453.8
9891.65
5666.96
4045.2
4030.81
3974.38
3529.53
2988.02
2546.66
2262.74
2083.57
1967.06
1890.06
1842.14
1813.2
1795.94
1786.42
1782.8
1783.23
1793.27
1819.86
2614.15
-7671.88
-12156.9
-15118.6
-15815.6
3131.95
26285.2
34398.8
33500.7
30633.6
26981.2
22598.4
17779.8
13554.8
10599.5
8710.89
7506.31
5389.93
2793.89
5177.38
)
;
    }
    fineWalls
    {
        type            calculated;
        value           uniform 0;
    }
    fineFrontAndBack
    {
        type            calculated;
        value           nonuniform List<scalar> 
960
(
-3.22201e-12
-1.3734e-11
-2.53599e-12
-2.75418e-12
-1.6034e-11
-2.547e-12
-2.67149e-12
-1.8193e-12
-1.52194e-11
-3.18105e-12
-3.05859e-12
-1.65114e-11
-2.38935e-12
-1.81386e-12
-1.46504e-11
-2.50636e-12
-1.89475e-12
-1.39795e-11
-2.42682e-12
-2.1794e-12
-4.19995e-13
-3.50579e-13
-2.24004e-13
-1.17226e-13
-6.3895e-14
-3.02738e-14
-2.21356e-12
3.39306e-14
1.61436e-14
-2.71603e-14
-9.11876e-14
-1.66992e-13
-2.5384e-13
-3.53945e-13
-4.69735e-13
-6.01809e-13
-7.2994e-13
-9.00938e-13
-1.05439e-12
-1.32296e-12
-3.26629e-11
-4.12789e-12
-3.46315e-12
-3.01972e-12
3.74106e-12
3.22639e-12
6.0806e-12
4.78238e-12
1.94705e-10
6.23223e-11
8.57852e-11
7.48769e-11
-7.32052e-13
2.44208e-12
2.25846e-12
2.38274e-11
5.27765e-12
5.7088e-12
6.22591e-12
4.66419e-11
1.82237e-12
1.54359e-12
1.39304e-12
1.21226e-12
1.06034e-12
9.05887e-13
7.69784e-13
6.53083e-13
5.53548e-13
4.71561e-13
4.04449e-13
3.58492e-13
3.40061e-13
9.68501e-12
3.21271e-13
3.17614e-13
3.38968e-13
4.06552e-13
4.86482e-13
5.07088e-13
2.52182e-12
2.72221e-12
1.54452e-11
2.45172e-12
3.03864e-12
2.74096e-11
1.34139e-11
1.80904e-11
4.11007e-11
3.44392e-12
2.63448e-12
1.9826e-11
5.33389e-12
5.64149e-12
5.84668e-12
2.89656e-11
5.45498e-12
5.64617e-12
2.62189e-11
7.22154e-12
-3.53083e-11
-3.307e-11
-2.86308e-11
-2.33016e-11
-1.49267e-11
-6.39269e-12
-1.20137e-12
-1.09085e-12
1.26206e-12
-1.2797e-12
-7.16841e-13
5.33023e-12
7.67756e-12
6.73731e-12
4.80017e-12
3.82934e-12
5.75429e-12
1.17654e-11
-1.2415e-13
-3.52418e-11
-3.27942e-11
-2.83377e-11
-2.28687e-11
-1.45056e-11
-6.14619e-12
-1.16908e-12
-1.08307e-12
1.25393e-12
-1.30979e-12
-5.36216e-13
5.42901e-12
7.67998e-12
6.7117e-12
4.80024e-12
3.82311e-12
4.91927e-12
9.9548e-12
-1.39791e-12
-3.51439e-11
-3.24476e-11
-2.79559e-11
-2.23108e-11
-1.3965e-11
-5.83252e-12
-1.12826e-12
-1.07664e-12
1.22741e-12
-1.27288e-12
-2.82831e-13
5.57362e-12
7.68097e-12
6.66504e-12
4.79075e-12
3.84297e-12
3.95847e-12
7.72886e-12
-9.06971e-13
-3.50222e-11
-3.20765e-11
-2.75316e-11
-2.1701e-11
-1.33796e-11
-5.496e-12
-1.08146e-12
-1.06855e-12
1.19366e-12
-1.20405e-12
2.49359e-14
5.75274e-12
7.67634e-12
6.58985e-12
4.75749e-12
3.94918e-12
2.91428e-12
6.38003e-12
-7.24037e-12
-3.48792e-11
-3.16901e-11
-2.70754e-11
-2.10584e-11
-1.27711e-11
-5.15273e-12
-1.03874e-12
-1.0637e-12
1.15329e-12
-1.1472e-12
3.94495e-13
5.96523e-12
7.66221e-12
6.48647e-12
4.70598e-12
3.88266e-12
7.37362e-12
1.01764e-11
-1.63414e-12
-3.47156e-11
-3.12883e-11
-2.65898e-11
-2.03918e-11
-1.2153e-11
-4.81174e-12
-9.8748e-13
-1.06179e-12
1.07982e-12
-1.14645e-12
8.38096e-13
6.1898e-12
7.62495e-12
6.30274e-12
4.61154e-12
1.32026e-11
2.92718e-11
3.77108e-11
2.73926e-11
-3.45297e-11
-3.08666e-11
-2.60776e-11
-1.97133e-11
-1.15386e-11
-4.49333e-12
-9.94543e-13
-1.07756e-12
8.88134e-13
-1.12666e-12
1.39608e-12
6.48415e-12
7.56584e-12
5.76648e-12
5.43324e-12
4.06099e-11
5.86604e-11
6.48321e-11
1.65442e-11
-3.43143e-11
-3.04161e-11
-2.55482e-11
-1.90581e-11
-1.09657e-11
-4.16952e-12
-9.1016e-13
-1.0292e-12
6.45958e-13
-9.39363e-13
1.87658e-12
6.48712e-12
7.25208e-12
5.01723e-12
1.44877e-11
4.73584e-11
5.44798e-11
6.43331e-11
6.72501e-11
-3.40573e-11
-2.99242e-11
-2.50111e-11
-1.84684e-11
-1.04974e-11
-3.89061e-12
-6.7491e-13
-7.52891e-13
6.42498e-13
-5.16436e-13
2.69775e-12
7.7355e-12
6.93415e-12
7.75284e-12
2.19016e-11
3.42061e-11
4.41454e-11
5.00924e-11
5.09731e-11
-3.3745e-11
-2.93673e-11
-2.44486e-11
-1.79502e-11
-1.01865e-11
-3.8126e-12
-1.72219e-12
-6.22579e-13
6.46539e-13
1.45224e-13
2.41503e-12
3.76414e-12
7.05174e-12
2.05514e-12
1.31437e-12
5.19149e-11
6.85566e-11
8.3087e-11
7.81747e-11
-3.33414e-11
-2.86553e-11
-2.37588e-11
-1.74357e-11
-1.00606e-11
-3.8555e-12
-6.59455e-13
-1.34958e-12
-2.83862e-13
4.11132e-13
1.85449e-12
2.47483e-12
6.60638e-12
-3.41105e-12
-7.33981e-12
3.01868e-11
4.47007e-11
1.06791e-10
2.07127e-10
-3.27284e-11
-2.76006e-11
-2.27902e-11
-1.68434e-11
-1.01138e-11
-4.31951e-12
-9.07373e-13
-2.55193e-12
-1.60812e-12
5.97915e-13
1.52235e-12
3.25195e-12
5.62336e-12
-5.45628e-12
-6.57429e-12
-3.28559e-12
-3.91948e-11
-4.16842e-11
-2.57513e-11
-3.17279e-11
-2.60749e-11
-2.15287e-11
-1.62463e-11
-1.05749e-11
-5.78224e-12
-3.06952e-12
-3.27573e-12
-4.83613e-13
2.19749e-12
1.56431e-12
4.19613e-12
4.13479e-12
-5.69287e-12
-3.86659e-12
-1.47789e-11
-5.01951e-11
-4.39431e-11
-4.6703e-11
-3.03754e-11
-2.43347e-11
-2.02815e-11
-1.59131e-11
-1.16232e-11
-8.21788e-12
-6.18464e-12
-3.00994e-12
4.58489e-12
5.43601e-12
2.01804e-12
4.85757e-12
2.16698e-12
-4.66652e-12
2.51673e-13
-2.01625e-11
-5.57526e-11
-3.82432e-11
-1.23122e-11
-2.90284e-11
-2.2693e-11
-1.92463e-11
-1.57724e-11
-1.23086e-11
-9.32081e-12
-6.96388e-12
-5.18495e-13
1.09694e-11
7.23154e-12
2.87202e-12
4.81006e-12
4.04586e-13
-1.15754e-12
4.91465e-12
-2.48511e-11
-4.86002e-11
-3.97291e-11
-3.42703e-11
-2.72835e-11
-1.9692e-11
-1.72471e-11
-1.42376e-11
-1.0116e-11
-5.88737e-12
-2.62449e-12
4.98748e-12
1.4806e-11
6.11992e-12
3.97432e-12
4.00815e-12
1.46985e-13
5.28489e-12
7.78154e-12
-3.53454e-11
-4.25484e-11
-3.69565e-11
-3.34793e-11
-2.1606e-11
-9.9779e-12
-1.11958e-11
-8.65088e-12
-3.46528e-12
1.57298e-12
4.62731e-12
1.05051e-11
1.33295e-11
4.80484e-12
4.84663e-12
2.90917e-12
2.31974e-12
1.29486e-11
6.02587e-12
-5.26049e-11
-4.2413e-11
-3.59101e-11
-2.88104e-11
-6.64993e-12
8.56872e-12
2.66788e-13
9.58182e-13
5.30845e-12
8.83778e-12
1.00688e-11
1.21385e-11
9.42498e-12
5.29438e-12
5.16847e-12
2.39435e-12
6.46315e-12
1.85769e-11
1.74151e-13
-5.65231e-11
-4.30987e-11
-3.60598e-11
-2.73984e-11
1.24065e-11
2.18691e-11
1.21203e-11
1.14902e-11
1.28407e-11
1.33904e-11
1.25095e-11
1.12751e-11
8.43889e-12
6.86411e-12
4.48229e-12
2.20016e-12
1.12447e-11
2.15137e-11
-6.80256e-12
-4.96968e-11
-4.29805e-11
-3.58491e-11
-2.64437e-11
1.95628e-11
2.38303e-11
1.81864e-11
1.75487e-11
1.63206e-11
1.47444e-11
1.2911e-11
1.09209e-11
8.76401e-12
6.35694e-12
3.47285e-12
5.81777e-12
1.71014e-11
1.75726e-11
-1.89141e-11
-4.68192e-11
-4.27953e-11
-3.55805e-11
-2.5581e-11
3.22201e-12
1.3734e-11
2.53599e-12
2.75418e-12
1.6034e-11
2.547e-12
2.67149e-12
1.8193e-12
1.52194e-11
3.18105e-12
3.05859e-12
1.65114e-11
2.38935e-12
1.81386e-12
1.46504e-11
2.50636e-12
1.89475e-12
1.39795e-11
2.42682e-12
2.1794e-12
4.19995e-13
3.50579e-13
2.24004e-13
1.17226e-13
6.3895e-14
3.02738e-14
2.21356e-12
-3.39306e-14
-1.61436e-14
2.71603e-14
9.11876e-14
1.66992e-13
2.5384e-13
3.53945e-13
4.69735e-13
6.01809e-13
7.2994e-13
9.00938e-13
1.05439e-12
1.32296e-12
3.26629e-11
4.12789e-12
3.46315e-12
3.01972e-12
-3.74106e-12
-3.22639e-12
-6.0806e-12
-4.78238e-12
-1.94705e-10
-6.23223e-11
-8.57852e-11
-7.48769e-11
7.32052e-13
-2.44208e-12
-2.25846e-12
-2.38274e-11
-5.27765e-12
-5.7088e-12
-6.22591e-12
-4.66419e-11
-1.82237e-12
-1.54359e-12
-1.39304e-12
-1.21226e-12
-1.06034e-12
-9.05887e-13
-7.69784e-13
-6.53083e-13
-5.53548e-13
-4.71561e-13
-4.04449e-13
-3.58492e-13
-3.40061e-13
-9.68501e-12
-3.21271e-13
-3.17614e-13
-3.38968e-13
-4.06552e-13
-4.86482e-13
-5.07088e-13
-2.52182e-12
-2.72221e-12
-1.54452e-11
-2.45172e-12
-3.03864e-12
-2.74096e-11
-1.34139e-11
-1.80904e-11
-4.11007e-11
-3.44392e-12
-2.63448e-12
-1.9826e-11
-5.33389e-12
-5.64149e-12
-5.84668e-12
-2.89656e-11
-5.45498e-12
-5.64617e-12
-2.62189e-11
-7.22154e-12
3.53083e-11
3.307e-11
2.86308e-11
2.33016e-11
1.49267e-11
6.39269e-12
1.20137e-12
1.09085e-12
-1.26206e-12
1.2797e-12
7.16841e-13
-5.33023e-12
-7.67756e-12
-6.73731e-12
-4.80017e-12
-3.82934e-12
-5.75429e-12
-1.17654e-11
1.2415e-13
3.52418e-11
3.27942e-11
2.83377e-11
2.28687e-11
1.45056e-11
6.14619e-12
1.16908e-12
1.08307e-12
-1.25393e-12
1.30979e-12
5.36216e-13
-5.42901e-12
-7.67998e-12
-6.7117e-12
-4.80024e-12
-3.82311e-12
-4.91927e-12
-9.9548e-12
1.39791e-12
3.51439e-11
3.24476e-11
2.79559e-11
2.23108e-11
1.3965e-11
5.83252e-12
1.12826e-12
1.07664e-12
-1.22741e-12
1.27288e-12
2.82831e-13
-5.57362e-12
-7.68097e-12
-6.66504e-12
-4.79075e-12
-3.84297e-12
-3.95847e-12
-7.72886e-12
9.06971e-13
3.50222e-11
3.20765e-11
2.75316e-11
2.1701e-11
1.33796e-11
5.496e-12
1.08146e-12
1.06855e-12
-1.19366e-12
1.20405e-12
-2.49359e-14
-5.75274e-12
-7.67634e-12
-6.58985e-12
-4.75749e-12
-3.94918e-12
-2.91428e-12
-6.38003e-12
7.24037e-12
3.48792e-11
3.16901e-11
2.70754e-11
2.10584e-11
1.27711e-11
5.15273e-12
1.03874e-12
1.0637e-12
-1.15329e-12
1.1472e-12
-3.94495e-13
-5.96523e-12
-7.66221e-12
-6.48647e-12
-4.70598e-12
-3.88266e-12
-7.37362e-12
-1.01764e-11
1.63414e-12
3.47156e-11
3.12883e-11
2.65898e-11
2.03918e-11
1.2153e-11
4.81174e-12
9.8748e-13
1.06179e-12
-1.07982e-12
1.14645e-12
-8.38096e-13
-6.1898e-12
-7.62495e-12
-6.30274e-12
-4.61154e-12
-1.32026e-11
-2.92718e-11
-3.77108e-11