/*--------------------------------*- C++ -*----------------------------------*\
| =========                 |                                                 |
| \\      /  F ield         | OpenFOAM: The Open Source CFD Toolbox           |
|  \\    /   O peration     | Version:  4.1                                   |
|   \\  /    A nd           | Web:      www.OpenFOAM.org                      |
|    \\/     M anipulation  |                                                 |
\*---------------------------------------------------------------------------*/
FoamFile
{
    version     2.0;
    format      ascii;
    class       volVectorField;
    location    "25";
    object      U;
}
// * * * * * * * * * * * * * * * * * * * * * * * * * * * * * * * * * * * * * //

dimensions      [0 1 -1 0 0 0 0];

internalField   nonuniform List<vector> 
1280
(
(-2.32846e-15 -0.873295 -1.6802)
(-2.33423e-15 -0.0165736 -1.65009)
(-1.83269e-15 -0.630683 -1.53864)
(-1.99037e-15 -0.20513 -1.66951)
(-2.72514e-15 0.32396 -2.13843)
(-1.84065e-15 0.162661 -1.4787)
(-1.93062e-15 0.471495 -1.43923)
(-1.24556e-15 0.590645 -1.25303)
(-2.68765e-15 1.10293 -2.22316)
(-2.32411e-15 1.08672 -1.777)
(-2.22298e-15 1.37222 -1.53075)
(-2.74847e-15 1.96136 -2.6083)
(-1.72683e-15 1.89595 -2.06859)
(-1.32528e-15 2.2658 -1.77912)
(-2.54544e-15 2.99172 -3.21133)
(-1.81128e-15 2.98494 -2.56452)
(-1.36928e-15 3.4206 -2.14214)
(-2.37595e-15 4.53637 -4.22177)
(-1.7538e-15 4.28554 -3.63762)
(-1.575e-15 5.05003 -2.94447)
(-1.72306e-15 5.05012 -3.4918)
(-1.43827e-15 5.23764 -0.154211)
(-9.18992e-16 5.05883 4.74809)
(-4.80929e-16 5.04666 8.88577)
(-2.62133e-16 4.99841 11.2796)
(-1.242e-16 5.36877 12.5411)
(-4.66626e-16 2.74627 9.10056)
(1.39202e-16 8.74259 15.5255)
(6.62299e-17 8.59638 15.4837)
(-1.11427e-16 8.68331 15.0888)
(-3.74103e-16 8.71052 14.5463)
(-6.85095e-16 8.67312 13.9334)
(-1.04139e-15 8.63233 13.2913)
(-1.45208e-15 8.58464 12.6494)
(-1.92712e-15 8.51952 12.0354)
(-2.46896e-15 8.44668 11.46)
(-2.99463e-15 8.35764 10.9562)
(-3.69616e-15 8.24283 10.5086)
(-4.32572e-15 8.17133 10.21)
(-5.42752e-15 7.87557 9.40666)
(-5.68544e-15 8.39292 11.5713)
(-3.31557e-15 5.34036 8.38109)
(-2.78164e-15 4.52807 8.36775)
(-2.39693e-15 3.50446 8.51565)
(1.10792e-15 1.83786 8.09035)
(2.59147e-15 0.989957 4.52609)
(4.88402e-15 0.359498 4.13636)
(3.84127e-15 -0.0308435 3.38013)
(3.86818e-14 -0.25726 -1.77116)
(6.7683e-14 0.350495 -3.35065)
(6.89038e-14 -0.820736 -4.29565)
(1.30334e-14 0.141243 2.21613)
(-5.87994e-16 -0.883496 5.24061)
(1.96151e-15 -1.4833 4.91359)
(1.81402e-15 -2.01375 5.19814)
(4.14751e-15 -3.51394 8.44949)
(4.25031e-15 -4.65521 8.05536)
(4.58362e-15 -5.70793 8.03126)
(5.00073e-15 -6.41726 8.06115)
(8.01731e-15 -10.0895 11.0696)
(7.47637e-15 -8.76149 8.91326)
(6.33267e-15 -9.02902 9.74018)
(5.71503e-15 -9.06304 10.1241)
(4.97335e-15 -9.1666 10.6455)
(4.35012e-15 -9.24009 11.1975)
(3.71646e-15 -9.30471 11.7672)
(3.15809e-15 -9.35758 12.311)
(2.67931e-15 -9.38943 12.8175)
(2.27096e-15 -9.40333 13.2704)
(1.93461e-15 -9.40131 13.6577)
(1.65928e-15 -9.33669 13.9574)
(1.47074e-15 -9.20302 14.1168)
(1.39512e-15 -9.2244 13.9722)
(2.04164e-15 -3.42476 6.64971)
(1.31803e-15 -5.81017 10.5786)
(1.30303e-15 -5.36377 9.28667)
(1.39064e-15 -5.38948 6.98195)
(1.66791e-15 -5.33416 2.99323)
(1.99582e-15 -5.4834 -1.69919)
(2.08036e-15 -5.27093 -5.0169)
(1.82245e-15 -5.12896 -4.35257)
(1.95228e-15 -4.21622 -4.89243)
(2.62507e-15 -4.21264 -6.24366)
(1.7718e-15 -2.8785 -4.1857)
(2.19595e-15 -1.98564 -4.46966)
(4.56399e-15 -1.75321 -5.72624)
(9.69385e-15 -0.869976 -3.61987)
(1.30735e-14 0.349329 -3.60789)
(7.52236e-15 0.707197 -4.38526)
(2.48883e-15 1.08146 -3.1414)
(1.82993e-15 1.8315 -3.00095)
(3.67299e-15 2.41474 -3.98749)
(3.89258e-15 2.58719 -2.85292)
(4.07696e-15 3.22356 -2.82097)
(4.22525e-15 3.4375 -2.66595)
(4.92298e-15 4.45436 -3.56799)
(3.94217e-15 4.0945 -2.58486)
(4.0736e-15 4.84379 -2.37548)
(4.49808e-15 4.71566 -3.07791)
(5.21882e-15 5.61586 -3.16187)
(-3.92315e-15 -3.15087 1.51787)
(-3.67445e-15 -4.07822 1.65781)
(-3.1812e-15 -4.80546 1.63315)
(-2.58907e-15 -5.44357 1.61224)
(-1.65853e-15 -6.22503 1.45971)
(-7.10298e-16 -6.67255 1.1477)
(-1.33485e-16 -6.87329 0.782182)
(-1.21205e-16 -5.29274 -0.0103665)
(1.40229e-16 -1.58852 -0.0594357)
(-1.42189e-16 -0.0687233 0.265223)
(-7.9649e-17 -3.31103 0.429866)
(5.92247e-16 -5.71874 0.673281)
(8.53062e-16 -7.46548 0.661545)
(7.4859e-16 -7.63885 0.480582)
(5.33352e-16 -5.82506 -0.0164727)
(4.25483e-16 -3.07491 -0.701577)
(6.39366e-16 -1.44496 -1.78036)
(1.30727e-15 -0.427104 -2.2003)
(-1.37944e-17 -0.295882 -3.19051)
(-3.91576e-15 -3.20371 1.5018)
(-3.6438e-15 -4.12017 1.65779)
(-3.14864e-15 -4.80625 1.63236)
(-2.54097e-15 -5.4106 1.61129)
(-1.61173e-15 -6.11768 1.4586)
(-6.8291e-16 -6.50447 1.15522)
(-1.29897e-16 -6.58186 0.780886)
(-1.20341e-16 -5.07614 0.000744565)
(1.39325e-16 -1.57527 -0.0858342)
(-1.45532e-16 -0.251615 0.238538)
(-5.95795e-17 -3.39339 0.520206)
(6.03224e-16 -5.76065 0.803397)
(8.53331e-16 -7.36917 0.827335)
(7.45744e-16 -7.36437 0.633274)
(5.3336e-16 -5.35047 0.051782)
(4.2479e-16 -2.33494 -0.946848)
(5.46585e-16 -0.830362 -2.3937)
(1.10609e-15 -0.108656 -3.40374)
(-1.55323e-16 0.0371936 -3.03259)
(-3.90487e-15 -3.23653 1.49392)
(-3.60529e-15 -4.1387 1.6628)
(-3.10621e-15 -4.79162 1.63502)
(-2.47898e-15 -5.3663 1.61659)
(-1.55167e-15 -6.01753 1.46423)
(-6.48058e-16 -6.35417 1.17082)
(-1.25362e-16 -6.33372 0.775213)
(-1.19627e-16 -4.89711 0.00245646)
(1.36379e-16 -1.6069 -0.131989)
(-1.41431e-16 -0.453297 0.263544)
(-3.14256e-17 -3.50883 0.650795)
(6.19291e-16 -5.84743 0.993523)
(8.53441e-16 -7.36554 1.0768)
(7.4056e-16 -7.23797 0.886636)
(5.32305e-16 -5.05925 0.222252)
(4.26996e-16 -1.82253 -1.20673)
(4.3983e-16 -0.345332 -3.21822)
(8.58762e-16 -0.115271 -4.57707)
(-1.00775e-16 -0.172746 -4.00023)
(-3.89135e-15 -3.27452 1.49439)
(-3.56405e-15 -4.16139 1.67038)
(-3.05907e-15 -4.78392 1.63706)
(-2.41122e-15 -5.33205 1.62176)
(-1.48662e-15 -5.93586 1.46907)
(-6.10667e-16 -6.22302 1.18437)
(-1.20162e-16 -6.11542 0.769)
(-1.18728e-16 -4.73274 0.0163525)
(1.32628e-16 -1.62892 -0.161827)
(-1.33783e-16 -0.666292 0.320532)
(2.77066e-18 -3.65264 0.81829)
(6.39193e-16 -5.94726 1.23114)
(8.52927e-16 -7.36525 1.39147)
(7.32205e-16 -7.08111 1.23497)
(5.2861e-16 -4.63426 0.501305)
(4.38798e-16 -1.0293 -1.48527)
(3.23809e-16 0.358625 -4.23153)
(7.08892e-16 0.0983504 -5.86904)
(-8.04486e-16 -0.322082 -5.06316)
(-3.87546e-15 -3.31825 1.49862)
(-3.52112e-15 -4.18683 1.68)
(-3.00838e-15 -4.77778 1.63806)
(-2.33983e-15 -5.29797 1.62643)
(-1.41901e-15 -5.85169 1.47267)
(-5.72526e-16 -6.08115 1.19534)
(-1.15415e-16 -5.8826 0.763193)
(-1.18189e-16 -4.55287 0.041922)
(1.28143e-16 -1.65794 -0.18417)
(-1.27467e-16 -0.918838 0.397042)
(4.38328e-17 -3.84125 1.02213)
(6.62803e-16 -6.07805 1.51732)
(8.51357e-16 -7.38143 1.77374)
(7.20719e-16 -6.89688 1.68689)
(5.22887e-16 -4.01771 0.858171)
(4.31407e-16 0.300418 -2.17508)
(8.19291e-16 1.36948 -5.11912)
(1.13071e-15 0.106854 -7.10038)
(-1.81571e-16 -0.899402 -6.57595)
(-3.85729e-15 -3.36242 1.50738)
(-3.47648e-15 -4.20909 1.69154)
(-2.95442e-15 -4.76937 1.63683)
(-2.26575e-15 -5.26232 1.62812)
(-1.35034e-15 -5.76675 1.47115)
(-5.34638e-16 -5.93556 1.19926)
(-1.0972e-16 -5.65176 0.756153)
(-1.17976e-16 -4.36914 0.078451)
(1.1998e-16 -1.7052 -0.192418)
(-1.27383e-16 -1.21534 0.529201)
(9.31218e-17 -4.07736 1.25777)
(6.87755e-16 -6.24898 1.84139)
(8.47217e-16 -7.4421 2.21298)
(7.00304e-16 -6.73121 2.26205)
(5.12393e-16 -3.16619 1.31665)
(1.46696e-15 1.62204 -3.271)
(3.25242e-15 2.36442 -3.7893)
(4.19009e-15 1.00315 -5.31356)
(3.04362e-15 -1.05068 -6.18086)
(-3.83664e-15 -3.40697 1.52226)
(-3.42963e-15 -4.22775 1.70509)
(-2.89751e-15 -4.75865 1.63135)
(-2.19036e-15 -5.22619 1.62176)
(-1.28207e-15 -5.68298 1.45692)
(-4.99259e-16 -5.7912 1.18877)
(-1.10505e-16 -5.43337 0.746065)
(-1.19728e-16 -4.19032 0.125392)
(9.86815e-17 -1.78095 -0.109152)
(-1.25185e-16 -1.55582 0.784023)
(1.5512e-16 -4.34822 1.51382)
(7.20461e-16 -6.46175 2.18704)
(8.40648e-16 -7.56866 2.70139)
(6.4072e-16 -6.59355 2.94453)
(6.03693e-16 -1.92126 1.65022)
(4.51221e-15 2.46406 -0.175821)
(6.51782e-15 2.24032 2.60251)
(7.20356e-15 1.36913 1.17071)
(1.83824e-15 0.295724 1.23775)
(-3.8127e-15 -3.45137 1.54653)
(-3.37956e-15 -4.24135 1.72218)
(-2.83869e-15 -4.74323 1.61997)
(-2.11757e-15 -5.18716 1.60061)
(-1.21842e-15 -5.5979 1.4189)
(-4.63279e-16 -5.64837 1.15437)
(-1.01129e-16 -5.2302 0.729947)
(-1.14355e-16 -4.04092 0.189735)
(7.17731e-17 -1.92098 0.180028)
(-1.04374e-16 -1.90906 1.16255)
(2.08509e-16 -4.62644 1.76713)
(7.20791e-16 -6.72223 2.52884)
(8.05787e-16 -7.75783 3.19388)
(5.5747e-16 -6.45457 3.56986)
(1.60975e-15 -1.53112 3.09256)
(5.26204e-15 1.22501 6.88914)
(6.05331e-15 1.46618 8.85976)
(7.14812e-15 -0.136529 8.87821)
(7.47223e-15 -4.91052 9.66355)
(-3.78415e-15 -3.4934 1.58608)
(-3.32491e-15 -4.24577 1.74556)
(-2.77901e-15 -4.71766 1.6014)
(-2.05204e-15 -5.13998 1.55729)
(-1.16638e-15 -5.50896 1.34324)
(-4.3229e-16 -5.51127 1.08276)
(-7.499e-17 -5.05395 0.700384)
(-8.36545e-17 -3.97189 0.292735)
(7.13886e-17 -2.14109 0.634653)
(-5.73818e-17 -2.21868 1.55784)
(2.9975e-16 -4.88955 1.9886)
(8.59501e-16 -7.02774 2.8373)
(7.70461e-16 -8.00537 3.62129)
(8.61427e-16 -6.68602 4.18446)
(2.43351e-15 -2.78873 5.79865)
(3.80068e-15 0.232042 10.9677)
(4.90505e-15 1.6999 12.0844)
(5.56583e-15 1.20298 12.5324)
(5.66368e-15 -1.85857 11.5692)
(-3.74944e-15 -3.53088 1.64913)
(-3.26304e-15 -4.23657 1.77844)
(-2.71651e-15 -4.67548 1.57652)
(-1.99447e-15 -5.07776 1.48936)
(-1.13183e-15 -5.41249 1.22137)
(-4.23622e-16 -5.38571 0.957599)
(-2.14844e-16 -4.92253 0.633451)
(-6.91755e-17 -4.00603 0.411151)
(7.18377e-17 -2.41693 1.02875)
(1.6136e-17 -2.46269 1.82685)
(2.68336e-16 -5.13864 2.15096)
(1.64348e-16 -7.36925 3.08668)
(7.83527e-16 -8.31482 3.94194)
(2.28349e-16 -7.24452 4.64815)
(-4.26365e-16 -4.16675 6.4546)
(5.76832e-15 -1.0245 8.63894)
(7.61739e-15 0.884469 8.21947)
(9.23189e-15 0.35048 8.0984)
(8.68608e-15 -1.21195 6.27158)
(-3.7046e-15 -3.55864 1.74423)
(-3.18392e-15 -4.2067 1.8276)
(-2.63987e-15 -4.60918 1.55455)
(-1.9373e-15 -4.99188 1.40568)
(-1.11784e-15 -5.30074 1.05802)
(-4.28389e-16 -5.27068 0.767791)
(-4.91408e-17 -4.84329 0.48276)
(-1.49953e-16 -4.11571 0.436247)
(-3.15402e-17 -2.70647 1.12033)
(4.56813e-17 -2.67049 1.82308)
(2.06054e-16 -5.39947 2.24577)
(2.74981e-16 -7.74352 3.28748)
(7.34043e-16 -8.65959 4.19698)
(-3.79006e-16 -7.75592 4.97494)
(-8.15534e-16 -4.75842 6.75764)
(3.35409e-15 -1.02118 9.75576)
(4.96674e-15 1.55755 11.5738)
(1.18656e-14 2.00307 9.83521)
(2.30142e-14 1.14972 5.24638)
(-3.63649e-15 -3.57604 1.89014)
(-3.06673e-15 -4.15353 1.91136)
(-2.53224e-15 -4.51264 1.55207)
(-1.87149e-15 -4.87299 1.31683)
(-1.12376e-15 -5.16172 0.86275)
(-4.79946e-16 -5.15086 0.521206)
(-1.00819e-16 -4.79677 0.209008)
(-2.83547e-16 -4.25111 0.237898)
(-1.7868e-16 -2.98323 0.733988)
(6.6435e-17 -2.89702 1.36826)
(1.6915e-16 -5.73162 2.30465)
(3.61328e-16 -8.15088 3.47276)
(6.24818e-16 -9.00519 4.40931)
(-6.06254e-16 -8.26171 5.12885)
(-7.30476e-16 -5.83594 6.97229)
(-3.65066e-16 -2.41004 10.9999)
(-4.35498e-15 1.19667 12.4008)
(-4.63158e-15 2.67938 11.3363)
(-2.86125e-15 2.5547 11.6105)
(-3.52532e-15 -3.57112 2.12219)
(-2.89722e-15 -4.06613 2.05448)
(-2.39208e-15 -4.37629 1.57485)
(-1.80514e-15 -4.71165 1.22121)
(-1.17498e-15 -4.98713 0.648427)
(-6.42472e-16 -5.00469 0.239955)
(-3.41058e-16 -4.73643 -0.19629)
(-3.6397e-16 -4.31647 -0.278216)
(-5.37348e-17 -3.19464 -0.278706)
(2.44165e-16 -3.26447 0.404437)
(1.73812e-16 -6.25204 2.41687)
(4.66237e-16 -8.58841 3.67878)
(4.59422e-16 -9.33014 4.58752)
(-6.32541e-16 -8.75448 5.13573)
(-4.29621e-16 -6.95452 6.80355)
(-1.6421e-15 -3.23491 9.17642)
(-5.57724e-15 1.18211 5.04593)
(-4.88257e-15 2.24291 4.75222)
(-5.18922e-15 4.63208 10.6862)
(-3.37504e-15 -3.55202 2.48263)
(-2.70385e-15 -3.93741 2.23306)
(-2.2535e-15 -4.18138 1.58853)
(-1.76813e-15 -4.49698 1.11057)
(-1.29147e-15 -4.77291 0.429855)
(-9.13098e-16 -4.80811 -0.0877983)
(-6.87183e-16 -4.59422 -0.73629)
(-3.34438e-16 -4.20531 -1.11918)
(5.09432e-16 -3.2964 -1.71582)
(6.04001e-16 -3.9395 -0.463105)
(2.24227e-16 -7.05128 2.70673)
(5.3973e-16 -9.02582 3.9322)
(2.40776e-16 -9.60044 4.75758)
(-5.18502e-16 -9.14058 5.19048)
(2.79637e-17 -7.53936 6.73286)
(-2.24028e-15 -2.25897 7.0421)
(-6.19474e-15 2.8877 0.172654)
(-4.24924e-15 0.632195 -0.37188)
(-1.36802e-15 -1.62717 2.88866)
(-3.22538e-15 -3.45611 2.92511)
(-2.52144e-15 -3.71399 2.33078)
(-2.13848e-15 -3.92697 1.51804)
(-1.75249e-15 -4.24665 0.959134)
(-1.36762e-15 -4.51448 0.154268)
(-1.03565e-15 -4.53371 -0.57269)
(-7.73764e-16 -4.32813 -1.46999)
(-5.76106e-17 -3.92304 -2.21177)
(1.21882e-15 -3.48622 -2.88645)
(8.03504e-16 -5.0081 -0.255486)
(3.19114e-16 -8.00283 3.2007)
(5.34451e-16 -9.41742 4.24897)
(4.4954e-17 -9.84946 4.9781)
(-1.28615e-16 -9.51055 5.5025)
(5.46073e-16 -7.70257 6.90605)
(-2.76124e-15 -0.531588 5.0336)
(-5.40002e-15 3.87987 -0.571495)
(-4.41434e-15 1.83408 0.908428)
(-3.80781e-15 -0.309766 -3.51475)
(-3.0315e-15 -3.29985 3.2821)
(-2.188e-15 -3.38999 2.05577)
(-1.91634e-15 -3.62813 1.16885)
(-1.58196e-15 -3.94945 0.600718)
(-1.124e-15 -4.16134 -0.353196)
(-6.54153e-16 -4.15098 -1.32292)
(-2.91609e-16 -3.94356 -2.38082)
(5.54164e-16 -3.64532 -3.20387)
(1.64512e-15 -4.05254 -2.85228)
(6.79991e-16 -6.38947 1.15467)
(4.41591e-16 -8.83705 3.77524)
(4.4535e-16 -9.74934 4.61769)
(1.63316e-17 -10.105 5.3123)
(5.8721e-16 -9.83379 6.12647)
(8.64616e-16 -7.40478 7.0576)
(-3.92727e-15 1.18601 2.97754)
(-4.7276e-15 4.39971 0.162243)
(-4.10627e-15 2.1778 0.32951)
(-3.71992e-15 0.880759 -2.49664)
(-2.40067e-15 -2.91339 3.3155)
(-1.10866e-15 -2.91058 1.24207)
(-1.24397e-15 -3.3423 0.400176)
(-9.61209e-16 -3.63947 -0.171782)
(-3.85031e-16 -3.75456 -1.17102)
(1.74775e-16 -3.72183 -2.17907)
(5.14146e-16 -3.57341 -3.08983)
(1.16723e-15 -3.73059 -3.20754)
(1.48106e-15 -5.20577 -0.920364)
(5.33871e-16 -7.66748 2.86369)
(5.38515e-16 -9.36711 4.31322)
(3.23241e-16 -10.0399 5.04148)
(2.57749e-16 -10.4745 5.82841)
(1.43873e-15 -10.1738 6.87002)
(6.69541e-16 -6.62675 6.76946)
(-5.84499e-15 2.34461 0.845411)
(-4.71255e-15 4.75885 0.711994)
(-3.99002e-15 2.819 -0.00183588)
(-3.20115e-15 1.41497 -1.70343)
(-7.38881e-16 -2.42836 3.30719)
(9.5208e-16 -2.23984 0.767497)
(2.96431e-17 -3.02447 -0.0824789)
(1.06465e-16 -3.30922 -0.684435)
(5.89827e-16 -3.34245 -1.56735)
(9.81975e-16 -3.35 -2.26634)
(1.11876e-15 -3.52304 -2.45684)
(1.34872e-15 -4.50095 -1.01281)
(1.04722e-15 -6.50838 1.99471)
(5.88265e-16 -8.48414 4.1868)
(5.74275e-16 -9.71551 4.86934)
(2.66039e-16 -10.3746 5.52447)
(7.18127e-16 -10.8318 6.41764)
(2.0641e-15 -10.0825 7.42943)
(1.93502e-17 -5.11205 6.0045)
(-6.28034e-15 3.31301 -0.440144)
(-4.78875e-15 4.71103 0.624237)
(-4.00665e-15 3.23825 -0.402784)
(-3.04426e-15 1.86192 -1.44221)
(1.3785e-15 -1.78436 4.67255)
(2.4299e-15 -1.63299 3.0981)
(1.34669e-15 -2.76467 1.43335)
(1.27668e-15 -3.06521 0.42148)
(1.42675e-15 -3.14868 -0.375865)
(1.48782e-15 -3.39772 -0.513784)
(1.38994e-15 -4.09725 0.340679)
(1.25279e-15 -5.51046 2.23966)
(9.37655e-16 -7.28975 4.03237)
(7.62679e-16 -8.80606 4.87631)
(4.98032e-16 -9.86802 5.2626)
(2.44462e-16 -10.6311 5.94349)
(1.24942e-15 -11.2713 7.02929)
(2.39041e-15 -10.1239 7.71211)
(-7.5584e-16 -3.59371 4.80812)
(-5.52187e-15 4.45776 -0.369909)
(-4.77561e-15 4.7922 0.322258)
(-3.98323e-15 3.61741 -0.626398)
(-2.93819e-15 2.22245 -1.33336)
(2.17365e-15 -1.72052 8.22612)
(2.64781e-15 -0.962785 8.12975)
(2.02071e-15 -1.85471 6.30239)
(1.94985e-15 -2.52962 5.36081)
(1.8134e-15 -2.93085 4.74874)
(1.63827e-15 -3.56991 4.59224)
(1.43455e-15 -4.5655 4.88249)
(1.21344e-15 -5.96767 5.40009)
(9.73779e-16 -7.55451 5.74618)
(7.06327e-16 -8.99413 5.92183)
(3.85872e-16 -10.1938 6.23696)
(6.46419e-16 -11.1457 6.90599)
(1.90015e-15 -11.4894 7.72727)
(1.95251e-15 -8.91254 7.29442)
(-2.10156e-15 -1.17507 3.20027)
(-5.20213e-15 5.1044 0.0533504)
(-4.75503e-15 5.01124 0.0668696)
(-3.95339e-15 4.02664 -0.704129)
(-2.84233e-15 2.5417 -1.2751)
(-9.20037e-17 4.1834 7.00045)
(1.53872e-16 14.1247 21.5368)
(4.8257e-16 20.3016 30.5226)
(6.43812e-16 22.0947 32.8444)
(6.2799e-16 21.4123 31.3533)
(6.53533e-16 20.1043 28.7372)
(9.17914e-16 18.6207 26.108)
(1.14933e-15 17.2841 23.7256)
(1.35528e-15 15.987 21.5124)
(1.68219e-15 14.6688 19.3812)
(2.09414e-15 13.2991 17.2715)
(2.66932e-15 11.869 15.1626)
(3.22097e-15 10.3766 13.0614)
(3.58022e-15 8.83256 10.9704)
(3.52353e-15 7.22289 8.90322)
(3.25156e-15 5.5833 6.87209)
(2.81048e-15 3.89988 4.95013)
(1.6217e-15 2.357 3.13333)
(-1.91284e-16 0.331771 1.04881)
(-3.76867e-15 -1.36259 -3.64106)
(2.22663e-17 11.0529 18.6877)
(-2.6675e-16 19.6108 30.8583)
(-2.15353e-16 19.973 31.231)
(-1.69567e-16 17.8892 28.438)
(-2.79454e-16 15.9738 26.1884)
(-5.62436e-16 14.5668 24.5315)
(-9.19805e-17 13.1546 22.8055)
(3.95327e-16 11.6072 20.7232)
(1.11693e-15 9.94328 18.4436)
(2.42865e-15 8.25162 16.0724)
(4.37844e-15 6.51721 13.6678)
(6.92147e-15 4.76984 11.243)
(8.89126e-15 3.02066 8.81325)
(9.094e-15 1.26816 6.34387)
(7.9768e-15 -0.495759 3.79451)
(8.00288e-15 -2.10705 1.30919)
(8.11142e-15 -3.07691 -0.386466)
(4.26537e-15 -2.69055 -0.292753)
(5.49645e-16 -0.772673 1.659)
(5.43143e-16 0.906562 2.99479)
(3.0859e-17 13.8818 24.184)
(-7.48371e-16 18.7571 32.0867)
(-5.86813e-16 15.7603 27.5712)
(-6.75493e-16 13.5824 24.3525)
(-1.12882e-15 12.4202 23.064)
(-1.81459e-15 11.2677 21.6839)
(-1.14523e-15 9.79048 19.8691)
(-8.55778e-16 8.18581 17.7565)
(-2.21395e-16 6.48181 15.5174)
(9.69963e-16 4.75986 13.2091)
(2.94167e-15 3.0432 10.9225)
(5.15386e-15 1.41281 8.75497)
(5.9972e-15 -0.0341276 6.83164)
(3.98683e-15 -1.16037 5.25643)
(-1.11726e-16 -1.73261 4.25637)
(-3.68023e-15 -1.29222 4.4397)
(-4.82922e-15 0.679623 6.61221)
(-3.78383e-15 4.09311 10.6495)
(-1.77372e-15 7.39413 14.2093)
(-3.2711e-16 6.20766 12.1998)
(8.21561e-20 11.9135 20.8777)
(1.23335e-16 16.4541 29.3763)
(1.13068e-16 14.6002 26.0007)
(7.50769e-17 12.8981 22.9522)
(-2.9669e-16 11.534 20.7886)
(-1.53957e-15 10.3893 18.9676)
(-1.11782e-15 9.19492 17.2057)
(-1.12253e-15 7.98905 15.247)
(-1.09283e-15 6.70341 13.1234)
(-7.18544e-16 5.41951 10.8638)
(1.57108e-16 4.19562 8.62362)
(1.18262e-15 3.18998 6.66365)
(1.32201e-15 2.63742 5.44362)
(3.26779e-16 2.83989 5.50781)
(-1.62407e-15 3.95592 7.11683)
(-2.88338e-15 5.85867 10.0251)
(-2.34418e-15 8.09985 13.4862)
(-7.85256e-16 9.83995 16.486)
(4.75305e-16 10.5511 17.3167)
(8.83092e-17 7.54218 13.6725)
(-5.1326e-19 10.4637 18.1877)
(-1.57283e-17 17.537 30.6831)
(-1.2084e-17 16.2843 28.1714)
(-3.87117e-18 14.1831 24.0359)
(6.66343e-17 12.5849 21.2844)
(2.86844e-16 11.6547 19.3286)
(2.04451e-16 10.8305 17.8273)
(1.64535e-16 10.1479 16.3671)
(1.13563e-16 9.47384 14.9344)
(3.45317e-17 8.85408 13.4692)
(-1.04046e-16 8.27092 11.9664)
(-3.66586e-16 7.7386 10.442)
(-8.33029e-16 7.27247 8.97976)
(-1.48181e-15 6.9813 7.88158)
(-2.08659e-15 6.97552 7.47839)
(-2.18276e-15 7.28483 8.05693)
(-1.46503e-15 7.86206 9.48371)
(-1.83103e-16 8.23878 11.1636)
(8.00113e-16 7.92532 11.7495)
(6.25757e-16 5.60054 9.20335)
(6.72535e-20 10.3416 17.7688)
(2.47947e-19 18.3482 31.3707)
(-8.08354e-19 17.0573 29.363)
(-1.94218e-18 14.9941 25.1619)
(-8.45079e-18 13.4173 22.5556)
(-3.13391e-17 12.5867 20.6311)
(-1.61423e-17 11.7963 19.1201)
(-1.82622e-18 11.1273 17.6565)
(1.26229e-17 10.4572 16.2634)
(2.24915e-17 9.82208 14.9185)
(3.35737e-17 9.21081 13.6108)
(6.6963e-17 8.61238 12.3181)
(1.43537e-16 8.018 11.0115)
(2.45199e-16 7.4227 9.70234)
(3.10389e-16 6.85054 8.4898)
(2.80458e-16 6.35334 7.54436)
(1.97096e-16 5.91879 7.03011)
(1.91807e-16 5.53138 6.81462)
(2.13761e-16 4.61758 6.38598)
(6.44792e-17 2.54128 3.16555)
(-2.48912e-20 11.1358 19.0851)
(4.68624e-19 19.1677 32.0925)
(7.27289e-19 17.5169 29.9589)
(8.36245e-19 15.5451 25.7543)
(3.43963e-19 13.9751 23.395)
(-2.76371e-19 13.2156 21.5417)
(-3.06096e-18 12.362 20.0333)
(-5.74807e-18 11.6297 18.4871)
(-7.96616e-18 10.8647 17.0007)
(-8.23693e-18 10.1222 15.5384)
(-7.60266e-18 9.38525 14.1164)
(-1.05365e-17 8.65182 12.7335)
(-1.98973e-17 7.91424 11.386)
(-2.86795e-17 7.16974 10.0544)
(-2.26127e-17 6.38539 8.72442)
(8.07361e-18 5.57892 7.36573)
(5.6455e-17 4.64496 6.01277)
(9.04554e-17 3.69051 4.5296)
(4.82109e-17 2.05545 2.74734)
(-8.69117e-18 0.278746 -1.09968)
(6.95291e-21 12.9581 22.3515)
(-1.32985e-19 20.174 33.0887)
(-1.83601e-19 17.6082 30.1216)
(-1.8796e-19 16.0612 26.2191)
(1.36608e-19 14.5512 24.2654)
(9.78279e-19 13.9431 22.4384)
(1.48338e-18 13.0376 20.9531)
(1.73367e-18 12.3419 19.3628)
(1.77991e-18 11.5691 17.8507)
(1.3854e-18 10.8213 16.3015)
(7.87568e-19 10.0286 14.7263)
(8.29544e-19 9.18337 13.1027)
(1.8736e-18 8.26727 11.4383)
(2.45818e-18 7.28707 9.73975)
(-1.43493e-19 6.22238 8.02904)
(-8.34527e-18 5.1073 6.27113)
(-2.35968e-17 3.80869 4.45619)
(-4.94545e-17 2.46854 2.34288)
(-8.96354e-17 0.2418 -0.199776)
(-1.18812e-16 -1.06362 -3.86827)
(-4.78978e-22 15.3281 27.0268)
(2.12066e-20 20.7363 33.5668)
(2.51104e-20 17.2122 30.0212)
(2.12454e-20 16.5333 26.8744)
(-5.3327e-20 15.0127 25.426)
(-2.49497e-19 14.6409 23.6025)
(-3.12296e-19 13.6536 22.2261)
(-2.83258e-19 13.1046 20.6579)
(-1.97154e-19 12.3472 19.2114)
(-2.74574e-20 11.6472 17.6009)
(1.73903e-19 10.7841 15.8596)
(2.52071e-19 9.79229 13.9236)
(1.33161e-19 8.64247 11.849)
(2.46682e-20 7.37953 9.67157)
(3.44966e-19 5.9911 7.43571)
(1.47682e-18 4.51724 5.11116)
(4.1781e-18 2.79059 2.74607)
(7.36093e-18 1.12268 0.147297)
(4.67708e-18 -1.51894 -2.66217)
(-1.24295e-16 -2.45576 -6.45366)
(-4.07985e-22 17.1288 31.1681)
(-1.34864e-21 20.0561 32.5214)
(4.36954e-22 16.4152 29.7609)
(2.62876e-21 16.5655 27.4483)
(1.58963e-20 14.8314 26.3472)
(4.45332e-20 14.6517 24.5628)
(3.87896e-20 13.5014 23.436)
(1.44814e-20 13.1114 21.9956)
(-1.62143e-20 12.2436 20.7123)
(-5.67438e-20 11.4836 19.003)
(-1.06013e-19 10.2893 16.954)
(-1.47603e-19 8.88787 14.4745)
(-1.58417e-19 7.2577 11.833)
(-1.61429e-19 5.55304 9.11027)
(-2.8625e-19 3.71377 6.28196)
(-7.01439e-19 1.75108 3.29716)
(-1.08084e-18 -0.765854 0.0194581)
(3.59249e-18 -1.68295 -2.84713)
(2.64726e-17 -4.09662 -4.99926)
(-1.03728e-16 -3.85452 -8.82733)
(2.35633e-22 17.2362 32.1101)
(-7.28786e-22 18.3422 30.2546)
(-1.82749e-21 15.5008 28.9337)
(-2.87527e-21 15.6109 26.8629)
(-4.8431e-21 13.7656 25.8096)
(-4.75653e-21 13.4408 24.1382)
(2.39132e-21 12.1704 23.1437)
(1.32658e-20 11.6489 21.8297)
(3.14014e-20 10.5502 20.5899)
(5.19e-20 9.47339 18.6822)
(4.33351e-20 7.77494 16.1747)
(-1.26724e-20 5.90816 13.1415)
(-5.87309e-20 3.95292 10.1578)
(-2.4598e-20 2.10482 7.26755)
(1.18437e-20 0.246711 4.3543)
(1.08023e-19 -1.40299 1.75065)
(1.45183e-18 -2.75736 -0.507764)
(2.76599e-18 -4.26759 -3.42752)
(-7.5938e-18 -5.16695 -5.53748)
(-3.64834e-17 -2.57059 -3.46012)
(-7.41934e-23 16.0119 29.9696)
(4.84842e-22 17.4199 28.8859)
(9.15444e-22 14.5457 27.3588)
(1.29889e-21 14.4944 25.0682)
(9.2868e-22 12.5482 24.017)
(-1.83438e-21 12.0784 22.2424)
(-5.90767e-21 10.6638 21.1575)
(-7.22837e-21 9.90392 19.7786)
(-2.15013e-21 8.65231 18.4918)
(-1.69531e-21 7.36497 16.6211)
(-4.27714e-20 5.59974 14.1653)
(-1.43338e-19 3.72838 11.2696)
(-2.09189e-19 1.9109 8.46171)
(6.39123e-20 0.319868 5.92666)
(1.32669e-18 -1.05759 3.65496)
(4.14552e-18 -2.02336 1.82883)
(7.39541e-18 -1.95926 1.38083)
(8.04033e-18 -0.0754669 3.37746)
(4.62285e-18 3.20152 7.33211)
(6.09345e-19 4.07711 8.78507)
(1.74729e-23 15.3074 28.682)
(-1.93283e-22 17.5923 28.3801)
(-3.30082e-22 14.2155 26.5022)
(-4.20786e-22 14.5593 23.7657)
(-4.92939e-23 12.4073 22.7443)
(1.14143e-21 12.1805 20.6003)
(2.32503e-21 10.6611 19.3035)
(3.58247e-21 9.9756 17.5789)
(6.75174e-21 8.80727 16.1658)
(9.72082e-21 7.84585 14.52)
(-8.4448e-21 6.6522 12.6963)
(-7.26898e-20 5.46508 10.5695)
(-1.04188e-19 4.30928 8.37504)
(1.62717e-19 3.40185 6.4242)
(8.70312e-19 3.04691 5.32296)
(1.46473e-18 3.60348 5.71609)
(1.18484e-18 4.74107 7.18333)
(5.80343e-20 5.79886 8.96719)
(-1.44382e-18 6.67144 10.0139)
(-1.88482e-18 4.99776 8.82641)
(-4.05826e-24 15.4356 29.0793)
(6.17607e-23 18.3179 28.9779)
(9.91161e-23 14.6578 27.0959)
(1.32161e-22 15.2432 24.2028)
(5.23019e-23 13.1615 23.1675)
(-2.47159e-22 13.0325 21.0337)
(-4.92734e-22 11.7335 19.6492)
(-6.72331e-22 11.1142 17.9074)
(-1.35265e-21 10.195 16.3943)
(-2.76479e-21 9.4528 14.8705)
(-2.03914e-21 8.72935 13.4651)
(6.08575e-21 8.09728 12.1297)
(1.64476e-20 7.51762 10.8018)
(-7.83916e-22 6.95109 9.42302)
(-8.09213e-20 6.37746 7.99491)
(-2.30111e-19 5.76432 6.62391)
(-4.21064e-19 5.13839 5.52269)
(-6.0204e-19 4.49858 4.81686)
(-7.16108e-19 3.49599 4.13867)
(-5.57512e-19 1.864 1.99747)
(6.7695e-25 15.9263 30.3914)
(-1.95111e-23 18.9252 29.5376)
(-2.76614e-23 15.0365 27.9772)
(-2.4593e-23 15.8894 25.1418)
(2.81819e-23 13.7574 24.1157)
(1.62129e-22 13.6848 22.0419)
(2.75767e-22 12.4763 20.6739)
(2.94697e-22 11.902 19.0165)
(2.59199e-22 11.1017 17.5482)
(1.82497e-22 10.418 16.0472)
(-2.5242e-22 9.72261 14.5727)
(-1.28516e-21 9.0299 13.0964)
(-1.42071e-21 8.31388 11.6091)
(3.65262e-21 7.5451 10.0738)
(1.87191e-20 6.65567 8.45334)
(4.2955e-20 5.62243 6.67762)
(6.92399e-20 4.34589 4.76626)
(9.57384e-20 2.95046 2.6032)
(1.41083e-19 0.947406 0.320161)
(-6.1301e-21 -0.428785 -2.93955)
(-2.38549e-25 16.2129 31.7624)
(4.90851e-24 19.1334 29.5122)
(9.51457e-24 15.0862 28.6675)
(2.49274e-23 16.2983 25.9035)
(5.20299e-23 13.9765 24.9987)
(6.789e-23 14.0515 22.973)
(3.18113e-23 12.7933 21.7198)
(-1.25054e-22 12.3224 20.1448)
(-4.04576e-22 11.5422 18.81)
(-5.74841e-22 10.9556 17.4263)
(-2.06718e-22 10.3215 16.0709)
(8.39125e-22 9.67044 14.6145)
(2.00078e-21 8.87653 12.9539)
(2.68878e-21 7.82937 10.9257)
(3.44419e-21 6.3784 8.46216)
(5.56938e-21 4.62416 5.68585)
(6.34088e-21 2.66919 3.07298)
(1.28144e-20 0.836815 0.169905)
(7.0723e-20 -1.84417 -2.88359)
(1.5445e-19 -2.41772 -6.55527)
(-1.04559e-25 15.8022 31.9289)
(-2.16249e-24 18.7242 28.8269)
(2.8853e-26 14.5809 28.5294)
(1.53051e-23 15.7704 25.91)
(4.93323e-23 13.475 25.0511)
(7.36113e-23 13.408 23.212)
(-2.79821e-25 12.1775 22.0461)
(-2.42212e-22 11.6597 20.6313)
(-5.33162e-22 10.8635 19.4451)
(-4.68431e-22 10.2736 18.2185)
(3.23562e-22 9.59847 16.9937)
(1.53442e-21 8.84823 15.5405)
(2.65685e-21 7.7727 13.5746)
(5.58508e-21 6.12533 10.6693)
(1.4336e-20 3.74464 6.67462)
(2.47947e-20 1.08093 2.30398)
(1.92044e-20 -0.748715 -0.184333)
(2.11544e-20 -0.404639 -0.709316)
(7.56057e-20 -3.58733 -4.14278)
(1.43353e-19 -3.2723 -7.54797)
(-6.17689e-26 14.3814 30.9319)
(-1.15089e-25 18.0942 27.8465)
(2.00588e-24 13.4674 27.7196)
(1.44041e-23 14.3291 25.4176)
(3.68338e-23 12.2731 24.5017)
(3.48342e-23 11.7862 22.9594)
(-6.74706e-23 10.6808 21.7933)
(-3.0716e-22 9.94092 20.5431)
(-5.20184e-22 9.13569 19.4047)
(-3.30156e-22 8.42102 18.269)
(3.7892e-22 7.67537 17.082)
(9.33725e-22 6.81497 15.6332)
(1.12932e-21 5.63274 13.5635)
(3.94638e-21 3.93383 10.4636)
(1.14873e-20 1.83513 6.42893)
(1.35274e-20 -0.0527599 2.45262)
(7.46507e-22 -1.39031 -0.667921)
(-3.54098e-21 -2.64704 -3.28298)
(2.11244e-20 -3.66646 -4.82972)
(4.66574e-20 -2.59866 -4.42919)
(-1.98131e-26 11.2072 28.5039)
(-5.2478e-25 16.8994 24.8932)
(-4.96726e-25 11.9107 25.2958)
(4.14666e-24 12.5185 23.6044)
(1.55263e-23 10.7638 22.8768)
(1.73937e-23 10.0658 21.8069)
(-3.55572e-23 9.03686 20.9131)
(-1.86677e-22 8.22234 19.9877)
(-4.01947e-22 7.40759 19.1083)
(-5.32397e-22 6.66757 18.2352)
(-4.54437e-22 5.95673 17.3531)
(-4.03106e-22 5.26915 16.4096)
(-1.15802e-21 4.59202 15.3486)
(-3.49306e-21 3.94257 14.0956)
(-7.12644e-21 3.34352 12.5458)
(-1.12451e-20 2.76184 10.611)
(-1.66513e-20 2.10249 8.22435)
(-2.32048e-20 1.27693 5.18122)
(-2.3059e-20 0.143556 1.53061)
(-7.78781e-21 -0.688928 -1.04861)
(9.36745e-27 2.57983 17.0319)
(-1.32955e-25 8.03878 13.616)
(-4.86784e-25 5.16416 14.469)
(-8.12858e-26 4.98977 14.07)
(3.16454e-24 4.07587 14.0241)
(8.48211e-24 3.52125 13.8434)
(2.74221e-24 2.95453 13.6787)
(-4.65351e-23 2.49326 13.483)
(-1.76269e-22 2.09622 13.2749)
(-3.78097e-22 1.77887 13.0579)
(-5.42438e-22 1.54068 12.8421)
(-4.73423e-22 1.38487 12.6289)
(-2.71164e-23 1.30603 12.4066)
(7.13637e-22 1.3029 12.1447)
(1.44768e-21 1.38385 11.8047)
(1.93176e-21 1.51649 11.382)
(2.16416e-21 1.72881 10.8407)
(2.07759e-21 2.32254 9.89609)
(1.3652e-21 2.50857 8.50264)
(2.56216e-22 -0.244436 6.43727)
(-7.20315e-27 -2.57977 17.0318)
(1.60254e-25 -8.03876 13.6159)
(5.24563e-25 -5.16414 14.4689)
(-1.6023e-25 -4.98979 14.0699)
(-4.3939e-24 -4.0759 14.024)
(-1.08784e-23 -3.5213 13.8432)
(-2.73268e-24 -2.95461 13.6785)
(6.05362e-23 -2.49337 13.4828)
(2.22991e-22 -2.09637 13.2747)
(4.68973e-22 -1.77907 13.0578)
(6.5448e-22 -1.54094 12.842)
(5.31103e-22 -1.38517 12.6288)
(-7.41128e-23 -1.3063 12.4064)
(-1.03814e-21 -1.3031 12.1445)
(-1.9628e-21 -1.38397 11.8043)
(-2.53957e-21 -1.51653 11.3815)
(-2.78752e-21 -1.72878 10.8401)
(-2.64928e-21 -2.32247 9.89553)
(-1.74649e-21 -2.50845 8.50223)
(-3.4285e-22 0.244543 6.43708)
(2.78811e-26 -11.2071 28.5036)
(5.9404e-25 -16.8992 24.893)
(3.73403e-25 -11.9106 25.2955)
(-5.59853e-24 -12.5183 23.6041)
(-1.94049e-23 -10.7636 22.8764)
(-1.99759e-23 -10.0656 21.8066)
(4.93116e-23 -9.03658 20.9128)
(2.40393e-22 -8.22203 19.9874)
(5.06399e-22 -7.40725 19.108)
(6.60357e-22 -6.6672 18.2349)
(5.61167e-22 -5.95634 17.3529)
(5.36756e-22 -5.2688 16.4095)
(1.60253e-21 -4.59186 15.3487)
(4.72376e-21 -3.94278 14.0959)
(9.44945e-21 -3.34411 12.5462)
(1.46347e-20 -2.76263 10.6117)
(2.13407e-20 -2.10343 8.2256)
(2.97351e-20 -1.27842 5.18323)
(3.04991e-20 -0.146164 1.53392)
(1.24155e-20 0.6867 -1.0454)
(8.02269e-26 -14.3813 30.9317)
(1.35665e-25 -18.0939 27.8465)
(-2.49192e-24 -13.4672 27.7196)
(-1.73558e-23 -14.3287 25.4177)
(-4.34225e-23 -12.2728 24.5019)
(-3.69204e-23 -11.7857 22.9597)
(9.63554e-23 -10.6802 21.7937)
(3.97894e-22 -9.94026 20.5437)
(6.54502e-22 -9.13493 19.4055)
(4.01102e-22 -8.42008 18.2698)
(-4.55211e-22 -7.67407 17.0826)
(-9.73408e-22 -6.81291 15.633)
(-8.88538e-22 -5.62941 13.5614)
(-4.22365e-21 -3.92953 10.4597)
(-1.39886e-20 -1.83206 6.42637)
(-1.70979e-20 0.0526505 2.45439)
(-1.06877e-21 1.38935 -0.665335)
(5.62039e-21 2.64796 -3.28343)