/*--------------------------------*- C++ -*----------------------------------*\
| =========                 |                                                 |
| \\      /  F ield         | OpenFOAM: The Open Source CFD Toolbox           |
|  \\    /   O peration     | Version:  4.1                                   |
|   \\  /    A nd           | Web:      www.OpenFOAM.org                      |
|    \\/     M anipulation  |                                                 |
\*---------------------------------------------------------------------------*/
FoamFile
{
    version     2.0;
    format      ascii;
    class       volScalarField;
    location    "19";
    object      p;
}
// * * * * * * * * * * * * * * * * * * * * * * * * * * * * * * * * * * * * * //

dimensions      [0 2 -2 0 0 0 0];

internalField   nonuniform List<scalar> 
1280
(
2.17823
1.15911
4.54102
6.69645
9.93963
11.2241
11.5708
12.6154
13.8779
14.0217
14.0399
14.0466
13.411
12.5605
11.6245
9.67037
6.81639
5.08923
-1.66337
-8.34786
-8.16716
6.37314
27.8924
35.9073
36.8285
39.7491
11.3762
22.2971
23.4231
22.9746
22.3599
21.6086
20.5926
19.3252
17.9884
16.3266
15.0744
13.3824
13.8633
10.6802
-13.0711
8.23011
15.8483
20.0793
31.7727
30.6596
30.9991
31.2141
31.813
31.3049
31.281
31.7886
30.879
30.4273
29.8156
30.7608
16.3388
11.7205
3.39928
-22.3278
1.83581
4.47342
3.66902
5.01762
5.92123
7.26286
8.309
9.33363
10.14
10.6841
11.1303
11.6128
9.91061
-15.7181
29.4598
28.5293
29.5233
23.0756
2.90967
-10.2707
-8.64491
-0.443459
11.7164
17.1175
20.4463
26.175
27.7666
27.0701
26.171
27.1877
23.3953
23.3995
20.5878
14.0491
12.4402
14.0606
8.22742
-3.35591
-5.51553
5.05223
0.0731648
0.586206
0.636626
0.278898
-0.39542
-1.25372
-1.54755
-3.91335
-3.40485
-4.15008
-1.25398
-0.581014
0.00739911
2.14611
4.81306
5.93102
5.17608
2.43569
1.27697
-0.00775983
0.656734
0.098894
-0.296111
-1.02818
-2.68162
-3.38823
-11.3906
-10.2102
-10.108
-4.29308
-1.18768
3.82314
10.2853
16.7802
19.6173
15.5896
8.3248
5.31827
-0.101071
0.654753
0.415095
-0.0673847
-1.49456
-4.4071
-6.45826
-19.8708
-16.1261
-13.318
-5.60584
-1.34084
5.59254
14.027
22.8182
27.4312
24.5203
14.1076
8.27015
-0.129358
0.449946
0.355795
-0.125702
-1.83972
-5.58844
-9.06796
-26.1765
-19.6729
-16.3314
-6.8261
-1.49091
7.055
17.4665
28.9202
35.5819
33.7551
19.8827
9.50437
-0.225958
0.294955
0.553633
0.130352
-1.95942
-6.43861
-11.6528
-30.3234
-22.68
-19.0418
-8.08369
-1.60729
8.7118
21.2143
35.5183
44.1743
42.8618
25.2144
9.56854
-0.362246
0.151596
0.768573
0.48469
-1.84781
-6.75229
-13.8088
-32.0811
-25.0794
-20.8123
-9.13451
-1.67215
10.0985
24.3619
41.3373
51.6624
50.2142
25.8486
-2.55199
-0.496202
0.11119
1.25389
1.14999
-1.41698
-6.59198
-15.3959
-31.8605
-26.0014
-21.6204
-9.99008
-1.74957
11.0801
26.7279
46.6309
59.598
57.1087
24.3624
-15.7857
-0.582061
0.0669605
1.99851
2.15969
-0.625165
-6.01433
-16.1501
-30.0371
-25.6932
-21.6605
-10.6606
-1.89247
11.6318
28.2332
49.7598
67.4622
61.3091
42.863
6.99655
-0.582247
0.69091
3.13832
3.61856
0.563437
-5.12165
-15.9995
-27.1295
-24.492
-21.0993
-11.1396
-2.1464
11.6007
28.5091
51.0856
67.1641
58.225
48.7551
53.5097
-0.118652
2.02258
4.76148
5.51798
2.11473
-4.00162
-14.9968
-23.6505
-22.6335
-20.1164
-11.4401
-2.55933
10.8758
27.4644
46.5182
55.0677
52.2429
46.1767
45.5533
0.460973
3.7001
6.82766
7.81552
3.94282
-2.73516
-13.3794
-20.1885
-20.4831
-18.8979
-11.5778
-3.12767
9.51729
24.8922
39.5085
47.1248
50.4511
47.5458
42.6257
1.21643
5.42738
9.23615
10.4087
5.90821
-1.38312
-11.4348
-17.1625
-18.3763
-17.5748
-11.5724
-3.82227
7.71026
21.3909
32.0469
36.3833
38.6499
41.3024
52.6263
1.93576
7.01105
11.633
13.1769
7.88433
0.0191277
-9.39285
-14.6936
-16.4468
-16.2211
-11.4188
-4.55275
5.61573
16.8022
20.6525
19.555
28.4813
31.8129
20.6928
2.40599
8.36362
13.3993
15.8028
9.79399
1.43702
-7.26072
-12.4605
-14.5702
-14.8039
-11.125
-5.30899
3.41515
12.2722
11.7644
16.2604
23.4594
26.5819
13.3184
2.56937
9.07032
14.5012
17.4962
11.5583
2.66444
-5.38669
-10.5599
-12.9054
-13.4334
-10.6645
-5.79626
1.66074
8.45272
5.36353
16.2637
20.7166
25.6815
16.4916
2.58457
8.87818
14.9103
17.8961
13.0021
4.14949
-3.31975
-8.55641
-11.1339
-12.0135
-10.2068
-6.41232
-0.167147
4.9519
0.364592
10.1244
16.9983
21.817
16.5221
2.23503
7.6935
13.8524
16.9016
13.1885
4.61654
-2.06304
-7.13202
-9.7584
-10.7824
-9.4689
-5.99038
-0.18497
3.18905
3.76294
4.69226
14.9867
18.4014
14.7051
1.87332
6.21113
11.7531
14.3662
11.8574
4.8455
-0.266171
-4.5492
-7.15177
-8.60439
-8.34423
-6.22499
-2.2083
-1.05206
7.731
2.26066
12.0529
14.5563
12.2335
1.23004
3.54103
7.06499
9.5829
8.19612
3.02276
-0.501176
-3.65231
-5.56992
-6.48164
-5.73843
-2.48536
2.30441
-1.00253
3.2807
1.06263
8.43318
10.4321
8.44778
0.160594
1.39051
3.67278
4.80126
3.95995
2.36514
1.4734
0.674018
-0.100066
-0.959202
-1.90781
-3.59873
-6.47647
-7.56729
-3.04546
-2.46385
0.593168
2.45485
3.0543
77.7753
79.0064
77.9286
77.5223
75.87
74.335
72.3982
70.416
68.4057
66.6224
65.0151
63.6019
62.4091
61.4482
60.7084
60.1933
59.8567
59.6821
59.6031
59.5023
22.9483
26.687
28.3463
30.5505
32.2614
33.8653
35.3403
36.6202
37.7885
38.8096
39.7483
40.6306
41.4734
42.3174
43.1442
44.0202
44.8398
45.7881
46.4785
47.4733
0.654178
2.98418
6.73962
10.4507
13.561
16.1518
18.5211
20.6053
22.5087
24.2134
25.7524
27.1682
28.4894
29.7819
31.0459
32.3802
33.6679
35.1258
36.252
37.8438
-23.1614
-22.9953
-20.7022
-18.403
-16.4772
-14.8209
-13.0985
-11.4843
-9.86127
-8.32059
-6.85349
-5.47643
-4.19256
-2.954
-1.76271
-0.443914
0.907701
2.95853
5.01782
8.03593
-8.27852
-13.1657
-16.6205
-19.9611
-22.8721
-25.8878
-28.4263
-30.7399
-32.3779
-33.4782
-33.9563
-33.9282
-33.4461
-32.6138
-31.5801
-30.4313
-29.3492
-28.0529
-26.947
-24.0518
34.4937
27.8669
23.8913
19.075
14.5462
9.38737
4.37531
-0.919101
-5.8726
-10.6145
-14.81
-18.4418
-21.301
-23.2868
-24.2843
-24.3752
-23.7894
-23.2304
-23.5748
-24.0108
84.8869
81.0596
79.0915
76.4908
74.8544
72.4967
70.6399
68.4312
66.458
64.3073
62.1734
59.8549
57.3876
54.7778
52.2472
50.0298
48.6263
48.8341
48.8696
44.647
97.877
98.5263
98.7743
98.6144
98.8312
98.247
97.8563
96.6616
95.2492
93.2175
90.8255
88.0282
84.9777
81.8192
78.8901
76.5583
75.0279
74.1645
74.2835
72.6073
78.272
80.5931
82.0942
83.2923
85.1882
86.3463
88.1446
89.4796
90.9045
91.9373
92.6106
92.7006
92.1288
90.9148
89.409
88.136
87.8186
88.2418
88.9607
88.9759
60.725
62.7574
64.4362
65.0823
66.9858
67.6775
69.1821
70.1848
71.3948
72.5359
73.7007
74.8923
76.0931
77.2931
78.4706
79.6555
80.811
82.1111
83.0839
84.3579
37.3523
39.3159
41.5029
42.0168
44.501
45.2903
47.2739
48.568
50.179
51.6623
53.156
54.64
56.1051
57.5791
59.0403
60.5532
62.0076
63.6296
64.8563
66.5663
11.9844
12.6664
15.0232
14.6631
17.2763
17.4239
19.4845
20.4711
22.1699
23.6802
25.3895
27.1842
29.0845
31.1051
33.1795
35.3713
37.5043
39.8598
41.7273
44.6942
-8.61495
-10.7347
-9.25263
-11.6005
-10.3339
-12.3683
-11.9395
-13.2788
-13.5525
-14.401
-14.8426
-15.129
-14.9386
-14.2112
-12.9434
-11.0739
-8.94771
-6.37126
-4.47664
-1.01264
5.82022
1.75149
2.28156
-1.39575
-1.37211
-4.68808
-5.66213
-8.54145
-10.4732
-13.2577
-15.7802
-18.4608
-20.9147
-23.1478
-24.987
-26.5461
-27.7381
-28.1084
-28.3701
-26.3877
37.6833
34.0394
35.4552
31.7886
32.8884
30.1146
30.1784
28.3693
27.7001
26.4104
25.5241
24.5592
23.7846
23.0381
22.3225
21.3122
19.8302
18.2496
16.1698
14.0714
53.084
51.04
53.6543
50.5815
53.4974
51.89
53.5383
53.3611
54.2313
54.5632
55.063
55.3492
55.5491
55.6349
55.6219
55.3429
54.712
54.117
53.5843
52.4026
52.2896
49.8139
53.1431
48.0136
49.8451
46.9432
46.8596
45.5804
45.1922
44.7795
44.7459
44.8641
45.1291
45.4529
45.6818
45.763
45.6758
45.9483
47.0414
48.8426
34.8338
28.7289
37.3232
30.9828
33.5202
30.7913
30.127
28.2623
26.7061
24.9246
23.1998
21.493
19.8844
18.4054
17.1164
16.1595
15.8146
16.7562
18.1988
20.8306
47.7227
25.1427
33.0801
21.902
18.96
12.1877
7.09175
1.72196
-2.92504
-7.04625
-10.4158
-12.9869
-14.6681
-15.3843
-15.0405
-13.6584
-11.246
-7.94392
-4.84369
-2.03981
742.301
659.33
609.966
553.534
504.355
456.936
412.876
371.304
332.237
295.399
260.634
227.748
196.527
166.884
138.836
111.553
85.4767
65.3054
42.0831
5.55533
741.161
658.189
608.825
552.393
503.214
455.794
411.733
370.161
331.093
294.255
259.489
226.603
195.382
165.739
137.69
110.408
84.3333
64.1649
40.9436
4.41352
46.5725
23.9916
31.9287
20.7499
17.8073
11.0344
5.93794
0.567604
-4.07987
-8.20146
-11.5712
-14.1424
-15.8235
-16.5394
-16.1953
-14.8128
-12.3994
-9.09805
-5.99916
-3.19488
33.6722
27.5665
36.1602
29.8192
32.3557
29.6261
28.9608
27.0953
25.5384
23.7562
22.031
20.3236
18.7141
17.2338
15.9429
14.9847
14.6391
15.5821
17.0252
19.6577
51.127
48.6534
51.9825
46.8544
48.6865
45.7857
45.7032
44.4242
44.0366
43.6237
43.5893
43.7057
43.9681
44.2886
44.5151
44.5945
44.5086
44.7869
45.886
47.6931
51.9535
49.9148
52.5305
49.4603
52.3786
50.7729
52.4234
52.2477
53.1197
53.4531
53.9545
54.2427
54.4454
54.5353
54.5277
54.2562
53.6339
53.0448
52.5229
51.3516
36.6612
33.0226
34.4413
30.7791
31.8851
29.1173
29.1887
27.3877
26.7272
25.4468
24.5693
23.6119
22.8423
22.0978
21.3814
20.3684
18.881
17.2901
15.1999
13.083
4.7575
0.683932
1.20851
-2.47557
-2.45839
-5.78186
-6.76343
-9.6518
-11.5934
-14.3901
-16.9263
-19.6221
-22.0905
-24.3372
-26.1865
-27.7531
-28.9548
-29.3327
-29.6023
-27.6271
-9.82388
-11.955
-10.4808
-12.8368
-11.5791
-13.6224
-13.2023
-14.5509
-14.8328
-15.6898
-16.1381
-16.4297
-16.2417
-15.5152
-14.2472
-12.3771
-10.2511
-7.67727
-5.78426
-2.31753
10.7099
11.3863
13.7421
13.3794
15.9913
16.1366
18.1965
19.1816
20.88
22.3898
24.0991
25.894
27.7948
29.816
31.8908
34.0828
36.2165
38.5737
40.4437
43.4147
36.1049
38.0673
40.2553
40.769
43.2541
44.0435
46.028
47.3225
48.9345
50.4185
51.9132
53.3982
54.8644
56.3395
57.8015
59.315
60.7699
62.3924
63.6196
65.3307
59.4667
61.5014
63.183
63.8309
65.7369
66.4309
67.9381
68.9437
70.1569
71.3011
72.4689
73.6629
74.865
76.0653
77.2425
78.4276
79.5842
80.8867
81.8621
83.1387
77.103
79.4248
80.9264
82.1231
84.0179
85.1728
86.9664
88.2955
89.7122
90.7364
91.4012
91.4842
90.9099
89.7001
88.2072
86.9545
86.6578
87.0952
87.817
87.836
96.6202
97.2726
97.516
97.3524
97.5626
96.973
96.5768
95.38
93.9687
91.945
89.5687
86.796
83.7787
80.6589
77.7678
75.468
73.9602
73.1026
73.2175
71.5486
84.0287
80.222
78.2448
75.6514
74.0221
71.6716
69.8194
67.6134
65.6402
63.4841
61.3368
58.9956
56.4949
53.8415
51.2593
48.9891
47.5361
47.6992
47.7227
43.5037
34.2834
27.6877
23.6527
18.8045
14.2431
9.05074
3.99349
-1.34734
-6.3526
-11.147
-15.393
-19.0727
-21.9778
-24.0078
-25.0504
-25.1831
-24.6391
-24.1408
-24.4729
-24.9319
-7.28449
-12.2329
-15.9581
-19.4954
-22.5858
-25.7624
-28.449
-30.8924
-32.6416
-33.8303
-34.3742
-34.3923
-33.9394
-33.1219
-32.0921
-30.9409
-29.8624
-28.5697
-27.4718
-24.6439
-22.7026
-22.7434
-20.8187
-18.7484
-17.0323
-15.5475
-13.9721
-12.478
-10.9537
-9.49116
-8.08598
-6.75799
-5.51404
-4.3099
-3.15126
-1.86857
-0.563554
1.41469
3.45042
6.43074
-0.99118
1.04912
4.72307
8.43707
11.5428
14.128
16.4937
18.5836
20.4967
22.216
23.7704
25.2008
26.5336
27.8326
29.0976
30.4239
31.6973
33.1244
34.2261
35.7374
16.4626
20.1789
22.2976
24.8776
26.8768
28.7124
30.3846
31.8458
33.1819
34.3557
35.4349
36.4436
37.3981
38.3377
39.2436
40.1797
41.0409
42.0055
42.6989
43.6594
74.7161
76.0993
75.4281
75.2359
73.7128
72.2664
70.3569
68.4589
66.5047
64.7633
63.1604
61.7164
60.4638
59.4161
58.572
57.9339
57.4773
57.1573
56.974
56.7099
)
;

boundaryField
{
    outletWall
    {
        type            fixedValue;
        value           uniform 0;
    }
    fineWalls
    {
        type            zeroGradient;
    }
    fineFrontAndBack
    {
        type            zeroGradient;
    }
    fineplugLeft
    {
        type            cyclicAMI;
        value           nonuniform List<scalar> 
20
(
49.7379
50.4551
50.4221
50.9002
51.4199
52.1644
53.0236
54.0458
55.2032
56.4841
57.8929
59.4092
60.7922
65.4595
67.4178
68.0617
69.1993
67.9213
64.4797
60.5868
)
;
    }
    fineplugRight
    {
        type            cyclicAMI;
        value           nonuniform List<scalar> 
20
(
45.7351
46.4739
46.4597
46.9854
47.5313
48.3102
49.1947
50.2378
51.4011
52.6651
54.0367
55.5263
56.7492
60.5695
63.705
64.6761
66.0934
64.9576
61.4613
57.7188
)
;
    }
    inletOutletLeft
    {
        type            cyclicAMI;
        value           nonuniform List<scalar> 
20
(
49.7379
50.4551
50.4221
50.9002
51.4199
52.1644
53.0236
54.0458
55.2032
56.4841
57.8929
59.4092
60.7922
65.4595
67.4178
68.0617
69.1993
67.9213
64.4797
60.5868
)
;
    }
    inletLeft
    {
        type            zeroGradient;
    }
    inletWallsLeft
    {
        type            zeroGradient;
    }
    inletFacesLeft
    {
        type            zeroGradient;
    }
    inletOutletRight
    {
        type            cyclicAMI;
        value           nonuniform List<scalar> 
20
(
45.7351
46.4739
46.4597
46.9854
47.5313
48.3102
49.1947
50.2378
51.4011
52.6651
54.0367
55.5263
56.7492
60.5695
63.705
64.6761
66.0934
64.9576
61.4613
57.7188
)
;
    }
    inletRight
    {
        type            zeroGradient;
    }
    inletWallsRight
    {
        type            zeroGradient;
    }
    inletFacesRight
    {
        type            zeroGradient;
    }
}


// ************************************************************************* //
