/*--------------------------------*- C++ -*----------------------------------*\
| =========                 |                                                 |
| \\      /  F ield         | OpenFOAM: The Open Source CFD Toolbox           |
|  \\    /   O peration     | Version:  4.1                                   |
|   \\  /    A nd           | Web:      www.OpenFOAM.org                      |
|    \\/     M anipulation  |                                                 |
\*---------------------------------------------------------------------------*/
FoamFile
{
    version     2.0;
    format      ascii;
    class       surfaceScalarField;
    location    "19";
    object      phi;
}
// * * * * * * * * * * * * * * * * * * * * * * * * * * * * * * * * * * * * * //

dimensions      [0 3 -1 0 0 0 0];

internalField   nonuniform List<scalar> 
2360
(
-11737.3
-7757.3
-3979.97
-7757.3
-7757.3
-3794.18
-3963.12
-3794.18
-3794.18
-3794.18
-265.046
-3529.13
-265.05
-265.048
3298.63
-3563.68
3298.63
3298.63
7300.83
-4002.21
7300.83
7300.84
12505.3
-5204.51
12505.3
12505.3
12986
14516.6
16278.7
17932.6
19415.6
20751.9
16480.6
5520.22
17633.2
18708.1
19710.5
20644.4
21512.6
22318.3
23063.1
23747.8
24374.4
24953.8
25507.4
26053.9
26485.2
10570.8
15914.3
10570.8
10570.8
10570.8
6.01914
10564.8
6.01921
6.01835
6.0185
108.527
-102.512
108.517
108.512
-329.075
437.588
-329.075
-329.076
-329.076
-10787.2
10458.1
-10787.2
-10787.2
-10787.2
-27052.2
16265
-26611.4
-26059.8
-25499.4
-24911.9
-24277.3
-23586.6
-22837.8
-22029.8
-21160.2
-20225.5
-19221.9
-18145
-16988.9
-21225.5
5492.61
-19888.3
-18405.4
-16754.6
-15004
-13499.5
-13044.8
-13044.8
-13044.8
-6013.25
-7031.6
-6013.25
-6013.25
1726.49
-7739.74
1726.49
1726.49
8211.8
-6485.31
8211.8
8211.8
13493.8
-5282
13493.8
13493.8
13493.8
18190.5
-4696.65
18190.5
18190.5
22852.4
-4661.99
1357.78
-2134.41
144.25
-3445.81
-890.81
-5577.26
-1329.9
-8748.74
-1217.43
-11686.9
-712.067
-13948.1
28.0048
-15399.8
456.155
-11304.2
388.963
10509.2
-55.2863
16333.1
-361.603
20173.4
-397.771
23284.9
34.8831
27169.9
735.125
27645
1640.43
25215.6
2754.93
20197.4
3666.68
11083.2
4444.2
-353.207
-7952.8
-190.097
-1177.78
-947.677
-2688.23
-898.022
-5626.92
-810.03
-8836.74
-553.564
-11943.4
6.12994
-14507.7
739.585
-16133.2
722.991
-11287.6
412.599
10819.6
-196.891
16942.6
-523.353
20499.8
-587.867
23349.4
-175.992
26758
527.187
26941.8
1520.52
24222.3
2842.89
18875.1
4480.41
9445.64
5219.9
-1092.69
-7429.55
-1314.63
-769.159
-1227.97
-2774.89
-861.236
-5993.65
-630.862
-9067.11
-297.413
-12276.8
270.823
-15076
829.13
-16691.6
336.471
-10794.9
102.212
11053.9
-437.364
17482.2
-808.295
20870.8
-894.237
23435.3
-511.45
26375.3
186.174
26244.2
1273.88
23134.6
2816.13
17332.8
4937.44
7324.34
6181.9
-2337.16
-6529.65
-1693.21
-688.716
-1324.85
-3143.25
-845.596
-6472.91
-465.151
-9447.56
-78.3423
-12663.6
446.542
-15600.9
665.278
-16910.3
-457.965
-9671.7
-510.941
11106.9
-823.466
17794.7
-1202.97
21250.3
-1309.29
23541.7
-962.52
26028.5
-299.182
25580.8
860.806
21974.6
2632.3
15561.3
5350.57
4606.06
7279.63
-4266.22
-5735.33
-1766.95
-677.714
-1344.88
-3565.32
-805.911
-7011.87
-330.033
-9923.43
61.1409
-13054.8
450.405
-15990.1
190.621
-16650.5
-1456.98
-8024.11
-1347.55
10997.4
-1386.2
17833.4
-1707.22
21571.3
-1848.82
23683.3
-1542.87
25722.5
-943.356
24981.3
270.608
20760.6
2243.14
13588.8
5749.55
1099.65
8251.18
-6767.85
-5223.89
-1541.28
-632.93
-1182.84
-3923.76
-699.794
-7494.92
-219.295
-10403.9
121.482
-13395.6
258.872
-16127.5
-568.742
-15822.9
-2538.12
-6054.73
-2356.9
10816.2
-2137.63
17614.1
-2321.93
21755.6
-2498.44
23859.8
-2254.85
25478.9
-1740.7
24467.2
-469.455
19489.4
2100.23
11019.1
5922.7
-2722.82
7571.54
-8416.69
-4683.95
-981.4
-414.139
-794.758
-4110.4
-509.446
-7780.23
-125.398
-10788
94.0044
-13615
-145.857
-15887.7
-1573.34
-14395.4
-3678.45
-3949.62
-3436.63
10574.4
-3028.12
17205.6
-3040.69
21768.2
-3232.01
24051.1
-3096.32
25343.3
-2715.77
24086.6
-1523.5
18297.1
2316.56
7179.05
3948.47
-4354.72
1537.01
-6005.23
2345.67
-236.779
127.599
-246.499
-4100.68
-247.624
-7779.11
-62.5898
-10973
-54.6676
-13622.9
-779.933
-15162.4
-2736.44
-12438.9
-4785.57
-1900.49
-4491.33
10280.2
-3983.24
16697.5
-3841.39
21626.3
-4037.13
24246.8
-4083.2
25389.3
-3830.65
23834
-2429
16895.4
-1354.22
6104.28
-5995.71
286.766
-12638
637.09
5972.69
728.911
513.756
308.695
-3680.46
22.6266
-7493.04
-56.1392
-10894.2
-366.672
-13312.4
-1638.67
-13890.4
-3963.26
-10114.3
-5787.91
-75.8393
-5470.6
9962.83
-4941.74
16168.6
-4700.37
21385
-4908.24
24454.7
-5145.62
25626.7
-5031.77
23720.2
-4917.28
16780.9
-7684.25
8871.24
-11787.8
4390.3
-12798.3
1647.58
3632.53
1544.32
1004.12
790.747
-2926.89
216.29
-6918.58
-163.636
-10514.3
-896.367
-12579.7
-2691.01
-12095.8
-5162.74
-7642.58
-6642.07
1403.5
-6351.6
9672.36
-5862.75
15679.8
-5589.25
21111.5
-5804.65
24670.1
-6181.52
26003.6
-6468.61
24007.3
-7701.09
18013.4
-9639.37
10809.5
-8320.57
3071.5
-4856.84
-1816.15
-786.719
2124.13
1596.32
1147.96
-1950.72
283.505
-6054.12
-459.888
-9770.93
-1686.3
-11353.2
-3868.96
-9913.1
-6247.88
-5263.65
-7347.29
2502.9
-7130.24
9455.31
-6722.09
15271.6
-6468.34
20857.7
-6674.29
24876
-7166.74
26496
-8009.3
24849.9
-9974.5
19978.6
-11304.3
12139.3
-10059.6
1826.82
-7151.96
-4723.8
-8041.19
2615.03
2263.65
1392.07
-727.753
178.623
-4840.68
-1023.26
-8569.05
-2735.78
-9640.73
-5074.79
-7574.09
-7161.04
-3177.39
-7962.75
3304.61
-7833.75
9326.31
-7527.08
14965
-7319.25
20649.9
-7502.58
25059.4
-8102.13
27095.6
-9483.63
26231.4
-12051.5
22546.5
-13707.6
13795.4
-13405.2
1524.37
-13217.6
-4911.37
-10694
3039.97
2939.61
1553.51
758.713
-130.814
-3156.36
-1883.97
-6815.89
-3971.79
-7552.91
-6204.49
-5341.39
-7894.25
-1487.64
-8518.7
3929.06
-8502.35
9309.96
-8312.42
14775
-8153.97
20491.4
-8298.28
25203.7
-8965.34
27762.6
-10535.5
27801.6
-12105.8
24116.7
-10089.9
11779.6
-7417.41
-1148.15
-10700.3
-1628.49
-5479.91
3383.9
3547.25
1711.36
2431.25
-604.86
-840.138
-2970.08
-4450.67
-5264.77
-5258.22
-7206.06
-3400.1
-8481.07
-212.626
-8999.98
4447.97
-9112.72
9422.71
-9051.36
14713.7
-8943.68
20383.7
-9061.71
25321.7
-9787.25
28488.2
-11188.1
29202.4
-10880.7
23809.4
-4863.37
5762.22
737.764
-6749.28
1889.19
-2779.91
1929.51
3604.05
4099.23
1984.53
4050.78
-1024.05
2168.44
-4061.85
-1412.86
-6483.82
-2836.26
-8125.67
-1758.25
-9050.98
712.689
-9455
4851.99
-9632.15
9599.86
-9674.6
14756.1
-9638.32
20347.5
-9811.03
25494.4
-10602.7
29279.9
-11435.8
30035.5
-9125.52
21499.1
-3108.59
-254.71
102.95
-9960.82
2704.08
-5381.04
-570.917
3746.22
4589.91
2416
5381.01
-914.804
5499.24
-4857.26
2529.59
-7570.89
-122.631
-9110.62
-218.519
-9818.97
1421.04
-10043.6
5076.64
-10135.3
9691.55
-10200.8
14821.7
-10286.6
20433.2
-10669
25876.9
-11493.5
30104.4
-11244
29786
-6373.54
16628.6
-1089.22
-5539.04
598.866
-11648.9
2542.27
-7324.45
-2030.85
3935.17
5013.18
2826.31
6489.87
-166.136
8491.69
-4781.94
7145.4
-8293.33
3388.77
-10158.9
1647.02
-10940.6
2202.76
-11077.6
5213.68
-11041.3
9655.26
-11080.3
14860.7
-11326.5
20679.3
-11933.5
26483.9
-12442.2
30613
-10546.1
27889.9
-3700.5
9782.97
587.938
-9827.48
1270.5
-12331.5
2761.75
-8815.7
-2832.77
3877.81
5333.72
2998.8
7368.88
526.458
10964
-4100.96
11772.8
-8245.29
7533.1
-10708.5
4110.22
-11945.1
3439.37
-12307.7
5576.27
-12345.6
9693.17
-12453.5
14968.6
-12852.5
21078.3
-13453.1
27084.5
-13076.6
30236.6
-9249.74
24063
-2444.38
2977.62
736.272
-13008.1
1870.17
-13465.4
3145.38
-10090.9
-3216.53
4601.9
5455.07
3933.69
8037.1
1337.5
13560.2
-3382.59
16492.9
-7796.54
11947.1
-10952.4
7266.05
-12931.7
5418.71
-13849.7
6494.24
-14236.9
10080.4
-14559.3
15291
-14980.5
21499.5
-14979.9
27083.9
-12779.9
28036.6
-6443.54
17726.6
-722.328
-2743.6
745.257
-14475.7
2234.73
-14954.8
3555.82
-11412
-3623.83
3534.16
2787.52
224.83
-2995.88
-5972.94
-8932.71
-11529.7
-13454.2
-14690.5
-15408.9
-15545.8
-14387.1
-10601.6
-4227.39
-83.6995
1052.56
2494.37
3735.79
-150.503
-330.118
33.1191
-1714.25
285.884
-2014.85
496.347
-1864.32
660.755
-1647.48
794.473
-1469.99
878.224
-1332.69
950.274
-1224.61
1004.59
-1129.21
1040.29
-1038.16
1055.56
-949.082
1048.97
-861.691
1020
-776.663
969.183
-694.028
898.3
-613.761
807.097
-535.408
690.722
-463.063
534.508
-397.361
316.612
-328.611
-114.645
-117.444
-212.668
-225.997
-1605.69
-180.732
-2060.11
-93.4062
-1951.65
-2.1799
-1738.7
89.6433
-1561.8
187.372
-1430.41
281.726
-1318.96
366.817
-1214.29
438.4
-1109.74
493.929
-1004.61
532.067
-899.825
552.374
-796.968
554.951
-696.602
540.457
-599.264
507.092
-502.04
448.063
-404.033
345.883
-295.18
183.234
-165.96
68.5892
8.38321
-221.045
-51.0606
-1546.24
-5.40468
-2105.77
92.0159
-2049.07
194.819
-1841.5
297.589
-1664.57
399.248
-1532.07
496.514
-1416.22
583.795
-1301.57
656.371
-1182.31
710.8
-1059.03
744.369
-933.391
754.619
-807.215
739.145
-681.124
695.84
-555.957
622.653
-428.85
517.133
-298.512
375.703
-153.747
188.135
21.6122
256.724
420.907
-641.949
592.095
-1717.43
601.819
-2115.49
591.29
-2038.54
612.414
-1862.62
664.956
-1717.11
734.018
-1601.13
802.089
-1484.29
859.758
-1359.24
902.622
-1225.18
929.51
-1085.92
938.659
-942.538
927.333
-795.888
891.59
-645.38
826.431
-490.795
724.884
-327.302
565.59
-139.216
334.024
77.8222
157.073
198.568
413.797
623.454
-1265.4
945.221
-2039.2
895.083
-2065.35
765.013
-1908.46
694.184
-1791.79
671.184
-1694.11
663.481
-1593.42
645.256
-1466.07
610.297
-1324.28
558.715
-1173.59
492.662
-1019.87
410.959
-860.832
311.703
-696.629
193.827
-527.501
60.5107
-357.474
-70.6519
-196.131
-148.596
-61.2519
-131.756
60.9987
-145.393
212.212
268.404
339.465
-1604.87
384.179
-2083.91
197.277
-1878.45
9.36696
-1720.56
-131.1
-1651.33
-253.341
-1571.87
-376.583
-1470.18
-510.071
-1332.58
-651.723
-1182.63
-798.43
-1026.89
-948.246
-870.049
-1099.49
-709.592
-1247.23
-548.885
-1380.47
-394.258
-1478.82
-259.121
-1507.03
-167.927
-1419.48
-148.793
-1153.58
-204.905
-627.826
-313.536
-359.422
-72.0075
-1532.86
-217.222
-1938.7
-378.831
-1716.84
-536.936
-1562.45
-710.24
-1478.02
-902.058
-1380.05
-1100.02
-1272.21
-1295.63
-1136.97
-1485.48
-992.778
-1670.54
-841.819
-1850.35
-690.239
-2016.47
-543.474
-2147.34
-418.015
-2204.65
-336.948
-2139.07
-324.703
-1911.3
-395.691
-1510.87
-549.229
-963.173
-752.597
-381.496
-895.211
-740.918
-178.698
-1354.16
-196.889
-1920.51
-186.041
-1727.69
-234.409
-1514.08
-316.976
-1395.46
-416.296
-1280.73
-509.201
-1179.31
-581.742
-1064.43
-625.769
-948.751
-639.074
-828.516
-620.571
-708.744
-570.033
-594.014
-489.13
-498.919
-380.017
-446.064
-244.847
-459.874
-92.491
-548.049
44.7773
-686.497
114.845
-822.665
81.6443
-862.011
-659.274
-45.5913
-1308.57
14.0796
-1980.17
89.5953
-1803.2
138.158
-1562.64
177.989
-1435.29
213.595
-1316.34
253.604
-1219.32
307.136
-1117.96
381.131
-1022.75
482.187
-929.567
613.001
-839.557
770.789
-751.799
939.161
-667.291
1084.21
-591.109
1158.35
-534.02
1118.68
-508.375
948.557
-516.376
665.407
-539.516
329.145
-525.751
-330.129
65.529
-1374.1
117.609
-2032.26
170.734
-1856.33
226.974
-1618.88
291.901
-1500.21
358.469
-1382.9
425.912
-1286.76
492.974
-1185.02
559.268
-1089.04
625.142
-995.442
690.625
-905.041
756.092
-817.266
820.006
-731.206
875.126
-646.23
904.313
-563.209
880.28
-484.343
777.688
-413.785
581.156
-342.986
307.985
-252.583
-22.1439
159.125
-1533.22
205.181
-2078.31
235.809
-1886.96
281.031
-1664.1
342.925
-1562.11
402.074
-1442.05
463.52
-1348.21
522.739
-1244.24
581.331
-1147.63
635.416
-1049.53
681.703
-951.329
715.68
-851.243
733.754
-749.281
732.995
-645.471
710.465
-540.681
659.11
-432.989
567.739
-322.415
420.471
-195.719
215.359
-47.4739
193.215
225.694
-1758.92
240.476
-2093.1
261.129
-1907.61
309.401
-1712.38
378.575
-1631.28
443.715
-1507.2
516.888
-1421.38
591.412
-1318.77
672.092
-1228.31
751.136
-1128.57
821.24
-1021.44
870.977
-900.983
892.091
-770.396
879.074
-632.455
828.839
-490.448
739.175
-343.327
608.698
-191.939
428.335
-15.3583
214.168
166.689
407.383
205.229
-1964.15
158.803
-2046.67
167.53
-1916.34
203.158
-1748.01
256.413
-1684.54
308.974
-1559.76
375.808
-1488.22
449.19
-1392.15
533.868
-1312.99
615.699
-1210.4
681.737
-1087.48
716.088
-935.335
714.824
-769.133
676.509
-594.142
598.453
-412.392
480.845
-225.721
334.247
-45.3443
212.056
106.831
79.3032
299.44
486.686
70.9226
-2035.07
-31.0638
-1944.68
-67.5363
-1879.87
-95.8099
-1719.74
-118.41
-1661.94
-138.49
-1539.68
-152.141
-1474.57
-159.12
-1385.17
-161.041
-1311.07
-165.874
-1205.57
-182.69
-1070.66
-213.159
-904.87
-249.474
-732.822
-288.233
-555.388
-328.891
-371.74
-361.034
-193.585
-373.209
-33.1758
-388.248
121.865
-315.26
226.448
171.427
-42.8677
-1992.2
-135.242
-1852.31
-203.912
-1811.2
-283.072
-1640.58
-363.466
-1581.55
-448.297
-1454.85
-540.933
-1381.93
-638.038
-1288.07
-742.015
-1207.1
-844.813
-1102.78
-938.943
-976.534
-1011.28
-832.533
-1055.54
-688.569
-1075.05
-535.879
-1082.84
-363.947
-1080.22
-196.205
-1035.39
-78.0102
-847.874
-65.652
-462.304
-159.123
-290.878
-27.6272
-1964.58
-72.4177
-1807.52
-109.147
-1774.47
-159.748
-1589.98
-210.511
-1530.79
-268.537
-1396.83
-336.115
-1314.36
-412.492
-1211.7
-495.14
-1124.45
-568.318
-1029.6
-613.079
-931.774
-616.844
-828.771
-580.264
-725.15
-503.095
-613.049
-386.282
-480.761
-245.935
-336.555
-102.294
-221.653
32.7096
-200.66
88.7096
-215.127
-202.168
8.20755
-1972.79
-12.703
-1786.61
-13.1754
-1774
-4.75938
-1598.39
3.52962
-1539.08
24.0603
-1417.36
43.6949
-1333.99
68.6954
-1236.7
95.4151
-1151.17
131.381
-1065.57
183.496
-983.89
255.898
-901.174
346.442
-815.696
457.239
-723.848
594.021
-617.545
736.199
-478.734
807.11
-292.567
693.731
-87.2833
403.357
75.2442
201.189
-121.626
-1851.16
-268.463
-1639.78
-378.485
-1663.98
-443.373
-1533.51
-498.126
-1484.33
-517.014
-1398.47
-519.848
-1331.16
-498.464
-1258.08
-459.939
-1189.7
-404.165
-1121.34
-334.093
-1053.96
-249.852
-985.416
-151.568
-913.981
-40.6015
-834.816
76.5306
-734.678
184.485
-586.689
257.659
-365.742
234.893
-64.5187
117.856
192.28
319.045
-197.355
-1653.81
-439.335
-1397.8
-696.399
-1406.92
-907.864
-1322.04
-1109.36
-1282.83
-1275.53
-1232.3
-1417
-1189.68
-1528.68
-1146.41
-1613.79
-1104.59
-1672.45
-1062.69
-1705.8
-1020.61
-1713.45
-977.763
-1694.01
-933.427
-1643.79
-885.029
-1553.21
-825.266
-1399.73
-740.17
-1155.2
-610.27
-797.119
-422.598
-392.646
-212.194
-73.6015
-678.808
-1101.61
-1533.52
-1880.57
-2188.4
-2445.7
-2660.38
-2831.79
-2961.38
-3049.07
-3094.68
-3097.44
-3055.87
-2965.9
-2816.17
-2581.34
-2216.61
-1664.2
-901.398
-678.816
1653.82
-1101.62
1397.81
-1533.55
1406.93
-1880.61
1322.06
-2188.45
1282.85
-2445.77
1232.32
-2660.47
1189.7
-2831.9
1146.43
-2961.5
1104.61
-3049.22
1062.71
-3094.85
1020.64
-3097.64
977.789
-3056.1
933.456
-2966.15
885.059
-2816.43
825.276
-2581.55
740.121
-2216.69
610.139
-1664.15
422.459
-901.331
212.182
73.6695
-197.379
1851.2
-439.386
1639.82
-696.478
1664.02
-907.975
1533.55
-1109.5
1484.37
-1275.71
1398.53
-1417.23
1331.22
-1528.94
1258.15
-1614.1
1189.76
-1672.8
1121.41
-1706.19
1054.02
-1713.87
985.478
-1694.47
914.05
-1644.29
834.887
-1553.73
734.71
-1400.21
586.601
-1155.56
365.495
-797.385
64.2819
-392.821
-192.381
-319.151
-121.63
1972.83
-268.464
1786.65
-378.491
1774.05
-443.365
1598.43
-498.113
1539.12
-516.984
1417.4
-519.802
1334.04
-498.397
1236.74
-459.849
1151.22
-404.057
1065.62
-333.979
983.946
-249.743
901.243
-151.468
815.775
-40.5153
723.936
76.575
617.621
184.403
478.774
257.307
292.592
234.511
87.0789
117.598
-75.4664
-201.553
8.29788
1964.53
-12.5194
1807.47
-12.9001
1774.43
-4.35951
1589.89
4.05037
1530.71
24.733
1396.72
44.5347
1314.24
69.7346
1211.54
96.6718
1124.28
132.858
1029.43
185.161
931.644
257.694
828.711
348.316
725.154
459.149
613.103
595.884
480.886
737.834
336.824
808.27
222.156
694.349
201
403.481
215.403
201.927
-27.4488
1991.98
-72.0807
1852.1
-108.637
1810.99
-159.07
1640.32
-209.648
1581.29
-267.492
1454.56
-334.882
1381.63
-411.071
1287.73
-493.52
1206.73
-566.472
1102.39
-610.995
976.167
-614.552
832.269
-577.824
688.426
-500.563
535.843
-383.712
364.036
-243.273
196.386
-99.549
78.4338
34.6409
66.8121
89.783
160.262
291.71
-43.0454
2035.02
-135.417
1944.47
-204.16
1879.73
-283.449
1719.61
-363.972
1661.82
-448.981
1539.57
-541.823
1474.47
-639.181
1385.09
-743.43
1310.98
-846.469
1205.42
-940.743
1070.44
-1013.1
904.628
-1057.3
732.62
-1076.69
555.238
-1084.28
371.63
-1081.23
193.338
-1035.57
32.7723
-847.144
-121.617
-461.362
-225.519
-169.652
70.5511
1964.47
-31.5538
2046.58
-68.1991
1916.37
-96.6877
1748.1
-119.524
1684.65
-139.844
1559.89
-153.76
1488.39
-161.012
1392.34
-163.234
1313.2
-168.367
1210.56
-185.446
1087.52
-216.07
935.253
-252.427
768.977
-291.134
593.946
-331.688
412.184
-363.831
225.482
-376.382
45.3238
-391.144
-106.854
-316.901
-299.761
-486.552
205.119
1759.35
158.511
2093.19
167.134
1907.75
202.659
1712.58
255.8
1631.51
308.262
1507.43
375.001
1421.65
448.299
1319.05
532.885
1228.62
614.584
1128.86
680.434
1021.67
714.557
901.13
713.086
770.448
674.624
632.408
596.507
490.302
478.917
343.072
332.689
191.552
211.123
14.7125
78.6241
-167.262
-407.928
225.895
1533.46
240.594
2078.49
261.205
1887.14
309.476
1664.3
378.665
1562.32
443.826
1442.27
517.041
1348.43
591.62
1244.47
672.37
1147.87
751.478
1049.75
821.623
951.526
871.362
851.392
892.447
749.363
879.385
645.472
829.093
540.593
739.358
432.808
608.781
322.129
428.215
195.279
214.073
46.8807
-193.856
159.409
1374.05
205.448
2032.45
236.018
1856.57
281.221
1619.1
343.128
1500.42
402.286
1383.11
463.753
1286.97
522.999
1185.22
581.635
1089.23
635.77
995.615
682.101
905.196
716.093
817.399
734.143
731.314
733.305
646.309
710.646
563.253
659.144
484.311
567.661
413.612
420.348
342.592
215.279
251.95
21.4237
65.8708
1308.18
117.964
1980.36
171.022
1803.51
227.234
1562.89
292.171
1435.48
358.732
1316.55
426.153
1219.54
493.15
1118.22
559.342
1023.04
625.042
929.915
690.291
839.947
755.496
752.195
819.147
667.663
874.054
591.402
903.173
534.135
879.222
508.261
776.84
515.994
580.593
538.84
307.669
524.875
329.093
-45.3237
1353.5
14.3992
1920.63
89.9372
1727.97
138.625
1514.2
178.674
1395.43
214.565
1280.66
254.865
1179.24
308.654
1064.43
382.848
948.844
484.012
828.75
614.833
709.125
772.511
594.516
940.665
499.509
1085.39
446.674
1159.14
460.382
1119.11
548.291
948.871
686.238
665.805
821.906
329.574
861.106
658.666
-177.747
1531.25
-195.46
1938.35
-183.705
1716.22
-230.994
1561.49
-312.504
1476.94
-410.735
1378.89
-502.538
1271.05
-573.95
1135.85
-616.848
991.741
-629.019
840.921
-609.448
689.554
-558.03
543.097
-476.555
418.034
-367.288
337.407
-232.528
325.621
-81.3862
397.149
53.4927
551.358
120.149
755.25
83.692
897.563
742.358
-69.7174
1600.97
-214.008
2082.64
-375.475
1877.68
-533.158
1719.17
-705.699
1649.48
-896.842
1570.03
-1094.25
1468.45
-1289.36
1330.95
-1478.66
1181.04
-1663.13
1025.39
-1842.31
868.731
-2007.79
708.577
-2138.07
548.322
-2194.88
394.217
-2128.88
259.62
-1900.9
169.162
-1501.05
151.516
-955.835
210.03
-378.438
320.165
363.92
345.83
1255.14
395.913
2032.55
210.407
2063.19
21.825
1907.76
-119.243
1790.55
-241.757
1692.54
-365.227
1591.92
-499.106
1464.83
-641.305
1323.24
-788.693
1172.78
-939.282
1019.32
-1091.33
860.622
-1239.88
696.87
-1373.92
528.259
-1473.04
358.743
-1501.64
197.763
-1413.34
63.2124
-1153.01
-50.2982
-626.733
-206.117
-262.812
638.284
616.852
973.37
1697.47
926.796
2109.76
795.123
2039.43
721.915
1863.75
697.127
1717.33
688.052
1601
668.486
1484.4
632.003
1359.72
578.706
1226.07
510.792
1087.23
427.125
944.288
325.838
798.155
205.784
648.312
69.8522
494.673
-65.2403
332.853
-151.108
149.074
-125.466
-75.9457
-140.532
-191.054
-403.344
449.933
166.918
629.149
1518.25
638.06
2100.85
624.256
2053.23
641.991
1846.02
691.594
1667.73
758.122
1534.47
823.88
1418.64
879.307
1304.3
919.947
1185.43
944.629
1062.55
951.614
937.303
938.233
811.535
900.669
685.876
834.184
561.158
732.401
434.635
576.413
305.061
339.068
161.398
159.482
-11.4696
-243.862
32.5941
134.323
-29.4017
1580.24
10.9937
2060.46
104.847
1959.38
205.017
1745.85
305.645
1567.1
405.387
1434.73
501.086
1322.94
587.129
1218.25
658.719
1113.84
712.337
1008.93
745.209
904.43
754.857
801.888
738.871
701.861
695.133
604.897
621.557
508.21
515.723
410.894
373.961
303.16
186.365
176.126
-57.497
-111.818
246.141
-227.431
1695.86
-184.579
2017.6
-98.0187
1872.82
-6.99461
1654.82
84.9132
1475.19
182.772
1336.87
276.859
1228.85
361.248
1133.86
431.698
1043.39
485.792
954.837
522.33
867.892
540.964
783.254
541.77
701.055
525.365
621.302
490.147
543.428
430.239
470.802
329.379
404.02
171.919
333.585
114.422
-208.549
-17.1715
249.842
471.91
643.803
781.755
862.682
935.437
992.335
1032.11
1052.24
1050.55
1025.83
978.047
908.64
817.538
700.784
544.429
326.385
)
;

boundaryField
{
    outletWall
    {
        type            calculated;
        value           nonuniform List<scalar> 
60
(
22852.4
7735.01
-424.321
-11994.9
-21311.9
-26120.9
-28345.2
-27602.6
-23248.7
-19867.1
-15888.9
-10442
10876
14659.7
13442.7
11574.4
9187.83
6612.32
4659.34
2738.48
-3455.21
-4723.26
-4198.34
-4358.44
-4236.91
-4156.04
-3991.54
-3715.93
-3282.37
-2716.33
-2034.69
-1115.07
-304.959
762.609
1496.49
1755.95
1612.77
906.013
-766.536
-1961.85
11737.3
-3868
-12653.4
-16396.6
-15612
-6887.29
11352.4
24251.1
25925.2
21636.4
16009.5
11316.7
8418.69
8015.72
10225.8
14924.1
19713.6
16122.9
8783.74
5376.12
)
;
    }
    fineWalls
    {
        type            calculated;
        value           uniform 0;
    }
    fineFrontAndBack
    {
        type            calculated;
        value           nonuniform List<scalar> 
960
(
-2.44285e-13
9.91544e-12
2.5302e-12
1.08954e-12
-1.06057e-11
-2.68283e-12
-1.46551e-12
-1.534e-12
-1.46515e-10
-7.2792e-11
-3.98375e-11
-5.80352e-11
1.12808e-11
1.0983e-11
3.17573e-11
5.48136e-12
5.72424e-12
1.54608e-11
2.25159e-12
1.90687e-12
3.82786e-13
6.25429e-14
-6.10825e-14
-2.01418e-13
-2.69875e-13
-4.8148e-13
-8.48085e-12
-7.90868e-13
-8.78907e-13
-9.3443e-13
-9.48892e-13
-9.49118e-13
-9.14662e-13
-8.14079e-13
-6.45881e-13
-4.485e-13
-3.01204e-13
-2.7028e-13
-2.35458e-13
-4.09418e-13
8.34006e-12
2.74478e-12
2.61468e-12
1.99411e-12
1.73329e-11
3.26467e-12
3.42821e-12
1.67905e-12
8.43914e-11
1.24712e-11
8.54374e-12
1.39144e-11
1.795e-12
1.07577e-12
4.34122e-13
-3.69385e-12
-1.80263e-12
-2.60907e-12
-2.52824e-12
-1.87013e-12
7.96907e-13
6.75446e-13
7.23487e-13
6.84807e-13
7.33019e-13
8.3271e-13
9.45175e-13
1.0229e-12
1.06217e-12
1.0837e-12
1.09048e-12
1.08131e-12
1.04271e-12
1.66574e-11
8.91056e-13
6.89727e-13
6.37884e-13
5.68088e-13
5.51242e-13
3.41097e-13
2.88549e-12
2.83225e-12
1.87993e-11
3.93219e-12
3.65498e-12
1.60404e-11
4.2278e-12
5.91139e-12
2.75797e-11
7.49665e-12
8.37455e-12
4.51593e-11
9.72789e-12
9.79398e-12
9.37888e-12
3.67971e-11
5.69212e-12
5.46372e-12
2.19288e-11
6.36744e-12
-1.30053e-11
-4.20642e-12
-4.7709e-12
-1.47268e-11
-1.5125e-11
-1.67779e-11
-1.88491e-11
-1.74797e-11
-1.49572e-11
-1.44838e-11
-1.3948e-11
-1.09021e-11
-1.49467e-11
-2.32756e-11
-3.18179e-11
-2.7367e-11
-1.82592e-11
-9.58674e-12
-2.68295e-11
-2.55491e-12
4.49727e-12
-4.90101e-12
-1.18698e-11
-1.27558e-11
-1.46416e-11
-1.76975e-11
-1.55421e-11
-1.43739e-11
-1.44813e-11
-1.38975e-11
-1.0918e-11
-1.4995e-11
-2.32524e-11
-3.17411e-11
-2.77636e-11
-1.96604e-11
-1.04018e-11
-3.33095e-11
6.17127e-12
4.10644e-12
-2.90457e-12
-9.11168e-12
-1.22707e-11
-1.41792e-11
-1.71315e-11
-1.38698e-11
-1.30058e-11
-1.44352e-11
-1.3807e-11
-1.09538e-11
-1.51173e-11
-2.32905e-11
-3.16933e-11
-2.81823e-11
-2.14693e-11
-1.22485e-11
-3.51033e-11
8.88897e-12
6.08469e-12
1.79484e-12
-5.35921e-12
-1.19266e-11
-1.39168e-11
-1.60906e-11
-1.17677e-11
-1.14e-11
-1.4075e-11
-1.3691e-11
-1.10113e-11
-1.53507e-11
-2.34682e-11
-3.17094e-11
-2.84995e-11
-2.3207e-11
-1.74299e-11
-2.97117e-11
1.09333e-11
9.90516e-12
7.03333e-12
-1.023e-12
-1.20849e-11
-1.42106e-11
-1.46355e-11
-9.76012e-12
-1.00085e-11
-1.3248e-11
-1.34881e-11
-1.11166e-11
-1.57428e-11
-2.3873e-11
-3.1782e-11
-2.86044e-11
-2.45126e-11
-2.10361e-11
-1.60648e-11
1.28704e-11
1.2685e-11
1.07816e-11
3.18168e-12
-1.24642e-11
-1.45819e-11
-1.25024e-11
-8.16586e-12
-8.93961e-12
-1.20739e-11
-1.2988e-11
-1.13246e-11
-1.63647e-11
-2.45986e-11
-3.19884e-11
-2.8623e-11
-2.94338e-11
-1.71572e-11
3.88859e-12
1.3126e-11
1.27655e-11
1.1889e-11
6.33794e-12
-1.2848e-11
-1.45068e-11
-9.7316e-12
-7.14237e-12
-8.22438e-12
-1.09796e-11
-1.23659e-11
-1.18804e-11
-1.72688e-11
-2.5573e-11
-3.15048e-11
-2.7498e-11
-3.26676e-11
-9.4449e-12
1.75928e-11
1.25439e-11
1.18967e-11
1.11822e-11
7.83549e-12
-1.32177e-11
-1.36875e-11
-6.28558e-12
-6.79865e-12
-7.52678e-12
-9.8006e-12
-1.14789e-11
-1.2449e-11
-1.85546e-11
-2.71463e-11
-3.31893e-11
-3.04957e-11
-3.48267e-12
-3.09632e-12
-1.28743e-11
1.24912e-11
1.1568e-11
1.02148e-11
7.74038e-12
-1.36042e-11
-1.22366e-11
-1.44655e-12
-7.33489e-12
-7.53269e-12
-9.15751e-12
-1.14167e-11
-1.4304e-11
-2.024e-11
-2.72486e-11
-2.51301e-11
-5.65754e-12
1.77834e-11
2.49884e-12
-6.69772e-12
1.19715e-11
1.10088e-11
9.53177e-12
6.47426e-12
-1.37471e-11
-1.07794e-11
-1.29574e-12
-8.63686e-12
-9.37611e-12
-1.03117e-11
-1.17624e-11
-1.41097e-11
-2.22789e-11
-3.43564e-11
-3.88017e-11
2.14266e-11
3.60557e-11
2.95284e-11
2.43057e-11
1.07218e-11
9.99421e-12
8.83085e-12
4.42984e-12
-1.30339e-11
-1.0257e-11
-1.30411e-11
-6.98915e-12
-9.89719e-12
-1.10317e-11
-1.14552e-11
-1.44582e-11
-2.66076e-11
-3.89445e-11
-2.12959e-11
6.13233e-11
6.63435e-11
4.7079e-11
7.33521e-11
9.16738e-12
8.87093e-12
8.19066e-12
1.96984e-12
-1.12934e-11
-7.11517e-12
-6.87264e-12
-6.47754e-12
-7.39377e-12
-9.20895e-12
-1.09162e-11
-1.71636e-11
-3.19444e-11
-3.47076e-11
6.68009e-12
5.10523e-11
3.87175e-12
1.18764e-12
2.33134e-11
7.89373e-12
7.89734e-12
7.6248e-12
-1.37429e-13
-8.65976e-12
-6.82458e-12
-1.02948e-11
-8.75186e-12
-7.05208e-12
-8.60608e-12
-1.31725e-11
-2.30462e-11
-3.56e-11
-2.55047e-11
1.88419e-11
2.66757e-11
-1.87706e-11
-1.251e-12
8.58194e-12
7.07754e-12
7.14106e-12
7.02671e-12
-1.13791e-12
-6.03838e-12
-7.29648e-12
-1.42368e-11
-1.47021e-11
-1.24356e-11
-1.35279e-11
-1.96828e-11
-3.00415e-11
-3.56665e-11
-1.57655e-11
1.92599e-11
7.02641e-12
-2.55505e-11
-1.81213e-11
-2.0391e-11
6.54462e-12
6.5686e-12
6.60204e-12
-1.01647e-12
-4.15584e-12
-7.54462e-12
-1.64307e-11
-1.97784e-11
-1.9871e-11
-2.16317e-11
-2.73216e-11
-3.43387e-11
-3.17178e-11
-7.98057e-12
1.40851e-11
-5.64852e-12
-1.53104e-11
-1.45841e-11
-3.78328e-11
6.04919e-12
6.05611e-12
6.52914e-12
-6.53496e-14
-2.89653e-12
-6.02624e-12
-1.4527e-11
-2.02854e-11
-2.38644e-11
-2.72166e-11
-3.15507e-11
-3.37607e-11
-2.50011e-11
-3.12485e-12
6.993e-12
-1.37926e-11
-1.32065e-11
-1.58397e-11
-2.93763e-11
5.37943e-12
5.38687e-12
6.40174e-12
1.63881e-12
-8.0481e-13
-1.3034e-12
-8.69123e-12
-1.58607e-11
-2.20599e-11
-2.69489e-11
-3.01082e-11
-2.85614e-11
-1.75325e-11
-1.2959e-12
1.04696e-12
-1.05583e-11
-1.305e-11
-1.65578e-11
-6.77702e-12
4.81982e-12
4.85003e-12
6.54161e-12
2.1157e-12
-9.89634e-13
2.77707e-12
-2.0331e-12
-8.56228e-12
-1.54176e-11
-2.09042e-11
-2.33421e-11
-2.03444e-11
-1.08949e-11
-1.54299e-12
-2.91368e-12
-6.25656e-12
-1.27765e-11
-1.65721e-11
-4.69263e-12
3.07805e-12
3.86497e-12
7.42821e-12
1.08554e-12
-2.78561e-12
5.06832e-12
4.24626e-12
4.87044e-14
-5.83895e-12
-1.1126e-11
-1.35356e-11
-1.13864e-11
-5.75892e-12
-2.40744e-12
-5.67029e-12
-5.87903e-12
-1.31305e-11
-1.66003e-11
-2.36041e-11
1.93997e-12
2.56362e-12
4.00438e-12
-5.76712e-12
-8.1075e-12
6.46547e-14
3.88647e-12
5.22134e-12
4.29064e-12
2.15666e-12
3.94564e-13
-2.18886e-13
-7.3868e-13
-3.34946e-12
-7.03483e-12
-6.05209e-12
-1.35394e-11
-1.73152e-11
-1.94506e-11
2.44285e-13
-9.91544e-12
-2.5302e-12
-1.08954e-12
1.06057e-11
2.68283e-12
1.46551e-12
1.534e-12
1.46515e-10
7.2792e-11
3.98375e-11
5.80352e-11
-1.12808e-11
-1.0983e-11
-3.17573e-11
-5.48136e-12
-5.72424e-12
-1.54608e-11
-2.25159e-12
-1.90687e-12
-3.82786e-13
-6.25429e-14
6.10825e-14
2.01418e-13
2.69875e-13
4.8148e-13
8.48085e-12
7.90868e-13
8.78907e-13
9.3443e-13
9.48892e-13
9.49118e-13
9.14662e-13
8.14079e-13
6.45881e-13
4.485e-13
3.01204e-13
2.7028e-13
2.35458e-13
4.09418e-13
-8.34006e-12
-2.74478e-12
-2.61468e-12
-1.99411e-12
-1.73329e-11
-3.26467e-12
-3.42821e-12
-1.67905e-12
-8.43914e-11
-1.24712e-11
-8.54374e-12
-1.39144e-11
-1.795e-12
-1.07577e-12
-4.34122e-13
3.69385e-12
1.80263e-12
2.60907e-12
2.52824e-12
1.87013e-12
-7.96907e-13
-6.75446e-13
-7.23487e-13
-6.84807e-13
-7.33019e-13
-8.3271e-13
-9.45175e-13
-1.0229e-12
-1.06217e-12
-1.0837e-12
-1.09048e-12
-1.08131e-12
-1.04271e-12
-1.66574e-11
-8.91056e-13
-6.89727e-13
-6.37884e-13
-5.68088e-13
-5.51242e-13
-3.41097e-13
-2.88549e-12
-2.83225e-12
-1.87993e-11
-3.93219e-12
-3.65498e-12
-1.60404e-11
-4.2278e-12
-5.91139e-12
-2.75797e-11
-7.49665e-12
-8.37455e-12
-4.51593e-11
-9.72789e-12
-9.79398e-12
-9.37888e-12
-3.67971e-11
-5.69212e-12
-5.46372e-12
-2.19288e-11
-6.36744e-12
1.30053e-11
4.20642e-12
4.7709e-12
1.47268e-11
1.5125e-11
1.67779e-11
1.88491e-11
1.74797e-11
1.49572e-11
1.44838e-11
1.3948e-11
1.09021e-11
1.49467e-11
2.32756e-11
3.18179e-11
2.7367e-11
1.82592e-11
9.58674e-12
2.68295e-11
2.55491e-12
-4.49727e-12
4.90101e-12
1.18698e-11
1.27558e-11
1.46416e-11
1.76975e-11
1.55421e-11
1.43739e-11
1.44813e-11
1.38975e-11
1.0918e-11
1.4995e-11
2.32524e-11
3.17411e-11
2.77636e-11
1.96604e-11
1.04018e-11
3.33095e-11
-6.17127e-12
-4.10644e-12
2.90457e-12
9.11168e-12
1.22707e-11
1.41792e-11
1.71315e-11
1.38698e-11
1.30058e-11
1.44352e-11
1.3807e-11
1.09538e-11
1.51173e-11
2.32905e-11
3.16933e-11
2.81823e-11
2.14693e-11
1.22485e-11
3.51033e-11
-8.88897e-12
-6.08469e-12
-1.79484e-12
5.35921e-12
1.19266e-11
1.39168e-11
1.60906e-11
1.17677e-11
1.14e-11
1.4075e-11
1.3691e-11
1.10113e-11
1.53507e-11
2.34682e-11
3.17094e-11
2.84995e-11
2.3207e-11
1.74299e-11
2.97117e-11
-1.09333e-11
-9.90516e-12
-7.03333e-12
1.023e-12
1.20849e-11
1.42106e-11
1.46355e-11
9.76012e-12
1.00085e-11
1.3248e-11
1.34881e-11
1.11166e-11
1.57428e-11
2.3873e-11
3.1782e-11
2.86044e-11
2.45126e-11
2.10361e-11
1.60648e-11
-1.28704e-11
-1.2685e-11
-1.07816e-11
-3.18168e-12
1.24642e-11
1.45819e-11
1.25024e-11
8.16586e-12
8.93961e-12
1.20739e-11