/*--------------------------------*- C++ -*----------------------------------*\
| =========                 |                                                 |
| \\      /  F ield         | OpenFOAM: The Open Source CFD Toolbox           |
|  \\    /   O peration     | Version:  4.1                                   |
|   \\  /    A nd           | Web:      www.OpenFOAM.org                      |
|    \\/     M anipulation  |                                                 |
\*---------------------------------------------------------------------------*/
FoamFile
{
    version     2.0;
    format      ascii;
    class       volVectorField;
    location    "19";
    object      U;
}
// * * * * * * * * * * * * * * * * * * * * * * * * * * * * * * * * * * * * * //

dimensions      [0 1 -1 0 0 0 0];

internalField   nonuniform List<vector> 
1280
(
(-1.76538e-16 -3.84593 -3.3055)
(1.68523e-15 -2.81788 -3.01562)
(1.82851e-15 -2.99277 -2.27453)
(7.87385e-16 -2.35877 -2.51786)
(-1.80253e-15 -2.26709 -3.34996)
(-1.93881e-15 -1.60077 -2.2535)
(-1.05908e-15 -1.32157 -2.45903)
(-9.16679e-16 -0.898035 -2.45492)
(-2.56692e-14 -0.401578 -3.07135)
(-5.26049e-14 -0.2591 -1.74604)
(-2.87895e-14 0.145867 -2.08801)
(-8.23634e-15 0.523104 -3.25212)
(8.15233e-15 0.851818 -2.60705)
(7.93716e-15 1.3291 -2.35668)
(6.29218e-15 1.87655 -3.71523)
(3.96124e-15 2.04068 -2.92993)
(4.13676e-15 2.60109 -2.53663)
(2.62771e-15 3.40899 -4.66422)
(1.61895e-15 3.58404 -3.26459)
(1.37804e-15 4.2031 -3.96858)
(1.5704e-15 4.0454 -2.54709)
(2.56586e-16 4.33479 4.30626)
(-2.50595e-16 3.98219 8.60055)
(-8.26332e-16 4.21678 10.4565)
(-1.10718e-15 4.41889 11.0309)
(-1.9753e-15 4.86085 11.165)
(-1.78779e-15 3.87035 8.3931)
(-3.24459e-15 8.04634 13.1123)
(-3.60577e-15 8.07137 12.9956)
(-3.83356e-15 8.13146 12.832)
(-3.89289e-15 8.17513 12.7574)
(-3.89382e-15 8.20017 12.8001)
(-3.75246e-15 8.21481 12.9296)
(-3.33981e-15 8.19591 13.0665)
(-2.64977e-15 8.1608 13.1133)
(-1.84e-15 8.0758 13.0259)
(-1.23571e-15 8.02673 12.9378)
(-1.10884e-15 7.8646 12.9543)
(-9.65983e-16 7.87778 13.5034)
(-1.67966e-15 7.54592 13.4144)
(1.45171e-15 9.17736 14.8007)
(2.20464e-15 4.92194 9.99453)
(2.10014e-15 3.62885 9.51411)
(1.66951e-15 2.72456 8.94032)
(3.55953e-15 1.15361 7.24578)
(2.62223e-15 0.726315 3.56281)
(2.75358e-15 -0.115012 3.39211)
(1.34863e-15 -0.729108 3.97638)
(2.75459e-14 -0.958849 -3.17902)
(1.0017e-14 3.4475 -0.790545)
(6.86244e-15 -3.54775 -1.68496)
(2.422e-15 1.19074 -0.71963)
(1.44177e-15 0.568324 4.30282)
(8.64076e-16 0.0269461 3.89791)
(3.48692e-16 -0.715957 4.07394)
(-6.42967e-16 -1.36953 7.66136)
(-1.38212e-15 -2.76454 8.98027)
(-2.09564e-15 -3.6989 9.50293)
(-2.03071e-15 -4.94229 9.85206)
(-5.93766e-16 -9.34245 14.4213)
(3.26936e-15 -7.77564 13.0217)
(2.77106e-15 -8.08472 13.0332)
(2.96815e-15 -8.06408 12.5047)
(2.80946e-15 -8.21354 12.4741)
(3.00726e-15 -8.24962 12.5078)
(3.41624e-15 -8.31898 12.4966)
(3.87764e-15 -8.33393 12.3449)
(4.19651e-15 -8.33076 12.1269)
(4.35762e-15 -8.29419 11.9588)
(4.44595e-15 -8.25338 11.9319)
(4.47377e-15 -8.20315 12.087)
(4.43615e-15 -8.13499 12.3945)
(4.27778e-15 -8.13666 12.672)
(3.51144e-15 -4.10054 7.96987)
(3.65561e-15 -5.14088 10.5407)
(2.82965e-15 -4.71701 10.225)
(2.61696e-15 -4.5351 9.39362)
(2.33062e-15 -4.3164 7.22848)
(2.26151e-15 -4.6644 2.6899)
(1.39937e-15 -4.33696 -4.15097)
(2.08527e-15 -4.54064 -4.93651)
(2.04324e-15 -3.56059 -4.39151)
(3.19512e-15 -3.12821 -6.02875)
(2.84169e-15 -2.36762 -4.07779)
(2.64136e-15 -1.43082 -4.67563)
(3.48399e-15 -0.351495 -6.30449)
(3.05532e-15 0.0995282 -4.32059)
(4.27201e-15 0.923112 -3.85343)
(5.38379e-15 2.06132 -5.01825)
(5.41763e-15 2.28417 -3.38665)
(5.94328e-15 2.851 -3.02724)
(7.99747e-15 4.23042 -4.03973)
(7.08379e-15 3.89498 -2.77615)
(7.07785e-15 4.68587 -2.72108)
(6.77787e-15 4.73478 -2.58829)
(6.25403e-15 6.36689 -3.77858)
(4.11355e-15 5.6754 -2.81799)
(3.94849e-15 6.49016 -2.6097)
(3.79067e-15 6.76225 -3.51338)
(4.60158e-15 7.48972 -3.61558)
(-1.44503e-15 0.901228 -1.62813)
(-4.6738e-16 1.48462 -0.653321)
(-5.301e-16 2.12498 0.418253)
(-1.63631e-15 3.03245 1.07076)
(-1.68056e-15 3.86256 1.14674)
(-1.86421e-15 4.50496 0.890047)
(-2.09434e-15 4.90705 0.273756)
(-1.94219e-15 3.62216 -0.282405)
(-1.66191e-15 -3.46785 -0.499094)
(-1.60932e-15 -5.27576 -0.132938)
(-1.54977e-15 -6.62848 0.204197)
(-1.21134e-15 -7.74681 0.40539)
(-1.66075e-15 -9.18132 0.260964)
(-2.58618e-15 -9.42931 -0.321386)
(-3.53532e-15 -8.69526 -0.908471)
(-3.04078e-15 -7.09318 -1.82697)
(-2.0288e-15 -3.99829 -2.76776)
(-1.06519e-15 -0.0717327 -3.29299)
(-2.98105e-15 2.61804 -4.21266)
(-2.83879e-16 0.531344 -0.614443)
(4.99697e-16 0.876406 0.865589)
(-5.44557e-16 1.71544 0.760233)
(-1.31887e-15 2.85606 0.728891)
(-1.41731e-15 3.92829 0.615633)
(-1.62684e-15 4.76882 0.327347)
(-1.96639e-15 5.3101 -0.404561)
(-1.7269e-15 3.87379 -0.698671)
(-1.5971e-15 -3.51607 -0.575325)
(-1.60903e-15 -5.59128 -0.0817343)
(-1.54417e-15 -6.79632 0.353578)
(-1.21311e-15 -7.77647 0.547605)
(-1.66611e-15 -8.97684 0.427929)
(-2.5836e-15 -9.06985 -0.140606)
(-3.52679e-15 -8.19798 -0.755355)
(-3.08484e-15 -6.46426 -1.79834)
(-2.18448e-15 -3.42262 -2.92839)
(-1.15575e-15 0.250278 -4.40825)
(-3.70106e-15 2.62563 -4.26931)
(6.85697e-16 0.268519 0.815207)
(4.56271e-16 0.910292 1.28756)
(-3.22731e-16 1.97861 0.785607)
(-1.01241e-15 3.00414 0.643694)
(-1.36341e-15 4.0346 0.404044)
(-1.57547e-15 4.92213 0.11729)
(-1.9035e-15 5.47583 -0.662213)
(-1.54109e-15 3.72039 -0.487884)
(-1.44509e-15 -3.68508 -0.225803)
(-1.60391e-15 -5.76506 0.0797752)
(-1.53411e-15 -6.90067 0.598331)
(-1.21709e-15 -7.79798 0.786435)
(-1.6797e-15 -8.84455 0.696266)
(-2.58784e-15 -8.84851 0.151577)
(-3.52148e-15 -7.88249 -0.484095)
(-3.13137e-15 -6.03579 -1.66157)
(-2.38547e-15 -2.83735 -3.05731)
(-1.36094e-15 0.491736 -5.01192)
(-3.90036e-15 2.32126 -5.15794)
(9.87664e-16 0.222066 1.38744)
(6.76077e-16 0.958704 1.37504)
(1.99426e-16 2.04508 0.84493)
(-5.95468e-16 3.05973 0.557518)
(-1.32518e-15 4.15375 0.212773)
(-1.54631e-15 5.12566 -0.0563091)
(-1.78785e-15 5.64646 -0.789443)
(-1.30752e-15 3.48271 -0.00152713)
(-1.26667e-15 -3.73291 0.513768)
(-1.56388e-15 -5.89562 0.388842)
(-1.52123e-15 -7.01965 0.924025)
(-1.22348e-15 -7.82742 1.12497)
(-1.70563e-15 -8.73547 1.04856)
(-2.60757e-15 -8.64248 0.552788)
(-3.52327e-15 -7.53679 -0.083715)
(-3.16661e-15 -5.51961 -1.38034)
(-2.57856e-15 -2.05537 -3.0868)
(-1.93665e-15 1.06373 -5.63389)
(-3.3013e-15 2.05399 -6.27892)
(1.21481e-15 0.244917 1.51386)
(1.10057e-15 1.13461 1.37689)
(7.81482e-16 2.26078 0.860213)
(-1.13667e-16 3.23336 0.47594)
(-1.34277e-15 4.29088 0.0715895)
(-1.57895e-15 5.27988 -0.152963)
(-1.62616e-15 5.63841 -0.688956)
(-1.08446e-15 2.97598 0.73679)
(-1.11206e-15 -3.67435 1.38146)
(-1.47201e-15 -5.9611 0.927547)
(-1.49867e-15 -7.1461 1.31743)
(-1.23518e-15 -7.86831 1.57536)
(-1.7492e-15 -8.62353 1.49595)
(-2.65256e-15 -8.42302 1.0749)
(-3.53133e-15 -7.13131 0.458629)
(-3.17827e-15 -4.88547 -0.953)
(-2.72362e-15 -1.07724 -2.96779)
(-2.33734e-15 1.6887 -6.31287)
(-1.78498e-15 1.54361 -7.15449)
(1.43004e-15 0.213714 1.31962)
(1.40944e-15 1.24717 1.18179)
(1.19795e-15 2.42361 0.773876)
(3.53521e-16 3.3892 0.384668)
(-1.38491e-15 4.41638 -0.0182772)
(-1.62022e-15 5.37964 -0.174067)
(-1.38916e-15 5.46977 -0.320916)
(-9.07318e-16 2.36431 1.63132)
(-9.93289e-16 -3.64538 2.28512)
(-1.34155e-15 -5.92948 1.69331)
(-1.44311e-15 -7.23545 1.80765)
(-1.25828e-15 -7.92233 2.10842)
(-1.8183e-15 -8.5274 2.04517)
(-2.73318e-15 -8.23404 1.71525)
(-3.55427e-15 -6.70639 1.13698)
(-3.18033e-15 -4.14329 -0.419834)
(-3.27042e-15 0.399411 -3.44796)
(-1.90635e-15 2.91135 -5.9437)
(4.32065e-16 2.19773 -6.21762)
(1.45844e-15 0.217329 0.778756)
(1.41839e-15 1.35773 0.72671)
(1.321e-15 2.57223 0.567883)
(7.04216e-16 3.54852 0.274768)
(-1.42756e-15 4.51703 -0.0599006)
(-1.61187e-15 5.37156 -0.0987835)
(-1.08129e-15 5.08825 0.31534)
(-7.93597e-16 1.66258 2.63417)
(-9.1382e-16 -3.57842 3.20029)
(-1.21995e-15 -5.81552 2.56652)
(-1.37399e-15 -7.26802 2.4252)
(-1.32004e-15 -7.98561 2.68379)
(-1.91875e-15 -8.4596 2.69306)
(-2.84145e-15 -8.07903 2.47522)
(-3.50054e-15 -6.31081 1.99504)
(-3.05534e-15 -3.24527 0.410611)
(-3.62974e-15 1.3083 -4.66776)
(-1.04943e-15 3.36488 -1.35684)
(1.95475e-15 2.48184 -0.441196)
(1.39377e-15 0.0744663 0.0355536)
(1.32186e-15 1.42429 0.0976718)
(1.24246e-15 2.61928 0.253138)
(8.7061e-16 3.64745 0.157665)
(-1.46863e-15 4.56246 -0.0414088)
(-1.52084e-15 5.21943 0.12115)
(-6.98398e-16 4.51332 1.18903)
(-7.55406e-16 0.954827 3.64286)
(-8.36309e-16 -3.48319 4.07009)
(-1.08896e-15 -5.65476 3.44564)
(-1.27543e-15 -7.24312 3.14551)
(-1.38322e-15 -8.0495 3.29112)
(-2.06163e-15 -8.43783 3.42848)
(-3.01625e-15 -7.98236 3.38609)
(-3.6877e-15 -5.87513 2.96027)
(-3.38841e-15 -1.81982 0.763292)
(-3.86963e-16 1.22974 1.54437)
(-3.44036e-16 -0.2739 8.63513)
(-1.43048e-15 -5.16497 12.6354)
(1.38791e-15 -0.149629 -0.816425)
(1.28533e-15 1.31665 -0.479931)
(1.13497e-15 2.57044 -0.0979288)
(8.60043e-16 3.66914 0.0569479)
(-1.51158e-15 4.52096 0.0559814)
(-1.35963e-15 4.88908 0.539658)
(-1.60728e-16 3.77997 2.2321)
(-8.14988e-16 0.293191 4.57409)
(-8.36966e-16 -3.37783 4.85717)
(-1.0175e-15 -5.47605 4.28296)
(-1.26852e-15 -7.17335 3.91359)
(-1.58934e-15 -8.11576 3.94702)
(-2.24889e-15 -8.48925 4.22533)
(-3.02762e-15 -7.90761 4.36221)
(-2.79223e-15 -5.44013 3.9697)
(-6.28616e-16 -2.1539 4.04793)
(1.97593e-15 -1.02073 8.96407)
(2.77648e-16 -0.075739 10.8225)
(-7.44191e-16 -0.20133 10.2032)
(1.33017e-15 -0.240089 -1.63799)
(1.22321e-15 1.1099 -0.978317)
(1.05909e-15 2.42243 -0.387554)
(7.19362e-16 3.59368 0.0182322)
(-1.52745e-15 4.35472 0.281283)
(-1.19771e-15 4.37208 1.1991)
(2.8725e-16 2.95807 3.34706)
(-9.59651e-16 -0.266514 5.3729)
(-1.04179e-15 -3.27227 5.54803)
(-1.14575e-15 -5.30206 5.05532)
(-1.30693e-15 -7.08206 4.68335)
(-1.54966e-15 -8.18722 4.65119)
(-2.47543e-15 -8.59413 5.01637)
(-3.81737e-15 -7.90674 5.28448)
(-4.78116e-15 -5.6938 5.4411)
(2.38073e-15 -3.44731 7.37231)
(4.00618e-15 -1.73785 8.73361)
(3.28094e-15 -0.698246 5.23983)
(2.70063e-15 -0.910357 2.5714)
(1.19131e-15 -0.428484 -2.2233)
(1.11047e-15 0.816127 -1.36413)
(9.81206e-16 2.1861 -0.580481)
(4.92204e-16 3.41452 0.0957168)
(-1.44822e-15 4.03174 0.707245)
(-1.13966e-15 3.69329 2.09651)
(-1.98701e-15 2.13065 4.42254)
(-7.76572e-16 -0.674071 6.02292)
(-1.09969e-15 -3.18042 6.1449)
(-1.22575e-15 -5.1495 5.75275)
(-1.2728e-15 -6.991 5.42418)
(-1.60647e-15 -8.25887 5.3689)
(-2.9564e-15 -8.73931 5.74818)
(-4.32716e-15 -8.09129 6.18427)
(-2.36621e-15 -6.29193 7.14231)
(6.8137e-15 -3.87778 9.48403)
(7.3715e-15 -0.64684 9.32357)
(5.231e-15 1.55433 7.47699)
(8.15023e-15 1.67183 4.46681)
(1.0186e-15 -0.645614 -2.71123)
(9.85659e-16 0.459791 -1.69229)
(9.10074e-16 1.83297 -0.661948)
(2.18872e-16 3.09917 0.357076)
(-1.25482e-15 3.53759 1.39953)
(-7.90574e-16 2.91723 3.16252)
(-7.63626e-16 1.37376 5.36545)
(-7.19726e-16 -0.978662 6.55826)
(-8.2153e-16 -3.12082 6.67465)
(-1.02322e-15 -5.02943 6.3921)
(-1.21291e-15 -6.91254 6.13191)
(-1.90707e-15 -8.32373 6.07431)
(-3.54938e-15 -8.92262 6.42295)
(-3.8564e-15 -8.47546 7.06331)
(7.42232e-16 -7.05891 8.73381)
(5.67248e-15 -4.24595 11.361)
(4.30195e-16 -0.305959 11.4999)
(1.3196e-16 1.74972 10.9013)
(2.59037e-15 2.57034 10.9089)
(8.77081e-16 -0.871628 -3.08383)
(8.77482e-16 0.013995 -2.0172)
(8.472e-16 1.34303 -0.640171)
(-1.52699e-17 2.60649 0.863282)
(-9.62196e-16 2.89115 2.35708)
(-7.58287e-16 2.13301 4.27361)
(-1.14387e-15 0.745005 6.1277)
(-9.72429e-16 -1.20243 7.00485)
(-7.83564e-16 -3.09045 7.16857)
(-9.56231e-16 -4.94407 7.0096)
(-1.46361e-15 -6.85255 6.82804)
(-2.56069e-15 -8.38168 6.76569)
(-3.95556e-15 -9.13868 7.05586)
(-2.83386e-15 -9.00033 7.86009)
(2.09355e-15 -7.90922 9.71105)
(2.96396e-15 -4.71796 10.5227)
(-2.08562e-15 -0.602464 6.18109)
(-1.38999e-16 1.70101 6.13026)
(9.53549e-16 5.49219 11.7129)
(7.86393e-16 -1.08996 -3.31596)
(7.93451e-16 -0.5439 -2.36216)
(7.80746e-16 0.71571 -0.592679)
(-1.26434e-16 1.89832 1.60512)
(-6.70931e-16 2.14578 3.47922)
(-8.1072e-16 1.42238 5.31608)
(-1.58187e-15 0.233923 6.73682)
(-1.63357e-15 -1.41465 7.3736)
(-1.38173e-15 -3.11651 7.60787)
(-1.5031e-15 -4.90512 7.58519)
(-2.18698e-15 -6.80647 7.48801)
(-3.33794e-15 -8.41722 7.41979)
(-3.96294e-15 -9.36435 7.67293)
(-1.75172e-15 -9.52759 8.61137)
(2.13999e-15 -8.17002 10.0854)
(7.80712e-16 -3.26165 8.03417)
(-2.83894e-15 1.34103 0.000741059)
(-2.01348e-15 -0.3544 -1.6695)
(-2.26566e-15 -1.78195 -0.720659)
(7.2718e-16 -1.27054 -3.4517)
(7.29844e-16 -1.08641 -2.59286)
(7.3356e-16 -0.144814 -0.789783)
(-1.12941e-16 1.00949 2.38482)
(-4.6176e-16 1.3572 4.60052)
(-8.38291e-16 0.858374 6.2496)
(-1.82564e-15 -0.0785608 7.31308)
(-2.19759e-15 -1.53903 7.75255)
(-2.20789e-15 -3.15908 7.99077)
(-2.40353e-15 -4.9014 8.0657)
(-3.03573e-15 -6.78323 8.0495)
(-3.81541e-15 -8.46672 8.01479)
(-3.5242e-15 -9.63109 8.32574)
(-8.8673e-16 -9.94225 9.32037)
(1.56501e-15 -7.71061 9.82089)
(-6.27614e-16 -0.785927 5.25087)
(-1.70116e-15 3.00958 0.0119913)
(-1.62046e-15 1.67226 -0.448499)
(-4.20364e-15 -0.137355 -3.83577)
(6.72132e-16 -1.46677 -3.52176)
(6.72902e-16 -1.61083 -2.74097)
(7.2546e-16 -1.31134 -1.34134)
(-7.26107e-18 -0.0921586 2.72364)
(-3.21837e-16 0.489772 5.55385)
(-6.69582e-16 0.271159 7.13921)
(-1.61411e-15 -0.425145 8.04725)
(-2.25394e-15 -1.70749 8.30838)
(-2.6516e-15 -3.24747 8.41763)
(-3.02406e-15 -4.93763 8.47555)
(-3.50563e-15 -6.77772 8.51958)
(-3.75119e-15 -8.51885 8.62491)
(-2.7779e-15 -9.87392 9.14513)
(-3.47205e-16 -10.0692 9.98878)
(7.77e-16 -6.55043 8.83744)
(-1.53251e-15 1.19545 1.67878)
(-1.46739e-15 3.6927 0.147056)
(-1.75997e-15 2.07831 -1.2416)
(-3.26404e-15 0.564779 -2.84563)
(5.97714e-16 -1.58514 -3.62473)
(5.98541e-16 -1.94894 -2.93731)
(7.11305e-16 -2.32228 -1.82483)
(1.8209e-16 -1.56498 2.04236)
(-8.94233e-17 -0.418218 5.98733)
(-1.44822e-16 -0.102375 7.92299)
(-9.65693e-16 -0.483879 8.99819)
(-1.7623e-15 -1.64066 9.23513)
(-2.4511e-15 -3.18827 9.21631)
(-2.99432e-15 -4.92927 9.18603)
(-3.34536e-15 -6.84291 9.27751)
(-3.17349e-15 -8.7461 9.59881)
(-1.94805e-15 -10.2228 10.276)
(-1.43989e-16 -9.81822 10.4635)
(1.16329e-16 -4.6412 7.11135)
(-1.17314e-15 2.54678 -0.806604)
(-1.45e-15 4.01944 -0.366645)
(-1.83976e-15 2.76807 -1.75264)
(-7.53002e-16 0.868512 -2.70006)
(5.35536e-16 -1.76136 -3.49427)
(5.38892e-16 -2.39836 -2.96277)
(7.26845e-16 -3.3723 -2.08209)
(2.35078e-16 -3.19771 1.18814)
(-1.09959e-16 -1.8593 5.66342)
(3.08563e-16 -1.04966 8.14025)
(-2.259e-16 -1.04471 9.69539)
(-9.51365e-16 -1.88445 10.2161)
(-1.71307e-15 -3.27762 10.2898)
(-2.32268e-15 -4.98639 10.2863)
(-2.59357e-15 -6.93076 10.4679)
(-2.26049e-15 -8.8721 10.9517)
(-1.21054e-15 -10.1249 11.4563)
(-1.71443e-16 -8.71815 10.3747)
(-3.23742e-16 -2.04197 4.8824)
(-6.95173e-16 3.93407 -0.538612)
(-1.41961e-15 4.21466 -0.892663)
(-1.84134e-15 3.11088 -2.20124)
(-5.21404e-16 0.980225 -2.91553)
(3.42006e-16 -1.79772 -3.93833)
(4.29441e-16 -2.46884 -3.72009)
(8.25357e-16 -3.84489 -2.85884)
(1.20616e-16 -4.59109 0.614225)
(-3.09512e-16 -3.12134 5.02614)
(5.63147e-16 -1.62176 8.01022)
(4.71807e-16 -1.16569 10.2338)
(5.4116e-18 -1.75084 11.3233)
(-6.48772e-16 -3.12129 11.7558)
(-1.23623e-15 -4.95673 11.9733)
(-1.50396e-15 -7.12399 12.2932)
(-1.26516e-15 -9.24942 12.6698)
(-6.3988e-16 -10.1711 12.2693)
(-2.67493e-16 -7.42047 9.08666)
(-6.30032e-16 0.19468 1.5122)
(-6.53225e-16 4.65784 -0.135106)
(-1.45894e-15 4.69896 -1.22305)
(-1.84448e-15 3.53602 -2.49011)
(-2.62267e-15 1.15264 -3.34036)
(2.15553e-16 -1.80963 -2.87077)
(2.84846e-16 -2.9096 -3.01731)
(4.44931e-16 -5.2922 -1.65155)
(-6.40791e-16 -6.48797 1.27311)
(-9.00833e-16 -4.90733 3.72906)
(7.18386e-18 -3.33123 6.23713)
(4.3183e-16 -2.58411 8.64659)
(5.80149e-16 -2.72204 10.5697)
(4.76738e-16 -3.71113 11.8537)
(2.39629e-16 -5.30417 12.6305)
(4.38404e-17 -7.21485 13.0489)
(-2.43207e-17 -8.70534 12.8599)
(-8.20756e-17 -8.25406 11.1274)
(-3.72162e-16 -4.06298 6.56266)
(-7.81648e-16 1.99634 0.42361)
(-6.72454e-16 5.12559 -0.242809)
(-1.50438e-15 5.40876 -1.52467)
(-1.92391e-15 4.18448 -2.63279)
(-2.16118e-15 1.30239 -3.61461)
(-8.81714e-16 5.17252 8.75895)
(-3.01811e-15 15.7952 28.0183)
(-2.06306e-15 18.6399 31.4761)
(-2.16722e-15 17.5198 28.9685)
(-2.33922e-15 15.9477 25.5403)
(-3.40205e-15 14.6086 22.6943)
(-3.78956e-15 13.4682 20.3765)
(-3.82013e-15 12.637 18.6867)
(-3.97126e-15 11.9367 17.2381)
(-4.31483e-15 11.2527 15.899)
(-4.80403e-15 10.5554 14.6052)
(-5.56647e-15 9.83504 13.3407)
(-6.4595e-15 9.08658 12.1083)
(-7.33705e-15 8.31357 10.9067)
(-8.10759e-15 7.5124 9.7364)
(-8.9691e-15 6.72146 8.63643)
(-1.02857e-14 5.99475 7.74114)
(-1.18214e-14 5.44265 7.21765)
(-1.26978e-14 4.89753 6.91005)
(-1.61153e-14 3.01212 4.52038)
(-2.18369e-16 2.72819 3.21303)
(-1.23731e-15 13.9707 25.1625)
(-6.75344e-16 17.4327 30.8447)
(-9.1173e-16 16.3109 28.699)
(-1.12697e-15 14.6211 25.456)
(-1.97666e-15 13.2966 22.8313)
(-1.63896e-15 12.3607 20.9068)
(-1.54691e-15 11.6208 19.2678)
(-1.80882e-15 10.9222 17.7568)
(-2.19942e-15 10.2276 16.276)
(-2.7192e-15 9.50975 14.814)
(-3.30569e-15 8.77599 13.3782)
(-3.91807e-15 8.02801 11.987)
(-4.56003e-15 7.2801 10.6428)
(-5.41435e-15 6.5071 9.3448)
(-6.29458e-15 5.72925 8.04133)
(-7.50026e-15 4.84081 6.72577)
(-8.61738e-15 3.92775 5.25458)
(-9.36528e-15 2.48268 3.50941)
(-1.58317e-14 0.474777 -0.378372)
(1.37145e-17 1.97077 2.66082)
(3.79644e-17 13.8949 24.1368)
(-1.66229e-17 18.6529 32.4572)
(-1.40049e-17 18.1542 31.2483)
(-5.3593e-17 16.3993 27.917)
(-4.02276e-16 14.9954 25.0862)
(-2.25861e-16 13.9645 22.9683)
(-2.46678e-16 13.1415 21.1821)
(-3.52102e-16 12.3429 19.4779)
(-4.06265e-16 11.5057 17.7463)
(-5.76237e-16 10.6129 15.9771)
(-8.12859e-16 9.67386 14.1914)
(-1.05764e-15 8.69444 12.4184)
(-1.13008e-15 7.69084 10.6722)
(-1.30453e-15 6.64196 8.96839)
(-1.77872e-15 5.57128 7.26644)
(-2.3977e-15 4.35856 5.53988)
(-3.15707e-15 3.11499 3.60794)
(-4.26022e-15 1.16318 1.22028)
(-6.89564e-15 -0.341099 -2.34942)
(8.34356e-19 2.89615 4.48561)
(7.22849e-17 14.7848 23.5248)
(5.22655e-17 19.9302 32.4086)
(5.78231e-17 19.6052 31.8784)
(7.86895e-17 17.8086 28.8305)
(1.40891e-16 16.4115 26.2189)
(7.48067e-18 15.3894 24.2574)
(-6.75109e-17 14.5136 22.4753)
(-1.41153e-16 13.5794 20.648)
(-1.92503e-16 12.56 18.7083)
(-3.03536e-16 11.4569 16.6853)
(-4.44367e-16 10.294 14.6102)
(-6.41302e-16 9.07549 12.5115)
(-7.32405e-16 7.812 10.3952)
(-8.68755e-16 6.47415 8.27364)
(-1.19546e-15 5.08448 6.10148)
(-1.75622e-15 3.47388 3.87995)
(-2.80805e-15 1.89166 1.46373)
(-5.33489e-15 -0.666868 -1.33468)
(-9.95177e-15 -1.6985 -4.88463)
(1.73791e-18 8.86991 14.9899)
(-2.78638e-17 18.8278 29.2599)
(-2.92442e-17 20.7424 32.6599)
(-2.76789e-17 19.5052 30.8443)
(-4.09418e-17 17.837 28.4992)
(4.91288e-17 16.7696 26.6536)
(1.09855e-16 15.7826 25.0643)
(1.31599e-16 14.7615 23.2668)
(1.50276e-16 13.5254 21.2568)
(1.69286e-16 12.1872 19.0772)
(2.10893e-16 10.7494 16.8176)
(2.74984e-16 9.24698 14.4814)
(3.40929e-16 7.65559 12.0704)
(3.67674e-16 5.97409 9.56755)
(4.38322e-16 4.16975 6.9703)
(7.22347e-16 2.2405 4.23503)
(1.26031e-15 -0.200358 1.21461)
(8.07654e-16 -2.2259 -2.11459)
(-3.14373e-15 -3.78716 -4.22012)
(-1.4239e-14 -3.14889 -7.48315)
(-5.67157e-19 13.5806 23.7985)
(8.39329e-18 20.484 33.4113)
(1.06042e-17 18.2579 30.8222)
(9.30554e-18 16.3608 27.8082)
(1.44844e-17 15.1029 26.5673)
(-2.44238e-17 14.3509 25.4173)
(-4.59845e-17 13.1313 23.9248)
(-5.05193e-17 11.7422 21.8256)
(-5.52067e-17 10.0709 19.4968)
(-5.92868e-17 8.40726 17.0623)
(-7.26547e-17 6.676 14.6099)
(-9.94271e-17 4.913 12.0625)
(-1.6072e-16 3.07562 9.41601)
(-2.60505e-16 1.21228 6.6819)
(-2.08718e-16 -0.606623 3.95648)
(2.92411e-16 -2.18432 1.48307)
(4.39119e-16 -3.32571 -0.576351)
(-1.92111e-15 -4.03059 -2.32259)
(-6.62534e-15 -3.63411 -2.79751)
(-7.59499e-15 -1.15903 -0.730916)
(1.38332e-19 14.2291 25.4126)
(-2.71928e-18 17.7083 30.5824)
(-3.26378e-18 14.7373 26.8332)
(-3.51236e-18 13.6948 24.9624)
(-2.75331e-18 12.5853 24.0394)
(1.10233e-17 11.6152 22.7186)
(1.75151e-17 10.152 21.057)
(1.96231e-17 8.56816 18.8925)
(2.35291e-17 6.80241 16.5758)
(3.14651e-17 5.06843 14.1874)
(4.24457e-17 3.29793 11.786)
(4.42014e-17 1.55244 9.37276)
(1.68243e-17 -0.108218 7.05843)
(-3.05256e-17 -1.4984 5.02695)
(-1.50214e-17 -2.34911 3.59213)
(1.30889e-16 -2.27222 3.25583)
(2.47845e-16 -0.80539 4.70707)
(6.91917e-17 2.24466 8.12875)
(-1.74124e-16 5.67305 11.7922)
(9.53471e-17 5.20697 10.6946)
(2.06645e-20 12.2466 21.8441)
(8.3231e-19 16.5878 29.1331)
(9.91985e-19 14.539 26.0496)
(1.08592e-18 13.1669 23.1659)
(4.44309e-20 11.7794 21.4897)
(-4.31136e-18 10.8154 19.7982)
(-6.20582e-18 9.52414 18.1472)
(-6.85801e-18 8.28886 16.1588)
(-7.29207e-18 6.90814 14.0492)
(-7.53317e-18 5.58333 11.8044)
(-8.77223e-18 4.28281 9.55228)
(-1.39315e-17 3.15828 7.45675)
(-2.33312e-17 2.4067 5.91143)
(-2.79944e-17 2.33175 5.44159)
(-1.60881e-17 3.18597 6.4876)
(5.61258e-18 4.93115 8.99414)
(1.34198e-17 7.13289 12.2547)
(1.35341e-17 8.94345 15.1392)
(5.04827e-17 9.75655 15.9713)
(7.30778e-17 6.79808 12.4056)
(-1.11411e-20 11.2908 19.9437)
(-2.2205e-19 17.5632 30.0509)
(-2.58542e-19 15.5699 27.2028)
(-2.93862e-19 14.0613 23.5175)
(-5.93048e-20 12.5902 21.5361)
(1.1039e-18 11.881 19.6869)
(1.6234e-18 10.9164 18.2032)
(1.72592e-18 10.1979 16.6409)
(1.7521e-18 9.4276 15.1746)
(1.76964e-18 8.76782 13.7056)
(1.78538e-18 8.16081 12.2643)
(1.80349e-18 7.62546 10.834)
(1.60501e-18 7.18137 9.47339)
(5.91974e-19 6.86477 8.35171)
(-1.58243e-18 6.79344 7.76908)
(-4.731e-18 6.97313 7.99637)
(-8.98895e-18 7.3802 8.97301)
(-1.4617e-17 7.5884 10.2204)
(-2.10081e-17 7.18307 10.5654)
(-2.25521e-17 4.81767 7.8611)
(2.40198e-21 11.5556 20.305)
(5.53582e-20 18.4095 30.8775)
(6.49631e-20 16.2922 28.2857)
(7.29109e-20 14.8735 24.5781)
(1.72227e-20 13.4401 22.6507)
(-2.5164e-19 12.8048 20.852)
(-3.84548e-19 11.9414 19.3653)
(-3.9415e-19 11.2436 17.825)
(-3.68613e-19 10.5234 16.3776)
(-3.56029e-19 9.85575 14.9911)
(-3.58243e-19 9.22292 13.6673)
(-3.06082e-19 8.61511 12.3937)
(-7.9504e-20 8.02269 11.1447)
(3.87102e-19 7.43329 9.91239)
(9.79982e-19 6.84377 8.7323)
(1.55002e-18 6.28268 7.7115)
(2.45376e-18 5.72891 6.97978)
(4.85517e-18 5.18118 6.43829)
(9.32372e-18 4.12738 5.6724)
(1.31964e-17 2.04001 2.34735)
(-3.27493e-22 12.4883 21.9873)
(-1.23565e-20 19.2323 31.6585)
(-1.49759e-20 16.6192 28.8364)
(-1.61454e-20 15.4562 25.2344)
(-4.11347e-21 13.9782 23.5075)
(5.2081e-20 13.4171 21.6924)
(8.21627e-20 12.4938 20.2171)
(8.15484e-20 11.778 18.6233)
(6.98908e-20 10.9961 17.1148)
(6.11174e-20 10.2537 15.6202)
(5.4893e-20 9.51416 14.163)
(2.98283e-20 8.77373 12.7385)
(-4.08745e-20 8.02 11.3442)
(-1.50448e-19 7.24777 9.96835)
(-2.37931e-19 6.4274 8.60179)
(-2.35141e-19 5.56914 7.20396)
(-1.78791e-19 4.56524 5.77198)
(-3.67415e-19 3.49603 4.14288)
(-1.6111e-18 1.737 2.1378)
(-2.1065e-18 0.0685047 -1.53955)
(2.23769e-23 14.0941 25.2179)
(2.45594e-21 20.0166 32.3097)
(3.05065e-21 16.6522 29.246)
(3.11426e-21 16.1258 25.9925)
(7.72149e-22 14.5244 24.5791)
(-9.67941e-21 14.1583 22.6992)
(-1.5439e-20 13.146 21.2836)
(-1.47517e-20 12.5308 19.6746)
(-1.15262e-20 11.768 18.2055)
(-8.74007e-21 11.073 16.6746)
(-5.72621e-21 10.3131 15.1029)
(2.57072e-21 9.47985 13.4387)
(2.0403e-20 8.53902 11.6854)
(4.15993e-20 7.49779 9.8549)
(4.55537e-20 6.34178 7.98263)
(6.76176e-21 5.11051 6.04812)
(-8.43964e-20 3.68466 4.05088)
(-2.28055e-19 2.18696 1.72449)
(-2.57267e-19 -0.17371 -0.912769)
(-2.79716e-18 -1.43774 -4.66452)
(-1.72586e-24 15.7498 28.9804)
(-4.38393e-22 20.1755 32.1638)
(-5.17251e-22 16.3042 29.5344)
(-4.70823e-22 16.6259 26.794)
(-6.82364e-23 14.7272 25.7203)
(1.52297e-21 14.6599 23.7966)
(2.13918e-21 13.4838 22.582)
(1.67984e-21 13.0785 21.0484)
(1.22031e-21 12.3092 19.7471)
(1.47103e-21 11.6872 18.2242)
(1.98502e-21 10.8223 16.5168)
(1.39476e-21 9.77822 14.4952)
(-8.63217e-22 8.51245 12.2541)
(-2.72932e-21 7.10555 9.86844)
(1.55429e-22 5.55869 7.40822)
(1.21319e-20 3.93016 4.87238)
(3.97337e-20 2.10535 2.3307)
(5.90508e-20 0.356449 -0.580839)
(6.33592e-20 -2.27265 -3.43257)
(-1.46617e-18 -2.79844 -7.16698)
(1.34167e-24 16.5564 31.3549)
(7.31204e-23 19.2818 30.721)
(8.57256e-23 15.5546 29.339)
(7.61081e-23 16.3372 26.8933)
(-6.29746e-23 14.0676 26.0199)
(-5.3051e-22 14.1371 24.1047)
(-8.56812e-22 12.7059 23.1255)
(-6.83479e-22 12.3868 21.7116)
(3.12942e-22 11.4091 20.5919)
(2.05349e-21 10.6424 18.979)
(3.83033e-21 9.33358 16.9351)
(5.20747e-21 7.80591 14.3189)
(7.06933e-21 6.06549 11.507)
(1.01174e-20 4.30016 8.59552)
(1.16024e-20 2.47494 5.58404)
(1.13225e-20 0.558136 2.56333)
(4.39865e-20 -1.14447 -0.0485461)
(1.15277e-19 -1.88129 -2.0631)
(-1.2449e-20 -4.59741 -5.35316)
(-5.69167e-19 -3.67226 -7.23927)
(-1.15578e-24 16.1495 31.1479)
(-8.02299e-24 18.1748 28.9921)
(4.94591e-24 14.7892 28.3661)
(1.20859e-23 15.4268 25.8715)
(-4.38023e-23 13.1362 24.9554)
(-2.24062e-22 12.9623 23.0909)
(-4.73149e-22 11.5178 22.048)
(-3.56233e-22 10.9272 20.6849)
(6.03004e-22 9.81863 19.4923)
(2.13685e-21 8.75102 17.8117)
(3.14247e-21 7.23012 15.64)
(3.39058e-21 5.59926 13.0652)
(5.10006e-21 3.95946 10.4688)
(1.11189e-20 2.34681 7.77325)
(2.21279e-20 0.683289 4.93187)
(3.79388e-20 -0.94612 2.16585)
(5.46749e-20 -2.65529 -0.769835)
(4.70009e-20 -3.84086 -3.18737)
(-2.26955e-20 -3.11754 -2.73414)
(-9.29094e-20 -0.388764 0.768527)
(1.53162e-25 15.3465 30.1833)
(1.25742e-24 17.9987 28.0285)
(5.59434e-24 14.1338 27.384)
(6.60994e-24 15.1038 24.622)
(-3.83892e-23 12.6269 23.7105)
(-1.82775e-22 12.5029 21.6671)
(-3.92132e-22 11.0124 20.455)
(-4.65058e-22 10.3338 18.9196)
(-1.34224e-22 9.24207 17.612)
(4.9997e-22 8.27002 16.075)
(8.19728e-22 7.11343 14.3552)
(5.5523e-22 6.00371 12.4906)
(1.1076e-21 4.96902 10.6453)
(6.28765e-21 3.92531 8.62219)
(2.12107e-20 2.70238 6.13103)
(4.53673e-20 1.55795 3.63758)
(6.36104e-20 1.30506 2.70208)
(6.1254e-20 2.64842 4.29674)
(6.39722e-20 4.50686 6.52828)
(8.38194e-20 3.79257 7.25404)
(-1.39615e-25 14.8944 30.2733)
(8.01081e-25 18.2971 27.592)
(4.75911e-24 13.8746 27.2342)
(5.05575e-24 15.2886 24.3323)
(-2.33161e-23 12.8036 23.4383)
(-1.13715e-22 12.7901 21.3736)
(-2.76949e-22 11.4639 20.0632)
(-4.79152e-22 10.882 18.4514)
(-6.35308e-22 10.0011 17.0831)
(-6.5051e-22 9.3307 15.7072)
(-5.1059e-22 8.64576 14.4211)
(-3.75084e-22 8.03145 13.1226)
(-5.05404e-22 7.41945 11.791)
(-1.04552e-21 6.81881 10.3903)
(-1.76229e-21 6.17109 8.87171)
(-1.57585e-21 5.44446 7.06273)
(1.24346e-21 4.33396 4.74856)
(4.93484e-21 3.43688 3.05161)
(3.45175e-20 1.96145 1.33372)
(7.50493e-20 0.808518 -0.224545)
(-3.36464e-28 14.0935 30.579)
(5.81364e-25 18.2669 27.507)
(2.92383e-24 13.4125 27.4346)
(1.1397e-24 14.546 24.9302)
(-2.5232e-23 12.4162 23.9708)
(-1.01244e-22 12.0673 22.2775)
(-2.28145e-22 10.9931 21.0091)
(-3.65062e-22 10.3491 19.6188)
(-4.41006e-22 9.61787 18.3511)
(-4.10613e-22 9.01127 17.0937)
(-3.03573e-22 8.42043 15.8713)
(-2.27615e-22 7.861 14.6307)
(-2.81147e-22 7.29252 13.3379)
(-3.14029e-22 6.67899 11.9194)
(4.24111e-22 5.90111 10.1897)
(3.08666e-21 4.73572 7.77754)
(8.98768e-21 2.94849 4.44343)
(7.27721e-21 0.659637 -0.050829)
(1.65659e-20 -1.79292 -3.22467)
(7.16553e-20 -1.93638 -5.4147)
(1.74641e-26 11.2458 28.65)
(3.1294e-25 17.1276 25.1366)
(1.09166e-24 12.1007 25.5229)
(-2.2522e-25 12.7661 23.8112)
(-1.35084e-23 11.042 23.0634)
(-5.25415e-23 10.3937 21.9747)
(-1.19862e-22 9.42189 21.0569)
(-1.92373e-22 8.67033 20.1045)
(-2.27462e-22 7.92524 19.1873)
(-2.02742e-22 7.25888 18.2694)
(-1.57737e-22 6.63351 17.3506)
(-1.80555e-22 6.05228 16.4147)
(-2.88852e-22 5.49738 15.4378)
(-1.73432e-22 4.92854 14.3377)
(1.17291e-21 4.22785 12.8898)
(5.5414e-21 3.16274 10.6584)
(1.42316e-20 1.51525 7.13005)
(2.5278e-20 -0.62749 2.32789)
(3.29139e-20 -2.54258 -2.31538)
(3.27174e-20 -2.19602 -4.04311)
(1.33761e-26 2.63015 17.0827)
(2.50342e-26 8.04317 13.732)
(-5.92251e-26 5.17465 14.5848)
(-2.65597e-25 4.96839 14.205)
(-8.32988e-25 4.04087 14.1749)
(-2.84624e-24 3.46635 14.0129)
(-8.16486e-24 2.88202 13.866)
(-1.7599e-23 2.39969 13.6837)
(-2.78095e-23 1.97726 13.4789)
(-3.08044e-23 1.62732 13.2483)
(-2.06568e-23 1.34779 12.9961)
(-7.43596e-24 1.14278 12.7253)
(-3.19972e-23 1.01406 12.4417)
(-1.72178e-22 0.975365 12.151)
(-5.17925e-22 1.05063 11.8567)
(-1.07005e-21 1.21558 11.5686)
(-1.57836e-21 1.51154 11.1849)
(-1.57982e-21 2.23873 10.2893)
(-9.42012e-22 2.53976 8.80056)
(-2.53415e-22 -0.15771 6.60857)
(-1.36452e-26 -2.63018 17.0827)
(-2.62663e-26 -8.0432 13.7321)
(5.85807e-26 -5.17465 14.5849)
(2.63818e-25 -4.96838 14.2051)
(8.21694e-25 -4.04084 14.175)
(2.7939e-24 -3.46629 14.013)
(7.97967e-24 -2.88193 13.8661)
(1.71131e-23 -2.39957 13.6838)
(2.6847e-23 -1.97711 13.4791)
(2.92794e-23 -1.62714 13.2485)
(1.84972e-23 -1.3476 12.9964)
(4.32215e-24 -1.14257 12.7256)
(2.76556e-23 -1.01383 12.442)
(1.68524e-22 -0.975142 12.1515)
(5.22899e-22 -1.05047 11.8573)
(1.09835e-21 -1.21556 11.5695)
(1.64061e-21 -1.51176 11.1859)
(1.66226e-21 -2.23921 10.29)
(1.00695e-21 -2.54034 8.80115)
(2.78638e-22 0.157537 6.60929)
(-1.85174e-26 -11.246 28.6502)
(-2.98992e-25 -17.1276 25.1369)
(-1.05567e-24 -12.1008 25.5232)
(2.38016e-25 -12.7661 23.8116)
(1.33172e-23 -11.042 23.0638)
(5.1784e-23 -10.3937 21.9752)
(1.18105e-22 -9.42179 21.0574)
(1.89318e-22 -8.67017 20.105)
(2.22948e-22 -7.92499 19.1879)
(1.96376e-22 -7.25854 18.27)
(1.49057e-22 -6.63308 17.3512)
(1.70963e-22 -6.0518 16.4153)
(2.83752e-22 -5.49688 15.4384)
(1.75289e-22 -4.9279 14.3383)
(-1.19891e-21 -4.22665 12.8895)
(-5.73825e-21 -3.16034 10.656)
(-1.49004e-20 -1.51156 7.12509)
(-2.67655e-20 0.631099 2.32286)
(-3.53052e-20 2.54388 -2.31657)
(-3.569e-20 2.19568 -4.0421)
(2.20346e-27 -14.0939 30.5797)
(-5.90885e-25 -18.2673 27.5078)
(-2.91812e-24 -13.413 27.4354)
(-1.12442e-24 -14.5464 24.9311)
(2.5034e-23 -12.4168 23.9718)
(1.00195e-22 -12.0679 22.2786)
(2.25408e-22 -10.9938 21.0102)
(3.60266e-22 -10.3499 19.62)
(4.34477e-22 -9.6187 18.3523)
(4.02549e-22 -9.01211 17.0949)
(2.92828e-22 -8.42124 15.8724)
(2.12289e-22 -7.86177 14.6317)
(2.6272e-22 -7.29331 13.339)
(2.97794e-22 -6.67979 11.9206)
(-4.52446e-22 -5.90148 10.1904)
(-3.18666e-21 -4.73525 7.77665)
(-9.35029e-21 -2.94583 4.44018)