/*--------------------------------*- C++ -*----------------------------------*\
| =========                 |                                                 |
| \\      /  F ield         | OpenFOAM: The Open Source CFD Toolbox           |
|  \\    /   O peration     | Version:  4.1                                   |
|   \\  /    A nd           | Web:      www.OpenFOAM.org                      |
|    \\/     M anipulation  |                                                 |
\*---------------------------------------------------------------------------*/
FoamFile
{
    version     2.0;
    format      ascii;
    class       volScalarField;
    location    "20";
    object      p;
}
// * * * * * * * * * * * * * * * * * * * * * * * * * * * * * * * * * * * * * //

dimensions      [0 2 -2 0 0 0 0];

internalField   nonuniform List<scalar> 
1280
(
-123.556
-43.3327
-90.283
-216.391
-69.0801
-171.825
-288.406
-299.576
-222.856
-290.875
-504.093
-342.191
-461.665
-781.544
-547.404
-800.294
-1202.48
-1358.68
-907.183
-3392.85
-926.429
1052.72
1634.72
2147.03
2313.62
3185.75
-679.63
294.848
400.534
523.99
543.997
554.885
613.887
744.489
1007.85
1381.51
1988.88
2494.37
3209.16
2968.43
-2573.93
637.549
1273.54
1376.06
3662.79
3010.49
2945.62
2933.73
2880.24
3185.47
3145.85
2885.3
3281.63
3323.15
3274.52
3602.62
2688.52
2552.35
2244.96
986.999
3001.99
3031.95
2524.45
2248.83
2081.2
2066.77
2138.44
2256.32
2392.2
2508.46
2587.94
2759.67
2720.6
48.4196
5422.33
4314.22
3881.71
2991.06
1995.47
-25.3889
-2393.87
-292.895
-741.112
-434.77
-252.647
-63.9489
-52.8867
63.8959
114.174
135.045
175.377
189.991
197.999
198.705
203.572
195.23
135.215
126.962
48.3077
58.8766
3.29329
-20.6046
-115.424
-313.36
-420.802
-242.441
-164.69
-30.7664
130.003
229.259
288.061
69.0097
-18.7518
-100.296
-140.318
-161.206
-54.4586
-9.51848
38.964
-61.0683
-82.609
-221.982
-261.113
-514.747
-253.542
-133.713
109.723
385.092
551.231
636.636
344.279
56.0807
-328.182
-540.147
-536.249
-150.029
20.4878
94.5738
-115.185
-66.7145
-282.499
-175.306
-655.128
-299.028
-147.942
145.666
486.3
712.092
793.123
585.468
28.0393
-647.021
-1028.36
-967.149
-224.852
38.5903
123.306
-151.069
-90.858
-329.873
-279.13
-884.097
-418.361
-185.973
169.075
589.084
888.561
868.851
762.857
67.8989
-789.55
-1316.26
-1281.26
-260.927
97.7435
173.5
-172.901
-89.4631
-386.197
-556.472
-1088.12
-558.949
-217.03
193.724
703.161
1097.24
920.289
737.798
123.563
-822.161
-1469.13
-1396.18
-318.291
105.907
170.981
-182.85
-79.0659
-455.571
-880.01
-1228.95
-720.607
-254.415
199.381
769.622
1116.72
1502.91
1038.6
270.001
-724.194
-1476.88
-1319.24
-132.116
305.955
297.474
-208.172
-54.9406
-506.553
-1106.18
-1258.28
-868.234
-298.061
190.119
813.381
1166.05
1960.59
1333.59
402.04
-556.122
-1389.69
-1312.33
-225.542
136.335
161.772
-256.232
-27.737
-525.513
-1170.1
-1188.19
-959.902
-345.126
168.044
852.638
1343.14
1842.84
1252.83
423.03
-392.179
-1097.7
-873.37
316.217
656.542
803.809
-331.669
0.812013
-498.511
-1078.32
-1063.16
-985.72
-395.829
124.031
816.732
1265.57
1599.76
1175.09
423.083
-261.351
-844.184
-618.109
402.816
1658.29
5357.29
-425.175
35.7234
-426.935
-879.233
-915.782
-946.784
-439.101
62.8242
733.809
1103.32
1293.66
945.202
393.636
-144.565
-587.202
-366.158
379.478
1171
3927.58
-520.249
82.0075
-314.654
-616.01
-755.335
-855.218
-465.34
-0.407474
616.657
874.079
922.391
667.16
364.111
-57.0351
-445.677
-284.004
387.089
1242.15
4374.49
-603.534
134.578
-171.438
-313.153
-555.487
-712.664
-460.109
-43.1942
495.77
631.358
620.758
493.921
375.667
6.48267
-274.17
-198.498
22.3017
373.225
4408.58
-670.211
182.688
-12.028
-7.65157
-313.893
-514.956
-385.064
-29.988
406.539
466.132
467.72
507.596
393.532
-11.1587
-249.651
-320.978
-263.215
-207.154
812.98
-718.846
214.856
139.64
237.155
-94.9291
-294.454
-251.134
35.0015
360.962
443.594
375.541
532.065
351.954
-18.2352
-298.765
-425.536
-294.033
-486.213
161.575
-741.623
221.467
254.302
398.958
60.956
-125.956
-150.467
63.7081
318.647
398.428
369.524
466.029
258.633
-59.2556
-291.932
-386.844
-266.468
-364.925
143.64
-735.461
197.612
330.851
472.9
158.099
-46.7542
-128.218
55.7272
315.432
319.936
349.299
386.938
237.141
-24.6467
-234.576
-315.134
-204.102
-311.64
28.7936
-680.569
155.417
392.03
479.28
180.562
-70.0567
-146.626
58.8904
244.542
272.043
281.78
312.507
216.047
14.5804
-141.935
-202.055
-127.283
-204.071
26.2286
-576.794
88.8561
428.311
408.519
163.091
-109.933
-96.3447
15.1734
183.392
213.438
231.04
238.297
172.242
16.834
-69.5963
-105.17
-77.9793
-142.51
-11.0758
-399.111
30.2517
477.402
286.517
78.7261
-164.442
1.69427
-74.1644
145.256
160.873
179.245
181.095
129.807
18.5948
-23.246
-50.3563
-49.2908
-88.4227
-9.31308
-165.016
-43.6968
244.124
73.6431
64.1338
-71.4883
-1.31064
-120.783
5.31739
37.8346
57.1151
69.5495
55.0173
6.14568
-7.8715
-23.0224
-15.1658
-37.2835
13.7885
11750.1
11630
11460.9
11219.7
10937
10639.4
10327.4
9983.31
9629.02
9324.99
9065.42
8855.17
8672.48
8493.81
8311.14
8137.55
8011.1
7874.81
7861.51
7670.74
8287.49
8403.34
8413.08
8480.29
8484.68
8505.89
8495.35
8481.63
8460.6
8443.75
8439.44
8446.6
8452.28
8435.9
8391.14
8322.16
8288.68
8253.5
8297.48
8227.91
8556.7
8701.29
8742.82
8861.6
8909.9
8980.96
9020.45
9055.78
9071.87
9073.7
9061.58
9044.45
9041.35
9064.29
9123.82
9205.28
9304.44
9393.92
9468.33
9506.03
5984.26
6197.5
6260.19
6413.81
6511.03
6629.1
6735.69
6841.86
6946.38
7048.35
7149
7248.14
7346.67
7448.31
7554.94
7676.26
7799.24
7942.2
8043.35
8181.07
4793.2
5014.32
5086.14
5236.24
5350.18
5474.25
5597.57
5716.12
5834.57
5948.51
6059.35
6167.18
6270.92
6373.84
6471.85
6574.61
6667.72
6780.87
6856.39
6978.24
2186.9
2416.71
2517.38
2656.61
2802.22
2942.31
3106.14
3264.26
3438.95
3617.62
3806.68
4004.29
4208.18
4420.04
4629.38
4843.5
5036.95
5244.34
5390.58
5646.01
-75.8079
-138.98
-127.662
-211.378
-245.973
-336.289
-398.268
-495.916
-568.028
-636.282
-668.591
-663.855
-608.177
-489.796
-309.78
-56.999
220.96
539.351
761.46
1138.58
1224.28
807.292
742.886
483.51
293.441
19.129
-236.912
-538.445
-818.029
-1109.27
-1385.97
-1661.68
-1922.17
-2158.35
-2349.87
-2483
-2538.14
-2498.67
-2485.86
-2266.77
5644.87
5160.08
5014.43
4686.26
4451.74
4124.1
3838.04
3509.94
3228.31
2954.69
2738.03
2560.88
2446.61
2387.44
2387.31
2416.46
2433.65
2454.27
2380.85
2074.55
9874.63
9775.18
9772.01
9703.7
9723.32
9651.77
9646.46
9553.76
9478.04
9328.13
9143.58
8877.87
8533.68
8103.13
7645.73
7245.43
6960.86
6833.7
6844.55
6537.95
8134.84
8250.73
8312.7
8360.12
8486.48
8522.78
8652.25
8708.68
8807.5
8866.79
8935.02
8989.57
9039.52
9063.03
9038.5
8943.22
8826.34
8716.08
8709.1
8656.72
7471.35
7599.82
7701.84
7719.8
7879.04
7888.93
8022.72
8060.33
8149.39
8193.93
8240.9
8266.79
8288.78
8319.73
8377.74
8464.78
8563.65
8665.77
8737.45
8813.89
5567.68
5697.36
5864.17
5863.27
6085.6
6093.57
6274.85
6338.12
6472.41
6570.61
6683.52
6790.39
6895.69
7000.33
7101.6
7209.35
7311.88
7433.23
7518.93
7641.75
3807.35
3871.41
4083.49
4033.83
4295.89
4271.67
4483.82
4537.86
4698.38
4809.6
4952.63
5092.15
5239.91
5395.67
5553.2
5722.37
5880.84
6060.75
6182.48
6392
1779.15
1676.3
1866.85
1694.1
1897.37
1749.38
1880.3
1808.91
1866.98
1850.76
1873.72
1882.33
1902.68
1939.95
2001.9
2121.65
2267.36
2486.55
2655.74
2926.03
2114.3
1790.63
1871.04
1535.65
1602.31
1324.09
1304.27
1105.78
1017.19
861.263
739.12
598.904
472.001
361.048
280.284
235.061
196.233
214.916
220.281
366.8
5794.79
5357.76
5432.95
4866.64
4847.41
4409.44
4243.33
3922.75
3700.93
3443.02
3223.71
3009.35
2824.76
2669.95
2555.33
2462.42
2375.32
2257.35
2077.74
1978.22
7538.32
7098.38
7677.67
7104.12
7316.05
6994.82
6932.52
6709.08
6546.96
6344.58
6155.97
5964.69
5789.65
5641.36
5534.63
5457.71
5396.09
5360.53
5320.52
5234.57
5909.46
4288.51
5066.65
4151.21
4114.41
3619.58
3348.83
3000.11
2726.07
2471.61
2272.26
2124.66
2044.79
2041.87
2131.65
2319.38
2571.68
2906.99
3337.72
3595.67
58271.4
51795.7
48357.1
44051.9
40462.3
36915.8
33654.4
30556.6
27645.2
24887.8
22273.7
19786.5
17412.1
15135.1
12960.5
10863.2
8765.9
6951.08
5192.62
2291.49
64522.3
58045.3
54605.9
50299.8
46709.4
43162.2
39900.2
36802.1
33890.3
31132.7
28518.6
26031.3
23656.6
21379.3
19204
17105.7
15007.2
13190.7
11430.5
8531.18
12143.1
10522.4
11299.4
10383.3
10345.1
9848.91
9576.43
9225.99
8950.02
8693.64
8492.33
8342.86
8261.29
8256.8
8344.75
8530.37
8780.49
9114.19
9548.33
9809.2
13824.7
13387
13967.1
13395.1
13608.8
13289.5
13229.4
13008.3
12848.7
12648.9
12463.2
12275
12103.5
11958.9
11855.1
11780.7
11721.6
11686.6
11649.8
11571.5
12143.3
11709.8
11786
11222.9
11207.6
10774.1
10612.9
10298
10081.9
9830.46
9617.79
9410.49
9232.64
9083.45
8971.17
8877.06
8786.85
8662.39
8466.83
8338.51
8429.22
8097.79
8173.16
7830.59
7889.25
7602.99
7573.63
7364.79
7263.86
7093.92
6956.05
6797.85
6651.15
6519
6416.62
6349.14
6292.97
6295.06
6285.37
6427.47
7890.48
7783.27
7967.98
7792.46
7985.09
7827.3
7945.91
7861.07
7906.22
7876.02
7886.6
7883.12
7893.64
7924.11
7984.24
8107.45
8259.89
8484.42
8650.35
8923.71
10094.5
10202.3
10401.3
10280.4
10528.3
10455.9
10647.6
10674.5
10819.6
10918.6
11050.6
11183.1
11326.9
11480.6
11637.6
11806.9
11965.6
12145.1
12268
12477.5
12171.2
12301.1
12488.9
12360.6
12494.1
12447
12529.8
12549.9
12633.3
12706
12799.7
12890.8
12987
13081.8
13171.9
13267.2
13355.6
13458.2
13528.1
13626
13675.3
13813.5
13846.5
13822.6
13828.6
13820.7
13836.5
13854.4
13894.2
13944.8
14006.4
14056.9
14081.7
14096.5
14131.3
14190.6
14254.2
14322.1
14366.7
14418.4
13974.1
14021.9
13993.5
13998.8
13998.9
14017.1
14042.3
14080.8
14128.3
14177.7
14220
14267.9
14313.2
14356.2
14384.4
14374.9
14345.2
14322.4
14340.8
14337.2
14767.3
14694.3
14669.1
14686.5
14732.8
14796
14860.7
14926.7
14949.6
14922.1
14871.1
14771.6
14626.9
14436.2
14221
14033.7
13912.3
13870.9
13898.8
13741.4
12979
12710.2
12647
12551.1
12469.7
12355.6
12199.4
11982.5
11711.6
11442.9
11193.4
10983
10866.6
10816.4
10829.1
10889.1
10978.2
11060.7
11044.3
10893.8
9822.75
9643.34
9626.35
9537.49
9446.19
9320.22
9167.88
9031.83
8930.17
8851.78
8798.87
8775.85
8749.67
8705.86
8644.8
8580.02
8530.65
8517.37
8504.08
8706.39
10348.7
10451.8
10513.3
10546.9
10562.9
10569.1
10570.5
10584
10623.2
10654.2
10650.4
10642.1
10627.5
10627.4
10647.2
10723.2
10848.1
11092.7
11316.1
11646.4
12435.9
12659
12745.2
12866.2
12969.1
13084
13213
13356.3
13506.9
13659.8
13814.5
13978.1
14146.1
14325.1
14508
14706.7
14895
15102.6
15239.2
15442.3
14675.5
14841.5
14890.8
14982.6
15051.7
15132.6
15219.8
15315.3
15411.7
15507.6
15603.4
15698.5
15788.8
15875.1
15954.8
16039
16117.7
16211.8
16268.4
16345.9
15407.9
15599.4
15675.5
15821.5
15941.7
16072.9
16200.8
16321.4
16413.7
16470.1
16482.9
16446.4
16366.8
16267.4
16200.9
16203.2
16272.1
16355.1
16415.1
16422.2
18147.7
18152.1
18089.9
18055.2
17970.8
17878.3
17758.8
17614.9
17433.4
17225.2
17003.8
16786.9
16591.6
16434
16327.4
16255.9
16200.4
16074.6
16020.5
15802.6
15146.3
14994.5
14916.9
14750.2
14606.8
14432.7
14257.6
14062.8
13860.2
13645.5
13418.1
13164.1
12870.1
12530.3
12169.6
11840.8
11581.8
11402.6
11363.3
11053.7
16827.5
16540
16333
15896.3
15450.2
14957.9
14424.7
13841.2
13230
12656
12114.6
11614.3
11160.6
10770.3
10463.4
10231.3
10017.4
9805.5
9621.5
9346.98
)
;

boundaryField
{
    outletWall
    {
        type            fixedValue;
        value           uniform 0;
    }
    fineWalls
    {
        type            zeroGradient;
    }
    fineFrontAndBack
    {
        type            zeroGradient;
    }
    fineplugLeft
    {
        type            cyclicAMI;
        value           nonuniform List<scalar> 
20
(
6730.28
6931.04
6798.72
6806.65
6786.34
6850.48
6943.94
7060.76
7195.11
7361.14
7564.79
7783.32
8045.61
9075.81
9148.71
9212.31
9405.19
9495.69
9514.52
9214.8
)
;
    }
    fineplugRight
    {
        type            cyclicAMI;
        value           nonuniform List<scalar> 
20
(
8077.98
8303.59
8349.29
8463.69
8601.26
8784.04
9043.9
9379.74
9769.9
10193.4
10642.4
11135.9
11617
12790
13050.8
13223
13493.4
13664.6
13631.1
13457
)
;
    }
    inletOutletLeft
    {
        type            cyclicAMI;
        value           nonuniform List<scalar> 
20
(
6730.28
6931.04
6798.72
6806.65
6786.34
6850.48
6943.94
7060.76
7195.11
7361.14
7564.79
7783.32
8045.61
9075.81
9148.71
9212.31
9405.19
9495.69
9514.52
9214.8
)
;
    }
    inletLeft
    {
        type            zeroGradient;
    }
    inletWallsLeft
    {
        type            zeroGradient;
    }
    inletFacesLeft
    {
        type            zeroGradient;
    }
    inletOutletRight
    {
        type            cyclicAMI;
        value           nonuniform List<scalar> 
20
(
8077.98
8303.59
8349.29
8463.69
8601.26
8784.04
9043.9
9379.74
9769.9
10193.4
10642.4
11135.9
11617
12790
13050.8
13223
13493.4
13664.6
13631.1
13457
)
;
    }
    inletRight
    {
        type            zeroGradient;
    }
    inletWallsRight
    {
        type            zeroGradient;
    }
    inletFacesRight
    {
        type            zeroGradient;
    }
}


// ************************************************************************* //
