/*--------------------------------*- C++ -*----------------------------------*\
| =========                 |                                                 |
| \\      /  F ield         | OpenFOAM: The Open Source CFD Toolbox           |
|  \\    /   O peration     | Version:  4.1                                   |
|   \\  /    A nd           | Web:      www.OpenFOAM.org                      |
|    \\/     M anipulation  |                                                 |
\*---------------------------------------------------------------------------*/
FoamFile
{
    version     2.0;
    format      ascii;
    class       surfaceScalarField;
    location    "20";
    object      phi;
}
// * * * * * * * * * * * * * * * * * * * * * * * * * * * * * * * * * * * * * //

dimensions      [0 3 -1 0 0 0 0];

internalField   nonuniform List<scalar> 
2360
(
48966.3
54379
-5412.71
54379
54379
61105.7
-6726.75
61105.7
61105.7
61105.7
70731.6
-9625.87
70731.6
70731.6
84010.2
-13278.6
84010.2
84010.2
103563
-19552.8
103563
103563
134282
-30718.6
134282
134282
145760
159980
173994
187259
199657
211187
187831
34069.1
197720
206557
214220
220683
226123
230877
235399
240385
246582
254465
263989
274028
282213
186441
95771.6
186441
186441
186441
75314.1
111127
75314.1
75314.1
75314.1
21893.5
53420.6
21893.5
21893.5
-6335.79
28229.3
-6335.83
-6335.8
-6335.85
-108761
102425
-108761
-108761
-108761
-259910
151149
-255284
-249890
-245221
-241354
-237627
-233374
-228204
-221949
-214614
-206241
-196856
-186491
-175189
-197183
34228.7
-184404
-170532
-155549
-139933
-124572
-112138
-112138
-112138
-72672
-39466.3
-72672
-72672
-44220.2
-28451.8
-44220.2
-44220.2
-21306.4
-22913.8
-21306.4
-21306.4
-1556.96
-19749.5
-1556.91
-1556.95
-1556.9
20429.1
-21986
20429.1
20429.1
45018.1
-24589
-49363.4
-43009.6
-52533.4
-87629.1
-39548.9
-37646.8
-24918.8
38835.7
-19311.8
98226.6
-15364
122977
-11748.3
133779
-8286.13
132497
-4712.96
114167
-23.3449
76396.6
8478.42
17824.5
18372.2
-62325.3
28701.8
-75011.4
35728.9
-54191.3
35964.5
5130.44
31346.7
50681.4
27684.2
57855.3
26929
41433.3
20440.5
-65991.8
-35644.6
-68733.3
-84887.6
-47035.1
-59345
-23311.6
15112.2
-18488.9
93403.9
-16399.9
120888
-13086.7
130465
-9840.39
129251
-6185.34
110512
-457.056
70668.3
10197.7
7169.75
20602.4
-72730
32031.8
-86440.8
41546.8
-63706.2
43092
3585.22
34661.3
59112.1
27252.9
65263.8
24034.5
44651.7
22489
-70676.4
-29755.7
-71513.9
-84050.1
-53830.9
-77028
-26073.5
-12645.2
-17159.1
84489.6
-17291.9
121021
-15260.5
128434
-12291.1
126281
-8817.13
107038
-2047.31
63898.5
7240.18
-2117.74
13799.2
-79289.1
20937.5
-93579.1
28448.7
-71217.4
36094.2
-4060.29
35068.6
60137.7
28211
72121.3
22790.4
50072.3
25529.9
-70673.3
-26311.4
-68518.7
-86204.7
-55689
-89857.6
-31045
-37289.2
-18207.3
71651.9
-17734.5
120548
-17999.2
128699
-15720
124002
-12183.9
103502
-6267.69
57982.3
-2306.51
-6078.93
-774.097
-80821.5
-689.578
-93663.6
3382.25
-75289.2
16670.9
-17348.9
27154.3
49654.3
27056.4
72219.2
24134.4
52994.2
26750.5
-68072.7
-24879.3
-63633.7
-90643.7
-54795.1
-98696.2
-37016.6
-55067.6
-22903.7
57539
-19196.6
116841
-20795.2
130297
-20197.8
123405
-18334.8
101639
-20427.3
60074.8
-19399.4
-7106.87
-18334.9
-81886
-23982.2
-88016.2
-21873.4
-77398.1
-6284.52
-32937.8
10819.6
32550.2
20119.9
62918.9
24138.5
48975.6
22437.2
-66699
-23669.8
-62842.4
-94500.3
-57668
-103871
-45828.9
-66906.8
-31539.9
43250
-23799
109100
-24049.8
130548
-25241.5
124596
-25243.8
101642
-25437.5
60268.4
-26302
-6242.37
-35938
-72249.9
-46697.9
-77256.4
-48456.5
-75639.5
-36472
-44922.3
-14083.6
10161.8
5345.92
43489.3
21734
32587.5
4704.83
-67756.8
-21081.5
-66281.8
-95975.2
-64570.3
-105582
-57681.6
-73795.4
-43649.3
29217.7
-32471.6
97922.2
-29155.7
127232
-30697.9
126139
-32184.9
103129
-29454.3
57537.8
-36022.7
326.087
-57081.1
-51191.5
-69968
-64369.6
-77140.7
-68466.7
-71915.8
-50147.2
-46604.2
-15149.8
-12083.3
8968.43
8446.27
12057.9
47379.8
-70094.3
-16495.1
-71305.5
-94764.1
-72944.4
-103943
-70879.5
-75860.3
-58047.8
16386
-44774.5
84648.9
-37454.2
119912
-37578.4
126263
-41723.6
107274
-49170.1
64984.3
-62403.3
13559.2
-79870.5
-33724.2
-91824.9
-52415.3
-104350
-55941.3
-114288
-40209
-118786
-10652.3
-126295
16477.2
-142911
28673.9
55618.5
-72520.3
-9665.09
-76182.5
-91101.8
-81123
-99002.9
-83744.7
-73238.6
-73409.1
6050.44
-59799.4
71039.2
-49784.7
109897
-47547.4
124025
-53119.9
112846
-66769.5
78633.9
-84033.4
30823.1
-97658.2
-20099.4
-108508
-41565.5
-122313
-42135.8
-135268
-27254.4
-142849
-3071.85
-144335
17963.7
-136490
20828.9
21553.2
-74287.7
-612.808
-80248.4
-85141.1
-88523.5
-90727.8
-95481.4
-66280.7
-88414.8
-1016.18
-75859.7
58484
-65180.4
99218
-61323.2
120168
-67288.4
118811
-82470.6
93816.1
-96344.5
44697
-104882
-11561.8
-114718
-31729.6
-125957
-30896.7
-132927
-20284
-131514
-4485.42
-118045
4494.84
-88155.2
-9060.96
-38372.7
-75026.8
10270.1
-83176.5
-76991.4
-94767.9
-79136.4
-106094
-54955
-103054
-4056
-92439.6
47869.8
-82814
89592.4
-79358.9
116713
-84584.2
124037
-93320.5
102552
-94478.6
45855.1
-96993.8
-9046.62
-110405
-18318.4
-124784
-16517.8
-132106
-12961.5
-131673
-4918.69
-123005
-4173.68
-102424
-29641.2
-87376.4
-74562.5
22550.8
-84459.4
-67094.5
-99066.7
-64529.1
-115176
-38845.9
-118108
-1123.61
-111790
41551.5
-104997
82800
-102282
113998
-101645
123400
-92955.5
93863.1
-74596.6
27496.2
-72507.4
-11135.8
-89704.1
-1121.73
-108666
2443.84
-123286
1658.46
-132457
4252.12
-136207
-423.105
-133193
-32655.2
-109442
-72707.3
35701.1
-83462.9
-56338.9
-100050
-47942.2
-120062
-18833.9
-129640
8454.67
-130334
42245.3
-127780
80245.7
-122642
108861
-107726
108483
-74331.9
60469.2
-43125.8
-3709.82
-42995.4
-11266.3
-57605.3
13488.2
-68893.8
13732.3
-75727.7
8492.37
-72606
1130.49
-61271.5
-11757.6
-61815.8
-32110.9
-75486.7
-69308.6
49031.7
-79541.6
-46105.9
-96189.8
-31293.9
-117373
2349.14
-131266
22347.8
-138400
49379.3
-138704
80549.3
-126388
96544.7
-92142.9
74238.1
-42768.6
11094.9
-18588.3
-27890.2
-22807.9
-7046.59
-30284.3
20964.5
-33798.6
17246.6
-29736.9
4430.65
-14381
-14225.4
2905.73
-29044.3
18032.8
-47237.9
-23384.8
-64422.8
61666.6
-72335.2
-38193.5
-86398.9
-17230.2
-106575
22525.4
-122565
38337.4
-132707
59521
-131006
78848.5
-105992
71530.7
-54968.5
23214.9
-15677.6
-28196
-9696.72
-33871
-10410.7
-6332.57
-10552.2
21106
-8589.5
15283.9
-3140.25
-1018.6
4772.29
-22138
10105.5
-34377.5
17665.2
-54797.6
-36438.3
-58463.3
72807.9
-62681.5
-33975.3
-72322
-7589.74
-91040.9
41244.3
-107622
54918.2
-116501
68400
-106681
69028.7
-67911.7
32761.5
-23276.1
-21420.7
-8211.69
-43260.4
-7901
-34181.7
-695.187
-13538.4
4176.4
16234.5
6478.37
12981.9
9836.21
-4376.44
12899.1
-25200.8
13946.2
-35424.7
14088.1
-54939.6
-41902.9
-52040.4
81800.8
-52264.8
-33750.8
-56916.5
-2938.13
-73790.8
58118.6
-89769.1
70896.5
-94591.6
73222.5
-74475.4
48912.5
-35249.9
-6463.91
-12858.6
-43812
-9938.4
-46180.7
-5508.4
-38611.7
4492.1
-23538.9
13274.4
7452.16
15651.1
10605.2
16524.4
-5249.74
16971
-25647.4
15184.7
-33638.4
11340.5
-51095.3
-43841
-45921.5
88194.7
-42816.1
-36856.2
-42498.3
-3255.86
-57084.5
72704.7
-71433
85245
-71963.7
73753.3
-47054.2
24002.9
-21161.6
-32356.5
-12817.6
-52155.9
-8838.21
-50160
-3841.51
-43608.4
3219.93
-30600.3
13277.5
-2605.39
18651.4
5231.2
19081.5
-5679.75
17044.4
-23610.3
13240.8
-29834.8
9163.32
-47017.8
-44303.6
-40193.2
91720.9
-35813.2
-41236.2
-30736.3
-8332.82
-42375.5
84344
-56137.8
99007.3
-54692.5
72308
-32709.6
2020.09
-17841.8
-47224.3
-12545.6
-57452.1
-7821.75
-54883.9
-3396.63
-48033.5
1825.45
-35822.4
9738.63
-10518.6
14419.5
550.353
14752.6
-6012.84
12973.1
-21830.8
10279.9
-27141.6
8007.24
-44745.1
-43023.1
-36124
-31374.9
-23575.4
-26526.6
-36357.8
-36886.7
-25051.6
-17131.8
-12087
-7563.61
-3481.62
539.877
5338.01
8575.71
10124.1
10630.5
9241.02
8271.16
588.716
-12067
1758.11
-15389.3
2845.03
-15101.1
3708.38
-14128.6
4210.97
-12901.3
4407.34
-11726
4224
-10529.5
3769.43
-9435.29
3186.3
-8253.21
2539.59
-7016.46
1857.56
-5781.56
1118.67
-4701.81
339.126
-3974.65
-341.195
-3841.71
-806.115
-4520.36
-981.033
-6022.74
-877.645
-7986.45
-552.879
-9849.21
-197.045
-10394.3
-8382.1
-1092.04
-10975
-1444.77
-15036.6
-1511.73
-15034.2
-1484.69
-14155.6
-1505.47
-12880.5
-1586.49
-11645
-1581.18
-10534.9
-1462.62
-9553.93
-1063.85
-8652.06
-302.691
-7777.73
838.132
-6922.5
2248.35
-6112.16
3688.18
-5414.58
4876.9
-5030.52
5529.07
-5172.59
5443.45
-5937.18
4589.24
-7132.26
3101.95
-8361.95
1416.61
-8708.99
-6965.49
-361.075
-10614
351.305
-15749
1188.24
-15871.2
1946.07
-14913.5
2680.65
-13615.2
3380.06
-12344.5
4082.86
-11237.7
4856.31
-10327.5
5747.28
-9543.08
6789.51
-8820.03
7979.55
-8112.59
9263.86
-7396.53
10519.6
-6670.32
11475.6
-5986.58
11761.7
-5458.73
11056.3
-5231.85
9275.97
-5351.91
6544.53
-5630.52
3366.62
-5531.09
-3598.88
445.872
-11059.8
1365.81
-16669
2097.96
-16603.3
2627.68
-15443.3
3120.58
-14108.1
3637.03
-12861
4194.75
-11795.4
4747.8
-10880.5
5268.81
-10064.1
5745.8
-9297.04
6191.08
-8557.87
6630.2
-7835.67
7084.33
-7124.46
7512.96
-6415.23
7773.13
-5718.89
7600.54
-5059.27
6741.47
-4492.83
5044.33
-3933.38
2651.52
-3138.28
-947.356
1061.53
-12121.4
2103.04
-17710.5
2719.75
-17220
3132.83
-15856.4
3560.04
-14535.3
4054.33
-13355.3
4622.82
-12364
5200.26
-11458
5724.24
-10588.1
6139.39
-9712.24
6413.62
-8832.14
6534.68
-7956.77
6511.79
-7101.6
6363.1
-6266.58
6093.46
-5449.28
5646.15
-4611.99
4899.03
-3745.72
3687.12
-2721.48
1892.55
-1343.75
945.197
2081.25
-14202.7
3129.87
-18759.1
3660.12
-17750.3
4138.21
-16334.5
4769.32
-15166.4
5551.2
-14137.2
6448.6
-13261.4
7340.89
-12350.3
8135.42
-11382.6
8753.58
-10330.4
9155.54
-9234.1
9312.92
-8114.16
9205.53
-6994.2
8815.31
-5876.37
8134.98
-4768.96
7156.08
-3633.08
5876.97
-2466.61
4253.29
-1097.81
2233.38
676.166
3178.57
2539.89
-16742.6
3002.15
-19221.4
3244.75
-17992.9
3689.06
-16778.8
4408.74
-15886.1
5364.72
-15093.2
6487.56
-14384.2
7582.5
-13445.3
8517.58
-12317.7
9205.43
-11018.3
9636.61
-9665.29
9791.57
-8269.12
9635.99
-6838.63
9103.97
-5344.34
8128.14
-3793.14
6632.69
-2137.65
4682.75
-516.685
2761.63
823.292
974.11
2463.66
4152.68
1109.43
-17852
339.263
-18451.2
-202.79
-17450.8
-518.727
-16462.9
-624.358
-15780.5
-554.721
-15162.8
-406.844
-14532.1
-350.046
-13502
-476.979
-12190.8
-792.227
-10703
-1237.33
-9220.16
-1789.98
-7716.43
-2455.57
-6173.01
-3225.77
-4574.1
-4047.29
-2971.59
-4783.26
-1401.64
-5204.37
-95.5525
-5048.49
667.432
-3534.89
950.074
617.794
-1009.84
-16842.2
-2248.94
-17212.2
-3470.87
-16228.9
-4765.48
-15168.3
-6019.18
-14526.8
-7299.99
-13882
-8627.1
-13205
-10020.1
-12109.1
-11470.8
-10740.1
-12963.6
-9210.24
-14487.9
-7695.86
-16018.9
-6185.46
-17471.3
-4720.62
-18644.3
-3401.13
-19159.4
-2456.52
-18404.4
-2156.57
-15859.4
-2640.56
-11407
-3785.06
-5405.58
-5051.33
-4787.79
-1554.8
-15287.4
-2272.76
-16494.2
-3344.94
-15156.7
-4766.9
-13746.3
-6269.27
-13024.4
-8016.27
-12135
-9837.26
-11384
-11603
-10343.3
-13143.6
-9199.44
-14443.8
-7909.98
-15496.7
-6642.98
-16239.6
-5442.53
-16506
-4454.22
-16086.4
-3820.66
-14785.1
-3757.81
-12460.8
-4480.93
-9154.02
-5947.29
-5289.85
-7649.22
-1920.62
-8420.55
-6708.41
-284.206
-15003.1
60.2069
-16838.6
162.073
-15258.6
48.4928
-13632.7
-111.608
-12864.3
-450.203
-11796.4
-833.589
-11000.6
-1130.65
-10046.2
-1148.29
-9181.78
-800.734
-8257.51
-70.0372
-7373.66
1026.61
-6539.15
2416.98
-5844.56
3958.13
-5361.78
5367.72
-5167.38
6207.53
-5320.73
6009.01
-5748.76
4585.8
-6225.99
2289.9
-6124.64
-4418.51
365.593
-15368.7
859.434
-17332.4
1251.09
-15650.2
1647.63
-14029.2
2086.98
-13303.6
2530.62
-12240
2996.01
-11465.9
3509.17
-10559.4
4111.54
-9784.09
4863.4
-9009.32
5773.85
-8284.06
6811.29
-7576.56
7851.93
-6885.16
8702.94
-6212.75
9123.04
-5587.45
8850.32
-5047.98
7716.38
-4614.78
5671.15
-4180.74
3006.52
-3459.95
-1411.99
867.373
-16236
1128.93
-17593.9
1500.2
-16021.4
1935.51
-14464.5
2439.38
-13807.4
2919.06
-12719.7
3429.67
-11976.5
3932.74
-11062.4
4427.38
-10278.7
4884.1
-9466.02
5297.12
-8697.05
5655.24
-7934.66
5952.98
-7182.88
6164.11
-6423.86
6227.44
-5650.75
6003.47
-4823.99
5323.98
-3935.27
4032.72
-2889.45
2122.68
-1549.87
710.693
1111.54
-17347.5
1104.08
-17586.4
1481.91
-16399.2
1926.27
-14908.8
2452.86
-14334
2943.69
-13210.4
3481.94
-12514.7
4022.31
-11602.7
4603.19
-10859.6
5197.89
-10060.7
5798.05
-9297.18
6352.37
-8488.95
6791.14
-7621.61
7009.01
-6641.7
6899.39
-5541.09
6379.64
-4304.21
5424.93
-2980.53
4013.14
-1477.62
2095.67
367.674
2806.36
928.012
-18275.5
733.343
-17391.7
1052.43
-16718.3
1433.52
-15289.9
1897.94
-14798.4
2384.58
-13697.1
2949.2
-13079.3
3568.23
-12221.7
4274.52
-11565.8
5054.51
-10840.7
5898.18
-10140.8
6727.26
-9318
7395.05
-8289.39
7665.71
-6912.33
7335.98
-5211.34
6390.9
-3359.1
4859.19
-1448.78
2837.75
543.878
1289.43
1916.05
4095.8
146.996
-18422.5
-276.97
-16967.7
-379.154
-16616.1
-424.873
-15244.1
-437.957
-14785.3
-371.392
-13763.6
-265.811
-13184.9
-74.4447
-12413.1
181.468
-11821.7
512.478
-11171.6
880.741
-10509.1
1201.31
-9638.54
1297.42
-8385.45
965.345
-6580.2
234.433
-4480.35
-453.896
-2670.65
-794.13
-1108.32
-750.371
500.322
-1100.74
2266.5
2995.06
-586.215
-17836.3
-1302.94
-16251
-1874.9
-16044.1
-2391.05
-14727.9
-2912.38
-14263.9
-3337.18
-13338.8
-3779.33
-12742.7
-4160.01
-12032.4
-4541.23
-11440.4
-4895.18
-10817.6
-5249.11
-10155.1
-5598.27
-9289.36
-5930.27
-8053.44
-6151.05
-6359.4
-6127.19
-4504.18
-5816.64
-2981.17
-5304.18
-1620.75
-4689.12
-114.702
-3454.33
1031.74
-459.268
-1410.74
-16425.5
-2991.84
-14669.9
-4245.78
-14790.1
-5292.05
-13681.6
-6255.91
-13300
-7027.39
-12567.3
-7731.2
-12038.9
-8319.23
-11444.3
-8847.63
-10912
-9295.56
-10369.7
-9638.99
-9811.66
-9759.54
-9168.8
-9435.49
-8377.47
-8390.97
-7403.91
-6593.32
-6301.82
-4420.41
-5154.07
-2137.18
-3903.96
-24.6212
-2227.21
1013.35
-6.16679
554.087
-1955.44
-14470.1
-4227.6
-12397.7
-6461.92
-12555.8
-8335.07
-11808.5
-10113.2
-11521.9
-11600.1
-11080.4
-12906.7
-10732.3
-13985.7
-10365.3
-14875
-10022.8
-15561
-9683.68
-16021.6
-9351.02
-16176.6
-9013.87
-15892.8
-8661.27
-15026
-8270.71
-13519.2
-7808.56
-11432.7
-7240.62
-8813.85
-6522.76
-5578.21
-5462.84
-1875.15
-3709.2
-1321.06
-5370.05
-8667.72
-12123.5
-14832
-17253.8
-19234.2
-20866.4
-22131.7
-23054.5
-23638.1
-23889.1
-23803
-23364.3
-22535
-21243.5
-19384.1
-16806.9
-13169.7
-7778.94
-5372.44
14472.5
-8672.04
12399.6
-12129.7
12557.6
-14839.5
11809.8
-17262.4
11522.9
-19243.3
11081
-20875.7
10732.5
-22140.8
10365
-23062.8
10022
-23645.2
9682.42
-23894.6
9349.39
-23806.9
9012.3
-23367
8660.15
-22537.2
8270.23
-21246.5
7809.27
-19390.3
7243.75
-16819.7
6529.46
-13192.4
5472.74
-7807.08
3714.63
1292.92
-1949.78
16422.3
-4213.59
14663.4
-6439.69
14783.7
-8302.67
13672.8
-10070.1
13290.3
-11544.8
12555.7
-12838.3
12026
-13902.9
11429.7
-14776.6
10895.7
-15445.5
10351.3
-15887.6
9791.47
-16022.9
9147.62
-15721.4
8358.64
-14845.9
7394.78
-13348.3
6311.64
-11292.2
5187.74
-8721.92
3959.15
-5539.94
2290.77
-1829.62
4.33105
-536.7
-1399.14
17821.4
-2971.6
16235.9
-4215.46
16027.6
-5253.15
14710.5
-6208.33
14245.5
-6972.09
13319.5
-7668.27
12722.1
-8249.49
12010.9
-8771.22
11417.4
-9212.59
10792.7
-9547.54
10126.4
-9653.42
9253.51
-9302.89
8008.12
-8225.17
6317.06
-6410.94
4497.42
-4237.8
3014.61
-1940.04
1661.41
155.778
194.976
1074.06
-913.915
537.364
-595.205
18416.6
-1318.03
16958.8
-1899.88
16609.5
-2427.26
15237.9
-2960.96
14779.2
-3400.77
13759.3
-3860.83
13182.2
-4263.04
12413.1
-4671.15
11825.5
-5056.36
11177.9
-5445.05
10515.1
-5827.86
9636.32
-6181.9
8362.17
-6397.85
6533.02
-6338.74
4438.32
-5971.62
2647.5
-5381.96
1071.75
-4643.64
-543.33
-3342.29
-2215.25
-2804.92
125.089
18291.5
-300.423
17384.3
-410.328
16719.4
-473.684
15301.3
-506.43
14812
-460.389
13713.3
-377.934
13099.8
-210.292
12245.5
20.7825
11594.5
326.796
10871.9
667.579
10174.4
956.819
9347.1
1017.09
8301.92
658.022
6892.11
-56.2129
5152.58
-688.272
3279.6
-990.855
1374.41
-1048.59
-485.532
-1282.09
-1981.73
-4087.01
961.213
17330.3
706.818
17638.7
999.301
16426.9
1383.72
14916.9
1850.79
14344.9
2334.23
13229.8
2896.93
12537.1
3514.49
11627.9
4222.1
10886.9
5002.67
10091.4
5848.84
9328.18
6677.38
8518.56
7332.59
7646.72
7569.37
6655.33
7186.96
5535
6192.8
4273.77
4641.81
2925.4
2758.59
1397.69
1243.12
-466.245
-2843.9
1071.66
16258.7
1464.51
17245.8
2007.72
15883.7
2465
14459.6
3090.69
13719.2
3617.25
12703.3
4189.93
11964.4
4711.63
11106.2
5252.94
10345.6
5793.89
9550.43
6321.07
8801.01
6794.86
8044.78
7162.4
7279.18
7315.35
6502.38
7141.1
5709.25
6558.41
4856.46
5550.85
3932.97
4100.98
2847.57
2158.05
1476.69
-685.845
742.96
15515.7
1860.32
16128.5
2570.04
15174
2883.36
14146.3
3296.85
13305.7
3601.08
12399.1
4000.67
11564.8
4407.99
10698.9
4860.57
9892.97
5284.24
9126.75
5620.92
8464.32
5852.29
7813.41
6000.96
7130.5
6054.78
6448.56
5961.43
5802.59
5610.01
5207.89
4878.39
4664.58
3656.07
4069.89
1932.12
3200.63
1246.28
310.591
15205.1
942.071
15497
1067.15
15048.9
780.136
14433.3
395.573
13690.3
-9.37798
12804
-225.221
11780.6
-100.452
10574.2
596.278
9196.25
1802.9
7920.14
3175.47
7091.76
4512.03
6476.86
5690.51
5952.04
6524.47
5614.61
6888.51
5438.55
6664.71
5431.7
5777.19
5552.1
4228.14
5618.96
2223.41
5205.37
3469.68
-264.659
15469.8
-617.656
15850
-1309.7
15740.9
-2237.68
15361.3
-3295.81
14748.4
-4419.58
13927.8
-5485.48
12846.5
-6222.77
11311.5
-6104.39
9077.87
-4973.91
6789.65
-3449.26
5567.1
-1765.27
4792.86
53.1632
4133.59
1882.63
3785.12
3451.37
3869.8
4363.08
4519.98
4300.81
5614.37
3257.33
6662.43
1608.01
6854.69
5077.69
-898.479
16368.3
-1774.39
16725.9
-2613.39
16580
-3432.86
16180.7
-4327.63
15643.2
-5395.5
14995.7
-6729.89
14180.9
-8355.05
12936.6
-10151.5
10874.4
-11695.6
8333.69
-12678.1
6549.65
-13341.5
5456.25
-13602.7
4394.78
-13214.9
3397.35
-11992.3
2647.14
-9838.23
2365.97
-6939.67
2715.8
-3892.75
3615.51
-1390.94
4352.89
3686.74
-303.564
16671.8
-703.529
17125.9
-696.837
16573.3
-458.395
15942.3
-172.414
15357.2
7.99683
14815.2
-63.7656
14252.7
-579.688
13452.5
-2020
12314.7
-4457.55
10771.2
-6985.54
9077.62
-9370.09
7840.77
-11614.8
6639.51
-13563.6
5346.14
-14846
3929.44
-14890.8
2410.8
-13157.1
982.093
-9374.48
-167.112
-4372.89
-648.721
-686.147
1200.64
15471.2
1895.79
16430.7
2955.78
15513.3
4212.79
14685.3
5543.89
14026.1
6869.52
13489.6
8121.97
13000.2
9175.97
12398.5
9694.86
11795.8
9232.49
11233.6
7912.19
10397.9
6285.92
9467.03
4501.54
8423.89
2608.99
7238.68
646.711
5891.7
-1226.15
4283.64
-2647.42
2403.33
-3057.99
243.438
-2392.28
-1314.46
-3078.43
1834.6
13636.6
3194.99
15070.3
4544.31
14163.9
5855.41
13374.2
7121.94
12759.6
8350.02
12261.5
9538.6
11811.6
10650.3
11286.8
11701.9
10744.2
12595.4
10340.1
13046.5
9946.82
13076.2
9437.29
12739
8761.07
12052.8
7924.92
10980.5
6963.94
9394
5870.14
7146.19
4651.13
4169.92
3219.69
1396.14
1459.31
-1682.28
1467
12169.6
2777.31
13760
3852.31
13088.9
4724.31
12502.1
5455.79
12028.1
6098.99
11618.3
6701.85
11208.8
7280.24
10708.4
7869.16
10155.2
8498.21
9711
9047.85
9397.17
9391.05
9094.08
9453.53
8698.59
9204.16
8174.28
8629.35
7538.75
7696.02
6803.46
6365.09
5982.06
4614.81
4969.98
2528.03
3546.08
845.753
898.974
11270.6
1963.56
12695.4
2750.39
12302.1
3349
11903.5
3915.12
11461.9
4499.13
11034.3
5096.02
10611.8
5694.43
10110
6296.11
9553.54
6925.84
9081.25
7576.8
8746.21
8187.43
8483.44
8667.33
8218.68
8898.53
7943.07
8744.87
7692.41
8054.89
7493.43
6751.39
7285.55
4849.11
6872.25
2552.16
5843.02
3397.91
292.291
10978.3
599.664
12388
565.399
12336.3
606.391
11862.5
971.019
11097.3
1563.49
10441.8
2275.9
9899.42
3114.09
9271.79
4112.4
8555.22
5321.36
7872.29
6775.72
7291.84
8395.76
6863.39
9935.61
6678.82
11008.8
6869.92
11233.4
7467.71
10413
8313.85
8604.37
9094.21
6002.2
9474.42
3071.28
8773.94
6469.19
-1471.82
12450.1
-2797.8
13714
-4344.51
13883.1
-5566.94
13084.9
-6331.17
11861.5
-6856.76
10967.4
-7275.2
10317.9
-7507.27
9503.86
-7458.4
8506.34
-7037.05
7450.93
-6171.21
6425.99
-4839.77
5531.95
-3072.84
4911.88
-967.056
4764.13
1199.69
5300.96
2930.99
6582.54
3653.59
8371.61
3118.99
10009
1626.22
10266.7
8095.41
-1442.62
13892.7
-3911.24
16182.6
-6407.27
16379.1
-8763.45
15441.1
-10909.4
14007.5
-12757.2
12815.1
-14330.3
11891
-15761.5
10935
-17065.6
9810.48
-18215.1
8600.44
-19140.8
7351.72
-19699.5
6090.59
-19633.4
4845.85
-18611.9
3742.57
-16396.1
3085.22
-13095.6
3282.04
-9235.22
4511.22
-5492.95
6266.78
-2455.5
7229.29
5639.91
1459.2
2281.13
3043.68
3501.97
3637.66
3673.54
3329.49
2963.17
2408.43
1624.31
602.507
-642.136
-2050.66
-3478.34
-4646.46
-5091.01
-4446.92
-2849.05
-1013.56
)
;

boundaryField
{
    outletWall
    {
        type            calculated;
        value           nonuniform List<scalar> 
60
(
45018.1
-18100.6
-40678.1
-54192.8
-46063.7
-5366
47164.1
64681.8
52431.5
-26326.3
-81086.3
-117740
-135959
-137394
-126925
-103834
-53465.7
24662.2
90799.1
47853.5
36078
36667.1
39527.6
43047.5
47322
51787.9
55978
59557.1
62281.8
64143.9
65235.5
65690.3
65507.9
65168.5
65489.4
66640.7
67229
64787.5
58626.8
44519.5
-48966.3
-40164.6
-43775.3
-25752.1
-22337.3
-7561.2
-2687.34
-15316.7
-39843.9
-52115.5
-59407.3
-62497
-55144
-9815.09
72836.9
108839
87295.1
-16132.3
-45985.3
91766.9
)
;
    }
    fineWalls
    {
        type            calculated;
        value           uniform 0;
    }
    fineFrontAndBack
    {
        type            calculated;
        value           nonuniform List<scalar> 
960
(
-1.37895e-14
-3.77765e-14
-4.4075e-14
1.00197e-14
3.62558e-13
-1.28443e-13
1.34454e-13
-1.12349e-12
5.44342e-12
3.22286e-12
4.54363e-12
-6.05029e-12
-5.63495e-12
-5.30141e-12
-6.70414e-11
-1.62608e-11
-1.57554e-11
-7.33302e-11
-1.3947e-11
-1.3709e-11
-2.15491e-12
-2.44939e-12
-1.65383e-12
-1.53905e-12
-1.64245e-12
-1.68641e-12
-3.40276e-11
-1.4707e-12
-3.81159e-13
8.56691e-13
2.03041e-12
3.12697e-12
3.84036e-12
3.64788e-12
2.08654e-12
-2.46142e-13
-2.42671e-12
-4.10357e-12
-5.50797e-12
-7.44904e-12
-2.14295e-10
-3.71503e-11
-3.68098e-11
-3.0651e-11
-4.8901e-11
6.43692e-12
9.22631e-12
1.10956e-11
1.57154e-10
3.5132e-11
3.45596e-11
1.49686e-10
1.11975e-11
4.16384e-12
-7.18101e-13
-9.44231e-12
7.12601e-12
1.58081e-11
2.74301e-11
2.49043e-10
9.13908e-12
7.01476e-12
5.84356e-12
4.60782e-12
3.66354e-12
2.92925e-12
2.36855e-12
1.85242e-12
1.49876e-12
1.29557e-12
1.26312e-12
1.25091e-12
1.33959e-12
8.51321e-11
2.28985e-12
2.34751e-12
2.25759e-12
2.25931e-12
2.65893e-12
3.38705e-12
2.50987e-11
2.54445e-11
1.45983e-10
2.3823e-11
2.55774e-11
1.54353e-10
2.93576e-11
3.27078e-11
1.94291e-10
3.75955e-11
4.09884e-11
2.59439e-10
6.52662e-11
5.52707e-11
4.54782e-11
1.8703e-10
2.96379e-11
2.99464e-11
1.54038e-10
3.98057e-11
1.13964e-10
-1.70462e-11
5.09403e-12
8.13944e-11
1.10665e-10
1.3062e-10
1.46064e-10
1.57062e-10
1.63231e-10
1.64344e-10
1.61782e-10
1.5535e-10
1.54537e-10
1.58852e-10
1.59211e-10
1.63324e-10
1.83204e-10
2.06451e-10
2.04057e-10
-5.51287e-12
-1.48312e-10
-7.64826e-11
7.086e-11
1.19883e-10
1.31776e-10
1.46611e-10
1.57428e-10
1.63332e-10
1.6434e-10
1.62078e-10
1.5566e-10
1.64282e-10
1.67103e-10
1.69798e-10
1.66082e-10
1.78017e-10
2.01374e-10
1.93408e-10
-7.1637e-11
-2.16134e-10
-1.48861e-10
-1.43458e-12
1.26544e-10
1.37073e-10
1.47169e-10
1.57915e-10
1.63508e-10
1.643e-10
1.62009e-10
1.58662e-10
1.66325e-10
1.50041e-10
1.51282e-10
1.66379e-10
1.74311e-10
1.96343e-10
1.66916e-10
-1.34895e-10
-2.78547e-10
-1.99327e-10
-6.75116e-11
1.08912e-10
1.45212e-10
1.4926e-10
1.58336e-10
1.63741e-10
1.64227e-10
1.60938e-10
1.59313e-10
1.40675e-10
9.58384e-11
8.89539e-11
1.51543e-10
1.73025e-10
1.93756e-10
1.65661e-10
-1.75291e-10
-3.03784e-10
-2.03815e-10
-7.88105e-11
8.4392e-11
1.4647e-10
1.54024e-10
1.59026e-10
1.64025e-10
1.63244e-10
1.56612e-10
1.44789e-10
9.27578e-11
4.68402e-11
6.18923e-11
1.41778e-10
1.70229e-10
1.91166e-10
1.79595e-10
-1.88501e-10
-2.94173e-10
-1.7783e-10
-4.88011e-11
8.49531e-11
1.40498e-10
1.58921e-10
1.6085e-10
1.63972e-10
1.61265e-10
1.52401e-10
1.12205e-10
4.48034e-11
1.20483e-11
4.28477e-11
1.34486e-10
1.69977e-10
1.88206e-10
1.82322e-10
-1.79709e-10
-2.68433e-10
-1.44334e-10
-4.13984e-12
1.11746e-10
1.40444e-10
1.61209e-10
1.63854e-10
1.64261e-10
1.61847e-10
1.43362e-10
5.67953e-11
2.51717e-12
-2.0817e-11
7.16754e-12
1.11378e-10
1.90578e-10
2e-10
2.04684e-10
-1.61753e-10
-2.4701e-10
-1.1891e-10
3.82793e-11
1.50337e-10
1.54543e-10
1.64912e-10
1.66075e-10
1.62442e-10
1.47233e-10
8.11396e-11
5.52013e-12
-2.38873e-11
-4.03131e-11
-3.36918e-11
3.97769e-11
1.54522e-10
2.67178e-10
3.71622e-10
-1.41004e-10
-2.33486e-10
-1.05515e-10
6.9353e-11
1.86783e-10
1.55197e-10
1.50132e-10
1.65019e-10
1.60141e-10
1.42498e-10
4.46804e-11
-4.02953e-11
-3.99791e-12
-2.57294e-11
-4.23306e-11
-3.48279e-11
6.93659e-12
4.53199e-11
4.77988e-11
-1.14896e-10
-2.21154e-10
-1.00896e-10
8.11708e-11
2.59465e-10
2.65331e-10
2.11593e-10
1.47543e-10
1.55467e-10
7.64993e-11
-1.11822e-10
-1.14772e-10
7.19406e-11
3.56195e-11
2.24667e-11
-3.23135e-11
-2.92515e-11
-1.30383e-12
7.70838e-11
-8.28563e-11
-2.06789e-10
-9.52102e-11
6.04577e-11
1.81092e-10
1.97748e-10
1.67845e-10
1.53511e-10
1.30427e-10
3.16926e-11
-4.23325e-11
5.88804e-11
7.56583e-11
6.28626e-11
3.29286e-11
2.34632e-12
-1.73803e-11
-1.73235e-11
5.14592e-11
-4.84931e-11
-1.97498e-10
-9.52543e-11
6.74839e-11
1.97303e-10
2.05757e-10
1.80856e-10
1.62329e-10
1.00021e-10
1.18834e-11
-1.73388e-11
3.2881e-11
6.41603e-11
7.09153e-11
2.86059e-11
-3.69511e-11
-1.13175e-10
-1.80197e-10
-1.79672e-10
-1.01288e-11
-1.89506e-10
-1.12229e-10
2.72705e-11
1.53977e-10
1.94287e-10
1.84616e-10
1.44174e-10
6.51034e-11
-2.09115e-11
-5.90135e-11
-2.98489e-11
3.57286e-11
5.41677e-11
1.22783e-11
-8.31748e-11
-1.89062e-10
-2.53948e-10
-3.10285e-10
3.15828e-11
-1.80293e-10
-1.3655e-10
-3.7749e-11
5.63604e-11
1.10352e-10
1.23303e-10
8.73429e-11
9.47493e-12
-7.45146e-11
-1.07641e-10
-7.49581e-11
-8.05998e-12
2.45297e-11
1.61596e-11
-2.16063e-11
-3.13195e-11
2.93789e-12
1.72316e-11
7.65785e-11
-1.62956e-10
-1.60219e-10
-1.12639e-10
-4.93825e-11
1.73814e-12
2.41996e-11
9.82655e-13
-6.19631e-11
-1.20403e-10
-1.18545e-10
-9.40024e-11
-4.28433e-11
-1.19712e-11
-4.86738e-12
-1.72981e-11
-1.88402e-11
-1.19054e-11
1.23336e-11
1.2314e-10
-1.30783e-10
-1.69265e-10
-1.71572e-10
-1.34091e-10
-9.62356e-11
-7.50682e-11
-8.59757e-11
-1.2192e-10
-1.36149e-10
-1.2581e-10
-1.06877e-10
-6.81211e-11
-4.26694e-11
-3.22477e-11
-3.10107e-11
-2.64323e-11
-1.7436e-11
4.50439e-12
1.68673e-10
-8.05316e-11
-1.5377e-10
-2.02094e-10
-1.89617e-10
-1.68068e-10
-1.496e-10
-1.4395e-10
-1.47429e-10
-1.41243e-10
-1.28576e-10
-1.13363e-10
-9.69716e-11
-7.03216e-11
-5.35588e-11
-4.46723e-11
-3.71486e-11
-1.84785e-11
-2.60962e-12
2.08654e-10
-1.85722e-11
-1.1468e-10
-2.05633e-10
-2.15647e-10
-2.09036e-10
-1.89929e-10
-1.65983e-10
-1.55749e-10
-1.45247e-10
-1.30017e-10
-1.14368e-10
-1.01034e-10
-8.78791e-11
-7.15595e-11
-5.53496e-11
-4.13476e-11
-1.34479e-11
5.70491e-13
2.38744e-10
4.31399e-11
-6.33221e-11
-1.90846e-10
-2.20916e-10
-2.27131e-10
-2.05026e-10
-1.74333e-10
-1.61541e-10
-1.4708e-10
-1.31358e-10
-1.15071e-10
-9.74549e-11
-8.73107e-11
-7.43303e-11
-5.4699e-11
-3.46714e-11
-8.14789e-12
1.99189e-12
2.65761e-10
8.98852e-11
-1.52926e-11
-1.52289e-10
-1.938e-10
-2.1046e-10
-2.01085e-10
-1.8068e-10
-1.6412e-10
-1.48296e-10
-1.32253e-10
-1.15308e-10
-9.52383e-11
-7.94706e-11
-6.57121e-11
-4.74671e-11
-2.97352e-11
-5.81529e-12
1.91955e-12
1.37895e-14
3.77765e-14
4.4075e-14
-1.00197e-14
-3.62558e-13
1.28443e-13
-1.34454e-13
1.12349e-12
-5.44342e-12
-3.22286e-12
-4.54363e-12
6.05029e-12
5.63495e-12
5.30141e-12
6.70414e-11
1.62608e-11
1.57554e-11
7.33302e-11
1.3947e-11
1.3709e-11
2.15491e-12
2.44939e-12
1.65383e-12
1.53905e-12
1.64245e-12
1.68641e-12
3.40276e-11
1.4707e-12
3.81159e-13
-8.56691e-13
-2.03041e-12
-3.12697e-12
-3.84036e-12
-3.64788e-12
-2.08654e-12
2.46142e-13
2.42671e-12
4.10357e-12
5.50797e-12
7.44904e-12
2.14295e-10
3.71503e-11
3.68098e-11
3.0651e-11
4.8901e-11
-6.43692e-12
-9.22631e-12
-1.10956e-11
-1.57154e-10
-3.5132e-11
-3.45596e-11
-1.49686e-10
-1.11975e-11
-4.16384e-12
7.18101e-13
9.44231e-12
-7.12601e-12
-1.58081e-11
-2.74301e-11
-2.49043e-10
-9.13908e-12
-7.01476e-12
-5.84356e-12
-4.60782e-12
-3.66354e-12
-2.92925e-12
-2.36855e-12
-1.85242e-12
-1.49876e-12
-1.29557e-12
-1.26312e-12
-1.25091e-12
-1.33959e-12
-8.51321e-11
-2.28985e-12
-2.34751e-12
-2.25759e-12
-2.25931e-12
-2.65893e-12
-3.38705e-12
-2.50987e-11
-2.54445e-11
-1.45983e-10
-2.3823e-11
-2.55774e-11
-1.54353e-10
-2.93576e-11
-3.27078e-11
-1.94291e-10
-3.75955e-11
-4.09884e-11
-2.59439e-10
-6.52662e-11
-5.52707e-11
-4.54782e-11
-1.8703e-10
-2.96379e-11
-2.99464e-11
-1.54038e-10
-3.98057e-11
-1.13964e-10
1.70462e-11
-5.09403e-12
-8.13944e-11
-1.10665e-10
-1.3062e-10
-1.46064e-10
-1.57062e-10
-1.63231e-10
-1.64344e-10
-1.61782e-10
-1.5535e-10
-1.54537e-10
-1.58852e-10
-1.59211e-10
-1.63324e-10
-1.83204e-10
-2.06451e-10
-2.04057e-10
5.51287e-12
1.48312e-10
7.64826e-11
-7.086e-11
-1.19883e-10
-1.31776e-10
-1.46611e-10
-1.57428e-10
-1.63332e-10
-1.6434e-10
-1.62078e-10
-1.5566e-10
-1.64282e-10
-1.67103e-10
-1.69798e-10
-1.66082e-10
-1.78017e-10
-2.01374e-10
-1.93408e-10
7.1637e-11
2.16134e-10
1.48861e-10
1.43458e-12
-1.26544e-10
-1.37073e-10
-1.47169e-10
-1.57915e-10
-1.63508e-10
-1.643e-10
-1.62009e-10
-1.58662e-10
-1.66325e-10
-1.50041e-10
-1.51282e-10
-1.66379e-10
-1.74311e-10
-1.96343e-10
-1.66916e-10
1.34895e-10
2.78547e-10
1.99327e-10
6.75116e-11
-1.08912e-10
-1.45212e-10
-1.4926e-10
-1.58336e-10
-1.63741e-10
-1.64227e-10
-1.60938e-10
-1.59313e-10
-1.40675e-10
-9.58384e-11
-8.89539e-11
-1.51543e-10
-1.73025e-10
-1.93756e-10
-1.65661e-10
1.75291e-10
3.03784e-10
2.03815e-10
7.88105e-11
-8.4392e-11
-1.4647e-10
-1.54024e-10
-1.59026e-10
-1.64025e-10
-1.63244e-10
-1.56612e-10
-1.44789e-10
-9.27578e-11
-4.68402e-11
-6.18923e-11
-1.41778e-10
-1.70229e-10
-1.91166e-10
-1.79595e-10
1.88501e-10
2.94173e-10
1.7783e-10
4.88011e-11
-8.49531e-11
-1.40498e-10
-1.58921e-10
-1.6085e-10
-1.63972e-10
-1.61265e-10
-1.52401e-10
-1.12205e-10
-4.48034e-11
-1.20483e-11
-4.28477e-11
-1.34486e-10
-1.69977e-10
-1.88206e-10
-1.82322e-10
1.79709e-10
2.68433e-10
1.44334e-10
4.13984e-12