/*--------------------------------*- C++ -*----------------------------------*\
| =========                 |                                                 |
| \\      /  F ield         | OpenFOAM: The Open Source CFD Toolbox           |
|  \\    /   O peration     | Version:  4.1                                   |
|   \\  /    A nd           | Web:      www.OpenFOAM.org                      |
|    \\/     M anipulation  |                                                 |
\*---------------------------------------------------------------------------*/
FoamFile
{
    version     2.0;
    format      ascii;
    class       volVectorField;
    location    "20";
    object      U;
}
// * * * * * * * * * * * * * * * * * * * * * * * * * * * * * * * * * * * * * //

dimensions      [0 1 -1 0 0 0 0];

internalField   nonuniform List<vector> 
1280
(
(-9.9653e-18 15.9605 0.257885)
(-6.42048e-18 19.657 -1.65674)
(-6.98515e-17 17.5345 -1.45367)
(7.24096e-18 17.9604 -1.38713)
(6.16202e-17 22.3572 -4.02813)
(-9.28221e-17 18.842 -3.45845)
(9.71661e-17 21.2482 -3.62867)
(-9.48355e-16 20.164 -3.35794)
(1.40549e-15 25.3059 -7.20467)
(2.44787e-15 22.6518 -5.73507)
(3.28356e-15 24.0462 -5.07379)
(-2.24136e-15 29.1057 -10.5684)
(-4.07223e-15 26.5389 -8.7728)
(-3.83119e-15 28.5042 -8.0483)
(-1.33772e-14 35.2409 -16.0204)
(-1.17513e-14 31.6847 -13.2791)
(-1.1386e-14 36.1253 -12.6392)
(-1.24632e-14 35.2135 -23.8336)
(-1.02605e-14 45.4383 -18.4708)
(-9.90716e-15 33.85 -32.93)
(-8.84065e-15 44.0303 46.0561)
(-1.00488e-14 44.1113 68.4803)
(-6.78496e-15 46.3041 80.7693)
(-6.31403e-15 48.3694 89.0676)
(-6.73827e-15 49.0121 95.2916)
(-6.9186e-15 51.6481 100.339)
(-7.17314e-15 52.1693 70.4329)
(-6.03362e-15 85.6052 120.546)
(-1.56373e-15 86.401 121.058)
(3.51463e-15 86.1175 119.002)
(8.32988e-15 85.5523 115.725)
(1.28286e-14 84.7078 112.489)
(1.57553e-14 83.7635 110.039)
(1.49657e-14 82.7049 108.333)
(8.56018e-15 81.9178 107.612)
(-1.00981e-15 81.1136 108.203)
(-9.95575e-15 81.5713 110.246)
(-1.68352e-14 81.0376 112.773)
(-2.25968e-14 83.9651 114.09)
(-3.05602e-14 82.7741 103.511)
(-3.73011e-14 114.135 105.36)
(-2.98396e-14 71.4534 73.9859)
(-2.95661e-14 64.7035 75.2611)
(-2.44588e-14 54.2621 75.1697)
(-5.95782e-15 47.1094 84.642)
(5.17022e-15 29.5525 51.558)
(7.41069e-15 25.1807 45.7493)
(8.9121e-15 19.5387 36.827)
(3.136e-14 15.1043 26.4428)
(2.87198e-14 7.36526 7.28538)
(2.9076e-14 7.12804 2.70475)
(2.6055e-14 3.75667 1.9908)
(8.99395e-15 -0.774911 10.8887)
(3.34445e-15 -1.49825 20.7258)
(-5.76788e-16 -5.59348 32.1471)
(-1.64357e-15 -16.0586 72.6986)
(6.20631e-15 -27.9676 85.489)
(1.26973e-14 -39.2157 90.1929)
(2.20322e-14 -48.0461 89.9122)
(4.38719e-14 -87.931 125.926)
(3.74937e-14 -75.8546 111.704)
(2.87785e-14 -77.7154 116.021)
(2.39736e-14 -77.7021 112.763)
(1.89039e-14 -79.1016 111.112)
(1.50299e-14 -80.2507 109.949)
(1.20174e-14 -81.4287 110.192)
(9.71711e-15 -82.3324 111.3)
(7.59968e-15 -82.9824 112.938)
(6.14878e-15 -83.2869 114.549)
(5.31515e-15 -83.2978 115.691)
(5.18205e-15 -82.9758 116.121)
(5.13193e-15 -81.8619 116.148)
(5.49577e-15 -80.989 115.683)
(1.79462e-14 -42.7171 60.2258)
(9.39427e-15 -48.8042 90.7968)
(9.63082e-15 -45.0073 86.0558)
(9.2619e-15 -43.6272 80.85)
(9.26897e-15 -40.709 72.361)
(1.09084e-14 -38.1805 58.53)
(1.38956e-14 -37.2866 36.7935)
(1.81382e-14 -25.7923 -36.3251)
(1.83324e-14 -37.5516 -26.5191)
(2.48111e-14 -23.6888 -33.1)
(1.72163e-14 -26.5478 -19.2657)
(1.84841e-14 -20.7498 -20.4615)
(2.61171e-14 -21.8512 -24.5773)
(2.1216e-14 -15.8794 -14.4115)
(2.36836e-14 -13.1418 -15.2389)
(3.33996e-14 -12.5102 -18.6824)
(2.6987e-14 -8.34554 -11.0409)
(2.94389e-14 -6.30868 -11.7714)
(4.56022e-14 -5.18697 -15.9119)
(4.92372e-14 -2.27703 -11.9601)
(3.99427e-14 -0.627432 -12.6394)
(3.28659e-14 1.59121 -12.7305)
(3.17876e-14 3.40445 -17.8521)
(2.14185e-14 5.76437 -13.5069)
(2.16415e-14 9.1705 -12.6641)
(2.59657e-14 7.30202 -18.3029)
(2.87665e-14 14.7019 -19.8542)
(1.26626e-14 15.7754 37.0701)
(-1.89402e-15 30.2544 45.2001)
(5.66004e-16 8.49828 42.2466)
(9.04382e-15 -16.4335 23.9312)
(1.22961e-14 -33.8571 17.6089)
(1.45133e-14 -41.9137 14.4281)
(1.62293e-14 -45.5151 11.2319)
(1.74513e-14 -45.1622 8.33837)
(1.81368e-14 -39.2543 5.44124)
(1.82604e-14 -27.2107 2.41646)
(1.79758e-14 -9.4931 -2.71006)
(1.72611e-14 17.9642 -10.8858)
(1.71708e-14 21.8589 -19.9014)
(1.76502e-14 15.663 -27.8975)
(1.76901e-14 -2.46294 -31.6549)
(1.81471e-14 -15.44 -28.2348)
(2.0356e-14 -18.0458 -24.1497)
(2.2939e-14 -13.4566 -21.9452)
(2.2673e-14 -6.11464 -22.9948)
(-6.12541e-16 13.1188 48.9561)
(-1.64791e-14 28.3184 60.8813)
(-8.49807e-15 16.3561 53.7729)
(7.87333e-15 -10.5663 24.3696)
(1.33204e-14 -32.5156 15.0485)
(1.46417e-14 -40.5298 15.2978)
(1.62901e-14 -44.0294 12.2072)
(1.7492e-14 -43.5015 9.54218)
(1.8148e-14 -37.1372 6.76313)
(1.826e-14 -23.9794 3.54037)
(1.80087e-14 -3.13176 -3.86477)
(1.72956e-14 23.0299 -11.9421)
(1.82536e-14 27.6895 -22.4576)
(1.8567e-14 20.3929 -30.6807)
(1.88665e-14 -0.608155 -38.2941)
(1.84535e-14 -18.3765 -33.612)
(1.97797e-14 -20.499 -24.7659)
(2.23749e-14 -14.3036 -20.5563)
(2.14897e-14 -7.56748 -19.306)
(-7.95967e-15 10.6437 54.2489)
(-2.40149e-14 28.1133 63.1561)
(-1.65401e-14 23.207 56.3798)
(-1.59398e-16 -0.51632 32.2694)
(1.40604e-14 -29.8699 12.685)
(1.52304e-14 -40.1412 15.0965)
(1.63521e-14 -42.9146 13.9576)
(1.75461e-14 -42.5215 11.4099)
(1.81676e-14 -36.2478 8.96737)
(1.82555e-14 -22.6264 5.64469)
(1.80011e-14 -0.889998 -3.40258)
(1.76291e-14 25.4287 -7.64041)
(1.84805e-14 30.3426 -15.0506)
(1.66712e-14 22.7483 -19.4607)
(1.68091e-14 -0.150483 -27.2532)
(1.84865e-14 -20.63 -33.3107)
(1.93678e-14 -22.9927 -26.2377)
(2.18158e-14 -15.2948 -20.544)
(1.85462e-14 -7.18235 -17.2527)
(-1.49884e-14 9.17771 56.3685)
(-3.09497e-14 28.0175 60.9258)
(-2.21474e-14 28.1066 53.6101)
(-7.50129e-15 9.0111 38.279)
(1.21014e-14 -26.1952 15.1775)
(1.61347e-14 -40.4758 14.0057)
(1.65844e-14 -42.6606 15.8061)
(1.75929e-14 -41.6491 14.1457)
(1.81935e-14 -35.0958 11.9328)
(1.82475e-14 -19.9331 8.07113)
(1.7882e-14 3.4281 2.66087)
(1.77015e-14 27.1021 0.791338)
(1.56306e-14 31.9558 1.01675)
(1.06487e-14 24.6251 0.663506)
(9.88377e-15 2.51924 -5.22154)
(1.68381e-14 -19.2388 -23.0544)
(1.9225e-14 -25.2483 -23.906)
(2.15285e-14 -18.3584 -20.8765)
(1.84068e-14 -10.1867 -19.2902)
(-1.94767e-14 8.34095 55.9537)
(-3.37538e-14 29.4237 56.879)
(-2.26461e-14 31.7903 49.4669)
(-8.75672e-15 16.1594 41.4135)
(9.37689e-15 -21.3837 21.7788)
(1.62744e-14 -39.9048 15.0956)
(1.71137e-14 -43.1581 17.1025)
(1.76696e-14 -41.0541 17.5606)
(1.8225e-14 -34.0184 15.9656)
(1.81382e-14 -19.3005 14.0753)
(1.74014e-14 2.33396 20.6984)
(1.60877e-14 28.0309 11.2014)
(1.03064e-14 30.6359 19.461)
(5.20447e-15 25.5321 21.0226)
(6.87692e-15 8.59319 16.1623)
(1.57531e-14 -13.76 -5.31913)
(1.89144e-14 -22.215 -14.8752)
(2.12407e-14 -16.2155 -18.3349)
(1.9955e-14 -6.83874 -22.0491)
(-2.09446e-14 8.1625 55.0454)
(-3.26858e-14 31.0066 55.3871)
(-1.97589e-14 34.0543 49.5983)
(-5.42234e-15 20.8721 46.5517)
(9.43923e-15 -16.673 30.8714)
(1.56109e-14 -37.9391 20.5528)
(1.76579e-14 -43.7065 19.1824)
(1.78722e-14 -41.2114 20.9615)
(1.82191e-14 -33.6999 20.8889)
(1.79184e-14 -20.2004 21.3749)
(1.69334e-14 1.17666 20.712)
(1.24672e-14 25.8877 23.2454)
(4.97816e-15 27.8364 36.6984)
(1.3387e-15 25.9092 41.4309)
(4.76086e-15 13.0372 39.8227)
(1.49429e-14 -8.843 21.5307)
(1.88864e-14 -21.3403 -0.37308)
(2.09118e-14 -18.5602 -8.16289)
(2.0258e-14 -9.97642 -29.5683)
(-1.99677e-14 7.57913 54.8905)
(-2.98259e-14 31.9682 57.1213)
(-1.60371e-14 35.2211 53.6134)
(-4.59982e-16 23.9145 54.3632)
(1.24162e-14 -12.0494 42.2357)
(1.56049e-14 -34.7177 29.804)
(1.79121e-14 -43.3249 24.1995)
(1.8206e-14 -41.8516 24.5031)
(1.82512e-14 -34.033 26.4086)
(1.7983e-14 -19.7523 27.8225)
(1.59291e-14 2.02507 19.8736)
(6.31059e-15 21.5897 40.9851)
(2.79686e-16 23.539 54.3618)
(-2.313e-15 24.4098 62.3278)
(7.96393e-16 17.0107 66.6171)
(1.23754e-14 3.12512 53.53)
(2.11754e-14 -4.63534 22.4066)
(2.22222e-14 2.84684 -2.05341)
(2.27426e-14 11.4415 -11.5692)
(-1.79726e-14 6.4331 55.3769)
(-2.74455e-14 32.0041 60.2591)
(-1.32122e-14 35.1981 58.9183)
(4.25326e-15 25.3387 63.1281)
(1.67041e-14 -7.53535 54.9786)
(1.71714e-14 -30.5294 41.5541)
(1.83236e-14 -41.5039 32.7975)
(1.84528e-14 -42.2551 29.7664)
(1.80491e-14 -34.8392 32.6526)
(1.63592e-14 -19.4319 37.0173)
(9.01551e-15 -1.56196 43.5704)
(6.13348e-16 13.2747 61.7018)
(-2.65414e-15 19.504 71.5933)
(-4.47924e-15 21.1991 81.4905)
(-3.74354e-15 16.1265 92.7585)
(4.41966e-15 5.93023 97.7579)
(1.71691e-14 -4.00584 99.3126)
(2.96865e-14 -14.742 111.552)
(4.12913e-14 -42.2909 126.732)
(-1.56672e-14 4.57285 55.8877)
(-2.59429e-14 31.1786 63.3747)
(-1.17239e-14 34.1084 64.0259)
(7.70589e-15 25.1984 71.5989)
(2.07537e-14 -3.56325 67.6947)
(1.72441e-14 -25.8851 54.8015)
(1.66813e-14 -38.4288 44.5129)
(1.83355e-14 -41.9144 38.5831)
(1.77934e-14 -36.6301 40.4366)
(1.58331e-14 -23.4912 48.173)
(4.96449e-15 -7.24205 62.569)
(-4.47726e-15 8.90224 77.9089)
(-4.44213e-16 15.4185 85.129)
(-2.85882e-15 16.1088 95.7294)
(-4.7034e-15 10.7275 108.432)
(-3.86976e-15 1.40235 116.963)
(7.70732e-16 -6.46778 120.875)
(5.03554e-15 -6.52106 120.59)
(5.31098e-15 -5.34089 103.466)
(-1.27663e-14 1.94053 55.9074)
(-2.45726e-14 29.572 65.8514)
(-1.12106e-14 31.8994 68.4307)
(9.01898e-15 23.5706 79.3809)
(2.88294e-14 -0.583009 79.472)
(2.94813e-14 -21.4723 68.1723)
(2.43164e-14 -34.8249 57.9147)
(1.63937e-14 -40.7506 50.801)
(1.72741e-14 -38.5806 51.1705)
(8.49993e-15 -28.8772 61.0496)
(-1.24246e-14 -13.3056 76.1612)
(-1.51986e-14 4.66943 84.6251)
(7.9934e-15 12.324 90.3328)
(3.95773e-15 11.9502 100.912)
(3.30729e-15 7.28323 109.295)
(-3.59038e-15 0.464462 112.122)
(-3.25016e-15 -5.35155 106.857)
(-1.4487e-16 -5.19962 90.7613)
(8.56487e-15 -0.099824 53.1554)
(-9.20625e-15 -1.45623 55.2286)
(-2.29766e-14 27.1879 67.4763)
(-1.05789e-14 28.5823 71.7958)
(6.71752e-15 20.5741 86.2351)
(2.01214e-14 1.28018 90.4605)
(2.1972e-14 -17.4994 81.5509)
(1.77368e-14 -31.3003 72.2366)
(1.70568e-14 -39.336 65.8145)
(1.44919e-14 -40.5888 66.2213)
(3.52141e-15 -33.5886 74.834)
(-4.70361e-15 -16.2991 80.6236)
(6.54226e-15 3.3207 76.9923)
(8.40648e-15 8.87751 84.6208)
(6.98473e-15 8.64893 99.4913)
(3.65873e-15 6.43449 108.754)
(2.60702e-16 2.72271 111.339)
(-1.93115e-15 1.90949 107.959)
(-1.92484e-15 9.5424 97.9845)
(5.71769e-15 22.7225 69.6014)
(-5.38812e-15 -5.35725 53.789)
(-2.19442e-14 24.1247 67.9699)
(-1.05838e-14 24.1632 73.5499)
(7.49821e-15 15.9957 91.4447)
(2.19226e-14 1.43542 100.581)
(2.28619e-14 -14.3898 96.4356)
(2.00951e-14 -28.3784 89.6988)
(1.80366e-14 -38.4378 85.2648)
(1.11135e-14 -42.0665 84.994)
(1.32038e-15 -34.677 84.5289)
(-1.92654e-15 -14.1421 70.3838)
(3.65345e-15 2.93993 54.0394)
(7.12892e-15 3.26929 66.6081)
(7.87948e-15 2.26684 83.1609)
(3.17844e-15 1.94279 98.0812)
(-4.10568e-15 0.298966 107.247)
(-1.25751e-14 1.39352 113.51)
(-2.00219e-14 11.6367 115.094)
(-1.99635e-14 32.791 103.488)
(-1.12543e-15 -9.66287 51.5573)
(-2.10562e-14 20.5816 67.011)
(-1.24699e-14 18.8283 72.9475)
(3.03005e-15 9.77881 93.4963)
(1.71086e-14 -0.78031 106.849)
(2.15875e-14 -13.3458 109.314)
(2.05129e-14 -26.8293 107.807)
(1.60193e-14 -37.5664 105.084)
(7.23371e-15 -40.1858 99.1435)
(-2.3235e-15 -27.8071 80.5325)
(-6.55705e-15 -4.29333 43.4343)
(-3.31655e-15 3.99657 28.171)
(3.96985e-15 -2.68054 43.4336)
(6.01863e-15 -3.74076 53.0101)
(1.36425e-15 -2.95622 61.7822)
(-9.24164e-15 -2.83145 64.4009)
(-2.10068e-14 -0.636754 56.5286)
(-2.82165e-14 10.355 46.3744)
(-3.44761e-14 46.9574 53.4389)
(3.5092e-15 -14.1168 48.5589)
(-2.00325e-14 16.9476 64.3035)
(-1.51722e-14 13.0903 69.1904)
(-4.19433e-15 2.69488 90.6671)
(6.26227e-15 -4.91066 105.362)
(1.22613e-14 -14.9135 113.438)
(1.37003e-14 -26.7627 117.187)
(9.70476e-15 -35.0923 113.889)
(1.05277e-15 -32.1753 96.6358)
(-8.2794e-15 -12.7578 56.9362)
(-1.19601e-14 6.92387 14.8483)
(-8.32868e-15 3.08964 15.2087)
(-8.95553e-16 -6.33515 23.1476)
(2.72552e-15 -5.51655 27.6587)
(1.79551e-15 -2.45472 28.7105)
(-2.4007e-15 2.42567 20.9892)
(-3.47995e-15 8.06495 2.21349)
(3.26432e-16 11.5904 -5.58979)
(1.91462e-15 1.33054 -27.138)
(8.50873e-15 -18.5627 44.9944)
(-1.81062e-14 13.761 59.7529)
(-1.78021e-14 7.77516 61.7724)
(-1.25154e-14 -4.29676 81.6932)
(-5.48694e-15 -9.97728 96.4339)
(1.93127e-16 -18.0562 107.812)
(2.68884e-15 -26.9913 113.365)
(1.09184e-16 -29.2803 104.881)
(-6.88479e-15 -17.2586 71.6386)
(-1.33781e-14 5.29902 19.967)
(-1.31717e-14 11.1931 6.52786)
(-1.04447e-14 1.91921 8.84934)
(-4.76037e-15 -7.19318 8.92259)
(-1.33013e-15 -5.6956 8.98025)
(-5.4082e-16 -0.460602 5.38799)
(-1.92201e-15 6.75613 -0.10914)
(-2.09336e-15 11.1962 -8.28251)
(-1.32282e-15 18.6033 -7.87895)
(1.3704e-15 12.5015 -24.5244)
(1.36822e-14 -22.514 41.1472)
(-1.45315e-14 11.7065 53.7959)
(-1.88073e-14 3.77576 51.5843)
(-1.90636e-14 -10.6751 68.5195)
(-1.4899e-14 -15.6127 83.653)
(-1.06928e-14 -21.6475 95.6994)
(-8.34091e-15 -25.5465 98.5067)
(-9.55286e-15 -18.3573 79.1991)
(-1.35467e-14 1.50241 33.6246)
(-1.51277e-14 13.7508 5.58462)
(-1.39789e-14 11.2357 8.06305)
(-1.18752e-14 2.31349 4.45362)
(-7.56901e-15 -7.19119 -2.97484)
(-4.74104e-15 -4.71042 -3.48296)
(-3.58307e-15 1.08341 -7.26186)
(-3.44564e-15 7.99653 -9.14177)
(-2.93692e-15 11.6549 -12.7171)
(-1.93734e-15 18.1874 -9.93133)
(5.00488e-16 12.4451 -15.2792)
(1.87414e-14 -26.0253 37.3817)
(-8.94796e-15 10.9109 47.1714)
(-1.70856e-14 1.25218 40.5576)
(-2.24549e-14 -16.8442 54.1219)
(-2.10686e-14 -20.9493 69.2014)
(-1.86743e-14 -23.8416 80.4722)
(-1.66223e-14 -20.3343 77.2139)
(-1.59945e-14 -3.64147 46.7075)
(-1.6381e-14 13.0495 11.8311)
(-1.56936e-14 14.8999 9.863)
(-1.42862e-14 11.8523 6.76076)
(-1.25959e-14 6.65476 1.93672)
(-1.07746e-14 -3.92106 -9.39979)
(-7.81351e-15 -4.21633 -12.0942)
(-5.95098e-15 1.62253 -13.9766)
(-4.96359e-15 8.66666 -13.5819)
(-4.12762e-15 11.8501 -15.0254)
(-2.05317e-15 18.1813 -9.71842)
(-2.89958e-16 15.0143 -10.5971)
(2.31838e-14 -28.4736 34.1597)
(-2.06358e-15 11.6707 40.742)
(-1.27423e-14 0.845015 30.6136)
(-2.28481e-14 -21.8809 40.5279)
(-2.39608e-14 -26.3736 54.781)
(-2.32263e-14 -24.9731 64.4672)
(-2.11033e-14 -12.3109 55.3076)
(-1.84425e-14 7.94169 23.1705)
(-1.73055e-14 16.1728 11.7918)
(-1.61385e-14 15.9601 9.79132)
(-1.44463e-14 13.8039 4.92462)
(-1.27076e-14 9.20037 1.30353)
(-1.12259e-14 -0.732118 -6.98952)
(-9.76434e-15 -2.71284 -14.3091)
(-7.95105e-15 1.7715 -16.9253)
(-6.14996e-15 8.30444 -14.9117)
(-4.59418e-15 10.5638 -13.7613)
(-1.49421e-15 16.0051 -7.85385)
(6.33879e-17 14.5327 -8.34056)
(2.65271e-14 -30.3561 31.3745)
(4.79332e-15 12.8054 34.7717)
(-7.03579e-15 -0.0862481 23.9447)
(-2.12052e-14 -26.7118 28.319)
(-2.45462e-14 -30.2459 42.3127)
(-2.52367e-14 -23.9404 51.5481)
(-2.27807e-14 -4.14812 38.9052)
(-1.93703e-14 13.9512 16.401)
(-1.7949e-14 18.2146 12.6596)
(-1.63422e-14 17.1996 8.54375)
(-1.45953e-14 14.9769 4.45368)
(-1.27857e-14 10.7632 1.11803)
(-1.08283e-14 1.89264 -4.31805)
(-9.70119e-15 -1.06194 -11.1755)
(-8.25892e-15 1.8182 -13.2667)
(-6.07766e-15 7.42936 -11.3173)
(-3.85237e-15 9.45105 -10.4658)
(-9.05321e-16 15.3621 -6.38564)
(2.21322e-16 14.9501 -7.42595)
(2.9529e-14 -30.7418 30.3637)
(9.98724e-15 15.0481 29.6591)
(-1.69918e-15 6.02576 22.0263)
(-1.6921e-14 -29.2482 17.8949)
(-2.15334e-14 -36.1075 26.103)
(-2.33844e-14 -24.4192 34.7486)
(-2.23427e-14 3.30409 26.0715)
(-2.00756e-14 17.9017 16.2869)
(-1.82356e-14 20.6389 12.0361)
(-1.64773e-14 19.7225 8.16602)
(-1.46947e-14 17.3596 4.44352)
(-1.2812e-14 13.3539 1.33804)
(-1.0582e-14 5.28841 -2.28419)
(-8.83006e-15 0.842355 -6.28608)
(-7.30135e-15 2.5052 -8.27647)
(-5.27412e-15 7.36329 -8.55414)
(-3.30391e-15 8.5978 -9.2476)
(-6.46143e-16 14.5393 -6.04234)
(2.13283e-16 13.5265 -7.92986)
(-7.42171e-15 118.725 205.531)
(-5.62696e-14 149.045 253.696)
(-4.10693e-14 147.549 246.809)
(-3.83932e-14 139.795 230.369)
(-3.74282e-14 130.964 212.159)
(-3.48418e-14 121.034 194.272)
(-2.09257e-14 109.904 174.292)
(-1.11212e-14 98.8762 157.42)
(6.4173e-15 86.2968 136.82)
(2.83695e-14 72.0106 114.538)
(4.828e-14 57.6435 91.8548)
(6.9793e-14 44.9973 72.1459)
(8.56248e-14 35.9298 59.0469)
(8.44991e-14 32.2752 55.627)
(5.26763e-14 36.8273 65.6253)
(1.18238e-14 49.928 89.6852)
(-1.58617e-14 69.404 122.262)
(-2.63333e-14 86.3374 153.754)
(-3.23243e-14 96.4159 163.485)
(-4.43181e-14 71.0904 130.412)
(-8.20709e-15 99.3912 170.642)
(-6.06032e-14 124.816 223.145)
(-4.08611e-14 125.768 220.923)
(-4.42664e-14 116.246 207.31)
(-4.67727e-14 106.103 187.715)
(-6.04018e-14 94.6612 169.298)
(-4.34551e-14 85.0977 152.329)
(-3.54951e-14 75.645 136.054)
(-2.74873e-14 67.0909 120.366)
(-2.01598e-14 59.2587 104.798)
(-1.76788e-14 52.7296 89.9604)
(-1.54047e-14 47.9668 76.989)
(-2.33652e-14 45.4002 67.5459)
(-2.85972e-14 46.9625 65.99)
(-4.53861e-14 54.8082 76.048)
(-6.41272e-14 67.5609 97.6579)
(-6.99555e-14 83.3545 125.099)
(-6.14457e-14 94.3172 150.625)
(-5.22503e-14 97.2626 157.537)
(-6.64459e-14 73.5155 128.934)
(-3.8817e-16 96.4479 164.504)
(-1.74147e-14 135.6 237.786)
(-1.19368e-14 141.423 239.98)
(-1.40394e-14 133.462 226.56)
(-1.49818e-14 124.595 206.893)
(-4.12296e-14 114.198 187.312)
(-3.51559e-14 105.908 170.164)
(-2.89279e-14 99.2714 156.34)
(-3.16539e-14 94.0682 144.4)
(-3.70253e-14 89.5148 133.209)
(-4.16139e-14 85.2549 121.916)
(-4.17726e-14 80.985 110.175)
(-4.26249e-14 76.7956 98.2513)
(-4.6519e-14 73.1456 87.8976)
(-5.16197e-14 71.3003 82.0872)
(-5.50005e-14 71.9288 83.9677)
(-5.38338e-14 74.9973 93.3296)
(-4.83524e-14 77.2785 105.615)
(-4.06231e-14 73.3573 109.281)
(-5.18409e-14 52.0067 83.5198)
(5.5563e-16 97.4012 163.831)
(5.5491e-15 143.758 247.959)
(3.98983e-15 148.581 249.489)
(4.14861e-15 139.359 233.471)
(5.69726e-15 129.137 213.242)
(-1.79441e-14 118.692 193.773)
(-2.33991e-14 110.055 176.887)
(-2.27051e-14 102.997 162.703)
(-2.36358e-14 97.0042 150.488)
(-2.68094e-14 91.6 139.396)
(-3.20934e-14 86.4305 128.883)
(-3.43045e-14 81.3399 118.555)
(-3.66722e-14 76.1812 108.098)
(-3.9332e-14 70.9387 97.3589)
(-3.89139e-14 65.6257 86.8758)
(-4.23153e-14 60.8827 77.9817)
(-4.35517e-14 56.4222 72.3429)
(-4.77754e-14 52.4438 68.7128)
(-4.541e-14 43.1648 62.2632)
(-6.72677e-14 22.6473 29.4911)
(-1.53584e-16 104.504 175.401)
(-1.10682e-15 155.252 264.278)
(-8.62788e-16 156.161 260.757)
(-7.99332e-16 145.133 241.055)
(-1.29304e-15 133.957 220.157)
(4.7566e-15 123.972 201.224)
(6.30045e-15 115.783 185.318)
(5.37356e-15 108.951 171.355)
(5.34492e-15 102.6 158.468)
(6.09037e-15 96.3587 145.984)
(6.96314e-15 89.9925 133.788)
(6.96306e-15 83.5508 121.933)
(6.76213e-15 77.0202 110.547)
(6.32775e-15 70.5166 99.5041)
(5.73897e-15 63.6771 88.5982)
(5.37289e-15 56.6683 77.2328)
(5.57936e-15 48.3061 65.4749)
(6.66077e-15 39.5604 51.9278)
(8.6243e-15 24.2078 33.9006)
(1.36968e-14 5.94705 -0.801388)
(2.30883e-17 118.544 198.297)
(1.53749e-16 167.982 281.084)
(1.25484e-16 162.478 269.473)
(1.05466e-16 150.946 247.193)
(1.90173e-16 140.081 227.423)
(-7.90586e-16 131.888 210.007)
(-1.04171e-15 124.852 195.348)
(-8.50715e-16 118.795 181.357)
(-7.89889e-16 112.374 167.388)
(-8.31666e-16 105.443 152.821)
(-8.48126e-16 97.7968 137.825)
(-7.24444e-16 89.6093 122.622)
(-5.18724e-16 80.9257 107.554)
(-2.43796e-16 71.9513 92.7412)
(8.06627e-17 62.3967 78.3076)
(4.33829e-16 52.5572 63.6725)
(7.24627e-16 40.965 48.4658)
(8.02171e-16 28.6966 29.9463)
(3.27705e-16 6.89776 4.37007)
(5.99485e-15 -8.2087 -32.9594)
(-2.00331e-18 140.638 239.575)
(-1.41482e-17 178.863 296.798)
(-1.03453e-17 165.214 277.413)
(-6.86529e-18 155.702 256.241)
(-1.58857e-17 146.049 240.224)
(9.73585e-17 140.696 226.105)
(1.23573e-16 135.048 213.918)
(9.51184e-17 129.793 199.987)
(7.58042e-17 122.554 184.306)
(6.27115e-17 114.163 166.643)
(4.15548e-17 104.486 148.068)
(3.95465e-18 94.1458 128.989)
(-4.86203e-17 83.0512 109.781)
(-1.20674e-16 71.3193 90.3869)
(-2.21215e-16 58.4936 70.9448)
(-3.60054e-16 44.8649 50.8909)
(-5.45964e-16 29.0153 30.7235)
(-7.20537e-16 13.6057 8.08406)
(-7.30358e-16 -11.5376 -18.897)
(6.18906e-16 -21.7239 -57.9934)
(-2.69725e-20 156.653 275.104)
(2.58438e-19 174.693 294.355)
(-4.40956e-19 157.243 275.981)
(-8.60551e-19 150.696 259.792)
(-6.67971e-20 140.975 248.371)
(-1.25227e-17 136.947 238.127)
(-1.32744e-17 130.236 228.565)
(-8.22173e-18 122.907 213.693)
(-3.95773e-18 111.21 194.82)
(4.24596e-19 98.353 172.718)
(5.86624e-18 84.0235 150.028)
(1.25047e-17 69.5855 126.669)
(2.31193e-17 54.1867 102.515)
(4.77967e-17 37.9152 76.8384)
(1.00509e-16 20.6102 49.7232)
(1.61579e-16 1.95196 20.4309)
(3.27448e-17 -15.2714 -7.05234)
(-4.51952e-16 -24.9262 -26.675)
(-7.93986e-16 -43.7472 -50.9961)
(-6.48256e-16 -32.78 -62.0295)
(8.41683e-20 152.156 273.277)
(3.34491e-19 157.383 272.624)
(4.49986e-19 142.785 260.26)
(4.87182e-19 135.411 246.003)
(4.78907e-19 124.754 236.309)
(1.01629e-18 118.923 227.443)
(2.70074e-19 109.277 217.518)
(-9.31181e-19 97.6758 200.572)
(-2.38477e-18 81.6485 178.865)
(-4.44556e-18 65.1873 154.776)
(-7.303e-18 48.2329 131.151)
(-9.56642e-18 31.5554 107.336)
(-5.743e-18 14.3255 82.9975)
(1.10192e-17 -2.68021 58.265)
(3.33485e-17 -18.253 34.6955)
(1.90649e-17 -30.2838 14.089)
(-8.73513e-17 -35.8804 -0.727668)
(-2.64122e-16 -29.5724 -2.9322)
(-3.69095e-16 -9.20631 13.8042)
(-2.18594e-16 10.2224 33.026)
(-3.44934e-20 135.6 243.536)
(-1.13078e-19 146.56 255.674)
(-1.27238e-19 130.13 237.708)
(-1.11138e-19 120.448 219.158)
(1.43867e-21 108.65 208.973)
(2.20029e-19 101.33 197.942)
(5.76664e-19 89.6993 187.009)
(1.01758e-18 77.3889 170.207)
(1.20059e-18 61.5312 149.767)
(5.52525e-20 45.8232 126.784)
(-2.64446e-18 29.9703 103.862)
(-1.83246e-18 15.2083 81.3127)
(1.22857e-17 2.08976 60.7558)
(3.88129e-17 -6.93864 45.1291)
(5.34848e-17 -8.32757 39.9109)
(3.18135e-17 2.06829 51.5364)
(-1.19912e-17 25.0252 81.4088)
(-3.25674e-17 54.3789 118.894)
(-8.4702e-18 76.9203 140.893)
(2.02714e-17 58.9994 112.949)
(8.91125e-21 128.706 228.999)
(2.48726e-20 149.874 253.7)
(2.60993e-20 130.346 230.561)
(1.5273e-20 122.48 205.883)
(-3.49743e-20 109.658 193.89)
(-1.17532e-19 104.167 177.509)
(-1.81678e-19 93.1202 165.251)
(-1.72186e-19 85.6269 149.953)
(-4.23517e-20 75.3648 135.131)
(-5.70367e-20 66.7879 118.374)
(-7.80785e-19 58.1385 102.24)
(-1.81844e-18 51.9408 87.7462)
(-1.12156e-18 48.5296 77.5389)
(2.87532e-18 48.7437 73.0004)
(8.72403e-18 53.2199 75.6732)
(1.2347e-17 61.3054 86.0723)
(1.18949e-17 71.6953 101.388)
(9.68932e-18 77.9883 116.519)
(7.43059e-18 77.0701 118.612)
(2.11394e-18 54.5107 93.8493)
(-1.71437e-21 129.891 231.937)
(-4.49465e-21 158.635 263.87)
(-4.34037e-21 135.278 238.344)
(-9.80703e-22 129.893 212.989)
(1.24823e-20 117.189 201.368)
(3.28762e-20 113.536 184.946)
(4.30568e-20 104.182 172.797)
(3.32178e-20 98.992 158.834)
(-8.96826e-21 92.3486 147.19)
(-4.57522e-20 87.5172 135.704)
(4.55475e-20 82.7942 124.947)
(3.04575e-19 78.6603 114.281)
(4.42956e-19 74.6877 103.636)
(-7.17855e-21 70.7266 93.3057)
(-1.30523e-18 66.9665 84.3009)
(-3.44347e-18 63.73 78.2781)
(-6.18329e-18 60.9627 75.9761)
(-8.66752e-18 57.6453 75.4323)
(-9.02361e-18 49.1737 70.2178)
(-5.16081e-18 29.0867 42.4502)
(2.56645e-22 134.778 241.379)
(6.22833e-22 164.46 269.793)
(4.70755e-22 137.394 243.577)
(-3.2114e-22 134.848 219.073)
(-3.19198e-21 121.356 208.357)
(-7.22645e-21 118.598 192.045)
(-8.19398e-21 109.321 180.36)
(-4.70104e-21 104.205 166.408)
(4.22894e-21 97.2139 154.175)
(1.29593e-20 91.3981 141.791)
(5.155e-21 85.4381 130.202)
(-2.79343e-20 79.8251 119.071)
(-5.43097e-20 74.3039 108.43)
(-6.55372e-21 68.9041 98.0718)
(1.63455e-19 63.2135 87.8442)
(4.79727e-19 57.255 77.2945)
(1.01518e-18 49.7266 66.3391)
(1.91121e-18 41.2962 53.6524)
(3.03214e-18 26.7291 36.9209)
(4.16144e-18 7.76627 2.54927)
(-2.57326e-23 142.202 258.071)
(-2.58117e-23 168.072 271.442)
(6.03995e-23 138.461 249.259)
(2.44338e-22 140.373 225.836)
(7.31741e-22 124.749 216.316)
(1.26421e-21 123.572 199.135)
(1.03541e-21 113.229 187.925)
(-4.07156e-23 108.901 173.722)
(-1.72878e-21 101.699 161.804)
(-2.84058e-21 96.2287 149.146)
(-1.68054e-21 90.1721 137.033)
(1.28928e-21 84.3241 124.661)
(1.47381e-21 78.04 112.114)
(-6.8862e-21 71.3071 99.045)
(-2.4147e-20 63.4086 85.381)
(-4.71516e-20 54.4284 70.3461)
(-8.65891e-20 42.7948 53.7382)
(-1.69156e-19 30.2339 33.8372)
(-4.60981e-19 8.92132 8.36573)
(1.07488e-18 -6.57141 -28.2578)
(-1.87799e-24 149.005 276.382)
(-2.20347e-23 169.508 270.348)
(-4.01752e-23 139.412 256.05)
(-7.16575e-23 145.551 233.67)
(-1.51887e-22 127.699 225.519)
(-1.85315e-22 128.481 208.193)
(3.87149e-23 117.274 198.023)
(5.89947e-22 114.259 184.229)
(1.35346e-21 107.238 173.325)
(1.89804e-21 102.88 161.464)
(1.75879e-21 97.5278 150.145)
(9.59169e-22 92.2809 137.723)
(-8.15686e-23 85.6345 123.678)
(-1.44588e-21 77.0492 106.726)
(-4.49063e-21 65.2827 86.712)
(-1.05021e-20 51.3003 63.9522)
(-1.91532e-20 34.3085 40.2625)
(-2.23517e-20 18.0789 14.6451)
(-1.12087e-19 -8.93576 -15.0762)
(2.62861e-20 -20.0406 -52.7586)
(1.76674e-24 150.435 286.094)
(1.7152e-23 166.51 264.993)
(3.77652e-23 137.283 258.629)
(4.603e-23 145.035 237.069)
(2.33594e-23 125.577 230.156)
(4.76416e-25 126.914 213.629)
(8.41771e-23 114.854 204.851)
(3.59853e-22 112.268 192.306)
(6.94622e-22 104.832 183.068)
(6.69135e-22 100.755 172.659)
(-3.66747e-22 94.8817 162.496)
(-2.99685e-21 88.5426 149.685)
(-7.43487e-21 78.744 132.239)
(-1.41185e-20 64.1769 107.166)
(-2.39775e-20 44.4944 75.6368)
(-3.49993e-20 24.2509 43.3834)
(-3.97223e-20 2.97702 13.0847)
(8.84201e-22 -8.46718 -14.775)
(-5.06403e-20 -32.051 -38.2957)
(-1.17242e-19 -31.5053 -69.4711)
(-1.05547e-24 143.777 279.342)
(-2.22377e-24 160.448 255.591)
(9.4555e-25 130.527 251.225)
(-1.02871e-23 137.048 230.552)
(-3.44553e-23 118.583 223.382)
(9.16097e-24 117.329 208.471)
(2.45701e-22 106.369 199.438)
(6.97648e-22 101.775 188.206)
(1.09888e-21 94.3602 179.236)
(8.69627e-22 88.832 169.607)
(-6.27019e-22 81.7786 159.336)
(-3.68666e-21 73.1408 145.263)
(-8.64677e-21 59.9927 123.953)
(-1.78604e-20 41.5473 93.0283)
(-3.46229e-20 21.5632 58.8789)
(-5.81721e-20 6.81129 32.8725)
(-9.00059e-20 -5.77494 9.23636)
(-1.20034e-19 -22.4665 -21.2124)
(-1.20708e-19 -32.7769 -38.5236)
(-8.59859e-20 -20.369 -26.5452)
(5.12691e-25 131.668 269.098)
(4.04957e-24 155.062 243.742)
(6.69964e-24 119.434 241.584)
(-4.52713e-24 126.289 221.637)
(-2.83599e-23 108.016 214.349)
(-3.62225e-24 104.875 200.662)
(1.70238e-22 94.6469 191.224)
(5.13596e-22 88.7797 180.489)
(8.44487e-22 81.5152 171.156)
(7.88905e-22 75.332 161.55)
(-2.03358e-23 68.4748 151.377)
(-1.6871e-21 60.6959 138.751)
(-4.31826e-21 50.9999 121.931)
(-9.38681e-21 39.8799 100.513)
(-2.10706e-20 29.3746 77.1419)
(-4.47341e-20 21.0987 55.503)
(-8.2819e-20 13.9659 35.6373)
(-1.30991e-19 6.52041 13.6294)
(-1.83306e-19 -3.24727 -11.3966)
(-1.86856e-19 6.20358 16.7646)
(-9.29776e-26 107.876 253.151)
(-6.19944e-25 147.735 223.584)
(-1.95486e-24 107.114 226.507)
(-8.57994e-24 113.314 211.058)
(-1.83699e-23 97.1777 205.225)
(-3.65566e-24 92.3847 195.41)
(8.84573e-23 83.3437 187.761)
(2.96804e-22 77.006 179.523)
(5.95904e-22 70.283 171.884)
(8.81134e-22 64.4562 164.277)
(9.85915e-22 58.9049 156.809)
(7.3255e-22 53.8951 149.255)
(8.05897e-23 49.4076 141.425)
(-6.84882e-22 45.4709 132.741)
(-1.17133e-21 41.8196 122.268)
(-1.81038e-21 37.8352 108.937)
(-4.90918e-21 32.1207 91.2789)
(-1.45863e-20 23.3863 65.8498)
(-3.25468e-20 10.955 28.4001)
(-4.27574e-20 -3.06075 -12.2044)
(1.36817e-25 35.8141 158.068)
(1.47534e-25 78.5366 130.514)
(-5.58175e-25 52.8384 138.559)
(-2.69876e-24 52.847 134.37)
(-6.91677e-24 44.4781 134.251)
(-1.00538e-23 40.2467 132.493)
(2.85605e-25 35.3939 131.105)
(4.54458e-23 31.6694 129.385)
(1.45462e-22 28.4034 127.618)
(3.05484e-22 25.8477 125.762)
(5.13739e-22 23.8975 123.849)
(7.55176e-22 22.5455 121.795)
(1.02165e-21 21.7128 119.473)
(1.30251e-21 21.3762 116.791)
(1.57884e-21 21.73 113.684)
(1.85087e-21 22.8556 110.251)
(2.14766e-21 24.4384 106.665)
(2.40267e-21 28.5557 100.596)
(2.20464e-21 31.5403 88.3904)
(9.52722e-22 7.00034 65.0808)
(-8.93123e-26 -35.8262 158.089)
(-1.37577e-25 -78.5417 130.54)
(-2.62115e-25 -52.8434 138.585)
(1.48291e-25 -52.8486 134.399)
(2.0872e-24 -44.4785 134.281)
(5.07801e-24 -40.2461 132.524)
(4.33739e-24 -35.3938 131.139)
(-9.53571e-24 -31.6709 129.422)
(-4.62084e-23 -28.4072 127.657)
(-1.10338e-22 -25.8534 125.801)
(-2.02337e-22 -23.9023 123.881)
(-3.2292e-22 -22.5443 121.81)
(-4.68802e-22 -21.7013 119.465)
(-6.20786e-22 -21.3543 116.762)
(-7.44825e-22 -21.702 113.644)
(-7.95133e-22 -22.8275 110.215)
(-6.79191e-22 -24.4148 106.652)
(-2.74398e-22 -28.5338 100.618)
(2.86902e-22 -31.5005 88.4423)
(3.6577e-22 -6.99142 65.0753)
(3.90849e-25 -107.878 253.176)
(2.02949e-25 -147.779 223.586)
(7.17916e-25 -107.139 226.505)
(3.6053e-24 -113.366 211.037)
(8.29672e-24 -97.2323 205.192)
(7.26023e-24 -92.4576 195.361)
(-1.56098e-23 -83.4297 187.695)
(-7.61169e-23 -77.1098 179.439)
(-1.74429e-22 -70.4051 171.78)
(-2.80279e-22 -64.6008 164.156)
(-3.24181e-22 -59.0816 156.683)
(-2.21456e-22 -54.12 149.145)
(4.25294e-23 -49.6931 141.351)
(3.69495e-22 -45.8106 132.706)
(7.543e-22 -42.1887 122.28)
(1.45267e-21 -38.2043 109.016)
(2.12175e-21 -32.4496 91.4375)
(1.32105e-22 -23.6159 66.0569)
(-7.79631e-21 -11.0546 28.4183)
(-1.66812e-20 3.23278 -13.1032)
(-1.84758e-24 -131.605 268.998)
(-1.07375e-24 -155.036 243.571)
(1.86889e-24 -119.366 241.417)
(9.01136e-24 -126.261 221.417)
(1.64805e-23 -107.961 214.115)
(5.9013e-24 -104.836 200.39)
(-4.92633e-23 -94.5956 190.927)
(-1.52885e-22 -88.7305 180.157)
(-2.50334e-22 -81.4557 170.792)
(-2.25329e-22 -75.2635 161.143)
(5.88983e-23 -68.3894 150.922)
(7.4426e-22 -60.6059 138.251)
(2.18161e-21 -50.973 121.473)
(5.21651e-21 -40.0778 100.322)
(1.02464e-20 -29.9519 77.5005)
(1.39623e-20 -22.0841 56.5486)
(8.65581e-21 -15.3427 37.3238)
(-2.88328e-21 -8.22412 15.8696)
(3.24895e-20 2.18779 -10.4107)
(6.5988e-21 -7.2835 17.4031)
(7.24874e-24 -143.629 279.018)
(4.64785e-24 -160.23 255.331)
(3.03982e-24 -130.339 250.919)
(7.60399e-24 -136.801 230.275)
(1.27363e-23 -118.355 223.094)
(-5.67306e-24 -117.043 208.2)
(-8.44628e-23 -106.081 199.158)
(-2.28908e-22 -101.428 187.939)