/*--------------------------------*- C++ -*----------------------------------*\
| =========                 |                                                 |
| \\      /  F ield         | OpenFOAM: The Open Source CFD Toolbox           |
|  \\    /   O peration     | Version:  4.1                                   |
|   \\  /    A nd           | Web:      www.OpenFOAM.org                      |
|    \\/     M anipulation  |                                                 |
\*---------------------------------------------------------------------------*/
FoamFile
{
    version     2.0;
    format      ascii;
    class       volScalarField;
    location    "14";
    object      p;
}
// * * * * * * * * * * * * * * * * * * * * * * * * * * * * * * * * * * * * * //

dimensions      [0 2 -2 0 0 0 0];

internalField   nonuniform List<scalar> 
1280
(
-96.1666
-61.4669
-98.7885
-195.415
-116.534
-196.683
-289.525
-314.923
-281.471
-351.093
-528.144
-440.536
-568.974
-854.166
-717.129
-1005.84
-1427.45
-1644.57
-1219.32
-3756.72
-1080.33
1258
2191.07
2568.74
2697.93
3478.5
-307.951
195.922
366.64
-164.077
-455.16
-777.497
-1164.08
-1558.88
-1971.47
-2345.32
-2714.9
-2855.4
-3098.35
-3035.16
2035.3
-853.077
-971.572
-574.995
660.864
178.078
192.721
136.762
71.9313
92.222
29.9314
-188.143
-14.5463
-93.5271
-250.499
198.287
-965.353
-1336.94
-1701.86
-1137.74
-3563.83
-2757.78
-2395.52
-1981.95
-1647.75
-1351.89
-1095.35
-876.894
-691.15
-573.505
-440.66
-60.0886
-704.307
1605.03
1796.11
1616.73
1829.62
1472.13
545.617
-957.599
-2186.78
-867.555
-758.282
-599.469
-420.886
-251.593
-227.415
-136.839
-80.4793
-72.5257
-32.6728
-7.96319
2.06162
7.4146
20.6369
23.0479
21.8913
23.0916
14.4212
9.18138
-29.2062
-425.919
-249.784
-196.104
-174.699
-99.8266
-16.738
75.067
171.579
250.638
18.2427
13.6531
-91.1327
-139.306
-176.345
-49.6715
30.2405
24.9351
18.8785
19.9571
-381.112
-258.253
-202.397
-157.102
-14.9735
134.66
295.452
445.412
593.185
177.228
148.219
-215.413
-493.829
-572.593
-244.134
-7.77869
25.3716
48.201
-180.144
-355.697
-336.203
-221.427
-169.214
-1.038
173.85
363.242
536.179
717.812
350.093
189.574
-406.687
-904.384
-971.055
-365.079
16.913
39.0445
71.914
-326.676
-368.108
-485.493
-272.617
-209.35
-2.28727
211.845
446.05
655.701
752.917
470.546
237.907
-451.668
-1097.53
-1176.9
-473.799
56.7428
79.4499
112.796
-469.371
-385.643
-650.114
-324.32
-245.254
1.35159
252.598
535.256
817.391
750.112
561.088
259.046
-423.302
-1155.11
-1216.86
-519.54
86.7231
101.147
126.995
-546.013
-411.474
-787.669
-388.409
-284.483
-4.20367
278.23
608.557
959.616
761.126
1006.7
484.225
-279.46
-1121.74
-1185.89
-483.084
213.158
277.124
202.182
-595.478
-466.76
-898.508
-462.671
-326.479
-18.7783
291.156
654.502
1033.88
746.033
1094.65
739.308
-172.139
-990.203
-1102.89
-468.942
210.767
271.095
61.7286
-620.172
-536.57
-974.655
-535.283
-367.58
-41.1322
292.074
693.422
1170.42
833.563
881.736
505.29
-121.017
-807.937
-934.756
-317.633
522.444
673.15
382.277
-632.592
-591.012
-994.469
-593.426
-403.187
-71.8053
273.067
663.754
1053.06
823.146
813.574
433.377
-83.9827
-565.284
-646.83
-169.358
505.81
1200.7
3326.12
-628.887
-592.752
-939.082
-627.944
-429.159
-108.703
234.408
594.823
891.894
668.358
513.885
228.646
-82.0793
-337.296
-328.05
76.1023
649.89
1184.75
2236.5
-600.766
-509.684
-819.658
-632.088
-442.862
-147.273
179.439
493.271
699.406
407.414
187.293
7.86585
-82.0725
-145.533
-84.9861
191.466
559.544
1102.8
2585.11
-541.658
-349.7
-682.172
-593.637
-439.215
-180.057
113.356
371.777
480.174
95.2153
-61.1386
-94.768
-23.6423
3.36358
172.121
361.552
513.401
1039.15
2959.63
-452.108
-164.047
-534.26
-498.676
-416.912
-204.681
47.2198
250.118
255.3
-158.614
-176.256
-65.3021
86.8412
94.4412
276.404
384.037
299.307
65.9635
30.4381
-352.953
-16.8201
-362.033
-347.578
-337.84
-187.383
5.40206
146.717
51.2726
-247.425
-238.945
-9.08753
112.954
127.788
214.813
153.825
-101.182
-350.967
-268.943
-251.261
63.3787
-206.146
-191.782
-205.142
-98.7909
37.5546
104.654
-71.3492
-169.443
-234.497
48.8029
84.7963
91.5627
145.865
124.527
12.5448
-188.206
-250.942
-169.942
92.75
-89.477
-73.5086
-89.131
-5.89293
83.3312
56.4418
-131.878
-169.68
-158.979
23.1311
75.3163
76.1327
94.626
60.1724
-42.1742
-150.409
-162.753
-87.6435
96.3655
-25.4537
-14.9037
-23.272
43.1028
84.2156
8.51362
-51.7341
-189.074
-107.84
14.5773
64.9122
63.242
60.5474
24.0634
-29.1374
-81.1577
-111.202
-39.7171
76.4994
11.9837
6.3804
-13.0798
36.3963
48.1858
-15.3572
-46.7628
-109.448
-81.4632
12.8122
50.4589
49.7157
36.4359
9.7813
-19.9424
-63.2423
-100.055
6.04681
52.3273
-4.82163
-8.6789
5.76216
40.1837
23.0675
10.3124
-43.0976
-82.9328
-60.5892
4.97494
36.122
35.1002
23.2656
8.3036
-8.47098
-34.2668
-73.9274
1.98746
13.1716
25.5635
-2.96821
-44.1478
-27.3819
2.77548
2.22326
-23.2197
-59.1711
-48.3655
-9.6275
9.71843
12.5001
9.9769
4.08099
-2.63369
-24.4709
-22.8869
5095.75
4838.76
4720.5
4337.69
3964.43
3528.65
3047.76
2563
2118.89
1729.19
1395.62
1121.52
900.185
730.453
597.239
482.072
375.376
281.868
135.968
45.4607
5426.35
4969.74
4728.76
4322.11
3964.42
3534.4
3118.55
2694.58
2303.34
1948.13
1649.82
1415.68
1255.85
1171.16
1154.72
1175.97
1197.18
1256.21
1310.53
1053.85
11585.4
11538.8
11500.2
11475.2
11403.6
11303.9
11136.7
10911.6
10603.2
10200.4
9684.35
9052
8324.37
7563.13
6868.33
6340.09
6010.59
5832.35
5835.83
5524.34
7747.35
7941.05
8033.85
8200.7
8326.44
8481.13
8622.98
8768.71
8901.02
9011.17
9078.5
9080.88
8999.97
8825.88
8582.41
8313.06
8134.43
8041.25
8054.86
7960.5
7676.94
7810.86
7838.62
7933.95
7980.98
8044.84
8096.13
8145.64
8192.48
8237.69
8287.63
8345.4
8416.2
8499.12
8594
8693.52
8790.33
8882.45
8939.3
9001.93
5534.85
5736.33
5797.07
5928.81
6022.18
6124.87
6224.81
6319.09
6414.47
6504.89
6594.13
6681.82
6769.16
6860.46
6955.03
7062.35
7168.82
7297.43
7387.2
7528.01
4205.11
4420.85
4510.94
4644.21
4763.32
4880.06
5009.09
5123.1
5244.38
5356.67
5467.25
5573.49
5674.67
5774.55
5868.59
5967.71
6055.77
6162.79
6232.98
6345.14
1636.19
1822.86
1969.07
2083.26
2240.14
2368.69
2550.08
2702.88
2889.69
3069.68
3262.57
3458.31
3655.05
3853.29
4043.67
4237.6
4412.43
4615.3
4766.39
5027.55
-587.389
-754.944
-718.955
-853.266
-891.123
-1023.79
-1076.36
-1202
-1267.87
-1342.93
-1357.81
-1327.58
-1236.08
-1087.54
-891.438
-648.605
-401.5
-126.258
71.3526
448.204
1750.49
1307.84
1209.25
885.732
691.167
364.496
109.182
-244.235
-566.855
-932.933
-1267.48
-1592.75
-1873.6
-2105.87
-2263.42
-2342.74
-2335.08
-2255.82
-2242
-2093.2
6171.49
5803.64
5721.27
5435.97
5313.68
5047.38
4894.74
4656.37
4487.4
4290.35
4142.6
3998.26
3884.25
3778.96
3692.3
3611.12
3535.38
3528.54
3489.88
3138.18
8728.78
8703.5
8761.09
8692.27
8787.76
8701.82
8753.35
8654.18
8609.57
8463.4
8304.89
8073.96
7803.87
7490.92
7177.23
6905.82
6706
6586.86
6581.24
6366.17
6845.68
6976.01
7113.65
7129.18
7331.56
7352.22
7539.81
7617.06
7776.81
7887.39
8008.32
8087.24
8127.58
8100.33
8009.88
7872.57
7770.84
7734.56
7769.83
7767.85
5799.98
5893.78
6077.28
6028.79
6265.15
6233.36
6413.97
6446.94
6566.66
6638.98
6730.24
6815.26
6905.21
7001.11
7098.87
7199.25
7291.52
7397.7
7474.28
7576.49
3590.76
3636.11
3894.02
3815.46
4120.84
4079.96
4315.89
4368.24
4535.39
4647.69
4788.05
4922.71
5061.54
5206.49
5352.66
5512.21
5665.03
5842.31
5970.18
6172.5
1856.33
1680.24
1877.64
1638.48
1860.45
1685.43
1824.15
1760.86
1832.81
1841.47
1891.78
1934.05
1986.51
2048.21
2116.35
2217.41
2330.22
2505.05
2681.09
2958.76
3516.13
3114.68
3197.27
2660.66
2651.76
2229.87
2078.14
1768.74
1560.37
1313.09
1106.3
905.159
732.179
591.31
496.882
474.121
490.845
529.882
542.736
662.442
5912.02
5384.07
5892.42
5237.26
5354.36
4938.16
4766.51
4432.74
4148.45
3819.99
3495.58
3158.85
2826.27
2509.37
2235.37
2042.22
1949.74
1876.93
1801.57
1763.57
5642.02
3976.89
4746.31
3803.93
3757.07
3245.78
2967.71
2612.15
2337.91
2087.49
1898.39
1765.77
1703.45
1716.95
1823.14
2043.6
2343.21
2682.91
3040.57
3208.32
57608
51146.2
47712.4
43408.8
39816.4
36262
32988.7
29875.3
26945.8
24168.7
21534.5
19027.7
16636.6
14351.2
12183.5
10111.4
8056.04
6298.59
4577.41
1638.85
42512.4
36051.1
32617.8
28314.9
24723.2
21169.7
17897.4
14785
11856.4
9080.34
6447.04
3941.09
1550.83
-734.009
-2901.49
-4973.57
-7029.31
-8788.14
-10510.8
-13449.7
-9456.11
-11120.4
-10350.2
-11291.4
-11337.1
-11846.9
-12123.3
-12477
-12749.2
-12997.4
-13184.1
-13314.2
-13374.1
-13358.2
-13249.6
-13027.1
-12726.6
-12386.8
-12028.6
-11860.6
-9195.84
-9722.89
-9213.86
-9868.65
-9751.09
-10167.1
-10338.2
-10671.5
-10955
-11282.4
-11605.2
-11939.6
-12268.9
-12581.4
-12849.7
-13035.5
-13121.7
-13193.1
-13266.9
-13306.4
-11582.9
-11984.8
-11902.5
-12439.6
-12448.9
-12871.1
-13023.4
-13332.9
-13541.9
-13789.8
-13997.8
-14200.6
-14376
-14520.2
-14619.1
-14647.7
-14637.3
-14602.6
-14593.2
-14479
-13256.5
-13437.4
-13244.3
-13486.7
-13270.1
-13449
-13314.9
-13383.4
-13315.8
-13312.8
-13267.5
-13231.1
-13184.5
-13128.9
-13066.7
-12970.9
-12861.3
-12688.7
-12520.2
-12254.6
-11611.6
-11571.2
-11315.7
-11399.3
-11099.4
-11145.7
-10916.6
-10867.4
-10705.3
-10594.3
-10455.5
-10321
-10182.3
-10037.3
-9891.12
-9731.02
-9578.32
-9401.87
-9275.72
-9075.46
-9290.52
-9172.63
-9007.07
-9102.12
-8873.47
-8928.73
-8742.41
-8715.28
-8579.72
-8507.49
-8417.15
-8344.89
-8270.1
-8185.41
-8093.38
-7996.8
-7908.81
-7806.86
-7732.6
-7634.93
-8075.2
-8053.81
-7910.7
-8075.97
-7977.92
-8039.24
-7957.12
-7920.44
-7809.89
-7708.02
-7588.39
-7496.19
-7413.59
-7374.59
-7396.35
-7460.04
-7497.43
-7483.25
-7438.93
-7416.81
-7180.05
-7217.74
-7214.52
-7276.51
-7259.17
-7259.58
-7227.12
-7206.51
-7177.01
-7164.99
-7186.06
-7255.39
-7356.62
-7498.09
-7646.05
-7764.52
-7834.58
-7864.51
-7834.6
-7915.44
-7990.94
-8175.03
-8215.92
-8252.1
-8258.99
-8274.47
-8308.96
-8372.58
-8488.8
-8659.59
-8826.5
-8934.6
-8995.01
-9029.07
-9049.68
-9076.77
-9099.22
-9075.07
-9073.9
-9271.73
-10639.8
-10817.8
-10826.1
-10873.3
-10919.1
-10993.7
-11103.3
-11250.7
-11443.9
-11666.2
-11866.8
-12040.3
-12229.3
-12437.4
-12635.4
-12776.7
-12817.7
-12805.1
-12817.3
-12723.7
-11616.2
-11570.1
-11533.1
-11538
-11568.2
-11616.1
-11681.3
-11747.4
-11827.9
-11922.7
-11996.4
-12042.2
-12064.2
-12039
-11954.8
-11796.7
-11608.8
-11377.8
-11220.8
-10949.4
-9801.88
-9620.97
-9544.41
-9459.07
-9390.17
-9310.14
-9217.89
-9103.88
-9008.99
-8933.22
-8795.85
-8625.33
-8464.71
-8298.7
-8137.39
-7972.81
-7833.33
-7676.3
-7580.61
-7389.41
-8344.68
-8161.74
-8093.78
-7996.81
-7916.52
-7827.02
-7733.7
-7631.33
-7518.53
-7411.29
-7309.93
-7212.78
-7128.2
-7044.52
-6964.61
-6878.27
-6800.89
-6707.37
-6648.25
-6559.39
-6539.06
-6417.18
-6390.51
-6328.48
-6284.35
-6240.17
-6206.16
-6177.68
-6156.29
-6147.93
-6146.7
-6133.75
-6095.03
-6026.72
-5946.17
-5864.52
-5794.61
-5719.11
-5671.9
-5605.4
-6216.02
-6057.25
-5993.72
-5878.53
-5785.81
-5685.97
-5575.75
-5445.8
-5311.41
-5177.46
-5046.52
-4941.3
-4908.92
-4999.83
-5199.26
-5432.7
-5572.42
-5625.97
-5601.84
-5657.21
-2974.29
-3050.01
-3120.4
-3178.95
-3257.87
-3376.6
-3559.24
-3799.85
-4108.81
-4496.73
-4970.33
-5533.65
-6164.21
-6795.13
-7328.33
-7690.46
-7891.84
-7988.61
-7972.63
-8317.44
-8295.87
-8945.56
-9244.43
-9739.69
-10151.7
-10596.9
-11005.1
-11408.7
-11767.1
-12068.2
-12287.3
-12415.4
-12453
-12419.3
-12346.5
-12281.9
-12267.7
-12287
-12443.4
-12927.3
-14516.6
-14997.9
-15153.3
-15573.4
-15904.3
-16307.9
-16716.7
-17161.7
-17619.4
-18079.4
-18534.2
-18975.8
-19396.9
-19780.2
-20094.6
-20295
-20352.1
-20298.8
-20262.6
-20007.7
-14357.3
-14125.8
-14145.2
-14368.3
-14660
-14981.8
-15407.3
-15801.8
-16092.5
-16322.3
-16477.7
-16526.6
-16456.4
-16248.7
-15910.6
-15432.7
-14891.1
-14287.4
-13855.7
-13359.3
)
;

boundaryField
{
    outletWall
    {
        type            fixedValue;
        value           uniform 0;
    }
    fineWalls
    {
        type            zeroGradient;
    }
    fineFrontAndBack
    {
        type            zeroGradient;
    }
    fineplugLeft
    {
        type            cyclicAMI;
        value           nonuniform List<scalar> 
20
(
-570.663
-510.896
-345.585
-242.68
-83.4062
83.4966
272.587
487.332
741.714
1025.46
1350.54
1768.44
2089.58
2666.19
3518.62
3711.13
3983.9
4214.62
4122.61
3860.54
)
;
    }
    fineplugRight
    {
        type            cyclicAMI;
        value           nonuniform List<scalar> 
20
(
-11400.2
-11636.1
-11909
-12309.3
-12675.7
-12998.9
-13218
-13340.5
-13359.5
-13296.9
-13146
-12886
-12782.3
-13472.9
-11626.2
-11404.7
-11128.7
-11021.7
-11191.5
-11677.3
)
;
    }
    inletOutletLeft
    {
        type            cyclicAMI;
        value           nonuniform List<scalar> 
20
(
-570.663
-510.896
-345.585
-242.68
-83.4062
83.4966
272.587
487.332
741.714
1025.46
1350.54
1768.44
2089.58
2666.19
3518.62
3711.13
3983.9
4214.62
4122.61
3860.54
)
;
    }
    inletLeft
    {
        type            zeroGradient;
    }
    inletWallsLeft
    {
        type            zeroGradient;
    }
    inletFacesLeft
    {
        type            zeroGradient;
    }
    inletOutletRight
    {
        type            cyclicAMI;
        value           nonuniform List<scalar> 
20
(
-11400.2
-11636.1
-11909
-12309.3
-12675.7
-12998.9
-13218
-13340.5
-13359.5
-13296.9
-13146
-12886
-12782.3
-13472.9
-11626.2
-11404.7
-11128.7
-11021.7
-11191.5
-11677.3
)
;
    }
    inletRight
    {
        type            zeroGradient;
    }
    inletWallsRight
    {
        type            zeroGradient;
    }
    inletFacesRight
    {
        type            zeroGradient;
    }
}


// ************************************************************************* //
