/*--------------------------------*- C++ -*----------------------------------*\
| =========                 |                                                 |
| \\      /  F ield         | OpenFOAM: The Open Source CFD Toolbox           |
|  \\    /   O peration     | Version:  4.1                                   |
|   \\  /    A nd           | Web:      www.OpenFOAM.org                      |
|    \\/     M anipulation  |                                                 |
\*---------------------------------------------------------------------------*/
FoamFile
{
    version     2.0;
    format      ascii;
    class       volVectorField;
    location    "14";
    object      U;
}
// * * * * * * * * * * * * * * * * * * * * * * * * * * * * * * * * * * * * * //

dimensions      [0 1 -1 0 0 0 0];

internalField   nonuniform List<vector> 
1280
(
(3.242e-18 12.6397 0.303617)
(6.16854e-17 15.8928 -1.40285)
(-1.83234e-16 14.0561 -1.36755)
(-2.3097e-16 14.3557 -1.27304)
(-1.89851e-16 18.3102 -3.96155)
(-1.2521e-16 15.3728 -3.5602)
(1.86905e-16 17.486 -3.76641)
(-1.09406e-15 16.6189 -3.34808)
(1.51263e-15 21.379 -7.6)
(2.86326e-15 19.3691 -6.33645)
(3.7012e-15 20.7074 -5.55066)
(-5.56004e-15 25.7334 -12.0953)
(-7.23775e-15 23.9105 -10.3068)
(-5.39639e-15 26.0087 -9.22801)
(-1.5274e-14 32.7725 -19.3766)
(-1.35994e-14 30.5954 -16.0556)
(-1.26417e-14 35.1032 -15.0333)
(-1.39302e-14 35.3234 -27.0809)
(-1.1157e-14 44.7636 -21.252)
(-1.07007e-14 33.6543 -33.7622)
(-7.55688e-15 44.1243 42.0207)
(-3.33867e-15 45.1299 69.8507)
(-3.35593e-15 47.2175 86.8335)
(-4.59282e-15 50.0626 97.1879)
(-5.59534e-15 51.379 103.428)
(-5.49697e-15 54.8656 107.918)
(-1.87178e-14 46.9706 70.0143)
(-1.83334e-15 89.0066 124.62)
(-1.75354e-15 88.599 123.8)
(-1.53808e-15 90.0211 121.593)
(-1.34407e-15 90.1471 118.584)
(-1.6386e-15 89.9528 114.563)
(-2.78025e-15 89.6053 110.029)
(-4.56122e-15 89.0448 105.555)
(-6.66562e-15 88.1967 101.675)
(-9.35601e-15 87.3315 98.477)
(-1.55786e-14 85.7725 96.3832)
(-2.58892e-14 85.0215 94.2514)
(-3.62231e-14 82.2 93.0902)
(-4.40322e-14 81.7684 90.9673)
(-4.37275e-14 73.8202 108.21)
(-2.49916e-14 55.6738 76.8083)
(-2.38203e-14 50.0628 78.0861)
(-2.45377e-14 37.4985 76.3917)
(-2.63599e-14 29.3813 74.2541)
(-1.69173e-14 16.5846 42.6774)
(-1.53387e-14 11.9465 36.8543)
(-1.27014e-14 8.19994 26.92)
(-1.13964e-14 6.42718 9.61525)
(1.85139e-15 3.12799 1.63569)
(4.96441e-15 2.96606 -0.844051)
(4.28247e-15 1.3848 -3.9084)
(3.84175e-15 -1.3956 12.6347)
(5.19561e-15 -2.60894 24.0917)
(6.60201e-15 -7.10846 34.3351)
(1.24241e-14 -15.1674 69.5148)
(1.27056e-14 -26.2572 82.2268)
(1.54349e-14 -37.5203 87.6324)
(1.69796e-14 -46.7903 88.9379)
(3.36069e-14 -71.5586 126.496)
(3.92647e-14 -70.3734 107.946)
(3.10929e-14 -73.8529 115.673)
(2.99435e-14 -74.5955 116.122)
(2.70442e-14 -75.8996 116.671)
(2.5906e-14 -76.8147 116.356)
(2.41557e-14 -77.4824 116.108)
(2.26669e-14 -77.9619 115.911)
(2.12485e-14 -78.1721 115.86)
(1.99607e-14 -78.1578 116.012)
(1.85222e-14 -78.0827 116.561)
(1.70524e-14 -77.7111 117.226)
(1.53542e-14 -75.8321 117.472)
(1.35486e-14 -77.4627 115.467)
(2.02943e-14 -30.2193 55.1874)
(1.32237e-14 -42.6534 95.6656)
(1.2491e-14 -39.3367 93.1232)
(1.01841e-14 -37.3373 90.0216)
(6.8321e-15 -34.1323 83.5164)
(3.28165e-15 -32.0309 69.2416)
(2.10028e-15 -31.0627 41.4141)
(-4.94901e-16 -26.6788 -23.9598)
(4.75237e-16 -31.3011 -22.5044)
(1.63741e-15 -22.8881 -29.418)
(-1.65263e-15 -21.1881 -13.4839)
(-1.49225e-15 -17.5383 -15.397)
(-1.15987e-15 -17.7246 -18.1928)
(-5.69636e-17 -13.4933 -9.28447)
(-7.61713e-16 -11.5833 -10.0058)
(-1.12363e-15 -11.7349 -11.9369)
(-2.55938e-16 -8.65636 -6.31062)
(-1.18493e-15 -7.47609 -7.10671)
(-1.07486e-15 -7.18318 -9.6121)
(-4.87312e-16 -4.84043 -5.8943)
(-5.58106e-16 -4.32456 -6.56264)
(-6.12127e-16 -2.96453 -6.97643)
(-6.14027e-16 -2.2825 -9.89579)
(-3.44305e-16 -0.355638 -6.16386)
(5.44217e-17 0.880509 -5.95963)
(-1.52083e-15 0.262094 -9.16526)
(-1.60373e-15 3.72966 -8.81744)
(-2.20272e-15 12.0692 57.6707)
(2.44859e-14 -19.409 32.1434)
(3.11519e-14 -32.2119 28.635)
(3.37686e-14 -39.243 26.245)
(3.51561e-14 -44.3102 23.4292)
(3.57059e-14 -46.8126 20.8002)
(3.57897e-14 -46.1817 18.0832)
(3.56944e-14 -41.6248 15.1851)
(3.53527e-14 -31.3796 11.8553)
(3.43228e-14 -12.2782 6.71235)
(3.28074e-14 11.4087 -6.56632)
(3.04675e-14 21.2169 -11.4655)
(2.59822e-14 18.3326 -20.8335)
(2.32179e-14 1.1243 -27.3477)
(2.31441e-14 -14.1363 -28.0787)
(1.95419e-14 -17.3902 -22.6296)
(1.15813e-14 -12.5903 -16.3184)
(3.79147e-15 -9.90723 -12.3313)
(4.08405e-16 -3.98675 -10.7642)
(-1.57108e-14 21.8041 52.8913)
(2.12294e-14 -12.4293 27.6464)
(3.31922e-14 -31.2493 26.3017)
(3.40828e-14 -38.1667 26.2456)
(3.51647e-14 -43.0385 23.721)
(3.57378e-14 -45.394 21.3246)
(3.57898e-14 -44.5125 18.7467)
(3.56832e-14 -39.5551 15.9168)
(3.5303e-14 -28.2773 12.4083)
(3.42673e-14 -4.6307 4.04275)
(3.24993e-14 15.7554 -10.0052)
(2.63632e-14 26.1402 -13.8453)
(1.96874e-14 23.989 -22.1704)
(1.66422e-14 5.07863 -29.16)
(1.9634e-14 -15.9006 -31.8082)
(1.94836e-14 -21.3709 -24.7336)
(1.31389e-14 -15.7584 -16.2122)
(5.02807e-15 -11.6575 -11.6419)
(9.75119e-16 -5.19792 -9.92632)
(-1.13968e-14 24.2002 38.5396)
(1.2687e-14 -8.21411 26.0064)
(3.30406e-14 -30.6842 23.388)
(3.54575e-14 -37.9102 25.3077)
(3.51585e-14 -42.0518 24.3872)
(3.57256e-14 -44.4113 22.1673)
(3.58017e-14 -43.5615 19.7794)
(3.56656e-14 -38.4961 17.12)
(3.52488e-14 -26.474 13.3962)
(3.403e-14 0.0250302 1.62971)
(2.97421e-14 17.7959 -4.11664)
(2.02764e-14 27.4202 -9.00296)
(1.47366e-14 25.1951 -11.5013)
(1.32492e-14 6.00114 -14.9558)
(1.52607e-14 -15.692 -26.5226)
(1.761e-14 -23.9885 -24.5976)
(1.41289e-14 -18.2663 -16.3448)
(6.41876e-15 -12.7369 -11.0526)
(1.84215e-15 -4.35212 -9.12053)
(-4.53081e-15 26.2392 31.0862)
(7.75265e-15 -6.59717 25.0425)
(2.77592e-14 -30.7455 22.3324)
(3.6669e-14 -38.4182 23.6818)
(3.5736e-14 -41.8069 24.8488)
(3.55974e-14 -43.5757 23.5857)
(3.58082e-14 -42.6615 21.2756)
(3.5654e-14 -37.2712 18.8438)
(3.51853e-14 -23.6889 14.4527)
(3.2595e-14 4.91624 0.762484)
(2.58907e-14 18.9264 7.64614)
(1.5911e-14 29.2275 1.57493)
(1.37633e-14 25.7496 6.34079)
(1.35248e-14 9.14204 4.14854)
(1.28855e-14 -12.9592 -11.8097)
(1.54149e-14 -24.8175 -17.9519)
(1.41853e-14 -20.827 -14.5476)
(7.67024e-15 -15.1336 -10.5487)
(3.47073e-15 -5.92886 -10.6578)
(-3.69112e-15 26.1604 33.2407)
(3.93182e-15 -4.91568 30.1054)
(2.09731e-14 -30.3909 23.3061)
(3.51353e-14 -38.7909 23.1092)
(3.69664e-14 -42.1756 24.5834)
(3.56049e-14 -42.9931 25.3419)
(3.57353e-14 -41.7131 23.4287)
(3.56838e-14 -35.817 21.0356)
(3.49952e-14 -20.4416 16.1893)
(3.04465e-14 4.72614 8.81465)
(2.45302e-14 16.6971 14.7983)
(1.52676e-14 28.862 14.5645)
(1.47279e-14 24.6093 23.8398)
(1.38445e-14 12.7564 21.8522)
(1.25e-14 -7.97138 8.43122)
(1.39828e-14 -22.4628 -6.84581)
(1.37413e-14 -20.433 -10.4925)
(8.57065e-15 -14.0093 -10.6577)
(7.15384e-15 -1.987 -16.0332)
(-6.35691e-15 25.9828 40.0929)
(1.21776e-15 -1.65984 38.9879)
(1.63687e-14 -28.6608 26.9328)
(3.09061e-14 -38.57 24.6203)
(3.75544e-14 -42.8299 24.4005)
(3.61589e-14 -43.0447 26.7004)
(3.56226e-14 -40.9257 26.1936)
(3.56643e-14 -34.5002 23.7997)
(3.43062e-14 -18.546 19.1405)
(2.83888e-14 4.25325 15.4214)
(2.36102e-14 15.0312 14.7418)
(1.50162e-14 24.9814 29.8205)
(1.52212e-14 22.6643 41.8264)
(1.45629e-14 15.589 42.2171)
(1.3137e-14 -2.0636 29.8617)
(1.28301e-14 -17.2285 9.54919)
(1.30211e-14 -19.8453 -3.60098)
(9.49448e-15 -15.8229 -6.96555)
(9.70882e-15 -4.02111 -32.0094)
(-9.03104e-15 25.1724 48.3156)
(1.69564e-15 1.9796 49.4851)
(1.53628e-14 -25.4683 33.72)
(2.66911e-14 -37.3298 28.5431)
(3.62935e-14 -43.1646 25.7397)
(3.69734e-14 -43.6517 27.57)
(3.56169e-14 -40.5747 29.0955)
(3.55355e-14 -33.1792 27.3122)
(3.37779e-14 -15.6817 22.1003)
(2.59842e-14 6.5036 17.9743)
(2.05884e-14 12.1482 21.159)
(1.36859e-14 17.4432 52.9639)
(1.5182e-14 20.1554 61.7118)
(1.54224e-14 17.3803 64.7963)
(1.49031e-14 4.78707 55.6247)
(1.33723e-14 -8.45464 33.5078)
(1.16729e-14 -10.8541 9.08749)
(7.34193e-15 1.35952 -10.0959)
(1.34121e-14 13.2891 -7.70774)
(-1.10554e-14 24.0561 57.1295)
(4.64667e-15 5.56425 60.624)
(1.87031e-14 -21.1428 42.9942)
(2.54251e-14 -34.8985 34.993)
(3.43277e-14 -42.6012 29.4134)
(3.76651e-14 -44.3311 28.9031)
(3.61636e-14 -40.8593 31.5629)
(3.52155e-14 -32.1507 31.4559)
(3.01103e-14 -14.5839 29.7958)
(1.56106e-14 0.79882 44.8381)
(1.1237e-14 2.88632 64.2669)
(1.25282e-14 11.1221 74.6322)
(1.28762e-14 17.9272 82.7439)
(1.45041e-14 18.0635 86.8986)
(1.67742e-14 10.2255 83.547)
(1.8938e-14 0.612657 71.1706)
(2.23078e-14 -5.29607 60.2273)
(2.75577e-14 -13.7494 69.4998)
(3.28156e-14 -39.918 101.813)
(-1.3096e-14 22.5008 66.042)
(7.3523e-15 8.79419 72.0345)
(2.45908e-14 -16.0562 53.882)
(2.72218e-14 -31.4217 43.6158)
(3.26058e-14 -40.878 35.4878)
(3.71512e-14 -44.4506 31.8671)
(3.67889e-14 -41.5983 33.5554)
(3.47898e-14 -32.6465 35.331)
(2.74157e-14 -18.7269 38.623)
(1.39117e-14 -7.15053 59.5374)
(7.115e-15 -1.09692 81.5029)
(4.28662e-15 8.29622 92.2159)
(4.82502e-15 15.2071 98.8062)
(7.45655e-15 16.8851 103.514)
(1.22086e-14 10.8087 104.525)
(1.65681e-14 1.15775 101.098)
(2.20578e-14 -7.45148 98.3774)
(2.55042e-14 -13.6457 98.7956)
(2.37464e-14 -18.6522 90.9664)
(-1.57401e-14 20.5073 74.3656)
(7.18837e-15 11.388 83.2055)
(3.09975e-14 -10.5913 66.049)
(3.3596e-14 -27.1082 53.8976)
(3.43553e-14 -38.0309 43.7935)
(3.71876e-14 -43.5106 37.3442)
(3.6429e-14 -42.263 36.3956)
(3.43093e-14 -34.3988 39.0485)
(2.29078e-14 -24.2959 46.7445)
(3.33428e-15 -16.6194 69.3354)
(-1.06076e-14 -8.49 90.0322)
(-1.52371e-14 4.86799 96.8654)
(-1.19872e-14 13.5016 100.163)
(-9.61246e-15 15.7941 105.365)
(-2.27083e-15 11.068 107.259)
(-9.39891e-17 2.7254 103.835)
(4.84627e-15 -5.26226 95.6883)
(7.51824e-15 -10.8315 79.1905)
(7.01484e-15 -12.2358 43.7321)
(-1.86758e-14 17.9002 81.0694)
(1.64202e-15 12.8564 93.3089)
(2.79115e-14 -5.08037 79.6131)
(3.72173e-14 -22.1657 65.8831)
(3.79841e-14 -34.3451 53.9543)
(3.86774e-14 -41.4578 45.271)
(3.84629e-14 -42.2995 41.1805)
(3.23781e-14 -36.8804 43.2261)
(1.63628e-14 -30.5796 53.9977)
(-6.49217e-15 -24.7592 75.2846)
(-2.17413e-14 -12.3555 87.6728)
(-2.74057e-14 4.28089 83.6763)
(-2.76949e-14 11.8689 84.6008)
(-2.7405e-14 14.0435 93.4012)
(-2.51324e-14 11.5934 100.858)
(-2.20958e-14 6.26983 101.695)
(-2.04218e-14 3.286 95.4257)
(-1.96721e-14 5.67912 78.4854)
(-1.84889e-14 10.8455 43.873)
(-2.14972e-14 14.5622 85.0309)
(-5.34609e-15 12.5835 100.894)
(1.74588e-14 -0.0555086 93.8906)
(3.15981e-14 -16.6067 80.7166)
(3.62689e-14 -29.8424 66.478)
(3.73929e-14 -38.3925 55.3023)
(3.59165e-14 -41.4517 48.434)
(2.73494e-14 -39.585 49.7563)
(8.15192e-15 -36.8751 61.9538)
(-1.37999e-14 -30.2069 77.4787)
(-2.49597e-14 -11.8901 74.3292)
(-2.40024e-14 5.86385 57.1191)
(-2.36131e-14 9.57013 59.0535)
(-2.67272e-14 9.27269 67.3946)
(-3.10242e-14 7.33846 81.3046)
(-3.42804e-14 4.48192 93.9858)
(-3.74991e-14 3.58153 103.474)
(-3.96457e-14 7.14578 107.098)
(-3.76129e-14 17.799 97.1866)
(-2.50048e-14 10.4462 85.4267)
(-1.40689e-14 9.96293 104.124)
(3.13754e-15 2.6762 105.171)
(1.78221e-14 -11.084 98.0355)
(2.59868e-14 -24.1553 83.978)
(2.93779e-14 -34.1971 71.086)
(2.73983e-14 -40.0774 62.6673)
(1.71446e-14 -42.3386 63.1987)
(-1.57986e-15 -41.458 71.7868)
(-1.83912e-14 -29.8971 73.9278)
(-2.11306e-14 -4.38903 51.1123)
(-1.44055e-14 10.0226 30.5406)
(-1.58681e-14 7.59883 37.0901)
(-1.80128e-14 5.08748 41.3867)
(-2.22616e-14 1.15 49.6782)
(-2.79276e-14 -2.50692 60.7379)
(-3.23638e-14 -1.69257 73.2125)
(-3.56658e-14 10.1874 88.1735)
(-4.08609e-14 37.1024 105.178)
(-2.7919e-14 5.9746 81.9185)
(-2.18135e-14 5.45485 101.834)
(-1.08077e-14 1.93308 108.685)
(-1.34355e-17 -8.09634 110.502)
(8.68031e-15 -19.1479 102.888)
(1.33639e-14 -29.8665 92.7478)
(1.1817e-14 -38.2796 84.2353)
(2.71105e-15 -43.2185 80.6804)
(-1.10776e-14 -40.9341 77.8167)
(-1.95468e-14 -22.2473 60.5652)
(-1.41104e-14 5.70839 22.8177)
(-9.45401e-15 11.6485 14.4161)
(-1.01915e-14 5.70878 20.2102)
(-1.13088e-14 4.02944 23.1373)
(-1.26206e-14 0.0212593 25.3255)
(-1.38323e-14 -3.62639 23.6769)
(-1.14102e-14 -4.71384 14.8208)
(-5.39006e-15 -4.54933 -1.65173)
(-1.58529e-14 -0.842828 1.01185)
(-3.01121e-14 1.2786 74.3534)
(-2.8151e-14 0.119156 93.4675)
(-2.14421e-14 -1.15269 102.919)
(-1.53483e-14 -8.6371 110.588)
(-9.11114e-15 -17.1907 111.238)
(-5.13574e-15 -26.8375 106.871)
(-5.63146e-15 -35.3739 99.0265)
(-1.09457e-14 -39.8427 88.8556)
(-1.74073e-14 -33.385 71.3835)
(-1.74383e-14 -8.53493 35.8561)
(-1.00269e-14 13.6978 0.546625)
(-8.55892e-15 11.1403 7.02504)
(-6.96285e-15 4.39966 8.50025)
(-6.90728e-15 3.16678 10.4529)
(-6.19279e-15 0.778087 10.2022)
(-5.50082e-15 0.122539 6.84736)
(-3.77339e-15 3.58921 0.373606)
(-1.92263e-15 7.63154 -4.46286)
(-6.13736e-16 6.32134 -26.2004)
(-3.05103e-14 -2.68151 63.6204)
(-3.24266e-14 -5.17596 80.8803)
(-2.79603e-14 -5.25782 91.2302)
(-2.49493e-14 -11.286 100.453)
(-2.14905e-14 -17.6733 105.159)
(-1.88893e-14 -24.969 104.147)
(-1.8182e-14 -31.0933 95.875)
(-1.90597e-14 -32.0042 79.0439)
(-1.86129e-14 -19.6193 48.8458)
(-1.32066e-14 7.07153 3.24365)
(-1.0562e-14 16.1021 -1.60586)
(-8.22535e-15 9.62255 4.3557)
(-5.20713e-15 3.89897 2.16229)
(-4.50836e-15 2.9664 2.67067)
(-3.29834e-15 1.44946 2.25839)
(-2.37489e-15 1.18612 0.484837)
(-1.62077e-15 3.36971 -2.80726)
(-6.48067e-16 9.799 -4.33709)
(1.67403e-15 10.3776 -20.6232)
(-2.81864e-14 -6.69777 52.4508)
(-3.44326e-14 -10.3353 66.8035)
(-3.1375e-14 -9.18376 77.635)
(-2.96344e-14 -14.0497 86.2049)
(-2.74458e-14 -18.6907 90.6759)
(-2.52014e-14 -23.096 88.4533)
(-2.2959e-14 -25.2556 76.8745)
(-2.0323e-14 -20.9 54.2245)
(-1.61802e-14 -4.01631 19.2244)
(-1.19778e-14 12.2853 -6.07689)
(-1.08713e-14 13.5005 2.1551)
(-7.86382e-15 9.46674 3.59137)
(-4.81009e-15 5.17024 0.389175)
(-3.04927e-15 3.02531 -2.0308)
(-1.87377e-15 1.67306 -2.09692)
(-9.87244e-16 1.97256 -2.45291)
(-4.27771e-16 4.5497 -4.626)
(5.08588e-17 13.4534 -5.49129)
(-1.29149e-17 13.4152 -13.3568)
(-2.32963e-14 -8.86027 42.3335)
(-3.37197e-14 -14.7967 53.4072)
(-3.24258e-14 -13.3211 64.4428)
(-3.10054e-14 -16.4607 71.3728)
(-2.84643e-14 -18.5011 73.2843)
(-2.50765e-14 -19.3238 66.5761)
(-2.11306e-14 -17.2726 49.7647)
(-1.71199e-14 -8.97302 24.5661)
(-1.3215e-14 5.97749 -4.08916)
(-1.25969e-14 11.538 0.676901)
(-1.05961e-14 12.3675 2.31197)
(-7.86731e-15 10.4035 1.73088)
(-4.73158e-15 6.36933 -0.816696)
(-2.35313e-15 3.85651 -3.6587)
(-9.52375e-16 1.71896 -4.70329)
(-5.20919e-17 2.19868 -4.48936)
(4.20869e-16 4.8737 -5.73868)
(5.79351e-17 13.6274 -5.53155)
(-2.33977e-16 13.7369 -9.60157)
(-1.71131e-14 -11.7151 34.5013)
(-3.15082e-14 -18.974 41.0128)
(-3.30292e-14 -16.2094 53.3812)
(-3.14815e-14 -17.4457 59.3802)
(-2.69591e-14 -17.0827 56.8306)
(-2.12333e-14 -13.9687 43.0134)
(-1.65248e-14 -8.47019 22.714)
(-1.41316e-14 -0.276433 4.08826)
(-1.38386e-14 5.56787 1.2761)
(-1.24165e-14 10.9424 2.08659)
(-1.06771e-14 12.8978 1.43388)
(-7.93892e-15 10.9218 0.250667)
(-4.6151e-15 7.19606 -1.712)
(-2.04441e-15 4.47363 -3.77557)
(-3.51271e-16 1.8615 -5.20768)
(6.04237e-16 2.2014 -5.07305)
(4.62736e-16 4.89433 -5.15377)
(-9.61527e-19 14.4263 -4.95211)
(-1.01768e-16 14.2338 -7.45242)
(-7.43307e-15 -11.2894 28.2371)
(-2.15726e-14 -22.1779 26.7766)
(-2.70277e-14 -21.2294 36.0434)
(-2.84914e-14 -17.9453 41.0096)
(-2.4208e-14 -11.2635 37.3445)
(-1.7562e-14 -4.64947 22.9807)
(-1.4315e-14 -1.70759 9.14699)
(-1.45162e-14 0.998757 5.11566)
(-1.37812e-14 6.37584 4.47971)
(-1.24871e-14 11.3551 2.45411)
(-1.07385e-14 13.363 1.00756)
(-7.928e-15 11.8915 -0.643523)
(-4.4664e-15 8.27343 -2.26968)
(-1.7732e-15 5.41111 -3.8154)
(-5.84728e-17 2.25432 -4.75343)
(6.80025e-16 2.29782 -4.23153)
(3.67334e-16 4.98762 -4.8222)
(-2.49336e-17 14.86 -4.492)
(-1.37434e-16 12.975 -6.95917)
(-1.875e-16 137.127 237.419)
(2.27437e-14 186.822 306.829)
(2.66342e-14 182.5 300.853)
(2.90029e-14 176.106 282.598)
(3.26985e-14 166.662 265.403)
(3.39257e-14 158.226 246.485)
(3.5036e-14 147.031 227.22)
(4.07717e-14 135.488 207.231)
(5.11769e-14 122.594 185.647)
(6.69177e-14 109.027 163.992)
(8.49323e-14 94.9532 142.431)
(1.0119e-13 80.2928 120.861)
(1.15924e-13 64.896 99.1028)
(1.34112e-13 48.7127 76.9725)
(1.59027e-13 31.7622 54.97)
(1.72274e-13 15.4832 34.1654)
(1.36894e-13 2.89493 16.9045)
(7.06932e-14 -6.0411 0.436644)
(4.86136e-15 -12.3155 -7.48946)
(-1.91434e-14 1.77445 4.2195)
(3.0789e-16 139.281 247.275)
(3.59833e-15 152.407 266.269)
(3.82262e-15 138.551 255.014)
(8.56614e-15 128.996 241.849)
(1.29463e-14 116.527 228.46)
(1.48466e-14 104.534 213.152)
(2.16097e-14 90.3263 195.077)
(3.64935e-14 75.2625 174.647)
(6.1893e-14 59.164 152.803)
(9.81033e-14 42.645 129.994)
(1.3358e-13 25.8877 107.001)
(1.5686e-13 9.12817 83.7674)
(1.78165e-13 -7.86506 59.6261)
(2.20599e-13 -23.9962 35.671)
(2.67678e-13 -35.4014 17.3559)
(2.47447e-13 -36.852 11.7991)
(1.58316e-13 -24.5836 23.6619)
(8.65404e-14 2.12575 52.636)
(5.23272e-14 34.0479 84.3494)
(1.88655e-14 37.6756 77.7456)
(-1.064e-15 114.345 203.454)
(-1.43471e-14 131.736 240.07)
(-1.00086e-14 126.732 234.283)
(-9.72176e-15 115.645 220.096)
(-8.63438e-15 103.221 202.67)
(-6.2809e-15 90.2172 186.155)
(-1.31986e-16 77.0262 168.711)
(7.083e-15 62.888 149.415)
(2.27854e-14 48.2532 128.285)
(4.85021e-14 33.705 106.424)
(7.11259e-14 20.3187 85.5657)
(7.11613e-14 9.22862 67.6843)
(4.33638e-14 1.70215 54.6885)
(9.74007e-15 0.25193 50.1225)
(-7.03431e-15 9.07044 60.2511)
(-7.06818e-15 30.8238 89.4748)
(-2.06767e-15 61.7075 132.207)
(2.31672e-15 90.4948 171.882)
(4.62437e-15 105.524 184.929)
(3.11394e-15 76.514 142.763)
(-8.80758e-17 103.713 177.136)
(3.3138e-16 131.618 231.675)
(1.69694e-16 131.377 225.681)
(-8.7814e-17 121.791 210.541)
(5.35498e-17 111.595 190.124)
(-1.21332e-14 100.5 171.082)
(-8.72033e-15 91.7582 154.923)
(-9.54868e-15 83.8712 140.421)
(-9.75932e-15 76.7399 126.01)
(-8.16469e-15 70.0407 111.325)
(-3.3905e-15 63.9423 96.4975)
(4.43126e-15 58.9891 82.7984)
(8.87073e-15 56.5486 72.9547)
(5.16877e-15 58.3348 70.8881)
(-4.68886e-15 65.5636 79.1357)
(-1.30613e-14 76.6532 97.6488)
(-1.44226e-14 89.3306 121.399)
(-8.43081e-15 96.1681 142.358)
(-5.07344e-15 93.2769 145.184)
(-8.95306e-15 68.1666 117.888)
(8.06035e-17 105.583 180.059)
(3.05225e-16 141.029 244.45)
(2.7105e-16 142.472 240.931)
(3.14882e-16 134.041 225.753)
(1.0247e-16 124.466 206.152)
(1.14509e-17 114.527 186.999)
(-3.29086e-16 106.888 171.388)
(-6.5284e-16 101.067 158.802)
(-1.33003e-15 96.2186 147.703)
(-2.76812e-15 91.832 136.99)
(-4.89033e-15 87.5673 126.047)
(-7.61834e-15 83.1945 114.461)
(-1.01393e-14 78.6653 102.272)
(-1.21352e-14 74.1912 90.6236)
(-1.34036e-14 70.6567 81.9692)
(-1.31355e-14 68.8906 79.2254)
(-1.03062e-14 68.7909 83.0394)
(-5.48738e-15 68.2993 89.6711)
(-1.65545e-15 61.9871 90.2001)
(-1.36435e-15 40.9416 62.8396)
(-2.38817e-17 108.131 183.267)
(-9.85124e-17 149.946 257.211)
(-8.97436e-17 149.14 250.792)
(-8.74705e-17 139.034 232.526)
(-7.22411e-18 128.059 212.042)
(1.9386e-16 118.082 193.218)
(2.80482e-16 110.162 178.07)
(3.85016e-16 103.7 165.027)
(5.46047e-16 97.6588 153.139)
(7.99671e-16 91.9115 141.817)
(1.16505e-15 86.3176 131.066)
(1.63269e-15 80.9427 120.78)
(2.13552e-15 75.6517 110.737)
(2.59669e-15 70.3844 100.547)
(2.91141e-15 64.7884 90.1119)
(2.92525e-15 59.1597 79.7113)
(2.59675e-15 52.8009 70.4781)
(2.15558e-15 46.4685 61.5753)
(1.67022e-15 34.8 50.2957)
(1.63971e-15 14.3074 14.4038)
(5.62838e-18 116.088 196.271)
(2.28059e-17 160.15 271.512)
(2.1715e-17 154.702 259.431)
(1.7693e-17 143.245 237.909)
(-8.08117e-18 131.602 217.377)
(-6.63663e-17 122.582 199.369)
(-9.25684e-17 115.072 185.163)
(-1.18109e-16 108.83 171.966)
(-1.48534e-16 102.475 159.303)
(-1.82406e-16 96.1516 146.596)
(-2.23336e-16 89.6058 134.041)
(-2.8197e-16 82.9291 121.682)
(-3.58971e-16 76.042 109.668)
(-4.30359e-16 69.0746 97.9311)
(-4.48789e-16 61.6729 86.3904)
(-3.71586e-16 54.076 74.3527)
(-2.18375e-16 44.8765 61.5554)
(-1.35258e-16 35.1312 46.0546)
(-3.2031e-16 18.0603 24.8982)
(-3.258e-16 0.857543 -10.2479)
(-1.16033e-18 130.158 220.741)
(-4.62534e-18 171.097 285.604)
(-4.45724e-18 159.191 266.964)
(-2.98182e-18 148.35 243.682)
(3.76139e-18 137.122 225.355)
(1.85146e-17 130.441 209.049)
(2.59291e-17 123.679 196.051)
(3.06477e-17 118.384 182.791)
(3.46411e-17 112.237 169.541)
(3.71262e-17 105.757 155.315)
(3.89516e-17 98.3796 140.472)
(4.35596e-17 90.322 125.092)
(5.23298e-17 81.5576 109.519)
(5.90329e-17 72.3054 93.8605)
(4.92367e-17 62.2693 78.2937)
(6.40846e-18 51.7795 62.2977)
(-7.76902e-17 39.2683 45.5783)
(-1.99615e-16 26.2021 25.5147)
(-3.19236e-16 3.74831 -0.469644)
(-6.45031e-16 -11.6202 -37.9644)
(2.17389e-19 148.364 257.441)
(8.42101e-19 178.006 294.857)
(7.70083e-19 159.156 272.728)
(4.17989e-19 151.778 251.269)
(-1.04118e-18 141.073 237.615)
(-4.4446e-18 137.536 224.083)
(-6.19681e-18 131.332 213.737)
(-6.80573e-18 127.498 201.254)
(-6.90249e-18 120.888 187.549)
(-6.51923e-18 113.347 170.731)
(-5.9091e-18 103.6 152.249)
(-5.8194e-18 92.8797 132.579)
(-6.64405e-18 81.0751 112.522)
(-7.44148e-18 68.5162 91.9856)
(-5.64711e-18 54.7155 71.0537)
(4.05686e-18 39.9882 49.1631)
(3.25263e-17 23.1454 26.8334)
(7.17036e-17 7.11096 1.3503)
(7.42004e-17 -19.2103 -26.3131)
(-4.84838e-16 -26.215 -66.3247)
(-4.00015e-20 157.676 282.229)
(-1.42869e-19 170.032 285.402)
(-1.17104e-19 148.977 268.12)
(-4.23405e-20 145.102 251.063)
(3.02457e-19 133.494 242.033)
(1.09486e-18 130.984 231.328)
(1.41512e-18 123.398 224.171)
(1.42443e-18 118.706 212.515)
(1.23607e-18 108.11 197.245)
(9.0569e-19 96.0701 175.658)
(8.24987e-19 80.6474 151.836)
(1.57371e-18 65.2945 126.906)
(2.55408e-18 49.0045 101.909)
(-1.58998e-20 32.2258 75.7298)
(-1.00237e-17 14.3961 48.2385)
(-1.01132e-17 -3.84879 19.9564)
(4.85996e-17 -19.427 -4.97188)
(1.32822e-16 -31.6825 -27.4939)
(6.7372e-17 -44.8871 -50.4254)
(-1.85346e-16 -29.0283 -47.6073)
(6.9096e-21 149.188 271.33)
(1.92415e-20 154.432 264.321)
(1.20724e-20 135.753 250.878)
(-1.03845e-20 130.855 235.062)
(-1.01946e-19 118.585 226.702)
(-2.41769e-19 113.733 216.537)
(-2.50093e-19 104.24 209.351)
(-2.39444e-19 95.9113 197.127)
(-3.12863e-19 81.7256 179.838)
(-2.9424e-19 65.6857 156.192)
(3.95482e-19 47.5145 130.861)
(1.91456e-18 30.1191 105.576)
(2.02618e-18 12.7866 80.9965)
(-4.02422e-18 -3.72189 56.7834)
(-1.4429e-17 -18.3346 34.3367)
(-8.03128e-18 -28.2715 16.2332)
(3.63055e-17 -29.1171 8.37424)
(8.98076e-17 -15.012 18.613)
(8.52593e-17 12.2195 46.1548)
(1.66706e-17 26.4332 61.3983)
(-7.25727e-22 136.296 247.979)
(-1.07481e-21 148.735 252.018)
(1.06127e-21 126.955 233.274)
(6.59807e-21 122.612 213.784)
(2.37186e-20 108.226 204.131)
(4.40161e-20 103.055 189.985)
(3.81068e-20 91.3391 180.576)
(-2.34184e-20 82.8558 166.929)
(-1.84184e-19 69.316 151.079)
(-2.04752e-19 55.6012 129.897)
(5.30172e-19 40.3048 106.918)
(1.97323e-18 26.4603 83.6394)
(2.23757e-18 14.4355 62.7614)
(-6.48703e-19 6.90061 47.6968)
(-4.80448e-18 7.3422 44.7558)
(-5.3898e-18 19.0653 59.1155)
(-2.24039e-18 40.4823 88.2887)
(-2.22684e-18 63.6477 119.887)
(-7.93469e-18 78.7622 134.651)
(-7.67579e-18 58.2654 108.322)
(-5.61729e-23 133.764 243.283)
(-4.39748e-22 154.571 253.682)
(-9.69653e-22 129.101 232.66)
(-1.79651e-21 128.423 208.86)
(-3.83846e-21 112.61 198.992)
(-5.2836e-21 110.171 180.69)
(-1.19167e-21 97.9133 169.073)
(7.05568e-21 92.5662 153.761)
(7.75373e-21 83.2467 141.628)
(-1.83673e-20 77.0081 128.136)
(-2.58676e-20 70.0225 115.514)
(1.18044e-19 64.8535 102.959)
(5.00871e-19 60.7709 91.7314)
(1.00312e-18 58.5639 82.5755)
(1.3067e-18 58.6699 77.108)
(1.26011e-18 60.8993 77.4459)
(1.00293e-18 64.9005 83.1639)
(4.66607e-19 66.4362 91.1297)
(-3.77056e-19 62.3053 91.2741)
(-3.65126e-19 42.2795 69.7081)
(5.76103e-23 137.458 251.111)
(2.41186e-22 161.315 261.257)
(3.74204e-22 133.411 240.524)
(4.75464e-22 134.665 216.619)
(5.12391e-22 119.188 206.995)
(9.86607e-23 117.572 189.598)
(-1.43214e-21 107.252 177.999)
(-3.40724e-21 102.512 163.456)
(-7.32748e-23 95.3003 151.184)
(1.52446e-20 89.8976 138.887)
(2.22829e-20 84.5097 127.729)
(-2.99804e-20 79.7281 117.13)
(-1.56829e-19 75.1306 106.908)
(-2.80516e-19 70.5433 96.8079)
(-2.72445e-19 65.66 86.814)
(-5.98291e-20 60.5672 77.2571)
(3.01264e-19 54.5219 68.6487)
(6.43866e-19 47.779 60.1276)
(8.64496e-19 35.7341 48.4765)
(9.60672e-19 16.4517 18.857)
(-2.0615e-23 142.795 264.15)
(-8.10888e-23 165.103 263.25)
(-1.17097e-22 134.817 246.658)
(-1.42524e-22 139.739 223.117)
(-9.27895e-23 122.303 214.342)
(1.7417e-22 122.089 196.628)
(7.31476e-22 111.152 185.646)
(1.31441e-21 107.023 171.317)
(5.1712e-22 99.6916 159.314)
(-2.67487e-21 94.1447 146.562)
(-3.32827e-21 88.0884 134.467)
(7.94273e-21 82.3959 122.466)
(2.98914e-20 76.5765 110.707)
(4.01252e-20 70.6326 98.7997)
(8.13821e-21 63.8375 86.5176)
(-7.77045e-20 56.2046 73.0206)
(-1.99627e-19 45.8538 57.9155)
(-3.42792e-19 34.1791 39.337)
(-5.5145e-19 14.65 16.1566)
(-6.27374e-19 -1.35791 -18.8074)
(6.29988e-24 147.11 278.91)
(2.38131e-23 166.68 262.305)
(2.60861e-23 135.57 253.284)
(1.63038e-23 144.121 230.196)
(1.02662e-23 124.62 222.659)
(5.19097e-23 126.049 205.011)
(1.39258e-22 114.341 194.893)
(7.17002e-23 111.19 180.969)
(-3.63549e-22 103.88 169.849)
(-1.32887e-21 99.2104 157.88)
(-3.18826e-21 93.7806 146.696)
(-5.27595e-21 88.7963 135.015)
(-3.75978e-21 83.0938 122.515)
(7.49773e-21 76.2711 108.02)
(3.26603e-20 66.8893 90.7015)
(6.98834e-20 54.6238 69.3715)
(1.06701e-19 38.3917 46.1612)
(1.2077e-19 21.7019 20.3596)
(8.62138e-20 -5.13843 -9.13392)
(-6.61808e-19 -18.0894 -48.3218)
(-1.38692e-24 145.109 282.795)
(-6.92159e-24 163.537 256.872)
(-1.65326e-23 132.236 253.597)
(-2.2809e-23 141.346 231.554)
(3.61859e-23 121.728 224.741)
(2.22e-22 122.523 208.631)
(3.82556e-22 111.223 199.387)
(-1.33051e-24 107.966 186.989)
(-1.48112e-21 100.916 177.246)
(-3.41115e-21 96.6683 166.928)
(-3.01044e-21 91.567 157.373)
(3.03768e-21 86.7271 146.819)
(1.54814e-20 80.3035 134.023)
(3.32137e-20 71.0036 116.263)
(6.20944e-20 56.1493 90.4398)
(1.15304e-19 35.0524 55.2736)
(1.68193e-19 11.716 21.3236)
(1.71906e-19 -4.81735 -6.15689)
(1.01381e-19 -26.912 -31.6801)
(-5.42969e-19 -28.3061 -65.4945)
(7.48128e-25 133.786 273.349)
(7.22207e-25 157.459 248.352)
(-6.10677e-24 122.098 246.266)
(-4.33414e-24 128.943 226.667)
(5.93645e-23 111.031 219.515)
(2.03978e-22 108.092 206.098)
(2.22655e-22 98.2526 196.791)
(-3.83417e-22 92.734 186.184)
(-1.93479e-21 85.9815 176.995)
(-3.54514e-21 80.5943 167.899)
(-2.47583e-21 75.0237 159.002)
(4.6005e-21 69.1346 148.792)
(1.9247e-20 61.3504 135.112)
(4.4856e-20 49.6529 114.029)
(9.8789e-20 31.1745 80.4162)
(1.90929e-19 6.655 34.5539)
(2.3438e-19 -13.8537 -7.20955)
(1.07974e-19 -23.8476 -28.6563)
(-1.03124e-19 -31.0826 -40.8604)
(-3.11385e-19 -24.088 -40.6193)
(-2.0328e-27 108.437 253.495)
(-1.13897e-24 147.253 224.806)
(-5.24812e-24 107.133 227.827)
(-3.39033e-24 112.674 213.002)
(3.59298e-23 96.5402 207.526)
(1.23868e-22 91.4016 198.212)
(1.45354e-22 82.1613 191.003)
(-1.84221e-22 75.5267 183.201)
(-1.10788e-21 68.5235 175.978)
(-2.37023e-21 62.3922 168.818)
(-2.9228e-21 56.451 161.738)
(-1.16381e-21 50.6355 154.06)
(4.53822e-21 44.4338 144.836)
(1.52406e-20 37.6019 133.012)
(3.00414e-20 30.4129 117.938)
(4.40799e-20 23.8253 99.4799)
(4.71826e-20 18.4188 78.2701)
(2.61561e-20 13.3998 54.4593)
(-1.9192e-20 6.10002 24.8725)
(-5.26667e-20 -3.52791 -4.26626)
(1.32167e-25 35.5839 157.454)
(2.06974e-25 78.2956 129.993)
(-1.07809e-24 52.6643 138.081)
(-4.42283e-24 52.6625 133.951)
(-2.71563e-24 44.2677 133.884)
(2.4305e-23 39.9769 132.188)
(8.95408e-23 35.0287 130.856)
(1.33332e-22 31.1614 129.166)
(-5.13483e-23 27.6968 127.378)
(-7.90721e-22 24.9076 125.48)
(-2.30974e-21 22.7568 123.63)
(-4.45314e-21 21.3535 121.946)
(-6.70416e-21 20.7287 120.445)
(-8.59513e-21 20.8733 118.917)
(-9.92416e-21 21.8416 116.866)
(-1.02685e-20 23.485 113.845)
(-8.62685e-21 25.374 109.709)
(-4.56291e-21 29.6351 102.376)
(-6.9835e-23 32.6921 89.0509)
(1.31361e-21 7.32775 65.8672)
(-8.04329e-26 -35.5777 157.449)
(9.85836e-26 -78.2924 129.984)
(3.1909e-25 -52.6606 138.07)
(6.13675e-25 -52.6603 133.938)
(1.07189e-24 -44.2669 133.869)
(1.40524e-24 -39.9777 132.172)
(5.46111e-25 -35.0313 130.839)
(-1.46232e-24 -31.1658 129.147)
(1.68201e-24 -27.7033 127.357)
(2.10193e-23 -24.9163 125.457)
(4.24371e-23 -22.768 123.604)
(-3.06075e-23 -21.3671 121.917)
(-3.85956e-22 -20.7443 120.41)
(-1.15218e-21 -20.8894 118.874)
(-2.14242e-21 -21.8559 116.812)
(-2.82835e-21 -23.4959 113.779)
(-2.7805e-21 -25.38 109.635)
(-2.12251e-21 -29.6328 102.308)
(-1.27698e-21 -32.685 89.0033)
(-4.01391e-22 -7.31964 65.8528)
(3.96813e-25 -108.423 253.476)
(9.12188e-26 -147.236 224.784)
(-5.15071e-25 -107.121 227.809)
(-1.12348e-24 -112.663 212.985)
(-1.37267e-24 -96.5311 207.51)
(-1.53063e-24 -91.3933 198.196)
(-2.97571e-24 -82.1534 190.986)
(-8.70688e-24 -75.5186 183.182)
(-3.1879e-23 -68.5147 175.957)
(-1.10332e-22 -62.3823 168.793)
(-2.64881e-22 -56.4395 161.708)
(-2.97594e-22 -50.623 154.025)
(4.8406e-22 -44.4241 144.801)
(3.11576e-21 -37.6054 132.99)
(7.91931e-21 -30.4503 117.947)
(1.32935e-20 -23.9208 99.5435)
(1.66967e-20 -18.5834 78.4308)
(1.8245e-20 -13.6287 54.7517)
(2.03827e-20 -6.37336 25.2475)
(1.73975e-20 3.3557 -4.03111)
(-1.41534e-24 -133.768 273.312)
(-1.82492e-25 -157.441 248.327)
(1.64944e-24 -122.078 246.235)
(4.06181e-24 -128.92 226.637)
(7.75711e-24 -111.005 219.484)
(1.25992e-23 -108.061 206.065)
(1.70811e-23 -98.2172 196.757)
(1.92222e-23 -92.6918 186.145)
(1.65891e-24 -85.9326 176.953)
(-1.11976e-22 -80.5346 167.852)
(-4.16227e-22 -74.9511 158.947)
(-6.17074e-22 -69.0431 148.726)
(7.10223e-22 -61.2296 135.016)
(5.82032e-21 -49.4702 113.846)
(1.44889e-20 -30.903 80.0893)
(2.19663e-20 -6.41042 34.2219)
(2.96438e-20 13.88 -7.221)
(5.25364e-20 23.8324 -28.4685)
(8.89112e-20 30.9451 -40.5891)
(9.6605e-20 23.9272 -40.0351)
(5.54503e-24 -145.116 282.765)
(1.65017e-24 -163.491 256.884)
(-5.17148e-24 -132.242 253.603)
(-1.35165e-23 -141.301 231.598)
(-2.27502e-23 -121.72 224.778)
(-3.25296e-23 -122.476 208.693)
(-4.31607e-23 -111.187 199.444)
(-6.0989e-23 -107.904 187.062)
(-1.14847e-22 -100.84 177.324)
(-2.44886e-22 -96.5741 167.023)