/*--------------------------------*- C++ -*----------------------------------*\
| =========                 |                                                 |
| \\      /  F ield         | OpenFOAM: The Open Source CFD Toolbox           |
|  \\    /   O peration     | Version:  4.1                                   |
|   \\  /    A nd           | Web:      www.OpenFOAM.org                      |
|    \\/     M anipulation  |                                                 |
\*---------------------------------------------------------------------------*/
FoamFile
{
    version     2.0;
    format      ascii;
    class       volScalarField;
    location    "13";
    object      p;
}
// * * * * * * * * * * * * * * * * * * * * * * * * * * * * * * * * * * * * * //

dimensions      [0 2 -2 0 0 0 0];

internalField   nonuniform List<scalar> 
1680
(
-4.54476
-2.96459
-1.14968
-1.83366
-2.51326
-1.3625
-1.94177
-2.65913
-1.33362
-2.27335
-2.69114
-2.47211
-3.1365
-1.7516
-3.12821
-4.12897
-3.34453
-6.2134
-0.431689
-9.91635
-1.15511
-29.4638
0.40145
-1.50973
-0.55161
0.80209
1.87639
2.82785
4.57245
4.95293
8.2502
-18.5456
-1.36655
-1.53953
-0.481254
-0.017322
1.22849
0.762306
4.99424
0.543968
-44.6655
-19.9816
-17.0096
2.48661
-3.63259
-3.50992
0.135527
9.32397
6.09984
6.4085
8.29407
8.17758
8.2069
8.226
8.23219
8.23172
8.29543
8.29881
8.3844
8.21667
20.7466
33.1167
8.8094
22.6113
21.906
23.4561
10.794
4.45086
1.78949
1.44677
3.64904
4.62646
3.47793
-0.601618
-4.67587
-2.8801
-8.98244
5.8935
13.6327
12.243
32.0122
5.73555
21.9133
20.6539
23.1626
10.5155
4.23346
1.1529
0.70058
3.04772
4.23987
2.99281
-0.0137009
-3.26371
-1.12483
-3.49563
6.73476
9.22297
1.73251
31.2473
2.16852
20.9906
18.7301
22.6778
10.0988
4.1047
0.798838
0.259151
2.28879
3.81337
2.45295
0.327273
-2.25868
-0.0263572
-1.0006
3.96309
11.4758
-10.7926
30.5782
-1.66993
19.9554
16.2702
22.0687
9.6587
4.04652
0.59961
0.0432386
1.61446
3.33647
1.95645
0.361044
-1.61134
0.313553
0.209887
0.868216
17.6201
-25.5274
29.8565
-5.62436
18.7368
13.431
21.2269
9.24622
4.01716
0.451984
-0.0425981
1.17872
2.83349
1.54616
0.420531
-1.08309
0.165756
0.578678
-0.75059
15.7913
-42.8678
28.9371
-9.6776
17.2402
10.3753
20.2136
8.89905
4.01158
0.453177
-0.0339614
1.03267
2.34433
1.22064
0.465554
-0.71544
0.103467
0.399748
-0.597997
1.97146
-63.3626
27.7151
-13.6467
15.6017
7.38956
19.1145
8.61581
4.01103
0.543447
0.0811853
0.96868
1.90195
0.973569
0.480481
-0.441631
0.0239208
0.342334
-0.719589
-1.07807
-87.0233
26.0571
-16.9514
14.0217
4.98052
18.1091
8.37236
4.00636
0.730379
0.221379
0.869855
1.52989
0.793538
0.490014
-0.242396
-0.0235472
0.250016
-0.881457
-0.877542
-115.272
24.0243
-18.7837
12.6853
3.74205
17.3406
8.11235
3.95793
0.940096
0.368447
0.758033
1.20516
0.66284
0.500241
-0.0991038
-0.0648566
0.156716
-0.795348
-0.797886
-146.758
21.3178
-17.908
11.3027
3.76566
16.7192
7.6716
3.81322
1.04842
0.46986
0.690004
1.0027
0.574381
0.508079
-0.00105211
-0.0969225
0.0744929
-0.885053
-0.829665
-187.997
18.484
-14.199
9.38799
4.57048
16.2582
6.75253
3.48741
1.09769
0.517836
0.6508
0.895353
0.510651
0.508461
0.0577102
-0.124543
-0.00579654
-0.860861
-0.866813
-228.042
14.0033
-5.33374
7.01463
5.85352
15.9102
5.1627
2.91542
1.10147
0.533933
0.622025
0.788056
0.454835
0.497132
0.0836077
-0.152802
-0.0805417
-0.879651
-0.884875
-300.115
10.7734
8.49655
4.67725
7.47163
15.3117
2.9706
2.22529
1.0534
0.525706
0.594926
0.677562
0.406096
0.471484
0.0868984
-0.182686
-0.153549
-0.895496
-0.916644
-332.766
0.465379
32.8879
3.08039
9.41305
14.5058
1.02428
1.75685
0.941233
0.50234
0.563496
0.581859
0.356999
0.435599
0.0803509
-0.204797
-0.211849
-0.887425
-0.941761
-511.57
-0.683146
59.0625
3.41247
11.3885
13.9161
0.50883
1.54138
0.769537
0.465188
0.520958
0.504016
0.317085
0.389814
0.0613967
-0.235311
-0.274336
-0.895257
-0.966402
-399.306
-35.4117
100.933
5.52281
10.6724
13.4825
0.96027
1.36005
0.554155
0.393529
0.452765
0.435858
0.281267
0.3208
0.00768912
-0.315911
-0.389668
-0.992305
-1.09556
-1096.81
-20.0147
132.013
10.9627
6.22947
13.1356
1.87516
1.15332
0.427454
0.328195
0.38532
0.375573
0.218426
0.258834
-0.0133597
-0.310353
-0.397755
-0.91964
-1.02609
121.339
-141.53
191.215
46.1812
13.0303
10.6744
3.06721
1.09267
0.5128
0.330393
0.357326
0.327921
0.176271
0.241813
0.0515691
-0.149131
-0.21861
-0.589334
-0.665376
-3623.91
-50.4118
124.439
42.7007
4.43051
3.64303
1.11872
0.530033
-0.258626
0.13292
0.18269
0.204474
0.151207
0.0746703
-0.207881
-0.673964
-0.853658
-1.51825
-1.74315
5967
-475.933
-369.509
-16.7852
-14.4588
-0.604263
-2.52851
-0.389106
-1.31752
-0.207904
-0.0978401
0.0112596
0.170181
-0.169826
-0.576525
-1.3345
-1.63636
-2.64099
-3.06447
99.384
98.7199
98.3631
97.4713
96.5682
95.6022
94.6192
93.6042
92.5871
91.5793
90.5503
89.6094
88.5194
87.3178
86.2337
85.1744
84.247
83.2414
82.6153
81.3665
79.4746
79.9367
80.1167
80.3377
80.4985
80.6007
80.6745
80.6921
80.687
80.6332
80.5618
80.4562
80.306
80.1299
79.9485
79.7385
79.5517
79.3305
79.1476
78.8916
88.1476
87.8614
87.7186
87.5172
87.3588
87.1721
87.003
86.8174
86.6399
86.4499
86.2658
86.0675
85.8809
85.6735
85.4822
85.2655
85.0801
84.8508
84.6904
84.3974
85.2383
85.2525
85.2609
85.2508
85.2553
85.2356
85.2262
85.1987
85.1762
85.1398
85.1064
85.0605
85.0188
84.9624
84.9165
84.8488
84.8028
84.7246
84.6797
84.5767
87.2636
87.1564
87.1188
87.0385
86.9895
86.9184
86.8639
86.797
86.7396
86.6741
86.6153
86.549
86.4906
86.4216
86.3656
86.2912
86.2414
86.158
86.1193
86.0109
87.3115
87.2579
87.2452
87.2002
87.1794
87.1385
87.1117
87.0729
87.0421
87.0037
86.9708
86.9312
86.8978
86.8553
86.8239
86.776
86.7499
86.6933
86.6772
86.6041
88.165
88.0935
88.0734
88.0181
87.9889
87.9406
87.9067
87.8623
87.8261
87.7837
87.7466
87.7046
87.6684
87.6249
87.5917
87.544
87.5171
87.4614
87.446
87.3747
88.6696
88.6092
88.5935
88.5458
88.5219
88.4801
88.4516
88.4133
88.3822
88.3457
88.3135
88.2774
88.2458
88.2082
88.1792
88.1376
88.1146
88.0651
88.0531
87.9896
89.2883
89.2271
89.2104
89.1626
89.1379
89.0962
89.0673
89.0294
88.9981
88.9622
88.93
88.8949
88.8632
88.8271
88.7981
88.7583
88.7352
88.6878
88.6757
88.6146
89.8307
89.7734
89.7577
89.7127
89.6895
89.6503
89.623
89.5873
89.5576
89.5241
89.4933
89.4607
89.4302
89.3968
89.3687
89.3318
89.3094
89.2651
89.2534
89.1956
90.3732
90.3179
90.3024
90.2589
90.2362
90.1984
90.1718
90.1375
90.1086
90.0765
90.0464
90.0154
89.9854
89.954
89.9261
89.8915
89.869
89.8272
89.8154
89.7601
90.8846
90.8322
90.8172
90.7758
90.754
90.7181
90.6925
90.6599
90.6322
90.6017
90.5727
90.5436
90.5143
90.4851
90.4575
90.4255
90.4031
90.3641
90.352
90.2996
91.3774
91.3274
91.3127
91.2733
91.2521
91.2178
91.1932
91.162
91.1354
91.1064
91.0784
91.0509
91.0224
90.9952
90.9678
90.9385
90.9158
90.8797
90.8673
90.8177
91.8488
91.8015
91.787
91.7495
91.7291
91.6963
91.6727
91.6429
91.6172
91.5896
91.5626
91.5365
91.5088
91.4835
91.4563
91.4296
91.4064
91.3735
91.3603
91.3136
92.2991
92.255
92.241
92.2058
92.1865
92.1554
92.1331
92.1049
92.0804
92.0543
92.0285
92.0039
91.977
91.9536
91.9264
91.9025
91.8784
91.8489
91.8345
91.7909
92.7174
92.6768
92.6633
92.6306
92.613
92.5839
92.5635
92.5377
92.5151
92.4913
92.4677
92.4451
92.4204
92.3994
92.3732
92.353
92.3281
92.3031
92.2875
92.2479
93.1126
93.0753
93.0606
93.0283
93.0121
92.9837
92.9635
92.9392
92.9171
92.8945
92.8722
92.8508
92.828
92.8087
92.7842
92.7682
92.7425
92.7243
92.7084
92.6742
93.5119
93.4846
93.4733
93.4408
93.4279
93.4023
93.3826
93.3601
93.3379
93.315
93.2915
93.2676
93.2425
93.2186
93.1903
93.1701
93.136
93.1209
93.0947
93.0571
93.7859
93.7769
93.792
93.7713
93.7715
93.7642
93.7595
93.7543
93.7486
93.7422
93.7345
93.7251
93.7131
93.6983
93.678
93.657
93.6185
93.5972
93.5253
93.4684
93.7514
93.6931
93.7312
93.7419
93.7594
93.7771
93.796
93.8167
93.8394
93.8644
93.8923
93.9233
93.9581
93.9969
94.0404
94.0894
94.1421
94.2108
94.2521
94.4152
8.21584
8.34679
8.12382
8.11658
8.1055
8.07364
8.19167
8.13502
8.22374
8.39626
6.62706
7.10261
9.01229
0.560811
-2.3847
0.0460778
6.75021
-19.5542
-11.0258
-3.5644
-28.3852
-21.5139
-18.0555
-13.8881
-10.6702
-6.39726
-1.38139
-5.07803
8.22428
8.64065
11.8545
13.0517
13.939
13.3681
12.1857
10.2693
2.96099
-11.0559
-12.3457
-20.1853
-21.6106
-10.8518
-28.0177
-20.3068
-26.0027
-19.1123
-9.98177
-22.2034
-15.4746
-17.8289
-13.6396
-9.99178
-16.7404
-14.0926
-15.2221
-19.4477
-19.5157
-19.8748
-19.8254
-19.8826
44.2441
30.9481
18.248
29.5482
32.7714
31.0206
29.6163
25.361
17.9152
14.4948
15.7554
22.1375
37.8623
57.816
55.8225
6.30188
-70.0986
-69.1067
-31.0354
44.0376
29.9236
16.9162
29.6847
32.8916
30.918
29.3859
24.485
16.7659
13.8578
15.4581
21.7042
36.9653
56.6857
54.1828
3.80008
-74.847
-74.5225
-32.9569
43.7939
28.7334
15.1201
30.08
33.2651
30.8116
27.6169
21.8736
15.2995
13.227
14.8037
20.7268
35.221
54.2535
50.8991
-0.340033
-81.1498
-83.3435
-37.2248
43.7792
27.3802
13.1664
30.1054
33.2879
30.1967
24.7801
19.0564
13.5748
12.3191
13.8729
19.2051
32.6027
50.6218
46.3288
-5.67568
-88.5426
-92.7866
-41.9663
44.1325
25.8846
11.7812
29.3879
32.6683
28.7856
21.6005
16.2276
11.8666
11.284
12.7247
17.24
29.2226
45.8804
40.8144
-11.7157
-95.8355
-101.76
-46.7763
45.0087
26.3195
11.7075
27.9703
31.0148
26.9688
18.4024
13.6508
10.2851
10.2443
11.477
14.9551
25.2721
40.3038
34.7857
-17.8687
-102.368
-109.391
-52.3034
46.3502
29.597
13.7138
26.999
29.0923
25.1445
15.5115
11.5265
9.00341
9.24895
10.2173
12.5358
21.0582
34.3051
28.6194
-23.6265
-107.388
-114.973
-56.6383
47.1723
33.499
17.0145
26.886
27.4088
23.5058
13.1006
9.71125
8.04358
8.31056
9.06425
10.2622
17.0632
28.4404
22.7524
-28.4425
-110.529
-118.065
-59.567
47.2242
36.5661
20.0464
26.927
25.958
22.1182
11.2029
8.1144
7.33828
7.50228
8.23525
8.5816
13.8832
23.2588
17.5411
-31.805
-111.402
-118.431
-60.5853
46.8798
38.7421
22.3986
26.9184
24.7099
21.0107
9.84386
6.88074
6.83071
7.03117
7.97942
7.79735
11.7964
18.9704
13.1619
-33.4562
-109.494
-116.353
-58.7893
46.4172
39.9322
23.8667
26.827
23.6515
20.2254
9.04126
6.02468
6.43907
6.71434
7.93676
7.43895
10.3096
15.2818
9.55982
-33.5117
-105.339
-111.657
-56.3326
45.658
40.0847
24.3901
26.5812
22.7757
19.7814
8.54313
5.25758
5.95454
6.28489
7.84983
7.04754
8.75676
11.8025
6.59073
-32.0216
-99.909
-105.484
-50.1948
44.8798
39.4231
23.9119
26.1298
22.0837
19.662
8.20833
4.58737
5.39025
5.6782
7.72777
6.56693
7.01585
8.53171
4.14514
-29.1526
-91.6083
-96.6021
-48.3902
44.8128
38.6218
22.6928
25.536
21.5871
19.8526
8.12952
4.07046
4.84545
5.00322
7.54975
6.1282
5.45609
5.91078
2.43515
-25.563
-85.2885
-87.95
-38.653
45.4921
38.3274
21.1464
24.9271
21.3025
20.345
8.43196
3.76525
4.48656
4.35015
7.07039
5.89022
4.61094
4.45935
1.45057
-20.8196
-73.6426
-77.7661
-31.6929
45.7617
38.192
19.4735
24.3901
21.229
21.1056
9.251
3.79825
4.42245
3.93903
6.26163
5.85856
4.55565
4.11369
0.845426
-16.2843
-56.7567
-56.3589
-9.11424
44.4479
37.7813
17.6985
23.9498
21.335
21.9593
10.0229
4.18588
4.23559
3.60015
5.61626
5.83416
4.61561
3.75316
0.0182586
-12.6415
-40.7492
-33.0599
5.98983
41.074
36.9831
15.7997
23.5989
21.5805
22.9178
10.3696
4.51667
3.89149
3.2694
5.02486
5.70245
4.62838
2.75658
-1.59343
-10.0108
-28.4893
-14.1569
9.61255
35.7335
35.8335
13.7306
23.284
21.8954
23.5199
10.8173
4.55306
3.25798
2.82522
4.51532
5.41939
4.44517
1.04457
-3.89831
-7.74492
-20.9614
-2.11559
10.7978
28.7432
34.5538
11.4207
23.0148
22.3142
23.6447
10.9699
4.57883
2.52793
2.20377
4.07982
5.02275
3.93882
-0.245383
-5.21001
-5.35481
-15.4531
3.1962
13.0012
681.344
598.693
549.511
493.229
444.145
396.752
352.655
310.975
271.728
234.638
199.546
166.264
134.609
104.592
76.3699
49.2111
23.4204
3.02202
-20.8682
-58.124
-5.9393
-28.7724
-20.7655
-32.0474
-34.8941
-41.6724
-46.6881
-52.0029
-56.5588
-60.5715
-63.7933
-66.1677
-67.5785
-67.9344
-67.1474
-64.9684
-61.5379
-58.2866
-55.7969
-54.5434
-30.2473
-38.0282
-30.347
-37.9984
-36.6891
-40.808
-42.8832
-46.299
-49.4588
-52.9707
-56.5087
-60.1595
-63.8011
-67.2819
-70.3071
-72.3894
-72.8261
-72.6573
-73.1171
-71.9283
-39.7793
-44.0527
-41.8357
-48.395
-47.9172
-52.5456
-54.2896
-57.4279
-59.7491
-62.1549
-64.2284
-66.0708
-67.5885
-68.6692
-69.1279
-68.5833
-66.9822
-64.5301
-62.9387
-59.9022
-42.2291
-43.6754
-40.0002
-42.7951
-38.9124
-40.0068
-37.6825
-36.9008
-35.2014
-33.5817
-31.7372
-29.7414
-27.619
-25.3726
-23.0663
-20.6481
-18.2788
-15.7357
-13.6203
-10.6053
-15.7202
-14.8401
-11.1006
-12.0183
-7.82406
-7.79358
-4.78472
-3.50947
-1.3956
0.281009
1.95342
3.3793
4.50745
5.24954
5.65406
5.95078
6.62743
7.947
9.31266
10.624
6.9245
7.38628
9.42613
8.23116
10.7798
9.91373
11.6048
11.4084
12.1232
12.0407
12.0133
11.6459
11.1665
10.5616
9.94111
9.3385
8.776
8.18105
8.01439
6.82361
5.33274
2.53567
3.26926
0.44829
1.21967
-1.02412
-0.871191
-2.43197
-2.89872
-4.08407
-4.94665
-6.13638
-7.45594
-9.21693
-11.3901
-13.9515
-16.4338
-17.7839
-19.0604
-23.0689
-39.3141
-44.8601
-45.6836
-50.2635
-51.8363
-56.1171
-58.6065
-62.7114
-65.9829
-69.9616
-73.414
-76.7952
-79.5743
-81.8514
-83.407
-84.3514
-84.6615
-84.5125
-85.0536
-84.6536
-75.3636
-79.4501
-79.3239
-82.2989
-82.642
-85.2902
-86.1335
-88.2398
-89.3607
-90.7744
-91.5026
-91.8919
-91.7037
-91.0836
-90.101
-88.794
-87.4134
-85.6715
-84.1814
-80.7869
-66.1909
-66.1037
-64.3415
-64.6447
-62.8071
-62.6783
-61.1432
-60.4275
-59.1361
-58.0389
-56.7495
-55.41
-53.9701
-52.4115
-50.7624
-48.8797
-46.906
-44.3106
-42.0058
-38.5862
-38.5656
-36.4822
-34.2787
-33.2885
-31.068
-29.9249
-28.0159
-26.5676
-24.9053
-23.3414
-21.7714
-20.2105
-18.665
-17.0975
-15.5357
-13.8972
-12.3253
-10.5747
-9.25345
-7.28053
-18.3322
-15.9073
-13.8723
-12.5305
-10.6049
-9.41266
-7.79786
-6.51014
-5.15229
-3.8785
-2.64089
-1.42593
-0.230215
0.981128
2.20297
3.50791
4.79011
6.24821
7.33801
8.87175
2.74891
4.98133
6.35472
7.56358
8.97452
9.88877
11.098
12.0511
13.0811
14.0698
15.0837
16.1321
17.2242
18.3562
19.5188
20.7047
21.86
23.0667
23.9098
25.0043
20.2555
22.1561
23.0575
24.3213
25.5275
26.6323
27.9607
29.1005
30.2336
31.093
31.598
31.5515
30.8552
29.4609
27.6777
26.0074
25.2618
25.2658
25.8151
25.5603
37.2147
37.3593
36.7163
36.8084
36.6706
36.1585
35.4691
34.3043
32.7982
30.7485
28.2087
25.1421
21.613
17.7882
14.1332
11.2032
9.34488
8.4467
8.73351
7.1844
24.6323
21.655
18.5854
15.828
13.1882
10.7746
8.76698
6.78616
4.87152
2.85967
0.8014
-1.3664
-3.60348
-5.83007
-7.88313
-9.58558
-10.4582
-9.83349
-9.52151
-13.3578
-15.8736
-22.422
-27.373
-31.1336
-34.8673
-38.8439
-43.1454
-47.8062
-52.5956
-57.3096
-61.7054
-65.6854
-69.1003
-71.8023
-73.7163
-74.7613
-75.0226
-75.5787
-76.917
-78.5504
-85.2576
-87.6693
-87.2346
-86.1477
-86.2453
-86.869
-87.9479
-89.3541
-90.8619
-92.3304
-93.6531
-94.8148
-95.7559
-96.456
-96.9394
-97.1511
-97.2164
-96.8257
-96.4446
-94.5742
-49.2869
-47.48
-45.9445
-44.7834
-45.5594
-47.4602
-50.2343
-53.3594
-56.5763
-59.7846
-62.6216
-65.4496
-67.8741
-69.4987
-70.4887
-70.7144
-70.2433
-68.4711
-66.6572
-64.1697
)
;

boundaryField
{
    outletWallLeft
    {
        type            fixedValue;
        value           uniform 0;
    }
    fineWallsLeft
    {
        type            zeroGradient;
    }
    fineFrontAndBackLeft
    {
        type            zeroGradient;
    }
    fineplugLeft
    {
        type            cyclicAMI;
        value           nonuniform List<scalar> 
20
(
79.2762
83.8304
78.7707
77.6751
77.1442
76.6422
76.0707
75.4489
74.9841
74.254
74.0903
77.0464
70.5422
69.5463
68.8907
68.136
67.6433
66.7456
67.0911
65.202
)
;
    }
    symmetryWallLeft
    {
        type            cyclicAMI;
        value           nonuniform List<scalar> 
20
(
8.21626
13.317
4.54485
-12.2178
-4.11746
-4.94294
-0.4235
3.70838
4.8246
3.86443
1.82527
2.15871
4.51484
10.8819
23.5504
22.1101
22.8131
10.1151
33.8352
24.7449
)
;
    }
    inletOutletLeft
    {
        type            cyclicAMI;
        value           nonuniform List<scalar> 
20
(
65.202
67.0911
66.7456
67.6433
68.136
68.8907
69.5463
70.5422
77.0464
74.0903
74.254
74.9841
75.4489
76.0707
76.6422
77.1442
77.6751
78.7707
83.8304
79.2762
)
;
    }
    inletLeft
    {
        type            zeroGradient;
    }
    inletWallsLeft
    {
        type            zeroGradient;
    }
    inletFacesLeft
    {
        type            zeroGradient;
    }
    fineWallsRight
    {
        type            zeroGradient;
    }
    outletWallRight
    {
        type            zeroGradient;
    }
    fineplugRight
    {
        type            cyclicAMI;
        value           nonuniform List<scalar> 
20
(
-57.0128
-57.6285
-58.388
-58.9723
-58.7056
-57.6704
-55.8752
-55.3149
-56.8918
-48.3691
-45.4567
-42.6507
-39.8998
-37.5139
-35.531
-34.3936
-35.2345
-38.9668
-43.3989
-43.4666
)
;
    }
    fineFrontAndBackRight
    {
        type            zeroGradient;
    }
    symmetryWallRight
    {
        type            cyclicAMI;
        value           nonuniform List<scalar> 
20
(
8.21626
13.317
4.54485
-12.2178
-4.11746
-4.94294
-0.4235
3.70838
4.8246
3.86443
1.82527
2.15871
4.51484
10.8819
23.5504
22.1101
22.8131
10.1151
33.8352
24.7449
)
;
    }
    inletOutletRight
    {
        type            cyclicAMI;
        value           nonuniform List<scalar> 
20
(
-57.0128
-57.6285
-58.388
-58.9723
-58.7056
-57.6704
-55.8752
-55.3149
-56.8918
-48.3691
-45.4567
-42.6507
-39.8998
-37.5139
-35.531
-34.3936
-35.2345
-38.9668
-43.3989
-43.4666
)
;
    }
    inletRight
    {
        type            zeroGradient;
    }
    inletWallsRight
    {
        type            zeroGradient;
    }
    inletFacesRight
    {
        type            zeroGradient;
    }
}


// ************************************************************************* //
