/*--------------------------------*- C++ -*----------------------------------*\
| =========                 |                                                 |
| \\      /  F ield         | OpenFOAM: The Open Source CFD Toolbox           |
|  \\    /   O peration     | Version:  4.1                                   |
|   \\  /    A nd           | Web:      www.OpenFOAM.org                      |
|    \\/     M anipulation  |                                                 |
\*---------------------------------------------------------------------------*/
FoamFile
{
    version     2.0;
    format      ascii;
    class       volVectorField;
    location    "13";
    object      U;
}
// * * * * * * * * * * * * * * * * * * * * * * * * * * * * * * * * * * * * * //

dimensions      [0 1 -1 0 0 0 0];

internalField   nonuniform List<vector> 
1680
(
(-6.86078e-19 1.91436 -0.0319271)
(2.81604e-18 1.4119 -0.0200699)
(-1.70319e-17 1.40331 -0.0440034)
(5.23419e-17 1.20027 -0.0081784)
(-2.89861e-16 1.48885 -0.086708)
(-4.3538e-16 1.55497 -0.176518)
(-3.16882e-16 1.30169 -0.114413)
(-3.47321e-16 1.54949 -0.194117)
(-3.53976e-16 1.73784 -0.311241)
(-1.75223e-16 1.36883 -0.204392)
(-1.64684e-16 1.96497 -0.396655)
(-1.17037e-16 1.554 -0.278102)
(-1.47379e-16 1.79003 -0.424223)
(-1.80624e-16 2.07502 -0.650551)
(-1.31004e-16 1.73381 -0.417468)
(-1.75516e-16 2.30826 -0.770985)
(-1.35353e-16 2.13108 -0.472173)
(-1.5301e-16 1.70091 -0.978576)
(-1.75012e-16 4.18813 -0.41379)
(-1.03686e-16 0.57043 -2.91978)
(-1.47449e-16 3.091 2.05446)
(4.4688e-16 1.5438 -1.3114)
(-1.65942e-15 4.02574 6.30162)
(-2.00726e-15 4.54415 7.26496)
(-2.02725e-15 4.73077 8.151)
(-2.92751e-15 4.85509 8.94746)
(-2.81137e-15 5.01325 9.6511)
(-2.69887e-15 5.08001 10.2563)
(-2.80948e-15 5.24151 10.8138)
(-2.9598e-15 5.14707 11.21)
(-3.02904e-15 5.55121 11.8592)
(-2.39802e-15 4.96533 9.90756)
(-3.50841e-15 7.00126 13.48)
(-3.48569e-15 7.13744 13.8562)
(-3.58266e-15 7.20211 14.1506)
(-3.58291e-15 7.1906 14.4047)
(-3.61811e-15 7.31449 14.6558)
(-3.66752e-15 7.15397 14.7706)
(-3.43379e-15 7.52411 15.5997)
(-4.13587e-15 7.15324 14.2918)
(-4.10143e-15 9.84003 15.8355)
(-2.65029e-15 6.87225 11.3696)
(-2.43952e-15 5.92673 10.6999)
(-3.08817e-15 6.31321 13.7765)
(-2.12975e-15 4.53822 9.8053)
(-2.08379e-15 4.25492 9.62206)
(-2.03229e-15 3.4919 9.35959)
(-2.43172e-15 3.01736 10.9578)
(-1.57122e-15 1.91303 7.112)
(-1.61971e-15 1.73749 7.03051)
(-8.37257e-16 0.373114 5.65849)
(-1.19266e-16 0.648436 2.25158)
(1.07294e-15 -0.158859 1.51655)
(-2.4618e-15 0.0881449 1.06096)
(2.40556e-14 -0.961363 -5.35115)
(1.72754e-14 -0.248341 -2.4502)
(2.01046e-14 -0.146425 -2.91075)
(1.96974e-14 -0.0450092 -2.90307)
(2.577e-14 0.281355 -3.63358)
(1.82314e-14 2.50104 -3.00057)
(2.81787e-15 -8.39844 3.76534)
(-1.01139e-15 -6.00447 4.89986)
(-2.84622e-15 -5.96485 5.8848)
(-3.37338e-15 -2.1966 5.75554)
(-3.04211e-15 -0.64785 3.55436)
(-1.87829e-15 1.6556 1.82765)
(-1.25343e-15 1.72077 -1.46636)
(-1.16144e-15 1.29304 -2.45072)
(-1.7175e-15 0.34661 -3.43649)
(-2.41675e-15 -0.427658 -4.20916)
(-2.43256e-15 -0.448521 -3.30757)
(-1.29346e-15 -0.337901 -1.34992)
(-8.70487e-18 -1.01606 -1.51182)
(-9.70433e-16 -0.779247 -0.678574)
(-2.26349e-16 1.41788 -1.43438)
(-2.55755e-15 3.79067 4.40261)
(-4.20847e-15 5.23963 12.4732)
(2.95409e-15 3.31873 12.0311)
(1.59081e-14 0.792632 3.42332)
(3.39453e-15 -9.16882 3.3014)
(-6.64347e-16 -6.2248 4.40268)
(-3.27409e-15 -6.1495 5.97957)
(-4.16184e-15 -1.95157 6.3656)
(-2.77058e-15 -0.293417 3.93349)
(-1.16844e-15 2.21562 2.39371)
(-4.13751e-16 2.11339 -0.970506)
(-1.71552e-16 1.44814 -1.333)
(-5.72867e-16 0.529205 -2.00341)
(-1.76663e-15 -0.392943 -3.33297)
(-2.29442e-15 -0.669536 -3.04719)
(-1.29318e-15 -0.49895 -1.35833)
(-8.99593e-18 -1.0284 -1.18094)
(-3.38704e-16 -0.613091 -1.36872)
(1.26037e-16 1.15151 -1.87143)
(-1.54419e-16 2.38173 0.502824)
(-3.61541e-15 4.04069 9.52657)
(-4.91377e-15 4.0476 14.1505)
(2.39703e-15 3.33666 8.67783)
(3.8226e-15 -9.89966 3.14526)
(-3.64944e-16 -6.47628 4.07312)
(-3.62081e-15 -6.44464 6.03018)
(-4.36635e-15 -1.70882 6.80007)
(-1.71026e-15 0.081127 4.13385)
(-7.6109e-16 2.71368 2.92613)
(1.55588e-16 2.42881 -0.363979)
(-1.70134e-17 1.49652 -0.378507)
(-4.02914e-16 0.711824 -0.776856)
(-1.19801e-15 -0.275111 -2.08478)
(-2.01686e-15 -0.826475 -2.35492)
(-1.15789e-15 -0.653845 -1.08635)
(-3.94263e-17 -1.00804 -0.851777)
(-1.3302e-17 -0.478469 -1.55131)
(-4.64054e-17 1.09246 -1.21095)
(1.32429e-16 1.53972 -0.497741)
(-1.17705e-15 2.53886 5.58484)
(-3.82116e-15 3.58018 12.7191)
(-4.08166e-15 4.46277 12.2989)
(4.09584e-15 -10.6468 3.39225)
(-2.06943e-16 -6.70695 3.93523)
(-3.75474e-15 -6.80167 5.92289)
(-3.85892e-15 -1.47581 7.04171)
(-6.82911e-16 0.398878 4.46012)
(-6.82469e-16 3.18446 3.33694)
(4.01028e-16 2.73291 0.203841)
(-2.54906e-16 1.5404 0.155468)
(-8.62025e-16 0.875176 -0.304081)
(-1.09177e-15 -0.0947226 -0.952369)
(-1.83896e-15 -0.888622 -1.55852)
(-9.48966e-16 -0.752082 -0.707892)
(-4.83703e-17 -0.95896 -0.63189)
(5.73141e-17 -0.472311 -1.43905)
(2.29724e-17 0.911106 -1.13672)
(-8.30707e-17 1.08156 -0.355757)
(-7.94015e-16 1.35693 2.27045)
(-2.33298e-15 2.68424 9.4475)
(-3.0868e-15 4.83524 13.095)
(4.24757e-15 -11.4563 3.89522)
(-1.93643e-16 -6.86051 3.939)
(-3.66078e-15 -7.19138 5.66979)
(-3.12072e-15 -1.28714 7.277)
(-5.58274e-16 0.701535 4.83668)
(-8.24951e-16 3.64761 3.54049)
(4.54115e-16 3.02922 0.619844)
(-3.69018e-16 1.61276 0.504272)
(-1.14055e-15 0.96536 -0.0234194)
(-1.20249e-15 -0.0190293 0.122215)
(-1.78579e-15 -0.884662 -0.871189)
(-6.97405e-16 -0.79618 -0.373304)
(-3.41413e-17 -0.888214 -0.500152)
(4.29958e-17 -0.417295 -1.26712)
(3.81861e-18 0.814738 -1.0375)
(1.84099e-17 0.931797 -0.386403)
(-8.81861e-17 0.57193 -0.353401)
(-1.59394e-15 1.36744 3.93128)
(-3.14033e-15 4.33586 10.3663)
(4.31376e-15 -12.3627 4.39935)
(-2.68276e-16 -6.90887 4.0322)
(-3.43242e-15 -7.61004 5.33162)
(-2.69192e-15 -1.15214 7.48918)
(-1.06989e-15 1.02006 4.83213)
(-1.08093e-15 4.10419 3.42754)
(3.85909e-16 3.30589 0.839316)
(-3.87469e-16 1.68278 0.7433)
(-1.23042e-15 0.992928 0.352325)
(-1.7886e-15 -0.133535 0.750079)
(-1.71466e-15 -0.781404 -0.367649)
(-3.82057e-16 -0.785279 -0.148075)
(-5.80602e-18 -0.803283 -0.421175)
(2.12472e-17 -0.343906 -1.11778)
(1.68647e-18 0.718198 -0.92284)
(-2.77628e-18 0.905202 -0.400387)
(1.67632e-17 0.613087 -0.424241)
(-8.44705e-17 0.304495 -1.03061)
(-2.03822e-15 3.40783 4.5347)
(4.31505e-15 -13.3476 4.69924)
(-3.67619e-16 -6.86114 4.22497)
(-3.17272e-15 -8.04121 4.94545)
(-2.65336e-15 -1.01857 7.54298)
(-1.68757e-15 1.38326 4.18249)
(-1.39012e-15 4.5235 2.8879)
(2.15472e-16 3.53476 0.815848)
(-2.94313e-16 1.72462 0.852907)
(-1.09511e-15 1.00514 0.655891)
(-1.94899e-15 -0.0165192 0.934509)
(-1.54984e-15 -0.657946 0.0381545)
(-1.15486e-16 -0.748409 -0.0730881)
(2.01536e-17 -0.716435 -0.37847)
(9.00373e-18 -0.286263 -0.973459)
(4.46002e-20 0.640857 -0.835771)
(5.99335e-20 0.855565 -0.380519)
(-1.68951e-18 0.634832 -0.482514)
(2.85741e-17 0.416635 -0.222501)
(-5.93963e-17 0.320015 -2.78993)
(4.25419e-15 -14.4314 4.70604)
(-4.47363e-16 -6.73154 4.58439)
(-2.93815e-15 -8.45638 4.51691)
(-2.85102e-15 -0.814143 7.30191)
(-2.16791e-15 1.80125 2.73555)
(-1.77498e-15 4.85154 1.88686)
(-9.19122e-17 3.68357 0.475227)
(-1.52836e-16 1.72622 0.823119)
(-7.38323e-16 0.987597 0.841419)
(-1.16762e-15 0.000752255 1.17305)
(-1.0036e-15 -0.541368 0.48167)
(1.50642e-17 -0.681601 -0.0953699)
(2.34921e-17 -0.644447 -0.335301)
(3.91027e-18 -0.236022 -0.828426)
(-1.28629e-19 0.57904 -0.752008)
(2.2201e-20 0.830139 -0.381778)
(2.35934e-19 0.625108 -0.48083)
(-1.00265e-17 0.71786 -0.420133)
(-6.8106e-18 1.0327 -3.4971)
(4.11998e-15 -15.529 4.40947)
(-4.82967e-16 -6.56345 5.23342)
(-2.74126e-15 -8.7909 4.03867)
(-3.09453e-15 -0.472473 6.79646)
(-2.42864e-15 2.28647 0.930382)
(-2.33897e-15 5.04692 0.507235)
(-6.29167e-16 3.71758 -0.243385)
(-6.54104e-17 1.66206 0.640498)
(-3.79407e-16 0.93535 0.880745)
(-2.73418e-16 0.00206377 1.21157)
(-2.32096e-16 -0.393276 0.730937)
(1.23013e-17 -0.535137 -0.0745009)
(9.44811e-18 -0.587762 -0.253092)
(1.95768e-18 -0.190367 -0.690937)
(2.07709e-20 0.531585 -0.680002)
(-2.13742e-20 0.803396 -0.3746)
(2.81627e-19 0.659287 -0.473025)
(-3.28518e-18 0.81713 -0.591294)
(4.39528e-17 0.906675 -0.906488)
(3.89896e-15 -16.822 3.84871)
(-4.57791e-16 -6.33547 6.23449)
(-2.56841e-15 -9.02002 3.5128)
(-3.29035e-15 0.0534376 6.24815)
(-2.62758e-15 2.878 -0.290132)
(-3.03343e-15 5.16086 -1.04819)
(-1.43943e-15 3.62921 -1.2872)
(-1.31957e-16 1.50933 0.27648)
(-1.46233e-16 0.891471 0.757398)
(-5.27684e-17 0.0249871 0.836851)
(1.97213e-16 -0.291287 0.555317)
(-7.96041e-18 -0.493927 -0.0404191)
(8.20922e-19 -0.545811 -0.170319)
(5.51402e-19 -0.142292 -0.571348)
(2.65332e-21 0.497081 -0.615894)
(-4.20369e-21 0.785199 -0.366638)
(9.68883e-20 0.682503 -0.472231)
(-2.99438e-18 0.868922 -0.495875)
(3.10351e-17 0.999902 -1.48894)
(3.57843e-15 -17.9343 3.02822)
(-3.68614e-16 -6.17294 7.74105)
(-2.3981e-15 -9.04442 2.94618)
(-3.45197e-15 0.628902 5.89906)
(-2.74898e-15 3.58819 -0.85811)
(-3.52321e-15 5.30715 -2.57291)
(-2.3188e-15 3.43199 -2.47621)
(-4.23359e-16 1.2652 -0.242367)
(-1.95018e-18 0.828114 0.573989)
(-6.1571e-17 0.0410514 0.655828)
(1.38461e-16 -0.221932 0.240208)
(-2.85419e-18 -0.422183 -0.0172708)
(-3.25211e-19 -0.515366 -0.136381)
(1.84871e-20 -0.0902753 -0.471526)
(-1.29301e-21 0.47298 -0.559484)
(-1.70102e-22 0.770024 -0.357033)
(6.27552e-20 0.703223 -0.452824)
(-1.70714e-18 0.94163 -0.495218)
(2.65676e-17 1.04249 -0.93841)
(3.1623e-15 -19.7809 2.01342)
(-2.17615e-16 -5.84735 9.54708)
(-2.20287e-15 -8.94534 2.36103)
(-3.35658e-15 1.03435 5.67139)
(-2.18548e-15 4.43934 -1.53964)
(-3.31723e-15 5.53155 -3.89656)
(-2.83212e-15 3.14254 -3.49567)
(-8.32548e-16 0.923772 -0.691203)
(3.50484e-17 0.71376 0.409735)
(7.56907e-18 0.0616716 0.588038)
(1.50274e-17 -0.173293 0.0917453)
(-3.21294e-19 -0.356902 0.0032355)
(-2.80698e-20 -0.490778 -0.145437)
(1.98086e-20 -0.0263175 -0.39857)
(1.17906e-21 0.458525 -0.510224)
(-1.33027e-21 0.759151 -0.345445)
(3.55881e-20 0.723443 -0.436157)
(-1.08791e-18 0.962807 -0.451314)
(2.01337e-17 1.08025 -0.798092)
(2.6618e-15 -20.3864 0.749232)
(-5.62623e-17 -5.9714 12.1974)
(-1.95477e-15 -8.40467 1.71294)
(-2.49416e-15 1.41022 5.51782)
(-4.78975e-16 5.44652 -2.53583)
(-2.00471e-15 5.7506 -4.57066)
(-2.51644e-15 2.7792 -3.65532)
(-9.86895e-16 0.523363 -0.582155)
(1.93448e-17 0.575387 0.341653)
(2.45047e-18 0.0829184 0.517292)
(-2.81876e-18 -0.149458 0.0357691)
(-9.94916e-21 -0.331472 0.0123365)
(1.07065e-20 -0.470244 -0.166865)
(-2.84164e-22 0.0228793 -0.350161)
(-3.67778e-22 0.450529 -0.467172)
(-1.04995e-22 0.750995 -0.332536)
(1.52415e-20 0.739319 -0.413474)
(-6.27275e-19 0.99791 -0.415823)
(1.52093e-17 1.09474 -0.744306)
(2.11031e-15 -24.2956 -0.515069)
(8.06255e-17 -5.15327 14.4088)
(-1.61592e-15 -7.85566 1.06617)
(-5.93584e-16 1.79413 5.05675)
(1.88362e-15 6.47715 -3.69352)
(1.29603e-17 5.80089 -3.86012)
(-1.39526e-15 2.30935 -2.24967)
(-5.60072e-16 0.122611 0.422771)
(1.80318e-17 0.503174 0.310457)
(-3.57717e-18 0.101138 0.478223)
(5.73554e-19 -0.138235 -0.00624781)
(2.44938e-20 -0.323926 0.0077517)
(-2.07154e-21 -0.44141 -0.181347)
(-9.16115e-22 0.0594297 -0.312157)
(-8.45785e-23 0.442738 -0.428687)
(-1.0906e-22 0.740031 -0.317859)
(7.1227e-21 0.747886 -0.387379)
(-3.46689e-19 1.00657 -0.377554)
(1.25085e-17 1.09959 -0.55468)
(1.59573e-15 -21.3972 -2.08669)
(7.90304e-17 -6.68389 19.2961)
(-1.15606e-15 -6.25718 -0.00531564)
(1.3286e-15 2.0302 3.02328)
(3.666e-15 7.29089 -5.15641)
(1.48648e-15 5.49162 -1.67906)
(-3.2805e-16 1.78996 0.046338)
(2.0527e-17 -0.0243007 1.24356)
(4.15755e-18 0.56001 0.253236)
(1.06912e-20 0.123121 0.459888)
(-6.06821e-20 -0.0735744 -0.00834709)
(-3.51142e-21 -0.36 -0.0116994)
(-2.36513e-21 -0.428823 -0.18537)
(1.68015e-22 0.089088 -0.283361)
(4.73826e-23 0.440099 -0.393968)
(-2.29383e-23 0.734395 -0.301105)
(2.70635e-21 0.757743 -0.357689)
(-1.9839e-19 1.01437 -0.33464)
(1.10291e-17 1.1066 -0.44904)
(9.49121e-16 -34.6708 -2.5565)
(2.38818e-17 -3.0625 19.6496)
(-7.22208e-16 -5.02699 -0.692532)
(1.09968e-15 2.44149 -3.55719)
(3.94256e-15 7.57119 -7.66845)
(1.73806e-15 4.7985 0.173962)
(7.66002e-19 1.63328 0.917194)
(4.26012e-17 0.173047 0.901791)
(-3.31508e-18 0.658137 0.226081)
(1.14002e-19 0.164085 0.433341)
(5.84154e-21 -0.00398054 0.0112318)
(5.76014e-22 -0.450577 -0.0356255)
(-7.52841e-22 -0.411502 -0.17781)
(-9.58585e-23 0.13512 -0.258158)
(-6.64888e-24 0.456624 -0.358876)
(-6.28864e-24 0.749448 -0.279481)
(1.04909e-21 0.787814 -0.321583)
(-1.05293e-19 1.0469 -0.29152)
(8.1363e-18 1.1317 -0.419262)
(1.20579e-15 -12.4387 -6.15737)
(-7.4788e-17 -10.4319 33.2466)
(-2.69676e-16 0.066815 -4.06135)
(-7.0362e-16 3.49157 -12.5696)
(3.02036e-15 6.8619 -12.2819)
(1.58095e-15 3.78614 -0.680362)
(-4.76195e-19 1.60497 0.431624)
(-8.0551e-20 0.22249 0.528256)
(-3.12147e-19 0.645555 0.202818)
(4.04867e-20 0.170471 0.395415)
(-2.54355e-21 0.0274442 0.0355546)
(-2.38824e-22 -0.304252 0.0168357)
(-1.39788e-22 -0.371168 -0.16961)
(5.40943e-24 0.147291 -0.226743)
(1.34591e-24 0.439186 -0.317422)
(-1.87262e-24 0.715077 -0.24933)
(3.31154e-22 0.759783 -0.27649)
(-4.25255e-20 1.00741 -0.246989)
(5.1208e-18 1.08491 -0.28242)
(-1.82564e-15 -72.3045 5.92258)
(7.77398e-16 5.02635 15.9222)
(-4.58105e-15 -0.0187365 -4.15849)
(-3.72062e-15 1.74218 -20.9883)
(2.00099e-15 4.79227 -17.2567)
(1.72982e-15 2.33032 -3.31194)
(2.22007e-17 1.1363 0.141915)
(-3.72838e-18 0.0707887 0.393851)
(3.41757e-19 0.542371 0.163738)
(-1.75005e-20 0.0974309 0.370935)
(5.64529e-22 -0.0256081 0.0554337)
(4.1812e-23 -0.321693 0.0696525)
(-1.89227e-23 -0.379038 -0.143348)
(-1.95988e-24 0.10676 -0.206922)
(-1.42241e-25 0.371168 -0.28179)
(1.46811e-26 0.622739 -0.216983)
(2.98879e-24 0.666414 -0.233263)
(-3.73888e-21 0.893017 -0.208049)
(1.34522e-18 0.961672 -0.25085)
(9.28057e-15 54.5192 -44.8746)
(-1.09407e-14 -23.402 72.5469)
(-1.75472e-14 12.1587 -18.6988)
(-7.51988e-15 7.17312 -24.4627)
(1.65846e-15 3.81363 -14.166)
(1.72149e-15 0.650972 -2.91999)
(3.42934e-17 1.09004 0.227182)
(6.24171e-19 0.30451 0.418373)
(-1.59037e-20 0.844563 0.118967)
(-7.79499e-22 0.252171 0.372167)
(1.077e-23 0.140781 0.0759377)
(-8.5906e-24 -0.168376 0.122978)
(-2.22814e-24 -0.316793 -0.129892)
(1.93866e-25 0.250785 -0.207137)
(2.57951e-26 0.54726 -0.250287)
(9.75029e-26 0.871945 -0.178738)
(-1.93929e-23 0.955304 -0.190368)
(2.47919e-21 1.23783 -0.170105)
(-2.95902e-19 1.32924 -0.0964511)
(-4.04373e-14 -211.395 173.558)
(-2.69127e-15 25.9738 -45.0539)
(-6.66734e-15 29.9934 -21.0776)
(2.43756e-16 4.19326 4.89767)
(8.57811e-16 2.25662 1.74016)
(-1.62264e-16 -0.261693 1.19899)
(6.99655e-19 1.29968 0.0658845)
(1.61599e-19 0.505421 0.224431)
(-1.30685e-20 0.985231 0.0367217)
(7.40965e-22 0.377982 0.196741)
(-5.98099e-24 0.247225 0.0464842)
(1.04816e-24 -0.0222445 0.0947501)
(-2.84261e-25 -0.532604 -0.167176)
(-3.70265e-26 0.327053 -0.120318)
(-1.86871e-27 0.650321 -0.117228)
(-9.4024e-27 0.99493 -0.0753254)
(3.11059e-24 1.10219 -0.0820849)
(-4.78907e-22 1.40299 -0.0728988)
(5.45015e-20 1.50958 -0.119936)
(-5.96431e-18 5.21118 9.54816)
(-5.78409e-15 9.83365 16.8054)
(-4.71563e-15 9.96979 17.053)
(-4.83644e-15 9.70087 16.3411)
(-4.89374e-15 9.65149 16.1655)
(-7.10173e-15 9.70134 16.12)
(-5.42247e-15 9.72142 16.0933)
(-4.65113e-15 9.7523 16.0657)
(-4.68509e-15 9.75793 16.044)
(-4.91445e-15 9.78816 16.0424)
(-4.5093e-15 9.7708 16.021)
(-4.83493e-15 9.69544 15.8263)
(-4.71238e-15 9.74183 15.9754)
(-4.54381e-15 9.74969 16.0414)
(-4.75275e-15 9.73658 16.0708)
(-4.51914e-15 9.69375 16.1166)
(-4.4745e-15 9.68345 16.1187)
(-4.30583e-15 9.78378 16.5194)
(-3.98593e-15 10.2952 17.1929)
(-6.46436e-15 6.39384 11.1626)
(1.08589e-16 4.83468 8.10905)
(-4.81869e-15 9.24717 15.8033)
(-3.9016e-15 9.09858 15.5705)
(-4.03092e-15 8.78364 15.0279)
(-3.9725e-15 8.76878 15.0335)
(-6.28381e-15 8.80741 15.0671)
(-4.41664e-15 8.81443 15.0999)
(-3.88924e-15 8.83816 15.1217)
(-3.97689e-15 8.851 15.1532)
(-4.15336e-15 8.86737 15.1765)
(-3.82464e-15 8.88538 15.2107)
(-4.09435e-15 8.9248 15.2812)
(-3.7738e-15 8.93748 15.2788)
(-3.85881e-15 8.94056 15.3062)
(-4.31325e-15 8.96328 15.3329)
(-3.84937e-15 8.95782 15.3685)
(-3.92751e-15 8.98446 15.393)
(-3.96972e-15 9.16549 15.7813)
(-3.41561e-15 9.55351 16.4074)
(-5.74413e-15 5.68271 9.89064)
(-8.76708e-18 5.5161 9.60076)
(-1.85791e-15 9.60868 16.4321)
(-1.57038e-15 9.29865 16.0233)
(-1.63818e-15 9.05701 15.5437)
(-1.40238e-15 9.02284 15.5304)
(-3.73661e-15 9.04142 15.5291)
(-2.09086e-15 9.02957 15.5343)
(-1.68606e-15 9.03688 15.53)
(-1.72849e-15 9.03019 15.5337)
(-1.74614e-15 9.03427 15.5348)
(-1.62726e-15 9.03145 15.5379)
(-1.88476e-15 9.02511 15.5334)
(-1.83163e-15 9.02768 15.5452)
(-1.90333e-15 9.02484 15.5571)
(-1.90578e-15 9.0315 15.5607)
(-1.72034e-15 9.01555 15.5727)
(-1.87109e-15 9.03277 15.5721)
(-1.93092e-15 9.20323 15.9463)
(-1.51865e-15 9.60241 16.5536)
(-2.74943e-15 5.79285 10.1609)
(-8.80507e-19 5.57949 9.60906)
(4.07972e-16 9.47031 16.2535)
(3.44077e-16 9.11959 15.7264)
(3.85242e-16 8.90047 15.3092)
(3.41146e-16 8.8803 15.3178)
(-2.23581e-15 8.89996 15.3263)
(-1.7092e-15 8.89136 15.3399)
(-1.73354e-15 8.90047 15.3436)
(-2.01444e-15 8.89645 15.3547)
(-1.77532e-15 8.90161 15.3608)
(-1.69745e-15 8.90096 15.3706)
(-1.78471e-15 8.90444 15.3815)
(-2.0088e-15 8.90685 15.3877)
(-1.9257e-15 8.90408 15.3993)
(-1.87561e-15 8.9118 15.4047)
(-1.43424e-15 8.89972 15.4164)
(-1.7786e-15 8.9159 15.4184)
(-1.90259e-15 9.0931 15.7834)
(-1.46882e-15 9.4839 16.4128)
(-2.83872e-15 5.8046 10.1447)
(8.17169e-19 5.85134 10.1271)
(-9.60963e-17 9.52614 16.3464)
(-7.91828e-17 9.11398 15.7354)
(-8.80498e-17 8.92507 15.3618)
(-8.1529e-17 8.9037 15.3717)
(5.08526e-16 8.91901 15.3744)
(4.60498e-16 8.90746 15.3835)
(3.99904e-16 8.91323 15.3835)
(4.13872e-16 8.90637 15.3904)
(4.14471e-16 8.90875 15.393)
(3.8865e-16 8.90521 15.3987)
(4.42677e-16 8.90449 15.403)
(4.24003e-16 8.90431 15.408)
(4.33768e-16 8.9007 15.4157)
(4.4489e-16 8.90521 15.4182)
(3.9922e-16 8.8928 15.4257)
(4.28998e-16 8.90546 15.4227)
(4.39133e-16 9.06559 15.7567)
(3.61473e-16 9.47765 16.4225)
(6.22811e-16 5.96726 10.4462)
(-3.25736e-19 6.02163 10.4006)
(2.28071e-17 9.49019 16.3002)
(1.91551e-17 9.04862 15.624)
(1.99357e-17 8.88221 15.2957)
(1.96581e-17 8.86582 15.3104)
(-1.26613e-16 8.88019 15.314)
(-1.11674e-16 8.87008 15.3241)
(-9.83381e-17 8.87596 15.3255)
(-9.08423e-17 8.87003 15.3334)
(-1.06617e-16 8.8727 15.3369)
(-9.46372e-17 8.86959 15.3436)
(-1.04537e-16 8.86996 15.349)
(-9.75275e-17 8.86958 15.3544)
(-1.02959e-16 8.86688 15.3621)
(-1.08255e-16 8.87069 15.3655)
(-1.04435e-16 8.86047 15.3732)
(-9.86968e-17 8.87021 15.3692)
(-1.00384e-16 9.01374 15.6679)
(-8.86561e-17 9.4463 16.3793)
(-1.37713e-16 6.12733 10.7169)
(1.04678e-19 6.22405 10.7541)
(-5.41108e-18 9.4833 16.2914)
(-4.66893e-18 9.01369 15.567)
(-4.56651e-18 8.87005 15.2784)
(-4.79814e-18 8.85533 15.2946)
(3.04338e-17 8.86793 15.2968)
(2.62151e-17 8.85792 15.3057)
(2.38563e-17 8.86287 15.3067)
(2.15246e-17 8.85686 15.3136)
(2.56994e-17 8.85894 15.3165)
(2.20276e-17 8.85547 15.3224)
(2.52846e-17 8.85556 15.3268)
(2.37966e-17 8.85445 15.3318)
(2.41802e-17 8.85217 15.3383)
(2.53804e-17 8.85475 15.3416)
(2.52689e-17 8.846 15.3484)
(2.34148e-17 8.85301 15.3431)
(2.24255e-17 8.97799 15.6047)
(2.19281e-17 9.42789 16.3501)
(3.14862e-17 6.3085 11.0315)
(-3.02113e-20 6.40984 11.0677)
(1.27235e-18 9.45624 16.2516)
(1.11996e-18 8.97031 15.4925)
(1.0633e-18 8.8474 15.2429)
(1.15928e-18 8.83512 15.2605)
(-7.08215e-18 8.84651 15.2625)
(-6.02546e-18 8.83738 15.2711)
(-5.79577e-18 8.84197 15.2724)
(-5.29678e-18 8.83652 15.2793)
(-6.01378e-18 8.83853 15.2823)
(-5.17999e-18 8.83526 15.2883)
(-5.99258e-18 8.83567 15.2926)
(-5.79707e-18 8.8343 15.2979)
(-5.68869e-18 8.8328 15.3039)
(-5.88775e-18 8.83454 15.3079)
(-5.82308e-18 8.82763 15.3145)
(-5.52291e-18 8.8324 15.3091)
(-5.14537e-18 8.93998 15.535)
(-5.45176e-18 9.40039 16.3041)
(-7.4262e-18 6.48778 11.339)
(8.30322e-21 6.59958 11.3921)
(-2.96549e-19 9.42935 16.21)
(-2.65257e-19 8.93386 15.4303)
(-2.49258e-19 8.83067 15.2169)
(-2.77478e-19 8.81991 15.2348)
(1.63537e-18 8.83004 15.2362)
(1.38895e-18 8.82155 15.2442)
(1.40219e-18 8.82559 15.2456)
(1.30931e-18 8.82053 15.252)
(1.41578e-18 8.82227 15.255)
(1.26234e-18 8.81909 15.2607)
(1.38714e-18 8.8196 15.2647)
(1.38956e-18 8.8179 15.27)
(1.35611e-18 8.81702 15.2754)
(1.36189e-18 8.81785 15.2797)
(1.33214e-18 8.81259 15.286)
(1.31187e-18 8.81538 15.2808)
(1.23081e-18 8.9064 15.4726)
(1.3532e-18 9.37025 16.2524)
(1.74259e-18 6.66906 11.6512)
(-2.23067e-21 6.78563 11.7085)
(6.90873e-20 9.3944 16.1551)
(6.28825e-20 8.89789 15.3685)
(5.85129e-20 8.8129 15.1892)
(6.65416e-20 8.80353 15.2068)
(-3.78802e-19 8.81252 15.208)
(-3.26853e-19 8.80481 15.2155)
(-3.35071e-19 8.80839 15.2172)
(-3.18689e-19 8.80384 15.2233)
(-3.35484e-19 8.80538 15.2263)
(-3.1423e-19 8.80242 15.2319)
(-3.17894e-19 8.80306 15.2357)
(-3.29216e-19 8.80116 15.2411)
(-3.26278e-19 8.80092 15.2461)
(-3.16548e-19 8.80093 15.2509)
(-3.09603e-19 8.79733 15.2567)
(-3.1566e-19 8.79844 15.2524)
(-3.01059e-19 8.87432 15.4125)
(-3.30511e-19 9.33404 16.1901)
(-4.00469e-19 6.84899 11.9604)
(5.86277e-22 6.97117 12.0246)
(-1.61473e-20 9.35484 16.0919)
(-1.50104e-20 8.86505 15.3122)
(-1.38066e-20 8.79681 15.1641)
(-1.60444e-20 8.78842 15.181)
(8.84043e-20 8.79633 15.1821)
(7.82807e-20 8.78936 15.189)
(7.89071e-20 8.79243 15.1909)
(7.61171e-20 8.78838 15.1966)
(7.9309e-20 8.78966 15.1996)
(7.82052e-20 8.78693 15.205)
(7.34767e-20 8.78762 15.2087)
(7.75572e-20 8.78556 15.2141)
(7.84596e-20 8.78589 15.2186)
(7.45957e-20 8.7851 15.2238)
(7.31151e-20 8.78305 15.2291)
(7.61065e-20 8.78268 15.2261)
(7.35582e-20 8.84487 15.3569)
(7.91696e-20 9.29288 16.1192)
(9.05243e-20 7.02828 12.2686)
(-1.49895e-22 7.15505 12.3375)
(3.76882e-21 9.30932 16.0185)
(3.59304e-21 8.83431 15.2594)
(3.28621e-21 8.78116 15.1399)
(3.86482e-21 8.77356 15.1556)
(-2.07683e-20 8.78049 15.1566)
(-1.883e-20 8.77425 15.1631)
(-1.84275e-20 8.77685 15.1651)
(-1.79677e-20 8.77332 15.1705)
(-1.86596e-20 8.77431 15.1736)
(-1.9215e-20 8.77189 15.1787)
(-1.73424e-20 8.77258 15.1823)
(-1.82382e-20 8.77045 15.1878)
(-1.87039e-20 8.77126 15.1918)
(-1.78257e-20 8.76976 15.1974)
(-1.7378e-20 8.76918 15.2021)
(-1.82034e-20 8.76751 15.2007)
(-1.77592e-20 8.81761 15.305)
(-1.87755e-20 9.24624 16.039)
(-2.03715e-20 7.20648 12.5748)
(3.73826e-23 7.33781 12.6486)
(-8.73823e-22 9.25843 15.9358)
(-8.57148e-22 8.80613 15.2109)
(-7.86773e-22 8.76639 15.1171)
(-9.23682e-22 8.75937 15.1314)
(4.88504e-21 8.76539 15.1324)
(4.51118e-21 8.75987 15.1384)
(4.30515e-21 8.76198 15.1406)
(4.23164e-21 8.75898 15.1456)
(4.38291e-21 8.75966 15.1488)
(4.63374e-21 8.75758 15.1537)
(4.17309e-21 8.75818 15.1572)
(4.29059e-21 8.75607 15.1626)
(4.41264e-21 8.75726 15.1663)
(4.28586e-21 8.75515 15.1722)
(4.1277e-21 8.75592 15.1763)
(4.31453e-21 8.75307 15.1767)
(4.23808e-21 8.79275 15.2572)
(4.46354e-21 9.1943 15.9497)
(4.60972e-21 7.38373 12.8792)
(-9.20204e-24 7.51935 12.9575)
(2.01461e-22 9.20193 15.8434)
(2.03265e-22 8.78032 15.1666)
(1.88294e-22 8.75224 15.0953)
(2.18858e-22 8.74566 15.1081)
(-1.14449e-21 8.75086 15.1091)
(-1.07493e-21 8.74604 15.1147)
(-1.01096e-21 8.74768 15.117)
(-1.00035e-21 8.74522 15.1216)
(-1.03103e-21 8.74556 15.1249)
(-1.0954e-21 8.74387 15.1295)
(-1.01163e-21 8.74433 15.133)
(-1.01071e-21 8.74235 15.1383)
(-1.03437e-21 8.74378 15.1418)
(-1.02768e-21 8.74119 15.1479)
(-9.78047e-22 8.74317 15.1514)
(-1.01784e-21 8.73925 15.1537)
(-1.00404e-21 8.77025 15.2133)
(-1.06893e-21 9.13696 15.8513)
(-1.05297e-21 7.56001 13.1816)
(2.26488e-24 7.69989 13.2645)
(-4.64946e-23 9.13994 15.7414)
(-4.79701e-23 8.75696 15.1265)
(-4.4861e-23 8.73879 15.0745)
(-5.16422e-23 8.73253 15.0858)
(2.66786e-22 8.73698 15.0868)
(2.55043e-22 8.73284 15.0919)
(2.38544e-22 8.734 15.0945)
(2.37541e-22 8.73207 15.0987)
(2.43041e-22 8.73208 15.1021)
(2.54602e-22 8.73079 15.1064)
(2.4405e-22 8.73102 15.1099)
(2.38335e-22 8.7293 15.115)
(2.42265e-22 8.73078 15.1183)
(2.44589e-22 8.72793 15.1246)
(2.31366e-22 8.7309 15.1275)
(2.40056e-22 8.72602 15.1316)
(2.36889e-22 8.75009 15.1733)
(2.56892e-22 9.07422 15.7438)
(2.42432e-22 7.73532 13.4819)
(-5.60738e-25 7.87976 13.5703)
(1.08125e-23 9.07251 15.6298)
(1.12957e-23 8.73615 15.0909)
(1.06382e-23 8.72619 15.055)
(1.21998e-23 8.72015 15.0647)
(-6.20669e-23 8.72389 15.0658)
(-6.03008e-23 8.72046 15.0704)
(-5.64194e-23 8.72111 15.0732)
(-5.64974e-23 8.71967 15.077)
(-5.73341e-23 8.71938 15.0804)
(-5.85691e-23 8.71843 15.0844)
(-5.82153e-23 8.71841 15.088)
(-5.62179e-23 8.71702 15.0927)
(-5.68877e-23 8.71832 15.096)
(-5.77688e-23 8.71548 15.1022)
(-5.46944e-23 8.7191 15.1047)
(-5.67032e-23 8.71342 15.1105)
(-5.56971e-23 8.73226 15.1373)
(-6.15944e-23 9.00613 15.6274)
(-5.60316e-23 7.90969 13.7799)
(1.39313e-25 8.05938 13.8752)
(-2.53783e-24 8.99947 15.5081)
(-2.66009e-24 8.7178 15.0597)
(-2.51559e-24 8.71456 15.0366)
(-2.89204e-24 8.70878 15.0447)
(1.44743e-23 8.71174 15.0461)
(1.42186e-23 8.70917 15.0501)
(1.33484e-23 8.7093 15.053)
(1.34186e-23 8.7083 15.0565)
(1.3514e-23 8.70781 15.0599)
(1.34516e-23 8.70712 15.0635)
(1.37251e-23 8.70686 15.0672)
(1.32591e-23 8.70588 15.0715)
(1.33911e-23 8.70673 15.0749)
(1.35724e-23 8.70428 15.0809)
(1.29302e-23 8.708 15.0831)
(1.34096e-23 8.70176 15.0904)
(1.30459e-23 8.71698 15.1053)
(1.47033e-23 8.93309 15.5027)
(1.29451e-23 8.08318 14.0753)
(-3.45068e-26 8.23966 14.1804)
(5.98741e-25 8.92059 15.3748)
(6.26858e-25 8.70165 15.0324)
(5.9369e-25 8.70362 15.0189)
(6.86784e-25 8.69851 15.0253)
(-3.38906e-24 8.70034 15.0269)
(-3.34704e-24 8.69873 15.0302)
(-3.15441e-24 8.6984 15.033)
(-3.17673e-24 8.6977 15.0361)
(-3.17869e-24 8.69712 15.0394)
(-3.10748e-24 8.69657 15.0428)
(-3.20661e-24 8.69617 15.0464)
(-3.12482e-24 8.69557 15.0503)
(-3.15107e-24 8.69586 15.054)
(-3.17829e-24 8.69426 15.0594)
(-3.05674e-24 8.69726 15.0619)
(-3.17088e-24 8.6913 15.0701)
(-3.04392e-24 8.70425 15.0762)
(-3.50031e-24 8.85558 15.3705)
(-2.98159e-24 8.25515 14.3662)
(8.56853e-27 8.42319 14.4926)
(-1.42624e-25 8.83808 15.2311)
(-1.49256e-25 8.69069 15.012)
(-1.41179e-25 8.69522 15.0051)
(-1.6437e-25 8.69182 15.0089)
(8.04495e-25 8.69212 15.0105)
(7.96051e-25 8.69115 15.0126)
(7.51588e-25 8.69035 15.0148)
(7.57923e-25 8.68951 15.0171)
(7.53525e-25 8.68863 15.0197)
(7.32637e-25 8.68775 15.0224)
(7.52202e-25 8.68689 15.0254)
(7.43052e-25 8.68605 15.0287)
(7.46733e-25 8.68543 15.0321)
(7.49968e-25 8.68433 15.0364)
(7.29919e-25 8.68532 15.0397)
(7.56643e-25 8.68104 15.0469)
(7.14985e-25 8.69107 15.0483)
(8.4178e-25 8.77265 15.2324)
(6.89791e-25 8.42326 14.6449)
(-1.78507e-27 8.61058 14.8239)
(2.83832e-26 8.7527 15.0801)
(2.98507e-26 8.69281 15.0032)
(2.81173e-26 8.695 15.0014)
(3.30611e-26 8.69442 15.0021)
(-1.59862e-25 8.69407 15.0026)
(-1.59483e-25 8.69366 15.0031)
(-1.5032e-25 8.69305 15.0038)
(-1.51769e-25 8.69232 15.0046)
(-1.50085e-25 8.69143 15.0056)
(-1.46972e-25 8.69038 15.0067)
(-1.48141e-25 8.68914 15.008)
(-1.48323e-25 8.68772 15.0095)
(-1.48287e-25 8.68604 15.0113)
(-1.48513e-25 8.68417 15.0133)
(-1.46551e-25 8.68208 15.0156)
(-1.51799e-25 8.67892 15.0189)
(-1.41105e-25 8.67938 15.02)
(-1.70972e-25 8.69418 15.0844)
(-1.33673e-25 8.5934 14.8933)
(1.67278e-14 -2.30136 -2.84266)
(1.26739e-14 -0.521779 -3.22484)
(7.09356e-15 0.0220069 -2.68797)
(6.64017e-15 0.106288 -2.65028)
(5.96952e-15 0.249738 -2.80946)
(2.85436e-15 0.287016 -2.00592)
(-1.93503e-16 -0.364991 2.10013)
(-9.96649e-17 -0.382221 1.56558)
(-3.95152e-16 -0.481529 1.96669)
(-1.43941e-15 -1.1479 4.84576)
(-2.21089e-15 -1.94165 5.97832)
(-2.50751e-15 -2.12232 6.41036)
(-4.17179e-15 -3.42485 10.457)
(-3.64456e-15 -3.87413 9.01025)
(-3.84989e-15 -4.64894 9.17699)
(-3.72124e-15 -4.7844 9.2265)
(-3.90637e-15 -6.81174 13.002)
(-1.71462e-15 -6.81249 9.77543)
(-4.6101e-16 -7.2122 10.0506)
(2.24371e-15 -9.38091 12.8677)
(3.18135e-15 -8.62246 9.31083)
(3.10904e-15 -9.00132 9.85666)
(3.04746e-15 -9.07332 9.88197)
(2.78918e-15 -9.19461 10.1727)
(2.52623e-15 -9.28752 10.4889)
(2.17216e-15 -9.32262 10.8917)
(1.83746e-15 -9.29326 11.3422)
(1.57904e-15 -9.562 11.7677)
(3.44981e-15 -8.37285 10.9319)
(1.49049e-15 -8.60229 12.2363)
(1.31461e-15 -8.55901 12.8021)
(1.06219e-15 -8.3495 13.2635)
(7.83131e-16 -8.19416 13.6869)
(4.95666e-16 -7.97837 13.9913)
(3.5256e-16 -7.73839 14.122)
(4.95663e-16 -7.37317 13.87)
(3.72864e-16 -6.98941 12.6699)
(3.01622e-16 -6.58148 9.81414)
(2.48789e-15 -2.1098 -2.07669)
(8.44079e-16 -4.91564 2.5851)
(2.23061e-15 -3.87504 -0.510698)
(2.31256e-15 -6.03585 1.51794)
(2.0482e-15 -5.49137 0.165368)
(1.58421e-15 -4.86294 -0.0781547)
(2.20664e-15 -6.44943 -0.31045)
(1.50607e-15 -4.45788 -0.656008)
(2.32356e-15 -5.64996 -1.1038)
(1.82972e-15 -4.81189 -1.72419)
(1.40698e-15 -3.85783 -1.58166)
(1.98405e-15 -4.80347 -2.34819)
(1.27693e-15 -2.80813 -1.89115)
(1.98559e-15 -3.44801 -2.91716)
(1.36432e-15 -2.09816 -2.56704)
(9.37767e-16 -1.12968 -1.78531)
(1.28089e-15 -1.31279 -2.66057)
(4.72597e-16 -0.274278 -1.17582)
(2.67313e-16 0.470689 -0.789563)
(-3.52733e-16 0.51248 1.72118)
(9.13425e-16 0.357841 1.61146)
(-4.88498e-15 0.589188 3.56345)
(1.23205e-15 0.409174 -1.69111)
(2.54794e-15 0.1723 -5.00143)
(2.08137e-15 -0.370368 -4.61247)
(8.74366e-16 -0.175507 -0.23723)
(1.86962e-15 0.28473 -0.150126)
(1.76156e-15 0.215359 -1.51357)
(5.06027e-16 -0.171584 0.270526)
(1.15882e-15 -0.508961 5.60871)
(1.64705e-15 -0.323337 8.89808)
(1.71414e-15 -0.0553599 9.65306)
(1.66173e-15 0.0466001 9.36648)
(1.6354e-15 0.123737 8.64599)
(1.62502e-15 0.286637 6.64471)
(1.67677e-15 0.548849 2.73923)
(1.82672e-15 0.68615 -3.1134)
(2.03792e-15 0.665198 -9.59369)
(2.25938e-15 -0.0430698 -15.064)
(1.8208e-15 -0.940935 -11.1008)
(-1.37303e-15 -0.479896 1.03838)
(2.71634e-15 1.04056 -1.42749)
(4.70737e-15 0.525705 -4.30682)
(4.54646e-15 -0.747942 -5.57639)
(3.00468e-15 -0.561803 -2.55314)
(2.85222e-15 0.0718403 -1.93695)
(1.68954e-15 -0.366539 0.106087)
(1.17503e-15 -1.25508 5.96992)
(1.57799e-15 -1.20325 10.7471)
(1.33815e-15 -0.454282 11.3192)