/*--------------------------------*- C++ -*----------------------------------*\
| =========                 |                                                 |
| \\      /  F ield         | OpenFOAM: The Open Source CFD Toolbox           |
|  \\    /   O peration     | Version:  4.1                                   |
|   \\  /    A nd           | Web:      www.OpenFOAM.org                      |
|    \\/     M anipulation  |                                                 |
\*---------------------------------------------------------------------------*/
FoamFile
{
    version     2.0;
    format      ascii;
    class       volScalarField;
    location    "25";
    object      p;
}
// * * * * * * * * * * * * * * * * * * * * * * * * * * * * * * * * * * * * * //

dimensions      [0 2 -2 0 0 0 0];

internalField   nonuniform List<scalar> 
1280
(
0.00966592
0.151579
0.879845
0.876354
1.30981
1.67141
1.34519
1.52372
2.21153
2.09615
0.859599
2.29903
1.88523
-0.424795
1.62844
0.660432
-2.78424
-1.1605
-0.584114
-11.0497
-1.73788
17.3968
37.6719
43.9157
44.9947
49.8088
25.8638
49.2216
50.6285
50.7669
50.587
50.0364
49.224
48.8298
49.6132
51.5587
55.6041
59.4315
65.1269
62.5713
7.78016
46.7054
54.0033
55.5522
68.4928
69.1803
69.9383
70.7344
72.4382
71.9321
71.94
73.0438
66.4155
62.8625
62.9098
68.0115
42.0235
38.6095
26.3396
-9.57265
53.9671
57.2488
50.8851
46.835
42.3341
40.4298
39.9553
40.9085
42.0991
43.0816
43.7204
43.6191
43.7675
35.671
60.8036
55.2005
52.8728
44.9776
24.6256
7.03612
-0.0760568
10.2939
16.9039
20.6965
22.4281
26.0705
26.1923
26.2569
26.3961
26.4684
25.0324
23.1469
22.039
18.8691
17.1648
15.2656
11.2692
5.51568
0.541585
3.63043
0.268282
0.750081
1.35572
2.01564
2.36084
2.11432
1.30721
0.275615
-1.10809
-2.54455
-3.15855
-15.0591
-9.67241
-7.24829
-4.8116
-0.719981
2.52231
4.53627
4.54532
0.658198
1.7851
2.98618
3.61721
3.03361
2.06462
1.03954
-0.35296
-2.34071
-3.61267
-7.6656
-21.4547
-12.8063
-6.87591
-0.442493
7.8744
12.851
15.6961
12.9981
0.977306
2.68667
4.63212
5.90845
5.55269
4.33604
2.6344
0.246923
-3.17211
-7.11378
-17.5932
-25.3097
-14.7485
-6.60404
1.49437
12.0957
18.7413
22.8331
19.7443
1.2785
3.5052
5.99286
7.49257
6.80518
5.31383
3.3166
0.416347
-3.7459
-9.4201
-26.0446
-30.8002
-18.8192
-7.46999
2.42109
15.5819
24.3898
29.554
25.2464
1.59289
4.31744
7.26479
8.97972
8.1981
6.70768
4.46538
1.02351
-3.97494
-11.873
-33.5904
-35.0002
-22.7676
-8.00211
3.77031
19.4394
30.327
36.5896
30.7562
1.92144
5.06627
8.35851
10.1833
9.25792
7.74333
5.34602
1.56296
-3.93664
-13.6185
-38.3588
-36.9437
-25.7594
-8.30288
5.03678
22.8819
35.5103
44.3485
32.614
2.23634
5.6222
9.07378
10.9613
10.253
8.72708
6.26775
2.26681
-3.5531
-14.6412
-40.3367
-36.9762
-27.7111
-8.61927
5.98267
25.6577
39.5558
50.9829
34.0754
2.4885
5.75529
9.27046
11.2049
10.9967
9.50711
7.02464
2.97384
-2.87865
-14.6539
-39.4934
-35.5056
-28.3789
-8.96343
6.69343
27.9948
42.7487
52.5941
45.1273
2.62223
5.29185
8.88915
11.1873
11.2815
10.1703
7.65543
3.69919
-1.93094
-13.6071
-36.2274
-32.7657
-27.6537
-9.2023
6.95897
28.4964
46.8502
51.5775
73.1789
2.58821
4.21663
7.77324
10.8644
11.1937
10.6416
8.15572
4.33564
-0.79688
-11.5901
-31.2505
-28.9268
-25.6639
-9.35069
6.45999
28.0783
45.1796
49.5449
77.3252
2.38494
2.42374
5.96167
9.92673
11.0246
10.5676
8.65635
4.79383
0.427263
-8.77521
-25.2556
-24.5016
-23.0739
-9.51897
5.36326
24.6314
36.4217
38.9862
70.7585
1.98827
-0.158177
3.51735
8.2547
10.6587
9.9553
9.00089
4.97452
1.62074
-5.3594
-18.4198
-19.7241
-20.1461
-9.62385
3.3636
19.3568
29.8133
42.2286
76.1323
1.60398
-3.33497
0.478182
6.07891
9.60836
9.21255
8.46293
4.97058
2.71146
-1.67951
-11.1019
-14.4867
-16.2795
-8.83951
1.66952
14.5751
21.0443
21.5966
28.8048
0.727849
-5.1834
-2.32139
3.6945
7.8705
8.5664
7.13391
5.15131
3.63987
1.78019
-4.30817
-9.23969
-11.546
-6.96598
0.405878
8.26403
7.81165
1.5164
0.493509
-0.138403
-5.78411
-3.49864
1.62394
5.84517
7.69856
5.58713
5.22293
4.11198
4.3733
0.990328
-4.30234
-6.5237
-4.43229
-0.25854
4.29669
6.07486
5.4554
4.08967
-0.902468
-6.38799
-4.31998
-0.185914
3.98425
6.39799
4.5884
4.10263
3.72604
5.75415
4.06318
-0.133717
-2.16113
-1.92536
-0.605545
1.78138
4.82538
4.94402
3.68983
-1.15704
-6.37554
-4.61763
-1.33872
2.53223
4.65212
4.09646
1.82519
2.8267
6.83606
5.60457
2.63076
0.642869
-0.735883
-1.84991
-0.123282
3.19369
3.77029
3.43277
-1.09275
-5.51657
-3.98013
-1.78151
1.4175
2.98196
3.99209
-0.338438
1.83822
7.53654
5.44
3.40679
1.68376
-0.516826
-2.40149
0.592257
1.86653
3.24454
2.71778
-1.35001
-4.20939
-2.65325
-1.21797
0.899702
1.49657
2.38812
-2.31644
1.69114
8.03802
4.24779
2.97539
0.8574
-1.38679
-2.69135
-0.269401
1.30143
2.2601
1.85365
-2.39559
-5.08924
-2.00634
-1.15494
-0.0662275
0.369809
2.22795
0.0993571
1.4742
4.24615
0.603988
1.10335
0.93614
-0.531726
-1.90903
-2.05655
-1.01421
1.05022
1.08863
130.394
129.477
127.381
125.538
122.745
119.873
116.763
113.922
111.205
108.769
106.621
104.76
103.229
101.973
100.944
100.119
99.6558
99.1763
99.2985
98.4404
94.9929
96.3111
95.4318
95.8005
95.8599
96.2781
96.6371
97.039
97.4969
97.9847
98.5063
98.9908
99.3531
99.4689
99.3479
99.0853
99.0714
99.1863
99.7036
99.7299
93.1259
94.4079
94.3052
94.9714
95.2675
95.6093
95.9706
96.247
96.5418
96.8043
97.098
97.4602
97.9548
98.615
99.4468
100.388
101.381
102.38
103.13
103.915
65.2001
67.6808
69.074
70.6845
72.0825
73.2859
74.5746
75.702
76.8417
77.9126
78.9486
79.9542
80.9394
81.9368
82.9591
84.0778
85.2036
86.5088
87.4735
88.8355
46.0697
48.5103
51.318
53.7104
55.9464
57.7269
59.5914
61.2343
62.8545
64.3775
65.8284
67.2149
68.5288
69.7938
70.9829
72.1629
73.232
74.4107
75.248
76.4551
24.6088
26.5452
29.2214
31.1026
33.2201
34.8223
36.7026
38.3924
40.176
41.9462
43.7551
45.6171
47.5327
49.5346
51.5756
53.7075
55.737
57.832
59.3999
61.7687
8.7585
7.77558
7.85821
6.85467
6.82903
6.02814
5.7822
5.1115
4.68151
4.19916
3.90722
3.79725
3.97007
4.56325
5.68012
7.52552
9.88474
12.9343
15.2324
18.6808
16.99
11.7434
10.1946
6.8457
4.86141
1.79199
-0.459541
-3.2571
-5.51497
-7.75545
-9.61752
-11.3394
-12.8779
-14.2567
-15.4457
-16.4379
-17.0247
-16.9263
-16.5922
-13.785
64.5694
58.6489
56.4183
51.8822
49.1088
44.7885
41.3393
37.0869
33.3982
29.6476
26.5253
23.8173
21.8189
20.5201
20.024
20.0664
20.2574
20.3104
19.1601
17.0531
111.864
110.164
110.34
108.926
109.213
108.099
108.081
107.153
106.568
105.359
103.878
101.674
98.742
94.9654
90.6911
86.4606
83.1592
81.8846
81.5461
77.6371
100.727
101.928
102.914
102.846
104.266
104.196
105.264
105.447
105.985
106.12
106.256
106.265
106.262
106.194
106.04
105.666
105.04
104.054
103.869
103.038
86.5619
88.4125
90.5395
90.7484
93.2721
93.7619
95.6678
96.6268
97.9199
98.8535
99.616
100.1
100.352
100.502
100.819
101.537
102.725
104.14
105.249
106.126
60.8465
62.4514
65.2774
65.1585
68.3042
68.7389
71.0578
72.3339
74.1058
75.7193
77.3644
79.0085
80.6238
82.2224
83.7899
85.3995
86.9944
88.7859
90.2344
92.0036
32.3322
32.6774
35.9324
35.0001
38.4466
38.2782
40.752
41.7383
43.5835
45.1819
46.9632
48.8144
50.7504
52.8063
54.94
57.2138
59.4538
61.9593
64.0094
67.1983
9.15281
6.74986
9.20257
6.3539
8.59967
6.45134
7.4313
6.39636
6.45445
5.98476
5.76747
5.576
5.63842
6.18873
7.3877
9.27619
11.3615
13.9416
15.8037
19.2868
22.5896
17.6788
18.7138
13.7776
14.3349
10.6139
9.77266
7.19139
5.54048
3.37408
1.40621
-0.644347
-2.52951
-4.13596
-5.38139
-6.4009
-7.15276
-7.28953
-7.52281
-5.76165
72.3033
66.4386
68.0636
60.5176
59.9811
54.6219
51.9565
47.9699
44.7636
41.4036
38.39
35.6047
33.2465
31.367
29.8602
28.405
26.8221
24.9479
22.0571
20.596
81.4694
74.6334
83.0916
76.3374
78.7755
75.7425
74.9278
72.7801
70.9634
68.8459
66.7733
64.7376
62.9364
61.5232
60.4733
59.6275
59.0645
58.5782
57.7607
56.4537
85.8107
63.8631
72.1436
61.4501
58.9868
52.6557
47.9958
42.9949
38.6681
34.791
31.6127
29.2141
27.7505
27.3591
28.1893
30.0874
32.8246
37.0721
41.6125
42.9528
771.262
688.844
639.822
583.826
535.049
488.046
444.384
403.183
364.432
327.832
293.196
260.314
228.976
199.107
170.739
143.111
116.297
94.0484
69.0982
34.0696
793.789
711.37
662.348
606.351
557.573
510.569
466.905
425.704
386.951
350.35
315.713
282.83
251.49
221.619
193.25
165.619
138.803
116.553
91.6001
56.5729
108.323
86.3752
94.6553
83.9614
81.4974
75.1658
70.505
65.5032
61.1754
57.2972
54.1176
51.7177
50.2525
49.859
50.6869
52.5824
55.317
59.5633
64.1048
65.4441
103.985
97.1502
105.609
98.8558
101.295
98.2624
97.4486
95.3019
93.4863
91.37
89.2989
87.2649
85.4657
84.0541
83.0054
82.1612
81.5999
81.1152
80.3003
78.9948
94.86
88.9962
90.622
83.0772
82.5425
77.1852
74.522
70.5379
67.334
63.9764
60.965
58.1816
55.8247
53.9448
52.4356
50.9777
49.3926
47.5147
44.6176
43.1443
45.1192
40.2041
41.2361
36.2962
36.8496
33.1245
32.279
29.693
28.0372
25.865
23.8908
21.8331
19.9403
18.3262
17.0749
16.051
15.2946
15.1532
14.9134
16.6721
31.5962
29.1869
31.6353
28.7827
31.0234
28.8706
29.8459
28.806
28.8598
28.3855
28.1644
27.9695
28.0302
28.5804
29.7803
31.6686
33.7524
36.329
38.1886
41.6717
54.7355
55.0758
58.3292
57.3946
60.8392
60.6684
63.1407
64.1249
65.9687
67.5654
69.3455
71.1953
73.13
75.1847
77.3171
79.5895
81.8282
84.3334
86.3839
89.5729
83.2282
84.8317
87.6583
87.5392
90.685
91.1197
93.4388
94.7149
96.4869
98.1004
99.7455
101.389
103.005
104.603
106.171
107.781
109.376
111.168
112.616
114.385
108.954
110.802
112.928
113.134
115.655
116.142
118.044
119
120.289
121.22
121.98
122.464
122.718
122.874
123.2
123.926
125.118
126.533
127.641
128.518
123.079
124.282
125.269
125.205
126.627
126.561
127.634
127.824
128.37
128.515
128.661
128.682
128.69
128.63
128.477
128.095
127.457
126.462
126.274
125.444
134.335
132.644
132.823
131.416
131.707
130.598
130.583
129.658
129.073
127.861
126.374
124.162
121.217
117.424
113.13
108.884
105.571
104.287
103.944
100.035
87.0762
81.1557
78.9251
74.3901
71.617
67.2975
63.8494
59.5988
55.9123
52.1643
49.0443
46.3384
44.3414
43.0435
42.5469
42.5855
42.7686
42.811
41.6513
39.5208
39.4178
34.1606
32.605
29.248
27.2539
24.1745
21.9107
19.0996
16.8259
14.5674
12.6846
10.94
9.37715
7.97394
6.76412
5.75631
5.15725
5.24795
5.57627
8.37634
31.0734
30.0714
30.1343
29.1118
29.0676
28.2477
27.9826
27.2923
26.8434
26.3431
26.0356
25.9127
26.0762
26.6649
27.7833
29.6334
31.9955
35.0432
37.3381
40.786
46.818
48.7448
51.4042
53.2723
55.3777
56.9693
58.8399
60.5209
62.2972
64.0615
65.866
67.7254
69.6397
71.6416
73.6835
75.8163
77.8465
79.9417
81.5109
83.88
68.4019
70.8248
73.6196
75.9988
78.224
79.9956
81.8519
83.4876
85.101
86.6177
88.0625
89.4426
90.7499
92.0078
93.1891
94.3606
95.4204
96.5884
97.4165
98.6104
87.2299
89.7188
91.0952
92.6879
94.071
95.2585
96.5307
97.6413
98.7649
99.8207
100.844
101.84
102.819
103.812
104.827
105.933
107.039
108.32
109.262
110.608
116.087
117.291
117.027
117.609
117.838
118.117
118.422
118.66
118.927
119.176
119.465
119.816
120.283
120.881
121.62
122.449
123.326
124.226
124.891
125.613
115.703
117.134
116.122
116.386
116.363
116.742
117.107
117.515
117.967
118.427
118.908
119.337
119.64
119.703
119.56
119.283
119.252
119.36
119.815
119.822
156.94
155.986
153.73
151.84
149.072
146.266
143.323
140.228
136.976
134.054
131.42
129.052
127.001
125.248
123.75
122.442
121.515
120.52
120.147
118.622
)
;

boundaryField
{
    outletWall
    {
        type            fixedValue;
        value           uniform 0;
    }
    fineWalls
    {
        type            zeroGradient;
    }
    fineFrontAndBack
    {
        type            zeroGradient;
    }
    fineplugLeft
    {
        type            cyclicAMI;
        value           nonuniform List<scalar> 
20
(
91.2666
92.4642
91.2273
90.8455
90.407
90.678
91.3446
92.4278
93.8155
95.4145
97.1687
99.0896
100.982
106.427
105.861
107.195
109.214
109.439
107.061
103.967
)
;
    }
    fineplugRight
    {
        type            cyclicAMI;
        value           nonuniform List<scalar> 
20
(
105.691
107.568
106.593
106.579
106.421
107.086
108.19
109.782
111.661
113.753
115.987
118.304
120.936
131.082
129.173
130.297
132.046
131.98
129.714
126.959
)
;
    }
    inletOutletLeft
    {
        type            cyclicAMI;
        value           nonuniform List<scalar> 
20
(
91.2666
92.4642
91.2273
90.8455
90.407
90.678
91.3446
92.4278
93.8155
95.4145
97.1687
99.0896
100.982
106.427
105.861
107.195
109.214
109.439
107.061
103.967
)
;
    }
    inletLeft
    {
        type            zeroGradient;
    }
    inletWallsLeft
    {
        type            zeroGradient;
    }
    inletFacesLeft
    {
        type            zeroGradient;
    }
    inletOutletRight
    {
        type            cyclicAMI;
        value           nonuniform List<scalar> 
20
(
105.691
107.568
106.593
106.579
106.421
107.086
108.19
109.782
111.661
113.753
115.987
118.304
120.936
131.082
129.173
130.297
132.046
131.98
129.714
126.959
)
;
    }
    inletRight
    {
        type            zeroGradient;
    }
    inletWallsRight
    {
        type            zeroGradient;
    }
    inletFacesRight
    {
        type            zeroGradient;
    }
}


// ************************************************************************* //
