/*--------------------------------*- C++ -*----------------------------------*\
| =========                 |                                                 |
| \\      /  F ield         | OpenFOAM: The Open Source CFD Toolbox           |
|  \\    /   O peration     | Version:  4.1                                   |
|   \\  /    A nd           | Web:      www.OpenFOAM.org                      |
|    \\/     M anipulation  |                                                 |
\*---------------------------------------------------------------------------*/
FoamFile
{
    version     2.0;
    format      ascii;
    class       surfaceScalarField;
    location    "25";
    object      phi;
}
// * * * * * * * * * * * * * * * * * * * * * * * * * * * * * * * * * * * * * //

dimensions      [0 3 -1 0 0 0 0];

internalField   nonuniform List<scalar> 
2360
(
-505.552
1585.33
-2090.89
1585.34
1585.33
3825.7
-2240.36
3825.7
3825.7
3825.7
6025.19
-2199.49
6025.19
6025.19
8088.81
-2063.62
8088.81
8088.8
10300.4
-2211.63
10300.4
10300.4
13601.7
-3301.22
13601.7
13601.7
14388.8
15997.6
17662.7
19172.4
20524.6
21769.8
14320.2
8633.24
15422.1
16432.1
17339.9
18135.3
18810.4
19378.4
19888.1
20413.6
21036.5
21810.7
22739.1
23717.8
24468.4
12133.5
12334.9
12133.5
12133.5
12133.5
3100.01
9033.51
3100.01
3100.01
3100.01
-2403.22
5503.23
-2403.22
-2403.22
-11022
8618.75
-11022
-11022
-11022
-20878
9856.07
-20878
-20878
-20878
-28080.6
7202.58
-27302.7
-26311.3
-25376
-24598.7
-23973
-23441.8
-22919.1
-22329.4
-21631.2
-20820.8
-19905.7
-18895.8
-17801.5
-20450.4
3823.07
-19202.4
-17846.4
-16334.6
-14683.3
-13124
-12403.7
-12403.6
-12403.6
-5932.39
-6471.26
-5932.38
-5932.39
-397.432
-5534.95
-397.444
-397.442
3855.48
-4252.93
3855.48
3855.48
7831.38
-3975.91
7831.38
7831.38
7831.38
12002.6
-4171.21
12002.6
12002.6
16625.3
-4622.74
1991.85
-3185.16
1637.53
-5371.62
922.168
-8689.01
-609.308
-11455.3
-2771.7
-11717.8
-4499.77
-11068.8
-5334.94
-11468.2
-5533.02
-13138.8
-5240.49
-15959.5
-4054.69
-17481.1
-1872.35
-7594.57
-700.009
14810.4
-29.6884
23416.8
778.037
27841.6
1712.99
29259.2
2702.69
28149.2
3591.13
23586.7
4420.45
14235.5
-244.394
1560.27
-3021.9
1129.03
-4940.38
249.991
-7809.97
-1458.28
-9747.07
-3318.09
-9858
-4360.26
-10026.6
-4602.16
-11226.2
-4416.58
-13324.4
-4022.91
-16353.2
-3229.74
-18274.3
-1466.82
-9357.49
-724.238
14067.8
-249.348
22941.9
529.073
27063.2
1458.61
28329.7
2481.19
27126.6
3451.95
22616
4200.91
13486.6
-214.697
1368.43
-2889.41
972.352
-4544.3
26.3161
-6863.94
-1596.52
-8124.23
-3072.53
-8381.99
-3881.86
-9217.3
-4189.8
-10918.3
-4132.51
-13381.7
-3801.04
-16684.7
-3218.69
-18856.6
-1910.25
-10665.9
-946.499
13104
-520.331
22515.7
116.152
26426.7
1067.3
27378.5
2101.13
26092.8
3188.53
21528.6
3958.92
12716.2
-231.669
1453.34
-2750.06
985.412
-4076.37
-133.222
-5745.3
-1728.56
-6528.89
-2993.69
-7116.86
-3767.57
-8443.42
-4193.26
-10492.6
-4260.78
-13314.1
-4006.04
-16939.4
-3566.09
-19296.6
-2680.42
-11551.6
-1484.22
11907.8
-910.406
21941.9
-424.723
25941
515.28
26438.5
1553.57
25054.5
2773.61
20308.5
3896.69
11593.1
-587.902
1703.26
-2579.66
1091.78
-3464.89
-250.636
-4402.89
-1838.7
-4940.83
-2979.84
-5975.71
-3793.84
-7629.41
-4339.26
-9947.2
-4517.98
-13135.4
-4372.85
-17084.5
-4172.29
-19497.1
-3754.32
-11969.6
-2421.09
10574.6
-1545.18
21066
-1061.73
25457.6
-232.048
25608.9
838.36
23984.1
2170.45
18976.4
4079.49
9684.05
-2043.36
2070.71
-2374.49
1279.29
-2673.46
-315.836
-2807.76
-1959.64
-3297.02
-3092.11
-4843.25
-3970.88
-6750.64
-4593.35
-9324.74
-4865.21
-12863.6
-4871.53
-17078.2
-4981.04
-19387.6
-5043.99
-11906.6
-3713.35
9243.95
-2452.29
19804.9
-1831.25
24836.6
-1165.15
24942.8
-46.4293
22865.4
1316.04
17614
3895.06
7105.03
-4619.56
2515.33
-2147.27
1558.23
-1716.36
-262.685
-986.847
-2045.79
-1513.92
-3261.89
-3627.15
-4192.18
-5820.35
-4858.9
-8658.01
-5234.09
-12488.4
-5455.42
-16856.9
-5949.64
-18893.4
-6464.3
-11391.9
-5201.31
7980.97
-3655.48
18259.1
-2804.23
23985.3
-2236.31
24374.8
-1167.94
21797
407.766
16038.3
2185.37
5327.43
1388.88
3035.29
-1921.03
2023.48
-704.545
113.528
923.107
-1922.25
521.857
-3381.72
-2167.67
-4404.46
-4797.62
-5126.93
-7935.54
-5638.28
-11977
-6136.39
-16358.8
-7050.1
-17979.7
-7935.16
-10506.9
-6797.47
6843.28
-5163.91
16625.5
-4062.99
22884.4
-3526.68
23838.5
-2474.97
20745.3
148.543
13414.8
-286.48
5762.45
8304.99
3621.6
-1737.99
2708.36
208.695
1047.05
2584.41
-1312.76
2881.67
-3362.52
-117.916
-4584.98
-3575.16
-5393.67
-7126.85
-6062.58
-11308.1
-6873.83
-15547.5
-8209.83
-16643.7
-9389.4
-9327.32
-8458.54
5912.42
-6927.81
15094.8
-5639.79
21596.4
-4882.28
23081
-3781.13
19644.1
-3836.63
13470.3
-7737.22
9663.04
10423.8
4236.61
-1656.5
3431.92
1013.38
2100.46
3915.87
-159.268
5141.4
-2918
2640.82
-4687.35
-1805.81
-5651.2
-6163
-6481.96
-10477.4
-7608.46
-14421
-9341.2
-14911
-10707.4
-7961.06
-9949.83
5154.8
-8592.38
13737.4
-7209.15
20213.2
-6345.03
22216.9
-6524.82
19823.9
-9208.86
16154.3
-11792.5
12246.7
7250.1
4780.23
-1699.79
4067.06
1726.55
2893.2
5089.73
1119.98
6914.62
-1957.24
5718.04
-4633.4
870.35
-5873.47
-4922.93
-6859.56
-9491.3
-8269.82
-13010.7
-10383.6
-12797.2
-11912.8
-6431.8
-11257.2
4499.21
-10027.5
12507.7
-8816.45
19002.1
-8495.16
21895.6
-9812.2
21141
-11717.1
18059.2
-10730.9
11260.4
2022.47
4952.16
-1978.98
4450.56
2228.15
3388.71
6151.58
1998.8
8304.53
-796.296
8513.14
-4214.8
4288.86
-6009.33
-3128.41
-7158.82
-8341.8
-8790.49
-11379.1
-11285.8
-10301.9
-13126.1
-4591.49
-12776.2
4149.26
-11813.7
11545.1
-11048.2
18236.6
-11293.7
22141.1
-12539.8
22387.1
-13227.9
18747.4
-12345.3
10377.8
-1289.33
3712.98
-3033.79
4102.84
1838.28
3531.57
6722.85
2448.53
9387.58
292.106
10669.6
-3393.47
7974.43
-5996.34
-525.535
-7337.37
-7000.77
-9096.16
-9620.27
-11935.8
-7462.29
-14177.2
-2350.09
-14396.9
4368.98
-13970.5
11118.7
-13680
17946.2
-14024.8
22485.8
-14676
23038.3
-14646.4
18717.7
-13919.8
9651.24
-2874.29
991.557
-5230.16
2731.53
98.3083
3197.33
6257.05
2549.16
10035.7
1099.8
12118.9
-2301.67
11375.9
-5709.6
2882.39
-7340.03
-5370.34
-9089.08
-7871.22
-12154.3
-4397.1
-14737.1
232.739
-15556.6
5188.44
-15742.4
11304.6
-15791.1
17994.9
-15717.4
22412.1
-14715.7
22036.7
-11664.2
15666.2
-7638.69
5625.74
-1879.73
-100.376
-7481.26
1673.06
-1675.13
2629.75
5300.36
2405.14
10260.4
1585.19
12938.9
-1037.98
13999.1
-4959.79
6804.21
-7109.73
-3220.4
-8642.09
-6338.86
-11626.3
-1412.86
-14454.5
3060.91
-15864.3
6598.23
-16570.3
12010.6
-16710.5
18135.1
-15786.3
21488
-12563.9
18814.3
-6318.49
9420.77
286.845
-979.595
-4894.11
-1465.1
-9395.18
736.985
-3877.21
1892.4
4144.95
2086.96
10065.8
1747.05
13278.8
132.408
15613.7
-3811.17
10747.8
-6626.76
-404.811
-7698.47
-5267.15
-10085.5
974.143
-13069.2
6044.66
-15066.7
8595.71
-16082.6
13026.5
-15954.5
18006.9
-13850
19383.5
-8763.24
13727.5
-2104.11
2761.63
1636.17
-4719.87
-5469.56
-3024.02
-11042.6
-578.233
-6323
1033.06
2533.66
1672.7
9426.16
1693.73
13257.7
993.257
16314.2
-2467.23
14208.3
-5893.3
3021.26
-6487.88
-4672.57
-7854.41
2340.67
-10754.1
8944.38
-13135.5
10977.1
-14249
14140
-13662
17419.9
-10520.1
16241.6
-4496.73
7704.15
298.764
-2033.87
1682.72
-6103.82
-5850.47
-4380.2
-12416.5
-1766.97
-8936.24
299.7
466.989
1195.65
8530.21
1436.81
13016.6
1346.22
16404.8
-1287.53
16842
-4946.2
6679.93
-5290.63
-4328.14
-5428.32
2478.36
-7929.6
11445.7
-10434.4
13481.9
-11579
15284.6
-10659.8
16500.7
-7095.29
12677.1
-1604.33
2213.19
1708.11
-5346.3
2273.46
-6669.17
-5776.5
-5373.62
-13436.5
-2881.3
-11428.6
-403.444
-2010.87
812.723
7314.04
1279.25
12550.1
1610.57
16073.5
-283.898
18736.5
-3954.44
10350.5
-4420.2
-3862.38
-3479.2
1537.36
-5149.18
13115.6
-7555.13
15887.8
-8954.27
16683.7
-7997.93
15544.4
-4173.96
8853.12
226.603
-2187.38
2208.8
-7328.5
2464.43
-6924.8
-5552.44
-5898.7
-3820.23
-1174.48
411.365
1009.76
1286.86
-251.242
-3195.2
-3835.01
-2568.15
-2485.72
-3587.07
-4749.21
-4463.11
-2099.16
929.772
2390.27
2420.53
93.6497
-880.807
360.971
-1876.11
543.128
-1847.2
651.275
-1617.87
722.242
-1423.17
762.211
-1285.19
747.723
-1169.06
707.7
-1061.94
653.287
-955.558
591.112
-845.624
527.764
-732.043
468.823
-616.153
412.127
-511.223
347.574
-445.113
272.696
-450.699
194.853
-544.992
125.443
-704.784
73.5148
-876.495
37.8396
-943.041
-712.715
-3.22732
-877.572
9.42464
-1888.76
4.7785
-1842.54
-1.87058
-1611.22
-2.65545
-1422.38
-3.58463
-1284.25
6.60209
-1179.24
29.8558
-1085.18
70.6049
-996.296
132.968
-907.975
220.326
-819.391
334.57
-730.385
466.147
-642.792
586.888
-565.846
657.704
-521.51
644.668
-531.95
539.173
-599.288
358.344
-695.664
159.765
-744.461
-552.95
-133.854
-743.709
-141.858
-1880.75
-38.8218
-1945.57
73.7839
-1723.81
173.502
-1522.09
258.919
-1369.66
336.732
-1257.05
412.369
-1160.81
488.109
-1072.03
565.914
-985.771
647.423
-900.894
733.124
-816.079
820.601
-730.265
899.404
-644.644
943.233
-565.336
916.995
-505.708
797.461
-479.753
581.396
-479.598
306.068
-469.13
-246.882
-136.861
-606.846
-155.341
-1862.27
-64.8626
-2036.05
20.0734
-1808.75
91.2529
-1593.27
159.032
-1437.43
226.865
-1324.88
291.501
-1225.44
350.426
-1130.95
402.3
-1037.64
447.109
-945.703
486.636
-855.603
523.766
-767.394
559.366
-680.242
588.077
-594.047
591.64
-509.271
544.059
-432.172
421.353
-356.893
222.545
-270.323
-24.3367
0.398222
-607.237
-6.52194
-1855.34
46.3775
-2088.95
112.88
-1875.24
181.352
-1661.74
251.96
-1508.03
323.098
-1396.01
391.336
-1293.67
453.232
-1192.84
505.187
-1089.59
543.968
-984.48
567.185
-878.814
574.079
-774.284
565.373
-671.532
542.272
-570.943
502.478
-469.474
436.988
-366.682
329.642
-249.546
164.671
-105.35
140.334
291.657
-898.894
397.439
-1961.12
417.179
-2108.69
440.607
-1898.67
492.095
-1713.22
561.009
-1576.95
638.739
-1473.74
715.688
-1370.62
785.726
-1262.88
842.191
-1146.05
880.795
-1023.09
897.989
-896.008
890.776
-767.072
856.254
-637.01
792.275
-506.964
697.197
-374.397
571.502
-240.987
411.272
-89.3167
208.661
97.26
348.995
493.692
-1392.58
664.302
-2131.73
623.544
-2067.93
593.3
-1868.43
626.126
-1746.05
691.503
-1642.32
774.762
-1557
857.284
-1453.14
929.322
-1334.92
980.938
-1197.67
1010.02
-1052.16
1014.31
-900.304
989.836
-742.596
929.174
-576.349
825.552
-403.342
669.412
-218.258
460.237
-31.8117
273.498
97.4237
106.891
263.868
455.887
371.792
-1764.38
370.859
-2130.8
242.527
-1939.6
165.819
-1791.72
140.635
-1720.87
134.858
-1636.55
138.553
-1560.7
134.213
-1448.81
112.44
-1313.15
68.0171
-1153.25
6.00102
-990.151
-69.38
-824.93
-154.064
-657.92
-244.356
-486.066
-333.778
-313.928
-403.021
-149.026
-421.952
-12.8887
-419.723
95.1894
-315.369
159.51
140.517
27.2488
-1791.63
-126.59
-1976.96
-271.206
-1794.98
-393.372
-1669.56
-511.291
-1602.95
-633.446
-1514.4
-759.437
-1434.71
-891.493
-1316.75
-1031.14
-1173.51
-1177.56
-1006.83
-1328.62
-839.087
-1480.77
-672.779
-1626.87
-511.818
-1749.98
-362.958
-1818.15
-245.757
-1779.46
-187.712
-1586.16
-206.196
-1193.35
-297.614
-598.476
-435.367
-457.959
-170.228
-1621.4
-260.989
-1886.2
-348.849
-1707.13
-481.274
-1537.13
-630.677
-1453.55
-802.742
-1342.33
-985.312
-1252.14
-1166.86
-1135.21
-1332.46
-1007.91
-1476.25
-863.045
-1597.99
-717.343
-1692.79
-577.986
-1744.7
-459.911
-1728.67
-378.993
-1620.76
-353.663
-1405.47
-403.003
-1073.56
-538.112
-645.533
-725.641
-235.08
-845.822
-693.038
-59.5682
-1561.84
-21.7675
-1924.01
3.67971
-1732.58
-5.41081
-1528.05
-22.3196
-1436.64
-53.7349
-1310.92
-91.6108
-1214.27
-123.768
-1103.06
-133.093
-998.584
-106.806
-889.335
-42.3613
-781.792
58.2476
-678.601
186.785
-588.454
329.281
-521.495
465.895
-490.281
563.803
-500.914
575.057
-549.368
462.613
-613.198
240.42
-623.63
-452.619
47.7984
-1609.64
97.0306
-1973.24
148.325
-1783.87
196.561
-1576.29
246.68
-1486.76
297.822
-1362.07
349.608
-1266.06
406.129
-1159.59
470.396
-1062.86
549.879
-968.822
646.899
-878.815
759.802
-791.508
877.49
-706.146
979.355
-623.363
1034.53
-545.456
1011.25
-477.64
886.32
-424.439
651.142
-378.022
338.768
-311.261
-113.851
126.542
-1736.18
160.37
-2007.07
204.859
-1828.36
259.845
-1631.28
323.526
-1550.45
384.842
-1423.39
449.456
-1330.67
514.105
-1224.24
578.738
-1127.49
640.141
-1030.23
696.185
-934.861
744.206
-839.531
781.445
-743.387
803.505
-645.425
803.37
-545.324
766.475
-440.746
674.709
-332.675
507.824
-211.139
269.519
-72.9606
155.669
164.469
-1900.65
165.01
-2007.62
205.963
-1869.32
260.38
-1685.7
327.522
-1617.59
390.933
-1486.8
461.551
-1401.29
533.784
-1296.47
612.175
-1205.88
693.126
-1111.18
773.475
-1015.21
844.056
-910.114
892.004
-791.338
902.89
-656.314
868.571
-511.008
787.654
-359.831
659.906
-204.929
474.583
-25.82
243.401
158.217
399.07
131.438
-2032.09
96.4615
-1972.64
123.885
-1896.75
162.546
-1724.36
212.036
-1667.08
264.504
-1539.27
327.234
-1464.02
397.207
-1366.45
478.176
-1286.85
566.372
-1199.38
656.308
-1105.15
730.953
-984.761
764.582
-824.969
734.176
-625.91
646.356
-423.189
523.733
-237.211
367.493
-48.6935
238.395
103.273
102.132
294.475
501.202
25.0363
-2057.13
-38.4683
-1909.14
-60.7445
-1874.47
-76.1944
-1708.91
-90.2745
-1653.01
-95.2771
-1534.27
-97.3979
-1461.91
-90.8817
-1372.97
-78.3575
-1299.38
-60.3148
-1217.43
-44.1502
-1121.32
-43.8096
-985.105
-74.3684
-794.415
-131.694
-568.589
-182.145
-372.745
-200.112
-219.255
-185.69
-63.1262
-201.283
118.858
-196.862
290.05
304.34
-63.9888
-1993.15
-154.637
-1818.49
-226.649
-1802.46
-290.118
-1645.44
-356.019
-1587.11
-409.961
-1480.33
-466.271
-1405.6
-516.741
-1322.5
-567.791
-1248.33
-616.628
-1168.59
-663.2
-1074.75
-700.146
-948.16
-713.319
-781.244
-686.232
-595.678
-623.972
-435.008
-548.989
-294.241
-494.533
-117.584
-444.681
69.004
-365.688
211.053
-61.3483
-165.48
-1827.67
-362.826
-1621.15
-521.826
-1643.46
-650.065
-1517.21
-768.631
-1468.54
-863.081
-1385.88
-947.585
-1321.09
-1018.08
-1252
-1078.8
-1187.62
-1125.36
-1122.03
-1147.8
-1052.31
-1124.27
-971.685
-1029.11
-876.412
-856.611
-768.174
-640.269
-651.351
-411.34
-523.171
-163.93
-364.998
46.2459
-141.175
157.603
99.692
96.2545
-183.999
-1643.67
-419.66
-1385.49
-668.772
-1394.35
-878.359
-1307.62
-1079.79
-1267.11
-1250.74
-1214.93
-1400.76
-1171.08
-1525.67
-1127.08
-1627.77
-1085.53
-1704.76
-1045.04
-1751.53
-1005.54
-1757.59
-965.625
-1711.15
-922.855
-1605.45
-873.874
-1441.02
-815.778
-1217.56
-746.633
-922.892
-659.667
-535.081
-528.987
-113.802
-321.59
-17.5471
-668.668
-1079.16
-1498.51
-1831.13
-2123.24
-2363.17
-2559.25
-2711.33
-2821.86
-2891.9
-2922.44
-2913.07
-2860.92
-2759.8
-2600.57
-2372.21
-2056.88
-1610.86
-957.453
-668.681
1643.69
-1079.18
1385.5
-1498.54
1394.37
-1831.17
1307.63
-2123.3
1267.13
-2363.24
1214.95
-2559.33
1171.09
-2711.42
1127.1
-2821.96
1085.54
-2892
1045.05
-2922.55
1005.55
-2913.19
965.635
-2861.05
922.863
-2759.93
873.882
-2600.72
815.792
-2372.37
746.656
-2057.06
659.691
-1611.05
528.995
-957.611
321.559
17.3892
-183.982
1827.67
-419.609
1621.14
-668.69
1643.45
-878.234
1517.18
-1079.62
1468.52
-1250.52
1385.85
-1400.47
1321.05
-1525.32
1251.95
-1627.34
1187.56
-1704.26
1121.97
-1750.95
1052.24
-1756.96
971.647
-1710.52
876.434
-1604.92
768.282
-1440.67
651.539
-1217.41
523.4
-922.931
365.217
-535.213
141.28
-113.929
-99.7167
-96.5391
-165.409
1993.09
-362.698
1818.43
-521.635
1802.39
-649.812
1645.37
-768.316
1587.02
-862.705
1480.24
-947.15
1405.5
-1017.59
1322.4
-1078.25
1248.22
-1124.74
1168.46
-1147.09
1074.6
-1123.45
948.013
-1028.19
781.175
-855.72
595.813
-639.524
435.347
-410.685
294.566
-163.276
117.818
46.7711
-68.7553
157.965
-210.895
61.4259
-64.0327
2057.12
-154.687
1909.09
-226.726
1874.44
-290.241
1708.89
-356.191
1652.98
-410.197
1534.25
-466.585
1461.89
-517.145
1372.96
-568.301
1299.38
-617.246
1217.41
-663.914
1121.27
-700.886
984.989
-713.922
794.214
-686.551
568.446
-624.009
372.81
-548.77
219.333
-494.007
63.0606
-443.914
-118.842
-364.958
-289.845
-303.532
24.8903
2032.24
-38.6646
1972.65
-61.032
1896.81
-76.586
1724.44
-90.7804
1667.18
-95.8995
1539.38
-98.1505
1464.15
-91.7696
1366.58
-79.3951
1287.01
-61.5128
1199.54
-45.508
1105.27
-45.2938
984.783
-75.9152
824.846
-133.159
625.702
-183.368
423.034
-201.136
237.123
-186.913
48.8623
-202.513
-103.226
-197.632
-294.715
-501.164
131.371
1900.87
96.3201
2007.7
123.686
1869.44
162.29
1685.84
211.716
1617.75
264.13
1486.96
326.805
1401.47
396.73
1296.66
477.652
1206.09
565.794
1111.39
655.648
1015.42
730.143
910.289
763.553
791.438
732.945
656.313
645.064
510.917
522.527
359.663
366.707
204.686
238.037
25.4475
101.854
-158.528
-399.31
164.543
1736.33
165.024
2007.22
205.961
1828.51
260.375
1631.43
327.525
1550.6
390.946
1423.54
461.584
1330.84
533.844
1224.4
612.275
1127.66
693.275
1030.4
773.681
935.019
844.309
839.663
892.265
743.484
903.11
645.47
868.727
545.302
787.74
440.652
659.919
332.51
474.49
210.88
243.349
72.6174
-155.961
126.69
1609.63
160.48
1973.43
204.947
1784.04
259.928
1576.45
323.62
1486.91
384.93
1362.23
449.542
1266.22
514.179
1159.76
578.806
1063.03
640.202
968.999
696.23
878.991
744.208
791.683
781.383
706.309
803.356
623.496
803.113
545.545
766.131
477.634
674.342
424.3
507.512
377.712
269.339
310.794
113.378
47.9643
1561.68
97.1814
1924.22
148.471
1732.76
196.763
1528.16
246.953
1436.73
298.191
1311
350.089
1214.33
406.723
1103.14
471.066
998.695
550.55
889.521
647.461
782.084
760.125
679.022
877.452
588.985
978.971
521.979
1033.96
490.556
1010.66
500.936
885.855
549.111
650.867
612.703
338.671
622.994
452.049
-59.2376
1620.91
-21.2528
1886.23
4.43058
1707.07
-4.35893
1536.95
-20.9536
1453.32
-52.0154
1342.06
-89.5216
1251.84
-121.303
1134.92
-130.281
1007.67
-103.679
862.919
-38.9443
717.348
61.94
578.137
190.691
460.233
333.336
379.333
469.944
353.948
567.412
403.468
577.779
538.743
464.239
726.243
241.101
846.132
693.15
-170.347
1791.26
-260.812
1976.7
-348.466
1794.73
-480.77
1669.25
-630.06
1602.61
-802.03
1514.03
-984.493
1434.3
-1165.9
1316.32
-1331.3
1173.07
-1474.8
1006.42
-1596.15
838.701
-1690.42
672.412
-1741.66
511.472
-1725.03
362.7
-1616.83
245.753
-1401.51
188.147
-1069.92
207.151
-642.774
299.095
-233.776
437.132
459.374
26.5781
1764.68
-127.315
2130.58
-271.919
1939.32
-394.202
1791.53
-512.333
1720.74
-634.761
1636.45
-761.067
1560.6
-893.437
1448.69
-1033.37
1313
-1180.02
1153.07
-1331.3
989.975
-1483.67
824.768
-1629.97
657.767
-1753.12
485.852
-1820.98
313.61
-1781.62
148.782
-1587.1
12.6198
-1193.37
-94.6364
-597.911
-158.33
-138.537
371.395
1393.28
370.12
2131.86
241.614
2067.83
164.719
1868.42
139.293
1746.16
133.246
1642.5
136.64
1557.2
131.99
1453.34
109.916
1335.07
65.2379
1197.75
3.03394
1052.17
-72.4413
900.238
-157.089
742.407
-247.326
576.082
-336.841
403.114
-406.167
218.096
-425.483
31.9241
-422.782
-97.3465
-317.071
-264.049
-455.608
494.366
898.907
665.328
1960.89
624.472
2108.68
594.052
1898.84
626.771
1713.44
692.087
1577.18
775.308
1473.98
857.776
1370.86
929.734
1263.11
981.228
1146.25
1010.16
1023.24
1014.27
896.122
989.533
767.137
928.584
637.027
824.759
506.934
668.536
374.315
459.603
240.851
273.165
89.0823
106.622
-97.5145
-348.986
293.359
605.544
399.809
1854.44
419.47
2089.02
442.744
1875.56
494.213
1661.97
563.135
1508.25
640.86
1396.25
717.768
1293.95
787.73
1193.14
844.083
1089.89
882.549
984.775
899.574
879.094
892.197
774.511
857.543
671.678
793.436
571.038
698.199
469.549
572.31
366.736
411.842
249.545
209.129
105.192
-139.858
2.67634
602.861
-3.63487
1860.74
48.8499
2036.53
114.71
1809.7
182.761
1593.91
253.216
1437.79
324.328
1325.13
392.578
1225.69
454.515
1131.2
506.527
1037.87
545.388
945.909
568.741
855.736
575.755
767.493
567.001
680.427
543.736
594.299
503.758
509.522
438.106
432.386
330.568
357.08
165.197
270.558
25.3388
-133.226
736.085
-151.334
1878.85
-59.771
1944.96
26.3052
1723.62
97.6073
1522.61
164.86
1370.54
232.023
1257.97
295.897
1161.82
353.97
1073.13
404.812
987.031
448.337
902.383
486.092
817.979
520.846
732.737
553.873
647.398
580.3
567.869
582.844
506.977
536.25
478.977
416.079
477.25
219.659
466.975
244.997
-124.682
860.764
-130.538
1884.71
-34.3897
1848.81
73.9309
1615.3
172.677
1423.86
257.189
1286.02
333.146
1182.01
406.554
1088.41
479.384
1000.29
553.631
912.781
631.238
824.774
713.168
736.046
797.658
648.246
875.127
569.927
921.421
521.575
900.68
527.717
787.999
591.657
578.621
686.628
307.04
738.553
552.037
30.2377
830.525
62.6115
1852.33
58.4473
1852.98
45.7697
1627.97
41.5797
1428.05
41.8658
1285.73
55.6696
1168.21
80.4776
1063.6
119.62
961.15
177.388
855.012
257.113
745.048
360.679
632.478
483.939
524.984
602.349
451.515
675.69
448.231
665.808
537.597
561.014
696.449
376.835
870.804
172.019
943.366
724.057
110.152
403.215
604.877
720.997
793.136
830.847
824.87
794.151
745.402
685.343
619.99
554.195
489.531
418.277
335.321
247.26
166.43
101.943
53.8719
)
;

boundaryField
{
    outletWall
    {
        type            calculated;
        value           nonuniform List<scalar> 
60
(
16625.3
42.1091
-15064.8
-24475.2
-29138.9
-30194.2
-28649.4
-24087.1
-15982.7
5412.23
16295.3
15667
13336.9
12303.3
12796.9
13880.2
12986.8
9404.38
5725.93
3303.98
6647.6
6393.68
5754.05
4671.46
3379.02
2351.48
1204.82
-2658.17
-4672.97
-4736.94
-4318.1
-3804.63
-3261.54
-2742.55
-2275.89
-1873.66
-1592.69
-1500.93
-1723.53
-2110.67
505.555
-5222.8
-6955.06
-8789
-5216.31
6489.17
15258.2
17845.9
16989.2
13033.2
270.495
-3222.57
13294.4
20274.6
15796.4
11951.7
5728.19
-4656.61
-13507
-14185.4
)
;
    }
    fineWalls
    {
        type            calculated;
        value           uniform 0;
    }
    fineFrontAndBack
    {
        type            calculated;
        value           nonuniform List<scalar> 
960
(
-6.88164e-13
-6.29641e-12
-1.24832e-12
-1.21039e-12
-7.64501e-12
-1.47562e-12
-1.58443e-12
-1.50173e-12
-9.55097e-12
-1.83259e-12
-1.7339e-12
-7.36187e-12
-1.14063e-12
-1.32412e-12
-8.41957e-12
-2.03151e-12
-2.52414e-12
-1.50418e-11
-3.15805e-12
-3.7199e-12
-5.77946e-13
-8.73594e-13
-8.60946e-13
-7.46362e-13
-6.1248e-13
-4.85141e-13
-1.44342e-12
-2.45258e-13
-1.15398e-13
6.69084e-14
3.00521e-13
5.51081e-13
6.36009e-13
6.47341e-13
5.45412e-13
3.04491e-13
5.52516e-14
-1.93326e-13
-4.10917e-13
-5.63508e-13
-1.1702e-11
-1.88576e-12
-2.62333e-12
-2.62667e-12
3.3799e-12
2.00809e-12
2.25556e-12
4.89271e-13
4.2562e-11
5.59717e-13
-7.33202e-13
1.34692e-11
3.55827e-12
4.17644e-12
4.54137e-12
3.06957e-11
4.62165e-12
3.56214e-12
2.60201e-12
1.07628e-11
5.32363e-13
3.07823e-13
1.18037e-13
-7.34718e-14
-2.87203e-13
-4.0666e-13
-4.50959e-13
-4.45694e-13
-3.55012e-13
-1.98092e-13
-2.18552e-14
1.11803e-13
1.87146e-13
-4.15963e-12
2.52127e-13
2.38126e-13
2.76203e-13
2.72952e-13
1.7668e-13
-2.12633e-13
-3.90897e-13
-7.14773e-13
-6.7979e-13
1.97753e-12
2.34309e-12
1.02424e-11
2.46056e-12
2.88186e-12
6.02486e-12
3.08428e-12
2.12779e-12
1.83609e-11
5.26888e-12
4.86762e-12
5.65572e-12
1.75853e-11
2.98235e-12
5.10342e-12
2.81289e-11
1.33872e-11
1.29002e-11
1.14145e-11
8.04907e-12
4.09288e-12
1.04612e-11
1.82479e-11
2.03899e-11
1.38733e-11
1.60353e-12
-8.17221e-12
-4.5101e-12
1.83807e-11
3.65014e-11
4.62891e-11
4.45684e-11
3.13135e-11
8.56542e-12
-9.5751e-12
-4.77315e-11
1.03736e-11
7.47459e-12
2.72974e-12
2.81965e-13
1.01114e-11
1.37658e-11
8.8911e-12
-5.95648e-13
-1.01672e-11
-1.56668e-11
-9.99926e-12
1.7752e-11
3.68239e-11
4.62724e-11
4.46884e-11
3.19365e-11
9.9487e-12
-7.17228e-12
-3.61253e-11
6.95195e-12
3.91266e-12
-4.1825e-13
-6.41475e-13
8.04327e-12
7.67418e-12
2.75195e-12
-2.63114e-12
-7.67052e-12
-1.06965e-11
-5.70847e-12
1.59569e-11
3.74268e-11
4.62916e-11
4.47844e-11
3.2554e-11
1.14341e-11
-4.32877e-12
-3.1044e-11
2.9481e-12
1.64953e-13
-3.5905e-12
-1.86358e-12
5.59562e-12
3.61677e-12
6.68159e-14
-2.93945e-12
-6.27068e-12
-8.40578e-12
-2.48028e-12
1.65969e-11
3.72081e-11
4.64541e-11
4.48138e-11
3.29325e-11
1.26036e-11
-1.67055e-12
-2.51757e-11
-1.26047e-12
-3.52018e-12
-6.3901e-12
-2.68923e-12
3.79836e-12
1.60195e-12
-6.5806e-13
-2.47267e-12
-4.80753e-12
-6.29674e-12
9.77425e-13
1.98956e-11
3.59521e-11
4.66804e-11
4.47213e-11
3.29256e-11
1.32702e-11
2.0611e-13
-2.00317e-11
-5.46711e-12
-7.02536e-12
-8.79687e-12
-3.23826e-12
2.79829e-12
1.06318e-12
-5.71799e-13
-2.02662e-12
-3.67534e-12
-4.15249e-12
4.59466e-12
2.40652e-11
3.55512e-11
4.65689e-11
4.43977e-11
3.23386e-11
1.30608e-11
1.84284e-12
-1.91562e-11
-9.29683e-12
-1.00949e-11
-1.07144e-11
-4.04568e-12
1.21918e-12
-8.45854e-13
-1.91513e-12
-1.22838e-12
-2.52782e-12
-1.25644e-12
8.86963e-12
2.82543e-11
3.71038e-11
4.56752e-11
4.34805e-11
3.07497e-11
1.212e-11
2.73784e-12
-1.70439e-11
-1.20976e-11
-1.2347e-11
-1.2069e-11
-6.19917e-12
-3.47262e-12
-8.50878e-12
-7.68284e-12
3.75627e-13
-1.47163e-12
1.88314e-12
1.34771e-11
3.14812e-11
3.9591e-11
4.45379e-11
4.17305e-11
2.79063e-11
9.01951e-12
-4.93151e-12
4.58656e-12
-1.34665e-11
-1.3513e-11
-1.30736e-11
-9.62725e-12
-1.13293e-11
-2.10926e-11
-1.57066e-11
1.32409e-12
-5.99051e-13
3.88417e-12
1.73868e-11
3.16619e-11
3.84899e-11
4.18503e-11
3.7909e-11
2.23171e-11
7.51536e-12
2.11523e-11
4.71348e-11
-1.36595e-11
-1.3714e-11
-1.35746e-11
-1.21669e-11
-1.22193e-11
-2.05631e-11
-8.19593e-12
-1.07646e-12
4.95666e-13
3.43952e-12
1.8253e-11
4.32866e-11
3.16506e-11
3.61465e-11
2.95301e-11
1.49193e-11
2.13266e-12
1.52672e-11
2.94888e-11
-1.32371e-11
-1.33911e-11
-1.35632e-11
-1.36599e-11
-8.52304e-12
1.13093e-11
1.70002e-11
-4.59082e-12
2.07973e-12
2.05453e-12
1.07153e-12
1.67081e-11
2.49624e-11
2.68844e-11
1.64143e-11
1.50899e-12
1.39874e-11
7.47966e-11
1.16597e-10
-1.24942e-11
-1.27846e-11
-1.31928e-11
-1.42415e-11
-9.29845e-12
3.55693e-12
-4.31535e-12
-2.11754e-12
2.78723e-12
3.63858e-12
-3.94085e-12
-3.74566e-12
5.6987e-12
6.64103e-12
-1.032e-12
4.56581e-12
5.00061e-11
8.19512e-11
2.9098e-11
-1.13597e-11
-1.19203e-11
-1.26199e-11
-1.4234e-11
-1.08329e-11
2.06938e-12
-3.18663e-12
-2.68177e-12
3.1588e-12
5.87113e-12
-4.35868e-12
-1.57491e-11
-1.4586e-11
-1.20597e-11
-6.08815e-12
1.74245e-11
4.07989e-11
4.13895e-12
-3.81369e-11
-1.02688e-11
-1.09455e-11
-1.20135e-11
-1.39212e-11
-1.20638e-11
2.42738e-12
-2.1048e-12
-3.49948e-12
2.87957e-12
9.16222e-12
3.40718e-12
-8.804e-12
-1.43631e-11
-1.17484e-11
2.93577e-13
1.76679e-11
1.57581e-11
-4.87721e-12
1.49416e-11
-1.021e-11
-9.13909e-12
-1.12032e-11
-1.35158e-11
-1.28637e-11
1.82548e-12
6.94359e-13
-4.39379e-12
1.91583e-12
1.20234e-11
1.33342e-11
5.84512e-12
-1.00847e-13
-2.06231e-14
5.77174e-12
8.50726e-12
-1.51376e-12
-7.65991e-12
-1.35178e-12
-1.03109e-11
-8.95038e-12
-1.04369e-11
-1.30487e-11
-1.32663e-11
-5.26491e-13
3.88233e-12
-5.10788e-12
8.84701e-14
1.24658e-11
1.85959e-11
1.56045e-11
1.10653e-11
7.87745e-12
5.1329e-12
-6.05476e-13
-6.31165e-12
-3.28524e-13
-4.80509e-12
-1.07266e-11
-9.59997e-12
-1.00046e-11
-1.25943e-11
-1.33922e-11
-3.76169e-12
5.47647e-12
-5.22063e-12
-2.28978e-12
9.91386e-12
1.87284e-11
1.89678e-11
1.47756e-11
8.72701e-12
1.42519e-12
-4.68124e-12
-2.86266e-12
-5.46874e-13
-6.02111e-12
-1.11433e-11
-1.00841e-11
-1.01979e-11
-1.23065e-11
-1.33985e-11
-6.82524e-12
4.58535e-12
-4.80607e-12
-4.41748e-12
5.10197e-12
1.52257e-11
1.84384e-11
1.48298e-11
6.95036e-12
-1.2399e-12
-3.52624e-12
3.29331e-12
-1.37478e-13
-6.47598e-12
-1.1437e-11
-1.05117e-11
-1.03255e-11
-1.23082e-11
-1.35151e-11
-9.3849e-12
2.45815e-12
-4.22474e-12
-5.685e-12
2.82635e-13
1.0064e-11
1.60084e-11
1.51339e-11
7.28305e-12
-1.05204e-12
-1.04371e-12
2.0786e-12
-1.43851e-12
-7.81154e-12
-1.15814e-11
-1.07601e-11
-9.74379e-12
-1.15221e-11
-1.24646e-11
-1.05314e-11
-1.89805e-12
-6.48986e-12
-6.15362e-12
-3.24777e-12
3.68179e-12
8.94447e-12
1.13867e-11
8.52235e-12
2.65427e-12
3.06e-12
2.07144e-12
-2.4501e-12
-8.98946e-12
6.88164e-13
6.29641e-12
1.24832e-12
1.21039e-12
7.64501e-12
1.47562e-12
1.58443e-12
1.50173e-12
9.55097e-12
1.83259e-12
1.7339e-12
7.36187e-12
1.14063e-12
1.32412e-12
8.41957e-12
2.03151e-12
2.52414e-12
1.50418e-11
3.15805e-12
3.7199e-12
5.77946e-13
8.73594e-13
8.60946e-13
7.46362e-13
6.1248e-13
4.85141e-13
1.44342e-12
2.45258e-13
1.15398e-13
-6.69084e-14
-3.00521e-13
-5.51081e-13
-6.36009e-13
-6.47341e-13
-5.45412e-13
-3.04491e-13
-5.52516e-14
1.93326e-13
4.10917e-13
5.63508e-13
1.1702e-11
1.88576e-12
2.62333e-12
2.62667e-12
-3.3799e-12
-2.00809e-12
-2.25556e-12
-4.89271e-13
-4.2562e-11
-5.59717e-13
7.33202e-13
-1.34692e-11
-3.55827e-12
-4.17644e-12
-4.54137e-12
-3.06957e-11
-4.62165e-12
-3.56214e-12
-2.60201e-12
-1.07628e-11
-5.32363e-13
-3.07823e-13
-1.18037e-13
7.34718e-14
2.87203e-13
4.0666e-13
4.50959e-13
4.45694e-13
3.55012e-13
1.98092e-13
2.18552e-14
-1.11803e-13
-1.87146e-13
4.15963e-12
-2.52127e-13
-2.38126e-13
-2.76203e-13
-2.72952e-13
-1.7668e-13
2.12633e-13
3.90897e-13
7.14773e-13
6.7979e-13
-1.97753e-12
-2.34309e-12
-1.02424e-11
-2.46056e-12
-2.88186e-12
-6.02486e-12
-3.08428e-12
-2.12779e-12
-1.83609e-11
-5.26888e-12
-4.86762e-12
-5.65572e-12
-1.75853e-11
-2.98235e-12
-5.10342e-12
-2.81289e-11
-1.33872e-11
-1.29002e-11
-1.14145e-11
-8.04907e-12
-4.09288e-12
-1.04612e-11
-1.82479e-11
-2.03899e-11
-1.38733e-11
-1.60353e-12
8.17221e-12
4.5101e-12
-1.83807e-11
-3.65014e-11
-4.62891e-11
-4.45684e-11
-3.13135e-11
-8.56542e-12
9.5751e-12
4.77315e-11
-1.03736e-11
-7.47459e-12
-2.72974e-12
-2.81965e-13
-1.01114e-11
-1.37658e-11
-8.8911e-12
5.95648e-13
1.01672e-11
1.56668e-11
9.99926e-12
-1.7752e-11
-3.68239e-11
-4.62724e-11
-4.46884e-11
-3.19365e-11
-9.9487e-12
7.17228e-12
3.61253e-11
-6.95195e-12
-3.91266e-12
4.1825e-13
6.41475e-13
-8.04327e-12
-7.67418e-12
-2.75195e-12
2.63114e-12
7.67052e-12
1.06965e-11
5.70847e-12
-1.59569e-11
-3.74268e-11
-4.62916e-11
-4.47844e-11
-3.2554e-11
-1.14341e-11
4.32877e-12
3.1044e-11
-2.9481e-12
-1.64953e-13
3.5905e-12
1.86358e-12
-5.59562e-12
-3.61677e-12
-6.68159e-14
2.93945e-12
6.27068e-12
8.40578e-12
2.48028e-12
-1.65969e-11
-3.72081e-11
-4.64541e-11
-4.48138e-11
-3.29325e-11
-1.26036e-11
1.67055e-12
2.51757e-11
1.26047e-12
3.52018e-12
6.3901e-12
2.68923e-12
-3.79836e-12
-1.60195e-12
6.5806e-13
2.47267e-12
4.80753e-12
6.29674e-12
-9.77425e-13
-1.98956e-11
-3.59521e-11
-4.66804e-11
-4.47213e-11
-3.29256e-11
-1.32702e-11
-2.0611e-13
2.00317e-11
5.46711e-12
7.02536e-12
8.79687e-12
3.23826e-12
-2.79829e-12
-1.06318e-12
5.71799e-13
2.02662e-12
3.67534e-12
4.15249e-12
-4.59466e-12
-2.40652e-11
-3.55512e-11
-4.65689e-11