/*--------------------------------*- C++ -*----------------------------------*\
| =========                 |                                                 |
| \\      /  F ield         | OpenFOAM: The Open Source CFD Toolbox           |
|  \\    /   O peration     | Version:  4.1                                   |
|   \\  /    A nd           | Web:      www.OpenFOAM.org                      |
|    \\/     M anipulation  |                                                 |
\*---------------------------------------------------------------------------*/
FoamFile
{
    version     2.0;
    format      ascii;
    class       volVectorField;
    location    "25";
    object      U;
}
// * * * * * * * * * * * * * * * * * * * * * * * * * * * * * * * * * * * * * //

dimensions      [0 1 -1 0 0 0 0];

internalField   nonuniform List<vector> 
1280
(
(-4.97318e-16 -0.249207 -0.548888)
(-1.084e-15 0.400425 -1.54507)
(-9.02127e-16 0.39063 -1.22076)
(-8.74717e-16 0.520528 -1.0743)
(-1.29934e-15 1.07647 -1.76609)
(-1.06639e-15 1.02204 -1.31383)
(-1.14502e-15 1.32243 -1.28759)
(-1.06006e-15 1.39119 -1.15782)
(-1.68179e-15 1.97505 -1.76586)
(-1.34264e-15 1.88091 -1.27652)
(-1.26127e-15 2.12471 -1.09717)
(-1.10799e-15 2.72642 -1.71381)
(-8.24301e-16 2.49736 -1.32511)
(-9.56904e-16 2.78754 -1.19504)
(-1.35709e-15 3.48471 -1.91728)
(-1.46812e-15 3.12578 -1.58379)
(-1.82413e-15 3.54362 -1.41205)
(-2.55649e-15 4.03693 -2.78374)
(-2.28677e-15 4.36496 -1.79518)
(-2.68827e-15 3.77785 -3.8749)
(-2.37106e-15 4.40383 0.0443727)
(-3.58397e-15 4.70163 5.22966)
(-3.53209e-15 4.54584 7.55248)
(-3.062e-15 4.99391 8.21598)
(-2.51274e-15 5.20187 8.37146)
(-1.99032e-15 5.57338 9.43381)
(-3.04278e-16 3.80147 8.60889)
(-1.00619e-15 7.55643 14.606)
(-4.73426e-16 7.66107 15.1637)
(2.74496e-16 7.68704 15.3034)
(1.23291e-15 7.61888 15.0642)
(2.26084e-15 7.48483 14.5296)
(2.60927e-15 7.32832 13.8872)
(2.65576e-15 7.16982 13.3542)
(2.23759e-15 7.03869 12.9741)
(1.24919e-15 6.91077 12.747)
(2.26673e-16 6.91801 12.6761)
(-7.93132e-16 6.82389 12.6294)
(-1.68581e-15 7.12992 12.553)
(-2.31183e-15 6.97468 10.7662)
(-2.0369e-15 9.64155 10.2729)
(-1.51467e-15 4.875 6.44946)
(-2.10709e-15 4.04692 6.24754)
(-1.87297e-15 3.45691 6.19337)
(1.53557e-15 2.66589 6.60302)
(1.61293e-15 1.42752 4.29225)
(1.81169e-15 0.969874 4.20014)
(3.92988e-16 0.450856 4.38642)
(9.5334e-15 -0.161392 2.90275)
(4.49572e-16 -0.708984 2.19071)
(-5.88917e-16 -0.923133 2.83895)
(2.3445e-15 -1.86169 5.35687)
(2.85804e-15 -2.91852 5.66913)
(3.35457e-15 -3.69227 5.57295)
(3.64769e-15 -4.0946 5.6448)
(5.34303e-15 -5.97568 8.11074)
(3.78157e-15 -6.21992 6.61326)
(2.86116e-15 -7.08077 6.75144)
(2.08997e-15 -7.92115 6.86801)
(1.82177e-15 -12.0166 10.1394)
(2.18405e-15 -8.19008 10.4155)
(1.26286e-15 -8.36391 12.0744)
(4.84252e-16 -8.02976 12.0452)
(-3.01423e-16 -8.12582 11.9865)
(-1.17827e-15 -8.0939 11.9596)
(-1.66835e-15 -8.2068 12.0938)
(-1.85009e-15 -8.30958 12.4202)
(-1.82849e-15 -8.44305 12.9483)
(-1.45646e-15 -8.57124 13.5519)
(-8.12687e-16 -8.65662 13.9678)
(-8.96622e-17 -8.68316 14.0788)
(4.58681e-16 -8.63645 13.7865)
(7.67777e-16 -8.41571 13.0735)
(-8.76865e-16 -3.95932 6.22198)
(1.03437e-15 -5.23562 9.00124)
(9.76927e-16 -4.86567 7.57902)
(1.13314e-15 -4.68819 7.149)
(1.1198e-15 -4.27189 6.07636)
(7.24843e-16 -4.45238 3.24046)
(-8.7234e-16 -4.14495 -2.37555)
(-2.87207e-16 -3.49767 -6.23645)
(-5.16548e-16 -3.65296 -4.38496)
(-1.15537e-16 -2.34686 -6.07584)
(1.42911e-15 -2.35891 -3.52483)
(1.69329e-15 -1.43682 -4.05304)
(2.69377e-15 -0.79841 -4.96527)
(1.77818e-15 -0.404226 -2.63096)
(2.08265e-15 0.111979 -2.91944)
(2.72613e-15 0.759006 -3.82186)
(2.22893e-15 0.916929 -2.87593)
(1.5377e-15 1.42458 -2.72285)
(4.63826e-15 2.22159 -3.55896)
(3.90253e-15 2.15141 -2.55732)
(3.5177e-15 2.7152 -2.56118)
(4.08724e-15 2.90254 -2.39598)
(2.98879e-15 4.00341 -3.53702)
(2.15527e-15 3.71796 -2.71055)
(3.70342e-15 4.39816 -2.49288)
(4.76975e-15 4.56761 -3.42327)
(9.67457e-15 5.44952 -3.43268)
(1.43335e-15 1.09503 -1.7599)
(1.26828e-15 1.8884 -1.55705)
(8.94341e-16 3.102 -1.17362)
(4.54764e-16 4.27177 -0.366526)
(1.16236e-15 4.54258 1.38022)
(2.02754e-15 4.18562 3.24063)
(2.26554e-15 4.05376 4.26216)
(1.54148e-15 4.4306 4.62856)
(1.7817e-16 5.24062 4.59558)
(-9.08023e-16 5.49097 4.14468)
(-5.01123e-16 1.82158 2.4804)
(2.0423e-15 -5.10585 0.822356)
(4.05572e-15 -7.93174 0.26982)
(5.14324e-15 -9.47153 -0.210923)
(4.95205e-15 -9.99674 -1.08283)
(3.47928e-15 -9.66351 -1.777)
(9.51713e-16 -8.12794 -2.72838)
(-1.0639e-15 -5.00304 -3.26093)
(-5.3035e-15 -0.0199839 -4.20857)
(1.15262e-15 1.03158 -1.43972)
(8.3051e-16 1.70756 -1.15577)
(3.03304e-16 2.72596 -0.734646)
(3.13294e-17 3.44633 0.315207)
(1.12349e-15 3.40244 2.12538)
(1.52953e-15 3.32683 3.40722)
(9.879e-16 3.67697 3.85702)
(-6.61831e-17 4.36547 3.81133)
(-1.12968e-15 5.38951 3.55924)
(-1.74076e-15 6.07364 3.1279)
(-1.11103e-15 3.05825 2.16225)
(1.97245e-15 -4.96057 0.558042)
(4.09155e-15 -7.77606 0.446511)
(5.14138e-15 -9.1709 -0.00318766)
(4.96537e-15 -9.60473 -0.876024)
(3.54851e-15 -9.19759 -1.57496)
(1.10541e-15 -7.67724 -2.55505)
(-7.9692e-16 -4.57209 -3.22546)
(-4.01392e-15 0.109883 -3.59071)
(7.72439e-16 0.98561 -1.25553)
(4.3474e-16 1.58853 -1.01524)
(-4.64722e-17 2.46971 -0.619837)
(-7.1275e-17 3.01177 0.568806)
(8.93696e-16 3.09582 2.10516)
(8.52687e-16 3.28205 3.01972)
(3.05772e-16 3.75765 3.44885)
(-2.92348e-16 4.49377 3.53202)
(-8.5228e-16 5.51593 3.3619)
(-1.1885e-15 6.15994 2.94191)
(-6.34275e-16 3.31633 2.45488)
(1.77299e-15 -4.50562 0.876062)
(4.15854e-15 -7.56788 0.52056)
(5.14351e-15 -8.88386 0.374174)
(4.97604e-15 -9.26928 -0.560575)
(3.61712e-15 -8.85126 -1.24415)
(1.27046e-15 -7.35213 -2.2511)
(-4.80975e-16 -4.35729 -3.10126)
(-3.44933e-15 0.0720943 -3.23767)
(3.27566e-16 0.942409 -1.33355)
(1.83281e-17 1.44527 -1.0763)
(-3.98945e-16 2.1148 -0.588134)
(-2.07065e-16 2.42526 0.799039)
(6.21736e-16 2.53335 2.10784)
(4.01863e-16 2.90513 2.8851)
(7.42398e-18 3.55052 3.39155)
(-3.26605e-16 4.44423 3.59589)
(-6.96743e-16 5.61077 3.50844)
(-9.33976e-16 6.39182 3.11891)
(-2.75587e-16 3.78164 2.94509)
(1.8441e-15 -4.14684 1.60648)
(4.13423e-15 -7.41631 0.691859)
(5.16156e-15 -8.71799 0.839749)
(4.97931e-15 -8.96841 -0.114863)
(3.65917e-15 -8.53297 -0.776568)
(1.4004e-15 -6.99347 -1.80896)
(-1.85617e-16 -4.10614 -2.86665)
(-2.79729e-15 0.17828 -3.39316)
(-1.40053e-16 0.890949 -1.56972)
(-3.91131e-16 1.26847 -1.25545)
(-7.10012e-16 1.71022 -0.59391)
(-2.98804e-16 1.91889 0.997107)
(4.22039e-16 2.19671 2.10754)
(1.77995e-16 2.7054 2.8593)
(-7.31178e-17 3.43186 3.46196)
(-2.74741e-16 4.42663 3.77019)
(-5.34171e-16 5.68403 3.75725)
(-6.99638e-16 6.48484 3.4753)
(1.08603e-16 3.96357 3.66819)
(2.21062e-15 -3.74412 2.60092)
(3.99468e-15 -7.2007 1.29011)
(5.18671e-15 -8.57707 1.27689)
(4.96903e-15 -8.66273 0.519789)
(3.65841e-15 -8.17981 -0.172607)
(1.47447e-15 -6.55953 -1.22387)
(2.29011e-17 -3.61429 -2.47132)
(-2.22574e-15 0.0248784 -4.20356)
(-6.07457e-16 0.827374 -1.90828)
(-7.80596e-16 1.03165 -1.52799)
(-9.7743e-16 1.20701 -0.64683)
(-3.59806e-16 1.36295 1.15489)
(3.10921e-16 1.79831 2.17474)
(1.18131e-16 2.39071 2.97635)
(-6.35332e-17 3.20845 3.64061)
(-2.2518e-16 4.33685 4.01638)
(-4.08371e-16 5.70835 4.08369)
(-4.61388e-16 6.51661 3.98276)
(5.10518e-16 4.03763 4.5515)
(2.67391e-15 -3.2878 3.79789)
(3.95013e-15 -6.83719 2.29648)
(5.17432e-15 -8.39731 1.75599)
(4.93308e-15 -8.4118 1.33147)
(3.59317e-15 -7.81346 0.564283)
(1.4512e-15 -6.09754 -0.479334)
(2.0476e-16 -2.88728 -1.9109)
(-2.12847e-15 1.52311 -4.42963)
(-1.03298e-15 0.753356 -2.30223)
(-1.12165e-15 0.730697 -1.87273)
(-1.19049e-15 0.629589 -0.793342)
(-4.49521e-16 0.806607 1.21426)
(1.35464e-16 1.42315 2.28878)
(-9.39838e-17 2.10632 3.14967)
(-2.12792e-16 3.0053 3.83611)
(-1.36487e-16 4.23831 4.26502)
(-2.80869e-16 5.67781 4.44441)
(-1.39604e-16 6.41792 4.60605)
(9.85514e-16 3.92446 5.55899)
(3.13937e-15 -2.86002 5.10207)
(4.12264e-15 -6.35315 3.52717)
(5.07503e-15 -8.16057 2.50584)
(4.83116e-15 -8.21467 2.20813)
(3.41664e-15 -7.4277 1.46691)
(1.34667e-15 -5.64004 0.498071)
(3.04205e-16 -2.00329 -1.60277)
(-1.89377e-15 2.06299 -1.21456)
(-1.34418e-15 0.675848 -2.74205)
(-1.37188e-15 0.392778 -2.28729)
(-1.341e-15 0.00168757 -1.17718)
(-6.88797e-16 0.2145 0.968769)
(-3.85846e-16 0.975452 2.34052)
(-9.4542e-16 1.77818 3.31398)
(-8.53649e-16 2.76852 4.02639)
(4.17363e-17 4.08897 4.52272)
(-1.63514e-16 5.56101 4.85646)
(2.09238e-16 6.18568 5.34304)
(1.49746e-15 3.68511 6.64926)
(3.49792e-15 -2.44803 6.43435)
(4.399e-15 -5.80615 4.89806)
(4.94866e-15 -7.82796 3.63351)
(4.63673e-15 -8.03633 3.17812)
(3.1007e-15 -7.12198 2.641)
(1.00217e-15 -5.02218 1.48655)
(-5.47946e-16 -1.48063 -2.03825)
(5.09618e-16 -2.92897 2.13282)
(-1.49628e-15 0.603081 -3.20352)
(-1.50145e-15 0.0722006 -2.77193)
(-1.45262e-15 -0.606006 -1.81321)
(-1.06969e-15 -0.553799 0.0400293)
(-1.25881e-15 0.452422 2.19318)
(-2.34362e-15 1.4183 3.44094)
(-1.74518e-15 2.52218 4.20904)
(1.47121e-16 3.89465 4.78495)
(-6.65612e-17 5.34474 5.29961)
(4.31575e-16 5.80728 6.14285)
(1.93187e-15 3.32388 7.75846)
(3.51799e-15 -2.10592 7.74659)
(4.27666e-15 -5.26661 6.37913)
(4.65003e-15 -7.42715 5.08791)
(4.21211e-15 -7.85823 4.34403)
(2.47968e-15 -6.69682 3.75246)
(8.3504e-16 -4.03969 2.4774)
(2.35025e-15 -2.25735 4.15847)
(5.2372e-15 -3.54207 8.41738)
(-1.51772e-15 0.555593 -3.6399)
(-1.52378e-15 -0.210442 -3.32987)
(-1.50829e-15 -1.09781 -2.45241)
(-1.35188e-15 -1.38202 -1.09279)
(-1.3577e-15 -0.343236 1.39766)
(-2.28479e-15 0.941276 3.46095)
(-1.16776e-15 2.23382 4.38138)
(-1.19606e-16 3.64235 5.04307)
(5.5074e-17 5.01967 5.73976)
(3.82169e-16 5.29332 6.93796)
(2.02811e-15 2.8934 8.81796)
(5.70469e-15 -1.83758 8.89756)
(3.51673e-15 -4.79399 7.72355)
(4.01628e-15 -6.96932 6.52279)
(3.16979e-15 -7.52657 5.51828)
(1.6577e-15 -6.42369 5.00922)
(2.36962e-16 -4.93589 5.82407)
(1.69636e-15 -4.28015 9.72215)
(3.27654e-15 -3.19001 9.60222)
(-1.47079e-15 0.548193 -3.9986)
(-1.4879e-15 -0.456797 -3.84547)
(-1.50702e-15 -1.50197 -3.00084)
(-1.51777e-15 -2.04549 -1.8673)
(-9.47004e-16 -1.41164 0.0247077)
(1.25659e-15 0.242879 3.2218)
(2.17503e-15 1.87223 4.52765)
(-5.10091e-16 3.33925 5.28026)
(2.31081e-16 4.5927 6.1301)
(2.28282e-16 4.65105 7.65608)
(1.19059e-16 2.41872 9.80538)
(1.85646e-15 -1.59693 9.94091)
(2.7736e-15 -4.35982 8.86013)
(2.98715e-15 -6.50322 7.78799)
(1.82381e-15 -7.28663 6.91735)
(1.67666e-16 -6.77579 7.1909)
(1.55415e-15 -5.71873 9.15707)
(8.31073e-15 -3.59057 10.5643)
(1.29552e-14 -1.20081 6.89058)
(-1.38824e-15 0.590662 -3.9591)
(-1.42051e-15 -0.676305 -4.12374)
(-1.46587e-15 -1.88518 -3.38796)
(-1.58239e-15 -2.55469 -2.30026)
(-1.03316e-15 -2.42352 -1.03906)
(3.95214e-16 -0.795943 2.40281)
(-4.79483e-16 1.37366 4.58699)
(-2.35282e-16 2.98805 5.48106)
(3.09692e-16 4.07948 6.42439)
(4.04287e-16 3.88091 8.23138)
(-4.37873e-16 1.86978 10.6999)
(-4.16185e-16 -1.39395 11.0998)
(6.33188e-16 -3.9642 10.2268)
(7.37892e-16 -6.15372 9.40877)
(-1.14667e-16 -7.29826 9.00475)
(5.07312e-16 -7.29527 9.78464)
(5.55623e-15 -6.36396 11.1449)
(9.10569e-15 -4.3883 11.0076)
(3.23311e-15 -1.70076 9.04682)
(-1.26219e-15 0.711302 -2.32808)
(-1.32447e-15 -0.710007 -3.57037)
(-1.40221e-15 -2.18723 -3.42422)
(-1.58156e-15 -2.97253 -2.50445)
(-1.20365e-15 -3.25498 -1.59471)
(2.29931e-16 -2.04654 1.15154)
(-3.5407e-16 0.687719 4.4453)
(-2.97975e-16 2.58255 5.62778)
(3.50978e-16 3.50464 6.5757)
(6.52348e-16 2.98321 8.5886)
(-4.84298e-16 1.17663 11.3894)
(-1.7499e-15 -1.37556 12.2003)
(-1.62067e-15 -3.72805 11.8149)
(-1.33997e-15 -5.99824 11.4281)
(-6.76461e-16 -7.45972 11.3661)
(1.93606e-15 -7.64427 11.9772)
(4.53321e-15 -6.15208 12.4851)
(4.59884e-16 -2.22925 11.9812)
(-4.23743e-15 4.20103 10.9404)
(-1.14098e-15 1.32756 0.826076)
(-1.21617e-15 -0.472324 -1.94973)
(-1.33483e-15 -2.25175 -2.91584)
(-1.5468e-15 -3.27341 -2.4711)
(-1.34043e-15 -3.85074 -1.79141)
(2.69709e-16 -3.27964 -0.0241646)
(-2.33867e-16 -0.307967 3.86362)
(-3.88831e-16 2.08275 5.68293)
(3.19952e-16 2.9007 6.53854)
(1.01802e-15 1.98238 8.61042)
(3.78576e-16 0.367065 11.6964)
(-9.78222e-16 -1.54273 12.8648)
(-1.5959e-15 -3.68914 13.0673)
(-1.30538e-15 -5.96703 13.1413)
(3.26197e-17 -7.52834 13.1659)
(1.9631e-15 -7.6835 12.9991)
(1.7509e-15 -6.17652 11.5318)
(-5.41912e-16 -3.80022 7.97049)
(1.66018e-15 -1.743 5.08744)
(-1.13445e-15 2.16624 1.8711)
(-1.01545e-15 0.273962 -1.07885)
(-1.2448e-15 -1.96094 -2.20861)
(-1.50176e-15 -3.41905 -2.22549)
(-1.4293e-15 -4.21942 -1.79446)
(2.02831e-16 -4.31223 -0.85683)
(7.7151e-17 -1.5689 2.64907)
(-4.88198e-16 1.44564 5.57916)
(2.1287e-16 2.33051 6.28923)
(1.33593e-15 0.942839 8.11207)
(1.48158e-15 -0.542224 11.286)
(6.49457e-16 -1.92799 12.8301)
(-1.12052e-17 -3.85811 13.6035)
(-2.29145e-18 -6.0344 13.9955)
(6.41304e-16 -7.41487 13.8459)
(9.45251e-16 -7.01326 12.4509)
(-1.68196e-16 -4.37216 8.48757)
(-8.51101e-16 -0.560443 2.04937)
(-1.50198e-16 1.83974 -2.61065)
(-1.14566e-15 2.83101 2.7738)
(-9.94487e-16 0.897642 -0.0522365)
(-1.15966e-15 -1.55697 -1.37439)
(-1.44985e-15 -3.41076 -1.8207)
(-1.47403e-15 -4.40087 -1.67166)
(-5.8499e-17 -5.02533 -1.25737)
(4.3137e-16 -2.96091 1.09554)
(-5.67542e-16 0.651595 5.21482)
(9.83001e-18 1.89538 5.86245)
(1.38509e-15 0.0306922 6.96305)
(2.06621e-15 -1.48316 9.86624)
(1.73383e-15 -2.48778 11.9364)
(1.22948e-15 -4.16237 13.1667)
(8.75272e-16 -6.06831 13.626)
(5.70323e-16 -6.92173 12.9608)
(-6.72751e-17 -5.53701 10.1182)
(-7.01294e-16 -1.92745 4.45696)
(-3.65027e-17 1.36806 -0.944117)
(-5.33899e-16 1.66776 -1.76024)
(-1.19185e-15 3.42463 3.86733)
(-1.06666e-15 1.67345 1.32005)
(-1.11163e-15 -1.16455 -0.434309)
(-1.39937e-15 -3.29729 -1.32619)
(-1.48802e-15 -4.45268 -1.48107)
(-4.17966e-16 -5.378 -1.34869)
(6.08497e-16 -4.20643 -0.285955)
(-5.8007e-16 -0.340789 4.433)
(-2.5442e-16 1.63438 5.38712)
(1.10154e-15 -0.670863 5.38872)
(2.08093e-15 -2.55418 7.75375)
(2.10753e-15 -3.25967 10.176)
(1.64174e-15 -4.52968 11.7093)
(9.69668e-16 -5.93619 12.0325)
(1.58354e-16 -5.98765 10.7438)
(-5.20138e-16 -3.57955 6.7844)
(-3.18074e-16 0.107081 0.633648)
(-6.07638e-17 1.84028 -1.06644)
(-6.69012e-16 1.94769 -1.7309)
(-1.23814e-15 3.92459 4.77867)
(-1.12046e-15 2.51637 2.60389)
(-1.1331e-15 -0.512237 0.306594)
(-1.36739e-15 -2.97458 -0.825307)
(-1.48872e-15 -4.37943 -1.19204)
(-7.5836e-16 -5.49588 -1.19557)
(5.09483e-16 -5.3016 -1.06798)
(-5.34008e-16 -1.66593 3.30854)
(-4.90831e-16 1.52728 4.92009)
(5.66885e-16 -0.874175 3.78213)
(1.69175e-15 -3.41608 5.38316)
(2.04871e-15 -4.06007 7.82531)
(1.64775e-15 -4.90806 9.55745)
(7.72262e-16 -5.68302 9.74115)
(-1.37766e-16 -4.84482 8.04471)
(-3.91804e-16 -1.64968 3.72863)
(3.65924e-16 1.26911 -1.02882)
(-1.52753e-17 2.18102 -1.83486)
(-7.19554e-16 1.96205 -1.92531)
(-1.27077e-15 4.34629 5.32696)
(-1.16797e-15 3.38231 3.66614)
(-1.14728e-15 0.0477902 1.09405)
(-1.36758e-15 -2.76088 -0.405752)
(-1.50168e-15 -4.32079 -0.97049)
(-1.04277e-15 -5.43794 -1.14847)
(2.73128e-16 -5.88536 -1.56513)
(-4.69415e-16 -2.67485 2.14723)
(-6.31667e-16 1.32586 4.40747)
(3.14039e-17 -1.09964 2.7549)
(1.11822e-15 -4.27379 3.25907)
(1.77872e-15 -4.94064 5.29841)
(1.68154e-15 -5.25233 7.29477)
(8.09227e-16 -5.28802 7.63149)
(-1.16893e-16 -3.5979 5.71365)
(-1.15968e-16 0.168896 1.19599)
(2.30956e-16 2.17428 -1.56716)
(-1.59835e-16 2.27527 -2.10894)
(-8.67949e-16 1.8964 -1.98311)
(-1.28683e-15 4.67659 5.54721)
(-1.19557e-15 4.39396 4.29907)
(-1.08264e-15 1.45999 2.01954)
(-1.28024e-15 -2.0013 -0.0320559)
(-1.38496e-15 -4.00977 -0.663176)
(-1.17016e-15 -5.27342 -1.0036)
(-2.10894e-16 -6.69808 -1.17284)
(-7.21095e-16 -4.38062 1.6404)
(-6.83736e-16 1.14252 3.67672)
(-3.60863e-16 0.0287231 2.61573)
(4.09088e-16 -4.40372 1.78327)
(9.9383e-16 -5.65901 2.32105)
(1.26519e-15 -5.92213 3.65403)
(9.46928e-16 -5.09371 4.27031)
(2.94919e-16 -2.23697 3.17514)
(3.4e-16 1.5571 0.328706)
(2.3016e-16 2.86298 -1.88864)
(-2.72234e-16 2.33319 -2.11438)
(-9.98828e-16 1.77046 -1.91451)
(3.4914e-16 8.32455 14.4062)
(-4.60758e-15 17.2861 29.2853)
(-4.14743e-15 18.2923 29.8558)
(-4.07767e-15 16.6237 26.7186)
(-4.72281e-15 15.064 23.6385)
(-6.3297e-15 13.8221 21.3224)
(-5.47731e-15 12.6306 19.1856)
(-4.8539e-15 11.4698 17.3127)
(-4.23805e-15 10.2715 15.4071)
(-3.00264e-15 8.9946 13.4048)
(-1.10289e-15 7.6391 11.2925)
(1.16773e-15 6.23697 9.09566)
(1.49913e-15 5.01356 7.16996)
(1.05728e-15 4.30729 6.15735)
(-7.63834e-16 4.4055 6.55493)
(-4.31951e-15 5.36606 8.51979)
(-6.61091e-15 7.01658 11.5059)
(-7.47807e-15 8.48692 14.5396)
(-7.48342e-15 9.28575 15.5522)
(-7.22905e-15 6.39554 11.5862)
(-1.37027e-16 8.2669 13.5971)
(-4.20321e-15 16.4488 28.8223)
(-2.97429e-15 15.9285 27.3069)
(-3.44929e-15 13.4784 23.3952)
(-4.21598e-15 11.8793 20.4908)
(-6.47164e-15 10.7291 18.5513)
(-5.16003e-15 9.88692 17.0839)
(-5.05021e-15 9.11811 15.6748)
(-5.15658e-15 8.379 14.2964)
(-5.27907e-15 7.68122 12.8988)
(-5.35854e-15 7.01126 11.4871)
(-5.1383e-15 6.39888 10.087)
(-5.82009e-15 5.88379 8.76521)
(-6.33911e-15 5.54813 7.74618)
(-7.04802e-15 5.64093 7.52931)
(-8.66145e-15 6.22687 8.45896)
(-9.41797e-15 7.25864 10.3591)
(-8.99305e-15 8.16528 12.5712)
(-7.96229e-15 8.46112 13.5891)
(-8.80381e-15 6.13011 10.5078)
(-9.14771e-17 7.61943 13.0044)
(-1.1044e-15 16.3519 29.1208)
(-6.80272e-16 16.7359 29.2134)
(-8.36322e-16 15.0665 25.9938)
(-8.72583e-16 13.591 23.0856)
(-3.09082e-15 12.4732 20.7859)
(-2.5153e-15 11.6 19.0389)
(-2.17389e-15 10.9198 17.5733)
(-2.40674e-15 10.2947 16.2395)
(-3.2016e-15 9.70302 14.9457)
(-3.85316e-15 9.11878 13.6563)
(-4.35584e-15 8.5223 12.3333)
(-4.42604e-15 7.90792 10.9625)
(-4.50504e-15 7.29543 9.60604)
(-4.74527e-15 6.7675 8.44788)
(-5.19779e-15 6.44012 7.83053)
(-5.99833e-15 6.39783 7.99812)
(-6.28238e-15 6.50498 8.74287)
(-5.26487e-15 6.20862 9.21683)
(-6.37095e-15 4.1463 6.3247)
(6.64116e-17 5.98594 10.1449)
(3.68145e-16 16.2684 28.8571)
(2.21118e-16 17.5342 30.7561)
(2.82248e-16 15.7052 27.1633)
(3.73079e-16 13.879 23.8697)
(-1.43796e-15 12.6902 21.4779)
(-1.5837e-15 11.7951 19.757)
(-1.46777e-15 11.0805 18.2579)
(-1.69642e-15 10.3878 16.857)
(-1.9322e-15 9.7128 15.4945)
(-2.18568e-15 9.0439 14.1713)
(-2.69095e-15 8.38349 12.8846)
(-3.33757e-15 7.7243 11.6155)
(-3.56034e-15 7.06235 10.3378)
(-4.2284e-15 6.38513 9.05692)
(-4.74705e-15 5.74394 7.84188)
(-5.19419e-15 5.1257 6.88244)
(-5.34934e-15 4.61921 6.14591)
(-4.92864e-15 3.67758 5.38535)
(-8.18531e-15 1.60625 1.59695)
(-1.92782e-17 5.06558 8.43678)
(-1.01151e-16 16.4703 28.4185)
(-6.42891e-17 18.384 31.8664)
(-8.12182e-17 16.668 28.4555)
(-1.19186e-16 14.768 25.1114)
(4.7015e-16 13.586 22.7032)
(5.22563e-16 12.6851 20.9581)
(4.83717e-16 11.9399 19.3953)
(5.02138e-16 11.1955 17.8868)
(6.12807e-16 10.439 16.376)
(7.15815e-16 9.65955 14.868)
(8.25014e-16 8.86299 13.3799)
(9.02975e-16 8.05327 11.9323)
(9.65815e-16 7.24228 10.5256)
(9.73296e-16 6.40415 9.15145)
(9.51886e-16 5.5569 7.75535)
(9.9594e-16 4.5944 6.33943)
(1.13191e-15 3.61448 4.75538)
(1.34954e-15 2.01067 2.83249)
(1.53194e-15 0.193764 -1.02836)
(1.84076e-18 6.29069 10.2957)
(2.22876e-17 17.4808 28.6805)
(1.71501e-17 19.4532 32.4227)
(1.90338e-17 17.8257 29.2597)
(2.94314e-17 15.9112 26.0353)
(-1.05957e-16 14.7808 23.7134)
(-1.33328e-16 13.9064 22.0099)
(-1.2503e-16 13.1685 20.4209)
(-1.24983e-16 12.3918 18.8229)
(-1.40091e-16 11.5597 17.1513)
(-1.53905e-16 10.658 15.4183)
(-1.60844e-16 9.69566 13.6459)
(-1.5703e-16 8.67903 11.8652)
(-1.40586e-16 7.62464 10.0944)
(-1.03841e-16 6.513 8.35237)
(-5.26161e-17 5.36707 6.59686)
(-8.06549e-18 4.06864 4.8067)
(1.1857e-17 2.70006 2.71105)
(-8.42056e-17 0.46557 0.0447166)
(1.14528e-15 -0.955326 -3.7631)
(5.30654e-21 10.2967 17.408)
(-3.76508e-18 19.8858 31.6843)
(-3.66094e-18 19.8681 32.4918)
(-3.72509e-18 18.18 29.2057)
(-5.33412e-18 16.5181 26.7363)
(1.82232e-17 15.7178 24.8772)
(2.65547e-17 14.9273 23.4165)
(2.49945e-17 14.2489 21.8468)
(2.30474e-17 13.3977 20.146)
(2.28405e-17 12.4396 18.2433)
(2.20375e-17 11.3454 16.2169)
(1.924e-17 10.1677 14.1077)
(1.38974e-17 8.90612 11.9552)
(5.26807e-18 7.57287 9.76541)
(-7.9628e-18 6.13343 7.55496)
(-2.60639e-17 4.61224 5.29026)
(-4.81847e-17 2.90536 3.06411)
(-6.91189e-17 1.24794 0.621705)
(-9.56236e-17 -1.3473 -2.18699)
(2.63556e-16 -2.2559 -6.11057)
(-1.32815e-20 14.4226 25.4094)
(5.54875e-19 20.985 33.9057)
(5.79646e-19 18.1984 31.143)
(5.59431e-19 16.9723 28.2905)
(7.1254e-19 15.6555 26.9952)
(-3.21051e-18 15.199 25.6628)
(-4.60402e-18 14.2915 24.4983)
(-4.06862e-18 13.5005 22.8739)
(-3.36266e-18 12.2609 20.9402)
(-2.92443e-18 10.8981 18.6271)
(-2.36928e-18 9.32925 16.1915)
(-1.4274e-18 7.71224 13.659)
(1.42352e-19 5.96411 11.0263)
(3.08568e-18 4.10865 8.214)
(8.36435e-18 2.1471 5.23004)
(1.44527e-17 0.0178513 2.00144)
(4.46922e-18 -1.96147 -1.05313)
(-4.18317e-17 -2.52929 -2.7604)
(-8.7513e-17 -4.62592 -5.29053)
(-8.69625e-17 -3.53161 -7.21483)
(-2.3182e-21 15.8136 28.7175)
(-7.45174e-20 18.8053 31.5448)
(-5.5219e-20 15.5389 28.4237)
(-4.93983e-20 15.1143 26.7181)
(3.50852e-20 13.7871 25.8285)
(6.04018e-19 13.2113 24.5656)
(6.27036e-19 12.0205 23.3968)
(3.9679e-19 10.883 21.5765)
(1.53331e-19 9.19981 19.3269)
(-1.48243e-19 7.46076 16.6974)
(-5.13626e-19 5.5999 14.0682)
(-6.75133e-19 3.79297 11.4321)
(-1.66302e-19 1.93205 8.76492)
(1.17927e-18 0.0882188 6.04612)
(2.06124e-18 -1.60832 3.4774)
(-2.1558e-18 -2.92999 1.30429)
(-1.85153e-17 -3.78834 -0.518181)
(-4.62656e-17 -3.85104 -1.65231)
(-6.81773e-17 -2.3487 -0.654847)
(-5.0433e-17 0.178582 1.94179)
(2.4065e-21 14.3667 26.2309)
(1.40165e-21 16.9106 29.1193)
(-9.5478e-21 14.4215 26.615)
(-1.2747e-20 13.6548 24.4408)
(-2.42332e-20 12.1562 23.2676)
(-4.96638e-20 11.3483 21.79)
(6.40306e-21 9.99674 20.4927)
(7.24484e-20 8.7122 18.6667)
(9.61235e-20 7.01517 16.4907)
(3.78374e-20 5.29544 13.9743)
(-2.50854e-20 3.53066 11.4303)
(3.8254e-19 1.88323 8.94624)
(1.87363e-18 0.394446 6.66937)
(3.49342e-18 -0.726938 4.8286)
(1.69829e-18 -1.20086 3.82117)
(-5.71492e-18 -0.648608 4.23468)
(-1.41102e-17 1.27867 6.63244)
(-1.4914e-17 4.41975 10.5596)
(-5.79871e-18 7.33279 13.7087)
(3.85535e-18 5.86555 11.593)
(-6.71886e-22 13.1909 23.9244)
(2.51824e-21 17.3535 29.1488)
(5.60294e-21 14.5996 26.1566)
(5.51807e-21 13.8466 23.1138)
(1.92819e-21 12.2287 21.716)
(-6.2041e-21 11.6176 19.7742)
(-1.84422e-20 10.3416 18.2954)
(-2.30856e-20 9.45058 16.5239)
(-2.439e-20 8.28932 14.7833)
(-4.44375e-20 7.24694 12.844)
(-8.78969e-20 6.20149 10.9038)
(-4.8767e-20 5.35541 9.09525)
(2.99091e-19 4.82835 7.72285)
(1.03444e-18 4.6989 7.01167)
(1.93459e-18 5.02627 7.13857)
(2.61467e-18 5.79601 8.16638)
(3.07285e-18 6.94371 9.8922)
(3.55572e-18 7.82596 11.7867)
(3.5439e-18 8.1455 12.4347)
(1.35406e-18 5.67855 9.88098)
(1.58275e-22 13.288 24.0851)
(-8.849e-22 18.2448 30.0209)
(-1.56045e-21 15.252 27.1179)
(-1.44713e-21 14.6545 23.8683)
(3.23125e-24 13.0813 22.4535)
(3.33903e-21 12.6129 20.5295)
(5.66913e-21 11.5527 19.0386)
(5.33135e-21 10.8555 17.3959)
(3.62851e-21 10.0717 15.9327)
(4.13956e-21 9.42168 14.5295)
(8.10054e-21 8.82493 13.1927)
(5.91018e-21 8.28329 11.8845)
(-2.25942e-20 7.77862 10.5886)
(-8.44148e-20 7.28978 9.33727)
(-1.52279e-19 6.82948 8.21967)
(-2.19841e-19 6.42304 7.43792)
(-3.66062e-19 6.10765 7.12791)
(-6.71889e-19 5.76339 7.14888)
(-1.06696e-18 4.96018 6.82217)
(-1.16803e-18 2.91979 4.11701)
(-3.06336e-23 14.0336 25.4909)
(2.01073e-22 19.0014 30.7335)
(3.21407e-22 15.6282 27.8125)
(2.80774e-22 15.3216 24.6773)
(-4.76549e-23 13.7023 23.3382)
(-7.76124e-22 13.3037 21.4262)
(-1.1188e-21 12.2841 19.9631)
(-9.02433e-22 11.5975 18.3294)
(-5.41494e-22 10.8108 16.8152)
(-3.64425e-22 10.0835 15.323)
(4.59962e-22 9.37294 13.8869)
(3.50545e-21 8.67844 12.5046)
(8.00207e-21 7.99419 11.1708)
(8.28306e-21 7.31031 9.87355)
(-4.50382e-21 6.59288 8.59384)
(-3.35683e-20 5.82747 7.28702)
(-6.62859e-20 4.91374 5.9592)
(-8.13148e-20 3.91409 4.51364)
(-5.84375e-20 2.33648 2.80067)
(-1.11712e-19 0.600546 -0.528357)
(4.66138e-24 15.1054 27.955)
(-3.42889e-23 19.5594 31.0433)
(-4.82537e-23 15.7181 28.4663)
(-3.42435e-23 16.019 25.5375)
(2.51534e-23 14.1564 24.3865)
(1.29332e-22 13.9565 22.3881)
(1.18099e-22 12.8334 20.9947)
(-2.19575e-23 12.241 19.3508)
(-1.72843e-22 11.4592 17.8841)
(-2.64282e-22 10.7787 16.3795)
(-5.42631e-22 10.0687 14.877)
(-1.33598e-21 9.32919 13.3219)
(-2.10521e-21 8.51165 11.6934)
(-8.42254e-22 7.58928 9.97203)
(5.11939e-21 6.51248 8.16603)
(1.72064e-20 5.31109 6.24565)
(3.40696e-20 3.88863 4.23174)
(5.38726e-20 2.3798 1.90131)
(8.98471e-20 0.0635442 -0.676948)
(5.68723e-20 -1.22964 -4.37197)
(-5.19431e-25 16.0679 30.614)
(4.36704e-24 19.6952 30.8158)
(5.97806e-24 15.65 29.1482)
(5.80095e-24 16.5821 26.4374)
(1.60965e-24 14.3936 25.4977)
(-1.61717e-23 14.4533 23.4843)
(-5.85786e-23 13.2019 22.2539)
(-1.4881e-22 12.7685 20.6847)
(-2.3445e-22 12.0036 19.3743)
(-9.67562e-23 11.432 17.9766)
(6.11881e-22 10.7605 16.5388)
(2.0476e-21 9.98344 14.8754)
(3.72427e-21 8.94176 12.8695)
(4.50107e-21 7.57522 10.4644)
(3.45528e-21 5.92047 7.83645)
(8.70352e-22 4.18657 5.15781)
(-2.93158e-21 2.28885 2.51901)
(-2.7536e-21 0.481868 -0.479367)
(3.19401e-20 -2.24886 -3.45334)
(1.21415e-19 -2.77682 -7.19818)
(-5.61655e-26 16.2501 31.8834)
(1.59974e-25 19.1448 29.8576)
(2.87947e-24 15.2116 29.1966)
(1.00176e-23 16.3458 26.6)
(1.44836e-23 13.9592 25.7819)
(-1.83549e-23 14.0453 23.8631)
(-1.39042e-22 12.6818 22.7819)
(-3.28349e-22 12.2632 21.3527)
(-3.67598e-22 11.4104 20.2213)
(1.98695e-22 10.8009 18.9384)
(1.79572e-21 9.94633 17.4926)
(4.19357e-21 8.81745 15.4762)
(6.03105e-21 7.11128 12.6147)
(5.5707e-21 4.89996 8.97913)
(3.368e-21 2.7385 5.4747)
(2.81672e-21 0.935248 2.59975)
(1.95709e-22 -0.762402 0.00277191)
(-1.14817e-20 -1.30766 -1.93137)
(3.46821e-20 -4.35121 -5.27966)
(1.58622e-19 -3.66928 -7.88146)
(-5.08634e-26 15.4688 31.1643)
(-3.05977e-25 18.3906 28.6163)
(1.95894e-24 14.4016 28.2244)
(8.88585e-24 15.3322 25.723)
(9.45353e-24 13.1364 24.8275)
(-3.51496e-23 12.878 23.0928)
(-1.71094e-22 11.661 21.9494)
(-3.51724e-22 11.014 20.6368)
(-2.9725e-22 10.1501 19.4965)
(4.93236e-22 9.3701 18.2397)
(2.31026e-21 8.36109 16.703)
(4.40525e-21 6.99871 14.485)
(4.76235e-21 5.14354 11.3911)
(2.06042e-21 3.15408 7.92772)
(-1.36835e-21 1.68091 5.21356)
(-3.56484e-22 0.584503 3.08272)
(1.00245e-20 -1.03567 0.0143205)
(3.34601e-20 -2.85825 -3.30252)
(7.59909e-20 -3.80744 -4.51643)
(9.73496e-20 -1.84748 -2.20274)
(-8.25725e-26 14.0472 30.2869)
(1.92032e-26 17.9196 27.4223)
(2.4475e-24 13.2368 27.2775)
(8.99437e-24 14.1146 24.9298)
(8.15513e-24 12.0189 23.9953)
(-3.44887e-23 11.5187 22.4195)
(-1.54783e-22 10.3795 21.2379)
(-3.20319e-22 9.61391 19.9718)
(-3.52213e-22 8.76253 18.8109)
(2.97943e-23 7.97162 17.5984)
(9.14854e-22 7.0985 16.2343)
(1.81391e-21 6.1113 14.5435)
(1.79551e-21 5.02645 12.4819)
(5.11064e-22 3.98931 10.2013)
(-8.18653e-22 3.08522 7.91483)
(3.24912e-22 2.19775 5.6137)
(7.1211e-21 1.18252 2.97653)
(2.47408e-20 -0.111433 -0.32116)
(6.0706e-20 -1.64612 -3.41501)
(5.65029e-20 0.759376 1.75339)
(-4.54771e-26 11.092 28.366)
(-2.33866e-25 16.99 24.8002)
(7.69547e-25 11.9458 25.1898)
(4.80494e-24 12.6221 23.4422)
(7.76164e-24 10.8775 22.6764)
(-8.79038e-24 10.2159 21.5609)
(-7.58703e-23 9.21747 20.626)
(-2.1598e-22 8.44104 19.6647)
(-4.10134e-22 7.66979 18.7577)
(-5.72922e-22 6.98773 17.8764)
(-5.65607e-22 6.36756 17.0299)
(-2.95286e-22 5.82313 16.1878)
(1.23793e-22 5.33396 15.283)
(3.61484e-22 4.87054 14.2201)
(2.07117e-22 4.40095 12.9243)
(-2.32445e-23 3.86256 11.3326)
(5.91794e-22 3.15237 9.27908)
(3.55301e-21 2.24615 6.33624)
(1.02676e-20 1.00592 2.13854)
(1.31362e-20 -0.664322 -2.07613)
(-1.48014e-26 2.60089 17.0468)
(-1.67569e-26 8.05179 13.6722)
(2.7955e-25 5.18477 14.5134)
(1.43643e-24 5.00198 14.1152)
(2.91077e-24 4.09117 14.0666)
(2.00367e-25 3.5397 13.8851)
(-1.74675e-23 2.98162 13.7215)
(-6.45157e-23 2.53288 13.5306)
(-1.49652e-22 2.15094 13.3285)
(-2.64263e-22 1.84488 13.1092)
(-3.76605e-22 1.60458 12.8677)
(-4.37559e-22 1.4254 12.5952)
(-4.01424e-22 1.30422 12.2876)
(-2.63175e-22 1.25321 11.9402)
(-9.08513e-23 1.29436 11.546)
(-2.52392e-24 1.40053 11.1202)
(-7.21422e-23 1.59307 10.6238)
(-2.36398e-22 2.1301 9.75705)
(-2.9022e-22 2.217 8.42375)
(-4.80971e-23 -0.293195 6.1755)
(1.61201e-26 -2.60095 17.0469)
(1.81554e-26 -8.05181 13.6723)
(-3.02801e-25 -5.1848 14.5136)
(-1.55433e-24 -5.00198 14.1153)
(-3.14618e-24 -4.09116 14.0668)
(-2.08565e-25 -3.53968 13.8853)
(1.89042e-23 -2.9816 13.7217)
(6.97718e-23 -2.53285 13.5308)
(1.61781e-22 -2.15089 13.3288)
(2.85647e-22 -1.84479 13.1095)
(4.07348e-22 -1.60442 12.8678)
(4.74543e-22 -1.42516 12.5952)
(4.38864e-22 -1.30391 12.2875)
(2.95004e-22 -1.25288 11.9401)
(1.13643e-22 -1.29405 11.5459)
(1.5821e-23 -1.40025 11.1203)
(7.59583e-23 -1.59283 10.624)
(2.31701e-22 -2.12986 9.75735)
(2.836e-22 -2.21663 8.42409)
(4.69206e-23 0.293094 6.17512)
(4.92243e-26 -11.0921 28.3664)
(2.5483e-25 -16.9904 24.8005)
(-8.27719e-25 -11.946 25.1901)
(-5.17571e-24 -12.6225 23.4424)
(-8.38498e-24 -10.8779 22.6766)
(9.40625e-24 -10.2163 21.561)
(8.17621e-23 -9.21801 20.6261)
(2.33178e-22 -8.44168 19.6647)
(4.43336e-22 -7.67055 18.7576)
(6.19961e-22 -6.98865 17.8763)
(6.12953e-22 -6.36868 17.03)
(3.21562e-22 -5.82446 16.1879)
(-1.32756e-22 -5.33537 15.2831)
(-3.99485e-22 -4.87186 14.2202)
(-2.55563e-22 -4.40207 12.9246)
(-1.91147e-23 -3.86337 11.333)
(-6.02187e-22 -3.15263 9.27933)
(-3.49883e-21 -2.24574 6.33577)
(-1.02016e-20 -1.00525 2.13648)
(-1.30695e-20 0.666337 -2.08196)
(8.84483e-26 -14.0469 30.2867)
(-4.52635e-26 -17.9198 27.4217)
(-2.62985e-24 -13.2366 27.277)
(-9.65336e-24 -14.1147 24.929)
(-8.82006e-24 -12.0189 23.9944)
(3.70056e-23 -11.5188 22.4184)
(1.66659e-22 -10.3797 21.2366)
(3.45374e-22 -9.61406 19.9704)
(3.80312e-22 -8.76268 18.8094)
(-3.04343e-23 -7.9718 17.5966)
(-9.838e-22 -7.09885 16.2326)
(-1.96252e-21 -6.11227 14.5425)
(-1.98899e-21 -5.02875 12.4827)
(-7.00547e-22 -3.99328 10.2048)
(6.72456e-22 -3.09034 7.9207)
(-3.52901e-22 -2.20334 5.6209)
(-6.95653e-21 -1.1885 2.98427)
(-2.47234e-20 0.106322 -0.315395)
(-6.20731e-20 1.64434 -3.41477)
(-5.75926e-20 -0.759833 1.74849)
(4.2653e-26 -15.4682 31.1631)
(4.84667e-25 -18.3901 28.6155)
(-1.90631e-24 -14.4009 28.2233)