/*--------------------------------*- C++ -*----------------------------------*\
| =========                 |                                                 |
| \\      /  F ield         | OpenFOAM: The Open Source CFD Toolbox           |
|  \\    /   O peration     | Version:  4.1                                   |
|   \\  /    A nd           | Web:      www.OpenFOAM.org                      |
|    \\/     M anipulation  |                                                 |
\*---------------------------------------------------------------------------*/
FoamFile
{
    version     2.0;
    format      ascii;
    class       volScalarField;
    location    "30";
    object      p;
}
// * * * * * * * * * * * * * * * * * * * * * * * * * * * * * * * * * * * * * //

dimensions      [0 2 -2 0 0 0 0];

internalField   nonuniform List<scalar> 
1280
(
-1.44787e+18
-1.05616e+18
-1.08043e+18
-1.43008e+18
-1.55193e+18
-1.65045e+18
-1.84312e+18
-2.00712e+18
-2.08663e+18
-2.19534e+18
-2.43802e+18
-2.54138e+18
-2.633e+18
-2.88104e+18
-2.99186e+18
-3.0798e+18
-3.33429e+18
-3.43175e+18
-3.5618e+18
-3.73221e+18
-3.8752e+18
-3.99075e+18
-4.1291e+18
-4.24946e+18
-4.35392e+18
-4.48969e+18
-4.89234e+18
-4.82449e+18
-4.90875e+18
-5.04179e+18
-5.15866e+18
-5.27432e+18
-5.39349e+18
-5.51399e+18
-5.63531e+18
-5.76018e+18
-5.88425e+18
-6.01813e+18
-6.14017e+18
-6.29592e+18
-7.37867e+18
-6.90743e+18
-7.0237e+18
-7.35058e+18
-7.46223e+18
-7.79947e+18
-8.21173e+18
-8.57464e+18
-8.75311e+18
-9.12934e+18
-9.8355e+18
-1.01034e+19
-1.06354e+19
-1.13243e+19
-1.19545e+19
-1.22171e+19
-1.29714e+19
-1.38158e+19
-1.46286e+19
-1.47079e+19
-1.60191e+19
-1.6415e+19
-1.71178e+19
-1.77633e+19
-1.83712e+19
-1.89766e+19
-1.95742e+19
-2.01624e+19
-2.07495e+19
-2.13246e+19
-2.19208e+19
-2.24675e+19
-2.31362e+19
-2.64048e+19
-2.56544e+19
-2.65266e+19
-2.76953e+19
-2.88014e+19
-2.98858e+19
-3.12564e+19
-3.39158e+19
-3.3789e+19
-3.38608e+19
-3.66251e+19
-4.04098e+19
-4.21607e+19
-4.604e+19
-5.23132e+19
-5.42958e+19
-5.91688e+19
-6.93149e+19
-7.54214e+19
-1.02394e+20
-1.18563e+20
-1.40726e+20
-1.0227e+20
-6.10903e+20
-4.78534e+20
1.93477e+19
5.37635e+19
9.60286e+16
1.22313e+16
4.70034e+16
4.94315e+16
8.75597e+16
1.3712e+17
2.22763e+17
3.60412e+17
5.87468e+17
9.6347e+17
1.59367e+18
2.65756e+18
4.43002e+18
7.3427e+18
1.21055e+19
1.97289e+19
4.69742e+19
1.01447e+20
-5.06177e+20
-4.27695e+16
-5.81287e+15
-1.56749e+16
-2.21203e+16
-4.2864e+16
-7.0331e+16
-1.19068e+17
-1.99544e+17
-3.39869e+17
-5.97703e+17
-1.09982e+18
-2.12146e+18
-4.32765e+18
-8.71393e+18
-1.37528e+19
-1.6647e+19
-2.11528e+19
-2.13519e+17
-9.31237e+18
2.97784e+15
6.54136e+15
1.66597e+16
2.05862e+16
3.26923e+16
4.77443e+16
7.01623e+16
1.01763e+17
1.46872e+17
2.1021e+17
2.88133e+17
3.30123e+17
6.8834e+16
-1.08702e+18
-3.60872e+18
-6.55681e+18
-1.11333e+19
-3.46996e+19
-7.86475e+19
1.35428e+16
3.50725e+15
1.01767e+16
9.25303e+15
1.54598e+16
1.90739e+16
2.52061e+16
3.09368e+16
3.57407e+16
3.3201e+16
-4.6851e+15
-1.65998e+17
-7.25141e+17
-2.04749e+18
-3.83767e+18
-6.36349e+18
-1.01859e+19
-1.96118e+19
-3.46224e+19
8.24022e+15
4.759e+15
7.74076e+15
6.4602e+15
8.65077e+15
8.56417e+15
7.51973e+15
1.33033e+15
-1.57791e+16
-5.90004e+16
-1.69463e+17
-4.46692e+17
-1.12706e+18
-2.34301e+18
-3.95038e+18
-6.1549e+18
-9.6552e+18
-1.91983e+19
-3.51539e+19
7.76328e+15
4.07561e+15
7.57733e+15
6.79791e+15
8.783e+15
8.76075e+15
7.41038e+15
6.61437e+14
-1.77872e+16
-6.41373e+16
-1.78533e+17
-4.47896e+17
-1.05803e+18
-2.07885e+18
-3.49793e+18
-5.64311e+18
-8.83976e+18
-1.50822e+19
-2.46266e+19
7.708e+15
2.80083e+15
6.43908e+15
5.39198e+15
6.62114e+15
5.47729e+15
2.48771e+15
-6.8285e+15
-2.9432e+16
-8.31159e+16
-2.07169e+17
-4.79702e+17
-1.03136e+18
-1.94473e+18
-3.27164e+18
-5.22994e+18
-8.01007e+18
-1.28545e+19
-2.01743e+19
6.93102e+15
2.0395e+15
5.31175e+15
3.97428e+15
4.41923e+15
2.22903e+15
-2.46677e+15
-1.48558e+16
-4.29093e+16
-1.04753e+17
-2.36106e+17
-5.04663e+17
-9.88964e+17
-1.79465e+18
-2.9834e+18
-4.71922e+18
-7.12617e+18
-1.0607e+19
-1.53441e+19
6.0703e+15
1.49978e+15
4.41318e+15
2.90038e+15
2.86049e+15
-3.01348e+13
-6.0472e+15
-2.05909e+16
-5.17667e+16
-1.16912e+17
-2.47861e+17
-4.96668e+17
-9.29923e+17
-1.64948e+18
-2.72813e+18
-4.25241e+18
-6.3035e+18
-9.01522e+18
-1.24494e+19
5.22616e+15
1.06005e+15
3.61367e+15
1.9695e+15
1.56276e+15
-1.90627e+15
-8.90532e+15
-2.47187e+16
-5.73112e+16
-1.22689e+17
-2.48648e+17
-4.75791e+17
-8.70616e+17
-1.51729e+18
-2.4718e+18
-3.791e+18
-5.52454e+18
-7.6364e+18
-1.0086e+19
4.39436e+15
7.2021e+14
2.92305e+15
1.17781e+15
4.44458e+14
-3.40146e+15
-1.09586e+16
-2.72581e+16
-5.99262e+16
-1.2342e+17
-2.41124e+17
-4.51195e+17
-8.11222e+17
-1.38706e+18
-2.22634e+18
-3.36149e+18
-4.81616e+18
-6.50565e+18
-8.33175e+18
3.62294e+15
4.56402e+14
2.34534e+15
5.47999e+14
-4.34447e+14
-4.38945e+15
-1.20824e+16
-2.81976e+16
-5.97786e+16
-1.19863e+17
-2.30038e+17
-4.24698e+17
-7.50461e+17
-1.25904e+18
-1.99027e+18
-2.95779e+18
-4.17171e+18
-5.52739e+18
-6.91865e+18
2.94104e+15
2.49637e+14
1.85359e+15
7.84766e+13
-1.0489e+15
-4.8827e+15
-1.23774e+16
-2.77273e+16
-5.76438e+16
-1.14401e+17
-2.1759e+17
-3.95627e+17
-6.86904e+17
-1.13266e+18
-1.76485e+18
-2.58275e+18
-3.58993e+18
-4.66465e+18
-5.80083e+18
2.36882e+15
9.38886e+13
1.4317e+15
-2.32758e+14
-1.39961e+15
-4.94106e+15
-1.19639e+16
-2.63927e+16
-5.47011e+16
-1.07967e+17
-2.02564e+17
-3.62772e+17
-6.20452e+17
-1.00733e+18
-1.54865e+18
-2.23325e+18
-3.06137e+18
-3.86787e+18
-4.70747e+18
1.85961e+15
-1.31619e+13
1.06666e+15
-4.10377e+14
-1.5268e+15
-4.62692e+15
-1.11226e+16
-2.47327e+16
-5.11453e+16
-9.96886e+16
-1.84847e+17
-3.26993e+17
-5.521e+17
-8.84531e+17
-1.34427e+18
-1.91397e+18
-2.59322e+18
-3.21229e+18
-3.83688e+18
1.4799e+15
-6.88631e+13
7.75293e+14
-4.68414e+14
-1.43256e+15
-4.14648e+15
-1.02067e+16
-2.27946e+16
-4.67719e+16
-9.04133e+16
-1.66128e+17
-2.90856e+17
-4.85935e+17
-7.7002e+17
-1.15886e+18
-1.63176e+18
-2.18912e+18
-2.67235e+18
-3.14995e+18
1.02232e+15
-1.08003e+14
5.2129e+14
-4.61055e+14
-1.24154e+15
-3.60045e+15
-9.06175e+15
-2.01032e+16
-4.09699e+16
-7.85264e+16
-1.42966e+17
-2.47878e+17
-4.10052e+17
-6.43091e+17
-9.58755e+17
-1.3353e+18
-1.77487e+18
-2.13362e+18
-2.51263e+18
9.82481e+14
-7.85303e+13
3.76754e+14
-3.27311e+14
-9.90419e+14
-2.85738e+15
-7.24089e+15
-1.60056e+16
-3.24836e+16
-6.19396e+16
-1.1214e+17
-1.93252e+17
-3.17788e+17
-4.95343e+17
-7.34824e+17
-1.01683e+18
-1.34664e+18
-1.59401e+18
-1.91052e+18
-3.194e+13
-9.99688e+13
1.29767e+14
-2.99733e+14
-8.74677e+14
-2.70824e+15
-7.2467e+15
-1.64158e+16
-3.37054e+16
-6.46486e+16
-1.17429e+17
-2.02773e+17
-3.33909e+17
-5.21119e+17
-7.73962e+17
-1.0719e+18
-1.41874e+18
-1.65649e+18
-1.94459e+18
1.68435e+15
1.27051e+12
3.63961e+14
2.93851e+12
-6.68582e+14
-2.8029e+15
-7.69821e+15
-1.74692e+16
-3.57851e+16
-6.84039e+16
-1.23756e+17
-2.12795e+17
-3.48685e+17
-5.41519e+17
-7.99086e+17
-1.1006e+18
-1.4406e+18
-1.66428e+18
-1.92069e+18
-5.04196e+18
-5.01741e+18
-5.00517e+18
-4.99678e+18
-4.98929e+18
-4.98334e+18
-4.98319e+18
-4.98614e+18
-4.9875e+18
-4.99024e+18
-4.99501e+18
-5.00141e+18
-5.00926e+18
-5.01841e+18
-5.02868e+18
-5.0402e+18
-5.05233e+18
-5.06661e+18
-5.07903e+18
-5.10086e+18
-4.99098e+18
-4.99289e+18
-4.99298e+18
-4.99238e+18
-4.99193e+18
-4.99153e+18
-4.99149e+18
-4.99194e+18
-4.99262e+18
-4.99363e+18
-4.99497e+18
-4.99663e+18
-4.99854e+18
-5.00072e+18
-5.00314e+18
-5.00576e+18
-5.00841e+18
-5.01126e+18
-5.01369e+18
-5.01727e+18
-4.98733e+18
-4.9875e+18
-4.98731e+18
-4.98729e+18
-4.98739e+18
-4.98747e+18
-4.98755e+18
-4.98765e+18
-4.98781e+18
-4.98801e+18
-4.98826e+18
-4.98858e+18
-4.98897e+18
-4.98943e+18
-4.98996e+18
-4.99055e+18
-4.99118e+18
-4.99191e+18
-4.99255e+18
-4.99355e+18
-4.98668e+18
-4.98673e+18
-4.98681e+18
-4.98688e+18
-4.98697e+18
-4.98708e+18
-4.98721e+18
-4.98735e+18
-4.98749e+18
-4.98763e+18
-4.98777e+18
-4.98791e+18
-4.98806e+18
-4.98821e+18
-4.98836e+18
-4.98851e+18
-4.98867e+18
-4.98883e+18
-4.98897e+18
-4.98918e+18
-4.98674e+18
-4.98673e+18
-4.98674e+18
-4.98674e+18
-4.98675e+18
-4.98676e+18
-4.98678e+18
-4.9868e+18
-4.98683e+18
-4.98686e+18
-4.9869e+18
-4.98695e+18
-4.98699e+18
-4.98704e+18
-4.9871e+18
-4.98715e+18
-4.98721e+18
-4.98727e+18
-4.98732e+18
-4.9874e+18
-4.98677e+18
-4.98677e+18
-4.98678e+18
-4.98679e+18
-4.98679e+18
-4.9868e+18
-4.98681e+18
-4.98682e+18
-4.98683e+18
-4.98684e+18
-4.98686e+18
-4.98687e+18
-4.98688e+18
-4.9869e+18
-4.98691e+18
-4.98693e+18
-4.98694e+18
-4.98696e+18
-4.98697e+18
-4.98699e+18
-4.98671e+18
-4.98671e+18
-4.98671e+18
-4.98672e+18
-4.98672e+18
-4.98672e+18
-4.98673e+18
-4.98673e+18
-4.98674e+18
-4.98674e+18
-4.98675e+18
-4.98675e+18
-4.98676e+18
-4.98677e+18
-4.98677e+18
-4.98678e+18
-4.98679e+18
-4.98679e+18
-4.9868e+18
-4.98681e+18
-4.98671e+18
-4.98671e+18
-4.98671e+18
-4.98672e+18
-4.98672e+18
-4.98672e+18
-4.98672e+18
-4.98672e+18
-4.98673e+18
-4.98673e+18
-4.98673e+18
-4.98673e+18
-4.98673e+18
-4.98674e+18
-4.98674e+18
-4.98674e+18
-4.98674e+18
-4.98675e+18
-4.98675e+18
-4.98675e+18
-4.98671e+18
-4.98671e+18
-4.98671e+18
-4.98671e+18
-4.98671e+18
-4.98671e+18
-4.98671e+18
-4.98671e+18
-4.98671e+18
-4.98672e+18
-4.98672e+18
-4.98672e+18
-4.98672e+18
-4.98672e+18
-4.98672e+18
-4.98672e+18
-4.98672e+18
-4.98672e+18
-4.98672e+18
-4.98672e+18
-4.98671e+18
-4.98671e+18
-4.98671e+18
-4.98671e+18
-4.98671e+18
-4.98671e+18
-4.98671e+18
-4.98671e+18
-4.98671e+18
-4.98671e+18
-4.98671e+18
-4.98671e+18
-4.98671e+18
-4.98671e+18
-4.98672e+18
-4.98672e+18
-4.98672e+18
-4.98672e+18
-4.98672e+18
-4.98672e+18
-4.98671e+18
-4.98671e+18
-4.98671e+18
-4.98671e+18
-4.98671e+18
-4.98671e+18
-4.98671e+18
-4.98671e+18
-4.98671e+18
-4.98671e+18
-4.98671e+18
-4.98671e+18
-4.98671e+18
-4.98671e+18
-4.98671e+18
-4.98671e+18
-4.98671e+18
-4.98671e+18
-4.98671e+18
-4.98671e+18
-4.98671e+18
-4.98671e+18
-4.98671e+18
-4.98671e+18
-4.98671e+18
-4.98671e+18
-4.98671e+18
-4.98671e+18
-4.98671e+18
-4.98671e+18
-4.98671e+18
-4.98671e+18
-4.98671e+18
-4.98671e+18
-4.98671e+18
-4.98671e+18
-4.98671e+18
-4.98671e+18
-4.98671e+18
-4.98671e+18
-4.98671e+18
-4.98671e+18
-4.98671e+18
-4.98671e+18
-4.98671e+18
-4.98671e+18
-4.98671e+18
-4.98671e+18
-4.98671e+18
-4.98671e+18
-4.98671e+18
-4.98671e+18
-4.98671e+18
-4.98671e+18
-4.98671e+18
-4.98671e+18
-4.98671e+18
-4.98671e+18
-4.98671e+18
-4.98671e+18
-4.98671e+18
-4.98671e+18
-4.98671e+18
-4.98671e+18
-4.98671e+18
-4.98671e+18
-4.98671e+18
-4.98671e+18
-4.98671e+18
-4.98671e+18
-4.98671e+18
-4.98671e+18
-4.98671e+18
-4.98671e+18
-4.98671e+18
-4.98671e+18
-4.98671e+18
-4.98671e+18
-4.98671e+18
-4.98671e+18
-4.98671e+18
-4.98671e+18
-4.98671e+18
-4.98671e+18
-4.98671e+18
-4.98671e+18
-4.98671e+18
-4.98671e+18
-4.98671e+18
-4.98671e+18
-4.98671e+18
-4.98671e+18
-4.98671e+18
-4.98671e+18
-4.98671e+18
-4.98671e+18
-4.98671e+18
-4.98671e+18
-4.98671e+18
-4.98671e+18
-4.98671e+18
-4.98671e+18
-4.98671e+18
-4.98671e+18
-4.98671e+18
-4.98671e+18
-4.98671e+18
-4.98671e+18
-4.98671e+18
-4.98671e+18
-4.98671e+18
-4.98671e+18
-4.98671e+18
-4.98671e+18
-4.98671e+18
-4.98671e+18
-4.98671e+18
-4.98671e+18
-4.98671e+18
-4.98671e+18
-4.98671e+18
-4.98671e+18
-4.98671e+18
-4.98671e+18
-4.98671e+18
-4.98671e+18
-4.98671e+18
-4.98671e+18
-4.98671e+18
-4.98671e+18
-4.98671e+18
-4.98671e+18
-4.98671e+18
-4.98671e+18
-4.98671e+18
-4.98671e+18
-4.98671e+18
-4.98671e+18
-4.98671e+18
-4.98671e+18
-4.98671e+18
-4.98671e+18
-4.98671e+18
-4.98671e+18
-4.98671e+18
-4.98671e+18
-4.98671e+18
-4.98671e+18
-4.98671e+18
-4.98671e+18
-4.98671e+18
-4.98671e+18
-4.98671e+18
-4.98671e+18
-4.98671e+18
-4.98671e+18
-4.98671e+18
-4.98671e+18
-4.98671e+18
-4.98671e+18
-4.98671e+18
-4.98671e+18
-4.98671e+18
-4.98671e+18
-4.98671e+18
-4.98671e+18
-4.98671e+18
-4.98671e+18
-4.98671e+18
-4.98671e+18
-4.98671e+18
-4.98671e+18
-4.98671e+18
-4.98671e+18
-4.98671e+18
-4.98671e+18
-4.98671e+18
-4.98671e+18
-4.98671e+18
-4.98671e+18
-4.98671e+18
-4.98671e+18
-4.98671e+18
-4.98671e+18
-4.98671e+18
-4.98671e+18
-4.98671e+18
-4.98671e+18
-4.98671e+18
-4.98671e+18
-4.98671e+18
-4.98671e+18
-4.98671e+18
-4.98671e+18
-4.98671e+18
-4.98671e+18
-4.98671e+18
-4.98671e+18
-4.98671e+18
-4.98671e+18
-2.1429e+19
-2.1429e+19
-2.1429e+19
-2.1429e+19
-2.1429e+19
-2.1429e+19
-2.1429e+19
-2.1429e+19
-2.1429e+19
-2.1429e+19
-2.1429e+19
-2.1429e+19
-2.1429e+19
-2.1429e+19
-2.1429e+19
-2.1429e+19
-2.1429e+19
-2.1429e+19
-2.1429e+19
-2.1429e+19
-2.1429e+19
-2.1429e+19
-2.1429e+19
-2.1429e+19
-2.1429e+19
-2.1429e+19
-2.1429e+19
-2.1429e+19
-2.1429e+19
-2.1429e+19
-2.1429e+19
-2.1429e+19
-2.1429e+19
-2.1429e+19
-2.1429e+19
-2.1429e+19
-2.1429e+19
-2.1429e+19
-2.1429e+19
-2.1429e+19
-2.1429e+19
-2.1429e+19
-2.1429e+19
-2.1429e+19
-2.1429e+19
-2.1429e+19
-2.1429e+19
-2.1429e+19
-2.1429e+19
-2.1429e+19
-2.1429e+19
-2.1429e+19
-2.1429e+19
-2.1429e+19
-2.1429e+19
-2.1429e+19
-2.1429e+19
-2.1429e+19
-2.1429e+19
-2.1429e+19
-2.1429e+19
-2.1429e+19
-2.1429e+19
-2.1429e+19
-2.1429e+19
-2.1429e+19
-2.1429e+19
-2.1429e+19
-2.1429e+19
-2.1429e+19
-2.1429e+19
-2.1429e+19
-2.1429e+19
-2.1429e+19
-2.1429e+19
-2.1429e+19
-2.1429e+19
-2.1429e+19
-2.1429e+19
-2.1429e+19
-2.1429e+19
-2.1429e+19
-2.1429e+19
-2.1429e+19
-2.1429e+19
-2.1429e+19
-2.1429e+19
-2.1429e+19
-2.1429e+19
-2.1429e+19
-2.1429e+19
-2.1429e+19
-2.1429e+19
-2.1429e+19
-2.1429e+19
-2.1429e+19
-2.1429e+19
-2.1429e+19
-2.1429e+19
-2.1429e+19
-2.1429e+19
-2.1429e+19
-2.1429e+19
-2.1429e+19
-2.1429e+19
-2.1429e+19
-2.1429e+19
-2.1429e+19
-2.1429e+19
-2.1429e+19
-2.1429e+19
-2.1429e+19
-2.1429e+19
-2.1429e+19
-2.1429e+19
-2.1429e+19
-2.1429e+19
-2.1429e+19
-2.1429e+19
-2.1429e+19
-2.1429e+19
-2.1429e+19
-2.1429e+19
-2.1429e+19
-2.1429e+19
-2.1429e+19
-2.1429e+19
-2.1429e+19
-2.1429e+19
-2.1429e+19
-2.1429e+19
-2.1429e+19
-2.1429e+19
-2.1429e+19
-2.1429e+19
-2.1429e+19
-2.1429e+19
-2.1429e+19
-2.1429e+19
-2.1429e+19
-2.1429e+19
-2.1429e+19
-2.1429e+19
-2.1429e+19
-2.1429e+19
-2.1429e+19
-2.1429e+19
-2.1429e+19
-2.1429e+19
-2.1429e+19
-2.1429e+19
-2.1429e+19
-2.1429e+19
-2.1429e+19
-2.1429e+19
-2.1429e+19
-2.1429e+19
-2.1429e+19
-2.1429e+19
-2.1429e+19
-2.1429e+19
-2.1429e+19
-2.1429e+19
-2.1429e+19
-2.1429e+19
-2.1429e+19
-2.1429e+19
-2.1429e+19
-2.1429e+19
-2.1429e+19
-2.1429e+19
-2.1429e+19
-2.1429e+19
-2.1429e+19
-2.1429e+19
-2.1429e+19
-2.1429e+19
-2.1429e+19
-2.1429e+19
-2.1429e+19
-2.1429e+19
-2.1429e+19
-2.1429e+19
-2.1429e+19
-2.1429e+19
-2.1429e+19
-2.1429e+19
-2.1429e+19
-2.1429e+19
-2.1429e+19
-2.1429e+19
-2.1429e+19
-2.1429e+19
-2.1429e+19
-2.1429e+19
-2.1429e+19
-2.1429e+19
-2.1429e+19
-2.1429e+19
-2.1429e+19
-2.1429e+19
-2.1429e+19
-2.1429e+19
-2.1429e+19
-2.1429e+19
-2.1429e+19
-2.1429e+19
-2.1429e+19
-2.1429e+19
-2.1429e+19
-2.1429e+19
-2.1429e+19
-2.1429e+19
-2.1429e+19
-2.1429e+19
-2.1429e+19
-2.1429e+19
-2.1429e+19
-2.1429e+19
-2.1429e+19
-2.1429e+19
-2.1429e+19
-2.1429e+19
-2.1429e+19
-2.1429e+19
-2.1429e+19
-2.1429e+19
-2.1429e+19
-2.1429e+19
-2.1429e+19
-2.1429e+19
-2.1429e+19
-2.1429e+19
-2.1429e+19
-2.1429e+19
-2.1429e+19
-2.1429e+19
-2.1429e+19
-2.1429e+19
-2.1429e+19
-2.1429e+19
-2.1429e+19
-2.1429e+19
-2.1429e+19
-2.1429e+19
-2.1429e+19
-2.1429e+19
-2.1429e+19
-2.1429e+19
-2.1429e+19
-2.1429e+19
-2.1429e+19
-2.1429e+19
-2.1429e+19
-2.1429e+19
-2.1429e+19
-2.1429e+19
-2.1429e+19
-2.1429e+19
-2.1429e+19
-2.14291e+19
-2.14291e+19
-2.14291e+19
-2.14291e+19
-2.14291e+19
-2.14291e+19
-2.14291e+19
-2.14291e+19
-2.14291e+19
-2.14291e+19
-2.14291e+19
-2.14291e+19
-2.14291e+19
-2.14291e+19
-2.1429e+19
-2.1429e+19
-2.1429e+19
-2.1429e+19
-2.1429e+19
-2.1429e+19
-2.14293e+19
-2.14293e+19
-2.14294e+19
-2.14294e+19
-2.14294e+19
-2.14294e+19
-2.14294e+19
-2.14294e+19
-2.14294e+19
-2.14294e+19
-2.14293e+19
-2.14293e+19
-2.14292e+19
-2.14292e+19
-2.14291e+19
-2.1429e+19
-2.1429e+19
-2.14289e+19
-2.14289e+19
-2.14288e+19
-2.14297e+19
-2.14299e+19
-2.143e+19
-2.14301e+19
-2.14302e+19
-2.14303e+19
-2.14303e+19
-2.14304e+19
-2.14303e+19
-2.14302e+19
-2.14301e+19
-2.143e+19
-2.14298e+19
-2.14295e+19
-2.14293e+19
-2.1429e+19
-2.14288e+19
-2.14286e+19
-2.14285e+19
-2.14283e+19
-2.14343e+19
-2.14347e+19
-2.1435e+19
-2.14352e+19
-2.14354e+19
-2.14355e+19
-2.14355e+19
-2.14354e+19
-2.14352e+19
-2.14348e+19
-2.14343e+19
-2.14336e+19
-2.14328e+19
-2.14319e+19
-2.14308e+19
-2.14298e+19
-2.14287e+19
-2.14279e+19
-2.14271e+19
-2.14266e+19
-2.14409e+19
-2.14441e+19
-2.14459e+19
-2.1448e+19
-2.14497e+19
-2.1451e+19
-2.14517e+19
-2.14517e+19
-2.14508e+19
-2.14492e+19
-2.14466e+19
-2.14432e+19
-2.14392e+19
-2.14349e+19
-2.14302e+19
-2.14254e+19
-2.14208e+19
-2.14167e+19
-2.14132e+19
-2.14133e+19
-2.15217e+19
-2.15249e+19
-2.15286e+19
-2.15306e+19
-2.1531e+19
-2.15288e+19
-2.15241e+19
-2.1517e+19
-2.15081e+19
-2.14977e+19
-2.14866e+19
-2.1476e+19
-2.1466e+19
-2.14565e+19
-2.1448e+19
-2.14406e+19
-2.14351e+19
-2.14308e+19
-2.14268e+19
-2.14296e+19
-2.15743e+19
-2.16783e+19
-2.17316e+19
-2.17822e+19
-2.18126e+19
-2.18324e+19
-2.18399e+19
-2.18325e+19
-2.18157e+19
-2.17944e+19
-2.17701e+19
-2.17456e+19
-2.17225e+19
-2.17012e+19
-2.16827e+19
-2.16674e+19
-2.16566e+19
-2.16507e+19
-2.16469e+19
-2.16545e+19
)
;

boundaryField
{
    outletWall
    {
        type            fixedValue;
        value           uniform 0;
    }
    fineWalls
    {
        type            zeroGradient;
    }
    fineFrontAndBack
    {
        type            zeroGradient;
    }
    fineplugLeft
    {
        type            cyclicAMI;
        value           nonuniform List<scalar> 
20
(
-5.33987e+18
-5.29125e+18
-5.25691e+18
-5.21872e+18
-5.18419e+18
-5.15e+18
-5.11752e+18
-5.08611e+18
-5.05599e+18
-5.02774e+18
-5.00055e+18
-4.97175e+18
-4.95381e+18
-4.97286e+18
-4.88461e+18
-4.86221e+18
-4.84732e+18
-4.82996e+18
-4.81208e+18
-4.80861e+18
)
;
    }
    fineplugRight
    {
        type            cyclicAMI;
        value           nonuniform List<scalar> 
20
(
-2.05274e+19
-2.06006e+19
-2.07441e+19
-2.08779e+19
-2.10082e+19
-2.11415e+19
-2.12758e+19
-2.14105e+19
-2.15464e+19
-2.1681e+19
-2.18197e+19
-2.19461e+19
-2.20932e+19
-2.2359e+19
-2.25968e+19
-2.27554e+19
-2.29648e+19
-2.31455e+19
-2.33198e+19
-2.35107e+19
)
;
    }
    inletOutletLeft
    {
        type            cyclicAMI;
        value           nonuniform List<scalar> 
20
(
-5.33987e+18
-5.29125e+18
-5.25691e+18
-5.21872e+18
-5.18419e+18
-5.15e+18
-5.11752e+18
-5.08611e+18
-5.05599e+18
-5.02774e+18
-5.00055e+18
-4.97175e+18
-4.95381e+18
-4.97286e+18
-4.88461e+18
-4.86221e+18
-4.84732e+18
-4.82996e+18
-4.81208e+18
-4.80861e+18
)
;
    }
    inletLeft
    {
        type            zeroGradient;
    }
    inletWallsLeft
    {
        type            zeroGradient;
    }
    inletFacesLeft
    {
        type            zeroGradient;
    }
    inletOutletRight
    {
        type            cyclicAMI;
        value           nonuniform List<scalar> 
20
(
-2.05274e+19
-2.06006e+19
-2.07441e+19
-2.08779e+19
-2.10082e+19
-2.11415e+19
-2.12758e+19
-2.14105e+19
-2.15464e+19
-2.1681e+19
-2.18197e+19
-2.19461e+19
-2.20932e+19
-2.2359e+19
-2.25968e+19
-2.27554e+19
-2.29648e+19
-2.31455e+19
-2.33198e+19
-2.35107e+19
)
;
    }
    inletRight
    {
        type            zeroGradient;
    }
    inletWallsRight
    {
        type            zeroGradient;
    }
    inletFacesRight
    {
        type            zeroGradient;
    }
}


// ************************************************************************* //
