/*--------------------------------*- C++ -*----------------------------------*\
| =========                 |                                                 |
| \\      /  F ield         | OpenFOAM: The Open Source CFD Toolbox           |
|  \\    /   O peration     | Version:  4.1                                   |
|   \\  /    A nd           | Web:      www.OpenFOAM.org                      |
|    \\/     M anipulation  |                                                 |
\*---------------------------------------------------------------------------*/
FoamFile
{
    version     2.0;
    format      ascii;
    class       surfaceScalarField;
    location    "30";
    object      phi;
}
// * * * * * * * * * * * * * * * * * * * * * * * * * * * * * * * * * * * * * //

dimensions      [0 3 -1 0 0 0 0];

internalField   nonuniform List<scalar> 
2360
(
2.1436e+12
1.96211e+12
1.81448e+11
1.96217e+12
1.96212e+12
1.78559e+12
1.76598e+11
1.78555e+12
1.78559e+12
1.78555e+12
1.77503e+12
1.05589e+10
1.77502e+12
1.77508e+12
1.7988e+12
-2.37394e+10
1.79883e+12
1.7988e+12
1.81231e+12
-1.34453e+10
1.81229e+12
1.81238e+12
1.77389e+12
3.84679e+10
1.77393e+12
1.77388e+12
1.75216e+12
1.73204e+12
1.71462e+12
1.69897e+12
1.68545e+12
1.67346e+12
1.68868e+12
-2.2437e+10
1.68314e+12
1.67802e+12
1.67409e+12
1.67192e+12
1.67178e+12
1.67412e+12
1.67934e+12
1.68768e+12
1.69964e+12
1.7154e+12
1.73612e+12
1.762e+12
1.79724e+12
2.17498e+12
-3.77719e+11
2.17498e+12
2.17498e+12
2.17497e+12
2.5721e+12
-3.97107e+11
2.57208e+12
2.57211e+12
2.57209e+12
2.98e+12
-4.07859e+11
2.97999e+12
2.98003e+12
3.37671e+12
-3.96683e+11
3.37674e+12
3.37674e+12
3.37678e+12
3.7743e+12
-3.97525e+11
3.77436e+12
3.77436e+12
3.77441e+12
4.06776e+12
-2.93352e+11
3.99507e+12
3.92274e+12
3.8617e+12
3.81063e+12
3.76842e+12
3.73446e+12
3.70846e+12
3.69016e+12
3.67938e+12
3.67624e+12
3.68065e+12
3.69215e+12
3.70983e+12
4.68531e+12
-9.51443e+11
4.71556e+12
4.75315e+12
4.7991e+12
4.85544e+12
4.92395e+12
5.0197e+12
5.01972e+12
5.01979e+12
6.74325e+12
-1.72347e+12
6.74327e+12
6.74325e+12
8.75471e+12
-2.01145e+12
8.75469e+12
8.7547e+12
1.11149e+13
-2.36021e+12
1.11149e+13
1.11149e+13
1.69139e+13
-5.79895e+12
1.69138e+13
1.69139e+13
1.69139e+13
-3.46208e+13
5.15347e+13
-3.46208e+13
-3.46208e+13
1.34478e+13
-4.80686e+13
-6.74938e+11
-3.18768e+10
-6.22867e+11
-1.25384e+11
-8.84928e+11
2.3844e+10
-1.10116e+12
1.48978e+10
-1.40444e+12
2.36791e+10
-1.78356e+12
3.43227e+10
-2.27423e+12
5.13718e+10
-2.90665e+12
7.63087e+10
-3.72533e+12
1.11436e+11
-4.78626e+12
1.58132e+11
-6.16688e+12
2.21617e+11
-7.98829e+12
3.29374e+11
-1.04604e+13
5.72755e+11
-1.38838e+13
1.05145e+12
-1.8383e+13
1.5459e+12
-2.35384e+13
1.3963e+12
-2.87593e+13
-1.69641e+12
-2.40497e+13
-1.60545e+13
-4.14942e+13
-1.77176e+11
2.51124e+11
-1.65716e+11
-1.36848e+11
-2.20182e+11
7.8306e+10
-2.76766e+11
7.14768e+10
-3.92726e+11
1.39634e+11
-5.2743e+11
1.69021e+11
-7.07257e+11
2.31195e+11
-9.38026e+11
3.07072e+11
-1.24583e+12
4.1924e+11
-1.68405e+12
5.96343e+11
-2.35165e+12
8.89208e+11
-3.36629e+12
1.34402e+12
-4.72959e+12
1.93606e+12
-6.12354e+12
2.4454e+12
-6.88469e+12
2.30706e+12
-7.15967e+12
1.67129e+12
-1.15297e+13
2.67365e+12
-2.5371e+13
-2.21327e+12
-1.53304e+13
-1.56593e+10
2.58772e+11
-1.16179e+11
-3.63306e+10
-1.27928e+11
9.0055e+10
-1.70688e+11
1.14237e+11
-2.18741e+11
1.87689e+11
-2.84921e+11
2.35203e+11
-3.68106e+11
3.14384e+11
-4.77479e+11
4.16447e+11
-6.27212e+11
5.68979e+11
-8.40911e+11
8.10046e+11
-1.14254e+12
1.19084e+12
-1.51226e+12
1.71375e+12
-1.79205e+12
2.21586e+12
-1.53684e+12
2.1902e+12
-2.7536e+11
1.04561e+12
1.51772e+12
-1.21764e+11
4.80522e+12
-6.1383e+11
8.47436e+12
-5.88238e+12
-1.2655e+13
3.86441e+10
1.82572e+11
-6.99569e+10
7.22668e+10
-9.40295e+10
1.14127e+11
-1.21203e+11
1.41409e+11
-1.4324e+11
2.09726e+11
-1.77456e+11
2.69418e+11
-2.18768e+11
3.55699e+11
-2.72635e+11
4.70314e+11
-3.41036e+11
6.37383e+11
-4.19442e+11
8.88454e+11
-4.82776e+11
1.25418e+12
-4.5172e+11
1.6827e+12
-1.6103e+11
1.92519e+12
7.07013e+11
1.32218e+12
1.86284e+12
-1.10182e+11
2.88216e+12
-1.14107e+12
3.88621e+12
-1.61786e+12
3.50132e+12
-5.49747e+12
-1.15139e+13
1.5451e+09
1.48637e+11
-4.39298e+10
1.1774e+11
-6.39643e+10
1.34162e+11
-7.84994e+10
1.55946e+11
-8.84641e+10
2.19695e+11
-1.00843e+11
2.818e+11
-1.13586e+11
3.68447e+11
-1.26048e+11
4.82781e+11
-1.32112e+11
6.43455e+11
-1.11466e+11
8.67815e+11
-1.39638e+10
1.15669e+12
2.3476e+11
1.43399e+12
7.16108e+11
1.44386e+12
1.4612e+12
5.77092e+11
2.07694e+12
-7.25895e+11
2.60709e+12
-1.6712e+12
3.4919e+12
-2.50265e+12
3.50663e+12
-5.51217e+12
-1.00187e+13
-2.30046e+10
1.39184e+11
-3.687e+10
1.31604e+11
-4.5569e+10
1.42864e+11
-5.34116e+10
1.63792e+11
-5.48594e+10
2.21148e+11
-5.37822e+10
2.80729e+11
-4.73535e+10
3.62027e+11
-3.08492e+10
4.66284e+11
7.71642e+09
6.04901e+11
9.17415e+10
7.83801e+11
2.68157e+11
9.80293e+11
5.8046e+11
1.1217e+12
1.10326e+12
9.21087e+11
1.66715e+12
1.32286e+10
1.99911e+12
-1.05783e+12
2.28281e+12
-1.95487e+12
2.66848e+12
-2.88828e+12
2.55495e+12
-5.3986e+12
-9.1871e+12
-3.20316e+10
1.38909e+11
-3.06255e+10
1.30197e+11
-3.27453e+10
1.44986e+11
-3.51385e+10
1.66187e+11
-3.02249e+10
2.16239e+11
-1.98554e+10
2.70362e+11
8.80105e+08
3.41297e+11
3.8421e+10
4.28747e+11
1.0569e+11
5.3764e+11
2.24184e+11
6.65313e+11
4.31139e+11
7.73349e+11
7.55291e+11
7.97558e+11
1.23412e+12
4.42274e+11
1.65372e+12
-4.06364e+11
1.84087e+12
-1.24497e+12
2.00132e+12
-2.11531e+12
2.23606e+12
-3.12299e+12
1.98249e+12
-5.145e+12
-8.15603e+12
-3.25625e+10
1.42464e+11
-2.32642e+10
1.209e+11
-2.20801e+10
1.43807e+11
-1.96221e+10
1.63736e+11
-9.52318e+09
2.0615e+11
8.9672e+09
2.51882e+11
4.11535e+10
3.09125e+11
9.39191e+10
3.75996e+11
1.7907e+11
4.52507e+11
3.16209e+11
5.28192e+11
5.26871e+11
5.62712e+11
8.5658e+11
4.67876e+11
1.25382e+12
4.50738e+10
1.51312e+12
-6.65644e+11
1.65308e+12
-1.3849e+12
1.74908e+12
-2.21127e+12
1.82536e+12
-3.19923e+12
1.43974e+12
-4.75933e+12
-7.00956e+12
-2.84349e+10
1.4541e+11
-1.67983e+10
1.09261e+11
-1.30425e+10
1.40052e+11
-6.5468e+09
1.57242e+11
8.15898e+09
1.91447e+11
3.35714e+10
2.26471e+11
7.42535e+10
2.68448e+11
1.37343e+11
3.12909e+11
2.33318e+11
3.5654e+11
3.79055e+11
3.82459e+11
5.9145e+11
3.50328e+11
9.03472e+11
1.55859e+11
1.21239e+12
-2.63834e+11
1.37977e+12
-8.33026e+11
1.47882e+12
-1.48395e+12
1.53355e+12
-2.26599e+12
1.53922e+12
-3.20488e+12
1.24745e+12
-4.46754e+12
-6.15963e+12
-2.2755e+10
1.45862e+11
-1.13992e+10
9.79095e+10
-5.36424e+09
1.34024e+11
4.80711e+09
1.47081e+11
2.33485e+10
1.7292e+11
5.40549e+10
1.95781e+11
1.00951e+11
2.21571e+11
1.71051e+11
2.42829e+11
2.74494e+11
2.53121e+11
4.2467e+11
2.3231e+11
6.43539e+11
1.3149e+11
9.02464e+11
-1.03035e+11
1.10554e+12
-4.66881e+11
1.23123e+12
-9.58682e+11
1.30962e+12
-1.56231e+12
1.33873e+12
-2.29507e+12
1.29482e+12
-3.16092e+12
1.04355e+12
-4.21621e+12
-5.51269e+12
-1.71793e+10
1.43701e+11
-6.86981e+09
8.75968e+10
1.17373e+09
1.25981e+11
1.47714e+10
1.33482e+11
3.62501e+10
1.51443e+11
7.0763e+10
1.61268e+11
1.22462e+11
1.69876e+11
1.98085e+11
1.67206e+11
3.07742e+11
1.43468e+11
4.64393e+11
7.5661e+10
6.59954e+11
-6.40672e+10
8.44858e+11
-2.87941e+11
9.87869e+11
-6.09893e+11
1.09088e+12
-1.0617e+12
1.15379e+12
-1.62521e+12
1.16447e+12
-2.30575e+12
1.09709e+12
-3.09353e+12
8.95715e+11
-4.01482e+12
-5.02484e+12
-1.21234e+10
1.39139e+11
-2.68818e+09
7.81689e+10
6.68975e+09
1.16611e+11
2.29147e+10
1.17272e+11
4.6761e+10
1.27615e+11
8.41652e+10
1.23886e+11
1.39944e+11
1.14122e+11
2.21495e+11
8.56829e+10
3.36335e+11
2.86585e+10
4.7747e+11
-6.54448e+10
6.21717e+11
-2.08285e+11
7.5333e+11
-4.19528e+11
8.70477e+11
-7.2701e+11
9.59324e+11
-1.15052e+12
1.00897e+12
-1.67482e+12
1.00493e+12
-2.30166e+12
9.24864e+11
-3.01342e+12
7.56624e+11
-3.84651e+12
-4.66524e+12
-7.84368e+09
1.32624e+11
1.1745e+09
6.91462e+10
1.13545e+10
1.0643e+11
2.91071e+10
9.95185e+10
5.49135e+10
1.01811e+11
9.47181e+10
8.40798e+10
1.55783e+11
5.30578e+10
2.40658e+11
8.05186e+08
3.40118e+11
-7.08043e+10
4.44566e+11
-1.69899e+11
5.51673e+11
-3.15397e+11
6.60876e+11
-5.28738e+11
7.61777e+11
-8.27917e+11
8.37381e+11
-1.22612e+12
8.75008e+11
-1.71245e+12
8.58367e+11
-2.28503e+12
7.70906e+11
-2.92596e+12
6.02196e+11
-3.6778e+12
-4.44081e+12
-4.78135e+09
1.25033e+11
4.62751e+09
5.97483e+10
1.53293e+10
9.57366e+10
3.34358e+10
8.14334e+10
6.07499e+10
7.45225e+10
1.03828e+11
4.10327e+10
1.65894e+11
-8.97806e+09
2.35971e+11
-6.92439e+10
3.09092e+11
-1.43899e+11
3.9075e+11
-2.5153e+11
4.8138e+11
-4.05999e+11
5.75118e+11
-6.22447e+11
6.60948e+11
-9.13716e+11
7.2366e+11
-1.2888e+12
7.50988e+11
-1.73974e+12
7.25101e+11
-2.2591e+12
6.29778e+11
-2.83058e+12
3.98734e+11
-3.44669e+12
-4.06441e+12
-2.55215e+09
1.17127e+11
7.27477e+09
4.99169e+10
1.84273e+10
8.45853e+10
3.58669e+10
6.39951e+10
6.51381e+10
4.52494e+10
1.09024e+11
-2.85683e+09
1.57752e+11
-5.77134e+10
2.08527e+11
-1.20028e+11
2.68381e+11
-2.03761e+11
3.38256e+11
-3.21414e+11
4.15802e+11
-4.83554e+11
4.95005e+11
-7.01659e+11
5.66746e+11
-9.85465e+11
6.17876e+11
-1.33994e+12
6.37007e+11
-1.75888e+12
6.07408e+11
-2.22951e+12
5.14533e+11
-2.73771e+12
3.14845e+11
-3.247e+12
-3.71115e+12
-6.27282e+08
1.08735e+11
9.44016e+09
3.98626e+10
2.04078e+10
7.3625e+10
3.70218e+10
4.74066e+10
6.66648e+10
1.5641e+10
1.02299e+11
-3.84644e+10
1.37301e+11
-9.26923e+10
1.78899e+11
-1.61603e+11
2.29568e+11
-2.54406e+11
2.88548e+11
-3.8037e+11
3.53394e+11
-5.48374e+11
4.19028e+11
-7.67265e+11
4.77878e+11
-1.04428e+12
5.18603e+11
-1.38063e+12
5.31211e+11
-1.77145e+12
5.00194e+11
-2.19844e+12
4.153e+11
-2.65276e+12
2.63725e+11
-3.09536e+12
-3.46076e+12
3.53401e+08
1.01637e+11
1.00162e+10
3.01982e+10
2.07594e+10
6.28869e+10
3.71408e+10
3.10316e+10
6.30034e+10
-1.02169e+10
8.71538e+10
-6.26167e+10
1.15043e+11
-1.20584e+11
1.49409e+11
-1.95971e+11
1.91103e+11
-2.96102e+11
2.39345e+11
-4.28614e+11
2.92089e+11
-6.01119e+11
3.45063e+11
-8.20241e+11
3.92096e+11
-1.09132e+12
4.23676e+11
-1.41221e+12
4.31456e+11
-1.77923e+12
4.00687e+11
-2.16767e+12
3.26647e+11
-2.57872e+12
1.94662e+11
-2.96336e+12
-3.28989e+12
2.12113e+09
9.25782e+10
1.14051e+10
2.09163e+10
2.07369e+10
5.35549e+10
3.45771e+10
1.71972e+10
5.39852e+10
-2.96235e+10
7.22093e+10
-8.08426e+10
9.45004e+10
-1.42877e+11
1.2226e+11
-2.23733e+11
1.5588e+11
-3.29724e+11
1.94683e+11
-4.67419e+11
2.3695e+11
-6.43388e+11
2.79188e+11
-8.62481e+11
3.16432e+11
-1.12856e+12
3.4088e+11
-1.43666e+12
3.45617e+11
-1.78397e+12
3.16685e+11
-2.13874e+12
2.51326e+11
-2.51336e+12
1.11827e+11
-2.82387e+12
-3.16749e+12
-1.9131e+09
9.47337e+10
4.77254e+09
1.42321e+10
1.73139e+10
4.10156e+10
3.22959e+10
2.22005e+09
4.67194e+10
-4.40449e+10
6.01107e+10
-9.42329e+10
7.72288e+10
-1.59994e+11
9.90235e+10
-2.45526e+11
1.25485e+11
-3.56184e+11
1.55955e+11
-4.97887e+11
1.88943e+11
-6.76375e+11
2.21676e+11
-8.95212e+11
2.50001e+11
-1.15688e+12
2.68139e+11
-1.4548e+12
2.69532e+11
-1.78536e+12
2.44715e+11
-2.11392e+12
1.83961e+11
-2.4526e+12
3.40502e+10
-2.67395e+12
-2.95684e+12
2.23374e+09
1.61203e+10
2.85675e+10
3.03601e+10
2.70172e+10
2.96033e+10
3.65633e+10
4.60831e+10
5.77233e+10
7.10758e+10
8.5319e+10
9.92843e+10
1.10745e+11
1.17892e+11
1.16096e+11
1.0564e+11
7.22114e+10
1.78128e+10
2.9353e+10
-7.66942e+09
5.16735e+10
-2.29655e+09
5.77328e+10
1.14041e+10
6.13729e+10
1.18815e+10
6.40108e+10
1.0832e+10
6.55703e+10
1.03758e+10
6.50283e+10
7.79754e+09
6.44886e+10
6.19909e+09
6.46164e+10
5.196e+09
6.44777e+10
4.18142e+09
6.3739e+10
3.04363e+09
6.22322e+10
1.74853e+09
5.97491e+10
2.30254e+08
5.61557e+10
-1.52972e+09
5.13294e+10
-3.46684e+09
4.51198e+10
-5.65376e+09
3.73283e+10
-7.97766e+09
2.7595e+10
-1.09779e+10
1.53728e+10
-1.36567e+10
-1.98599e+10
-1.63858e+09
-6.08602e+09
-1.2477e+09
-2.77026e+09
4.01138e+09
6.14147e+09
9.1004e+09
6.76489e+09
1.39606e+10
5.9756e+09
1.87996e+10
5.52054e+09
2.216e+10
4.4411e+09
2.50442e+10
3.30335e+09
2.78888e+10
2.35518e+09
3.04879e+10
1.57394e+09
3.26807e+10
8.53465e+08
3.42819e+10
1.41152e+08
3.50442e+10
-5.30516e+08
3.4713e+10
-1.20251e+09
3.31569e+10
-1.91136e+09
3.02184e+10
-2.71694e+09
2.58319e+10
-3.59352e+09
1.95908e+10
-4.73937e+09
1.17526e+10
-5.82202e+09
-8.10736e+09
-8.28473e+09
2.17848e+09
-1.23697e+10
1.29717e+09
-8.25128e+09
2.00845e+09
-4.24986e+09
2.73478e+09
-1.03755e+09
2.73427e+09
1.79978e+09
2.63882e+09
4.05912e+09
2.15879e+09
5.84131e+09
1.4882e+09
7.30028e+09
8.82908e+08
8.46702e+09
3.8241e+08
9.36259e+09
-5.00909e+07
9.95212e+09
-4.65883e+08
1.02569e+10
-8.38869e+08
1.02236e+10
-1.1798e+09
9.82967e+09
-1.51997e+09
9.01252e+09
-1.9046e+09
7.74306e+09
-2.32503e+09
5.89921e+09
-2.89587e+09
3.48631e+09
-3.40953e+09
-4.621e+09
-5.38005e+08
2.72382e+09
-8.68195e+08
1.63036e+09
1.49304e+08
9.99601e+08
1.82037e+09
1.06247e+09
3.57428e+09
9.85678e+08
5.35593e+09
8.54072e+08
6.85649e+09
6.62705e+08
7.91634e+09
4.25635e+08
8.61396e+09
1.90209e+08
9.01132e+09
-1.66771e+07
9.14469e+09
-1.78568e+08
9.00073e+09
-3.22356e+08
8.6295e+09
-4.62461e+08
8.06184e+09
-6.11101e+08
7.32224e+09
-7.75364e+08
6.38989e+09
-9.699e+08
5.25857e+09
-1.18914e+09
3.85412e+09
-1.48673e+09
2.2248e+09
-1.77478e+09
-2.39627e+09
9.34979e+08
1.76132e+09
1.04276e+09
1.4842e+09
1.13914e+09
8.71771e+08
1.59614e+09
5.70183e+08
2.14812e+09
4.13627e+08
2.68001e+09
2.9815e+08
3.1285e+09
1.99887e+08
3.42849e+09
1.07032e+08
3.59231e+09
1.42461e+07
3.64349e+09
-8.30872e+07
3.62948e+09
-1.74719e+08
3.55657e+09
-2.61412e+08
3.43313e+09
-3.48085e+08
3.25219e+09
-4.39506e+08
3.0059e+09
-5.3784e+08
2.67917e+09
-6.50255e+08
2.25431e+09
-7.7142e+08
1.69386e+09
-9.32891e+08
9.86803e+08
-1.075e+09
-1.40946e+09
1.01913e+09
7.4358e+08
1.5821e+09
9.20137e+08
1.79208e+09
6.63058e+08
1.95893e+09
4.01557e+08
2.14924e+09
2.25377e+08
2.33296e+09
1.13434e+08
2.49656e+09
3.88378e+07
2.61941e+09
-1.59461e+07
2.69292e+09
-5.65887e+07
2.70263e+09
-9.23341e+07
2.65809e+09
-1.27883e+08
2.56343e+09
-1.65879e+08
2.42505e+09
-2.07703e+08
2.24186e+09
-2.55276e+08
2.01474e+09
-3.09164e+08
1.73881e+09
-3.73372e+08
1.4133e+09
-4.44962e+08
1.02274e+09
-5.41572e+08
5.8064e+08
-6.32181e+08
-8.28861e+08
4.74867e+08
2.6567e+08
9.61001e+08
4.32367e+08
1.23074e+09
3.8971e+08
1.34838e+09
2.81065e+08
1.38989e+09
1.79373e+08
1.39896e+09
1.01004e+08
1.39059e+09
4.22275e+07
1.37531e+09
-3.7933e+06
1.35439e+09
-4.04772e+07
1.33059e+09
-7.10312e+07
1.29682e+09
-9.84814e+07
1.25416e+09
-1.25244e+08
1.19494e+09
-1.5281e+08
1.12045e+09
-1.82666e+08
1.02251e+09
-2.15338e+08
9.00289e+08
-2.53261e+08
7.46143e+08
-2.94572e+08
5.5108e+08
-3.50131e+08
3.14303e+08
-3.994e+08
-5.14504e+08
2.90367e+08
-4.76679e+06
6.29328e+08
1.0935e+08
8.8299e+08
1.40399e+08
1.04762e+09
1.26118e+08
1.13437e+09
9.62665e+07
1.17784e+09
6.597e+07
1.18503e+09
3.96529e+07
1.17146e+09
1.78351e+07
1.13794e+09
-1.84564e+06
1.09422e+09
-1.99096e+07
1.03833e+09
-3.73372e+07
9.74916e+08
-5.50241e+07
9.01015e+08
-7.35103e+07
8.18032e+08
-9.36524e+07
7.24055e+08
-1.15632e+08
6.16905e+08
-1.41052e+08
4.95718e+08
-1.68828e+08
3.555e+08
-2.05603e+08
2.00752e+08
-2.3986e+08
-3.13782e+08
2.68294e+07
-2.67181e+07
1.4589e+08
-9.06407e+06
2.75716e+08
1.14246e+07
3.82534e+08
2.00633e+07
4.59116e+08
1.98942e+07
5.10728e+08
1.51998e+07
5.41651e+08
8.3753e+06
5.59869e+08
471632
5.65779e+08
-8.60048e+06
5.64591e+08
-1.79448e+07
5.53574e+08
-2.75542e+07
5.3674e+08
-3.75653e+07
5.09588e+08
-4.81723e+07
4.75896e+08
-5.9717e+07
4.30611e+08
-7.23416e+07
3.76179e+08
-8.6971e+07
3.07812e+08
-1.0293e+08
2.24122e+08
-1.2434e+08
1.25499e+08
-1.43912e+08
-1.88268e+08
2.65902e+07
-4.3845e+07
6.81073e+07
-4.54456e+07
1.24363e+08
-3.86411e+07
1.79848e+08
-3.1146e+07
2.29779e+08
-2.54279e+07
2.70522e+08
-2.153e+07
3.01777e+08
-1.88716e+07
3.23431e+08
-1.74242e+07
3.35555e+08
-1.72447e+07
3.39585e+08
-1.85752e+07
3.36263e+08
-2.13111e+07
3.2706e+08
-2.52845e+07
3.1147e+08
-3.01225e+07
2.90287e+08
-3.58602e+07
2.62618e+08
-4.24591e+07
2.28422e+08
-5.0591e+07
1.86597e+08
-5.98021e+07
1.36053e+08
-7.26006e+07
7.78187e+07
-8.43597e+07
-1.10443e+08
7.50062e+06
-4.4442e+07
1.41299e+07
-4.52995e+07
2.26492e+07
-4.08503e+07
3.53123e+07
-3.6992e+07
4.90722e+07
-3.42765e+07
6.54827e+07
-3.2365e+07
8.08682e+07
-3.06404e+07
9.70022e+07
-2.91051e+07
1.10169e+08
-2.77281e+07
1.22141e+08
-2.69456e+07
1.29828e+08
-2.70024e+07
1.35442e+08
-2.79164e+07
1.36108e+08
-2.93533e+07
1.33867e+08
-3.12269e+07
1.26257e+08
-3.35602e+07
1.14329e+08
-3.68838e+07
9.61404e+07
-4.10872e+07
7.19243e+07
-4.78545e+07
4.20443e+07
-5.38407e+07
-6.83639e+07
7.97213e+06
-4.11804e+07
1.42504e+07
-4.08484e+07
2.01099e+07
-3.71481e+07
2.66196e+07
-3.36738e+07
3.17594e+07
-3.10579e+07
3.72874e+07
-2.92332e+07
4.19855e+07
-2.79103e+07
4.73784e+07
-2.70565e+07
5.23574e+07
-2.6315e+07
5.7329e+07
-2.57377e+07
6.09805e+07
-2.5313e+07
6.34577e+07
-2.52237e+07
6.41231e+07
-2.53539e+07
6.30885e+07
-2.58052e+07
6.04349e+07
-2.65129e+07
5.50838e+07
-2.77913e+07
4.69131e+07
-2.96755e+07
3.56901e+07
-3.35345e+07
2.22421e+07
-3.70816e+07
-4.60845e+07
4.4335e+06
-3.51655e+07
7.3821e+06
-3.32452e+07
1.0847e+07
-3.09556e+07
1.56546e+07
-2.85618e+07
1.97977e+07
-2.675e+07
2.43016e+07
-2.49035e+07
2.74083e+07
-2.33956e+07
3.05011e+07
-2.21906e+07
3.24803e+07
-2.14488e+07
3.47226e+07
-2.09212e+07
3.59372e+07
-2.06205e+07
3.72705e+07
-2.0342e+07
3.72545e+07
-2.01875e+07
3.69308e+07
-2.01364e+07
3.5583e+07
-2.03297e+07
3.2956e+07
-2.07716e+07
2.82257e+07
-2.15137e+07
2.15655e+07
-2.35556e+07
1.37402e+07
-2.57343e+07
-3.23004e+07
2.24415e+06
-3.03037e+07
3.1691e+06
-2.70219e+07
5.25836e+06
-2.55821e+07
7.44679e+06
-2.39625e+07
1.05545e+07
-2.2985e+07
1.33802e+07
-2.18001e+07
1.70654e+07
-2.07737e+07
1.96431e+07
-1.95473e+07
2.26868e+07
-1.86623e+07
2.41656e+07
-1.76734e+07
2.59759e+07
-1.71753e+07
2.65929e+07
-1.65221e+07
2.73517e+07
-1.6056e+07
2.68223e+07
-1.53797e+07
2.62085e+07
-1.49044e+07
2.38882e+07
-1.44172e+07
2.05553e+07
-1.43227e+07
1.58553e+07
-1.48882e+07
1.04291e+07
-1.61031e+07
-2.18058e+07
1.85982e+06
-2.19172e+07
2.919e+06
-1.7714e+07
4.34464e+06
-1.65421e+07
4.51785e+06
-1.54534e+07
6.19104e+06
-1.48504e+07
6.61499e+06
-1.44732e+07
9.83589e+06
-1.46001e+07
1.15861e+07
-1.48395e+07
1.63955e+07
-1.50613e+07
1.79251e+07
-1.40176e+07
2.11603e+07
-1.35535e+07
2.19606e+07
-1.27819e+07
2.40601e+07
-1.20871e+07
2.4227e+07
-1.12993e+07
2.54634e+07
-1.05182e+07
2.43485e+07
-9.16105e+06
2.23529e+07
-7.75516e+06
1.85127e+07
-5.78158e+06
1.28071e+07
-4.22908e+06
-8.93485e+06
1.62437e+06
-9.46357e+06
2.38701e+06
-3.95754e+06
3.4054e+06
-4.94327e+06
4.22682e+06
-5.56765e+06
7.16299e+06
-5.45168e+06
9.07128e+06
-5.76246e+06
1.53992e+07
-6.1215e+06
2.03234e+07
-6.62322e+06
2.51765e+07
-7.35323e+06
2.46272e+07
-8.58539e+06
2.59447e+07
-9.38479e+06
2.55997e+07
-9.4827e+06
2.73088e+07
-9.28296e+06
2.78149e+07
-9.20619e+06
3.01192e+07
-8.88754e+06
3.0708e+07
-7.10335e+06
2.99224e+07
-3.93668e+06
2.48123e+07
2.45434e+06
1.59024e+07
9.15797e+06
7.00497e+06
-2.11404e+07
1.56337e+07
-2.67255e+07
5.01308e+06
-2.91374e+07
460567
-2.88894e+07
-2.81141e+06
-2.58987e+07
-5.37907e+06
-2.07297e+07
-7.56763e+06
-1.40833e+07
-8.79541e+06
-6.09564e+06
-9.77653e+06
4.77114e+06
-1.07941e+07
1.48752e+07
-1.17679e+07
2.24079e+07
-1.22477e+07
2.84301e+07
-1.27205e+07
3.49632e+07
-1.34711e+07
4.17845e+07
-1.44423e+07
4.89859e+07
-1.44033e+07
5.30526e+07
-9.92205e+06
4.86311e+07
1.77854e+06
3.50362e+07
1.71968e+07
1.76956e+07
2.81549e+07
2.47225e+07
-4.54886e+07
6.20951e+07
-8.41961e+07
4.44693e+07
-1.04275e+08
2.1234e+07
-1.1125e+08
4.83292e+06
-1.09487e+08
-6.46344e+06
-1.03767e+08
-1.25442e+07
-9.62659e+07
-1.55094e+07
-8.73845e+07
-1.77266e+07
-7.8199e+07
-1.91116e+07
-6.88787e+07
-2.00098e+07
-5.95773e+07
-2.06377e+07
-4.9905e+07
-2.12563e+07
-4.01797e+07
-2.20285e+07
-3.04747e+07
-2.30254e+07
-1.99086e+07
-2.35094e+07
-7.40174e+06
-2.02594e+07
3.47166e+06
-6.16941e+06
8.94218e+06
1.38289e+07
7.46033e+06
3.11867e+07
3.21941e+07
1.08511e+07
5.22023e+07
-1.13828e+07
6.76442e+07
-4.02165e+07
5.10689e+07
-6.93123e+07
3.46934e+07
-9.47316e+07
1.96501e+07
-1.13886e+08
7.15295e+06
-1.25397e+08
-3.44152e+06
-1.31123e+08
-1.15413e+07
-1.33345e+08
-1.63686e+07
-1.33912e+08
-1.90125e+07
-1.33525e+08
-2.05395e+07
-1.32799e+08
-2.15748e+07
-1.32056e+08
-2.23196e+07
-1.31705e+08
-2.29851e+07
-1.30885e+08
-2.39003e+07
-1.25993e+08
-2.47861e+07
-1.08785e+08
-2.30522e+07
-7.94007e+07
-1.51849e+07
-4.19033e+07
-5.70231e+06
-9.69323e+06
5.27113e+07
1.20643e+08
1.71939e+08
2.0684e+08
2.267e+08
2.34053e+08
2.30855e+08
2.19519e+08
2.03438e+08
1.84639e+08
1.64413e+08
1.43066e+08
1.21098e+08
9.83705e+07
7.49221e+07
5.04769e+07
2.79762e+07
1.372e+07
9.69225e+06
4.71244e+07
-3.46151e+07
1.06922e+08
-5.37455e+07
1.74777e+08
-6.38425e+07
2.32908e+08
-5.44033e+07
2.72411e+08
-3.60876e+07
2.95733e+08
-1.98274e+07
3.08479e+08
-9.12736e+06
3.14099e+08
-2.10085e+06
3.1482e+08
3.07487e+06
3.10467e+08
7.81274e+06
3.01863e+08
1.24027e+07
2.90634e+08
1.47558e+07
2.81537e+08
1.3006e+07
2.75956e+08
9.07534e+06
2.70737e+08
9.25967e+06
2.52208e+08
2.18683e+07
2.09437e+08
4.58112e+07
1.40857e+08
7.182e+07
6.46362e+07
8.23138e+07
6.47827e+07
3.17338e+06
-2.20386e+07
-4.31852e+07
384131
-1.06835e+08
4.33518e+06
-1.6181e+08
4.97657e+06
-1.99541e+08
5.53477e+06
-2.20472e+08
5.48175e+06
-2.29866e+08
4.87688e+06
-2.30481e+08
3.40216e+06
-2.23722e+08
1.24826e+06
-2.09e+08
-1.18725e+06
-1.86188e+08
-4.17091e+06
-1.5536e+08
-8.17061e+06
-1.18704e+08
-1.32079e+07
-7.97674e+07
-1.83252e+07
-2.29241e+07
-2.02667e+07
4.12944e+07
-8.95165e+06
8.7042e+07
1.96859e+07
9.91685e+07
6.70476e+07
6.53917e+07
1.23204e+08
1.30237e+08
-1.51786e+08
1.34558e+08
-2.33936e+08
8.59666e+07
-2.88354e+08
6.18813e+07
-3.22916e+08
4.23954e+07
-3.44035e+08
2.95941e+07
-3.56495e+08
2.07555e+07
-3.63304e+08
1.47421e+07
-3.66331e+08
9.31723e+06
-3.65254e+08
3.32757e+06
-3.60854e+08
-2.73823e+06
-3.53327e+08
-8.66522e+06
-3.44072e+08
-1.46774e+07
-3.33532e+08
-2.08019e+07
-3.2213e+08
-2.72542e+07
-3.05088e+08
-3.42721e+07
-2.71545e+08
-4.00795e+07
-2.11779e+08
-3.738e+07
-1.28031e+08
-1.34833e+07
-4.10391e+07
4.06175e+07
8.92614e+07
-1.19934e+08
2.58537e+08
-2.49664e+08
2.1895e+08
-3.37705e+08
1.52911e+08
-3.87701e+08
9.52862e+07
-4.12124e+08
5.70022e+07
-4.2384e+08
3.54464e+07
-4.32831e+08
2.69402e+07
-4.42014e+08
2.19947e+07
-4.31016e+08
-4.04934e+06
-4.08656e+08
-2.18299e+07
-3.82648e+08
-3.11894e+07
-3.56556e+08
-3.74705e+07
-3.31762e+08
-4.21059e+07
-3.10137e+08
-4.56626e+07
-2.92385e+08
-4.84577e+07
-2.78309e+08
-5.12249e+07
-2.57992e+08
-5.51848e+07
-2.08116e+08
-6.06746e+07
-1.11335e+08
-5.19642e+07
-2.19675e+07
3.00392e+07
2.33784e+08
-3.13122e+07
2.8646e+08
-1.08873e+08
2.37657e+08
-1.7293e+08
1.67716e+08
-2.10531e+08
1.04924e+08
-2.19883e+08
5.865e+07
-1.73713e+08
2.96616e+07
-9.88597e+07
6.25234e+06
-4.58441e+07
-1.9503e+07
-1.42221e+07
-3.33666e+07
9.94518e+06
-3.95321e+07
2.65164e+07
-4.25362e+07
3.88604e+07
-4.37315e+07
4.56342e+07
-4.38138e+07
4.93435e+07
-4.3094e+07
4.72502e+07
-4.18162e+07
3.74836e+07
-3.946e+07
1.90928e+07
-3.58619e+07
4.88334e+06
-2.80375e+07
-1.69988e+07
1.50436e+08
8.5567e+07
2.53987e+08
1.84283e+08
3.04154e+08
1.89351e+08
3.2926e+08
1.44537e+08
3.47328e+08
8.92967e+07
3.64778e+08
4.40764e+07
3.82784e+08
1.4545e+07
3.94253e+08
-1.88372e+06
3.87241e+08
-9.73935e+06
3.70385e+08
-1.33127e+07
3.48e+08
-1.45996e+07
3.22893e+08
-1.42801e+07
2.94311e+08
-1.26948e+07
2.6357e+08
-1.0068e+07
2.29735e+08
-6.38478e+06
1.92526e+08
-1.58105e+06
1.50229e+08
5.1399e+06
1.03323e+08
1.37787e+07
5.68084e+07
2.3043e+07
3.99621e+07
5.05876e+07
4.16976e+07
1.46651e+08
9.10453e+07
2.32862e+08
1.06394e+08
2.92227e+08
8.81416e+07
3.22381e+08
6.30135e+07
3.26179e+08
4.4205e+07
3.12452e+08
3.34155e+07
2.88526e+08
2.69001e+07
2.6222e+08
2.27286e+07
2.3437e+08
2.01311e+07
2.07328e+08
1.93733e+07
1.7963e+08
1.99313e+07
1.53605e+08
2.17372e+07
1.26881e+08
2.44103e+07
1.03391e+08
2.80132e+07
7.9513e+07
3.2403e+07
5.81205e+07
3.7998e+07
3.80416e+07
4.58584e+07
2.21322e+07
5.18242e+07
6.21675e+07
6.25969e+06
4.20066e+07
4.3011e+07
5.52099e+07
8.79309e+07
6.52416e+07
1.1412e+08
6.30533e+07
1.24558e+08
5.71601e+07
1.19646e+08
5.1604e+07
1.121e+08
4.71093e+07
1.0027e+08
4.32071e+07
9.01995e+07
4.07605e+07
7.77171e+07
3.94055e+07
6.67442e+07
3.95586e+07
5.56272e+07
4.04208e+07
4.53552e+07
4.2101e+07
3.68163e+07
4.41079e+07
2.89899e+07
4.65486e+07
2.31901e+07
4.91183e+07
1.57673e+07
5.19864e+07
1.05548e+07
5.71686e+07
8.35566e+06
5.98815e+07
7.07095e+07
-3.27583e+06
1.0408e+08
4.41126e+06
9.20431e+07
1.47826e+07
9.15781e+07
2.25587e+07
9.06735e+07
2.83905e+07
8.8234e+07
3.18032e+07
8.57235e+07
3.65356e+07
8.2907e+07
3.88225e+07
8.07136e+07
4.21877e+07
7.91649e+07
4.30939e+07
7.80386e+07
4.39203e+07
7.71801e+07
4.45843e+07
7.64827e+07
4.39537e+07
7.54842e+07
4.39083e+07
7.49628e+07
4.28926e+07
7.42969e+07
3.99239e+07
7.44359e+07
3.2774e+07
7.52948e+07
2.48497e+07
7.88955e+07
1.5939e+07
8.20277e+07
8.64159e+07
-6.35001e+06
1.01907e+08
-1.87673e+07
9.65257e+07
-3.37876e+07
9.8787e+07
-4.60647e+07
9.78832e+07
-5.96379e+07
9.61476e+07
-6.94454e+07
9.42578e+07
-8.26769e+07
9.16952e+07
-8.93217e+07
8.96587e+07
-1.01408e+08
8.69801e+07
-1.03177e+08
8.46621e+07
-1.12584e+08
8.14994e+07
-1.08804e+08
7.85509e+07
-1.1571e+08
7.45232e+07
-1.06724e+08
7.05112e+07
-1.06623e+08
6.49061e+07
-9.09731e+07
5.87859e+07
-7.98014e+07
5.13677e+07
-5.94816e+07
4.60154e+07
-3.90357e+07
4.57528e+07
4.71387e+07
-7.18321e+07
1.72283e+08
-1.31176e+08
1.51783e+08
-1.76882e+08
1.46855e+08
-2.19715e+08
1.40571e+08
-2.56662e+08
1.36628e+08
-2.92766e+08
1.325e+08
-3.26462e+08
1.28465e+08
-3.57653e+08
1.24039e+08
-3.87712e+08
1.18934e+08
-4.12463e+08
1.12975e+08
-4.36436e+08
1.0551e+08
-4.50611e+08
9.60929e+07
-4.61683e+08
8.33315e+07
-4.54647e+08
6.6165e+07
-4.36382e+08
4.27133e+07
-3.89839e+08
1.23352e+07
-3.19371e+08
-2.52026e+07
-2.16457e+08
-6.34384e+07
-9.83708e+07
-8.51596e+07
-5.16895e+07
-1.13106e+08
2.24308e+08
-2.22902e+08
2.09995e+08
-3.2094e+08
2.0765e+08
-4.18624e+08
2.03676e+08
-5.09478e+08
2.00963e+08
-5.99603e+08
1.97317e+08
-6.85141e+08
1.92818e+08
-7.67098e+08
1.86613e+08
-8.4383e+08
1.78139e+08
-9.12532e+08
1.66282e+08
-9.70992e+08
1.49506e+08
-1.01357e+09
1.25558e+08
-1.03459e+09
9.1594e+07
-1.02495e+09
4.47011e+07
-9.76494e+08
-1.7969e+07
-8.76092e+08
-9.81377e+07
-7.14539e+08
-1.95008e+08
-4.90793e+08
-2.95263e+08
-2.307e+08
-3.59019e+08
-2.82301e+08
-2.34331e+08
4.77585e+08
-4.34409e+08
4.23715e+08
-6.26673e+08
4.12649e+08
-8.11382e+08
3.9874e+08
-9.90284e+08
3.8955e+08
-1.1636e+09
3.79195e+08
-1.33028e+09
3.67172e+08
-1.48807e+09
3.51205e+08
-1.63372e+09
3.29503e+08
-1.76186e+09
2.99255e+08
-1.86507e+09
2.56945e+08
-1.93437e+09
1.97762e+08
-1.95557e+09
1.16552e+08
-1.91765e+09
8.14437e+06
-1.80019e+09
-1.3244e+08
-1.58956e+09
-3.08952e+08
-1.26477e+09
-5.1624e+08
-8.37945e+08
-7.19844e+08
-3.62766e+08
-8.31145e+08
-6.45503e+08
-3.99322e+08
8.17022e+08
-7.89019e+08
7.70209e+08
-1.16988e+09
7.56147e+08
-1.54105e+09
7.41611e+08
-1.90784e+09
7.28151e+08
-2.26054e+09
7.10602e+08
-2.60379e+09
6.8669e+08
-2.92353e+09
6.53627e+08
-3.22268e+09
6.07843e+08
-3.48255e+09
5.44271e+08
-3.699e+09
4.55389e+08
-3.84594e+09
3.31237e+08
-3.9066e+09
1.60434e+08
-3.84146e+09
-6.93611e+07
-3.6177e+09
-3.7133e+08
-3.18333e+09
-7.54369e+08
-2.51016e+09
-1.20018e+09
-1.62151e+09
-1.6195e+09
-6.71858e+08
-1.79831e+09
-1.3177e+09
-9.66296e+08
1.77391e+09
-1.77094e+09
1.57326e+09
-2.5574e+09
1.53531e+09
-3.2975e+09
1.48193e+09
-4.0233e+09
1.4469e+09
-4.72044e+09
1.40828e+09
-5.40489e+09
1.36395e+09
-6.05579e+09
1.3043e+09
-6.67563e+09
1.21985e+09
-7.22987e+09
1.09691e+09
-7.69989e+09
9.17425e+08
-8.03087e+09
6.58967e+08
-8.17633e+09
2.97337e+08
-8.05658e+09
-1.93894e+08
-7.59747e+09
-8.39201e+08
-6.69722e+09
-1.66096e+09
-5.27692e+09
-2.62736e+09
-3.36532e+09
-3.53914e+09
-1.30181e+09
-3.87555e+09
-2.62016e+09
-1.4294e+09
3.13881e+09
-2.97766e+09
3.08403e+09
-4.54397e+09
3.05946e+09
-6.11833e+09
3.03442e+09
-7.70363e+09
2.99868e+09
-9.24873e+09
2.93813e+09
-1.07525e+10
2.83834e+09
-1.21481e+10
2.68743e+09
-1.34255e+10
2.47027e+09
-1.45095e+10
2.16923e+09
-1.53771e+10
1.76063e+09
-1.59456e+10
1.21528e+09
-1.61695e+10
4.97541e+08
-1.59355e+10
-4.40356e+08
-1.51281e+10
-1.66777e+09
-1.35079e+10
-3.29316e+09
-1.08445e+10
-5.3068e+09
-7.05169e+09
-7.34692e+09
-2.70966e+09
-8.24281e+09
-5.32977e+09
-4.75497e+09
7.95157e+09
-8.4658e+09
6.85241e+09
-1.19124e+10
6.53414e+09
-1.49598e+10
6.12431e+09
-1.77497e+10
5.80543e+09
-2.02493e+10
5.47262e+09
-2.25349e+10
5.13527e+09
-2.45883e+10
4.76907e+09
-2.64633e+10
4.35154e+09
-2.81243e+10
3.85143e+09
-2.95796e+10
3.21927e+09
-3.07231e+10
2.37341e+09
-3.1431e+10
1.20719e+09
-3.14556e+10
-4.07803e+08
-3.04355e+10
-2.68632e+09
-2.78372e+10
-5.89099e+09
-2.30988e+10
-1.00414e+10
-1.58217e+10
-1.46227e+10
-6.65256e+09
-1.74104e+10
-1.19829e+10
-3.28753e+09
1.12171e+10
-8.90294e+09
1.24755e+10
-1.48862e+10
1.24926e+10
-2.11782e+10
1.24245e+10
-2.76497e+10
1.22508e+10
-3.41453e+10
1.19749e+10
-4.0592e+10
1.15561e+10
-4.67685e+10
1.0949e+10
-5.25997e+10
1.01568e+10
-5.78395e+10
9.09059e+09
-6.22164e+10
7.57237e+09
-6.52455e+10
5.39725e+09
-6.64194e+10
2.3583e+09
-6.53228e+10
-1.5142e+09
-6.16118e+10
-6.41715e+09
-5.49901e+10
-1.25264e+10
-4.51166e+10
-1.99271e+10
-3.14876e+10
-2.82647e+10
-1.42307e+10
-3.46872e+10
-2.62141e+10
-2.4142e+10
3.53738e+10
-4.4578e+10
3.2948e+10
-6.35201e+10
3.14312e+10
-8.00497e+10
2.89817e+10
-9.42048e+10
2.63951e+10
-1.05676e+11
2.34674e+10
-1.14085e+11
1.99519e+10
-1.19684e+11
1.65623e+10
-1.22876e+11
1.33326e+10
-1.2312e+11
9.34152e+09
-1.20241e+11
4.67546e+09
-1.14353e+11
-4.91564e+08
-1.05742e+11
-6.27226e+09
-9.46635e+10
-1.26017e+10
-8.15789e+10
-1.95222e+10
-6.70614e+10
-2.706e+10
-5.15833e+10
-3.54216e+10
-3.49849e+10
-4.48818e+10
-1.60099e+10
-5.36891e+10
-4.22255e+10
-6.03466e+10
-9.58847e+10
-1.20704e+11
-1.37632e+11
-1.48768e+11
-1.55491e+11
-1.59604e+11
-1.60733e+11
-1.58883e+11
-1.5392e+11
-1.46082e+11
-1.35783e+11
-1.23782e+11
-1.1038e+11
-9.59784e+10
-8.0812e+10
-6.52187e+10
-4.90592e+10
-3.04862e+10
)
;

boundaryField
{
    outletWall
    {
        type            calculated;