/*--------------------------------*- C++ -*----------------------------------*\
| =========                 |                                                 |
| \\      /  F ield         | OpenFOAM: The Open Source CFD Toolbox           |
|  \\    /   O peration     | Version:  4.1                                   |
|   \\  /    A nd           | Web:      www.OpenFOAM.org                      |
|    \\/     M anipulation  |                                                 |
\*---------------------------------------------------------------------------*/
FoamFile
{
    version     2.0;
    format      ascii;
    class       volScalarField;
    location    "29";
    object      p;
}
// * * * * * * * * * * * * * * * * * * * * * * * * * * * * * * * * * * * * * //

dimensions      [0 2 -2 0 0 0 0];

internalField   nonuniform List<scalar> 
1280
(
6.07845
2.69121
13.6731
9.74051
7.04751
-5.71703
-26.5637
-35.0735
-46.1398
-108.95
-176.711
-166.508
-310.079
-486.907
-443.282
-778.407
-1138.12
-1318.66
-1128.39
-3339.83
-1074.17
1095.24
2181.12
2618.57
2728.03
3519.2
138.253
-137.478
108.449
-400.79
-675.681
-971.827
-1333.12
-1708.65
-2100.01
-2487.22
-2857.38
-3136.77
-3406.18
-3682.83
82.7835
-1360.72
-1227.83
-788.272
913.003
320.954
385.779
390.315
467.281
427.776
394.843
306.491
389.539
333.886
191.745
716.506
-530.437
-814.439
-1255.74
-1798.59
-2318.87
-1549.35
-1251.19
-869.636
-574.194
-297.269
-54.1529
163.472
358.021
502.779
660.974
1050.64
621.045
1457.68
3041.2
2596.47
2666.18
2183.54
1156.68
-400.496
-1631.96
-315.109
-316.175
-189.512
10.1423
172.612
175.981
274.664
328.735
336.063
363.082
369.896
371.43
365.691
364.275
347.588
255.124
211.225
99.1084
84.5733
-0.934888
-48.1054
-26.9773
-50.0755
11.5576
50.1504
125.064
196.02
78.3959
88.1055
94.0816
-1.27576
-186.217
-200.076
-530.834
-147.845
57.4182
88.9459
106.151
27.2069
-80.5843
12.5873
-11.1599
88.96
161.468
298.268
476.731
266.674
289.403
275.767
149.446
-288.767
-471.096
-843.066
-239.782
104.199
224.35
253.263
71.3315
-102.872
35.7466
-6.68791
119.369
205.934
381.131
645.887
457.23
454.102
420.566
252.744
-340.699
-695.555
-939.852
-274.589
194.644
335.787
369.841
105.303
-143.6
49.9171
-13.2657
143.908
247.889
461.899
809.875
653.176
585.989
474.846
424.761
-255.139
-866.107
-912.447
-313.242
308.585
471.878
491.486
127.964
-190.228
61.4903
-20.0338
164.205
282.308
525.25
935.184
800.012
713.063
747.358
608.335
-111.061
-866.708
-838.703
-341.86
367.988
547.354
536.426
163.779
-249.491
66.3711
-32.9771
172.507
300.012
563.727
1015.77
895.075
691.936
1214.79
998.907
111.881
-703.336
-756.053
-250.234
547.214
763.691
666.565
208.816
-273.874
64.0587
-48.4998
168.889
302.007
575.895
1046.55
900.327
584.224
758.625
1130.07
85.8471
-432.049
-630.907
-220.856
529.684
705.524
466.317
183.957
-306.926
44.1201
-68.0299
152.864
289.668
576.042
1119.2
973.604
759.88
200.69
480.846
17.6085
-116.847
-284.095
17.0627
890.369
1188.26
977.269
59.0176
-382.404
-6.38693
-92.4104
123.316
259.113
528.843
982.742
910.251
758.336
40.2683
23.8464
-119.012
206.948
305.308
495.623
948.786
1665.11
4523.98
-145.884
-444.531
-73.6264
-116.245
83.0638
213.216
451.462
799.852
764.484
462.195
-472.6
-456.015
-186.482
495.864
860.888
997.107
1127.35
1447.41
3204.24
-360.595
-478.496
-142.806
-139.182
34.4892
157.149
359.548
620.74
589.954
206.445
-740.722
-742.215
-142.065
781.833
1326.87
1309.08
1058.79
1379.58
3570.74
-545.237
-460.676
-210.363
-158.138
-18.245
95.1606
259.264
445.497
395.735
-49.3642
-883.522
-910.867
-24.3321
966.07
1811.42
1706.76
995.669
1133.79
3897.72
-670.316
-388.836
-273.859
-174.545
-74.4551
29.2665
157.17
284.916
221.822
-262.959
-926.835
-1007.76
126.346
993.36
1924.81
1658.4
646.021
62.8039
149.49
-722.377
-275.196
-310.709
-180.326
-125.507
-36.2098
56.5024
139.322
79.8008
-407.009
-815.591
-969.805
204.53
895.521
1682.39
1382.71
225.726
-463.739
-373.527
-699.153
-154.382
-332.682
-195.518
-178.501
-103.562
-38.376
17.777
-14.4418
-477.65
-582.14
-707.442
219.47
721.987
1363.36
1182.67
348.773
-183.299
-106.889
-588.914
-24.4834
-300.755
-186.59
-210.236
-161.151
-131.264
-106.681
-94.4336
-494.766
-390.437
-461.729
235.691
587.278
1071.57
936.125
250.912
-112.063
-63.5221
-432.973
55.209
-269.707
-198.248
-245.648
-217.294
-203.702
-170.033
-66.5176
-442.805
-384.79
-356.65
195.565
487.638
835.736
705.109
224.01
-7.22247
7.15223
-274.62
115.237
-138.256
-94.3348
-172.807
-192.007
-231.372
-243.632
-116.295
-298.211
-517.396
-224.631
146.027
389.862
637.232
521.538
175.667
22.0711
6.54107
-127.77
73.8013
-141.895
-123.157
-161.034
-160.143
-149.771
-56.9457
136.179
185.508
-573.653
-144.223
92.7482
286.113
467.918
372.194
120.527
43.4431
9.59198
-17.4171
96.9353
76.7537
93.8681
54.2698
26.944
-34.6386
-190.275
-351.997
-10.1866
-459.317
-180.351
-47.4195
58.6873
175.394
140.799
42.1962
20.9331
-2.9672
1964.15
1789.19
1706.87
1414.85
1115.68
760.974
345.208
-77.1406
-455.962
-775.06
-1033.91
-1226.2
-1359.62
-1438.34
-1473.68
-1481.88
-1508.98
-1549.89
-1642.3
-1662.43
2125.76
1692.76
1451.63
1050.06
706.169
295.847
-103.41
-510.035
-887.375
-1231.72
-1522.18
-1749.89
-1901.24
-1969.51
-1956.1
-1886.67
-1803.02
-1707.92
-1638.56
-1808.63
8011.39
7931.94
7909.27
7880.98
7825.89
7751.02
7629.76
7468.19
7246.51
6951.54
6559.52
6050.48
5424.52
4730.49
4069.42
3549.41
3211.12
3034.07
3043.09
2741.48
4647.58
4811.49
4878.56
5017.43
5112.38
5235.1
5343.08
5456.12
5562.86
5663.87
5749.61
5805.85
5811.66
5746.22
5608.08
5413.45
5252.08
5135.73
5130.15
5044.19
4558.02
4701.46
4736.09
4841.57
4896.4
4967.19
5022.31
5072.81
5114.93
5147.99
5176.99
5207.57
5251.52
5315.72
5406.01
5512.78
5622.76
5723.47
5790.45
5852.83
2392.74
2602.46
2667.07
2803.06
2900.9
3008.42
3113.65
3213.7
3315.59
3413.27
3510.1
3605.08
3698.84
3795.38
3894.73
4007.06
4119.36
4252.75
4347.89
4488.61
955.306
1180.67
1275.14
1412.06
1535.8
1655.96
1788.84
1905.97
2030.29
2145.54
2259.24
2369.18
2475.01
2580.83
2682.38
2790.67
2888.98
3007.42
3087.59
3211.44
-1663.03
-1478.75
-1326.78
-1213.15
-1054.32
-925.775
-743.713
-591.867
-406.213
-228.976
-39.7592
150.99
341.889
534.107
719.222
910.586
1084.91
1293.19
1450.2
1723.08
-3878.96
-4062.79
-4025.66
-4163.73
-4204.8
-4340.37
-4395.57
-4522.06
-4586.08
-4657.08
-4664.78
-4627.13
-4530.05
-4379.85
-4186.7
-3950.95
-3713.58
-3447.19
-3256.13
-2881.18
-1337.29
-1787.71
-1891.76
-2221.9
-2422.85
-2756.06
-3018.19
-3377.71
-3704.8
-4074.21
-4407.11
-4726.67
-4996.64
-5213.55
-5352.87
-5413.57
-5389.3
-5303.57
-5291.98
-5162.38
3111.32
2765.73
2692.17
2424.26
2317.84
2069.47
1935.91
1716.96
1567.28
1387.37
1252.51
1116.03
1003.28
892.72
795.921
703.458
621.748
621.441
601.109
249.335
5328.12
5315.83
5374.39
5311.78
5409.12
5327.34
5381.05
5284.99
5242.25
5098.66
4944.55
4723.69
4471.66
4185.56
3903.09
3661.86
3487.1
3379.4
3377.68
3185.98
3537.44
3669.11
3809.22
3825.54
4031.04
4052.78
4241.52
4317.85
4476.24
4583.15
4698.64
4768.72
4798.07
4760.31
4665.26
4535.36
4451.01
4435.57
4478.75
4482.13
2417.66
2510.6
2695.61
2647.05
2884.88
2853.64
3035.77
3070.64
3192.76
3268.94
3364.87
3455.82
3551.21
3650.91
3749.7
3849.94
3941.96
4049.79
4128.24
4232.58
214.4
254.65
510.531
429.518
732.888
690.054
924.867
975.777
1142.93
1255.06
1396.7
1533.22
1675.21
1824.46
1975.85
2141.23
2299.8
2482.64
2612.64
2820.07
-1510.47
-1694.55
-1502.85
-1748.14
-1533.81
-1715.36
-1584.77
-1655.75
-1591.8
-1591.57
-1549.06
-1514.45
-1468.28
-1410.89
-1343.59
-1237.63
-1111.45
-918.759
-760.433
-503.086
206.366
-199.451
-119.665
-661.732
-676.16
-1105.02
-1264.71
-1583.06
-1801.93
-2061.6
-2283.78
-2503.97
-2699.91
-2868.02
-2992.7
-3046.05
-3054.66
-3029.7
-3033.13
-2918.98
2621.6
2096.48
2607.07
1954.15
2073.76
1660.3
1492.36
1163.17
884.957
564.336
250.279
-72.4715
-386.679
-680.207
-925.806
-1086.24
-1150.07
-1205.15
-1289.65
-1333.76
2408.78
746.417
1518.13
579.609
537.054
31.1674
-240.738
-589.219
-855.591
-1097.44
-1277.35
-1400.35
-1452.82
-1429.57
-1313.57
-1084.54
-780.796
-438.494
-78.5171
89.8534
54391.3
47931.1
44498.9
40197.8
36608.3
33057.4
29788.2
26679.3
23754.5
20982.3
18353
15851
13464.5
11183.2
9018.6
6948.37
4893.1
3133.21
1410.39
-1526.07
46728.6
40266.7
36831.3
32526
28931.2
25374.3
22098.3
18982.2
16050
13270.5
10634.2
8125.74
5733.77
3447.83
1278.99
-795.179
-2854.88
-4621.48
-6348.74
-9282.43
-5145.13
-6812.18
-6046.24
-6990.09
-7038.63
-7550.98
-7830.27
-8187.17
-8463.19
-8716.04
-8908.27
-9044.66
-9111.04
-9101.23
-8995.8
-8773.77
-8475.29
-8131.88
-7766.66
-7595.92
-4853.93
-5382.09
-4873.43
-5526.29
-5404.57
-5814.76
-5977.59
-6300.86
-6571.88
-6884.99
-7191.37
-7506.26
-7813.23
-8101.38
-8345.47
-8509.29
-8588.03
-8665.29
-8775.59
-8854.2
-7357.06
-7768.12
-7691.27
-8238.17
-8256.9
-8690.24
-8855.51
-9179.04
-9404.74
-9672.27
-9905.31
-10139.1
-10351.1
-10538.3
-10684.4
-10761.4
-10793.4
-10790.8
-10814.1
-10712.3
-9283.49
-9477.5
-9293.25
-9546.05
-9344.18
-9535.42
-9417.84
-9501.6
-9450.25
-9464.2
-9434.57
-9413.43
-9378.73
-9330.4
-9267.72
-9160.46
-9024.85
-8817.1
-8657.58
-8394.72
-7688.79
-7655.3
-7399.31
-7483.81
-7184.17
-7230.77
-7000.38
-6950.74
-6785.42
-6671.9
-6528.11
-6388.21
-6242.13
-6088.31
-5932.52
-5763.24
-5603.22
-5419.97
-5290.9
-5074.6
-5336.42
-5216.58
-5045.99
-5143.15
-4911.19
-4968.38
-4781.76
-4755.08
-4619.95
-4544.58
-4448.74
-4364.07
-4272.77
-4173.57
-4075.01
-3975.58
-3884.97
-3778.18
-3699.79
-3595.29
-3969.75
-3934.13
-3785.64
-3941.01
-3835.95
-3885.97
-3796.32
-3750.07
-3633.2
-3521.82
-3395.62
-3302.19
-3231.73
-3217.6
-3256.86
-3310.68
-3321
-3281.05
-3231.79
-3203.58
-3095.91
-3115.67
-3119.44
-3187.08
-3183.53
-3198.41
-3181.95
-3176.97
-3161.36
-3157.11
-3178.14
-3236.59
-3317.37
-3422.29
-3522.01
-3593.12
-3624.87
-3635.82
-3604.26
-3658.81
-3617.02
-3780.8
-3818.67
-3842.32
-3833.71
-3826.28
-3830.52
-3854.64
-3922.66
-4040.57
-4158.16
-4233.14
-4285.2
-4339.54
-4406.18
-4486.03
-4548.27
-4541.08
-4529.98
-4733.72
-6151.86
-6349.1
-6367.18
-6420.56
-6468.63
-6546.3
-6661.12
-6818.89
-7030.42
-7281.93
-7523.84
-7756.79
-8010.07
-8259.26
-8454.57
-8558.31
-8561.24
-8533.99
-8548.69
-8492.79
-7661.14
-7651.84
-7625.33
-7646.16
-7690.21
-7755.33
-7841.97
-7934.18
-8043.28
-8168.03
-8266.36
-8322.15
-8334.8
-8280.52
-8162.36
-7990.85
-7813.34
-7604.96
-7468.7
-7220.07
-5980.65
-5799.54
-5720.1
-5636.37
-5569.58
-5493.93
-5407.3
-5298.45
-5211.11
-5146.94
-5019.13
-4857.07
-4707.72
-4555.1
-4410.73
-4264.81
-4144.7
-3994.21
-3898.5
-3683.96
-4387.22
-4198.86
-4131.91
-4037.12
-3959.51
-3872.17
-3779.33
-3674.17
-3555.73
-3441.5
-3331.41
-3224.1
-3129.07
-3035.09
-2945.38
-2847.76
-2758.14
-2650.3
-2577.86
-2476.05
-2664.08
-2528.75
-2496.18
-2423.26
-2367.24
-2308
-2257.14
-2211.55
-2173.02
-2148.56
-2135.89
-2122.22
-2091.98
-2029.49
-1943.99
-1849.25
-1765.84
-1680
-1625.19
-1552.09
-2051.39
-1917.25
-1873.23
-1780.28
-1709.82
-1631.86
-1547.85
-1447.26
-1341.69
-1234.97
-1123.63
-1014.74
-938.103
-944.679
-1056.89
-1236.22
-1363.34
-1422.87
-1407.16
-1451.36
369.556
300.747
246.056
201.075
148.504
67.5818
-63.2307
-236.051
-451.512
-718.157
-1043.51
-1440.03
-1910.66
-2419.4
-2881.33
-3215.04
-3411.19
-3508.44
-3492.16
-3789.1
-3949.11
-4514.73
-4779.47
-5219.4
-5591.71
-5995.87
-6361.42
-6720.91
-7048.35
-7335.26
-7561.3
-7717.09
-7794.71
-7792.82
-7720.27
-7609.73
-7509.46
-7444.97
-7535.09
-7896.39
-9186.61
-9508.94
-9583.87
-9861.44
-10063.7
-10310.9
-10542.6
-10792.6
-11046.4
-11291
-11521.6
-11740.7
-11952.8
-12162.2
-12367.7
-12542.3
-12652.9
-12699.5
-12735.5
-12545.5
-6899.43
-6678.87
-6702.15
-6886.62
-7151.71
-7449.79
-7850.52
-8216.33
-8515.03
-8780.63
-9008.97
-9184.74
-9302.77
-9343.55
-9292.26
-9103.1
-8816.92
-8409.98
-8053.07
-7676.54
)
;

boundaryField
{
    outletWall
    {
        type            fixedValue;
        value           uniform 0;
    }
    fineWalls
    {
        type            zeroGradient;
    }
    fineFrontAndBack
    {
        type            zeroGradient;
    }
    fineplugLeft
    {
        type            cyclicAMI;
        value           nonuniform List<scalar> 
20
(
-2066.51
-1995.07
-1867.27
-1778.66
-1682.95
-1598.95
-1492.4
-1354.32
-1175.32
-962.265
-700.206
-343.08
-89.2081
321.675
1312.62
1438.15
1655.59
1801.72
1650.4
1356.49
)
;
    }
    fineplugRight
    {
        type            cyclicAMI;
        value           nonuniform List<scalar> 
20
(
-6605
-6752.33
-6978.22
-7227.46
-7397.32
-7493.26
-7485.67
-7409.52
-7276.18
-7106.62
-6892.31
-6601.89
-6448.85
-6792.11
-5351.6
-5202.07
-4976.06
-4925.01
-5111.76
-5599.65
)
;
    }
    inletOutletLeft
    {
        type            cyclicAMI;
        value           nonuniform List<scalar> 
20
(
-2066.51
-1995.07
-1867.27
-1778.66
-1682.95
-1598.95
-1492.4
-1354.32
-1175.32
-962.265
-700.206
-343.08
-89.2081
321.675
1312.62
1438.15
1655.59
1801.72
1650.4
1356.49
)
;
    }
    inletLeft
    {
        type            zeroGradient;
    }
    inletWallsLeft
    {
        type            zeroGradient;
    }
    inletFacesLeft
    {
        type            zeroGradient;
    }
    inletOutletRight
    {
        type            cyclicAMI;
        value           nonuniform List<scalar> 
20
(
-6605
-6752.33
-6978.22
-7227.46
-7397.32
-7493.26
-7485.67
-7409.52
-7276.18
-7106.62
-6892.31
-6601.89
-6448.85
-6792.11
-5351.6
-5202.07
-4976.06
-4925.01
-5111.76
-5599.65
)
;
    }
    inletRight
    {
        type            zeroGradient;
    }
    inletWallsRight
    {
        type            zeroGradient;
    }
    inletFacesRight
    {
        type            zeroGradient;
    }
}


// ************************************************************************* //
