/*--------------------------------*- C++ -*----------------------------------*\
| =========                 |                                                 |
| \\      /  F ield         | OpenFOAM: The Open Source CFD Toolbox           |
|  \\    /   O peration     | Version:  4.1                                   |
|   \\  /    A nd           | Web:      www.OpenFOAM.org                      |
|    \\/     M anipulation  |                                                 |
\*---------------------------------------------------------------------------*/
FoamFile
{
    version     2.0;
    format      ascii;
    class       surfaceScalarField;
    location    "29";
    object      phi;
}
// * * * * * * * * * * * * * * * * * * * * * * * * * * * * * * * * * * * * * //

dimensions      [0 3 -1 0 0 0 0];

internalField   nonuniform List<scalar> 
2360
(
-9412.64
3662.39
-13075
3662.39
3662.39
18056.1
-14393.7
18056.1
18056.1
18056.1
35447.4
-17391.3
35447.4
35447.4
59094.6
-23647.2
59094.6
59094.6
91049.2
-31954.5
91049.2
91049.2
131212
-40163.3
131212
131212
142780
159015
175517
191302
206281
220362
201588
32277.7
213918
225191
235392
244521
252567
259529
265403
270205
273979
276812
278798
280117
280935
151800
129135
151800
151800
151800
45794.6
106005
45794.6
45794.6
45794.6
11113.7
34680.9
11113.7
11113.7
-10479.5
21593.1
-10479.5
-10479.5
-10479.5
-104353
93873.2
-104353
-104353
-104353
-248354
144002
-246475
-242930
-238625
-233663
-228097
-221938
-215197
-207861
-199898
-191248
-181831
-171558
-160342
-185800
37770.1
-172769
-158641
-143598
-128026
-113262
-104125
-104125
-104125
-67562.2
-36562.3
-67562.2
-67562.2
-42624.6
-24937.7
-42624.6
-42624.6
-19864.3
-22760.2
-19864.3
-19864.3
2616.26
-22480.6
2616.25
2616.26
2616.25
26358
-23741.8
26358
26358
51106.5
-24748.4
-14948.8
44665.5
-15076.7
104867
-13711.3
105490
-11920
118102
-10497.2
116081
-9063.29
111845
-7775.24
97508.8
-4019.3
68189.5
-1049.72
-44977.4
-3429.65
-85483
-5048.61
-106425
-557.181
-133901
5950.28
-109441
21356.4
-7421
30783.1
78927.4
32165.1
105407
29954.2
90197.1
28465.5
60086.2
19100.1
-14458.5
44575.7
-15275.7
105685
-13825.1
104040
-12276.1
116553
-11017.6
114822
-9868.3
110696
-8865.15
96505.7
-4268.81
63593.2
-5365.31
-43880.9
-12927.8
-77920.5
-17078.9
-102274
-16589.5
-134390
-13178.8
-112852
8580.06
-29179.8
25187
62320.5
28943
101651
27961.2
91178.9
26300.5
61746.8
21658.9
-13739.4
44122.7
-15370.5
107316
-14085
102754
-12719
115187
-11779.3
113882
-11042.8
109960
-10665.9
96128.8
-7405.66
60332.9
-11043.7
-40242.8
-20334.9
-68629.3
-27627
-94982.3
-32633.5
-129384
-31088.6
-114397
-6916.17
-53352.2
14719.8
40684.5
22347.1
94023.3
24016.1
89509.8
23349.8
62413.1
22528.1
-12512.8
43681.1
-15496.3
110299
-14431.4
101689
-13257
114013
-12721.4
113347
-12508.4
109747
-12907.9
96528.3
-11368
58793.1
-17177.5
-34433.3
-27997.8
-57809
-40843.7
-82136.4
-52452.6
-117775
-52416.4
-114433
-28093.9
-77674.7
-633.027
13223.6
13227.3
80163
18310.9
84426.3
20495.1
60228.9
20263
-12663.5
42296.8
-15902.2
113538
-14927.9
100715
-13841
112926
-13779
113285
-14115.3
110083
-15310
97723
-16129.2
59612.3
-24445.6
-26117
-35544.1
-46710.5
-53303
-64377.5
-73402.8
-97674.9
-76922.3
-110913
-55698.9
-98898
-20726.2
-21749.2
1654.88
57781.9
10898
75183.2
17772
53354.9
13097.4
-15717.4
34191.4
-15388.3
113209
-15789.8
101116
-14364.8
111501
-14879.7
113800
-15781.3
110984
-17872.3
99813.9
-20555
62295
-30448.6
-16223.3
-43391.3
-33767.8
-66818.4
-40950.4
-94272.6
-70220.7
-101130
-104056
-85215.9
-114812
-47970.6
-58994.5
-15689.7
25501.1
-82.1992
59575.7
18223
35049.6
-5241.82
-16409.6
16512.6
-12620.6
109420
-16787.5
105283
-14899.5
109613
-15932.7
114833
-17384.9
112437
-20060.9
102490
-23245.9
65480.1
-36772.9
-2696.36
-58195.6
-12345.1
-91280
-7866.06
-116928
-44572.3
-120969
-100015
-111154
-124627
-80210.2
-89938.6
-38982.9
-15726.2
-5615.95
26208.7
9850.61
19583.1
42378.9
-16489.2
-6526.46
-10323.9
103254
-17470.8
112430
-15824.7
107967
-16931.8
115940
-18919.2
114424
-23184.9
106755
-35905
78200.2
-68054.2
29452.8
-100644
20244.8
-121172
12661.8
-128478
-37265.9
-130844
-97650
-126460
-129010
-111924
-104474
-91433.4
-36217.2
-85606.5
20381.8
-109872
43848.5
76508.6
-22289.5
-27608.9
-12126.9
93091.9
-17499.8
117803
-17234.5
107702
-17949.8
116655
-20180.2
116654
-25426.9
112002
-40653.4
93426.7
-73808.3
62607.7
-105749
52185.7
-122156
29068.4
-123473
-35948.9
-123305
-97818.3
-125432
-126883
-125714
-104192
-123108
-38823.1
-122352
19625.3
-119317
40813.9
51064.8
-31057.5
-42360.1
-17524.3
79558.7
-17409.4
117688
-18719.1
109011
-19117
117053
-21236.7
118774
-26592.1
117358
-40750.3
107585
-69409
91266.4
-97399.6
80176.3
-107305
38974.1
-100636
-42618.5
-98267.1
-100187
-107812
-117338
-119285
-92718.9
-119260
-38848.9
-107064
7429.73
-78335.5
12085.4
-5677.54
-39665.5
-50634.6
-24884.2
64777.4
-18933.6
111738
-20162.4
110240
-20498.3
117389
-22295.1
120571
-27080.8
122143
-38927.6
119432
-61918.5
114257
-84319.8
102578
-88117.5
42771.9
-76820.4
-53915.7
-71070.3
-105937
-83009.4
-105399
-106696
-69031.9
-117699
-27846.8
-108029
-2239.39
-81973.9
-13970.1
-52970.5
-47759.8
-53506.7
-33921
50938.5
-23388.8
101206
-22163.9
109015
-22073.6
117299
-23420.3
121918
-27264.1
125987
-36611.3
128779
-54154.6
131801
-71732.5
120155
-72822.5
43861.8
-59944.1
-66794.1
-50601.1
-115280
-57539.5
-98460.5
-84948.9
-41622.4
-115789
2993.57
-130204
12175.8
-129538
-14637.1
-76503
-55676.3
-51902.7
-43924.4
39186.7
-30354.2
87635.3
-25343.3
104004
-23853.2
115809
-24632.2
122697
-27668.8
129024
-34847.1
135957
-47434.5
144388
-60371
133092
-57986.5
41477.4
-42344.9
-82435.7
-33405
-124220
-36327.5
-95538
-47059
-30890.9
-68717.1
24651.7
-87574.8
31033.5
-105416
3203.8
-52783.3
-63460.2
-46471.5
-54176.5
29903
-38792.2
72251
-29808.8
95021.1
-25883.2
111883
-25782.7
122596
-28306.9
131548
-33807.4
141458
-42359.3
152940
-50926.6
141659
-43333.5
33884.2
-25769.9
-99999.3
-20546.6
-129443
-23563.8
-92520.8
-16324.7
-38130
-9323.51
17650.4
3861.34
17848.7
15703.2
-8638.03
-4802.41
-70932.6
-37348.1
-65354.1
24324.5
-49682.3
56579.2
-37246.3
82585.1
-29864.8
104502
-27615.5
120347
-29007.5
132940
-33256.4
145707
-39829.2
159513
-44445.4
146275
-28100.5
17539.3
-13295.2
-114805
-15558.7
-127180
-16356.5
-91723
-4091.28
-50395.2
13299.4
259.767
22399.4
8748.7
30819.7
-17058.4
-14146
-76968.7
-24389.1
-77969.5
25325.2
-65516.4
44126.1
-51803.6
68872.4
-40681.7
93379.6
-34466.6
114132
-33371.1
131844
-37326.2
149662
-44325.4
166512
-42628.9
144579
-15440.4
-9649.2
-6313.33
-123932
-14653.7
-118839
-11165.7
-95211.1
-457.876
-61103
15827.3
-16025.4
23967.9
608.062
28773
-21863.4
-17327.6
-77286.9
-8996.89
-86744.2
34782.6
-83218.6
40600.5
-73807.6
59461.4
-62567.8
82139.8
-54002.3
105566
-51147.9
128990
-54937.1
153451
-58419.9
169995
-40547.8
126707
-10165.3
-40031.6
-6947.19
-127150
-11326.8
-114460
-6055.01
-100483
2174.09
-69332.1
16001.3
-29852.5
23415.9
-6806.6
24631.5
-23079
-16343.3
-71393.1
6290
-86950.6
50340.1
-93214.7
46864.6
-92035.7
58282.4
-86527.3
76631.3
-81112.3
100151
-79407.3
127285
-80905.3
154949
-72705.9
161796
-33434.2
87435
-6783.24
-66682.6
-8902.54
-125030
-6736.29
-116626
-1894.84
-105324
5202.46
-76429.4
16463.7
-41113.8
21086.4
-11429.3
20001.7
-21994.2
-13733
-60352.9
19572.4
-80364.2
70351.5
-95279.7
61780
-102088
65091.2
-103851
78393.4
-104491
100792
-104844
127638
-99600.9
149706
-74107
136302
-26122.3
39450.3
-6921.39
-85883.6
-8364.5
-123587
-4038.6
-120952
469.384
-109832
6509.13
-82469.2
13881.9
-48486.6
15791.3
-13338.7
15355.6
-21558.5
-12771.1
-41323.5
-57810.8
-76772.8
-90640
-98833.4
-103926
-104239
-92201.9
-59042.3
-21566.1
-9864.99
-6868.33
-2687.12
1653.66
5981.36
10154.9
12064.5
12952
3213.8
-14781.1
5415.3
-18436.9
6843.69
-17930
7945.1
-16886.6
8868.22
-15902.5
9636.73
-14849.4
9837.63
-13704
9965.57
-12458.2
9821.22
-11129
9385.17
-9765.17
8649.37
-8393.07
7622.17
-7018.73
6291.94
-5631.23
4630.64
-4213.35
2681.77
-2853.13
706.224
-1798.17
-776.028
-1351.39
-1177.66
-1583.57
-443.645
-2053.74
-1261.42
98.6523
-14879.7
-1526.45
-16811.8
-3354.99
-16101.4
-5068.59
-15173
-6761.17
-14210
-8367.19
-13243.4
-9908.43
-12162.7
-11420
-10946.6
-12920.6
-9628.42
-14444.5
-8241.3
-15992.6
-6844.97
-17505.6
-5505.69
-18860.8
-4276.08
-19835.2
-3238.9
-20035
-2653.41
-18892.3
-2940.83
-15916.9
-4326.77
-11097.4
-6403.08
-5270.1
-7881.09
-6531.52
-2355.47
-12524.3
-3874.13
-15293.2
-5071.46
-14904.1
-6278.77
-13965.7
-7734.7
-12754.1
-9351.32
-11626.8
-10947.9
-10566.2
-12403.7
-9490.77
-13680.9
-8351.25
-14746.9
-7175.31
-15566.7
-6025.11
-16073.2
-4999.24
-16108
-4241.32
-15381.3
-3965.59
-13617.2
-4417.53
-10799.7
-5758.28
-7365.71
-7760.79
-4053.51
-9715.28
-1609.84
-10324.8
-8141.37
-740.3
-11784
-484.891
-15548.6
-190.407
-15198.6
41.5497
-14197.7
179.895
-12892.4
209.317
-11656.2
264.42
-10621.3
494.752
-9721.11
1001.24
-8857.75
1821.98
-7996.07
2935.3
-7138.43
4256.67
-6320.62
5644.41
-5629.07
6907.42
-5228.61
7762.87
-5272.98
7838.29
-5833.72
6830.89
-6753.39
4776.78
-7661.18
2203.66
-7751.65
-5937.71
25.1796
-11809.2
751.858
-16275.3
1470.92
-15917.7
2097
-14823.8
2727.35
-13522.8
3361.11
-12290
4027.63
-11287.8
4757.17
-10450.7
5597.22
-9697.82
6576.78
-8975.63
7705.1
-8266.77
8942.59
-7558.13
10157.9
-6844.34
11083.3
-6154.04
11376.5
-5566.17
10727.2
-5184.49
9030.8
-5056.96
6395.05
-5025.43
3321.49
-4678.09
-2616.22
585.796
-12395
1516.46
-17205.9
2180.88
-16582.1
2644.2
-15287.1
3085.23
-13963.8
3565.82
-12770.6
4089.69
-11811.7
4592.68
-10953.7
5046.67
-10151.8
5438.92
-9367.88
5778.63
-8606.47
6086.79
-7866.29
6388.68
-7146.23
6668.06
-6433.43
6826.9
-5725.01
6654.67
-5012.26
5921.69
-4323.98
4464
-3567.74
2337.03
-2551.11
-279.194
1211.91
-13606.9
2126.14
-18120.2
2647.84
-17103.8
3010.52
-15649.8
3444.1
-14397.4
3960.88
-13287.4
4552.94
-12403.8
5142.32
-11543.1
5689.86
-10699.4
6143.01
-9821.04
6462.91
-8926.38
6616.89
-8020.29
6590.52
-7119.86
6384.62
-6227.54
6006.54
-5346.92
5434.35
-4440.08
4602.17
-3491.8
3395.61
-2361.18
1729.94
-885.433
1450.74
2008.99
-15615.9
2734.31
-18845.5
3143.39
-17512.9
3559.54
-16065.9
4193.74
-15031.6
4969.82
-14063.4
5873.66
-13307.6
6799.73
-12469.1
7686.96
-11586.6
8429.69
-10563.8
8967.59
-9464.28
9255.33
-8308.03
9270.09
-7134.61
8985.28
-5942.72
8375.34
-4736.98
7414.3
-3479.03
6088.45
-2165.95
4329.7
-602.429
2251.21
1193.06
3701.95
2018.05
-17633.9
2007.33
-18834.8
2063.97
-17569.5
2333.36
-16335.3
2909.49
-15607.7
3673.63
-14827.6
4627.31
-14261.3
5630.94
-13472.8
6560.32
-12516
7240.29
-11243.7
7620.12
-9844.11
7684.65
-8372.56
7441.38
-6891.36
6855.55
-5356.9
5880.65
-3762.09
4526.95
-2125.35
2964.3
-603.315
1424.76
937.089
79.0703
2538.74
3781.03
341.905
-17975.8
-662.543
-17830.3
-1391.47
-16840.6
-1948.18
-15778.6
-2340.39
-15215.5
-2626.37
-14541.6
-2809.7
-14078
-2977.25
-13305.2
-3245.46
-12247.8
-3707.47
-10781.7
-4356.47
-9195.11
-5146.92
-7582.1
-6042.33
-5995.95
-7012.59
-4386.63
-7981.43
-2793.25
-8757.43
-1349.35
-8960.53
-400.222
-7896.69
-126.752
-4927.94
-430.019
-1146.91
-1181.97
-16793.9
-2254.13
-16758.2
-3402.4
-15692.3
-4648.46
-14532.5
-5921.86
-13942.1
-7323
-13140.5
-8809.66
-12591.3
-10372.2
-11742.7
-11954
-10666
-13519.7
-9215.95
-15056.9
-7657.98
-16543.5
-6095.5
-17899.6
-4639.82
-18886.7
-3399.58
-19047.6
-2632.27
-17811.5
-2585.49
-14855.5
-3356.19
-10212.6
-4769.71
-4510.35
-6132.24
-5657.26
-913.787
-15880.1
-1262.48
-16409.5
-1860.27
-15094.5
-2720.08
-13672.7
-3628.5
-13033.7
-4796.46
-11972.5
-6104.88
-11282.9
-7505.75
-10341.8
-8728.78
-9442.96
-9605.21
-8339.51
-10050.5
-7212.63
-10067
-6079.05
-9645.72
-5061.07
-8749.35
-4295.93
-7339.37
-4042.24
-5404.5
-4520.35
-3146.78
-5613.91
-1095.47
-6821.01
-4.50602
-7223.19
-5661.76
200.494
-16080.5
574.184
-16783.2
894.637
-15415
1083.18
-13861.2
1274.1
-13224.6
1367.99
-12066.4
1393.52
-11308.4
1388.92
-10337.2
1487.68
-9541.72
1854.72
-8706.54
2580.78
-7938.67
3695.09
-7193.36
5132.97
-6498.94
6705.14
-5868.09
8010.49
-5347.59
8504.44
-5014.3
7767.04
-4876.5
5756.98
-4810.95
2935.02
-4401.22
-2726.75
668.359
-16748.9
943.745
-17058.5
1371.98
-15843.2
1814.11
-14303.3
2296.35
-13706.8
2798.71
-12568.7
3328.33
-11838
3894.06
-10902.9
4468.99
-10116.6
5066.03
-9303.57
5675.03
-8547.66
6293.39
-7811.71
6889.53
-7095.07
7397.8
-6376.35
7696.94
-5646.71
7568.05
-4885.4
6786.72
-4095.16
5163.09
-3187.32
2794.81
-2032.91
68.0607
899.714
-17648.6
909.693
-17068.5
1304.7
-16238.2
1724.64
-14723.3
2211.53
-14193.7
2686.62
-13043.8
3208.27
-12359.6
3746.84
-11441.4
4322.69
-10692.5
4909.58
-9890.45
5497.54
-9135.6
6050.64
-8364.8
6526.9
-7571.31
6852.48
-6701.93
6926.47
-5720.69
6602.56
-4561.49
5793.16
-3285.75
4412.39
-1806.54
2384.18
-4.68581
2452.24
643.232
-18291.8
481.811
-16907.1
748.523
-16504.9
1065.98
-15040.7
1441.8
-14569.5
1870.09
-13472.1
2349.65
-12839.2
2890.12
-11981.9
3499.21
-11301.6
4183.85
-10575.1
4947.38
-9899.12
5753.96
-9171.37
6520.7
-8338.05
7084.04
-7265.25
7178.94
-5815.58
6513.54
-3896.08
5087.55
-1859.76
2967.68
313.346
1397.11
1565.9
3849.35
-192.086
-18099.7
-640.234
-16458.9
-857.056
-16288.1
-956.525
-14941.2
-1032.72
-14493.3
-964.286
-13540.5
-859.903
-12943.6
-638.52
-12203.3
-344.694
-11595.4
51.8784
-10971.6
528.039
-10375.3
1055.45
-9698.77
1547.47
-8830.06
1831.48
-7549.26
1612.88
-5596.97
713.669
-2996.85
-402.209
-743.838
-230.277
141.456
-665.773
2001.42
3183.58
-1499.16
-16600.6
-3065.48
-14892.6
-4336.11
-15017.4
-5334.5
-13942.8
-6249.91
-13577.9
-6918.68
-12871.7
-7498.69
-12363.5
-7912.53
-11789.4
-8229.96
-11277.9
-8432.19
-10769.4
-8539.8
-10267.7
-8537.52
-9701.05
-8399.52
-8968.06
-8042.89
-7905.89
-7306.14
-6333.71
-6020.96
-4282.04
-4458.48
-2306.31
-3444.51
-872.51
-1920.66
477.572
1262.92
-2165.05
-14435.5
-4665.15
-12392.5
-7126.58
-12556
-9239.74
-11829.7
-11261.4
-11556.2
-13000.9
-11132.2
-14564.9
-10799.6
-15907.4
-10446.9
-17069.1
-10116.3
-18049
-9789.45
-18846.6
-9470.02
-19408.8
-9138.88
-19611.2
-8765.65
-19206.5
-8310.64
-17802.5
-7737.65
-15059.2
-7025.34
-11182.8
-6182.72
-6924.12
-5131.2
-2847.14
-3599.4
-1584.22
-5335.5
-8627.97
-12084
-14813.6
-17269.9
-19302.1
-21001.7
-22348.5
-23364.9
-24054.3
-24424.3
-24463.2
-24128.8
-23339.5
-21977.1
-19902.5
-16985.2
-13016.4
-7515.78
-5328.69
14428.7
-8613.99
12385.3
-12063.4
12549.5
-14786.4
11822.9
-17235.8
11549.4
-19260.8
11125.1
-20952.8
10792
-22291.7
10438.9
-23299.9
10108.1
-23980.9
9781.03
-24342
9461.09
-24370.9
9128.89
-24025.9
8754.98
-23228.1
8302.26
-21865.1
7736.92
-19803
7037.96
-16915.3
6212.26
-12985.7
5170.43
-7516.15
3630.43
1583.85
-2160.48
16589.2
-4656.77
14881.6
-7113.41
15006.1
-9221.89
13931.4
-11238.7
13566.2
-12973.5
12859.8
-14532.9
12351.4
-15871.1
11777.1
-17028.6
11265.6
-18004.1
10756.5
-18795.4
10252.5
-19347.3
9680.7
-19530.8
8938.56
-19091.2
7862.61
-17638.8
6284.49
-14874.2
4273.43
-11040.3
2378.39
-6826.88
956.961
-2783.38
-413.073
-1199.53
-1506.87
18096
-3086.26
16461
-4367.71
16287.5
-5381.4
14945.1
-6311.45
14496.3
-6998.58
13547
-7598.02
12950.8
-8034.69
12213.8
-8378.01
11608.9
-8611.14
10989.7
-8754.56
10395.9
-8788.45
9714.58
-8679.61
8829.72
-8328.17
7511.16
-7548.76
5505.07
-6165.63
2890.3
-4511.13
723.88
-3441.68
-112.489
-1853.37
-2001.39
-3052.9
-221.644
18317.7
-687.725
16927
-928.363
16528.2
-1052.61
15069.3
-1155.75
14599.4
-1115.24
13506.4
-1042.67
12878.2
-855.259
12026.4
-599.931
11353.6
-243.643
10633.4
189.91
9962.33
671.461
9233.02
1113.14
8388.04
1341.47
7282.83
1075.63
5770.91
196.688
3769.23
-747.05
1667.6
-505.401
-354.156
-838.395
-1668.4
-3891.3
619.758
17697.9
454.357
17092.4
704.479
16278
999.569
14774.2
1352.82
14246.2
1758.79
13100.5
2220.56
12416.5
2748.53
11498.4
3353.17
10748.9
4038.93
9947.61
4805.88
9195.38
5615.92
8422.98
6382.72
7621.24
6932.79
6732.76
6985.02
5718.67
6240.59
4513.66
4714.46
3193.73
2690.89
1669.41
1236.42
-213.939
-2654.88
931.842
16766.1
903.941
17120.3
1304.71
15877.3
1762.19
14316.8
2276.04
13732.3
2782.79
12593.7
3315.52
11883.7
3853.18
10960.7
4401.59
10200.5
4952.78
9396.41
5508.52
8639.64
6035.39
7896.11
6489.69
7166.94
6793.47
6428.97
6837.2
5674.94
6475.93
4874.93
5645.13
4024.53
4287.71
3026.83
2300.7
1773.06
-354.177
699.384
16066.7
1208.99
16610.7
1701.45
15384.8
1995.23
14023
2406.34
13321.2
2743.97
12256.1
3156.93
11470.8
3617.91
10499.7
4175.61
9642.83
4792.75
8779.27
5401.73
8030.66
5969.32
7328.52
6454.24
6682.02
6817.58
6065.63
6979.56
5512.97
6775.19
5079.3
6033.28
4766.44
4596.65
4463.46
2497.49
3872.22
2143.31
212.921
15853.8
760.121
16063.5
792.601
15352.3
321.673
14493.9
-92.8509
13735.7
-650.601
12813.8
-1082.05
11902.2
-1391.11
10808.8
-1333.93
9585.66
-728.967
8174.31
451.658
6850.04
1995.77
5784.41
3733.93
4943.86
5437.39
4362.17
6696.52
4253.83
7068.73
4707.09
6351.14
5484.03
4646.88
6167.72
2367.02
6152.08
4510.34
-496.367
16350.1
-894.748
16461.9
-1658.64
16116.2
-2721.76
15557
-3870.96
14884.9
-5167.57
14110.4
-6510.93
13245.6
-7890.4
12188.3
-9036.4
10731.7
-9536.71
8674.62
-9290.04
6603.36
-8601.62
5096
-7586.48
3928.72
-6248.67
3024.35
-4581.98
2587.14
-2695.48
2820.58
-969.443
3758
124.263
5074.01
347.618
5928.72
4857.95
-598.603
16948.7
-1197.7
17061
-1669.86
16588.4
-2093.12
15980.3
-2542.43
15334.2
-3116.25
14684.3
-3894.63
14024
-4993.33
13287
-6497.21
12235.5
-8353.73
10531.1
-10351.9
8601.54
-12288
7032.1
-14005.4
5646.15
-15246.3
4265.16
-15559.2
2900.05
-14459.7
1721.16
-11683.8
982.113
-7520.54
910.701
-3087.63
1495.82
1770.32
487.001
16461.7
754.125
16793.9
1353.4
15989.1
2107.42
15226.3
2885.97
14555.7
3603.45
13966.8
4174.92
13452.5
4496.78
12965.1
4330.82
12401.5
3325.49
11536.5
1614.58
10312.5
-338.168
8984.85
-2302.17
7610.16
-4227.63
6190.61
-6049.86
4722.29
-7498.91
3170.21
-8023.12
1506.33
-7034.79
-77.6351
-4289.46
-1249.5
-2519.14
1514.21
14947.5
2661.26
15646.8
3886.57
14763.8
5104.98
14007.9
6286.55
13374.1
7433.53
12819.8
8575.11
12310.9
9739.73
11800.5
10770.5
11370.7
11347.1
10959.9
11321
10338.5
10806.9
9499.01
9912.08
8504.93
8687.84
7414.86
7150.77
6259.36
5308.02
5012.95
3155.65
3658.71
977.984
2100.04
-270.659
-0.84774
-2789.8
1446.21
13501.3
2664.78
14428.3
3693.88
13734.7
4556.97
13144.8
5308.71
12622.4
5998.38
12130.1
6688.29
11621
7455.07
11033.7
8271.61
10554.2
9002.05
10229.5
9489.54
9851.03
9673.01
9315.55
9552.3
8625.65
9143.95
7823.21
8457.19
6946.12
7478.41
5991.73
6174.2
4962.92
4522.19
3752.05
2343.81
2177.53
-445.994
987.88
12513.4
1972.13
13444
2685.27
13021.6
3213.72
12616.3
3674.07
12162
4127.89
11676.3
4592.06
11156.8
5095
10530.8
5678.77
9970.43
6298.01
9610.23
6824.01
9325.03
7156.34
8983.22
7263.45
8518.54
7143.36
7943.3
6778.48
7311
6108.19
6662.03
5072.83
5998.28
3645.45
5179.43
1888.4
3934.58
1442.41
475.093
12038.3
943.777
12975.3
1085.57
12879.8
1176.1
12525.8
1529.79
11808.3
2268.41
10937.7
3262.24
10163
4299.14
9493.88
5348.71
8920.86
6462.84
8496.1
7597.92
8189.96
8632.61
7948.54
9430
7721.15
9849.76
7523.54
9736.33
7424.43
8938.35
7460.01
7420.75
7515.89
5249.4
7350.78
2723.08
6460.9
4165.49
-349.666
12388
-1026.04
13651.7
-2101.79
13955.5
-3048.72
13472.7
-3423.41
12183
-3166.01
10680.3
-2637.76
9634.77
-2108.03
8964.16
-1467.58
8280.41
-511.048
7539.58
866.756
6812.16
2649.88
6165.43
4698.48
5672.55
6699.1
5522.92
8149.73
5973.8
8538.13
7071.61
7621.43
8432.59
5530.41
9441.79
2748.16
9243.16
6913.65
-2263.41
14651.4
-4543.13
15931.4
-6990.4
16402.8
-9330.02
15812.3
-11376.7
14229.8
-13072.9
12376.5
-14625.7
11187.6
-16093.1
10431.6
-17342
9529.29
-18234.9
8432.5
-18653.8
7231.03
-18475.1
5986.77
-17620.8
4818.24
-16044.9
3947.04
-13674.2
3603.07
-10477.4
3874.81
-6793.85
4749.04
-3394.77
6042.71
-1097.42
6945.81
5816.23
-1045.57
15697
-3170.7
18056.6
-5016.76
18248.9
-6782.55
17578.1
-8762.76
16210
-10823.6
14437.3
-12677.8
13041.8
-14267.1
12020.8
-15712.6
10974.8
-17103.4
9823.36
-18483.8
8611.4
-19851.4
7354.41
-21113.7
6080.47
-21996.4
4829.78
-21951.2
3557.83
-20301.1
2224.73
-16666.5
1114.49
-11092.9
469.058
-4703.19
556.112
1113.03
2673.67
13023.3
2588.21
18142
2355.12
18481.9
2225.23
17708
1919.27
16515.9
1366.4
14990.2
875.15
13533
639.319
12256.7
536.676
11077.4
412.42
9947.61
162.698
8861.13
-285.922
7803.03
-954.986
6749.53
-1778.21
5653
-2718.8
4498.42
-3771.34
3277.26
-4598.09
1941.23
-4442.67
313.618
-3006.14
-880.437
-1893.11
3885.74
7264.34
10174.2
12839.3
15226.5
17186.2
18407
19447.8
20252
20782.8
20993.2
20833.9
20247.5
19159.3
17498.4
15209.8
12188.9
8198.17
3772.48
)
;

boundaryField
{
    outletWall
    {
        type            calculated;
        value           nonuniform List<scalar> 
60
(
51106.5
-15383.1
-58597.5
-87986.1
-106789
-88354.1
-7985.14
102934
129409
108044
87862.9
42007.8
-71945.4
-98796.9
-113279
-117503
-119894
-106856
-104739
-44578.9
33938.6
47070.5
56106.2
61894.7
64009.7
61809.2
58029
54072.2
50631.9
47940
45808.8
43371.9
39528.2
34088.4
23822.8
14047.9
12954.3
14192.4
14548.3
14862.3
9412.64
-12894.1
-22446
-15248.3
-52660.2
-86796.9
-114173
-125133
-126584
-97584.6
1973.97
103142
137669
127950
105885
86586.9
78958.3
80742.1
86838.7
26957.3
)
;
    }
    fineWalls
    {
        type            calculated;
        value           uniform 0;
    }
    fineFrontAndBack
    {
        type            calculated;
        value           nonuniform List<scalar> 
960
(
-1.00893e-11
-5.90495e-11
-7.98046e-12
-6.10962e-12
-5.16271e-11
-8.01155e-12
-6.60744e-12
-4.98304e-12
-3.92527e-11
-6.44846e-12
-4.10917e-12
-5.75908e-11
-1.2017e-11
-9.01125e-12
-8.234e-11
-1.55126e-11
-1.29557e-11
-6.80074e-11
-1.06988e-11
-8.36578e-12
-1.52735e-12
-1.45575e-12
-1.96689e-12
-2.48875e-12
-2.80048e-12
-2.80354e-12
-1.02377e-10
-2.15731e-12
-2.21295e-12
-2.288e-12
-2.45207e-12
-2.76232e-12
-3.1487e-12
-3.67699e-12
-4.30051e-12
-4.91168e-12
-5.77549e-12
-7.2241e-12
-8.89015e-12
-1.15955e-11
-2.48381e-10
-2.58143e-11
-1.82479e-11
-1.13631e-11
-8.69994e-13
6.56443e-12
5.81972e-12
3.6193e-12
2.13071e-11
9.76659e-12
1.53345e-11
1.08454e-10
1.08904e-11
6.15389e-12
7.72157e-13
-2.69479e-11
-1.77202e-12
4.78595e-12
1.26343e-11
2.10591e-10
1.22669e-11
1.09036e-11
1.08909e-11
1.02671e-11
9.87528e-12
9.47451e-12
9.0805e-12
8.69928e-12
8.33729e-12
7.93651e-12
7.471e-12
6.94171e-12
6.44246e-12
1.54029e-10
6.58858e-12
6.57942e-12
6.31711e-12
5.77492e-12
4.91373e-12
4.13389e-12
1.59477e-11
1.61605e-11
1.05165e-10
2.06165e-11
2.39606e-11
1.50363e-10
3.09282e-11
3.43918e-11
1.9677e-10
4.06519e-11
4.52577e-11
2.53554e-10
5.46056e-11
3.79981e-11
2.66336e-11
1.14005e-10
1.81591e-11
1.79909e-11
9.0763e-11
2.31291e-11
4.33929e-11
3.37409e-11
2.32701e-11
1.69007e-11
1.26183e-11
1.39069e-11
2.16078e-11
3.46832e-11
4.69674e-11
4.79666e-11
6.06311e-11
1.05329e-10
1.69519e-10
1.98452e-10
1.16262e-10
8.09707e-11
8.72327e-11
1.1641e-10
1.35575e-10
4.27198e-11
3.29927e-11
2.27683e-11
1.65881e-11
1.25495e-11
1.4123e-11
2.2136e-11
3.5328e-11
4.66484e-11
5.03019e-11
8.71256e-11
1.63056e-10
2.35279e-10
2.4914e-10
1.46571e-10
9.13425e-11
8.57652e-11
1.10272e-10
1.29531e-10
4.18298e-11
3.21016e-11
2.21102e-11
1.61941e-11
1.24767e-11
1.44354e-11
2.28972e-11
3.62346e-11
4.61182e-11
5.5722e-11
1.07844e-10
1.92375e-10
2.40515e-10
2.34877e-10
1.92845e-10
1.17284e-10
8.8949e-11
1.06418e-10
8.60732e-11
4.0953e-11
3.15526e-11
2.1372e-11
1.57627e-11
1.24195e-11
1.48225e-11
2.38164e-11
3.72268e-11
4.69344e-11
6.31118e-11
1.22064e-10
2.11005e-10
2.34213e-10
2.15377e-10
1.94287e-10
1.40852e-10
9.8428e-11
1.06857e-10
6.501e-11
4.21452e-11
3.00616e-11
2.08643e-11
1.53012e-11
1.2389e-11
1.53052e-11
2.48715e-11
3.83724e-11
5.1309e-11
7.32699e-11
1.25111e-10
2.11948e-10
2.13072e-10
1.88942e-10
1.6852e-10
1.53726e-10
1.06723e-10
1.10774e-10
6.46625e-11
2.1131e-11
2.83922e-11
2.0405e-11
1.49325e-11
1.23714e-11
1.58282e-11
2.59283e-11
4.00367e-11
6.13281e-11
9.18371e-11
1.32047e-10
1.96048e-10
1.78696e-10
1.56927e-10
1.41329e-10
1.41005e-10
1.15702e-10
1.1534e-10
1.06883e-10
-3.04536e-11
3.00699e-11
1.91815e-11
1.46674e-11
1.24809e-11
1.65885e-11
2.72808e-11
4.14674e-11
7.57768e-11
1.21866e-10
1.46158e-10
1.60033e-10
1.2699e-10
1.13865e-10
1.07501e-10
1.15249e-10
1.25417e-10
1.22931e-10
2.27414e-10
-5.03089e-11
3.15823e-11
1.76153e-11
1.39997e-11
1.27355e-11
1.69332e-11
2.71045e-11
4.53139e-11
1.02876e-10
1.53678e-10
1.28298e-10
7.71353e-11
5.0801e-11
5.43843e-11
7.06121e-11
8.69269e-11
1.25822e-10
2.04715e-10
2.95394e-10
-4.18916e-11
2.96141e-11
1.70537e-11
1.2378e-11
1.27821e-11
1.91711e-11
3.37525e-11
4.78643e-11
1.0555e-10
1.34493e-10
6.18371e-11
-2.14692e-11
-4.33265e-11
-1.91087e-11
2.90483e-11
7.04809e-11
7.58701e-11
8.82503e-11
6.40589e-11
-2.81199e-11
2.89434e-11
1.81004e-11
1.09554e-11
1.32436e-11
1.62366e-11
6.57779e-12
5.01804e-11
9.58034e-11
1.01952e-10
1.57401e-11
-6.19283e-11
-9.85414e-11
-6.9144e-11
-1.16247e-11
5.79917e-11
5.28689e-11
5.04285e-11
7.28002e-11
-1.22656e-11
3.52668e-11
2.18811e-11
1.12454e-11
1.32628e-11
1.76051e-11
2.36836e-11
5.06925e-11
7.90112e-11
5.87295e-11
-4.30148e-11
-1.06071e-10
-8.81631e-11
-5.9163e-11
-2.54744e-12
3.88432e-11
4.75115e-11
4.04979e-11
3.64582e-11
2.70053e-12
4.94104e-11
3.18107e-11
1.48574e-11
1.34922e-11
1.95599e-11
3.51061e-11
5.0608e-11
5.96971e-11
2.12704e-11
-6.09101e-11
-8.21952e-11
-7.27476e-11
-6.23983e-11
-3.04345e-11
1.1502e-11
-5.73988e-12
-5.74196e-11
-7.55505e-11
1.38453e-11
6.69582e-11
5.00818e-11
2.44164e-11
1.57737e-11
2.11115e-11
3.74249e-11
4.99038e-11
4.28755e-11
-3.35298e-12
-6.05467e-11
-6.15264e-11
-5.49771e-11
-5.56915e-11
-5.23712e-11
-3.64995e-11
-1.18089e-10
-2.67867e-10
-3.52481e-10
1.86402e-11
7.52217e-11
6.83819e-11
4.00248e-11
2.43782e-11
2.6321e-11
4.04349e-11
4.86861e-11
3.12097e-11
-1.52581e-11
-5.34518e-11
-4.7014e-11
-3.75105e-11
-4.80828e-11
-6.43436e-11
-6.23589e-11
-8.7296e-11
-9.39118e-11
-1.48593e-10
1.66218e-11
6.32303e-11
7.00081e-11
5.2369e-11
3.85821e-11
3.72663e-11
4.55563e-11
4.65276e-11
2.32896e-11
-1.90411e-11
-4.62009e-11
-3.62004e-11
-2.73264e-11
-4.37897e-11
-6.49525e-11
-7.85791e-11
-8.52847e-11
-9.09059e-11
-1.04769e-10
1.02728e-11
3.79964e-11
5.23426e-11
4.97788e-11
4.62711e-11
4.51291e-11
4.58921e-11
3.85032e-11
1.32e-11
-2.19744e-11
-4.0219e-11
-2.34843e-11
-2.53911e-11
-4.25025e-11
-6.3353e-11
-8.24879e-11
-9.1674e-11
-9.69517e-11
-1.02546e-10
2.63797e-12
1.43322e-11
3.12908e-11
3.53795e-11
3.86536e-11
3.878e-11
3.40921e-11
2.14859e-11
-1.59623e-12
-2.7387e-11
-3.32157e-11
-1.59993e-11
-2.64666e-11
-4.11252e-11
-6.13094e-11
-8.24058e-11
-9.50284e-11
-1.00242e-10
-1.1025e-10
-5.0858e-12
-6.08415e-12
1.48803e-11
2.11451e-11
2.53046e-11
2.54593e-11
1.8769e-11
5.14249e-12
-1.42388e-11
-3.07398e-11
-2.29353e-11
-1.62383e-11
-2.61105e-11
-3.96333e-11
-5.9625e-11
-8.22784e-11
-9.78987e-11
-1.00878e-10
-1.10112e-10
-9.45146e-12
-2.26089e-11
5.17804e-12
1.54465e-11
1.99459e-11
2.10904e-11
1.44827e-11
1.0371e-13
-1.77696e-11
-2.75785e-11
-1.51874e-11
-1.67853e-11
-2.56851e-11
-3.9143e-11
-5.95796e-11
-8.40577e-11
-1.01766e-10
-1.00527e-10
-1.04119e-10
-3.89582e-12
-4.5504e-11
-2.39952e-11
-3.28077e-12
8.70893e-12
1.58324e-11
1.60375e-11
6.22431e-12
-9.63855e-12
-1.91651e-11
-1.4431e-11
-1.66597e-11
-2.54413e-11
-3.90424e-11
-6.00505e-11
-8.60844e-11
-1.04955e-10
-9.9216e-11
-1.00727e-10
1.00893e-11
5.90495e-11
7.98046e-12
6.10962e-12
5.16271e-11
8.01155e-12
6.60744e-12
4.98304e-12
3.92527e-11
6.44846e-12
4.10917e-12
5.75908e-11
1.2017e-11
9.01125e-12
8.234e-11
1.55126e-11
1.29557e-11
6.80074e-11
1.06988e-11
8.36578e-12
1.52735e-12
1.45575e-12
1.96689e-12
2.48875e-12
2.80048e-12
2.80354e-12
1.02377e-10
2.15731e-12
2.21295e-12
2.288e-12
2.45207e-12
2.76232e-12
3.1487e-12
3.67699e-12
4.30051e-12
4.91168e-12
5.77549e-12
7.2241e-12
8.89015e-12
1.15955e-11
2.48381e-10
2.58143e-11
1.82479e-11
1.13631e-11
8.69994e-13
-6.56443e-12
-5.81972e-12
-3.6193e-12
-2.13071e-11
-9.76659e-12
-1.53345e-11
-1.08454e-10
-1.08904e-11
-6.15389e-12
-7.72157e-13
2.69479e-11
1.77202e-12
-4.78595e-12
-1.26343e-11
-2.10591e-10
-1.22669e-11
-1.09036e-11
-1.08909e-11
-1.02671e-11
-9.87528e-12
-9.47451e-12
-9.0805e-12
-8.69928e-12
-8.33729e-12
-7.93651e-12
-7.471e-12
-6.94171e-12
-6.44246e-12
-1.54029e-10
-6.58858e-12
-6.57942e-12
-6.31711e-12
-5.77492e-12
-4.91373e-12
-4.13389e-12
-1.59477e-11
-1.61605e-11
-1.05165e-10
-2.06165e-11
-2.39606e-11
-1.50363e-10
-3.09282e-11
-3.43918e-11
-1.9677e-10
-4.06519e-11
-4.52577e-11
-2.53554e-10
-5.46056e-11
-3.79981e-11
-2.66336e-11
-1.14005e-10
-1.81591e-11
-1.79909e-11
-9.0763e-11
-2.31291e-11
-4.33929e-11
-3.37409e-11
-2.32701e-11
-1.69007e-11
-1.26183e-11
-1.39069e-11
-2.16078e-11
-3.46832e-11
-4.69674e-11
-4.79666e-11
-6.06311e-11
-1.05329e-10
-1.69519e-10
-1.98452e-10
-1.16262e-10
-8.09707e-11
-8.72327e-11
-1.1641e-10
-1.35575e-10
-4.27198e-11
-3.29927e-11
-2.27683e-11
-1.65881e-11
-1.25495e-11
-1.4123e-11
-2.2136e-11
-3.5328e-11
-4.66484e-11
-5.03019e-11
-8.71256e-11
-1.63056e-10
-2.35279e-10
-2.4914e-10
-1.46571e-10
-9.13425e-11
-8.57652e-11
-1.10272e-10
-1.29531e-10
-4.18298e-11
-3.21016e-11
-2.21102e-11
-1.61941e-11
-1.24767e-11
-1.44354e-11
-2.28972e-11
-3.62346e-11
-4.61182e-11
-5.5722e-11
-1.07844e-10
-1.92375e-10
-2.40515e-10
-2.34877e-10
-1.92845e-10
-1.17284e-10
-8.8949e-11
-1.06418e-10
-8.60732e-11
-4.0953e-11
-3.15526e-11
-2.1372e-11
-1.57627e-11
-1.24195e-11
-1.48225e-11
-2.38164e-11
-3.72268e-11
-4.69344e-11
-6.31118e-11
-1.22064e-10
-2.11005e-10
-2.34213e-10
-2.15377e-10
-1.94287e-10
-1.40852e-10
-9.8428e-11
-1.06857e-10
-6.501e-11
-4.21452e-11
-3.00616e-11
-2.08643e-11
-1.53012e-11
-1.2389e-11
-1.53052e-11
-2.48715e-11
-3.83724e-11
-5.1309e-11
-7.32699e-11
-1.25111e-10
-2.11948e-10
-2.13072e-10
-1.88942e-10
-1.6852e-10
-1.53726e-10
-1.06723e-10
-1.10774e-10
-6.46625e-11
-2.1131e-11
-2.83922e-11
-2.0405e-11
-1.49325e-11
-1.23714e-11
-1.58282e-11
-2.59283e-11
-4.00367e-11
-6.13281e-11
-9.18371e-11
-1.32047e-10
-1.96048e-10
-1.78696e-10
-1.56927e-10
-1.41329e-10
-1.41005e-10
-1.15702e-10
-1.1534e-10
-1.06883e-10
3.04536e-11
-3.00699e-11
-1.91815e-11
-1.46674e-11
-1.24809e-11
-1.65885e-11
-2.72808e-11
-4.14674e-11
-7.57768e-11
-1.21866e-10
-1.46158e-10
-1.60033e-10
-1.2699e-10
-1.13865e-10
-1.07501e-10