/*--------------------------------*- C++ -*----------------------------------*\
| =========                 |                                                 |
| \\      /  F ield         | OpenFOAM: The Open Source CFD Toolbox           |
|  \\    /   O peration     | Version:  4.1                                   |
|   \\  /    A nd           | Web:      www.OpenFOAM.org                      |
|    \\/     M anipulation  |                                                 |
\*---------------------------------------------------------------------------*/
FoamFile
{
    version     2.0;
    format      ascii;
    class       volVectorField;
    location    "29";
    object      U;
}
// * * * * * * * * * * * * * * * * * * * * * * * * * * * * * * * * * * * * * //

dimensions      [0 1 -1 0 0 0 0];

internalField   nonuniform List<vector> 
1280
(
(-7.29129e-15 -2.9786 -8.01833)
(-1.00569e-14 0.0432754 -10.5694)
(-5.76727e-15 0.381083 -6.41878)
(-4.41526e-15 1.42514 -5.30607)
(-8.77452e-15 3.64212 -11.2253)
(-5.78323e-15 4.6397 -8.48739)
(-4.77502e-15 6.31893 -7.62286)
(-3.65315e-15 6.71453 -5.8844)
(-6.41769e-15 10.0706 -12.3347)
(-4.66013e-15 11.1979 -9.75575)
(-2.85559e-15 12.7002 -8.12592)
(-1.03063e-14 17.3509 -17.1365)
(-8.82391e-15 18.2272 -13.8686)
(-6.5122e-15 20.6645 -11.9471)
(-1.45738e-14 27.0095 -24.0294)
(-1.12106e-14 27.4224 -18.9262)
(-9.36278e-15 31.8635 -17.0937)
(-1.15585e-14 33.7749 -31.1047)
(-7.91625e-15 42.8295 -23.757)
(-6.04573e-15 34.5874 -33.7383)
(-6.26605e-15 43.3524 32.3875)
(-5.9723e-15 44.5136 60.5675)
(-8.06929e-15 46.4268 78.7129)
(-1.02102e-14 49.2236 89.8886)
(-1.14891e-14 50.5935 96.5408)
(-1.15017e-14 54.122 101.178)
(-2.15815e-14 45.8579 56.3447)
(-8.85048e-15 91.1243 116.544)
(-9.07876e-15 91.0266 117.561)
(-9.38665e-15 92.7639 116.839)
(-1.00598e-14 93.1772 114.993)
(-1.13326e-14 93.214 112.063)
(-1.29177e-14 93.0925 108.641)
(-1.50851e-14 92.7325 105.277)
(-1.76431e-14 92.134 102.372)
(-2.01505e-14 91.3603 100.048)
(-2.36943e-14 90.218 98.5942)
(-2.96373e-14 89.0937 97.2188)
(-3.64724e-14 87.3032 97.1951)
(-4.75711e-14 85.6059 92.3286)
(-4.32342e-14 86.9038 115.19)
(-2.07344e-14 61.2224 83.3496)
(-1.4657e-14 54.5926 83.249)
(-9.23936e-15 41.9636 80.8088)
(6.07781e-16 33.5998 80.2578)
(5.27263e-15 20.1096 48.3143)
(4.67447e-15 14.942 43.4044)
(2.90707e-15 10.1829 33.6384)
(3.59753e-15 7.73806 16.1163)
(8.71652e-15 4.22071 6.79283)
(1.31834e-14 3.22355 4.20162)
(1.8878e-14 1.62904 0.226111)
(8.74734e-15 -0.876759 17.8653)
(4.94288e-15 -2.83987 29.0566)
(6.20206e-16 -7.82016 37.2137)
(-4.69066e-15 -15.4248 69.8968)
(-1.42331e-15 -26.5278 84.3441)
(3.84414e-15 -37.5977 89.9335)
(1.0148e-14 -47.3646 91.6231)
(3.55628e-14 -79.7747 132.231)
(5.03259e-14 -71.6316 116.963)
(4.47329e-14 -74.9373 123.695)
(4.46806e-14 -75.4455 123.31)
(4.21213e-14 -76.8117 124.154)
(4.0514e-14 -77.6487 124.286)
(3.88698e-14 -78.3989 124.304)
(3.72533e-14 -78.9171 123.926)
(3.56894e-14 -79.2051 123.295)
(3.42043e-14 -79.2363 122.649)
(3.25601e-14 -79.1759 122.273)
(3.06503e-14 -78.8306 121.952)
(2.84788e-14 -77.1073 121.164)
(2.64306e-14 -78.0308 118.329)
(3.24699e-14 -33.2953 56.2884)
(2.70301e-14 -44.6745 89.4775)
(2.69925e-14 -41.3883 85.2062)
(2.59163e-14 -39.7618 79.9789)
(2.3692e-14 -36.8149 71.4852)
(2.01589e-14 -34.8489 56.1357)
(1.69595e-14 -33.8509 29.1631)
(1.1525e-14 -28.9113 -29.0736)
(1.16198e-14 -32.941 -23.6774)
(1.78737e-14 -25.6837 -30.0015)
(1.4899e-14 -24.0124 -16.0786)
(1.73157e-14 -19.7236 -17.6722)
(2.57627e-14 -20.1028 -22.0384)
(2.24466e-14 -15.3769 -13.2814)
(2.50454e-14 -12.6543 -14.6861)
(3.42214e-14 -11.7714 -19.2924)
(2.90021e-14 -8.0173 -11.953)
(3.23306e-14 -5.79581 -13.4149)
(4.59544e-14 -3.95311 -18.613)
(4.12077e-14 -0.829613 -12.7608)
(2.74603e-14 0.764587 -12.8148)
(1.92474e-14 3.05288 -12.7958)
(1.93762e-14 5.57436 -19.1395)
(1.31231e-14 7.71189 -14.1775)
(1.30016e-14 11.05 -12.7286)
(1.54846e-14 10.1937 -17.9298)
(1.67148e-14 16.6876 -19.2652)
(4.82143e-15 -14.7896 12.3473)
(3.74899e-15 -34.8533 12.6305)
(2.58556e-15 -35.5299 12.4525)
(1.87785e-15 -39.8471 10.4461)
(1.40203e-15 -39.1288 9.38051)
(1.54521e-15 -37.7658 8.13499)
(2.40086e-15 -33.0463 6.95051)
(3.85369e-15 -24.2292 5.88488)
(5.2186e-15 14.1224 1.35177)
(5.32962e-15 29.2588 0.00804464)
(6.73679e-15 35.9777 5.65886)
(1.17033e-14 43.3871 2.77967)
(1.88354e-14 34.8531 -1.6407)
(2.20502e-14 -1.69693 -9.75415)
(1.2918e-14 -28.5889 -24.2233)
(8.99674e-15 -35.4235 -27.4846)
(9.69252e-15 -29.4105 -26.1287)
(1.29344e-14 -19.6038 -23.7268)
(1.50639e-14 -5.3733 -23.7403)
(4.74665e-15 -14.9854 11.8867)
(3.66585e-15 -35.1097 12.5874)
(2.52981e-15 -34.9283 12.636)
(1.84312e-15 -39.0847 10.5724)
(1.39439e-15 -38.4114 9.77652)
(1.56922e-15 -36.9646 8.64368)
(2.45955e-15 -32.1288 7.77653)
(3.92533e-15 -21.5913 6.38002)
(5.18315e-15 15.3193 1.92344)
(5.5891e-15 27.4443 6.39438)
(9.68062e-15 34.8732 15.1637)
(1.81174e-14 45.5278 13.2011)
(2.61421e-14 37.6839 14.8569)
(2.76822e-14 5.39661 6.27194)
(1.62857e-14 -24.4218 -18.9946)
(1.01492e-14 -34.9824 -24.2102)
(9.52947e-15 -30.5858 -23.9898)
(1.22525e-14 -20.466 -22.53)
(1.43924e-14 -7.28739 -21.0547)
(4.64775e-15 -14.8242 11.35)
(3.56684e-15 -35.4071 12.2433)
(2.45669e-15 -34.4221 13.0087)
(1.79935e-15 -38.5856 10.712)
(1.3863e-15 -38.0772 10.3325)
(1.60393e-15 -36.736 9.38034)
(2.54413e-15 -32.0588 9.01591)
(4.02607e-15 -20.5885 7.9975)
(5.12424e-15 13.6479 5.436)
(6.19134e-15 24.4268 12.5374)
(1.19826e-14 33.164 21.3534)
(2.1375e-14 44.2147 24.5605)
(2.67239e-14 37.6499 30.2543)
(2.60974e-14 13.8047 21.4185)
(2.14272e-14 -17.2338 -8.57801)
(1.30315e-14 -32.9121 -17.5007)
(9.88322e-15 -30.248 -19.8153)
(1.18243e-14 -20.5833 -20.0548)
(9.56369e-15 -6.98999 -18.8011)
(4.55033e-15 -14.5888 10.0776)
(3.50584e-15 -36.1216 11.7973)
(2.37467e-15 -34.0733 13.5174)
(1.75141e-15 -38.196 10.8745)
(1.37995e-15 -37.8551 11.0182)
(1.64694e-15 -36.5995 10.2873)
(2.64627e-15 -32.0834 10.5696)
(4.13631e-15 -19.755 10.0997)
(5.21494e-15 12.7429 9.72827)
(7.01243e-15 21.3619 18.7029)
(1.35626e-14 30.7009 28.1195)
(2.3445e-14 41.9418 39.5836)
(2.60236e-14 38.4712 48.2434)
(2.39307e-14 21.9666 39.4428)
(2.15874e-14 -10.0762 8.28955)
(1.56502e-14 -29.752 -8.54343)
(1.09364e-14 -29.606 -13.8809)
(1.1873e-14 -21.27 -16.3832)
(7.22333e-15 -8.46453 -18.0066)
(4.6828e-15 -14.4262 10.8085)
(3.34017e-15 -37.4359 11.5717)
(2.31826e-15 -33.7318 14.2837)
(1.70013e-15 -37.8311 11.0259)
(1.37656e-15 -37.7341 11.797)
(1.70058e-15 -36.5958 11.2886)
(2.7635e-15 -32.2976 12.2599)
(4.2636e-15 -19.4485 12.3855)
(5.701e-15 10.0859 15.2616)
(8.14111e-15 16.7509 25.581)
(1.39012e-14 23.8394 33.4974)
(2.35497e-14 36.81 55.1406)
(2.36747e-14 37.818 67.4955)
(2.09936e-14 29.7279 61.0999)
(1.87245e-14 1.04846 31.8928)
(1.70806e-14 -23.4188 2.27422)
(1.18581e-14 -26.2673 -5.75105)
(1.23083e-14 -18.2827 -12.0835)
(7.18472e-15 -4.15971 -18.182)
(2.34789e-15 -13.7434 18.7335)
(3.15469e-15 -38.1842 9.05653)
(2.26722e-15 -33.4147 15.7814)
(1.65917e-15 -37.4528 11.0542)
(1.3746e-15 -37.797 12.6041)
(1.75869e-15 -36.8 12.3304)
(2.88092e-15 -32.8625 14.0002)
(4.44853e-15 -20.2976 14.9261)
(6.81423e-15 6.99562 19.7605)
(1.02041e-14 14.6088 31.9929)
(1.46718e-14 18.1794 39.4325)
(2.17831e-14 27.7281 71.8496)
(1.98551e-14 35.7567 85.6355)
(1.74363e-14 36.1035 83.1628)
(1.57032e-14 13.4729 58.9058)
(1.56672e-14 -15.5203 20.9608)
(1.28558e-14 -24.7274 4.29147)
(1.28156e-14 -18.8686 -3.98824)
(1.18759e-14 -6.99849 -28.1396)
(-3.38373e-15 -9.4037 26.7682)
(3.3411e-15 -37.3594 2.77632)
(2.13128e-15 -34.017 17.3434)
(1.62971e-15 -36.8881 11.1964)
(1.38677e-15 -38.0756 13.329)
(1.84317e-15 -37.1917 13.3664)
(3.03119e-15 -33.6571 15.6375)
(4.60748e-15 -21.0177 16.9212)
(8.41965e-15 4.83543 22.0399)
(1.35406e-14 9.0425 40.4644)
(1.62398e-14 9.69107 56.0324)
(1.77814e-14 18.3653 95.2696)
(1.411e-14 33.8258 100.565)
(1.26517e-14 40.3699 100.942)
(1.19446e-14 26.0243 84.4565)
(1.28054e-14 -0.965611 49.2173)
(1.39352e-14 -13.3596 14.8798)
(1.3659e-14 -0.272844 -5.80564)
(2.52682e-14 15.3818 -7.1481)
(-5.58988e-15 -1.8655 31.1685)
(3.50914e-15 -35.6798 -1.33717)
(1.95725e-15 -36.2027 17.5922)
(1.55553e-15 -36.1925 12.0869)
(1.41506e-15 -38.4845 13.9768)
(1.88147e-15 -37.7734 14.3885)
(3.01161e-15 -34.7369 17.2049)
(5.03488e-15 -23.2191 20.55)
(1.14307e-14 -3.88441 39.8524)
(1.70754e-14 -2.07698 73.4404)
(1.42553e-14 -3.55378 95.2715)
(8.57059e-15 12.6409 105.665)
(5.64456e-15 32.8085 108.983)
(6.0427e-15 42.6812 108.955)
(7.84578e-15 33.923 101.984)
(9.65854e-15 11.3681 84.6618)
(1.39802e-14 -5.66379 67.1153)
(2.27461e-14 -15.9078 75.6113)
(3.28216e-14 -43.1929 106.602)
(-4.65462e-15 6.32067 35.2878)
(3.29046e-15 -33.0637 3.2991)
(1.89486e-15 -38.7349 15.9689)
(1.37533e-15 -35.7764 13.7223)
(1.42023e-15 -38.804 14.716)
(2.13012e-15 -38.5003 15.3312)
(3.75028e-15 -36.3886 18.3198)
(5.31825e-15 -28.484 23.4642)
(1.17277e-14 -15.4512 44.6389)
(1.49437e-14 -11.5131 78.1138)
(6.87079e-15 -6.20139 99.0178)
(-2.38547e-15 11.9204 104.052)
(-4.81405e-15 32.401 101.977)
(-2.12319e-15 43.2764 103.269)
(3.22759e-15 35.4955 105.904)
(7.83122e-15 12.5452 103.693)
(8.43001e-15 -7.30196 101.501)
(9.80559e-15 -14.0125 103.181)
(7.11766e-15 -15.9972 92.0156)
(-3.12444e-15 12.2831 38.112)
(3.21593e-15 -28.9627 14.2216)
(2.01115e-15 -39.7778 14.1664)
(1.21727e-15 -36.022 15.2897)
(1.47151e-15 -38.9596 15.6757)
(1.80406e-15 -39.2534 16.2919)
(-3.69123e-16 -38.237 19.0873)
(5.5756e-15 -33.6596 24.8524)
(1.06448e-14 -26.1046 43.1533)
(1.1328e-14 -22.6277 72.4034)
(1.7489e-15 -12.2282 90.8889)
(-5.87684e-15 12.3753 87.5345)
(-1.0949e-14 32.8363 80.1762)
(-7.68267e-15 41.3257 83.303)
(-2.59397e-15 33.9013 96.4369)
(6.44352e-15 13.1326 102.467)
(5.87432e-15 -6.16018 96.3888)
(5.60316e-15 -12.3035 82.6061)
(8.08891e-15 -10.8375 44.5598)
(-1.36284e-15 16.0248 40.4298)
(3.91854e-15 -24.0013 25.5731)
(2.43123e-15 -38.6765 15.2784)
(1.24949e-15 -36.6436 16.6127)
(1.47365e-15 -39.0646 16.825)
(1.95612e-15 -39.9137 17.4144)
(3.68862e-15 -39.9754 19.716)
(5.6325e-15 -38.0284 25.1644)
(8.77902e-15 -34.6784 39.7)
(6.5255e-15 -30.8538 63.4688)
(-4.77943e-15 -13.99 77.9303)
(-1.17857e-14 15.9004 68.7723)
(-9.7959e-15 33.8957 58.9438)
(-6.57366e-15 36.7779 59.1961)
(-2.83049e-16 28.0245 79.091)
(4.31592e-15 13.0629 98.9132)
(5.27906e-15 1.49674 97.6213)
(4.49976e-15 3.86712 83.0856)
(4.05091e-15 12.185 49.3804)
(3.00059e-16 17.7875 43.0957)
(5.49005e-15 -19.1349 35.7475)
(3.53452e-15 -35.8131 20.4817)
(1.65082e-15 -36.8469 18.6944)
(1.49913e-15 -39.1874 18.1544)
(2.17332e-15 -40.4541 18.6765)
(3.90068e-15 -41.4269 20.3274)
(5.62311e-15 -41.5453 24.9357)
(6.63301e-15 -41.4072 36.0182)
(2.36338e-15 -37.4431 54.325)
(-6.76779e-15 -14.5764 65.9008)
(-9.1328e-15 19.9346 55.6035)
(-8.08307e-15 36.6764 43.6514)
(-6.93314e-15 33.4064 40.58)
(-3.38161e-15 17.4556 54.8861)
(1.278e-15 4.82539 86.9344)
(-6.37765e-16 -0.355223 106.797)
(-6.37996e-15 4.64875 111.087)
(-8.3945e-15 18.8734 100.952)
(1.53837e-15 17.9282 46.2834)
(7.4398e-15 -14.8052 45.1277)
(5.56465e-15 -31.6143 28.2026)
(2.71294e-15 -35.8093 22.4047)
(1.75263e-15 -38.9902 19.822)
(2.34572e-15 -40.8078 19.9393)
(4.15832e-15 -42.5443 21.0903)
(5.54487e-15 -44.2805 24.9003)
(4.76394e-15 -46.4258 33.0773)
(-3.72553e-16 -42.5999 46.1809)
(-6.72741e-15 -14.5458 54.8483)
(-6.83626e-15 24.6766 42.2494)
(-6.10856e-15 40.0635 27.3148)
(-6.18794e-15 32.2827 28.5317)
(-5.81902e-15 10.2193 31.2099)
(-4.0555e-15 -6.64641 47.5037)
(-1.31211e-14 -7.5156 67.8988)
(-2.9763e-14 7.23288 78.2827)
(-3.91645e-14 40.269 96.8411)
(2.07113e-15 16.7115 49.7995)
(8.35797e-15 -11.3707 54.0566)
(7.59799e-15 -26.8192 36.8019)
(4.4472e-15 -33.553 27.6868)
(2.70868e-15 -38.2176 22.0549)
(2.92456e-15 -40.9836 21.0574)
(4.49276e-15 -43.4508 21.899)
(5.40956e-15 -46.3229 25.1967)
(3.46774e-15 -49.7986 31.0199)
(-1.69534e-15 -46.1012 39.9022)
(-5.93909e-15 -13.1164 45.0193)
(-5.22378e-15 30.3849 27.8428)
(-4.16783e-15 42.783 14.0325)
(-5.34254e-15 31.4863 20.5127)
(-7.14929e-15 10.8132 17.8879)
(-6.92877e-15 -9.1156 9.26786)
(-9.69956e-15 -11.0667 7.91579)
(-1.04346e-14 -5.657 -13.1557)
(-1.65104e-14 -6.28745 -14.291)
(1.84687e-15 14.3371 53.0559)
(7.02558e-15 -8.5324 62.9344)
(7.77868e-15 -21.2603 46.8876)
(5.81878e-15 -29.7308 35.6012)
(4.2869e-15 -36.3249 26.5843)
(4.1407e-15 -40.7199 23.1411)
(5.06182e-15 -44.2406 22.8801)
(5.16974e-15 -48.0005 25.4171)
(2.58773e-15 -52.1913 29.8521)
(-2.11568e-15 -48.3431 36.9808)
(-5.13343e-15 -9.77345 36.7778)
(-4.02226e-15 35.916 10.6873)
(-3.03627e-15 43.6206 10.6328)
(-4.86552e-15 30.3653 15.6116)
(-7.21695e-15 14.8203 10.9527)
(-8.73102e-15 -2.99835 -4.1933)
(-9.47607e-15 -3.36729 -16.9132)
(-1.01007e-14 6.10141 -20.0494)
(-1.16411e-14 6.12449 -33.8657)
(1.14142e-15 10.5191 54.8661)
(4.22182e-15 -7.80937 71.1599)
(5.81584e-15 -16.5458 59.7988)
(5.53098e-15 -25.3925 49.0123)
(5.14123e-15 -33.3725 37.4555)
(5.01434e-15 -39.5142 30.2847)
(5.09913e-15 -44.349 27.1637)
(4.27813e-15 -49.0426 28.4468)
(1.46666e-15 -54.0391 33.5828)
(-2.4416e-15 -49.1412 40.7768)
(-4.46878e-15 -2.26087 29.7085)
(-2.60936e-15 40.452 -3.33675)
(-2.82124e-15 41.1087 13.1713)
(-4.7225e-15 30.7952 11.5495)
(-7.03922e-15 18.8417 6.53472)
(-9.16533e-15 2.97573 -5.8448)
(-1.0186e-14 -1.73146 -19.6003)
(-1.07724e-14 5.89212 -20.1796)
(-1.13941e-14 4.15119 -29.0513)
(2.93108e-16 5.66153 53.0044)
(1.59246e-15 -8.99725 73.7453)
(3.47676e-15 -12.6704 71.7497)
(3.93105e-15 -20.2924 66.5875)
(4.29484e-15 -28.7057 56.5368)
(4.30889e-15 -36.455 47.6856)
(3.78801e-15 -43.509 42.3323)
(2.38732e-15 -50.8079 42.9317)
(-1.77359e-16 -57.1621 48.4026)
(-3.043e-15 -47.2259 49.4009)
(-3.69063e-15 9.23665 18.0851)
(-1.7777e-15 42.4752 -1.0757)
(-2.94074e-15 38.2278 12.1706)
(-4.56947e-15 32.643 6.91414)
(-6.81216e-15 21.8853 2.7657)
(-9.1562e-15 7.78764 -6.34932)
(-1.05587e-14 1.01473 -19.4654)
(-1.1138e-14 8.21558 -19.5833)
(-1.225e-14 6.87654 -22.3652)
(-5.65089e-16 0.272729 48.005)
(-6.76016e-16 -14.3626 69.2714)
(1.65337e-15 -14.8019 76.3177)
(2.34945e-15 -19.7169 78.7646)
(2.81163e-15 -26.2727 74.7291)
(2.82882e-15 -34.002 69.4376)
(2.08545e-15 -42.3987 65.7687)
(5.71388e-16 -51.2105 66.617)
(-1.58209e-15 -55.8083 68.0536)
(-3.41553e-15 -37.0528 53.1945)
(-2.54837e-15 18.3513 3.48875)
(-1.80425e-15 42.1943 6.91263)
(-2.90117e-15 38.1049 7.82501)
(-4.4037e-15 34.3532 3.47995)
(-6.625e-15 24.3474 -0.662388)
(-9.14205e-15 12.0953 -7.93916)
(-1.08776e-14 3.55019 -18.6363)
(-1.12086e-14 7.43091 -16.7575)
(-1.22347e-14 4.41793 -16.989)
(-1.05016e-15 -4.57173 39.9114)
(-2.5121e-15 -18.8933 59.7159)
(5.75338e-16 -15.8539 74.6591)
(1.71628e-15 -18.5935 83.9557)
(2.21621e-15 -24.4745 86.242)
(2.34338e-15 -32.5938 86.8254)
(1.60919e-15 -42.5368 87.3526)
(1.15234e-17 -52.6184 87.3877)
(-1.97441e-15 -53.0132 78.5266)
(-3.06428e-15 -22.9375 44.4025)
(-1.68749e-15 26.0647 1.10233)
(-1.86503e-15 41.0786 8.95855)
(-2.8539e-15 39.5045 5.10638)
(-4.34922e-15 35.6384 1.63415)
(-6.61996e-15 26.2253 -2.6811)
(-9.33974e-15 14.8848 -8.09083)
(-1.13074e-14 3.92017 -14.2459)
(-1.11696e-14 6.99538 -12.5285)
(-1.15687e-14 4.56248 -13.0717)
(-4.32869e-16 -8.68488 28.5249)
(-5.056e-15 -28.545 40.0042)
(-2.66613e-15 -26.3047 56.4705)
(-3.6453e-16 -25.7324 71.4281)
(9.67658e-16 -28.4498 79.6778)
(1.75916e-15 -35.0294 85.0223)
(1.78195e-15 -42.6121 88.168)
(6.9159e-16 -46.3864 85.6005)
(-1.07095e-15 -35.7578 68.3036)
(-2.12945e-15 -1.30154 28.7859)
(-1.60345e-15 31.6086 8.56281)
(-1.85108e-15 41.8659 7.48682)
(-2.82682e-15 41.5091 4.00574)
(-4.33804e-15 37.9619 0.484942)
(-6.67228e-15 29.0139 -3.31867)
(-9.56494e-15 17.6501 -6.61943)
(-1.16617e-14 5.10254 -10.0931)
(-1.1024e-14 7.54865 -10.1792)
(-1.11919e-14 4.1802 -11.3326)
(-3.5462e-16 124.396 213.423)
(1.59603e-14 182.15 296.543)
(1.9031e-14 183.171 297.195)
(1.97895e-14 177.511 280.502)
(2.1013e-14 168.505 263.31)
(2.11856e-14 160.498 244.845)
(2.15587e-14 150.217 226.501)
(2.44784e-14 139.586 207.303)
(2.91822e-14 127.805 186.851)
(3.67959e-14 115.425 166.499)
(4.42758e-14 102.582 146.329)
(5.10079e-14 89.2044 126.266)
(5.73617e-14 75.2381 106.283)
(6.28576e-14 60.6485 86.2137)
(6.97564e-14 45.3019 66.2389)
(7.61332e-14 29.956 46.718)
(7.17495e-14 14.3036 28.0203)
(4.64897e-14 3.14229 10.4945)
(4.7663e-15 -9.36009 -2.18834)
(-4.09889e-14 -7.58431 -14.6992)
(1.04187e-16 138.511 243.612)
(6.70172e-15 158.486 272.454)
(6.21593e-15 141.963 256.191)
(7.69526e-15 131.496 240.829)
(9.42546e-15 119.479 227.752)
(1.03932e-14 108.604 213.778)
(1.44393e-14 95.5601 197.111)
(2.29266e-14 81.6227 177.986)
(3.57126e-14 66.6756 157.482)
(5.37493e-14 51.2396 135.88)
(7.21e-14 35.3476 113.791)
(8.9612e-14 19.3731 91.4906)
(1.02149e-13 3.2191 68.6665)
(1.17426e-13 -12.9472 44.9519)
(1.46659e-13 -27.1207 22.8784)
(1.60145e-13 -34.1188 9.70801)
(1.22156e-13 -27.6362 14.3136)
(6.41625e-14 -5.47861 38.5573)
(3.22573e-14 22.8795 67.0981)
(1.86857e-14 28.0777 61.9516)
(-3.83078e-16 118.146 209.69)
(-9.17733e-15 132.926 241.119)
(-6.20648e-15 127.372 235.5)
(-6.10542e-15 117.137 222.188)
(-7.57696e-15 105.138 205.56)
(-6.89644e-15 92.6472 189.758)
(-3.60911e-15 79.8491 173.181)
(-2.35321e-16 66.1501 154.893)
(6.03999e-15 51.8369 134.862)
(1.57701e-14 37.3136 113.84)
(2.68695e-14 23.3952 93.0902)
(3.03049e-14 11.1795 74.4011)
(1.71015e-14 1.97584 59.7069)
(-1.0486e-14 -2.06999 51.8627)
(-3.60851e-14 2.88826 56.2342)
(-4.32905e-14 20.5406 78.455)
(-3.12815e-14 49.2183 116.563)
(-1.102e-14 78.9895 156.144)
(4.39832e-15 96.8971 172.658)
(6.95724e-15 71.3959 134.304)
(-9.74797e-17 104.892 180.021)
(-5.91714e-17 131.902 232.789)
(-3.96245e-17 131.244 226.343)
(-1.38267e-16 121.298 210.883)
(-8.52057e-17 110.798 190.338)
(-6.64786e-15 99.5457 171.496)
(-5.17939e-15 90.5293 155.404)
(-5.72265e-15 82.0721 140.564)
(-4.34913e-15 74.1784 125.511)
(-5.82495e-15 66.6602 110.223)
(-4.32204e-15 59.9164 95.1987)
(-3.95751e-15 54.5221 81.7457)
(-5.38123e-15 51.7909 72.4275)
(-9.49331e-15 53.5866 71.1048)
(-1.41348e-14 61.1328 80.1348)
(-1.30489e-14 72.9045 99.012)
(-6.25615e-15 86.4751 122.564)
(3.0472e-15 94.3435 143.2)
(6.44423e-15 92.5184 145.594)
(1.24926e-16 67.2464 116.778)
(4.16834e-17 105.88 180.589)
(1.85354e-16 140.694 244.291)
(1.4492e-16 141.742 240.016)
(1.99415e-16 133.087 224.675)
(2.41481e-16 123.496 205.03)
(3.82277e-16 113.501 185.884)
(1.50109e-16 105.811 170.253)
(-5.91051e-17 99.8761 157.578)
(-4.83854e-16 94.9068 146.308)
(-1.07732e-15 90.4341 135.402)
(-1.80695e-15 86.1843 124.371)
(-2.67785e-15 81.9551 112.902)
(-4.07336e-15 77.6623 101.02)
(-6.42923e-15 73.5253 89.951)
(-9.24829e-15 70.4355 82.15)
(-1.02883e-14 69.1327 80.4216)
(-7.36259e-15 69.5177 85.1432)
(-1.82653e-15 69.316 92.3698)
(1.32072e-15 63.1292 92.6669)
(-9.29938e-16 42.0601 65.2799)
(-1.01218e-17 108.522 183.841)
(-4.69779e-17 149.918 257.187)
(-4.16806e-17 148.978 250.411)
(-4.904e-17 138.903 232.101)
(-5.7157e-17 128.078 211.746)
(-4.17319e-17 118.207 192.971)
(2.21774e-17 110.322 177.748)
(1.07666e-16 103.886 164.632)
(2.13933e-16 97.9003 152.703)
(3.11871e-16 92.2175 141.357)
(3.82227e-16 86.6878 130.557)
(5.17226e-16 81.3591 120.213)
(9.00508e-16 76.1156 110.13)
(1.63146e-15 70.8915 99.9565)
(2.557e-15 65.3867 89.6823)
(3.28009e-15 59.918 79.7083)
(3.36724e-15 53.8355 71.1536)
(2.611e-15 47.7521 63.0886)
(1.16466e-15 36.3603 52.3834)
(2.92153e-16 15.9554 17.3436)
(2.18836e-18 116.511 196.882)
(9.79005e-18 160.394 271.787)
(9.50194e-18 154.776 259.385)
(9.13546e-18 143.365 237.819)
(5.52186e-18 131.828 217.409)
(-4.79295e-18 122.885 199.432)
(-2.1558e-17 115.387 185.144)
(-4.33452e-17 109.157 171.861)
(-6.50275e-17 102.834 159.13)
(-7.34211e-17 96.538 146.37)
(-6.34231e-17 90.0177 133.762)
(-6.53607e-17 83.3559 121.352)
(-1.33033e-16 76.4851 109.298)
(-2.87203e-16 69.5371 97.5525)
(-4.83321e-16 62.1654 86.0327)
(-6.45939e-16 54.595 74.0706)
(-7.30529e-16 45.4368 61.4294)
(-7.725e-16 35.7263 46.1993)
(-8.09222e-16 18.7585 25.5024)
(-8.26568e-16 1.51685 -9.65215)
(-4.10254e-19 131.082 222.377)
(-1.75565e-18 171.513 286.11)
(-1.65605e-18 159.293 267.178)
(-1.17e-18 148.586 243.977)
(7.85002e-19 137.436 225.828)
(5.19378e-18 130.851 209.597)
(9.08357e-18 124.119 196.62)
(1.26541e-17 118.874 183.33)
(1.5249e-17 112.736 170.006)
(1.3762e-17 106.238 155.64)
(7.01182e-18 98.8028 140.62)
(1.48794e-18 90.6734 125.049)
(8.62707e-18 81.8348 109.298)
(3.29037e-17 72.5172 93.4868)
(6.48315e-17 62.4199 77.8011)
(8.69527e-17 51.8756 61.7127)
(8.61239e-17 39.2707 44.9463)
(5.03824e-17 26.1733 24.8617)
(5.59831e-18 3.63058 -0.845267)
(-5.86954e-16 -11.7156 -38.4365)
(6.23627e-20 149.221 259.232)
(2.2889e-19 177.854 294.71)
(1.47848e-19 158.86 272.677)
(3.24668e-21 151.682 251.521)
(-4.86486e-19 140.998 238.083)
(-1.67094e-18 137.53 224.699)
(-2.35753e-18 131.322 214.51)
(-2.5946e-18 127.508 202.093)
(-2.41731e-18 120.785 188.344)
(-1.29671e-18 113.083 171.335)
(9.26593e-19 103.111 152.62)
(2.99098e-18 92.18 132.708)
(2.74e-18 80.1947 112.455)
(-9.23257e-19 67.4913 91.7293)
(-6.67136e-18 53.525 70.549)
(-9.99425e-18 38.6416 48.3918)
(-2.39504e-18 21.6553 25.8148)
(1.72013e-17 5.60767 -0.0914153)
(1.11891e-16 -21.0816 -27.7309)
(-3.69581e-16 -27.1323 -68.3194)
(-6.87628e-21 157.606 282.419)
(-7.51846e-21 169.036 284.181)
(2.43154e-20 148.307 267.385)
(5.71908e-20 144.364 250.537)
(1.76438e-19 132.754 241.542)
(4.42197e-19 130.112 230.945)
(4.89343e-19 122.462 223.836)
(4.01994e-19 117.58 212.157)
(2.13106e-19 106.73 196.693)
(-1.99739e-19 94.3805 174.842)
(-8.15836e-19 78.7256 150.832)
(-1.11789e-18 63.2135 125.843)
(-8.4392e-19 46.8612 100.915)
(-2.24969e-18 30.0442 74.8189)
(-7.61987e-18 12.0924 47.2624)
(-5.33045e-18 -5.98914 19.2644)
(3.28073e-17 -21.2144 -5.21031)
(9.10701e-17 -33.3601 -27.7815)
(6.34392e-17 -44.6843 -49.2342)
(-1.06617e-16 -27.4211 -43.3082)
(-1.10811e-21 148.254 269.595)
(-1.1649e-20 153.735 263.417)
(-2.27425e-20 135.094 249.696)
(-3.32946e-20 129.985 233.747)
(-5.52499e-20 117.682 225.312)
(-6.84599e-20 112.677 215.069)
(-2.27796e-20 103.069 207.792)
(4.39834e-20 94.5654 195.499)
(1.63923e-19 80.2667 178.151)
(3.89186e-19 64.1455 154.518)
(7.20254e-19 46.0102 129.275)
(1.05167e-18 28.7151 104.165)
(4.97116e-20 11.5658 79.824)
(-5.38689e-18 -4.669 55.958)
(-1.12642e-17 -18.7924 34.0817)
(4.4912e-18 -27.7268 17.2554)
(5.70008e-17 -26.7452 12.063)
(1.0893e-16 -10.3638 25.872)
(9.73626e-17 18.3334 55.6022)
(2.34954e-17 30.2166 67.8293)
(1.20594e-21 135.769 246.837)
(6.4767e-21 148.796 251.849)
(1.04847e-20 126.888 232.68)
(1.25007e-20 122.567 212.878)
(8.19823e-21 108.158 203.103)
(-1.08961e-20 103.041 188.657)
(-4.63996e-20 91.287 179.039)
(-9.49709e-20 82.9263 165.255)
(-1.42674e-19 69.5846 149.525)
(-1.21864e-19 56.2188 128.61)
(4.03683e-20 41.3244 105.998)
(2.08013e-19 27.939 83.129)
(-2.38491e-19 16.4398 62.7794)
(-2.03687e-18 9.58934 48.5682)
(-4.34979e-18 10.8931 46.9074)
(-4.52081e-18 23.274 62.3706)
(-2.87661e-18 44.444 91.3537)
(-4.94664e-18 66.0981 121.321)
(-1.15473e-17 79.3734 134.041)
(-9.85767e-18 58.3089 107.676)
(-4.93043e-22 133.71 243.077)
(-2.31906e-21 154.96 254.297)
(-3.50216e-21 129.454 233.058)
(-3.80033e-21 128.702 209.171)
(-8.64811e-22 113.028 199.266)
(7.50144e-21 110.601 181.024)
(1.78665e-20 98.5015 169.358)
(2.74343e-20 93.2146 154.084)
(3.35694e-20 84.1195 142.044)
(3.60614e-20 78.116 128.86)
(4.25875e-20 71.465 116.622)
(4.62197e-20 66.5438 104.429)
(2.05681e-20 62.5817 93.3072)
(-3.22192e-20 60.2438 83.9185)
(-6.82291e-20 59.9318 77.8288)
(-4.71211e-21 61.4834 77.2293)
(1.52212e-19 64.6314 81.9679)
(1.08532e-19 65.5229 89.0482)
(-8.99791e-20 60.799 88.6693)
(7.33492e-19 40.859 66.8499)
(1.68472e-22 137.602 251.241)
(7.4269e-22 161.609 261.72)
(1.08148e-21 133.657 240.857)
(1.1383e-21 134.88 216.966)
(1.00462e-22 119.454 207.317)
(-2.66374e-21 117.826 189.975)
(-5.60161e-21 107.573 178.39)
(-7.3858e-21 102.83 163.892)
(-7.02059e-21 95.6453 151.605)
(-5.62485e-21 90.1944 139.267)
(-9.00761e-21 84.7425 128.039)
(-1.89984e-20 79.8624 117.385)
(-2.14359e-20 75.1609 107.139)
(4.69408e-21 70.4892 97.0439)
(6.66663e-20 65.5213 87.0404)
(1.50681e-19 60.3181 77.3169)
(2.34691e-19 54.0422 68.3047)
(3.43769e-19 47.0237 59.1386)
(6.24627e-19 34.6411 46.8425)
(1.09326e-18 15.339 16.7746)
(-5.14067e-23 143.005 264.535)
(-2.20778e-22 165.292 263.522)
(-3.11128e-22 134.979 246.973)
(-3.2542e-22 139.95 223.458)
(-3.40634e-23 122.484 214.701)
(7.46204e-22 122.308 196.984)
(1.52813e-21 111.341 186.022)
(1.92503e-21 107.244 171.692)
(1.78455e-21 99.9031 159.719)
(1.51716e-21 94.3833 146.978)
(2.42022e-21 88.3301 134.887)
(4.78683e-21 82.6357 122.844)
(5.24469e-21 76.7801 110.994)
(-1.70006e-21 70.7628 98.9371)
(-1.84927e-20 63.8481 86.4594)
(-4.19345e-20 56.0517 72.7243)
(-6.65273e-20 45.4985 57.3522)
(-9.53085e-20 33.6137 38.4082)
(-1.95766e-19 13.6854 14.6924)
(-1.06538e-19 -2.16399 -20.6296)
(1.48945e-23 147.291 279.258)
(6.11856e-23 166.77 262.488)
(8.16667e-23 135.722 253.556)
(8.46169e-23 144.262 230.52)
(1.17624e-23 124.779 222.998)
(-1.84059e-22 126.214 205.387)
(-3.62827e-22 114.513 195.302)
(-3.9215e-22 111.397 181.415)
(-2.22673e-22 104.099 170.347)
(4.40429e-24 99.4778 158.428)
(-6.90513e-23 94.0762 147.3)
(-5.70962e-22 89.1181 135.64)
(-9.41862e-22 83.399 123.101)
(-3.47657e-22 76.494 108.46)
(1.3893e-21 66.9189 90.8499)
(3.44382e-21 54.3439 69.115)
(4.09786e-21 37.8229 45.5862)
(4.0382e-22 21.1796 19.6135)
(-1.15886e-21 -6.09137 -10.8668)
(-3.19469e-19 -18.5935 -49.856)
(-4.11473e-24 145.128 282.788)
(-1.63147e-23 163.478 256.929)
(-2.06431e-23 132.252 253.629)
(-2.15893e-23 141.257 231.652)
(-8.65035e-24 121.699 224.826)
(2.99834e-23 122.422 208.77)
(7.87368e-23 111.143 199.542)
(1.66251e-22 107.863 187.194)
(3.40642e-22 100.81 177.505)
(5.84294e-22 96.5694 167.246)
(7.07986e-22 91.4369 157.726)
(2.34568e-22 86.5449 147.13)
(-1.49075e-21 79.9819 134.172)
(-4.61346e-21 70.4 116.006)
(-7.70376e-21 55.0293 89.4064)
(-8.67385e-21 33.289 53.2458)
(-8.97848e-21 9.458 18.5641)
(-1.25493e-22 -4.45203 -6.94682)
(-2.28281e-20 -26.9454 -31.3099)
(-2.92136e-19 -28.5052 -64.8757)
(1.26137e-24 133.724 273.236)
(4.50724e-24 157.373 248.271)
(5.73347e-24 122.023 246.17)
(2.69551e-24 128.849 226.583)
(-1.42747e-23 110.938 219.433)
(-4.01923e-23 107.982 206.026)
(-3.25383e-23 98.1338 196.728)
(6.42068e-23 92.5971 186.138)
(2.62971e-22 85.8296 176.968)
(4.56185e-22 80.409 167.887)
(3.73354e-22 74.7843 158.975)
(-3.84189e-22 68.8013 148.704)
(-2.13549e-21 60.8688 134.871)
(-4.33616e-21 48.9312 113.474)
(-4.95019e-21 30.2467 79.5649)
(-4.84269e-21 6.05524 34.2172)
(-1.5883e-20 -13.6784 -6.13683)
(-4.95384e-20 -23.5758 -27.4468)
(-9.97987e-20 -30.737 -40.0762)
(-1.59124e-19 -23.7252 -39.1492)
(-3.55214e-25 108.396 253.468)
(-9.55224e-25 147.218 224.758)
(-7.35592e-25 107.091 227.776)
(-1.97398e-24 112.639 212.939)
(-8.79197e-24 96.5024 207.456)
(-2.07956e-23 91.3654 198.133)
(-1.84354e-23 82.1229 190.917)
(3.71534e-23 75.4877 183.109)
(1.69509e-22 68.4825 175.882)
(3.34356e-22 62.3478 168.716)
(3.99855e-22 56.3984 161.62)
(2.14179e-22 50.5738 153.918)
(-2.73252e-22 44.3813 144.69)
(-1.02676e-21 37.621 132.943)
(-2.19814e-21 30.6159 118.083)
(-4.3387e-21 24.2983 99.9664)
(-8.3039e-21 19.095 79.125)
(-1.50022e-20 14.0884 55.4374)
(-2.40525e-20 6.64185 25.5833)
(-2.56035e-20 -3.32887 -4.10551)
(1.19629e-25 35.5759 157.459)
(2.60165e-25 78.2945 129.991)
(2.00187e-25 52.6615 138.075)
(-5.24626e-25 52.6638 133.939)
(-3.23442e-24 44.2721 133.867)
(-9.22646e-24 39.9859 132.166)
(-1.61382e-23 35.0427 130.828)
(-1.26226e-23 31.1816 129.132)
(2.31864e-23 27.7253 127.34)
(1.15745e-22 24.9468 125.44)
(2.76192e-22 22.8084 123.591)
(4.85206e-22 21.4165 121.904)
(6.85912e-22 20.7976 120.385)
(8.09581e-22 20.937 118.819)
(8.47857e-22 21.8849 116.714)
(9.07532e-22 23.4981 113.646)
(1.11755e-21 25.3533 109.501)
(1.38902e-21 29.5816 102.209)
(1.31654e-21 32.6239 88.9408)
(5.66215e-22 7.29352 65.7859)
(-1.75028e-26 -35.5694 157.42)
(7.63833e-26 -78.3067 129.941)
(1.95284e-25 -52.6738 138.022)
(1.90232e-25 -52.6853 133.879)
(-6.05095e-25 -44.3002 133.801)
(-3.55186e-24 -40.0221 132.092)
(-8.78019e-24 -35.0874 130.746)
(-1.02338e-23 -31.236 129.042)
(8.64379e-24 -27.7919 127.244)
(7.04384e-23 -25.0289 125.345)
(1.88777e-22 -22.9084 123.498)
(3.57801e-22 -21.5323 121.807)
(5.64715e-22 -20.9201 120.263)
(8.10883e-22 -21.0477 118.641)
(1.09241e-21 -21.9611 116.457)
(1.33516e-21 -23.5263 113.32)
(1.37831e-21 -25.3301 109.158)
(1.09428e-21 -29.5078 101.926)
(5.69154e-22 -32.5243 88.7515)
(1.00296e-22 -7.24073 65.6548)
(1.68603e-25 -108.348 253.348)
(1.40422e-25 -147.193 224.602)
(-1.95845e-25 -107.058 227.628)
(-2.15317e-24 -112.615 212.779)
(-7.76344e-24 -96.4758 207.29)
(-1.58561e-23 -91.3424 197.955)
(-1.43812e-23 -82.0993 190.727)
(2.03137e-23 -75.4654 182.906)
(1.05432e-22 -68.4599 175.668)
(2.20178e-22 -62.3235 168.485)
(2.86307e-22 -56.3662 161.362)
(1.67131e-22 -50.5336 153.622)
(-3.42566e-22 -44.3627 144.388)
(-1.5046e-21 -37.7188 132.762)
(-3.48218e-21 -30.9898 118.215)
(-6.03188e-21 -25.06 100.584)
(-8.23815e-21 -20.1476 80.2928)
(-8.87527e-21 -15.1871 56.8604)
(-8.01866e-21 -7.58795 26.7171)
(-6.05064e-21 2.93114 -3.87189)
(-6.83303e-25 -133.634 273.072)
(2.44028e-25 -157.264 248.141)
(9.9597e-25 -121.914 246.023)
(-7.48124e-26 -128.709 226.454)
(-6.01958e-24 -110.787 219.307)
(-1.4629e-23 -107.8 205.912)
(-5.07638e-24 -97.929 196.625)
(6.14771e-23 -92.3591 186.05)
(2.01415e-22 -85.562 176.898)
(3.37018e-22 -80.0875 167.824)
(2.60816e-22 -74.3796 158.875)
(-2.97654e-22 -68.256 148.49)
(-1.625e-21 -60.1009 134.386)
(-4.43174e-21 -47.8061 112.451)
(-1.04853e-20 -28.8635 78.0529)
(-2.02964e-20 -5.30186 33.4872)
(-2.74746e-20 13.0856 -4.86684)
(-2.6641e-20 22.4754 -25.8463)
(-3.22711e-20 29.4065 -38.7689)
(-5.67507e-20 22.7317 -36.7463)
(3.81512e-24 -145.147 282.795)
(7.33053e-25 -163.352 257.076)
(-2.42571e-24 -132.271 253.727)
(-6.6004e-24 -141.095 231.877)
(-1.51238e-23 -121.652 225.028)
(-2.91016e-23 -122.241 209.073)
(-3.36929e-23 -111.005 199.861)
(1.26922e-23 -107.66 187.601)
(1.50659e-22 -100.597 177.985)
(3.28084e-22 -96.3404 167.825)
(3.05782e-22 -91.1438 158.369)
(-2.52269e-22 -86.1491 147.704)