/*--------------------------------*- C++ -*----------------------------------*\
| =========                 |                                                 |
| \\      /  F ield         | OpenFOAM: The Open Source CFD Toolbox           |
|  \\    /   O peration     | Version:  4.1                                   |
|   \\  /    A nd           | Web:      www.OpenFOAM.org                      |
|    \\/     M anipulation  |                                                 |
\*---------------------------------------------------------------------------*/
FoamFile
{
    version     2.0;
    format      ascii;
    class       volScalarField;
    location    "11";
    object      p;
}
// * * * * * * * * * * * * * * * * * * * * * * * * * * * * * * * * * * * * * //

dimensions      [0 2 -2 0 0 0 0];

internalField   nonuniform List<scalar> 
1680
(
-5.5193
-3.6651
-1.53947
-2.34867
-3.19065
-1.83119
-2.50349
-3.36429
-1.84326
-2.86802
-3.37688
-3.08945
-3.81739
-2.29789
-3.70461
-4.78518
-3.88978
-6.83911
-0.8362
-10.4375
-1.46827
-30.133
0.174218
-1.73799
-0.641402
0.823703
1.99782
3.05915
4.93546
5.41923
8.89219
-17.8896
-0.504983
-0.617549
0.550474
1.12982
2.47689
2.17874
6.65475
1.95836
-44.191
-17.84
-14.7417
3.90834
-1.19468
-1.03415
2.45032
11.0977
8.27759
8.63805
10.051
10.0719
10.1015
10.1174
9.96343
10.0094
10.0383
10.0482
10.0011
9.91263
-5.38461
26.6841
-19.0649
0.743464
-24.4715
-10.6351
-3.70721
7.03725
-0.133051
-9.36737
-16.9176
-4.34623
-0.242544
-1.3796
-0.222625
-2.88094
-12.4204
3.98646
14.0235
-16.1752
27.5226
-24.3351
0.054301
-27.584
-12.8213
-5.80735
3.49872
-1.08413
-8.19216
-15.7357
-4.08425
-0.434767
-1.45616
-0.264716
-2.21485
-6.30514
5.43642
10.5503
-28.6062
28.5897
-29.8681
-0.425459
-30.4309
-14.8577
-7.88973
-0.276361
-2.06373
-6.89506
-13.9031
-3.75294
-0.56187
-1.47278
-0.308117
-1.54704
-2.76651
3.77543
11.4978
-42.1051
29.8917
-35.6037
-0.706412
-33.0339
-16.7293
-9.84899
-3.39805
-2.85945
-5.41433
-11.4587
-3.35506
-0.644995
-1.49644
-0.384045
-1.12412
-0.930882
0.984314
17.7897
-56.174
31.3645
-41.4625
-0.79569
-35.2979
-18.3728
-11.5394
-5.23371
-3.24812
-3.94861
-8.76131
-2.93946
-0.713084
-1.50737
-0.449437
-1.12419
-0.219413
-0.886258
15.5886
-70.3988
32.8632
-47.3391
-0.688921
-37.0375
-19.6823
-12.8298
-5.84607
-3.16911
-2.70441
-6.36703
-2.59046
-0.784036
-1.51401
-0.52007
-1.13471
-0.430218
-0.86388
0.649483
-84.8886
34.2315
-53.1336
-0.374757
-38.1433
-20.5719
-13.6825
-5.81702
-2.82531
-1.73756
-4.57781
-2.32768
-0.854489
-1.51616
-0.590261
-1.1612
-0.483589
-1.05425
-2.43103
-99.6126
35.2698
-58.5955
0.15764
-38.688
-21.0254
-14.1649
-5.51217
-2.4028
-1.03499
-3.38854
-2.11362
-0.916398
-1.5145
-0.662357
-1.18132
-0.585303
-1.23838
-1.98325
-115.909
36.0501
-63.6284
0.898548
-38.8378
-21.0748
-14.3891
-5.12789
-1.99222
-0.564562
-2.7077
-1.94348
-0.970143
-1.50929
-0.733067
-1.20311
-0.695769
-1.21229
-1.88728
-132.786
36.6085
-67.8058
1.82606
-38.5753
-20.7299
-14.4152
-4.76948
-1.65193
-0.329357
-2.39044
-1.81217
-1.01908
-1.50074
-0.80208
-1.22475
-0.788207
-1.3505
-1.84993
-155.556
37.4775
-71.3752
2.90984
-37.8458
-19.9855
-14.2285
-4.42508
-1.4371
-0.247308
-2.14354
-1.70367
-1.06522
-1.49029
-0.868024
-1.24502
-0.878093
-1.37176
-1.83729
-176.114
38.3342
-73.1008
4.07263
-36.4877
-18.9156
-13.8274
-4.04806
-1.37728
-0.238412
-1.85832
-1.6198
-1.11293
-1.48331
-0.934983
-1.26854
-0.959149
-1.42938
-1.8024
-218.734
40.7956
-75.5477
5.34928
-34.8266
-17.624
-13.1886
-3.64027
-1.3807
-0.280765
-1.7338
-1.56023
-1.15835
-1.47702
-0.998988
-1.29138
-1.03408
-1.47884
-1.78755
-233.157
41.4179
-72.8828
6.46626
-32.1504
-16.0548
-12.1419
-3.22442
-1.43357
-0.367441
-1.66727
-1.49696
-1.18159
-1.45149
-1.03926
-1.29342
-1.08183
-1.48762
-1.76077
-348.415
47.9598
-77.9703
8.07136
-29.2718
-14.1396
-11.0502
-2.93699
-1.54525
-0.477683
-1.64836
-1.4743
-1.22501
-1.45031
-1.09817
-1.31579
-1.1421
-1.51436
-1.73781
-267.567
41.6232
-62.2493
8.4834
-23.2091
-12.0188
-10.8074
-3.08598
-1.88106
-0.669831
-1.73551
-1.56382
-1.36076
-1.54589
-1.24913
-1.43033
-1.28817
-1.6537
-1.83936
-734.267
63.1853
-87.2506
11.75
-18.9406
-8.75051
-9.02841
-2.75783
-1.90122
-0.731485
-1.60329
-1.41837
-1.26652
-1.41098
-1.17128
-1.32081
-1.2128
-1.53047
-1.68101
59.4428
15.1304
-20.9506
7.45612
-8.31141
-2.72482
-4.55981
-1.48561
-1.22681
-0.498778
-1.17238
-0.967116
-0.869824
-0.977109
-0.788156
-0.912887
-0.832251
-1.0542
-1.18253
-2393.03
98.4452
-136.927
18.7415
-10.6084
-4.94548
-12.6283
-4.52399
-3.71965
-1.55488
-2.55827
-2.2847
-2.12382
-2.22995
-2.03126
-2.13618
-2.0498
-2.42701
-2.54072
3736.36
-146.836
133.488
-17.4759
3.13362
-14.7143
-23.2036
-8.51549
-6.74815
-2.85807
-4.04107
-3.74234
-3.5161
-3.61159
-3.42172
-3.49155
-3.41815
-3.9946
-4.13353
100.862
100.179
99.803
98.8943
97.9777
97.0005
96.0081
94.9833
93.9566
92.939
91.8969
90.947
89.8519
88.6357
87.5385
86.4654
85.5235
84.506
83.8659
82.5983
80.697
81.1645
81.3416
81.5634
81.7244
81.8256
81.8997
81.9165
81.9112
81.8562
81.7836
81.6758
81.5227
81.3431
81.157
80.9407
80.7469
80.5172
80.3193
80.0518
89.4361
89.1492
89.0091
88.8064
88.6489
88.4612
88.2917
88.1052
87.9266
87.7353
87.5497
87.3497
87.1612
86.9515
86.758
86.5382
86.3501
86.1169
85.9514
85.6508
86.4875
86.5045
86.5168
86.5084
86.5157
86.498
86.4909
86.4653
86.4449
86.4103
86.3786
86.3343
86.2941
86.2392
86.1946
86.128
86.0836
86.0056
85.9627
85.8601
88.5299
88.4239
88.389
88.3097
88.2626
88.1929
88.1402
88.0749
88.0193
87.9555
87.8986
87.8342
87.7776
87.7106
87.6565
87.5842
87.5366
87.4549
87.4198
87.314
88.5746
88.5223
88.5116
88.4677
88.4484
88.4089
88.3836
88.3463
88.3172
88.2804
88.2491
88.2113
88.1797
88.139
88.1095
88.0636
88.0397
87.985
87.9717
87.9017
89.4335
89.3628
89.3438
89.2892
89.2609
89.2135
89.1806
89.1372
89.102
89.0607
89.0248
88.984
88.9489
88.9067
88.8748
88.8285
88.803
88.7487
88.7351
88.666
89.9388
89.8789
89.864
89.8168
89.7935
89.7524
89.7245
89.6869
89.6566
89.6209
89.5895
89.5542
89.5234
89.4867
89.4586
89.418
89.3959
89.3474
89.3365
89.2744
90.5594
90.4985
90.4823
90.4349
90.4106
90.3694
90.341
90.3035
90.2727
90.2374
90.2057
90.1712
90.14
90.1045
90.0761
90.037
90.0145
89.9678
89.9563
89.896
91.1021
91.0452
91.0299
90.9852
90.9624
90.9236
90.8967
90.8614
90.8322
90.7991
90.7687
90.7365
90.7064
90.6734
90.6458
90.6094
90.5874
90.5436
90.5323
90.4751
91.6453
91.5903
91.5752
91.5321
91.5097
91.4722
91.4459
91.412
91.3834
91.3516
91.3219
91.2912
91.2616
91.2304
91.2029
91.1687
91.1466
91.1051
91.0936
91.0387
92.1571
92.105
92.0903
92.0492
92.0277
91.992
91.9668
91.9344
91.907
91.8768
91.8481
91.8192
91.7902
91.7612
91.734
91.7023
91.6801
91.6414
91.6296
91.5774
92.6507
92.6009
92.5864
92.5472
92.5263
92.4922
92.4679
92.4369
92.4105
92.3817
92.3539
92.3266
92.2983
92.2713
92.2442
92.2151
92.1926
92.1568
92.1445
92.0951
93.1223
93.0752
93.0609
93.0236
93.0034
92.9707
92.9473
92.9177
92.8922
92.8647
92.8379
92.812
92.7844
92.7593
92.7323
92.7058
92.6827
92.65
92.637
92.5904
93.5729
93.529
93.5152
93.4801
93.4609
93.4299
93.4078
93.3797
93.3554
93.3294
93.3037
93.2791
93.2524
93.2291
93.202
93.1783
93.1542
93.1249
93.1106
93.0671
93.9913
93.9508
93.9374
93.9047
93.8873
93.8583
93.838
93.8123
93.7898
93.766
93.7425
93.72
93.6953
93.6744
93.6483
93.6282
93.6034
93.5784
93.5629
93.5234
94.3858
94.3485
94.3339
94.3016
94.2854
94.2571
94.237
94.2127
94.1906
94.1681
94.1458
94.1244
94.1018
94.0825
94.058
94.0421
94.0165
93.9983
93.9825
93.9483
94.785
94.7577
94.7464
94.714
94.701
94.6755
94.6558
94.6333
94.6111
94.5882
94.5647
94.5409
94.5158
94.4919
94.4637
94.4435
94.4094
94.3943
94.3682
94.3305
95.0589
95.0499
95.0649
95.0443
95.0445
95.0372
95.0325
95.0273
95.0216
95.0153
95.0076
94.9981
94.9861
94.9714
94.9511
94.9301
94.8916
94.8703
94.7984
94.7415
95.0243
94.966
95.0041
95.0148
95.0323
95.05
95.0689
95.0896
95.1123
95.1374
95.1652
95.1963
95.231
95.2698
95.3133
95.3624
95.4151
95.4838
95.525
95.6882
9.91977
9.95276
9.90606
9.92142
9.91536
9.86622
9.51834
8.99552
9.08676
9.42635
4.48906
4.96932
6.39574
-5.42265
-9.59479
-8.22939
-6.92538
-26.1111
-25.549
-48.0499
-13.8342
-10.2013
-14.2166
-15.557
-16.3634
-14.9285
-12.6409
-9.45571
-25.4829
-3.91627
-2.25166
-0.850255
0.276768
0.94543
1.4603
2.17068
3.10518
0.249812
-33.5001
-12.4337
-29.745
-6.648
-30.7158
-20.4282
-27.2564
-20.2383
-12.0372
-23.3795
-17.141
-19.186
-15.4043
-11.937
-17.8541
-15.4637
-16.4411
-20.1941
-20.2849
-20.6135
-20.5671
-20.6372
25.9939
18.2539
21.2265
25.8349
18.0717
18.8957
18.4421
14.3764
9.40135
4.44278
6.05207
16.7877
38.0823
55.5846
50.0253
-2.00941
-70.3426
-65.6265
-30.5164
25.7313
17.5566
21.0442
25.8799
17.7444
18.6838
17.9998
13.9887
9.08259
3.90676
5.53139
16.223
37.1531
54.4732
48.477
-4.40126
-74.866
-70.5721
-31.9882
25.4291
16.4931
20.9059
26.4779
17.7965
17.7869
16.5502
13.3426
8.7857
3.26602
4.6768
15.0207
35.3464
52.1689
45.4592
-8.09832
-80.8561
-79.2508
-35.3529
24.9335
15.3925
20.0227
26.8653
17.6888
16.7087
15.1537
12.749
8.36786
2.21581
3.3292
13.1828
32.6703
48.7166
41.309
-12.822
-87.6925
-87.9416
-39.1395
23.8306
14.5131
18.7896
26.3697
16.9445
15.3797
13.6602
12.1874
7.94006
0.831719
1.51517
10.752
29.1984
44.177
36.332
-18.0549
-94.3158
-96.0662
-43.0604
23.0961
14.1954
17.8327
25.0634
15.5319
13.7613
12.0692
11.6354
7.51639
-0.901457
-0.742427
7.81925
25.0544
38.7123
30.884
-23.3348
-100.168
-102.916
-47.8542
25.6585
14.5442
16.3903
22.9925
13.3606
11.8966
10.4821
11.1777
7.14522
-3.00848
-3.40715
4.54316
20.4437
32.6258
25.2263
-28.2202
-104.567
-107.878
-51.6482
28.734
16.8262
15.3093
20.6885
10.6452
9.93438
9.01206
10.8929
6.81322
-5.51752
-6.40437
1.20098
15.7411
26.3806
19.6866
-32.1696
-107.191
-110.53
-54.3009
30.2817
19.8728
15.0565
18.5257
7.71003
8.09838
7.76919
10.8366
6.43824
-8.36987
-9.52566
-1.73951
11.5372
20.6006
14.6312
-34.6738
-107.711
-110.767
-55.5859
30.4955
22.5691
14.8634
16.4658
4.90201
6.64899
6.86943
10.9721
5.9632
-11.2559
-12.3968
-3.71433
8.40116
15.8097
10.3402
-35.5242
-105.654
-108.638
-54.2187
29.7228
24.5575
14.3622
14.5018
2.63508
5.5715
6.33409
11.0748
5.49253
-13.6054
-14.7444
-4.57384
6.34709
11.9984
6.81427
-34.731
-101.071
-104.681
-52.7277
28.3816
25.7514
13.3707
12.6684
0.935049
4.51841
6.04851
11.0828
5.10315
-14.935
-16.5451
-4.81653
4.88882
8.6471
3.8142
-32.4394
-94.4681
-98.7266
-46.8152
26.7796
26.1431
11.7455
10.9702
-0.633811
3.47684
5.85013
11.1354
4.71801
-15.3718
-17.8195
-4.88522
3.6768
5.32064
1.25079
-29.2075
-89.5408
-92.6299
-45.8541
25.0116
25.8889
9.41692
9.41159
-2.49445
2.50039
5.62467
11.2141
4.3209
-15.3284
-18.572
-4.85879
2.68726
2.07541
-0.721142
-25.1314
-83.3712
-85.5178
-37.248
23.1152
25.3656
6.41468
7.95502
-4.83867
1.36879
5.21513
11.4379
3.94924
-14.9856
-18.8871
-4.85954
2.03577
-0.525522
-1.67038
-20.2347
-71.9373
-73.6516
-28.1481
21.1312
25.0067
2.90625
6.553
-7.60589
-0.0568191
4.48961
11.8473
3.50399
-14.3944
-18.9335
-4.9495
1.6122
-1.81473
-1.235
-15.2678
-58.2554
-56.5178
-8.14257
18.7612
25.0081
-0.933766
5.19906
-10.6711
-1.7664
3.42197
12.1669
2.81435
-13.6032
-18.8287
-4.95152
1.16758
-1.87431
-0.00452326
-10.8651
-44.547
-38.5927
4.49535
15.3465
25.2554
-5.03993
3.90751
-14.0035
-3.762
1.98367
12.0492
2.06624
-12.6439
-18.5635
-4.87599
0.729289
-1.54152
0.847132
-7.5708
-32.87
-21.0947
8.92717
10.3102
25.6212
-9.41957
2.7066
-17.5281
-5.98726
0.257257
11.2705
1.36211
-11.5816
-18.1246
-4.74219
0.366401
-1.39009
0.82481
-5.1864
-24.7503
-7.37793
10.0557
3.43535
26.064
-14.0906
1.63737
-21.0823
-8.32599
-1.66427
9.6728
0.665836
-10.4932
-17.6049
-4.56044
0.039125
-1.34532
0.178782
-3.67507
-18.4871
1.06658
11.6966
720.708
638.201
589.107
533.03
484.172
437.084
393.335
352.046
313.204
276.51
241.774
208.782
177.323
147.319
118.787
90.9634
63.9575
41.4448
16.1591
-18.4745
34.0125
12.0878
20.3535
9.65723
7.16488
0.812051
-3.88415
-8.92179
-13.2948
-17.2223
-20.4563
-22.9129
-24.445
-24.9279
-24.2019
-22.4081
-19.8063
-15.4652
-10.3518
-8.62242
31.1271
24.5972
33.2733
26.7507
29.4087
26.6031
26.0191
24.1127
22.5514
20.7046
18.9256
17.2081
15.7354
14.5969
13.7565
13.1203
12.7446
12.5339
12.1538
11.329
30.343
24.7931
26.6892
19.434
19.2831
14.2899
12.0438
8.48379
5.71131
2.78885
0.184956
-2.2284
-4.30437
-6.07228
-7.6649
-9.22782
-10.814
-12.7117
-15.836
-18.4622
-20.6244
-25.9808
-25.1588
-30.4552
-30.2414
-34.3156
-35.5305
-38.5107
-40.5566
-43.1639
-45.5668
-48.0693
-50.3493
-52.2793
-53.7333
-54.9346
-55.8856
-56.4
-57.306
-55.7767
-42.7118
-45.8163
-43.7519
-46.943
-45.1869
-47.7017
-47.1388
-48.5806
-48.8664
-49.6908
-50.1716
-50.564
-50.5607
-49.97
-48.7729
-47.1364
-45.4298
-43.2853
-41.6643
-38.1127
-23.3938
-23.5242
-20.3589
-21.4666
-18.1667
-18.522
-16.1487
-15.3399
-13.5929
-12.1403
-10.4819
-8.77273
-6.98222
-5.06862
-3.06905
-0.891356
1.30145
3.92193
6.14095
9.54703
5.02181
6.58069
9.52106
9.46893
12.7089
13.2177
15.6403
16.9841
18.8422
20.5133
22.2161
23.9119
25.5925
27.2932
29.0018
30.7916
32.5534
34.4899
36.0127
38.0152
32.1749
33.9512
36.0703
36.1711
38.5888
38.9777
40.7236
41.6368
42.8786
43.9614
45.0587
46.1855
47.3667
48.6238
49.941
51.2921
52.6005
53.9681
54.9959
56.249
47.5691
49.6866
51.3953
52.1107
54.3315
55.2168
57.255
58.6361
60.3676
61.7594
62.9483
63.6332
63.6758
62.9105
61.4401
59.6077
58.35
57.9016
58.3524
58.2785
71.6695
71.9355
72.6249
72.1799
72.9784
72.3379
72.4167
71.3116
70.1291
68.0345
65.3861
61.9488
57.898
53.4186
49.0074
45.193
42.399
40.9383
40.7767
38.2412
44.9401
40.1585
38.4681
34.9301
32.9871
29.7125
27.3373
24.3358
21.8584
19.259
16.9892
14.7845
12.7867
10.9145
9.287
7.91739
6.97266
6.97453
6.14178
1.77897
-8.96444
-15.7144
-18.6056
-23.275
-27.0093
-31.7774
-36.1335
-41.1518
-45.8735
-50.6775
-55.0869
-59.141
-62.5586
-65.1874
-66.7848
-67.4277
-67.2425
-66.6357
-66.7608
-65.649
-44.6598
-48.4615
-50.6576
-53.6351
-55.7366
-58.4519
-60.5795
-62.9032
-64.6162
-65.918
-66.4764
-66.3458
-65.4893
-63.9697
-61.9348
-59.5258
-57.1595
-54.694
-52.7027
-48.9703
-40.7068
-40.0068
-37.7741
-36.0321
-34.1235
-32.5397
-30.6232
-28.7631
-26.7069
-24.5838
-22.3696
-20.1091
-17.852
-15.615
-13.4742
-11.3491
-9.36251
-7.09158
-5.10962
-2.11549
-20.8082
-18.2642
-14.2207
-10.566
-7.33027
-4.63292
-1.97917
0.426359
2.73183
4.8679
6.842
8.65802
10.3079
11.8277
13.2003
14.5137
15.6683
16.9009
17.7703
19.0388
4.6265
7.39445
9.46892
11.6153
13.3823
14.8956
16.3794
17.6631
18.8925
19.9998
21.0239
21.974
22.8545
23.7005
24.4952
25.3182
26.0713
26.9805
27.6173
28.6578
31.5476
32.9948
32.8118
33.3029
33.5527
33.8875
34.288
34.6205
35.0109
35.3901
35.8027
36.2489
36.7421
37.3005
37.9262
38.6781
39.4664
40.463
41.1697
42.2824
39.786
41.5349
41.0673
41.8526
42.2039
42.8583
43.4156
43.9492
44.476
44.9543
45.4173
45.8601
46.2729
46.6876
47.1417
47.6585
48.2557
49.005
49.5954
50.217
75.2014
75.2688
73.6419
72.2791
69.9965
67.8472
65.4856
63.1389
60.8212
58.661
56.6355
54.971
53.5661
52.3988
51.4608
50.6337
50.0934
49.6031
49.4998
48.4826
)
;

boundaryField
{
    outletWallLeft
    {
        type            fixedValue;
        value           uniform 0;
    }
    fineWallsLeft
    {
        type            zeroGradient;
    }
    fineFrontAndBackLeft
    {
        type            zeroGradient;
    }
    fineplugLeft
    {
        type            cyclicAMI;
        value           nonuniform List<scalar> 
20
(
80.3957
85.042
79.8772
78.7679
78.2539
77.7651
77.2061
76.5985
76.1524
75.435
75.296
78.3048
71.7806
70.7851
70.1409
69.3983
68.9142
68.0406
68.4237
66.4703
)
;
    }
    symmetryWallLeft
    {
        type            cyclicAMI;
        value           nonuniform List<scalar> 
20
(
9.9162
12.86
2.52652
-15.4538
-3.27801
-0.0219215
-1.36246
-0.101709
-4.45334
-17.2612
-9.93029
0.266392
8.35502
-2.68574
-9.48056
-22.7769
1.19042
-16.5777
26.3741
-0.97463
)
;
    }
    inletOutletLeft
    {
        type            cyclicAMI;
        value           nonuniform List<scalar> 
20
(
66.4703
68.4237
68.0406
68.9142
69.3983
70.1409
70.7851
71.7806
78.3048
75.296
75.435
76.1524
76.5985
77.2061
77.7651
78.2539
78.7679
79.8772
85.042
80.3957
)
;
    }
    inletLeft
    {
        type            zeroGradient;
    }
    inletWallsLeft
    {
        type            zeroGradient;
    }
    inletFacesLeft
    {
        type            zeroGradient;
    }
    fineWallsRight
    {
        type            zeroGradient;
    }
    outletWallRight
    {
        type            zeroGradient;
    }
    fineplugRight
    {
        type            cyclicAMI;
        value           nonuniform List<scalar> 
20
(
36.0192
37.5596
36.8392
36.9633
37.2342
38.1829
39.3909
40.9617
45.6257
44.5252
46.4784
48.4869
50.5665
52.5775
54.5698
56.4314
58.4443
58.9635
62.6345
57.6744
)
;
    }
    fineFrontAndBackRight
    {
        type            zeroGradient;
    }
    symmetryWallRight
    {
        type            cyclicAMI;
        value           nonuniform List<scalar> 
20
(
9.9162
12.86
2.52652
-15.4538
-3.27801
-0.0219215
-1.36246
-0.101709
-4.45334
-17.2612
-9.93029
0.266392
8.35502
-2.68574
-9.48056
-22.7769
1.19042
-16.5777
26.3741
-0.97463
)
;
    }
    inletOutletRight
    {
        type            cyclicAMI;
        value           nonuniform List<scalar> 
20
(
36.0192
37.5596
36.8392
36.9633
37.2342
38.1829
39.3909
40.9617
45.6257
44.5252
46.4784
48.4869
50.5665
52.5775
54.5698
56.4314
58.4443
58.9635
62.6345
57.6744
)
;
    }
    inletRight
    {
        type            zeroGradient;
    }
    inletWallsRight
    {
        type            zeroGradient;
    }
    inletFacesRight
    {
        type            zeroGradient;
    }
}


// ************************************************************************* //
