/*--------------------------------*- C++ -*----------------------------------*\
| =========                 |                                                 |
| \\      /  F ield         | OpenFOAM: The Open Source CFD Toolbox           |
|  \\    /   O peration     | Version:  4.1                                   |
|   \\  /    A nd           | Web:      www.OpenFOAM.org                      |
|    \\/     M anipulation  |                                                 |
\*---------------------------------------------------------------------------*/
FoamFile
{
    version     2.0;
    format      ascii;
    class       volVectorField;
    location    "11";
    object      U;
}
// * * * * * * * * * * * * * * * * * * * * * * * * * * * * * * * * * * * * * //

dimensions      [0 1 -1 0 0 0 0];

internalField   nonuniform List<vector> 
1680
(
(-7.08485e-19 2.11245 -0.0213315)
(2.46158e-18 1.55665 -0.0152691)
(-1.39062e-17 1.54893 -0.0260577)
(4.46613e-17 1.31198 0.00237969)
(-1.69749e-16 1.63099 -0.0740317)
(-3.77771e-16 1.68143 -0.156179)
(-2.68603e-16 1.3956 -0.107202)
(-3.13929e-16 1.66906 -0.181469)
(-3.78413e-16 1.83846 -0.288745)
(-1.77217e-16 1.43955 -0.198548)
(-2.16085e-16 2.06443 -0.382022)
(-1.60816e-16 1.61733 -0.275298)
(-2.03827e-16 1.86583 -0.413938)
(-2.57634e-16 2.13078 -0.62565)
(-1.87489e-16 1.77258 -0.410259)
(-2.457e-16 2.35696 -0.752618)
(-1.82291e-16 2.16077 -0.468747)
(-2.03114e-16 1.7252 -0.971152)
(-2.30856e-16 4.22825 -0.379796)
(-1.52426e-16 0.535962 -2.9521)
(-1.911e-16 3.10266 2.09892)
(3.97079e-16 1.54129 -1.27434)
(-1.76122e-15 4.01769 6.2842)
(-2.05869e-15 4.54425 7.23863)
(-2.01744e-15 4.72861 8.11947)
(-2.89192e-15 4.85304 8.90732)
(-2.89171e-15 5.0131 9.60029)
(-2.80865e-15 5.08059 10.1932)
(-2.92519e-15 5.2455 10.7393)
(-2.97305e-15 5.15009 11.1241)
(-3.10208e-15 5.56391 11.7696)
(-2.41741e-15 4.95415 9.80021)
(-3.34249e-15 7.00871 13.4024)
(-3.36929e-15 7.14831 13.7829)
(-3.47753e-15 7.21341 14.0837)
(-3.43806e-15 7.20428 14.3494)
(-3.45846e-15 7.32703 14.6066)
(-3.61416e-15 7.16919 14.7542)
(-3.39141e-15 7.54347 15.601)
(-4.09658e-15 7.1646 14.23)
(-3.92744e-15 9.8646 15.8245)
(-2.53365e-15 6.82039 11.3413)
(-2.3805e-15 5.88463 10.6845)
(-3.09528e-15 6.22322 13.7216)
(-2.15594e-15 4.42494 9.72824)
(-2.10949e-15 4.13433 9.57067)
(-2.059e-15 3.39069 9.35975)
(-2.39004e-15 2.85929 10.8625)
(-1.48069e-15 1.75346 7.00646)
(-1.66688e-15 1.59706 7.13162)
(6.02938e-16 0.157731 4.44202)
(1.12706e-14 -0.374168 -5.72644)
(1.10561e-14 -0.127256 -5.10223)
(1.11604e-14 0.365649 -5.38574)
(1.07671e-14 -0.522004 -5.64447)
(1.91114e-15 -0.31058 -2.5944)
(3.04032e-15 -0.0997023 -2.85521)
(2.83876e-15 -0.00826151 -2.69577)
(3.54756e-15 0.0592262 -3.4243)
(1.46071e-15 0.729124 -3.19203)
(5.61187e-15 -8.63704 6.0984)
(3.42215e-15 -5.21311 4.6472)
(3.94352e-16 -7.53056 4.75342)
(-2.34482e-15 -4.76928 5.56443)
(-4.04904e-15 -2.93113 5.91304)
(-6.37663e-15 1.36498 5.92519)
(-5.37897e-15 2.62128 4.07441)
(-3.60562e-15 2.53875 2.32823)
(-1.77685e-15 -2.17026 -1.51247)
(-2.37761e-15 -2.68508 0.339223)
(-2.64669e-15 1.43828 -0.458907)
(-9.34458e-16 3.09067 -0.593845)
(-5.4852e-17 1.82773 0.698334)
(3.44877e-17 0.954015 0.304532)
(-3.08983e-16 1.34908 0.890756)
(-1.82792e-15 3.46381 5.87114)
(-3.2388e-15 5.31574 12.4624)
(-1.74851e-15 3.26025 11.9533)
(2.69187e-15 0.24895 2.80666)
(4.84309e-15 -9.73914 5.45995)
(3.2085e-15 -4.99329 4.52305)
(3.61004e-16 -7.69221 4.37159)
(-2.36476e-15 -4.81331 5.24807)
(-4.29302e-15 -3.01896 5.42247)
(-6.52384e-15 1.58501 5.49146)
(-5.38393e-15 2.95118 3.54205)
(-3.44192e-15 3.11321 2.10962)
(-1.37079e-15 -1.96583 -1.60922)
(-2.33091e-15 -2.75775 -0.15621)
(-2.54722e-15 1.44929 -1.02431)
(-7.85119e-16 2.9851 -0.737676)
(-4.16224e-18 1.73258 0.75012)
(6.68529e-18 1.01491 0.342667)
(6.02322e-17 1.00253 -0.100323)
(-6.35062e-16 2.28386 2.0599)
(-2.72184e-15 4.30587 9.75816)
(-3.65487e-15 3.96268 14.2915)
(2.78218e-16 2.76096 8.43646)
(3.88769e-15 -10.7734 4.3849)
(3.02108e-15 -4.80022 4.38672)
(4.02364e-16 -7.84722 3.99265)
(-2.36252e-15 -4.83387 4.92201)
(-4.4178e-15 -3.10536 4.87864)
(-6.37381e-15 1.80491 5.14742)
(-5.14812e-15 3.27064 3.08411)
(-2.99571e-15 3.60785 1.94198)
(-9.52091e-16 -1.72181 -1.16535)
(-2.16376e-15 -2.75682 -0.738732)
(-2.27176e-15 1.42651 -1.63897)
(-6.38777e-16 2.80443 -0.81653)
(1.48184e-17 1.62644 0.779458)
(-3.06372e-18 1.07466 0.292571)
(4.2705e-18 1.0455 0.166644)
(2.53891e-18 1.48452 0.0781032)
(-1.51411e-15 2.88972 5.93338)
(-3.47044e-15 3.59196 13.3014)
(-3.10313e-15 4.03998 12.5025)
(2.85197e-15 -11.6954 3.00615)
(2.79545e-15 -4.67034 4.13745)
(5.28199e-16 -8.00394 3.59001)
(-2.30309e-15 -4.82564 4.61721)
(-4.43766e-15 -3.19898 4.29001)
(-6.23085e-15 2.01185 4.81293)
(-5.00042e-15 3.5751 2.63405)
(-2.48753e-15 3.97663 1.8538)
(-5.16443e-16 -1.42179 -0.300549)
(-1.87205e-15 -2.62409 -1.2689)
(-1.86112e-15 1.34075 -2.05626)
(-4.92196e-16 2.55978 -0.845803)
(1.17116e-17 1.52393 0.724776)
(-7.67635e-19 1.11477 0.217903)
(-4.98642e-19 1.07794 0.182292)
(8.46856e-18 1.12607 0.0967393)
(-7.94658e-16 1.64297 2.734)
(-2.75225e-15 2.65925 10.4357)
(-3.41659e-15 4.53763 13.6844)
(1.871e-15 -12.4655 1.53145)
(2.45229e-15 -4.6174 3.71532)
(7.13817e-16 -8.18428 3.09104)
(-2.15082e-15 -4.78846 4.36339)
(-4.38443e-15 -3.29327 3.65535)
(-6.22754e-15 2.20583 4.40713)
(-5.10048e-15 3.84968 2.07756)
(-2.12324e-15 4.18703 1.78703)
(-1.86851e-18 -1.08701 0.707367)
(-1.48275e-15 -2.36062 -1.59897)
(-1.36643e-15 1.23746 -2.13554)
(-3.45345e-16 2.29508 -0.841317)
(4.8723e-18 1.42805 0.5872)
(2.73732e-20 1.15363 0.163545)
(1.07959e-18 1.08607 0.150545)
(2.45301e-18 1.01745 0.204052)
(-1.75383e-16 0.811088 0.331425)
(-1.7587e-15 1.37466 5.26168)
(-3.19552e-15 4.17661 11.1764)
(1.07157e-15 -13.0745 0.161652)
(1.95076e-15 -4.62218 3.1898)
(8.92405e-16 -8.4141 2.40553)
(-1.88316e-15 -4.7316 4.17143)
(-4.25815e-15 -3.37304 2.98042)
(-6.12981e-15 2.39808 3.95866)
(-5.27227e-15 4.08619 1.374)
(-1.93991e-15 4.23546 1.67046)
(4.11217e-16 -0.762049 1.55305)
(-1.04701e-15 -2.01024 -1.60388)
(-8.33427e-16 1.12085 -1.92184)
(-2.0063e-16 2.05309 -0.7935)
(2.35574e-18 1.33803 0.430018)
(-9.14884e-20 1.17803 0.128039)
(-4.47795e-20 1.09492 0.128026)
(2.2336e-18 1.03598 0.154351)
(2.30832e-17 0.785921 -0.0950843)
(-2.93134e-16 0.253628 -0.40194)
(-2.05564e-15 3.4354 5.1396)
(5.23141e-16 -13.524 -1.01228)
(1.33507e-15 -4.6465 2.7658)
(9.75535e-16 -8.69898 1.48667)
(-1.50651e-15 -4.6747 4.02579)
(-4.02234e-15 -3.42946 2.28431)
(-5.57285e-15 2.59983 3.5891)
(-5.14005e-15 4.29328 0.607217)
(-1.78588e-15 4.14537 1.51493)
(4.98341e-16 -0.460802 2.01591)
(-5.93073e-16 -1.63215 -1.20182)
(-3.45775e-16 1.02955 -1.63934)
(-7.72709e-17 1.85193 -0.664593)
(1.58575e-18 1.25798 0.309233)
(2.50984e-21 1.19094 0.10369)
(-6.4784e-20 1.10172 0.105253)
(-5.65437e-19 1.04373 0.141594)
(-8.77944e-19 0.835296 -0.125769)
(4.02954e-17 0.376762 0.0472281)
(-2.57172e-17 0.244775 -2.83966)
(2.15329e-16 -13.889 -2.02835)
(7.2791e-16 -4.63434 2.66546)
(9.00282e-16 -9.02717 0.396654)
(-1.06325e-15 -4.6413 3.89487)
(-3.64855e-15 -3.47239 1.58751)
(-4.53439e-15 2.81026 3.36497)
(-4.44279e-15 4.48653 -0.0658815)
(-1.4582e-15 3.94549 1.43272)
(4.18899e-16 -0.236101 2.25096)
(-2.00886e-16 -1.25491 -0.536712)
(-3.36126e-17 0.975651 -1.38661)
(-6.27003e-18 1.67872 -0.427263)
(3.64008e-19 1.19812 0.229311)
(-5.53871e-21 1.19774 0.0870926)
(2.392e-20 1.10785 0.0827093)
(6.80828e-20 1.05841 0.109743)
(-3.08703e-19 0.846859 -0.147539)
(-1.03933e-17 0.762459 -0.126074)
(-1.13365e-18 1.08896 -3.47664)
(7.94016e-17 -14.153 -2.98379)
(2.54676e-16 -4.58608 3.05071)
(6.74425e-16 -9.33995 -0.696405)
(-6.20964e-16 -4.64295 3.76456)
(-3.15533e-15 -3.51431 0.895889)
(-3.44575e-15 3.0116 3.2231)
(-3.25348e-15 4.66502 -0.52704)
(-9.05998e-16 3.67286 1.54369)
(3.06409e-16 -0.0577112 2.33316)
(5.86008e-17 -0.884876 0.0811632)
(3.88845e-17 0.982667 -1.04299)
(6.01099e-18 1.53865 -0.15797)
(-1.69675e-19 1.16918 0.167556)
(-2.35522e-22 1.20095 0.0750022)
(-4.99672e-21 1.11537 0.062358)
(1.35819e-21 1.07153 0.0850368)
(1.89178e-19 0.89669 -0.155432)
(-3.04854e-18 0.872219 -0.32749)
(5.61888e-17 0.932719 -0.787082)
(3.04893e-17 -14.5341 -3.87721)
(-3.89875e-17 -4.4701 3.965)
(3.75253e-16 -9.61368 -1.63104)
(-2.48055e-16 -4.67142 3.64501)
(-2.60226e-15 -3.56944 0.201916)
(-2.77512e-15 3.17745 3.0937)
(-1.90332e-15 4.8053 -0.752843)
(-2.97764e-16 3.37175 1.86991)
(1.62917e-16 0.0821394 2.21082)
(1.48155e-16 -0.545359 0.387426)
(5.67458e-18 1.00787 -0.696219)
(-9.61456e-19 1.44303 -0.0165591)
(-2.0962e-20 1.16532 0.117068)
(9.70299e-22 1.20122 0.0646425)
(3.67234e-22 1.12259 0.0438194)
(-2.84578e-21 1.08545 0.0650027)
(1.7892e-20 0.93808 -0.165368)
(-2.62386e-18 0.961252 -0.247168)
(3.87847e-17 1.0575 -1.40274)
(1.00817e-18 -14.7329 -4.60095)
(-1.92568e-16 -4.38197 5.43298)
(9.62602e-17 -9.73162 -2.29867)
(7.74116e-18 -4.70687 3.58519)
(-2.05286e-15 -3.61616 -0.495677)
(-2.65892e-15 3.28485 2.99535)
(-7.50081e-16 4.88789 -0.787106)
(1.1908e-16 3.08225 2.29282)
(2.07319e-17 0.251994 1.96121)
(9.95593e-17 -0.263176 0.2458)
(4.50695e-19 1.00546 -0.479734)
(-6.34079e-19 1.38072 -0.00772655)
(1.19023e-20 1.16494 0.0825769)
(-1.6265e-22 1.1997 0.0544794)
(5.47499e-23 1.1298 0.0280619)
(7.21058e-22 1.098 0.0501644)
(1.68479e-20 0.974051 -0.159228)
(-1.37038e-18 1.05574 -0.258327)
(3.29212e-17 1.1149 -0.835589)
(-4.41082e-17 -15.6507 -4.94783)
(-2.70139e-16 -4.14313 7.07401)
(-1.01161e-16 -9.792 -2.63371)
(1.33047e-16 -4.71262 3.6177)
(-1.54822e-15 -3.68415 -1.17894)
(-2.94159e-15 3.32197 2.93101)
(-1.37949e-17 4.92188 -0.709802)
(2.38087e-16 2.82668 2.62081)
(-4.7015e-17 0.497695 1.7379)
(1.36381e-17 -0.00332998 -0.0181854)
(1.64597e-19 0.977581 -0.346212)
(7.65099e-20 1.33622 -0.0172638)
(6.57128e-22 1.16391 0.0626205)
(-4.63442e-23 1.19907 0.0439064)
(-3.97846e-23 1.13744 0.0158379)
(-1.09636e-22 1.11089 0.0410624)
(1.06948e-20 1.00949 -0.154689)
(-8.72838e-19 1.10187 -0.229465)
(2.4771e-17 1.17059 -0.696721)
(-1.08078e-16 -15.4842 -4.94892)
(-3.09508e-16 -4.15614 9.24209)
(-2.01593e-16 -9.49324 -2.68603)
(1.53603e-16 -4.67928 3.83673)
(-1.10968e-15 -3.67919 -1.8154)
(-3.39772e-15 3.28368 2.76707)
(2.86757e-16 4.92622 -0.621094)
(1.60162e-16 2.6036 2.7252)
(-4.18804e-17 0.737186 1.57495)
(1.05152e-17 0.247696 0.405197)
(-4.56882e-20 0.980079 -0.23394)
(-2.58034e-20 1.30441 -0.0174548)
(-1.12656e-21 1.1633 0.0523353)
(2.40166e-23 1.19851 0.0328932)
(4.30058e-24 1.14352 0.00754384)
(-1.57303e-23 1.12236 0.0359632)
(3.5251e-21 1.03987 -0.146105)
(-4.48917e-19 1.15787 -0.208842)
(1.74654e-17 1.20047 -0.643767)
(-1.85593e-16 -18.5014 -4.54127)
(-3.21927e-16 -3.43337 10.8972)
(-2.28308e-16 -9.49657 -2.45305)
(1.26608e-16 -4.52971 4.1327)
(-7.44325e-16 -3.73903 -2.35936)
(-3.81362e-15 3.17216 2.20667)
(2.92401e-16 4.89111 -0.594839)
(5.57412e-17 2.40021 2.61961)
(-1.99877e-17 0.931458 1.35257)
(4.2776e-18 0.420216 0.599905)
(-1.5792e-19 1.01183 -0.166376)
(-2.29245e-20 1.27656 -0.016694)
(5.88914e-22 1.15643 0.0466287)
(-3.67997e-24 1.19238 0.0224439)
(2.62607e-25 1.14161 0.00308204)
(7.46098e-24 1.12656 0.0332115)
(1.43147e-21 1.06121 -0.136306)
(-2.11173e-19 1.18416 -0.184644)
(1.29856e-17 1.22207 -0.451391)
(-2.15019e-16 -15.3488 -4.1984)
(-2.5196e-16 -4.21764 14.7512)
(-1.72582e-16 -8.31042 -2.31786)
(1.31478e-16 -4.41522 4.7272)
(-4.65942e-16 -3.43169 -2.74064)
(-3.87076e-15 3.00362 0.92453)
(1.74787e-16 4.80297 -0.639513)
(8.62641e-18 2.22628 2.38389)
(-3.90392e-18 1.10916 1.13941)
(6.69918e-19 0.573655 0.645183)
(-5.05924e-21 1.06879 -0.130554)
(2.78472e-21 1.26272 -0.010073)
(-6.41287e-23 1.15934 0.0417236)
(-5.61266e-25 1.19597 0.0137955)
(-6.85449e-25 1.14746 0.00180484)
(-2.82798e-24 1.13934 0.0306355)
(4.18468e-22 1.08774 -0.125361)
(-1.01225e-19 1.21013 -0.155486)
(9.63425e-18 1.24382 -0.34575)
(-3.4347e-16 -27.1209 -2.7244)
(-1.34171e-16 -1.22551 14.8181)
(-1.35784e-16 -9.23148 -1.61505)
(1.37369e-16 -3.95438 4.95572)
(-4.34833e-16 -3.41525 -2.79931)
(-3.21967e-15 2.86474 -0.934291)
(7.95172e-17 4.63748 -0.711534)
(2.77091e-18 2.11531 2.08247)
(9.67259e-20 1.30633 0.942815)
(-1.65908e-19 0.737428 0.633125)
(1.09771e-20 1.1554 -0.113499)
(-2.42697e-22 1.27842 0.000532184)
(-1.90155e-23 1.19041 0.0348748)
(3.21831e-25 1.22618 0.00758635)
(2.20665e-25 1.17945 0.00253419)
(5.44266e-25 1.17848 0.0264085)
(1.08703e-22 1.13843 -0.111737)
(-3.83697e-20 1.26238 -0.126297)
(5.56231e-18 1.28604 -0.320848)
(2.87189e-16 -7.24228 -4.06273)
(2.66367e-16 -6.52436 25.7748)
(2.24935e-16 -4.70126 -2.81431)
(1.30317e-16 -4.20889 6.23848)
(-3.69525e-16 -2.09492 -2.76361)
(-1.86384e-15 2.68698 -2.46761)
(1.83109e-16 4.14774 -0.723564)
(-4.1109e-19 1.90857 1.74645)
(-1.834e-19 1.36517 0.750958)
(-2.40587e-20 0.799865 0.576506)
(1.8316e-21 1.1515 -0.103828)
(1.24548e-22 1.21423 0.0116831)
(1.96637e-24 1.14105 0.0256621)
(-1.21455e-26 1.17454 0.00380983)
(-6.0624e-26 1.12939 0.0040621)
(-6.59997e-26 1.13514 0.0200959)
(1.93881e-23 1.10405 -0.093929)
(-9.10256e-21 1.22191 -0.0980896)
(2.77591e-18 1.24363 -0.189153)
(-1.98826e-15 -59.1957 8.70304)
(-6.74454e-16 8.81349 9.28979)
(-1.11474e-15 -11.8236 1.64893)
(-3.35648e-16 -2.72626 4.91741)
(-2.06296e-15 -2.78033 -1.88072)
(-1.72959e-16 2.12258 -3.02742)
(4.20219e-16 3.36533 -0.465775)
(-8.12133e-18 1.56663 1.46192)
(-2.1915e-20 1.26695 0.596866)
(2.65617e-20 0.752398 0.498329)
(-1.34192e-21 1.07253 -0.0984832)
(-6.20268e-23 1.08143 0.0216171)
(4.85779e-25 1.023 0.0174242)
(-3.0893e-26 1.05412 0.0024117)
(1.14133e-26 1.00953 0.0062419)
(1.76034e-27 1.0222 0.013236)
(-1.29629e-24 0.994928 -0.0756592)
(-4.99e-22 1.09863 -0.0762153)
(7.76589e-19 1.12086 -0.169772)
(8.41526e-15 46.8472 -35.4023)
(3.07064e-15 -23.1813 60.0881)
(4.79752e-15 8.9309 -14.2579)
(-1.2336e-15 -5.4992 10.6955)
(2.70038e-15 1.31724 -3.33839)
(1.21371e-15 2.85376 -2.49577)
(4.07518e-16 3.82686 0.0359594)
(-9.09755e-18 2.12496 1.21272)
(1.63966e-19 1.92933 0.470294)
(-8.38531e-22 1.21988 0.395723)
(-4.65454e-23 1.55195 -0.0850235)
(-3.01943e-25 1.49376 0.0305005)
(2.66253e-25 1.44042 0.0129775)
(1.45279e-26 1.46872 0.00332966)
(-1.93874e-27 1.42138 0.0082707)
(3.04215e-27 1.44016 0.00664635)
(-1.12079e-24 1.41434 -0.0573649)
(3.89746e-22 1.53521 -0.0608155)
(-1.6748e-19 1.55642 -0.0252607)
(-3.42575e-14 -171.865 162.258)
(-8.25754e-15 37.2555 -65.8866)
(-5.1174e-14 -28.036 59.7417)
(1.67906e-15 -0.0404693 -8.27881)
(-4.36842e-14 -3.7955 1.72733)
(4.99972e-16 3.36073 -0.727989)
(1.88243e-16 4.18789 0.165268)
(-1.62892e-18 2.52789 0.509307)
(1.23159e-20 2.25398 0.192213)
(-1.63927e-21 1.46119 0.152361)
(7.02593e-23 1.74019 -0.0340767)
(1.57748e-24 1.67077 0.0194951)
(-1.26306e-25 1.61933 0.00598192)
(-3.36115e-27 1.64198 0.00288478)
(2.80814e-28 1.59683 0.00482715)
(-1.19207e-27 1.61442 0.000838957)
(2.83137e-25 1.59692 -0.0230661)
(-1.16608e-22 1.7268 -0.0280139)
(3.52887e-20 1.75613 -0.0939307)
(-9.1665e-19 5.30653 9.71272)
(-5.67997e-15 9.86359 16.8544)
(-5.09055e-15 9.95199 17.0259)
(-5.07542e-15 9.69785 16.3393)
(-4.83962e-15 9.65552 16.179)
(-6.94872e-15 9.70603 16.1343)
(-5.50135e-15 9.72521 16.108)
(-4.70609e-15 9.75691 16.0808)
(-4.85712e-15 9.76272 16.0596)
(-4.68857e-15 9.79446 16.0582)
(-4.59017e-15 9.77686 16.0365)
(-4.68896e-15 9.70232 15.8382)
(-4.76582e-15 9.74884 15.9885)
(-4.53874e-15 9.75833 16.0541)
(-4.76578e-15 9.74607 16.0827)
(-4.51457e-15 9.70259 16.1255)
(-4.51343e-15 9.69465 16.1301)
(-4.65823e-15 9.83433 16.595)
(-4.42273e-15 10.2929 17.1767)
(-6.86036e-15 6.23896 10.8917)
(9.77157e-17 4.91116 8.24487)
(-4.85066e-15 9.26168 15.8409)
(-4.14846e-15 9.07356 15.5373)
(-4.09696e-15 8.77597 15.0204)
(-4.18428e-15 8.76446 15.0334)
(-6.29552e-15 8.80322 15.0655)
(-4.16243e-15 8.80962 15.0985)
(-3.85337e-15 8.83383 15.1205)
(-4.23013e-15 8.84652 15.1527)
(-3.76797e-15 8.86307 15.1765)
(-3.97341e-15 8.88128 15.2115)
(-4.08692e-15 8.92108 15.2834)
(-4.21509e-15 8.93405 15.2813)
(-3.72096e-15 8.93719 15.3097)
(-4.13582e-15 8.9604 15.337)
(-3.81656e-15 8.95447 15.3728)
(-4.00695e-15 8.98499 15.403)
(-3.88404e-15 9.19506 15.8421)
(-3.82369e-15 9.53221 16.3875)
(-6.26146e-15 5.52516 9.62754)
(-6.77956e-18 5.56526 9.69305)
(-2.00431e-15 9.61384 16.4525)
(-1.34274e-15 9.28151 16.007)
(-1.37308e-15 9.05293 15.5456)
(-1.59854e-15 9.01992 15.5366)
(-4.01023e-15 9.03867 15.5343)
(-2.06448e-15 9.02633 15.5395)
(-1.94185e-15 9.03387 15.5351)
(-1.8081e-15 9.02694 15.5388)
(-1.98002e-15 9.0311 15.5399)
(-2.11485e-15 9.02803 15.5429)
(-2.07534e-15 9.02162 15.5383)
(-1.89762e-15 9.02396 15.5503)
(-1.83591e-15 9.02106 15.5622)
(-2.06825e-15 9.02745 15.5659)
(-1.80228e-15 9.01068 15.5772)
(-1.94502e-15 9.02992 15.5802)
(-1.79135e-15 9.2216 15.9931)
(-1.8589e-15 9.58486 16.5442)
(-2.90015e-15 5.68107 9.98175)
(-6.29991e-19 5.60702 9.66171)
(4.25776e-16 9.47087 16.2632)
(3.64185e-16 9.10876 15.716)
(3.74256e-16 8.89697 15.3095)
(3.66342e-16 8.87717 15.32)
(-2.39287e-15 8.8967 15.3279)
(-2.00148e-15 8.88775 15.3416)
(-1.90404e-15 8.89687 15.3452)
(-1.78814e-15 8.89262 15.3563)
(-2.02045e-15 8.89772 15.3624)
(-2.09566e-15 8.89688 15.3723)
(-1.96189e-15 8.90029 15.3833)
(-1.76582e-15 8.9025 15.3896)
(-1.93121e-15 8.89963 15.4012)
(-2.08381e-15 8.90708 15.4067)
(-1.82481e-15 8.89447 15.4177)
(-1.96306e-15 8.91194 15.4221)
(-1.8912e-15 9.10126 15.8098)
(-1.56734e-15 9.47068 16.4074)
(-2.84804e-15 5.73588 10.0363)
(5.81715e-19 5.86595 10.1561)
(-9.26478e-17 9.52562 16.3507)
(-8.44329e-17 9.10828 15.7309)
(-8.5476e-17 8.9234 15.3631)
(-8.29192e-17 8.90202 15.3738)
(5.32237e-16 8.91723 15.3761)
(4.60553e-16 8.90543 15.3852)
(4.44992e-16 8.91114 15.3851)
(4.31821e-16 8.90409 15.392)
(4.47794e-16 8.90636 15.3944)
(4.77842e-16 8.90263 15.4001)
(4.70191e-16 8.90179 15.4042)
(4.39327e-16 8.90142 15.4092)
(4.1786e-16 8.89769 15.4169)
(4.72619e-16 8.90196 15.4193)
(4.1773e-16 8.88926 15.4263)
(4.40169e-16 8.90228 15.4242)
(4.23116e-16 9.06856 15.7697)
(4.37259e-16 9.4712 16.4225)
(6.53122e-16 5.9305 10.3891)
(-2.54137e-19 6.02847 10.4144)
(2.11766e-17 9.48935 16.3016)
(1.9735e-17 9.04575 15.6218)
(1.95253e-17 8.8812 15.2962)
(1.95272e-17 8.86475 15.3112)
(-1.20671e-16 8.87903 15.3147)
(-1.10117e-16 8.86879 15.3248)
(-1.04214e-16 8.87461 15.3262)
(-1.06172e-16 8.86858 15.334)
(-1.0442e-16 8.87118 15.3375)
(-1.06323e-16 8.86797 15.3441)
(-1.11045e-16 8.86825 15.3495)
(-1.03139e-16 8.86776 15.3548)
(-1.00376e-16 8.86499 15.3623)
(-1.06213e-16 8.86866 15.3657)
(-1.00512e-16 8.8583 15.3731)
(-1.03489e-16 8.86812 15.3694)
(-9.99434e-17 9.0145 15.6734)
(-1.05694e-16 9.44327 16.3802)
(-1.50927e-16 6.10914 10.6889)
(9.11911e-20 6.22715 10.7606)
(-5.08335e-18 9.48275 16.2919)
(-4.64791e-18 9.01242 15.5662)
(-4.56161e-18 8.86961 15.2788)
(-4.74017e-18 8.85483 15.2952)
(2.7818e-17 8.86738 15.2973)
(2.60224e-17 8.85729 15.3061)
(2.44644e-17 8.86219 15.307)
(2.51775e-17 8.85612 15.3139)
(2.49216e-17 8.85816 15.3168)
(2.38567e-17 8.85462 15.3226)
(2.54981e-17 8.85466 15.327)
(2.44679e-17 8.85349 15.332)
(2.45958e-17 8.85117 15.3384)
(2.46157e-17 8.85367 15.3417)
(2.38471e-17 8.84486 15.3484)
(2.47137e-17 8.85186 15.343)
(2.38761e-17 8.9781 15.6069)
(2.44999e-17 9.42668 16.351)
(3.4617e-17 6.3002 11.0188)
(-2.83148e-20 6.4111 11.0704)
(1.23812e-18 9.45588 16.2516)
(1.09757e-18 8.96976 15.4921)
(1.08519e-18 8.84717 15.2431)
(1.15666e-18 8.83486 15.2607)
(-6.55296e-18 8.84622 15.2627)
(-6.04572e-18 8.83706 15.2712)
(-5.79613e-18 8.84162 15.2726)
(-5.90669e-18 8.83614 15.2794)
(-5.88621e-18 8.83812 15.2824)
(-5.46638e-18 8.83482 15.2884)
(-5.86856e-18 8.8352 15.2927)
(-5.73899e-18 8.8338 15.2979)
(-5.87424e-18 8.83228 15.3039)
(-5.81648e-18 8.83399 15.3078)
(-5.59963e-18 8.82705 15.3144)
(-5.90963e-18 8.83179 15.3089)
(-5.58184e-18 8.93989 15.5357)
(-5.65961e-18 9.39991 16.3047)
(-7.93955e-18 6.48418 11.3335)
(7.92116e-21 6.60008 11.3932)
(-2.96192e-19 9.42918 16.2099)
(-2.60162e-19 8.93364 15.4302)
(-2.58821e-19 8.83057 15.217)
(-2.79321e-19 8.8198 15.2349)
(1.56634e-18 8.8299 15.2363)
(1.4076e-18 8.8214 15.2443)
(1.37324e-18 8.82543 15.2457)
(1.38264e-18 8.82035 15.2521)
(1.37473e-18 8.82208 15.255)
(1.28654e-18 8.81889 15.2607)
(1.35753e-18 8.81938 15.2647)
(1.3484e-18 8.81767 15.27)
(1.37602e-18 8.81678 15.2754)
(1.36831e-18 8.81759 15.2797)
(1.31902e-18 8.81232 15.2859)
(1.39824e-18 8.8151 15.2807)
(1.27733e-18 8.90632 15.4729)
(1.3347e-18 9.37007 16.2527)
(1.80492e-18 6.66758 11.6489)
(-2.0828e-21 6.7858 11.7088)
(6.91423e-20 9.39431 16.155)
(6.19495e-20 8.89779 15.3685)
(6.12159e-20 8.81285 15.1892)
(6.63072e-20 8.80346 15.2068)
(-3.7364e-19 8.81245 15.2081)
(-3.32291e-19 8.80473 15.2156)
(-3.2421e-19 8.8083 15.2172)
(-3.24997e-19 8.80375 15.2233)
(-3.21081e-19 8.80528 15.2263)
(-3.10253e-19 8.80231 15.2319)
(-3.14799e-19 8.80295 15.2357)
(-3.18963e-19 8.80104 15.2411)
(-3.20011e-19 8.8008 15.2461)
(-3.19441e-19 8.8008 15.2508)
(-3.13438e-19 8.79719 15.2566)
(-3.28807e-19 8.7983 15.2524)
(-2.9308e-19 8.87426 15.4126)
(-3.23682e-19 9.33397 16.1903)
(-4.06322e-19 6.8484 11.9595)
(5.33551e-22 6.97122 12.0247)
(-1.5935e-20 9.35479 16.0919)
(-1.4761e-20 8.865 15.3122)
(-1.43251e-20 8.79677 15.1641)
(-1.55127e-20 8.78838 15.181)
(8.82361e-20 8.79629 15.1821)
(7.93997e-20 8.78931 15.189)
(7.63975e-20 8.79239 15.1908)
(7.6971e-20 8.78833 15.1966)
(7.55154e-20 8.7896 15.1996)
(7.5548e-20 8.78688 15.205)
(7.32732e-20 8.78756 15.2086)
(7.54593e-20 8.7855 15.2141)
(7.43528e-20 8.78582 15.2186)
(7.44645e-20 8.78504 15.2237)
(7.47162e-20 8.78298 15.229)
(7.77404e-20 8.78261 15.226)
(6.82608e-20 8.84483 15.3569)
(7.96868e-20 9.29285 16.1193)
(9.11899e-20 7.02805 12.2683)
(-1.35999e-22 7.15506 12.3375)
(3.68011e-21 9.30928 16.0185)
(3.50117e-21 8.83428 15.2593)
(3.33319e-21 8.78113 15.1399)
(3.6143e-21 8.77353 15.1556)
(-2.06764e-20 8.78046 15.1566)
(-1.90087e-20 8.77422 15.1631)
(-1.802e-20 8.77681 15.1651)
(-1.83348e-20 8.77329 15.1705)
(-1.78653e-20 8.77428 15.1736)
(-1.83029e-20 8.77185 15.1787)
(-1.71568e-20 8.77254 15.1823)
(-1.7765e-20 8.77041 15.1877)
(-1.7343e-20 8.77122 15.1918)
(-1.73703e-20 8.76972 15.1974)
(-1.77431e-20 8.76914 15.2021)
(-1.84797e-20 8.76747 15.2007)
(-1.60473e-20 8.81758 15.305)
(-1.95349e-20 9.24622 16.039)
(-2.05418e-20 7.20639 12.5746)
(3.46875e-23 7.33781 12.6486)
(-8.58571e-22 9.2584 15.9358)
(-8.25082e-22 8.80611 15.2109)
(-7.77303e-22 8.76637 15.1171)
(-8.48144e-22 8.75935 15.1314)
(4.8339e-21 8.76537 15.1324)
(4.51063e-21 8.75985 15.1384)
(4.25788e-21 8.76196 15.1406)
(4.35689e-21 8.75896 15.1456)
(4.23699e-21 8.75963 15.1488)
(4.3876e-21 8.75756 15.1536)
(4.04497e-21 8.75816 15.1572)
(4.1706e-21 8.75605 15.1626)
(4.07503e-21 8.75724 15.1663)
(4.0544e-21 8.75513 15.1722)
(4.19117e-21 8.7559 15.1763)
(4.37355e-21 8.75304 15.1767)
(3.77746e-21 8.79273 15.2572)
(4.71855e-21 9.19428 15.9497)
(4.65067e-21 7.3837 12.8791)
(-8.82298e-24 7.51934 12.9575)
(2.02231e-22 9.20191 15.8434)
(1.93692e-22 8.78031 15.1666)
(1.8263e-22 8.75222 15.0953)
(2.01425e-22 8.74565 15.1081)
(-1.13079e-21 8.75085 15.1091)
(-1.05581e-21 8.74602 15.1146)
(-1.0078e-21 8.74766 15.117)
(-1.02364e-21 8.7452 15.1216)
(-1.0063e-21 8.74554 15.1249)
(-1.04293e-21 8.74386 15.1295)
(-9.59788e-22 8.74431 15.133)
(-9.81514e-22 8.74233 15.1383)
(-9.63425e-22 8.74376 15.1417)
(-9.48888e-22 8.74118 15.1479)
(-9.87833e-22 8.74315 15.1514)
(-1.02347e-21 8.73923 15.1537)
(-8.90073e-22 8.77023 15.2133)
(-1.12452e-21 9.13695 15.8513)
(-1.05512e-21 7.55999 13.1816)
(2.22748e-24 7.69989 13.2645)
(-4.78463e-23 9.13992 15.7414)
(-4.55273e-23 8.75695 15.1265)
(-4.32141e-23 8.73878 15.0745)
(-4.8256e-23 8.73251 15.0858)
(2.64641e-22 8.73697 15.0868)
(2.44534e-22 8.73282 15.0919)
(2.39076e-22 8.73399 15.0945)
(2.37084e-22 8.73205 15.0987)
(2.39435e-22 8.73207 15.1021)
(2.46781e-22 8.73077 15.1064)
(2.28903e-22 8.73101 15.1099)
(2.32223e-22 8.72929 15.115)
(2.28071e-22 8.73077 15.1183)
(2.23259e-22 8.72792 15.1246)
(2.32917e-22 8.73089 15.1275)
(2.373e-22 8.72601 15.1316)
(2.10983e-22 8.75008 15.1733)
(2.66495e-22 9.07421 15.7438)
(2.39106e-22 7.73531 13.4819)
(-5.57005e-25 7.87976 13.5702)
(1.13155e-23 9.0725 15.6298)
(1.07584e-23 8.73614 15.0909)
(1.02482e-23 8.72618 15.055)
(1.1577e-23 8.72014 15.0647)
(-6.19092e-23 8.72388 15.0658)
(-5.64989e-23 8.72045 15.0704)
(-5.68565e-23 8.7211 15.0731)
(-5.43829e-23 8.71966 15.077)
(-5.70092e-23 8.71937 15.0804)
(-5.82746e-23 8.71842 15.0844)
(-5.47702e-23 8.7184 15.088)
(-5.51452e-23 8.71701 15.0927)
(-5.38225e-23 8.71831 15.0959)
(-5.27928e-23 8.71547 15.1022)
(-5.48865e-23 8.7191 15.1046)
(-5.49559e-23 8.71341 15.1105)
(-5.04882e-23 8.73225 15.1373)
(-6.32796e-23 9.00613 15.6274)
(-5.4052e-23 7.90969 13.7798)
(1.38065e-25 8.05938 13.8752)
(-2.66876e-24 8.99947 15.5081)
(-2.55721e-24 8.7178 15.0597)
(-2.4215e-24 8.71455 15.0366)
(-2.76371e-24 8.70877 15.0447)
(1.44828e-23 8.71173 15.0461)
(1.31299e-23 8.70916 15.0501)
(1.35369e-23 8.70929 15.053)
(1.24692e-23 8.7083 15.0564)
(1.35384e-23 8.70781 15.0598)
(1.37484e-23 8.70712 15.0635)
(1.31161e-23 8.70686 15.0671)
(1.30887e-23 8.70588 15.0715)
(1.26493e-23 8.70673 15.0749)
(1.25085e-23 8.70428 15.0808)
(1.28897e-23 8.70799 15.0831)
(1.28144e-23 8.70176 15.0903)
(1.21777e-23 8.71697 15.1052)
(1.51071e-23 8.93308 15.5027)
(1.21985e-23 8.08318 14.0752)
(-3.39746e-26 8.23966 14.1804)
(6.27265e-25 8.92059 15.3748)
(6.09225e-25 8.70165 15.0324)
(5.67514e-25 8.70362 15.0189)
(6.54581e-25 8.6985 15.0253)
(-3.39032e-24 8.70034 15.0269)
(-3.08009e-24 8.69873 15.0302)
(-3.21618e-24 8.69839 15.033)
(-2.8815e-24 8.6977 15.0361)
(-3.1939e-24 8.69712 15.0394)
(-3.24103e-24 8.69657 15.0428)
(-3.13279e-24 8.69617 15.0463)
(-3.09258e-24 8.69556 15.0503)
(-2.96492e-24 8.69586 15.054)
(-2.95932e-24 8.69426 15.0593)
(-3.01106e-24 8.69726 15.0619)
(-3.0162e-24 8.69129 15.07)
(-2.94232e-24 8.70425 15.0762)
(-3.6217e-24 8.85558 15.3705)
(-2.75555e-24 8.25515 14.3662)
(8.40238e-27 8.42319 14.4926)
(-1.48488e-25 8.83808 15.2311)
(-1.4627e-25 8.69069 15.012)
(-1.32919e-25 8.69522 15.0051)
(-1.55407e-25 8.69182 15.0089)
(8.03323e-25 8.69212 15.0105)
(7.36201e-25 8.69115 15.0126)
(7.68038e-25 8.69035 15.0148)
(6.81239e-25 8.68951 15.0171)
(7.54479e-25 8.68862 15.0197)
(7.71911e-25 8.68775 15.0224)
(7.51887e-25 8.68689 15.0254)
(7.33766e-25 8.68605 15.0287)
(7.0173e-25 8.68543 15.0321)
(7.05191e-25 8.68433 15.0364)
(7.07252e-25 8.68532 15.0397)
(7.21933e-25 8.68103 15.0469)
(7.15182e-25 8.69107 15.0483)
(8.77538e-25 8.77265 15.2324)
(6.30154e-25 8.42326 14.6449)
(-1.75175e-27 8.61058 14.8239)
(2.94233e-26 8.7527 15.0801)
(2.93798e-26 8.69281 15.0032)
(2.59581e-26 8.695 15.0014)
(3.10836e-26 8.69442 15.0021)
(-1.59846e-25 8.69407 15.0026)
(-1.4895e-25 8.69366 15.0031)
(-1.52897e-25 8.69304 15.0038)
(-1.3712e-25 8.69232 15.0046)
(-1.48755e-25 8.69143 15.0056)
(-1.54448e-25 8.69038 15.0067)
(-1.50736e-25 8.68914 15.008)
(-1.46062e-25 8.68772 15.0095)
(-1.39892e-25 8.68604 15.0113)
(-1.41257e-25 8.68417 15.0133)
(-1.39997e-25 8.68208 15.0156)
(-1.45385e-25 8.67892 15.0189)
(-1.44829e-25 8.67938 15.02)
(-1.78929e-25 8.69418 15.0844)
(-1.22409e-25 8.5934 14.8933)
(1.13365e-15 -0.193191 -3.66392)
(1.21086e-15 -0.504208 -4.03866)
(6.63754e-16 0.127078 -1.36602)
(5.92991e-16 0.0598219 -0.704475)
(5.38078e-16 0.0697097 -0.517895)
(4.35516e-16 -0.25127 1.4721)
(1.89785e-16 -0.837093 3.33353)
(8.23601e-17 -1.00114 3.32853)
(4.04444e-17 -1.12088 3.63256)
(4.32603e-18 -1.98697 6.3842)
(-1.75995e-16 -2.63315 5.98392)
(-1.37427e-17 -2.78612 6.17876)
(3.58568e-16 -4.07249 8.97811)
(3.877e-16 -4.26035 6.94543)
(2.53766e-16 -4.90259 6.90342)
(-4.33792e-17 -4.90649 6.76612)
(-6.7559e-16 -6.8466 9.42094)
(-1.08631e-15 -6.32899 7.21374)
(-1.54496e-15 -6.87265 8.0969)
(-2.00584e-15 -9.80599 13.2974)
(-9.86174e-16 -7.73857 13.1184)
(-1.53138e-15 -7.95636 14.6481)
(-2.74057e-15 -7.7617 14.1791)
(-4.68234e-15 -7.94279 13.7269)
(-6.57443e-15 -7.96925 13.3756)
(-7.30678e-15 -8.13285 13.4279)
(-6.34674e-15 -8.22927 13.8741)
(-4.49966e-15 -8.30226 14.4206)
(2.39953e-16 -8.46952 15.0068)
(-6.56532e-16 -8.04784 13.2565)
(1.66529e-15 -8.06022 12.7405)
(2.49736e-15 -8.03921 12.0797)
(3.25651e-15 -7.97623 11.6747)
(3.83559e-15 -7.85486 11.5987)
(4.16415e-15 -7.72377 11.8309)
(4.01546e-15 -7.5573 12.134)
(3.92643e-15 -7.29979 12.1731)
(3.77828e-15 -7.01049 11.4236)
(4.47503e-15 -2.27604 -0.577185)
(3.51276e-15 -5.42662 3.48111)
(3.60816e-15 -2.61354 -2.46129)
(4.63954e-15 -7.18095 1.03891)
(3.72975e-15 -5.04266 -0.516171)
(2.82669e-15 -4.90918 -0.470531)
(3.67234e-15 -6.21587 -0.813571)
(2.43642e-15 -4.37079 -0.888131)
(3.52127e-15 -5.4612 -1.39)
(2.67306e-15 -4.66196 -1.7906)
(2.02034e-15 -3.75072 -1.62378)
(2.52837e-15 -4.63278 -2.40025)
(1.47079e-15 -2.74007 -1.90572)
(2.06444e-15 -3.3293 -2.96309)
(1.31374e-15 -2.02164 -2.60244)
(7.75228e-16 -1.12547 -1.87297)
(8.89927e-16 -1.24595 -2.79347)
(5.832e-17 -0.243683 -1.30476)
(4.46088e-17 0.455276 -0.857078)
(-6.06721e-16 0.499314 1.46839)
(6.62981e-16 0.357536 1.4189)
(-6.24854e-15 0.564482 3.05019)
(1.51488e-15 0.298505 -1.42793)
(2.11681e-15 -0.108559 -3.38084)
(9.66019e-16 -0.154605 -0.481589)
(1.48522e-15 0.553046 0.433628)
(9.66283e-16 0.31274 -2.20739)
(3.73056e-16 -0.182324 0.323401)
(1.09793e-15 -0.350791 4.12869)
(1.37111e-15 -0.259364 6.2891)
(1.41762e-15 -0.182289 7.72514)
(1.43348e-15 -0.130418 8.99852)
(1.44853e-15 0.00425862 9.67619)
(1.45847e-15 0.170884 8.71324)
(1.56002e-15 0.342292 6.15847)
(1.73405e-15 0.559551 1.95413)
(1.93093e-15 0.663303 -3.89567)
(2.11825e-15 0.589516 -10.0338)
(2.20478e-15 -0.135728 -14.7965)
(1.60877e-15 -0.948929 -10.2123)
(-1.48004e-15 -0.394248 1.47949)
(3.24432e-15 0.836102 -1.16304)
(4.93542e-15 -0.212881 -3.51314)
(3.03414e-15 -0.651073 -1.94935)
(1.9243e-15 0.344849 0.553581)
(1.25679e-15 -0.514818 1.59778)
(1.40122e-15 -0.957165 5.36734)
(1.65748e-15 -0.832316 8.50501)
(1.3745e-15 -0.451457 9.18964)
(1.19615e-15 -0.327495 9.68731)
(1.05468e-15 -0.24451 10.3065)
(9.54596e-16 0.0648995 10.4676)
(1.04223e-15 0.500164 9.61746)
(1.31582e-15 0.988097 7.18665)
(1.7599e-15 1.54036 3.15027)
(2.29437e-15 1.92296 -2.42614)
(2.84579e-15 1.68367 -8.91679)
(2.99374e-15 0.0892206 -12.9865)