/*--------------------------------*- C++ -*----------------------------------*\
| =========                 |                                                 |
| \\      /  F ield         | OpenFOAM: The Open Source CFD Toolbox           |
|  \\    /   O peration     | Version:  4.1                                   |
|   \\  /    A nd           | Web:      www.OpenFOAM.org                      |
|    \\/     M anipulation  |                                                 |
\*---------------------------------------------------------------------------*/
FoamFile
{
    version     2.0;
    format      ascii;
    class       volScalarField;
    location    "21";
    object      p;
}
// * * * * * * * * * * * * * * * * * * * * * * * * * * * * * * * * * * * * * //

dimensions      [0 2 -2 0 0 0 0];

internalField   nonuniform List<scalar> 
1680
(
1537.1
263.782
390.156
-210.774
-330.362
-177.671
-154.626
-142.221
-112.043
-98.3534
-84.8634
-67.713
-59.7292
-45.0094
-47.0886
-45.6308
-41.7471
-43.452
-33.6972
-43.5061
-34.7013
-53.8065
-28.1516
-28.8034
-28.1382
-27.1749
-26.3585
-25.7297
-24.4887
-24.3552
-21.8818
-43.8073
-26.8204
-25.6839
-24.1381
-23.2321
-21.449
-21.4472
-16.6249
-20.9642
-63.6934
-38.4414
-35.8272
-15.729
-19.7775
-19.6399
-15.7459
-5.85448
-7.71257
-7.37433
-5.00138
-5.05541
-5.08096
-4.9807
-5.10078
-4.72926
-4.75855
-4.72153
-4.66988
-4.48075
-40.4267
-62.5373
27.6682
13.2541
18.4579
-0.934456
-101.369
-55.613
7.71536
-6.14463
-11.6917
-31.619
-120.294
-169.748
-158.073
-68.487
-50.314
-21.3771
-5.30175
-68.1305
-81.2476
31.6928
12.8113
13.8405
-2.64115
-106.15
-58.2346
0.732506
-10.8181
-16.7486
-38.8039
-130.086
-178.929
-161.73
-65.0211
-44.0634
-20.0557
-9.64493
-108.227
-107.841
35.8891
12.8519
8.80472
-4.11931
-109.342
-60.8719
-5.90594
-15.2689
-21.3918
-45.2154
-137.022
-185.366
-163.474
-61.9262
-38.8608
-22.4863
-9.75281
-167.59
-147.025
40.0693
13.1021
3.59773
-5.27406
-110.977
-63.3225
-11.9309
-19.3594
-25.5241
-50.6871
-140.908
-189.131
-163.538
-59.7442
-34.1646
-26.4242
-7.14936
-257.57
-206.213
42.9432
14.1373
-1.45175
-5.5984
-110.328
-64.1128
-17.0945
-22.9888
-29.0641
-55.1303
-141.758
-190.424
-162.408
-58.601
-31.7667
-29.2607
-12.0254
-396.229
-297.223
39.9382
16.6862
-5.97169
-4.75338
-107.513
-62.381
-21.194
-26.045
-31.9641
-58.512
-139.608
-189.468
-159.984
-56.9242
-31.5737
-29.3006
-27.1123
-608.921
-431.891
24.8954
21.8437
-10.0756
-2.92737
-103.147
-58.7383
-24.0655
-28.4752
-34.2183
-60.8368
-135.137
-186.116
-155.594
-54.6655
-30.9354
-29.5172
-31.078
-918.668
-617.36
-7.90632
31.0636
-14.5378
-0.0800498
-97.4532
-54.0998
-25.5856
-30.1902
-35.8245
-62.1084
-129.765
-179.9
-149.562
-52.2997
-30.588
-29.8274
-32.44
-1343.54
-853.959
-63.8225
45.424
-19.9115
3.52275
-90.8036
-49.0038
-25.9138
-30.8748
-36.8709
-62.2677
-123.899
-171.771
-142.647
-49.9086
-30.1966
-29.1319
-35.505
-1884.96
-1140.24
-150.005
65.076
-25.9361
6.91343
-83.9894
-43.6891
-25.2637
-30.3076
-37.1625
-61.2721
-117.541
-162.158
-134.866
-47.5674
-29.8297
-28.913
-38.0559
-2574.87
-1477.89
-276.51
88.7582
-31.9207
9.16875
-77.5442
-38.45
-23.8025
-28.5246
-36.5108
-59.4881
-110.487
-151.07
-125.715
-45.3531
-29.372
-27.9822
-40.1987
-3387.33
-1867.4
-454.236
116.03
-37.1421
9.73916
-71.7385
-33.5329
-21.631
-25.4429
-34.4436
-56.2317
-101.858
-138.147
-115.304
-43.2663
-28.5385
-27.1619
-44.0404
-4416.55
-2287.49
-678.156
141.899
-40.4069
8.70859
-66.4146
-29.1213
-19.1167
-21.8093
-31.9355
-52.5969
-93.0176
-125.307
-105.103
-41.2175
-27.19
-25.7858
-47.4517
-5234.93
-2659.8
-867.391
150.611
-40.1967
6.94321
-61.0416
-25.0495
-15.9687
-16.6865
-27.1754
-46.1937
-82.1214
-111.333
-95.2928
-39.4499
-25.6252
-24.5623
-53.2568
-6260.42
-2824.11
-900.947
135.249
-38.0258
4.42187
-56.1287
-21.5396
-13.4091
-13.3815
-25.2607
-43.4693
-75.2678
-101.755
-88.6796
-37.3205
-22.9303
-23.8542
-52.8364
-5527.43
-2664.33
-835.448
96.1029
-37.3001
0.299087
-52.1559
-17.6652
-8.84177
-4.76698
-14.6617
-30.6333
-60.2059
-86.2169
-77.6369
-33.2843
-17.7372
-19.5011
-76.1404
-7483.31
-2273.91
-752.656
44.2343
-31.1731
-1.80825
-43.6981
-14.8553
-8.73456
-9.26076
-22.8021
-38.7424
-63.1028
-85.5306
-80.5916
-35.2966
-16.4127
-33.594
-37.8726
-2257.93
158.979
-261.482
-2.98235
-18.5649
0.523168
-30.3002
-8.83499
2.19021
16.2876
13.8652
1.31223
-27.6493
-57.1303
-57.5911
-17.1474
-20.5486
-15.7177
-200.163
-12842.3
1394.94
113.11
-41.0459
-53.2297
-11.4423
-43.1966
-10.6313
-12.584
-32.2114
-51.2937
-61.8094
-69.2615
-77.3047
-76.2532
-31.091
53.932
-96.1193
151.944
15453.8
-6149.56
-740.139
-69.8194
-97.9275
-27.1222
-51.0264
4.32831
29.7006
91.6885
115.572
101.093
46.6652
-2.48485
-28.1334
-5.37716
-65.7816
219.069
-1042.37
53.0584
52.7592
52.6352
52.0952
51.5306
50.8742
50.1921
49.4713
48.7509
48.0408
47.3365
46.6813
45.8593
44.9778
44.1834
43.3845
42.6705
41.8569
41.3368
40.1887
38.3569
38.7462
38.9438
39.1576
39.3309
39.4483
39.5401
39.5766
39.5895
39.5533
39.4973
39.4035
39.2678
39.1017
38.9315
38.7312
38.5499
38.3375
38.1574
37.9084
45.725
45.493
45.3919
45.2335
45.1158
44.9696
44.8393
44.691
44.5487
44.3919
44.2387
44.0693
43.9088
43.7265
43.5584
43.3644
43.2005
42.9956
42.8543
42.5935
43.5754
43.5761
43.5844
43.57
43.5731
43.5519
43.5415
43.5131
43.4898
43.4524
43.4179
43.3706
43.3277
43.2702
43.2236
43.1558
43.1106
43.0338
42.9925
42.8939
45.3704
45.2716
45.2395
45.1657
45.1224
45.0569
45.0076
44.9455
44.8925
44.8309
44.7758
44.7129
44.6577
44.5918
44.539
44.4681
44.4218
44.3426
44.3082
44.2066
45.5401
45.484
45.4706
45.4241
45.4023
45.3603
45.3324
45.2926
45.2607
45.2212
45.1872
45.1465
45.1123
45.0689
45.0369
44.9885
44.9623
44.9056
44.8898
44.8175
46.3556
46.2851
46.2653
46.2105
46.1816
46.1336
46.1
46.0558
46.0197
45.9774
45.9404
45.8985
45.8622
45.8188
45.7857
45.7382
45.7114
45.656
45.6408
45.5703
46.878
46.817
46.8007
46.7523
46.7279
46.6855
46.6564
46.6176
46.5859
46.5488
46.5161
46.4794
46.4472
46.4092
46.3798
46.3378
46.3144
46.2646
46.2522
46.1886
47.4911
47.4298
47.4127
47.3646
47.3396
47.2976
47.2684
47.2301
47.1985
47.1623
47.1297
47.0943
47.0623
47.0258
46.9965
46.9564
46.9331
46.8854
46.873
46.8117
48.0368
47.9792
47.9631
47.9176
47.894
47.8545
47.8267
47.7907
47.7606
47.7267
47.6955
47.6625
47.6316
47.5978
47.5693
47.5321
47.5093
47.4646
47.4525
47.3944
48.579
48.5236
48.5077
48.4639
48.4409
48.4028
48.3759
48.3413
48.3121
48.2796
48.2492
48.2179
48.1876
48.1558
48.1275
48.0926
48.0698
48.0277
48.0154
47.9599
49.0913
49.0386
49.0233
48.9817
48.9596
48.9233
48.8975
48.8646
48.8366
48.8058
48.7765
48.747
48.7175
48.6879
48.66
48.6277
48.605
48.5657
48.5532
48.5006
49.5846
49.5344
49.5194
49.4797
49.4583
49.4237
49.3988
49.3673
49.3404
49.3111
49.2829
49.2551
49.2263
49.1988
49.1712
49.1416
49.1186
49.0823
49.0695
49.0197
50.0562
50.0087
49.9939
49.9561
49.9354
49.9023
49.8784
49.8483
49.8224
49.7944
49.7672
49.7408
49.7128
49.6872
49.6597
49.6328
49.6093
49.5763
49.5628
49.5159
50.5073
50.4629
50.4486
50.4131
50.3934
50.362
50.3394
50.3108
50.2861
50.2596
50.2335
50.2085
50.1813
50.1576
50.1301
50.1059
50.0814
50.0517
50.037
49.9931
50.9268
50.8859
50.872
50.839
50.8212
50.7918
50.7711
50.7451
50.7221
50.698
50.6741
50.6512
50.6262
50.6049
50.5784
50.5579
50.5326
50.5073
50.4913
50.4514
51.3214
51.2839
51.269
51.2366
51.2201
51.1915
51.1712
51.1467
51.1244
51.1016
51.079
51.0574
51.0345
51.0149
50.9902
50.974
50.9481
50.9296
50.9134
50.879
51.7197
51.6923
51.6809
51.6484
51.6353
51.6097
51.5899
51.5673
51.5449
51.5219
51.4983
51.4743
51.4491
51.4251
51.3967
51.3764
51.3422
51.3269
51.3006
51.2628
51.9931
51.984
51.999
51.9784
51.9785
51.9711
51.9664
51.9611
51.9554
51.949
51.9413
51.9317
51.9197
51.9049
51.8845
51.8635
51.8249
51.8035
51.7315
51.6746
51.9583
51.9
51.9381
51.9488
51.9663
51.984
52.0028
52.0235
52.0462
52.0712
52.099
52.1301
52.1648
52.2036
52.247
52.296
52.3487
52.4173
52.4586
52.6218
-4.44299
-4.17325
-4.30462
-5.11012
-6.12511
-7.93769
-8.3906
-8.32753
-7.73243
-7.36517
-10.7144
-8.78913
-6.6895
-18.1597
-21.275
-16.9096
-10.7309
-38.1269
-30.1832
-37.6153
-27.4846
-27.4621
-35.3173
-40.495
-44.8097
-47.2021
-47.7541
-45.359
-54.602
-30.7055
-29.2711
-27.6464
-26.9524
-26.6537
-26.4559
-26.7731
-29.8461
-35.2824
-78.7248
-45.1374
-60.3371
-39.107
-57.7187
-49.2877
-53.2962
-48.129
-42.8255
-50.1463
-46.8347
-49.0217
-47.3428
-47.8158
-53.2034
-52.8373
-53.4115
-55.6574
-55.6877
-55.4662
-55.0455
-55.1466
12.5016
11.0091
12.4635
12.7308
13.7006
11.2077
5.55517
3.22238
19.2971
22.2633
21.3098
27.4641
22.2074
8.56202
-9.0581
-48.9622
-88.7844
-76.5263
-61.6437
12.383
10.8551
12.4292
12.6254
13.6706
11.0375
5.22518
2.74937
19.3438
22.4474
21.1192
27.2656
21.814
8.28019
-9.22264
-50.7022
-92.469
-79.3755
-62.698
12.0902
10.5471
12.3689
12.2209
13.3017
10.5589
4.97469
2.28184
19.3632
22.6608
20.8991
26.936
21.1564
7.97664
-9.5463
-52.6099
-98.0808
-87.9617
-63.8391
11.6019
10.083
12.3321
11.5912
12.7832
10.0282
4.75279
1.81593
18.725
22.6484
20.9535
26.481
20.4096
7.74005
-9.92972
-55.0407
-104.488
-97.2123
-64.8466
10.8744
9.49589
12.3821
11.0276
12.3045
9.60439
4.54237
1.45681
17.411
22.5164
21.2014
26.1037
19.7666
7.65109
-10.4661
-57.6578
-110.869
-106.215
-67.1553
9.82866
8.769
12.4501
10.6747
11.979
9.36125
4.4402
1.19026
16.1393
22.1189
21.7531
26.2666
19.4876
7.60127
-11.2807
-60.2218
-116.683
-114.384
-69.4864
8.42112
7.77943
12.5908
10.3503
11.9373
9.36142
4.39483
0.867437
15.2773
21.582
22.6646
27.2046
19.5822
7.21598
-12.4022
-62.6355
-121.268
-120.684
-71.1361
6.62724
6.33323
12.8244
10.0565
12.1043
9.54073
4.27391
0.416292
14.6056
20.9201
23.7555
28.8542
19.7024
6.0181
-14.167
-64.7547
-124.378
-125.024
-72.8686
4.40337
4.02163
13.1908
9.65837
12.37
9.73038
3.97632
-0.118259
14.0983
20.1448
24.6218
30.5069
19.3995
3.54618
-17.1652
-66.3098
-126.205
-127.154
-74.3632
1.67753
0.515789
13.8233
8.96042
12.7941
9.85842
3.31744
-0.715876
13.8498
19.272
24.9712
31.5996
18.2116
-0.808542
-21.915
-67.334
-126.521
-127.222
-73.959
-1.75729
-4.26151
14.7537
7.94635
13.6261
10.002
1.9941
-1.53067
14.0601
18.2796
24.8193
31.9904
15.3117
-7.85685
-29.1215
-67.9982
-124.714
-125.404
-73.0333
-6.19307
-9.75536
15.9983
6.71138
14.8774
9.99572
-0.474584
-2.98068
14.8002
17.1697
24.3853
31.1268
9.85091
-18.3284
-39.302
-68.57
-121.251
-121.493
-68.9595
-11.8228
-14.1697
17.3942
4.94776
16.4924
9.50558
-4.94714
-5.74632
16.1739
15.9116
23.4306
28.6326
1.26902
-32.4188
-52.5251
-69.6384
-118.087
-115.86
-68.0733
-18.3313
-15.284
18.3311
2.55457
18.9512
9.14566
-12.5995
-10.4181
18.8605
14.3458
21.8155
24.0721
-10.2749
-49.6359
-68.1016
-71.3573
-114.238
-109.654
-58.8918
-23.5435
-14.8465
18.8273
3.24849
22.9183
8.5198
-24.5258
-17.35
23.0274
12.6744
19.3005
17.5167
-24.2219
-69.1185
-84.9829
-73.0162
-104.566
-100.651
-54.8617
-25.3745
-16.4205
19.981
8.96869
27.3258
7.07454
-40.8326
-26.6069
26.836
11.1877
15.4891
9.74371
-40.1705
-90.2575
-102.465
-74.5458
-90.8251
-82.9731
-32.3436
-24.3207
-20.7852
22.5532
13.6456
29.8842
5.03758
-59.2121
-36.8827
28.096
9.28657
10.4893
1.42271
-57.7949
-111.996
-119.73
-75.4509
-76.9516
-62.3985
-16.1754
-22.3599
-27.4963
24.2256
14.6595
29.0488
3.39806
-75.0991
-45.7356
25.7817
6.67678
4.94918
-7.09898
-76.086
-131.645
-134.682
-75.2839
-66.0133
-43.3947
-10.5265
-21.9501
-36.1702
24.5874
14.0934
26.4458
2.15962
-86.3327
-50.7595
20.8993
3.00409
-0.721514
-15.589
-93.2292
-146.847
-145.409
-73.8677
-59.326
-29.9157
-8.0606
-25.8876
-47.9662
25.2375
13.7565
22.7502
0.721524
-94.6471
-53.1691
14.6291
-1.43871
-6.315
-23.8268
-108
-158.874
-152.697
-71.5561
-55.1398
-23.6773
-6.2656
715.228
633.063
584.172
528.298
479.593
432.609
388.91
347.616
308.713
271.907
237.022
203.867
172.254
142.135
113.586
85.8435
58.9177
36.6442
11.713
-24.3204
34.5449
12.3885
20.6446
9.82674
7.32256
0.893107
-3.82731
-8.90195
-13.2738
-17.1776
-20.351
-22.7254
-24.1359
-24.3787
-23.2465
-20.985
-17.9518
-13.8223
-9.87944
-8.61069
22.4457
14.9224
22.8554
15.535
17.3638
13.7293
12.2763
9.5022
7.03181
4.26192
1.50253
-1.25988
-3.849
-6.02975
-7.56922
-8.6609
-9.53612
-10.3611
-11.949
-13.8119
2.1972
-4.05701
-2.75261
-10.6485
-11.6705
-17.5804
-20.8415
-25.5289
-29.476
-33.6884
-37.6457
-41.5057
-45.0146
-47.9369
-49.9641
-51.2737
-52.2164
-52.938
-54.1814
-53.2499
-38.7226
-42.8698
-40.8655
-45.2358
-43.6179
-46.6348
-46.4692
-48.045
-48.5616
-49.4141
-49.9326
-50.3419
-50.4618
-50.1393
-49.2141
-47.6544
-46.1493
-44.399
-43.0621
-39.7797
-26.7181
-27.3905
-23.7205
-25.3418
-21.6256
-22.212
-19.7223
-18.9542
-17.2296
-15.8251
-14.2414
-12.6368
-10.9835
-9.23787
-7.40823
-5.35793
-3.2649
-0.688388
1.62767
5.10429
4.82242
6.02399
9.42827
8.84567
12.4688
12.6453
15.1999
16.4319
18.304
19.9754
21.7091
23.4628
25.2127
26.9774
28.7367
30.5613
32.3839
34.4296
36.1159
38.1926
31.5249
33.1937
35.7256
35.5881
38.5545
38.8877
41.0823
42.0976
43.6053
44.7312
45.7276
46.4279
46.8397
47.0329
47.2583
47.7953
48.8619
50.2781
51.4353
52.3544
47.1046
48.1283
49.3579
48.9778
50.6943
50.3999
51.6215
51.6837
52.2449
52.2788
52.307
52.1349
51.9303
51.6961
51.4497
51.1339
50.6952
49.8908
49.707
48.7962
54.4477
52.4803
52.8036
51.0045
51.4572
50.0517
50.1262
49.076
48.615
47.5388
46.3944
44.6581
42.3815
39.388
35.8627
32.1506
29.0929
27.8964
27.4082
23.4458
7.19039
1.37199
-0.364978
-4.93373
-7.35918
-11.7017
-14.9042
-19.175
-22.8268
-26.7496
-30.0484
-33.0121
-35.2845
-36.9296
-37.7881
-38.0265
-37.8916
-37.6305
-38.489
-39.7701
-36.8626
-41.7891
-42.6859
-45.8682
-47.2749
-50.1229
-51.8462
-54.3256
-56.1174
-57.957
-59.2688
-60.3406
-61.1107
-61.6841
-62.0545
-62.2705
-62.2726
-61.8131
-61.2022
-58.2445
-39.5472
-40.0924
-39.3928
-40.133
-39.5147
-39.9657
-39.6022
-39.8071
-39.686
-39.698
-39.5487
-39.2943
-38.8511
-38.1388
-37.0936
-35.458
-33.3595
-30.3332
-27.9782
-24.5588
-17.573
-15.5954
-13.2262
-11.8166
-9.80429
-8.45046
-6.66716
-5.14855
-3.49888
-1.88526
-0.239848
1.44503
3.17044
4.97342
6.81629
8.77009
10.6625
12.6706
14.1616
16.3953
0.970409
3.46288
6.00337
8.01299
10.0865
11.6466
13.3916
14.8955
16.4084
17.8382
19.2162
20.553
21.8422
23.108
24.325
25.5604
26.7103
27.996
28.9166
30.2439
22.4719
24.7779
26.2468
27.7713
29.2004
30.347
31.6386
32.7495
33.889
34.9688
36.0199
37.0432
38.0413
39.0338
40.0415
41.1349
42.2563
43.5587
44.5149
45.7847
41.8111
43.6253
44.1274
45.2078
45.9566
46.6818
47.4398
48.025
48.5722
48.9676
49.2497
49.4249
49.5671
49.7917
50.2665
51.0371
52.1108
53.231
54.0963
54.738
61.1409
61.2903
60.0836
60.1168
59.8658
59.7266
59.5333
59.3679
59.265
59.1706
59.0956
58.9905
58.7969
58.3451
57.5333
56.4242
55.4281
54.4676
54.3241
53.266
52.07
51.646
50.306
49.937
49.2528
48.8868
48.6943
48.5185
48.1878
47.537
46.3749
44.4671
41.604
37.9103
33.9518
30.5108
28.0523
26.6588
26.5455
24.6709
64.2683
62.3333
61.8158
60.0967
57.7089
54.9364
51.5558
47.7591
43.7756
39.7506
35.7295
32.1075
28.5692
25.3695
22.8741
20.8439
18.9534
17.1927
15.8717
13.6035
)
;

boundaryField
{
    outletWallLeft
    {
        type            fixedValue;
        value           uniform 0;
    }
    fineWallsLeft
    {
        type            zeroGradient;
    }
    fineFrontAndBackLeft
    {
        type            zeroGradient;
    }
    fineplugLeft
    {
        type            cyclicAMI;
        value           nonuniform List<scalar> 
20
(
35.5065
40.3808
36.4778
35.9155
35.5968
35.2643
34.882
34.4311
34.103
33.5616
33.4929
36.1704
31.3233
30.8454
30.5191
30.0612
29.8466
29.1961
29.7444
27.9582
)
;
    }
    symmetryWallLeft
    {
        type            cyclicAMI;
        value           nonuniform List<scalar> 
20
(
-4.46187
-5.78367
-22.5272
-52.7269
-70.0215
-155.385
-164.311
-114.147
-27.7229
-9.00336
-3.79167
11.1722
-54.3911
-98.008
-0.106466
20.604
13.5053
26.4529
-55.2517
-33.1571
)
;
    }
    inletOutletLeft
    {
        type            cyclicAMI;
        value           nonuniform List<scalar> 
20
(
27.9582
29.7444
29.1961
29.8466
30.0612
30.5191
30.8454
31.3233
36.1704
33.4929
33.5616
34.103
34.4311
34.882
35.2643
35.5968
35.9155
36.4778
40.3808
35.5065
)
;
    }
    inletLeft
    {
        type            zeroGradient;
    }
    inletWallsLeft
    {
        type            zeroGradient;
    }
    inletFacesLeft
    {
        type            zeroGradient;
    }
    fineWallsRight
    {
        type            zeroGradient;
    }
    outletWallRight
    {
        type            zeroGradient;
    }
    fineplugRight
    {
        type            cyclicAMI;
        value           nonuniform List<scalar> 
20
(
5.38584
7.20492
6.69068
7.06372
7.71317
8.85889
10.7448
13.7835
22.0356
22.4425
25.9463
29.4912
32.8168
35.9139
38.6579
40.8125
42.1082
42.3961
45.9484
42.3872
)
;
    }
    fineFrontAndBackRight
    {
        type            zeroGradient;
    }
    symmetryWallRight
    {
        type            cyclicAMI;
        value           nonuniform List<scalar> 
20
(
-4.46187
-5.78367
-22.5272
-52.7269
-70.0215
-155.385
-164.311
-114.147
-27.7229
-9.00336
-3.79167
11.1722
-54.3911
-98.008
-0.106466
20.604
13.5053
26.4529
-55.2517
-33.1571
)
;
    }
    inletOutletRight
    {
        type            cyclicAMI;
        value           nonuniform List<scalar> 
20
(
5.38584
7.20492
6.69068
7.06372
7.71317
8.85889
10.7448
13.7835
22.0356
22.4425
25.9463
29.4912
32.8168
35.9139
38.6579
40.8125
42.1082
42.3961
45.9484
42.3872
)
;
    }
    inletRight
    {
        type            zeroGradient;
    }
    inletWallsRight
    {
        type            zeroGradient;
    }
    inletFacesRight
    {
        type            zeroGradient;
    }
}


// ************************************************************************* //
