/*--------------------------------*- C++ -*----------------------------------*\
| =========                 |                                                 |
| \\      /  F ield         | OpenFOAM: The Open Source CFD Toolbox           |
|  \\    /   O peration     | Version:  4.1                                   |
|   \\  /    A nd           | Web:      www.OpenFOAM.org                      |
|    \\/     M anipulation  |                                                 |
\*---------------------------------------------------------------------------*/
FoamFile
{
    version     2.0;
    format      ascii;
    class       surfaceScalarField;
    location    "21";
    object      phi;
}
// * * * * * * * * * * * * * * * * * * * * * * * * * * * * * * * * * * * * * //

dimensions      [0 3 -1 0 0 0 0];

internalField   nonuniform List<scalar> 
3120
(
-11721.6
-68042
-11721.6
6203.78
-17925.4
6203.77
8127.33
-1923.55
7092.79
1034.54
7092.79
8558.85
-1466.06
10045.6
-1486.78
10045.6
11491.2
-1445.53
11491.2
12140.2
-649.038
12054.8
85.4355
12054.8
11628.6
426.228
11628.6
11398.3
230.301
10101.1
1297.2
10101.1
10676.3
11678.2
-8.01854
12672.7
13640
14608.7
15583.5
16564.5
17551.5
18544.6
19543.7
20549
17912.7
3639.58
18936.7
19966
20997.5
22031.5
23065.7
24120.1
25215.7
25969.6
19724.2
6245.46
19724.1
19724.2
12583.7
7140.47
12583.7
12583.7
12583.7
5610.4
6973.29
5610.42
5610.42
478.194
5132.28
478.307
478.443
478.508
-26.3977
505.035
-26.229
-26.0305
-25.9055
-20.8412
-4.89238
-4796.51
16323.6
-5587.17
4664.25
-2293.33
-21007.4
-163.913
-8831.15
14.2781
-15817.5
1869.7
-29247.8
3265.42
-9331.71
1319.43
19936.3
-1943.53
26264.4
-2967.29
24226.4
-3640.09
26015
-4896.96
30592.1
-5403.5
28546.1
-4668.24
5404.34
-4178.46
-17730.6
-4921.28
-25861.9
-6809.54
-19095.5
-4813.34
-10570.4
-4544.75
-4952.04
21827.1
-6183.69
5895.9
-2256.12
-24935
137.085
-11224.4
-335.619
-15344.8
1316.99
-30900.4
2780.35
-10795.1
949.251
21767.4
-1851.34
29065
-2759.38
25134.5
-3313.62
26569.3
-4201.29
31479.8
-4346.64
28691.5
-3631.73
4689.44
-3308.88
-18053.5
-4298.69
-24872
-7263.09
-16131
-7085.36
-10748.1
-11125
-6161.51
28626.2
-7090.56
6824.94
-2314.83
-29710.7
390.679
-13929.9
-532.441
-14421.6
858.502
-32291.3
2332.88
-12269.5
709.833
23390.4
-1683.55
31458.4
-2556.66
26007.6
-2956.3
26968.9
-3444.4
31967.9
-3242.99
28490.1
-2551.58
3998.02
-2416.42
-18188.6
-3498.91
-23789.6
-6674.95
-12955
-8066.69
-9356.32
-14059.4
-8073.62
37424.8
-8469.96
7221.28
-2891.66
-35289
470.59
-17292.1
-509.904
-13441.1
355.186
-33156.4
1779.03
-13693.3
527.033
24642.4
-1483.32
33468.7
-2360.08
26884.4
-2596.99
27205.8
-2662.94
32033.8
-2112.1
27939.2
-1505.16
3391.08
-1572.37
-18121.4
-2590
-22771.9
-5271.55
-10273.4
-7556.71
-7071.15
-14642.8
-10602.6
48853.5
-10483.7
7102.34
-3975.56
-41797.1
386.473
-21654.2
-300.265
-12754.4
-170.951
-33285.7
1162.44
-15026.7
371.694
25433.2
-1258.03
35098.5
-2156.03
27782.3
-2249.16
27299
-1884.26
31668.9
-983.745
27038.7
-523.486
2930.82
-764.312
-17880.6
-1728.58
-21807.6
-2929.04
-9072.98
-5012.82
-4987.38
-12515.2
-13609.9
63416.5
-12972.8
6465.26
-5337.85
-49432.1
197.084
-27189.1
91.2545
-12648.6
-602.483
-32592
603.811
-16233
250.968
25786
-987.361
36336.8
-1908.27
28703.3
-1900.7
27291.4
-1116.1
30884.3
101.142
25821.5
399.513
2632.45
18.052
-17499.1
-1240.62
-20549
-1171.61
-9141.99
-1727.88
-4431.09
-7997.62
-16609.2
81146.8
-15364.1
5220.1
-6631.25
-58164.9
-60.9013
-33759.4
620.737
-13330.2
-887.703
-31083.5
138.204
-17258.9
183.841
25740.4
-637.781
37158.4
-1563.03
29628.5
-1528.91
27257.3
-363.611
29719
1045.85
24412
1375.64
2302.66
784.527
-16908
-797.009
-18967.4
-941.898
-8997.11
145.969
-5518.96
-4212.09
-19124.3
101601
-17041
3136.71
-7414.38
-67791.4
-366.914
-40806.9
1153
-14850.1
-1056.58
-28874
-254.806
-18060.7
187.567
25298
-184.698
37530.7
-1058.99
30502.8
-1097.59
27295.9
338.112
28283.3
1937.55
22812.6
2296.56
1943.66
1528.4
-16139.9
-212.919
-17226.1
-298.591
-8911.43
419.877
-6237.42
-3800.23
-21069.1
124241
-17711.2
-221.132
-7275.91
-78226.7
-604.091
-47478.7
1536.6
-16990.8
-1159.29
-26178.1
-579.396
-18640.6
267.375
24451.2
362.659
37435.4
-336.95
31202.4
-489.867
27448.8
1005.57
26787.9
2736.06
21082.1
3155.17
1524.54
2256.18
-15240.9
432.843
-15402.8
354.911
-8833.5
143.631
-6026.15
-2359.44
-22689.6
148755
-17600.9
-5309.84
-6043.48
-89784.2
-608.997
-52913.2
1658.25
-19258.1
-1261.89
-23257.9
-843.788
-19058.7
405.678
23201.8
954.663
36886.4
611.809
31545.3
474.34
27586.3
1816.53
25445.7
3582.45
19316.2
4056.12
1050.87
2964.89
-14149.6
1123.99
-13561.9
998.046
-8707.55
1253.71
-6281.81
-875.434
-24028.9
174891
-17060.9
-12277.8
-3893.18
-102952
-287.638
-56518.8
1476.62
-21022.3
-1404.29
-20377
-1063.34
-19399.6
568.642
21569.8
1538.17
35916.9
1640.16
31443.3
1755.49
27470.9
2942.32
24258.8
4649.73
17608.7
5047.2
653.403
3629.19
-12731.6
1828.21
-11760.9
1763.44
-8642.78
1648.11
-6166.5
1198.85
-24204.2
201496
-15682.5
-20799.5
-1205.12
-117429
313.819
-58037.7
1044.27
-21752.8
-1564.8
-17768
-1260.74
-19703.7
712.801
19596.2
2073.53
34556.2
2564.5
30952.3
3040.82
26994.6
4223.84
23075.8
5803.07
16029.5
5958.05
498.434
4214.77
-10988.4
2521.48
-10067.6
2531.95
-8653.24
2382.01
-6016.55
3666.28
-21654.3
225943
-12189.6
-30264.2
1715.93
-131335
1028.33
-57350.1
520.158
-21244.6
-1676.2
-15571.6
-1455.3
-19924.6
796.901
17344
2539.68
32813.4
3316.11
30175.9
4060.44
26250.3
5297.49
21838.8
6699.17
14627.8
6582.75
614.853
4721.49
-9127.1
3197.29
-8543.4
3229.55
-8685.51
2892.42
-5679.44
5909.63
-14571.5
243592
-5038.91
-39796.8
4676.11
-141050
1524.23
-54198.2
85.5956
-19806
-1698.06
-13787.9
-1664.25
-19958.4
778.47
14901.3
2910.4
30681.4
3907.81
29178.5
4764.18
25393.9
5979.21
20623.7
7196.47
13410.6
6946.53
864.802
5209.35
-7389.91
3904.94
-7238.98
3867.4
-8647.97
3328.02
-5140.05
7792.11
-3315.89
250499
5715.97
-48828.7
7507.16
-142841
1501.96
-48193
-279.522
-18024.5
-1661.51
-12406
-1890.08
-19729.8
646.741
12364.5
3187.48
28140.7
4414.81
27951.1
5290.84
24517.9
6367.54
19547
7381.33
12396.8
7143.7
1102.42
5711.59
-5957.8
4758.46
-6285.86
4656.98
-8546.5
3757.26
-4240.36
10062.6
9517.78
244114
17421.7
-56732.6
9973.74
-135393
1065.7
-39285
-584.098
-16374.7
-1603.34
-11386.7
-2191.38
-19141.8
311.254
9861.86
3291.69
25160.3
4799.75
26443.1
5735.84
23581.8
6685.73
18597.1
7558.76
11523.8
7464.02
1197.17
6396.89
-4890.66
5972.75
-5861.71
5948.64
-8522.37
4987.53
-3279.25
13584.1
21425.9
227029
27189.9
-62496.6
11003.5
-119207
257.939
-28539.4
-751.663
-15365.1
-1531.5
-10606.9
-2511.79
-18161.5
-124.575
7474.65
3367.01
21668.7
5187.7
24622.4
6211.44
22558
7007.94
17800.6
7729.37
10802.3
7870.74
1055.79
7340.98
-4360.9
7921.67
-6442.41
7917.17
-8517.88
4622.46
15.4432
19241
27047.8
201400
35319.1
-70767.9
9488.52
-93376
-1029.08
-18021.8
-792.768
-15601.4
-1473.27
-9926.37
-2706.91
-16927.8
-709.807
5477.55
2969.99
17988.9
5244.59
22347.8
6765.26
21037.4
7890.56
16675.3
8833.37
9859.52
9251.35
637.815
9753.9
-4863.45
11510.5
-8198.97
13369.5
-10377
10519
2865.98
27836.5
53676.3
156557
35412.8
-52504.4
2241.02
-60204.2
-2583.22
-13197.6
-802.706
-17381.9
-1284.37
-9444.7
-2833.76
-15378.4
-651.941
3295.73
3058.84
14278.1
4846.08
20560.5
5698.35
20185.1
6147.99
16225.7
7326.76
8680.74
10351.9
-2387.29
13791.3
-8302.84
14789.6
-9197.27
2777.5
1635.09
-4715.59
10359.1
5195.52
-85052
11701.9
-3561.42
-1599.1
-576.416
-661.608
-4624.13
-3830.77
2371.11
7978.05
13152.5
16997.7
19397
17743.4
14213.1
6718.28
20273
8166.58
-23.3319
-551.842
33.8138
-1051.08
83.762
-1044.38
121.285
-1004.88
153.454
-1000.89
179.754
-1001.07
200.347
-1001.61
214.959
-1001.59
223.938
-1002.12
227.727
-1002.86
226.092
-1003.65
224.605
-1001.75
205.078
-1004.52
183.48
-1007.64
161.69
-1009.75
140.302
-1012.6
120.013
-1013.84
106.24
-1040.72
92.567
-1081.86
-661.382
40.942
-592.782
45.9211
-1056.06
35.1301
-1033.58
31.0443
-1000.79
30.511
-1000.36
30.422
-1000.98
30.6935
-1001.88
31.2442
-1002.14
32.0813
-1002.95
32.635
-1003.41
33.2072
-1004.22
37.2711
-1005.82
38.6187
-1005.87
37.7753
-1006.8
35.4222
-1007.39
31.3571
-1008.54
26.5802
-1009.06
19.9122
-1034.05
10.884
-1072.83
-650.498
26.9178
-619.699
30.6679
-1059.81
26.2847
-1029.2
25.6578
-1000.16
25.4323
-1000.13
24.907
-1000.45
24.1648
-1001.14
23.2182
-1001.19
22.0186
-1001.75
20.6741
-1002.07
19.0248
-1002.57
16.1012
-1002.89
13.7475
-1003.51
11.2691
-1004.32
8.53547
-1004.66
5.45161
-1005.45
1.9514
-1005.56
-2.10411
-1029.99
-5.21983
-1069.71
-655.718
24.0967
-643.796
25.1273
-1060.84
19.7129
-1023.79
17.6129
-998.065
16.102
-998.618
14.5652
-998.913
13.0165
-999.591
11.4705
-999.648
9.8866
-1000.17
8.2105
-1000.39
6.47444
-1000.83
4.84222
-1001.26
2.90071
-1001.57
0.731818
-1002.15
-1.57322
-1002.35
-4.11785
-1002.91
-6.84392
-1002.84
-11.2589
-1025.58
-13.52
-1067.45
-669.238
22.4405
-666.236
22.1466
-1060.54
17.0815
-1018.72
14.9273
-995.911
13.0398
-996.731
11.0873
-996.96
9.10229
-997.605
7.12706
-997.672
5.13098
-998.173
3.12994
-998.39
1.10444
-998.807
-1.01596
-999.14
-3.09962
-999.489
-5.24771
-1000
-7.39785
-1000.2
-9.608
-1000.7
-11.9646
-1000.48
-16.4769
-1021.07
-18.1192
-1065.81
-687.357
21.5818
-687.818
20.4768
-1059.44
15.6898
-1013.93
13.6425
-993.863
11.7684
-994.856
9.8457
-995.037
7.88158
-995.641
5.91901
-995.71
3.92747
-996.182
1.91847
-996.381
-0.108724
-996.78
-2.1578
-997.091
-4.22742
-997.42
-6.35682
-997.871
-8.4749
-998.083
-10.6283
-998.544
-12.875
-998.232
-17.5129
-1016.43
-19.5594
-1063.76
-706.917
21.2162
-709.034
19.3426
-1057.57
14.7624
-1009.35
12.7611
-991.862
10.8687
-992.964
8.93792
-993.107
6.97385
-993.677
5.0202
-993.756
3.04559
-994.207
1.06759
-994.403
-0.9208
-994.792
-2.93253
-995.079
-4.93586
-995.417
-6.98067
-995.826
-8.99929
-996.064
-11.0389
-996.504
-13.1191
-996.152
-17.5515
-1012
-20.0936
-1061.22
-727.01
20.944
-729.978
18.4131
-1055.04
14.0877
-1005.03
12.2016
-989.976
10.3621
-991.125
8.49279
-991.237
6.58845
-991.773
4.69409
-991.862
2.77714
-992.29
0.857784
-992.483
-1.07207
-992.862
-3.01859
-993.133
-4.96028
-993.475
-6.9398
-993.847
-8.89098
-994.113
-10.8641
-994.531
-12.8333
-994.183
-17.0711
-1007.76
-20.1972
-1058.09
-747.207
20.7592
-750.737
17.5743
-1051.85
13.4951
-1000.95
11.7018
-988.183
9.91336
-989.336
8.10244
-989.426
6.25862
-989.929
4.42627
-990.03
2.57187
-990.436
0.717846
-990.629
-1.14677
-990.997
-3.02534
-991.254
-4.89784
-991.602
-6.8046
-991.94
-8.68212
-992.236
-10.5854
-992.628
-12.4475
-992.32
-16.4446
-1003.76
-20.1645
-1054.37
-767.372
20.5882
-771.325
16.77
-1048.03
12.9497
-997.128
11.2531
-986.486
9.52379
-987.607
7.77919
-987.682
6.00206
-988.152
4.2368
-988.264
2.44876
-988.648
0.662713
-988.843
-1.13545
-989.199
-2.9448
-989.445
-4.75013
-989.797
-6.58714
-990.103
-8.39588
-990.427
-10.2352
-990.789
-12.0036
-990.552
-15.755
-1000.01
-20.0724
-1050.06
-787.444
20.4349
-791.76
15.9879
-1043.58
12.4316
-993.572
10.8227
-984.877
9.15321
-985.938
7.47449
-986.003
5.76412
-986.442
4.06585
-986.566
2.34428
-986.926
0.626297
-987.125
-1.10558
-987.467
-2.84585
-987.704
-4.58451
-988.059
-6.35185
-988.336
-8.09271
-988.686
-9.86862
-989.013
-11.5509
-988.87
-15.0482
-996.512
-19.9621
-1045.14
-807.406
20.2876
-812.048
15.2172
-1038.51
11.9296
-990.284
10.4029
-983.351
8.79485
-984.33
7.1828
-984.391
5.53982
-984.799
3.90889
-984.935
2.25408
-985.272
0.604241
-985.476
-1.06155
-985.802
-2.73276
-986.033
-4.40573
-986.386
-6.10371
-986.638
-7.77809
-987.012
-9.49095
-987.3
-11.0942
-987.267
-14.3345
-993.271
-19.8431
-1039.63
-827.25
20.149
-832.197
14.4568
-1032.82
11.4415
-987.269
9.99074
-981.9
8.44532
-982.784
6.90009
-982.846
5.32465
-983.223
3.76103
-983.372
2.17305
-983.684
0.591045
-983.894
-1.0089
-984.202
-2.6112
-984.431
-4.2194
-984.777
-5.84787
-985.01
-7.45704
-985.403
-9.10643
-985.651
-10.6368
-985.736
-13.6186
-990.29
-19.7201
-1033.53
-846.97
20.0198
-852.217
13.7049
-1026.51
10.9643
-984.529
9.58504
-980.521
8.10422
-981.304
6.62698
-981.369
5.11971
-981.716
3.62399
-981.876
2.10363
-982.163
0.589439
-982.38
-0.944238
-982.668
-2.47745
-982.898
-4.02168
-983.233
-5.58
-983.451
-7.1256
-983.857
-8.71073
-984.066
-10.1744
-984.273
-12.8985
-987.566
-19.5904
-1026.84
-866.56
19.9096
-872.127
12.9645
-1019.56
10.5005
-982.065
9.1888
-979.209
7.7743
-979.889
6.36635
-979.961
4.92712
-980.277
3.49916
-980.448
2.04676
-980.711
0.599357
-980.932
-0.867766
-981.201
-2.33226
-981.433
-3.81327
-981.752
-5.29997
-981.965
-6.78377
-982.373
-8.30223
-982.547
-9.70402
-982.871
-12.1723
-985.097
-19.4469
-1019.57
-886.007
19.8433
-891.97
12.2542
-1011.97
10.0736
-979.884
8.83232
-977.968
7.48865
-978.546
6.15444
-978.627
4.78388
-978.907
3.42226
-979.087
2.03597
-979.325
0.6502
-979.547
-0.754863
-979.796
-2.1576
-980.031
-3.58199
-980.328
-5.00175
-980.545
-6.43244
-980.943
-7.88404
-981.096
-9.23124
-981.524
-11.4483
-982.88
-19.2848
-1011.73
-905.292
19.8672
-911.837
11.6134
-1003.72
9.7444
-978.015
8.60106
-976.825
7.34945
-977.294
6.11115
-977.389
4.82712
-977.623
3.54394
-977.804
2.23357
-978.015
0.913234
-978.226
-0.429322
-978.454
-1.77767
-978.683
-3.15556
-978.95
-4.52559
-979.175
-5.9301
-979.538
-7.33376
-979.692
-8.66784
-980.19
-10.6722
-980.876
-19.037
-1003.36
-924.329
20.0766
-931.914
11.1021
-994.746
9.59012
-976.503
8.60518
-975.84
7.48358
-976.172
6.37187
-976.277
5.20318
-976.454
4.01791
-976.618
2.80007
-976.797
1.55869
-976.985
0.290081
-977.185
-0.996369
-977.396
-2.31763
-977.629
-3.63879
-977.854
-5.01982
-978.157
-6.37892
-978.333
-7.75852
-978.81
-9.59822
-979.036
-18.4203
-994.542
-942.749
20.7986
-952.713
11.0693
-985.016
9.96446
-975.398
9.25136
-975.127
8.35702
-975.278
7.43176
-975.352
6.42355
-975.446
5.35215
-975.547
4.21306
-975.658
3.00894
-975.781
1.74169
-975.918
0.41713
-976.072
-0.967101
-976.245
-2.38466
-976.436
-3.87387
-976.668
-5.3276
-976.879
-6.87813
-977.26
-8.53073
-977.384
-17.5627
-985.511
-960.312
22.2874
12.2711
11.8727
11.7457
11.4675
11.1156
10.6698
10.1226
9.46491
8.68397
7.76602
6.69446
5.44961
4.01325
2.34512
0.465926
-1.79372
-4.1776
-14.6881
-20.3409
-384.423
364.459
-383.377
-382.313
-381.967
-3362.25
2980.31
-3362.24
-3362.22
-3362.23
-9170.27
5808.05
-9170.28
-9170.27
-16415
7244.72
-16415
-16415
-16415
-23411.2
6996.14
-23411.2
-23411.2
-28999.5
5588.33
-28471.9
-27802.3
-27219.7
-26756.6
-26349
-25913.7
-25389.8
-24741.8
-29427.9
5449.35
-28510.8
-27465.2
-26300.3
-25021.9
-23635.1
-22142.4
-20542.4
-18854.1
-17171.8
-15055.4
-628.049
-14320.8
-14320.8
-14258.4
-62.4327
-13340.3
-918.078
-13340.3
-11909.6
-1430.75
-11909.6
-9924.03
-1985.56
-7555.41
-2368.62
-7555.41
-4840.49
-2714.93
-4840.5
-2013.83
-2826.68
357.438
-2371.32
357.386
1888.81
-1531.45
2431.14
-542.341
2431.13
1643.05
788.065
1643.03
1643.03
952.165
-952.168
1125.05
-172.884
1018.11
106.931
290.315
727.796
-707.454
997.766
-1840.1
1132.65
-2580.97
740.865
-2782.39
201.421
-1867
-915.392
-1443.67
-423.333
-1083.6
-360.08
741.607
-1825.21
2308.53
-1566.93
3736.11
-1427.59
5688.33
-1952.22
7105.25
-1416.92
5254.22
1851.02
465.4
4788.8
2108.41
1002.13
-1954.3
1178.63
-349.385
1384.75
-99.188
507.271
1605.27
-1155.5
2660.54
-2065.04
2042.19
-2235.14
910.966
-2167.1
133.381
-1538.57
-1543.93
-1372.48
-589.417
-675.336
-1057.23
966.392
-3466.94
2229.43
-2829.97
3498.23
-2696.39
5228.57
-3682.57
7155.34
-3343.69
7235.8
1770.54
2961.41
9063.18
5857.86
993.727
-2948.03
1184.31
-539.968
1465.05
-379.931
381.812
2688.5
-1109.14
4151.49
-1583.61
2516.66
-1693.44
1020.79
-1500.3
-59.7601
-876.609
-2167.62
-1118.79
-347.239
-462.712
-1713.32
1017.07
-4946.72
1902.95
-3715.85
2881.22
-3674.67
4526.08
-5327.43
6283.96
-5101.58
7009.99
1044.49
4454.37
11618.8
9769.88
1006.12
-3954.15
1132.28
-666.129
1212.87
-460.516
25.4092
3875.96
-940.107
5117
-1061.88
2638.43
-1273.48
1232.38
-987.765
-345.472
153.342
-3308.72
74.2627
-268.166
-234.631
-1404.43
893.633
-6074.98
1338.78
-4161
2013.02
-4348.91
3513.32
-6827.73
5306.52
-6894.78
6309.59
41.406
5055.53
12872.9
13293.9
1032.19
-4986.34
933.774
-567.722
742.239
-268.987
-320.528
4938.73
-656.13
5452.61
-520.724
2503.02
-700.65
1412.31
-481.428
-564.697
1071.27
-4861.42
777.141
25.9545
153.706
-780.999
627.143
-6548.42
565.582
-4099.44
925.071
-4708.41
2280.14
-8182.8
4158.88
-8773.52
5349.85
-1149.58
5057.04
13165.7
15979.7
1091.81
-6078.15
487.645
36.4438
322.244
-103.592
-487.958
5748.93
-250.9
5215.55
199.236
2052.89
99.3923
1512.15
164.456
-629.761
1526.7
-6223.66
1389.41
163.246
579.114
29.2914
230.794
-6200.1
-383.067
-3485.58
-322.399
-4769.08
885.365
-9390.57
2763.33
-10651.5
4161.64
-2547.9
4599.55
12727.7
17752.5
1193.12
-7271.28
193.566
1036
-34.3101
124.277
-472.852
6187.47
103.909
4638.78
845.152
1311.64
838.288
1519.01
815.472
-606.947
1755.21
-7163.4
1797.29
121.163
822.934
1003.65
-309.225
-5067.94
-1448.42
-2346.39
-1670.84
-4546.65
-637.997
-10423.4
1267.85
-12557.3
2878.49
-4158.55
3837.3
11768.9
18874.9
1353.52
-8624.79
255.561
2133.95
-52.9601
432.797
-342.001
6476.51
315.54
3981.24
1319.87
307.314
1494.26
1344.61
1224.31
-336.995
1785.89
-7724.98
2010.13
-103.076
789.328
2224.45
-1046.82
-3231.79
-2624.89
-768.328
-3134.29
-4037.25
-2257.7
-11300
-277.578
-14537.5
1565.11
-6001.25
2899.15
10434.9
19405.4
1554.35
-10179.1
522.63
3165.67
264.08
691.343
-137.625
6878.21
496.035
3347.58
1740.42
-937.07
2133.94
951.09
1597.63
199.309
1712.01
-7839.36
1996.07
-387.132
472.109
3748.41
-1918.94
-840.743
-3915.69
1228.42
-4708.16
-3244.78
-3942.42
-12065.8
-1903.59
-16576.3
219.398
-8124.24
1821.77
8832.49
19241.6
1704.07
-11883.2
740.236
4129.5
658.348
773.23
143.901
7392.66
876.504
2614.98
2365.99
-2426.56
2879.96
437.121
2074.32
1004.95
1694.67
-7459.7
1848.65
-541.113
104.865
5492.19
-2757.07
2021.19
-5228.07
3699.42
-6334.62
-2138.23
-5671.16
-12729.2
-3565.86
-18681.6
-1175.49
-10514.6
681.888
6975.09
18492.7
1661.73
-13544.9
836.349
4954.88
968.222
641.354
425.744
7935.14
1384.56
1656.16
3168.04
-4210.04
3714.76
-109.597
2757.62
1962.08
1897.81
-6599.89
1726.07
-369.376
-171.686
7389.94
-3614.89
5464.39
-6499.81
6584.35
-7911.76
-726.282
-7369.86
-13271.1
-5228.29
-20823.2
-2565.04
-13177.9
-385.903
4795.95
17188.7
1238.17
-14783.1
775.925
5417.13
1196.26
221.021
501.161
8630.23
1879.7
277.625
4162.09
-6492.43
4724.07
-671.579
3646.3
3039.85
2394.74
-5348.33
1643.85
381.515
-694.43
9728.22
-4531.82
9301.78
-7617.02
9669.54
-9257.63
914.336
-8893.55
-13635.2
-6829.32
-22887.4
-3826.42
-16180.8
-1431.32
2400.83
15695
336.025
-15119.1
342.245
5410.91
1387.19
-823.931
658.604
9358.82
2584.1
-1647.88
5417.34
-9325.67
5938.23
-1192.47
4662.93
4315.15
3068.51
-3753.91
1399.89
2050.13
-1558.69
12686.8
-5408.95
13152
-8445.71
12706.3
-10185.6
2654.25
-10039.1
-13781.7
-8272.84
-24653.7
-4870.83
-19582.8
-1919.79
-550.206
13147.1
-811.076
-14308.1
-621.008
5220.84
810.906
-2255.85
1300.96
8868.76
3785.19
-4132.11
6814.28
-12354.8
7209.55
-1587.74
5667.9
5856.8
3591.88
-1677.88
698.076
4943.93
-2631.7
16016.6
-6068.32
16588.7
-8953.17
15591.1
-10657.9
4358.97
-10629.9
-13809.7
-9379.81
-25903.8
-6546.74
-22415.8
-3723.7
-3373.24
14872.8
-2011.48
-12296.6
-1842.52
5051.89
-530.528
-3567.84
1853.26
6484.98
4796.77
-7075.62
7905.89
-15463.9
8282.08
-1963.93
6433.67
7705.2
3506.54
1249.25
-549.679
9000.15
-3600.86
19067.7
-6431.32
19419.1
-9198.56
18358.4
-10777.8
5938.17
-10657.4
-13930
-9875.64
-26685.6
-8658.92
-23632.6
-6373.86
-5658.29
14087.3
-3270.04
-9026.55
-3144.41
4926.26
-1316.37
-5395.89
2125
3043.61
5114.45
-10065.1
8065.33
-18414.8
8671.7
-2570.3
6581.09
9795.81
2552.05
5278.29
-1918
13470.2
-4182.24
21332
-6548.72
21785.6
-9244.51
21054.2
-10542.3
7236.01
-10147.5
-14324.9
-9543.43
-27289.6
-9589.32
-23586.7
-8583.28
-6664.32
12500.1
-4442.41
-4584.14
-4277.54
4761.38
-1691.18
-7982.25
1747.97
-395.548
4287.57
-12604.7
6850.97
-20978.2
7910.56
-3629.89
5707.09
11999.3
930.836
10054.5
-2901.89
17302.9
-4365.25
22795.3
-6497.69
23918.1
-9009.24
23565.7
-9686.28
7913.05
-9011.85
-14999.3
-8626.11
-27675.4
-9211.13
-23001.7
-9290.87
-6584.57
10454
-5122.99
538.847
-4794.28
4432.68
-1630.72
-11145.8
998.942
-3025.21
2651.21
-14256.9
4848.89
-23175.9
6284.57
-5065.57
4231.57
14052.3
-564.576
14850.7
-3313.78
20052.1
-4305.37
23786.9
-6306.73
25919.4
-8378.17
25637.2
-8194.04
7728.92
-7384.47
-15808.9
-7450.07
-27609.8
-8024.52
-22427.2
-8287.5
-6321.57
7974.56
-5236.15
5774.99
-4863.62
4060.15
-1503.28
-14506.1
390.775
-4919.27
1215.16
-15081.3
3341.92
-25302.6
4827.43
-6551.08
2879.2
16000.5
-1477.2
19207.1
-3327.47
21902.4
-4137.92
24597.4
-5972.43
27753.9
-7445.89
27110.6
-6683.46
6966.49
-5901.76
-16590.6
-6339.48
-27172.1
-6879.54
-21887.1
-6406.29
-6794.81
4548.59
-5295.09
-5108.53
-1901.09
-118.625
439.323
2529.05
3913.97
1924.18
-1870.17
-3170.44
-3915.28
-5496.56
-6425.51
-5598.62
-4948.33
-5515.71
-6419.11
-4639.7
-662.433
1637.43
-1068.87
1381.44
-1484.33
1390.46
-1814.29
1304.96
-2104.53
1265.24
-2343.54
1214.02
-2539.53
1170.99
-2692.28
1127.75
-2804.18
1086.9
-2876.13
1046.95
-2908.51
1007.38
-2900.02
966.509
-2847.16
922.146
-2742.94
870.771
-2576.37
808.43
-2335.11
733.741
-2003.29
643.184
-1544.4
516.106
-896.291
326.894
78.709
-197.102
1834.53
-449.968
1634.3
-716.164
1656.65
-945.487
1534.28
-1167.61
1487.36
-1361.14
1407.55
-1535.06
1344.91
-1685.53
1278.22
-1814.93
1216.3
-1921.61
1153.63
-2000.7
1086.47
-2038.68
1004.49
-2011.45
894.91
-1892.09
751.418
-1671.43
587.766
-1365.18
427.495
-991.374
269.373
-571.046
95.7782
-180.168
-63.9835
-101.459
-183.608
2018.14
-391.025
1841.72
-563.175
1828.8
-701.562
1672.67
-830.499
1616.3
-932.911
1509.96
-1024.61
1436.61
-1100.28
1353.89
-1165.72
1281.74
-1219.15
1207.06
-1258.05
1125.38
-1270.49
1016.92
-1233.17
857.586
-1115
633.256
-905.749
378.511
-665.121
186.868
-472.278
76.5299
-296.103
-80.3973
-110.921
-249.165
-212.38
-39.1101
2057.25
-119.402
1922.01
-172.514
1881.92
-211.582
1711.74
-249.746
1654.46
-271.881
1532.09
-290.426
1455.15
-297.692
1361.16
-298.094
1282.14
-290.236
1199.2
-277.614
1112.76
-266.147
1005.46
-266.762
858.201
-286.744
653.238
-317.679
409.447
-341.145
210.334
-352.214
87.5993
-328.884
-103.728
-263.607
-314.442
-475.987
80.5225
1976.73
42.7058
1959.83
57.9734
1866.65
83.242
1686.47
113.831
1623.87
153.114
1492.81
198.851
1409.41
253.594
1306.41
317.529
1218.21
390.049
1126.68
467.658
1035.15
538.345
934.77
578.15
818.396
553.501
677.887
447.545
515.402
312.832
345.047
223.989
176.443
152.593
-32.3319
38.7037
-200.552
-437.283
140.991
1835.74
129.518
1971.3
170.339
1825.83
220.656
1636.15
280.833
1563.7
341.008
1432.64
408.37
1342.05
479.758
1235.03
558.816
1139.15
643.532
1041.96
732.015
946.668
816.063
850.722
881.755
752.704
909.028
650.615
880.646
543.784
795.788
429.905
662.983
309.249
457.327
173.324
232.86
23.9151
-204.423
125.764
1709.98
148.888
1948.18
196.31
1778.41
252.241
1580.22
315.291
1500.65
377.195
1370.73
443.26
1275.99
511.052
1167.23
580.687
1069.51
648.891
973.76
713.006
882.553
769.35
794.377
813.924
708.129
841.015
623.525
842.626
542.173
804.766
467.765
709.852
404.162
536.755
346.421
288.723
271.947
84.2998
58.7976
1651.18
103.959
1903.02
153.453
1728.91
200.048
1533.63
248.177
1452.52
297.348
1321.56
346.086
1227.25
398.074
1115.24
454.578
1013.01
523.81
904.527
610.345
796.019
715.778
688.944
831.995
591.912
938.886
516.634
1005.69
475.369
995.453
478.002
882.592
517.023
655.132
573.881
342.583
584.496
426.883
-45.7589
1696.94
-15.4308
1872.69
-2.18616
1715.67
-18.2865
1549.73
-38.2647
1472.5
-72.9461
1356.24
-117.215
1271.52
-162.877
1160.91
-193.643
1043.78
-191.764
902.648
-149.26
753.514
-65.5095
605.195
52.4313
473.972
191.398
377.667
333.235
333.533
452.304
358.933
499.753
469.573
427.402
646.232
232.305
779.594
659.187
-149.727
1846.66
-238.128
1961.09
-329.332
1806.87
-458.164
1678.56
-597.198
1611.53
-757.994
1517.04
-931.813
1445.34
-1110.75
1339.85
-1279.19
1212.21
-1426.8
1050.27
-1551.54
878.248
-1651.42
705.081
-1716.27
538.814
-1719.83
381.229
-1632.92
246.627
-1437.78
163.796
-1123.97
155.76
-698.123
220.384
-263.139
344.609
396.049
23.2817
1823.38
-130.002
2114.37
-254.889
1931.76
-361.449
1785.12
-464.482
1714.56
-570.198
1622.76
-677.305
1552.44
-787.807
1450.35
-904.412
1328.81
-1028.85
1174.71
-1160.84
1010.23
-1296.78
841.023
-1430.24
672.276
-1548.41
499.402
-1629.34
327.547
-1629.9
164.361
-1499.98
25.8387
-1166.93
-112.666
-612.741
-209.578
-216.692
330.231
1493.15
291.359
2153.24
185.449
2037.67
137.152
1833.41
130.915
1720.8
138.654
1615.02
158.344
1532.75
175.458
1433.24
180.394
1323.88
161.582
1193.52
119.336
1052.48
56.8952
903.464
-21.0753
750.247
-111.152
589.479
-201.816
418.212
-271.297
233.841
-274.495
29.0368
-288.716
-98.4451
-243.588
-254.706
-460.281
442.845
1050.31
563.499
2032.59
523.878
2077.29
514.014
1843.28
561.587
1673.23
631.898
1544.71
718.423
1446.23
806.487
1345.17
889.054
1241.31
953.798
1128.78
996.092
1010.18
1012.54
887.018
1000.97
761.81
955.005
635.449
864.316
508.901
718.677
379.48
499.516
248.199
300.407
100.664
127.264
-81.5627
-333.017
288.908
761.4
390.435
1931.06
406.842
2060.88
429.048
1821.07
481.571
1620.71
548.27
1478.01
622.668
1371.83
696.652
1271.19
766.02
1171.94
823.877
1070.92
865.152
968.908
885.275
866.894
880.945
766.14
849.37
667.025
788.549
569.721
696.639
471.39
572.535
372.302
412.579
260.62
207.28
123.737
-125.737
47.5187
713.882
66.1673
1912.41
117.973
2009.08
174.25
1764.79
235.462
1559.49
299.969
1413.5
365.473
1306.33
427.961
1208.7
484.623
1115.28
532.13
1023.41
567.529
933.509
588.693
845.73
595.384
759.448
588.772
673.637
569.51
588.983
532.566
508.334
465.62
439.247
350.963
375.277
176.232
298.468
50.4945
-110.73
824.611
-106.999
1908.68
-17.4395
1919.52
61.3012
1686.05
132.096
1488.7
202.463
1343.13
272.286
1236.5
338.726
1142.26
400.541
1053.47
457.788
966.164
512.001
879.296
566.523
791.209
623.946
702.025
681.442
616.141
725.711
544.714
728.727
505.319
660.998
506.976
504.543
531.732
271.117
531.895
321.611
-146.833
971.444
-144.774
1906.62
-30.1049
1804.85
75.2897
1580.66
155.32
1408.67
222.544
1275.91
290.351
1168.69
363.609
1069
446.044
971.03
541.237
870.971
651.401
769.133
774.755
667.854
900.147
576.634
1004.13
512.16
1050.38
498.463
1003.94
551.763
850.279
660.633
598.886
783.125
302.625
828.156
624.236
-81.1966
1052.64
-95.8527
1921.28
-93.7486
1802.74
-59.8329
1546.74
-12.924
1361.76
17.2574
1245.73
38.9369
1147.01
66.4439
1041.5
108.751
928.724
170.442
809.28
253.482
686.094
355.857
565.479
470.102
462.389
577.898
404.364
646.708
429.652
641.87
556.6
545.244
757.26
369.318
959.051
164.391
1033.08
788.627
136.461
916.18
266.077
1791.66
181.34
1887.48
-3.84585
1731.93
-194.431
1552.35
-367.009
1418.31
-521.84
1301.85
-661.174
1180.83
-785.398
1052.95
-893.705
917.587
-982.763
775.151
-1040.3
623.014
-1059.06
481.153
-1023.93
369.228
-922.921
328.648
-756.166
389.845
-549.139
550.232
-340.43
750.343
-160.378
853.031
628.249
181.584
484.953
690.111
733.73
686.018
611.651
526.748
429.108
317.17
189.19
47.2163
-93.0406
-259.91
-414.559
-521.17
-538.945
-451.795
-284.127
-100.63
)
;

boundaryField
{
    outletWallLeft
    {
        type            calculated;
        value           nonuniform List<scalar> 
40
(
-456.99
-551.494
-637.548
-725.025
-826.052
-953.214
-1121.06
-1329.65
-1571.08
-1824.26
-2107.31
-2400.58
-2793.17
-3077.56
-3590.52
-3133.33
-4340.9
-1419.01
-8832.52
9292.64
79763.6
-54679.9
22465.5
-11919.7
-1702.43
-4772.58
-733.709
6281.47
12380.5
15010.6
14953.6
8076.22
2502.37
-11415.9
-9359.51
-18404.6
-15159.9
-44941
-149258
232316
)
;
    }
    fineWallsLeft
    {
        type            calculated;
        value           uniform 0;
    }
    fineFrontAndBackLeft
    {
        type            calculated;
        value           nonuniform List<scalar> 
880
(
-1.19748e-10
-2.21846e-11
-1.53066e-11
-4.07677e-12
2.03772e-11
3.73518e-11
6.65982e-12
8.45357e-12
4.27729e-12
-1.60161e-13
-4.68247e-12
-1.7719e-12
-7.64721e-12
-1.06344e-11
-2.60894e-12
-6.98821e-12
-1.26795e-12
-2.4345e-12
-1.32894e-12
-1.7998e-13
-3.83264e-14
9.0746e-13
-5.34266e-13
-5.62418e-13
-5.29681e-13
-6.72652e-13
-6.14542e-13
-5.7848e-13
-6.31215e-13
-6.50695e-13
-7.78318e-13
-6.4732e-12
-9.83238e-13
-1.01514e-12
-1.05713e-12
-1.09181e-12
-1.09661e-12
-1.0786e-12
-1.08488e-12
-1.19534e-12
-1.39932e-11
-2.07521e-12
-1.89698e-12
-1.14358e-11
-1.71572e-12
-1.66388e-12
-1.6017e-12
-8.25283e-12
-9.94492e-13
-9.84501e-13
-1.33363e-12
9.60348e-13
2.61863e-12
1.22251e-12
1.42371e-10
2.10702e-11
9.92784e-12
4.60299e-12
1.99975e-11
2.57699e-12
5.75023e-12
1.15604e-14
-1.07523e-12
5.62994e-13
8.63856e-13
2.32019e-12
4.63884e-12
1.08793e-11
-2.93776e-12
-7.28587e-12
-2.35869e-12
-4.07736e-12
-1.21885e-11
-1.7337e-11
-1.44606e-11
-1.00865e-11
-1.51958e-11
-1.17438e-11
2.88312e-11
5.53189e-12
-1.22845e-12
-1.33157e-12
6.16883e-13
9.46446e-13
1.7287e-12
5.3027e-12
1.00472e-11
-4.09625e-12
-7.441e-12
-3.07584e-12
-6.22651e-12
-1.4421e-11
-1.8127e-11
-1.52141e-11
-9.06329e-12
-1.5617e-11
-2.73982e-11
2.35072e-11
4.24308e-12
-2.63475e-12
-1.53159e-12
-2.60129e-13
8.77009e-13
1.09816e-12
4.80969e-12
9.01608e-12
-4.89006e-12
-7.70829e-12
-3.88786e-12
-8.02797e-12
-1.61511e-11
-1.8849e-11
-1.56697e-11
-8.09736e-12
-1.16732e-11
-2.32763e-11
-1.8465e-11
3.28586e-12
-3.48903e-12
-1.96571e-12
-2.32687e-12
1.01102e-12
5.17033e-13
3.19483e-12
7.85012e-12
-5.49432e-12
-8.10214e-12
-4.80118e-12
-9.49698e-12
-1.74386e-11
-1.94458e-11
-1.5974e-11
-7.33993e-12
-8.86487e-12
-2.30029e-11
-2.10321e-11
3.42239e-12
-3.07928e-12
-1.25567e-12
-4.82871e-12
1.17148e-12
1.20721e-13
1.66448e-12
6.6443e-12
-6.00533e-12
-8.61497e-12
-5.87299e-12
-1.07315e-11
-1.83519e-11
-1.99419e-11
-1.60489e-11
-6.81558e-12
-4.08291e-12
-1.54458e-11
-2.01943e-11
4.78683e-12
4.54484e-13
2.21361e-12
-6.69529e-12
1.10524e-12
-5.47905e-15
1.10428e-12
5.49075e-12
-6.46438e-12
-9.22028e-12
-7.10628e-12
-1.18042e-11
-1.89277e-11
-2.05815e-11
-1.58558e-11
-6.46971e-12
-1.58463e-12
-3.23535e-12
-1.25937e-11
7.57616e-12
9.97956e-12
1.03383e-11
-6.03187e-12
6.71771e-13
2.35274e-14
1.13645e-12
4.4558e-12
-6.86485e-12
-9.88382e-12
-8.39156e-12
-1.27002e-11
-1.92078e-11