/*--------------------------------*- C++ -*----------------------------------*\
| =========                 |                                                 |
| \\      /  F ield         | OpenFOAM: The Open Source CFD Toolbox           |
|  \\    /   O peration     | Version:  4.1                                   |
|   \\  /    A nd           | Web:      www.OpenFOAM.org                      |
|    \\/     M anipulation  |                                                 |
\*---------------------------------------------------------------------------*/
FoamFile
{
    version     2.0;
    format      ascii;
    class       volScalarField;
    location    "8";
    object      p;
}
// * * * * * * * * * * * * * * * * * * * * * * * * * * * * * * * * * * * * * //

dimensions      [0 2 -2 0 0 0 0];

internalField   nonuniform List<scalar> 
1280
(
-3.39583
-0.428246
-0.853284
-1.60638
-1.11187
-1.20898
-1.57889
-1.63341
-1.46702
-1.59271
-2.1383
-1.91117
-2.11775
-2.90797
-2.78961
-3.45402
-4.61632
-4.39569
-4.6245
-8.45025
-5.23126
1.07346
6.68492
8.31945
9.94272
14.2216
0.659592
11.5763
11.8147
13.6906
15.2042
16.5906
18.1958
19.7613
21.4918
22.9587
25.0565
26.299
31.2621
25.9993
-44.4026
-9.83215
-3.197
-1.85376
4.59487
4.68902
5.11413
5.64811
6.32766
5.97493
5.92412
6.40601
5.48742
4.69464
4.18634
7.42886
-7.71965
-12.8587
-19.0996
-31.2425
-17.5806
-11.7275
-9.05326
-5.60531
-3.02947
-0.442767
1.7502
3.76552
5.43842
6.70653
7.99739
9.1312
7.77503
9.14148
27.7565
24.8147
23.6234
14.6656
-8.26834
-23.0718
-23.2886
-17.6931
-11.6861
-13.0531
-9.22475
-7.17936
-7.88297
-5.76219
-4.88078
-5.56265
-4.17767
-3.75788
-4.2722
-4.15733
-3.23663
-3.04578
-4.29281
-2.29909
-1.30389
-9.07318
6537.02
-2105.37
-1592.57
19.8827
4.24359
51.5705
-2.78231
2.66025
21.8778
1.47959
-9.85908
-14.9356
-6.82444
-1.73761
-0.77963
-1.92866
-2.65185
-2.70452
-3.48566
-3377.39
-434.793
-705.478
-121.43
-33.9518
-16.9545
-3.54208
6.23094
-13.0585
-11.0309
-15.9088
-10.0222
-2.27033
-0.0582592
-0.544655
-1.29012
-1.70216
-1.61137
-2.13009
421.634
-936.459
40.073
-38.7133
-2.5819
8.73318
-2.10624
3.49525
3.30495
-9.83405
-18.2599
-8.67006
1.06708
0.895985
-0.64375
-1.0331
-1.01757
-0.770092
-0.877948
-757.724
-799.692
-120.058
-24.7808
-20.0923
1.11006
-0.154223
3.14814
-4.6122
-16.2644
-20.8139
-14.168
0.696175
2.16122
-0.982642
-2.40247
-1.56561
-1.07233
-1.12319
-86.8546
-606.423
-122.956
-78.6086
-12.1496
8.60614
3.02424
5.32508
-0.0673225
-15.7852
-20.593
-16.8854
2.27594
4.23469
-1.71822
-4.96459
-1.95948
-1.00772
-1.22001
-211.194
-546.789
-74.8584
-79.9278
0.111961
12.7152
6.05797
4.57738
-1.44416
-14.1055
-20.3021
-18.3545
4.42731
5.85265
-3.92508
-8.97967
-2.31758
0.041009
-1.11208
30.4932
-421.981
13.2828
-60.2108
20.3087
15.7173
9.24065
4.11787
-0.819138
-9.83961
-19.8055
-17.017
6.95221
6.67468
-6.42149
-9.93151
-2.71788
0.508617
-2.40546
152.755
-283.127
110.349
-20.9084
34.3123
13.9156
9.98815
0.887919
-2.74965
-6.3551
-18.6643
-14.9515
7.9968
7.44482
-5.32322
-9.74824
-2.17608
4.33777
1.26182
266.682
-168.091
176.525
-5.90401
44.7874
9.56403
8.97593
-2.81963
-4.23019
-1.35684
-11.8549
-11.365
5.10084
6.1365
-1.6763
-6.75889
-1.94599
9.2879
29.7519
287.856
-109.93
204.985
-1.7036
51.3923
8.98884
5.39706
-6.08616
-4.77681
4.26866
-2.92809
-6.46562
-0.905358
1.86141
0.752421
-0.635684
5.40302
22.3549
27.5451
290.714
-100.141
204.425
1.79636
56.1706
5.18625
-0.461454
-8.78217
-3.90353
9.59852
3.99595
-3.73598
-4.71384
-1.08005
1.85023
0.383972
4.93509
24.0979
24.9781
271.678
-142.015
187.276
1.89737
58.863
0.119985
-7.88702
-13.254
-2.63978
14.4408
8.78896
-5.57676
-10.3712
-4.28702
5.18891
3.17126
2.73443
18.2109
33.3399
173.784
-238.583
133.707
-2.78089
55.812
-4.72264
-15.0883
-19.2238
-1.74796
16.7058
10.397
-9.47949
-12.2148
-4.7235
4.61574
2.51018
-0.692777
-0.322741
-0.379692
66.3185
-360.642
48.414
-19.4446
39.3787
-10.8521
-19.8957
-23.6234
-1.32999
14.8126
8.80683
-12.3375
-12.8809
-4.33343
2.40801
1.58267
-2.40759
-4.52844
-2.97123
-154.996
-476.694
-39.5446
-36.0397
13.3892
-18.3733
-23.1717
-25.5458
-1.57074
9.23561
5.79106
-12.262
-13.9302
-4.33235
1.07114
1.07208
-0.880553
-2.17104
0.108035
-45.6815
-531.175
-102.763
-37.7674
-6.28449
-20.633
-24.8965
-26.3014
-2.83645
2.88289
2.86275
-9.3414
-12.0293
-3.75043
0.373186
0.608242
-0.432022
-1.81796
-1.21118
-637.787
-693.294
-114.351
-17.2141
-19.7466
-26.8767
-25.5998
-24.3966
-2.97061
-1.0748
0.840328
-5.37483
-7.70728
-2.76908
0.0720082
0.352455
-0.253824
-0.812821
-0.530246
425.751
-839.108
62.9805
1.17559
-3.23244
-14.1438
-23.3427
-15.7101
0.40518
-1.51519
0.12939
-2.30463
-4.36097
-1.48016
0.20196
0.251729
-0.118408
-0.419429
-0.551025
-2997
-425.238
-667.742
-73.8272
-22.1559
-34.7837
-23.5148
-17.8974
-4.80123
-2.18742
-0.055697
-0.961967
-3.42132
-2.24477
-0.475348
0.0127908
-0.147586
-0.482236
-0.878245
5988.65
-1929.68
-1352.22
96.1596
15.7873
32.0885
-25.3158
-33.6178
-13.8093
-3.67344
1.2457
-0.00812204
-3.30826
-3.73977
-1.51967
-0.475284
-0.326977
-0.786856
-1.44145
91.4398
90.532
89.8776
89.038
88.1156
87.0686
86.0613
85.0125
83.871
82.8069
81.8453
80.9427
80.1336
79.3935
78.7571
78.1812
77.7288
77.3053
77.1104
76.6281
74.71
75.0772
75.2006
75.3507
75.4748
75.519
75.5492
75.4836
75.4042
75.265
75.1107
74.9196
74.722
74.4931
74.2742
74.0227
73.8003
73.5393
73.2584
73.0295
81.8505
81.5738
81.4458
81.2408
81.0843
80.8935
80.721
80.5331
80.3488
80.1511
79.9564
79.7481
79.5456
79.3255
79.1198
78.8847
78.6836
78.4248
78.2141
77.8916
79.9437
79.9175
79.9113
79.8731
79.8594
79.8136
79.7834
79.7302
79.6846
79.6224
79.5632
79.4901
79.4205
79.3345
79.2593
79.1568
79.0843
78.9587
78.8841
78.7209
81.8581
81.7491
81.7185
81.6343
81.5881
81.5155
81.462
81.3943
81.3368
81.2705
81.2106
81.1432
81.0826
81.0114
80.953
80.8731
80.8239
80.7242
80.7003
80.5612
82.1637
82.1042
82.0954
82.046
82.0258
81.9836
81.9576
81.919
81.8898
81.8529
81.8223
81.7857
81.7557
81.7175
81.691
81.6475
81.6306
81.5727
81.5833
81.5063
83.0493
82.9798
82.9654
82.9112
82.8859
82.8408
82.8112
82.7713
82.7402
82.7034
82.6724
82.6374
82.6084
82.5733
82.5488
82.5109
82.4955
82.4477
82.4554
82.3982
83.6181
83.5587
83.5464
83.4994
83.4779
83.4384
83.4128
83.3778
83.3504
83.3181
83.2907
83.2598
83.2339
83.2029
83.1808
83.1472
83.1326
83.0913
83.0932
83.046
84.2542
84.1944
84.1799
84.1331
84.1102
84.0704
84.0437
84.0082
83.9796
83.9468
83.9179
83.8865
83.8587
83.827
83.8026
83.7683
83.7505
83.7092
83.7043
83.6555
84.8127
84.7562
84.7416
84.6972
84.6749
84.6368
84.6107
84.5764
84.5482
84.5163
84.4874
84.4568
84.4286
84.3976
84.372
84.3382
84.3186
84.2778
84.2695
84.2188
85.3614
85.3067
85.2918
85.2487
85.2266
85.1895
85.1636
85.13
85.102
85.0708
85.0418
85.0119
84.9831
84.9529
84.9263
84.8933
84.8723
84.8324
84.822
84.7704
85.8775
85.8253
85.8107
85.7696
85.7481
85.7125
85.6874
85.6551
85.6279
85.5979
85.5694
85.5408
85.5122
85.4836
85.4567
85.4255
85.4037
85.3657
85.3543
85.3035
86.3729
86.3231
86.3086
86.2693
86.2484
86.2143
86.19
86.159
86.1326
86.1039
86.0762
86.049
86.0208
85.9939
85.9669
85.938
85.9156
85.88
85.8679
85.819
86.8459
86.7988
86.7845
86.7471
86.7268
86.6941
86.6707
86.641
86.6156
86.5881
86.5613
86.5354
86.5078
86.4827
86.4557
86.4292
86.4062
86.3735
86.3605
86.3141
87.2974
87.2534
87.2395
87.2044
87.1852
87.1542
87.132
87.1039
87.0795
87.0535
87.0278
87.0033
86.9765
86.9532
86.9261
86.9024
86.8783
86.849
86.8347
86.7912
87.7163
87.6758
87.6623
87.6297
87.6122
87.5832
87.5628
87.5371
87.5146
87.4909
87.4673
87.4448
87.4201
87.3991
87.373
87.3529
87.3281
87.3031
87.2876
87.2481
88.1112
88.0738
88.0592
88.0269
88.0107
87.9823
87.9622
87.9379
87.9159
87.8933
87.871
87.8496
87.8269
87.8076
87.7831
87.7672
87.7416
87.7234
87.7076
87.6734
88.5106
88.4833
88.472
88.4395
88.4266
88.401
88.3813
88.3588
88.3366
88.3137
88.2902
88.2664
88.2412
88.2174
88.1892
88.169
88.1349
88.1198
88.0936
88.0559
88.7847
88.7756
88.7907
88.7701
88.7703
88.7629
88.7583
88.753
88.7474
88.741
88.7333
88.7238
88.7118
88.6971
88.6768
88.6558
88.6173
88.5959
88.524
88.4671
88.7501
88.6918
88.7299
88.7406
88.7582
88.7759
88.7948
88.8155
88.8381
88.8632
88.891
88.9221
88.9568
88.9956
89.0391
89.0882
89.1409
89.2095
89.2508
89.414
708.14
625.292
575.99
519.673
470.609
423.337
379.441
338.052
299.175
262.522
227.917
195.155
164.024
134.428
106.343
78.9151
52.4169
31.4388
7.88736
-28.0545
15.2479
-7.0231
0.991336
-9.97651
-12.7784
-19.3853
-24.3453
-29.6003
-34.1742
-38.2733
-41.6762
-44.3233
-46.1066
-46.9497
-46.7389
-45.4823
-43.2807
-40.1794
-36.8368
-33.7915
7.25128
1.51063
10.4461
4.42879
7.38402
5.00979
4.76555
3.27533
2.11705
0.720738
-0.589231
-1.83821
-2.92279
-3.82387
-4.50069
-4.9049
-5.06971
-4.56249
-3.04585
-0.667708
29.4326
26.1242
29.3005
23.6709
25.2051
21.8858
21.4461
19.7201
18.8736
17.938
17.3756
17.0186
16.933
17.0669
17.3638
17.7138
17.9155
17.9899
17.753
16.9663
8.27778
4.21805
6.00133
1.71217
3.31069
0.631686
1.00512
-0.252512
-0.475111
-1.11116
-1.48818
-2.00602
-2.6044
-3.43438
-4.46921
-5.87171
-7.79341
-9.97252
-13.4566
-16.6972
-27.3511
-32.0571
-31.4643
-35.9292
-35.9628
-39.886
-41.2129
-44.5763
-47.0128
-50.3248
-53.4472
-56.7249
-59.6693
-62.2578
-64.3184
-66.0191
-67.3136
-67.9285
-68.792
-67.3284
-50.9448
-54.1529
-52.8605
-56.0139
-55.032
-57.7787
-57.752
-59.6405
-60.3214
-61.5582
-62.2947
-62.7898
-62.6682
-61.9383
-60.723
-59.0688
-57.271
-55.1145
-53.4417
-49.8223
-35.1944
-35.2625
-32.6473
-33.4469
-30.6102
-30.7862
-28.6088
-27.7714
-26.0561
-24.612
-22.9476
-21.2275
-19.4148
-17.4891
-15.5136
-13.3852
-11.2533
-8.73072
-6.61469
-3.37792
-6.77545
-5.26559
-2.86526
-2.66705
0.043594
0.634703
2.75808
3.99911
5.68452
7.20327
8.76335
10.3183
11.8569
13.4067
14.9377
16.529
18.0524
19.7595
21.0566
22.9337
14.1365
16.1788
18.1913
18.7763
21.0193
21.7665
23.5246
24.6923
26.0989
27.4075
28.7052
29.9831
31.2333
32.4904
33.7789
35.1941
36.6551
38.3294
39.6344
41.2752
38.2242
40.269
41.8212
42.5136
44.2338
44.826
46.1003
46.7692
47.5011
47.9619
48.284
48.523
48.8445
49.4069
50.4044
51.7605
53.3091
54.7537
55.7783
56.5721
49.1334
50.7851
51.5837
52.1988
53.3658
53.9161
54.9937
55.6907
56.5512
57.2614
57.9151
58.3644
58.4272
57.8851
56.6194
54.6419
52.7319
51.1305
50.9488
49.8717
72.4996
71.3592
71.4293
70.8048
70.7382
69.8651
69.2507
67.8481
66.0829
63.3443
59.5356
54.2563
47.5147
39.851
32.3403
26.0977
21.8889
20.2326
20.2939
16.5615
28.7606
22.2136
17.999
12.6669
8.34832
3.4251
-0.986832
-5.50987
-9.46165
-13.1015
-16.1346
-18.608
-20.4028
-21.5452
-22.0147
-22.0268
-21.917
-21.5008
-22.4249
-26.6879
-27.0764
-34.314
-39.8295
-45.0421
-49.5599
-54.4726
-58.9596
-63.4544
-67.7181
-72.018
-76.2609
-80.3787
-84.1315
-87.2356
-89.3189
-90.4156
-90.6837
-90.1743
-89.9313
-88.351
-65.4039
-70.0702
-73.0437
-74.3735
-75.9756
-77.7454
-79.2672
-80.7514
-81.9832
-82.9709
-83.5448
-83.5634
-82.8887
-81.4561
-79.3545
-76.7643
-74.1865
-71.6438
-69.6296
-66.1801
-94.2173
-93.0346
-86.5006
-79.1179
-73.1153
-68.029
-63.4329
-59.2381
-55.3183
-51.6571
-48.21
-44.944
-41.8602
-38.96
-36.3179
-33.9079
-31.8114
-29.7693
-28.0734
-25.4737
-46.8885
-42.7209
-37.5936
-32.8953
-29.0748
-25.8259
-22.9808
-20.4874
-18.2747
-16.3403
-14.6502
-13.1722
-11.8885
-10.7561
-9.77121
-8.859
-8.05024
-7.14786
-6.4575
-5.26746
2.91402
6.88709
5.16735
4.26861
3.48306
3.12058
2.82405
2.53853
2.22735
1.8838
1.55359
1.26111
1.02744
0.893066
0.854999
0.971861
1.18258
1.6422
2.02443
2.88795
37.8364
39.0117
37.8319
37.328
35.476
33.663
31.2662
28.7349
26.2261
23.9403
21.8594
20.0381
18.5085
17.2844
16.357
15.7271
15.358
15.2475
15.2728
15.458
)
;

boundaryField
{
    outletWall
    {
        type            fixedValue;
        value           uniform 0;
    }
    fineWalls
    {
        type            zeroGradient;
    }
    fineFrontAndBack
    {
        type            zeroGradient;
    }
    fineplugLeft
    {
        type            cyclicAMI;
        value           nonuniform List<scalar> 
20
(
66.5023
67.9407
67.1041
67.1943
67.1367
67.3041
67.4671
67.746
68.0723
68.5171
68.9836
69.4597
70.3253
76.3504
72.4992
72.481
72.8943
73.2391
72.6403
72.1056
)
;
    }
    fineplugRight
    {
        type            cyclicAMI;
        value           nonuniform List<scalar> 
20
(
8.85029
9.87277
10.3874
11.1653
11.9758
12.997
14.1775
15.5599
17.1182
18.8288
20.7517
22.8071
24.5429
28.7504
32.4817
33.3437
34.5871
33.1987
29.5557
25.6547
)
;
    }
    inletOutletLeft
    {
        type            cyclicAMI;
        value           nonuniform List<scalar> 
20
(
66.5023
67.9407
67.1041
67.1943
67.1367
67.3041
67.4671
67.746
68.0723
68.5171
68.9836
69.4597
70.3253
76.3504
72.4992
72.481
72.8943
73.2391
72.6403
72.1056
)
;
    }
    inletLeft
    {
        type            zeroGradient;
    }
    inletWallsLeft
    {
        type            zeroGradient;
    }
    inletFacesLeft
    {
        type            zeroGradient;
    }
    inletOutletRight
    {
        type            cyclicAMI;
        value           nonuniform List<scalar> 
20
(
8.85029
9.87277
10.3874
11.1653
11.9758
12.997
14.1775
15.5599
17.1182
18.8288
20.7517
22.8071
24.5429
28.7504
32.4817
33.3437
34.5871
33.1987
29.5557
25.6547
)
;
    }
    inletRight
    {
        type            zeroGradient;
    }
    inletWallsRight
    {
        type            zeroGradient;
    }
    inletFacesRight
    {
        type            zeroGradient;
    }
}


// ************************************************************************* //
