/*--------------------------------*- C++ -*----------------------------------*\
| =========                 |                                                 |
| \\      /  F ield         | OpenFOAM: The Open Source CFD Toolbox           |
|  \\    /   O peration     | Version:  4.1                                   |
|   \\  /    A nd           | Web:      www.OpenFOAM.org                      |
|    \\/     M anipulation  |                                                 |
\*---------------------------------------------------------------------------*/
FoamFile
{
    version     2.0;
    format      ascii;
    class       volVectorField;
    location    "8";
    object      U;
}
// * * * * * * * * * * * * * * * * * * * * * * * * * * * * * * * * * * * * * //

dimensions      [0 1 -1 0 0 0 0];

internalField   nonuniform List<vector> 
1280
(
(4.60287e-21 1.67548 -0.0330464)
(-3.95635e-20 1.05806 -0.16243)
(5.94431e-20 0.841844 -0.182859)
(-5.08404e-19 1.03615 -0.18711)
(3.97377e-18 1.19605 -0.302071)
(-8.83995e-18 0.938147 -0.259793)
(3.05992e-17 1.08624 -0.272105)
(-1.12954e-16 1.05284 -0.257565)
(-3.28001e-17 1.29789 -0.477537)
(1.32945e-16 1.13142 -0.407554)
(3.12669e-16 1.21518 -0.368837)
(-3.19526e-16 1.54682 -0.690249)
(-3.88917e-16 1.34307 -0.576884)
(-3.14995e-16 1.47859 -0.51798)
(-1.02744e-15 1.81997 -0.936409)
(-9.74481e-16 1.67938 -0.79713)
(-9.2487e-16 1.85325 -0.668298)
(-9.32319e-16 2.21156 -1.66271)
(-5.32041e-16 2.47753 -0.873363)
(-8.86285e-16 1.98639 -2.53485)
(-1.33231e-16 2.42097 0.792652)
(-1.83055e-15 2.60425 4.12474)
(-2.132e-15 2.36198 5.82941)
(-2.41948e-15 2.60103 6.96029)
(-2.38623e-15 2.49269 7.7823)
(-3.2281e-15 2.82159 8.79035)
(-2.59407e-15 1.53843 7.97707)
(-3.68243e-15 5.37765 13.1438)
(-3.72697e-15 5.63708 13.6399)
(-3.78505e-15 5.69071 14.0615)
(-3.83447e-15 5.76207 14.3987)
(-3.90571e-15 5.82352 14.6778)
(-3.94574e-15 5.86933 14.913)
(-3.86649e-15 5.8892 15.1158)
(-3.96628e-15 5.93291 15.2882)
(-3.97424e-15 5.91036 15.4297)
(-3.99883e-15 5.98836 15.5613)
(-3.99817e-15 5.85069 15.7348)
(-3.82387e-15 6.21214 16.3545)
(-4.81316e-15 5.78524 14.5313)
(-4.14997e-15 9.82422 15.2446)
(-2.35492e-15 3.71561 10.9049)
(-2.22295e-15 2.03267 10.6208)
(-2.32617e-15 1.376 11.2952)
(-1.13238e-15 -1.27063 4.87327)
(1.12982e-16 -1.0241 -5.05249)
(2.03525e-16 -0.657735 -3.97046)
(5.22676e-16 -0.0827373 -4.36495)
(2.13969e-15 0.50775 -5.03028)
(5.74081e-15 0.631076 -3.40114)
(4.42912e-15 -1.00325 -2.8618)
(2.22726e-16 0.522583 0.0278041)
(2.88592e-16 -0.349699 4.98357)
(3.66863e-16 -0.953125 4.6159)
(4.27342e-16 -1.53232 5.0195)
(7.92692e-16 -2.58167 8.70334)
(7.49579e-16 -4.04253 8.89899)
(7.10506e-16 -5.10028 8.93987)
(7.6208e-16 -6.1085 9.11281)
(1.78664e-15 -9.82812 12.8736)
(2.68808e-15 -8.09908 11.2021)
(1.62456e-15 -8.3793 11.9072)
(1.55791e-15 -8.37987 12.2416)
(1.27159e-15 -8.50531 12.5954)
(1.1107e-15 -8.55435 12.8931)
(9.74315e-16 -8.62401 13.1498)
(8.49114e-16 -8.66412 13.3613)
(7.24521e-16 -8.69289 13.5223)
(6.10436e-16 -8.69825 13.6235)
(4.98467e-16 -8.68409 13.6533)
(3.99339e-16 -8.62131 13.6009)
(2.94712e-16 -8.50791 13.4583)
(1.7645e-16 -8.45128 13.1858)
(-3.12225e-16 -4.09765 7.53232)
(-1.0431e-16 -5.11019 10.76)
(-3.07711e-16 -4.73421 10.3387)
(-4.14462e-16 -4.48885 9.71002)
(-5.99414e-16 -4.255 7.88484)
(-7.92228e-16 -4.54025 3.89089)
(-1.02113e-15 -4.20389 -2.143)
(-9.95364e-16 -4.52043 -2.40184)
(-1.09802e-15 -3.85953 -2.35583)
(-1.51471e-15 -4.22101 -2.77794)
(-1.47227e-15 -3.2042 -1.28271)
(-1.40331e-15 -2.9403 -1.467)
(-1.64086e-15 -3.10723 -1.7213)
(-1.07056e-15 -2.50669 -0.859883)
(-1.1161e-15 -2.29076 -0.978216)
(-1.0921e-15 -2.54418 -1.16208)
(-6.32797e-16 -2.03732 -0.59194)
(-8.32895e-16 -1.89155 -0.679705)
(-8.68827e-16 -2.13838 -0.802248)
(1.12946e-16 -1.73245 -0.406003)
(1.24361e-16 -1.78855 -0.453331)
(1.05538e-16 -1.54844 -0.4401)
(1.42236e-16 -1.96136 -0.517457)
(1.28627e-16 -1.7022 -0.313452)
(1.4358e-16 -1.39147 -0.317904)
(1.83405e-16 -1.74782 -0.286379)
(-2.17154e-17 -2.74071 -0.0519797)
(-7.54481e-13 232.069 207.225)
(9.6231e-14 -53.4352 -56.8028)
(5.17522e-14 -44.0114 -5.45389)
(-1.04889e-14 8.76707 45.8211)
(8.35497e-15 5.80634 -6.22546)
(7.26398e-15 15.697 8.36061)
(4.07654e-15 1.1536 -2.69012)
(4.62862e-15 -1.80777 -5.17757)
(6.84253e-15 12.1265 -0.296302)
(3.01907e-15 4.80748 -3.08227)
(4.7737e-16 -2.0287 -2.2476)
(-1.30063e-17 -3.47298 -0.484938)
(-1.57304e-17 -2.13503 0.865568)
(1.84566e-18 -1.10563 0.949861)
(4.67895e-20 -0.883936 0.156979)
(-2.34687e-19 -1.20813 -0.231159)
(-4.73678e-20 -1.41973 -0.106308)
(1.3673e-20 -1.41575 -0.0936891)
(4.37558e-18 -1.61895 0.188677)
(1.5194e-13 -85.5577 -71.8288)
(5.24834e-14 41.5406 38.7088)
(6.79074e-14 -42.2825 -6.54762)
(9.17945e-15 4.26438 18.6685)
(4.99606e-15 8.28127 0.600821)
(4.66113e-15 -1.5908 0.510421)
(5.48479e-15 2.06013 3.25173)
(4.06703e-15 1.75971 -0.699434)
(1.59033e-15 -2.97632 -1.24796)
(8.13756e-16 -1.6868 -0.38754)
(8.4408e-16 -2.67153 -2.43939)
(3.1572e-16 -3.56336 -1.7679)
(1.36674e-17 -2.18669 0.661247)
(-8.20905e-18 -0.426352 1.56227)
(2.79322e-18 -0.140967 -0.0791532)
(1.11507e-18 -1.02858 -0.458411)
(6.38947e-20 -1.26572 -0.351166)
(-1.2227e-19 -1.29059 -0.315627)
(-3.40433e-18 -1.45316 0.105855)
(-2.14509e-14 77.5513 9.42775)
(2.92519e-14 -0.00309458 -7.14452)
(6.91802e-14 -33.3593 -3.66409)
(3.12239e-14 -1.96971 -1.58816)
(5.37037e-15 9.30632 0.120421)
(5.82962e-15 5.53484 2.76336)
(3.7765e-15 1.37108 2.71747)
(9.67596e-16 1.88596 3.92478)
(4.52555e-16 4.59568 2.05999)
(4.00944e-16 2.12728 0.41456)
(7.16632e-16 -1.44405 -1.89686)
(5.79649e-16 -3.3954 -1.99446)
(1.77593e-16 -2.51013 -0.301682)
(-8.0367e-18 -0.00598699 1.01306)
(4.1222e-17 0.308149 -1.0546)
(4.57801e-19 -0.684883 -0.650209)
(4.70704e-19 -0.959797 -0.478248)
(3.58704e-19 -1.01511 -0.469889)
(2.60352e-17 -0.920976 -0.378111)
(2.07381e-14 5.90367 -2.50937)
(8.42325e-14 -8.10083 23.6891)
(6.02357e-14 -31.2017 -0.0274422)
(-7.24303e-15 6.87667 11.0987)
(5.84846e-15 9.1235 0.155648)
(5.62414e-15 1.91159 4.92815)
(3.07731e-15 1.35733 4.20819)
(1.08558e-15 1.50784 3.78513)
(3.21642e-16 2.19186 3.48412)
(7.32699e-17 1.89407 2.9266)
(4.15955e-16 -1.5068 -0.512226)
(6.67465e-16 -3.72253 -1.27731)
(3.51202e-16 -3.12422 -0.469885)
(6.49145e-17 -0.0510598 0.287957)
(1.54232e-16 0.406497 -1.52741)
(2.49867e-17 -1.00162 -1.27976)
(-9.52399e-18 -1.15118 -0.665559)
(-3.85912e-18 -1.17895 -0.485261)
(9.91742e-17 -0.994354 -0.979912)
(1.36947e-14 34.2373 9.72549)
(7.32381e-14 1.02572 5.69532)
(5.43255e-14 -29.3138 2.56964)
(8.0369e-15 1.06397 5.42051)
(5.46885e-15 10.355 1.5297)
(4.93075e-15 2.45837 5.6633)
(2.35776e-15 1.58491 5.12727)
(5.82956e-16 2.18225 5.88607)
(-3.18001e-16 3.45722 6.06641)
(-3.93211e-16 3.02679 5.45901)
(2.25625e-16 -0.610476 2.19552)
(6.21545e-16 -3.62444 -0.148353)
(4.46408e-16 -3.30751 0.271008)
(1.58987e-16 0.461459 -0.250489)
(4.15362e-16 0.737701 -1.65351)
(1.8056e-16 -1.15025 -2.0625)
(2.18165e-17 -1.36591 -1.1732)
(-2.20211e-17 -1.00829 -0.591443)
(3.33409e-16 -0.67158 -1.73205)
(2.09652e-14 17.6683 13.5725)
(6.89618e-14 -4.33669 6.84374)
(5.22619e-14 -26.7469 4.7099)
(2.57912e-14 3.143 -2.52995)
(5.33271e-15 9.41046 0.566197)
(4.08586e-15 1.19315 5.57498)
(1.66851e-15 1.08525 6.19142)
(-2.36229e-16 1.44097 7.75829)
(-1.29653e-15 2.99919 8.68805)
(-1.21988e-15 3.56477 8.355)
(-2.06309e-16 0.821161 5.5361)
(5.52765e-16 -2.95531 1.70124)
(4.52502e-16 -3.03988 1.4363)
(3.61474e-16 1.1875 -0.209354)
(8.3139e-16 1.0267 -0.0776445)
(5.46558e-16 -1.003 -1.80547)
(1.95713e-16 -1.63909 -1.32661)
(-6.09914e-17 -1.16913 -0.407853)
(6.34258e-16 -0.525892 -2.94816)
(2.00802e-14 19.6683 20.957)
(6.44374e-14 -4.04212 7.69965)
(5.07376e-14 -22.6637 7.13294)
(2.49255e-14 1.23699 -8.9036)
(5.0037e-15 7.69427 -0.226506)
(3.60155e-15 0.113983 4.88163)
(1.09941e-15 0.452039 7.42278)
(-1.39972e-15 1.07561 9.52396)
(-2.74566e-15 3.02887 10.7023)
(-2.4829e-15 4.19403 10.4672)
(-8.74321e-16 2.1539 8.47564)
(4.97279e-16 -2.27313 4.22843)
(4.23204e-16 -2.51403 2.67213)
(7.74429e-16 1.42824 2.3782)
(1.12088e-15 1.25605 3.60592)
(7.13685e-16 -1.32837 -0.0468878)
(3.60541e-16 -1.69515 -0.942345)
(6.4923e-17 -0.0845804 -1.85791)
(-6.45272e-16 0.97138 -0.539533)
(1.78146e-14 11.3618 26.2792)
(5.16896e-14 -2.91578 10.4655)
(4.50138e-14 -17.0289 10.034)
(1.17713e-14 3.44004 -12.6294)
(3.4376e-15 5.08895 2.06547)
(3.89319e-15 -1.66761 4.10235)
(9.3855e-16 -0.681546 8.02342)
(-2.61326e-15 0.266467 10.2764)
(-4.39292e-15 2.75376 11.2538)
(-3.76475e-15 4.55112 10.9187)
(-1.49651e-15 3.42355 10.397)
(5.44929e-16 -0.833619 7.10434)
(5.18521e-16 -2.05691 4.26744)
(9.81725e-16 0.761576 6.53965)
(1.22888e-15 1.62683 8.64528)
(8.75561e-16 0.52082 5.97569)
(4.62856e-16 -0.765818 2.86532)
(4.78419e-16 -1.61609 3.94718)
(9.30169e-16 -5.28664 8.48838)
(1.26202e-14 7.10138 31.6389)
(3.25384e-14 -1.84309 10.721)
(3.25788e-14 -10.2517 12.6748)
(3.50433e-15 3.72437 -12.3355)
(4.12807e-15 2.0724 7.12768)
(3.83051e-15 -2.61334 3.36176)
(9.67291e-16 -1.91329 8.27005)
(-3.35163e-15 -0.311794 9.9311)
(-5.34368e-15 2.72362 9.99306)
(-4.29617e-15 4.56575 9.43141)
(-1.80505e-15 3.54221 11.0391)
(8.18814e-16 -0.103806 11.4274)
(1.06288e-15 -1.90146 9.72039)
(9.55538e-16 -0.143099 11.7253)
(9.26346e-16 1.37877 13.1888)
(1.22191e-15 0.858536 12.9072)
(1.29017e-15 -0.608705 12.1376)
(1.20757e-15 -2.01059 11.492)
(1.22181e-15 -3.53976 11.242)
(5.26247e-15 1.80614 35.7497)
(1.35259e-14 -0.162629 7.1678)
(1.64652e-14 -4.01298 14.0106)
(3.07609e-15 2.59664 -9.9632)
(4.10707e-15 0.807451 7.46595)
(3.39561e-15 -3.07263 3.99617)
(3.30107e-16 -3.07033 8.55537)
(-3.60691e-15 -0.534586 9.07885)
(-5.17771e-15 2.93396 7.82272)
(-4.07457e-15 4.22569 7.35358)
(-2.12864e-15 2.58032 10.6254)
(6.38004e-16 -0.484866 13.4079)
(4.58338e-16 -1.9898 12.8684)
(-7.9116e-16 -0.530082 12.4099)
(-1.43499e-15 1.19037 12.1894)
(-9.82613e-17 0.80899 12.1181)
(1.26218e-15 -0.636727 11.5996)
(1.36345e-15 -1.83123 9.86293)
(8.7407e-16 -2.70766 6.12082)
(-5.65646e-15 -1.25664 36.1291)
(-4.59227e-15 -0.0346498 7.64665)
(-5.25875e-15 2.49598 14.765)
(1.6865e-15 1.3925 -9.37327)
(3.49838e-15 -0.735753 8.66202)
(2.59952e-15 -3.73431 5.93428)
(-2.79946e-16 -3.75351 9.36273)
(-4.1482e-15 -0.14956 8.12608)
(-5.24865e-15 3.36069 6.09104)
(-4.07159e-15 3.56231 6.08227)
(-3.23672e-15 1.13323 10.159)
(-2.48981e-15 -1.02653 13.4936)
(-2.18265e-15 -1.61007 13.6284)
(-3.14004e-15 0.052084 12.8217)
(-3.46563e-15 1.58329 12.1009)
(-3.22599e-15 1.35889 12.2767)
(-2.74059e-15 0.625398 11.3408)
(-2.1616e-15 0.558533 8.33318)
(-1.42754e-15 0.994445 3.73527)
(-1.07166e-14 -6.52462 32.0553)
(-1.33889e-14 1.62288 9.90489)
(-1.34148e-14 8.8914 13.2808)
(8.02639e-16 -0.711872 -7.66372)
(2.43415e-15 -2.10675 9.89301)
(1.10956e-15 -4.22635 7.69913)
(-1.77318e-15 -3.77011 9.94154)
(-5.71563e-15 0.753143 6.86979)
(-6.07153e-15 3.73611 5.04833)
(-4.20535e-15 2.66763 5.14091)
(-3.48732e-15 -0.417515 9.22645)
(-3.57228e-15 -1.82692 12.232)
(-2.94113e-15 -1.56951 11.6983)
(-2.06039e-15 0.15071 8.64414)
(-1.80992e-15 1.23967 7.0696)
(-2.80338e-15 0.891891 10.333)
(-3.4351e-15 0.672092 12.7617)
(-3.4282e-15 1.22215 12.2684)
(-2.92638e-15 2.02878 10.1191)
(-1.26355e-14 -10.6357 26.8373)
(-1.71854e-14 2.41856 9.71175)
(-1.61498e-14 14.7035 10.621)
(-2.39424e-15 -2.61202 -8.43315)
(1.17595e-15 -3.94656 9.39354)
(-7.41595e-16 -4.43781 7.9695)
(-3.83939e-15 -3.24983 9.24653)
(-7.42059e-15 1.71276 5.19434)
(-6.42201e-15 4.06871 4.05611)
(-3.85656e-15 1.96972 3.44811)
(-3.2561e-15 -1.61926 6.55827)
(-3.34853e-15 -2.10867 8.89671)
(-2.17899e-15 -0.323971 6.59865)
(-8.74285e-16 1.76892 2.06591)
(-3.55436e-16 1.14538 0.710078)
(-1.46592e-15 -0.721927 2.9519)
(-2.50985e-15 -0.159744 6.12908)
(-2.75127e-15 2.14936 7.55239)
(-3.39571e-15 6.51275 10.9735)
(-1.37992e-14 -18.5811 21.7965)
(-1.91515e-14 3.64491 7.23442)
(-1.63768e-14 19.9068 7.79331)
(-6.26261e-15 -2.77687 -8.06214)
(-2.17549e-16 -6.57217 8.09044)
(-2.44343e-15 -4.67318 6.87806)
(-5.56859e-15 -2.50646 7.45994)
(-8.0864e-15 2.54024 3.57934)
(-6.31576e-15 4.46509 2.83296)
(-3.13381e-15 1.78243 1.73585)
(-2.73937e-15 -2.42096 3.28384)
(-3.06839e-15 -2.01563 5.20955)
(-2.0425e-15 1.14236 2.57097)
(-1.1692e-15 2.44852 0.692335)
(-3.16283e-16 1.25929 1.17206)
(-5.8992e-16 -1.31392 0.00697444)
(-1.70476e-15 -1.05586 1.66449)
(-4.62575e-16 -0.781566 -1.28971)
(8.92845e-17 -2.03894 -0.914017)
(-1.45696e-14 -16.8866 14.7092)
(-1.90561e-14 4.02001 5.97015)
(-1.5031e-14 23.8796 5.42422)
(-6.47142e-15 -4.49865 -4.68792)
(-1.68487e-15 -8.74102 6.84565)
(-3.79545e-15 -4.4903 5.48039)
(-6.54938e-15 -1.7054 5.44489)
(-7.92734e-15 3.29044 2.15882)
(-5.87795e-15 4.86435 1.38249)
(-2.23024e-15 1.98766 0.874529)
(-1.87785e-15 -2.87091 0.728084)
(-2.81649e-15 -2.06862 2.17002)
(-2.14902e-15 1.63855 0.498697)
(-8.39369e-16 2.48206 0.115702)
(-7.58436e-17 1.37645 0.84798)
(-9.24125e-17 -0.960868 -0.100187)
(-6.98546e-16 -0.538103 -0.725678)
(-1.24826e-16 1.45949 -0.515436)
(3.43769e-16 1.80921 -1.52295)
(-1.53619e-14 -32.5297 11.2477)
(-1.78549e-14 -1.10767 3.88362)
(-1.37813e-14 26.7186 3.40226)
(-4.12142e-15 -4.47462 1.98019)
(-3.01687e-15 -10.298 5.63443)
(-4.83198e-15 -4.63181 4.19651)
(-6.91367e-15 -1.00721 3.29545)
(-7.41575e-15 4.00166 0.431666)
(-4.89093e-15 5.1496 -0.0380765)
(-1.27138e-15 2.15266 0.784756)
(-8.62397e-16 -2.78581 -0.10206)
(-2.12525e-15 -2.16356 -0.0976838)
(-1.76395e-15 1.43654 -0.793024)
(-4.4449e-16 2.45886 -0.338677)
(-1.54901e-18 1.35563 0.561364)
(1.44795e-17 -0.596871 0.215805)
(-1.23718e-16 -0.301034 -1.15715)
(-1.51768e-17 0.583411 -0.870021)
(7.14072e-17 0.12748 -0.845066)
(-1.77949e-14 -5.60604 -0.311013)
(-1.68527e-14 6.48072 21.7644)
(-1.34501e-14 28.8844 1.09836)
(-1.279e-15 -5.87306 8.42088)
(-3.77777e-15 -9.31045 3.13703)
(-5.52534e-15 -3.11424 3.43492)
(-7.00076e-15 0.169456 1.71887)
(-6.53439e-15 4.44098 -1.48767)
(-3.42163e-15 4.91879 -0.937922)
(-4.39583e-16 1.9203 1.21617)
(-1.53184e-16 -2.36353 0.463697)
(-1.18774e-15 -1.87585 -0.99939)
(-8.93542e-16 1.31211 -1.32389)
(-1.58311e-16 2.12411 -0.58535)
(2.13316e-17 1.1503 0.456538)
(1.0362e-18 -0.279837 0.300605)
(1.62903e-17 -0.174812 -0.863351)
(6.38919e-18 0.838551 -0.519266)
(-1.69517e-20 1.01019 -0.453391)
(-1.36739e-14 -73.7136 11.198)
(-1.7104e-14 1.52517 -6.72754)
(-1.36666e-14 30.4111 -2.08726)
(-3.00499e-15 -6.41228 1.83393)
(-3.49372e-15 -9.32847 0.938639)
(-5.84017e-15 -5.76332 2.20578)
(-6.83265e-15 0.316986 -0.467342)
(-4.83386e-15 4.41371 -2.94796)
(-1.61937e-15 3.98304 -0.756404)
(6.18413e-17 1.29767 1.97603)
(7.88584e-17 -1.82981 1.11292)
(-4.70798e-16 -1.44607 -0.7592)
(-2.63038e-16 1.25514 -1.20554)
(-1.87404e-17 1.73178 -0.533685)
(6.34551e-18 0.875776 0.480985)
(-1.77745e-19 -0.113678 0.377249)
(1.14144e-17 -0.12319 -0.549452)
(6.21777e-19 0.497531 -0.506636)
(-2.27846e-18 0.607058 -0.169673)
(-4.52261e-14 80.4671 -66.3145)
(-2.70618e-14 -40.246 35.4118)
(-1.22817e-14 39.3113 -5.36684)
(-1.98216e-15 -1.63409 12.624)
(-2.34999e-15 -7.64822 1.32807)
(-4.54536e-15 2.03295 0.532172)
(-5.1701e-15 2.30275 -1.82103)
(-2.16833e-15 5.19468 -3.15271)
(-1.23757e-16 3.42434 0.676996)
(9.11946e-17 1.1194 2.66302)
(2.55955e-17 -1.07246 1.6133)
(-1.08321e-16 -0.819268 -0.297627)
(-5.60046e-18 1.34211 -1.17575)
(2.30566e-18 1.70452 -0.347315)
(-8.7715e-19 0.89153 0.623422)
(-3.18158e-20 0.269532 0.547732)
(-3.97124e-19 0.245902 -0.142728)
(-3.24307e-19 0.68499 -0.426026)
(5.55046e-19 1.01359 0.0347432)
(9.51841e-14 -220.061 199.514)
(-2.06914e-14 51.2239 -54.7933)
(-8.75545e-15 40.2347 -4.4847)
(5.13815e-16 -17.3099 44.0784)
(-4.93305e-15 -7.7249 -8.49263)
(-1.10988e-14 -13.8798 6.97113)
(-1.28828e-15 3.59359 -4.11584)
(2.04276e-16 5.56863 -1.48812)
(1.54852e-16 3.08177 1.38492)
(-1.17609e-17 1.36444 1.90397)
(-1.08263e-18 -1.15666 2.48238)
(7.62995e-18 -0.366657 -0.144018)
(8.62222e-18 1.65963 -0.562963)
(1.65632e-19 1.67735 0.005393)
(-2.47547e-19 1.01956 0.409659)
(4.18913e-20 0.590128 0.316841)
(6.76678e-20 0.516617 -0.033727)
(8.87645e-20 0.756549 -0.209887)
(-1.43317e-19 1.01614 0.0843926)
(1.32511e-16 5.63859 10.1558)
(-5.38248e-15 10.2031 17.3111)
(-4.67587e-15 10.1499 17.0513)
(-4.36991e-15 9.88876 16.3746)
(-4.31554e-15 9.88541 16.2115)
(-6.50475e-15 9.93991 16.139)
(-5.08022e-15 9.82149 15.7926)
(-4.48017e-15 9.82789 15.8224)
(-4.24855e-15 9.83625 15.8548)
(-4.18108e-15 9.82854 15.8664)
(-4.14761e-15 9.807 15.8807)
(-4.44201e-15 9.78509 15.899)
(-4.47924e-15 9.76352 15.9169)
(-4.14118e-15 9.73226 15.9419)
(-4.39763e-15 9.70831 15.9533)
(-4.18921e-15 9.65259 15.9616)
(-4.21915e-15 9.69862 16.0762)
(-3.98209e-15 10.1 16.903)
(-4.09617e-15 9.95867 16.539)
(-7.52265e-15 5.16732 8.75494)
(4.68509e-17 5.30132 8.97177)
(-4.70434e-15 9.33891 16.0046)
(-3.74385e-15 8.96997 15.471)
(-3.7164e-15 8.77627 15.1142)
(-3.44213e-15 8.76897 15.1778)
(-5.84082e-15 8.80866 15.2092)
(-3.58444e-15 8.84893 15.3194)
(-3.64619e-15 8.88809 15.3264)
(-3.52008e-15 8.89888 15.3529)
(-3.61668e-15 8.92753 15.3773)
(-3.77066e-15 8.94609 15.4067)
(-3.8742e-15 8.96582 15.4347)
(-3.77707e-15 8.98581 15.4605)
(-3.5271e-15 8.99623 15.4912)
(-3.77451e-15 9.01701 15.5068)
(-3.88424e-15 9.00455 15.523)
(-3.69528e-15 9.12306 15.6843)
(-3.60318e-15 9.5568 16.4962)
(-3.81135e-15 9.21068 15.8613)
(-6.80526e-15 4.2307 7.36625)
(2.66043e-19 5.82644 10.1568)
(-1.7261e-15 9.6659 16.5595)
(-1.16091e-15 9.24246 15.9553)
(-1.58366e-15 9.07359 15.5809)
(-9.64246e-16 9.04443 15.5871)
(-3.56262e-15 9.06346 15.581)
(-1.71065e-15 9.0387 15.5728)
(-1.8254e-15 9.04371 15.5751)
(-1.72339e-15 9.03613 15.5847)
(-1.82972e-15 9.03801 15.5897)
(-1.73548e-15 9.03365 15.599)
(-1.6703e-15 9.03258 15.6086)
(-1.54763e-15 9.03259 15.6187)
(-1.68016e-15 9.02731 15.6343)
(-1.73485e-15 9.03144 15.639)
(-1.88829e-15 9.00743 15.6441)
(-1.66239e-15 9.09842 15.7714)
(-1.71296e-15 9.49661 16.5618)
(-1.73383e-15 9.25554 16.0836)
(-2.97343e-15 4.47071 7.92656)
(-1.20548e-18 5.83624 10.098)
(3.92309e-16 9.50679 16.3546)
(2.94057e-16 9.06045 15.6799)
(3.1868e-16 8.90569 15.3618)
(2.69522e-16 8.88667 15.3889)
(-2.07102e-15 8.9055 15.3941)
(-1.93382e-15 8.89543 15.4144)
(-1.7846e-15 8.90514 15.4185)
(-1.51529e-15 8.89857 15.4317)
(-1.68227e-15 8.90334 15.4396)
(-1.78504e-15 8.90086 15.4515)
(-1.53122e-15 8.90193 15.4621)
(-1.78656e-15 8.90272 15.4728)
(-1.65584e-15 8.89955 15.487)
(-1.82574e-15 8.90357 15.4925)
(-1.68785e-15 8.88328 15.4957)
(-1.71207e-15 8.94896 15.5831)
(-1.55378e-15 9.30715 16.2979)
(-1.62781e-15 9.23727 16.1506)
(-2.74893e-15 4.73747 8.38061)
(5.89267e-19 6.00323 10.4184)
(-8.78518e-17 9.53069 16.3906)
(-6.79799e-17 9.07001 15.6995)
(-7.19128e-17 8.92076 15.3859)
(-7.0244e-17 8.89877 15.4052)
(4.8896e-16 8.91314 15.4062)
(3.86011e-16 8.89832 15.4164)
(4.21785e-16 8.90305 15.4181)
(4.02084e-16 8.89422 15.4271)
(4.13989e-16 8.89497 15.4314)
(3.99486e-16 8.88937 15.4393)
(3.97178e-16 8.88732 15.4459)
(3.68105e-16 8.88469 15.4529)
(3.88121e-16 8.87932 15.4627)
(4.14526e-16 8.88068 15.4666)
(4.26295e-16 8.86149 15.4685)
(3.96006e-16 8.89618 15.5053)
(3.95191e-16 9.1853 16.0951)
(4.0472e-16 9.33932 16.3419)
(6.41594e-16 5.21608 9.23318)
(-2.3444e-19 6.11193 10.5802)
(2.15072e-17 9.48979 16.325)
(1.61264e-17 9.02238 15.6073)
(1.78462e-17 8.8793 15.3147)
(1.67959e-17 8.86183 15.3342)
(-1.19254e-16 8.87518 15.3367)
(-8.73465e-17 8.86317 15.3478)
(-9.43297e-17 8.86812 15.3497)
(-9.58239e-17 8.86045 15.3583)
(-9.50986e-17 8.86176 15.3624)
(-9.72384e-17 8.85686 15.3698)
(-1.00913e-16 8.85558 15.3756)
(-9.22753e-17 8.85312 15.3819)
(-8.9954e-17 8.84885 15.3901)
(-9.40077e-17 8.85003 15.3942)
(-9.75571e-17 8.83551 15.3984)
(-9.39662e-17 8.85187 15.4078)
(-9.33788e-17 9.07099 15.8566)
(-1.01011e-16 9.38831 16.3969)
(-1.51233e-16 5.66776 9.99473)
(8.05335e-20 6.2681 10.8437)
(-5.37472e-18 9.47829 16.2993)
(-3.983e-18 8.99859 15.5578)
(-4.41502e-18 8.86655 15.2871)
(-3.82397e-18 8.85091 15.3054)
(2.93296e-17 8.86283 15.3071)
(2.09452e-17 8.85159 15.3163)
(2.25771e-17 8.85584 15.3175)
(2.24562e-17 8.84873 15.3247)
(2.23342e-17 8.84988 15.3278)
(2.28687e-17 8.84525 15.334)
(2.41616e-17 8.8443 15.3385)
(2.35746e-17 8.84182 15.3438)
(2.14911e-17 8.83847 15.3503)
(2.22158e-17 8.83931 15.3539)
(2.23938e-17 8.82847 15.3588)
(2.19148e-17 8.83634 15.3571)
(2.17587e-17 8.99887 15.6913)
(2.60085e-17 9.4078 16.3884)
(3.4935e-17 6.06158 10.6529)
(-2.45317e-20 6.43 11.1104)
(1.31073e-18 9.45294 16.2547)
(9.95789e-19 8.96351 15.4897)
(1.06207e-18 8.84575 15.2481)
(8.80702e-19 8.83282 15.2664)
(-6.87807e-18 8.84377 15.2681)
(-4.99977e-18 8.83397 15.2768)
(-5.5175e-18 8.8381 15.2781)
(-5.39948e-18 8.83199 15.285)
(-5.33513e-18 8.83342 15.288)
(-5.34868e-18 8.82946 15.2939)
(-5.54332e-18 8.82922 15.2982)
(-5.71596e-18 8.82706 15.3034)
(-5.14368e-18 8.82493 15.3092)
(-5.51079e-18 8.82565 15.3131)
(-5.27271e-18 8.81781 15.3186)
(-5.13246e-18 8.822 15.3139)
(-5.11269e-18 8.946 15.57)
(-6.54689e-18 9.39499 16.3335)
(-7.87894e-18 6.37061 11.1634)
(6.89089e-21 6.60736 11.4093)
(-3.091e-19 9.42724 16.2105)
(-2.47295e-19 8.93091 15.4294)
(-2.51122e-19 8.82969 15.2192)
(-2.12922e-19 8.81858 15.2372)
(1.58119e-18 8.82847 15.2386)
(1.20224e-18 8.81965 15.2466)
(1.34196e-18 8.82344 15.248)
(1.31595e-18 8.81805 15.2543)
(1.28853e-18 8.81949 15.2572)
(1.26136e-18 8.81596 15.2629)
(1.26031e-18 8.81614 15.2668)
(1.33175e-18 8.81405 15.272)
(1.23783e-18 8.81285 15.2772)
(1.36274e-18 8.81318 15.2814)
(1.26543e-18 8.80756 15.2871)
(1.19986e-18 8.80978 15.2819)
(1.21634e-18 8.90733 15.4849)
(1.59651e-18 9.36908 16.2686)
(1.75983e-18 6.61899 11.5773)
(-1.84258e-21 6.78836 11.7148)
(7.13169e-20 9.39354 16.1554)
(6.09408e-20 8.89688 15.3686)
(5.88366e-20 8.81256 15.1903)
(5.35072e-20 8.803 15.208)
(-3.67666e-19 8.81187 15.2092)
(-2.94332e-19 8.80401 15.2167)
(-3.22382e-19 8.80745 15.2183)
(-3.17561e-19 8.80275 15.2243)
(-3.10915e-19 8.80414 15.2273)
(-2.98053e-19 8.80101 15.2328)
(-2.89043e-19 8.80149 15.2366)
(-3.06876e-19 8.79941 15.2419)
(-2.98827e-19 8.79903 15.2467)
(-3.29452e-19 8.79882 15.2514)
(-3.03981e-19 8.79507 15.257)
(-2.82391e-19 8.79586 15.2526)
(-2.90517e-19 8.8741 15.4164)
(-3.80565e-19 9.33398 16.1977)
(-3.92968e-19 6.8295 11.932)
(4.78278e-22 6.97194 12.0265)
(-1.63243e-20 9.35451 16.092)
(-1.48902e-20 8.86472 15.3123)
(-1.36821e-20 8.79665 15.1646)
(-1.35626e-20 8.78819 15.1815)
(8.69303e-20 8.79605 15.1825)
(7.26408e-20 8.78901 15.1895)
(7.62201e-20 8.79203 15.1913)
(7.53689e-20 8.78791 15.197)
(7.42072e-20 8.78912 15.2)
(7.0401e-20 8.78632 15.2053)
(6.74992e-20 8.78695 15.209)
(7.13467e-20 8.78481 15.2144)
(7.16737e-20 8.78507 15.2188)
(7.80532e-20 8.7842 15.2239)
(7.25291e-20 8.7821 15.2291)
(6.72603e-20 8.78159 15.226)
(6.94582e-20 8.84457 15.358)
(8.96181e-20 9.29296 16.1224)
(8.81808e-20 7.02125 12.2585)
(-1.21931e-22 7.15523 12.3381)
(3.73934e-21 9.30924 16.0186)
(3.59438e-21 8.83423 15.2595)
(3.16573e-21 8.78112 15.1401)
(3.39104e-21 8.77349 15.1558)
(-2.07043e-20 8.78039 15.1568)
(-1.78179e-20 8.77413 15.1633)
(-1.77105e-20 8.7767 15.1653)
(-1.77211e-20 8.77315 15.1707)
(-1.75123e-20 8.77411 15.1737)
(-1.66347e-20 8.77166 15.1789)
(-1.60808e-20 8.77232 15.1824)
(-1.68117e-20 8.77016 15.1879)
(-1.69628e-20 8.77094 15.1919)
(-1.82645e-20 8.76942 15.1975)
(-1.72373e-20 8.76882 15.2021)
(-1.61366e-20 8.76709 15.2007)
(-1.66521e-20 8.81744 15.3053)
(-2.10123e-20 9.2463 16.0402)
(-1.98629e-20 7.20412 12.5714)
(3.08128e-23 7.33783 12.6487)
(-8.61401e-22 9.25842 15.9359)
(-8.55945e-22 8.80611 15.211)
(-7.33136e-22 8.76637 15.1171)
(-8.28716e-22 8.75934 15.1315)
(4.92632e-21 8.76535 15.1325)
(4.31538e-21 8.75982 15.1385)
(4.06344e-21 8.76193 15.1407)
(4.16521e-21 8.75892 15.1457)
(4.11004e-21 8.75958 15.1488)
(3.92378e-21 8.7575 15.1537)
(3.88686e-21 8.75809 15.1572)
(3.99435e-21 8.75597 15.1626)
(3.96906e-21 8.75715 15.1663)
(4.25235e-21 8.75502 15.1722)
(4.09959e-21 8.75579 15.1763)
(3.87422e-21 8.75292 15.1767)
(4.00989e-21 8.79268 15.2572)
(4.93026e-21 9.19432 15.9501)
(4.47546e-21 7.38299 12.8781)
(-7.77122e-24 7.51934 12.9575)
(2.00295e-22 9.20194 15.8434)
(2.01818e-22 8.78032 15.1666)
(1.70917e-22 8.75223 15.0953)
(1.97996e-22 8.74565 15.1081)
(-1.16665e-21 8.75085 15.1091)
(-1.03277e-21 8.74602 15.1147)
(-9.30861e-22 8.74766 15.1171)
(-9.83136e-22 8.7452 15.1217)
(-9.64601e-22 8.74554 15.125)
(-9.21238e-22 8.74384 15.1296)
(-9.43946e-22 8.74429 15.1331)
(-9.52374e-22 8.74231 15.1383)
(-9.25797e-22 8.74374 15.1418)
(-9.90073e-22 8.74115 15.1479)
(-9.7683e-22 8.74313 15.1514)
(-9.27505e-22 8.73919 15.1537)
(-9.68936e-22 8.77022 15.2133)
(-1.16069e-21 9.13697 15.8514)
(-1.00664e-21 7.55979 13.1813)
(1.95902e-24 7.69989 13.2645)
(-4.71111e-23 9.13994 15.7414)
(-4.74681e-23 8.75696 15.1265)
(-4.01714e-23 8.73878 15.0746)
(-4.65331e-23 8.73252 15.0858)
(2.74562e-22 8.73698 15.0868)
(2.45038e-22 8.73283 15.092)
(2.15576e-22 8.73399 15.0945)
(2.33191e-22 8.73206 15.0987)
(2.27073e-22 8.73207 15.1021)
(2.15585e-22 8.73078 15.1064)
(2.28241e-22 8.73101 15.1099)
(2.27781e-22 8.72928 15.115)
(2.1719e-22 8.73077 15.1183)
(2.31206e-22 8.72792 15.1246)
(2.32727e-22 8.73089 15.1275)
(2.21208e-22 8.726 15.1316)
(2.34204e-22 8.75008 15.1733)
(2.74243e-22 9.07422 15.7438)
(2.25995e-22 7.73526 13.4818)
(-4.91212e-25 7.87976 13.5702)
(1.11994e-23 9.07251 15.6298)
(1.12188e-23 8.73614 15.0909)
(9.49211e-24 8.72619 15.055)
(1.08575e-23 8.72015 15.0647)
(-6.41981e-23 8.72389 15.0658)
(-5.77987e-23 8.72046 15.0704)
(-5.08191e-23 8.7211 15.0732)
(-5.55406e-23 8.71967 15.077)
(-5.36961e-23 8.71937 15.0804)
(-5.06051e-23 8.71842 15.0844)
(-5.4697e-23 8.7184 15.088)
(-5.47099e-23 8.71702 15.0927)
(-5.1521e-23 8.71832 15.096)
(-5.42515e-23 8.71548 15.1022)
(-5.53217e-23 8.7191 15.1047)
(-5.26012e-23 8.71341 15.1105)
(-5.64495e-23 8.73226 15.1373)
(-6.49552e-23 9.00613 15.6274)
(-5.06955e-23 7.90968 13.7798)
(1.21389e-25 8.05938 13.8752)
(-2.68102e-24 8.99948 15.5081)
(-2.67303e-24 8.7178 15.0597)
(-2.24667e-24 8.71455 15.0366)
(-2.53721e-24 8.70878 15.0447)
(1.49437e-23 8.71174 15.0461)
(1.35832e-23 8.70916 15.0501)
(1.21758e-23 8.70929 15.053)
(1.32699e-23 8.7083 15.0564)
(1.27648e-23 8.70781 15.0598)
(1.19999e-23 8.70712 15.0635)
(1.30073e-23 8.70686 15.0672)
(1.31815e-23 8.70588 15.0715)
(1.23637e-23 8.70673 15.0749)
(1.28094e-23 8.70428 15.0809)
(1.3117e-23 8.70799 15.0831)
(1.24987e-23 8.70176 15.0904)
(1.35451e-23 8.71698 15.1053)
(1.54007e-23 8.93309 15.5027)
(1.13843e-23 8.08318 14.0752)
(-2.92664e-26 8.23966 14.1804)
(6.42831e-25 8.9206 15.3748)
(6.40128e-25 8.70165 15.0324)
(5.31527e-25 8.70362 15.0189)
(5.9604e-25 8.69851 15.0253)
(-3.47506e-24 8.70034 15.0269)
(-3.18617e-24 8.69873 15.0302)
(-2.94116e-24 8.6984 15.033)
(-3.17329e-24 8.6977 15.0361)
(-3.04666e-24 8.69712 15.0394)
(-2.88014e-24 8.69657 15.0428)
(-3.08175e-24 8.69617 15.0464)
(-3.1708e-24 8.69557 15.0503)
(-2.98749e-24 8.69586 15.054)
(-3.04244e-24 8.69426 15.0594)
(-3.10388e-24 8.69726 15.0619)
(-2.97302e-24 8.6913 15.0701)
(-3.23283e-24 8.70425 15.0762)
(-3.65022e-24 8.85558 15.3705)
(-2.56564e-24 8.25515 14.3662)
(6.89825e-27 8.42319 14.4926)
(-1.55417e-25 8.83808 15.2311)
(-1.5482e-25 8.69069 15.012)
(-1.2706e-25 8.69522 15.0051)
(-1.42148e-25 8.69182 15.0089)
(8.19736e-25 8.69212 15.0105)
(7.55157e-25 8.69115 15.0126)
(7.18278e-25 8.69035 15.0148)
(7.65903e-25 8.68952 15.0171)
(7.36601e-25 8.68863 15.0197)
(7.05819e-25 8.68775 15.0224)
(7.38406e-25 8.68689 15.0254)
(7.65697e-25 8.68605 15.0287)
(7.30266e-25 8.68543 15.0321)
(7.33578e-25 8.68433 15.0364)
(7.41212e-25 8.68532 15.0397)
(7.16102e-25 8.68104 15.0469)
(7.75468e-25 8.69107 15.0483)
(8.7263e-25 8.77265 15.2324)
(5.86548e-25 8.42326 14.6449)
(-1.30988e-27 8.61058 14.8239)
(3.13615e-26 8.75271 15.0801)
(3.11339e-26 8.69281 15.0032)
(2.56488e-26 8.695 15.0014)
(2.84555e-26 8.69442 15.0021)
(-1.63226e-25 8.69407 15.0026)
(-1.5094e-25 8.69366 15.0031)
(-1.46325e-25 8.69305 15.0038)
(-1.54485e-25 8.69232 15.0046)
(-1.4935e-25 8.69143 15.0056)
(-1.45957e-25 8.69038 15.0067)
(-1.49171e-25 8.68914 15.008)
(-1.53694e-25 8.68772 15.0095)
(-1.48946e-25 8.68604 15.0113)
(-1.48858e-25 8.68417 15.0133)
(-1.48561e-25 8.68208 15.0156)
(-1.45115e-25 8.67892 15.0189)
(-1.55484e-25 8.67938 15.02)
(-1.75153e-25 8.69418 15.0844)
(-1.1326e-25 8.5934 14.8933)
(-4.33032e-27 -2.62707 17.0761)
(-1.65862e-26 -8.04353 13.7251)
(-1.90046e-26 -5.17798 14.5751)
(-4.34311e-26 -4.9761 14.1931)
(-4.91486e-26 -4.05471 14.16)
(2.37234e-25 -3.48813 13.9961)
(1.31814e-24 -2.91456 13.8489)
(3.54422e-24 -2.44501 13.6679)
(6.88033e-24 -2.03533 13.4635)
(1.16882e-23 -1.69481 13.2285)
(1.87916e-23 -1.41931 12.9648)
(2.23907e-23 -1.21319 12.6757)
(-6.59899e-24 -1.07936 12.3652)
(-1.233e-22 -1.02917 12.0335)
(-3.51445e-22 -1.0793 11.6779)
(-5.81878e-22 -1.19843 11.3161)
(-5.89941e-22 -1.42275 10.8892)
(-2.67803e-22 -2.07149 10.0278)
(2.22971e-22 -2.35904 8.60446)
(4.289e-22 0.201073 6.43503)
(-4.2542e-27 -11.1837 28.5884)
(7.48194e-26 -17.1396 25.0404)
(1.03566e-25 -12.0806 25.4265)
(-8.04334e-26 -12.7849 23.6829)
(-4.58779e-25 -11.0606 22.9159)
(-1.16305e-25 -10.4326 21.8005)
(3.15052e-24 -9.47461 20.8615)
(1.27465e-23 -8.74634 19.8937)
(3.15799e-23 -8.03128 18.9754)
(5.16839e-23 -7.40653 18.0744)
(2.8615e-23 -6.82901 17.1842)
(-1.33253e-22 -6.29252 16.2695)
(-4.97728e-22 -5.77583 15.2985)
(-8.7573e-22 -5.26389 14.2346)
(-7.23727e-22 -4.70669 12.9799)
(4.62824e-22 -3.93007 11.2369)
(2.58766e-21 -2.60284 8.35603)
(2.96754e-21 -0.435721 3.67619)
(-1.40721e-20 2.09319 -1.88463)
(-8.55883e-20 2.3507 -4.56664)
(2.95249e-27 -13.9541 30.2788)
(-1.66846e-25 -18.1016 27.2205)
(-2.80799e-25 -13.2466 27.1346)
(-4.95542e-25 -14.3557 24.6133)
(-1.88012e-25 -12.2051 23.6363)
(2.06778e-24 -11.8246 21.9246)
(7.97298e-24 -10.7151 20.6427)
(1.98623e-23 -10.0305 19.2449)
(3.59117e-23 -9.25198 17.9759)
(3.56111e-23 -8.59673 16.719)
(-5.30132e-23 -7.9661 15.4922)
(-3.68248e-22 -7.38969 14.2313)
(-9.58821e-22 -6.83542 12.9074)
(-1.33374e-21 -6.29487 11.5185)
(-1.53167e-23 -5.73372 10.0352)
(5.32685e-21 -4.99686 8.18258)
(1.48632e-20 -3.706 5.47645)
(5.9656e-20 -1.9019 1.85403)
(-1.68246e-19 -0.136198 -1.02934)
(-1.949e-19 0.70294 -3.26903)