/*--------------------------------*- C++ -*----------------------------------*\
| =========                 |                                                 |
| \\      /  F ield         | OpenFOAM: The Open Source CFD Toolbox           |
|  \\    /   O peration     | Version:  4.1                                   |
|   \\  /    A nd           | Web:      www.OpenFOAM.org                      |
|    \\/     M anipulation  |                                                 |
\*---------------------------------------------------------------------------*/
FoamFile
{
    version     2.0;
    format      ascii;
    class       volScalarField;
    location    "5";
    object      epsilon;
}
// * * * * * * * * * * * * * * * * * * * * * * * * * * * * * * * * * * * * * //

dimensions      [0 2 -3 0 0 0 0];

internalField   nonuniform List<scalar> 
1280
(
0.000372789
0.000216613
0.000418347
0.000439941
0.000264262
0.00051776
0.000555171
0.000597029
0.000370736
0.000769624
0.00086486
0.000590415
0.00107276
0.00121249
0.000982945
0.00172859
0.00193306
0.00181652
0.00314723
0.00325015
0.146958
0.583951
0.567504
0.44459
0.355247
0.283168
0.118713
0.0964544
0.0812697
0.070691
0.0616467
0.0543597
0.0484052
0.0437909
0.0398672
0.036257
0.0354145
0.0361489
0.0370641
0.0416875
0.00248406
0.00420874
0.00402853
0.00386233
0.00202314
0.00301581
0.00293064
0.00304296
0.00206655
0.00311275
0.00313136
0.00205897
0.00287464
0.00275254
0.00283818
0.00201068
0.00390275
0.00408307
0.00427821
0.00253328
0.0428656
0.0373864
0.0363312
0.0371945
0.0371615
0.0414117
0.0447645
0.0492778
0.0549777
0.062161
0.0709695
0.0811298
0.095859
0.116143
0.280521
0.351064
0.440237
0.560587
0.574548
0.144812
0.00284312
0.00275022
0.00158632
0.00165675
0.00147722
0.000837977
0.00103455
0.000914837
0.000499857
0.000737018
0.000653788
0.000308663
0.000498785
0.000463973
0.000431578
0.000214945
0.000359016
0.000341114
0.000174273
0.00030001
0.00190602
0.00183342
0.00168659
0.00142213
0.00113194
0.00113209
0.00125503
0.000766669
0.000414426
0.000318876
0.000289844
0.00029569
0.000332435
0.00032562
0.000234121
0.000158132
0.000105296
7.20962e-05
9.43005e-05
0.0022088
0.0023573
0.00246094
0.00210621
0.00124476
0.000995703
0.00109666
0.000703493
0.000397986
0.000326521
0.000300191
0.000314416
0.000495084
0.000488396
0.000336877
0.000180981
0.000115072
7.74572e-05
0.000126542
0.00250363
0.00297809
0.00311869
0.00288537
0.0017387
0.000940791
0.000824479
0.000597401
0.000366946
0.000345432
0.000406083
0.00066808
0.00123955
0.00114174
0.000603365
0.000250377
0.000146828
9.37361e-05
0.000272071
0.00287087
0.00361213
0.0039566
0.00402368
0.00259746
0.00113639
0.000738802
0.000551987
0.000370145
0.000358546
0.000497785
0.00162346
0.00602337
0.00370606
0.00181181
0.000631386
0.000326795
0.000227583
0.000889913
0.00327301
0.00433944
0.00494629
0.00492635
0.00348004
0.00158202
0.000851508
0.000633895
0.000529926
0.000822482
0.00223138
0.00751329
0.0176154
0.0107512
0.00344284
0.00132821
0.000617453
0.000507529
0.00294359
0.00355865
0.00491159
0.005467
0.00560167
0.00464947
0.00265858
0.00136904
0.00100951
0.000738659
0.00137457
0.0052938
0.0230532
0.0353515
0.0265169
0.00953125
0.00228292
0.00229617
0.00236264
0.0137813
0.00376288
0.0050606
0.00559895
0.00591576
0.00592848
0.00486155
0.00314312
0.00252653
0.00304285
0.00582496
0.0173751
0.0371117
0.0431251
0.0407004
0.0244404
0.0106114
0.00923983
0.0141877
0.0598999
0.00360654
0.00446699
0.00496337
0.00581934
0.00651447
0.00689075
0.00680208
0.00650604
0.00790815
0.0146789
0.0278281
0.0327262
0.0316026
0.043368
0.0543385
0.0511489
0.0591536
0.0307322
0.0204063
0.00325481
0.00383173
0.00422137
0.0051833
0.00615393
0.00742095
0.00849369
0.0100107
0.0111574
0.0131999
0.0134381
0.00997656
0.0107469
0.0165195
0.0255464
0.0289982
0.0188398
0.00942506
0.00743436
0.00290913
0.00328325
0.00351576
0.00423162
0.00471383
0.00531228
0.00599756
0.00706321
0.00746578
0.00675992
0.00530879
0.00506573
0.00653389
0.00788332
0.010044
0.0118337
0.0137966
0.0154295
0.0163562
0.0030869
0.00334338
0.0034289
0.00411868
0.0045065
0.00498771
0.00546819
0.00637251
0.00685603
0.00639086
0.00578887
0.00552883
0.00707737
0.00848054
0.0108274
0.0129001
0.0139909
0.0161339
0.0169865
0.00372751
0.00422618
0.0044408
0.00529788
0.00624461
0.00770371
0.00940466
0.0115288
0.0133493
0.0150464
0.0152126
0.0128908
0.0147627
0.0230501
0.0329297
0.0347364
0.0185703
0.0101151
0.00779844
0.00429012
0.00529869
0.0057157
0.0064624
0.00725289
0.0083006
0.00907944
0.0101648
0.0114746
0.0183947
0.0336995
0.042834
0.0431932
0.0553027
0.0643331
0.0575566
0.0693966
0.032244
0.0217463
0.00446275
0.00614159
0.0068199
0.0072433
0.00728004
0.00707089
0.00543783
0.00400766
0.0043868
0.00708821
0.0180845
0.0408084
0.0498043
0.0474549
0.0188797
0.0112556
0.0112992
0.016971
0.0639157
0.00427628
0.00600957
0.00693488
0.00722804
0.0066561
0.00459525
0.00239496
0.00154135
0.00118057
0.00175655
0.00532211
0.0211628
0.034447
0.0218459
0.00742695
0.00207286
0.00234293
0.00274264
0.0148521
0.0039919
0.00533745
0.00648566
0.00678136
0.00560112
0.00284927
0.00141944
0.000926426
0.000766122
0.00102603
0.0021623
0.00612375
0.0138793
0.00739122
0.00242523
0.000968556
0.000870509
0.000373293
0.00351945
0.00360078
0.00467127
0.00539942
0.00576759
0.00455796
0.00184961
0.00106387
0.000784723
0.000540396
0.000481883
0.000667496
0.00166283
0.00396128
0.00241235
0.00129328
0.000487229
0.000339652
0.000203512
0.00107828
0.00315906
0.00399392
0.00431277
0.00427113
0.00312507
0.0012924
0.000975454
0.000829085
0.000509099
0.00045169
0.000510221
0.000718587
0.00104634
0.000894652
0.000491072
0.00025731
0.000195094
0.000128019
0.000342937
0.00291558
0.00325195
0.00349486
0.00329693
0.00209589
0.00116896
0.0011359
0.00101417
0.000539398
0.000432113
0.00039235
0.00041984
0.000522158
0.0004755
0.00031843
0.000193896
0.000139181
9.87148e-05
0.000158804
0.00259459
0.00260669
0.00241647
0.00220127
0.00146867
0.00121003
0.00132276
0.00111419
0.000574303
0.000426412
0.000370802
0.000366477
0.000386873
0.000359696
0.000249304
0.000178335
0.000126529
9.06698e-05
0.000111366
1.6326
4.38371
1.24318
0.357462
0.157012
0.0920574
0.0752311
0.0546649
0.0421565
0.0372721
0.0380344
0.0394982
0.0417815
0.043951
0.0460947
0.0521038
0.0646472
0.0990033
0.227803
0.156511
1.59086
4.11484
0.902268
0.223252
0.0983341
0.0528214
0.0365688
0.0350703
0.0388639
0.0418277
0.046412
0.0509909
0.0544794
0.0572727
0.0605877
0.0664853
0.0802341
0.113682
0.241972
0.122863
1.63531
4.60829
0.886807
0.180187
0.0597665
0.029508
0.0228725
0.0262066
0.03644
0.050162
0.0632157
0.0729544
0.0779912
0.0806114
0.0834616
0.0892432
0.103378
0.137342
0.263136
0.109061
1.52902
4.6461
0.759373
0.116078
0.032291
0.0162766
0.0150636
0.0208577
0.0384639
0.05829
0.0774922
0.0909109
0.0964246
0.0988788
0.101606
0.10752
0.121296
0.155536
0.276452
0.0816557
1.31769
3.8707
0.541449
0.0693384
0.0144382
0.00734647
0.00975476
0.0175505
0.0332294
0.0610319
0.086768
0.106754
0.118116
0.122454
0.125432
0.131551
0.143521
0.174373
0.266187
0.0652563
1.03779
2.63597
0.319625
0.0377823
0.00843513
0.00516313
0.00697879
0.0148458
0.0301613
0.0544777
0.0855585
0.110554
0.127067
0.137112
0.140808
0.151521
0.163705
0.198397
0.273835
0.0469204
0.790636
1.54147
0.158868
0.0192168
0.00377293
0.00269126
0.00516288
0.0120058
0.025804
0.0484955
0.0776899
0.107982
0.12805
0.143857
0.152089
0.170684
0.186602
0.222898
0.277061
0.036918
0.667126
0.93423
0.102915
0.0126899
0.00259828
0.00200616
0.003737
0.00934992
0.020989
0.0402896
0.0677411
0.0968367
0.118941
0.144833
0.159873
0.188465
0.214052
0.246021
0.29813
0.0276826
0.671309
0.557081
0.0452646
0.00714074
0.00154598
0.00122931
0.00271407
0.00721541
0.0176058
0.0332764
0.0624519
0.0938577
0.119287
0.145789
0.168644
0.20746
0.249077
0.27759
0.342493
0.0283742
0.737753
0.366577
0.0392111
0.00470541
0.00098389
0.000850156
0.00210611
0.00562561
0.014054
0.0298641
0.0551187
0.0823898
0.11566
0.147673
0.176508
0.224514
0.284799
0.328325
0.379387
0.0434604
0.818095
0.239067
0.0230462
0.00225041
0.000469013
0.000592238
0.00177935
0.0053662
0.0133405
0.0288403
0.0567476
0.0869048
0.118004
0.153388
0.183065
0.235725
0.315241
0.393623
0.383444
0.0889537
0.863754
0.147144
0.00825754
0.000500956
0.000155045
0.000531386
0.00199711
0.00514896
0.0147424
0.0350326
0.0699646
0.106877
0.141682
0.177125
0.218664
0.28209
0.362711
0.490178
0.433483
0.138137
0.829234
0.0635602
0.00137279
5.83802e-05
0.000117206
0.000519098
0.00219197
0.00733086
0.0232329
0.0562045
0.101099
0.138501
0.178651
0.221548
0.27134
0.350025
0.422704
0.489473
0.328904
0.103486
0.713511
0.0134029
7.26644e-05
9.22639e-06
6.4727e-05
0.000396962
0.0020717
0.00770851
0.0254687
0.0596621
0.101525
0.134446
0.169638
0.206205
0.221518
0.201313
0.204087
0.20236
0.119881
0.0783694
0.563127
0.0141
7.76056e-05
5.98204e-06
1.05907e-05
4.05306e-05
0.000177066
0.000802191
0.0030879
0.00831124
0.0158813
0.0248632
0.0367063
0.046332
0.0547094
0.0657063
0.0904663
0.110165
0.101485
0.0123868
0.462784
0.0151746
0.000102255
4.07337e-06
1.44507e-06
4.93294e-06
1.57875e-05
3.25115e-05
9.49168e-05
0.000254986
0.000533553
0.000935202
0.00177419
0.00218722
0.00208663
0.00233857
0.0115436
0.00975921
0.00355477
0.00963851
0.362184
0.017427
0.000131236
7.09525e-06
1.2772e-06
2.83281e-06
5.58873e-06
6.95492e-06
7.52928e-06
7.77961e-06
7.89483e-06
8.37243e-06
9.12337e-06
1.08985e-05
1.66962e-05
2.3181e-05
6.9445e-05
0.000177562
0.00132239
0.00102061
0.264362
0.0169466
2.99434e-05
1.04825e-05
7.81154e-06
5.9057e-06
9.5907e-06
9.51292e-06
9.13788e-06
9.1709e-06
8.99934e-06
8.95199e-06
8.98947e-06
9.42807e-06
1.09509e-05
1.5304e-05
6.20243e-05
0.000144317
0.0156363
0.00182139
0.196843
0.036538
0.00166379
0.00156884
0.00152352
0.00146591
0.00141515
0.00136148
0.00131298
0.00126336
0.00121487
0.00116293
0.00110867
0.00105362
0.000979983
0.000893097
0.00286592
0.0115758
0.0148245
0.0160869
0.162114
0.831605
0.815843
0.818059
0.817336
0.818255
0.817803
0.816743
0.816947
0.816898
0.817535
0.817139
0.816278
0.817267
0.817339
0.817374
0.815632
0.759441
0.786826
0.168939
0.162113
0.831509
0.815827
0.818102
0.817333
0.817665
0.81781
0.81768
0.817057
0.817823
0.817209
0.816373
0.817067
0.817209
0.817208
0.81737
0.815682
0.759434
0.786704
0.168919
0.196831
0.03654
0.00166377
0.001569
0.00152352
0.00146426
0.00141521
0.00136399
0.0013133
0.00126566
0.00121412
0.00116123
0.00111043
0.00105354
0.000979702
0.000895235
0.00307784
0.0121291
0.0161762
0.0173618
0.264377
0.0169498
2.73813e-05
1.04741e-05
1.18548e-05
1.26059e-05
9.38706e-06
9.25043e-06
8.77127e-06
8.8759e-06
8.65093e-06
8.55101e-06
8.39257e-06
8.63872e-06
9.75899e-06
1.4455e-05
8.28418e-05
0.00559267
0.0265878
0.0027419
0.362195
0.0163237
0.000119587
6.59575e-06
2.53926e-06
5.13426e-06
5.74755e-06
6.70503e-06
7.02474e-06
7.24261e-06
7.27377e-06
7.5461e-06
8.10372e-06
9.25824e-06
1.33402e-05
1.62478e-05
0.000107904
0.000507357
0.00161791
0.000913352
0.463002
0.0138872
9.08086e-05
3.46086e-06
1.73922e-06
5.42182e-06
1.18508e-05
2.50739e-05
7.46931e-05
0.000197205
0.000412029
0.00076348
0.00149882
0.00182334
0.00171977
0.00189413
0.0101074
0.00726375
0.00320645
0.00967531
0.562909
0.0132791
7.65092e-05
6.3405e-06
1.03557e-05
3.76509e-05
0.00017308
0.000693325
0.0026115
0.00687155
0.0133084
0.0211819
0.0303166
0.038396
0.0450199
0.0549902
0.0793819
0.0945288
0.080438
0.0112851
0.713335
0.0131721
6.63247e-05
1.30425e-05
5.20596e-05
0.000305033
0.00163863
0.00678622
0.0223969
0.0521216
0.0888553
0.114721
0.150418
0.180279
0.192362
0.172103
0.174081
0.172023
0.0983418
0.0602098
0.829467
0.0619912
0.0014997
0.000111335
0.000107705
0.00042716
0.0019328
0.00658148
0.0208104
0.0501373
0.0904514
0.127249
0.165537
0.206704
0.257091
0.336922
0.402566
0.448335
0.275117
0.0791488
0.864499
0.146347
0.00757823
0.000683887
0.000165636
0.00047001
0.00153778
0.00549949
0.0134633
0.0321938
0.0653571
0.100121
0.133651
0.168073
0.209103
0.273097
0.34741
0.451566
0.384689
0.104638
0.819044
0.238315
0.0244529
0.00238555
0.000506669
0.000534184
0.00172994
0.00464209
0.0120082
0.0269588
0.0512795
0.0808014
0.11189
0.141628
0.176454
0.228872
0.298696
0.350358
0.348705
0.0710945
0.738582
0.367647
0.0323896
0.00439551
0.000936647
0.000789534
0.00184133
0.0056431
0.0125517
0.0270907
0.0508595
0.0785254
0.106409
0.134678
0.169493
0.21528
0.260669
0.261256
0.365439
0.0310853
0.672015
0.55414
0.0619215
0.0079171
0.0015986
0.00114753
0.00245745
0.00648333
0.0155128
0.0326001
0.0574141
0.0849202
0.115761
0.140571
0.164639
0.195782
0.217839
0.192438
0.320705
0.017665
0.668387
0.936369
0.0805141
0.0111023
0.00240155
0.00189547
0.00348318
0.00861575
0.0200109
0.0391964
0.0657563
0.0927797
0.118236
0.143024
0.157734
0.176531
0.181744
0.154239
0.251343
0.0163516
0.79249
1.54821
0.178066
0.0219372
0.00364563
0.00253342
0.00488795
0.0115395
0.0252727
0.0462376
0.0736552
0.0988502
0.120938
0.143719
0.152605
0.163509
0.163037
0.156978
0.212529
0.0233943
1.04063
2.64445
0.315583
0.0346197
0.00757619
0.00499471
0.00685536
0.0141126
0.0289971
0.0530695
0.0809928
0.108158
0.126886
0.14077
0.143808
0.150101
0.150638
0.16059
0.208705
0.0309612
1.32007
3.88118
0.537396
0.0714854
0.0144527
0.00720749
0.00943226
0.017211
0.0342779
0.061622
0.0874507
0.10865
0.122994
0.130854
0.131619
0.134494
0.140571
0.155443
0.216273
0.047633
1.53194
4.63849
0.756258
0.110192
0.0302323
0.0159192
0.015551
0.0215848
0.036991
0.058329
0.0798429
0.0964894
0.105566
0.109017
0.109421
0.112303
0.121159
0.146622
0.240946
0.0630906
1.63858
4.59653
0.872708
0.191871
0.0593993
0.029073
0.0231823
0.0267094
0.0370022
0.0511677
0.0655381
0.0773891
0.085121
0.0896052
0.092099
0.0960827
0.105449
0.131259
0.230959
0.0897085
1.59465
4.10635
0.913892
0.225066
0.0964571
0.0520157
0.0395533
0.0381347
0.0414821
0.0439232
0.04825
0.0536076
0.0585117
0.0627006
0.0665089
0.0714908
0.0813482
0.107616
0.21338
0.10419
1.63724
4.38731
1.24375
0.354775
0.156557
0.0931958
0.0766016
0.0569815
0.0452872
0.0394569
0.0406159
0.0425513
0.0452771
0.0481832
0.0513042
0.057015
0.0690408
0.0972248
0.2089
0.140167
)
;

boundaryField
{
    outletWall
    {
        type            zeroGradient;
    }
    fineWalls
    {
        Cmu             0.09;
        kappa           0.41;
        E               9.8;
        type            epsilonWallFunction;
        value           nonuniform List<scalar> 
60
(
0.00325015
0.00314723
0.00181652
0.00193306
0.00172859
0.000982945
0.00121249
0.00107276
0.000590415
0.00086486
0.000769624
0.000370736
0.000597029
0.000555171
0.00051776
0.000264262
0.000439941
0.000418347
0.000216613
0.000372789
0.00253328
0.00427821
0.00408307
0.00390275
0.00201068
0.00283818
0.00275254
0.00287464
0.00205897
0.00313136
0.00311275
0.00206655
0.00304296
0.00293064
0.00301581
0.00202314
0.00386233
0.00402853
0.00420874
0.00248406
0.00030001
0.000174273
0.000341114
0.000359016
0.000214945
0.000431578
0.000463973
0.000498785
0.000308663
0.000653788
0.000737018
0.000499857
0.000914837
0.00103455
0.000837977
0.00147722
0.00165675
0.00158632
0.00275022
0.00284312
)
;
    }
    fineFrontAndBack
    {
        type            zeroGradient;
    }
    fineplugLeft
    {
        type            cyclicAMI;
        value           nonuniform List<scalar> 
20
(
0.133546
0.189656
0.0864324
0.0588006
0.0489344
0.0448492
0.043919
0.0431063
0.0424705
0.0427569
0.0439559
0.0499792
0.0630228
0.0801753
0.13028
0.196659
0.374888
1.10805
3.62376
1.30169
)
;
    }
    fineplugRight
    {
        type            cyclicAMI;
        value           nonuniform List<scalar> 
20
(
0.120707
0.174597
0.0850461
0.0626716
0.0530443
0.0493257
0.0474994
0.0460773
0.0450366
0.0449249
0.0457594
0.0524557
0.064757
0.0810978
0.130661
0.195458
0.371868
1.10711
3.62475
1.30634
)
;
    }
    inletOutletLeft
    {
        type            cyclicAMI;
        value           nonuniform List<scalar> 
20
(
0.133546
0.189656
0.0864324
0.0588006
0.0489344
0.0448492
0.043919
0.0431063
0.0424705
0.0427569
0.0439559
0.0499792
0.0630228
0.0801753
0.13028
0.196659
0.374888
1.10805
3.62376
1.30169
)
;
    }
    inletLeft
    {
        type            fixedValue;
        value           uniform 2180.89;
    }
    inletWallsLeft
    {
        Cmu             0.09;
        kappa           0.41;
        E               9.8;
        type            epsilonWallFunction;
        value           nonuniform List<scalar> 
40
(
0.162114
0.196843
0.264362
0.362184
0.462784
0.563127
0.713511
0.829234
0.863754
0.818095
0.737753
0.671309
0.667126
0.790636
1.03779
1.31769
1.52902
1.63531
1.59086
1.6326
0.156511
0.122863
0.109061
0.0816557
0.0652563
0.0469204
0.036918
0.0276826
0.0283742
0.0434604
0.0889537
0.138137
0.103486
0.0783694
0.0123868
0.00963851
0.00102061
0.00182139
0.0160869
0.168939
)
;
    }
    inletFacesLeft
    {
        type            zeroGradient;
    }
    inletOutletRight
    {
        type            cyclicAMI;
        value           nonuniform List<scalar> 
20
(
0.120707
0.174597
0.0850461
0.0626716
0.0530443
0.0493257
0.0474994
0.0460773
0.0450366
0.0449249
0.0457594
0.0524557
0.064757
0.0810978
0.130661
0.195458
0.371868
1.10711
3.62475
1.30634
)
;
    }
    inletRight
    {
        type            fixedValue;
        value           uniform 2180.89;
    }
    inletWallsRight
    {
        Cmu             0.09;
        kappa           0.41;
        E               9.8;
        type            epsilonWallFunction;
        value           nonuniform List<scalar> 
40
(
1.63724
1.59465
1.63858
1.53194
1.32007
1.04063
0.79249
0.668387
0.672015
0.738582
0.819044
0.864499
0.829467
0.713335
0.562909
0.463002
0.362195
0.264377
0.196831
0.162113
0.168919
0.0173618
0.0027419
0.000913352
0.00967531
0.0112851
0.0602098
0.0791488
0.104638
0.0710945
0.0310853
0.017665
0.0163516
0.0233943
0.0309612
0.047633
0.0630906
0.0897085
0.10419
0.140167
)
;
    }
    inletFacesRight
    {
        type            zeroGradient;
    }
}


// ************************************************************************* //
