/*--------------------------------*- C++ -*----------------------------------*\
| =========                 |                                                 |
| \\      /  F ield         | OpenFOAM: The Open Source CFD Toolbox           |
|  \\    /   O peration     | Version:  4.1                                   |
|   \\  /    A nd           | Web:      www.OpenFOAM.org                      |
|    \\/     M anipulation  |                                                 |
\*---------------------------------------------------------------------------*/
FoamFile
{
    version     2.0;
    format      ascii;
    class       volScalarField;
    location    "5";
    object      k;
}
// * * * * * * * * * * * * * * * * * * * * * * * * * * * * * * * * * * * * * //

dimensions      [0 2 -2 0 0 0 0];

internalField   nonuniform List<scalar> 
1280
(
0.136145
0.138697
0.146088
0.151109
0.157573
0.167855
0.17581
0.185684
0.199309
0.220399
0.238618
0.273138
0.274933
0.297838
0.379958
0.375774
0.401533
0.554442
0.54689
0.558091
0.771315
1.60698
1.63614
1.50298
1.37797
1.30726
0.803099
0.810789
0.823261
0.831461
0.8329
0.828899
0.820786
0.809662
0.797916
0.786304
0.778086
0.769474
0.771524
0.751896
0.740202
0.714711
0.693131
0.672698
0.63859
0.556411
0.540401
0.550405
0.625084
0.55815
0.560077
0.634677
0.547357
0.532513
0.547731
0.645101
0.681306
0.702392
0.725113
0.75226
0.765091
0.786507
0.78643
0.79443
0.800179
0.807668
0.814654
0.820536
0.823325
0.822119
0.815808
0.803029
0.786164
0.774556
1.26972
1.33766
1.45961
1.59039
1.55978
0.723524
0.514238
0.503724
0.510848
0.364498
0.341273
0.343359
0.267578
0.245907
0.24142
0.212823
0.196209
0.174784
0.164233
0.156212
0.148777
0.137234
0.131967
0.127453
0.119526
0.117406
0.64735
0.653165
0.661683
0.675151
0.666708
0.638052
0.600553
0.487371
0.390133
0.32013
0.267269
0.232934
0.218104
0.207175
0.181223
0.131321
0.104194
0.0874712
0.121626
0.647097
0.661743
0.691595
0.715883
0.699277
0.639166
0.578862
0.468815
0.381272
0.326116
0.289274
0.273034
0.284205
0.285716
0.25263
0.168229
0.131621
0.111632
0.138925
0.666852
0.713729
0.773374
0.80534
0.767983
0.662908
0.560606
0.458122
0.376843
0.338926
0.327444
0.339934
0.418673
0.408677
0.367612
0.248032
0.191603
0.156471
0.179288
0.71264
0.791162
0.87534
0.911601
0.86309
0.735159
0.604423
0.479896
0.395
0.373281
0.402705
0.487628
0.837167
0.646993
0.525438
0.374202
0.296114
0.240508
0.282424
0.78221
0.881541
0.967089
0.993606
0.939047
0.816144
0.677344
0.54699
0.459967
0.451915
0.537355
0.741977
1.70271
1.11875
0.762011
0.553222
0.452641
0.381529
0.42377
0.853243
0.956023
1.024
1.03699
0.992791
0.903926
0.785676
0.666573
0.60009
0.641448
0.865632
1.4421
2.40431
2.12747
1.19807
0.847968
0.724886
0.710243
0.688419
0.909025
0.997451
1.03678
1.04653
1.0309
0.996447
0.933871
0.856501
0.838666
0.98713
1.45029
2.42075
2.82905
2.73019
2.34876
1.56459
1.44254
1.59756
1.58352
0.926634
0.993458
1.01154
1.03201
1.0583
1.08502
1.10453
1.12483
1.17101
1.38216
1.91107
2.46795
2.34984
2.45527
3.01417
3.02525
2.86796
1.6011
0.996083
0.887356
0.929946
0.939746
0.974399
1.02301
1.07472
1.13246
1.20159
1.24931
1.31036
1.36031
1.30565
1.30756
1.42826
1.62146
1.73474
1.39601
0.947862
0.830447
0.814717
0.838605
0.841118
0.866376
0.893278
0.911327
0.93306
0.975159
1.01249
0.987019
0.8945
0.819449
0.886146
0.944529
1.03945
1.16834
1.24723
1.32402
1.38476
0.847948
0.866485
0.859307
0.876256
0.898123
0.910859
0.925449
0.960134
1.00273
0.99394
0.923455
0.885291
0.954666
1.01072
1.10516
1.23301
1.28235
1.35117
1.40956
0.990313
1.03743
1.03446
1.05561
1.10161
1.16242
1.23458
1.32963
1.40841
1.45908
1.50872
1.51261
1.54677
1.70029
1.92977
1.97712
1.49391
0.967688
0.845811
1.06858
1.15931
1.18113
1.19176
1.21612
1.2627
1.32315
1.39388
1.4429
1.62652
2.14912
2.84108
2.83517
2.98538
3.54651
3.34973
3.20055
1.65926
1.03063
1.06664
1.19304
1.25992
1.27231
1.25377
1.22887
1.19322
1.13354
1.08772
1.18739
1.5839
2.55585
3.21552
3.11098
2.36971
1.6978
1.60359
1.70578
1.69877
1.01019
1.15474
1.26738
1.3021
1.25708
1.16618
1.04345
0.906477
0.808085
0.811483
0.982927
1.42081
2.47167
1.87988
1.20134
0.901417
0.804233
0.777874
0.750473
0.931928
1.06764
1.20021
1.26232
1.21526
1.07934
0.902873
0.738938
0.624393
0.59553
0.668054
0.857102
1.53253
0.99637
0.745224
0.573003
0.487647
0.450981
0.477434
0.851419
0.956179
1.08111
1.15648
1.12157
0.972778
0.784863
0.625734
0.523069
0.494756
0.520312
0.589421
0.785925
0.641892
0.520263
0.383363
0.327388
0.305763
0.327393
0.798008
0.86004
0.948682
1.01203
0.985753
0.855957
0.694339
0.568688
0.482914
0.447183
0.436741
0.44306
0.49124
0.446694
0.377644
0.265003
0.226946
0.204147
0.214875
0.772497
0.793066
0.836093
0.877478
0.864734
0.781168
0.674422
0.563622
0.476936
0.426101
0.390365
0.368544
0.367198
0.337846
0.278547
0.193715
0.166099
0.148969
0.168574
0.770697
0.780367
0.792
0.810928
0.800274
0.746224
0.679978
0.57832
0.481399
0.414335
0.361098
0.321419
0.297409
0.267339
0.217477
0.159576
0.135504
0.119397
0.148465
3.27486
9.9748
3.81313
1.87854
1.4684
1.58694
1.66776
1.65868
1.59763
1.5152
1.42544
1.33472
1.24662
1.16875
1.11101
1.08187
1.09338
1.13792
1.32458
0.732995
3.21165
9.48514
3.11441
1.32292
1.08314
1.28196
1.43016
1.50259
1.51704
1.49321
1.43592
1.3561
1.26974
1.19401
1.13991
1.11781
1.13198
1.18777
1.39154
0.62659
3.26055
10.115
2.94688
1.13457
0.888433
1.04413
1.20663
1.33645
1.42818
1.47379
1.46131
1.40241
1.3246
1.25384
1.20185
1.17557
1.16855
1.19463
1.36544
0.585593
3.09752
10.113
2.50299
0.870575
0.656652
0.778782
0.94856
1.12311
1.28002
1.39243
1.42898
1.39962
1.34068
1.28442
1.24062
1.20961
1.17213
1.16708
1.30794
0.484024
2.7927
9.29771
1.9419
0.607779
0.448924
0.567238
0.744234
0.944743
1.14233
1.29504
1.37375
1.37785
1.34515
1.31049
1.27938
1.23999
1.1598
1.11815
1.18563
0.41725
2.36738
7.56002
1.32442
0.385068
0.291107
0.411402
0.586518
0.786947
0.998741
1.17321
1.28134
1.31913
1.32314
1.31969
1.31282
1.27179
1.14997
1.08724
1.08849
0.338312
1.97206
5.2937
0.781237
0.228676
0.193016
0.299793
0.457068
0.645092
0.853799
1.03544
1.16331
1.22738
1.26991
1.30331
1.32966
1.30143
1.15723
1.07622
1.03488
0.287423
1.76501
3.26514
0.419173
0.138759
0.131844
0.216928
0.349586
0.513052
0.706586
0.884001
1.01933
1.10801
1.18734
1.25882
1.33106
1.3445
1.22784
1.13311
1.07683
0.238175
1.77536
1.93688
0.268483
0.0932267
0.0942954
0.155586
0.260681
0.39679
0.568495
0.737605
0.873679
0.98195
1.08589
1.19979
1.32573
1.40749
1.37397
1.2878
1.25819
0.246857
1.89405
1.1702
0.186372
0.0643483
0.0687894
0.113577
0.196342
0.308263
0.456796
0.614243
0.754745
0.880567
0.999413
1.13864
1.31118
1.46945
1.54548
1.50965
1.48209
0.329575
2.03277
0.754702
0.130648
0.0428301
0.0511045
0.0869268
0.15546
0.251203
0.385777
0.535208
0.676419
0.808803
0.939342
1.08769
1.27971
1.4952
1.67064
1.7211
1.62563
0.526914
2.10649
0.476392
0.0700698
0.0240638
0.0388435
0.0709261
0.133435
0.222759
0.355625
0.505451
0.651564
0.783611
0.911791
1.05493
1.2347
1.45704
1.70341
1.88631
1.6348
0.562625
2.04348
0.240904
0.0181792
0.0124239
0.0315731
0.0621934
0.122383
0.211992
0.355511
0.51533
0.67233
0.803721
0.926585
1.06736
1.25208
1.46301
1.68409
1.81596
1.23882
0.384839
1.84181
0.0650819
0.00225759
0.00937129
0.0258795
0.0544272
0.110352
0.201355
0.3482
0.512897
0.658346
0.757146
0.864696
0.998792
1.1089
1.08538
0.97007
0.921547
0.62972
0.399414
1.57262
0.036646
0.000967005
0.0046294
0.0143285
0.0325359
0.0671345
0.1246
0.212622
0.305347
0.37282
0.40833
0.430784
0.437159
0.425738
0.421924
0.461056
0.543748
0.50133
0.139606
1.38815
0.0322961
0.00018208
8.60988e-05
0.000585105
0.00186112
0.00534566
0.0105007
0.0189764
0.0286848
0.0387724
0.0493388
0.0637611
0.0775488
0.0786755
0.0899841
0.176778
0.213541
0.146301
0.112148
1.17359
0.0276318
0.000270773
1.2588e-06
1.5495e-07
1.70449e-06
1.24e-05
3.18286e-05
5.32215e-05
6.34077e-05
7.49416e-05
9.48025e-05
0.000122243
0.000178559
0.000306881
0.000625087
0.0014587
0.00596812
0.0192277
0.0190481
0.950817
0.00740705
4.87127e-08
1.88319e-08
1.72895e-08
1.72702e-08
2.12128e-08
2.36558e-08
2.67923e-08
3.11369e-08
3.57409e-08
4.04005e-08
4.76902e-08
6.40447e-08
1.16612e-07
3.58064e-07
2.75814e-06
0.00253101
0.0309809
0.0312203
0.780841
0.00124322
2.02972e-06
1.90021e-06
1.84883e-06
1.7749e-06
1.71514e-06
1.65393e-06
1.59468e-06
1.53507e-06
1.47452e-06
1.41255e-06
1.34845e-06
1.27913e-06
1.19555e-06
1.10728e-06
1.09224e-05
0.00177072
0.0309091
0.152154
0.686688
0.000683498
0.000648884
0.000648397
0.000648564
0.000648431
0.000648495
0.000648629
0.000648608
0.000648617
0.000648538
0.00064859
0.000648703
0.000648581
0.000648582
0.000648591
0.000648758
0.000659658
0.00218047
0.838744
0.686687
0.000683509
0.000648886
0.000648392
0.000648562
0.000648504
0.000648494
0.000648511
0.000648594
0.000648499
0.000648578
0.000648687
0.000648605
0.000648595
0.000648603
0.000648592
0.000648752
0.000659658
0.00217979
0.838781
0.780811
0.00124295
2.02976e-06
1.90025e-06
1.84889e-06
1.77518e-06
1.71521e-06
1.65368e-06
1.59472e-06
1.53484e-06
1.47468e-06
1.41282e-06
1.3483e-06
1.27923e-06
1.19559e-06
1.10982e-06
1.21237e-05
0.0020216
0.0337443
0.151278
0.950845
0.00740856
4.6895e-08
1.88485e-08
1.86909e-08
1.96425e-08
2.09506e-08
2.2948e-08
2.54545e-08
2.8884e-08
3.26908e-08
3.57696e-08
4.05658e-08
5.2362e-08
8.98397e-08
2.47336e-07
7.66853e-06
0.0199718
0.0569531
0.0174912
1.17361
0.0281767
0.000288688
1.36347e-06
1.42726e-07
1.46609e-06
9.32089e-06
2.3339e-05
3.93078e-05
4.79618e-05
5.78759e-05
7.14927e-05
9.14046e-05
0.000134459
0.000232813
0.000478044
0.00109047
0.00827209
0.0237117
0.021971
1.38865
0.0332465
0.00019861
7.30233e-05
0.000503335
0.00155414
0.00442451
0.00880724
0.0161177
0.0244534
0.0330023
0.0419305
0.0543207
0.0660733
0.0662066
0.0761771
0.151149
0.182542
0.127142
0.105739
1.57232
0.0375092
0.000895559
0.00411447
0.0126457
0.0285136
0.0594361
0.110371
0.186509
0.264586
0.318195
0.344092
0.361427
0.367402
0.361393
0.364136
0.404453
0.480875
0.442599
0.132779
1.84157
0.0644606
0.00205028
0.0085106
0.0236128
0.0491263
0.0998291
0.182591
0.316775
0.467386
0.596873
0.683128
0.779845
0.905186
0.992719
0.943764
0.823582
0.780366
0.527555
0.34096
2.04388
0.239974
0.0176133
0.011102
0.0290221
0.0565991
0.11129
0.193654
0.327886
0.481389
0.632102
0.752729
0.868301
1.00964
1.18992
1.39472
1.59059
1.64212
1.00947
0.396645
2.10778
0.475611
0.0698951
0.0222131
0.0356356
0.0650099
0.121639
0.203544
0.330352
0.475858
0.61959
0.747955
0.872754
1.01761
1.20008
1.4173
1.61886
1.71323
1.36202
0.4599
2.03448
0.754747
0.12994
0.0406261
0.0469686
0.0795013
0.142295
0.231976
0.361027
0.50787
0.653441
0.785815
0.916429
1.06882
1.26034
1.45949
1.56226
1.46325
1.31634
0.40979
1.89565
1.1709
0.189666
0.0623888
0.0634555
0.104209
0.180886
0.287093
0.433168
0.589956
0.739313
0.870591
0.999105
1.14452
1.30822
1.42909
1.39729
1.10451
1.16415
0.224514
1.77681
1.94167
0.26234
0.0894874
0.0868732
0.143809
0.2438
0.375637
0.545254
0.717335
0.872184
0.995992
1.10504
1.21977
1.33121
1.36011
1.19719
0.775777
0.934523
0.156716
1.76711
3.27372
0.430967
0.135879
0.122405
0.202561
0.331756
0.492447
0.686536
0.87417
1.03363
1.14869
1.23398
1.30189
1.35244
1.30919
1.06399
0.649705
0.736591
0.158326
1.97505
5.31011
0.778709
0.220761
0.181258
0.283791
0.439302
0.627232
0.841559
1.04065
1.19973
1.30402
1.36025
1.38026
1.37836
1.2991
1.04812
0.739132
0.706596
0.213075
2.37137
7.5762
1.32772
0.378815
0.279255
0.39492
0.571833
0.7762
0.99655
1.19303
1.33853
1.41719
1.44138
1.42835
1.39554
1.31256
1.11596
0.891596
0.798355
0.261793
2.79536
9.30209
1.94039
0.597109
0.434948
0.552061
0.732837
0.93877
1.14769
1.32499
1.43992
1.48375
1.47423
1.43614
1.38581
1.31203
1.17169
1.0215
0.968056
0.346735
3.1005
10.108
2.49048
0.861675
0.644591
0.763907
0.939705
1.12595
1.29785
1.43148
1.49901
1.50273
1.46564
1.41373
1.3591
1.30025
1.21129
1.1203
1.12097
0.416437
3.26405
10.1024
2.93833
1.11374
0.874503
1.02948
1.19869
1.3429
1.45202
1.51882
1.53258
1.50118
1.44408
1.38238
1.32627
1.27879
1.22797
1.18368
1.23499
0.526984
3.21588
9.47731
3.10277
1.30948
1.0727
1.26851
1.4233
1.51062
1.54253
1.53875
1.50437
1.44844
1.38204
1.31848
1.26627
1.23105
1.21084
1.20909
1.30846
0.577499
3.28062
9.98344
3.81914
1.87636
1.46288
1.57867
1.66534
1.66873
1.62194
1.55548
1.48413
1.41389
1.34546
1.28303
1.23282
1.19946
1.18764
1.18858
1.29186
0.698399
)
;

boundaryField
{
    outletWall
    {
        type            calculated;
        value           nonuniform List<scalar> 
60
(
0.117406
0.121626
0.0874712
0.104194
0.131321
0.181223
0.207175
0.218104
0.232934
0.267269
0.32013
0.390133
0.487371
0.600553
0.638052
0.666708
0.675151
0.661683
0.653165
0.64735
0.770697
0.772497
0.798008
0.851419
0.931928
1.01019
1.06664
1.06858
0.990313
0.847948
0.814717
0.887356
0.926634
0.909025
0.853243
0.78221
0.71264
0.666852
0.647097
0.64735
0.136145
0.148465
0.119397
0.135504
0.159576
0.217477
0.267339
0.297409
0.321419
0.361098
0.414335
0.481399
0.57832
0.679978
0.746224
0.800274
0.810928
0.792
0.780367
0.770697
)
;
    }
    fineWalls
    {
        type            calculated;
        value           nonuniform List<scalar> 
60
(
0.558091
0.54689
0.554442
0.401533
0.375774
0.379958
0.297838
0.274933
0.273138
0.238618
0.220399
0.199309
0.185684
0.17581
0.167855
0.157573
0.151109
0.146088
0.138697
0.136145
0.75226
0.725113
0.702392
0.681306
0.645101
0.547731
0.532513
0.547357
0.634677
0.560077
0.55815
0.625084
0.550405
0.540401
0.556411
0.63859
0.672698
0.693131
0.714711
0.740202
0.117406
0.119526
0.127453
0.131967
0.137234
0.148777
0.156212
0.164233
0.174784
0.196209
0.212823
0.24142
0.245907
0.267578
0.343359
0.341273
0.364498
0.510848
0.503724
0.514238
)
;
    }
    fineFrontAndBack
    {
        type            calculated;
        value           nonuniform List<scalar> 
960
(
0.136145
0.138697
0.146088
0.151109
0.157573
0.167855
0.17581
0.185684
0.199309
0.220399
0.238618
0.273138
0.274933
0.297838
0.379958
0.375774
0.401533
0.554442
0.54689
0.558091
0.771315
1.60698
1.63614
1.50298
1.37797
1.30726
0.803099
0.810789
0.823261
0.831461
0.8329
0.828899
0.820786
0.809662
0.797916
0.786304
0.778086
0.769474
0.771524
0.751896
0.740202
0.714711
0.693131
0.672698
0.63859
0.556411
0.540401
0.550405
0.625084
0.55815
0.560077
0.634677
0.547357
0.532513
0.547731
0.645101
0.681306
0.702392
0.725113
0.75226
0.765091
0.786507
0.78643
0.79443
0.800179
0.807668
0.814654
0.820536
0.823325
0.822119
0.815808
0.803029
0.786164
0.774556
1.26972
1.33766
1.45961
1.59039
1.55978
0.723524
0.514238
0.503724
0.510848
0.364498
0.341273
0.343359
0.267578
0.245907
0.24142
0.212823
0.196209
0.174784
0.164233
0.156212
0.148777
0.137234
0.131967
0.127453
0.119526
0.117406
0.64735
0.653165
0.661683
0.675151
0.666708
0.638052
0.600553
0.487371
0.390133
0.32013
0.267269
0.232934
0.218104
0.207175
0.181223
0.131321
0.104194
0.0874712
0.121626
0.647097
0.661743
0.691595
0.715883
0.699277
0.639166
0.578862
0.468815
0.381272
0.326116
0.289274
0.273034
0.284205
0.285716
0.25263
0.168229
0.131621
0.111632
0.138925
0.666852
0.713729
0.773374
0.80534
0.767983
0.662908
0.560606
0.458122
0.376843
0.338926
0.327444
0.339934
0.418673
0.408677
0.367612
0.248032
0.191603
0.156471
0.179288
0.71264
0.791162
0.87534
0.911601
0.86309
0.735159
0.604423
0.479896
0.395
0.373281
0.402705
0.487628
0.837167
0.646993
0.525438
0.374202
0.296114
0.240508
0.282424
0.78221
0.881541
0.967089
0.993606
0.939047
0.816144
0.677344
0.54699
0.459967
0.451915
0.537355
0.741977
1.70271
1.11875
0.762011
0.553222
0.452641
0.381529
0.42377
0.853243
0.956023
1.024
1.03699
0.992791
0.903926
0.785676
0.666573
0.60009
0.641448
0.865632
1.4421
2.40431
2.12747
1.19807
0.847968
0.724886
0.710243
0.688419
0.909025
0.997451
1.03678
1.04653
1.0309
0.996447
0.933871
0.856501
0.838666
0.98713
1.45029
2.42075
2.82905
2.73019
2.34876
1.56459
1.44254
1.59756
1.58352
0.926634
0.993458
1.01154
1.03201
1.0583
1.08502
1.10453
1.12483
1.17101
1.38216
1.91107
2.46795
2.34984
2.45527
3.01417
3.02525
2.86796
1.6011
0.996083
0.887356
0.929946
0.939746
0.974399
1.02301
1.07472
1.13246
1.20159
1.24931
1.31036
1.36031
1.30565
1.30756
1.42826
1.62146
1.73474
1.39601
0.947862
0.830447
0.814717
0.838605
0.841118
0.866376
0.893278
0.911327
0.93306
0.975159
1.01249
0.987019
0.8945
0.819449
0.886146
0.944529
1.03945
1.16834
1.24723
1.32402
1.38476
0.847948
0.866485
0.859307
0.876256
0.898123
0.910859
0.925449
0.960134
1.00273
0.99394
0.923455
0.885291
0.954666
1.01072
1.10516
1.23301
1.28235
1.35117
1.40956
0.990313
1.03743
1.03446
1.05561
1.10161
1.16242
1.23458
1.32963
1.40841
1.45908
1.50872
1.51261
1.54677
1.70029
1.92977
1.97712
1.49391
0.967688
0.845811
1.06858
1.15931
1.18113
1.19176
1.21612
1.2627
1.32315
1.39388
1.4429
1.62652
2.14912
2.84108
2.83517
2.98538
3.54651
3.34973
3.20055
1.65926
1.03063
1.06664
1.19304
1.25992
1.27231
1.25377
1.22887
1.19322
1.13354
1.08772
1.18739
1.5839
2.55585
3.21552
3.11098
2.36971
1.6978
1.60359
1.70578
1.69877
1.01019
1.15474
1.26738
1.3021
1.25708
1.16618
1.04345
0.906477
0.808085
0.811483
0.982927
1.42081
2.47167
1.87988
1.20134
0.901417
0.804233
0.777874
0.750473
0.931928
1.06764
1.20021
1.26232
1.21526
1.07934
0.902873
0.738938
0.624393
0.59553
0.668054
0.857102
1.53253
0.99637
0.745224
0.573003
0.487647
0.450981
0.477434
0.851419
0.956179
1.08111
1.15648
1.12157
0.972778
0.784863
0.625734
0.523069
0.494756
0.520312
0.589421
0.785925
0.641892
0.520263
0.383363
0.327388
0.305763
0.327393
0.798008
0.86004
0.948682
1.01203
0.985753
0.855957
0.694339
0.568688
0.482914
0.447183
0.436741
0.44306
0.49124
0.446694
0.377644
0.265003
0.226946
0.204147
0.214875
0.772497
0.793066
0.836093
0.877478
0.864734
0.781168
0.674422
0.563622
0.476936
0.426101
0.390365
0.368544
0.367198
0.337846
0.278547
0.193715
0.166099
0.148969
0.168574
0.770697
0.780367
0.792
0.810928
0.800274
0.746224
0.679978
0.57832
0.481399
0.414335
0.361098
0.321419
0.297409
0.267339
0.217477
0.159576
0.135504
0.119397
0.148465
0.136145
0.138697
0.146088
0.151109
0.157573
0.167855
0.17581
0.185684
0.199309
0.220399
0.238618
0.273138
0.274933
0.297838
0.379958
0.375774
0.401533
0.554442
0.54689
0.558091
0.771315
1.60698
1.63614
1.50298
1.37797
1.30726
0.803099
0.810789
0.823261
0.831461
0.8329
0.828899
0.820786
0.809662
0.797916
0.786304
0.778086
0.769474
0.771524
0.751896
0.740202
0.714711
0.693131
0.672698
0.63859
0.556411
0.540401
0.550405
0.625084
0.55815
0.560077
0.634677
0.547357
0.532513
0.547731
0.645101
0.681306
0.702392
0.725113
0.75226
0.765091
0.786507
0.78643
0.79443
0.800179
0.807668
0.814654
0.820536
0.823325
0.822119
0.815808
0.803029
0.786164
0.774556
1.26972
1.33766
1.45961
1.59039
1.55978
0.723524
0.514238
0.503724
0.510848
0.364498
0.341273
0.343359
0.267578
0.245907
0.24142
0.212823
0.196209
0.174784
0.164233
0.156212
0.148777
0.137234
0.131967
0.127453
0.119526
0.117406
0.64735
0.653165
0.661683
0.675151
0.666708
0.638052
0.600553
0.487371
0.390133
0.32013
0.267269
0.232934
0.218104
0.207175
0.181223
0.131321
0.104194
0.0874712
0.121626
0.647097
0.661743
0.691595
0.715883
0.699277
0.639166
0.578862
0.468815
0.381272
0.326116
0.289274
0.273034
0.284205
0.285716
0.25263
0.168229
0.131621
0.111632
0.138925
0.666852
0.713729
0.773374
0.80534
0.767983
0.662908
0.560606
0.458122
0.376843
0.338926
0.327444
0.339934
0.418673
0.408677
0.367612
0.248032
0.191603
0.156471
0.179288
0.71264
0.791162
0.87534
0.911601
0.86309
0.735159
0.604423
0.479896
0.395
0.373281
0.402705
0.487628
0.837167
0.646993
0.525438
0.374202
0.296114
0.240508
0.282424
0.78221
0.881541
0.967089
0.993606
0.939047
0.816144
0.677344
0.54699
0.459967
0.451915
0.537355
0.741977
1.70271
1.11875
0.762011
0.553222
0.452641
0.381529
0.42377
0.853243
0.956023
1.024
1.03699
0.992791
0.903926
0.785676
0.666573
0.60009
0.641448
0.865632
1.4421
2.40431
2.12747
1.19807
0.847968
0.724886
0.710243
0.688419
0.909025
0.997451
1.03678
1.04653
1.0309
0.996447
0.933871
0.856501
0.838666
0.98713
1.45029
2.42075
2.82905
2.73019
2.34876
1.56459
1.44254
1.59756
1.58352
0.926634
0.993458
1.01154
1.03201
1.0583
1.08502
1.10453
1.12483
1.17101
1.38216
1.91107
2.46795
2.34984
2.45527
3.01417
3.02525
2.86796
1.6011
0.996083
0.887356
0.929946
0.939746
0.974399
1.02301
1.07472
1.13246
1.20159
1.24931
1.31036
1.36031
1.30565
1.30756
1.42826
1.62146
1.73474
1.39601
0.947862
0.830447
0.814717
0.838605
0.841118
0.866376
0.893278
0.911327
0.93306
0.975159
1.01249
0.987019
0.8945
0.819449
0.886146
0.944529
1.03945
1.16834
1.24723
1.32402
1.38476
0.847948
0.866485
0.859307
0.876256
0.898123
0.910859
0.925449
0.960134
1.00273
0.99394
0.923455
0.885291
0.954666
1.01072
1.10516
1.23301
1.28235
1.35117
1.40956
0.990313
1.03743
1.03446
1.05561
1.10161
1.16242
1.23458
1.32963
1.40841
1.45908
1.50872
1.51261
1.54677
1.70029
1.92977
1.97712
1.49391
0.967688
0.845811
1.06858
1.15931
1.18113
1.19176
1.21612
1.2627
1.32315
1.39388
1.4429
1.62652
2.14912
2.84108
2.83517
2.98538
3.54651
3.34973
3.20055
1.65926
1.03063
1.06664
1.19304
1.25992
1.27231
1.25377
1.22887
1.19322
1.13354
1.08772
1.18739
1.5839
2.55585
3.21552
3.11098
2.36971
1.6978
1.60359
1.70578
1.69877
1.01019
1.15474
1.26738
1.3021
1.25708
1.16618
1.04345
0.906477
0.808085
0.811483
0.982927
1.42081
2.47167
1.87988
1.20134
0.901417
0.804233
0.777874
0.750473
0.931928
1.06764
1.20021
1.26232
1.21526
1.07934
0.902873
0.738938
0.624393
0.59553
0.668054
0.857102
1.53253
0.99637
0.745224
0.573003
0.487647
0.450981
0.477434
0.851419
0.956179
1.08111
1.15648
1.12157
0.972778
0.784863
0.625734
0.523069
0.494756
0.520312
0.589421
0.785925
0.641892
0.520263
0.383363
0.327388
0.305763
0.327393
0.798008
0.86004
0.948682
1.01203
0.985753
0.855957
0.694339
0.568688
0.482914
0.447183
0.436741
0.44306
0.49124
0.446694
0.377644
0.265003
0.226946
0.204147
0.214875
0.772497
0.793066
0.836093
0.877478
0.864734
0.781168
0.674422
0.563622
0.476936
0.426101
0.390365
0.368544
0.367198
0.337846
0.278547
0.193715
0.166099
0.148969
0.168574
0.770697
0.780367
0.792
0.810928
0.800274
0.746224
0.679978
0.57832
0.481399
0.414335
0.361098
0.321419
0.297409
0.267339
0.217477
0.159576
0.135504
0.119397
0.148465
)
;
    }
    fineplugLeft
    {
        type            cyclicAMI;
        value           nonuniform List<scalar> 
20
(
0.736776
1.21397
1.06423
1.03032
1.02276
1.04839
1.09693
1.16145
1.23356
1.30693
1.37845
1.44275
1.48911
1.56944
1.531
1.45031
1.80343
3.37773
8.30124
2.77415
)
;
    }
    fineplugRight
    {
        type            cyclicAMI;
        value           nonuniform List<scalar> 
20
(
0.711737
1.19079
1.10815
1.109
1.11961
1.14779
1.18935
1.24048
1.29577
1.35173
1.40754
1.45816
1.49222
1.56405
1.51688
1.43784
1.79301
3.37339
8.29871
2.7692
)
;
    }
    inletOutletLeft
    {
        type            cyclicAMI;
        value           nonuniform List<scalar> 
20
(
0.736776
1.21397
1.06423
1.03032
1.02276
1.04839
1.09693
1.16145
1.23356
1.30693
1.37845
1.44275
1.48911
1.56944
1.531
1.45031
1.80343
3.37773
8.30124
2.77415
)
;
    }
    inletLeft
    {
        type            calculated;
        value           uniform 1.13;
    }
    inletWallsLeft
    {
        type            calculated;
        value           nonuniform List<scalar> 
40
(
0.686688
0.780841
0.950817
1.17359
1.38815
1.57262
1.84181
2.04348
2.10649
2.03277
1.89405
1.77536
1.76501
1.97206
2.36738
2.7927
3.09752
3.26055
3.21165
3.27486
0.732995
0.62659
0.585593
0.484024
0.41725
0.338312
0.287423
0.238175
0.246857
0.329575
0.526914
0.562625
0.384839
0.399414
0.139606
0.112148
0.0190481
0.0312203
0.152154
0.838744
)
;
    }
    inletFacesLeft
    {
        type            calculated;
        value           nonuniform List<scalar> 
800
(
3.27486
9.9748
3.81313
1.87854
1.4684
1.58694
1.66776
1.65868
1.59763
1.5152
1.42544
1.33472
1.24662
1.16875
1.11101
1.08187
1.09338
1.13792
1.32458
0.732995
3.21165
9.48514
3.11441
1.32292
1.08314
1.28196
1.43016
1.50259
1.51704
1.49321
1.43592
1.3561
1.26974
1.19401
1.13991
1.11781
1.13198
1.18777
1.39154
0.62659
3.26055
10.115
2.94688
1.13457
0.888433
1.04413
1.20663
1.33645
1.42818
1.47379
1.46131
1.40241
1.3246
1.25384
1.20185
1.17557
1.16855
1.19463
1.36544
0.585593
3.09752
10.113
2.50299
0.870575
0.656652
0.778782
0.94856
1.12311
1.28002
1.39243
1.42898
1.39962
1.34068
1.28442
1.24062
1.20961
1.17213
1.16708
1.30794
0.484024
2.7927
9.29771
1.9419
0.607779
0.448924
0.567238
0.744234
0.944743
1.14233
1.29504
1.37375
1.37785
1.34515
1.31049
1.27938
1.23999
1.1598
1.11815
1.18563
0.41725
2.36738
7.56002
1.32442
0.385068
0.291107
0.411402
0.586518
0.786947
0.998741
1.17321
1.28134
1.31913
1.32314
1.31969
1.31282
1.27179
1.14997
1.08724
1.08849
0.338312
1.97206
5.2937
0.781237
0.228676
0.193016
0.299793
0.457068
0.645092
0.853799
1.03544
1.16331
1.22738
1.26991
1.30331
1.32966
1.30143
1.15723
1.07622
1.03488
0.287423
1.76501
3.26514
0.419173
0.138759
0.131844
0.216928
0.349586
0.513052
0.706586
0.884001
1.01933
1.10801
1.18734
1.25882
1.33106
1.3445
1.22784
1.13311
1.07683
0.238175
1.77536
1.93688
0.268483
0.0932267
0.0942954
0.155586
0.260681
0.39679
0.568495
0.737605
0.873679
0.98195
1.08589
1.19979
1.32573
1.40749
1.37397
1.2878
1.25819
0.246857
1.89405
1.1702
0.186372
0.0643483
0.0687894
0.113577
0.196342
0.308263
0.456796
0.614243
0.754745
0.880567
0.999413
1.13864
1.31118
1.46945
1.54548
1.50965
1.48209
0.329575
2.03277
0.754702
0.130648
0.0428301
0.0511045
0.0869268
0.15546
0.251203
0.385777
0.535208
0.676419
0.808803
0.939342
1.08769
1.27971
1.4952
1.67064
1.7211
1.62563
0.526914
2.10649
0.476392
0.0700698
0.0240638
0.0388435
0.0709261
0.133435
0.222759
0.355625
0.505451
0.651564
0.783611
0.911791
1.05493
1.2347
1.45704
1.70341
1.88631
1.6348
0.562625
2.04348
0.240904
0.0181792
0.0124239
0.0315731
0.0621934
0.122383
0.211992
0.355511
0.51533
0.67233
0.803721
0.926585
1.06736
1.25208
1.46301
1.68409
1.81596
1.23882
0.384839
1.84181
0.0650819
0.00225759
0.00937129
0.0258795
0.0544272
0.110352
0.201355
0.3482
0.512897
0.658346
0.757146
0.864696
0.998792
1.1089
1.08538
0.97007
0.921547
0.62972
0.399414
1.57262
0.036646
0.000967005
0.0046294
0.0143285
0.0325359
0.0671345
0.1246
0.212622
0.305347
0.37282
0.40833
0.430784
0.437159
0.425738
0.421924
0.461056
0.543748
0.50133
0.139606
1.38815
0.0322961
0.00018208
8.60988e-05
0.000585105
0.00186112
0.00534566
0.0105007
0.0189764
0.0286848
0.0387724
0.0493388
0.0637611
0.0775488
0.0786755
0.0899841
0.176778
0.213541
0.146301
0.112148
1.17359
0.0276318
0.000270773
1.2588e-06
1.5495e-07
1.70449e-06
1.24e-05
3.18286e-05
5.32215e-05
6.34077e-05
7.49416e-05
9.48025e-05
0.000122243
0.000178559
0.000306881
0.000625087
0.0014587
0.00596812
0.0192277
0.0190481
0.950817
0.00740705
4.87127e-08
1.88319e-08
1.72895e-08
1.72702e-08
2.12128e-08
2.36558e-08
2.67923e-08
3.11369e-08
3.57409e-08
4.04005e-08
4.76902e-08
6.40447e-08
1.16612e-07
3.58064e-07
2.75814e-06
0.00253101
0.0309809
0.0312203
0.780841
0.00124322
2.02972e-06
1.90021e-06
1.84883e-06
1.7749e-06
1.71514e-06
1.65393e-06
1.59468e-06
1.53507e-06
1.47452e-06
1.41255e-06
1.34845e-06
1.27913e-06
1.19555e-06
1.10728e-06
1.09224e-05
0.00177072
0.0309091
0.152154
0.686688
0.000683498
0.000648884
0.000648397
0.000648564
0.000648431
0.000648495
0.000648629
0.000648608
0.000648617
0.000648538
0.00064859
0.000648703
0.000648581
0.000648582
0.000648591
0.000648758
0.000659658
0.00218047
0.838744
3.27486
9.9748
3.81313
1.87854
1.4684
1.58694
1.66776
1.65868
1.59763
1.5152
1.42544
1.33472
1.24662
1.16875
1.11101
1.08187
1.09338
1.13792
1.32458
0.732995
3.21165
9.48514
3.11441
1.32292
1.08314
1.28196
1.43016
1.50259
1.51704
1.49321
1.43592
1.3561
1.26974
1.19401
1.13991
1.11781
1.13198
1.18777
1.39154
0.62659
3.26055
10.115
2.94688
1.13457
0.888433
1.04413
1.20663
1.33645
1.42818
1.47379
1.46131
1.40241
1.3246
1.25384
1.20185
1.17557
1.16855
1.19463
1.36544
0.585593
3.09752
10.113
2.50299
0.870575
0.656652
0.778782
0.94856
1.12311
1.28002
1.39243
1.42898
1.39962
1.34068
1.28442
1.24062
1.20961
1.17213
1.16708
1.30794
0.484024
2.7927
9.29771
1.9419
0.607779
0.448924
0.567238
0.744234
0.944743
1.14233
1.29504
1.37375
1.37785
1.34515
1.31049
1.27938
1.23999
1.1598
1.11815
1.18563
0.41725
2.36738
7.56002
1.32442
0.385068
0.291107
0.411402
0.586518
0.786947
0.998741
1.17321
1.28134
1.31913
1.32314
1.31969
1.31282
1.27179
1.14997
1.08724
1.08849
0.338312
1.97206
5.2937
0.781237
0.228676
0.193016
0.299793
0.457068
0.645092
0.853799
1.03544
1.16331
1.22738
1.26991
1.30331
1.32966
1.30143
1.15723
1.07622
1.03488
0.287423
1.76501
3.26514
0.419173
0.138759
0.131844
0.216928
0.349586
0.513052
0.706586
0.884001
1.01933
1.10801
1.18734
1.25882
1.33106
1.3445
1.22784
1.13311
1.07683
0.238175
1.77536
1.93688
0.268483
0.0932267
0.0942954
0.155586
0.260681
0.39679
0.568495
0.737605
0.873679
0.98195
1.08589
1.19979
1.32573
1.40749
1.37397
1.2878
1.25819
0.246857
1.89405
1.1702
0.186372
0.0643483
0.0687894
0.113577
0.196342
0.308263
0.456796
0.614243
0.754745
0.880567
0.999413
1.13864
1.31118
1.46945
1.54548
1.50965
1.48209
0.329575
2.03277
0.754702
0.130648
0.0428301
0.0511045
0.0869268
0.15546
0.251203
0.385777
0.535208
0.676419
0.808803
0.939342
1.08769
1.27971
1.4952
1.67064
1.7211
1.62563
0.526914
2.10649
0.476392
0.0700698
0.0240638
0.0388435
0.0709261
0.133435
0.222759
0.355625
0.505451
0.651564
0.783611
0.911791
1.05493
1.2347
1.45704
1.70341
1.88631
1.6348
0.562625
2.04348
0.240904
0.0181792
0.0124239
0.0315731
0.0621934
0.122383
0.211992
0.355511
0.51533
0.67233
0.803721
0.926585
1.06736
1.25208
1.46301
1.68409
1.81596
1.23882
0.384839
1.84181
0.0650819
0.00225759
0.00937129
0.0258795
0.0544272
0.110352
0.201355
0.3482
0.512897
0.658346
0.757146
0.864696
0.998792
1.1089
1.08538
0.97007
0.921547
0.62972
0.399414
1.57262
0.036646
0.000967005
0.0046294
0.0143285
0.0325359
0.0671345
0.1246
0.212622
0.305347
0.37282
0.40833
0.430784
0.437159
0.425738
0.421924
0.461056
0.543748
0.50133
0.139606
1.38815
0.0322961
0.00018208
8.60988e-05
0.000585105
0.00186112
0.00534566
0.0105007
0.0189764
0.0286848
0.0387724
0.0493388
0.0637611
0.0775488
0.0786755
0.0899841
0.176778
0.213541
0.146301
0.112148
1.17359
0.0276318
0.000270773
1.2588e-06
1.5495e-07
1.70449e-06
1.24e-05
3.18286e-05
5.32215e-05