/*--------------------------------*- C++ -*----------------------------------*\
| =========                 |                                                 |
| \\      /  F ield         | OpenFOAM: The Open Source CFD Toolbox           |
|  \\    /   O peration     | Version:  4.1                                   |
|   \\  /    A nd           | Web:      www.OpenFOAM.org                      |
|    \\/     M anipulation  |                                                 |
\*---------------------------------------------------------------------------*/
FoamFile
{
    version     2.0;
    format      ascii;
    class       volScalarField;
    location    "5";
    object      nut;
}
// * * * * * * * * * * * * * * * * * * * * * * * * * * * * * * * * * * * * * //

dimensions      [0 2 -1 0 0 0 0];

internalField   nonuniform List<scalar> 
1280
(
4.47492
7.99271
4.59131
4.67118
8.45617
4.89759
5.01077
5.19751
9.64346
5.68048
5.92522
11.3723
6.34149
6.58453
13.2186
7.35195
7.50654
15.2305
8.5529
8.6248
0.364346
0.398005
0.424535
0.457285
0.48105
0.543151
0.48897
0.613389
0.750566
0.880161
1.01279
1.13754
1.25259
1.34731
1.43728
1.53473
1.53857
1.47413
1.4454
1.22054
19.8509
10.9232
10.7331
10.5447
18.141
9.23912
8.96833
8.96008
17.0166
9.00741
9.01581
17.6075
9.37997
9.2719
9.51345
18.6275
10.7043
10.8746
11.0609
20.1046
1.22902
1.48914
1.53208
1.52712
1.55068
1.4177
1.33431
1.22966
1.10968
0.978575
0.844007
0.71536
0.580278
0.464895
0.517241
0.458717
0.435543
0.406075
0.381104
0.325345
8.37096
8.3035
14.8059
7.21734
7.09582
12.6621
6.22863
5.94894
10.4941
5.53098
5.29958
8.90758
4.86688
4.73344
4.61586
7.88569
4.36573
4.2859
7.37799
4.13511
19.7876
20.9423
23.3632
28.8472
35.3421
32.3649
25.8637
27.884
33.0538
28.9251
22.1807
16.5148
12.8784
11.8633
12.625
9.81495
9.27936
9.55126
14.1183
17.0618
16.7188
17.4923
21.899
35.3555
36.9267
27.4993
28.1181
32.8734
29.314
25.0879
21.3388
14.6834
15.0432
17.0506
14.0738
13.5495
14.4796
13.7267
15.9857
15.3947
17.2604
20.2302
30.5297
42.0394
34.3067
31.6183
34.8306
29.9288
23.7631
15.5669
12.7271
13.1654
20.1577
22.1138
22.503
23.5074
10.6332
15.921
15.5959
17.429
18.5878
25.8111
42.8034
44.5037
37.5499
37.9373
34.9759
29.3207
13.1819
10.4719
10.1655
13.7143
19.9599
24.1483
22.875
8.06677
16.8245
16.1174
17.0175
18.0362
22.8051
37.8935
48.4922
42.48
35.932
22.3476
11.6464
6.59467
14.8126
10.4774
15.1792
20.7383
29.8639
25.8128
5.49067
18.4121
16.7478
17.262
17.2772
19.079
27.6604
40.5801
39.6119
43.8765
26.9401
12.7392
8.11894
14.7169
15.362
13.5537
28.3472
20.5957
19.2158
3.09499
19.7639
17.6939
17.2785
16.6623
16.1335
18.3813
24.9721
26.1321
20.8037
15.0556
10.8949
14.2112
16.703
16.4827
20.3148
20.7622
20.2692
16.1899
3.76757
21.4273
19.885
18.5536
16.4716
15.4731
15.3763
16.142
17.5025
15.6058
11.713
11.8116
16.7502
15.7252
12.5104
15.0477
16.1038
12.5143
7.50733
4.37592
21.7727
20.3125
18.8282
16.4858
15.3057
14.0079
13.5892
12.9805
12.5898
11.7073
12.393
15.3785
14.318
11.1138
9.26241
9.3399
9.3098
8.57923
8.34877
20.5349
19.2776
18.1108
15.9643
15.235
14.0705
13.0643
12.1169
12.3581
12.9704
13.5646
11.9301
10.8164
10.1851
9.68143
10.3815
10.1476
10.2254
10.5515
20.9632
20.2106
19.3813
16.7782
16.1092
14.9708
14.0962
13.0196
13.199
13.9124
13.2581
12.7579
11.5897
10.8413
10.1525
10.6067
10.5781
10.1841
10.5271
23.6793
22.9199
21.6876
18.9298
17.4902
15.786
14.5859
13.8013
13.3734
12.7341
13.4665
15.9742
14.5858
11.2879
10.1781
10.128
10.8161
8.33185
8.25623
23.9544
22.8281
21.9668
19.78
18.352
17.2876
17.3541
17.2026
16.3296
12.944
12.3351
16.9598
16.7489
14.5042
17.5959
17.5455
13.2847
7.68462
4.39606
22.9445
20.8578
20.9484
20.1135
19.4331
19.2212
23.5645
28.8555
24.2735
17.9015
12.4851
14.4067
18.6843
18.355
26.7693
23.0489
20.4824
15.4307
4.06354
21.4776
19.9695
20.8458
21.1112
21.3671
26.6356
40.9154
47.9794
49.7811
33.7397
16.3381
8.58497
15.9615
14.5591
17.4889
35.2797
24.8455
19.8561
3.41291
19.5806
19.2203
19.9895
21.1477
23.7303
36.7984
51.6869
53.0455
45.7995
31.1092
18.5759
10.7967
15.2298
12.0884
20.6094
30.5092
24.5856
49.0353
5.82902
18.1189
17.6151
19.4821
20.8699
24.8385
46.0458
52.1126
44.9062
45.5667
45.7176
36.5025
18.8037
14.0336
15.3719
18.8363
27.1474
28.401
41.3449
8.94642
18.1426
16.6679
18.7814
21.5816
27.9846
51.0209
44.4814
35.1068
41.2268
39.8449
33.6459
24.586
20.7566
20.0728
26.1374
24.5634
23.7599
29.2992
12.1171
18.4209
17.4067
18.0021
21.0187
32.1099
46.9821
36.0385
28.1907
37.9536
37.8155
34.9552
29.1163
23.2403
21.6037
21.9293
17.4181
17.8401
20.2327
16.1051
20.6035
21.0257
23.3621
26.8865
39.246
41.4177
31.4595
27.0159
36.3171
36.234
31.6482
25.371
20.577
17.8826
17.0741
12.8511
13.0604
14.1504
17.813
0.59122
2.04272
1.05261
0.888494
1.23594
2.4621
3.32745
4.52961
5.44915
5.54366
4.80801
4.05926
3.34753
2.79717
2.41005
2.02174
1.6643
1.17711
0.693169
0.308959
0.583533
1.96778
0.967519
0.705532
1.07376
2.80015
5.03387
5.79403
5.32953
4.79755
3.99826
3.24588
2.66342
2.24033
1.9302
1.69144
1.43735
1.11689
0.720224
0.287601
0.585095
1.9982
0.881331
0.642957
1.18859
3.32512
5.72894
6.13386
5.03766
3.89709
3.04022
2.42626
2.02472
1.75522
1.5576
1.39368
1.1888
0.935206
0.637683
0.282986
0.564755
1.98113
0.742515
0.58763
1.20179
3.35359
5.37581
5.44276
3.83374
2.99363
2.37158
1.93932
1.67766
1.50159
1.36333
1.22473
1.01942
0.788161
0.556926
0.25822
0.532694
2.01004
0.626817
0.479468
1.25625
3.9418
5.11028
4.577
3.53427
2.47316
1.95749
1.60052
1.37871
1.26222
1.17444
1.05192
0.843507
0.645306
0.475287
0.240112
0.486038
1.95141
0.493915
0.353206
0.904181
2.95027
4.43634
3.75432
2.97644
2.27394
1.72705
1.41659
1.24
1.14317
1.1016
0.960727
0.727035
0.53624
0.389407
0.219541
0.442698
1.63616
0.345757
0.244908
0.888693
3.00558
3.64176
3.11956
2.54254
1.9897
1.56773
1.25559
1.13346
1.0627
1.04622
0.893077
0.645902
0.467667
0.347896
0.201395
0.420269
1.02705
0.153657
0.136555
0.602114
2.11111
2.94325
2.53371
2.14082
1.74564
1.38045
1.14101
1.06675
0.984698
0.997376
0.863242
0.633878
0.469696
0.35005
0.184429
0.422566
0.606078
0.143323
0.109542
0.517629
1.77224
2.25341
1.96382
1.65212
1.47148
1.10002
0.924595
0.889651
0.88864
0.937947
0.859413
0.682123
0.537696
0.415993
0.19329
0.437636
0.336198
0.0797255
0.0791989
0.432852
1.36561
1.64736
1.52025
1.33625
1.13704
0.930131
0.84702
0.777226
0.79016
0.876604
0.86558
0.754794
0.624726
0.521083
0.224935
0.454585
0.214425
0.0666576
0.0733634
0.501159
1.14829
1.22242
1.05834
1.00402
0.893896
0.72565
0.677461
0.672968
0.694168
0.805127
0.853566
0.79683
0.677292
0.620276
0.280904
0.462351
0.138813
0.0535123
0.104033
0.875835
0.852009
0.802376
0.867345
0.772075
0.656338
0.546107
0.517079
0.528102
0.56547
0.627463
0.677322
0.719984
0.653307
0.554882
0.206239
0.453216
0.0821761
0.0216666
0.237954
0.765469
0.67063
0.614965
0.551732
0.489602
0.425247
0.402402
0.419757
0.432521
0.462805
0.519991
0.550348
0.603864
0.606357
0.419941
0.128801
0.427889
0.0284422
0.00631263
0.856662
0.931253
0.671622
0.529025
0.473366
0.428445
0.396829
0.384218
0.383755
0.396685
0.435406
0.499598
0.526668
0.414985
0.377705
0.297705
0.183207
0.395262
0.00857187
0.00108444
0.322435
1.74468
2.35064
2.29086
1.74181
1.31763
1.00964
0.787692
0.603545
0.45501
0.371229
0.298171
0.24384
0.211477
0.241543
0.222888
0.14161
0.374745
0.00618618
2.918e-05
0.000163788
0.0213216
0.0631951
0.162904
0.305241
0.34145
0.290421
0.253578
0.234269
0.20623
0.247457
0.266979
0.311619
0.243645
0.420525
0.541906
0.11744
0.34225
0.00394311
5.02807e-05
2.00998e-08
1.69188e-09
9.23026e-08
2.47614e-06
1.31094e-05
3.38582e-05
4.65123e-05
6.40243e-05
9.66118e-05
0.000147413
0.000263292
0.000507649
0.00151702
0.00275762
0.0180537
0.0251615
0.0319952
0.307778
0.000291374
7.13223e-12
3.04486e-12
3.44408e-12
4.54533e-12
4.2227e-12
5.29425e-12
7.06997e-12
9.5144e-12
1.2775e-11
1.64096e-11
2.27702e-11
3.91549e-11
1.11757e-10
7.53979e-10
1.10386e-08
0.00399495
0.00552451
0.0481627
0.278771
3.80708e-06
2.22851e-10
2.07142e-10
2.01924e-10
1.93411e-10
1.87085e-10
1.80828e-10
1.74313e-10
1.67869e-10
1.6107e-10
1.54417e-10
1.47608e-10
1.39761e-10
1.31268e-10
1.23555e-10
3.74642e-09
2.43777e-05
0.0058001
0.129521
0.261782
5.05591e-08
4.64483e-08
4.6253e-08
4.63178e-08
4.62467e-08
4.62815e-08
4.63607e-08
4.63462e-08
4.63501e-08
4.63028e-08
4.63327e-08
4.63977e-08
4.63242e-08
4.63202e-08
4.63195e-08
4.64423e-08
5.15687e-08
5.43828e-07
0.374775
0.261783
5.05667e-08
4.64495e-08
4.62498e-08
4.63177e-08
4.62906e-08
4.62809e-08
4.62907e-08
4.63379e-08
4.62809e-08
4.6327e-08
4.639e-08
4.63389e-08
4.63293e-08
4.63307e-08
4.63198e-08
4.64386e-08
5.15691e-08
5.43574e-07
0.374853
0.278766
3.80521e-06
2.22864e-10
2.07129e-10
2.01937e-10
1.93691e-10
1.87092e-10
1.80442e-10
1.74279e-10
1.67515e-10
1.61203e-10
1.54702e-10
1.47341e-10
1.39794e-10
1.31315e-10
1.23826e-10
4.29804e-09
3.03252e-05
0.00633529
0.118632
0.307778
0.000291437
7.22841e-12
3.05266e-12
2.6522e-12
2.75461e-12
4.20827e-12
5.12353e-12
6.64829e-12
8.4595e-12
1.11181e-11
1.34665e-11
1.76469e-11
2.85644e-11
7.44345e-11
3.80888e-10
6.38877e-08
0.00641888
0.0109798
0.0100422
0.342255
0.0043773
6.27213e-05
2.53671e-08
7.22003e-10
3.7678e-08
1.36042e-06
7.3115e-06
1.97956e-05
2.85851e-05
4.14456e-05
6.09598e-05
9.27885e-05
0.00017575
0.000365675
0.00126586
0.000991813
0.0121383
0.031276
0.0475668
0.374841
0.00716339
3.90947e-05
0.00013867
0.01311
0.0400938
0.148671
0.27842
0.313018
0.272901
0.237904
0.207255
0.177183
0.215489
0.22939
0.275729
0.203431
0.412864
0.453725
0.104004
0.395263
0.00953566
0.000943445
0.240296
1.38979
1.94344
1.83694
1.58131
1.19881
0.916897
0.684705
0.503067
0.387795
0.316402
0.261094
0.217013
0.185463
0.220162
0.219181
0.140603
0.427884
0.0283906
0.00570417
0.499807
0.963908
0.712072
0.547363
0.442152
0.403234
0.377204
0.360847
0.366103
0.36388
0.409046
0.46108
0.46578
0.350675
0.318606
0.254706
0.173773
0.453267
0.0836068
0.0186174
0.0996354
0.703824
0.674949
0.576723
0.512829
0.464952
0.415981
0.397559
0.400744
0.40991
0.443843
0.495665
0.51962
0.565619
0.541318
0.333355
0.178897
0.46252
0.139111
0.0580187
0.0649347
0.690011
0.809272
0.865956
0.678012
0.729531
0.633031
0.528638
0.502885
0.512923
0.554505
0.619875
0.661985
0.678919
0.584996
0.434008
0.181919
0.454823
0.215126
0.0621437
0.0622679
0.391863
1.06488
1.05339
1.04331
0.976889
0.861086
0.749397
0.687803
0.675536
0.72594
0.810192
0.837624
0.735396
0.550003
0.447217
0.212583
0.437886
0.335624
0.0999577
0.079698
0.386906
1.23788
1.59926
1.31453
1.3454
1.15627
0.967224
0.868682
0.844278
0.875365
0.908766
0.8538
0.6741
0.420256
0.333767
0.14594
0.422811
0.612313
0.10003
0.0910333
0.424888
1.62199
2.17684
1.95876
1.72485
1.42059
1.19245
1.05134
0.949367
0.952581
0.968722
0.850387
0.592149
0.281465
0.245085
0.125128
0.420475
1.0301
0.207615
0.14967
0.561501
1.94822
2.84384
2.53319
2.11983
1.75464
1.46229
1.27997
1.15907
1.06655
1.04364
0.873831
0.560603
0.24631
0.194281
0.137971
0.443003
1.63915
0.306487
0.199942
0.811077
2.8611
3.55338
3.0684
2.52209
2.10795
1.75876
1.54822
1.37694
1.19303
1.12046
0.928928
0.606428
0.313218
0.21143
0.174662
0.486345
1.95349
0.50274
0.373054
0.926387
2.81029
4.29289
3.84224
3.08238
2.41381
1.9909
1.67125
1.47363
1.30437
1.21883
1.03299
0.744049
0.445513
0.274854
0.199224
0.532749
2.0065
0.630559
0.448882
1.17807
3.80569
5.12439
4.60844
3.45843
2.56407
2.13381
1.82361
1.59033
1.41857
1.3132
1.15193
0.878966
0.60416
0.38998
0.227158
0.564761
1.98244
0.738138
0.60643
1.23691
3.29915
5.11056
5.28606
4.09824
3.16178
2.53289
2.10632
1.83137
1.65
1.5193
1.35489
1.08989
0.770396
0.469362
0.247387
0.585177
1.99831
0.890378
0.581835
1.15873
3.28088
5.57824
6.07672
5.12814
4.05753
3.22549
2.62075
2.20491
1.91938
1.71891
1.53178
1.28699
0.960691
0.594339
0.278614
0.583685
1.9686
0.948083
0.685698
1.07365
2.78417
4.6095
5.38555
5.16237
4.85158
4.22139
3.52221
2.93792
2.49527
2.16978
1.90786
1.62207
1.2226
0.722124
0.288084
0.591619
2.04458
1.05546
0.893141
1.23024
2.40673
3.25845
4.39825
5.22801
5.51882
4.88078
4.22823
3.59838
3.07481
2.66617
2.27105
1.83868
1.30775
0.719017
0.313187
)
;

boundaryField
{
    outletWall
    {
        type            calculated;
        value           nonuniform List<scalar> 
60
(
4.13511
14.1183
9.55126
9.27936
9.81495
12.625
11.8633
12.8784
16.5148
22.1807
28.9251
33.0538
27.884
25.8637
32.3649
35.3421
28.8472
23.3632
20.9423
19.7876
20.6035
18.4209
18.1426
18.1189
19.5806
21.4776
22.9445
23.9544
23.6793
20.9632
20.5349
21.7727
21.4273
19.7639
18.4121
16.8245
15.921
15.9857
17.0618
19.7876
4.47492
17.813
14.1504
13.0604
12.8511
17.0741
17.8826
20.577
25.371
31.6482
36.234
36.3171
27.0159
31.4595
41.4177
39.246
26.8865
23.3621
21.0257
20.6035
)
;
    }
    fineWalls
    {
        type            nutkWallFunction;
        Cmu             0.09;
        kappa           0.41;
        E               9.8;
        value           nonuniform List<scalar> 
60
(
0.520319
0.515395
0.884295
0.445895
0.432253
0.740426
0.387654
0.373394
0.634117
0.349429
0.336676
0.546954
0.310725
0.302881
0.29639
0.489883
0.282172
0.277748
0.461438
0.268742
1.03075
0.588315
0.579591
0.571361
0.958892
0.515767
0.508996
0.515601
0.951575
0.521187
0.520345
0.944785
0.516946
0.512518
0.519584
0.95433
0.567963
0.575993
0.584339
1.02295
0.250765
0.430362
0.260578
0.264853
0.459149
0.280127
0.286589
0.293381
0.514283
0.318845
0.331208
0.598424
0.354386
0.368682
0.706029
0.413181
0.426126
0.850907
0.495902
0.500729
)
;
    }
    fineFrontAndBack
    {
        type            calculated;
        value           nonuniform List<scalar> 
960
(
4.47492
7.99271
4.59131
4.67118
8.45617
4.89759
5.01077
5.19751
9.64346
5.68048
5.92522
11.3723
6.34149
6.58453
13.2186
7.35195
7.50654
15.2305
8.5529
8.6248
5.35434e+13
0.398005
0.424535
0.457285
0.48105
0.543151
0.48897
0.613389
0.750566
0.880161
1.01279
1.13754
1.25259
1.34731
1.43728
1.53473
1.53857
1.47413
1.4454
1.22054
19.8509
10.9232
10.7331
10.5447
18.141
9.23912
8.96833
8.96008
17.0166
9.00741
9.01581
17.6075
9.37997
9.2719
9.51345
18.6275
10.7043
10.8746
11.0609
20.1046
1.22902
1.48914
1.53208
1.52712
1.55068
1.4177
1.33431
1.22966
1.10968
0.978575
0.844007
0.71536
0.580278
0.464895
0.517241
0.458717
0.435543
0.406075
0.381104
4.71138e+13
8.37096
8.3035
14.8059
7.21734
7.09582
12.6621
6.22863
5.94894
10.4941
5.53098
5.29958
8.90758
4.86688
4.73344
4.61586
7.88569
4.36573
4.2859
7.37799
4.13511
19.7876
20.9423
23.3632
28.8472
35.3421
32.3649
25.8637
27.884
33.0538
28.9251
22.1807
16.5148
12.8784
11.8633
12.625
9.81495
9.27936
9.55126
14.1183
17.0618
16.7188
17.4923
21.899
35.3555
36.9267
27.4993
28.1181
32.8734
29.314
25.0879
21.3388
14.6834
15.0432
17.0506
14.0738
13.5495
14.4796
13.7267
15.9857
15.3947
17.2604
20.2302
30.5297
42.0394
34.3067
31.6183
34.8306
29.9288
23.7631
15.5669
12.7271
13.1654
20.1577
22.1138
22.503
23.5074
10.6332
15.921
15.5959
17.429
18.5878
25.8111
42.8034
44.5037
37.5499
37.9373
34.9759
29.3207
13.1819
10.4719
10.1655
13.7143
19.9599
24.1483
22.875
8.06677
16.8245
16.1174
17.0175
18.0362
22.8051
37.8935
48.4922
42.48
35.932
22.3476
11.6464
6.59467
14.8126
10.4774
15.1792
20.7383
29.8639
25.8128
5.49067
18.4121
16.7478
17.262
17.2772
19.079
27.6604
40.5801
39.6119
43.8765
26.9401
12.7392
8.11894
14.7169
15.362
13.5537
28.3472
20.5957
19.2158
3.09499
19.7639
17.6939
17.2785
16.6623
16.1335
18.3813
24.9721
26.1321
20.8037
15.0556
10.8949
14.2112
16.703
16.4827
20.3148
20.7622
20.2692
16.1899
3.76757
21.4273
19.885
18.5536
16.4716
15.4731
15.3763
16.142
17.5025
15.6058
11.713
11.8116
16.7502
15.7252
12.5104
15.0477
16.1038
12.5143
7.50733
4.37592
21.7727
20.3125
18.8282
16.4858
15.3057
14.0079
13.5892
12.9805
12.5898
11.7073
12.393
15.3785
14.318
11.1138
9.26241
9.3399
9.3098
8.57923
8.34877
20.5349
19.2776
18.1108
15.9643
15.235
14.0705
13.0643
12.1169
12.3581
12.9704
13.5646
11.9301
10.8164
10.1851
9.68143
10.3815
10.1476
10.2254
10.5515
20.9632
20.2106
19.3813
16.7782
16.1092
14.9708
14.0962
13.0196
13.199
13.9124
13.2581
12.7579
11.5897
10.8413
10.1525
10.6067
10.5781
10.1841
10.5271
23.6793
22.9199
21.6876
18.9298
17.4902
15.786
14.5859
13.8013
13.3734
12.7341
13.4665
15.9742
14.5858
11.2879
10.1781
10.128
10.8161
8.33185
8.25623
23.9544
22.8281
21.9668
19.78
18.352
17.2876
17.3541
17.2026
16.3296
12.944
12.3351
16.9598
16.7489
14.5042
17.5959
17.5455
13.2847
7.68462
4.39606
22.9445
20.8578
20.9484
20.1135
19.4331
19.2212
23.5645
28.8555
24.2735
17.9015
12.4851
14.4067
18.6843
18.355
26.7693
23.0489
20.4824
15.4307
4.06354
21.4776
19.9695
20.8458
21.1112
21.3671
26.6356
40.9154
47.9794
49.7811
33.7397
16.3381
8.58497
15.9615
14.5591
17.4889
35.2797
24.8455
19.8561
3.41291
19.5806
19.2203
19.9895
21.1477
23.7303
36.7984
51.6869
53.0455
45.7995
31.1092
18.5759
10.7967
15.2298
12.0884
20.6094
30.5092
24.5856
49.0353
5.82902
18.1189
17.6151
19.4821
20.8699
24.8385
46.0458
52.1126
44.9062
45.5667
45.7176
36.5025
18.8037
14.0336
15.3719
18.8363
27.1474
28.401
41.3449
8.94642
18.1426
16.6679
18.7814
21.5816
27.9846
51.0209
44.4814
35.1068
41.2268
39.8449
33.6459
24.586
20.7566
20.0728
26.1374
24.5634
23.7599
29.2992
12.1171
18.4209
17.4067
18.0021
21.0187
32.1099
46.9821
36.0385
28.1907
37.9536
37.8155
34.9552
29.1163
23.2403
21.6037
21.9293
17.4181
17.8401
20.2327
16.1051
20.6035
21.0257
23.3621
26.8865
39.246
41.4177
31.4595
27.0159
36.3171
36.234
31.6482
25.371
20.577
17.8826
17.0741
12.8511
13.0604
14.1504
17.813
4.47492
7.99271
4.59131
4.67118
8.45617
4.89759
5.01077
5.19751
9.64346
5.68048
5.92522
11.3723
6.34149
6.58453
13.2186
7.35195
7.50654
15.2305
8.5529
8.6248
5.35434e+13
0.398005
0.424535
0.457285
0.48105
0.543151
0.48897
0.613389
0.750566
0.880161
1.01279
1.13754
1.25259
1.34731
1.43728
1.53473
1.53857
1.47413
1.4454
1.22054
19.8509
10.9232
10.7331
10.5447
18.141
9.23912
8.96833
8.96008
17.0166
9.00741
9.01581
17.6075
9.37997
9.2719
9.51345
18.6275
10.7043
10.8746
11.0609
20.1046
1.22902
1.48914
1.53208
1.52712
1.55068
1.4177
1.33431
1.22966
1.10968
0.978575
0.844007
0.71536
0.580278
0.464895
0.517241
0.458717
0.435543
0.406075
0.381104
4.71138e+13
8.37096
8.3035
14.8059
7.21734
7.09582
12.6621
6.22863
5.94894
10.4941
5.53098
5.29958
8.90758
4.86688
4.73344
4.61586
7.88569
4.36573
4.2859
7.37799
4.13511
19.7876
20.9423
23.3632
28.8472
35.3421
32.3649
25.8637
27.884
33.0538
28.9251
22.1807
16.5148
12.8784
11.8633
12.625
9.81495
9.27936
9.55126
14.1183
17.0618
16.7188
17.4923
21.899
35.3555
36.9267
27.4993
28.1181
32.8734
29.314
25.0879
21.3388
14.6834
15.0432
17.0506
14.0738
13.5495
14.4796
13.7267
15.9857
15.3947
17.2604
20.2302
30.5297
42.0394
34.3067
31.6183
34.8306
29.9288
23.7631
15.5669
12.7271
13.1654
20.1577
22.1138
22.503
23.5074
10.6332
15.921
15.5959
17.429
18.5878
25.8111
42.8034
44.5037
37.5499
37.9373
34.9759
29.3207
13.1819
10.4719
10.1655
13.7143
19.9599
24.1483
22.875
8.06677
16.8245
16.1174
17.0175
18.0362
22.8051
37.8935
48.4922
42.48
35.932
22.3476
11.6464
6.59467
14.8126
10.4774
15.1792
20.7383
29.8639
25.8128
5.49067
18.4121
16.7478
17.262
17.2772
19.079
27.6604
40.5801
39.6119
43.8765
26.9401
12.7392
8.11894
14.7169
15.362
13.5537
28.3472
20.5957
19.2158
3.09499
19.7639
17.6939
17.2785
16.6623
16.1335
18.3813
24.9721
26.1321
20.8037
15.0556
10.8949
14.2112
16.703
16.4827
20.3148
20.7622
20.2692
16.1899
3.76757
21.4273
19.885
18.5536
16.4716
15.4731
15.3763
16.142
17.5025
15.6058
11.713
11.8116
16.7502
15.7252
12.5104
15.0477
16.1038
12.5143
7.50733
4.37592
21.7727
20.3125
18.8282
16.4858
15.3057
14.0079
13.5892
12.9805
12.5898
11.7073
12.393
15.3785
14.318
11.1138
9.26241
9.3399
9.3098
8.57923
8.34877
20.5349
19.2776
18.1108
15.9643
15.235
14.0705
13.0643
12.1169
12.3581
12.9704
13.5646
11.9301
10.8164
10.1851
9.68143
10.3815
10.1476
10.2254
10.5515
20.9632
20.2106
19.3813
16.7782
16.1092
14.9708
14.0962
13.0196
13.199
13.9124
13.2581
12.7579
11.5897
10.8413
10.1525
10.6067
10.5781
10.1841
10.5271
23.6793
22.9199
21.6876
18.9298
17.4902
15.786
14.5859
13.8013
13.3734
12.7341
13.4665
15.9742
14.5858
11.2879
10.1781
10.128
10.8161
8.33185
8.25623
23.9544
22.8281
21.9668
19.78
18.352
17.2876
17.3541
17.2026
16.3296
12.944
12.3351
16.9598
16.7489
14.5042
17.5959
17.5455
13.2847
7.68462
4.39606
22.9445
20.8578
20.9484
20.1135
19.4331
19.2212
23.5645
28.8555
24.2735
17.9015
12.4851
14.4067
18.6843
18.355
26.7693
23.0489
20.4824
15.4307
4.06354
21.4776
19.9695
20.8458
21.1112
21.3671
26.6356
40.9154
47.9794
49.7811
33.7397
16.3381
8.58497
15.9615
14.5591
17.4889
35.2797
24.8455
19.8561
3.41291
19.5806
19.2203
19.9895
21.1477
23.7303
36.7984
51.6869
53.0455
45.7995
31.1092
18.5759
10.7967
15.2298
12.0884
20.6094
30.5092
24.5856
49.0353
5.82902
18.1189
17.6151
19.4821
20.8699
24.8385
46.0458
52.1126
44.9062
45.5667
45.7176
36.5025
18.8037
14.0336
15.3719
18.8363
27.1474
28.401
41.3449
8.94642
18.1426
16.6679
18.7814
21.5816
27.9846
51.0209
44.4814
35.1068
41.2268
39.8449
33.6459
24.586
20.7566
20.0728
26.1374
24.5634
23.7599
29.2992
12.1171
18.4209
17.4067
18.0021
21.0187
32.1099
46.9821
36.0385
28.1907
37.9536
37.8155
34.9552
29.1163
23.2403
21.6037
21.9293
17.4181
17.8401
20.2327
16.1051
20.6035
21.0257
23.3621
26.8865
39.246
41.4177
31.4595
27.0159
36.3171
36.234
31.6482
25.371
20.577
17.8826
17.0741
12.8511
13.0604
14.1504
17.813
)
;
    }
    fineplugLeft
    {
        type            cyclicAMI;
        value           nonuniform List<scalar> 
20
(
0.491275
0.843615
1.23652
1.63915
1.92434
2.2155
2.5072
2.92854
3.47492
4.04897
4.61096
4.50943
3.74637
3.00469
2.07831
1.08496
0.802252
0.926998
1.71378
0.545845
)
;
    }
    fineplugRight
    {
        type            cyclicAMI;
        value           nonuniform List<scalar> 
20
(
0.496354
0.873041
1.35262
1.77637
2.12698
2.41648
2.72671
3.12463
3.60452
4.10034
4.58386
4.32548
3.63466
2.9408
2.02883
1.07593
0.801622
0.925585
1.71189
0.538364
)
;
    }
    inletOutletLeft
    {
        type            cyclicAMI;
        value           nonuniform List<scalar> 
20
(
0.491275
0.843615
1.23652
1.63915
1.92434
2.2155
2.5072
2.92854
3.47492
4.04897
4.61096
4.50943
3.74637
3.00469
2.07831
1.08496
0.802252
0.926998
1.71378
0.545845
)
;
    }
    inletLeft
    {
        type            calculated;
        value           uniform 5.26945e-05;
    }
    inletWallsLeft
    {
        type            nutkWallFunction;
        Cmu             0.09;
        kappa           0.41;
        E               9.8;
        value           nonuniform List<scalar> 
40
(
0.0206705
0.021932
0.0240176
0.0264679
0.0286017
0.0302988
0.032594
0.034198
0.0346816
0.034115
0.0330181
0.0320451
0.0319586
0.0336401
0.036606
0.0395142
0.041455
0.0424512
0.0421552
0.0425374
0.0213018
0.0198162
0.0192079
0.0175944
0.0164322
0.0149207
0.0138431
0.0126975
0.0129081
0.0147422
0.018296
0.018857
0.015832
0.0161051
0.00993589
0.00898644
0.00399472
0.00500551
0.0103361
0.0226675
)
;
    }
    inletFacesLeft
    {
        type            calculated;
        value           nonuniform List<scalar> 
800
(
0.59122
2.04272
1.05261
0.888494
1.23594
2.4621
3.32745
4.52961
5.44915
5.54366
4.80801
4.05926
3.34753
2.79717
2.41005
2.02174
1.6643
1.17711
0.693169
0.308959
0.583533
1.96778
0.967519
0.705532
1.07376
2.80015
5.03387
5.79403
5.32953
4.79755
3.99826
3.24588
2.66342
2.24033
1.9302
1.69144
1.43735
1.11689
0.720224
0.287601
0.585095
1.9982
0.881331
0.642957
1.18859
3.32512
5.72894
6.13386
5.03766
3.89709
3.04022
2.42626
2.02472
1.75522
1.5576
1.39368
1.1888
0.935206
0.637683
0.282986
0.564755
1.98113
0.742515
0.58763
1.20179
3.35359
5.37581
5.44276
3.83374
2.99363
2.37158
1.93932
1.67766
1.50159
1.36333
1.22473
1.01942
0.788161
0.556926
0.25822
0.532694
2.01004
0.626817
0.479468
1.25625
3.9418
5.11028
4.577
3.53427
2.47316
1.95749
1.60052
1.37871
1.26222
1.17444
1.05192
0.843507
0.645306
0.475287
0.240112
0.486038
1.95141
0.493915
0.353206
0.904181
2.95027
4.43634
3.75432
2.97644
2.27394
1.72705
1.41659
1.24
1.14317
1.1016
0.960727
0.727035
0.53624
0.389407
0.219541
0.442698
1.63616
0.345757
0.244908
0.888693
3.00558
3.64176
3.11956
2.54254
1.9897
1.56773
1.25559
1.13346
1.0627
1.04622
0.893077
0.645902
0.467667
0.347896
0.201395
0.420269
1.02705
0.153657
0.136555
0.602114
2.11111
2.94325
2.53371
2.14082
1.74564
1.38045
1.14101
1.06675
0.984698
0.997376
0.863242
0.633878
0.469696
0.35005
0.184429
0.422566
0.606078
0.143323
0.109542
0.517629
1.77224
2.25341
1.96382
1.65212
1.47148
1.10002
0.924595
0.889651
0.88864
0.937947
0.859413
0.682123
0.537696
0.415993
0.19329
0.437636
0.336198
0.0797255
0.0791989
0.432852
1.36561
1.64736
1.52025
1.33625
1.13704
0.930131
0.84702
0.777226
0.79016
0.876604
0.86558
0.754794
0.624726
0.521083
0.224935
0.454585
0.214425
0.0666576
0.0733634
0.501159
1.14829
1.22242
1.05834
1.00402
0.893896
0.72565
0.677461
0.672968
0.694168
0.805127
0.853566
0.79683
0.677292
0.620276
0.280904
0.462351
0.138813
0.0535123
0.104033
0.875835
0.852009
0.802376
0.867345
0.772075
0.656338
0.546107
0.517079
0.528102
0.56547
0.627463
0.677322
0.719984
0.653307
0.554882
0.206239
0.453216
0.0821761
0.0216666
0.237954
0.765469
0.67063
0.614965
0.551732
0.489602
0.425247
0.402402
0.419757
0.432521
0.462805
0.519991
0.550348
0.603864
0.606357
0.419941
0.128801
0.427889
0.0284422
0.00631263
0.856662
0.931253
0.671622
0.529025
0.473366
0.428445
0.396829
0.384218
0.383755
0.396685
0.435406
0.499598
0.526668
0.414985
0.377705
0.297705
0.183207
0.395262
0.00857187
0.00108444
0.322435
1.74468
2.35064
2.29086
1.74181
1.31763
1.00964
0.787692
0.603545
0.45501
0.371229
0.298171
0.24384
0.211477
0.241543
0.222888
0.14161
0.374745
0.00618618
2.918e-05
0.000163788
0.0213216
0.0631951
0.162904
0.305241
0.34145
0.290421
0.253578
0.234269
0.20623
0.247457
0.266979
0.311619
0.243645
0.420525
0.541906
0.11744
0.34225
0.00394311
5.02807e-05
2.00998e-08
1.69188e-09
9.23026e-08
2.47614e-06
1.31094e-05
3.38582e-05
4.65123e-05
6.40243e-05
9.66118e-05
0.000147413
0.000263292
0.000507649
0.00151702
0.00275762
0.0180537
0.0251615
0.0319952
0.307778
0.000291374
7.13223e-12
3.04486e-12
3.44408e-12
4.54533e-12
4.2227e-12
5.29425e-12
7.06997e-12
9.5144e-12
1.2775e-11
1.64096e-11
2.27702e-11
3.91549e-11
1.11757e-10
7.53979e-10
1.10386e-08
0.00399495
0.00552451
0.0481627
0.278771
3.80708e-06
2.22851e-10
2.07142e-10
2.01924e-10
1.93411e-10
1.87085e-10
1.80828e-10
1.74313e-10
1.67869e-10
1.6107e-10
1.54417e-10
1.47608e-10
1.39761e-10
1.31268e-10
1.23555e-10
3.74642e-09
2.43777e-05
0.0058001
0.129521
0.261782
5.05591e-08
4.64483e-08
4.6253e-08
4.63178e-08
4.62467e-08
4.62815e-08
4.63607e-08
4.63462e-08
4.63501e-08
4.63028e-08
4.63327e-08
4.63977e-08
4.63242e-08
4.63202e-08
4.63195e-08
4.64423e-08
5.15687e-08
5.43828e-07
0.374775
0.59122
2.04272
1.05261
0.888494
1.23594
2.4621
3.32745
4.52961
5.44915
5.54366
4.80801
4.05926
3.34753
2.79717
2.41005
2.02174
1.6643
1.17711
0.693169
0.308959
0.583533
1.96778
0.967519
0.705532
1.07376
2.80015
5.03387
5.79403
5.32953
4.79755
3.99826
3.24588
2.66342
2.24033
1.9302
1.69144
1.43735
1.11689
0.720224
0.287601
0.585095
1.9982
0.881331
0.642957
1.18859
3.32512
5.72894
6.13386
5.03766
3.89709
3.04022
2.42626
2.02472
1.75522
1.5576
1.39368
1.1888
0.935206
0.637683
0.282986
0.564755
1.98113
0.742515
0.58763
1.20179
3.35359
5.37581
5.44276
3.83374
2.99363
2.37158
1.93932
1.67766
1.50159
1.36333
1.22473
1.01942
0.788161
0.556926
0.25822
0.532694
2.01004
0.626817
0.479468
1.25625
3.9418
5.11028
4.577
3.53427
2.47316
1.95749
1.60052
1.37871
1.26222
1.17444
1.05192
0.843507
0.645306
0.475287
0.240112
0.486038
1.95141
0.493915
0.353206
0.904181
2.95027
4.43634
3.75432
2.97644
2.27394
1.72705
1.41659
1.24
1.14317
1.1016
0.960727
0.727035
0.53624
0.389407
0.219541
0.442698
1.63616
0.345757
0.244908
0.888693
3.00558
3.64176
3.11956
2.54254
1.9897
1.56773
1.25559
1.13346
1.0627
1.04622
0.893077
0.645902
0.467667
0.347896
0.201395
0.420269
1.02705
0.153657
0.136555
0.602114
2.11111
2.94325
2.53371
2.14082
1.74564
1.38045
1.14101
1.06675
0.984698
0.997376
0.863242
0.633878
0.469696
0.35005
0.184429
0.422566
0.606078
0.143323
0.109542
0.517629
1.77224
2.25341
1.96382
1.65212
1.47148
1.10002
0.924595
0.889651
0.88864
0.937947
0.859413
0.682123
0.537696
0.415993
0.19329
0.437636
0.336198
0.0797255
0.0791989
0.432852
1.36561
1.64736
1.52025
1.33625
1.13704
0.930131
0.84702
0.777226
0.79016
0.876604
0.86558
0.754794
0.624726
0.521083
0.224935
0.454585
0.214425
0.0666576
0.0733634
0.501159
1.14829
1.22242
1.05834
1.00402
0.893896
0.72565
0.677461
0.672968
0.694168
0.805127
0.853566
0.79683
0.677292
0.620276
0.280904
0.462351
0.138813
0.0535123
0.104033
0.875835
0.852009
0.802376
0.867345
0.772075
0.656338
0.546107
0.517079
0.528102
0.56547
0.627463
0.677322
0.719984
0.653307
0.554882
0.206239
0.453216
0.0821761
0.0216666
0.237954
0.765469
0.67063
0.614965
0.551732
0.489602
0.425247
0.402402
0.419757
0.432521
0.462805
0.519991
0.550348
0.603864
0.606357
0.419941
0.128801
0.427889
0.0284422
0.00631263
0.856662
0.931253
0.671622
0.529025
0.473366
0.428445
0.396829
0.384218
0.383755
0.396685
0.435406
0.499598
0.526668
0.414985
0.377705
0.297705
0.183207
0.395262
0.00857187
0.00108444
0.322435
1.74468
2.35064
2.29086
1.74181
1.31763
1.00964
0.787692
0.603545
0.45501
0.371229
0.298171
0.24384
0.211477
0.241543
0.222888
0.14161
0.374745
0.00618618
2.918e-05
0.000163788
0.0213216
0.0631951
0.162904
0.305241
0.34145
0.290421
0.253578
0.234269
0.20623
0.247457
0.266979
0.311619
0.243645
0.420525
0.541906
0.11744
0.34225
0.00394311
5.02807e-05
2.00998e-08
1.69188e-09
9.23026e-08
2.47614e-06
1.31094e-05
3.38582e-05
4.65123e-05
6.40243e-05
9.66118e-05
0.000147413
0.000263292
0.000507649
0.00151702
0.00275762
0.0180537
0.0251615
0.0319952
0.307778
0.000291374
7.13223e-12
3.04486e-12
3.44408e-12
4.54533e-12
4.2227e-12
5.29425e-12
7.06997e-12
9.5144e-12
1.2775e-11
1.64096e-11
2.27702e-11
3.91549e-11
1.11757e-10
7.53979e-10
1.10386e-08
0.00399495
0.00552451
0.0481627
0.278771
3.80708e-06
2.22851e-10
2.07142e-10
2.01924e-10
1.93411e-10
1.87085e-10
1.80828e-10
1.74313e-10
1.67869e-10
1.6107e-10
1.54417e-10
1.47608e-10
1.39761e-10
1.31268e-10
1.23555e-10
3.74642e-09
2.43777e-05
0.0058001
0.129521
0.261782
5.05591e-08
4.64483e-08
4.6253e-08
4.63178e-08
4.62467e-08
4.62815e-08