/*--------------------------------*- C++ -*----------------------------------*\
| =========                 |                                                 |
| \\      /  F ield         | OpenFOAM: The Open Source CFD Toolbox           |
|  \\    /   O peration     | Version:  4.1                                   |
|   \\  /    A nd           | Web:      www.OpenFOAM.org                      |
|    \\/     M anipulation  |                                                 |
\*---------------------------------------------------------------------------*/
FoamFile
{
    version     2.0;
    format      ascii;
    class       volScalarField;
    location    "5";
    object      p;
}
// * * * * * * * * * * * * * * * * * * * * * * * * * * * * * * * * * * * * * //

dimensions      [0 2 -2 0 0 0 0];

internalField   nonuniform List<scalar> 
1280
(
0.226691
-0.0746421
0.166634
0.482468
0.55767
0.73661
0.744209
0.944875
0.905125
0.884981
0.968345
0.769631
0.579019
0.403467
0.0212648
-1.96782
-3.07888
-5.27964
-9.56919
-18.4928
-12.6124
-1.91147
8.61254
12.239
13.8639
16.9051
-20.0947
-0.243715
-0.073308
0.598278
1.17659
1.75658
2.41859
3.02446
3.70533
4.14503
4.87633
4.55804
5.28965
2.40719
-33.597
-14.9317
-7.38459
-3.06253
6.4962
7.54869
7.35518
7.82091
7.61175
7.9739
7.92637
7.68958
7.8495
7.38064
7.59085
6.6198
-3.06643
-7.4627
-15.0957
-33.5702
2.08117
4.92933
4.19079
4.52106
3.85126
3.45443
2.80794
2.22423
1.5732
0.992126
0.408441
-0.260351
-0.428015
-20.319
16.7638
13.7022
12.0397
8.3712
-2.17528
-12.8716
-18.7346
-9.76872
-5.32899
-3.07577
-1.98397
0.0280426
0.392321
0.550231
0.738663
0.934583
0.844084
0.847984
0.90367
0.696704
0.694686
0.525371
0.464101
0.149003
-0.0858356
0.22293
-0.0181881
0.590183
0.287125
0.0324697
-0.493227
-0.801496
-0.586342
-2.8802
-1.83715
0.0815678
1.86278
2.74624
1.9699
0.0146379
-0.59219
-0.1768
0.236549
0.187079
0.160845
-0.485398
0.141955
-0.156357
-0.0895955
-0.390764
-1.08671
-1.32163
-4.27714
-1.31044
2.58155
5.98311
7.37726
5.22906
0.884957
-0.634324
0.101921
0.777917
0.647932
0.511239
-0.224056
0.608422
0.340899
0.236473
-0.910099
-3.51272
-4.04196
-6.18121
-1.50762
3.74278
8.03682
9.75907
6.66914
0.78067
-1.29083
0.0612896
1.24828
0.834876
0.711304
-0.198079
0.509405
0.398891
0.368292
-1.03875
-4.68663
-6.66471
-8.52338
-2.27186
4.96463
10.5379
12.6745
7.81483
0.263135
-2.74129
-0.33227
1.82534
1.28067
0.943803
0.0274
0.874107
0.8841
0.833601
-0.891838
-5.49219
-9.63378
-10.5996
-2.96773
6.42543
13.2814
15.3635
7.90458
-1.9796
-5.5474
-0.450636
3.18104
1.79528
1.33122
0.0609829
1.16546
1.23682
1.25349
-0.486675
-5.40255
-11.4763
-11.8547
-3.39771
7.94051
15.6955
16.7766
7.04362
-5.75677
-11.1929
-1.57951
5.1838
3.70161
1.19544
0.0861948
1.61559
1.66629
1.73452
0.0532565
-4.84995
-12.0299
-12.0679
-3.50976
9.40638
17.8038
16.743
6.85713
-8.43094
-12.6808
-1.48268
7.39692
4.40996
-1.68685
0.00166501
1.99561
1.96881
2.10127
0.599401
-3.87065
-10.9989
-10.7266
-2.62515
10.7825
18.8968
16.269
8.19281
-8.36683
-13.6167
-2.8261
9.77388
11.6328
4.81679
-0.0917791
2.30559
2.17815
2.38443
1.09545
-2.87701
-9.61418
-9.54712
-1.95575
11.4765
18.391
15.6283
9.05905
-3.99195
-9.42909
-0.787369
9.05402
19.2033
24.0248
-0.170246
2.49385
2.31385
2.57255
1.46163
-1.95731
-7.87094
-7.986
-0.504372
12.1143
17.3981
14.6017
8.79877
-2.43362
-6.83757
1.79861
14.6376
33.2904
18.7775
-0.174062
2.48844
2.32362
2.60315
1.52005
-1.78375
-7.52464
-7.76557
-0.45295
11.945
17.2907
14.6243
8.81611
-2.32417
-6.49218
2.13628
14.5951
33.2738
18.8918
-0.0803306
2.31779
2.26544
2.53129
1.32439
-2.34908
-8.79608
-9.15857
-1.92527
11.3243
17.9447
15.2301
8.67035
-3.99431
-8.63353
0.866108
9.44796
19.3318
23.9399
0.0335586
1.98593
2.06624
2.31939
0.975385
-3.17224
-10.29
-10.2662
-3.03383
10.3412
18.2
15.8614
7.34825
-8.16284
-12.2482
-0.46671
10.2061
10.9604
4.16816
0.111463
1.5866
1.76297
1.99641
0.54815
-4.08122
-11.8476
-11.7421
-4.3304
8.94343
17.0341
16.3818
6.34071
-7.4329
-10.7959
0.6847
7.61551
3.7243
-2.09904
0.0617844
1.11209
1.28926
1.48111
0.0196645
-4.7182
-12.2693
-12.0974
-4.61505
7.39611
15.0349
16.1457
6.98119
-4.40842
-8.29175
0.327434
5.46618
3.48539
1.00371
0.00370547
0.8146
0.894404
0.99884
-0.440442
-4.90748
-11.2147
-11.1978
-4.27223
5.85754
12.5208
14.5056
7.94449
-1.05105
-3.66584
0.668389
3.47533
1.81541
1.26038
-0.241739
0.456161
0.371572
0.45286
-0.704693
-4.23171
-8.35813
-9.12566
-3.50156
4.41814
9.81747
11.8291
7.49321
0.359665
-2.06783
0.318411
2.11921
1.39435
0.932199
-0.270911
0.585223
0.315776
0.276728
-0.672637
-3.15376
-5.16243
-6.71281
-2.46625
3.25563
7.36687
9.0253
6.19559
0.748259
-0.882752
0.505194
1.44641
0.923087
0.714341
-0.51554
0.135114
-0.181825
-0.0967421
-0.307178
-0.893565
-1.3478
-4.50672
-1.96587
2.17916
5.39031
6.73821
4.80538
0.81871
-0.468363
0.361276
0.920091
0.710581
0.513612
-0.0251922
0.598229
0.29597
0.0501866
-0.417874
-0.740955
-0.45935
-2.79627
-2.11126
-0.136651
1.50345
2.33255
1.63323
-0.104013
-0.558137
-0.0830396
0.287036
0.204034
0.153484
112.341
111.516
110.205
111.144
108.948
107.908
106.109
104.444
102.548
100.833
99.2117
97.7184
96.3567
95.1244
94.0177
93.0013
92.1393
91.2246
90.7445
89.8489
71.4953
72.4876
73.0119
75.4213
75.0166
75.8819
75.8705
76.3067
76.5586
76.8601
77.1363
77.4207
77.7059
78.0192
78.315
78.6558
78.956
79.2951
79.6257
80.1366
76.449
76.4635
77.0484
79.1128
78.6166
79.2598
79.1982
79.4532
79.5174
79.5934
79.6595
79.7547
79.8685
80.0336
80.1878
80.4168
80.5914
80.8626
81.0692
81.5466
60.5572
60.9573
61.958
64.0946
63.9507
64.8359
65.2158
65.9001
66.4442
66.9685
67.4888
68.0232
68.5565
69.126
69.6617
70.2714
70.7872
71.4265
71.8807
72.7662
55.9438
56.1312
57.117
58.7163
58.6173
59.1913
59.505
59.9174
60.3027
60.619
60.9786
61.3578
61.762
62.2198
62.6614
63.2008
63.6634
64.2645
64.6956
65.5343
48.5721
48.9583
49.8368
51.0383
51.0295
51.4069
51.7324
51.9582
52.2994
52.4905
52.7767
53.0537
53.3694
53.7384
54.0887
54.5589
54.9473
55.4905
55.8469
56.6659
45.6339
46.1877
46.757
47.5946
47.5714
47.7383
47.9798
47.9757
48.2
48.2038
48.3514
48.4503
48.5914
48.7789
48.9343
49.2294
49.4449
49.8126
50.0076
50.6313
42.8079
43.8564
44.2111
44.9923
45.1092
45.2733
45.5863
45.5688
45.8154
45.813
45.9518
46.0224
46.1161
46.2352
46.2968
46.4831
46.6079
46.8442
46.9523
47.3938
38.3004
40.1909
40.608
41.5504
42.1006
42.4454
43.0666
43.2711
43.7319
43.9576
44.2772
44.5289
44.7632
44.9852
45.1231
45.3221
45.4827
45.6997
45.8162
46.2242
27.8858
30.8811
31.793
33.0121
34.373
35.094
36.3519
37.0785
38.0567
38.8308
39.6368
40.3877
41.0835
41.728
42.2655
42.7798
43.2429
43.7189
44.0743
44.6961
7.09154
10.8212
12.5392
13.8427
16.2623
17.3931
19.5405
20.9754
22.7498
24.3298
25.9258
27.4795
28.9705
30.4056
31.7399
33.0229
34.22
35.4671
36.5293
38.0137
-25.9502
-23.7395
-21.8362
-21.6401
-19.0519
-18.5984
-16.319
-15.1294
-13.2274
-11.5806
-9.73554
-7.83111
-5.84366
-3.77086
-1.64813
0.620504
2.90078
5.63153
8.07472
11.683
-44.3535
-46.5507
-46.3618
-49.284
-49.1506
-51.8871
-52.3509
-54.4759
-55.4839
-56.8909
-57.5313
-57.6862
-57.186
-56.1889
-54.7654
-52.897
-50.9186
-48.3414
-46.1479
-41.5947
-8.3518
-12.7673
-13.6873
-18.5652
-20.0514
-24.7742
-27.3868
-32.0092
-35.7707
-40.3822
-44.4155
-48.2447
-51.4075
-53.9918
-55.7597
-56.8156
-57.2047
-56.5622
-56.5936
-55.5215
39.904
37.4558
38.4323
34.9297
36.3219
33.4725
33.9589
32.2158
31.7736
30.5139
29.531
28.2157
26.8085
25.1026
23.0409
20.414
17.482
15.3015
13.1696
8.80768
45.1464
44.9114
47.2929
44.7135
47.9225
46.4637
48.3871
48.2474
49.1624
49.4202
49.8102
49.9774
50.1128
50.1576
50.1174
49.9593
49.6626
49.1013
48.904
47.6943
39.3044
38.4241
41.9115
37.326
39.9295
37.4843
38.1213
37.3998
37.5999
37.6685
37.966
38.2206
38.4695
38.6615
38.7663
38.83
39.2155
40.7351
42.7118
45.1426
12.946
7.84254
16.3474
10.262
12.9103
10.3801
9.89689
8.25962
6.9364
5.40227
3.92103
2.44164
1.02491
-0.287129
-1.44093
-2.16847
-2.12226
-0.427642
1.61054
5.13612
25.9535
3.72075
11.6157
0.268758
-2.78436
-9.71606
-14.9673
-20.4981
-25.3046
-29.5792
-33.0974
-35.8133
-37.6321
-38.4744
-38.279
-37.0512
-34.7322
-31.9593
-29.4261
-26.1876
725.757
642.566
593.211
536.45
487.081
439.428
395.163
353.386
314.128
277.114
242.196
209.189
177.871
148.157
120.076
92.8127
66.992
47.5532
24.8029
-12.609
726.179
642.988
593.633
536.871
487.501
439.847
395.58
353.802
314.541
277.525
242.605
209.594
178.274
148.557
120.473
93.2088
67.3911
47.956
25.2038
-12.2174
26.383
4.14761
12.0418
0.693158
-2.36112
-9.29429
-14.5469
-20.0792
-24.8872
-29.1633
-32.6825
-35.3991
-37.218
-38.0597
-37.8631
-36.6331
-34.3094
-31.5322
-29.0028
-25.7766
13.3001
8.19753
16.7036
10.6192
13.2677
10.7383
10.2554
8.61838
7.295
5.76016
4.27711
2.79438
1.3731
0.0565336
-1.10149
-1.8301
-1.78353
-0.0819293
1.95783
5.48504
39.7583
38.8754
42.3647
37.7765
40.3819
37.9353
38.5721
37.8473
38.0399
38.097
38.3807
38.6216
38.8585
39.0412
39.1407
39.2143
39.6288
41.1871
43.1775
45.6039
45.4191
45.2001
47.5778
45.0044
48.2125
46.757
48.688
48.5783
49.5197
49.8116
50.2298
50.4275
50.5971
50.68
50.6809
50.5682
50.3256
49.81
49.6414
48.4692
40.8604
38.4483
39.4429
35.965
37.4233
34.5827
35.0979
33.387
32.9705
31.7483
30.8011
29.5184
28.1373
26.4537
24.4014
21.7737
18.8432
16.6853
14.5853
10.2063
-7.36978
-11.7999
-12.729
-17.6113
-19.1136
-23.8415
-26.455
-31.0746
-34.8338
-39.4305
-43.4431
-47.2551
-50.407
-52.9836
-54.7478
-55.8087
-56.208
-55.6259
-55.7046
-54.6634
-43.8779
-46.1243
-45.9621
-48.9011
-48.8168
-51.5758
-52.0783
-54.2329
-55.2765
-56.7128
-57.3793
-57.5658
-57.105
-56.1563
-54.7877
-52.9806
-51.0556
-48.5195
-46.3548
-41.8662
-26.0943
-23.9287
-22.0464
-21.8789
-19.3283
-18.9011
-16.6612
-15.5032
-13.6369
-12.0299
-10.2271
-8.36777
-6.42349
-4.39183
-2.30721
-0.0631807
2.21879
5.00591
7.46432
11.0532
6.82915
10.5461
12.2627
13.5566
15.9709
17.1017
19.2485
20.6878
22.4606
24.0368
25.6245
27.1681
28.657
30.0919
31.4316
32.7298
33.9779
35.3369
36.3863
37.8408
27.6107
30.6019
31.5155
32.7299
34.0909
34.8157
36.0747
36.8018
37.7739
38.5418
39.3372
40.0728
40.7613
41.3925
41.9306
42.4465
42.9775
43.5663
43.8481
44.408
37.9356
39.8189
40.2336
41.17
41.7169
42.0583
42.6732
42.8722
43.3225
43.5369
43.8401
44.0692
44.2922
44.4934
44.6334
44.8275
45.0654
45.3749
45.3989
45.734
42.3425
43.3792
43.7313
44.5039
44.6155
44.7716
45.0741
45.0498
45.2846
45.2671
45.3894
45.44
45.5271
45.6326
45.7012
45.8875
46.0794
46.391
46.4195
46.7859
45.0382
45.5776
46.146
46.9782
46.9488
47.1065
47.3393
47.3302
47.5461
47.5351
47.6692
47.7565
47.8973
48.0821
48.2449
48.548
48.8014
49.2302
49.3782
49.9427
47.8791
48.2562
49.1406
50.3393
50.3287
50.6992
51.0178
51.2403
51.5804
51.7606
52.0346
52.3021
52.6167
52.9878
53.3435
53.8257
54.2351
54.8341
55.1754
55.9572
55.2727
55.4524
56.4485
58.046
57.9477
58.5159
58.817
59.217
59.59
59.8917
60.2354
60.6027
61.0025
61.4625
61.9073
62.4599
62.9355
63.5857
64.0242
64.8405
59.807
60.2022
61.2133
63.3415
63.1983
64.0721
64.4297
65.1005
65.6391
66.1612
66.6732
67.1983
67.726
68.297
68.8356
69.4615
69.9885
70.675
71.1506
72.0238
75.7305
75.7382
76.3307
78.3796
77.8829
78.521
78.4468
78.683
78.736
78.8111
78.8742
78.964
79.0718
79.236
79.3895
79.6315
79.8112
80.1244
80.3514
80.831
70.6246
71.6279
72.1578
74.5597
74.1606
75.0313
75.0286
75.4825
75.7501
76.0659
76.3504
76.6361
76.9147
77.224
77.5145
77.8664
78.1701
78.5589
78.9149
79.4594
111.982
111.172
109.867
110.798
108.614
107.575
105.783
104.131
102.254
100.569
98.9631
97.4805
96.124
94.895
93.7916
92.7842
91.9291
91.0532
90.5912
89.7265
)
;

boundaryField
{
    outletWall
    {
        type            fixedValue;
        value           uniform 0;
    }
    fineWalls
    {
        type            zeroGradient;
    }
    fineFrontAndBack
    {
        type            zeroGradient;
    }
    fineplugLeft
    {
        type            cyclicAMI;
        value           nonuniform List<scalar> 
20
(
72.3605
73.6535
73.8913
74.6867
75.2301
75.9552
76.7044
77.5691
78.526
79.6047
80.7862
82.0239
83.5063
91.7584
89.707
89.9311
91.363
89.8865
88.8301
87.3501
)
;
    }
    fineplugRight
    {
        type            cyclicAMI;
        value           nonuniform List<scalar> 
20
(
72.1974
73.4588
73.6807
74.4475
74.9976
75.7242
76.4776
77.344
78.2991
79.3689
80.5366
81.7514
83.2195
91.4446
89.4129
89.6313
91.0466
89.5677
88.5023
87.0112
)
;
    }
    inletOutletLeft
    {
        type            cyclicAMI;
        value           nonuniform List<scalar> 
20
(
72.3605
73.6535
73.8913
74.6867
75.2301
75.9552
76.7044
77.5691
78.526
79.6047
80.7862
82.0239
83.5063
91.7584
89.707
89.9311
91.363
89.8865
88.8301
87.3501
)
;
    }
    inletLeft
    {
        type            zeroGradient;
    }
    inletWallsLeft
    {
        type            zeroGradient;
    }
    inletFacesLeft
    {
        type            zeroGradient;
    }
    inletOutletRight
    {
        type            cyclicAMI;
        value           nonuniform List<scalar> 
20
(
72.1974
73.4588
73.6807
74.4475
74.9976
75.7242
76.4776
77.344
78.2991
79.3689
80.5366
81.7514
83.2195
91.4446
89.4129
89.6313
91.0466
89.5677
88.5023
87.0112
)
;
    }
    inletRight
    {
        type            zeroGradient;
    }
    inletWallsRight
    {
        type            zeroGradient;
    }
    inletFacesRight
    {
        type            zeroGradient;
    }
}


// ************************************************************************* //
