/*--------------------------------*- C++ -*----------------------------------*\
| =========                 |                                                 |
| \\      /  F ield         | OpenFOAM: The Open Source CFD Toolbox           |
|  \\    /   O peration     | Version:  4.1                                   |
|   \\  /    A nd           | Web:      www.OpenFOAM.org                      |
|    \\/     M anipulation  |                                                 |
\*---------------------------------------------------------------------------*/
FoamFile
{
    version     2.0;
    format      ascii;
    class       surfaceScalarField;
    location    "5";
    object      phi;
}
// * * * * * * * * * * * * * * * * * * * * * * * * * * * * * * * * * * * * * //

dimensions      [0 3 -1 0 0 0 0];

internalField   nonuniform List<scalar> 
2360
(
-3954.52
-2872.85
-1081.67
-2872.85
-2872.85
-1797.3
-1075.55
-1797.3
-1797.3
-1797.3
-698.802
-1098.5
-698.801
-698.803
1115.59
-1814.39
1115.59
1115.59
4206.73
-3091.14
4206.73
4206.73
9446.41
-5239.68
9446.4
9446.4
10213.6
11605.4
12994.6
14341.4
15584.6
16719.3
13036.5
4730.61
14019.5
14955.6
15865.8
16762.4
17650.9
18533.2
19410
20280.4
21141.5
21987.2
22805.3
23582.9
24215.8
10306.5
13909.3
10306.5
10306.5
10306.5
-658.68
10965.2
-658.68
-658.679
-658.679
10.4579
-669.136
10.4584
10.4593
631.887
-621.427
631.887
631.888
631.888
-10359.1
10991
-10359.1
-10359.1
-10359.1
-24207.1
13848
-23578
-22804.9
-21993.3
-21154.6
-20299.4
-19433
-18558.4
-17676.9
-16788.1
-15890.4
-14978.8
-14040.6
-13054.1
-16745.5
4743.88
-15605.8
-14357.6
-13006.3
-11613.7
-10220
-9451
-9451
-9451
-4142.22
-5308.77
-4142.22
-4142.22
-1015.37
-3126.85
-1015.37
-1015.37
780.853
-1796.22
780.853
780.853
1873.89
-1093.04
1873.89
1873.89
1873.89
2915.25
-1041.36
2915.25
2915.25
4001.06
-1085.81
-6187.94
-2988.66
-7030.01
-4106.1
-7278.77
-5089.3
-7102.64
-6780.66
-6478.95
-7848.39
-5459.53
-5989.53
-4519.87
1591.97
-4086.22
7922.65
-3633.34
10815.2
-3115.01
11741.9
-2523.78
10956.9
-1803.47
8395.44
-953.847
4957.18
-214.445
3661.41
246.862
3574.89
594.973
4338.74
861.015
3137.75
1013.08
2234.33
-73.1363
-6892.13
-2581.64
-7038.19
-3960.04
-6583.27
-5544.22
-6019.45
-7344.48
-5442.3
-8425.54
-4749.02
-6682.81
-4090.48
933.429
-4016.02
7848.2
-3797.73
10596.9
-3307.39
11251.6
-2583.41
10232.9
-1538.3
7350.33
-303.075
3721.96
339.55
3018.78
411.024
3503.42
545.366
4204.4
820.237
2862.88
840.644
2213.92
-273.852
-6657.02
-2527.77
-6358.13
-4258.93
-5908.55
-5993.8
-5663.47
-7589.55
-5531.17
-8557.84
-5152.99
-7060.99
-4288.37
68.8127
-4031.43
7591.25
-4001.29
10566.7
-3631.97
10882.3
-2774.16
9375.09
-1245.29
5821.46
606.625
1870.04
1348.54
2276.87
1011.37
3840.58
751.373
4464.39
923.027
2691.23
938.722
2198.23
-428.168
-6290.38
-2636.98
-5975.73
-4573.58
-5911.77
-6057.77
-6191.12
-7310.2
-6536.9
-8212.07
-6404.74
-7193.15
-5249.86
-1086.07
-4438.34
6779.73
-4305.44
10433.8
-4075.68
10652.5
-3091.81
8391.23
-795.366
3525.01
1797.64
-722.961
2704.1
1370.41
2075.99
4468.7
1366.6
5173.78
1278.77
2779.05
1418.95
2058.05
-805.437
-5978.52
-2731.24
-5927.88
-4624.22
-6359.68
-5625.96
-7117.46
-6552.42
-7854.41
-7475.11
-8012.62
-7034.95
-6907.18
-2191.51
-5572.22
5444.77
-4972.03
9833.65
-4663.08
10343.6
-3416.91
7145.05
-191.067
299.174
2827.53
-3741.56
3898.47
299.477
3376.42
4990.75
2464.8
6085.4
2140.29
3103.57
2558.32
1640.02
-1373.98
-5910.65
-2627.79
-6293.66
-4241.21
-7173.95
-4745.68
-8275.21
-5451.16
-9279.83
-6470.49
-9716.33
-6598.45
-8911.04
-2996.8
-7389.93
3923.66
-6248.7
8692.42
-5444.23
9539.08
-3592.38
5293.2
-853.378
-2439.83
813.492
-5408.43
2384.25
-1271.28
3118.08
4256.92
2852.95
6350.53
2651.69
3304.82
3995.67
296.038
-2687.08
-6160.77
-2273.94
-6940.02
-3461.97
-8086.86
-3598.84
-9343.19
-4194.82
-10530.7
-5283.02
-11327.7
-5801.39
-11042.6
-3281.94
-9677.25
2558.32
-8127.4
7142.57
-6580.82
7992.5
-4828.4
3540.78
-4378.06
-2890.17
-4473.56
-5312.93
-2005.34
-3739.5
564.17
1687.4
1850.1
5064.61
2929.94
2224.98
3651.44
-425.468
5708.25
-6634.41
-1678.19
-7682.67
-2413.71
-8889.76
-2391.75
-10167.1
-2917.45
-11551.3
-3898.86
-12849.3
-4503.41
-13216.9
-2914.26
-12060.3
1401.64
-10065.9
5148.21
-8040.85
5967.45
-7417.91
2917.84
-8946.86
-1361.22
-10140.3
-4119.45
-8901.84
-4978
-5270.2
-1944.24
-2181.22
1975.63
-2669.65
2713.41
-7228.8
4133.68
12327.4
-7223.15
-918.768
-8352.22
-1284.64
-9460.3
-1283.68
-10736
-1641.72
-12393.1
-2241.82
-14269
-2627.45
-15362.9
-1820.42
-14598.6
637.35
-12542.3
3091.93
-10667.9
4093.08
-10543.3
2793.21
-11904.1
-0.421134
-13583.2
-2440.35
-15203.1
-3358.16
-15259.3
-1887.94
-13895
611.286
-13477.5
2295.91
-13715.6
4371.76
9602.88
-7689.8
-90.933
-8774.21
-200.233
-9781.49
-276.397
-11138.8
-284.429
-13108
-272.641
-15499.5
-235.859
-17315.6
-4.40946
-17167.2
488.966
-14967.6
892.389
-11843.6
969.039
-9585.04
534.659
-9596.65
11.1892
-11869.9
-167.073
-14920.7
-307.381
-16366.5
-442.114
-15440.9
-314.352
-13162.5
17.5275
-8910.25
119.502
71.1935
-7620.53
771.328
-8755.38
934.62
-9770.78
738.996
-11090.5
1035.34
-13018.8
1655.64
-15440
2185.31
-17416.5
1972.06
-17473.4
545.956
-15311
-1270.03
-12027.1
-2314.88
-9665.25
-1827.2
-9752.48
98.4137
-12079.5
2159.94
-15043.2
2656.35
-16380.6
895.253
-15387.8
-1307.16
-13078.3
-2292
-8810.2
-4148.55
-9408.14
-7037.18
1590.3
-8307.83
2205.27
-9533.34
1964.51
-10827.8
2329.78
-12461
3288.9
-14438.8
4163.11
-15879.1
3412.29
-15414.2
81.107
-13348
-3336.23
-11290.6
-4372.3
-10959.7
-2158.06
-12164.5
1303.16
-13733.6
3729.07
-15089.8
4012.54
-14924.1
729.592
-13725.8
-2505.53
-13599.2
-2418.54
-13794.2
-3953.62
-12237.1
-6358.38
2205.63
-7526.6
3373.5
-8919.89
3357.79
-10338.1
3748.04
-11803
4753.75
-13237.6
5597.7
-13891.6
4066.31
-12837.3
-973.198
-10641.1
-5532.39
-8270.05
-6743.39
-7320.75
-3107.36
-8578.88
2561.29
-9499.54
4649.73
-7829.06
2342.05
-4367.75
-2731.71
-1895.85
-4977.43
-2837.56
-1476.83
-7452.78
661.592
-5780.61
-5874.19
2531.78
-6689.9
4189.21
-7991.92
4659.81
-9446.28
5202.4
-10817.6
6125.05
-11813.9
6594.01
-11810.4
4062.81
-10486.1
-2297.46
-8717.7
-7300.82
-6807.73
-8653.36
-4658.03
-5257.06
-3693.38
1596.63
-3385
4341.36
-972.048
-70.9031
1150.51
-4854.27
1978.34
-5805.26
2997.4
-2495.88
3648.58
10.4095
2598.58
-5678.27
2588.87
-6025.03
4535.97
-6971.13
5605.91
-8235.04
6466.32
-9454.35
7344.36
-10134.8
7274.45
-9623.21
3551.22
-8056.37
-3864.3
-6637
-8720.2
-5558.55
-9731.81
-3656.07
-7159.54
-617.806
-1441.63
1669.03
2054.53
2969.85
-1371.73
3101.11
-4985.53
2701.87
-5406.02
2580.82
-2374.83
3944.08
-1352.85
1302.98
-5831.41
2458.84
-5715.05
4419.62
-6126.61
6017.46
-6960.94
7300.64
-7870.4
8253.82
-8288.34
7692.4
-7498.45
2761.33
-6027.45
-5335.3
-5130.63
-9617.01
-4644.89
-10217.6
-3455.86
-8348.57
-532.618
-4364.87
2382.43
-860.515
3327.35
-2316.65
2791.07
-4449.25
2143.96
-4758.91
2079.45
-2310.31
2550.37
-1823.77
762.205
-6211.65
2344.86
-5849.8
4057.77
-5722.01
5889.67
-5996.66
7575.29
-6441.19
8698.35
-6549.36
7800.56
-5651.41
1863.38
-4636.69
-6350.01
-4310.59
-9943.11
-4035.55
-10492.6
-3105.81
-9278.31
-1128.07
-6342.61
1136.47
-3125.06
2005.13
-3185.32
1583.34
-4027.46
1209.74
-4385.32
1308.84
-2409.41
1480.55
-1995.49
428.365
-6608.5
2427.32
-6308.59
3757.86
-5799.68
5380.75
-5502.72
7278.34
-5390.83
8586.46
-5180.82
7590.55
-4455.45
1138.01
-4051.77
-6753.69
-3974.99
-10019.9
-3611.02
-10856.6
-2781.74
-10107.6
-1403.95
-7720.4
195.267
-4724.27
901.29
-3891.34
750.985
-3877.16
700.191
-4334.52
947.888
-2657.11
1000.5
-2048.1
330.37
-6825.94
2880.6
-7016.05
3947.98
-6533.38
4898.08
-5901.88
6646.84
-5301.18
7985.75
-4718.79
7008.17
-4103.56
522.779
-3986.81
-6870.44
-3790.24
-10216.5
-3298.82
-11348
-2582.03
-10824.4
-1609.33
-8693.11
-513.659
-5819.94
117.353
-4522.35
290.754
-4050.56
515.757
-4559.52
814.158
-2955.51
878.781
-2112.73
133.601
-6083.41
-6976.16
-7243.6
-7057.63
-6464.55
-5541.96
-4585.22
-4097.08
-3641.07
-3111.1
-2515.02
-1818.25
-1025.23
-313.754
176.813
556.916
840.17
1013.57
113.216
-880.44
319.097
-1597.62
480.28
-1550.39
621.661
-1488.25
729.795
-1351.34
810.552
-1215.45
848.685
-1085.87
860.028
-994.337
856.17
-932.267
838.742
-892.752
809.484
-867.413
770.59
-849.559
723.547
-835.226
668.239
-821.585
604.114
-806.239
529.286
-786.245
441.459
-757.931
334.454
-711.022
202.622
-645.836
-430.248
66.3078
-946.748
116.175
-1647.48
175.273
-1609.49
242.442
-1555.42
305.413
-1414.31
364.465
-1274.51
425.437
-1146.84
477.467
-1046.37
514.413
-969.212
533.034
-911.374
534.376
-868.756
521.859
-837.042
498.171
-811.538
463.933
-787.348
419.255
-761.561
362.646
-729.636
293.948
-689.232
210.261
-627.333
115.428
-551.001
-314.821
27.0852
-973.834
102.515
-1722.91
197.065
-1704.04
261.668
-1620.02
312.903
-1465.55
364.759
-1326.36
420.462
-1202.55
474.045
-1099.95
518.09
-1013.26
546.815
-940.1
558.496
-880.436
554.01
-832.557
534.848
-792.377
501.962
-754.462
456.052
-715.651
396.823
-670.407
324.441
-616.85
237.603
-540.495
135.597
-448.995
-179.224
24.1374
-997.972
103.163
-1801.94
182.9
-1783.78
219.421
-1656.54
245.497
-1491.62
277.925
-1358.79
321.769
-1246.39
369.54
-1147.72
414.294
-1058.01
449.043
-974.849
469.963
-901.357
475.209
-837.803
464.625
-781.794
438.622
-728.46
398.279
-675.309
344.451
-616.579
278.226
-550.625
199.232
-461.501
104.462
-354.226
-74.7612
21.402
-1019.37
93.8256
-1874.36
151.968
-1841.92
164.31
-1668.88
178.404
-1505.72
204.037
-1384.42
241.483
-1283.84
281.812
-1188.05
321.626
-1097.83
356.24
-1009.46
382.605
-927.722
396.794
-851.993
396.87
-781.87
381.938
-713.528
353.059
-646.43
311.304
-574.825
257.141
-496.463
188.732
-393.092
98.0317
-263.527
23.2705
27.2753
-1046.65
84.4909
-1931.58
117.039
-1874.47
114.959
-1666.8
123.877
-1514.64
142.04
-1402.59
167.341
-1309.14
192.358
-1213.07
217.456
-1122.92
240.218
-1032.23
259.563
-947.067
271.85
-864.281
275.26
-785.28
268.229
-706.497
251.778
-629.979
225.973
-549.02
189.591
-460.082
137.414
-340.915
64.7321
-190.845
88.0026
33.6775
-1080.33
73.5298
-1971.43
85.44
-1886.38
79.4314
-1660.8
85.5276
-1520.73
95.8422
-1412.9
108.536
-1321.83
119.028
-1223.56
128.822
-1132.72
137.055
-1040.46
143.892
-953.905
147.809
-868.198
148.39
-785.861
144.771
-702.879
137.602
-622.811
125.91
-537.328
106.654
-440.826
73.1996
-307.461
32.1611
-149.807
120.164
40.5068
-1120.84
68.1797
-1999.11
72.4723
-1890.68
70.4301
-1658.75
74.7494
-1525.05
78.2819
-1416.43
81.0593
-1324.61
82.0436
-1224.55
81.6314
-1132.31
80.4066
-1039.23
78.2674
-951.766
75.6483
-865.579
72.437
-782.65
68.5312
-698.973
63.1096
-617.389
55.4664
-529.684
42.8529
-428.213
22.9985
-287.607
10.0532
-136.862
130.217
60.3472
-1181.18
87.7608
-2026.52
96.7758
-1899.69
103.554
-1665.53
112.933
-1534.43
119.115
-1422.62
122.932
-1328.43
125.485
-1227.1
125.826
-1132.65
125.332
-1038.74
123.029
-949.464
119.571
-862.121
113.743
-776.822
105.192
-690.423
91.6038
-603.802
73.0972
-511.178
49.6308
-404.747
25.4094
-263.386
6.98156
-118.435
137.198
116.805
-1297.99
156.764
-2066.48
173.505
-1916.43
193.125
-1685.15
218.719
-1560.03
240.648
-1444.54
260.157
-1347.94
277.946
-1244.89
292.975
-1147.68
305.245
-1051.01
312.52
-956.739
313.312
-862.912
304.939
-768.45
286.004
-671.487
254.144
-571.941
209.543
-466.578
154.839
-350.043
96.6798
-205.227
33.9144
-55.67
171.113
211.044
-1509.03
258.741
-2114.18
277.626
-1935.32
313.636
-1721.16
365.67
-1612.06
415.511
-1494.39
467.204
-1399.63
518.407
-1296.09
568.508
-1197.78
612.532
-1095.03
644.916
-989.123
660.092
-878.089
653.905
-762.263
624.193
-641.776
569.564
-517.312
489.496
-386.51
386.962
-247.509
265.185
-83.4506
124.288
85.2268
295.401
282.195
-1791.23
296.098
-2128.08
310.027
-1949.25
358.613
-1769.75
431.857
-1685.3
506.656
-1569.18
593.602
-1486.58
685.438
-1387.93
780.493
-1292.83
863.41
-1177.95
922.65
-1048.36
949.838
-905.277
943.113
-755.537
901.83
-600.492
825.477
-440.958
711.901
-272.934
560.539
-96.1467
378.554
98.5351
198.57
265.211
493.97
220.097
-2011.32
147.111
-2055.09
137.255
-1939.39
159.197
-1791.69
201.614
-1727.72
251.598
-1619.17
320.336
-1555.31
398.03
-1465.62
476.437
-1371.24
530.785
-1232.3
549.454
-1067.03
532.911
-888.733
489.494
-712.12
421.701
-532.698
331.397
-350.654
227.81
-169.347
135.437
-3.77336
49.0925
184.879
-42.2485
356.552
451.722
21.8858
-2033.21
-114.556
-1918.65
-188.276
-1865.67
-258.401
-1721.56
-321.261
-1664.86
-379.626
-1560.8
-430.475
-1504.46
-476.61
-1419.49
-527.352
-1320.5
-592.358
-1167.29
-670.05
-989.339
-747.794
-810.988
-818.797
-641.117
-885.903
-465.591
-949.102
-287.454
-1000.77
-117.678
-1016.25
11.7032
-907.079
75.7121
-586.049
35.5234
-134.328
-85.344
-1947.86
-197.6
-1806.39
-295.635
-1767.63
-417.712
-1599.49
-541.22
-1541.35
-681.26
-1420.76
-833.668
-1352.05
-995.324
-1257.83
-1157.68
-1158.14
-1303.09
-1021.87
-1418.33
-874.098
-1495.35
-733.971
-1535.39
-601.081
-1542.44
-458.54
-1510.87
-319.025
-1407.44
-221.102
-1198.79
-196.95
-859.973
-263.103
-401.993
-422.456
-536.321
-9.52994
-1938.33
-36.5809
-1779.34
-55.5078
-1748.71
-96.3905
-1558.6
-138.799
-1498.94
-198.269
-1361.29
-272.668
-1277.65
-357.369
-1173.13
-434.574
-1080.94
-477.426
-979.021
-473.884
-877.639
-429.313
-778.541
-349.513
-680.88
-231.25
-576.803
-77.6225
-472.651
96.6735
-395.396
262.586
-362.86
353.159
-353.675
266.568
-335.864
-269.753
30.2312
-1968.56
27.5501
-1776.66
46.4261
-1767.58
76.0792
-1588.26
105.98
-1528.84
149.516
-1404.83
191.758
-1319.9
240.28
-1221.65
295.615
-1136.27
368.834
-1052.24
462.807
-971.612
573.497
-889.23
696.87
-804.253
835.362
-715.294
978.859
-616.147
1075.35
-491.89
1045.38
-332.883
840.171
-148.47
490.364
13.944
220.611
-106.705
-1861.86
-239.634
-1643.73
-336.972
-1670.24
-386.844
-1538.38
-426.09
-1489.6
-427.499
-1403.42
-410.891
-1336.5
-368.996
-1263.55
-310.181
-1195.09
-236.463
-1125.96
-150.693
-1057.38
-51.8474
-988.075
61.115
-917.215
184.769
-838.948
305.066
-736.444
390.756
-577.58
396.688
-338.814
300.132
-51.9136
135.772
178.305
356.383
-204.056
-1657.8
-446.966
-1400.82
-704.027
-1413.18
-914.414
-1328
-1114.76
-1289.25
-1279.14
-1239.04
-1418.83
-1196.82
-1528.54
-1153.83
-1611.54
-1112.09
-1667.52
-1069.97
-1697.47
-1027.43
-1701.38
-984.172
-1678.7
-939.885
-1626.17
-891.487
-1534.1
-828.51
-1380.12
-731.559
-1137.07
-581.862
-803.191
-385.793
-430.583
-194.303
-74.2002
-682.803
-1108.62
-1546.8
-1899.8
-2214.05
-2478.08
-2699.9
-2878.73
-3015.83
-3110.8
-3163.23
-3172.4
-3137.29
-3053.77
-2907.28
-2663.84
-2270.7
-1681.5
-900.8
-682.805
1657.81
-1108.63
1400.83
-1546.83
1413.2
-1899.84
1328.01
-2214.1
1289.27
-2478.16
1239.06
-2700
1196.84
-2878.84
1153.85
-3015.95
1112.11
-3110.94
1069.99
-3163.39
1027.45
-3172.59
984.2
-3137.51
939.925
-3054.02
891.515
-2907.48
828.455
-2663.8
731.323
-2270.27
581.476
-1680.85
385.583
-900.41
194.558
74.5904
-204.142
1861.96
-447.124
1643.82
-704.26
1670.34
-914.728
1538.49
-1115.16
1489.7
-1279.63
1403.54
-1419.42
1336.63
-1529.25
1263.69
-1612.37
1195.23
-1668.47
1126.09
-1698.51
1057.49
-1702.48
988.174
-1679.87
917.311
-1627.34
838.995
-1535.18
736.291
-1380.88
577.028
-1137.36
337.956
-803.07
51.3015
-430.539
-177.968
-355.949
-106.631
1968.59
-239.588
1776.78
-336.913
1767.67
-386.785
1588.37
-426.036
1528.96
-427.486
1404.99
-410.923
1320.08
-369.087
1221.86
-310.316
1136.47
-236.629
1052.41
-150.881
971.752
-52.0483
889.349
60.9234
804.346
184.573
715.352
304.707
616.163
389.935
491.805
395.147
332.749
298.171
148.286
134.294
-14.0826
-221.654
30.3473
1938.25
27.7284
1779.4
46.6624
1748.73
76.5084
1558.52
106.57
1498.9
150.522
1361.04
193.427
1277.17
242.926
1172.36
299.306
1080.09
373.4
978.323
467.95
877.205
578.996
778.307
702.653
680.692
841.204
576.804
983.796
473.573
1078.03
397.571
1045.28
365.505
838.196
355.371
488.843
335.274
267.188
-8.48665
1946.74
-34.5454
1805.47
-52.4457
1766.64
-92.2006
1598.28
-133.381
1540.08
-191.369
1419.04
-264.2
1350.01
-347.376
1255.54
-423.151
1155.87
-464.818
1020
-460.198
872.589
-414.479
732.594
-333.49
599.709
-214.09
457.412
-59.3111
318.805
115.308
222.965
280.025
200.798
365.949
269.453
271.879
429.351
539.067
-85.7846
2032.52
-197.834
1917.52
-295.963
1864.77
-418.144
1720.46
-541.664
1663.6
-682.154
1559.53
-835.379
1503.24
-998.22
1418.38
-1161.72
1319.37
-1308.08
1166.36
-1423.94
988.448
-1501.18
809.835
-1541.09
639.624
-1547.51
463.823
-1513.9
285.203
-1406.75
115.812
-1195.3
-10.646
-854.319
-71.5313
-396.606
-28.3615
142.462
20.1512
2012.37
-116.751
2054.42
-191.282
1939.3
-262.648
1791.83
-326.924
1727.88
-386.962
1619.57
-439.727
1556
-487.911
1466.57
-540.69
1372.15
-607.429
1233.1
-686.647
1067.67
-765.83
889.02
-838.245
712.04
-906.744
532.324
-971.499
349.959
-1024.61
168.927
-1039.35
4.09072
-924.605
-186.275
-593.758
-359.208
-451.297
218.793
1793.58
144.65
2128.56
133.99
1949.96
154.971
1770.85
196.159
1686.69
244.962
1570.76
312.522
1488.44
389.121
1389.97
466.418
1294.85
519.822
1179.69
537.718
1049.77
520.389
906.346
476.111
756.315
407.447
600.985
316.276
441.125
212.519
272.678
121.742
94.862
37.153
-101.692
-50.3377
-271.723
-501.635
282.543
1511.04
295.915
2115.19
309.533
1936.34
357.93
1722.45
431.036
1613.59
505.776
1496.02
592.814
1401.4
684.921
1297.86
780.397
1199.37
863.81
1096.28
923.582
989.998
951.156
878.773
944.629
762.842
903.289
642.326
826.448
517.967
711.802
387.325
558.166
248.498
374.115
82.3589
196.617
-94.2251
-305.018
211.928
1299.11
259.657
2067.46
278.446
1917.55
314.522
1686.38
366.753
1561.35
416.843
1445.93
468.932
1349.31
520.598
1246.2
571.203
1148.76
615.719
1051.76
648.491
957.224
663.829
863.434
657.602
769.067
627.489
672.437
572.055
573.399
490.72
468.659
385.917
353.299
263.289
204.984
124.718
44.3416
-180.3
117.389
1181.72
157.551
2027.3
174.327
1900.77
194.063
1666.64
219.896
1535.52
242.115
1423.71
262.015
1329.41
280.233
1227.98
295.622
1133.37
308.118
1039.27
315.444
949.896
316.158
862.719
307.666
777.559
288.281
691.821
255.678
606
209.936
514.399
152.753
410.48
93.9656
263.769
32.9384
105.364
-147.362
60.5383
1121.18
88.1317
1999.7
97.2531
1891.65
104.141
1659.75
113.69
1525.97
120.066
1417.33
124.107
1325.37
126.884
1225.2
127.447
1132.81
127.147
1039.56
124.931
952.109
121.5
866.146
115.704
783.352
106.981
700.54
93.1278
619.85
74.4038
533.12
49.903
434.977
25.0828
288.583
5.72077
124.718
-141.641
40.5389
1080.63
68.3328
1971.91
72.6692
1887.31
70.5898
1661.83
74.8866
1521.67
78.3983
1413.82
81.1795
1322.59
82.1711
1224.2
81.7642
1133.21
80.5337
1040.79
78.4056
954.235
75.8454
868.704
72.7564
786.439
69.0587
704.235
63.8965
625.01
56.9937
540.02
45.7809
446.187
25.7338
308.626
10.165
140.281
-131.476
33.6905
1046.94
73.587
1932.01
85.6852
1875.21
79.7731
1667.73
85.9364
1515.5
96.3518
1403.4
109.097
1309.84
119.535
1213.76
129.101
1123.64
136.879
1033.01
143.244
947.868
146.886
865.059
147.48
785.843
144.426
707.286
138.063
631.37
127.353
550.728
110.345
463.192
77.0584
341.909
33.3766
183.956
-98.0998
26.9939
1019.94
83.9674
1875.03
116.869
1842.3
115.322
1669.28
124.784
1506.04
143.424
1384.76
168.903
1284.36
193.798
1188.87
218.492
1098.95
240.454
1011.04
258.788
929.533
270.381
853.462
273.709
782.513
267.565
713.428
252.681
646.251
228.291
575.117
193.573
497.907
141.433
394.048
66.3141
259.07
-31.7858
20.2237
999.716
91.8301
1803.42
149.84
1784.29
162.437
1656.68
176.99
1491.48
202.87
1358.88
240.17
1247.06
280.066
1148.97
319.285
1059.73
353.079
977.248
378.552
904.058
392.282
839.73
392.61
782.184
378.864
727.17
352.204
672.91
313.009
614.309
260.932
549.983
192.911
462.068
100.081
351.896
68.2954
22.5891
977.126
100.612
1725.4
179.353
1705.55
215.128
1620.9
240.705
1465.91
272.335
1327.24
314.967
1204.42
361.41
1102.52
405.026
1016.11
438.934
943.338
459.385
883.606
464.574
834.539
454.363
792.393
429.296
752.236
390.865
711.34
340.057
665.117
277.087
612.952
200.217
538.937
105.354
446.757
173.649
26.0582
951.066
100.805
1650.65
193.809
1612.54
256.726
1557.98
306.111
1416.52
356.035
1277.32
410.004
1150.45
462.294
1050.23
505.549
972.855
534.171
914.716
546.27
871.506
542.373
838.435
523.85
810.915
491.639
784.446
446.791
756.188
389.744
722.162
320.642
682.053
236.982
622.597
136.338
547.4
309.987
67.1841
883.881
117.309
1600.52
175.512
1554.34
241.023
1492.47
301.919
1355.62
359.32
1219.92
419.565
1090.21
471.764
998.034
509.529
935.089
529.091
895.153
531.033
869.564
518.71
850.757
494.736
834.889
459.88
819.301
414.336
801.732
357.236
779.262
289.314
749.975
207.589
704.322
114.378
640.611
424.365
114.842
321.713
483.424
624.651
732.08
812.234
850.026
861.516
858.353
841.976
813.766
775.771
729.187
673.906
609.214
533.285
444.548
337.235
204.773
)
;

boundaryField
{
    outletWall
    {
        type            calculated;
        value           nonuniform List<scalar> 
60
(
4001.06
0.399748
-2386.39
-3403.79
-4686.85
-4036.2
-4400.81
-5806.8
-9115.76
-11548.1
-12260.3
-11268
-8356.3
-2531.63
4970.11
7224.7
6604.53
5338.07
4948.17
3656.43
5383.81
6372.66
6526.04
6325.64
5961.43
5621.18
5548.04
5743.05
6218.2
6758.27
6861.97
6463.74
6038.66
5806.92
5807.2
6072.79
6399.59
6603.14
6485.1
5520.18
3954.52
65.4988
-2286.12
-3238.76
-4939.63
-4541.12
-5233.82
-6612.97
-9389.88
-11420.5
-11877.9
-10672.5
-7358.58
-433.958
6085.58
7392.67
6460.87
5165.52
4840.73
3580.2
)
;
    }
    fineWalls
    {
        type            calculated;
        value           uniform 0;
    }
    fineFrontAndBack
    {
        type            calculated;
        value           nonuniform List<scalar> 
960
(
-8.01957e-14
-7.10587e-13
-2.61251e-13
-4.6349e-13
-4.25051e-12
-1.10448e-12
-1.24506e-12
-1.26751e-12
-7.66601e-12
-1.42824e-12
-5.84134e-13
2.8668e-12
1.35109e-12
1.53857e-12
4.73631e-12
6.5666e-13
7.41435e-13
5.10034e-12
1.04061e-12
6.53613e-13
2.25702e-13
-9.92004e-14
-1.78737e-13
-2.66896e-13
-2.64224e-13
-4.01461e-13
-2.65105e-12
-5.49712e-13
-5.69663e-13
-6.24412e-13
-6.87751e-13
-7.51133e-13
-8.07052e-13
-8.62944e-13
-9.09712e-13
-9.04926e-13
-8.5659e-13
-8.47758e-13
-7.99655e-13
-1.09028e-12
-2.66399e-11
-6.14506e-12
-8.54867e-12
-1.26349e-11
-6.3579e-11
-4.69757e-13
-1.23183e-11
-1.78309e-11
-6.77516e-11
3.68254e-13
1.0414e-11
1.32101e-10
2.64472e-11
1.83781e-11
1.16091e-12
6.5121e-11
1.29475e-11
9.34411e-12
7.33897e-12
3.98582e-11
1.70893e-12
1.4538e-12
1.5104e-12
1.46603e-12
1.4344e-12
1.38866e-12
1.34741e-12
1.28843e-12
1.21647e-12
1.14963e-12
1.08857e-12
1.03814e-12
9.88456e-13
1.17397e-11
7.30128e-13
5.52224e-13
5.1746e-13
4.48462e-13
3.58134e-13
2.62893e-14
3.09374e-13
-2.9646e-13
-2.04523e-12
7.39481e-13
1.62248e-13
-5.75711e-13
1.01288e-12
5.08416e-13
8.20564e-13
4.05168e-14
1.13147e-13
3.17136e-12
1.17285e-12
1.60663e-12
2.04193e-12
9.74612e-12
1.73318e-12
1.44926e-12
5.58517e-12
7.1577e-13
-9.22468e-09
-8.15889e-10
6.86057e-10
1.06617e-09
1.07239e-09
1.02381e-09
5.9398e-10
1.69001e-10
-4.88911e-11
-1.29903e-10
-1.22421e-10
-8.2294e-11
-5.6515e-11
-4.97748e-11
-4.25264e-11
-2.36278e-11
-9.75758e-12
-2.4637e-12
-1.50117e-12
-4.7248e-09
2.22339e-09
1.47908e-09
1.37945e-09
1.32445e-09
1.4009e-09
1.0911e-09
3.04861e-10
-8.22554e-11
-1.4456e-10
-1.16022e-10
-7.90333e-11
-5.55696e-11
-4.9094e-11
-4.30788e-11
-2.48279e-11
-1.06194e-11
-2.60398e-12
-4.63177e-12
-1.76657e-09
2.78279e-09
1.41966e-09
1.42539e-09
1.31498e-09
1.3035e-09
1.17935e-09
6.321e-10
1.24199e-11
-1.75443e-10
-1.17309e-10
-7.10009e-11
-5.42173e-11
-4.74453e-11
-4.37684e-11
-2.83834e-11
-1.36266e-11
-3.82532e-12
-3.73883e-12
1.15495e-10
2.90744e-09
1.35515e-09
1.37174e-09
1.14506e-09
1.03605e-09
9.98573e-10
8.40854e-10
2.79486e-10
-1.38062e-10
-1.39802e-10
-6.20775e-11
-4.24817e-11
-3.60822e-11
-4.22216e-11
-3.32055e-11
-1.79735e-11
-5.80256e-12
-6.71652e-12
1.11853e-09
2.5821e-09
1.11209e-09
1.13495e-09
8.54861e-10
6.91778e-10
6.73034e-10
7.76952e-10
5.15626e-10
2.12514e-11
-1.47984e-10
-6.12803e-11
2.44628e-11
4.99848e-11
-1.01778e-12
-3.39594e-11
-3.19102e-11
-1.60976e-11
-1.73891e-11
1.16581e-09
1.95145e-09
7.56876e-10
8.2416e-10
5.55921e-10
3.85404e-10
3.52128e-10
5.24227e-10
5.30082e-10
1.83535e-10
-1.03929e-10
-2.59474e-11
1.77941e-10
2.17316e-10
1.35742e-10
3.73133e-11
-8.72577e-12
-1.66224e-11
-2.02803e-11
5.11491e-10
1.25644e-09
4.34221e-10
5.53611e-10
3.21557e-10
1.91544e-10
1.54927e-10
2.65711e-10
3.59124e-10
2.17216e-10
-3.62024e-12
1.30517e-10
2.96922e-10
2.56134e-10
1.71147e-10
1.0545e-10
5.66201e-11
4.6295e-11
7.43871e-12
-3.83451e-10
7.68024e-10
2.54606e-10
3.55953e-10
1.61888e-10
1.16326e-10
1.03011e-10
9.30019e-11
1.19999e-10
1.10195e-10
9.47799e-11
2.73002e-10
3.35068e-10
2.45127e-10
1.40475e-10
9.18576e-11
6.31226e-11
4.63688e-11
5.07062e-11
-9.6329e-10
6.41828e-10
1.91921e-10
1.91116e-10
5.3033e-11
1.13644e-10
1.65132e-10
9.93989e-11
2.51762e-11
5.50702e-11
1.93289e-10
3.43994e-10
3.40459e-10
2.79505e-10
2.1208e-10
1.4472e-10
1.24397e-10
1.18192e-10
1.15288e-10
-7.93832e-10
7.01759e-10
1.35386e-10
3.97821e-11
-3.70741e-11
8.97653e-11
2.32159e-10
2.89437e-10
2.543e-10
2.27642e-10
2.49319e-10
2.38092e-10
1.97889e-10
1.93554e-10
2.22513e-10
2.20617e-10
1.98528e-10
1.80155e-10
1.73929e-10
2.13561e-10
4.46354e-10
1.18729e-10
-5.84345e-11
-1.98132e-10
-1.9897e-10
-1.85569e-10
-1.91393e-10
-2.11111e-10
-2.35063e-10
-2.78345e-10
-2.95389e-10
-2.60459e-10
-2.49581e-10
-2.56995e-10
-2.3768e-10
-2.02867e-10
-1.75903e-10
-1.47951e-10
7.04663e-10
5.85531e-10
2.41392e-10
-1.11124e-11
-2.4037e-10
-3.02106e-10
-2.67999e-10
-1.74151e-10
-9.15459e-11
-1.04915e-10
-2.27916e-10
-3.50441e-10
-3.47272e-10
-2.84765e-10
-2.04639e-10
-1.4181e-10
-1.22881e-10
-1.12787e-10
-1.08613e-10
9.10331e-10
7.97492e-10
4.55219e-10
1.59714e-10
-1.66317e-10
-3.12502e-10
-2.8198e-10
-1.32493e-10
-1.5311e-11
1.07942e-11
-8.67358e-11
-2.78319e-10
-3.17283e-10
-2.30228e-10
-1.31019e-10
-8.96805e-11
-5.92054e-11
-3.76089e-11
-3.45373e-11
8.63182e-10
8.86968e-10
6.51581e-10
3.98967e-10
2.47676e-11
-2.22691e-10
-2.61039e-10
-1.26808e-10
6.88375e-13
4.02006e-11
-1.2611e-11
-1.65413e-10
-2.75297e-10
-2.35209e-10
-1.60285e-10
-1.011e-10
-6.66369e-11
-6.0634e-11
-6.92849e-12
6.71364e-10
8.0256e-10
7.31101e-10
6.10816e-10
2.83469e-10
-2.08629e-11
-1.34986e-10
-2.2483e-11
8.91093e-11
6.523e-11
7.73069e-12
-3.71468e-11
-1.55084e-10
-1.71655e-10
-1.07255e-10
-4.30738e-11
-1.27452e-11
-1.76608e-12
4.46213e-12
4.65251e-10
6.07098e-10
6.63002e-10
7.0488e-10
5.16884e-10
2.49548e-10
1.0193e-10
1.56115e-10
1.54633e-10
4.53202e-11
9.75122e-14
5.5566e-12
-2.299e-11
-2.94143e-11
-1.02568e-11
3.32654e-12
3.89708e-12
5.58549e-13
-1.55601e-12
3.41993e-10
4.0754e-10
4.9879e-10
6.54442e-10
6.39533e-10
4.87429e-10
3.47615e-10
2.78261e-10
1.22662e-10
5.68293e-12
3.08775e-12
1.267e-11
4.33012e-12
-3.11488e-14
3.13141e-13
6.52514e-13
-1.18166e-13
-7.25729e-13
-4.45502e-12
3.26428e-10
2.83299e-10
3.26305e-10
5.05968e-10
6.25357e-10
6.04803e-10
4.85356e-10
2.54237e-10
4.1776e-11
-6.89921e-12
1.04479e-11
1.32056e-11
7.98935e-12
4.60235e-12
3.52615e-12
2.7226e-12
1.32368e-12
-2.12777e-13
1.34136e-12
3.90767e-10
2.3257e-10
1.80828e-10
3.0254e-10
4.9812e-10
5.77763e-10
4.59985e-10
1.36401e-10
5.54156e-12
1.888e-12
1.18604e-11
1.27696e-11
9.02838e-12
5.74123e-12
4.27334e-12
2.79653e-12
1.31673e-12
1.28793e-13
4.07691e-14
7.40311e-10
4.23524e-10
2.56886e-10
1.64983e-10
2.68511e-10
3.37964e-10
2.34279e-10
6.81253e-11
1.35149e-11
5.49955e-12
1.06279e-11
1.29895e-11
9.45088e-12
6.19131e-12
4.52012e-12
2.9348e-12
1.50406e-12
2.11542e-13
-3.54337e-13
8.01957e-14
7.10587e-13
2.61251e-13
4.6349e-13
4.25051e-12
1.10448e-12
1.24506e-12
1.26751e-12
7.66601e-12
1.42824e-12
5.84134e-13
-2.8668e-12
-1.35109e-12
-1.53857e-12
-4.73631e-12
-6.5666e-13
-7.41435e-13
-5.10034e-12
-1.04061e-12
-6.53613e-13
-2.25702e-13
9.92004e-14
1.78737e-13
2.66896e-13
2.64224e-13
4.01461e-13
2.65105e-12
5.49712e-13
5.69663e-13
6.24412e-13
6.87751e-13
7.51133e-13
8.07052e-13
8.62944e-13
9.09712e-13
9.04926e-13
8.5659e-13
8.47758e-13
7.99655e-13
1.09028e-12
2.66399e-11
6.14506e-12
8.54867e-12
1.26349e-11
6.3579e-11
4.69757e-13
1.23183e-11
1.78309e-11
6.77516e-11
-3.68254e-13
-1.0414e-11
-1.32101e-10
-2.64472e-11
-1.83781e-11
-1.16091e-12
-6.5121e-11
-1.29475e-11
-9.34411e-12
-7.33897e-12
-3.98582e-11
-1.70893e-12
-1.4538e-12
-1.5104e-12
-1.46603e-12
-1.4344e-12
-1.38866e-12
-1.34741e-12
-1.28843e-12
-1.21647e-12
-1.14963e-12
-1.08857e-12
-1.03814e-12
-9.88456e-13
-1.17397e-11
-7.30128e-13
-5.52224e-13
-5.1746e-13
-4.48462e-13
-3.58134e-13
-2.62893e-14
-3.09374e-13
2.9646e-13
2.04523e-12
-7.39481e-13
-1.62248e-13
5.75711e-13
-1.01288e-12
-5.08416e-13
-8.20564e-13
-4.05168e-14
-1.13147e-13
-3.17136e-12
-1.17285e-12
-1.60663e-12
-2.04193e-12
-9.74612e-12
-1.73318e-12
-1.44926e-12
-5.58517e-12
-7.1577e-13
9.22468e-09
8.15889e-10
-6.86057e-10
-1.06617e-09
-1.07239e-09
-1.02381e-09
-5.9398e-10
-1.69001e-10
4.88911e-11
1.29903e-10
1.22421e-10
8.2294e-11
5.6515e-11
4.97748e-11
4.25264e-11
2.36278e-11
9.75758e-12
2.4637e-12
1.50117e-12
4.7248e-09
-2.22339e-09
-1.47908e-09
-1.37945e-09
-1.32445e-09
-1.4009e-09
-1.0911e-09
-3.04861e-10
8.22554e-11
1.4456e-10
1.16022e-10
7.90333e-11
5.55696e-11
4.9094e-11
4.30788e-11
2.48279e-11
1.06194e-11
2.60398e-12
4.63177e-12
1.76657e-09
-2.78279e-09
-1.41966e-09
-1.42539e-09
-1.31498e-09
-1.3035e-09
-1.17935e-09
-6.321e-10
-1.24199e-11
1.75443e-10
1.17309e-10
7.10009e-11
5.42173e-11
4.74453e-11
4.37684e-11
2.83834e-11
1.36266e-11
3.82532e-12
3.73883e-12
-1.15495e-10
-2.90744e-09
-1.35515e-09
-1.37174e-09
-1.14506e-09
-1.03605e-09
-9.98573e-10
-8.40854e-10
-2.79486e-10
1.38062e-10
1.39802e-10
6.20775e-11
4.24817e-11
3.60822e-11
4.22216e-11
3.32055e-11
1.79735e-11
5.80256e-12
6.71652e-12
-1.11853e-09
-2.5821e-09
-1.11209e-09
-1.13495e-09
-8.54861e-10
-6.91778e-10
-6.73034e-10
-7.76952e-10
-5.15626e-10
-2.12514e-11
1.47984e-10
6.12803e-11
-2.44628e-11
-4.99848e-11
1.01778e-12
3.39594e-11
3.19102e-11
1.60976e-11
1.73891e-11
-1.16581e-09
-1.95145e-09
-7.56876e-10
-8.2416e-10
-5.55921e-10
-3.85404e-10
-3.52128e-10
-5.24227e-10
-5.30082e-10
-1.83535e-10
1.03929e-10
2.59474e-11
-1.77941e-10
-2.17316e-10
-1.35742e-10
-3.73133e-11
8.72577e-12
1.66224e-11
2.02803e-11
-5.11491e-10
-1.25644e-09
-4.34221e-10
-5.53611e-10
-3.21557e-10