/*--------------------------------*- C++ -*----------------------------------*\
| =========                 |                                                 |
| \\      /  F ield         | OpenFOAM: The Open Source CFD Toolbox           |
|  \\    /   O peration     | Version:  4.1                                   |
|   \\  /    A nd           | Web:      www.OpenFOAM.org                      |
|    \\/     M anipulation  |                                                 |
\*---------------------------------------------------------------------------*/
FoamFile
{
    version     2.0;
    format      ascii;
    class       volSymmTensorField;
    location    "5";
    object      R;
}
// * * * * * * * * * * * * * * * * * * * * * * * * * * * * * * * * * * * * * //

dimensions      [0 2 -2 0 0 0 0];

internalField   nonuniform List<symmTensor> 
1280
(
(0.0841198 5.38778e-17 2.31915e-17 0.0982688 0.00602511 0.0899021)
(0.0852343 5.9935e-17 2.57715e-17 0.10047 0.00523854 0.0916901)
(0.0895302 5.91536e-17 3.07323e-17 0.097846 0.0164768 0.1048)
(0.0921335 6.58783e-17 3.52682e-17 0.100553 0.0185399 0.10953)
(0.0948314 7.83943e-17 4.18549e-17 0.104314 0.0205741 0.116001)
(0.103073 6.67684e-17 4.29435e-17 0.107144 0.0264493 0.125493)
(0.107263 7.33582e-17 4.86251e-17 0.110977 0.0311305 0.13338)
(0.11403 7.87714e-17 4.66915e-17 0.124029 0.0332344 0.133309)
(0.121064 1.00053e-16 5.44546e-17 0.137001 0.041429 0.140553)
(0.134082 7.45345e-17 3.82124e-17 0.145359 0.0383153 0.161358)
(0.143903 8.70651e-17 3.74808e-17 0.158347 0.043289 0.174987)
(0.159291 1.35754e-16 5.11182e-17 0.180548 0.0635532 0.206436)
(0.157205 9.37301e-17 1.41773e-17 0.156627 0.0337082 0.236033)
(0.172566 1.07082e-16 2.26599e-17 0.178317 0.0368748 0.244794)
(0.218916 2.01421e-16 6.49794e-17 0.250789 0.064656 0.290211)
(0.215916 1.68049e-16 4.38767e-17 0.231172 0.0343317 0.30446)
(0.2317 1.64121e-16 3.83113e-17 0.244674 0.0258175 0.326692)
(0.314204 2.53561e-16 3.44265e-17 0.334726 0.00630135 0.459953)
(0.313872 2.29271e-16 2.71848e-17 0.330925 -0.000577628 0.448983)
(0.323255 2.20739e-16 8.63187e-18 0.330075 -0.0230126 0.462853)
(0.459451 1.9097e-16 -7.38608e-17 0.367866 -0.080363 0.715313)
(0.950778 1.50854e-16 -2.16193e-16 0.603174 -0.0285594 1.66001)
(0.983035 1.0741e-16 -2.07645e-16 0.654311 -0.0254787 1.63493)
(0.910697 8.14509e-17 -1.82563e-16 0.639869 -0.0115723 1.45539)
(0.836595 7.53404e-17 -1.55321e-16 0.619114 0.0244996 1.30023)
(0.789099 7.46074e-17 -1.34627e-16 0.620355 0.0741575 1.20506)
(0.47995 2.86339e-17 -6.80987e-17 0.371778 0.0573773 0.754469)
(0.478862 2.72793e-17 -6.56102e-17 0.407937 0.114938 0.734779)
(0.480485 2.80941e-17 -6.26879e-17 0.44418 0.15895 0.721858)
(0.48061 3.26383e-17 -5.94151e-17 0.47302 0.189862 0.709292)
(0.478207 3.77046e-17 -5.63941e-17 0.493357 0.209836 0.694236)
(0.473844 4.1939e-17 -5.3668e-17 0.507486 0.221476 0.676468)
(0.468089 4.55957e-17 -5.09739e-17 0.517098 0.226908 0.656385)
(0.461385 4.84503e-17 -4.85413e-17 0.523232 0.228109 0.634707)
(0.454707 4.76915e-17 -4.75515e-17 0.52809 0.227265 0.613034)
(0.448389 4.25714e-17 -4.82662e-17 0.531855 0.22593 0.592364)
(0.443792 3.9125e-17 -4.82187e-17 0.537622 0.225992 0.574758)
(0.439503 3.99902e-17 -4.60764e-17 0.541002 0.226421 0.558443)
(0.440143 5.89297e-17 -3.47462e-17 0.550264 0.233763 0.552641)
(0.431322 6.8199e-17 -2.63702e-17 0.536738 0.231548 0.535732)
(0.431003 8.05079e-17 -9.93939e-18 0.543728 0.243531 0.505674)
(0.425877 8.60753e-17 9.62934e-18 0.551912 0.210252 0.451633)
(0.424132 1.09099e-16 3.42478e-17 0.567181 0.186806 0.394948)
(0.416447 9.2661e-17 4.78597e-17 0.563174 0.167517 0.365776)
(0.398753 7.72942e-18 2.96705e-17 0.542988 0.166491 0.33544)
(0.355206 -2.28303e-16 1.57832e-17 0.510429 0.0772274 0.247188)
(0.34762 -3.90992e-16 1.30484e-17 0.516659 0.0424372 0.216523)
(0.354941 -5.67819e-16 1.83006e-17 0.54965 0.00573614 0.196219)
(0.399001 -1.13502e-15 -4.51144e-17 0.67256 -0.0328295 0.178605)
(0.360699 -7.37877e-16 -7.95301e-17 0.584372 -0.00578789 0.171229)
(0.35942 -7.41026e-16 -1.31571e-16 0.580399 0.0153843 0.180335)
(0.394337 -9.69826e-16 -1.38444e-16 0.655823 0.0291867 0.219194)
(0.346918 -4.32469e-16 -1.63954e-16 0.531284 -0.00452141 0.216513)
(0.338302 -2.5175e-16 -1.35327e-16 0.498889 -0.0486 0.227835)
(0.346511 -1.36014e-16 -8.86909e-17 0.496124 -0.0826854 0.252827)
(0.40023 5.44406e-17 -1.0483e-17 0.548881 -0.19287 0.341091)
(0.419496 9.16392e-17 -8.61494e-18 0.573428 -0.179603 0.369688)
(0.427666 9.87186e-17 7.16746e-18 0.578901 -0.196152 0.398216)
(0.429823 7.50648e-17 3.56782e-17 0.564193 -0.219229 0.45621)
(0.435872 6.96027e-17 6.43216e-17 0.557682 -0.25346 0.510965)
(0.437218 9.01008e-17 8.22488e-18 0.553367 -0.242484 0.539597)
(0.44716 8.43477e-17 1.44057e-17 0.568537 -0.245989 0.557318)
(0.447686 6.94076e-17 2.465e-17 0.561158 -0.239939 0.564015)
(0.45162 6.70782e-17 2.79404e-17 0.557378 -0.239623 0.579861)
(0.454835 6.27671e-17 3.18802e-17 0.549613 -0.238851 0.595909)
(0.458901 5.93537e-17 3.54314e-17 0.542454 -0.238731 0.613982)
(0.462991 5.65711e-17 3.9056e-17 0.533685 -0.237887 0.632632)
(0.466865 5.34955e-17 4.2943e-17 0.523404 -0.234863 0.650804)
(0.469757 4.85448e-17 4.76619e-17 0.509778 -0.227659 0.667114)
(0.471329 4.31149e-17 5.27293e-17 0.491971 -0.214437 0.680938)
(0.471121 3.86684e-17 5.77608e-17 0.468441 -0.193235 0.692054)
(0.468569 3.61283e-17 6.28625e-17 0.436831 -0.161421 0.700659)
(0.464674 3.52434e-17 6.84292e-17 0.398075 -0.11678 0.709579)
(0.463741 3.56772e-17 7.45893e-17 0.359785 -0.0594396 0.725586)
(0.768237 8.60224e-17 1.4585e-16 0.602724 -0.0814115 1.16848)
(0.814449 8.39655e-17 1.73651e-16 0.599828 -0.0338311 1.26103)
(0.887161 8.44979e-17 2.10186e-16 0.618372 -0.0005952 1.41369)
(0.958406 1.12942e-16 2.47056e-16 0.630449 0.0102204 1.59192)
(0.925202 1.65703e-16 2.7245e-16 0.577252 0.0115469 1.61711)
(0.432262 2.20985e-16 1.48417e-16 0.340789 0.0689105 0.673997)
(0.29794 2.63217e-16 7.64312e-17 0.302925 0.0217007 0.427611)
(0.289308 2.71956e-16 6.25292e-17 0.30397 0.00562802 0.41417)
(0.290412 2.98812e-16 6.64879e-17 0.309125 0.00085938 0.42216)
(0.21254 1.70342e-16 1.42871e-17 0.226881 -0.0279266 0.289575)
(0.199029 1.65193e-16 6.92578e-18 0.217389 -0.0393936 0.266128)
(0.199606 1.87649e-16 1.85174e-18 0.22814 -0.0575715 0.258972)
(0.159934 1.00844e-16 -2.86962e-18 0.172125 -0.0376695 0.203098)
(0.147192 8.81064e-17 -2.3647e-18 0.157865 -0.0389528 0.186756)
(0.142425 1.01305e-16 1.29416e-19 0.160591 -0.0570004 0.179825)
(0.12918 6.65957e-17 6.04197e-19 0.141034 -0.0390087 0.155433)
(0.120299 5.37979e-17 2.05545e-18 0.129768 -0.0338885 0.14235)
(0.106925 5.50899e-17 9.2444e-18 0.119914 -0.0356315 0.122728)
(0.101716 4.13144e-17 5.50019e-18 0.110791 -0.0289443 0.11596)
(0.0967371 3.35793e-17 4.32138e-18 0.10214 -0.0268768 0.113547)
(0.0924113 2.96282e-17 5.73763e-18 0.0971769 -0.0226405 0.107965)
(0.0830658 3.38051e-17 2.34775e-17 0.0910182 -0.0153692 0.100384)
(0.080648 2.91746e-17 1.82148e-17 0.087351 -0.0141851 0.0959342)
(0.0780867 2.69898e-17 1.66482e-17 0.0843625 -0.0123456 0.0924568)
(0.0727084 2.64311e-17 2.97057e-17 0.0837375 -0.000229434 0.0826063)
(0.071776 2.40388e-17 2.61488e-17 0.081911 -0.00144713 0.0811248)
(0.338553 3.46847e-14 3.60607e-14 0.427013 0.167104 0.529133)
(0.339415 1.75354e-14 1.58622e-14 0.471519 0.145722 0.495395)
(0.339871 5.48783e-15 -1.30004e-15 0.529066 0.121442 0.454429)
(0.340139 4.8887e-15 -3.26304e-15 0.582741 0.0955149 0.427422)
(0.329885 7.31101e-15 -3.68692e-15 0.634512 0.0453979 0.369018)
(0.311893 1.17451e-14 -3.74342e-15 0.690616 -0.0357405 0.273597)
(0.292195 1.51383e-14 -3.85315e-15 0.712086 -0.1021 0.196825)
(0.240976 1.08768e-14 -2.54914e-15 0.59031 -0.0749662 0.143456)
(0.195218 5.54194e-15 -8.26197e-16 0.483012 -0.0196212 0.102036)
(0.160933 2.37201e-15 -5.19879e-17 0.39884 0.0158126 0.0804876)
(0.134241 9.23732e-16 1.06178e-16 0.331355 0.0265864 0.0689429)
(0.116334 2.78017e-16 6.16451e-17 0.287337 0.0166597 0.0621975)
(0.10825 4.54486e-17 1.5497e-17 0.264787 -0.0159367 0.0631715)
(0.102874 2.88411e-17 1.13238e-18 0.230785 -0.0597333 0.0806913)
(0.0905606 7.41835e-18 3.34998e-17 0.175268 -0.0732801 0.096618)
(0.0681157 -2.66417e-17 5.01875e-17 0.133762 -0.0390959 0.0607637)
(0.0561177 -2.09537e-17 4.76109e-17 0.104881 -0.0219276 0.0473898)
(0.0490392 -3.78572e-18 3.83236e-17 0.0837474 -0.00746464 0.0421558)
(0.0697347 1.76849e-17 4.5232e-17 0.11016 0.0220681 0.0633575)
(0.342232 3.21278e-14 2.78503e-14 0.424715 0.177424 0.527248)
(0.347497 1.21756e-14 8.27734e-15 0.467011 0.168462 0.508978)
(0.356704 1.35991e-15 -4.47602e-15 0.519025 0.168033 0.507461)
(0.360217 1.92212e-15 -3.75362e-15 0.562874 0.164656 0.508675)
(0.344553 4.18908e-15 -3.5916e-15 0.603591 0.127928 0.45041)
(0.312046 8.49533e-15 -3.12461e-15 0.644506 0.0443706 0.32178)
(0.282374 1.36131e-14 -3.1956e-15 0.675704 -0.0555484 0.199645)
(0.232201 1.0412e-14 -2.37093e-15 0.564293 -0.0561921 0.141136)
(0.190754 5.03301e-15 -6.78256e-16 0.469466 -0.0048752 0.102324)
(0.163111 2.04573e-15 9.55258e-18 0.40397 0.0275732 0.08515)
(0.143819 8.39909e-16 1.22542e-16 0.357552 0.0330528 0.0771777)
(0.134615 3.11183e-16 6.84788e-17 0.337146 0.0131701 0.0743058)
(0.139304 1.21107e-16 2.26593e-17 0.33941 -0.0408776 0.0896953)
(0.138964 1.18162e-16 -2.14862e-17 0.292862 -0.108307 0.139606)
(0.122653 7.32439e-17 1.81569e-17 0.219341 -0.11111 0.163265)
(0.0853148 7.90924e-18 5.36909e-17 0.152809 -0.0574229 0.0983344)
(0.0697093 5.43117e-18 5.57476e-17 0.120702 -0.0304591 0.0728308)
(0.061536 2.0046e-17 4.39319e-17 0.0982539 -0.0119036 0.0634739)
(0.0803417 3.42339e-17 4.80152e-17 0.12029 0.00789393 0.0772183)
(0.355953 1.73992e-14 1.3622e-14 0.429474 0.183807 0.548277)
(0.374914 7.41295e-16 -7.74991e-17 0.471564 0.203374 0.580981)
(0.395836 -3.77996e-15 -7.19238e-15 0.510771 0.238246 0.640141)
(0.400864 -1.6362e-15 -4.58981e-15 0.543146 0.260808 0.66667)
(0.374268 2.95333e-16 -4.03726e-15 0.569662 0.239185 0.592036)
(0.321341 3.92174e-15 -2.74453e-15 0.591779 0.159868 0.412697)
(0.27369 9.10838e-15 -1.84667e-15 0.622028 0.0494967 0.225494)
(0.227042 9.66565e-15 -1.70142e-15 0.545808 -0.0111113 0.143393)
(0.188472 4.95599e-15 -5.33227e-16 0.457584 0.0163531 0.107629)
(0.168766 1.86132e-15 7.00084e-17 0.414223 0.0439084 0.0948618)
(0.161441 7.50415e-16 1.51103e-16 0.400908 0.045483 0.0925393)
(0.166553 4.10468e-16 9.29562e-17 0.416875 0.0149783 0.0964394)
(0.207411 4.37197e-16 6.45507e-17 0.479967 -0.0647038 0.149967)
(0.200785 4.34079e-16 -7.53218e-17 0.390642 -0.155228 0.225928)
(0.17679 2.86516e-16 -4.14491e-17 0.286159 -0.158847 0.272275)
(0.121951 1.27062e-16 3.93216e-17 0.187534 -0.0914828 0.186579)
(0.0985341 8.79284e-17 6.16783e-17 0.148131 -0.0486343 0.136542)
(0.0845106 7.78256e-17 4.82456e-17 0.121939 -0.0218091 0.106493)
(0.101933 6.44354e-17 3.4765e-17 0.134111 -0.0310711 0.122532)
(0.380351 5.85038e-15 4.54451e-15 0.422996 0.201228 0.621933)
(0.412468 -5.01675e-15 -5.19192e-15 0.465488 0.243409 0.704367)
(0.442935 -5.82864e-15 -8.97711e-15 0.50382 0.292705 0.803924)
(0.448974 -3.61688e-15 -5.59148e-15 0.540036 0.325281 0.834192)
(0.416568 -2.09264e-15 -4.74342e-15 0.566755 0.317893 0.742858)
(0.352249 8.50616e-16 -2.87359e-15 0.583472 0.254441 0.534596)
(0.29115 4.97809e-15 -1.26909e-15 0.608604 0.159655 0.309092)
(0.235808 7.86291e-15 -7.69007e-16 0.551362 0.0621085 0.172623)
(0.196551 4.90124e-15 -2.64271e-16 0.465362 0.0524003 0.128087)
(0.18497 1.96583e-15 1.4483e-16 0.443896 0.0681477 0.117696)
(0.197605 7.48848e-16 1.99558e-16 0.482512 0.068013 0.125293)
(0.239505 6.5517e-16 1.84555e-16 0.583816 0.0331103 0.151934)
(0.433764 1.9049e-15 5.0812e-16 0.857643 0.00975125 0.382927)
(0.334558 1.60332e-15 2.86747e-18 0.609586 -0.127835 0.349841)
(0.263108 9.40664e-16 -1.17373e-16 0.395538 -0.168609 0.392231)
(0.184176 4.4287e-16 -1.05482e-17 0.244461 -0.114976 0.319766)
(0.149551 2.81954e-16 5.03951e-17 0.193988 -0.0622012 0.248691)
(0.128268 2.00352e-16 4.13427e-17 0.174286 -0.0331726 0.178462)
(0.155917 1.17415e-16 1.69414e-17 0.19491 -0.0753023 0.214022)
(0.413983 -2.49311e-15 -1.60573e-15 0.424111 0.218562 0.726327)
(0.454639 -7.87614e-15 -8.37221e-15 0.467137 0.270085 0.841307)
(0.485755 -6.30033e-15 -9.3569e-15 0.504341 0.318266 0.944082)
(0.488361 -4.20938e-15 -5.75658e-15 0.543719 0.35374 0.955133)
(0.454061 -2.87545e-15 -4.69726e-15 0.572334 0.357387 0.851699)
(0.390604 -6.75459e-16 -2.80856e-15 0.590534 0.318373 0.65115)
(0.323333 2.27767e-15 -1.17277e-15 0.611692 0.247688 0.419663)
(0.264561 5.34743e-15 -2.24325e-16 0.581923 0.153828 0.247497)
(0.226336 4.32509e-15 7.28631e-17 0.509468 0.114113 0.18413)
(0.223601 2.20306e-15 2.71128e-16 0.50745 0.111242 0.172779)
(0.266328 9.90896e-16 3.1512e-16 0.608174 0.110114 0.200208)
(0.373811 1.15732e-15 4.8031e-16 0.825759 0.0902996 0.284385)
(0.900445 4.54326e-15 2.87046e-15 1.3829 0.508014 1.12208)
(0.607236 3.76061e-15 1.72307e-15 0.904851 0.229471 0.725416)
(0.405086 2.33429e-15 4.29812e-16 0.567164 -0.0102481 0.551771)
(0.282835 1.19356e-15 3.51629e-17 0.352861 -0.0549232 0.470748)
(0.231199 7.13702e-16 3.82664e-17 0.281484 -0.0231482 0.392599)
(0.205532 4.89228e-16 3.61847e-17 0.27726 -0.00729038 0.280265)
(0.235447 2.59117e-16 4.21516e-18 0.292994 -0.075943 0.319098)
(0.447107 -7.29061e-15 -4.58368e-15 0.420662 0.230828 0.838717)
(0.48936 -7.8385e-15 -8.4775e-15 0.463155 0.280774 0.959531)
(0.514351 -5.38679e-15 -7.87025e-15 0.501152 0.322674 1.03249)
(0.513609 -3.66137e-15 -4.68609e-15 0.544094 0.357869 1.01628)
(0.486202 -2.54613e-15 -3.68593e-15 0.580388 0.372128 0.918992)
(0.437467 -1.01885e-15 -2.17457e-15 0.611042 0.361343 0.759342)
(0.376024 7.66189e-16 -1.01783e-15 0.639411 0.32308 0.555916)
(0.319276 2.87519e-15 -1.75687e-16 0.637489 0.254649 0.376381)
(0.29249 3.14694e-15 2.17772e-16 0.603146 0.208812 0.304544)
(0.318846 2.32555e-15 4.785e-16 0.643607 0.207322 0.320444)
(0.440089 1.92674e-15 8.95188e-16 0.825354 0.260006 0.46582)
(0.753646 2.98128e-15 2.40243e-15 1.11068 0.478463 1.01987)
(1.22723 3.56428e-15 4.13392e-15 1.42771 0.910255 2.15369)
(1.0957 2.84658e-15 2.71803e-15 1.2416 0.802545 1.91765)
(0.629613 2.35768e-15 1.07739e-15 0.752967 0.331001 1.01356)
(0.434378 1.7099e-15 3.48668e-16 0.52357 0.157198 0.737988)
(0.371986 1.26035e-15 2.11543e-16 0.460049 0.139699 0.617736)
(0.377287 1.076e-15 1.50666e-16 0.554474 0.122449 0.488726)
(0.383455 4.48494e-16 1.16641e-16 0.436376 0.0528416 0.557007)
(0.472682 -7.97136e-15 -3.65116e-15 0.417295 0.231903 0.928074)
(0.509695 -5.81405e-15 -5.57175e-15 0.456544 0.27382 1.02866)
(0.525043 -3.81894e-15 -5.2674e-15 0.492315 0.307644 1.0562)
(0.526434 -2.68119e-15 -3.05431e-15 0.537662 0.342522 1.02896)
(0.515151 -1.75991e-15 -2.24968e-15 0.583228 0.368186 0.963413)
(0.492683 -6.93421e-16 -1.15658e-15 0.632381 0.386397 0.86783)
(0.455155 1.06417e-16 -6.25432e-16 0.685293 0.390328 0.727294)
(0.414038 9.1951e-16 -3.25736e-16 0.722625 0.362888 0.576339)
(0.411589 1.54194e-15 8.10751e-17 0.744197 0.333543 0.521546)
(0.49635 1.9068e-15 6.91402e-16 0.846621 0.366851 0.631289)
(0.742036 2.75616e-15 1.99632e-15 1.08661 0.530474 1.07194)
(1.21845 3.28794e-15 4.06597e-15 1.37591 0.929048 2.24714)
(1.40007 1.36049e-15 1.92569e-15 1.46965 1.0575 2.78838)
(1.3597 4.418e-16 -2.17515e-17 1.57099 1.09951 2.52968)
(1.15165 1.11963e-15 3.32072e-16 1.44062 0.986324 2.10526)
(0.764794 1.53472e-15 5.47406e-16 0.98716 0.587541 1.37723)
(0.711189 1.42351e-15 6.58845e-16 0.928804 0.567916 1.2451)
(0.784767 1.11684e-15 8.25133e-16 0.934205 0.662467 1.47615)
(0.806417 2.75571e-16 3.51831e-16 0.577802 0.226898 1.78281)
(0.481095 -5.40732e-15 2.80637e-16 0.40484 0.214685 0.967334)
(0.510197 -3.24385e-15 -1.62192e-15 0.440411 0.247943 1.03631)
(0.519304 -2.54787e-15 -3.07067e-15 0.474696 0.275988 1.02907)
(0.528787 -1.96283e-15 -1.72813e-15 0.522414 0.311061 1.01282)
(0.539708 -1.10592e-15 -9.83145e-16 0.579265 0.34966 0.997618)
(0.549183 -2.33424e-16 -1.64325e-16 0.650462 0.39288 0.970394)
(0.553619 1.12622e-16 -1.92601e-17 0.7424 0.437634 0.913044)
(0.558427 5.97946e-17 -1.43803e-16 0.843306 0.46843 0.847931)
(0.585916 3.5789e-16 1.46792e-16 0.912953 0.473229 0.843141)
(0.702282 1.21794e-15 1.05698e-15 1.00797 0.528193 1.05407)
(0.968244 2.28731e-15 2.57035e-15 1.15319 0.710571 1.70069)
(1.21897 1.35892e-15 2.3579e-15 1.23984 0.890272 2.47709)
(1.16823 -1.23455e-16 -4.03464e-17 1.22519 0.849309 2.30626)
(1.22347 -9.08185e-17 -4.46772e-16 1.39359 0.962732 2.29348)
(1.46624 4.96996e-16 7.63633e-17 1.76943 1.29238 2.79267)
(1.44671 9.74852e-16 6.77074e-16 1.75031 1.29364 2.85349)
(1.38271 8.08718e-16 8.41965e-16 1.41752 1.01461 2.9357)
(0.796883 2.91104e-16 4.48798e-16 0.605884 0.252683 1.79943)
(0.535156 1.79969e-16 2.14842e-16 0.455926 -0.00724495 1.00108)
(0.464646 -1.65361e-15 4.08308e-15 0.37983 0.167206 0.930236)
(0.484559 -1.71179e-15 7.2725e-16 0.410295 0.191206 0.965037)
(0.491748 -2.17118e-15 -2.10749e-15 0.442322 0.21522 0.945423)
(0.509125 -1.91253e-15 -1.00746e-15 0.488171 0.249977 0.951501)
(0.532373 -1.11986e-15 -2.0755e-16 0.546342 0.29405 0.967313)
(0.557047 -2.99164e-16 4.38163e-16 0.622116 0.346879 0.970278)
(0.58431 3.3474e-16 6.47691e-16 0.722001 0.40799 0.958618)
(0.61603 7.02961e-16 8.06371e-16 0.83299 0.463321 0.954161)
(0.641316 6.57328e-16 9.52244e-16 0.893675 0.476643 0.963623)
(0.679659 7.04102e-16 1.3694e-15 0.87624 0.463832 1.06483)
(0.709389 1.80416e-16 1.37467e-15 0.775074 0.424815 1.23615)
(0.68244 -1.1518e-15 2.35249e-16 0.678191 0.34078 1.25067)
(0.684102 -1.44437e-15 -2.59524e-16 0.697952 0.324058 1.23307)
(0.738747 -8.15818e-16 -1.53411e-16 0.789248 0.40744 1.32853)
(0.824004 1.41844e-17 2.25254e-16 0.911662 0.538331 1.50725)
(0.870263 5.15237e-16 5.64036e-16 0.96483 0.604079 1.63439)
(0.718027 4.44421e-16 5.12356e-16 0.748202 0.373977 1.32579)
(0.520038 2.7877e-16 2.17284e-16 0.550324 0.0451443 0.825362)
(0.47212 2.04953e-16 5.89618e-17 0.578192 -0.116764 0.610582)
(0.433986 1.07585e-15 3.8702e-15 0.349674 0.0740685 0.845774)
(0.446234 -2.07572e-15 1.62634e-16 0.375968 0.0886617 0.855009)
(0.450325 -2.53875e-15 -2.02383e-15 0.403997 0.105068 0.827915)
(0.463731 -2.84362e-15 -9.1836e-16 0.441691 0.129826 0.827332)
(0.478212 -2.87281e-15 -4.89936e-16 0.49158 0.160364 0.816764)
(0.489309 -2.95913e-15 -4.74466e-16 0.558391 0.194106 0.774954)
(0.502098 -3.01299e-15 -7.15633e-16 0.645605 0.228607 0.718416)
(0.523134 -2.92599e-15 -4.59571e-16 0.741241 0.256418 0.685944)
(0.542105 -2.89789e-15 -2.23395e-16 0.797354 0.262525 0.685528)
(0.534546 -3.38702e-15 2.96233e-17 0.754205 0.213807 0.685287)
(0.494881 -4.34956e-15 1.81092e-16 0.615315 0.112604 0.678804)
(0.458657 -4.84414e-15 2.90834e-16 0.507119 0.00435256 0.673122)
(0.490416 -4.27522e-15 2.72622e-16 0.555547 0.00309667 0.72633)
(0.521784 -4.04763e-15 -2.47628e-17 0.68527 0.0213894 0.682004)
(0.568162 -3.88577e-15 -1.93851e-16 0.876149 0.0323467 0.634584)
(0.627222 -3.47682e-15 1.38647e-16 1.07115 0.024058 0.638319)
(0.66257 -2.93199e-15 3.84001e-16 1.19605 -0.0618474 0.635842)
(0.695523 -2.50029e-15 6.45026e-16 1.33003 -0.233675 0.622487)
(0.725607 -1.96123e-15 6.86353e-16 1.44367 -0.353219 0.600249)
(0.451055 2.38457e-15 -1.72574e-15 0.361414 -0.0790611 0.883427)
(0.46136 -1.26394e-15 -1.80573e-15 0.38732 -0.0843348 0.88429)
(0.461838 -1.70531e-15 -1.68178e-15 0.415405 -0.0905425 0.84137)
(0.472204 -2.66442e-15 -3.97052e-16 0.4534 -0.102955 0.826908)
(0.485115 -3.42594e-15 3.97665e-16 0.504085 -0.118516 0.807046)
(0.494635 -3.94179e-15 7.00427e-16 0.572142 -0.132665 0.754941)
(0.505142 -4.09407e-15 5.73828e-16 0.66108 -0.142187 0.684675)
(0.523623 -3.92883e-15 3.67291e-17 0.757919 -0.146519 0.638727)
(0.5452 -3.64924e-15 -2.44847e-16 0.818669 -0.153628 0.641601)
(0.544057 -3.8326e-15 -4.44962e-16 0.778772 -0.135086 0.665052)
(0.512989 -4.47377e-15 -5.53624e-16 0.638091 -0.0783686 0.695831)
(0.49264 -4.63511e-15 -6.18557e-16 0.537985 -0.0129466 0.739957)
(0.525249 -4.08446e-15 -2.96514e-16 0.586208 -0.0273345 0.797874)
(0.555336 -3.86937e-15 9.94918e-18 0.716122 -0.060935 0.749988)
(0.601318 -3.7159e-15 1.15879e-16 0.905679 -0.0839659 0.703332)
(0.65976 -3.35551e-15 8.08083e-18 1.09739 -0.0740706 0.708866)
(0.681689 -3.01209e-15 -2.96464e-16 1.22485 0.0527383 0.658162)
(0.710712 -2.6224e-15 -5.69507e-16 1.36246 0.234436 0.629164)
(0.739794 -2.10834e-15 -6.08614e-16 1.47372 0.350085 0.605615)
(0.515983 3.13716e-15 -5.24545e-15 0.415925 -0.185299 1.04872)
(0.538467 1.57663e-15 -5.02103e-15 0.449676 -0.207934 1.08672)
(0.541573 9.40842e-16 -3.865e-15 0.484444 -0.228187 1.04291)
(0.55459 -2.44548e-17 -2.09383e-15 0.533971 -0.257745 1.02265)
(0.578292 -7.74834e-16 -8.09162e-16 0.597537 -0.297611 1.02739)
(0.60899 -8.61451e-16 -2.82693e-16 0.682561 -0.349966 1.0333)
(0.64533 -1.64767e-16 -6.04437e-16 0.796471 -0.414305 1.02735)
(0.691366 9.06031e-16 -1.3065e-15 0.929833 -0.482986 1.03806)
(0.729887 1.57705e-15 -1.86018e-15 1.01503 -0.518149 1.07189)
(0.761439 1.50928e-15 -2.07188e-15 0.981206 -0.503474 1.17552)
(0.789605 5.85837e-16 -1.63358e-15 0.856881 -0.468732 1.37095)
(0.788321 -6.23295e-16 -4.35229e-16 0.777696 -0.416437 1.45921)
(0.803082 -9.01013e-16 1.23182e-16 0.808436 -0.420255 1.48203)
(0.871431 -3.416e-16 1.78319e-17 0.914757 -0.523069 1.61439)
(0.970771 3.62808e-16 -3.70064e-16 1.0555 -0.671539 1.83327)
(0.984872 5.99907e-16 -5.93983e-16 1.08111 -0.69837 1.88826)
(0.766002 4.24143e-16 -4.34481e-16 0.787209 -0.401496 1.43461)
(0.532362 2.50356e-16 -1.29702e-16 0.562941 -0.0479166 0.840074)
(0.481806 1.63266e-16 -7.1671e-18 0.586565 0.106443 0.623251)
(0.552527 2.96042e-15 -6.18305e-15 0.458159 -0.242567 1.12647)
(0.592323 3.0723e-15 -6.99941e-15 0.502314 -0.283139 1.22398)
(0.604356 2.96903e-15 -6.23772e-15 0.545233 -0.316224 1.21266)
(0.611428 2.23004e-15 -4.30074e-15 0.603301 -0.354211 1.16879)
(0.623791 1.23489e-15 -2.36109e-15 0.674512 -0.39566 1.13393)
(0.644673 6.36126e-16 -1.0655e-15 0.768923 -0.448299 1.11181)
(0.669858 7.93267e-16 -8.04988e-16 0.898057 -0.513112 1.07839)
(0.698081 1.31889e-15 -1.14143e-15 1.05108 -0.572159 1.03861)
(0.72422 1.7292e-15 -1.59762e-15 1.14302 -0.581508 1.01856)
(0.828119 2.25375e-15 -2.23721e-15 1.21658 -0.61877 1.20834)
(1.09423 2.68267e-15 -3.20137e-15 1.32072 -0.794913 1.88329)
(1.40966 1.66661e-15 -2.62987e-15 1.43738 -1.0282 2.83512)
(1.40678 3.44151e-16 -2.55792e-16 1.47234 -1.04045 2.79123)
(1.47959 2.74823e-16 2.40244e-16 1.68073 -1.1892 2.81044)
(1.71307 7.32985e-16 -2.25678e-16 2.0498 -1.52391 3.33016)
(1.59913 9.25366e-16 -5.86646e-16 1.89626 -1.40775 3.20407)
(1.54738 6.13509e-16 -5.38876e-16 1.54149 -1.09713 3.31222)
(0.827163 2.24391e-16 -2.38711e-16 0.620749 -0.255294 1.87061)
(0.553433 1.66518e-16 -9.9559e-17 0.463902 7.06305e-05 1.04393)
(0.553599 1.78693e-15 -5.109e-15 0.483053 -0.265993 1.09663)
(0.607204 3.0429e-15 -6.8126e-15 0.53478 -0.321327 1.24409)
(0.635015 3.90558e-15 -7.44353e-15 0.584418 -0.368138 1.30041)
(0.638568 3.89316e-15 -6.37259e-15 0.644446 -0.413597 1.2616)
(0.627529 3.06809e-15 -4.37435e-15 0.707802 -0.447339 1.1722)
(0.61084 2.02414e-15 -2.40656e-15 0.780706 -0.475368 1.0662)
(0.5849 1.45639e-15 -1.41037e-15 0.868065 -0.49862 0.933477)
(0.547762 1.16655e-15 -1.0736e-15 0.945993 -0.489216 0.773332)
(0.531436 9.79101e-16 -9.52689e-16 0.977653 -0.440916 0.66636)
(0.594362 1.31357e-15 -1.19341e-15 1.06202 -0.437875 0.718392)
(0.811235 2.36687e-15 -2.11464e-15 1.26101 -0.562406 1.09555)
(1.29919 3.31208e-15 -3.81109e-15 1.52017 -0.973793 2.29234)
(1.59776 1.8842e-15 -2.3302e-15 1.68943 -1.20921 3.14384)
(1.5514 1.02284e-15 -5.7109e-16 1.77793 -1.25417 2.89262)
(1.15257 1.48544e-15 -6.05983e-16 1.44843 -0.970364 2.13842)
(0.827062 1.38718e-15 -4.00006e-16 1.05911 -0.622916 1.50944)
(0.793975 1.16125e-15 -4.40795e-16 1.02879 -0.624236 1.38442)
(0.845402 7.33504e-16 -3.79423e-16 0.973623 -0.682727 1.59254)
(0.865112 1.71907e-16 -6.56786e-17 0.615326 -0.236375 1.9171)
(0.529801 4.38496e-16 -3.44608e-15 0.494233 -0.266748 0.996353)
(0.590361 2.04285e-15 -5.23246e-15 0.550636 -0.333131 1.16848)
(0.634636 3.69545e-15 -7.00302e-15 0.604728 -0.393375 1.2954)
(0.643095 4.62254e-15 -7.41148e-15 0.664741 -0.445864 1.29637)
(0.615451 4.46734e-15 -6.23634e-15 0.71702 -0.471763 1.18168)
(0.565326 3.41239e-15 -4.09449e-15 0.765823 -0.471706 1.0012)
(0.499664 2.22343e-15 -2.36109e-15 0.812923 -0.443104 0.774312)
(0.431698 9.80382e-16 -1.18975e-15 0.834359 -0.372889 0.546897)
(0.390656 2.63655e-16 -5.81484e-16 0.806541 -0.299374 0.418973)
(0.40014 4.22863e-16 -4.91775e-16 0.832315 -0.26506 0.390511)
(0.495576 1.2097e-15 -7.61827e-16 0.991708 -0.273834 0.47857)
(0.739814 2.79231e-15 -1.67491e-15 1.23059 -0.401359 0.871208)
(1.2748 3.94687e-15 -3.6221e-15 1.60292 -0.92612 2.06562)
(0.979521 3.35345e-15 -2.63471e-15 1.21321 -0.653858 1.56704)
(0.622918 2.25657e-15 -8.38955e-16 0.792334 -0.270686 0.987424)
(0.455954 1.49376e-15 -1.6459e-16 0.576043 -0.150272 0.770837)
(0.413522 1.13699e-15 -4.64481e-17 0.533284 -0.153113 0.66166)
(0.414901 9.7435e-16 2.32479e-17 0.620671 -0.113296 0.520177)
(0.418737 3.59677e-16 1.94885e-17 0.483355 -0.0464763 0.598854)
(0.494836 -3.74595e-16 -2.21658e-15 0.502554 -0.253753 0.866465)
(0.551753 8.40283e-16 -3.45945e-15 0.559129 -0.32088 1.0244)
(0.603117 2.64166e-15 -5.33825e-15 0.611023 -0.388995 1.18628)
(0.620092 4.19545e-15 -6.82432e-15 0.666412 -0.445448 1.23813)
(0.587515 4.80552e-15 -6.88603e-15 0.706964 -0.464395 1.13603)
(0.515809 3.93774e-15 -5.06998e-15 0.733031 -0.434836 0.909849)
(0.429744 2.20449e-15 -2.79507e-15 0.754872 -0.35962 0.62113)
(0.354654 9.70711e-17 -1.01424e-15 0.746457 -0.24995 0.376766)
(0.304931 -5.15267e-16 -3.21885e-16 0.679281 -0.178181 0.264574)
(0.293233 -9.70163e-17 -1.76788e-16 0.669001 -0.153962 0.228825)
(0.329667 4.433e-16 -2.06047e-16 0.76524 -0.137035 0.241202)
(0.428086 1.12851e-15 -3.23934e-16 0.973858 -0.0935469 0.312261)
(0.804314 3.64294e-15 -1.48653e-15 1.40606 -0.297441 0.854696)
(0.529009 2.75239e-15 -6.01629e-16 0.898197 -0.0382785 0.565535)
(0.384448 1.68687e-15 -7.78141e-18 0.57982 0.0905097 0.526181)
(0.288618 9.63993e-16 1.26946e-16 0.388383 0.064734 0.469005)
(0.251924 6.66076e-16 1.21617e-16 0.334391 0.0233418 0.38898)
(0.244832 5.36109e-16 1.01135e-16 0.351804 0.00910545 0.305326)
(0.265421 2.75164e-16 1.10939e-16 0.340612 0.0883915 0.348835)
(0.456967 -4.12279e-16 -1.72712e-15 0.500441 -0.234495 0.74543)
(0.501249 5.04889e-17 -2.30863e-15 0.555055 -0.287995 0.856053)
(0.549471 1.33605e-15 -3.53766e-15 0.606874 -0.356827 1.00588)
(0.571101 2.87684e-15 -5.12351e-15 0.655959 -0.411846 1.08589)
(0.541912 3.89085e-15 -6.02355e-15 0.689012 -0.422025 1.01221)
(0.464519 3.14105e-15 -4.81471e-15 0.703715 -0.364632 0.777323)
(0.37681 1.06266e-15 -2.53532e-15 0.71747 -0.255464 0.475446)
(0.306084 -1.26449e-15 -7.87633e-16 0.687192 -0.129179 0.258193)
(0.259402 -1.03583e-15 -2.44351e-16 0.605395 -0.0899515 0.18134)
(0.244724 -2.47747e-16 -7.97525e-17 0.585202 -0.0965712 0.159587)
(0.255213 1.52737e-16 -6.39753e-17 0.625574 -0.0892955 0.159837)
(0.288757 3.7832e-16 -7.98413e-17 0.713365 -0.0380632 0.176719)
(0.395599 1.10682e-15 -1.7967e-16 0.871747 0.0639495 0.304504)
(0.322758 9.90961e-16 7.47952e-17 0.627649 0.178422 0.333377)
(0.25703 6.77216e-16 1.53937e-16 0.414139 0.182888 0.369357)
(0.189983 4.34119e-16 1.22197e-16 0.278501 0.110717 0.298241)
(0.168427 3.43541e-16 1.05066e-16 0.241595 0.0636594 0.244755)
(0.164908 3.05221e-16 8.64199e-17 0.24053 0.0369889 0.206088)
(0.181132 2.07068e-16 1.15117e-16 0.235477 0.0842205 0.238177)
(0.429084 8.88259e-17 -1.88188e-15 0.503082 -0.217565 0.663851)
(0.455488 -2.3628e-16 -1.90024e-15 0.555367 -0.243232 0.709226)
(0.489286 1.63549e-16 -2.33197e-15 0.606727 -0.29416 0.80135)
(0.506672 1.09803e-15 -3.35796e-15 0.64701 -0.338068 0.870372)
(0.481786 1.96456e-15 -4.39024e-15 0.672868 -0.333844 0.816852)
(0.413983 1.17732e-15 -3.80469e-15 0.686273 -0.255158 0.611658)
(0.33923 -1.03769e-15 -2.01145e-15 0.701681 -0.129364 0.347766)
(0.282618 -2.48608e-15 -8.06353e-16 0.65918 -0.024065 0.195577)
(0.241787 -1.18616e-15 -2.60572e-16 0.57817 -0.0347274 0.145871)
(0.222501 -2.7375e-16 -4.81411e-17 0.543421 -0.0635548 0.128444)
(0.215151 7.6499e-18 -1.8389e-17 0.535886 -0.0632546 0.122445)
(0.217052 1.15352e-16 -2.44263e-17 0.54765 -0.0238426 0.121418)
(0.241864 3.18739e-16 -2.94827e-17 0.584067 0.0674835 0.156549)
(0.218913 3.49272e-16 7.29492e-17 0.455765 0.162015 0.218711)
(0.183301 2.86473e-16 9.81443e-17 0.323485 0.157834 0.248502)
(0.13264 1.93575e-16 6.41141e-17 0.222939 0.0879176 0.174428)
(0.118577 1.74449e-16 5.54735e-17 0.190736 0.0515882 0.14458)
(0.11129 1.59779e-16 4.94603e-17 0.169719 0.0273477 0.127286)
(0.122334 1.32091e-16 5.50685e-17 0.166069 0.0382043 0.141347)
(0.412207 1.38765e-15 -2.86262e-15 0.489052 -0.213769 0.643736)
(0.420817 2.71432e-16 -2.29761e-15 0.538584 -0.208622 0.626731)
(0.436089 -3.57747e-16 -2.0287e-15 0.600527 -0.217582 0.63557)
(0.446079 -6.24077e-16 -2.34519e-15 0.649138 -0.22918 0.659738)
(0.42934 -4.89656e-16 -3.04682e-15 0.686637 -0.204344 0.613491)
(0.383265 -1.40301e-15 -2.90263e-15 0.714702 -0.119761 0.464368)
(0.332002 -3.46747e-15 -1.79582e-15 0.742406 0.0024724 0.274436)
(0.281202 -3.06013e-15 -9.5289e-16 0.666689 0.0466794 0.179353)
(0.239557 -1.18858e-15 -2.77022e-16 0.580189 -0.00303933 0.134126)
(0.213053 -3.2462e-16 -4.18531e-17 0.525028 -0.0417216 0.114121)
(0.193627 -7.29507e-17 -4.6727e-18 0.483348 -0.0476325 0.103755)
(0.181564 2.62224e-17 -1.01146e-17 0.458094 -0.0212936 0.0974303)
(0.180399 1.07247e-16 -8.31773e-18 0.446681 0.0418207 0.107316)
(0.165646 1.41183e-16 3.32856e-17 0.3679 0.110837 0.142145)
(0.137119 1.29674e-16 4.59537e-17 0.263605 0.112534 0.15637)
(0.0994044 8.00542e-17 2.36842e-17 0.18886 0.0575813 0.0991653)
(0.0886016 7.98906e-17 2.1479e-17 0.158686 0.03426 0.0849104)
(0.0825167 7.91265e-17 2.15515e-17 0.136076 0.0159068 0.0793453)
(0.098132 7.84135e-17 2.12882e-17 0.148113 -0.0023848 0.0909033)
(0.407033 1.84691e-15 -3.71528e-15 0.485795 -0.204156 0.648566)
(0.410039 5.23625e-16 -3.01399e-15 0.535673 -0.186973 0.615022)