/*--------------------------------*- C++ -*----------------------------------*\
| =========                 |                                                 |
| \\      /  F ield         | OpenFOAM: The Open Source CFD Toolbox           |
|  \\    /   O peration     | Version:  4.1                                   |
|   \\  /    A nd           | Web:      www.OpenFOAM.org                      |
|    \\/     M anipulation  |                                                 |
\*---------------------------------------------------------------------------*/
FoamFile
{
    version     2.0;
    format      ascii;
    class       volVectorField;
    location    "5";
    object      U;
}
// * * * * * * * * * * * * * * * * * * * * * * * * * * * * * * * * * * * * * //

dimensions      [0 1 -1 0 0 0 0];

internalField   nonuniform List<vector> 
1280
(
(-5.79553e-17 -1.29409 -0.899004)
(-1.20771e-16 -1.05092 -0.847702)
(-1.88799e-16 -1.0698 -0.662295)
(-3.34952e-16 -0.877693 -0.748903)
(-7.22416e-16 -0.955921 -1.06188)
(-7.98177e-16 -0.703567 -0.845441)
(-8.9977e-16 -0.621677 -0.859796)
(-9.036e-16 -0.461516 -0.765452)
(-1.35939e-15 -0.441182 -1.01063)
(-1.03215e-15 -0.291634 -0.897026)
(-4.22138e-16 -0.0967888 -1.08118)
(5.27523e-16 0.0746225 -1.63333)
(9.83174e-16 0.232567 -1.41378)
(1.11188e-15 0.512321 -1.27592)
(8.03071e-16 0.830903 -2.51574)
(4.74551e-16 1.1382 -1.96973)
(5.35816e-16 1.58515 -1.50352)
(8.66851e-16 1.68422 -4.08832)
(7.52021e-16 3.02718 -2.41014)
(4.72349e-16 2.41032 -4.44519)
(9.25956e-16 3.10563 0.253924)
(-4.06976e-16 3.19753 5.62197)
(-7.33278e-16 3.00234 8.32697)
(-1.09496e-15 3.1764 10.0711)
(-1.08399e-15 3.22463 10.8289)
(-1.64702e-15 3.54599 11.2292)
(-5.58852e-16 3.21149 9.72152)
(-2.25523e-15 6.88762 13.6756)
(-2.33708e-15 6.94464 13.5412)
(-2.56169e-15 6.93415 13.4283)
(-2.82154e-15 6.9398 13.3931)
(-3.08157e-15 6.95071 13.4175)
(-3.31098e-15 6.96078 13.4832)
(-3.54029e-15 6.96296 13.5794)
(-3.73215e-15 6.97165 13.6829)
(-3.71252e-15 6.94798 13.7697)
(-3.51421e-15 6.96916 13.8342)
(-3.47798e-15 6.88463 13.8105)
(-3.28063e-15 6.97764 13.8808)
(-4.47294e-15 6.78624 13.4216)
(-4.63705e-15 9.00599 14.4184)
(-4.93579e-15 4.95786 10.238)
(-6.8664e-15 3.55883 10.1425)
(-1.01564e-14 2.64586 10.6346)
(-1.09603e-14 -0.0278614 7.45362)
(-3.77315e-16 -0.780529 -5.39646)
(-9.8942e-15 -0.176156 -5.08051)
(-1.4322e-14 0.519932 -5.7344)
(-1.13299e-14 1.40126 -5.29743)
(2.69992e-16 -0.471362 -0.409017)
(8.36462e-15 0.471295 -0.0805384)
(2.29942e-14 -1.44966 -5.30327)
(2.12427e-14 -0.53236 -5.77702)
(1.47615e-14 0.172215 -5.04156)
(9.32462e-16 0.762005 -5.30767)
(1.13352e-14 -0.000825127 7.49297)
(1.03918e-14 -2.66352 10.6096)
(7.50531e-15 -3.57768 10.1257)
(5.89475e-15 -4.97475 10.2251)
(6.71475e-15 -9.00103 14.4079)
(7.011e-15 -6.78634 13.4046)
(5.96431e-15 -6.97691 13.8569)
(6.19652e-15 -6.88784 13.7809)
(6.01448e-15 -6.97219 13.8039)
(5.88473e-15 -6.95402 13.7423)
(5.69708e-15 -6.97822 13.6584)
(5.52782e-15 -6.97031 13.5552)
(5.28586e-15 -6.96788 13.4606)
(4.99065e-15 -6.95775 13.3974)
(4.71642e-15 -6.94654 13.3784)
(4.46591e-15 -6.94107 13.4192)
(4.25903e-15 -6.95287 13.5476)
(4.0552e-15 -6.89889 13.7014)
(2.47478e-15 -3.20403 9.75158)
(2.9954e-15 -3.54628 11.2744)
(2.26553e-15 -3.2246 10.8646)
(2.12291e-15 -3.17893 10.0852)
(1.83984e-15 -3.00566 8.31936)
(1.46927e-15 -3.20239 5.59507)
(1.07854e-16 -3.10983 0.216135)
(2.23577e-16 -2.40737 -4.51156)
(-2.14244e-16 -3.02223 -2.47004)
(-3.47607e-16 -1.65862 -4.15686)
(5.34404e-16 -1.56827 -1.52824)
(1.17252e-16 -1.11362 -2.00374)
(-9.98107e-17 -0.791372 -2.54518)
(7.31979e-16 -0.479317 -1.25507)
(3.7462e-16 -0.199999 -1.39075)
(1.94362e-16 -0.0480892 -1.63063)
(2.92805e-17 0.115571 -1.14242)
(8.17681e-17 0.323794 -0.970356)
(6.5136e-16 0.474389 -1.04619)
(8.60026e-16 0.488406 -0.748803)
(1.16107e-15 0.647291 -0.828508)
(1.47565e-15 0.726896 -0.830182)
(1.65645e-15 0.975975 -1.0521)
(1.25252e-15 0.890245 -0.755365)
(1.04734e-15 1.08537 -0.671064)
(9.51461e-16 1.06543 -0.852575)
(5.17268e-16 1.30974 -0.897287)
(-1.02496e-12 1.20594 4.60776)
(-9.06543e-14 1.61001 5.68913)
(7.62286e-14 1.75898 6.03734)
(1.18464e-13 2.20081 6.09167)
(1.19154e-13 2.43079 5.74999)
(1.13757e-13 1.68499 5.05039)
(6.59978e-14 -0.818529 4.01453)
(1.87779e-14 -2.72608 3.56602)
(-5.43235e-15 -3.71559 3.22791)
(-1.44337e-14 -4.0664 2.82382)
(-1.36023e-14 -3.84744 2.36493)
(-9.14378e-15 -3.05017 1.83735)
(-6.27945e-15 -1.9451 1.16914)
(-5.53053e-15 -1.43526 0.446516)
(-4.72515e-15 -1.3044 -0.0934117)
(-2.62532e-15 -1.54433 -0.332894)
(-1.08418e-15 -1.1336 -0.665787)
(-2.73744e-16 -0.792079 -0.761588)
(-1.66797e-16 0.00609469 -0.941716)
(-5.24978e-13 0.818598 5.42104)
(2.47043e-13 1.18945 6.04099)
(1.64342e-13 1.67384 5.70037)
(1.53273e-13 2.32792 5.26567)
(1.47161e-13 2.7697 4.76775)
(1.55655e-13 2.25013 4.312)
(1.21233e-13 -0.316547 3.56292)
(3.38734e-14 -2.63201 3.32892)
(-9.13949e-15 -3.55742 3.31732)
(-1.60622e-14 -3.81112 3.00572)
(-1.28914e-14 -3.50174 2.49641)
(-8.78147e-15 -2.58677 1.7952)
(-6.1744e-15 -1.40744 0.776257)
(-5.45489e-15 -1.07462 -0.17409)
(-4.78653e-15 -1.15061 -0.41994)
(-2.75865e-15 -1.38215 -0.317313)
(-1.17993e-15 -0.967334 -0.610346)
(-2.89332e-16 -0.720593 -0.73653)
(-5.14641e-16 0.0242441 -0.652607)
(-1.96286e-13 0.874786 5.51577)
(3.09199e-13 1.41497 5.55586)
(1.5774e-13 1.99354 5.05265)
(1.58376e-13 2.55897 4.78572)
(1.46109e-13 2.87045 4.65376)
(1.44833e-13 2.27227 4.59466)
(1.31038e-13 -0.268027 3.94456)
(7.02334e-14 -2.60538 3.27605)
(1.37999e-15 -3.51014 3.38528)
(-1.94937e-14 -3.66958 3.27807)
(-1.30344e-14 -3.27651 2.76385)
(-7.88899e-15 -2.24639 1.83485)
(-6.02415e-15 -1.00361 0.248902)
(-5.2717e-15 -0.897612 -1.11332)
(-4.86315e-15 -1.18782 -1.18149)
(-3.15372e-15 -1.42335 -0.573808)
(-1.51407e-15 -0.933048 -0.708209)
(-4.25036e-16 -0.724062 -0.789337)
(-4.15426e-16 0.182295 -0.762607)
(1.28328e-14 0.823087 5.34467)
(3.23049e-13 1.44895 5.11967)
(1.50572e-13 2.02035 4.84809)
(1.52415e-13 2.5105 4.99403)
(1.27229e-13 2.83365 5.32288)
(1.15116e-13 2.42114 5.60457)
(1.10953e-13 0.194043 5.03866)
(9.34283e-14 -2.44454 3.77803)
(3.1054e-14 -3.53217 3.55296)
(-1.53402e-14 -3.58697 3.61231)
(-1.55335e-14 -2.97991 3.16671)
(-6.8975e-15 -1.65526 1.92943)
(-4.72019e-15 -0.281038 -0.556454)
(-4.00913e-15 -0.684609 -2.26298)
(-4.69128e-15 -1.38232 -2.29421)
(-3.6895e-15 -1.53493 -1.25749)
(-1.99706e-15 -0.836206 -1.05974)
(-6.44729e-16 -0.754764 -1.02008)
(-7.4628e-16 0.121514 -1.3361)
(1.24282e-13 0.923949 5.06926)
(2.869e-13 1.58559 4.87757)
(1.23566e-13 2.0059 5.00992)
(1.26106e-13 2.3565 5.57796)
(9.49845e-14 2.64247 6.28139)
(7.68643e-14 2.38366 6.83817)
(7.47815e-14 0.558936 6.5174)
(8.6328e-14 -2.06674 5.03835)
(5.72918e-14 -3.42716 4.1836)
(2.36126e-15 -3.52243 4.08385)
(-1.64426e-14 -2.62718 3.6687)
(-6.80893e-15 -0.741738 1.89035)
(2.71809e-15 0.827438 -1.3955)
(5.55387e-15 -0.166147 -3.1245)
(-1.13086e-16 -1.64244 -3.44532)
(-3.77327e-15 -1.96191 -2.31464)
(-3.54557e-15 -1.02922 -1.83977)
(-1.78862e-15 -0.555129 -1.63773)
(-1.93212e-15 0.366711 -2.66125)
(1.29534e-13 0.903231 4.85089)
(2.16827e-13 1.502 4.9774)
(8.40973e-14 1.74924 5.52226)
(9.15733e-14 2.01377 6.42202)
(6.1769e-14 2.33846 7.36547)
(4.28227e-14 2.29901 8.12122)
(3.91253e-14 0.911406 8.10437)
(5.82475e-14 -1.55691 6.77416)
(5.8898e-14 -3.13276 5.4794)
(2.03927e-14 -3.37914 4.9023)
(-1.15477e-14 -2.13354 4.1408)
(-2.88304e-15 0.553804 1.67171)
(1.97713e-14 1.77854 -0.000737678)
(2.41462e-14 0.139279 -1.11293)
(1.50824e-14 -1.45102 -2.89959)
(4.14592e-15 -2.05442 -2.55462)
(-9.6953e-16 -1.06383 -2.26263)
(-1.84693e-15 -0.6553 -2.06309)
(-2.25337e-15 0.491432 -4.64484)
(5.68324e-14 0.846518 4.8556)
(1.39604e-13 1.31921 5.37981)
(4.82467e-14 1.41023 6.2027)
(6.15124e-14 1.61689 7.26216)
(3.57286e-14 1.97225 8.30443)
(2.12827e-14 2.09934 9.2602)
(1.72141e-14 1.10225 9.6723)
(2.95235e-14 -1.04491 8.74592)
(3.99027e-14 -2.65409 7.32711)
(2.41351e-14 -2.98552 6.16944)
(-4.02249e-16 -1.41551 4.74565)
(1.45019e-14 1.16646 3.28822)
(3.29913e-14 1.84084 4.10281)
(2.84593e-14 0.72256 3.56334)
(1.90164e-14 -1.50175 -0.0848937)
(1.17167e-14 -2.27682 -1.26009)
(6.29112e-15 -1.14396 -1.94793)
(5.14389e-15 0.891288 -2.80673)
(8.26523e-16 1.75219 -3.41531)
(-4.26057e-14 0.673303 5.0567)
(8.5336e-14 0.988464 5.95435)
(2.82896e-14 0.98998 6.87322)
(3.95503e-14 1.17989 7.92875)
(1.79875e-14 1.54714 9.01106)
(1.29251e-14 1.76078 10.2506)
(1.14457e-14 1.07322 11.2263)
(1.03335e-14 -0.693188 10.8044)
(1.33332e-14 -2.12386 9.25433)
(1.22439e-14 -2.35366 7.4582)
(1.05311e-14 -0.950687 5.89331)
(3.03335e-14 0.754331 6.52548)
(3.72298e-14 1.64775 8.39332)
(2.72363e-14 1.77156 8.65911)
(1.56083e-14 0.501225 6.24921)
(1.02064e-14 -0.942578 2.3439)
(7.01362e-15 -0.496934 1.10051)
(5.15209e-15 -0.932819 3.44379)
(5.63402e-15 -5.69196 8.51569)
(-1.07032e-13 0.446804 5.41866)
(7.13143e-14 0.61942 6.55993)
(2.13245e-14 0.605026 7.39138)
(2.12352e-14 0.763972 8.3599)
(5.89255e-15 1.04879 9.528)
(1.26272e-14 1.23932 11.1345)
(1.8348e-14 0.874871 12.7094)
(1.10443e-14 -0.232518 12.8931)
(2.79736e-15 -1.28989 11.408)
(6.11891e-15 -1.61428 9.41905)
(2.14765e-14 -0.957878 8.34535)
(3.82215e-14 0.141279 9.27307)
(3.78288e-14 1.07636 10.5664)
(3.10561e-14 1.41581 12.1665)
(2.35644e-14 0.63237 13.2049)
(1.608e-14 -0.4671 12.1263)
(1.38219e-14 -1.06432 11.0347)
(1.31325e-14 -1.74825 11.4014)
(1.28098e-14 -3.01899 11.3748)
(-8.82035e-14 0.16744 5.75718)
(7.79732e-14 0.234992 6.98727)
(1.50429e-14 0.249437 7.67391)
(4.42023e-15 0.328391 8.61143)
(-4.11935e-15 0.440322 9.94846)
(9.97392e-15 0.497773 11.9045)
(2.59515e-14 0.310258 13.9854)
(3.21596e-14 -0.220817 14.8719)
(2.82555e-14 -0.802554 13.7123)
(2.52935e-14 -1.12324 11.1553)
(2.77021e-14 -0.872774 8.58469)
(2.59376e-14 -0.103003 7.42979)
(2.19877e-14 0.565516 8.55309)
(2.1506e-14 0.832862 11.3378)
(2.48061e-14 0.60903 13.5543)
(2.45131e-14 0.0166534 13.6485)
(2.20586e-14 -0.668886 12.1079)
(2.00172e-14 -1.55644 9.52199)
(1.93254e-14 -2.92992 5.63131)
(2.3729e-14 -0.105878 5.6713)
(4.95949e-14 -0.100778 6.95701)
(1.31921e-14 -0.0638498 7.67301)
(-6.49273e-15 -0.137749 8.59419)
(-2.20147e-14 -0.257951 9.8858)
(-2.21077e-14 -0.34123 11.8183)
(-2.07743e-14 -0.31077 13.9707)
(-2.12659e-14 -0.109284 15.0546)
(-2.34568e-14 0.206739 14.0433)
(-2.61182e-14 0.483422 11.3957)
(-3.09272e-14 0.513019 8.6489)
(-3.2821e-14 0.0837464 7.49992)
(-2.89399e-14 -0.463466 8.74514)
(-2.77312e-14 -0.635018 11.4946)
(-2.8555e-14 -0.320135 13.5999)
(-2.64089e-14 0.204382 13.6236)
(-2.25408e-14 0.666706 12.0507)
(-1.95448e-14 1.47618 9.43301)
(-1.6439e-14 2.87182 5.55247)
(7.82958e-14 -0.410699 5.21435)
(6.5059e-14 -0.522491 6.45432)
(2.68214e-14 -0.43078 7.42243)
(-1.23471e-15 -0.552774 8.45068)
(-2.67078e-14 -0.842409 9.59118)
(-3.35673e-14 -1.10465 11.1827)
(-2.97776e-14 -0.978733 12.941)
(-1.93501e-14 -0.225849 13.5224)
(-1.01718e-14 0.668564 12.1467)
(-1.16572e-14 1.05672 10.0154)
(-2.5324e-14 0.67908 8.79199)
(-3.89378e-14 -0.164063 9.52048)
(-3.85858e-14 -0.981783 10.7548)
(-3.16406e-14 -1.13607 12.2292)
(-2.27377e-14 -0.257669 12.9534)
(-1.57567e-14 0.684308 11.7987)
(-1.36534e-14 1.04903 11.104)
(-1.25318e-14 1.66557 11.5275)
(-1.20681e-14 2.95156 11.3794)
(1.01148e-13 -0.651879 4.80937)
(8.86102e-14 -0.945302 5.74386)
(5.05799e-14 -0.87821 6.82224)
(1.7746e-14 -0.999263 8.03)
(-1.84796e-14 -1.34739 9.19522)
(-3.47225e-14 -1.66654 10.4828)
(-3.13311e-14 -1.29387 11.6443)
(-1.47214e-14 0.161657 11.5045)
(-1.70122e-15 1.54482 9.86439)
(1.19936e-15 1.85712 7.79363)
(-9.63731e-15 0.723904 5.94623)
(-3.09243e-14 -0.698855 6.30074)
(-3.52536e-14 -1.46359 8.02429)
(-2.55809e-14 -1.39236 7.95934)
(-1.45576e-14 -0.0586292 5.1574)
(-9.9645e-15 1.06119 1.884)
(-6.57838e-15 0.304689 1.13186)
(-4.17877e-15 0.93801 3.7067)
(-3.83748e-15 5.71631 8.61208)
(9.59091e-14 -0.822355 4.63864)
(9.8552e-14 -1.30362 5.12199)
(7.23979e-14 -1.36215 6.04211)
(4.43297e-14 -1.50089 7.26463)
(2.75195e-15 -1.82104 8.47287)
(-2.47435e-14 -2.05849 9.56414)
(-2.90043e-14 -1.40002 10.1935)
(-1.40898e-14 0.52283 9.48919)
(7.64861e-17 2.15934 7.94955)
(4.46673e-15 2.64376 6.51351)
(-1.40122e-15 1.35656 4.79365)
(-1.83792e-14 -1.03046 2.92051)
(-3.05885e-14 -1.58998 3.37492)
(-2.61344e-14 -0.17313 2.50881)
(-1.78094e-14 1.76584 -0.87846)
(-1.12334e-14 2.13959 -1.38642)
(-7.4041e-15 0.866628 -2.01102)
(-6.73711e-15 -1.05127 -2.82974)
(-7.69833e-16 -1.74093 -3.40887)
(7.4596e-14 -0.86289 4.69515)
(8.91733e-14 -1.48229 4.74805)
(8.12334e-14 -1.73907 5.30277)
(6.78684e-14 -1.96305 6.30361)
(3.14965e-14 -2.25916 7.41457)
(-2.3181e-15 -2.33549 8.35279)
(-1.49984e-14 -1.31078 8.59987)
(-2.49811e-15 1.01345 7.44201)
(9.90103e-15 2.70324 5.93908)
(7.24778e-15 3.13189 5.07302)
(8.58965e-16 2.15789 4.17036)
(-4.12742e-15 -0.108653 1.76242)
(-1.72315e-14 -1.34846 -0.493906)
(-1.90728e-14 0.140404 -2.05941)
(-1.19172e-14 1.47965 -2.98686)
(-4.78598e-15 1.81216 -2.37835)
(-1.41613e-15 0.78758 -2.17659)
(-1.96231e-16 0.568551 -2.02558)
(4.95792e-16 -0.447238 -4.60444)
(5.16945e-14 -0.869204 4.97653)
(6.74553e-14 -1.54646 4.72605)
(7.36669e-14 -2.00253 4.80627)
(7.832e-14 -2.34956 5.39338)
(5.74315e-14 -2.63481 6.20203)
(2.77276e-14 -2.50873 6.92978)
(1.13255e-14 -1.06125 6.92751)
(1.73461e-14 1.55857 5.58149)
(1.71814e-14 3.1115 4.41568)
(5.03558e-15 3.36214 4.10118)
(1.08347e-17 2.6212 3.63033)
(6.174e-16 1.08562 2.0392)
(-2.55445e-15 -0.161052 -1.03523)
(-3.26825e-15 0.614432 -2.75133)
(-1.13965e-15 1.69794 -2.87487)
(3.69616e-16 1.77191 -1.88637)
(4.33009e-16 0.818548 -1.72672)
(6.2061e-17 0.458387 -1.65036)
(-1.7289e-16 -0.362015 -2.63594)
(3.79992e-14 -0.758592 5.28394)
(4.52822e-14 -1.38492 5.04863)
(5.54212e-14 -1.996 4.70949)
(7.27158e-14 -2.50992 4.81662)
(7.10593e-14 -2.86768 5.17323)
(5.41588e-14 -2.62936 5.57967)
(3.86239e-14 -0.813067 5.35075)
(3.09179e-14 1.98154 4.10003)
(1.36291e-14 3.30235 3.57759)
(6.31437e-16 3.45737 3.58311)
(3.43083e-16 2.95459 3.1369)
(1.40778e-15 1.85819 1.99825)
(4.81125e-16 0.748017 -0.0827964)
(-3.46098e-18 0.957195 -1.66035)
(3.47935e-17 1.35281 -1.72887)
(7.25016e-17 1.44557 -0.993506)
(-1.31295e-17 0.730071 -1.05358)
(-8.06366e-17 0.690601 -1.07894)
(-4.95002e-16 -0.0988269 -1.37452)
(3.62698e-14 -0.817246 5.45291)
(3.14776e-14 -1.34597 5.53615)
(3.62562e-14 -1.94933 4.9906)
(5.62187e-14 -2.55059 4.66667)
(6.94841e-14 -2.93121 4.50248)
(6.72003e-14 -2.56065 4.49997)
(5.39285e-14 -0.423027 4.12062)
(2.82485e-14 2.23821 3.35765)
(4.64177e-15 3.3202 3.34552)
(-7.66579e-16 3.53964 3.26486)
(1.16088e-15 3.23719 2.74859)
(1.46728e-15 2.38497 1.86725)
(8.87706e-16 1.3602 0.485471)
(5.11373e-16 1.19285 -0.697007)
(3.91794e-16 1.31288 -0.844559)
(3.02511e-16 1.45254 -0.467739)
(1.47076e-16 0.858265 -0.719776)
(-2.36419e-17 0.658656 -0.82356)
(1.4904e-16 -0.20363 -0.824881)
(4.34186e-14 -0.773324 5.32845)
(2.58411e-14 -1.12299 6.0217)
(2.0092e-14 -1.60784 5.68354)
(3.36156e-14 -2.29038 5.19948)
(5.53467e-14 -2.81232 4.63719)
(6.41959e-14 -2.56168 4.20322)
(5.11095e-14 -0.419296 3.62315)
(1.51556e-14 2.26153 3.30021)
(6.15729e-16 3.36343 3.2972)
(2.09778e-16 3.67944 3.00667)
(1.31782e-15 3.46156 2.48604)
(1.41885e-15 2.70343 1.80555)
(1.00315e-15 1.72562 0.885783)
(6.37914e-16 1.36618 0.0430093)
(4.74815e-16 1.28221 -0.256981)
(3.10726e-16 1.43959 -0.274096)
(1.46303e-16 0.901937 -0.598025)
(1.43103e-17 0.674834 -0.740668)
(4.5299e-18 -0.0376437 -0.708141)
(8.22568e-14 -1.1801 4.49462)
(4.70582e-14 -1.57274 5.62724)
(2.85429e-14 -1.69989 6.00986)
(1.83314e-14 -2.15158 6.0608)
(2.98346e-14 -2.48355 5.70481)
(3.75516e-14 -2.05253 5.07228)
(2.6031e-14 0.155311 4.11978)
(7.56947e-15 2.39461 3.57954)
(1.50166e-15 3.51362 3.23411)
(6.11061e-16 3.93602 2.82778)
(1.18087e-15 3.79933 2.35577)
(1.44327e-15 3.13319 1.83237)
(1.0501e-15 2.20202 1.19972)
(6.87923e-16 1.71137 0.529233)
(5.02235e-16 1.4769 -0.00996775)
(3.26089e-16 1.63069 -0.297562)
(1.67118e-16 1.07893 -0.636306)
(2.35046e-17 0.758372 -0.756323)
(-3.93708e-17 -0.0305366 -0.944081)
(-9.34016e-17 8.54889 14.1295)
(-3.92671e-15 14.5234 25.0604)
(-3.36737e-15 15.2599 24.3938)
(-3.61509e-15 14.2969 23.1463)
(-3.53864e-15 13.5628 20.9613)
(-4.90245e-15 12.3973 18.8133)
(-5.45296e-15 11.3335 16.6735)
(-5.35995e-15 10.5639 15.3229)
(-5.10689e-15 10.0912 14.4737)
(-5.21623e-15 9.79911 14.01)
(-5.35761e-15 9.60496 13.7573)
(-5.37896e-15 9.43875 13.5875)
(-5.35242e-15 9.26973 13.4456)
(-5.53227e-15 9.09091 13.3108)
(-5.837e-15 8.87942 13.1516)
(-5.9576e-15 8.61797 12.9417)
(-6.01468e-15 8.27935 12.6154)
(-6.29942e-15 7.73082 12.0627)
(-6.53674e-15 7.10696 11.2201)
(-9.01266e-15 4.93738 8.39568)
(2.91099e-17 8.55446 13.7171)
(-3.29626e-15 13.8513 24.464)
(-2.31401e-15 14.356 23.6546)
(-2.74051e-15 13.4557 22.984)
(-2.50565e-15 12.7619 20.9209)
(-4.23479e-15 11.5006 18.8339)
(-4.05851e-15 10.5975 16.9286)
(-3.88531e-15 9.84083 15.4617)
(-3.86844e-15 9.31727 14.3846)
(-4.09308e-15 8.93456 13.6275)
(-4.43854e-15 8.64858 13.103)
(-4.63947e-15 8.42244 12.7305)
(-4.73468e-15 8.21425 12.4397)
(-4.90907e-15 8.00184 12.1629)
(-5.17654e-15 7.73792 11.8581)
(-5.29289e-15 7.42363 11.4629)
(-5.3203e-15 6.97211 10.9348)
(-5.72787e-15 6.35214 10.0764)
(-6.09675e-15 5.49325 8.97568)
(-9.20836e-15 3.34712 5.38302)
(1.45728e-17 9.06216 15.0583)
(-1.04671e-15 14.7866 26.0473)
(-9.34114e-16 15.5 25.6891)
(-7.12566e-16 14.5345 24.6928)
(-6.82922e-16 13.6333 22.4309)
(-2.13674e-15 12.3408 20.2524)
(-1.61297e-15 11.3527 18.2582)
(-1.43016e-15 10.5148 16.6473)
(-1.55878e-15 9.87254 15.3521)
(-1.70168e-15 9.35497 14.328)
(-1.87012e-15 8.93791 13.5387)
(-2.03167e-15 8.59646 12.9323)
(-2.15442e-15 8.28112 12.4352)
(-2.21177e-15 7.96402 11.9652)
(-2.27832e-15 7.58908 11.4741)
(-2.37753e-15 7.16339 10.8838)
(-2.34522e-15 6.58263 10.162)
(-2.60827e-15 5.85863 9.10324)
(-2.98619e-15 4.85751 7.82748)
(-5.80582e-15 2.62846 4.01426)
(5.04418e-18 9.00671 15.0723)
(2.65592e-16 15.4395 27.051)
(2.08598e-16 16.1016 26.8298)
(2.11923e-16 14.8308 25.2419)
(2.27036e-16 13.6819 22.743)
(-1.26637e-15 12.4061 20.6215)
(-1.20338e-15 11.4706 18.7939)
(-1.25811e-15 10.6566 17.2442)
(-1.47446e-15 9.96111 15.873)
(-1.5984e-15 9.33722 14.6487)
(-1.65704e-15 8.78873 13.6046)
(-1.82914e-15 8.31893 12.7401)
(-2.075e-15 7.88231 12.0026)
(-2.10094e-15 7.45251 11.3073)
(-2.23371e-15 6.96417 10.6056)
(-2.36379e-15 6.43512 9.80623)
(-2.31814e-15 5.73673 8.88469)
(-2.89576e-15 4.92585 7.60415)
(-3.33091e-15 3.73861 6.08649)
(-8.29584e-15 1.44681 1.71144)
(-9.49297e-19 9.15186 15.5604)
(-6.26354e-17 16.3017 28.3568)
(-5.10668e-17 16.663 28.0193)
(-5.42944e-17 15.0587 25.6906)
(-6.94114e-17 13.7344 23.1199)
(2.5878e-16 12.5997 21.1626)
(3.17743e-16 11.7309 19.5365)
(3.37339e-16 10.963 18.0514)
(3.7239e-16 10.2281 16.6607)
(4.04754e-16 9.54166 15.3247)
(4.34319e-16 8.89415 14.1071)
(4.68514e-16 8.31179 13.0161)
(5.0615e-16 7.75012 12.0307)
(5.33004e-16 7.20025 11.0854)
(5.61094e-16 6.59679 10.152)
(5.91659e-16 5.97634 9.14409)
(5.99854e-16 5.18615 8.03481)
(6.89023e-16 4.30503 6.57124)
(7.96974e-16 2.95974 4.78255)
(1.97733e-15 0.854981 0.496972)
(1.974e-19 9.25426 15.8385)
(1.45276e-17 16.9665 29.3329)
(1.25722e-17 16.9014 28.673)
(1.29916e-17 15.0285 25.6786)
(1.9584e-17 13.6443 23.2278)
(-5.54957e-17 12.686 21.4496)
(-8.17272e-17 11.8272 19.9789)
(-8.84016e-17 11.0858 18.5168)
(-9.10429e-17 10.2938 17.1321)
(-9.76654e-17 9.5725 15.7506)
(-1.07532e-16 8.84762 14.4546)
(-1.15311e-16 8.17951 13.2168)
(-1.2137e-16 7.50571 12.046)
(-1.26563e-16 6.85193 10.8898)
(-1.35191e-16 6.14609 9.76033)
(-1.45349e-16 5.46178 8.5677)
(-1.5223e-16 4.57733 7.27051)
(-1.70329e-16 3.62157 5.56296)
(-1.98052e-16 2.01803 3.38757)
(1.64378e-16 0.0324955 -1.01904)
(-3.2477e-20 9.52537 16.3419)
(-3.32817e-18 17.4725 30.0882)
(-3.0371e-18 16.9607 28.9909)
(-3.00675e-18 14.9685 25.594)
(-5.1136e-18 13.6081 23.3649)
(1.22007e-17 12.7835 21.6983)
(2.03153e-17 11.8784 20.2949)
(2.19723e-17 11.1392 18.8012)
(2.18512e-17 10.2781 17.4113)
(2.33278e-17 9.53554 16.0014)
(2.58448e-17 8.7485 14.6767)
(2.75439e-17 8.02903 13.3671)
(2.83047e-17 7.28173 12.1074)
(2.94341e-17 6.57423 10.8397)
(3.17176e-17 5.81235 9.61524)
(3.44247e-17 5.10994 8.31733)
(3.67763e-17 4.15195 6.87861)
(4.02777e-17 3.11763 4.92218)
(5.59252e-17 1.34963 2.48565)
(-2.87529e-16 -0.492744 -1.71982)
(-1.22016e-21 9.89704 16.891)
(7.51909e-19 17.7758 30.5669)
(7.18997e-19 16.9224 29.0472)
(6.83887e-19 14.9376 25.5016)
(1.26961e-18 13.5973 23.4216)
(-2.68035e-18 12.8225 21.771)
(-4.8786e-18 11.864 20.3725)
(-5.28521e-18 11.1104 18.8423)
(-5.25099e-18 10.2031 17.4363)
(-5.61404e-18 9.44043 16.0069)
(-6.16055e-18 8.61928 14.6678)
(-6.49807e-18 7.87735 13.3392)
(-6.58056e-18 7.10742 12.0647)
(-6.81895e-18 6.38867 10.7782)
(-7.36427e-18 5.61484 9.53815)
(-8.01037e-18 4.90178 8.20498)
(-8.64897e-18 3.90128 6.67351)
(-9.7872e-18 2.76641 4.52676)
(-1.78322e-17 1.06571 2.10788)
(-1.68172e-16 -0.757481 -2.02212)
(2.92734e-21 10.3874 17.5816)
(-1.67938e-19 18.0511 30.936)
(-1.6796e-19 16.9573 29.1182)
(-1.54626e-19 15.0532 25.526)
(-3.05436e-19 13.694 23.4921)
(5.6734e-19 12.9281 21.8014)
(1.1323e-18 11.9539 20.375)
(1.25603e-18 11.1806 18.8259)
(1.27077e-18 10.2778 17.3929)
(1.35292e-18 9.49603 15.9574)
(1.45746e-18 8.6823 14.6038)
(1.52151e-18 7.93011 13.2787)
(1.53295e-18 7.16512 12.0001)
(1.58479e-18 6.42643 10.7107)
(1.71347e-18 5.63697 9.43843)
(1.86599e-18 4.85995 8.07071)
(2.03006e-18 3.83766 6.47726)
(2.28044e-18 2.61206 4.29326)
(2.04841e-18 1.09586 2.05708)
(-1.09755e-17 -0.851792 -2.06118)
(-1.40135e-21 11.1484 18.7532)
(3.71694e-20 18.5385 31.4119)
(3.92848e-20 17.1353 29.3246)
(3.49339e-20 15.3848 25.71)
(7.22652e-20 13.9929 23.7092)
(-1.08207e-19 13.25 21.9588)
(-2.52007e-19 12.2921 20.4868)
(-2.96435e-19 11.5102 18.917)
(-3.07339e-19 10.6457 17.4429)
(-3.23192e-19 9.85446 15.9878)
(-3.4085e-19 9.06055 14.593)
(-3.53109e-19 8.28701 13.2287)
(-3.57683e-19 7.49655 11.8805)
(-3.70563e-19 6.68525 10.5092)
(-4.00918e-19 5.81398 9.11253)
(-4.38684e-19 4.89689 7.62571)
(-4.84052e-19 3.79647 5.93897)
(-5.86719e-19 2.47262 3.7643)
(-3.61822e-19 0.938662 1.5119)
(3.08103e-17 -0.953912 -2.26261)
(5.53388e-22 12.5471 21.1947)
(-8.2412e-21 19.373 32.1732)
(-9.45119e-21 17.3602 29.6387)
(-8.04151e-21 15.9498 26.1342)
(-1.70916e-20 14.5396 24.2816)
(1.66603e-20 13.8888 22.4743)
(5.24479e-20 12.9532 20.9706)
(6.88372e-20 12.2131 19.3662)
(7.4208e-20 11.4041 17.8465)
(7.72306e-20 10.6328 16.324)
(7.97807e-20 9.83971 14.8152)
(8.1994e-20 9.01006 13.2894)
(8.40269e-20 8.11782 11.727)
(8.79272e-20 7.15354 10.1099)
(9.52865e-20 6.09743 8.43656)
(1.05068e-19 4.95689 6.67146)
(1.16665e-19 3.64779 4.75797)
(1.13849e-19 2.15319 2.44965)
(6.41886e-19 0.377159 0.0601291)
(1.1478e-17 -1.19879 -3.17251)
(-2.04288e-22 14.6548 25.3468)
(1.88904e-21 20.2447 32.9552)
(2.43865e-21 17.3634 29.9899)
(2.02462e-21 16.6325 26.9083)
(4.1848e-21 15.1702 25.397)
(-1.53165e-21 14.7413 23.5768)
(-9.92694e-21 13.8029 22.1584)
(-1.54491e-20 13.2121 20.5728)
(-1.80137e-20 12.4651 19.0639)
(-1.91604e-20 11.7267 17.4218)
(-1.97855e-20 10.854 15.6698)
(-2.03677e-20 9.85254 13.7779)
(-2.12321e-20 8.71445 11.7762)
(-2.27288e-20 7.46526 9.68697)
(-2.50932e-20 6.09567 7.53247)
(-2.83051e-20 4.62757 5.27511)
(-3.41439e-20 2.94911 2.91795)
(-4.94589e-20 1.18606 0.193816)
(3.18705e-19 -1.11856 -2.54747)
(-8.18347e-19 -2.28642 -5.78649)
(6.98607e-23 16.6297 29.8693)
(-4.6919e-22 20.1901 32.6296)
(-6.78156e-22 16.8011 30.1167)
(-5.73818e-22 16.9283 27.6876)
(-1.09194e-21 15.2425 26.6054)
(-9.24054e-23 15.1219 24.8656)
(1.82197e-21 14.0786 23.7546)
(3.3951e-21 13.7078 22.3187)
(4.28699e-21 12.8882 20.9139)
(4.68766e-21 12.0319 19.0353)
(4.82056e-21 10.7852 16.8162)
(4.95137e-21 9.36047 14.3237)
(5.33921e-21 7.78889 11.7417)
(5.97377e-21 6.1467 9.09478)
(6.51445e-21 4.40419 6.39691)
(7.24491e-21 2.59905 3.58554)
(8.15173e-21 0.57285 0.723821)
(9.34762e-21 -1.07714 -2.43039)
(-3.91518e-20 -3.42475 -4.81546)
(-2.56072e-18 -3.84424 -8.64995)
(-2.15831e-23 17.149 31.8558)
(1.32793e-22 18.6858 30.4656)
(1.98896e-22 15.6831 29.414)
(1.7871e-22 16.0787 27.299)
(3.03541e-22 14.126 26.431)
(5.17833e-23 14.0237 24.8367)
(-4.50659e-22 12.7823 23.9949)
(-8.70564e-22 12.3466 22.6857)
(-1.11674e-21 11.139 21.2084)
(-1.31277e-21 9.80664 18.8381)
(-1.47151e-21 7.93376 16.0005)
(-1.20152e-21 6.10496 13.0328)
(-2.31223e-22 4.29197 10.2011)
(1.32631e-22 2.51112 7.33903)
(-2.65303e-21 0.699253 4.4276)
(-5.27738e-21 -1.05974 1.6162)
(8.84708e-21 -2.54247 -0.761688)
(3.76871e-20 -3.95021 -3.48622)
(-7.27326e-20 -5.51049 -6.27125)
(-6.29297e-19 -3.36372 -5.03302)
(5.25162e-24 16.1239 30.5391)
(-4.02121e-23 17.4636 28.3914)
(-5.75737e-23 14.5176 27.7985)
(-5.59369e-23 14.8418 25.4736)
(-7.29055e-23 12.733 24.5922)
(1.40032e-23 12.4244 22.9703)
(1.52062e-22 11.0513 22.0552)
(2.45716e-22 10.2807 20.7216)
(2.36574e-22 8.84798 19.1181)
(7.62552e-23 7.24155 16.7304)
(-3.36643e-23 5.37399 14.0451)
(5.63809e-22 3.71771 11.4755)
(2.03003e-21 2.17822 9.03281)
(1.77233e-21 0.645335 6.44769)
(-6.2768e-21 -0.851928 3.83673)
(-2.19076e-20 -2.17713 1.37998)
(-2.03208e-20 -2.84609 -0.264544)
(2.89085e-20 -1.75326 0.524226)
(9.21489e-20 1.37338 4.42617)
(6.9038e-20 3.50811 7.94944)
(-7.80996e-25 15.2038 29.5457)
(1.02682e-23 17.5817 27.341)
(1.35485e-23 13.8326 26.7338)
(1.40746e-23 14.8345 23.8744)
(1.51466e-23 12.2949 22.9475)
(-9.55225e-24 12.1955 20.8441)
(-3.61906e-23 10.6754 19.6394)
(-4.03851e-23 9.96625 18.0689)
(-3.86465e-23 8.76837 16.604)
(-7.91699e-23 7.67882 14.7965)
(-1.113e-22 6.52725 12.9315)
(1.43738e-22 5.59396 11.1828)
(8.44523e-22 4.76164 9.52297)
(1.25911e-21 3.91403 7.69426)
(-4.55042e-22 3.20782 5.95766)
(-5.33251e-21 3.19748 5.28749)
(-1.03295e-20 4.04866 6.05654)
(-1.28273e-20 4.92123 7.41129)
(-1.4052e-20 5.98814 8.52599)
(-1.37694e-20 4.85083 8.47764)
(2.31495e-25 14.9059 30.0546)
(-2.52857e-24 18.2013 27.3625)
(-3.99342e-24 13.8055 27.0384)
(-2.86976e-24 15.3042 24.0586)
(2.91454e-25 12.7932 23.1605)
(6.69021e-24 12.8152 21.0381)
(9.18869e-24 11.5075 19.6763)
(4.63151e-24 10.9385 18.0349)
(-3.4868e-25 10.1229 16.6695)
(1.35842e-23 9.5387 15.3495)
(5.18266e-23 8.96898 14.1079)
(5.63501e-23 8.44587 12.8286)
(-4.819e-23 7.92511 11.5171)
(-2.16938e-22 7.42703 10.2001)
(-2.02566e-22 6.93488 8.83888)
(2.56115e-22 6.34828 7.34166)
(1.36476e-21 5.48655 5.68024)
(2.99865e-21 4.26574 3.80655)
(4.96753e-21 2.49477 1.99363)
(1.08524e-20 1.02937 -0.0636595)
(1.57817e-25 14.266 30.707)
(3.22675e-25 18.2792 27.4741)
(-5.73584e-25 13.4786 27.4821)
(-8.05154e-25 14.6733 24.9429)
(8.80985e-25 12.5357 23.9905)
(2.41525e-24 12.2375 22.2842)
(2.08784e-24 11.1888 21.022)
(-4.11041e-25 10.5923 19.6318)
(-3.17956e-24 9.89818 18.365)
(-7.4437e-25 9.32421 17.0966)
(1.21764e-23 8.75221 15.8555)
(2.68998e-23 8.20965 14.5989)
(2.00295e-23 7.66482 13.3047)
(-4.84285e-24 7.10165 11.9092)
(5.64047e-23 6.3812 10.254)
(3.82443e-22 5.3011 7.96889)
(9.2952e-22 3.5137 4.79676)
(1.0019e-21 1.52971 1.09486)
(1.05906e-22 -1.12378 -1.91436)
(8.78359e-21 -2.08406 -6.05163)
(7.4842e-26 11.4046 28.7869)
(3.09192e-26 17.1371 25.2298)
(-5.80856e-25 12.1452 25.6396)
(-1.22955e-24 12.82 23.9242)
(-7.89813e-25 11.0959 23.1827)
(6.99407e-25 10.4563 22.0995)
(1.72534e-24 9.49158 21.1889)
(1.46723e-24 8.74669 20.2413)
(1.55596e-24 8.00421 19.3218)
(5.39396e-24 7.33492 18.391)
(1.13265e-23 6.70436 17.4528)
(3.88335e-24 6.12365 16.5052)
(-2.48689e-23 5.58205 15.5385)
(2.03136e-23 5.0217 14.4425)
(4.30853e-22 4.2505 12.8702)
(1.46122e-21 2.93935 10.2089)
(2.63087e-21 0.920981 6.00358)
(2.72755e-21 -1.45031 0.911094)
(1.95525e-21 -3.15324 -3.16567)
(2.50923e-21 -2.44004 -4.50595)
(2.14983e-26 2.69666 17.1297)
(8.41556e-26 8.07522 13.7747)
(-3.49653e-26 5.17827 14.6526)
(-4.21242e-25 4.97797 14.2673)
(-9.15057e-25 4.03537 14.2453)
(-1.28685e-24 3.45255 14.087)
(-1.58658e-24 2.8559 13.9447)
(-2.23557e-24 2.36106 13.7654)
(-3.43721e-24 1.92557 13.5645)
(-4.08653e-24 1.56349 13.3387)
(-1.23988e-24 1.27185 13.09)
(6.89194e-24 1.05228 12.8165)
(1.19936e-23 0.905044 12.5227)
(-1.26854e-23 0.849782 12.2265)
(-9.70617e-23 0.925745 11.9554)
(-2.19675e-22 1.12272 11.7269)
(-2.74525e-22 1.48406 11.3922)
(-1.81951e-22 2.29445 10.4807)
(-4.73623e-23 2.65376 8.96026)
(-8.203e-24 -0.108712 6.79561)
(-2.06524e-26 -2.69677 17.1298)
(-8.07409e-26 -8.07533 13.7749)
(3.77993e-26 -5.17836 14.6527)
(4.20508e-25 -4.97805 14.2675)
(9.13122e-25 -4.0354 14.2455)
(1.28867e-24 -3.45253 14.0872)
(1.59571e-24 -2.85583 13.9448)
(2.25467e-24 -2.36095 13.7655)
(3.46652e-24 -1.92544 13.5646)
(4.12234e-24 -1.56337 13.3389)
(1.2852e-24 -1.27174 13.0903)
(-6.79237e-24 -1.05215 12.8168)
(-1.1707e-23 -0.904921 12.5232)
(1.33701e-23 -0.849838 12.2275)
(9.82553e-23 -0.926298 11.9573)
(2.21062e-22 -1.12403 11.7296)
(2.75388e-22 -1.48608 11.3948)
(1.82061e-22 -2.29683 10.4823)
(4.73983e-23 -2.65602 8.96168)
(8.39617e-24 0.108199 6.79776)
(-7.47801e-26 -11.405 28.7876)
(-3.83145e-26 -17.1371 25.2307)
(5.64788e-25 -12.1454 25.6403)
(1.21369e-24 -12.8199 23.925)
(7.76709e-25 -11.0958 23.1836)
(-7.21002e-25 -10.456 22.1004)
(-1.74946e-24 -9.4911 21.1899)
(-1.48068e-24 -8.74595 20.2423)
(-1.56267e-24 -8.00316 19.3227)
(-5.44708e-24 -7.33357 18.3918)
(-1.15353e-23 -6.70281 17.4536)
(-4.38788e-24 -6.12208 16.5062)
(2.38306e-23 -5.5805 15.5397)
(-2.25563e-23 -5.0196 14.4429)
(-4.35432e-22 -4.24642 12.8672)
(-1.46771e-21 -2.93187 10.1994)
(-2.63418e-21 -0.911943 5.98965)
(-2.72291e-21 1.45419 0.903812)
(-1.94766e-21 3.14829 -3.15826)
(-2.50029e-21 2.43774 -4.49493)
(-1.51441e-25 -14.2671 30.7083)
(-2.81031e-25 -18.2796 27.4751)
(6.05135e-25 -13.4794 27.4832)
(8.0429e-25 -14.674 24.9443)
(-8.96146e-25 -12.5367 23.9919)
(-2.36292e-24 -12.2384 22.2859)
(-1.98338e-24 -11.1899 21.024)
(5.58397e-25 -10.5935 19.6342)
(3.41069e-24 -9.8993 18.3675)
(1.06098e-24 -9.32504 17.0988)
(-1.19335e-23 -8.75253 15.857)
(-2.71748e-23 -8.20938 14.5996)
(-2.164e-23 -7.66422 13.3049)
(1.1075e-24 -7.10074 11.9087)
(-6.25774e-23 -6.37838 10.2506)
(-3.88923e-22 -5.29482 7.95959)
(-9.29313e-22 -3.50234 4.78235)
(-9.82747e-22 -1.51962 1.08202)
(-5.4073e-23 1.12508 -1.9125)
(-8.72197e-21 2.09613 -6.05354)