/*--------------------------------*- C++ -*----------------------------------*\
| =========                 |                                                 |
| \\      /  F ield         | OpenFOAM: The Open Source CFD Toolbox           |
|  \\    /   O peration     | Version:  4.1                                   |
|   \\  /    A nd           | Web:      www.OpenFOAM.org                      |
|    \\/     M anipulation  |                                                 |
\*---------------------------------------------------------------------------*/
FoamFile
{
    version     2.0;
    format      ascii;
    class       volScalarField;
    location    "7";
    object      p;
}
// * * * * * * * * * * * * * * * * * * * * * * * * * * * * * * * * * * * * * //

dimensions      [0 2 -2 0 0 0 0];

internalField   nonuniform List<scalar> 
1280
(
-5.18739
4.95684
-5.50532
-17.36
1.08803
-16.4865
-33.5872
-34.4664
-27.2714
-46.6998
-89.5925
-55.1669
-93.8631
-178.137
-122.631
-220.302
-346.498
-430.499
-151.55
-1469.91
9.20503
1260.09
1801.35
2271.59
2331.43
3146.92
-1232.67
705.366
643.448
512.124
430.247
358.783
297.185
236.338
188.129
124.189
92.5421
-14.7947
-18.3154
-362.68
-3318.04
-1874.27
-1241.05
-1004.17
49.4908
-340.322
-198.315
-166.077
-640.737
-140.023
-149.182
-666.602
-160.586
-195.137
-346.628
60.934
-955.687
-1179.63
-1819.49
-3123.24
77.2138
349.297
325.245
371.975
347.774
347.083
314.112
269.102
195.269
137.519
115.483
105.566
207.883
-1520.76
2256.83
1487.71
1419.05
1079.33
891.68
53.3078
-1206.84
-148.719
-433.336
-349.146
-247.678
-181.729
-218.564
-126.078
-102.634
-133.529
-76.2008
-64.6235
-70.8572
-63.8251
-35.9815
-17.9201
-39.7043
-15.9018
-4.77654
-16.4968
-13.7667
70.1567
8.88154
-53.771
-60.7489
-75.366
-146.792
-77.0175
-17.9791
36.9031
93.7137
144.429
-29.0733
-22.432
-35.1076
-48.8849
-37.4464
-31.3916
1.32991
-72.6782
-6.41768
-40.8988
1.56586
10.7714
-40.7756
-175.874
-64.4045
40.6894
169.568
245.236
305.969
28.1806
-111.661
-151.966
-113.314
-44.8433
-44.03
-4.76824
-42.9714
23.969
-35.7752
-34.3352
-53.1991
-88.2913
-236.003
-97.5873
58.0781
244.492
313.908
345.939
28.3254
-270.057
-311.211
-190.852
-61.6951
-72.0696
-16.311
-41.242
5.61535
-23.4214
-11.249
-73.2643
-195.58
-302.987
-152.15
60.509
312.072
417.85
420.84
44.72
-375.779
-420.619
-268.552
-65.4306
-56.2219
43.6961
-12.2511
34.118
6.08551
-1.12055
-105.859
-292.883
-342.415
-209.354
86.1177
437.986
522.365
447.435
98.1003
-416.397
-470.16
-354.622
-82.3211
-127.829
-25.4545
-7.45918
49.4579
31.7294
25.0452
-98.4182
-328.201
-356.076
-271.785
67.0909
416.279
952.303
764.387
235.73
-370.475
-497.776
-367.632
-31.827
20.4964
192.867
3.87849
83.1565
62.9917
52.0575
-71.8899
-306.403
-359.832
-298.825
37.0724
360.822
1318
1057.65
376.269
-232.097
-482.591
-445.248
-48.3948
-269.287
-128.703
-1.56185
111.475
85.9703
77.0721
-31.6621
-240.475
-349.252
-306.905
17.7715
449.803
1220.42
927.441
429.358
-65.473
-306.747
-259.874
178.975
708.974
720.819
-8.26159
136.481
102.295
91.409
0.77129
-162.319
-286.473
-270.559
-31.6532
379.936
998.409
827.93
433.029
94.7033
-65.9867
20.826
401.696
1689.9
3763.82
-17.9266
149.798
111.875
98.8359
23.3487
-106.72
-227.566
-222.534
-37.881
326.536
772.874
641.158
422.432
234.744
169.465
260.091
697.689
2338.01
2355.12
-11.78
148.868
114.55
100.136
38.1426
-74.1292
-206.03
-230.81
-82.3202
252.814
565.936
468.43
379.259
352.024
347.231
389.999
707.629
2342.9
2425.13
5.21268
122.527
108.971
97.9819
48.673
-54.9867
-208.104
-258.665
-132.904
182.618
420.673
420.815
409.714
486.763
615.691
580.216
509.358
1635.36
3758.78
22.6156
81.923
95.429
88.309
51.7467
-53.0561
-252.35
-326.568
-199.871
138.264
374.594
452.991
483.749
538.807
678.049
529.226
306.304
548.073
780.221
32.2558
34.0435
71.0808
68.6316
41.813
-70.3906
-325.591
-380.945
-237.343
127.945
329.517
407.434
476.535
535.361
592.335
348.895
97.6658
-432.666
-244.341
19.9487
-19.5492
30.9548
38.2292
23.3144
-95.1908
-395.173
-388.767
-259.762
118.425
296.079
356.891
416.457
448.117
491.753
335.715
147.248
3.86173
240.099
10.6442
-45.8246
-5.61442
1.16442
-12.0388
-130.697
-419.721
-398.903
-242.657
87.1089
236.103
303.507
372.308
386.582
393.263
255.708
96.8753
-74.3603
10.4963
-37.0839
-76.1393
-53.2301
-33.1671
-25.1451
-110.467
-330.396
-413.013
-193.625
56.8915
183.158
251.69
311.778
322.355
308.418
207.527
110.386
2.63817
58.1638
-45.3583
-29.2461
-55.6038
-63.5787
-69.3008
-110.68
-183.504
-359.281
-137.061
36.9573
139.386
199.422
249.033
260.965
244.326
173.756
91.5152
-2.27482
10.317
-87.4472
-50.7331
-86.9419
-59.6908
-5.34161
13.6885
-24.5046
-279.606
-94.9356
24.8639
104.607
154.691
195.234
204.946
193.102
139.323
72.2898
11.7563
11.549
-21.1944
66.4439
25.4639
-19.6488
-96.2548
-134.283
-65.5479
-242.261
-121.347
-22.9514
11.2512
26.3344
46.5411
56.7986
62.323
35.5384
16.0515
-4.90505
5.85563
11743.6
11777.4
11710
11644.1
11516.8
11382.6
11217.5
11042.8
10845.5
10666.2
10494.7
10332.9
10181.5
10041
9911.11
9792.5
9686.66
9587.7
9513.44
9408.86
7681.92
7823.2
7869.15
7953.52
7998.66
8047.45
8081.47
8109.83
8136.35
8160.65
8184.29
8208.38
8231.56
8257.03
8280.73
8310.37
8334.13
8371.64
8391.12
8439.06
8105.71
8153.85
8152.82
8178.19
8182.16
8194.94
8205.11
8217.41
8230.29
8243.87
8258.12
8273.68
8289.09
8307.47
8323.58
8346.53
8361.52
8392.51
8402.1
8444.89
6769.55
6843.67
6862.31
6907.61
6937.14
6972.6
7009.87
7045.97
7086.87
7125.48
7167.83
7209.99
7253.27
7299.09
7342.3
7392.22
7432.12
7488.8
7517.95
7587.5
6570.88
6594.62
6597.92
6614.04
6620.81
6632.65
6647.43
6658.15
6678.99
6692.28
6715.66
6735.34
6760.32
6787.12
6813.46
6846.95
6872.53
6913.86
6933.61
6986.98
6246.74
6254.72
6259.11
6273.82
6273.82
6283.35
6290.24
6291.57
6306.07
6306.33
6321.52
6327.03
6340.54
6352.53
6364.66
6382.56
6393.04
6417.62
6424.11
6461.73
6232.51
6226.02
6233.6
6247.48
6242.01
6250.8
6254.02
6249.1
6260.48
6253.15
6262.64
6259.37
6264.4
6265.67
6266.99
6271.92
6270.17
6278.84
6274.64
6290.44
6094.6
6106.54
6127.59
6150.15
6156.57
6173.74
6195.03
6196.98
6221
6222.14
6238.67
6242.3
6251.27
6255.8
6259.17
6263.36
6262.37
6266.17
6262.19
6266.95
5740.17
5805.84
5843.37
5875.15
5916.57
5945.67
6006.41
6028.47
6079.94
6106.1
6143.53
6169.8
6196.52
6218.56
6237.04
6253.19
6264.17
6274.02
6277.55
6280.9
4842.53
4986.29
5053.3
5107.65
5223.55
5272.38
5394.47
5458.46
5560.46
5638.33
5725.04
5803.68
5879.46
5950.15
6013.96
6071.71
6119.68
6160.99
6187.15
6206.81
3131.07
3293.8
3411.47
3457.09
3645.7
3691.94
3865.74
3957.53
4108.33
4235.45
4381.34
4527.62
4679.47
4835.89
4992.51
5151.57
5300.95
5446.09
5555.5
5701.99
1034.5
1004.62
1121.56
1021.82
1152.41
1060.71
1143.29
1093.9
1127.24
1105.82
1113.42
1116.57
1141.92
1193.13
1275.35
1411.24
1587.71
1840.36
2034.07
2319.02
1315.71
994.558
1011.73
737.183
705.802
452.092
362.82
134.495
-5.46517
-211.581
-368.95
-527.098
-649.162
-754.877
-844.322
-915.829
-956.269
-939.841
-914.656
-684.825
4812.16
4415.49
4393.82
4026.07
3944.65
3605.16
3454.56
3146.66
2938.1
2655.62
2432.14
2209.44
2048.12
1923.43
1849.45
1801.47
1766.16
1750.67
1666.83
1485.86
7857.54
7736.02
7882.21
7709.8
7900.75
7761.15
7894.8
7815.6
7864.12
7809.07
7781.32
7696.61
7589.94
7436.07
7247.49
7031.12
6815.4
6673.53
6615.19
6346.89
6169.56
6157.3
6359.43
6228.9
6512.49
6439.63
6667.06
6711.18
6888.66
7007.64
7165.34
7305.9
7449.9
7578.22
7673.96
7702.39
7679.23
7640.06
7678.23
7748.01
6199.09
6042.97
6240.93
5860.52
6043.28
5779.66
5825.74
5702.61
5691.64
5645.59
5636.68
5630.4
5639.45
5663.65
5707.09
5788.5
5892.94
6054.3
6203.38
6412.63
5411.32
5028.14
5607.3
5065.23
5273.3
4970.64
4907.05
4695.83
4538.4
4346.67
4165.93
3980.03
3797.75
3621.45
3455.29
3326.06
3250.27
3321.46
3432.01
3677.42
4867.59
3175
3918.6
2948.74
2862.37
2319.5
2000.82
1609.92
1296.13
1008.43
780.416
608.65
503.475
467.896
508.929
630.724
831.582
1099.69
1369.18
1650.62
58025.1
51497.1
48031.6
43686.9
40064.4
36482.9
33189.7
30062.6
27127
24352.6
21731.4
19248.2
16888.5
14635.5
12496
10442.7
8420.3
6803.5
5224.76
2324.88
60374.8
53847
50381.8
46037.4
42415.3
38834.2
35541.5
32414.9
29479.9
26706
24085.2
21602.4
19243.1
16990.5
14851
12797.1
10772.5
9151.48
7570.84
4672.93
7217.71
5526.73
6270.92
5302.33
5216.87
4675.14
4357.5
3967.73
3655.05
3368.47
3141.55
2970.85
2866.73
2832.2
2874.31
2997.3
3199.02
3469.01
3741.26
4022.92
7801.56
7418.57
7998.11
7456.39
7665.01
7363.03
7300.2
7089.9
6933.5
6743.03
6563.75
6379.62
6199.42
6025.34
5861.44
5733.62
5657.5
5725.88
5835.16
6078.75
8546.57
8392.3
8589.27
8210.39
8392.68
8129.82
8175.84
8052.86
8041.94
7995.82
7986.95
7980.58
7989.5
8012.94
8054.87
8133.89
8235.96
8393.93
8540.36
8745.48
8568.04
8551.08
8749.21
8614.92
8893.37
8815.58
9037.49
9075.34
9246.14
9357.87
9508.66
9642.58
9780.86
9905.24
10000.1
10031.8
10013.5
9975.11
10009.4
10073.7
10051.1
9939.31
10089.6
9925
10113.8
9980.66
10112.1
10037.5
10086.3
10035.2
10011.5
9934.23
9837.61
9696.7
9523.14
9321.54
9117.52
8978.52
8921.89
8670.12
7483.47
7122.86
7085.78
6684.72
6612.04
6249.5
6112.54
5795.83
5594.58
5304.96
5074.34
4840.21
4671.56
4543.49
4469.96
4427.44
4410.6
4408.1
4349.98
4208.77
4265.05
3877.69
4043.16
3754.79
3785.84
3626.44
3574.48
3415.62
3276.98
3085.11
2944.18
2813.86
2724.41
2658.18
2612.47
2583.41
2566.81
2581.35
2590.96
2783.34
4442.68
4519.17
4623.38
4579.99
4593.9
4555.6
4531.1
4487.99
4451.81
4420.33
4421.58
4430.98
4448.13
4479.04
4525.94
4607.19
4711.48
4889.74
5045.62
5263.88
5659.51
5853.06
5898.93
5963.35
6007.51
6061.48
6125.29
6205.98
6307.24
6429.42
6559.71
6692.89
6826.12
6960.77
7091.06
7222.41
7340.48
7459.57
7537.44
7643.25
6863.23
7016.02
7065.01
7144.36
7202.02
7266.88
7331.49
7398.73
7459
7513.49
7567.64
7622.87
7677.81
7733.24
7783.84
7834.18
7873.5
7916.26
7936.84
7971.97
7597.84
7693.35
7743.03
7807
7854.55
7901.84
7941.4
7977.76
8007.08
8029.15
8052.08
8079.13
8108.49
8140.97
8171.23
8205.94
8232.69
8270.46
8288.55
8333.11
8148.32
8218.61
8261.45
8306.6
8339.27
8370.08
8399.1
8442.05
8484.52
8508.18
8540.85
8583.7
8623.66
8666.3
8705.38
8748.17
8781.11
8825.81
8846.82
8898.94
8668.77
8725.85
8758.9
8791.8
8816.14
8842.05
8868.38
8903.24
8950.2
8998.18
9045.14
9093.99
9139.57
9185.48
9225.98
9267.56
9299.13
9338.58
9357.24
9397.86
9074.14
9123.55
9150.14
9180.07
9204.33
9231.81
9263.01
9298.8
9336.98
9374.22
9410.94
9448.81
9485.27
9521.36
9552.87
9584.17
9607.68
9635.27
9648.51
9673.81
9528.45
9554.9
9569.15
9586.19
9599.71
9616.08
9634.91
9655.87
9676.75
9697.02
9717.32
9738.5
9759.32
9779.81
9797.39
9814.38
9826.66
9840.44
9846.61
9856.68
9512.63
9544.77
9560.89
9583.94
9602.87
9623.87
9644.85
9665.66
9685.28
9703.76
9721.48
9738.83
9755.4
9770.99
9784.41
9796.94
9806.53
9816.71
9822.18
9830.02
10219.4
10207.4
10203.8
10196.8
10189
10181.4
10173.2
10165
10155.1
10144.5
10132.6
10120
10106.4
10092
10076.9
10061.5
10046.5
10031.1
10019.3
10000
9279.5
9337.89
9374.11
9413.41
9446.44
9474.06
9496.16
9509.91
9519
9520.99
9518.32
9509.26
9495.41
9478.85
9461.71
9444.24
9428.97
9413
9403.44
9387.62
12054
12004.6
11944.8
11859.6
11761.5
11654.6
11538.7
11397.7
11228.9
11069.3
10910.1
10751.4
10598.1
10450.2
10312.2
10179.6
10064.4
9944.87
9865.08
9733.47
)
;

boundaryField
{
    outletWall
    {
        type            fixedValue;
        value           uniform 0;
    }
    fineWalls
    {
        type            zeroGradient;
    }
    fineFrontAndBack
    {
        type            zeroGradient;
    }
    fineplugLeft
    {
        type            cyclicAMI;
        value           nonuniform List<scalar> 
20
(
7454.55
7607.09
7667.2
7767.84
7858.84
7966.51
8080.09
8204.6
8338.05
8481.83
8635.4
8805.12
8975.34
9801.84
9735.44
9679.7
9769.61
9728.23
9673.94
9396.71
)
;
    }
    fineplugRight
    {
        type            cyclicAMI;
        value           nonuniform List<scalar> 
20
(
7802.22
7961.93
8020.95
8125.91
8213.22
8319.2
8423.01
8532.33
8640.21
8755.61
8878.54
9004.19
9159.78
10053.7
9775.01
9706.76
9771.47
9771.7
9782.03
9653.89
)
;
    }
    inletOutletLeft
    {
        type            cyclicAMI;
        value           nonuniform List<scalar> 
20
(
7454.55
7607.09
7667.2
7767.84
7858.84
7966.51
8080.09
8204.6
8338.05
8481.83
8635.4
8805.12
8975.34
9801.84
9735.44
9679.7
9769.61
9728.23
9673.94
9396.71
)
;
    }
    inletLeft
    {
        type            zeroGradient;
    }
    inletWallsLeft
    {
        type            zeroGradient;
    }
    inletFacesLeft
    {
        type            zeroGradient;
    }
    inletOutletRight
    {
        type            cyclicAMI;
        value           nonuniform List<scalar> 
20
(
7802.22
7961.93
8020.95
8125.91
8213.22
8319.2
8423.01
8532.33
8640.21
8755.61
8878.54
9004.19
9159.78
10053.7
9775.01
9706.76
9771.47
9771.7
9782.03
9653.89
)
;
    }
    inletRight
    {
        type            zeroGradient;
    }
    inletWallsRight
    {
        type            zeroGradient;
    }
    inletFacesRight
    {
        type            zeroGradient;
    }
}


// ************************************************************************* //
