/*--------------------------------*- C++ -*----------------------------------*\
| =========                 |                                                 |
| \\      /  F ield         | OpenFOAM: The Open Source CFD Toolbox           |
|  \\    /   O peration     | Version:  4.1                                   |
|   \\  /    A nd           | Web:      www.OpenFOAM.org                      |
|    \\/     M anipulation  |                                                 |
\*---------------------------------------------------------------------------*/
FoamFile
{
    version     2.0;
    format      ascii;
    class       surfaceScalarField;
    location    "7";
    object      phi;
}
// * * * * * * * * * * * * * * * * * * * * * * * * * * * * * * * * * * * * * //

dimensions      [0 3 -1 0 0 0 0];

internalField   nonuniform List<scalar> 
2360
(
10133.3
15279.3
-5146.03
15279.3
15279.3
22040
-6760.68
22040
22040
22040
30792.9
-8752.93
30792.9
30792.9
42677.7
-11884.7
42677.7
42677.7
58210.9
-15533.2
58210.9
58210.9
81309.3
-23098.4
81309.3
81309.3
90858.5
103012
115119
126751
137836
148343
149375
9104.58
159008
168199
177013
185528
193819
201951
209966
217888
225716
233426
240964
248132
254205
101502
152703
101502
101502
101502
184.646
101317
184.646
184.656
184.653
1230.55
-1045.89
1230.55
1230.56
45.6581
1184.89
45.6799
45.6705
45.695
-98745
98790.7
-98745
-98745
-98744.9
-251687
152942
-244211
-235702
-226734
-217563
-208213
-198708
-189076
-179417
-169887
-160626
-151607
-142696
-133823
-126488
1511.5
-117572
-108444
-99134.9
-89637.7
-79888.7
-71199.2
-71199.2
-71199.2
-53696
-17503.2
-53696
-53696
-42277.1
-11418.9
-42277.1
-42277.1
-32755.4
-9521.74
-32755.4
-32755.4
-25432.7
-7322.63
-25432.8
-25432.7
-25432.8
-19492.4
-5940.38
-19492.4
-19492.4
-14955.8
-4536.59
-68892.4
-21470
-81336.5
-31971.2
-83094.2
-37956.9
-72693.5
-42689.2
-53911.1
-26737.4
-40320.8
13703.2
-35599
47548.7
-32701.8
58008.9
-29045.3
57998.1
-24904.3
54925.6
-19043
47454
-3488.19
-3537.86
9630.73
-42184
11598.8
-13043.3
7656.49
20503.2
6510.03
39753
7783.95
52057.1
7617.47
55465.4
35729.4
-76906.9
-14498.2
-83583.2
-25294.9
-82647.1
-38892.9
-74894.5
-50441.9
-57061.4
-44570.5
-38893.4
-4464.78
-33222.5
41877.8
-32816.7
57603
-30359.3
55540.8
-25552.3
50118.7
-15338.2
37239.9
3680.29
-22556.4
14639.2
-53142.9
16857.3
-15261.4
11213.7
26146.8
6652.65
44314.1
7419.62
51290.1
7315.55
55569.5
37104.5
-68922.5
-12982.3
-67416.5
-26800.9
-63975.8
-42333.7
-61068.5
-53349.2
-54558.2
-51080.8
-41328.5
-17694.6
-32524.2
33073.5
-31999.4
57078.2
-32142.3
55683.7
-26947
44923.3
-13874.8
24167.7
630.853
-37062
6602.4
-59114.4
13029.8
-21688.8
12985.1
26191.5
7537.25
49762
7301.09
51526.2
7070.61
55800
36852.5
-61905.6
-13855.2
-58075.5
-30631
-54913.3
-45495.9
-53793.7
-54468.8
-52422.8
-52451.7
-45070.1
-25047.3
-35266.4
23269.9
-30838.6
52650.4
-31021.7
55866.7
-27890.3
41792
-19705.4
15982.8
-13112.8
-43654.6
-10085.5
-62141.8
1323.23
-33097.5
10256.3
17258.4
8034.23
51984
6903.49
52657
6960.17
55743.3
34291
-57362.1
-15135.8
-54822.5
-33170.6
-55020.4
-45298
-57731
-51758.1
-60055.8
-50127
-55820.9
-29282.1
-45357.3
12806.3
-36921.6
44214.7
-35086
54031.1
-37305.2
44011.2
-34283.4
12961
-31309.8
-46628.2
-30903.2
-62548.4
-18947.7
-45053
-708.584
-980.637
7707.2
43568.2
8372.58
51991.6
7501.72
56614.2
30373.9
-56132.2
-15486.4
-56460.6
-32842.2
-60853.9
-40904.7
-67909.7
-44702.4
-73584.7
-44452
-71445.1
-31421.7
-61053.9
2415.07
-51647.8
34808.6
-47349.4
49732.7
-46461.2
43123
-45431.5
11931.3
-50510.8
-41549
-55416.1
-57643
-46738.5
-53730.7
-22899.2
-24819.9
98.0299
20571
9036.82
43052.8
10366.7
55284.3
23237.4
-57306.1
-14048.5
-61563.3
-28585
-70166.1
-32301.9
-80899.5
-33968.9
-89838.1
-35513.4
-90745
-30514.8
-80714
-7615.93
-68996.1
23090.7
-61075.1
41811.8
-56028.1
38075.9
-59117.7
15021
-73104
-27562.6
-81502.8
-49244.3
-79052.9
-56180.5
-60334.7
-43538.1
-26247.1
-13516.6
3111.37
13694.3
34662.8
23732.9
59411.8
-61711.1
-9991.34
-69862.3
-20433.8
-80805.6
-21358.5
-92840.3
-21934.3
-103871
-24482.6
-110038
-24348
-105959
-11694.5
-94844.7
11976.1
-85074.8
32041.9
-82605.6
35606.7
-87290.3
19705.6
-97939.2
-16913.7
-104964
-42219.3
-108150
-52994.4
-105352
-46336.9
-94910.8
-23957.3
-87235.2
6018.71
-104044
40541.7
108310
-67579.5
-3808.21
-77942.5
-10070.8
-88805.9
-10495.2
-99744.5
-10995.6
-110770
-13457.4
-121339
-13779.2
-127277
-5756.38
-125297
9996.13
-118631
25376.6
-113884
30859.7
-112891
18712
-116340
-13464.6
-120421
-38137.8
-124552
-48863.7
-128675
-42214.3
-131917
-20715.1
-132745
6846.4
-127851
35647.6
79249.7
-70814.4
4265.19
-82611.8
1726.58
-92426.8
-680.19
-101657
-1765.01
-111568
-3547.14
-123003
-2344.2
-133381
4622.01
-138485
15099.8
-136749
23640.6
-130418
24529
-123826
12119.9
-122349
-14941.5
-124310
-36176.8
-127112
-46061.4
-128873
-40453.4
-126642
-22946.8
-114334
-5461.38
-80028.3
1342.09
406.33
-66261.7
13579.7
-80092.9
15557.8
-90657.8
9884.67
-99837.2
7414.42
-109350
5966.01
-120451
8756.33
-131818
15988.9
-139563
22845.5
-139742
23818.9
-131290
16077.5
-119184
13.4495
-112577
-21548.4
-114380
-34373.6
-121869
-38572.5
-128735
-33587.5
-128961
-22721.1
-116196
-18226.2
-79856.5
-34997.2
-80496
-55718.5
21829.3
-70325.2
30164.5
-83486.1
23045.6
-94867.8
18796.1
-105645
16743.2
-117053
20164.2
-128316
27251.9
-134204
28733.9
-128061
17675.8
-109453
-2530.77
-89657.9
-19781.6
-80395.3
-30811
-81973.8
-32795.1
-93756
-26790.2
-112253
-15090.5
-128841
-6133.37
-137494
-9572.46
-133474
-39017.7
-112653
-45436.7
26475.3
-57433.7
42161.5
-72128.1
37740
-85968.3
32636.2
-98768
29543
-110705
32101.5
-119820
36366.4
-117926
26840.5
-99346
-904.622
-73058
-28818.8
-54703.6
-38135.9
-48750
-36764.6
-49013.8
-32531.4
-52756.9
-23047.1
-61798.5
-6048.98
-71877.4
3945.51
-81079.4
-370.457
-104000
-16096.7
-63950.4
-40490
25972.3
-46112.7
47784.2
-58986
50613.4
-73666.6
47316.8
-88044
43920.4
-99922
43979.5
-104568
41012.4
-92338.2
14610.6
-67172.5
-26070.3
-44883.6
-51107.7
-33477.5
-49542
-29711.3
-40530.8
-28852
-33390.7
-26523.3
-25375.8
-20237.1
-12335.2
-6827.15
-9464.41
9541.09
-16738.7
32697.7
-39253.3
-22148.1
-43056.3
21267.7
-40958.8
45686.8
-48192.2
57846.7
-60596.3
59721
-74787.6
58111.7
-85676.2
54868.1
-84904.7
40241
-65840.5
-4453.62
-42912.4
-48998.4
-29241.5
-64778.6
-24121
-54662.5
-21124.9
-43526.9
-17876.2
-36639.4
-13187.5
-30064.5
-4459.54
-21063.1
6408.02
-20332
13679.9
-24010.6
18840.1
-44413.5
-26406.4
-52484
14460.1
-43867.7
37070.5
-43198.3
57177.3
-49979.2
66501.9
-61306.5
69439
-70140.6
63702.3
-64801.1
34901.4
-45556.9
-23697.8
-30416.9
-64138.4
-24895
-70300.6
-22384.2
-57173.3
-17933.7
-47977.4
-12507.5
-42065.6
-7124.86
-35447.2
109.253
-28297.2
8675.55
-28898.3
14382.2
-29717.3
15218.9
-45250.1
-26720.7
-66090
9373.77
-55379.1
26359.6
-47293.1
49091.3
-46123.1
65331.9
-51156.1
74472
-56033
68579.2
-48168.4
27036.9
-33197.3
-38668.9
-25775.6
-71560.1
-24836
-71240.2
-22012.3
-59996.9
-16313.7
-53676
-10156.4
-48222.9
-4417.18
-41186.4
1533.15
-34247.6
8401.16
-35766.3
12531
-33847.1
12026.6
-44745.7
-26578.9
-78764.2
8473.29
-71281.5
18876.9
-60023.7
37833.5
-52385.3
57693.5
-50452.3
72539
-49659.5
67786.4
-38609
15986.3
-27431.5
-49846.3
-24677
-74314.7
-24119.5
-71797.7
-20326.1
-63790.3
-15031.6
-58970.6
-9485.3
-53769.2
-3715.35
-46956.3
1866.55
-39829.5
7370.16
-41269.9
10407.5
-36884.5
9878.91
-44217.1
-25452.9
-88351.7
14512.5
-91317.3
21842.6
-85019.5
31535.6
-76338.5
49012.6
-66663.9
62864.3
-52833.4
53955.9
-34664.7
-2182.34
-26367.6
-58143.5
-24932.1
-75750.1
-22966.5
-73763.3
-19214.2
-67542.6
-14603.9
-63580.9
-9460.85
-58912.2
-4003.28
-52413.9
1033.14
-44865.9
5568.27
-45805
8138.31
-39454.5
8441.97
-44520.8
-23771.6
-77767.7
-90846.9
-94798.3
-90716.7
-76929.2
-54778.8
-35599.3
-28189.2
-24736.6
-22139.7
-18832.2
-14510.4
-9606.37
-4448.29
161.638
4374.65
7054.2
7833.71
1031.83
-10581
2601.74
-13723.8
4239.54
-13744.3
5825.43
-13218.1
7240.98
-12499.9
8425.49
-11691.9
9104.8
-10815.6
9526.08
-10054
9713.96
-9379.25
9702.54
-8802.8
9516.19
-8328.08
9169.82
-7944.66
8672.71
-7634.71
8028
-7371.2
7238.57
-7132.19
6294.15
-6883.59
5186.73
-6602.8
3867.53
-6218
2266.47
-5567.79
-3805.64
516.05
-11097
1213.36
-14421.1
2055.59
-14586.6
2893.34
-14055.8
3606.75
-13213.3
4149.02
-12234.1
4598.2
-11264.8
4918.87
-10374.7
5136.15
-9596.51
5259.01
-8925.64
5283.04
-8352.08
5197.98
-7859.58
4998.42
-7435.12
4681.61
-7054.37
4252.25
-6702.81
3704.26
-6335.57
3042.17
-5940.7
2227.68
-5403.5
1257.91
-4597.99
-2547.73
403.595
-11500.6
1335.29
-15352.8
2208.76
-15460
2902.34
-14749.4
3388.99
-13699.9
3696.16
-12541.2
3929.81
-11498.4
4151.31
-10596.1
4367.95
-9813.12
4545.6
-9103.26
4656.21
-8462.67
4672.02
-7875.37
4579.9
-7342.98
4370.32
-6844.76
4042.37
-6374.84
3589.54
-5882.72
3009.31
-5360.46
2278.81
-4672.99
1343.59
-3662.74
-1204.15
553.181
-12053.8
1329.69
-16129.3
1901.87
-16032.2
2262.45
-15109.9
2443.29
-13880.8
2536.37
-12634.3
2687.3
-11649.3
2880.29
-10789.1
3100.24
-10033.1
3292.66
-9295.65
3440.21
-8610.21
3509.26
-7944.4
3489.46
-7323.17
3363.37
-6718.65
3129.91
-6141.37
2780.61
-5533.41
2317.51
-4897.35
1729.03
-4084.51
917.581
-2851.28
-286.566
673.864
-12727.6
1242.1
-16697.5
1516.55
-16306.6
1579.22
-15172.6
1554.04
-13855.6
1556.82
-12637
1678.57
-11771.1
1828.93
-10939.4
2004.88
-10209
2152.01
-9442.74
2278.77
-8736.95
2351.51
-8017.11
2373.49
-7345.13
2323.75
-6668.88
2207.95
-6025.56
2012.15
-5337.58
1736.38
-4621.57
1351.8
-3699.91
671.749
-2171.2
385.183
660.721
-13388.3
965.524
-17002.3
967.308
-16308.4
822.052
-15027.3
714.015
-13747.5
694.403
-12617.4
762.671
-11839.3
816.252
-10993
878.394
-10271.1
915.75
-9480.08
951.597
-8772.78
967.436
-8032.93
978.312
-7356
974.251
-6664.8
965.108
-6016.4
935.282
-5307.74
870.057
-4556.34
709.519
-3539.36
271.411
-1733.07
656.595
506.216
-13894.5
645.267
-17141.3
550.819
-16213.9
355.567
-14832
257.918
-13649.9
235.532
-12595
242.342
-11846.1
228.949
-10979.6
212.163
-10254.3
190.965
-9458.85
171.811
-8753.61
163.339
-8024.43
168.905
-7361.55
196.343
-6692.21
238.787
-6058.83
290.116
-5359.05
312.079
-4578.29
256.847
-3484.11
42.199
-1518.39
698.794
298.29
-14192.8
467.845
-17310.9
449.148
-16195.2
302.457
-14685.3
250.979
-13598.4
250.074
-12594.1
251.073
-11847.1
251.459
-10979.9
236.185
-10239
230.414
-9453.07
215.984
-8739.18
217.469
-8025.9
217.638
-7361.71
228.285
-6702.84
223.642
-6054.18
207.437
-5342.84
141.476
-4512.33
31.1264
-3373.76
-52.5925
-1434.67
646.203
236.891
-14429.7
594.121
-17668.1
733.072
-16334.1
696.528
-14648.8
756.613
-13658.4
845.443
-12682.9
921.631
-11923.3
997.303
-11055.6
1045.39
-10287.1
1091.67
-9499.31
1112.65
-8760.12
1122.27
-8035.48
1097.47
-7336.89
1036.07
-6641.4
913.214
-5931.3
730.293
-5159.89
476.444
-4258.46
193.106
-3090.39
45.9382
-1287.42
692.141
540.876
-14970.6
1050.08
-18177.3
1304.4
-16588.5
1481.88
-14826.2
1765.47
-13942
2039.06
-12956.5
2294.67
-12178.9
2536.99
-11297.9
2752.67
-10502.8
2942.36
-9689.01
3081.65
-8899.41
3154.27
-8108.09
3131.67
-7314.29
2993.23
-6502.96
2721.31
-5659.37
2311.12
-4749.69
1776.34
-3723.66
1154.55
-2468.58
571.513
-704.355
1263.66
1182.28
-16152.8
1604.94
-18599.9
1909.8
-16893.3
2357.34
-15273.8
2923.67
-14508.3
3465.31
-13498.1
4033.03
-12746.6
4607.42
-11872.3
5195.88
-11091.2
5748.89
-10242
6211.5
-9362.01
6511.52
-8408.1
6596.17
-7398.92
6428.27
-6335.06
5990.26
-5221.34
5266.2
-4025.62
4268.26
-2725.71
3028.12
-1228.41
1590.52
733.277
2854.17
1572.19
-17725
1492.52
-18520.3
1744.14
-17145
2254.4
-15784.1
2905.38
-15159.4
3580.31
-14173.1
4381.16
-13547.5
5269.85
-12761
6265.23
-12086.6
7236.85
-11213.7
8057.4
-10182.6
8577.99
-8928.72
8734.84
-7555.79
8490.41
-6090.66
7798.96
-4529.92
6566.49
-2793.19
4671.18
-830.419
2774.49
668.248
1214.42
2293.32
4068.59
796.966
-18522
0.901949
-17724.3
-187.927
-16956.2
-220.368
-15751.6
-164.479
-15215.3
-46.9993
-14290.6
198.258
-13792.7
559.289
-13122.1
1009.56
-12536.9
1383.8
-11587.9
1512.71
-10311.5
1286.05
-8702.07
737.813
-7007.54
-53.8543
-5299
-957.164
-3626.58
-1790.33
-1960
-2301.86
-318.853
-2738.13
1104.55
-2306.19
1861.39
1762.41
-499.299
-18022.8
-1507.51
-16716.1
-2253.58
-16210.1
-3056.54
-14948.8
-3843.16
-14428.7
-4665.88
-13467.9
-5491.29
-12967.3
-6325.78
-12287.7
-7185.3
-11677.4
-8104.86
-10668.4
-9120.26
-9296.1
-10200
-7622.35
-11291.7
-5915.84
-12341.6
-4249.2
-13232.6
-2735.58
-13571.1
-1621.5
-12670.5
-1219.44
-9897.58
-1668.37
-5232.89
-2803.3
-3470.48
-677.262
-17345.5
-1385.25
-16008.2
-2070.55
-15524.9
-2978.65
-14040.7
-3861.1
-13546.3
-4936.12
-12393
-6113.27
-11790.2
-7469.77
-10931.2
-8906.28
-10240.9
-10255.3
-9319.39
-11293.7
-8257.78
-11860.4
-7055.66
-11895.6
-5880.67
-11376.4
-4768.43
-10299.1
-3812.85
-8645.69
-3274.94
-6375.07
-3490.06
-3606.72
-4436.71
-1142.89
-5267.14
-4613.37
167.256
-17512.9
166.146
-16007.1
281.744
-15640.5
279.77
-14038.8
302.376
-13568.9
256.771
-12347.4
134.351
-11667.9
-80.2239
-10716.7
-355.207
-9965.98
-523.465
-9151.23
-392.018
-8389.31
166.98
-7614.78
1158.28
-6872.07
2547.98
-6158.24
4216.77
-5481.72
5771.15
-4829.37
6488.84
-4207.79
5632.6
-3580.51
3168.65
-2803.24
-1444.72
158.823
-17671.7
148.169
-15996.5
313.557
-15805.9
592.25
-14317.5
871.978
-13848.7
1315.12
-12790.6
1773.71
-12126.5
2350.97
-11294
2970.86
-10585.9
3675.78
-9856.16
4462.22
-9175.76
5349.94
-8502.5
6311.73
-7833.87
7279.12
-7125.63
8111.63
-6314.23
8525.32
-5243.07
8104.48
-3786.96
6369.33
-1845.36
3496.12
69.9723
2051.41
-986.939
-16684.8
-2103.11
-14880.3
-2891.25
-15017.8
-3340.93
-13867.8
-3704.19
-13485.4
-3771.05
-12723.8
-3714.65
-12182.9
-3450.43
-11558.2
-3044.83
-10991.5
-2494.46
-10406.6
-1837.23
-9833.01
-1082.7
-9257.06
-231.253
-8685.33
716.343
-8073.25
1684.6
-7282.5
2468.03
-6026.51
2719.48
-4038.42
2178.85
-1304.75
965.757
1283.05
3017.16
-2101.86
-14582.9
-4449.36
-12532.8
-6771.79
-12695.4
-8672.82
-11966.8
-10464.6
-11693.7
-11917.8
-11270.6
-13161.8
-10938.9
-14134.4
-10585.7
-14877.8
-10248.1
-15380.5
-9903.82
-15655.1
-9558.39
-15701.6
-9210.64
-15523.9
-8863.02
-15099.4
-8497.72
-14343.7
-8038.18
-13047.5
-7322.8
-10926
-6159.89
-7766.65
-4464.1
-3980.07
-2503.53
-962.912
-5482.94
-8915.79
-12511.2
-15378
-17971.7
-20142.3
-21981.2
-23466.9
-24615
-25418.8
-25877.2
-25987.8
-25750.9
-25148.6
-24086.8
-22309.6
-19369.5
-14733.6
-8137.09
-5481.8
14581.8
-8912.83
12531
-12506.3
12693.4
-15370.8
11964.5
-17961.9
11691.1
-20129.5
11267.6
-21965
10935.5
-23447
10582
-24591.2
10244.2
-25390.9
9899.63
-25844.8
9553.89
-25950.2
9205.42
-25706.8
8856.56
-25097.4
8490.63
-24031.8
8034.42
-22261.6
7329.75
-19342.7
6181.13
-14730.3
4487.57
-8140.87
2510.58
959.129
-2097.75
16679.5
-4441.68
14874.9
-6760.39
15012.1
-8657.7
13861.8
-10445.7
13479
-11895.1
12716.9
-13135
12175.4
-14103.3
11550.2
-14842.2
10983.1
-15340.7
10398.1
-15611.4
9824.56
-15653.8
9247.79
-15471.2
8674
-15041.5
8060.87
-14283.3
7276.23
-12992.2
6038.67
-10884.7
4073.62
-7738.62
1341.47
-3960.65
-1267.4
-3001.52
-989.114
17668.6
-2104.95
15990.7
-2894.37
15801.5
-3345.81
14313.2
-3711.43
13844.6
-3780.67
12786.1
-3727.64
12122.4
-3467.25
11289.8
-3066.31
10582.1
-2520.56
9852.32
-1867.87
9171.84
-1118.44
8498.34
-273.889
7829.42
665.931
7121.02
1631.25
6310.88
2424.67
5245.23
2701.63
3796.65
2188.06
1855
980.155
-59.53
-2021.37
152.748
17515.8
134.989
16008.5
293.812
15642.7
565.77
14041.2
837.327
13573.1
1271.31
12352.1
1718.62
11675.1
2283.18
10725.2
2888.32
9976.96
3576.83
9163.8
4345.15
8403.5
5213.72
7629.76
6156.61
6886.52
7107.6
6170.03
7931.14
5487.33
8354.74
4821.62
7969.61
4181.77
6284.26
3540.34
3459.86
2764.85
1438.5
147.879
17367.9
157.157
15999.1
267.424
15532.4
261.179
14047.4
283.237
13551
239.018
12396.3
121.856
11792.2
-84.8885
10931.9
-355.045
10247.1
-532.53
9341.24
-429.399
8300.34
89.1433
7111.17
1036.1
5939.53
2380.83
4825.26
4008.16
3859.97
5539.42
3290.34
6276.37
3444.8
5484.22
4332.48
3104.8
5144.26
4543.3
-614.756
17982.7
-1319.23
16703.6
-1960.26
16173.4
-2804.89
14892
-3641.9
14388
-4644.64
13399.1
-5745.61
12893.1
-7003.61
12189.9
-8352.1
11595.6
-9638.3
10627.4
-10649.2
9311.26
-11209.9
7671.9
-11253.7
5983.33
-10757.5
4328.98
-9721
2823.51
-8131.2
1700.54
-5973.73
1287.35
-3390.96
1749.72
-1102.86
2856.18
3440.44
-296.321
18279
-1153.91
17561.2
-1769.85
16789.3
-2507.53
15629.7
-3124.9
15005.3
-3830.4
14104.5
-4495.88
13558.6
-5195.33
12889.4
-5914.64
12314.9
-6707.01
11419.8
-7633.7
10237.9
-8689.1
8727.28
-9798.09
7092.33
-10902.3
5433.17
-11879.2
3800.47
-12380.2
2201.54
-11766.2
673.304
-9292.81
-723.617
-4964.24
-1472.37
-1523.8
876.256
17402.7
954.68
17482.7
1214.53
16529.5
1340
15504.2
1649.32
14696
1893.23
13860.6
2278.37
13173.5
2686.53
12481.2
3150.43
11851
3483.39
11086.8
3546.54
10174.8
3220.8
9053.02
2535.73
7777.43
1558.05
6410.87
382.604
4975.96
-801.998
3386.21
-1675.05
1546.46
-2139.64
-258.934
-1929.25
-1682.71
-3453.05
1277.4
16125.3
2204.38
16555.8
3017.03
15716.8
3659.47
14861.8
4301.82
14053.7
4893.12
13269.3
5533.22
12533.4
6183.4
11831
6883.87
11150.5
7562.89
10407.8
8170.12
9567.58
8578.52
8644.62
8681.75
7674.2
8436.66
6655.95
7819.87
5592.75
6753.39
4452.69
5078.43
3221.41
2984.52
1834.98
1272.54
29.2632
-2180.51
1049.63
15075.7
2001.01
15604.4
2775.77
14942.1
3388.21
14249.3
3890.99
13550.9
4287.61
12872.7
4596.91
12224.1
4821.34
11606.6
5004.25
10967.6
5199.82
10212.2
5417.21
9350.2
5591.34
8470.5
5642.89
7622.66
5508.76
6790.09
5151.7
5949.82
4546.5
5057.89
3684.77
4083.15
2598.04
2921.73
1331.7
1295.64
-848.807
830.957
14244.7
1654.18
14781.1
2430.16
14166.1
3145.43
13534
3768.6
12927.7
4265.77
12375.5
4606.62
11883.2
4789.48
11423.7
4811.36
10945.8
4673.08
10350.5
4442.94
9580.34
4161.3
8752.14
3847.42
7936.55
3494.7
7142.8
3084.45
6360.08
2597.14
5545.21
2013.83
4666.47
1330.29
3605.28
562.259
2063.69
-286.547
852.551
13392.2
1674.63
13959.1
2543.52
13297.2
3412.11
12665.5
4222.27
12117.6
4929.96
11667.9
5516.47
11296.7
5991.04
10949.2
6285.25
10651.6
6283.98
10351.8
5993.61
9870.71
5497.71
9248.06
4889.33
8544.94
4234.19
7797.96
3567.05
7027.23
2898.55
6213.73
2218.13
5346.9
1501.1
4322.32
660.383
2904.42
373.836
919.755
12472.4
1774.21
13104.6
2651.75
12419.7
3508.26
11809
4305.06
11320.8
5020.15
10952.8
5650.99
10665.9
6203.36
10396.8
6644.97
10209.9
6889.86
10106.9
6834.18
9926.39
6487.33
9594.92
5921.79
9110.48
5217.96
8501.8
4441.45
7803.74
3632.77
7022.41
2810.49
6169.18
1966.44
5166.36
1028.6
3842.26
1402.43
885.559
11586.9
1701.87
12288.3
2468.47
11653.1
3165.6
11111.9
3787.34
10699.1
4336.13
10404
4809.16
10192.9
5200.3
10005.7
5540.31
9869.95
5819.84
9827.43
5930.49
9815.75
5807.11
9718.32
5460.67
9456.94
4940.78
9021.71
4300.66
8443.86
3577.01
7746.08
2794.88
6951.3
1957.63
6003.62
1049.74
4750.16
2452.17
727.259
10859.6
1410.21
11605.4
1990
11073.3
2473.49
10628.4
2880.87
10291.7
3234.4
10050.5
3549.88
9877.41
3824.14
9731.44
4067.42
9626.68
4287.29
9607.57
4425.66
9677.39
4418.05
9725.94
4249.35
9625.65
3940.9
9330.17
3519.87
8864.9
3000.58
8265.37
2393.28
7558.61
1695.43
6701.47
920.075
5525.53
3372.25
519.026
10340.6
1042.74
11081.7
1453.32
10662.8
1769.56
10312.1
2023.49
10037.8
2245.21
9828.78
2454.2
9668.44
2648.49
9537.17
2821.84
9453.36
2977.13
9452.29
3085.53
9569.02
3109.76
9701.72
3041.5
9693.92
2888.79
9482.89
2656.04
9097.66
2335.42
8586.01
1918.7
7975.34
1392.86
7227.33
772.327
6146.07
4144.57
326.432
10014.2
685.953
10722.2
936.207
10412.5
1115.97
10132.4
1262.63
9891.1
1405.84
9685.57
1561.7
9512.58
1717.4
9381.46
1858.83
9311.92
1982.52
9328.61
2070.02
9481.51
2107.53
9664.21
2101.52
9699.93
2054.1
9530.3
1954.06
9197.7
1779.35
8760.72
1510.95
8243.74
1127.6
7610.68
638.628
6635.03
4783.2
216.983
9797.22
497.555
10441.6
711.149
10198.9
868.997
9974.54
1001.98
9758.12
1131.55
9556
1259.63
9384.5
1400.07
9241.02
1526.43
9185.56
1630.08
9224.96
1694.44
9417.15
1731.28
9627.37
1758.67
9672.54
1768.06
9520.92
1734.5
9231.25
1627.98
8867.24
1424.63
8447.08
1099.27
7936.03
646.128
7088.17
5429.33
299.308
9497.9
278.123
10462.8
315.781
10161.2
375.894
9914.42
463.804
9670.2
593.133
9426.65
819.612
9158.01
1034.92
9025.7
1222.47
8998
1383.96
9063.45
1510.59
9290.51
1606.17
9531.78
1677.93
9600.77
1716.98
9481.85
1704.04
9244.18
1611.22
8960.05
1421
8637.29
1099.52
8257.49
642.809
7544.86
6072.14
808.383
1522.09
2186.14
2791.61
3333.93
3843.79
4155.89
4308.39
4395.79
4439.96
4469.21
4471.45
4412.76
4263.14
4002.01
3611.99
3077.78
2367.83
1403.19
)
;

boundaryField
{
    outletWall
    {
        type            calculated;
        value           nonuniform List<scalar> 
60
(
-14955.8
-32648.5
-55298.9
-53331
-38606.6
-16560.9
11075.2
29065
-12017
-53315.2
-59066.6
-61654.7
-60906
-52270.5
-27293.5
7955.01
32288.6
39714.6
44415.3
31037.5
67717.4
82312.5
79664.7
71176.3
59291.6
47760.9
40993
40790.7
47468.8
56947.2
62741
61396.4
57653.9
55868.2
56482.8
58642.7
62778.5
67406.6
69935.1
59324.8
-10133.3
-21083.9
-45300.3
-42134.1
-50018
-49475.8
-57572
-63816.2
-67902.8
-70850.1
-76360.2
-79202.7
-65553.6
-21361.8
31805.5
49076.8
44930.9
35487.1
34921.7
24562.8
)
;
    }
    fineWalls
    {
        type            calculated;
        value           uniform 0;
    }
    fineFrontAndBack
    {
        type            calculated;
        value           nonuniform List<scalar> 
960
(
1.50423e-14
-1.79135e-13
-1.99973e-14
1.79663e-14
-1.54519e-14
1.72381e-14
4.66548e-14
-2.14368e-13
1.22842e-12
4.48944e-13
6.18868e-13
-6.58009e-12
-1.92372e-12
-2.0469e-12
-2.33938e-11
-3.6414e-12
-1.81706e-12
-6.07598e-13
1.0443e-12
1.47682e-12
-2.45891e-12
-4.94679e-12
-6.43497e-12
-7.75502e-12
-8.89519e-12
-9.76855e-12
-1.53508e-10
-1.18246e-11
-1.2157e-11
-1.24819e-11
-1.29063e-11
-1.35586e-11
-1.40456e-11
-1.41991e-11
-1.44039e-11
-1.47483e-11
-1.50163e-11
-1.50655e-11
-1.52636e-11
-1.66511e-11
-3.50278e-10
-4.6128e-11
-4.66514e-11
-4.89947e-11
-2.17998e-10
-1.92178e-11
-1.07514e-11
-4.47519e-12
1.55468e-11
2.37219e-13
-1.12043e-11
-1.41356e-10
-1.07446e-11
-1.31453e-12
9.00844e-12
1.57151e-10
3.64391e-11
3.81437e-11
3.59322e-11
2.80274e-10
1.47903e-11
1.33971e-11
1.30654e-11
1.25985e-11
1.18436e-11
1.14048e-11
1.07746e-11
1.0262e-11
9.43293e-12
8.92096e-12
8.33733e-12
7.57848e-12
6.82289e-12
3.66231e-11
6.44163e-12
5.56397e-12
4.89865e-12
4.48186e-12
4.0935e-12
2.36578e-12
1.71807e-12
-7.84797e-13
-1.43025e-11
-4.8646e-12
-6.54878e-12
-3.58501e-11
-4.74058e-12
-5.79942e-12
-2.67761e-11
-4.25882e-12
-5.65011e-12
-2.00664e-11
-4.96403e-13
-9.20774e-14
8.91551e-14
2.08409e-12
5.31584e-13
5.964e-13
2.50045e-12
1.59612e-13
-4.84915e-11
-7.03583e-11
-8.68337e-11
-8.40739e-11
-6.09429e-11
-3.53595e-11
-2.55097e-11
-2.14798e-11
-1.82462e-11
-1.4192e-11
-9.93171e-12
-5.991e-12
-8.88457e-13
-6.78994e-13
-3.7333e-12
-6.80725e-13
-1.77122e-13
-1.44291e-13
5.58525e-13
-6.38244e-11
-8.42235e-11
-8.96078e-11
-8.39561e-11
-6.89612e-11
-4.16113e-11
-2.20396e-11
-1.90385e-11
-1.75357e-11
-1.36086e-11
-9.53054e-12
-1.53688e-12
3.38916e-11
4.54915e-11
7.35114e-12
-8.58134e-13
-2.73243e-13
-1.62012e-13
1.03565e-13
-6.07911e-11
-6.82448e-11
-6.46152e-11
-6.06518e-11
-5.87041e-11
-4.81869e-11
-2.53784e-11
-1.5399e-11
-1.46634e-11
-1.30069e-11
-7.81501e-12
3.04645e-11
1.14652e-10
1.45532e-10
4.41605e-11
9.90227e-13
-8.48103e-13
-1.37699e-13
1.62411e-12
-5.32496e-11
-5.34906e-11
-5.11766e-11
-5.17146e-11
-5.14209e-11
-4.36868e-11
-2.93336e-11
-1.66215e-11
-1.28605e-11
-1.44607e-11
2.34085e-12
1.01007e-10
2.26891e-10
2.47986e-10
1.16012e-10
1.7212e-11
-2.05754e-12
-1.06155e-12
4.04063e-12
-4.26033e-11
-4.71831e-11
-5.39558e-11
-5.70783e-11
-4.42558e-11
-2.11862e-11
-1.63556e-11
-1.61107e-11
-1.1854e-11
-7.89941e-12
3.36708e-11
1.7877e-10
3.30712e-10
3.14489e-10
1.91084e-10
4.06499e-11
-1.85066e-12
-1.59418e-12
5.9083e-12
-3.85889e-11
-5.52404e-11
-6.94276e-11
-6.2819e-11
-1.71539e-11
3.80558e-11
3.37136e-11
3.99689e-12
3.0305e-13
9.71617e-12
6.18198e-11
2.64469e-10
4.16043e-10
3.78653e-10
2.62121e-10
9.44802e-11
3.92774e-12
-8.69597e-12
1.10229e-11
-4.39319e-11
-7.58734e-11
-8.97652e-11
-5.87368e-11
3.56116e-11
1.40939e-10
1.40941e-10
4.36783e-11
-6.01071e-12
7.3612e-12
1.20943e-10
4.13206e-10
4.51646e-10
4.11168e-10
3.3293e-10
1.95903e-10
5.31445e-11
1.73527e-12
-9.73756e-11
-5.92639e-11
-1.02292e-10
-1.05544e-10
-4.5398e-11
9.06973e-11
2.54476e-10
3.33523e-10
2.55183e-10
1.60967e-10
1.89272e-10
3.40659e-10
4.29344e-10
3.81175e-10
3.52884e-10
3.41985e-10
3.09423e-10
2.64146e-10
2.65705e-10
3.34272e-10
-7.42781e-11
-1.21856e-10
-1.11213e-10
-3.74603e-11
1.01838e-10
2.79127e-10
4.39497e-10
5.07979e-10
4.78214e-10
4.37039e-10
3.67732e-10
1.98991e-10
9.97613e-11
1.27332e-10
2.10259e-10
2.96042e-10
3.62001e-10
3.97225e-10
3.88656e-10
-8.02669e-11
-1.19519e-10
-1.06599e-10
-5.08805e-11
4.41442e-11
1.66038e-10
2.86174e-10
3.5152e-10
3.31562e-10
1.72075e-10
-1.13117e-10
-3.43833e-10
-3.17428e-10
-2.55353e-10
-1.19868e-10
3.08728e-11
1.31549e-10
1.93792e-10
1.39939e-10
-5.23057e-11
-7.40606e-11
-7.23686e-11
-7.02025e-11
-7.0529e-11
-7.10847e-11
-6.16204e-11
-5.68312e-11
-1.38796e-10
-3.01655e-10
-4.61942e-10
-5.01087e-10
-4.70197e-10
-4.49302e-10
-4.06041e-10
-3.41954e-10
-3.07537e-10
-3.02972e-10
-2.7121e-10
-2.92344e-11
-4.4779e-11
-5.17032e-11
-7.6607e-11
-1.26443e-10
-1.96798e-10
-2.77944e-10
-3.68825e-10
-4.61051e-10
-4.95833e-10
-4.31136e-10
-3.55024e-10
-3.43135e-10
-3.7973e-10
-4.49425e-10
-4.88078e-10
-5.12572e-10
-5.30071e-10
-5.06971e-10
-1.06341e-11
-2.47723e-11
-3.13574e-11
-5.66407e-11
-1.18153e-10
-2.21607e-10
-3.4659e-10
-4.42716e-10
-4.29461e-10
-2.87008e-10
-1.65897e-10
-1.3473e-10
-1.60632e-10
-1.96163e-10
-2.72957e-10
-3.38768e-10
-3.38392e-10
-3.40974e-10
-4.28789e-10
5.34613e-12
-1.07566e-11
-1.60108e-11
-3.13294e-11
-7.94085e-11
-1.75963e-10
-2.89827e-10
-3.25798e-10
-2.05502e-10
-6.82313e-11
-2.66033e-11
-2.57832e-11
-4.47513e-11
-7.49923e-11
-1.13179e-10
-1.42611e-10
-1.00282e-10
-3.3446e-11
5.27546e-11
2.05038e-11
-2.75439e-13
-6.99809e-12
-1.39505e-11
-4.0827e-11
-1.07399e-10
-1.80542e-10
-1.57186e-10
-3.71274e-11
1.63349e-11
1.54136e-11
6.38076e-12
5.4862e-13
-1.60537e-11
-2.76167e-11
-3.6128e-11
-2.59126e-11
-8.76606e-12
3.41773e-13
3.90996e-11
1.32135e-11
-7.60236e-14
-5.68386e-12
-1.66968e-11
-5.02113e-11
-8.11564e-11
-3.57816e-11
2.02369e-11
2.36847e-11
1.80916e-11
1.51314e-11
1.09009e-11
3.21424e-12
-2.73907e-12
-7.19122e-12
-7.71889e-12
-2.81524e-12
2.79328e-13
6.17159e-11
3.928e-11
1.60202e-11
2.96399e-12
-4.69921e-12
-1.63283e-11
-1.93601e-11
1.56263e-11
2.52695e-11
1.63398e-11
1.54352e-11
1.48467e-11
1.12568e-11
7.78887e-12
3.4382e-12
-1.36616e-13
-1.56284e-12
-7.76981e-13
1.58448e-13
7.68702e-11
7.25757e-11
4.81542e-11
2.63864e-11
1.19838e-11
7.32391e-12
1.62064e-11
3.12823e-11
2.22034e-11
1.68429e-11
1.7829e-11
1.58351e-11
1.20663e-11
8.39352e-12
4.87991e-12
1.32671e-12
-4.63661e-13
-6.6381e-13
-6.59783e-13
7.99122e-11
1.0021e-10
9.10562e-11
7.3788e-11
5.56241e-11
4.53026e-11
4.20116e-11
3.33014e-11
2.1973e-11
1.84806e-11
1.8195e-11
1.6101e-11
1.24769e-11
8.71388e-12
5.00814e-12
1.22329e-12
-7.2091e-13
-6.34584e-13
-4.15887e-13
5.23532e-11
8.54285e-11
1.01605e-10
1.0574e-10
9.56585e-11
7.4945e-11
5.01767e-11
3.47845e-11
2.38518e-11
1.88667e-11
1.81171e-11
1.64372e-11
1.28499e-11
8.9185e-12
5.05743e-12
1.10785e-12
-7.77456e-13
-5.72849e-13
-3.74058e-13
-1.50423e-14
1.79135e-13
1.99973e-14
-1.79663e-14
1.54519e-14
-1.72381e-14
-4.66548e-14
2.14368e-13
-1.22842e-12
-4.48944e-13
-6.18868e-13
6.58009e-12
1.92372e-12
2.0469e-12
2.33938e-11
3.6414e-12
1.81706e-12
6.07598e-13
-1.0443e-12
-1.47682e-12
2.45891e-12
4.94679e-12
6.43497e-12
7.75502e-12
8.89519e-12
9.76855e-12
1.53508e-10
1.18246e-11
1.2157e-11
1.24819e-11
1.29063e-11
1.35586e-11
1.40456e-11
1.41991e-11
1.44039e-11
1.47483e-11
1.50163e-11
1.50655e-11
1.52636e-11
1.66511e-11
3.50278e-10
4.6128e-11
4.66514e-11
4.89947e-11
2.17998e-10
1.92178e-11
1.07514e-11
4.47519e-12
-1.55468e-11
-2.37219e-13
1.12043e-11
1.41356e-10
1.07446e-11
1.31453e-12
-9.00844e-12
-1.57151e-10
-3.64391e-11
-3.81437e-11
-3.59322e-11
-2.80274e-10
-1.47903e-11
-1.33971e-11
-1.30654e-11
-1.25985e-11
-1.18436e-11
-1.14048e-11
-1.07746e-11
-1.0262e-11
-9.43293e-12
-8.92096e-12
-8.33733e-12
-7.57848e-12
-6.82289e-12
-3.66231e-11
-6.44163e-12
-5.56397e-12
-4.89865e-12
-4.48186e-12
-4.0935e-12
-2.36578e-12
-1.71807e-12
7.84797e-13
1.43025e-11
4.8646e-12
6.54878e-12
3.58501e-11
4.74058e-12
5.79942e-12
2.67761e-11
4.25882e-12
5.65011e-12
2.00664e-11
4.96403e-13
9.20774e-14
-8.91551e-14
-2.08409e-12
-5.31584e-13
-5.964e-13
-2.50045e-12
-1.59612e-13
4.84915e-11
7.03583e-11
8.68337e-11
8.40739e-11
6.09429e-11
3.53595e-11
2.55097e-11
2.14798e-11
1.82462e-11
1.4192e-11
9.93171e-12
5.991e-12
8.88457e-13
6.78994e-13
3.7333e-12
6.80725e-13
1.77122e-13
1.44291e-13
-5.58525e-13
6.38244e-11
8.42235e-11
8.96078e-11
8.39561e-11
6.89612e-11
4.16113e-11
2.20396e-11
1.90385e-11
1.75357e-11
1.36086e-11
9.53054e-12
1.53688e-12
-3.38916e-11
-4.54915e-11
-7.35114e-12
8.58134e-13
2.73243e-13
1.62012e-13
-1.03565e-13
6.07911e-11
6.82448e-11
6.46152e-11
6.06518e-11
5.87041e-11
4.81869e-11
2.53784e-11
1.5399e-11
1.46634e-11
1.30069e-11
7.81501e-12
-3.04645e-11
-1.14652e-10
-1.45532e-10
-4.41605e-11
-9.90227e-13
8.48103e-13
1.37699e-13
-1.62411e-12
5.32496e-11
5.34906e-11
5.11766e-11
5.17146e-11
5.14209e-11
4.36868e-11
2.93336e-11
1.66215e-11
1.28605e-11
1.44607e-11
-2.34085e-12
-1.01007e-10
-2.26891e-10
-2.47986e-10
-1.16012e-10
-1.7212e-11
2.05754e-12
1.06155e-12
-4.04063e-12
4.26033e-11
4.71831e-11
5.39558e-11
5.70783e-11
4.42558e-11
2.11862e-11
1.63556e-11
1.61107e-11
1.1854e-11
7.89941e-12
-3.36708e-11
-1.7877e-10
-3.30712e-10
-3.14489e-10
-1.91084e-10
-4.06499e-11
1.85066e-12
1.59418e-12
-5.9083e-12
3.85889e-11
5.52404e-11
6.94276e-11
6.2819e-11
1.71539e-11
-3.80558e-11
-3.37136e-11
-3.99689e-12
-3.0305e-13
-9.71617e-12
-6.18198e-11
-2.64469e-10
-4.16043e-10
-3.78653e-10
-2.62121e-10
-9.44802e-11
-3.92774e-12
8.69597e-12
-1.10229e-11
4.39319e-11
7.58734e-11
8.97652e-11
5.87368e-11
-3.56116e-11
-1.40939e-10
-1.40941e-10
-4.36783e-11
6.01071e-12
-7.3612e-12
-1.20943e-10
-4.13206e-10
-4.51646e-10