/*--------------------------------*- C++ -*----------------------------------*\
| =========                 |                                                 |
| \\      /  F ield         | OpenFOAM: The Open Source CFD Toolbox           |
|  \\    /   O peration     | Version:  4.1                                   |
|   \\  /    A nd           | Web:      www.OpenFOAM.org                      |
|    \\/     M anipulation  |                                                 |
\*---------------------------------------------------------------------------*/
FoamFile
{
    version     2.0;
    format      ascii;
    class       volVectorField;
    location    "7";
    object      U;
}
// * * * * * * * * * * * * * * * * * * * * * * * * * * * * * * * * * * * * * //

dimensions      [0 1 -1 0 0 0 0];

internalField   nonuniform List<vector> 
1280
(
(1.08707e-17 3.27569 0.104822)
(-3.04457e-17 4.63485 -2.12144)
(-1.44516e-17 4.83119 -1.81755)
(1.29838e-17 5.05918 -1.63433)
(-2.6262e-18 7.07971 -4.24025)
(1.24575e-17 6.52175 -3.43945)
(3.37162e-17 7.66925 -3.47244)
(-1.98247e-16 7.54177 -3.2264)
(3.40847e-16 10.1405 -6.33382)
(3.5669e-16 9.79161 -4.99388)
(5.11638e-16 10.6918 -4.50756)
(-1.27697e-15 13.8346 -9.1079)
(-1.4372e-15 13.259 -7.34557)
(-1.57158e-15 14.7402 -6.75835)
(-4.49913e-15 18.61 -12.1688)
(-2.63155e-15 17.6836 -9.31659)
(-1.31314e-15 20.4145 -8.73063)
(-1.03267e-16 19.5948 -16.5097)
(6.92179e-16 28.0272 -12.4824)
(1.06726e-15 19.1653 -14.6353)
(-1.00878e-14 25.629 47.0636)
(-2.02945e-14 26.1654 62.5589)
(-2.63999e-14 28.3552 69.0294)
(-3.18155e-14 30.6638 72.309)
(-3.64931e-14 31.8244 74.6162)
(-4.00761e-14 35.0462 77.7079)
(-3.23601e-14 33.6743 49.2647)
(-4.85113e-14 69.7888 103.729)
(-4.98747e-14 71.1331 106.606)
(-5.12076e-14 72.3163 109.287)
(-5.2949e-14 73.1263 112.155)
(-5.56252e-14 73.7704 115.356)
(-5.76228e-14 74.2637 118.91)
(-5.82526e-14 74.5205 122.747)
(-5.90931e-14 74.6859 126.752)
(-6.05056e-14 74.4521 130.79)
(-6.16053e-14 74.3909 134.764)
(-6.18073e-14 73.4193 138.349)
(-6.26199e-14 73.6207 141.897)
(-6.83121e-14 71.4244 141.653)
(-6.09709e-14 90.1927 152.326)
(-3.70506e-14 48.7554 104.766)
(-3.7471e-14 36.2731 103.338)
(-3.96159e-14 24.8917 98.0176)
(-3.7739e-14 9.40412 70.9711)
(-1.5436e-14 2.23997 17.8101)
(-8.63567e-15 -0.414669 0.521827)
(-3.59453e-15 1.59794 -11.7571)
(1.66084e-15 0.189361 -33.8965)
(4.14157e-16 -1.21711 -23.9357)
(-8.72318e-15 2.02897 -23.468)
(-2.46051e-14 0.410108 -31.7856)
(-8.63019e-15 -1.36421 -10.4467)
(-1.05585e-15 0.494336 1.56963)
(7.2357e-15 -2.2054 18.4078)
(2.74124e-14 -9.38497 69.7894)
(2.93137e-14 -24.0502 95.8986)
(3.06375e-14 -35.4001 102.163)
(2.88612e-14 -47.7345 103.515)
(4.66333e-14 -88.6913 152.536)
(6.0678e-14 -70.0916 146.33)
(5.49626e-14 -71.7045 146.945)
(5.36018e-14 -71.1764 144.497)
(5.16861e-14 -71.7779 141.713)
(4.85893e-14 -71.4646 138.758)
(4.67888e-14 -71.4001 135.608)
(4.42034e-14 -70.8711 132.038)
(4.21005e-14 -70.2513 127.562)
(3.86992e-14 -69.2823 121.904)
(3.65988e-14 -68.0554 115.419)
(3.42044e-14 -66.6898 109.327)
(3.10912e-14 -65.3595 103.767)
(2.79913e-14 -63.1415 98.2658)
(7.72028e-15 -30.1635 44.7166)
(2.64272e-14 -28.9114 72.353)
(2.28265e-14 -26.3228 68.8085)
(2.0097e-14 -25.91 65.0738)
(1.83871e-14 -24.5542 60.1982)
(1.67938e-14 -22.9799 53.2799)
(9.70575e-15 -22.6855 41.5438)
(1.24161e-15 -16.2275 -11.2397)
(-6.04882e-16 -24.7982 -11.6708)
(-2.43085e-15 -16.8462 -14.568)
(-3.51552e-15 -19.0724 -8.35092)
(-4.73263e-15 -16.0301 -9.07743)
(-6.72122e-15 -18.2363 -10.9468)
(-3.42589e-15 -14.5837 -6.51475)
(-4.19109e-15 -13.0931 -6.91498)
(-4.48111e-15 -14.4508 -8.27997)
(-3.09944e-15 -11.2882 -4.22397)
(-4.02168e-15 -10.3957 -4.67419)
(-3.91361e-15 -11.4438 -5.94244)
(-4.35897e-16 -8.6285 -3.33151)
(-6.6542e-17 -8.88115 -3.47348)
(6.44301e-17 -7.55332 -3.30283)
(3.5421e-16 -8.89708 -3.88378)
(3.84162e-16 -6.40487 -1.60228)
(4.31003e-16 -6.20345 -1.56447)
(4.75489e-16 -6.64628 -1.65381)
(1.15347e-16 -4.82519 0.0993187)
(-5.38795e-15 10.268 49.5514)
(-7.81759e-15 14.3726 65.0395)
(-9.64819e-15 13.1312 70.6417)
(-9.34155e-15 11.0938 67.8928)
(-6.77144e-15 3.13818 53.1949)
(-3.92884e-15 -8.56635 36.6405)
(-2.83441e-15 -16.9894 30.6913)
(-2.38665e-15 -20.0669 28.5387)
(-2.02736e-15 -20.4195 25.9692)
(-1.57689e-15 -19.6077 22.4421)
(-1.10352e-15 -17.8337 19.0636)
(-6.65667e-16 -4.5306 12.2652)
(-9.87174e-17 10.3689 -5.65134)
(-7.54438e-17 3.29849 -10.871)
(-4.14811e-16 -5.76286 -8.3906)
(-7.56361e-17 -12.773 -4.34319)
(-1.96802e-17 -17.6435 -6.54122)
(-1.60323e-17 -18.3382 -6.4071)
(6.20584e-17 -10.9127 -6.35829)
(-7.0916e-15 4.34788 58.4909)
(-9.35817e-15 7.60725 69.3971)
(-9.95642e-15 12.3743 70.0422)
(-9.32846e-15 16.8623 67.6209)
(-7.66235e-15 13.9251 57.1804)
(-4.62348e-15 -1.34858 37.8828)
(-2.44884e-15 -15.2637 27.29)
(-2.11539e-15 -18.9714 27.7948)
(-1.94842e-15 -18.5009 26.931)
(-1.51206e-15 -17.2688 23.5778)
(-1.05895e-15 -13.9775 19.0734)
(-1.70765e-16 6.36064 5.16383)
(3.76574e-15 16.8874 -9.72887)
(5.05461e-15 5.48601 -14.5741)
(8.16794e-16 -7.8599 -13.6296)
(-9.53482e-17 -13.8679 -5.2295)
(-3.03603e-17 -17.2335 -6.02601)
(-1.80014e-17 -18.7917 -6.17806)
(1.15072e-17 -12.9115 -6.18406)
(-6.75457e-15 5.00602 56.3361)
(-7.58275e-15 8.9172 58.2556)
(-7.17946e-15 13.482 54.274)
(-6.73909e-15 17.0573 52.2834)
(-6.52268e-15 16.162 49.5053)
(-5.3541e-15 4.35245 41.2862)
(-2.81982e-15 -12.5485 28.1111)
(-1.711e-15 -19.3804 25.7212)
(-1.62926e-15 -18.4634 27.6318)
(-1.44521e-15 -16.0222 25.7636)
(-8.68334e-16 -10.5188 19.2224)
(3.38494e-15 10.4018 3.15061)
(1.27391e-14 18.9487 -3.25742)
(1.61703e-14 5.58608 -7.06745)
(4.90672e-15 -8.99626 -15.0153)
(1.10025e-16 -15.6345 -7.02501)
(-9.42336e-17 -16.8798 -5.76837)
(-1.52999e-17 -18.0448 -6.08803)
(1.80457e-16 -11.4343 -6.01502)
(-5.91663e-15 3.81058 52.4655)
(-5.9434e-15 9.17982 50.4863)
(-5.68629e-15 14.7544 46.4161)
(-5.74607e-15 18.3662 45.009)
(-5.71344e-15 17.7928 44.6716)
(-4.85409e-15 7.67328 42.749)
(-3.25929e-15 -9.31625 32.7581)
(-1.84684e-15 -18.6367 25.6468)
(-1.42894e-15 -18.5738 25.7374)
(-1.60675e-15 -13.7454 25.7407)
(2.60095e-16 -5.7605 20.7514)
(1.1223e-14 13.6663 11.7245)
(2.52101e-14 20.5244 10.7108)
(2.7554e-14 8.86941 6.98838)
(1.28902e-14 -8.34842 -9.53449)
(1.91244e-15 -17.5871 -8.07869)
(-2.28616e-16 -17.5791 -5.67118)
(-1.1795e-16 -19.6299 -5.40851)
(4.48959e-16 -14.1675 -6.85871)
(-4.7337e-15 5.26881 48.9538)
(-5.24257e-15 11.0839 46.4891)
(-5.99509e-15 15.5358 44.977)
(-6.34203e-15 18.0162 46.6269)
(-4.91731e-15 17.2954 49.6202)
(-2.35403e-15 9.19121 50.6675)
(-1.81729e-15 -6.16383 42.5246)
(-1.79007e-15 -16.4849 32.888)
(-1.31711e-15 -18.8581 28.5458)
(-8.77713e-16 -14.6767 29.5913)
(3.7412e-15 -4.35281 32.7933)
(1.98634e-14 16.3861 24.1717)
(3.67458e-14 20.9744 28.1588)
(3.49433e-14 13.0964 24.0332)
(2.12316e-14 -3.46306 7.36708)
(4.51666e-15 -16.7999 -6.40076)
(-2.05629e-16 -17.2482 -7.12105)
(-1.77131e-16 -16.4595 -6.15696)
(6.56477e-16 -6.49201 -7.13901)
(-4.28766e-15 4.92293 47.1595)
(-6.13782e-15 11.1048 46.2251)
(-7.71418e-15 14.6827 47.9649)
(-6.97989e-15 16.4582 53.3572)
(-1.90599e-15 16.0861 59.8546)
(4.22842e-15 10.3337 63.0451)
(3.74595e-15 -2.45432 55.9989)
(4.44098e-16 -12.8914 45.7956)
(3.36722e-17 -17.0977 40.0439)
(1.07957e-15 -14.3495 39.0222)
(6.86887e-15 -4.85546 38.0189)
(2.93854e-14 13.8652 37.714)
(4.6227e-14 20.5281 46.6836)
(4.20725e-14 16.8585 46.0656)
(2.91245e-14 4.09464 31.7397)
(1.04978e-14 -12.7009 6.4023)
(4.36416e-16 -17.9347 -7.29374)
(-9.66219e-16 -23.517 -7.13487)
(1.22477e-15 -18.1086 -12.093)
(-4.88132e-15 5.33167 46.6514)
(-8.43038e-15 10.7265 48.6585)
(-9.97391e-15 12.5597 54.063)
(-6.52632e-15 13.3397 62.7847)
(3.95684e-15 13.5379 72.0718)
(1.56598e-14 10.5849 77.8853)
(1.56601e-14 0.807962 73.3076)
(4.85314e-15 -10.3398 61.3231)
(-6.67857e-16 -16.0177 53.3964)
(8.17911e-16 -14.0285 48.9624)
(1.34381e-14 -3.70578 43.1851)
(4.59117e-14 13.0193 55.7227)
(5.01829e-14 17.7676 66.517)
(4.56854e-14 18.8395 69.4557)
(3.69922e-14 12.5809 62.2696)
(2.1767e-14 -0.263463 38.4079)
(5.90495e-15 -9.55688 4.04186)
(1.92808e-16 -7.27632 -7.70432)
(-1.08195e-14 9.4413 -53.0257)
(-6.58488e-15 4.09074 48.2013)
(-1.13658e-14 8.33249 54.3468)
(-1.17271e-14 8.97975 62.2559)
(-5.04422e-15 9.28825 72.3269)
(1.00775e-14 10.095 82.4273)
(2.82752e-14 9.69653 90.8444)
(3.70581e-14 4.33716 92.5745)
(2.83537e-14 -4.98687 84.1211)
(1.78852e-14 -11.9408 73.7787)
(2.10302e-14 -11.9766 68.1895)
(3.7851e-14 -5.89428 68.3529)
(4.77049e-14 6.2664 77.9017)
(4.23528e-14 15.1185 85.503)
(3.92093e-14 18.5684 89.5482)
(3.79984e-14 16.3004 90.7093)
(3.43803e-14 8.85982 84.932)
(2.93496e-14 -0.528936 73.1105)
(2.95228e-14 -13.1479 71.9119)
(3.71413e-14 -50.9096 100.15)
(-8.25312e-15 2.56935 51.3828)
(-1.35395e-14 5.26734 60.8363)
(-1.2357e-14 5.26151 69.2889)
(-4.16226e-15 5.34135 78.6337)
(1.13153e-14 6.21546 87.6291)
(3.10141e-14 6.4647 97.0784)
(4.8833e-14 3.36559 105.208)
(5.64421e-14 -3.05162 106.966)
(5.31349e-14 -9.28654 101.79)
(4.85599e-14 -11.439 95.9482)
(4.08591e-14 -6.9933 93.2273)
(2.21101e-14 4.78729 95.3058)
(1.10846e-14 13.0629 98.7938)
(1.41479e-14 16.7322 101.96)
(2.33621e-14 14.5095 105.65)
(3.28936e-14 6.96137 108.811)
(4.02223e-14 -3.373 111.322)
(4.41361e-14 -14.185 109.846)
(4.3184e-14 -27.2944 100.787)
(-8.91855e-15 0.0336592 52.5616)
(-1.32799e-14 1.43621 64.9476)
(-1.18443e-14 1.7352 73.0069)
(-5.65339e-15 1.98913 80.9571)
(4.90491e-15 2.75324 88.4912)
(1.84487e-14 2.70794 97.5144)
(3.23727e-14 0.41551 107.563)
(3.90578e-14 -3.71455 114.756)
(3.68402e-14 -7.73775 116.021)
(1.91195e-14 -9.17849 111.835)
(-1.25685e-14 -5.44328 105.138)
(-3.92368e-14 4.36497 101.551)
(-3.52697e-14 12.3291 102.446)
(-2.83725e-14 15.8305 104.781)
(-1.35043e-14 13.5657 107.085)
(3.43032e-15 6.77875 107.769)
(1.46166e-14 -1.5774 103.67)
(2.15324e-14 -9.98693 85.6394)
(1.55488e-14 -19.6326 46.6038)
(-5.81174e-15 -2.89032 47.7107)
(-8.22896e-15 -2.61963 62.2431)
(-8.04096e-15 -1.28489 71.5001)
(-7.80027e-15 -0.808408 79.5309)
(-7.83656e-15 -0.386885 86.872)
(-7.8983e-15 -1.13505 95.4142)
(-7.37e-15 -3.47039 105.423)
(-6.31457e-15 -6.29287 114.294)
(-1.54218e-14 -7.97367 118.295)
(-3.35172e-14 -7.13914 114.487)
(-5.13269e-14 -2.55735 104.084)
(-5.56764e-14 5.77887 94.843)
(-5.22441e-14 11.9233 92.8161)
(-4.99224e-14 14.9147 97.7928)
(-4.51157e-14 13.5792 105.337)
(-3.79949e-14 8.69868 109.315)
(-3.41708e-14 5.30543 106.06)
(-3.36635e-14 8.96781 86.2989)
(-3.01344e-14 19.2175 45.4325)
(-3.24827e-15 -6.19716 39.7138)
(-4.97544e-15 -7.72303 52.8435)
(-5.7448e-15 -5.30764 64.523)
(-8.51189e-15 -4.14618 74.5828)
(-1.40493e-14 -3.60076 83.5246)
(-2.18664e-14 -4.71175 92.5666)
(-3.08827e-14 -7.21146 102.627)
(-4.09806e-14 -8.96447 111.258)
(-5.12278e-14 -7.91804 112.407)
(-5.50926e-14 -3.53707 100.857)
(-4.79039e-14 2.64103 81.4474)
(-3.94471e-14 8.51712 68.1671)
(-3.81261e-14 10.9434 65.8908)
(-4.21922e-14 10.6434 70.707)
(-4.99361e-14 8.40018 85.434)
(-5.42309e-14 6.09972 101.735)
(-5.69524e-14 7.06986 113.554)
(-5.88968e-14 14.8186 115.493)
(-5.63301e-14 28.5357 104.22)
(-1.18157e-15 -8.39145 34.0212)
(-2.75248e-15 -12.3706 41.6182)
(-3.48415e-15 -10.0672 54.1464)
(-6.29341e-15 -8.39259 66.0613)
(-1.31281e-14 -7.57547 77.1946)
(-2.4623e-14 -8.73283 87.4155)
(-3.85101e-14 -10.9256 97.2456)
(-4.91906e-14 -10.1108 102.483)
(-4.77179e-14 -3.7907 94.0726)
(-3.18898e-14 5.24351 71.2494)
(-1.8433e-14 10.3375 50.4793)
(-1.497e-14 11.6816 40.8025)
(-1.7848e-14 10.695 40.5147)
(-2.17959e-14 7.24342 41.2125)
(-3.03285e-14 1.6867 46.4532)
(-3.76409e-14 -1.94722 56.7127)
(-3.75991e-14 -0.686221 63.5084)
(-3.7886e-14 11.7656 71.2308)
(-4.76432e-14 52.5062 100.215)
(5.94014e-16 -9.31705 34.0782)
(-1.19517e-15 -15.7323 33.5143)
(-1.77898e-15 -15.11 43.275)
(-3.48104e-15 -13.3693 55.0529)
(-8.82317e-15 -12.1137 67.6824)
(-1.95515e-14 -12.645 79.0364)
(-3.2203e-14 -13.2604 87.7388)
(-3.61998e-14 -7.72984 86.5325)
(-2.28336e-14 4.37172 67.4067)
(-7.58126e-15 13.8952 44.1766)
(-2.95592e-15 15.1207 30.6875)
(-2.8648e-15 13.0002 25.2244)
(-4.97237e-15 11.0306 24.2991)
(-8.33248e-15 8.05079 23.7938)
(-1.25754e-14 2.58246 20.1298)
(-1.58457e-14 0.0817978 13.8942)
(-1.11424e-14 2.08996 -3.02199)
(-3.71622e-15 3.21198 -11.4956)
(5.86162e-15 -7.54223 -45.4355)
(2.2782e-15 -7.9213 39.6928)
(-3.06043e-17 -16.0358 32.2613)
(-7.77566e-16 -18.5938 35.8728)
(-1.55005e-15 -18.1709 44.4717)
(-4.53633e-15 -17.1857 56.464)
(-1.19332e-14 -16.6765 68.1501)
(-2.00602e-14 -14.0095 74.9925)
(-1.74651e-14 -2.10577 66.4005)
(-4.12527e-15 13.0599 43.4199)
(1.81499e-15 20.1378 27.6666)
(1.71262e-15 17.8202 21.1606)
(7.08973e-16 14.0266 19.1632)
(6.09578e-17 11.3962 16.0192)
(-1.78374e-15 9.1013 13.8186)
(-3.06852e-15 5.68012 7.9498)
(-4.01422e-15 5.49606 -0.336993)
(-2.87918e-15 7.65821 -10.2673)
(-9.74007e-16 17.4169 -12.2558)
(3.79748e-17 15.7474 -20.733)
(4.3444e-15 -6.39478 49.305)
(1.46817e-15 -14.4932 38.3706)
(-8.44707e-18 -20.0043 34.6088)
(-6.3154e-16 -21.6244 37.4054)
(-1.8552e-15 -21.4819 45.8317)
(-5.57904e-15 -19.7813 56.3235)
(-9.01737e-15 -12.6963 60.9368)
(-3.97573e-15 5.1363 47.0255)
(2.24854e-15 19.5553 28.7902)
(2.63163e-15 23.1214 21.6001)
(2.01018e-15 18.7067 19.9806)
(1.68127e-15 15.0025 17.422)
(1.21121e-15 12.9248 12.3927)
(3.57137e-16 10.8723 8.52503)
(-3.04341e-16 8.38516 3.21699)
(-7.99025e-16 8.30803 -3.26547)
(-8.57654e-16 8.73406 -11.1898)
(-3.12804e-16 13.705 -12.5107)
(3.10364e-17 5.32877 -13.5136)
(6.85732e-15 -3.02052 59.3414)
(4.36445e-15 -10.0109 50.8462)
(1.78003e-15 -17.994 41.3782)
(3.29332e-16 -22.7142 37.4391)
(-5.22134e-16 -24.9183 39.3736)
(-1.81425e-15 -22.8308 45.8805)
(-2.15112e-15 -10.7231 47.696)
(1.73626e-15 10.9246 32.9387)
(2.80773e-15 23.1583 21.9043)
(1.81553e-15 23.7778 20.9457)
(1.71502e-15 19.4129 20.5026)
(1.64964e-15 16.9742 16.2413)
(1.25076e-15 15.1672 10.8899)
(8.6543e-16 12.7766 6.0785)
(3.82022e-16 10.5036 1.22147)
(-1.51795e-17 10.9129 -3.66454)
(-1.73649e-16 10.8169 -10.3588)
(-8.63313e-17 15.7648 -10.2821)
(1.76053e-17 10.777 -10.4084)
(8.54113e-15 -3.42954 66.4852)
(8.06397e-15 -7.90129 64.6597)
(5.35047e-15 -14.8807 54.1871)
(2.93183e-15 -20.7752 45.84)
(1.33153e-15 -24.4777 41.44)
(8.13768e-16 -22.6307 42.6706)
(1.80071e-15 -7.4446 39.9436)
(3.47581e-15 14.614 25.0742)
(2.46705e-15 24.519 20.0542)
(1.87144e-15 23.7183 21.0755)
(1.981e-15 20.5886 19.1451)
(1.75946e-15 18.8382 14.7689)
(1.3407e-15 17.0217 10.247)
(9.32613e-16 14.6911 5.57038)
(5.42212e-16 12.3139 0.586509)
(1.47412e-16 12.8825 -3.62373)
(-5.15179e-17 11.8466 -8.66692)
(-7.37567e-17 14.4358 -8.48837)
(-7.33092e-17 7.79323 -8.29171)
(8.87913e-15 -1.8602 68.7895)
(1.11344e-14 -4.23546 78.2156)
(1.01174e-14 -10.021 74.0774)
(8.19867e-15 -17.7061 67.5914)
(6.18046e-15 -24.34 59.5957)
(5.03362e-15 -23.2738 51.5109)
(4.66796e-15 -3.82229 36.2762)
(3.70016e-15 18.3584 22.2549)
(2.44144e-15 24.9148 21.1393)
(2.0534e-15 24.0473 20.4495)
(2.02167e-15 21.7641 17.8341)
(1.789e-15 20.2143 14.2131)
(1.38633e-15 18.4852 10.1002)
(9.68208e-16 16.2305 5.67687)
(5.5646e-16 13.8088 0.955242)
(1.35921e-16 14.3142 -2.62066)
(-8.01011e-17 12.5573 -6.62536)
(-7.05093e-17 14.8317 -6.85246)
(-4.62097e-17 8.81308 -7.35464)
(5.81702e-15 -8.12796 56.56)
(9.49205e-15 -11.1341 72.8202)
(1.12894e-14 -11.546 78.6949)
(1.17489e-14 -14.9968 79.288)
(1.06287e-14 -16.8329 71.952)
(8.32722e-15 -11.4214 56.3144)
(5.57519e-15 6.53059 34.6139)
(3.86494e-15 21.2055 25.1748)
(2.6502e-15 26.0819 21.6192)
(2.0963e-15 25.3382 19.5906)
(2.01301e-15 23.5217 17.3319)
(1.82636e-15 22.5254 14.0691)
(1.42777e-15 21.1848 10.1058)
(9.90945e-16 19.1284 5.90826)
(5.61937e-16 16.4774 1.48149)
(1.23094e-16 16.5981 -1.71537)
(-8.6384e-17 13.9814 -5.58368)
(-6.36499e-17 15.0381 -6.14327)
(-4.1562e-17 7.0545 -6.96388)
(-8.99557e-16 98.7929 167.849)
(-4.42065e-14 127.33 215.319)
(-4.09341e-14 130.355 213.032)
(-3.96221e-14 127.449 203.283)
(-3.88064e-14 124.357 192.278)
(-4.92478e-14 120.212 180.586)
(-5.51807e-14 114.437 167.133)
(-5.45452e-14 109.505 157.209)
(-5.16477e-14 104.967 148.07)
(-5.06426e-14 100.539 140.165)
(-5.24524e-14 96.5707 133.677)
(-5.67421e-14 93.0991 128.578)
(-5.96137e-14 89.9522 124.621)
(-5.99552e-14 86.9721 121.412)
(-6.15042e-14 83.864 118.557)
(-6.55701e-14 80.4975 115.676)
(-6.84519e-14 76.4977 112.303)
(-6.98164e-14 71.474 107.894)
(-7.76565e-14 64.2028 99.5669)
(-1.01719e-13 46.2133 77.3934)
(-1.26977e-15 96.8082 163.515)
(-3.91042e-14 122.617 210.914)
(-2.9306e-14 127.104 213.429)
(-2.96116e-14 124.213 206.705)
(-2.91502e-14 119.67 195.406)
(-4.48978e-14 112.97 181.987)
(-4.37804e-14 106.061 168.254)
(-4.08359e-14 99.1912 155.009)
(-4.11037e-14 92.9427 143.313)
(-4.36831e-14 87.5754 133.418)
(-4.70771e-14 82.9928 125.242)
(-5.12027e-14 79.0586 118.498)
(-5.37265e-14 75.4942 112.885)
(-5.50874e-14 72.209 107.974)
(-5.75807e-14 68.749 103.49)
(-6.23887e-14 65.2662 98.7748)
(-6.48229e-14 60.7051 93.6253)
(-6.83307e-14 55.7495 86.3981)
(-7.78983e-14 46.2806 75.1402)
(-1.16298e-13 28.9085 44.7344)
(4.52915e-17 102.093 175.341)
(-1.27406e-14 134.725 231.005)
(-9.37421e-15 138.997 233.722)
(-9.32013e-15 134.641 224.192)
(-8.50964e-15 127.616 209.618)
(-2.3598e-14 118.652 192.951)
(-1.88004e-14 109.886 176.899)
(-1.69006e-14 102.175 162.793)
(-1.68021e-14 95.5653 150.595)
(-1.83944e-14 89.8046 139.89)
(-2.04949e-14 84.6394 130.463)
(-2.17908e-14 79.9703 122.095)
(-2.25264e-14 75.5658 114.683)
(-2.43113e-14 71.4379 107.906)
(-2.65636e-14 67.0975 101.589)
(-2.84425e-14 62.7853 95.0037)
(-2.99122e-14 57.2209 87.9771)
(-3.42669e-14 51.3466 78.603)
(-3.91701e-14 40.3302 64.8952)
(-8.24778e-14 21.6097 31.1183)
(6.9717e-17 104.843 179.667)
(2.90881e-15 141.601 242.154)
(2.31794e-15 143.7 242.672)
(2.38567e-15 137.387 230.313)
(2.91061e-15 127.585 212.602)
(-1.47738e-14 116.977 193.626)
(-1.57825e-14 107.723 177.598)
(-1.65857e-14 100.39 163.944)
(-1.5257e-14 93.7762 152.047)
(-1.81334e-14 87.8989 140.903)
(-2.06974e-14 82.2002 130.615)
(-2.24579e-14 76.9072 120.907)
(-2.28406e-14 71.6792 111.934)
(-2.52206e-14 66.7296 103.384)
(-2.74073e-14 61.4595 95.25)
(-2.99874e-14 56.2988 86.7138)
(-3.07876e-14 49.6674 77.7112)
(-3.70163e-14 42.9588 66.0123)
(-4.67681e-14 29.6728 48.8245)
(-1.28276e-13 9.60964 8.31189)
(-3.68868e-17 110.805 190.71)
(-6.67567e-16 148.92 253.798)
(-5.7995e-16 147.32 250.321)
(-6.04464e-16 138.897 234.309)
(-8.29358e-16 126.586 214.195)
(3.17035e-15 116.013 194.814)
(3.84491e-15 107.157 180.538)
(3.99907e-15 100.764 167.73)
(4.0018e-15 93.9179 156.375)
(4.40679e-15 88.0875 144.842)
(4.91393e-15 81.7398 134.053)
(5.29004e-15 76.0284 123.287)
(5.49352e-15 70.0119 113.157)
(5.89889e-15 64.4487 103.117)
(6.44654e-15 58.3913 93.4965)
(7.03817e-15 52.6809 83.3308)
(7.55541e-15 45.3571 72.7595)
(8.64449e-15 38.2311 59.4392)
(1.07212e-14 23.1326 38.624)
(2.10235e-14 4.85855 -0.173629)
(1.36097e-17 116.537 201.044)
(1.54527e-16 152.634 260.056)
(1.46192e-16 146.86 251.505)
(1.48286e-16 136.887 232.623)
(2.11954e-16 123.429 212.223)
(-6.64895e-16 114.31 194.116)
(-9.24877e-16 105.699 181.748)
(-9.81393e-16 99.9581 168.969)
(-9.99255e-16 92.2911 157.849)
(-1.07795e-15 86.564 145.809)
(-1.16604e-15 79.4188 134.884)
(-1.25914e-15 73.5972 123.507)
(-1.3234e-15 66.9572 112.968)
(-1.38568e-15 61.2609 102.21)
(-1.51735e-15 54.8159 92.0497)
(-1.64046e-15 49.1308 81.0653)
(-1.76833e-15 41.45 69.6315)
(-1.98169e-15 34.0884 54.6446)
(-2.47491e-15 15.953 28.5987)
(1.08859e-14 -1.73491 -10.2577)
(-4.34454e-18 121.657 210.749)
(-3.56323e-17 154.129 262.985)
(-3.55992e-17 145.085 250.19)
(-3.52827e-17 134.532 229.645)
(-5.09543e-17 121.278 210.654)
(1.42319e-16 113.693 193.974)
(2.22367e-16 104.795 182.395)
(2.41177e-16 99.2415 169.128)
(2.47037e-16 90.919 158.031)
(2.58162e-16 85.3116 145.724)
(2.75755e-16 77.7766 134.878)
(2.99174e-16 72.0989 123.482)
(3.12578e-16 65.3917 113.181)
(3.23491e-16 59.98 102.66)
(3.53115e-16 53.7445 92.8553)
(3.77592e-16 48.3235 82.0173)
(4.04073e-16 40.658 70.3042)
(4.4829e-16 32.6019 53.9551)
(5.00401e-16 12.8339 24.2275)
(-7.10697e-16 -4.23458 -11.5512)
(1.28412e-18 124.621 216.755)
(8.07471e-18 154.743 264.426)
(8.31745e-18 143.737 248.682)
(8.3047e-18 132.896 226.704)
(1.16957e-17 120.273 209.318)
(-3.02502e-17 113.616 193.533)
(-5.33861e-17 104.597 182.067)
(-5.86123e-17 98.9727 168.667)
(-5.96079e-17 90.7477 157.443)
(-6.08303e-17 84.9946 145.27)
(-6.47354e-17 77.7453 134.409)
(-7.0139e-17 72.0204 123.363)
(-7.25947e-17 65.6866 113.258)
(-7.50558e-17 60.2686 103.176)
(-8.1429e-17 54.2994 93.4787)
(-8.64865e-17 48.5176 82.7728)
(-9.21034e-17 40.7668 70.438)
(-1.01738e-16 31.3313 53.0854)
(-1.87039e-16 11.8699 22.1372)
(-2.29999e-15 -5.09346 -10.7611)
(-3.55694e-19 126.072 219.87)
(-1.79181e-18 157.305 268.161)
(-1.8876e-18 144.305 249.574)
(-1.92852e-18 132.982 225.089)
(-2.76215e-18 120.834 209.022)
(6.35126e-18 114.97 193.896)
(1.26778e-17 106.222 182.376)
(1.4033e-17 100.39 169.089)
(1.40401e-17 92.6634 157.511)
(1.41263e-17 86.5462 145.497)
(1.49975e-17 79.7572 134.389)
(1.61387e-17 73.74 123.486)
(1.66558e-17 67.6076 113.152)
(1.73232e-17 61.742 102.959)
(1.86701e-17 55.5346 92.6929)
(1.98024e-17 48.8822 81.5057)
(2.1131e-17 40.6326 68.2683)
(2.3328e-17 30.0851 50.5499)
(3.4001e-17 12.4114 21.6039)
(-6.72644e-16 -5.13137 -9.93974)
(9.07803e-20 128.476 224.084)
(3.90077e-19 163.142 275.434)
(4.24399e-19 146.394 252.959)
(4.38981e-19 135.279 225.567)
(6.70323e-19 123.572 211.152)
(-1.26893e-18 118.603 196.251)
(-2.92097e-18 110.133 184.386)
(-3.3118e-18 104.201 170.955)
(-3.25024e-18 96.9418 158.869)
(-3.23105e-18 90.6403 146.623)
(-3.40804e-18 84.0862 134.967)
(-3.63609e-18 77.773 123.551)
(-3.77423e-18 71.3471 112.367)
(-3.95526e-18 64.7285 101.136)
(-4.24863e-18 57.5804 89.5255)
(-4.53058e-18 49.6947 76.9443)
(-4.89778e-18 40.2255 62.3932)
(-5.59039e-18 28.7133 44.056)
(-1.25031e-17 11.4818 17.0291)
(2.09142e-16 -5.45487 -12.3975)
(-2.20705e-20 135.299 236.73)
(-8.37221e-20 170.996 283.981)
(-9.55759e-20 148.561 257.553)
(-9.8681e-20 140.74 230.717)
(-1.60475e-19 128.919 217.914)
(2.31417e-19 125.021 202.471)
(6.38405e-19 116.669 190.381)
(7.64937e-19 111.298 176.669)
(7.46534e-19 104.597 164.248)
(7.27742e-19 98.6646 151.403)
(7.53061e-19 92.2676 138.701)
(7.95132e-19 85.5987 125.689)
(8.31848e-19 78.2856 112.351)
(8.76949e-19 70.261 98.4942)
(9.43221e-19 61.2252 83.9874)
(1.02e-18 51.2 68.3581)
(1.14401e-18 39.2275 51.0005)
(1.18048e-18 25.5088 30.0704)
(-1.69046e-18 4.48249 1.21561)
(1.36814e-16 -10.1737 -30.1433)
(4.75113e-21 146.77 260.989)
(1.837e-20 176.673 288.943)
(2.1742e-20 149.021 262.929)
(2.20795e-20 147.205 240.026)
(3.73368e-20 134.158 229.306)
(-3.91365e-20 132.156 213.727)
(-1.32216e-19 123.553 202.73)
(-1.70275e-19 119.894 189.608)
(-1.69667e-19 113.895 178.055)
(-1.63036e-19 108.934 164.857)
(-1.63814e-19 102.271 150.587)
(-1.70098e-19 94.4541 134.386)
(-1.78437e-19 84.955 116.847)
(-1.89287e-19 74.1961 98.1863)
(-2.05088e-19 61.9205 78.7086)
(-2.23834e-19 48.3802 57.9277)
(-2.38824e-19 32.0812 35.8805)
(-6.03544e-19 15.5449 11.7171)
(2.37606e-18 -9.29696 -17.4008)
(9.88989e-18 -20.2604 -51.4372)
(-1.02586e-21 156.038 284.392)
(-4.20276e-21 171.923 281.002)
(-5.01697e-21 145.006 264.775)
(-4.94381e-21 147.46 245.835)
(-8.70568e-21 132.108 237.41)
(7.58344e-21 131.518 222.691)
(2.82866e-20 121.615 214.499)
(3.75165e-20 119.511 203.475)
(3.80178e-20 112.711 194.327)
(3.65154e-20 107.146 180.735)
(3.60431e-20 96.8635 163.389)
(3.74815e-20 84.3546 141.196)
(4.05221e-20 69.1012 116.821)
(3.75326e-20 52.7774 91.0354)
(2.47236e-20 34.7659 63.944)
(1.08908e-19 14.9313 33.9524)
(4.52113e-19 -7.31279 0.34732)
(-2.10589e-19 -17.7955 -23.5359)
(-6.99306e-18 -38.9538 -47.3577)
(-2.61803e-17 -33.3938 -68.0715)
(2.45806e-22 153.264 284.513)
(1.00423e-21 159.35 263.37)
(1.17424e-21 136.722 255.918)
(1.29888e-21 137.865 237.763)
(1.77477e-21 121.6 229.692)
(-2.31973e-21 119.34 215.944)
(-6.87422e-21 108.451 208.826)
(-8.72005e-21 104.692 199.217)
(-8.80469e-21 95.6252 190.37)
(-8.8012e-21 86.2665 174.744)
(-9.07864e-21 70.7094 152.725)
(-7.34261e-21 53.2007 125.164)
(-7.38223e-21 34.3499 96.9011)
(-3.82318e-20 16.2889 69.1154)
(-7.41472e-20 -1.23305 42.4626)
(1.82324e-19 -17.2699 17.3636)
(9.95658e-19 -30.6225 -5.76832)
(1.34593e-18 -35.9535 -21.609)
(-1.16162e-18 -25.6176 -16.0124)
(-5.53236e-18 -2.59597 8.93828)
(-6.19841e-23 143.336 268.973)
(-2.38048e-22 152.904 249.746)
(-2.77198e-22 127.342 241.538)
(-3.24864e-22 129.809 220.734)
(-2.96013e-22 110.984 212.694)
(7.29814e-22 108.697 196.764)
(1.70648e-21 95.7274 188.385)
(2.06976e-21 90.2516 177.009)
(2.00567e-21 79.4908 167.022)
(1.57601e-21 68.8219 151.54)
(1.33473e-21 53.9628 131.258)
(4.01274e-21 38.7558 107.233)
(8.2682e-21 23.9166 82.9193)
(-1.09156e-20 10.8585 59.3677)
(-8.80724e-20 0.882052 39.3992)
(-1.69271e-19 -1.75316 30.1092)
(-1.01158e-19 8.04469 40.6119)
(1.01227e-19 30.5652 69.8994)
(2.12571e-19 54.7232 98.3597)
(2.64621e-19 46.9798 91.9799)
(1.44035e-23 139.455 266.605)
(5.20203e-23 156.228 244.769)
(5.73107e-23 125.382 238.104)
(6.8446e-23 134.295 213.309)
(6.75349e-23 112.179 206.107)
(-1.52564e-22 113.666 186.543)
(-3.64497e-22 99.2656 176.303)
(-4.34639e-22 95.2041 161.14)
(-4.04075e-22 85.2827 149.75)
(-3.54282e-22 78.7233 136.729)
(-4.61344e-22 70.5908 124.197)
(-8.98333e-22 64.0808 111.066)
(-9.0044e-22 58.5458 98.9646)
(2.43237e-21 54.6991 87.9521)
(1.22181e-20 52.1115 78.2787)
(2.53364e-20 51.0586 71.0493)
(3.2995e-20 51.987 67.4401)
(2.34841e-20 51.9051 67.7313)
(-1.90762e-20 48.0122 65.1908)
(-7.42435e-20 33.2686 51.0731)
(-2.74794e-24 138.734 271.541)
(-1.10979e-23 160.058 247.043)
(-1.37665e-23 126.408 242.548)
(-1.55826e-23 137.336 218.135)
(-1.24222e-23 116.521 210.987)
(3.44364e-23 117.815 193.108)
(7.72609e-23 106.343 182.582)
(8.85375e-23 102.684 168.651)
(7.95214e-23 95.5769 157.125)
(7.08033e-23 90.8218 145.287)
(9.63716e-23 85.823 134.63)
(1.80612e-22 81.6697 124.293)
(2.23327e-22 77.5464 114.043)
(-1.01612e-22 73.4421 103.381)
(-1.13951e-21 68.6532 92.0221)
(-2.78638e-21 62.6954 78.8113)
(-4.51014e-21 53.3352 63.0488)
(-5.84605e-21 40.9273 43.3183)
(-4.19468e-21 21.8801 21.9506)
(-3.60275e-21 5.33561 -5.21147)
(8.65465e-25 132.754 272.464)
(2.07442e-24 158.499 245.141)
(7.31266e-25 121.504 243.604)
(3.45745e-25 130.743 222.138)
(6.03402e-25 112.013 214.714)
(-5.43877e-24 110.54 199.919)
(-1.00924e-23 100.829 189.92)
(-9.20078e-24 96.3206 178.134)
(-3.46928e-24 90.0437 167.794)
(4.05977e-24 85.3042 157.103)
(3.37744e-24 80.3091 146.763)
(-1.79097e-23 75.8087 136.34)
(-4.86131e-23 71.3209 125.989)
(-2.17e-23 66.8441 114.999)
(1.5308e-22 60.9508 101.727)
(5.15797e-22 51.9221 82.3628)
(1.02362e-21 35.7373 53.7833)
(1.49375e-21 14.9983 14.4136)
(1.06533e-21 -13.0569 -21.79)
(3.91553e-21 -21.4216 -54.9401)
(-1.02396e-26 109.569 256.422)
(-2.76818e-25 149.352 227.309)
(-1.1605e-24 108.831 230.237)
(-2.17079e-24 114.906 215.124)
(-1.66907e-24 98.9578 209.467)
(3.00845e-25 94.2771 199.948)
(1.82709e-24 85.5138 192.533)
(3.45026e-24 79.4204 184.481)
(6.68921e-24 72.9676 176.844)
(1.11007e-23 67.3597 169.055)
(1.31621e-23 62.0398 161.291)
(7.80879e-24 57.2554 153.525)
(-8.09222e-24 52.8943 145.769)
(-2.44862e-23 48.5697 137.288)
(1.01429e-23 42.9156 125.565)
(1.90282e-22 33.3366 105.694)
(5.24217e-22 17.5168 72.6209)
(7.82422e-22 -3.12653 27.5701)
(8.7839e-22 -21.4734 -16.2763)
(1.23753e-21 -21.0065 -36.1525)
(6.37359e-26 36.1444 158.472)
(1.81851e-25 78.47 131.218)
(1.92932e-26 52.753 139.385)
(-5.76925e-25 52.5032 135.413)
(-1.39718e-24 43.9581 135.5)
(-2.08884e-24 39.4852 133.974)
(-2.50099e-24 34.3764 132.825)
(-2.71984e-24 30.3363 131.306)
(-2.62361e-24 26.6856 129.655)
(-1.89352e-24 23.6703 127.783)
(-5.26273e-25 21.2154 125.739)
(5.65712e-25 19.3856 123.546)
(-6.12008e-25 18.2084 121.299)
(-7.3791e-24 17.7893 119.204)
(-2.46632e-23 18.4338 117.434)
(-5.39224e-23 20.1975 115.937)
(-7.96064e-23 22.719 113.822)
(-7.14749e-23 28.151 107.093)
(-2.99426e-23 32.1082 92.2957)
(-2.37812e-24 7.84105 66.7917)
(-1.25105e-25 -36.1436 158.479)
(3.74373e-25 -78.4744 131.216)
(1.1508e-24 -52.7562 139.38)
(1.99151e-24 -52.5093 135.402)
(2.77807e-24 -43.9668 135.486)
(3.405e-24 -39.4975 133.957)
(3.81187e-24 -34.3932 132.804)
(3.98773e-24 -30.3581 131.282)
(3.90124e-24 -26.713 129.627)
(3.41446e-24 -23.7033 127.751)
(2.58615e-24 -21.2548 125.703)
(2.2891e-24 -19.4329 123.507)
(4.15277e-24 -18.2645 121.256)
(8.82318e-24 -17.8489 119.141)
(1.34454e-23 -18.4832 117.329)
(1.16108e-23 -20.2215 115.786)
(7.33893e-27 -22.7092 113.666)
(-1.14526e-23 -28.1087 106.986)
(-7.10891e-24 -32.0486 92.2161)
(4.68779e-24 -7.81011 66.7036)
(5.32539e-25 -109.534 256.362)
(1.73933e-25 -149.329 227.236)
(-1.23702e-24 -108.804 230.165)
(-3.35276e-24 -114.89 215.046)
(-5.85662e-24 -98.9422 209.384)
(-8.36768e-24 -94.2671 199.858)
(-1.0499e-23 -85.5067 192.436)
(-1.22891e-23 -79.4185 184.378)
(-1.41234e-23 -72.9717 176.736)
(-1.55053e-23 -67.3713 168.944)
(-1.42503e-23 -62.0562 161.174)
(-8.45814e-24 -57.2681 153.388)
(-1.52601e-24 -52.8962 145.599)
(-3.67259e-24 -48.5821 137.118)
(-1.9089e-23 -43.0221 125.54)
(-1.67112e-23 -33.6636 106.048)
(6.11309e-23 -18.0771 73.4246)
(1.61113e-22 2.57631 28.4014)
(-1.31955e-23 21.2351 -15.9725)
(-6.02959e-22 21.0024 -36.1687)
(-1.5095e-24 -132.712 272.401)
(5.21992e-25 -158.466 245.088)
(4.41132e-24 -121.466 243.54)
(9.2863e-24 -130.693 222.069)
(1.4515e-23 -111.962 214.639)
(1.97585e-23 -110.475 199.837)
(2.44121e-23 -100.757 189.827)
(2.73413e-23 -96.2323 178.033)
(2.71074e-23 -89.9456 167.686)
(2.41175e-23 -85.1978 157)
(2.44e-23 -80.2009 146.67)
(3.13237e-23 -75.6919 136.248)
(2.95965e-23 -71.1834 125.877)
(-9.54702e-24 -66.6759 114.866)
(-7.93114e-23 -60.7966 101.637)
(-1.20426e-22 -51.8738 82.4573)
(-5.93078e-23 -35.8842 54.1405)
(1.0699e-22 -15.1996 14.8202)
(2.52342e-22 12.7042 -21.4152)
(-2.33609e-21 21.152 -54.2783)
(5.77144e-24 -138.709 271.461)
(4.03314e-25 -159.927 246.871)
(-1.23903e-23 -126.304 242.43)
(-3.04548e-23 -137.239 218.026)
(-5.11123e-23 -116.39 210.892)
(-7.30516e-23 -117.695 193.007)
(-9.20831e-23 -106.187 182.504)
(-1.05691e-22 -102.532 168.581)