/*--------------------------------*- C++ -*----------------------------------*\
| =========                 |                                                 |
| \\      /  F ield         | OpenFOAM: The Open Source CFD Toolbox           |
|  \\    /   O peration     | Version:  4.1                                   |
|   \\  /    A nd           | Web:      www.OpenFOAM.org                      |
|    \\/     M anipulation  |                                                 |
\*---------------------------------------------------------------------------*/
FoamFile
{
    version     2.0;
    format      ascii;
    class       volScalarField;
    location    "22";
    object      p;
}
// * * * * * * * * * * * * * * * * * * * * * * * * * * * * * * * * * * * * * //

dimensions      [0 2 -2 0 0 0 0];

internalField   nonuniform List<scalar> 
1280
(
0.398879
1.91842
2.77943
2.67515
2.65465
4.30994
3.90053
3.49183
3.61302
4.62067
2.85844
3.25849
3.84626
0.500121
1.92958
1.84128
-3.02168
-2.81954
1.7996
-15.9254
1.12437
24.2528
43.265
47.4226
48.3483
54.9019
21.8038
53.1768
53.6886
53.0407
52.6129
52.0579
51.6952
52.2093
53.7729
56.5788
61.178
66.3016
72.9678
71.0085
21.1425
53.286
58.9096
60.0049
71.7049
71.4628
72.3969
73.1191
74.886
74.5385
74.4799
75.3032
70.4148
67.5297
67.2422
71.3953
47.8237
45.0675
35.3146
-0.74552
60.7116
63.7193
55.6702
49.4996
43.6167
40.1004
38.1977
37.9461
38.5515
39.2622
39.7318
39.7731
40.8406
31.9462
62.9114
55.5521
52.8158
45.3471
26.0124
6.68026
-4.97891
9.87608
16.4695
22.4139
23.8688
28.5431
29.2128
29.1019
28.1547
28.3386
26.2216
23.86
23.0921
18.9678
17.0228
14.9959
11.0401
4.25787
-1.62577
4.20511
-0.10467
0.191754
0.495353
0.958039
1.36567
1.07604
-0.771067
-2.59734
-1.95415
-1.10047
-1.05279
-1.57966
-2.67169
-2.26594
-0.625135
1.36086
3.58354
4.95009
4.51969
-0.341749
0.134298
0.811434
1.72526
2.87485
2.76679
3.90078
-4.5986
-8.11099
-6.34035
-5.64969
-4.68353
-2.94578
1.27706
6.47353
12.539
16.3304
18.4485
13.2197
-0.274162
0.468146
1.21863
2.40627
4.15015
3.12147
5.77439
-7.48722
-14.6391
-11.004
-8.09565
-5.87394
-2.8499
2.93821
9.64979
17.818
23.0374
26.3706
19.8342
-0.250307
0.767555
1.6858
3.23497
5.85694
4.38045
7.21902
-8.16421
-20.4763
-15.0144
-10.6154
-7.27868
-3.30789
3.83738
12.103
22.4969
29.5902
34.0121
25.4152
-0.256916
1.00666
2.14478
4.10245
7.89756
9.22761
8.53491
-10.1506
-24.1424
-18.018
-13.1935
-8.81291
-3.74528
4.94738
14.9248
27.6863
36.6863
42.5808
31.4516
-0.240322
1.2532
2.60076
4.95398
9.58519
15.3472
8.75436
-13.0289
-24.8795
-20.0028
-15.1437
-10.0695
-4.09006
5.89147
17.3487
32.3277
42.8941
51.233
31.0292
-0.212593
1.48703
3.02446
5.73575
10.5216
19.258
8.11609
-14.9236
-24.2831
-20.6221
-16.5239
-11.1502
-4.47385
6.51992
19.1921
36.2713
47.9656
58.2489
29.954
-0.174971
1.69625
3.38658
6.40255
11.0535
20.7232
7.42996
-15.879
-23.2148
-20.6324
-17.556
-12.1048
-4.916
6.8499
20.5337
39.6201
53.7286
61.3059
47.0194
-0.12179
1.88411
3.685
6.95258
11.6231
20.3636
6.96903
-16.193
-22.1362
-20.7126
-18.3026
-12.9223
-5.433
6.83537
21.1526
40.9224
61.0013
60.1341
82.5112
-0.0536694
2.04951
3.92389
7.39012
12.3218
18.799
6.38785
-15.8711
-21.0567
-20.673
-18.7478
-13.6112
-6.04318
6.37836
20.7917
40.3295
57.2696
57.1442
83.616
0.0241649
2.18606
4.09676
7.69586
12.9591
16.6357
5.70439
-14.9916
-19.8148
-20.3103
-18.8835
-14.152
-6.7134
5.50619
19.5173
37.3127
48.2207
47.7634
76.3112
0.105834
2.28592
4.18905
7.83394
13.3083
14.3684
5.26168
-13.6486
-18.3116
-19.5699
-18.6794
-14.4709
-7.38982
4.25275
17.2795
31.7997
39.9808
49.3662
83.2199
0.179981
2.3349
4.17875
7.76104
13.2154
12.2483
5.39554
-11.9609
-16.5767
-18.5413
-18.1611
-14.5195
-7.98186
2.8233
14.6099
26.5809
32.6236
30.8067
35.7331
0.246231
2.32962
4.05302
7.44416
12.6036
10.3103
6.16635
-9.86885
-14.4876
-17.1739
-17.3345
-14.3423
-8.52995
1.19036
11.2662
19.0663
15.3187
-2.24982
-1.00875
0.27902
2.23675
3.77914
6.83757
11.437
8.39379
6.95949
-7.41503
-12.1165
-15.495
-16.2545
-13.9343
-8.85314
-0.195183
8.33718
12.8412
7.53394
1.42967
0.044969
0.315098
2.09841
3.38669
5.97944
9.80227
6.32513
6.9327
-4.64933
-9.20743
-12.9314
-14.4403
-13.0645
-8.96771
-1.48624
5.73186
7.56294
2.45584
2.7743
0.407528
0.255859
1.77153
2.78006
4.80632
7.67348
3.73671
5.66847
-2.47743
-6.5514
-10.0936
-11.9025
-11.0428
-7.56143
-1.02045
4.82064
4.47495
2.98362
0.214936
1.48025
0.297944
1.55022
2.19523
3.61992
5.57765
1.66921
4.02291
-0.722298
-3.32755
-5.92005
-7.76743
-7.82134
-5.91121
-1.52871
2.24064
0.583077
2.35682
-0.154089
0.969616
0.0240226
0.703746
1.11993
1.94483
2.96845
-0.691653
1.72355
-0.262927
-2.09112
-3.96384
-4.84223
-4.08891
-1.61513
2.39247
4.35203
1.39535
1.04853
0.570371
1.07066
0.279996
0.856841
0.819961
1.08934
1.59775
0.31896
0.905716
0.618254
1.02218
1.06839
0.502481
-0.505501
-2.05765
-3.88234
-4.29731
-1.08479
-0.858439
-1.44914
0.276103
165.022
161.93
158.319
154.373
149.605
144.369
138.935
133.758
128.69
124.208
120.413
117.367
114.928
112.852
110.919
109.066
107.328
105.826
105.266
103.302
139.491
140.235
139.376
139.392
139.065
138.613
137.764
136.515
134.913
132.918
130.64
128.119
125.445
122.808
120.466
118.683
117.582
116.817
116.862
115.235
139.289
140.86
141.522
142.726
143.596
144.517
145.489
146.332
147.051
147.447
147.427
146.815
145.528
143.648
141.606
139.995
139.469
139.487
139.918
139.493
110.114
112.631
113.989
115.451
116.815
117.91
119.16
120.25
121.407
122.561
123.76
125.012
126.311
127.642
128.994
130.366
131.703
133.115
134.095
135.367
93.8462
96.2777
98.1934
99.7432
101.508
102.785
104.315
105.583
106.874
108.075
109.229
110.352
111.453
112.571
113.705
114.937
116.159
117.59
118.659
120.22
70.9491
73.4268
75.58
77.0477
79.2498
80.7337
82.7346
84.4261
86.2412
87.9766
89.6789
91.3356
92.9277
94.4845
95.9751
97.4862
98.8876
100.455
101.604
103.361
42.5255
43.385
45.0176
45.3539
47.2737
48.0611
49.8734
51.2483
53.0597
54.8677
56.8673
58.98
61.1837
63.4685
65.7565
68.1251
70.4245
73.0776
75.294
78.7113
23.9013
20.3922
20.28
17.6774
17.0827
14.7458
13.6599
11.7082
10.444
9.14306
8.53575
8.49406
9.16944
10.4796
12.3746
14.7863
17.2722
19.9635
22.065
26.2665
56.5602
50.5726
49.0642
44.5428
42.061
37.7618
34.4305
30.0112
25.9729
21.5031
17.4248
13.526
10.1494
7.32767
5.42012
4.2875
3.86515
4.31396
4.14933
5.88321
112.663
108.469
107.549
104.05
102.598
99.4404
97.5024
94.6395
92.3961
89.8519
87.6911
85.5467
83.6068
81.7096
79.9937
78.4527
77.1076
76.4508
74.916
70.5826
138.819
138.927
139.912
139.259
140.624
139.982
140.744
140.063
139.736
138.473
136.892
134.599
131.794
128.51
125.041
121.713
119.003
117.539
117.172
114.553
114.721
116.566
118.645
118.895
121.552
122.103
124.342
125.591
127.471
129.006
130.489
131.588
132.208
132.159
131.41
130.081
128.947
128.518
129.061
129.442
96.1314
97.6542
100.435
100.14
103.296
103.57
105.841
106.945
108.58
109.989
111.422
112.847
114.282
115.761
117.278
118.837
120.344
121.957
123.214
124.758
63.7575
64.4616
67.9837
67.1694
70.8906
70.8695
73.5421
74.6852
76.6699
78.3891
80.2568
82.1664
84.1288
86.1846
88.3118
90.592
92.878
95.4184
97.5182
100.642
38.3592
36.4594
39.2585
36.7119
39.36
37.5631
38.9546
38.3228
38.8013
38.7643
38.9701
39.1731
39.5459
40.2528
41.406
43.1852
45.1786
47.8269
49.8854
53.423
45.874
41.3666
42.7065
38.0927
38.972
35.6068
35.1543
33.0037
31.835
30.2245
28.8924
27.5554
26.43
25.5943
25.0861
24.8426
24.7232
25.0824
25.3427
27.0859
91.7988
85.8651
87.4297
79.8023
79.1271
73.6132
70.7543
66.5505
63.0988
59.4659
56.1454
53.0147
50.2828
48.0528
46.329
44.8
43.3799
42.1188
40.245
39.9081
103.76
96.6798
105.069
98.1584
100.469
97.2682
96.2892
93.9532
91.9367
89.5972
87.2748
84.9449
82.7878
80.975
79.5501
78.362
77.5558
77.0522
76.0887
74.5347
109.351
87.2838
95.6455
84.9239
82.5127
76.2059
71.6021
66.6639
62.4234
58.6533
55.606
53.3572
52.0576
51.8451
52.8725
55.0168
58.0661
62.3057
66.5156
68.1771
793.951
711.426
662.502
606.495
557.73
510.704
467.007
425.751
386.93
350.247
315.52
282.538
251.089
221.105
192.641
164.931
138.07
116.024
91.2855
55.0319
799.684
717.159
668.234
612.227
563.462
516.436
472.738
431.482
392.661
355.978
321.25
288.267
256.818
226.834
198.369
170.659
143.796
121.75
97.0095
60.7585
115.077
93.0102
101.372
90.6505
88.2394
81.9328
77.3289
72.3909
68.1503
64.3801
61.3325
59.0833
57.7832
57.5697
58.5959
60.739
63.7869
68.0256
72.2357
73.8964
109.491
102.412
110.801
103.892
106.204
103.004
102.026
99.6906
97.6751
95.3366
93.0153
90.6867
88.531
86.7196
85.2955
84.1084
83.3032
82.7999
81.8376
80.285
97.5417
91.6093
93.1746
85.5479
84.8738
79.3611
76.5035
72.3012
68.851
65.22
61.9016
58.7736
56.0445
53.8174
52.0957
50.5677
49.1461
47.882
46.006
45.6671
51.5987
47.0888
48.4275
43.8118
44.6889
41.322
40.8675
38.7147
37.5437
35.9303
34.5947
33.2536
32.1235
31.2826
30.7689
30.519
30.3942
30.7492
31.006
32.7459
44.0217
42.117
44.9127
42.363
45.0067
43.2061
44.5936
43.9572
44.4314
44.3896
44.5909
44.7896
45.1588
45.8634
47.0159
48.7949
50.7865
53.432
55.486
59.0212
69.3786
70.0795
73.6003
72.7843
76.5041
76.481
79.1525
80.2937
82.2772
83.9949
85.8615
87.7701
89.7319
91.7876
93.9152
96.196
98.4824
101.023
103.123
106.25
101.743
103.265
106.047
105.751
108.908
109.182
111.453
112.558
114.195
115.606
117.042
118.471
119.91
121.393
122.913
124.472
125.978
127.59
128.848
130.394
120.363
122.21
124.292
124.545
127.205
127.759
129.999
131.25
133.13
134.665
136.146
137.24
137.852
137.794
137.039
135.711
134.584
134.171
134.723
135.109
144.446
144.563
145.55
144.901
146.266
145.627
146.388
145.707
145.379
144.114
142.532
140.24
137.44
134.168
130.716
127.406
124.711
123.254
122.889
120.281
118.478
114.297
113.379
109.889
108.443
105.294
103.364
100.511
98.2759
95.74
93.585
91.4435
89.5031
87.6044
85.8858
84.3338
82.9734
82.3177
80.7871
76.4477
62.3162
56.322
54.8069
50.2784
47.7891
43.4831
40.1441
35.7181
31.674
27.2009
23.1214
19.2238
15.8519
13.041
11.1427
10.0081
9.59199
10.0415
9.87442
11.5999
29.4812
25.9597
25.8445
23.2378
22.6386
20.2988
19.2097
17.2566
15.9923
14.6938
14.0902
14.0518
14.7283
16.0367
17.9274
20.3285
22.8001
25.4835
27.5839
31.7844
48.0945
48.9439
50.5723
50.9031
52.8186
53.6014
55.4092
56.7792
58.5853
60.3876
62.3809
64.4869
66.6836
68.9614
71.2435
73.6096
75.9083
78.5644
80.7837
84.2029
76.3853
78.877
81.0362
82.5111
84.7196
86.2091
88.2155
89.912
91.7321
93.4722
95.1789
96.8403
98.4371
99.9991
101.495
103.012
104.418
105.989
107.141
108.899
99.7283
102.127
104.017
105.54
107.283
108.539
110.049
111.296
112.569
113.754
114.894
116.006
117.098
118.21
119.336
120.557
121.767
123.184
124.24
125.786
114.967
117.512
118.865
120.314
121.678
122.779
124.039
125.147
126.331
127.518
128.754
130.039
131.367
132.721
134.086
135.475
136.833
138.282
139.298
140.618
146.519
147.881
148.285
149.395
150.149
150.934
151.769
152.474
153.058
153.345
153.236
152.595
151.378
149.633
147.822
146.504
146.216
146.383
146.85
146.51
141.344
142.123
140.967
140.697
140.183
139.744
139.035
138.028
136.775
135.239
133.514
131.684
129.822
127.967
126.372
125.232
124.647
124.225
124.384
123.079
177.025
174.322
170.782
167.186
162.938
158.337
153.579
148.589
143.385
138.828
134.912
131.71
129.178
127.051
125.059
123.114
121.26
119.522
118.644
116.301
)
;

boundaryField
{
    outletWall
    {
        type            fixedValue;
        value           uniform 0;
    }
    fineWalls
    {
        type            zeroGradient;
    }
    fineFrontAndBack
    {
        type            zeroGradient;
    }
    fineplugLeft
    {
        type            cyclicAMI;
        value           nonuniform List<scalar> 
20
(
96.8432
98.8065
97.9213
98.0983
98.5685
99.4896
100.723
102.282
104.306
106.853
109.975
113.689
117.641
125.616
126.476
129.354
132.983
135.308
134.394
132.242
)
;
    }
    fineplugRight
    {
        type            cyclicAMI;
        value           nonuniform List<scalar> 
20
(
105.183
107.659
106.752
106.908
107.214
108.067
109.28
110.931
113.078
115.782
119.009
122.663
127.039
139.748
139.252
141.461
144.312
145.695
144.66
142.956
)
;
    }
    inletOutletLeft
    {
        type            cyclicAMI;
        value           nonuniform List<scalar> 
20
(
96.8432
98.8065
97.9213
98.0983
98.5685
99.4896
100.723
102.282
104.306
106.853
109.975
113.689
117.641
125.616
126.476
129.354
132.983
135.308
134.394
132.242
)
;
    }
    inletLeft
    {
        type            zeroGradient;
    }
    inletWallsLeft
    {
        type            zeroGradient;
    }
    inletFacesLeft
    {
        type            zeroGradient;
    }
    inletOutletRight
    {
        type            cyclicAMI;
        value           nonuniform List<scalar> 
20
(
105.183
107.659
106.752
106.908
107.214
108.067
109.28
110.931
113.078
115.782
119.009
122.663
127.039
139.748
139.252
141.461
144.312
145.695
144.66
142.956
)
;
    }
    inletRight
    {
        type            zeroGradient;
    }
    inletWallsRight
    {
        type            zeroGradient;
    }
    inletFacesRight
    {
        type            zeroGradient;
    }
}


// ************************************************************************* //
