/*--------------------------------*- C++ -*----------------------------------*\
| =========                 |                                                 |
| \\      /  F ield         | OpenFOAM: The Open Source CFD Toolbox           |
|  \\    /   O peration     | Version:  4.1                                   |
|   \\  /    A nd           | Web:      www.OpenFOAM.org                      |
|    \\/     M anipulation  |                                                 |
\*---------------------------------------------------------------------------*/
FoamFile
{
    version     2.0;
    format      ascii;
    class       surfaceScalarField;
    location    "22";
    object      phi;
}
// * * * * * * * * * * * * * * * * * * * * * * * * * * * * * * * * * * * * * //

dimensions      [0 3 -1 0 0 0 0];

internalField   nonuniform List<scalar> 
2360
(
-2112.13
466.791
-2578.92
466.787
466.79
2956.57
-2489.79
2956.57
2956.57
2956.57
5783.99
-2827.42
5783.99
5783.99
8799.12
-3015.13
8799.12
8799.13
11834.7
-3035.54
11834.7
11834.7
15611.9
-3777.23
15611.9
15611.9
16660.9
18380
20074.9
21611.8
23027.1
24360.5
16301.4
9330.39
17468.5
18515.7
19430.6
20201.6
20827.8
21340.9
21784.3
22217.3
22719.9
23367.9
24184.1
25082
25781.4
12722.4
13059
12722.4
12722.4
12722.4
3840.73
8881.69
3840.73
3840.74
3840.74
-1372.35
5213.09
-1372.35
-1372.34
-9781.71
8409.36
-9781.7
-9781.7
-9781.7
-20779.7
10998
-20779.7
-20779.7
-20779.7
-29281.5
8501.84
-28568.3
-27634.5
-26772.5
-26083.7
-25551.5
-25098.2
-24639.2
-24108.4
-23451.9
-22657.4
-21733.8
-20688.8
-19534
-21423.9
3145.96
-20096
-18685.3
-17151.2
-15481.3
-13849.1
-12927.5
-12927.5
-12927.5
-5750.91
-7176.6
-5750.91
-5750.91
665.239
-6416.15
665.241
665.243
5291.74
-4626.49
5291.74
5291.74
9374.93
-4083.19
9374.93
9374.93
9374.93
13710.8
-4335.85
13710.8
13710.8
18451.2
-4740.45
-1763.07
5942.16
-1955.88
9935.57
-2046.2
12894.9
-2137.63
14418.7
-2172.86
16098.4
-1891.83
15854.9
559.156
7243.44
2387.61
-10538
1406.74
-9057.48
256.822
8084.35
-565.717
14795.5
-894.005
19687.5
-678.347
26104.1
-115.916
30811.4
645.003
31683.6
1646.64
30626.5
2681.46
25659.9
3902.96
15065.5
224.264
-1802.25
6178.8
-2019.55
10152.9
-2113.58
12988.9
-2220.9
14526
-2262.44
16140
-1790.12
15382.6
1343.39
4109.93
3069.59
-12264.2
1654.68
-7642.57
291.818
9447.22
-639.004
15726.3
-1006.31
20054.8
-823.545
25921.3
-280.016
30267.9
465.159
30938.4
1490.13
29601.6
2598.09
24552
3759.83
13903.7
-351.755
-1874.65
6439.48
-2114.07
10392.3
-2225.83
13100.6
-2374.37
14674.6
-2413.65
16179.2
-1467.01
14435.9
2153.63
489.289
2991.37
-13101.9
1343.28
-5994.48
94.4317
10696.1
-828.16
16648.9
-1221.51
20448.2
-1065.93
25765.7
-550.523
29752.5
171.756
30216.1
1212.31
28561
2441.21
23323.1
3659.3
12685.6
-775.646
-1982.13
6718.23
-2239
10649.2
-2382.69
13244.3
-2598.98
14890.9
-2586.34
16166.6
-504.706
12354.3
3275.34
-3290.75
2740.03
-12566.6
613.684
-3868.13
-389.745
11699.5
-1123.35
17382.5
-1515.74
20840.5
-1391.78
25641.8
-916.074
29276.8
-235.93
29536
805.052
27520
2170.32
21957.8
3944.01
10911.9
-1458.13
-2111.65
7013.61
-2389.82
10927.3
-2583.56
13438.1
-2898.32
15205.6
-2859.71
16128
-11.773
9506.37
3180.75
-6483.28
1957.32
-11343.1
-507.092
-1403.72
-1073.08
12265.5
-1511.09
17820.5
-1888.11
21217.6
-1815
25568.7
-1390.17
28851.9
-770.527
28916.3
259.501
26490
1699.86
20517.4
4348.91
8262.9
-3525.37
-2257.15
7322.22
-2560.33
11230.5
-2822.06
13699.8
-3247.52
15631.1
-3164.53
16045
-235.121
6576.95
2059.64
-8778.04
670.176
-9953.69
-1815.95
1082.41
-1862.18
12311.7
-2010.38
17968.7
-2336.48
21543.7
-2333.05
25565.2
-1976.21
28495.1
-1434.25
28374.4
-440.534
25496.3
1060.06
19016.8
4300.76
5022.19
-6401.2
-2416.62
7639.54
-2746.18
11560.1
-3084.1
14037.7
-3600.99
16148
-3425.37
15869.4
-723.836
3875.42
508.837
-10010.7
-1090.33
-8354.52
-2840
2832.07
-2730.56
12202.3
-2650.85
17889
-2877.23
21770.1
-2936.78
25624.8
-2670.89
28229.2
-2227.37
27930.8
-1315.62
24584.5
837.826
16863.4
3488.14
2371.88
232.898
-2586.84
7958.17
-2940.19
11913.4
-3350.59
14448.1
-3926.36
16723.8
-3671.39
15614.4
-1442.13
1646.16
-1198.4
-10254.4
-2835.04
-6717.89
-3870.79
3867.83
-3693.37
12024.8
-3438.26
17633.9
-3532.5
21864.3
-3620.51
25712.8
-3479.29
28088
-3202.96
27654.5
-2391.29
23772.9
678.721
13793.4
-849.067
3899.67
7885.67
-2760
8268.37
-3130.87
12284.3
-3602.89
14920.1
-4217.08
17337.9
-3984.45
15381.8
-2397.58
59.2956
-2885.3
-9766.73
-4408.32
-5194.86
-5030.09
4489.59
-4733.84
11728.6
-4350.79
17250.9
-4307.51
21821
-4391.17
25796.5
-4399.09
28095.9
-4238.64
27494.1
-3480.18
23014.4
-3868.12
14181.3
-8958.19
8989.74
9925.49
-2922.86
8561.87
-3304.52
12666
-3825
15440.6
-4478.17
17991.1
-4433.72
15337.3
-3658.82
-715.602
-4542.29
-8883.25
-5862.02
-3875.14
-6199.91
4827.49
-5818.86
11347.5
-5359.67
16791.7
-5201.39
21662.7
-5264.38
25859.4
-5370.91
28202.4
-5265.95
27389.1
-5238.08
22986.5
-7925.58
16868.8
-11400.4
12464.5
6934.47
-3059.8
8834.77
-3447.81
13054
-4004.03
15996.8
-4710.6
18697.7
-5010.45
15637.2
-5130.23
-595.822
-6155.78
-7857.7
-7215.16
-2815.75
-7349.26
4961.58
-6938.59
10936.9
-6464.8
16317.9
-6234.46
21432.4
-6249.9
25874.9
-6352.47
28305
-6397.38
27434
-7254.51
23843.7
-9699.9
19314.2
-9850.44
12615.1
2297.12
-3157.34
9087.32
-3549.76
13446.4
-4130.28
16577.4
-4903.35
19470.8
-5643.06
16376.9
-6635
396.125
-7722.71
-6769.99
-8493.35
-2045.11
-8458.29
4926.52
-8069.45
10548
-7650.16
15898.6
-7391.83
21174.1
-7316.33
25799.4
-7364.32
28353
-7710.08
27779.8
-9040.17
25173.8
-10736.5
21010.5
-11072.1
12950.7
106.718
-3206.39
9322.81
-3603.06
13843.1
-4197.25
17171.5
-5036.45
20310
-6243.77
17584.2
-8057.01
2209.37
-9261.93
-5565.07
-9777.66
-1529.39
-9556.36
4705.22
-9160.16
10151.8
-8808.57
15547
-8548.64
20914.1
-8391.09
25641.8
-8470.55
28432.4
-9250.63
28559.9
-11089.7
27012.8
-13302
23222.8
-14742.2
14390.9
-1576.53
-3202.9
9545.59
-3604.68
14244.8
-4202.41
17769.3
-5086.09
21193.6
-6714.31
19212.4
-9305.38
4800.44
-10778.6
-4091.87
-11206.6
-1101.33
-10817.1
4315.73
-10284.6
9619.25
-9886.96
15149.4
-9602.54
20629.7
-9437.08
25476.4
-9674.7
28670.1
-10757.7
29642.8
-12309.8
28565
-12535.8
23448.8
-9805.57
11660.7
-2051.71
-3144.32
9764.3
-3555.97
14656.5
-4147.89
18361.2
-5033.3
22079.1
-6952.49
21131.6
-10229.6
8077.54
-12133
-2188.48
-12744.3
-490.038
-12401.3
3972.78
-11726.7
8944.58
-11159.1
14581.8
-10784.5
20255.1
-10673.5
25365.4
-11128.4
29125
-12236.8
30751.2
-12691.8
29020
-9696.47
20453.4
-1837.45
3801.69
-7666.39
-3036.04
9986
-3462.74
15083.2
-4042.01
18940.5
-4875.88
22912.9
-6872.31
23128
-10606.3
11811.6
-13031.2
236.422
-14050.7
529.462
-14110.6
4032.62
-13594.1
8428.13
-12979.5
13967.2
-12556.6
19832.2
-12511
25319.8
-12960.3
29574.3
-13305.2
31096.1
-11427.5
27142.3
-5013.06
14039
1323.63
-2535
-9378.31
-2868.44
10235.6
-3333.01
15547.8
-3897.05
19504.5
-4635.04
23650.9
-6461.85
24954.9
-10201.5
15551.2
-13028.5
3063.41
-14578.5
2079.5
-15374.4
4828.51
-15489.1
8542.81
-15219.4
13697.4
-14940.2
19553.1
-14826.6
25206.2
-14661.8
29409.5
-13331
29765.3
-9016.1
22827.4
-1818.36
6841.24
2535.45
-6888.81
-9857.99
-2681.79
10515.6
-3185.56
16051.5
-3732.47
20051.4
-4358.62
24277.1
-5856.73
26453
-9180.66
18875.2
-12087.2
5969.94
-14056
4048.31
-15554.3
6326.76
-16419.9
9408.45
-16739.3
14016.9
-16754.3
19568
-16420.6
24872.5
-15203.8
28192.7
-11922
26483.5
-5774.69
16680.1
248.524
818.032
2510.16
-9150.44
-10175.2
-2404.56
10894.1
-3023.96
16670.9
-3566.94
20594.4
-4094.42
24804.5
-5265.78
27624.3
-8081.25
21690.6
-10835.6
8724.25
-13044.4
6257.11
-15163.6
8446.05
-16691.7
10936.5
-17471.2
14796.4
-17611.5
19708.4
-16795.5
24056.4
-14296.8
25694
-9365.43
21552.1
-2625.71
9940.38
1731.74
-3539.42
2714.91
-10133.6
-9950.12
-2144.79
-2868.15
-3362.05
-3790.38
-4541.9
-6264.76
-7998.27
-9704.14
-11939.4
-13942.7
-15094.1
-15235.1
-14007.8
-10911.3
-6021.8
-1262.17
1446.69
2640.86
186.307
-1235.28
452.105
-1984.96
590.652
-1833.38
652.003
-1598.31
676.214
-1439.53
666.362
-1323.55
596.28
-1201.17
499.434
-1070.28
379.704
-927.459
240.228
-775.473
85.3928
-616.218
-79.0464
-461.77
-241.521
-350.616
-373.28
-311.712
-439.035
-367.211
-424.498
-517.109
-342.34
-730.231
-216.774
-941.739
-87.3068
-1027.37
-786.703
-37.6296
-1197.66
-63.5147
-1959.08
-128.115
-1768.78
-205.246
-1521.18
-294.372
-1350.41
-390.794
-1227.13
-469.305
-1122.66
-524.233
-1015.36
-547.477
-904.221
-534.343
-788.613
-479.961
-670.606
-386.244
-555.495
-274.36
-462.507
-162.682
-423.399
-63.7442
-466.156
9.67246
-590.532
42.3842
-762.946
31.5143
-930.871
-3.25952
-992.595
-789.963
-154.67
-1042.99
-138.338
-1975.41
-27.6137
-1879.51
74.8913
-1623.69
152.775
-1428.3
214.507
-1288.87
276.597
-1184.76
351.571
-1090.34
446.908
-999.564
567.199
-908.912
713.707
-817.119
882.079
-723.872
1052.71
-633.146
1183.52
-554.209
1222.89
-505.531
1139.44
-507.079
935.444
-558.954
638.584
-634.012
308.365
-662.377
-481.597
-57.5655
-985.427
-14.0868
-2018.89
80.5577
-1974.16
152.998
-1696.13
223.797
-1499.1
298.089
-1363.16
374.281
-1260.95
449.315
-1165.38
523.666
-1073.92
599.323
-984.571
679.335
-897.133
766.021
-810.56
856.469
-723.594
939.064
-636.805
988.821
-555.289
969.745
-488.003
854.741
-443.951
634.11
-413.381
339.722
-367.989
-141.875
72.9476
-1058.38
113.561
-2059.51
154.418
-2015.02
194.467
-1736.19
248.425
-1553.06
308.804
-1423.55
370.318
-1322.47
427.847
-1222.91
479.718
-1125.79
524.47
-1029.33
561.565
-934.231
591.49
-840.49
615.936
-748.042
635.289
-656.161
644.549
-564.55
628.157
-471.613
563.978
-379.772
430.102
-279.505
221.749
-159.635
79.8734
235.379
-1293.76
313.647
-2137.78
324.735
-2026.11
351.437
-1762.89
406.672
-1608.29
469.757
-1486.63
535.957
-1388.67
600.188
-1287.14
660.625
-1186.23
712.191
-1080.9
750.027
-972.067
769.484
-859.948
767.473
-746.031
742.397
-631.085
694.004
-516.157
620.958
-398.567
519.103
-277.916
376.95
-137.352
190.552
26.7637
270.425
357.347
-1651.11
420.798
-2201.23
398.499
-2003.81
424.745
-1789.14
494.882
-1678.43
575.515
-1567.27
665.554
-1478.71
757.08
-1378.67
846.046
-1275.19
920.606
-1155.46
973.618
-1025.08
999.99
-886.321
997.439
-743.481
963.042
-596.689
893.117
-446.233
783.273
-288.723
630.434
-125.077
424.883
68.1985
214.792
236.854
485.217
309.611
-1960.72
263.095
-2154.72
215.88
-1956.6
234.923
-1808.18
287.826
-1731.33
352.417
-1631.86
432.798
-1559.09
517.903
-1463.77
596.901
-1354.19
650.299
-1208.85
672.134
-1046.91
662.146
-876.331
622.781
-704.116
551.964
-525.871
445.286
-339.555
310.776
-154.211
194.466
-8.76882
106.016
156.648
-2.88005
345.749
482.337
54.5801
-2015.3
-87.5051
-2012.63
-174.849
-1869.25
-235.475
-1747.56
-288.211
-1678.6
-333.521
-1586.55
-370.597
-1522.01
-404.874
-1429.5
-447.356
-1311.71
-507.261
-1148.95
-583.39
-970.789
-668.757
-790.968
-757.628
-615.247
-843.759
-439.744
-915.332
-267.984
-959.156
-110.392
-961.075
-6.85071
-850.984
46.5567
-552.144
46.9077
-69.8072
-146.744
-1868.55
-256.772
-1902.6
-368.594
-1757.43
-501.987
-1614.16
-640.407
-1540.18
-789.988
-1436.97
-948.606
-1363.4
-1113.91
-1264.19
-1280.48
-1145.14
-1441.91
-987.521
-1596.04
-816.663
-1739.78
-647.22
-1866.11
-488.922
-1955.68
-350.171
-1969.13
-254.533
-1853.91
-225.616
-1584.68
-276.076
-1131.31
-406.819
-513.839
-570.563
-583.647
-113.445
-1755.11
-138.306
-1877.74
-192.551
-1703.19
-280.946
-1525.77
-373.687
-1447.44
-488.055
-1322.6
-616.615
-1234.83
-754.413
-1126.39
-878.311
-1021.24
-966.907
-898.925
-1011.56
-772.015
-1013.24
-645.53
-973.857
-528.31
-893.451
-430.576
-773.195
-374.79
-603.937
-394.874
-380.023
-499.991
-143.991
-642.851
2.9806
-717.536
-580.666
19.5869
-1774.69
68.3061
-1926.46
113.11
-1747.98
143.011
-1555.66
171.352
-1475.77
193.58
-1344.82
208.579
-1249.83
220.946
-1138.75
239.886
-1040.18
282.699
-941.73
358.403
-847.714
469.214
-756.334
609.162
-668.253
763.87
-585.28
900.442
-511.36
962.389
-456.817
891.845
-429.446
670.816
-421.821
345.072
-391.791
-235.594
79.8026
-1854.49
119.402
-1966.06
171.885
-1800.47
228.39
-1612.17
288.359
-1535.74
349.94
-1406.4
414.115
-1314
482.114
-1206.75
551.875
-1109.94
623.289
-1013.14
694.83
-919.254
764.84
-826.343
829.591
-733.003
882.218
-637.906
911.266
-540.406
893.927
-439.478
802.492
-338.009
612.424
-231.75
334.796
-114.159
99.2022
122.251
-1976.74
132.416
-1976.22
184.11
-1852.16
242.82
-1670.88
310.774
-1603.69
375.685
-1471.31
447.183
-1385.5
520.353
-1279.92
599.134
-1188.72
679.79
-1093.8
759.161
-998.623
829.175
-896.354
879.138
-782.963
896.29
-655.055
871.809
-515.922
801.994
-369.66
683.317
-219.33
503.632
-52.0628
264.411
125.067
363.613
100.095
-2076.84
77.4224
-1953.54
112.608
-1887.34
154.879
-1713.15
206.929
-1655.74
261.625
-1526.01
325.788
-1449.66
396.123
-1350.25
476.499
-1269.09
563.957
-1181.26
654.826
-1089.49
735.579
-977.106
784.954
-832.336
779.67
-649.769
713.818
-450.068
605.464
-261.303
442.626
-56.4891
276.627
113.941
138.049
263.648
501.663
10.8677
-2087.7
-37.5244
-1905.15
-51.8963
-1872.97
-59.5746
-1705.47
-66.0165
-1649.3
-63.1705
-1528.85
-57.6554
-1455.17
-43.8304
-1364.07
-24.437
-1288.48
0.0927015
-1205.78
23.8156
-1113.21
35.2491
-988.536
19.4522
-816.535
-26.9436
-603.368
-77.231
-399.773
-94.4026
-244.114
-42.8366
-108.034
-34.4108
105.529
-80.5721
309.815
421.091
-69.2324
-2018.47
-151.458
-1822.92
-217.021
-1807.4
-272.331
-1650.15
-329.596
-1592.03
-373.507
-1484.94
-418.701
-1409.98
-456.565
-1326.21
-493.328
-1251.72
-526.096
-1173.01
-555.369
-1083.93
-576.012
-967.892
-577.558
-814.987
-546.374
-634.55
-486.673
-459.47
-431.093
-299.69
-430.909
-108.215
-438.449
113.073
-367.175
238.545
53.9157
-175.77
-1842.7
-374.986
-1623.71
-535.467
-1646.92
-664.454
-1521.17
-783.528
-1472.96
-877.745
-1390.72
-961.453
-1326.27
-1030.31
-1257.35
-1088.85
-1193.18
-1133.61
-1128.25
-1157.15
-1060.39
-1141.82
-983.222
-1065.07
-891.735
-916.008
-783.61
-718.509
-656.969
-513.285
-504.912
-305.478
-316.021
-99.6427
-92.7599
42.9534
95.9524
96.8691
-195.287
-1647.41
-434.668
-1384.33
-687.762
-1393.83
-901.648
-1307.28
-1107.54
-1267.07
-1283.14
-1215.11
-1437.97
-1171.45
-1567.78
-1127.54
-1674.99
-1085.96
-1757.92
-1045.33
-1812.71
-1005.6
-1830.48
-965.452
-1799.81
-922.403
-1710.82
-872.598
-1555.8
-811.992
-1323.41
-737.295
-997.685
-641.749
-585.161
-505.283
-178.203
-311.004
-81.3341
-672.409
-1081.73
-1500.56
-1832.84
-2124.91
-2365.02
-2561.46
-2714
-2824.96
-2895.29
-2925.89
-2916.34
-2863.75
-2761.34
-2598.33
-2360.63
-2027.38
-1557.66
-893.666
-672.418
1647.42
-1081.75
1384.33
-1500.58
1393.83
-1832.86
1307.28
-2124.93
1267.07
-2365.04
1215.11
-2561.49
1171.44
-2714.03
1127.54
-2824.98
1085.96
-2895.31
1045.32
-2925.9
1005.6
-2916.35
965.447
-2863.75
922.396
-2761.33
872.589
-2598.32
811.988
-2360.63
737.307
-2027.42
641.787
-1557.76
505.342
-893.794
311.037
81.2059
-195.267
1842.69
-434.62
1623.69
-687.686
1646.9
-901.538
1521.14
-1107.39
1472.92
-1282.96
1390.68
-1437.73
1326.22
-1567.5
1257.31
-1674.66
1193.12
-1757.53
1128.2
-1812.27
1060.34
-1830
983.174
-1799.31
891.71
-1710.34
783.621
-1555.37
657.012
-1323.04
504.978
-997.356
316.105
-584.807
92.7939
-177.795
-95.9739
-96.5895
-175.731
2018.42
-374.922
1822.88
-535.373
1807.35
-664.335
1650.1
-783.383
1591.97
-877.579
1484.88
-961.267
1409.91
-1030.1
1326.14
-1088.63
1251.65
-1133.36
1172.93
-1156.86
1083.83
-1141.45
967.762
-1064.6
814.866
-915.501
634.522
-718.054
459.566
-512.813
299.738
-304.795
108.088
-98.8509
-113.149
43.6758
-238.498
-52.9136
-69.2739
2087.69
-151.511
1905.12
-217.103
1872.94
-272.459
1705.46
-329.771
1649.29
-373.742
1528.85
-419.007
1455.18
-456.951
1364.09
-493.812
1288.51
-526.689
1205.81
-556.063
1113.21
-576.756
988.456
-578.256
816.367
-546.936
603.202
-487.096
399.726
-431.338
243.981
-431.117
107.869
-439.052
-105.212
-367.753
-309.796
-420.667
10.7462
2076.95
-37.7093
1953.57
-52.1759
1887.41
-59.9567
1713.24
-66.5116
1655.84
-63.7807
1526.12
-58.3932
1449.79
-44.6998
1350.4
-25.4427
1269.25
-1.04927
1181.42
22.5267
1089.63
33.8131
977.171
17.9157
832.266
-28.4224
649.542
-78.5033
449.81
-95.6805
261.165
-44.13
56.3272
-35.3434
-113.993
-81.2145
-263.923
-501.881
100.072
1976.88
77.3106
1976.33
112.439
1852.28
154.662
1671.01
206.66
1603.84
261.315
1471.46
325.441
1385.66
395.747
1280.09
476.097
1188.9
563.526
1093.99
654.348
998.809
735.013
896.506
784.235
783.044
778.746
655.032
712.765
515.792
604.484
369.446
441.77
219.042
276.137
51.6404
137.754
-125.538
-364.128
122.37
1854.51
132.441
1966.26
184.113
1800.61
242.819
1612.31
310.787
1535.88
375.705
1406.54
447.222
1314.15
520.41
1206.9
599.22
1110.09
679.917
1013.29
759.34
919.387
829.398
826.448
879.374
733.069
896.48
637.926
871.89
540.382
801.947
439.39
683.173
337.817
503.433
231.382
264.271
113.625
-99.8563
80.0196
1774.49
119.569
1926.71
172.056
1748.13
228.601
1555.76
288.642
1475.83
350.271
1344.91
414.512
1249.91
482.557
1138.86
552.354
1040.3
623.749
941.898
695.203
847.933
765.063
756.587
829.61
668.522
881.966
585.569
910.734
511.616
893.275
456.849
801.894
429.199
611.98
421.296
334.566
391.039
234.71
19.8299
1754.66
68.6249
1877.92
113.573
1703.18
143.683
1525.65
172.246
1447.27
194.742
1322.42
210.054
1234.6
222.785
1126.13
242.098
1020.98
285.231
898.768
361.165
772.002
472.118
645.636
612.126
528.515
766.778
430.919
903.073
375.321
964.4
395.523
893.035
500.564
671.349
642.982
345.344
717.044
580.054
-113.054
1867.71
-137.551
1902.42
-191.379
1757.01
-279.357
1613.63
-371.7
1539.62
-485.649
1436.37
-613.775
1362.72
-751.071
1263.42
-874.397
1144.31
-962.372
986.743
-1006.4
816.032
-1007.52
646.752
-967.601
488.597
-886.709
350.026
-766.1
254.712
-596.952
226.374
-373.929
277.54
-139.612
408.666
5.0352
572.396
585.089
-147.166
2014.88
-257.01
2012.26
-368.872
1868.87
-502.446
1747.21
-641.079
1678.25
-790.956
1586.25
-949.913
1521.68
-1115.57
1429.08
-1282.39
1311.13
-1443.93
1148.29
-1598.04
970.139
-1741.69
790.404
-1867.84
614.747
-1957.02
439.207
-1969.93
267.622
-1854.54
110.98
-1584.91
7.90936
-1130.25
-45.9898
-512.737
-45.1194
72.352
53.7267
1961.15
-88.4576
2154.44
-175.999
1956.41
-236.958
1808.16
-290.086
1731.38
-335.821
1631.98
-373.379
1559.23
-408.188
1463.88
-451.222
1354.17
-511.613
1208.67
-588.11
1046.63
-673.74
876.032
-762.815
703.82
-849.097
525.487
-920.743
339.266
-964.516
154.75
-965.861
9.2529
-854.593
-157.259
-554.032
-345.681
-481.68
309.331
1651.82
262.476
2201.3
215.053
2003.83
233.884
1789.33
286.553
1678.71
350.932
1567.6
431.08
1479.09
515.903
1379.06
594.531
1275.54
647.507
1155.7
668.94
1025.2
658.64
886.332
619.066
743.393
548.079
596.473
441.489
445.856
308.035
288.203
192.999
124.286
104.494
-68.7568
-4.02939
-237.16
-485.71
357.87
1293.95
421.341
2137.83
398.941
2026.23
425.141
1763.13
495.268
1608.58
575.935
1486.93
666.043
1388.98
757.645
1287.46
846.65
1186.53
921.192
1081.15
974.134
972.258
1000.41
860.053
997.772
746.03
963.274
630.971
893.197
515.931
783.196
398.203
630.1
277.381
424.574
136.767
214.795
-27.3822
-270.914
236.311
1057.63
314.729
2059.41
325.592
2015.37
352.364
1736.36
407.757
1553.18
470.941
1423.75
537.181
1322.74
601.417
1223.22
661.83
1126.12
713.335
1029.65
751.101
934.491
770.489
840.664
768.368
748.151
743.135
656.203
694.539
564.526
621.23
471.512
519.075
379.535
376.777
279.065
190.554
158.84
-80.3608
74.1406
983.492
115.382
2018.17
155.295
1975.45
193.947
1697.7
247.224
1499.9
307.378
1363.59
368.854
1261.26
426.445
1165.63
478.455
1074.11
523.373
984.728
560.52
897.344
590.28
810.902
614.276
724.155
632.977
637.501
641.659
555.844
625.1
488.071
561.325
443.309
428.252
412.138
220.35
366.742
139.989
-53.9238
1037.41
-8.48825
1972.73
90.399
1876.56
164.857
1623.25
234.652
1430.11
306.931
1291.31
380.797
1187.39
452.848
1093.58
523.276
1003.68
594.121
913.882
668.534
822.93
748.456
730.98
832.763
639.847
911.265
558.998
959.388
507.721
942.593
504.865
833.622
552.28
620.94
624.818
333.439
654.242
473.429
-139.508
1176.92
-130.784
1964.01
-39.1365
1784.92
57.6594
1526.45
137.838
1349.93
202.26
1226.89
265.684
1123.97
341.401
1017.86
436.663
908.414
556.05
794.494
700.71
678.27
866.394
565.295
1034.93
471.315
1165.08
428.84
1205.11
467.695
1124.52
585.458
925.867
750.929
635.014
915.671
308.884
980.371
782.313
29.5135
1147.41
40.9677
1952.55
-23.1841
1849.07
-107.013
1610.28
-195.325
1438.24
-284.785
1316.35
-354.772
1193.95
-404.143
1067.23
-425.922
930.193
-416.114
784.685
-372.402
634.557
-287.36
480.253
-168.484
352.438
-51.8277
312.184
43.9597
371.908
102.207
527.21
107.441
745.694
63.4748
959.637
3.78331
1040.06
786.096
225.849
546.177
725.369
801.51
829.022
817.468
755.401
667.826
553.042
414.148
254.214
77.9185
-100.424
-247.273
-328.627
-333.601
-276.716
-179.071
-72.8865
)
;

boundaryField
{
    outletWall
    {
        type            calculated;
        value           nonuniform List<scalar> 
60
(
18451.2
-1061.76
-16287
-26694.7
-31628.2
-32444.5
-31373.8
-26319.7
-19359.2
-13973
-6934.44
10038.4
8709.5
-9694.43
-16135.9
-16063.2
-14327.3
-12804.5
-9742.76
-5755.83
1642.93
2026.09
2401.77
2618.86
2814.35
2925.61
2980.12
2970.89
2904.79
2786.9
2629.36
2449.8
2268.21
2099.3
1948.55
1816.26
1703.38
1613.96
1565.61
1576.75
2112.13
-9888.18
-11327.8
-6248.28
5180.75
16662.6
22597.5
22829.1
19849.3
15947.8
12939.8
10681.3
7962.99
10457.8
23413.5
28375.8
25232.9
21088.3
17394.3
11395.9
)
;
    }
    fineWalls
    {
        type            calculated;
        value           uniform 0;
    }
    fineFrontAndBack
    {
        type            calculated;
        value           nonuniform List<scalar> 
960
(
-8.89273e-13
-3.10926e-12
5.36671e-13
5.42359e-13
-3.65581e-12
-7.37375e-13
-8.16181e-13
-2.47801e-13
-4.57036e-12
-1.16909e-12
-1.238e-12
-5.72921e-12
-6.63516e-13
-5.41078e-13
-4.26789e-12
-6.20551e-13
-4.65306e-13
-4.16311e-12
-6.00171e-13
-5.05932e-13
-3.05445e-14
-2.88716e-13
-3.11839e-13
-3.24536e-13
-3.61544e-13
-3.46186e-13
-4.07726e-12
-2.08301e-13
-9.03512e-14
5.45745e-14
1.81761e-13
2.50154e-13
2.21122e-13
1.52396e-13
3.88223e-14
-1.20824e-13
-2.9577e-13
-4.651e-13
-5.94875e-13
-7.44913e-13
-1.90486e-11
-2.95339e-12
-3.31464e-12
-2.86897e-12
-3.92256e-13
1.45639e-12
2.19753e-12
7.75089e-13
5.18197e-11
3.62454e-12
-1.47272e-12
8.34955e-12
2.78306e-12
3.51493e-12
4.15832e-12
3.50672e-11
6.68005e-12
6.52065e-12
6.37605e-12
3.841e-11
1.30348e-12
1.24292e-12
1.18252e-12
1.09556e-12
9.70732e-13
8.39488e-13
7.19894e-13
6.32038e-13
5.75414e-13
5.90822e-13
6.73631e-13
7.7675e-13
8.85941e-13
2.32726e-11
1.12436e-12
1.23703e-12
1.29317e-12
1.35214e-12
1.35255e-12
1.15191e-12
6.235e-12
6.07417e-12
3.24952e-11
6.03651e-12
5.40481e-12
2.85037e-11
7.87001e-12
8.17661e-12
3.5437e-11
7.92537e-12
7.94245e-12
5.5234e-11
1.2909e-11
1.36377e-11
1.32062e-11
6.02764e-11
5.89095e-12
2.88223e-13
-2.65744e-11
-9.88033e-12
-3.43363e-11
-3.62872e-11
-3.12808e-11
-2.79966e-11
-2.06527e-11
-1.07831e-11
-2.06106e-12
-1.16844e-12
-1.46986e-12
-5.53533e-12
-1.59878e-12
4.55681e-12
7.62292e-12
6.85395e-12
4.75111e-12
4.04307e-12
9.00261e-12
1.52861e-11
3.81521e-11
-3.46457e-11
-3.59499e-11
-3.10727e-11
-2.758e-11
-2.001e-11
-1.01248e-11
-1.95825e-12
-5.02927e-13
3.09184e-12
-4.44964e-12
-1.55885e-12
4.66005e-12
7.63317e-12
6.83692e-12
4.75255e-12
4.01869e-12
8.77303e-12
1.44739e-11
1.2148e-11
-3.49614e-11
-3.55228e-11
-3.07929e-11
-2.70128e-11
-1.91467e-11
-9.3289e-12
-1.89722e-12
1.23381e-12
6.84677e-12
-2.05821e-12
-1.44421e-12
4.81546e-12
7.64731e-12
6.80149e-12
4.7465e-12
3.99372e-12
8.52305e-12
1.43795e-11
-8.69486e-12
-3.52119e-11
-3.50619e-11
-3.04679e-11
-2.63496e-11
-1.81768e-11
-8.50396e-12
-8.92003e-13
3.99079e-12
1.07867e-11
6.09878e-13
-1.12761e-12
5.00456e-12
7.66079e-12
6.74324e-12
4.72029e-12
3.9826e-12
8.30748e-12
1.4684e-11
-8.09928e-12
-3.53742e-11
-3.45803e-11
-3.00983e-11
-2.56025e-11
-1.71489e-11
-7.40202e-12
3.13741e-12
8.1463e-12
1.34613e-11
2.73486e-12
-3.04485e-13
5.23164e-12
7.66865e-12
6.65316e-12
4.65982e-12
4.0048e-12
8.17101e-12
1.57676e-11
-3.72559e-12
-3.54345e-11
-3.40827e-11
-2.9675e-11
-2.47666e-11
-1.59883e-11
-5.74401e-12
5.03727e-12
1.31012e-11
1.42616e-11
4.60604e-12
1.28524e-12
5.60589e-12
7.65212e-12
6.5033e-12
4.54478e-12
4.05567e-12
8.19357e-12
1.56676e-11
2.18697e-11
-3.5391e-11
-3.35751e-11
-2.91922e-11
-2.38294e-11
-1.45453e-11
-3.75016e-12
2.58602e-12
1.81597e-11
1.41426e-11
6.46075e-12
3.2331e-12
6.03589e-12
7.63817e-12
6.30385e-12
4.44945e-12
4.29984e-12
8.60794e-12
8.75621e-12
5.22016e-11
-3.52617e-11
-3.30611e-11
-2.86252e-11
-2.27626e-11
-1.3032e-11
-3.16795e-12
-1.21676e-12
2.2412e-11
1.56253e-11
9.24568e-12
6.21784e-12
7.36341e-12
7.42644e-12
5.87105e-12
4.01952e-12
4.59797e-12
8.10689e-12
1.95458e-11
8.57539e-11
-3.50709e-11
-3.25512e-11
-2.80141e-11
-2.15965e-11
-1.14614e-11
-4.02055e-12
2.04679e-12
2.5304e-11
1.61096e-11
9.63522e-12
6.19548e-12
5.473e-12
7.49091e-12
6.03832e-12
5.44308e-12
4.15086e-12
1.63405e-11
6.65228e-11
8.81106e-11
-3.48455e-11
-3.20579e-11
-2.72628e-11
-2.02685e-11
-1.11438e-11
-1.98217e-12
2.18501e-11
2.62572e-11
1.98589e-11
1.18269e-11
1.0505e-11
1.52074e-11
7.2424e-12
4.15991e-12
-2.76859e-12
7.29126e-12
2.60635e-11
4.88982e-11
3.59035e-11
-3.45884e-11
-3.15847e-11
-2.6553e-11
-1.96433e-11
-8.72057e-12
2.19586e-11
4.15457e-11
2.71562e-11
2.82642e-11
2.07382e-11
1.83718e-11
1.90651e-11
5.69077e-12
1.95521e-12
-4.10951e-12
9.65112e-12
2.61733e-11
6.03626e-11
1.0054e-10
-3.42868e-11
-3.11883e-11
-2.5905e-11
-1.88606e-11
-6.92116e-12
1.59856e-11
2.44069e-11
3.15444e-11
3.0557e-11
2.64559e-11
2.17452e-11
1.51583e-11
3.47193e-12
8.67643e-13
-1.25363e-12
1.31003e-11
4.21434e-11
7.56691e-11
4.21082e-11
-3.39052e-11
-3.09316e-11
-2.53285e-11
-1.80897e-11
-5.72236e-12
1.67399e-11
2.96197e-11
3.07613e-11
2.73475e-11
2.33787e-11
1.78923e-11
9.80704e-12
2.32759e-12
1.11324e-12
2.68646e-12
2.05357e-11
4.01652e-11
7.94504e-12
-5.66222e-11
-3.33658e-11
-3.08547e-11
-2.48359e-11
-1.7388e-11
-5.05336e-12
1.65561e-11
3.10095e-11
3.22073e-11
2.63882e-11
1.96123e-11
1.34007e-11
7.01682e-12
2.66303e-12
2.15142e-12
6.99821e-12
2.30093e-11
2.37038e-11
-1.16552e-11
-9.29052e-12
-3.2549e-11
-3.09528e-11
-2.44469e-11
-1.67547e-11
-4.89715e-12
1.49769e-11
3.08952e-11
3.42705e-11
3.01319e-11
2.18665e-11
1.4283e-11
8.32817e-12
4.78281e-12
5.03243e-12
1.18358e-11
2.0918e-11
8.08876e-12
-2.16819e-11
-2.07537e-11
-3.13161e-11
-3.11403e-11
-2.4173e-11
-1.61505e-11
-5.07951e-12
1.16156e-11
2.70502e-11
3.35631e-11
3.39392e-11
2.82164e-11
2.09081e-11
1.46461e-11
1.11999e-11
1.2322e-11
1.77411e-11
1.70699e-11
-3.24999e-12
-2.62883e-11
-2.1472e-11
-2.95922e-11
-3.13228e-11
-2.40546e-11
-1.55672e-11
-5.28529e-12
7.03424e-12
1.80717e-11
2.71135e-11
3.29684e-11
3.28677e-11
2.90991e-11
2.44798e-11
2.17297e-11
2.20387e-11
2.19013e-11
1.16041e-11
-1.14724e-11
-2.68842e-11
-1.99142e-11
-2.74286e-11
-3.1237e-11
-2.39436e-11
-1.49311e-11
-5.21428e-12
3.09011e-12
7.47732e-12
1.57762e-11
2.58368e-11
3.1299e-11
3.25549e-11
3.11936e-11
2.9306e-11
2.71029e-11
2.07064e-11
4.46874e-12
-1.93007e-11
-2.96181e-11
-1.75869e-11
-2.49396e-11
-3.1147e-11
-2.40979e-11
-1.44993e-11
-4.99739e-12
7.24949e-13
-1.2111e-12
3.06391e-12
1.45307e-11
2.43962e-11
3.05514e-11
3.23965e-11
3.06955e-11
2.54631e-11
1.40026e-11
-7.65137e-12
-3.82263e-11
-3.01802e-11
-1.45344e-11
-2.22289e-11
-2.98494e-11
-2.33649e-11
-1.34329e-11
-4.11493e-12
7.23923e-13
-4.47132e-12
-7.88489e-12
-3.17016e-12
4.08172e-12
1.18982e-11
1.72146e-11
1.75621e-11
1.1562e-11
-2.22077e-12
-2.38358e-11
-4.26486e-11
-2.76788e-11
-1.23546e-11
8.89273e-13
3.10926e-12
-5.36671e-13
-5.42359e-13
3.65581e-12
7.37375e-13
8.16181e-13
2.47801e-13
4.57036e-12
1.16909e-12
1.238e-12
5.72921e-12
6.63516e-13
5.41078e-13
4.26789e-12
6.20551e-13
4.65306e-13
4.16311e-12
6.00171e-13
5.05932e-13
3.05445e-14
2.88716e-13
3.11839e-13
3.24536e-13
3.61544e-13
3.46186e-13
4.07726e-12
2.08301e-13
9.03512e-14
-5.45745e-14
-1.81761e-13
-2.50154e-13
-2.21122e-13
-1.52396e-13
-3.88223e-14
1.20824e-13
2.9577e-13
4.651e-13
5.94875e-13
7.44913e-13
1.90486e-11
2.95339e-12
3.31464e-12
2.86897e-12
3.92256e-13
-1.45639e-12
-2.19753e-12
-7.75089e-13
-5.18197e-11
-3.62454e-12
1.47272e-12
-8.34955e-12
-2.78306e-12
-3.51493e-12
-4.15832e-12
-3.50672e-11
-6.68005e-12
-6.52065e-12
-6.37605e-12
-3.841e-11
-1.30348e-12
-1.24292e-12
-1.18252e-12
-1.09556e-12
-9.70732e-13
-8.39488e-13
-7.19894e-13
-6.32038e-13
-5.75414e-13
-5.90822e-13
-6.73631e-13
-7.7675e-13
-8.85941e-13
-2.32726e-11
-1.12436e-12
-1.23703e-12
-1.29317e-12
-1.35214e-12
-1.35255e-12
-1.15191e-12
-6.235e-12
-6.07417e-12
-3.24952e-11
-6.03651e-12
-5.40481e-12
-2.85037e-11
-7.87001e-12
-8.17661e-12
-3.5437e-11
-7.92537e-12
-7.94245e-12
-5.5234e-11
-1.2909e-11
-1.36377e-11
-1.32062e-11
-6.02764e-11
-5.89095e-12
-2.88223e-13
2.65744e-11
9.88033e-12
3.43363e-11
3.62872e-11
3.12808e-11
2.79966e-11
2.06527e-11
1.07831e-11
2.06106e-12
1.16844e-12
1.46986e-12
5.53533e-12
1.59878e-12
-4.55681e-12
-7.62292e-12
-6.85395e-12
-4.75111e-12
-4.04307e-12
-9.00261e-12
-1.52861e-11
-3.81521e-11
3.46457e-11
3.59499e-11
3.10727e-11
2.758e-11
2.001e-11
1.01248e-11
1.95825e-12
5.02927e-13
-3.09184e-12
4.44964e-12
1.55885e-12
-4.66005e-12
-7.63317e-12
-6.83692e-12
-4.75255e-12
-4.01869e-12
-8.77303e-12
-1.44739e-11
-1.2148e-11
3.49614e-11
3.55228e-11
3.07929e-11
2.70128e-11
1.91467e-11
9.3289e-12
1.89722e-12
-1.23381e-12
-6.84677e-12
2.05821e-12
1.44421e-12
-4.81546e-12
-7.64731e-12
-6.80149e-12
-4.7465e-12
-3.99372e-12
-8.52305e-12
-1.43795e-11
8.69486e-12
3.52119e-11
3.50619e-11
3.04679e-11
2.63496e-11
1.81768e-11
8.50396e-12
8.92003e-13
-3.99079e-12
-1.07867e-11
-6.09878e-13
1.12761e-12
-5.00456e-12
-7.66079e-12
-6.74324e-12
-4.72029e-12
-3.9826e-12
-8.30748e-12
-1.4684e-11
8.09928e-12
3.53742e-11
3.45803e-11
3.00983e-11
2.56025e-11
1.71489e-11
7.40202e-12
-3.13741e-12
-8.1463e-12
-1.34613e-11
-2.73486e-12
3.04485e-13
-5.23164e-12
-7.66865e-12
-6.65316e-12
-4.65982e-12
-4.0048e-12
-8.17101e-12
-1.57676e-11
3.72559e-12
3.54345e-11
3.40827e-11
2.9675e-11
2.47666e-11
1.59883e-11
5.74401e-12
-5.03727e-12
-1.31012e-11
-1.42616e-11
-4.60604e-12
-1.28524e-12
-5.60589e-12
-7.65212e-12
-6.5033e-12
-4.54478e-12
-4.05567e-12
-8.19357e-12
-1.56676e-11
-2.18697e-11