/*--------------------------------*- C++ -*----------------------------------*\
| =========                 |                                                 |
| \\      /  F ield         | OpenFOAM: The Open Source CFD Toolbox           |
|  \\    /   O peration     | Version:  4.1                                   |
|   \\  /    A nd           | Web:      www.OpenFOAM.org                      |
|    \\/     M anipulation  |                                                 |
\*---------------------------------------------------------------------------*/
FoamFile
{
    version     2.0;
    format      ascii;
    class       volVectorField;
    location    "22";
    object      U;
}
// * * * * * * * * * * * * * * * * * * * * * * * * * * * * * * * * * * * * * //

dimensions      [0 1 -1 0 0 0 0];

internalField   nonuniform List<vector> 
1280
(
(-6.42654e-16 -0.744754 -2.75446)
(-5.28448e-16 0.87015 -1.90269)
(5.89263e-16 -0.0848731 -0.743898)
(3.91948e-16 0.0296482 -0.573085)
(-6.21339e-16 1.12569 -1.71702)
(-5.32881e-16 0.690496 -1.5305)
(-5.89833e-16 1.01052 -1.66179)
(-1.18392e-16 1.1578 -1.63652)
(-9.31899e-16 1.97912 -2.35277)
(-8.75899e-16 1.76714 -1.81598)
(-9.10186e-16 2.07434 -1.68501)
(-8.10373e-16 2.96696 -2.51379)
(-4.79506e-16 2.67694 -1.95899)
(-3.88152e-16 3.04578 -1.80343)
(-6.57038e-16 4.0281 -2.72098)
(-4.48456e-16 3.53348 -2.18943)
(-3.36264e-16 4.10526 -1.9814)
(-7.0756e-16 4.51324 -3.41198)
(-4.39492e-16 5.1111 -2.25884)
(-3.65624e-16 3.92511 -4.76249)
(-1.25311e-16 5.15557 0.964503)
(-1.18447e-15 5.43277 5.3828)
(-1.27934e-15 5.38475 7.10034)
(-1.33143e-15 5.88948 7.7852)
(-1.48326e-15 6.00396 8.43823)
(-1.42025e-15 6.37163 9.90854)
(-8.59502e-16 4.4428 8.78566)
(-8.54569e-16 8.25866 14.8689)
(-3.70672e-16 8.37325 15.2686)
(2.23895e-16 8.39484 15.2936)
(7.45686e-16 8.31033 15.016)
(1.02627e-15 8.16387 14.5175)
(9.07167e-16 7.99403 13.9154)
(6.25213e-16 7.81271 13.2726)
(1.59271e-16 7.63998 12.6569)
(-4.95688e-16 7.50208 12.1574)
(-1.21341e-15 7.44664 11.8545)
(-1.9081e-15 7.38906 11.6426)
(-2.44051e-15 7.61997 11.4991)
(-3.05605e-15 7.4924 10.2087)
(-3.31568e-15 9.82598 10.1041)
(-2.3722e-15 5.034 6.46347)
(-2.66236e-15 4.34232 6.40602)
(-2.0739e-15 3.57749 6.48468)
(8.53699e-16 2.91709 7.0791)
(1.16979e-15 1.72527 4.54875)
(1.76509e-15 1.2358 4.30167)
(6.22562e-16 0.665104 4.3461)
(1.13077e-14 0.217179 2.90098)
(-4.73185e-16 -0.338798 2.11925)
(-1.18291e-15 -0.633192 2.44508)
(1.45336e-15 -1.2929 5.09048)
(2.23539e-15 -2.50347 5.83717)
(2.82324e-15 -3.25335 5.6508)
(3.34001e-15 -3.72368 5.76911)
(6.10394e-15 -5.65045 8.60826)
(5.43582e-15 -6.13952 7.25511)
(5.23747e-15 -7.09576 7.1434)
(5.12133e-15 -7.85419 6.99794)
(6.67496e-15 -12.257 9.84955)
(5.34761e-15 -8.68103 9.57894)
(5.09916e-15 -8.83918 10.8822)
(4.85136e-15 -8.54932 10.8107)
(4.49462e-15 -8.60065 10.8151)
(3.98249e-15 -8.60448 10.9228)
(3.44406e-15 -8.71627 11.2581)
(2.95341e-15 -8.84062 11.7263)
(2.59298e-15 -8.97488 12.2499)
(2.36067e-15 -9.09899 12.7755)
(2.42389e-15 -9.17776 13.161)
(2.76362e-15 -9.19891 13.3213)
(3.18667e-15 -9.15955 13.1924)
(3.63463e-15 -8.92043 12.6997)
(4.90595e-15 -4.04373 5.49363)
(4.61274e-15 -5.61708 8.89145)
(5.07501e-15 -5.23257 6.88698)
(5.3053e-15 -5.15832 5.86918)
(5.54725e-15 -4.68545 4.70658)
(5.54894e-15 -4.74302 2.49125)
(4.72579e-15 -4.41881 -2.21461)
(4.50588e-15 -3.25837 -7.25082)
(4.38964e-15 -3.85857 -5.13721)
(5.52286e-15 -2.08734 -6.93566)
(4.36243e-15 -2.41962 -4.54085)
(3.90591e-15 -1.26789 -5.01503)
(5.74675e-15 -0.334732 -5.98592)
(5.68745e-15 -0.0616342 -3.63857)
(5.90902e-15 0.416837 -3.21092)
(7.15148e-15 1.22989 -4.22898)
(5.72746e-15 1.35787 -3.19893)
(5.7398e-15 1.91645 -3.03076)
(9.85803e-15 2.775 -3.91255)
(9.40741e-15 2.59098 -2.90121)
(9.85558e-15 3.23904 -2.95555)
(9.54381e-15 3.46704 -2.80432)
(1.02446e-14 4.66255 -3.98353)
(4.25724e-15 4.23124 -3.03694)
(2.08291e-16 5.03625 -2.82807)
(-4.52151e-15 5.0665 -3.73519)
(-7.14026e-15 6.03912 -3.98996)
(-3.81514e-15 -1.91928 1.31858)
(-4.03191e-15 -3.25397 1.61519)
(-3.47564e-15 -4.27569 1.64523)
(-3.11073e-15 -4.78697 1.76426)
(-2.29475e-15 -5.36542 1.79609)
(-1.19812e-15 -5.38163 1.8229)
(-2.29007e-16 -3.12958 1.33741)
(-1.29827e-16 2.98644 -2.24838)
(-1.63317e-16 3.28533 -1.75643)
(-6.15037e-16 -2.38255 -0.60022)
(-1.77643e-16 -4.68748 0.177252)
(5.06312e-16 -6.45444 0.766666)
(8.46991e-16 -8.74576 0.728526)
(7.6155e-16 -10.4203 0.401044)
(5.27901e-16 -10.777 -0.20948)
(4.4923e-16 -10.5038 -0.865681)
(1.00029e-15 -8.86833 -1.88085)
(1.69846e-15 -5.39902 -2.59231)
(4.23912e-15 -0.365716 -4.02247)
(-3.84953e-15 -2.02957 1.3229)
(-3.99443e-15 -3.35396 1.66426)
(-3.45252e-15 -4.3121 1.70132)
(-3.06444e-15 -4.81606 1.82163)
(-2.22334e-15 -5.36091 1.86838)
(-1.12498e-15 -5.20596 1.92076)
(-2.17584e-16 -1.89135 0.915367)
(-5.58808e-17 3.94501 -2.97007)
(3.43538e-16 2.78821 -2.14444)
(-4.94405e-16 -2.93784 -0.686941)
(-1.73205e-16 -5.11355 0.220785)
(5.17783e-16 -6.64624 0.847814)
(8.48129e-16 -8.68335 0.836421)
(7.59658e-16 -10.1787 0.528849)
(5.28061e-16 -10.4218 -0.0620077)
(4.46521e-16 -10.0102 -0.725036)
(9.74781e-16 -8.33354 -1.75586)
(1.60821e-15 -4.76547 -2.6156)
(1.34978e-15 0.101241 -3.4012)
(-3.8846e-15 -2.10312 1.36451)
(-3.94698e-15 -3.42523 1.7401)
(-3.42144e-15 -4.34789 1.7864)
(-3.00142e-15 -4.86372 1.92455)
(-2.12741e-15 -5.38972 2.00848)
(-1.03654e-15 -5.01122 2.05971)
(-2.10802e-16 -0.749419 -0.0507391)
(1.3709e-16 4.30094 -3.06851)
(7.60752e-16 2.32449 -1.85511)
(-2.2869e-16 -3.36792 -0.524393)
(-1.60468e-16 -5.41589 0.375522)
(5.35051e-16 -6.75576 1.0157)
(8.49701e-16 -8.60849 1.02852)
(7.55722e-16 -9.98961 0.739328)
(5.27388e-16 -10.174 0.181045)
(4.43746e-16 -9.67373 -0.484502)
(9.47005e-16 -7.96957 -1.53124)
(1.59772e-15 -4.41346 -2.59888)
(-9.66095e-16 0.217122 -3.11429)
(-3.91243e-15 -2.18928 1.44147)
(-3.89576e-15 -3.50361 1.83881)
(-3.38532e-15 -4.38745 1.89826)
(-2.92774e-15 -4.92132 2.07643)
(-2.01965e-15 -5.40036 2.21834)
(-9.44885e-16 -4.56311 2.15156)
(-9.91114e-17 0.440618 -1.87788)
(4.43421e-16 4.36598 -3.00041)
(1.19852e-15 1.7271 -1.33753)
(6.77643e-17 -3.76085 0.0211315)
(-1.2529e-16 -5.68588 0.637637)
(5.56062e-16 -6.87676 1.24692)
(8.51199e-16 -8.56339 1.29057)
(7.49248e-16 -9.83683 1.0194)
(5.24477e-16 -9.96009 0.512323)
(4.42511e-16 -9.35617 -0.141005)
(9.23054e-16 -7.57056 -1.19807)
(1.63156e-15 -4.01783 -2.507)
(-8.9992e-16 0.401221 -3.69459)
(-3.93047e-15 -2.28761 1.53809)
(-3.84225e-15 -3.59428 1.95529)
(-3.34425e-15 -4.44226 2.03459)
(-2.84472e-15 -5.00712 2.27863)
(-1.90543e-15 -5.39062 2.52071)
(-8.22447e-16 -3.73803 2.23271)
(3.48601e-16 1.70094 -2.49394)
(9.05145e-16 4.0306 -2.42642)
(1.4957e-15 0.934152 -0.448617)
(3.03873e-16 -4.04167 0.803856)
(-3.38317e-17 -5.89359 0.997959)
(5.81293e-16 -7.01297 1.52879)
(8.52072e-16 -8.53145 1.63101)
(7.3924e-16 -9.68561 1.38318)
(5.17758e-16 -9.73878 0.940819)
(4.44978e-16 -9.00239 0.31633)
(9.0789e-16 -7.08646 -0.746671)
(1.75196e-15 -3.27133 -2.22437)
(-4.13954e-16 0.290946 -4.74003)
(-3.93717e-15 -2.38853 1.64975)
(-3.78697e-15 -3.69106 2.0846)
(-3.29722e-15 -4.51708 2.19079)
(-2.75184e-15 -5.13093 2.52101)
(-1.77648e-15 -5.36588 2.8812)
(-6.38223e-16 -2.69153 2.23505)
(5.59697e-16 2.64714 -1.87568)
(1.45569e-15 3.58536 -1.24017)
(1.58463e-15 -0.0547576 0.665125)
(5.11782e-16 -4.13089 1.61841)
(1.42804e-16 -5.98972 1.48942)
(6.22877e-16 -7.13463 1.86636)
(8.50235e-16 -8.51667 2.04106)
(7.22589e-16 -9.55117 1.83593)
(5.04975e-16 -9.54117 1.46702)
(4.5063e-16 -8.66009 0.890121)
(9.10397e-16 -6.59602 -0.14654)
(1.74085e-15 -2.27895 -1.95634)
(2.42997e-15 2.30126 -4.80737)
(-3.93233e-15 -2.49296 1.77602)
(-3.73056e-15 -3.79614 2.2234)
(-3.24357e-15 -4.61644 2.36291)
(-2.64771e-15 -5.29015 2.78263)
(-1.61614e-15 -5.32207 3.22853)
(-4.16685e-16 -1.69768 2.16897)
(2.87336e-16 3.23535 -0.794181)
(2.01775e-15 3.0504 0.254518)
(1.5714e-15 -0.761862 1.80127)
(7.17861e-16 -4.10352 2.43878)
(3.59234e-16 -5.99363 2.12192)
(6.70654e-16 -7.22921 2.29636)
(8.48685e-16 -8.52774 2.51138)
(7.00427e-16 -9.44592 2.37164)
(4.94383e-16 -9.37483 2.09174)
(4.7776e-16 -8.33729 1.57937)
(9.56438e-16 -6.05626 0.630919)
(9.72912e-16 -1.21141 -2.77169)
(5.80018e-15 2.80745 -1.71995)
(-3.91797e-15 -2.59984 1.91669)
(-3.67346e-15 -3.91042 2.36643)
(-3.18057e-15 -4.74171 2.54424)
(-2.52918e-15 -5.47453 3.04157)
(-1.448e-15 -5.24914 3.52113)
(-3.51995e-16 -0.854907 2.16484)
(-1.35195e-16 3.44592 0.56144)
(2.49023e-15 2.50876 1.72956)
(1.73614e-15 -1.14203 2.9533)
(1.0273e-15 -4.04048 3.29908)
(6.90871e-16 -5.93194 2.87106)
(8.18157e-16 -7.28419 2.85478)
(8.2516e-16 -8.55606 3.0437)
(6.52338e-16 -9.37435 2.97909)
(4.46613e-16 -9.24836 2.8343)
(5.10885e-16 -8.06965 2.46099)
(9.00766e-16 -5.17225 1.5026)
(2.17175e-15 -0.463827 -3.17378)
(9.52821e-15 -3.1974 4.65813)
(-3.89676e-15 -2.70555 2.06717)
(-3.6168e-15 -4.03182 2.50527)
(-3.11267e-15 -4.88999 2.72406)
(-2.39962e-15 -5.6739 3.2801)
(-1.27349e-15 -5.15943 3.76166)
(-4.46728e-16 -0.190115 2.40993)
(2.27421e-16 3.38434 1.9661)
(2.81156e-15 1.97096 3.13312)
(1.78996e-15 -1.4023 4.08714)
(1.07058e-15 -3.95797 4.19578)
(6.88387e-16 -5.82097 3.70367)
(6.08111e-16 -7.29162 3.5411)
(8.32323e-16 -8.58611 3.64765)
(6.70925e-16 -9.35204 3.65961)
(6.04787e-16 -9.19062 3.68614)
(4.61206e-16 -7.77825 3.35893)
(1.81561e-15 -4.24459 2.29934)
(7.39143e-15 -1.90112 4.5143)
(9.79007e-15 -3.20216 9.98247)
(-3.87172e-15 -2.80676 2.21536)
(-3.56199e-15 -4.15779 2.62984)
(-3.02919e-15 -5.0567 2.88955)
(-2.25205e-15 -5.88458 3.48456)
(-1.2382e-15 -5.09944 3.97547)
(-2.20241e-16 0.219319 3.02803)
(2.34897e-15 3.13509 3.3935)
(2.91747e-15 1.49017 4.45275)
(2.20654e-15 -1.56442 5.16764)
(1.3141e-15 -3.84676 5.10926)
(1.16722e-15 -5.67659 4.59283)
(1.90671e-15 -7.25452 4.33329)
(8.04711e-16 -8.61105 4.34351)
(4.62212e-16 -9.37823 4.41893)
(-4.84857e-16 -9.13807 4.54515)
(8.1014e-16 -7.57019 4.2012)
(2.89595e-15 -5.09292 4.44936)
(5.43313e-15 -4.1507 9.01356)
(3.98928e-15 -3.02464 9.59533)
(-3.84316e-15 -2.90125 2.3448)
(-3.50941e-15 -4.2863 2.73039)
(-2.95033e-15 -5.23721 3.02819)
(-2.18258e-15 -6.10988 3.64489)
(-9.68953e-16 -5.13031 4.18244)
(2.43984e-15 0.311803 3.9358)
(4.69186e-15 2.8047 4.81229)
(3.01736e-15 1.08899 5.6941)
(3.14047e-15 -1.64236 6.18634)
(2.30425e-15 -3.71164 6.02957)
(2.04131e-15 -5.51492 5.53545)
(2.11834e-15 -7.18524 5.23311)
(6.32308e-16 -8.62768 5.16337)
(2.17245e-16 -9.42284 5.2415)
(-4.56612e-16 -9.12129 5.35407)
(1.07235e-15 -7.75187 5.26744)
(2.90815e-15 -6.06929 6.80138)
(6.70696e-15 -3.91595 9.57667)
(1.11711e-14 -1.12136 6.38045)
(-3.80965e-15 -2.98887 2.44092)
(-3.46537e-15 -4.41659 2.79884)
(-2.87833e-15 -5.4277 3.12976)
(-2.09562e-15 -6.35587 3.75422)
(-7.69018e-16 -5.29745 4.3784)
(1.77617e-15 0.106153 4.93166)
(2.71188e-15 2.44917 6.20465)
(3.50493e-15 0.783162 6.88175)
(3.39522e-15 -1.66239 7.1448)
(2.93954e-15 -3.57795 6.93347)
(2.41614e-15 -5.3618 6.51473)
(1.68425e-15 -7.10109 6.23004)
(3.85769e-16 -8.62078 6.09338)
(9.64047e-17 -9.44502 6.08858)
(-1.39292e-16 -9.16282 6.18664)
(1.45558e-15 -8.11554 6.63556)
(4.6826e-15 -6.8068 8.46077)
(8.40768e-15 -4.89625 9.55711)
(4.67868e-15 -2.19129 8.27035)
(-3.76725e-15 -3.06936 2.49379)
(-3.43684e-15 -4.54771 2.82972)
(-2.81427e-15 -5.6241 3.18753)
(-2.00996e-15 -6.62517 3.80816)
(-6.35818e-16 -5.62151 4.5377)
(1.85999e-15 -0.369976 5.86274)
(3.29108e-15 2.07104 7.55598)
(3.41792e-15 0.581257 8.07435)
(3.03861e-15 -1.61637 8.10985)
(2.59763e-15 -3.45116 7.80806)
(1.98804e-15 -5.23559 7.45662)
(1.08967e-15 -7.01414 7.21929)
(2.58621e-16 -8.57849 7.03068)
(1.23693e-16 -9.45676 6.94248)
(2.98495e-16 -9.35841 7.17336)
(2.28175e-15 -8.68719 8.22468)
(4.4628e-15 -7.2912 10.2525)
(8.82782e-16 -3.63175 11.978)
(-6.29136e-15 3.78533 12.3754)
(-3.70732e-15 -3.14654 2.49914)
(-3.42831e-15 -4.68158 2.82061)
(-2.75954e-15 -5.82412 3.19892)
(-1.932e-15 -6.91549 3.80512)
(-5.61485e-16 -6.10112 4.62206)
(1.83957e-15 -1.11035 6.61178)
(3.4455e-15 1.62622 8.82292)
(3.57859e-15 0.438301 9.32904)
(2.93202e-15 -1.51918 9.25114)
(2.17914e-15 -3.31519 8.77585)
(1.48897e-15 -5.12831 8.36133)
(7.79646e-16 -6.92753 8.11221)
(2.95892e-16 -8.51383 7.89312)
(2.39047e-16 -9.4941 7.82284)
(7.77579e-16 -9.67238 8.29444)
(2.55659e-15 -9.29172 9.60755)
(2.63375e-15 -8.02529 10.8994)
(-1.29502e-15 -5.36142 10.1336)
(-1.03228e-15 -1.91653 6.40109)
(-3.61656e-15 -3.21638 2.45163)
(-3.4392e-15 -4.81421 2.77227)
(-2.71632e-15 -6.02168 3.16528)
(-1.86163e-15 -7.21322 3.74751)
(-5.44128e-16 -6.70509 4.59535)
(1.6641e-15 -2.09683 7.05742)
(3.4328e-15 1.07087 9.86937)
(3.80783e-15 0.296816 10.5428)
(3.34799e-15 -1.35046 10.615)
(2.42961e-15 -3.08701 10.0581)
(1.587e-15 -4.96431 9.48171)
(9.25352e-16 -6.8226 9.11222)
(5.31423e-16 -8.47011 8.86193)
(5.59159e-16 -9.62008 8.91464)
(1.31509e-15 -10.0898 9.62236)
(2.32422e-15 -9.75374 10.7563)
(8.98751e-16 -7.66282 10.4236)
(-2.4091e-15 -2.92359 5.7802)
(-2.30597e-15 2.22338 -2.78011)
(-3.47957e-15 -3.29564 2.35638)
(-3.46003e-15 -4.95918 2.68914)
(-2.68589e-15 -6.22046 3.09216)
(-1.7945e-15 -7.50689 3.64383)
(-5.6439e-16 -7.38209 4.44257)
(1.29062e-15 -3.29891 7.08136)
(3.00558e-15 0.354943 10.4521)
(3.72923e-15 0.00829628 11.4454)
(3.77102e-15 -1.31167 11.9102)
(3.13515e-15 -2.882 11.6139)
(2.32312e-15 -4.75459 11.0402)
(1.62735e-15 -6.67252 10.5886)
(1.24443e-15 -8.42828 10.3386)
(1.36912e-15 -9.78365 10.5013)
(1.97124e-15 -10.401 11.0859)
(1.89666e-15 -9.58279 11.0844)
(-3.6111e-16 -5.93036 8.00865)
(-2.92092e-15 0.265149 0.270455)
(-2.38578e-15 2.94425 -2.37503)
(-3.28802e-15 -3.35716 2.19192)
(-3.48032e-15 -5.0913 2.57582)
(-2.67273e-15 -6.40327 2.98761)
(-1.72968e-15 -7.76493 3.50654)
(-5.87255e-16 -8.03023 4.18463)
(7.81582e-16 -4.56616 6.65371)
(2.00797e-15 -0.508665 10.2202)
(3.01261e-15 -0.361359 11.6276)
(3.66316e-15 -1.36371 12.6334)
(3.65197e-15 -2.72162 12.9972)
(3.23324e-15 -4.54587 12.8174)
(2.71998e-15 -6.54695 12.5454)
(2.41442e-15 -8.4601 12.3538)
(2.44874e-15 -9.95048 12.3457)
(2.43348e-15 -10.3518 12.0763)
(1.28934e-15 -8.5345 10.1559)
(-1.27471e-15 -3.52035 4.86489)
(-2.98714e-15 1.70454 -1.74961)
(-2.21269e-15 3.24534 -2.53963)
(-3.04762e-15 -3.47649 2.00762)
(-3.47078e-15 -5.28573 2.45183)
(-2.66039e-15 -6.60646 2.86509)
(-1.65902e-15 -8.00754 3.35462)
(-5.79364e-16 -8.6112 3.88254)
(3.43346e-16 -5.81522 5.93869)
(8.30813e-16 -1.54814 9.26885)
(1.75292e-15 -1.05145 10.9584)
(2.87076e-15 -1.89889 12.4474)
(3.47766e-15 -3.01879 13.4818)
(3.61721e-15 -4.61252 13.8866)
(3.46596e-15 -6.49169 14.0113)
(3.25622e-15 -8.32359 13.9122)
(3.01143e-15 -9.61687 13.4461)
(2.30071e-15 -9.4452 11.8795)
(4.96526e-16 -6.62685 8.02136)
(-2.14452e-15 -1.04785 1.51334)
(-3.2909e-15 2.82185 -1.8036)
(-1.9541e-15 3.37898 -2.40843)
(-2.77107e-15 -3.51431 1.69418)
(-3.46078e-15 -5.38933 2.30584)
(-2.67755e-15 -6.74449 2.73769)
(-1.61103e-15 -8.16294 3.20645)
(-5.55266e-16 -9.00588 3.59783)
(8.05499e-17 -6.73066 5.22784)
(-1.34567e-16 -2.39767 8.17571)
(3.40434e-16 -1.62086 9.924)
(1.61452e-15 -2.26353 11.8128)
(2.71069e-15 -3.19365 13.4656)
(3.3946e-15 -4.69943 14.3544)
(3.59961e-15 -6.56153 14.7632)
(3.41061e-15 -8.31372 14.5874)
(2.82924e-15 -9.28274 13.3942)
(1.55584e-15 -8.33657 10.4231)
(-8.50153e-16 -4.59551 5.2198)
(-4.24737e-15 0.492277 -0.862633)
(-3.35335e-15 3.17192 -2.00891)
(-1.61494e-15 3.3655 -2.51353)
(-2.46988e-15 -3.77955 1.36921)
(-3.3166e-15 -5.76915 2.20151)
(-2.5961e-15 -7.01206 2.58389)
(-1.49254e-15 -8.39676 3.01921)
(-4.57215e-16 -9.44019 3.28962)
(8.04359e-17 -7.78965 4.29691)
(-4.96814e-16 -3.46447 6.12685)
(-8.76099e-16 -2.61294 7.21795)
(-3.5224e-16 -3.48156 8.94713)
(4.53524e-16 -4.22702 10.9522)
(1.32202e-15 -5.25387 12.287)
(1.91273e-15 -6.59717 12.8699)
(1.95134e-15 -7.64939 12.5228)
(1.28467e-15 -7.65231 10.829)
(-2.46753e-16 -5.74658 7.36737)
(-2.64843e-15 -1.85362 2.61958)
(-4.73873e-15 1.99424 -0.491096)
(-3.07542e-15 3.71379 -1.90044)
(-1.37273e-15 3.29161 -2.51202)
(1.15727e-16 11.139 19.3571)
(-4.44934e-15 18.8104 31.3689)
(-3.86963e-15 18.7817 30.5299)
(-3.7805e-15 17.0578 27.3281)
(-4.39197e-15 15.6969 24.8126)
(-4.66931e-15 14.5895 22.8765)
(-3.57367e-15 13.2634 20.6707)
(-2.86579e-15 11.8094 18.5033)
(-1.62239e-15 10.224 16.1016)
(2.17378e-16 8.49177 13.5416)
(1.87109e-15 6.63067 10.8081)
(2.62316e-15 4.79085 8.11619)
(2.10148e-15 3.28855 6.11471)
(1.39311e-15 2.27535 4.97096)
(-1.26026e-16 2.02865 4.95671)
(-2.22501e-15 2.84179 6.45614)
(-3.83633e-15 4.63074 9.37046)
(-4.47838e-15 6.74013 12.7058)
(-4.41737e-15 8.19446 14.3297)
(-4.7114e-15 5.77601 10.8428)
(-1.88876e-16 11.3331 19.2733)
(-5.59904e-15 17.1281 30.0181)
(-4.24966e-15 15.0003 26.1479)
(-4.80077e-15 12.4313 22.1072)
(-5.75794e-15 10.9158 19.7159)
(-6.78914e-15 9.74685 18.0498)
(-4.64096e-15 8.62919 16.4451)
(-4.22764e-15 7.44125 14.6008)
(-3.22698e-15 6.20313 12.6087)
(-1.93601e-15 4.99561 10.5179)
(-1.4062e-15 3.85802 8.4169)
(-1.93379e-15 2.89431 6.45092)
(-3.58455e-15 2.33248 5.06345)
(-4.88984e-15 2.53286 4.98342)
(-7.3264e-15 3.71849 6.65316)
(-8.57027e-15 5.65081 9.70159)
(-7.92705e-15 7.83295 13.2717)
(-7.10969e-15 9.53168 16.3862)
(-5.57279e-15 10.301 17.3691)
(-6.65536e-15 7.34859 13.4661)
(-1.61872e-16 9.9732 17.306)
(-1.87917e-15 16.9523 30.1072)
(-1.314e-15 16.1075 28.1034)
(-1.50404e-15 14.2367 24.5064)
(-1.70443e-15 12.7309 21.634)
(-4.63781e-15 11.6685 19.5043)
(-3.0929e-15 10.8192 17.8905)
(-2.95533e-15 10.1218 16.4258)
(-3.58626e-15 9.44843 14.9919)
(-3.6918e-15 8.81367 13.5226)
(-3.62618e-15 8.20017 11.9986)
(-3.76798e-15 7.61631 10.4409)
(-4.03002e-15 7.14195 9.00071)
(-5.11312e-15 6.84682 7.92544)
(-6.49244e-15 6.8856 7.61451)
(-7.43137e-15 7.30343 8.4046)
(-7.61171e-15 8.05165 10.1184)
(-6.2284e-15 8.62623 12.1373)
(-4.40268e-15 8.58566 13.0258)
(-4.88155e-15 6.31697 10.6056)
(6.61954e-17 8.79093 15.0366)
(5.16996e-16 17.6809 30.8171)
(3.4783e-16 17.3127 29.8836)
(3.55987e-16 15.1122 25.6369)
(5.95338e-16 13.3476 22.5158)
(-2.50898e-15 12.3258 20.3685)
(-2.71278e-15 11.5248 18.7904)
(-2.64694e-15 10.8693 17.3604)
(-3.11376e-15 10.23 16.0072)
(-3.2754e-15 9.61517 14.6854)
(-3.53444e-15 9.01077 13.3739)
(-3.74078e-15 8.40521 12.0423)
(-4.45611e-15 7.78775 10.6649)
(-5.14311e-15 7.16943 9.28614)
(-5.64418e-15 6.62068 8.08009)
(-5.90888e-15 6.23781 7.3219)
(-6.51986e-15 6.02986 7.19532)
(-5.95912e-15 5.90745 7.47657)
(-5.49873e-15 5.24525 7.47273)
(-6.83023e-15 3.16891 4.36251)
(-1.10287e-17 8.93347 15.1561)
(-1.07371e-16 18.3471 31.2419)
(-7.46964e-17 17.9648 30.7967)
(-7.06774e-17 15.7407 26.4808)
(-1.23147e-16 13.9745 23.5353)
(5.54089e-16 13.0198 21.498)
(6.0222e-16 12.1835 19.9321)
(5.70323e-16 11.4557 18.4235)
(6.46026e-16 10.7166 16.9669)
(6.77871e-16 9.99386 15.5459)
(7.04155e-16 9.28409 14.1753)
(7.55234e-16 8.58759 12.8538)
(7.52252e-16 7.89601 11.5679)
(7.58696e-16 7.20557 10.2896)
(7.17398e-16 6.48442 9.00125)
(6.34706e-16 5.75529 7.70169)
(6.17649e-16 4.94163 6.48387)
(6.91433e-16 4.14728 5.27353)
(9.28308e-16 2.78881 3.89641)
(1.63628e-15 0.877752 0.111406)
(1.12075e-18 10.3538 17.4337)
(1.79064e-17 19.3956 32.1363)
(1.44546e-17 18.501 31.2109)
(1.30165e-17 16.3826 26.9438)
(1.67204e-17 14.6813 24.2517)
(-9.43512e-17 13.8267 22.2997)
(-1.14858e-16 12.9847 20.751)
(-1.07918e-16 12.2484 19.1911)
(-1.10699e-16 11.4754 17.6542)
(-1.12192e-16 10.6947 16.1017)
(-1.08021e-16 9.88432 14.5407)
(-1.02225e-16 9.03804 12.9725)
(-8.42779e-17 8.15044 11.4084)
(-5.29318e-17 7.23191 9.85354)
(1.37441e-18 6.25975 8.31609)
(7.52052e-17 5.25956 6.74724)
(1.37952e-16 4.10272 5.12689)
(1.4902e-16 2.9021 3.23028)
(6.04163e-17 0.878667 0.860173)
(5.07605e-16 -0.535105 -2.7473)
(-6.54575e-20 13.1342 22.4548)
(-2.64491e-18 20.7472 33.6897)
(-2.52367e-18 18.4937 31.182)
(-2.21824e-18 16.852 27.3541)
(-1.36097e-18 15.3665 25.2891)
(1.5712e-17 14.7475 23.4953)
(2.05838e-17 13.9228 22.0245)
(1.89079e-17 13.2733 20.4543)
(1.69869e-17 12.5158 18.8787)
(1.50338e-17 11.7161 17.1819)
(1.25099e-17 10.8041 15.3854)
(9.6445e-18 9.79365 13.4947)
(4.2871e-18 8.68769 11.5447)
(-6.54775e-18 7.50709 9.55391)
(-2.49762e-17 6.23265 7.54683)
(-4.81425e-17 4.89153 5.48717)
(-6.68084e-17 3.35306 3.37887)
(-7.5091e-17 1.76158 0.907272)
(-3.43378e-17 -0.748931 -1.81669)
(-2.63107e-17 -1.96495 -5.67524)
(1.45129e-21 16.1096 28.4631)
(3.73188e-19 21.0442 34.1442)
(3.80663e-19 17.5657 30.6016)
(3.17125e-19 16.9019 27.8447)
(-2.24576e-20 15.5437 26.5191)
(-2.61518e-18 15.1948 24.9094)
(-3.34676e-18 14.3287 23.6688)
(-2.83661e-18 13.8154 22.177)
(-2.11964e-18 12.9685 20.5843)
(-1.44719e-18 12.0265 18.6154)
(-8.88298e-19 10.8099 16.4196)
(-4.15961e-19 9.47254 14.0615)
(4.92717e-19 8.01412 11.6391)
(2.69316e-18 6.46293 9.14366)
(6.69319e-18 4.78698 6.57358)
(1.15643e-17 3.00293 3.8957)
(1.44056e-17 1.04107 1.24195)
(-1.22827e-19 -0.743005 -1.95527)
(-2.46621e-17 -3.21854 -4.4309)
(-9.13463e-17 -3.4375 -8.44908)
(-5.89782e-22 17.39 31.7284)
(-5.1559e-20 19.3133 32.0512)
(-4.66374e-20 16.1048 29.4973)
(-3.22582e-20 16.0224 27.6797)
(6.84195e-20 14.5138 26.646)
(4.72967e-19 14.1438 25.2016)
(5.02689e-19 13.0961 24.2171)
(3.51718e-19 12.4705 22.795)
(1.68821e-19 11.2049 21.0423)
(-3.00392e-21 9.78794 18.5736)
(-7.356e-20 7.99136 15.8276)
(-6.86955e-20 6.22366 12.9828)
(-1.4686e-19 4.38784 10.1537)
(1.03781e-19 2.51403 7.21072)
(1.40466e-18 0.564977 4.08479)
(3.15503e-18 -1.32297 1.07279)
(9.90574e-19 -2.49194 -0.876746)
(-1.6109e-17 -3.57023 -3.00426)
(-4.76995e-17 -5.46804 -6.16858)
(-5.53804e-17 -3.52949 -5.84905)
(4.60846e-22 16.333 30.1037)
(4.83921e-21 17.4549 29.6987)
(1.94085e-21 14.9723 27.826)
(-2.28224e-21 14.4888 25.888)
(-1.81669e-20 12.9416 24.7923)
(-4.74503e-20 12.2867 23.3907)
(-1.7638e-20 11.0965 22.3739)
(2.11935e-20 10.1181 20.9251)
(1.98329e-20 8.56581 19.02)
(-2.49427e-20 6.80946 16.4337)
(-7.61409e-21 4.83783 13.6425)
(2.40684e-19 2.97174 10.8932)
(1.06836e-18 1.15216 8.25137)
(2.89117e-18 -0.53458 5.72574)
(3.1175e-18 -1.95902 3.49382)
(-6.67677e-18 -2.99747 1.56919)
(-3.01057e-17 -3.38712 0.247404)
(-5.09281e-17 -2.27623 0.770389)
(-4.63837e-17 0.571039 3.8213)
(-1.28854e-17 2.65293 6.52632)
(-8.27973e-23 14.9416 27.3739)
(1.10906e-23 17.1186 28.8178)
(6.95242e-22 14.2567 26.2064)
(7.18187e-22 13.7532 23.7236)
(-4.23489e-22 12.046 22.5324)
(-1.72506e-21 11.4033 20.7508)
(-3.29002e-21 10.0499 19.4989)
(-3.29438e-21 9.07853 17.8949)
(-1.96308e-20 7.65659 16.1389)
(-5.44534e-20 6.19981 13.8801)
(4.36569e-21 4.6097 11.4207)
(4.03683e-19 3.16718 8.96538)
(1.23918e-18 1.91756 6.74601)
(1.8844e-18 1.04431 5.00936)
(8.52493e-19 0.841906 4.30205)
(-2.59459e-18 1.72544 5.34385)
(-5.86579e-18 3.78373 8.23306)
(-4.3872e-18 6.35552 11.7631)
(1.87045e-18 8.20579 13.7773)
(4.4839e-18 6.14032 11.5061)
(4.75834e-24 14.6833 26.8279)
(-7.66125e-23 17.8293 29.1515)
(-1.53411e-22 14.6466 26.3984)
(-2.70967e-23 14.4596 23.4327)
(6.76982e-22 12.7048 22.2125)
(1.47497e-21 12.3242 20.1508)
(1.29557e-21 11.0502 18.6946)
(2.09018e-22 10.3313 16.9492)
(-9.49664e-22 9.35773 15.4539)
(-7.64331e-21 8.59366 13.93)
(-2.95923e-20 7.83205 12.4615)
(-4.48847e-20 7.18044 11.0018)
(4.31524e-20 6.61174 9.59526)
(3.66585e-19 6.1676 8.31829)
(9.76644e-19 5.90652 7.32079)
(1.71473e-18 5.88962 6.92581)
(2.32423e-18 6.1843 7.29565)
(2.7738e-18 6.36551 8.17129)
(2.6798e-18 6.04381 8.46963)
(4.7157e-19 4.0902 6.51774)
(3.0359e-24 15.1117 27.7195)
(-1.01688e-25 18.6349 30.0794)
(-8.88398e-24 15.1906 27.34)
(-4.42038e-23 15.1692 24.3909)
(-1.57077e-22 13.4797 23.1577)
(-1.85257e-22 13.1337 21.1954)
(3.08348e-23 12.0666 19.7379)
(1.51354e-22 11.3953 18.0782)
(2.38194e-22 10.6035 16.5591)
(2.65786e-21 9.90011 15.0757)
(9.87838e-21 9.23452 13.6717)
(1.37098e-20 8.60123 12.3311)
(-1.07604e-20 7.98531 11.0252)
(-8.65688e-20 7.35985 9.73442)
(-2.02124e-19 6.69504 8.4389)
(-3.09753e-19 5.9762 7.1424)
(-3.91636e-19 5.15711 5.9285)
(-5.64425e-19 4.3016 4.80785)
(-1.05105e-18 2.96714 3.56729)
(-1.82752e-18 1.19177 0.644896)
(-2.13294e-24 15.8119 29.4121)
(9.30796e-24 19.2149 30.4758)
(2.48566e-23 15.4152 28.1204)
(5.10285e-23 15.8683 25.2756)
(7.91835e-23 13.967 24.152)
(3.42532e-23 13.7859 22.1318)
(-1.26048e-22 12.6539 20.7401)
(-3.13123e-22 12.0645 19.0943)
(-5.12448e-22 11.2846 17.6273)
(-1.10666e-21 10.6044 16.1255)
(-2.31262e-21 9.90007 14.6338)
(-2.40217e-21 9.17592 13.1099)
(2.27185e-21 8.39275 11.539)
(1.30398e-20 7.52574 9.8993)
(2.34483e-20 6.52439 8.19072)
(2.08977e-20 5.40649 6.37715)
(-1.85875e-21 4.06887 4.46051)
(-3.7052e-20 2.64829 2.29135)
(-3.3725e-20 0.490314 -0.104354)
(-6.18745e-19 -0.824321 -3.70358)
(5.08618e-25 16.4786 31.4803)
(-5.14481e-24 19.4506 30.4054)
(-3.83328e-24 15.4783 28.9523)
(9.38249e-24 16.4717 26.228)
(2.77702e-23 14.2482 25.2884)
(2.12117e-23 14.3191 23.2464)
(-7.52795e-23 13.0533 22.0033)
(-2.74724e-22 12.6108 20.4111)
(-4.21831e-22 11.8335 19.0804)
(-2.24783e-22 11.2518 17.6717)
(4.16558e-22 10.5862 16.2458)
(1.11933e-21 9.8434 14.6359)
(1.47421e-21 8.88092 12.7351)
(1.98417e-21 7.63106 10.4629)
(4.31109e-21 6.07425 7.92417)
(1.09191e-20 4.40549 5.28483)
(2.40998e-20 2.52755 2.66951)
(4.4381e-20 0.776375 -0.166088)
(7.72827e-20 -1.9519 -3.07492)
(-5.12622e-20 -2.54533 -6.76255)
(-4.51831e-25 16.518 32.4211)
(1.80322e-24 19.0772 29.708)
(1.01894e-23 15.1746 29.1318)
(2.93427e-23 16.3361 26.495)
(3.16067e-23 13.9351 25.6734)
(-5.64498e-23 14.0406 23.7248)
(-2.84062e-22 12.6707 22.6222)
(-5.54689e-22 12.2511 21.1586)
(-6.10604e-22 11.3974 19.9948)
(-2.56801e-22 10.7946 18.702)
(5.1448e-22 9.99058 17.307)
(1.94526e-21 8.98359 15.4666)
(4.93628e-21 7.50334 12.9327)
(1.00146e-20 5.52716 9.63583)
(1.5624e-20 3.35022 6.13807)
(2.16006e-20 1.52049 3.17797)
(3.19377e-20 -0.526876 0.408362)
(3.71909e-20 -0.961733 -2.15388)
(1.00545e-19 -3.99152 -4.78881)
(1.03679e-19 -3.70446 -8.52781)
(-2.01295e-25 15.6862 31.5932)
(-9.08068e-25 18.4386 28.6708)
(5.73772e-24 14.4337 28.2732)
(2.15214e-23 15.3915 25.7561)
(1.35441e-23 13.1934 24.8594)
(-8.91906e-23 12.9581 23.1075)
(-3.16525e-22 11.7452 21.9513)
(-5.34916e-22 11.1147 20.615)
(-4.92374e-22 10.2653 19.4587)
(-9.87918e-23 9.52418 18.2113)
(5.45447e-22 8.59852 16.7606)
(1.74976e-21 7.3975 14.7583)
(4.35315e-21 5.75199 11.9739)
(8.17829e-21 3.85632 8.63963)
(1.35016e-20 2.26795 5.70273)
(2.94301e-20 1.1398 3.55555)
(6.50624e-20 -0.35494 0.824605)
(1.01245e-19 -2.48706 -2.88538)
(1.32524e-19 -4.27111 -5.34656)
(9.73996e-20 -2.93654 -4.70989)
(-2.02376e-25 14.2075 30.6082)
(1.18793e-27 17.9277 27.4766)
(5.48671e-24 13.2563 27.3532)
(1.6859e-23 14.1332 25.0122)
(4.53605e-24 12.0396 24.0839)
(-8.8028e-23 11.5428 22.5129)
(-2.78278e-22 10.405 21.3342)
(-4.74283e-22 9.6421 20.0679)
(-5.32498e-22 8.79551 18.9095)
(-4.28627e-22 8.01992 17.7153)
(-2.45465e-22 7.18114 16.407)
(8.90496e-25 6.24651 14.8196)
(1.13501e-22 5.20079 12.8735)
(-2.5385e-22 4.12705 10.6143)
(1.38005e-21 3.04446 8.09648)
(1.50782e-20 1.78343 5.21397)
(5.52436e-20 0.253347 1.81683)
(1.16062e-19 -1.22469 -1.6781)
(1.46185e-19 -1.91491 -3.36876)
(1.07291e-19 -0.479384 0.398781)
(-9.07053e-26 11.1533 28.4847)
(-3.4127e-25 16.9615 24.805)
(1.7967e-24 11.923 25.2015)
(8.17355e-24 12.5917 23.4617)
(6.11074e-24 10.8437 22.7036)
(-3.86835e-23 10.177 21.5953)
(-1.5696e-22 9.17275 20.667)
(-3.26829e-22 8.38934 19.7103)
(-4.666e-22 7.60944 18.8054)
(-5.32246e-22 6.91665 17.9239)
(-6.422e-22 6.28206 17.0752)
(-1.017e-21 5.71636 16.2293)
(-1.7098e-21 5.1935 15.3146)
(-2.53155e-21 4.67515 14.2176)
(-3.20274e-21 4.11906 12.8289)
(-2.61702e-21 3.46818 11.051)
(2.85777e-21 2.66137 8.72884)
(1.7944e-20 1.70976 5.61979)
(3.86214e-20 0.553735 1.76597)
(3.51902e-20 -0.51249 -1.35682)
(-2.67611e-26 2.60046 17.0816)
(2.3632e-26 8.05187 13.6595)
(6.3844e-25 5.17399 14.5098)
(2.19913e-24 4.9971 14.1088)
(2.12337e-24 4.08461 14.061)
(-8.18636e-24 3.53361 13.879)
(-4.00157e-23 2.97436 13.715)
(-9.28151e-23 2.52413 13.5228)
(-1.37438e-22 2.13992 13.3185)
(-1.19082e-22 1.83132 13.0961)
(7.34855e-24 1.58891 12.8515)
(2.31294e-22 1.40941 12.5781)
(4.79644e-22 1.29134 12.275)
(6.63141e-22 1.24884 11.9403)
(7.00244e-22 1.30568 11.5654)
(4.58046e-22 1.43349 11.1588)
(-2.13607e-22 1.65356 10.6721)
(-1.10989e-21 2.24721 9.79443)
(-1.37715e-21 2.41735 8.45441)
(-4.22417e-22 -0.255702 6.36482)
(2.95176e-26 -2.60051 17.0817)
(-2.32171e-26 -8.05188 13.6596)
(-7.03473e-25 -5.174 14.5099)
(-2.51294e-24 -4.9971 14.1089)
(-2.75136e-24 -4.08461 14.0611)
(8.22379e-24 -3.53361 13.8791)
(4.41745e-23 -2.97437 13.7151)
(1.07537e-22 -2.52414 13.5229)
(1.69976e-22 -2.13993 13.3186)
(1.72703e-22 -1.83131 13.0962)
(6.19672e-23 -1.58886 12.8514)
(-1.61483e-22 -1.40931 12.578)
(-4.3029e-22 -1.29121 12.2748)
(-6.49406e-22 -1.24871 11.9401)
(-7.08022e-22 -1.30557 11.5652)
(-4.15687e-22 -1.43339 11.1586)
(4.24311e-22 -1.65344 10.6719)
(1.53854e-21 -2.24698 9.79433)
(1.83179e-21 -2.41692 8.45434)
(5.5523e-22 0.255784 6.36437)
(9.79539e-26 -11.1533 28.4849)
(4.09337e-25 -16.9617 24.8051)
(-1.8629e-24 -11.923 25.2015)
(-9.08838e-24 -12.5918 23.4616)
(-8.02936e-24 -10.8438 22.7034)
(3.95704e-23 -10.1772 21.5951)
(1.71563e-22 -9.173 20.6667)
(3.7091e-22 -8.38966 19.71)
(5.51354e-22 -7.60985 18.8051)
(6.53152e-22 -6.91717 17.9236)
(7.75337e-22 -6.28275 17.075)
(1.13194e-21 -5.71718 16.2292)
(1.80549e-21 -5.19439 15.3144)
(2.67358e-21 -4.67601 14.2174)
(3.44859e-21 -4.11992 12.8289)
(2.62355e-21 -3.4692 11.0514)
(-4.55718e-21 -2.66266 8.72996)
(-2.41308e-20 -1.71134 5.62149)
(-5.08641e-20 -0.555449 1.7671)
(-4.63033e-20 0.51157 -1.35734)
(2.16597e-25 -14.2072 30.6077)
(2.4954e-26 -17.9274 27.4759)
(-5.73049e-24 -13.2559 27.3526)
(-1.84901e-23 -14.1329 25.0114)
(-7.07912e-24 -12.0392 24.083)
(9.19429e-23 -11.5425 22.5119)
(3.04673e-22 -10.4047 21.3332)
(5.35214e-22 -9.64183 20.0668)
(6.0752e-22 -8.79522 18.9083)
(4.43929e-22 -8.01961 17.714)
(1.036e-22 -7.18085 16.4056)
(-3.10321e-22 -6.24647 14.8185)
(-3.99184e-22 -5.20141 12.8731)
(1.85766e-22 -4.12854 10.6151)
(-2.0157e-21 -3.04639 8.09811)
(-1.98229e-20 -1.78543 5.21597)
(-7.12718e-20 -0.255806 1.81906)
(-1.48895e-19 1.22247 -1.67683)
(-1.87384e-19 1.91323 -3.36893)
(-1.37782e-19 0.470496 0.414621)
(1.83433e-25 -15.6858 31.5922)
(1.31809e-24 -18.4379 28.6702)
(-5.35812e-24 -14.4332 28.2724)