/*--------------------------------*- C++ -*----------------------------------*\
| =========                 |                                                 |
| \\      /  F ield         | OpenFOAM: The Open Source CFD Toolbox           |
|  \\    /   O peration     | Version:  4.1                                   |
|   \\  /    A nd           | Web:      www.OpenFOAM.org                      |
|    \\/     M anipulation  |                                                 |
\*---------------------------------------------------------------------------*/
FoamFile
{
    version     2.0;
    format      ascii;
    class       volScalarField;
    location    "16";
    object      p;
}
// * * * * * * * * * * * * * * * * * * * * * * * * * * * * * * * * * * * * * //

dimensions      [0 2 -2 0 0 0 0];

internalField   nonuniform List<scalar> 
1280
(
0.199289
0.279849
0.574868
0.442454
0.668324
0.607872
0.306976
0.248004
-0.143619
-0.468159
-1.26503
-1.22695
-2.22284
-4.08994
-3.4115
-6.73054
-9.18924
-12.4235
-9.14605
-31.6913
-9.12354
13.1704
23.7361
19.6384
17.6522
27.2571
19.8265
12.5969
9.69461
8.13022
5.73117
3.40397
1.47653
-0.735126
-2.00374
-3.2243
-0.576267
3.71519
13.3577
16.575
-42.1658
-13.7228
-3.94235
0.152239
14.7626
12.8915
13.5162
14.0566
12.3294
14.7833
14.5442
14.2529
15.5825
15.1572
15.4021
15.4408
4.6665
0.664857
-5.94508
-20.2826
13.1463
8.11792
1.86399
-0.0473638
-0.288306
1.42715
2.67983
4.22369
5.2688
6.22147
6.93619
7.27749
7.8491
-13.1081
28.6837
22.6086
20.1267
21.0515
8.93472
-11.0937
-25.5381
-10.0069
-11.2694
-10.1185
-7.14446
-4.81611
-6.33408
-3.8687
-2.68037
-3.70596
-2.25288
-1.62318
-1.90755
-1.84775
-1.15912
-0.367037
-1.19147
-0.551522
-0.184025
-0.509878
-0.343755
0.646275
-0.88782
-0.978499
-0.488624
-0.0197396
-0.228964
-0.49371
-0.57533
-0.1488
0.122504
-0.173567
-0.371551
-0.0686023
0.200166
0.227714
0.130356
-0.178443
0.0645543
-1.68589
1.77537
0.527365
0.876911
0.25565
0.10338
-0.61326
-0.871544
-1.01262
0.0722752
1.15624
0.368589
-0.522413
0.193495
0.674484
0.702515
0.418074
-0.284579
-0.179256
-2.41765
2.92282
-0.128176
0.48663
0.265365
-0.0669892
-0.398753
-1.50561
-1.76562
-0.140048
1.74844
0.344937
-1.16909
0.170195
0.965352
0.997118
0.525056
-0.918492
-0.581455
-3.7045
2.55625
-0.815387
0.397602
0.647085
0.218502
-0.15044
-2.61528
-2.73757
-0.247278
2.75102
0.31341
-2.02151
0.0631152
1.24497
1.40041
0.798468
-1.02289
-0.470283
-4.31406
0.847483
-2.976
-1.20762
0.126076
0.665199
-0.679766
-2.54502
-3.85933
0.304117
3.97872
-0.128796
-3.17721
-0.290684
1.43164
1.71038
0.580826
-2.55112
-1.49112
-4.51121
-1.54575
-4.42619
-2.06266
-0.13
1.26079
-0.238792
-2.04988
-5.41874
1.4748
5.70477
-1.22921
-4.94328
-1.14611
1.33316
2.23066
1.13338
-1.61498
-1.00444
-3.92856
-3.30536
-4.42067
-1.71622
0.44592
2.05301
0.856374
-2.3697
-6.06645
2.29695
7.67787
-2.49039
-6.59264
-2.32004
0.523344
1.98609
-0.741585
-5.212
-2.59289
-3.29004
-4.18098
-3.54542
-0.839405
1.48117
3.19974
2.23385
-2.97341
-6.07898
2.28723
8.48578
-1.79151
-7.18276
-2.97807
-0.0450145
3.05853
2.8317
-0.767438
1.58004
-2.97848
-4.57001
-2.75678
0.0184813
2.66924
4.71451
4.02297
-2.56001
-5.65114
1.97022
7.29714
-1.96371
-7.03536
-2.82183
1.6555
3.80346
4.0917
16.7813
28.5761
-2.93716
-4.48233
-1.99316
0.929057
3.97063
6.46509
6.20903
-0.0856841
-4.07571
0.271388
2.81624
-4.87392
-4.73084
0.949966
2.09045
0.836028
4.04263
27.7804
21.4739
-2.96558
-4.13966
-1.35877
1.80728
5.26062
8.17401
8.27638
3.39003
-0.919262
0.11409
-3.29753
-12.6859
-6.89302
3.73122
5.29958
0.785849
4.29166
28.9203
17.9065
-3.09635
-3.78999
-0.849708
2.62106
6.46043
9.61521
9.71248
6.49196
2.52941
0.816119
-10.2642
-21.6857
-8.68703
8.01938
6.95477
-3.45834
-6.37376
10.5388
25.5041
-3.22472
-3.42151
-0.381439
3.40262
7.59054
10.6857
10.0343
7.62175
4.50957
1.58338
-16.5003
-27.1929
-9.84867
10.1805
6.75485
-6.97961
-10.0436
1.80156
2.23192
-3.26266
-3.02142
0.0706202
4.04808
8.51068
11.5729
9.91786
7.11784
4.00453
1.136
-19.7792
-28.354
-8.70084
9.92017
5.19854
-5.45422
-9.82101
-2.62852
-0.642276
-3.09571
-2.73179
0.48893
4.37095
8.86847
12.2453
9.84901
6.56207
2.62183
-0.336858
-21.7377
-29.9675
-9.19987
9.16277
5.72689
-2.86142
-6.67719
-1.12765
0.888355
-2.79165
-2.55651
0.797307
4.28087
8.45202
12.0687
9.08401
5.88374
1.72962
-1.07925
-19.4253
-27.9904
-9.62055
7.33949
5.18305
-1.45368
-4.37679
-1.63249
-0.200184
-2.29265
-2.2629
0.912161
3.78003
7.35143
10.7207
7.48266
4.88936
1.37987
-0.949474
-14.1439
-22.0958
-7.88133
5.46635
4.14499
-0.650505
-2.53791
-0.851367
0.491569
-1.6637
-1.65678
0.916195
3.12038
5.96322
8.51036
5.10515
3.51301
0.963718
-0.642049
-7.68026
-13.9309
-4.96187
3.7226
2.95696
-0.3193
-1.72546
-0.823077
0.0864205
-1.03504
-1.3918
0.736837
2.48856
4.74861
6.21916
2.63624
2.09697
0.601893
-0.205156
-2.75118
-6.8406
-2.95744
2.36718
1.99303
-0.102494
-0.891645
-0.308799
0.303061
-0.514294
-1.26924
-0.0842632
0.68201
1.85001
2.28756
0.554478
0.505939
0.12607
-0.218874
-0.88645
-2.21345
-1.38824
0.84307
0.703433
-0.12394
-0.445032
-0.280705
0.0362913
141.317
138.202
136.385
135.669
132.405
129.096
125.229
123.194
119.788
117.635
115.363
113.383
111.747
109.994
108.852
106.912
106.388
104.57
105.75
104.635
99.0465
97.5742
98.2664
99.0639
98.3195
97.9984
96.3778
95.9637
95.0547
94.8463
94.4838
94.3486
94.1338
93.7344
93.5401
92.6448
92.7218
91.5856
92.8546
91.9041
129.154
127.688
129.059
129.364
128.74
128.493
127.705
127
126.298
125.73
125.024
124.61
124.079
123.711
123.625
123.295
123.954
123.301
124.446
123.238
111.17
110.518
112.465
112.682
113.192
112.693
112.807
112.111
111.96
111.607
111.353
111.343
111.225
111.435
111.81
112.137
113.315
113.431
115.186
115.34
118.814
117.938
119.657
119.132
120.299
119.003
119.412
118.489
118.229
117.675
117.192
116.894
116.507
116.326
116.307
116.102
116.756
116.314
117.831
117.769
113.618
113.607
115.062
114.619
116.704
115.029
115.658
115.169
114.824
114.645
114.171
114.019
113.781
113.535
113.69
113.346
113.991
113.607
115.074
115.198
111.547
112.494
113.399
113.22
116.431
114.335
115.029
115.477
114.869
115.352
114.829
114.957
114.831
114.632
114.925
114.597
115.34
115.197
116.788
116.982
100.627
102.827
103.088
103.384
108.125
105.32
105.934
107.906
107.013
108.31
107.978
108.462
108.622
108.73
109.238
109.289
110.299
110.636
112.643
113.229
86.2402
89.2715
88.425
88.8985
95.2966
91.5608
91.8429
95.3187
94.4638
96.2189
96.3572
97.1006
97.7318
98.3084
99.2123
99.9287
101.319
102.425
104.842
106.175
69.862
72.8947
70.0789
70.2188
78.346
72.586
71.5643
76.2057
74.9727
76.1137
76.2079
76.415
76.9443
77.3001
78.0635
78.9048
80.1014
81.6179
83.6518
85.9254
64.159
66.1198
62.1799
61.6512
68.8942
63.6357
61.6777
64.8302
63.9216
63.1562
62.8032
61.638
61.3611
60.4369
60.27
60.018
60.4033
60.9042
62.3292
63.4558
67.6081
67.8744
68.8916
66.2707
72.4761
73.7306
76.3747
73.98
75.6867
73.8407
74.6471
73.2543
73.3908
72.2911
72.139
71.3838
71.4674
71.0953
71.5464
70.8114
68.3097
68.9479
69.8272
67.7315
71.0887
67.668
71.4263
69.8541
71.9308
71.1753
72.6737
72.6827
73.679
73.9994
74.6201
74.7064
74.8841
75.0884
74.8985
75.6969
66.2683
67.2111
68.5669
67.1584
70.2074
67.2946
70.7672
68.484
70.1633
69.3578
70.1462
69.9314
70.203
70.1745
70.0071
69.9903
69.8421
70.0818
70.3837
70.5724
55.1534
56.0081
58.3251
57.1497
60.2026
59.4323
61.8695
62.2357
63.985
65.0529
66.5583
67.9506
69.4078
70.8027
71.6938
71.8148
71.4663
71.7481
72.3147
73.064
40.6496
39.1881
41.3703
38.0527
40.493
38.4028
39.5535
38.9598
39.4472
39.5946
40.0416
40.5263
41.1363
41.853
42.6945
43.7086
44.9251
46.5618
47.89
49.8314
65.0815
60.9741
62.5539
55.6493
55.4224
50.4299
48.1042
44.4458
41.5587
38.5059
35.7627
33.1667
30.8322
28.8133
27.3023
26.6757
26.6338
26.7561
26.814
27.8986
77.2761
70.6094
78.3003
71.0387
72.7753
69.0962
67.5582
64.7183
62.1799
59.3585
56.5625
53.7353
50.9761
48.3586
46.1368
44.9207
44.4878
44.1112
43.4171
42.7285
92.64
70.8068
79.0739
68.1327
65.6366
59.1951
54.527
49.5512
45.3355
41.6527
38.7579
36.7021
35.5887
35.4982
36.6678
39.2901
42.8573
46.8801
50.458
51.6338
776.846
694.484
645.601
589.381
540.453
493.199
449.263
407.749
368.675
331.759
296.839
263.723
232.205
202.214
173.801
146.236
119.642
97.8947
73.3662
36.4244
753.462
670.326
621.007
564.271
514.926
467.285
423.028
381.252
341.988
304.96
270.025
236.996
205.656
175.929
147.878
120.749
95.1598
75.8159
52.9464
15.4413
54.9636
32.5908
40.4545
29.0191
25.9239
18.9236
13.6201
8.02761
3.16308
-1.16688
-4.72653
-7.47103
-9.31802
-10.1894
-10.0041
-8.74303
-6.36233
-3.54304
-1.11978
1.80521
37.9651
32.5152
40.8335
34.4803
36.8853
34.0694
33.2971
31.3372
29.6814
27.7865
25.9156
23.9988
22.0879
20.247
18.5895
17.4998
17.3289
18.8807
20.6214
23.958
60.3876
59.0642
62.3567
57.3703
59.6508
56.8126
57.0502
55.9255
55.6791
55.3449
55.2786
55.2817
55.3708
55.5733
55.8986
56.6133
57.9102
60.3198
62.7784
65.7712
63.1715
63.4344
66.0456
63.9275
67.5558
66.6589
69.2751
70.1606
72.2753
73.9166
75.7733
77.5331
79.2879
80.8957
82.4881
83.7761
84.8401
85.585
86.2383
86.086
71.7961
69.0135
69.6859
66.1004
67.3874
64.1757
65.1762
63.3695
62.6283
60.6513
59.2682
57.2965
53.648
54.8879
54.2724
54.8954
55.1217
55.3315
55.0111
53.9326
-9.80906
-14.6236
-16.569
-22.5323
-25.431
-32.245
-36.5255
-43.4915
-49.8664
-57.1013
-64.8462
-70.501
-79.3475
-32.5567
33.5852
30.2362
28.9879
28.4432
26.3052
30.2578
-16.0707
-15.6746
-13.2301
-14.0376
-10.9642
-11.1669
-8.21668
-7.35985
-4.9528
-2.54774
0.247234
4.32911
9.00192
13.1798
16.889
15.1692
19.6273
25.5511
19.4792
25.7119
34.7013
38.9372
42.2316
43.4829
47.8226
48.9755
52.7316
54.3054
57.3827
59.5428
62.2458
64.3983
66.9673
69.4481
72.3748
74.7575
78.4033
82.4401
82.2221
85.8626
70.9899
75.3125
76.828
78.1144
80.5116
81.5202
83.614
84.7036
86.4529
87.6754
89.2985
90.5713
91.8047
92.7602
93.2792
93.9686
94.6754
95.7424
96.8762
99.118
89.4082
92.6108
92.8445
93.9929
95.0742
95.4913
96.5565
96.8422
97.6138
97.838
98.4648
98.5949
98.892
98.692
98.568
98.1984
98.4177
98.0658
99.3304
99.6941
94.4836
96.1565
95.6633
96.3392
96.2879
96.0136
96.2323
95.631
95.7263
95.0412
95.0215
94.3107
94.1925
93.3709
93.2362
92.422
92.7558
92.1382
93.748
93.4266
91.0467
91.687
91.4805
91.977
91.7096
91.2266
91.2672
90.4525
90.4263
89.5784
89.5553
88.8727
88.9844
88.4705
88.8961
88.5756
89.6148
89.5046
91.6447
91.8593
93.1336
93.5061
94.1878
94.9304
94.9327
94.6797
94.809
94.2717
94.4192
93.9334
94.1475
93.8563
94.2795
94.1768
95.0235
95.1438
96.6013
96.9208
99.1181
99.6606
97.1007
97.5534
98.9021
100.139
100.16
100.264
100.266
100.056
100.188
99.9568
100.237
100.083
100.575
100.491
101.34
101.299
102.586
102.663
104.512
105.015
106.756
106.68
108.06
109.379
108.97
109.125
108.707
108.483
108.277
107.959
107.979
107.669
107.918
107.603
108.144
107.724
108.616
108.116
109.582
109.744
102.602
102.492
103.852
105.41
104.793
105.199
104.644
104.634
104.341
104.188
104.192
104.069
104.356
104.238
104.813
104.594
105.567
105.207
106.78
107.169
118.716
118.043
119.16
120.53
119.651
119.82
118.865
118.635
117.909
117.567
117.174
116.85
116.763
116.468
116.694
116.387
117.136
116.68
118.061
117.901
103.129
103.208
103.981
106.065
105.174
105.697
104.744
104.919
104.345
104.489
104.279
104.384
104.436
104.486
104.831
104.807
105.597
105.34
106.766
106.598
150.428
148.29
146.028
146.655
142.572
140.518
136.91
134.333
130.893
128.372
125.781
123.657
121.881
120.21
119.242
117.801
117.561
115.957
116.718
115.361
)
;

boundaryField
{
    outletWall
    {
        type            fixedValue;
        value           uniform 0;
    }
    fineWalls
    {
        type            zeroGradient;
    }
    fineFrontAndBack
    {
        type            zeroGradient;
    }
    fineplugLeft
    {
        type            cyclicAMI;
        value           nonuniform List<scalar> 
20
(
87.0227
87.2719
84.3989
84.9954
84.8847
86.6809
87.8482
89.6927
91.3872
93.4366
95.7342
97.7691
101.074
113.244
108.728
109.454
112.463
113.855
113.196
111.229
)
;
    }
    fineplugRight
    {
        type            cyclicAMI;
        value           nonuniform List<scalar> 
20
(
94.9184
94.9977
93.1385
94.0392
94.1835
95.6794
96.7041
98.3493
99.9794
101.869
104.084
106.17
109.036
119.852
118.151
118.58
121.349
121.032
120.419
118.124
)
;
    }
    inletOutletLeft
    {
        type            cyclicAMI;
        value           nonuniform List<scalar> 
20
(
87.0227
87.2719
84.3989
84.9954
84.8847
86.6809
87.8482
89.6927
91.3872
93.4366
95.7342
97.7691
101.074
113.244
108.728
109.454
112.463
113.855
113.196
111.229
)
;
    }
    inletLeft
    {
        type            zeroGradient;
    }
    inletWallsLeft
    {
        type            zeroGradient;
    }
    inletFacesLeft
    {
        type            zeroGradient;
    }
    inletOutletRight
    {
        type            cyclicAMI;
        value           nonuniform List<scalar> 
20
(
94.9184
94.9977
93.1385
94.0392
94.1835
95.6794
96.7041
98.3493
99.9794
101.869
104.084
106.17
109.036
119.852
118.151
118.58
121.349
121.032
120.419
118.124
)
;
    }
    inletRight
    {
        type            zeroGradient;
    }
    inletWallsRight
    {
        type            zeroGradient;
    }
    inletFacesRight
    {
        type            zeroGradient;
    }
}


// ************************************************************************* //
