/*--------------------------------*- C++ -*----------------------------------*\
| =========                 |                                                 |
| \\      /  F ield         | OpenFOAM: The Open Source CFD Toolbox           |
|  \\    /   O peration     | Version:  4.1                                   |
|   \\  /    A nd           | Web:      www.OpenFOAM.org                      |
|    \\/     M anipulation  |                                                 |
\*---------------------------------------------------------------------------*/
FoamFile
{
    version     2.0;
    format      ascii;
    class       surfaceScalarField;
    location    "16";
    object      phi;
}
// * * * * * * * * * * * * * * * * * * * * * * * * * * * * * * * * * * * * * //

dimensions      [0 3 -1 0 0 0 0];

internalField   nonuniform List<scalar> 
2360
(
-1829.55
-45.8815
-1783.67
-45.883
-45.8817
1765.32
-1811.2
1765.32
1765.32
1765.32
3666.7
-1901.38
3666.7
3666.7
5986.77
-2320.07
5986.77
5986.78
8881.29
-2894.51
8881.29
8881.28
13325.2
-4443.91
13325.2
13325.2
14668.5
16451.1
17972
19246.4
20501.5
21827.7
17514.6
5554.25
18624.9
19589.4
20418.9
21129.8
21739.6
22258.2
22702.9
23101.3
23537.8
24140.3
25038.7
26173.8
27271
12599
14672
12599
12599
12599
655.453
11943.5
655.453
655.454
655.454
709.535
-54.0801
709.536
709.537
946.067
-236.53
946.068
946.069
946.069
-10838.1
11784.1
-10838.1
-10838.1
-10838.1
-26541.4
15703.3
-25555.2
-24653.3
-23959.4
-23444.8
-22966
-22443.7
-21840
-21153.4
-20380.9
-19529.5
-18596.4
-17583.7
-16484.5
-20798.7
5491.71
-19543.8
-18219.1
-16813.1
-15338
-13617.1
-12533.1
-12533.1
-12533.1
-9193.62
-3339.45
-9193.62
-9193.62
-7302.63
-1890.99
-7302.63
-7302.63
-5785.65
-1516.98
-5785.65
-5785.65
-4651.35
-1134.31
-4651.35
-4651.35
-4651.35
-3822.72
-828.622
-3822.72
-3822.72
-3193.29
-629.429
-6925.48
-6499.51
-7624.68
-9852.62
-6551.33
-7600.92
-4373.85
-6284.63
-2222.07
-3590.23
-1247.02
-38.1408
-1218.09
2528.65
-1191.85
4268.75
-1064.38
6234.28
-805.219
6577.39
-409.569
4910.03
41.4523
3122.32
358.137
3075.68
567.084
3200.86
725.91
2172.44
892.713
1790.18
964.228
511.127
1011.78
2832.44
3054.45
-9121.86
-5109.7
-10565.6
-8408.89
-10021.7
-8144.76
-7752.5
-8553.87
-4454.09
-6888.64
-1813.03
-2679.2
-1192.45
1908.07
-1350.73
4427.03
-1255.31
6138.87
-957.005
6279.08
-424.018
4377.05
163.043
2535.26
431.738
2806.98
536.974
3095.62
680.551
2028.86
898.414
1572.32
1042.06
367.477
1074.2
2800.31
3300.03
-11001.6
-3574.55
-12709.1
-6701.33
-12740.6
-8113.33
-11116.6
-10177.9
-7846.91
-10158.3
-3707.22
-6818.89
-1541.68
-257.462
-1664.92
4550.27
-1677.93
6151.88
-1328.19
5929.34
-611.441
3660.29
267.939
1655.88
588.149
2486.77
513.191
3170.58
552.743
1989.31
853.168
1271.89
1161.46
59.1868
1209.89
2751.87
3375.62
-12909.6
-1971.98
-14529.3
-5081.59
-14605.8
-8036.79
-13535.7
-11248.1
-11047.4
-12646.5
-6874.64
-10991.7
-2763.95
-4368.15
-1768.06
3554.38
-2178.94
6562.76
-1896.8
5647.2
-995.157
2758.65
233.69
427.032
716.648
2003.81
479.431
3407.8
298.289
2170.45
604.405
965.778
1045.59
-381.998
1299.15
2498.31
3157.79
-14108.1
-763.379
-14861.2
-4328.43
-14424.2
-8473.87
-13758.2
-11914
-12526.6
-13878.1
-9704.48
-13813.8
-4993.79
-9078.83
-2113.67
674.255
-2253.95
6703.04
-2269.49
5662.74
-1274.23
1763.39
194.932
-1042.13
766.571
1432.18
388.054
3786.31
6.51693
2551.99
348.291
624.005
1032.15
-1065.85
1377.41
2153.05
2644.21
-13903.7
-362.018
-13233.8
-4998.35
-11992.7
-9714.93
-11518.4
-12388.4
-11499.9
-13896.6
-10698.2
-14615.5
-7635.7
-12141.3
-3728.17
-3233.28
-2521.35
5496.23
-2568.31
5709.7
-1561.83
756.911
-340.478
-2263.48
29.1002
1062.6
-336.532
4151.94
-987.671
3203.13
-654.927
291.26
128.239
-1849.02
1500.53
780.764
805.28
-12142.5
-855.22
-10383.7
-6757.16
-8816.54
-11282.1
-8380.53
-12824.4
-8978.16
-13299
-9743.85
-13849.9
-8855.14
-13030
-5802.24
-6286.17
-3791.66
3485.64
-3380.87
5298.9
-2913.17
289.208
-2723.95
-2452.7
-2291.69
630.343
-2020.16
3880.41
-2117.81
3300.78
-918.833
-907.721
437.294
-3205.15
1258.65
-40.593
7555.64
-9949.75
-1772.22
-8055.4
-8651.51
-6734.04
-12603.4
-6232.35
-13326.1
-6784.71
-12746.6
-8177.07
-12457.5
-8880.44
-12326.6
-7377.61
-7789
-5342.35
1450.38
-4917.35
4873.91
-6193.5
1565.36
-7060.25
-1585.95
-5172.17
-1257.74
-2668.8
1377.04
-1643.61
2275.59
-3414.53
863.194
-7396.86
777.189
-11313.8
3876.33
11945.1
-8187.28
-2576.04
-6746.09
-10092.7
-5776.17
-13573.3
-5294.05
-13808.2
-5687.17
-12353.5
-7142.08
-11002.6
-8765.75
-10703
-8822.61
-7732.14
-7738.95
366.721
-8526.79
5661.75
-11666.2
4704.78
-13480.3
228.107
-11950.7
-2787.3
-9554.65
-1019.02
-9976.87
2697.81
-13349
4235.29
-15993
3421.25
-15712.4
3595.7
8016.87
-6926.16
-3015.75
-6023.11
-10995.8
-5274.63
-14321.8
-4904.44
-14178.4
-5290.98
-11967
-6764.19
-9529.37
-9003.44
-8463.72
-10449.1
-6286.53
-10544.9
462.589
-11650.9
6767.75
-14728.8
7782.67
-17036.3
2535.64
-16990.9
-2832.76
-16096.5
-1913.44
-15940.8
2542.16
-16084.1
4378.59
-14561.9
1899.08
-9635.42
-1330.82
-1855.09
-6088.87
-3083.16
-5606.72
-11477.9
-4971.07
-14957.5
-4694.37
-14455.1
-5084.45
-11576.9
-6592.42
-8021.4
-9300.45
-5755.69
-11737.9
-3849.1
-12686.4
1411.1
-13631.1
7712.43
-15782.8
9934.38
-17247.6
4000.48
-16849.1
-3231.32
-16032.9
-2729.64
-15758.5
2267.8
-15565.3
4185.43
-14511.7
845.466
-10553.4
-5289.1
-12462.6
-5526.1
-2930.08
-5258.27
-11745.7
-4687.6
-15528.1
-4457.1
-14685.6
-4797.61
-11236.4
-6266.65
-6552.36
-9198.48
-2823.87
-12232
-815.612
-13712.7
2891.86
-14266.9
8266.64
-15106.6
10774.1
-15119.5
4013.38
-14590.3
-3760.57
-15369.4
-1950.54
-16076
2974.43
-15807.4
3916.8
-15189.9
227.952
-14457
-6021.94
-14976.1
-5064.06
-2783.5
-4798.02
-12011.8
-4306.59
-16019.6
-4100.67
-14891.5
-4353.28
-10983.8
-5636.47
-5269.17
-8201.58
-258.76
-11056
2038.84
-12873.9
4709.68
-13174.3
8567.1
-12410.8
10010.6
-10195.6
1798.24
-7863.22
-6092.99
-7757.41
-2056.35
-8584.22
3801.24
-7084.24
2416.82
-5372.54
-1483.74
-8128.03
-3266.46
-8432.17
-4697.52
-2899.16
-4232.59
-12476.7
-3863.63
-16388.5
-3679.47
-15075.6
-3793.08
-10870.2
-4767.34
-4294.9
-6520.93
1494.83
-8276.56
3794.47
-9768.26
6201.38
-10312.4
9111.27
-9440.01
9138.14
-7367.93
-273.835
-5253.68
-8207.24
-3236.42
-4073.61
-1794.93
2359.75
-25.0246
646.911
1893.18
-3401.95
1850.32
-3223.59
-1027.61
-4429.26
-3460.75
-3649.42
-13256.5
-3430.96
-16607
-3268.15
-15238.4
-3208.05
-10930.3
-3852.33
-3650.63
-5138.75
2781.25
-5863.35
4519.07
-6169.2
6507.24
-6358.16
9300.23
-5918.75
8698.73
-4147.18
-2045.4
-2648.62
-9705.8
-949.519
-5772.72
1411.48
-1.24987
2872.23
-813.843
2794.43
-3324.15
3207.85
-3637.01
-2263.68
-4068
-4324.29
-3137.05
-14187.5
-3054.21
-16689.8
-2898.01
-15394.7
-2674.53
-11153.8
-2822.21
-3502.95
-3843.17
3802.21
-4288.39
4964.29
-3746.61
5965.46
-2831.6
8385.21
-2195.33
8062.46
-1134.57
-3106.16
-551.236
-10289.1
175.017
-6498.97
1996.72
-1822.96
3033.36
-1850.48
3084.61
-3375.4
2910.8
-3463.2
-2247.39
-3529.84
-5135.38
-2766.22
-14951.1
-2761.47
-16694.6
-2589.87
-15566.2
-2272.24
-11471.4
-1874.83
-3900.35
-2454.52
4381.89
-2962.93
5472.7
-2386.5
5389.03
-697.532
6696.24
952.644
6412.28
1338.19
-3491.7
715.638
-9666.58
789.613
-6572.94
1838.44
-2871.78
2462.8
-2474.84
2405.88
-3318.48
2300.95
-3358.28
-2266.51
-3048.56
-5693.05
-2564.66
-15435
-2555.57
-16703.7
-2360.7
-15761.1
-2004.32
-11827.8
-1262.89
-4641.78
-1315.39
4434.39
-1704.41
5861.72
-1438.7
5123.32
77.5345
5180.01
1989
4500.82
2152.1
-3654.81
1135.19
-8649.67
1098.9
-6536.66
1809.09
-3581.96
2224.27
-2890.02
2175.77
-3269.98
1994.04
-3176.55
-2173.85
-2782.52
-6018.69
-2489.97
-15727.6
-2418.63
-16775
-2214.59
-15965.1
-1862.3
-12180.1
-1003.72
-5500.36
-667.465
4098.14
-782.977
5977.23
-735.584
5075.93
192.804
4251.62
1602.74
3090.88
1785.89
-3837.95
1232.97
-8096.75
1412.9
-6716.59
1880.19
-4049.26
2109.58
-3119.42
2062.06
-3222.46
1937.93
-3052.42
-2047.12
-2650.97
-2455.33
-2332
-2129.5
-1835.67
-1157.22
-600.22
-418.783
-337.153
157.675
944.36
1350.6
1435.67
1625.41
1849.28
2012.59
2058.77
2038.68
252.614
-1595.93
442.659
-1972.62
550.548
-1628.85
634.867
-1358.69
778.157
-1398.4
926.429
-1474.48
913.114
-1227.82
884.94
-1082.13
829.92
-909.487
776.577
-776.168
722.972
-657.305
661.189
-547.995
579.391
-436.788
480.603
-345.947
377.094
-294.889
286.227
-345.618
206.418
-522.684
131.287
-823.263
52.1935
-1056.05
-1044.94
44.3502
-1640.28
-23.0924
-1905.18
-42.2607
-1609.68
-50.7832
-1350.17
-43.0939
-1406.1
-26.9163
-1490.66
-123.934
-1130.81
-162.029
-1044.03
-155.392
-916.126
-91.5687
-839.994
7.18564
-756.062
125.647
-666.459
245.224
-556.367
354.237
-454.963
438.323
-378.977
470.799
-378.096
415.593
-467.478
267.611
-675.281
87.9579
-876.398
-956.984
-38.194
-1602.09
-50.1859
-1893.19
5.33916
-1665.21
24.9106
-1369.74
-19.3062
-1361.88
-40.5495
-1469.42
-77.7718
-1093.58
-66.3606
-1055.45
-9.6462
-972.843
75.6419
-925.285
173.805
-854.227
284.75
-777.407
401.559
-673.179
509.409
-562.815
574.887
-444.457
565.875
-369.086
467.785
-369.39
307.07
-514.567
138.195
-707.524
-818.789
-13.5636
-1588.53
-4.67448
-1902.08
49.0176
-1718.9
76.0277
-1396.76
64.5997
-1350.45
61.021
-1465.84
77.6286
-1110.19
70.8943
-1048.71
77.2234
-979.174
87.3342
-935.397
100.349
-867.244
123.303
-800.362
156.659
-706.537
201.162
-607.319
235.919
-479.216
245.557
-378.726
213.204
-337.037
142.717
-444.081
69.1728
-633.982
-749.617
-28.5064
-1560.03
-18.8047
-1911.79
28.5674
-1766.28
46.8511
-1415.04
53.2085
-1356.81
50.7776
-1463.41
94.965
-1154.38
97.5893
-1051.34
98.3318
-979.919
98.5181
-935.586
95.1999
-863.928
94.081
-799.246
98.6969
-711.155
118.941
-627.566
147.038
-507.315
167.351
-399.04
155.307
-324.995
113.127
-401.903
69.6001
-590.457
-680.016
-24.6893
-1535.34
-3.97694
-1932.5
41.7397
-1812
55.848
-1429.15
67.987
-1368.95
66.6808
-1462.11
103.765
-1191.47
116.854
-1064.43
119.516
-982.582
121.346
-937.417
121.075
-863.658
118.101
-796.273
114.239
-707.293
115.705
-629.033
133.441
-525.052
161.935
-427.534
176.707
-339.767
155.289
-380.485
99.3708
-534.54
-580.646
-13.0413
-1522.3
16.0108
-1961.55
54.6222
-1850.61
69.6461
-1444.18
89.6209
-1388.93
99.5686
-1472.06
131.499
-1223.4
160.544
-1093.48
180.131
-1002.17
193.872
-951.159
205.321
-875.108
209.146
-800.099
209.708
-707.855
204.131
-623.457
209.646
-530.567
228.93
-446.819
248.125
-358.963
222.362
-354.722
133.33
-445.509
-447.315
21.3256
-1543.63
55.6846
-1995.91
85.4469
-1880.37
111.152
-1469.88
144.464
-1422.24
168.385
-1495.98
199.619
-1254.63
245.719
-1139.57
288.795
-1045.24
319.768
-982.131
344.335
-899.675
356.543
-812.306
361.938
-713.249
353.594
-615.112
341.131
-518.104
327.139
-432.826
313.142
-344.966
261.938
-303.518
151.817
-335.388
-295.498
64.6823
-1608.31
87.0996
-2018.33
99.2548
-1892.53
137.996
-1508.63
178.183
-1462.43
203.099
-1520.9
236.967
-1288.5
290.814
-1193.42
346.697
-1101.13
387.852
-1023.29
422.789
-934.614
446.382
-835.901
464.374
-731.242
467.928
-618.667
455.936
-506.113
425.686
-402.577
382.991
-302.271
307.775
-228.302
179.58
-207.192
-115.919
92.2601
-1700.57
91.2929
-2017.37
79.6257
-1880.86
138.339
-1567.34
179.949
-1504.04
182.698
-1523.64
223.081
-1328.89
267.49
-1237.83
316.556
-1150.2
352.005
-1058.74
387.888
-970.496
417.505
-865.518
449.112
-762.848
469.316
-638.872
465.002
-501.798
437.527
-375.103
397.228
-261.971
335.129
-166.203
203.848
-75.9105
87.9296
86.7156
-1787.29
58.2037
-1988.85
11.3143
-1833.97
72.1267
-1628.15
113.011
-1544.92
72.5249
-1483.16
107.279
-1363.64
121.787
-1252.34
142.182
-1170.59
153.877
-1070.43
167.469
-984.088
177.728
-875.778
191.267
-776.387
192.936
-640.54
154.324
-463.186
86.1179
-306.897
7.32171
-183.175
-85.776
-73.105
-119.528
-42.1568
-31.5984
70.68
-1857.97
20.8006
-1938.97
-14.0306
-1799.14
8.53719
-1650.72
34.339
-1570.73
-8.23718
-1440.58
-10.7254
-1361.15
-18.8916
-1244.17
-23.8743
-1165.61
-29.2518
-1065.05
-41.1523
-972.186
-57.4361
-859.493
-81.3066
-752.515
-105.814
-616.031
-140.455
-428.543
-184.885
-262.464
-216.039
-152.019
-222.082
-67.0609
-153.772
-110.463
-185.37
55.3302
-1913.3
6.29794
-1889.94
9.4079
-1802.25
-5.4682
-1635.85
-3.72853
-1572.47
-0.360456
-1443.95
0.279568
-1361.79
8.8088
-1252.7
15.9087
-1172.71
26.2955
-1075.44
32.4409
-978.331
36.4571
-863.509
29.7897
-745.847
32.2026
-618.444
74.6793
-471.018
133.894
-321.677
177.273
-195.397
213.63
-103.416
163.925
-60.7557
-21.4449
36.5241
-1949.82
12.7022
-1866.12
16.6767
-1806.22
6.72831
-1625.89
2.56892
-1568.3
-3.81413
-1437.57
-5.21619
-1360.39
-7.3061
-1250.61
-14.1915
-1165.82
-18.6724
-1070.96
-17.4878
-979.515
-2.40345
-878.592
26.5863
-774.836
66.7727
-658.63
117.535
-521.78
172.142
-376.283
199.553
-222.808
193.163
-97.0246
120.13
12.2815
98.6849
36.993
-1986.81
39.7315
-1868.85
55.3828
-1821.87
67.5305
-1638.04
80.7089
-1581.48
83.0523
-1439.91
83.4508
-1360.78
85.6748
-1252.83
85.3911
-1165.53
86.8024
-1072.37
92.0352
-984.744
109.933
-896.487
141.386
-806.286
184.863
-702.105
228.834
-565.751
258.17
-405.619
278.804
-243.442
272.454
-90.6728
195.901
88.8374
294.585
45.6213
-2032.43
50.8933
-1874.12
73.5025
-1844.48
101.618
-1666.15
128.866
-1608.72
168.538
-1479.58
207.081
-1399.32
253.227
-1298.97
301.509
-1213.81
354.833
-1125.69
411.353
-1041.26
469.763
-954.893
524.535
-861.056
566.09
-743.657
575
-574.659
503.506
-334.122
349.398
-89.3309
213.476
45.2517
104.328
197.989
398.914
-15.1051
-2017.32
-60.2175
-1829.01
-85.0223
-1819.67
-94.5939
-1656.58
-103.963
-1599.35
-96.325
-1487.21
-85.509
-1410.14
-63.439
-1321.04
-34.9853
-1242.26
1.61213
-1162.28
44.5203
-1084.17
91.9927
-1002.36
137.543
-906.604
161.055
-767.167
125.237
-538.837
16.3331
-225.209
-52.2486
-20.7338
-78.1835
71.1969
-113.512
233.323
285.401
-166.703
-1850.62
-353.687
-1642.02
-506.892
-1666.47
-621.717
-1541.75
-726.749
-1494.32
-801.471
-1412.49
-863.708
-1347.9
-906.762
-1277.99
-936.79
-1212.24
-952.68
-1146.39
-955.803
-1081.04
-945.606
-1012.56
-919.69
-932.519
-866.959
-819.897
-761.979
-643.817
-583.265
-403.921
-419.306
-184.691
-299.195
-48.9122
-152.613
86.744
132.788
-209.207
-1641.41
-466.139
-1385.09
-734.99
-1397.62
-964.659
-1312.08
-1186.04
-1272.95
-1376.57
-1221.95
-1545.51
-1178.96
-1688.31
-1135.19
-1807.48
-1093.06
-1902.79
-1051.09
-1974.64
-1009.2
-2020.91
-966.28
-2032.81
-920.623
-1983.72
-868.986
-1821.91
-805.63
-1501.54
-724.288
-1063.2
-623.032
-619.18
-492.931
-223.324
-309.11
-90.5358
-666.411
-1076.5
-1499.12
-1836.2
-2134.15
-2381.1
-2585.05
-2745.25
-2863.31
-2939.39
-2973.59
-2964.87
-2910.49
-2804.47
-2635.1
-2384.39
-2032.42
-1550.35
-884.464
-681.659
1656.65
-1106.94
1400.27
-1544.6
1412.66
-1897.31
1327.7
-2211.37
1289.06
-2475.32
1238.94
-2697.17
1196.85
-2876.28
1154.1
-3014.02
1112.74
-3110.16
1071.14
-3164.38
1029.22
-3176.11
986.733
-3144.22
943.105
-3063.14
893.916
-2915.19
827.055
-2665.06
724.86
-2265.5
575.444
-1677.72
387.222
-901.793
199.066
73.2073
-209.624
1866.27
-458.706
1649.35
-721.66
1675.61
-939.082
1545.12
-1146.62
1496.6
-1318.96
1411.28
-1466.99
1344.88
-1585.45
1272.55
-1677.33
1204.63
-1742.13
1135.93
-1780.84
1067.93
-1793.93
999.82
-1781.01
930.176
-1736.09
848.996
-1643.45
734.416
-1476.32
557.721
-1210.97
310.098
-849.918
26.1631
-445.807
-205.05
-372.6
-112.999
1979.27
-253.559
1789.91
-357.536
1779.58
-415.299
1602.88
-462.362
1543.66
-473.71
1422.63
-467.339
1338.51
-436.018
1241.23
-385.712
1154.31
-318.208
1068.42
-237.291
987.006
-143.331
905.854
-35.1356
821.974
84.372
729.482
199.59
619.191
279.799
477.506
288.181
301.708
215.692
98.6414
87.5047
-76.8739
-285.095
31.6472
1947.62
32.0809
1789.47
51.8373
1759.83
86.7734
1567.94
121.106
1509.32
176.131
1367.6
234.141
1280.49
302.658
1172.71
376.919
1080.05
464.309
981.028
568.453
882.859
690.42
783.884
826.03
686.36
965.284
590.225
1081.1
503.376
1124.54
434.057
1038.51
387.737
793.812
343.336
439.465
277.466
154.37
9.66573
1937.95
0.122718
1799.02
-1.97826
1761.92
-20.3612
1586.33
-40.3566
1529.31
-81.0706
1408.31
-138.823
1338.24
-198.849
1232.73
-254.487
1135.68
-293.049
1019.59
-301.1
890.903
-287.315
770.095
-264.192
663.228
-202.719
528.745
-72.9559
373.598
61.4013
299.684
190.159
258.964
247.076
286.406
185.429
339.099
339.799
-92.4223
2030.38
-208.551
1915.15
-312.054
1865.43
-437.521
1711.8
-559.827
1651.62
-697.343
1545.83
-846.706
1487.61
-1009.07
1395.1
-1179.23
1305.85
-1339.91
1180.27
-1487.11
1038.11
-1595.5
878.485
-1684.19
751.911
-1750.07
594.631
-1884.36
507.874
-1688.83
104.151
-1399.31
-30.5556
-1002.43
-110.484
-516.828
-146.518
-177.03
41.8656
1988.52
-25.7321
1982.75
-38.9221
1878.63
-47.6367
1720.52
-48.6477
1652.64
-40.2397
1537.44
-13.5364
1460.92
23.145
1358.44
59.5379
1269.48
96.9116
1142.92
133.489
1001.55
167.332
844.651
179.113
740.13
121.135
652.609
-107.806
736.785
-300.788
297.078
-428.074
96.6906
-436.977
-101.61
-370.357
-213.165
-547.388
173.926
1814.6
136.811
2019.88
165.285
1850.16
205.725
1680.09
262.307
1596.06
338.311
1461.44
436.3
1362.93
536.216
1258.54
622.324
1183.37
677.748
1087.51
695.06
984.245
682.959
856.766
707.448
715.637
757.895
602.165
896.167
598.509
719.742
473.5
533.125
283.302
294.325
137.18
81.0772
0.0682663
-466.31
183.176
1631.43
177.654
2025.4
204.079
1823.74
249.089
1635.09
310.419
1534.73
381.77
1390.09
461.941
1282.76
550.539
1169.94
638.926
1094.99
713.744
1012.7
765.745
932.242
794.307
828.206
803.906
706.035
854.78
551.293
959.924
493.362
943.67
489.753
816.106
410.863
623.475
329.807
432.578
190.959
-33.7325
112.255
1519.18
128.428
2009.24
149.115
1803.05
176.76
1607.45
210.063
1501.43
241.369
1358.79
270.148
1253.99
306.15
1133.95
345.079
1056.06
384.516
973.265
420.684
896.075
466.53
782.363
514.64
657.925
564.148
501.787
595.689
461.82
605.904
479.539
581.861
434.906
504.7
406.967
324.308
371.348
290.576
27.2739
1491.91
42.6443
1993.87
53.8274
1791.87
58.3636
1602.91
60.701
1499.1
54.0469
1365.45
40.861
1267.17
35.9919
1138.82
36.8668
1055.19
47.3855
962.749
70.3215
873.14
112.213
740.473
157.329
612.81
172.166
486.951
188.725
445.261
246.129
422.135
300.048
380.987
296.022
410.993
194.168
473.202
484.744
-4.60047
1496.51
2.19501
1987.08
8.26327
1785.81
0.804222
1610.37
-9.64765
1509.55
-33.2019
1389.01
-63.1075
1297.08
-91.3642
1167.08
-106.402
1070.23
-107.498
963.849
-91.6422
857.288
-73.4601
722.295
-64.4872
603.84
-81.8941
504.361
-52.4667
415.836
23.2338
346.437
92.229
311.994
119.245
383.978
83.3581
509.091
568.102
26.3933
1470.12
30.7459
1982.73
42.1537
1774.4
40.8659
1611.66
43.655
1506.76
40.4047
1392.26
35.3694
1302.12
19.0602
1183.39
11.5923
1077.7
10.7903
964.653
16.1749
851.905
5.14299
733.329
-21.5285
630.513
-55.8417
538.676
-56.5201
416.516
-37.1225
327.041
-10.6576
285.53
11.566
361.756
6.22637
514.432
574.328
61.881
1408.24
68.1465
1976.47
84.8748
1757.68
93.4331
1603.11
112.353
1487.85
135.389
1369.22
164.355
1273.15
181.216
1166.53
195.329
1063.59
202.466
957.52
202.179
852.194
182.391
753.12
152.317
660.59
122.578
568.417
92.0359
447.061
61.8221
357.256
47.9708
299.383
41.6142
368.114
14.2851
541.764
588.613
63.621
1344.63
73.8661
1966.22
98.315
1733.23
111.154
1590.27
129.845
1469.16
153.241
1345.83
184.514
1241.88
212.232
1138.81
235.726
1040.1
248.479
944.768
250.873
849.803
242.675
761.32
231.472
671.795
216.076
583.815
184.737
478.401
151.68
390.315
130.002
321.061
106.537
391.58
56.5804
591.722
645.194
35.1651
1309.46
42.1719
1959.22
69.8736
1705.53
80.5214
1579.63
93.5902
1456.09
110.415
1329.01
131.848
1220.45
150.082
1120.58
166.774
1023.41
178.868
932.677
186.922
841.75
192.198
756.046
194.198
669.796
188.096
589.919
172.254
494.245
158.921
403.65
143.512
336.471
117.915
417.177
75.9332
633.705
721.127
24.8723
1284.59
37.9953
1946.1
77.0887
1666.44
93.1149
1563.6
110.255
1438.95
129.064
1310.2
151.471
1198.05
165.011
1107.04
171.966
1016.45
174.189
930.455
172.607
843.333
166.723
761.931
155.034
681.487
140.065
604.889
123.876
510.435
107.973
419.553
86.0985
358.347
64.2574
439.019
49.1044
648.859
770.231
-1.07835
1285.67
15.7873
1929.23
78.7488
1603.48
102.202
1540.15
129.56
1411.59
151.684
1288.07
183.778
1165.95
211.737
1079.08
230.381
997.809
236.423
924.414
234.218
845.539
225.333
770.817
217.78
689.04
215.895
606.774
214.41
511.92
196.323
437.641
149.685
404.986
93.4183
495.286
55.6567
686.622
825.888
38.5635
1247.11
30.0761
1937.72
37.0559
1596.5
45.7574
1531.45
41.3173
1416.03
18.011
1311.38
5.46781
1178.5
4.64581
1079.91
15.5347
986.92
33.9682
905.981
59.183
820.324
91.6024
738.398
135.158
645.485
188.342
553.592
241.941
458.321
276.103
403.48
258.545
422.544
171.514
582.319
68.1028
790.034
893.991
163.069
379.88
501.352
626.799
718.102
774.587
775.543
756.312
730.484
703.372
672.309
638.211
597.024
546.957
482.977
407.661
315.586
204.032
92.1248
)
;

boundaryField
{
    outletWall
    {
        type            calculated;
        value           nonuniform List<scalar> 
60
(
-3193.29
-2672.11
-2879.99
-582.642
-1956.99
-2331.26
-3409.8
-3392.36
-3573.34
-5305.68
-6836.55
-6361.75
-4294.99
-2557.58
-936.912
1438.45
4107.15
6527.57
10551.8
7413.98
2836.16
3108.16
3606.23
4340.93
4931.53
4990.85
4813.18
4917.48
5373.02
6156.28
7365.87
8991.11
10866.7
12635.7
13502.4
12899.5
11307
9466.44
7732.05
6011.01
1829.55
-1792.1
-3032.33
-3268.64
-3282.72
-4273.13
-6906.33
-8181.83
-4244.19
2304.19
3756.79
4994.3
5795.79
3541.13
-6178.81
-12473.9
-16167.7
-16898.3
-15923.2
-6203.89
)
;
    }
    fineWalls
    {
        type            calculated;
        value           uniform 0;
    }
    fineFrontAndBack
    {
        type            calculated;
        value           nonuniform List<scalar> 
960
(
-4.06982e-13
-4.14391e-13
4.92854e-13
1.66348e-14
-1.60203e-12
-3.23207e-13
-2.56842e-13
-6.22155e-14
-1.37281e-12
-3.12837e-13
-2.28343e-13
-2.56757e-12
-6.19185e-13
-4.91461e-13
-6.06739e-12
-1.28646e-12
-1.17287e-12
-4.67268e-12
-7.684e-13
-9.6602e-13
-6.3906e-14
-2.71464e-13
-2.95065e-13
-3.27026e-13
-3.34789e-13
-3.45268e-13
-4.22375e-12
-3.66709e-13
-3.73441e-13
-3.8926e-13
-4.11229e-13
-4.54149e-13
-5.20163e-13
-6.10475e-13
-7.18787e-13
-8.05632e-13
-7.94567e-13
-6.9937e-13
-5.61291e-13
-5.844e-13
-1.49599e-11
-2.49154e-12
-2.64744e-12
-2.9249e-12
-9.38884e-12
-2.03937e-12
-5.73486e-12
-3.73092e-12
1.40593e-10
2.35776e-11
1.44035e-11
5.42189e-11
1.12928e-11
1.31157e-11
8.63169e-12
1.19812e-11
6.35419e-13
6.33709e-13
6.28458e-13
7.75466e-12
5.51317e-13
6.18679e-13
7.43565e-13
7.75478e-13
6.944e-13
5.7251e-13
4.88983e-13
4.32443e-13
3.76165e-13
3.29914e-13
2.93593e-13
2.697e-13
2.46818e-13
-4.62938e-12
1.19424e-13
4.60868e-14
2.2034e-14
-7.18566e-14
-1.85485e-13
-6.44056e-13
-3.03196e-12
-3.33961e-12
-1.82137e-11
-2.76327e-12
-3.08971e-12
-1.60563e-11
-1.86749e-12
-2.12657e-12
-1.17096e-11
-1.25965e-12
-1.54645e-12
-8.43198e-12
-5.86371e-13
-7.25848e-13
-7.72642e-13
-5.0374e-12
-2.25383e-13
-3.69085e-13
-2.37267e-12
2.84829e-13
-6.47834e-11
-5.443e-11
-4.075e-11
-2.31526e-11
-9.14794e-12
-1.07172e-11
-2.22083e-11
-2.36387e-11
-2.18729e-11
-2.39073e-11
-2.65272e-11
-3.85233e-11
-5.27483e-11
-5.60468e-11
-5.46008e-11
-5.08647e-11
-4.7962e-11
-4.16895e-11
-3.56918e-11
-5.55543e-11
-4.80962e-11
-4.17705e-11
-3.57991e-11
-2.14982e-11
-4.09113e-12
-1.18186e-11
-2.32295e-11
-1.91201e-11
-2.08658e-11
-2.47262e-11
-3.77783e-11
-5.01629e-11
-5.31844e-11
-5.40333e-11
-5.14615e-11
-4.89241e-11
-4.27269e-11
-3.67144e-11
-4.28093e-11
-3.77023e-11
-3.49125e-11
-3.74211e-11
-3.36999e-11
-1.46863e-11
1.38668e-11
7.4312e-13
-6.58697e-12
-1.11944e-11
-2.2083e-11
-3.31859e-11
-4.45991e-11
-4.98667e-11
-5.37169e-11
-4.96076e-11
-4.51511e-11
-4.21084e-11
-3.81028e-11
-3.3708e-11
-3.00011e-11
-2.63348e-11
-2.80096e-11
-3.15647e-11
-3.26394e-11
-6.79836e-12
4.04148e-11
1.83709e-11
-7.70696e-12
-1.92243e-11
-2.99251e-11
-3.40433e-11
-4.25091e-11
-5.0107e-11
-4.75581e-11
-4.22963e-11
-4.00004e-11
-3.85323e-11
-2.83648e-11
-2.42729e-11
-1.90968e-11
-1.46651e-11
-1.57378e-11
-2.77265e-11
-4.27814e-11
-1.9879e-11
-5.3662e-12
-3.09322e-11
-2.92261e-11
-2.72288e-11
-2.74774e-11
-2.91069e-11
-4.0385e-11
-4.34866e-11
-3.81288e-11
-3.6707e-11
-3.59174e-11
-2.58074e-11
-1.64772e-11
-7.12171e-12
-1.72655e-12
-2.16227e-12
-1.01105e-11
-3.6255e-11
-7.75487e-11
-7.91658e-11
-7.00929e-11
-4.85821e-11
-3.4935e-11
-4.25599e-11
-1.44116e-11
-3.11154e-11
-4.83026e-11
-4.68602e-11
-3.58212e-11
-3.79901e-11
-2.10684e-11
2.06552e-12
1.24991e-11
1.11428e-11
7.91498e-12
3.58312e-12
-1.51473e-11
-5.9981e-11
-1.02467e-10
-8.3571e-11
-5.45746e-11
-4.78932e-11
-4.72412e-11
-3.29124e-11
-4.08443e-11
-4.57902e-11
-3.79157e-11
-4.59462e-11
-4.07339e-11
-7.47767e-12
2.70443e-11
2.33077e-11
1.20473e-11
1.48137e-11
1.73876e-11
2.71326e-12
-3.11088e-11
-7.71411e-11
-7.70981e-11
-4.96906e-11
-3.20654e-11
-3.66393e-11
-4.56253e-11
-4.46329e-11
-3.92627e-11
-2.31298e-11
-1.77642e-11
-8.56064e-12
7.86552e-12
3.65576e-11
1.17453e-11
5.49871e-14
1.60693e-11
3.21607e-11
2.15745e-11
-8.47201e-12
-5.28843e-11
-6.11097e-11
-3.2461e-11
-1.21294e-11
-1.58955e-11
-2.482e-11
-2.87428e-11
-2.00407e-11
-7.817e-12
-1.01916e-13
7.29383e-12
1.743e-11
2.84312e-11
-6.03508e-12
-1.05556e-11
1.37577e-11
4.48202e-11
4.55998e-11
1.50437e-11
-2.36974e-11
-3.7811e-11
-1.50408e-11
4.22259e-12
3.59254e-12
-3.27316e-12
-7.93662e-12
1.04313e-12
1.16219e-11
2.19519e-11
3.89014e-11
2.28332e-11
1.32584e-11
-1.41669e-11
-1.45136e-11
4.09384e-12
4.45242e-11
6.96227e-11
3.4139e-11
6.61438e-12
-5.7761e-12
2.51501e-12
1.27863e-11
1.0067e-11
1.5679e-11
2.34023e-11
1.59736e-11
8.79e-12
9.29105e-12
5.17802e-11
1.50264e-11
2.51311e-13
-1.61998e-11
-1.95652e-11
-1.43219e-11
1.67969e-11
5.74559e-11
4.66233e-11
2.16417e-11
1.25727e-11
7.14723e-12
-2.63039e-12
-1.4512e-11
-1.69309e-11
-1.26159e-11
-1.28461e-11
-2.24755e-11
-2.51776e-11
-2.47962e-11
7.8251e-12
7.27042e-13
-1.38964e-11
-2.36218e-11
-2.75011e-11
-8.78824e-12
4.44605e-11
5.49638e-11
2.99435e-11
1.72113e-11
9.94897e-12
5.65282e-12
5.10435e-12
-4.12287e-12
-1.89907e-11
-1.71747e-11
-6.04625e-12
-3.13291e-12
-1.27466e-11
1.357e-11
6.40885e-12
-1.01462e-11
-2.22597e-11
-2.837e-11
-2.41677e-11
2.22819e-11
5.50133e-11
4.06584e-11
2.17899e-11
8.59399e-12
-4.63083e-13
-1.03599e-11
-4.05314e-12
-7.34781e-12
-1.06581e-11
1.28293e-12
4.6218e-12
6.58239e-12
2.38912e-11
5.21248e-12
-8.35574e-12
-2.00488e-11
-2.48261e-11
-2.68989e-11
-7.79878e-12
2.85671e-11
3.68505e-11
2.49492e-11
5.52718e-12
-1.1837e-11
-1.7353e-11
-8.69506e-12
-9.15607e-13
2.73056e-12
7.95277e-12
2.01593e-12
1.24813e-12
2.58593e-11
-1.97239e-12
-8.65329e-12
-1.81744e-11
-2.15868e-11
-2.44221e-11
-3.20388e-11
-1.21003e-11
8.2828e-12
1.12063e-11
3.09334e-12
-1.11388e-11
-1.16014e-11
-7.90037e-12
-6.20213e-12
-5.82416e-13
-2.97749e-12
-5.11448e-12
-5.48837e-12
1.61393e-11
-9.8666e-12
-9.08317e-12
-1.63504e-11
-1.99437e-11
-1.95748e-11
-3.44627e-11
-4.19505e-11
-2.79684e-11
-1.37437e-11
-6.08181e-12
-8.87464e-12
-1.03728e-11
-5.60446e-12
-3.3087e-12
-3.40317e-12
-3.74927e-12
-3.78654e-12
-3.87152e-12
-4.21568e-13
-1.52325e-11
-7.90865e-12
-1.4496e-11
-1.90043e-11
-1.80227e-11
-2.41774e-11
-4.20568e-11
-3.99003e-11
-2.83842e-11
-1.5943e-11
-1.37937e-11
-9.83743e-12
-3.6478e-12
-1.94195e-12
-1.93474e-12
-2.34648e-12
-2.72638e-12
-3.35096e-12
-1.16823e-11
-1.43733e-11
-6.48072e-12
-1.29313e-11
-1.83231e-11
-1.82655e-11
-1.68201e-11
-2.97681e-11
-3.34368e-11
-2.82684e-11
-1.97048e-11
-1.45347e-11
-5.95514e-12
-1.78081e-12
-1.46797e-12
-1.87773e-12
-2.3257e-12
-2.69177e-12
-3.33628e-12
-1.42049e-11
-1.28717e-11
-5.47839e-12
-1.19951e-11
-1.80106e-11
-1.8517e-11
-1.12027e-11
-1.50905e-11
-2.01667e-11
-2.32753e-11
-1.81734e-11
-1.01388e-11
-2.94682e-12
-1.39165e-12
-1.65383e-12
-2.13232e-12
-2.5379e-12
-2.83159e-12
-3.61134e-12
4.06982e-13
4.14391e-13
-4.92854e-13
-1.66348e-14
1.60203e-12
3.23207e-13
2.56842e-13
6.22155e-14
1.37281e-12
3.12837e-13
2.28343e-13
2.56757e-12
6.19185e-13
4.91461e-13
6.06739e-12
1.28646e-12
1.17287e-12
4.67268e-12
7.684e-13
9.6602e-13
6.3906e-14
2.71464e-13
2.95065e-13
3.27026e-13
3.34789e-13
3.45268e-13
4.22375e-12
3.66709e-13
3.73441e-13
3.8926e-13
4.11229e-13
4.54149e-13
5.20163e-13
6.10475e-13
7.18787e-13
8.05632e-13
7.94567e-13
6.9937e-13
5.61291e-13
5.844e-13
1.49599e-11
2.49154e-12
2.64744e-12
2.9249e-12
9.38884e-12
2.03937e-12
5.73486e-12
3.73092e-12
-1.40593e-10
-2.35776e-11
-1.44035e-11
-5.42189e-11
-1.12928e-11
-1.31157e-11
-8.63169e-12
-1.19812e-11
-6.35419e-13
-6.33709e-13
-6.28458e-13
-7.75466e-12
-5.51317e-13
-6.18679e-13
-7.43565e-13
-7.75478e-13
-6.944e-13
-5.7251e-13
-4.88983e-13
-4.32443e-13
-3.76165e-13
-3.29914e-13
-2.93593e-13
-2.697e-13
-2.46818e-13
4.62938e-12
-1.19424e-13
-4.60868e-14
-2.2034e-14
7.18566e-14
1.85485e-13
6.44056e-13
3.03196e-12
3.33961e-12
1.82137e-11
2.76327e-12
3.08971e-12
1.60563e-11
1.86749e-12
2.12657e-12
1.17096e-11
1.25965e-12
1.54645e-12
8.43198e-12
5.86371e-13
7.25848e-13
7.72642e-13
5.0374e-12
2.25383e-13
3.69085e-13
2.37267e-12
-2.84829e-13
6.47834e-11
5.443e-11
4.075e-11
2.31526e-11
9.14794e-12
1.07172e-11
2.22083e-11
2.36387e-11
2.18729e-11
2.39073e-11
2.65272e-11
3.85233e-11
5.27483e-11
5.60468e-11
5.46008e-11
5.08647e-11
4.7962e-11
4.16895e-11
3.56918e-11
5.55543e-11
4.80962e-11
4.17705e-11
3.57991e-11
2.14982e-11
4.09113e-12
1.18186e-11
2.32295e-11
1.91201e-11
2.08658e-11
2.47262e-11
3.77783e-11
5.01629e-11
5.31844e-11
5.40333e-11
5.14615e-11
4.89241e-11
4.27269e-11
3.67144e-11
4.28093e-11
3.77023e-11
3.49125e-11
3.74211e-11
3.36999e-11
1.46863e-11
-1.38668e-11
-7.4312e-13
6.58697e-12
1.11944e-11
2.2083e-11
3.31859e-11
4.45991e-11
4.98667e-11
5.37169e-11
4.96076e-11
4.51511e-11
4.21084e-11
3.81028e-11
3.3708e-11
3.00011e-11
2.63348e-11
2.80096e-11
3.15647e-11
3.26394e-11
6.79836e-12
-4.04148e-11
-1.83709e-11
7.70696e-12
1.92243e-11
2.99251e-11
3.40433e-11
4.25091e-11
5.0107e-11
4.75581e-11
4.22963e-11
4.00004e-11
3.85323e-11
2.83648e-11
2.42729e-11
1.90968e-11
1.46651e-11
1.57378e-11
2.77265e-11
4.27814e-11
1.9879e-11
5.3662e-12
3.09322e-11
2.92261e-11
2.72288e-11
2.74774e-11
2.91069e-11
4.0385e-11
4.34866e-11
3.81288e-11
3.6707e-11
3.59174e-11
2.58074e-11
1.64772e-11
7.12171e-12
1.72655e-12
2.16227e-12
1.01105e-11
3.6255e-11
7.75487e-11
7.91658e-11
7.00929e-11