/*--------------------------------*- C++ -*----------------------------------*\
| =========                 |                                                 |
| \\      /  F ield         | OpenFOAM: The Open Source CFD Toolbox           |
|  \\    /   O peration     | Version:  4.1                                   |
|   \\  /    A nd           | Web:      www.OpenFOAM.org                      |
|    \\/     M anipulation  |                                                 |
\*---------------------------------------------------------------------------*/
FoamFile
{
    version     2.0;
    format      ascii;
    class       volVectorField;
    location    "16";
    object      U;
}
// * * * * * * * * * * * * * * * * * * * * * * * * * * * * * * * * * * * * * //

dimensions      [0 1 -1 0 0 0 0];

internalField   nonuniform List<vector> 
1280
(
(-2.94115e-16 -0.591836 -1.50865)
(-7.04297e-17 0.00990548 -1.31697)
(3.65125e-16 -0.188203 -0.861296)
(1.20215e-17 0.0600814 -0.899343)
(-2.72281e-16 0.246062 -1.47047)
(-2.33573e-16 0.403089 -1.1294)
(-1.85613e-16 0.619051 -1.14048)
(-4.23862e-17 0.715971 -1.02708)
(-2.33322e-16 1.06796 -1.54545)
(-2.26079e-16 1.14151 -1.16473)
(-1.58117e-16 1.33801 -1.02826)
(-4.74498e-16 1.77879 -1.84452)
(-4.57394e-16 1.83589 -1.4731)
(-3.55166e-16 2.0964 -1.32539)
(-1.15834e-15 2.78154 -2.32166)
(-9.29689e-16 2.60599 -1.89079)
(-8.47605e-16 3.2152 -1.59165)
(-7.94168e-16 2.77179 -3.50619)
(-5.7627e-16 4.81191 -1.53645)
(-6.98118e-16 2.49644 -5.77603)
(-2.62178e-16 4.45679 2.7566)
(-1.1137e-15 4.56161 7.68781)
(-1.21052e-15 4.52419 9.11177)
(-1.34164e-15 4.9619 9.27695)
(-1.3735e-15 4.99519 9.66644)
(-1.41648e-15 5.37514 10.9099)
(-8.90382e-16 3.94274 7.97495)
(-1.50445e-15 8.29472 13.0515)
(-1.53206e-15 8.43484 12.8932)
(-1.59697e-15 8.36608 12.5899)
(-1.68709e-15 8.32916 12.2672)
(-1.86317e-15 8.2467 12.0027)
(-2.134e-15 8.17729 11.7914)
(-2.50451e-15 8.04012 11.6738)
(-2.94887e-15 7.97165 11.6536)
(-3.30516e-15 7.75797 11.9163)
(-3.25976e-15 7.76621 12.625)
(-2.86921e-15 7.50633 13.836)
(-2.30273e-15 7.73967 15.4227)
(-2.39754e-15 7.5008 15.4069)
(-2.60398e-15 10.254 15.0942)
(-2.00123e-15 5.64789 9.8521)
(-2.12645e-15 4.31292 9.50449)
(-2.34629e-15 3.4491 9.37886)
(-1.46829e-15 1.36516 8.47192)
(-1.63805e-15 0.451971 1.96353)
(-4.60631e-15 0.0468251 -1.41771)
(-2.99672e-15 0.722805 -3.0074)
(2.50535e-14 0.813806 -5.57372)
(1.9183e-14 -0.270789 -2.94214)
(1.16508e-14 0.695141 -2.33136)
(9.43758e-15 -0.182771 -4.87575)
(9.07055e-15 -0.401793 -3.90575)
(1.05347e-14 0.542724 -2.62277)
(6.93308e-15 0.223927 -0.0206155)
(2.0855e-15 -0.40651 7.83119)
(5.20368e-16 -2.82252 10.2267)
(5.07919e-16 -3.78179 10.0867)
(5.04786e-16 -5.12049 10.1989)
(1.25263e-15 -9.06055 15.1264)
(2.26181e-15 -7.40127 14.9083)
(2.53817e-15 -7.59423 13.8929)
(3.05052e-15 -7.51022 12.5742)
(3.18145e-15 -7.72964 11.8057)
(2.84882e-15 -7.74344 11.7477)
(2.34876e-15 -7.91708 12.019)
(2.00609e-15 -7.96358 12.4772)
(1.77413e-15 -8.08863 12.9662)
(1.54324e-15 -8.14488 13.4771)
(1.35349e-15 -8.23709 13.9193)
(1.20448e-15 -8.27091 14.3073)
(1.10646e-15 -8.32515 14.5618)
(1.01259e-15 -8.22782 14.6414)
(-9.7589e-16 -4.40193 9.65776)
(4.89946e-16 -4.84127 11.5304)
(1.89074e-16 -4.53287 10.8298)
(9.0396e-17 -4.49909 10.1656)
(-2.94796e-16 -4.06722 8.94143)
(-7.60966e-16 -4.31137 7.59477)
(-2.64228e-15 -4.07686 1.77635)
(-2.19112e-15 -2.89062 -4.48288)
(-2.43549e-15 -4.34144 -1.25931)
(-3.09559e-15 -3.13607 -2.72052)
(-1.99695e-15 -3.23687 -1.17098)
(-2.23285e-15 -2.77693 -1.36556)
(-2.79135e-15 -3.10615 -1.59814)
(-1.34959e-15 -2.49841 -0.876879)
(-1.53682e-15 -2.29223 -0.958146)
(-2.02836e-15 -2.44707 -1.15933)
(-9.10317e-16 -1.98462 -0.562901)
(-1.10686e-15 -1.85055 -0.628905)
(-1.47986e-15 -1.99574 -0.784345)
(-4.36483e-16 -1.54855 -0.376747)
(-5.24551e-16 -1.61891 -0.411009)
(-5.58368e-16 -1.42141 -0.391924)
(-8.56155e-16 -1.61313 -0.460549)
(-1.62878e-16 -1.2615 -0.143685)
(-2.66728e-16 -1.2361 -0.160426)
(-3.95104e-16 -1.31387 -0.168531)
(2.05839e-16 -1.03689 0.0608699)
(-7.19815e-15 2.4619 5.01987)
(-6.04778e-15 3.51744 6.50021)
(-4.52777e-15 2.22953 6.22906)
(-2.57251e-15 1.45767 4.68546)
(-1.01644e-15 0.549303 2.59798)
(-1.1908e-15 -0.298977 1.08648)
(-2.46759e-15 -0.848829 1.01097)
(-2.62653e-15 -1.41374 1.02233)
(-2.43033e-15 -2.10738 0.965385)
(-2.65637e-15 -2.27132 0.803379)
(-2.94747e-15 -1.75513 0.536268)
(-4.28037e-15 -1.17248 0.151255)
(-5.86093e-15 -1.11625 -0.216471)
(-6.22742e-15 -1.12618 -0.386252)
(-6.06675e-15 -0.775472 -0.562314)
(-5.65164e-15 -0.652101 -0.645545)
(-5.32911e-15 -0.190094 -0.845425)
(-4.63216e-15 -0.950254 -0.747343)
(-3.96575e-15 -0.904804 -0.955052)
(-6.1727e-15 1.88901 6.47585)
(-5.34403e-15 3.05232 8.67752)
(-4.64116e-15 2.75961 8.95615)
(-3.97768e-15 2.61051 7.734)
(-2.38869e-15 1.75968 5.19694)
(-4.5457e-16 0.298186 2.2115)
(-1.31318e-15 -0.801018 0.833908)
(-2.58106e-15 -1.45852 1.14374)
(-2.12446e-15 -2.07321 1.11635)
(-2.31842e-15 -2.13262 0.961279)
(-2.74736e-15 -1.53931 0.622968)
(-4.19759e-15 -0.935854 0.0963784)
(-5.57365e-15 -0.960247 -0.353736)
(-5.90938e-15 -1.0312 -0.385467)
(-6.0037e-15 -0.687689 -0.514889)
(-5.71795e-15 -0.553895 -0.616264)
(-5.43601e-15 -0.162623 -0.881722)
(-4.74744e-15 -0.969138 -0.830258)
(-4.07938e-15 -1.12381 -0.980649)
(-4.75659e-15 1.50387 7.93538)
(-4.18915e-15 2.54161 10.3249)
(-3.87917e-15 2.69575 10.9012)
(-4.1579e-15 3.12893 10.3141)
(-3.74443e-15 2.85323 8.21662)
(-1.63181e-15 1.51234 4.86217)
(1.54076e-15 -0.500796 1.30237)
(8.25689e-17 -1.50409 1.29472)
(-7.31886e-16 -2.0178 1.4832)
(-1.24382e-15 -2.04473 1.2946)
(-2.45366e-15 -1.36524 0.899879)
(-3.68732e-15 -0.743189 0.139851)
(-4.95545e-15 -0.904707 -0.561813)
(-5.54075e-15 -1.02859 -0.455293)
(-5.96855e-15 -0.658555 -0.408325)
(-5.51196e-15 -0.479006 -0.506091)
(-5.01679e-15 -0.0551605 -0.923836)
(-4.67871e-15 -0.849953 -0.956411)
(-4.23364e-15 -1.04904 -1.11494)
(-3.74533e-15 0.892169 9.48448)
(-3.33346e-15 1.92867 11.9372)
(-2.92609e-15 2.69996 12.3283)
(-3.11217e-15 3.63805 11.9937)
(-3.50719e-15 3.90312 10.566)
(-3.6266e-15 3.02665 7.85057)
(-7.55373e-16 0.636785 3.57789)
(4.49054e-15 -1.4556 1.09759)
(2.04122e-15 -2.08161 1.82927)
(-8.56329e-16 -1.90305 1.77992)
(-2.13603e-15 -1.07801 1.35185)
(-3.32501e-15 -0.365493 0.339911)
(-3.78259e-15 -0.755946 -0.690788)
(-4.72324e-15 -1.09547 -0.565767)
(-5.56745e-15 -0.676624 -0.242584)
(-5.28423e-15 -0.384471 -0.246765)
(-4.69959e-15 -0.0260162 -0.763702)
(-4.44449e-15 -1.063 -0.907269)
(-4.28137e-15 -1.26409 -1.34521)
(-3.15164e-15 0.417293 10.8135)
(-2.69698e-15 1.46619 12.6056)
(-2.12187e-15 2.67844 12.2146)
(-1.62946e-15 3.88311 11.8032)
(-1.74864e-15 4.53969 11.1246)
(-3.08073e-15 4.29901 9.74818)
(-4.75348e-15 2.32079 6.43122)
(-2.20877e-15 -0.936618 1.91089)
(-5.96244e-16 -2.306 1.6338)
(-3.43691e-15 -1.8642 2.07568)
(-3.24734e-15 -0.757024 1.67257)
(-3.02542e-15 0.0785512 0.502879)
(-3.05304e-15 -0.589601 -0.773516)
(-3.2341e-15 -1.19331 -0.599268)
(-4.48722e-15 -0.785692 -0.0603788)
(-4.83184e-15 -0.237121 0.0487478)
(-4.23653e-15 0.366578 -0.623916)
(-4.07856e-15 -0.435726 -0.976683)
(-3.99082e-15 -0.737951 -1.47281)
(-2.86749e-15 0.0936145 11.3108)
(-1.8308e-15 1.43155 11.7823)
(-7.91301e-16 2.97573 10.3148)
(-1.91839e-16 4.06225 9.651)
(-2.40252e-16 4.71634 9.54501)
(-1.12339e-15 4.90862 9.61157)
(-4.02833e-15 3.7253 8.23212)
(-8.61652e-15 0.439891 4.47997)
(-8.7962e-15 -2.13697 1.82033)
(-7.7881e-15 -1.92788 2.28609)
(-5.39801e-15 -0.420338 1.9538)
(-3.88166e-15 0.628742 0.739027)
(-4.72888e-15 -0.343585 -0.0939061)
(-1.60129e-15 -1.33194 -0.101861)
(-3.45727e-15 -0.941179 0.661404)
(-5.36696e-15 -0.23997 0.974799)
(-5.20669e-15 0.17774 0.144953)
(-3.98013e-15 -1.32324 -0.261007)
(-4.22113e-15 -1.18856 -2.55214)
(-2.34093e-15 0.136608 10.5753)
(2.29502e-16 1.90111 9.61019)
(1.38879e-15 3.49266 7.71625)
(1.23809e-15 4.18797 6.95963)
(8.79442e-16 4.54295 7.00716)
(3.98125e-16 4.83501 7.94658)
(-1.68304e-15 4.36155 8.29928)
(-6.66456e-15 1.72539 6.46397)
(-1.13853e-14 -1.52595 3.30219)
(-9.28567e-15 -1.89199 2.89587)
(-6.06384e-15 -0.104551 2.66334)
(-5.32147e-15 0.924033 2.34885)
(-5.24903e-15 -0.328926 2.2528)
(-3.65693e-15 -1.39993 1.41788)
(-4.53826e-15 -1.14506 1.95525)
(-5.0878e-15 0.154247 1.51489)
(-4.21285e-15 1.41323 0.0876002)
(-5.10513e-15 1.52351 -0.618847)
(-4.52599e-15 0.949135 -1.88015)
(-8.30852e-16 0.42946 9.09029)
(3.00492e-15 2.59571 7.4656)
(2.58974e-15 4.01685 5.95851)
(1.33859e-15 4.35438 5.2542)
(1.64597e-15 4.31885 5.13123)
(1.93196e-15 4.39768 6.16653)
(3.01473e-16 4.32578 7.45824)
(-3.45653e-15 2.49 7.37509)
(-8.57123e-15 -0.793186 5.00692)
(-8.56645e-15 -1.63723 3.76763)
(-5.52117e-15 -0.107966 4.32979)
(-3.56283e-15 0.661554 6.1669)
(-4.07103e-15 -0.110202 5.65059)
(-5.06948e-15 -1.17995 2.84941)
(-4.95922e-15 -0.994176 1.61753)
(-4.36253e-15 0.377841 1.07228)
(-2.56997e-15 0.430625 4.64129)
(-1.9738e-15 -1.69096 7.77962)
(-9.51182e-16 -5.90822 10.8894)
(8.73947e-16 0.756582 7.52321)
(4.06196e-15 3.16967 6.10799)
(1.30503e-15 4.38596 5.11985)
(6.10968e-18 4.52992 4.50253)
(1.78548e-15 4.1776 4.31763)
(3.57341e-15 3.90469 5.14953)
(2.39716e-15 3.89152 6.74223)
(-9.41335e-16 2.72345 7.92034)
(-5.87604e-15 -0.159868 6.85264)
(-6.78997e-15 -1.63064 5.92288)
(-3.60678e-15 -0.945222 8.22951)
(-1.34771e-15 0.366668 11.3348)
(-1.76617e-15 0.96479 11.1549)
(-2.75778e-15 0.300555 8.70568)
(-3.19365e-15 -0.632313 7.19669)
(-2.22675e-15 -1.00326 9.44271)
(-8.68555e-16 -0.909164 12.898)
(-1.1324e-17 -1.29107 13.6708)
(8.10426e-16 -2.72551 12.4009)
(1.93667e-15 0.966171 6.17203)
(3.15902e-15 3.55394 5.35633)
(-6.70565e-16 4.66154 4.66162)
(-1.17285e-15 4.67364 4.12818)
(1.52863e-15 4.05524 4.04161)
(4.98002e-15 3.42484 4.76369)
(4.91902e-15 3.23531 6.49534)
(1.67153e-15 2.42002 8.56403)
(-2.63304e-15 -0.0807788 8.89523)
(-4.20122e-15 -2.09461 8.59603)
(-1.6712e-15 -2.1597 10.7949)
(5.33287e-16 -0.548391 13.8428)
(3.99172e-16 0.803096 14.5309)
(-3.63685e-16 0.309614 13.7393)
(-9.14417e-16 -1.09005 13.0988)
(1.15904e-16 -1.71421 13.5075)
(1.29133e-15 -1.34534 13.3967)
(2.4391e-15 -1.1892 10.5352)
(4.32237e-15 -2.14595 5.72152)
(2.53702e-15 1.04403 5.17012)
(1.47315e-15 3.77221 4.95535)
(-1.5741e-15 4.88642 4.3696)
(-1.61263e-15 4.77731 3.91485)
(4.54871e-16 3.9202 3.90385)
(4.94713e-15 2.92226 4.55532)
(7.88441e-15 2.39588 6.42081)
(3.79322e-15 1.7493 9.12365)
(7.34931e-16 -0.25253 10.467)
(-6.41789e-16 -2.41855 10.6139)
(2.79445e-16 -3.00938 12.1123)
(1.4207e-15 -1.09405 14.2812)
(1.11856e-15 1.13441 14.4097)
(1.74211e-15 0.989196 13.6109)
(2.60026e-15 -0.660978 13.1243)
(1.77484e-15 -1.29538 13.2182)
(9.76667e-16 -0.100024 12.8132)
(1.03234e-15 1.92496 10.9943)
(5.75335e-15 3.5362 6.87822)
(1.66959e-15 1.01417 4.52637)
(2.79235e-17 3.87939 4.64985)
(-1.79998e-15 5.08616 4.09724)
(-2.17391e-15 4.85895 3.71411)
(-1.59132e-15 3.79656 3.70767)
(1.86632e-15 2.42052 4.27031)
(6.38399e-15 1.42695 6.17278)
(5.18037e-15 0.783937 9.18719)
(2.40463e-15 -0.713031 11.2151)
(1.39697e-15 -2.72474 11.5838)
(7.94136e-16 -3.58853 12.2457)
(-2.92265e-16 -1.52227 13.0336)
(-1.61245e-15 1.01218 12.0605)
(-1.88121e-15 0.793571 12.1655)
(-1.40177e-15 -0.844339 13.4926)
(-1.42734e-15 -1.42035 13.3884)
(-2.49727e-15 -0.170104 13.041)
(-2.79751e-15 2.06309 12.1346)
(-2.75513e-15 4.22285 11.86)
(8.69456e-16 0.941773 4.15536)
(8.07825e-17 3.95112 4.23957)
(-1.54404e-15 5.2662 3.74398)
(-2.62464e-15 4.9295 3.43133)
(-3.05567e-15 3.69112 3.39342)
(-9.76471e-16 1.94859 3.83766)
(4.94006e-15 0.461817 5.571)
(6.10709e-15 -0.243092 8.12008)
(3.32706e-15 -1.22425 10.3128)
(1.91237e-15 -2.79347 11.085)
(1.10544e-15 -3.56905 10.9686)
(6.28092e-16 -1.13977 9.82373)
(5.6715e-16 1.51751 7.02011)
(-4.58096e-16 0.479864 5.91028)
(-2.11007e-15 -1.1308 7.139)
(-1.9083e-15 -1.09769 7.31904)
(-6.71805e-16 0.002202 4.55923)
(-3.48101e-16 1.88944 4.11592)
(-1.41629e-15 6.32154 9.29379)
(1.50777e-15 0.916841 4.07132)
(7.12094e-16 4.05497 3.70713)
(-1.12735e-15 5.41347 3.33753)
(-2.4733e-15 4.9956 3.09919)
(-3.15222e-15 3.62523 3.02088)
(-2.6853e-15 1.56373 3.26478)
(2.47577e-15 -0.280855 4.71059)
(6.11259e-15 -1.08917 6.18138)
(4.51759e-15 -1.89392 7.61756)
(2.4211e-15 -2.91351 8.6)
(9.54888e-16 -3.11832 8.70333)
(-5.14536e-17 -0.117531 7.15185)
(-1.1511e-15 2.47347 4.91684)
(-4.50349e-16 0.921414 3.61403)
(-8.16424e-16 -1.3223 1.99497)
(-1.18424e-15 -0.58503 1.1496)
(1.42548e-16 0.980548 -1.05415)
(5.13533e-16 0.39542 -2.3435)
(7.31377e-16 -0.804018 -0.390505)
(2.65458e-15 1.01454 4.21116)
(5.79164e-16 4.26288 3.12738)
(-9.28415e-16 5.51186 2.94585)
(-2.22764e-15 5.05409 2.77129)
(-2.75846e-15 3.61841 2.66462)
(-2.98877e-15 1.28269 2.62681)
(-8.66531e-16 -0.741466 3.84286)
(3.17412e-15 -1.4428 4.74047)
(4.0945e-15 -2.22145 5.04471)
(2.77213e-15 -3.14499 5.16837)
(6.14131e-16 -2.94848 5.55112)
(-1.31522e-15 0.380837 4.47229)
(-1.92811e-15 3.02585 2.16725)
(-9.66118e-16 1.77287 2.00054)
(-1.01734e-16 -0.380288 -0.19948)
(3.03395e-16 0.0681893 -1.96895)
(8.83641e-16 1.16597 -2.81296)
(2.23992e-16 1.52107 -1.98279)
(1.38681e-16 1.25043 -3.5829)
(2.87325e-15 1.29335 4.14991)
(-2.19154e-16 4.57712 2.59835)
(-9.61476e-16 5.55933 2.61946)
(-2.01938e-15 5.10569 2.47211)
(-2.39853e-15 3.67138 2.35074)
(-2.71357e-15 1.13801 2.0316)
(-3.55986e-15 -1.11089 2.74939)
(-1.34448e-15 -1.57628 3.65805)
(9.20311e-16 -2.1153 3.51007)
(1.24515e-15 -3.05532 2.6633)
(3.43704e-16 -2.86292 2.16968)
(-1.23765e-15 1.0045 1.67294)
(-1.28904e-15 3.49428 -0.0666229)
(-8.77819e-16 2.11421 0.746886)
(-6.89126e-16 0.382355 -0.85053)
(-6.47129e-17 0.478617 -2.29292)
(-3.30833e-16 1.05596 -2.77355)
(-5.68276e-16 0.993122 -2.4482)
(-6.09819e-16 0.426307 -2.45619)
(1.79325e-15 1.5885 3.64648)
(-1.09629e-15 4.88311 2.21569)
(-1.00924e-15 5.56878 2.38351)
(-1.81671e-15 5.1613 2.22187)
(-2.21597e-15 3.7725 2.09006)
(-2.17498e-15 1.20106 1.61455)
(-3.82919e-15 -1.41545 1.60696)
(-4.66117e-15 -1.73637 2.46998)
(-3.1076e-15 -1.87256 2.4906)
(-1.52708e-15 -2.54474 1.42245)
(-6.75756e-16 -2.53652 -0.171061)
(-9.86071e-16 1.0267 -1.26618)
(-1.15254e-15 3.3525 -1.18183)
(-6.22718e-16 2.22666 -0.174687)
(-3.67634e-16 0.845139 -1.00343)
(-3.7813e-16 0.751358 -1.93937)
(-4.16586e-16 1.17739 -2.17493)
(-4.20727e-16 1.26478 -1.88811)
(-4.30169e-16 0.972255 -1.98733)
(-4.68409e-17 1.83319 3.02517)
(-1.6925e-15 5.07968 2.0423)
(-8.78739e-16 5.5612 2.22293)
(-1.61066e-15 5.21973 2.0394)
(-2.11159e-15 3.88443 1.89054)
(-2.00252e-15 1.4209 1.37519)
(-2.68638e-15 -1.47965 0.837125)
(-4.67297e-15 -1.90364 1.3212)
(-4.43337e-15 -1.71846 1.54265)
(-3.1538e-15 -1.92239 0.810986)
(-1.77144e-15 -1.78312 -0.895812)
(-1.53263e-15 1.22856 -2.31457)
(-1.09305e-15 3.06727 -1.40236)
(-4.05311e-16 2.16629 -0.592294)
(-2.15772e-16 1.07988 -1.15662)
(-2.14971e-16 0.907645 -1.78274)
(-2.6072e-16 1.06568 -1.92764)
(-3.02931e-16 1.01254 -1.7332)
(-3.72328e-16 0.602282 -1.60708)
(-1.29804e-15 1.96135 2.60076)
(-1.59704e-15 5.21268 2.03302)
(-7.20081e-16 5.5708 2.10773)
(-1.43681e-15 5.2751 1.92609)
(-2.0359e-15 3.97363 1.75775)
(-2.02949e-15 1.63705 1.28786)
(-1.8689e-15 -1.44755 0.502699)
(-3.30757e-15 -2.0085 0.549475)
(-3.7152e-15 -1.70249 0.778085)
(-3.14093e-15 -1.54506 0.426076)
(-2.18943e-15 -1.25253 -0.741419)
(-1.61496e-15 1.1832 -1.86035)
(-6.61683e-16 2.71842 -1.17397)
(-1.97867e-16 2.17686 -0.952657)
(-1.63108e-16 1.28128 -1.35648)
(-2.08636e-16 1.00957 -1.7294)
(-2.58411e-16 1.09925 -1.78988)
(-2.99086e-16 1.07451 -1.66821)
(-3.70698e-16 0.804124 -1.56518)
(-1.57832e-15 2.05993 2.36546)
(-1.43019e-15 5.29187 2.05567)
(-6.0871e-16 5.62654 2.0301)
(-1.33279e-15 5.38707 1.85879)
(-2.00118e-15 4.16795 1.68612)
(-2.05745e-15 2.07747 1.35981)
(-1.24474e-15 -1.23556 0.627729)
(-1.67672e-15 -1.9481 0.327504)
(-2.24075e-15 -1.67362 0.378776)
(-2.58614e-15 -1.26801 0.178147)
(-2.01927e-15 -0.76684 -0.44383)
(-1.12654e-15 1.41563 -1.10388)
(-3.27424e-16 2.7123 -1.15919)
(-1.54627e-16 2.30649 -1.25782)
(-1.83759e-16 1.42572 -1.44018)
(-2.36924e-16 1.08398 -1.62872)
(-2.81989e-16 1.07548 -1.72649)
(-3.14621e-16 0.99482 -1.70927)
(-4.0126e-16 0.589818 -1.6912)
(3.58977e-17 14.5394 24.7147)
(-3.31503e-15 19.1547 32.0834)
(-3.01943e-15 16.6227 26.7526)
(-3.26201e-15 13.8202 21.983)
(-3.15958e-15 13.8245 21.5472)
(-3.10041e-15 14.8337 22.6443)
(-2.54663e-15 13.6993 20.3606)
(-2.49383e-15 12.153 17.9893)
(-2.73317e-15 10.5484 15.221)
(-3.14263e-15 8.92138 12.697)
(-3.6604e-15 7.57662 10.4893)
(-4.47334e-15 6.34613 8.60481)
(-5.57545e-15 5.26168 6.89685)
(-6.95934e-15 4.2027 5.50019)
(-8.39023e-15 3.58295 4.60436)
(-8.92727e-15 3.58027 5.26893)
(-7.35561e-15 5.44913 8.28266)
(-4.37056e-15 7.97207 13.683)
(-2.05488e-15 10.8873 17.8317)
(-2.53484e-15 9.34362 17.0207)
(-1.58581e-17 14.5483 24.969)
(-3.88579e-15 16.7141 28.9796)
(-2.88202e-15 13.7091 23.7242)
(-3.58984e-15 11.51 20.1312)
(-3.32256e-15 12.4226 21.6934)
(-3.54607e-15 13.1927 22.8805)
(-2.68785e-15 10.0368 17.547)
(-3.14297e-15 8.56718 15.4594)
(-3.58061e-15 7.17514 12.925)
(-4.12769e-15 6.25308 11.3591)
(-4.7594e-15 5.67615 9.92327)
(-5.62903e-15 4.98097 8.45332)
(-6.70642e-15 4.30902 6.74415)
(-7.91889e-15 3.65509 5.34922)
(-8.85257e-15 3.57709 4.67695)
(-8.4411e-15 4.06774 5.57162)
(-6.76415e-15 5.70581 8.00183)
(-4.65904e-15 7.35758 11.8467)
(-3.457e-15 9.27232 14.8935)
(-3.64759e-15 8.55462 15.5092)
(-9.86882e-19 14.324 25.1106)
(-1.81976e-15 16.8919 29.3605)
(-1.39633e-15 14.7275 25.513)
(-1.74858e-15 12.2722 21.166)
(-1.57999e-15 12.4092 21.4055)
(-2.59346e-15 13.113 22.8581)
(-1.6121e-15 9.82623 17.1196)
(-1.78009e-15 9.31495 16.5304)
(-1.96605e-15 8.71126 15.1153)
(-2.16828e-15 8.27433 14.3265)
(-2.28064e-15 7.91742 13.1713)
(-2.47921e-15 7.26856 11.881)
(-2.76057e-15 6.634 10.2044)
(-3.08247e-15 5.7747 8.4825)
(-3.60267e-15 5.12151 6.82021)
(-4.16765e-15 4.51238 5.90166)
(-4.19557e-15 4.80633 6.22225)
(-3.60691e-15 5.67237 8.76635)
(-2.66727e-15 7.58269 11.8678)
(-2.28564e-15 7.58017 13.5887)
(1.20752e-17 13.8928 24.4339)
(4.0104e-16 16.8891 29.0742)
(2.85831e-16 14.9927 25.9125)
(3.21663e-16 12.3487 21.1469)
(2.85915e-16 12.1201 20.6131)
(-2.05601e-15 12.9973 22.443)
(-2.01027e-15 9.84446 16.6172)
(-1.91738e-15 9.32229 16.0393)
(-2.32692e-15 8.87011 14.9236)
(-2.5294e-15 8.30004 14.2567)
(-2.56288e-15 7.93386 13.2286)
(-2.78628e-15 7.14626 12.1553)
(-3.33949e-15 6.50555 10.6236)
(-3.61087e-15 5.43634 8.94682)
(-4.53563e-15 4.57008 6.96501)
(-5.23797e-15 3.59705 5.562)
(-4.927e-15 3.67281 5.25028)
(-4.09343e-15 4.30832 7.1752)
(-3.0845e-15 6.28756 10.0369)
(-2.73533e-15 6.59742 11.8296)
(-4.02129e-18 13.644 24.3104)
(-8.042e-17 17.1598 29.3553)
(-5.90055e-17 15.4034 26.8779)
(-6.41773e-17 12.6979 21.7395)
(-5.80316e-17 12.2266 20.8736)
(3.72279e-16 13.0363 22.6118)
(3.58186e-16 10.3996 17.4969)
(3.8637e-16 9.4151 16.1821)
(4.2458e-16 9.1038 15.1542)
(4.71898e-16 8.40699 14.4721)
(4.9305e-16 8.09653 13.4022)
(5.47956e-16 7.21388 12.4186)
(6.09985e-16 6.73046 11.0649)
(6.66357e-16 5.66169 9.69124)
(7.62195e-16 4.89296 7.73401)
(8.6702e-16 3.63973 6.04787)
(9.02301e-16 3.49931 5.07963)
(8.22882e-16 3.72369 6.45086)
(4.98696e-16 5.98633 9.42543)
(4.5499e-16 6.14694 11.1628)
(1.02886e-18 13.2522 23.7488)
(1.68345e-17 17.3953 29.5103)
(1.25798e-17 15.6486 27.5123)
(1.36624e-17 12.9001 21.8459)
(1.19398e-17 12.2392 20.9096)
(-7.45403e-17 12.9371 22.44)
(-6.88096e-17 10.7934 18.0444)
(-7.51977e-17 9.38894 16.1886)
(-8.22239e-17 9.11749 15.0203)
(-9.23734e-17 8.34019 14.3397)
(-9.87397e-17 8.05526 13.2052)
(-1.08379e-16 7.12184 12.1986)
(-1.20142e-16 6.66725 10.8409)
(-1.32787e-16 5.62092 9.64171)
(-1.50125e-16 4.99924 7.89735)
(-1.77584e-16 3.683 6.25081)
(-2.09717e-16 3.4738 4.94004)
(-2.03957e-16 3.46091 5.93498)
(-9.93556e-17 5.73281 8.76786)
(-1.29613e-16 5.3731 9.80751)
(-2.53201e-19 13.0349 23.4518)
(-3.69238e-18 17.8017 29.9221)
(-2.71067e-18 15.8958 28.2088)
(-2.99771e-18 13.2253 22.0867)
(-2.4894e-18 12.3839 21.1784)
(1.533e-17 12.9912 22.5242)
(1.37694e-17 11.2444 18.5973)
(1.46927e-17 9.60935 16.5457)
(1.6343e-17 9.34352 15.1948)
(1.83039e-17 8.57092 14.4836)
(1.99092e-17 8.25932 13.3472)
(2.19315e-17 7.39533 12.2796)
(2.48911e-17 6.83687 10.8997)
(2.85256e-17 5.89324 9.69156)
(3.30009e-17 5.31185 8.23728)
(3.94633e-17 4.2336 6.88406)
(4.93678e-17 3.87887 5.49462)
(5.57454e-17 3.55971 5.75138)
(3.06741e-17 5.15671 7.65256)
(2.71563e-17 4.40231 8.00607)
(5.64792e-20 13.0342 23.4085)
(8.2446e-19 18.3146 30.4465)
(5.90456e-19 16.0699 28.747)
(6.57177e-19 13.6339 22.3666)
(5.55541e-19 12.6705 21.5709)
(-3.05999e-18 13.1795 22.7777)
(-2.83963e-18 11.7316 19.0529)
(-2.93872e-18 10.0391 17.1056)
(-3.31833e-18 9.79129 15.6476)
(-3.71563e-18 9.02822 14.7889)
(-4.09741e-18 8.6023 13.586)
(-4.60229e-18 7.79001 12.3456)
(-5.36739e-18 7.06027 10.8874)
(-6.4067e-18 6.16193 9.4983)
(-7.555e-18 5.44189 8.09456)
(-8.81358e-18 4.54345 6.8706)
(-1.08704e-17 3.98545 5.55671)
(-1.43567e-17 3.41413 5.16992)
(-1.11551e-17 4.21426 6.06316)
(-6.23998e-18 3.23271 5.77165)
(-1.18862e-20 13.4647 24.0924)
(-1.82896e-19 18.8388 30.9682)
(-1.30649e-19 16.0836 29.112)
(-1.41668e-19 14.1524 22.8625)
(-1.28243e-19 13.0667 22.1916)
(6.03135e-19 13.4092 23.2482)
(6.11134e-19 12.1814 19.5479)
(6.15474e-19 10.5941 17.9554)
(6.9618e-19 10.3576 16.5091)
(7.83578e-19 9.57261 15.424)
(8.70288e-19 8.98718 14.0878)
(9.92187e-19 8.16845 12.6384)
(1.17835e-18 7.30635 11.0473)
(1.44051e-18 6.37026 9.41525)
(1.69263e-18 5.48338 7.83304)
(1.96463e-18 4.56729 6.43158)
(2.42273e-18 3.78845 5.04026)
(3.36635e-18 3.0164 4.14808)
(3.93197e-18 3.12623 4.22416)
(2.66539e-18 1.98325 3.23632)
(2.38934e-21 14.2705 25.4365)
(4.02988e-20 19.0947 31.1661)
(2.92412e-20 15.8612 29.1611)
(3.0749e-20 14.7358 23.6084)
(3.17885e-20 13.4329 22.8431)
(-1.18863e-19 13.5535 23.5867)
(-1.33696e-19 12.4494 20.1275)
(-1.37392e-19 11.1246 18.7882)
(-1.53366e-19 10.7156 17.4003)
(-1.71548e-19 9.977 16.0935)
(-1.88476e-19 9.20097 14.7034)
(-2.14783e-19 8.42094 13.116)
(-2.5811e-19 7.47676 11.4864)
(-3.16807e-19 6.5212 9.65333)
(-3.74647e-19 5.43139 7.77129)
(-4.49017e-19 4.37104 5.9854)
(-5.22451e-19 3.31684 4.29104)
(-6.09822e-19 2.42565 2.90872)
(-8.45101e-19 1.86775 2.19718)
(-1.0926e-18 0.671895 0.426649)
(-4.88021e-22 15.1014 26.8766)
(-8.86402e-21 18.8874 30.8988)
(-6.62924e-21 15.5045 28.7215)
(-6.0587e-21 15.1786 24.6229)
(-5.8275e-21 13.5598 23.4421)
(2.42427e-20 13.4625 23.3212)
(2.84385e-20 12.3105 20.7885)
(3.06714e-20 11.472 19.3172)
(3.49646e-20 10.5164 18.0099)
(4.0479e-20 9.99671 16.5084)
(4.69029e-20 8.96079 15.1884)
(5.5642e-20 8.28362 13.5515)
(6.27868e-20 7.23966 12.0258)
(5.88518e-20 6.25189 10.0471)
(4.02715e-20 4.79815 7.71227)
(3.0717e-20 3.4975 5.60134)
(6.88192e-20 2.29681 3.81734)
(1.65589e-19 1.22499 2.26428)
(1.442e-19 -0.101777 0.229807)
(-7.19624e-19 -1.80348 -2.84832)
(1.03363e-22 15.6289 28.0769)
(1.96138e-21 18.3591 30.2717)
(1.47234e-21 15.3537 27.6407)
(1.59444e-21 15.1258 25.4492)
(2.26114e-21 13.5219 24.0258)
(-5.82293e-21 13.325 22.194)
(-7.1382e-21 11.7177 21.1041)
(-8.81333e-21 11.4332 19.1754)
(-9.63348e-21 10.0248 17.9532)
(-9.88384e-21 9.65717 16.3713)
(-9.38323e-21 8.42702 15.0256)
(-9.61785e-21 7.75206 13.3275)
(-1.47273e-20 6.57454 11.7918)
(-4.04445e-20 5.42863 9.59132)
(-1.1454e-19 3.45748 6.46835)
(-1.96686e-19 1.86833 3.76877)
(-1.33568e-19 0.610337 1.73586)
(2.93095e-20 -0.578724 -0.110409)
(-1.81401e-19 0.251737 0.930962)
(-7.34447e-19 1.56188 3.49806)
(-2.14699e-23 15.8196 29.0866)
(-4.3723e-22 18.2015 29.3773)
(-3.38537e-22 14.9373 27.7236)
(-3.95682e-22 15.4714 25.319)
(-4.91191e-22 13.4412 24.2814)
(1.47604e-21 13.2032 22.1326)
(2.10984e-21 11.7016 20.796)
(2.53816e-21 11.3062 19.1195)
(2.82692e-21 10.1949 17.9275)
(2.81205e-21 9.6654 16.4134)
(3.15772e-21 8.57627 14.9023)
(4.28616e-21 7.72591 13.1307)
(5.24073e-21 6.60174 11.3738)
(5.39882e-22 5.49203 9.3714)
(-2.96851e-20 3.95244 6.72235)
(-9.40246e-20 2.69936 4.30133)
(-1.76846e-19 2.00789 2.92138)
(-2.95089e-19 1.65432 2.15615)
(-3.85805e-19 1.80316 2.4638)
(-1.26774e-18 1.63563 2.14092)
(4.54149e-24 15.9058 29.7628)
(9.37561e-23 18.0928 28.7509)
(6.33514e-23 14.7125 27.7023)
(9.21222e-23 15.559 24.9846)
(2.25101e-22 13.1675 24.0714)
(2.4995e-23 13.3784 22.2789)
(1.82553e-23 11.8078 21.092)
(2.05904e-22 11.4876 19.4125)
(-4.29976e-23 10.2848 18.14)
(-8.2147e-22 9.70113 16.6654)
(-1.48252e-21 8.68197 15.1923)
(-1.10162e-21 7.76955 13.4358)
(8.95883e-22 6.68881 11.5778)
(5.45463e-21 5.69235 9.66695)
(1.13895e-20 4.65758 7.79006)
(-2.72851e-21 3.57257 5.63281)
(-6.39898e-20 2.17712 3.15225)
(-1.24632e-19 1.07571 1.09256)
(-1.54966e-19 0.067188 -0.474389)
(-4.54222e-19 -0.462729 -1.10058)
(-9.60741e-25 15.8902 30.2649)
(-2.36677e-23 18.3304 28.6993)
(-2.16617e-23 14.7351 27.9001)
(-1.0877e-23 15.8182 25.0597)
(5.24937e-23 13.2646 24.1955)
(3.04119e-22 13.4393 21.9269)
(5.55337e-22 11.8075 20.7351)
(6.23773e-22 11.3758 19.0261)
(5.35492e-22 10.3001 17.6804)
(4.22766e-22 9.60682 16.2172)
(4.54722e-22 8.7554 14.854)
(7.23482e-22 8.01253 13.483)
(1.13001e-21 7.26447 12.1186)
(2.09755e-21 6.40382 10.4587)
(5.4364e-21 5.11761 8.16721)
(9.10469e-21 3.9079 5.86949)
(-2.2962e-20 2.59011 3.61386)
(-5.36311e-20 1.60872 1.6951)
(-6.56241e-20 0.169007 -0.565082)
(-2.38458e-19 -1.07272 -2.90344)
(8.07782e-26 15.9266 30.9996)
(2.89587e-24 18.7267 28.9524)
(1.52574e-24 14.8894 28.3142)
(2.22208e-23 16.0957 25.5168)
(8.64425e-23 13.6931 24.6405)
(1.57656e-22 13.7927 22.5744)
(2.04204e-22 12.4592 21.329)
(1.91849e-22 11.9726 19.7316)
(1.11156e-22 11.1322 18.3921)
(6.66621e-24 10.4982 17.0058)
(-5.53057e-23 9.82557 15.6893)
(-3.43926e-23 9.18246 14.3643)
(-8.99364e-23 8.49713 12.9753)
(-1.34929e-21 7.68919 11.4013)
(-6.86837e-21 6.61544 9.43239)
(-2.24553e-20 5.07049 6.801)
(-2.70964e-20 3.24261 4.12099)
(-2.07939e-20 1.52648 1.47134)
(-2.72482e-20 -0.80093 -1.40851)
(-1.78192e-19 -2.26455 -5.50424)
(-1.23119e-25 15.6302 31.3666)
(-2.25339e-24 18.5873 28.531)
(-4.93483e-25 14.4924 28.2781)
(1.7811e-23 15.7362 25.5897)
(6.52938e-23 13.3951 24.7211)
(1.26998e-22 13.3549 22.8267)
(1.34813e-22 12.1103 21.6254)
(4.598e-23 11.5813 20.157)
(-8.55846e-23 10.7663 18.9012)
(-1.03522e-22 10.1434 17.6044)
(1.9192e-22 9.47194 16.3516)
(8.68405e-22 8.81862 15.0483)
(8.29633e-22 8.0613 13.5805)
(-5.31649e-21 6.9826 11.5796)
(-3.01025e-20 5.14037 8.41928)
(-8.24611e-20 2.39951 3.87984)
(-1.05206e-19 -0.109411 0.283367)
(-2.84635e-20 -0.806882 -1.16526)
(-1.03058e-19 -2.9769 -3.99798)
(-1.58345e-19 -3.06974 -6.22386)
(3.07003e-26 14.3842 30.7492)
(-1.09133e-27 18.0712 27.7506)
(9.6386e-25 13.4819 27.6758)
(1.05844e-23 14.3869 25.3276)
(3.12741e-23 12.3063 24.3969)
(4.4048e-23 11.8426 22.8108)
(1.71185e-23 10.7276 21.6083)
(-5.22921e-23 9.99072 20.3024)
(-9.65497e-23 9.17319 19.1016)
(3.60732e-23 8.45669 17.9047)
(5.3137e-22 7.74843 16.7272)
(1.20164e-21 7.04332 15.4905)
(-4.74868e-22 6.20734 13.9899)
(-1.39662e-20 4.93048 11.6701)
(-5.63502e-20 2.77872 7.72914)
(-1.29295e-19 -0.0287793 2.31528)
(-1.85241e-19 -2.10388 -2.01126)
(-1.82101e-19 -2.68203 -3.41491)
(-1.69783e-19 -3.00717 -4.19264)
(-1.20238e-19 -2.19212 -3.36669)
(1.42869e-25 11.2884 28.4751)
(3.02254e-25 16.9226 24.9522)
(-1.15533e-24 11.9635 25.3697)
(-5.17087e-24 12.5919 23.6661)
(-1.01964e-23 10.8379 22.9336)
(-1.66618e-23 10.1519 21.8519)
(-2.8397e-23 9.13038 20.9421)
(-4.05354e-23 8.32332 19.993)
(-2.05072e-23 7.51441 19.0804)
(9.14027e-23 6.78183 18.1702)
(2.92697e-22 6.08644 17.2614)
(2.7203e-22 5.42286 16.3184)
(-9.04422e-22 4.75992 15.286)
(-4.87209e-21 4.0751 14.0755)
(-1.35064e-20 3.37344 12.5455)
(-2.73293e-20 2.69741 10.5401)
(-4.24769e-20 2.07941 8.08421)
(-5.23698e-20 1.44216 5.25516)
(-5.58503e-20 0.407761 1.7641)
(-3.51909e-20 -0.719335 -1.19606)
(1.01219e-25 2.64147 17.0238)
(7.59538e-26 8.06458 13.6508)
(-1.30039e-24 5.1778 14.5208)
(-5.02689e-24 5.00606 14.1182)
(-9.44874e-24 4.08184 14.0776)
(-1.03471e-23 3.52148 13.8989)
(-5.87909e-24 2.94782 13.7366)
(-2.66105e-24 2.48009 13.5408)
(-1.28384e-23 2.07491 13.3268)
(-3.15967e-23 1.74554 13.0915)
(8.54655e-24 1.48965 12.8406)
(2.82504e-22 1.31312 12.5803)
(1.04631e-21 1.21925 12.3166)
(2.46204e-21 1.21659 12.0413)
(4.30965e-21 1.31463 11.7239)
(5.83101e-21 1.47441 11.3414)
(6.05812e-21 1.71415 10.8261)
(4.64861e-21 2.31264 9.89024)
(2.35169e-21 2.48828 8.50091)
(2.96056e-22 -0.24036 6.40345)
(4.83912e-28 -2.692 17.1183)
(-6.35989e-26 -8.07448 13.7658)
(-2.62392e-25 -5.17736 14.645)
(-5.47852e-25 -4.97889 14.2592)
(-3.29629e-25 -4.03557 14.2366)
(1.61721e-24 -3.45287 14.0774)
(6.50696e-24 -2.85646 13.9357)
(1.41691e-23 -2.36317 13.7594)
(2.24785e-23 -1.92963 13.5634)
(2.90028e-23 -1.56865 13.3426)
(3.18219e-23 -1.27665 13.0984)
(2.23082e-23 -1.05753 12.833)
(-2.86076e-23 -0.917444 12.5623)
(-1.63504e-22 -0.882291 12.3132)
(-3.77507e-22 -0.989009 12.1006)
(-5.46377e-22 -1.21146 11.899)
(-4.97603e-22 -1.57448 11.5315)
(-2.50686e-22 -2.35831 10.5685)
(-5.17301e-23 -2.68446 9.02396)
(-8.90786e-24 0.0900482 6.80037)
(2.77749e-26 -11.4195 28.7905)
(3.88078e-26 -17.1169 25.2512)
(-6.16104e-25 -12.138 25.6588)
(-1.7223e-24 -12.7905 23.9517)
(-5.13509e-25 -11.0603 23.2137)
(8.01811e-24 -10.4053 22.1345)
(2.6157e-23 -9.42704 21.2275)
(4.82255e-23 -8.66726 20.2845)
(6.31658e-23 -7.91125 19.3725)
(6.06954e-23 -7.23058 18.4531)
(2.98116e-23 -6.59166 17.5303)
(-3.14389e-23 -6.00309 16.5995)
(-3.8309e-23 -5.44111 15.6313)
(3.02759e-22 -4.81985 14.4646)
(1.38099e-21 -3.93484 12.7138)
(3.04656e-21 -2.52758 9.86221)
(4.09706e-21 -0.573646 5.70149)
(3.48709e-21 1.56255 0.916161)
(2.35484e-21 3.14395 -3.04501)
(2.03382e-21 2.49523 -4.44754)
(2.04203e-26 -14.3376 30.8177)
(-3.16974e-25 -18.3005 27.5952)
(-1.04866e-24 -13.5332 27.5972)
(-2.21248e-24 -14.6908 25.0892)
(5.238e-25 -12.5657 24.1402)
(1.44726e-23 -12.2471 22.4543)
(4.00341e-23 -11.19 21.2019)
(6.75743e-23 -10.5758 19.8232)
(8.05567e-23 -9.86557 18.5619)
(7.02998e-23 -9.27607 17.2909)
(5.24487e-23 -8.6923 16.0467)
(6.09893e-23 -8.14892 14.8023)
(1.4257e-22 -7.6059 13.5352)
(4.12652e-22 -7.00693 12.1011)
(1.05922e-21 -6.15555 10.2382)
(2.12339e-21 -4.85204 7.57264)
(3.06162e-21 -2.81983 4.0359)