/*--------------------------------*- C++ -*----------------------------------*\
| =========                 |                                                 |
| \\      /  F ield         | OpenFOAM: The Open Source CFD Toolbox           |
|  \\    /   O peration     | Version:  4.1                                   |
|   \\  /    A nd           | Web:      www.OpenFOAM.org                      |
|    \\/     M anipulation  |                                                 |
\*---------------------------------------------------------------------------*/
FoamFile
{
    version     2.0;
    format      ascii;
    class       volScalarField;
    location    "28";
    object      p;
}
// * * * * * * * * * * * * * * * * * * * * * * * * * * * * * * * * * * * * * //

dimensions      [0 2 -2 0 0 0 0];

internalField   nonuniform List<scalar> 
1280
(
7.95864
26.8693
5.55633
8.21005
42.5325
-0.955081
-9.67426
4.8683
25.0722
-49.2743
-103.612
-37.6196
-197.631
-352.072
-244.405
-571.798
-923.138
-827.326
-1161.97
-2366.49
-1492.05
209.066
1883.93
2740.6
2816.84
3516.77
-111.594
496.818
792.347
438.444
244.403
41.7317
-205.832
-475.695
-758.133
-1064.39
-1363.26
-1714.72
-1995.97
-2578.31
-2915.63
-1892.04
-1364.8
-994.759
931.849
265.045
377.461
424.978
531.864
482.71
462.335
458.866
443.544
380.716
236.861
813.214
-552.089
-718.952
-1353.1
-3930.57
-171.681
363.077
439.642
592.767
653.699
742.945
809.584
877.204
926.147
953.461
976.276
1093.09
973.772
-1329.99
2737.18
2113.88
2163.36
1712.53
785.816
-623.961
-1629.17
-461.026
-517.481
-366.307
-160.296
-38.3749
-20.8416
99.4778
145.579
165.526
213.028
224.292
234.888
236.964
245.697
232.677
168.86
158.962
71.9752
63.6615
15.5681
-70.0873
-58.8828
-89.7616
-45.9344
-32.506
15.6
47.9604
106.502
106.577
93.3068
33.9562
-35.7364
-137.611
-234.192
-311.091
-114.719
3.62432
64.6844
71.7785
-117.069
-53.925
-76.0774
-16.0765
6.05589
89.1463
145.71
258.119
258.533
215.199
212.893
41.8737
-303.746
-734.341
-862.376
-310.49
28.5104
146.094
128.814
-149.162
-53.5531
-83.0045
-13.3696
10.2488
110.397
176.364
320.473
350.338
259.075
327.954
43.0746
-498.51
-1201.8
-1322.7
-431.687
69.1419
217.162
228.707
-189.718
-74.1141
-99.0356
-18.7455
10.6446
132.428
215.356
399.238
467.026
270.926
465.001
133.774
-522.058
-1448.14
-1502.05
-495.979
140.618
297.362
335.191
-239.135
-96.9867
-110.971
-23.0936
12.1826
153.691
254.693
484.897
586.914
345.989
578.543
263.064
-468.471
-1508.72
-1462.45
-526.326
165.791
345.3
283.692
-78.9619
-147.333
-117.238
-34.1463
8.29563
164.342
281.894
556.044
655.166
1177.35
990.18
487.175
-314.133
-1378.27
-1314.85
-331.057
357.437
464.549
155.124
98.0226
-313.517
-124.637
-51.6708
-0.911938
165.122
296.242
599.921
729.27
1659.05
1307.83
599.427
-140.758
-1081.11
-1188.66
-322.792
267.257
304.31
38.8484
38.9783
-436.315
-153.611
-68.2367
-15.2556
155.812
294.676
621.358
871.482
1573.77
1220.35
495.129
-90.6473
-679.167
-724.367
13.6074
738.348
1025.46
-76.7242
-206.335
-476.656
-193.971
-80.7599
-34.1668
134.199
270.113
585.8
836.369
1416.14
1063.99
224.844
-244.969
-344.466
-77.0775
528.782
1383.75
4980.33
-161.11
-337.547
-387.106
-231.244
-89.4422
-56.0439
100.731
224.967
512.524
721.987
1162.41
650.043
-181.596
-509.129
-86.1608
492.581
945.346
1352.63
3721.32
-202.453
-279.259
-251.42
-253.282
-97.9283
-78.8479
57.2923
165.09
413.863
574.218
875.14
131.402
-608.042
-727.866
209.461
989.632
1106.35
1302.19
3910.33
-204.773
-106.05
-145.937
-232.52
-105.277
-100.403
5.48427
93.7359
297.833
406.509
601.676
-305.381
-783.891
-797.793
516.196
1548.76
1298.22
1292.51
4628.73
-180.47
119.395
-41.2609
-160.208
-110.996
-121.621
-52.2709
14.7446
174.274
238.756
377.663
-600.41
-808.814
-673.195
596.091
1613.91
1216.91
548.313
658.21
-140.981
377.669
136.122
-42.0519
-103.952
-137.299
-109.425
-67.3719
48.842
83.4509
205.033
-778.306
-876.444
-485.282
548.363
1270.84
874.08
106.055
-105.206
-98.9982
632.364
358.685
87.2524
-77.6324
-145.253
-160.93
-144.139
-66.8875
-52.5528
36.5928
-697.832
-847.172
-306.46
447.52
1022.96
817.711
271.456
161.035
-67.7675
819.748
523.364
207.736
-0.0402142
-93.6935
-154.772
-174.76
-143.607
-129.968
-96.7708
-249.95
-751.94
-100.166
340.68
769.287
602.392
202.137
158.033
-51.7688
904.582
591.361
273.205
40.2708
-46.8638
-112.713
-135.543
-109.613
-87.5062
-197.821
11.8353
-618.058
-74.5684
253.976
567.696
474.905
199.246
155.975
-44.8641
907.712
522.235
292.309
112.235
42.3143
-24.5598
-56.6329
-71.7242
-122.992
-280.622
-143.648
-354.72
-63.6583
196.179
408.834
353.489
143.92
105.051
-44.8309
871.898
367.37
186.303
9.38764
-12.8277
-29.7156
-18.4474
14.5519
15.8202
92.0112
-308.444
-254.545
-66.1009
137.581
292.401
249.199
109.283
64.3454
-23.3607
446.697
100.485
144.026
130.101
102.598
67.0854
32.6538
-76.4907
-246.417
-1.57331
-293.496
-244.487
-133.417
-4.54463
97.1431
101.473
44.4896
25.4324
209.068
584.315
800.681
962.323
1024.11
1044.71
983.377
922.045
886.402
884.687
907.793
962.546
1045.31
1155.67
1287.92
1449.04
1620.8
1841.32
2020.08
2303.54
-6822.86
-6964.58
-7083.92
-7283.91
-7414.64
-7589.18
-7720.77
-7837.02
-7900.53
-7914.57
-7864.93
-7748.43
-7565.17
-7316.27
-7021.54
-6686.64
-6356.57
-5982.78
-5687.13
-5201.03
-1608.3
-2247.38
-2550.7
-3061.97
-3492.39
-3996.2
-4477.23
-4975.03
-5449.14
-5903.14
-6316.04
-6679.4
-6975.24
-7187.34
-7303.49
-7331.61
-7284.26
-7191.69
-7200.31
-7147.87
2952.29
2519.25
2341.72
2041.82
1792.88
1498.52
1221.44
940.791
679.808
435.426
219.966
36.053
-110.233
-216.343
-276.479
-297.53
-281.539
-160.746
-91.7979
-494.663
6497.17
6493.37
6468.67
6469.28
6429.18
6363.61
6246.23
6077.63
5843.53
5534.09
5142.86
4668.92
4126.41
3555.63
3029.33
2628.57
2386.4
2271.44
2307.72
2081.62
3980.76
4154.22
4235.74
4381.64
4498.17
4637.49
4775.7
4914.48
5044.34
5149.73
5216.86
5223.36
5151.86
4993.6
4777.86
4550.98
4415.74
4365.26
4393.81
4332.24
3376.93
3515.4
3554.42
3639.34
3692.69
3752.75
3813.91
3866.06
3923.43
3976.64
4035.75
4100.15
4173.07
4252.02
4334.95
4420.51
4502.03
4590.32
4643.55
4719.88
1498.1
1685
1759.61
1863.89
1958.26
2045.05
2150.22
2235.03
2332.54
2420.67
2510.63
2598.94
2686.59
2777.01
2867.37
2966.55
3060.52
3174.05
3250.49
3374.22
69.5697
266.368
375.873
456.536
584.861
669.612
809.65
904.995
1029.27
1138.19
1253.39
1367.22
1480.88
1598
1713.01
1836.69
1949.77
2080.9
2171.05
2309.19
-2419.38
-2304.7
-2164.82
-2134.79
-1969.44
-1925.75
-1764.47
-1685.87
-1549.42
-1443.01
-1318.99
-1198.37
-1073.05
-940.971
-806.787
-652.223
-501.62
-297.429
-121.633
167
-3817.65
-4060.08
-4037.49
-4231.85
-4241.56
-4431.93
-4477.74
-4636.01
-4709.4
-4821.19
-4869.99
-4893.32
-4861.41
-4791.64
-4690.57
-4557.7
-4421.82
-4247.5
-4118.29
-3813.8
-748.051
-1181.55
-1253.63
-1616.02
-1761.9
-2109.93
-2324.92
-2669.97
-2950.06
-3298.62
-3598.94
-3894.8
-4126.85
-4309.62
-4419.46
-4467.07
-4450.39
-4394.88
-4413.61
-4400
3207.04
2988.66
3024.09
2811.74
2858.38
2677.56
2690.32
2554.19
2525.09
2422.24
2360.64
2260.8
2154.68
2006.41
1829.55
1624.94
1422.93
1327.32
1296.81
958.31
3335.42
3365.56
3490.56
3411.88
3593.42
3514.55
3656.41
3616.71
3685.7
3657.83
3653.61
3605.66
3556.73
3496.61
3442.07
3400.79
3375.28
3329.41
3322.48
3227.19
1883.89
1969.43
2205.88
2153.27
2454.78
2430.58
2673.35
2730.64
2902.13
3005.07
3129.54
3218.86
3284.89
3312.2
3313.21
3316.82
3361.37
3464.3
3549.25
3635.52
-204.222
-263.86
-8.16124
-179.74
133.322
38.232
265.204
305.889
468.328
589.949
743.814
901.767
1069.18
1245.7
1423.7
1611.52
1790.22
1999.07
2138.02
2365.2
-251.484
-532.034
-397.711
-863.818
-780.657
-1141.05
-1204.29
-1434.81
-1557.16
-1710.98
-1824.77
-1927.29
-2006.39
-2058.86
-2083.92
-2050.5
-1971.01
-1791.7
-1643.43
-1411.61
1127.67
629.643
1154.38
523.049
655.975
262.401
110.632
-200.687
-459.685
-762.308
-1057.24
-1365.18
-1673.59
-1980.09
-2266.76
-2491.56
-2634.37
-2609.14
-2594.79
-2508.34
1027.93
-669.344
83.102
-885.836
-958.948
-1495.51
-1800.61
-2180.52
-2479.68
-2752.4
-2963.25
-3116.05
-3199.83
-3209.65
-3135.18
-2978.66
-2724.28
-2362.41
-2106.83
-1926.5
53709.7
47205.7
43751.6
39419.6
35805.5
32229.7
28938.9
25810.9
22871.2
20089.2
17456.3
14956.9
12577.1
10304.9
8155.88
6109.56
4101.41
2468.21
839.822
-2107.9
57157.6
50656.7
47204.4
42874.5
39262.3
35688.1
32398.8
29272
26333.4
23552.1
20919.6
18420.2
16040.2
13767.6
11618.4
9571.67
7561.99
5923.45
4288.5
1338.7
4529.08
2832.79
3586.43
2618.61
2547.15
2011.95
1708.54
1330.14
1032.63
761.465
552.236
401.003
318.816
311.043
388.347
547.359
805.243
1165.18
1430.63
1609.29
4584.46
4085.02
4608.91
3975.84
4107.45
3712.35
3559
3246.26
2985.81
2681.96
2385.83
2076.82
1767.72
1461.28
1176.76
953.243
819.748
844.63
854.381
940.579
3191.52
2902.21
3031.8
2562.61
2639.66
2275.18
2207.48
1972.49
1846.29
1688.27
1570.79
1464.39
1381.72
1325.81
1298.15
1329.05
1406.84
1586.48
1724.36
1952.87
3042.72
2983.08
3240.19
3068.39
3382.41
3286.98
3515.35
3556.13
3720.15
3842.49
3997.71
4156.47
4324.45
4501.3
4679.61
4869.16
5049.04
5259.83
5399.34
5632.52
5325.11
5403.11
5634.51
5575.22
5869.09
5839.73
6074.83
6128.57
6293.47
6393.27
6512.77
6601.4
6670.99
6713.18
6743.38
6793.22
6875.11
6992.98
7079.05
7177.52
6431.64
6455.57
6579.96
6463.12
6666.05
6587.1
6767.15
6766.02
6892.04
6925.56
6986.45
7010.11
7034.87
7046.39
7059.95
7068.44
7065.45
7020.08
7016.71
6975.14
6917.89
6632.02
6764.6
6514.1
6606.38
6512.45
6584.04
6572.42
6611.9
6589.34
6602.27
6573.15
6513.03
6396.78
6241.22
6052.95
5877.39
5791.44
5788.72
5562.33
4423
4124.97
4133.47
4003.57
3974.8
3891.81
3798.35
3653.9
3453.13
3180.56
2855.28
2528.66
2269.61
2088.21
1986.46
1953.2
1982.79
2028.5
2032.41
1993.85
2083.87
2035.22
2047.78
2013.6
1969.68
1900.31
1806.8
1689.19
1548.03
1405.51
1275.73
1197.46
1190.52
1230.73
1292.43
1369.69
1443.83
1534.04
1591.84
1785.41
3040.07
3220.76
3280.54
3330.25
3347.89
3363.73
3381.64
3414.91
3464.59
3537.89
3626.53
3714.67
3798.36
3879.47
3952.91
4039.01
4117.95
4248.24
4366.96
4595.57
4562.39
4765.67
4823.76
4908.25
4970.48
5043.8
5124.06
5219.73
5308.49
5395.87
5493.43
5596.29
5696.8
5799.32
5900.38
6009.52
6110.28
6225.51
6306.92
6415.39
6085.46
6214.18
6243.47
6294.85
6330.05
6373.93
6412.91
6470.18
6504.44
6507.38
6560.56
6641.01
6705.32
6768.8
6825.69
6884.72
6940.06
7009.14
7055.73
7125.72
6828.19
6954.33
7002.15
7093.3
7179.25
7273.71
7356.77
7449.15
7565.35
7668.56
7739.16
7754.92
7697.8
7601.92
7511.36
7475.87
7510.24
7576.63
7620.19
7635.15
8538.55
8538.12
8492.05
8472.55
8436.94
8399.39
8342.12
8238.91
8104.8
7940.55
7767.56
7592.37
7420.49
7268.69
7156.47
7098.76
7086.94
7057.61
7060.53
6923.88
7282.13
6949.35
6834.55
6659.52
6542.83
6416.98
6288.63
6138.03
5993.24
5856.66
5726.07
5585.92
5422.84
5235.99
5041.6
4862.37
4732.29
4702.73
4675.72
4231.08
1854.44
1325.68
1083.22
649.154
246.652
-243.632
-755.041
-1274.94
-1777.96
-2254.63
-2686.62
-3059.56
-3353.56
-3543.28
-3614.04
-3568.72
-3424.5
-3272.63
-3220.14
-3081.24
-1595.09
-1812.77
-1927.13
-2153.77
-2347.32
-2575.41
-2754.05
-2843.95
-2840.25
-2763.53
-2615.18
-2395.1
-2108.65
-1757.24
-1363.84
-934.03
-515.067
-56.2752
239.034
748.999
1581.15
2031.35
2242.23
2521.23
2793.26
3059.89
3332.67
3605.05
3878.2
4149.8
4419.39
4687.37
4949.8
5209.99
5458.71
5714.59
5940.04
6217.42
6386.79
6752.9
8813.22
9104.79
9166.55
9259.63
9257.39
9253.14
9185.12
9124.44
9068.83
9019.11
8976.96
8946.28
8926.19
8918.19
8921.35
8938.76
8962.56
8997.83
9025.95
9015.58
)
;

boundaryField
{
    outletWall
    {
        type            fixedValue;
        value           uniform 0;
    }
    fineWalls
    {
        type            zeroGradient;
    }
    fineFrontAndBack
    {
        type            zeroGradient;
    }
    fineplugLeft
    {
        type            cyclicAMI;
        value           nonuniform List<scalar> 
20
(
1327.17
1216.87
1130.11
1023.98
946.353
878.708
829.394
795.083
778.383
775.115
795.439
867.591
837
858.87
1539.12
1382.65
1317.98
1017.33
509.265
-131.155
)
;
    }
    fineplugRight
    {
        type            cyclicAMI;
        value           nonuniform List<scalar> 
20
(
7178.13
7293.38
7286.2
7288.6
7281.75
7285.67
7296.47
7316.39
7342.25
7372.26
7410.55
7473.68
7494.31
7989.47
7949.95
7828.68
7840.37
7675.75
7440.99
6925.78
)
;
    }
    inletOutletLeft
    {
        type            cyclicAMI;
        value           nonuniform List<scalar> 
20
(
1327.17
1216.87
1130.11
1023.98
946.353
878.708
829.394
795.083
778.383
775.115
795.439
867.591
837
858.87
1539.12
1382.65
1317.98
1017.33
509.265
-131.155
)
;
    }
    inletLeft
    {
        type            zeroGradient;
    }
    inletWallsLeft
    {
        type            zeroGradient;
    }
    inletFacesLeft
    {
        type            zeroGradient;
    }
    inletOutletRight
    {
        type            cyclicAMI;
        value           nonuniform List<scalar> 
20
(
7178.13
7293.38
7286.2
7288.6
7281.75
7285.67
7296.47
7316.39
7342.25
7372.26
7410.55
7473.68
7494.31
7989.47
7949.95
7828.68
7840.37
7675.75
7440.99
6925.78
)
;
    }
    inletRight
    {
        type            zeroGradient;
    }
    inletWallsRight
    {
        type            zeroGradient;
    }
    inletFacesRight
    {
        type            zeroGradient;
    }
}


// ************************************************************************* //
