/*--------------------------------*- C++ -*----------------------------------*\
| =========                 |                                                 |
| \\      /  F ield         | OpenFOAM: The Open Source CFD Toolbox           |
|  \\    /   O peration     | Version:  4.1                                   |
|   \\  /    A nd           | Web:      www.OpenFOAM.org                      |
|    \\/     M anipulation  |                                                 |
\*---------------------------------------------------------------------------*/
FoamFile
{
    version     2.0;
    format      ascii;
    class       volVectorField;
    location    "28";
    object      U;
}
// * * * * * * * * * * * * * * * * * * * * * * * * * * * * * * * * * * * * * //

dimensions      [0 1 -1 0 0 0 0];

internalField   nonuniform List<vector> 
1280
(
(2.47827e-16 2.22071 0.130966)
(-2.8533e-15 2.93432 -3.44185)
(-1.56282e-15 4.64007 -2.27317)
(-8.39368e-16 4.91727 -1.63117)
(-3.54377e-15 6.66719 -6.21561)
(-2.05799e-15 7.63637 -4.58009)
(-1.67926e-15 8.83754 -4.26485)
(-8.50133e-16 8.79431 -3.7013)
(-4.19726e-15 12.0424 -9.61905)
(-3.11648e-15 12.994 -7.42957)
(-2.29404e-15 14.2681 -6.24311)
(-5.78298e-15 18.3964 -14.304)
(-3.54438e-15 19.1893 -11.2416)
(-2.9677e-15 21.3167 -9.54007)
(-8.75081e-15 26.8632 -20.7051)
(-5.48512e-15 27.6337 -16.2168)
(-4.15846e-15 31.04 -14.736)
(-5.94703e-15 36.5223 -29.001)
(-4.05826e-15 39.6205 -21.7959)
(-4.10784e-15 39.7459 -29.5535)
(-9.42493e-15 41.3118 24.9038)
(-1.23632e-14 41.4676 60.1676)
(-1.46723e-14 42.5643 81.3884)
(-1.56766e-14 45.3552 91.6365)
(-1.58783e-14 47.0716 96.5203)
(-1.55551e-14 50.6829 100.261)
(-1.77609e-14 42.3206 66.6503)
(-1.54918e-14 86.4663 124.553)
(-1.73554e-14 86.0992 124.957)
(-1.91774e-14 87.3616 123.754)
(-2.06462e-14 87.608 122.132)
(-2.1874e-14 87.5926 120.273)
(-2.31982e-14 87.4765 118.473)
(-2.49367e-14 87.1387 116.863)
(-2.7108e-14 86.6747 115.459)
(-2.96012e-14 85.952 114.173)
(-3.13483e-14 85.233 112.913)
(-3.26872e-14 84.0032 111.247)
(-3.16781e-14 83.4276 109.572)
(-3.41536e-14 80.9684 104.199)
(-1.61706e-14 95.2805 121.461)
(2.70735e-15 60.0843 85.6924)
(7.47318e-15 51.9834 85.5336)
(8.56394e-15 40.3454 83.7704)
(1.3756e-14 30.7445 81.4321)
(4.36741e-15 18.6652 47.6874)
(-6.41663e-16 13.3834 42.1806)
(-3.28294e-15 8.83492 32.5413)
(-3.83125e-15 6.26007 14.9278)
(4.12148e-15 3.09792 8.72802)
(1.05512e-14 1.67371 7.04936)
(1.8771e-14 0.0148279 4.38989)
(1.0506e-14 -2.23364 22.2166)
(8.32895e-15 -4.96515 32.3957)
(3.99759e-15 -9.95808 38.4168)
(-5.09759e-15 -17.3596 68.3135)
(-7.88841e-15 -27.4966 81.4487)
(-8.03034e-15 -37.4418 87.2678)
(-5.5623e-15 -47.317 88.7933)
(1.42649e-14 -91.343 128.251)
(4.5389e-14 -68.5635 119.24)
(3.76185e-14 -70.663 126.115)
(4.12592e-14 -70.0127 127.362)
(4.14355e-14 -70.8462 128.665)
(4.15518e-14 -70.8795 129.435)
(3.99249e-14 -71.2864 130.124)
(3.87878e-14 -71.4318 130.892)
(3.74756e-14 -71.6261 131.641)
(3.62117e-14 -71.6444 132.007)
(3.51419e-14 -71.5563 131.622)
(3.4755e-14 -71.246 130.447)
(3.42331e-14 -70.2811 128.72)
(3.28888e-14 -69.8924 126.078)
(2.60629e-14 -34.6123 77.1185)
(2.9016e-14 -40.8132 91.0611)
(2.88485e-14 -38.2964 85.7291)
(2.91363e-14 -37.6722 79.0349)
(2.9103e-14 -35.7634 69.5142)
(2.7094e-14 -34.3923 54.3742)
(2.19769e-14 -34.0647 28.0457)
(1.46397e-14 -30.2846 -30.3372)
(1.30533e-14 -32.809 -24.7356)
(1.66203e-14 -26.3207 -31.413)
(1.17625e-14 -24.9163 -17.8838)
(1.23629e-14 -20.1646 -19.0644)
(1.85326e-14 -21.3909 -22.8221)
(1.61481e-14 -16.4235 -14.0367)
(1.79612e-14 -13.5989 -14.8032)
(2.66195e-14 -13.5128 -18.4355)
(2.38397e-14 -9.54046 -11.588)
(2.93829e-14 -7.34835 -12.494)
(4.46083e-14 -6.50495 -17.0737)
(3.93047e-14 -3.14231 -12.5789)
(2.78567e-14 -1.57996 -13.2122)
(2.13746e-14 0.792413 -13.2401)
(2.21097e-14 2.56019 -18.6022)
(1.50959e-14 5.20513 -13.9212)
(1.60528e-14 8.65452 -12.9711)
(1.78256e-14 6.65648 -18.6258)
(1.99215e-14 14.2648 -20.3643)
(5.05105e-15 -11.0477 13.4123)
(4.00425e-15 -29.2747 12.9778)
(2.74763e-15 -32.7503 12.9084)
(1.97832e-15 -36.7563 10.5549)
(1.42921e-15 -38.598 9.06736)
(1.49523e-15 -39.0797 7.76239)
(2.27889e-15 -37.9257 6.33308)
(3.70744e-15 -34.6876 5.23731)
(5.09664e-15 -28.7106 3.59559)
(5.37242e-15 -17.7628 1.62641)
(4.74538e-15 5.30282 -2.46871)
(4.38723e-15 25.0904 -6.96826)
(5.89167e-15 30.3547 -15.1407)
(8.26499e-15 27.5373 -22.6559)
(9.97576e-15 6.51428 -29.5643)
(8.84442e-15 -17.6287 -29.7074)
(1.10694e-14 -23.9566 -26.6197)
(1.49446e-14 -18.7028 -23.1594)
(1.6215e-14 -8.18625 -23.4174)
(4.93962e-15 -10.9055 12.8699)
(3.9116e-15 -29.4677 12.6709)
(2.68321e-15 -32.1404 12.9742)
(1.9361e-15 -35.853 10.5725)
(1.41782e-15 -37.8438 9.27196)
(1.51341e-15 -38.3518 8.01201)
(2.32273e-15 -37.1194 6.78455)
(3.75852e-15 -33.7576 5.87815)
(5.11801e-15 -27.2285 4.25545)
(5.3628e-15 -15.287 2.3104)
(4.72622e-15 8.31665 -1.53834)
(5.29468e-15 29.073 -2.88075)
(9.76934e-15 35.5836 -12.0661)
(1.43948e-14 32.5991 -18.6369)
(1.7788e-14 9.85011 -25.5133)
(1.14491e-14 -19.0909 -30.4216)
(1.07257e-14 -26.4536 -25.9235)
(1.41393e-14 -20.0368 -21.3243)
(1.51772e-14 -9.73356 -19.8972)
(4.69687e-15 -9.84095 15.3595)
(3.72869e-15 -29.7452 12.3223)
(2.61629e-15 -31.6379 13.117)
(1.88551e-15 -35.1143 10.5136)
(1.40524e-15 -37.3178 9.57306)
(1.53834e-15 -37.9257 8.33101)
(2.38222e-15 -36.7856 7.41074)
(3.8298e-15 -33.4749 6.82838)
(5.14857e-15 -26.8165 5.4165)
(5.3256e-15 -14.5986 3.88449)
(4.81887e-15 6.8351 2.63999)
(7.37475e-15 30.3705 2.84459)
(1.48364e-14 37.4532 -2.57599)
(2.11075e-14 33.7173 -3.99866)
(2.54636e-14 11.5569 -6.80651)
(1.62133e-14 -17.53 -23.8479)
(1.14258e-14 -27.4154 -23.9947)
(1.3484e-14 -20.9972 -19.1867)
(1.13111e-14 -9.50791 -16.7261)
(4.39646e-15 -8.66574 26.4697)
(3.15686e-15 -29.255 11.7634)
(2.54576e-15 -31.1051 13.7526)
(1.84078e-15 -34.5436 10.4112)
(1.39551e-15 -36.9122 9.92797)
(1.56908e-15 -37.5986 8.74906)
(2.452e-15 -36.5525 8.14672)
(3.91498e-15 -33.2369 7.98931)
(5.17999e-15 -26.3234 6.8577)
(5.22771e-15 -13.6897 5.67252)
(5.30903e-15 6.93461 10.3785)
(1.01388e-14 31.6169 8.79547)
(1.95508e-14 37.8716 12.1826)
(2.58627e-14 34.028 16.3693)
(2.80492e-14 16.4879 15.2269)
(2.06342e-14 -13.4641 -8.30408)
(1.34792e-14 -27.6888 -17.0801)
(1.35052e-14 -23.133 -15.6204)
(1.04337e-14 -10.7932 -15.7096)
(3.28847e-15 -2.30256 53.8531)
(2.22997e-15 -25.1609 7.89004)
(2.23535e-15 -30.857 14.7539)
(1.79526e-15 -33.7295 10.649)
(1.39664e-15 -36.5982 10.2941)
(1.60801e-15 -37.3118 9.29977)
(2.53542e-15 -36.4145 8.99453)
(4.01326e-15 -33.0895 9.33835)
(5.19782e-15 -25.9863 8.58708)
(5.03185e-15 -14.877 9.192)
(5.69639e-15 3.05625 18.7613)
(1.29498e-14 31.3195 15.6982)
(2.27745e-14 34.5555 29.9714)
(2.73535e-14 33.1798 38.4275)
(2.68807e-14 21.3237 36.7061)
(2.10347e-14 -6.35848 14.1705)
(1.53457e-14 -22.9728 -6.23304)
(1.39547e-14 -20.7233 -10.1954)
(1.15079e-14 -7.24634 -15.2282)
(-2.82115e-15 12.8846 78.0385)
(1.4408e-15 -15.7995 10.2043)
(1.81777e-15 -31.9533 12.2423)
(1.60176e-15 -32.9012 11.9126)
(1.40199e-15 -36.2714 10.8563)
(1.65428e-15 -37.1523 9.97499)
(2.62824e-15 -36.4523 9.95272)
(4.12624e-15 -33.1941 10.8012)
(5.20004e-15 -26.3063 10.7808)
(4.97388e-15 -16.863 15.1284)
(6.29078e-15 1.02103 16.4895)
(1.60632e-14 26.254 25.5442)
(2.44114e-14 28.3636 49.1551)
(2.68373e-14 31.5341 61.9341)
(2.48711e-14 26.26 62.034)
(1.91439e-14 2.4746 38.8036)
(1.64118e-14 -19.0958 8.21675)
(1.48385e-14 -21.7903 0.337638)
(1.18594e-14 -7.24419 -23.7154)
(-1.15054e-14 25.7658 81.7873)
(-2.90033e-15 0.0839187 32.7549)
(2.14046e-15 -30.8867 8.27207)
(1.28027e-15 -33.22 12.9142)
(1.3494e-15 -35.7417 12.0776)
(1.75296e-15 -37.0352 10.8756)
(2.76725e-15 -36.6427 11.0085)
(4.24197e-15 -33.5984 12.3284)
(5.14459e-15 -27.3277 13.4744)
(4.68499e-15 -17.6424 20.1476)
(7.3818e-15 0.424711 15.2301)
(2.04808e-14 18.2647 44.7404)
(2.38303e-14 20.2281 69.519)
(2.42376e-14 28.2395 84.8625)
(2.18034e-14 30.4942 88.2614)
(1.68258e-14 15.5749 69.0165)
(1.42637e-14 -4.34173 29.6562)
(1.55268e-14 -3.35785 3.76583)
(1.53661e-14 15.2235 -6.96221)
(-1.60212e-14 32.3364 73.1329)
(-7.1599e-15 15.0667 48.9794)
(2.36552e-15 -24.8258 11.9625)
(1.29484e-15 -34.0848 12.4045)
(1.17408e-15 -35.4631 13.6926)
(1.78281e-15 -36.8009 12.2827)
(2.8371e-15 -36.932 12.2519)
(4.38023e-15 -34.3624 13.9567)
(5.01038e-15 -29.0013 16.4904)
(5.13903e-15 -19.4751 25.6372)
(1.23336e-14 -6.30709 35.0973)
(2.11207e-14 5.6922 66.2401)
(2.00384e-14 12.3833 89.4648)
(1.86045e-14 24.2725 104.047)
(1.66583e-14 32.4769 108.756)
(1.34132e-14 24.6951 99.4423)
(7.5385e-15 4.74136 80.2783)
(5.33762e-15 -13.8986 73.2239)
(8.62438e-15 -44.4141 96.2666)
(-1.59088e-14 35.3638 67.0664)
(-7.88058e-15 25.5505 56.4462)
(2.46218e-15 -16.9534 22.8607)
(2.00481e-15 -33.4593 13.3618)
(1.29443e-15 -35.7262 15.1056)
(2.10599e-15 -36.5351 14.1963)
(3.62161e-15 -37.2016 13.8811)
(4.48673e-15 -35.4184 15.5567)
(4.87962e-15 -31.6154 18.9352)
(6.75053e-15 -24.9997 29.9369)
(1.61388e-14 -15.6713 47.1547)
(1.83978e-14 -4.73779 81.3434)
(1.1634e-14 4.86652 104.268)
(8.5428e-15 20.769 114.355)
(8.32074e-15 32.4398 116.296)
(1.02309e-14 26.8549 112.12)
(1.04976e-14 6.54387 104.623)
(6.11823e-15 -9.18414 99.7662)
(1.61947e-15 -14.4186 86.6642)
(-1.42464e-14 36.5114 62.285)
(-7.2648e-15 32.7247 59.9972)
(3.50074e-15 -8.72031 35.5168)
(3.37441e-15 -30.5971 18.8388)
(1.89622e-15 -35.8102 17.136)
(1.99748e-15 -36.3984 16.2509)
(1.69574e-15 -37.3719 15.8161)
(4.78616e-15 -36.5077 17.0275)
(5.13896e-15 -34.5856 20.654)
(6.01722e-15 -31.4313 32.2085)
(5.67621e-15 -26.1883 50.5424)
(-7.03029e-17 -16.3391 82.8464)
(4.10682e-15 -0.917677 104.138)
(-4.3816e-15 19.561 106.7)
(-1.40211e-15 33.4888 105.238)
(2.34921e-15 29.5996 105.6)
(7.31672e-15 10.3395 99.468)
(8.11147e-15 -7.25144 81.8035)
(8.69977e-15 -11.1476 44.1171)
(-1.19338e-14 36.2136 56.5692)
(-6.53288e-15 36.1494 60.1177)
(4.77229e-15 -1.03928 47.302)
(5.63174e-15 -25.879 28.5781)
(2.80733e-15 -34.6205 21.2008)
(2.01227e-15 -36.1069 18.4958)
(2.76445e-15 -37.4173 17.7394)
(5.02259e-15 -37.4778 18.6738)
(5.26193e-15 -37.5537 22.5016)
(3.79988e-15 -37.395 33.3382)
(-1.30882e-15 -35.5207 48.6737)
(-3.79882e-15 -26.2604 75.7037)
(-4.64205e-15 -4.61952 90.2733)
(-1.30624e-14 20.1527 82.6502)
(-8.63373e-15 32.8516 79.9907)
(-3.03363e-15 29.3261 90.4351)
(2.82963e-15 16.8468 100.788)
(4.97982e-15 10.198 88.8755)
(3.34207e-15 13.0552 50.274)
(-9.14322e-15 34.9184 51.199)
(-5.80507e-15 36.4043 58.5626)
(5.24977e-15 4.30789 56.3289)
(8.53132e-15 -20.2711 40.4612)
(4.83223e-15 -31.6362 27.8125)
(2.98426e-15 -35.1246 21.7212)
(3.79767e-15 -37.3573 19.8549)
(5.11249e-15 -38.5169 21.0673)
(5.04915e-15 -40.3386 25.0435)
(2.03831e-15 -42.1981 33.7225)
(-3.23774e-15 -42.67 44.929)
(-3.7905e-15 -33.3371 67.023)
(-7.42419e-15 -4.40752 74.2178)
(-1.19272e-14 23.2879 57.9111)
(-8.96728e-15 30.3244 51.3206)
(-4.32788e-15 20.7285 63.6387)
(2.83833e-15 10.668 95.5764)
(6.2768e-15 9.68692 112.093)
(8.69869e-15 19.4034 99.2364)
(-6.21948e-15 32.9326 46.6845)
(-5.1294e-15 34.2386 56.3753)
(4.45382e-15 6.50093 62.9574)
(9.7246e-15 -14.6923 53.3195)
(7.11122e-15 -26.9366 37.614)
(5.02609e-15 -33.0079 27.7503)
(4.95123e-15 -37.0803 23.4383)
(5.27842e-15 -39.639 24.0302)
(4.5789e-15 -42.5331 27.1233)
(1.03073e-15 -45.6312 33.4278)
(-2.77334e-15 -48.3385 43.1905)
(-3.5972e-15 -38.4132 62.1257)
(-8.43398e-15 -0.952762 60.4714)
(-9.60626e-15 28.6354 38.8496)
(-8.25119e-15 31.145 32.4258)
(-6.27723e-15 12.596 31.1347)
(1.45743e-15 -2.12881 47.7354)
(2.74443e-16 8.68896 67.9316)
(-8.57195e-15 43.4841 85.9033)
(-3.47809e-15 30.5069 42.8969)
(-4.56226e-15 30.1654 53.4752)
(2.58104e-15 5.32454 67.3801)
(7.53932e-15 -10.3495 66.7528)
(6.88472e-15 -21.2857 52.2624)
(6.05455e-15 -29.527 40.2356)
(5.58646e-15 -35.8246 32.2609)
(4.98867e-15 -40.0542 29.802)
(3.40364e-15 -44.0114 31.1446)
(6.85347e-17 -48.8797 37.6312)
(-2.4692e-15 -53.6337 49.3339)
(-4.46149e-15 -40.5127 62.1327)
(-8.37183e-15 5.65945 43.8818)
(-7.25333e-15 34.2881 18.9993)
(-7.3423e-15 33.3602 18.9635)
(-9.17061e-15 16.1004 13.2531)
(-8.59987e-15 -1.89865 -2.40347)
(-8.32837e-15 -5.90996 -16.1284)
(-1.14893e-14 -10.8838 -16.305)
(-1.06103e-15 27.9527 39.5058)
(-4.08865e-15 24.8884 49.3305)
(6.70067e-16 0.874956 67.7748)
(4.23889e-15 -8.71313 76.392)
(4.39763e-15 -16.22 69.4278)
(4.6923e-15 -24.9559 60.138)
(4.47997e-15 -32.8087 50.7613)
(3.43924e-15 -39.1999 45.4638)
(1.53944e-15 -45.5813 45.6874)
(-9.38214e-16 -53.0996 52.9674)
(-2.99499e-15 -57.5406 62.8136)
(-5.59829e-15 -36.5661 61.057)
(-7.09413e-15 15.6543 20.3935)
(-5.41224e-15 38.6785 4.52103)
(-6.82101e-15 33.3076 9.19331)
(-9.50386e-15 20.5442 6.17076)
(-1.09206e-14 6.68809 -5.92226)
(-1.03644e-14 6.54988 -13.7768)
(-1.0019e-14 2.0466 -32.6536)
(1.08418e-15 25.612 36.0966)
(-3.71239e-15 19.5746 43.5986)
(-1.28163e-15 -5.50722 62.1498)
(1.77742e-15 -11.1642 77.494)
(2.22715e-15 -14.9745 80.496)
(2.75512e-15 -22.234 78.4275)
(2.83806e-15 -30.0427 73.1375)
(1.98106e-15 -38.0815 69.1128)
(4.61124e-16 -46.9254 69.3059)
(-1.42317e-15 -55.8628 74.1898)
(-3.6918e-15 -56.5539 75.2655)
(-5.97319e-15 -24.4741 51.5265)
(-4.55131e-15 27.7594 -5.66762)
(-4.43856e-15 38.6297 1.20984)
(-6.73028e-15 32.5572 3.95964)
(-9.62742e-15 22.7171 2.13411)
(-1.14472e-14 8.66139 -6.18065)
(-1.0947e-14 8.48823 -12.2521)
(-1.12643e-14 1.58328 -27.1929)
(3.03771e-15 23.7599 32.5197)
(-3.26343e-15 15.4907 36.5809)
(-3.46635e-15 -12.8857 50.6541)
(-1.16933e-16 -16.0271 70.1324)
(9.72018e-16 -16.345 80.9141)
(1.7097e-15 -21.8461 85.9029)
(2.25656e-15 -29.0431 86.8315)
(1.93967e-15 -37.7442 86.8072)
(7.92549e-16 -47.7718 87.598)
(-1.13809e-15 -55.7344 87.7207)
(-3.72633e-15 -48.5215 75.8228)
(-5.1893e-15 -3.55803 30.0522)
(-2.92738e-15 34.9712 -7.62478)
(-4.25662e-15 35.9691 3.05111)
(-6.78661e-15 32.7031 1.42752)
(-9.723e-15 24.7218 -0.708116)
(-1.17647e-14 11.8022 -8.22237)
(-1.10616e-14 12.8891 -13.4075)
(-1.19381e-14 4.6464 -20.5411)
(4.79186e-15 22.5582 29.0147)
(-2.43182e-15 13.5462 29.6696)
(-5.61097e-15 -19.1411 37.7705)
(-2.19728e-15 -23.4705 58.4012)
(-2.51974e-16 -21.7451 73.3257)
(8.66087e-16 -24.8863 82.0522)
(2.04402e-15 -30.5831 87.068)
(2.42803e-15 -38.4471 90.2886)
(1.63829e-15 -47.1538 91.6548)
(-3.61795e-16 -50.6658 87.1438)
(-2.90354e-15 -33.5506 62.4266)
(-3.35175e-15 12.6332 2.9961)
(-2.76739e-15 36.4781 0.645472)
(-4.35363e-15 35.2626 2.49488)
(-6.78988e-15 33.8204 -1.02019)
(-9.78052e-15 26.747 -3.91044)
(-1.19226e-14 14.1858 -10.4172)
(-1.08913e-14 13.5293 -12.5059)
(-1.12261e-14 2.99459 -15.9843)
(6.19133e-15 21.9362 25.7514)
(-1.08427e-15 12.3445 24.5417)
(-7.15056e-15 -25.1758 25.0878)
(-4.15346e-15 -29.7649 45.3148)
(-1.22036e-15 -24.9191 64.2197)
(1.12363e-17 -26.6526 74.9779)
(1.5822e-15 -31.9609 81.5488)
(2.70843e-15 -39.4564 86.1681)
(2.43261e-15 -46.7855 87.0357)
(5.8705e-16 -44.7682 76.9837)
(-1.79198e-15 -17.4271 42.3527)
(-2.08094e-15 20.8962 -0.715177)
(-2.77777e-15 35.4368 3.42998)
(-4.35277e-15 36.7101 0.224456)
(-6.78299e-15 35.0753 -3.36909)
(-9.85145e-15 28.2728 -6.1506)
(-1.20106e-14 15.1599 -9.89003)
(-1.06022e-14 14.2494 -10.6315)
(-1.09227e-14 2.99008 -12.9576)
(7.02932e-15 21.2514 22.4381)
(3.83205e-16 16.8838 22.6082)
(-8.14432e-15 -27.8274 15.8396)
(-7.95472e-15 -39.8331 26.2541)
(-4.28481e-15 -35.174 44.6956)
(-2.2886e-15 -32.873 57.0277)
(-7.2945e-16 -35.6995 64.2024)
(9.33266e-16 -40.8359 68.8181)
(1.70669e-15 -42.7733 68.6774)
(8.63176e-16 -30.9466 56.4817)
(-1.10175e-15 1.3512 23.7193)
(-1.78308e-15 27.1317 6.32755)
(-2.7735e-15 36.7413 2.76265)
(-4.34878e-15 38.5626 -0.842819)
(-6.82915e-15 36.8202 -4.62348)
(-9.96716e-15 29.8999 -6.77067)
(-1.20993e-14 16.3623 -9.12903)
(-1.0367e-14 14.8798 -9.27125)
(-1.06364e-14 0.792059 -10.6057)
(4.07767e-16 73.2895 118.248)
(6.01952e-15 156.692 253.227)
(5.59419e-15 185.136 291.506)
(4.55152e-15 184.717 282.651)
(3.38239e-15 175.054 260.009)
(3.24802e-15 165.045 235.695)
(1.99252e-15 154.645 213.498)
(8.31873e-17 145.49 193.843)
(-2.36625e-15 136.554 175.348)
(-4.97955e-15 127.487 157.791)
(-7.51901e-15 118.278 140.993)
(-1.07345e-14 108.88 124.987)
(-1.50236e-14 99.268 109.866)
(-2.01134e-14 89.4636 95.5999)
(-2.60952e-14 79.2233 82.1029)
(-3.31669e-14 68.5943 69.0199)
(-4.10622e-14 56.6702 56.0592)
(-5.07197e-14 44.3424 42.2649)
(-6.49174e-14 26.8802 26.6988)
(-9.09277e-14 10.8359 1.16944)
(-5.15488e-16 116.533 193.056)
(1.00412e-14 183.176 291.86)
(1.01057e-14 184.179 295.282)
(1.02425e-14 173.724 275.628)
(1.07768e-14 161.759 256.578)
(1.32785e-14 152.831 239.001)
(1.30485e-14 143.718 221.668)
(1.36381e-14 134.287 202.901)
(1.44774e-14 123.988 183.3)
(1.58018e-14 113.236 163.118)
(1.75384e-14 101.932 142.694)
(1.80158e-14 90.1312 122.111)
(1.59985e-14 77.7017 101.528)
(1.80966e-14 64.706 80.9432)
(1.94567e-14 50.8819 60.5243)
(1.7637e-14 36.6507 39.7394)
(1.15653e-14 20.5063 18.4416)
(1.08116e-15 5.41026 -5.22852)
(-1.10252e-14 -19.6779 -30.3223)
(-6.95699e-14 -23.4283 -62.7535)
(-3.26856e-17 149.236 261.607)
(2.62637e-15 182.424 305.267)
(2.17226e-15 165.11 288.804)
(2.63639e-15 156.052 272.117)
(3.87461e-15 145.036 259.145)
(4.90628e-15 135.791 244.139)
(3.27018e-15 123.461 226.344)
(5.10817e-15 110.6 206.096)
(7.24386e-15 96.7604 185.073)
(1.06014e-14 82.6902 163.218)
(1.54323e-14 67.9402 140.607)
(2.20322e-14 52.6096 117.008)
(3.06929e-14 36.6007 92.5335)
(4.28794e-14 20.3292 67.6978)
(5.00952e-14 4.6336 43.7473)
(3.52068e-14 -9.875 21.279)
(-6.1188e-15 -23.1532 -1.34307)
(-5.44515e-14 -35.7239 -27.2801)
(-8.91678e-14 -44.5173 -48.3796)
(-7.21739e-14 -25.5454 -37.4944)
(-1.96469e-17 140.056 250.224)
(-8.62763e-16 149.49 264.992)
(-8.12153e-16 138.93 257.775)
(-9.58027e-16 130.114 245.981)
(-9.73732e-16 117.743 232.265)
(-1.25042e-15 105.553 217.3)
(2.03257e-16 91.4055 199.924)
(1.74703e-15 76.5697 180.487)
(3.70966e-15 60.9427 159.87)
(7.25212e-15 44.8419 138.182)
(1.29804e-14 28.2398 115.734)
(1.99031e-14 11.4573 92.7263)
(2.81012e-14 -5.05051 69.6421)
(3.81761e-14 -19.8758 47.9843)
(4.21803e-14 -30.4448 30.7987)
(2.7612e-14 -33.3752 22.1818)
(-1.30064e-15 -24.647 27.4055)
(-2.19562e-14 -1.03572 49.7353)
(-2.20782e-14 30.6511 79.7717)
(-6.3704e-15 37.1336 79.9678)
(1.89477e-17 118.52 209.319)
(1.80773e-16 134.707 242.205)
(1.69968e-16 128.131 232.949)
(8.95726e-17 116.652 217.693)
(-3.68618e-16 103.869 199.763)
(-9.17389e-16 91.3996 183.78)
(-1.11796e-15 79.073 167.672)
(-1.71559e-15 66.008 149.728)
(-2.08905e-15 52.3375 129.956)
(-1.37187e-15 38.4605 108.872)
(6.14552e-16 25.0817 87.6561)
(4.23005e-16 13.3832 68.1928)
(-7.73636e-15 5.1897 53.5683)
(-2.38573e-14 3.49937 48.5814)
(-3.74696e-14 11.9424 58.9078)
(-3.73073e-14 32.0933 86.8424)
(-2.33998e-14 59.9684 125.866)
(-5.78883e-15 85.5159 160.93)
(5.11615e-15 98.2604 171.124)
(4.6566e-15 70.4704 130.112)
(-3.13435e-18 112.002 192.245)
(-2.06754e-17 136.812 238.899)
(-1.62322e-17 133.197 228.414)
(5.32495e-18 123.201 211.527)
(1.28695e-16 112.207 191.054)
(2.98885e-16 101.952 172.92)
(2.63768e-16 93.949 158.668)
(3.01658e-16 86.8497 145.275)
(2.60532e-16 80.0338 131.914)
(1.2275e-16 73.8113 118.349)
(6.53189e-18 68.2508 104.937)
(1.62507e-16 63.7 92.1195)
(6.21818e-16 60.8483 81.461)
(9.78279e-16 61.0815 76.2699)
(1.21248e-15 65.5527 79.3252)
(2.23365e-15 73.3482 91.7928)
(4.53335e-15 82.8254 110.087)
(6.46293e-15 87.6745 127.124)
(5.1409e-15 83.9209 129.061)
(7.67097e-16 60.1333 102.741)
(6.73441e-20 114.209 195.791)
(-8.6826e-19 146.467 252.156)
(-2.88955e-18 143.013 241.892)
(-6.99108e-18 133.293 223.375)
(-2.56865e-17 122.714 203.472)
(-5.49972e-17 113.883 185.711)
(-4.1408e-17 106.958 172.018)
(-2.81482e-17 101.437 159.884)
(4.70098e-18 96.1664 148.582)
(5.90298e-17 91.349 137.596)
(8.75773e-17 86.7518 126.86)
(3.67988e-17 82.2886 116.076)
(-6.79108e-17 77.8058 105.024)
(-1.11193e-16 73.2999 94.128)
(2.75361e-17 69.2348 84.9299)
(4.01529e-16 66.2722 79.6419)
(8.96617e-16 64.2307 79.2578)
(1.07067e-15 61.9641 81.1448)
(3.66448e-16 54.229 78.3732)
(-6.1255e-16 33.1716 48.8524)
(1.64399e-19 117.579 201.091)
(1.41725e-18 155.692 265.404)
(2.20452e-18 149.031 251.563)
(2.80837e-18 137.623 229.34)
(4.0096e-18 125.815 209.1)
(5.4121e-18 117.638 192.134)
(2.60205e-19 110.414 178.923)
(-5.38513e-18 104.327 166.102)
(-1.46518e-17 97.9752 153.945)
(-2.85099e-17 91.9679 142.094)
(-3.69077e-17 86.0741 130.864)
(-2.71086e-17 80.4276 120.196)
(-3.3464e-18 74.8855 109.993)
(8.40607e-18 69.4176 99.9122)
(-2.23162e-17 63.597 89.7124)
(-1.23524e-16 57.6128 79.1822)
(-3.30295e-16 50.4934 68.9015)
(-6.55485e-16 43.0892 57.7902)
(-8.95958e-16 29.9115 43.4349)
(-8.64838e-16 9.26938 5.62596)
(-8.91803e-20 125.937 215.751)
(-6.16946e-19 165.732 278.612)
(-8.89024e-19 153.195 259.331)
(-9.63341e-19 141.381 233.627)
(-6.48201e-19 129.214 215.028)
(6.11582e-19 122.82 199.036)
(2.65731e-18 115.478 186.402)
(4.45338e-18 109.661 173.064)
(6.72352e-18 103.164 160.381)
(9.63785e-18 96.9938 147.504)
(1.12535e-17 90.5428 134.78)
(9.32641e-18 83.9102 122.062)
(4.88186e-18 76.9085 109.471)
(3.10874e-18 69.6403 96.9538)
(1.0033e-17 61.7609 84.5447)
(3.11395e-17 53.5672 71.6364)
(7.60068e-17 43.5931 57.9069)
(1.6588e-16 32.9965 41.3147)
(3.32413e-16 14.6411 18.6899)
(2.7852e-16 -1.67054 -16.9752)
(3.4543e-20 139.342 241.406)
(2.09947e-19 174.953 289.329)
(2.96088e-19 154.649 265.336)
(3.14118e-19 146.046 239.277)
(1.6052e-19 134.212 224.962)
(-4.64103e-19 130.343 209.834)
(-1.18949e-18 122.84 198.05)
(-1.72172e-18 118.26 184.841)
(-2.21678e-18 112.236 172.393)
(-2.73188e-18 106.5 158.664)
(-2.94391e-18 99.5624 144.113)
(-2.54463e-18 91.7715 128.457)
(-1.81521e-18 82.9063 112.157)
(-1.69603e-18 73.2736 95.338)
(-3.18304e-18 62.5738 78.2734)
(-7.00066e-18 51.2047 60.4712)
(-1.46487e-17 37.47 41.8748)
(-2.73577e-17 23.3159 20.2252)
(-7.35708e-17 0.101632 -5.42683)
(2.81405e-16 -14.5251 -42.4228)
(-1.30039e-20 153.387 272.888)
(-6.47954e-20 176.125 289.491)
(-8.93058e-20 150.661 267.298)
(-9.43613e-20 148.554 246.587)
(-4.98089e-20 135.862 236.577)
(1.48852e-19 134.074 222.397)
(3.66875e-19 125.947 213.135)
(5.10983e-19 123.162 201.57)
(6.06352e-19 116.775 190.485)
(6.71648e-19 110.533 175.475)
(6.63475e-19 100.871 157.792)
(5.58807e-19 89.7103 137.31)
(4.3448e-19 76.7484 115.798)
(4.5211e-19 62.9776 93.5184)
(8.0815e-19 47.865 70.5436)
(1.81807e-18 31.7433 46.1481)
(3.54002e-18 13.0269 20.6484)
(5.29371e-18 -4.84373 -9.94764)
(-4.80435e-17 -30.5892 -36.3571)
(1.48426e-16 -30.7406 -73.2654)
(4.33722e-21 156.15 285.527)
(1.96109e-20 163.601 272.365)
(2.58561e-20 140.929 260.142)
(2.70125e-20 140.815 243.453)
(1.12194e-20 126.367 234.963)
(-5.20105e-20 124.008 222.22)
(-1.11407e-19 114.484 215.387)
(-1.43874e-19 110.984 205.497)
(-1.64197e-19 101.66 194.744)
(-1.84867e-19 91.7279 176.754)
(-1.92051e-19 76.2962 153.939)
(-1.56721e-19 59.8517 127.305)
(-9.15282e-20 42.1012 100.669)
(-8.50265e-20 24.6747 73.9698)
(1.54256e-19 6.61186 46.7284)
(1.60127e-18 -10.8693 19.8383)
(1.60795e-18 -25.8237 -4.69325)
(-7.64823e-18 -37.1194 -27.4704)
(-1.96058e-17 -39.9242 -39.5134)
(2.25734e-18 -18.534 -22.9722)
(-1.4473e-21 145.706 269.01)
(-5.66107e-21 152.177 255.089)
(-7.17147e-21 130.578 244.37)
(-7.09141e-21 129.149 226.226)
(1.7652e-23 113.384 217.57)
(1.94213e-20 109.444 204.034)
(3.44858e-20 98.1103 196.54)
(3.92216e-20 91.9134 185.999)
(3.0055e-20 80.2284 174.385)
(3.08444e-22 67.5065 155.923)
(-3.1418e-20 50.5351 132.635)
(8.54579e-21 33.151 106.142)
(1.88318e-19 15.8558 80.0977)
(3.87418e-19 0.375924 55.7789)
(1.45676e-19 -12.29 34.8679)
(-1.11249e-18 -18.4313 21.7663)
(-3.42411e-18 -12.6083 25.0526)
(-5.80646e-18 8.8692 49.3487)
(-5.98732e-18 38.4845 82.7027)
(-2.15343e-18 40.8441 85.02)
(4.13892e-22 138.323 256.626)
(1.44058e-21 152.261 247.917)
(1.74405e-21 126.166 234.25)
(1.60537e-21 128.443 211.902)
(-5.6301e-22 110.028 203.22)
(-5.30548e-21 108.314 185.228)
(-7.71978e-21 94.7915 175.177)
(-7.19106e-21 89.3704 160.916)
(-7.99199e-21 78.3167 149.136)
(-1.84422e-20 69.3498 133.713)
(-3.43696e-20 57.7127 116.542)
(-9.02898e-21 46.8349 96.8085)
(1.21449e-19 36.6633 77.5435)
(3.18169e-19 30.287 62.5893)
(4.06125e-19 30.5594 58.0389)
(3.21899e-19 39.2058 66.8284)
(3.12618e-19 51.9648 82.7751)
(6.21666e-19 61.7354 98.7703)
(1.26547e-18 67.5479 104.673)
(1.36048e-18 49.5532 87.4881)
(-9.76065e-23 139.216 260.483)
(-3.22186e-22 158.773 252.315)
(-3.74693e-22 129.295 238.905)
(-3.45915e-22 135.089 214.693)
(1.00674e-22 116.147 206.495)
(1.12133e-21 116.465 187.588)
(1.65583e-21 103.89 176.585)
(1.51473e-21 99.736 161.214)
(1.51012e-21 91.1056 149.102)
(3.13259e-21 85.6009 136.464)
(6.03599e-21 79.6597 125.463)
(4.48983e-21 75.1372 114.867)
(-7.47266e-21 71.1027 104.602)
(-2.22517e-20 67.5572 94.1951)
(-1.70579e-20 64.0574 83.7881)
(2.3183e-20 60.3488 74.4851)
(8.07339e-20 56.1201 67.5616)
(1.02865e-19 51.2626 62.9062)
(1.89329e-20 41.2724 54.9218)
(-2.79621e-19 22.6602 29.9724)
(2.05432e-23 142.817 270.997)
(6.50134e-23 163.34 256.276)
(6.98843e-23 132.077 246.144)
(6.25057e-23 140.157 222.285)
(-1.25941e-23 120.979 214.316)
(-1.82845e-22 121.643 196.414)
(-2.49842e-22 110.459 185.592)
(-1.84105e-22 106.462 171.451)
(-1.14456e-22 99.2922 159.448)
(-1.25351e-22 93.8353 146.857)
(2.02882e-22 88.0261 134.937)
(1.86559e-21 82.6585 123.359)
(4.77076e-21 77.3767 112.239)
(5.6513e-21 72.1023 101.081)
(-7.00881e-22 65.9681 89.2474)
(-1.69132e-20 58.6624 75.5824)
(-4.02331e-20 48.3397 59.8982)
(-6.51594e-20 37.4652 42.8744)
(-8.92282e-20 17.5447 19.6633)
(-1.41432e-19 -0.180092 -17.4911)
(-3.85838e-24 142.766 278.304)
(-1.26784e-23 163.365 253.931)
(-1.46552e-23 130.361 249.485)
(-1.27979e-23 140.775 226.191)
(1.06594e-23 120.645 219.105)
(6.25809e-23 121.749 202.129)
(9.58782e-23 110.759 192.064)
(1.12614e-22 107.189 178.888)
(1.76357e-22 100.408 167.922)
(3.29616e-22 95.6899 156.367)
(4.25883e-22 90.5341 145.48)
(1.09933e-22 85.9698 134.513)
(-8.28478e-22 81.1371 123.292)
(-2.05169e-21 75.5931 110.461)
(-2.85785e-21 67.5582 94.5306)
(-2.70724e-21 56.2612 73.3571)
(-8.06144e-22 39.1489 46.9424)
(4.89298e-21 23.0948 22.4277)
(6.18918e-21 -4.57202 -5.4664)
(-9.89838e-20 -16.2055 -45.3108)
(8.05985e-25 134.268 274.858)
(1.79058e-24 158.787 248.476)
(4.40323e-25 122.754 246.831)
(3.39289e-25 130.671 226.441)
(3.1703e-24 112.401 219.171)
(7.92865e-24 110.179 205.139)
(1.5159e-23 100.351 195.494)
(3.62534e-23 95.3232 184.211)
(1.19284e-22 88.6907 174.335)
(3.22712e-22 83.6708 164.376)
(5.93031e-22 78.6729 155.13)
(6.1222e-22 74.318 145.901)
(-2.25948e-22 69.4798 135.692)
(-2.59983e-21 62.8185 121.791)
(-6.91835e-21 51.9022 100.601)
(-1.28781e-20 34.4657 67.7594)
(-1.50994e-20 5.3645 17.5187)
(6.74706e-21 -24.4244 -44.368)
(2.78298e-21 -31.9672 -42.1201)
(-6.76218e-20 -25.8622 -55.8141)
(-1.02597e-25 109.323 255.407)
(-4.18729e-25 148.413 226.818)
(-8.87153e-25 108.196 229.791)
(-4.91558e-25 113.811 214.986)
(1.95961e-24 97.7542 209.504)
(2.81586e-24 92.7178 200.195)
(-3.10827e-24 83.6311 192.957)
(-5.21896e-24 77.1521 185.104)
(3.67462e-23 70.3418 177.75)
(1.69722e-22 64.4374 170.437)
(3.66546e-22 58.8875 163.368)
(4.36893e-22 53.7435 156.226)
(2.58499e-23 48.4227 148.152)
(-1.26775e-21 42.0314 137.267)
(-3.66317e-21 33.4607 120.976)
(-6.74356e-21 21.9739 97.2019)
(-9.0514e-21 8.51189 65.7236)
(-9.2729e-21 -3.72758 29.2357)
(-1.02261e-20 -12.1402 -2.18025)
(-1.62198e-20 -12.4251 -18.9456)
(1.61239e-26 35.9081 158.013)
(1.7329e-27 78.3743 130.688)
(-7.79004e-26 52.6907 138.842)
(-1.35399e-25 52.5244 134.827)
(-3.62778e-25 44.0122 134.869)
(-2.74199e-24 39.5812 133.296)
(-1.18036e-23 34.5029 132.105)
(-3.0371e-23 30.5027 130.57)
(-4.82912e-23 26.8927 128.926)
(-3.03161e-23 23.911 127.086)
(8.169e-23 21.4856 125.137)
(3.36953e-22 19.7301 123.217)
(7.23937e-22 18.754 121.558)
(1.14659e-21 18.6995 120.293)
(1.46632e-21 19.7698 119.124)
(1.56436e-21 21.8072 117.371)
(1.36869e-21 24.3137 114.139)
(9.20649e-22 29.5394 106.495)
(4.74295e-22 33.3332 91.9142)
(2.33379e-22 8.06217 67.3606)
(-2.50469e-26 -35.8922 157.975)
(1.27016e-25 -78.3673 130.65)
(3.33043e-25 -52.6885 138.803)
(3.33012e-25 -52.5301 134.783)
(-3.57775e-25 -44.023 134.82)
(-2.50099e-24 -39.5979 133.243)
(-7.14922e-24 -34.5247 132.048)
(-1.49239e-23 -30.5293 130.507)
(-2.2513e-23 -26.9229 128.855)
(-1.50515e-23 -23.9447 127.008)
(4.1326e-23 -21.5258 125.059)
(1.93093e-22 -19.7837 123.153)
(4.64959e-22 -18.8287 121.519)
(8.08975e-22 -18.7969 120.272)
(1.09671e-21 -19.8812 119.087)
(1.21508e-21 -21.9176 117.278)
(1.18533e-21 -24.4118 113.982)
(1.08949e-21 -29.6162 106.313)
(8.61621e-22 -33.3723 91.772)
(3.519e-22 -8.03887 67.3275)
(1.29395e-25 -109.296 255.34)
(2.38414e-28 -148.354 226.759)
(-3.33948e-25 -108.144 229.732)
(-5.27473e-25 -113.743 214.934)
(-7.20944e-25 -97.6794 209.456)
(-3.17109e-24 -92.6298 200.153)
(-1.07145e-23 -83.5299 192.921)
(-1.68189e-23 -77.0364 185.077)
(7.37479e-24 -70.2105 177.735)
(1.03121e-22 -64.2901 170.439)
(2.59929e-22 -58.7183 163.384)
(3.1772e-22 -53.5333 156.229)
(-4.91476e-23 -48.138 148.081)
(-1.14598e-21 -41.6509 137.058)
(-3.0211e-21 -33.0218 120.645)
(-5.66803e-21 -21.6057 96.9219)
(-9.64675e-21 -8.46156 65.7421)
(-1.56065e-20 3.22301 29.9526)
(-2.11893e-20 11.033 -0.476112)
(-1.67454e-20 11.7047 -17.6077)
(-3.67818e-25 -134.277 274.838)
(6.34201e-26 -158.739 248.53)
(7.89056e-25 -122.757 246.866)
(2.88218e-24 -130.606 226.525)
(8.05299e-24 -112.365 219.264)
(1.53905e-23 -110.098 205.274)
(2.06452e-23 -100.275 195.647)
(2.81614e-23 -95.2175 184.401)
(6.99931e-23 -88.5799 174.558)
(1.92744e-22 -83.5485 164.653)
(3.57144e-22 -78.547 155.463)
(3.01599e-22 -74.1568 146.255)
(-4.39515e-22 -69.2101 135.943)
(-2.24704e-21 -62.3224 121.754)
(-5.00335e-21 -51.1024 100.081)
(-8.0034e-21 -33.0192 66.3554)
(-1.22727e-20 -3.27849 14.3559)
(-2.69555e-20 25.0542 -43.9185)
(-4.50965e-20 32.3773 -42.5651)
(-3.76986e-20 26.004 -55.1539)
(1.54947e-24 -142.982 278.758)
(-4.04674e-25 -163.487 254.224)
(-4.22707e-24 -130.516 249.908)
(-8.43879e-24 -140.954 226.66)
(-9.5068e-24 -120.763 219.622)
(-5.30845e-24 -121.919 202.661)
(3.3173e-24 -110.867 192.646)
(1.88649e-23 -107.326 179.481)
(4.7202e-23 -100.507 168.556)
(5.77981e-23 -95.8037 157.042)
(-1.54279e-23 -90.6554 146.23)