/*--------------------------------*- C++ -*----------------------------------*\
| =========                 |                                                 |
| \\      /  F ield         | OpenFOAM: The Open Source CFD Toolbox           |
|  \\    /   O peration     | Version:  4.1                                   |
|   \\  /    A nd           | Web:      www.OpenFOAM.org                      |
|    \\/     M anipulation  |                                                 |
\*---------------------------------------------------------------------------*/
FoamFile
{
    version     2.0;
    format      ascii;
    class       volScalarField;
    location    "22";
    object      epsilon;
}
// * * * * * * * * * * * * * * * * * * * * * * * * * * * * * * * * * * * * * //

dimensions      [0 2 -3 0 0 0 0];

internalField   nonuniform List<scalar> 
1280
(
0.00419381
0.0020117
0.0035357
0.00356796
0.00168713
0.0030282
0.00302841
0.0030633
0.00152044
0.00275683
0.0026565
0.00222889
0.00768173
0.00243349
0.133294
0.645281
0.692406
3.36272
10.363
67.8039
1663.83
5831.82
10948.7
14836.4
15205.3
13436.3
5122.93
1399.87
873.425
516.689
223.878
80.9715
22.2677
0.433118
0.0610431
0.0248897
0.0111825
0.0291335
1.31902
5.65167
0.14723
0.292659
1.38521
3.01028
5.83534
19.605
30.4238
46.9631
52.8042
66.3454
67.3833
61.0826
57.7048
38.2955
24.8981
9.01013
4.74978
2.56372
1.06547
0.168934
5.68381
1.3444
0.105845
0.000574783
0.0263016
0.101754
0.340516
6.36216
29.4131
123.808
377.729
728.42
1189.18
4830.69
12915.7
14541.9
14024.4
10077
5022.12
1056.4
50.2579
3.69059
0.0197917
0.0126357
0.00142108
0.00165395
0.0022745
0.00232773
0.00126256
0.00267245
0.00262659
0.00148339
0.00300267
0.00296308
0.00295579
0.00162637
0.00343819
0.00340134
0.00193382
0.00410663
3.96728e-09
3.96728e-09
3.96763e-09
3.9676e-09
3.96785e-09
3.96783e-09
3.9682e-09
3.96857e-09
3.96892e-09
3.96925e-09
3.96985e-09
4.5666e-09
0.000103648
0.0258755
0.000658925
3.97841e-09
3.98088e-09
3.99058e-09
8.64466e-06
3.96727e-09
3.96729e-09
3.96747e-09
3.96749e-09
3.96757e-09
3.96767e-09
3.96807e-09
3.96809e-09
3.96822e-09
3.96883e-09
4.36723e-09
4.34998e-06
0.0221474
0.0522021
0.0439769
0.000999476
1.30246e-08
3.97466e-09
8.34691e-06
3.96732e-09
3.96752e-09
3.96745e-09
3.96745e-09
3.96746e-09
3.96764e-09
3.968e-09
3.96807e-09
3.96827e-09
4.313e-09
1.16383e-05
0.000867729
0.0437291
0.201151
1.53624
0.326171
0.000236336
3.9752e-09
8.08154e-06
3.96728e-09
3.96734e-09
3.96741e-09
3.96757e-09
3.96752e-09
3.96763e-09
3.96798e-09
3.9686e-09
4.12785e-09
9.30929e-06
0.000321562
0.00613789
0.0681631
1.77113
12.6621
5.12612
0.00415949
4.23394e-09
8.50896e-06
3.96745e-09
3.96738e-09
3.9674e-09
3.96789e-09
3.96781e-09
3.96812e-09
3.96792e-09
3.97997e-09
1.95647e-06
0.000187924
0.000642775
0.00676912
7.40117
21.363
30.8197
22.5333
0.343819
3.07585e-05
0.000742282
3.96738e-09
3.96735e-09
3.96741e-09
3.96783e-09
3.96752e-09
3.9677e-09
3.9686e-09
3.81959e-08
5.89258e-05
0.00011852
0.00187048
0.501624
22.8455
44.7587
50.5166
47.6029
9.74361
0.463362
5.7269
3.9674e-09
3.96735e-09
3.96739e-09
3.96783e-09
3.9675e-09
3.96768e-09
3.96857e-09
4.09758e-09
9.39278e-06
0.00017748
0.0113688
4.87354
36.7168
67.9057
82.5749
84.7036
75.2588
189.604
1021.21
3.96748e-09
3.96745e-09
3.96744e-09
3.96749e-09
3.96741e-09
3.96747e-09
4.01532e-09
6.26479e-06
0.0227305
0.0694749
1.03076
4.2285
28.4225
61.0804
65.9411
93.4371
99.307
95.5614
179.048
3.96727e-09
3.96736e-09
3.96761e-09
3.96753e-09
3.96745e-09
3.96785e-09
3.96819e-09
3.96802e-09
3.9683e-09
1.42637e-08
0.000266921
0.0670605
8.68476
24.3124
26.7644
81.1117
127.13
196.803
254.454
3.96727e-09
3.96736e-09
3.96759e-09
3.9674e-09
3.96747e-09
3.96769e-09
3.96785e-09
3.9683e-09
3.96789e-09
3.96784e-09
0.00259183
3.70479e-05
0.0410594
0.315557
22.2642
68.498
105.222
166.566
178.456
3.96747e-09
3.96734e-09
3.9673e-09
3.96742e-09
3.96768e-09
3.96773e-09
3.96771e-09
3.96772e-09
4.00318e-09
2.67481e-06
0.0453346
0.237349
0.463634
1.33135
18.7813
57.2376
91.7438
137.556
146.032
3.96745e-09
3.96746e-09
3.96746e-09
3.96741e-09
3.96765e-09
3.96798e-09
3.96771e-09
3.96784e-09
4.19222e-09
1.84929e-05
0.00942116
1.3144
1.82352
23.4114
19.7697
58.5697
94.4437
137.06
154.222
3.96729e-09
3.96738e-09
3.96763e-09
3.9674e-09
3.96766e-09
3.96798e-09
3.96772e-09
4.09227e-09
1.4393e-05
7.01506e-05
0.0519357
7.88243
34.2787
58.5827
58.0176
71.5616
83.8944
109.647
214.83
3.96748e-09
3.96744e-09
3.96748e-09
3.96741e-09
3.96774e-09
3.96811e-09
3.97561e-09
1.18803e-06
0.00168323
0.00476227
0.0353746
4.64785
44.1379
69.079
86.2869
92.7996
114.061
303.273
1129.36
3.96737e-09
3.96758e-09
3.96741e-09
3.9674e-09
3.9676e-09
3.96773e-09
3.96884e-09
6.17062e-08
0.00222434
0.0150295
0.0461267
1.2012
34.1238
67.772
81.411
110.882
143.087
139.457
106.37
3.96723e-09
3.96732e-09
3.96747e-09
3.96785e-09
3.96794e-09
3.96782e-09
3.96786e-09
3.96824e-09
3.9835e-09
1.79575e-06
0.00284573
1.00177
18.3837
64.6203
89.5463
110.261
104.14
13.6088
4.90894
3.96736e-09
3.96735e-09
3.96744e-09
3.96762e-09
3.96786e-09
3.96812e-09
3.96782e-09
3.96808e-09
3.9692e-09
4.00619e-09
4.99379e-06
0.0214922
1.36987
28.1095
70.6824
72.3687
10.3222
0.270897
0.0498278
3.96722e-09
3.96733e-09
3.96749e-09
3.96787e-09
3.96792e-09
3.96772e-09
3.96782e-09
3.96806e-09
3.96881e-09
3.96962e-09
3.97805e-09
5.5766e-07
3.42468e-05
0.241629
19.2398
11.1185
0.15124
0.00320203
7.24414e-05
3.9672e-09
3.96734e-09
3.9675e-09
3.96752e-09
3.9679e-09
3.96771e-09
3.96785e-09
3.96816e-09
3.96883e-09
3.96899e-09
3.96881e-09
3.97954e-09
6.19403e-09
4.15085e-05
0.155497
0.261374
0.00576422
0.000133195
1.48933e-05
3.96728e-09
3.96738e-09
3.96762e-09
3.96748e-09
3.96789e-09
3.96809e-09
3.96819e-09
3.96849e-09
3.96914e-09
3.96881e-09
3.96888e-09
3.97053e-09
3.97087e-09
1.12196e-08
0.000265552
9.46128e-06
6.18255e-09
3.9909e-09
8.71615e-06
14.862
37.6259
56.8439
144.888
141.862
26.29
11.933
15.2788
1.63567
4.96659
2.01062
0.727192
0.199997
7.32017e-05
4.24571e-05
1.61038e-05
1.03271e-06
0.00930642
2.21141
56.5
117.106
32.5325
35.8273
13.6031
2.72948
0.392146
0.0357143
0.00305486
0.000124162
3.52745e-05
1.15715e-05
1.53433e-08
4.08188e-09
4.05354e-09
1.44947e-07
4.10416e-09
2.73976e-08
0.00224338
0.769769
28.9151
105.551
34.0534
61.7194
27.2013
5.4833
0.714995
0.0706494
0.0036917
0.000231227
6.93836e-06
4.47433e-09
4.08721e-09
4.03755e-09
4.039e-09
4.08473e-09
4.08268e-09
1.95786e-08
0.00201917
0.66284
24.7908
115.902
46.4627
115.818
52.0673
10.5825
1.37409
0.131561
0.00914823
0.000317578
6.85253e-06
3.11803e-08
4.07086e-09
4.03982e-09
4.04065e-09
4.06347e-09
4.08214e-09
1.65134e-08
0.00184899
0.619586
16.7566
119.316
68.0421
201.658
96.7046
20.2984
2.57572
0.238327
0.0170279
0.000683075
1.75805e-05
3.04895e-07
4.07135e-09
4.08499e-09
4.0804e-09
4.06343e-09
4.08613e-09
1.53462e-08
0.001801
0.646692
13.3246
124.649
101.698
350.533
175.848
36.7283
4.48887
0.395107
0.029468
0.00150896
3.99525e-05
1.86926e-06
4.11538e-09
4.02838e-09
4.03046e-09
4.02848e-09
4.03032e-09
1.12429e-08
0.00157024
0.682462
7.59943
117.112
150.052
584.617
293.671
56.8333
6.47493
0.561126
0.0434185
0.00291663
7.80976e-05
1.80109e-06
6.90293e-09
4.03254e-09
4.03056e-09
4.02865e-09
4.03174e-09
4.81662e-09
0.000797792
0.581391
5.33868
110.733
207.051
901.412
383.371
68.4229
5.268
0.284338
0.0121241
0.000379505
2.60254e-05
1.26039e-06
1.86326e-08
4.0814e-09
4.06743e-09
4.081e-09
4.07295e-09
4.07655e-09
0.000116272
0.206173
2.57538
93.6438
259.337
1050.71
298.546
16.3321
0.459639
0.0153365
0.000625999
2.69251e-05
9.41202e-07
2.16948e-07
4.03419e-09
4.02852e-09
4.05359e-09
4.07547e-09
4.03248e-09
4.03325e-09
5.49549e-05
0.0994043
1.86235
66.7437
323.256
478.635
24.5367
0.371317
0.0116905
0.000499304
3.0118e-05
2.30063e-06
3.01332e-08
4.06711e-09
4.03321e-09
4.02916e-09
4.05267e-09
4.07674e-09
4.02994e-09
4.02863e-09
9.1051e-05
0.0718745
1.30055
36.428
370.353
35.0277
0.257211
0.00724637
0.00170577
0.000319546
4.06944e-05
4.31518e-06
1.39305e-08
4.07367e-09
4.0753e-09
4.0792e-09
4.05307e-09
4.05423e-09
4.02868e-09
4.03902e-09
0.000198563
0.0860317
1.12951
14.8629
42.2482
0.786502
0.0567584
0.0124288
0.002978
0.000565148
7.4697e-05
9.04564e-06
1.28381e-06
4.52323e-09
4.03846e-09
4.03551e-09
4.03571e-09
4.05458e-09
4.03212e-09
4.21518e-08
0.000486413
0.167175
0.91075
9.79092
4.26649
0.340227
0.0882925
0.0226789
0.00548237
0.00123407
0.000231101
3.37949e-05
3.09709e-06
3.5036e-07
4.19528e-09
4.04061e-09
4.04073e-09
5.15729e-09
1.76455e-08
5.25661e-05
0.00219048
0.437209
0.865068
5.53724
0.544966
0.371555
0.11852
0.0284975
0.00652151
0.0014976
0.00034199
7.33091e-05
7.80761e-06
7.52041e-07
5.7303e-08
4.12699e-09
3.71934e-09
1.72566e-06
3.96759e-05
0.000659106
0.00991899
1.31347
0.791287
3.87427
0.373476
0.235955
0.0412279
0.00506745
0.000834919
0.00015905
3.57472e-05
7.92698e-06
3.28256e-06
5.65385e-07
7.21245e-08
4.18482e-09
7.72647e-09
0.000707274
0.00222162
0.0104876
0.0529648
4.32981
1.05649
1.89987
0.201464
0.0320488
0.00344247
0.000415745
6.93103e-05
1.29702e-05
3.3116e-06
9.63724e-07
2.72729e-07
6.50513e-08
1.17399e-08
2.28948e-06
1.14649e-05
0.00569814
0.0178269
0.081377
0.342203
14.0044
1.97341
1.05048
0.058881
0.00223584
0.000231055
4.39737e-05
1.16995e-05
3.18383e-06
2.24556e-06
1.92284e-06
1.63002e-06
1.38582e-06
1.15014e-06
0.000132926
0.000653381
0.04937
0.159989
0.729846
2.37198
32.3161
4.11689
0.60225
0.0120962
0.000267008
0.000222152
0.000210743
0.000191753
0.000179529
0.000164091
0.000150601
0.000137098
0.000124107
0.000111165
0.000105046
0.0135302
0.402531
1.42854
7.90115
20.7013
93.8265
12.1242
0.347593
0.0492939
0.0262488
0.0247172
0.0241152
0.0232117
0.0224973
0.0217504
0.0210366
0.0203079
0.019559
0.0187838
0.0197052
0.296202
1.77655
7.03433
31.6299
78.9394
43.2448
7.24614
0.269647
6.33356
6.31679
6.31526
6.31468
6.3138
6.31309
6.31236
6.31167
6.31095
6.31022
6.30945
6.30863
6.30756
6.29954
6.29071
6.29144
6.39327
12.8922
0.409406
0.26963
6.33356
6.31679
6.31526
6.31468
6.31379
6.31309
6.31236
6.31167
6.31096
6.31022
6.30945
6.30862
6.30644
6.29367
6.2889
6.29164
6.39351
12.8908
0.409686
0.348237
0.0493594
0.0262499
0.0247189
0.0241172
0.0232142
0.0225001
0.0217535
0.02104
0.0203119
0.0195635
0.0187992
0.0207665
0.449624
1.90547
7.92144
35.6124
87.3756
47.3334
8.01172
0.550054
0.0114927
0.000266411
0.000222201
0.00021108
0.000190622
0.000178514
0.000164113
0.000150651
0.000137158
0.000124189
0.000111209
0.000103191
0.00296932
0.235388
1.03118
7.08614
22.0257
102.179
13.5475
1.17285
0.0651096
0.00258696
0.000246928
5.25129e-05
1.72144e-05
7.26269e-06
2.66169e-06
1.93419e-06
1.62474e-06
1.35489e-06
1.12105e-06
7.85109e-07
3.59335e-05
0.0287963
0.131921
0.731351
2.69721
33.9515
4.68698
1.87123
0.171867
0.038813
0.00651985
0.00121411
0.000300084
8.4278e-05
2.2155e-05
6.70825e-06
2.56783e-06
1.16871e-06
4.24026e-07
1.27226e-07
1.84655e-07
0.00445368
0.0160026
0.0931391
0.396753
13.7053
2.09919
3.60764
0.427078
0.229212
0.0702797
0.0160969
0.0154009
0.0132602
0.0115699
0.00489219
0.00161072
0.000475074
0.0001341
4.9233e-05
0.000127641
0.000590579
0.0044383
0.0131412
0.061681
3.92964
1.15316
5.85246
2.37756
3.71468
3.02914
1.68566
1.0421
0.551475
0.252417
0.09066
0.0278504
0.0077247
0.00164393
0.000403368
2.4456e-07
0.000181181
0.0016597
0.0016536
0.0113719
1.12945
0.966116
178.873
213.522
196.624
128.105
68.8818
33.9311
14.7765
5.99507
1.87317
0.379159
0.0474563
0.0256633
0.0075291
0.0013201
0.000150332
0.000414793
0.000377245
0.00257749
0.387829
0.935858
2156.42
1510.59
1317.54
937.478
568.752
310.776
152.277
64.5229
22.7228
6.27107
1.13997
0.129856
0.00720096
0.00066913
6.40683e-05
8.92278e-05
3.06741e-05
0.00062714
0.158247
1.16523
3702.53
2358.97
2110.85
1550.83
992.473
582.211
314.214
147.918
47.3159
6.36369
0.513027
0.0119355
0.00295987
7.16099e-05
1.049e-05
2.81491e-05
4.14056e-08
0.000154906
0.0950702
1.39305
4004.54
2445.14
2185.59
1618.29
1049.49
630.336
348.251
153.193
16.9505
3.84242
1.18796
0.308882
0.0185846
0.00252032
0.000153047
1.29732e-07
4.08075e-09
6.9169e-05
0.0862781
1.82754
3625.63
2203.26
1995.91
1470.16
953.903
576.065
316.233
108.419
1.19525
0.165
0.0534231
0.0248957
0.0105007
0.00146654
1.83622e-06
4.24431e-09
4.05126e-09
4.7826e-05
0.108708
2.10744
2575.3
1545.25
1442.79
1058.3
684.142
415.245
198.177
7.4652
0.0448868
0.00862259
0.00385675
0.00274812
0.00335231
2.29111e-05
6.09678e-09
4.0782e-09
4.135e-09
0.000159146
0.260413
2.8971
1713.55
1014.43
991.444
720.085
458.899
270.092
105
9.17282
0.00240536
0.00103234
0.00165151
0.000411678
4.81795e-06
2.21697e-08
4.03338e-09
4.08105e-09
1.41757e-08
0.00138879
0.817064
5.67445
1115.22
639.286
664.496
472.762
293.723
157.995
38.0615
4.89481
0.14067
0.00131269
0.000708074
1.01946e-06
7.77533e-09
4.0554e-09
4.02703e-09
4.03172e-09
2.36282e-08
0.00250352
0.806657
8.0007
719.655
389.326
430.846
298.704
179.085
75.8795
14.4974
4.31885
0.239605
0.00469388
4.14386e-06
4.99486e-09
4.03498e-09
4.04221e-09
4.05164e-09
4.02854e-09
3.48515e-08
0.00252913
0.723024
13.9814
470.778
236.309
272.532
182.975
103.446
32.6878
5.00343
1.17588
0.0993876
1.70455e-05
6.03248e-09
4.02997e-09
4.02964e-09
4.05552e-09
4.0447e-09
4.05619e-09
3.71477e-08
0.00278536
0.683486
17.3483
303.26
134.059
158.98
108.428
56.9616
12.442
1.4832
0.0586087
0.00282638
9.43823e-08
3.62019e-09
4.04315e-09
4.03268e-09
4.05474e-09
4.0445e-09
4.05584e-09
2.63319e-08
0.00269311
0.715033
25.1602
236.896
112.141
97.0093
56.1507
28.1302
7.58882
1.05375
0.0394244
0.00159786
2.73696e-05
5.23365e-06
4.26779e-09
4.03439e-09
4.05531e-09
4.05562e-09
4.06877e-09
4.64831e-08
0.00277647
0.812715
29.1888
115.62
79.6256
44.8199
72.0151
150.641
25.2927
29.743
16.614
6.54186
3.39232
1.1119
0.264154
0.0571384
4.17909e-06
2.23493e-06
8.74683e-06
9.50046e-07
0.0100468
2.2694
56.8003
)
;

boundaryField
{
    outletWall
    {
        type            zeroGradient;
    }
    fineWalls
    {
        Cmu             0.09;
        kappa           0.41;
        E               9.8;
        type            epsilonWallFunction;
        value           nonuniform List<scalar> 
60
(
67.8039
10.363
3.36272
0.692406
0.645281
0.133294
0.00243349
0.00768173
0.00222889
0.0026565
0.00275683
0.00152044
0.0030633
0.00302841
0.0030282
0.00168713
0.00356796
0.0035357
0.0020117
0.00419381
0.168934
1.06547
2.56372
4.74978
9.01013
24.8981
38.2955
57.7048
61.0826
67.3833
66.3454
52.8042
46.9631
30.4238
19.605
5.83534
3.01028
1.38521
0.292659
0.14723
0.00410663
0.00193382
0.00340134
0.00343819
0.00162637
0.00295579
0.00296308
0.00300267
0.00148339
0.00262659
0.00267245
0.00126256
0.00232773
0.0022745
0.00165395
0.00142108
0.0126357
0.0197917
3.69059
50.2579
)
;
    }
    fineFrontAndBack
    {
        type            zeroGradient;
    }
    fineplugLeft
    {
        type            cyclicAMI;
        value           nonuniform List<scalar> 
20
(
46.3303
2.03293
0.0132718
0.00223733
0.00499082
0.0122426
0.0866822
4.61354
16.776
46.3842
107.311
175.994
292.196
593.094
2708.29
3154.54
3083.19
2235.23
1196.47
344.656
)
;
    }
    fineplugRight
    {
        type            cyclicAMI;
        value           nonuniform List<scalar> 
20
(
46.577
2.0844
0.0292064
0.000115717
0.00526732
0.0203526
0.0681065
1.31814
6.09394
25.651
78.2596
150.918
251.128
575.649
2603.37
3028.89
2862.49
2051.25
1068.12
303.776
)
;
    }
    inletOutletLeft
    {
        type            cyclicAMI;
        value           nonuniform List<scalar> 
20
(
46.3303
2.03293
0.0132718
0.00223733
0.00499082
0.0122426
0.0866822
4.61354
16.776
46.3842
107.311
175.994
292.196
593.094
2708.29
3154.54
3083.19
2235.23
1196.47
344.656
)
;
    }
    inletLeft
    {
        type            fixedValue;
        value           uniform 2180.89;
    }
    inletWallsLeft
    {
        Cmu             0.09;
        kappa           0.41;
        E               9.8;
        type            epsilonWallFunction;
        value           nonuniform List<scalar> 
40
(
0.269647
0.347593
0.60225
1.05048
1.89987
3.87427
5.53724
9.79092
14.8629
36.428
66.7437
93.6438
110.733
117.112
124.649
119.316
115.902
105.551
117.106
14.862
56.5
28.9151
24.7908
16.7566
13.3246
7.59943
5.33868
2.57538
1.86235
1.30055
1.12951
0.91075
0.865068
0.791287
1.05649
1.97341
4.11689
12.1242
7.24614
0.409406
)
;
    }
    inletFacesLeft
    {
        type            zeroGradient;
    }
    inletOutletRight
    {
        type            cyclicAMI;
        value           nonuniform List<scalar> 
20
(
46.577
2.0844
0.0292064
0.000115717
0.00526732
0.0203526
0.0681065
1.31814
6.09394
25.651
78.2596
150.918
251.128
575.649
2603.37
3028.89
2862.49
2051.25
1068.12
303.776
)
;
    }
    inletRight
    {
        type            fixedValue;
        value           uniform 2180.89;
    }
    inletWallsRight
    {
        Cmu             0.09;
        kappa           0.41;
        E               9.8;
        type            epsilonWallFunction;
        value           nonuniform List<scalar> 
40
(
115.62
236.896
303.26
470.778
719.655
1115.22
1713.55
2575.3
3625.63
4004.54
3702.53
2156.42
178.873
5.85246
3.60764
1.87123
1.17285
0.550054
0.348237
0.26963
0.409686
8.01172
13.5475
4.68698
2.09919
1.15316
0.966116
0.935858
1.16523
1.39305
1.82754
2.10744
2.8971
5.67445
8.0007
13.9814
17.3483
25.1602
29.1888
56.8003
)
;
    }
    inletFacesRight
    {
        type            zeroGradient;
    }
}


// ************************************************************************* //
