/*--------------------------------*- C++ -*----------------------------------*\
| =========                 |                                                 |
| \\      /  F ield         | OpenFOAM: The Open Source CFD Toolbox           |
|  \\    /   O peration     | Version:  4.1                                   |
|   \\  /    A nd           | Web:      www.OpenFOAM.org                      |
|    \\/     M anipulation  |                                                 |
\*---------------------------------------------------------------------------*/
FoamFile
{
    version     2.0;
    format      ascii;
    class       surfaceScalarField;
    location    "22";
    object      phi;
}
// * * * * * * * * * * * * * * * * * * * * * * * * * * * * * * * * * * * * * //

dimensions      [0 3 -1 0 0 0 0];

internalField   nonuniform List<scalar> 
2360
(
33712.5
38433
-4720.55
38433
38433
44868.9
-6435.88
44868.9
44868.9
44868.9
55002.5
-10133.6
55002.5
55002.5
70093.7
-15091.2
70093.7
70093.6
95398.5
-25304.8
95398.5
95398.5
130412
-35013.8
130412
130412
137175
150572
165698
180352
193880
206265
175942
41985.5
186727
196753
206091
214804
222940
230537
237622
244209
250314
255975
261305
266301
270426
135119
135308
135119
135119
135119
34478.4
100640
34478.4
34478.4
34478.4
-2861.93
37340.4
-2861.92
-2861.94
-28364.8
25502.9
-28364.9
-28364.8
-28364.9
-116221
87856.3
-116221
-116221
-116221
-246901
130680
-240483
-232353
-223831
-215453
-207239
-199085
-190867
-182501
-173907
-165027
-155838
-146368
-136665
-168261
41439
-158273
-147884
-137008
-125711
-114461
-106340
-106340
-106340
-61043.6
-45296
-61043.6
-61043.6
-28294.3
-32749.3
-28294.3
-28294.3
-2535.48
-25758.8
-2535.48
-2535.46
19654.1
-22189.6
19654.2
19654.1
19654.2
41398.3
-21744.2
41398.3
41398.3
65866.8
-24468.5
-33762.8
44299.1
-30745.8
108400
-27402.5
122130
-23666.4
135694
-20342
138864
-17094.3
128439
-9814.45
94587.9
2003.88
-42103.9
5132.97
-103686
-1377.52
-107817
426.07
-97335.3
13461.2
-18242.5
21979.9
86153.5
28727.5
117187
31816.2
117091
31486.2
96999.6
29709.9
62461.9
28502
32549.9
-14922.3
-33033.9
42962.8
-30588.8
105955
-27644.9
119186
-24263.6
132313
-21266.1
135866
-17896.7
125070
-7148.8
83840
2851.43
-52104.2
-1120.46
-99714
-11176.8
-97760.6
-10672.7
-97839.4
4795.21
-33710.4
17084
73864.7
24995.5
109275
29625.7
112461
30528.9
96096.4
29675.3
63315.5
26598.3
35626.8
-10068.1
-31092.7
41589.1
-29905.3
104768
-28126.1
117407
-25244.3
129431
-22893.7
133516
-19820.3
121996
-7408.49
71428.2
-976.633
-58536
-9218.04
-91472.6
-19189.9
-87788.7
-21376.5
-95652.9
-7452.68
-47634.2
8001.84
58410.2
18035.1
99241.9
24927.2
105569
27946.7
93077
28744.6
62517.6
25967.5
38404
-6290.28
-28064.1
40300.8
-28600.3
105304
-28765.3
117572
-26771.2
127437
-25272.1
132017
-22657.1
119381
-10264.5
59035.6
-8204.02
-60596.5
-19462.9
-80213.7
-30605.4
-76646.2
-36097.8
-90160.4
-24026.1
-59705.9
-4651.76
39035.8
8322.68
86267.4
17150.4
96740.8
23240.2
86987.2
26528.8
59228.9
26304.2
38628.6
-5744.96
-25701.8
38476.9
-27012.9
106615
-29312.8
119872
-28780.4
126904
-28322.2
131558
-26150.6
117209
-16052.4
48937.4
-19924.7
-56724.2
-33250.1
-66888.3
-43990.6
-65905.7
-52513.2
-81637.8
-46299.2
-65919.9
-23307.9
16044.5
-5530.32
68489.9
6111.92
85098.6
16579
76520.2
23254.9
52553
28321
33562.5
-10173.2
-25825.7
35503.7
-26172.2
106962
-29698.6
123398
-30982.6
128188
-31863.4
132439
-30540.3
115886
-26155.2
44552.3
-37050.6
-45828.9
-50365.5
-53573.4
-58481.8
-57789.5
-69835.7
-70283.9
-73351.3
-62404.3
-52536.2
-4770.68
-29257
45210.8
-10623.7
66465.2
6845.58
59051
17314.2
42084.4
32075.8
18800.8
-23393.5
-29570.5
31299.4
-27491.2
104882
-30433.6
126341
-33126.6
130881
-35503.6
134816
-36283.4
116666
-41460.3
49729.2
-60169.4
-27119.8
-73148.7
-40594.1
-80723.1
-50215
-95156.8
-55850.3
-103777
-53783.7
-88113.6
-20434.4
-63944.2
21041.4
-38329.5
40850.5
-11853.8
32575.2
13195.2
17035.4
21740.9
10255.1
39786.4
-37117.3
26177.1
-32001
99766.1
-32522.5
126862
-35347.9
133707
-38951.4
138420
-43557.4
121272
-58930.3
65102.2
-83989.7
-2060.41
-100053
-24530.4
-112573
-37695
-123799
-44625
-131033
-46549
-124886
-26581.6
-107288
3443.76
-87396.1
20958.1
-71963.2
17142.3
-68640.4
13712.6
-90319.7
31934.4
80146.2
-47705.3
20694.2
-39897.8
91958.6
-36975.3
123940
-38301.9
135033
-42015.2
142133
-48847.7
128105
-66518.8
82773.3
-91005.6
22426.3
-107202
-8333.7
-121579
-23318.7
-137010
-29193.7
-151045
-32513.8
-155578
-22048.4
-149322
-2812.41
-138615
10250.8
-129872
8399.36
-123124
6964.86
-114515
23325.4
53487.3
-60198.2
15487.6
-50646.9
82407.3
-44343.5
117636
-42954.6
133645
-45263.2
144441
-52517.6
135359
-70237.2
100493
-94011
46200.1
-109682
7336.98
-123309
-9691.74
-138582
-13920.2
-152461
-18635.1
-159344
-15165.7
-156887
-5269.37
-147315
679.186
-134161
-4754.89
-115154
-12042.2
-82717
-9111.27
-3726.78
-73489.8
11059.6
-63226.5
72144
-54451.2
108861
-50008.4
129202
-49592.7
144026
-55333
141099
-70896.3
116056
-91205.5
66509.3
-104174
20305.4
-115975
2109.34
-129240
-655.214
-140001
-7874.4
-145236
-9930.55
-143365
-7140.11
-135810
-6876.24
-127095
-13469.6
-115172
-23965
-88898.5
-35384.9
-55284.9
-86845.3
7606.97
-76439.2
61737.9
-66245.2
98667
-59222.5
122179
-55603.8
140407
-58522.5
144018
-69927.3
127461
-83018.5
79600.5
-89039.8
26326.6
-96280.8
9350.31
-104733
7797
-108385
-4222.47
-106842
-11473.6
-101799
-12183.2
-97285.9
-11389.1
-100336
-10419.5
-113963
-10338.5
-123560
-25787.7
-78204.4
-100719
5476.67
-90458
51477.4
-79222.2
87431.2
-70336.9
113294
-64227.5
134298
-64116.1
143907
-68758.4
132103
-69104.7
79946.7
-64222.6
21444.5
-66679.2
11806.9
-71649.9
12767.7
-71418.7
-4453.62
-66337.8
-16554.5
-57406
-21115
-47868
-20927.1
-44747.1
-13540.5
-62348.4
7262.86
-99582.6
11446.5
-42479.1
-115975
6056.97
-107844
43346.5
-96604
76191
-87025
103715
-79393.7
126666
-74562.6
139076
-66690.9
124232
-49289.7
62545.6
-36812.9
8967.76
-39532.8
14526.7
-42996.7
16231.7
-41049.1
-6401.25
-36015.4
-21588.2
-28205.2
-28925.2
-19020
-30112.2
-6991.4
-25569.1
6343.25
-6071.8
13357.1
4432.69
12863.5
-130070
11256.5
-128516
41792.1
-120882
68557.7
-111854
94686.3
-100229
115042
-83650.9
122497
-56183.5
96764.2
-23178.9
29541
-13473.7
-737.511
-21142.7
22195.8
-24258.1
19347
-20369.4
-10289.9
-13831.7
-28126
-7713.58
-35043.3
-2649.08
-35176.7
2910.8
-31129
9390.82
-12551.8
24337.8
-10514.3
2187.46
-136598
21036.4
-143158
48352.4
-140126
65525.8
-128826
83386.1
-106756
92971.3
-73777.5
89518.8
-32415.5
55402.3
-3442.92
568.454
-1441.83
-2738.6
-7172.83
27926.8
-9395.03
21569.2
-4448.59
-15236.3
1801.1
-34375.6
4569.96
-37812.2
5869.72
-36476.5
6881.07
-32140.3
8018.28
-13689
18406.3
-20902.3
-4711.02
-131863
32957.1
-141441
57930.2
-135921
60005.7
-115146
62611.2
-81593.5
59418.8
-43198
51123.3
-8341.52
20545.8
3862.39
-11635.5
3269.07
-2145.28
3929.66
27266.2
4796.64
20702.2
7377.43
-17817.1
9642.42
-36640.6
10186.5
-38356.3
8979.65
-35269.6
7981.37
-31142
8226.27
-13933.9
12908.3
-25584.4
-6893.91
-117043
43193.7
-121219
62105.9
-103988
42774.1
-71943.4
30567
-39608.5
27083.9
-15544.2
27059
-5177.54
10179.2
-4816.11
-11996.9
2384.26
-9345.65
10023.2
19627.2
12575.7
18149.7
12837
-18078.4
11441.4
-35245
9786.38
-36701.2
7884.14
-33367.4
7410.22
-30668.1
8599.87
-15123.6
10604.6
-27589.1
-6422.92
-98697.3
49320.1
-92181
55589.6
-62962.3
13555.4
-33184.5
789.264
-16780.2
10679.6
-9723.44
20002.3
-8795.6
9251.31
-8911.57
-11880.9
-508.94
-17748.3
9999.59
9118.69
14263.5
13885.8
13469.8
-17284.6
10552.7
-32328
8380.86
-34529.3
7085.52
-32072.1
7787.12
-31369.7
8836.38
-16172.9
9603.87
-28356.6
-3254.93
-70433.6
-63245.3
-45354.3
-32548.6
-23380.6
-16991.1
-14208.4
-11945.7
-5604.47
4353.04
10151.4
10904.2
9946.42
9038.34
8408.94
8861.14
8757.62
8813.28
745.045
-7507.38
3110.02
-15761.8
5443.25
-17460
7352.42
-16562.3
8885.45
-15061.2
10151.1
-13650.5
10900.1
-12412
11472.9
-11357.9
11838.3
-10391
11988.5
-9488.24
11916.4
-8641.27
11624.2
-7843.71
11118.9
-7091.45
10409.5
-6375.2
9510
-5687.83
8418.27
-5012.61
7105.14
-4348.3
5443.6
-3667.97
3192.48
-2744.85
-933.344
2348.38
-9855.71
4027.9
-17441.3
4869.67
-18301.8
5375.67
-17068.2
5937.91
-15623.4
6637.75
-14350.2
7457.85
-13232
8246.49
-12146.5
8924.89
-11069.3
9433.23
-9996.54
9732.69
-8940.7
9798.48
-7909.46
9617.85
-6910.79
9184.78
-5942.09
8501.58
-5004.59
7554.55
-4065.55
6317.13
-3110.86
4673.98
-2024.8
2571.35
-642.176
1638
3681.47
-13537.1
5488.48
-19248.2
6118.64
-18931.9
6646.03
-17595.6
7437.35
-16414.7
8420.79
-15333.6
9446.95
-14258.2
10385.9
-13085.5
11173
-11856.4
11769.3
-10592.7
12145.2
-9316.59
12265.7
-8029.96
12093.4
-6738.45
11587.3
-5435.93
10704.5
-4121.85
9386.09
-2747.08
7511.6
-1236.33
4922.16
564.667
2419.53
1860.49
4057.54
3238.46
-16775.6
3553.11
-19562.9
3285.09
-18663.9
3299.7
-17610.2
3613.32
-16728.3
4076.82
-15797.1
4527.15
-14708.5
4863.35
-13421.7
5073.93
-12067
5149.24
-10668
5067.35
-9234.67
4788.76
-7751.34
4274.44
-6224.11
3502.8
-4664.25
2494
-3113.01
1374.83
-1627.84
387.039
-248.417
-290.355
1242.19
-943.046
2513.26
3114.49
214.379
-16989.9
-1267.82
-18080.6
-2540.88
-17390.8
-3572.19
-16578.8
-4554.05
-15746.4
-5511.71
-14839.4
-6494.23
-13725.9
-7497.96
-12417.9
-8513.64
-11051.2
-9546.67
-9634.93
-10608.7
-8172.63
-11698.3
-6661.7
-12787.7
-5134.69
-13791.6
-3660.24
-14535.5
-2369.15
-14674.5
-1488.8
-13686.3
-1236.52
-10865
-1579.15
-5967.58
-2384.07
-2853.09
-2036.42
-14953.5
-3684.18
-16432.9
-5316.23
-15758.7
-7092.82
-14802.2
-9081.29
-13758
-11143.6
-12777.1
-13154.1
-11715.4
-15074.8
-10497.2
-16925.7
-9200.36
-18733.1
-7827.48
-20481.6
-6424.14
-22077.9
-5065.42
-23303.9
-3908.65
-23772
-3192.11
-22978.8
-3162.36
-20524.3
-3943.28
-16282.1
-5478.75
-10467.8
-7393.43
-4240.99
-8610.87
-7094.08
-1386.73
-13566.7
-1868.17
-15951.4
-2570.49
-15056.4
-3535.5
-13837.2
-4686.97
-12606.5
-5914.75
-11549.3
-6999.24
-10630.9
-7859.49
-9636.98
-8439.46
-8620.37
-8714.03
-7552.89
-8655.88
-6482.27
-8255.57
-5465.71
-7507.64
-4656.56
-6388.14
-4311.59
-4868.01
-4682.47
-3012.82
-5798.45
-1179.47
-7312.08
57.5969
-8630.48
275.017
-8828.27
-6819.06
-97.0355
-13469.7
489.216
-16537.7
958.511
-15525.7
1185.65
-14064.3
1401.72
-12822.6
1626.18
-11773.8
1949.55
-10954.2
2432.7
-10120.1
3151.2
-9338.88
4164.95
-8566.65
5502.83
-7820.16
7121.67
-7084.57
8842.92
-6377.82
10304.4
-5773.07
11010.7
-5388.83
10547
-5334.75
8815.51
-5580.55
6072.72
-5887.71
2957.7
-5713.26
-3861.36
380.401
-13850.1
1240.92
-17398.1
1880.75
-16165.5
2267.57
-14451.1
2771.83
-13326.8
3336.75
-12338.7
3926.36
-11543.8
4509.76
-10703.5
5096.4
-9925.49
5692.77
-9162.96
6310.92
-8438.29
6963.33
-7736.93
7636.95
-7051.42
8235.36
-6371.44
8556.19
-5709.66
8312.95
-5091.5
7292.38
-4559.98
5420.93
-4016.26
2930.5
-3222.84
-930.86
793.43
-14643.5
1501.51
-18106.2
1877.67
-16541.6
2154.81
-14728.3
2615.42
-13787.4
3077.58
-12800.8
3547.9
-12014.1
3981.34
-11136.9
4391.4
-10335.6
4751.42
-9522.97
5048.7
-8735.58
5265.51
-7953.72
5395.77
-7181.69
5431.42
-6407.08
5347.14
-5625.39
5057.93
-4802.3
4433.56
-3935.62
3335.91
-2918.63
1691.8
-1578.76
760.937
1335.22
-15978.7
1746.82
-18517.8
1996.17
-16791
2412.54
-15144.6
3004.13
-14379
3563.73
-13360.4
4158.67
-12609.1
4753.02
-11731.2
5375.9
-10958.4
5977.28
-10124.3
6512.4
-9270.69
6903.31
-8344.63
7085.64
-7364.02
7007.84
-6329.27
6642.01
-5259.56
5964.88
-4125.16
4954.55
-2925.29
3596.39
-1560.47
1837.44
180.18
2598.38
1607.58
-17586.3
1495.75
-18406
1716.09
-17011.4
2199.42
-15628
2822.34
-15001.9
3451.83
-13989.9
4194.93
-13352.2
5008.17
-12544.5
5931.26
-11881.5
6864.12
-11057.2
7711.04
-10117.6
8323.43
-8957.05
8612.71
-7653.31
8520.32
-6236.91
8011.39
-4750.66
6996.17
-3109.97
5251.98
-1181.13
3175.21
516.266
1388.64
1966.71
3987.01
853.279
-18439.6
94.2549
-17647
-45.1033
-16872
-39.5262
-15633.6
48.7489
-15090.2
182.507
-14123.7
427.729
-13597.4
769.695
-12886.5
1212.56
-12324.4
1638.19
-11482.9
1907.24
-10386.7
1875.15
-8924.98
1505.53
-7283.69
830.828
-5562.23
-44.2593
-3875.58
-912.625
-2241.62
-1430
-663.768
-1848.88
935.127
-1831.97
1949.79
2155.05
-400.852
-18038.8
-1333.65
-16714.3
-1989.39
-16216.3
-2696.59
-14926.5
-3381.6
-14405.2
-4099.54
-13405.8
-4819.64
-12877.4
-5548.89
-12157.3
-6290.85
-11582.5
-7057.98
-10715.8
-7878.94
-9565.76
-8747.58
-8056.39
-9652.26
-6379.02
-10572.5
-4642.04
-11430.2
-3017.89
-11935.7
-1736.16
-11510.3
-1089.12
-9299.25
-1275.96
-5116.42
-2233.05
-2961.37
-603.158
-17435.7
-1245.7
-16071.8
-1856.52
-15605.5
-2667.74
-14115.3
-3446.71
-13626.3
-4391.54
-12461
-5418.45
-11850.5
-6604.13
-10971.7
-7889.09
-10297.5
-9153.32
-9451.62
-10201
-8518.05
-10844.4
-7413.1
-10983.1
-6240.27
-10585
-5040.14
-9673.99
-3928.96
-8256.15
-3154.01
-6260.93
-3084.35
-3705.12
-3831.79
-1260.37
-4677.8
-4221.74
153.293
-17589
140.616
-16059.2
244.31
-15709.3
244.931
-14116
271.403
-13652.8
248.518
-12438.2
164.891
-11766.9
10.9179
-10817.8
-217.69
-10069
-411.246
-9258.17
-418.779
-8510.6
-82.6081
-7749.38
675.442
-6998.41
1875.64
-6240.45
3433.47
-5486.87
5002.83
-4723.43
5889.38
-3970.93
5289.24
-3231.67
3047.11
-2435.72
-1174.63
115.682
-17704.7
80.99
-16024.5
210.369
-15838.7
453.9
-14359.5
694.019
-13893
1096.58
-12840.8
1509.51
-12179.9
2041.82
-11350.2
2615.24
-10642.5
3266.39
-9909.36
3977.86
-9222.09
4771.2
-8542.75
5643.62
-7870.86
6561.95
-7158.8
7402.83
-6327.77
7889.59
-5210.21
7605.87
-3687.22
6026.44
-1652.27
3291.27
299.423
2116.64
-1029.76
-16675
-2176.55
-14877.8
-3002.52
-15012.7
-3494.19
-13867.9
-3901.98
-13485.2
-4016.82
-12726
-4012.73
-12184
-3804.02
-11558.9
-3455.1
-10991.4
-2955.87
-10408.6
-2338.43
-9839.55
-1613.49
-9267.73
-790.391
-8693.99
121.93
-8071.15
1064.55
-7270.43
1872.72
-6018.41
2236.52
-4051.05
1887.61
-1303.39
856.152
1330.84
2972.79
-2101.75
-14573.3
-4456.76
-12522.8
-6784.17
-12685.3
-8695.8
-11956.3
-10498.3
-11682.7
-11965.9
-11258.5
-13224.2
-10925.7
-14211.8
-10571.3
-14969.7
-10233.6
-15487.7
-9890.61
-15779.2
-9548.03
-15844
-9202.94
-15682.9
-8855.06
-15268
-8486.12
-14512
-8026.4
-13202.5
-7327.94
-11050.7
-6202.88
-7821.24
-4532.82
-3943.9
-2546.51
-971.112
-5473.29
-8896.08
-12481.4
-15337.7
-17920.4
-20079
-21904.6
-23376
-24509.5
-25300.2
-25748.2
-25851.1
-25606.2
-24992.3
-23918.7
-22146.7
-19249.6
-14682.4
-8128.89
-5472.54
14572.5
-8895.37
12522.8
-12480.8
12685.4
-15337.6
11956.8
-17921
11683.4
-20080.5
11259.5
-21907.3
10926.8
-23379.9
10572.6
-24514.8
10235
-25307.1
9892.21
-25757.1
9550.05
-25862.9
9205.77
-25621.9
8858.97
-25012.1
8490.17
-23939.1
8027.04
-22159.2
7320.09
-19246.1
6186.94
-14667.2
4521.09
-8118.43
2551.2
981.575
-2106.85
16679.4
-4466.71
14882.6
-6799.09
15017.8
-8716.17
13873.9
-10524.4
13491.6
-11998.1
12733.2
-13263.2
12191.9
-14258
11567.4
-15023.6
11000.6
-15549.7
10418.3
-15849.6
9849.91
-15923.2
9279.34
-15771.8
8707.62
-15366.8
8085.11
-14616.9
7277.16
-13302.6
6005.8
-11132.3
4016.62
-7870.48
1259.25
-3956.25
-1363.05
-2974.67
-1033.37
17712.7
-2185.42
16034.7
-3015.25
15847.6
-3512.34
14370.9
-3924.43
13903.7
-4045.7
12854.4
-4047.62
12193.8
-3846.92
11366.7
-3505.96
10659.6
-3014.61
9926.91
-2402.81
9238.08
-1680.37
8556.88
-856.268
7883.51
58.8379
7169.98
1001.65
6334.33
1803.29
5204.14
2157
3662.89
1812.31
1603.92
807.117
-357.886
-2167.55
124.316
17588.4
85.5839
16073.4
217.293
15715.9
468.977
14119.2
715.067
13657.6
1127.95
12441.5
1552.16
11769.6
2101.66
10817.2
2695.79
10065.5
3369.35
9253.34
4096.27
8511.16
4889.45
7763.69
5733.2
7039.75
6593.21
6309.97
7367.65
5559.89
7798.09
4773.69
7480.39
3980.59
5893.79
3190.5
3186.94
2348.96
1019.39
188.885
17399.5
233.071
16029.2
380.846
15568.1
436.171
14063.9
518.374
13575.3
562.513
12397.3
549.538
11782.5
476.748
10889.9
335.041
10207.1
230.743
9357.6
303.244
8438.64
699.815
7367.08
1495.57
6243.97
2712.65
5092.86
4242.47
4030.06
5694.49
3321.65
6355.18
3319.89
5500.85
4044.83
3113.87
4735.94
4133.25
-524.993
17924.5
-1125.5
16629.7
-1662.25
16104.9
-2389.86
14791.5
-3101.25
14286.7
-3962.31
13258.4
-4907.41
12727.6
-6000.5
11983
-7198.63
11405.3
-8376.94
10535.9
-9331.15
9392.85
-9862.21
7898.14
-9871.63
6253.4
-9341.45
4562.67
-8316.32
3004.94
-6828.45
1833.79
-4878.88
1370.33
-2624.57
1790.54
-734.276
2845.65
3398.98
-279.72
18204.2
-1107.99
17457.9
-1703.98
16700.8
-2441.69
15529.1
-3055.94
14901
-3773.33
13975.8
-4456.01
13410.3
-5185.92
12712.9
-5926.44
12145.8
-6704.99
11314.4
-7559.61
10247.5
-8496.04
8834.55
-9474.95
7232.31
-10467.8
5555.54
-11373.7
3910.81
-11852.9
2313
-11249.6
767.057
-8872.32
-586.731
-4723.93
-1302.71
-1324.95
856.495
17347.7
899.809
17414.6
1147.96
16452.7
1263.11
15414
1566.58
14597.5
1783.87
13758.5
2120.49
13073.7
2450.12
12383.2
2834.15
11761.8
3123.41
11025.2
3209.59
10161.3
2958.36
9085.78
2351.94
7838.74
1426.71
6480.79
285.379
5052.17
-877.019
3475.44
-1788.92
1679.03
-2208.56
-167.037
-1995.68
-1515.56
-3320.63
1357.61
15990.1
2370.19
16402
3324.53
15498.3
4133.03
14605.5
4943.77
13786.8
5688.18
13014
6453.54
12308.3
7181.82
11655
7902.45
11041.1
8551.55
10376.1
9106.51
9606.37
9463.03
8729.26
9518.05
7783.72
9216.3
6782.54
8529.03
5739.44
7377.12
4627.35
5613.03
3443.13
3323.94
2122.05
1329.09
479.301
-1991.54
1172.19
14817.9
2311.06
15263.2
3229.97
14579.4
3933.99
13901.5
4514.59
13206.2
5021.49
12507.1
5492.22
11837.6
5905.29
11241.9
6255.15
10691.3
6549.29
10081.9
6802.19
9353.48
6959.27
8572.19
6956.51
7786.49
6741.67
6997.39
6285.75
6195.37
5566.38
5346.72
4569.46
4440.06
3302.26
3389.26
1772.67
2008.9
-218.868
751.824
14066.1
1550.7
14464.3
2038.12
14092
2306.73
13632.9
2496.82
13016.1
2744.93
12259
3147.57
11434.9
3742.03
10647.4
4348.88
10084.4
4758.42
9672.4
4951.37
9160.53
5034.65
8488.92
5043.26
7777.88
4961.91
7078.74
4749.07
6408.22
4335.9
5759.89
3651.61
5124.36
2650.34
4390.53
1324.93
3334.32
1106.06
259.049
13807
383.716
14339.6
159.08
14316.6
-233.952
14025.9
-587.898
13370
-652.415
12323.6
-165.734
10948.3
895.434
9586.28
2243.84
8736.05
3696.56
8219.71
5020.82
7836.28
6134.3
7375.45
6985.84
6926.35
7472.54
6592.05
7501.85
6378.92
6970.23
6291.52
5851.64
6242.96
4195.11
6047.05
2206.8
5322.64
3312.86
-407.099
14214.1
-1161.88
15094.4
-2213.98
15368.8
-3377.38
15189.3
-4505.82
14498.5
-5379.08
13196.8
-5709.75
11279
-5415.46
9291.99
-4540.39
7860.99
-3131.58
6810.91
-1427.45
6132.16
407.29
5540.73
2336.58
4997.08
4174.43
4754.22
5605.1
4948.26
6233.22
5663.41
5806.09
6670.1
4345.26
7507.88
2204.37
7463.54
5517.24
-1587.15
15801.3
-3172.06
16679.3
-4779.23
16975.9
-6390.36
16800.4
-8106.56
16214.7
-9984.7
15075
-11951.8
13246
-13746.9
11087.1
-15157.3
9271.44
-16213.8
7867.37
-16934.3
6852.65
-17249.2
5855.7
-16986
4733.84
-15960.6
3728.79
-14020.5
3008.21
-11120.3
2763.24
-7597.2
3146.99
-4141.88
4052.57
-1414.54
4736.21
4102.7
-736.565
16537.8
-1921.22
17864
-2655.43
17710.1
-3117.86
17262.9
-3592.51
16689.3
-4379.76
15862.2
-5726.77
14593.1
-7567.74
12928.1
-9634.06
11337.8
-11710.4
9943.68
-13638
8780.26
-15445
7662.76
-17139.5
6428.35
-18499.9
5089.17
-19106.6
3614.91
-18423.2
2079.84
-16037.4
761.157
-11644.8
-340.042
-5697.79
-1210.75
-1595.09
1710.42
14827.4
2038.27
17536.1
2875.38
16873
4160.71
15977.5
5653.03
15197
7050.32
14464.9
7980.45
13662.9
8215.5
12693
7893.94
11659.3
7219.07
10618.5
6399.81
9599.53
5460.93
8601.64
4293.57
7595.71
2832.95
6549.81
1044.12
5403.76
-883.238
4007.22
-2362.22
2240.19
-2480.68
-221.535
-2043.41
-1648
-3638.5
2711.91
12115.5
4247.88
16000.2
5774
15346.9
7516.72
14234.8
9433.01
13280.7
11387.6
12510.4
13199.9
11850.6
14667.7
11225.3
15738.7
10588.3
16436.9
9920.39
16811.8
9224.57
16889
8524.47
16630.1
7854.61
15964.2
7215.7
14791.3
6576.66
12956.2
5842.35
10256.4
4940
6287.52
3747.31
2547.93
2091.6
-1090.56
2032.19
10083.3
3763.51
14268.8
5213.09
13897.3
6555.83
12892.1
7845.54
11991
9056.48
11299.4
10141.6
10765.5
11047.4
10319.4
11730.4
9905.39
12178.3
9472.44
12385.9
9017.03
12340.8
8569.56
12026.3
8169.09
11423.4
7818.61
10512.6
7487.46
9253.53
7101.41
7602.2
6591.34
5519.57
5829.96
3075.75
4535.45
1985.19
1105.84
8977.48
2378.87
12995.8
3450.15
12826.1
4297.9
12044.3
5009.98
11278.9
5612.84
10696.6
6179.68
10198.6
6645.61
9853.49
7011.42
9539.58
7292.76
9191.1
7493.59
8816.2
7599.68
8463.48
7594.18
8174.6
7452.6
7960.2
7131.44
7808.64
6526.66
7706.2
5514.06
7603.95
3988.1
7355.94
2063.38
6460.21
4048.57
855.888
2601.43
4130.78
5299.52
6189.32
6897.43
7253.58
7403.81
7473.37
7475.49
7411.65
7281.61
7089.57
6832.2
6486.91
5979.29
5205.34
4038.61
2369.54
)
;

boundaryField
{
    outletWall
    {
        type            calculated;
        value           nonuniform List<scalar> 
60
(
65866.8
18955.8
-31341.9
-60685.6
-96669.7
-120180
-123934
-94672.3
5207.37
95531.7
114327
100557
30285.6
-101868
-131687
-142188
-139430
-125473
-111417
-45980.6
67578.1
92570.8
106807
119942
126818
124870
115395
102849
90298
77917.8
65404.7
53188.2
42239.7
33774.8
28798.9
27525.7
29352.4
32466.4
34370.1
35444.4
-33712.5
837.808
-28412.2
-16069.3
-31821.9
-31442.7
-33621.3
-31370.2
-18037.5
8087.44
-838.823
-24089.5
-14143.5
6468.58
13612.8
1511.54
-12016.4
-4335.68
48401.3
52175.6
)
;
    }
    fineWalls
    {
        type            calculated;
        value           uniform 0;
    }
    fineFrontAndBack
    {
        type            calculated;
        value           nonuniform List<scalar> 
960
(
-8.05633e-15
-4.52268e-13
-6.86945e-15
1.81155e-14
-5.44654e-13
7.56542e-14
1.31143e-13
-1.54421e-14
-1.60344e-12
-3.56306e-13
-7.40815e-15
-4.63832e-12
-5.00062e-13
-8.58247e-13
-1.9419e-11
-4.53909e-12
-5.25814e-12
-2.53217e-11
-6.7588e-12
-8.15561e-12
-2.74873e-12
-3.79464e-12
-3.86944e-12
-3.7353e-12
-3.65663e-12
-3.83965e-12
-4.23759e-11
-4.76009e-12
-4.98656e-12
-5.10877e-12
-5.16798e-12
-5.1345e-12
-5.0697e-12
-4.93432e-12
-4.41969e-12
-3.30888e-12
-1.8748e-12
-1.2695e-12
-1.02289e-12
-3.73479e-12
3.77365e-11
1.34768e-11
1.06616e-11
3.98607e-12
3.00179e-12
-4.61176e-12
-5.30092e-12
-4.28549e-12
-4.82928e-11
-1.83233e-11
-1.1046e-11
6.13897e-11
1.10165e-11
1.24399e-11
1.21141e-11
4.05711e-11
-2.66927e-12
-1.10682e-11
-1.61176e-11
-1.69204e-11
6.29356e-12
3.03664e-12
3.06567e-12
2.54616e-12
2.93121e-12
3.50506e-12
4.13589e-12
4.5917e-12
4.79101e-12
4.93348e-12
5.10177e-12
5.28505e-12
5.57281e-12
2.4156e-11
5.20552e-12
4.8625e-12
5.19127e-12
5.88832e-12
6.41196e-12
5.19609e-12
2.31866e-11
2.37555e-11
1.49844e-10
3.23117e-11
3.57134e-11
2.14958e-10
4.20116e-11
4.29505e-11
2.36103e-10
5.04388e-11
5.38411e-11
2.8395e-10
6.88397e-11
6.9315e-11
5.95559e-11
2.23545e-10
2.88105e-11
2.50744e-11
1.26092e-10
3.11073e-11
-1.732e-11
3.91313e-11
7.56687e-11
9.82327e-11
1.18676e-10
1.36025e-10
1.49532e-10
1.60016e-10
1.62346e-10
1.46402e-10
9.87659e-11
4.92254e-11
9.61884e-11
1.44317e-10
1.6158e-10
1.60372e-10
1.64718e-10
1.79396e-10
1.87955e-10
-1.88575e-11
4.7968e-11
7.79941e-11
1.00149e-10
1.2011e-10
1.37081e-10
1.50373e-10
1.59999e-10
1.53052e-10
1.1891e-10
5.15066e-11
2.80256e-12
7.39737e-11
1.35058e-10
1.60916e-10
1.61529e-10
1.6385e-10
1.77082e-10
1.49184e-10
-2.72928e-11
6.28262e-11
8.15057e-11
1.02321e-10
1.22e-10
1.38535e-10
1.51565e-10
1.5647e-10
1.33327e-10
9.35047e-11
3.32773e-11
7.49053e-13
4.55298e-11
1.17268e-10
1.55021e-10
1.61624e-10
1.63505e-10
1.80363e-10
9.68325e-11
-3.51841e-11
7.42088e-11
8.84123e-11
1.047e-10
1.23958e-10
1.40422e-10
1.52626e-10
1.40456e-10
9.9486e-11
6.52621e-11
2.20608e-11
7.19715e-12
5.10134e-11
9.73742e-11
1.41902e-10
1.58489e-10
1.63478e-10
1.82161e-10
1.23041e-10
-3.60781e-11
7.40956e-11
9.68596e-11
1.08628e-10
1.25986e-10
1.42834e-10
1.51557e-10
1.0507e-10
5.46341e-11
3.83154e-11
1.87481e-11
2.00191e-11
8.08812e-11
9.34526e-11
1.30083e-10
1.53849e-10
1.63264e-10
1.82521e-10
1.35502e-10
-2.50161e-11
6.6914e-11
1.00304e-10
1.14483e-10
1.29186e-10
1.45669e-10
1.43676e-10
5.41245e-11
8.80564e-12
1.39168e-11
1.48453e-11
3.37115e-11
1.05186e-10
1.17743e-10
1.32632e-10
1.52483e-10
1.60953e-10
1.86363e-10
9.86188e-11
1.379e-13
6.51369e-11
9.57725e-11
1.19069e-10
1.34181e-10
1.48627e-10
1.2642e-10
5.35986e-12
-2.23287e-11
-3.01517e-12
1.32612e-11
5.47036e-11
1.22861e-10
1.53201e-10
1.60675e-10
1.66732e-10
1.65848e-10
2.07099e-10
-1.23144e-12
3.73892e-11
7.91265e-11
9.10958e-11
1.20508e-10
1.39973e-10
1.48954e-10
1.03186e-10
-1.64024e-11
-1.98224e-11
9.12587e-12
3.12521e-11
6.96513e-11
1.33982e-10
1.87791e-10
2.07694e-10
2.04464e-10
1.54674e-10
3.80739e-11
-6.53852e-11
8.01919e-11
1.08318e-10
9.53183e-11
1.20425e-10
1.46443e-10
1.60429e-10
1.14796e-10
-4.61115e-13
9.79071e-12
3.69369e-11
5.03494e-11
7.17856e-11
1.10964e-10
1.60602e-10
1.84298e-10
1.86609e-10
1.76147e-10
1.37546e-10
8.99066e-11
1.23276e-10
1.49083e-10
1.12762e-10
1.24654e-10
1.48447e-10
1.2511e-10
-3.06802e-12
2.05358e-11
1.49692e-11
4.20908e-11
5.38076e-11
6.85396e-11
4.69751e-11
7.16062e-11
8.10092e-11
1.01249e-10
1.20425e-10
1.36684e-10
1.27928e-10
1.58062e-10
1.94476e-10
1.43571e-10
1.35764e-10
1.47214e-10
1.37897e-10
8.89858e-11
2.34899e-11
1.19732e-11
-7.06883e-12
-4.79852e-11
-6.66895e-11
-6.67744e-11
-5.50385e-11
-3.77435e-11
-1.99622e-11
3.00089e-12
2.6623e-11
1.56498e-11
1.75519e-10
2.26843e-10
1.7671e-10
1.57036e-10
1.58556e-10
1.61277e-10
1.29767e-10
2.89255e-11
1.576e-11
-1.47574e-11
-5.85102e-11
-8.64261e-11
-1.01382e-10
-1.0833e-10
-9.78469e-11
-7.76137e-11
-5.31436e-11
-2.55672e-11
-2.15873e-12
1.74781e-10
2.36357e-10
1.96913e-10
1.78332e-10
1.73106e-10
1.66021e-10
1.16735e-10
3.45529e-11
2.35347e-11
2.40067e-12
-3.21827e-11
-5.83441e-11
-7.28721e-11
-8.05864e-11
-7.7072e-11
-5.6827e-11
-3.48581e-12
6.21096e-11
8.40961e-11
1.55717e-10
2.25195e-10
1.99912e-10
1.86281e-10
1.73023e-10
1.47439e-10
8.9124e-11
2.39853e-11
9.99782e-12
1.30528e-11
-3.33337e-12
-2.36702e-11
-4.05555e-11
-5.33767e-11
-5.77763e-11
-5.12834e-11
-3.60471e-11
-1.2862e-11
3.1344e-11
1.11727e-10
1.8784e-10
1.81689e-10
1.72636e-10
1.50037e-10
1.08442e-10
4.31649e-11
-2.48324e-11
-4.24013e-11
1.02931e-11
7.74012e-12
-9.12476e-12
-2.70522e-11
-4.61464e-11
-5.66807e-11
-5.49488e-11
-4.43225e-11
-3.11402e-11
2.27484e-11
4.49613e-11
1.22482e-10
1.32241e-10
1.25771e-10
9.49512e-11
4.21504e-11
-2.91905e-11
-1.06679e-10
-1.39604e-10
-1.11318e-11
9.46672e-12
-5.25368e-12
-3.95147e-11
-6.20691e-11
-6.98083e-11
-6.3352e-11
-4.93079e-11
-3.18804e-11
4.17138e-12
-2.89666e-11
3.97253e-11
5.17355e-11
3.88187e-11
9.09306e-13
-4.95028e-11
-1.05403e-10
-1.6087e-10
-1.6003e-10
-6.01955e-11
-9.83015e-12
-1.8185e-11
-6.91001e-11
-9.33254e-11
-8.86806e-11
-7.12966e-11
-5.29114e-11
-2.63846e-11
-1.55891e-11
-9.29165e-11
-4.61414e-11
-4.67811e-11
-7.70049e-11
-1.12965e-10
-1.34699e-10
-1.53099e-10
-1.58302e-10
-1.48466e-10
-1.08892e-10
-5.81827e-11
-6.54181e-11
-1.00362e-10
-1.14866e-10
-9.98831e-11
-7.2033e-11
-5.03253e-11
-2.27644e-11
-1.15512e-11
-1.44312e-10
-1.24908e-10
-1.41252e-10
-1.79098e-10
-1.8667e-10
-1.7424e-10
-1.66786e-10
-1.60011e-10
-1.50531e-10
-1.36349e-10
-1.01531e-10
-1.0741e-10
-1.19255e-10
-1.14218e-10
-9.37798e-11
-6.50564e-11
-4.56188e-11
-2.01506e-11
-1.0502e-11
-1.60857e-10
-1.92008e-10
-1.97926e-10
-2.06128e-10
-1.96517e-10
-1.82924e-10
-1.70579e-10
-1.62929e-10
-1.5171e-10
-1.39594e-10
-1.25942e-10
-1.26102e-10
-1.22977e-10
-1.11176e-10
-8.95354e-11
-6.21715e-11
-4.33957e-11
-1.7744e-11
-8.35588e-12
8.05633e-15
4.52268e-13
6.86945e-15
-1.81155e-14
5.44654e-13
-7.56542e-14
-1.31143e-13
1.54421e-14
1.60344e-12
3.56306e-13
7.40815e-15
4.63832e-12
5.00062e-13
8.58247e-13
1.9419e-11
4.53909e-12
5.25814e-12
2.53217e-11
6.7588e-12
8.15561e-12
2.74873e-12
3.79464e-12
3.86944e-12
3.7353e-12
3.65663e-12
3.83965e-12
4.23759e-11
4.76009e-12
4.98656e-12
5.10877e-12
5.16798e-12
5.1345e-12
5.0697e-12
4.93432e-12
4.41969e-12
3.30888e-12
1.8748e-12
1.2695e-12
1.02289e-12
3.73479e-12
-3.77365e-11
-1.34768e-11
-1.06616e-11
-3.98607e-12
-3.00179e-12
4.61176e-12
5.30092e-12
4.28549e-12
4.82928e-11
1.83233e-11
1.1046e-11
-6.13897e-11
-1.10165e-11
-1.24399e-11
-1.21141e-11
-4.05711e-11
2.66927e-12
1.10682e-11
1.61176e-11
1.69204e-11
-6.29356e-12
-3.03664e-12
-3.06567e-12
-2.54616e-12
-2.93121e-12
-3.50506e-12
-4.13589e-12
-4.5917e-12
-4.79101e-12
-4.93348e-12
-5.10177e-12
-5.28505e-12
-5.57281e-12
-2.4156e-11
-5.20552e-12
-4.8625e-12
-5.19127e-12
-5.88832e-12
-6.41196e-12
-5.19609e-12
-2.31866e-11
-2.37555e-11
-1.49844e-10
-3.23117e-11
-3.57134e-11
-2.14958e-10
-4.20116e-11
-4.29505e-11
-2.36103e-10
-5.04388e-11
-5.38411e-11
-2.8395e-10
-6.88397e-11
-6.9315e-11
-5.95559e-11
-2.23545e-10
-2.88105e-11
-2.50744e-11
-1.26092e-10
-3.11073e-11
1.732e-11
-3.91313e-11
-7.56687e-11
-9.82327e-11
-1.18676e-10
-1.36025e-10
-1.49532e-10
-1.60016e-10
-1.62346e-10
-1.46402e-10
-9.87659e-11
-4.92254e-11
-9.61884e-11
-1.44317e-10
-1.6158e-10
-1.60372e-10
-1.64718e-10
-1.79396e-10
-1.87955e-10
1.88575e-11
-4.7968e-11
-7.79941e-11
-1.00149e-10
-1.2011e-10
-1.37081e-10
-1.50373e-10
-1.59999e-10
-1.53052e-10
-1.1891e-10
-5.15066e-11
-2.80256e-12
-7.39737e-11
-1.35058e-10
-1.60916e-10
-1.61529e-10
-1.6385e-10
-1.77082e-10
-1.49184e-10
2.72928e-11
-6.28262e-11
-8.15057e-11
-1.02321e-10
-1.22e-10
-1.38535e-10
-1.51565e-10
-1.5647e-10
-1.33327e-10
-9.35047e-11
-3.32773e-11
-7.49053e-13
-4.55298e-11
-1.17268e-10
-1.55021e-10
-1.61624e-10
-1.63505e-10
-1.80363e-10
-9.68325e-11
3.51841e-11
-7.42088e-11
-8.84123e-11
-1.047e-10
-1.23958e-10
-1.40422e-10
-1.52626e-10
-1.40456e-10
-9.9486e-11
-6.52621e-11
-2.20608e-11
-7.19715e-12
-5.10134e-11
-9.73742e-11
-1.41902e-10
-1.58489e-10
-1.63478e-10
-1.82161e-10
-1.23041e-10
3.60781e-11
-7.40956e-11
-9.68596e-11
-1.08628e-10
-1.25986e-10
-1.42834e-10
-1.51557e-10
-1.0507e-10
-5.46341e-11
-3.83154e-11
-1.87481e-11
-2.00191e-11
-8.08812e-11
-9.34526e-11
-1.30083e-10
-1.53849e-10
-1.63264e-10
-1.82521e-10
-1.35502e-10
2.50161e-11
-6.6914e-11
-1.00304e-10
-1.14483e-10
-1.29186e-10
-1.45669e-10
-1.43676e-10
-5.41245e-11
-8.80564e-12
-1.39168e-11
-1.48453e-11
-3.37115e-11
-1.05186e-10
-1.17743e-10
-1.32632e-10
-1.52483e-10
-1.60953e-10
-1.86363e-10
-9.86188e-11
-1.379e-13
-6.51369e-11
-9.57725e-11
-1.19069e-10
-1.34181e-10
-1.48627e-10
-1.2642e-10
-5.35986e-12
2.23287e-11
3.01517e-12
-1.32612e-11
-5.47036e-11
-1.22861e-10
-1.53201e-10
-1.60675e-10
-1.66732e-10