/*--------------------------------*- C++ -*----------------------------------*\
| =========                 |                                                 |
| \\      /  F ield         | OpenFOAM: The Open Source CFD Toolbox           |
|  \\    /   O peration     | Version:  4.1                                   |
|   \\  /    A nd           | Web:      www.OpenFOAM.org                      |
|    \\/     M anipulation  |                                                 |
\*---------------------------------------------------------------------------*/
FoamFile
{
    version     2.0;
    format      ascii;
    class       surfaceScalarField;
    location    "5";
    object      phi;
}
// * * * * * * * * * * * * * * * * * * * * * * * * * * * * * * * * * * * * * //

dimensions      [0 3 -1 0 0 0 0];

internalField   nonuniform List<scalar> 
2360
(
4079.87
3945.23
134.648
3945.23
3945.23
4024.45
-79.2186
4024.44
4024.45
4024.44
4426.3
-401.857
4426.3
4426.3
5121.66
-695.358
5121.66
5121.65
6116.1
-994.439
6116.09
6116.1
8145.76
-2029.66
8145.78
8145.78
8836.58
9812.01
10757.8
11698.7
12643.8
13595.9
10734.8
3825.49
11720
12714.3
13715.4
14722.4
15734.4
16751.3
17772.2
18796.9
19824.8
20857.2
21921.2
23043.8
23820.2
9972.64
13847.6
9972.64
9972.64
9972.64
-673.411
10646.1
-673.409
-673.405
-673.406
-155.909
-517.487
-155.904
-155.888
803.485
-959.383
803.504
803.496
803.512
-9251.91
10055.4
-9251.89
-9251.88
-9251.87
-23754.7
14502.8
-23237.4
-22534
-21795.3
-21026.3
-20237.2
-19429.2
-18602.7
-17755.5
-16884.2
-15983.5
-15046
-14062.4
-13021
-18540.1
6628.08
-17361.1
-16063.2
-14626
-13079.7
-11625.6
-10882.9
-10882.9
-10882.9
-7559.21
-3323.72
-7559.21
-7559.22
-5817.69
-1741.53
-5817.7
-5817.7
-4699.84
-1117.86
-4699.84
-4699.84
-4001.19
-698.654
-4001.19
-4001.19
-4001.19
-3665.91
-335.281
-3665.91
-3665.91
-3671.26
5.34692
-40174.7
-5192.02
-8452.71
-10322
-12067
-2294.22
-2841.23
-1751.89
-1012.84
888.915
1229.91
5684.83
648.256
8722.95
-364.902
9829.11
-1080.85
7996.04
-1784.1
5012.9
-2135.96
1094.6
-778.065
-2314.48
665.373
-944.645
172.602
3098.86
-343.192
3031.08
-277.923
1358.08
169.786
576.43
151.992
1631.45
2478.15
-2023.98
-4464.08
-7335.66
-5010.31
-5398.8
-4231.08
-4372.66
-2778.02
-511.346
-2972.4
1736.66
3436.83
1730.56
8729.05
374.308
11185.4
-1440
9810.35
-2600.04
6172.94
-1771.68
266.248
178.71
-4264.87
1322.44
-2088.37
693.769
3727.53
-214.731
3939.58
-324.417
1467.76
290.28
-38.2693
291.44
1630.29
2434.3
-7395.4
-5662.45
-6795.21
-5610.5
-6142.11
-4884.18
-4712.41
-4207.72
-2576.68
-5108.13
238.208
621.949
1331.67
7635.6
1017.44
11499.6
-486.788
11314.6
-1851.44
7537.59
-770.058
-815.131
1363.75
-6398.68
2165.35
-2889.98
1183.99
4708.89
152.239
4971.33
163.107
1456.89
534.926
-410.091
476.875
1688.34
2212.54
-5538.63
-4478.07
-6933.99
-4215.13
-6084.92
-5733.25
-5798.16
-4494.48
-4699.06
-6207.24
-1851.13
-2225.98
314.576
5469.9
799.04
11015.1
50.1122
12063.5
-1155.84
8743.54
602.608
-2573.58
2449.18
-8245.25
2882.79
-3323.59
1837.65
5754.03
620.264
6188.72
566.58
1510.58
751.307
-594.82
749.304
1690.35
1843.98
-6023.69
-5317.16
-6101.41
-4137.41
-6839.37
-4995.29
-6858.53
-4475.32
-6606.68
-6459.08
-4407.61
-4425.05
-1632.87
2695.16
-309.577
9691.84
-269.876
12023.8
-395.883
8869.54
1266.49
-4235.95
2193.12
-9171.88
2038.36
-3168.83
1446.23
6346.16
804.397
6830.56
1202.57
1112.4
1351.01
-743.255
1299.09
1742.28
1401.55
-6267.84
-4530.84
-7073.48
-3331.78
-7795.57
-4273.19
-8122.84
-4148.05
-8381.7
-6200.22
-7350.83
-5455.92
-4777.18
121.503
-2586.68
7501.35
-1532.87
10970
-437.533
7774.2
93.8676
-4767.35
-755.794
-8322.21
-856.736
-3067.89
-267.852
5757.27
-15.8739
6578.58
1251.36
-154.833
1703.55
-1195.45
2351.18
1094.65
429.022
-6754.12
-3963.69
-7319.5
-2766.4
-8602.78
-2989.91
-9153.38
-3597.45
-9956.71
-5396.88
-10082.6
-5330.05
-8518.88
-1442.2
-6055.35
5037.82
-3927.67
8842.32
-2355.62
6202.15
-3540.65
-3582.32
-5132.92
-6729.95
-4362.8
-3838.01
-2516.83
3911.3
-1229.75
5291.5
-235.147
-1149.44
986.076
-2416.67
1051.94
1028.79
8109.05
-7450.9
-2687.98
-8512.26
-1705.04
-9373.83
-2128.34
-10183.2
-2788.07
-11491.7
-4088.42
-12601.7
-4220
-12214.7
-1829.24
-9972.68
2795.83
-7139.17
6008.81
-5682.25
4745.22
-7695.49
-1569.08
-9448.16
-4977.28
-8605.01
-4681.15
-5711
1017.28
-4126.33
3706.83
-6014.55
738.783
-8397.23
-33.9895
-10930
3561.56
11681.8
-8126.3
-1292.35
-9054.44
-776.903
-10015.5
-1167.32
-11174.9
-1628.58
-13013
-2250.35
-14880.1
-2352.91
-15484.1
-1225.29
-13860.3
1172.08
-11029
3177.49
-9292.04
3008.27
-10573.9
-287.189
-12772.3
-2778.93
-14582.9
-2870.51
-14209.5
643.845
-13487.9
2985.29
-14611.4
1862.21
-15297.9
652.566
-14059.2
2322.82
7678.07
-8693.68
10.3235
-9472.16
1.57787
-10657.7
18.1817
-12202.5
-83.7691
-14405.6
-47.2365
-16686.9
-71.6384
-17801.9
-110.269
-16473.8
-155.975
-13087.2
-209.126
-9860.63
-218.297
-10015.3
-132.535
-12704.5
-89.6855
-15974
398.912
-16794
1463.84
-15257.6
1448.96
-13337.2
-58.252
-11578
-1106.61
-7716.51
-1538.66
-997.814
-8739.28
1414.66
-9561.34
823.643
-10663.6
1120.48
-12245.4
1498.03
-14438.6
2145.94
-16703.8
2193.55
-17787.9
973.786
-16436.7
-1507.17
-12988.4
-3657.42
-9533.11
-3673.55
-9363.74
-301.911
-11931.6
2478.14
-15450.5
3917.83
-16727
2740.31
-15665.4
387.403
-14279.6
-1444.05
-13160.5
-2225.68
-9537.43
-5161.76
-11052.7
-8156.89
2902.65
-8998.33
1665.08
-9973.94
2096.09
-11183.3
2707.43
-13025.7
3988.33
-14866.8
4034.63
-15432.7
1539.66
-13842.3
-3097.51
-11092.9
-6406.87
-9367.78
-5398.66
-10575.2
905.479
-12879.7
4782.65
-15398.5
6436.64
-15489.6
2831.37
-13454
-1648.11
-12548.5
-2349.59
-13317.3
-1456.9
-13454.8
-5024.22
-13861.5
-7486.35
4307.62
-8378.31
2557.04
-9283.94
3001.72
-10119.6
3543.09
-11441.6
5310.34
-12532.4
5125.38
-12130.5
1137.83
-9964.3
-5263.73
-7310.92
-9060.25
-6195.6
-6513.98
-8588.91
3298.78
-10870.5
7064.21
-11078.3
6644.46
-7596.22
-650.687
-3496.09
-5748.25
-1674.98
-4170.7
-3201.61
69.7212
-7329.96
-895.861
-7343.89
-6855.39
5161.28
-7110.17
2811.81
-8492.89
4384.44
-9033.42
4083.62
-9851.38
6128.3
-9985.67
5259.67
-8477.73
-370.112
-6114.24
-7627.22
-4117.34
-11057.2
-3062.97
-7568.35
-5020.46
5256.27
-7011.22
9054.97
-6461.47
6094.71
-3646.65
-3465.52
-1711.85
-7683.04
-137.793
-5744.76
1445.43
-1513.5
2382.05
-1832.48
-1136.35
-6457.04
6526.96
-6936.24
3291.01
-7706.43
5154.64
-7993.47
4370.66
-8256.9
6391.73
-7249.55
4252.31
-4772.16
-2847.5
-2671.13
-9728.25
-1673.29
-12055
-863.082
-8378.56
-1415.42
5808.6
-2748.09
10387.6
-2682.77
6029.39
-1145.73
-5002.56
-340.098
-8488.68
49.2697
-6134.13
495.514
-1959.75
1058.95
-2395.92
-2107.06
-6138.64
6899.71
-5861.21
3013.57
-6778.89
6072.32
-6753.45
4345.23
-6504.74
6143.02
-4352.1
2099.67
-1668.34
-5531.26
-384.552
-11012
-354.131
-12085.4
-378.237
-8354.45
478.653
4951.71
764.987
10101.3
732.16
6062.22
861.531
-5131.93
748.684
-8375.83
353.648
-5739.09
463.358
-2069.46
643.496
-2576.05
-2458
-6467.79
10512.1
-6804.13
3349.92
-6123.34
5391.53
-5732.18
3954.06
-4642
5052.84
-1850.31
-692.03
261.528
-7643.09
736.385
-11486.9
-7.42353
-11341.6
-998.035
-7363.84
445.656
3508.02
2099.46
8447.5
2769.74
5391.94
2192.74
-4554.93
1084.93
-7268.02
194.47
-4848.63
144.496
-2019.48
263.61
-2695.16
-2889.75
-5402.31
8999.46
-6507.75
4455.35
-6009.81
4893.59
-4706.07
2650.33
-2566.3
2913.07
206.549
-3464.88
1279.08
-8715.63
950.439
-11158.2
-567.322
-9823.84
-1895
-6036.17
-558.068
2171.09
1593.59
6295.84
2754.78
4230.76
2085.66
-3885.81
824.298
-6006.66
-30.1207
-3994.21
62.3948
-2112
102.205
-2734.97
-3189.4
-4499.15
15808.7
-8107.51
8063.71
-5480.01
2266.09
-4408.75
1579.08
-518.733
-976.953
1696.26
-5679.87
1680.02
-8699.39
291.04
-9769.26
-1628.79
-7904.01
-2892.25
-4772.71
-1625.84
904.679
494.869
4175.14
1990.68
2734.95
1597.82
-3492.96
374.287
-4783.12
-305.612
-3314.31
-17.1264
-2400.48
-10.0078
-2742.09
-3278.63
-36837.3
-8149.62
-11649.1
-2814.43
-985.288
1216.97
627.628
-417.38
-1375.51
-2985.61
-3617.31
-1293.73
1020.16
774.341
-91.8552
-255.9
6.23999
28.6942
29.6318
-720.435
114.528
-1060.32
171.882
-1003.15
223.695
-992.668
270.948
-992.358
310.108
-991.333
330.673
-984.92
330.588
-985.117
323.732
-987.48
311.51
-988.874
295.346
-990.753
275.868
-992.587
253.943
-994.952
230.324
-997.333
205.689
-999.975
179.893
-1002.18
153.945
-1006.46
136.33
-1046.32
115.522
-1101.78
-660.914
4.15847
-724.593
2.87919
-1059.04
1.35937
-1001.63
4.28769
-995.594
8.97712
-997.046
14.0621
-996.416
28.1034
-998.96
40.9629
-997.975
51.6715
-998.188
60.8717
-998.073
68.5771
-998.458
74.6193
-998.628
78.78
-999.112
81.0502
-999.603
81.2744
-1000.2
78.7877
-999.696
75.1105
-1002.79
72.047
-1043.26
51.4532
-1081.19
-609.461
-3.17214
-721.419
2.79347
-1065
11.7199
-1010.56
17.0213
-1000.89
22.1725
-1002.2
27.0675
-1001.31
29.4783
-1001.37
32.4777
-1000.97
35.5338
-1001.24
38.4394
-1000.98
41.0606
-1001.08
43.4304
-1001
45.4178
-1001.1
47.0198
-1001.2
47.9534
-1001.13
48.1206
-999.862
49.8183
-1004.48
55.8823
-1049.32
43.587
-1068.9
-565.874
0.660816
-722.079
2.17394
-1066.51
4.64804
-1013.03
6.22305
-1002.47
7.93495
-1003.91
9.90745
-1003.28
12.4693
-1003.93
15.0099
-1003.51
17.5411
-1003.77
20.136
-1003.57
22.7381
-1003.68
25.3327
-1003.59
27.8389
-1003.6
30.2365
-1003.6
32.3032
-1003.2
34.1548
-1001.71
38.2574
-1008.59
46.1146
-1057.18
35.4869
-1058.27
-530.387
3.9591
-726.036
4.70191
-1067.26
5.62731
-1013.95
5.72786
-1002.57
5.91555
-1004.09
6.29585
-1003.66
6.64752
-1004.28
7.26376
-1004.13
8.04265
-1004.55
9.04304
-1004.57
10.2336
-1004.87
11.6411
-1005
13.2462
-1005.21
15.0693
-1005.42
16.9606
-1005.09
19.2313
-1003.98
23.5404
-1012.9
30.8397
-1064.48
22.8446
-1050.27
-507.542
6.33842
-732.376
5.18185
-1066.1
3.81837
-1012.59
2.46102
-1001.21
1.17334
-1002.81
0.11803
-1002.61
-0.807881
-1003.36
-1.53272
-1003.4
-2.1141
-1003.97
-2.49304
-1004.19
-2.68463
-1004.68
-2.66524
-1005.02
-2.4251
-1005.45
-1.93807
-1005.91
-1.23052
-1005.8
-0.0548719
-1005.16
1.92874
-1014.88
5.22014
-1067.77
1.32047
-1046.37
-506.222
7.65791
-740.034
4.6347
-1063.08
1.76797
-1009.72
-0.970309
-998.473
-3.68169
-1000.1
-6.20329
-1000.08
-8.67431
-1000.88
-10.9845
-1001.09
-13.201
-1001.75
-15.2739
-1002.12
-17.2221
-1002.73
-19.0288
-1003.21
-20.6765
-1003.8
-22.1599
-1004.43
-23.3681
-1004.59
-24.2662
-1004.26
-26.415
-1012.73
-30.0633
-1064.12
-26.7712
-1049.67
-532.993
8.95704
-748.993
4.80866
-1058.93
1.11669
-1006.03
-2.42887
-994.929
-6.04274
-996.483
-9.54961
-996.579
-13.0852
-997.351
-16.5664
-997.614
-20.0527
-998.269
-23.5066
-998.668
-26.9473
-999.29
-30.3718
-999.787
-33.7626
-1000.41
-37.1454
-1001.05
-40.3028
-1001.43
-43.3057
-1001.26
-49.522
-1006.51
-61.9055
-1051.74
-52.2946
-1059.28
-585.288
11.2437
-760.237
6.68897
-1054.38
2.69096
-1002.04
-0.923787
-991.315
-4.67431
-992.733
-8.39851
-992.856
-12.2162
-993.533
-16.0566
-993.774
-19.9762
-994.35
-23.9449
-994.7
-27.9868
-995.249
-32.105
-995.669
-36.289
-996.228
-40.5903
-996.745
-44.7968
-997.226
-48.8561
-997.2
-56.2543
-999.116
-74.6129
-1033.38
-66.7274
-1067.16
-652.015
14.3655
-774.604
9.67151
-1049.68
5.66046
-998.026
2.52771
-988.184
-0.762114
-989.444
-4.06556
-989.553
-7.47588
-990.124
-10.9343
-990.317
-14.4906
-990.794
-18.1171
-991.074
-21.8396
-991.527
-25.6581
-991.851
-29.5697
-992.317
-33.626
-992.689
-37.6996
-993.153
-41.6191
-993.281
-47.2906
-993.445
-65.3703
-1015.3
-66.4033
-1066.13
-718.418
17.3429
-791.948
12.3744
-1044.72
8.53057
-994.183
6.0176
-985.671
3.36963
-986.797
0.700106
-986.885
-2.0542
-987.37
-4.84184
-987.53
-7.70629
-987.93
-10.6185
-988.163
-13.6041
-988.542
-16.6538
-988.802
-19.7721
-989.199
-22.9855
-989.476
-26.2443
-989.894
-29.4283
-990.097
-32.928
-989.946
-45.839
-1002.39
-54.8336
-1057.14
-773.252
19.3262
-811.275
13.89
-1039.28
10.3369
-990.631
8.33456
-983.67
6.21728
-984.68
4.08495
-984.753
1.89423
-985.181
-0.307077
-985.33
-2.55875
-985.68
-4.82926
-985.893
-7.14385
-986.228
-9.48558
-986.462
-11.8634
-986.822
-14.2818
-987.059
-16.7229
-987.454
-19.1548
-987.666
-21.4593
-987.642
-28.8637
-994.985
-40.1722
-1045.83
-813.424
20.1894
-831.465
14.2035
-1033.3
11.0049
-987.433
9.3432
-982.009
7.57129
-982.909
5.79341
-982.976
3.97351
-983.362
2.15726
-983.514
0.30712
-983.83
-1.54453
-984.042
-3.42279
-984.351
-5.30744
-984.578
-7.20865
-984.922
-9.12487
-985.143
-11.0415
-985.538
-12.9615
-985.747
-14.7627
-985.841
-19.0636
-990.685
-28.985
-1035.91
-842.409
20.3122
-851.778
13.7778
-1026.76
10.9369
-984.593
9.47849
-980.552
7.91035
-981.342
6.34309
-981.41
4.74107
-981.76
3.14809
-981.922
1.52783
-982.211
-0.0875646
-982.427
-1.72348
-982.716
-3.35801
-982.944
-5.00397
-983.277
-6.65763
-983.49
-8.30323
-983.893
-9.96299
-984.087
-11.5106
-984.294
-14.5682
-987.628
-22.9187
-1027.56
-865.328
20.1439
-871.922
13.061
-1019.68
10.5523
-982.085
9.21565
-979.215
7.77173
-979.899
6.33304
-979.972
4.8612
-980.289
3.39974
-980.461
1.91309
-980.725
0.431377
-980.946
-1.06959
-981.215
-2.56686
-981.447
-4.07906
-981.765
-5.59376
-981.976
-7.10444
-982.383
-8.63988
-982.552
-10.0587
-982.875
-12.586
-985.101
-20.4007
-1019.74
-885.729
19.9692
-891.892
12.3089
-1012.02
10.1125
-979.889
8.86495
-977.968
7.51286
-978.547
6.16954
-978.629
4.789
-978.909
3.41696
-979.09
2.01986
-979.328
0.62324
-979.55
-0.79253
-979.8
-2.20549
-980.034
-3.63934
-980.332
-5.06734
-980.548
-6.50506
-980.945
-7.96067
-981.097
-9.31145
-981.525
-11.5319
-982.881
-19.509
-1011.77
-905.238
19.9199
-911.812
11.6353
-1003.74
9.76216
-978.016
8.61787
-976.824
7.36448
-977.294
6.1241
-977.389
4.83764
-977.623
3.55175
-977.804
2.23845
-978.015
0.915066
-978.227
-0.430601
-978.454
-1.78199
-978.683
-3.16277
-978.951
-4.53537
-979.176
-5.9421
-979.539
-7.34708
-979.692
-8.68228
-980.19
-10.6872
-980.876
-19.0823
-1003.37
-924.32
20.0948
-931.907
11.1088
-994.75
9.59582
-976.503
8.61088
-975.84
7.48903
-976.172
6.377
-976.277
5.20786
-976.454
4.02206
-976.618
2.80358
-976.797
1.56151
-976.985
0.292139
-977.185
-0.995093
-977.396
-2.31714
-977.629
-3.63904
-977.854
-5.02076
-978.157
-6.38039
-978.333
-7.76036
-978.81
-9.60029
-979.036
-18.4281
-994.543
-942.748
20.804
-952.711
11.0712
-985.017
9.96624
-975.398
9.25327
-975.127
8.35894
-975.278
7.43365
-975.352
6.42537
-975.446
5.35386
-975.547
4.21461
-975.658
3.01031
-975.781
1.74285
-975.918
0.418076
-976.072
-0.966392
-976.245
-2.38418
-976.436
-3.87363
-976.668
-5.32757
-976.879
-6.8783
-977.26
-8.53084
-977.384
-17.5636
-985.51
-960.312
22.2884
12.2713
11.8729
11.7459
11.4677
11.1158
10.6699
10.1227
9.46486
8.68382
7.76575
6.69408
5.44914
4.0127
2.34452
0.465342
-1.79426
-4.17802
-14.6882
-682.841
1657.82
-1110.41
1402.55
-1547.03
1411.61
-1899.31
1327.26
-2212.78
1288.46
-2476.31
1238.51
-2697.69
1196.37
-2876.16
1153.46
-3012.89
1111.72
-3107.51
1069.6
-3159.61
1027.1
-3168.67
984.043
-3133.57
939.899
-3049.21
890.633
-2899.01
824.786
-2648.75
724.741
-2251.48
577.718
-1668.05
391.574
-897.531
204.471
77.4693
-202.693
1860.49
-448.387
1648.21
-709.997
1673.2
-925.354
1542.6
-1130.84
1493.93
-1301.02
1408.67
-1446.98
1342.31
-1563.58
1270.05
-1653.87
1202
-1717.33
1133.04
-1754.84
1064.59
-1766.51
995.704
-1751.73
925.11
-1705.33
844.223
-1613.66
733.106
-1451.57
562.641
-1193.99
320.134
-840.704
38.2734
-441.206
-195.042
-363.737
-107.954
1968.42
-248.718
1788.95
-349.944
1774.4
-403.703
1596.33
-446.909
1537.11
-453.642
1415.37
-442.488
1331.13
-406.901
1234.43
-353.98
1149.06
-285.948
1064.98
-205.454
984.075
-111.504
901.72
-2.88473
816.465
116.233
725.076
229.357
619.96
305.688
486.289
307.873
317.925
227.103
119.009
94.146
-62.1191
-269.591
34.6282
1933.78
32.0053
1791.56
53.0541
1753.34
91.1381
1558.23
128.22
1500.02
185.415
1358.16
245.496
1271.04
317.869
1162.04
398.208
1068.71
493.124
970.047
602.934
874.257
723.908
780.734
850.657
689.709
975.822
599.903
1079.05
516.73
1118.5
446.833
1041.11
395.301
805.793
354.324
444.936
298.727
175.345
20.6993
1913.05
19.614
1792.61
29.2229
1743.7
23.8465
1563.56
18.5556
1505.28
3.35442
1373.31
-24.7218
1299.09
-60.2401
1197.51
-87.3838
1095.83
-81.1694
963.789
-33.268
826.33
49.1701
698.249
158.984
579.866
297.217
461.627
460.797
353.129
621.237
286.375
710.607
305.923
636.963
427.964
365.072
570.614
540.417
-88.9643
2002.01
-185.393
1889.03
-277.303
1835.61
-398.124
1684.37
-519.017
1626.17
-662.839
1517.12
-822.075
1458.32
-994.62
1370.05
-1161.74
1262.94
-1299.62
1101.66
-1394.5
921.216
-1442.34
746.079
-1441.15
578.676
-1385.65
406.126
-1273.41
240.893
-1103.89
116.862
-862.239
64.2807
-529.587
95.3224
-188.151
229.194
352.266
-29.3373
2031.33
-168.617
2028.28
-260.795
1927.77
-357.392
1780.94
-452.363
1721.13
-549.726
1614.46
-646.951
1555.54
-745.333
1468.4
-851.507
1369.11
-968.107
1218.24
-1088.86
1041.97
-1201.39
858.594
-1302.07
679.371
-1392.05
496.1
-1463.46
312.315
-1477.29
130.705
-1370.24
-42.7636
-1129.43
-145.474
-618.825
-281.398
-266.559
164.786
1866.55
58.4473
2134.62
21.1864
1965.04
12.7474
1789.37
19.5541
1714.33
33.1027
1600.9
62.4399
1526.21
99.0854
1431.75
130.882
1337.33
134.526
1214.59
103.795
1072.71
45.949
916.44
-28.7146
754.061
-115.178
582.583
-203.27
400.455
-273.119
200.611
-278.26
-37.547
-275.052
-148.627
-240.883
-315.533
-507.443
278.221
1588.31
272.203
2140.62
279.506
1957.72
328.757
1740.11
404.211
1638.86
483.056
1522.04
577.874
1431.38
680.16
1329.44
786.191
1231.29
876.123
1124.65
937.662
1011.17
963.838
890.254
954.029
763.868
903.983
632.621
807.771
496.667
655.916
352.461
415.498
202.873
246.595
20.2799
115.455
-184.388
-391.987
233.598
1354.72
278.521
2095.7
297.419
1938.83
343.141
1694.39
408.054
1573.96
471.725
1458.37
539.164
1363.95
606.891
1261.72
673.981
1164.21
732.556
1066.07
775.446
968.291
796.176
869.527
791.041
769.014
757.979
665.688
695.872
558.786
603.591
444.751
484.811
321.667
333.24
171.873
165.379
-16.5027
-226.608
139.383
1215.34
181.805
2053.28
198.508
1922.13
226.15
1666.74
261.125
1538.98
293.447
1426.04
323.533
1333.87
351.789
1233.46
376.991
1139.01
397.834
1045.23
411.459
954.673
415.365
865.624
406.84
777.546
384.328
688.204
346.703
596.419
294.362
497.098
228.943
387.095
150.955
249.882
61.4625
73.0165
-165.145
77.938
1137.41
105.155
2026.07
111.641
1915.65
123.511
1654.88
136.929
1525.58
148.255
1414.73
156.725
1325.41
164.404
1225.8
169.463
1133.97
173.126
1041.58
174.009
953.806
172.138
867.509
165.915
783.784
154.596
699.537
136.47
614.561
111.863
521.718
79.7411
419.233
43.832
285.826
12.1187
104.772
-153.026
57.9153
1079.5
78.2402
2005.75
74.6365
1919.26
76.2765
1653.25
80.8656
1521
84.4043
1411.2
85.8727
1323.95
86.8376
1224.84
86.0431
1134.77
84.9946
1042.64
82.9751
955.834
80.8698
869.625
78.0087
786.655
74.257
703.3
68.0579
620.771
58.9086
530.877
44.2466
433.905
24.5757
305.518
7.06231
122.313
-145.964
52.5683
1026.94
73.535
1984.79
68.5306
1924.27
67.4888
1654.3
74.1652
1514.33
81.3646
1404.01
87.3861
1317.94
91.8501
1220.39
94.9536
1131.68
97.1716
1040.44
98.5369
954.483
99.2863
868.89
99.3568
786.599
98.3412
704.329
95.3641
623.764
88.7752
537.48
76.0789
446.615
53.1517
328.468
21.0711
154.428
-124.892
41.11
985.842
65.6564
1960.25
68.1851
1921.75
68.9501
1653.54
82.3728
1500.92
99.365
1387.03
116.954
1300.36
132.132
1205.22
145.956
1117.87
157.549
1028.85
167.224
944.818
173.929
862.195
177.306
783.232
176.08
705.565
169.593
630.263
155.744
551.339
133.09
469.278
96.6351
364.936
38.6485
212.439
-86.2432
23.6182
962.233
57.3451
1926.53
72.5973
1906.5
75.2052
1650.94
92.9563
1483.17
118.411
1361.58
147.738
1271.04
175.055
1177.92
200.965
1091.97
223.321
1006.51
241.902
926.248
254.699
849.409
260.608
777.333
257.889
708.294
245.727
642.435
222.521
574.555
187.462
504.344
137.85
414.555
60.1156
290.197
-26.1273
14.1511
948.087
66.6691
1874.02
96.1631
1877.01
99.1243
1647.99
114.749
1467.55
142.092
1334.24
178.342
1234.8
214.576
1141.69
249.291
1057.26
278.901
976.903
302.147
903.009
316.762
834.799
321.429
772.673
314.827
714.902
296.44
660.83
265.532
605.469
221.698
548.182
164.149
472.109
80.9157
373.444
54.7885
24.4698
923.62
109.211
1789.28
168.986
1817.24
191.854
1625.12
214.604
1444.81
244.982
1303.87
282.804
1196.98
320.633
1103.86
355.9
1021.99
384.565
948.242
404.567
883.011
413.901
825.469
411.582
774.995
397.027
729.461
370.205
687.656
330.821
644.857
278.51
600.495
212.247
538.373
123.56
462.134
178.349
73.9563
849.664
161.538
1701.7
218.495
1760.29
246.747
1596.87
272.521
1419.04
303.989
1272.4
347.531
1153.44
392.122
1059.27
431.225
982.893
460.246
919.222
476.85
866.409
479.738
822.582
468.722
786.011
443.968
754.215
406.163
725.459
355.063
695.957
291.269
664.285
212.004
617.632
115.552
558.578
293.9
106.94
354.507
568.518
728.202
849.35
942.76
987.184
1005.01
1004.31
986.101
951.794
903.129
841.943
769.605
687.119
593.934
489.286
368.14
223.31
)
;

boundaryField
{
    outletWall
    {
        type            calculated;
        value           nonuniform List<scalar> 
60
(
-3671.26
-2320.8
-1613.66
-1024.14
-1423.35
-2515.29
-2606.09
-498.793
956.583
-742.742
-4309.65
-7280.09
-8815.95
-8141.29
-7927.58
-2717.3
-7473.86
5908.49
-21400
39109.2
7261.52
-2310.1
6914.99
2855.36
5765.89
5091.36
6001.73
6081.38
6668.9
7334.95
7391.01
6730.67
6175.2
6186.97
5481.52
6862.77
4354.24
8593.78
1296.04
6257.48
-4079.87
-3115.29
-2764.55
-2662.62
-3150.27
-3916.92
-3247.14
421.056
1851.56
1536.38
-3162.61
-6945.88
-8724.25
-8110.05
-7882.12
-2806.09
-7255.61
5765.59
-20624
45384.5
)
;
    }
    fineWalls
    {
        type            calculated;
        value           uniform 0;
    }
    fineFrontAndBack
    {
        type            calculated;
        value           nonuniform List<scalar> 
960
(
-2.88261e-16
4.0148e-14
-3.98239e-14
-3.35005e-14
-4.63309e-14
-1.24753e-14
3.61285e-14
-1.05414e-13
5.80407e-13
2.67727e-13
5.06497e-13
5.4715e-13
-4.91775e-13
-4.42076e-13
-4.98443e-12
-1.2589e-12
-1.25111e-12
-6.21877e-12
-1.04825e-12
-1.61036e-12
-1.28996e-13
-6.21202e-13
-6.96026e-13
-7.23965e-13
-6.77599e-13
-8.75505e-13
-1.20586e-11
-8.83994e-13
-8.8938e-13
-8.79761e-13
-8.75692e-13
-8.85484e-13
-8.82605e-13
-9.11442e-13
-9.67516e-13
-1.04918e-12
-1.15605e-12
-1.2628e-12
-1.32527e-12
-1.62056e-12
-4.10569e-11
-6.17315e-12
-6.16765e-12
-6.22142e-12
-2.93914e-11
-3.49917e-12
8.25041e-14
3.45107e-12
6.67075e-12
-1.37607e-11
-2.29598e-11
-4.80843e-11
7.08323e-13
1.05889e-12
-5.29829e-13
2.30249e-12
1.85283e-13
-5.85239e-13
-8.98872e-13
4.15678e-13
4.98768e-13
3.36285e-13
4.08484e-13
4.16935e-13
4.50481e-13
4.84947e-13
5.00463e-13
5.13989e-13
5.39469e-13
5.55713e-13
5.54403e-13
5.4804e-13
5.21292e-13
2.47211e-12
2.8768e-13
1.71568e-13
1.4214e-13
8.70019e-14
5.53199e-15
-2.58556e-13
-8.59749e-13
-1.2027e-12
-6.46503e-12
-1.508e-12
-1.42647e-12
-6.41014e-12
-9.83696e-13
-8.11287e-13
-3.36264e-12
-5.62783e-13
-7.17043e-13
-2.23323e-12
1.24251e-13
1.03413e-13
7.40434e-14
3.86599e-13
8.1203e-14
9.49955e-14
2.93862e-13
-9.34681e-15
-1.58423e-09
3.87e-10
-7.79655e-11
2.30791e-11
7.18348e-12
1.23814e-12
-1.27859e-12
-9.38495e-13
-3.47143e-14
8.27397e-14
-1.39644e-13
-7.49261e-13
-1.05043e-12
-3.89673e-14
5.24353e-14
-2.7868e-15
8.2097e-17
2.29918e-15
8.89964e-15
-3.50329e-10
5.00703e-11
-4.41386e-13
3.2825e-11
3.08105e-11
2.27921e-11
8.29842e-12
4.28272e-13
-1.14669e-12
-1.0199e-13
-1.36649e-13
-8.85889e-13
-8.32832e-13
-8.17097e-13
-1.2964e-13
3.61988e-14
-9.25203e-15
-7.30887e-15
-2.56934e-14
-8.41004e-10
1.69588e-10
-1.18021e-11
4.58262e-11
3.79402e-11
4.05544e-11
2.39417e-11
9.58993e-12
6.89015e-13
-7.44022e-13
-3.17956e-13
-8.81079e-13
2.65449e-12
1.13571e-13
-5.3388e-13
-7.07592e-14
-2.30484e-13
-7.17748e-15
1.09396e-13
-5.32793e-10
1.18572e-10
-8.59706e-13
5.0961e-11
4.23083e-11
4.61399e-11
3.47735e-11
2.11918e-11
7.28732e-12
-1.28636e-13
-5.98681e-13
1.97508e-12
1.356e-11
6.71319e-12
9.02991e-13
-6.48859e-13
-7.56368e-13
-4.01691e-14
6.75672e-13
-9.17252e-10
2.10988e-10
-1.02675e-11
5.65787e-11
4.61379e-11
4.94787e-11
3.78356e-11
2.84629e-11
1.52166e-11
2.83106e-12
-5.36877e-13
1.48888e-11
3.53636e-11
2.26126e-11
7.7788e-12
1.10003e-12
3.04961e-14
-8.69687e-13
2.32238e-12
-9.28933e-10
2.25734e-10
-1.41317e-11
6.10576e-11
5.04358e-11
5.28185e-11
3.65286e-11
2.72587e-11
1.92654e-11
6.61267e-12
6.02477e-12
4.14166e-11
5.4942e-11
3.52593e-11
1.46959e-11
4.63208e-12
1.48657e-12
-1.66078e-13
3.95439e-12
-1.23934e-09
3.07855e-10
-2.83105e-11
6.66758e-11
5.32276e-11
5.55022e-11
3.41486e-11
1.91909e-11
1.51323e-11
9.05574e-12
3.04408e-11
6.36256e-11
5.22084e-11
3.42937e-11
2.24534e-11
6.6423e-12
-4.02049e-12
2.79391e-12
-3.23907e-12
-1.47714e-09
3.72911e-10
-5.10391e-11
6.91576e-11
5.13495e-11
5.66605e-11
3.27456e-11
5.92534e-12
1.70691e-13
1.06337e-11
5.53803e-11
7.69484e-11
4.9845e-11
1.83253e-11
1.25519e-11
5.43698e-13
-4.70263e-12
-6.89591e-12
-6.54174e-12
-1.85658e-09
4.92667e-10
-9.55108e-11
6.36763e-11
3.99019e-11
5.5766e-11
4.35625e-11
1.71433e-11
8.86464e-12
3.28065e-11
7.7436e-11
8.63528e-11
6.51141e-11
2.99085e-11
1.6546e-11
1.85143e-11
1.74039e-11
1.1444e-11
7.5316e-12
-2.07491e-09
6.08369e-10
-1.59033e-10
3.56584e-11
6.48165e-12
3.6572e-11
5.05062e-11
4.71751e-11
4.49103e-11
4.87247e-11
6.12556e-11
7.042e-11
8.01973e-11
7.37652e-11
5.58077e-11
3.66011e-11
2.28941e-11
1.24132e-11
-4.28226e-12
-8.8319e-10
1.6007e-10
-1.23506e-10
-7.14729e-11
-9.92549e-11
-1.06458e-10
-1.0595e-10
-8.32169e-11
-6.37998e-11
-5.3292e-11
-4.12526e-11
-2.04513e-11
-2.27529e-11
-4.33111e-11
-6.61267e-11
-7.94865e-11
-8.19615e-11
-7.66259e-11
-5.20363e-11
-3.68215e-10
6.52719e-12
-1.06079e-10
-1.06378e-10
-1.20815e-10
-1.08761e-10
-6.61876e-11
-1.24568e-11
-3.50047e-13
-2.96174e-11
-7.39676e-11
-7.60552e-11
-6.54546e-11
-6.18459e-11
-5.16617e-11
-4.61789e-11
-5.11433e-11
-5.53735e-11
-5.9183e-11
-1.59488e-10
-2.85071e-11
-9.16733e-11
-1.10732e-10
-1.20934e-10
-1.0038e-10
-4.70352e-11
-1.66637e-12
3.16783e-12
-1.325e-11
-6.73631e-11
-9.21051e-11
-7.18746e-11
-4.13007e-11
-2.28974e-11
-1.63295e-11
-1.68074e-11
-2.7071e-11
-4.33294e-11
-6.60102e-11
-3.05175e-11
-7.14527e-11
-9.93962e-11
-1.11921e-10
-9.46779e-11
-4.91006e-11
-2.05982e-11
-1.47333e-11
-1.02075e-11
-4.64102e-11
-8.77597e-11
-7.64364e-11
-4.75869e-11
-3.76423e-11
-1.6285e-11
-6.38018e-12
-3.88504e-12
1.00123e-11
-2.19502e-11
-2.40348e-11
-4.9591e-11
-8.00265e-11
-9.64961e-11
-8.74421e-11
-5.20663e-11
-3.05714e-11
-1.8668e-11
-6.04466e-12
-1.81436e-11
-6.69912e-11
-8.25662e-11
-6.15975e-11
-3.36708e-11
-8.78362e-12
-5.69585e-13
1.1065e-12
2.59462e-12
3.70515e-11
-2.52959e-11
-2.93149e-11
-5.8825e-11
-7.7134e-11
-7.67252e-11
-5.03439e-11
-2.92835e-11
-1.35698e-11
-2.33655e-12
-2.5363e-12
-3.3018e-11
-6.76168e-11
-5.62471e-11
-2.16489e-11
-3.74984e-12
5.92469e-13
4.28483e-13
6.48519e-13
2.73783e-11
-1.38807e-11
-1.73765e-11
-3.98693e-11
-5.71057e-11
-6.19345e-11
-3.88763e-11
-1.9037e-11
-5.80635e-12
2.44502e-13
4.35636e-13
-9.32626e-12
-3.50191e-11
-2.76335e-11
-8.62189e-12
1.64025e-13
4.83133e-13
-4.88935e-14
-1.9746e-13
1.28815e-10
-3.11849e-11
-5.55081e-12
-2.69429e-11
-3.89648e-11
-4.21583e-11
-2.10523e-11
-7.46679e-12
-3.39214e-13
6.55692e-13
5.89239e-13
-7.99747e-13
-1.1918e-11
-7.86858e-12
-1.13562e-12
4.55468e-13
-5.38152e-14
-1.54855e-14
-6.26756e-15
-2.67178e-11
5.39382e-12
-1.01047e-11
-1.71998e-11
-2.46826e-11
-1.76714e-11
-5.76355e-12
-7.81197e-14
9.04685e-13
1.15755e-13
4.07766e-13
7.00928e-13
-2.0266e-12
-3.44477e-13
3.00845e-13
3.17176e-14
-4.82283e-15
1.10999e-14
3.76889e-15
8.4366e-10
-1.99715e-10
4.47328e-11
-1.60318e-11
-4.66076e-12
-9.64527e-13
9.62479e-13
6.85015e-13
1.49006e-14
-4.15776e-14
4.65225e-13
1.14853e-12
1.21201e-12
5.2807e-13
3.55044e-14
-2.49248e-14
4.03113e-15
-2.6012e-15
8.71751e-16
2.88261e-16
-4.0148e-14
3.98239e-14
3.35005e-14
4.63309e-14
1.24753e-14
-3.61285e-14
1.05414e-13
-5.80407e-13
-2.67727e-13
-5.06497e-13
-5.4715e-13
4.91775e-13
4.42076e-13
4.98443e-12
1.2589e-12
1.25111e-12
6.21877e-12
1.04825e-12
1.61036e-12
1.28996e-13
6.21202e-13
6.96026e-13
7.23965e-13
6.77599e-13
8.75505e-13
1.20586e-11
8.83994e-13
8.8938e-13
8.79761e-13
8.75692e-13
8.85484e-13
8.82605e-13
9.11442e-13
9.67516e-13
1.04918e-12
1.15605e-12
1.2628e-12
1.32527e-12
1.62056e-12
4.10569e-11
6.17315e-12
6.16765e-12
6.22142e-12
2.93914e-11
3.49917e-12
-8.25041e-14
-3.45107e-12
-6.67075e-12
1.37607e-11
2.29598e-11
4.80843e-11
-7.08323e-13
-1.05889e-12
5.29829e-13
-2.30249e-12
-1.85283e-13
5.85239e-13
8.98872e-13
-4.15678e-13
-4.98768e-13
-3.36285e-13
-4.08484e-13
-4.16935e-13
-4.50481e-13
-4.84947e-13
-5.00463e-13
-5.13989e-13
-5.39469e-13
-5.55713e-13
-5.54403e-13
-5.4804e-13
-5.21292e-13
-2.47211e-12
-2.8768e-13
-1.71568e-13
-1.4214e-13
-8.70019e-14
-5.53199e-15
2.58556e-13
8.59749e-13
1.2027e-12
6.46503e-12
1.508e-12
1.42647e-12
6.41014e-12
9.83696e-13
8.11287e-13
3.36264e-12
5.62783e-13
7.17043e-13
2.23323e-12
-1.24251e-13
-1.03413e-13
-7.40434e-14
-3.86599e-13
-8.1203e-14
-9.49955e-14
-2.93862e-13
9.34681e-15
1.58423e-09
-3.87e-10
7.79655e-11
-2.30791e-11
-7.18348e-12
-1.23814e-12
1.27859e-12
9.38495e-13
3.47143e-14
-8.27397e-14
1.39644e-13
7.49261e-13
1.05043e-12
3.89673e-14
-5.24353e-14
2.7868e-15
-8.2097e-17
-2.29918e-15
-8.89964e-15
3.50329e-10
-5.00703e-11
4.41386e-13
-3.2825e-11
-3.08105e-11
-2.27921e-11
-8.29842e-12
-4.28272e-13
1.14669e-12
1.0199e-13
1.36649e-13
8.85889e-13
8.32832e-13
8.17097e-13
1.2964e-13
-3.61988e-14
9.25203e-15
7.30887e-15
2.56934e-14
8.41004e-10
-1.69588e-10
1.18021e-11
-4.58262e-11
-3.79402e-11
-4.05544e-11
-2.39417e-11
-9.58993e-12
-6.89015e-13
7.44022e-13
3.17956e-13
8.81079e-13
-2.65449e-12
-1.13571e-13
5.3388e-13
7.07592e-14
2.30484e-13
7.17748e-15
-1.09396e-13
5.32793e-10
-1.18572e-10
8.59706e-13
-5.0961e-11
-4.23083e-11
-4.61399e-11
-3.47735e-11
-2.11918e-11
-7.28732e-12
1.28636e-13
5.98681e-13
-1.97508e-12
-1.356e-11
-6.71319e-12
-9.02991e-13
6.48859e-13
7.56368e-13
4.01691e-14
-6.75672e-13
9.17252e-10
-2.10988e-10
1.02675e-11
-5.65787e-11
-4.61379e-11
-4.94787e-11
-3.78356e-11
-2.84629e-11
-1.52166e-11
-2.83106e-12
5.36877e-13
-1.48888e-11
-3.53636e-11
-2.26126e-11
-7.7788e-12
-1.10003e-12
-3.04961e-14
8.69687e-13
-2.32238e-12
9.28933e-10
-2.25734e-10
1.41317e-11
-6.10576e-11
-5.04358e-11
-5.28185e-11
-3.65286e-11
-2.72587e-11