/*--------------------------------*- C++ -*----------------------------------*\
| =========                 |                                                 |
| \\      /  F ield         | OpenFOAM: The Open Source CFD Toolbox           |
|  \\    /   O peration     | Version:  4.1                                   |
|   \\  /    A nd           | Web:      www.OpenFOAM.org                      |
|    \\/     M anipulation  |                                                 |
\*---------------------------------------------------------------------------*/
FoamFile
{
    version     2.0;
    format      ascii;
    class       volVectorField;
    location    "5";
    object      U;
}
// * * * * * * * * * * * * * * * * * * * * * * * * * * * * * * * * * * * * * //

dimensions      [0 1 -1 0 0 0 0];

internalField   nonuniform List<vector> 
1280
(
(-2.08319e-19 2.29136 -0.0519648)
(6.82355e-18 1.41992 -0.189203)
(-4.0229e-17 1.11606 -0.221591)
(-2.42099e-17 1.39334 -0.246629)
(-7.87439e-18 1.55552 -0.372781)
(-9.01555e-18 1.20244 -0.337498)
(2.61091e-17 1.39477 -0.365031)
(-9.86201e-17 1.36345 -0.364277)
(1.80253e-16 1.63995 -0.623185)
(1.93479e-16 1.39534 -0.534509)
(3.86433e-16 1.52306 -0.49496)
(-4.81755e-17 1.85962 -0.800247)
(-3.73038e-16 1.5927 -0.654059)
(-3.19477e-16 1.74957 -0.602457)
(-1.02461e-15 2.15124 -0.965434)
(-9.09775e-16 1.86095 -0.810509)
(-9.04143e-16 2.12482 -0.685488)
(-1.05694e-15 2.17169 -1.66884)
(-7.57544e-16 2.86184 -0.567583)
(-1.16377e-15 1.75803 -3.00061)
(-5.29214e-16 2.67661 1.64005)
(-2.54852e-15 2.74728 4.4791)
(-2.85549e-15 2.60421 5.79378)
(-2.97011e-15 2.85633 6.85111)
(-2.7799e-15 2.72834 7.61445)
(-3.59181e-15 3.05893 8.61912)
(-2.54201e-15 2.18177 7.25174)
(-3.62664e-15 5.85386 12.5137)
(-3.64874e-15 6.14842 13.084)
(-3.60928e-15 6.21899 13.5916)
(-3.59258e-15 6.29781 14.0002)
(-3.63276e-15 6.36823 14.3161)
(-3.62094e-15 6.414 14.5522)
(-3.73925e-15 6.43668 14.7158)
(-3.9693e-15 6.48093 14.8241)
(-4.30434e-15 6.46255 14.8826)
(-4.74278e-15 6.56165 14.9412)
(-5.18072e-15 6.4071 14.9241)
(-5.437e-15 6.78053 15.6791)
(-6.64846e-15 6.41588 14.2479)
(-7.14654e-15 10.139 14.8912)
(-4.95835e-15 4.89093 10.45)
(-4.95394e-15 3.27163 10.1547)
(-4.99712e-15 2.54534 10.4662)
(-4.97952e-15 0.0518095 7.27387)
(-2.81058e-15 -0.683441 -5.37641)
(6.62684e-17 -0.182418 -4.02165)
(2.77194e-15 0.247943 -4.46748)
(3.33532e-15 1.01988 -5.09186)
(-1.10528e-14 -0.204136 -3.77767)
(-1.84416e-14 0.0126011 -3.60838)
(-8.36977e-15 -0.983686 -4.57694)
(5.68934e-16 -0.135343 -3.97872)
(8.50513e-16 0.211193 -3.65603)
(-4.25565e-16 0.739871 -5.06391)
(4.00782e-16 0.0460641 6.46924)
(1.48822e-16 -2.33677 10.0103)
(-4.70072e-16 -3.1266 9.47115)
(-7.21986e-16 -4.47303 9.7088)
(-1.72951e-16 -8.96224 13.8646)
(2.04623e-15 -6.66034 12.8498)
(1.37963e-15 -6.92636 13.6074)
(1.67583e-15 -6.8145 13.5337)
(1.7105e-15 -6.93042 13.7108)
(1.84813e-15 -6.92753 13.8001)
(1.98953e-15 -6.98155 13.9205)
(2.05318e-15 -7.00653 14.0256)
(2.10867e-15 -7.04147 14.1112)
(2.21321e-15 -7.06335 14.1611)
(2.27985e-15 -7.0785 14.171)
(2.27447e-15 -7.07352 14.143)
(2.24837e-15 -7.03736 14.0777)
(2.13863e-15 -6.98906 13.9294)
(5.2113e-16 -3.37987 9.30963)
(1.18023e-15 -4.27369 10.4469)
(7.03867e-16 -3.89431 10.184)
(5.8314e-16 -3.76199 9.78249)
(3.56931e-16 -3.47592 8.5318)
(2.26953e-17 -3.68848 5.67157)
(-1.06074e-15 -3.48529 0.625376)
(-6.21318e-16 -2.93416 -3.3378)
(-8.69163e-16 -3.56896 -1.31076)
(-1.09879e-15 -2.98597 -2.4017)
(-1.08979e-15 -2.60345 -0.916001)
(-1.03088e-15 -2.31549 -1.13129)
(-1.1858e-15 -2.50257 -1.33249)
(-7.42206e-16 -1.98704 -0.68026)
(-5.86296e-16 -1.81955 -0.78144)
(-7.12413e-16 -2.02387 -0.961009)
(-4.06708e-16 -1.61757 -0.534412)
(-4.98835e-16 -1.48827 -0.602849)
(-5.34391e-16 -1.68654 -0.73953)
(6.71247e-17 -1.36494 -0.437163)
(7.47339e-17 -1.38733 -0.462187)
(5.35092e-17 -1.18885 -0.443151)
(6.57062e-17 -1.48254 -0.516922)
(5.86833e-17 -1.29503 -0.321882)
(5.32321e-17 -1.03375 -0.308205)
(7.45701e-17 -1.28468 -0.260762)
(-6.7547e-18 -2.05966 -0.038037)
(-1.76025e-13 102.853 91.1382)
(4.3e-14 -26.4477 -16.6036)
(-8.66283e-15 7.45122 25.0575)
(2.56435e-15 -4.47983 -1.70669)
(7.98165e-16 -1.04565 4.47731)
(1.37571e-16 -3.86461 -1.33814)
(-1.42066e-16 -4.09948 -0.8587)
(-1.04277e-16 -4.29801 -0.124052)
(-3.85714e-18 -3.57255 0.629004)
(9.1933e-18 -2.42952 1.08206)
(-1.5516e-17 -0.741364 1.78203)
(-8.32512e-17 0.82899 1.88246)
(-1.16714e-16 0.0106368 -0.546323)
(-4.3297e-18 -1.38155 -0.398148)
(5.82614e-18 -1.29022 0.0792014)
(-3.09644e-19 -0.723335 0.372304)
(9.12188e-21 -0.505067 0.0487507)
(2.55464e-19 -0.773562 -0.234752)
(9.88849e-19 -1.08908 0.0976226)
(-3.89254e-14 -62.5953 -1.14971)
(5.56336e-15 20.5866 5.93898)
(-4.90429e-17 -3.11373 5.60969)
(3.64722e-15 2.96482 3.93338)
(3.42339e-15 0.217268 2.77027)
(2.53246e-15 -1.65569 -1.36196)
(9.22046e-16 -3.45528 -1.71546)
(4.75857e-17 -4.162 -1.14758)
(-1.2741e-16 -3.42751 0.455181)
(-1.13322e-17 -2.04994 1.9012)
(-1.51832e-17 -0.31818 2.39336)
(-9.84321e-17 1.00869 0.687687)
(-9.25369e-17 0.517887 -1.03391)
(-9.07885e-17 -1.23411 -1.05005)
(-1.44044e-17 -1.31004 -0.209673)
(4.02209e-18 -0.538741 0.532086)
(-1.028e-18 -0.136596 0.0224628)
(-8.12097e-19 -0.668777 -0.464709)
(-2.85482e-18 -1.03142 -0.00112926)
(-9.34449e-14 30.9459 27.5137)
(1.88431e-14 -6.74478 -4.89969)
(-1.31134e-15 3.79467 10.4559)
(5.0918e-15 0.352876 2.25016)
(4.21557e-15 1.69127 4.56792)
(4.50605e-15 -0.641762 0.323616)
(2.66019e-15 -2.43491 -0.951932)
(1.06555e-15 -3.51083 -1.36487)
(7.65573e-17 -3.27178 -0.379041)
(-8.26691e-17 -2.03752 1.22406)
(-3.53284e-17 0.184205 1.7598)
(-9.78977e-17 1.78893 -0.349816)
(2.94943e-16 0.841746 -1.90992)
(1.2619e-17 -1.2825 -1.60808)
(-5.932e-17 -1.35705 -0.5562)
(-7.86213e-18 -0.409756 0.327983)
(-2.56093e-17 0.180973 -0.449193)
(-7.97497e-19 -0.445263 -0.517844)
(1.21551e-17 -0.636399 -0.321285)
(-5.91992e-14 -14.8588 14.4027)
(1.31747e-14 5.80941 0.415009)
(-9.55229e-17 0.639874 7.96959)
(5.66234e-15 1.8913 3.65546)
(4.70092e-15 1.8158 5.33428)
(5.12665e-15 0.374954 2.81584)
(3.86372e-15 -2.26303 0.279185)
(2.35464e-15 -3.78999 -0.916806)
(8.09702e-16 -3.94707 -0.504735)
(-1.42929e-17 -2.76065 0.44481)
(-6.65201e-17 0.842114 0.964247)
(2.19453e-16 2.50518 -1.45706)
(1.50666e-15 1.1702 -2.48347)
(7.4591e-16 -1.83675 -2.28223)
(1.00332e-16 -1.89544 -1.04598)
(-7.20954e-17 -0.470543 0.0317091)
(-8.40409e-17 0.221374 -0.770092)
(-4.46324e-18 -0.649045 -0.546048)
(7.50747e-17 -0.807909 -0.79705)
(-1.01917e-13 10.0473 22.8593)
(2.34431e-14 -0.62075 -4.10677)
(-1.14084e-15 2.5064 9.32395)
(6.28652e-15 1.35923 4.03726)
(5.12644e-15 2.2381 6.56006)
(5.49764e-15 1.19122 4.8134)
(4.20395e-15 -1.46218 2.49071)
(3.16255e-15 -3.59357 0.198874)
(1.69073e-15 -4.14843 0.171973)
(3.14563e-16 -3.07692 0.289797)
(-5.9653e-17 1.05101 0.0451859)
(1.65431e-15 3.05609 -1.8077)
(3.92929e-15 1.30689 -1.53559)
(2.51251e-15 -1.8177 -1.86246)
(8.64311e-16 -2.27247 -1.00895)
(1.22226e-16 -0.60761 -0.297018)
(3.38845e-18 0.150989 -1.40837)
(-9.66318e-17 -0.378291 -0.87969)
(2.58042e-16 -0.309837 -1.4607)
(-1.03215e-13 -2.84312 19.4734)
(2.50815e-14 2.25466 -1.86698)
(-1.57019e-15 1.20233 9.50557)
(6.78418e-15 1.51724 5.20712)
(5.60398e-15 2.10287 7.58527)
(5.86872e-15 1.75208 6.71972)
(4.05873e-15 -0.416456 5.45219)
(3.02875e-15 -2.90369 2.55964)
(2.1406e-15 -3.93565 1.57767)
(7.34741e-16 -2.91238 0.929019)
(6.69419e-16 1.76004 -0.220315)
(4.60184e-15 3.10199 0.152935)
(6.10466e-15 0.870214 1.63297)
(3.91771e-15 -2.19777 -0.224947)
(1.63288e-15 -2.30038 -0.0845058)
(5.14676e-16 -0.297796 0.0343354)
(1.65175e-16 0.177069 -1.52436)
(-1.84532e-17 -1.00818 -1.35367)
(4.39377e-16 -0.868207 -2.91933)
(-1.37705e-13 4.0951 22.0178)
(3.42061e-14 0.487608 -2.7536)
(-3.14561e-15 1.4387 10.3087)
(7.40842e-15 1.29258 5.90985)
(5.91418e-15 1.99959 8.56364)
(6.16691e-15 1.88038 8.36573)
(3.79429e-15 0.345857 8.35935)
(2.13233e-15 -2.05867 5.92018)
(1.68137e-15 -3.38314 4.00129)
(1.00619e-15 -2.38822 2.39752)
(3.38231e-15 1.49436 1.75838)
(7.06951e-15 2.46343 4.06361)
(5.80093e-15 0.997583 4.88793)
(3.81041e-15 -1.9773 2.3654)
(2.49483e-15 -2.16151 1.24834)
(7.38033e-16 0.640623 0.401122)
(-4.46721e-16 1.19209 0.943406)
(3.10435e-16 1.14792 -2.46384)
(-3.59897e-16 0.839173 0.459698)
(-1.64127e-13 -0.698391 21.158)
(4.14346e-14 1.09908 -0.940642)
(-5.67101e-15 0.674084 10.7404)
(7.68418e-15 1.0865 6.70508)
(5.7055e-15 1.60419 9.50513)
(6.29561e-15 1.65069 9.96718)
(3.6384e-15 0.599068 10.9756)
(6.58371e-16 -1.33741 9.4468)
(1.89656e-17 -2.54644 7.02842)
(1.18153e-15 -1.81932 4.69044)
(6.15336e-15 0.811158 5.05944)
(8.54982e-15 1.98037 7.636)
(5.53834e-15 1.67436 8.45488)
(2.03614e-15 -0.540219 5.86743)
(1.39466e-15 -1.35516 3.18769)
(6.04109e-17 0.210208 3.79271)
(-5.22515e-16 0.136612 6.41595)
(-7.66212e-16 -2.07471 7.59157)
(-7.2686e-16 -6.03106 10.4051)
(-2.06286e-13 2.26519 22.5618)
(5.47408e-14 0.110745 -0.684297)
(-1.06123e-14 0.708973 11.2239)
(7.07515e-15 0.773032 7.34296)
(4.43354e-15 1.11255 10.5033)
(6.19622e-15 1.16215 11.5084)
(4.84027e-15 0.627893 13.2371)
(1.90481e-15 -0.522032 12.6141)
(9.8496e-16 -1.44445 10.3569)
(3.64517e-15 -1.26496 7.8887)
(8.604e-15 0.249263 7.82573)
(9.59476e-15 1.30506 9.67964)
(7.2349e-15 1.33181 11.856)
(3.32316e-15 -0.203872 12.4267)
(1.83845e-15 -1.12604 11.0074)
(2.05714e-15 -0.678004 11.5609)
(1.93377e-15 -0.199634 12.9219)
(1.27156e-15 -0.890702 12.4278)
(8.36844e-16 -2.45816 10.9202)
(-2.30546e-13 -1.45974 24.1357)
(6.75966e-14 0.434804 -0.67417)
(-1.76703e-14 0.0766903 11.6962)
(3.96205e-15 0.306699 8.02945)
(7.20184e-16 0.384729 11.5001)
(4.06356e-15 0.383569 12.844)
(5.93783e-15 0.152791 14.9081)
(5.24168e-15 -0.297933 14.7964)
(4.99004e-15 -0.698851 12.5356)
(5.41386e-15 -0.708561 9.16228)
(6.80618e-15 -0.0607272 7.48412)
(7.70601e-15 0.539842 9.08832)
(8.91081e-15 0.542755 12.3222)
(8.19613e-15 -0.250227 14.2632)
(6.21583e-15 -0.792065 13.5645)
(4.06679e-15 -0.514883 11.9162)
(2.54379e-15 -0.246988 10.4857)
(1.37925e-15 -0.794465 8.35829)
(-4.75807e-16 -2.26104 4.73477)
(-9.81322e-14 1.46658 23.8452)
(1.77856e-14 -0.456852 -0.41256)
(-1.37229e-14 -0.0814949 11.6526)
(-7.94143e-15 -0.252163 8.07315)
(-1.10283e-14 -0.352057 11.5282)
(-1.18286e-14 -0.335309 12.8709)
(-1.21001e-14 -0.0788789 14.9087)
(-9.24632e-15 0.402422 14.7723)
(-7.08887e-15 0.83929 12.4984)
(-5.92133e-15 0.858424 9.0338)
(-4.58363e-15 0.14583 7.06586)
(-2.27236e-15 -0.476709 8.41428)
(-2.5281e-15 -0.797563 11.7124)
(-4.81234e-15 -0.711789 14.0054)
(-7.34741e-15 -0.217258 13.7308)
(-8.83183e-15 0.45841 12.3883)
(-9.10683e-15 0.886385 11.5827)
(-8.51398e-15 1.82553 9.97693)
(-5.78181e-15 3.18234 6.17326)
(-4.09128e-14 -2.41622 22.5554)
(7.25243e-16 -0.102937 -0.708825)
(-1.17866e-14 -0.690341 11.1743)
(-1.18197e-14 -0.739886 7.33842)
(-1.34239e-14 -1.07758 10.5159)
(-1.20846e-14 -1.10513 11.5188)
(-7.35418e-15 -0.536271 13.2015)
(-1.38409e-15 0.640105 12.5655)
(-3.88942e-17 1.61847 10.3773)
(-3.29082e-15 1.54091 7.97013)
(-8.21862e-15 0.0240618 7.86836)
(-8.45058e-15 -1.18417 9.63886)
(-7.27274e-15 -1.80575 12.0523)
(-6.87177e-15 -1.09459 13.5858)
(-5.74019e-15 -0.00788069 12.0945)
(-5.13099e-15 0.566063 10.28)
(-5.68259e-15 0.865933 10.8339)
(-6.15261e-15 1.99321 11.257)
(-6.57589e-15 3.5579 11.0243)
(-1.77209e-14 0.73044 21.2891)
(-3.16745e-15 -1.10221 -1.10166)
(-1.01859e-14 -0.664794 10.6785)
(-1.23036e-14 -1.0659 6.63357)
(-1.34371e-14 -1.5725 9.46441)
(-1.11534e-14 -1.58387 9.92732)
(-5.22614e-15 -0.498371 10.8954)
(-1.85152e-16 1.41938 9.38832)
(3.51981e-16 2.63641 7.07655)
(-1.47222e-15 1.97084 4.91238)
(-7.48478e-15 -0.696202 5.69788)
(-1.02339e-14 -2.01164 8.4728)
(-7.98606e-15 -2.37673 9.96119)
(-4.58896e-15 -0.692641 8.46379)
(-2.54416e-15 1.18544 3.98215)
(-1.81438e-15 0.954247 1.681)
(-1.86749e-15 -0.125878 1.46078)
(-3.00789e-15 1.45123 3.71383)
(-4.81438e-15 6.32206 8.25768)
(-7.33447e-15 -4.37423 22.368)
(-3.39083e-15 -0.353324 -3.06416)
(-7.93919e-15 -1.46072 10.2489)
(-1.1044e-14 -1.276 5.7928)
(-1.24357e-14 -1.97416 8.47441)
(-1.05198e-14 -1.81111 8.28254)
(-5.45562e-15 -0.244094 8.27752)
(-2.28869e-15 2.12174 5.93276)
(-1.63703e-15 3.42607 4.0942)
(-1.13416e-15 2.38084 2.57441)
(-5.15668e-15 -1.46901 2.80079)
(-9.75108e-15 -2.66296 5.43637)
(-8.49293e-15 -2.06837 6.65193)
(-5.28744e-15 0.984385 4.0971)
(-4.18248e-15 2.5079 1.62091)
(-1.80944e-15 1.84936 1.1325)
(-7.08909e-16 0.243094 -0.71644)
(-4.31671e-16 -0.594553 -1.66348)
(1.11248e-15 -1.46657 -2.27351)
(-2.43891e-15 2.54644 19.6341)
(-2.67053e-15 -2.03892 -2.00657)
(-5.51011e-15 -1.24498 9.43537)
(-8.89184e-15 -1.49095 5.09797)
(-1.07218e-14 -2.08067 7.47829)
(-9.71579e-15 -1.69052 6.61969)
(-5.78515e-15 0.487044 5.38479)
(-3.39682e-15 2.92749 2.61313)
(-2.07422e-15 3.9548 1.67047)
(-6.71629e-16 2.79575 1.02228)
(-2.01595e-15 -1.94818 0.531686)
(-7.44347e-15 -3.34381 1.75985)
(-9.17403e-15 -1.91357 3.29529)
(-6.84416e-15 1.68056 1.25106)
(-3.7412e-15 2.70469 0.104933)
(-9.75958e-16 2.00412 0.421844)
(-6.32873e-17 0.628322 -0.314562)
(1.22944e-16 1.16544 -0.499751)
(2.88292e-16 1.60555 -1.4807)
(4.11683e-15 -9.9406 22.4885)
(-2.81065e-15 0.79135 -4.33314)
(-3.25722e-15 -2.56786 9.20473)
(-6.53612e-15 -1.32224 3.96689)
(-8.57044e-15 -2.21585 6.46532)
(-8.52503e-15 -1.14131 4.73428)
(-5.59376e-15 1.49081 2.48166)
(-3.25372e-15 3.59592 0.261132)
(-1.50775e-15 4.16028 0.233205)
(-2.59617e-16 2.95505 0.376601)
(-2.81811e-16 -1.85676 0.137225)
(-3.66867e-15 -3.58616 -0.863495)
(-7.51297e-15 -2.13991 -0.0338623)
(-6.24968e-15 1.7227 -1.00205)
(-2.40543e-15 2.96005 -1.02292)
(-4.16649e-16 2.0865 -0.233779)
(6.58299e-17 0.734346 -0.233048)
(4.76092e-17 0.692907 -0.520598)
(7.20577e-17 0.351831 -0.609199)
(3.04204e-15 11.4749 15.1233)
(-1.5423e-15 -4.88388 0.209721)
(-1.93072e-15 -0.80778 7.95243)
(-4.42992e-15 -1.81877 3.63547)
(-6.34508e-15 -1.79527 5.26764)
(-6.88161e-15 -0.340144 2.77945)
(-4.31959e-15 2.26847 0.317436)
(-2.11522e-15 3.78788 -0.870123)
(-6.4515e-16 3.96075 -0.454636)
(2.71669e-17 2.68795 0.54672)
(4.8404e-17 -1.43059 0.80035)
(-1.03625e-15 -3.14904 -1.3054)
(-3.89101e-15 -2.04601 -2.01207)
(-3.07039e-15 1.38691 -2.46321)
(-9.57987e-16 2.61689 -1.53685)
(1.8225e-17 1.76182 -0.285349)
(5.36814e-17 0.647201 0.048329)
(-5.43262e-18 0.941941 -0.276283)
(-2.194e-17 1.06919 -0.233245)
(1.43128e-14 -29.6721 24.0458)
(-3.46499e-15 7.30047 -5.30209)
(-6.16757e-16 -3.98275 9.89871)
(-2.99365e-15 -0.287086 2.34077)
(-4.32942e-15 -1.67355 4.50955)
(-4.68425e-15 0.657403 0.342342)
(-2.33914e-15 2.43624 -0.910067)
(-8.29644e-16 3.50681 -1.32107)
(-3.76905e-17 3.28965 -0.320033)
(7.28546e-17 2.01579 1.36207)
(6.54711e-17 -1.09362 1.56656)
(-8.88607e-17 -2.64756 -0.501643)
(-1.32423e-15 -1.74755 -2.083)
(-8.74287e-16 1.38126 -2.36542)
(-1.2618e-16 2.11574 -1.33551)
(5.06076e-17 1.34416 -0.0617901)
(-5.97946e-18 0.546763 0.182445)
(-1.72061e-18 0.760534 -0.293292)
(-6.96395e-19 0.813681 0.0780238)
(-2.96865e-15 49.8539 -1.90186)
(5.99313e-16 -19.5439 7.89352)
(-1.12275e-15 2.86122 5.50077)
(-1.91109e-15 -2.86932 4.11726)
(-2.74251e-15 -0.191918 2.71786)
(-1.96349e-15 1.65742 -1.32314)
(-6.40395e-16 3.44928 -1.67629)
(-8.67996e-18 4.14341 -1.10428)
(1.00521e-16 3.3946 0.541044)
(1.28616e-17 1.93868 2.15676)
(4.53073e-17 -0.245555 2.52797)
(7.78809e-17 -1.22297 0.399156)
(-2.25177e-16 -0.982369 -1.30464)
(-3.82752e-17 1.31522 -1.84058)
(3.34272e-17 1.98006 -0.929313)
(3.52418e-18 1.38736 0.243244)
(-5.3587e-19 0.93176 0.284708)
(1.23333e-18 1.13376 -0.239993)
(4.18766e-19 1.37628 0.27756)
(9.374e-14 -91.2576 86.3109)
(-2.21905e-14 25.4185 -16.3097)
(4.97031e-15 -7.18108 23.9868)
(-1.78131e-15 4.3995 -1.55185)
(-5.17862e-16 1.09371 4.35836)
(-1.0717e-16 3.85473 -1.32628)
(1.06942e-16 4.08359 -0.84337)
(7.61128e-17 4.2641 -0.10341)
(1.65562e-18 3.48389 0.69952)
(-4.61974e-18 2.04526 1.47166)
(5.16916e-17 -0.838715 3.40978)
(1.27614e-16 -2.34682 2.75187)
(1.34667e-16 -1.08898 -0.556446)
(5.86744e-17 1.54282 -1.0065)
(3.94494e-18 2.0085 -0.263918)
(-2.76942e-18 1.48489 0.276059)
(4.47903e-19 1.22664 0.131942)
(-2.89022e-19 1.26917 -0.11118)
(9.68612e-20 1.46333 0.202596)
(3.63593e-17 6.92924 12.2649)
(-6.49009e-15 10.1341 17.2268)
(-5.38296e-15 9.75716 16.368)
(-5.01588e-15 9.6627 16.0337)
(-4.83637e-15 9.71457 15.9456)
(-7.45094e-15 9.74786 15.8628)
(-5.68054e-15 9.62346 15.4882)
(-4.96472e-15 9.64321 15.5499)
(-4.81715e-15 9.66342 15.5875)
(-4.93166e-15 9.65758 15.5981)
(-4.81565e-15 9.63428 15.6192)
(-4.9212e-15 9.61886 15.6472)
(-4.64336e-15 9.59716 15.6881)
(-4.73329e-15 9.5803 15.7325)
(-4.73713e-15 9.55857 15.7828)
(-4.70562e-15 9.53992 15.8382)
(-4.83056e-15 9.54124 15.916)
(-4.48999e-15 9.81453 16.534)
(-4.11761e-15 10.4411 17.4939)
(-6.71305e-15 6.47369 11.1224)
(-4.08772e-17 6.25656 10.6674)
(-5.56672e-15 9.16878 15.8814)
(-4.07817e-15 8.6421 14.9587)
(-3.99325e-15 8.65431 14.9393)
(-3.81506e-15 8.65827 14.9844)
(-6.76243e-15 8.7055 15)
(-4.19465e-15 8.75722 15.1055)
(-4.32202e-15 8.80467 15.0939)
(-4.21932e-15 8.82091 15.1109)
(-4.13001e-15 8.85863 15.1242)
(-4.03142e-15 8.88166 15.1454)
(-4.28652e-15 8.90861 15.161)
(-4.08817e-15 8.92771 15.1814)
(-4.26683e-15 8.94762 15.2005)
(-4.3376e-15 8.96082 15.223)
(-4.2431e-15 8.9654 15.2289)
(-4.16219e-15 8.98065 15.2756)
(-4.31986e-15 9.32428 15.8727)
(-4.00582e-15 9.73337 16.6001)
(-6.44397e-15 5.55689 9.51935)
(5.44676e-18 6.4754 11.3177)
(-1.922e-15 9.57417 16.5066)
(-1.59045e-15 9.04008 15.6614)
(-1.44623e-15 9.01465 15.5072)
(-1.16959e-15 8.99195 15.5191)
(-3.72286e-15 9.01949 15.496)
(-1.72418e-15 8.99553 15.48)
(-1.94133e-15 9.01063 15.4717)
(-2.04346e-15 9.00635 15.4723)
(-1.93206e-15 9.01597 15.4646)
(-1.97729e-15 9.01493 15.4631)
(-1.76224e-15 9.02179 15.4596)
(-2.08564e-15 9.0239 15.46)
(-2.02689e-15 9.0299 15.461)
(-1.94085e-15 9.03116 15.4613)
(-1.68198e-15 9.02398 15.4436)
(-1.63409e-15 9.05125 15.4955)
(-1.92221e-15 9.43877 16.1501)
(-1.7703e-15 9.71434 16.5936)
(-2.76121e-15 5.298 9.11325)
(-6.15425e-20 6.34383 11.0024)
(4.44442e-16 9.46944 16.3404)
(3.79261e-16 8.94953 15.5113)
(3.04747e-16 8.91115 15.3636)
(3.39361e-16 8.89139 15.3877)
(-2.03727e-15 8.91978 15.3798)
(-1.50803e-15 8.91001 15.3942)
(-1.83624e-15 8.92862 15.3876)
(-2.07322e-15 8.92406 15.3926)
(-2.04795e-15 8.93636 15.3899)
(-1.80889e-15 8.93708 15.3923)
(-1.51339e-15 8.94546 15.3913)
(-2.05942e-15 8.94889 15.3921)
(-1.72112e-15 8.9552 15.3925)
(-1.68328e-15 8.95667 15.3883)
(-1.77401e-15 8.94812 15.3652)
(-1.5548e-15 9.00039 15.4537)
(-1.69128e-15 9.43605 16.1752)
(-1.75986e-15 9.5342 16.332)
(-3.10866e-15 4.88086 8.36066)
(-5.70664e-19 6.41406 11.1631)
(-1.0478e-16 9.54672 16.4424)
(-9.03389e-17 9.01435 15.6256)
(-6.94844e-17 8.96256 15.4501)
(-8.26625e-17 8.93803 15.472)
(4.78813e-16 8.96091 15.4624)
(3.99831e-16 8.94545 15.4696)
(4.54978e-16 8.95826 15.4649)
(4.67437e-16 8.95186 15.4694)
(4.50142e-16 8.95974 15.4673)
(4.51429e-16 8.95832 15.4697)
(4.17245e-16 8.96368 15.4692)
(4.73419e-16 8.96586 15.4701)
(4.71261e-16 8.96952 15.4708)
(4.48158e-16 8.97077 15.4638)
(4.05294e-16 8.95975 15.4423)
(4.02381e-16 9.03921 15.5664)
(4.43942e-16 9.49856 16.3417)
(4.22929e-16 9.44167 16.2192)
(6.9445e-16 4.60931 7.94082)
(3.47074e-19 6.4444 11.1966)
(2.49979e-17 9.52749 16.4089)
(2.12222e-17 8.9924 15.586)
(1.68256e-17 8.932 15.4104)
(1.91651e-17 8.9105 15.4348)
(-1.202e-16 8.92983 15.4305)
(-1.00563e-16 8.91689 15.4419)
(-1.03532e-16 8.92752 15.4414)
(-1.07009e-16 8.92189 15.4494)
(-1.03548e-16 8.92854 15.4517)
(-1.06027e-16 8.92743 15.4582)
(-1.07671e-16 8.93207 15.4622)
(-1.07551e-16 8.93459 15.4676)
(-1.10707e-16 8.93741 15.4732)
(-1.08996e-16 8.93991 15.4696)
(-1.03229e-16 8.92837 15.4569)
(-1.01869e-16 9.02611 15.6068)
(-1.04654e-16 9.49163 16.418)
(-9.90235e-17 9.32249 16.1034)
(-1.68085e-16 4.42586 7.68913)
(-1.47262e-19 6.52045 11.3276)
(-5.89857e-18 9.51592 16.3874)
(-4.83631e-18 8.97835 15.5639)
(-4.19031e-18 8.91291 15.3895)
(-4.2712e-18 8.89233 15.4145)
(2.96295e-17 8.90724 15.4129)
(2.44592e-17 8.89426 15.4249)
(2.44372e-17 8.90129 15.4272)
(2.53168e-17 8.89487 15.4368)
(2.4828e-17 8.89861 15.4416)
(2.58096e-17 8.89595 15.4503)
(2.61141e-17 8.89823 15.4569)
(2.42398e-17 8.89877 15.4651)
(2.52639e-17 8.89945 15.4739)
(2.57871e-17 8.90072 15.4741)
(2.48551e-17 8.88707 15.4675)
(2.5161e-17 8.98453 15.6169)
(2.42169e-17 9.43264 16.4334)
(2.31378e-17 9.24501 16.0898)
(3.88466e-17 4.48591 7.88199)
(5.18605e-20 6.59701 11.4446)
(1.37792e-18 9.47679 16.3237)
(1.07156e-18 8.94736 15.5056)
(1.04862e-18 8.87629 15.3336)
(9.05323e-19 8.85808 15.3584)
(-7.25291e-18 8.86957 15.3595)
(-5.76973e-18 8.85705 15.372)
(-5.78005e-18 8.86138 15.376)
(-6.00544e-18 8.85407 15.3866)
(-5.92875e-18 8.85543 15.3929)
(-6.25188e-18 8.85092 15.4029)
(-6.1021e-18 8.85098 15.4109)
(-5.55704e-18 8.84873 15.4208)
(-5.74174e-18 8.84742 15.4311)
(-6.00771e-18 8.84648 15.4357)
(-5.74748e-18 8.83111 15.4322)
(-5.9118e-18 8.90317 15.5432)
(-5.6314e-18 9.30405 16.308)
(-5.58899e-18 9.24773 16.2064)
(-8.41616e-18 4.8104 8.51502)
(-1.58534e-20 6.69626 11.5992)
(-3.21397e-19 9.4391 16.2572)
(-2.35146e-19 8.92004 15.4477)
(-2.57689e-19 8.84531 15.278)
(-1.82718e-19 8.82954 15.3011)
(1.73233e-18 8.83853 15.3029)
(1.33382e-18 8.8266 15.3142)
(1.34629e-18 8.82905 15.3182)
(1.39235e-18 8.82124 15.3278)
(1.37756e-18 8.82093 15.3338)
(1.48097e-18 8.81507 15.3429)
(1.41177e-18 8.81354 15.3502)
(1.30644e-18 8.80892 15.3595)
(1.31038e-18 8.80633 15.3686)
(1.38683e-18 8.80325 15.3758)
(1.31225e-18 8.78879 15.374)
(1.34907e-18 8.82203 15.4246)
(1.31903e-18 9.13965 16.0515)
(1.34307e-18 9.32096 16.3847)
(1.72836e-18 5.34772 9.48946)
(4.28702e-21 6.82041 11.7934)
(7.472e-20 9.40029 16.1856)
(5.21394e-20 8.89179 15.3846)
(6.17033e-20 8.8188 15.2243)
(3.51948e-20 8.80581 15.2449)
(-4.02368e-19 8.81343 15.2468)
(-3.05693e-19 8.80291 15.2563)
(-3.09285e-19 8.80464 15.2597)
(-3.1688e-19 8.79746 15.2677)
(-3.12027e-19 8.79671 15.2725)
(-3.42037e-19 8.7909 15.2802)
(-3.264e-19 8.78913 15.2859)
(-3.09578e-19 8.78381 15.2937)
(-3.0177e-19 8.78138 15.3005)
(-3.19475e-19 8.77707 15.308)
(-2.99496e-19 8.76744 15.309)
(-3.05954e-19 8.77209 15.3174)
(-3.07946e-19 8.98658 15.7447)
(-3.14776e-19 9.3715 16.451)
(-3.4709e-19 5.96934 10.5718)
(-1.04296e-21 6.97363 12.0407)
(-1.71665e-20 9.36094 16.1125)
(-1.17808e-20 8.8639 15.324)
(-1.45092e-20 8.79891 15.1815)
(-6.34135e-21 8.78832 15.1997)
(9.20308e-20 8.79521 15.2012)
(7.01699e-20 8.78638 15.2092)
(7.06469e-20 8.78806 15.2119)
(7.22323e-20 8.78214 15.2185)
(6.99009e-20 8.78168 15.2223)
(7.74283e-20 8.77686 15.2286)
(7.53114e-20 8.77568 15.2329)
(7.28194e-20 8.77098 15.2394)
(7.00268e-20 8.76964 15.2442)
(7.38945e-20 8.7652 15.2509)
(6.8837e-20 8.76098 15.2539)
(6.99263e-20 8.75537 15.2507)
(7.15242e-20 8.88039 15.4957)
(7.25818e-20 9.35159 16.3537)
(7.02779e-20 6.54232 11.5342)
(2.33383e-22 7.147 12.3273)
(3.89107e-21 9.31584 16.0329)
(2.70962e-21 8.83523 15.2666)
(3.39544e-21 8.78212 15.1472)
(1.0565e-21 8.77339 15.1636)
(-2.09975e-20 8.77974 15.1648)
(-1.62662e-20 8.7725 15.1718)
(-1.61821e-20 8.77427 15.1741)
(-1.67268e-20 8.76969 15.1798)
(-1.57323e-20 8.76966 15.1831)
(-1.73966e-20 8.76605 15.1885)
(-1.73146e-20 8.76562 15.1922)
(-1.69784e-20 8.76198 15.198)
(-1.63355e-20 8.76182 15.2018)
(-1.71549e-20 8.75806 15.2079)
(-1.5993e-20 8.75705 15.2112)
(-1.622e-20 8.75093 15.2099)
(-1.66145e-20 8.82337 15.3477)
(-1.67205e-20 9.28384 16.1743)
(-1.46104e-20 6.98749 12.2594)
(-4.95748e-23 7.33004 12.6352)
(-8.83764e-22 9.26389 15.9451)
(-6.36815e-22 8.80728 15.2146)
(-8.03337e-22 8.76701 15.1197)
(-1.68852e-22 8.75949 15.1344)
(4.82756e-21 8.76526 15.1355)
(3.82186e-21 8.75928 15.1417)
(3.74774e-21 8.76099 15.144)
(3.94099e-21 8.75751 15.149)
(3.60387e-21 8.75769 15.1523)
(3.94876e-21 8.75507 15.1572)
(3.98732e-21 8.75512 15.1607)
(3.96299e-21 8.75235 15.1661)
(3.84101e-21 8.75302 15.1695)
(3.99665e-21 8.74991 15.1756)
(3.766e-21 8.75055 15.1788)
(3.83086e-21 8.74546 15.1795)
(3.89383e-21 8.79241 15.2676)
(3.90076e-21 9.20906 16.0053)
(3.13927e-21 7.30423 12.7697)
(1.04372e-23 7.51469 12.9485)
(2.07124e-22 9.2055 15.8487)
(1.55167e-22 8.78106 15.1681)
(1.95041e-22 8.75265 15.0961)
(3.00447e-23 8.74587 15.1091)
(-1.12958e-21 8.75099 15.1101)
(-9.14655e-22 8.74598 15.1157)
(-8.86061e-22 8.74747 15.1181)
(-9.43229e-22 8.74482 15.1228)
(-8.50665e-22 8.74497 15.1261)
(-9.21916e-22 8.74307 15.1307)
(-9.32438e-22 8.74329 15.1341)
(-9.41757e-22 8.74107 15.1394)
(-9.19225e-22 8.74227 15.1427)
(-9.4286e-22 8.73935 15.1488)
(-9.04433e-22 8.74123 15.152)
(-9.2432e-22 8.7365 15.1542)
(-9.30976e-22 8.7695 15.2151)
(-9.32726e-22 9.14101 15.8688)
(-6.97664e-22 7.5368 13.1507)
(-2.26993e-24 7.69775 13.26)
(-5.10702e-23 9.14181 15.744)
(-3.9526e-23 8.7573 15.127)
(-4.88333e-23 8.73901 15.0747)
(-7.07096e-24 8.73267 15.086)
(2.72128e-22 8.73711 15.0871)
(2.24187e-22 8.73291 15.0923)
(2.15747e-22 8.73402 15.0948)
(2.29893e-22 8.73202 15.0991)
(2.08565e-22 8.73197 15.1024)
(2.23502e-22 8.7306 15.1067)
(2.24709e-22 8.73076 15.1103)
(2.3116e-22 8.72896 15.1153)
(2.26226e-22 8.73036 15.1185)
(2.28654e-22 8.72741 15.1248)
(2.22995e-22 8.73033 15.1276)
(2.284e-22 8.72524 15.1317)
(2.29039e-22 8.7497 15.1734)
(2.30156e-22 9.07507 15.7482)
(1.59929e-22 7.72977 13.4747)
(5.11845e-25 7.87895 13.5684)
(1.30042e-23 9.07332 15.6309)
(1.02923e-23 8.73626 15.091)
(1.23832e-23 8.72628 15.055)
(1.96916e-24 8.72022 15.0647)
(-6.76033e-23 8.72396 15.0659)
(-5.60558e-23 8.72051 15.0705)
(-5.39487e-23 8.72115 15.0732)
(-5.69562e-23 8.71969 15.0771)
(-5.26973e-23 8.71938 15.0805)
(-5.5743e-23 8.71841 15.0845)
(-5.57999e-23 8.71836 15.0881)
(-5.83941e-23 8.71695 15.0928)
(-5.70509e-23 8.71823 15.096)
(-5.71558e-23 8.71536 15.1023)
(-5.61328e-23 8.71897 15.1047)
(-5.73969e-23 8.71323 15.1105)
(-5.7657e-23 8.73216 15.1373)
(-5.81306e-23 9.00627 15.6283)
(-3.74378e-23 7.90856 13.7784)
(-1.13456e-25 8.05912 13.8746)
(-3.24787e-24 8.99977 15.5084)
(-2.60405e-24 8.71783 15.0597)
(-3.05462e-24 8.71459 15.0366)
(-5.06626e-25 8.7088 15.0447)
(1.69414e-23 8.71177 15.0461)
(1.39567e-23 8.70919 15.0501)
(1.34918e-23 8.70932 15.053)
(1.4057e-23 8.70832 15.0565)
(1.33087e-23 8.70782 15.0599)
(1.38611e-23 8.70713 15.0636)
(1.39137e-23 8.70686 15.0672)
(1.47291e-23 8.70588 15.0715)
(1.43484e-23 8.70672 15.0749)
(1.43526e-23 8.70426 15.0809)
(1.40473e-23 8.70797 15.0831)
(1.43238e-23 8.70173 15.0904)
(1.44484e-23 8.71696 15.1052)
(1.45986e-23 8.93311 15.5029)
(8.7504e-24 8.08298 14.075)
(2.26734e-26 8.23959 14.1803)
(7.57654e-25 8.92068 15.3749)
(6.11078e-25 8.70166 15.0324)
(7.0443e-25 8.70363 15.0189)
(1.03998e-25 8.69852 15.0253)
(-4.14017e-24 8.70035 15.0269)
(-3.35393e-24 8.69874 15.0302)
(-3.25904e-24 8.69841 15.033)
(-3.35705e-24 8.69771 15.0361)
(-3.24427e-24 8.69713 15.0394)
(-3.3205e-24 8.69658 15.0428)
(-3.36608e-24 8.69618 15.0464)
(-3.5772e-24 8.69557 15.0504)
(-3.47956e-24 8.69586 15.054)
(-3.48988e-24 8.69426 15.0594)
(-3.38395e-24 8.69726 15.0619)
(-3.45003e-24 8.69129 15.0701)
(-3.48606e-24 8.70425 15.0762)
(-3.52702e-24 8.85559 15.3705)
(-1.98986e-24 8.25512 14.3661)
(-3.50194e-27 8.42317 14.4926)
(-1.5663e-25 8.8381 15.2311)
(-1.254e-25 8.69069 15.012)
(-1.44003e-25 8.69522 15.0051)
(-1.25663e-26 8.69182 15.0089)
(9.43165e-25 8.69213 15.0105)
(7.3789e-25 8.69115 15.0126)
(7.16844e-25 8.69036 15.0148)
(7.36427e-25 8.68952 15.0171)
(7.27887e-25 8.68863 15.0197)
(7.29147e-25 8.68775 15.0224)
(7.5258e-25 8.68689 15.0254)
(7.94502e-25 8.68605 15.0287)
(7.75932e-25 8.68543 15.0321)
(7.78287e-25 8.68433 15.0364)
(7.49865e-25 8.68532 15.0397)
(7.69834e-25 8.68104 15.0469)
(7.72841e-25 8.69107 15.0483)
(7.80873e-25 8.77265 15.2324)
(4.23483e-25 8.42326 14.6449)
(2.95182e-28 8.61058 14.8239)
(2.64663e-26 8.75271 15.0801)
(2.1258e-26 8.69281 15.0032)
(2.4045e-26 8.695 15.0014)
(1.59745e-27 8.69442 15.0021)
(-1.68554e-25 8.69407 15.0026)
(-1.29021e-25 8.69366 15.0031)
(-1.24395e-25 8.69305 15.0038)
(-1.28031e-25 8.69232 15.0046)
(-1.2929e-25 8.69143 15.0056)
(-1.27152e-25 8.69038 15.0067)
(-1.33251e-25 8.68914 15.008)
(-1.3879e-25 8.68772 15.0095)
(-1.36937e-25 8.68604 15.0113)
(-1.36771e-25 8.68417 15.0133)
(-1.31261e-25 8.68208 15.0156)
(-1.36795e-25 8.67892 15.0189)
(-1.35337e-25 8.67938 15.02)
(-1.3771e-25 8.69418 15.0844)
(-7.2517e-26 8.5934 14.8933)
(-8.60331e-27 -2.64832 17.1102)
(-3.31975e-26 -8.05071 13.7683)
(-5.56465e-27 -5.17719 14.6241)
(8.24212e-26 -4.96246 14.2486)
(2.00117e-25 -4.02699 14.2235)
(2.97881e-25 -3.44301 14.0657)
(3.82994e-25 -2.84756 13.9222)
(5.49125e-25 -2.35277 13.7423)
(8.10139e-25 -1.91771 13.5408)
(8.74222e-25 -1.55595 13.3144)
(2.1776e-25 -1.26467 13.0651)
(-9.06531e-25 -1.04652 12.7931)
(2.96756e-25 -0.905551 12.5105)
(8.98601e-24 -0.866888 12.2434)
(2.66146e-23 -0.970047 12.0141)
(4.22447e-23 -1.19435 11.8112)
(3.81943e-23 -1.56664 11.4615)
(1.67822e-23 -2.35562 10.5236)
(5.14988e-24 -2.66986 8.99908)
(8.1713e-24 0.103524 6.77913)
(-1.65029e-26 -11.3053 28.7535)
(8.12124e-26 -17.1711 25.258)
(2.12604e-25 -12.1535 25.6391)
(3.3288e-25 -12.8031 23.9394)
(1.73141e-25 -11.0836 23.1983)
(-2.9321e-25 -10.4303 22.1227)
(-5.75619e-25 -9.4588 21.2156)
(-5.08636e-25 -8.7012 20.2715)
(-5.18449e-25 -7.94562 19.3533)
(-1.19293e-24 -7.26162 18.4233)
(-1.8282e-24 -6.61774 17.4878)
(-1.26336e-25 -6.02486 16.5457)
(4.21682e-25 -5.4638 15.5731)
(-2.41878e-23 -4.85586 14.4221)
(-1.10252e-22 -4.0003 12.7193)
(-2.36954e-22 -2.62682 9.9358)
(-2.79212e-22 -0.690379 5.83068)
(-2.26272e-22 1.44622 1.08387)
(-5.0226e-22 3.02265 -2.86636)
(-1.35213e-21 2.38527 -4.33143)
(-1.48498e-26 -14.151 30.7057)
(-4.22705e-25 -18.3746 27.5859)
(-3.14442e-25 -13.4944 27.547)
(-2.70234e-25 -14.6827 25.0284)
(-5.35319e-25 -12.555 24.0792)
(1.13951e-25 -12.2473 22.3922)
(1.11163e-24 -11.2005 21.1422)
(1.89882e-24 -10.5985 19.7678)
(2.34329e-24 -9.89766 18.5101)
(2.00285e-24 -9.31261 17.2427)
(5.43115e-25 -8.72805 15.9988)
(-1.11007e-24 -8.17669 14.7434)
(-4.01626e-24 -7.62311 13.4545)
(-2.06381e-23 -7.02853 12.0208)
(-7.01592e-23 -6.21227 10.2206)
(-1.48885e-22 -4.9745 7.68229)
(-1.954e-22 -3.00858 4.25507)
(-1.50786e-22 -0.88527 0.23696)