/*--------------------------------*- C++ -*----------------------------------*\
| =========                 |                                                 |
| \\      /  F ield         | OpenFOAM: The Open Source CFD Toolbox           |
|  \\    /   O peration     | Version:  4.1                                   |
|   \\  /    A nd           | Web:      www.OpenFOAM.org                      |
|    \\/     M anipulation  |                                                 |
\*---------------------------------------------------------------------------*/
FoamFile
{
    version     2.0;
    format      ascii;
    class       volScalarField;
    location    "1";
    object      epsilon;
}
// * * * * * * * * * * * * * * * * * * * * * * * * * * * * * * * * * * * * * //

dimensions      [0 2 -3 0 0 0 0];

internalField   nonuniform List<scalar> 
1280
(
0.00176307
0.000839435
0.00146091
0.00141227
0.000697362
0.00121832
0.00118789
0.00115672
0.000562995
0.000981363
0.000947471
0.000450455
0.000785712
0.000756194
0.000341104
0.000598947
0.000587832
0.000322614
0.00057035
0.000596669
0.0357649
0.0481923
0.061846
0.136806
0.178661
0.144715
0.0518483
0.00710656
0.00243462
0.000934943
0.0003871
0.000175104
7.08465e-05
6.29366e-05
1.89852e-05
0.000134287
0.000270846
0.00102389
0.00166308
0.0360725
0.000167364
0.000328922
0.00035891
0.000407006
0.000286669
0.00056998
0.00064707
0.000745035
0.000501221
0.000675379
0.000653319
0.000457671
0.000688679
0.000599523
0.000527413
0.000264821
0.00038242
0.000338732
0.000312554
0.000165381
0.0350046
0.00280334
0.000868137
2.81591e-06
6.0086e-05
3.65779e-05
6.26448e-05
8.77667e-05
0.000184825
0.000428292
0.00106703
0.00286163
0.00836207
0.0593499
0.17744
0.204566
0.170399
0.0463234
0.0515742
0.0295924
0.000610133
0.000585054
0.000330527
0.000608487
0.000620673
0.000353585
0.000782268
0.000813002
0.000466123
0.000979827
0.0010153
0.000582441
0.0011959
0.00122857
0.00125994
0.000721101
0.00146092
0.0015119
0.000868851
0.0018227
4.49208e-07
6.1214e-07
7.05306e-07
8.91921e-07
1.19156e-06
1.82095e-06
3.25582e-06
6.50538e-06
1.16307e-05
1.9473e-05
3.08831e-05
4.98752e-05
9.91989e-05
0.000176816
0.000296216
0.000403738
0.000141935
6.53625e-05
6.59232e-05
5.06898e-07
7.01495e-07
8.29983e-07
1.05551e-06
1.41427e-06
2.15173e-06
3.80281e-06
7.50393e-06
1.37316e-05
2.41412e-05
5.15323e-05
9.08495e-05
0.0001731
0.000315719
0.000552314
0.000687169
0.000182326
7.316e-05
6.32347e-05
5.23717e-07
7.33079e-07
8.86897e-07
1.15501e-06
1.54665e-06
2.44113e-06
4.44827e-06
8.00712e-06
1.48906e-05
2.78341e-05
5.47491e-05
0.000110873
0.000231139
0.000468155
0.000867756
0.00100979
0.000174621
7.28713e-05
6.18306e-05
5.88445e-07
8.40984e-07
1.03749e-06
1.36577e-06
1.81716e-06
2.658e-06
4.67982e-06
8.19175e-06
1.5039e-05
3.12535e-05
6.1647e-05
0.000140072
0.000326063
0.000721835
0.00138763
0.00162511
0.000686394
6.79035e-05
5.78827e-05
6.66479e-07
9.57029e-07
1.20558e-06
1.62333e-06
2.19116e-06
3.10779e-06
4.82088e-06
7.9826e-06
1.48531e-05
2.86435e-05
5.93326e-05
0.000150383
0.000392036
0.0010365
0.00193119
0.0021585
0.00130482
0.000161793
6.03842e-05
7.78945e-07
1.12564e-06
1.44831e-06
1.99821e-06
2.76297e-06
3.98641e-06
6.10852e-06
1.03379e-05
1.89502e-05
3.06937e-05
5.28436e-05
0.000122421
0.00040462
0.00115211
0.00235591
0.0028812
0.00291214
0.00254247
0.00061991
9.19387e-07
1.3337e-06
1.74832e-06
2.47885e-06
3.55088e-06
5.21786e-06
7.89481e-06
1.31406e-05
2.52257e-05
4.35496e-05
7.46681e-05
0.000145717
0.000400997
0.00121023
0.00249261
0.00381261
0.00609717
0.0052411
0.0133883
1.07248e-06
1.58483e-06
2.08621e-06
2.96675e-06
4.2355e-06
6.20932e-06
9.33078e-06
1.5315e-05
3.05048e-05
6.4984e-05
0.000151809
0.000354605
0.000704829
0.00144254
0.00272778
0.00412359
0.0085752
0.0105525
0.00192951
1.16173e-06
1.7772e-06
2.33491e-06
3.28523e-06
4.47889e-06
6.18585e-06
8.64057e-06
1.22264e-05
1.69207e-05
2.43414e-05
3.94301e-05
8.53903e-05
0.000233455
0.000606825
0.000918161
0.000620736
0.00285913
0.00735797
0.00547444
1.18596e-06
1.75862e-06
2.24965e-06
3.08445e-06
4.22076e-06
5.8608e-06
7.84407e-06
1.04095e-05
1.37691e-05
1.81371e-05
2.52018e-05
3.70932e-05
8.01972e-05
0.000178722
0.000293702
0.000157636
0.000377834
0.00190174
0.00508352
1.30354e-06
1.94353e-06
2.43357e-06
3.20057e-06
4.2425e-06
5.6283e-06
6.90389e-06
8.09589e-06
9.5615e-06
9.29071e-06
6.80389e-06
5.86102e-06
3.51002e-05
0.000109096
0.000203321
0.00016558
0.000466887
0.00185207
0.00526197
1.07244e-06
1.5203e-06
1.94e-06
2.6883e-06
3.52663e-06
4.34119e-06
4.5917e-06
4.6038e-06
7.03923e-06
9.64875e-06
1.37147e-05
3.04107e-05
0.000114647
0.000392272
0.000720441
0.00053736
0.0027825
0.00772936
0.00532122
9.20302e-07
1.29854e-06
1.69031e-06
2.43265e-06
3.61376e-06
5.98573e-06
9.03749e-06
1.332e-05
2.14065e-05
3.47269e-05
5.47153e-05
8.8521e-05
0.000300879
0.0010202
0.00228388
0.00405332
0.00875769
0.0112723
0.0015176
7.7365e-07
1.09322e-06
1.39274e-06
1.9403e-06
2.75966e-06
4.26305e-06
6.24496e-06
9.07419e-06
1.38839e-05
2.19199e-05
4.51773e-05
0.000107641
0.00038979
0.00126706
0.00256933
0.00406839
0.00629279
0.00549695
0.0117108
6.63853e-07
9.39121e-07
1.17204e-06
1.58376e-06
2.17626e-06
3.29701e-06
4.95782e-06
8.16454e-06
1.68097e-05
3.63281e-05
8.58145e-05
0.000242091
0.000682958
0.00155771
0.0026767
0.00335979
0.00379088
0.00264211
0.000636358
5.78603e-07
8.18259e-07
1.00545e-06
1.3252e-06
1.75588e-06
2.53734e-06
3.91408e-06
7.01743e-06
1.23317e-05
2.62321e-05
6.52898e-05
0.000176954
0.000468027
0.00108909
0.00196827
0.00223081
0.00143221
0.000157463
6.19742e-05
5.22434e-07
7.36565e-07
8.92301e-07
1.15396e-06
1.48504e-06
2.04247e-06
3.00379e-06
4.95955e-06
9.07466e-06
1.9778e-05
4.92821e-05
0.000128553
0.000325571
0.000753661
0.00146383
0.00165337
0.000666498
6.88375e-05
5.6729e-05
4.68611e-07
6.55901e-07
7.86287e-07
1.00393e-06
1.27267e-06
1.7067e-06
2.47161e-06
3.9967e-06
7.32788e-06
1.557e-05
3.66697e-05
8.92613e-05
0.000212485
0.000470774
0.000899993
0.00102744
0.000252415
7.42483e-05
6.12183e-05
4.70182e-07
6.28448e-07
7.37638e-07
9.2933e-07
1.15078e-06
1.48122e-06
2.0354e-06
3.09376e-06
5.40946e-06
1.1104e-05
2.55956e-05
6.08665e-05
0.000140409
0.000300398
0.000563421
0.000697497
0.000192038
6.79997e-05
6.15464e-05
4.15014e-07
5.58987e-07
6.5124e-07
8.2016e-07
1.02868e-06
1.34896e-06
1.90116e-06
2.96776e-06
5.24323e-06
1.03956e-05
2.19921e-05
4.70691e-05
9.81077e-05
0.000191185
0.000327467
0.000415199
0.000150488
6.28658e-05
6.41787e-05
0.272896
0.0542424
0.00303431
0.00187834
0.00163054
0.00133405
0.000308861
6.65159e-05
2.2455e-05
8.61831e-06
3.56753e-06
1.77491e-06
6.10614e-07
1.27833e-06
1.31605e-05
1.10997e-05
0.000714727
0.00544247
0.11747
0.264935
0.293559
0.0349812
0.00992838
0.00197852
0.00115886
0.00153163
0.0019653
0.000119944
2.62811e-05
9.87606e-06
4.0552e-06
3.58608e-06
3.31718e-06
1.59493e-06
1.56839e-05
5.54001e-06
0.000493351
0.00350626
0.0679653
0.222822
0.324633
0.0369288
0.00954692
0.0024138
0.00144892
0.000466668
0.000196394
6.75933e-05
2.45641e-05
9.67116e-06
4.10417e-06
2.05437e-06
1.68663e-06
1.09268e-06
8.96608e-06
2.49602e-06
0.000333163
0.00151945
0.0486385
0.215743
0.353739
0.0384666
0.0117817
0.0030741
0.00171567
0.000564719
0.000214994
7.26665e-05
2.62688e-05
1.01899e-05
4.29796e-06
2.14196e-06
1.62253e-06
1.09772e-06
5.83433e-06
2.13024e-06
8.57869e-05
0.000631574
0.0205673
0.201125
0.382679
0.0392
0.0146795
0.00408644
0.00213248
0.000690061
0.00025419
8.07522e-05
2.78723e-05
1.03643e-05
4.37733e-06
2.32568e-06
1.54007e-06
1.04865e-06
5.8303e-06
1.44296e-06
6.19989e-05
0.000144077
0.0121136
0.188741
0.412062
0.0426634
0.0196906
0.00574811
0.00271755
0.000894864
0.000308135
9.48858e-05
3.1324e-05
1.11907e-05
4.63096e-06
2.04318e-06
1.43912e-06
1.02488e-06
3.23032e-06
1.27413e-06
1.38417e-05
0.000203637
0.0102173
0.172879
0.444229
0.0476214
0.0278538
0.00839439
0.00355471
0.0011493
0.000370935
0.000108463
3.40703e-05
1.18195e-05
4.75155e-06
2.10414e-06
1.41719e-06
1.00602e-06
3.01632e-06
1.2634e-06
8.46828e-06
0.000134324
0.00894209
0.151824
0.480103
0.0555801
0.0413783
0.0128058
0.00478654
0.00150047
0.000445397
0.000125286
3.71074e-05
1.20452e-05
4.81969e-06
2.15407e-06
1.42029e-06
1.15393e-06
1.76821e-06
9.28194e-07
2.45285e-06
3.38878e-05
0.00273572
0.128683
0.520184
0.0662189
0.0632646
0.0205776
0.00659507
0.0019395
0.000511812
0.000133794
3.80052e-05
1.24493e-05
4.7201e-06
2.21174e-06
1.46893e-06
9.55496e-07
1.40134e-06
1.18109e-06
2.26181e-06
3.3856e-05
0.00318906
0.102224
0.56344
0.0797658
0.0971866
0.0332309
0.0086694
0.00220075
0.000524727
0.000126004
3.08818e-05
1.08749e-05
4.59926e-06
2.24881e-06
1.70465e-06
1.02231e-06
1.12632e-06
9.48e-07
1.45456e-06
1.82895e-05
0.00226743
0.0734663
0.60566
0.0890824
0.142865
0.0443951
0.00941819
0.00208726
0.000341242
6.29861e-05
2.30036e-05
1.00399e-05
4.40455e-06
2.29095e-06
1.62406e-06
1.23127e-06
1.32658e-06
1.16434e-06
1.08762e-06
1.35809e-05
0.0019775
0.0432343
0.636865
0.0905239
0.160425
0.0445274
0.00631294
0.000723265
0.00012658
4.05498e-05
1.7708e-05
8.34027e-06
3.88323e-06
2.04492e-06
1.66478e-06
1.20036e-06
1.2303e-06
9.40921e-07
1.10758e-06
8.12276e-06
0.00185204
0.0188217
0.640389
0.0726427
0.119115
0.0151544
0.00181115
0.000325659
7.8501e-05
2.83776e-05
1.35037e-05
6.68906e-06
3.15258e-06
1.77204e-06
1.54977e-06
1.30518e-06
1.3552e-06
1.04028e-06
1.22588e-06
6.22648e-06
0.00192159
0.0090503
0.601206
0.0298648
0.0181739
0.00119637
7.67078e-05
3.28332e-05
2.73773e-05
1.54548e-05
8.77017e-06
5.30287e-06
2.75862e-06
1.73627e-06
1.28124e-06
1.31646e-06
1.18337e-06
1.1928e-06
1.34606e-06
4.83681e-06
0.0019871
0.00398503
0.522663
0.0229331
0.00277017
0.000337336
0.000120942
5.24439e-05
2.59991e-05
1.25146e-05
6.38564e-06
4.20897e-06
2.62273e-06
2.02553e-06
1.50598e-06
1.49286e-06
1.54283e-06
1.51676e-06
1.65316e-06
4.4575e-06
0.00194737
0.0015962
0.440188
0.0203509
0.00151644
0.000258883
8.18443e-05
2.79993e-05
1.28468e-05
7.55184e-06
4.8714e-06
3.48399e-06
3.14872e-06
3.0069e-06
2.19535e-06
1.99602e-06
2.28146e-06
1.97855e-06
2.19792e-06
5.318e-06
0.00156146
0.000569485
0.368854
0.0256228
0.000840644
6.44881e-05
4.64782e-05
2.28778e-05
1.63927e-05
1.12672e-05
9.40532e-06
8.97361e-06
8.57689e-06
8.07831e-06
7.06844e-06
5.88644e-06
5.33635e-06
5.44578e-06
5.01141e-06
9.79224e-06
0.00114477
0.000162205
0.292334
0.0117402
0.000109765
5.52346e-05
6.33995e-05
5.54577e-05
5.40985e-05
5.06492e-05
4.80644e-05
4.53168e-05
4.26739e-05
3.99755e-05
3.72527e-05
3.45292e-05
3.1736e-05
2.8725e-05
2.69979e-05
5.28917e-05
0.00110846
0.000109187
0.207226
0.0211935
0.00186787
0.00166915
0.00163883
0.00158111
0.0015388
0.00149096
0.00144715
0.0014027
0.00135739
0.0013091
0.00125745
0.00120331
0.00114344
0.00108107
0.00105005
0.00193359
0.00835298
0.00137919
0.161409
0.787197
0.772776
0.772221
0.772419
0.772388
0.772377
0.772319
0.7723
0.772341
0.772372
0.772315
0.772209
0.772304
0.772347
0.772278
0.772193
0.772959
1.18253
0.165377
0.161436
0.787187
0.772771
0.772232
0.772363
0.772316
0.77233
0.77233
0.772382
0.772414
0.772326
0.772238
0.772302
0.772355
0.772324
0.772289
0.772199
0.772953
1.18245
0.165382
0.207175
0.020968
0.001866
0.00166817
0.00163678
0.00157876
0.00153671
0.00148965
0.00144637
0.00140192
0.00135536
0.0013071
0.00125682
0.0012025
0.0011421
0.00108005
0.00105007
0.00195251
0.00843674
0.0014144
0.29232
0.0115267
0.000107457
5.35095e-05
6.12344e-05
5.38023e-05
5.31127e-05
4.99312e-05
4.74956e-05
4.48945e-05
4.22546e-05
3.96476e-05
3.70922e-05
3.44269e-05
3.17059e-05
2.87226e-05
2.70777e-05
5.43896e-05
0.00119979
0.000126486
0.368955
0.0254188
0.000798018
0.000103333
4.45799e-05
3.02726e-05
1.81581e-05
1.29104e-05
1.09702e-05
9.91275e-06
9.30146e-06
8.57468e-06
8.01245e-06
7.04486e-06
6.4801e-06
6.29909e-06
5.71667e-06
1.08592e-05
0.00128195
0.000186103
0.440639
0.0206005
0.00162888
0.00016211
5.48512e-05
2.60588e-05
1.44688e-05
9.8807e-06
7.19041e-06
5.67584e-06
4.71668e-06
4.47674e-06
4.42929e-06
3.596e-06
3.33793e-06
2.7597e-06
3.03714e-06
6.30668e-06
0.00175342
0.000627675
0.524157
0.019425
0.00285114
0.000479525
0.000121118
4.31311e-05
2.0601e-05
1.12166e-05
6.17697e-06
5.05028e-06
3.96444e-06
3.0918e-06
2.10415e-06
2.66741e-06
2.27294e-06
2.07364e-06
1.86815e-06
5.03331e-06
0.00217124
0.00171094
0.602638
0.0304024
0.0178433
0.00124009
0.000226802
6.96613e-05
3.11215e-05
1.80238e-05
7.65453e-06
4.49757e-06
3.10946e-06
2.52175e-06
2.47712e-06
2.08592e-06
1.77152e-06
1.60099e-06
1.66017e-06
5.32974e-06
0.00222259
0.0041941
0.641673
0.0701447
0.115032
0.0147568
0.00130436
0.000142844
4.65099e-05
2.38403e-05
1.02001e-05
5.41516e-06
3.17672e-06
2.50904e-06
1.70477e-06
1.59296e-06
1.46793e-06
1.30638e-06
1.00404e-06
6.73852e-06
0.00216317
0.00939035
0.637835
0.0895673
0.158227
0.0438309
0.00583002
0.000864973
0.000123321
3.25634e-05
1.29097e-05
6.49251e-06
3.50849e-06
2.35424e-06
1.56584e-06
1.30199e-06
1.1249e-06
1.08795e-06
1.09944e-06
1.12829e-05
0.00203768
0.0193427
0.606283
0.0873574
0.139039
0.0440909
0.010429
0.00171648
0.000353791
7.72603e-05
2.06971e-05
8.74848e-06
4.01341e-06
2.01154e-06
1.38028e-06
1.10631e-06
1.02446e-06
9.57777e-07
8.94181e-07
1.5772e-05
0.00218215
0.0442368
0.563762
0.0786493
0.0954265
0.0340584
0.00944781
0.00253529
0.000449822
9.3058e-05
2.9139e-05
1.0058e-05
4.33336e-06
2.09431e-06
1.29624e-06
1.01816e-06
1.51451e-06
1.25093e-06
1.08003e-06
2.09379e-05
0.00260335
0.074195
0.520373
0.0653239
0.0627802
0.0210689
0.00716606
0.00214233
0.000607709
0.000150355
3.11042e-05
1.1901e-05
4.53687e-06
1.84578e-06
1.19443e-06
9.56859e-07
1.13514e-06
9.05183e-07
1.20201e-06
2.87239e-05
0.00355558
0.102612
0.480326
0.0549533
0.0412746
0.0130438
0.00499496
0.00161946
0.000527254
0.000146938
3.96205e-05
1.13983e-05
4.51863e-06
1.84639e-06
1.34283e-06
1.28528e-06
1.39333e-06
9.43486e-07
5.59533e-06
4.92969e-05
0.00549707
0.128835
0.444596
0.0472887
0.0278482
0.00847111
0.00359714
0.00119984
0.000428961
0.000124799
3.66768e-05
1.19532e-05
4.43347e-06
1.88361e-06
1.09307e-06
9.00027e-07
1.72769e-06
1.00106e-06
7.26558e-06
6.64081e-05
0.0061106
0.15256
0.412598
0.0423911
0.019672
0.00571786
0.00266682
0.000899213
0.000337001
0.000106814
3.24307e-05
1.13309e-05
4.33184e-06
1.84447e-06
1.52086e-06
9.14588e-07
3.11739e-06
1.04079e-06
8.25713e-06
0.000127913
0.00925368
0.172994
0.383307
0.0392978
0.0147043
0.00402636
0.00205048
0.000691658
0.000285093
8.30647e-05
2.93823e-05
1.04138e-05
4.22834e-06
1.85433e-06
1.3636e-06
1.27944e-06
4.46111e-06
1.43785e-06
8.5535e-05
0.000317191
0.012746
0.188827
0.354407
0.0383197
0.0117418
0.00299318
0.00163305
0.000530793
0.000219575
8.74623e-05
2.60604e-05
1.00862e-05
4.18428e-06
2.11573e-06
1.79401e-06
1.17772e-06
6.55765e-06
2.76341e-06
8.93469e-05
0.000895895
0.0209718
0.201447
0.325334
0.0375112
0.00968127
0.00232129
0.00131655
0.000449813
0.000211244
8.34965e-05
2.65018e-05
9.77898e-06
4.02949e-06
1.85138e-06
1.24003e-06
9.79328e-07
9.62674e-06
2.41253e-06
0.000367734
0.00183967
0.0513931
0.215905
0.294383
0.0348491
0.00980499
0.00198528
0.00110595
0.00144412
0.00208431
8.19135e-05
2.72651e-05
1.02063e-05
4.11957e-06
1.88231e-06
3.89693e-06
1.07058e-06
1.41636e-05
8.21795e-06
0.000631582
0.00538353
0.0674253
0.222736
0.273942
0.0547918
0.0036061
0.00229426
0.00186201
0.00162598
0.000349835
7.69376e-05
2.6312e-05
9.81201e-06
3.93892e-06
1.70214e-06
1.0335e-06
7.90997e-07
1.14298e-05
1.05242e-05
0.000747696
0.00569359
0.11704
0.265
)
;

boundaryField
{
    outletWall
    {
        type            zeroGradient;
    }
    fineWalls
    {
        Cmu             0.09;
        kappa           0.41;
        E               9.8;
        type            epsilonWallFunction;
        value           nonuniform List<scalar> 
60
(
0.000596669
0.00057035
0.000322614
0.000587832
0.000598947
0.000341104
0.000756194
0.000785712
0.000450455
0.000947471
0.000981363
0.000562995
0.00115672
0.00118789
0.00121832
0.000697362
0.00141227
0.00146091
0.000839435
0.00176307
0.000165381
0.000312554
0.000338732
0.00038242
0.000264821
0.000527413
0.000599523
0.000688679
0.000457671
0.000653319
0.000675379
0.000501221
0.000745035
0.00064707
0.00056998
0.000286669
0.000407006
0.00035891
0.000328922
0.000167364
0.0018227
0.000868851
0.0015119
0.00146092
0.000721101
0.00125994
0.00122857
0.0011959
0.000582441
0.0010153
0.000979827
0.000466123
0.000813002
0.000782268
0.000353585
0.000620673
0.000608487
0.000330527
0.000585054
0.000610133
)
;
    }
    fineFrontAndBack
    {
        type            zeroGradient;
    }
    fineplugLeft
    {
        type            cyclicAMI;
        value           nonuniform List<scalar> 
20
(
0.219162
0.0943087
0.00455875
0.000543285
3.57373e-05
1.43254e-05
1.361e-05
1.46578e-05
3.41128e-05
7.40404e-05
0.000169645
0.000365547
0.000636155
0.00143234
0.0258856
0.0350742
0.0272266
0.0147967
0.0530324
0.225469
)
;
    }
    fineplugRight
    {
        type            cyclicAMI;
        value           nonuniform List<scalar> 
20
(
0.219001
0.094193
0.0047285
0.00059872
2.04366e-05
1.64594e-05
1.31618e-05
1.6313e-05
3.6769e-05
8.41067e-05
0.000197483
0.000453113
0.000809176
0.00099499
0.0319003
0.0395204
0.0331721
0.0121496
0.0541483
0.225072
)
;
    }
    inletOutletLeft
    {
        type            cyclicAMI;
        value           nonuniform List<scalar> 
20
(
0.219162
0.0943087
0.00455875
0.000543285
3.57373e-05
1.43254e-05
1.361e-05
1.46578e-05
3.41128e-05
7.40404e-05
0.000169645
0.000365547
0.000636155
0.00143234
0.0258856
0.0350742
0.0272266
0.0147967
0.0530324
0.225469
)
;
    }
    inletLeft
    {
        type            fixedValue;
        value           uniform 2180.89;
    }
    inletWallsLeft
    {
        Cmu             0.09;
        kappa           0.41;
        E               9.8;
        type            epsilonWallFunction;
        value           nonuniform List<scalar> 
40
(
0.161409
0.207226
0.292334
0.368854
0.440188
0.522663
0.601206
0.640389
0.636865
0.60566
0.56344
0.520184
0.480103
0.444229
0.412062
0.382679
0.353739
0.324633
0.293559
0.272896
0.264935
0.222822
0.215743
0.201125
0.188741
0.172879
0.151824
0.128683
0.102224
0.0734663
0.0432343
0.0188217
0.0090503
0.00398503
0.0015962
0.000569485
0.000162205
0.000109187
0.00137919
0.165377
)
;
    }
    inletFacesLeft
    {
        type            zeroGradient;
    }
    inletOutletRight
    {
        type            cyclicAMI;
        value           nonuniform List<scalar> 
20
(
0.219001
0.094193
0.0047285
0.00059872
2.04366e-05
1.64594e-05
1.31618e-05
1.6313e-05
3.6769e-05
8.41067e-05
0.000197483
0.000453113
0.000809176
0.00099499
0.0319003
0.0395204
0.0331721
0.0121496
0.0541483
0.225072
)
;
    }
    inletRight
    {
        type            fixedValue;
        value           uniform 2180.89;
    }
    inletWallsRight
    {
        Cmu             0.09;
        kappa           0.41;
        E               9.8;
        type            epsilonWallFunction;
        value           nonuniform List<scalar> 
40
(
0.273942
0.294383
0.325334
0.354407
0.383307
0.412598
0.444596
0.480326
0.520373
0.563762
0.606283
0.637835
0.641673
0.602638
0.524157
0.440639
0.368955
0.29232
0.207175
0.161436
0.165382
0.0014144
0.000126486
0.000186103
0.000627675
0.00171094
0.0041941
0.00939035
0.0193427
0.0442368
0.074195
0.102612
0.128835
0.15256
0.172994
0.188827
0.201447
0.215905
0.222736
0.265
)
;
    }
    inletFacesRight
    {
        type            zeroGradient;
    }
}


// ************************************************************************* //
