/*--------------------------------*- C++ -*----------------------------------*\
| =========                 |                                                 |
| \\      /  F ield         | OpenFOAM: The Open Source CFD Toolbox           |
|  \\    /   O peration     | Version:  4.1                                   |
|   \\  /    A nd           | Web:      www.OpenFOAM.org                      |
|    \\/     M anipulation  |                                                 |
\*---------------------------------------------------------------------------*/
FoamFile
{
    version     2.0;
    format      ascii;
    class       volScalarField;
    location    "1";
    object      k;
}
// * * * * * * * * * * * * * * * * * * * * * * * * * * * * * * * * * * * * * //

dimensions      [0 2 -2 0 0 0 0];

internalField   nonuniform List<scalar> 
1280
(
0.356477
0.317874
0.315027
0.308104
0.280952
0.279273
0.274828
0.27007
0.244087
0.242426
0.237135
0.211319
0.209981
0.204976
0.176361
0.175888
0.173653
0.167601
0.167954
0.171949
0.231115
0.318557
0.476967
0.636792
0.69505
0.650932
0.316299
0.0613032
0.0193471
0.00910813
0.00556016
0.0038983
0.00301914
0.00236979
0.0019933
0.00152983
0.0019586
0.00908482
0.0558638
0.118547
0.119537
0.1369
0.149331
0.165271
0.19425
0.213145
0.230643
0.251501
0.281959
0.235584
0.230411
0.261889
0.235454
0.216319
0.199878
0.182528
0.157205
0.142735
0.13179
0.119611
0.120007
0.0569937
0.00947573
0.0027565
0.00210581
0.00254471
0.00303129
0.00379591
0.00484178
0.00667279
0.0103393
0.0202001
0.0590673
0.299602
0.667212
0.721766
0.666618
0.499453
0.323624
0.233542
0.174589
0.170579
0.170131
0.177705
0.180149
0.180667
0.209658
0.214816
0.216183
0.242516
0.248011
0.249712
0.276217
0.281101
0.285646
0.287348
0.31519
0.322368
0.325315
0.364474
0.00148075
0.00155094
0.0015937
0.00164666
0.00174764
0.00198147
0.00254145
0.00361086
0.00537149
0.0078094
0.0106818
0.0142177
0.0192829
0.0253947
0.03646
0.0505425
0.0345076
0.0177378
0.0188312
0.00152823
0.00160892
0.00167964
0.0017603
0.00189396
0.00216622
0.00279426
0.0040353
0.00604531
0.00891269
0.0123341
0.0168581
0.0238571
0.0328273
0.0492594
0.0704428
0.0363035
0.0203702
0.0193008
0.00152391
0.00165302
0.00176453
0.00187596
0.0020397
0.00232495
0.00295319
0.00428675
0.0064823
0.00984315
0.0145441
0.0205678
0.0300558
0.0435667
0.0678362
0.0955027
0.0731887
0.024869
0.0201222
0.00156036
0.00173393
0.00188146
0.00202302
0.00221368
0.00252602
0.0031349
0.00441691
0.00670382
0.0105055
0.0164613
0.0245165
0.0369483
0.0570529
0.0902238
0.122678
0.126436
0.0241026
0.0208823
0.0016415
0.00185894
0.00204313
0.00221597
0.00242677
0.00273846
0.00330443
0.00445569
0.00671775
0.0109978
0.0183973
0.0294404
0.0459662
0.0726895
0.11164
0.138654
0.132903
0.076491
0.0238733
0.00175579
0.00202088
0.00225143
0.00247196
0.00272105
0.00303762
0.0035298
0.00444645
0.00641477
0.0109159
0.0197092
0.0344722
0.0558891
0.0875661
0.123781
0.14613
0.155361
0.163796
0.142013
0.00190958
0.00223138
0.00252913
0.00283208
0.00317568
0.0035945
0.00416153
0.00502048
0.00659639
0.0101789
0.017919
0.0333195
0.0580801
0.0929036
0.134272
0.167932
0.191974
0.159738
0.147982
0.00209254
0.00247582
0.00286746
0.00330074
0.00381617
0.00445003
0.00527714
0.00641282
0.00809991
0.0110458
0.0164406
0.0273407
0.0500089
0.0916031
0.155691
0.241203
0.332497
0.365491
0.146379
0.00227917
0.00270761
0.00317882
0.00372821
0.00440087
0.00521853
0.00624985
0.00763304
0.00958413
0.0123474
0.0163988
0.0227064
0.0342124
0.0576449
0.0974525
0.118427
0.18168
0.346111
0.35938
0.00237466
0.00280005
0.00323616
0.00371586
0.0042675
0.00493082
0.00577584
0.00683878
0.00819942
0.00994691
0.0122152
0.0154383
0.0206692
0.0306728
0.054863
0.0477806
0.0877785
0.15015
0.334736
0.00328141
0.00404304
0.00484627
0.00570997
0.00664386
0.0077695
0.00927483
0.0111985
0.0135838
0.0166337
0.0199505
0.0230265
0.0261509
0.0328752
0.0478386
0.0342505
0.0740291
0.155036
0.368835
0.0029619
0.00357986
0.0042436
0.00505693
0.00621173
0.00793469
0.0104347
0.0135597
0.0170698
0.0215378
0.0268185
0.0331188
0.0419363
0.0606222
0.0930133
0.106533
0.18383
0.38326
0.397771
0.0026478
0.00316822
0.00370608
0.00434209
0.0051901
0.00636117
0.00812558
0.0104904
0.0135656
0.0182226
0.0259268
0.0385296
0.0570142
0.0939654
0.157221
0.24406
0.349699
0.405394
0.159335
0.00238535
0.00283038
0.00328376
0.00379706
0.0044479
0.00530503
0.00657389
0.00835682
0.0108234
0.0146884
0.0213832
0.0347951
0.0582749
0.0963306
0.141212
0.179463
0.209354
0.180157
0.165031
0.00215287
0.0025334
0.00291983
0.00334093
0.00384991
0.00447638
0.00534909
0.00646796
0.00786217
0.0103301
0.0154864
0.0268366
0.0504044
0.0884209
0.127102
0.150366
0.161711
0.174
0.145773
0.00196358
0.00228622
0.00261279
0.0029569
0.00335803
0.00382428
0.00443411
0.00523107
0.00649372
0.00874148
0.0133174
0.0230479
0.042727
0.075628
0.115266
0.141067
0.135465
0.0780383
0.0223761
0.00181363
0.00208205
0.00235432
0.00263517
0.00295992
0.00333556
0.00383739
0.00455684
0.00573912
0.00779024
0.0116713
0.0193903
0.0342191
0.0591312
0.0930899
0.124353
0.127791
0.0222368
0.0194265
0.00171776
0.0019311
0.00215182
0.00238047
0.0026493
0.00296745
0.0034094
0.00408455
0.0051896
0.00704217
0.01033
0.0164462
0.0274931
0.0454454
0.0708068
0.0971873
0.0802575
0.0229273
0.0187616
0.00166621
0.00182884
0.00199799
0.00218159
0.00240988
0.00269433
0.00311257
0.00378135
0.00485995
0.00658461
0.00942142
0.0142952
0.0224855
0.0350746
0.0524913
0.071768
0.034678
0.0180917
0.0180202
0.00157881
0.00172051
0.00184994
0.00199615
0.00218634
0.00242893
0.00279733
0.00339852
0.00435479
0.00582991
0.00813826
0.0119164
0.0179942
0.0269778
0.0389637
0.0514815
0.0317689
0.0153673
0.0176544
0.970602
0.279368
0.141899
0.058839
0.0295142
0.00909412
0.00492059
0.00342246
0.00205187
0.000959811
0.000390541
0.000136599
7.21594e-05
2.58417e-05
0.000148846
8.53405e-05
0.00812678
0.0809325
0.684246
0.971773
1.02171
0.216838
0.095065
0.023931
0.0203638
0.00520055
0.00420294
0.00319366
0.00171218
0.000688682
0.000254063
8.1097e-05
5.27408e-05
1.74712e-05
0.00013122
4.80658e-05
0.00594289
0.0663783
0.553534
0.88224
1.09303
0.220105
0.104152
0.0265825
0.0224167
0.00875639
0.00727085
0.00358047
0.00174723
0.000671676
0.000239259
7.68559e-05
4.83484e-05
1.5965e-05
0.000103211
2.37901e-05
0.00359916
0.042043
0.405636
0.842726
1.15739
0.220928
0.109722
0.0291843
0.0244829
0.0100212
0.00778098
0.00385666
0.00183679
0.000707151
0.000249177
8.06336e-05
4.48059e-05
1.64903e-05
6.97831e-05
1.58652e-05
0.00157097
0.020756
0.230596
0.791083
1.22011
0.232137
0.120717
0.0340174
0.0269408
0.0114242
0.00827407
0.0040417
0.00187131
0.000710341
0.000245843
7.95666e-05
4.11493e-05
1.62261e-05
4.97234e-05
1.12051e-05
0.000601613
0.00624652
0.0997181
0.749171
1.28305
0.248678
0.136845
0.041355
0.0300545
0.0131944
0.00882131
0.00425099
0.00190791
0.00071529
0.000243834
7.9456e-05
3.80913e-05
1.60868e-05
3.64242e-05
1.03908e-05
0.000244766
0.00217128
0.0394598
0.694408
1.35082
0.269657
0.160429
0.0521561
0.0341993
0.0154684
0.00944537
0.00447252
0.00193986
0.000718364
0.000241905
7.89236e-05
3.54317e-05
1.60576e-05
2.70534e-05
1.02466e-05
9.64657e-05
0.00102115
0.0231157
0.619501
1.42487
0.291659
0.194753
0.0672361
0.039624
0.0180938
0.0100759
0.004634
0.00193442
0.000704963
0.000234698
7.68734e-05
3.28254e-05
1.58543e-05
2.10124e-05
1.03424e-05
4.40939e-05
0.000717768
0.0262244
0.533177
1.50557
0.313413
0.245072
0.0877213
0.04658
0.0209431
0.0106059
0.00467669
0.00186922
0.000666244
0.000219939
7.26121e-05
3.00527e-05
1.5559e-05
1.69219e-05
1.04083e-05
2.49451e-05
0.000524074
0.0268099
0.43594
1.59015
0.331147
0.316991
0.114521
0.0547413
0.0234281
0.0107039
0.00444678
0.00169249
0.000587915
0.000192937
6.50104e-05
2.68182e-05
1.48341e-05
1.41429e-05
1.04907e-05
1.73439e-05
0.000402776
0.0265835
0.330605
1.66968
0.336524
0.411555
0.146884
0.0614359
0.0238051
0.00977252
0.00376628
0.00134894
0.000457882
0.000152097
5.35598e-05
2.31355e-05
1.37492e-05
1.21499e-05
1.03726e-05
1.38352e-05
0.000262578
0.0234079
0.224626
1.72501
0.310738
0.510565
0.1639
0.0580166
0.0199683
0.00716466
0.0025243
0.000873416
0.000299291
0.000104288
4.00448e-05
1.89196e-05
1.23921e-05
1.07236e-05
1.01156e-05
1.19719e-05
0.000162621
0.0196173
0.13612
1.72601
0.244455
0.501184
0.134108
0.0381673
0.0111255
0.00367084
0.00126879
0.000450433
0.000163512
6.26556e-05
2.74442e-05
1.4915e-05
1.08231e-05
9.56144e-06
9.58516e-06
1.09181e-05
9.78654e-05
0.0162289
0.083143
1.64808
0.151286
0.296036
0.0597446
0.0152587
0.00442729
0.00147445
0.000530805
0.000201154
7.94353e-05
3.44236e-05
1.77921e-05
1.14416e-05
9.21651e-06
8.53462e-06
8.84454e-06
1.01895e-05
6.22252e-05
0.0130874
0.0476161
1.49953
0.07107
0.0426444
0.010753
0.00336878
0.00113542
0.00042493
0.000168495
7.08961e-05
3.19745e-05
1.67292e-05
1.06636e-05
8.26619e-06
7.49895e-06
7.34029e-06
7.863e-06
9.35502e-06
4.2666e-05
0.0102963
0.0255898
1.34577
0.068453
0.00998379
0.00221308
0.000654438
0.000214276
7.99941e-05
3.34357e-05
1.64116e-05
9.86549e-06
7.16967e-06
6.06181e-06
5.70614e-06
5.71124e-06
5.90286e-06
6.49293e-06
7.88945e-06
2.95802e-05
0.00777231
0.0128556
1.18793
0.0736655
0.0059517
0.000848944
0.000154748
3.12025e-05
9.5083e-06
5.34966e-06
4.37038e-06
4.09362e-06
4.00751e-06
3.99389e-06
4.04265e-06
4.13871e-06
4.33841e-06
4.70697e-06
5.54236e-06
1.7023e-05
0.00458793
0.00553311
1.0146
0.0150608
1.25915e-05
3.32197e-06
4.3742e-06
3.66862e-06
3.8287e-06
3.68257e-06
3.64615e-06
3.58201e-06
3.52867e-06
3.47576e-06
3.43047e-06
3.38177e-06
3.36677e-06
3.29522e-06
3.54658e-06
9.78163e-06
0.00289302
0.00490644
0.80245
0.00146292
1.29612e-05
1.10985e-05
1.09391e-05
1.06538e-05
1.04583e-05
1.0213e-05
9.99528e-06
9.7644e-06
9.52929e-06
9.28109e-06
9.01592e-06
8.72814e-06
8.39783e-06
8.04476e-06
8.1798e-06
3.13895e-05
0.0014012
0.0234523
0.684479
0.000841321
0.000806866
0.000805485
0.000805932
0.000805816
0.000805857
0.000805861
0.000805866
0.000805851
0.000805836
0.000805836
0.000805841
0.000805795
0.000805758
0.000805774
0.0008057
0.000808185
0.00222421
0.805248
0.68455
0.000841319
0.000806863
0.000805478
0.000805939
0.000805826
0.000805861
0.000805854
0.000805844
0.000805832
0.000805842
0.000805848
0.000805819
0.000805782
0.000805761
0.000805768
0.000805696
0.000808175
0.00222426
0.805226
0.802335
0.00146425
1.29536e-05
1.10938e-05
1.09357e-05
1.06501e-05
1.04552e-05
1.02099e-05
9.99192e-06
9.76125e-06
9.52662e-06
9.27862e-06
9.0127e-06
8.72492e-06
8.39478e-06
8.04152e-06
8.18832e-06
3.20651e-05
0.00143578
0.024033
1.01457
0.0148191
1.24116e-05
3.3061e-06
4.36066e-06
3.66119e-06
3.82401e-06
3.6775e-06
3.64097e-06
3.57664e-06
3.52415e-06
3.47196e-06
3.42797e-06
3.38057e-06
3.36877e-06
3.29906e-06
3.56837e-06
1.01023e-05
0.00320092
0.00543008
1.18812
0.0734381
0.00594003
0.000811515
0.000143059
2.75858e-05
8.85574e-06
5.17258e-06
4.31517e-06
4.07307e-06
3.99826e-06
3.99035e-06
4.0356e-06
4.1317e-06
4.34124e-06
4.72048e-06
5.58759e-06
1.83313e-05
0.00515554
0.00609723
1.34636
0.0683397
0.0097755
0.00221984
0.000663106
0.000216142
8.02788e-05
3.33882e-05
1.6351e-05
9.82497e-06
7.24597e-06
6.18776e-06
5.76137e-06
5.74524e-06
6.01203e-06
6.70357e-06
8.16765e-06
3.28314e-05
0.00856523
0.0138032
1.50129
0.068321
0.041516
0.00859385
0.0027565
0.000945565
0.000369745
0.000152541
6.70656e-05
3.09642e-05
1.62313e-05
1.06428e-05
8.48502e-06
7.57839e-06
7.49619e-06
8.19125e-06
9.87501e-06
4.87853e-05
0.0113579
0.0269645
1.6502
0.144205
0.285622
0.0561534
0.0139184
0.00388969
0.00132035
0.000484069
0.000191302
7.83101e-05
3.45174e-05
1.79729e-05
1.1744e-05
9.42473e-06
8.76542e-06
9.2169e-06
1.07893e-05
7.30469e-05
0.0145292
0.0494854
1.72791
0.238152
0.486294
0.129924
0.0373716
0.0109674
0.00361856
0.00124338
0.000448792
0.000166581
6.48467e-05
2.82943e-05
1.57906e-05
1.12539e-05
9.91661e-06
1.00001e-05
1.15926e-05
0.000116014
0.0179934
0.0854896
1.72655
0.305167
0.498074
0.159514
0.0571594
0.0194301
0.00700913
0.00249106
0.000878935
0.000308398
0.000109697
4.22974e-05
2.04841e-05
1.30712e-05
1.11959e-05
1.05666e-05
1.26943e-05
0.000191512
0.0216454
0.138898
1.6707
0.332732
0.408012
0.142896
0.0584951
0.0235033
0.00960944
0.00369379
0.00135089
0.000471004
0.000160854
5.80403e-05
2.56441e-05
1.47425e-05
1.28014e-05
1.09368e-05
1.47196e-05
0.000315037
0.0257207
0.228129
1.5907
0.328619
0.31762
0.1101
0.0507228
0.0221003
0.0105657
0.00446294
0.00171252
0.000607636
0.000205358
7.14311e-05
3.04013e-05
1.60979e-05
1.48094e-05
1.10097e-05
1.84763e-05
0.000472373
0.0285529
0.333611
1.50588
0.311544
0.246333
0.0834737
0.0419826
0.0190926
0.0101521
0.00463889
0.0019134
0.000694831
0.000236243
8.11801e-05
3.45279e-05
1.70629e-05
1.78045e-05
1.10344e-05
2.66373e-05
0.000637625
0.0282834
0.437947
1.42525
0.289931
0.195554
0.0632861
0.0349725
0.0160076
0.00939248
0.00453518
0.00197663
0.000740978
0.000254871
8.71869e-05
3.78943e-05
1.74548e-05
2.21242e-05
1.09769e-05
4.72062e-05
0.000818309
0.0249879
0.534693
1.35152
0.267894
0.16065
0.0485423
0.0296403
0.0133235
0.00861859
0.00432989
0.0019794
0.000758475
0.00026521
9.03688e-05
4.12176e-05
1.78204e-05
2.87935e-05
1.09817e-05
0.000104229
0.00114054
0.0258801
0.62074
1.28415
0.247073
0.13669
0.0381325
0.025682
0.0111054
0.00793896
0.00408181
0.00194923
0.000758746
0.00026952
9.16806e-05
4.40814e-05
1.79707e-05
3.90803e-05
1.13383e-05
0.000263245
0.00216644
0.0447023
0.694584
1.22152
0.230562
0.120312
0.0311607
0.0227559
0.00938848
0.00733447
0.00386769
0.00191405
0.000757523
0.000273597
9.29949e-05
4.77391e-05
1.80607e-05
5.4572e-05
1.22075e-05
0.000657992
0.00612162
0.108534
0.749306
1.15896
0.219754
0.109328
0.026757
0.020515
0.00811973
0.00684994
0.00364859
0.00188345
0.000759315
0.000279486
9.47362e-05
5.18268e-05
1.84535e-05
7.79874e-05
1.76952e-05
0.00168665
0.0210939
0.244499
0.791429
1.09482
0.218188
0.103587
0.0245179
0.0187447
0.00697291
0.00634435
0.00336628
0.00179873
0.000727571
0.000271153
9.13854e-05
5.61686e-05
1.80284e-05
0.000117974
2.73588e-05
0.00391072
0.0421452
0.421069
0.843943
1.0238
0.21443
0.0943974
0.0225985
0.0171542
0.00397783
0.00354027
0.00307869
0.00176943
0.000752068
0.000291048
0.000100177
6.1307e-05
2.02784e-05
0.000153685
5.35231e-05
0.00632932
0.0654817
0.572782
0.883479
0.973195
0.279173
0.140831
0.056815
0.0266569
0.00733924
0.00402481
0.00312799
0.00203826
0.00101513
0.000435883
0.000161995
8.43149e-05
3.05134e-05
0.000178059
0.000103125
0.00888906
0.0811949
0.699144
0.972968
)
;

boundaryField
{
    outletWall
    {
        type            calculated;
        value           nonuniform List<scalar> 
60
(
0.364474
0.0188312
0.0177378
0.0345076
0.0505425
0.03646
0.0253947
0.0192829
0.0142177
0.0106818
0.0078094
0.00537149
0.00361086
0.00254145
0.00198147
0.00174764
0.00164666
0.0015937
0.00155094
0.00148075
0.00157881
0.00166621
0.00171776
0.00181363
0.00196358
0.00215287
0.00238535
0.0026478
0.0029619
0.00328141
0.00237466
0.00227917
0.00209254
0.00190958
0.00175579
0.0016415
0.00156036
0.00152391
0.00152823
0.00148075
0.356477
0.0176544
0.0153673
0.0317689
0.0514815
0.0389637
0.0269778
0.0179942
0.0119164
0.00813826
0.00582991
0.00435479
0.00339852
0.00279733
0.00242893
0.00218634
0.00199615
0.00184994
0.00172051
0.00157881
)
;
    }
    fineWalls
    {
        type            calculated;
        value           nonuniform List<scalar> 
60
(
0.171949
0.167954
0.167601
0.173653
0.175888
0.176361
0.204976
0.209981
0.211319
0.237135
0.242426
0.244087
0.27007
0.274828
0.279273
0.280952
0.308104
0.315027
0.317874
0.356477
0.119611
0.13179
0.142735
0.157205
0.182528
0.199878
0.216319
0.235454
0.261889
0.230411
0.235584
0.281959
0.251501
0.230643
0.213145
0.19425
0.165271
0.149331
0.1369
0.119537
0.364474
0.325315
0.322368
0.31519
0.287348
0.285646
0.281101
0.276217
0.249712
0.248011
0.242516
0.216183
0.214816
0.209658
0.180667
0.180149
0.177705
0.170131
0.170579
0.174589
)
;
    }
    fineFrontAndBack
    {
        type            calculated;
        value           nonuniform List<scalar> 
960
(
0.356477
0.317874
0.315027
0.308104
0.280952
0.279273
0.274828
0.27007
0.244087
0.242426
0.237135
0.211319
0.209981
0.204976
0.176361
0.175888
0.173653
0.167601
0.167954
0.171949
0.231115
0.318557
0.476967
0.636792
0.69505
0.650932
0.316299
0.0613032
0.0193471
0.00910813
0.00556016
0.0038983
0.00301914
0.00236979
0.0019933
0.00152983
0.0019586
0.00908482
0.0558638
0.118547
0.119537
0.1369
0.149331
0.165271
0.19425
0.213145
0.230643
0.251501
0.281959
0.235584
0.230411
0.261889
0.235454
0.216319
0.199878
0.182528
0.157205
0.142735
0.13179
0.119611
0.120007
0.0569937
0.00947573
0.0027565
0.00210581
0.00254471
0.00303129
0.00379591
0.00484178
0.00667279
0.0103393
0.0202001
0.0590673
0.299602
0.667212
0.721766
0.666618
0.499453
0.323624
0.233542
0.174589
0.170579
0.170131
0.177705
0.180149
0.180667
0.209658
0.214816
0.216183
0.242516
0.248011
0.249712
0.276217
0.281101
0.285646
0.287348
0.31519
0.322368
0.325315
0.364474
0.00148075
0.00155094
0.0015937
0.00164666
0.00174764
0.00198147
0.00254145
0.00361086
0.00537149
0.0078094
0.0106818
0.0142177
0.0192829
0.0253947
0.03646
0.0505425
0.0345076
0.0177378
0.0188312
0.00152823
0.00160892
0.00167964
0.0017603
0.00189396
0.00216622
0.00279426
0.0040353
0.00604531
0.00891269
0.0123341
0.0168581
0.0238571
0.0328273
0.0492594
0.0704428
0.0363035
0.0203702
0.0193008
0.00152391
0.00165302
0.00176453
0.00187596
0.0020397
0.00232495
0.00295319
0.00428675
0.0064823
0.00984315
0.0145441
0.0205678
0.0300558
0.0435667
0.0678362
0.0955027
0.0731887
0.024869
0.0201222
0.00156036
0.00173393
0.00188146
0.00202302
0.00221368
0.00252602
0.0031349
0.00441691
0.00670382
0.0105055
0.0164613
0.0245165
0.0369483
0.0570529
0.0902238
0.122678
0.126436
0.0241026
0.0208823
0.0016415
0.00185894
0.00204313
0.00221597
0.00242677
0.00273846
0.00330443
0.00445569
0.00671775
0.0109978
0.0183973
0.0294404
0.0459662
0.0726895
0.11164
0.138654
0.132903
0.076491
0.0238733
0.00175579
0.00202088
0.00225143
0.00247196
0.00272105
0.00303762
0.0035298
0.00444645
0.00641477
0.0109159
0.0197092
0.0344722
0.0558891
0.0875661
0.123781
0.14613
0.155361
0.163796
0.142013
0.00190958
0.00223138
0.00252913
0.00283208
0.00317568
0.0035945
0.00416153
0.00502048
0.00659639
0.0101789
0.017919
0.0333195
0.0580801
0.0929036
0.134272
0.167932
0.191974
0.159738
0.147982
0.00209254
0.00247582
0.00286746
0.00330074
0.00381617
0.00445003
0.00527714
0.00641282
0.00809991
0.0110458
0.0164406
0.0273407
0.0500089
0.0916031
0.155691
0.241203
0.332497
0.365491
0.146379
0.00227917
0.00270761
0.00317882
0.00372821
0.00440087
0.00521853
0.00624985
0.00763304
0.00958413
0.0123474
0.0163988
0.0227064
0.0342124
0.0576449
0.0974525
0.118427
0.18168
0.346111
0.35938
0.00237466
0.00280005
0.00323616
0.00371586
0.0042675
0.00493082
0.00577584
0.00683878
0.00819942
0.00994691
0.0122152
0.0154383
0.0206692
0.0306728
0.054863
0.0477806
0.0877785
0.15015
0.334736
0.00328141
0.00404304
0.00484627
0.00570997
0.00664386
0.0077695
0.00927483
0.0111985
0.0135838
0.0166337
0.0199505
0.0230265
0.0261509
0.0328752
0.0478386
0.0342505
0.0740291
0.155036
0.368835
0.0029619
0.00357986
0.0042436
0.00505693
0.00621173
0.00793469
0.0104347
0.0135597
0.0170698
0.0215378
0.0268185
0.0331188
0.0419363
0.0606222
0.0930133
0.106533
0.18383
0.38326
0.397771
0.0026478
0.00316822
0.00370608
0.00434209
0.0051901
0.00636117
0.00812558
0.0104904
0.0135656
0.0182226
0.0259268
0.0385296
0.0570142
0.0939654
0.157221
0.24406
0.349699
0.405394
0.159335
0.00238535
0.00283038
0.00328376
0.00379706
0.0044479
0.00530503
0.00657389
0.00835682
0.0108234
0.0146884
0.0213832
0.0347951
0.0582749
0.0963306
0.141212
0.179463
0.209354
0.180157
0.165031
0.00215287
0.0025334
0.00291983
0.00334093
0.00384991
0.00447638
0.00534909
0.00646796
0.00786217
0.0103301
0.0154864
0.0268366
0.0504044
0.0884209
0.127102
0.150366
0.161711
0.174
0.145773
0.00196358
0.00228622
0.00261279
0.0029569
0.00335803
0.00382428
0.00443411
0.00523107
0.00649372
0.00874148
0.0133174
0.0230479
0.042727
0.075628
0.115266
0.141067
0.135465
0.0780383
0.0223761
0.00181363
0.00208205
0.00235432
0.00263517
0.00295992
0.00333556
0.00383739
0.00455684
0.00573912
0.00779024
0.0116713
0.0193903
0.0342191
0.0591312
0.0930899
0.124353
0.127791
0.0222368
0.0194265
0.00171776
0.0019311
0.00215182
0.00238047
0.0026493
0.00296745
0.0034094
0.00408455
0.0051896
0.00704217
0.01033
0.0164462
0.0274931
0.0454454
0.0708068
0.0971873
0.0802575
0.0229273
0.0187616
0.00166621
0.00182884
0.00199799
0.00218159
0.00240988
0.00269433
0.00311257
0.00378135
0.00485995
0.00658461
0.00942142
0.0142952
0.0224855
0.0350746
0.0524913
0.071768
0.034678
0.0180917
0.0180202
0.00157881
0.00172051
0.00184994
0.00199615
0.00218634
0.00242893
0.00279733
0.00339852
0.00435479
0.00582991
0.00813826
0.0119164
0.0179942
0.0269778
0.0389637
0.0514815
0.0317689
0.0153673
0.0176544
0.356477
0.317874
0.315027
0.308104
0.280952
0.279273
0.274828
0.27007
0.244087
0.242426
0.237135
0.211319
0.209981
0.204976
0.176361
0.175888
0.173653
0.167601
0.167954
0.171949
0.231115
0.318557
0.476967
0.636792
0.69505
0.650932
0.316299
0.0613032
0.0193471
0.00910813
0.00556016
0.0038983
0.00301914
0.00236979
0.0019933
0.00152983
0.0019586
0.00908482
0.0558638
0.118547
0.119537
0.1369
0.149331
0.165271
0.19425
0.213145
0.230643
0.251501
0.281959
0.235584
0.230411
0.261889
0.235454
0.216319
0.199878
0.182528
0.157205
0.142735
0.13179
0.119611
0.120007
0.0569937
0.00947573
0.0027565
0.00210581
0.00254471
0.00303129
0.00379591
0.00484178
0.00667279
0.0103393
0.0202001
0.0590673
0.299602
0.667212
0.721766
0.666618
0.499453
0.323624
0.233542
0.174589
0.170579
0.170131
0.177705
0.180149
0.180667
0.209658
0.214816
0.216183
0.242516
0.248011
0.249712
0.276217
0.281101
0.285646
0.287348
0.31519
0.322368
0.325315
0.364474
0.00148075
0.00155094
0.0015937
0.00164666
0.00174764
0.00198147
0.00254145
0.00361086
0.00537149
0.0078094
0.0106818
0.0142177
0.0192829
0.0253947
0.03646
0.0505425
0.0345076
0.0177378
0.0188312
0.00152823
0.00160892
0.00167964
0.0017603
0.00189396
0.00216622
0.00279426
0.0040353
0.00604531
0.00891269
0.0123341
0.0168581
0.0238571
0.0328273
0.0492594
0.0704428
0.0363035
0.0203702
0.0193008
0.00152391
0.00165302
0.00176453
0.00187596
0.0020397
0.00232495
0.00295319
0.00428675
0.0064823
0.00984315
0.0145441
0.0205678
0.0300558
0.0435667
0.0678362
0.0955027
0.0731887
0.024869
0.0201222
0.00156036
0.00173393
0.00188146
0.00202302
0.00221368
0.00252602
0.0031349
0.00441691
0.00670382
0.0105055
0.0164613
0.0245165
0.0369483
0.0570529
0.0902238
0.122678
0.126436
0.0241026
0.0208823
0.0016415
0.00185894
0.00204313
0.00221597
0.00242677
0.00273846
0.00330443
0.00445569
0.00671775
0.0109978
0.0183973
0.0294404
0.0459662
0.0726895
0.11164
0.138654
0.132903
0.076491
0.0238733
0.00175579
0.00202088
0.00225143
0.00247196
0.00272105
0.00303762
0.0035298
0.00444645
0.00641477
0.0109159
0.0197092
0.0344722
0.0558891
0.0875661
0.123781
0.14613
0.155361
0.163796
0.142013
0.00190958
0.00223138
0.00252913
0.00283208
0.00317568
0.0035945
0.00416153
0.00502048
0.00659639
0.0101789
0.017919
0.0333195
0.0580801
0.0929036
0.134272
0.167932
0.191974
0.159738
0.147982
0.00209254
0.00247582
0.00286746
0.00330074
0.00381617
0.00445003
0.00527714
0.00641282
0.00809991
0.0110458
0.0164406
0.0273407
0.0500089
0.0916031
0.155691
0.241203
0.332497
0.365491
0.146379
0.00227917
0.00270761
0.00317882
0.00372821
0.00440087
0.00521853
0.00624985
0.00763304
0.00958413
0.0123474
0.0163988
0.0227064
0.0342124
0.0576449
0.0974525
0.118427
0.18168
0.346111
0.35938
0.00237466
0.00280005
0.00323616
0.00371586
0.0042675
0.00493082
0.00577584
0.00683878
0.00819942
0.00994691
0.0122152
0.0154383
0.0206692
0.0306728
0.054863
0.0477806
0.0877785
0.15015
0.334736
0.00328141
0.00404304
0.00484627
0.00570997
0.00664386
0.0077695
0.00927483
0.0111985
0.0135838
0.0166337
0.0199505
0.0230265
0.0261509
0.0328752
0.0478386
0.0342505
0.0740291
0.155036
0.368835
0.0029619
0.00357986
0.0042436
0.00505693
0.00621173
0.00793469
0.0104347
0.0135597
0.0170698
0.0215378
0.0268185
0.0331188
0.0419363
0.0606222
0.0930133
0.106533
0.18383
0.38326
0.397771
0.0026478
0.00316822
0.00370608
0.00434209
0.0051901
0.00636117
0.00812558
0.0104904
0.0135656
0.0182226
0.0259268
0.0385296
0.0570142
0.0939654
0.157221
0.24406
0.349699
0.405394
0.159335
0.00238535
0.00283038
0.00328376
0.00379706
0.0044479
0.00530503
0.00657389
0.00835682
0.0108234
0.0146884
0.0213832
0.0347951
0.0582749
0.0963306
0.141212
0.179463
0.209354
0.180157
0.165031
0.00215287
0.0025334
0.00291983
0.00334093
0.00384991
0.00447638
0.00534909
0.00646796
0.00786217
0.0103301
0.0154864
0.0268366
0.0504044
0.0884209
0.127102
0.150366
0.161711
0.174
0.145773
0.00196358
0.00228622
0.00261279
0.0029569
0.00335803
0.00382428
0.00443411
0.00523107
0.00649372
0.00874148
0.0133174
0.0230479
0.042727
0.075628
0.115266
0.141067
0.135465
0.0780383
0.0223761
0.00181363
0.00208205
0.00235432
0.00263517
0.00295992
0.00333556
0.00383739
0.00455684
0.00573912
0.00779024
0.0116713
0.0193903
0.0342191
0.0591312
0.0930899
0.124353
0.127791
0.0222368
0.0194265
0.00171776
0.0019311
0.00215182
0.00238047
0.0026493
0.00296745
0.0034094
0.00408455
0.0051896
0.00704217
0.01033
0.0164462
0.0274931
0.0454454
0.0708068
0.0971873
0.0802575
0.0229273
0.0187616
0.00166621
0.00182884
0.00199799
0.00218159
0.00240988
0.00269433
0.00311257
0.00378135
0.00485995
0.00658461
0.00942142
0.0142952
0.0224855
0.0350746
0.0524913
0.071768
0.034678
0.0180917
0.0180202
0.00157881
0.00172051
0.00184994
0.00199615
0.00218634
0.00242893
0.00279733
0.00339852
0.00435479
0.00582991
0.00813826
0.0119164
0.0179942
0.0269778
0.0389637
0.0514815
0.0317689
0.0153673
0.0176544
)
;
    }
    fineplugLeft
    {
        type            cyclicAMI;
        value           nonuniform List<scalar> 
20
(
0.801128
0.558569
0.066563
0.00689314
0.000374238
0.000517737
0.000494631
0.000661555
0.00088894
0.00142446
0.00258948
0.00551091
0.0149986
0.0403267
0.137462
0.162621
0.17443
0.208913
0.287206
0.822704
)
;
    }
    fineplugRight
    {
        type            cyclicAMI;
        value           nonuniform List<scalar> 
20
(
0.802376
0.570714
0.0668511
0.00766255
0.000503662
0.00065139
0.000630669
0.000826633
0.00109795
0.00168327
0.00287997
0.00567063
0.0143159
0.0376342
0.139314
0.165679
0.178776
0.212556
0.288063
0.825265
)
;
    }
    inletOutletLeft
    {
        type            cyclicAMI;
        value           nonuniform List<scalar> 
20
(
0.801128
0.558569
0.066563
0.00689314
0.000374238
0.000517737
0.000494631
0.000661555
0.00088894
0.00142446
0.00258948
0.00551091
0.0149986
0.0403267
0.137462
0.162621
0.17443
0.208913
0.287206
0.822704
)
;
    }
    inletLeft
    {
        type            calculated;
        value           uniform 1.13;
    }
    inletWallsLeft
    {
        type            calculated;
        value           nonuniform List<scalar> 
40
(
0.684479
0.80245
1.0146
1.18793
1.34577
1.49953
1.64808
1.72601
1.72501
1.66968
1.59015
1.50557
1.42487
1.35082
1.28305
1.22011
1.15739
1.09303
1.02171
0.970602
0.971773
0.88224
0.842726
0.791083
0.749171
0.694408
0.619501
0.533177
0.43594
0.330605
0.224626
0.13612
0.083143
0.0476161
0.0255898
0.0128556
0.00553311
0.00490644
0.0234523
0.805248
)
;
    }
    inletFacesLeft
    {
        type            calculated;
        value           nonuniform List<scalar> 
800
(
0.970602
0.279368
0.141899
0.058839
0.0295142
0.00909412
0.00492059
0.00342246
0.00205187
0.000959811
0.000390541
0.000136599
7.21594e-05
2.58417e-05
0.000148846
8.53405e-05
0.00812678
0.0809325
0.684246
0.971773
1.02171
0.216838
0.095065
0.023931
0.0203638
0.00520055
0.00420294
0.00319366
0.00171218
0.000688682
0.000254063
8.1097e-05
5.27408e-05
1.74712e-05
0.00013122
4.80658e-05
0.00594289
0.0663783
0.553534
0.88224
1.09303
0.220105
0.104152
0.0265825
0.0224167
0.00875639
0.00727085
0.00358047
0.00174723
0.000671676
0.000239259
7.68559e-05
4.83484e-05
1.5965e-05
0.000103211
2.37901e-05
0.00359916
0.042043
0.405636
0.842726
1.15739
0.220928
0.109722
0.0291843
0.0244829
0.0100212
0.00778098
0.00385666
0.00183679
0.000707151
0.000249177
8.06336e-05
4.48059e-05
1.64903e-05
6.97831e-05
1.58652e-05
0.00157097
0.020756
0.230596
0.791083
1.22011
0.232137
0.120717
0.0340174
0.0269408
0.0114242
0.00827407
0.0040417
0.00187131
0.000710341
0.000245843
7.95666e-05
4.11493e-05
1.62261e-05
4.97234e-05
1.12051e-05
0.000601613
0.00624652
0.0997181
0.749171
1.28305
0.248678
0.136845
0.041355
0.0300545
0.0131944
0.00882131
0.00425099
0.00190791
0.00071529
0.000243834
7.9456e-05
3.80913e-05
1.60868e-05
3.64242e-05
1.03908e-05
0.000244766
0.00217128
0.0394598
0.694408
1.35082
0.269657
0.160429
0.0521561
0.0341993
0.0154684
0.00944537
0.00447252
0.00193986
0.000718364
0.000241905
7.89236e-05
3.54317e-05
1.60576e-05
2.70534e-05
1.02466e-05
9.64657e-05
0.00102115
0.0231157
0.619501
1.42487
0.291659
0.194753
0.0672361
0.039624
0.0180938
0.0100759
0.004634
0.00193442
0.000704963
0.000234698
7.68734e-05
3.28254e-05
1.58543e-05
2.10124e-05
1.03424e-05
4.40939e-05
0.000717768
0.0262244
0.533177
1.50557
0.313413
0.245072
0.0877213
0.04658
0.0209431
0.0106059
0.00467669
0.00186922
0.000666244
0.000219939
7.26121e-05
3.00527e-05
1.5559e-05
1.69219e-05
1.04083e-05
2.49451e-05
0.000524074
0.0268099
0.43594
1.59015
0.331147
0.316991
0.114521
0.0547413
0.0234281
0.0107039
0.00444678
0.00169249
0.000587915
0.000192937
6.50104e-05
2.68182e-05
1.48341e-05
1.41429e-05
1.04907e-05
1.73439e-05
0.000402776
0.0265835
0.330605
1.66968
0.336524
0.411555
0.146884
0.0614359
0.0238051
0.00977252
0.00376628
0.00134894
0.000457882
0.000152097
5.35598e-05
2.31355e-05
1.37492e-05
1.21499e-05
1.03726e-05
1.38352e-05
0.000262578
0.0234079
0.224626
1.72501
0.310738
0.510565
0.1639
0.0580166
0.0199683
0.00716466
0.0025243
0.000873416
0.000299291
0.000104288
4.00448e-05
1.89196e-05
1.23921e-05
1.07236e-05
1.01156e-05
1.19719e-05
0.000162621
0.0196173
0.13612
1.72601
0.244455
0.501184
0.134108
0.0381673
0.0111255
0.00367084
0.00126879
0.000450433
0.000163512
6.26556e-05
2.74442e-05
1.4915e-05
1.08231e-05
9.56144e-06
9.58516e-06
1.09181e-05
9.78654e-05
0.0162289
0.083143
1.64808