/*--------------------------------*- C++ -*----------------------------------*\
| =========                 |                                                 |
| \\      /  F ield         | OpenFOAM: The Open Source CFD Toolbox           |
|  \\    /   O peration     | Version:  4.1                                   |
|   \\  /    A nd           | Web:      www.OpenFOAM.org                      |
|    \\/     M anipulation  |                                                 |
\*---------------------------------------------------------------------------*/
FoamFile
{
    version     2.0;
    format      ascii;
    class       volScalarField;
    location    "1";
    object      nut;
}
// * * * * * * * * * * * * * * * * * * * * * * * * * * * * * * * * * * * * * //

dimensions      [0 2 -1 0 0 0 0];

internalField   nonuniform List<scalar> 
1280
(
6.48688
10.8334
6.11384
6.04949
10.1871
5.76158
5.72257
5.67501
9.52417
5.38977
5.34156
8.9221
5.05053
5.0005
8.20651
4.64866
4.61695
7.83636
4.45124
4.45972
0.134413
0.189513
0.33106
0.266768
0.243358
0.263512
0.173661
0.0475937
0.0138371
0.00798576
0.00718776
0.00781082
0.0115795
0.00803081
0.0188354
0.00156853
0.00127471
0.00725471
0.168884
0.0350631
7.68388
5.12808
5.59184
6.03997
11.8463
7.17351
7.39895
7.64094
14.2753
7.39586
7.31348
13.4872
7.24502
7.02468
6.81746
11.3226
5.81616
5.4131
5.00127
7.78574
0.0370279
0.104285
0.00930849
0.242852
0.00664212
0.0159331
0.0132012
0.0147755
0.0114155
0.00935659
0.00901672
0.0128332
0.0375511
0.136117
0.225797
0.229193
0.234709
0.484653
0.182765
0.16588
4.49627
4.47609
7.8814
4.67079
4.70594
8.30819
5.05717
5.1084
9.02369
5.40225
5.45244
9.6354
5.74181
5.7885
5.82838
10.3053
6.12014
6.18618
10.9624
6.55936
0.439296
0.353655
0.324098
0.273606
0.230691
0.194052
0.178545
0.180381
0.223269
0.281867
0.332515
0.364765
0.33735
0.328253
0.403894
0.569451
0.755063
0.433225
0.484127
0.414667
0.332113
0.305918
0.264211
0.228272
0.196273
0.184788
0.195301
0.239529
0.296143
0.265691
0.281537
0.295924
0.307193
0.395399
0.649909
0.650564
0.510459
0.5302
0.399087
0.335465
0.315957
0.274222
0.242092
0.199286
0.176456
0.206549
0.253974
0.313281
0.347727
0.343392
0.351744
0.364889
0.477275
0.812908
2.76079
0.763841
0.589375
0.372382
0.321751
0.307079
0.269691
0.242704
0.216053
0.189
0.21434
0.268947
0.317819
0.395601
0.386197
0.376817
0.405846
0.527971
0.833471
2.09608
0.769978
0.678035
0.363862
0.324975
0.311628
0.272247
0.241893
0.217171
0.20385
0.223835
0.273447
0.380041
0.513404
0.518719
0.485058
0.458794
0.580845
0.801598
1.21831
3.25464
0.849459
0.356188
0.326529
0.314993
0.275222
0.241178
0.208318
0.183572
0.172122
0.19543
0.349392
0.661586
0.873622
0.694784
0.598989
0.58532
0.667031
0.745961
0.949714
2.92799
0.356962
0.335994
0.329279
0.291209
0.255611
0.222857
0.197427
0.17263
0.155243
0.214123
0.387021
0.685689
0.757106
0.641862
0.65097
0.665712
0.543997
0.438164
0.147209
0.367452
0.348096
0.354715
0.33051
0.309451
0.287028
0.26861
0.241671
0.193568
0.168979
0.160244
0.189721
0.31934
0.523521
0.799765
1.26979
1.16031
1.13931
0.999433
0.402433
0.37126
0.389496
0.380783
0.389179
0.396223
0.406855
0.428885
0.488572
0.563696
0.613813
0.543413
0.451238
0.492834
0.930914
2.03346
1.03901
1.46526
2.1233
0.427934
0.401237
0.418976
0.402888
0.388329
0.373357
0.382764
0.404363
0.439444
0.490964
0.532854
0.578288
0.479437
0.473772
0.922348
1.30344
1.83534
1.06695
1.98374
0.74343
0.756951
0.868589
0.916817
0.936399
0.965277
1.1214
1.39411
1.73683
2.68021
5.26495
8.14188
1.7535
0.891599
1.01302
0.637631
1.05642
1.16802
2.32679
0.736229
0.758658
0.835431
0.856129
0.984709
1.30525
2.13416
3.59442
3.7254
4.32685
4.71981
3.24613
1.38058
0.843177
1.08077
1.90085
1.09304
1.71035
2.67607
0.685616
0.695693
0.731315
0.697524
0.670864
0.608415
0.657512
0.743562
0.7737
0.860594
1.10569
1.50933
0.972336
0.778921
0.974067
1.32259
1.25673
1.31215
1.50559
0.661917
0.659518
0.696812
0.668756
0.645205
0.594151
0.622813
0.692655
0.759386
0.885832
0.910896
1.01228
0.784105
0.659137
0.698504
0.712475
0.626846
0.531399
0.20931
0.628356
0.615076
0.654662
0.634288
0.612963
0.546984
0.519411
0.461153
0.330953
0.264369
0.251525
0.267745
0.3348
0.451717
0.543181
0.605663
0.620841
1.03131
3.00537
0.599733
0.574896
0.611069
0.593796
0.577988
0.518758
0.452092
0.35095
0.307757
0.262168
0.244476
0.270176
0.351055
0.472655
0.60752
0.802846
1.15315
3.4808
0.727112
0.566645
0.529683
0.559064
0.541587
0.530964
0.490258
0.441209
0.376815
0.326665
0.276161
0.248768
0.263227
0.323695
0.417541
0.532792
0.841749
2.20518
0.646492
0.598721
0.566702
0.511696
0.529998
0.508003
0.496352
0.464359
0.423271
0.37569
0.330774
0.28666
0.261902
0.272715
0.320157
0.39483
0.501364
0.827377
2.29667
0.637178
0.517487
0.531419
0.47899
0.487062
0.460915
0.454192
0.441088
0.428381
0.415959
0.392963
0.351417
0.312112
0.302167
0.32408
0.368581
0.440133
0.664603
0.563592
0.433208
0.474855
0.540552
0.476598
0.472952
0.437252
0.418214
0.393618
0.370432
0.350263
0.325519
0.29425
0.271043
0.271516
0.297034
0.342612
0.417248
0.574498
0.603595
0.338083
0.437077
0.310691
0.129496
0.59723
0.165881
0.048081
0.00557947
0.00705528
0.0158487
0.0168744
0.00962036
0.00384776
0.000946153
0.000767472
4.70159e-05
0.000151512
5.90527e-05
0.00831648
0.108316
0.358707
0.3208
0.32004
0.12097
0.0819229
0.026051
0.0322056
0.00158923
0.000808947
0.00765317
0.0100391
0.00432212
0.00143257
0.000165056
7.54686e-05
1.72245e-05
9.88068e-05
3.75322e-05
0.00644291
0.113097
0.405736
0.314382
0.331217
0.118069
0.102262
0.026347
0.0312135
0.0147872
0.0242261
0.0170695
0.0111851
0.0041984
0.00125531
0.000258773
0.000124734
2.09936e-05
0.000106929
2.04073e-05
0.00349935
0.104699
0.304464
0.296264
0.340817
0.114199
0.0919657
0.0249358
0.0314438
0.0160047
0.0253446
0.0184218
0.0115591
0.00441669
0.00130016
0.000273189
0.000111358
2.2295e-05
7.51193e-05
1.06343e-05
0.00258914
0.0613911
0.232686
0.28004
0.350109
0.123721
0.0893447
0.025486
0.0306321
0.0170219
0.0242394
0.018206
0.0113074
0.00438164
0.00124265
0.000244994
9.89528e-05
2.25964e-05
3.81657e-05
7.83098e-06
0.000525403
0.0243739
0.0738783
0.267633
0.359558
0.130455
0.0855936
0.0267778
0.0299146
0.0175092
0.0227284
0.0171404
0.0104587
0.00411481
0.00115548
0.000278093
9.07397e-05
2.27252e-05
3.6964e-05
7.62656e-06
0.000389544
0.00208362
0.0137156
0.251032
0.369684
0.137424
0.0831613
0.0291651
0.0296123
0.0187369
0.0216462
0.0165984
0.00994045
0.00392947
0.0011084
0.000266429
7.97258e-05
2.30674e-05
2.18378e-05
7.47931e-06
9.88994e-05
0.000698668
0.00537796
0.227502
0.380593
0.137744
0.0824969
0.0317717
0.0295214
0.019637
0.0205147
0.0154259
0.00907574
0.0037133
0.00102859
0.000246908
6.82787e-05
1.96045e-05
2.24729e-05
1.03716e-05
7.13393e-05
0.00136825
0.0226247
0.198821
0.392184
0.133504
0.0854414
0.0336557
0.0296089
0.0203533
0.0197799
0.0147123
0.00827405
0.00320896
0.00092235
0.000214549
5.53363e-05
2.28021e-05
1.83907e-05
8.25498e-06
2.47604e-05
0.000730118
0.0202847
0.167317
0.403896
0.123728
0.0930529
0.0355198
0.0311088
0.0224463
0.0196514
0.0141237
0.00834818
0.00286052
0.000728426
0.000169144
3.79723e-05
1.93726e-05
1.5983e-05
1.04483e-05
1.86124e-05
0.000798301
0.0280501
0.133898
0.414269
0.114415
0.106702
0.0437378
0.0360678
0.0244346
0.025188
0.0202686
0.00711926
0.00187941
0.000472695
0.000112695
2.96619e-05
1.38179e-05
1.0015e-05
8.31648e-06
1.58392e-05
0.00045691
0.0249374
0.105035
0.420513
0.0959993
0.146242
0.0542966
0.047986
0.0496167
0.0364979
0.0141428
0.00387716
0.000966605
0.000252066
7.05763e-05
1.93512e-05
1.15139e-05
8.41226e-06
9.78759e-06
1.16465e-05
0.000293015
0.0187013
0.0885988
0.418683
0.0740371
0.189789
0.10681
0.072389
0.0342075
0.015449
0.00510562
0.00135223
0.000359732
0.000112072
3.82534e-05
1.29189e-05
8.0774e-06
6.07137e-06
7.94857e-06
8.75165e-06
0.000138439
0.0123357
0.0687433
0.40661
0.0689731
0.433992
0.268519
0.273174
0.0537285
0.00714683
0.00164077
0.000415234
0.000107092
3.86601e-05
1.64088e-05
9.19578e-06
5.80721e-06
5.53977e-06
5.90236e-06
6.94194e-06
7.20471e-05
0.00775769
0.0512057
0.387198
0.0198222
0.0590827
0.0308491
0.00844525
0.00221241
0.000625056
0.000204175
7.08407e-05
2.18612e-05
9.60371e-06
5.05254e-06
4.08352e-06
3.3902e-06
3.14305e-06
3.66862e-06
4.7645e-06
3.67549e-05
0.00489952
0.0369225
0.370293
0.0207225
0.00591572
0.00170268
0.000470968
0.000147585
4.48294e-05
1.33232e-05
4.97613e-06
2.51422e-06
1.46929e-06
1.09984e-06
1.33482e-06
1.47075e-06
1.37453e-06
1.91769e-06
2.54873e-06
1.4808e-05
0.00348186
0.0261181
0.344328
0.0190609
0.00379238
0.00100582
4.63706e-05
3.83007e-06
4.96362e-07
2.28602e-07
1.82771e-07
1.6807e-07
1.68524e-07
1.77711e-07
2.08089e-07
2.6189e-07
3.17439e-07
3.66155e-07
5.51661e-07
2.66337e-06
0.00165485
0.0169871
0.316925
0.00173884
1.29997e-07
1.79813e-08
2.71615e-08
2.18417e-08
2.43871e-08
2.40975e-08
2.48936e-08
2.54823e-08
2.62605e-08
2.71988e-08
2.8431e-08
2.98088e-08
3.21454e-08
3.40214e-08
4.19307e-08
1.62809e-07
0.000679556
0.0198429
0.279662
9.08822e-06
8.09446e-09
6.6417e-09
6.57158e-09
6.46083e-09
6.3971e-09
6.29622e-09
6.21326e-09
6.11742e-09
6.02087e-09
5.92198e-09
5.81796e-09
5.69781e-09
5.55087e-09
5.38784e-09
5.73477e-09
4.58613e-08
2.11544e-05
0.0358913
0.261237
8.0925e-08
7.58214e-08
7.56164e-08
7.56809e-08
7.56622e-08
7.5671e-08
7.56773e-08
7.56802e-08
7.56733e-08
7.56676e-08
7.5673e-08
7.56843e-08
7.56665e-08
7.56553e-08
7.5665e-08
7.56595e-08
7.60515e-08
3.76513e-07
0.352878
0.261249
8.09257e-08
7.58212e-08
7.56139e-08
7.56877e-08
7.56711e-08
7.56763e-08
7.56749e-08
7.5668e-08
7.56626e-08
7.56731e-08
7.56828e-08
7.56712e-08
7.5659e-08
7.5658e-08
7.56629e-08
7.56582e-08
7.60503e-08
3.76557e-07
0.35285
0.279652
9.20265e-06
8.09305e-09
6.63988e-09
6.5758e-09
6.46601e-09
6.402e-09
6.29799e-09
6.21241e-09
6.11687e-09
6.02652e-09
5.9279e-09
5.81676e-09
5.69744e-09
5.55338e-09
5.38859e-09
5.74665e-09
4.73931e-08
2.1991e-05
0.0367524
0.316919
0.00171469
1.29021e-07
1.83842e-08
2.7948e-08
2.24227e-08
2.47789e-08
2.43767e-08
2.51202e-08
2.56448e-08
2.64532e-08
2.73637e-08
2.85124e-08
2.98761e-08
3.2214e-08
3.41034e-08
4.23226e-08
1.68877e-07
0.000768574
0.0209803
0.344344
0.0190955
0.00397931
0.000573584
4.13174e-05
2.26237e-06
3.88707e-07
1.86516e-07
1.52765e-07
1.50623e-07
1.54679e-07
1.67127e-07
1.82933e-07
2.18086e-07
2.61751e-07
3.18373e-07
4.91529e-07
2.78505e-06
0.00186603
0.0179785
0.37024
0.0204038
0.00527999
0.00273574
0.000721477
0.000161349
4.00878e-05
1.01541e-05
3.34639e-06
1.53065e-06
1.00184e-06
7.69748e-07
6.74465e-07
8.26113e-07
9.7456e-07
1.46552e-06
1.97684e-06
1.53823e-05
0.0037656
0.0273191
0.386998
0.0216267
0.054407
0.0138614
0.00564611
0.00186567
0.000597252
0.000186705
6.5534e-05
1.70862e-05
5.98089e-06
3.29716e-06
3.07944e-06
1.93779e-06
2.22503e-06
2.91212e-06
4.69793e-06
4.25566e-05
0.00534726
0.0382464
0.406685
0.0615594
0.411482
0.228845
0.0768724
0.019547
0.00504149
0.00117006
0.000430291
0.000122716
3.44852e-05
1.15286e-05
5.01103e-06
3.83251e-06
3.90339e-06
4.77556e-06
6.31069e-06
9.01032e-05
0.00854801
0.0525482
0.418764
0.0727709
0.185021
0.10295
0.0963667
0.0757864
0.0253379
0.00583631
0.00177717
0.000461191
0.000119135
2.87166e-05
1.31636e-05
7.15553e-06
6.02926e-06
6.88935e-06
1.20462e-05
0.000179762
0.0134704
0.0700466
0.420624
0.0935766
0.141108
0.0522469
0.0504367
0.0392815
0.0358537
0.0171506
0.00538566
0.00131841
0.000308684
6.83942e-05
2.41173e-05
1.18104e-05
1.00288e-05
9.23638e-06
1.31913e-05
0.000292559
0.0206936
0.0897673
0.414349
0.114059
0.107759
0.0416807
0.0295284
0.0289643
0.0234904
0.0158939
0.00793549
0.00228223
0.000580218
0.000150721
4.28796e-05
1.76811e-05
1.43968e-05
1.12399e-05
2.18077e-05
0.000566342
0.0272849
0.105882
0.403946
0.123575
0.0951454
0.0320325
0.0245085
0.0173385
0.0223357
0.0192633
0.00905809
0.00330383
0.000875871
0.000219268
6.41716e-05
2.29068e-05
1.30331e-05
8.72081e-06
2.84471e-05
0.000959134
0.0281846
0.135005
0.3922
0.133724
0.0869889
0.0297646
0.0221361
0.0153139
0.0152637
0.0128811
0.0105934
0.00365106
0.00110714
0.000321337
8.983e-05
2.73843e-05
2.51334e-05
1.2106e-05
5.31272e-05
0.00127388
0.0202486
0.168223
0.380616
0.13767
0.0833861
0.0276347
0.0220376
0.0142405
0.0150585
0.0125978
0.00887506
0.00433524
0.00129382
0.000370529
9.62431e-05
2.13342e-05
3.16173e-05
1.14939e-05
3.58439e-05
0.00122253
0.0102228
0.199718
0.369763
0.136587
0.0834079
0.0250347
0.0219812
0.0133153
0.0155846
0.0135202
0.0096143
0.00433152
0.00142783
0.000390201
0.000139881
3.17556e-05
4.31883e-05
1.08424e-05
0.000134571
0.00176296
0.00986488
0.227311
0.359707
0.129604
0.0854802
0.0228875
0.022259
0.0123438
0.0168321
0.0140385
0.0105442
0.00457268
0.00150922
0.000410134
0.000114991
3.17795e-05
4.40927e-05
1.11167e-05
0.000755324
0.00330235
0.0194351
0.250993
0.350345
0.121744
0.0885967
0.0217042
0.0227287
0.0114694
0.0169822
0.016208
0.0112218
0.00495937
0.00159329
0.000419733
0.000150419
2.2945e-05
6.00812e-05
9.3279e-06
0.000455554
0.010633
0.0831766
0.267606
0.341096
0.113422
0.0916159
0.0215271
0.0231945
0.0111789
0.0192324
0.0136985
0.012251
0.0051447
0.00168013
0.000381781
0.00013475
2.60232e-05
8.34723e-05
1.01978e-05
0.00286559
0.0446992
0.256543
0.279838
0.331587
0.11422
0.0997521
0.0233066
0.0240193
0.00972835
0.0171488
0.0122145
0.0109875
0.00487192
0.00164218
0.000405976
0.000228979
2.98697e-05
0.000130118
2.79231e-05
0.00374301
0.0868958
0.310488
0.296897
0.32045
0.118747
0.0817929
0.0231515
0.0239466
0.000986126
0.000541194
0.010414
0.0103349
0.00498756
0.00185063
0.000479829
8.6804e-05
3.45691e-05
0.000150084
3.13734e-05
0.00570857
0.0716828
0.437923
0.315387
0.31116
0.128019
0.494999
0.126627
0.0343463
0.00298146
0.00416744
0.0114455
0.0142105
0.0094521
0.00434115
0.00138756
0.000619069
0.000105938
0.00024965
9.09462e-05
0.00951108
0.104211
0.375872
0.32151
)
;

boundaryField
{
    outletWall
    {
        type            calculated;
        value           nonuniform List<scalar> 
60
(
6.55936
0.484127
0.433225
0.755063
0.569451
0.403894
0.328253
0.33735
0.364765
0.332515
0.281867
0.223269
0.180381
0.178545
0.194052
0.230691
0.273606
0.324098
0.353655
0.439296
0.540552
0.531419
0.566702
0.566645
0.599733
0.628356
0.661917
0.685616
0.736229
0.74343
0.427934
0.402433
0.367452
0.356962
0.356188
0.363862
0.372382
0.399087
0.414667
0.439296
6.48688
0.437077
0.338083
0.603595
0.574498
0.417248
0.342612
0.297034
0.271516
0.271043
0.29425
0.325519
0.350263
0.370432
0.393618
0.418214
0.437252
0.472952
0.476598
0.540552
)
;
    }
    fineWalls
    {
        type            nutkWallFunction;
        Cmu             0.09;
        kappa           0.41;
        E               9.8;
        value           nonuniform List<scalar> 
60
(
0.299751
0.296472
0.504262
0.301137
0.302944
0.516454
0.325435
0.32913
0.562175
0.348411
0.352029
0.601517
0.370286
0.373327
0.376143
0.64257
0.393856
0.397977
0.680918
0.421706
0.434727
0.264687
0.274748
0.28744
0.529998
0.321622
0.333744
0.347253
0.627829
0.343751
0.347342
0.649972
0.358139
0.343912
0.331442
0.545701
0.294247
0.280614
0.269437
0.4346
0.426112
0.688357
0.402295
0.398074
0.649395
0.380139
0.377294
0.37421
0.607983
0.355803
0.35209
0.568209
0.332656
0.328893
0.522331
0.306356
0.304404
0.507818
0.298631
0.301895
)
;
    }
    fineFrontAndBack
    {
        type            calculated;
        value           nonuniform List<scalar> 
960
(
6.48688
10.8334
6.11384
6.04949
10.1871
5.76158
5.72257
5.67501
9.52417
5.38977
5.34156
8.9221
5.05053
5.0005
8.20651
4.64866
4.61695
7.83636
4.45124
4.45972
0.134413
0.189513
0.33106
0.266768
0.243358
0.263512
0.173661
0.0475937
0.0138371
0.00798576
0.00718776
0.00781082
0.0115795
0.00803081
0.0188354
0.00156853
3.4525e+08
0.00725471
0.168884
0.0350631
7.68388
5.12808
5.59184
6.03997
11.8463
7.17351
7.39895
7.64094
14.2753
7.39586
7.31348
13.4872
7.24502
7.02468
6.81746
11.3226
5.81616
5.4131
5.00127
7.78574
0.0370279
0.104285
0.00930849
0.242852
0.00664212
0.0159331
0.0132012
0.0147755
0.0114155
0.00935659
0.00901672
0.0128332
0.0375511
0.136117
0.225797
0.229193
0.234709
0.484653
0.182765
0.16588
4.49627
4.47609
7.8814
4.67079
4.70594
8.30819
5.05717
5.1084
9.02369
5.40225
5.45244
9.6354
5.74181
5.7885
5.82838
10.3053
6.12014
6.18618
10.9624
6.55936
0.439296
0.353655
0.324098
0.273606
0.230691
0.194052
0.178545
0.180381
0.223269
0.281867
0.332515
0.364765
0.33735
0.328253
0.403894
0.569451
0.755063
0.433225
0.484127
0.414667
0.332113
0.305918
0.264211
0.228272
0.196273
0.184788
0.195301
0.239529
0.296143
0.265691
0.281537
0.295924
0.307193
0.395399
0.649909
0.650564
0.510459
0.5302
0.399087
0.335465
0.315957
0.274222
0.242092
0.199286
0.176456
0.206549
0.253974
0.313281
0.347727
0.343392
0.351744
0.364889
0.477275
0.812908
2.76079
0.763841
0.589375
0.372382
0.321751
0.307079
0.269691
0.242704
0.216053
0.189
0.21434
0.268947
0.317819
0.395601
0.386197
0.376817
0.405846
0.527971
0.833471
2.09608
0.769978
0.678035
0.363862
0.324975
0.311628
0.272247
0.241893
0.217171
0.20385
0.223835
0.273447
0.380041
0.513404
0.518719
0.485058
0.458794
0.580845
0.801598
1.21831
3.25464
0.849459
0.356188
0.326529
0.314993
0.275222
0.241178
0.208318
0.183572
0.172122
0.19543
0.349392
0.661586
0.873622
0.694784
0.598989
0.58532
0.667031
0.745961
0.949714
2.92799
0.356962
0.335994
0.329279
0.291209
0.255611
0.222857
0.197427
0.17263
0.155243
0.214123
0.387021
0.685689
0.757106
0.641862
0.65097
0.665712
0.543997
0.438164
0.147209
0.367452
0.348096
0.354715
0.33051
0.309451
0.287028
0.26861
0.241671
0.193568
0.168979
0.160244
0.189721
0.31934
0.523521
0.799765
1.26979
1.16031
1.13931
0.999433
0.402433
0.37126
0.389496
0.380783
0.389179
0.396223
0.406855
0.428885
0.488572
0.563696
0.613813
0.543413
0.451238
0.492834
0.930914
2.03346
1.03901
1.46526
2.1233
0.427934
0.401237
0.418976
0.402888
0.388329
0.373357
0.382764
0.404363
0.439444
0.490964
0.532854
0.578288
0.479437
0.473772
0.922348
1.30344
1.83534
1.06695
1.98374
0.74343
0.756951
0.868589
0.916817
0.936399
0.965277
1.1214
1.39411
1.73683
2.68021
5.26495
8.14188
1.7535
0.891599
1.01302
0.637631
1.05642
1.16802
2.32679
0.736229
0.758658
0.835431
0.856129
0.984709
1.30525
2.13416
3.59442
3.7254
4.32685
4.71981
3.24613
1.38058
0.843177
1.08077
1.90085
1.09304
1.71035
2.67607
0.685616
0.695693
0.731315
0.697524
0.670864
0.608415
0.657512
0.743562
0.7737
0.860594
1.10569
1.50933
0.972336
0.778921
0.974067
1.32259
1.25673
1.31215
1.50559
0.661917
0.659518
0.696812
0.668756
0.645205
0.594151
0.622813
0.692655
0.759386
0.885832
0.910896
1.01228
0.784105
0.659137
0.698504
0.712475
0.626846
0.531399
0.20931
0.628356
0.615076
0.654662
0.634288
0.612963
0.546984
0.519411
0.461153
0.330953
0.264369
0.251525
0.267745
0.3348
0.451717
0.543181
0.605663
0.620841
1.03131
3.00537
0.599733
0.574896
0.611069
0.593796
0.577988
0.518758
0.452092
0.35095
0.307757
0.262168
0.244476
0.270176
0.351055
0.472655
0.60752
0.802846
1.15315
3.4808
0.727112
0.566645
0.529683
0.559064
0.541587
0.530964
0.490258
0.441209
0.376815
0.326665
0.276161
0.248768
0.263227
0.323695
0.417541
0.532792
0.841749
2.20518
0.646492
0.598721
0.566702
0.511696
0.529998
0.508003
0.496352
0.464359
0.423271
0.37569
0.330774
0.28666
0.261902
0.272715
0.320157
0.39483
0.501364
0.827377
2.29667
0.637178
0.517487
0.531419
0.47899
0.487062
0.460915
0.454192
0.441088
0.428381
0.415959
0.392963
0.351417
0.312112
0.302167
0.32408
0.368581
0.440133
0.664603
0.563592
0.433208
0.474855
0.540552
0.476598
0.472952
0.437252
0.418214
0.393618
0.370432
0.350263
0.325519
0.29425
0.271043
0.271516
0.297034
0.342612
0.417248
0.574498
0.603595
0.338083
0.437077
6.48688
10.8334
6.11384
6.04949
10.1871
5.76158
5.72257
5.67501
9.52417
5.38977
5.34156
8.9221
5.05053
5.0005
8.20651
4.64866
4.61695
7.83636
4.45124
4.45972
0.134413
0.189513
0.33106
0.266768
0.243358
0.263512
0.173661
0.0475937
0.0138371
0.00798576
0.00718776
0.00781082
0.0115795
0.00803081
0.0188354
0.00156853
3.4525e+08
0.00725471
0.168884
0.0350631
7.68388
5.12808
5.59184
6.03997
11.8463
7.17351
7.39895
7.64094
14.2753
7.39586
7.31348
13.4872
7.24502
7.02468
6.81746
11.3226
5.81616
5.4131
5.00127
7.78574
0.0370279
0.104285
0.00930849
0.242852
0.00664212
0.0159331
0.0132012
0.0147755
0.0114155
0.00935659
0.00901672
0.0128332
0.0375511
0.136117
0.225797
0.229193
0.234709
0.484653
0.182765
0.16588
4.49627
4.47609
7.8814
4.67079
4.70594
8.30819
5.05717
5.1084
9.02369
5.40225
5.45244
9.6354
5.74181
5.7885
5.82838
10.3053
6.12014
6.18618
10.9624
6.55936
0.439296
0.353655
0.324098
0.273606
0.230691
0.194052
0.178545
0.180381
0.223269
0.281867
0.332515
0.364765
0.33735
0.328253
0.403894
0.569451
0.755063
0.433225
0.484127
0.414667
0.332113
0.305918
0.264211
0.228272
0.196273
0.184788
0.195301
0.239529
0.296143
0.265691
0.281537
0.295924
0.307193
0.395399
0.649909
0.650564
0.510459
0.5302
0.399087
0.335465
0.315957
0.274222
0.242092
0.199286
0.176456
0.206549
0.253974
0.313281
0.347727
0.343392
0.351744
0.364889
0.477275
0.812908
2.76079
0.763841
0.589375
0.372382
0.321751
0.307079
0.269691
0.242704
0.216053
0.189
0.21434
0.268947
0.317819
0.395601
0.386197
0.376817
0.405846
0.527971
0.833471
2.09608
0.769978
0.678035
0.363862
0.324975
0.311628
0.272247
0.241893
0.217171
0.20385
0.223835
0.273447
0.380041
0.513404
0.518719
0.485058
0.458794
0.580845
0.801598
1.21831
3.25464
0.849459
0.356188
0.326529
0.314993
0.275222
0.241178
0.208318
0.183572
0.172122
0.19543
0.349392
0.661586
0.873622
0.694784
0.598989
0.58532
0.667031
0.745961
0.949714
2.92799
0.356962
0.335994
0.329279
0.291209
0.255611
0.222857
0.197427
0.17263
0.155243
0.214123
0.387021
0.685689
0.757106
0.641862
0.65097
0.665712
0.543997
0.438164
0.147209
0.367452
0.348096
0.354715
0.33051
0.309451
0.287028
0.26861
0.241671
0.193568
0.168979
0.160244
0.189721
0.31934
0.523521
0.799765
1.26979
1.16031
1.13931
0.999433
0.402433
0.37126
0.389496
0.380783
0.389179
0.396223
0.406855
0.428885
0.488572
0.563696
0.613813
0.543413
0.451238
0.492834
0.930914
2.03346
1.03901
1.46526
2.1233
0.427934
0.401237
0.418976
0.402888
0.388329
0.373357
0.382764
0.404363
0.439444
0.490964
0.532854
0.578288
0.479437
0.473772
0.922348
1.30344
1.83534
1.06695
1.98374
0.74343
0.756951
0.868589
0.916817
0.936399
0.965277
1.1214
1.39411
1.73683
2.68021
5.26495
8.14188
1.7535
0.891599
1.01302
0.637631
1.05642
1.16802
2.32679
0.736229
0.758658
0.835431
0.856129
0.984709
1.30525
2.13416
3.59442
3.7254
4.32685
4.71981
3.24613
1.38058
0.843177
1.08077
1.90085
1.09304
1.71035
2.67607
0.685616
0.695693
0.731315
0.697524
0.670864
0.608415
0.657512
0.743562
0.7737
0.860594
1.10569
1.50933
0.972336
0.778921
0.974067
1.32259
1.25673
1.31215
1.50559
0.661917
0.659518
0.696812
0.668756
0.645205
0.594151
0.622813
0.692655
0.759386
0.885832
0.910896
1.01228
0.784105
0.659137
0.698504
0.712475
0.626846
0.531399
0.20931
0.628356
0.615076
0.654662
0.634288
0.612963
0.546984
0.519411
0.461153
0.330953
0.264369
0.251525
0.267745
0.3348
0.451717
0.543181
0.605663
0.620841
1.03131
3.00537
0.599733
0.574896
0.611069
0.593796
0.577988
0.518758
0.452092
0.35095
0.307757
0.262168
0.244476
0.270176
0.351055
0.472655
0.60752
0.802846
1.15315
3.4808
0.727112
0.566645
0.529683
0.559064
0.541587
0.530964
0.490258
0.441209
0.376815
0.326665
0.276161
0.248768
0.263227
0.323695
0.417541
0.532792
0.841749
2.20518
0.646492
0.598721
0.566702
0.511696
0.529998
0.508003
0.496352
0.464359
0.423271
0.37569
0.330774
0.28666
0.261902
0.272715
0.320157
0.39483
0.501364
0.827377
2.29667
0.637178
0.517487
0.531419
0.47899
0.487062
0.460915
0.454192
0.441088
0.428381
0.415959
0.392963
0.351417
0.312112
0.302167
0.32408
0.368581
0.440133
0.664603
0.563592
0.433208
0.474855
0.540552
0.476598
0.472952
0.437252
0.418214
0.393618
0.370432
0.350263
0.325519
0.29425
0.271043
0.271516
0.297034
0.342612
0.417248
0.574498
0.603595
0.338083
0.437077
)
;
    }
    fineplugLeft
    {
        type            cyclicAMI;
        value           nonuniform List<scalar> 
20
(
0.263652
0.320742
0.0881038
0.00690812
0.000360949
0.00388828
0.00164377
0.00292987
0.00231909
0.00451576
0.00929344
0.0162669
0.0221977
0.0259997
0.0571661
0.0871365
0.186059
0.543996
0.141499
0.275435
)
;
    }
    fineplugRight
    {
        type            cyclicAMI;
        value           nonuniform List<scalar> 
20
(
0.264613
0.321555
0.0852305
0.0561792
0.00140118
0.00338634
0.00272499
0.00345036
0.00339314
0.00534424
0.00936502
0.013935
0.0166666
0.0191711
0.0475446
0.0733157
0.148243
0.49293
0.138968
0.282104
)
;
    }
    inletOutletLeft
    {
        type            cyclicAMI;
        value           nonuniform List<scalar> 
20
(
0.263652
0.320742
0.0881038
0.00690812
0.000360949
0.00388828
0.00164377
0.00292987
0.00231909
0.00451576
0.00929344
0.0162669
0.0221977
0.0259997
0.0571661
0.0871365
0.186059
0.543996
0.141499
0.275435
)
;
    }
    inletLeft
    {
        type            calculated;
        value           uniform 5.26945e-05;
    }
    inletWallsLeft
    {
        type            nutkWallFunction;
        Cmu             0.09;
        kappa           0.41;
        E               9.8;
        value           nonuniform List<scalar> 
40
(
0.0206398
0.0222098
0.024748
0.0266168
0.0281951
0.0296399
0.0309621
0.0316303
0.0316218
0.031149
0.0304543
0.029695
0.0289488
0.0282439
0.0275805
0.0269472
0.0262987
0.0256132
0.0248279
0.0242469
0.0242604
0.0232023
0.0227171
0.0220641
0.0215172
0.0207773
0.0197125
0.0183958
0.016767
0.0147634
0.0123604
0.0098213
0.00783484
0.00607067
0.00457093
0.00333899
0.00227436
0.00215328
0.00439249
0.0222454
)
;
    }
    inletFacesLeft
    {
        type            calculated;
        value           nonuniform List<scalar> 
800
(
0.310691
0.129496
0.59723
3.11582e+11
7.83981e+10
7.44328e+09
2.1791e+09
1.05419e+09
3.78914e+08
8.29113e+07
1.3727e+07
1.67933e+06
0.000767472
4.70159e-05
0.000151512
5.90527e-05
0.00831648
0.108316
0.358707
0.3208
0.32004
0.12097
0.0819229
0.026051
0.0322056
0.00158923
0.000808947
0.00765317
0.0100391
0.00432212
0.00143257
0.000165056
7.54686e-05
1.72245e-05
9.88068e-05
3.75322e-05
0.00644291
0.113097
0.405736
0.314382
0.331217
0.118069
0.102262
0.026347
0.0312135
0.0147872
0.0242261
0.0170695
0.0111851
0.0041984
0.00125531
0.000258773
0.000124734
2.09936e-05
0.000106929
2.04073e-05
0.00349935
0.104699
0.304464
0.296264
0.340817
0.114199
0.0919657
0.0249358
0.0314438
0.0160047
0.0253446
0.0184218
0.0115591
0.00441669
0.00130016
0.000273189
0.000111358
2.2295e-05
7.51193e-05
1.06343e-05
0.00258914
0.0613911
0.232686
0.28004
0.350109
0.123721
0.0893447
0.025486
0.0306321
0.0170219
0.0242394
0.018206
0.0113074
0.00438164
0.00124265
0.000244994
9.89528e-05
2.25964e-05
3.81657e-05
7.83098e-06
0.000525403
0.0243739
0.0738783
0.267633
0.359558
0.130455
0.0855936
0.0267778
0.0299146
0.0175092
0.0227284
0.0171404
0.0104587
0.00411481
0.00115548
0.000278093
9.07397e-05
2.27252e-05
3.6964e-05
7.62656e-06
0.000389544
0.00208362
0.0137156
0.251032
0.369684
0.137424
0.0831613
0.0291651
0.0296123
0.0187369
0.0216462
0.0165984
0.00994045
0.00392947
0.0011084
0.000266429
7.97258e-05
2.30674e-05
2.18378e-05
7.47931e-06
9.88994e-05
0.000698668
0.00537796
0.227502
0.380593
0.137744
0.0824969
0.0317717
0.0295214
0.019637
0.0205147
0.0154259
0.00907574
0.0037133
0.00102859
0.000246908
6.82787e-05
1.96045e-05
2.24729e-05
1.03716e-05
7.13393e-05
0.00136825
0.0226247
0.198821
0.392184
0.133504
0.0854414
0.0336557
0.0296089
0.0203533
0.0197799
0.0147123
0.00827405
0.00320896
0.00092235
0.000214549
5.53363e-05
2.28021e-05
1.83907e-05
8.25498e-06
2.47604e-05
0.000730118
0.0202847
0.167317
0.403896
0.123728
0.0930529
0.0355198
0.0311088
0.0224463
0.0196514
0.0141237
0.00834818
0.00286052
0.000728426
0.000169144
3.79723e-05
1.93726e-05
1.5983e-05
1.04483e-05
1.86124e-05
0.000798301
0.0280501
0.133898
0.414269
0.114415
0.106702
0.0437378
0.0360678
0.0244346
0.025188
0.0202686
0.00711926
0.00187941
0.000472695
0.000112695
2.96619e-05
1.38179e-05
1.0015e-05
8.31648e-06
1.58392e-05
0.00045691
0.0249374
0.105035
0.420513
0.0959993
0.146242
0.0542966
0.047986
0.0496167
0.0364979
0.0141428
0.00387716
0.000966605
0.000252066
7.05763e-05
1.93512e-05
1.15139e-05
8.41226e-06
9.78759e-06
1.16465e-05
0.000293015
0.0187013
0.0885988
0.418683
0.0740371
0.189789
0.10681
0.072389
0.0342075
0.015449
0.00510562
0.00135223
0.000359732
0.000112072
3.82534e-05
1.29189e-05
8.0774e-06
6.07137e-06
7.94857e-06
8.75165e-06
0.000138439
0.0123357
0.0687433
0.40661
0.0689731
0.433992
0.268519
0.273174
0.0537285
0.00714683
0.00164077
0.000415234
0.000107092
3.86601e-05
1.64088e-05
9.19578e-06
5.80721e-06
5.53977e-06
5.90236e-06
6.94194e-06
7.20471e-05
0.00775769
0.0512057
0.387198
0.0198222
0.0590827
0.0308491
0.00844525
0.00221241
0.000625056
0.000204175
7.08407e-05
2.18612e-05
9.60371e-06
5.05254e-06
4.08352e-06
3.3902e-06
3.14305e-06
3.66862e-06
4.7645e-06
3.67549e-05
0.00489952
0.0369225
0.370293
0.0207225
0.00591572
0.00170268
0.000470968
0.000147585
4.48294e-05
1.33232e-05
4.97613e-06
2.51422e-06
1.46929e-06
1.09984e-06
1.33482e-06
1.47075e-06
1.37453e-06
1.91769e-06
2.54873e-06
1.4808e-05
0.00348186
0.0261181
0.344328
0.0190609
0.00379238
0.00100582
4.63706e-05
3.83007e-06
4.96362e-07
2.28602e-07
1.82771e-07
1.6807e-07
1.68524e-07
1.77711e-07
2.08089e-07
2.6189e-07
3.17439e-07
3.66155e-07
5.51661e-07
2.66337e-06
0.00165485
0.0169871
0.316925
0.00173884
1.29997e-07
1.79813e-08
2.71615e-08
2.18417e-08
2.43871e-08
2.40975e-08
2.48936e-08
2.54823e-08
2.62605e-08
2.71988e-08
2.8431e-08
2.98088e-08
3.21454e-08
3.40214e-08
4.19307e-08
1.62809e-07
0.000679556
0.0198429
0.279662
9.08822e-06
8.09446e-09
6.6417e-09
6.57158e-09
6.46083e-09
6.3971e-09
6.29622e-09
6.21326e-09
6.11742e-09
6.02087e-09
5.92198e-09
5.81796e-09
5.69781e-09
5.55087e-09
5.38784e-09
5.73477e-09
4.58613e-08
2.11544e-05
0.0358913
0.261237
8.0925e-08
7.58214e-08
7.56164e-08
7.56809e-08
7.56622e-08
7.5671e-08
7.56773e-08
7.56802e-08
7.56733e-08
7.56676e-08
7.5673e-08
7.56843e-08
7.56665e-08
7.56553e-08
7.5665e-08
7.56595e-08
7.60515e-08
3.76513e-07
0.352878
0.310691
0.129496
0.59723
3.11582e+11
7.83981e+10
7.44328e+09
2.1791e+09
1.05419e+09
3.78914e+08
8.29113e+07
1.3727e+07
1.67933e+06
0.000767472
4.70159e-05
0.000151512