/*--------------------------------*- C++ -*----------------------------------*\
| =========                 |                                                 |
| \\      /  F ield         | OpenFOAM: The Open Source CFD Toolbox           |
|  \\    /   O peration     | Version:  4.1                                   |
|   \\  /    A nd           | Web:      www.OpenFOAM.org                      |
|    \\/     M anipulation  |                                                 |
\*---------------------------------------------------------------------------*/
FoamFile
{
    version     2.0;
    format      ascii;
    class       volScalarField;
    location    "1";
    object      p;
}
// * * * * * * * * * * * * * * * * * * * * * * * * * * * * * * * * * * * * * //

dimensions      [0 2 -2 0 0 0 0];

internalField   nonuniform List<scalar> 
1280
(
-1.92265
-1.12579
-1.44536
-3.45186
-1.57871
-2.84989
-4.55905
-5.09272
-4.03795
-4.78678
-7.53063
-5.76318
-6.71209
-10.3041
-8.0104
-9.54638
-14.0325
-11.4291
-14.4586
-25.9469
-19.6532
-15.667
-18.1397
-21.2103
-22.2353
-23.5075
-46.5619
-19.2209
-17.6531
-16.1165
-14.5696
-13.1615
-11.6903
-10.8864
-9.4165
-9.26144
-7.91141
-7.56625
-8.44009
-3.45392
-16.9506
-17.231
-17.5973
-17.6244
-20.0974
-18.5976
-17.8065
-17.1294
-16.2338
-16.1931
-16.1812
-16.154
-17.0024
-17.6566
-18.3725
-19.8599
-17.268
-17.2871
-16.8927
-16.6068
-2.97846
-8.03483
-7.23528
-7.60278
-9.00136
-9.18462
-10.6881
-11.5178
-13.0127
-14.4371
-16.0299
-17.6116
-19.1562
-46.3508
-23.312
-22.0782
-21.1703
-18.0912
-15.5689
-19.715
-26.3779
-14.8939
-11.5287
-14.0361
-9.53688
-8.01742
-10.2972
-6.68105
-5.73252
-7.50827
-4.74488
-4.00368
-5.06918
-4.54125
-2.82497
-1.55478
-3.44778
-1.42629
-1.1151
-1.93105
0.00120644
0.00429248
0.00792358
0.0129032
0.0195928
0.0287969
0.0414997
0.05924
0.0837526
0.118462
0.168426
0.237399
0.319704
0.377882
0.186544
-0.949027
-1.5767
-3.22414
-0.049338
0.00360455
0.0125029
0.0229974
0.0372107
0.0562487
0.0824105
0.118454
0.168514
0.237078
0.335389
0.476667
0.674402
0.929184
1.16694
0.79982
-2.1161
-4.17929
-6.82354
-1.66079
0.00590303
0.0205874
0.0381412
0.0617678
0.0934069
0.136898
0.196906
0.280272
0.394772
0.560443
0.79611
1.1272
1.56924
1.99851
1.46447
-3.09253
-7.11866
-10.4223
-2.10999
0.00787113
0.0279921
0.051963
0.0842043
0.127335
0.186647
0.268509
0.382128
0.538719
0.763555
1.08256
1.53928
2.17664
2.89092
2.61257
-2.66627
-10.6154
-13.58
-1.64777
0.00963384
0.0349452
0.0647407
0.104895
0.158549
0.23239
0.334302
0.475394
0.670138
0.945723
1.33668
1.90355
2.71603
3.7676
3.95976
-1.13348
-13.8226
-11.4501
-0.802433
0.0111041
0.041205
0.0759567
0.123012
0.185802
0.272276
0.391564
0.556211
0.783167
1.10058
1.54742
2.18731
3.07254
4.25593
4.45857
0.723558
-11.436
-10.1771
1.98211
0.0122939
0.0467052
0.0854539
0.138271
0.208643
0.305616
0.439311
0.623224
0.875708
1.22516
1.71246
2.39524
3.28661
4.36162
2.69056
-3.16138
-8.07627
-2.96876
5.84611
0.0131369
0.0511992
0.092881
0.150159
0.22635
0.331415
0.476239
0.674734
0.945698
1.31639
1.81591
2.46224
3.29082
3.89584
-0.0789398
-4.76767
-1.29215
12.2762
-4.62904
0.0136767
0.0545607
0.0981412
0.158529
0.238738
0.34945
0.502227
0.710999
0.994278
1.37729
1.87857
2.50964
3.37107
3.99424
0.586034
-3.28816
1.86824
16.0799
-2.62624
0.013822
0.0562361
0.100593
0.162431
0.244483
0.357944
0.515118
0.72921
1.01838
1.40899
1.91925
2.56045
3.4842
4.28576
1.45361
-2.55366
3.42658
15.642
1.52534
0.0137751
0.0561901
0.100519
0.162315
0.244288
0.35779
0.515525
0.730013
1.01878
1.4087
1.91832
2.56025
3.48497
4.28698
1.43862
-2.62837
3.48059
15.6525
1.53138
0.0136324
0.0545781
0.0981921
0.158629
0.238818
0.349548
0.502928
0.712168
0.994855
1.37679
1.87703
2.50965
3.37258
3.99518
0.510697
-3.41352
1.86303
16.121
-2.62951
0.0131381
0.0513193
0.0930941
0.150509
0.22678
0.331858
0.476834
0.675542
0.946449
1.31644
1.81617
2.46487
3.293
3.89295
-0.162437
-4.88178
-1.33469
12.6131
-4.19588
0.0122994
0.0468266
0.0856527
0.138605
0.209088
0.306137
0.43986
0.623804
0.876688
1.22538
1.71275
2.3967
3.28241
4.34478
2.62005
-3.26815
-7.98528
-2.51501
5.60234
0.0111021
0.0412919
0.0760893
0.123249
0.186154
0.272779
0.392143
0.556859
0.784712
1.10124
1.54706
2.18592
3.06287
4.2371
4.43511
0.791806
-11.2486
-9.90032
1.79371
0.00962404
0.0349892
0.0648058
0.105038
0.15881
0.232902
0.335068
0.476425
0.672852
0.947392
1.33646
1.90148
2.70689
3.7557
3.97541
-0.964592
-13.8331
-11.1486
-0.855244
0.00785695
0.0280039
0.0519805
0.0842713
0.127513
0.187149
0.269461
0.383596
0.542758
0.766142
1.08266
1.53805
2.17093
2.88663
2.65035
-2.4454
-10.6971
-13.4159
-1.68969
0.00588715
0.0205788
0.0381257
0.061771
0.0935007
0.137315
0.197865
0.281987
0.399617
0.565125
0.798593
1.12748
1.56726
1.9996
1.50142
-2.86742
-7.0531
-10.3919
-2.12765
0.003593
0.0124834
0.0229567
0.0371639
0.0562465
0.0826307
0.119112
0.169836
0.240858
0.340907
0.481561
0.676265
0.929308
1.1696
0.821769
-1.98503
-4.06032
-6.76853
-1.67302
0.00120766
0.00429721
0.00791068
0.0128676
0.0195638
0.0288519
0.0417412
0.0597383
0.0850498
0.120841
0.171005
0.238636
0.32006
0.379413
0.193608
-0.906773
-1.50801
-3.20289
-0.054818
35.5225
34.2173
33.6564
31.4261
30.9066
29.7807
29.0725
28.1146
27.8298
27.5353
27.4056
27.2426
27.5712
27.2223
28.3591
27.4786
29.5647
28.1839
30.2106
29.5873
28.3357
28.6918
28.9811
28.0744
28.5688
27.722
27.8084
27.2866
27.028
26.6903
26.4228
26.0309
26.0365
25.255
25.9153
24.4586
25.9157
23.9131
25.2522
23.6562
31.6456
31.7436
32.1541
31.1247
31.8162
30.9691
31.2638
30.8177
30.7595
30.5419
30.3901
30.114
30.1876
29.4891
30.1823
28.7228
30.2063
28.1364
29.389
27.9776
32.0575
32.0956
32.6882
31.5241
32.4008
31.4949
31.8664
31.4401
31.4092
31.2263
31.1015
30.8633
30.9494
30.3139
30.99
29.6328
31.0829
29.1216
30.4678
29.0535
33.8954
33.8878
34.5931
33.333
34.2809
33.3472
33.7437
33.3248
33.306
33.1372
33.0204
32.8025
32.8789
32.2908
32.9051
31.6589
32.959
31.2007
32.4088
31.0601
34.8729
34.85
35.6822
34.349
35.3545
34.4167
34.8283
34.4261
34.4163
34.2661
34.1602
33.9671
34.0417
33.5049
34.0819
32.9341
34.1497
32.5247
33.6794
32.4272
36.3091
36.2232
37.2069
35.7683
36.7924
35.8676
36.241
35.8625
35.8283
35.6841
35.5679
35.3816
35.4308
34.9352
35.4345
34.3961
35.46
34.0057
35.0269
33.8921
37.5382
37.3944
38.5812
37.0327
38.0624
37.1904
37.5093
37.1778
37.121
36.9934
36.8753
36.7062
36.7348
36.2976
36.7157
35.8113
36.7189
35.4515
36.3169
35.3563
38.6804
38.4535
39.9172
38.223
39.2412
38.45
38.6867
38.415
38.328
38.2166
38.0957
37.9448
37.9475
37.5792
37.9006
37.1525
37.8809
36.8269
37.505
36.7585
39.4136
39.0588
40.9382
39.0673
40.1017
39.4268
39.591
39.4028
39.3064
39.227
39.1222
39.0077
38.9969
38.7216
38.949
38.3896
38.9357
38.1255
38.6143
38.1153
39.1228
38.4512
40.9393
38.832
39.9965
39.4504
39.6009
39.526
39.4673
39.4521
39.4012
39.3571
39.3638
39.2156
39.3752
39.0404
39.4277
38.8945
39.2249
39.0073
37.8802
36.4734
39.694
37.1991
38.7223
38.2068
38.43
38.4717
38.4871
38.5573
38.5849
38.6299
38.676
38.6623
38.7787
38.6602
38.9132
38.6421
38.8357
38.8657
36.9187
34.6989
38.402
35.3803
37.531
36.7915
37.1571
37.2712
37.3491
37.4916
37.5897
37.7114
37.8012
37.8968
37.9948
38.0377
38.196
38.1185
38.1832
38.3478
35.091
33.3608
36.9969
33.6368
36.555
35.5726
36.1552
36.3749
36.54
36.7828
36.9813
37.2025
37.3819
37.5989
37.7581
37.9504
38.1365
38.2288
38.2736
38.5869
27.3024
27.3866
30.7475
27.7633
31.0739
30.3006
31.1551
31.6904
32.1282
32.6586
33.1529
33.6572
34.1218
34.6138
35.0237
35.4697
35.8533
36.1575
36.3142
36.8259
16.435
17.1465
20.3028
17.4212
20.3784
19.7134
20.5613
21.2208
21.8617
22.6765
23.5641
24.5381
25.577
26.6924
27.8059
28.9824
30.0748
31.134
31.8379
32.9778
10.6405
10.4151
15.3909
10.3951
13.8116
11.9264
12.3228
12.1133
12.1116
12.3004
12.691
13.3079
14.1907
15.321
16.7308
18.4234
20.2753
22.5066
24.1879
26.9948
-37.4547
-40.9581
-31.265
-36.0172
-31.612
-32.7013
-31.597
-31.6203
-31.3763
-31.232
-31.0179
-30.7163
-30.2688
-29.6723
-28.8484
-27.8229
-26.5876
-25.0289
-23.6032
-18.6379
-41.6676
-63.1258
-54.6791
-65.3804
-67.6137
-73.5878
-77.7002
-81.9839
-85.4296
-88.3072
-90.4117
-91.7463
-92.2549
-91.9179
-90.677
-88.4748
-85.5093
-81.9559
-77.5318
-72.4494
656.104
573.413
524.199
467.806
418.864
371.749
328.133
287.062
248.596
212.409
178.35
146.204
115.765
86.8737
59.457
32.7401
6.47683
-15.8893
-40.2701
-74.9763
655.396
572.713
523.505
467.117
418.179
371.069
327.457
286.389
247.926
211.741
177.684
145.541
115.105
86.2192
58.8094
32.0996
5.84318
-16.5083
-40.8708
-75.5647
-42.2474
-63.6936
-55.2449
-65.9405
-68.1684
-74.1377
-78.2465
-82.5259
-85.968
-88.8418
-90.9425
-92.2732
-92.7777
-92.436
-91.1885
-88.9798
-86.0165
-82.4693
-78.0303
-72.9171
-38.0931
-41.6006
-31.9044
-36.6601
-32.2567
-33.3485
-32.244
-32.2725
-32.0304
-31.8903
-31.6805
-31.3839
-30.9415
-30.3506
-29.532
-28.5101
-27.2756
-25.7288
-24.2946
-19.3168
9.78842
9.5669
14.5519
9.56192
12.9874
11.1085
11.5183
11.3155
11.3244
11.5228
11.9234
12.5503
13.4445
14.5863
16.0084
17.716
19.5903
21.8259
23.531
26.3827
15.6533
16.3879
19.5795
16.7149
19.7138
19.0963
19.9891
20.692
21.3744
22.2294
23.1566
24.1694
25.2471
26.4013
27.5518
28.7682
29.9035
30.989
31.7311
32.9351
26.9951
27.1093
30.4915
27.7295
30.9199
30.2418
31.1204
31.685
32.1495
32.7067
33.228
33.759
34.2502
34.7689
35.2025
35.6757
36.0854
36.4031
36.5771
37.1369
35.355
33.6707
37.3557
34.0083
36.922
35.9483
36.5289
36.7537
36.9235
37.1722
37.3773
37.6054
37.7918
38.0164
38.1801
38.3813
38.5735
38.6645
38.7079
39.0445
37.3482
35.1663
38.8888
35.8667
38.013
37.2854
37.653
37.7701
37.8503
37.9947
38.0938
38.2158
38.3053
38.4001
38.4947
38.537
38.6924
38.6071
38.6627
38.8343
38.3794
36.9952
40.2213
37.7192
39.2389
38.7235
38.9459
38.9844
38.9968
39.0634
39.0863
39.1259
39.1661
39.1458
39.2541
39.1286
39.3742
39.0921
39.2735
39.2989
39.6084
38.9462
41.4304
39.3119
40.4725
39.9185
40.0644
39.9807
39.915
39.892
39.8326
39.7797
39.7775
39.6197
39.7697
39.4253
39.8041
39.26
39.579
39.3509
39.8302
39.4766
41.3454
39.463
40.4924
39.8068
39.9641
39.7653
39.6606
39.5722
39.4586
39.3352
39.3159
39.032
39.251
38.684
39.2226
38.4049
38.8854
38.3736
39.0026
38.7727
40.224
38.5213
39.535
38.7338
38.9644
38.6836
38.5903
38.4717
38.3442
38.1869
38.1836
37.8095
38.1249
37.3717
38.0943
37.035
37.7079
36.9464
37.7786
37.629
38.8054
37.2517
38.2791
37.3982
37.7136
37.3746
37.3139
37.1808
37.0579
36.8839
36.9075
36.4654
36.8783
35.9679
36.8699
35.5976
36.4565
35.4775
36.4859
36.3896
37.3654
35.9221
36.9467
36.0112
36.3832
35.9961
35.9584
35.8077
35.6859
35.4934
35.5359
35.0329
35.5261
34.4766
35.5345
34.0766
35.0815
33.928
34.9992
34.9581
35.7824
34.4407
35.4475
34.4936
34.9033
34.4884
34.4727
34.3126
34.1976
33.9947
34.0591
33.5109
34.0795
32.9152
34.1218
32.4932
33.6332
32.3508
33.9421
33.9076
34.6028
33.3294
34.2772
33.3227
33.7146
33.2797
33.252
33.0703
32.9417
32.7117
32.7759
32.1747
32.7801
31.5163
32.8095
31.0405
32.2396
30.8605
31.9971
32.0015
32.5839
31.4048
32.2797
31.3529
31.717
31.2761
31.2352
31.0402
30.9044
30.6555
30.7313
30.0859
30.7558
29.3867
30.831
28.8697
30.2122
28.7716
31.453
31.5133
31.9137
30.8742
31.5627
30.6989
30.9871
30.5318
30.4658
30.2414
30.084
29.804
29.8737
29.1747
29.8684
28.4093
29.8962
27.8295
29.0992
27.6705
27.9949
28.3188
28.6031
27.6932
28.1967
27.3472
27.439
26.9235
26.6725
26.3438
26.0869
25.7075
25.7253
24.9614
25.6394
24.2012
25.6805
23.6914
25.0751
23.4821
35.096
33.7502
33.2132
31.0381
30.5641
29.4765
28.8079
27.8822
27.6244
27.3557
27.2552
27.1237
27.4841
27.1673
28.3328
27.4797
29.5927
28.2296
30.2955
29.6852
)
;

boundaryField
{
    outletWall
    {
        type            fixedValue;
        value           uniform 0;
    }
    fineWalls
    {
        type            zeroGradient;
    }
    fineFrontAndBack
    {
        type            zeroGradient;
    }
    fineplugLeft
    {
        type            cyclicAMI;
        value           nonuniform List<scalar> 
20
(
22.979
22.4804
21.0338
22.0694
20.1306
20.804
19.6005
19.7189
19.1618
19.0106
18.805
18.7332
18.6475
20.4722
19.1231
20.2782
20.8988
23.2972
24.2405
24.4873
)
;
    }
    fineplugRight
    {
        type            cyclicAMI;
        value           nonuniform List<scalar> 
20
(
23.1524
22.6294
21.1367
22.1536
20.1835
20.8293
19.5962
19.6837
19.0964
18.9168
18.6786
18.5772
18.4745
20.2617
18.9188
20.0356
20.5964
22.9523
23.8864
24.1338
)
;
    }
    inletOutletLeft
    {
        type            cyclicAMI;
        value           nonuniform List<scalar> 
20
(
22.979
22.4804
21.0338
22.0694
20.1306
20.804
19.6005
19.7189
19.1618
19.0106
18.805
18.7332
18.6475
20.4722
19.1231
20.2782
20.8988
23.2972
24.2405
24.4873
)
;
    }
    inletLeft
    {
        type            zeroGradient;
    }
    inletWallsLeft
    {
        type            zeroGradient;
    }
    inletFacesLeft
    {
        type            zeroGradient;
    }
    inletOutletRight
    {
        type            cyclicAMI;
        value           nonuniform List<scalar> 
20
(
23.1524
22.6294
21.1367
22.1536
20.1835
20.8293
19.5962
19.6837
19.0964
18.9168
18.6786
18.5772
18.4745
20.2617
18.9188
20.0356
20.5964
22.9523
23.8864
24.1338
)
;
    }
    inletRight
    {
        type            zeroGradient;
    }
    inletWallsRight
    {
        type            zeroGradient;
    }
    inletFacesRight
    {
        type            zeroGradient;
    }
}


// ************************************************************************* //
