/*--------------------------------*- C++ -*----------------------------------*\
| =========                 |                                                 |
| \\      /  F ield         | OpenFOAM: The Open Source CFD Toolbox           |
|  \\    /   O peration     | Version:  4.1                                   |
|   \\  /    A nd           | Web:      www.OpenFOAM.org                      |
|    \\/     M anipulation  |                                                 |
\*---------------------------------------------------------------------------*/
FoamFile
{
    version     2.0;
    format      ascii;
    class       surfaceScalarField;
    location    "1";
    object      phi;
}
// * * * * * * * * * * * * * * * * * * * * * * * * * * * * * * * * * * * * * //

dimensions      [0 3 -1 0 0 0 0];

internalField   nonuniform List<scalar> 
2360
(
5710.71
6194.52
-483.809
6194.52
6194.52
6597.26
-402.741
6597.26
6597.26
6597.26
7156.67
-559.412
7156.67
7156.67
7967.32
-810.645
7967.32
7967.32
9386.78
-1419.47
9386.78
9386.78
11636.9
-2250.1
11636.9
11636.9
12397
13259.8
14150.5
15062
16024.7
17004.3
840.13
17149.1
1833.38
2822.85
3808.12
4791.17
5775.2
6756.6
7748.97
8728.09
9737.35
10701.1
11737.7
12664
13987.8
-1421.27
15409.1
-1421.27
-1421.27
-1421.27
-2617.78
1196.52
-2617.78
-2617.78
-2617.78
71.1361
-2688.92
71.1356
71.1351
2711.93
-2640.79
2711.93
2711.93
2711.93
1426.2
1285.73
1426.2
1426.2
1426.2
-13985
15411.2
-12661.6
-11732.7
-10696.6
-9732.74
-8723.42
-7744.14
-6751.4
-5769.29
-4784.51
-3800.79
-2815.49
-1827.34
-836.08
-17063.5
17211.3
-16082.7
-15119.3
-14208.7
-13320.1
-12458
-11696.3
-11696.3
-11696.3
-9395.53
-2300.76
-9395.53
-9395.53
-7985.59
-1409.93
-7985.59
-7985.59
-7174.38
-811.211
-7174.38
-7174.38
-6616.78
-557.605
-6616.78
-6616.78
-6616.78
-6212.59
-404.19
-6212.59
-6212.59
-5728.3
-484.282
-92.2677
-249.677
-104.07
-468.874
-122.47
-639.59
-147.654
-823.18
-180.041
-1025.47
-220.214
-1256.91
-269.435
-1526.44
-329.767
-1844.95
-403.672
-2222.31
-495.436
-2677.54
-608.089
-3238.89
-738.863
-3920.95
-859.248
-4768.47
-846.129
-5849.41
-424.265
-7059.73
629.231
-6809.45
1347.68
2391.55
1039.97
8780
10429.3
-150.573
-241.913
-169.228
-450.219
-198.57
-610.248
-238.316
-783.434
-289.231
-974.553
-352.177
-1193.97
-428.973
-1449.65
-522.534
-1751.39
-636.046
-2108.8
-778.441
-2535.14
-959.061
-3058.27
-1179.6
-3700.41
-1400.6
-4547.48
-1409.15
-5840.86
-777.351
-7691.52
603.701
-8190.51
1621.16
1374.09
1038.93
9362.23
11064.1
-193.227
-232.526
-215.812
-427.634
-252.2
-573.86
-301.292
-734.342
-364.187
-911.657
-442.124
-1116.03
-537.261
-1354.51
-653.013
-1635.64
-793.441
-1968.37
-969.686
-2358.9
-1200.59
-2827.37
-1505.62
-3395.37
-1855.58
-4197.52
-2023.86
-5672.58
-1651.52
-8063.86
-731.795
-9110.23
937.672
-295.376
1079.42
9220.48
11585.9
-235.457
-219.692
-264.385
-398.705
-309.623
-528.623
-369.913
-674.051
-446.718
-834.852
-541.913
-1020.84
-658.25
-1238.17
-800.006
-1493.88
-973.207
-1795.17
-1189.43
-2142.67
-1480.58
-2536.22
-1906.56
-2969.39
-2494.9
-3609.18
-3135.56
-5031.92
-3716.86
-7482.56
-3765.78
-9061.31
-965.991
-3095.16
829.211
7425.28
11603.9
-276.603
-202.329
-313.259
-362.049
-368.369
-473.512
-440.836
-601.585
-532.506
-743.182
-645.92
-907.422
-784.487
-1099.61
-953.147
-1325.22
-1159.15
-1589.16
-1415.66
-1886.16
-1772.16
-2179.72
-2353.93
-2387.62
-3330.27
-2632.85
-4879.08
-3483.11
-7133.81
-5227.84
-8583.47
-7611.65
-5003.15
-6675.48
-152.091
2574.22
10041.9
-317.893
-179.049
-364.028
-315.914
-430.387
-407.153
-516.525
-515.447
-624.618
-635.088
-757.791
-774.25
-920.221
-937.178
-1117.47
-1127.97
-1356.7
-1349.93
-1654.14
-1588.72
-2080.6
-1753.26
-2844.86
-1623.36
-4315.31
-1162.39
-6963.58
-834.841
-10971.9
-1219.48
-14229.6
-4353.96
-12258.8
-8646.36
-4000.03
-5684.5
3741.08
-361.274
-148.399
-418.765
-258.423
-497.93
-327.988
-599.598
-413.779
-726.145
-508.542
-881.23
-619.164
-1069.77
-748.638
-1298.11
-899.632
-1574.21
-1073.83
-1916.96
-1245.97
-2407.24
-1262.98
-3277.7
-752.895
-4881.83
441.731
-7638.95
1922.28
-11483.9
2625.43
-14171.5
-1666.34
-14937.7
-7880.15
-15177.2
-5445.02
5775.2
-408.341
-108.772
-479.408
-187.356
-573.22
-234.177
-692.546
-294.453
-840.027
-361.061
-1019.96
-439.23
-1237.68
-530.916
-1500.47
-636.844
-1818.64
-755.658
-2206.63
-857.983
-2672.44
-797.168
-3188.62
-236.72
-3773.85
1026.96
-4526.64
2675.07
-4916.29
3015.07
-4280.91
-2301.72
-6679.07
-5481.99
-12933.7
809.626
8252.67
-459.28
-58.8002
-546.112
-100.524
-656.304
-123.984
-795.168
-155.589
-965.81
-190.418
-1173.37
-231.673
-1423.5
-280.786
-1724.03
-336.312
-2084.63
-395.061
-2505.77
-436.839
-2927.27
-375.672
-3148.08
-15.9093
-2925.37
804.251
-2177.97
1927.68
-1075.62
1912.72
-1641.24
-1736.09
-4558.02
-2565.22
-6603.24
2854.85
2935.16
-506.181
0.930004
-607.804
1.09878
-732.891
1.10224
-889.403
0.923367
-1080.8
0.980655
-1313.6
1.123
-1595.22
0.839738
-1932.91
1.37156
-2330.91
2.94545
-2771.95
4.20152
-3151.16
3.53729
-3168.8
1.72321
-2368.66
4.11339
-456.419
15.4351
1397.98
58.3218
-523.056
184.944
-3173.72
85.4453
-349.149
30.2794
-54.7789
-505.465
60.4258
-606.693
102.327
-731.19
125.599
-886.832
156.565
-1076.93
191.083
-1308.64
232.825
-1590.62
282.822
-1929.15
339.9
-2326.43
400.233
-2765.44
443.203
-3144.03
382.132
-3164.56
22.253
-2363.85
-796.593
-434.898
-1913.52
1445.37
-1821.95
-295.506
1925.82
-3040.96
2830.89
-214.722
-2795.95
-2958.42
-459.101
110.235
-545.846
189.072
-655.992
235.745
-794.853
295.427
-965.213
361.442
-1172.2
439.811
-1422.28
532.905
-1722.44
640.056
-2080.9
758.694
-2498.8
861.101
-2918.02
801.361
-3140.63
244.863
-2917.67
-1019.56
-2151.88
-2679.32
-944.121
-3029.7
-1400.04
2381.75
-4264.23
5695.09
-6391.65
-668.54
-8153.55
-409.04
149.852
-480.289
260.321
-574.302
329.758
-693.882
415.007
-841.666
509.225
-1021.6
619.746
-1238.51
749.816
-1499.71
901.254
-1816.33
1075.31
-2203.81
1248.58
-2669.48
1267.03
-3184.76
760.15
-3767.13
-437.194
-4511.7
-1934.74
-4864.38
-2677.02
-4102.59
1619.95
-6357.94
7950.44
-12713.6
5687.08
-5458.03
-362.281
180.573
-419.937
317.977
-499.138
408.958
-600.809
516.678
-727.462
635.878
-882.538
774.822
-1070.38
937.656
-1297.41
1128.28
-1572.75
1350.66
-1916.47
1592.29
-2407.98
1758.54
-3276.98
1629.15
-4874.67
1160.5
-7619.85
810.443
-11450.6
1153.74
-14105.4
4274.72
-14854.2
8699.24
-15167
5999.9
-3475.95
-318.848
203.968
-365.103
364.232
-431.432
475.287
-517.56
602.806
-625.654
743.972
-758.682
907.85
-920.688
1099.66
-1117.43
1325.02
-1356.65
1589.89
-1655.73
1891.38
-2084.33
2187.13
-2849.17
2393.99
-4319.42
2630.74
-6970.1
3461.13
-10991.4
5174.99
-14282.5
7565.82
-12390
6806.8
-4109.4
-2280.71
-9835.45
-277.344
221.434
-314.102
400.99
-369.255
530.441
-441.813
675.364
-533.489
835.648
-646.779
1021.14
-785.338
1238.22
-954.253
1493.93
-1160.59
1796.23
-1419.2
2149.99
-1778.6
2546.53
-2361.92
2977.31
-3340.09
3608.91
-4895.63
5016.67
-7172.21
7451.58
-8665.47
9059.08
-5152.96
3294.28
-215.818
-7217.85
-11470.7
-236.121
234.316
-265.138
430.007
-310.531
575.834
-370.921
735.754
-447.671
912.397
-542.863
1116.33
-659.635
1354.99
-802.355
1636.65
-977.33
1971.2
-1196.36
2369.02
-1489.3
2839.47
-1916.25
3404.26
-2506.64
4199.3
-3154.62
5664.65
-3756.65
8053.61
-3832.9
9135.33
-1052.49
513.87
805.085
-9075.42
-11476.3
-193.992
243.754
-216.704
452.72
-253.305
612.435
-302.405
784.854
-365.109
975.101
-443.147
1194.37
-539.057
1450.9
-656.484
1754.08
-800.672
2115.39
-980.058
2548.41
-1210.54
3069.95
-1515.2
3708.91
-1866.4
4550.5
-2040.71
5838.96
-1684.82
7697.72
-798.696
8249.21
880.199
-1165.03
1075.41
-9270.63
-10960.3
-151.69
251.648
-170.57
471.599
-200.027
641.893
-239.567
824.394
-290.17
1025.7
-353.271
1257.47
-430.906
1528.54
-526.095
1849.27
-643.043
2232.34
-787.605
2692.97
-967.517
3249.87
-1187.69
3929.09
-1409.08
4771.89
-1421.83
5851.71
-800.027
7075.92
564.7
6884.48
1609.31
-2209.63
1042.15
-8703.48
-10320.9
-93.3049
-105.398
-123.843
-148.745
-180.85
-221.073
-270.768
-331.913
-407.141
-499.739
-612.591
-743.476
-863.918
-852.862
-435.094
606.696
1344.72
1043.21
150.284
-910.414
276.695
-989.155
371.766
-985.758
407.631
-947.421
405.126
-960.224
374.665
-949.127
348.614
-958.835
313.998
-958.629
284.767
-960.236
259.798
-960.301
237.174
-960.422
216.421
-963.275
194.14
-959.119
173.069
-971.297
144.851
-950.901
122.666
-987.071
90.8826
-932.003
80.428
-1026.1
5.00601
-850.873
-1318.82
39.0719
-949.484
27.9063
-977.988
32.1642
-990.014
34.0219
-949.277
49.3057
-975.506
57.1717
-956.991
65.2694
-966.931
67.5035
-960.862
69.7027
-962.434
71.7285
-962.325
73.2838
-961.976
74.3006
-964.29
74.55
-959.367
75.1556
-971.901
73.8634
-949.608
75.3142
-988.521
73.7838
-930.472
78.1433
-1030.46
44.8396
-817.569
-1273.98
47.2171
-996.7
38.1811
-968.95
36.3809
-988.212
28.3005
-941.194
25.1588
-972.363
19.9999
-951.83
17.0353
-963.964
15.2887
-959.113
14.4189
-961.562
13.4302
-961.334
12.7393
-961.283
12.0413
-963.59
11.8146
-959.138
11.2419
-971.327
11.4044
-949.769
10.8889
-988.005
11.2247
-930.806
8.21358
-1027.45
22.4989
-831.853
-1251.48
41.0137
-1037.71
30.4937
-958.429
34.5926
-992.309
36.713
-943.314
39.7437
-975.392
41.8519
-953.937
43.8721
-965.983
44.767
-960.007
45.0824
-961.877
45.1407
-961.391
44.9776
-961.119
44.2876
-962.899
43.7019
-958.552
41.5964
-969.221
41.0178
-949.19
36.5562
-983.542
36.6142
-930.864
26.5267
-1017.36
29.4012
-834.727
-1222.08
32.7762
-1070.49
34.0089
-959.66
37.0292
-995.328
38.0213
-944.304
39.4504
-976.82
40.335
-954.82
40.6661
-966.313
41.1286
-960.468
41.3318
-962.078
41.3086
-961.366
41.0836
-960.893
40.4123
-962.227
39.8047
-957.943
37.9741
-967.389
37.489
-948.704
34.1443
-980.197
35.0093
-931.728
28.1724
-1010.53
30.4777
-837.032
-1191.61
29.0415
-1099.53
43.5282
-974.146
46.5496
-998.349
46.8045
-944.559
46.0167
-976.032
46.1419
-954.945
45.2589
-965.43
44.7333
-959.942
43.8049
-961.15
42.8674
-960.429
41.8419
-959.867
40.4972
-960.882
39.4955
-956.941
37.3986
-965.292
36.9575
-948.262
33.4033
-976.642
34.3462
-932.671
27.3596
-1003.54
32.7083
-842.381
-1158.9
28.7023
-1128.23
60.3509
-1005.79
66.4526
-1004.45
66.4845
-944.59
63.426
-972.973
62.7197
-954.238
60.1952
-962.905
58.5449
-958.291
56.3213
-958.926
54.1919
-958.299
52.027
-957.702
49.5912
-958.446
47.7774
-955.127
44.8455
-962.359
44.2133
-947.63
39.8013
-972.23
41.2834
-934.153
33.7828
-996.038
41.9377
-850.535
-1116.96
32.1768
-1160.41
86.1667
-1059.79
99.5371
-1017.82
98.362
-943.416
91.4825
-966.094
88.3578
-951.115
83.2096
-957.757
79.2984
-954.381
74.873
-954.501
70.6692
-954.096
66.6141
-953.647
62.3884
-954.221
59.0533
-951.793
54.5892
-957.896
52.9893
-946.03
47.1639
-966.405
48.2381
-935.227
39.6001
-987.4
50.3845
-861.32
-1066.57
41.3261
-1201.73
123.776
-1142.23
150.629
-1044.67
148.568
-941.354
136.773
-954.299
129.757
-944.098
121.028
-949.028
113.73
-947.082
106.09
-946.861
98.7343
-946.739
91.7021
-946.615
84.6113
-947.129
78.603
-945.784
71.3688
-950.661
67.5449
-942.206
59.1109
-957.971
58.7323
-934.849
47.7215
-976.389
60.1717
-873.77
-1006.4
60.9453
-1262.68
173.278
-1254.57
216.309
-1087.71
213.316
-938.362
197.064
-938.047
185.443
-932.477
173.06
-936.646
161.868
-935.89
150.438
-935.431
139.152
-935.453
128.17
-935.634
117.106
-936.066
107.099
-935.777
95.7365
-939.299
88.0096
-934.48
75.5438
-945.505
71.7505
-931.056
57.0305
-961.67
68.9004
-885.64
-937.503
97.001
-1359.68
222.738
-1380.3
272.295
-1137.26
268.351
-934.418
254.039
-923.735
241.851
-920.289
229.366
-924.161
216.906
-923.43
203.598
-922.124
189.689
-921.544
175.472
-921.417
160.678
-921.272
146.375
-921.475
130.401
-923.325
117.479
-921.559
99.8052
-927.832
89.9942
-921.245
69.5406
-941.216
75.8438
-891.944
-861.659
141.698
-1501.38
232.396
-1471
267.322
-1172.19
269.849
-936.947
274.481
-928.368
274.208
-920.018
271.26
-921.215
265.22
-917.392
256.039
-912.945
244.205
-909.712
230.286
-907.499
214.396
-905.383
197.499
-904.579
178.108
-903.936
159.88
-903.331
136.784
-904.737
118.445
-902.906
89.9651
-912.737
81.5168
-883.496
-780.142
150.852
-1652.23
152.741
-1472.89
175.712
-1195.16
211.952
-973.188
255.746
-972.163
283.883
-948.156
302.65
-939.982
312.824
-927.566
315.375
-915.497
311.48
-905.818
302.22
-898.24
288.372
-891.536
270.826
-887.033
249.118
-882.228
225.297
-879.511
195.957
-875.398
166.129
-873.079
126.075
-872.684
91.1395
-848.561
-689.003
74.2367
-1726.47
30.4879
-1429.14
90.639
-1255.32
185.907
-1068.46
269.75
-1056.01
332.137
-1010.54
376.807
-984.653
406.849
-957.609
423.916
-932.566
429.787
-911.69
426.027
-894.481
414.008
-879.518
394.523
-867.549
368.07
-855.776
335.149
-846.591
294.66
-834.91
247.317
-825.736
187.629
-812.997
115.373
-776.306
-573.629
-26.2302
-1700.24
18.3382
-1473.71
141.92
-1378.9
281.996
-1208.53
392.114
-1166.13
479.838
-1098.27
544.783
-1049.6
590.365
-1003.19
618.559
-960.761
631.038
-924.171
629.293
-892.736
614.785
-865.012
588.072
-840.836
550.155
-817.86
500.507
-796.944
439.219
-773.622
364.518
-751.037
272.768
-721.248
157.462
-661.001
-416.167
4.46355
-1704.71
132.62
-1601.87
290.629
-1536.91
438.194
-1356.1
568.969
-1296.9
674.169
-1203.47
758.046
-1133.48
819.837
-1064.98
861.64
-1002.56
883.752
-946.283
886.5
-895.485
870.444
-848.957
835.448
-805.841
782.183
-764.596
709.5
-724.262
617.931
-682.054
505.427
-638.532
369.331
-585.153
203.83
-495.499
-212.337
110.093
-1814.8
175.348
-1667.13
300.096
-1661.66
415.589
-1471.59
538.289
-1419.6
643.227
-1308.41
741.474
-1231.72
825.286
-1148.8
896.118
-1073.4
950.895
-1001.06
987.489
-932.079
1003.87
-865.335
997.729
-799.704
967.361
-734.228
910.017
-666.918
825.431
-597.468
711.318
-524.42
555.876
-429.711
318.575
-258.2
106.238
9.1286
-1823.93
-84.2688
-1573.73
-118.527
-1627.4
-115.839
-1474.28
-103.427
-1432.01
-72.2611
-1339.57
-29.4636
-1274.52
23.3632
-1201.62
84.1256
-1134.16
149.612
-1066.55
217.179
-999.646
283.958
-932.115
347.117
-862.863
403.768
-790.879
452.182
-715.332
493.775
-639.061
526.261
-556.906
500.216
-403.666
274.122
-32.106
380.36
-161.311
-1662.62
-348.744
-1386.3
-570.327
-1405.81
-731.621
-1312.99
-891.421
-1272.21
-1012.2
-1218.79
-1111.16
-1175.56
-1181.39
-1131.4
-1226.06
-1089.49
-1245.34
-1047.27
-1240.32
-1004.66
-1211.98
-960.453
-1161.17
-913.675
-1088.73
-863.325
-994.409
-809.65
-877.378
-756.092
-734.978
-699.306
-560.926
-577.718
-328.521
-264.511
51.8386
-687.617
-1098.92
-1529.73
-1867.72
-2164.93
-2408.73
-2609.29
-2765.69
-2880.17
-2952.45
-2982.11
-2967.56
-2906.24
-2794.56
-2629.21
-2410.3
-2134.61
-1737.33
-1026.84
-687.401
1662.4
-1098.63
1386.23
-1529.38
1405.75
-1867.39
1313
-2164.66
1272.27
-2408.56
1218.9
-2609.28
1175.72
-2765.87
1131.59
-2880.56
1089.69
-2953.06
1047.49
-2982.94
1004.88
-2968.61
960.666
-2907.47
913.862
-2795.93
863.463
-2630.64
809.703
-2411.63
755.996
-2135.6
698.969
-1737.76
577.159
-1026.93
264.169
-51.9285
-161.544
1823.94
-348.944
1573.63
-570.596
1627.4
-732.049
1474.45
-892.033
1432.25
-1013
1339.87
-1112.23
1274.95
-1182.74
1202.09
-1227.7
1134.66
-1247.26
1067.05
-1242.52
1000.14
-1214.43
932.573
-1163.83
863.261
-1091.56
791.19
-997.36
715.507
-880.376
639.011
-737.835
556.428
-563.326
402.649
-329.695
30.5363
-381.623
8.43032
1815.51
-85.379
1667.44
-120.33
1662.35
-118.262
1472.39
-106.417
1420.41
-75.7246
1309.18
-33.3885
1232.61
19.089
1149.61
79.5922
1074.16
144.879
1001.77
212.287
932.729
278.955
865.905
342.06
800.154
398.726
734.524
447.241
666.991
489.014
597.237
521.719
523.722
495.911
428.457
271.476
254.97
-110.147
109.914
1705.6
174.526
1602.82
298.555
1538.32
413.664
1357.28
536.168
1297.9
640.803
1204.54
738.798
1134.62
822.541
1065.87
893.516
1003.18
948.539
946.742
985.407
895.86
1002.06
849.251
996.189
806.026
966.065
764.647
908.914
724.141
824.487
681.664
710.44
637.769
554.812
584.085
317.296
492.484
207.149
5.24583
1700.35
133.574
1474.49
291.044
1380.85
437.886
1210.43
568.921
1166.87
674.439
1099.02
758.559
1050.49
820.576
1003.85
862.665
961.091
885.093
924.313
888.148
892.804
872.361
865.038
837.574
840.812
784.442
817.779
711.767
796.815
620.083
773.347
507.223
750.628
370.517
720.79
203.926
659.075
411.075
-25.4765
1725.83
20.2808
1428.74
144.419
1256.71
284.291
1070.56
394.81
1056.35
482.775
1011.06
547.936
985.334
593.608
958.179
621.809
932.89
634.276
911.846
632.528
894.552
618.014
879.552
591.259
867.567
553.263
855.775
503.473
846.604
441.973
834.848
366.823
825.777
274.429
813.184
158.169
775.334
569.244
73.9988
1651.83
31.4372
1471.3
93.0343
1195.12
189.732
973.862
273.66
972.421
335.968
948.749
380.624
940.679
410.541
928.261
427.363
916.068
432.957
906.251
428.958
898.55
416.741
891.769
397.055
887.252
370.402
882.428
337.289
879.717
296.592
875.544
248.89
873.479
188.752
873.322
116.297
847.789
685.541
150.643
1501.19
153.405
1468.54
177.467
1171.05
214.063
937.266
257.563
928.922
285.689
920.624
304.502
921.866
314.641
918.123
317.033
913.676
312.918
910.365
303.462
908.006
289.457
905.774
271.77
904.94
249.94
904.258
226.021
903.636
196.56
905.005
166.557
903.482
126.362
913.517
91.9185
882.232
777.46
141.649
1359.54
232.527
1377.66
267.74
1135.84
270.435
934.57
274.964
924.392
274.723
920.863
271.785
924.803
265.724
924.182
256.465
922.935
244.505
922.324
230.449
922.061
214.44
921.783
197.466
921.913
178.052
923.671
159.82
921.868
136.679
928.145
118.337
921.824
89.9806
941.873
82.1017
890.111
859.562
97.0478
1262.49
222.592
1252.11
271.91
1086.52
268.023
938.456
253.818
938.598
241.74
932.941
229.297
937.246
216.871
936.608
203.606
936.201
189.724
936.206
175.472
936.313
160.61
936.645
146.281
936.242
130.342
939.61
117.471
934.739
99.8299
945.786
90.1368
931.517
69.9288
962.081
76.2979
883.742
935.859
60.8698
1201.62
172.939
1140.05
215.611
1043.85
212.689
941.378
196.639
954.647
185.181
944.399
172.907
949.52
161.809
947.706
150.517
947.493
139.405
947.318
128.528
947.19
117.493
947.68
107.509
946.225
96.1935
950.926
88.5104
942.422
76.1086
958.188
72.4553
935.17
57.9366
976.6
69.3343
872.344
1005.19
40.9889
1160.63
123.318
1057.72
149.865
1017.3
147.918
943.327
136.288
966.278
129.413
951.276
120.807
958.127
113.644
954.87
106.207
954.931
99.1291
954.398
92.3415
953.979
85.4237
954.599
79.5275
952.122
72.3502
958.104
68.5395
946.233
60.1115
966.616
59.811
935.471
48.8843
987.527
60.6593
860.57
1065.85
31.6355
1128.99
85.5552
1003.8
98.6048
1004.25
97.537
944.395
90.707
973.108
87.6659
954.317
82.5979
963.196
78.8409
958.627
74.6343
959.138
70.7164
958.316
66.9667
957.729
63.0367
958.529
59.9321
955.227
55.5845
962.452
54.0395
947.778
48.1725
972.483
49.3155
934.328
40.6827
996.16
50.8597
850.393
1116.71
28.2094
1100.79
59.4428
972.566
65.1611
998.537
65.2816
944.276
62.1934
976.198
61.539
954.973
59.0401
965.696
57.5082
960.16
55.414
961.233
53.4342
960.297
51.4822
959.682
49.3378
960.675
47.8196
956.746
45.0974
965.175
44.6614
948.215
40.3088
976.837
41.9888
932.649
34.5829
1003.57
42.3832
842.593
1159.1
28.8193
1071.97
42.3308
959.055
45.0583
995.81
45.4207
943.914
44.6146
977.005
44.7897
954.799
43.9293
966.557
43.4798
960.611
42.5752
962.139
41.6191
961.254
40.6196
960.682
39.4045
961.891
38.6129
957.539
36.7416
967.047
36.5848
948.373
33.2764
980.146
34.6078
931.318
27.9753
1010.2
33.038
837.531
1192.13
32.8038
1039.17
32.7219
959.138
35.7422
992.791
36.8729
942.785
38.3534
975.525
39.2917
953.862
39.7146
966.135
40.2519
960.075
40.4477
961.944
40.3371
961.365
40.0074
961.012
39.2838
962.615
38.7174
958.105
37.0424
968.722
36.7991
948.616
33.8015
983.144
35.0753
930.044
28.8019
1016.47
30.5348
835.798
1222.67
41.0424
998.123
29.5293
970.652
33.8841
988.437
36.1747
940.495
39.3377
972.363
41.4857
951.714
43.6905
963.93
44.6977
959.068
45.0477
961.594
45.0174
961.396
44.7196
961.311
43.8952
963.44
43.1901
958.811
41.0993
970.814
40.5986
949.118
36.4283
987.315
36.764
929.709
27.2382
1026
29.1644
833.872
1251.83
46.9875
951.136
37.5956
980.044
36.1299
989.903
28.2889
948.336
25.4758
975.176
20.5464
956.644
17.5883
966.889
15.7505
960.906
14.8333
962.512
13.8924
962.337
13.2363
961.967
12.5556
964.121
12.295
959.072
11.6898
971.419
11.7288
949.079
11.3063
987.737
11.602
929.414
8.8755
1028.73
22.3742
820.374
1274.21
38.4551
912.681
26.7886
991.711
31.4324
985.259
34.0427
945.726
50.2058
959.013
58.5357
948.314
67.6866
957.738
71.0284
957.564
73.9581
959.582
76.144
960.151
77.5908
960.52
78.3326
963.379
78.1098
959.295
78.1917
971.337
76.3474
950.923
77.1757
986.909
74.8321
931.757
78.4322
1025.13
44.7102
854.096
1318.92
151.015
280.527
377.195
412.352
407.954
375.526
349.358
315.659
287.091
261.942
238.748
217.341
194.532
173.132
144.771
122.364
90.2625
79.2728
4.52531
)
;

boundaryField
{
    outletWall
    {
        type            calculated;
        value           nonuniform List<scalar> 
60
(
-5728.3
-9873.64
-8472.29
-3110
5755.96
6637.86
5836.29
4888.86
4051.72
3351.54
2769.3
2296.21
1905.28
1575.66
1297.09
1057.85
848.364
657.991
480.676
254.535
88.2793
143.796
184.555
223.238
259.878
295.453
331.56
369.423
409.291
445.97
446.451
409.308
368.714
330.625
294.612
259.24
222.622
183.841
142.809
87.4094
-5710.71
-9761.49
-8401.96
-2947.66
5842.69
6658.15
5840.65
4892.34
4059.97
3362.72
2785.57
2307.57
1910.42
1578.23
1297.7
1057.81
849.296
660.339
483.691
256.673
)
;
    }
    fineWalls
    {
        type            calculated;
        value           uniform 0;
    }
    fineFrontAndBack
    {
        type            calculated;
        value           nonuniform List<scalar> 
960
(
7.22112e-16
1.19922e-14
-1.13076e-14
-6.00348e-15
-5.29547e-13
2.75224e-13
2.28998e-14
-5.42593e-13
2.70395e-14
3.03645e-12
4.15468e-12
1.14159e-11
1.80648e-12
4.07862e-12
2.71802e-11
5.44735e-12
5.482e-12
3.4977e-11
5.59602e-12
-2.94654e-13
3.28644e-12
-6.09631e-12
-1.13802e-11
-1.25439e-11
-1.07548e-11
-1.26498e-11
-2.25552e-10
-2.10599e-11
-2.09527e-11
-2.07474e-11
-2.04084e-11
-1.9752e-11
-1.90276e-11
-1.83145e-11
-1.75703e-11
-1.71369e-11
-1.6926e-11
-1.67207e-11
-1.77171e-11
-1.11309e-11
-1.59638e-10
1.17833e-12
3.77869e-13
-2.55809e-12
-1.8972e-11
5.99795e-12
1.07142e-11
1.10669e-11
-2.96356e-11
-2.54457e-12
-2.56038e-12
-1.90286e-10
-1.06e-11
-1.71e-12
4.58044e-14
2.67023e-12
1.32168e-12
2.23836e-12
1.3975e-12
1.65807e-10
1.13153e-11
1.76496e-11
1.63752e-11
1.67163e-11
1.70091e-11
1.74011e-11
1.81252e-11
1.90531e-11
1.99064e-11
2.04879e-11
2.0645e-11
2.07442e-11
2.0982e-11
2.1798e-10
1.22551e-11
1.08265e-11
1.25161e-11
1.14262e-11
6.45218e-12
-2.21091e-12
1.33739e-11
1.01091e-11
5.94513e-11
9.21015e-12
8.77054e-12
5.0263e-11
1.02283e-11
9.5143e-12
4.8833e-11
7.44377e-12
2.18029e-12
-1.30716e-11
-3.05898e-13
3.17748e-13
2.87502e-13
1.06738e-12
3.06613e-13
3.2599e-13
6.57894e-13
-6.65426e-14
-3.51092e-11
-2.97189e-11
-1.45912e-11
5.10293e-14
-2.47426e-12
-1.94355e-11
-1.3581e-11
1.72854e-11
2.78486e-11
2.03257e-11
4.98734e-12
8.20474e-12
1.08387e-11
-1.00131e-11
-9.99207e-12
-2.26523e-12
-2.59381e-13
-1.13421e-12
-5.95874e-13
-5.61542e-11
-4.42036e-11
9.55465e-12
1.0023e-10
1.50502e-10
8.7729e-11
1.0428e-11
6.67402e-11
1.84254e-10
2.27973e-10
1.95303e-10
1.50459e-10
1.3231e-10
7.03222e-11
2.50815e-12
-1.59399e-11
-2.43687e-12
-1.44788e-12
3.83849e-13
-7.96955e-11
-5.65554e-11
8.65641e-11
3.64229e-10
5.55065e-10
3.78263e-10
6.15519e-11
1.50619e-10
5.45379e-10
7.40982e-10
6.74864e-10
4.96414e-10
4.20412e-10
2.62424e-10
2.44716e-11
-3.79696e-11
-1.40221e-13
-8.40813e-13
1.55285e-12
-1.31321e-10
-1.24727e-10
1.45322e-10
7.40604e-10
1.17957e-09
7.90707e-10
4.27936e-11
1.86675e-10
1.06136e-09
1.53968e-09
1.4285e-09
1.0599e-09
9.03298e-10
5.30129e-10
2.26641e-11
-5.98254e-11
9.70181e-13
-6.52134e-14
-3.66861e-12
-2.58113e-10
-4.56328e-10
-2.87105e-10
4.64012e-10
1.18687e-09
7.54921e-10
-3.57896e-10
-3.36002e-10
8.03515e-10
1.5759e-09
1.6301e-09
1.39714e-09
1.31185e-09
6.79781e-10
-2.68204e-11
-7.20635e-11
-7.60731e-12
-1.89244e-11
-2.07411e-11
-5.63968e-10
-1.67781e-09
-2.70976e-09
-2.76891e-09
-1.59355e-09
-8.59784e-10
-1.81123e-09
-3.06511e-09
-3.01832e-09
-2.03382e-09
-8.68647e-10
3.04605e-10
1.03869e-09
5.41165e-10
-8.44268e-11
-7.83548e-11
-3.59117e-11
-2.5632e-11
7.37125e-12
-1.28438e-09
-5.17924e-09
-9.99457e-09
-1.24787e-08
-9.4945e-09
-4.8205e-09
-5.60153e-09
-1.13732e-08
-1.48601e-08
-1.32366e-08
-8.95569e-09
-3.95614e-09
-3.91394e-10
3.21047e-10
-6.96271e-11
-1.20728e-10
-1.41951e-10
-9.65402e-11
5.19136e-11
-2.88489e-09
-1.28109e-08
-2.44766e-08
-2.94467e-08
-2.11136e-08
-1.02755e-08
-1.38661e-08
-2.87771e-08
-3.70483e-08
-3.32364e-08
-2.41011e-08
-1.30536e-08
-3.02498e-09
3.73005e-10
5.93745e-11
-1.98697e-10
2.65354e-11
-2.0205e-10
1.91234e-10
-5.70929e-09
-2.36996e-08
-4.11457e-08
-4.42588e-08
-2.81805e-08
-1.53685e-08
-2.7833e-08
-5.25768e-08
-6.24918e-08
-5.52211e-08
-4.32017e-08
-2.84683e-08
-1.15553e-08
-1.68548e-09
3.79941e-11
7.95682e-10
2.07284e-09
-6.81949e-10
1.58971e-10
-7.23105e-09
-2.48414e-08
-3.68183e-08
-3.35972e-08
-1.96677e-08
-1.8291e-08
-3.96877e-08
-6.37005e-08
-6.91285e-08
-6.11367e-08
-5.23055e-08
-3.91844e-08
-1.62653e-08
2.45319e-09
5.90414e-09
7.05793e-09
4.0319e-09
-1.39386e-09
-5.4708e-10
7.25303e-09
2.49466e-08
3.72093e-08
3.29422e-08
1.18047e-08
-8.84525e-09
-1.76189e-08
-2.05057e-08
-2.20424e-08
-1.9345e-08
-1.42253e-08
-8.76041e-09
-2.71339e-09
5.65155e-10
6.60699e-10
1.05985e-09
1.35516e-09
-5.01746e-10
-1.9474e-10
5.80104e-09
2.40357e-08
4.1735e-08
4.42753e-08
2.4227e-08
-6.73566e-11
-7.9199e-09
-4.41173e-09
-3.2496e-09
-3.30868e-09
-1.6131e-09
-2.92623e-10
4.51078e-10
1.35842e-10
-2.56488e-10
-1.36643e-10
1.16314e-10
-9.79304e-11
-1.05005e-10
2.96795e-09
1.31191e-08
2.49474e-08
2.96201e-08
1.94976e-08
3.45031e-09
-2.94681e-09
2.07818e-10
2.23339e-09
1.7252e-09
1.65084e-09
1.23131e-09
6.33715e-10
1.37592e-10
-1.97934e-11
-1.4412e-11
-6.09363e-11
-5.85757e-11
-1.57016e-10
1.31098e-09
5.31626e-09
1.01992e-08
1.25374e-08
8.83891e-09
2.22995e-09
-6.0995e-10
9.77641e-10
2.35972e-09
2.21005e-09
1.73132e-09
1.05663e-09
4.54547e-10
7.31741e-11
-3.56136e-12
5.10005e-11
7.36157e-11
8.06296e-11
-5.78173e-11
5.52626e-10
1.69643e-09
2.74038e-09
2.72913e-09
1.2904e-09
-4.64023e-11
4.3169e-11
8.06776e-10
1.25852e-09
1.35034e-09
1.01955e-09
6.02488e-10
2.85725e-10
6.37916e-11
4.65335e-12
4.15862e-11
6.55639e-11
4.69578e-11
1.22562e-12
2.32208e-10
4.27893e-10
2.50873e-10
-5.3449e-10
-1.3471e-09
-1.06721e-09
1.63758e-11
4.91471e-10
4.46732e-10
5.49672e-10
4.07593e-10
2.42332e-10
1.24092e-10
3.54928e-11
5.68702e-12
2.21569e-11
2.58974e-11
-5.3198e-12
-1.03092e-11
1.04184e-10
8.81983e-11
-1.91128e-10
-8.03216e-10
-1.27021e-09
-9.04704e-10
-5.6516e-11
2.30359e-10
9.67333e-11
1.38901e-10
9.44615e-11
5.72824e-11
2.69686e-11
3.57958e-12
2.29995e-12
1.0751e-11
1.03445e-11
-3.57019e-13
-3.02585e-13
5.57998e-11
2.49988e-11
-1.2367e-10
-4.08829e-10
-6.07298e-10
-4.26237e-10
-4.25467e-11
7.62335e-11
5.58517e-13
4.33419e-12
-6.80715e-12
-4.18319e-12
-7.26895e-12
-1.12438e-11
-1.40782e-12
5.36402e-12
4.46903e-12
-1.00734e-12
-1.49389e-13
3.61078e-11
1.9231e-11
-3.68932e-11
-1.30435e-10
-1.81942e-10
-1.13188e-10
-5.96336e-12
1.20349e-11
-1.04464e-11
-1.62982e-11
-1.88829e-11
-1.20603e-11
-1.03219e-11
-1.09861e-11
-2.64809e-12
2.54433e-12
1.4713e-12
-9.12246e-13
-1.55389e-13
1.95863e-11
1.15722e-11
-2.85022e-12
-1.72432e-11
-1.36095e-11
6.89078e-12
1.03578e-11
-4.46585e-12
-4.64908e-12
-8.07328e-12
-8.29351e-12
-5.47112e-12
-4.57055e-12
-4.60725e-12
-1.43888e-12
7.85546e-13
-3.52016e-14
-7.78086e-13
-2.33974e-13
-7.22112e-16
-1.19922e-14
1.13076e-14
6.00348e-15
5.29547e-13
-2.75224e-13
-2.28998e-14
5.42593e-13
-2.70395e-14
-3.03645e-12
-4.15468e-12
-1.14159e-11
-1.80648e-12
-4.07862e-12
-2.71802e-11
-5.44735e-12
-5.482e-12
-3.4977e-11
-5.59602e-12
2.94654e-13
-3.28644e-12
6.09631e-12
1.13802e-11
1.25439e-11
1.07548e-11
1.26498e-11
2.25552e-10
2.10599e-11
2.09527e-11
2.07474e-11
2.04084e-11
1.9752e-11
1.90276e-11
1.83145e-11
1.75703e-11
1.71369e-11
1.6926e-11
1.67207e-11
1.77171e-11
1.11309e-11
1.59638e-10
-1.17833e-12
-3.77869e-13
2.55809e-12
1.8972e-11
-5.99795e-12
-1.07142e-11
-1.10669e-11
2.96356e-11
2.54457e-12
2.56038e-12
1.90286e-10
1.06e-11
1.71e-12
-4.58044e-14
-2.67023e-12
-1.32168e-12
-2.23836e-12
-1.3975e-12
-1.65807e-10
-1.13153e-11
-1.76496e-11
-1.63752e-11
-1.67163e-11
-1.70091e-11
-1.74011e-11
-1.81252e-11
-1.90531e-11
-1.99064e-11
-2.04879e-11
-2.0645e-11
-2.07442e-11
-2.0982e-11
-2.1798e-10
-1.22551e-11
-1.08265e-11
-1.25161e-11
-1.14262e-11
-6.45218e-12
2.21091e-12
-1.33739e-11
-1.01091e-11
-5.94513e-11
-9.21015e-12
-8.77054e-12
-5.0263e-11
-1.02283e-11
-9.5143e-12
-4.8833e-11
-7.44377e-12
-2.18029e-12
1.30716e-11
3.05898e-13
-3.17748e-13
-2.87502e-13
-1.06738e-12
-3.06613e-13
-3.2599e-13
-6.57894e-13
6.65426e-14
3.51092e-11
2.97189e-11
1.45912e-11
-5.10293e-14
2.47426e-12
1.94355e-11
1.3581e-11
-1.72854e-11
-2.78486e-11
-2.03257e-11
-4.98734e-12
-8.20474e-12
-1.08387e-11
1.00131e-11
9.99207e-12
2.26523e-12
2.59381e-13
1.13421e-12
5.95874e-13
5.61542e-11
4.42036e-11
-9.55465e-12
-1.0023e-10
-1.50502e-10
-8.7729e-11
-1.0428e-11
-6.67402e-11
-1.84254e-10
-2.27973e-10
-1.95303e-10
-1.50459e-10
-1.3231e-10
-7.03222e-11
-2.50815e-12
1.59399e-11
2.43687e-12
1.44788e-12
-3.83849e-13
7.96955e-11
5.65554e-11
-8.65641e-11
-3.64229e-10
-5.55065e-10
-3.78263e-10
-6.15519e-11
-1.50619e-10
-5.45379e-10
-7.40982e-10
-6.74864e-10
-4.96414e-10
-4.20412e-10
-2.62424e-10
-2.44716e-11
3.79696e-11
1.40221e-13
8.40813e-13
-1.55285e-12
1.31321e-10
1.24727e-10
-1.45322e-10
-7.40604e-10
-1.17957e-09
-7.90707e-10
-4.27936e-11
-1.86675e-10
-1.06136e-09
-1.53968e-09
-1.4285e-09
-1.0599e-09
-9.03298e-10
-5.30129e-10
-2.26641e-11
5.98254e-11
-9.70181e-13
6.52134e-14
3.66861e-12
2.58113e-10
4.56328e-10
2.87105e-10
-4.64012e-10
-1.18687e-09
-7.54921e-10
3.57896e-10
3.36002e-10
-8.03515e-10
-1.5759e-09
-1.6301e-09
-1.39714e-09
-1.31185e-09
-6.79781e-10
2.68204e-11
7.20635e-11
7.60731e-12
1.89244e-11
2.07411e-11
5.63968e-10
1.67781e-09
2.70976e-09
2.76891e-09
1.59355e-09
8.59784e-10
1.81123e-09
3.06511e-09
3.01832e-09
2.03382e-09
8.68647e-10
-3.04605e-10
-1.03869e-09
-5.41165e-10
8.44268e-11
7.83548e-11
3.59117e-11
2.5632e-11
-7.37125e-12
1.28438e-09
5.17924e-09
9.99457e-09