/*--------------------------------*- C++ -*----------------------------------*\
| =========                 |                                                 |
| \\      /  F ield         | OpenFOAM: The Open Source CFD Toolbox           |
|  \\    /   O peration     | Version:  4.1                                   |
|   \\  /    A nd           | Web:      www.OpenFOAM.org                      |
|    \\/     M anipulation  |                                                 |
\*---------------------------------------------------------------------------*/
FoamFile
{
    version     2.0;
    format      ascii;
    class       volSymmTensorField;
    location    "1";
    object      R;
}
// * * * * * * * * * * * * * * * * * * * * * * * * * * * * * * * * * * * * * //

dimensions      [0 2 -2 0 0 0 0];

internalField   nonuniform List<symmTensor> 
1280
(
(0.292559 -8.43602e-18 -7.99882e-19 0.275343 -0.0169289 0.145052)
(0.259 -7.80895e-18 -9.05065e-19 0.240359 -0.0282594 0.136389)
(0.257144 -6.41752e-18 -7.72297e-19 0.239606 -0.0267535 0.133304)
(0.252083 -5.88955e-18 -6.48436e-19 0.23477 -0.026039 0.129355)
(0.229623 -6.15202e-18 -2.56156e-19 0.215394 -0.0276582 0.116888)
(0.228655 -2.5068e-18 -9.69681e-19 0.215351 -0.0278803 0.114541)
(0.225387 5.92757e-18 -2.24607e-18 0.211774 -0.0304176 0.112496)
(0.221161 6.80908e-18 -1.11036e-18 0.207513 -0.0352487 0.111466)
(0.199259 -2.58165e-17 7.98652e-18 0.187651 -0.0381927 0.101264)
(0.198099 -2.43934e-17 5.45521e-18 0.187139 -0.0356872 0.0996132)
(0.194111 -1.95765e-17 2.91425e-18 0.183026 -0.0339794 0.0971332)
(0.172226 7.88751e-18 -1.04586e-18 0.163041 -0.0345634 0.0873706)
(0.171192 5.47435e-18 -1.77932e-18 0.162426 -0.0328566 0.0863431)
(0.167222 5.13131e-18 -3.2042e-18 0.158042 -0.0315895 0.0846869)
(0.141732 2.22555e-17 -6.65003e-18 0.132112 -0.0339844 0.0788773)
(0.141288 1.85571e-17 -7.87792e-18 0.13219 -0.0329142 0.0782984)
(0.138956 1.5566e-17 -8.63242e-18 0.130019 -0.0322571 0.0783313)
(0.122852 1.44178e-17 -7.79878e-18 0.118383 -0.0439895 0.0939683)
(0.124306 1.5198e-17 -1.03274e-17 0.121898 -0.0394371 0.0897046)
(0.126432 1.69946e-17 -1.47594e-17 0.1221 -0.041293 0.0953655)
(0.158275 2.44257e-16 -1.54708e-16 0.12412 -0.0484384 0.179835)
(0.192093 7.40323e-16 -6.73485e-16 0.160835 -0.0940851 0.284186)
(0.25316 9.56119e-16 -1.12485e-15 0.234578 -0.179519 0.466195)
(0.31724 7.95926e-16 -1.15595e-15 0.319953 -0.262683 0.63639)
(0.341677 6.77361e-16 -1.07273e-15 0.360496 -0.2898 0.687927)
(0.323636 6.59102e-16 -1.01584e-15 0.342198 -0.261802 0.636029)
(0.171356 3.80858e-16 -5.33888e-16 0.173326 -0.0866358 0.287915)
(0.0346106 7.36466e-17 -9.94016e-17 0.0331084 -0.0137864 0.0548875)
(0.0112016 2.06611e-17 -2.79989e-17 0.0105749 -0.00353696 0.0169178)
(0.00534439 8.42377e-18 -1.1638e-17 0.00509419 -0.00134388 0.00777768)
(0.00328595 4.20994e-18 -6.36792e-18 0.00316135 -0.000675322 0.00467301)
(0.00231609 2.23145e-18 -4.1147e-18 0.00222459 -0.000406825 0.00325593)
(0.00179481 1.1818e-18 -2.97826e-18 0.00173424 -0.000289594 0.00250922)
(0.00141384 5.43228e-19 -2.23327e-18 0.00135503 -0.000213326 0.00197072)
(0.0011862 1.53632e-19 -1.76324e-18 0.0011537 -0.000174269 0.00164671)
(0.000914976 -2.36021e-20 -1.27777e-18 0.000887029 -0.000115307 0.00125766)
(0.00110839 -8.0956e-19 4.01898e-19 0.00122672 -0.000191585 0.00158209)
(0.00537866 -1.76946e-18 2.08408e-17 0.00320172 0.000893928 0.00958925)
(0.0324138 -7.71909e-17 2.28675e-16 0.0131673 0.00247709 0.0661465)
(0.0729343 -2.41211e-16 1.22974e-16 0.0647482 0.0298791 0.0994122)
(0.0732838 -1.89115e-16 1.40674e-16 0.0739259 0.0333535 0.0918634)
(0.082364 7.06639e-17 2.20803e-16 0.10634 0.0304605 0.0850962)
(0.0883282 1.71136e-16 2.85503e-16 0.117566 0.0344924 0.092767)
(0.0965789 2.43477e-16 3.44869e-16 0.129963 0.0382215 0.104)
(0.111531 3.60765e-16 4.8112e-16 0.15127 0.0523705 0.125699)
(0.11877 3.90904e-16 5.29755e-16 0.163294 0.0538695 0.144225)
(0.12616 4.58699e-16 6.29648e-16 0.17411 0.0650294 0.161014)
(0.13582 5.12035e-16 7.15832e-16 0.188106 0.0740798 0.179077)
(0.149864 6.54304e-16 9.33228e-16 0.209042 0.095291 0.205011)
(0.129817 8.09543e-17 6.73942e-16 0.178371 0.0202311 0.162981)
(0.126891 -1.92541e-16 7.51948e-16 0.175128 -0.00998387 0.158804)
(0.140132 -8.83406e-16 1.39588e-15 0.196132 -0.0806249 0.187513)
(0.127723 -7.00525e-16 1.10055e-15 0.17802 -0.0637502 0.165166)
(0.118583 -6.34704e-16 9.79895e-16 0.165133 -0.0568453 0.148923)
(0.111302 -5.59578e-16 8.36741e-16 0.154846 -0.0476342 0.133608)
(0.104835 -5.83445e-16 8.10853e-16 0.143814 -0.0466543 0.116406)
(0.0919885 -4.16753e-16 5.47429e-16 0.124767 -0.0346554 0.097655)
(0.0843935 -3.5864e-16 4.25192e-16 0.113357 -0.0319917 0.0877194)
(0.0790331 -2.94077e-16 2.64247e-16 0.103164 -0.0287924 0.0813822)
(0.0731993 -2.57504e-16 -4.59916e-17 0.0735319 -0.0330142 0.0924909)
(0.0736585 -2.36729e-16 -1.26321e-16 0.0650681 -0.0299412 0.101287)
(0.0329477 -7.53407e-17 -2.31375e-16 0.0133354 -0.00230651 0.0677044)
(0.00556733 -1.93055e-18 -2.01772e-17 0.00349454 -0.000808493 0.00988959)
(0.00157459 -1.31714e-18 -6.36644e-19 0.00167556 0.000209141 0.00226285)
(0.00127029 -3.45504e-19 1.48122e-18 0.00121589 0.000117445 0.00172544)
(0.00153433 -1.8269e-19 1.89679e-18 0.00147044 0.000163859 0.00208465)
(0.00183497 1.94966e-19 2.394e-18 0.00173053 0.000197533 0.00249708)
(0.00229285 9.19469e-19 3.13365e-18 0.00218112 0.000264742 0.00311783)
(0.00292732 2.23714e-18 4.33259e-18 0.00276542 0.000373919 0.00399083)
(0.0040183 4.42457e-18 6.55338e-18 0.00380504 0.000627126 0.00552225)
(0.00619124 8.3597e-18 1.13956e-17 0.00580342 0.00123928 0.00868399)
(0.0119395 1.86155e-17 2.5452e-17 0.0110733 0.00317037 0.0173874)
(0.0338749 6.31623e-17 8.54879e-17 0.0320815 0.0121809 0.0521783)
(0.163432 3.1956e-16 4.53196e-16 0.166111 0.0792709 0.269661)
(0.331921 5.78374e-16 9.43878e-16 0.352632 0.265747 0.649871)
(0.35382 6.16295e-16 1.0248e-15 0.37549 0.300007 0.714223)
(0.330078 7.53648e-16 1.13432e-15 0.335166 0.275265 0.667993)
(0.262011 9.16068e-16 1.12162e-15 0.244412 0.191122 0.492483)
(0.195018 6.88538e-16 6.44021e-16 0.163838 0.0948715 0.288391)
(0.160394 2.16125e-16 1.41494e-16 0.126011 0.0481419 0.18068)
(0.12827 1.05263e-17 1.35582e-17 0.123616 0.0422643 0.0972918)
(0.126135 1.51005e-17 1.41061e-17 0.123418 0.0403473 0.0916056)
(0.124753 1.6879e-17 2.05653e-17 0.120257 0.0443521 0.0952528)
(0.141952 1.19479e-18 -2.76959e-18 0.133188 0.0326513 0.0802696)
(0.144456 -2.45782e-18 -2.63293e-18 0.135547 0.0333341 0.0802957)
(0.144933 -4.90015e-18 1.39875e-19 0.135531 0.0344133 0.0808703)
(0.170604 1.58897e-17 -1.8751e-18 0.161431 0.0323157 0.0872797)
(0.174682 1.84473e-17 1.27048e-18 0.165889 0.0336691 0.0890619)
(0.175709 2.02979e-17 6.69926e-18 0.166504 0.0354679 0.0901529)
(0.197946 1.92824e-17 -2.47184e-19 0.186782 0.0349929 0.100304)
(0.202086 1.47382e-17 1.29985e-18 0.191013 0.036806 0.102923)
(0.203229 6.4023e-18 1.32931e-18 0.191525 0.0394681 0.10467)
(0.225442 1.00896e-17 -6.00714e-18 0.211626 0.0366983 0.115366)
(0.229788 3.48395e-17 -4.84167e-18 0.215929 0.0317632 0.116485)
(0.233125 4.98861e-17 -2.05191e-18 0.219558 0.0290659 0.11861)
(0.23405 6.00934e-17 -4.646e-19 0.219584 0.0288662 0.121062)
(0.256922 6.13747e-17 -6.49849e-21 0.23929 0.0272768 0.134169)
(0.262141 6.73505e-17 3.64263e-19 0.244243 0.0280858 0.138352)
(0.263981 7.781e-17 9.0647e-19 0.245016 0.0297628 0.141633)
(0.297943 4.85669e-17 -7.13424e-19 0.280166 0.017903 0.150839)
(0.000822622 -6.25198e-16 -6.13086e-16 0.000823294 0.000465611 0.00131558)
(0.000868759 -7.03471e-16 -5.96125e-16 0.000833145 0.000456254 0.00139997)
(0.000906126 -6.50427e-16 -4.80367e-16 0.000809088 0.000410613 0.00147218)
(0.000948756 -5.29219e-16 -3.58407e-16 0.000822114 0.000383461 0.00152246)
(0.0010203 -4.3826e-16 -2.98556e-16 0.000871434 0.000368794 0.00160356)
(0.00116914 -4.00609e-16 -2.32836e-16 0.000996401 0.000380872 0.0017974)
(0.00150579 -3.73947e-16 -1.21956e-16 0.00128804 0.000457971 0.00228909)
(0.00213763 -3.03444e-16 -7.9949e-18 0.00183692 0.000629967 0.00324716)
(0.00316838 -1.83887e-16 5.53551e-17 0.00273546 0.000939493 0.00483915)
(0.00459097 -6.01278e-17 5.33866e-17 0.00399669 0.00139422 0.00703116)
(0.00626706 2.64905e-17 2.48585e-17 0.00555636 0.00197911 0.00954019)
(0.00830313 6.23389e-17 4.64359e-18 0.00759903 0.00283327 0.0125331)
(0.0111757 6.21638e-17 -1.04765e-17 0.0107377 0.0041912 0.0166524)
(0.0146167 2.61147e-17 -3.08404e-17 0.0149458 0.00586641 0.0212268)
(0.0207672 -9.77322e-18 -3.73466e-17 0.0225633 0.00857712 0.0295896)
(0.0289168 -1.58996e-17 -1.53427e-17 0.0325662 0.00964033 0.039602)
(0.0195345 -7.3555e-18 -2.15897e-18 0.0309155 -0.00679444 0.0185652)
(0.0101078 -2.44588e-18 -3.93447e-20 0.0142885 -0.00470653 0.0110792)
(0.0131192 1.39502e-18 2.79626e-19 0.0127372 -0.00143211 0.011806)
(0.000851775 -7.71713e-16 -7.56578e-16 0.000812609 0.000457086 0.00139208)
(0.000905199 -8.67219e-16 -7.25102e-16 0.000824293 0.000441475 0.00148834)
(0.000957736 -8.1043e-16 -5.71486e-16 0.000820455 0.000402843 0.00158109)
(0.00101631 -6.67129e-16 -4.2301e-16 0.000850098 0.000381376 0.00165418)
(0.00110716 -5.58171e-16 -3.63032e-16 0.00091671 0.000371288 0.00176406)
(0.00127896 -5.22114e-16 -2.97952e-16 0.00105976 0.000385553 0.00199372)
(0.00165508 -5.07764e-16 -1.61346e-16 0.00137822 0.000465332 0.00255523)
(0.00238365 -4.40378e-16 -6.7047e-18 0.00199262 0.000653646 0.00369432)
(0.00355409 -2.87703e-16 8.36804e-17 0.00298411 0.000980305 0.00555242)
(0.00521604 -1.1781e-16 7.8078e-17 0.00441569 0.00147864 0.00819365)
(0.00720099 1.18036e-17 3.21863e-17 0.00621921 0.00213127 0.011248)
(0.00978296 7.50303e-17 1.50108e-18 0.00873899 0.00321244 0.0151942)
(0.0136942 8.53064e-17 -1.93873e-17 0.0128762 0.00515286 0.0211437)
(0.0186227 3.57534e-17 -5.15532e-17 0.018718 0.00783807 0.0283138)
(0.0274478 -1.68703e-17 -6.15218e-17 0.0294094 0.0126379 0.0416617)
(0.0388083 -2.04208e-17 -2.37975e-17 0.0431945 0.017687 0.0588829)
(0.0209852 -6.40846e-18 -2.4302e-18 0.0321902 -0.00315776 0.0194317)
(0.0116099 -2.72408e-18 -2.02983e-19 0.0163182 -0.00515754 0.0128123)
(0.0133986 1.31137e-18 2.92612e-19 0.012798 -0.00121354 0.0124051)
(0.000862035 -9.93553e-16 -9.37179e-16 0.000782986 0.000407115 0.00140281)
(0.000939337 -1.13353e-15 -9.03631e-16 0.000817371 0.000405362 0.00154933)
(0.00101302 -1.08588e-15 -6.99107e-16 0.00083884 0.000378404 0.00167721)
(0.00108883 -9.1026e-16 -5.08811e-16 0.000886283 0.000362688 0.00177681)
(0.00119729 -7.65711e-16 -4.50165e-16 0.000968469 0.000354524 0.00191364)
(0.00137783 -7.2156e-16 -3.9177e-16 0.00111797 0.000360874 0.00215409)
(0.00175573 -7.23483e-16 -2.19425e-16 0.00143327 0.000419445 0.00271739)
(0.00253708 -6.80749e-16 -5.82667e-18 0.00207556 0.000588019 0.00396086)
(0.00381177 -5.0854e-16 1.22227e-16 0.00312735 0.000883769 0.00602546)
(0.00574709 -2.86214e-16 1.09666e-16 0.00474497 0.00138504 0.00919425)
(0.00843217 -8.20597e-17 3.78295e-17 0.00706642 0.00221529 0.0135896)
(0.0118328 5.62328e-17 -1.41323e-17 0.0102494 0.00358505 0.0190533)
(0.0170637 9.6634e-17 -4.80702e-17 0.0155548 0.00620661 0.0274931)
(0.0243213 3.30388e-17 -9.75208e-17 0.0236303 0.0103751 0.0391817)
(0.0369225 -3.07959e-17 -1.01334e-16 0.03806 0.0182437 0.06069)
(0.0506412 -1.88342e-17 -3.02229e-17 0.0547269 0.02808 0.0856373)
(0.0376811 3.60122e-18 1.47533e-17 0.047262 0.019188 0.0614342)
(0.0138537 -2.01345e-18 1.01276e-18 0.0195047 -0.00369267 0.0163796)
(0.013747 7.43612e-19 -2.57273e-19 0.0132128 -0.00102364 0.0132847)
(0.000891507 -1.29142e-15 -1.21827e-15 0.000772346 0.00037048 0.00145688)
(0.000991468 -1.51955e-15 -1.19419e-15 0.000827616 0.00037977 0.00164878)
(0.00108475 -1.51509e-15 -9.15268e-16 0.00087119 0.000362065 0.00180698)
(0.00117804 -1.30859e-15 -6.49437e-16 0.000935637 0.000351086 0.00193237)
(0.00130289 -1.10196e-15 -5.77442e-16 0.00103184 0.000343088 0.00209262)
(0.00150011 -1.04044e-15 -5.3962e-16 0.00119255 0.000344528 0.00235937)
(0.00186873 -1.07495e-15 -3.29819e-16 0.00149473 0.000377169 0.00290635)
(0.00262175 -1.07908e-15 -3.14596e-17 0.00210012 0.000490814 0.00411195)
(0.00394587 -9.33657e-16 1.56092e-16 0.00316024 0.000720508 0.00630151)
(0.00612114 -6.78744e-16 1.53293e-16 0.00491338 0.00116442 0.00997655)
(0.00948486 -3.68075e-16 5.54516e-17 0.00767805 0.00205158 0.0157596)
(0.013977 -7.05428e-17 -3.47688e-17 0.0116365 0.00370139 0.0234196)
(0.0207442 4.96289e-17 -1.03104e-16 0.0181269 0.00696845 0.0350256)
(0.0313397 -6.31787e-19 -1.72163e-16 0.0290998 0.0129731 0.0536663)
(0.0480551 -4.46909e-17 -1.44031e-16 0.0476735 0.024132 0.084719)
(0.0631402 -1.21809e-17 -3.1163e-17 0.0693475 0.0387218 0.112868)
(0.0623358 -8.25234e-18 -7.69e-18 0.0856597 0.0510916 0.104876)
(0.0135464 -4.6951e-18 -4.78145e-19 0.0209232 -0.00115814 0.0137356)
(0.0140603 -1.32751e-18 2.3463e-18 0.0140796 -0.00113247 0.0136248)
(0.000943348 -1.69478e-15 -1.66235e-15 0.000784566 0.000344928 0.00155508)
(0.00106656 -2.09103e-15 -1.67506e-15 0.000859686 0.000362052 0.00179164)
(0.00118078 -2.19185e-15 -1.27921e-15 0.000924968 0.000351002 0.0019805)
(0.00129298 -1.95242e-15 -8.59874e-16 0.00100737 0.00034228 0.00213159)
(0.00143132 -1.62454e-15 -7.2606e-16 0.00111641 0.000330164 0.0023058)
(0.00163068 -1.49738e-15 -7.21706e-16 0.00127968 0.000317715 0.00256656)
(0.0019775 -1.60163e-15 -5.06302e-16 0.00156232 0.000317039 0.00306905)
(0.0026583 -1.71492e-15 -1.00399e-16 0.00210428 0.000356184 0.0041488)
(0.00396663 -1.64933e-15 2.08256e-16 0.00312715 0.000474132 0.00634172)
(0.00639794 -1.41511e-15 2.87485e-16 0.00500484 0.000772406 0.0105929)
(0.0105328 -9.66735e-16 1.88887e-16 0.00822114 0.00153477 0.0180407)
(0.016609 -3.95763e-16 8.36338e-18 0.013186 0.0033231 0.0290858)
(0.0255081 -8.14827e-17 -1.59226e-16 0.0211175 0.00708277 0.0453068)
(0.0394641 -5.2661e-17 -2.50233e-16 0.0346504 0.0140778 0.0712645)
(0.0588872 -4.09172e-17 -1.66561e-16 0.055967 0.0261412 0.108426)
(0.071359 -2.02159e-18 -3.4665e-17 0.0783881 0.0385366 0.127561)
(0.0667683 -1.6874e-17 -3.10426e-17 0.0934704 0.0464608 0.105567)
(0.0352071 -2.21127e-17 -1.95792e-17 0.0633994 0.0339233 0.0543756)
(0.0155501 1.14977e-18 6.89264e-18 0.0177601 -0.000732495 0.0144364)
(0.00101225 -2.15121e-15 -2.32544e-15 0.000811745 0.000324044 0.00168757)
(0.00116143 -2.81564e-15 -2.4192e-15 0.000907826 0.000347083 0.0019725)
(0.0013027 -3.09737e-15 -1.82092e-15 0.00099848 0.000342582 0.00220169)
(0.00144355 -2.81198e-15 -1.09183e-15 0.00110619 0.000336745 0.00239417)
(0.00160648 -2.2967e-15 -8.19951e-16 0.00123792 0.000321011 0.0025977)
(0.00181257 -2.09039e-15 -9.29177e-16 0.00141147 0.000292787 0.0028512)
(0.00212232 -2.33691e-15 -8.01737e-16 0.00167217 0.000252865 0.0032651)
(0.00267524 -2.60733e-15 -2.31115e-16 0.00212388 0.000206034 0.00409378)
(0.00382147 -2.58719e-15 3.58831e-16 0.00301961 0.000164108 0.00598846)
(0.00637418 -2.41421e-15 6.79298e-16 0.00493432 0.000164141 0.0105233)
(0.0112538 -1.87179e-15 6.69049e-16 0.008525 0.000384025 0.0196395)
(0.0193 -9.69611e-16 3.35738e-16 0.0145398 0.00150847 0.0351045)
(0.03081 -2.76126e-16 -7.43435e-17 0.0238604 0.00455296 0.0571079)
(0.0475015 -6.34238e-17 -2.4756e-16 0.0388669 0.00967236 0.0887639)
(0.0661904 1.12756e-18 -1.49326e-16 0.0594649 0.0155714 0.121907)
(0.0776209 2.67339e-17 -5.58343e-17 0.0815528 0.0181593 0.133086)
(0.0816069 7.4989e-18 -4.11496e-17 0.104746 0.0248197 0.124369)
(0.0813209 -6.99496e-17 4.91624e-17 0.127641 0.0600764 0.11863)
(0.0628746 7.05898e-17 1.06227e-16 0.0923082 0.0686468 0.128843)
(0.00110169 -2.4684e-15 -3.22421e-15 0.000855564 0.000306306 0.00186191)
(0.00128219 -3.43684e-15 -3.41216e-15 0.000975797 0.000334012 0.00220478)
(0.00146255 -3.89435e-15 -2.40941e-15 0.0010998 0.000337011 0.0024959)
(0.00165193 -3.52097e-15 -1.12453e-15 0.00124741 0.000335975 0.00276482)
(0.00187195 -2.86273e-15 -7.10841e-16 0.00142728 0.000320458 0.00305211)
(0.00214147 -2.7996e-15 -1.22189e-15 0.00165682 0.000284385 0.00339069)
(0.00250187 -3.47966e-15 -1.38576e-15 0.00196924 0.000217593 0.00385195)
(0.00303365 -4.06621e-15 -4.6664e-16 0.00242835 0.000101845 0.00457896)
(0.00397383 -3.96596e-15 7.6228e-16 0.00320765 -0.000103384 0.00601131)
(0.00603546 -3.58266e-15 1.52472e-15 0.00480705 -0.000536413 0.00951538)
(0.010361 -2.89363e-15 1.70879e-15 0.00798217 -0.00153877 0.0174949)
(0.0187632 -1.70599e-15 1.28213e-15 0.0138946 -0.00366429 0.0339811)
(0.0320824 -4.64304e-16 4.83964e-16 0.0234182 -0.00740391 0.0606597)
(0.050572 4.40958e-17 -5.67857e-17 0.0376751 -0.0134772 0.0975602)
(0.0722726 1.42557e-16 -2.16374e-16 0.0558425 -0.0223311 0.140429)
(0.0898456 2.04768e-16 -2.33304e-16 0.0748111 -0.0338597 0.171207)
(0.102237 2.40535e-16 -1.93605e-16 0.0916012 -0.0383981 0.190109)
(0.0876998 -8.02026e-17 2.59628e-16 0.082311 -0.0041737 0.149465)
(0.0818633 1.17973e-16 1.92699e-16 0.082836 0.0379508 0.131264)
(0.00120642 -2.01363e-15 -4.10336e-15 0.000908985 0.00028271 0.00206967)
(0.00142112 -3.00313e-15 -4.22002e-15 0.00105528 0.000312185 0.00247525)
(0.00165523 -3.39859e-15 -2.47054e-15 0.00122233 0.000323433 0.00285736)
(0.00191932 -2.99248e-15 -5.01348e-16 0.00142828 0.0003288 0.00325389)
(0.00223937 -2.64085e-15 -2.94601e-16 0.0016885 0.000316025 0.00370446)
(0.00263629 -3.29665e-15 -1.78618e-15 0.00202611 0.000273696 0.00423766)
(0.0031542 -4.74085e-15 -2.43872e-15 0.00248212 0.000183927 0.00491797)
(0.00386043 -5.78767e-15 -8.00959e-16 0.00312168 1.85696e-05 0.00584353)
(0.0048949 -5.83702e-15 1.64088e-15 0.00407324 -0.000272704 0.00723168)
(0.00665787 -5.45138e-15 3.19139e-15 0.00567973 -0.000818767 0.00975409)
(0.00980021 -4.83724e-15 3.75866e-15 0.00852462 -0.00194554 0.0145564)
(0.0159318 -3.76331e-15 3.63072e-15 0.0139503 -0.00450982 0.0247992)
(0.0281349 -2.01797e-15 2.44136e-15 0.0243547 -0.0105259 0.0475282)
(0.0497632 -2.81093e-16 4.37932e-16 0.0422951 -0.0222394 0.0911479)
(0.0822221 5.66186e-16 -8.46627e-16 0.0696134 -0.0431869 0.159547)
(0.122991 1.48342e-15 -1.78404e-15 0.107489 -0.0765707 0.251925)
(0.166232 1.18779e-15 -1.25693e-15 0.144459 -0.098871 0.354302)
(0.180989 -5.22266e-16 7.54797e-16 0.151292 -0.104203 0.398702)
(0.0823542 -1.36055e-16 1.15187e-16 0.0772269 -0.0359077 0.133177)
(0.0013127 7.6143e-16 -4.10356e-15 0.000960934 0.000233836 0.00228472)
(0.00155277 7.03536e-16 -3.69113e-15 0.00112795 0.000257392 0.0027345)
(0.00183218 8.41409e-16 -1.04286e-15 0.00133294 0.000268555 0.00319252)
(0.00216124 7.09662e-16 9.91866e-16 0.00159217 0.000270076 0.00370301)
(0.00256922 -3.11919e-16 7.95639e-17 0.00192805 0.00024725 0.00430447)
(0.00306884 -2.06526e-15 -2.71412e-15 0.00236456 0.000178906 0.00500366)
(0.00369949 -3.48402e-15 -3.40938e-15 0.00294755 3.35307e-05 0.00585266)
(0.00453759 -4.0105e-15 -7.16925e-16 0.00375818 -0.000236795 0.00697032)
(0.00570172 -4.18266e-15 2.59107e-15 0.00492279 -0.000714287 0.00854375)
(0.0073224 -4.58119e-15 4.27793e-15 0.00659768 -0.0015164 0.0107746)
(0.00965132 -5.03011e-15 4.72398e-15 0.00905278 -0.00280655 0.0140934)
(0.0131973 -4.57305e-15 4.48953e-15 0.0127707 -0.00483749 0.0194447)
(0.0194955 -2.31151e-15 3.12883e-15 0.0190702 -0.00833162 0.029859)
(0.0319043 3.99252e-16 7.57924e-16 0.03064 -0.0155443 0.0527454)
(0.0521977 2.31e-15 -1.71562e-15 0.0482507 -0.0288229 0.0944565)
(0.0603681 3.81374e-15 -4.62184e-15 0.0501507 -0.0366493 0.126335)
(0.093675 1.13172e-15 -1.53563e-15 0.0916727 -0.0571486 0.178012)
(0.172241 -1.10474e-15 6.34606e-16 0.194043 -0.131159 0.325938)
(0.175437 -1.3102e-15 1.73682e-15 0.232744 -0.168095 0.310579)
(0.00137149 8.65135e-15 -2.01934e-15 0.000978824 0.000104729 0.00239901)
(0.00161062 1.11524e-14 -1.1574e-15 0.00114879 0.000109161 0.00284068)
(0.00187236 1.16163e-14 8.17229e-16 0.0013519 9.94435e-05 0.00324807)
(0.00216349 9.05261e-15 1.05982e-15 0.0016009 7.46233e-05 0.00366734)
(0.0025038 5.56604e-15 -9.79064e-16 0.00191753 2.4626e-05 0.00411367)
(0.00291389 4.16286e-15 -3.03388e-15 0.00233491 -6.24229e-05 0.00461284)
(0.00343236 5.34084e-15 -2.56294e-15 0.00290803 -0.000205091 0.0052113)
(0.00407822 6.6535e-15 -1.01375e-16 0.00369247 -0.000430562 0.00590687)
(0.00489176 6.43406e-15 1.8777e-15 0.00477338 -0.000777705 0.00673369)
(0.00591449 5.20056e-15 2.46791e-15 0.00625385 -0.00129093 0.00772547)
(0.00720748 3.65288e-15 2.54937e-15 0.0082513 -0.00202444 0.00897152)
(0.00899659 1.91229e-15 2.66451e-15 0.0109789 -0.00309931 0.010901)
(0.0118552 2.65285e-16 2.39073e-15 0.0147501 -0.00483938 0.0147332)
(0.0171916 1.31672e-16 1.37688e-15 0.0212641 -0.00804182 0.0228898)
(0.0297334 9.88483e-16 -2.18767e-16 0.0361519 -0.0168428 0.0438406)
(0.025524 4.89586e-16 -1.25393e-15 0.0219291 -0.0131126 0.0481081)
(0.0461274 1.47007e-16 -1.71007e-15 0.0493347 -0.0265132 0.0800949)
(0.0778905 4.02401e-17 -6.55022e-16 0.0983437 -0.0516766 0.124066)
(0.168043 -1.43372e-15 1.88719e-15 0.247886 -0.146608 0.253544)
(0.00185927 1.20385e-14 -1.22963e-16 0.00135015 -4.47215e-05 0.0033534)
(0.00227538 1.58255e-14 -2.20607e-15 0.00166635 -1.04131e-05 0.00414435)
(0.00273275 1.72578e-14 -6.32944e-15 0.00204736 6.65837e-05 0.00491243)
(0.00322921 1.49748e-14 -8.38238e-15 0.002507 0.000188577 0.00568373)
(0.00377593 1.15808e-14 -6.47892e-15 0.00306963 0.000377725 0.00644215)
(0.00443544 1.08855e-14 -2.52979e-15 0.00380579 0.000658112 0.00729778)
(0.00530783 1.29989e-14 3.61995e-16 0.00482659 0.00106886 0.00841524)
(0.00641381 1.45132e-14 1.83921e-15 0.00619409 0.00164333 0.00978907)
(0.00777207 1.37332e-14 2.66862e-15 0.00796948 0.00241309 0.011426)
(0.00948369 1.19718e-14 2.96725e-15 0.0102858 0.00342996 0.0134978)
(0.011319 9.65256e-15 2.65958e-15 0.0129169 0.00460604 0.0156652)
(0.0129876 6.29346e-15 1.88371e-15 0.0154257 0.00576909 0.0176396)
(0.0146415 2.13288e-15 7.75387e-16 0.0175486 0.00695801 0.0201118)
(0.0181576 -5.15878e-16 -5.23447e-17 0.0216772 0.00918228 0.0259155)
(0.0259076 -1.75384e-15 -7.07295e-16 0.0307106 0.0144126 0.039059)
(0.018665 -1.37601e-15 -1.86153e-15 0.0161295 0.00716761 0.0337066)
(0.0391792 -4.21442e-16 -5.25965e-16 0.0417412 0.0206448 0.0671378)
(0.0801136 5.19312e-16 4.15245e-17 0.0993354 0.0527113 0.130622)
(0.183826 1.01867e-15 1.10838e-15 0.269994 0.165129 0.28385)
(0.0016774 3.09383e-15 2.13037e-15 0.00124089 -0.000170025 0.00300552)
(0.00201812 3.71781e-15 8.09632e-16 0.00149904 -0.000146062 0.00364256)
(0.0024026 4.65033e-15 -3.11667e-15 0.00181673 -7.25067e-05 0.00426788)
(0.0028761 5.55221e-15 -6.04006e-15 0.0022367 4.83047e-05 0.00500106)
(0.00354682 6.26068e-15 -5.49344e-15 0.00284566 0.000252218 0.00603098)
(0.00453811 6.99297e-15 -2.42427e-15 0.00375551 0.000584574 0.00757577)
(0.00596519 7.98384e-15 9.21964e-17 0.00507703 0.00110832 0.00982714)
(0.00774288 8.5235e-15 9.45857e-16 0.00675893 0.00185796 0.0126177)
(0.00973356 7.76916e-15 1.0858e-15 0.00869428 0.00285393 0.0157117)
(0.0122448 6.16226e-15 1.21992e-15 0.0111715 0.0042859 0.0196592)
(0.0151819 4.05735e-15 1.05198e-15 0.0141407 0.00619695 0.0243144)
(0.0186291 1.89543e-15 5.43375e-16 0.0176736 0.00857255 0.0299349)
(0.0233389 4.28315e-16 5.9108e-17 0.0223465 0.0115695 0.0381873)
(0.0331476 -1.66141e-16 -2.28648e-16 0.031465 0.0175223 0.0566318)
(0.0496695 -3.08331e-16 -3.76898e-16 0.0459868 0.0284504 0.0903704)
(0.054053 -9.98678e-16 -1.39668e-15 0.0449815 0.0320686 0.114032)
(0.0942198 -4.36967e-16 -3.84587e-16 0.0924523 0.0582483 0.180987)
(0.189298 3.53993e-16 2.57693e-16 0.211713 0.145973 0.36551)
(0.191786 7.04566e-17 1.51837e-16 0.251795 0.188905 0.351961)
(0.00149575 -5.51903e-16 2.57045e-15 0.00113122 -0.000245133 0.00266862)
(0.00178325 -1.04939e-15 1.98599e-15 0.0013433 -0.000237474 0.00320989)
(0.00209793 -7.28425e-16 -6.73452e-16 0.00159203 -0.000187403 0.0037222)
(0.00247415 6.78366e-16 -3.27401e-15 0.00191122 -0.00011253 0.0042988)
(0.00297672 2.45693e-15 -3.72209e-15 0.00234505 7.22888e-06 0.00505844)
(0.00366627 3.57617e-15 -1.94762e-15 0.0029439 0.000191136 0.00611217)
(0.0046915 3.86065e-15 -8.92322e-17 0.0038219 0.000483042 0.00773777)
(0.00605626 3.60739e-15 5.17622e-16 0.00498816 0.000940905 0.00993628)
(0.00781512 3.00295e-15 3.58779e-16 0.00648839 0.001657 0.0128276)
(0.0104308 2.10777e-15 2.5508e-16 0.00869441 0.00287642 0.0173201)
(0.0146724 1.05698e-15 1.09793e-16 0.0122236 0.00500679 0.0249577)
(0.0214873 2.30289e-16 -1.2545e-16 0.0178859 0.00858401 0.037686)
(0.0313385 -3.524e-17 -1.88872e-16 0.0263024 0.0137948 0.0563875)
(0.050589 -2.42197e-17 -1.41895e-16 0.0425645 0.0241806 0.0947773)
(0.0825838 2.33399e-17 -8.13428e-17 0.0699907 0.0450537 0.161867)
(0.123949 -1.2382e-16 -2.63495e-16 0.109119 0.0784252 0.255053)
(0.173855 -1.25789e-16 -1.69897e-16 0.151455 0.104432 0.374089)
(0.198813 6.12052e-17 4.36354e-17 0.165205 0.115714 0.446769)
(0.0880583 -8.29754e-17 -2.83311e-18 0.0816084 0.0401278 0.149003)
(0.00132597 -1.54792e-15 2.04428e-15 0.00104484 -0.000296949 0.00239991)
(0.00156638 -2.16255e-15 1.72125e-15 0.00122196 -0.000299639 0.00287242)
(0.00182643 -2.08846e-15 1.07177e-16 0.00142261 -0.000263597 0.00331848)
(0.00212833 -9.60297e-16 -1.58506e-15 0.00167327 -0.000213183 0.00379252)
(0.00251705 6.89846e-16 -2.05454e-15 0.00199771 -0.000131827 0.00438104)
(0.00303087 1.81183e-15 -1.12443e-15 0.00242391 -7.19251e-06 0.00515527)
(0.00378188 1.96708e-15 -5.17982e-17 0.00303113 0.000184258 0.00633477)
(0.00482609 1.55819e-15 2.77912e-16 0.00385762 0.000478397 0.00802994)
(0.00624778 1.08578e-15 1.25922e-16 0.00495941 0.000926832 0.0104397)
(0.00842296 6.27884e-16 3.03236e-18 0.00659296 0.00161253 0.0143608)
(0.0121196 1.77439e-16 -8.159e-17 0.00925783 0.00261535 0.0213891)
(0.0194383 -4.59425e-17 -1.48491e-16 0.0144048 0.0043226 0.0357471)
(0.0321234 -4.75299e-17 -1.34386e-16 0.0236195 0.00756505 0.0608068)
(0.0523004 -7.63586e-18 -7.72877e-17 0.0391734 0.0140849 0.101188)
(0.075713 1.71767e-17 -2.16201e-17 0.0587278 0.0236124 0.147984)
(0.0954838 2.46144e-17 -3.40641e-17 0.0796421 0.0360528 0.1838)
(0.110574 3.63463e-17 -6.89508e-17 0.0989467 0.0418264 0.209187)
(0.0976521 9.48755e-17 -1.13731e-16 0.0910454 0.00528478 0.171616)
(0.0903466 1.45292e-16 -2.34564e-16 0.0909647 -0.0443575 0.148752)
(0.0011832 -1.51937e-15 1.37441e-15 0.000965568 -0.000336253 0.00215697)
(0.00138372 -1.92259e-15 1.09907e-15 0.00111248 -0.000344996 0.0025706)
(0.00159888 -1.8182e-15 9.86225e-17 0.00127469 -0.000317513 0.0029661)
(0.00184166 -9.9716e-16 -8.49565e-16 0.00147568 -0.00028253 0.00336451)
(0.00214395 1.6654e-16 -1.04416e-15 0.00172657 -0.000226535 0.0038293)
(0.00252402 9.49524e-16 -5.07783e-16 0.00203834 -0.000144685 0.00439039)
(0.00305267 1.01877e-15 2.33375e-17 0.0024583 -3.65532e-05 0.0051872)
(0.00373256 6.66372e-16 1.47783e-16 0.00298727 9.57489e-05 0.00621609)
(0.00457539 3.23405e-16 5.08004e-17 0.00364158 0.000230888 0.00750738)
(0.00601423 1.08614e-16 -2.35224e-17 0.00475713 0.000314496 0.00988886)
(0.00894428 -3.59316e-17 -6.50309e-17 0.00702982 0.000160548 0.0149986)
(0.0152892 -6.79528e-17 -8.00631e-17 0.0119949 -0.000772415 0.0263891)
(0.0281523 -3.40198e-17 -7.15609e-17 0.0223252 -0.00363733 0.0503313)
(0.048242 -2.14206e-18 -4.48723e-17 0.039559 -0.00909896 0.0890408)
(0.0681507 -9.51518e-19 -6.13727e-18 0.0608884 -0.0151042 0.125164)
(0.0800753 -7.45028e-18 -3.3164e-18 0.0834573 -0.017158 0.1372)
(0.0851136 -7.11429e-18 -2.11344e-17 0.107838 -0.0234582 0.13047)
(0.0864517 -9.19237e-18 -1.96373e-17 0.134042 -0.0612255 0.127506)
(0.064074 2.79057e-17 -2.03095e-17 0.093898 -0.0710307 0.133575)
(0.00107848 -1.20843e-15 8.66277e-16 0.000904855 -0.000370028 0.00194382)
(0.00124745 -1.39943e-15 6.0666e-16 0.00102439 -0.000381003 0.00230061)
(0.0014267 -1.20717e-15 -5.84461e-17 0.00115226 -0.000357685 0.00264661)
(0.00162158 -5.86086e-16 -5.74803e-16 0.00131284 -0.000332336 0.00297939)
(0.00185619 1.54945e-16 -5.6404e-16 0.00151016 -0.00029383 0.00334971)
(0.00213827 5.7531e-16 -1.89589e-16 0.00174678 -0.00024128 0.00376352)
(0.00251381 5.41946e-16 6.72616e-17 0.00205114 -0.000185864 0.00430328)
(0.00301278 2.88798e-16 8.0825e-17 0.00244424 -0.000147477 0.00500512)
(0.00378692 8.25371e-17 2.45599e-17 0.00305101 -0.00016887 0.00614952)
(0.0051179 -2.63812e-17 -1.10165e-17 0.00412006 -0.000334978 0.008245)
(0.0077411 -6.98083e-17 -3.26242e-17 0.00627517 -0.000877858 0.0126185)
(0.0131867 -5.89042e-17 -3.46535e-17 0.0108285 -0.00241655 0.0220807)
(0.0238844 -3.11413e-17 -2.88565e-17 0.0200777 -0.00634094 0.0414918)
(0.041105 -8.4327e-18 -1.7781e-17 0.0360234 -0.0143767 0.0741277)
(0.0608808 -8.10929e-18 4.58209e-18 0.0575358 -0.0265143 0.112115)
(0.0727829 -2.14855e-17 1.65917e-17 0.0794508 -0.0382999 0.129901)
(0.0681978 -3.02538e-17 1.40029e-17 0.0944102 -0.0462074 0.108321)
(0.0356274 -2.29913e-17 2.06733e-17 0.0634373 -0.0357811 0.057012)
(0.0146214 4.17028e-19 2.28904e-18 0.0166249 0.000405843 0.0135059)
(0.000995682 -8.8883e-16 5.43715e-16 0.000864159 -0.000400703 0.00176743)
(0.00113712 -9.51563e-16 3.16263e-16 0.000958504 -0.000410254 0.00206849)
(0.0012864 -7.2024e-16 -1.47676e-16 0.00105553 -0.000387948 0.00236671)
(0.00144402 -2.40169e-16 -4.43885e-16 0.00118303 -0.000368727 0.00264328)
(0.00163129 2.23902e-16 -3.53932e-16 0.00134208 -0.00034342 0.00294647)
(0.00185551 4.06865e-16 -6.98123e-17 0.00153519 -0.000312947 0.00328041)
(0.0021622 3.11087e-16 7.12583e-17 0.00179132 -0.000293945 0.00372126)
(0.00260878 1.34133e-16 4.90422e-17 0.00215296 -0.000313523 0.00435195)
(0.00333247 1.20425e-17 1.26508e-17 0.00273713 -0.000416834 0.00540864)
(0.00455541 -4.74866e-17 -2.03216e-18 0.00375292 -0.000684306 0.00727215)
(0.00679688 -5.66042e-17 -1.28379e-17 0.00567928 -0.00131196 0.0108665)
(0.0111425 -4.02909e-17 -1.22607e-17 0.00952011 -0.00281131 0.018118)
(0.0192702 -2.26046e-17 -9.074e-18 0.0170271 -0.00629042 0.0321409)
(0.0324693 -9.82515e-18 -3.49959e-18 0.0301188 -0.013266 0.0556742)
(0.0496201 -8.99185e-18 8.60623e-18 0.0490581 -0.0246104 0.0875018)
(0.0640598 -2.02588e-17 2.06542e-17 0.0701003 -0.0388747 0.114545)
(0.0630494 -2.83012e-17 2.53977e-17 0.0856407 -0.051494 0.106892)
(0.0125842 -1.16748e-18 2.40113e-18 0.0187649 0.000315577 0.0131246)
(0.0131728 1.08786e-19 1.30332e-18 0.0129785 0.000892336 0.0127016)