/*--------------------------------*- C++ -*----------------------------------*\
| =========                 |                                                 |
| \\      /  F ield         | OpenFOAM: The Open Source CFD Toolbox           |
|  \\    /   O peration     | Version:  4.1                                   |
|   \\  /    A nd           | Web:      www.OpenFOAM.org                      |
|    \\/     M anipulation  |                                                 |
\*---------------------------------------------------------------------------*/
FoamFile
{
    version     2.0;
    format      ascii;
    class       volVectorField;
    location    "1";
    object      U;
}
// * * * * * * * * * * * * * * * * * * * * * * * * * * * * * * * * * * * * * //

dimensions      [0 1 -1 0 0 0 0];

internalField   nonuniform List<vector> 
1280
(
(5.21852e-19 1.84647 0.0385674)
(2.03818e-18 2.38021 -0.0635299)
(-1.4923e-17 2.00029 -0.0446578)
(-4.33856e-18 2.02716 -0.0761086)
(-9.00016e-17 2.62718 -0.0737771)
(1.98898e-16 2.04408 -0.0788052)
(1.65491e-17 2.31215 -0.249533)
(-4.13141e-16 2.13775 -0.270726)
(8.99473e-17 2.78801 -0.25446)
(2.21444e-15 2.28752 -0.171764)
(3.00248e-15 2.3865 -0.350814)
(1.80221e-15 3.04009 -0.598975)
(1.3055e-15 2.53377 -0.326401)
(2.91003e-15 2.63986 -0.517797)
(4.34298e-15 3.5048 -1.1055)
(3.93666e-15 2.95285 -0.506139)
(3.9617e-15 3.12671 -0.512175)
(5.94468e-15 3.94663 -1.95846)
(4.0441e-15 4.08786 0.882149)
(-2.12939e-16 2.98192 -3.50482)
(1.34828e-14 4.03435 0.680955)
(-2.50105e-14 4.05764 2.88639)
(-4.66878e-14 3.74135 6.52607)
(-5.14622e-14 3.54523 10.7178)
(-4.41224e-14 2.85185 14.602)
(-5.18968e-14 2.69464 16.209)
(-4.75471e-14 1.34767 16.4467)
(-8.63994e-14 2.84999 16.1706)
(-8.59596e-14 3.12335 15.7653)
(-8.51175e-14 3.11145 15.4837)
(-8.37267e-14 3.11544 15.2816)
(-8.10336e-14 3.06939 15.166)
(-7.80621e-14 3.16125 15.1296)
(-7.51363e-14 3.018 15.269)
(-7.20831e-14 3.2863 15.2904)
(-7.03053e-14 2.90612 15.5405)
(-6.94399e-14 3.40306 15.1248)
(-6.85976e-14 2.87249 15.2911)
(-7.26856e-14 3.29769 14.5727)
(-4.56651e-14 3.0308 17.2251)
(-2.77872e-14 2.83025 11.8487)
(9.46448e-16 -0.672902 -0.400048)
(3.03509e-16 -0.381983 -0.645166)
(-2.24355e-15 -0.403413 -1.49716)
(-3.82966e-15 -0.51336 -3.25372)
(4.81763e-15 -0.894128 0.0782332)
(8.60574e-15 -0.898653 -0.318086)
(8.88908e-15 -0.77911 -0.981237)
(-5.80801e-15 -0.347643 -3.13044)
(-1.73647e-15 0.112736 -0.0301436)
(-2.05653e-15 -0.0665611 -0.00417577)
(-3.31221e-14 0.38727 -3.10404)
(-8.51408e-15 0.803083 -1.00884)
(-1.37349e-15 0.93225 -0.326964)
(3.67907e-17 0.927357 0.0759603)
(4.64791e-16 0.520146 -3.19044)
(8.70203e-16 0.407502 -1.51808)
(1.79788e-15 0.370232 -0.6625)
(1.12249e-15 0.698245 -0.45621)
(2.86775e-14 -2.86669 11.7976)
(4.64218e-14 -3.02932 17.195)
(7.24088e-14 -3.30103 14.5544)
(6.71801e-14 -2.86787 15.2581)
(6.85799e-14 -3.4036 15.0908)
(6.97809e-14 -2.90273 15.505)
(7.13893e-14 -3.28393 15.261)
(7.43598e-14 -3.01444 15.2496)
(7.81665e-14 -3.15913 15.1285)
(8.16673e-14 -3.06819 15.1855)
(8.40531e-14 -3.11332 15.3068)
(8.46976e-14 -3.11166 15.4948)
(8.51043e-14 -3.12427 15.7515)
(8.60801e-14 -2.84712 16.1595)
(4.59511e-14 -1.35507 16.5692)
(5.02775e-14 -2.68681 16.3537)
(4.44164e-14 -2.84316 14.7636)
(5.13479e-14 -3.56053 10.768)
(4.68769e-14 -3.77537 6.38656)
(2.64705e-14 -4.10283 2.64903)
(-9.0704e-15 -4.0545 0.641579)
(9.66498e-15 -3.00174 -3.32136)
(7.30555e-15 -4.1023 0.895375)
(1.01043e-14 -3.96111 -1.99655)
(6.65594e-15 -3.13129 -0.510872)
(6.33824e-15 -2.95562 -0.50287)
(8.40472e-15 -3.50869 -1.09907)
(7.35439e-15 -2.64658 -0.519216)
(6.87574e-15 -2.53895 -0.327528)
(8.12284e-15 -3.04784 -0.600002)
(5.37942e-15 -2.39266 -0.353418)
(1.59562e-15 -2.29286 -0.173799)
(-2.39164e-15 -2.79473 -0.254679)
(-2.4198e-16 -2.14454 -0.274032)
(2.29628e-16 -2.31919 -0.255465)
(2.0777e-16 -2.04894 -0.0836101)
(1.81412e-16 -2.63493 -0.0756742)
(2.21581e-16 -2.03321 -0.0782836)
(2.30212e-16 -2.00569 -0.0469625)
(1.35008e-16 -2.38621 -0.0627259)
(-4.80886e-17 -1.85223 0.0397784)
(-3.90103e-15 0.0846301 0.0730124)
(-3.3021e-15 0.159602 0.0804948)
(-1.62124e-15 0.218443 0.0929525)
(5.66992e-18 0.28159 0.111052)
(-2.74917e-16 0.35111 0.134969)
(-2.1595e-15 0.430535 0.165018)
(-1.50899e-15 0.52305 0.201937)
(1.9206e-15 0.632488 0.247019)
(3.09429e-15 0.762212 0.302514)
(2.25841e-15 0.919367 0.370185)
(5.54149e-16 1.11302 0.455406)
(9.11638e-16 1.34624 0.557659)
(1.2043e-15 1.62671 0.672912)
(-1.11257e-15 1.94691 0.755117)
(-1.11023e-15 2.22595 0.644378)
(-2.51692e-16 1.97297 0.0975883)
(-2.88202e-17 -0.947938 -1.18778)
(-1.26023e-16 -2.77704 -1.00454)
(-6.62083e-17 -3.31789 -0.788385)
(-6.23935e-15 0.0814782 0.119359)
(-4.91151e-15 0.15249 0.13105)
(1.06163e-15 0.207406 0.150977)
(1.11367e-14 0.266643 0.179704)
(1.67225e-14 0.332004 0.217318)
(9.74766e-15 0.406929 0.264524)
(1.15866e-15 0.4942 0.322252)
(7.41558e-15 0.597257 0.392424)
(2.04727e-14 0.719378 0.47837)
(2.53304e-14 0.866121 0.581556)
(2.17003e-14 1.0471 0.715607)
(1.67177e-14 1.26895 0.882151)
(1.47011e-14 1.55354 1.08197)
(7.81358e-15 1.95147 1.24202)
(2.78683e-16 2.47583 1.08004)
(-1.7711e-15 2.58378 0.295551)
(-2.70764e-16 -0.68437 -1.38632)
(-1.60876e-16 -3.13705 -1.25992)
(4.26499e-17 -3.59401 -0.616676)
(-8.85505e-15 0.0794136 0.153788)
(-6.28393e-15 0.146777 0.167435)
(9.61823e-15 0.197983 0.192165)
(4.04699e-14 0.253739 0.227746)
(6.16739e-14 0.315345 0.274127)
(4.20293e-14 0.386254 0.332515)
(6.8391e-15 0.468968 0.404048)
(1.67354e-14 0.566554 0.490951)
(6.05977e-14 0.6822 0.597361)
(8.23313e-14 0.819038 0.724863)
(7.49849e-14 0.985929 0.890965)
(5.51571e-14 1.19168 1.10918)
(4.67124e-14 1.47203 1.39666)
(2.91583e-14 1.94159 1.67991)
(2.71907e-15 2.67227 1.66006)
(-4.21884e-15 2.94152 1.19301)
(-1.55801e-17 -0.522007 -0.0765894)
(-9.34237e-17 -3.14374 -1.42541)
(1.72539e-16 -3.7973 -0.598866)
(-1.45912e-14 0.0754987 0.186408)
(-1.38586e-14 0.137861 0.204824)
(1.61469e-14 0.183877 0.235726)
(8.22893e-14 0.234885 0.279744)
(1.31063e-13 0.291303 0.336409)
(8.78563e-14 0.356487 0.407673)
(4.75485e-15 0.432629 0.495097)
(2.07416e-14 0.52236 0.60146)
(1.17929e-13 0.628489 0.731829)
(1.71076e-13 0.751997 0.89005)
(1.58722e-13 0.897057 1.09219)
(1.17766e-13 1.06899 1.37476)
(1.00366e-13 1.32149 1.79879)
(5.89033e-14 1.83501 2.34169)
(2.51823e-15 2.69702 2.84974)
(-6.64727e-15 3.11241 3.41223)
(1.07798e-16 0.552243 2.87597)
(-7.24593e-18 -2.86116 -1.15239)
(-4.07623e-16 -3.95201 -0.570085)
(-2.86793e-14 0.0707419 0.217253)
(-5.07031e-14 0.127304 0.242108)
(-3.19006e-14 0.167579 0.279962)
(5.15569e-14 0.213239 0.333269)
(1.31874e-13 0.263769 0.401014)
(8.38801e-14 0.322334 0.485935)
(-3.97662e-14 0.390862 0.590062)
(-3.73335e-14 0.471442 0.716832)
(8.92794e-14 0.566007 0.871567)
(1.751e-13 0.67402 1.06025)
(1.81122e-13 0.790834 1.29927)
(1.55238e-13 0.905896 1.65389)
(1.45762e-13 1.07517 2.26623)
(7.55312e-14 1.50363 3.26564)
(-2.98005e-15 2.2666 4.83581)
(-8.00706e-15 2.89246 7.07048)
(-8.45257e-16 1.60648 7.36804)
(-2.10271e-15 -2.33037 0.967757)
(-2.30456e-15 -3.75706 -1.01063)
(-6.26631e-14 0.0640168 0.247104)
(-1.86423e-13 0.113546 0.280522)
(-3.01084e-13 0.147344 0.326317)
(-3.07656e-13 0.186831 0.390115)
(-1.77061e-13 0.230502 0.470253)
(-9.55316e-14 0.281254 0.570109)
(-2.01248e-13 0.34071 0.692222)
(-3.40568e-13 0.410455 0.840836)
(-3.35369e-13 0.491755 1.02129)
(-2.2598e-13 0.581549 1.23972)
(-9.65163e-14 0.660477 1.51721)
(3.3845e-14 0.684356 1.94945)
(1.1541e-13 0.680767 2.79009)
(6.01294e-14 0.81977 4.37995)
(-9.38075e-15 1.18635 7.21963)
(-8.70609e-15 2.06063 11.053)
(-3.99019e-15 2.75324 12.7634)
(-2.848e-15 0.806262 7.6903)
(8.19028e-16 -2.91805 -1.41963)
(-1.42709e-13 0.0552017 0.27751)
(-5.75471e-13 0.0965112 0.32178)
(-1.11051e-12 0.123344 0.37653)
(-1.38653e-12 0.155839 0.452298)
(-1.05494e-12 0.191752 0.54647)
(-5.35611e-13 0.233625 0.662999)
(-6.22392e-13 0.282683 0.804946)
(-1.26369e-12 0.34008 0.977277)
(-1.65113e-12 0.406743 1.18577)
(-1.47074e-12 0.476051 1.43768)
(-9.95076e-13 0.50562 1.75701)
(-4.39571e-13 0.391347 2.25316)
(-4.34882e-14 0.0885691 3.20581)
(3.56719e-14 -0.264455 4.88182)
(-7.73634e-15 -0.308063 7.88978)
(-1.34142e-14 0.983434 11.2862)
(-1.57724e-14 3.02969 12.3392)
(-1.07267e-14 2.97434 12.5373)
(5.76817e-15 0.141417 12.3257)
(-3.20544e-13 0.043686 0.309666)
(-1.42343e-12 0.0753386 0.367366)
(-2.71963e-12 0.0947666 0.432327)
(-3.27186e-12 0.119292 0.521795)
(-2.34596e-12 0.146422 0.631836)
(-1.14173e-12 0.178198 0.767343)
(-1.54067e-12 0.215429 0.931702)
(-3.19745e-12 0.258742 1.13027)
(-4.11648e-12 0.308316 1.36987)
(-3.69293e-12 0.354037 1.66039)
(-2.6779e-12 0.338099 2.01606)
(-1.45039e-12 0.121738 2.4382)
(-3.36109e-13 -0.361153 2.85864)
(4.1445e-14 -0.955084 3.3534)
(6.59717e-15 -1.2568 4.33755)
(-2.20774e-14 0.186645 3.97773)
(2.94838e-15 2.03234 2.97577)
(-2.245e-14 0.255178 7.78585)
(2.12483e-14 -3.46169 14.1762)
(-6.34365e-13 0.028723 0.343883)
(-2.63328e-12 0.0489861 0.417355)
(-4.57175e-12 0.0606758 0.493851)
(-4.91764e-12 0.0761329 0.598551)
(-3.13116e-12 0.0932459 0.726069)
(-1.70761e-12 0.113474 0.882676)
(-3.09255e-12 0.137352 1.07194)
(-5.84186e-12 0.164622 1.29961)
(-6.94353e-12 0.194282 1.57292)
(-6.13568e-12 0.217432 1.90015)
(-4.80019e-12 0.195102 2.27496)
(-3.16315e-12 0.0384842 2.60691)
(-1.28393e-12 -0.328177 2.61879)
(-1.87276e-13 -0.85065 2.16748)
(4.22157e-15 -0.907517 1.63146)
(8.84091e-14 1.15866 0.617227)
(2.30315e-13 1.6752 1.50869)
(-7.57721e-14 -0.793633 5.27292)
(1.76634e-14 -2.18941 6.59188)
(-8.0345e-13 0.0106012 0.375181)
(-2.76016e-12 0.0178277 0.463636)
(-4.09092e-12 0.0218399 0.55068)
(-3.73302e-12 0.0273722 0.669188)
(-2.1853e-12 0.033419 0.812453)
(-2.03234e-12 0.040653 0.98792)
(-4.40986e-12 0.0494626 1.20027)
(-7.07783e-12 0.0591887 1.45738)
(-7.68094e-12 0.0685614 1.76321)
(-6.79297e-12 0.0726429 2.12011)
(-5.81173e-12 0.0524833 2.49846)
(-4.35405e-12 -0.0338508 2.75859)
(-1.80726e-12 -0.224872 2.50108)
(2.72577e-13 -0.489037 1.288)
(6.55899e-13 -0.535638 -0.295594)
(7.84214e-13 -0.0191028 -1.24515)
(4.47989e-13 0.0171753 1.1613)
(-1.54873e-13 -0.813505 2.75448)
(-6.07867e-14 -0.259636 -0.795596)
(8.05892e-13 -0.0111405 0.374768)
(2.77185e-12 -0.0184559 0.462888)
(4.13436e-12 -0.0224481 0.549555)
(3.66024e-12 -0.0278381 0.667497)
(1.31163e-12 -0.0339198 0.809886)
(-9.82806e-13 -0.0413312 0.984101)
(-1.95754e-12 -0.0501633 1.19577)
(-2.27841e-12 -0.0603566 1.45413)
(-2.44916e-12 -0.0707381 1.76019)
(-2.14945e-12 -0.0755969 2.11565)
(-1.58058e-12 -0.0549245 2.49208)
(-9.73379e-13 0.0327508 2.75312)
(-3.01488e-13 0.222045 2.49942)
(6.2795e-14 0.477787 1.27951)
(7.3411e-14 0.489408 -0.323657)
(1.17761e-13 -0.0609809 -1.35202)
(1.50574e-13 -0.0916958 0.957175)
(-5.57495e-14 0.790385 2.67648)
(-2.16378e-14 0.295614 -0.850065)
(6.44559e-13 -0.0293131 0.343834)
(2.67063e-12 -0.0496757 0.417152)
(4.63722e-12 -0.0613337 0.493586)
(4.91947e-12 -0.0765929 0.598297)
(2.69189e-12 -0.0935108 0.725808)
(-7.48407e-15 -0.113802 0.882008)
(-8.79989e-13 -0.138074 1.07061)
(-4.90192e-13 -0.165863 1.29883)
(-3.61067e-13 -0.19566 1.57101)
(-3.67632e-13 -0.21892 1.8958)
(-1.79233e-13 -0.197064 2.26776)
(-3.25137e-14 -0.0415147 2.59879)
(5.01198e-14 0.325977 2.61432)
(1.50936e-14 0.852615 2.15629)
(-2.84987e-14 0.905093 1.60383)
(-1.51826e-14 -1.2238 0.449506)
(1.29238e-14 -1.76975 1.23759)
(-1.08812e-14 0.776873 5.0315)
(-1.16672e-14 2.19273 6.51248)
(3.29773e-13 -0.0441559 0.310212)
(1.45768e-12 -0.0759286 0.368015)
(2.77194e-12 -0.0953101 0.433125)
(3.29112e-12 -0.119647 0.522785)
(2.1664e-12 -0.146566 0.633062)
(3.83368e-13 -0.178358 0.768872)
(-3.27424e-13 -0.21598 0.932914)
(2.30909e-14 -0.259584 1.1304)
(2.48154e-13 -0.309088 1.36836)
(1.91689e-13 -0.354929 1.65803)
(1.83427e-13 -0.339421 2.01378)
(1.36812e-13 -0.124718 2.43556)
(7.04128e-14 0.358089 2.8547)
(1.5288e-14 0.95654 3.34445)
(-2.19926e-15 1.27003 4.32565)
(-1.60134e-15 -0.178148 3.90874)
(-6.7707e-15 -2.07632 2.7402)
(-6.50842e-15 -0.344482 7.4786)
(-1.74462e-14 3.36049 14.1177)
(1.45664e-13 -0.0556835 0.278252)
(5.90696e-13 -0.0971631 0.322727)
(1.13324e-12 -0.123929 0.377526)
(1.39305e-12 -0.156228 0.453301)
(9.82101e-13 -0.191977 0.547477)
(2.47773e-13 -0.2338 0.664195)
(-6.77722e-14 -0.282928 0.805951)
(1.08627e-13 -0.340329 0.97728)
(2.62192e-13 -0.406981 1.18441)
(2.45561e-13 -0.476936 1.43657)
(1.92369e-13 -0.506985 1.75731)
(1.17403e-13 -0.393032 2.25402)
(5.05052e-14 -0.0878036 3.20391)
(8.13046e-15 0.272379 4.87118)
(-3.95706e-16 0.328528 7.87033)
(5.66672e-15 -0.96071 11.2525)
(8.17953e-15 -3.0365 12.2596)
(8.95885e-15 -3.04391 12.4712)
(-6.42414e-15 -0.22879 12.3804)
(6.14029e-14 -0.0645428 0.247778)
(1.88492e-13 -0.114255 0.281436)
(3.04486e-13 -0.147935 0.327195)
(3.03237e-13 -0.187222 0.390969)
(1.43378e-13 -0.230757 0.471123)
(-5.15581e-15 -0.281425 0.570961)
(4.79655e-15 -0.340775 0.692872)
(8.96418e-14 -0.410399 0.840997)
(1.39835e-13 -0.491942 1.02083)
(1.50038e-13 -0.583046 1.23999)
(1.13283e-13 -0.662588 1.51957)
(6.69431e-14 -0.686411 1.95322)
(3.17472e-14 -0.680194 2.79382)
(7.08796e-15 -0.811937 4.38319)
(5.17039e-16 -1.16558 7.22837)
(4.62069e-15 -2.03794 11.0752)
(7.28488e-15 -2.78453 12.8283)
(5.21753e-15 -0.939644 7.83833)
(1.3618e-16 2.8197 -1.3747)
(2.58009e-14 -0.0713022 0.217769)
(4.75436e-14 -0.128034 0.242816)
(2.78748e-14 -0.168152 0.280663)
(-5.93878e-14 -0.213642 0.334039)
(-1.49678e-13 -0.264023 0.401878)
(-1.18579e-13 -0.322447 0.486697)
(1.81953e-15 -0.390847 0.590737)
(5.46079e-14 -0.471346 0.71766)
(4.96369e-14 -0.566259 0.872315)
(6.10747e-14 -0.676111 1.06177)
(4.52882e-14 -0.793826 1.30365)
(2.69258e-14 -0.908399 1.66017)
(1.3788e-14 -1.07487 2.27358)
(3.94364e-15 -1.49747 3.27508)
(6.31891e-16 -2.25302 4.8547)
(2.46188e-15 -2.88568 7.11047)
(2.87749e-15 -1.65663 7.47098)
(-5.91089e-16 2.25667 1.10182)
(-1.14547e-15 3.71115 -1.02504)
(1.1576e-14 -0.0760971 0.186914)
(9.79981e-15 -0.138643 0.205413)
(-2.12365e-14 -0.184506 0.236398)
(-8.92462e-14 -0.235342 0.280585)
(-1.41135e-13 -0.291566 0.337259)
(-1.00523e-13 -0.356576 0.408395)
(-6.27956e-15 -0.432686 0.495954)
(2.55954e-14 -0.522449 0.603048)
(1.07481e-14 -0.628844 0.733858)
(1.54334e-14 -0.754613 0.894755)
(1.04957e-14 -0.900825 1.09904)
(6.36472e-15 -1.07194 1.38234)
(2.99651e-15 -1.32191 1.8076)
(3.97731e-16 -1.83132 2.35299)
(2.5555e-16 -2.69062 2.87104)
(1.19456e-15 -3.11926 3.44897)
(1.14938e-15 -0.629672 2.96641)
(-3.96688e-17 2.80959 -1.10747)
(-3.36205e-17 3.91132 -0.571174)
(6.19997e-15 -0.080002 0.154383)
(2.77764e-15 -0.147567 0.168104)
(-1.37411e-14 -0.198661 0.192987)
(-4.54255e-14 -0.254205 0.228769)
(-6.74775e-14 -0.315558 0.27497)
(-4.73597e-14 -0.38635 0.333199)
(-4.72741e-15 -0.469225 0.405065)
(8.47039e-15 -0.567135 0.493075)
(6.20574e-17 -0.683678 0.600801)
(4.81576e-16 -0.823015 0.733374)
(-7.5635e-16 -0.990134 0.899716)
(-4.64799e-16 -1.19458 1.117)
(-8.07661e-16 -1.47289 1.40492)
(-1.24931e-15 -1.94011 1.69012)
(-1.56424e-16 -2.67166 1.67935)
(5.96002e-16 -2.95392 1.22038)
(4.96559e-16 0.403621 0.0201399)
(-1.11927e-16 3.09888 -1.41784)
(-1.65988e-17 3.76414 -0.601753)
(4.01197e-15 -0.0821137 0.120183)
(2.13677e-15 -0.153346 0.132085)
(-4.09924e-15 -0.208164 0.152182)
(-1.44928e-14 -0.267101 0.180932)
(-2.02158e-14 -0.332126 0.218185)
(-1.25765e-14 -0.407058 0.26522)
(-6.62595e-16 -0.494728 0.323375)
(1.33721e-15 -0.598416 0.394629)
(-1.16071e-15 -0.722149 0.482036)
(-1.81092e-15 -0.870801 0.589506)
(-2.0981e-15 -1.05064 0.722856)
(-1.34003e-15 -1.27158 0.88906)
(-1.14688e-15 -1.55456 1.08856)
(-1.22068e-15 -1.95152 1.24977)
(-2.94233e-16 -2.4796 1.09447)
(2.82704e-16 -2.60413 0.314216)
(1.63478e-16 0.645773 -1.35054)
(-1.01361e-16 3.11301 -1.26554)
(-1.72655e-17 3.55899 -0.615995)
(2.17626e-15 -0.0853353 0.0737366)
(1.2858e-15 -0.160599 0.0814971)
(-3.16691e-16 -0.219239 0.0941684)
(-1.91591e-15 -0.281931 0.112129)
(-1.51217e-15 -0.351126 0.135714)
(7.65642e-16 -0.430753 0.16562)
(1.15087e-15 -0.523895 0.202761)
(-4.96206e-16 -0.634199 0.24845)
(-5.16564e-16 -0.766081 0.304671)
(-8.97031e-16 -0.92482 0.3738)
(-9.21501e-16 -1.11659 0.458909)
(-6.07902e-16 -1.34887 0.561704)
(-5.07839e-16 -1.62774 0.676563)
(-5.11916e-16 -1.94811 0.759273)
(-1.59876e-16 -2.23232 0.65187)
(8.72829e-17 -1.99994 0.106887)
(-3.91129e-18 0.899458 -1.16811)
(-8.6454e-17 2.75452 -1.01263)
(-2.59971e-17 3.28099 -0.785962)
(-6.2504e-16 7.66595 14.1714)
(-4.62604e-14 9.96999 15.6671)
(-4.37985e-14 9.0786 15.3066)
(-3.83164e-14 9.50883 14.6616)
(-3.4643e-14 9.13529 14.6957)
(-8.40509e-14 9.30851 14.613)
(-9.0879e-14 9.14422 14.7574)
(-7.44651e-14 9.27899 14.885)
(-6.88763e-14 9.18274 14.9277)
(-6.80164e-14 9.13579 14.9286)
(-6.76408e-14 9.11661 14.9445)
(-6.71966e-14 9.04608 15.0044)
(-6.67277e-14 9.14746 14.963)
(-6.61723e-14 8.84801 15.1561)
(-6.4963e-14 9.35089 14.8857)
(-6.40284e-14 8.39605 15.4244)
(-6.31423e-14 9.7903 14.6351)
(-6.11063e-14 7.83278 16.0062)
(-6.0073e-14 10.1461 14.0528)
(-1.23394e-14 9.90882 21.0383)
(1.77417e-15 7.51847 14.0753)
(1.72769e-14 9.34673 14.8997)
(1.62948e-14 8.11746 15.14)
(1.33746e-14 8.97561 14.6008)
(1.25244e-14 8.34681 14.9426)
(-1.24554e-14 8.7504 14.684)
(-1.84993e-14 8.55949 14.8126)
(-1.46654e-14 8.61732 14.6832)
(-1.45187e-14 8.58195 14.6858)
(-1.46258e-14 8.58869 14.6836)
(-1.45927e-14 8.60745 14.6707)
(-1.49538e-14 8.5534 14.7013)
(-1.50665e-14 8.69771 14.6181)
(-1.55104e-14 8.38913 14.8017)
(-1.51325e-14 8.9776 14.4568)
(-1.48371e-14 7.97872 15.0313)
(-1.49361e-14 9.51537 14.1521)
(-1.51621e-14 7.5511 15.6612)
(-2.29252e-14 9.17482 12.2418)
(-6.10976e-15 9.11925 19.6497)
(-3.17627e-16 7.79378 15.0068)
(7.56291e-15 9.67758 15.0493)
(4.98128e-15 7.97149 15.1865)
(4.82243e-15 9.05314 14.4851)
(4.73805e-15 8.21137 14.9511)
(1.24762e-14 8.73496 14.6409)
(1.16143e-14 8.42442 14.8214)
(9.04866e-15 8.58521 14.7662)
(8.37795e-15 8.53256 14.811)
(8.60413e-15 8.54575 14.8078)
(8.50352e-15 8.56089 14.8075)
(8.42847e-15 8.51358 14.8472)
(8.2153e-15 8.65847 14.7761)
(7.9166e-15 8.35291 14.9747)
(7.85338e-15 8.96936 14.6317)
(7.66184e-15 7.92742 15.2525)
(7.43336e-15 9.58074 14.3443)
(7.24715e-15 7.44589 15.9176)
(4.78225e-15 9.45212 12.7562)
(1.86188e-15 8.92841 19.4577)
(-3.2638e-16 8.00074 15.6481)
(-3.63242e-15 9.61387 14.7185)
(-2.89385e-15 7.84463 15.1779)
(-2.71786e-15 9.10511 14.4397)
(-2.58862e-15 8.19074 14.9266)
(4.80805e-15 8.76316 14.6063)
(4.98087e-15 8.46435 14.7979)
(4.07736e-15 8.60734 14.7048)
(4.30726e-15 8.5537 14.7364)
(4.44408e-15 8.56784 14.7321)
(4.28233e-15 8.58079 14.7307)
(4.45208e-15 8.5388 14.7636)
(4.30311e-15 8.66548 14.6977)
(4.44906e-15 8.38723 14.8722)
(4.35234e-15 8.93544 14.5553)
(4.41257e-15 7.98272 15.1062)
(4.31508e-15 9.46656 14.2627)
(4.53745e-15 7.4898 15.6569)
(5.46766e-15 9.34067 12.7764)
(1.24555e-15 8.82977 19.0344)
(2.03945e-16 8.21093 16.2308)
(-4.16409e-16 9.67524 14.6858)
(-2.52378e-16 7.85335 15.2748)
(-2.01374e-16 9.17986 14.5102)
(-1.75992e-16 8.22221 15.0067)
(-2.099e-15 8.8029 14.6676)
(-1.71782e-15 8.48487 14.8456)
(-1.25856e-15 8.62923 14.7559)
(-1.20527e-15 8.57316 14.7822)
(-1.25213e-15 8.58271 14.7708)
(-1.22847e-15 8.59069 14.7634)
(-1.25664e-15 8.54897 14.7866)
(-1.23915e-15 8.6597 14.7187)
(-1.21959e-15 8.40043 14.8707)
(-1.23913e-15 8.89995 14.5743)
(-1.23287e-15 8.02661 15.0772)
(-1.19304e-15 9.38358 14.3069)
(-1.18962e-15 7.58021 15.5718)
(-6.84867e-16 9.202 12.8076)
(-4.03294e-16 8.70285 18.5248)
(-5.49596e-17 8.37652 16.6768)
(6.11191e-16 9.79424 14.775)
(4.91296e-16 7.85101 15.2896)
(4.35054e-16 9.19728 14.4898)
(3.56787e-16 8.22603 14.9888)
(-8.67736e-16 8.80154 14.6525)
(-9.61382e-16 8.48693 14.826)
(-9.21308e-16 8.6228 14.7371)
(-9.74677e-16 8.56681 14.7606)
(-9.4279e-16 8.57321 14.7492)
(-9.41535e-16 8.57734 14.7416)
(-9.36802e-16 8.53817 14.7604)
(-9.36717e-16 8.63502 14.6964)
(-9.54772e-16 8.39633 14.833)
(-9.2747e-16 8.85282 14.557)
(-9.40639e-16 8.04674 15.0199)
(-9.26471e-16 9.29734 14.304)
(-9.36331e-16 7.61928 15.4605)
(-1.15072e-15 9.10601 12.8609)
(-2.10624e-16 8.60523 18.107)
(8.07202e-18 8.57281 17.1145)
(-2.05441e-16 10.0376 15.1213)
(-1.78462e-16 7.94117 15.3572)
(-1.58067e-16 9.21872 14.5066)
(-1.17872e-16 8.28823 14.9719)
(7.38544e-16 8.81274 14.6607)
(7.29763e-16 8.52713 14.8077)
(6.56175e-16 8.63725 14.7292)
(6.72816e-16 8.58772 14.7431)
(6.59421e-16 8.5865 14.7316)
(6.56699e-16 8.58569 14.7217)
(6.57114e-16 8.54881 14.7352)
(6.56205e-16 8.6284 14.6782)
(6.60362e-16 8.41837 14.7966)
(6.50972e-16 8.81413 14.5517)
(6.57378e-16 8.10767 14.959)
(6.44012e-16 9.19936 14.3271)
(6.46047e-16 7.73251 15.3476)
(6.4771e-16 8.9756 12.9649)
(1.60282e-16 8.51304 17.5121)
(-4.85796e-19 8.811 17.5661)
(4.10694e-17 10.4295 15.7563)
(3.82127e-17 8.12158 15.4833)
(3.38628e-17 9.22216 14.4964)
(2.25671e-17 8.36422 14.9005)
(-2.39151e-16 8.81077 14.6363)
(-2.3251e-16 8.5708 14.7532)
(-2.06522e-16 8.64676 14.6912)
(-2.09497e-16 8.60576 14.6965)
(-2.06033e-16 8.59624 14.6878)
(-2.05321e-16 8.59009 14.6787)
(-2.05696e-16 8.55669 14.6887)
(-2.05555e-16 8.61729 14.6437)
(-2.0619e-16 8.44202 14.7454)
(-2.04318e-16 8.76845 14.5398)
(-2.0637e-16 8.17548 14.8864)
(-2.02023e-16 9.08979 14.3511)
(-2.02836e-16 7.86194 15.2305)
(-1.84837e-16 8.84276 13.1145)
(-5.10651e-17 8.39641 16.8166)
(-5.62025e-20 9.12578 18.1035)
(-5.71168e-18 11.0417 16.7835)
(-5.66319e-18 8.45196 15.7674)
(-5.0338e-18 9.22893 14.4692)
(-3.01217e-18 8.45565 14.7597)
(4.79464e-17 8.80172 14.5639)
(4.72347e-17 8.62174 14.6486)
(4.17974e-17 8.65715 14.6084)
(4.21144e-17 8.62505 14.6065)
(4.15659e-17 8.60645 14.6021)
(4.15066e-17 8.59354 14.5969)
(4.16326e-17 8.56405 14.6051)
(4.1669e-17 8.60187 14.5758)
(4.17931e-17 8.46635 14.6593)
(4.15554e-17 8.71092 14.5026)
(4.20571e-17 8.24949 14.7802)
(4.11555e-17 8.95823 14.3608)
(4.1531e-17 8.00822 15.0814)
(3.53733e-17 8.69451 13.2986)
(1.06089e-17 8.23582 15.9612)
(1.76582e-20 9.5643 18.8389)
(5.8791e-19 11.9647 18.297)
(6.14895e-19 8.95962 16.31)
(5.49879e-19 9.25943 14.433)
(3.04717e-19 8.53253 14.5376)
(-6.67813e-18 8.78198 14.4199)
(-6.80872e-18 8.66497 14.4837)
(-6.03617e-18 8.66382 14.4655)
(-6.05222e-18 8.63755 14.4601)
(-6.00512e-18 8.61102 14.4601)
(-6.01939e-18 8.58944 14.4608)
(-6.05378e-18 8.56362 14.4687)
(-6.07789e-18 8.57516 14.4571)
(-6.11139e-18 8.48037 14.5208)
(-6.09923e-18 8.63501 14.4198)
(-6.19706e-18 8.31414 14.6247)
(-6.06681e-18 8.80284 14.337)
(-6.16507e-18 8.14697 14.8888)
(-4.97514e-18 8.53852 13.497)
(-1.60716e-18 8.00684 14.9607)
(-2.32336e-21 10.1979 19.9867)
(-4.64538e-20 13.2347 20.2511)
(-5.05129e-20 9.53761 17.0994)
(-4.53237e-20 9.30318 14.3857)
(-2.40789e-20 8.54311 14.2669)
(6.78725e-19 8.7411 14.2124)
(7.25695e-19 8.67956 14.2736)
(6.48719e-19 8.65736 14.2691)
(6.48459e-19 8.63375 14.2595)
(6.48161e-19 8.60248 14.259)
(6.53681e-19 8.5719 14.2627)
(6.60804e-19 8.54849 14.2677)
(6.67191e-19 8.53296 14.2706)
(6.74653e-19 8.47477 14.3121)
(6.77225e-19 8.54018 14.2663)
(6.92625e-19 8.35296 14.398)
(6.80099e-19 8.62549 14.2449)
(6.97512e-19 8.24968 14.628)
(5.37884e-19 8.37682 13.666)
(1.87159e-19 7.69018 13.8371)
(2.02248e-22 11.1008 21.8346)
(2.9244e-21 14.6274 22.1804)
(3.25682e-21 9.82086 17.8472)
(2.89326e-21 9.32767 14.3292)
(1.4271e-21 8.46727 14.1119)
(-5.22273e-20 8.70341 14.0585)
(-5.84644e-20 8.67396 14.1143)
(-5.29616e-20 8.64908 14.0954)
(-5.28568e-20 8.62584 14.0639)
(-5.32528e-20 8.59118 14.0449)
(-5.41257e-20 8.55182 14.0357)
(-5.51267e-20 8.52686 14.0254)
(-5.61344e-20 8.4863 14.0285)
(-5.727e-20 8.45214 14.0408)
(-5.80325e-20 8.43977 14.0327)
(-5.99498e-20 8.35336 14.0917)
(-5.93615e-20 8.43865 14.0454)
(-6.16647e-20 8.27933 14.2683)
(-4.61501e-20 8.19607 13.703)
(-1.72656e-20 7.26135 12.6325)
(-1.3251e-23 12.2142 24.3435)
(-1.54212e-22 15.436 23.038)
(-1.72858e-22 9.45587 18.1666)
(-1.47555e-22 9.4671 14.4658)
(-5.54877e-23 8.46486 14.4068)
(3.15032e-21 8.81181 14.2036)
(3.63354e-21 8.75683 14.1857)
(3.32719e-21 8.72508 14.0855)
(3.3068e-21 8.68858 13.9806)
(3.34822e-21 8.63782 13.899)
(3.42693e-21 8.5803 13.8389)
(3.5188e-21 8.53981 13.7836)
(3.62059e-21 8.4712 13.7554)
(3.73694e-21 8.43444 13.721)
(3.83973e-21 8.35807 13.71)
(4.0231e-21 8.31013 13.693)
(4.05173e-21 8.25353 13.6858)
(4.29302e-21 8.1915 13.7565)
(3.19803e-21 7.93377 13.413)
(1.28731e-21 6.66776 11.3312)
(7.13334e-25 13.1708 26.4688)
(6.98488e-24 14.9743 22.2152)
(7.49975e-24 9.14369 18.5206)
(5.955e-24 10.1179 15.4164)
(1.13417e-24 8.94364 15.4285)
(-1.50599e-22 9.30677 14.8975)
(-1.74992e-22 9.1574 14.6675)
(-1.60216e-22 9.06679 14.3853)
(-1.57409e-22 8.97533 14.1214)
(-1.59147e-22 8.87048 13.9053)
(-1.634e-22 8.76382 13.7322)
(-1.68874e-22 8.67461 13.5816)
(-1.75649e-22 8.55779 13.4713)
(-1.83767e-22 8.47418 13.3565)
(-1.92399e-22 8.33154 13.2825)
(-2.05564e-22 8.24038 13.172)
(-2.12987e-22 8.07154 13.1092)
(-2.32872e-22 7.95635 13.0162)
(-1.79448e-22 7.49981 12.6052)
(-7.92311e-23 5.85532 9.78941)
(-3.26561e-26 13.4656 26.6565)
(-2.61388e-25 14.2421 21.7132)
(-2.61667e-25 10.3157 20.0402)
(-1.81862e-25 11.2989 17.4156)
(8.84338e-27 10.145 17.0091)
(5.44884e-24 10.2799 16.1401)
(6.34718e-24 10.0144 15.5745)
(5.76431e-24 9.79313 15.0229)
(5.54895e-24 9.58953 14.5171)
(5.55537e-24 9.38008 14.0897)
(5.68976e-24 9.17718 13.7323)
(5.90127e-24 8.99054 13.4223)
(6.20134e-24 8.78506 13.164)
(6.58873e-24 8.59696 12.9158)
(7.06511e-24 8.35652 12.706)
(7.75464e-24 8.13919 12.4572)
(8.37801e-24 7.83771 12.24)
(9.61687e-24 7.54041 11.932)
(8.00307e-24 6.80584 11.2006)
(4.10168e-24 4.76879 7.78661)
(1.14426e-27 13.2013 25.6842)
(7.45849e-27 15.2366 23.6383)
(7.29549e-27 12.2283 22.3908)
(4.71853e-27 12.7972 19.7737)
(-1.44327e-27 11.6584 18.877)
(-1.46344e-25 11.5131 17.6548)
(-1.70152e-25 11.0992 16.7206)
(-1.52043e-25 10.7247 15.8406)
(-1.4186e-25 10.3759 15.0387)
(-1.38935e-25 10.0318 14.3358)
(-1.40543e-25 9.69738 13.7212)
(-1.45262e-25 9.37097 13.1736)
(-1.53564e-25 9.03088 12.6829)
(-1.65589e-25 8.68046 12.2184)
(-1.82447e-25 8.28681 11.7778)
(-2.07387e-25 7.86581 11.3033)
(-2.37075e-25 7.35774 10.8226)
(-2.9215e-25 6.79945 10.1989)
(-2.74389e-25 5.68828 9.05667)
(-1.80816e-25 3.31009 4.92964)
(-2.91538e-29 13.1229 26.5877)
(-1.66463e-28 17.1455 25.4568)
(-1.57954e-28 13.1112 24.7111)
(-9.21972e-29 14.226 21.7775)
(7.25752e-29 12.5831 20.8583)
(3.24389e-27 12.4249 19.2211)
(3.67788e-27 11.7559 18.0098)
(3.18012e-27 11.2685 16.7897)
(2.83115e-27 10.7808 15.6795)
(2.65599e-27 10.3164 14.6553)
(2.59234e-27 9.86196 13.71)
(2.60649e-27 9.40589 12.8271)
(2.70486e-27 8.93573 11.9895)
(2.89202e-27 8.42745 11.1794)
(3.20126e-27 7.87686 10.3682)
(3.69596e-27 7.24809 9.52781)
(4.39502e-27 6.52618 8.6467)
(5.75479e-27 5.72808 7.57466)
(6.34651e-27 4.09073 5.85607)
(4.51991e-27 1.61347 0.806576)
(5.94169e-31 13.1431 29.524)
(3.24351e-30 18.3341 26.0797)
(2.99051e-30 12.8479 26.6235)
(1.5262e-30 14.7384 23.681)
(-4.22164e-30 12.3636 22.9682)
(-8.46216e-29 12.3033 21.1488)
(-9.10013e-29 11.2871 19.9659)
(-7.64964e-29 10.7413 18.6006)
(-6.58124e-29 10.0986 17.3681)
(-5.92541e-29 9.53215 16.1468)
(-5.51861e-29 8.97785 14.9581)
(-5.2759e-29 8.43395 13.7822)
(-5.19555e-29 7.88742 12.6022)
(-5.26587e-29 7.30975 11.4053)
(-5.52164e-29 6.70697 10.1602)
(-6.00792e-29 6.04839 8.88817)
(-6.70462e-29 5.35813 7.56002)
(-8.23319e-29 4.41828 5.76426)
(-1.06376e-28 1.73212 2.29442)
(1.38758e-27 -0.134787 -3.48173)
(-9.58618e-33 11.088 28.8872)
(-4.39337e-32 17.2706 24.6672)
(-3.67608e-32 12.007 25.3506)
(-1.89735e-33 12.9319 23.4241)
(1.89182e-31 11.1368 22.6534)
(1.20427e-30 10.6093 21.5011)
(1.11155e-30 9.69348 20.5832)
(8.70883e-31 9.03173 19.6161)
(7.20686e-31 8.36113 18.6985)
(6.27857e-31 7.77099 17.7708)
(5.69146e-31 7.21433 16.8389)
(5.33263e-31 6.69361 15.8788)
(5.17852e-31 6.18996 14.873)
(5.20643e-31 5.69103 13.8017)
(5.45458e-31 5.20182 12.6706)
(6.07888e-31 4.76566 11.5403)
(8.32036e-31 4.28464 10.2816)
(2.7761e-30 2.86241 7.33273)
(2.73209e-29 -1.29937 -0.421105)
(2.12191e-28 -3.6881 -7.29858)
(1.19328e-34 2.64684 17.0722)
(3.10118e-34 8.03995 13.6975)
(1.61449e-34 5.12163 14.5388)
(-3.707e-34 4.93286 14.105)
(-2.388e-33 3.9929 14.0519)
(-7.5777e-33 3.4381 13.8602)
(-6.05626e-33 2.86416 13.696)
(-4.45025e-33 2.40905 13.502)
(-3.51508e-33 2.01412 13.297)
(-2.94544e-33 1.69675 13.0677)
(-2.58722e-33 1.44619 12.8132)
(-2.36836e-33 1.26396 12.5249)
(-2.2637e-33 1.14586 12.1949)
(-2.2575e-33 1.09783 11.8158)
(-2.35703e-33 1.14343 11.3955)
(-2.48996e-33 1.27268 10.9917)
(-1.58032e-33 1.48796 10.6169)
(1.16121e-32 1.9787 9.93418)
(1.63114e-31 2.0158 8.49736)
(1.48886e-30 -0.44737 5.68728)
(-1.18952e-34 -2.6462 17.0714)
(-3.08874e-34 -8.04026 13.6973)
(-1.5928e-34 -5.12236 14.5393)
(3.74685e-34 -4.93418 14.1063)
(2.39859e-33 -3.99451 14.0538)
(7.58935e-33 -3.43977 13.8625)
(6.05481e-33 -2.86573 13.6987)
(4.44945e-33 -2.41052 13.5051)
(3.5241e-33 -2.01543 13.3005)
(2.96393e-33 -1.69777 13.0715)
(2.60747e-33 -1.44683 12.8172)
(2.38694e-33 -1.26411 12.5288)
(2.27801e-33 -1.1454 12.1985)
(2.26841e-33 -1.09661 11.8187)
(2.36603e-33 -1.14121 11.397)
(2.5123e-33 -1.26932 10.9914)
(1.62384e-33 -1.48392 10.615)
(-1.28956e-32 -1.97525 9.93151)
(-1.87446e-31 -2.01336 8.49466)
(-1.68984e-30 0.448671 5.6853)
(9.56197e-33 -11.0862 28.8818)
(4.38183e-32 -17.267 24.6655)
(3.6524e-32 -12.0055 25.3485)
(1.49036e-33 -12.93 23.4237)
(-1.90939e-31 -11.1356 22.6538)
(-1.20558e-30 -10.6082 21.5028)
(-1.11205e-30 -9.69279 20.5861)
(-8.71316e-31 -9.03073 19.6198)
(-7.22208e-31 -8.35967 18.7023)
(-6.31574e-31 -7.76896 17.7748)
(-5.73585e-31 -7.21167 16.8428)
(-5.37656e-31 -6.69021 15.8825)
(-5.21482e-31 -6.18569 14.8762)
(-5.23552e-31 -5.68579 13.804)
(-5.46886e-31 -5.19553 12.6717)
(-6.07245e-31 -4.75753 11.5384)
(-8.38513e-31 -4.27175 10.273)
(-3.01552e-30 -2.84406 7.31693)
(-3.0707e-29 1.31394 -0.431024)
(-2.32882e-28 3.69193 -7.29944)
(-5.92743e-31 -13.1459 29.529)
(-3.23803e-30 -18.3274 26.0763)
(-2.97859e-30 -12.846 26.6239)
(-1.50793e-30 -14.7343 23.6844)
(4.3521e-30 -12.3591 22.9726)
(8.45438e-29 -12.2994 21.1532)
(9.0898e-29 -11.2813 19.9731)
(7.65555e-29 -10.7364 18.6083)
(6.58915e-29 -10.0925 17.3764)
(5.95556e-29 -9.52559 16.1547)
(5.55873e-29 -8.97039 14.9653)