/*--------------------------------*- C++ -*----------------------------------*\
| =========                 |                                                 |
| \\      /  F ield         | OpenFOAM: The Open Source CFD Toolbox           |
|  \\    /   O peration     | Version:  4.1                                   |
|   \\  /    A nd           | Web:      www.OpenFOAM.org                      |
|    \\/     M anipulation  |                                                 |
\*---------------------------------------------------------------------------*/
FoamFile
{
    version     2.0;
    format      ascii;
    class       volScalarField;
    location    "7";
    object      p;
}
// * * * * * * * * * * * * * * * * * * * * * * * * * * * * * * * * * * * * * //

dimensions      [0 2 -2 0 0 0 0];

internalField   nonuniform List<scalar> 
1280
(
0.0445025
0.0666088
0.110369
0.103156
0.0792309
0.0470857
-0.0512546
-0.0933864
-0.202776
-0.434947
-0.717745
-0.870688
-1.5463
-2.31604
-2.60337
-5.33449
-7.5807
-8.40414
-14.0282
-21.8888
-17.6793
-1.18544
20.001
26.4597
26.3615
29.5346
12.5616
13.726
15.0419
14.9528
14.4563
13.8898
13.0514
11.942
10.666
9.09799
7.47517
5.21223
3.34173
-1.08531
-13.0542
-1.76042
3.57152
8.40551
18.7534
18.3824
18.4045
18.4046
18.3968
18.4632
18.4475
18.1732
18.3614
18.6088
18.6152
18.3933
8.04966
3.19066
-2.5143
-13.6076
-1.6813
2.85679
4.79764
7.14651
8.85625
10.5102
11.8753
13.0747
14.0028
14.6497
15.2444
15.4704
14.069
11.6367
29.7121
26.8839
27.3042
21.2112
0.146138
-16.4287
-20.7309
-12.8352
-8.70035
-8.43753
-5.57295
-3.70591
-3.81143
-2.22955
-1.55044
-1.67331
-0.799533
-0.455885
-0.491365
-0.372502
-0.0153994
0.0310456
0.0309898
0.213514
-0.0151491
0.00464235
-0.0222413
0.77673
0.961289
0.831977
0.184806
-0.774217
-1.22958
-0.941442
0.232272
1.63123
0.545293
-0.0732122
-0.564129
-1.53592
-3.08446
-2.22378
-0.0161688
0.289582
0.170884
0.0587272
1.26552
1.82656
1.82404
0.875133
-0.643405
-1.20965
-0.592442
1.49093
4.15284
1.98906
0.831727
-1.25759
-5.09373
-8.34771
-4.97864
-0.191195
0.57924
0.593117
0.337534
1.47776
2.29877
2.38764
1.17371
-0.947357
-1.61293
-0.648622
1.96214
5.2424
3.13662
1.01665
-3.01745
-11.0568
-14.2681
-6.8115
0.202372
0.960558
0.748094
0.66801
1.86191
3.06075
3.16418
1.5015
-1.31942
-2.31817
-1.20905
2.16814
6.12892
4.89696
1.64577
-4.57208
-18.1518
-22.4602
-9.60418
0.87068
1.66077
1.08959
1.13186
2.23814
3.87734
3.64154
0.913156
-2.3661
-3.78979
-1.8891
2.1325
6.45048
6.13204
2.44869
-5.67889
-23.9713
-26.2458
-11.8345
1.96912
2.56535
1.10635
1.81654
2.72819
4.75057
3.6222
-0.0713106
-3.68553
-7.13682
-3.37303
1.91391
6.62547
7.46951
3.80096
-5.59699
-25.9349
-25.4333
-12.5209
3.69835
4.85314
1.64631
2.70296
3.21299
5.15098
3.45092
-0.0221703
-5.15104
-9.81994
-5.75575
1.78623
7.53617
9.80525
5.70864
-4.10614
-23.7153
-23.6462
-11.6606
5.14669
5.47699
0.20906
3.77586
3.58228
5.33558
3.49208
0.351722
-6.69821
-11.119
-8.65808
1.89984
9.79515
12.7701
7.80051
-2.34313
-19.6198
-23.6353
-11.9314
7.93274
10.0264
1.17551
4.8505
3.80069
5.33004
3.45714
1.0059
-6.60331
-11.831
-11.1018
1.69339
12.7241
14.2264
9.18422
-0.969643
-13.2103
-17.2406
-8.61387
7.06702
19.3435
21.97
5.63283
3.77419
5.30523
3.58267
1.95753
-4.76544
-11.396
-12.2197
0.931023
14.6967
14.7145
10.0827
-0.415945
-9.7771
-11.2836
-2.16541
12.9813
32.4925
17.9499
5.58367
3.74104
5.40778
3.79751
2.83082
-2.33995
-9.05423
-11.1178
0.299805
13.7609
12.8963
8.09528
-1.53381
-8.51906
-8.22675
0.474071
13.0358
32.7927
18.4594
4.61793
3.54352
5.50445
4.01614
3.32819
-0.735569
-6.92573
-9.23601
0.572408
12.2766
10.9222
6.41901
-3.30505
-8.63146
-5.87767
3.20075
8.09367
18.5854
20.3939
3.58117
3.39345
5.50128
4.22738
3.62205
-0.0410667
-6.89459
-9.81815
-1.1087
10.6373
10.7692
6.20968
-6.27067
-9.79944
-5.32544
5.21255
8.33969
5.14245
-3.50303
2.54764
3.09965
5.24918
4.22777
3.5208
-0.170578
-8.35868
-10.3401
-2.55591
9.33376
8.35754
3.93928
-5.94612
-9.42584
-5.12554
4.33801
5.33797
1.06584
-3.5452
1.72506
2.74713
4.83946
4.15801
3.30465
-0.478169
-9.59252
-9.77925
-4.14331
6.33185
5.15165
2.46604
-2.97151
-7.87795
-3.85422
2.92648
3.80821
1.76055
-0.623757
1.07296
2.336
4.21445
4.03534
2.84337
-0.72863
-9.78012
-9.65026
-3.9508
4.22089
3.2426
2.29889
-0.214002
-3.44332
-1.81105
1.68382
2.15285
0.643613
-0.0136609
0.621389
1.93261
3.48424
3.97368
2.28852
-0.517594
-8.08027
-9.49711
-3.18456
2.71519
2.33453
2.21047
0.568929
-1.58548
-1.23424
0.826234
1.3506
0.561663
0.228185
0.307827
1.53893
2.67611
3.49956
1.36142
-0.357822
-5.3641
-8.15929
-2.39965
1.82561
1.78987
1.86003
0.649961
-0.711553
-0.58082
0.587138
0.939555
0.405054
0.178854
0.043083
1.30584
2.14066
2.78766
1.02252
0.260096
-2.23413
-5.42559
-1.53322
1.38451
1.42082
1.47809
0.582102
-0.386497
-0.41322
0.306778
0.624173
0.320657
0.170939
-0.0263115
0.794438
1.16424
1.16619
0.0755545
-0.415293
-0.643596
-2.00278
0.073864
1.11829
0.635405
0.604693
0.217556
-0.315875
-0.340253
0.0709235
0.262711
0.120774
0.0541773
67.2738
67.1524
65.4936
63.7021
61.3713
58.7534
55.8841
52.8745
49.979
47.3037
44.8867
42.6928
40.76
39.0873
37.6622
36.4967
35.5739
34.8814
34.4701
34.1643
30.7152
31.8875
31.1312
31.1892
31.2679
31.4056
31.542
31.5126
31.5079
31.3948
31.3024
31.1792
31.0591
30.9565
30.8539
30.7981
30.7445
30.7511
30.7535
30.8247
32.4287
32.9219
32.3946
32.5291
32.4974
32.471
32.5228
32.4776
32.5005
32.4733
32.4714
32.467
32.4672
32.4945
32.5168
32.5885
32.6444
32.7628
32.8514
32.9816
16.9166
18.4933
18.9469
19.8356
20.5656
21.1868
21.9082
22.4766
23.0876
23.6156
24.1242
24.5932
25.0231
25.4371
25.8031
26.1823
26.4892
26.8623
27.0989
27.5115
2.72959
5.12818
6.6683
8.19719
9.72515
10.9204
12.2921
13.4547
14.6248
15.6931
16.6908
17.6173
18.4653
19.2585
19.9715
20.659
21.2345
21.8445
22.2323
22.8372
-22.8118
-19.6448
-17.1016
-15.0669
-12.5265
-10.5819
-8.26545
-6.18838
-4.08201
-2.07254
-0.156648
1.66262
3.3691
4.984
6.4875
7.93913
9.24438
10.5656
11.5578
12.922
-57.3675
-55.8
-53.7084
-52.8796
-50.5706
-49.2165
-47.0357
-45.0805
-42.8019
-40.4303
-37.9224
-35.3323
-32.7119
-30.0858
-27.5072
-24.889
-22.2983
-19.315
-16.7731
-13.1333
-79.9687
-83.9976
-84.3724
-87.4451
-88.508
-91.2255
-92.8437
-94.9143
-96.1735
-96.9902
-96.9675
-96.1751
-94.5841
-92.3004
-89.4927
-86.3894
-83.4305
-80.2886
-77.619
-72.5654
-37.7916
-45.4419
-47.7846
-53.5949
-57.3786
-63.0491
-67.9832
-73.7776
-79.115
-84.4958
-89.3311
-93.6652
-97.1812
-99.7093
-101.056
-101.51
-100.989
-99.4672
-99.0672
-97.0798
38.0154
32.1455
30.3765
25.6445
22.8524
18.4464
14.981
10.8235
7.20885
3.53046
0.29552
-2.68501
-5.20565
-7.27246
-8.76951
-9.96331
-10.6729
-10.2466
-11.3799
-16.6717
80.8421
80.6416
81.5637
80.7704
81.8283
80.8988
80.9412
79.4832
77.9036
75.1086
71.3779
66.3429
60.2497
53.5079
46.936
41.307
37.2864
35.4871
35.3158
31.7285
50.9987
52.975
55.0424
55.4511
58.0828
58.9416
61.3032
62.8868
64.8966
66.5379
67.9488
68.7993
68.9255
68.0882
66.2717
63.7488
61.6411
60.4687
60.7666
60.4508
35.8534
37.3551
39.9203
39.5557
42.4271
42.5863
44.5197
45.399
46.6633
47.7227
48.7641
49.839
51.0275
52.4024
53.9669
55.6564
57.3309
59.0112
60.2408
61.6349
4.99494
6.13722
9.7048
9.12923
12.9143
13.1293
15.7849
17.0906
19.0282
20.7577
22.5368
24.3246
26.1169
27.9607
29.8596
31.9004
33.961
36.2561
38.0779
40.4842
-25.1124
-25.9549
-22.2803
-23.9825
-20.2534
-20.9158
-18.4304
-17.711
-16.0021
-14.6243
-13.0576
-11.4663
-9.81813
-8.06185
-6.20648
-4.10269
-1.95077
0.722723
3.04925
6.65489
-38.0036
-42.1032
-40.1078
-44.4704
-42.8894
-45.9055
-45.7649
-47.3551
-47.8857
-48.7501
-49.2704
-49.6629
-49.7323
-49.3289
-48.3203
-46.7265
-45.2293
-43.446
-42.0947
-38.6733
4.55277
-1.9263
-0.735648
-8.77839
-9.9815
-16.0524
-19.5032
-24.3788
-28.5285
-32.9496
-37.1141
-41.1576
-44.7999
-47.8011
-49.8731
-51.2557
-52.283
-53.032
-54.3779
-53.3561
28.2265
20.4363
28.3042
20.8253
22.5423
18.7523
17.1608
14.2223
11.5846
8.62984
5.68114
2.7368
-0.00584823
-2.30737
-3.96819
-5.19316
-6.18708
-7.13233
-8.90965
-10.944
41.0036
18.7514
27.0846
16.2428
13.7832
7.36066
2.66502
-2.39734
-6.7561
-10.6522
-13.8171
-16.1756
-17.5528
-17.7479
-16.5779
-14.2908
-11.2184
-7.07687
-3.16003
-1.91906
720.472
638.242
589.487
533.657
485.027
438.098
394.454
353.203
314.332
277.541
242.654
209.488
177.863
147.743
119.221
91.5219
64.6405
42.4618
17.6006
-18.7654
719.044
636.814
588.059
532.228
483.598
436.67
393.025
351.774
312.904
276.113
241.227
208.061
176.436
146.316
117.794
90.0943
63.2123
41.0326
16.1703
-20.1954
39.5622
17.3109
25.6442
14.8028
12.3434
5.92124
1.22581
-3.83632
-8.19495
-12.091
-15.2559
-17.6145
-18.9917
-19.1871
-18.0178
-15.7317
-12.6598
-8.51771
-4.5989
-3.35611
26.8144
19.0257
26.8949
19.4174
21.1359
17.3473
15.7575
12.8204
10.1841
7.23059
4.2831
1.33996
-1.40129
-3.70134
-5.36137
-6.5865
-7.57979
-8.52333
-10.2991
-12.3352
3.14684
-3.33352
-2.14338
-10.1872
-11.3911
-17.4627
-20.9143
-25.7905
-29.9409
-34.3624
-38.527
-42.5702
-46.2114
-49.2113
-51.2825
-52.6653
-53.6937
-54.4446
-55.7937
-54.775
-39.4532
-43.5546
-41.561
-45.9245
-44.3458
-47.3629
-47.2241
-48.8158
-49.348
-50.2141
-50.7361
-51.1304
-51.2013
-50.7996
-49.7931
-48.2026
-46.7096
-44.9289
-43.5786
-40.1579
-26.5861
-27.4301
-23.756
-25.4588
-21.7307
-22.3938
-19.9092
-19.1907
-17.4825
-16.1057
-14.5398
-12.9494
-11.3022
-9.54668
-7.69176
-5.58775
-3.43492
-0.759995
1.56726
5.1727
3.52199
4.66216
8.2278
7.65166
11.4355
11.6495
14.3044
15.6087
17.5454
19.2737
21.0516
22.8385
24.6303
26.4739
28.3725
30.4123
32.4707
34.7621
36.58
38.984
34.3118
35.8097
38.3722
38.0046
40.8731
41.029
42.9598
43.8382
45.1031
46.1671
47.2172
48.3039
49.5031
50.8864
52.4534
54.1395
55.8053
57.4779
58.7035
60.1001
49.4983
51.4822
53.5588
53.9742
56.6156
57.4815
59.8513
61.4444
63.4649
65.1136
66.5258
67.3669
67.4779
66.6241
64.7916
62.2605
60.1598
59.0129
59.3277
59.0218
79.3233
79.1479
80.0774
79.295
80.3588
79.4335
79.4752
78.0128
76.4246
73.6206
69.8871
64.86
58.7898
52.0833
45.552
39.957
35.9575
34.1619
33.9953
30.4365
36.9479
31.1075
29.3473
24.6339
21.8579
17.4707
14.0237
9.88446
6.28506
2.61813
-0.611697
-3.59139
-6.11542
-8.19457
-9.71536
-10.9316
-11.6415
-11.197
-12.302
-17.6027
-39.0118
-46.6803
-49.0378
-54.8664
-58.6684
-64.3577
-69.3104
-75.1197
-80.467
-85.8548
-90.6899
-95.0144
-98.514
-101.029
-102.355
-102.773
-102.226
-100.687
-100.291
-98.3321
-81.5418
-85.6044
-85.9839
-89.0659
-90.1369
-92.8596
-94.4796
-96.5463
-97.7954
-98.5999
-98.5641
-97.7605
-96.1626
-93.8804
-91.0807
-87.988
-85.0405
-81.9079
-79.2445
-74.1879
-59.0196
-57.459
-55.3591
-54.5278
-52.2133
-50.8552
-48.6699
-46.7116
-44.4306
-42.0586
-39.5523
-36.9661
-34.3514
-31.7311
-29.1562
-26.5388
-23.943
-20.9464
-18.3917
-14.736
-24.3313
-21.1525
-18.5954
-16.5522
-14.0018
-12.0489
-9.72472
-7.64081
-5.52862
-3.51397
-1.59336
0.230661
1.94236
3.56342
5.07454
6.53462
7.84929
9.17917
10.1803
11.5531
1.28675
3.69708
5.24858
6.78522
8.32058
9.52221
10.8999
12.0684
13.2439
14.3178
15.3208
16.2528
17.1061
17.9045
18.6225
19.3143
19.8937
20.5053
20.8952
21.4975
15.5199
17.1004
17.5597
18.4516
19.1843
19.808
20.5318
21.1028
21.7161
22.2465
22.7571
23.2279
23.6591
24.074
24.4404
24.8191
25.1254
25.496
25.7315
26.1396
30.9341
31.4317
30.9133
31.0548
31.0283
31.0079
31.0649
31.0248
31.0523
31.0293
31.0308
31.0291
31.0312
31.0595
31.0821
31.1531
31.208
31.3245
31.4118
31.541
29.2896
30.4418
29.6961
29.7618
29.8447
29.9863
30.1257
30.1012
30.101
29.9926
29.9047
29.7857
29.6693
29.5702
29.4706
29.4179
29.3667
29.3769
29.3802
29.4556
65.1662
65.1155
63.5512
61.8396
59.5756
57.0249
54.2019
51.2392
48.3974
45.7686
43.3885
41.2248
39.3163
37.6634
36.2535
35.1015
34.187
33.5053
33.0944
32.7964
)
;

boundaryField
{
    outletWall
    {
        type            fixedValue;
        value           uniform 0;
    }
    fineWalls
    {
        type            zeroGradient;
    }
    fineFrontAndBack
    {
        type            zeroGradient;
    }
    fineplugLeft
    {
        type            cyclicAMI;
        value           nonuniform List<scalar> 
20
(
27.1144
28.2444
28.9476
29.9541
31.0169
32.2629
33.6583
35.2183
36.9322
38.8006
40.8336
42.9916
45.0448
50.958
52.9096
54.3693
56.2536
56.3951
53.4849
50.2832
)
;
    }
    fineplugRight
    {
        type            cyclicAMI;
        value           nonuniform List<scalar> 
20
(
25.9009
27.0469
27.7638
28.7789
29.8525
31.1048
32.5058
34.068
35.7804
37.6407
39.6638
41.812
43.8052
49.3619
51.5623
53.0373
54.9325
55.0832
52.1216
48.8472
)
;
    }
    inletOutletLeft
    {
        type            cyclicAMI;
        value           nonuniform List<scalar> 
20
(
27.1144
28.2444
28.9476
29.9541
31.0169
32.2629
33.6583
35.2183
36.9322
38.8006
40.8336
42.9916
45.0448
50.958
52.9096
54.3693
56.2536
56.3951
53.4849
50.2832
)
;
    }
    inletLeft
    {
        type            zeroGradient;
    }
    inletWallsLeft
    {
        type            zeroGradient;
    }
    inletFacesLeft
    {
        type            zeroGradient;
    }
    inletOutletRight
    {
        type            cyclicAMI;
        value           nonuniform List<scalar> 
20
(
25.9009
27.0469
27.7638
28.7789
29.8525
31.1048
32.5058
34.068
35.7804
37.6407
39.6638
41.812
43.8052
49.3619
51.5623
53.0373
54.9325
55.0832
52.1216
48.8472
)
;
    }
    inletRight
    {
        type            zeroGradient;
    }
    inletWallsRight
    {
        type            zeroGradient;
    }
    inletFacesRight
    {
        type            zeroGradient;
    }
}


// ************************************************************************* //
