/*--------------------------------*- C++ -*----------------------------------*\
| =========                 |                                                 |
| \\      /  F ield         | OpenFOAM: The Open Source CFD Toolbox           |
|  \\    /   O peration     | Version:  4.1                                   |
|   \\  /    A nd           | Web:      www.OpenFOAM.org                      |
|    \\/     M anipulation  |                                                 |
\*---------------------------------------------------------------------------*/
FoamFile
{
    version     2.0;
    format      ascii;
    class       surfaceScalarField;
    location    "7";
    object      phi;
}
// * * * * * * * * * * * * * * * * * * * * * * * * * * * * * * * * * * * * * //

dimensions      [0 3 -1 0 0 0 0];

internalField   nonuniform List<scalar> 
2360
(
-752.07
174.388
-926.458
174.388
174.389
1155.49
-981.097
1155.49
1155.49
1155.49
2302.42
-1146.94
2302.42
2302.42
4043.6
-1741.18
4043.6
4043.6
7107.01
-3063.41
7107.02
7107.01
11904.1
-4797.09
11904.1
11904.1
12620.7
14260.4
16021.8
17602.9
19009.8
20301.1
15991
5543.01
17150.5
18242.1
19265
20220.9
21111.3
21937.9
22701.8
23403.8
24043.3
24618
25123.1
25536.7
25861.1
11658.1
14203
11658.1
11658.1
11658.1
56.762
11601.3
56.7957
56.8313
56.8418
26.8895
29.9531
26.8885
26.8887
-157.071
183.956
-157.068
-157.071
-157.068
-11844.7
11687.7
-11844.7
-11844.7
-11844.7
-25850.5
14005.7
-25528
-25115.8
-24612
-24038.6
-23400.3
-22699.6
-21937.1
-21112
-20223.1
-19268.6
-18247
-17156.3
-15997.2
-20516.8
5753.09
-19225.2
-17817.9
-16236.1
-14472.5
-12827.2
-12103.5
-12103.5
-12103.5
-8196.4
-3907.15
-8196.4
-8196.4
-5941.9
-2254.5
-5941.9
-5941.9
-4327.54
-1614.36
-4327.54
-4327.54
-2974.41
-1353.13
-2974.41
-2974.41
-2974.41
-1670.88
-1303.53
-1670.88
-1670.88
-304.163
-1366.71
-5091.96
5274.67
-5144.81
6050.43
-5081.58
4579.34
-4843.85
3471.75
-4458.73
2935.91
-4040
3988
-3637.45
5565.51
-3254.49
6733.54
-2831.15
6819.63
-1863.01
3810.65
-731.454
-4840.84
236.617
-7887.06
1262.15
-7650.51
1999.45
-2412.44
1936.64
5492.78
1642.71
7655.14
1393.32
6268.81
1282.84
4565.51
3379.57
-5223.82
5373.65
-5238.81
6065.42
-5016.5
4357.03
-4525.81
2981.05
-3984.26
2394.36
-3684.9
3688.64
-3522.89
5403.5
-3354.73
6565.38
-2970.3
6435.2
-1765.49
2605.84
-848.71
-5757.62
220.883
-8956.65
1775.4
-9205.03
2759.3
-3396.34
2265.9
5986.19
1513.37
8407.67
1198.94
6583.24
1186.29
4578.16
3262.33
-5392.32
5484.09
-5401.41
6074.51
-4975.53
3931.15
-4096.28
2101.81
-3299.85
1597.93
-3148.19
3536.98
-3295.64
5550.94
-3409.25
6678.99
-3216.04
6241.99
-2272.17
1661.97
-1443.44
-6586.36
-84.0878
-10316
1656.97
-10946.1
2845.87
-4585.24
2605.98
6226.07
1596
9417.65
1025.5
7153.74
1064.28
4539.38
2973.48
-5635.38
5590.19
-5618.2
6057.32
-4702.95
3015.91
-2715.91
114.768
-1345.79
227.815
-1850.83
4042.02
-2817.11
6517.22
-3472.17
7334.06
-3642.93
6412.74
-3002.7
1021.75
-2076.07
-7512.99
-774.152
-11617.9
413.122
-12133.4
1669.49
-5841.6
2151.95
5743.61
1587.1
9982.5
977.328
7763.51
1075.47
4441.23
2434.59
-5973.46
5599.04
-5800.9
5884.77
-4504.55
1719.56
-2346.98
-2042.8
-177.657
-1941.51
175.942
3688.42
-1401.53
8094.69
-3070.84
9003.37
-3982.26
7324.16
-3653
692.487
-2856.91
-8309.08
-2385.1
-12089.7
-2291.05
-12227.4
-949.389
-7183.27
581.651
4212.57
1094.91
9469.24
1049.27
7809.15
1520.18
3970.32
1700.28
-6457.23
5362.35
-6089.71
5517.25
-5245.93
875.784
-4299.96
-2988.78
-2302.97
-3938.5
231.834
1153.62
135.012
8191.51
-1812.96
10951.3
-3673.34
9184.54
-4066.22
1085.37
-4051.67
-8323.63
-4936.96
-11204.4
-5714.81
-11449.6
-4311.35
-8586.73
-1615.89
1517.1
-204.346
8057.7
419.285
7185.52
2170.39
2219.22
-36.4804
-7204.11
4750.87
-6567.63
4880.77
-6175.51
483.665
-6073.34
-3090.95
-5110.18
-4901.66
-1911.3
-2045.27
216.47
6063.75
-543.792
11711.6
-2677.63
11318.4
-4253.98
2661.72
-5671.62
-6905.99
-7823.73
-9052.33
-9273.08
-10000.2
-8314.2
-9545.61
-4706.84
-2090.26
-1905.95
5256.81
404.728
4874.85
1463.61
1160.34
7180.22
-8340.93
3643.11
-7251.17
3791
-6984.3
216.795
-7224.3
-2850.94
-7090.55
-5035.41
-4993.45
-4142.37
-1886.26
2956.56
-627.279
10452.6
-1811.32
12502.4
-4343.14
5193.54
-7258.18
-3990.95
-10057.2
-6253.28
-12084.1
-7973.32
-12610.5
-9019.26
-9499.92
-5200.81
-5496.42
1253.31
-4842.11
4220.54
-8753.72
5071.94
12432.2
-9982.43
1967.64
-8167.49
1976.06
-7589.78
-360.92
-7922.06
-2518.66
-8620.12
-4337.35
-8357.4
-4405.09
-5866.53
465.683
-3064.03
7650.12
-2164.94
11603.3
-4481.28
7509.88
-8254.58
-217.653
-11032.9
-3474.98
-13493.8
-5512.37
-16119.6
-6393.51
-16770.7
-4549.64
-15160.6
-356.836
-14197.2
3257.19
-14389.4
5264.1
9730.5
-11447.4
-381.487
-8711.49
-759.875
-7842.61
-1229.8
-8555.02
-1806.25
-10247.6
-2644.75
-11787.1
-2865.57
-11174.8
-146.617
-8493.22
4968.51
-5919
9029.1
-6332.45
7923.34
-9055.14
2505.04
-11373.2
-1156.96
-13845.8
-3039.72
-16461.5
-3777.82
-17563.8
-3447.36
-16457.6
-1462.98
-13956
755.529
-9507.4
815.516
407.048
-11367.6
-2605.81
-8866.84
-3260.67
-8280.19
-1816.45
-9430.95
-655.5
-11780.4
-295.339
-14580.8
-65.1043
-16305.3
1577.88
-15744.2
4407.43
-13367.9
6652.73
-11359.9
5915.39
-11166.2
2311.31
-12480
156.84
-14910.5
-609.199
-16961.3
-1727.02
-17459.4
-2949.27
-16080.2
-2842.15
-13533.8
-1790.94
-9130.18
-3588.06
-8693.18
-9832.37
-4130.16
-8306.6
-4786.44
-8192.55
-1930.5
-9380.34
532.288
-11552.7
1876.98
-14509.8
2892.08
-17260.4
4328.48
-17830.3
4977.34
-14866.5
3688.93
-10221.7
1270.57
-8676.07
765.664
-10655.5
2136.23
-13244.1
1979.39
-14385.6
-585.477
-14606.3
-2728.55
-14770.8
-2677.67
-15178.1
-1383.61
-14890.4
-3875.83
-11982.2
-8205.47
-5098.54
-7376.13
-5615.78
-7502.87
-1803.77
-8553.32
1582.74
-10260.5
3584.12
-12569.7
5201.32
-14509.1
6267.89
-13404.4
3872.61
-8191.12
-1524.34
-2337.92
-4582.63
-1509
-63.2614
-4195.69
4822.92
-5539.1
3322.81
-4205.71
-1918.87
-3173.78
-3760.48
-3416.63
-2434.81
-5474.74
674.499
-9493.39
142.82
-7272.61
-7140.1
-5592.3
-6767.51
-5988.36
-6808.67
-1762.61
-7527.94
2302.02
-8737
4793.18
-10140.2
6604.5
-10606.1
6733.79
-7802.43
1068.96
-3505.35
-5821.42
-807.315
-7280.66
615.892
-1486.47
679.054
4759.76
493.977
3507.88
790.457
-2215.35
1288.92
-4258.94
1832.91
-2978.8
3333.25
-825.847
2828.66
647.411
1099.06
-6452.25
-5750.03
-6316
-6124.61
-6079.64
-1998.96
-6354.84
2577.21
-7113.19
5551.53
-7748.13
7239.44
-7051.97
6037.64
-3957.65
-2025.36
-1370.49
-8408.58
-678.18
-7972.97
361.004
-2525.65
1997.52
3123.24
2861.31
2644.1
2788.6
-2142.64
2638.92
-4109.26
2761.78
-3101.66
3100.22
-1164.28
4100.62
-352.99
402.591
-6021.35
-5696.36
-5982.79
-6163.18
-5402.4
-2579.35
-5104.29
2279.1
-5409.16
5856.4
-5489.27
7319.54
-4082.78
4631.15
-1529.52
-4578.62
-559.539
-9378.56
-1098.33
-7434.18
-695.918
-2928.07
1211.05
1216.27
2623.27
1231.88
2628.02
-2147.39
2220.15
-3701.4
2033.37
-2914.88
2116.87
-1247.78
2682.18
-918.292
21.3538
-5731.44
-5554.39
-5730.04
-6164.58
-4940.88
-3368.51
-4002.81
1341.04
-3771.31
5624.9
-3448.57
6996.8
-1846.43
3029.02
-274.187
-6150.87
-595.675
-9057.08
-1615.31
-6414.54
-1279
-3264.37
530.246
-592.978
1813.4
-51.2687
1763.86
-2097.85
1299.79
-3237.33
1057.98
-2673.07
1105.47
-1295.27
1344.63
-1157.45
-375.197
-5505.48
-5409.43
-5529.94
-6140.12
-4795.83
-4102.63
-3331.26
-123.525
-2446.59
4740.23
-1785.4
6335.6
-361.463
1605.08
132.564
-6644.89
-958.713
-7965.8
-1761.7
-5611.56
-1240.33
-3785.74
126.19
-1959.5
992.21
-917.289
912.508
-2018.15
629.466
-2954.29
567.563
-2611.16
755.361
-1483.07
889.747
-1291.84
-632.387
-5320.96
-5288.63
-5375.4
-6085.68
-4930.82
-4547.21
-3371.03
-1683.32
-1779.35
3148.55
-604.828
5161.08
440.699
559.556
46.21
-6250.41
-1099.2
-6820.39
-1537.91
-5172.85
-1101.52
-4222.13
-336.779
-2724.24
229.048
-1483.12
360.778
-2149.88
365.632
-2959.14
464.461
-2709.99
681.356
-1699.97
807.015
-1417.5
-806.469
-5170.11
-5251.09
-5142.15
-4166.12
-2402.21
-684.393
345.659
-2.64481
-884.106
-1325.7
-1098.82
-650.312
-187.09
174.734
406.663
563.529
724.912
863.545
196.336
-912.931
508.125
-1951.54
712.328
-1965.61
834.453
-1703.21
932.916
-1505.36
1019.22
-1377.57
1066.34
-1280.04
1097.37
-1190.58
1111.52
-1105.72
1110.05
-1021.39
1094.48
-940.368
1064.85
-860.724
1021.48
-783.275
963.301
-705.71
889.405
-628.127
796.549
-546.617
680.735
-458.901
532.014
-356.404
322.468
-204.037
-1.94473
148.436
-1061.37
210.431
-2013.54
173.392
-1928.57
132.811
-1662.63
117.331
-1489.88
117.102
-1377.34
126.994
-1289.93
137.57
-1201.16
146.73
-1114.88
153.841
-1028.5
158.376
-944.904
159.486
-861.837
156.209
-780.001
147.266
-696.77
131.617
-612.48
107.304
-522.306
73.2504
-424.847
27.0897
-310.244
-19.9913
-156.958
-21.9362
24.9078
-1086.28
64.6783
-2053.31
95.2985
-1959.19
131.447
-1698.78
161.073
-1519.51
181.752
-1398.02
197.169
-1305.35
211.356
-1215.35
223.769
-1127.29
233.969
-1038.71
240.289
-951.226
242.2
-863.751
238.653
-776.456
229.359
-687.478
213.552
-596.675
190.792
-499.549
160.434
-394.49
121.433
-271.244
76.3171
-111.847
54.3808
-22.5052
-1063.78
-0.0394468
-2075.78
45.3934
-2004.63
82.6552
-1736.04
113.748
-1550.6
140.729
-1425.01
165.394
-1330.02
188.037
-1237.99
207.358
-1146.62
222.461
-1053.81
231.894
-960.661
235.136
-866.995
231.628
-772.949
221.467
-677.319
204.441
-579.651
180.685
-475.795
149.91
-363.717
110.794
-232.132
65.2097
-66.2684
119.59
22.7253
-1086.5
56.6174
-2109.67
111.655
-2059.67
162.448
-1786.84
213.109
-1601.27
261.114
-1473.01
304.873
-1373.78
343.001
-1276.12
373.285
-1176.9
394.158
-1074.69
404.09
-970.596
402.553
-865.461
389.381
-759.778
365.018
-652.959
329.728
-544.362
284.102
-430.171
227.988
-307.606
160.224
-164.373
85.6146
8.33587
205.205
177.902
-1264.4
249.842
-2181.61
288.082
-2097.91
337.927
-1836.68
409.489
-1672.83
487.353
-1550.88
562.855
-1449.28
628.739
-1342.01
680.865
-1229.03
716.085
-1109.91
732.631
-987.142
729.569
-862.399
706.504
-736.714
663.414
-609.87
600.287
-481.236
517.009
-346.894
413.245
-203.842
284.24
-35.3698
140.903
151.67
346.108
358.179
-1622.58
442.806
-2266.24
443.798
-2098.9
491.904
-1884.79
588.96
-1769.89
701.681
-1663.6
815.372
-1562.97
915.09
-1441.73
994.904
-1308.85
1049.68
-1164.68
1077.91
-1015.37
1077.96
-862.45
1048.31
-707.064
987.184
-548.745
892.436
-386.49
761.98
-216.439
589.979
-31.8425
390.825
163.782
208.221
334.273
554.329
359.191
-1981.78
336.792
-2243.84
286.425
-2048.53
314.543
-1912.91
391.608
-1846.95
483.711
-1755.71
576.206
-1655.47
650.958
-1516.48
702.148
-1360.04
724.181
-1186.72
717.464
-1008.65
680.12
-825.106
610.06
-637.004
505.444
-444.129
369.836
-250.881
234.461
-81.0636
147.952
54.6656
72.6984
239.036
-20.1848
427.155
534.144
72.2494
-2054.03
-95.7032
-2075.89
-214.888
-1929.35
-292.838
-1834.96
-356.02
-1783.77
-413.118
-1698.61
-471.895
-1596.69
-539.068
-1449.31
-618.677
-1280.43
-711.432
-1093.96
-813.288
-906.8
-919.38
-719.016
-1024.34
-532.044
-1118.07
-350.407
-1184.94
-184.009
-1214
-52.0054
-1188.62
29.2789
-1022.53
72.9474
-639.809
44.4325
-105.665
-194.644
-1859.38
-353.934
-1916.6
-514.169
-1769.11
-702.135
-1646.99
-902.682
-1583.22
-1113.07
-1488.22
-1323.54
-1386.22
-1529.46
-1243.38
-1732.59
-1077.3
-1935.18
-891.375
-2133.41
-708.572
-2312.58
-539.846
-2452
-392.621
-2524.1
-278.307
-2487.97
-220.141
-2302.79
-237.182
-1935.33
-338.181
-1344.21
-518.178
-586.812
-712.963
-692.477
-173.863
-1685.52
-228.189
-1862.27
-323.269
-1674.03
-473.411
-1496.85
-640.647
-1415.99
-832.019
-1296.85
-1019.65
-1198.59
-1188.99
-1074.03
-1323.52
-942.777
-1417.76
-797.127
-1470.88
-655.459
-1480.55
-530.174
-1441.01
-432.162
-1345.89
-373.426
-1187.17
-378.862
-948.697
-475.652
-630.46
-656.419
-293.776
-854.862
-64.6277
-942.112
-757.105
9.55724
-1695.07
64.5449
-1917.26
114.451
-1723.94
137.957
-1520.35
154.687
-1432.71
159.777
-1301.94
164.73
-1203.54
183.252
-1092.55
231.251
-990.771
322.192
-888.063
455.687
-788.95
620.878
-695.36
800.183
-611.465
971.294
-544.533
1097.96
-505.522
1125.84
-503.531
1004.11
-534.691
727.046
-577.797
356.142
-571.206
-400.963
81.4076
-1776.48
126.628
-1962.48
182.848
-1780.16
245.137
-1582.64
313.958
-1501.53
385.816
-1373.79
460.603
-1278.33
539.469
-1171.42
622.762
-1074.06
713.789
-979.089
812.474
-887.633
915.277
-798.162
1013.6
-709.784
1092.47
-623.41
1128.47
-541.517
1090.94
-465.995
954.189
-397.944
705.409
-329.016
373.745
-239.54
-27.2184
132.716
-1909.19
146.405
-1976.16
195.129
-1828.88
253.964
-1641.47
322.755
-1570.32
388.025
-1439.06
458.469
-1348.77
528.636
-1241.58
600.11
-1145.54
668.748
-1047.72
732.288
-951.171
787.182
-853.054
829.397
-751.998
852.006
-646.017
845.515
-535.023
796.561
-417.038
691.311
-292.692
514.153
-151.856
271.022
3.59497
243.804
128.921
-2038.11
111.891
-1959.13
154.952
-1871.94
206.925
-1693.44
268.416
-1631.81
330.163
-1500.8
399.508
-1418.11
473.553
-1315.62
556.109
-1228.09
644.89
-1136.5
737.079
-1043.36
822.932
-938.906
886.999
-816.063
909.244
-668.261
874.605
-500.383
784.603
-327.035
647.906
-155.993
441.408
54.645
223.483
221.522
467.287
59.1549
-2097.27
25.0036
-1924.98
40.9188
-1887.85
66.3933
-1718.92
96.316
-1661.73
135.774
-1540.26
181.638
-1463.98
237.139
-1371.12
302.133
-1293.08
375.608
-1209.98
452.849
-1120.6
520.469
-1006.52
554.196
-849.787
523.387
-637.449
417.353
-394.346
292.36
-202.038
219.991
-83.6189
158.69
115.95
45.4652
334.751
512.752
-55.1315
-2042.13
-134.207
-1845.9
-189.265
-1832.79
-230.294
-1677.89
-270.298
-1621.73
-294.08
-1516.48
-314.031
-1444.02
-322.412
-1362.74
-323.718
-1291.77
-316.684
-1217.01
-304.927
-1132.35
-294.062
-1017.39
-293.476
-850.372
-307.74
-623.183
-328.3
-373.783
-342.105
-188.23
-348.607
-77.1138
-320.303
87.65
-257.115
271.565
255.637
-194.642
-1847.49
-406.391
-1634.15
-581.954
-1657.23
-724.513
-1535.33
-857.405
-1488.83
-964.3
-1409.58
-1060.59
-1347.74
-1141.16
-1282.16
-1211.43
-1221.51
-1268.81
-1159.62
-1309.21
-1091.95
-1318.87
-1007.72
-1274.19
-895.056
-1147.58
-749.787
-935.747
-585.62
-702.382
-421.594
-523.228
-256.266
-353.471
-82.1056
-153.176
71.2713
102.462
-206.371
-1641.12
-461.098
-1379.42
-729.189
-1389.14
-960.959
-1303.56
-1185.81
-1263.99
-1382.56
-1212.83
-1560.29
-1170.01
-1715.26
-1127.19
-1849.71
-1087.05
-1961.35
-1047.98
-2044.08
-1009.22
-2083.08
-968.731
-2054.23
-923.903
-1933.02
-870.991
-1712.18
-806.466
-1404.04
-729.727
-1022.4
-637.907
-592.734
-511.774
-192.963
-328.498
-90.5016
-666.118
-1070.54
-1484.68
-1813.23
-2102.22
-2340.04
-2535.05
-2687.24
-2799.3
-2872.28
-2906.5
-2900.23
-2849.14
-2745.13
-2576.59
-2331.32
-1994.23
-1531
-884.498
-666.128
1641.13
-1070.55
1379.43
-1484.69
1389.14
-1813.24
1303.55
-2102.22
1263.98
-2340.04
1212.82
-2535.04
1170
-2687.22
1127.18
-2799.26
1087.04
-2872.24
1047.97
-2906.45
1009.21
-2900.17
968.722
-2849.07
923.897
-2745.05
870.989
-2576.53
806.473
-2331.27
729.747
-1994.21
637.935
-1531.01
511.803
-884.521
328.511
90.4789
-206.326
1847.46
-461.005
1634.11
-729.048
1657.18
-960.77
1535.28
-1185.57
1488.78
-1382.27
1409.52
-1559.95
1347.68
-1714.88
1282.11
-1849.29
1221.45
-1960.88
1159.56
-2043.56
1091.89
-2082.49
1007.65
-2053.6
895.007
-1932.43
749.817
-1711.73
585.771
-1403.79
421.804
-1022.28
256.431
-592.678
82.2009
-192.93
-71.2368
-102.451
-194.631
2042.09
-406.391
1845.87
-581.957
1832.75
-724.533
1677.85
-857.44
1621.69
-964.361
1516.45
-1060.68
1443.99
-1141.29
1362.72
-1211.59
1291.76
-1269.01
1216.98
-1309.42
1132.3
-1319.04
1017.28
-1274.25
850.214
-1147.48
623.053
-935.527
373.815
-702.202
188.48
-523.074
77.3039
-353.163
-87.7089
-152.812
-271.587
-255.263
-55.206
2097.29
-134.333
1924.99
-189.456
1887.87
-230.561
1718.96
-270.644
1661.77
-294.514
1540.32
-314.56
1464.04
-323.047
1371.21
-324.471
1293.18
-317.566
1210.08
-305.948
1120.68
-295.213
1006.55
-294.7
849.702
-308.905
637.259
-329.254
394.166
-342.828
202.055
-349.198
83.6759
-320.715
-116.19
-257.387
-334.914
-512.649
59.0677
2038.23
24.8681
1959.19
40.7189
1872.02
66.128
1693.55
95.9804
1631.92
135.372
1500.93
181.168
1418.25
236.605
1315.77
301.53
1228.26
374.929
1136.68
452.076
1043.53
519.571
939.052
553.135
816.139
522.172
668.223
416.127
500.212
291.429
326.755
219.486
155.621
158.348
-55.0499
45.1936
-221.758
-467.456
128.931
1909.3
111.847
1976.28
154.882
1828.99
206.835
1641.6
268.297
1570.46
330.025
1439.2
399.35
1348.92
473.384
1241.74
555.931
1145.71
644.707
1047.91
736.9
951.341
822.787
853.165
886.927
751.999
909.252
645.899
874.651
534.813
784.632
416.774
647.844
292.409
441.213
151.582
223.337
-3.88199
-244.118
132.765
1776.53
146.289
1962.75
194.904
1780.37
253.631
1582.87
322.321
1501.77
387.467
1374.05
457.781
1278.61
527.812
1171.71
599.176
1074.35
667.753
979.33
731.257
887.837
786.041
798.381
827.97
710.07
850.188
623.681
843.456
541.546
794.616
465.615
689.809
397.215
513.228
328.164
270.586
238.76
26.4677
81.6538
1694.88
126.811
1917.6
182.968
1724.22
245.285
1520.55
314.179
1432.88
386.089
1302.14
460.929
1203.77
539.778
1092.86
622.888
991.235
713.427
888.79
811.366
789.899
913.309
696.438
1010.69
612.694
1088.74
545.624
1124.22
506.07
1086.88
502.948
951.107
532.994
703.585
575.686
372.954
569.392
399.422
10.0382
1684.84
65.1887
1862.45
115.409
1674
139.404
1496.56
156.694
1415.59
162.479
1296.36
168.205
1198.04
187.455
1073.61
235.885
942.806
326.949
797.728
460.521
656.328
625.799
531.162
805.081
433.413
976.189
374.517
1102.77
379.488
1129.92
475.802
1006.72
656.194
728.264
854.14
356.706
940.95
756.128
-172.992
1857.83
-226.554
1916.01
-320.768
1768.21
-470.071
1645.86
-636.467
1581.98
-826.903
1486.79
-1013.46
1384.6
-1181.67
1241.81
-1315.04
1076.18
-1408
890.694
-1459.65
707.976
-1467.95
539.457
-1427.23
392.7
-1331.14
278.42
-1171.87
220.22
-934.235
238.168
-618.657
340.616
-286.063
521.546
-61.4639
716.351
694.664
-195.663
2053.49
-354.686
2075.03
-515.128
1928.65
-703.658
1834.39
-904.873
1783.2
-1116.01
1697.93
-1327.16
1595.75
-1533.58
1448.24
-1736.91
1279.5
-1939.47
1093.25
-2137.61
906.121
-2316.6
718.439
-2455.51
531.611
-2526.92
349.836
-2489.99
183.285
-2303.44
51.6244
-1934.21
-28.6142
-1342.24
-70.4288
-585.17
-40.7191
109.494
70.4539
1983.04
-97.9538
2243.44
-217.631
2048.33
-296.37
1913.13
-360.525
1847.35
-418.707
1756.11
-478.627
1655.67
-546.835
1516.45
-627.21
1359.88
-720.497
1186.54
-822.837
1008.46
-929.315
824.916
-1034.53
636.822
-1128.57
443.874
-1195.73
250.444
-1224.54
80.4356
-1197.94
-55.2141
-1028.95
-239.421
-642.467
-427.2
-532.973
358.78
1624.26
335.594
2266.63
284.763
2099.16
312.466
1885.43
389.036
1770.78
480.571
1664.58
572.355
1563.89
646.329
1442.47
696.804
1309.4
718.279
1165.06
711.139
1015.6
673.542
862.513
603.43
706.934
498.919
548.384
363.535
385.827
228.603
215.367
143.168
30.2191
69.0763
-165.33
-22.685
-335.44
-555.658
359.274
1264.98
443.907
2181.99
444.608
2098.46
492.639
1837.4
589.795
1673.62
702.683
1551.69
816.519
1450.05
916.313
1342.68
996.157
1229.56
1050.96
1110.26
1079.24
987.32
1079.36
862.391
1049.78
736.509
988.705
609.46
893.913
480.619
763.211
346.067
590.556
202.874
390.995
34.2293
208.459
-152.905
-347.199
179.001
1085.98
251.198
2109.8
289.341
2060.32
339.214
1787.52
410.977
1601.86
489.121
1473.55
564.908
1374.26
631.029
1276.55
683.325
1177.26
718.644
1074.94
735.227
970.736
732.14
865.478
708.98
759.668
665.717
652.723
602.337
543.998
518.727
429.676
414.609
306.991
285.2
163.637
141.551
-9.25718
-205.648
22.9756
1063.01
56.8746
2075.9
111.983
2005.21
162.881
1736.62
213.695
1551.05
261.874
1425.37
305.793
1330.34
344.042
1238.31
374.395
1146.91
395.277
1054.06
405.158
960.854
403.514
867.121
390.18
773.002
365.607
677.295
330.068
579.537
284.166
475.577
227.803
363.353
159.859
231.58
85.5233
65.0766
-120.124
-23.1032
1086.11
-0.847878
2053.64
44.7583
1959.6
82.1574
1699.22
113.341
1519.86
140.38
1398.33
165.071
1305.65
187.71
1215.67
206.996
1127.62
222.029
1039.03
231.361
951.523
234.47
864.012
230.8
776.671
220.455
687.641
203.224
596.767
179.25
499.551
148.253
394.349
108.946
270.887
63.433
110.588
-56.6915
23.5633
1062.55
62.8541
2014.35
93.6595
1928.79
129.871
1663.01
159.418
1490.31
180.043
1377.7
195.47
1290.22
209.704
1201.43
222.185
1115.14
232.463
1028.75
238.855
945.129
240.836
862.031
237.354
780.153
228.131
696.864
212.401
612.496
189.739
522.214
159.467
424.62
120.557
309.796
74.9482
156.194
18.2566
145.954
916.591
206.736
1953.57
169.942
1965.59
130.118
1702.84
115.15
1505.28
115.172
1377.68
125.059
1280.34
135.58
1190.91
144.712
1106.01
151.83
1021.63
156.418
940.541
157.649
860.799
154.562
783.239
145.877
705.549
130.528
627.843
106.554
546.187
72.8167
458.355
26.9491
355.662
-20.2473
203.381
-1.99108
192.948
501.163
703.151
824.254
922.16
1008.24
1055.12
1086.96
1102.26
1102.25
1088.28
1060.26
1018.35
961.406
888.516
796.48
681.364
533.295
324.473
)
;

boundaryField
{
    outletWall
    {
        type            calculated;
        value           nonuniform List<scalar> 
60
(
-304.163
-3463.44
-4455.03
-6019.41
-7361.21
-5429.98
1675.14
6624.98
6918.99
3709.28
-4778.79
-7242.96
-7116.5
-5968.06
-4406.73
-3321.02
-3709.48
-4642.57
-5997.58
-5206.13
5094.38
5200.17
5360.52
5589.47
5967.68
6609.98
7633.86
9173.84
11356.7
13592
13796.6
11657.9
9448.7
7815.59
6693.91
5964.6
5529.28
5281.88
5124.84
5023.42
752.07
-869.382
-1556.13
-1861.35
-2866.86
-3191.07
-2511.7
-1946.34
-3172.75
-4449.01
-4731.25
-5938.93
-5902.1
-470.495
3443.27
1384.64
-2659.34
-4656.15
-6004.7
-5212.91
)
;
    }
    fineWalls
    {
        type            calculated;
        value           uniform 0;
    }
    fineFrontAndBack
    {
        type            calculated;
        value           nonuniform List<scalar> 
960
(
2.3178e-14
1.84594e-12
8.52813e-13
9.42732e-13
1.7997e-12
1.08547e-13
6.55358e-14
2.82188e-13
1.74822e-12
5.03225e-13
6.57095e-13
3.52892e-12
3.53045e-13
1.73679e-13
-1.72725e-12
-5.91869e-13
-1.67411e-13
-7.3088e-12
-1.27353e-12
-1.26415e-12
-1.69835e-13
-2.52037e-13
-2.84101e-13
-2.94338e-13
-2.85551e-13
-3.04825e-13
-5.10751e-12
-2.28018e-13
-2.23763e-13
-2.3176e-13
-2.4777e-13
-2.7374e-13
-3.18341e-13
-3.80277e-13
-4.48451e-13
-5.27578e-13
-6.00656e-13
-7.1934e-13
-7.03379e-13
-1.47549e-12
-1.98566e-11
-1.4047e-12
-1.09147e-12
-2.4497e-12
5.11848e-11
8.59668e-11
1.08624e-10
1.38544e-10
8.55324e-10
4.23165e-11
3.82888e-11
1.02679e-10
1.27816e-11
9.90749e-12
7.12857e-12
1.86136e-11
2.38721e-12
2.23773e-12
2.22611e-12
2.47222e-11
1.58242e-12
8.37789e-13
8.39787e-13
7.09503e-13
6.10537e-13
5.09333e-13
4.22512e-13
3.45543e-13
2.79973e-13
2.25589e-13
1.98558e-13
1.88244e-13
1.85793e-13
6.59996e-13
1.19123e-13
4.37624e-14
-1.80109e-14
-1.21842e-13
-2.65551e-13
-4.76766e-13
-2.93368e-12
-3.15364e-12
-1.94306e-11
-3.74914e-12
-3.78968e-12
-1.91754e-11
-2.62765e-12
-2.74545e-12
-1.4359e-11
-2.14973e-12
-2.48552e-12
-1.36319e-11
-2.03842e-12
-2.22955e-12
-2.24227e-12
-1.40961e-11
-2.32468e-12
-2.60376e-12
-1.33621e-11
-1.38089e-12
1.54191e-09
1.1348e-09
7.84358e-10
4.64618e-10
1.53363e-10
7.32249e-14
-6.19012e-11
-6.4381e-11
-3.80217e-11
-4.99983e-12
1.57805e-11
1.02049e-11
3.68984e-12
2.30847e-12
-1.43035e-11
-2.69443e-11
-3.21384e-11
-2.91322e-11
-2.45767e-11
1.45125e-09
1.02247e-09
6.69598e-10
3.41836e-10
7.36818e-11
-3.20535e-11
-6.67435e-11
-6.03227e-11
-3.19187e-11
1.07554e-13
1.55601e-11
1.19211e-11
2.04377e-11
3.22817e-11
1.38731e-12
-2.29488e-11
-3.20386e-11
-2.98121e-11
-2.53316e-11
1.31865e-09
8.92867e-10
5.33421e-10
2.10663e-10
-2.08458e-12
-5.62497e-11
-6.17721e-11
-4.7489e-11
-2.14219e-11
5.69425e-12
1.76432e-11
2.48492e-11
5.04218e-11
6.85469e-11
3.62747e-11
-8.49304e-12
-3.05177e-11
-3.10532e-11
-2.66975e-11
1.16349e-09
7.73004e-10
3.8866e-10
7.61703e-11
-6.31696e-11
-9.47533e-11
-8.44845e-11
-4.75774e-11
-1.09207e-11
1.33599e-11
2.6387e-11
4.91579e-11
8.33383e-11
9.19294e-11
7.61449e-11
1.79639e-11
-2.2238e-11
-3.21373e-11
-3.00997e-11
1.00017e-09
6.69808e-10
2.59727e-10
6.37102e-11
1.51855e-10
4.97672e-11
-6.55307e-11
-6.5189e-11
-2.08377e-11
1.58779e-11
4.13667e-11
7.8004e-11
9.96321e-11
8.63107e-11
8.62801e-11
4.24469e-11
-2.72886e-12
-2.57492e-11
-3.23061e-11
8.20757e-10
5.81667e-10
2.02493e-10
1.40639e-10
2.70559e-10
2.62954e-10
7.7219e-11
-2.31426e-11
-3.08116e-11
9.87798e-12
6.115e-11
9.89948e-11
9.51147e-11
7.03325e-11
6.84065e-11
6.05908e-11
1.56932e-11
-1.0771e-11
-1.20058e-11
6.1538e-10
4.91467e-10
2.17775e-10
2.21063e-10
3.02423e-10
3.13113e-10
2.30106e-10
9.48893e-11
1.12436e-11
1.52234e-11
8.19161e-11
1.02101e-10
8.30369e-11
6.28834e-11
5.74207e-11
6.45372e-11
3.63553e-11
1.1373e-11
-9.68867e-12
3.96618e-10
3.74733e-10
2.38262e-10
2.46821e-10
2.63126e-10
2.59283e-10
2.66004e-10
2.07918e-10
1.0583e-10
5.57479e-11
9.26275e-11
8.53571e-11
7.0319e-11
6.23254e-11
4.8833e-11
4.39035e-11
3.6807e-11
1.97213e-11
2.29591e-11
1.84197e-10
2.19733e-10
2.04536e-10
1.90299e-10
1.65109e-10
1.7626e-10
2.32638e-10
2.45087e-10
1.87732e-10
1.18833e-10
8.2576e-11
4.54675e-11
4.54976e-11
5.69108e-11
5.29584e-11
3.51014e-11
3.10445e-11
2.873e-11
2.82394e-11
1.20086e-10
1.07855e-10
8.10131e-11
4.22953e-11
4.10142e-11
1.00242e-10
1.97872e-10
2.51522e-10
2.37843e-10
1.73651e-10
5.60798e-11
-2.38088e-11
-2.73203e-12
2.72104e-11
4.83027e-11
4.81683e-11
4.85828e-11
5.60381e-11
8.62457e-11
-1.02438e-10
-9.97756e-11
-1.35774e-10
-1.19225e-10
-5.73663e-11
9.98528e-12
7.98852e-11
1.44201e-10
1.55415e-10
9.24631e-11
-2.52623e-11
-7.21152e-11
-4.89087e-11
-3.81317e-11
-3.62698e-11
-3.47571e-11
-2.56602e-11
3.07983e-11
3.44832e-10
-2.45795e-11
-2.53217e-11
-1.22375e-10
-1.80424e-10
-1.45875e-10
-8.40006e-11
-4.14491e-11
-1.94189e-11
-2.34509e-11
-5.39289e-11
-7.21922e-11
-4.18887e-11
-2.8723e-11
-3.08704e-11
-3.37276e-11
-3.80178e-11
-4.32293e-11
-4.68833e-11
-2.96303e-11
-3.27684e-11
-6.78621e-12
-1.0808e-10
-2.22402e-10
-2.30638e-10
-1.81131e-10
-1.43805e-10
-1.50052e-10
-1.91085e-10
-2.09563e-10
-1.49426e-10
-7.1394e-11
-3.17428e-11
-3.16005e-11
-4.65705e-11
-5.02218e-11
-4.07689e-11
-3.3039e-11
-2.91601e-11
-5.91855e-12
7.36738e-12
-8.88563e-11
-2.32448e-10
-2.83966e-10
-2.62447e-10
-2.2799e-10
-2.34559e-10
-2.62919e-10
-2.14621e-10
-9.87056e-11
-9.33396e-11
-6.38226e-11
-5.72417e-11
-6.39935e-11
-5.75704e-11
-5.28272e-11
-5.99222e-11
-2.51107e-11
2.89812e-11
3.12376e-12
-6.55577e-11
-2.03973e-10
-2.9312e-10
-3.14017e-10
-2.94957e-10
-2.89006e-10
-2.68433e-10
-1.52722e-10
-2.79698e-11
-4.78595e-11
-6.15269e-11
-6.33803e-11
-4.89911e-11
-3.36262e-11
-2.56258e-11
-2.42689e-11
-3.27775e-11
5.23268e-11
-7.50552e-12
-4.10143e-11
-1.461e-10
-2.55834e-10
-3.23889e-10
-3.37158e-10
-3.12398e-10
-2.1957e-10
-6.78227e-11
9.67513e-12
2.75423e-13
-2.70815e-11
-2.65014e-11
-1.25017e-11
-1.84357e-12
2.23844e-12
2.93598e-12
-6.45011e-15
6.0091e-11
-1.0274e-11
-2.25074e-11
-8.36001e-11
-1.85699e-10
-2.87018e-10
-3.41367e-10
-2.87319e-10
-1.26551e-10
-4.62299e-12
1.61284e-11
5.9851e-12
-1.79758e-12
1.23151e-12
4.13787e-12
4.20544e-12
3.58355e-12
3.3274e-12
3.69671e-12
6.32234e-11
-1.54414e-12
-1.27778e-11
-4.02679e-11
-1.10215e-10
-2.13572e-10
-3.00184e-10
-2.04699e-10
-4.15715e-11
1.98451e-11
1.03709e-11
5.33305e-12
5.44718e-12
4.57168e-12
2.90575e-12
1.8534e-12
1.46548e-12
1.43224e-12
4.64818e-13
7.26249e-11
1.19651e-11
-7.37747e-12
-2.37181e-11
-5.57903e-11
-1.30754e-10
-2.22071e-10
-1.07838e-10
2.96122e-12
1.98388e-11
7.91605e-12
6.99644e-12
5.69339e-12
3.60964e-12
2.29048e-12
1.87469e-12
1.75297e-12
1.73788e-12
1.48559e-12
8.62431e-11
2.28389e-11
-1.97248e-12
-1.94606e-11
-2.65482e-11
-5.76916e-11
-1.11258e-10
-6.30663e-11
1.03955e-11
1.79092e-11
8.83097e-12
7.32064e-12
5.59113e-12
3.3952e-12
2.23936e-12
1.87975e-12
1.74197e-12
1.72518e-12
1.19043e-12
-2.3178e-14
-1.84594e-12
-8.52813e-13
-9.42732e-13
-1.7997e-12
-1.08547e-13
-6.55358e-14
-2.82188e-13
-1.74822e-12
-5.03225e-13
-6.57095e-13
-3.52892e-12
-3.53045e-13
-1.73679e-13
1.72725e-12
5.91869e-13
1.67411e-13
7.3088e-12
1.27353e-12
1.26415e-12
1.69835e-13
2.52037e-13
2.84101e-13
2.94338e-13
2.85551e-13
3.04825e-13
5.10751e-12
2.28018e-13
2.23763e-13
2.3176e-13
2.4777e-13
2.7374e-13
3.18341e-13
3.80277e-13
4.48451e-13
5.27578e-13
6.00656e-13
7.1934e-13
7.03379e-13
1.47549e-12
1.98566e-11
1.4047e-12
1.09147e-12
2.4497e-12
-5.11848e-11
-8.59668e-11
-1.08624e-10
-1.38544e-10
-8.55324e-10
-4.23165e-11
-3.82888e-11
-1.02679e-10
-1.27816e-11
-9.90749e-12
-7.12857e-12
-1.86136e-11
-2.38721e-12
-2.23773e-12
-2.22611e-12
-2.47222e-11
-1.58242e-12
-8.37789e-13
-8.39787e-13
-7.09503e-13
-6.10537e-13
-5.09333e-13
-4.22512e-13
-3.45543e-13
-2.79973e-13
-2.25589e-13
-1.98558e-13
-1.88244e-13
-1.85793e-13
-6.59996e-13
-1.19123e-13
-4.37624e-14
1.80109e-14
1.21842e-13
2.65551e-13
4.76766e-13
2.93368e-12
3.15364e-12
1.94306e-11
3.74914e-12
3.78968e-12
1.91754e-11
2.62765e-12
2.74545e-12
1.4359e-11
2.14973e-12
2.48552e-12
1.36319e-11
2.03842e-12
2.22955e-12
2.24227e-12
1.40961e-11
2.32468e-12
2.60376e-12
1.33621e-11
1.38089e-12
-1.54191e-09
-1.1348e-09
-7.84358e-10
-4.64618e-10
-1.53363e-10
-7.32249e-14
6.19012e-11
6.4381e-11
3.80217e-11
4.99983e-12
-1.57805e-11
-1.02049e-11
-3.68984e-12
-2.30847e-12
1.43035e-11
2.69443e-11
3.21384e-11
2.91322e-11
2.45767e-11
-1.45125e-09
-1.02247e-09
-6.69598e-10
-3.41836e-10
-7.36818e-11
3.20535e-11
6.67435e-11
6.03227e-11
3.19187e-11
-1.07554e-13
-1.55601e-11
-1.19211e-11
-2.04377e-11
-3.22817e-11
-1.38731e-12
2.29488e-11
3.20386e-11
2.98121e-11
2.53316e-11
-1.31865e-09
-8.92867e-10
-5.33421e-10
-2.10663e-10
2.08458e-12
5.62497e-11
6.17721e-11
4.7489e-11
2.14219e-11
-5.69425e-12
-1.76432e-11
-2.48492e-11
-5.04218e-11
-6.85469e-11
-3.62747e-11
8.49304e-12
3.05177e-11
3.10532e-11
2.66975e-11
-1.16349e-09
-7.73004e-10
-3.8866e-10
-7.61703e-11
6.31696e-11
9.47533e-11
8.44845e-11
4.75774e-11
1.09207e-11
-1.33599e-11
-2.6387e-11
-4.91579e-11
-8.33383e-11
-9.19294e-11
-7.61449e-11
-1.79639e-11
2.2238e-11
3.21373e-11
3.00997e-11
-1.00017e-09
-6.69808e-10
-2.59727e-10
-6.37102e-11
-1.51855e-10
-4.97672e-11
6.55307e-11
6.5189e-11
2.08377e-11
-1.58779e-11
-4.13667e-11
-7.8004e-11
-9.96321e-11
-8.63107e-11
-8.62801e-11
-4.24469e-11
2.72886e-12
2.57492e-11
3.23061e-11
-8.20757e-10
-5.81667e-10
-2.02493e-10
-1.40639e-10
-2.70559e-10
-2.62954e-10
-7.7219e-11
2.31426e-11
3.08116e-11
-9.87798e-12
-6.115e-11
-9.89948e-11