/*--------------------------------*- C++ -*----------------------------------*\
| =========                 |                                                 |
| \\      /  F ield         | OpenFOAM: The Open Source CFD Toolbox           |
|  \\    /   O peration     | Version:  4.1                                   |
|   \\  /    A nd           | Web:      www.OpenFOAM.org                      |
|    \\/     M anipulation  |                                                 |
\*---------------------------------------------------------------------------*/
FoamFile
{
    version     2.0;
    format      ascii;
    class       volVectorField;
    location    "7";
    object      U;
}
// * * * * * * * * * * * * * * * * * * * * * * * * * * * * * * * * * * * * * //

dimensions      [0 1 -1 0 0 0 0];

internalField   nonuniform List<vector> 
1280
(
(1.67501e-17 -0.238309 -0.927883)
(3.13735e-16 0.106399 -0.767137)
(6.16306e-16 -0.0266156 -0.470077)
(6.81288e-16 0.0798325 -0.530798)
(3.05876e-16 0.218401 -0.899533)
(7.84444e-17 0.273978 -0.701858)
(4.7361e-17 0.397536 -0.714127)
(1.98982e-16 0.484235 -0.664429)
(3.16909e-16 0.666286 -1.03442)
(3.63668e-16 0.707439 -0.848283)
(4.84755e-16 0.860697 -0.758765)
(5.09798e-16 1.172 -1.41614)
(2.55136e-16 1.22324 -1.18092)
(1.0302e-16 1.44456 -1.00339)
(-4.47577e-16 1.94316 -2.23125)
(-4.27728e-16 2.11412 -1.8731)
(-1.20983e-16 2.48645 -1.53755)
(-1.2422e-15 3.09944 -3.61793)
(-9.20345e-16 3.63255 -2.55409)
(-9.13569e-16 3.57313 -3.98177)
(-6.96759e-16 3.8178 -1.15995)
(-1.034e-15 4.18487 4.89074)
(-1.16554e-15 3.88646 8.55109)
(-1.20754e-15 4.19747 9.95377)
(-1.17149e-15 4.38289 10.4273)
(-1.25056e-15 4.78164 10.8796)
(-1.07668e-15 3.52606 8.23474)
(-9.35459e-16 7.96449 13.5181)
(-9.18001e-16 8.01768 13.6402)
(-9.50808e-16 8.0797 13.6131)
(-1.01649e-15 8.11225 13.5198)
(-1.12303e-15 8.11423 13.3791)
(-1.30601e-15 8.09802 13.2024)
(-1.56011e-15 8.06882 12.9941)
(-1.8398e-15 8.02851 12.7697)
(-2.16442e-15 7.97041 12.5374)
(-2.46423e-15 7.91976 12.3198)
(-2.95114e-15 7.81486 12.1086)
(-2.88566e-15 7.78952 11.916)
(-6.05327e-15 7.53453 11.5814)
(-3.45633e-15 8.84637 13.4039)
(-1.12827e-15 5.2112 9.58381)
(-8.76685e-16 4.07218 9.42657)
(-1.93627e-15 3.08911 9.66422)
(9.16037e-15 1.11531 7.588)
(6.90496e-14 9.89193 -6.85555)
(8.72482e-14 -1.10571 -4.05229)
(1.1128e-13 0.702587 -4.42626)
(1.69334e-13 -0.492021 -5.1194)
(3.39892e-14 -0.181183 -3.22387)
(3.07541e-14 0.4149 -3.53222)
(1.78728e-14 -0.882566 -4.8797)
(1.02664e-14 -0.861537 -3.91922)
(7.95782e-15 0.325604 -3.26458)
(5.72576e-15 -0.328294 -0.654755)
(3.23997e-15 -1.11559 7.85148)
(1.94828e-15 -3.13782 9.65126)
(1.79738e-15 -4.14889 9.42214)
(1.78804e-15 -5.27237 9.5646)
(4.19054e-15 -8.88189 13.3643)
(6.49198e-15 -7.52993 11.5814)
(3.43708e-15 -7.78822 11.917)
(3.44528e-15 -7.81346 12.1046)
(2.91078e-15 -7.91885 12.3099)
(2.50477e-15 -7.96988 12.5164)
(2.08957e-15 -8.02744 12.7334)
(1.73338e-15 -8.06666 12.9389)
(1.41761e-15 -8.09375 13.1284)
(1.14861e-15 -8.10763 13.2919)
(9.25493e-16 -8.10449 13.4309)
(8.14595e-16 -8.07181 13.537)
(7.72283e-16 -8.00828 13.5891)
(7.62229e-16 -7.96697 13.4933)
(1.3913e-16 -3.5989 8.32195)
(4.8871e-16 -4.83256 10.9652)
(1.79538e-16 -4.43943 10.5623)
(-7.38909e-17 -4.24646 10.1333)
(-4.99863e-16 -3.93172 8.7964)
(-1.08944e-15 -4.2252 5.22223)
(-1.95596e-15 -3.86051 -0.752202)
(-2.12009e-15 -3.63399 -3.56714)
(-2.27905e-15 -3.74021 -2.1254)
(-3.30243e-15 -3.47372 -3.0783)
(-2.7094e-15 -2.81465 -1.32618)
(-2.73871e-15 -2.48588 -1.5603)
(-3.25904e-15 -2.62414 -1.84452)
(-1.89894e-15 -2.05633 -0.979517)
(-1.99942e-15 -1.83517 -1.12082)
(-2.50188e-15 -1.98321 -1.39947)
(-1.55355e-15 -1.52657 -0.811238)
(-1.79622e-15 -1.35707 -0.92335)
(-2.35891e-15 -1.44853 -1.16807)
(-1.48072e-15 -1.06359 -0.698191)
(-1.61124e-15 -1.03186 -0.770228)
(-1.61977e-15 -0.832951 -0.787566)
(-2.39577e-15 -0.930996 -1.09318)
(-1.67999e-15 -0.56741 -0.730671)
(-1.88167e-15 -0.448692 -0.860093)
(-2.27309e-15 -0.464789 -1.18134)
(-9.97933e-16 -0.107468 -0.735359)
(1.71323e-13 -1.73389 4.19236)
(1.26089e-13 -2.01796 4.28361)
(8.71509e-14 -1.56826 4.29313)
(5.16242e-14 -1.24923 4.17466)
(1.70403e-14 -1.09217 3.901)
(8.1361e-18 -1.42407 3.53792)
(-6.87791e-15 -1.94024 3.19495)
(-7.15344e-15 -2.33713 2.86621)
(-4.22463e-15 -2.40975 2.55117)
(-5.55537e-16 -1.62512 2.14168)
(1.75339e-15 1.30324 1.03001)
(1.13387e-15 2.34235 0.154179)
(4.09982e-16 2.23124 -0.549981)
(2.56496e-16 0.534613 -1.56404)
(-1.58928e-15 -1.77852 -1.72291)
(-2.99382e-15 -2.42524 -1.5245)
(-3.57094e-15 -2.01326 -1.24007)
(-3.23691e-15 -1.49426 -1.06886)
(-2.73075e-15 -1.15237 -1.06546)
(1.6125e-13 -1.77973 4.28207)
(1.13608e-13 -2.00489 4.40558)
(7.43997e-14 -1.47485 4.32652)
(3.79817e-14 -1.06242 4.03012)
(8.18687e-15 -0.884836 3.52091)
(-3.5615e-15 -1.29015 3.14185)
(-7.41594e-15 -1.83408 2.99568)
(-6.70252e-15 -2.20743 2.87231)
(-3.54652e-15 -2.18854 2.69805)
(1.19505e-17 -1.00042 2.13951)
(1.7289e-15 1.8695 0.975897)
(1.32457e-15 2.84611 0.379622)
(2.27086e-15 2.83012 -0.742632)
(3.58685e-15 1.00887 -2.18501)
(1.54145e-16 -1.92252 -2.31211)
(-2.54986e-15 -2.68808 -1.57808)
(-3.55984e-15 -2.14615 -1.01717)
(-3.31246e-15 -1.53759 -0.928111)
(-2.81462e-15 -1.12013 -1.04945)
(1.46517e-13 -1.80638 4.40583)
(9.92074e-14 -2.0266 4.57339)
(5.9269e-14 -1.4091 4.42371)
(2.3407e-14 -0.899894 3.86071)
(-2.3162e-16 -0.687931 2.97486)
(-6.24997e-15 -1.15402 2.56618)
(-6.86356e-15 -1.76669 2.67049)
(-5.27655e-15 -2.17766 2.81148)
(-2.38021e-15 -2.09175 2.8479)
(6.32694e-16 -0.701279 2.37333)
(1.96036e-15 1.97463 1.57352)
(2.76102e-15 3.16785 0.804326)
(5.60242e-15 3.3591 -0.669708)
(7.61632e-15 1.34424 -1.97181)
(4.03053e-15 -2.13768 -2.6926)
(-9.43671e-16 -2.99444 -1.84823)
(-3.39086e-15 -2.25991 -0.880283)
(-3.45035e-15 -1.50281 -0.750537)
(-2.96639e-15 -1.02519 -1.03318)
(1.29277e-13 -1.84781 4.60515)
(8.58894e-14 -2.02816 4.78919)
(4.31844e-14 -1.21956 4.56029)
(8.46337e-15 -0.522663 3.26103)
(-7.01885e-15 -0.464178 1.26842)
(-1.05281e-14 -1.22789 1.06749)
(-9.38717e-15 -1.94453 1.98864)
(-5.28638e-15 -2.2684 2.6891)
(-1.21341e-15 -2.07335 3.06774)
(1.48443e-15 -0.422588 2.87266)
(2.93189e-15 2.3573 2.24805)
(5.46199e-15 3.70587 1.21539)
(9.25981e-15 3.95369 0.0479971)
(1.02144e-14 1.80348 -0.527016)
(8.46054e-15 -1.75158 -2.11058)
(1.99598e-15 -3.26823 -1.84329)
(-2.47089e-15 -2.50995 -0.876576)
(-3.57081e-15 -1.52895 -0.64162)
(-3.34442e-15 -0.990941 -1.18993)
(1.1113e-13 -1.8773 4.9572)
(7.44231e-14 -2.00766 5.0163)
(2.88585e-14 -0.794237 4.61858)
(7.07891e-15 0.443702 2.86856)
(1.68728e-14 0.385051 1.09408)
(5.52969e-15 -1.40422 -0.691956)
(-7.28119e-15 -2.46215 0.334906)
(-7.24322e-15 -2.64615 1.96576)
(-2.31529e-15 -2.19769 3.12428)
(1.76421e-15 -0.222359 3.40374)
(4.5963e-15 2.68281 2.77177)
(8.66711e-15 4.05272 1.99569)
(1.10702e-14 4.15347 1.94579)
(9.59008e-15 2.17103 2.16032)
(9.58668e-15 -1.91955 -0.344072)
(4.71632e-15 -3.38126 -1.16435)
(-3.03207e-16 -2.66658 -0.782486)
(-2.86102e-15 -1.36858 -0.821317)
(-3.58956e-15 -0.566559 -1.78422)
(9.11952e-14 -1.85728 5.54941)
(6.46296e-14 -1.9203 5.25068)
(2.24993e-14 -0.371994 4.84005)
(1.56266e-14 0.953672 3.92039)
(3.00621e-14 1.04278 3.30851)
(2.92171e-14 -1.05631 0.525976)
(8.57989e-15 -2.84966 -0.857066)
(-2.57139e-15 -3.37223 0.521078)
(-3.42351e-15 -2.67508 2.47984)
(1.09755e-15 -0.174116 3.56834)
(6.79445e-15 2.89442 3.26737)
(1.09994e-14 4.01113 3.49097)
(1.05683e-14 4.00009 4.71275)
(7.81472e-15 2.60985 5.07589)
(7.60072e-15 -1.13834 2.22651)
(6.73231e-15 -2.92783 0.102303)
(1.74369e-15 -2.58076 0.0153636)
(-1.19678e-15 -1.44406 -0.56942)
(-1.33398e-15 -0.74042 -3.18741)
(6.83756e-14 -1.72025 6.46367)
(5.46074e-14 -1.76039 5.60442)
(2.41973e-14 -0.192646 5.27729)
(2.45626e-14 1.0448 5.05003)
(3.36026e-14 1.54552 5.0941)
(3.47903e-14 0.256891 3.43238)
(2.55673e-14 -2.5296 -0.102485)
(1.05433e-14 -3.93843 -0.419294)
(1.24928e-15 -3.44887 1.28043)
(1.69149e-15 -0.492163 3.15185)
(9.10179e-15 2.65497 3.95144)
(1.13446e-14 3.45721 5.52925)
(9.22632e-15 3.61418 7.49543)
(6.98704e-15 3.06872 8.16109)
(6.38008e-15 -0.0430568 5.70609)
(7.1708e-15 -2.52318 1.97832)
(4.03948e-15 -2.14538 0.908156)
(1.26366e-15 0.489287 -1.49025)
(-1.07652e-15 1.02587 -0.411939)
(4.40687e-14 -1.45317 7.79986)
(4.1637e-14 -1.49243 6.19329)
(2.64735e-14 -0.120335 5.8285)
(2.74246e-14 1.00158 5.84508)
(2.92362e-14 1.71773 6.18736)
(2.88092e-14 1.19726 5.69862)
(2.95561e-14 -1.53077 2.71189)
(2.3102e-14 -3.85174 0.335313)
(1.17589e-14 -4.12587 0.607154)
(6.19421e-15 -1.27861 2.40486)
(1.02919e-14 1.87825 4.8001)
(9.48412e-15 2.57103 7.36917)
(7.81322e-15 3.04462 9.3893)
(6.92504e-15 3.29935 10.8782)
(5.42589e-15 1.61007 10.1596)
(4.87817e-15 -0.838852 5.6183)
(4.08966e-15 -1.2952 3.25279)
(2.19125e-15 -1.49912 4.9391)
(2.55101e-15 -5.6132 9.7355)
(2.04663e-14 -0.984323 9.61693)
(2.44148e-14 -1.03406 7.14382)
(2.27262e-14 -0.0119051 6.4039)
(2.11443e-14 0.904517 6.2801)
(1.83455e-14 1.63403 6.89188)
(1.95845e-14 1.57888 7.55887)
(2.58487e-14 -0.443426 6.41046)
(2.72319e-14 -3.09002 3.361)
(2.08591e-14 -4.23276 1.60637)
(1.32037e-14 -2.21985 1.96319)
(9.17511e-15 0.784899 5.48765)
(5.05194e-15 1.6114 8.35771)
(5.05529e-15 2.26383 10.0583)
(6.32342e-15 2.63242 12.4941)
(5.88427e-15 1.73966 14.3822)
(3.90016e-15 -0.0309467 13.5307)
(3.44938e-15 -1.29108 11.6724)
(3.19222e-15 -1.98426 11.9671)
(3.13771e-15 -3.27952 12.0414)
(1.33429e-14 -0.340187 11.3802)
(1.19839e-14 -0.273967 7.85232)
(9.00146e-15 0.258143 6.59559)
(4.69948e-15 0.770176 6.51246)
(4.55713e-15 1.2413 7.70243)
(1.1138e-14 1.32871 9.44346)
(2.25033e-14 0.143038 10.2397)
(2.79469e-14 -1.98191 8.41809)
(2.64269e-14 -3.50013 5.61065)
(1.92945e-14 -2.82935 4.18309)
(6.23109e-15 -0.669947 6.41261)
(-2.89077e-15 0.638109 8.70071)
(-3.03559e-16 1.40162 10.3275)
(3.02338e-15 1.63103 12.7853)
(5.50692e-15 1.25152 14.6481)
(5.35204e-15 0.154893 14.5902)
(5.39809e-15 -1.07845 12.8405)
(6.22645e-15 -1.82889 10.1299)
(9.58285e-15 -2.75595 6.16627)
(-1.1382e-14 0.592726 11.2117)
(-1.10862e-14 0.776324 7.88542)
(-1.5086e-14 0.555452 6.82514)
(-1.32473e-14 0.430465 7.01565)
(-6.37403e-15 0.506311 8.65487)
(1.10948e-15 0.539863 11.0231)
(8.6978e-15 -0.0847318 13.3194)
(1.60223e-14 -1.34917 13.8887)
(1.72684e-14 -2.50315 12.2619)
(1.02737e-14 -2.41515 9.94717)
(-2.80692e-15 -0.911939 9.04643)
(-8.0128e-15 0.20016 9.54863)
(-5.4343e-15 0.648656 11.339)
(-4.23685e-15 0.895143 13.5292)
(-4.02998e-15 1.07233 14.7231)
(-3.8619e-15 0.882574 14.3399)
(-2.85113e-15 0.585385 12.5017)
(3.42203e-15 1.22974 9.71903)
(3.83147e-14 2.40012 5.97765)
(-2.73106e-15 1.16405 9.3717)
(-2.81352e-15 1.39806 7.13515)
(-1.35973e-14 0.647722 6.64738)
(-2.00472e-14 0.00430639 7.05297)
(-1.62083e-14 -0.309603 8.53636)
(-9.3334e-15 -0.509622 10.7453)
(-4.60545e-15 -0.998823 13.4819)
(-2.15765e-15 -1.63675 15.3125)
(-2.60566e-15 -1.96606 14.3316)
(-5.9921e-15 -1.52767 10.3617)
(-8.02136e-15 -0.544745 6.76395)
(-4.65429e-15 -0.285858 7.64304)
(-3.19145e-15 -0.241526 10.2603)
(-3.43004e-15 0.259811 11.8197)
(-3.74751e-15 0.857779 12.1017)
(-4.2242e-15 0.990236 12.1629)
(-4.80325e-15 0.795374 12.5413)
(-5.20925e-15 1.48459 12.6702)
(-3.29226e-15 3.01453 12.1809)
(-3.64093e-15 1.59301 7.57526)
(-7.54023e-16 1.7859 6.18953)
(-1.20089e-14 0.630282 6.04693)
(-2.47114e-14 -0.368282 6.50643)
(-2.56264e-14 -0.947798 7.7105)
(-2.01256e-14 -1.4197 9.40169)
(-1.59783e-14 -1.87202 11.6049)
(-1.66725e-14 -1.64865 12.6071)
(-2.12317e-14 -0.459371 9.6652)
(-2.32848e-14 0.678389 3.8277)
(-1.66029e-14 -0.302605 0.117059)
(-7.93267e-15 -1.29267 2.37588)
(-3.52698e-15 -0.892556 5.01683)
(-3.51117e-15 0.222846 4.18841)
(-5.1745e-15 0.948412 2.66274)
(-5.5802e-15 0.66666 2.38231)
(-4.52987e-15 -0.135424 3.36844)
(-3.671e-15 1.40463 5.85634)
(-3.24001e-15 5.64126 10.017)
(-6.57617e-16 1.81262 6.31599)
(8.18598e-16 1.95831 5.64231)
(-9.87292e-15 0.570692 5.58494)
(-2.58275e-14 -0.678975 5.81066)
(-3.15518e-14 -1.43443 6.70139)
(-2.91607e-14 -2.03572 7.85866)
(-2.53322e-14 -2.27174 9.13284)
(-2.60621e-14 -0.916198 8.56146)
(-2.92132e-14 1.46557 4.3801)
(-2.38468e-14 2.29245 1.25572)
(-1.09673e-14 0.376308 0.181202)
(-1.03711e-14 -1.76776 -1.19701)
(-7.0914e-15 -1.34057 0.438766)
(-6.36018e-15 1.29032 -0.840353)
(-7.11039e-15 1.63231 -1.24919)
(-6.39671e-15 1.0768 -1.23401)
(-5.86969e-15 0.00747011 -1.71481)
(-6.65802e-15 -1.37624 -3.61074)
(-2.79007e-15 -1.02095 -0.769546)
(3.22013e-15 1.91651 5.48243)
(3.47084e-16 2.03387 5.30516)
(-7.28419e-15 0.598967 5.17567)
(-2.26637e-14 -0.845421 5.00173)
(-3.25689e-14 -1.76366 5.55714)
(-3.48907e-14 -2.36325 6.28727)
(-3.2773e-14 -2.19901 6.75836)
(-3.21118e-14 0.179618 4.98477)
(-2.98259e-14 2.48158 1.53589)
(-1.69691e-14 2.65768 0.562177)
(-3.10775e-15 0.745137 0.687545)
(-5.31772e-15 -1.36676 -1.28295)
(-6.83632e-15 -1.25424 -1.92303)
(-7.04226e-15 0.134341 -2.56614)
(-5.44345e-15 1.22106 -2.42654)
(-3.73625e-15 0.997507 -2.11964)
(-2.84731e-15 0.412093 -2.40787)
(-2.69654e-15 0.330341 -2.67256)
(-3.64195e-15 0.027225 -4.30113)
(5.81409e-15 1.91902 4.96259)
(-8.33946e-16 2.05209 5.08791)
(-4.55714e-15 0.7368 4.84935)
(-1.62333e-14 -0.856227 4.18162)
(-2.8426e-14 -1.93377 4.30619)
(-3.59877e-14 -2.4567 4.68772)
(-3.7462e-14 -1.81428 4.61615)
(-3.47109e-14 1.24329 2.22161)
(-2.43966e-14 3.08358 0.148499)
(-7.53586e-15 2.65949 0.666135)
(1.07501e-15 0.917888 1.29611)
(3.06026e-17 -0.811627 -0.174847)
(-3.00905e-15 -0.704977 -1.77236)
(-2.94459e-15 0.785765 -2.42198)
(-1.38908e-15 1.46577 -2.13038)
(-2.04842e-16 1.12196 -1.66723)
(2.48716e-16 0.439076 -1.69577)
(3.2622e-16 0.107464 -1.72756)
(-7.16678e-19 -0.213024 -2.86076)
(6.67678e-15 1.87791 4.65756)
(-1.14155e-15 2.05855 4.89688)
(-2.50083e-15 0.984597 4.63609)
(-9.2889e-15 -0.69677 3.57905)
(-2.06333e-14 -1.98284 3.11816)
(-3.18909e-14 -2.44172 3.1319)
(-3.79297e-14 -1.33152 2.74727)
(-3.19244e-14 1.88058 0.441448)
(-1.40612e-14 3.16887 -0.234499)
(-5.13666e-16 2.30677 1.17411)
(1.79205e-15 1.00319 1.62194)
(6.65011e-16 -0.0665774 0.42998)
(-1.99731e-16 -0.121383 -1.22041)
(1.36834e-16 0.730571 -1.67658)
(4.59764e-16 1.09503 -1.35252)
(4.67271e-16 0.856155 -0.899966)
(3.98172e-16 0.366868 -0.858699)
(3.69711e-16 0.391341 -0.894413)
(4.10746e-16 0.180997 -1.42663)
(7.02482e-15 1.82319 4.47302)
(-1.71571e-16 2.05605 4.69578)
(-1.41976e-15 1.27196 4.51731)
(-4.47421e-15 -0.218267 3.41117)
(-1.22461e-14 -1.72438 2.2288)
(-2.37302e-14 -2.20962 1.79393)
(-3.33538e-14 -0.738634 1.2453)
(-2.27443e-14 2.18228 -0.485852)
(-4.61905e-15 2.88919 0.0263129)
(2.20501e-15 1.97332 1.54915)
(1.15232e-15 1.16826 1.46356)
(5.92561e-16 0.494417 0.553257)
(6.05242e-16 0.210034 -0.685962)
(5.07964e-16 0.665515 -0.905251)
(3.22861e-16 1.03399 -0.67531)
(2.05933e-16 0.897499 -0.438076)
(1.62831e-16 0.470699 -0.513087)
(1.59137e-16 0.397091 -0.674557)
(5.16464e-17 0.121472 -0.83797)
(8.06943e-15 1.78677 4.34583)
(1.32945e-15 2.02529 4.50537)
(-8.19719e-16 1.43914 4.45527)
(-2.63534e-15 0.256226 3.71556)
(-6.19892e-15 -1.47886 1.99348)
(-1.45282e-14 -2.0934 0.904956)
(-2.46745e-14 -0.468451 0.0771604)
(-1.19821e-14 2.20277 -0.624673)
(3.29024e-16 2.46358 0.36801)
(2.20431e-15 1.76511 1.44672)
(8.79562e-16 1.32837 1.17299)
(7.77383e-16 0.770533 0.637475)
(6.32598e-16 0.370354 -0.0323397)
(4.01071e-16 0.700435 -0.307101)
(2.54498e-16 0.975981 -0.334802)
(2.08298e-16 0.858978 -0.32334)
(1.94774e-16 0.500643 -0.459773)
(1.93097e-16 0.436551 -0.628679)
(1.65066e-16 0.269427 -0.718599)
(9.58257e-15 1.73615 4.25173)
(2.53765e-15 2.02058 4.35537)
(-2.19165e-16 1.57972 4.39648)
(-2.16229e-15 0.902457 4.16604)
(-2.9498e-15 -0.547308 2.81441)
(-6.41018e-15 -1.22106 1.16363)
(-1.2362e-14 0.24662 -0.108913)
(-7.00737e-15 1.95665 -0.356499)
(1.15506e-15 2.03302 0.310338)
(1.98991e-15 1.63439 1.16008)
(9.81219e-16 1.49819 1.07238)
(8.13405e-16 1.06905 0.749336)
(6.21237e-16 0.644213 0.338139)
(3.77244e-16 0.796234 -0.0107495)
(2.48817e-16 1.03704 -0.287993)
(2.08861e-16 0.95656 -0.403535)
(1.93552e-16 0.635095 -0.538928)
(1.91687e-16 0.522779 -0.656945)
(1.32271e-16 0.288149 -0.780222)
(1.53833e-16 7.92694 13.5314)
(-1.1535e-15 18.0878 30.058)
(-1.17151e-15 19.4994 31.5346)
(-1.10475e-15 17.62 27.7339)
(-1.18069e-15 15.7631 24.26)
(-1.7174e-15 14.6655 21.9284)
(-1.72752e-15 13.74 20.1679)
(-1.63786e-15 13.0191 18.7612)
(-1.65478e-15 12.2879 17.4345)
(-1.77912e-15 11.5578 16.1317)
(-1.89255e-15 10.8053 14.8764)
(-2.01597e-15 10.0627 13.6571)
(-2.2217e-15 9.30413 12.4826)
(-2.47265e-15 8.54551 11.3321)
(-2.74086e-15 7.7517 10.2015)
(-3.06273e-15 6.93549 9.05677)
(-3.44886e-15 6.02769 7.86242)
(-4.06193e-15 5.02655 6.56539)
(-6.6573e-15 3.68805 4.81799)
(-1.98186e-14 2.05575 2.99698)
(1.30298e-17 9.20473 15.2834)
(-1.16387e-15 17.8672 30.288)
(-8.52198e-16 17.2708 29.1948)
(-8.08969e-16 14.7336 24.929)
(-1.00007e-15 13.1078 22.3217)
(-1.58837e-15 12.2404 20.7125)
(-1.20196e-15 11.4553 19.4566)
(-1.10691e-15 10.7629 18.1154)
(-1.23528e-15 9.98469 16.8125)
(-1.42593e-15 9.27756 15.5055)
(-1.51302e-15 8.54408 14.2545)
(-1.65829e-15 7.84926 13.0117)
(-1.90924e-15 7.12702 11.7939)
(-2.02819e-15 6.41644 10.5519)
(-2.43821e-15 5.6405 9.29358)
(-2.57583e-15 4.84879 7.93505)
(-3.25946e-15 3.88608 6.44608)
(-4.51807e-15 2.81653 4.6296)
(-1.3284e-14 0.99732 1.82175)
(-5.26903e-14 -0.673625 -1.36822)
(7.16664e-19 9.97736 17.0485)
(-4.39359e-16 18.2644 31.5119)
(-2.58861e-16 17.4923 29.9918)
(-3.13861e-16 15.3203 26.0599)
(-3.20381e-16 13.7596 23.3452)
(-7.76701e-16 12.8043 21.4944)
(-4.90844e-16 11.9585 20.0682)
(-4.57564e-16 11.2276 18.6856)
(-4.81998e-16 10.4523 17.3418)
(-5.27972e-16 9.71425 15.9974)
(-6.52579e-16 8.96054 14.6816)
(-7.46492e-16 8.22063 13.3724)
(-7.94072e-16 7.45989 12.0741)
(-8.8984e-16 6.69707 10.7545)
(-9.67144e-16 5.87944 9.4149)
(-1.01714e-15 5.04491 7.98816)
(-1.38254e-15 4.06483 6.4562)
(-2.39838e-15 3.04202 4.69519)
(-1.04138e-15 1.65972 2.60936)
(-1.08043e-14 0.502726 0.358379)
(4.20403e-19 9.67197 16.4953)
(9.96709e-17 18.2614 31.7257)
(6.77873e-17 17.5756 30.3477)
(7.3571e-17 15.361 26.2709)
(8.29702e-17 13.7281 23.471)
(-4.02934e-16 12.7688 21.5836)
(-3.82464e-16 11.9412 20.1578)
(-4.13376e-16 11.2215 18.7709)
(-4.52857e-16 10.456 17.4056)
(-5.02436e-16 9.70286 16.0253)
(-6.23817e-16 8.92824 14.6507)
(-6.99345e-16 8.14768 13.2707)
(-7.54855e-16 7.34194 11.8861)
(-7.90528e-16 6.52044 10.4727)
(-9.65228e-16 5.6409 9.02527)
(-1.04841e-15 4.73257 7.47427)
(-1.17822e-15 3.65442 5.79228)
(-2.66666e-15 2.53449 3.79782)
(-2.95626e-15 0.677468 1.11283)
(-1.31324e-14 -0.253036 -1.39012)
(-3.30217e-20 9.54121 16.1779)
(-2.23864e-17 18.667 32.1183)
(-1.87331e-17 18.2079 31.303)
(-1.81509e-17 16.0159 27.1102)
(-2.39431e-17 14.3212 24.2011)
(1.08265e-16 13.3597 22.2221)
(1.09957e-16 12.5396 20.7244)
(1.12912e-16 11.8087 19.2789)
(1.19035e-16 11.034 17.8321)
(1.32114e-16 10.2352 16.3563)
(1.56802e-16 9.40392 14.864)
(1.77976e-16 8.54514 13.3609)
(1.94349e-16 7.65543 11.8499)
(2.19754e-16 6.73864 10.3181)
(2.45598e-16 5.7665 8.75581)
(2.66707e-16 4.7538 7.10371)
(3.87195e-16 3.58186 5.32355)
(3.12918e-16 2.35884 3.23726)
(2.51659e-15 0.474583 0.676541)
(-8.95554e-15 -0.7988 -2.48626)
(-7.65039e-20 10.3162 17.293)
(5.14058e-18 19.5729 32.8139)
(4.92669e-18 18.9593 32.0851)
(4.56689e-18 16.8417 27.8779)
(7.07538e-18 15.1779 25.0726)
(-2.51901e-17 14.2957 23.0995)
(-2.99838e-17 13.5023 21.5386)
(-2.94351e-17 12.7597 19.9736)
(-3.15357e-17 11.9442 18.3623)
(-3.51978e-17 11.0653 16.6881)
(-3.87849e-17 10.1278 14.9732)
(-4.21345e-17 9.13993 13.2372)
(-4.72505e-17 8.106 11.4923)
(-5.48313e-17 7.03015 9.73264)
(-6.32604e-17 5.8889 7.94707)
(-7.69312e-17 4.68653 6.07497)
(-5.94164e-17 3.31018 4.0638)
(-3.08301e-16 1.83841 1.69237)
(8.46979e-16 -0.304534 -1.06895)
(-6.10594e-15 -1.42964 -3.94641)
(5.29529e-20 12.817 21.7251)
(-1.14911e-18 21.0807 34.3793)
(-1.21032e-18 19.4227 32.5351)
(-1.10284e-18 17.6792 28.7087)
(-1.93588e-18 16.2645 26.472)
(4.71362e-18 15.6181 24.6886)
(7.09866e-18 14.864 23.1171)
(7.19252e-18 14.1082 21.3739)
(7.57681e-18 13.1966 19.5011)
(8.41934e-18 12.1796 17.5018)
(9.10404e-18 11.065 15.4317)
(9.89753e-18 9.8745 13.3228)
(1.11221e-17 8.61375 11.196)
(1.27056e-17 7.28714 9.05119)
(1.54152e-17 5.87079 6.88123)
(1.19489e-17 4.36516 4.62445)
(5.52663e-17 2.64336 2.23667)
(-1.54898e-16 0.844478 -0.553793)
(8.41077e-16 -1.70514 -3.45746)
(-4.81876e-15 -2.62376 -6.67931)
(-1.83549e-20 16.1542 28.3471)
(2.53986e-19 21.8668 35.4787)
(2.8628e-19 18.7321 32.2019)
(2.584e-19 17.8783 29.4643)
(4.78742e-19 16.7682 28.1831)
(-8.26817e-19 16.4054 26.7129)
(-1.55112e-18 15.5496 25.203)
(-1.68996e-18 14.6836 23.2335)
(-1.74967e-18 13.4961 21.0357)
(-1.91051e-18 12.2001 18.6183)
(-2.10878e-18 10.7561 16.1128)
(-2.29483e-18 9.22917 13.5359)
(-1.9877e-18 7.59434 10.906)
(-1.17053e-18 5.86148 8.21872)
(6.56848e-19 4.01077 5.47521)
(3.0234e-18 2.08893 2.6823)
(3.1358e-17 -0.0425329 -0.231833)
(-2.19282e-16 -1.63103 -3.38807)
(1.23839e-15 -4.06018 -5.82476)
(-5.01017e-15 -4.11546 -9.56342)
(4.89291e-21 17.8378 32.4665)
(-6.14328e-20 20.0793 33.4477)
(-6.77173e-20 16.8287 30.72)
(-6.42449e-20 16.7428 29.2792)
(-1.13357e-19 15.5578 28.5411)
(2.03122e-19 15.0837 27.2188)
(3.74965e-19 13.803 25.6675)
(4.18447e-19 12.5316 23.3895)
(4.31656e-19 10.7877 20.8092)
(3.51608e-19 9.01745 17.9357)
(1.33707e-19 7.092 15.0087)
(1.20031e-18 5.15923 11.9865)
(7.09092e-18 3.13524 8.87545)
(1.45212e-17 1.08862 5.66424)
(2.19971e-17 -0.914394 2.46926)
(1.14128e-16 -2.4987 -0.034042)
(2.84077e-16 -3.37922 -1.61374)
(-2.32703e-16 -4.65158 -4.12643)
(-2.65035e-15 -6.30571 -7.24233)
(-5.06197e-15 -3.95519 -6.24102)
(-8.85065e-22 16.5398 30.508)
(1.58943e-20 17.5142 30.2046)
(1.73618e-20 15.1726 28.4065)
(2.05421e-20 14.6456 26.936)
(1.62608e-20 13.3171 26.0949)
(-6.42268e-20 12.4324 24.7828)
(-1.00046e-19 10.8961 23.178)
(-9.27865e-20 9.26656 20.8893)
(-1.22767e-19 7.25735 18.2338)
(-4.33304e-19 5.20721 15.3217)
(-8.19189e-19 3.11073 12.4372)
(2.25037e-18 1.11016 9.62426)
(1.61385e-17 -0.79124 6.92122)
(2.75392e-17 -2.42726 4.4781)
(-6.04242e-17 -3.63955 2.48051)
(-4.38699e-16 -4.39562 0.843927)
(-1.20459e-15 -4.3864 -0.0815657)
(-2.11617e-15 -2.65374 1.0893)
(-2.45911e-15 0.955847 4.92932)
(-1.12806e-15 3.32634 7.83377)
(3.87088e-23 14.5634 26.6347)
(-4.32341e-21 16.7628 28.6916)
(-5.04953e-21 14.039 25.9255)
(-5.74594e-21 13.2549 23.6228)
(6.05943e-22 11.6833 22.4908)
(2.18242e-20 10.7808 20.8741)
(3.33167e-20 9.24989 19.3365)
(4.9937e-20 7.80657 17.2297)
(3.36418e-20 6.00033 14.7768)
(-2.18568e-19 4.18972 11.9744)
(-5.78831e-19 2.44458 9.24771)
(1.08573e-18 1.02724 6.89176)
(8.35509e-18 0.0111462 5.09463)
(1.69718e-17 -0.454727 4.05333)
(5.37965e-18 -0.058244 4.29601)
(-4.17874e-17 1.60295 6.49347)
(-7.74801e-17 4.51915 10.5614)
(2.66307e-18 7.81697 14.983)
(2.19206e-16 9.98893 17.1992)
(2.97681e-16 7.33274 13.7953)
(-6.56984e-24 14.051 25.5537)
(1.13878e-21 17.5762 28.9139)
(1.31774e-21 14.4599 25.8966)
(1.51578e-21 13.9971 22.7567)
(-9.64625e-23 12.2836 21.3918)
(-5.97011e-21 11.7685 19.3328)
(-8.79494e-21 10.5161 17.8336)
(-1.03748e-20 9.74388 16.089)
(-9.16014e-21 8.76673 14.4778)
(8.9146e-22 7.95737 12.7631)
(-5.87283e-21 7.18476 11.0823)
(-1.23072e-19 6.58059 9.5271)
(-3.45585e-19 6.17978 8.2515)
(-1.95882e-19 6.05208 7.43958)
(1.44691e-18 6.32058 7.34321)
(5.88675e-18 6.9425 8.13491)
(1.58468e-17 7.83295 9.64537)
(3.12989e-17 8.33568 11.335)
(3.15232e-17 8.0864 11.8107)
(-1.8733e-17 5.63201 9.47618)
(3.10143e-24 14.4939 26.4998)
(-2.97878e-22 18.5143 30.0023)
(-3.51332e-22 15.1248 27.0702)
(-4.00975e-22 14.8768 23.9512)
(-5.35748e-23 13.264 22.6295)
(1.35175e-21 12.8594 20.6804)
(2.26056e-21 11.8468 19.1763)
(2.655e-21 11.1754 17.5399)
(2.33353e-21 10.4483 16.0611)
(1.19062e-21 9.81871 14.6599)
(5.10158e-21 9.24341 13.3255)
(2.40694e-20 8.68895 12.0128)
(4.79211e-20 8.13527 10.6941)
(2.42956e-20 7.57869 9.41664)
(-1.54921e-19 7.04535 8.27989)
(-6.96215e-19 6.54961 7.40513)
(-2.16468e-18 6.05149 6.84929)
(-5.96758e-18 5.4922 6.47521)
(-1.33148e-17 4.39134 5.78885)
(-1.53802e-17 2.34581 2.82861)
(-1.70826e-24 15.2653 28.2171)
(7.60838e-23 19.1182 30.4245)
(9.12621e-23 15.3055 27.7452)
(1.04127e-22 15.5357 24.7842)
(4.0459e-23 13.737 23.6042)
(-2.8349e-22 13.4664 21.6174)
(-5.41997e-22 12.387 20.1769)
(-6.78752e-22 11.7333 18.5169)
(-7.02372e-22 10.9397 16.9934)
(-4.23036e-22 10.2132 15.4677)
(-2.90163e-22 9.49011 13.9859)
(-2.36957e-21 8.77956 12.546)
(-8.22645e-21 8.07056 11.1472)
(-1.45777e-20 7.34966 9.76893)
(-9.92272e-21 6.56627 8.38826)
(3.23737e-20 5.70295 6.94242)
(1.81399e-19 4.63026 5.40863)
(6.66617e-19 3.45276 3.66524)
(2.38469e-18 1.5648 1.60141)
(3.09089e-18 0.0328016 -1.90256)
(6.64955e-25 16.1229 30.5773)
(-1.92535e-23 19.4681 30.4291)
(-2.36336e-23 15.4018 28.5783)
(-2.74037e-23 16.2459 25.7744)
(-1.61052e-23 14.1356 24.7614)
(5.78866e-23 14.0863 22.7098)
(1.24233e-22 12.8865 21.3682)
(1.56949e-22 12.3466 19.7285)
(1.63308e-22 11.5644 18.2935)
(1.13621e-22 10.9151 16.8071)
(2.97643e-23 10.226 15.3157)
(2.16041e-22 9.5002 13.7349)
(1.1584e-21 8.66628 12.0238)
(2.95718e-21 7.68271 10.1418)
(4.8448e-21 6.48668 8.10978)
(4.75192e-21 5.12889 5.92828)
(-4.16952e-21 3.50333 3.63851)
(-1.66474e-20 1.87317 1.04477)
(-2.57646e-19 -0.675957 -1.65945)
(3.82038e-18 -1.82742 -5.45534)
(-1.71621e-25 16.4918 32.2402)
(4.70747e-24 19.3485 29.9709)
(5.52933e-24 15.3301 29.1539)
(6.59618e-24 16.5246 26.4777)
(5.44402e-24 14.2182 25.6016)
(-1.14822e-23 14.299 23.6332)
(-3.40513e-23 13.0452 22.4364)
(-5.85792e-23 12.6048 20.9296)
(-7.85055e-23 11.8449 19.6748)
(-6.42283e-23 11.282 18.3461)
(2.49211e-23 10.6149 16.9729)
(2.03073e-22 9.83554 15.343)
(4.60184e-22 8.75185 13.2823)
(8.07059e-22 7.24431 10.6368)
(1.2426e-21 5.30872 7.54885)
(1.80932e-21 3.2972 4.48808)
(1.16247e-21 1.2709 1.70159)
(2.15543e-20 -0.539751 -1.93911)
(-3.5898e-19 -3.14705 -4.49639)
(1.80827e-18 -3.44374 -8.40043)
(5.71173e-26 15.8995 32.0502)
(-1.29343e-24 18.6934 29.0017)
(-1.63519e-24 14.673 28.6943)
(-1.37325e-24 15.7252 26.1727)
(2.09775e-25 13.5095 25.3071)
(2.55704e-24 13.3638 23.5492)
(-4.48739e-24 12.166 22.4188)
(-2.35995e-23 11.6234 21.0873)
(-3.78274e-23 10.8369 19.9649)
(-9.17777e-24 10.2094 18.7629)
(1.25802e-22 9.41849 17.4164)
(4.81639e-22 8.38886 15.5717)
(1.28129e-21 6.81887 12.8518)
(2.90944e-21 4.58512 9.01801)
(5.60461e-21 2.06669 4.69672)
(8.73623e-21 0.390568 1.91985)
(-1.36209e-21 -0.135558 1.07413)
(-7.71842e-20 -1.54001 -1.57917)
(-2.10829e-19 -4.49204 -5.73222)
(1.70514e-19 -3.66771 -7.12502)
(7.02896e-27 14.3392 30.8098)
(2.48943e-25 17.9944 27.7779)
(3.62309e-25 13.3922 27.641)
(1.21412e-24 14.2045 25.3738)
(1.76754e-24 12.1468 24.4717)
(-2.39936e-24 11.6298 22.9589)
(-1.61354e-23 10.5079 21.826)
(-3.91453e-23 9.74876 20.6227)
(-5.71557e-23 8.92046 19.5287)
(-3.6446e-23 8.15414 18.3956)
(8.41418e-23 7.29627 17.1004)
(4.15174e-22 6.23347 15.362)
(1.20027e-21 4.81587 12.8783)
(2.914e-21 3.08986 9.61281)
(4.92985e-21 1.39779 6.06542)
(-1.53127e-21 0.0185243 2.83509)
(-4.54001e-20 -1.20589 -0.0725234)
(-1.6294e-19 -2.31601 -2.64591)
(-3.1338e-19 -2.93952 -3.95846)
(-3.23394e-19 -1.83252 -2.34163)
(-1.56613e-27 11.1562 28.4027)
(-1.2305e-25 16.8598 24.7727)
(-9.02848e-26 11.8702 25.1742)
(4.93367e-25 12.4868 23.4709)
(1.45143e-24 10.7324 22.7352)
(1.57887e-25 10.036 21.6567)
(-8.19365e-24 9.00768 20.7593)
(-2.67197e-23 8.1967 19.839)
(-5.21405e-23 7.38772 18.9748)
(-7.09414e-23 6.65519 18.1223)
(-5.67823e-23 5.95631 17.2632)
(2.79476e-23 5.29701 16.3484)
(2.28153e-22 4.67587 15.3184)
(6.1056e-22 4.10494 14.086)
(1.21873e-21 3.58619 12.5772)
(1.34837e-21 3.08235 10.7814)
(-3.15407e-21 2.53039 8.64936)
(-2.37388e-20 1.89944 5.94056)
(-7.20422e-20 0.974344 2.51117)
(-1.04505e-19 -0.280426 -0.665503)
(4.62452e-27 2.56773 17.0254)
(1.99666e-26 8.03804 13.5991)
(4.66911e-26 5.16361 14.4486)
(1.78938e-25 4.99588 14.0439)
(3.75996e-25 4.08716 13.9928)
(2.95736e-26 3.53966 13.8066)
(-2.2855e-24 2.98144 13.6381)
(-8.18213e-24 2.53175 13.4434)
(-1.86791e-23 2.14956 13.2437)
(-3.53024e-23 1.84832 13.0409)
(-6.26136e-23 1.62225 12.8366)
(-1.07176e-22 1.46832 12.6209)
(-1.70326e-22 1.37862 12.3765)
(-2.41984e-22 1.35673 12.0788)
(-2.94995e-22 1.41947 11.7008)
(-2.4421e-22 1.53785 11.2505)
(1.30179e-22 1.73544 10.702)
(1.04439e-21 2.30106 9.77784)
(1.96712e-21 2.44255 8.42744)
(1.16613e-21 -0.271604 6.36055)
(-3.80339e-27 -2.56777 17.0255)
(-1.85041e-26 -8.03807 13.5992)
(-4.7938e-26 -5.16362 14.4487)
(-1.876e-25 -4.99589 14.0439)
(-3.9607e-25 -4.08718 13.9929)
(-3.79486e-26 -3.53968 13.8066)
(2.37362e-24 -2.98149 13.6381)
(8.52966e-24 -2.53183 13.4434)
(1.95482e-23 -2.14966 13.2437)
(3.71794e-23 -1.84843 13.041)
(6.64198e-23 -1.62234 12.8366)
(1.14181e-22 -1.46834 12.6207)
(1.81295e-22 -1.37856 12.3762)
(2.55831e-22 -1.3566 12.0783)
(3.08071e-22 -1.41929 11.7003)
(2.50553e-22 -1.53765 11.2499)
(-1.38628e-22 -1.73526 10.7016)
(-1.07527e-21 -2.3009 9.77756)
(-2.01379e-21 -2.44238 8.42732)
(-1.19034e-21 0.271608 6.36045)
(8.85726e-28 -11.156 28.4027)
(1.18822e-25 -16.8599 24.7724)
(8.77827e-26 -11.8702 25.174)
(-5.26547e-25 -12.4869 23.4705)
(-1.52982e-24 -10.7325 22.7348)
(-1.7023e-25 -10.0362 21.6562)
(8.5939e-24 -9.00794 20.7587)
(2.8054e-23 -8.19704 19.8384)
(5.4778e-23 -7.38815 18.9741)
(7.44254e-23 -6.65573 18.1216)
(5.88957e-23 -5.957 17.2627)
(-3.16397e-23 -5.29793 16.3481)
(-2.43032e-22 -4.67707 15.3183)
(-6.39641e-22 -4.10633 14.0863)
(-1.25701e-21 -3.58761 12.5778)
(-1.36567e-21 -3.08358 10.7823)
(3.27189e-21 -2.53127 8.65039)
(2.43081e-20 -1.89996 5.94134)
(7.35629e-20 -0.974492 2.5112)
(1.06632e-19 0.281045 -0.6672)
(-3.39331e-27 -14.3388 30.809)
(-2.21471e-25 -17.994 27.7771)
(-3.62878e-25 -13.3916 27.6402)
(-1.26528e-24 -14.204 25.3729)
(-1.8671e-24 -12.1462 24.4708)
(2.46533e-24 -11.6292 22.958)
(1.68436e-23 -10.5073 21.8252)
(4.10019e-23 -9.74807 20.6219)
(6.00606e-23 -8.9197 19.5279)
(3.84565e-23 -8.15325 18.3947)
(-8.98242e-23 -7.29518 17.0992)
(-4.45287e-22 -6.23222 15.3605)
(-1.28319e-21 -4.81498 12.8771)
(-3.07513e-21 -3.09056 9.61391)
(-5.13824e-21 -1.40079 6.06993)
(1.51969e-21 -0.0224598 2.84113)