/*--------------------------------*- C++ -*----------------------------------*\
| =========                 |                                                 |
| \\      /  F ield         | OpenFOAM: The Open Source CFD Toolbox           |
|  \\    /   O peration     | Version:  4.1                                   |
|   \\  /    A nd           | Web:      www.OpenFOAM.org                      |
|    \\/     M anipulation  |                                                 |
\*---------------------------------------------------------------------------*/
FoamFile
{
    version     2.0;
    format      ascii;
    class       volScalarField;
    location    "25";
    object      epsilon;
}
// * * * * * * * * * * * * * * * * * * * * * * * * * * * * * * * * * * * * * //

dimensions      [0 2 -3 0 0 0 0];

internalField   nonuniform List<scalar> 
1280
(
0.00162244
0.000981953
0.00162374
0.0016894
0.00111392
0.00177199
0.00180587
0.0019741
0.00143934
0.0024854
0.00266212
0.00197896
0.00338542
0.00353359
0.00262049
0.00459213
0.00487337
0.00389566
0.00686649
0.00699819
0.240946
0.961448
0.952996
0.796987
0.689494
0.622334
0.278399
0.342332
0.340478
0.339943
0.339614
0.337514
0.334373
0.326893
0.323368
0.320541
0.321258
0.32064
0.321227
0.347622
0.0248913
0.0415238
0.0388004
0.0361689
0.0175029
0.0233252
0.0205576
0.0192504
0.0113711
0.0173093
0.0172444
0.0112271
0.0187447
0.0198372
0.0223023
0.0166907
0.034344
0.0366749
0.0391187
0.0234874
0.333769
0.311231
0.307558
0.308494
0.30718
0.30908
0.311689
0.318059
0.321231
0.322589
0.323743
0.325884
0.327563
0.264875
0.600428
0.679353
0.783843
0.938867
0.942161
0.236601
0.00670996
0.0065748
0.00376102
0.00457397
0.00425242
0.00241109
0.00315541
0.0029793
0.00172181
0.00227333
0.00211578
0.00121057
0.00164895
0.00150386
0.00146656
0.000919179
0.00139884
0.0013521
0.000817646
0.00133859
0.00143581
0.00116886
0.00115273
0.00139827
0.00202439
0.00310628
0.00443485
0.00568895
0.00620215
0.00601052
0.00379026
0.00228645
0.00172956
0.00166922
0.00183869
0.00194423
0.00167216
0.0011646
0.000817519
0.00165611
0.00124967
0.00120434
0.00147976
0.0021967
0.0034463
0.00533564
0.00785332
0.00847071
0.00669206
0.00401966
0.002407
0.00187941
0.00197397
0.00242422
0.00242203
0.00193009
0.00128189
0.000862127
0.00210054
0.00146662
0.00133064
0.00161563
0.00244465
0.00419256
0.00833243
0.0130378
0.01288
0.00803356
0.00465356
0.00277173
0.00229466
0.00290919
0.00396457
0.00355887
0.00241313
0.0015089
0.00104877
0.00292141
0.00192388
0.00175916
0.00233868
0.00394873
0.00769921
0.017087
0.0239027
0.0218533
0.0108931
0.00595333
0.00358874
0.00325812
0.00544826
0.00759734
0.00598278
0.00350216
0.00212108
0.00165901
0.00425891
0.00282376
0.00247345
0.00321914
0.00576485
0.0130995
0.0290757
0.036108
0.0319787
0.016068
0.00843152
0.0053618
0.0054393
0.0120373
0.0161038
0.0115476
0.00599928
0.00362842
0.00308635
0.00650125
0.00465344
0.00431648
0.00596432
0.0105436
0.0225873
0.037149
0.0424476
0.0403664
0.0247537
0.0136289
0.00972864
0.0112825
0.029474
0.0399222
0.0259855
0.0126997
0.00840061
0.00960577
0.0096986
0.00795741
0.00761015
0.0107126
0.0177381
0.0291869
0.0390985
0.0439795
0.0448688
0.0376607
0.0248434
0.0211217
0.0290481
0.0732059
0.0794745
0.053487
0.0310888
0.0254492
0.065899
0.0131983
0.0127966
0.0127934
0.0173318
0.0226828
0.028959
0.0344493
0.0418051
0.0462688
0.0475498
0.0472833
0.0491674
0.0806515
0.109439
0.0924115
0.0742037
0.0599682
0.0396669
0.0366852
0.0146986
0.0158248
0.016551
0.0198755
0.0220597
0.0248051
0.0271825
0.0351
0.0418122
0.0463995
0.0524542
0.0631707
0.067452
0.0521047
0.0407331
0.03315
0.0297536
0.0286423
0.0294921
0.0142653
0.0158516
0.0168779
0.0189338
0.0199926
0.0209497
0.024634
0.0318106
0.0345683
0.0340059
0.0331173
0.033261
0.0303448
0.0253101
0.0257286
0.0319762
0.0420934
0.0571021
0.0635731
0.014104
0.0156661
0.0166917
0.0187953
0.019953
0.0212595
0.0257462
0.035341
0.0432896
0.0452291
0.0466758
0.0442733
0.0291253
0.0237473
0.0246
0.0321853
0.0427977
0.0569132
0.063276
0.0154746
0.016859
0.0177783
0.0206541
0.0225502
0.0254568
0.0300941
0.0404086
0.0508556
0.0562995
0.0592666
0.0655348
0.0563102
0.0341479
0.0308899
0.0297751
0.0296543
0.0293809
0.0302575
0.0155395
0.0159688
0.0164166
0.019784
0.0240717
0.0305456
0.038093
0.0437278
0.0456572
0.0381011
0.0333726
0.0498694
0.084601
0.0665692
0.0524465
0.0513141
0.0527195
0.0394942
0.0384748
0.0137168
0.011938
0.011244
0.0134003
0.0188136
0.0281503
0.0381012
0.0417843
0.0362681
0.0218373
0.0164602
0.0205389
0.057262
0.0685802
0.0565575
0.0395364
0.0227097
0.0197716
0.0691352
0.0100946
0.00735808
0.00645135
0.0069836
0.0100254
0.0175083
0.0286462
0.0332793
0.0248582
0.0131774
0.00893079
0.00986657
0.0277404
0.0519236
0.0477161
0.0248733
0.0104079
0.00659281
0.00908932
0.00706815
0.00453987
0.00377168
0.00381925
0.00523865
0.00882751
0.0157534
0.0191056
0.0149248
0.00838234
0.00555812
0.00567629
0.0135937
0.0277071
0.0265768
0.0151625
0.00635341
0.0036066
0.00300702
0.00496219
0.00303489
0.00249641
0.00252489
0.00340604
0.00520905
0.0081352
0.0100194
0.00911064
0.00578299
0.00384804
0.0037525
0.00761096
0.0156653
0.0148409
0.00858677
0.00419878
0.00226848
0.00166468
0.0035312
0.00221054
0.00187334
0.00188081
0.00246266
0.00361074
0.00507644
0.00604325
0.0061053
0.00437611
0.00298087
0.00277681
0.00467319
0.00918909
0.00876091
0.00556983
0.00316385
0.00178467
0.00117328
0.00267047
0.00182307
0.00162182
0.00163973
0.00213523
0.00307999
0.00401639
0.00459444
0.00473577
0.00370786
0.00256214
0.00230558
0.00327086
0.00578731
0.00579179
0.00433102
0.00269769
0.00158192
0.00103003
0.00227524
0.00167066
0.00153117
0.00155339
0.00197503
0.00285727
0.00369252
0.0040956
0.00420536
0.00346721
0.00239681
0.00210018
0.00266573
0.00398408
0.00409749
0.00356405
0.00247624
0.00149841
0.0010102
2.54587
7.94767
2.32712
0.932767
0.657433
0.639174
0.651257
0.665489
0.676942
0.683923
0.687683
0.675694
0.655663
0.64654
0.645179
0.653728
0.69205
0.733418
0.884928
1.39048
2.18448
5.62396
1.51479
0.609303
0.437157
0.420108
0.46258
0.540976
0.622426
0.697937
0.755707
0.786876
0.798949
0.799626
0.802935
0.810487
0.835312
0.820698
0.870611
1.19046
2.02351
5.27502
0.912418
0.454676
0.356646
0.321856
0.381512
0.500099
0.626148
0.736297
0.824254
0.890442
0.932736
0.956211
0.971996
0.975296
0.977468
0.914209
0.911251
1.26188
1.77167
5.05385
0.806755
0.384978
0.311298
0.260659
0.299605
0.413584
0.562907
0.714073
0.834262
0.927855
0.991897
1.03047
1.05516
1.05877
1.04727
0.941606
0.875108
1.14468
1.54917
4.75915
0.496876
0.26688
0.296714
0.22656
0.257741
0.36785
0.518666
0.681702
0.827255
0.942487
1.03293
1.09188
1.12459
1.12097
1.08698
0.935528
0.811037
1.10995
1.2719
3.91678
0.460535
0.278316
0.426832
0.188786
0.197958
0.260455
0.390436
0.574415
0.763986
0.925998
1.04883
1.12462
1.16609
1.16204
1.12261
0.940821
0.783609
1.08083
0.940855
1.87126
0.315887
0.369143
0.54084
0.174219
0.159432
0.195173
0.297049
0.486328
0.707303
0.909739
1.07314
1.17856
1.23298
1.22239
1.17666
0.982759
0.792616
1.07629
0.767949
0.860768
0.257313
0.437585
0.516555
0.159869
0.102651
0.126448
0.238395
0.435987
0.660006
0.884376
1.08829
1.24013
1.33095
1.33393
1.29615
1.12721
0.934632
1.20434
0.796607
0.226707
0.122282
0.428743
0.333848
0.157938
0.104677
0.114264
0.231618
0.435308
0.662084
0.886912
1.1009
1.27512
1.39289
1.4243
1.39849
1.27837
1.15102
1.41447
0.910011
0.129583
0.104716
0.176415
0.037043
0.0456526
0.0414737
0.0878033
0.24035
0.444298
0.650076
0.847132
1.03553
1.20582
1.33381
1.39478
1.37573
1.28481
1.25273
1.51869
0.911044
0.0430764
0.075597
0.170224
0.0490459
0.0714723
0.0554607
0.0813801
0.174878
0.291892
0.434849
0.580723
0.714579
0.813205
0.858295
0.865493
0.830736
0.772043
0.740886
1.02363
0.795966
0.0397351
0.00519523
0.0049739
1.81708e-05
0.00403031
0.0120376
0.0260374
0.0472301
0.0779536
0.116646
0.159348
0.201563
0.239851
0.276604
0.324714
0.361525
0.330273
0.152673
0.107896
0.702541
0.0531289
0.0048992
0.00515121
0.000809314
0.00108343
0.00121754
0.00486088
0.0079402
0.0112439
0.0151606
0.0184711
0.0200678
0.0218724
0.0338217
0.103027
0.349307
0.134551
0.0302688
1e-15
0.656121
0.065609
0.00339191
0.000393068
5.11153e-05
0.000148613
3.00711e-05
0.000323749
0.000396264
0.000488153
0.000616725
0.000760938
0.000943052
0.00180385
0.0011192
0.00323628
0.00462743
0.00977681
1.73889e-05
0.000416252
0.570747
0.0547304
0.00210878
5.73527e-05
1.26069e-05
9.70301e-06
3.19044e-05
2.72161e-06
1.88603e-06
4.33083e-06
6.89038e-06
1.09469e-05
1.5127e-05
4.40681e-05
8.79083e-06
1.60155e-05
6.17991e-05
0.00191925
0.0116625
0.00126038
0.468476
0.0189358
0.00018811
1.85592e-05
8.18761e-07
8.67611e-08
6.77025e-08
8.44389e-08
5.54939e-08
4.45145e-08
4.04175e-08
4.61962e-08
1.28288e-07
4.95763e-07
3.42554e-05
0.000164245
0.000149834
0.00028586
0.00201291
0.000569782
0.355454
0.00683053
4.50231e-06
4.50265e-08
9.74536e-09
5.26308e-09
7.27093e-09
6.51406e-09
4.8557e-09
4.30718e-09
3.66015e-09
3.52643e-09
6.70427e-09
6.21782e-07
6.20184e-05
0.000332379
0.000266343
0.000523934
0.00200133
0.000959626
0.249366
0.00363341
1.85496e-06
1.04876e-06
8.63711e-07
7.8851e-07
8.42856e-07
7.72588e-07
6.83014e-07
6.22627e-07
5.58382e-07
5.0506e-07
9.99086e-07
5.81641e-05
0.00086001
0.00272945
0.00380383
0.00249682
0.00165865
0.00142939
0.193757
0.0135091
0.000530074
0.000496394
0.00048204
0.000462729
0.000446939
0.000431197
0.000416034
0.000401244
0.000386414
0.000371213
0.000354173
0.000332892
0.00030599
0.000311555
0.00150726
0.0104823
0.0389693
0.0283109
0.16405
0.69755
0.680784
0.680694
0.680716
0.680722
0.680711
0.680679
0.680685
0.680682
0.680696
0.680683
0.680662
0.680691
0.680691
0.680693
0.680603
0.679928
1.13219
0.224004
0.16405
0.697549
0.680784
0.680695
0.680715
0.680707
0.680712
0.680705
0.680689
0.680706
0.680686
0.680667
0.680686
0.680685
0.680688
0.680697
0.680605
0.679927
1.1325
0.223826
0.193749
0.0136108
0.000530145
0.000496519
0.000482098
0.000463046
0.000447086
0.000431174
0.000416246
0.000401195
0.000386713
0.000371639
0.000354281
0.000333133
0.000306532
0.000343793
0.00192707
0.0112468
0.0366417
0.0249268
0.249316
0.0040862
1.87245e-06
1.06132e-06
1.11271e-06
1.01783e-06
8.30599e-07
7.5822e-07
6.72779e-07
6.24293e-07
5.59668e-07
5.36205e-07
7.65029e-06
0.000395066
0.00364644
0.00984887
0.0128808
0.00480413
0.000315419
0.000612727
0.355497
0.00727036
3.20481e-06
4.36278e-08
1.80523e-08
1.07621e-08
7.2803e-09
6.4237e-09
4.29297e-09
4.17439e-09
3.45688e-09
3.48641e-09
3.13377e-08
6.44309e-06
0.000317378
0.00147056
0.000906417
0.000658003
0.00101941
0.000333318
0.468655
0.019122
0.000159391
1.55113e-06
1.26663e-06
2.58566e-07
1.89327e-08
1.228e-08
2.50868e-08
2.06435e-08
2.58616e-08
6.0529e-08
2.39365e-08
1.11427e-06
3.11714e-05
0.00019348
0.000345308
0.000372125
0.00119011
0.000142463
0.570859
0.0530683
0.00168672
7.05111e-05
4.26154e-05
1.13374e-05
1.59403e-08
3.44027e-06
3.87335e-07
2.06028e-07
8.78191e-06
3.09411e-07
1.54426e-06
5.25418e-05
4.07062e-05
0.000557768
0.00270402
0.00217745
0.00345926
0.000293371
0.65611
0.0701514
0.00376696
0.000263202
6.91253e-05
4.36763e-05
5.10868e-05
0.000149632
0.000151047
0.00019143
0.000389283
0.000724245
0.000190814
1.10098e-05
3.97078e-07
2.09149e-06
3.45099e-06
8.6799e-07
0.00107462
0.00422903
0.6977
0.0657286
0.00547239
0.00073351
0.000697675
0.00148007
0.00255052
0.00629132
0.0149679
0.0237577
0.025403
0.0287986
0.00839936
3.24319e-08
0.00481505
0.0064144
1.28377e-07
0.1457
0.632469
0.0195952
0.793007
0.0302004
0.00502049
0.00100023
0.00148406
0.00598416
0.0185028
0.0482198
0.103045
0.161539
0.193062
0.203316
0.194571
0.193894
0.214458
0.285689
0.521538
0.869982
0.369998
0.252918
0.908514
0.0588667
0.00534877
0.00152898
0.00671886
0.0304744
0.0980161
0.230015
0.413705
0.569359
0.69074
0.784819
0.879981
0.9532
0.985605
0.984399
0.913958
0.815563
0.750273
0.997408
0.917823
0.0778657
0.0174227
0.00229293
0.00741692
0.0371031
0.107124
0.239304
0.429273
0.616724
0.800349
0.972252
1.14462
1.29661
1.40153
1.44059
1.40528
1.31838
1.28928
1.48956
0.802621
0.341634
0.0584503
0.00973278
0.0113536
0.036132
0.0958209
0.207194
0.377245
0.563256
0.756976
0.946748
1.12753
1.283
1.39272
1.42663
1.40422
1.29992
1.19635
1.45209
0.767177
0.717738
0.14287
0.0203425
0.0162405
0.0401995
0.0970404
0.196209
0.338478
0.506976
0.691171
0.875412
1.05601
1.19866
1.29044
1.30113
1.27648
1.14007
0.977242
1.26875
0.951704
1.8932
0.235992
0.0475697
0.0324619
0.057688
0.114871
0.21437
0.354485
0.520402
0.697957
0.866861
1.0142
1.11873
1.18168
1.18427
1.16292
1.00837
0.837805
1.1351
1.2855
3.99558
0.400786
0.0839463
0.0543489
0.0854414
0.150675
0.256283
0.396619
0.556282
0.718671
0.866513
0.983245
1.06372
1.11728
1.12868
1.11368
0.956178
0.794479
1.07535
1.56584
4.85689
0.423906
0.140641
0.101823
0.141972
0.225571
0.348583
0.489749
0.634347
0.765657
0.875734
0.968231
1.03445
1.08023
1.0916
1.07488
0.931357
0.795161
1.05095
1.78805
5.16957
0.748747
0.235568
0.155486
0.182019
0.265502
0.38619
0.522891
0.659297
0.773379
0.864441
0.933161
0.980281
1.01611
1.03143
1.02859
0.920803
0.829355
1.05331
2.04037
5.31981
0.837144
0.383834
0.248647
0.280321
0.356062
0.46686
0.58173
0.683505
0.76757
0.836193
0.883858
0.915355
0.940244
0.951435
0.958099
0.889539
0.865886
1.16717
2.20195
5.74557
1.53212
0.552741
0.396241
0.371733
0.415587
0.493072
0.57482
0.646542
0.704289
0.74111
0.760176
0.768813
0.779943
0.79233
0.818841
0.798395
0.832034
1.09894
2.55772
7.9889
2.30894
0.907566
0.647072
0.621117
0.625784
0.634294
0.642037
0.654806
0.660617
0.652917
0.639262
0.63202
0.634251
0.644355
0.683881
0.719281
0.855701
1.31459
)
;

boundaryField
{
    outletWall
    {
        type            zeroGradient;
    }
    fineWalls
    {
        Cmu             0.09;
        kappa           0.41;
        E               9.8;
        type            epsilonWallFunction;
        value           nonuniform List<scalar> 
60
(
0.00699819
0.00686649
0.00389566
0.00487337
0.00459213
0.00262049
0.00353359
0.00338542
0.00197896
0.00266212
0.0024854
0.00143934
0.0019741
0.00180587
0.00177199
0.00111392
0.0016894
0.00162374
0.000981953
0.00162244
0.0234874
0.0391187
0.0366749
0.034344
0.0166907
0.0223023
0.0198372
0.0187447
0.0112271
0.0172444
0.0173093
0.0113711
0.0192504
0.0205576
0.0233252
0.0175029
0.0361689
0.0388004
0.0415238
0.0248913
0.00133859
0.000817646
0.0013521
0.00139884
0.000919179
0.00146656
0.00150386
0.00164895
0.00121057
0.00211578
0.00227333
0.00172181
0.0029793
0.00315541
0.00241109
0.00425242
0.00457397
0.00376102
0.0065748
0.00670996
)
;
    }
    fineFrontAndBack
    {
        type            zeroGradient;
    }
    fineplugLeft
    {
        type            cyclicAMI;
        value           nonuniform List<scalar> 
20
(
1.18191
0.772187
0.650863
0.617891
0.587091
0.580817
0.582611
0.591405
0.608058
0.618069
0.615127
0.609649
0.600857
0.60886
0.635806
0.663845
0.905611
2.05229
6.55043
2.08489
)
;
    }
    fineplugRight
    {
        type            cyclicAMI;
        value           nonuniform List<scalar> 
20
(
1.11842
0.746807
0.636937
0.608804
0.57692
0.569217
0.567954
0.575022
0.58658
0.593011
0.588594
0.578806
0.572948
0.584746
0.616979
0.653529
0.882822
2.03493
6.57955
2.0935
)
;
    }
    inletOutletLeft
    {
        type            cyclicAMI;
        value           nonuniform List<scalar> 
20
(
1.18191
0.772187
0.650863
0.617891
0.587091
0.580817
0.582611
0.591405
0.608058
0.618069
0.615127
0.609649
0.600857
0.60886
0.635806
0.663845
0.905611
2.05229
6.55043
2.08489
)
;
    }
    inletLeft
    {
        type            fixedValue;
        value           uniform 2180.89;
    }
    inletWallsLeft
    {
        Cmu             0.09;
        kappa           0.41;
        E               9.8;
        type            epsilonWallFunction;
        value           nonuniform List<scalar> 
40
(
0.16405
0.193757
0.249366
0.355454
0.468476
0.570747
0.656121
0.702541
0.795966
0.911044
0.910011
0.796607
0.767949
0.940855
1.2719
1.54917
1.77167
2.02351
2.18448
2.54587
1.39048
1.19046
1.26188
1.14468
1.10995
1.08083
1.07629
1.20434
1.41447
1.51869
1.02363
0.107896
1.65491e-23
0.000416252
0.00126038
0.000569782
0.000959626
0.00142939
0.0283109
0.224004
)
;
    }
    inletFacesLeft
    {
        type            zeroGradient;
    }
    inletOutletRight
    {
        type            cyclicAMI;
        value           nonuniform List<scalar> 
20
(
1.11842
0.746807
0.636937
0.608804
0.57692
0.569217
0.567954
0.575022
0.58658
0.593011
0.588594
0.578806
0.572948
0.584746
0.616979
0.653529
0.882822
2.03493
6.57955
2.0935
)
;
    }
    inletRight
    {
        type            fixedValue;
        value           uniform 2180.89;
    }
    inletWallsRight
    {
        Cmu             0.09;
        kappa           0.41;
        E               9.8;
        type            epsilonWallFunction;
        value           nonuniform List<scalar> 
40
(
2.55772
2.20195
2.04037
1.78805
1.56584
1.2855
0.951704
0.767177
0.802621
0.917823
0.908514
0.793007
0.6977
0.65611
0.570859
0.468655
0.355497
0.249316
0.193749
0.16405
0.223826
0.0249268
0.000612727
0.000333318
0.000142463
0.000293371
0.00422903
0.0195952
0.252918
0.997408
1.48956
1.45209
1.26875
1.1351
1.07535
1.05095
1.05331
1.16717
1.09894
1.31459
)
;
    }
    inletFacesRight
    {
        type            zeroGradient;
    }
}


// ************************************************************************* //
