/*--------------------------------*- C++ -*----------------------------------*\
| =========                 |                                                 |
| \\      /  F ield         | OpenFOAM: The Open Source CFD Toolbox           |
|  \\    /   O peration     | Version:  4.1                                   |
|   \\  /    A nd           | Web:      www.OpenFOAM.org                      |
|    \\/     M anipulation  |                                                 |
\*---------------------------------------------------------------------------*/
FoamFile
{
    version     2.0;
    format      ascii;
    class       volScalarField;
    location    "25";
    object      p;
}
// * * * * * * * * * * * * * * * * * * * * * * * * * * * * * * * * * * * * * //

dimensions      [0 2 -2 0 0 0 0];

internalField   nonuniform List<scalar> 
1280
(
1.38538
0.649224
1.25333
3.2425
5.7105
6.02493
6.01135
6.7464
7.97364
7.96121
7.86818
7.76732
7.57063
5.99628
5.61789
2.37948
-0.668734
-5.125
-0.684128
-23.0113
-2.15655
19.5101
29.7368
26.6578
24.366
31.0518
13.0888
12.868
9.80712
9.01962
7.93203
6.51896
5.32554
3.38774
1.76779
-0.814445
-2.22435
-4.72597
-4.36869
2.76144
-5.66431
-4.28297
1.33651
6.66289
18.8545
18.6178
18.5843
18.6242
17.8369
18.6578
18.334
18.1693
18.7764
18.6821
18.3851
19.2841
6.99673
1.79233
-5.64276
-10.1426
11.2265
2.59052
-2.16506
-0.478464
0.36079
2.80936
4.13852
6.02759
7.13358
8.31371
9.13026
9.65059
10.2876
-0.044942
33.982
27.0676
24.1802
25.2117
13.8873
-5.79032
-21.0624
-4.63068
-6.21644
-2.90461
-1.24458
0.851171
0.93343
2.04313
2.52082
2.63705
2.95728
2.93825
3.07398
2.97961
2.97371
2.76591
1.99011
1.68401
0.901983
0.524179
-0.547228
-2.89116
-2.12919
-1.34426
-1.25858
-0.459641
-2.21687
0.00410077
2.04542
4.20779
1.72452
1.01785
-3.04075
-6.95168
-11.0597
-3.20611
1.05409
0.861049
0.976005
0.888498
-2.83569
-0.820987
-1.00054
-3.7675
-1.77486
-3.27213
2.03005
6.40208
11.5089
9.28309
9.11422
-2.19063
-18.1079
-25.2942
-9.86666
0.204449
1.48448
2.05556
1.2741
-3.80425
-1.63326
-2.023
-6.00783
-3.07167
-3.55059
2.56064
7.6734
14.6656
16.3427
13.5683
-2.81204
-27.0201
-31.5214
-12.3434
1.66088
2.47572
3.03921
2.27163
-2.80414
-0.743494
-2.09482
-6.82202
-3.68011
-4.00917
2.34836
8.54143
18.1629
21.7981
17.8952
0.0765445
-30.1848
-32.2567
-14.4031
3.19093
3.7666
4.23041
3.26046
-2.14255
-0.145781
-2.47742
-6.93567
-4.06203
-4.45801
1.74756
9.03095
20.8306
24.5914
19.2552
2.26753
-29.7089
-29.758
-14.5178
4.74107
4.58336
4.51474
4.03337
-1.38079
0.420709
-2.53356
-6.14775
-4.13628
-4.80431
0.716007
8.64498
20.7251
23.3971
16.8573
3.44769
-24.0754
-24.9618
-14.3573
6.81753
7.62063
6.53652
4.38553
-0.908744
0.602174
-2.35373
-4.89767
-4.12745
-5.04617
-0.48053
7.14042
16.9888
17.8821
11.4166
3.4311
-14.7776
-18.653
-11.7914
8.3352
7.14559
5.64779
4.27913
-0.470677
0.822918
-1.82333
-3.3974
-3.88796
-4.92869
-1.50576
4.53852
11.3788
11.6062
8.92262
5.70578
-4.30486
-16.6414
-10.3921
10.2777
15.5236
9.21341
4.16453
0.046858
1.14569
-1.02986
-1.8249
-3.32101
-4.35245
-2.2629
1.74151
8.15322
7.9505
10.429
10.8885
9.66076
-4.42436
-4.37389
8.31874
18.3708
28.0192
3.98589
0.796955
1.73207
0.0551269
-0.331183
-2.39505
-3.53376
-2.93042
-0.642583
6.45088
6.06012
11.9749
16.2504
22.3133
15.8727
9.77973
9.69945
25.6876
18.6315
3.74532
1.89227
2.687
1.48496
0.829086
-1.34843
-2.78136
-3.75217
-3.09057
1.37916
2.78021
11.4913
19.5126
30.4026
25.8382
17.9952
9.38637
25.8697
20.6848
3.41594
3.48123
4.11436
3.38741
1.74377
-0.464607
-2.47299
-4.94705
-5.94832
-6.28591
-2.25412
9.85028
21.5335
39.6454
36.1901
25.8249
5.68172
11.1158
24.4789
3.06564
5.61495
6.0067
5.77327
2.72366
0.228456
-2.62151
-6.44761
-8.60513
-13.1699
-6.58477
8.36094
22.4046
39.3691
38.8522
29.3541
-3.4793
-19.2174
-4.88888
2.70851
8.05055
8.02088
8.287
3.94084
1.02031
-2.62443
-7.56445
-9.88356
-17.1963
-8.72253
7.25527
23.05
37.4994
38.2322
25.1524
-12.5379
-32.1177
-12.5777
2.34276
10.2947
9.52605
10.0833
4.92628
1.72619
-2.21738
-7.78988
-9.68533
-17.3009
-8.83925
6.43326
21.9581
34.6537
35.6111
21.4606
-9.08567
-23.4598
-7.50599
1.95378
11.7517
10.0829
10.9643
5.61766
2.06736
-1.97783
-7.51091
-9.16653
-14.6859
-7.7876
5.75809
19.5902
30.2829
30.9353
17.9141
-3.74935
-15.8648
-4.33296
1.53453
11.9372
9.52461
10.5767
5.51521
2.03184
-1.70964
-6.29786
-9.01397
-11.104
-6.04026
4.8685
16.2501
24.6221
24.8002
13.5325
-0.512236
-7.95448
-0.361808
1.07784
10.7693
7.60585
9.47372
5.29944
1.72501
-2.1276
-4.07845
-8.36439
-7.25543
-4.10349
3.96369
12.7273
18.7581
18.0529
8.89911
0.585839
-3.78701
0.748926
0.48466
8.77626
3.82412
5.92798
2.8989
0.974972
-1.05269
-0.56473
-7.26147
-4.99471
-3.11409
2.74269
9.20853
13.2848
11.7561
4.82639
0.642629
-1.39931
0.997683
-0.0980909
3.36928
0.842151
3.16059
2.42806
0.0936388
-2.43358
-0.884339
-5.55303
-4.92761
-3.80199
-0.61955
2.8589
4.86913
4.22028
1.41145
0.104155
-0.427896
0.496826
151.46
149.068
147.438
147.067
144.122
141.381
137.907
135.491
132.522
129.83
127.4
124.998
123.253
121.278
120.32
118.525
118.407
116.374
117.164
115.451
92.9542
92.5028
93.8887
95.1889
95.3265
95.4727
95.0525
94.6298
94.6631
94.4395
94.6422
94.4259
94.7859
94.5323
95.1997
94.8285
95.8817
95.405
96.9502
97.052
114.085
112.718
114.286
114.435
114.318
113.67
113.382
112.569
112.24
111.521
111.267
110.722
110.665
110.183
110.408
109.829
110.486
109.725
111.016
110.631
97.3919
96.7504
98.7864
98.8917
99.6357
98.9923
99.3028
98.6587
98.7616
98.3101
98.382
98.1623
98.4178
98.3044
98.8786
98.7201
99.7435
99.445
101.039
101.313
102.661
101.86
103.737
103.208
104.531
103.342
103.813
103.052
102.976
102.48
102.291
101.966
101.976
101.7
102.082
101.758
102.602
102.177
103.656
103.701
96.7135
96.5734
98.1356
97.514
99.7196
97.9974
98.6403
98.2447
98.0276
97.8791
97.548
97.3993
97.3608
97.1238
97.556
97.24
98.169
97.8916
99.4999
99.6879
95.7008
96.2988
97.1292
96.605
99.8706
97.3787
98.0686
98.3359
97.7917
98.1464
97.5878
97.623
97.464
97.2102
97.5652
97.1971
98.1044
97.9019
99.6148
99.7323
88.8734
90.591
90.5396
90.4224
95.1103
91.6213
92.2825
93.729
92.7965
93.7945
93.2349
93.497
93.4335
93.3068
93.6893
93.4911
94.4616
94.5128
96.4928
96.7874
80.6208
83.355
82.1936
82.3382
88.6616
84.2647
84.602
87.3958
86.3357
87.6713
87.4274
87.7412
87.93
87.9392
88.3739
88.4051
89.327
89.6437
91.666
92.2049
67.3597
70.6849
68.2056
68.4786
77.0888
71.3757
71.0998
75.6443
74.879
76.2388
76.7479
77.2018
78.0251
78.461
79.3227
79.9173
81.0249
81.9609
83.8977
85.4605
53.0289
55.2072
51.9211
51.5664
59.3304
54.3343
53.2505
56.7218
56.677
56.3022
56.8454
56.2659
56.8142
56.517
56.9564
56.9245
57.5826
58.4617
60.2733
62.6841
52.6542
52.3143
53.131
50.3662
53.7781
51.1134
53.7398
50.0919
51.7761
48.9087
49.5183
47.4179
47.3361
45.8163
45.6002
44.7202
45.1301
45.5296
46.5295
46.8013
64.8879
65.4154
65.988
63.934
66.4312
62.6978
64.7874
61.4661
62.748
60.3772
60.7801
59.2674
59.1036
58.1022
57.6055
56.7347
56.2417
55.4951
54.8359
54.3087
60.5913
62.2014
64.0725
63.1702
66.3996
64.8969
67.733
65.2529
67.5287
67.1339
68.1492
68.0096
68.2437
68.3013
68.217
67.9997
67.793
67.3518
67.3353
67.3363
39.9453
40.1646
42.4599
40.6402
43.4056
42.0739
43.9049
43.672
44.5539
44.9084
45.4813
45.996
46.4746
46.9575
47.252
47.5928
48.5363
50.0765
51.4072
52.9224
41.1559
38.5837
39.9412
36.0146
37.4349
34.6465
34.8313
33.36
32.9045
32.0715
31.5317
30.9996
30.6226
30.4165
30.4858
30.7907
31.0498
31.507
31.9219
33.0649
77.4498
73.1006
74.7371
67.7716
67.5701
62.6135
60.3481
56.7608
53.9755
51.0345
48.4227
45.9652
43.8164
42.0624
40.8606
40.0529
39.3668
38.6102
37.458
37.0506
83.4479
77.3083
85.4172
78.6386
80.8909
77.73
76.7516
74.4731
72.527
70.3094
68.1345
65.9552
63.8925
62.1124
60.8694
60.0375
59.4535
59.2412
58.9288
58.2227
91.1075
69.5366
77.8392
67.0383
64.5724
58.1726
53.4826
48.4492
44.119
40.2638
37.1306
34.7722
33.3181
32.9315
33.8406
35.9084
38.8372
43.0504
47.2853
49.1208
776.723
694.343
645.461
589.278
540.41
493.248
449.425
408.044
369.112
332.338
297.553
264.551
233.102
203.103
174.601
146.846
119.93
97.9712
73.4823
36.635
756.305
674.178
625.447
569.445
520.734
473.714
430.005
388.698
349.783
312.955
278.035
244.83
213.154
182.961
154.331
126.502
99.4298
76.8266
51.5835
15.5101
74.5392
53.058
61.4193
50.6759
48.2739
41.8878
37.2029
32.125
27.7213
23.7478
20.4705
17.9666
16.4163
16.0209
16.9645
18.9877
21.7348
25.7474
29.9274
31.1531
67.383
60.7554
68.5956
61.4689
63.4069
59.8867
58.5452
55.8587
53.4591
50.7344
48.0018
45.2648
42.7195
40.6441
39.2085
38.1159
37.2431
36.5094
35.1239
33.3712
48.7789
43.4963
44.6198
36.9613
35.9881
30.2179
27.0735
22.5188
18.7237
14.6656
10.9083
7.27974
4.11689
1.60723
-0.0379432
-1.06937
-1.83041
-2.41485
-3.3453
-2.62762
8.56449
5.55076
7.1609
3.0269
4.50992
1.56123
1.73288
0.109711
-0.539382
-1.44274
-2.08068
-2.52719
-2.76349
-2.36398
-1.54762
-0.167561
1.2929
2.80543
4.08586
6.60573
17.2429
18.4037
21.7603
20.6228
24.4906
24.0239
27.0294
27.5322
29.8622
31.4836
33.7523
35.3459
37.9863
39.2235
38.7344
40.6528
41.5479
42.6038
43.1142
44.2133
58.3465
60.7861
63.0225
62.954
66.4934
66.6631
69.7016
70.7067
73.2176
75.0343
76.7585
80.1031
78.5145
66.1032
24.7084
24.3411
25.6515
24.8466
23.3852
25.6453
47.9267
48.0754
47.5709
45.3849
45.5636
42.4599
41.8557
38.8617
37.2703
34.9307
31.9443
29.8789
26.6817
22.8898
20.8181
16.7549
17.8853
20.8907
12.2435
16.0965
36.2258
36.677
37.0523
35.7959
37.0519
35.1403
36.0229
34.5737
34.9499
34.3535
34.4046
34.1595
34.6598
33.9776
35.1659
34.7826
37.4312
40.1807
39.2186
41.7341
50.4479
52.1897
53.3715
53.4757
55.2683
55.2307
56.6837
56.712
57.8639
58.2205
59.5272
60.2269
61.6557
62.5075
63.8666
64.8735
66.1539
68.0146
69.534
72.7241
64.9118
67.1074
67.8915
68.1197
69.6283
69.4068
70.6623
70.5275
71.3803
71.5262
72.3125
72.7754
73.5648
74.2076
75.0545
75.7965
76.9232
77.9137
79.824
81.2118
77.4642
79.8457
80.5233
81.189
82.435
82.341
83.4354
83.3674
84.0361
84.1363
84.5809
84.8122
85.2107
85.4352
85.9728
86.2078
87.2327
87.7758
89.9477
90.6392
88.2969
90.2132
90.9269
92.0149
92.6183
92.6066
93.1351
92.9409
93.3207
93.1199
93.3092
93.0556
93.1812
92.7578
93.0073
92.4725
93.1926
92.9699
94.8053
95.0268
94.3406
95.0343
95.6129
96.6295
96.2556
96.1414
95.818
95.2767
95.1292
94.46
94.3796
93.5995
93.6058
92.6512
92.8229
91.7201
92.2481
91.3593
92.8042
92.6367
90.2793
90.0999
90.7793
91.8007
90.9409
90.8895
90.2512
89.6808
89.3478
88.5835
88.503
87.7104
87.8754
87.1003
87.5386
86.7304
87.5419
86.7701
88.3603
88.4126
92.1299
91.5233
92.4704
93.6523
92.8019
92.9213
92.3225
91.9032
91.6084
91.0508
91.0864
90.6197
90.9702
90.6282
91.3064
91.0148
92.0931
91.7414
93.4279
93.648
87.5621
87.3561
88.5822
90.2608
89.6054
90.1269
89.7507
89.7497
89.7217
89.5724
89.8801
89.7918
90.4093
90.405
91.3182
91.369
92.6155
92.6454
94.3552
94.7903
104.672
103.879
104.798
106.251
105.292
105.527
104.762
104.48
104.051
103.595
103.49
103.022
103.189
102.728
103.125
102.645
103.33
102.793
104.016
103.745
86.7386
86.6931
87.3764
89.5058
88.6439
89.0592
88.3789
88.3333
88.0589
87.8577
87.9539
87.6682
88.0604
87.7279
88.3711
88.007
88.8376
88.5517
89.7507
89.9278
137.765
135.999
133.888
134.63
130.923
128.856
125.669
122.986
119.855
117.264
114.916
112.631
111.024
109.131
108.317
106.588
106.552
104.636
105.318
104.224
)
;

boundaryField
{
    outletWall
    {
        type            fixedValue;
        value           uniform 0;
    }
    fineWalls
    {
        type            zeroGradient;
    }
    fineFrontAndBack
    {
        type            zeroGradient;
    }
    fineplugLeft
    {
        type            cyclicAMI;
        value           nonuniform List<scalar> 
20
(
92.9128
92.8578
92.1539
94.2811
94.6571
96.6094
97.6997
99.6679
101.302
103.506
105.668
107.979
110.966
123.715
119.315
120.171
122.985
123.898
123.157
120.737
)
;
    }
    fineplugRight
    {
        type            cyclicAMI;
        value           nonuniform List<scalar> 
20
(
85.6247
84.7725
83.2755
85.146
85.3423
87.2151
88.1327
90.0246
91.5312
93.5953
95.6374
97.8139
100.446
111.374
109.881
110.152
112.54
112.152
111.576
109.054
)
;
    }
    inletOutletLeft
    {
        type            cyclicAMI;
        value           nonuniform List<scalar> 
20
(
92.9128
92.8578
92.1539
94.2811
94.6571
96.6094
97.6997
99.6679
101.302
103.506
105.668
107.979
110.966
123.715
119.315
120.171
122.985
123.898
123.157
120.737
)
;
    }
    inletLeft
    {
        type            zeroGradient;
    }
    inletWallsLeft
    {
        type            zeroGradient;
    }
    inletFacesLeft
    {
        type            zeroGradient;
    }
    inletOutletRight
    {
        type            cyclicAMI;
        value           nonuniform List<scalar> 
20
(
85.6247
84.7725
83.2755
85.146
85.3423
87.2151
88.1327
90.0246
91.5312
93.5953
95.6374
97.8139
100.446
111.374
109.881
110.152
112.54
112.152
111.576
109.054
)
;
    }
    inletRight
    {
        type            zeroGradient;
    }
    inletWallsRight
    {
        type            zeroGradient;
    }
    inletFacesRight
    {
        type            zeroGradient;
    }
}


// ************************************************************************* //
