/*--------------------------------*- C++ -*----------------------------------*\
| =========                 |                                                 |
| \\      /  F ield         | OpenFOAM: The Open Source CFD Toolbox           |
|  \\    /   O peration     | Version:  4.1                                   |
|   \\  /    A nd           | Web:      www.OpenFOAM.org                      |
|    \\/     M anipulation  |                                                 |
\*---------------------------------------------------------------------------*/
FoamFile
{
    version     2.0;
    format      ascii;
    class       surfaceScalarField;
    location    "25";
    object      phi;
}
// * * * * * * * * * * * * * * * * * * * * * * * * * * * * * * * * * * * * * //

dimensions      [0 3 -1 0 0 0 0];

internalField   nonuniform List<scalar> 
2360
(
-10621
-7570.73
-3050.31
-7570.73
-7570.73
-4279.29
-3291.45
-4279.29
-4279.29
-4279.28
-657.961
-3621.32
-657.96
-657.961
3556.63
-4214.59
3556.63
3556.63
8099.16
-4542.53
8099.16
8099.15
13272.2
-5173.04
13272.2
13272.2
14565.9
16320.5
17827.3
19116.8
20315.6
21558.8
18258.4
4514.71
19367.5
20378.9
21320.1
22203.3
23034.2
23805.2
24515.3
25155.5
25738.9
26260.5
26763.1
27394.4
28257.5
12724.1
15533.4
12724.1
12724.1
12724.1
426.256
12297.9
426.256
426.257
426.257
431.088
-4.82949
431.088
431.089
-347.805
778.894
-347.804
-347.803
-347.803
-12589.5
12241.7
-12589.5
-12589.5
-12589.5
-27305.2
14715.7
-26360.4
-25578.4
-25051.6
-24581.4
-24054.3
-23462.5
-22789.7
-22044.3
-21221.6
-20331.7
-19372.1
-18344
-17238.3
-19738
3680.15
-18490.1
-17181.1
-15816.3
-14363
-12641.2
-11485.3
-11485.3
-11485.3
-6866.77
-4618.55
-6866.77
-6866.77
-4056.6
-2810.17
-4056.6
-4056.6
-1851.91
-2204.69
-1851.91
-1851.91
164.95
-2016.86
164.951
164.95
164.95
2339.49
-2174.54
2339.49
2339.49
4561.59
-2222.1
-6915.9
-2718.54
-4727.23
-7708.39
-2799.91
-14654.4
-2144.57
-17159.7
-2549.71
-13246.1
-2746.07
2807.63
-2632.99
10455.9
-2205.09
12527.2
-1505.5
10993.5
-648.336
3368.45
40.52
-9567.69
1327.33
-18081.9
2717.96
-20325.4
4064.84
-7743.93
4650.23
10675
4093.71
15349.5
3290.18
10966.9
2835.41
6449.56
2245.64
-5873.31
-4062.3
-3264.52
-10317.2
-1465.06
-16453.9
-1503.47
-17121.3
-2697.98
-12051.6
-3037.32
3146.98
-2958.47
10377.1
-2593.6
12162.3
-1932.97
10332.9
-1381.36
2816.84
-1159.59
-9789.46
-511.621
-18729.8
255.796
-21092.8
2434.72
-9922.86
4024.04
9085.68
3726.01
15647.6
3035.1
11657.8
2567.22
6917.44
2638.32
-4489.5
-5598.16
-2182.45
-12624.2
-1295.48
-17340.8
-2056.05
-16360.7
-3632.34
-10475.3
-3852.83
3367.46
-3530.05
10054.3
-3235.2
11867.5
-2897.04
9994.73
-2813.26
2733.06
-3076.69
-9526.03
-3412.73
-18393.8
-2911.29
-21594.3
158.069
-12992.2
2731.37
6512.37
3030.67
15348.3
2627.44
12061
2238.91
7305.97
2860.37
-3237.98
-7303.66
-1451.18
-14411
-1483.53
-17308.5
-2775.3
-15068.9
-4640.31
-8610.26
-4807.48
3534.63
-4324.78
9571.58
-4095.42
11638.1
-4186.5
10085.8
-4638.21
3184.77
-5828.62
-8335.61
-6863.58
-17358.8
-5952.34
-22505.5
-2477.07
-16467.5
761.758
3273.55
1993.18
14116.8
2115.63
11938.6
2053.27
7368.33
2708.95
-2340.89
-8935.57
-1349.06
-15402.9
-2152.81
-16504.7
-3787.59
-13434.1
-5781.09
-6616.76
-5882.02
3635.56
-5373.71
9063.27
-5279.25
11543.6
-5772.54
10579.1
-6920.05
4332.27
-8896.73
-6358.93
-10008.2
-16247.3
-8929.22
-23584.5
-5375.34
-20021.4
-1280.49
-821.305
748.401
12088
1621.98
11065
2163.94
6826.37
2062.72
-2320.59
-10121
-1964.91
-15758.5
-2990.73
-15478.9
-4860.36
-11564.5
-6879.78
-4597.34
-7019.7
3775.47
-6688.55
8732.13
-6841.7
11696.8
-7760.09
11497.5
-9461.41
6033.6
-11201.4
-4618.99
-11789.4
-15659.2
-11244.7
-24129.3
-8358.79
-22907.2
-3631.83
-5548.27
-989.643
9445.78
562.497
9512.86
2482.85
4906.01
-72.9782
-2932.64
-10898.7
-2791.13
-15900.1
-3785.08
-14485
-5888.47
-9461.13
-7853.6
-2632.2
-8140.27
4062.15
-8125.6
8717.46
-8630.08
12201.3
-9872.49
12739.9
-11142.7
7303.83
-11243.2
-4518.55
-11195
-15707.4
-12032.8
-23291.5
-10834.2
-24105.8
-6162.03
-10220.5
-2694.42
5978.17
-160.719
6979.15
2797.4
1947.89
6404.57
-3566.66
-11547.4
-3437.38
-16029.3
-4529.29
-13393.1
-6785.1
-7205.32
-8643.19
-774.116
-9164.58
4583.54
-9554.17
9107.04
-10389.3
13036.4
-11316.9
13667.4
-10664.1
6651.08
-8784.35
-6398.3
-8635.7
-15856.1
-10913.3
-21013.9
-12101.6
-22917.5
-8364.63
-13957.4
-3858.57
1472.1
-3305.35
6425.94
-7635.04
6277.59
13485.2
-4042.42
-12190.6
-3984.73
-16087
-5283.16
-12094.6
-7536.54
-4951.93
-9285.79
975.125
-10111.3
5409.07
-10904.2
9899.95
-11785.2
13917.4
-11676.9
13559.2
-9150.8
4124.94
-6722.26
-8826.85
-6486.08
-16092.3
-8798.67
-18701.3
-12275
-19441.2
-12809.5
-13423
-11169.7
-167.662
-12064.6
7320.81
-14236.6
8449.66
11490.3
-4485.06
-12766.9
-4597.52
-15974.6
-6053.23
-10638.9
-8150.17
-2854.99
-9804.58
2629.54
-10930.5
6534.98
-11962.7
10932.1
-12507.8
14462.5
-11350
12401.4
-8631.72
1406.64
-6891.54
-10567
-5960.36
-17023.4
-6988.71
-17672.9
-11084
-15345.9
-14568.2
-9938.82
-15142.3
406.425
-14429.5
6608.04
-10863.5
4883.66
1405.66
-4936.55
-13208.1
-5264.58
-15646.5
-6794.77
-9108.73
-8610.65
-1039.11
-10145.5
4164.34
-11463.5
7853.06
-12508.9
11977.5
-12601.5
14555.2
-11019
10818.9
-8991.46
-620.896
-7578.32
-11980.2
-5913.58
-18688.2
-5651.95
-17934.6
-8966.5
-12031.3
-12661.1
-6244.17
-13288.7
1033.98
-12586.8
5906.17
-9372.81
1669.65
-7971.98
-5314.82
-13481.6
-5860.45
-15100.9
-7437
-7532.18
-8917.1
440.986
-10252.4
5499.6
-11603.8
9204.5
-12549.4
12923.1
-12366.6
14372.4
-10785.3
9237.6
-9018.72
-2387.49
-7231.7
-13767.2
-5366.44
-20553.4
-4540.67
-18760.3
-7164.97
-9407.03
-12723.6
-685.516
-15511.2
3821.57
-16447.1
6842.02
-16097.1
1319.72
-11771.3
-5521.27
-13600.7
-6232.26
-14389.9
-7894.81
-5869.62
-9125.02
1671.19
-10207.6
6582.17
-11445.1
10442
-12253.9
13731.9
-11916.3
14034.8
-10211
7532.25
-8159.43
-4439.06
-5954.61
-15972
-4268.72
-22239.3
-3281.48
-19747.6
-3137.3
-9551.22
-7092.38
3269.57
-11076.1
7805.3
-12097.3
7863.17
-12919.3
2141.73
-9157.19
-5532.77
-13609.8
-6303.53
-13619.2
-8110.14
-4063.02
-9287.01
2848.07
-10118.8
7413.97
-11135
11458.2
-11757.5
14354.3
-11212.3
13489.6
-9150.68
5470.6
-6612.43
-6977.31
-4298.21
-18286.2
-2982.47
-23555.1
-2246.37
-20483.7
-939.427
-10858.2
-928.052
3258.19
-3081.08
9958.33
-3198.14
7980.23
-471.788
-584.619
-5114.27
-5386.27
-13564.5
-6081.74
-12923.7
-8049.55
-2095.21
-9432.46
4230.98
-10115.9
8097.41
-10846.5
12188.8
-11191.3
14699.2
-10235.1
12533.4
-7536.99
2772.46
-4544.06
-9970.24
-2580.06
-20250.2
-1800.2
-24334.9
-1156.05
-21127.8
97.8725
-12112.1
2747.01
609.053
3863.23
8842.12
4177.86
7665.59
4784.18
-1190.93
-5503.13
-5139.02
-13511.8
-5632.87
-12429.8
-7657.26
-70.8167
-9445.83
6019.54
-10221.3
8872.88
-10689.2
12656.7
-10618.5
14628.5
-8885.36
10800.3
-5354.29
-758.615
-2374.51
-12950
-1180.78
-21444
-844.23
-24671.5
-264.651
-21707.4
941.304
-13318
3749
-2198.64
6216.16
6374.95
7439.97
6441.78
6617.3
-368.264
-3428.36
-4836.45
-13485.1
-5061.7
-12204.6
-6955.18
1822.66
-9172.37
8236.73
-10304.3
10004.8
-10607.2
12959.6
-9895.61
13916.9
-6940.47
7845.15
-2932.72
-4766.36
-760.769
-15122
-326.706
-21878
-109.942
-24888.2
417.516
-22234.9
1514.25
-14414.8
3656.61
-4341
5951.88
4079.68
7256.69
5136.97
6298.21
590.218
-1344.74
-4513.66
-13501.1
-4475.94
-12242.3
-6103.68
3450.4
-8525.43
10658.5
-9987.58
11467
-10190.3
13162.3
-8777.23
12503.9
-4804.83
3872.76
-1263.55
-8307.65
-135.909
-16249.6
106.346
-22120.3
421.057
-25202.9
896.961
-22710.8
1817.19
-15335
3456.42
-5980.23
5182.11
2353.99
6219.57
4099.51
5506.58
1303.21
540.512
-4224.96
-13544.3
-3895.46
-12571.8
-5138.29
4693.23
-7708.7
13228.9
-9544.98
13303.3
-9540.42
13157.7
-7275.88
10239.4
-3120.79
-282.331
-746.3
-10682.1
-98.1957
-16897.7
359.573
-22578.1
768.087
-25611.5
1199.31
-23142
1921.41
-16057.1
3119.8
-7178.62
4304.4
1169.39
5084.97
3318.95
4714.71
1673.47
1963.78
-4024.68
-3661.61
-4197.7
-6123.61
-7861.63
-7693.79
-5287.17
-2274.9
-875.978
-81.6926
528.149
965.774
1356.9
1880.68
2558.52
3225.36
3716.76
3805.19
259.092
-1552.78
469.617
-1965.19
594.731
-1631.89
687.976
-1382.7
813.002
-1323.9
964.141
-1394.33
1001.32
-1251.41
984.766
-1092.61
964.974
-991.561
950.733
-927.004
925.132
-857.643
881.272
-787.001
811.339
-701.017
718.649
-617.494
597.972
-519.481
462.68
-448.149
316.735
-375.659
190.278
-376.127
94.4713
-535.515
-768.572
83.8545
-1636.63
42.2672
-1923.61
38.2254
-1627.85
41.8554
-1386.33
79.7584
-1361.81
134.848
-1449.42
107.203
-1223.76
75.312
-1060.72
77.26
-993.51
97.8826
-947.629
115.976
-875.738
127.214
-798.242
127.27
-701.074
120.703
-610.929
99.8841
-498.664
72.3119
-420.579
50.0927
-353.44
44.4797
-370.515
33.511
-524.547
-735.061
0.28429
-1636.92
-1.88729
-1921.44
58.7967
-1688.54
90.5579
-1418.09
112.528
-1383.78
127.678
-1464.57
109.454
-1205.54
124.381
-1075.65
147.944
-1017.08
162.242
-961.929
166.831
-880.33
168.717
-800.13
168.901
-701.26
172.176
-614.206
168.504
-494.995
151.658
-403.734
130.988
-332.772
107.064
-346.592
65.2465
-482.731
-669.815
2.03438
-1638.96
6.72738
-1926.13
56.0864
-1737.9
73.6444
-1435.65
86.6581
-1396.79
95.1262
-1473.04
90.4857
-1200.9
101.61
-1086.77
107.439
-1022.91
110.061
-964.551
109.484
-879.755
110.5
-801.147
109.326
-700.088
112.584
-617.464
114.183
-496.595
105.675
-395.227
88.3425
-315.44
71.9624
-330.213
45.9992
-456.769
-623.816
-7.86277
-1631.1
-2.37139
-1931.63
39.9584
-1780.24
48.324
-1444.02
57.8111
-1406.28
64.1091
-1479.34
69.5393
-1206.33
81.9679
-1099.2
86.059
-1027
88.8445
-967.339
89.2755
-880.188
91.065
-802.939
91.1942
-700.219
92.9495
-619.222
101.112
-504.759
107.446
-401.564
104.707
-312.702
91.6191
-317.126
60.3251
-425.477
-563.49
-5.96312
-1625.14
8.60559
-1946.2
45.4408
-1817.07
51.0721
-1449.65
62.5983
-1417.81
71.065
-1487.81
75.0457
-1210.32
85.4078
-1109.57
89.8845
-1031.48
93.7074
-971.163
95.9861
-882.467
97.2258
-804.179
98.3391
-701.333
94.8996
-615.783
98.1955
-508.056
106.472
-409.84
109.778
-316.008
97.1288
-304.478
64.1401
-392.489
-499.35
-2.85588
-1622.28
13.2296
-1962.29
39.3086
-1843.15
45.8535
-1456.2
57.8517
-1429.81
66.1875
-1496.14
72.035
-1216.16
85.9355
-1123.47
96.4445
-1041.99
104.657
-979.377
112.912
-890.723
116.844
-808.112
122.865
-707.354
121.88
-614.799
125.482
-511.658
134.548
-418.907
142.619
-324.08
127.059
-288.918
80.6639
-346.094
-418.687
19.9815
-1642.26
32.6662
-1974.97
50.5198
-1861.01
69.5375
-1475.22
85.675
-1445.95
93.1369
-1503.61
105.5
-1228.53
125.351
-1143.32
144.309
-1060.94
157.811
-992.879
172.739
-905.65
181.191
-816.565
190.709
-716.872
192.725
-616.815
194.995
-513.927
194.998
-418.909
191.208
-320.291
162.047
-259.757
99.891
-283.938
-318.796
54.3441
-1696.61
52.776
-1973.41
59.8288
-1868.06
95.0706
-1510.46
115.752
-1466.63
117.471
-1505.33
141.654
-1252.71
169.201
-1170.87
197.776
-1089.52
216.698
-1011.8
237.916
-926.87
253.095
-831.745
268.587
-732.364
277.747
-625.977
284.456
-520.637
281.791
-416.245
267.51
-306.01
224.909
-217.157
141.396
-200.426
-177.4
80.366
-1776.98
64.3382
-1957.38
57.7241
-1861.45
116.044
-1568.78
145.358
-1495.94
132.168
-1492.14
176.369
-1296.91
210.57
-1205.07
248.513
-1127.46
273.514
-1036.8
301.672
-955.028
325.003
-855.077
349.266
-756.627
370.153
-646.864
388.255
-538.739
394.691
-422.681
378.724
-290.043
330.084
-168.516
222.503
-92.8448
45.1034
78.7165
-1855.69
58.5771
-1937.24
29.5585
-1832.43
99.457
-1638.68
148.021
-1544.51
117.21
-1461.33
176.55
-1356.25
213.981
-1242.5
256.498
-1169.98
289.995
-1070.3
326.51
-991.543
359.898
-888.465
392.948
-789.677
423.359
-677.275
448.576
-563.956
458.548
-432.653
422.768
-254.264
314.669
-60.4166
121.759
100.067
166.862
43.5277
-1899.22
22.7067
-1916.42
2.01444
-1811.74
23.5104
-1660.18
57.1279
-1578.13
43.1372
-1447.34
67.3072
-1380.42
88.7406
-1263.93
107.728
-1188.97
127.923
-1090.5
145.921
-1009.54
162.208
-904.751
170.759
-798.227
170.397
-676.912
156.665
-550.222
121.707
-397.694
32.9217
-165.477
-108.038
80.545
-195.266
187.297
-28.4037
11.1867
-1910.41
-1.35952
-1903.87
0.882948
-1813.98
-13.6516
-1645.64
-12.2566
-1579.52
-9.53609
-1450.06
-18.5822
-1371.38
-22.6021
-1259.91
-34.4911
-1177.08
-42.712
-1082.28
-54.9967
-997.255
-64.8754
-894.872
-78.8464
-784.256
-98.7523
-657.006
-133.804
-515.17
-174.636
-356.862
-190.164
-149.947
-163.842
54.2241
-77.9899
101.446
-106.394
34.2928
-1944.7
43.4198
-1913
57.7996
-1828.36
64.7149
-1652.56
73.1746
-1587.98
77.7889
-1454.67
81.5861
-1375.17
88.0007
-1266.33
87.9857
-1177.06
89.7978
-1084.09
89.3014
-996.758
96.9488
-902.518
113.124
-800.43
134.089
-677.971
141.669
-522.749
140.015
-355.208
181.435
-191.367
267.139
-31.4786
260.234
108.352
153.841
66.8332
-2011.53
69.949
-1916.11
98.6673
-1857.07
127.119
-1681.01
161.647
-1622.51
195.969
-1488.99
229.363
-1408.56
268.896
-1305.86
312.075
-1220.24
358.892
-1130.9
406.803
-1044.67
457.061
-952.774
501.519
-844.887
522.261
-698.713
498.989
-499.476
429.667
-285.885
329.278
-90.9776
216.57
81.2311
150.628
174.297
304.468
31.2708
-2042.8
0.73856
-1885.58
-1.03158
-1855.3
1.68747
-1683.72
5.56721
-1626.38
18.2826
-1501.7
33.9789
-1424.26
55.32
-1327.2
80.9609
-1245.88
111.235
-1161.17
144.456
-1077.89
173.24
-981.555
179.925
-851.57
139.592
-658.377
50.6198
-410.499
-29.6831
-205.573
-26.7199
-93.9252
3.67445
50.8499
-17.4895
195.467
286.979
-41.6077
-2001.19
-111.568
-1815.62
-162.436
-1804.43
-201.975
-1644.18
-242.682
-1585.67
-269.246
-1475.14
-296.004
-1397.5
-314.136
-1309.06
-329.565
-1230.45
-340.031
-1150.71
-347.619
-1070.3
-353.287
-975.886
-358.566
-846.289
-357.472
-659.469
-333.982
-433.987
-283.788
-255.763
-237.415
-140.294
-192.805
6.24425
-163.965
166.631
123.014
-162.515
-1838.68
-349.882
-1628.25
-502.064
-1652.25
-620.253
-1525.99
-728.227
-1477.7
-808.625
-1394.74
-876.933
-1329.19
-927.657
-1258.34
-966.394
-1191.71
-992.225
-1124.87
-1004.82
-1057.7
-995.986
-984.72
-945.443
-896.832
-820.144
-784.767
-604.216
-649.913
-355.995
-503.984
-153.906
-342.381
-26.7398
-120.919
34.8859
105.008
157.9
-196.197
-1642.48
-439.984
-1384.46
-695.434
-1396.8
-911.25
-1310.17
-1118.61
-1270.34
-1294.79
-1218.56
-1448.99
-1174.98
-1576.53
-1130.8
-1679.82
-1088.42
-1758.37
-1046.33
-1811.44
-1004.63
-1833.25
-962.903
-1809.91
-920.168
-1721.85
-872.832
-1557.09
-814.676
-1320.72
-740.35
-1020.52
-642.579
-642.96
-498.479
-244.21
-293.741
-86.3093
-667.476
-1076.93
-1498.73
-1833.91
-2129.24
-2372.8
-2572.79
-2728.59
-2842.01
-2913.34
-2942.96
-2930.87
-2876.04
-2773.87
-2613.54
-2378.89
-2046.47
-1569.95
-888.691
-662.104
1637.11
-1066.15
1379.05
-1482.41
1391.27
-1811.99
1304.58
-2101.68
1264.69
-2339.62
1212.94
-2534.28
1169.66
-2685.57
1126.3
-2796.17
1085.6
-2867.14
1045.97
-2898.94
1006.8
-2890.2
966.262
-2837.08
921.884
-2732.12
870.038
-2564.79
807.673
-2325.07
735.278
-2001.59
651.52
-1562.06
535.477
-931.969
344.907
43.031
-196.734
1833.84
-445.245
1627.56
-705.005
1651.03
-928.283
1527.87
-1144.47
1480.89
-1332.34
1400.81
-1500.94
1338.26
-1646.48
1271.84
-1771.16
1210.28
-1872.57
1147.37
-1944.13
1078.37
-1970.15
992.282
-1926.14
877.876
-1789.41
733.314
-1557.04
575.303
-1248.23
426.462
-884.803
288.099
-488.948
139.623
-121.484
-22.5539
-78.4525
-183.464
2017.31
-388.707
1832.81
-560.693
1823.02
-700.725
1667.9
-831.203
1611.37
-935.805
1505.41
-1030.01
1432.46
-1108.99
1350.83
-1178.37
1279.66
-1235.1
1204.1
-1274.06
1117.32
-1279.37
997.603
-1223.88
822.38
-1074.52
583.96
-830.303
331.088
-563.111
159.272
-335.483
60.4728
-118.634
-77.2211
46.9725
-188.151
-31.4798
-45.0065
2062.32
-127.359
1915.16
-184.719
1880.38
-229.74
1712.92
-273.573
1655.2
-302.932
1534.77
-329.807
1459.34
-345.719
1366.75
-354.515
1288.46
-355.686
1205.27
-353.888
1115.53
-354.682
998.398
-366.51
834.211
-400.327
617.78
-446.233
377
-483.225
196.269
-497.323
74.5758
-454.774
-119.766
-375.504
-267.416
-406.984
70.4703
1991.85
32.79
1952.84
44.5007
1868.67
64.6079
1692.82
91.0606
1628.75
129.439
1496.4
180.409
1408.37
238.406
1308.75
301.973
1224.9
372.788
1134.46
449.415
1038.9
512.35
935.465
536.099
810.466
542.538
611.343
457.259
462.283
309.042
344.491
185.022
198.606
76.929
-11.6606
-38.7432
-151.735
-445.727
116.911
1874.94
121.207
1948.54
167.476
1822.4
217.138
1643.15
270.642
1575.24
332.863
1434.17
402.529
1338.71
475.997
1235.28
545.393
1155.5
620.384
1059.46
695.718
963.566
771.631
859.548
805.958
776.141
813.837
603.464
698.872
577.252
567.973
475.393
399.301
367.285
217.494
170.16
83.046
-17.2739
-362.681
34.8354
1840.1
28.2064
1955.17
30.1354
1820.47
25.8897
1647.39
25.2488
1575.88
28.0844
1431.33
20.6375
1346.14
13.7574
1242.15
-11.1947
1180.44
-44.9513
1093.21
-101.833
1020.44
-151.452
909.164
-202.241
826.93
-292.636
693.86
-450.645
735.267
-425.162
449.921
-327.988
270.127
-248.728
90.9256
-176.471
-89.5074
-539.151
11.3762
1828.72
19.1957
1947.34
26.8227
1812.83
29.3609
1644.84
32.1228
1573.12
19.5762
1443.87
1.10814
1364.61
4.75069
1238.5
23.6965
1161.49
55.9377
1060.96
92.9834
983.389
129.393
872.744
172.637
783.689
193.685
672.808
188.525
740.43
174.728
463.719
209.546
235.314
123.887
176.591
35.5605
-1.16957
-503.591
43.487
1785.23
50.2042
1940.63
68.2882
1794.75
79.3944
1633.74
88.433
1564.08
82.6076
1449.7
75.2799
1371.94
77.5907
1236.18
101.976
1137.11
141.564
1021.37
200.344
924.611
267.136
805.951
364.078
686.748
458.402
578.484
583.543
615.291
548.86
498.403
449.261
334.915
382.947
242.909
314.076
67.7059
-189.515
90.4904
1694.74
75.946
1955.17
88.5042
1782.19
101.679
1620.56
119.373
1546.38
131.984
1437.08
147.715
1356.2
155.728
1228.17
173.638
1119.2
196.456
998.544
233.705
887.361
273.869
765.785
317.476
643.142
359.486
536.473
491.748
483.029
557.425
432.726
519.865
372.475
450.089
312.686
284.318
233.478
94.803
132.051
1562.68
116.958
1970.26
124.335
1774.81
140.365
1604.53
168.382
1518.36
200.639
1404.82
240.879
1315.96
269.711
1199.33
295.846
1093.06
313.88
980.509
328.28
872.961
330.805
763.258
315.315
658.632
302.927
548.86
346.721
439.234
384.367
395.08
376.029
380.814
319.51
369.205
191.162
361.827
285.965
118.877
1443.8
115.359
1973.77
122.606
1767.56
136.42
1590.71
164.974
1489.81
205.885
1363.91
258.161
1263.69
305.201
1152.29
341.375
1056.89
361.902
959.979
367.299
867.562
355.962
774.593
335.303
679.289
324.07
560.092
321.043
442.26
316.263
399.859
305.001
392.074
258.532
415.674
158.552
461.805
444.517
52.1708
1391.63
52.7486
1973.19
67.1972
1753.11
73.4059
1584.5
88.309
1474.9
110.159
1342.06
141.71
1232.13
178.636
1115.36
206.371
1029.15
222.045
944.305
226.215
863.391
226.218
774.589
235.896
669.61
246.807
549.18
248.225
440.841
250.628
397.454
252.752
389.951
220.478
447.948
142.561
539.72
587.078
-12.5587
1404.19
-15.6327
1976.26
4.12588
1733.35
1.27571
1587.35
0.321613
1475.86
-6.41987
1348.8
-11.2999
1237.01
-8.9469
1113.01
-1.79262
1021.99
7.79534
934.715
20.7728
850.411
42.9248
752.435
72.8567
639.677
89.4878
532.548
104.56
425.767
128.737
373.276
149.101
369.586
140.792
456.255
98.2598
582.251
685.338
-32.0865
1436.27
-30.2647
1974.44
-0.547285
1703.63
-1.14614
1587.95
-1.80134
1476.51
-10.3416
1357.34
-23.0576
1249.73
-39.8884
1129.84
-45.6197
1027.72
-40.8472
929.941
-25.1406
834.703
-5.34798
732.641
7.22153
627.106
6.74589
533.022
9.53689
422.975
20.464
362.348
32.864
357.186
36.4189
452.699
24.6469
594.022
709.985
-26.7116
1462.98
-18.8161
1966.54
16.2081
1668.61
26.0288
1578.13
37.5997
1464.94
47.9584
1346.98
57.6545
1240.03
56.4595
1131.03
56.5331
1027.65
57.639
928.833
61.8172
830.524
58.9257
735.531
47.7233
638.307
34.3259
546.418
23.0896
434.21
14.9009
370.536
13.0166
359.07
8.76329
456.952
-8.28392
611.069
701.701
-1.23799
1464.22
16.692
1948.61
56.2585
1629.04
77.8748
1556.51
93.5514
1449.26
107.049
1333.48
125.351
1221.73
139.546
1116.84
149.159
1018.03
148.893
929.098
141.691
837.725
125.315
751.906
107.62
656.001
91.8866
562.151
73.7743
452.322
55.5149
388.795
46.8341
367.75
40.0095
463.776
8.18333
642.894
709.884
3.78534
1460.43
21.4815
1930.92
75.0011
1575.52
103.046
1528.46
119.609
1432.7
131.304
1321.78
145.468
1207.56
159.878
1102.43
173.217
1004.7
176.566
925.748
173.909
840.382
166.884
758.931
163.676
659.209
158.547
567.279
149.714
461.154
138.932
399.576
134.548
372.134
120.44
477.883
68.1543
695.179
778.039
77.8867
1382.55
65.1505
1943.65
64.9926
1575.68
89.5829
1503.87
97.4255
1424.86
89.4266
1329.78
84.0061
1212.98
76.2956
1110.14
70.5215
1010.47
67.3066
928.963
64.8191
842.869
63.2637
760.486
60.7874
661.684
55.7082
572.357
46.7479
470.114
45.5618
400.762
65.0129
352.683
94.4792
448.417
71.8433
717.815
849.882
226.652
448.556
570.842
709.932
825.864
907.7
940.265
944.681
927.07
896.393
849.337
787.172
703.396
602.992
481.353
355.007
237.436
159.097
94.855
)
;

boundaryField
{
    outletWall
    {
        type            calculated;
        value           nonuniform List<scalar> 
60
(
4561.59
-1632.33
-5994.79
-10163.3
-14793
-11260.4
6397.06
18934.8
16795
8878.84
-4225.62
-11693.1
-12955.1
-10569
-2611.27
13651.2
16504.3
12727.1
5519.72
1697.43
4079.49
4268.2
4529.7
4809.71
5086.32
5340.93
5541.9
5640.37
5588.31
5377.74
5061.38
4685.65
4215.32
3710.32
3506.05
3972.81
4943.48
6025.37
7217.06
7937.02
10621
2718.66
1585.03
2827.56
502.543
-7856.47
-16580.9
-23533.1
-26049.1
-23187.9
-17692
-12081.1
-3294.6
7832.74
12989.9
15041.3
15154.8
5229.32
-12934.9
-13599.2
)
;
    }
    fineWalls
    {
        type            calculated;
        value           uniform 0;
    }
    fineFrontAndBack
    {
        type            calculated;
        value           nonuniform List<scalar> 
960
(
-6.40893e-13
-5.74695e-12
-1.48311e-12
-1.87294e-12
-1.21221e-11
-2.78896e-12
-2.62547e-12
-2.49791e-12
-1.05844e-11
-8.9508e-15
1.7326e-12
1.63872e-11
4.90808e-12
4.94788e-12
2.07374e-11
3.52427e-12
3.40129e-12
1.18521e-11
1.75658e-12
1.362e-12
3.29026e-13
-3.64848e-15
-8.19346e-14
-1.63028e-13
-1.99801e-13
-3.14243e-13
-1.41701e-12
-4.81329e-13
-5.50257e-13
-6.18398e-13
-6.90132e-13
-7.6231e-13
-8.47269e-13
-9.3655e-13
-1.05361e-12
-1.19321e-12
-1.3375e-12
-1.63986e-12
-1.57344e-12
-1.23251e-12
-2.81769e-11
-3.94413e-12
-3.84685e-12
-4.09775e-12
-8.9212e-12
8.64352e-13
2.99816e-12
2.02337e-11
5.78225e-10
5.1982e-11
2.16754e-11
4.47093e-11
6.3611e-12
5.98583e-12
2.58928e-12
1.00481e-11
1.69192e-12
1.61456e-12
1.67171e-12
1.32593e-11
6.58845e-13
9.19455e-13
1.19032e-12
1.04818e-12
8.51858e-13
7.22626e-13
6.13942e-13
5.24953e-13
4.49205e-13
3.87189e-13
3.41127e-13
3.03807e-13
2.67456e-13
-5.46244e-12
1.0007e-13
-4.68333e-14
-6.84896e-14
-1.59071e-13
-2.56234e-13
-6.17554e-13
-3.06891e-12
-3.39829e-12
-1.94816e-11
-3.50394e-12
-3.77516e-12
-2.13116e-11
-3.51275e-12
-3.77222e-12
-2.08406e-11
-3.14953e-12
-2.79847e-12
-1.16785e-11
-1.48801e-12
-1.75114e-12
-1.51043e-12
-2.04023e-11
-3.91997e-12
-3.44917e-12
-2.01411e-11
-5.40463e-12
-7.47628e-12
1.18079e-11
1.20922e-11
1.53208e-11
1.52065e-11
8.13238e-12
1.8184e-12
-7.81102e-14
9.14256e-13
-1.44748e-12
-1.01066e-12
-3.09259e-12
-2.34525e-12
-4.72196e-12
-8.34324e-12
-1.76268e-11
-2.63837e-11
-3.22049e-11
-3.61277e-11
-1.55282e-11
2.4592e-12
1.27273e-12
2.98305e-12
-2.5592e-12
2.53565e-12
2.34129e-12
1.22001e-12
3.31733e-12
2.24275e-12
9.18175e-13
-1.93205e-13
1.7676e-12
-6.76155e-12
-6.0485e-12
-1.53265e-11
-2.53228e-11
-3.17918e-11
-3.63563e-11
-1.24052e-11
-4.90537e-12
1.25139e-13
-2.60067e-12
-1.30881e-11
1.77785e-12
3.84487e-12
4.27743e-12
7.93445e-12
5.55076e-12
-9.65425e-14
8.70716e-13
-7.58639e-13
-1.15235e-11
-3.69384e-12
-1.14131e-11
-2.26737e-11
-3.05126e-11
-3.79807e-11
-1.35572e-11
-8.37712e-12
5.51355e-12
-9.03644e-12
-2.22146e-11
5.69562e-12
1.35377e-11
1.39721e-11
1.22214e-11
2.80375e-13
-4.50212e-12
-9.45124e-13
-4.75508e-12
-1.14944e-11
-7.71737e-12
-9.8002e-12
-1.97256e-11
-2.80392e-11
-3.56708e-11
-1.90594e-11
1.29003e-12
9.15087e-12
-1.66621e-11
-3.21167e-11
8.83864e-12
2.73704e-11
2.34648e-11
7.21105e-12
-1.00548e-11
-1.08826e-11
-5.56361e-12
-9.08896e-12
-1.12596e-11
-1.29066e-11
-9.46163e-12
-1.6631e-11
-2.47059e-11
-2.91524e-11
-1.82226e-11
1.9592e-11
7.24028e-12
-2.24423e-11
-4.75421e-11
-1.02777e-11
1.73151e-11
9.21927e-12
-1.31776e-11
-2.37098e-11
-1.89009e-11
-1.55035e-11
-1.48043e-11
-1.2522e-11
-1.48338e-11
-1.11461e-11
-1.67828e-11
-2.17412e-11
-2.37023e-11
5.75156e-13
2.82286e-11
4.16376e-12
-2.40252e-11
-6.88387e-11
-5.59979e-11
-2.81256e-11
-2.8743e-11
-3.42792e-11
-2.85779e-11
-2.53083e-11
-2.66194e-11
-2.1492e-11
-1.59506e-11
-1.46814e-11
-1.52746e-11
-1.53346e-11
-2.20489e-11
-3.5284e-11
2.38291e-11
2.57335e-11
8.6018e-12
-2.11438e-11
-8.46408e-11
-9.27533e-11
-7.13963e-11
-5.62102e-11
-4.02686e-11
-2.85948e-11
-2.99654e-11
-2.63539e-11
-2.42446e-11
-2.09399e-11
-1.20065e-11
-2.09526e-11
-1.94452e-11
-1.61759e-11
-1.28754e-12
4.00118e-11
2.5521e-11
1.85633e-11
-1.10853e-11
-8.70102e-11
-1.04191e-10
-8.51117e-11
-6.02213e-11
-3.69362e-11
-2.60743e-11
-1.9825e-11
-1.47727e-11
-1.84671e-11
-2.67859e-11
-1.34459e-11
-7.9133e-12
-9.63767e-12
3.35936e-12
1.24276e-11
5.04508e-11
2.94432e-11
2.88027e-11
9.90936e-12
-6.4494e-11
-8.85152e-11
-7.16965e-11
-4.85799e-11
-2.90255e-11
-1.31242e-11
3.13226e-12
-6.43653e-12
-7.89784e-12
-2.53421e-11
-1.81433e-11
5.56017e-12
-3.11334e-12
7.66443e-12
2.41742e-11
5.55352e-11
3.10311e-11
3.353e-11
3.85969e-11
-1.60521e-11
-5.17255e-11
-4.63644e-11
-3.06095e-11
-1.30605e-11
8.97829e-12
1.05128e-11
3.51614e-13
-2.64187e-12
-1.68239e-11
-1.81643e-11
2.39113e-11
3.68743e-11
8.18257e-11
2.5943e-10
5.31227e-11
2.79418e-11
2.64525e-11
4.84064e-11
1.95345e-11
-1.72678e-11
-2.26576e-11
-1.31161e-11
7.31962e-13
8.66772e-12
-3.48176e-12
-8.52162e-12
-4.38264e-12
-1.24025e-11
-4.36194e-11
-3.80467e-11
-3.03553e-11
-4.96383e-11
-4.8442e-11
4.8202e-11
2.71303e-11
1.68193e-11
3.53664e-11
2.58461e-11
-4.12803e-13
-7.54093e-12
8.14706e-13
1.00746e-11
6.95244e-12
-7.714e-12
-1.08144e-11
-9.03408e-12
-7.28829e-12
-2.98891e-11
-4.96913e-11
-3.49603e-11
-2.63408e-11
-2.81783e-11
4.2474e-11
2.89049e-11
1.34608e-11
2.38199e-11
1.9627e-11
3.2918e-12
4.39243e-14
9.34212e-12
1.50817e-11
5.74756e-12
-1.08277e-11
-1.26274e-11
-1.24669e-11
-9.23421e-12
-1.28253e-11
-4.0073e-11
-3.72521e-11
-1.72331e-11
5.02688e-12
3.54239e-11
2.82327e-11
1.18479e-11
1.8073e-11
1.5469e-11
4.78665e-12
3.47433e-12
1.06054e-11
1.19408e-11
-1.69773e-12
-1.3723e-11
-1.36009e-11
-1.34047e-11
-1.15102e-11
-6.508e-12
-1.49058e-11
-2.25694e-11
-1.46331e-11
-1.35373e-11
2.9144e-11
2.5369e-11
7.70649e-12
1.36078e-11
1.74566e-11
8.1531e-12
5.18885e-12
6.26908e-12
-2.70367e-13
-1.31065e-11
-1.51206e-11
-1.38143e-11
-1.23038e-11
-1.11338e-11
-1.05529e-11
-3.62621e-12
-6.71219e-12
-2.10928e-12
-8.45265e-12
2.62374e-11
2.37673e-11
1.6956e-12
6.59124e-12
2.07698e-11
1.39297e-11
6.45309e-12
-8.89633e-13
-1.39891e-11
-1.69722e-11
-1.60582e-11
-1.3322e-11
-1.17396e-11
-1.06532e-11
-9.4025e-12
-6.05658e-12
-4.29081e-12
-1.71331e-12
-8.68051e-12
2.6734e-11
2.4025e-11
-1.52554e-12
-3.25761e-12
1.93603e-11
1.81179e-11
7.34922e-12
-4.31204e-12
-1.43806e-11
-1.59005e-11
-1.66926e-11
-1.26401e-11
-1.13775e-11
-1.06785e-11
-9.2017e-12
-8.12584e-12
-6.11489e-12
-5.31026e-12
-1.42575e-12
2.88405e-11
2.68607e-11
-6.18515e-13
-1.31423e-11
1.23489e-11
1.92872e-11
8.0995e-12
-5.22957e-12
-1.21049e-11
-1.57972e-11
-1.64005e-11
-1.20175e-11
-1.0993e-11
-1.06055e-11
-8.93982e-12
-7.78021e-12
-6.33954e-12
-6.01392e-12
-8.85655e-13
3.01087e-11
2.9291e-11
2.33e-12
-2.14933e-11
-9.62191e-12
4.71483e-12
2.75163e-12
-5.97774e-12
-1.05373e-11
-1.53553e-11
-1.56506e-11
-1.17624e-11
-1.07082e-11
-1.05749e-11
-8.71637e-12
-7.2097e-12
-5.74622e-12
-5.20659e-12
-2.25863e-12
6.40893e-13
5.74695e-12
1.48311e-12
1.87294e-12
1.21221e-11
2.78896e-12
2.62547e-12
2.49791e-12
1.05844e-11
8.9508e-15
-1.7326e-12
-1.63872e-11
-4.90808e-12
-4.94788e-12
-2.07374e-11
-3.52427e-12
-3.40129e-12
-1.18521e-11
-1.75658e-12
-1.362e-12
-3.29026e-13
3.64848e-15
8.19346e-14
1.63028e-13
1.99801e-13
3.14243e-13
1.41701e-12
4.81329e-13
5.50257e-13
6.18398e-13
6.90132e-13
7.6231e-13
8.47269e-13
9.3655e-13
1.05361e-12
1.19321e-12
1.3375e-12
1.63986e-12
1.57344e-12
1.23251e-12
2.81769e-11
3.94413e-12
3.84685e-12
4.09775e-12
8.9212e-12
-8.64352e-13
-2.99816e-12
-2.02337e-11
-5.78225e-10
-5.1982e-11
-2.16754e-11
-4.47093e-11
-6.3611e-12
-5.98583e-12
-2.58928e-12
-1.00481e-11
-1.69192e-12
-1.61456e-12
-1.67171e-12
-1.32593e-11
-6.58845e-13
-9.19455e-13
-1.19032e-12
-1.04818e-12
-8.51858e-13
-7.22626e-13
-6.13942e-13
-5.24953e-13
-4.49205e-13
-3.87189e-13
-3.41127e-13
-3.03807e-13
-2.67456e-13
5.46244e-12
-1.0007e-13
4.68333e-14
6.84896e-14
1.59071e-13
2.56234e-13
6.17554e-13
3.06891e-12
3.39829e-12
1.94816e-11
3.50394e-12
3.77516e-12
2.13116e-11
3.51275e-12
3.77222e-12
2.08406e-11
3.14953e-12
2.79847e-12
1.16785e-11
1.48801e-12
1.75114e-12
1.51043e-12
2.04023e-11
3.91997e-12
3.44917e-12
2.01411e-11
5.40463e-12
7.47628e-12
-1.18079e-11
-1.20922e-11
-1.53208e-11
-1.52065e-11
-8.13238e-12
-1.8184e-12
7.81102e-14
-9.14256e-13
1.44748e-12
1.01066e-12
3.09259e-12
2.34525e-12
4.72196e-12
8.34324e-12
1.76268e-11
2.63837e-11
3.22049e-11
3.61277e-11
1.55282e-11
-2.4592e-12
-1.27273e-12
-2.98305e-12
2.5592e-12
-2.53565e-12
-2.34129e-12
-1.22001e-12
-3.31733e-12
-2.24275e-12
-9.18175e-13
1.93205e-13
-1.7676e-12
6.76155e-12
6.0485e-12
1.53265e-11
2.53228e-11
3.17918e-11
3.63563e-11
1.24052e-11
4.90537e-12
-1.25139e-13
2.60067e-12
1.30881e-11
-1.77785e-12
-3.84487e-12
-4.27743e-12
-7.93445e-12
-5.55076e-12
9.65425e-14
-8.70716e-13
7.58639e-13
1.15235e-11
3.69384e-12
1.14131e-11
2.26737e-11
3.05126e-11
3.79807e-11
1.35572e-11
8.37712e-12
-5.51355e-12
9.03644e-12
2.22146e-11
-5.69562e-12
-1.35377e-11
-1.39721e-11
-1.22214e-11
-2.80375e-13
4.50212e-12
9.45124e-13
4.75508e-12
1.14944e-11
7.71737e-12
9.8002e-12
1.97256e-11
2.80392e-11
3.56708e-11
1.90594e-11
-1.29003e-12
-9.15087e-12
1.66621e-11
3.21167e-11
-8.83864e-12
-2.73704e-11
-2.34648e-11
-7.21105e-12
1.00548e-11
1.08826e-11
5.56361e-12
9.08896e-12
1.12596e-11
1.29066e-11
9.46163e-12
1.6631e-11
2.47059e-11
2.91524e-11
1.82226e-11
-1.9592e-11
-7.24028e-12
2.24423e-11
4.75421e-11
1.02777e-11
-1.73151e-11
-9.21927e-12
1.31776e-11
2.37098e-11
1.89009e-11
1.55035e-11
1.48043e-11
1.2522e-11