/*--------------------------------*- C++ -*----------------------------------*\
| =========                 |                                                 |
| \\      /  F ield         | OpenFOAM: The Open Source CFD Toolbox           |
|  \\    /   O peration     | Version:  4.1                                   |
|   \\  /    A nd           | Web:      www.OpenFOAM.org                      |
|    \\/     M anipulation  |                                                 |
\*---------------------------------------------------------------------------*/
FoamFile
{
    version     2.0;
    format      ascii;
    class       volVectorField;
    location    "25";
    object      U;
}
// * * * * * * * * * * * * * * * * * * * * * * * * * * * * * * * * * * * * * //

dimensions      [0 1 -1 0 0 0 0];

internalField   nonuniform List<vector> 
1280
(
(-4.63156e-16 -3.49574 -1.95144)
(-9.76749e-16 -2.85585 -1.98793)
(-1.06729e-15 -2.75688 -1.37688)
(-1.35353e-15 -2.36468 -1.55966)
(-2.06026e-15 -2.33928 -2.18753)
(-2.01551e-15 -1.57424 -1.41078)
(-1.89736e-15 -1.4989 -1.55706)
(-1.75314e-15 -1.15454 -1.6188)
(-2.024e-15 -0.775356 -2.37803)
(-6.46851e-18 -0.315756 -1.62938)
(1.25211e-15 -0.0246839 -1.87056)
(3.22982e-15 0.664843 -2.79557)
(3.54694e-15 1.00882 -2.0329)
(3.5757e-15 1.29453 -1.81752)
(3.80036e-15 2.30935 -2.99129)
(2.5469e-15 2.29172 -2.4304)
(2.45802e-15 2.96702 -2.19459)
(2.01437e-15 2.75389 -4.04521)
(1.26154e-15 4.67718 -2.0157)
(9.84278e-16 2.57386 -6.3583)
(1.34985e-15 4.48675 1.76555)
(-1.49681e-17 4.62087 6.80397)
(-3.36142e-16 4.54486 8.27725)
(-6.68835e-16 5.02918 8.81015)
(-8.19697e-16 5.01528 9.07159)
(-1.2892e-15 5.42611 10.2278)
(-2.98712e-16 4.40555 7.53114)
(-1.97468e-15 8.53293 13.111)
(-2.25746e-15 8.73395 13.2066)
(-2.53702e-15 8.73258 13.2722)
(-2.83131e-15 8.77245 13.3161)
(-3.12743e-15 8.75047 13.354)
(-3.47598e-15 8.76167 13.3248)
(-3.84226e-15 8.66832 13.2712)
(-4.32249e-15 8.67035 13.1352)
(-4.89522e-15 8.49677 13.0424)
(-5.48717e-15 8.5219 12.8994)
(-6.72762e-15 8.24484 12.8016)
(-6.45516e-15 8.2673 13.0874)
(-5.05646e-15 8.10668 14.2135)
(-4.9046e-15 8.95252 14.5944)
(-3.16798e-15 5.59042 9.48363)
(-3.08984e-15 4.48754 9.20645)
(-3.27112e-15 3.45521 9.20381)
(-1.38717e-15 1.50769 8.34842)
(6.94258e-16 0.569441 3.30337)
(2.40816e-15 -0.131059 0.260323)
(1.62519e-14 0.529021 -1.66732)
(1.01904e-13 0.471511 -4.97762)
(4.20122e-14 -0.405749 -3.48546)
(1.74966e-14 0.664198 -3.28875)
(7.7823e-15 0.00767423 -4.46947)
(5.10932e-15 -0.300553 0.164049)
(4.8079e-15 0.223119 2.18528)
(2.07974e-15 -0.774688 4.71691)
(1.74902e-15 -1.39119 8.56491)
(1.37718e-15 -3.41441 9.28088)
(1.29734e-15 -4.40404 9.39564)
(1.34274e-15 -5.62689 9.70732)
(2.26056e-15 -9.07662 14.8661)
(2.70295e-15 -7.67016 14.6494)
(3.77212e-15 -7.93182 13.6434)
(4.88337e-15 -7.78228 12.7534)
(4.30023e-15 -8.14639 12.7509)
(3.4948e-15 -8.10009 12.9684)
(2.96462e-15 -8.32544 13.1549)
(2.51874e-15 -8.31904 13.4024)
(2.15365e-15 -8.45358 13.5792)
(1.84289e-15 -8.44992 13.7555)
(1.58847e-15 -8.51138 13.8379)
(1.39949e-15 -8.47256 13.886)
(1.24639e-15 -8.47463 13.8432)
(1.09725e-15 -8.32804 13.7059)
(-1.1515e-15 -4.03798 8.21492)
(4.10544e-16 -4.5835 11.0046)
(-1.92137e-16 -4.2834 10.1996)
(-2.80983e-16 -4.2447 9.46949)
(-6.52597e-16 -3.80346 8.40529)
(-1.05122e-15 -4.01799 7.08977)
(-2.53355e-15 -3.80768 1.30147)
(-2.21782e-15 -2.31815 -5.78734)
(-2.46761e-15 -3.97259 -2.19064)
(-3.31108e-15 -2.198 -4.01957)
(-2.5322e-15 -2.552 -1.91944)
(-2.72821e-15 -1.91715 -2.17106)
(-3.60022e-15 -2.03345 -2.52757)
(-2.53937e-15 -1.47426 -1.46876)
(-2.71006e-15 -1.19155 -1.56408)
(-3.48419e-15 -1.09316 -1.89903)
(-2.29571e-15 -0.746223 -1.09489)
(-2.0423e-15 -0.538637 -1.1445)
(-1.82529e-15 -0.43561 -1.62865)
(-9.97591e-16 -0.103175 -1.25307)
(-1.2655e-15 0.0401298 -1.29472)
(-1.09155e-15 0.233866 -1.0685)
(-3.46756e-15 0.480972 -1.67555)
(-2.83286e-15 0.696446 -1.18892)
(-2.49263e-15 0.95322 -0.978727)
(-3.45959e-15 0.915394 -1.48072)
(-3.90578e-15 1.49905 -1.55214)
(-8.30698e-16 0.613703 6.60431)
(1.31199e-15 1.93367 4.9521)
(1.34357e-15 4.31937 2.90663)
(1.70231e-15 5.54225 1.7556)
(1.68962e-15 4.55695 1.83155)
(9.03598e-16 -0.897728 2.34844)
(2.02044e-16 -3.48332 2.30311)
(-8.67891e-18 -4.30049 2.06424)
(1.01584e-16 -3.89715 1.6124)
(-1.60831e-16 -1.4263 0.861965)
(-1.12296e-16 3.04264 0.26747)
(-3.43622e-16 5.67245 -0.363924)
(-2.60584e-16 6.39234 -1.8303)
(-5.24663e-16 2.19619 -2.7043)
(-9.27027e-16 -3.6582 -4.01107)
(-1.95853e-15 -4.93446 -3.80819)
(-2.93152e-15 -3.4234 -3.02279)
(-3.57833e-15 -2.01883 -2.43762)
(-4.01419e-15 -0.579385 -2.29302)
(-1.72535e-15 1.13484 5.98311)
(2.73244e-16 3.09806 3.86276)
(1.41415e-16 5.34905 1.54199)
(3.3145e-16 5.84414 0.897476)
(-2.84355e-16 4.2981 1.66446)
(2.81738e-16 -0.962656 2.69553)
(2.60143e-16 -3.51587 2.49938)
(1.35557e-16 -4.10067 2.36761)
(3.68592e-16 -3.49264 1.96664)
(2.49195e-16 -0.879609 1.19757)
(1.02019e-16 3.24542 1.17173)
(-2.14672e-17 6.28105 0.713333)
(1.964e-16 7.07433 0.164651)
(-7.51283e-16 2.94802 -0.51558)
(-6.72056e-16 -3.3963 -3.42675)
(-1.70295e-15 -5.24504 -3.49595)
(-2.81365e-15 -3.81649 -2.74009)
(-3.53242e-15 -2.25471 -2.264)
(-4.03959e-15 -0.890948 -2.00401)
(-1.37836e-15 1.59694 4.97918)
(-5.45041e-16 3.8135 2.57551)
(1.39043e-17 5.66501 1.02108)
(-2.88963e-16 5.60361 1.13244)
(-1.45423e-15 3.76479 2.37398)
(1.97539e-16 -1.11594 3.53407)
(4.27207e-16 -3.41843 3.00805)
(4.7527e-16 -3.99282 2.81297)
(8.81605e-16 -3.34634 2.59827)
(6.16751e-16 -0.896213 2.19269)
(-1.07269e-17 3.27635 2.50774)
(9.67463e-17 6.24273 2.5995)
(-8.42932e-17 7.03561 3.10707)
(-1.28039e-15 3.7163 1.89522)
(-4.10426e-16 -2.68455 -2.03106)
(-1.26812e-15 -5.24701 -2.82285)
(-2.5193e-15 -3.99639 -2.27929)
(-3.39029e-15 -2.36071 -2.01163)
(-4.22008e-15 -0.859096 -1.72692)
(-1.50635e-15 2.12574 4.06638)
(-9.30791e-16 4.57879 1.41194)
(6.12616e-16 5.87475 0.964522)
(-1.00405e-15 5.29188 1.50812)
(-2.46829e-15 3.21187 3.20521)
(6.32847e-16 -1.13806 4.38419)
(1.50418e-15 -3.27655 3.73951)
(1.55245e-15 -3.91263 3.4103)
(1.35793e-15 -3.31598 3.43734)
(3.11528e-17 -0.945076 3.49558)
(-5.00236e-16 3.07128 4.2374)
(-1.05014e-16 6.00066 5.46714)
(-5.28342e-16 7.3249 5.97517)
(-1.27716e-15 4.90408 4.12801)
(-8.57486e-16 -1.67022 0.161067)
(-1.08891e-15 -4.96201 -1.76463)
(-2.19173e-15 -4.04781 -1.66354)
(-3.11546e-15 -2.52934 -1.74378)
(-3.96342e-15 -1.09102 -1.71095)
(-2.11771e-15 2.7409 3.24339)
(1.43336e-16 5.03461 0.755716)
(1.01676e-15 5.66862 1.44548)
(-1.85134e-15 4.76537 2.15355)
(-3.56852e-15 2.5326 4.23723)
(9.82071e-16 -1.19857 5.27482)
(3.04116e-15 -3.09793 4.62167)
(2.6072e-15 -3.84562 4.28568)
(8.01227e-16 -3.41331 4.53079)
(-1.11719e-15 -1.1993 5.03545)
(-1.20918e-15 2.48019 6.50503)
(-6.18179e-16 5.57035 8.32402)
(-1.00988e-15 7.67784 8.34499)
(-1.25107e-15 6.08547 6.71414)
(-1.43407e-15 -0.547353 2.36163)
(-1.05129e-15 -4.47414 -0.478976)
(-1.84789e-15 -3.90386 -0.931467)
(-2.7451e-15 -2.31988 -1.62473)
(-3.23916e-15 -0.615067 -2.04355)
(-2.02473e-15 3.21336 2.84375)
(2.17689e-15 5.2308 1.13309)
(8.04475e-16 5.33243 2.09186)
(-2.49359e-15 4.19068 2.91373)
(-5.28246e-15 1.86743 5.24486)
(-1.14196e-15 -1.21641 6.13147)
(1.9239e-15 -2.93958 5.63766)
(1.02436e-15 -3.84428 5.47399)
(-1.46418e-15 -3.64037 5.93517)
(-2.63442e-15 -1.69532 6.94403)
(-2.1001e-15 1.75958 8.83647)
(-1.72261e-15 5.26811 9.84722)
(-1.64492e-15 8.04341 9.77938)
(-1.39133e-15 7.24176 9.09639)
(-1.6482e-15 1.02006 4.84549)
(-1.23846e-15 -3.54664 1.16034)
(-1.86475e-15 -3.49601 0.257512)
(-2.41569e-15 -2.37326 -1.04925)
(-2.63359e-15 -0.961232 -3.3086)
(6.39063e-17 3.53477 3.0102)
(3.13651e-15 5.27822 1.99059)
(4.6264e-16 4.99249 2.61209)
(-2.66947e-15 3.51975 3.72272)
(-7.64874e-15 1.18722 6.12431)
(-6.22199e-15 -1.28973 6.9133)
(-3.12507e-15 -2.87535 6.69925)
(-3.19367e-15 -3.94768 6.81841)
(-3.8088e-15 -4.02201 7.55977)
(-3.17533e-15 -2.30889 8.85066)
(-2.81203e-15 1.3508 9.7333)
(-2.95771e-15 5.21409 9.03134)
(-2.388e-15 8.06385 9.59845)
(-1.77229e-15 8.00347 10.5328)
(-1.63126e-15 2.56574 7.53306)
(-1.69718e-15 -2.80892 2.77331)
(-1.70385e-15 -2.82467 1.4372)
(-2.44988e-15 -0.497055 -0.983744)
(-3.92044e-15 1.3269 -3.75826)
(2.64768e-15 3.73766 3.4361)
(2.85928e-15 5.32296 2.61401)
(9.55755e-16 4.6651 3.06975)
(-2.34931e-15 2.78416 4.50757)
(-9.40453e-15 0.556451 6.80913)
(-1.03059e-14 -1.41619 7.5788)
(-7.93292e-15 -2.93448 7.72069)
(-6.24558e-15 -4.18398 8.18496)
(-4.47429e-15 -4.45956 9.12299)
(-3.17721e-15 -2.51908 9.70505)
(-3.32949e-15 1.69466 8.08937)
(-2.92821e-15 5.26236 6.56277)
(-2.69384e-15 7.46511 7.80731)
(-2.32665e-15 8.08307 10.3981)
(-1.33406e-15 4.42785 9.85402)
(-2.32806e-15 -1.05122 4.13047)
(-2.16057e-15 -1.92788 2.03759)
(-1.79732e-15 -1.24763 3.50129)
(-1.43061e-16 -5.57351 9.25725)
(4.44576e-15 3.95983 3.83509)
(2.83567e-15 5.36444 2.99703)
(2.06259e-15 4.26544 3.60543)
(-1.2317e-15 2.01687 5.2273)
(-9.6678e-15 -0.0502189 7.32243)
(-1.15767e-14 -1.6423 8.16137)
(-9.45686e-15 -3.13999 8.70107)
(-6.69125e-15 -4.50746 9.4611)
(-4.10402e-15 -4.64534 10.1832)
(-2.89714e-15 -1.93436 9.2293)
(-2.20278e-15 2.54954 6.07872)
(-1.64141e-15 5.26597 5.10088)
(-2.0519e-15 6.51972 5.70979)
(-2.97621e-15 7.15702 8.92055)
(-1.49399e-15 4.85999 11.635)
(-8.79256e-16 0.129219 9.74594)
(-1.07085e-15 -2.21961 8.75981)
(3.73262e-16 -2.74054 11.3658)
(1.38084e-15 -3.92723 12.279)
(5.60565e-15 4.16735 4.15805)
(3.27147e-15 5.36028 3.39601)
(3.2003e-15 3.79818 4.23644)
(1.10104e-15 1.28224 5.87578)
(-7.16601e-15 -0.60829 7.68973)
(-9.83502e-15 -1.97058 8.6682)
(-7.90369e-15 -3.46368 9.55114)
(-5.39776e-15 -4.77181 10.3823)
(-3.22506e-15 -4.39873 10.4763)
(-1.45825e-15 -0.883756 8.37213)
(3.48029e-16 3.28423 6.09483)
(-7.93878e-16 5.43936 5.35324)
(-8.77538e-16 5.92246 4.59178)
(-2.81578e-15 5.76682 7.00273)
(-2.21746e-15 3.90092 11.5222)
(6.17797e-16 -0.244956 12.7978)
(-3.45927e-16 -2.71136 12.4787)
(8.51603e-16 -3.0465 11.3585)
(2.68603e-15 -3.19447 6.92622)
(6.17058e-15 4.34363 4.43364)
(3.4479e-15 5.28927 3.85297)
(3.72555e-15 3.29449 4.90184)
(4.28855e-15 0.620327 6.43707)
(-1.78356e-15 -1.14382 7.90494)
(-5.74728e-15 -2.39206 9.01643)
(-5.21086e-15 -3.82842 10.0878)
(-3.40105e-15 -4.87085 10.7624)
(-1.45117e-15 -3.87334 10.2478)
(9.97588e-16 -0.0331761 8.08364)
(1.16809e-15 3.75554 6.95169)
(3.90683e-17 5.91828 5.64444)
(-2.93541e-16 5.86573 4.22202)
(-1.86933e-15 4.5204 5.12136)
(-2.01825e-15 2.83685 9.87656)
(2.65681e-15 0.058482 11.2368)
(4.09715e-15 -1.72299 11.0607)
(9.09175e-15 -0.382564 9.61275)
(2.88255e-14 2.06945 6.18287)
(5.90252e-15 4.46253 4.62366)
(3.10465e-15 5.13982 4.26807)
(2.93916e-15 2.77617 5.4936)
(5.37848e-15 0.0685891 6.89889)
(2.1705e-15 -1.62951 7.9741)
(-1.91864e-15 -2.84528 9.11551)
(-2.51751e-15 -4.15652 10.2222)
(-1.45735e-15 -4.83116 10.6992)
(8.13291e-17 -3.33418 9.90544)
(9.6308e-16 0.510064 8.10548)
(-3.86862e-16 4.25846 6.91891)
(-9.46847e-16 6.55103 5.10114)
(-4.8696e-16 6.08851 3.86696)
(-1.37805e-15 3.36595 3.56985)
(-4.8466e-15 1.19955 8.44057)
(-4.22741e-15 -0.792692 12.7533)
(-3.37281e-15 -2.22295 13.2866)
(-5.51536e-15 -0.689728 14.0418)
(-5.38244e-15 2.82401 12.6451)
(5.35578e-15 4.52508 4.68347)
(3.01448e-15 4.92175 4.52228)
(1.86882e-15 2.23884 5.87668)
(3.9296e-15 -0.373295 7.25839)
(2.87179e-15 -2.03689 7.98374)
(-4.58669e-17 -3.28911 9.02165)
(-8.37881e-16 -4.45281 10.0529)
(9.05228e-17 -4.74336 10.3794)
(1.1194e-15 -2.81293 9.45955)
(7.72493e-16 1.10124 7.63623)
(-8.57111e-16 4.9288 5.92332)
(-1.2016e-15 7.15097 3.97086)
(-1.00379e-15 6.42701 3.15771)
(-8.0981e-16 2.98259 2.1829)
(-3.32101e-15 -0.695317 3.09352)
(-5.52126e-15 -1.80986 8.66522)
(-3.88448e-15 -2.25713 10.0427)
(-2.92675e-15 0.369601 10.233)
(-3.13092e-15 5.6502 11.0039)
(4.71933e-15 4.54161 4.61852)
(3.21165e-15 4.66283 4.57414)
(1.49565e-15 1.66343 5.96399)
(2.64665e-15 -0.756162 7.5155)
(2.18077e-15 -2.3592 8.01023)
(3.65755e-16 -3.67563 8.84034)
(4.88048e-18 -4.69929 9.7182)
(1.03801e-15 -4.60791 9.89246)
(1.67574e-15 -2.2084 8.75668)
(6.38618e-16 1.85269 6.58587)
(-1.20307e-15 5.71332 4.38655)
(-1.40304e-15 7.67235 2.75593)
(-1.38522e-15 6.71877 2.20744)
(-1.02602e-15 3.40029 1.43283)
(-1.42504e-15 -1.47733 0.0696679)
(-4.45255e-15 -3.26389 1.48695)
(-4.13912e-15 -2.74337 3.98378)
(-1.91478e-15 -1.21154 1.83762)
(5.58542e-16 0.571403 -1.59859)
(3.93599e-15 4.53107 4.46616)
(3.13697e-15 4.40731 4.45368)
(1.31644e-15 1.03692 5.73392)
(2.00812e-15 -1.14202 7.63848)
(1.71878e-15 -2.58408 8.13251)
(5.3185e-16 -3.96707 8.71074)
(3.86036e-16 -4.87655 9.36552)
(1.17837e-15 -4.38822 9.3083)
(1.32676e-15 -1.44954 7.70148)
(-1.88637e-16 2.77752 4.9465)
(-1.52478e-15 6.47064 2.58561)
(-1.51121e-15 8.02878 1.69711)
(-1.48942e-15 6.94247 1.28779)
(-1.27891e-15 3.82869 0.551294)
(-7.23111e-16 -0.741052 -0.904083)
(-1.6562e-15 -3.38075 -3.46869)
(-2.50771e-15 -2.78476 -2.73824)
(-1.62591e-15 0.68205 -3.99814)
(-1.50414e-15 2.43937 -4.46503)
(3.23822e-15 4.51165 4.26449)
(2.81878e-15 4.20147 4.22385)
(8.56276e-16 0.353581 5.23084)
(1.51198e-15 -1.68306 7.48342)
(1.93962e-15 -2.82031 8.30658)
(9.059e-16 -4.15843 8.71525)
(5.76539e-16 -4.92048 9.09823)
(6.96564e-16 -3.9619 8.62178)
(-3.00408e-17 -0.399952 6.1442)
(-1.45628e-15 3.85172 2.84258)
(-1.68007e-15 7.02691 1.08865)
(-1.53493e-15 8.19143 0.861464)
(-1.36709e-15 7.14737 0.52915)
(-1.23709e-15 4.25364 -0.154131)
(-1.17255e-15 0.349173 -1.59959)
(-4.02912e-16 -2.54265 -4.42846)
(-7.45799e-16 -2.39944 -5.79374)
(-2.34365e-16 0.156034 -6.44066)
(-9.39183e-16 1.29555 -4.83822)
(2.91527e-15 4.49613 4.03886)
(2.64081e-15 4.08311 3.93719)
(1.884e-16 -0.316045 4.57249)
(7.32361e-16 -2.3238 6.9711)
(2.30776e-15 -3.08667 8.35852)
(1.54774e-15 -4.27853 8.80437)
(7.1701e-16 -4.83987 8.87419)
(-9.88481e-17 -3.23875 7.62793)
(-1.55435e-15 0.933232 3.94347)
(-1.8858e-15 4.77564 0.951988)
(-1.78424e-15 7.26699 0.307146)
(-1.48022e-15 8.25892 0.221212)
(-1.3044e-15 7.33529 -0.05373)
(-1.18369e-15 4.65024 -0.68721)
(-1.04472e-15 1.15805 -1.9411)
(-6.72954e-16 -1.70248 -4.00266)
(-4.76756e-16 -1.91486 -5.83456)
(-1.90368e-16 -0.0375466 -6.15513)
(-9.64502e-16 0.889772 -4.4939)
(2.97044e-15 4.49301 3.80562)
(2.66945e-15 4.05716 3.63274)
(-1.69505e-16 -0.915567 3.907)
(-3.61957e-16 -3.19081 6.21187)
(2.15115e-15 -3.60958 8.03289)
(2.0131e-15 -4.36252 8.60772)
(8.1658e-16 -4.41355 8.38863)
(-4.79116e-16 -1.99373 6.2076)
(-1.59784e-15 2.23866 1.86985)
(-1.76672e-15 5.2888 0.189744)
(-1.85473e-15 7.31183 0.045762)
(-1.40446e-15 8.33212 -0.236797)
(-1.26417e-15 7.49198 -0.47921)
(-1.1865e-15 4.97287 -1.04732)
(-1.02241e-15 1.77274 -2.03705)
(-9.02871e-16 -0.996247 -3.60261)
(-6.79432e-16 -1.50223 -5.00741)
(-5.90029e-16 -0.313449 -5.29467)
(-1.58416e-16 0.0545319 -3.94443)
(3.2045e-15 4.50884 3.5865)
(2.98452e-15 4.0819 3.36997)
(-6.87239e-17 -1.33692 3.21959)
(-1.46025e-15 -3.87602 5.27956)
(1.3721e-15 -3.98844 7.60023)
(2.14302e-15 -4.41266 8.30093)
(8.99944e-16 -3.97236 7.6156)
(-5.81064e-16 -0.684836 4.42734)
(-1.34499e-15 3.29016 0.906368)
(-1.75525e-15 5.53921 0.266232)
(-1.82228e-15 7.42998 -0.0865681)
(-1.33528e-15 8.45602 -0.524337)
(-1.22144e-15 7.6208 -0.767581)
(-1.17838e-15 5.20163 -1.25471)
(-9.93313e-16 2.1742 -1.96926)
(-8.64468e-16 -0.561389 -3.12078)
(-7.04393e-16 -1.23125 -4.07704)
(-6.68214e-16 -0.556975 -4.36631)
(-9.84061e-17 -0.415663 -3.51004)
(3.34541e-15 4.52723 3.41116)
(3.25455e-15 4.32691 3.26461)
(2.58889e-16 -1.76647 2.90167)
(-2.38814e-15 -5.00034 4.03551)
(-1.0691e-15 -4.9602 6.18111)
(5.23871e-16 -4.34478 6.92938)
(3.05737e-16 -2.72134 5.92184)
(-6.64193e-16 1.02603 2.78897)
(-1.17082e-15 3.92318 1.09746)
(-1.70615e-15 5.82574 0.339723)
(-1.73896e-15 7.68374 -0.200294)
(-1.30693e-15 8.6606 -0.684001)
(-1.1898e-15 7.84182 -0.929637)
(-1.17499e-15 5.53894 -1.337)
(-9.68485e-16 2.63324 -1.8014)
(-8.01077e-16 -0.216319 -2.40687)
(-6.38469e-16 -0.95776 -2.9983)
(-5.7851e-16 -0.524869 -3.1838)
(-2.50959e-16 -0.886483 -3.19573)
(2.40452e-17 14.1621 23.9538)
(-4.03608e-15 18.9614 31.7397)
(-3.69713e-15 16.6603 26.6591)
(-4.0432e-15 14.1349 22.3677)
(-4.08734e-15 13.3965 20.5974)
(-4.66347e-15 14.0278 21.2035)
(-4.42686e-15 13.5822 19.9288)
(-4.47394e-15 12.3255 17.9347)
(-4.80438e-15 11.2329 16.026)
(-5.0965e-15 10.3611 14.6568)
(-5.486e-15 9.73383 13.526)
(-5.93654e-15 9.00374 12.5064)
(-6.61647e-15 8.32807 11.3588)
(-7.48802e-15 7.35857 10.202)
(-8.87183e-15 6.57849 8.88352)
(-1.05891e-14 5.41644 7.81229)
(-1.30363e-14 4.86062 6.64212)
(-1.60528e-14 3.76694 6.28378)
(-1.12364e-14 5.76407 8.63031)
(-5.32471e-15 6.76545 12.6837)
(6.62815e-17 14.3427 24.4933)
(-3.85714e-15 16.9376 29.1462)
(-2.99184e-15 13.9736 23.96)
(-3.69682e-15 11.9149 20.5241)
(-3.65454e-15 11.8716 20.3827)
(-4.3973e-15 12.8825 21.8801)
(-3.58793e-15 11.1193 18.7241)
(-4.01976e-15 9.29163 15.8575)
(-4.53409e-15 8.66097 14.6646)
(-4.56338e-15 8.23729 14.0551)
(-4.97759e-15 7.83963 13.058)
(-5.34803e-15 7.0367 11.9086)
(-6.23803e-15 6.39695 10.4135)
(-7.30165e-15 5.30434 9.00376)
(-9.00887e-15 4.64917 7.31119)
(-1.06648e-14 3.50275 6.19403)
(-1.29124e-14 3.40899 5.14769)
(-1.38412e-14 2.88341 5.54325)
(-8.40629e-15 5.3181 8.16997)
(-5.21483e-15 6.1096 11.442)
(2.40466e-17 14.5088 25.4786)
(-1.63516e-15 17.3063 29.7711)
(-1.32333e-15 14.9485 25.8515)
(-1.48403e-15 12.8597 21.9048)
(-1.57503e-15 12.5155 21.3652)
(-2.68511e-15 13.3351 22.6017)
(-1.80162e-15 11.1285 18.8197)
(-1.86184e-15 9.80501 16.6624)
(-2.02227e-15 9.45705 15.7796)
(-2.04793e-15 8.89522 14.9712)
(-2.23952e-15 8.36945 13.7526)
(-2.39394e-15 7.46659 12.5151)
(-2.91633e-15 6.82916 11.0199)
(-3.28481e-15 5.77507 9.65615)
(-4.06927e-15 5.08925 7.89523)
(-4.88655e-15 3.9265 6.61008)
(-5.91022e-15 3.78854 5.5889)
(-6.68062e-15 3.18875 5.71334)
(-4.37968e-15 5.14529 7.79207)
(-2.60575e-15 5.84609 10.8949)
(1.00516e-17 14.1935 25.0888)
(4.14167e-16 17.2717 29.4954)
(2.73264e-16 15.1014 26.251)
(3.11804e-16 12.8593 21.8551)
(3.31236e-16 12.4216 21.3005)
(-1.97071e-15 13.2197 22.5285)
(-1.8401e-15 10.8087 18.3385)
(-1.95005e-15 9.66869 16.5043)
(-2.1088e-15 9.30877 15.5903)
(-2.20553e-15 8.61431 14.7062)
(-2.38463e-15 8.096 13.4166)
(-2.5815e-15 7.12691 12.1879)
(-3.08777e-15 6.52719 10.6413)
(-3.41745e-15 5.43043 9.32576)
(-4.37749e-15 4.72646 7.41797)
(-5.3133e-15 3.38637 5.89425)
(-6.37175e-15 3.23018 4.73213)
(-6.47059e-15 2.70007 5.03596)
(-4.5882e-15 4.72173 7.1678)
(-3.282e-15 5.30064 9.89322)
(-2.86935e-18 14.0919 25.2281)
(-9.77782e-17 17.5174 29.688)
(-5.76855e-17 15.4601 27.138)
(-6.78149e-17 13.1183 22.2411)
(-7.31704e-17 12.5377 21.6213)
(3.9597e-16 13.2584 22.7538)
(4.02645e-16 10.9318 18.5729)
(4.27176e-16 9.81608 16.8941)
(4.66973e-16 9.45063 15.8399)
(4.80244e-16 8.66343 14.9263)
(5.1915e-16 8.19205 13.6056)
(5.55066e-16 7.196 12.4158)
(6.71927e-16 6.63068 10.8536)
(7.49883e-16 5.55352 9.62821)
(9.39119e-16 4.92987 7.8182)
(1.11426e-15 3.55363 6.22411)
(1.37397e-15 3.37334 4.932)
(1.66872e-15 2.76704 5.08176)
(1.00728e-15 4.56771 6.83271)
(5.86713e-16 4.90649 9.20679)
(8.15622e-19 13.8661 25.0152)
(2.2046e-17 17.7348 29.7879)
(1.29553e-17 15.6305 27.6815)
(1.50641e-17 13.2363 22.2367)
(1.71459e-17 12.5681 21.6845)
(-8.39231e-17 13.2305 22.789)
(-9.09362e-17 11.0203 18.5674)
(-9.76346e-17 9.78924 16.9499)
(-1.07755e-16 9.47412 15.7837)
(-1.09933e-16 8.60411 14.8632)
(-1.17463e-16 8.15956 13.5034)
(-1.25577e-16 7.14975 12.3164)
(-1.5172e-16 6.55956 10.7176)
(-1.7406e-16 5.47256 9.44994)
(-2.11511e-16 4.87061 7.73709)
(-2.53244e-16 3.51156 6.15517)
(-3.30473e-16 3.24552 4.71265)
(-4.22723e-16 2.56883 4.69978)
(-2.75051e-16 4.25372 6.28983)
(-1.88383e-16 4.34128 8.18874)
(-2.20199e-19 13.7498 24.9525)
(-4.73023e-18 18.0559 30.0678)
(-2.99902e-18 15.7223 28.1984)
(-3.42291e-18 13.446 22.3319)
(-4.09346e-18 12.6609 21.9109)
(1.85829e-17 13.2422 22.969)
(2.10338e-17 11.1627 18.6568)
(2.29173e-17 9.84257 17.1756)
(2.52648e-17 9.61181 15.9382)
(2.59496e-17 8.69066 15.0012)
(2.75216e-17 8.24675 13.6308)
(2.95006e-17 7.273 12.4083)
(3.51999e-17 6.6316 10.843)
(4.10233e-17 5.59053 9.47915)
(4.8591e-17 4.95914 7.8782)
(5.96106e-17 3.77559 6.43902)
(7.90401e-17 3.42231 4.99475)
(1.04662e-16 2.65641 4.65221)
(8.02467e-17 3.96716 5.7649)
(4.78337e-17 3.76932 7.13439)
(4.87613e-20 13.77 24.9788)
(1.00217e-18 18.3818 30.3203)
(6.99174e-19 15.716 28.5253)
(7.81783e-19 13.7676 22.4884)
(1.00562e-18 12.7865 22.0939)
(-4.09853e-18 13.254 23.0733)
(-4.93964e-18 11.3929 18.7698)
(-5.39403e-18 9.98809 17.3976)
(-5.90307e-18 9.8175 16.1286)
(-6.14728e-18 8.89969 15.139)
(-6.50582e-18 8.39665 13.7822)
(-6.99381e-18 7.49078 12.4627)
(-8.20196e-18 6.74757 10.9278)
(-9.60485e-18 5.77631 9.44331)
(-1.12662e-17 5.02781 7.87042)
(-1.41457e-17 3.99242 6.45526)
(-1.8292e-17 3.44628 4.9814)
(-2.44251e-17 2.57927 4.24214)
(-2.34154e-17 3.45511 4.88889)
(-1.3767e-17 3.0602 5.75604)
(-8.87854e-21 14.1403 25.5395)
(-2.17526e-19 18.6411 30.4367)
(-1.63824e-19 15.611 28.7236)
(-1.78354e-19 14.2428 22.8872)
(-2.52804e-19 12.98 22.3837)
(8.91075e-19 13.2626 23.1784)
(1.15303e-18 11.6814 19.0225)
(1.25629e-18 10.2848 17.7747)
(1.36767e-18 10.0848 16.5086)
(1.44769e-18 9.23646 15.4031)
(1.53179e-18 8.61877 14.0755)
(1.64615e-18 7.79984 12.6544)
(1.88883e-18 6.95704 11.1226)
(2.19527e-18 6.03917 9.52923)
(2.56659e-18 5.1876 7.9374)
(3.24701e-18 4.22403 6.4297)
(4.01823e-18 3.46943 4.86985)
(5.1865e-18 2.5215 3.74705)
(6.55355e-18 2.86529 3.8432)
(4.86062e-18 2.25052 4.04777)
(1.31105e-21 14.8446 26.6771)
(4.90222e-20 18.7006 30.2899)
(3.87657e-20 15.4189 28.7651)
(4.09034e-20 14.8403 23.5994)
(6.26714e-20 13.2227 22.7417)
(-1.93571e-19 13.2796 23.1488)
(-2.70268e-19 11.9552 19.527)
(-2.94744e-19 10.757 18.2494)
(-3.15519e-19 10.3344 17.0118)
(-3.37801e-19 9.64322 15.722)
(-3.58511e-19 8.86255 14.4333)
(-3.86299e-19 8.14719 12.9246)
(-4.3621e-19 7.22898 11.3958)
(-5.04563e-19 6.35045 9.71305)
(-5.92512e-19 5.42037 8.06183)
(-7.31539e-19 4.44957 6.35532)
(-8.77242e-19 3.43101 4.52163)
(-1.01876e-18 2.35077 2.90591)
(-1.39606e-18 2.00432 2.28215)
(-2.70532e-18 1.07571 1.28896)
(-1.42454e-22 15.5962 28.0492)
(-1.14345e-20 18.5069 29.9836)
(-9.38545e-21 15.2966 28.5766)
(-8.9024e-21 15.4198 24.7426)
(-1.70347e-20 13.4509 23.3415)
(3.98377e-20 13.3393 22.8105)
(6.07102e-20 12.1369 20.4207)
(6.85286e-20 11.4262 18.8615)
(7.33739e-20 10.5178 17.7154)
(7.89402e-20 10.1027 16.2234)
(8.30662e-20 9.14223 14.9989)
(8.74853e-20 8.55533 13.4351)
(9.45833e-20 7.58711 11.9351)
(1.05486e-19 6.77245 10.2406)
(1.23387e-19 5.81177 8.5635)
(1.48688e-19 4.78537 6.69882)
(1.14215e-19 3.50212 4.4523)
(1.41104e-19 2.09882 2.33546)
(1.909e-19 0.890071 0.655943)
(-1.21616e-18 -1.21179 -2.47332)
(8.2481e-24 15.9587 29.0419)
(2.75757e-21 18.0824 29.6339)
(2.26888e-21 15.3612 27.7848)
(2.42135e-21 15.4064 25.6713)
(3.18714e-21 13.5016 24.157)
(-1.03503e-20 13.4388 22.0787)
(-1.44887e-20 11.8679 21.2911)
(-1.65456e-20 11.7957 19.3742)
(-1.75093e-20 10.4146 18.2778)
(-1.88703e-20 10.1592 16.7096)
(-2.06031e-20 9.04157 15.5096)
(-2.36861e-20 8.48893 13.9074)
(-2.86664e-20 7.39287 12.3708)
(-3.46054e-20 6.53568 10.6136)
(-3.60159e-20 5.40423 8.81079)
(-4.37033e-20 4.11684 6.64885)
(-2.12908e-19 2.22251 3.42617)
(-6.37018e-20 -0.37309 -0.410715)
(5.26295e-19 -2.36544 -3.67566)
(-3.19236e-19 -1.97589 -2.48527)
(2.31981e-25 15.8454 29.3038)
(-6.83045e-22 18.0616 29.2316)
(-5.47276e-22 15.0439 27.872)
(-6.00238e-22 15.5046 25.3632)
(-7.02856e-22 13.425 24.373)
(2.49979e-21 13.4463 22.4413)
(4.37845e-21 11.8052 21.1675)
(4.8472e-21 11.5538 19.4934)
(5.2074e-21 10.2617 18.2844)
(5.8437e-21 9.82873 16.8195)
(5.91864e-21 8.74564 15.5276)
(4.09263e-21 8.00829 13.9014)
(-2.77794e-22 6.82133 12.1576)
(-4.84372e-21 5.75412 10.1766)
(-1.48687e-21 4.41588 8.07479)
(-2.24681e-20 2.8897 5.52772)
(-2.14535e-19 0.55063 1.57692)
(-3.94127e-19 -1.67055 -2.16005)
(-5.134e-19 -1.49229 -2.16926)
(-2.25708e-18 1.70449 3.17588)
(-4.58541e-25 15.851 29.4873)
(1.6623e-22 18.347 29.3511)
(1.28838e-22 15.0564 27.9367)
(1.38299e-22 15.6857 25.2519)
(1.68413e-22 13.4424 24.1964)
(-5.4031e-22 13.4585 22.1572)
(-9.06587e-22 11.909 21.014)
(-8.14885e-22 11.5972 19.2538)
(-5.08937e-22 10.339 17.8968)
(1.72316e-23 9.79507 16.4432)
(3.03513e-22 8.85671 15.1188)
(-1.15328e-21 8.08045 13.5945)
(-5.82156e-21 7.07656 11.9305)
(-1.37335e-20 6.0552 9.99229)
(-2.01293e-20 4.73332 7.72944)
(-1.08763e-20 3.42478 5.39216)
(1.55094e-20 1.97485 2.94623)
(-8.17347e-20 0.635351 0.33234)
(-4.18814e-19 -0.0712147 -1.29603)
(-4.64963e-19 0.0849505 -0.663193)
(3.83197e-25 16.1182 30.4717)
(-4.02646e-23 18.8162 29.638)
(-3.2353e-23 15.2403 28.455)
(-3.28492e-23 16.1487 25.7352)
(-3.69484e-23 13.8805 24.7952)
(1.36286e-22 13.9158 22.693)
(3.20517e-22 12.5428 21.3895)
(5.60877e-22 12.0355 19.7921)
(9.92742e-22 11.1752 18.4177)
(1.56202e-21 10.5052 17.0077)
(2.02537e-21 9.79826 15.6424)
(2.07126e-21 9.0995 14.2653)
(1.05985e-21 8.34913 12.7892)
(-2.84238e-21 7.37648 10.957)
(-1.62205e-20 5.90361 8.43204)
(-2.70922e-20 4.20555 5.62198)
(-2.8447e-20 2.52828 3.05277)
(-2.18067e-20 1.07387 0.827177)
(-1.31592e-19 -0.707602 -1.62233)
(-1.58336e-19 -1.17179 -3.3485)
(-1.32442e-25 16.2123 31.4468)
(9.66123e-24 18.8273 29.3533)
(7.84573e-24 15.054 28.7319)
(6.67248e-24 16.1882 26.0395)
(4.70538e-24 13.7868 25.1836)
(-1.66144e-23 13.874 23.185)
(7.01966e-23 12.5087 22.0165)
(3.99965e-22 12.0354 20.4684)
(9.7687e-22 11.1598 19.2076)
(1.53387e-21 10.533 17.8743)
(1.46121e-21 9.81185 16.5857)
(-3.6496e-22 9.05889 15.1415)
(-7.03732e-21 8.03368 13.3062)
(-2.67009e-20 6.4866 10.6732)
(-6.66031e-20 4.30266 7.15564)
(-1.01045e-19 2.01279 3.58762)
(-7.68895e-20 -0.0202348 0.765686)
(-4.74173e-20 -1.04565 -1.79807)
(3.012e-21 -2.44412 -3.05342)
(-1.48201e-19 -2.32201 -5.49491)
(5.88015e-26 15.621 31.206)
(-1.86645e-24 18.3544 28.4439)
(-9.82186e-25 14.4081 28.145)
(-6.551e-24 15.4501 25.5564)
(-2.078e-23 13.1895 24.6577)
(3.08339e-25 13.0132 22.8259)
(1.52504e-22 11.7605 21.6212)
(5.57757e-22 11.1419 20.1906)
(1.17945e-21 10.2743 18.959)
(1.6709e-21 9.57573 17.6943)
(1.32908e-21 8.79869 16.4287)
(-1.68247e-21 7.9229 14.915)
(-1.37872e-20 6.6525 12.7518)
(-5.04997e-20 4.72045 9.42497)
(-1.15905e-19 2.33839 5.25456)
(-1.4377e-19 0.717284 2.32543)
(-9.60136e-20 0.0809829 1.01082)
(-7.42325e-20 -1.16907 -1.33306)
(-1.16995e-19 -2.67893 -3.50526)
(-1.76095e-19 -2.10325 -3.57485)
(9.33594e-26 14.2624 30.4753)
(1.388e-24 17.9291 27.4905)
(8.88344e-25 13.3412 27.4045)
(-8.09185e-24 14.235 25.0453)
(-2.92158e-23 12.1458 24.108)
(-2.77298e-23 11.6675 22.5128)
(9.54671e-23 10.5364 21.3019)
(4.37504e-22 9.78027 19.9869)
(9.61739e-22 8.94239 18.7774)
(1.43208e-21 8.19957 17.5682)
(1.34001e-21 7.44294 16.3417)
(-8.88792e-22 6.62122 14.9331)
(-9.76644e-21 5.59703 13.0889)
(-3.27007e-20 4.33526 10.634)
(-7.37052e-20 3.05378 7.79564)
(-1.25823e-19 2.00404 5.10244)
(-1.75709e-19 1.0229 2.60663)
(-2.16211e-19 -0.246327 -0.435973)
(-2.34788e-19 -1.61566 -3.06283)
(-2.6435e-19 -1.31621 -1.74878)
(7.42467e-26 11.2402 28.4338)
(4.20815e-25 16.941 24.8597)
(-1.18913e-25 11.9551 25.2763)
(-7.42294e-24 12.6207 23.5409)
(-2.61317e-23 10.8716 22.7902)
(-4.13848e-23 10.2063 21.6858)
(1.02169e-24 9.20134 20.7581)
(1.79334e-22 8.41627 19.7932)
(5.28379e-22 7.63033 18.8672)
(9.74996e-22 6.92353 17.9449)
(1.37846e-21 6.26287 17.0368)
(1.66464e-21 5.66559 16.1389)
(1.71282e-21 5.12885 15.2273)
(6.00322e-22 4.63546 14.1985)
(-4.23663e-21 4.13118 12.8769)
(-1.65692e-20 3.50947 11.1021)
(-4.01667e-20 2.63776 8.70187)
(-7.72841e-20 1.46293 5.34059)
(-1.1855e-19 -0.037427 1.07807)
(-1.10045e-19 -1.07021 -2.00826)
(5.6364e-26 2.64556 17.045)
(2.07132e-25 8.07133 13.6653)
(-1.37715e-25 5.18202 14.5323)
(-2.62016e-24 5.01227 14.1266)
(-9.62938e-24 4.09107 14.0835)
(-2.05558e-23 3.53603 13.9031)
(-2.41281e-23 2.96977 13.7405)
(7.90324e-24 2.5117 13.5466)
(1.17226e-22 2.11845 13.3373)
(3.43306e-22 1.80247 13.1087)
(7.10651e-22 1.55808 12.8609)
(1.24122e-21 1.38403 12.5895)
(1.98978e-21 1.27527 12.2919)
(3.04678e-21 1.23894 11.9639)
(4.43245e-21 1.29583 11.5954)
(5.91012e-21 1.42012 11.1944)
(6.90494e-21 1.63485 10.7131)
(6.62749e-21 2.23344 9.83313)
(4.45378e-21 2.43873 8.46517)
(1.03188e-21 -0.241533 6.37929)
(-2.51993e-27 -2.62206 17.0145)
(-2.59751e-27 -8.06715 13.6228)
(-5.65617e-26 -5.17942 14.487)
(-4.22079e-25 -5.02023 14.0737)
(-1.01037e-24 -4.1052 14.0242)
(-9.76259e-26 -3.5581 13.8366)
(6.73258e-24 -2.99926 13.6678)
(2.50394e-23 -2.5505 13.4721)
(5.67191e-23 -2.16972 13.2709)
(9.52089e-23 -1.87066 13.0658)
(1.24923e-22 -1.64688 12.8575)
(1.25751e-22 -1.49425 12.6352)
(8.04422e-23 -1.40352 12.3807)
(-1.55361e-23 -1.37753 12.0702)
(-1.42687e-22 -1.43307 11.6794)
(-2.53931e-22 -1.5418 11.2193)
(-2.89565e-22 -1.72355 10.6689)
(-2.08993e-22 -2.24658 9.76029)
(-4.66266e-23 -2.32287 8.42594)
(3.48367e-23 0.281832 6.23488)
(1.09295e-26 -11.1975 28.3077)
(1.96458e-25 -16.852 24.744)
(7.75716e-27 -11.8871 25.1603)
(-1.39198e-24 -12.5307 23.4338)
(-2.81815e-24 -10.7755 22.6896)
(3.34764e-24 -10.0936 21.5954)
(2.94599e-23 -9.07326 20.6851)
(7.96239e-23 -8.2732 19.7498)
(1.36122e-22 -7.47404 18.8701)
(1.62648e-22 -6.75284 18.0026)
(1.31456e-22 -6.06967 17.1348)
(5.90232e-23 -5.4365 16.2246)
(2.5557e-23 -4.85674 15.2174)
(1.5897e-22 -4.34316 14.0288)
(5.59529e-22 -3.89977 12.5973)
(1.16922e-21 -3.4943 10.9437)
(1.66049e-21 -3.0587 9.0605)
(1.27062e-21 -2.55747 6.65336)
(-1.41035e-21 -1.64388 3.15597)
(-6.65367e-21 0.422318 -1.16437)
(2.1195e-27 -14.3113 30.4948)
(-2.23032e-25 -17.8795 27.6173)
(-6.57502e-25 -13.3659 27.5076)
(-3.14182e-24 -14.1679 25.2265)
(-4.36152e-24 -12.1094 24.3168)
(9.40873e-24 -11.593 22.7941)
(5.19075e-23 -10.4695 21.6519)
(1.13691e-22 -9.70806 20.4375)
(1.35043e-22 -8.87483 19.3307)
(2.53487e-23 -8.10027 18.1811)
(-2.54215e-22 -7.22535 16.8539)
(-5.66909e-22 -6.13284 15.0555)
(-5.20576e-22 -4.68527 12.4993)
(3.61749e-22 -2.98663 9.22046)
(2.10427e-21 -1.43171 5.80158)
(3.80676e-21 -0.32283 2.92417)
(2.61846e-21 0.458407 0.650833)
(-7.27418e-21 1.05637 -1.3182)
(-3.16385e-20 1.40552 -2.41512)
(-4.9208e-20 0.245513 0.758165)
(-3.93949e-26 -15.8496 31.6171)
(1.67857e-24 -18.5 28.7766)