/*--------------------------------*- C++ -*----------------------------------*\
| =========                 |                                                 |
| \\      /  F ield         | OpenFOAM: The Open Source CFD Toolbox           |
|  \\    /   O peration     | Version:  4.1                                   |
|   \\  /    A nd           | Web:      www.OpenFOAM.org                      |
|    \\/     M anipulation  |                                                 |
\*---------------------------------------------------------------------------*/
FoamFile
{
    version     2.0;
    format      ascii;
    class       surfaceScalarField;
    location    "28";
    object      phi;
}
// * * * * * * * * * * * * * * * * * * * * * * * * * * * * * * * * * * * * * //

dimensions      [0 3 -1 0 0 0 0];

internalField   nonuniform List<scalar> 
2360
(
6693.73
14570
-7876.26
14570
14570
25568.4
-10998.4
25568.4
25568.4
25568.4
40657.4
-15089
40657.4
40657.4
61453.4
-20796
61453.4
61453.4
90252.6
-28799.2
90252.5
90252.6
127931
-37678.6
127931
127931
134567
148585
164861
180810
195650
209277
183997
38153.3
195778
206598
216489
225488
233632
240969
247547
253412
258590
263093
266894
269926
271778
146711
125067
146711
146711
146711
41220.4
105491
41220.4
41220.4
41220.4
7147.26
34073.1
7147.26
7147.25
-16608.4
23755.7
-16608.5
-16608.5
-16608.5
-106204
89595.9
-106204
-106204
-106204
-239981
133776
-235356
-229150
-222198
-214897
-207352
-199576
-191535
-183188
-174516
-165524
-156224
-146597
-136584
-173313
47181.1
-162487
-150844
-138291
-125099
-112523
-105162
-105162
-105162
-69780.8
-35380.9
-69780.8
-69780.8
-45715.3
-24065.5
-45715.3
-45715.3
-24662.6
-21052.7
-24662.6
-24662.6
-4222.1
-20440.5
-4222.1
-4222.1
-4222.1
18662
-22884.1
18662
18662
43694.4
-25032.4
-15728.1
32823.8
-15569.9
88002.9
-14050.1
97132.7
-11797.2
108581
-10083.6
114428
-8468.4
115916
-6931.53
112369
-5322.43
102474
-3115.24
83732.5
446.686
49520.8
5698.29
-19134
13251.7
-81700.5
22697.7
-99515.5
31342.8
-90532
35656.9
-24105.9
33657.8
55287.9
29870.6
75771.8
27930.6
58123.5
27017.7
-14804
31416.2
-15561
88759.8
-14051.2
95622.9
-11957.7
106487
-10329.4
112799
-8915.07
114502
-7556.62
111011
-6168.63
101086
-3903.82
81467.7
373.609
45243.4
1888.01
-20648.4
8960.99
-88773.5
18471.3
-109026
26772.3
-98833
33727.6
-31061.2
33255.2
55760.3
28324.2
80702.7
24848.7
61599
28982.4
-15788.6
27539.7
-15522.5
88493.7
-14073
94173.5
-12114.6
104529
-10691.4
111376
-9492.27
113303
-8487.77
110006
-7446.47
100045
-5644.57
79665.8
-2589.81
42188.6
-4498.01
-18740.2
-106.405
-93165.1
3997.86
-113130
7079.48
-101915
18573.2
-42554.9
27751.5
46581.9
25901.7
82552.5
21616
65884.7
30157.8
-21699
15574.7
-15662.1
82456.8
-14381.1
92892.5
-12271.4
102419
-11146.7
110251
-10193.6
112350
-9612.92
109426
-9019.73
99451.9
-7732.72
78378.8
-8110.6
42566.5
-12882.1
-13968.7
-12479
-93568.2
-17098.3
-108511
-18209.9
-100803
-3695.99
-57068.8
13861.1
29024.8
19549.6
76864.1
18745.2
66689.1
27850.3
-35640.3
-15355.6
-14086
60902.5
-15119.8
93926.2
-12632.4
99931.9
-11690.9
109310
-11039.1
111698
-10917.6
109304
-10887
99421.2
-10889.5
78381.3
-16180.5
47857.5
-21169.2
-8980.01
-27336.2
-87401.1
-40976.8
-94870.2
-44522.6
-97257.2
-30014.3
-71577.1
-5957.33
4967.87
9694.04
61212.7
14865.9
61517.2
18650.8
-52235.6
-57652.2
-13678.2
22345.1
-14518.1
94766.2
-13699.5
99113.3
-12436.5
108047
-12020.9
111282
-12360
109643
-13117.4
100179
-15205.7
80469.6
-19361.7
52013.5
-25165.4
-3176.28
-44820.6
-67745.9
-66615
-73075.8
-73992.9
-89879.3
-60286.7
-85283.3
-29017.4
-26301.4
-5376.48
37571.8
12832.2
43308.5
-3898
-68841.9
-87194.8
-24064.6
-22432.2
-13083
83784.6
-14941
100971
-13719.1
106825
-13193
110756
-13906.9
110357
-15649.7
101921
-19561.6
84381.6
-22277.4
54729.3
-35581.4
10127.7
-68410
-34917.4
-92665
-48820.8
-103654
-78890.4
-94249.2
-94688
-59725.9
-60824.8
-20466.7
-1687.4
607.07
22234.8
43890.2
-73493.4
-101501
-35853.3
-60072.3
-15180.5
63111.9
-15564.6
101355
-15529.4
106790
-14782.4
110009
-15627.7
111203
-18386.6
104680
-24998.6
90993.7
-37404.9
67135.6
-60221.6
32944.4
-93194.5
-1944.44
-116158
-25857.6
-127585
-67462.6
-124860
-97413.4
-108013
-77671.5
-92250.7
-17450.1
-103124
33108.4
74542.1
-74177.3
-107786
-47081.5
-87168.2
-22264.6
38295
-17008.8
96099.6
-17510.8
107292
-16909.1
109408
-17572.1
111866
-20799.3
107907
-29149.1
99343.4
-46820.9
84807.4
-76860.7
62984.2
-111017
32211.8
-131231
-5643.19
-138423
-60271.1
-137061
-98775.6
-130048
-84683.7
-121967
-25531.6
-114614
25755.1
49524.4
-73358.8
-109084
-57123.2
-103404
-32891.3
14063.1
-21597.7
84805.9
-19943.7
105638
-19303.3
108767
-19625.2
112187
-22706.8
110989
-31597.9
108234
-50076.2
103286
-79760.3
92668.3
-111902
64353.1
-126511
8966
-127360
-59421.9
-126558
-99577.3
-123024
-88217.7
-108199
-40356.9
-78113.9
-4329.89
-4833.82
-70051.8
-106715
-64514.2
-108941
-45484.2
-4966.9
-29980.7
69302.5
-23718
99374.9
-21800.5
106850
-21779.8
112167
-24793.6
114003
-33423
116864
-49575.8
119439
-74247.7
117340
-99386.3
89491.7
-103689
13269
-97976.8
-65134.4
-102348
-95205.8
-114568
-75998.4
-113138
-41786.5
-86317.1
-31150.8
-57077.9
-66027.6
-101797
-68969.3
-106000
-57935.6
-16000.5
-41120.6
52487.4
-29627.6
87881.9
-24995.4
102218
-24501
111672
-27743.4
117245
-35198.6
124319
-47528
131768
-66680.8
136493
-84730.6
107541
-79084.7
7623.12
-66044.1
-78175
-69227.8
-92022.1
-95103
-50123.1
-123729
-13160.9
-129592
-25287.8
-81178.8
-62170.7
-95191
-71488.1
-96682.4
-69674.4
-17814.2
-54686.5
37499.5
-39156.2
72351.7
-30749.6
93811.1
-28444.9
109368
-30757.2
119558
-36276
129838
-46281.1
141773
-62646.6
152859
-73629.2
118524
-59496.4
-6509.6
-43161.3
-94510.2
-38587.1
-96596.3
-46905.4
-41804.9
-68858.7
8792.41
-93893.9
-252.628
-50005.7
-58339.6
-87733.4
-72275
-82747
-80418.6
-9670.63
-71479.8
28560.7
-55480.6
56352.4
-43520.8
81851.3
-37215.8
103063
-36619
118961
-41215.4
134434
-52456.6
153014
-66379.9
166782
-63546.2
115690
-37903.9
-32151.9
-23044.5
-109370
-19759.1
-99881.7
-6316.89
-55247.1
12217.2
-9741.67
18869.8
-6905.25
7017.48
-54019.5
-80376
-69932.8
-66833.7
-86408.7
6805.28
-87528.2
29680.1
-77753.9
46578.1
-66552
70649.5
-57726
94236.7
-54727.2
115962
-59158
138865
-69658
163514
-73997.2
171121
-48592.8
90286
-15351.5
-65393.3
-8335.28
-116386
-9493.79
-98723.2
-8.82755
-64732
12334.3
-22084.8
26693.2
-21264.1
-3968.01
-48751
-74049.9
-62983.4
-52601.3
-83690.9
27512.8
-94818.6
40807.8
-95380.9
47140.5
-90940.9
66209.4
-85347.7
88643.5
-83069.9
113684
-86090.4
141886
-89710.5
167134
-76212.4
157623
-26647.7
40721.3
1884.98
-93925.9
-3018.09
-111483
-3885.03
-97856.3
2542.88
-71159.9
11460.1
-31002
22895.7
-32699.6
-9871.51
-42596.9
-69468
-51711.2
-43486.9
-72409.1
48210.6
-90626.5
59025.2
-100133
56646.7
-103637
69714.1
-104182
89188.5
-104657
114159
-105220
142448
-98015.6
159930
-64291.5
123899
-12180
-11390.1
2036.86
-108143
-2597.87
-106848
-600.847
-99853.3
5410.24
-77171
13332.3
-38924.1
19852.2
-39219.5
-10815.3
-36536.4
-66668.7
-39593.1
-40430.2
-57748
66365.4
-79029.6
80306.9
-93261.4
70878.5
-101465
77917.3
-106419
94142.6
-109178
116918
-107296
140566
-89634.4
142269
-39694.6
73959
-1593.2
-49491.6
-2147.78
-107588
-891.094
-108105
2841.05
-103585
8607.08
-82937.1
14058
-44375.1
16819.8
-41981.2
-9084.54
-31660.2
-64794.9
-28680.2
-43410.1
-42393.1
80078.3
-65680.1
103594
-83569.1
88767.5
-93910.3
88258.5
-100633
100865
-103936
120222
-98384.6
135015
-71892.5
115777
-24325.6
26392.2
-1942.59
-71874.6
-2255.05
-107276
1856.35
-112216
5624.57
-107354
9657.3
-86969.8
12490.6
-47208.4
14112
-43602.7
-5970.87
-27522.9
-22540.3
-25489.9
-42553.8
-61030.5
-72735.5
-79832.4
-82490.3
-74942.7
-48856.3
-17338
-5548.38
-1162.2
3269.16
6815.53
9539.4
11090.1
11975.1
3226.55
-9862.67
6787.29
-17578.7
9462.69
-18950.9
11537.4
-18023.7
13362.5
-16665.1
15038.4
-15302.7
16175.6
-14011
17157.2
-12762.2
17860.9
-11524.2
18266.1
-10296.3
18352
-9084.71
18100.6
-7892.51
17490.5
-6726.9
16497.7
-5585.52
15101.6
-4468.35
13265.3
-3341.62
10938.5
-2176.72
8013.28
-875.695
4414.25
566.764
2562.76
5053
-14915.7
6964.09
-19489.7
7072.77
-19059.5
6927.92
-17878.8
7099.34
-16836.5
7570.66
-15774
8186.02
-14626.4
8775
-13351.1
9273.44
-12022.7
9624.82
-10647.6
9779.6
-9239.48
9680.86
-7793.76
9274.08
-6320.11
8525.12
-4836.54
7448.55
-3391.78
6097.45
-1990.5
4502.32
-581.593
2627.19
999.445
715.642
2478.31
3278.41
1723.32
-16639
774.952
-18541.4
-509.286
-17775.3
-1533.43
-16854.6
-2378
-15991.9
-3128.62
-15023.4
-3868.1
-13886.9
-4614.22
-12605
-5376
-11260.9
-6167.29
-9856.33
-7002.91
-8403.84
-7894.35
-6902.3
-8844.03
-5370.41
-9807.78
-3872.78
-10651.7
-2547.89
-11092.9
-1549.2
-10674.1
-1000.39
-8766.34
-908.337
-5042.3
-1245.72
-1763.89
-1663.28
-14975.7
-3686.19
-16518.4
-5478.41
-15983.1
-7227.54
-15105.5
-9140.92
-14078.6
-11091.7
-13072.6
-12995.8
-11982.8
-14835.1
-10765.6
-16646.3
-9449.7
-18447.5
-8055.09
-20221.2
-6630.16
-21880.7
-5242.84
-23241.4
-4009.68
-23978.2
-3135.94
-23621.2
-2904.9
-21646.1
-3524.34
-17692.5
-4953.95
-11797.3
-6803.55
-4956.36
-8086.64
-6720.25
-2005.62
-12970
-2951.8
-15572.3
-4000.87
-14934
-5218.45
-13887.9
-6658.74
-12638.3
-8201.08
-11530.2
-9636.64
-10547.3
-10868
-9534.23
-11853
-8464.73
-12560.5
-7347.6
-12958.5
-6232.08
-13008.8
-5192.59
-12638.7
-4379.71
-11718.7
-4055.93
-10128.6
-4495.03
-7843.95
-5808.98
-5123.9
-7673.99
-2554.46
-9372.98
-871.143
-9769.95
-7591.4
-325.526
-12644.5
83.6571
-15981.4
454.335
-15304.7
719.252
-14152.8
920.765
-12839.8
1060.63
-11670.1
1269.8
-10756.4
1655.33
-9919.75
2301.38
-9110.78
3260
-8306.22
4544.99
-7517.07
6101.12
-6748.71
7765.96
-6044.55
9234.61
-5524.58
10067.2
-5327.64
9821.74
-5563.49
8294.86
-6147.11
5686.95
-6765.07
2656.97
-6739.97
-4934.42
235.72
-12880.2
1063.2
-16808.9
1785.32
-16026.8
2335.36
-14702.9
2893.2
-13397.6
3492.33
-12269.2
4131.57
-11395.7
4797.46
-10585.6
5510.67
-9823.98
6286.66
-9082.2
7137.85
-8368.27
8059.72
-7670.57
8993.91
-6978.75
9764.64
-6295.31
10099.4
-5662.44
9681.22
-5145.27
8329.15
-4795.05
6054.74
-4490.66
3240.39
-3925.62
-1694.03
682.339
-13562.6
1564.88
-17691.5
2152.67
-16614.6
2507.87
-15058
2907.86
-13797.6
3366.4
-12727.8
3858.9
-11888.2
4311.61
-11038.4
4718.94
-10231.3
5064.83
-9428.09
5346.67
-8650.12
5566.94
-7890.85
5739.4
-7151.21
5862.48
-6418.39
5885.9
-5685.87
5667.83
-4927.2
5024.22
-4151.44
3792.42
-3258.87
1944.1
-2077.31
250.067
1274.99
-14837.6
2028.61
-18445.1
2453.71
-17039.7
2752.77
-15357.1
3242.57
-14287.4
3791.34
-13276.5
4387.71
-12484.5
4972.48
-11623.1
5548.97
-10807.8
6065.18
-9944.3
6473.72
-9058.66
6719.76
-8136.9
6766.34
-7197.79
6591.84
-6243.89
6191.16
-5285.19
5550.36
-4286.4
4634.23
-3235.31
3369.75
-1994.39
1715.47
-423.043
1965.54
1853.61
-16691.2
2196.41
-18787.9
2438.47
-17281.8
2838.41
-15757.1
3514.28
-14963.3
4245.4
-14007.7
5082.39
-13321.5
5973.39
-12514.1
6913.4
-11747.8
7780.89
-10811.8
8484.2
-9761.97
8931.7
-8584.4
9085.17
-7351.26
8915
-6073.73
8389.85
-4760.04
7466.07
-3362.63
6090.72
-1859.96
4060.82
35.513
1993.69
1644.08
3959.23
1490.44
-18181.6
990.462
-18287.9
879.617
-17170.9
1080.03
-15957.5
1471.39
-15354.7
1941.92
-14478.2
2572.19
-13951.8
3308.92
-13250.9
4097.04
-12535.9
4742.78
-11457.5
5115.8
-10135
5129.17
-8597.77
4807.06
-7029.15
4170.54
-5437.22
3222.86
-3812.36
2028.37
-2168.14
779.516
-611.11
-122.55
937.577
-815.651
2337.18
3143.58
-119.446
-18062.2
-1222.73
-17184.6
-1951.84
-16441.8
-2595.5
-15313.8
-3190.47
-14759.7
-3759.06
-13909.6
-4263.03
-13447.8
-4725.41
-12788.5
-5194.03
-12067.3
-5761.14
-10890.4
-6494.81
-9401.33
-7407.96
-7684.62
-8456.15
-5980.98
-9564.35
-4329.02
-10608.9
-2767.86
-11305.5
-1471.53
-11129.9
-786.713
-9344.6
-847.689
-5431.66
-1575.77
-2288.08
-1005
-17057.2
-1866.46
-16323.2
-2776.92
-15531.3
-3875.21
-14215.6
-4982.2
-13652.7
-6263.28
-12628.5
-7652.31
-12058.8
-9187.75
-11253.1
-10762.4
-10492.7
-12262
-9390.8
-13588.4
-8074.96
-14701.1
-6571.88
-15582.3
-5099.82
-16085.2
-3826.12
-15848.5
-3004.59
-14444.2
-2875.81
-11716.9
-3513.99
-7755.26
-4809.34
-3273.69
-6057.34
-5561.77
-258.09
-16799.1
-331.231
-16250
-491.495
-15371.1
-849.375
-13857.7
-1192.17
-13309.9
-1709.3
-12111.4
-2339.95
-11428.2
-3126.44
-10466.6
-3927.58
-9691.57
-4537.18
-8781.21
-4745.42
-7866.73
-4436.74
-6880.57
-3619.27
-5917.29
-2361.68
-5083.73
-785.525
-4580.75
880.409
-4541.76
2205.35
-4838.95
2627.88
-5231.88
1745.23
-5174.69
-3816.54
448.456
-17247.6
699.85
-16501.4
1064.76
-15736
1379.07
-14172
1716.73
-13647.6
2055.89
-12450.6
2370.14
-11742.4
2687.33
-10783.8
2996.94
-10001.2
3398.16
-9182.44
3970.63
-8439.21
4811.45
-7721.39
5924.79
-7030.65
7176.29
-6335.23
8213.61
-5618.08
8549.32
-4877.47
7859.24
-4148.87
6079.29
-3451.93
3355.96
-2451.36
-460.583
611.12
-17858.7
696.983
-16587.3
1068.03
-16107.1
1467.38
-14571.4
1896.12
-14076.3
2382.99
-12937.5
2893.47
-12252.9
3468.91
-11359.2
4075.12
-10607.4
4709.94
-9817.27
5342.1
-9071.37
5954.91
-8334.2
6528.19
-7603.94
7012.66
-6819.69
7306.14
-5911.57
7199.39
-4770.72
6435.68
-3385.17
4978.83
-1995.09
2767.01
-239.554
2306.43
145.453
-18004.1
-76.4984
-16365.4
-10.462
-16173.1
175.548
-14757.4
396.025
-14296.8
752.371
-13293.8
1156.35
-12656.9
1662.76
-11865.6
2245.76
-11190.4
2921.19
-10492.7
3688.31
-9838.49
4535.18
-9181.08
5413.51
-8482.26
6203.91
-7610.1
6692.44
-6400.1
6562.52
-4640.8
5322.12
-2144.77
2643.02
684.011
928.988
1474.47
3235.42
-1280.07
-16724.1
-2672.43
-14973
-3735.39
-15110.1
-4484
-14008.8
-5141.7
-13639.1
-5523.75
-12911.8
-5790.05
-12390.6
-5864.14
-11791.6
-5802.43
-11252.1
-5585.35
-10709.8
-5225.8
-10198
-4721.97
-9684.92
-4093.6
-9110.64
-3377.04
-8326.66
-2644.89
-7132.25
-1964.56
-5321.14
-1389.05
-2720.28
-1035.28
330.23
-920.398
1359.58
2315.02
-2201.89
-14522.2
-4688.88
-12486
-7149.14
-12649.9
-9229.12
-11928.8
-11208.8
-11659.4
-12880
-11240.6
-14358
-10912.6
-15585.2
-10564.3
-16602.1
-10235.2
-17405.6
-9906.24
-18018.6
-9585.12
-18438.4
-9265.07
-18624.1
-8924.91
-18443.2
-8507.56
-17656.6
-7918.89
-15909.5
-7068.2
-12713.2
-5916.6
-7929.99
-4453
-3690.89
-2879.53
-1375.87
-5422.19
-8808.2
-12358.1
-15186.9
-17746.3
-19886.9
-21699.5
-23163.8
-24299
-25105.2
-25590.4
-25755.4
-25580.3
-24987.9
-23806.8
-21775
-18591.6
-13944.6
-7724.13
-5417.49
14517.5
-8799.16
12481.7
-12344.8
12645.6
-15169.4
11924.6
-17724.7
11655.3
-19861.2
11236.5
-21669.7
10908.6
-23130.1
10560.4
-24261.5
10231.4
-25064.2
9902.73
-25546.2
9582.03
-25708.2
9261.96
-25528.3
8920.19
-24927.2
8498.9
-23732.9
7905.71
-21687.6
7054.71
-18498.2
5910.58
-13866.5
4468.32
-7692.5
2926
1407.5
-2204.92
16722.5
-4697.35
14974.2
-7162.31
15110.6
-9248.79
14011.1
-11235.4
13641.9
-12915
12916.1
-14402.2
12395.8
-15640.1
11798.3
-16669
11260.4
-17486.7
10720.4
-18115.6
10211
-18551.7
9698.09
-18749.4
9117.95
-18570.4
8319.87
-17770
7105.34
-15981.6
5266.25
-12687
2616.07
-7901.52
-317.185
-3651.67
-1323.83
-2244.17
-1293.79
18016.3
-2694.25
16374.7
-3769.7
16186.1
-4531.92
14773.4
-5204.84
14314.8
-5602.32
13313.6
-5885.5
12679
-5976.55
11889.4
-5932.75
11216.6
-5734.42
10522.1
-5395.63
9872.18
-4915.14
9217.63
-4312.66
8515.49
-3622.05
7629.29
-2909.47
6392.78
-2230.97
4587.79
-1627.96
2013.11
-1253.35
-691.724
-1048.57
-1528.56
-3292.74
131.165
17885.1
-109.798
16615.6
-59.0407
16135.3
112.826
14601.5
319.064
14108.6
662.752
12970
1053.32
12288.4
1547.03
11395.7
2116.22
10647.4
2778.99
9859.33
3536.1
9115.09
4377.23
8376.51
5251.91
7640.83
6036.62
6844.59
6512.12
5917.3
6351.2
4748.72
5039.45
3324.89
2433.07
1914.68
804.842
99.7089
-2487.9
625.431
17259.7
699.195
16541.9
1064.81
15769.7
1452.49
14213.9
1873.34
13687.8
2342.13
12501.2
2837.26
11793.3
3390.84
10842.1
3978.87
10059.4
4594.96
9243.27
5210.78
8499.3
5805.83
7781.49
6357.07
7089.6
6810.21
6391.47
7062.5
5665.03
6919.58
4891.65
6144.58
4099.91
4743.85
3315.42
2623.63
2219.96
135.727
429.936
16829.8
683.114
16288.7
1057.13
15395.7
1399.81
13871.2
1761.94
13325.7
2133.48
12129.7
2480.47
11446.4
2838.94
10483.7
3193.54
9704.82
3640.33
8796.48
4238.41
7901.22
5058.28
6961.62
6079.98
6067.9
7148.64
5322.81
7929.99
4883.68
8077.81
4743.83
7379.24
4798.48
5735.47
4959.2
3200.26
4755.18
3335.99
-51.7191
16881.5
-108.849
16345.9
-298.125
15585
-821.368
14394.5
-1271.73
13776.1
-1885.74
12743.7
-2495.49
12056.1
-3145.99
11134.2
-3695.51
10254.3
-4008.44
9109.43
-3928.07
7820.84
-3310.04
6343.61
-2175.45
4933.32
-648.085
3795.46
1081.67
3153.94
2657.87
3167.64
3546.99
3909.36
3298.59
5207.6
1895.76
6158
5231.75
-522.522
17404
-1197.94
17021.3
-2009.36
16396.4
-3183.81
15568.9
-4264.64
14856.9
-5573.93
14053
-6869.91
13352.1
-8295.38
12559.7
-9727.53
11686.5
-11134.9
10516.8
-12331.8
9017.7
-13227
7238.88
-13816.2
5522.48
-13994.1
3973.38
-13445.2
2605.03
-11879.6
1601.95
-9215.96
1245.74
-5737.39
1729.02
-2303.39
2723.99
2928.36
95.8734
17308.2
-150.677
17267.8
-247.887
16493.6
-357.436
15678.5
-416.683
14916.1
-554.872
14191.2
-733.556
13530.8
-1075.02
12901.1
-1637.59
12249.1
-2503.18
11382.4
-3633.77
10148.3
-5038.13
8643.28
-6639.19
7123.54
-8305.13
5639.34
-9847.01
4146.9
-10840.7
2595.65
-10644.6
1049.59
-8742.28
-173.272
-4729.32
-1288.99
-1800.97
1175.34
16132.8
1974.6
16468.6
2894.44
15573.8
3820.17
14752.7
4727.81
14008.5
5591.3
13327.7
6412.17
12709.9
7149.63
12163.7
7747.9
11650.8
8084.5
11045.8
7997.82
10235
7416.53
9224.56
6442.04
8098.03
5181.2
6900.17
3678.63
5649.46
1971.81
4302.45
205.036
2816.34
-894.081
925.802
-1185.63
-997.476
-2986.59
1438.22
14694.6
2670.2
15236.6
3763.89
14480.1
4712.07
13804.6
5547.4
13173.2
6303.3
12571.8
7002.33
12010.9
7676.76
11489.2
8321.29
11006.2
8868.76
10498.3
9269.3
9834.43
9450.09
9043.77
9376.14
8171.98
9032.89
7243.41
8402.32
6280.04
7446.4
5258.36
6097.5
4165.24
4125.05
2898.24
1807.04
1320.54
-1179.55
1040.89
13653.7
2033.35
14244.1
2760.12
13753.3
3292.96
13271.7
3728.57
12737.5
4143.83
12156.5
4614.35
11540.3
5222.5
10881.1
5852.51
10376.2
6352.72
9998.08
6648.87
9538.26
6745.03
8947.58
6668.2
8248.8
6419.83
7491.76
5984.34
6715.52
5326.36
5916.32
4409.15
5082.45
3196.83
4110.55
1710.13
2807.23
530.576
550.631
13103.1
1108.84
13685.9
1357.45
13504.7
1466.84
13162.3
1643.39
12561
2064.76
11735.1
2832.34
10772.8
3882.21
9831.18
4928.16
9330.24
5797.68
9128.54
6369.59
8966.35
6721.63
8595.52
6929.26
8041.16
6968.31
7452.71
6752.05
6931.77
6160.73
6507.64
5126.66
6116.52
3653.86
5583.35
1872.82
4588.27
2403.4
69.1082
13033.9
-162.273
13917.3
-758.692
14101.1
-1422.56
13826.2
-1809.52
12947.9
-1584.37
11509.9
-676.372
9864.71
522.169
8632.57
1777.83
8074.54
3173.64
7732.68
4787.02
7352.94
6572.79
6809.72
8292.91
6321.02
9568.22
6177.38
10007.5
6492.48
9398.53
7116.59
7811.17
7703.88
5471.36
7923.16
2780
7279.63
5183.4
-1266.05
14299.9
-2768.88
15420.1
-4548.78
15881
-6356.59
15634
-7980.13
14571.4
-9133.61
12663.4
-9768.3
10499.4
-10213.1
9077.38
-10448.2
8309.62
-10270.6
7555.04
-9558.18
6640.49
-8375.65
5627.17
-6802.48
4747.83
-4857.17
4232.05
-2612.64
4247.93
-378.915
4882.85
1283.54
6041.4
1896.86
7309.83
1295.33
7881.14
6478.73
-1842.65
16142.6
-3908.42
17485.8
-5821.22
17793.8
-7697.51
17510.2
-9745.11
16619
-12009.3
14927.5
-14351.1
12841.2
-16563.2
11289.5
-18501.7
10248.1
-20174.7
9227.98
-21631.1
8096.89
-22849.7
6845.78
-23608
5506.16
-23494.3
4118.26
-22064.7
2818.4
-19024.5
1842.65
-14372.3
1389.14
-8764.67
1702.23
-3520.96
2637.42
2957.77
369.763
15772.8
-649.449
18505
-1191.77
18336.1
-1408.81
17727.3
-1703.57
16913.8
-2448.72
15672.7
-3668.53
14061
-4937.35
12558.3
-6008.69
11319.4
-6949.16
10168.4
-7879.83
9027.55
-8886.33
7852.27
-9999.59
6619.41
-11195.5
5314.19
-12324
3946.91
-12949.9
2468.49
-12426
865.246
-10214.2
-509.579
-6057.13
-1519.67
-3099.37
3324.66
12448.1
4537.11
17292.6
5725.89
17147.3
7302.99
16150.2
9084.25
15132.5
10667.5
14089.4
11749.2
12979.3
12445.3
11862.2
12948.5
10816.3
13267.8
9849.1
13350.6
8944.82
13127.9
8074.9
12527
7220.35
11473.1
6368.03
9901.09
5518.95
7741.19
4628.39
4952.61
3653.82
2020.99
2422.04
32.6351
468.669
-3066.73
3342.05
9106.07
5368.25
15266.4
6893.76
15621.8
8443
14600.9
10164.4
13411.1
11902
12351.8
13466.6
11414.7
14704.3
10624.5
15581.3
9939.25
16102.8
9327.63
16288.4
8759.24
16154.9
8208.35
15704.4
7670.9
14914.9
7157.47
13751
6682.83
12156.4
6223.01
10089.8
5720.44
7493.53
5018.3
4206.22
3755.98
1139.49
1744.39
4435.29
6864.57
8913.3
10681.1
12206.5
13169.4
13780.6
14093
14120.4
13888.3
13424.4
12748
11864.2
10771.7
9449.17
7868.95
5935.58
3485.53
)
;

boundaryField
{
    outletWall
    {
        type            calculated;
        value           nonuniform List<scalar> 
60
(
43694.4
-24119.5
-56183.6
-71984.5
-53288.8
19791.9
81886.8
90069.5
74147
13882.4
-53082.7
-85939.7
-104083
-113906
-117532
-116141
-110834
-98652.4
-88161.1
-33345.8
26566.8
29786.4
33737.1
38015
42424.9
46662
50882
55564.6
61109.9
67683.1
74656.2
80462.1
87800
98384.5
94532.2
66570.6
33663.9
19665.2
16211.6
16250.1
-6693.73
-1872.07
-44487.7
-48759.1
-89693.7
-110900
-116647
-111662
-83664.3
-5126.1
89690.2
127467
122879
107962
99963.4
107244
120658
83027.9
-48392.7
-63838.8
)
;
    }
    fineWalls
    {
        type            calculated;
        value           uniform 0;
    }
    fineFrontAndBack
    {
        type            calculated;
        value           nonuniform List<scalar> 
960
(
3.42931e-13
-1.67881e-11
-2.17085e-12
-1.16148e-12
-2.08506e-11
-2.84934e-12
-2.32368e-12
-1.18695e-12
-2.41037e-11
-4.31243e-12
-3.17438e-12
-3.27572e-11
-4.90454e-12
-3.92424e-12
-4.73281e-11
-7.59004e-12
-5.75427e-12
-3.49908e-11
-5.61562e-12
-5.68422e-12
-2.29733e-12
-3.01352e-12
-3.57637e-12
-3.82118e-12
-3.87034e-12
-3.79155e-12
-8.42531e-11
-3.77613e-12
-4.23038e-12
-4.6745e-12
-5.03251e-12
-5.33179e-12
-5.65455e-12
-6.07832e-12
-6.60758e-12
-7.21528e-12
-7.64115e-12
-7.96751e-12
-7.72153e-12
-8.32495e-12
-9.29002e-11
3.37065e-12
9.30411e-12
1.06621e-11
7.45649e-11
5.43743e-12
-7.98871e-13
-4.08726e-12
-2.57754e-11
4.47813e-12
1.24872e-11
1.0784e-10
1.308e-11
1.03695e-11
4.977e-12
-2.92857e-11
-9.82107e-12
-9.99777e-12
-6.92506e-12
9.49106e-11
1.10636e-11
9.16951e-12
1.00569e-11
1.00999e-11
1.01283e-11
9.73168e-12
9.45452e-12
9.13468e-12
8.8266e-12
8.56585e-12
8.47154e-12
8.34432e-12
8.01664e-12
1.23636e-10
7.07265e-12
7.03181e-12
7.10197e-12
7.09385e-12
6.60417e-12
5.35686e-12
2.02577e-11
1.82239e-11
9.77895e-11
1.62764e-11
1.71072e-11
1.09336e-10
2.23632e-11
2.48648e-11
1.51933e-10
3.32083e-11
4.06586e-11
2.56116e-10
5.26985e-11
3.85467e-11
2.95772e-11
1.30088e-10
2.0889e-11
2.19376e-11
1.05994e-10
2.75664e-11
4.54595e-11
3.60382e-11
2.47287e-11
1.78049e-11
1.28628e-11
1.34571e-11
2.051e-11
3.3367e-11
4.58697e-11
4.83518e-11
4.27084e-11
3.9485e-11
5.30251e-11
7.43849e-11
8.97818e-11
7.95998e-11
9.96247e-11
1.34502e-10
1.45935e-10
4.44565e-11
3.52044e-11
2.41489e-11
1.74249e-11
1.27604e-11
1.36207e-11
2.09045e-11
3.38267e-11
4.60621e-11
4.82652e-11
4.2536e-11
4.76521e-11
8.7924e-11
1.29553e-10
1.60092e-10
1.03042e-10
9.65313e-11
1.27253e-10
1.36595e-10
4.22719e-11
3.35582e-11
2.35466e-11
1.69696e-11
1.26472e-11
1.3845e-11
2.144e-11
3.44682e-11
4.63372e-11
4.79304e-11
4.33698e-11
6.63728e-11
1.33528e-10
1.89968e-10
2.29172e-10
1.45919e-10
1.02833e-10
1.21356e-10
1.018e-10
3.95681e-11
2.84118e-11
2.29119e-11
1.65671e-11
1.25596e-11
1.41217e-11
2.2068e-11
3.52348e-11
4.66199e-11
4.70493e-11
4.77813e-11
9.12488e-11
1.75957e-10
2.32764e-10
2.52443e-10
1.85708e-10
1.21313e-10
1.21547e-10
9.39032e-11
2.95962e-11
2.00698e-11
2.01181e-11
1.61573e-11
1.25698e-11
1.44721e-11
2.28188e-11
3.61193e-11
4.67803e-11
4.52867e-11
5.12675e-11
1.16549e-10
2.04971e-10
2.46182e-10
2.41926e-10
1.89312e-10
1.38111e-10
1.25593e-10
1.03571e-10
-2.53903e-11
1.29672e-11
1.63599e-11
1.44158e-11
1.26179e-11
1.48885e-11
2.36542e-11
3.71361e-11
4.68004e-11
4.47649e-11
5.6617e-11
1.44569e-10
2.19703e-10
2.41536e-10
2.2384e-10
1.72295e-10
1.47706e-10
1.33546e-10
1.06735e-10
-1.03549e-10
-2.6103e-11
1.92641e-11
1.15224e-11
1.21446e-11
1.57767e-11
2.49052e-11
3.81777e-11
4.63013e-11
4.21649e-11
6.64362e-11
1.84328e-10
2.14472e-10
2.18138e-10
1.96231e-10
1.51433e-10
1.28374e-10
1.39741e-10
1.38295e-10
-1.44191e-10
-6.44391e-11
2.12897e-11
1.16535e-11
1.05667e-11
1.60453e-11
2.55339e-11
3.94221e-11
4.50934e-11
4.62513e-11
1.11003e-10
1.90087e-10
1.80345e-10
1.6744e-10
1.49925e-10
1.20719e-10
6.78465e-11
4.80386e-11
7.76194e-11
-1.4318e-10
-7.09253e-11
2.21596e-11
1.80433e-11
1.16498e-11
1.89539e-11
3.25944e-11
4.03806e-11
4.39166e-11
6.07547e-11
1.45249e-10
1.65581e-10
1.04706e-10
7.68852e-11
7.48866e-11
9.20778e-11
9.4478e-11
5.50641e-11
1.45752e-11
-1.28217e-10
-6.53832e-11
3.15066e-11
3.03697e-11
1.70659e-11
1.79773e-11
1.62485e-11
4.30754e-11
4.62506e-11
5.4155e-11
5.10859e-11
6.59932e-12
3.69614e-11
-3.94344e-11
-1.39087e-11
2.11428e-11
6.58505e-11
7.30032e-11
7.82979e-11
-1.07405e-10
-5.8796e-11
4.29506e-11
5.06857e-11
2.5266e-11
1.81104e-11
2.37028e-11
4.52033e-11
4.73574e-11
3.41989e-11
-1.17794e-11
-3.41894e-11
-4.17785e-11
-1.17562e-10
-7.77036e-11
-2.73027e-11
2.54666e-11
4.48184e-11
3.00787e-11
-8.2289e-11
-5.22457e-11
4.72479e-11
7.67819e-11
4.349e-11
2.68584e-11
3.4179e-11
4.60125e-11
4.54423e-11
1.83448e-11
-2.91397e-11
-3.41145e-11
-6.68177e-11
-1.07345e-10
-8.07055e-11
-3.89509e-11
2.55449e-11
5.64912e-11
7.82882e-11
-5.59753e-11
-4.61646e-11
4.00844e-11
8.75214e-11
6.4001e-11
4.52348e-11
4.4561e-11
4.75058e-11
4.12101e-11
9.27656e-12
-2.496e-11
-3.23748e-11
-7.59058e-11
-8.64563e-11
-7.42607e-11
-5.6495e-11
1.31169e-11
2.46998e-12
-7.71475e-11
-3.13028e-11
-4.10603e-11
2.32294e-11
6.78539e-11
6.19625e-11
5.4491e-11
5.02782e-11
4.4898e-11
3.06327e-11
6.16813e-13
-2.22228e-11
-4.01534e-11
-7.53465e-11
-6.52799e-11
-6.60807e-11
-8.25355e-11
-7.73988e-11
-7.49554e-11
-1.03404e-10
-9.54926e-12
-3.67979e-11
6.03061e-12
3.815e-11
3.95786e-11
4.22307e-11
4.03197e-11
3.09532e-11
1.38549e-11
-8.44392e-12
-2.69549e-11
-5.03846e-11
-6.38472e-11
-4.87102e-11
-6.13891e-11
-8.55348e-11
-9.82856e-11
-9.32798e-11
-9.01714e-11
9.75759e-12
-3.34115e-11
-1.15347e-11
1.59968e-11
2.00443e-11
2.47961e-11
2.55425e-11
1.78295e-11
4.15012e-12
-1.28085e-11
-3.32262e-11
-5.37587e-11
-4.09618e-11
-3.9947e-11
-6.05725e-11
-8.66468e-11
-1.03025e-10
-9.85228e-11
-1.01379e-10
2.73394e-11
-2.93709e-11
-3.11972e-11
-1.05239e-12
8.74816e-12
1.53873e-11
2.0309e-11
1.7457e-11
7.13294e-12
-1.02428e-11
-3.35369e-11
-4.67037e-11
-2.63464e-11
-3.83096e-11
-6.10795e-11
-8.7507e-11
-1.05882e-10
-9.95544e-11
-1.07443e-10
4.31267e-11
-2.18864e-11
-5.04987e-11
-1.97755e-11
-2.26776e-12
7.79479e-12
1.83962e-11
2.18523e-11
1.47446e-11
-3.25615e-12
-2.61318e-11
-3.01657e-11
-2.49065e-11
-3.91826e-11
-6.11089e-11
-8.80247e-11
-1.07304e-10
-9.8022e-11
-1.01035e-10
5.5722e-11
-9.75847e-12
-6.4355e-11
-3.73812e-11
-1.09833e-11
1.01126e-13
1.42398e-11
2.43759e-11
2.18934e-11
5.28345e-12
-1.61278e-11
-1.87285e-11
-2.5e-11
-3.91749e-11
-6.10469e-11
-8.86631e-11
-1.08096e-10
-9.54197e-11
-9.83044e-11
6.32639e-11
3.44884e-12
-7.32989e-11
-7.15925e-11
-3.85633e-11
-2.05974e-11
-6.56505e-12
8.3994e-12
1.53602e-11
7.76859e-12
-9.91572e-12
-1.60477e-11
-2.49615e-11
-3.91391e-11
-6.14624e-11
-8.97044e-11
-1.08894e-10
-9.33029e-11
-9.57274e-11
-3.42931e-13
1.67881e-11
2.17085e-12
1.16148e-12
2.08506e-11
2.84934e-12
2.32368e-12
1.18695e-12
2.41037e-11
4.31243e-12
3.17438e-12
3.27572e-11
4.90454e-12
3.92424e-12
4.73281e-11
7.59004e-12
5.75427e-12
3.49908e-11
5.61562e-12
5.68422e-12
2.29733e-12
3.01352e-12
3.57637e-12
3.82118e-12
3.87034e-12
3.79155e-12
8.42531e-11
3.77613e-12
4.23038e-12
4.6745e-12
5.03251e-12
5.33179e-12
5.65455e-12
6.07832e-12
6.60758e-12
7.21528e-12
7.64115e-12
7.96751e-12
7.72153e-12
8.32495e-12
9.29002e-11
-3.37065e-12
-9.30411e-12
-1.06621e-11
-7.45649e-11
-5.43743e-12
7.98871e-13
4.08726e-12
2.57754e-11
-4.47813e-12
-1.24872e-11
-1.0784e-10
-1.308e-11
-1.03695e-11
-4.977e-12
2.92857e-11
9.82107e-12
9.99777e-12
6.92506e-12
-9.49106e-11
-1.10636e-11
-9.16951e-12
-1.00569e-11
-1.00999e-11
-1.01283e-11
-9.73168e-12
-9.45452e-12
-9.13468e-12
-8.8266e-12
-8.56585e-12
-8.47154e-12
-8.34432e-12
-8.01664e-12
-1.23636e-10
-7.07265e-12
-7.03181e-12
-7.10197e-12
-7.09385e-12
-6.60417e-12
-5.35686e-12
-2.02577e-11
-1.82239e-11
-9.77895e-11
-1.62764e-11
-1.71072e-11
-1.09336e-10
-2.23632e-11
-2.48648e-11
-1.51933e-10
-3.32083e-11
-4.06586e-11
-2.56116e-10
-5.26985e-11
-3.85467e-11
-2.95772e-11
-1.30088e-10
-2.0889e-11
-2.19376e-11
-1.05994e-10
-2.75664e-11
-4.54595e-11
-3.60382e-11
-2.47287e-11
-1.78049e-11
-1.28628e-11
-1.34571e-11
-2.051e-11
-3.3367e-11
-4.58697e-11
-4.83518e-11
-4.27084e-11
-3.9485e-11
-5.30251e-11
-7.43849e-11
-8.97818e-11
-7.95998e-11
-9.96247e-11
-1.34502e-10
-1.45935e-10
-4.44565e-11
-3.52044e-11
-2.41489e-11
-1.74249e-11
-1.27604e-11
-1.36207e-11
-2.09045e-11
-3.38267e-11
-4.60621e-11
-4.82652e-11
-4.2536e-11
-4.76521e-11
-8.7924e-11
-1.29553e-10
-1.60092e-10
-1.03042e-10
-9.65313e-11
-1.27253e-10
-1.36595e-10
-4.22719e-11
-3.35582e-11
-2.35466e-11
-1.69696e-11
-1.26472e-11
-1.3845e-11
-2.144e-11
-3.44682e-11
-4.63372e-11
-4.79304e-11
-4.33698e-11
-6.63728e-11
-1.33528e-10
-1.89968e-10
-2.29172e-10
-1.45919e-10
-1.02833e-10
-1.21356e-10
-1.018e-10
-3.95681e-11
-2.84118e-11
-2.29119e-11
-1.65671e-11
-1.25596e-11
-1.41217e-11
-2.2068e-11
-3.52348e-11
-4.66199e-11
-4.70493e-11
-4.77813e-11
-9.12488e-11
-1.75957e-10
-2.32764e-10
-2.52443e-10
-1.85708e-10
-1.21313e-10
-1.21547e-10
-9.39032e-11
-2.95962e-11
-2.00698e-11
-2.01181e-11
-1.61573e-11
-1.25698e-11
-1.44721e-11
-2.28188e-11
-3.61193e-11
-4.67803e-11
-4.52867e-11
-5.12675e-11
-1.16549e-10
-2.04971e-10
-2.46182e-10
-2.41926e-10
-1.89312e-10
-1.38111e-10
-1.25593e-10
-1.03571e-10
2.53903e-11
-1.29672e-11
-1.63599e-11
-1.44158e-11
-1.26179e-11
-1.48885e-11
-2.36542e-11
-3.71361e-11
-4.68004e-11
-4.47649e-11
-5.6617e-11
-1.44569e-10
-2.19703e-10
-2.41536e-10
-2.2384e-10
-1.72295e-10
-1.47706e-10
-1.33546e-10
-1.06735e-10
1.03549e-10
2.6103e-11
-1.92641e-11
-1.15224e-11
-1.21446e-11
-1.57767e-11
-2.49052e-11
-3.81777e-11
-4.63013e-11
-4.21649e-11
-6.64362e-11
-1.84328e-10
-2.14472e-10
-2.18138e-10