/*--------------------------------*- C++ -*----------------------------------*\
| =========                 |                                                 |
| \\      /  F ield         | OpenFOAM: The Open Source CFD Toolbox           |
|  \\    /   O peration     | Version:  4.1                                   |
|   \\  /    A nd           | Web:      www.OpenFOAM.org                      |
|    \\/     M anipulation  |                                                 |
\*---------------------------------------------------------------------------*/
FoamFile
{
    version     2.0;
    format      ascii;
    class       volScalarField;
    location    "26";
    object      p;
}
// * * * * * * * * * * * * * * * * * * * * * * * * * * * * * * * * * * * * * //

dimensions      [0 2 -2 0 0 0 0];

internalField   nonuniform List<scalar> 
1280
(
1.10652
1.00237
1.89078
2.37875
5.13148
5.66187
5.27724
5.18728
5.81315
6.07816
4.9566
4.56747
4.08137
0.727746
0.718086
-1.9571
-6.41083
-10.2149
-3.06641
-26.6654
-4.12121
17.5024
26.5773
23.052
20.5467
27.2215
8.2827
9.8416
6.87246
6.59931
5.96869
4.89423
3.99257
2.35623
1.00703
-1.35496
-2.48201
-4.48377
-3.63305
3.9417
-1.92291
-2.45011
3.71311
9.71071
22.9117
22.1334
22.3725
22.5917
21.6884
22.6806
22.3949
22.4747
22.8237
22.7751
22.4631
23.2774
10.3517
5.22105
-2.45144
-11.1203
13.9453
6.50921
1.9486
3.56826
4.29769
6.7082
8.00981
9.77173
10.7555
11.8088
12.554
13.0155
13.4999
2.39069
37.1862
30.6403
28.1585
29.4615
18.3071
-1.28018
-16.4851
0.0790986
0.558677
3.53406
4.64474
7.36102
7.17458
7.57535
8.27759
8.22225
7.97778
7.8777
7.73728
6.95667
6.38561
5.71645
4.44673
2.82202
1.29553
1.23395
-0.721818
-2.39351
-1.43823
-0.711672
-1.58352
0.316282
2.27487
4.18278
1.24253
1.47869
0.520057
-1.69198
-6.26606
-16.9671
-8.73428
0.0793803
1.96312
1.6685
1.55786
0.98785
-1.81855
-3.97876
-3.14572
-4.55999
0.105358
4.67587
8.90945
4.52315
3.2383
1.76417
-1.51182
-13.6966
-22.6248
-10.9324
1.42753
4.2877
4.40852
4.22386
1.20891
-4.17238
-6.91952
-5.269
-5.27758
0.0857811
5.06478
9.15097
6.59414
4.06526
1.79966
-2.40804
-22.6459
-23.6799
-13.157
4.04777
7.62556
6.79713
6.26613
2.14206
-5.11216
-8.67651
-6.60932
-6.01618
-0.287879
5.23211
8.78391
7.50422
3.96574
0.758174
-2.77873
-24.6107
-22.1456
-15.563
6.42921
11.1057
9.46209
8.2845
2.33245
-6.76796
-10.1673
-7.53741
-6.66624
-0.965929
4.60609
7.59356
7.36196
3.22759
-1.21659
-4.11866
-21.5472
-19.1356
-15.5591
8.365
14.158
11.3154
9.34421
2.44293
-7.67604
-10.4643
-8.02957
-6.94842
-1.87192
3.23431
5.71192
6.52483
2.85932
-1.41859
-3.66868
-15.1405
-16.8027
-13.7171
9.75057
17.0257
14.5268
10.5117
2.26015
-8.041
-9.81864
-8.08188
-7.0737
-2.94818
1.62658
3.69667
5.17358
3.20258
0.909912
-0.528024
-7.13309
-12.911
-10.8995
10.537
18.4876
14.6549
8.84679
2.03071
-7.53574
-8.35996
-7.69071
-7.03553
-3.94101
0.268702
2.65045
4.17542
4.02932
3.35221
3.15276
0.403325
-9.01436
-6.37771
10.7242
20.0656
22.1668
14.0903
1.78559
-6.43526
-6.50291
-6.95435
-6.73818
-4.60817
-0.705762
2.72724
2.67703
3.98199
4.64812
7.11569
8.52177
-6.74283
-4.4728
12.7687
19.242
25.3326
35.4975
1.66035
-4.91641
-4.41675
-5.86741
-6.10607
-4.99656
-1.69693
2.69444
0.55283
3.08168
5.47429
11.4382
18.8762
5.64213
2.89096
8.98364
11.6517
29.5494
24.1974
1.75436
-3.09056
-2.24428
-4.48877
-5.17845
-5.24702
-2.92682
1.54311
-1.59137
1.25774
5.39159
14.4919
26.9248
18.1524
14.3451
7.35176
2.92524
27.7936
26.1501
2.24526
-0.857638
-0.0112452
-2.90524
-4.10891
-5.52374
-4.38965
-0.815751
-3.76455
-1.05991
4.9264
17.0731
34.5255
27.5527
21.7313
6.45905
-6.99198
8.75443
28.5833
3.19954
1.69183
2.21327
-1.16602
-2.95242
-5.80693
-5.69888
-3.59264
-5.19468
-2.83227
4.87203
19.7495
41.9655
34.0138
25.5828
1.03404
-30.5913
-26.3606
2.01605
4.48874
4.25817
4.40297
0.606754
-1.82361
-5.99547
-6.25181
-6.17174
-5.54377
-3.466
5.25154
21.5177
46.2448
37.3404
25.8378
-5.0859
-44.2942
-40.2126
-5.69941
5.83151
6.19739
5.94117
1.88452
-1.00247
-6.19723
-5.95393
-7.80316
-5.00126
-3.0858
5.70462
21.4533
44.0329
38.1595
24.296
-9.33698
-42.2991
-37.3562
-5.1252
6.95083
7.43128
6.98396
2.59241
-0.839632
-6.55247
-5.23073
-7.71602
-3.99014
-2.40842
5.77073
19.7094
37.4258
35.9485
21.0373
-10.9046
-39.4586
-37.0925
-5.38761
7.37867
7.21313
6.67169
2.44658
-0.697342
-5.82711
-5.32595
-6.22402
-3.03105
-1.72917
5.12358
16.6388
29.8708
31.0429
16.6806
-7.81629
-28.4985
-24.0525
-1.84324
7.2501
6.71512
6.58859
2.33841
-1.12306
-3.75532
-5.97028
-4.35604
-2.15948
-0.845411
4.38181
13.2088
22.7831
24.3881
11.7318
-3.48188
-15.9144
-13.989
-0.497487
6.34777
2.92253
3.58254
1.02265
0.136014
0.608019
-6.25037
-3.4704
-2.11176
-0.78947
3.2623
9.80062
16.3654
16.863
6.67868
-0.602861
-6.64792
-5.78889
0.627556
3.47675
1.2511
3.23345
0.905306
-2.11941
-0.386179
-5.30714
-3.98968
-3.28064
-2.69244
-0.625712
2.88834
6.19173
6.29859
1.4627
-0.393047
-1.59682
-1.4551
0.42004
150.291
148.111
146.588
146.355
143.457
140.884
137.484
135.255
132.286
129.615
127.198
124.816
123.064
121.094
120.116
118.353
118.261
116.26
117.07
115.404
91.0251
90.7316
92.1752
93.6425
93.7405
93.9993
93.5964
93.304
93.4393
93.2512
93.5006
93.3098
93.7142
93.5071
94.2097
93.9159
95.0187
94.6231
96.2085
96.387
110.816
109.494
111.032
111.265
111.177
110.712
110.521
109.868
109.658
109.03
108.899
108.416
108.471
108.049
108.367
107.865
108.599
107.934
109.277
108.977
94.5521
93.852
95.8216
95.8841
96.6465
96.0512
96.3874
95.8359
95.9843
95.5729
95.7078
95.4963
95.8264
95.7069
96.344
96.1892
97.2362
96.9819
98.5671
98.8783
100.963
100.148
101.982
101.417
102.784
101.551
102.043
101.291
101.209
100.728
100.55
100.214
100.252
99.9392
100.344
99.9779
100.791
100.363
101.783
101.807
95.3011
95.2178
96.7927
96.1725
98.4701
96.6811
97.3922
96.9613
96.7397
96.6066
96.2714
96.1371
96.1043
95.8678
96.3007
95.9797
96.8859
96.6209
98.2044
98.3721
93.9973
94.6206
95.5255
94.9784
98.3693
95.8279
96.5948
96.8205
96.2824
96.6412
96.08
96.1361
95.9729
95.75
96.0938
95.7623
96.6727
96.4964
98.2407
98.3566
86.6733
88.3139
88.3814
88.1815
92.993
89.4768
90.1913
91.6111
90.7024
91.6954
91.1549
91.4294
91.3717
91.2721
91.6501
91.482
92.4647
92.5305
94.5432
94.8505
77.6797
80.3396
79.276
79.3673
85.7611
81.3636
81.7448
84.5518
83.555
84.9145
84.7354
85.1001
85.3483
85.4255
85.917
86.0182
87.0089
87.3918
89.4808
90.1163
63.0676
66.4596
63.9036
64.2923
72.8406
67.122
66.8445
71.3203
70.5581
71.8662
72.3667
72.7835
73.5965
74.0211
74.8745
75.4711
76.5708
77.5279
79.4411
81.0608
49.5769
52.1312
48.2127
48.0151
55.518
50.4941
49.4385
52.8374
52.7346
52.2738
52.761
52.0714
52.5787
52.2358
52.7015
52.7399
53.5081
54.52
56.4634
58.856
51.3728
52.2981
52.9519
51.8578
52.609
46.2363
48.9829
45.7991
47.5122
44.8276
45.5784
43.557
43.5714
42.0659
41.8406
40.9161
41.2254
41.3077
41.7837
41.896
47.2626
48.6633
50.1311
49.0228
52.3029
50.4565
53.5092
51.9869
54.3937
53.2841
54.7513
54.3454
55.1023
54.9818
55.2928
55.1027
55.2475
55.1547
54.5609
54.8324
33.3789
33.3824
34.5751
32.4987
34.7439
31.895
35.3203
33.8105
35.7312
35.0919
36.1656
36.7612
38.0191
39.3592
41.0379
42.7166
43.8688
45.1476
45.9683
46.936
42.4394
41.2182
42.3964
39.8153
41.2818
39.0544
39.7113
38.2602
38.0778
37.1816
36.5698
35.7909
35.1261
34.6387
34.6657
35.4304
35.909
35.9086
35.5746
36.0735
52.3603
50.6679
52.5226
49.2118
51.35
49.3008
50.2599
49.573
49.9031
49.8173
50.0053
50.0959
50.2357
50.3421
50.3954
50.4301
50.3532
50.2411
49.6305
49.0169
68.2161
65.4047
67.7707
61.8622
62.728
58.8775
57.7672
55.4122
53.8797
52.2759
51.0229
49.9773
49.1885
48.5816
48.0719
47.7376
47.6687
48.058
48.656
48.7712
62.9087
57.004
65.1107
58.4265
60.6653
57.5593
56.5856
54.3535
52.4502
50.2933
48.184
46.0628
44.0169
42.0908
40.429
39.1015
38.4668
39.0604
39.8273
40.512
76.6938
54.8071
62.9446
51.9309
49.2848
42.7484
37.9541
32.8783
28.5557
24.7737
21.7741
19.6045
18.3483
18.1195
19.0622
20.9007
23.8739
28.4082
31.8723
33.8749
765.709
683.109
634.084
577.725
528.696
481.376
437.412
395.913
356.898
320.087
285.317
252.388
221.084
191.335
163.192
135.837
109.552
88.6445
64.4577
27.2026
752.442
669.635
620.49
564.021
514.919
467.569
423.618
382.176
343.257
306.574
271.954
239.194
208.083
178.533
150.531
123.185
96.7645
76.1541
53.0799
16.5586
59.1454
37.3964
45.488
34.5022
31.7663
25.1688
20.2425
15.0107
10.4662
6.39665
3.02497
0.406082
-1.35112
-2.16699
-1.94114
-0.696722
1.50878
4.511
7.61358
10.8211
51.4715
46.573
55.2734
49.3731
52.302
49.9789
49.7675
48.3539
47.289
46.0244
44.8774
43.824
42.9519
42.2584
41.6961
41.2576
41.1692
42.1589
43.91
46.9752
77.3275
75.5832
78.8196
73.8931
75.9077
73.2108
73.3654
72.291
72.0829
71.8101
71.8939
72.155
72.6301
73.2642
74.0141
74.7411
75.3034
75.3503
75.2983
75.3394
65.188
62.5158
63.965
60.053
61.6196
58.9808
59.3799
58.0825
57.8594
57.1569
56.6782
56.0617
55.3863
54.3809
53.5334
52.4408
51.0224
49.4388
47.4052
44.7565
27.0935
24.9117
25.4619
22.0386
22.6335
19.303
19.9859
18.3773
17.2162
15.0618
13.2884
11.9865
9.67085
11.6999
12.2185
9.9192
8.96618
7.64571
5.11687
6.2657
25.604
24.9073
25.3359
23.0475
24.4236
21.8703
22.6354
21.0229
20.439
19.3199
17.7708
17.9874
14.5755
2.33949
-18.2056
-20.2797
-20.4488
-20.3063
-21.3787
-17.5545
10.1294
9.94161
10.0719
7.86622
8.69962
5.97597
6.13545
3.90507
2.98605
1.51348
-0.262081
-1.32681
-2.14446
-3.48815
-3.02208
-4.46147
-1.46965
4.19645
-1.77282
3.79567
24.0218
26.3895
28.1875
28.4841
31.1933
31.0869
33.4236
33.565
35.5282
36.4698
38.2667
39.3572
41.1805
42.1474
43.9164
45.4896
48.5494
52.2368
51.9892
55.3702
54.1859
57.5959
59.0559
60.1436
62.2577
63.0677
64.9812
65.7692
67.4483
68.3083
69.9238
70.8022
72.1222
72.8097
73.5789
74.2749
75.0659
76.1826
77.4154
80.1221
72.119
74.7778
75.1512
75.877
77.0327
77.153
78.2693
78.3176
79.2004
79.258
80.0649
80.1986
80.8211
80.9261
81.311
81.4573
82.1004
82.3106
83.8886
84.5867
78.4282
80.1582
80.1907
80.6327
81.2487
80.8593
81.5436
81.0434
81.4607
81.0305
81.3165
81.0724
81.3171
81.2021
81.5693
81.5869
82.4309
82.7006
84.7756
85.0414
82.7015
84.0567
84.5996
85.2709
85.8507
85.5049
86.1299
85.6515
86.0422
85.7124
85.99
85.878
86.2205
86.2304
86.8815
87.0491
88.2587
88.6841
90.9342
91.5119
91.9583
92.9663
94.0155
95.0476
95.3275
95.2293
95.4561
95.0696
95.3086
94.9468
95.1594
94.8561
95.149
94.8296
95.3827
95.0949
96.0676
96.0267
97.8196
98.1631
95.5086
95.8885
97.0406
98.2603
97.9117
97.8978
97.5221
97.0833
96.9629
96.3798
96.4511
95.8089
96.042
95.3268
95.7598
94.977
95.6704
95.0642
96.4473
96.5223
99.1523
98.5807
99.6016
100.658
99.7714
99.6911
98.8888
98.3291
97.8553
97.1063
96.9544
96.1436
96.2546
95.4109
95.7634
94.8318
95.4445
94.5296
95.7432
95.6509
90.264
89.6858
90.8243
92.1453
91.2292
91.4504
90.7353
90.4841
90.1416
89.7066
89.7328
89.3132
89.6808
89.288
89.961
89.5054
90.4986
89.9943
91.4714
91.8077
103.853
102.801
103.7
104.985
103.893
104.069
103.168
102.858
102.312
101.835
101.655
101.187
101.329
100.866
101.298
100.766
101.566
100.908
102.253
102.139
86.4237
86.4139
87.1273
89.3755
88.5666
89.1714
88.5739
88.7038
88.5173
88.4841
88.6636
88.5411
89.0155
88.8357
89.5957
89.3713
90.4131
90.2001
91.6548
91.9192
139.308
137.695
135.639
136.539
132.915
131.003
127.944
125.378
122.353
119.885
117.643
115.489
113.958
112.178
111.426
109.836
109.883
108.066
108.87
107.658
)
;

boundaryField
{
    outletWall
    {
        type            fixedValue;
        value           uniform 0;
    }
    fineWalls
    {
        type            zeroGradient;
    }
    fineFrontAndBack
    {
        type            zeroGradient;
    }
    fineplugLeft
    {
        type            cyclicAMI;
        value           nonuniform List<scalar> 
20
(
93.1115
92.9292
92.1109
94.1127
94.4112
96.2941
97.3463
99.2501
100.832
102.952
105.012
107.203
110.172
122.793
118.152
118.875
121.694
122.586
121.989
119.409
)
;
    }
    fineplugRight
    {
        type            cyclicAMI;
        value           nonuniform List<scalar> 
20
(
88.9152
88.3974
86.8424
88.6198
88.7281
90.4826
91.3441
93.1208
94.5426
96.4762
98.4186
100.485
103.002
113.668
112.24
112.46
114.863
114.403
113.817
111.19
)
;
    }
    inletOutletLeft
    {
        type            cyclicAMI;
        value           nonuniform List<scalar> 
20
(
93.1115
92.9292
92.1109
94.1127
94.4112
96.2941
97.3463
99.2501
100.832
102.952
105.012
107.203
110.172
122.793
118.152
118.875
121.694
122.586
121.989
119.409
)
;
    }
    inletLeft
    {
        type            zeroGradient;
    }
    inletWallsLeft
    {
        type            zeroGradient;
    }
    inletFacesLeft
    {
        type            zeroGradient;
    }
    inletOutletRight
    {
        type            cyclicAMI;
        value           nonuniform List<scalar> 
20
(
88.9152
88.3974
86.8424
88.6198
88.7281
90.4826
91.3441
93.1208
94.5426
96.4762
98.4186
100.485
103.002
113.668
112.24
112.46
114.863
114.403
113.817
111.19
)
;
    }
    inletRight
    {
        type            zeroGradient;
    }
    inletWallsRight
    {
        type            zeroGradient;
    }
    inletFacesRight
    {
        type            zeroGradient;
    }
}


// ************************************************************************* //
