/*--------------------------------*- C++ -*----------------------------------*\
| =========                 |                                                 |
| \\      /  F ield         | OpenFOAM: The Open Source CFD Toolbox           |
|  \\    /   O peration     | Version:  4.1                                   |
|   \\  /    A nd           | Web:      www.OpenFOAM.org                      |
|    \\/     M anipulation  |                                                 |
\*---------------------------------------------------------------------------*/
FoamFile
{
    version     2.0;
    format      ascii;
    class       surfaceScalarField;
    location    "26";
    object      phi;
}
// * * * * * * * * * * * * * * * * * * * * * * * * * * * * * * * * * * * * * //

dimensions      [0 3 -1 0 0 0 0];

internalField   nonuniform List<scalar> 
2360
(
-9398.14
-5838.46
-3559.69
-5838.46
-5838.46
-1964.23
-3874.23
-1964.23
-1964.23
-1964.23
2159.09
-4123.32
2159.09
2159.09
6376.41
-4217.33
6376.41
6376.41
10198
-3821.58
10198
10198
13848.8
-3650.77
13848.8
13848.8
15158
16897.9
18393.6
19677.7
20876.6
22131.1
18330.4
5009.84
19424.6
20430
21376.8
22271.2
23113.9
23894.5
24611.7
25252.8
25831
26347.3
26848.1
27478.7
28338.9
13032.5
15306.4
13032.5
13032.5
13032.5
584.801
12447.7
584.801
584.801
584.8
353.157
231.644
353.156
353.157
-220.837
573.992
-220.835
-220.836
-220.834
-12626.2
12405.4
-12626.2
-12626.2
-12626.2
-27213.1
14586.9
-26305.3
-25538.8
-25000.4
-24515.1
-23976.8
-23374.5
-22690.6
-21935
-21106.5
-20215.4
-19258
-18234.4
-17134.4
-19704.2
3743.17
-18464.1
-17163.2
-15801.6
-14348.5
-12619.8
-11456.2
-11456.2
-11456.2
-6233.21
-5223
-6233.21
-6233.21
-3051.38
-3181.82
-3051.39
-3051.39
-235.973
-2815.41
-235.974
-235.975
2375.68
-2611.66
2375.68
2375.68
2375.68
4913.32
-2537.64
4913.32
4913.32
7685.03
-2771.71
-3105.08
-9345.57
-1446.95
-14307.3
-1564.85
-14165.7
-2206.65
1136.86
-2792.17
9645.31
-2988.23
11794.4
-2715.42
10382.7
-2145.2
1575.21
-2482.47
-9216.71
-3208.69
-13904
-3436.54
-19517.7
-2732.75
-22608.2
173.056
-11933.9
3053.89
12699
4012.69
21948.9
4000.08
18944
3675.43
11689.1
3454.33
5299.69
-1298.72
-2226.1
-10920.6
-1048.68
-15484.7
-2044.6
-13169.8
-2677.79
1770.05
-3165.16
10132.7
-3365.77
11995
-3059.47
10076.4
-3013.77
1529.52
-4363.89
-7866.59
-5747.28
-12520.7
-6479.53
-18785.5
-5626.3
-23461.5
-1420.15
-16140
2457.16
8821.72
3593.93
20812.2
3781.78
18756.1
3620.39
11850.5
3276.86
5643.21
-559.499
-1759.86
-12178.5
-1454.88
-15789.7
-3097.03
-11527.6
-3652.36
2325.39
-3775.43
10255.7
-3885.73
12105.3
-3778.97
9969.67
-4439.14
2189.69
-6199.04
-6106.68
-7794.93
-10924.8
-8658.02
-17922.4
-7593.53
-24526
-3312.83
-20420.7
1160.57
4348.31
2786.71
19186
3292.54
18250.3
3454.7
11688.4
3219.42
5878.5
48.2661
-1980.76
-13114.5
-2245.66
-15524.8
-4165.62
-9607.69
-4718.5
2878.27
-4561.73
10099
-4532.94
12076.5
-4754.22
10190.9
-6029.18
3464.65
-8017.4
-4118.46
-9548.52
-9393.66
-10141.2
-17329.7
-9130.63
-25536.5
-5483.88
-24067.5
-542.186
-593.375
1639.77
17004.1
2437.12
17452.9
3032.16
11093.3
3148.03
5762.63
380.888
-2620.42
-13713
-3350.6
-14794.6
-5340.28
-7618
-5798.26
3336.24
-5413.3
9714.02
-5288.55
11951.8
-5824.62
10727
-7541.73
5181.76
-9369.35
-2290.85
-10067.9
-8695.08
-9933.97
-17463.7
-9506.48
-25964
-7399.21
-26174.7
-2462.34
-5530.24
192.44
14349.3
1211.96
16433.4
2455.94
9849.32
3090.56
5128.02
289.624
-3371.29
-14085.7
-4465.03
-13700.9
-6440.59
-5642.44
-6752.38
3648.03
-6244.09
9205.73
-6122.62
11830.3
-6909.09
11513.5
-8657.16
6929.83
-9571.91
-1376.09
-8831.23
-9435.76
-8116.66
-18178.2
-8672.23
-25408.4
-8442.79
-26404.2
-4499.93
-9473.1
-1629.61
11479
-257.813
15061.6
1438.76
8152.75
3585.73
2981.05
-1347.65
-4057.72
-14230.5
-5503.72
-12254.9
-7387.76
-3758.4
-7546.37
3806.64
-7064.09
8723.44
-7076.78
11843
-7983.61
12420.3
-9072.94
8019.16
-8442
-2007.04
-6750.95
-11126.8
-6232.51
-18696.7
-7493.62
-24147.3
-8770.52
-25127.3
-6512.86
-11730.8
-3749.96
8716.1
-1801.77
13113.4
934.126
5416.85
3410.24
504.945
5805.76
-4749.38
-14132.5
-6409.86
-10594.4
-8084.39
-2083.86
-8210.09
3932.34
-7952.34
8465.7
-8218.79
12109.4
-9028.08
13229.6
-9008.52
7999.6
-7427.91
-3587.64
-6102.1
-12452.6
-5848.64
-18950.1
-6764.29
-23231.7
-8682.43
-23209.1
-7678.26
-12734.9
-4532.22
5570.06
-1933.86
10515.1
-2022.92
5505.91
-7193.98
5676
13198.7
-5432.98
-13847.7
-7114.01
-8913.38
-8553.81
-644.056
-8833.86
4212.38
-8966.58
8598.42
-9492.51
12635.4
-9935.63
13672.7
-8946.2
7010.17
-7445.84
-5088.01
-6720.41
-13178.1
-6147.36
-19523.2
-6398.77
-22980.3
-8583.7
-21024.2
-8785.3
-12533.3
-6053.89
2838.65
-6257.52
10718.7
-10665.9
9914.3
-14137.5
9147.62
11466.5
-6077.05
-13449.8
-7656.69
-7333.73
-8926.01
625.256
-9506.84
4793.22
-10066.3
9157.83
-10692.8
13261.9
-10564.2
13544.1
-8966.96
5412.96
-7724.04
-6330.93
-7035.99
-13866.1
-6125.13
-20434
-6144.51
-22960.9
-8747.24
-18421.5
-11546.2
-9734.39
-11547.9
2840.41
-12528.5
11699.2
-14322.2
11708.1
-11134.7
5960.1
905.761
-6677.01
-12972.6
-8136.44
-5874.3
-9309.45
1798.27
-10202.2
5685.93
-11062.7
10018.4
-11571.6
13770.8
-10835
12807.5
-8869.47
3447.41
-7624.15
-7576.25
-6728.92
-14761.3
-5784.14
-21378.8
-5760.29
-22984.7
-8276.47
-15905.3
-12204.3
-5806.59
-13801.5
4437.65
-14281.7
12179.4
-13774.6
11201
-9920.72
2106.17
-8783.32
-7164.97
-12426.8
-8551.2
-4488.07
-9672.84
2919.91
-10758.8
6771.89
-11727.6
10987.2
-11975.3
14018.6
-10684.4
11516.6
-8396.31
1159.36
-6939.93
-9032.64
-5867.61
-15833.7
-5104.37
-22142
-5165.82
-22923.3
-7453.34
-13617.8
-11827.7
-1432.22
-14382.3
6992.23
-15907
13704.1
-17218
12512
-16342.8
1230.98
-12678.4
-7419.27
-11840
-8781.43
-3125.91
-9894.82
4033.3
-11057.8
7934.87
-12001.7
11931.1
-11948.7
13965.5
-10131.4
9699.3
-7505.57
-1466.5
-5763.44
-10774.8
-4588.91
-17008.2
-4102.24
-22628.7
-4290.29
-22735.2
-5950.69
-11957.4
-10081.5
2698.58
-12877.5
9788.2
-14070.7
14897.3
-13964
12405.3
-13212.8
479.81
-10584.8
-7389.14
-11254.6
-8749.83
-1765.22
-9880.77
5164.23
-11054.5
9108.63
-11933.7
12810.2
-11577.3
13609.2
-9154.93
7276.91
-6134.61
-4486.82
-4180.46
-12728.9
-3140.77
-18047.9
-2994.84
-22774.6
-3237.64
-22492.4
-3792.52
-11402.5
-6770.79
5676.86
-9153.86
12171.3
-9160.48
14904
-5867.82
9112.67
-1618.97
-3769.04
-7193.97
-7101.15
-10704
-8508.53
-357.839
-9696.62
6352.32
-10813
10225
-11568.5
13565.8
-10774.1
12814.8
-7512.97
4015.78
-4190.27
-7809.52
-2447.7
-14471.5
-1886.89
-18608.7
-2035.78
-22625.7
-2211.76
-22316.5
-1478.46
-12135.8
-2442.75
6641.15
-4163.36
13891.9
-3968.58
14709.2
-908.71
6052.8
1848.41
-6526.16
-8996.32
-6626.49
-10205
-8139.99
1155.66
-9458.49
7670.82
-10455.7
11222.2
-10939.8
14049.9
-9425.94
11300.9
-5403.44
-6.71841
-2385.47
-10827.5
-1326.44
-15530.5
-1169.49
-18765.6
-1313.25
-22482
-1305.09
-22324.6
51.0628
-13492
1388.01
5304.2
1379.45
13900.4
2157.22
13931.4
4087.98
4122.04
4601.2
-7039.38
-8216.7
-6008.66
-9784
-7665.08
2812.07
-9291.73
9297.47
-10211.5
12142
-10152.1
13990.5
-7606.52
8755.27
-3559.47
-4053.77
-1570.26
-12816.7
-1100.64
-16000.1
-872.02
-18994.3
-736.471
-22617.5
-526.887
-22534.2
718.925
-14737.8
3272.16
2750.97
5070.28
12102.3
6785.71
12216
7514.06
3393.68
6238.29
-5763.6
-6195.74
-5389.53
-9423.74
-7153.74
4576.28
-9085.9
11229.6
-9967.33
13023.4
-9268.11
13291.3
-5858.9
5346.06
-2540.56
-7372.11
-1538.93
-13818.3
-1123.71
-16415.3
-634.086
-19483.9
-266.028
-22985.6
67.1846
-22867.4
1054.19
-15724.8
3681.77
123.386
6034.6
9749.5
7960.19
10290.4
8124.44
3229.44
6285.98
-3925.15
-4033.07
-4718.06
-9225.88
-6585.45
6443.66
-9039.48
13683.7
-9973.5
13957.5
-8364.63
11682.4
-4519.62
1501.05
-2258.98
-9632.75
-1664.62
-14412.7
-1016.36
-17063.6
-397.586
-20102.7
74.2244
-23457.4
478.447
-23271.7
1268.46
-16514.8
3389.26
-1997.42
5491.78
7646.98
7048.11
8734.05
6986
3291.54
5563.83
-2502.98
-2343.48
-4442.49
-5985.61
-8271.51
-9031.72
-6931.76
-3827.94
-2433.03
-1673.28
-911.223
-245.959
280.409
707.187
1270.05
2607.21
4015.22
4983.85
5014.33
4514.07
245.422
-1554.69
446.933
-1941.41
580.94
-1629.63
680.871
-1384.08
801.002
-1319.03
944.774
-1398.27
973.14
-1237.52
959.23
-1080.3
946.624
-992.748
936.233
-936.404
911.254
-869.434
867.689
-799.095
799.807
-712.799
712.197
-629.544
596.395
-525.308
464.068
-445.881
320.407
-372.59
194.844
-375.247
98.3093
-534.087
-761.898
77.3362
-1632.02
50.8455
-1914.91
67.7969
-1646.58
82.4307
-1398.71
114.202
-1350.8
156.394
-1440.46
131.561
-1212.68
108.131
-1056.87
110.911
-995.526
124.26
-949.751
132.515
-877.687
135.156
-801.734
129.312
-706.953
121.974
-622.204
104.718
-508.05
80.4785
-421.64
58.6297
-350.74
51.216
-367.832
38.478
-521.347
-723.42
-4.75835
-1627.26
14.8692
-1934.54
76.515
-1708.22
102.894
-1425.08
123.006
-1370.91
133.267
-1450.72
128.971
-1208.38
149.181
-1077.08
165.978
-1012.32
171.847
-955.619
169.762
-875.599
166.83
-798.801
161.736
-701.857
160.867
-621.334
159.012
-506.192
147.128
-409.755
128.622
-332.234
106.201
-345.41
67.148
-482.292
-656.272
-4.50546
-1622.75
12.421
-1951.46
50.5529
-1746.35
57.0561
-1431.59
74.0538
-1387.91
84.607
-1461.27
83.4054
-1207.18
92.1026
-1085.78
95.2434
-1015.46
97.1462
-957.52
95.7753
-874.227
95.8794
-798.904
92.4285
-698.405
90.6372
-619.541
91.1486
-506.702
88.5863
-407.191
79.2041
-322.851
69.897
-336.102
48.1957
-460.589
-608.076
-10.2994
-1612.45
-6.77212
-1954.99
22.098
-1775.22
25.6937
-1435.18
39.9886
-1402.2
50.1193
-1471.4
53.0419
-1210.1
63.1133
-1095.85
68.1218
-1020.47
73.1012
-962.497
75.6577
-876.782
78.3786
-801.623
79.9249
-699.95
79.2962
-618.911
85.433
-512.838
96.3208
-418.078
102.928
-329.457
96.8597
-330.032
65.0405
-428.768
-543.036
2.74872
-1615.2
2.86737
-1955.1
30.5592
-1802.91
40.3619
-1444.98
55.7511
-1417.59
67.4465
-1483.1
70.2891
-1212.94
80.7955
-1106.35
87.9103
-1027.58
94.5426
-969.129
99.9718
-882.21
102.738
-804.388
106.079
-703.29
103.261
-616.091
104.06
-513.636
111.209
-425.227
117.489
-335.737
105.983
-318.526
66.7032
-389.488
-476.333
16.842
-1632.04
10.8547
-1949.12
34.3372
-1826.39
47.9659
-1458.61
63.1462
-1432.77
73.9126
-1493.86
80.0972
-1219.13
95.8182
-1122.07
109.301
-1041.06
119.819
-979.645
130.134
-892.524
135.555
-809.808
142.577
-710.311
142.919
-616.432
144.189
-514.906
147.602
-428.639
150.845
-338.98
130.679
-298.359
77.9627
-336.771
-398.37
39.1439
-1671.18
33.1542
-1943.13
54.973
-1848.2
79.4544
-1483.09
97.9991
-1451.31
107.325
-1503.19
119.58
-1231.38
141.187
-1143.68
162.156
-1062.03
176.675
-994.164
191.703
-907.552
200.571
-818.675
210.019
-719.759
212.56
-618.973
213.09
-515.435
207.475
-423.024
196.047
-327.552
160.316
-262.628
95.1012
-271.556
-303.269
52.6442
-1723.82
51.3295
-1941.81
67.27
-1864.14
104.824
-1520.64
126.776
-1473.26
130.305
-1506.71
155.407
-1256.48
185.166
-1173.43
216.044
-1092.91
236.657
-1014.77
258.807
-929.701
274.447
-834.313
289.543
-734.854
298.068
-627.497
303.015
-520.381
296.609
-416.617
276.575
-307.517
228.382
-214.435
142.185
-185.359
-161.083
52.0738
-1775.9
60.9524
-1950.69
64.3945
-1867.58
121.218
-1577.46
150.328
-1502.37
138.792
-1495.18
185.218
-1302.91
222.336
-1210.55
263.028
-1133.6
290.77
-1042.52
322.113
-961.044
347.851
-860.05
373.066
-760.069
393.374
-647.804
410.204
-537.211
414.111
-420.525
393.884
-287.29
340.731
-161.283
232.03
-76.6587
70.9471
45.8116
-1821.71
64.2369
-1969.11
43.7872
-1847.13
108.758
-1642.43
152.567
-1546.18
119.292
-1461.9
175.668
-1359.28
210.142
-1245.03
248.665
-1172.12
278.317
-1072.17
312.301
-995.028
343.696
-891.445
375.519
-791.894
404.233
-676.518
427.568
-560.546
431.873
-424.829
381.837
-237.255
250.16
-29.6065
73.9253
99.5739
144.872
40.0049
-1861.71
42.2123
-1971.32
24.3264
-1829.25
51.4994
-1669.6
85.4232
-1580.1
67.117
-1443.6
82.3321
-1374.5
94.997
-1257.69
104.951
-1182.08
115.564
-1082.78
123.648
-1003.11
132.968
-900.765
139.953
-798.88
143.322
-679.888
135.078
-552.304
108.929
-398.683
37.9753
-166.303
-108.175
116.542
-212.661
204.056
-67.7891
60.6619
-1922.37
41.2927
-1951.95
52.8669
-1840.82
56.1796
-1672.91
76.908
-1600.83
94.4061
-1461.09
94.6111
-1374.7
104.323
-1267.4
111.814
-1189.57
121.925
-1092.89
123.343
-1004.53
123.319
-900.741
112.201
-787.762
90.6313
-658.319
56.2042
-517.878
16.3279
-358.808
4.95317
-154.931
40.5053
80.9885
75.1898
169.369
7.4007
72.7943
-1995.17
41.0403
-1920.19
52.6075
-1852.39
61.72
-1682.03
80.8578
-1619.97
101.392
-1481.63
127.235
-1400.55
156.158
-1296.33
184.877
-1218.29
217.282
-1125.3
243.979
-1031.23
257.228
-913.992
238.125
-768.66
194.333
-614.527
157.561
-481.108
136.591
-337.838
161.914
-180.254
233.523
9.37814
239.044
163.845
246.445
18.1072
-2013.28
-34.5812
-1867.51
-55.6221
-1831.35
-81.3239
-1656.33
-101.882
-1599.41
-116.795
-1466.72
-126.321
-1391.03
-134.378
-1288.27
-146.128
-1206.55
-153.889
-1117.54
-161.357
-1023.77
-172.827
-902.526
-190.581
-750.909
-208.013
-597.099
-214.809
-474.312
-200.299
-352.35
-159.332
-221.221
-55.6746
-94.2807
-31.4051
139.574
215.04
-8.41862
-2004.86
-41.4668
-1834.46
-63.8864
-1808.93
-89.8473
-1630.37
-118.105
-1571.16
-144.653
-1440.18
-177.019
-1358.66
-208.685
-1256.61
-244.239
-1170.99
-280.38
-1081.4
-312.448
-991.699
-324.625
-890.353
-297.528
-778.006
-233.475
-661.156
-164.005
-543.783
-101.086
-415.274
-68.4571
-253.85
4.94252
-167.683
-19.359
163.873
195.681
-15.888
-1988.98
-50.6919
-1799.66
-70.7892
-1788.84
-81.1845
-1619.98
-91.6605
-1560.68
-87.9375
-1443.9
-83.7688
-1362.83
-71.2924
-1269.09
-56.3649
-1185.92
-35.3051
-1102.46
-4.70836
-1022.3
45.9379
-941.002
123.445
-855.518
220.659
-758.372
314.387
-637.515
365.156
-466.045
290.062
-178.765
39.2211
83.1486
17.2206
185.862
212.901
-138.301
-1850.68
-300.98
-1636.98
-427.74
-1662.08
-514.491
-1533.23
-590.599
-1484.58
-634.588
-1399.91
-663.915
-1333.51
-671.654
-1261.35
-663.651
-1193.93
-639.053
-1127.06
-599.415
-1061.94
-544.985
-995.432
-477.459
-923.046
-399.02
-836.812
-312.963
-723.572
-223.146
-555.864
-122.565
-279.35
-96.5666
57.146
-23.0762
112.367
189.825
-203.88
-1646.8
-450.959
-1389.9
-710.676
-1402.36
-927.317
-1316.59
-1134.58
-1277.31
-1308.17
-1226.32
-1458.24
-1183.44
-1579.72
-1139.87
-1675.78
-1097.87
-1746.85
-1055.99
-1794.59
-1014.2
-1818.55
-971.477
-1815.36
-926.238
-1777.07
-875.099
-1688.88
-811.76
-1516.96
-727.789
-1184.93
-611.382
-675.388
-452.393
-282.681
-280.341
-92.8559
-671.797
-1086.7
-1514.07
-1855.65
-2157.97
-2409.29
-2617.73
-2782.6
-2905.47
-2986.47
-3025.66
-3022.14
-2973.38
-2873.48
-2710.24
-2463.03
-2099.41
-1576.8
-882.144
-677.231
1652.23
-1096.4
1394.16
-1528.09
1406.69
-1873.29
1320.21
-2178.85
1280.56
-2432.93
1229.08
-2643.88
1185.95
-2811.31
1142.42
-2937.18
1100.87
-3021.91
1059.72
-3065.46
1018.55
-3066.46
976
-3022.45
930.991
-2929.92
882.465
-2782.04
827.127
-2561.36
754.312
-2225.24
638.881
-1698.47
448.234
-928.487
205.014
46.5129
-192.716
1844.94
-424.208
1625.65
-668.593
1651.07
-865.774
1517.39
-1052.12
1466.9
-1201.66
1378.62
-1325.43
1309.71
-1418.06
1235.05
-1483.05
1165.87
-1520.66
1097.33
-1532.36
1030.24
-1518.23
961.875
-1478.05
890.808
-1411.07
815.49
-1313.65
729.697
-1174.23
614.894
-970.469
435.122
-686.849
164.613
-360
-121.836
-313.488
-110.734
1955.68
-249.597
1764.52
-350.837
1752.31
-412.65
1579.2
-462.974
1517.22
-481.575
1397.22
-485.408
1313.54
-468.996
1218.64
-436.918
1133.79
-384.529
1044.94
-305.75
951.464
-193.992
850.115
-52.5986
749.412
104.447
658.443
262.271
571.871
403.462
473.701
495.805
342.778
474.347
186.069
283.519
68.9896
-29.9683
-23.1301
1978.81
-68.0634
1809.45
-97.6941
1781.94
-126.983
1608.49
-157.483
1547.72
-182.927
1422.67
-214.475
1345.09
-246.59
1250.76
-281.305
1168.5
-306.788
1070.43
-302.296
946.972
-243.867
791.685
-130.293
635.837
12.0686
516.079
157.282
426.654
302.049
328.933
423.295
221.529
452.931
156.431
335.375
186.542
305.407
-40.149
2018.96
-118.261
1887.56
-179.532
1843.21
-249.809
1678.76
-321.968
1619.88
-399.066
1499.77
-480.03
1426.05
-563.714
1334.44
-655.502
1260.29
-746.308
1161.23
-828.159
1028.82
-883.416
846.942
-909.02
661.439
-906.278
513.336
-851.483
371.856
-808.812
286.259
-764.198
176.912
-615.813
8.04302
-324.752
-104.525
-19.3458
29.2142
1989.75
-35.1644
1951.95
-58.41
1866.46
-82.8142
1703.18
-103.673
1640.74
-121.324
1517.42
-136.458
1441.19
-149.866
1347.86
-164.561
1274.99
-180.692
1177.37
-217.296
1065.43
-260.014
889.666
-326.768
728.189
-432.447
619.015
-611.332
550.733
-680.438
355.36
-737.402
233.868
-660.843
-68.5253
-482.736
-282.643
-502.081
68.6905
1921.06
7.14055
2013.5
-5.81116
1879.42
-17.7394
1715.11
-19.4407
1642.45
-3.36609
1501.36
22.7846
1415.05
45.0321
1325.63
54.1895
1265.84
54.2867
1177.29
30.3978
1089.33
-16.4801
936.55
-90.3929
802.102
-155.433
684.056
-284.745
680.036
-283.692
354.29
-157.025
107.17
-65.1955
-160.388
-178.508
-169.35
-680.589
112.157
1808.91
97.6474
2028.02
120.692
1856.38
152.253
1683.56
195.951
1598.76
246.341
1450.97
305.047
1356.35
376.243
1254.44
448.416
1193.67
518.086
1107.64
580.456
1026.96
607.649
909.366
616.192
793.556
625.881
674.37
665.557
640.356
552.698
467.148
473.484
186.379
257.254
55.8355
151.405
-63.5116
-529.184
104.491
1704.42
120.534
2011.98
150.126
1826.79
187.624
1646.06
234.035
1552.35
277.247
1407.76
320.402
1313.19
380.267
1194.58
449.418
1124.52
522.386
1034.67
595.988
953.36
654.908
850.448
707.983
740.481
780.677
601.677
837.162
583.87
794.726
509.584
646.694
334.409
486.444
216.083
373.361
49.5678
-155.823
66.9308
1637.49
90.3524
1988.56
114.451
1802.69
139.001
1621.51
164.931
1526.42
180.298
1392.4
192.735
1300.76
215.951
1171.36
253.391
1087.08
299.683
988.381
352.095
900.948
408.045
794.5
473.191
675.334
533.901
540.967
609.549
508.221
651.408
467.725
602.157
383.66
503.326
314.914
307.996
244.896
152.173
46.78
1590.71
60.5678
1974.78
75.5507
1787.71
84.3811
1612.69
91.4285
1519.37
84.1367
1399.69
72.769
1312.13
63.2628
1180.87
68.6525
1081.69
84.2761
972.759
109.888
875.337
142.521
761.868
176.92
640.935
192.873
525.015
250.105
450.988
311.442
406.389
319.809
375.293
275.888
358.835
164.815
355.968
316.988
59.5609
1531.15
65.213
1969.12
77.9548
1774.97
84.7552
1605.89
94.2126
1509.91
96.3766
1397.53
97.3268
1311.18
88.0832
1190.12
87.3367
1082.44
92.1561
967.94
105.471
862.022
117.259
750.08
116.499
641.694
103.317
538.198
124.12
430.185
155.53
374.979
168.219
362.603
144.767
382.286
80.6759
420.059
397.664
71.3726
1459.78
79.1516
1961.35
100.433
1753.69
114.044
1592.28
134.867
1489.09
162.333
1370.06
196.645
1276.86
219.709
1167.05
237.145
1065.01
246.839
958.248
251.967
856.894
243.735
758.313
223.85
661.58
205.229
556.819
196.06
439.355
189.43
381.61
181.754
370.279
147.939
416.101
80.6915
487.307
478.355
45.0133
1414.77
50.7459
1955.61
78.814
1725.62
90.6307
1580.46
108.253
1471.47
134.267
1344.05
172.539
1238.59
211.896
1127.7
240.902
1036
254.535
944.615
255.339
856.089
246.112
767.539
241.262
666.43
240.54
557.541
237.254
442.641
233.533
385.33
227.401
376.411
191.496
452.007
115.655
563.148
594.01
6.12783
1408.64
7.9199
1953.82
40.1555
1693.38
44.7711
1575.84
49.3372
1466.9
52.1915
1341.2
62.8541
1227.93
80.9067
1109.64
98.8997
1018.01
110.303
933.211
117.464
848.928
127.733
757.27
145.728
648.434
157.79
545.479
166.893
433.537
177.399
374.824
183.702
370.108
166.037
469.672
112.16
617.025
706.17
-23.259
1431.9
-26.98
1957.54
6.07147
1660.33
7.55419
1574.36
8.40399
1466.05
3.47118
1346.13
-1.23946
1232.64
-6.88826
1115.29
-4.0479
1015.17
4.29236
924.871
19.8277
833.393
40.6172
736.48
58.8087
630.243
68.3912
535.896
78.22
423.709
90.3952
362.648
102.596
357.908
102.149
470.119
75.4258
643.749
781.596
-18.3334
1450.23
-13.6904
1952.9
28.2676
1618.37
40.8918
1561.74
49.5396
1457.4
53.0655
1342.6
55.4496
1230.26
49.5234
1121.22
47.4781
1017.21
49.3354
923.013
55.6844
827.043
58.1977
733.966
52.2605
636.18
42.344
545.813
30.2593
435.793
21.1129
371.795
22.285
356.735
29.7185
462.686
20.842
652.625
802.438
-13.4438
1463.67
-1.49556
1940.95
55.3272
1561.55
85.1851
1531.88
108.509
1434.08
128.417
1322.69
148.378
1210.29
161.719
1107.88
171.351
1007.58
172.624
921.74
168.523
831.145
154.726
747.763
137.74
653.167
119.298
564.255
97.8398
457.251
75.0585
394.577
60.8549
370.939
48.3886
475.152
18.7887
682.225
821.226
71.6339
1392.04
59.6735
1952.91
53.614
1567.61
84.5529
1500.94
101.674
1416.96
103.021
1321.35
107.324
1205.99
109.18
1106.02
108.891
1007.87
104.328
926.304
93.9429
841.53
78.466
763.24
61.0496
670.584
42.8455
582.46
20.8237
479.273
4.91036
410.49
9.22122
366.627
27.9199
456.453
11.8163
698.328
833.042
228.459
452.697
567.192
706.468
822.543
903.8
936.476
942.477
926.703
895.6
846.05
780.827
695.774
594.324
471.286
343.466
224.861
142.886
74.703
)
;

boundaryField
{
    outletWall
    {
        type            calculated;
        value           nonuniform List<scalar> 
60
(
7685.03
1981.34
-5078.58
-11364.5
-18931.4
-22907.7
-15579.9
9028.05
21904.5
19745.6
14630.3
9553.98
-2145.44
-10655.6
-11598.3
-9059.78
-495.059
14283.6
12649.2
7918.03
4252.78
4520.21
5029.27
5587.67
6127.45
6550.57
6803.74
6832.51
6619.14
6199.76
5679.15
5148.21
4651.38
4202.52
3743.94
3218.95
2916.8
3017.77
3801.09
4532.62
9398.14
-1389.09
-2002.71
3261.05
7765.43
6238.96
-3334.58
-17077.6
-23698.4
-23983.8
-20767.9
-17825.7
-15172.5
-11027.7
-1602.77
9582.43
14717.7
15969.6
7986.79
-9036.18
)
;
    }
    fineWalls
    {
        type            calculated;
        value           uniform 0;
    }
    fineFrontAndBack
    {
        type            calculated;
        value           nonuniform List<scalar> 
960
(
-1.85288e-12
-7.90642e-12
-1.62691e-12
-1.57558e-12
-9.05859e-12
-2.14267e-12
-1.93313e-12
-1.98717e-12
-1.15978e-11
-1.2679e-12
1.75532e-14
8.45386e-12
3.08568e-12
3.60612e-12
1.65851e-11
3.24294e-12
3.43062e-12
1.41962e-11
2.32045e-12
1.85328e-12
4.14557e-13
7.58904e-14
-4.34081e-14
-1.57045e-13
-2.13167e-13
-3.13935e-13
-1.2441e-12
-4.16109e-13
-4.6963e-13
-5.22359e-13
-5.83068e-13
-6.4753e-13
-7.26349e-13
-8.13184e-13
-9.27902e-13
-1.07147e-12
-1.21198e-12
-1.50807e-12
-1.44831e-12
-1.14422e-12
-2.51321e-11
-3.47883e-12
-3.46168e-12
-3.68799e-12
-7.4676e-12
6.96307e-13
1.00154e-12
9.43489e-12
4.71118e-10
7.33072e-11
3.96844e-11
8.18324e-11
6.00856e-12
5.08221e-12
1.96378e-12
9.2259e-12
1.64975e-12
1.60748e-12
1.79125e-12
1.48542e-11
7.48283e-13
9.65688e-13
1.19077e-12
1.05776e-12
8.70411e-13
7.4368e-13
6.42411e-13
5.67434e-13
5.02636e-13
4.52467e-13
4.16489e-13
3.77146e-13
3.34616e-13
-4.05482e-12
1.49033e-13
5.0526e-16
-5.07309e-14
-1.74991e-13
-2.97466e-13
-6.56004e-13
-3.21927e-12
-3.4931e-12
-1.87684e-11
-2.81081e-12
-2.58856e-12
-1.31797e-11
-2.32011e-12
-2.22378e-12
-1.31666e-11
-2.19323e-12
-1.19555e-12
-1.62374e-12
1.35539e-12
8.68407e-14
-6.87748e-13
-1.40162e-11
-3.36981e-12
-3.37635e-12
-2.02103e-11
-5.36173e-12
-5.27799e-12
3.36975e-12
8.67063e-14
-2.10123e-12
8.0302e-12
5.65403e-12
1.01909e-12
2.66826e-12
1.39228e-11
9.4841e-12
2.80769e-12
2.1504e-13
-3.93768e-12
-2.60116e-12
-6.30593e-12
-1.3943e-11
-2.21611e-11
-2.82431e-11
-3.16634e-11
-7.95279e-12
4.3732e-12
-2.82548e-12
-1.17871e-11
6.98658e-12
5.02888e-12
1.63298e-12
8.1536e-12
1.78154e-11
5.07551e-12
-1.15369e-12
-3.39991e-12
-7.60016e-12
-3.77886e-12
-6.25834e-12
-1.33247e-11
-2.13668e-11
-2.74626e-11
-3.27991e-11
2.76347e-13
1.34429e-11
-6.57766e-12
-1.44443e-11
4.77662e-12
5.33044e-12
3.40767e-12
1.27565e-11
9.16245e-12
-7.08775e-12
-8.24073e-12
-9.31893e-12
-1.03999e-11
-5.63909e-12
-6.74472e-12
-1.24184e-11
-1.98947e-11
-2.58165e-11
-3.66036e-11
1.03617e-11
1.96906e-11
-1.38802e-11
-1.49979e-11
3.4674e-12
6.41835e-12
8.70831e-12
1.43565e-11
-9.1015e-12
-2.34274e-11
-1.84711e-11
-1.72382e-11
-1.37798e-11
-4.22856e-12
-6.51508e-12
-1.13076e-11
-1.85296e-11
-2.41466e-11
-3.21793e-11
2.30243e-11
1.69892e-11
-2.30312e-11
-1.26289e-11
6.97512e-12
1.14837e-11
1.60605e-11
8.14546e-12
-3.15648e-11
-3.75744e-11
-2.93709e-11
-2.43677e-11
-1.90775e-11
-7.62267e-12
-5.04252e-12
-1.02612e-11
-1.67685e-11
-2.24618e-11
-2.64975e-11
3.22877e-11
6.39433e-12
-3.35076e-11
-1.00952e-11
1.88115e-11
2.35248e-11
2.07229e-11
-8.73692e-12
-5.17334e-11
-4.56083e-11
-3.35708e-11
-2.70527e-11
-2.3221e-11
-1.39224e-11
-4.35818e-12
-1.10862e-11
-1.80948e-11
-2.16451e-11
-2.69405e-11
3.68778e-11
-2.54777e-12
-4.89269e-11
-1.91508e-11
2.38479e-11
3.00838e-11
1.26362e-11
-2.9876e-11
-5.41979e-11
-3.37209e-11
-2.41731e-11
-2.36156e-11
-2.37741e-11
-1.98723e-11
-9.30633e-12
-1.12981e-11
-1.83765e-11
-2.2977e-11
-3.29251e-11
4.09362e-11
-5.35036e-12
-6.87006e-11
-5.22182e-11
-1.51803e-12
1.02264e-11
-1.23588e-11
-4.31345e-11
-3.5542e-11
-1.11211e-11
-1.15204e-11
-1.83625e-11
-2.01018e-11
-2.09758e-11
-1.23987e-11
-1.38621e-11
-1.99786e-11
-1.26778e-11
3.17286e-12
4.61314e-11
-9.99817e-13
-8.27913e-11
-9.27134e-11
-5.17281e-11
-3.35316e-11
-4.24176e-11
-4.37281e-11
-1.00691e-11
4.35588e-12
-5.9112e-12
-1.46759e-11
-1.41916e-11
-2.02109e-11
-1.96596e-11
-1.60188e-11
-8.75835e-12
4.09612e-12
1.21137e-11
5.06243e-11
1.29446e-11
-7.1986e-11
-1.05697e-10
-8.48479e-11
-6.56397e-11
-5.42485e-11
-2.68355e-11
1.18071e-11
7.4756e-12
-3.08891e-12
-9.23132e-12
-8.64797e-12
-1.31433e-11
-2.23498e-11
-1.60633e-11
-7.52553e-12
8.44152e-12
4.16206e-11
5.16947e-11
3.12464e-11
-2.79559e-11
-7.5977e-11
-7.74861e-11
-6.2698e-11
-3.8795e-11
1.33636e-13
1.91667e-11
3.81815e-12
-3.49587e-12
-2.58125e-12
-6.51668e-12
-3.43717e-13
1.26092e-11
1.07954e-11
3.79166e-11
9.84496e-11
2.41503e-10
4.67941e-11
3.61997e-11
8.05537e-12
-3.5088e-11
-4.92822e-11
-3.79215e-11
-1.0898e-11
2.0317e-11
1.8575e-11
1.18448e-12
-7.84789e-12
-7.5708e-12
-8.40207e-12
-9.26998e-12
1.09415e-11
8.67756e-12
-9.49658e-12
-4.40701e-11
-4.62232e-11
4.14796e-11
3.15796e-11
1.74304e-11
-1.09299e-11
-2.58039e-11
-1.48334e-11
1.1304e-11
3.27498e-11
1.92627e-11
1.08726e-12
-1.0437e-11
-1.03627e-11
-1.07135e-11
-2.13003e-11
-1.63682e-11
-1.3544e-11
-2.84183e-11
-2.79162e-11
-2.59835e-11
3.76739e-11
2.97696e-11
1.7082e-11
-3.58463e-13
-1.17484e-11
-1.2997e-12
2.09652e-11
2.68327e-11
6.27754e-12
-5.27528e-12
-1.38101e-11
-1.32829e-11
-1.31117e-11
-2.63603e-11
-3.63134e-11
-2.84811e-11
-2.4906e-11
-9.78761e-12
-4.56812e-12
3.22815e-11
2.79261e-11
1.60625e-11
2.8653e-12
-4.37379e-12
5.08346e-12
1.42208e-11
-4.34307e-12
-1.5413e-11
-1.54216e-11
-1.72191e-11
-1.42211e-11
-1.39475e-11
-2.26357e-11
-4.0764e-11
-3.81095e-11
-2.4945e-11
-1.87991e-11
-1.81069e-11
2.59156e-11
2.22376e-11
1.50082e-11
3.68782e-12
-4.47659e-13
4.54045e-12
-2.90637e-12
-2.61277e-11
-2.45087e-11
-2.13388e-11
-1.90352e-11
-1.39205e-11
-1.25931e-11
-1.62e-11
-3.02284e-11
-3.72441e-11
-3.07928e-11
-1.59597e-11
-1.08419e-11
2.21363e-11
1.52555e-11
1.19756e-11
5.95487e-12
2.00086e-12
4.46677e-13
-1.37697e-11
-2.14405e-11
-1.89367e-11
-2.01012e-11
-1.82837e-11
-1.32471e-11
-1.18371e-11
-1.14705e-11
-1.66939e-11
-2.37158e-11
-2.1739e-11
-1.10876e-11
-6.97404e-12
2.2175e-11
8.05269e-12
8.05626e-12
9.45355e-12
4.19609e-12
-2.79201e-12
-1.27561e-11
-1.18497e-11
-1.29878e-11
-1.76244e-11
-1.6938e-11
-1.26422e-11
-1.14406e-11
-1.08503e-11
-1.10107e-11
-1.27706e-11
-1.09378e-11
-8.18725e-12
-3.29966e-12
2.52023e-11
6.11536e-12
4.77322e-12
1.42699e-11
7.94495e-12
-3.90782e-12
-9.20172e-12
-8.68098e-12
-1.17487e-11
-1.64887e-11
-1.64681e-11
-1.20603e-11
-1.09696e-11
-1.06578e-11
-1.02975e-11
-9.41009e-12
-7.81747e-12
-7.70493e-12
-4.81159e-12
2.78655e-11
5.09883e-12
-3.10558e-13
1.25312e-11
9.69603e-12
-3.63775e-12
-6.43038e-12
-7.50885e-12
-1.08803e-11
-1.60076e-11
-1.60308e-11
-1.18244e-11
-1.05897e-11
-1.05942e-11
-1.03187e-11
-9.24132e-12
-8.09489e-12
-7.9376e-12
-5.2718e-12
1.85288e-12
7.90642e-12
1.62691e-12
1.57558e-12
9.05859e-12
2.14267e-12
1.93313e-12
1.98717e-12
1.15978e-11
1.2679e-12
-1.75532e-14
-8.45386e-12
-3.08568e-12
-3.60612e-12
-1.65851e-11
-3.24294e-12
-3.43062e-12
-1.41962e-11
-2.32045e-12
-1.85328e-12
-4.14557e-13
-7.58904e-14
4.34081e-14
1.57045e-13
2.13167e-13
3.13935e-13
1.2441e-12
4.16109e-13
4.6963e-13
5.22359e-13
5.83068e-13
6.4753e-13
7.26349e-13
8.13184e-13
9.27902e-13
1.07147e-12
1.21198e-12
1.50807e-12
1.44831e-12
1.14422e-12
2.51321e-11
3.47883e-12
3.46168e-12
3.68799e-12
7.4676e-12
-6.96307e-13
-1.00154e-12
-9.43489e-12
-4.71118e-10
-7.33072e-11
-3.96844e-11
-8.18324e-11
-6.00856e-12
-5.08221e-12
-1.96378e-12
-9.2259e-12
-1.64975e-12
-1.60748e-12
-1.79125e-12
-1.48542e-11
-7.48283e-13
-9.65688e-13
-1.19077e-12
-1.05776e-12
-8.70411e-13
-7.4368e-13
-6.42411e-13
-5.67434e-13
-5.02636e-13
-4.52467e-13
-4.16489e-13
-3.77146e-13
-3.34616e-13
4.05482e-12
-1.49033e-13
-5.0526e-16
5.07309e-14
1.74991e-13
2.97466e-13
6.56004e-13
3.21927e-12
3.4931e-12
1.87684e-11
2.81081e-12
2.58856e-12
1.31797e-11
2.32011e-12
2.22378e-12
1.31666e-11
2.19323e-12
1.19555e-12
1.62374e-12
-1.35539e-12
-8.68407e-14
6.87748e-13
1.40162e-11
3.36981e-12
3.37635e-12
2.02103e-11
5.36173e-12
5.27799e-12
-3.36975e-12
-8.67063e-14
2.10123e-12
-8.0302e-12
-5.65403e-12
-1.01909e-12
-2.66826e-12
-1.39228e-11
-9.4841e-12
-2.80769e-12
-2.1504e-13
3.93768e-12
2.60116e-12
6.30593e-12
1.3943e-11
2.21611e-11
2.82431e-11
3.16634e-11
7.95279e-12
-4.3732e-12
2.82548e-12
1.17871e-11
-6.98658e-12
-5.02888e-12
-1.63298e-12
-8.1536e-12
-1.78154e-11
-5.07551e-12
1.15369e-12
3.39991e-12
7.60016e-12
3.77886e-12
6.25834e-12
1.33247e-11
2.13668e-11
2.74626e-11
3.27991e-11
-2.76347e-13
-1.34429e-11
6.57766e-12
1.44443e-11
-4.77662e-12
-5.33044e-12
-3.40767e-12
-1.27565e-11
-9.16245e-12
7.08775e-12
8.24073e-12
9.31893e-12
1.03999e-11
5.63909e-12
6.74472e-12
1.24184e-11
1.98947e-11
2.58165e-11
3.66036e-11
-1.03617e-11
-1.96906e-11
1.38802e-11
1.49979e-11
-3.4674e-12
-6.41835e-12
-8.70831e-12
-1.43565e-11
9.1015e-12
2.34274e-11
1.84711e-11
1.72382e-11
1.37798e-11
4.22856e-12
6.51508e-12
1.13076e-11
1.85296e-11
2.41466e-11
3.21793e-11
-2.30243e-11
-1.69892e-11
2.30312e-11
1.26289e-11
-6.97512e-12
-1.14837e-11
-1.60605e-11
-8.14546e-12
3.15648e-11
3.75744e-11
2.93709e-11
2.43677e-11
1.90775e-11
7.62267e-12
5.04252e-12
1.02612e-11
1.67685e-11
2.24618e-11
2.64975e-11
-3.22877e-11
-6.39433e-12
3.35076e-11
1.00952e-11
-1.88115e-11
-2.35248e-11
-2.07229e-11
8.73692e-12
5.17334e-11
4.56083e-11
3.35708e-11
2.70527e-11