/*--------------------------------*- C++ -*----------------------------------*\
| =========                 |                                                 |
| \\      /  F ield         | OpenFOAM: The Open Source CFD Toolbox           |
|  \\    /   O peration     | Version:  4.1                                   |
|   \\  /    A nd           | Web:      www.OpenFOAM.org                      |
|    \\/     M anipulation  |                                                 |
\*---------------------------------------------------------------------------*/
FoamFile
{
    version     2.0;
    format      ascii;
    class       volVectorField;
    location    "26";
    object      U;
}
// * * * * * * * * * * * * * * * * * * * * * * * * * * * * * * * * * * * * * //

dimensions      [0 1 -1 0 0 0 0];

internalField   nonuniform List<vector> 
1280
(
(-1.33903e-15 -3.10061 -2.36388)
(-1.34377e-15 -2.12903 -2.39409)
(-1.17572e-15 -2.25107 -1.66283)
(-1.13863e-15 -1.7965 -1.90715)
(-1.5396e-15 -1.42955 -2.63561)
(-1.54845e-15 -0.889018 -1.62547)
(-1.39702e-15 -0.670657 -1.86879)
(-1.39805e-15 -0.408753 -1.96595)
(-2.20425e-15 0.40658 -2.76748)
(-9.16281e-16 0.609565 -1.70471)
(-2.43536e-17 0.858754 -1.65452)
(1.60622e-15 1.79518 -2.78294)
(2.24928e-15 1.91976 -2.09074)
(2.60785e-15 2.2243 -1.90972)
(2.82958e-15 3.33832 -2.74976)
(2.34359e-15 2.99716 -2.08031)
(2.47922e-15 3.63752 -1.90888)
(2.41278e-15 3.3863 -3.23092)
(1.66674e-15 4.96264 -1.27388)
(1.33931e-15 2.71146 -5.53741)
(1.70075e-15 4.65261 2.58811)
(3.11345e-16 4.74853 7.29257)
(-1.78085e-16 4.71625 8.56625)
(-6.44289e-16 5.19861 8.97486)
(-8.74533e-16 5.18498 9.17663)
(-1.28794e-15 5.59238 10.35)
(-2.6226e-16 4.61186 7.63703)
(-1.70712e-15 8.4986 12.851)
(-1.92669e-15 8.71431 12.957)
(-2.14301e-15 8.7204 13.0709)
(-2.39207e-15 8.77202 13.145)
(-2.65653e-15 8.75732 13.186)
(-2.97989e-15 8.77625 13.1413)
(-3.33614e-15 8.68854 13.0726)
(-3.80678e-15 8.69667 12.9164)
(-4.39576e-15 8.52554 12.8097)
(-4.97221e-15 8.5535 12.688)
(-6.18697e-15 8.27903 12.647)
(-5.94178e-15 8.29912 12.9799)
(-4.69424e-15 8.13993 14.1543)
(-4.37461e-15 8.95723 14.567)
(-2.79424e-15 5.70443 9.53853)
(-2.78047e-15 4.60202 9.30576)
(-2.94455e-15 3.53953 9.26406)
(-9.34173e-16 1.62719 8.61347)
(5.59283e-16 0.736829 4.23255)
(8.04451e-16 -0.0848739 1.53706)
(7.57822e-15 0.422101 -0.508794)
(8.26103e-14 0.233278 -4.6881)
(5.89686e-14 -0.399142 -3.84609)
(3.19915e-14 0.599999 -3.39924)
(1.42441e-14 0.229755 -4.72326)
(4.82615e-15 -0.197308 0.892348)
(4.08209e-15 0.309914 2.89188)
(1.57734e-15 -0.825333 5.12464)
(1.6059e-15 -1.28261 8.79548)
(1.34327e-15 -3.41193 9.57702)
(1.29115e-15 -4.40964 9.64003)
(1.43875e-15 -5.65761 9.85551)
(2.4786e-15 -9.27136 14.7758)
(3.06988e-15 -7.65257 14.4338)
(3.9618e-15 -7.92697 13.5903)
(4.88519e-15 -7.77112 12.7515)
(4.33953e-15 -8.12494 12.7443)
(3.57092e-15 -8.07751 12.9491)
(3.051e-15 -8.29487 13.1441)
(2.63553e-15 -8.2892 13.403)
(2.32794e-15 -8.41715 13.5813)
(2.0621e-15 -8.41121 13.7431)
(1.85627e-15 -8.46867 13.8124)
(1.70867e-15 -8.43004 13.8603)
(1.54727e-15 -8.43332 13.8312)
(1.37279e-15 -8.29639 13.7166)
(-8.5477e-16 -4.01247 8.30101)
(6.11418e-16 -4.56761 11.0337)
(2.07286e-18 -4.27308 10.2336)
(-2.08127e-16 -4.23273 9.53374)
(-7.17911e-16 -3.79265 8.47272)
(-1.22037e-15 -4.00831 7.15001)
(-2.6913e-15 -3.79742 1.34868)
(-2.32648e-15 -2.30551 -5.84251)
(-2.53041e-15 -3.97201 -2.25866)
(-3.18986e-15 -1.97835 -4.16323)
(-2.0313e-15 -2.34417 -1.7513)
(-1.87068e-15 -1.73349 -2.0901)
(-2.07366e-15 -1.65025 -2.57042)
(-1.67668e-15 -1.14774 -1.44004)
(-1.60707e-15 -0.877647 -1.65239)
(-1.96711e-15 -0.481158 -2.18883)
(-1.72906e-15 -0.229241 -1.13768)
(-8.63992e-16 -0.0212115 -1.31557)
(3.58147e-16 0.421391 -1.99969)
(1.05676e-15 0.559563 -1.41797)
(6.27575e-17 0.839819 -1.37365)
(-4.97018e-16 0.927342 -1.15186)
(-2.38219e-15 1.5205 -1.8208)
(-2.43528e-15 1.51906 -1.39124)
(-2.42714e-15 1.81693 -1.21744)
(-3.4743e-15 2.01948 -1.82395)
(-3.87478e-15 2.51599 -1.81716)
(-5.86443e-16 2.69138 3.77619)
(3.74417e-16 4.28607 1.41313)
(9.63403e-18 4.7643 0.984492)
(-2.3347e-16 -0.251933 1.57726)
(8.92245e-16 -3.02178 2.15757)
(6.28226e-16 -3.87901 2.48084)
(1.13232e-16 -3.57935 2.49948)
(2.96473e-16 -0.796223 1.98074)
(1.54698e-15 3.20417 1.66904)
(1.05379e-15 4.86003 2.43343)
(3.11966e-16 6.5848 2.9158)
(2.38933e-17 7.33796 2.80998)
(-4.3752e-16 3.0867 1.70647)
(-2.89018e-16 -4.92685 -1.87749)
(-7.00659e-16 -7.54691 -3.28397)
(-1.54922e-15 -6.30245 -3.42338)
(-2.46234e-15 -3.80534 -3.23342)
(-3.13812e-15 -1.70508 -2.88175)
(-3.51815e-15 0.634807 -2.88089)
(-8.83644e-16 3.46964 3.14483)
(4.85911e-16 5.15137 0.590004)
(-3.13942e-16 4.67881 1.17567)
(-1.30967e-15 -0.488152 2.14661)
(7.76287e-16 -3.37368 2.42076)
(5.58765e-16 -3.97645 2.80451)
(1.81442e-16 -3.35906 2.80297)
(9.05955e-16 -0.289633 2.20647)
(1.97949e-15 2.90505 2.94295)
(5.63945e-16 4.42717 4.31047)
(-1.28188e-16 6.42009 5.2616)
(-3.77767e-16 7.69543 5.51959)
(-8.44462e-16 4.75964 3.88787)
(-4.19874e-16 -3.72467 -1.37397)
(-6.95371e-16 -7.18506 -2.88183)
(-1.48053e-15 -6.32305 -3.14867)
(-2.37409e-15 -3.95635 -3.12674)
(-3.0514e-15 -1.82793 -2.89216)
(-3.64435e-15 0.220025 -2.53186)
(3.07052e-17 3.83772 2.47926)
(1.49366e-15 5.21691 0.499423)
(-7.30851e-16 4.12306 1.94358)
(-1.60492e-15 -0.69471 3.13619)
(5.30736e-16 -3.42781 3.03529)
(5.92271e-16 -4.03013 3.21365)
(3.7863e-16 -3.32273 3.25861)
(1.41739e-15 -0.56841 2.99808)
(1.01805e-15 2.35031 4.46176)
(-7.87528e-16 3.92611 5.87744)
(-9.15637e-16 6.10855 7.10549)
(-1.03544e-15 7.95743 7.28946)
(-1.15555e-15 6.08721 5.46956)
(-6.26566e-16 -2.16017 0.112295)
(-7.49413e-16 -6.6951 -2.1549)
(-1.37982e-15 -6.20057 -2.58077)
(-2.21052e-15 -3.95937 -2.86738)
(-2.8685e-15 -1.92048 -2.85842)
(-4.06706e-15 0.178975 -2.46517)
(1.1513e-15 4.26541 2.37957)
(2.18785e-15 5.29157 0.987547)
(-1.54224e-15 3.55449 2.77625)
(-1.66643e-15 -0.865909 4.08833)
(3.85267e-16 -3.40626 3.84624)
(7.1315e-16 -4.04022 3.71719)
(9.6759e-16 -3.33494 3.8254)
(1.59516e-15 -0.894757 4.09476)
(-1.01128e-15 1.7298 5.96934)
(-2.60304e-15 3.36523 7.41752)
(-2.05235e-15 5.84407 8.4926)
(-1.91535e-15 8.38543 8.36558)
(-1.53109e-15 7.51463 6.96951)
(-4.69839e-16 -0.757201 2.15291)
(-7.23898e-16 -6.0603 -1.24593)
(-1.25639e-15 -5.97223 -1.65877)
(-2.05884e-15 -3.84405 -2.35219)
(-2.68295e-15 -2.02677 -2.65354)
(-3.57548e-15 -0.25553 -2.57372)
(2.55826e-15 4.48586 2.62173)
(1.88769e-15 5.07422 1.83005)
(-2.55902e-15 2.86383 3.76935)
(-1.40321e-15 -1.03893 5.05857)
(7.75013e-16 -3.31834 4.66513)
(1.27597e-15 -4.00896 4.32086)
(1.7845e-15 -3.45579 4.47835)
(9.05052e-16 -1.41178 5.24536)
(-3.5072e-15 1.02196 7.30903)
(-4.17493e-15 2.90809 8.34018)
(-3.26344e-15 5.7272 8.44243)
(-2.70752e-15 8.65464 8.07423)
(-2.11972e-15 8.51827 7.86297)
(-8.46964e-16 1.06007 4.41354)
(-5.6028e-16 -5.27836 -0.201884)
(-1.14013e-15 -5.66873 -0.353757)
(-1.86316e-15 -3.54982 -1.6204)
(-2.49576e-15 -1.76458 -2.39936)
(-2.94417e-15 0.046138 -2.7606)
(3.58752e-15 4.65416 3.0525)
(7.10481e-16 4.78858 2.66641)
(-3.72307e-15 2.21192 4.77891)
(-1.12169e-15 -1.17042 5.89807)
(2.09016e-15 -3.15731 5.39833)
(2.61386e-15 -3.956 4.97918)
(2.30254e-15 -3.68436 5.21142)
(-9.70769e-16 -2.03545 6.326)
(-5.74815e-15 0.50854 8.07298)
(-5.06759e-15 2.89003 7.91466)
(-3.73009e-15 5.91798 6.80894)
(-3.00586e-15 8.65787 6.68827)
(-2.58011e-15 8.91878 7.82112)
(-1.54693e-15 2.6549 6.24053)
(-4.84242e-16 -4.30055 1.36448)
(-1.2318e-15 -5.29011 1.11574)
(-2.01054e-15 -3.04379 -0.666117)
(-2.40502e-15 -1.77683 -1.66734)
(-2.99338e-15 -0.36007 -4.40288)
(4.09754e-15 4.73952 3.43373)
(-2.83085e-16 4.34975 3.43892)
(-5.43633e-15 1.54656 5.72038)
(-2.12787e-15 -1.2516 6.55482)
(2.64976e-15 -2.97649 6.04893)
(3.34264e-15 -3.92499 5.70388)
(1.40402e-15 -3.98316 6.07723)
(-3.31956e-15 -2.57463 7.24946)
(-6.02199e-15 0.425601 7.84754)
(-3.74677e-15 3.39277 6.24641)
(-2.6859e-15 6.18131 5.00707)
(-2.62396e-15 8.26645 5.36104)
(-2.64157e-15 8.66801 7.15119)
(-2.20803e-15 3.6334 7.49315)
(-1.03404e-15 -3.32943 3.45587)
(-1.25534e-15 -4.75227 2.57916)
(-2.04183e-15 -2.35923 0.395776)
(-2.553e-15 0.166306 -1.87384)
(-3.65834e-15 1.63851 -3.79666)
(4.54847e-15 4.7481 3.81238)
(-5.94485e-16 3.81689 4.21349)
(-7.6334e-15 0.94967 6.43806)
(-5.80202e-15 -1.28351 7.02011)
(-1.6867e-16 -2.83556 6.67726)
(1.13626e-15 -3.96538 6.56471)
(-1.37321e-15 -4.29607 7.12074)
(-4.79272e-15 -2.78067 7.93435)
(-3.94911e-15 0.89863 7.07737)
(-1.23567e-15 4.00459 5.30744)
(-1.28005e-15 6.27203 4.86709)
(-2.04028e-15 7.83089 4.86813)
(-2.23354e-15 8.0898 6.39765)
(-2.33064e-15 4.1617 8.13887)
(-1.37764e-15 -2.54928 4.7125)
(-1.54023e-15 -3.94973 2.68252)
(-2.21984e-15 -1.32019 0.516112)
(-1.40864e-15 -0.921432 2.81282)
(3.5254e-16 -5.54553 9.19245)
(5.12571e-15 4.67524 4.23518)
(-1.11091e-16 3.24297 4.92134)
(-9.19903e-15 0.433658 6.88866)
(-1.03015e-14 -1.33674 7.37333)
(-5.74757e-15 -2.80602 7.35443)
(-3.72573e-15 -4.10679 7.58511)
(-4.71307e-15 -4.52896 8.22651)
(-4.85868e-15 -2.5798 8.31527)
(-1.11879e-15 1.48866 6.63428)
(4.83987e-16 4.29581 5.75698)
(-6.568e-16 6.36689 5.4545)
(-1.63066e-15 7.65683 4.77738)
(-1.57684e-15 7.39788 5.83887)
(-2.24565e-15 4.47157 8.59394)
(-2.1844e-15 -1.00405 6.09044)
(-1.77987e-15 -3.1817 3.80819)
(-9.7315e-16 -2.39316 6.69062)
(4.55125e-16 -2.72152 11.109)
(1.34597e-15 -3.83202 12.3302)
(5.62493e-15 4.55753 4.68701)
(1.43829e-15 2.6969 5.52973)
(-7.99845e-15 -0.00921711 7.17417)
(-1.17441e-14 -1.47219 7.72658)
(-9.42755e-15 -2.92594 8.11596)
(-7.2933e-15 -4.31688 8.66185)
(-6.00281e-15 -4.58815 9.155)
(-2.98173e-15 -2.1126 8.40753)
(1.31189e-15 1.90286 6.61412)
(8.30622e-16 4.48647 6.22517)
(-3.43212e-16 6.64233 5.5161)
(-1.21823e-15 7.64735 4.68107)
(-9.60885e-16 6.57631 5.48412)
(-1.46037e-15 3.79323 9.21653)
(-2.51407e-15 -0.899545 10.0433)
(-1.78481e-15 -3.84201 9.11335)
(-8.3617e-16 -4.12 11.8556)
(9.37947e-16 -3.46967 11.8204)
(4.62451e-15 -3.18597 6.89184)
(5.74386e-15 4.41062 5.12829)
(3.47182e-15 2.19313 6.07419)
(-3.10621e-15 -0.408254 7.42751)
(-8.44189e-15 -1.7244 8.12278)
(-8.60957e-15 -3.18028 8.87349)
(-6.96644e-15 -4.52449 9.56984)
(-4.35991e-15 -4.4402 9.71525)
(1.48485e-17 -1.4955 8.28573)
(2.12963e-15 2.30806 6.58358)
(4.24239e-16 4.76016 6.0926)
(-3.8843e-16 6.98239 5.13444)
(-2.86806e-16 7.6646 4.49639)
(-7.24075e-16 5.71828 5.01519)
(-3.81908e-17 2.65478 8.88654)
(1.40103e-15 -1.11416 11.4171)
(1.19948e-15 -3.96012 11.6057)
(4.21295e-15 -3.67843 12.3135)
(1.09388e-14 -0.709355 10.3366)
(2.68337e-14 2.32211 6.34419)
(5.19935e-15 4.23766 5.48098)
(4.02219e-15 1.72103 6.5216)
(8.95041e-16 -0.790247 7.68023)
(-3.89867e-15 -2.06675 8.47711)
(-5.4758e-15 -3.49834 9.44329)
(-4.2135e-15 -4.65444 10.113)
(-1.21089e-15 -4.09374 9.84503)
(2.25744e-15 -0.785115 7.90901)
(2.06388e-15 2.74963 6.15836)
(1.31609e-16 5.08972 5.39205)
(-8.71988e-16 7.27414 4.3935)
(-8.412e-16 7.66139 4.10854)
(-9.33563e-16 4.88803 4.38273)
(-1.03e-15 1.21168 8.15308)
(1.21573e-15 -1.82376 11.5147)
(9.64173e-16 -4.20942 12.5018)
(-1.05518e-15 -3.90802 14.1171)
(-4.89668e-15 -0.639744 14.4842)
(-5.13591e-15 3.20525 12.6158)
(4.60885e-15 4.04419 5.6566)
(3.50884e-15 1.26521 6.75989)
(1.93672e-15 -1.15553 7.84035)
(-1.21443e-15 -2.44964 8.68326)
(-2.8671e-15 -3.82696 9.73339)
(-1.64815e-15 -4.68909 10.2858)
(1.256e-15 -3.57794 9.62302)
(3.63886e-15 0.0318945 7.23198)
(2.1403e-15 3.27243 5.31613)
(1.20806e-16 5.46902 4.29263)
(-1.15967e-15 7.48458 3.35619)
(-1.15141e-15 7.60986 3.48241)
(-1.19038e-15 4.14302 3.48487)
(-2.3667e-15 -0.283808 6.59402)
(-1.81868e-15 -2.83165 10.1517)
(-1.50488e-15 -4.87979 11.3535)
(-3.15759e-15 -4.18866 12.2683)
(-3.1018e-15 0.431603 11.021)
(-2.88706e-15 5.77034 10.6847)
(4.18599e-15 3.84471 5.62607)
(3.30774e-15 0.806749 6.73546)
(1.89801e-15 -1.54197 7.82641)
(-3.98292e-17 -2.84693 8.66897)
(-1.30538e-15 -4.12943 9.74162)
(-1.44411e-16 -4.62138 10.1717)
(2.32947e-15 -2.88926 9.10351)
(2.98141e-15 0.966262 6.16975)
(6.97504e-16 3.90665 4.04362)
(-5.86143e-16 5.86608 2.94166)
(-1.53445e-15 7.59709 2.29109)
(-1.47588e-15 7.5377 2.70735)
(-1.45685e-15 3.74701 2.43648)
(-2.92892e-15 -1.52254 4.09499)
(-4.03482e-15 -3.68043 7.12979)
(-3.16457e-15 -5.02325 8.19033)
(-2.76734e-15 -3.98092 7.32869)
(-1.08751e-15 -0.629163 2.57777)
(-5.07569e-16 1.26547 -0.411061)
(3.58683e-15 3.65452 5.40611)
(3.10291e-15 0.367466 6.47735)
(1.78473e-15 -1.8978 7.69291)
(3.18367e-16 -3.22614 8.49032)
(-4.85977e-16 -4.41391 9.51738)
(5.64829e-16 -4.45165 9.79718)
(1.58009e-15 -1.97116 8.11412)
(-4.82564e-16 2.02911 4.46739)
(-1.71255e-15 4.57474 2.46783)
(-1.71351e-15 6.1598 1.63906)
(-1.91324e-15 7.58271 1.50239)
(-1.58012e-15 7.45814 1.89462)
(-1.54972e-15 3.86686 1.55435)
(-2.51508e-15 -2.28847 1.04131)
(-4.52933e-15 -4.43734 3.02263)
(-4.23439e-15 -4.89461 4.04778)
(-2.77167e-15 -2.2804 2.84472)
(-2.08879e-15 2.57927 -1.34653)
(-2.01188e-15 3.32616 -2.37529)
(2.87951e-15 3.476 5.04569)
(2.47085e-15 -0.142099 6.05173)
(1.66758e-15 -2.34613 7.50827)
(4.09758e-16 -3.59284 8.27543)
(-4.97399e-17 -4.62286 9.13858)
(5.04494e-16 -4.07747 9.13562)
(-3.2293e-16 -0.724215 6.50351)
(-2.90308e-15 3.15448 2.57937)
(-2.72319e-15 5.06856 1.34115)
(-2.37098e-15 6.24417 0.90193)
(-2.11502e-15 7.49955 1.04127)
(-1.54673e-15 7.42388 1.14366)
(-1.39923e-15 4.29819 0.876672)
(-1.8e-15 -2.13434 -1.01879)
(-3.35871e-15 -4.81605 -1.17581)
(-4.13824e-15 -4.87448 -0.981603)
(-3.42142e-15 -1.57289 -2.36109)
(-1.7733e-15 2.10217 -4.51574)
(-1.20465e-15 2.7697 -3.57222)
(2.45959e-15 3.32999 4.59124)
(1.69505e-15 -0.611632 5.48425)
(1.33062e-15 -2.75106 7.28298)
(6.61652e-16 -3.88001 8.22085)
(2.22318e-16 -4.75028 8.78705)
(4.96307e-17 -3.45611 8.16646)
(-1.52996e-15 0.756175 4.47629)
(-2.38228e-15 4.04006 1.48156)
(-2.10408e-15 5.28717 1.10435)
(-2.23347e-15 6.2681 0.758135)
(-2.03153e-15 7.494 0.689094)
(-1.4719e-15 7.47051 0.529914)
(-1.31524e-15 4.74101 0.265206)
(-1.2745e-15 -1.36425 -1.66891)
(-1.85488e-15 -4.44348 -3.53832)
(-2.63509e-15 -4.46619 -4.82211)
(-2.41545e-15 -1.31516 -6.30798)
(-1.23195e-15 2.30405 -6.30088)
(-7.74894e-16 2.59855 -4.34289)
(2.46389e-15 3.19126 4.12629)
(8.94744e-16 -1.29871 4.92047)
(8.9514e-16 -3.47828 6.98933)
(1.05039e-15 -4.22571 8.17201)
(4.66232e-16 -4.55317 8.44182)
(-3.10223e-16 -2.37862 6.99342)
(-1.41734e-15 1.97336 2.82555)
(-1.31663e-15 4.48623 1.35854)
(-1.44309e-15 5.37218 1.20372)
(-1.95827e-15 6.38561 0.686894)
(-1.882e-15 7.58323 0.366157)
(-1.40469e-15 7.55776 0.068374)
(-1.27117e-15 5.09265 -0.227511)
(-1.20559e-15 -0.423206 -1.77734)
(-1.22341e-15 -3.6271 -4.06716)
(-1.41896e-15 -3.72653 -5.95288)
(-1.21532e-15 -1.06388 -7.21405)
(-9.09695e-16 1.5452 -6.35924)
(-3.66629e-16 1.56903 -4.27222)
(2.80026e-15 3.07771 3.69597)
(6.79485e-16 -1.68882 4.25499)
(5.30358e-16 -3.95627 6.69369)
(1.58554e-15 -4.43656 8.38948)
(8.82773e-16 -4.36724 8.23387)
(-4.34202e-16 -1.32719 5.63174)
(-1.02241e-15 2.93995 2.0513)
(-9.64553e-16 4.7219 1.6192)
(-1.30541e-15 5.56669 1.16727)
(-1.83207e-15 6.5926 0.536435)
(-1.82979e-15 7.72178 0.12327)
(-1.34003e-15 7.65777 -0.254963)
(-1.21885e-15 5.33199 -0.572792)
(-1.1842e-15 0.235222 -1.67976)
(-1.14417e-15 -2.88887 -3.772)
(-1.04557e-15 -3.1713 -5.39411)
(-8.68608e-16 -1.13683 -6.29889)
(-8.56104e-16 1.0044 -5.35605)
(-5.34621e-16 1.08739 -3.99098)
(3.09616e-15 3.05287 3.50768)
(5.66537e-16 -2.64484 3.95623)
(-3.45064e-17 -5.25862 5.97851)
(1.39235e-15 -4.89348 7.82422)
(1.07734e-15 -3.28929 7.25803)
(-4.04194e-16 0.497286 4.17543)
(-7.14486e-16 3.56535 2.32032)
(-8.34317e-16 4.98464 1.70316)
(-1.20892e-15 5.88344 1.08817)
(-1.77862e-15 6.87641 0.434562)
(-1.7812e-15 7.96741 -0.0253754)
(-1.31383e-15 7.89376 -0.445514)
(-1.17663e-15 5.70873 -0.741964)
(-1.17713e-15 1.15201 -1.41201)
(-1.14652e-15 -2.14976 -2.85434)
(-1.02681e-15 -2.60492 -3.86463)
(-8.99432e-16 -1.03457 -4.43152)
(-8.81956e-16 0.70714 -3.92207)
(-5.85756e-16 0.48488 -3.64103)
(4.63082e-18 14.2392 24.0483)
(-4.09868e-15 18.6593 31.3318)
(-4.00336e-15 16.466 26.3697)
(-4.43659e-15 14.0264 22.2218)
(-4.53697e-15 13.373 20.5697)
(-5.04278e-15 14.0984 21.3892)
(-4.67894e-15 13.476 19.8189)
(-4.69147e-15 12.1295 17.7096)
(-5.0025e-15 11.1627 15.9701)
(-5.25406e-15 10.4159 14.8111)
(-5.61697e-15 9.85837 13.7812)
(-6.06695e-15 9.12663 12.7731)
(-6.7502e-15 8.43868 11.5896)
(-7.60686e-15 7.44168 10.3837)
(-9.02445e-15 6.61536 8.95477)
(-1.08065e-14 5.39099 7.76843)
(-1.31737e-14 4.83727 6.59053)
(-1.61179e-14 3.77897 6.28735)
(-1.16426e-14 5.77979 8.64368)
(-6.06382e-15 6.75566 12.644)
(5.3961e-17 14.3466 24.4598)
(-3.91014e-15 16.7112 28.8277)
(-3.02598e-15 14.1735 24.1819)
(-3.55397e-15 12.0776 20.7135)
(-3.76703e-15 11.9052 20.263)
(-4.84824e-15 12.8856 21.8181)
(-3.91714e-15 10.9821 18.4088)
(-4.27e-15 9.25909 15.7067)
(-4.59783e-15 8.79305 14.7591)
(-4.79098e-15 8.37272 14.1916)
(-5.2446e-15 7.95256 13.1672)
(-5.7556e-15 7.11489 12.0158)
(-6.64477e-15 6.49052 10.5472)
(-7.51263e-15 5.40729 9.19444)
(-9.35327e-15 4.72419 7.42073)
(-1.1096e-14 3.4985 6.16962)
(-1.33345e-14 3.407 5.10626)
(-1.4254e-14 2.88104 5.5132)
(-9.08283e-15 5.29522 8.11275)
(-5.75494e-15 6.03098 11.2775)
(1.69985e-17 14.4491 25.3765)
(-1.74973e-15 17.3204 29.8265)
(-1.11201e-15 15.2366 26.2142)
(-1.18969e-15 12.9702 22.1042)
(-1.4782e-15 12.4416 21.1508)
(-3.09741e-15 13.2079 22.391)
(-2.00741e-15 11.1406 18.7965)
(-2.00214e-15 9.87901 16.6976)
(-2.13041e-15 9.48517 15.7505)
(-2.24559e-15 8.88197 14.9034)
(-2.44566e-15 8.35642 13.7065)
(-2.6784e-15 7.46414 12.5181)
(-3.15048e-15 6.8562 11.0696)
(-3.49003e-15 5.83801 9.8149)
(-4.22811e-15 5.1785 8.07682)
(-5.16858e-15 3.93797 6.66932)
(-6.2265e-15 3.76981 5.54935)
(-7.03634e-15 3.14732 5.66306)
(-4.8023e-15 5.12978 7.75342)
(-2.96748e-15 5.74127 10.7033)
(1.31243e-17 14.0528 24.8894)
(4.10409e-16 17.4664 29.8388)
(2.82396e-16 15.2627 26.4886)
(2.70658e-16 12.8181 21.8679)
(3.40483e-16 12.2991 21.1179)
(-2.18585e-15 13.0606 22.3123)
(-1.84266e-15 10.8627 18.4486)
(-2.05266e-15 9.65552 16.5125)
(-2.18706e-15 9.21943 15.4727)
(-2.29998e-15 8.51249 14.5797)
(-2.47989e-15 8.01641 13.3174)
(-2.75517e-15 7.06613 12.1444)
(-3.24018e-15 6.48874 10.6105)
(-3.62579e-15 5.41527 9.3872)
(-4.50858e-15 4.786 7.58189)
(-5.54031e-15 3.40058 6.02152)
(-6.75672e-15 3.23469 4.7566)
(-6.97979e-15 2.68291 5.05156)
(-4.68251e-15 4.75229 7.19522)
(-3.31345e-15 5.17029 9.67455)
(-3.34109e-18 13.887 24.9225)
(-9.21067e-17 17.7861 30.1201)
(-6.52251e-17 15.4322 27.1556)
(-6.98119e-17 12.9985 22.0976)
(-8.04686e-17 12.4348 21.526)
(4.83303e-16 13.144 22.6046)
(4.44079e-16 10.9519 18.653)
(4.6613e-16 9.75133 16.852)
(4.99278e-16 9.34853 15.725)
(5.27716e-16 8.57314 14.8327)
(5.68212e-16 8.12207 13.5309)
(6.21671e-16 7.14967 12.3863)
(7.28309e-16 6.59651 10.8286)
(8.04316e-16 5.52452 9.62687)
(9.8383e-16 4.98834 7.96155)
(1.16995e-15 3.65057 6.46137)
(1.41425e-15 3.48374 5.132)
(1.70944e-15 2.8603 5.24386)
(1.09321e-15 4.6357 6.91849)
(6.71263e-16 4.74721 8.9323)
(7.16248e-19 13.7002 24.7485)
(2.15272e-17 17.9508 30.0747)
(1.53711e-17 15.4582 27.5099)
(1.69995e-17 13.1702 22.1084)
(1.90514e-17 12.5098 21.6539)
(-1.02298e-16 13.1807 22.6938)
(-1.01517e-16 11.0259 18.6028)
(-1.04068e-16 9.74705 16.8883)
(-1.12938e-16 9.41261 15.6974)
(-1.17914e-16 8.57608 14.8073)
(-1.26721e-16 8.14015 13.4727)
(-1.36241e-16 7.16106 12.3046)
(-1.60097e-16 6.57237 10.7334)
(-1.79434e-16 5.49444 9.44072)
(-2.16736e-16 4.93693 7.84126)
(-2.53729e-16 3.6852 6.42486)
(-3.18169e-16 3.42684 5.02684)
(-4.11576e-16 2.73669 4.93326)
(-2.8388e-16 4.26261 6.30315)
(-2.20977e-16 4.14203 7.83029)
(-1.52875e-19 13.7377 24.9147)
(-5.17969e-18 18.1179 30.0565)
(-3.5652e-18 15.4976 27.9352)
(-4.00681e-18 13.4808 22.3175)
(-4.49006e-18 12.6533 21.9358)
(2.16744e-17 13.2492 22.92)
(2.28328e-17 11.1899 18.7027)
(2.34595e-17 9.84995 17.1387)
(2.56517e-17 9.60469 15.9053)
(2.65472e-17 8.72665 14.9951)
(2.83057e-17 8.28112 13.6543)
(3.02435e-17 7.33312 12.4273)
(3.55378e-17 6.68223 10.8882)
(4.0806e-17 5.65805 9.49857)
(4.84386e-17 5.02432 7.94646)
(5.73078e-17 3.94496 6.64346)
(7.39989e-17 3.59137 5.28815)
(1.01267e-16 2.80584 4.85156)
(8.00997e-17 3.8878 5.65972)
(5.63199e-17 3.57381 6.78437)
(3.31389e-20 13.9741 25.3167)
(1.23396e-18 18.2141 29.9268)
(8.17265e-19 15.5245 28.2731)
(9.14679e-19 13.8699 22.5775)
(1.07596e-18 12.8244 22.1609)
(-4.54635e-18 13.2889 23.0527)
(-5.16247e-18 11.4325 18.8155)
(-5.37778e-18 10.0259 17.392)
(-5.87548e-18 9.84461 16.1336)
(-6.09401e-18 8.95437 15.1539)
(-6.43217e-18 8.44622 13.8148)
(-6.86619e-18 7.55555 12.4967)
(-8.00165e-18 6.80647 10.9743)
(-9.3535e-18 5.84143 9.47511)
(-1.097e-17 5.0777 7.90308)
(-1.33143e-17 4.0909 6.55145)
(-1.72749e-17 3.54872 5.14777)
(-2.42818e-17 2.64578 4.33493)
(-2.35114e-17 3.33319 4.70994)
(-1.50645e-17 2.9045 5.48749)
(-7.29494e-21 14.4384 26.0914)
(-2.85684e-19 18.3104 29.8498)
(-1.87832e-19 15.5224 28.5813)
(-2.03421e-19 14.3619 23.0393)
(-2.61076e-19 13.0446 22.481)
(9.53345e-19 13.305 23.1856)
(1.1757e-18 11.7201 19.0638)
(1.24014e-18 10.3327 17.7906)
(1.34832e-18 10.1287 16.536)
(1.41305e-18 9.29305 15.4261)
(1.48134e-18 8.67165 14.0995)
(1.57795e-18 7.86096 12.6829)
(1.80805e-18 7.02154 11.162)
(2.11561e-18 6.1009 9.5605)
(2.45524e-18 5.23134 7.94739)
(3.03416e-18 4.2771 6.45604)
(3.87894e-18 3.52204 4.92229)
(5.31122e-18 2.53092 3.73687)
(6.83609e-18 2.74254 3.63266)
(5.3432e-18 2.13487 3.81712)
(1.61132e-21 14.988 26.9736)
(6.43974e-20 18.4111 29.914)
(4.3457e-20 15.4795 28.7961)
(4.50822e-20 14.9417 23.7698)
(6.22218e-20 13.2906 22.8568)
(-2.00372e-19 13.328 23.1904)
(-2.6721e-19 12.0037 19.6064)
(-2.87575e-19 10.826 18.3175)
(-3.08627e-19 10.4022 17.0945)
(-3.26962e-19 9.72192 15.7975)
(-3.42654e-19 8.93883 14.5045)
(-3.65479e-19 8.22584 12.9836)
(-4.12426e-19 7.30229 11.442)
(-4.7834e-19 6.4126 9.73775)
(-5.5154e-19 5.45961 8.05346)
(-6.75074e-19 4.49032 6.35023)
(-8.59724e-19 3.46631 4.52631)
(-1.07528e-18 2.34495 2.84484)
(-1.47285e-18 1.87811 2.04809)
(-2.67707e-18 0.9832 1.06744)
(-3.50882e-22 15.4589 27.7184)
(-1.41474e-20 18.4732 30.1535)
(-1.01976e-20 15.4871 28.7376)
(-9.50306e-21 15.4926 24.8487)
(-1.55177e-20 13.4988 23.4246)
(4.093e-20 13.392 22.8549)
(6.00044e-20 12.179 20.5196)
(6.64994e-20 11.4909 18.9574)
(7.08657e-20 10.5521 17.8162)
(7.56113e-20 10.1488 16.3178)
(7.89156e-20 9.16772 15.107)
(8.22638e-20 8.58365 13.5235)
(8.81668e-20 7.5773 11.9893)
(9.76053e-20 6.74076 10.2393)
(1.13944e-19 5.74047 8.51908)
(1.43732e-19 4.70691 6.63127)
(1.12471e-19 3.37836 4.35566)
(1.65496e-19 1.9027 2.1646)
(2.08784e-19 0.569441 0.375965)
(-1.82687e-18 -1.60688 -3.09139)
(7.52461e-23 15.7171 28.2642)
(3.10466e-21 18.384 30.3796)
(2.38479e-21 15.5868 28.0045)
(2.38101e-21 15.4742 25.6752)
(3.25105e-21 13.5455 24.1608)
(-1.01669e-20 13.5053 22.0798)
(-1.35541e-20 11.8962 21.2825)
(-1.54255e-20 11.8185 19.3524)
(-1.6374e-20 10.3783 18.2406)
(-1.73384e-20 10.1433 16.67)
(-1.85524e-20 8.98459 15.5062)
(-2.14853e-20 8.45576 13.9088)
(-2.7165e-20 7.3198 12.3834)
(-3.41253e-20 6.47986 10.5913)
(-3.64531e-20 5.30634 8.7516)
(-5.44763e-20 3.99742 6.47921)
(-2.2319e-19 1.95822 3.00618)
(3.20187e-20 -0.771263 -1.17695)
(-5.08021e-20 -2.24956 -3.3584)
(-1.12928e-18 -1.19264 -1.12411)
(-1.32234e-23 15.9008 29.0089)
(-6.83214e-22 18.6365 30.2541)
(-5.52427e-22 15.446 28.2651)
(-5.75707e-22 15.718 25.6766)
(-7.76133e-22 13.6931 24.4561)
(2.37324e-21 13.5401 22.3273)
(3.90211e-21 11.9477 20.9919)
(4.4321e-21 11.6723 19.3167)
(4.96625e-21 10.4337 18.098)
(5.77885e-21 10.0156 16.606)
(6.28671e-21 8.96761 15.313)
(5.29786e-21 8.29348 13.7524)
(1.90793e-21 7.18866 12.1352)
(-2.60284e-21 6.18376 10.2532)
(-2.24296e-21 4.83084 8.14484)
(-1.95677e-20 3.33297 5.63117)
(-1.17902e-19 1.07938 1.83226)
(-2.54357e-19 -1.51622 -2.65608)
(-3.59269e-19 -1.73546 -3.13635)
(-2.46144e-18 1.84973 2.66481)
(1.61471e-24 16.2904 30.2399)
(1.52243e-22 18.7123 29.909)
(1.2506e-22 15.3483 28.4937)
(1.11374e-22 16.0332 25.9104)
(1.45998e-22 13.8494 24.8834)
(-5.02598e-22 13.7299 22.6806)
(-7.89136e-22 12.2386 21.3401)
(-5.28347e-22 11.9243 19.7238)
(9.77591e-23 10.9114 18.5653)
(5.12947e-22 10.3504 17.0811)
(7.28967e-23 9.47069 15.6548)
(-3.39036e-21 8.63693 14.0211)
(-1.3232e-20 7.5315 12.164)
(-2.6469e-20 6.2595 10.0642)
(-3.04815e-20 4.87439 7.85668)
(-2.22293e-20 3.48412 5.50926)
(1.22322e-20 2.02157 3.11454)
(-1.53974e-20 0.615168 0.305877)
(-1.41294e-19 -0.709928 -1.96017)
(-8.04597e-19 -0.837781 -2.67005)
(2.21385e-25 16.3576 31.0696)
(-3.42871e-23 18.3704 29.0932)
(-3.57562e-23 14.947 28.418)
(-6.11241e-23 15.8559 25.7584)
(-8.46713e-23 13.397 24.8943)
(1.69779e-22 13.5321 22.8644)
(5.95439e-22 11.9894 21.734)
(1.23098e-21 11.5678 20.1451)
(2.07015e-21 10.5494 18.8998)
(2.71211e-21 9.88257 17.5351)
(2.59312e-22 8.9543 16.0781)
(-1.36193e-20 7.84394 14.1216)
(-4.7871e-20 6.28852 11.5257)
(-8.30443e-20 4.73619 8.89309)
(-7.83811e-20 3.60947 6.98017)
(-5.76366e-20 2.42667 4.90972)
(-4.3121e-20 1.034 2.46537)
(-3.57728e-20 -0.514826 -0.469716)
(-1.8034e-19 -1.78078 -2.59281)
(-3.4516e-19 -2.16666 -4.41324)
(2.85365e-25 15.9153 30.9058)
(8.86444e-24 18.1684 28.3948)
(-6.34058e-26 14.5524 27.9538)
(-2.13185e-23 15.5538 25.2247)
(-2.88688e-23 13.1174 24.325)
(2.26608e-23 13.0686 22.2666)
(2.84723e-22 11.6032 21.0465)
(8.25204e-22 11.0066 19.4608)
(1.66518e-21 9.99694 18.1711)
(2.43874e-21 9.21952 16.7794)
(5.16435e-22 8.25895 15.3244)
(-1.06165e-20 7.1856 13.521)
(-3.40868e-20 5.96288 11.4081)
(-5.79078e-20 4.84918 9.28288)
(-6.82534e-20 3.91621 7.40696)
(-7.48457e-20 3.07495 5.67418)
(-1.00502e-19 2.19728 3.98071)
(-1.36178e-19 1.68871 2.64951)
(-1.87286e-19 -1.70419 -2.85432)
(-1.73097e-19 -1.83646 -3.15063)
(2.85755e-25 15.3073 30.7023)
(-1.97356e-24 18.2629 27.9595)
(-9.0207e-24 14.1434 27.6313)
(-2.71124e-23 15.363 24.8743)
(-2.87894e-23 12.9969 23.968)
(5.75737e-23 12.9067 22.0111)
(2.86943e-22 11.6286 20.7405)
(7.0542e-22 11.0296 19.2033)
(1.35683e-21 10.164 17.8753)
(2.2512e-21 9.47518 16.526)
(3.2029e-21 8.7544 15.2355)
(3.773e-21 8.08899 13.9339)
(2.92704e-21 7.44789 12.6076)
(-2.88064e-21 6.80061 11.167)
(-1.88928e-20 6.01263 9.4723)
(-4.55158e-20 4.94584 7.3063)
(-7.81201e-20 3.12459 4.1287)
(-1.04177e-19 2.25732 3.04882)
(-1.47937e-19 -1.0304 -1.71366)
(-9.35801e-20 -1.33252 -2.57465)
(2.19638e-25 14.2656 30.6197)
(2.80214e-25 18.1017 27.5074)
(-5.89891e-24 13.4082 27.4632)
(-1.84503e-23 14.4424 25.0148)
(-1.53319e-23 12.3236 24.0654)
(5.06778e-23 11.9271 22.4095)
(2.34708e-22 10.8253 21.1655)
(5.9077e-22 10.1367 19.8016)
(1.21162e-21 9.36015 18.5573)
(2.22983e-21 8.70769 17.3291)
(3.61671e-21 8.07864 16.1486)
(4.68988e-21 7.48423 14.9507)
(3.49666e-21 6.85198 13.6509)
(-2.99995e-21 6.10005 12.1043)
(-1.73893e-20 5.10044 10.0838)
(-4.1478e-20 3.44702 6.98902)
(-7.96618e-20 0.304643 1.34864)
(-1.2843e-19 -3.20312 -5.53534)
(-1.18996e-19 -2.5884 -3.748)
(-7.50148e-20 -1.6813 -3.67959)
(7.61889e-26 11.307 28.5746)
(-3.08013e-25 17.0087 25.0243)
(-3.01478e-24 12.0231 25.4383)
(-8.88104e-24 12.6855 23.7172)
(-7.20643e-24 10.9429 22.9726)
(2.66519e-23 10.2849 21.8798)
(1.24804e-22 9.29374 20.9617)
(3.36362e-22 8.52417 20.0072)
(7.67482e-22 7.759 19.0924)
(1.57868e-21 7.07702 18.1869)
(2.79977e-21 6.43883 17.2918)
(3.96946e-21 5.83644 16.3722)
(3.80768e-21 5.23244 15.3719)
(1.68373e-22 4.58519 14.1875)
(-9.35078e-21 3.81781 12.6423)
(-2.55132e-20 2.78781 10.4911)
(-4.46322e-20 1.50523 7.46326)
(-5.76063e-20 0.295474 3.65606)
(-5.3017e-20 -0.578437 0.377922)
(-3.20187e-20 -1.26968 -2.30578)
(2.66974e-26 2.65727 17.0541)
(-1.76224e-26 8.06473 13.6881)
(-4.35955e-25 5.17641 14.5603)
(-1.40378e-24 4.99606 14.164)
(-1.69346e-24 4.06826 14.13)
(2.96658e-24 3.50376 13.9599)
(1.86579e-23 2.92738 13.8076)
(4.83176e-23 2.45571 13.6209)
(9.2111e-23 2.04367 13.4113)
(1.67241e-22 1.70261 13.1724)
(3.44873e-22 1.43006 12.9095)
(7.69757e-22 1.23305 12.631)
(1.61772e-21 1.11718 12.3479)
(2.97348e-21 1.0972 12.0621)
(4.6479e-21 1.19276 11.7603)
(6.02916e-21 1.36824 11.4347)
(6.22277e-21 1.64953 10.9911)
(4.73208e-21 2.33131 10.0667)
(2.27731e-21 2.55797 8.64111)
(3.26895e-22 -0.194416 6.5317)
(-1.30036e-26 -2.67842 17.0917)
(-5.9789e-26 -8.06973 13.7331)
(-5.46155e-26 -5.18013 14.6064)
(1.48706e-25 -4.992 14.2156)
(9.1071e-25 -4.06164 14.1864)
(2.64653e-24 -3.49433 14.0227)
(5.20852e-24 -2.91727 13.8776)
(7.06163e-24 -2.44547 13.6991)
(5.06393e-24 -2.03314 13.4981)
(-4.51797e-24 -1.68976 13.2668)
(-2.43214e-23 -1.41067 13.0069)
(-5.37467e-23 -1.20007 12.7208)
(-8.415e-23 -1.06063 12.4117)
(-8.60094e-23 -1.00406 12.0794)
(9.42662e-24 -1.04951 11.725)
(2.91995e-22 -1.16954 11.3778)
(7.34834e-22 -1.40718 10.9841)
(9.98134e-22 -2.09289 10.1456)
(6.66908e-22 -2.41501 8.7003)
(9.46023e-23 0.183611 6.49689)
(-2.58398e-27 -11.3039 28.6509)
(-9.587e-27 -17.1058 25.0509)
(-3.13727e-25 -12.0772 25.466)
(3.14214e-26 -12.7961 23.7119)
(4.25776e-24 -11.0641 22.9484)
(1.67781e-23 -10.4445 21.8299)
(3.79229e-23 -9.48959 20.8927)
(5.86191e-23 -8.77002 19.9266)
(6.04991e-23 -8.06463 19.012)
(2.36688e-23 -7.45269 18.1157)
(-5.46603e-23 -6.88912 17.2302)
(-1.31901e-22 -6.36444 16.3161)
(-1.08916e-22 -5.85419 15.341)
(8.07454e-23 -5.345 14.2762)
(1.25816e-22 -4.78595 13.0244)
(-1.2814e-21 -3.97652 11.2351)
(-6.47819e-21 -2.53985 8.1664)
(-1.60449e-20 -0.181847 3.20808)
(-2.32051e-20 2.48261 -2.43598)
(-1.88517e-20 2.51999 -4.87372)
(-2.56669e-27 -14.1034 30.3621)
(-6.15703e-25 -18.0603 27.1521)
(-1.49288e-24 -13.2736 27.1229)
(-9.28622e-25 -14.4152 24.571)
(8.67596e-24 -12.2587 23.5915)
(3.51012e-23 -11.9082 21.8591)
(7.24138e-23 -10.8107 20.566)
(1.02886e-22 -10.1499 19.1465)
(1.02856e-22 -9.39173 17.8586)
(6.3823e-23 -8.76334 16.583)
(1.23232e-23 -8.16653 15.3495)
(1.5568e-23 -7.64565 14.1117)
(1.62201e-22 -7.17774 12.856)
(5.22688e-22 -6.73407 11.5482)
(1.05046e-21 -6.19987 10.0811)
(1.31007e-21 -5.45432 8.26761)
(-3.01214e-22 -4.24238 5.77729)
(-6.98866e-22 -2.58274 2.50172)
(-3.97195e-22 -0.423507 -0.485107)
(-3.23622e-20 0.91323 -3.87774)
(7.3842e-27 -15.035 30.0492)
(1.34543e-24 -17.8499 27.3623)
(1.95125e-27 -13.7765 26.978)
(6.49487e-25 -14.8839 24.2057)