/*--------------------------------*- C++ -*----------------------------------*\
| =========                 |                                                 |
| \\      /  F ield         | OpenFOAM: The Open Source CFD Toolbox           |
|  \\    /   O peration     | Version:  4.1                                   |
|   \\  /    A nd           | Web:      www.OpenFOAM.org                      |
|    \\/     M anipulation  |                                                 |
\*---------------------------------------------------------------------------*/
FoamFile
{
    version     2.0;
    format      ascii;
    class       volScalarField;
    location    "20";
    object      p;
}
// * * * * * * * * * * * * * * * * * * * * * * * * * * * * * * * * * * * * * //

dimensions      [0 2 -2 0 0 0 0];

internalField   nonuniform List<scalar> 
1280
(
1633.98
-1368.78
-459.418
-555.944
-363.066
-383.603
-308.23
-185.597
-132.365
-179.407
-95.6103
-46.7812
-71.4971
-40.9731
23.7687
-34.5182
-29.2419
32.4658
-18.3993
-47.267
-63.1764
-54.1717
-40.8804
-32.6392
-23.192
-7.55606
26.078
39.3042
42.7541
44.498
47.3467
49.8061
52.6878
55.556
58.597
61.4712
64.7594
70.9343
78.8961
83.9771
100.534
101.666
101.434
101.519
102.349
114.002
111.117
107.995
110.135
112.791
105.014
108.981
108.87
103.666
103.264
108.629
106.229
104.391
105.906
112.68
91.0377
91.5606
91.5425
91.3503
90.6265
89.2727
87.3708
85.0107
81.8752
77.7041
71.7838
65.6153
56.1795
11.9717
-34.1864
-47.7495
-63.6588
-85.081
-99.5562
-102.979
-102.615
-102.144
-109.188
-104.443
-101.633
-105.972
-100.284
-95.9419
-93.7041
-88.5994
-87.0282
-75.3318
-54.3671
-48.5699
-41.959
-41.3541
-0.659901
33.3677
4.56039
7.94963
68453.6
-10945.7
-17490.4
-641.053
-2222.1
-534.336
-186.931
153.136
213.198
245.426
168.264
116.459
21.6173
365.896
251.209
-43.7978
108.765
99.5762
41.622
-46202.7
-2194.16
-8523.43
-924.556
-943.869
-319.652
-286.831
-148.933
-87.0608
-117.711
-114.216
-79.0449
-34.62
-105.512
-135.798
-109.342
-60.5254
-33.0762
-70.4629
-616.697
-7043.68
-111.517
-707.557
-422.443
-457.71
-319.079
-65.3623
13.6397
16.4208
-3.27577
-9.54245
6.24373
113.072
-8.82163
-122.941
-51.6008
-17.6097
-28.3042
-12338.2
-7700.73
-3007.29
285.714
-524.378
-508.392
-416.514
-144.733
-88.6771
-102.172
-112.308
-79.324
-42.0282
83.3995
-39.4401
-181.086
-120.457
-45.3936
-84.3463
-4134.87
-5123.27
-1195.31
159.76
-571.977
-538.982
-461.896
-131.846
-103.763
-116.857
-128.794
-91.8633
-30.5263
-8.61826
-115.349
-222.724
-173.033
-57.7607
-87.7328
-4785.01
-4873.34
-401.755
-156.9
-583.323
-582.987
-540.761
-155.098
-139.364
-164.152
-185.837
-153.991
-83.2768
-64.3398
-175.983
-288.718
-233.373
-98.8514
-154.209
-2018.53
-3323.53
129.564
-221.483
-606.813
-581.125
-520.326
-146.528
-130.167
-171.68
-212.004
-186.03
-129.483
-113.937
-224.807
-337.844
-283.497
-108.004
-47.9925
-1138.32
-2340.73
640.842
-219.106
-583.358
-565.424
-424.22
-119.405
-106.529
-178.312
-239.829
-217.589
-157.869
-162.104
-264.15
-379.339
-327.235
-118.013
-8.99428
-99.1161
-1597.19
1199.39
-166.352
-523.044
-579.307
-300.874
-71.3574
-67.0912
-178.812
-263.144
-245.58
-175.301
-197.718
-286.564
-397.745
-355.423
-121.393
28.4603
352.111
-1053.17
1785.16
27.9312
-376.14
-424.776
-145.621
-19.1439
-19.062
-174.386
-280.323
-264.324
-182.158
-218.016
-295.093
-394.47
-362.857
-116.29
46.2068
492.949
-834.799
2098.2
275.036
-177.888
-234.205
-64.6424
12.778
21.0281
-161.738
-284.803
-262.754
-175.988
-224.276
-291.632
-378.949
-349.549
-101.961
72.6743
393.694
-1048.67
1960.99
204.32
-159.49
-164.876
-92.2336
4.99393
14.9944
-145.53
-277.765
-239.106
-158.43
-216.027
-276.138
-351.708
-320.992
-79.886
80.2774
-374.268
-1802.72
1387.9
-10.4656
-181.993
-142.705
-114.389
-18.359
-44.6785
-126.67
-253.514
-193.519
-131.906
-195.578
-253.461
-316.546
-281.733
-50.3838
86.0371
-1115.39
-2494.96
799.526
8.38738
-177.434
-123.971
-93.9678
-23.5681
-71.1309
-102.985
-214.02
-137.903
-99.97
-164.529
-224.187
-267.978
-229.076
-12.9391
153.151
-3367.43
-3956.06
80.0946
119.135
-174.609
-85.829
-74.9148
-20.8707
-60.9835
-84.0801
-178.193
-97.5275
-69.7538
-125.615
-190.644
-217.384
-165.127
10.8965
151.26
-2969.53
-4519.84
-744.771
327.793
-241.42
-89.6199
-72.5941
-23.3872
-56.621
-79.9786
-144.244
-80.0393
-47.2299
-76.8411
-139.088
-139.932
-70.1603
26.9714
135.238
-10688
-6762.35
-2601.97
140.921
-347.301
-37.1628
-66.9818
-26.6129
-47.9726
-65.906
-101.713
-71.9333
-23.7483
-40.2193
-106.092
-114.454
-63.2433
-41.6957
12.9619
181.024
-5945.8
-527.926
-1209.65
-551.735
-47.9071
-48.7247
-24.338
-29.4149
-35.5168
-49.8467
-41.1084
-9.71703
-23.6701
-59.3411
-3.09885
92.1281
-71.8646
163.306
-41938.2
-2778.64
-8055.86
-1250.16
-637.322
-181.1
-93.0932
-71.0854
-78.752
-91.2715
-99.5546
-61.186
-25.294
-37.6963
-114.899
-132.076
55.8688
-53.6779
-345.818
63704.4
-9654.78
-14631.4
-307.282
-1241.89
-425.764
-150.47
-131.295
-138.254
-157.179
-167.409
-115.408
-62.2614
-25.2751
8.71506
149.619
-21.2517
-291.443
986.193
108.44
109.841
112.257
114.272
116.68
119.049
121.111
122.455
124.193
125.755
127.326
128.835
130.248
131.509
132.541
133.279
133.686
133.359
132.091
131.698
116.509
115.898
116.06
116.149
116.554
117.094
117.832
118.58
119.396
120.286
121.231
122.224
123.265
124.331
125.422
126.517
127.591
128.606
129.923
130.341
127.591
127.333
127.338
127.295
127.378
127.503
127.731
128.022
128.401
128.841
129.365
129.951
130.618
131.347
132.157
133.022
133.976
135.043
136.495
137.033
127.037
126.985
127.023
127.008
127.05
127.084
127.16
127.245
127.369
127.511
127.692
127.895
128.14
128.408
128.725
129.06
129.454
129.866
130.48
131.027
129.474
129.369
129.357
129.296
129.278
129.246
129.242
129.235
129.249
129.266
129.301
129.341
129.399
129.459
129.541
129.617
129.726
129.807
129.972
130.099
129.818
129.759
129.754
129.711
129.697
129.666
129.652
129.63
129.621
129.608
129.605
129.6
129.606
129.608
129.625
129.629
129.659
129.661
129.714
129.727
130.721
130.649
130.632
130.579
130.554
130.511
130.483
130.446
130.418
130.386
130.361
130.332
130.31
130.283
130.266
130.237
130.229
130.194
130.201
130.158
131.287
131.225
131.21
131.162
131.139
131.098
131.071
131.034
131.005
130.972
130.943
130.911
130.884
130.851
130.828
130.792
130.775
130.732
130.727
130.673
131.915
131.853
131.836
131.789
131.764
131.723
131.695
131.657
131.627
131.592
131.561
131.528
131.497
131.463
131.436
131.398
131.377
131.332
131.322
131.264
132.479
132.421
132.405
132.36
132.336
132.297
132.27
132.234
132.204
132.171
132.14
132.107
132.077
132.044
132.016
131.98
131.958
131.914
131.903
131.845
133.032
132.976
132.96
132.917
132.894
132.856
132.829
132.795
132.766
132.733
132.703
132.672
132.642
132.611
132.583
132.548
132.525
132.484
132.472
132.416
133.556
133.503
133.488
133.447
133.425
133.389
133.363
133.33
133.302
133.271
133.242
133.213
133.183
133.154
133.126
133.093
133.071
133.031
133.019
132.966
134.058
134.008
133.993
133.954
133.932
133.898
133.873
133.842
133.815
133.785
133.757
133.729
133.701
133.673
133.646
133.616
133.593
133.557
133.544
133.494
134.538
134.491
134.476
134.439
134.418
134.385
134.361
134.331
134.305
134.278
134.25
134.224
134.196
134.17
134.143
134.116
134.092
134.059
134.046
133.998
134.995
134.95
134.936
134.901
134.882
134.851
134.828
134.8
134.775
134.749
134.723
134.698
134.671
134.647
134.62
134.596
134.571
134.542
134.527
134.483
135.417
135.377
135.363
135.331
135.313
135.284
135.263
135.237
135.215
135.191
135.167
135.144
135.119
135.098
135.072
135.051
135.026
135.001
134.985
134.945
135.814
135.777
135.762
135.73
135.714
135.685
135.665
135.641
135.618
135.596
135.573
135.552
135.529
135.51
135.485
135.469
135.443
135.425
135.409
135.374
136.216
136.188
136.177
136.144
136.131
136.106
136.086
136.063
136.041
136.018
135.995
135.971
135.945
135.921
135.893
135.873
135.839
135.823
135.797
135.759
136.49
136.481
136.496
136.476
136.476
136.469
136.464
136.459
136.453
136.446
136.439
136.429
136.417
136.402
136.382
136.361
136.322
136.301
136.229
136.172
136.456
136.398
136.436
136.447
136.464
136.482
136.501
136.522
136.544
136.569
136.597
136.628
136.663
136.702
136.745
136.794
136.847
136.915
136.957
137.12
742.765
660.065
610.855
554.542
505.433
458.017
413.904
372.212
332.961
295.873
260.79
227.525
195.891
165.893
137.686
110.539
84.7928
64.5192
40.7005
3.4212
54.6134
31.757
39.747
28.4443
25.5714
18.7704
13.7285
8.38969
3.80834
-0.229324
-3.47646
-5.8764
-7.31627
-7.70587
-6.9692
-4.87634
-1.46302
1.76861
4.16992
5.51567
30.5156
22.7997
30.521
22.9234
24.2822
20.2174
18.1983
14.8413
11.744
8.29842
4.83142
1.25503
-2.31676
-5.74801
-8.75093
-10.8749
-11.342
-11.0808
-11.3844
-10.1096
22.5565
18.4235
20.7425
14.2642
14.8658
10.351
8.72316
5.71649
3.5198
1.25003
-0.690276
-2.39761
-3.78832
-4.76055
-5.146
-4.58693
-2.98756
-0.436089
1.26941
4.29469
21.6581
20.2894
23.953
21.1858
25.0825
24.019
26.3611
27.1613
28.8719
30.4969
32.3411
34.3354
36.4569
38.7008
41.0025
43.3911
45.6987
48.1485
50.1293
52.9848
46.136
47.0786
50.7379
49.8733
54.0367
54.0593
57.0988
58.3662
60.5461
62.2676
64.0268
65.5192
66.6838
67.3743
67.5722
67.4231
67.5058
68.3056
69.4822
70.6746
70.3893
70.5605
72.5691
71.2177
73.719
72.6815
74.2899
73.8544
74.3613
73.9391
73.5441
72.7194
71.7309
70.5575
69.3256
68.0686
66.897
66.0305
65.7316
64.1117
60.1615
56.7507
57.2246
53.9507
54.2805
51.5815
51.2611
49.2437
48.3541
46.7897
45.6464
44.2797
42.9416
41.3259
39.4659
37.3321
35.2135
33.8406
32.1651
28.1701
14.6471
9.15922
8.33395
3.85585
2.33746
-1.86246
-4.27961
-8.33024
-11.581
-15.5963
-19.1698
-22.7428
-25.7905
-28.3633
-30.2193
-31.4389
-31.9447
-31.8323
-32.2239
-31.0585
-16.9746
-20.5765
-20.3548
-23.1795
-23.3484
-25.8871
-26.5828
-28.5816
-29.5999
-30.9327
-31.5903
-31.8729
-31.5089
-30.5923
-29.1976
-27.3761
-25.4595
-23.2543
-21.4879
-17.872
-3.14807
-2.71636
-0.862535
-0.960856
1.0627
1.42895
3.19818
4.2207
5.82829
7.30432
8.9866
10.7452
12.5976
14.5431
16.5201
18.6278
20.7085
23.1962
25.3265
28.5909
24.3128
26.4306
28.6038
29.6357
31.8724
33.0464
34.974
36.4519
38.1298
39.7086
41.279
42.8247
44.3343
45.8398
47.3162
48.8468
50.3039
51.9436
53.1901
54.9888
44.1014
46.5734
48.5775
49.9374
51.8888
53.1018
54.7502
56.0731
57.469
58.7816
60.0509
61.2847
62.4847
63.6873
64.908
66.2344
67.5763
69.118
70.3029
71.8587
67.2132
69.456
70.783
72.0009
73.3715
74.2319
75.355
76.1529
76.9607
77.6275
78.2422
78.8471
79.5287
80.3704
81.4345
82.6844
84.0005
85.2727
86.1718
87.1035
80.9342
82.4997
83.0766
83.9911
84.8559
85.6595
86.7112
87.6502
88.6919
89.637
90.4566
90.9775
91.0539
90.4484
89.1609
87.4318
86.0345
85.1583
85.3034
84.7418
100.071
99.5878
99.0836
99.1869
99.2886
99.0672
98.777
98.0204
96.8881
95.0354
92.3532
88.5993
83.7445
78.072
72.4128
67.6827
64.5363
63.2871
63.5618
61.1583
74.0322
69.6949
66.4701
63.2498
60.0244
56.829
53.9903
51.2107
48.6375
46.1399
43.8307
41.7133
39.9221
38.5631
37.6955
37.2776
37.5083
38.669
38.5256
34.5719
21.6427
15.0276
11.2779
8.03607
4.73873
1.25603
-2.41422
-6.35873
-10.455
-14.6033
-18.5725
-22.2334
-25.4156
-27.9772
-29.7964
-30.8237
-31.013
-30.9838
-31.8433
-31.3712
-42.1484
-44.5125
-43.5982
-42.5339
-42.1379
-42.0582
-42.1865
-42.5826
-43.0373
-43.4456
-43.6643
-43.6319
-43.3018
-42.6546
-41.7552
-40.5794
-39.2904
-37.512
-35.7678
-32.0661
-23.1136
-23.6595
-21.2937
-18.0507
-15.4618
-13.573
-12.4046
-10.0805
-7.69161
-5.48936
-3.38549
-1.28644
0.758436
2.84444
4.86173
6.92621
9.1184
12.0347
14.9816
17.9182
)
;

boundaryField
{
    outletWall
    {
        type            fixedValue;
        value           uniform 0;
    }
    fineWalls
    {
        type            zeroGradient;
    }
    fineFrontAndBack
    {
        type            zeroGradient;
    }
    fineplugLeft
    {
        type            cyclicAMI;
        value           nonuniform List<scalar> 
20
(
122.154
121.452
120.874
119.901
118.918
117.752
116.318
114.736
113.029
111.33
109.503
107.906
105.825
110.305
93.7276
88.7056
84.8901
81.6297
77.0385
74.1164
)
;
    }
    fineplugRight
    {
        type            cyclicAMI;
        value           nonuniform List<scalar> 
20
(
32.5421
30.2974
27.9363
25.5648
23.6663
21.7439
19.7497
17.6089
15.3459
12.8324
9.96527
6.96977
3.17153
-9.63286
-17.6957
-21.9193
-27.1723
-34.0512
-38.8388
-39.0867
)
;
    }
    inletOutletLeft
    {
        type            cyclicAMI;
        value           nonuniform List<scalar> 
20
(
122.154
121.452
120.874
119.901
118.918
117.752
116.318
114.736
113.029
111.33
109.503
107.906
105.825
110.305
93.7276
88.7056
84.8901
81.6297
77.0385
74.1164
)
;
    }
    inletLeft
    {
        type            zeroGradient;
    }
    inletWallsLeft
    {
        type            zeroGradient;
    }
    inletFacesLeft
    {
        type            zeroGradient;
    }
    inletOutletRight
    {
        type            cyclicAMI;
        value           nonuniform List<scalar> 
20
(
32.5421
30.2974
27.9363
25.5648
23.6663
21.7439
19.7497
17.6089
15.3459
12.8324
9.96527
6.96977
3.17153
-9.63286
-17.6957
-21.9193
-27.1723
-34.0512
-38.8388
-39.0867
)
;
    }
    inletRight
    {
        type            zeroGradient;
    }
    inletWallsRight
    {
        type            zeroGradient;
    }
    inletFacesRight
    {
        type            zeroGradient;
    }
}


// ************************************************************************* //
