/*--------------------------------*- C++ -*----------------------------------*\
| =========                 |                                                 |
| \\      /  F ield         | OpenFOAM: The Open Source CFD Toolbox           |
|  \\    /   O peration     | Version:  4.1                                   |
|   \\  /    A nd           | Web:      www.OpenFOAM.org                      |
|    \\/     M anipulation  |                                                 |
\*---------------------------------------------------------------------------*/
FoamFile
{
    version     2.0;
    format      ascii;
    class       surfaceScalarField;
    location    "20";
    object      phi;
}
// * * * * * * * * * * * * * * * * * * * * * * * * * * * * * * * * * * * * * //

dimensions      [0 3 -1 0 0 0 0];

internalField   nonuniform List<scalar> 
2360
(
-69002.6
-56911.7
-12090.9
-56911.7
-56911.7
-51834.3
-5077.43
-51834.3
-51834.3
-51834.3
-37489.6
-14344.7
-37489.6
-37489.6
-27192.6
-10297
-27192.6
-27192.6
-22916.8
-4275.82
-22916.8
-22916.8
-25215.7
2298.93
-25215.7
-25215.7
-24243.9
-22997.1
-21803.5
-20632.1
-19476.1
-18349
-19587
2311.84
-18491.1
-17405.9
-16328.9
-15261.7
-14205.9
-13164.8
-12141.5
-11132.7
-10121.3
-9102.57
-8195.36
-7757.72
-8027.12
-98.7648
-7928.28
-98.3083
-98.0115
-97.8336
7877.9
-7975.8
7877.9
7877.83
7877.85
12322.7
-4444.91
12322.7
12322.7
12921.8
-599.089
12921.8
12921.8
12921.8
9962.21
2959.56
9962.23
9962.26
9962.26
-693.325
10655.6
-873.848
-895.446
-770.339
-517.45
-144.82
348.217
975.193
1742.39
2648.72
3696.59
4883.93
6209.73
7679.77
-10381
19704.5
-8625.05
-6693.04
-4624.68
-2670.61
-1354.91
-896.301
-898.225
-899.791
-4954.66
4055
-4954.99
-4954.75
-5461.99
507.004
-5461.9
-5462.14
-4286.06
-1176
-4286.21
-4286.11
81.8867
-4368.19
81.9786
81.7079
81.8842
5199.72
-5117.99
5199.74
5199.69
4150.23
1049.48
-99679.9
-435856
119410
-39271.9
-75004.4
366695
-51518.2
5406.05
-9042.64
43163.9
-18732.6
45612.4
-17329
17380.2
-2150.86
-32001.6
15465
-38672.6
24901.1
-30076.9
28393.1
-18273.9
26918.3
-10028.4
34220.5
-9254.64
6300.89
-7333.53
-25238.3
262.006
-19746.3
544.51
-11494.8
-20819.1
1506.84
-26878.6
-4152.93
-79655.4
-294815
-75720.1
-43207.2
-52946.1
343921
-41887.2
-5652.82
-8185.38
9462.12
-25138.8
62565.8
-5854.41
-1904.2
8718.28
-46574.3
16344.4
-46298.7
18215.9
-31948.4
15822.5
-15880.5
13318.7
-7524.59
14359.9
-10295.9
-5081.21
12107.6
-19849.2
15030
-13992
-5312.63
-9604.73
-25206.4
-860.584
-35622.7
-10131.5
37721
-331435
6582.62
-12068.8
23611.4
326892
-17747.6
35706.1
-31765.5
23480.1
-19404.9
50205.2
498.436
-21807.6
13127.6
-59203.4
21121.1
-54292.3
24517.6
-35344.9
24112.1
-15475
20735.7
-4148.13
12627.3
-2187.57
-2073.99
26808.9
-13861.3
26817.2
-15311.7
-3862.18
-12381.2
-28136.9
-6472.93
-41531.1
-20972.7
-48905
-260932
-51222.4
-9751.37
5958.03
269711
-11009.2
52673.4
-28807.9
41278.8
-11075
32472.3
8029.64
-40912.2
18594.4
-69768.2
24220.9
-59918.8
26239.8
-37363.8
25230
-14465.2
20669.8
412.037
9698.95
8783.29
-2496.17
39004
-10770.8
35091.8
-15025.7
392.748
-13218.9
-29943.8
-8980.86
-45769.1
-31129.7
-12387.3
-239345
-33669.8
11531.1
-3451.51
239493
-16310.7
65532.6
-20315.4
45283.5
-3727.17
15884.1
13474.4
-58113.8
20229.3
-76523.1
22677.5
-62367
24061.8
-38748.1
24487.9
-14891.2
20211.8
4688.13
7989.05
21006
-4152.6
51145.7
-9767.14
40706.4
-14073.6
4699.22
-13518.6
-30498.8
-11290.5
-47997.3
-41913.3
-35395
-192344
-44933.5
21069.6
-11019.1
205579
-16830.3
71343.8
-12430.1
40883.3
3025.56
428.401
16562.5
-71650.7
17719.4
-77680.1
17289.4
-61937
18433.4
-39892
20409.7
-16867.6
16597.7
8500.1
4126.73
33477
-4925.72
60198.1
-7824.69
43605.3
-11957.4
8831.92
-12352.6
-30103.6
-12339.7
-48010.2
-50198.1
-37627.3
-148633
-44106.1
27548.3
-13977.7
175450
-10569.5
67935.5
-825.935
31139.8
12897.7
-13295.2
17314.9
-76067.9
12666.5
-73031.6
11875.2
-61145.7
13903
-41919.9
16585
-19549.5
12474.9
12610.1
1068.5
44883.4
-4198.01
65464.7
-5287.27
44694.6
-8848.81
12393.4
-10027.1
-28925.3
-12192.4
-45845
-42686
-41707
-102506
-43494.6
29336
-10586.6
142542
-2673.5
60022.4
9302.79
19163.5
23049
-27041.4
17884.5
-70903.4
8808.54
-63955.7
9241.75
-61578.9
12283.4
-44961.5
14427.1
-21693.2
8959.59
18077.7
-213.982
54057
-2021.57
67272.2
-1986.24
44659.3
-4883.66
15290.8
-6327.97
-27481
-6972.54
-45200.4
-39003
-44504.6
-57480.9
-42807.8
27639.2
-299.639
100034
13294.7
46428.1
24725.5
7732.64
34139.5
-36455.5
20796.1
-57559.9
7502.97
-50662.6
7269.18
-61345.2
10360.3
-48052.7
12120.6
-23453.4
6291.28
23907
36.5033
60311.8
966.372
66342.4
1622.99
44002.7
-206.242
17120.1
-1630.56
-26056.7
-1771.69
-45059.3
-37815.1
-48118.4
-12774.6
-43838.2
23359
10951.3
45244.6
38713.7
18665.7
50817.7
-4371.33
47456.6
-33094.4
26128.3
-36231.7
7266.91
-31801.2
4046.55
-58124.8
6967.51
-50973.7
8921
-25406.9
4352.53
28475.4
1350.68
63313.6
4112.63
63580.4
5385.91
42729.4
4994.62
17511.3
3694.35
-24756.5
2603.48
-43968.4
-35810.7
-51774.3
33379.2
-47183.9
18768.6
17267.9
-19207.3
49324
-13390.4
60124.2
-15171.6
51052.7
-24022.9
28105.3
-13284.2
6185.13
-9881.02
331.033
-52270.7
3243.42
-53886.1
5472.1
-27635.6
3265.49
30682
3419.85
63159.2
7242.27
59758
9221.73
40749.9
9975.1
16758
8985.57
-23766.9
7169.31
-42152.1
-33086.3
-51763.7
82404
-45989.9
12994.8
14603.8
-79800.9
42283.4
-41070
46402.5
-19290.7
37221.2
-14841.6
20814.5
3122.57
3567.96
7365.47
-3060.09
-45642.6
-922.762
-56023.4
1836.71
-30395.1
3068.28
29450.5
5989.83
60237.7
10390.2
55357.6
12874.2
38265.9
14587.3
15044.9
14031.1
-23210.7
11067.4
-39188.4
-29994.7
-47189.8
131223
-43441.1
9246.04
4817.39
-128059
16401.1
-52653.7
8128.83
-11018.4
5052.72
-11765.5
3239.87
4935.42
-121.694
10727
-5421.74
-40342.6
-5309.82
-56135.3
-1335.41
-34369.5
3804
24311.1
8834.41
55207.3
13447
50745
16337.3
35375.5
19008.2
12374
18505.4
-22707.8
13613.7
-34296.7
-24309.3
-38957.4
173877
-39647.5
9936.17
-4741.56
-162965
-11012.1
-46383.2
-17674.1
-4356.29
-6729.41
-22710.2
-628.445
-1165.54
1742.33
8356.25
-5321.03
-33279.2
-8513.9
-52942.4
-3545.02
-39338.4
5533.87
15232.2
12264.3
48476.8
16991.3
46018.1
20571.7
31795.1
23943.2
9002.52
22401.8
-21166.4
14220.3
-26115.2
-7777.08
-40841.2
223443
-42735.7
11830.6
-4697.28
-201004
-10486
-40594.5
-17201.9
2359.54
-7295.19
-32616.9
-202.476
-8258.26
4794.24
3359.54
-2832.66
-25652.3
-9696.23
-46078.9
-5713.04
-43321.6
7164.78
2354.34
16771.2
38870.4
22650
40139.2
27197.8
27247.3
29383.3
6816.99
25719.8
-17502.8
15773.7
-16169.1
10295.5
-20191.4
250495
-29753.7
21393
4412.81
-235170
1262.8
-37444.4
-15811.3
19433.6
-8735.33
-39692.8
-2582.26
-14411.3
3961.49
-3184.22
61.5678
-21752.4
-8798.73
-37218.6
-9708.82
-42411.5
4354.94
-11709.4
19514.2
23711.1
28053.4
31600
32527.2
22773.5
32145.7
7198.49
27330.5
-12687.6
18847.6
-7686.15
24867.3
-51634.7
321430
-45185.2
14943.5
16523.2
-296879
13083.5
-34004.8
-9178.37
41695.5
-7967.5
-40903.7
-3403.44
-18975.4
2339.1
-8926.75
1577.26
-20990.6
-6031.91
-29609.4
-11685.3
-36758.1
-1186.96
-22207.7
17328.5
5195.71
28734
20194.5
33818.7
17688.8
32373
8644.18
27378.2
-7692.79
19092.5
599.592
33662.7
27821.7
293255
5110.39
37654.8
28863
-320631
-8383.62
3241.87
-14480
47791.9
-6956.25
-48427.5
-4012.99
-21918.7
1370.15
-14309.9
1752.92
-21373.3
-2432.29
-25424.2
-9036.69
-30153.7
-7025.4
-24219
7615.41
-9445.1
21618.4
6191.45
26041.7
13265.5
24426.6
10259.3
22603.6
-5869.83
13268.7
9934.54
32586.7
-85482.3
434747
-72987.9
25160.3
-46446.5
-347173
-54610.4
11405.8
-3046.48
-3772.03
-5150.98
-46323
-4190.41
-22879.2
997.126
-19497.4
1394.16
-21770.4
-336.854
-23693.2
-5417.21
-25073.4
-8884.54
-20751.7
-3331.07
-14998.6
10427.4
-7567
20159.8
3533.07
16281
14138.2
19237.6
-8826.43
12118.2
17054
39627.5
-83475.1
116665
-77990.1
-52132.7
11475.2
-1597.12
-1970.68
253.5
522.827
180.486
-1192.45
-3323.65
-6607.23
-7943.2
-7694.31
-13052.3
-16576.2
26585
-191.898
-779.967
-290.335
-1148.38
-384.458
-1099.43
-477.203
-1078.65
-554.517
-1078.75
-609.664
-1071.94
-620.085
-1063.4
-653.947
-1062.05
-679.081
-1060.05
-698.846
-1057.16
-711.843
-1054.27
-716.458
-1051.16
-709.805
-1047.69
-689.233
-1043.88
-654.78
-1043.24
-607.014
-1059.12
-529.835
-1095.95
-380.216
-1056.82
-152.189
-665.593
117.212
-102.56
-677.413
-165.389
-1085.56
-218.345
-1046.48
-271.594
-1025.41
-322.071
-1028.28
-364.035
-1029.98
-395.9
-1031.54
-427.62
-1030.33
-457.907
-1029.77
-486.278
-1028.79
-512.804
-1027.75
-537.506
-1026.46
-560.202
-1025
-581.014
-1023.06
-604.195
-1020.06
-642.397
-1020.92
-695.731
-1042.61
-676.713
-1075.83
-418.406
-923.893
-301.194
-27.7625
-649.661
-42.157
-1071.17
-56.909
-1031.74
-74.3158
-1008.01
-93.2929
-1009.31
-113.917
-1009.36
-135.61
-1009.86
-156.045
-1009.9
-175.664
-1010.16
-194.577
-1009.88
-212.706
-1009.63
-230.073
-1009.1
-246.701
-1008.38
-262.107
-1007.66
-276.068
-1006.11
-293.159
-1003.83
-327.535
-1008.24
-352.089
-1051.28
-232.81
-1043.18
-534.004
6.59549
-656.258
0.536752
-1065.11
-6.64824
-1024.55
-13.5613
-1001.1
-20.7105
-1002.16
-27.6426
-1002.43
-34.3464
-1003.15
-41.1615
-1003.09
-47.9008
-1003.42
-54.4115
-1003.37
-60.5956
-1003.44
-66.344
-1003.35
-71.5836
-1003.14
-76.2392
-1003.01
-79.9192
-1002.43
-81.9551
-1001.8
-88.7732
-1001.42
-110.702
-1029.35
-94.1662
-1059.72
-628.17
13.9692
-670.234
10.6269
-1061.78
5.00557
-1018.94
0.777264
-996.877
-3.50946
-997.878
-7.8777
-998.071
-12.3395
-998.698
-16.6911
-998.743
-20.9135
-999.201
-24.954
-999.336
-28.7587
-999.645
-32.278
-999.837
-35.4311
-999.994
-38.1756
-1000.27
-40.4114
-1000.2
-41.9369
-1000.28
-43.3837
-999.979
-50.277
-1022.46
-45.8901
-1064.1
-674.06
19.0454
-689.279
17.1623
-1059.89
12.3274
-1014.1
9.7208
-994.27
7.14459
-995.301
4.54524
-995.47
1.92078
-996.073
-0.698124
-996.123
-3.33184
-996.567
-5.94246
-996.725
-8.51458
-997.073
-11.0358
-997.315
-13.4596
-997.57
-15.8013
-997.928
-17.9668
-998.036
-19.8932
-998.35
-21.9245
-997.948
-27.7151
-1016.67
-28.5416
-1063.28
-702.602
20.2386
-709.518
18.0453
-1057.7
13.3592
-1009.42
11.0995
-992.011
8.92421
-993.126
6.71942
-993.266
4.4797
-993.834
2.26485
-993.908
0.0498475
-994.352
-2.13921
-994.536
-4.30249
-994.91
-6.44085
-995.177
-8.5226
-995.489
-10.5827
-995.867
-12.5485
-996.07
-14.4384
-996.46
-16.311
-996.075
-20.8955
-1012.09
-23.0483
-1061.13
-725.65
20.651
-730.164
18.0476
-1055.09
13.7075
-1005.07
11.7461
-990.044
9.82024
-991.195
7.8666
-991.307
5.87955
-991.842
3.90547
-991.929
1.91196
-992.354
-0.0769603
-992.542
-2.06768
-992.915
-4.06282
-993.177
-6.03713
-993.511
-8.02935
-993.872
-9.9708
-994.126
-11.9011
-994.527
-13.8094
-994.165
-18.1094
-1007.79
-21.1478
-1058.09
-746.798
20.6576
-750.822
17.4456
-1051.88
13.3521
-1000.98
11.5295
-988.222
9.70919
-989.376
7.8679
-989.466
5.99358
-989.968
4.13276
-990.068
2.25187
-990.474
0.37526
-990.666
-1.50815
-991.032
-3.39959
-991.286
-5.2795
-991.631
-7.18581
-991.965
-9.05511
-992.257
-10.9387
-992.643
-12.7727
-992.331
-16.7753
-1003.78
-20.4716
-1054.39
-767.269
20.5564
-771.375
16.7329
-1048.05
12.9097
-997.152
11.2044
-986.513
9.46567
-987.634
7.71193
-987.709
5.92563
-988.179
4.1518
-988.291
2.35545
-988.674
0.562212
-988.87
-1.24231
-989.225
-3.05616
-989.469
-4.86435
-989.821
-6.70162
-990.126
-8.50804
-990.448
-10.3415
-990.808
-12.1012
-990.57
-15.8542
-1000.03
-20.1672
-1050.08
-787.437
20.4233
-791.796
15.975
-1043.6
12.4172
-993.592
10.8056
-984.899
9.13317
-985.959
7.45183
-986.025
5.73867
-986.464
4.03802
-986.588
2.31402
-986.948
0.594213
-987.147
-1.13939
-987.489
-2.88055
-987.726
-4.6198
-988.08
-6.38672
-988.357
-8.12642
-988.707
-9.90005
-989.033
-11.5793
-988.89
-15.0764
-996.532
-19.9894
-1045.16
-807.426
20.2831
-812.074
15.2134
-1038.53
11.9262
-990.3
10.3993
-983.367
8.791
-984.346
7.1789
-984.408
5.53578
-984.816
3.90485
-984.952
2.24992
-985.289
0.600075
-985.493
-1.06587
-985.819
-2.737
-986.051
-4.40993
-986.403
-6.1077
-986.655
-7.78156
-987.029
-9.49402
-987.317
-11.097
-987.284
-14.3381
-993.289
-19.8471
-1039.65
-827.273
20.1466
-832.217
14.4553
-1032.83
11.4404
-987.282
9.99012
-981.914
8.445
-982.798
6.90026
-982.86
5.32513
-983.237
3.76198
-983.386
2.17428
-983.698
0.592684
-983.908
-1.0071
-984.216
-2.60905
-984.446
-4.21712
-984.792
-5.84534
-985.024
-7.45424
-985.418
-9.10351
-985.666
-10.6342
-985.752
-13.6165
-990.305
-19.7181
-1033.55
-846.991
20.0184
-852.231
13.7044
-1026.52
10.9646
-984.538
9.58608
-980.53
8.10595
-981.313
6.62949
-981.379
5.1229
-981.726
3.62789
-981.886
2.10812
-982.174
0.594458
-982.39
-0.938889
-982.679
-2.47177
-982.909
-4.01581
-983.244
-5.57403
-983.463
-7.1194
-983.869
-8.70472
-984.077
-10.1689
-984.285
-12.8937
-987.578
-19.5854
-1026.85
-866.577
19.9095
-872.137
12.9654
-1019.57
10.5024
-982.071
9.19171
-979.216
7.77806
-979.896
6.37102
-979.968
4.93259
-980.284
3.50542
-980.455
2.05365
-980.718
0.606801
-980.94
-0.860008
-981.209
-2.32424
-981.441
-3.80518
-981.76
-5.29196
-981.973
-6.77581
-982.382
-8.29476
-982.556
-9.6974
-982.88
-12.1666
-985.107
-19.4418
-1019.58
-886.018
19.8437
-891.976
12.2562
-1011.98
10.0767
-979.888
8.83657
-977.972
7.49392
-978.549
6.16072
-978.631
4.79112
-978.91
3.43036
-979.091
2.04485
-979.329
0.659671
-979.551
-0.744964
-979.8
-2.14744
-980.035
-3.57169
-980.333
-4.99162
-980.55
-6.42244
-980.948
-7.87484
-981.101
-9.22323
-981.529
-11.442
-982.886
-19.2806
-1011.73
-905.299
19.8669
-911.841
11.6142
-1003.72
9.74594
-978.018
8.60331
-976.827
7.35237
-977.297
6.11479
-977.391
4.83139
-977.625
3.54885
-977.806
2.23898
-978.017
0.919108
-978.229
-0.423166
-978.457
-1.77128
-978.686
-3.14912
-978.953
-4.51922
-979.178
-5.92393
-979.542
-7.32806
-979.695
-8.66301
-980.193
-10.6686
-980.88
-19.0349
-1003.37
-924.334
20.0761
-931.916
11.102
-994.747
9.59034
-976.505
8.60579
-975.841
7.48461
-976.174
6.37337
-976.279
5.20515
-976.456
4.02034
-976.62
2.80292
-976.798
1.56189
-976.987
0.293554
-977.187
-0.992702
-977.398
-2.31385
-977.631
-3.63503
-977.856
-5.01609
-978.159
-6.37548
-978.335
-7.75558
-978.812
-9.59595
-979.039
-18.4184
-994.545
-942.752
20.7988
-952.714
11.07
-985.017
9.96564
-975.399
9.25304
-975.128
8.35911
-975.279
7.43427
-975.352
6.42643
-975.447
5.35538
-975.548
4.21657
-975.658
3.01267
-975.782
1.74555
-975.919
0.421065
-976.072
-0.963187
-976.246
-2.38087
-976.437
-3.87024
-976.669
-5.32434
-976.88
-6.87538
-977.261
-8.52859
-977.385
-17.5612
-985.511
-960.313
22.2874
12.2716
11.8735
11.7469
11.4691
11.1176
10.672
10.1251
9.46761
8.68684
7.769
6.6975
5.45266
4.01621
2.348
0.468567
-1.79144
-4.17574
-14.6867
-671.476
1646.48
-1089.64
1393.17
-1517.09
1402.45
-1860.78
1318.7
-2166.01
1280.23
-2421.52
1230.51
-2635.24
1188.73
-2806.7
1146.46
-2937.69
1105.99
-3028.77
1066.08
-3080.5
1026.74
-3091.91
986.414
-3058.2
941.286
-2967.39
884.191
-2798.62
806.235
-2524.95
701.334
-2120.28
570.332
-1567.36
422.075
-858.313
265.957
116.687
-216.696
1863.18
-482.551
1659.03
-763.457
1683.36
-1004.14
1559.39
-1236.33
1512.43
-1437.18
1431.36
-1616.19
1367.75
-1768.62
1298.89
-1897.39
1234.77
-2002.54
1171.23
-2084.78
1108.98
-2140.95
1042.59
-2161.13
961.473
-2123.99
847.048
-1991.96
674.212
-1709.27
418.644
-1261.78
122.845
-796.216
-43.4854
-359.089
-171.167
-242.402
-154.852
2018.04
-339.522
1843.71
-484.152
1827.99
-585.988
1661.23
-677.204
1603.65
-735.481
1489.64
-777.9
1410.17
-798.089
1319.08
-800.702
1237.38
-784.796
1155.33
-751.324
1075.51
-700.741
992.008
-634.858
895.595
-556.654
768.849
-469.553
587.117
-374.429
323.529
-287.358
35.7846
-222.722
-108.111
-164.897
-228.983
-407.299
29.8235
1988.22
-5.7693
1879.3
-3.07764
1825.3
17.8
1640.35
42.1505
1579.3
83.7436
1448.05
132.898
1361.02
194.513
1257.47
267.081
1164.82
351.116
1071.3
446.084
980.547
548.48
889.614
649.108
794.97
728.49
689.468
751.231
564.379
663.071
411.692
442.395
256.464
233.005
101.284
81.7563
-77.7291
-325.542
88.2514
1899.97
98.3545
1869.2
142.332
1781.33
192.626
1590.07
244.653
1527.28
304.64
1388.07
367.284
1298.38
436.957
1187.8
510.572
1091.21
587.355
994.519
664.685
903.221
739.529
814.773
807.332
727.17
860.001
636.803
883.546
540.838
852.691
442.55
756.741
352.416
588.572
269.456
331.953
178.895
6.41039
58.5609
1841.41
90.2552
1837.51
131.851
1739.74
168.852
1553.06
206.052
1490.07
245.201
1348.92
279.92
1263.66
316.152
1151.57
351.24
1056.12
393.255
952.504
447.378
849.098
523.418
738.733
627.177
623.41
754.006
509.973
877.521
417.322
943.094
376.976
893.217
402.294
700.788
461.885
385.433
494.251
391.843
-41.5631
1882.97
-51.4071
1847.35
-74.8884
1763.22
-120.906
1599.08
-165.666
1534.84
-225.726
1408.98
-297.71
1335.64
-380.221
1234.08
-462.562
1138.46
-526.953
1016.89
-558.949
881.094
-545.434
725.218
-483.177
561.154
-378.939
405.735
-245.613
283.996
-93.0128
224.376
59.4691
249.812
163.843
357.511
150.276
507.819
542.119
-88.6453
1971.61
-192.907
1951.61
-283.613
1853.92
-394.889
1710.35
-507.48
1647.42
-634.742
1536.24
-773.187
1474.08
-922.068
1382.96
-1072.98
1289.37
-1213.06
1156.97
-1335.8
1003.83
-1438.21
827.631
-1522.33
645.265
-1582.57
465.977
-1591.59
293.012
-1501.85
134.638
-1279.92
27.8756
-903.264
-19.1441
-406.071
10.6236
136.048
67.0027
1904.61
-73.9124
2092.52
-153.556
1933.56
-217.463
1774.26
-274.433
1704.39
-330.183
1591.99
-380.247
1524.15
-427.877
1430.59
-476.109
1337.6
-529.32
1210.18
-590.287
1064.8
-661.954
899.297
-743.765
727.075
-829.546
551.756
-909.005
372.47
-968.129
193.761
-980.212
39.9571
-867.806
-131.551
-552.823
-304.361
-416.774
278.46
1626.15
224.511
2146.47
185.8
1972.27
195.697
1764.36
233.984
1666.1
276.614
1549.35
335.39
1465.37
399.435
1366.54
465.746
1271.29
516.958
1158.96
545.794
1035.96
543.906
901.182
510.747
760.231
447.495
615.005
353.622
466.339
237.07
310.306
130.871
146.149
49.04
-49.7286
-41.6253
-213.702
-458.4
321.397
1304.75
370.236
2097.63
360.992
1981.51
390.772
1734.57
457.038
1599.83
526.767
1479.62
607.449
1384.68
690.639
1283.34
776.67
1185.26
853.254
1082.37
913.152
976.058
948.291
866.04
954.394
754.127
928.172
641.224
866.242
528.267
763.942
412.605
616.55
293.538
410.971
155.848
204.6
-7.33335
-253.8
214.811
1089.93
284.168
2028.27
304.748
1960.93
338.463
1700.86
396.547
1541.75
457.905
1418.26
522.823
1319.76
586.294
1219.87
648.44
1123.11
703.603
1027.21
746.669
932.99
772.167
840.539
776.501
749.791
757.631
660.09
714.556
571.339
644.488
482.67
541.514
396.51
393.947
303.412
197.627
188.983
-56.1733
72.6438
1017.28
118.526
1982.38
170.696
1908.76
221.908
1649.64
283.322
1480.33
347
1354.58
410.007
1256.75
468.756
1161.12
522.691
1069.17
570.494
979.399
611.535
891.946
646.185
805.885
675.604
720.368
698.555
637.135
707.798
562.093
685.436
505.029
608.944
473.001
458.833
453.521
235.995
411.817
179.822
-67.7343
1085.02
-25.0419
1939.69
66.6306
1817.08
139.184
1577.08
208.831
1410.68
279.68
1283.73
353.145
1183.29
431.281
1082.98
515.707
984.74
609.022
886.083
712.487
788.479
824.548
693.823
937.286
607.629
1031.56
542.858
1075.38
518.271
1035.16
545.251
891.279
616.883
645.057
699.742
338.088
718.785
517.909
-151.475
1236.49
-130.04
1918.25
-27.4594
1714.5
38.5378
1511.08
68.3463
1380.87
85.1607
1266.91
109.315
1159.13
150.039
1042.25
212.794
921.983
301.727
797.145
417.682
672.522
556.117
555.384
703.783
459.962
836.282
410.357
916.618
437.934
903.872
557.996
771.983
748.772
532.22
939.505
246.099
1004.91
764.008
-119.349
1355.84
-211.383
2010.28
-310.243
1813.36
-401.12
1601.96
-516.251
1496
-655.362
1406.02
-794.179
1297.95
-921.912
1169.98
-1034.13
1034.2
-1129.1
892.113
-1204.01
747.431
-1252.85
604.226
-1264.65
471.762
-1221.23
366.943
-1100.06
316.764
-889.948
347.882
-609.324
468.15
-317.921
648.103
-105.929
792.917
658.079
172.949
1182.88
242.375
1940.85
58.5482
1997.19
-196.461
1856.96
-434.127
1733.67
-658.925
1630.81
-878.836
1517.86
-1095.67
1386.81
-1309.99
1248.52
-1523.58
1105.7
-1735.33
959.179
-1937.57
806.461
-2113.09
647.287
-2231
484.852
-2243.77
329.534
-2093.57
197.678
-1732.93
107.517
-1156.96
72.1323
-473.448
109.411
184.631
446.449
736.431
804.858
1582.44
762.05
2039.99
527.608
2091.4
301.912
1959.36
117.626
1815.09
-50.7426
1686.23
-214.763
1550.83
-373.082
1406.84
-524.561
1257.18
-668.947
1103.57
-806.428
943.939
-936.329
777.193
-1054.71
603.233
-1150.47
425.299
-1198.38
245.586
-1163.55
72.6915
-973.685
-117.726
-572.957
-291.313
-388.325
309.242
427.183
495.186
1396.48
467.979
2067.2
373.037
2186.33
295.703
2036.7
251.022
1859.76
236.461
1700.79
231.222
1556.05
225.504
1412.57
216.936
1265.74
204.207
1116.31
184.242
963.901
153.484
807.96
109.524
647.197
53.5652
481.274
-3.39173
302.564
-19.9108
89.2589
-23.0007
-114.586
-69.6246
-244.66
-457.948
-32.7314
47.1236
159.366
276.792
381.124
484.48
541.567
627.489
714.298
792.604
861.764
919.379
961.003
981.705
971.368
901.981
739.14
499.85
277.183
)
;

boundaryField
{
    outletWall
    {
        type            calculated;
        value           nonuniform List<scalar> 
60
(
4150.23
6709.12
13877
12567.6
-6036.53
31277.2
35253.1
1952.41
11503.3
14781.9
20640.8
21056.7
16823.5
-18783.8
-35922.4
-85639.5
-28892.3
-172280
-179818
461669
71478.9
-56009.5
353.446
-19300.3
-6860.4
-8724.48
-3697.18
-1629.08
2738.89
5620.49
3412.13
-520.224
-4420.06
-6084.32
-11605.6
-9200.14
-21597.6
-1101.39
-61384.7
73867
69002.6
54121.6
-26107.2
-5302.59
19496.2
3284.18
-6231.03
-11715
-18620.5
-23700.4
-23350.8
-22039.7
-21721.6
-22505.7
-33250.7
-67379.9
-14451.6
-152518
-174979
446743
)
;
    }
    fineWalls
    {
        type            calculated;
        value           uniform 0;
    }
    fineFrontAndBack
    {
        type            calculated;
        value           nonuniform List<scalar> 
960
(
-2.07216e-10
3.33372e-10
-1.45866e-11
-1.02843e-11
-1.36631e-10
-3.26742e-11
-3.75162e-11
-3.52909e-11
-1.55904e-10
-2.59575e-11
-1.71236e-11
-4.04554e-11
-4.3201e-12
-1.34915e-12
-7.98405e-12
-4.31813e-12
-4.26769e-12
-2.14221e-11
-4.24255e-12
-4.98943e-12
-1.07123e-12
-1.52295e-12
-1.31633e-12
-1.31316e-12
-1.23523e-12
-1.15346e-12
-1.05789e-11
-8.25319e-13
-7.79709e-13
-6.71019e-13
-4.42467e-13
-7.48024e-15
7.26094e-13
1.86821e-12
3.25244e-12
4.50391e-12
5.12618e-12
4.92342e-12
4.42346e-12
4.50956e-12
1.29431e-10
4.73957e-11
4.64839e-11
3.89976e-11
1.21603e-10
2.15296e-11
2.97224e-11
4.63548e-11
3.59772e-10
7.95759e-11
8.77415e-11
5.18809e-10
8.93883e-11
1.0398e-10
1.33506e-10
1.11842e-09
2.20152e-10
2.13713e-10
1.83683e-10
6.09143e-10
2.71587e-13
8.89194e-13
7.55867e-13
6.86757e-13
5.59072e-13
4.11005e-13
3.19827e-13
2.57242e-13
2.0423e-13
1.78698e-13
1.62805e-13
1.42669e-13
1.60916e-13
-2.07903e-11
-5.03589e-13
-6.22417e-13
-7.38502e-13
-1.04493e-12
-1.69175e-12
-2.52162e-12
-2.4282e-11
-2.74689e-11
-1.9152e-10
-3.93522e-11
-4.81547e-11
-2.59764e-10
-3.19175e-11
-3.19703e-11
-1.34009e-10
-2.78382e-11
-5.39037e-11
-3.23641e-10
-6.21487e-11
-3.47295e-11
-1.75016e-11
-4.54708e-11
-1.09412e-11
-2.40153e-11
-8.68696e-11
6.68717e-11
-1.17728e-08
-2.40375e-10
5.84142e-10
-1.48071e-10
1.36263e-11
1.27397e-11
2.48959e-10
7.49354e-10
6.50231e-10
5.31324e-10
3.59478e-10
1.94072e-10
8.20749e-11
-2.09831e-11
-2.91069e-11
5.06637e-11
6.62989e-11
2.51165e-11
-1.32625e-10
3.49004e-09
2.05416e-10
7.46833e-10
-1.3912e-10
5.43166e-11
7.9175e-11
4.5271e-10
4.81841e-10
4.18104e-10
3.37514e-10
2.54017e-10
1.6873e-10
1.00321e-10
1.99116e-11
5.68964e-11
1.31074e-10
1.00125e-10
4.8705e-11
-1.13404e-11
-2.39753e-11
4.07019e-10
7.86666e-10
4.06087e-10
1.40614e-11
2.16434e-10
6.10198e-10
5.04998e-10
4.15848e-10
3.43452e-10
2.83025e-10
2.13739e-10
1.34984e-10
2.42627e-11
8.8704e-11
1.928e-10
1.42597e-10
6.93786e-11
-5.14153e-11
7.62793e-10
9.5165e-10
7.83005e-10
4.79396e-10
6.57617e-11
3.22742e-10
5.08274e-10
4.57972e-10
3.4258e-10
2.61882e-10
2.30735e-10
2.10832e-10
1.42577e-10
1.46912e-11
1.1943e-10
2.4313e-10
1.79388e-10
9.62426e-11
-3.4183e-11
6.03264e-10
9.29995e-10
7.63329e-10
3.70998e-10
1.32392e-10
4.16449e-10
4.73742e-10
3.77179e-10
2.25788e-10
1.36133e-10
1.25316e-10
1.59582e-10
1.1051e-10
8.60362e-12
1.61211e-10
2.67203e-10
2.08168e-10
1.32795e-10
7.95046e-12
6.86959e-10
9.00691e-10
7.07275e-10
2.36935e-10
1.98509e-10
4.511e-10
4.15603e-10
2.6856e-10
1.03121e-10
2.64681e-11
1.96633e-11
9.11923e-11
6.26481e-11
1.5291e-11
2.08815e-10
2.88102e-10
2.35759e-10
1.54957e-10
9.17788e-11
6.99849e-10
8.42435e-10
6.31465e-10
1.4977e-10
2.13137e-10
2.81796e-10
3.41634e-10
1.56359e-10
2.08406e-11
-1.00344e-11
-1.50707e-11
4.92861e-11
1.88662e-11
3.60927e-11
2.53116e-10
3.18814e-10
2.76758e-10
1.66522e-10
2.09232e-10
7.18886e-10
7.7867e-10
5.63518e-10
9.80586e-11
1.83534e-10
2.80837e-10
2.92274e-10
7.28283e-11
-4.76057e-12
3.6615e-12
6.02969e-12
3.63876e-11
-1.12838e-11
6.25749e-11
3.056e-10
3.64866e-10
3.35743e-10
1.60157e-10
3.39711e-10
7.3314e-10
7.08696e-10
5.20644e-10
1.05707e-10
3.44662e-11
2.76231e-10
2.57544e-10
3.48323e-11
-6.4105e-12
1.19755e-11
1.45603e-11
1.00163e-11
-2.81714e-11
8.88606e-11
2.966e-10
3.82456e-10
4.00418e-10
1.69194e-10
1.31286e-10
7.304e-10
6.7825e-10
5.22957e-10
2.5619e-10
2.39908e-10
3.32509e-10
2.10291e-10
1.44264e-11
-1.03414e-11
8.27812e-12
7.31062e-13
7.31559e-11
-2.37691e-11
1.11241e-10
4.07193e-10
4.91886e-10
4.32708e-10
1.95951e-10
-7.49259e-12
6.56064e-10
5.28883e-10
3.82846e-10
3.26128e-10
3.37393e-10
2.26409e-10
7.3558e-11
-1.92301e-11
-1.43577e-11
3.69022e-12
-4.0127e-13
8.41379e-11
-3.08671e-12
1.22012e-10
4.49347e-10
6.1988e-10
4.40122e-10
1.93203e-10
5.1817e-11
3.63529e-10
3.49762e-11
-4.22904e-11
-4.19579e-11
-4.7103e-11
-6.95236e-11
-7.73596e-11
-4.72795e-11
-1.6247e-11
-4.11444e-13
9.71307e-12
6.67329e-11
3.39762e-11
1.28879e-10
4.26787e-10
6.0766e-10
3.95243e-10
1.78941e-10
6.05346e-11
1.59935e-10
-5.21202e-11
-7.93023e-12
-1.11012e-11
-7.20744e-12
-7.59759e-12
-6.27667e-11
-3.89946e-11
-1.60401e-11
-2.73797e-12
2.38588e-11
6.12099e-11
8.38751e-11
1.57282e-10
3.76903e-10
4.93375e-10
3.24519e-10
1.5648e-10
6.20508e-11
5.67137e-11
-2.75009e-11
-1.65598e-11
-1.67684e-11
-8.30082e-12
-1.62102e-11
-4.76998e-11
-2.6611e-11
-1.16789e-11
-3.80364e-12
2.57078e-11
6.36393e-11
1.28105e-10
2.03927e-10
3.34404e-10
3.89468e-10
2.56623e-10
1.31788e-10
5.92576e-11
8.29777e-12
-1.55578e-11
-1.65604e-11
-1.64242e-11
1.35076e-12
1.40307e-12
-7.7855e-12
-7.87388e-12
-4.51237e-12
-5.10534e-12
1.69729e-11
6.04808e-11
1.39263e-10
2.19647e-10
2.88613e-10
2.97192e-10
1.90133e-10
1.07064e-10
5.50686e-11
-9.30538e-12
-1.35322e-11
-1.74576e-11
-2.17195e-11
8.56422e-15
2.30329e-13
7.49729e-13
6.80582e-13
4.62499e-13
-3.87948e-12
8.82738e-12
4.57022e-11
1.14589e-10
1.7976e-10
2.12236e-10
1.98972e-10
1.28105e-10
8.22413e-11
5.86599e-11
-1.71827e-11
-1.52557e-11
-1.78788e-11
-2.20462e-11
-5.43526e-12
3.74137e-14
-7.26182e-14
-7.56726e-14
8.46709e-13
-9.94106e-13
4.25622e-12
2.92942e-11
7.80323e-11
1.17713e-10
1.30958e-10
1.19474e-10
8.24489e-11
6.09361e-11
6.8195e-11
4.87447e-13
-4.68425e-12
-1.806e-11
-1.7428e-11
-4.72491e-12
-1.59024e-13
-7.41747e-15
-7.46221e-14
-6.47772e-14
2.3747e-13
9.40109e-13
1.48391e-11
4.00326e-11
6.78744e-11
7.73509e-11
7.30633e-11
5.35951e-11
4.58298e-11
8.31605e-11
-7.64408e-11
-2.76699e-13
-1.75482e-11
-4.06434e-12
-2.84661e-12
-3.24874e-13
2.26406e-14
1.2551e-14
-1.25835e-13
6.53301e-14
-4.06292e-13
3.80232e-12
1.8349e-11
3.90265e-11
4.71408e-11
4.51691e-11
5.21102e-11
5.12205e-11
1.22348e-10
2.75888e-10
1.14875e-11
-1.25003e-11
2.84526e-12
-4.98012e-13
-1.95971e-13
-1.09795e-15
3.05679e-15
2.06475e-14
-4.80599e-14
-2.14478e-14
-1.17089e-12
1.75563e-12
1.88155e-11
5.63745e-11
7.88705e-11
7.755e-11
3.8681e-11
-1.16964e-10
2.07216e-10
-3.33372e-10
1.45866e-11
1.02843e-11
1.36631e-10
3.26742e-11
3.75162e-11
3.52909e-11
1.55904e-10
2.59575e-11
1.71236e-11
4.04554e-11
4.3201e-12
1.34915e-12
7.98405e-12
4.31813e-12
4.26769e-12
2.14221e-11
4.24255e-12
4.98943e-12
1.07123e-12
1.52295e-12
1.31633e-12
1.31316e-12
1.23523e-12
1.15346e-12
1.05789e-11
8.25319e-13
7.79709e-13
6.71019e-13
4.42467e-13
7.48024e-15
-7.26094e-13
-1.86821e-12
-3.25244e-12
-4.50391e-12
-5.12618e-12
-4.92342e-12
-4.42346e-12
-4.50956e-12
-1.29431e-10
-4.73957e-11
-4.64839e-11
-3.89976e-11
-1.21603e-10
-2.15296e-11
-2.97224e-11
-4.63548e-11
-3.59772e-10
-7.95759e-11
-8.77415e-11
-5.18809e-10
-8.93883e-11
-1.0398e-10
-1.33506e-10
-1.11842e-09
-2.20152e-10
-2.13713e-10
-1.83683e-10
-6.09143e-10
-2.71587e-13
-8.89194e-13
-7.55867e-13
-6.86757e-13
-5.59072e-13
-4.11005e-13
-3.19827e-13
-2.57242e-13
-2.0423e-13
-1.78698e-13
-1.62805e-13
-1.42669e-13
-1.60916e-13
2.07903e-11
5.03589e-13
6.22417e-13
7.38502e-13
1.04493e-12
1.69175e-12
2.52162e-12
2.4282e-11
2.74689e-11
1.9152e-10
3.93522e-11
4.81547e-11
2.59764e-10
3.19175e-11
3.19703e-11
1.34009e-10
2.78382e-11
5.39037e-11
3.23641e-10
6.21487e-11
3.47295e-11
1.75016e-11
4.54708e-11
1.09412e-11
2.40153e-11
8.68696e-11
-6.68717e-11
1.17728e-08
2.40375e-10
-5.84142e-10
1.48071e-10
-1.36263e-11
-1.27397e-11
-2.48959e-10
-7.49354e-10
-6.50231e-10
-5.31324e-10
-3.59478e-10
-1.94072e-10
-8.20749e-11
2.09831e-11
2.91069e-11
-5.06637e-11
-6.62989e-11
-2.51165e-11
1.32625e-10
-3.49004e-09
-2.05416e-10
-7.46833e-10
1.3912e-10
-5.43166e-11
-7.9175e-11
-4.5271e-10
-4.81841e-10
-4.18104e-10
-3.37514e-10
-2.54017e-10
-1.6873e-10
-1.00321e-10
-1.99116e-11
-5.68964e-11
-1.31074e-10
-1.00125e-10
-4.8705e-11
1.13404e-11
2.39753e-11
-4.07019e-10
-7.86666e-10
-4.06087e-10
-1.40614e-11
-2.16434e-10
-6.10198e-10
-5.04998e-10
-4.15848e-10
-3.43452e-10
-2.83025e-10
-2.13739e-10
-1.34984e-10
-2.42627e-11
-8.8704e-11
-1.928e-10
-1.42597e-10
-6.93786e-11
5.14153e-11
-7.62793e-10
-9.5165e-10
-7.83005e-10
-4.79396e-10
-6.57617e-11
-3.22742e-10
-5.08274e-10
-4.57972e-10
-3.4258e-10
-2.61882e-10
-2.30735e-10
-2.10832e-10
-1.42577e-10
-1.46912e-11
-1.1943e-10
-2.4313e-10
-1.79388e-10
-9.62426e-11
3.4183e-11
-6.03264e-10
-9.29995e-10
-7.63329e-10
-3.70998e-10
-1.32392e-10
-4.16449e-10
-4.73742e-10
-3.77179e-10
-2.25788e-10
-1.36133e-10
-1.25316e-10
-1.59582e-10
-1.1051e-10
-8.60362e-12
-1.61211e-10
-2.67203e-10
-2.08168e-10
-1.32795e-10
-7.95046e-12
-6.86959e-10
-9.00691e-10
-7.07275e-10
-2.36935e-10
-1.98509e-10
-4.511e-10
-4.15603e-10
-2.6856e-10
-1.03121e-10
-2.64681e-11
-1.96633e-11
-9.11923e-11
-6.26481e-11
-1.5291e-11