/*--------------------------------*- C++ -*----------------------------------*\
| =========                 |                                                 |
| \\      /  F ield         | OpenFOAM: The Open Source CFD Toolbox           |
|  \\    /   O peration     | Version:  4.1                                   |
|   \\  /    A nd           | Web:      www.OpenFOAM.org                      |
|    \\/     M anipulation  |                                                 |
\*---------------------------------------------------------------------------*/
FoamFile
{
    version     2.0;
    format      ascii;
    class       volVectorField;
    location    "20";
    object      U;
}
// * * * * * * * * * * * * * * * * * * * * * * * * * * * * * * * * * * * * * //

dimensions      [0 1 -1 0 0 0 0];

internalField   nonuniform List<vector> 
1280
(
(-1.4975e-13 -41.7883 -195.068)
(5.66598e-14 42.3439 50.4698)
(-1.09669e-14 -26.8704 -11.4481)
(-7.43221e-15 -14.9467 -6.34636)
(-2.32218e-14 -26.0627 -9.74783)
(-2.36128e-14 -17.4854 -7.42191)
(-2.7112e-14 -18.2601 -8.14818)
(-2.56197e-14 -15.1138 -8.4381)
(-2.60341e-14 -18.6891 -10.62)
(-1.85999e-14 -12.1836 -4.7257)
(-1.23946e-14 -11.8168 -5.06068)
(-7.51131e-15 -11.9749 -5.3267)
(-3.23086e-15 -9.03871 -0.649545)
(-9.74999e-16 -8.95409 0.860511)
(-8.3999e-16 -8.97384 4.45048)
(-3.1206e-15 -6.45164 8.34124)
(-3.08415e-15 -8.22246 9.2073)
(-3.64089e-15 -7.75145 12.7283)
(-3.10215e-15 -5.93822 12.2361)
(-3.60573e-15 -8.96863 13.9384)
(-4.39481e-15 -9.6102 17.473)
(-6.248e-15 -9.52553 18.9273)
(-5.40034e-15 -9.73026 18.5621)
(-5.38733e-15 -9.61643 18.3475)
(-5.06762e-15 -9.61496 17.5319)
(-4.73214e-15 -9.05526 16.5103)
(-2.23008e-15 -10.6478 10.9972)
(-3.38593e-15 -3.46732 15.6815)
(-3.19881e-15 -3.73568 15.0398)
(-2.7529e-15 -3.63259 14.6682)
(-1.81525e-15 -3.71859 14.1825)
(-3.06882e-17 -3.69326 13.5676)
(2.97885e-15 -3.72006 12.7366)
(7.66446e-15 -3.69651 11.6521)
(1.33433e-14 -3.65049 10.3681)
(1.84776e-14 -3.56656 8.93028)
(2.10305e-14 -3.44068 7.0635)
(2.01986e-14 -3.08969 3.93896)
(1.81475e-14 -2.6562 -0.89356)
(1.85008e-14 -2.24385 -5.05718)
(2.25294e-14 0.965011 -4.7891)
(3.80689e-14 -1.01141 -2.70572)
(3.73364e-14 -0.027067 -3.8072)
(3.89785e-14 0.158055 -3.96308)
(2.11668e-14 3.32587 -5.4359)
(1.72929e-14 1.97386 -3.69631)
(2.38734e-14 2.80717 -3.43744)
(3.72328e-14 2.82553 -2.68531)
(6.45437e-14 4.78129 -2.16127)
(6.63166e-14 3.91357 -0.73676)
(7.25753e-14 4.04843 -0.822664)
(9.03062e-14 5.72305 0.710968)
(7.17978e-14 4.11539 0.97673)
(8.35181e-14 4.53301 0.94079)
(1.07234e-13 4.10545 0.556436)
(1.94676e-13 5.02625 3.52961)
(1.77492e-13 3.34869 3.65169)
(1.71657e-13 3.43623 4.14851)
(1.47537e-13 2.54943 4.09073)
(1.05494e-13 3.24438 10.3181)
(1.1142e-15 1.01487 5.18822)
(3.64798e-15 -0.146328 5.10253)
(3.10099e-15 0.0146347 5.06221)
(2.81747e-15 -0.0238285 5.22779)
(2.29363e-15 0.157112 5.37523)
(1.68617e-15 0.339331 5.75567)
(1.31211e-15 0.274915 7.03759)
(1.05535e-15 0.17841 8.70876)
(8.37865e-16 -0.0702314 10.5439)
(7.33121e-16 -0.05286 12.5195)
(6.67918e-16 -0.495381 14.4779)
(5.85307e-16 -0.181085 16.358)
(6.60168e-16 -1.42668 18.6354)
(-4.38267e-15 7.60083 19.4648)
(-2.06601e-15 0.0228642 19.1353)
(-2.55351e-15 1.25813 20.8614)
(-3.02975e-15 1.25336 21.0069)
(-4.28688e-15 1.01166 17.7657)
(-6.94052e-15 0.573488 9.12184)
(-1.03451e-14 0.414063 -0.0480233)
(-1.7548e-14 -0.0448272 -3.61568)
(-1.98511e-14 0.711571 -1.71459)
(-3.25506e-14 -3.23619 -3.83595)
(-2.84388e-14 -1.72384 -5.14811)
(-3.48001e-14 -0.975809 -4.91769)
(-4.78918e-14 -2.12888 -6.29255)
(-2.27547e-14 -2.25417 -4.28549)
(-2.27928e-14 -1.14398 -4.80318)
(-2.77638e-14 -2.10906 -7.04284)
(-1.92273e-14 -2.24715 -6.4939)
(-3.8064e-14 -1.40342 -6.96309)
(-5.90633e-14 -0.810506 -8.81197)
(-4.54578e-14 -0.56597 -6.86482)
(-2.50981e-14 -0.494348 -5.10996)
(-1.26479e-14 1.46496 -2.98855)
(-7.7282e-15 -5.59963 -7.96111)
(-7.90693e-15 3.55646 -0.656904)
(-1.7236e-14 1.1045 20.3761)
(-1.55452e-14 -12.6044 3.93738)
(4.83264e-14 -23.8738 -229.572)
(-1.30809e-12 772.138 447.105)
(-2.67083e-14 -74.0206 -192.399)
(6.49046e-14 -146.293 -38.809)
(-1.64524e-14 -35.0107 128.489)
(1.51403e-15 -44.1145 -10.824)
(1.41552e-15 -18.7143 18.6912)
(2.76621e-14 -6.38623 15.4475)
(8.32615e-14 21.6866 12.4169)
(7.22479e-14 25.5046 -7.94191)
(5.90359e-14 27.3147 -18.0439)
(3.9942e-14 25.0813 -23.0515)
(2.15636e-14 20.753 -24.5017)
(9.11943e-15 10.372 -18.6447)
(-2.33145e-15 43.3073 -41.503)
(-3.2341e-15 29.9874 31.7423)
(5.6293e-15 2.59889 13.2494)
(7.36655e-15 14.5624 16.9629)
(2.79072e-15 14.8154 2.52481)
(-1.47361e-14 18.2853 -4.36883)
(3.87783e-13 -229.273 -179.75)
(2.28239e-14 23.73 223.548)
(8.29814e-14 -134.655 -42.2815)
(-1.54578e-14 30.355 109.03)
(6.03518e-15 -7.5966 -20.1535)
(8.79722e-15 -20.398 31.2136)
(5.03011e-14 -6.6438 12.1948)
(5.35379e-14 7.81436 -3.1408)
(4.6456e-14 8.56158 -11.4012)
(3.75016e-14 1.97308 -15.5428)
(2.82241e-14 -4.72962 -14.7856)
(1.87478e-14 -7.07597 -11.6505)
(1.11468e-14 -2.28542 -11.2847)
(2.2124e-15 -17.0941 -11.6111)
(6.32183e-15 -12.9341 20.1692)
(1.45638e-14 -2.65487 12.463)
(1.1125e-14 4.60199 10.7551)
(5.41167e-15 8.24677 5.13997)
(-1.26005e-15 -8.50452 -2.50261)
(-2.66392e-15 262.964 -16.5917)
(4.52243e-14 65.5253 -11.8516)
(8.74074e-14 -103.98 -34.3268)
(4.51207e-14 -23.7251 0.125563)
(1.56237e-15 1.08642 25.9846)
(2.40482e-14 -19.4683 28.1732)
(6.77998e-14 6.17297 4.54946)
(5.61108e-14 19.7877 -6.4159)
(4.62054e-14 19.0597 -15.2469)
(3.81613e-14 14.6823 -19.8645)
(3.14473e-14 9.97127 -20.9032)
(2.37487e-14 7.10666 -19.2485)
(1.49982e-14 6.79702 -14.8722)
(2.69586e-15 -5.59263 -7.84135)
(9.856e-15 -6.68318 12.4561)
(2.14222e-14 4.84511 11.773)
(1.58441e-14 9.98054 12.4577)
(7.70874e-15 13.8376 8.16536)
(-5.71281e-15 8.78349 2.51326)
(8.47548e-14 28.1337 -36.8254)
(1.05739e-13 -66.9721 107.756)
(8.70005e-14 -99.8029 -23.0489)
(5.32662e-14 -11.8875 4.22559)
(7.30686e-15 -11.7701 25.362)
(3.58603e-14 -14.1953 20.9226)
(5.64749e-14 9.71469 -2.09676)
(5.08858e-14 20.9023 -12.1767)
(3.80644e-14 18.4293 -18.5838)
(2.9098e-14 10.8185 -21.6683)
(2.56372e-14 2.80376 -21.9348)
(2.34257e-14 -2.0901 -20.2342)
(1.58419e-14 -3.26567 -13.7173)
(1.63235e-15 -9.88777 -3.82491)
(1.327e-14 -10.032 8.6906)
(2.70144e-14 -1.40449 10.9574)
(1.9932e-14 9.4705 12.5338)
(1.06936e-14 14.1791 9.18916)
(-3.79812e-15 6.56516 5.98101)
(6.70294e-14 117.389 -13.6463)
(1.03333e-13 36.2001 48.5592)
(8.48144e-14 -85.5311 -11.2556)
(4.1222e-14 -17.7934 14.5057)
(1.47102e-14 -15.929 17.7892)
(4.62721e-14 -7.66362 14.7832)
(5.2638e-14 17.006 -8.21886)
(4.19087e-14 25.1168 -15.1925)
(2.50875e-14 21.0887 -18.1783)
(1.51259e-14 13.3956 -19.5528)
(1.3924e-14 5.79672 -20.3953)
(1.77314e-14 0.534741 -20.4406)
(1.22789e-14 -4.20773 -13.5721)
(9.55958e-16 -15.3418 0.117277)
(1.79123e-14 -12.887 7.07065)
(2.96892e-14 0.276435 10.56)
(2.31298e-14 10.3125 11.7633)
(1.4755e-14 16.0884 10.2734)
(8.83384e-16 13.3411 8.75314)
(7.63288e-14 56.7298 2.03329)
(1.00077e-13 -15.8449 62.0014)
(7.85861e-14 -73.3507 0.963141)
(2.63261e-14 -24.1873 18.46)
(2.20566e-14 -14.5438 11.4521)
(5.01223e-14 -1.90754 8.85083)
(4.61782e-14 22.3276 -13.7033)
(2.984e-14 26.1111 -14.9552)
(1.14579e-14 20.7165 -14.1692)
(2.9409e-15 12.7881 -14.5749)
(2.18481e-15 4.70464 -15.9576)
(1.01325e-14 -2.68417 -18.04)
(6.9609e-15 -9.00911 -9.98919)
(1.699e-15 -18.9401 2.99574)
(2.32017e-14 -14.2985 5.43651)
(3.20114e-14 -2.60271 8.88196)
(2.61954e-14 10.1366 10.0367)
(1.72175e-14 16.2294 9.93985)
(1.01976e-14 16.0335 11.1387)
(7.7761e-14 64.1901 17.7383)
(9.36039e-14 -7.86011 52.1945)
(7.01627e-14 -63.4102 10.2729)
(1.66411e-14 -24.0594 15.0554)
(2.36818e-14 -12.3364 3.79584)
(3.13107e-14 1.01263 -3.14372)
(3.79594e-14 25.3298 -18.2004)
(1.73732e-14 25.6206 -11.6063)
(2.31563e-15 20.4427 -9.1266)
(-1.11494e-15 13.5807 -10.5584)
(-1.67453e-15 6.22824 -12.3559)
(5.47624e-15 -3.37721 -15.377)
(2.09624e-15 -13.2532 -5.6602)
(4.0103e-15 -21.23 3.72492)
(2.8124e-14 -14.7806 3.47629)
(3.54237e-14 -3.47781 6.53549)
(3.07509e-14 9.91533 7.42127)
(1.85025e-14 15.6397 8.68729)
(2.3248e-14 16.196 11.8071)
(7.98762e-14 38.151 28.5451)
(8.65188e-14 -8.97383 47.3143)
(6.26131e-14 -53.4539 15.4735)
(1.08954e-14 -21.2869 5.48455)
(2.03927e-14 -8.45047 -0.379812)
(3.12042e-14 7.21144 -16.1279)
(3.24749e-14 25.2242 -22.4186)
(8.09203e-15 23.0646 -8.10324)
(-5.28952e-16 20.3138 -6.29245)
(4.06833e-16 14.3924 -8.92196)
(6.69965e-16 6.86767 -11.2454)
(4.04306e-15 -5.01739 -12.9522)
(-1.25376e-15 -16.7254 -2.26566)
(6.95277e-15 -22.37 2.55616)
(3.39556e-14 -14.9494 0.941907)
(4.05406e-14 -4.51804 3.61747)
(3.73048e-14 9.4486 3.86895)
(1.77952e-14 15.0076 5.93211)
(3.77457e-14 12.6805 5.90811)
(8.146e-14 28.1086 39.8388)
(7.8744e-14 -10.4149 43.1813)
(5.78493e-14 -41.5898 17.3678)
(1.17452e-14 -18.2627 -11.3863)
(3.82958e-15 -3.90267 -11.6533)
(3.06923e-14 11.8275 -29.9546)
(2.8616e-14 22.0661 -27.5985)
(3.87025e-15 19.4884 -7.47885)
(-7.12278e-16 20.6863 -4.84373)
(1.33061e-15 15.5705 -6.97528)
(1.61781e-15 7.62027 -9.94789)
(1.11293e-15 -6.98607 -10.4458)
(-3.13016e-15 -19.3162 -0.401997)
(9.8734e-15 -22.4685 0.370017)
(3.29555e-14 -14.8288 -1.92393)
(4.24951e-14 -5.67668 0.393346)
(4.44909e-14 8.94869 -0.364452)
(1.87993e-14 15.1689 2.12283)
(1.45873e-14 13.2197 0.781504)
(8.11555e-14 10.386 48.5183)
(7.53611e-14 -8.58795 43.1573)
(5.81063e-14 -25.977 17.1336)
(2.84655e-14 -13.106 -27.1127)
(2.66565e-14 -1.73834 -39.3542)
(3.69454e-14 11.8287 -45.6531)
(2.39354e-14 15.9144 -34.1007)
(1.60293e-15 14.1398 -9.60183)
(-1.14904e-15 20.1043 -2.5334)
(9.19791e-16 16.4761 -3.76701)
(8.12291e-17 8.08687 -7.44498)
(1.07295e-14 -8.87134 -7.69282)
(-2.64101e-15 -20.8822 0.014438)
(1.23601e-14 -21.7674 -2.15637)
(4.67222e-14 -14.5199 -4.68128)
(5.4654e-14 -5.93613 -3.52742)
(4.80787e-14 8.41043 -4.69549)
(2.17724e-14 14.9053 -2.41842)
(-8.3251e-16 12.2492 -2.08975)
(7.28959e-14 -1.74346 53.932)
(5.87648e-14 -7.44663 45.2149)
(4.25385e-14 -5.45245 17.1788)
(3.62365e-14 -1.53651 -33.7965)
(3.74881e-14 3.47742 -51.0073)
(2.51566e-14 9.66623 -49.5563)
(7.7483e-15 7.98327 -36.0007)
(-2.13668e-15 6.8816 -11.022)
(-1.5953e-15 18.4124 0.508375)
(4.10024e-16 17.4748 -0.470601)
(-4.45856e-17 8.85339 -4.43173)
(9.34865e-15 -10.0982 -5.09338)
(-3.42967e-16 -21.3396 -0.790679)
(1.35569e-14 -20.6145 -4.73168)
(4.99274e-14 -13.9677 -7.35481)
(6.88756e-14 -5.75201 -7.42863)
(4.89025e-14 8.0368 -9.0013)
(2.1467e-14 14.4178 -6.80633)
(5.75744e-15 11.4545 -5.45433)
(4.03921e-14 -21.4674 52.7379)
(3.88624e-15 -5.70776 45.1418)
(-4.69894e-15 18.7526 15.9623)
(-4.66199e-15 11.6526 -30.1466)
(-5.23366e-15 7.30099 -42.6687)
(-7.72484e-15 6.56195 -35.1379)
(-8.59551e-15 1.47359 -26.9118)
(-5.25328e-15 -0.0960956 -8.61271)
(-1.80522e-15 16.3898 2.75756)
(-4.5716e-17 18.4439 2.83601)
(1.07923e-15 9.63258 -0.597786)
(7.41477e-15 -10.3443 -3.05345)
(3.77513e-15 -20.7832 -2.44905)
(1.43198e-14 -19.2292 -7.31353)
(4.74208e-14 -13.2249 -10.0391)
(6.75177e-14 -5.45319 -10.934)
(4.39159e-14 7.7653 -13.1916)
(1.98824e-14 13.6951 -10.9365)
(6.72606e-15 10.763 -7.80687)
(1.77706e-14 -31.0109 44.5849)
(-5.79114e-15 -0.0773627 44.7246)
(-8.81137e-16 36.0685 13.4071)
(-1.23347e-15 17.6271 -14.6982)
(-8.00826e-16 5.93255 -14.2979)
(-8.44177e-16 3.47442 0.0519859)
(-6.97407e-15 -2.61233 -7.55613)
(-4.33273e-15 -3.65551 -0.903029)
(-1.78223e-15 14.7049 2.94662)
(-3.04218e-16 18.9279 6.12272)
(2.65098e-15 10.5587 3.50891)
(6.8011e-15 -9.382 -1.93834)
(9.31946e-15 -19.3964 -4.64821)
(1.74757e-14 -17.6798 -9.85125)
(4.18782e-14 -12.2867 -12.5882)
(5.48194e-14 -4.50304 -14.2315)
(3.60577e-14 7.7293 -17.3027)
(1.73867e-14 12.4485 -14.2207)
(6.89454e-15 9.76367 -8.72827)
(6.30152e-15 -59.154 34.1426)
(-3.05565e-15 -11.2011 41.9748)
(-1.83998e-15 49.0792 9.43336)
(-1.86315e-15 16.6892 2.58756)
(-9.22313e-16 1.15098 15.9212)
(-1.80113e-15 4.61569 12.256)
(-5.29998e-15 -1.8851 -0.153665)
(-2.95678e-15 -3.84573 -1.59998)
(-1.29766e-15 12.3691 0.716033)
(-4.22627e-16 18.4702 7.89095)
(2.85643e-15 12.1622 6.99893)
(7.07103e-15 -7.07409 -1.76678)
(1.42339e-14 -17.4441 -7.50979)
(2.26585e-14 -16.1596 -12.7376)
(3.7156e-14 -11.3034 -15.5577)
(4.32742e-14 -3.82834 -18.4407)
(2.85137e-14 7.42262 -21.3199)
(1.46431e-14 10.311 -16.5221)
(6.58418e-15 4.98106 -8.88222)
(9.21975e-16 -50.5353 19.7308)
(-1.72864e-15 14.6032 55.7957)
(-1.84005e-15 59.6534 2.33184)
(-1.82491e-15 14.3207 6.96424)
(1.50084e-16 0.713294 13.8976)
(1.55897e-16 9.98884 12.1447)
(-8.65056e-16 2.17734 1.0942)
(-8.74875e-16 -2.26553 -3.57097)
(-5.01374e-16 9.46751 -2.46677)
(-5.6726e-16 16.7861 6.93179)
(1.88588e-15 14.0681 9.79555)
(6.72008e-15 -3.23871 -0.978147)
(1.54736e-14 -14.9007 -10.8397)
(2.44052e-14 -14.5059 -16.9676)
(3.20681e-14 -9.80546 -20.6801)
(3.30213e-14 -1.9446 -24.4562)
(2.11259e-14 6.83771 -24.4635)
(1.1896e-14 7.10439 -18.7591)
(6.11873e-15 0.915333 -9.36917)
(-1.03393e-15 -111.8 5.99792)
(-1.50358e-15 -40.0189 41.266)
(-1.93974e-15 73.2046 -8.75037)
(-2.41328e-15 9.44747 -2.2203)
(9.5158e-19 -1.57692 9.33511)
(2.55921e-17 12.4296 12.433)
(8.33032e-17 3.88726 2.79939)
(7.56202e-17 0.239805 -0.72967)
(5.13888e-17 7.66627 -4.01987)
(-4.31053e-16 14.0761 3.74344)
(9.8082e-16 14.8653 11.2918)
(5.07802e-15 1.86994 4.45161)
(1.27321e-14 -10.9673 -11.7016)
(1.99733e-14 -12.3479 -20.7277)
(2.35817e-14 -8.53063 -25.8217)
(2.2108e-14 -3.21623 -28.3105)
(1.42339e-14 4.06316 -25.3977)
(9.13792e-15 3.01086 -20.1089)
(6.51777e-15 -8.67393 -12.4046)
(-1.90918e-15 -27.8622 -18.5969)
(-1.69508e-15 52.1104 95.5406)
(-1.98654e-15 88.9181 -21.2565)
(-2.44958e-15 11.7305 -13.6213)
(-6.03918e-16 -11.3832 1.879)
(4.15708e-18 13.2273 10.3072)
(-8.06869e-18 5.72328 4.27458)
(-8.40807e-18 2.11193 0.0941971)
(9.40788e-17 6.89266 -3.13535)
(-1.10456e-16 10.8022 0.41666)
(4.72914e-16 13.4429 9.83227)
(3.25491e-15 6.4053 9.63995)
(8.67026e-15 -4.99324 -8.15043)
(1.30792e-14 -8.7778 -20.5255)
(1.45509e-14 -6.46826 -27.0982)
(1.32748e-14 -0.596701 -29.2528)
(9.16099e-15 6.04357 -24.9752)
(6.77068e-15 3.29895 -20.2519)
(7.57722e-15 -5.04718 -12.2169)
(5.41608e-17 -253.754 -1.05961)
(-5.20472e-16 -59.5019 -10.178)
(-2.00667e-15 96.064 -33.2581)
(-1.93644e-15 28.9302 -7.98639)
(-5.2499e-16 -15.0701 16.9829)
(-1.76694e-17 13.7763 6.39396)
(-8.24163e-19 5.98324 6.46637)
(-8.29135e-18 2.665 -0.193915)
(-7.19747e-18 6.09311 -1.82965)
(2.63856e-17 7.97009 -1.1296)
(1.04457e-16 10.2669 5.2709)
(1.64879e-15 7.56264 9.82739)
(4.44806e-15 1.08908 1.39221)
(7.5416e-15 -4.86263 -13.8028)
(8.59454e-15 -6.18331 -21.8304)
(8.11814e-15 -7.94221 -21.8096)
(5.95501e-15 -4.00139 -20.0907)
(5.0922e-15 -3.25673 -14.0783)
(9.24006e-15 -23.281 -11.809)
(-8.49342e-15 210.917 -154.041)
(-3.07444e-17 -9.29857 213.714)
(-1.9498e-15 127.326 -39.9633)
(-4.51593e-16 -37.4016 100.857)
(-3.1629e-16 -20.2859 2.63722)
(-3.60971e-17 18.5181 1.89678)
(2.51562e-18 9.17732 7.28413)
(1.39455e-18 7.6547 -0.213582)
(-1.39816e-17 8.87162 -1.28781)
(7.2589e-18 9.68435 -0.999895)
(-4.51436e-17 10.4174 1.71692)
(4.2248e-16 8.74255 7.14116)
(2.03878e-15 5.4457 7.32875)
(4.33627e-15 1.6359 -2.01564)
(5.23786e-15 0.508907 -14.393)
(5.01879e-15 6.89743 -18.9543)
(5.79002e-15 8.91136 -10.4931)
(5.69117e-15 -6.74367 -20.4372)
(1.35943e-14 18.0719 1.59224)
(3.06543e-14 -739.812 420.472)
(1.27639e-15 59.4041 -193.039)
(-1.38892e-15 134.554 -35.9197)
(3.1614e-16 23.7285 135.684)
(-5.53347e-17 39.7185 -22.1804)
(-2.17745e-17 20.1805 -1.55206)
(-1.21995e-19 10.6703 4.33953)
(3.39643e-19 9.99615 0.0571085)
(2.29416e-18 10.2221 -0.409998)
(-5.33999e-18 10.935 -0.357809)
(-2.38309e-18 11.2292 0.309933)
(-1.30098e-16 9.24018 1.39281)
(1.9507e-16 7.46187 4.02842)
(2.09061e-15 3.64054 7.0789)
(6.26384e-15 -9.42721 7.3964)
(8.76339e-15 -26.0982 2.85757)
(8.61667e-15 0.36754 19.7609)
(4.29789e-15 4.10492 13.0151)
(-1.2996e-14 -71.9575 -68.9749)
(-1.19019e-15 7.6765 13.9286)
(-7.4202e-15 10.6288 19.0098)
(-4.85987e-15 9.72001 18.1102)
(-4.96608e-15 9.42529 17.7549)
(-5.61037e-15 9.15332 17.6817)
(-5.64999e-15 8.90076 17.3992)
(-4.46293e-15 8.53606 16.9832)
(-4.5974e-15 8.58569 17.0231)
(-4.67816e-15 8.46641 16.9815)
(-4.58135e-15 8.39417 16.916)
(-4.54842e-15 8.32352 16.8516)
(-4.55213e-15 8.26444 16.7836)
(-4.82822e-15 8.22192 16.706)
(-5.12731e-15 8.20414 16.632)
(-5.72466e-15 8.28192 16.669)
(-6.15864e-15 8.59491 17.0714)
(-6.91286e-15 9.06356 17.6649)
(-8.13935e-15 8.42926 16.2633)
(-5.65433e-15 4.15138 8.36181)
(1.19777e-14 -2.56363 -4.49593)
(-6.32856e-16 5.7534 10.499)
(-7.81199e-15 9.41455 16.6237)
(-5.41836e-15 8.82921 16.0094)
(-5.39937e-15 8.61368 15.7178)
(-6.10793e-15 8.51573 15.7837)
(-7.37381e-15 8.47075 15.8418)
(-4.92686e-15 8.42204 15.8919)
(-4.99989e-15 8.33936 15.8562)
(-5.27122e-15 8.26581 15.8367)
(-5.31352e-15 8.19533 15.8146)
(-5.08183e-15 8.12471 15.7902)
(-5.18401e-15 8.0589 15.7627)
(-5.05052e-15 7.99352 15.7327)
(-4.92598e-15 7.92372 15.6879)
(-5.245e-15 7.85035 15.6285)
(-5.07455e-15 7.84236 15.7078)
(-4.76064e-15 8.04779 16.235)
(-5.45891e-15 8.02366 16.4174)
(-8.48876e-15 5.92307 12.3124)
(-7.99398e-15 0.368277 1.48265)
(3.35027e-17 5.76677 10.2022)
(-3.14309e-15 9.61331 16.6758)
(-1.96341e-15 9.16482 16.0762)
(-2.18097e-15 8.96726 15.7115)
(-2.21843e-15 8.911 15.7299)
(-5.29181e-15 8.88879 15.7219)
(-2.73365e-15 8.829 15.7206)
(-2.53941e-15 8.79878 15.7223)
(-2.55638e-15 8.75278 15.7255)
(-2.71764e-15 8.71597 15.7193)
(-2.82133e-15 8.67233 15.7131)
(-2.76997e-15 8.63156 15.7022)
(-2.84628e-15 8.59048 15.6885)
(-2.73958e-15 8.54727 15.6749)
(-2.76829e-15 8.50489 15.6434)
(-2.92946e-15 8.44092 15.5929)
(-2.87635e-15 8.49157 15.7381)
(-2.41603e-15 8.86412 16.5828)
(-3.05253e-15 8.62322 15.9974)
(-4.37968e-15 4.01747 7.48144)
(-7.17774e-18 5.71539 9.93024)
(7.25373e-16 9.50321 16.3709)
(4.53695e-16 9.07887 15.7578)
(5.05994e-16 8.89226 15.3918)
(4.28797e-16 8.8617 15.4101)
(-3.94379e-15 8.87065 15.4167)
(-2.69479e-15 8.85096 15.4302)
(-2.82914e-15 8.84658 15.4281)
(-2.83581e-15 8.82753 15.4315)
(-2.8267e-15 8.81755 15.4285)
(-2.67607e-15 8.80094 15.4267)
(-2.84986e-15 8.78707 15.4218)
(-2.91147e-15 8.77308 15.4143)
(-2.8414e-15 8.75537 15.4074)
(-2.90657e-15 8.74582 15.3932)
(-2.92542e-15 8.71841 15.3761)
(-2.94608e-15 8.72842 15.3684)
(-2.5043e-15 8.95163 15.8492)
(-3.0349e-15 9.14756 16.1979)
(-4.83088e-15 5.1857 9.1537)
(1.85152e-18 5.88405 10.2112)
(-1.42541e-16 9.51997 16.372)
(-9.73631e-17 9.08985 15.7369)
(-1.0106e-16 8.91 15.3815)
(-9.20912e-17 8.88589 15.3965)
(8.44517e-16 8.89652 15.3987)
(6.37347e-16 8.8795 15.4077)
(5.92408e-16 8.88052 15.4078)
(5.98785e-16 8.86873 15.4144)
(6.15563e-16 8.86609 15.4157)
(6.49342e-16 8.85747 15.4195)
(6.29846e-16 8.8522 15.4212)
(6.54599e-16 8.84696 15.4219)
(6.25874e-16 8.83896 15.4244)
(6.40488e-16 8.83864 15.4206)
(6.66813e-16 8.82191 15.4179)
(6.65968e-16 8.83522 15.4141)
(5.84839e-16 9.02286 15.7939)
(6.98349e-16 9.38043 16.3799)
(1.02037e-15 5.77027 10.1297)
(-4.46816e-19 6.03641 10.4373)
(2.61661e-17 9.49325 16.3136)
(1.86672e-17 9.04532 15.6309)
(1.88745e-17 8.8821 15.3073)
(1.82552e-17 8.86416 15.3226)
(-1.60644e-16 8.87707 15.3258)
(-1.30848e-16 8.86534 15.3356)
(-1.14808e-16 8.8696 15.3363)
(-1.15537e-16 8.8617 15.3432)
(-1.21229e-16 8.86245 15.3455)
(-1.32513e-16 8.85728 15.3507)
(-1.23607e-16 8.85554 15.3542)
(-1.2629e-16 8.85311 15.3576)
(-1.25401e-16 8.84856 15.3629)
(-1.23798e-16 8.85041 15.3637)
(-1.30968e-16 8.83848 15.3678)
(-1.30907e-16 8.84737 15.3615)
(-1.18508e-16 8.9977 15.6721)
(-1.36487e-16 9.41545 16.3656)
(-1.88339e-16 6.06421 10.6138)
(1.01872e-19 6.22712 10.7628)
(-4.72886e-18 9.48221 16.2935)
(-3.39177e-18 9.01111 15.5673)
(-3.50517e-18 8.86829 15.2808)
(-3.37786e-18 8.85322 15.2974)
(2.94714e-17 8.86529 15.2996)
(2.40476e-17 8.85468 15.3085)
(2.18558e-17 8.85908 15.3094)
(2.17591e-17 8.8525 15.3162)
(2.29582e-17 8.85402 15.3189)
(2.47717e-17 8.84996 15.3245)
(2.26251e-17 8.84952 15.3284)
(2.24488e-17 8.84785 15.3329)
(2.38771e-17 8.84509 15.3386)
(2.28488e-17 8.84717 15.3411)
(2.36518e-17 8.83801 15.3467)
(2.40711e-17 8.84485 15.3406)
(2.20017e-17 8.97265 15.6062)
(2.46741e-17 9.41842 16.3467)
(3.31462e-17 6.28827 10.9984)
(-2.47297e-20 6.41158 11.0723)
(8.77613e-19 9.4569 16.2535)
(6.38327e-19 8.97045 15.4941)
(6.7762e-19 8.84781 15.2449)
(6.36129e-19 8.83532 15.2625)
(-5.49365e-18 8.84653 15.2645)
(-4.38612e-18 8.8372 15.273)
(-4.14167e-18 8.84158 15.2743)
(-4.14576e-18 8.8359 15.281)
(-4.36356e-18 8.83768 15.2839)
(-4.61153e-18 8.83417 15.2897)
(-4.138e-18 8.83433 15.2938)
(-4.01507e-18 8.83274 15.2988)
(-4.48269e-18 8.83103 15.3046)
(-4.32424e-18 8.83257 15.3082)
(-4.2941e-18 8.82549 15.3145)
(-4.36057e-18 8.83013 15.3086)
(-4.09572e-18 8.93846 15.5356)
(-4.49388e-18 9.39787 16.3037)
(-5.96132e-18 6.48178 11.3294)
(6.73796e-21 6.59989 11.3932)
(-1.83308e-19 9.42932 16.2103)
(-1.37801e-19 8.93375 15.4306)
(-1.43913e-19 8.83061 15.2174)
(-1.36712e-19 8.81983 15.2353)
(1.08162e-18 8.82989 15.2368)
(8.5914e-19 8.82135 15.2447)
(8.19499e-19 8.82533 15.2462)
(8.38133e-19 8.82021 15.2525)
(8.73825e-19 8.8219 15.2555)
(9.04886e-19 8.81865 15.2611)
(8.17825e-19 8.8191 15.2651)
(7.8434e-19 8.81734 15.2703)
(8.71642e-19 8.81642 15.2757)
(8.82463e-19 8.81719 15.2799)
(8.5772e-19 8.8119 15.286)
(8.47295e-19 8.81465 15.2807)
(8.20058e-19 8.90595 15.4729)
(8.9064e-19 9.36956 16.2524)
(1.14576e-18 6.66721 11.6483)
(-1.93569e-21 6.78595 11.7095)
(4.4434e-20 9.3947 16.1556)
(3.4611e-20 8.89813 15.3691)
(3.40335e-20 8.81316 15.1898)
(3.45697e-20 8.80377 15.2074)
(-2.37023e-19 8.81274 15.2087)
(-1.91475e-19 8.80501 15.2161)
(-1.83899e-19 8.80856 15.2178)
(-1.91452e-19 8.804 15.2239)
(-1.94275e-19 8.80551 15.2268)
(-2.00154e-19 8.80252 15.2324)
(-1.84754e-19 8.80314 15.2362)
(-1.77667e-19 8.80121 15.2416)
(-1.87967e-19 8.80096 15.2465)
(-2.01596e-19 8.80094 15.2513)
(-1.98983e-19 8.79733 15.2571)
(-1.93576e-19 8.79842 15.2527)
(-1.87517e-19 8.87438 15.4129)
(-2.02373e-19 9.33407 16.1905)
(-2.46838e-19 6.84857 11.96)
(5.42286e-22 6.97128 12.025)
(-1.14946e-20 9.35497 16.0922)
(-9.23559e-21 8.86518 15.3125)
(-8.53819e-21 8.79693 15.1645)
(-9.34857e-21 8.78855 15.1813)
(5.78124e-20 8.79646 15.1824)
(4.75288e-20 8.78949 15.1894)
(4.65416e-20 8.79256 15.1912)
(4.89049e-20 8.78851 15.1969)
(4.76451e-20 8.78978 15.1999)
(4.94565e-20 8.78705 15.2053)
(4.63244e-20 8.78774 15.209)
(4.51904e-20 8.78567 15.2144)
(4.55513e-20 8.786 15.2189)
(5.02689e-20 8.78521 15.2241)
(5.10274e-20 8.78316 15.2294)
(5.01326e-20 8.78278 15.2264)
(4.75443e-20 8.84501 15.3573)
(5.10208e-20 9.29303 16.1196)
(5.86038e-20 7.02821 12.2688)
(-1.4395e-22 7.15517 12.338)
(2.92516e-21 9.30948 16.0188)
(2.42349e-21 8.83446 15.2597)
(2.15383e-21 8.78132 15.1402)
(2.47714e-21 8.77372 15.156)
(-1.47187e-20 8.78065 15.1569)
(-1.21891e-20 8.77442 15.1634)
(-1.21906e-20 8.77701 15.1654)
(-1.2906e-20 8.77349 15.1708)
(-1.21351e-20 8.77448 15.1739)
(-1.26642e-20 8.77205 15.1791)
(-1.19329e-20 8.77274 15.1826)
(-1.18338e-20 8.77061 15.1881)
(-1.16619e-20 8.77142 15.1922)
(-1.28015e-20 8.76992 15.1977)
(-1.31985e-20 8.76935 15.2025)
(-1.31736e-20 8.76767 15.2011)
(-1.2322e-20 8.81779 15.3053)
(-1.31732e-20 9.24644 16.0393)
(-1.42821e-20 7.20652 12.5751)
(3.64322e-23 7.33789 12.6489)
(-7.13635e-22 9.25853 15.936)
(-6.10811e-22 8.80624 15.2112)
(-5.33326e-22 8.76649 15.1173)
(-6.26765e-22 8.75948 15.1317)
(3.7025e-21 8.7655 15.1326)
(3.07376e-21 8.75999 15.1387)
(3.11592e-21 8.7621 15.1408)
(3.31542e-21 8.75911 15.1458)
(3.05867e-21 8.75979 15.149)
(3.18401e-21 8.75771 15.1539)
(3.01195e-21 8.75832 15.1574)
(3.02162e-21 8.75621 15.1628)
(2.96924e-21 8.7574 15.1665)
(3.19138e-21 8.75529 15.1725)
(3.28282e-21 8.75607 15.1766)
(3.30799e-21 8.75321 15.177)
(3.11251e-21 8.79291 15.2575)
(3.31921e-21 9.19447 15.95)
(3.4084e-21 7.38379 12.8795)
(-8.94868e-24 7.51941 12.9577)
(1.68093e-22 9.20201 15.8436)
(1.48755e-22 8.78041 15.1668)
(1.29354e-22 8.75233 15.0955)
(1.52825e-22 8.74576 15.1083)
(-9.04782e-22 8.75096 15.1093)
(-7.54922e-22 8.74614 15.1149)
(-7.68373e-22 8.74778 15.1172)
(-8.16643e-22 8.74533 15.1218)
(-7.51896e-22 8.74567 15.1251)
(-7.77249e-22 8.74399 15.1297)
(-7.39722e-22 8.74444 15.1333)
(-7.43966e-22 8.74247 15.1385)
(-7.35366e-22 8.7439 15.142)
(-7.7407e-22 8.74131 15.1481)
(-7.83489e-22 8.7433 15.1516)
(-7.91679e-22 8.73937 15.1539)
(-7.62252e-22 8.77038 15.2135)
(-8.10967e-22 9.13711 15.8515)
(-7.92224e-22 7.56005 13.1818)
(2.16877e-24 7.69993 13.2647)
(-3.88534e-23 9.13999 15.7415)
(-3.55134e-23 8.75702 15.1267)
(-3.09104e-23 8.73885 15.0747)
(-3.65801e-23 8.73259 15.0859)
(2.15974e-22 8.73705 15.087)
(1.82312e-22 8.7329 15.0921)
(1.84649e-22 8.73407 15.0946)
(1.94737e-22 8.73214 15.0989)
(1.81114e-22 8.73216 15.1022)
(1.86142e-22 8.73087 15.1065)
(1.78725e-22 8.73111 15.1101)
(1.78386e-22 8.72938 15.1151)
(1.77667e-22 8.73087 15.1184)
(1.84657e-22 8.72802 15.1247)
(1.8262e-22 8.73099 15.1277)
(1.84578e-22 8.72611 15.1318)
(1.83277e-22 8.75019 15.1735)
(1.94662e-22 9.07434 15.744)
(1.81988e-22 7.73535 13.4821)
(-5.24291e-25 7.87978 13.5703)
(8.93797e-24 9.07254 15.6299)
(8.4222e-24 8.73618 15.091)
(7.32503e-24 8.72623 15.0551)
(8.72689e-24 8.72019 15.0648)
(-5.09212e-23 8.72393 15.0659)
(-4.37832e-23 8.72051 15.0705)
(-4.37945e-23 8.72116 15.0732)
(-4.56669e-23 8.71972 15.0771)
(-4.31212e-23 8.71943 15.0805)
(-4.42808e-23 8.71849 15.0845)
(-4.29613e-23 8.71846 15.0881)
(-4.22743e-23 8.71708 15.0928)
(-4.23172e-23 8.71839 15.0961)
(-4.38154e-23 8.71555 15.1023)
(-4.2359e-23 8.71917 15.1047)
(-4.29013e-23 8.71348 15.1106)
(-4.38175e-23 8.73233 15.1374)
(-4.65689e-23 9.00622 15.6275)
(-4.19155e-23 7.90971 13.78)
(1.27148e-25 8.05939 13.8753)
(-2.06417e-24 8.99949 15.5081)
(-2.00128e-24 8.71782 15.0597)
(-1.73033e-24 8.71458 15.0367)
(-2.09133e-24 8.7088 15.0448)
(1.19645e-23 8.71176 15.0461)
(1.0517e-23 8.70919 15.0502)
(1.03378e-23 8.70932 15.053)
(1.06601e-23 8.70834 15.0565)
(1.02085e-23 8.70784 15.0599)
(1.05248e-23 8.70716 15.0636)
(1.03227e-23 8.7069 15.0672)
(1.00205e-23 8.70592 15.0716)
(1.00271e-23 8.70677 15.075)
(1.04e-23 8.70432 15.0809)
(9.88921e-24 8.70804 15.0831)
(1.0065e-23 8.7018 15.0904)
(1.04811e-23 8.71702 15.1053)
(1.11842e-23 8.93314 15.5028)
(9.72669e-24 8.0832 14.0753)
(-3.09855e-26 8.23967 14.1805)
(4.80121e-25 8.92061 15.3748)
(4.77608e-25 8.70167 15.0324)
(4.08629e-25 8.70363 15.0189)
(5.038e-25 8.69852 15.0253)
(-2.81306e-24 8.70036 15.0269)
(-2.5267e-24 8.69875 15.0302)
(-2.43681e-24 8.69842 15.033)
(-2.49084e-24 8.69772 15.0362)
(-2.40876e-24 8.69715 15.0394)
(-2.49752e-24 8.6966 15.0428)
(-2.47628e-24 8.6962 15.0464)
(-2.38833e-24 8.69559 15.0504)
(-2.3738e-24 8.69589 15.054)
(-2.47088e-24 8.69429 15.0594)
(-2.33031e-24 8.69729 15.062)
(-2.38443e-24 8.69133 15.0701)
(-2.50788e-24 8.70429 15.0763)
(-2.69528e-24 8.85562 15.3706)
(-2.26742e-24 8.25516 14.3662)
(7.66968e-27 8.42319 14.4926)
(-1.13691e-25 8.83809 15.2311)
(-1.15492e-25 8.6907 15.012)
(-9.76185e-26 8.69523 15.0051)
(-1.2284e-25 8.69183 15.0089)
(6.69858e-25 8.69213 15.0105)
(6.12037e-25 8.69116 15.0126)
(5.79793e-25 8.69037 15.0148)
(5.89065e-25 8.68953 15.0171)
(5.73022e-25 8.68864 15.0197)
(5.96015e-25 8.68777 15.0224)
(5.97844e-25 8.6869 15.0254)
(5.78531e-25 8.68606 15.0287)
(5.67734e-25 8.68545 15.0322)
(5.93521e-25 8.68435 15.0364)
(5.59151e-25 8.68534 15.0397)
(5.73185e-25 8.68105 15.0469)
(6.04669e-25 8.69109 15.0484)
(6.55617e-25 8.77267 15.2324)
(5.32814e-25 8.42327 14.6449)
(-1.61408e-27 8.61058 14.8239)
(2.27822e-26 8.75271 15.0801)
(2.34275e-26 8.69281 15.0032)
(1.96548e-26 8.695 15.0014)
(2.52589e-26 8.69442 15.0021)
(-1.33863e-25 8.69408 15.0026)
(-1.2434e-25 8.69366 15.0031)
(-1.16112e-25 8.69305 15.0038)
(-1.17379e-25 8.69232 15.0046)
(-1.14789e-25 8.69144 15.0056)
(-1.18899e-25 8.69039 15.0067)
(-1.20702e-25 8.68915 15.008)
(-1.18011e-25 8.68773 15.0095)
(-1.14211e-25 8.68605 15.0113)
(-1.19981e-25 8.68417 15.0133)
(-1.13761e-25 8.68209 15.0156)
(-1.15981e-25 8.67892 15.0189)
(-1.21793e-25 8.67939 15.0201)
(-1.33642e-25 8.69419 15.0844)
(-1.04593e-25 8.5934 14.8933)
(2.26605e-26 -2.60867 17.0317)
(-3.99994e-26 -8.04134 13.681)
(-4.85435e-25 -5.17494 14.5355)
(-1.46973e-24 -4.97812 14.152)
(-2.63615e-24 -4.05185 14.1178)
(-3.82577e-24 -3.47986 13.9511)
(-6.17977e-24 -2.89605 13.8013)
(-1.08845e-23 -2.41536 13.6198)
(-1.24225e-23 -1.99524 13.4214)
(1.19765e-23 -1.64917 13.2052)
(1.06656e-22 -1.37775 12.9832)
(3.20264e-22 -1.19198 12.7728)
(6.62326e-22 -1.10164 12.59)
(1.0594e-21 -1.12219 12.4232)
(1.35933e-21 -1.26467 12.2172)
(1.40781e-21 -1.48198 11.9098)
(1.15913e-21 -1.80058 11.3927)
(7.39407e-22 -2.5093 10.367)
(3.62357e-22 -2.74471 8.86531)
(9.63483e-23 0.14125 6.71329)
(5.51961e-26 -11.2664 28.5743)
(-8.55447e-26 -17.0149 25.1522)
(-1.03747e-24 -12.0403 25.5369)
(-2.00702e-24 -12.6262 23.8694)
(-1.2445e-24 -10.8801 23.1493)
(6.20242e-25 -10.1769 22.0936)
(1.41892e-24 -9.15427 21.2079)
(7.85834e-24 -8.34266 20.2896)
(4.39646e-23 -7.5365 19.4122)
(1.30124e-22 -6.8096 18.5463)
(2.12454e-22 -6.12301 17.6871)
(7.34209e-23 -5.45506 16.7743)
(-6.76911e-22 -4.73717 15.6775)
(-2.41913e-21 -3.8801 14.1889)
(-5.14856e-21 -2.81001 12.0934)
(-8.08681e-21 -1.57559 9.27696)
(-9.67576e-21 -0.398717 5.88)
(-8.80718e-21 0.556751 2.49767)
(-6.87235e-21 1.286 -0.30819)
(-3.66008e-21 1.1757 -1.86516)
(2.57972e-26 -14.3799 30.9958)
(-5.42746e-25 -18.3309 28.0182)
(-1.15888e-24 -13.6394 27.9461)
(1.77548e-24 -14.6015 25.582)
(1.2257e-23 -12.5267 24.6533)
(2.6046e-23 -12.1051 23.0635)
(3.20686e-23 -11.016 21.865)
(3.54424e-23 -10.3304 20.5572)
(7.30601e-23 -9.56044 19.3668)
(1.80915e-22 -8.91954 18.1896)
(2.78201e-22 -8.29639 17.0483)
(1.38946e-23 -7.68139 15.8321)
(-1.28796e-21 -6.93158 14.3439)
(-4.46201e-21 -5.84369 12.2168)
(-9.81996e-21 -4.06899 8.88789)
(-1.42729e-20 -1.19707 3.68918)
(-8.61094e-21 1.96422 -2.35662)
(1.67034e-21 2.91431 -4.31888)
(-1.26903e-22 4.13989 -5.38338)
(-7.30102e-22 2.96402 -6.4246)
(-6.02341e-27 -15.3778 31.1174)
(5.18806e-25 -18.9274 28.6911)
(3.04927e-25 -14.4855 28.235)
(4.9707e-24 -15.9104 25.4502)
(2.10606e-23 -13.546 24.5704)
(4.60139e-23 -13.5451 22.6232)
(6.64003e-23 -12.3722 21.3512)