/*--------------------------------*- C++ -*----------------------------------*\
| =========                 |                                                 |
| \\      /  F ield         | OpenFOAM: The Open Source CFD Toolbox           |
|  \\    /   O peration     | Version:  4.1                                   |
|   \\  /    A nd           | Web:      www.OpenFOAM.org                      |
|    \\/     M anipulation  |                                                 |
\*---------------------------------------------------------------------------*/
FoamFile
{
    version     2.0;
    format      ascii;
    class       volScalarField;
    location    "27";
    object      p;
}
// * * * * * * * * * * * * * * * * * * * * * * * * * * * * * * * * * * * * * //

dimensions      [0 2 -2 0 0 0 0];

internalField   nonuniform List<scalar> 
1280
(
0.373455
-0.012316
0.708207
1.13115
1.48421
1.75965
1.87511
2.08045
2.14089
2.15055
2.11711
2.00089
1.32294
0.753562
0.281242
-2.09107
-4.43573
-6.23262
-15.1516
-21.6309
-22.2981
-6.70651
15.6742
22.2487
21.6397
23.5941
-12.2833
2.61326
3.68478
3.70173
3.41869
2.95306
2.28662
1.37474
0.388514
-0.857803
-1.58966
-2.405
-0.992004
-3.02988
-26.1177
-6.21575
0.919212
4.95959
16.7128
16.5182
16.6931
16.2946
15.2522
14.8068
14.7415
14.5617
13.053
11.206
10.1563
14.3551
-4.27746
-10.3763
-20.7425
-38.9862
-11.5976
-8.7193
-9.76326
-8.24944
-6.96695
-5.10189
-3.51139
-1.96118
-0.622723
0.60243
1.50453
2.07879
2.53078
-10.1544
28.7184
26.9255
27.9535
21.8739
-1.17144
-18.047
-18.3864
-11.4948
-9.21315
-9.95073
-5.00443
-3.68252
-3.81106
-0.933026
-0.3595
-0.13115
1.35108
1.375
1.5984
1.94466
2.37689
2.11547
1.5328
1.63512
1.31695
0.45508
-0.142598
-0.197352
-0.404535
-0.507684
-0.683347
-0.279578
0.0567194
2.03772
0.75294
0.719315
1.73113
4.44764
1.28692
-0.261648
-2.27095
-4.40881
-5.51247
-1.89082
0.896872
-0.272629
-0.19196
-0.176353
0.107154
0.543954
1.68034
2.86294
5.89985
2.11137
2.1217
4.08988
9.7251
4.89179
2.47784
-5.34036
-15.8508
-19.5555
-7.21488
1.08904
-0.194601
0.0346327
0.120379
0.585604
1.16541
2.64188
3.8188
7.90013
3.73099
3.70872
6.01078
13.1129
8.59486
3.41913
-10.7959
-29.7995
-34.194
-10.9236
2.1462
-0.159839
0.173534
0.293506
0.889018
1.53565
3.34015
4.5581
9.57413
5.07713
5.18709
7.88273
16.1109
12.5997
5.15367
-12.863
-38.2407
-43.9376
-14.0422
4.40825
-0.152469
0.274623
0.451527
1.1932
1.95222
4.07551
5.42309
11.0365
6.38725
6.53074
9.34312
17.5741
15.074
6.27296
-12.7061
-43.1783
-47.3377
-16.2735
6.4561
-0.137901
0.374607
0.599408
1.45985
2.29727
4.64552
6.09068
11.9134
7.60559
7.67627
10.274
17.3389
16.617
7.13854
-10.3336
-44.6121
-45.2808
-14.0902
11.0545
-0.125131
0.456433
0.71528
1.66147
2.54016
5.01754
6.54903
12.1683
8.70887
8.59873
10.6315
15.8396
16.557
6.97315
-7.2288
-41.2674
-38.8861
-14.1532
10.5514
-0.116356
0.518322
0.802183
1.8073
2.70479
5.22077
6.82022
11.863
9.53023
9.26453
10.3774
13.4931
15.0168
5.90243
-3.59011
-34.0623
-33.2119
-7.14865
19.608
-0.108458
0.563946
0.863512
1.89942
2.79286
5.25724
6.87897
11.1044
9.89107
9.42009
9.45131
9.98356
11.5962
3.95484
1.35042
-16.276
-18.7205
2.18484
44.4192
-0.101283
0.592561
0.898566
1.93682
2.80427
5.14072
6.73332
10.1424
9.76649
9.04646
7.80431
4.70183
6.58003
1.35686
5.0298
-1.21568
2.46716
21.956
37.003
-0.0937133
0.604976
0.909523
1.92394
2.74731
4.90117
6.41167
9.12006
9.29686
8.28515
5.65488
-1.52561
2.03296
0.085602
10.1193
9.10261
8.01281
24.7316
33.1065
-0.0869012
0.599819
0.896509
1.8629
2.62731
4.56258
5.95552
8.08515
8.5557
7.25533
3.494
-6.4094
-0.797429
-0.433121
14.0358
18.911
16.6116
27.7124
46.9849
-0.0766763
0.581722
0.865427
1.76318
2.45666
4.14834
5.41588
7.05833
7.57989
6.0129
1.47299
-10.4743
-4.02252
-1.93286
12.7077
20.2076
17.8994
13.4228
3.5406
-0.0701033
0.542248
0.80941
1.61862
2.2319
3.6632
4.82886
6.0655
6.48245
4.68567
-0.505155
-15.4099
-8.35331
-4.52896
11.8514
17.5006
14.7365
5.62687
-6.96629
-0.0516281
0.501057
0.747892
1.45611
1.9812
3.14004
4.20695
5.0655
5.26053
3.27185
-2.24405
-19.6716
-12.1476
-6.89957
9.6971
14.6211
13.6028
7.45898
1.24884
-0.0523826
0.417753
0.643104
1.23246
1.66267
2.55666
3.5231
4.11401
4.17875
2.20016
-3.31277
-22.4341
-15.3025
-8.93721
7.60095
11.8265
11.5585
6.36769
2.77894
-0.0101704
0.381925
0.576682
1.04884
1.37464
2.01036
2.76111
3.11002
2.98905
1.02057
-3.8954
-22.792
-17.1595
-9.97832
5.35204
9.09024
9.36208
5.34996
2.44409
-0.0514479
0.206872
0.376527
0.705987
0.935385
1.36543
1.94663
2.27586
2.34097
0.913137
-3.24012
-20.6334
-18.0576
-9.96128
3.80716
6.94421
7.30836
4.16689
2.0961
0.0707759
0.294307
0.40214
0.622688
0.735205
0.919104
1.056
1.11759
1.0432
-0.426091
-2.98957
-14.7282
-18.0157
-9.87076
2.30472
5.1642
5.4861
3.13836
1.485
-0.130563
-0.194718
-0.110315
-0.0705151
-0.00704882
0.11637
0.393015
0.693235
1.20666
1.3855
-0.0576598
-6.62394
-12.074
-7.51102
-0.92529
1.24028
1.85678
0.941533
0.480627
77.9276
79.0568
78.5407
78.1974
76.8773
75.445
73.7048
71.7934
69.7504
67.9356
66.2696
64.7595
63.4396
62.3251
61.4172
60.7236
60.2107
59.851
59.61
59.3072
22.4844
25.8231
28.0982
30.4791
32.5273
34.326
36.0627
37.5435
38.9055
40.0988
41.1845
42.1835
43.1072
43.9953
44.8341
45.6951
46.4807
47.3795
48.014
48.8914
13.0297
15.1793
17.5884
19.6824
21.7185
23.3974
25.1844
26.8287
28.4388
29.9659
31.4074
32.7771
34.0713
35.3279
36.5297
37.758
38.9083
40.1875
41.1647
42.4454
-20.4228
-19.1326
-18.0183
-17.2188
-15.7097
-14.5162
-12.8486
-11.2043
-9.30556
-7.27678
-5.10352
-2.82467
-0.488173
1.89071
4.23749
6.63148
8.95347
11.6361
13.9834
17.4628
-37.1485
-41.0414
-42.8577
-45.8603
-47.7502
-50.4738
-52.5881
-54.8699
-56.5093
-57.6389
-58.0017
-57.6269
-56.4793
-54.6255
-52.1935
-49.3405
-46.5531
-43.6692
-41.3515
-36.8708
-0.767087
-7.74142
-10.5942
-15.5467
-19.3821
-24.3689
-29.0523
-34.327
-39.3519
-44.3623
-48.9683
-53.1466
-56.6455
-59.2927
-60.7849
-61.3434
-61.1363
-60.2981
-60.3333
-58.7719
62.5426
57.6774
55.8581
52.3203
49.8321
46.4511
43.5748
40.3126
37.385
34.4433
31.7851
29.2877
27.0508
25.0379
23.4019
22.1431
21.2781
21.3563
20.3336
15.5623
93.4453
93.9005
94.3605
94.2888
94.836
94.4262
94.303
93.2081
91.7812
89.4445
86.3933
82.4545
77.768
72.5837
67.4646
63.038
59.8224
58.2586
58.0905
55.2589
66.6794
68.9854
70.5029
71.5754
73.5681
74.7402
76.7305
78.2904
80.0652
81.5492
82.789
83.508
83.5297
82.6924
81.0836
79.0445
77.5531
76.943
77.369
77.3159
51.5114
53.5255
55.2404
55.7262
57.7876
58.378
59.9587
60.9046
62.0827
63.1306
64.1876
65.2806
66.442
67.6976
69.0419
70.45
71.8263
73.2739
74.3342
75.6948
23.9171
25.8142
28.1798
28.5365
31.2935
31.9636
34.1314
35.4237
37.1457
38.6962
40.2794
41.8521
43.4136
45.0007
46.604
48.3043
49.9843
51.8744
53.3449
55.3836
-1.89369
-1.4187
1.0828
0.564505
3.36593
3.30317
5.46703
6.27377
7.95396
9.30906
10.902
12.5354
14.2726
16.1345
18.0741
20.1782
22.2517
24.6057
26.4597
29.4773
-21.6324
-23.4336
-21.6603
-23.7264
-22.057
-23.7945
-22.8915
-23.8884
-23.6464
-24.0787
-24.0557
-24.0284
-23.6832
-23.017
-22.0046
-20.4946
-18.8064
-16.5805
-14.9962
-11.8849
-12.7052
-16.0105
-15.0608
-18.2958
-17.7955
-20.6349
-21.0352
-23.3316
-24.5359
-26.5517
-28.221
-30.0688
-31.695
-33.143
-34.2716
-35.1223
-35.7242
-35.7311
-35.7067
-33.8975
11.3904
8.15239
9.66476
6.17982
7.37154
4.67844
4.78163
2.96613
2.2242
0.797244
-0.335293
-1.63926
-2.83656
-4.01027
-5.07594
-6.26652
-7.70008
-8.88585
-10.2555
-10.8534
27.0058
24.4044
26.7803
23.3863
25.9125
24.0021
25.3164
24.8715
25.5223
25.7103
26.163
26.5009
26.8414
27.0767
27.1253
26.8153
26.1865
25.1379
23.5984
21.9949
36.8802
33.5183
36.4568
30.7202
31.9769
28.4516
27.7336
25.7795
24.6933
23.5605
22.8204
22.3094
22.0925
22.1039
22.28
22.4493
22.4595
22.5497
22.9858
23.6891
27.3292
20.7953
29.2572
22.6429
25.0038
22.0228
21.1485
19.0341
17.2359
15.1949
13.2038
11.2157
9.31867
7.56077
6.05195
4.97035
4.42871
5.09474
6.16836
7.95338
41.0469
18.4062
26.4688
15.3105
12.483
5.77991
0.785313
-4.4973
-9.04978
-13.0795
-16.3513
-18.8151
-20.3772
-20.9583
-20.4435
-18.8667
-16.1819
-12.3866
-9.13561
-6.94457
733.184
650.2
600.999
544.64
495.559
448.213
404.221
362.705
323.682
286.875
252.125
219.237
187.998
158.321
130.228
102.894
76.6827
56.1933
32.738
-3.78128
741.197
658.213
609.012
552.652
503.57
456.223
412.23
370.713
331.689
294.882
260.131
227.243
196.004
166.327
138.234
110.9
84.6912
64.2075
40.7556
4.23201
49.0466
26.4049
34.4671
23.3079
20.4797
13.7759
8.78068
3.4975
-1.05542
-5.0854
-8.35726
-10.821
-12.3827
-12.9633
-12.4482
-10.8718
-8.18673
-4.39111
-1.14276
1.05005
35.3169
28.7831
37.2444
30.6296
32.9896
30.008
29.1327
27.0174
25.2183
23.1764
21.1844
19.1953
17.2972
15.5382
14.0274
12.9438
12.4009
13.068
14.1432
15.9322
44.8886
41.5307
44.47
38.736
39.9944
36.4714
35.7554
33.8038
32.7202
31.5906
30.8539
30.3464
30.1328
30.1466
30.3234
30.4925
30.5024
30.5966
31.0446
31.7588
35.1088
32.5133
34.8913
31.5008
34.0307
32.1234
33.4415
32.9999
33.6541
33.8449
34.3
34.6398
34.9813
35.2173
35.2665
34.9585
34.3323
33.2879
31.7602
30.1671
19.5888
16.354
17.8677
14.3856
15.5821
12.894
13.004
11.1959
10.4628
9.04581
7.92427
6.63214
5.44654
4.28378
3.22754
2.04343
0.610825
-0.582303
-1.9604
-2.58615
-4.59418
-7.90689
-6.96273
-10.2057
-9.71331
-12.5612
-12.9713
-15.2782
-16.4939
-18.5227
-20.206
-22.0704
-23.7149
-25.1822
-26.3284
-27.1965
-27.815
-27.8333
-27.8219
-26.0158
-13.6878
-15.5002
-13.734
-15.8077
-14.1476
-15.8934
-15
-16.0064
-15.7736
-16.2154
-16.2007
-16.1812
-15.8418
-15.1799
-14.169
-12.6585
-10.9693
-8.74694
-7.16591
-4.05384
5.98586
6.45413
8.95427
8.43294
11.2321
11.1664
13.3285
14.1327
15.8116
17.165
18.7571
20.3897
22.1267
23.9886
25.9283
28.0329
30.107
32.4621
34.3177
37.3385
31.8054
33.699
36.0644
36.42
39.1766
39.8456
42.0131
43.3042
45.0253
46.5746
48.1568
49.7287
51.2895
52.8765
54.4797
56.1794
57.8579
59.746
61.2143
63.2525
59.3669
61.3804
63.0958
63.5814
65.6434
66.2343
67.816
68.7644
69.9465
71.001
72.0672
73.171
74.3425
75.6047
76.9504
78.3555
79.726
81.1705
82.2297
83.5943
74.6412
76.9548
78.4805
79.5596
81.5607
82.7392
84.7357
86.2997
88.0753
89.5577
90.7898
91.4943
91.4968
90.6403
89.0219
86.9873
85.5189
84.9451
85.3889
85.3455
101.283
101.763
102.226
102.163
102.713
102.305
102.18
101.082
99.6498
97.3124
94.2671
90.348
85.6979
80.5665
75.5072
71.136
67.9636
66.4155
66.2555
63.4626
71.0077
66.1805
64.3775
60.8667
58.4017
55.0486
52.1999
48.966
46.0642
43.1445
40.5016
38.0121
35.7769
33.7604
32.1146
30.836
29.9599
30.0576
29.0696
24.3031
7.64871
0.674546
-2.19281
-7.15457
-10.9985
-15.9933
-20.6838
-25.9626
-30.9864
-35.9915
-40.5858
-44.7422
-48.213
-50.824
-52.2851
-52.8186
-52.5814
-51.7392
-51.7773
-50.242
-28.7128
-32.6504
-34.4992
-37.5262
-39.4369
-42.1759
-44.3014
-46.5882
-48.2261
-49.3502
-49.707
-49.3273
-48.1818
-46.3362
-43.9209
-41.0948
-38.3415
-35.4851
-33.1827
-28.7143
-12.544
-11.256
-10.1808
-9.39727
-7.89929
-6.71443
-5.0541
-3.41554
-1.52162
0.50268
2.67113
4.94445
7.27494
9.64873
11.9933
14.3911
16.7213
19.4217
21.7902
25.2951
21.7644
23.8331
26.2051
28.2967
30.3316
32.0166
33.8111
35.4661
37.0848
38.6195
40.0661
41.4389
42.7353
43.9935
45.198
46.4296
47.5858
48.8687
49.854
51.1289
28.6052
32.0418
34.596
37.1973
39.4161
41.3502
43.2034
44.7818
46.2301
47.4947
48.6447
49.7019
50.6784
51.6148
52.497
53.3962
54.2128
55.1342
55.7797
56.6568
87.5489
88.8344
88.7464
88.693
87.6034
86.3718
84.8208
83.0133
80.9027
79.0022
77.2215
75.5573
74.0509
72.7209
71.5747
70.6171
69.8364
69.1673
68.6651
67.955
)
;

boundaryField
{
    outletWall
    {
        type            fixedValue;
        value           uniform 0;
    }
    fineWalls
    {
        type            zeroGradient;
    }
    fineFrontAndBack
    {
        type            zeroGradient;
    }
    fineplugLeft
    {
        type            cyclicAMI;
        value           nonuniform List<scalar> 
20
(
46.8398
47.4896
47.3998
47.8506
48.4073
49.2115
50.135
51.209
52.3982
53.6994
55.0888
56.5373
57.9574
63.9272
65.0748
65.8298
67.0076
65.9674
61.9041
57.8825
)
;
    }
    fineplugRight
    {
        type            cyclicAMI;
        value           nonuniform List<scalar> 
20
(
52.0445
53.1882
53.3812
54.2193
55.1003
56.2394
57.4745
58.8485
60.3213
61.8977
63.5027
65.1379
66.9168
74.0214
74.8411
75.4678
76.5451
75.3719
70.8333
66.4297
)
;
    }
    inletOutletLeft
    {
        type            cyclicAMI;
        value           nonuniform List<scalar> 
20
(
46.8398
47.4896
47.3998
47.8506
48.4073
49.2115
50.135
51.209
52.3982
53.6994
55.0888
56.5373
57.9574
63.9272
65.0748
65.8298
67.0076
65.9674
61.9041
57.8825
)
;
    }
    inletLeft
    {
        type            zeroGradient;
    }
    inletWallsLeft
    {
        type            zeroGradient;
    }
    inletFacesLeft
    {
        type            zeroGradient;
    }
    inletOutletRight
    {
        type            cyclicAMI;
        value           nonuniform List<scalar> 
20
(
52.0445
53.1882
53.3812
54.2193
55.1003
56.2394
57.4745
58.8485
60.3213
61.8977
63.5027
65.1379
66.9168
74.0214
74.8411
75.4678
76.5451
75.3719
70.8333
66.4297
)
;
    }
    inletRight
    {
        type            zeroGradient;
    }
    inletWallsRight
    {
        type            zeroGradient;
    }
    inletFacesRight
    {
        type            zeroGradient;
    }
}


// ************************************************************************* //
