/*--------------------------------*- C++ -*----------------------------------*\
| =========                 |                                                 |
| \\      /  F ield         | OpenFOAM: The Open Source CFD Toolbox           |
|  \\    /   O peration     | Version:  4.1                                   |
|   \\  /    A nd           | Web:      www.OpenFOAM.org                      |
|    \\/     M anipulation  |                                                 |
\*---------------------------------------------------------------------------*/
FoamFile
{
    version     2.0;
    format      ascii;
    class       surfaceScalarField;
    location    "27";
    object      phi;
}
// * * * * * * * * * * * * * * * * * * * * * * * * * * * * * * * * * * * * * //

dimensions      [0 3 -1 0 0 0 0];

internalField   nonuniform List<scalar> 
2360
(
-4392.23
-3023.93
-1368.3
-3023.93
-3023.93
-1412.43
-1611.51
-1412.42
-1412.43
-1412.42
411.629
-1824.05
411.63
411.629
2802.47
-2390.84
2802.47
2802.47
6532.75
-3730.28
6532.75
6532.75
12198.9
-5666.17
12198.9
12198.9
12732.5
14363.9
16170.6
17813.5
19261.4
20561
17033.8
4743.83
18161.3
19215
20197.8
21112.1
21960.9
22747
23471.9
24136.9
24747.3
25321.2
25889.6
26471.4
26955.1
9828.81
17126.3
9828.81
9828.81
9828.81
-673.14
10501.9
-673.138
-673.137
-673.135
874.644
-1547.78
874.646
874.645
-3733.66
4608.31
-3733.66
-3733.66
-3733.66
-15267.6
11534
-15267.6
-15267.6
-15267.6
-29061.6
13794
-28567.2
-27986.6
-27418.2
-26842.4
-26229.2
-25562.9
-24838.8
-24055.5
-23210.8
-22301.6
-21325.1
-20279.1
-19161.2
-21566
3616.29
-20269.5
-18823.9
-17181.6
-15372.9
-13733.3
-13177.9
-13177.9
-13177.9
-10185.9
-2992
-10185.9
-10185.9
-7280.04
-2905.9
-7280.04
-7280.04
-4561.44
-2718.59
-4561.44
-4561.44
-2005.41
-2556.03
-2005.41
-2005.41
-2005.41
486.801
-2492.21
486.802
486.802
3250.36
-2763.56
-1878.11
11161.7
-1891.97
14075.3
-1819.59
16230.6
-1677.16
18305.1
-1417.57
20433.7
-1117.95
21345.4
-665.859
21018.3
-53.7158
11241.1
-696.464
-7894.97
-1454.37
-616.141
-1326.75
6672.31
-579.679
4220.34
988.839
-7172.73
3002.4
-11955.4
4823.98
-12133.9
5511.86
-2258.11
4630.82
8914.7
3544.76
11138.8
6980.05
-1877.59
11228.8
-1899.58
14097.3
-1833.9
16164.9
-1698.86
18170.1
-1454.9
20189.8
-1168.95
21059.4
-706.783
20556.2
59.3907
10474.9
-943.674
-6891.91
-1992.61
432.798
-1794.67
6474.37
-434.579
2860.24
1190.39
-8797.7
3182.81
-13947.8
5227.71
-14178.8
6310.82
-3341.22
5156.83
10068.7
3435.1
12860.5
7922.94
-1886.47
11303.4
-1917.27
14128.1
-1859.77
16107.4
-1733.88
18044.2
-1506.58
19962.5
-1233.63
20786.5
-747.034
20069.6
-26.4735
9754.37
-1221.49
-5696.89
-2421.96
1633.27
-2441.54
6493.95
-1016.02
1434.72
178.75
-9992.47
1296.78
-15065.9
2812.61
-15694.6
4799.75
-5328.36
5082.96
9785.48
3548.21
14395.2
8915.12
-1904.78
11383.5
-1941.12
14164.5
-1891.39
16057.7
-1775.67
17928.5
-1565.49
19752.3
-1306.73
20527.7
-807.547
19570.4
-156.878
9103.7
-1567.62
-4286.15
-2926.76
2992.4
-3207.63
6774.82
-2252.98
480.074
-2027.21
-10218.2
-1852.78
-15240.3
-656.523
-16890.9
1983.18
-7968.07
3684.13
8084.53
3244.24
14835.1
9440.76
-1929.79
11469
-1971.28
14205.9
-1929.49
16015.9
-1825.54
17824.5
-1631.89
19558.7
-1386.98
20282.8
-878.322
19061.7
-360.947
8586.33
-1987.47
-2659.63
-3462.63
4467.56
-4077.69
7389.88
-4112.71
515.094
-4803.39
-9527.56
-5035.89
-15007.8
-3932.56
-17994.2
-1083.53
-10817.1
1244.9
5756.11
2208.96
13871.1
8743.82
-1960.32
11558.9
-2006.57
14252.2
-1972.77
15982.1
-1880.99
17732.8
-1702.51
19380.2
-1468.09
20048.4
-957.102
18550.8
-636.056
8265.28
-2441.67
-854.01
-3978.04
6003.93
-5082.47
8494.32
-6228.83
1661.46
-7495.56
-8260.84
-8061.23
-14442.1
-7333.02
-18722.4
-4614.16
-13536
-1774.68
2916.63
229.249
11867.1
5981.07
-1995.05
11652.1
-2045.3
14302.4
-2019.04
15955.9
-1938.93
17652.6
-1773.38
19214.6
-1544.6
19819.6
-1047.51
18053.7
-966.519
8184.29
-2834.2
1013.67
-4420.25
7589.97
-6021.4
10095.5
-8024.86
3664.92
-9686.39
-6599.31
-10730.2
-13398.3
-10761.4
-18691.3
-8368.91
-15928.4
-4354.93
-1097.34
-324.526
7836.72
9272.83
-2032.64
11747.9
-2086.26
14356.1
-2066.83
15936.4
-1997.24
17583.1
-1841.32
19058.7
-1612.26
19590.6
-1145.64
17587
-1290.84
8329.5
-3064.27
2787.1
-4739.14
9264.85
-6723.21
12079.5
-9329.44
6271.14
-11238.9
-4689.83
-12596.2
-12041.1
-13556.9
-17730.5
-12641.5
-16843.9
-8905.65
-4833.19
-8236.96
7168.03
14829.9
-2071.91
11845.5
-2128.24
14412.4
-2114.69
15922.9
-2053.8
17522.2
-1903.16
18908.1
-1666.99
19354.4
-1240.12
17160.2
-1539.75
8629.13
-3204.97
4452.33
-4919.82
10979.7
-7133.71
14293.4
-10093.2
9230.62
-11936.1
-2846.91
-13179.2
-10798
-14898.7
-16011
-16376.6
-15366
-15389.9
-5819.84
-13751.7
5529.8
12612.1
-2111.5
11943.8
-2169.78
14470.7
-2160.8
15913.9
-2106.2
17467.6
-1956.35
18758.2
-1707.17
19105.2
-1318.29
16771.3
-1713.11
9023.96
-3278.96
6018.17
-4970.3
12671
-7235.23
16558.4
-10079.2
12074.6
-11149.5
-1776.58
-11768.7
-10178.8
-13723.8
-14056
-15650.8
-13438.9
-14767
-6703.64
-11138.4
1901.17
6082.01
-2149.92
12041.9
-2209.06
14529.8
-2202.88
15907.7
-2151.71
17416.4
-1999.35
18605.9
-1734.66
18840.5
-1367.17
16403.8
-1800.81
9457.6
-3278.93
7496.29
-4916.6
14308.7
-7057.29
18699.1
-9253.41
14270.7
-8929.35
-2100.64
-8513.05
-10595.1
-10652.5
-11916.5
-13895.7
-10195.7
-13215.9
-7383.43
-8097.84
-3216.88
-3563.61
-2185.43
12138.5
-2243.98
14588.4
-2238.15
15901.9
-2187.4
17365.6
-2031.47
18449.9
-1753.23
18562.3
-1382.33
16032.9
-1806.05
9881.32
-3221.04
8911.28
-4800.2
15887.9
-6759.71
20658.6
-8494.73
16005.7
-7498.28
-3097.09
-5827
-12266.4
-6103.39
-11640.1
-10532.7
-5766.4
-14988.5
-2927.66
-14912.1
-3293.29
-7973.74
-2216.63
12231.5
-2271.87
14643.6
-2263.05
15893.1
-2209.48
17312.1
-2050.74
18291.2
-1763.64
18275.2
-1372.63
15641.9
-1772.57
10281.3
-3150.17
10288.9
-4654.07
17391.8
-6437.31
22441.8
-8116.03
17684.4
-7331.88
-3881.24
-5415.75
-14182.5
-3026.41
-14029.4
-3462.16
-5330.65
-8555.5
2165.68
-13825.4
1976.57
-4672.82
-2241.71
12318.6
-2289.5
14691.4
-2272.71
15876.3
-2212.6
17252
-2052.46
18131.1
-1765.14
17987.9
-1374.08
15250.8
-1787.56
10694.7
-3120.79
11622.1
-4486.16
18757.1
-6046.95
24002.6
-7539.12
19176.6
-6656.46
-4763.91
-4991.11
-15847.8
-3070.77
-15949.8
-173.884
-8227.55
1956.79
35
2089.45
1843.91
2160.46
-2259.59
12393.9
-2291.95
14723.8
-2260.54
15844.9
-2188.27
17179.7
-2026.41
17969.2
-1753.78
17715.2
-1431.94
14929
-1918.82
11181.6
-3154.45
12857.7
-4307.57
19910.2
-5613.31
25308.3
-6823.17
20386.5
-5754.66
-5832.42
-4195.48
-17407
-2625.36
-17519.9
-464.748
-10388.2
2053.39
-2483.14
4288.94
-391.64
783.228
-2267.98
12452.7
-2275.54
14731.3
-2219.37
15788.7
-2126.72
17087.1
-1962.68
17805.2
-1737.39
17490
-1599.06
14790.6
-2200.99
11783.6
-3239.98
13896.7
-4119.18
20789.5
-5159.96
26349.1
-6037.02
21263.5
-4878.18
-6991.26
-3569.35
-18715.8
-2266.15
-18823.1
-562.97
-12091.3
1286.2
-4332.31
2880.66
-1986.1
-66.3903
-2271.29
12484.1
-2239.48
14699.5
-2147.95
15697.1
-2024.41
16963.5
-1854.52
17635.3
-1704.37
17339.8
-1809.13
14895.4
-2497.27
12471.7
-3290.18
14689.6
-3935.34
21434.6
-4749.45
27163.2
-5244.13
21758.2
-4056.91
-8178.48
-2993.69
-19779.1
-1932.77
-19884
-588.254
-13435.9
865.523
-5786.09
1994.38
-3114.96
-462.848
-2256.56
12480.1
-2171.08
14614
-2029.99
15556.1
-1862.37
16795.9
-1677.62
17450.5
-1606.13
17268.3
-1952.37
15241.6
-2724.39
13243.7
-3317.48
15282.7
-3781.83
21899
-4415.97
27797.4
-4507.4
21849.6
-3413.54
-9272.34
-2543.66
-20648.9
-1648.84
-20778.8
-580.163
-14504.5
580.663
-6946.91
1463.34
-3997.63
-823.565
-2292.34
12420.1
-2122.86
14444.6
-1920.65
15353.8
-1707.97
16583.2
-1508.5
17251
-1503.59
17263.4
-2049.12
15787.1
-2865.18
14059.8
-3250.04
15667.6
-3627.97
22276.9
-4206.15
28375.5
-3804.49
21448
-2916.91
-10159.9
-2234.96
-21330.9
-1434.47
-21579.3
-606.384
-15332.6
347.917
-7901.21
1156.02
-4805.73
-1279.05
-2286.96
-1965.71
-1671.11
-1364.29
-1094.38
-987.791
-1359.46
-2041.45
-2723.68
-3640.48
-4320.96
-3607.18
-2567.79
-1980.26
-1298.82
-633.369
145.58
888.002
-70.6334
-462.964
152.506
-1854.48
397.714
-2051.92
577.269
-1822.48
709.302
-1579.97
817.01
-1407.26
883.141
-1282.76
940.518
-1184.87
982.821
-1096.05
1010.01
-1009.95
1021.19
-925.507
1015.25
-842.865
991.47
-762.269
949.734
-683.232
890.452
-605.706
810.898
-530.81
702.644
-465.643
547.629
-413.404
325.339
-359.514
-158.345
63.3567
-526.321
49.3404
-1840.47
85.4565
-2088.03
127.484
-1864.51
177.786
-1630.27
238.256
-1467.73
309.614
-1354.11
378.623
-1253.88
439.363
-1156.79
488.763
-1059.35
525.26
-962.004
548.154
-865.759
557.58
-771.695
554.204
-679.856
538.751
-590.253
508.049
-500.107
451.565
-409.159
346.74
-308.578
179.074
-191.846
20.7287
258.722
-785.044
358.729
-1940.47
398.844
-2128.15
439.931
-1905.6
500.73
-1691.07
574.225
-1541.23
650.098
-1429.99
721.885
-1325.66
784.046
-1218.95
831.855
-1107.16
861.755
-991.904
871.084
-875.088
857.809
-758.419
820.36
-642.408
757.694
-527.586
668.764
-411.177
551.669
-292.063
398.274
-155.183
202.092
4.33744
222.82
482.326
-1267.37
675.344
-2133.49
663.183
-2115.99
652.447
-1894.86
700.996
-1739.62
783.544
-1623.78
878.134
-1524.58
966.141
-1413.67
1038.44
-1291.25
1089.67
-1158.39
1118.18
-1020.42
1122.23
-879.14
1099.65
-735.834
1047.56
-590.32
962.482
-442.509
840.934
-289.629
680.392
-131.52
467.266
57.9433
243.073
228.53
465.894
491.042
-1758.41
586.084
-2228.53
501.183
-2031.09
470.569
-1864.25
511.894
-1780.95
584.252
-1696.14
663.905
-1604.23
728.361
-1478.13
769.628
-1332.51
785.637
-1174.39
778.068
-1012.85
744.655
-845.726
682.012
-673.192
586.613
-494.92
455.854
-311.75
305.527
-139.302
180.826
-6.81977
85.4362
153.333
-17.6235
331.59
448.27
158.619
-1917.03
27.755
-2097.67
-119.834
-1883.5
-212.899
-1771.18
-279.563
-1714.28
-337.6
-1638.1
-398.432
-1543.4
-471.176
-1405.38
-556.294
-1247.39
-649.778
-1080.91
-748.768
-913.86
-852.746
-741.747
-959.372
-566.565
-1060.5
-393.793
-1140.85
-231.394
-1182.19
-97.9638
-1159.85
-29.1593
-993.661
-12.8586
-610.781
-51.2908
-162.511
-172.252
-1744.78
-319.4
-1950.52
-453.329
-1749.57
-613.489
-1611.02
-792.796
-1534.97
-984.758
-1446.13
-1182.44
-1345.72
-1378.79
-1209.03
-1569.92
-1056.26
-1755.35
-895.483
-1935.08
-734.132
-2102.18
-574.64
-2239.37
-429.378
-2315.7
-317.467
-2283.87
-263.218
-2097.8
-284.04
-1741.73
-385.23
-1197.32
-557.261
-516.5
-732.114
-679.011
-191.843
-1552.93
-215.514
-1926.85
-263.317
-1701.77
-371.715
-1502.62
-505.494
-1401.19
-660.765
-1290.86
-815.192
-1191.29
-951.638
-1072.59
-1057.26
-950.634
-1129.26
-823.481
-1165.61
-697.782
-1162.76
-577.494
-1117.22
-474.916
-1026.18
-408.507
-885.951
-403.443
-686.023
-483.968
-430.981
-640.271
-175.184
-813.057
-22.149
-885.149
-701.16
-19.3469
-1533.58
40.1384
-1986.33
102.544
-1764.17
138.937
-1539.01
165.275
-1427.53
181.76
-1307.34
199.238
-1208.77
229.889
-1103.23
284.067
-1004.81
368.574
-907.986
485.687
-814.894
633.381
-725.186
799.236
-640.771
957.759
-567.029
1068.07
-513.756
1078.66
-494.56
949.802
-511.409
682.893
-546.148
337.041
-539.297
-364.119
67.1438
-1600.73
119.834
-2039.02
172.722
-1817.06
230.767
-1597.06
297.285
-1494.05
365.264
-1375.32
436.088
-1279.59
509.356
-1176.5
585.546
-1081
665.188
-987.627
747.358
-897.063
830.288
-808.116
909.462
-719.944
974.883
-632.451
1008.24
-547.114
980.28
-466.599
864.463
-395.593
644.756
-326.441
344.447
-238.989
-19.6725
143.102
-1743.83
173.82
-2069.74
209.496
-1852.73
261.893
-1649.45
329.003
-1561.16
391.306
-1437.62
457.591
-1345.88
522.101
-1241.01
587.431
-1146.33
648.859
-1049.05
703.32
-951.524
745.686
-850.48
771.64
-745.898
777.247
-638.058
758.592
-528.458
707.573
-415.58
611.674
-299.695
453.413
-168.18
234.887
-20.4644
215.214
179.792
-1923.62
168.413
-2058.36
198.209
-1882.53
249.138
-1700.38
315.6
-1627.62
376.179
-1498.2
445.336
-1415.03
514.884
-1310.56
591.426
-1222.87
667.578
-1125.21
738.418
-1022.36
793.285
-905.348
823.672
-776.286
821.914
-636.3
782.485
-489.031
702.233
-335.329
579.48
-176.942
406.103
5.1966
203.016
182.621
418.231
140.635
-2064.26
87.7745
-2005.5
106.578
-1901.33
139.36
-1733.16
183.351
-1671.61
225.72
-1540.57
279.051
-1468.36
335.88
-1367.39
402.006
-1289
468.38
-1191.58
529.675
-1083.66
575.015
-950.688
598.7
-799.971
591.635
-629.235
543.462
-440.858
454.622
-246.489
324.166
-46.486
215.531
113.831
101.134
297.017
519.364
29.5674
-2093.82
-42.3338
-1933.6
-63.5606
-1880.1
-82.3479
-1714.38
-97.865
-1656.09
-110.802
-1527.63
-120.673
-1458.49
-126.038
-1362.02
-127.795
-1287.24
-126.746
-1192.63
-124.815
-1085.59
-122.061
-953.443
-119.3
-802.733
-124.594
-623.943
-145.536
-419.918
-168.005
-224.024
-147.192
-67.3031
-165.403
132.04
-181.96
313.573
337.404
-44.5735
-2049.25
-105.989
-1872.18
-155.14
-1830.95
-210.985
-1658.53
-266.848
-1600.23
-323.688
-1470.79
-386.164
-1396.02
-449.837
-1298.35
-517.921
-1219.16
-582.015
-1128.54
-636.216
-1031.39
-671.337
-918.323
-686.695
-787.375
-688.061
-622.577
-690.612
-417.367
-713.17
-201.466
-766.199
-14.2744
-748.227
114.068
-492.445
57.7901
-155.042
-29.1887
-2020.06
-69.5242
-1831.85
-100.644
-1799.84
-140.136
-1619.04
-179.901
-1560.47
-221.826
-1428.87
-270.417
-1347.43
-323.069
-1245.7
-381.649
-1160.58
-438.515
-1071.67
-485.369
-984.537
-512.911
-890.782
-514.752
-785.534
-480.05
-657.28
-402.23
-495.188
-300.08
-303.617
-185.341
-129.014
-50.966
-20.3082
6.66901
0.153147
-148.373
-15.6182
-2004.44
-48.9916
-1798.47
-62.999
-1785.83
-67.2268
-1614.81
-71.9745
-1555.72
-63.3726
-1437.47
-55.0575
-1355.74
-39.8743
-1260.88
-23.6148
-1176.84
-3.40068
-1091.89
21.4646
-1009.4
54.6768
-923.995
101.566
-832.424
173.368
-729.081
283.389
-605.21
424.243
-444.471
534.428
-239.201
488.146
25.9736
325.158
163.14
176.785
-142.018
-1862.43
-300.736
-1639.76
-422.566
-1664
-502.44
-1534.94
-572.049
-1486.11
-608.301
-1401.22
-629.658
-1334.39
-628.779
-1261.76
-612.179
-1193.44
-579.21
-1124.86
-531.695
-1056.92
-468.268
-987.422
-386.754
-913.938
-285.122
-830.713
-165.01
-725.323
-34.938
-574.543
74.4089
-348.548
126.196
-25.8142
92.9226
196.413
269.708
-206.319
-1656.11
-451.44
-1394.63
-711.021
-1404.42
-926.662
-1319.3
-1132.66
-1280.12
-1304.51
-1229.37
-1452.37
-1186.52
-1571.19
-1142.94
-1663.73
-1100.89
-1729.64
-1058.94
-1769.46
-1017.1
-1782.2
-974.686
-1765.48
-930.65
-1713.98
-882.213
-1616.38
-822.924
-1449.65
-741.279
-1179.14
-619.053
-767.433
-437.526
-345.69
-225.33
-75.982
-681.109
-1100.74
-1530.16
-1874.46
-2179.58
-2433.95
-2645.47
-2813.42
-2939.31
-3023.25
-3065.36
-3065.04
-3020.69
-2927.91
-2775.83
-2542.11
-2186.16
-1648.69
-899.018
-681.123
1656.12
-1100.78
1394.65
-1530.21
1404.44
-1874.53
1319.32
-2179.67
1280.14
-2434.07
1229.4
-2645.62
1186.55
-2813.6
1142.98
-2939.53
1100.93
-3023.51
1058.98
-3065.66
1017.15
-3065.39
974.733
-3021.09
930.703
-2928.36
882.268
-2776.32
822.957
-2542.54
741.225
-2186.38
618.844
-1648.62
437.233
-898.854
225.238
76.1465
-206.345
1862.47
-451.49
1639.8
-711.095
1664.04
-926.755
1534.98
-1132.77
1486.16
-1304.64
1401.27
-1452.52
1334.44
-1571.35
1261.81
-1663.91
1193.49
-1729.82
1124.9
-1769.65
1056.97
-1782.4
987.483
-1765.72
914.031
-1714.31
830.853
-1616.83
725.486
-1450.23
574.618
-1179.78
348.397
-767.891
25.3475
-346.082
-196.568
-269.935
-141.985
2004.46
-300.647
1798.46
-422.432
1785.83
-502.236
1614.79
-571.779
1555.7
-607.947
1437.44
-629.212
1355.7
-628.226
1260.82
-611.505
1176.77
-578.399
1091.8
-530.732
1009.3
-467.158
923.91
-385.527
832.402
-283.854
729.181
-163.831
605.465
-34.0172
444.807
75.0245
239.362
126.194
-25.8154
92.3235
-162.693
-177.612
-15.4753
2019.93
-48.6964
1831.69
-62.5559
1799.69
-66.6124
1618.85
-71.1908
1560.28
-62.3976
1428.64
-53.8839
1347.19
-38.4852
1245.43
-22.0008
1160.28
-1.55358
1071.35
23.5436
984.208
56.9938
890.463
104.135
785.263
176.182
657.136
286.376
495.273
427.147
304.038
536.836
129.675
489.482
21.5412
326.053
0.738215
148.441
-29.0499
2048.99
-69.3082
1871.95
-100.316
1830.7
-139.721
1658.25
-179.386
1599.95
-221.231
1470.49
-269.742
1395.7
-322.332
1298.02
-380.848
1218.8
-437.633
1128.14
-484.372
1030.95
-511.765
917.856
-513.387
786.887
-478.338
622.088
-400.073
417.011
-297.345
201.312
-181.975
14.3087
-47.1726
-113.256
8.1275
-54.5553
156.568
-44.7872
2093.77
-106.305
1933.46
-155.615
1880.01
-211.681
1714.32
-267.761
1656.03
-324.879
1527.61
-387.659
1458.48
-451.695
1362.06
-520.175
1287.28
-584.668
1192.63
-639.229
1085.51
-674.658
953.286
-690.279
802.509
-691.823
623.633
-694.434
419.623
-716.924
223.802
-769.12
66.5061
-750.061
-132.314
-491.768
-312.846
-335.2
29.2024
2064.57
-42.82
2005.49
-64.2613
1901.45
-83.288
1733.35
-99.0576
1671.8
-112.245
1540.8
-122.386
1468.63
-128.018
1367.69
-130.058
1289.32
-129.284
1191.86
-127.599
1083.83
-125.015
950.704
-122.345
799.841
-127.636
628.927
-148.393
440.384
-170.58
245.996
-150.755
46.6893
-169.236
-113.829
-184.337
-297.743
-519.536
140.503
1924.07
87.476
2058.51
106.165
1882.77
138.84
1700.67
182.705
1627.93
224.977
1498.53
278.209
1415.39
334.961
1310.94
401.002
1223.28
467.265
1125.6
528.397
1022.7
573.531
905.57
596.99
776.383
589.665
636.253
541.226
488.823
452.263
334.96
322.557
176.397
214.79
-6.06101
100.494
-183.445
-419.043
179.977
1744.09
168.461
2070.03
198.208
1853.02
249.128
1649.76
315.584
1561.48
376.168
1437.95
445.346
1346.22
514.929
1241.36
591.52
1146.69
667.715
1049.41
738.574
951.84
793.423
850.724
823.768
746.039
821.946
638.076
782.429
528.342
702.078
415.313
579.221
299.254
405.68
167.482
202.743
19.4951
-216.3
143.417
1600.68
174.006
2039.44
209.576
1817.45
261.92
1597.41
329.013
1494.39
391.283
1375.68
457.547
1279.95
522.04
1176.87
587.38
1081.35
648.833
987.954
703.318
897.354
745.678
808.364
771.564
720.154
777.038
632.603
758.156
547.225
706.853
466.617
610.78
395.328
452.59
325.673
234.379
237.708
18.0789
67.618
1533.06
120.313
1986.75
173.111
1764.65
231.175
1539.35
297.792
1427.77
365.853
1307.62
436.744
1209.06
509.989
1103.62
586.025
1005.32
665.304
908.675
746.951
815.707
829.231
726.085
907.749
641.636
972.575
567.778
1005.63
514.174
977.805
494.44
862.474
510.66
643.47
544.678
343.82
537.36
361.899
-18.8149
1551.87
40.7564
1927.18
103.375
1702.03
140.219
1502.5
167.131
1400.86
184.321
1290.42
202.559
1190.82
233.95
1072.23
288.783
950.483
373.836
823.619
491.361
698.18
639.268
578.174
805.136
475.766
963.453
409.458
1073.25
404.373
1082.82
484.873
952.571
640.906
684.444
812.805
337.91
883.893
699.809
-190.778
1742.65
-213.425
1949.82
-260.02
1748.63
-367.159
1609.64
-499.679
1533.38
-653.605
1444.35
-806.573
1343.79
-941.431
1207.08
-1045.37
1054.42
-1115.59
893.837
-1150.18
732.777
-1145.77
573.758
-1099.02
429.015
-1007.06
317.499
-866.472
263.788
-667.451
285.852
-415.341
388.795
-164.69
562.153
-17.941
737.143
681.868
-173.306
1915.95
-320.037
2096.55
-453.691
1882.28
-614.08
1770.03
-793.828
1713.12
-986.341
1636.86
-1184.51
1541.96
-1381.21
1403.77
-1572.5
1245.71
-1757.93
1079.27
-1937.53
912.371
-2104.31
740.54
-2240.86
565.564
-2316.08
392.717
-2282.87
230.578
-2095.87
98.8426
-1738.81
31.7346
-1193.43
16.7729
-513.909
57.62
167.959
157.042
1758.91
25.628
2227.96
-122.31
2030.21
-215.958
1863.68
-283.458
1780.62
-342.528
1695.93
-404.521
1603.95
-478.43
1477.68
-564.631
1331.91
-659.089
1173.72
-758.956
1012.24
-863.656
845.237
-970.823
672.728
-1072.43
494.326
-1153.19
311.332
-1194.53
140.176
-1170.94
8.14116
-1001.5
-152.666
-613.61
-330.274
-445.651
492.04
1266.87
587.267
2132.73
501.598
2115.88
470.035
1895.23
510.535
1740.12
582.117
1624.35
660.902
1525.16
724.382
1414.2
764.63
1291.66
779.664
1158.69
771.251
1020.65
737.192
879.293
674.065
735.852
578.227
590.16
447.406
442.148
298.392
289.182
175.65
130.875
81.5901
-58.6145
-19.2496
-229.442
-464.9
486.771
780.096
683.014
1936.49
670.882
2128.01
659.36
1906.76
707.522
1691.95
790.005
1541.86
884.629
1430.54
972.556
1326.27
1044.61
1219.61
1095.46
1107.83
1123.53
992.576
1127.08
875.74
1103.91
759.021
1051.17
642.9
965.422
527.89
843.346
411.256
682.317
291.902
468.803
154.896
244.024
-4.66701
-220.876
265.367
514.727
368.473
1833.38
406.608
2089.88
445.063
1868.3
504.074
1632.94
576.538
1469.4
651.748
1355.33
723.367
1254.65
785.708
1157.26
833.945
1059.59
864.458
962.062
874.527
865.669
862.068
771.479
825.417
679.549
763.328
589.978
674.522
500.061
556.941
409.481
402.39
309.447
203.775
193.945
-17.1009
63.6136
451.112
48.8533
1848.14
87.2892
2051.44
132.055
1823.53
184.859
1580.14
247.636
1406.62
321.606
1281.36
392.086
1184.17
453.513
1095.84
503.036
1010.07
539.125
925.971
561.055
843.739
568.844
763.689
562.892
685.5
543.825
609.044
508.932
534.953
449.063
469.351
342.78
415.729
176.53
360.196
159.429
-104.271
104.25
347.057
528.266
662.742
772.92
842.804
909.034
958.864
992.462
1009.24
1008.22
988.616
950.018
892.732
814.507
708.038
555.408
334.962
)
;

boundaryField
{
    outletWall
    {
        type            calculated;
        value           nonuniform List<scalar> 
60
(
3250.36
-6198.85
-10052.7
-8033.65
1570.23
10312.3
9941.86
5604.22
-4967.41
-6799.92
1374.05
8537.72
-11853.2
-21470.4
-21645
-20693.3
-18447.6
-16303
-14061.5
-11112.3
2468.96
2352.35
2260.53
2239.88
2209.19
2184.3
2154.66
2123.6
2088.82
2051.86
2013.15
1974.39
1936.83
1901.82
1870.46
1844.28
1824.67
1811.82
1810.56
1828.63
4392.23
-1759.35
-5548.16
-8680.16
-15998.1
-22260.8
-21918.4
-11199.3
20734.2
29056
23193.7
16349.8
14741.8
16158.8
17156.8
16981.1
16276.4
15059.2
14123.3
12238.1
)
;
    }
    fineWalls
    {
        type            calculated;
        value           uniform 0;
    }
    fineFrontAndBack
    {
        type            calculated;
        value           nonuniform List<scalar> 
960
(
-4.15616e-12
-1.53084e-11
-1.86538e-12
-1.12037e-12
-1.87233e-12
3.87135e-13
-2.05895e-12
-3.65433e-12
-3.07071e-11
-6.73879e-12
-7.45703e-12
-2.46553e-11
-2.67399e-12
-2.08219e-12
-1.70477e-11
-2.84553e-12
-2.4237e-12
-1.9099e-11
-3.29997e-12
-3.51624e-12
-5.40847e-13
-7.0562e-13
-6.79701e-13
-6.82134e-13
-6.7914e-13
-7.65654e-13
-1.45486e-11
-7.99894e-13
-7.93505e-13
-7.6878e-13
-7.39794e-13
-6.87607e-13
-5.87807e-13
-4.39601e-13
-2.76923e-13
-1.56621e-13
-1.25973e-13
-2.31841e-13
-2.92945e-13
-4.5989e-13
3.98755e-12
1.74682e-12
1.56951e-12
8.37119e-13
9.65488e-12
1.18552e-12
2.44819e-12
9.00291e-12
1.28669e-10
2.07943e-11
9.5511e-12
1.86731e-11
2.61253e-12
1.74477e-12
9.21643e-13
-1.74935e-12
-1.32294e-12
-1.89105e-12
-1.94312e-12
1.06579e-12
8.80793e-13
7.31395e-13
6.59126e-13
5.39991e-13
5.21119e-13
5.64502e-13
6.54487e-13
7.6093e-13
8.3117e-13
8.58912e-13
8.66649e-13
8.76126e-13
8.74311e-13
1.44324e-11
8.40295e-13
7.95199e-13
8.3763e-13
8.2309e-13
8.11301e-13
5.69567e-13
3.01655e-12
2.29893e-12
9.50044e-12
1.00622e-12
4.75304e-13
1.07627e-12
4.3675e-13
9.96562e-13
1.13308e-11
3.15876e-12
3.75448e-12
2.32144e-11
4.28596e-12
1.98725e-12
1.43382e-12
2.87317e-12
3.68207e-13
7.64671e-13
1.28012e-12
1.02631e-12
-3.46766e-11
-3.1232e-11
-2.66458e-11
-2.06074e-11
-1.24778e-11
-5.01978e-12
-1.01517e-12
-1.00029e-12
-9.81246e-13
-7.43269e-13
1.15026e-12
6.22674e-12
7.73014e-12
1.12593e-11
1.77715e-11
1.96626e-11
7.86479e-12
4.33128e-12
1.23723e-12
-3.45553e-11
-3.09763e-11
-2.63539e-11
-2.02416e-11
-1.21605e-11
-4.84667e-12
-9.88204e-13
-1.00123e-12
-9.59442e-13
-1.73755e-13
1.70433e-12
6.42158e-12
1.11666e-11
2.88969e-11
4.26877e-11
4.61882e-11
2.05764e-11
6.57301e-12
1.24283e-12
-3.43954e-11
-3.06502e-11
-2.59755e-11
-1.9771e-11
-1.17536e-11
-4.62665e-12
-9.55389e-13
-1.00205e-12
-7.50125e-13
2.36981e-13
2.28421e-12
7.29884e-12
2.4916e-11
5.45977e-11
6.39731e-11
6.23e-11
3.72255e-11
1.32461e-11
-1.68485e-13
-3.42147e-11
-3.02952e-11
-2.55566e-11
-1.92558e-11
-1.13113e-11
-4.39118e-12
-9.23324e-13
-1.00075e-12
-5.10055e-13
4.17516e-13
2.6351e-12
1.24276e-11
4.85523e-11
7.34746e-11
6.91228e-11
5.89e-11
5.01961e-11
2.36993e-11
3.46411e-12
-3.40165e-11
-2.99186e-11
-2.51059e-11
-1.87085e-11
-1.08463e-11
-4.14721e-12
-8.90291e-13
-9.92164e-13
-3.38913e-13
2.93255e-13
3.66305e-12
2.46049e-11
6.74864e-11
7.59099e-11
6.38722e-11
5.373e-11
6.10548e-11
3.26008e-11
9.7043e-12
-3.38007e-11
-2.95203e-11
-2.46231e-11
-1.81307e-11
-1.03619e-11
-3.90428e-12
-8.74475e-13
-9.71406e-13
-3.91887e-13
1.24878e-13
5.95405e-12
3.65445e-11
7.34334e-11
7.07628e-11
5.9892e-11
5.03952e-11
5.15343e-11
3.5914e-11
1.30466e-11
-3.35663e-11
-2.90976e-11
-2.41061e-11
-1.75235e-11
-9.86076e-12
-3.63903e-12
-7.86599e-13
-9.5118e-13
-6.01927e-13
2.63203e-13
8.72797e-12
4.17682e-11
6.58001e-11
5.67195e-11
5.26909e-11
4.67738e-11
3.74746e-11
3.99473e-11
1.89009e-11
-3.3312e-11
-2.86477e-11
-2.35518e-11
-1.68802e-11
-9.33721e-12
-3.45396e-12
-1.06903e-12
-8.98336e-13
-5.95201e-13
6.0874e-13
1.05067e-11
3.81707e-11
4.1423e-11
2.73636e-11
3.70547e-11
4.42655e-11
2.44673e-11
1.67431e-11
2.64761e-12
-3.30365e-11
-2.81674e-11
-2.29585e-11
-1.62177e-11
-8.83162e-12
-2.99157e-12
4.74812e-13
-9.29415e-13
-4.78822e-13
1.51488e-12
1.25926e-11
2.89124e-11
2.02126e-12
-1.5263e-11
9.54282e-12
3.90325e-11
3.18939e-11
9.8967e-12
3.54027e-12
-3.27391e-11
-2.7656e-11
-2.23271e-11
-1.55041e-11
-8.19454e-12
-3.28822e-12
-5.78463e-12
-7.18881e-13
6.83785e-14
2.60589e-12
1.07471e-11
9.60648e-12
-3.36944e-11
-5.28319e-11
-2.46936e-11
1.69457e-11
3.78441e-11
2.65409e-11
2.0856e-11
-3.242e-11
-2.71132e-11
-2.16563e-11
-1.47623e-11
-7.67182e-12
-3.15754e-12
-2.27933e-12
-6.04544e-13
6.25211e-13
3.03992e-12
8.40924e-12
-5.0284e-13
-4.8799e-11
-6.39564e-11
-4.47783e-11
-1.83454e-11
1.25591e-11
2.78857e-11
5.82677e-11
-3.20794e-11
-2.65394e-11
-2.09509e-11
-1.40145e-11
-7.1826e-12
-2.88225e-12
-1.82705e-14
-5.25018e-13
9.60721e-13
3.00174e-12
6.69408e-12
-3.98751e-12
-4.96037e-11
-5.91711e-11
-4.87201e-11
-3.91253e-11
-1.97625e-11
-2.68632e-12
1.02859e-11
-3.17169e-11
-2.5938e-11
-2.02246e-11
-1.32818e-11
-6.70086e-12
-2.55075e-12
-1.46802e-13
-4.77832e-13
1.09127e-12
2.85599e-12
5.81312e-12
-5.07789e-12
-4.6885e-11
-5.35394e-11
-4.65136e-11
-3.98795e-11
-1.66511e-11
-4.85036e-12
1.85132e-12
-3.13296e-11
-2.53174e-11
-1.95011e-11
-1.25866e-11
-6.23349e-12
-2.18711e-12
-1.16143e-13
-4.05629e-13
1.12929e-12
2.72664e-12
5.46014e-12
-5.12255e-12
-4.39521e-11
-4.91762e-11
-4.60201e-11
-4.60234e-11
-3.87322e-11
-3.16673e-11
-3.02379e-11
-3.09258e-11
-2.47038e-11
-1.88256e-11
-1.19676e-11
-5.80861e-12
-1.86453e-12
-2.35684e-15
-2.38683e-13
1.15474e-12
2.61129e-12
5.1564e-12
-4.84891e-12
-3.99459e-11
-4.40641e-11
-4.46304e-11
-4.5832e-11
-4.23705e-11
-4.05739e-11
-4.06657e-11
-3.04843e-11
-2.41023e-11
-1.82284e-11
-1.14591e-11
-5.44906e-12
-1.60669e-12
6.70833e-14
-1.34208e-14
1.1901e-12
2.55223e-12
4.78563e-12
-4.53862e-12
-3.54249e-11
-3.93148e-11
-4.38104e-11
-4.64861e-11
-4.25061e-11
-3.88493e-11
-4.3261e-11
-3.0068e-11
-2.35546e-11
-1.7767e-11
-1.11246e-11
-5.20948e-12
-1.41451e-12
7.10951e-14
8.32868e-14
1.20733e-12
2.61035e-12
4.47325e-12
-4.20938e-12
-3.10482e-11
-3.50828e-11
-4.29134e-11
-4.66993e-11
-4.24791e-11
-3.87032e-11
-3.63383e-11
-2.93082e-11
-2.28672e-11
-1.73662e-11
-1.09624e-11
-5.13775e-12
-1.29778e-12
6.35878e-14
7.18353e-14
1.30465e-12
2.80866e-12
4.34633e-12
-3.73647e-12
-2.71879e-11
-3.21309e-11
-4.22663e-11
-4.67725e-11
-4.25351e-11
-3.80048e-11
-3.36274e-11
-2.87378e-11
-2.22534e-11
-1.70467e-11
-1.09191e-11
-5.16679e-12
-1.22758e-12
1.75699e-14
-1.45389e-13
1.29707e-12
3.02325e-12
4.31597e-12
-3.26335e-12
-2.37937e-11
-3.04869e-11
-4.17884e-11
-4.68e-11
-4.25747e-11
-3.74664e-11
-3.69412e-11
-2.65935e-11
-2.079e-11
-1.66947e-11
-1.15471e-11
-6.49211e-12
-2.70631e-12
-1.30083e-12
-1.10278e-12
1.7649e-12
3.6218e-12
4.20151e-12
-2.7054e-12
-2.10514e-11
-2.97219e-11
-4.14287e-11
-4.68273e-11
-4.2618e-11
-3.72161e-11
-3.16934e-11
4.15616e-12
1.53084e-11
1.86538e-12
1.12037e-12
1.87233e-12
-3.87135e-13
2.05895e-12
3.65433e-12
3.07071e-11
6.73879e-12
7.45703e-12
2.46553e-11
2.67399e-12
2.08219e-12
1.70477e-11
2.84553e-12
2.4237e-12
1.9099e-11
3.29997e-12
3.51624e-12
5.40847e-13
7.0562e-13
6.79701e-13
6.82134e-13
6.7914e-13
7.65654e-13
1.45486e-11
7.99894e-13
7.93505e-13
7.6878e-13
7.39794e-13
6.87607e-13
5.87807e-13
4.39601e-13
2.76923e-13
1.56621e-13
1.25973e-13
2.31841e-13
2.92945e-13
4.5989e-13
-3.98755e-12
-1.74682e-12
-1.56951e-12
-8.37119e-13
-9.65488e-12
-1.18552e-12
-2.44819e-12
-9.00291e-12
-1.28669e-10
-2.07943e-11
-9.5511e-12
-1.86731e-11
-2.61253e-12
-1.74477e-12
-9.21643e-13
1.74935e-12
1.32294e-12
1.89105e-12
1.94312e-12
-1.06579e-12
-8.80793e-13
-7.31395e-13
-6.59126e-13
-5.39991e-13
-5.21119e-13
-5.64502e-13
-6.54487e-13
-7.6093e-13
-8.3117e-13
-8.58912e-13
-8.66649e-13
-8.76126e-13
-8.74311e-13
-1.44324e-11
-8.40295e-13
-7.95199e-13
-8.3763e-13
-8.2309e-13
-8.11301e-13
-5.69567e-13
-3.01655e-12
-2.29893e-12
-9.50044e-12
-1.00622e-12
-4.75304e-13
-1.07627e-12
-4.3675e-13
-9.96562e-13
-1.13308e-11
-3.15876e-12
-3.75448e-12
-2.32144e-11
-4.28596e-12
-1.98725e-12
-1.43382e-12
-2.87317e-12
-3.68207e-13
-7.64671e-13
-1.28012e-12
-1.02631e-12
3.46766e-11
3.1232e-11
2.66458e-11
2.06074e-11
1.24778e-11
5.01978e-12
1.01517e-12
1.00029e-12
9.81246e-13
7.43269e-13
-1.15026e-12
-6.22674e-12
-7.73014e-12
-1.12593e-11
-1.77715e-11
-1.96626e-11
-7.86479e-12
-4.33128e-12
-1.23723e-12
3.45553e-11
3.09763e-11
2.63539e-11
2.02416e-11
1.21605e-11
4.84667e-12
9.88204e-13
1.00123e-12
9.59442e-13
1.73755e-13
-1.70433e-12
-6.42158e-12
-1.11666e-11
-2.88969e-11
-4.26877e-11
-4.61882e-11
-2.05764e-11
-6.57301e-12
-1.24283e-12
3.43954e-11
3.06502e-11
2.59755e-11
1.9771e-11
1.17536e-11
4.62665e-12
9.55389e-13
1.00205e-12
7.50125e-13
-2.36981e-13
-2.28421e-12
-7.29884e-12
-2.4916e-11
-5.45977e-11
-6.39731e-11
-6.23e-11
-3.72255e-11
-1.32461e-11
1.68485e-13
3.42147e-11
3.02952e-11
2.55566e-11
1.92558e-11
1.13113e-11
4.39118e-12
9.23324e-13
1.00075e-12
5.10055e-13
-4.17516e-13
-2.6351e-12
-1.24276e-11
-4.85523e-11
-7.34746e-11
-6.91228e-11
-5.89e-11
-5.01961e-11
-2.36993e-11
-3.46411e-12
3.40165e-11
2.99186e-11
2.51059e-11
1.87085e-11
1.08463e-11
4.14721e-12
8.90291e-13
9.92164e-13
3.38913e-13
-2.93255e-13
-3.66305e-12
-2.46049e-11
-6.74864e-11
-7.59099e-11
-6.38722e-11
-5.373e-11
-6.10548e-11
-3.26008e-11
-9.7043e-12
3.38007e-11
2.95203e-11
2.46231e-11
1.81307e-11