/*--------------------------------*- C++ -*----------------------------------*\
| =========                 |                                                 |
| \\      /  F ield         | OpenFOAM: The Open Source CFD Toolbox           |
|  \\    /   O peration     | Version:  4.1                                   |
|   \\  /    A nd           | Web:      www.OpenFOAM.org                      |
|    \\/     M anipulation  |                                                 |
\*---------------------------------------------------------------------------*/
FoamFile
{
    version     2.0;
    format      ascii;
    class       volVectorField;
    location    "27";
    object      U;
}
// * * * * * * * * * * * * * * * * * * * * * * * * * * * * * * * * * * * * * //

dimensions      [0 1 -1 0 0 0 0];

internalField   nonuniform List<vector> 
1280
(
(-3.00355e-15 -1.42698 -1.3809)
(-2.60443e-15 -1.11164 -1.26183)
(-1.33854e-15 -1.18623 -1.07968)
(-8.09659e-16 -0.904542 -1.16264)
(-3.18221e-16 -0.929245 -1.59258)
(2.79772e-16 -0.662869 -1.25531)
(-1.48795e-15 -0.487699 -1.33999)
(-2.57487e-15 -0.276566 -1.31971)
(-5.41801e-15 -0.0892122 -1.7474)
(-5.06953e-15 0.0492677 -1.34906)
(-5.58859e-15 0.312756 -1.20695)
(-3.9639e-15 0.496377 -2.14855)
(-1.91222e-15 0.774614 -1.75675)
(-1.50474e-15 1.08239 -1.54922)
(-2.88687e-15 1.63488 -3.05176)
(-2.05639e-15 1.8443 -2.48317)
(-1.75155e-15 2.33695 -2.06162)
(-3.24606e-15 3.10112 -4.62457)
(-2.3848e-15 3.50646 -3.21913)
(-2.54109e-15 4.12086 -4.43001)
(-2.21886e-15 3.89579 -2.46267)
(-2.89485e-15 4.26802 4.95272)
(-2.78852e-15 3.84319 9.22282)
(-2.7985e-15 4.13847 10.8288)
(-2.78621e-15 4.35028 11.196)
(-3.14114e-15 4.81709 11.1819)
(-3.06689e-15 3.97327 8.24701)
(-3.28161e-15 8.12768 12.6835)
(-3.2554e-15 8.16094 12.435)
(-3.15397e-15 8.19848 12.1265)
(-3.03505e-15 8.23287 11.9021)
(-2.82095e-15 8.2601 11.8133)
(-2.41152e-15 8.28337 11.8525)
(-1.80349e-15 8.27976 11.9556)
(-1.13609e-15 8.26281 12.0422)
(-6.42546e-16 8.19649 12.1061)
(-5.16814e-16 8.15389 12.3147)
(-9.51144e-16 7.99675 12.7783)
(-1.20183e-15 7.98122 13.7603)
(-1.88673e-15 7.65707 14.0493)
(6.9409e-16 9.09557 15.4424)
(1.40306e-15 4.73011 10.4303)
(1.26065e-15 3.39141 9.96513)
(6.86061e-16 2.42403 9.45341)
(1.88863e-15 0.793247 7.20128)
(9.52226e-16 0.717044 3.28372)
(1.96642e-15 -0.493353 3.35503)
(7.23125e-15 -0.425014 1.73383)
(2.44952e-14 -1.21392 -4.43063)
(1.64948e-14 0.41937 -3.83797)
(8.71432e-15 0.20931 -1.87589)
(3.25032e-15 0.748951 1.58655)
(2.09842e-15 -0.634367 5.05904)
(1.40142e-15 -1.18711 4.83689)
(7.40276e-16 -1.79502 5.1697)
(-3.045e-16 -2.85082 9.03161)
(-1.0626e-15 -4.16382 9.49571)
(-1.51891e-15 -5.28146 10.1332)
(-1.56074e-15 -6.58635 10.527)
(3.56155e-17 -10.6824 14.9843)
(3.61351e-15 -8.41982 13.1684)
(3.00059e-15 -8.75549 12.6979)
(2.70411e-15 -8.73586 11.7202)
(2.21535e-15 -8.87608 11.281)
(2.13792e-15 -8.8923 11.0973)
(2.31591e-15 -8.93725 11.0222)
(2.68507e-15 -8.93028 10.9138)
(3.12176e-15 -8.91244 10.8031)
(3.40993e-15 -8.86848 10.7708)
(3.52374e-15 -8.81843 10.8634)
(3.55548e-15 -8.76759 11.0776)
(3.59436e-15 -8.71425 11.3623)
(3.58692e-15 -8.61579 11.5871)
(3.04241e-15 -4.87752 7.165)
(3.44736e-15 -5.22536 10.758)
(3.26236e-15 -4.74647 10.8557)
(3.43643e-15 -4.50469 10.6528)
(3.37678e-15 -4.16543 9.3269)
(3.32841e-15 -4.54838 5.48848)
(2.33669e-15 -4.1716 -1.47234)
(2.17998e-15 -4.37079 -3.2681)
(1.66138e-15 -3.94001 -2.06785)
(1.61469e-15 -4.41998 -3.11975)
(7.27167e-16 -3.44827 -1.69016)
(3.4349e-16 -3.08402 -1.95969)
(1.11005e-16 -3.39908 -2.50021)
(3.15628e-16 -2.50049 -1.45913)
(7.2019e-16 -2.23727 -1.65403)
(1.91156e-15 -2.42364 -2.0856)
(2.28436e-15 -1.59856 -1.16626)
(2.70045e-15 -1.42259 -1.37752)
(4.05837e-15 -1.51472 -1.92901)
(3.14683e-15 -0.793468 -1.28328)
(1.43613e-15 -0.732072 -1.35587)
(1.03618e-15 -0.399469 -1.31442)
(4.88323e-16 -0.592348 -1.85697)
(2.66094e-16 0.0931449 -1.44132)
(5.52607e-16 0.521644 -1.42464)
(1.65014e-16 -0.155766 -2.03573)
(7.41686e-16 1.07902 -2.45853)
(-3.85296e-15 -3.70213 1.52502)
(-3.47022e-15 -4.68311 1.60341)
(-2.96064e-15 -5.42524 1.55085)
(-2.28971e-15 -6.1365 1.48119)
(-1.38642e-15 -6.87967 1.3159)
(-5.57754e-16 -7.19822 1.04484)
(-1.12797e-16 -7.13892 0.822973)
(-1.11143e-16 -3.95566 0.265941)
(-1.09027e-16 2.83938 -0.140557)
(-8.25854e-17 0.443809 1.35182)
(1.27806e-16 -2.29378 1.00508)
(6.9186e-16 -1.7555 1.13524)
(8.58904e-16 1.98592 -0.0432289)
(1.25103e-15 3.38684 -1.67589)
(1.97462e-15 3.47235 -3.31582)
(2.18474e-15 0.439114 -4.70772)
(8.73865e-16 -2.71646 -4.46472)
(4.81253e-16 -3.37188 -3.28903)
(1.3747e-16 -2.09775 -2.63172)
(-3.83948e-15 -3.73617 1.51461)
(-3.44181e-15 -4.70029 1.60845)
(-2.92821e-15 -5.40308 1.55982)
(-2.24907e-15 -6.08169 1.49578)
(-1.35116e-15 -6.76935 1.3385)
(-5.38519e-16 -7.06249 1.08257)
(-1.098e-16 -6.91778 0.875265)
(-1.11248e-16 -3.58764 0.218856)
(-1.06605e-16 2.43734 -0.182851)
(-1.93061e-17 -0.0112912 1.82707)
(1.8937e-16 -2.16081 1.38679)
(7.13509e-16 -1.11203 1.31545)
(1.24074e-15 2.7305 -0.271497)
(3.21077e-15 4.46229 -1.82807)
(4.74308e-15 4.5635 -3.43276)
(5.13203e-15 1.11525 -5.17897)
(2.28626e-15 -3.18636 -5.29491)
(7.30334e-16 -4.00678 -3.47458)
(1.38093e-16 -2.49712 -2.29594)
(-3.82171e-15 -3.75545 1.51556)
(-3.40558e-15 -4.70369 1.62182)
(-2.88617e-15 -5.37667 1.57728)
(-2.19678e-15 -6.03218 1.52047)
(-1.30596e-15 -6.68548 1.37357)
(-5.14073e-16 -6.96718 1.13063)
(-1.06154e-16 -6.76343 0.943086)
(-1.11339e-16 -3.35657 0.190811)
(-8.33472e-17 2.1332 0.0233025)
(2.63312e-17 -0.327296 2.04336)
(2.53801e-16 -2.14667 1.9284)
(8.10983e-16 -0.73703 1.79221)
(2.76845e-15 3.10626 0.203676)
(6.06642e-15 4.89919 -0.574893)
(7.10812e-15 4.99865 -1.52887)
(6.92222e-15 1.362 -2.94751)
(4.13617e-15 -3.42538 -5.01802)
(1.47179e-15 -4.59963 -3.76626)
(-1.87206e-17 -2.77895 -2.20916)
(-3.80163e-15 -3.77977 1.52656)
(-3.36613e-15 -4.71407 1.64055)
(-2.83963e-15 -5.35975 1.59949)
(-2.13953e-15 -5.99455 1.54994)
(-1.25681e-15 -6.61861 1.41565)
(-4.87909e-16 -6.88634 1.18364)
(-1.02592e-16 -6.61135 1.01896)
(-1.11195e-16 -3.1432 0.190097)
(-5.66728e-17 1.67561 0.284074)
(4.63907e-17 -0.757262 2.30436)
(2.92789e-16 -2.18984 2.5516)
(1.38085e-15 -0.219204 2.45745)
(5.3947e-15 3.50752 1.54685)
(8.16385e-15 5.12939 1.7977)
(7.68031e-15 5.45267 1.33336)
(6.54445e-15 2.11854 0.0627518)
(5.57734e-15 -3.05864 -3.27613)
(2.63325e-15 -5.00637 -3.3338)
(3.84902e-16 -3.20103 -2.20561)
(-3.77961e-15 -3.80844 1.54357)
(-3.32429e-15 -4.72818 1.66428)
(-2.78954e-15 -5.34525 1.62693)
(-2.07872e-15 -5.95827 1.58521)
(-1.20514e-15 -6.55111 1.46494)
(-4.60802e-16 -6.80137 1.24277)
(-9.89212e-17 -6.44 1.0978)
(-1.1024e-16 -2.93543 0.212146)
(-3.7657e-17 1.1793 0.643867)
(3.25839e-17 -1.23371 2.59662)
(4.07005e-16 -2.31822 3.17023)
(2.73388e-15 -0.000666581 3.38141)
(7.49848e-15 3.3445 3.62722)
(8.43443e-15 5.05183 4.37604)
(7.09692e-15 5.80621 4.02739)
(5.97e-15 3.15251 2.82329)
(6.78386e-15 -2.29044 -0.717796)
(3.62231e-15 -4.82366 -2.01091)
(1.07826e-15 -3.02139 -1.92094)
(-3.75564e-15 -3.83776 1.56584)
(-3.28003e-15 -4.74273 1.69219)
(-2.7359e-15 -5.33232 1.65859)
(-2.01452e-15 -5.92505 1.62497)
(-1.15132e-15 -6.48822 1.51876)
(-4.33809e-16 -6.72057 1.30514)
(-9.71639e-17 -6.26752 1.17247)
(-1.07934e-16 -2.78589 0.267074)
(-4.3543e-17 0.59174 1.07839)
(1.38753e-17 -1.7384 2.87482)
(6.61561e-16 -2.59763 3.75384)
(4.0605e-15 -0.23931 4.5982)
(8.15927e-15 3.01681 5.81548)
(7.86253e-15 4.95483 6.70837)
(6.65467e-15 6.16847 6.69713)
(5.59947e-15 4.05389 5.80498)
(5.72604e-15 -1.55929 2.21087)
(3.99044e-15 -4.55384 0.110294)
(1.44962e-15 -3.03529 -1.02102)
(-3.72959e-15 -3.8682 1.59231)
(-3.23306e-15 -4.75872 1.72304)
(-2.67846e-15 -5.32229 1.69292)
(-1.94705e-15 -5.8965 1.66717)
(-1.09564e-15 -6.43132 1.57397)
(-4.04337e-16 -6.64412 1.36737)
(-8.73999e-17 -6.09873 1.23671)
(-1.05687e-16 -2.71685 0.369472)
(-6.68807e-17 -0.0390138 1.5013)
(2.92448e-17 -2.25954 3.10538)
(9.69774e-16 -3.05494 4.26002)
(4.64091e-15 -0.814417 5.73895)
(7.31113e-15 2.50698 7.58786)
(6.30217e-15 4.6833 8.61854)
(5.85455e-15 6.30809 9.20569)
(5.19709e-15 4.94696 8.98215)
(4.16385e-15 -0.60908 5.08597)
(4.43859e-15 -3.13317 1.83097)
(2.1001e-15 -0.49041 -1.85222)
(-3.70133e-15 -3.8998 1.62174)
(-3.18307e-15 -4.77613 1.75582)
(-2.61686e-15 -5.3148 1.72884)
(-1.87558e-15 -5.87174 1.71045)
(-1.03747e-15 -6.37816 1.6283)
(-3.83774e-16 -6.56836 1.4264)
(-1.18782e-16 -5.93671 1.2867)
(-9.98151e-17 -2.72959 0.51198)
(-6.61335e-17 -0.635393 1.79142)
(6.76378e-17 -2.80044 3.26995)
(1.16742e-15 -3.66504 4.63056)
(4.24118e-15 -1.61433 6.58161)
(4.60255e-15 1.88189 8.87101)
(3.0404e-15 4.25385 9.95529)
(4.11719e-15 6.15673 10.952)
(4.91839e-15 5.74065 11.8516)
(2.71859e-15 1.53766 9.27815)
(1.86034e-15 -2.23421 5.34501)
(2.94179e-16 -5.75956 7.93927)
(-3.67072e-15 -3.93214 1.65316)
(-3.12972e-15 -4.79455 1.78959)
(-2.55095e-15 -5.30941 1.76531)
(-1.80197e-15 -5.85015 1.75347)
(-9.81291e-16 -6.3274 1.67957)
(-3.32397e-16 -6.49122 1.47899)
(5.27569e-17 -5.78703 1.32)
(-1.03268e-16 -2.81099 0.668627)
(-5.32025e-17 -1.20173 1.97311)
(1.6832e-16 -3.36852 3.36397)
(1.39918e-15 -4.37699 4.83908)
(3.21249e-15 -2.55723 7.08654)
(2.24584e-16 1.23978 9.61098)
(-1.69589e-15 3.77929 10.4088)
(1.06031e-15 5.63305 11.4596)
(4.33695e-15 5.35487 13.4906)
(3.54377e-15 1.61415 13.8633)
(1.09963e-15 -2.41176 11.7725)
(3.93363e-16 -4.70182 10.6986)
(-3.63768e-15 -3.96479 1.68546)
(-3.07289e-15 -4.81367 1.8232)
(-2.48079e-15 -5.30573 1.80101)
(-1.72268e-15 -5.83108 1.79451)
(-9.10504e-16 -6.27763 1.72552)
(-3.65357e-16 -6.41071 1.52292)
(-8.00262e-16 -5.65171 1.33779)
(-7.98757e-17 -2.9346 0.807928)
(7.59761e-18 -1.74735 2.08108)
(2.89544e-16 -3.94166 3.39211)
(1.19412e-15 -5.13762 4.89262)
(1.01328e-15 -3.56273 7.23715)
(-3.74382e-15 0.703401 9.41033)
(-5.87021e-15 3.44412 9.31772)
(-2.78344e-15 5.06301 10.1889)
(1.88286e-15 4.85664 12.7696)
(4.2049e-15 1.94942 13.3508)
(2.94899e-15 -1.74591 11.1303)
(2.31733e-15 -3.25971 7.22574)
(-3.60222e-15 -3.99776 1.71756)
(-3.01257e-15 -4.83345 1.85526)
(-2.40625e-15 -5.30347 1.83431)
(-1.64025e-15 -5.81381 1.83139)
(-8.52425e-16 -6.22758 1.76388)
(-3.50837e-16 -6.32527 1.55764)
(-9.26362e-17 -5.52749 1.34465)
(-6.71716e-17 -3.07768 0.902052)
(6.94679e-17 -2.25454 2.10834)
(3.37769e-16 -4.49822 3.36774)
(9.3436e-16 -5.88574 4.82389)
(-5.58711e-17 -4.43861 7.05086)
(-5.42211e-15 0.529128 8.18447)
(-7.10627e-15 3.32398 6.86004)
(-4.97537e-15 4.27185 7.17806)
(-2.03838e-15 4.14448 10.6368)
(1.39546e-15 2.78292 12.6173)
(3.09841e-15 0.795033 9.21732)
(6.47419e-15 -0.318617 4.05093)
(-3.56437e-15 -4.03007 1.74808)
(-2.94883e-15 -4.853 1.88424)
(-2.32788e-15 -5.30153 1.86323)
(-1.55716e-15 -5.79689 1.86149)
(-7.98067e-16 -6.176 1.79246)
(-3.2025e-16 -6.23439 1.58411)
(-2.03006e-18 -5.4066 1.34585)
(-5.83354e-17 -3.22492 0.939317)
(1.06747e-16 -2.7371 2.06578)
(3.33526e-16 -5.03627 3.3137)
(7.43787e-16 -6.57319 4.68325)
(-4.43056e-16 -5.07381 6.72081)
(-5.51152e-15 0.853638 7.23659)
(-6.57456e-15 3.7129 5.42538)
(-5.41334e-15 3.59806 4.10895)
(-4.34726e-15 2.49704 6.07467)
(-2.19583e-15 1.97678 11.6183)
(-2.9848e-16 1.08098 13.3208)
(1.14287e-15 1.21132 11.1553)
(-3.5241e-15 -4.0624 1.7766)
(-2.882e-15 -4.87273 1.90831)
(-2.24718e-15 -5.29982 1.88516)
(-1.47576e-15 -5.78026 1.88141)
(-7.4454e-16 -6.12392 1.80842)
(-2.83417e-16 -6.14022 1.60193)
(-1.63114e-17 -5.28066 1.34257)
(-5.30924e-17 -3.36082 0.93479)
(1.21252e-16 -3.19803 2.00816)
(3.17332e-16 -5.55155 3.2518)
(6.45902e-16 -7.19769 4.4992)
(-5.6421e-16 -5.60728 6.3815)
(-5.20945e-15 1.2549 6.96769)
(-5.94883e-15 4.47439 5.36565)
(-5.16818e-15 4.25965 3.51417)
(-4.43106e-15 1.34178 1.43218)
(-1.85012e-15 -0.0507159 4.45293)
(-5.38929e-16 1.59804 9.8087)
(2.05702e-16 5.50423 13.1584)
(-3.48107e-15 -4.09163 1.80194)
(-2.81305e-15 -4.88935 1.92552)
(-2.16679e-15 -5.29524 1.89664)
(-1.39852e-15 -5.76073 1.88656)
(-6.9261e-16 -6.0698 1.8074)
(-2.43012e-16 -6.04278 1.60772)
(-1.29047e-17 -5.14667 1.3365)
(-4.50699e-17 -3.49418 0.948468)
(1.25476e-16 -3.65993 2.01779)
(3.0296e-16 -6.04216 3.19028)
(6.06682e-16 -7.76075 4.27286)
(-5.69172e-16 -6.15474 5.98001)
(-4.88357e-15 1.41912 6.41783)
(-5.46402e-15 5.00167 4.75625)
(-5.11335e-15 5.06797 3.40669)
(-5.11371e-15 2.35665 1.65221)
(-4.30357e-15 -0.954133 -1.561)
(-3.51859e-15 -2.32836 -1.40825)
(-3.35977e-15 -2.06329 -1.87144)
(-3.4362e-15 -4.12138 1.82581)
(-2.74487e-15 -4.90566 1.93256)
(-2.09174e-15 -5.2896 1.89287)
(-1.32973e-15 -5.74131 1.87064)
(-6.45401e-16 -6.01827 1.78165)
(-2.0717e-16 -5.94968 1.59207)
(-2.61871e-19 -5.02105 1.33032)
(-2.65203e-17 -3.63501 1.05449)
(1.28305e-16 -4.08235 2.13153)
(2.90144e-16 -6.45747 3.12997)
(5.72934e-16 -8.23924 4.02591)
(-5.38768e-16 -6.61911 5.52217)
(-4.43844e-15 1.78361 5.69517)
(-4.89601e-15 5.5638 3.94161)
(-4.95894e-15 5.58835 2.90621)
(-5.09245e-15 3.142 1.46555)
(-4.70783e-15 0.561008 -0.820739)
(-4.50821e-15 0.088647 -2.37264)
(-4.51841e-15 -0.506935 -4.81112)
(-3.38714e-15 -4.13997 1.84583)
(-2.67803e-15 -4.90867 1.92763)
(-2.02538e-15 -5.27237 1.86937)
(-1.27323e-15 -5.71041 1.82627)
(-6.05451e-16 -5.95994 1.72229)
(-1.78521e-16 -5.85946 1.54712)
(7.4537e-18 -4.9326 1.3457)
(-1.4912e-18 -3.8232 1.32002)
(1.32234e-16 -4.4946 2.33798)
(2.83581e-16 -6.82313 3.06343)
(5.31736e-16 -8.64041 3.76972)
(-5.04291e-16 -6.96989 5.02924)
(-3.9361e-15 2.14048 4.9098)
(-4.36831e-15 6.04355 3.2257)
(-4.86782e-15 6.0892 2.59123)
(-5.16513e-15 3.7884 1.20675)
(-4.7229e-15 1.16606 -0.349044)
(-4.31659e-15 0.364935 -1.6013)
(-4.80677e-15 0.128916 -3.21669)
(-3.34089e-15 -4.16433 1.87008)
(-2.61717e-15 -4.91552 1.91054)
(-1.97411e-15 -5.25639 1.82543)
(-1.23606e-15 -5.68422 1.7518)
(-5.78831e-16 -5.91314 1.62525)
(-1.57168e-16 -5.80305 1.46497)
(7.89946e-18 -4.92815 1.3723)
(9.25409e-18 -4.02973 1.64392)
(1.34148e-16 -4.75988 2.50985)
(2.90039e-16 -7.02493 2.97546)
(4.97028e-16 -8.92645 3.54494)
(-4.67709e-16 -7.22406 4.55548)
(-3.4498e-15 2.4941 4.11441)
(-3.89808e-15 6.42514 2.60782)
(-4.76816e-15 6.4707 2.27275)
(-5.18881e-15 4.28511 0.977037)
(-4.7199e-15 1.7389 -0.0514095)
(-4.30035e-15 0.936208 -1.26722)
(-4.03759e-15 0.0441247 -1.95425)
(-3.25647e-15 -4.15353 1.8868)
(-2.5408e-15 -4.8772 1.87048)
(-1.92957e-15 -5.20248 1.74993)
(-1.21805e-15 -5.61846 1.63171)
(-5.70861e-16 -5.83816 1.4743)
(-1.44198e-16 -5.7531 1.32182)
(7.06531e-18 -5.00425 1.35242)
(7.9817e-18 -4.29747 1.9027)
(1.44961e-16 -5.05492 2.63131)
(3.12074e-16 -7.29455 2.89738)
(4.82925e-16 -9.20544 3.3674)
(-4.15163e-16 -7.29587 4.14396)
(-3.02087e-15 2.92403 3.37769)
(-3.5701e-15 6.73831 2.21607)
(-4.69625e-15 6.77551 1.93918)
(-5.19694e-15 4.66787 0.838704)
(-4.72613e-15 2.12124 0.0910237)
(-4.22275e-15 1.15617 -0.968713)
(-3.73638e-15 0.217132 -1.37799)
(-3.19309e-15 -4.17613 1.96112)
(-2.4726e-15 -4.8803 1.85784)
(-1.89408e-15 -5.18138 1.68198)
(-1.21324e-15 -5.59291 1.51768)
(-5.74087e-16 -5.80797 1.33022)
(-1.36398e-16 -5.7681 1.18348)
(1.95221e-18 -5.15163 1.32244)
(-1.61543e-17 -4.51393 2.09283)
(1.44119e-16 -5.10255 2.6753)
(3.35917e-16 -7.25852 2.74677)
(4.79553e-16 -9.30548 3.26893)
(-3.62595e-16 -7.31491 3.81699)
(-2.64374e-15 3.38921 2.66388)
(-3.38744e-15 7.05026 2.02992)
(-4.64316e-15 7.05201 1.63028)
(-5.2e-15 4.95359 0.785834)
(-4.73052e-15 2.43339 0.203689)
(-4.16293e-15 1.42963 -0.725184)
(-4.10457e-15 0.306456 -1.13303)
(-2.95484e-15 -4.08855 2.05901)
(-2.31e-15 -4.72355 1.75201)
(-1.85497e-15 -5.03272 1.52291)
(-1.28301e-15 -5.43936 1.2627)
(-7.21345e-16 -5.67272 1.0114)
(-3.00701e-16 -5.7279 0.81314)
(-1.44537e-16 -5.38299 0.832119)
(-1.22532e-16 -4.8955 1.43523)
(1.961e-16 -5.411 1.9648)
(4.02422e-16 -7.68349 2.57068)
(4.66834e-16 -9.66236 3.48472)
(-3.006e-16 -6.96878 3.73726)
(-2.33904e-15 3.43207 2.34651)
(-3.30244e-15 7.2199 1.86968)
(-4.60319e-15 7.38532 1.41382)
(-5.20303e-15 5.31893 0.756208)
(-4.73533e-15 2.89465 0.294543)
(-4.13512e-15 1.83912 -0.521683)
(-3.52148e-15 0.574662 -0.964109)
(2.42745e-17 5.67614 9.80469)
(-2.26794e-15 17.1489 29.7993)
(-1.68241e-15 19.2434 32.1842)
(-1.79136e-15 17.5607 28.6578)
(-2.04439e-15 15.6375 24.8079)
(-2.97804e-15 14.2501 21.9623)
(-3.43867e-15 13.1583 19.7953)
(-3.43492e-15 12.3873 18.2776)
(-3.60042e-15 11.7265 16.936)
(-3.96986e-15 11.0574 15.6599)
(-4.47789e-15 10.3708 14.4078)
(-5.0276e-15 9.66511 13.1757)
(-5.50699e-15 8.93418 11.9631)
(-5.9726e-15 8.17634 10.764)
(-6.48794e-15 7.39337 9.58746)
(-7.19155e-15 6.64087 8.51444)
(-8.35456e-15 6.0129 7.75028)
(-9.90448e-15 5.62797 7.5083)
(-1.08978e-14 5.2488 7.48538)
(-1.4073e-14 3.44174 5.34465)
(-4.16856e-18 4.17485 6.08172)
(-1.19542e-15 16.0662 27.7262)
(-8.2472e-16 18.2314 31.3134)
(-9.95126e-16 16.2817 27.7655)
(-1.1678e-15 14.2439 24.1529)
(-1.82634e-15 12.9543 21.6709)
(-1.85848e-15 12.0917 19.9848)
(-1.67126e-15 11.3901 18.496)
(-1.91551e-15 10.6961 17.0802)
(-2.34136e-15 10.0045 15.6873)
(-2.69854e-15 9.303 14.3256)
(-3.30472e-15 8.59908 13.0026)
(-3.81873e-15 7.89108 11.7268)
(-4.44337e-15 7.18691 10.4893)
(-5.10867e-15 6.45858 9.28046)
(-5.75991e-15 5.72721 8.05428)
(-6.76364e-15 4.89648 6.82508)
(-7.86575e-15 4.05477 5.48119)
(-8.76356e-15 2.70437 3.90133)
(-1.46378e-14 0.664731 0.158674)
(2.30586e-17 5.90956 9.38661)
(-1.68275e-16 17.3205 28.6936)
(-1.08799e-16 19.6571 32.7526)
(-1.67885e-16 17.8732 29.4115)
(-1.55715e-16 15.8259 25.8076)
(-4.39384e-16 14.5531 23.2875)
(-3.77097e-16 13.6454 21.4843)
(-3.92753e-16 12.8852 19.8973)
(-4.73718e-16 12.1175 18.3347)
(-5.50853e-16 11.3054 16.7362)
(-6.00091e-16 10.4438 15.1084)
(-6.95757e-16 9.54122 13.4742)
(-8.68042e-16 8.60273 11.8582)
(-1.13455e-15 7.6416 10.2701)
(-1.38519e-15 6.63794 8.7185)
(-1.65172e-15 5.61027 7.16163)
(-2.12937e-15 4.45217 5.57173)
(-3.05328e-15 3.24838 3.77627)
(-4.22876e-15 1.465 1.62593)
(-6.12102e-15 0.00588815 -1.51608)
(-1.13652e-17 9.26498 15.0735)
(7.023e-17 19.4262 31.1234)
(7.25846e-17 20.2454 32.8311)
(7.1853e-17 18.3135 29.3308)
(9.76678e-17 16.5075 26.3372)
(5.33255e-17 15.5176 24.2433)
(-9.22197e-17 14.7259 22.6156)
(-1.3421e-16 13.9889 20.9829)
(-2.13103e-16 13.1455 19.2514)
(-2.78003e-16 12.2015 17.3993)
(-3.87852e-16 11.1648 15.4704)
(-5.14283e-16 10.0597 13.5006)
(-6.83008e-16 8.89329 11.5189)
(-8.6918e-16 7.67584 9.53213)
(-1.07931e-15 6.38382 7.54902)
(-1.37695e-15 5.03251 5.52466)
(-1.89905e-15 3.50229 3.45157)
(-3.24045e-15 1.90512 1.02526)
(-5.90046e-15 -0.551037 -1.6998)
(-1.07301e-14 -1.63976 -5.09926)
(3.42613e-18 14.0321 24.0256)
(-2.14288e-17 21.5531 34.6092)
(-2.74281e-17 19.5637 32.3815)
(-2.50178e-17 17.8849 29.1022)
(-4.17731e-17 16.6439 27.341)
(5.01131e-17 16.0976 25.8908)
(1.10892e-16 15.3513 24.4843)
(1.36841e-16 14.5434 22.7242)
(1.61444e-16 13.4606 20.7085)
(1.89348e-16 12.2538 18.4917)
(2.17976e-16 10.9263 16.1934)
(2.53584e-16 9.52728 13.8334)
(3.00985e-16 8.03443 11.4246)
(3.66916e-16 6.45006 8.96072)
(4.55063e-16 4.7536 6.44546)
(6.27452e-16 2.97501 3.87291)
(9.4303e-16 1.06003 1.34797)
(7.68942e-16 -0.705343 -1.73602)
(-8.53011e-16 -3.19818 -4.27309)
(-1.27651e-14 -3.34865 -8.37865)
(-8.45812e-19 16.778 29.9195)
(6.53022e-18 20.3154 33.8665)
(8.63631e-18 16.8602 30.0298)
(7.33754e-18 16.131 28.1712)
(1.33285e-17 15.1353 27.371)
(-2.15692e-17 14.6029 26.2211)
(-3.90588e-17 13.5058 24.8176)
(-4.7619e-17 12.2694 22.7224)
(-5.45705e-17 10.6346 20.2889)
(-6.05471e-17 8.98651 17.6776)
(-6.60623e-17 7.24944 15.0472)
(-8.14612e-17 5.48262 12.3099)
(-1.25244e-16 3.61076 9.45404)
(-2.08929e-16 1.67875 6.46944)
(-2.03699e-16 -0.280244 3.36642)
(2.8706e-16 -2.02871 0.606396)
(1.09539e-15 -3.04207 -1.12327)
(3.42021e-17 -4.08211 -3.20614)
(-5.00791e-15 -5.46547 -5.91558)
(-9.07034e-15 -3.15855 -4.88684)
(1.63364e-19 15.9182 28.8597)
(-2.19922e-18 17.4975 30.4912)
(-2.64249e-18 15.0351 27.7107)
(-2.96268e-18 14.2067 26.0985)
(-2.65777e-18 13.0421 25.1409)
(8.50351e-18 12.1422 23.9319)
(1.42285e-17 10.7506 22.4002)
(1.71517e-17 9.15984 20.2164)
(2.00618e-17 7.30203 17.7493)
(2.43387e-17 5.47247 15.1926)
(2.85783e-17 3.61159 12.6345)
(2.61564e-17 1.75759 10.0239)
(3.25497e-18 -0.062762 7.43518)
(-3.51475e-17 -1.67615 5.04984)
(-2.2352e-17 -2.87343 3.10279)
(1.08854e-16 -3.48895 1.69862)
(1.88756e-16 -3.2105 1.24579)
(-2.23176e-16 -1.30636 2.803)
(-1.06761e-15 2.12288 6.50644)
(-8.54115e-16 3.67012 8.2968)
(1.28237e-20 13.8353 24.7998)
(7.02602e-19 16.8638 29.4935)
(8.22524e-19 14.4463 26.0692)
(9.3793e-19 13.1064 23.4026)
(8.54955e-20 11.7529 22.0104)
(-3.306e-18 10.7871 20.481)
(-4.78355e-18 9.42226 18.921)
(-5.15524e-18 8.03706 16.9005)
(-5.27015e-18 6.45539 14.6716)
(-5.86952e-18 4.92691 12.2906)
(-8.90925e-18 3.42356 9.89847)
(-1.6801e-17 2.08227 7.62085)
(-2.49294e-17 1.0555 5.76168)
(-1.50057e-17 0.596673 4.72489)
(3.01004e-17 1.00337 5.02445)
(9.31942e-17 2.53953 7.09743)
(1.25452e-16 5.08458 10.7018)
(1.15825e-16 7.84872 14.5007)
(1.40457e-16 9.57843 16.2564)
(1.87171e-16 6.95687 12.9412)
(-9.83629e-21 13.1641 23.2471)
(-1.91484e-19 17.6913 30.0208)
(-2.10923e-19 15.1644 26.5323)
(-2.40402e-19 13.8872 23.0839)
(-4.59513e-20 12.4487 21.3493)
(8.39101e-19 11.7571 19.474)
(1.20562e-18 10.6905 17.956)
(1.26501e-18 9.90255 16.3055)
(1.34101e-18 9.02566 14.758)
(1.39848e-18 8.28441 13.1956)
(1.14542e-18 7.59446 11.6841)
(2.79732e-19 7.01266 10.2251)
(-1.48e-18 6.55733 8.89818)
(-4.63675e-18 6.29459 7.87338)
(-9.60484e-18 6.33092 7.41578)
(-1.72051e-17 6.70824 7.83322)
(-2.92968e-17 7.37622 9.04338)
(-4.39372e-17 7.79194 10.5498)
(-5.23291e-17 7.51386 11.0117)
(-4.22465e-17 5.2046 8.62952)
(2.66711e-21 13.4918 23.8554)
(4.66594e-20 18.6046 31.0428)
(5.05085e-20 15.8656 27.6956)
(5.49547e-20 14.7365 24.2212)
(1.02416e-20 13.3387 22.5345)
(-1.81738e-19 12.7665 20.7247)
(-2.70406e-19 11.8662 19.229)
(-2.74005e-19 11.1777 17.6575)
(-2.83175e-19 10.4661 16.2063)
(-3.00983e-19 9.82451 14.8179)
(-2.14106e-19 9.22039 13.4859)
(1.18353e-19 8.63709 12.1911)
(6.74559e-19 8.063 10.9113)
(1.12566e-18 7.47988 9.64786)
(9.19783e-19 6.89167 8.44703)
(-3.08266e-20 6.32416 7.4266)
(-2.33478e-19 5.77505 6.73369)
(3.32138e-18 5.23703 6.28725)
(1.22117e-17 4.18352 5.60726)
(2.16417e-17 2.18968 2.54822)
(-4.81837e-22 14.3196 25.4495)
(-1.001e-20 19.3557 31.7317)
(-1.0986e-20 16.0897 28.2497)
(-1.12712e-20 15.3445 24.9537)
(-1.77917e-21 13.8541 23.4671)
(3.66484e-20 13.3865 21.6191)
(5.59784e-20 12.4213 20.1642)
(5.48266e-20 11.7393 18.5582)
(5.20717e-20 10.9658 17.0666)
(4.8474e-20 10.246 15.5787)
(1.7788e-20 9.52184 14.123)
(-6.33616e-20 8.78935 12.6822)
(-1.54972e-19 8.03259 11.2524)
(-1.24005e-19 7.24812 9.8284)
(1.83347e-19 6.40909 8.40956)
(7.7934e-19 5.52675 6.96007)
(1.43547e-18 4.48876 5.47744)
(1.7435e-18 3.38435 3.80783)
(8.68917e-19 1.5834 1.8181)
(1.53353e-18 0.0347102 -1.75154)
(6.79213e-23 15.5959 28.2178)
(1.93264e-21 19.845 31.9629)
(2.15999e-21 16.0835 28.7703)
(2.07581e-21 16.0322 25.8131)
(9.82671e-23 14.3026 24.5817)
(-7.11226e-21 14.0534 22.6294)
(-1.08149e-20 12.9455 21.2596)
(-1.02972e-20 12.3822 19.6377)
(-8.92393e-21 11.5974 18.2141)
(-6.42493e-21 10.9253 16.7058)
(2.24796e-21 10.1675 15.1573)
(1.90717e-20 9.33729 13.4846)
(3.08816e-20 8.38708 11.6914)
(7.90042e-21 7.32806 9.7906)
(-7.66919e-20 6.14227 7.82867)
(-2.19289e-19 4.87682 5.79327)
(-3.83334e-19 3.39917 3.69204)
(-5.53913e-19 1.87902 1.27527)
(-5.24005e-19 -0.501911 -1.31835)
(-1.329e-18 -1.6051 -4.97572)
(-9.27901e-24 16.7207 31.0262)
(-3.41847e-22 19.7363 31.4271)
(-3.70252e-22 15.8781 29.2203)
(-3.26836e-22 16.5076 26.5813)
(5.42839e-24 14.4215 25.5791)
(1.09924e-21 14.4537 23.5597)
(1.50658e-21 13.1385 22.3766)
(1.22792e-21 12.7689 20.7943)
(7.27275e-22 11.9209 19.5278)
(-4.96864e-22 11.3175 18.0409)
(-3.41106e-21 10.4665 16.4357)
(-6.5528e-21 9.49566 14.5209)
(-3.53737e-21 8.30652 12.3593)
(1.26791e-20 6.96141 9.97458)
(4.00428e-20 5.42577 7.43701)
(6.65482e-20 3.80205 4.79228)
(7.99353e-20 1.93014 2.12669)
(1.86574e-20 0.184269 -0.901945)
(-4.08225e-19 -2.45678 -3.72745)
(-1.07608e-18 -2.96741 -7.39121)
(1.48537e-24 17.0594 32.4251)
(5.90636e-23 18.9977 30.2184)
(6.63289e-23 15.4482 29.2195)
(3.50897e-23 16.2924 26.6796)
(-1.24935e-22 13.9418 25.7932)
(-4.5446e-22 14.0525 23.7811)
(-5.62475e-22 12.5375 22.7485)
(-4.56025e-22 12.2166 21.2297)
(-6.03089e-22 11.1974 20.0941)
(-1.75016e-21 10.5291 18.5965)
(-3.78316e-21 9.43086 16.8994)
(-2.20887e-21 8.24112 14.7483)
(1.28037e-20 6.79274 12.31)
(4.23522e-20 5.16733 9.50209)
(6.48956e-20 3.2849 6.34253)
(6.73038e-20 1.32302 3.19634)
(6.51685e-20 -0.709887 0.458683)
(1.11711e-19 -1.07594 -1.77807)
(-3.36801e-19 -4.28087 -5.10722)
(-8.91921e-19 -3.90935 -8.31081)
(-3.73411e-25 16.5334 31.9255)
(-5.89859e-24 18.3688 29.1939)
(-2.46278e-24 14.9121 28.5383)
(-1.95491e-23 15.6481 25.9687)
(-7.8084e-23 13.316 25.0531)
(-1.37667e-22 13.2157 23.1007)
(-1.31049e-22 11.7416 21.9938)
(-8.12034e-23 11.1877 20.5285)
(-4.8045e-22 10.1375 19.3458)
(-2.34101e-21 9.29358 17.9073)
(-5.07936e-21 8.16363 16.2783)
(-1.3467e-21 6.96882 14.315)
(2.12665e-20 5.5897 12.0472)
(5.79098e-20 3.96639 9.24631)
(7.16178e-20 2.06951 5.94331)
(2.22161e-20 0.167558 2.71541)
(-1.39613e-19 -1.87738 -0.589878)
(-4.44688e-19 -3.85524 -3.94844)
(-7.74869e-19 -4.65434 -5.35486)
(-6.2507e-19 -2.14589 -2.70894)
(1.9605e-25 15.8344 31.1548)
(2.43278e-24 18.2616 28.4368)
(1.61059e-24 14.372 27.8199)
(-1.71463e-23 15.4026 25.0782)
(-6.38349e-23 12.9307 24.1894)
(-9.97951e-23 12.8652 22.1491)
(-4.77207e-23 11.385 20.9419)
(7.85831e-23 10.7602 19.3884)
(6.30425e-24 9.72791 18.1199)
(-9.21784e-22 8.90964 16.7552)
(-2.97978e-21 7.96627 15.3794)
(-3.29094e-21 7.02179 13.846)
(5.62975e-21 5.9536 12.0632)
(2.47126e-20 4.66038 9.76336)
(1.81702e-20 3.0141 6.70122)
(-9.73326e-20 1.18266 3.17683)
(-3.59519e-19 -0.105562 0.445175)
(-6.27372e-19 -0.363522 -0.428786)
(-6.81861e-19 1.40737 1.98916)
(-2.49854e-19 3.11463 6.10595)
(1.26944e-25 15.2756 30.9662)
(8.89293e-25 18.3499 27.8875)
(-1.15813e-24 14.0328 27.5367)
(-1.56408e-23 15.3453 24.7279)
(-3.9799e-23 12.9315 23.8324)
(-3.59832e-23 12.8728 21.8408)
(4.8036e-23 11.5749 20.562)
(2.13134e-22 10.9871 19.0031)
(3.78718e-22 10.1131 17.6695)
(3.95887e-22 9.4298 16.3139)
(-6.06215e-23 8.7013 15.0218)
(-1.6994e-21 7.99916 13.6826)
(-4.99457e-21 7.24103 12.2398)
(-7.60994e-21 6.41692 10.6129)
(-1.65517e-21 5.511 8.72851)
(1.90495e-20 4.45809 6.45334)
(6.46003e-20 3.34105 4.06398)
(3.55648e-20 2.24637 1.8439)
(-2.77128e-19 0.521237 -0.665826)
(-3.25603e-19 0.439736 -0.51877)
(1.26457e-25 14.251 30.8434)
(2.65902e-25 18.1992 27.5573)
(-2.74539e-24 13.4017 27.4772)
(-1.33399e-23 14.4681 25.0164)
(-2.08441e-23 12.3527 24.0635)
(1.22912e-23 11.9668 22.3996)
(1.26546e-22 10.8762 21.1458)
(3.13973e-22 10.1977 19.7726)
(4.91398e-22 9.43001 18.5111)
(5.08686e-22 8.77445 17.2492)
(1.91516e-22 8.12666 16.0065)
(-4.97434e-22 7.50172 14.7293)
(-1.11616e-21 6.85778 13.3716)
(-3.78738e-22 6.15006 11.837)
(3.79642e-21 5.2628 9.93013)
(1.28663e-20 3.98061 7.2782)
(2.39774e-20 1.86344 3.41785)
(7.75132e-20 -0.915425 -2.25959)
(-1.25322e-19 -2.15968 -3.99837)
(-2.103e-19 -1.77784 -4.47137)
(3.93422e-26 11.281 28.7303)
(-2.43621e-25 17.0801 25.087)
(-2.0289e-24 12.0508 25.4821)
(-5.32322e-24 12.7113 23.7684)
(-8.37023e-25 10.9776 23.0236)
(3.56993e-23 10.3202 21.9336)
(1.31931e-22 9.334 21.0139)
(2.92008e-22 8.56636 20.0563)
(4.72783e-22 7.80261 19.1331)
(5.70103e-22 7.119 18.211)
(4.34386e-22 6.4809 17.2946)
(-6.06273e-24 5.89236 16.3662)
(-4.58937e-22 5.33176 15.3942)
(1.02142e-22 4.76059 14.2945)
(3.59855e-21 4.0856 12.8765)
(1.173e-20 3.11826 10.7844)
(2.1358e-20 1.66447 7.53434)
(1.83196e-20 -0.237855 2.95809)
(-1.33965e-20 -2.03878 -1.70137)
(-5.2726e-20 -1.98333 -3.5653)
(-9.46318e-27 2.62642 17.1144)
(-1.82157e-25 8.04673 13.713)
(-4.74885e-25 5.16663 14.5728)
(-9.91526e-26 4.9702 14.1868)
(3.56113e-24 4.04319 14.1538)
(1.63071e-23 3.47258 13.9868)
(4.64842e-23 2.89112 13.8352)
(9.99749e-23 2.41364 13.6495)
(1.73084e-22 1.99828 13.4446)
(2.46512e-22 1.65792 13.2175)
(2.76468e-22 1.38922 12.9712)
(1.83401e-22 1.19477 12.7072)
(-1.40044e-22 1.07497 12.4292)
(-7.78218e-22 1.04142 12.1381)
(-1.7045e-21 1.11461 11.8297)
(-2.65555e-21 1.267 11.512)
(-3.00707e-21 1.53797 11.1009)
(-2.08007e-21 2.23493 10.2063)
(-3.37856e-22 2.52009 8.741)
(4.04285e-22 -0.170596 6.57244)
(1.2282e-26 -2.62647 17.1145)
(2.29351e-25 -8.04674 13.7132)
(5.92611e-25 -5.16664 14.573)
(9.97145e-26 -4.97017 14.1869)
(-4.59167e-24 -4.04313 14.154)
(-2.09308e-23 -3.47248 13.987)
(-5.95211e-23 -2.89099 13.8355)
(-1.27399e-22 -2.41346 13.6498)
(-2.19043e-22 -1.99806 13.4449)
(-3.10423e-22 -1.65765 13.2178)
(-3.51405e-22 -1.38889 12.9716)
(-2.54939e-22 -1.19436 12.7076)
(9.31254e-23 -1.07446 12.4296)
(7.74735e-22 -1.04085 12.1386)
(1.74029e-21 -1.11405 11.8304)
(2.68439e-21 -1.26662 11.5131)
(2.95139e-21 -1.53798 11.1022)
(1.89999e-21 -2.23552 10.2073)
(1.21138e-22 -2.52106 8.74178)
(-5.03131e-22 0.17034 6.57371)
(-4.70097e-26 -11.2813 28.7308)
(3.52648e-25 -17.0802 25.0875)
(2.66583e-24 -12.051 25.4826)
(6.62734e-24 -12.7115 23.769)
(-4.00981e-25 -10.9777 23.0243)
(-5.00224e-23 -10.3203 21.9343)
(-1.76293e-22 -9.33414 21.0147)
(-3.81312e-22 -8.56651 20.0571)
(-6.09712e-22 -7.80276 19.1339)
(-7.39664e-22 -7.11916 18.2119)
(-6.02933e-22 -6.48109 17.2956)
(-1.18743e-22 -5.89262 16.3673)
(3.96697e-22 -5.33208 15.3955)
(-1.47303e-22 -4.76082 14.2959)
(-3.70056e-21 -4.08508 12.8769)
(-1.17326e-20 -3.11563 10.7817)
(-2.03e-20 -1.65876 7.52661)
(-1.39929e-20 0.244941 2.9479)
(2.31339e-20 2.04248 -1.70556)
(6.54285e-20 1.98194 -3.56273)
(-1.5983e-25 -14.2513 30.8441)
(-3.20846e-25 -18.1998 27.5579)
(3.66679e-24 -13.4022 27.4779)
(1.68554e-23 -14.4688 25.017)
(2.38706e-23 -12.3534 24.0641)
(-2.48286e-23 -11.9677 22.4001)
(-1.7895e-22 -10.8773 21.1463)
(-4.22578e-22 -10.1989 19.773)
(-6.47786e-22 -9.43143 18.5114)
(-6.77512e-22 -8.77607 17.2495)
(-3.17716e-22 -8.12853 16.0067)
(4.72324e-22 -7.50399 14.7297)
(1.20862e-21 -6.86075 13.3728)
(4.9899e-22 -6.15399 11.8394)
(-3.81262e-21 -5.26734 9.93389)
(-1.29625e-20 -3.9847 7.28175)
(-2.33695e-20 -1.86512 3.41888)
(-8.09957e-20 0.919011 -2.26825)
(1.43077e-19 2.16421 -4.00168)
(2.44989e-19 1.78376 -4.48389)