/*--------------------------------*- C++ -*----------------------------------*\
| =========                 |                                                 |
| \\      /  F ield         | OpenFOAM: The Open Source CFD Toolbox           |
|  \\    /   O peration     | Version:  4.1                                   |
|   \\  /    A nd           | Web:      www.OpenFOAM.org                      |
|    \\/     M anipulation  |                                                 |
\*---------------------------------------------------------------------------*/
FoamFile
{
    version     2.0;
    format      ascii;
    class       surfaceScalarField;
    location    "9";
    object      phi;
}
// * * * * * * * * * * * * * * * * * * * * * * * * * * * * * * * * * * * * * //

dimensions      [0 3 -1 0 0 0 0];

internalField   nonuniform List<scalar> 
2360
(
15497.2
20184.4
-4687.19
20184.4
20184.4
26680.5
-6496.08
26680.5
26680.5
26680.5
35322.7
-8642.16
35322.7
35322.7
46651.5
-11328.8
46651.5
46651.5
62549.3
-15897.8
62549.3
62549.3
87812.3
-25263
87812.3
87812.3
97456.4
111801
126536
140501
153425
165301
154375
22176.4
164874
174746
184019
192728
200891
208540
215697
222390
228628
234405
239686
244135
247636
123386
124250
123386
123386
123386
14963.7
108422
14963.7
14963.7
14963.7
4807.17
10156.6
4807.16
4807.17
-6087.41
10894.6
-6087.38
-6087.41
-6087.37
-109405
103317
-109405
-109405
-109405
-242886
133481
-237185
-229991
-221825
-213058
-203852
-194400
-184884
-175439
-166106
-156833
-147549
-138215
-128832
-129538
10080.1
-120132
-110488
-100544
-90224
-79604.4
-70965.7
-70965.7
-70965.6
-51345.2
-19620.4
-51345.2
-51345.2
-38459.3
-12885.9
-38459.3
-38459.3
-27583
-10876.3
-27583
-27583
-19200.7
-8382.3
-19200.7
-19200.7
-19200.7
-12344
-6856.67
-12344
-12344
-7263.61
-5080.38
-52462.9
14219.8
-49493.7
51061
-47079.3
62237.5
-44137.9
65796.6
-39228.7
53059.8
-29519.8
-1458.84
-23140.1
-52192.6
-22057.1
-69161.9
-21335.5
-76249.7
-14555.1
-69090
478.486
-2694.5
6100.26
69706.2
8977.79
92886.5
9815.23
80721.1
8094.54
53292.3
6999.08
38688.9
7520.25
35127
7630.14
50279.7
24086.7
-48214.7
14190.8
-48491.5
51337.8
-47431.6
61177.6
-44685.9
63050.8
-37961.2
46335.1
-28965.7
-10454.4
-28450.1
-52708.2
-32166.2
-65445.8
-34250.4
-74165.5
-27832.6
-75507.8
-6294.11
-24233
4554.89
58857.2
6883.87
90557.5
8497.54
79107.4
7600.45
54189.4
6891.88
39397.5
7728.5
34290.4
7976.99
50031.2
25207
-44892.6
14151.7
-46579.7
53024.9
-47425.8
62023.7
-45495.8
61120.8
-39437.3
40276.6
-33984
-15907.7
-36205.2
-50487
-40668.7
-60982.3
-43713.6
-71120.6
-39897.9
-79323.5
-17258.1
-46872.7
134.203
41464.8
3571.18
87120.5
5863.6
76815
6382.38
53670.6
6619.14
39160.7
8168.13
32741.4
8385.71
49813.6
25210.5
-44929
11625.8
-44938.4
53034.3
-47128.5
64213.8
-46854.1
60846.4
-42983
36405.5
-40729.5
-18161.2
-43888.4
-47328.1
-48801.6
-56069.1
-53495.6
-66426.7
-53738.3
-79080.8
-34991
-65620
-9533.85
16007.7
-710.595
78297.3
1799.03
74305.4
3951.09
51518.5
5514.76
37597.1
7848.92
30407.2
8617.43
49045.1
22951.6
-50053.8
6148.85
-45942.7
48923.2
-47320.5
65591.6
-48366.8
61892.7
-47047.7
35086.4
-48031.1
-17177.8
-52968.8
-42390.4
-58973.7
-50064.1
-64534.9
-60865.5
-67954
-75661.7
-58129.8
-75444.2
-27752.2
-14369.9
-7849.65
58394.7
-2801.67
69257.4
531.61
48185.3
4457.47
33671.2
8529.66
26335
9023.13
48551.7
19088.9
-60858.5
-1503.3
-51673
39737.7
-49790.1
63708.6
-50735
62837.6
-52327.7
36679.1
-58336.6
-11168.8
-67140.3
-33586.8
-74983.8
-42220.6
-79628.2
-56221.1
-81468
-73821.9
-78497
-78415.2
-54248.1
-38618.8
-26053.5
30200
-13210.8
56414.7
-6455.96
41430.4
2034.02
25181.2
7764.08
20605
11179.2
45136.5
10647.7
-76489.6
-8868.29
-63591.4
26839.6
-56719.6
56836.8
-55555.4
61673.4
-60288.5
41412.2
-73923.1
2465.79
-88512.9
-18996.9
-98154.7
-32578.7
-102009
-52366.8
-101884
-73946.5
-99991.4
-80308.3
-83528.7
-55081.5
-55655.9
2327.17
-36109.9
36868.8
-24222.3
29542.8
-10763.1
11722.1
1324.19
8517.64
28659.2
17801.5
49387.1
-94742.3
-12926.4
-81764.9
13862.1
-70071.5
45143.5
-65485.3
57087.2
-72447.9
48374.9
-91969
21986.8
-108922
-2043.61
-116680
-24821.2
-119615
-49431.5
-121589
-71972.4
-120502
-81395
-109915
-65668.9
-88600.9
-18987
-69798.3
18066.1
-62251.6
21996.1
-62178.4
11648.9
-66343
12682.2
-85159.1
36617.7
97709.3
-113066
-11180.1
-105773
6568.72
-93537.2
32907.7
-85660.5
49210.4
-88490.5
51204.9
-101120
34616.4
-109525
6360.8
-109983
-24363
-110535
-48879.4
-116615
-65892.5
-125496
-72513.7
-129347
-61818.2
-121625
-26708.5
-111552
7993.18
-110087
20530.3
-116080
17642.1
-122892
19494.8
-124080
37805.4
76946.6
-127080
-3682.14
-129345
8833.62
-123550
27112.3
-116015
41675.5
-110582
45771.9
-105024
29058.5
-93227.7
-5435.43
-82689.5
-34901.1
-83922
-47646.8
-97413.7
-52400.8
-116831
-53096.5
-133486
-45163
-139074
-21120.9
-136071
4990.79
-132580
17039.4
-129119
14180.9
-117849
8224.81
-85720
5676.04
2121.17
-132534
6977.71
-142147
18446.5
-143998
28963.2
-136594
34271.5
-116114
25292.3
-83901.5
-3154.18
-54711.9
-34625
-43373.7
-46239.4
-50531.7
-40488.8
-71407.6
-31524.9
-97930.9
-26573.3
-121870
-21224.1
-136194
-6797.06
-139525
8321.8
-137026
14540.8
-131608
8763.21
-117973
-5410.1
-84492.5
-27804.8
-72214.8
-130526
18467.9
-141530
29450.4
-140859
28292.5
-121228
14640.1
-83682.3
-12252.9
-48296.5
-38540
-30653.2
-52268.2
-26951.5
-49941.1
-33633.9
-33806.3
-52405.2
-12753.6
-76770.5
-2207.96
-98795
800.327
-115025
9433.32
-124493
17789.6
-128183
18231.2
-130207
10787.1
-131787
-3829.99
-129642
-29950.2
-93434.5
-122310
28451.2
-127227
34367.1
-113723
14788.7
-83575.5
-15507.5
-53840.8
-41987.5
-37663.1
-54717.8
-31108.9
-58822.4
-28436
-52614.1
-29515.4
-32726.9
-38831.5
-3437.43
-54155.9
13116.4
-69196.7
15841.1
-79577.3
19813.9
-83186.5
21398.7
-79614.6
14659.4
-70650.8
1823.24
-66388.7
-8092.07
-82309.4
-14029.5
-51493.9
-109143
35253.4
-104890
30113.6
-83548.8
-6552.1
-59836.6
-39219.7
-44709.7
-57114.4
-36636.6
-62790.9
-31770
-63689
-28300.6
-56083.5
-25506.6
-35521
-26743.7
-2200.34
-33580.8
19953.5
-42518.8
24779.1
-48555.1
25850.3
-46400.2
19243.7
-35006.6
3265.75
-16411.4
-16771.9
-287.235
-24216.3
21280.6
-35597.3
-8036.83
-93310.7
38688
-82426
19228.9
-62534
-26444.2
-48485
-53268.6
-40646.8
-64952.7
-35318.1
-68119.6
-31077.6
-67929.5
-27374.9
-59786.2
-22762.3
-40133.6
-19188.3
-5774.28
-21212.1
21977.4
-25131.2
28698.1
-26354.8
27073.9
-20967.8
13856.7
-11174.3
-6527.76
-793.529
-27152.7
5479.1
-30488.9
14262.2
-44380.5
-19037.6
-77435.6
40065.2
-65037.7
6831.1
-50466.4
-41015.5
-43258
-60477
-39097.8
-69112.9
-34914.4
-72302.9
-30670.6
-72173.3
-26747
-63709.7
-21507.9
-45372.7
-13826.9
-13455.3
-12003.7
20154.1
-13418.5
30112.9
-11975.2
25630.6
-6638.2
8519.7
-677.121
-12488.8
4318.67
-32148.5
7181.81
-33352
9991.44
-47190.1
-24944
-63409.3
40428.8
-52981.9
-3596.3
-44582.4
-49414.9
-41696
-63363.4
-38975.7
-71833.2
-34831.8
-76446.7
-30384.7
-76620.4
-26428.8
-67665.6
-21728.4
-50073.1
-11650.6
-23533.2
-3276.84
11780.4
-1985.35
28821.4
-1276.28
24921.5
1639.52
5603.91
3910.94
-14760.3
5382.98
-33620.5
6640.04
-34609.1
7415.04
-47965.1
-28857.8
-52446.7
40788.4
-46066.1
-9976.84
-42965.7
-52515.4
-41917.1
-64411.9
-39116.3
-74634.1
-34832.3
-80730.7
-30422
-81030.8
-26443.4
-71644.2
-22380.8
-54135.8
-14140.7
-31773.3
-924.155
-1436.08
5989.52
21907.8
7750.51
23160.6
7449.07
5905.35
5305.84
-12617
4603.18
-32917.9
6286.7
-36292.6
7158.28
-48836.7
-30341.6
-44341.1
40908.4
-42789.8
-11528.2
-43614.2
-51690.9
-42334.2
-65692
-39132
-77836.3
-34984.5
-84878.1
-30752.9
-85262.4
-26780.7
-75616.3
-22983.9
-57932.5
-17321
-37436.2
-4892.8
-13864.3
5900.58
11114.4
10568.8
18492.4
8859.77
7614.33
4226.11
-7983.37
4011.34
-32703.1
6192.58
-38473.8
6986.39
-49630.5
-29851.3
-48123.9
-45044
-44654.7
-42357.7
-39111.3
-35186.7
-31095.2
-27210.1
-23623.9
-19700.3
-12559.9
-2102.14
5346.56
4814.75
2606.99
4276.02
6312
7047.32
1713.53
-11357.7
3754.4
-16385.8
5384.74
-16364.5
6685.82
-15266.3
7676.24
-13914.5
8436.33
-12636.6
8833.17
-11647.1
9147.82
-10813.9
9341.31
-10065.7
9400.45
-9331.29
9337.15
-8645.94
9146.47
-7972.68
8840.64
-7343.46
8406.66
-6722.53
7841.79
-6128.31
7110.97
-5507.43
6182.29
-4847.79
4924.04
-4023.07
2893.68
-2418.25
-607.779
1305.61
-12663.3
1468.9
-16549.2
1204.47
-16100.1
923.836
-14985.7
685.087
-13675.8
553.874
-12505.4
586.572
-11679.9
660.44
-10887.8
749.79
-10155.1
832.835
-9414.38
913.659
-8726.8
986.764
-8045.83
1055.15
-7411.88
1108.36
-6775.78
1136.44
-6156.41
1112.88
-5483.91
1000.14
-4735.07
642.941
-3665.9
-32.2127
-1743.16
-639.993
631.369
-13294.7
615.847
-16533.7
541.283
-16025.6
540.916
-14985.3
593.78
-13728.7
686.069
-12597.7
763.153
-11757
833.663
-10958.4
891.79
-10213.2
950.605
-9473.24
1007.62
-8783.84
1070.8
-8109.06
1129.49
-7470.61
1183.41
-6829.74
1210.02
-6183.06
1195.38
-5469.29
1075.95
-4615.65
695.817
-3285.8
119.467
-1166.88
-520.527
145.85
-13440.6
161.379
-16549.2
175.246
-16039.5
198.182
-15008.3
228.027
-13758.5
259.883
-12629.6
274.769
-11771.9
294.018
-10977.7
311.81
-10231
335.756
-9497.21
353.773
-8801.88
367.41
-8122.72
359.619
-7462.84
327.126
-6797.27
252.299
-6108.26
130.463
-5347.48
-56.885
-4428.33
-253.735
-3088.98
-194.448
-1226.23
-714.977
-111.358
-13329.2
187.098
-16847.7
393.004
-16245.4
512.758
-15128.1
621.839
-13867.6
724.789
-12732.6
802.801
-11850
870.283
-11045.2
921.667
-10282.5
956.679
-9532.27
961.162
-8806.4
931.005
-8092.61
854.114
-7385.98
728.801
-6671.99
553.464
-5932.95
338.776
-5132.82
118.125
-4207.71
69.7396
-3040.64
342.534
-1499.1
-372.444
78.5267
-13407.8
692.26
-17461.4
1084.12
-16637.3
1319.82
-15363.8
1557.22
-14105.1
1805.72
-12981.1
2043.54
-12087.8
2254.15
-11255.8
2428.83
-10457.2
2553.19
-9656.64
2609.03
-8862.26
2584.78
-8068.36
2473.24
-7274.46
2274.82
-6473.58
1998.02
-5656.18
1657.2
-4792.02
1289.43
-3839.95
957.992
-2709.22
681.543
-1222.71
309.098
832.256
-14240
1665.49
-18294.7
2198.03
-17169.8
2587.79
-15753.6
3048.59
-14565.9
3570.61
-13503.1
4125.43
-12642.6
4652.48
-11782.9
5117.5
-10922.2
5474.66
-10013.8
5690.6
-9078.21
5743.58
-8121.36
5624.98
-7155.87
5332.76
-6181.38
4871.29
-5194.73
4242.36
-4163.1
3460.01
-3057.62
2500.4
-1749.64
1382.7
-105.058
1691.8
1819.17
-16059.2
2532.55
-19008.1
3025.27
-17662.5
3535.85
-16264.1
4253.26
-15283.3
5115.06
-14364.9
6095.51
-13623.1
7069.28
-12756.6
7950.43
-11803.4
8638.03
-10701.4
9091.37
-9531.55
9286.34
-8316.33
9214.63
-7084.17
8859.66
-5826.42
8202.76
-4537.84
7216.14
-3176.49
5884.96
-1726.46
4092.47
42.815
2213.09
1774.28
3904.89
1869.9
-17929.1
1802.4
-18940.6
1866.62
-17726.8
2153.24
-16550.8
2745.56
-15875.6
3543.85
-15163.3
4510.8
-14590.1
5461.02
-13706.9
6248.18
-12590.6
6742.68
-11195.9
6942.67
-9731.57
6848.36
-8222.04
6456.46
-6692.3
5732.9
-5102.88
4652.99
-3457.97
3290.72
-1814.28
1907.42
-343.228
727.343
1222.81
-240.048
2741.6
3664.84
116.132
-18045.3
-955.605
-17868.8
-1776.79
-16905.6
-2431.68
-15895.9
-2922.75
-15384.6
-3303.96
-14782
-3616.1
-14277.9
-3973.05
-13349.9
-4477.2
-12086.4
-5162
-10511.1
-5989.71
-8903.87
-6926.71
-7285.03
-7951.09
-5667.92
-9017.66
-4036.31
-10012.8
-2462.89
-10693.6
-1133.42
-10619.3
-417.586
-9005.08
-391.392
-5351.31
-912.187
-1686.47
-1369.3
-16676
-2496.26
-16741.9
-3759.11
-15642.8
-5149.56
-14505.4
-6592.75
-13941.4
-8189.49
-13185.3
-9875.74
-12591.7
-11615.8
-11609.9
-13335.5
-10366.7
-15006.1
-8840.53
-16628.5
-7281.5
-18179.9
-5733.57
-19545.8
-4302.01
-20431.9
-3150.27
-20336.3
-2558.46
-18725.3
-2744.42
-15383.4
-3759.53
-10384.2
-5390.59
-4460.21
-6836.14
-6146.67
-941.952
-15734
-1288.41
-16395.4
-1896.47
-15034.7
-2796.55
-13605.3
-3779.67
-12958.2
-5053.12
-11911.8
-6444.38
-11200.3
-7836.79
-10217.4
-8951.93
-9251.51
-9679.05
-8113.35
-9979.36
-6981.15
-9854.21
-5858.67
-9287.16
-4869.02
-8248.32
-4189.06
-6715.54
-4091.19
-4706.45
-4753.46
-2481.71
-5984.24
-623.023
-7249.24
165.14
-7624.26
-5981.53
208.905
-15942.9
605.667
-16792.1
950.026
-15379
1154.43
-13809.7
1352.78
-13156.5
1442.21
-12001.2
1473.53
-11231.6
1523.51
-10267.4
1743.92
-9471.89
2274.28
-8643.67
3172.69
-7879.53
4452.96
-7138.91
6028.64
-6444.66
7660.54
-5820.93
8897.59
-5328.22
9197.67
-5053.51
8210.44
-4997
5977.54
-5016.32
3015.35
-4662.04
-2966.18
701.874
-16644.7
994.615
-17084.8
1440.52
-15824.8
1907.2
-14276.3
2422.1
-13671.4
2959.27
-12538.3
3527.48
-11799.8
4126.55
-10866.4
4732.35
-10077.6
5357.11
-9268.38
5990.97
-8513.34
6630.8
-7778.69
7249.72
-7063.55
7777.39
-6348.56
8076.99
-5627.8
7912.16
-4888.65
7056.22
-4141.04
5334.58
-3294.66
2873.54
-2200.95
-92.6435
943.19
-17587.8
946.228
-17087.8
1345.68
-16224.3
1774.68
-14705.2
2275.98
-14172.6
2761.64
-13023.9
3297.85
-12336
3847.89
-11416.4
4431.6
-10661.3
5018.27
-9855
5600.22
-9095.26
6144.08
-8322.51
6610.39
-7529.84
6928.87
-6667
7002.74
-5701.64
6684.8
-4570.69
5874.23
-3330.44
4459.15
-1879.57
2405.47
-147.244
2312.83
691.912
-18279.7
516.99
-16912.8
794.513
-16501.8
1122.95
-15033.6
1512.34
-14562
1949.57
-13461.1
2438.74
-12825.1
2986.2
-11963.8
3603.95
-11279
4298.16
-10549.2
5071.58
-9868.67
5885.35
-9136.24
6655.25
-8299.73
7224.02
-7235.74
7346.27
-5823.88
6757.01
-3981.41
5488.09
-2061.52
3122.43
486.09
1495.51
1479.69
3808.34
-164.157
-18115.5
-608.059
-16468.9
-808.367
-16301.4
-889.16
-14952.8
-945.506
-14505.6
-855.624
-13550.9
-727.721
-12953
-480.985
-12210.5
-159.331
-11600.7
266.128
-10974.6
772.237
-10374.8
1328.49
-9692.46
1845.91
-8817.12
2152.6
-7542.42
1946.92
-5618.18
994.687
-3029.15
-361.108
-705.589
210.652
-85.5289
-449.21
2139.58
3359.13
-1508.09
-16607.4
-3075.87
-14901.1
-4350.3
-15027
-5349.01
-13954.1
-6264.51
-13590.1
-6930.26
-12885.2
-7505.37
-12377.9
-7911.02
-11804.8
-8216.63
-11295
-8402.32
-10788.9
-8487.93
-10289.1
-8458.1
-9722.29
-8287.65
-8987.56
-7902.98
-7927.08
-7163.44
-6357.7
-5911.29
-4281.29
-4371.83
-2245.03
-3662.16
-795.175
-2054.25
531.702
1304.88
-2172.83
-14434.6
-4680.48
-12393.5
-7150.21
-12557.3
-9272.15
-11832.1
-11302.7
-11559.6
-13051.3
-11136.6
-14624.3
-10804.8
-15976.1
-10453.1
-17147.3
-10123.8
-18137.5
-9798.71
-18944.9
-9481.75
-19514
-9153.13
-19720.6
-8781.03
-19324.2
-8323.41
-17940.4
-7741.47
-15208.8
-7012.99
-11303.3
-6150.49
-7009.07
-5089.39
-2903.36
-3573.99
-1598.48
-5334.57
-8628.02
-12085.3
-14817.4
-17276.9
-19313.5
-21018.4
-22371.4
-23395.2
-24093.9
-24475.6
-24528.8
-24209.8
-23433.2
-22074.7
-19987.7
-17038.1
-13027.5
-7501.52
-5334.86
14434.9
-8628.6
12393.7
-12086.3
12557.7
-14819
11832.7
-17279.2
11560.2
-19316.6
11137.4
-21022.3
10805.7
-22376.3
10454
-23400.8
10124.5
-24099.9
9799.05
-24481.5
9481.62
-24534.2
9152.76
-24214.9
8780.67
-23437.7
8322.74
-22077.2
7739.58
-19986.4
7009.13
-17031.9
6145.54
-13019
5087.03
-7496.25
3577.29
1603.75
-2173.09
16607.9
-4680.89
14901.5
-7150.76
15027.5
-9272.51
13954.4
-11302.8
13590.5
-13050.7
12885.3
-14622.8
12377.8
-15973.1
11804.3
-17142.4
11293.8
-18130.3
10787
-18936.3
10287.6
-19506.3
9722.76
-19717
8991.36
-19327.7
7933.43
-17950.1
6361.93
-15216.2
4275.29
-11300.7
2230.05
-7003.22
789.507
-2900.22
-525.728
-1296.46
-1505.97
18113.9
-3072.4
16468
-4345.09
16300.2
-5341.99
14951.3
-6255.41
14503.9
-6918.83
13548.7
-7491.09
12950
-7893.53
12206.7
-8195.17
11595.5
-8376.42
10968.3
-8457.64
10368.8
-8424.66
9689.78
-8253.91
8820.61
-7873.31
7552.82
-7141.85
5630.46
-5897.58
3031.01
-4362.29
694.755
-3669
96.2057
-2051.65
-2143.09
-3348.11
-166.801
18280.7
-607.198
16908.4
-805.996
16499
-883.522
15028.9
-937.891
14558.2
-845.188
13456
-717.01
12821.9
-470.574
11960.3
-151.696
11276.6
270.078
10546.5
771.959
9866.9
1324.67
9137.06
1839.77
8305.5
2145.29
7247.3
1936.88
5838.87
974.923
3992.96
-395.747
2065.38
207.093
-506.682
-454.058
-1481.95
-3802.17
674.614
17606.1
504.336
17078.6
771.734
16231.6
1081.05
14719.5
1452.03
14187.3
1867.72
13040.3
2339.85
12349.7
2872.22
11427.9
3480.26
10668.5
4166.61
9860.13
4933.17
9100.33
5742.42
8327.8
6512.67
7535.24
7088.44
6671.52
7224.3
5703
6652.54
4564.71
5403.88
3314.04
3044.3
1852.88
1456.2
106.146
-2345.97
948.325
16657.8
939.902
17087.1
1355.26
15816.3
1828.58
14246.2
2360
13655.8
2883.04
12517.3
3430.5
11802.3
3977.55
10880.9
4524.31
10121.8
5061.4
9323.04
5591.56
8570.17
6086.39
7832.96
6509.66
7111.98
6793.35
6387.82
6839.64
5656.71
6505.18
4899.17
5699.97
4119.25
4325.52
3227.33
2341.92
2089.74
-4.04888
669.146
15988.6
1200.62
16555.6
1686.4
15330.5
1962.19
13970.4
2350.18
13267.8
2666.79
12200.7
3064.87
11404.2
3532.05
10413.7
4124.67
9529.15
4806.22
8641.48
5506.88
7869.51
6179.31
7160.53
6756.13
6535.15
7192
5951.95
7395.25
5453.47
7183.91
5110.51
6376.71
4926.45
4827.37
4776.67
2612.22
4304.89
2608.17
143.711
15844.9
633.37
16065.9
585.863
15378
20.8603
14535.4
-497.198
13785.9
-1164.76
12868.2
-1702.67
11942.1
-2086.88
10797.9
-2035.2
9477.47
-1357.1
7963.38
-69.2771
6581.69
1580.29
5510.97
3423.07
4692.37
5232.89
4142.14
6591.07
4095.28
7033.03
4668.55
6329.12
5630.37
4593.35
6512.44
2289.62
6608.62
4897.79
-582.025
16426.9
-1071.6
16555.5
-1918.74
16225.1
-3061
15677.7
-4293.03
15017.9
-5680.67
14255.9
-7129.44
13390.8
-8626.86
12295.3
-9881.92
10732.5
-10460.8
8542.29
-10323.8
6444.6
-9787.58
4974.78
-8900.81
3805.61
-7635.94
2877.26
-5968.83
2428.17
-3979.74
2679.45
-2012.03
3662.66
-558.086
5058.5
29.1238
6021.41
4926.91
-664.444
17091.4
-1298.68
17189.7
-1803.15
16729.6
-2261.25
16135.8
-2748.24
15504.9
-3360.06
14867.7
-4182.28
14213.1
-5349.06
13462.1
-6962.91
12346.4
-8938.8
10518.2
-11015.9
8521.68
-12993.3
6952.2
-14740.6
5552.91
-16005.1
4141.82
-16321
2744.01
-15172.1
1530.62
-12302
792.471
-8010.42
766.967
-3298.36
1309.36
1628.56
410.722
16680.6
629.718
16970.7
1156.24
16203.1
1816.06
15475.9
2491.71
14829.3
3109.4
14250
3589.69
13732.8
3822.53
13229.2
3540.22
12628.7
2389.01
11669.4
596.502
10314.2
-1333.36
8882.06
-3224.71
7444.26
-5061.89
5978.99
-6767.15
4449.28
-8077.26
2840.74
-8468.76
1183.98
-7352.32
-349.464
-4358.96
-1683.99
-2730.41
1395.26
15285.4
2423.33
15942.7
3513.42
15113
4590.42
14398.9
5633.02
13786.7
6644.36
13238.6
7651.6
12725.5
8676.51
12204.3
9550.26
11755
9932.25
11287.4
9725.91
10520.5
9089.79
9518.18
8155.16
8378.9
6975.17
7158.98
5545.89
5878.57
3877.13
4509.5
2035.51
3025.62
378.134
1307.93
-436.632
-869.199
-3167.04
1323.09
13962.3
2384.12
14881.6
3272.47
14224.6
4028.27
13643.2
4692.37
13122.6
5290.79
12640.2
5869.37
12147
6484.65
11589.1
7092.05
11147.5
7560.7
10818.7
7825.33
10255.9
7888.39
9455.13
7756.75
8510.54
7425.69
7490.04
6875.02
6429.24
6069.99
5314.54
4969.68
4125.93
3515.48
2762.14
1761.83
884.458
-1405.2
889.073
13073.2
1628.93
14141.8
2205.22
13648.3
2677.32
13171.1
3070.73
12729.2
3384.27
12326.7
3611.56
11919.7
3773.82
11426.8
3938.64
10982.7
4092.63
10664.8
4176.14
10172.4
4162.51
9468.77
4039.25
8633.81
3802.88
7726.42
3449.53
6782.6
2972.52
5791.55
2359.43
4739.03
1617.02
3504.56
819.303
1682.19
-585.902
661.102
12412.1
1162.63
13640.3
1616.7
13194.3
2048.4
12739.4
2443.67
12333.9
2778.03
11992.3
3027.21
11670.5
3177.28
11276.8
3285.8
10874.2
3388.07
10562.5
3397.16
10163.3
3266.9
9599.04
3002.6
8898.12
2634.57
8094.46
2197.25
7219.92
1722.69
6266.12
1223.85
5237.88
710.286
4018.12
190.254
2202.24
-395.648
689.364
11722.8
1153.08
13176.6
1643.06
12704.3
2159.22
12223.2
2669.95
11823.2
3151.06
11511.2
3577.48
11244.1
3914.25
10940
4185.69
10602.8
4434.46
10313.7
4577.51
10020.3
4533.7
9642.86
4283.92
9147.91
3858.39
8519.99
3310.73
7767.59
2699.27
6877.58
2065.45
5871.7
1421.73
4661.85
657.714
2966.26
262.067
733.004
10989.8
1225.81
12683.8
1724.42
12205.7
2245.57
11702.1
2771.64
11297.1
3291.09
10991.8
3789.77
10745.4
4226.18
10503.6
4592.97
10236
4917.32
9989.41
5154.89
9782.73
5226.29
9571.48
5080.71
9293.49
4715.91
8884.81
4168.32
8315.18
3489.88
7556.03
2732.67
6628.92
1919.72
5474.8
994.089
3891.91
1256.16
694.585
10295.2
1209.69
12168.7
1712.49
11702.9
2215.97
11198.6
2708.31
10804.8
3186.21
10513.9
3636.5
10295.1
4053.89
10086.2
4418.9
9871.01
4736.06
9672.26
4987.24
9531.55
5118.73
9440
5076.15
9336.07
4835.04
9125.92
4406.28
8743.95
3816.09
8146.23
3098.36
7346.65
2264.93
6308.23
1304.74
4852.1
2560.9
745.342
9549.88
1135.81
11778.2
1515.52
11323.2
1908.37
10805.8
2314.25
10398.9
2730.13
10098.1
3201.44
9823.85
3618.76
9668.92
3960.6
9529.18
4235.77
9397.1
4447.42
9319.9
4567.33
9320.1
4549.96
9353.45
4362.2
9313.68
4002.87
9103.29
3479.19
8669.9
2814.18
8011.65
1995.83
7126.57
1073.5
5774.4
3634.39
911.08
2069.7
3072.96
3934.52
4689.23
5381.22
5830.74
6117.56
6312.12
6425.23
6472.91
6459.24
6368.05
6165.36
5816.64
5281.35
4525.86
3486.24
2066.3
)
;

boundaryField
{
    outletWall
    {
        type            calculated;
        value           nonuniform List<scalar> 
60
(
-7263.61
-21536.9
-50389.6
-35648.2
-37593.5
-51571.6
-81558.5
-95764
-75327.9
-12339.1
62309.6
75528.1
68078.9
45812.9
-8250.07
-57968.9
-68738
-64651.8
-54030.3
-16505.3
50894.7
44221.1
52087
63045.7
76058.4
89876.1
102341
112327
119036
121874
119582
111320
98800.4
83854.6
68510.6
55530.8
47454.9
44931.7
48243.8
54748.4
-15497.2
-27491.2
-50365.8
-40509.8
-34372.1
-5775.61
8146.15
11043.7
656.585
-21004.6
-41359.8
-61518.7
-79501.5
-89353.9
-88802.7
-81082.8
-67989
-52080.3
-14608.1
38137.7
)
;
    }
    fineWalls
    {
        type            calculated;
        value           uniform 0;
    }
    fineFrontAndBack
    {
        type            calculated;
        value           nonuniform List<scalar> 
960
(
7.06331e-15
-7.32837e-14
-1.31349e-14
3.74469e-16
3.70995e-14
-2.56431e-14
8.96725e-14
-5.76543e-13
4.95521e-12
1.36611e-12
2.67901e-12
-4.56753e-12
-3.97816e-12
-5.073e-12
-5.49004e-11
-1.14428e-11
-9.83754e-12
-3.835e-11
-6.10464e-12
-5.13202e-12
-2.35541e-12
-3.80529e-12
-4.82161e-12
-5.66053e-12
-6.37359e-12
-6.93353e-12
-1.22539e-10
-8.08811e-12
-8.66593e-12
-9.2413e-12
-9.72246e-12
-1.02145e-11
-1.08365e-11
-1.14728e-11
-1.20789e-11
-1.27085e-11
-1.32594e-11
-1.40811e-11
-1.48502e-11
-1.79606e-11
-3.63786e-10
-4.51865e-11
-4.35486e-11
-4.21202e-11
-1.67457e-10
-1.62157e-11
-9.30581e-12
9.13003e-14
1.0002e-10
1.33954e-11
-5.58706e-13
-1.18543e-10
-1.017e-11
-2.55255e-12
5.14668e-12
9.19644e-11
2.00944e-11
1.94616e-11
1.93802e-11
2.26725e-10
1.44288e-11
1.13861e-11
1.05133e-11
9.61801e-12
9.29955e-12
8.84773e-12
8.65029e-12
8.36007e-12
8.30991e-12
8.18607e-12
7.92571e-12
7.72119e-12
7.59225e-12
6.22721e-11
6.72456e-12
6.08132e-12
5.59697e-12
5.11404e-12
4.32219e-12
2.26147e-12
-2.71527e-12
-4.78546e-12
-2.38292e-11
-4.787e-12
-4.11195e-12
-1.52121e-11
-1.46418e-12
-7.23008e-13
5.64262e-13
6.20373e-13
1.11416e-12
4.69222e-12
2.81022e-14
-4.77223e-15
-1.41702e-13
-1.86712e-12
-5.49734e-13
-6.79526e-13
-2.56945e-12
1.66181e-13
-5.71428e-11
-4.90448e-11
-4.3146e-11
-3.64024e-11
-3.00798e-11
-2.205e-11
-6.2161e-13
3.62498e-11
1.06009e-10
2.11664e-10
2.99332e-10
2.49788e-10
1.46119e-10
4.15622e-11
-2.42027e-12
-4.49152e-12
-7.6284e-13
-8.83409e-14
7.19026e-13
-5.06171e-11
-4.64844e-11
-4.10034e-11
-3.48178e-11
-2.8625e-11
-1.29092e-11
2.39327e-11
8.40906e-11
1.81507e-10
2.99322e-10
3.5849e-10
2.67571e-10
1.51237e-10
4.50213e-11
-1.47231e-12
-5.21592e-12
-1.14013e-12
-1.04134e-13
7.96263e-13
-4.67643e-11
-4.33827e-11
-3.8293e-11
-3.28281e-11
-2.58897e-11
1.79626e-12
5.23576e-11
1.2385e-10
2.20007e-10
3.17711e-10
3.59711e-10
2.89475e-10
1.67533e-10
5.20381e-11
-1.22014e-12
-6.36513e-12
-1.62937e-12
-5.90234e-14
-2.10746e-13
-3.91376e-11
-4.06537e-11
-3.65751e-11
-3.1062e-11
-2.06924e-11
2.44014e-11
9.25509e-11
1.73868e-10
2.59463e-10
3.26814e-10
3.43567e-10
2.82074e-10
1.83417e-10
6.54289e-11
1.65144e-12
-6.577e-12
-2.29749e-12
-1.72468e-13
-2.45249e-13
-1.29495e-11
-3.24518e-11
-3.67249e-11
-3.11888e-11
-1.36898e-11
5.6602e-11
1.4657e-10
2.3023e-10
2.90338e-10
3.19773e-10
3.1525e-10
2.58446e-10
1.65296e-10
8.38609e-11
1.44987e-11
-3.89113e-12
-2.32348e-12
-2.48331e-13
1.69148e-12
4.29952e-11
-4.18369e-12
-3.33381e-11
-3.20691e-11
-3.79611e-12
9.77693e-11
1.99906e-10
2.56756e-10
2.67841e-10
2.70641e-10
2.77908e-10
2.37864e-10
1.56107e-10
9.89464e-11
3.69553e-11
6.5879e-12
-4.65189e-12
-2.08479e-12
1.36776e-11
1.24203e-10
5.59499e-11
-1.62283e-11
-2.96765e-11
6.60751e-12
1.25017e-10
2.0359e-10
1.75489e-10
1.0639e-10
1.00757e-10
1.78463e-10
1.92449e-10
1.86124e-10
1.22005e-10
7.20462e-11
4.79499e-11
2.96245e-11
-9.40269e-13
-5.49014e-11
2.12174e-10
1.50358e-10
1.91097e-11
-3.26398e-11
1.96395e-12
1.07422e-10
9.4662e-11
-6.75759e-11
-1.9991e-10
-1.95763e-10
-6.60814e-11
1.1455e-10
2.07147e-10
1.66469e-10
1.35325e-10
1.4353e-10
1.6308e-10
1.77664e-10
2.36824e-10
2.80369e-10
3.15897e-10
1.81005e-10
9.16003e-11
8.80253e-11
7.9042e-11
-1.30492e-10
-3.70514e-10
-4.28641e-10
-3.72947e-10
-2.48728e-10
-4.0101e-11
1.68651e-10
2.23359e-10
2.05699e-10
2.13507e-10
2.41279e-10
2.60219e-10
2.47645e-10
2.54878e-10
4.21952e-10
3.99228e-10
3.15107e-10
1.81917e-10
-6.01924e-11
-3.63763e-10
-4.16915e-10
-3.66451e-10
-3.59089e-10
-3.48185e-10
-2.26101e-10
-1.77685e-11
1.23631e-10
1.29199e-10
1.16703e-10
1.14226e-10
1.13142e-10
5.48708e-11
5.72599e-11
1.92645e-10
2.41051e-10
1.88247e-10
1.90732e-11
-1.79811e-10
-2.10103e-10
-1.25139e-10
-9.91791e-11
-2.09967e-10
-3.27172e-10
-3.44095e-10
-2.64138e-10
-1.65314e-10
-1.34192e-10
-1.60938e-10
-2.04928e-10
-2.28992e-10
-1.67397e-10
-1.27022e-10
-1.19094e-10
-1.27919e-10
-1.72226e-10
-1.92752e-10
-1.08544e-10
9.30224e-12
5.22343e-11
1.78558e-11
-1.07304e-10
-2.62337e-10
-3.37728e-10
-3.4607e-10
-3.35071e-10
-3.29248e-10
-3.49326e-10
-3.98776e-10
-4.37737e-10
-4.21405e-10
-2.33659e-10
-3.11213e-10
-3.09223e-10
-2.18948e-10
-5.74453e-11
3.54168e-11
4.65944e-11
3.14707e-11
1.28232e-11
-6.49628e-11
-1.94267e-10
-2.7453e-10
-3.0413e-10
-3.03543e-10
-2.86458e-10
-2.66882e-10
-2.70792e-10
-3.27973e-10
-4.48835e-10
-2.53989e-10
-3.29607e-10
-2.35214e-10
-6.5613e-11
2.72342e-11
3.8632e-11
2.55651e-11
1.76602e-11
1.35937e-11
-2.53249e-11
-1.08626e-10
-1.78542e-10
-2.30947e-10
-2.29988e-10
-1.94404e-10
-1.28944e-10
-6.67937e-11
-2.38426e-11
3.1429e-11
-2.12731e-10
-2.43812e-10
-1.013e-10
7.52932e-12
3.82475e-11
3.42998e-11
2.48896e-11
1.96493e-11
1.78297e-11
-1.32939e-12
-5.69663e-11
-1.11329e-10
-1.62287e-10
-1.54225e-10
-1.12054e-10
-5.70498e-11
-2.77735e-11
-1.01057e-11
1.00911e-11
-1.4851e-10
-1.41602e-10
-2.06873e-11
3.18796e-11
4.23884e-11
3.63988e-11
2.7149e-11
2.08542e-11
1.87096e-11
1.12999e-11
-2.57236e-11
-7.14992e-11
-1.11091e-10
-9.97163e-11
-6.15338e-11
-2.59775e-11
-1.31551e-11
-3.75809e-12
6.27871e-12
-9.00712e-11
-6.55922e-11
1.5574e-11
4.26722e-11
4.62879e-11
3.88884e-11
2.93772e-11
2.20688e-11
1.86595e-11
1.6468e-11
-7.22782e-13
-3.53254e-11
-7.08525e-11
-6.54073e-11
-3.14706e-11
-9.59228e-12
-3.35402e-12
-4.34814e-13
-7.63619e-13
-4.78178e-11
-1.96318e-11
3.30692e-11
4.91631e-11
4.8739e-11
4.10689e-11
3.17048e-11
2.34048e-11
1.88133e-11
1.73993e-11
1.28862e-11
-3.99677e-12
-2.5977e-11
-2.99441e-11
-1.04006e-11
-1.5627e-13
3.48612e-13
-6.69267e-13
-1.15027e-12
-2.49627e-11
3.04185e-12
4.2896e-11
5.14682e-11
4.97244e-11
4.31638e-11
3.39514e-11
2.48025e-11
1.92894e-11
1.76604e-11
1.58179e-11
1.03732e-11
1.07173e-12
-2.86706e-12
3.65252e-12
2.19266e-12
-3.55819e-13
-7.76584e-13
-5.23806e-13
1.42635e-11
2.58254e-11
4.50028e-11
5.07314e-11
5.03644e-11
4.48265e-11
3.56745e-11
2.60114e-11
1.97717e-11
1.79015e-11
1.65338e-11
1.30426e-11
9.88554e-12
7.75067e-12
5.50546e-12
1.53244e-12
-3.9666e-13
-7.18852e-13
-6.06024e-13
-7.06331e-15
7.32837e-14
1.31349e-14
-3.74469e-16
-3.70995e-14
2.56431e-14
-8.96725e-14
5.76543e-13
-4.95521e-12
-1.36611e-12
-2.67901e-12
4.56753e-12
3.97816e-12
5.073e-12
5.49004e-11
1.14428e-11
9.83754e-12
3.835e-11
6.10464e-12
5.13202e-12
2.35541e-12
3.80529e-12
4.82161e-12
5.66053e-12
6.37359e-12
6.93353e-12
1.22539e-10
8.08811e-12
8.66593e-12
9.2413e-12
9.72246e-12
1.02145e-11
1.08365e-11
1.14728e-11
1.20789e-11
1.27085e-11
1.32594e-11
1.40811e-11
1.48502e-11
1.79606e-11
3.63786e-10
4.51865e-11
4.35486e-11
4.21202e-11
1.67457e-10
1.62157e-11
9.30581e-12
-9.13003e-14
-1.0002e-10
-1.33954e-11
5.58706e-13
1.18543e-10
1.017e-11
2.55255e-12
-5.14668e-12
-9.19644e-11
-2.00944e-11
-1.94616e-11
-1.93802e-11
-2.26725e-10
-1.44288e-11
-1.13861e-11
-1.05133e-11
-9.61801e-12
-9.29955e-12
-8.84773e-12
-8.65029e-12
-8.36007e-12
-8.30991e-12
-8.18607e-12
-7.92571e-12
-7.72119e-12
-7.59225e-12
-6.22721e-11
-6.72456e-12
-6.08132e-12
-5.59697e-12
-5.11404e-12
-4.32219e-12
-2.26147e-12
2.71527e-12
4.78546e-12
2.38292e-11
4.787e-12
4.11195e-12
1.52121e-11
1.46418e-12
7.23008e-13
-5.64262e-13
-6.20373e-13
-1.11416e-12
-4.69222e-12
-2.81022e-14
4.77223e-15
1.41702e-13
1.86712e-12
5.49734e-13
6.79526e-13
2.56945e-12
-1.66181e-13
5.71428e-11
4.90448e-11
4.3146e-11
3.64024e-11
3.00798e-11
2.205e-11
6.2161e-13
-3.62498e-11
-1.06009e-10
-2.11664e-10
-2.99332e-10
-2.49788e-10
-1.46119e-10
-4.15622e-11
2.42027e-12
4.49152e-12
7.6284e-13
8.83409e-14
-7.19026e-13
5.06171e-11
4.64844e-11
4.10034e-11
3.48178e-11
2.8625e-11
1.29092e-11
-2.39327e-11
-8.40906e-11
-1.81507e-10
-2.99322e-10
-3.5849e-10
-2.67571e-10
-1.51237e-10
-4.50213e-11
1.47231e-12
5.21592e-12
1.14013e-12
1.04134e-13
-7.96263e-13
4.67643e-11
4.33827e-11
3.8293e-11
3.28281e-11
2.58897e-11
-1.79626e-12
-5.23576e-11
-1.2385e-10
-2.20007e-10
-3.17711e-10
-3.59711e-10
-2.89475e-10
-1.67533e-10
-5.20381e-11
1.22014e-12
6.36513e-12
1.62937e-12
5.90234e-14
2.10746e-13
3.91376e-11
4.06537e-11
3.65751e-11
3.1062e-11
2.06924e-11
-2.44014e-11
-9.25509e-11
-1.73868e-10
-2.59463e-10
-3.26814e-10
-3.43567e-10
-2.82074e-10
-1.83417e-10
-6.54289e-11
-1.65144e-12
6.577e-12
2.29749e-12
1.72468e-13
2.45249e-13
1.29495e-11
3.24518e-11
3.67249e-11
3.11888e-11
1.36898e-11
-5.6602e-11
-1.4657e-10
-2.3023e-10
-2.90338e-10
-3.19773e-10
-3.1525e-10
-2.58446e-10
-1.65296e-10
-8.38609e-11
-1.44987e-11
3.89113e-12
2.32348e-12
2.48331e-13
-1.69148e-12
-4.29952e-11
4.18369e-12
3.33381e-11
3.20691e-11
3.79611e-12
-9.77693e-11
-1.99906e-10
-2.56756e-10
-2.67841e-10
-2.70641e-10
-2.77908e-10
-2.37864e-10
-1.56107e-10
-9.89464e-11
-3.69553e-11
-6.5879e-12
4.65189e-12
2.08479e-12
-1.36776e-11
-1.24203e-10
-5.59499e-11
1.62283e-11
2.96765e-11
-6.60751e-12
-1.25017e-10
-2.0359e-10