/*--------------------------------*- C++ -*----------------------------------*\
| =========                 |                                                 |
| \\      /  F ield         | OpenFOAM: The Open Source CFD Toolbox           |
|  \\    /   O peration     | Version:  4.1                                   |
|   \\  /    A nd           | Web:      www.OpenFOAM.org                      |
|    \\/     M anipulation  |                                                 |
\*---------------------------------------------------------------------------*/
FoamFile
{
    version     2.0;
    format      ascii;
    class       volScalarField;
    location    "23";
    object      p;
}
// * * * * * * * * * * * * * * * * * * * * * * * * * * * * * * * * * * * * * //

dimensions      [0 2 -2 0 0 0 0];

internalField   nonuniform List<scalar> 
1280
(
0.0451043
-0.282469
-0.209789
-0.549319
-0.1093
-0.134191
-0.213646
-0.194844
-0.126766
-0.205391
-1.26351
-2.22742
-2.85364
-5.11316
-6.62489
-8.37258
-13.0856
-14.7245
-16.3567
-26.0946
-22.5621
-10.1156
9.3273
19.6909
21.2891
23.4033
1.53366
12.9196
16.0584
15.7462
15.3278
14.9078
13.9976
12.751
11.3741
9.74247
8.23561
6.22074
5.14828
1.58595
-1.39503
11.2858
15.2776
18.3923
28.6044
27.9948
28.1343
28.1452
27.8875
27.8535
27.7442
27.531
27.2728
25.6509
25.0939
31.0393
12.5046
6.5791
-0.267162
-7.97736
0.999777
6.39174
8.39554
11.8562
14.5927
17.6211
20.3759
23.0524
25.4155
27.4033
29.2592
30.7873
30.1153
39.2211
55.2446
53.0337
51.2684
40.7338
20.2969
6.59811
1.58922
11.6967
13.1946
10.4642
15.8806
16.7313
14.6884
17.5092
17.1941
16.0936
17.0602
15.2611
14.7585
14.8094
14.9617
13.6212
9.42343
8.61784
5.97836
1.96499
-0.00325162
0.00113095
0.109673
0.559518
0.741668
0.719225
1.45634
1.18918
2.842
2.26831
2.49011
1.56659
-0.0830953
-8.31908
-11.9029
-18.3042
-6.30154
1.52884
5.79068
0.020949
-0.0594557
0.251437
0.970558
1.44544
1.56341
3.10528
2.8094
5.7426
6.19308
5.65558
2.90272
-0.402487
-15.5877
-16.8354
-26.2064
-4.41063
4.83234
10.0514
-0.00988481
-0.180897
0.273369
0.780073
1.51061
2.03827
4.23927
4.2
7.24974
9.03075
8.38865
4.3519
-0.494965
-17.5686
-19.294
-31.8335
-2.91306
8.30255
15.9934
-0.0766959
-0.378741
0.123303
0.690535
1.60215
2.38975
5.08091
5.22041
8.61845
9.85343
9.92926
4.63405
-0.325354
-15.8689
-23.6495
-36.9548
-3.26249
11.7276
21.8577
-0.189538
-0.668331
-0.149169
0.572426
1.61264
2.56978
5.49251
6.01055
9.50605
9.45274
10.9992
4.05797
-0.220156
-12.9761
-30.5244
-38.7536
-3.49826
14.6459
26.3107
-0.358795
-1.09203
-0.575413
0.286941
1.42606
2.55365
5.56188
6.62323
9.74144
8.44474
11.1982
3.1526
0.406585
-8.98071
-35.2896
-37.7469
-3.11299
18.843
31.3729
-0.612887
-1.72242
-1.23982
-0.260257
0.984084
2.30862
5.4372
7.04614
9.71338
7.21577
10.2679
2.98763
2.3384
-3.94581
-34.0886
-31.448
-2.10474
20.661
33.165
-0.981336
-2.60831
-2.19168
-1.12807
0.237098
1.78049
5.16408
7.21932
9.64339
6.45568
8.82362
3.80871
5.77189
1.93285
-28.453
-23.4799
-1.31684
25.3733
37.2869
-1.46494
-3.74025
-3.42526
-2.29371
-0.812071
0.941413
4.6484
7.01557
9.43744
6.3853
7.26341
4.84477
9.81828
8.6097
-16.5374
-16.4615
-2.82036
22.4285
54.9714
-2.06332
-5.08844
-4.88925
-3.66295
-2.09253
-0.190394
3.75354
6.32832
8.86848
6.40813
5.60232
5.55758
13.8434
14.615
-0.624589
-3.50856
4.42078
28.6587
40.238
-2.76034
-6.61159
-6.53729
-5.15297
-3.50731
-1.54455
2.46055
5.17299
7.85684
6.10477
3.97272
5.99208
17.6399
18.5773
8.3989
2.90266
4.95148
26.502
37.8556
-3.49484
-8.19431
-8.25374
-6.65583
-4.9482
-3.00408
0.91887
3.70695
6.49361
5.45794
2.72942
6.16736
20.7977
22.119
15.2701
7.38501
5.90264
34.2194
53.8038
-4.3017
-9.74967
-9.8653
-7.99586
-6.29498
-4.45054
-0.745768
2.13297
4.94125
4.5588
2.0845
5.84357
21.3072
24.1872
18.5114
12.938
4.11765
5.31229
9.23076
-5.23412
-11.0258
-11.3389
-9.23103
-7.57263
-5.89974
-2.43048
0.647833
3.35007
3.49982
2.15191
5.2109
19.7147
25.1573
17.2211
10.4047
-7.31352
-17.0286
-12.6144
-5.75923
-11.5521
-12.3989
-10.3376
-8.73319
-7.21159
-3.79904
-0.63049
1.91029
2.48283
2.86903
4.56541
18.0038
24.6769
15.0463
9.35797
-4.54747
-11.1085
-9.26225
-5.37981
-11.5665
-12.4361
-10.8972
-9.38067
-7.99232
-4.63493
-1.5644
0.713465
1.28827
3.74116
3.83827
15.9654
21.7501
11.9095
7.11243
-4.49322
-9.37407
-8.1496
-4.41335
-10.3009
-11.1694
-10.2852
-9.1118
-7.76485
-4.68126
-2.04207
-0.0568708
0.4337
4.41429
3.10334
13.1547
16.3044
8.11603
5.03504
-2.66046
-5.95992
-4.47093
-3.22932
-8.17821
-8.70719
-8.19306
-7.38104
-6.24381
-3.85606
-1.90041
-0.640043
-1.28477
3.65343
2.32773
10.2803
10.4984
4.55924
3.18372
-0.899668
-3.0032
-2.70397
-2.01559
-5.58959
-5.6265
-5.17081
-4.6358
-3.92911
-2.60907
-1.63931
-0.548161
-0.964718
1.6987
0.910387
7.6416
6.24268
2.62576
1.77326
0.0507998
-1.17329
-1.60812
-1.35365
-2.86785
-2.20997
-1.9973
-1.83736
-1.60049
-1.00206
-0.432531
-0.721638
-3.25728
-1.1139
-1.26326
2.94256
1.6571
0.910305
0.250662
0.070241
-0.323622
-0.847732
-7.33789
-3.50877
-0.899848
1.16809
1.68385
2.0364
1.57087
1.09277
0.694309
0.414529
0.21888
0.165486
0.273664
0.56058
1.01066
1.66026
2.42102
3.42107
4.28277
5.56067
-72.3063
-69.0417
-64.3595
-59.0979
-54.7978
-51.0444
-47.7385
-44.8612
-42.3459
-40.1582
-38.2009
-36.3911
-34.6595
-32.9188
-31.1608
-29.2875
-27.4547
-25.4175
-23.8754
-21.4867
-73.8875
-75.4645
-73.7706
-70.9418
-69.1085
-67.731
-66.524
-65.5311
-64.6954
-64.0627
-63.5959
-63.2472
-62.9459
-62.5643
-62.0024
-60.962
-59.5338
-57.3872
-55.6221
-52.865
-43.7633
-49.4183
-54.0042
-57.5469
-60.9013
-64.1491
-66.9523
-69.4221
-71.3529
-72.9352
-74.2081
-75.305
-76.2884
-77.215
-78.1143
-78.895
-79.5408
-80.0438
-80.3301
-78.0061
6.27481
0.0962682
-4.4924
-9.18299
-13.8435
-18.9731
-23.9945
-29.0362
-33.6368
-37.8543
-41.4487
-44.408
-46.5685
-47.8406
-48.1836
-47.6773
-46.6314
-46.08
-47.1415
-49.3663
47.5906
44.7084
42.7671
40.958
39.8706
38.3621
37.1452
35.6174
34.1118
32.267
30.1234
27.4402
24.18
20.4294
16.5835
13.1366
10.7917
10.3895
10.5727
6.69349
48.9089
49.6359
49.6193
49.526
49.4986
48.9906
48.6014
47.7009
46.7037
45.3883
43.9502
42.3977
40.8247
39.2993
37.9837
37.0254
36.4475
35.8606
35.897
34.5273
33.1567
35.4953
36.9141
38.2105
39.8944
40.993
42.5138
43.6147
44.6973
45.4183
45.7941
45.7107
45.1845
44.3526
43.6381
43.4326
44.0405
45.0095
45.8547
46.0906
12.72
14.9207
16.6206
17.5669
19.4087
20.3207
21.8506
22.9967
24.2962
25.5402
26.7869
28.0284
29.2451
30.4345
31.5986
32.8069
34.0244
35.4395
36.5115
37.8804
-8.8948
-6.83643
-4.79841
-4.05877
-1.7995
-0.865646
1.00775
2.33635
3.91728
5.39819
6.88728
8.36904
9.82986
11.2942
12.7327
14.2124
15.619
17.1947
18.3739
20.0398
-33.8927
-33.1022
-31.0264
-31.1781
-28.8799
-28.5847
-26.6914
-25.6734
-24.0314
-22.5283
-20.8212
-19.0119
-17.0855
-15.0336
-12.9268
-10.7084
-8.56254
-6.19977
-4.32554
-1.34981
-53.4599
-55.8184
-54.7728
-57.0789
-56.3101
-58.3684
-58.301
-59.8
-60.3287
-61.3729
-61.9538
-62.3258
-62.1826
-61.4823
-60.189
-58.2872
-56.0956
-53.4639
-51.5072
-47.9481
-35.2931
-39.9861
-40.0784
-43.9374
-44.5676
-48.1136
-49.5919
-52.8193
-55.1509
-58.3062
-61.1405
-64.1074
-66.7925
-69.2165
-71.1865
-72.8442
-73.9985
-74.2697
-74.4852
-72.4115
5.26985
1.29993
1.87692
-2.04113
-1.86231
-5.19598
-5.9118
-8.53003
-9.95598
-12.0812
-13.694
-15.3767
-16.7781
-18.1112
-19.3763
-20.8117
-22.4697
-24.0548
-26.1704
-28.9926
24.3455
23.6037
26.1381
24.2549
27.3362
26.1233
28.1558
27.8795
28.7375
28.6318
28.5888
28.0752
27.3448
26.338
25.1153
23.5688
21.7929
20.4468
19.5973
17.5044
0.787705
0.283732
3.61835
1.44839
5.43259
4.67715
7.44279
8.4526
10.65
12.563
14.7793
16.9502
19.0627
20.9303
22.3633
23.1584
23.5833
24.1657
25.3068
26.9699
0.206812
-2.83725
0.143441
-5.63321
-4.1644
-7.82662
-8.54911
-10.6011
-11.8488
-13.1394
-14.1172
-14.866
-15.3429
-15.5015
-15.3309
-14.6174
-13.2877
-11.0816
-8.42775
-5.57662
-9.78647
-16.5957
-8.38315
-15.2721
-13.2773
-16.5991
-17.8848
-20.4247
-22.685
-25.2267
-27.7582
-30.3533
-32.9358
-35.4614
-37.8063
-39.4873
-40.2225
-39.268
-38.1429
-35.9946
11.0435
-11.8933
-4.04513
-15.4604
-18.5381
-25.5062
-30.7648
-36.3159
-41.1338
-45.4211
-48.9356
-51.6242
-53.393
-54.1681
-53.8623
-52.461
-49.9462
-46.715
-44.3198
-42.1396
705.338
622.338
572.969
516.49
467.267
419.776
375.631
333.957
294.774
257.808
222.907
189.881
158.519
128.77
100.726
73.6399
48.013
28.3386
5.10171
-32.0662
724.612
641.612
592.243
535.764
486.541
439.05
394.905
353.231
314.047
277.081
242.18
209.153
177.791
148.041
119.997
92.9109
67.2843
47.6097
24.3717
-12.7974
30.3232
7.38624
15.2346
3.81918
0.741687
-6.22647
-11.4849
-17.036
-21.8539
-26.1411
-29.6556
-32.3443
-34.1131
-34.8882
-34.5824
-33.1813
-30.6666
-27.4349
-25.0409
-22.8624
9.48385
2.67251
10.8841
3.9935
5.98699
2.66343
1.37606
-1.16592
-3.42821
-5.9722
-8.506
-11.1036
-13.6885
-16.2166
-18.5635
-20.2458
-20.9813
-20.0276
-18.9034
-16.758
19.4414
16.3946
19.3746
13.5959
15.0631
11.399
10.6745
8.62058
7.37084
6.07856
5.09916
4.34913
3.87118
3.71173
3.88163
4.59496
5.92483
8.1325
10.7873
13.6401
20.0309
19.5274
22.8653
20.6954
24.6826
23.9283
26.6957
27.707
29.9055
31.8191
34.0353
36.2059
38.3177
40.1842
41.6164
42.4121
42.8408
43.4332
44.5816
46.2496
43.6139
42.8785
45.4149
43.5348
46.6185
45.4079
47.4423
47.1681
48.028
47.9241
47.8829
47.3717
46.6442
45.641
44.4236
42.8839
41.1157
39.7749
38.9304
36.8455
24.6572
20.6937
21.2742
17.3611
17.5462
14.2184
13.5099
10.8989
9.48077
7.36327
5.75761
4.08067
2.68286
1.3502
0.0817073
-1.36045
-3.02515
-4.6129
-6.73089
-9.56618
-15.9335
-20.6307
-20.727
-24.5914
-25.2266
-28.7787
-30.263
-33.4978
-35.8365
-39
-41.8421
-44.8171
-47.5099
-49.9403
-51.9148
-53.5754
-54.7283
-54.9988
-55.2189
-53.1498
-34.2075
-36.576
-35.5356
-37.8476
-37.0848
-39.149
-39.0869
-40.5916
-41.1242
-42.172
-42.7543
-43.1261
-42.9813
-42.2786
-40.9828
-39.0803
-36.8898
-34.2614
-32.3056
-28.7442
-14.6795
-13.8933
-11.8175
-11.9706
-9.67245
-9.37792
-7.48397
-6.46599
-4.82294
-3.31908
-1.61086
0.199466
2.12691
4.17957
6.28676
8.50532
10.6509
13.0147
14.8908
17.8686
10.3508
12.4075
14.4458
15.185
17.4446
18.3784
20.2523
21.5811
23.1626
24.6439
26.1335
27.6157
29.0767
30.5411
31.9796
33.4591
34.8654
36.441
37.6203
39.2863
31.9423
34.1448
35.8469
36.7946
38.6383
39.5519
41.0835
42.2313
43.5322
44.7773
46.0248
47.2663
48.4828
49.6718
50.8361
52.0459
53.2656
54.6842
55.7593
57.1313
52.4557
54.791
56.2072
57.4991
59.1786
60.2711
61.7851
62.8785
63.9536
64.6685
65.0405
64.9585
64.4403
63.6259
62.9377
62.7594
63.3853
64.3629
65.2099
65.4537
68.1214
68.8489
68.8302
68.7378
68.7114
68.208
67.8271
66.9398
65.9611
64.6702
63.2623
61.7456
60.2128
58.7302
57.4554
56.523
55.9546
55.3619
55.3912
54.0269
67.1081
64.2507
62.3202
60.5317
59.4643
57.9781
56.7816
55.2718
53.7804
51.944
49.8011
47.1086
43.8273
40.0448
36.1617
32.6787
30.3069
29.883
30.063
26.1935
26.0425
19.8773
15.2947
10.6195
5.9691
0.850348
-4.15922
-9.18636
-13.7704
-17.9704
-21.5476
-24.49
-26.6355
-27.8944
-28.2257
-27.7096
-26.6599
-26.1217
-27.2086
-29.4723
-24.2104
-29.8582
-34.4183
-37.9397
-41.2846
-44.5241
-47.324
-49.7956
-51.736
-53.3373
-54.6393
-55.7745
-56.8044
-57.7827
-58.734
-59.5566
-60.2415
-60.7928
-61.1104
-58.7998
-54.0919
-55.6574
-53.9707
-51.1665
-49.3577
-48.0047
-46.8308
-45.8842
-45.109
-44.5475
-44.1585
-43.8891
-43.6632
-43.3484
-42.8377
-41.8247
-40.4058
-38.2564
-36.4825
-33.7148
-52.4883
-49.1915
-44.548
-39.3105
-35.0345
-31.3063
-28.0369
-25.2139
-22.7652
-20.6523
-18.7666
-17.0217
-15.3448
-13.6447
-11.9113
-10.0451
-8.20323
-6.1449
-4.56236
-2.16583
13.3714
17.4292
20.3732
22.8533
23.7381
24.4575
24.3326
23.8587
23.2726
22.8094
22.4131
22.1339
22.0027
22.0409
22.2393
22.627
23.1411
23.8579
24.5204
25.4449
)
;

boundaryField
{
    outletWall
    {
        type            fixedValue;
        value           uniform 0;
    }
    fineWalls
    {
        type            zeroGradient;
    }
    fineFrontAndBack
    {
        type            zeroGradient;
    }
    fineplugLeft
    {
        type            cyclicAMI;
        value           nonuniform List<scalar> 
20
(
4.76572
4.45587
3.981
3.58394
3.27671
3.08335
2.99866
3.01845
3.11395
3.24066
3.48086
3.76712
3.45813
1.56664
6.30979
5.60489
4.87264
1.14558
-4.83013
-10.3827
)
;
    }
    fineplugRight
    {
        type            cyclicAMI;
        value           nonuniform List<scalar> 
20
(
20.5559
20.8946
20.7655
20.8841
21.0202
21.3157
21.7079
22.2126
22.7902
23.4111
24.0993
24.7756
25.1101
26.0256
30.6149
29.5972
28.5363
24.4454
18.0028
12.0167
)
;
    }
    inletOutletLeft
    {
        type            cyclicAMI;
        value           nonuniform List<scalar> 
20
(
4.76572
4.45587
3.981
3.58394
3.27671
3.08335
2.99866
3.01845
3.11395
3.24066
3.48086
3.76712
3.45813
1.56664
6.30979
5.60489
4.87264
1.14558
-4.83013
-10.3827
)
;
    }
    inletLeft
    {
        type            zeroGradient;
    }
    inletWallsLeft
    {
        type            zeroGradient;
    }
    inletFacesLeft
    {
        type            zeroGradient;
    }
    inletOutletRight
    {
        type            cyclicAMI;
        value           nonuniform List<scalar> 
20
(
20.5559
20.8946
20.7655
20.8841
21.0202
21.3157
21.7079
22.2126
22.7902
23.4111
24.0993
24.7756
25.1101
26.0256
30.6149
29.5972
28.5363
24.4454
18.0028
12.0167
)
;
    }
    inletRight
    {
        type            zeroGradient;
    }
    inletWallsRight
    {
        type            zeroGradient;
    }
    inletFacesRight
    {
        type            zeroGradient;
    }
}


// ************************************************************************* //
