/*--------------------------------*- C++ -*----------------------------------*\
| =========                 |                                                 |
| \\      /  F ield         | OpenFOAM: The Open Source CFD Toolbox           |
|  \\    /   O peration     | Version:  4.1                                   |
|   \\  /    A nd           | Web:      www.OpenFOAM.org                      |
|    \\/     M anipulation  |                                                 |
\*---------------------------------------------------------------------------*/
FoamFile
{
    version     2.0;
    format      ascii;
    class       surfaceScalarField;
    location    "23";
    object      phi;
}
// * * * * * * * * * * * * * * * * * * * * * * * * * * * * * * * * * * * * * //

dimensions      [0 3 -1 0 0 0 0];

internalField   nonuniform List<scalar> 
2360
(
-3297.13
-1246.95
-2050.19
-1246.95
-1246.95
809.858
-2056.8
809.86
809.859
809.86
3085.15
-2275.29
3085.15
3085.15
5791.07
-2705.92
5791.06
5791.07
9422.33
-3631.26
9422.33
9422.33
13806.9
-4384.58
13806.9
13806.9
14335.2
15735.4
17521.9
19265
20850.2
22284.9
15776.1
7859.88
17014.7
18161.2
19219.5
20191.6
21079.6
21886.9
22617.6
23276.2
23865.2
24385.8
24835.6
25211
25447
9125.36
16321.7
9125.35
9125.35
9125.35
-433.647
9559
-433.646
-433.644
-433.643
625.638
-1059.28
625.64
625.64
-4255.75
4881.4
-4255.75
-4255.75
-4255.75
-16544.1
12288.3
-16544.1
-16544.1
-16544.1
-28904.8
12360.7
-28630.2
-28237.7
-27776.6
-27249.8
-26658.5
-26000.9
-25273.8
-24472.7
-23593
-22631.2
-21585
-20452.2
-19229.4
-23018.1
5124.51
-21588.8
-20006.6
-18263.6
-16472.2
-15060.9
-14529.3
-14529.3
-14529.3
-11268
-3261.35
-11268
-11268
-8108.64
-3159.31
-8108.64
-8108.64
-4584.21
-3524.43
-4584.21
-4584.21
-681.649
-3902.56
-681.648
-681.649
-681.647
3382.51
-4064.16
3382.51
3382.51
7184.25
-3801.74
2179.67
-1491.78
2121.68
-1123.56
1776.16
-1358.88
1671.9
1320.95
1774.09
5435.89
1739.72
5897.4
1304.57
2202.78
323.774
-3612.13
-332.405
836.428
-1311.21
-7955.13
-2424.82
-13121.9
-3191.13
-16421
-2955.91
-19482.3
-500.462
-16107.7
2460.14
6058.19
3887.77
20980.4
4774.83
24214.5
4786.64
20580.4
11716.9
2771.3
-1561.03
2702.86
-1055.13
2139.48
-795.503
1718.23
1742.2
1736.99
5417.13
1632.47
6001.93
1051.68
2783.57
-238.204
-2322.25
-1279.42
1877.65
-3024.24
-6210.31
-4643.06
-11503
-5622.34
-15441.8
-5188.32
-19916.3
-2203.21
-19092.8
1897.89
1957.1
3332.27
19546
4332.22
23214.6
4495.76
20416.8
12148.5
2958.97
-1609.01
2893.15
-989.305
2378.22
-280.579
1798.64
2321.78
1655.1
5560.68
1467.19
6189.84
792.531
3458.23
-793.315
-736.406
-2319.31
3403.64
-4438.43
-4091.2
-6163.6
-9777.87
-7143.24
-14462.1
-6816.89
-20242.6
-4504.46
-21405.3
275.24
-2822.6
2346.38
17474.9
3439.77
22121.2
3901.75
19954.9
12147.7
3134.14
-1649.82
3055.9
-911.058
2574.04
201.276
1908.26
2987.56
1556.76
5912.18
1235.1
6511.5
482.805
4210.53
-1299.51
1045.91
-3155.04
5259.17
-5795.01
-1451.22
-7644.68
-7928.2
-8641.09
-13465.7
-8508.12
-20375.6
-6641.86
-23271.5
-1796.1
-7668.36
809.882
14868.9
2026.09
20905
2942.43
19038.5
11565.7
3377.55
-1696.93
3265.66
-799.167
2797.46
669.471
2107.06
3677.96
1539.49
6479.75
1012.43
7038.56
155.422
5067.53
-1498.89
2700.23
-3574.86
7335.14
-6720.07
1693.98
-8544.37
-6103.9
-9360.34
-12649.7
-9496.01
-20239.9
-8438.38
-24329.2
-4285.34
-11821.4
-1222.21
11805.7
326.903
19355.9
1683.28
17682.1
10089.6
3773.49
-1762.7
3619.52
-645.202
3120.98
1168.02
2446.85
4352.09
1752.21
7174.39
995.854
7794.92
-37.2491
6100.63
-1579.09
4242.07
-3620.7
9376.74
-6929.08
5002.36
-8485.26
-4547.72
-8931.08
-12203.9
-9472.33
-19698.7
-9757.53
-24044
-7050.82
-14528.1
-3765.6
8520.53
-1858.67
17448.9
241.878
15581.6
7070.18
4191.28
-1847.09
4023.64
-477.568
3502.72
1688.94
2881.49
4973.32
2230.74
7825.14
1382.63
8643.02
126.298
7356.97
-1485.52
5853.89
-3420.69
11311.9
-6476.59
8058.27
-7527.16
-3497.16
-7588.18
-12142.9
-8656.49
-18630.4
-10599.7
-22100.7
-9684.42
-15443.4
-6402.53
5238.65
-3862.78
14909.2
-1105.72
12824.5
11089
4491.17
-1946.49
4340.27
-326.67
3848.31
2180.9
3307.35
5514.28
2815.82
8316.67
2083.38
9375.46
688.371
8751.98
-1197.16
7739.42
-3119.03
13233.8
-5812.11
10751.3
-6535.58
-2773.69
-6387.35
-12291.1
-7870.79
-17146.9
-11184.6
-18786.9
-11796.2
-14831.8
-8362.81
1805.25
-5829.49
12375.9
-6941.62
13936.7
16508.1
4641.56
-2066.28
4512.56
-197.669
4075.95
2617.51
3627.11
5963.12
3293.72
8650.05
2752.19
9916.99
1360.53
10143.6
-835.15
9935.1
-2864.51
15263.1
-5330.06
13216.9
-6185.11
-1918.64
-6023.27
-12453
-7613.16
-15557
-11702.6
-14697.5
-14229.1
-12305.4
-12394.3
-29.548
-10955.6
10937.2
-12323
15304
16473.4
4639.49
-2219.63
4528.09
-86.2639
4133.25
3012.35
3757.35
6339.01
3513.08
8894.33
3097.06
10333
1786.61
11454.1
-590.839
12312.5
-2725.27
17397.6
-5047.11
15538.7
-6208.82
-756.927
-6011.72
-12650.1
-7400.45
-14168.3
-11631.2
-10466.7
-15391.9
-8544.65
-15737.5
316.022
-14376.8
9576.49
-11769.6
12696.9
9585.14
4433.18
-2429.63
4352.1
-5.1828
3970.15
3394.3
3620.51
6688.66
3405.52
9109.32
3036.91
10701.6
1807.95
12683
-588.407
14708.9
-2721.54
19530.7
-4883.99
17701.2
-6146.08
505.155
-5760.58
-13035.6
-6709.3
-13219.6
-10653.9
-6522.12
-14060
-5138.54
-14386.2
642.207
-12549.5
7739.78
-7920.29
8067.71
605.571
3957.51
-2731.75
3923.39
28.937
3538.74
3778.95
3214.51
7012.88
3042.1
9281.73
2684.06
11059.7
1470.2
13896.9
-847.978
17027.1
-2847.74
21530.5
-4784.29
19637.7
-5879.74
1600.6
-5284.35
-13631
-5781.29
-12722.6
-9853.8
-2449.61
-14181.3
-810.996
-15320.2
1781.02
-14286.5
6706.13
-12596.9
6378.13
-2432.37
3160.94
-3171.08
3205.22
-15.3383
2904.39
4079.77
2712
7205.28
2623.97
9369.76
2201.61
11482
858.817
15239.7
-1342.13
19228
-3083.49
23271.8
-4701.13
21255.4
-5435.28
2334.76
-4734.48
-14331.8
-4533.31
-12923.8
-7464.13
481.205
-12288.1
4012.95
-15527.7
5020.7
-17052.1
8230.47
-17418.9
6744.99
-3529.66
1928.13
-3774.1
2223.8
-311.005
2258.95
4044.62
2298.88
7165.35
2233.77
9434.87
1535.17
12180.6
-55.386
16830.3
-2021.7
21194.3
-3405.14
24655.3
-4639.77
22490
-4888.77
2583.76
-4196.91
-15023.6
-3361.88
-13758.8
-3549.66
668.983
-6855.83
7319.12
-9414.77
7579.63
-9180.48
7996.18
-5901.63
3466.14
-1571.41
38.0559
-4388.33
726.753
-999.703
1506.17
3265.2
1745.71
6925.81
1502.04
9678.53
340.595
13342.1
-1307.7
18478.5
-2796.75
22683.4
-3793.25
25651.8
-4617.88
23314.6
-4318.14
2284.02
-3723.28
-15618.5
-2866.73
-14615.4
-782.621
-1415.13
-2060.5
8596.99
-3658.45
9177.59
-2648.18
6985.91
835.547
-17.5851
-5120.44
-2575.23
-4559
-1560.9
-2014.04
-345.488
2049.79
122.827
6457.5
-319.861
10121.2
-1533.19
14555.4
-2687.96
19633.3
-3546.47
23541.9
-4217.42
26322.7
-4637.04
23734.3
-3768.87
1415.85
-3281.65
-16105.7
-2622.72
-15274.3
294.257
-4332.1
968.116
7923.13
674.596
9471.11
1786.86
5873.65
3274.94
-1505.67
-5476.77
-4478.59
-4633.57
-4068.22
-2424.41
-3223.95
1205.52
-2640.97
5874.51
-2827.1
10307.4
-3409.05
15137.3
-3837.62
20061.9
-4209.35
23913.6
-4667.87
26781.2
-4656.88
23723.3
-3280.34
39.3085
-2851.16
-16534.9
-2310.73
-15814.7
427.628
-7070.47
1867.17
6483.59
2536.5
8801.77
3278.93
5131.21
3339.4
-1566.14
-4843.28
-5900.63
-4927.19
-5621.98
-2703.05
-5273.22
856.761
-4844.77
5446.07
-4723.16
10185.7
-4726.27
15140.5
-4674.87
20010.5
-4803.44
24042.2
-5125.71
27103.5
-4699.13
23296.7
-2981.91
-1677.91
-2521.09
-16995.7
-2025.63
-16310.2
218.788
-9314.89
1671.88
5030.5
2604.33
7869.33
3065.57
4669.97
2799.99
-1300.56
-4318.58
-7138.48
-5536.28
-6480.89
-3360.65
-6191.9
567.77
-5890.23
5144.39
-5636.73
9932.25
-5376.06
14879.8
-5157.37
19791.8
-5278.65
24163.5
-5534.51
27359.4
-4526.05
22288.2
-2773.81
-3430.15
-2344.92
-17424.6
-1850.62
-16804.5
-135.03
-11030.5
1250.1
3645.36
2128.88
6990.56
2329.69
4469.16
2226.18
-1197.05
-4149.2
-8241.24
-7405.78
-7000.31
-6699.12
-6414.73
-6148.61
-6028.58
-6217.83
-6185.76
-4553.66
-2649
-2224.55
-1841.21
-821.271
478.022
1301.8
1520.18
1883.24
-513.404
-14.8813
-410.355
-1503.26
-131.414
-2065.44
151.081
-2025.56
387.73
-1821.91
586.33
-1633.28
717.996
-1482.79
837.335
-1357.88
934.392
-1243.61
1008.43
-1132.3
1058
-1021.69
1081.86
-911.859
1078.43
-803.831
1045.66
-697.986
981.842
-594.745
884.815
-491.953
752.51
-388.37
576.983
-274.232
331.599
-130.052
95.619
1.71884
-16.6011
-196.478
-1305.06
-213.131
-2048.79
-130.433
-2108.26
-24.9966
-1927.34
88.3106
-1746.58
210.986
-1605.47
333.168
-1480.07
445.905
-1356.35
542.221
-1228.61
618.069
-1097.54
670.734
-964.525
698.022
-831.12
697.706
-697.671
667.88
-564.919
606.37
-430.444
512.219
-294.22
385.115
-147.127
214.87
40.1929
310.489
437.846
-454.448
621.67
-1488.89
629.158
-2056.28
616.226
-2095.33
628.19
-1939.31
665.426
-1783.82
715.865
-1655.91
767.085
-1531.29
811.151
-1400.41
844.453
-1261.92
865.229
-1118.32
870.267
-969.563
854.691
-815.545
811.288
-654.268
731.869
-485.501
610.285
-308.861
438.056
-121.992
243.969
46.9597
90.5362
193.624
401.025
657.317
-1111.77
1087.83
-1919.4
1070.13
-2038.58
894.353
-1919.55
751.121
-1796.08
657.477
-1690.18
582.455
-1580.89
501.774
-1450.61
411.03
-1309.67
311.494
-1162.38
205.18
-1012
92.0459
-856.431
-27.1525
-696.348
-147.459
-533.963
-259.738
-373.224
-354.888
-213.714
-414.637
-62.2446
-418.594
50.9141
-315.952
90.9806
85.0733
365.161
-1476.93
502.599
-2056.84
331.005
-1866.98
99.7161
-1688.26
-93.124
-1603.24
-264.652
-1518.65
-434.948
-1410.59
-611.339
-1274.22
-791.585
-1129.42
-974.243
-979.723
-1158.18
-828.066
-1340.3
-674.311
-1513.18
-523.472
-1661.95
-385.196
-1757.37
-277.8
-1744.9
-226.183
-1555.86
-251.292
-1150.53
-354.416
-567.785
-491.762
-482.712
-56.9341
-1419.99
-177.461
-1936.32
-338.53
-1705.91
-495.284
-1531.51
-665.118
-1433.41
-853.349
-1330.42
-1044.95
-1218.99
-1231.28
-1087.89
-1410.03
-950.678
-1582.54
-807.21
-1747.21
-663.398
-1893.86
-527.656
-1999.38
-417.959
-2025.64
-358.938
-1930.07
-373.361
-1684.9
-471.361
-1288.41
-647.78
-783.3
-859.526
-297.562
-977.5
-780.274
-170.037
-1249.96
-176.685
-1929.67
-128.606
-1753.99
-131.113
-1529
-173.544
-1390.97
-230.965
-1273
-278.974
-1170.98
-306.15
-1060.71
-306.914
-949.914
-278.596
-835.528
-220.873
-721.122
-136.098
-612.431
-30.5849
-523.472
87.1575
-476.68
203.986
-490.19
299.124
-566.499
337.65
-686.307
285.118
-806.993
145.73
-838.112
-634.543
-63.814
-1186.14
-7.8344
-1985.65
79.2223
-1841.05
139.533
-1589.31
191.633
-1443.07
241.841
-1323.21
297.651
-1226.79
365.838
-1128.9
451.557
-1035.63
560.594
-944.564
695.318
-855.846
851.44
-768.552
1010.83
-682.86
1138.24
-604.088
1189.96
-541.91
1132.39
-508.937
954.63
-508.542
670.387
-522.751
336.234
-503.959
-298.309
61.8163
-1247.96
112.775
-2036.61
168.205
-1896.48
224.489
-1645.6
290.48
-1509.06
358.049
-1390.78
425.308
-1294.05
490.084
-1193.67
552.224
-1097.77
611.627
-1003.97
668.887
-913.106
725.035
-824.7
780.132
-737.957
828.194
-652.15
854.306
-568.023
832.431
-487.061
737.286
-413.397
552.636
-338.1
291.968
-243.292
-6.34029
171.423
-1419.38
226.868
-2092.05
254.702
-1924.31
295.773
-1686.67
356.122
-1569.41
415.837
-1450.49
477.555
-1355.76
536.811
-1252.93
594.814
-1155.77
647.319
-1056.47
690.348
-956.135
719.269
-853.621
731.014
-749.701
723.731
-644.867
695.548
-539.839
640.698
-432.211
549.262
-321.961
405.795
-194.633
206.574
-44.0706
200.234
258.734
-1678.11
289.634
-2122.95
299.525
-1934.2
341.994
-1729.14
410.95
-1638.37
477.896
-1517.44
553.121
-1430.99
629.845
-1329.65
711.426
-1237.36
788.039
-1133.09
851.996
-1020.09
893.773
-895.398
907.3
-763.228
887.921
-625.488
833.142
-485.061
740.064
-339.132
607.088
-188.985
425.645
-13.1899
212.822
168.753
413.055
245.671
-1923.79
201.356
-2078.64
194.309
-1927.15
224.875
-1759.7
278.264
-1691.76
331.772
-1570.95
401.016
-1500.23
476.863
-1405.5
561.632
-1322.12
637.749
-1209.2
695.005
-1077.35
722.765
-923.158
717.209
-757.672
674.08
-582.358
593.204
-404.183
471.711
-217.639
321.212
-38.4853
195.235
112.788
61.5037
302.486
474.559
92.4474
-2016.23
-27.2712
-1958.92
-76.4694
-1877.95
-112.075
-1724.1
-139.913
-1663.92
-166.184
-1544.67
-184.36
-1482.05
-196.956
-1392.9
-206.614
-1312.46
-222.166
-1193.65
-247.556
-1051.96
-283.144
-887.569
-328.954
-711.862
-384.946
-526.365
-441.628
-347.501
-484.33
-174.936
-506.307
-16.5071
-502.066
108.547
-372.743
173.163
101.816
-50.8533
-1965.38
-156.85
-1852.92
-234.226
-1800.58
-325.157
-1633.17
-415.328
-1573.75
-514.072
-1445.93
-620.066
-1376.06
-733.185
-1279.78
-851.859
-1193.79
-966.346
-1079.16
-1068.93
-949.373
-1152.55
-803.953
-1219.17
-645.242
-1274.86
-470.669
-1320.38
-301.977
-1320.67
-174.649
-1217.1
-120.079
-947.926
-160.626
-486.98
-287.781
-385.164
-43.1311
-1922.25
-85.6289
-1810.42
-128.361
-1757.85
-192.231
-1569.3
-253.024
-1512.95
-328.106
-1370.85
-413.572
-1290.59
-511.266
-1182.09
-613.003
-1092.05
-700.634
-991.532
-758.661
-891.346
-776.523
-786.091
-747.854
-673.91
-670.605
-547.918
-557.816
-414.766
-423.26
-309.204
-265.381
-277.957
-88.899
-337.107
32.3101
-408.99
-352.854
45.3554
-1967.6
61.648
-1826.72
91.4195
-1787.62
117.799
-1595.68
143.19
-1538.34
171.806
-1399.46
194.092
-1312.88
216.032
-1204.03
234.622
-1110.64
259.122
-1016.03
294.645
-926.868
347.117
-838.563
422.982
-749.775
530.642
-655.577
665.836
-549.96
786.894
-430.262
810.852
-301.915
677.833
-204.088
391.585
-122.741
38.7305
26.6299
-1994.23
14.6251
-1814.71
26.9176
-1799.91
58.9921
-1627.75
89.5974
-1568.95
141.73
-1451.6
198.141
-1369.29
269.336
-1275.22
348.639
-1189.94
436.814
-1104.21
530.998
-1021.05
630.199
-937.763
731.475
-851.051
827.609
-751.711
901.87
-624.22
919.062
-447.453
837.28
-220.133
564.753
68.4388
280.338
161.675
319.069
-131.753
-1862.48
-292.926
-1653.54
-415.183
-1677.65
-492.838
-1550.09
-559.889
-1501.9
-593.146
-1418.34
-609.699
-1352.73
-603.488
-1281.43
-579.051
-1214.38
-536.232
-1147.02
-476.369
-1080.91
-399.889
-1014.24
-308.031
-942.908
-205.18
-854.561
-102.309
-727.091
-15.9954
-533.766
38.2011
-274.329
70.2133
36.4276
8.34594
223.543
327.415
-208.923
-1653.56
-463.862
-1398.6
-733.692
-1407.82
-960.178
-1323.61
-1177.21
-1284.87
-1360.73
-1234.82
-1520.82
-1192.64
-1652.44
-1149.82
-1758.27
-1108.55
-1837.84
-1067.45
-1892.14
-1026.62
-1920.98
-985.4
-1921.86
-942.03
-1885.38
-891.042
-1791.01
-821.46
-1604.74
-720.038
-1300.49
-578.571
-863.981
-400.086
-421.68
-218.758
-94.2652
-678.556
-1102.15
-1534.98
-1883.58
-2193.45
-2453.27
-2670.91
-2845.73
-2979.28
-3071.73
-3123.35
-3133.75
-3100.78
-3016.82
-2863.28
-2608.32
-2211.89
-1636.98
-880.735
-678.547
1653.55
-1102.14
1398.59
-1534.96
1407.82
-1883.56
1323.61
-2193.42
1284.86
-2453.24
1234.82
-2670.88
1192.64
-2845.7
1149.82
-2979.26
1108.55
-3071.71
1067.46
-3123.34
1026.63
-3133.75
985.411
-3100.79
942.041
-3016.83
891.041
-2863.26
821.432
-2608.25
719.986
-2211.77
578.524
-1636.85
400.079
-880.669
218.821
94.3311
-208.943
1862.49
-463.907
1653.56
-733.762
1677.68
-960.281
1550.13
-1177.35
1501.93
-1360.9
1418.38
-1521.04
1352.78
-1652.7
1281.48
-1758.58
1214.43
-1838.2
1147.08
-1892.55
1080.98
-1921.45
1014.32
-1922.39
942.976
-1885.94
854.589
-1791.53
727.029
-1605.14
533.591
-1300.67
274.056
-863.94
-36.6492
-421.644
-223.474
-327.312
-131.798
1994.29
-293.024
1814.79
-415.327
1799.98
-493.034
1627.83
-560.133
1569.03
-593.444
1451.69
-610.05
1369.39
-603.896
1275.33
-579.515
1190.05
-536.748
1104.32
-476.928
1021.16
-400.484
937.874
-308.663
851.157
-205.857
751.785
-103.043
624.217
-16.7679
447.32
37.5239
219.772
69.7333
-68.8503
8.05548
-161.792
-319.257
26.6694
1967.63
14.6338
1826.83
26.9327
1787.68
59.0144
1595.75
89.64
1538.41
141.786
1399.55
198.222
1312.95
269.44
1204.11
348.775
1110.72
436.98
1016.11
531.193
926.95
630.414
838.654
731.695
749.877
827.79
655.691
901.928
550.08
918.924
430.325
836.783
301.913
563.945
203.989
279.788
122.368
-39.4686
45.4795
1922.15
61.8329
1810.47
91.6922
1757.82
118.193
1569.26
143.698
1512.91
172.462
1370.78
194.909
1290.51
217.044
1181.98
235.841
1091.93
260.537
991.42
296.213
891.277
348.795
786.076
424.732
673.942
532.415
548.012
667.518
414.979
788.24
309.604
811.614
278.54
678.107
337.498
391.736
408.74
352.267
-42.9575
1965.11
-85.2409
1852.76
-127.788
1800.37
-191.455
1632.92
-252.05
1573.5
-326.917
1445.65
-412.169
1375.76
-509.635
1279.45
-611.137
1193.43
-698.529
1078.81
-756.339
949.087
-774.005
803.743
-745.149
645.087
-667.735
470.598
-554.813
302.058
-420.133
174.924
-262.238
120.646
-86.2866
161.547
33.6992
288.755
385.966
-51.083
2016.19
-157.008
1958.68
-234.435
1877.8
-325.47
1723.96
-415.748
1663.78
-514.64
1544.55
-620.814
1481.93
-734.15
1392.78
-853.043
1312.32
-967.706
1193.48
-1070.39
1051.77
-1154.03
887.384
-1220.6
711.653
-1276.17
526.17
-1321.47
347.356
-1321.36
174.813
-1217.22
16.514
-947.359
-108.317
-486.28
-172.323
-100.314
92.0433
1924.15
-27.774
2078.5
-77.1063
1927.13
-112.899
1759.75
-140.95
1691.83
-167.436
1571.03
-185.852
1500.35
-198.703
1405.63
-208.638
1322.25
-224.445
1209.28
-250.036
1077.36
-285.757
923.105
-331.649
757.544
-387.667
582.188
-444.327
404.014
-487.065
217.549
-509.244
38.6926
-504.552
-113.01
-374.1
-302.776
-474.414
245.567
1678.58
201.054
2123.02
193.91
1934.28
224.379
1729.28
277.654
1638.56
331.059
1517.63
400.2
1431.21
475.946
1329.89
560.592
1237.61
636.556
1133.32
693.641
1020.28
721.23
895.518
715.511
763.264
672.265
625.435
591.364
484.916
470.032
338.882
320.118
188.607
194.47
12.6394
60.9083
-169.213
-413.505
258.948
1419.63
289.76
2092.2
299.576
1924.46
342.018
1686.84
410.965
1569.61
477.905
1450.69
553.143
1355.97
629.89
1253.14
711.504
1156
788.139
1056.68
852.106
956.314
893.876
853.747
907.383
749.756
887.979
644.839
833.174
539.72
740.059
431.998
607.022
321.643
425.462
194.2
212.717
43.5317
-200.788
171.719
1247.91
227.164
2036.76
254.915
1896.71
295.948
1645.81
356.289
1509.27
415.996
1390.98
477.718
1294.25
536.988
1193.87
595.023
1097.96
647.566
1004.14
690.62
913.26
719.532
824.834
731.218
738.071
723.811
652.246
695.445
568.086
640.428
487.016
548.905
413.166
405.469
337.637
206.379
242.622
5.59081
62.1421
1185.77
113.111
1985.79
168.434
1841.38
224.633
1589.61
290.572
1443.33
358.078
1323.47
425.261
1227.06
489.928
1129.2
551.917
1035.97
611.111
944.944
668.108
856.262
723.935
769.004
778.698
683.307
826.469
604.473
852.457
542.096
830.632
508.84
735.745
508.052
551.563
521.819
291.381
502.804
296.972
-63.5799
1249.35
-7.60895
1929.82
79.4194
1754.36
139.756
1529.27
191.972
1391.11
242.361
1273.08
298.34
1171.08
366.645
1060.9
452.396
950.217
561.369
835.971
695.92
721.71
851.749
613.174
1010.74
524.313
1137.72
477.495
1189.21
490.606
1131.74
566.31
954.147
685.644
670.243
805.723
336.376
836.67
633.348
-169.181
1418.53
-175.457
1936.09
-126.772
1705.67
-128.384
1530.88
-169.872
1432.6
-226.339
1329.55
-273.403
1218.15
-299.624
1087.12
-299.409
949.999
-270.077
806.637
-211.347
662.977
-125.639
527.462
-19.4088
418.079
98.5888
359.493
214.794
374.397
308.462
472.637
344.588
649.516
289.077
861.232
147.231
978.514
780.579
-56.4608
1474.99
-176.516
2056.14
-337.475
1866.63
-494.052
1687.46
-663.541
1602.08
-851.428
1517.43
-1042.68
1409.4
-1228.62
1273.06
-1406.9
1128.28
-1578.84
978.579
-1742.84
826.972
-1888.73
673.355
-1993.43
522.777
-2018.85
384.913
-1922.6
278.144
-1677.41
227.446
-1281.57
253.677
-778.275
357.936
-295.479
495.717
485.101
364.81
1110.17
503.544
1917.41
332.339
2037.83
100.278
1919.51
-93.581
1795.94
-266.026
1689.88
-437.124
1580.49
-614.255
1450.18
-795.22
1309.24
-978.59
1161.95
-1163.22
1011.6
-1345.96
856.1
-1519.35
696.164
-1668.43
533.986
-1763.48
373.199
-1749.37
213.333
-1557.56
61.866
-1149.42
-50.205
-565.966
-87.7345
-80.8654
655.783
454.39
1086.54
1486.65
1069.48
2054.88
893.528
2095.47
749.588
1939.88
655.133
1784.33
579.289
1656.34
497.792
1531.68
406.281
1400.75
306.065
1262.16
199.202
1118.46
85.7186
969.582
-33.5309
815.412
-153.45
653.903
-265.257
485.002
-360.397
308.471
-420.105
121.57
-423.639
-46.674
-319.222
-192.154
-400.087
436.149
18.2405
618.712
1304.09
625.558
2048.04
612.059
2108.97
623.436
1928.5
660.42
1747.35
711.276
1605.48
763.528
1479.43
808.922
1355.35
843.648
1227.43
865.843
1096.26
872.228
963.197
857.857
829.782
815.377
696.382
736.607
563.771
615.476
429.602
443.142
293.904
248.38
148.088
92.8962
-36.6722
-307.191
3.72607
14.5139
-193.628
1501.44
-207.697
2062.11
-120.763
2022.03
-10.5886
1818.33
107.601
1629.16
235.1
1477.98
360.793
1353.74
476.2
1239.95
574.688
1128.95
652.262
1018.69
706.091
909.367
733.828
802.045
733.085
697.125
701.826
595.03
637.669
493.759
539.662
391.911
407.209
280.54
230.749
139.787
-76.4415
-517.112
-426.933
-156.224
122.807
358.898
558.745
700.973
831.934
939.045
1021.73
1078.62
1108.35
1109.28
1079.34
1016.75
919.146
784.286
603.764
351.01
)
;

boundaryField
{
    outletWall
    {
        type            calculated;
        value           nonuniform List<scalar> 
60
(
7184.25
-10732
-20592.2
-25101.6
-22408
-9018.8
13652.3
19247.1
17187.3
14235.5
8933.94
-180.249
4592.92
-1767.63
-5863.03
-5538.08
-1216.69
1704.4
1181.54
1429.24
8868.46
7747.57
6194.25
4553.16
2745.9
576.176
-1325.11
-2721.61
-3655.39
-4223.18
-4486.14
-4521.77
-4391.77
-4106.89
-3707.72
-3330.44
-3093.34
-2910.98
-2702.05
-2117.13
3297.13
-4316.15
-1560.12
4250.78
6166.78
2346.07
-12050.4
-17187.8
-17849.1
-5334.82
20656.1
27327.3
24352.7
19671.8
14613.7
9647.86
4843.21
162.298
-4196.12
-6163.49
)
;
    }
    fineWalls
    {
        type            calculated;
        value           uniform 0;
    }
    fineFrontAndBack
    {
        type            calculated;
        value           nonuniform List<scalar> 
960
(
-2.36282e-12
-9.17844e-12
-1.80367e-12
-1.98128e-12
-1.3863e-11
-3.45017e-12
-3.43236e-12
-2.93134e-12
-9.31429e-12
-2.9919e-12
-4.70748e-12
-2.4468e-11
-3.14166e-12
-1.60067e-12
-7.7917e-12
-1.22741e-12
-6.96537e-13
-2.53386e-12
-2.89178e-13
-1.39047e-13
-6.18864e-15
-4.29605e-14
-1.57842e-13
-3.05352e-13
-4.56159e-13
-6.25256e-13
-1.59062e-11
-6.77541e-13
-6.90196e-13
-6.86684e-13
-6.67297e-13
-6.44277e-13
-6.2231e-13
-6.01059e-13
-5.8075e-13
-5.32254e-13
-4.28303e-13
-3.25246e-13
-1.89331e-13
-2.88282e-13
7.02833e-12
2.49865e-12
2.69001e-12
2.61824e-12
2.78266e-11
1.82049e-11
2.51795e-11
2.71454e-11
1.60584e-10
3.55319e-11
3.75684e-11
4.06846e-11
-2.30803e-13
-4.22054e-13
-9.80471e-13
-1.03083e-11
-2.15367e-12
-1.99969e-12
-1.40613e-12
3.90793e-12
7.63873e-13
5.82105e-13
6.78725e-13
7.40516e-13
7.94584e-13
8.14608e-13
8.19336e-13
8.02284e-13
7.66469e-13
7.13243e-13
6.37365e-13
5.35424e-13
4.20224e-13
2.95801e-13
5.63848e-14
-1.60921e-13
-2.66416e-13
-3.77018e-13
-4.07464e-13
-3.85708e-13
-1.17752e-12
-5.69582e-13
2.00244e-12
1.60154e-12
1.40922e-12
1.18674e-13
-5.46428e-13
-6.94775e-13
-4.84923e-12
3.42675e-13
1.42671e-12
1.25464e-12
-2.3578e-12
-3.87375e-12
-3.76216e-12
-2.28874e-11
-3.99818e-12
-3.1199e-12
-1.72693e-11
-5.89483e-12
1.31644e-11
1.3224e-11
1.33396e-11
1.24842e-11
1.27463e-11
1.1144e-11
4.70782e-12
-2.07186e-12
-1.50885e-11
-9.08201e-12
9.26245e-12
3.37497e-11
5.06169e-11
5.20166e-11
4.23233e-11
2.42929e-11
-3.87003e-12
-2.28729e-11
-3.17868e-11
1.33311e-11
1.33386e-11
1.34507e-11
1.26947e-11
1.27464e-11
1.14929e-11
5.89119e-12
-2.03022e-12
-1.49154e-11
2.34158e-12
3.37171e-11
5.98098e-11
6.67002e-11
5.52527e-11
3.93617e-11
2.64474e-11
-1.15254e-12
-2.13896e-11
-3.08196e-11
1.28753e-11
1.27697e-11
1.30558e-11
1.27736e-11
1.27475e-11
1.18273e-11
6.90739e-12
-4.43326e-12
-1.37911e-11
1.46842e-11
4.89358e-11
6.54025e-11
6.21061e-11
4.737e-11
3.15095e-11
3.06728e-11
2.40048e-12
-1.9631e-11
-3.22837e-11
1.08818e-11
1.05494e-11
1.15615e-11
1.26131e-11
1.27474e-11
1.21011e-11
7.49229e-12
-7.2251e-12
-1.24212e-11
2.52904e-11
5.72136e-11
6.08616e-11
4.98291e-11
3.64244e-11
2.58397e-11
2.98431e-11
4.31345e-12
-1.75166e-11
-3.17233e-11
6.97953e-12
6.32458e-12
8.39454e-12
1.19783e-11
1.27708e-11
1.23871e-11
7.87326e-12
-9.14641e-12
-1.21009e-11
2.61866e-11
5.25402e-11
4.20462e-11
2.68697e-11
2.03379e-11
1.7698e-11
2.03929e-11
6.10253e-12
-1.51711e-11
-3.15705e-11
2.1811e-12
1.40208e-12
3.96119e-12
1.0483e-11
1.29e-11
1.2869e-11
8.81306e-12
-9.80041e-12
-1.26032e-11
1.92393e-11
3.50019e-11
1.424e-11
8.58265e-14
3.22459e-12
1.01651e-11
1.16903e-11
7.15779e-12
-1.45773e-11
-3.40219e-11
-2.90779e-12
-3.5028e-12
-1.01435e-12
7.71279e-12
1.28394e-11
1.35943e-11
1.04964e-11
-8.24412e-12
-1.34045e-11
1.04611e-11
1.39193e-11
-8.8723e-12
-1.8291e-11
-9.53847e-12
3.74639e-12
4.18166e-12
3.42355e-12
-1.39733e-11
-2.48717e-11
-7.8788e-12
-8.24614e-12
-6.05572e-12
3.39478e-12
1.13647e-11
1.34439e-11
1.19618e-11
-5.12966e-12
-1.41895e-11
3.48019e-12
2.88829e-12
-1.4587e-11
-2.02133e-11
-1.471e-11
-4.98079e-13
-5.75691e-12
-9.7686e-12
-1.56271e-11
-1.4341e-11
-1.16196e-11
-1.18241e-11
-1.03247e-11
-2.09847e-12
7.10918e-12
1.0806e-11
1.06223e-11
-2.92527e-12
-1.4768e-11
-1.21465e-12
1.32129e-12
-8.65692e-12
-1.30454e-11
-1.47142e-11
-1.29352e-12
-4.44281e-12
-2.00587e-11
-1.79819e-11
-1.68876e-11
-1.33497e-11
-1.33775e-11
-1.2832e-11
-7.47716e-12
5.16757e-13
5.20917e-12
5.70405e-12
-2.75601e-12
-1.51112e-11
-4.37149e-12
1.09875e-12
-4.67422e-12
-8.44628e-12
-1.31205e-11
-7.21936e-13
9.05411e-12
-9.00832e-12
-1.39154e-11
-1.40353e-12
-1.36418e-11
-1.35078e-11
-1.3591e-11
-1.13912e-11
-6.12877e-12
-1.44674e-12
3.26067e-12
-3.9582e-12
-1.53216e-11
-6.28202e-12
1.45139e-12
-3.41723e-12
-7.05186e-12
-1.00162e-11
-1.61332e-12
1.20299e-11
7.36413e-12
8.77848e-12
7.0387e-11
-1.33618e-11
-1.30518e-11
-1.33322e-11
-1.33596e-11
-1.06086e-11
-6.42125e-12
1.02105e-13
-6.31585e-12
-1.53871e-11
-7.52541e-12
-1.97423e-13
-4.87244e-12
-5.32997e-12
-6.7621e-12
-1.85384e-12
1.09532e-11
2.02689e-11
2.8207e-11
3.931e-11
-1.29157e-11
-1.22288e-11
-1.2457e-11
-1.31688e-11
-1.16959e-11
-8.42679e-12
-2.88183e-12
-9.24868e-12
-1.52786e-11
-8.64642e-12
-2.06082e-12
-4.1144e-12
-3.6616e-12
-4.39132e-13
7.57259e-12
1.48677e-11
1.9841e-11
2.00957e-11
1.18755e-11
-1.24239e-11
-1.0622e-11
-1.04975e-11
-1.0352e-11
-9.43444e-12
-7.81729e-12
-5.2644e-12
-1.20479e-11
-1.50216e-11
-9.88103e-12
-3.94816e-12
-3.11947e-12
-3.32352e-12
-2.32224e-12
9.01283e-12
1.512e-11
1.35136e-11
-3.78787e-12
-3.23612e-11
-1.19993e-11
-8.2125e-12
-6.95933e-12
-5.86336e-12
-5.90143e-12
-6.53557e-12
-7.93006e-12
-1.40417e-11
-1.47193e-11
-1.123e-11
-5.73318e-12
-2.31312e-12
-3.33351e-12
-5.9229e-12
5.30582e-12
1.20612e-11
1.17489e-11
-1.92778e-12
-4.73716e-12
-1.19872e-11
-9.16379e-12
-4.0162e-12
-3.40129e-12
-4.64401e-12
-7.3193e-12
-1.09398e-11
-1.49345e-11
-1.4513e-11
-1.26218e-11
-7.06049e-12
-1.17842e-12
-3.49654e-12
-6.8774e-12
-6.67571e-13
4.97478e-12
7.32796e-12
2.78626e-12
-5.46289e-12
-1.19074e-11
-1.19849e-11
-8.01365e-12
-6.37521e-12
-7.54386e-12
-1.02481e-11
-1.31436e-11
-1.4843e-11
-1.4506e-11
-1.40359e-11
-7.71866e-12
1.00702e-14
-3.43265e-12
-6.82296e-12
-4.98134e-12
-1.77769e-12
-2.17702e-13
-5.5491e-12
-4.01958e-12
-1.16554e-11
-1.26156e-11
-1.28325e-11
-1.12176e-11
-1.14998e-11
-1.28149e-11
-1.39784e-11
-1.43365e-11
-1.48469e-11
-1.53812e-11
-7.54343e-12
4.00843e-13
-3.07666e-12
-6.68308e-12
-6.64408e-12
-5.10992e-12
-4.54207e-12
-8.7565e-12
-7.9222e-12
-1.23835e-11
-1.07364e-11
-1.33487e-11
-1.3292e-11
-1.32639e-11
-1.3425e-11
-1.33818e-11
-1.34845e-11
-1.5345e-11
-1.68149e-11
-6.9006e-12
5.15779e-14
-2.67709e-12
-6.54569e-12
-6.95316e-12
-5.98897e-12
-6.04335e-12
-9.24574e-12
-1.22484e-11
-1.41672e-11
-9.62614e-12
-1.08774e-11
-1.18157e-11
-1.2022e-11
-1.21792e-11
-1.25966e-11
-1.42699e-11
-1.77336e-11
-1.80454e-11
-5.73045e-12
-2.39582e-13
-2.40526e-12
-6.44174e-12
-6.93443e-12
-5.92265e-12
-7.12451e-12
-1.12847e-11
-1.35692e-11
2.36282e-12
9.17844e-12
1.80367e-12
1.98128e-12
1.3863e-11
3.45017e-12
3.43236e-12
2.93134e-12
9.31429e-12
2.9919e-12
4.70748e-12
2.4468e-11
3.14166e-12
1.60067e-12
7.7917e-12
1.22741e-12
6.96537e-13
2.53386e-12
2.89178e-13
1.39047e-13
6.18864e-15
4.29605e-14
1.57842e-13
3.05352e-13
4.56159e-13
6.25256e-13
1.59062e-11
6.77541e-13
6.90196e-13
6.86684e-13
6.67297e-13
6.44277e-13
6.2231e-13
6.01059e-13
5.8075e-13
5.32254e-13
4.28303e-13
3.25246e-13
1.89331e-13
2.88282e-13
-7.02833e-12
-2.49865e-12
-2.69001e-12
-2.61824e-12
-2.78266e-11
-1.82049e-11
-2.51795e-11
-2.71454e-11
-1.60584e-10
-3.55319e-11
-3.75684e-11
-4.06846e-11
2.30803e-13
4.22054e-13
9.80471e-13
1.03083e-11
2.15367e-12
1.99969e-12
1.40613e-12
-3.90793e-12
-7.63873e-13
-5.82105e-13
-6.78725e-13
-7.40516e-13
-7.94584e-13
-8.14608e-13
-8.19336e-13
-8.02284e-13
-7.66469e-13
-7.13243e-13
-6.37365e-13
-5.35424e-13
-4.20224e-13
-2.95801e-13
-5.63848e-14
1.60921e-13
2.66416e-13
3.77018e-13
4.07464e-13
3.85708e-13
1.17752e-12
5.69582e-13
-2.00244e-12
-1.60154e-12
-1.40922e-12
-1.18674e-13
5.46428e-13
6.94775e-13
4.84923e-12
-3.42675e-13
-1.42671e-12
-1.25464e-12
2.3578e-12
3.87375e-12
3.76216e-12
2.28874e-11
3.99818e-12
3.1199e-12
1.72693e-11
5.89483e-12
-1.31644e-11
-1.3224e-11
-1.33396e-11
-1.24842e-11
-1.27463e-11
-1.1144e-11
-4.70782e-12
2.07186e-12
1.50885e-11
9.08201e-12
-9.26245e-12
-3.37497e-11
-5.06169e-11
-5.20166e-11
-4.23233e-11
-2.42929e-11
3.87003e-12
2.28729e-11
3.17868e-11
-1.33311e-11
-1.33386e-11
-1.34507e-11
-1.26947e-11
-1.27464e-11
-1.14929e-11
-5.89119e-12
2.03022e-12
1.49154e-11
-2.34158e-12
-3.37171e-11
-5.98098e-11
-6.67002e-11
-5.52527e-11
-3.93617e-11
-2.64474e-11
1.15254e-12
2.13896e-11
3.08196e-11
-1.28753e-11
-1.27697e-11
-1.30558e-11
-1.27736e-11
-1.27475e-11
-1.18273e-11
-6.90739e-12
4.43326e-12
1.37911e-11
-1.46842e-11
-4.89358e-11
-6.54025e-11
-6.21061e-11
-4.737e-11
-3.15095e-11
-3.06728e-11
-2.40048e-12
1.9631e-11
3.22837e-11
-1.08818e-11
-1.05494e-11
-1.15615e-11
-1.26131e-11
-1.27474e-11
-1.21011e-11
-7.49229e-12
7.2251e-12
1.24212e-11
-2.52904e-11
-5.72136e-11
-6.08616e-11
-4.98291e-11
-3.64244e-11
-2.58397e-11
-2.98431e-11
-4.31345e-12
1.75166e-11
3.17233e-11
-6.97953e-12
-6.32458e-12
-8.39454e-12
-1.19783e-11
-1.27708e-11
-1.23871e-11
-7.87326e-12
9.14641e-12
1.21009e-11
-2.61866e-11
-5.25402e-11
-4.20462e-11
-2.68697e-11
-2.03379e-11
-1.7698e-11
-2.03929e-11
-6.10253e-12
1.51711e-11
3.15705e-11
-2.1811e-12
-1.40208e-12
-3.96119e-12
-1.0483e-11
-1.29e-11
-1.2869e-11
-8.81306e-12
9.80041e-12
1.26032e-11
-1.92393e-11