/*--------------------------------*- C++ -*----------------------------------*\
| =========                 |                                                 |
| \\      /  F ield         | OpenFOAM: The Open Source CFD Toolbox           |
|  \\    /   O peration     | Version:  4.1                                   |
|   \\  /    A nd           | Web:      www.OpenFOAM.org                      |
|    \\/     M anipulation  |                                                 |
\*---------------------------------------------------------------------------*/
FoamFile
{
    version     2.0;
    format      ascii;
    class       volVectorField;
    location    "23";
    object      U;
}
// * * * * * * * * * * * * * * * * * * * * * * * * * * * * * * * * * * * * * //

dimensions      [0 1 -1 0 0 0 0];

internalField   nonuniform List<vector> 
1280
(
(-1.70754e-15 -1.08695 -1.82974)
(-1.55997e-15 -0.190577 -1.66579)
(-1.30346e-15 -0.700778 -1.31694)
(-1.43182e-15 -0.306878 -1.3563)
(-2.35615e-15 0.137267 -1.72792)
(-2.49335e-15 -0.0186725 -1.18433)
(-2.48048e-15 0.300112 -1.28624)
(-2.14703e-15 0.473586 -1.28815)
(-1.57688e-15 1.01269 -1.83321)
(-2.16319e-15 0.912374 -1.42992)
(-3.38553e-15 1.13649 -1.23579)
(-4.28967e-15 1.88782 -1.98498)
(-2.28678e-15 1.73819 -1.76894)
(-1.18953e-15 2.04126 -1.71367)
(-1.48104e-15 2.92571 -2.88536)
(-8.87019e-16 2.7865 -2.47386)
(-5.03369e-16 3.23523 -2.3739)
(-4.30655e-16 4.267 -4.05493)
(-2.08981e-16 4.05493 -3.21083)
(-1.00485e-16 4.36759 -3.68353)
(-2.53893e-17 4.65487 -2.82831)
(-1.76248e-16 4.77349 2.52087)
(-6.47555e-16 4.63724 7.21134)
(-1.25273e-15 4.75601 9.61603)
(-1.87142e-15 4.94472 10.6364)
(-2.56515e-15 5.32013 11.1633)
(-3.35309e-15 3.87308 8.94246)
(-2.77966e-15 8.04297 13.9655)
(-2.83157e-15 7.9701 13.7849)
(-2.81717e-15 8.021 13.3494)
(-2.73763e-15 8.02694 12.8346)
(-2.64319e-15 8.00761 12.3426)
(-2.55306e-15 7.99949 11.9553)
(-2.46588e-15 7.98633 11.7219)
(-2.38256e-15 7.96751 11.6453)
(-2.18361e-15 7.91445 11.6614)
(-1.75714e-15 7.86481 11.7104)
(-1.33434e-15 7.73599 11.6658)
(-7.76742e-16 7.70099 11.758)
(-1.18269e-15 7.40856 11.5332)
(1.22338e-15 8.00434 13.044)
(2.00695e-15 4.2422 9.10262)
(2.16065e-15 3.24812 9.12445)
(2.18295e-15 2.19946 9.40361)
(4.692e-15 0.63278 7.03795)
(1.46224e-14 0.078794 -0.814401)
(2.02245e-14 -0.2507 -1.75543)
(2.18035e-14 0.2618 -2.86031)
(3.31143e-14 -0.19736 -4.0117)
(3.08258e-14 0.0392657 -3.88266)
(2.96091e-14 0.375785 -4.18276)
(7.08175e-15 0.660836 0.912929)
(-1.85384e-16 -0.856155 5.15395)
(-3.38999e-16 -1.35747 5.06451)
(-7.87527e-16 -2.03819 5.66416)
(-1.7943e-15 -3.12069 9.88191)
(-1.70767e-15 -4.57348 9.81116)
(-1.60617e-15 -5.8016 9.94426)
(-1.12942e-15 -6.87995 9.9404)
(6.42465e-16 -10.4523 13.4377)
(3.13384e-15 -8.54982 11.2957)
(2.38812e-15 -8.88097 11.4177)
(2.78451e-15 -8.87963 11.2766)
(3.03801e-15 -9.0132 11.2435)
(3.25983e-15 -9.04406 11.1262)
(3.34198e-15 -9.08764 11.0454)
(3.36138e-15 -9.0899 11.0613)
(3.29142e-15 -9.08798 11.2302)
(3.14449e-15 -9.0772 11.5472)
(2.92612e-15 -9.0706 11.965)
(2.61483e-15 -9.04515 12.4065)
(2.19661e-15 -8.99168 12.7773)
(1.724e-15 -8.97798 12.9269)
(6.23559e-17 -5.01307 7.72865)
(2.31322e-16 -5.5214 11.2844)
(-6.6019e-16 -5.15199 10.9504)
(-1.09299e-15 -4.92101 10.1732)
(-1.54674e-15 -4.78357 8.05923)
(-1.67165e-15 -4.90991 3.63713)
(-1.58239e-15 -4.81509 -1.62855)
(-8.57216e-16 -4.57207 -2.68841)
(-4.11622e-16 -4.41707 -2.26012)
(3.40333e-16 -4.79906 -3.10743)
(1.15739e-15 -3.82745 -1.79663)
(1.01841e-15 -3.39969 -2.09055)
(2.75953e-16 -3.73497 -2.80109)
(-3.94889e-16 -2.82246 -1.77548)
(-4.14495e-16 -2.446 -2.06776)
(-4.73764e-16 -2.6131 -2.87144)
(6.04324e-17 -1.67455 -1.81846)
(8.81237e-16 -1.3699 -2.15271)
(1.41174e-15 -1.45239 -3.07557)
(-9.8716e-16 -0.400024 -1.91342)
(-2.79946e-15 -0.269667 -2.11561)
(-2.71882e-15 0.267181 -2.15061)
(-3.88994e-15 0.022806 -3.23981)
(-2.88938e-15 0.991649 -2.43738)
(-2.1063e-15 1.60396 -1.91609)
(-3.14772e-15 0.95898 -2.56546)
(-4.26004e-15 2.3836 -3.26023)
(1.46271e-15 0.477831 -1.76414)
(1.46933e-15 0.388155 -1.86482)
(1.48218e-15 0.559959 -1.66418)
(1.38713e-15 -0.441671 -1.31083)
(1.41625e-15 -1.86649 -1.47489)
(1.23822e-15 -1.97072 -1.4737)
(5.23092e-16 -0.65901 -1.45229)
(-2.30207e-16 1.47875 -0.648151)
(-1.6765e-15 -0.231903 0.00499348)
(-1.00911e-15 2.92691 0.599218)
(1.02916e-15 4.69885 1.57222)
(3.74997e-15 5.69963 2.47637)
(5.6241e-15 6.41588 2.81082)
(5.77962e-15 4.73464 2.18866)
(4.70259e-15 -2.51405 -1.37951)
(2.69921e-15 -7.28233 -2.67389)
(-4.30003e-16 -8.29022 -3.8645)
(-2.54143e-15 -6.86358 -4.09219)
(-3.53186e-15 -3.6603 -3.89408)
(1.48123e-15 0.51228 -2.25405)
(1.48207e-15 0.360666 -2.35006)
(1.49452e-15 0.339902 -2.15487)
(1.41053e-15 -0.44171 -1.42368)
(1.41627e-15 -1.76977 -1.45114)
(1.27699e-15 -1.96854 -1.41709)
(6.54577e-16 -0.802661 -1.38228)
(-2.2558e-16 0.948913 -0.181194)
(-1.65726e-15 -0.290875 0.378868)
(2.60176e-16 2.31467 1.76341)
(3.74635e-15 4.07348 3.29775)
(6.64553e-15 5.27895 4.45839)
(7.41113e-15 6.58098 4.85647)
(6.13919e-15 5.96501 3.95063)
(4.37352e-15 -1.74012 -0.528479)
(2.9386e-15 -6.87938 -2.40189)
(-1.2806e-16 -7.94466 -3.3696)
(-2.37662e-15 -6.8612 -3.8091)
(-3.4244e-15 -4.04525 -3.67281)
(1.43059e-15 0.529143 -2.42855)
(1.41886e-15 0.339991 -2.48151)
(1.45065e-15 0.178925 -2.36109)
(1.41929e-15 -0.673774 -1.59088)
(1.41639e-15 -1.81577 -1.4264)
(1.31415e-15 -2.02614 -1.30506)
(7.67488e-16 -1.04703 -1.23053)
(-4.92585e-16 0.529426 0.180431)
(-1.53234e-15 -0.866386 0.921406)
(1.63158e-15 1.7448 2.86598)
(5.43732e-15 3.57503 4.58259)
(7.26694e-15 4.99464 5.7154)
(6.90068e-15 6.69903 6.13959)
(5.26334e-15 6.74295 5.37857)
(3.50105e-15 -0.0545223 1.76079)
(3.40809e-15 -6.18256 -1.7786)
(2.6672e-16 -7.55495 -2.47721)
(-2.18122e-15 -6.75415 -3.18045)
(-3.58708e-15 -4.08799 -3.36767)
(1.20909e-15 0.542956 -2.58043)
(1.17216e-15 0.315921 -2.61746)
(1.28461e-15 0.00926163 -2.50067)
(1.40146e-15 -0.888621 -1.77928)
(1.41637e-15 -1.89821 -1.41898)
(1.34457e-15 -2.10602 -1.1474)
(8.32476e-16 -1.27316 -1.00783)
(-8.02789e-16 -0.0540834 0.512639)
(-1.38013e-15 -1.43195 1.37735)
(2.81005e-15 1.00473 3.83666)
(6.35707e-15 2.96132 5.8474)
(6.7624e-15 4.65139 6.9411)
(5.53656e-15 6.79083 7.41425)
(4.04715e-15 7.48809 6.86978)
(2.87107e-15 1.81847 4.0529)
(3.3159e-15 -5.41128 -0.656459)
(4.79272e-16 -7.18053 -1.14543)
(-1.94629e-15 -6.55836 -2.14301)
(-3.52482e-15 -4.04265 -2.85594)
(7.75503e-16 0.556409 -2.77724)
(7.02731e-16 0.285819 -2.82295)
(9.32727e-16 -0.14814 -2.64504)
(1.33092e-15 -1.11442 -2.01551)
(1.41897e-15 -2.04984 -1.51004)
(1.37634e-15 -2.2389 -1.02882)
(8.74807e-16 -1.53108 -0.745441)
(-1.01627e-15 -0.639298 0.670972)
(-1.34454e-15 -2.08897 1.64612)
(2.90962e-15 0.02662 4.36144)
(5.83781e-15 2.3149 6.76177)
(4.6718e-15 4.33141 7.57094)
(2.98552e-15 6.79475 7.979)
(2.25977e-15 8.01413 7.88854)
(1.96645e-15 3.36318 6.20365)
(2.26588e-15 -4.50214 1.24711)
(6.78059e-16 -6.75584 0.322028)
(-1.68568e-15 -6.11046 -0.786577)
(-3.50783e-15 -3.63264 -2.18031)
(2.42344e-16 0.573792 -3.09049)
(1.55786e-16 0.239805 -3.16602)
(4.40132e-16 -0.305338 -2.89408)
(1.16477e-15 -1.34472 -2.31159)
(1.43333e-15 -2.27382 -1.77634)
(1.42989e-15 -2.45643 -1.12158)
(9.79228e-16 -1.83887 -0.603765)
(-1.08893e-15 -1.1635 0.763641)
(-1.40036e-15 -2.79053 1.75372)
(2.1377e-15 -1.1047 4.37722)
(3.88911e-15 1.72321 7.00502)
(1.58222e-15 4.11119 7.2887)
(9.53628e-18 6.69887 7.53467)
(3.58288e-16 8.19278 8.24027)
(1.12945e-15 4.56463 8.1687)
(1.29893e-15 -3.28723 3.80093)
(7.9531e-16 -6.15131 2.05589)
(-1.6197e-15 -5.7387 1.07455)
(-3.78021e-15 -3.20184 -1.79151)
(-3.23087e-16 0.600322 -3.42163)
(-3.892e-16 0.185185 -3.52621)
(-1.12706e-16 -0.476962 -3.21243)
(8.56976e-16 -1.5611 -2.63308)
(1.4266e-15 -2.5122 -2.17654)
(1.51048e-15 -2.74298 -1.52365)
(1.16627e-15 -2.22487 -0.826885)
(-9.16014e-16 -1.66933 0.662449)
(-1.48939e-15 -3.45658 1.7353)
(1.16234e-15 -2.20334 4.07438)
(1.54658e-15 1.27293 6.49976)
(-9.85811e-16 4.01691 6.24482)
(-2.03233e-15 6.42629 6.33049)
(-1.05983e-15 7.82528 8.05295)
(4.16266e-16 5.11727 9.82985)
(4.64629e-16 -2.42157 6.42929)
(3.80394e-16 -5.48862 3.91594)
(-1.55259e-15 -4.56395 2.50791)
(-2.76353e-15 -1.36475 -0.63646)
(-8.75422e-16 0.630808 -3.6568)
(-9.16238e-16 0.131481 -3.78362)
(-6.72857e-16 -0.649704 -3.49131)
(3.77197e-16 -1.75548 -2.93208)
(1.26275e-15 -2.70566 -2.58577)
(1.49376e-15 -3.02043 -2.09238)
(1.32909e-15 -2.6822 -1.41578)
(-5.69963e-16 -2.23956 0.290148)
(-1.57661e-15 -4.08952 1.64542)
(3.86687e-16 -3.16963 3.65255)
(3.20921e-16 1.0181 5.80851)
(-1.62078e-15 4.05172 5.29441)
(-2.24592e-15 5.97736 5.27196)
(-1.63444e-15 6.90504 7.78613)
(-5.53421e-17 5.22444 11.1134)
(-6.39657e-16 -1.13497 8.56937)
(-1.0854e-15 -4.48286 5.17587)
(-1.73635e-15 -4.14786 4.44519)
(-1.59344e-15 -5.90368 6.9026)
(-1.29107e-15 0.666477 -3.76195)
(-1.31379e-15 0.0856841 -3.91933)
(-1.14719e-15 -0.803198 -3.65442)
(-2.33163e-16 -1.91941 -3.1502)
(7.89908e-16 -2.83788 -2.8995)
(1.20067e-15 -3.22999 -2.57641)
(1.18026e-15 -3.15634 -2.04305)
(-3.2503e-16 -2.924 -0.211078)
(-1.64089e-15 -4.74066 1.55469)
(-1.34961e-16 -4.01588 3.29462)
(1.4681e-16 0.818269 5.42785)
(-9.6188e-16 4.12633 5.04508)
(-1.44949e-15 5.44217 4.90738)
(-1.63491e-15 5.60013 7.72224)
(-1.43725e-16 4.65883 12.0162)
(-4.93645e-16 0.064504 11.6852)
(-2.22874e-15 -3.60995 8.89058)
(-1.99799e-15 -4.92552 9.3524)
(-1.8764e-15 -5.61263 10.9094)
(-1.4833e-15 0.711051 -3.72765)
(-1.48639e-15 0.0466014 -3.93735)
(-1.42578e-15 -0.940771 -3.67751)
(-8.30796e-16 -2.05461 -3.22573)
(5.74175e-17 -2.92702 -3.03992)
(5.78797e-16 -3.38028 -2.80217)
(5.25453e-16 -3.60728 -2.3909)
(-3.06223e-16 -3.69901 -0.575762)
(-1.67902e-15 -5.43808 1.52105)
(-4.85722e-16 -4.80355 3.07069)
(1.22083e-16 0.495316 5.28954)
(-7.01246e-16 4.17781 5.14012)
(-9.38476e-16 4.92257 4.77594)
(-1.45783e-15 4.16921 7.5312)
(-6.70485e-17 3.40322 12.0181)
(1.00601e-15 -0.272867 13.6404)
(-1.00092e-15 -3.84706 12.5788)
(-1.54616e-15 -5.46646 11.2469)
(-1.55948e-16 -4.85303 8.28291)
(-1.51576e-15 0.770119 -3.50193)
(-1.50087e-15 0.017669 -3.80133)
(-1.51012e-15 -1.06346 -3.54107)
(-1.26569e-15 -2.16912 -3.09573)
(-6.80975e-16 -3.00026 -2.9407)
(-1.60749e-16 -3.5062 -2.72233)
(4.12121e-16 -4.02618 -2.36891)
(-4.398e-16 -4.50541 -0.634594)
(-1.7024e-15 -6.159 1.5832)
(-6.98002e-16 -5.55384 2.98304)
(1.61266e-16 0.0465821 5.18358)
(-3.79692e-16 4.2576 5.08656)
(-7.8354e-16 4.51176 4.37683)
(-1.11291e-15 2.82851 6.81723)
(-1.79258e-16 2.33833 11.0614)
(1.33666e-15 0.107421 12.3835)
(8.18236e-16 -2.45241 11.6424)
(9.75386e-16 -2.75412 9.10151)
(7.82078e-15 -1.13083 3.88023)
(-1.48464e-15 0.848358 -3.01981)
(-1.4502e-15 -0.00718095 -3.46304)
(-1.48135e-15 -1.19189 -3.19601)
(-1.4844e-15 -2.28447 -2.7296)
(-1.17873e-15 -3.06932 -2.62912)
(-7.13472e-16 -3.62533 -2.42802)
(1.1345e-17 -4.42647 -2.07302)
(-7.01761e-16 -5.29563 -0.368784)
(-1.70968e-15 -6.85797 1.75644)
(-8.36156e-16 -6.24323 3.00768)
(-2.19359e-17 -0.367081 5.02631)
(-5.41382e-16 4.42833 4.78303)
(-5.92219e-16 4.2583 3.85015)
(-7.51344e-16 1.50028 5.83522)
(-2.05982e-16 1.03264 10.6604)
(1.21703e-15 -0.460019 13.0255)
(2.2521e-15 -2.74255 12.627)
(3.13411e-15 -3.32232 10.9545)
(4.36778e-15 -1.27886 9.65226)
(-1.43508e-15 0.969716 -2.22508)
(-1.35876e-15 0.0144979 -2.88338)
(-1.38411e-15 -1.32393 -2.6353)
(-1.4632e-15 -2.39113 -2.2439)
(-1.29954e-15 -3.11838 -2.275)
(-9.3631e-16 -3.74769 -2.08543)
(-3.20204e-16 -4.83608 -1.608)
(-1.02763e-15 -6.05097 0.182744)
(-1.69763e-15 -7.49162 2.03464)
(-9.60713e-16 -6.84424 3.11619)
(-2.2898e-16 -0.687022 4.77949)
(-4.57156e-16 4.66167 4.29144)
(-4.06844e-16 4.22454 3.42091)
(-4.87925e-17 0.138241 4.1536)
(8.41399e-16 -0.569736 8.39707)
(1.65197e-15 -0.902606 12.0649)
(2.20456e-15 -1.80239 13.899)
(2.23285e-15 -0.291189 14.4735)
(1.3195e-15 4.65593 14.4467)
(-1.38044e-15 1.17134 -1.01451)
(-1.18022e-15 0.0937758 -1.98283)
(-1.16639e-15 -1.38121 -1.99488)
(-1.15022e-15 -2.41257 -1.82588)
(-1.04827e-15 -3.12747 -2.00198)
(-8.68588e-16 -3.90419 -1.7074)
(-5.84934e-16 -5.31639 -0.870566)
(-1.33865e-15 -6.76414 0.964216)
(-1.66907e-15 -8.01788 2.39243)
(-1.09789e-15 -7.31979 3.29362)
(-4.38684e-16 -0.857332 4.47577)
(-3.46608e-16 4.90091 3.70083)
(-3.6928e-16 4.43946 3.14779)
(-2.58027e-16 -0.550806 2.19592)
(1.00143e-15 -2.02938 4.09389)
(1.68e-15 -2.25804 7.23898)
(1.50152e-15 -3.29875 8.6173)
(-4.20875e-16 -3.5762 6.75624)
(-3.59569e-15 -1.80291 3.0984)
(-1.33325e-15 1.39684 0.634644)
(-9.125e-16 0.133607 -0.36835)
(-7.73259e-16 -1.25906 -1.26917)
(-6.51485e-16 -2.34734 -1.33253)
(-6.55714e-16 -3.15022 -1.57384)
(-7.26174e-16 -4.20503 -0.913396)
(-8.81117e-16 -5.89797 0.32716)
(-1.56018e-15 -7.36182 1.8513)
(-1.63548e-15 -8.41455 2.80239)
(-1.24778e-15 -7.67128 3.53328)
(-6.3702e-16 -0.859826 4.15999)
(-2.57013e-16 5.11888 3.09841)
(-3.7039e-16 4.73938 2.98136)
(-6.581e-16 -0.106726 1.3538)
(5.89536e-16 -2.86345 0.524418)
(1.34014e-15 -2.86579 2.77806)
(1.30544e-15 -2.37009 3.51963)
(-2.14198e-16 0.201615 1.08841)
(-5.26351e-16 1.92939 -2.96623)
(-1.33191e-15 1.50079 2.37082)
(-1.0182e-15 0.539259 1.99931)
(-4.46245e-16 -0.871789 0.51292)
(-3.77921e-16 -2.2363 -0.0215648)
(-5.16001e-16 -3.28739 -0.186935)
(-8.13256e-16 -4.67926 0.735804)
(-1.21553e-15 -6.41555 1.80281)
(-1.65938e-15 -7.75669 2.67553)
(-1.61255e-15 -8.68094 3.23053)
(-1.40243e-15 -7.86081 3.81955)
(-7.84499e-16 -0.64818 3.85285)
(-1.30935e-16 5.3001 2.53243)
(-3.88505e-16 4.99797 2.81472)
(-7.64156e-16 0.994774 1.25144)
(-7.41745e-17 -2.84375 -1.27867)
(5.52753e-16 -3.21329 -0.489124)
(8.14218e-16 -2.12128 -0.424225)
(3.09585e-16 0.365652 -2.46803)
(-6.06988e-16 1.70194 -3.21341)
(-1.32305e-15 1.52066 3.83788)
(-1.33165e-15 0.758466 3.67781)
(-8.90405e-16 -0.513792 3.04745)
(-7.08357e-16 -2.05845 2.28625)
(-8.38207e-16 -3.44438 2.11135)
(-1.13868e-15 -5.0158 2.60979)
(-1.4604e-15 -6.66958 3.05791)
(-1.64922e-15 -7.93381 3.33772)
(-1.61178e-15 -8.86644 3.67404)
(-1.55954e-15 -7.96774 4.133)
(-8.57629e-16 -0.300232 3.52225)
(1.11891e-18 5.44408 2.0828)
(-3.81405e-16 5.20148 2.54867)
(-7.58106e-16 1.9986 1.15398)
(-5.53482e-16 -2.37161 -1.52898)
(-1.97522e-16 -3.10546 -1.74209)
(-2.41891e-17 -1.87989 -2.34596)
(-6.16567e-16 0.4574 -3.07118)
(-4.4662e-16 1.78676 -2.61842)
(-1.29504e-15 1.55998 5.18181)
(-1.40173e-15 0.833567 4.69997)
(-1.42584e-15 -0.325073 4.62397)
(-1.2464e-15 -1.87427 4.14672)
(-1.27775e-15 -3.43456 3.92625)
(-1.42388e-15 -5.08131 3.95003)
(-1.55315e-15 -6.70859 3.91679)
(-1.59295e-15 -8.012 3.87391)
(-1.64965e-15 -8.97981 4.12725)
(-1.70902e-15 -7.81092 4.45355)
(-8.38158e-16 0.345178 3.23787)
(4.45381e-17 5.58046 1.87465)
(-3.41851e-16 5.35591 2.21559)
(-7.42565e-16 2.81245 1.12046)
(-7.38231e-16 -1.78919 -1.20561)
(-5.67769e-16 -2.75485 -1.77661)
(-5.04674e-16 -1.59403 -2.47911)
(-9.72944e-16 0.514276 -2.59767)
(-8.80244e-16 1.48289 -2.10513)
(-1.37594e-15 1.70974 6.46269)
(-1.19294e-15 0.95304 5.47396)
(-1.48318e-15 -0.263566 5.2915)
(-1.47688e-15 -1.77885 5.01971)
(-1.47377e-15 -3.3746 4.79734)
(-1.49167e-15 -5.02329 4.59908)
(-1.48687e-15 -6.63142 4.35527)
(-1.49827e-15 -8.0067 4.24255)
(-1.70499e-15 -9.09704 4.5487)
(-1.86832e-15 -7.76076 4.70244)
(-7.66733e-16 0.916487 2.79006)
(5.73088e-18 5.75403 1.87633)
(-2.97455e-16 5.49062 1.93227)
(-7.27299e-16 3.39453 1.17978)
(-7.72574e-16 -1.57843 -0.740651)
(-6.65441e-16 -2.5105 -1.53947)
(-6.71483e-16 -1.54352 -1.97006)
(-1.0273e-15 0.329298 -1.8964)
(-1.36093e-15 1.40228 -1.81037)
(-1.57413e-15 2.02314 7.39793)
(-1.06957e-15 1.33899 6.34715)
(-1.2086e-15 -0.094547 5.9715)
(-1.31286e-15 -1.63551 5.70182)
(-1.33577e-15 -3.2321 5.46436)
(-1.35324e-15 -4.88364 5.2283)
(-1.39962e-15 -6.56159 5.017)
(-1.58555e-15 -8.11422 5.02742)
(-1.9704e-15 -9.12488 5.33112)
(-2.00505e-15 -6.98966 5.00881)
(-6.36716e-16 1.52983 2.54766)
(-2.66203e-17 5.91333 1.88978)
(-2.67251e-16 5.74238 1.78515)
(-7.15749e-16 3.99942 1.30648)
(-7.70492e-16 -0.968997 0.114955)
(-6.58072e-16 -2.09614 -0.982797)
(-7.91612e-16 -1.41063 -1.19157)
(-1.25386e-15 0.53078 -1.34171)
(-1.50769e-15 1.41149 -1.78118)
(1.40102e-16 5.54995 10.2414)
(8.36176e-16 13.9645 26.1544)
(4.68425e-16 18.2802 32.4395)
(3.77688e-16 17.9365 31.0026)
(2.73359e-16 16.5895 27.7049)
(1.63097e-18 15.2935 24.6777)
(-3.16172e-16 14.145 22.193)
(-5.30421e-16 13.2605 20.2073)
(-7.82709e-16 12.495 18.5001)
(-1.12897e-15 11.7535 16.9234)
(-1.49817e-15 10.9976 15.4007)
(-1.94461e-15 10.2129 13.9109)
(-2.4426e-15 9.39369 12.4589)
(-3.02401e-15 8.54602 11.0471)
(-3.73375e-15 7.65402 9.67795)
(-4.51729e-15 6.72779 8.3317)
(-5.34994e-15 5.70888 7.00007)
(-6.42375e-15 4.66921 5.62576)
(-7.44603e-15 3.28958 4.13803)
(-1.04659e-14 1.54277 1.26091)
(1.03048e-15 -1.09054 -4.83434)
(2.47795e-15 11.5114 20.5397)
(1.24036e-15 17.7048 31.4316)
(1.04982e-15 17.8821 31.62)
(1.06974e-15 16.3745 28.646)
(1.24194e-15 14.9876 25.8614)
(1.22353e-15 13.9859 23.7192)
(1.11008e-15 13.1444 21.8161)
(9.45399e-16 12.321 19.9774)
(6.88421e-16 11.459 18.1092)
(5.83112e-16 10.5407 16.2139)
(4.06584e-16 9.57852 14.3131)
(2.73714e-16 8.57573 12.4339)
(3.75733e-17 7.54651 10.5847)
(-2.91752e-16 6.46591 8.77648)
(-7.45705e-16 5.35898 6.96351)
(-1.26174e-15 4.08874 5.12031)
(-2.12983e-15 2.79609 3.00893)
(-2.31599e-15 0.464698 0.149724)
(-7.59773e-15 -0.751708 -3.68186)
(-1.8875e-16 0.664266 1.26817)
(1.41818e-15 12.4206 19.4302)
(8.98158e-16 19.5064 31.4864)
(6.34872e-16 20.3585 33.1359)
(5.60078e-16 18.8395 30.5428)
(1.06242e-15 17.3083 27.7684)
(8.28361e-16 16.1282 25.5828)
(7.89981e-16 15.1217 23.646)
(7.09868e-16 14.0871 21.6962)
(7.18675e-16 12.9851 19.653)
(7.95871e-16 11.8148 17.5363)
(8.17183e-16 10.5919 15.368)
(9.15818e-16 9.31265 13.1694)
(9.27131e-16 7.98005 10.9438)
(1.00682e-15 6.55977 8.70485)
(1.12573e-15 5.08669 6.42235)
(1.48613e-15 3.41402 4.12359)
(7.91831e-16 1.87061 1.76908)
(-8.98174e-16 -0.752138 -1.00985)
(-7.2009e-15 -1.99727 -5.54853)
(1.66569e-17 7.26277 12.3042)
(-1.37286e-16 17.2312 26.296)
(-1.19584e-16 20.6352 31.7401)
(-9.37193e-17 20.0746 31.3121)
(-1.33092e-16 18.3973 29.1176)
(8.42175e-16 17.0619 27.1197)
(9.81403e-16 15.8679 25.3789)
(1.04418e-15 14.645 23.487)
(9.40326e-16 13.2513 21.4118)
(1.151e-15 11.7752 19.1941)
(1.24659e-15 10.2173 16.8953)
(1.39e-15 8.59204 14.4974)
(2.03419e-15 6.86816 11.9859)
(2.25851e-15 5.02495 9.32393)
(3.62609e-15 3.06418 6.5051)
(4.86886e-15 1.10141 3.51446)
(1.04533e-14 -0.973063 0.29372)
(1.39216e-14 -2.63663 -2.40832)
(4.65826e-15 -3.87814 -4.27843)
(-1.49088e-15 -3.00819 -6.0885)
(-5.33402e-19 12.4871 21.7289)
(1.09119e-17 20.1119 32.6758)
(7.99886e-18 18.6943 30.9006)
(6.25858e-18 16.4683 27.657)
(1.53297e-17 14.9771 26.0479)
(-1.63147e-16 14.0001 24.7933)
(-1.68042e-16 12.6638 23.1839)
(-1.71521e-16 11.1526 21.0787)
(-1.51051e-16 9.45996 18.8221)
(-1.63648e-16 7.77463 16.5012)
(-1.91187e-16 6.03554 14.1496)
(-2.0379e-16 4.26201 11.7109)
(-1.16799e-16 2.44597 9.19885)
(1.64776e-16 0.653063 6.6649)
(3.26883e-16 -1.01867 4.2322)
(-3.54885e-16 -2.39918 2.03771)
(-2.25898e-15 -3.26076 0.234411)
(-4.07701e-15 -3.18003 -0.627016)
(-3.96773e-15 -1.6097 0.441337)
(-1.39787e-15 0.538708 2.56158)
(-3.42045e-19 13.3731 23.6097)
(5.34818e-19 17.6334 30.5353)
(1.93177e-18 14.6908 26.4536)
(2.30247e-18 13.2797 24.175)
(5.91507e-18 12.1922 23.1329)
(1.61848e-17 11.1384 21.7534)
(8.36408e-18 9.67108 20.0131)
(3.97068e-18 8.11168 17.8982)
(-2.36284e-18 6.43387 15.6777)
(-1.90489e-17 4.76497 13.3747)
(-6.27836e-17 3.06797 11.0492)
(-9.80089e-17 1.4208 8.75619)
(-3.18491e-17 -0.0834027 6.63914)
(7.8243e-17 -1.22456 4.94367)
(-2.01177e-16 -1.66252 4.10625)
(-1.25655e-15 -0.964252 4.74696)
(-2.52819e-15 1.18456 7.34374)
(-2.71341e-15 4.52587 11.3647)
(-1.40302e-15 7.53234 14.4409)
(6.00154e-17 6.00938 11.8648)
(6.87396e-20 11.4623 20.2653)
(-9.34446e-19 16.537 29.1761)
(-1.35022e-18 14.7545 26.1753)
(-1.46266e-18 13.2435 23.0956)
(-8.13116e-19 11.8572 21.1242)
(2.73615e-18 10.8679 19.3418)
(6.13601e-18 9.68373 17.6621)
(9.45149e-18 8.57058 15.7532)
(1.45049e-17 7.3612 13.7617)
(1.81026e-17 6.2009 11.6582)
(1.41981e-17 5.07928 9.56218)
(3.51515e-18 4.15602 7.67492)
(4.05297e-18 3.63161 6.40134)
(3.30776e-17 3.78474 6.24615)
(8.24695e-17 4.74116 7.46399)
(1.63943e-16 6.26364 9.75104)
(3.31665e-16 7.99644 12.5236)
(5.63296e-16 9.29418 15.055)
(6.44984e-16 9.76113 15.6927)
(2.84326e-16 6.80283 12.226)
(1.34215e-21 10.3861 18.2188)
(3.65778e-19 17.502 30.2164)
(4.54793e-19 15.9758 27.8075)
(5.12042e-19 14.2358 23.9613)
(1.97224e-19 12.7352 21.6778)
(-1.59905e-18 11.9635 19.8223)
(-2.61794e-18 11.0964 18.3548)
(-3.25526e-18 10.4188 16.8642)
(-4.20004e-18 9.72175 15.4432)
(-5.19903e-18 9.11032 14.0313)
(-5.49432e-18 8.54091 12.6243)
(-5.07305e-18 8.02079 11.2061)
(-5.76958e-18 7.54874 9.81029)
(-9.30241e-18 7.17064 8.61941)
(-1.51634e-17 6.97776 7.90297)
(-2.25965e-17 7.01031 7.95508)
(-3.42197e-17 7.26085 8.75217)
(-5.54862e-17 7.3811 9.83787)
(-9.34907e-17 6.91526 10.1277)
(-1.07801e-16 4.59607 7.31868)
(-2.87735e-21 10.5397 18.3178)
(-1.15714e-19 18.3082 30.9129)
(-1.37703e-19 16.7234 28.8786)
(-1.58795e-19 15.0357 24.9882)
(-6.09343e-20 13.5537 22.7801)
(5.11034e-19 12.8377 20.9555)
(8.55697e-19 12.0089 19.4652)
(1.00193e-18 11.308 17.9523)
(1.12618e-18 10.5897 16.5108)
(1.24515e-18 9.90974 15.1246)
(1.34369e-18 9.26246 13.8021)
(1.52508e-18 8.63875 12.5316)
(1.98384e-18 8.03124 11.287)
(2.64348e-18 7.42609 10.0513)
(3.0478e-18 6.81663 8.85347)
(2.81963e-18 6.23051 7.78225)
(2.23015e-18 5.63533 6.96881)
(1.64665e-18 5.05328 6.31855)
(1.64554e-18 3.96324 5.46692)
(9.16611e-18 1.86492 1.9787)
(7.6007e-22 11.5365 20.0654)
(3.24343e-20 19.191 31.7411)
(3.98081e-20 17.139 29.4631)
(4.61662e-20 15.6352 25.6303)
(2.19774e-20 14.1325 23.6353)
(-1.32416e-19 13.4884 21.8171)
(-2.40061e-19 12.6016 20.3289)
(-2.77892e-19 11.8766 18.7511)
(-2.89376e-19 11.0997 17.2405)
(-2.93636e-19 10.3502 15.7401)
(-3.03777e-19 9.59747 14.2681)
(-3.45565e-19 8.83546 12.8213)
(-4.24373e-19 8.05461 11.4016)
(-4.59038e-19 7.25591 10.0031)
(-3.18074e-19 6.41193 8.61888)
(5.63076e-20 5.53588 7.20449)
(6.21324e-19 4.516 5.75568)
(1.60706e-18 3.43854 4.09469)
(3.73362e-18 1.65126 2.03498)
(7.95866e-18 -0.0131259 -1.70097)
(-4.47888e-23 13.4006 23.65)
(-8.30193e-21 20.1546 32.6558)
(-1.08879e-20 17.1895 29.7747)
(-1.24963e-20 16.2638 26.2974)
(-7.17752e-21 14.7192 24.683)
(3.01042e-20 14.2681 22.8406)
(5.94097e-20 13.3117 21.4105)
(6.85082e-20 12.6833 19.8197)
(6.71397e-20 11.9271 18.3355)
(6.38375e-20 11.2101 16.7731)
(6.37166e-20 10.4119 15.1496)
(6.82429e-20 9.53238 13.4321)
(6.77862e-20 8.55436 11.6429)
(3.7851e-20 7.49311 9.80224)
(-4.18159e-20 6.33111 7.93906)
(-1.61462e-19 5.10261 6.02138)
(-2.96287e-19 3.68358 4.04901)
(-4.42346e-19 2.19107 1.73118)
(-1.42906e-18 -0.186358 -0.930412)
(4.81224e-18 -1.47407 -4.7395)
(-2.88428e-23 15.4497 28.0695)
(1.99348e-21 20.4385 32.7401)
(2.76035e-21 16.6897 29.8291)
(3.09769e-21 16.6818 27.0113)
(1.81916e-21 14.9166 25.8426)
(-6.70381e-21 14.7666 23.979)
(-1.3722e-20 13.6561 22.7603)
(-1.54363e-20 13.2408 21.2487)
(-1.37323e-20 12.4615 19.9071)
(-1.14016e-20 11.7742 18.2785)
(-1.01942e-20 10.8174 16.4448)
(-9.35991e-21 9.71466 14.3481)
(-4.53466e-21 8.43202 12.0963)
(9.8018e-21 7.02776 9.7295)
(3.49959e-20 5.49806 7.31144)
(6.27437e-20 3.87469 4.80089)
(8.01686e-20 2.06199 2.28736)
(4.22531e-20 0.318858 -0.581381)
(-7.78378e-19 -2.29945 -3.39635)
(9.62705e-19 -2.81448 -7.21142)
(1.03875e-23 16.5544 31.0251)
(-4.68876e-22 19.3976 31.1379)
(-6.39203e-22 15.7042 29.3879)
(-6.95524e-22 16.2996 27.0474)
(-4.23806e-22 14.1565 26.1311)
(1.38291e-21 14.1547 24.2786)
(2.69171e-21 12.7744 23.3292)
(3.1865e-21 12.4465 21.9346)
(3.5443e-21 11.3984 20.7255)
(3.71024e-21 10.5028 18.9008)
(3.51998e-21 9.07482 16.7086)
(4.12702e-21 7.55411 14.1045)
(6.38908e-21 5.82152 11.3248)
(9.98006e-21 4.01696 8.37946)
(1.95124e-20 2.18908 5.41748)
(4.20834e-20 0.225844 2.33411)
(8.66654e-20 -1.47035 -0.41852)
(-3.31387e-20 -2.39237 -2.44798)
(-9.0141e-19 -4.79121 -5.57272)
(-1.60958e-18 -3.59409 -6.82371)
(-1.64145e-24 16.16 30.8637)
(1.07731e-22 17.9724 28.9834)
(1.46842e-22 14.7825 28.2293)
(1.40418e-22 15.2552 25.8265)
(-7.4666e-23 13.0335 24.8853)
(-6.78868e-22 12.8233 23.0557)
(-9.40839e-22 11.3739 22.066)
(-4.30965e-22 10.7746 20.6969)
(4.78255e-22 9.55027 19.4035)
(6.92738e-22 8.36305 17.529)
(4.40472e-22 6.7781 15.3016)
(3.10754e-21 5.16322 12.7666)
(1.25871e-20 3.41311 10.0376)
(3.1844e-20 1.63128 7.14741)
(5.90207e-20 -0.0410808 4.45312)
(4.11088e-20 -1.53696 2.01582)
(-1.54275e-19 -2.92079 -0.476214)
(-5.71017e-19 -3.42813 -2.04078)
(-1.0016e-18 -2.00619 -0.729272)
(-8.13109e-19 0.506029 2.54514)
(-2.10625e-25 15.2571 29.576)
(-2.01375e-23 17.7457 27.9787)
(-2.05162e-23 14.0556 27.1106)
(-1.83011e-23 14.8763 24.346)
(-2.61982e-23 12.3618 23.447)
(-6.98314e-23 12.2675 21.3301)
(-1.75506e-22 10.6548 20.1601)
(-1.43168e-22 9.98463 18.5594)
(3.97389e-23 8.76349 17.2033)
(-1.14951e-22 7.72166 15.5489)
(-6.09429e-22 6.49526 13.7823)
(7.68576e-22 5.3211 11.8418)
(8.25961e-21 4.07287 9.68337)
(2.40522e-20 2.75199 7.18932)
(4.00566e-20 1.5094 4.66478)
(3.49091e-20 0.880901 3.13435)
(1.05479e-21 1.57154 3.8765)
(-1.17701e-20 3.58017 6.62229)
(6.53529e-20 5.6087 9.13498)
(1.83509e-19 4.5563 8.73589)
(9.35478e-26 15.0493 29.7964)
(3.90927e-24 18.378 27.9699)
(5.66634e-24 14.1252 27.2174)
(2.8267e-24 15.5241 24.1951)
(-2.14324e-23 12.8943 23.3541)
(-8.63403e-23 13.0433 21.1001)
(-1.91656e-22 11.5408 19.7909)
(-3.37803e-22 10.9875 18.039)
(-4.55637e-22 10.0016 16.6043)
(-4.15746e-22 9.28332 15.1407)
(-2.60763e-22 8.52857 13.7953)
(-3.61118e-22 7.86125 12.4654)
(-9.82739e-22 7.21485 11.1412)
(-1.53075e-21 6.58799 9.73941)
(-2.74142e-22 5.93117 8.17555)
(4.66422e-21 5.23145 6.50841)
(1.49014e-20 4.51043 4.88462)
(2.35767e-20 3.93984 4.03249)
(3.60011e-20 3.34 3.73636)
(6.43601e-20 2.08681 2.16373)
(-2.7603e-26 15.0737 30.6389)
(1.79267e-25 18.6693 28.1309)
(1.58537e-24 14.1985 27.7043)
(-2.32045e-24 15.652 24.8346)
(-2.56135e-23 13.2715 23.9384)
(-7.87614e-23 13.2609 21.9445)
(-1.51306e-22 12.0893 20.6233)
(-2.11996e-22 11.5393 19.0609)
(-2.37732e-22 10.7969 17.6629)
(-2.25427e-22 10.1851 16.2604)
(-1.69606e-22 9.57992 14.9101)
(-7.66305e-23 9.00322 13.5697)
(5.32182e-24 8.41336 12.2024)
(4.46252e-23 7.7727 10.7341)
(1.76961e-22 6.97306 9.05993)
(3.44561e-22 5.94328 7.04436)
(1.24783e-21 4.52792 4.73462)
(-2.25312e-21 3.10032 2.61764)
(-3.28629e-21 0.984576 0.485221)
(2.91501e-20 -0.384752 -2.51761)
(3.51132e-26 14.2608 30.8408)
(4.90157e-25 18.3438 27.7909)
(1.04765e-24 13.557 27.7184)
(-3.736e-24 14.6255 25.2761)
(-2.56149e-23 12.5271 24.3301)
(-7.00667e-23 12.1541 22.6871)
(-1.17697e-22 11.0822 21.4523)
(-1.30572e-22 10.4261 20.0988)
(-9.05065e-23 9.67834 18.855)
(-4.81452e-23 9.04939 17.6061)
(-1.03884e-22 8.4365 16.3889)
(-2.62655e-22 7.86809 15.1641)
(-1.65178e-22 7.28308 13.8682)
(1.15525e-21 6.56673 12.2948)
(5.06879e-21 5.46223 10.0781)
(1.22362e-20 3.72928 6.72266)
(2.11747e-20 1.04847 2.2289)
(1.73123e-20 -1.77289 -3.92151)
(-3.60978e-21 -3.44468 -4.98307)
(3.83551e-20 -2.82286 -6.90827)
(-3.44259e-27 11.2922 28.6922)
(9.27126e-26 17.106 25.2139)
(3.02205e-25 12.1037 25.5984)
(-1.17347e-24 12.7261 23.9086)
(-9.03972e-24 10.9917 23.1744)
(-2.59495e-23 10.315 22.102)
(-4.41158e-23 9.3169 21.1982)
(-4.79119e-23 8.53264 20.2575)
(-3.38563e-23 7.75271 19.3509)
(-3.48927e-23 7.05239 18.4472)
(-1.07206e-22 6.39943 17.553)
(-2.29268e-22 5.79312 16.6464)
(-9.54888e-23 5.18998 15.66)
(1.07293e-21 4.49769 14.4127)
(4.36579e-21 3.55616 12.5793)
(1.04067e-20 2.20451 9.7952)
(1.83577e-20 0.480279 5.94754)
(2.55426e-20 -1.29787 1.51583)
(2.80023e-20 -2.60804 -2.23953)
(2.42554e-20 -2.01203 -3.45785)
(-1.40671e-26 2.62982 17.0795)
(-7.01875e-26 8.04668 13.733)
(4.29661e-26 5.17513 14.5883)
(7.7092e-25 4.96845 14.2092)
(2.11262e-24 4.03641 14.1796)
(2.95768e-24 3.45749 14.0171)
(2.01664e-24 2.86752 13.8705)
(3.74784e-25 2.3807 13.6913)
(2.45488e-24 1.95526 13.4942)
(1.04723e-23 1.60344 13.2752)
(1.00494e-23 1.322 13.0379)
(-4.78298e-23 1.11631 12.7895)
(-2.4941e-22 0.993836 12.5468)
(-6.71666e-22 0.97689 12.3244)
(-1.27377e-21 1.0925 12.1113)
(-1.81221e-21 1.30595 11.8683)
(-1.95382e-21 1.6431 11.4474)
(-1.58413e-21 2.397 10.47)
(-9.47052e-22 2.70083 8.95739)
(-3.51712e-22 -0.10803 6.78445)
(1.42877e-26 -2.62979 17.0794)
(7.45348e-26 -8.04668 13.7329)
(-4.05316e-26 -5.17513 14.5882)
(-8.09826e-25 -4.96846 14.2091)
(-2.2272e-24 -4.03642 14.1795)
(-3.07594e-24 -3.4575 14.0171)
(-1.93868e-24 -2.86754 13.8705)
(1.09764e-26 -2.38072 13.6912)
(-2.07452e-24 -1.95529 13.4941)
(-1.0766e-23 -1.60346 13.2751)
(-1.08397e-23 -1.32202 13.0379)
(5.03529e-23 -1.11633 12.7895)
(2.66147e-22 -0.993894 12.5469)
(7.2081e-22 -0.977024 12.3247)
(1.37185e-21 -1.09273 12.1117)
(1.95661e-21 -1.30627 11.8687)
(2.11321e-21 -1.64345 11.4477)
(1.71527e-21 -2.39733 10.47)
(1.02587e-21 -2.70112 8.95751)
(3.80818e-22 0.107984 6.78464)
(2.83288e-27 -11.2923 28.6922)
(-9.34654e-26 -17.1059 25.2139)
(-3.07424e-25 -12.1036 25.5985)
(1.32222e-24 -12.726 23.9087)
(9.88455e-24 -10.9915 23.1745)
(2.8233e-23 -10.3148 22.1022)
(4.78909e-23 -9.31662 21.1984)
(5.18612e-23 -8.53229 20.2577)
(3.62272e-23 -7.7523 19.3512)
(3.63913e-23 -7.05192 18.4475)
(1.13174e-22 -6.3989 17.5534)
(2.44445e-22 -5.79251 16.6469)
(1.01816e-22 -5.18917 15.6603)
(-1.15667e-21 -4.49647 14.4125)
(-4.71428e-21 -3.55439 12.5781)
(-1.12523e-20 -2.20243 9.79331)
(-1.98633e-20 -0.478749 5.94599)
(-2.76359e-20 1.29792 1.5157)
(-3.02763e-20 2.60656 -2.23732)
(-2.62154e-20 2.0106 -3.45511)
(-3.86742e-26 -14.2612 30.8414)
(-5.59422e-25 -18.3439 27.7915)
(-1.16363e-24 -13.5572 27.7191)
(4.0214e-24 -14.6256 25.2769)
(2.77452e-23 -12.5271 24.331)
(7.59353e-23 -12.1541 22.6881)
(1.27418e-22 -11.0822 21.4533)
(1.40855e-22 -10.426 20.0999)
(9.64731e-23 -9.67815 18.8562)
(4.9247e-23 -9.04916 17.6074)
(1.08362e-22 -8.43626 16.3903)
(2.805e-22 -7.86786 15.1657)
(1.79076e-22 -7.28275 13.8697)
(-1.24094e-21 -6.56596 12.2957)
(-5.46606e-21 -5.46034 10.0772)
(-1.32211e-20 -3.72539 6.7188)
(-2.29158e-20 -1.04054 2.21945)