/*--------------------------------*- C++ -*----------------------------------*\
| =========                 |                                                 |
| \\      /  F ield         | OpenFOAM: The Open Source CFD Toolbox           |
|  \\    /   O peration     | Version:  4.1                                   |
|   \\  /    A nd           | Web:      www.OpenFOAM.org                      |
|    \\/     M anipulation  |                                                 |
\*---------------------------------------------------------------------------*/
FoamFile
{
    version     2.0;
    format      ascii;
    class       surfaceScalarField;
    location    "27";
    object      phi;
}
// * * * * * * * * * * * * * * * * * * * * * * * * * * * * * * * * * * * * * //

dimensions      [0 3 -1 0 0 0 0];

internalField   nonuniform List<scalar> 
2360
(
28931.2
34837.9
-5906.7
34837.9
34837.9
43100.7
-8262.79
43100.7
43100.7
43100.7
54870.2
-11769.5
54870.2
54870.2
70862.8
-15992.6
70862.8
70862.8
95568.8
-24706
95568.8
95568.8
130298
-34728.8
130298
130298
137039
150443
165587
180259
193804
206205
174488
43394.4
185289
195328
204678
213400
221542
229141
236226
242813
248914
254566
259874
264827
268903
135954
132950
135954
135954
135954
37475.2
98478.4
37475.2
37475.2
37475.2
-1422.93
38898.1
-1422.93
-1422.94
-30028.3
28605.4
-30028.4
-30028.4
-30028.4
-115395
85366.9
-115395
-115395
-115395
-240554
125159
-234293
-226314
-217908
-209597
-201405
-193243
-185004
-176607
-167980
-159063
-149838
-140332
-130591
-169052
48347.9
-159016
-148576
-137644
-126291
-115000
-106903
-106903
-106903
-70761.3
-36141.3
-70761.3
-70761.3
-42535.4
-28225.9
-42535.4
-42535.4
-17853.6
-24681.7
-17853.6
-17853.6
4649.25
-22502.9
4649.27
4649.26
4649.28
28975.8
-24326.6
28975.8
28975.8
55700.5
-26724.7
-19226.2
-1289.69
-16177.5
56705.4
-14565.2
92656.2
-11899
97045.5
-9935.88
110686
-8191.09
115372
-6519.2
117151
-4745.56
114232
-2351.45
108115
653.421
92189.5
3730.53
85946.2
9382.12
62317.4
16861.8
-37385.4
25355.7
-59955.4
32122.2
-55430.1
33356
-8378.07
30188
36357.4
28859.6
42924.6
18759.6
-28491.6
-11485.3
-19088.7
47302.6
-15361.7
88929.2
-12130.3
93814.1
-10227.7
108784
-8451.25
113596
-6897.88
115598
-5297.51
112632
-3070.98
105889
-396.696
89515.2
2244.09
83305.4
10869
53692.6
20340.7
-46857.2
31333.5
-70948.2
41965.6
-66062.2
42555.1
-8967.61
33583.2
45329.3
26638.6
49869.3
21071.6
-45364
-23818
-26971.9
28910.4
-17434.4
79391.7
-12935
89314.8
-10717.1
106566
-8971.02
111850
-7484.53
114112
-6097.56
111245
-4141.75
103933
-2153.76
87527.3
-589.157
81740.8
9001.65
44101.7
18949.2
-56804.7
29495.9
-81494.9
41213.5
-77779.8
44617.9
-12372
36482.2
53465.1
25928.2
60423.2
24497
-69301.6
-37052.7
-40417.7
26.4475
-21663.5
60637.5
-14695.1
82346.4
-11690.6
103561
-9794.36
109954
-8349.42
112667
-7131.44
110027
-5417.11
102219
-4422.39
86532.5
-4981.25
82299.7
4364.52
34756
11877.1
-64317.3
17736.2
-87354.1
25635.9
-85679.5
32738.9
-19475
32561.8
53642.1
25173.5
67811.6
24988.7
-101514
-47016.6
-62809.6
-38677.8
-27648.9
25476.8
-16969.2
71666.7
-13591.1
100183
-11076.9
107439
-9552.37
111142
-8473.9
108948
-7102.37
100847
-8629.62
88059.8
-10740.1
84410.2
-3231.95
27247.8
-2388.01
-65161.2
-5837.12
-83905
-6008.44
-85508.2
6409.48
-31892.9
19846.2
40205.4
20905.4
66752.4
17668.1
-132445
-49680.9
-98766.2
-72356.4
-45478
-27811.4
-18894.9
45083.5
-15740.7
97029
-13260.9
104960
-11213.8
109095
-10161.3
107896
-9489.97
100176
-11465.6
90035.4
-13251.2
86195.8
-11625.9
25622.5
-20894.3
-55892.8
-35105.6
-69693.6
-41830.8
-78783
-24066
-49657.8
-2331.1
18470.5
13776.8
50644.5
-4696.37
-140314
-48361.9
-120338
-92332.4
-71394.3
-76755.2
-28179.8
1869.07
-17408.5
86257.7
-16248.5
103800
-13683.6
106530
-12215.4
106428
-12051
100011
-14162.4
92146.8
-16732.3
88765.7
-22084.6
30974.8
-42667.9
-35309.5
-67203
-45158.5
-81189.3
-64796.7
-66592.6
-64254.5
-29518.1
-18603.9
-2122.44
23248.8
41529.1
-120224
-48617.1
-107899
-104658
-80952
-103702
-42356.4
-36726.5
-21944.6
65845.9
-18993.2
100848
-16822.9
104360
-14661.4
104266
-15064.3
100414
-19223.2
96305.8
-23709.5
93252
-36805.6
44070.9
-67181
-4934.11
-98291.2
-14048.3
-118462
-44625.7
-116987
-65729.5
-95261.8
-40329.3
-91746.7
19733.6
74941.6
-97266.7
-49003.2
-89223.3
-112701
-77102
-115824
-53519.9
-60308.6
-31585.8
43911.8
-22640.7
91903
-19886.6
101606
-17588.2
101968
-18761.6
101587
-24572.6
102117
-31185.9
99865.3
-51934.3
64819.3
-89493.1
32624.7
-121845
18303.5
-140139
-26332
-144437
-61431.6
-133607
-51159.3
-114657
784.113
45651.5
-86398.5
-46642.7
-82917.2
-116182
-77396.5
-121344
-64822.1
-72883
-44963.8
24053.5
-30085.9
77025.2
-24097.8
95617.7
-22329.2
100199
-24578.9
103837
-30118.4
107656
-36366.8
106114
-58713.9
87166.5
-97623.4
71534.1
-127464
48144.3
-138512
-15283.9
-137024
-62920.2
-120516
-67666.9
-84943
-34789
-10686.1
-79964
-41998.6
-79556.9
-116589
-78687.2
-122214
-76394
-75176.3
-61182.6
8842.22
-42790.3
58632.9
-32222.8
85050.2
-29480
97456.2
-31150
105507
-34151.9
110658
-40112.7
112074
-63706.5
110760
-99602.7
107430
-121621
70163
-123947
-12958.6
-120890
-65976.9
-115352
-73204.6
-90995.1
-59146.2
-62783
-72769.7
-36125.7
-73697.5
-115662
-76471.9
-119440
-85111.5
-66536.8
-78871.9
2602.69
-61144.3
40905.2
-46246.9
70152.9
-39107.9
90317.2
-37288.9
103688
-38996.6
112366
-49289.1
122367
-74183.1
135654
-99119.1
132366
-101638
72681.6
-88249.2
-26347.2
-83572.1
-70654
-100436
-56340.4
-117923
-41659.2
-82228
-64899.8
-29270.6
-66489.7
-114072
-71242.3
-114687
-88492
-49287.1
-93939.5
8050.13
-83308.1
30273.9
-68785.7
55630.4
-58108.3
79639.7
-53591.7
99171.6
-57290
116064
-71024.5
136101
-89798.7
154428
-96786.7
139354
-78130.6
54025.6
-52200.6
-52277.2
-38402.1
-84452.4
-49990.2
-44752.3
-91037.1
-612.198
-40315.5
-56852.9
-21246.1
-58863.8
-112061
-63608.9
-109942
-84438.6
-28457.4
-99303.1
22914.7
-100139
31109.7
-93820.3
49311.8
-86508.1
72327.5
-83047.6
95711.1
-86737.4
119754
-95701
145065
-100834
159561
-87809.2
126330
-54033.1
20249.5
-28730.4
-77579.9
-17593.3
-95589.6
-1772.88
-60572.7
13119.9
-15505
16198.9
-49168.6
-11470.5
-51352.5
-109877
-54266.3
-107028
-73282.2
-9441.51
-92492.5
42125
-102788
41405.3
-106149
52673.1
-105978
72156.4
-105518
95250.4
-106964
121201
-107843
145944
-99338.5
151057
-68556.1
95547.1
-28731.9
-19574.7
-11540
-94771.8
-8290.36
-98839.2
-1843.69
-67019.4
19771
-37119.7
1241.02
-42007.1
-160.508
-44505.7
-107378
-44753.3
-106780
-58896.9
4702.03
-78568.5
61796.6
-93598.8
56435.6
-102505
61578.9
-107467
77118.6
-109810
97593.4
-110160
121551
-105420
141203
-85686
131323
-40652.6
50513.7
-5530.99
-54696.3
-396.165
-99906.7
-1023.9
-98211.5
1463.47
-69506.8
15587.5
-51243.7
-7877.41
-35367.3
10732.4
-38491.9
-104254
-36065.3
-109207
-43931.4
12568.2
-62296
80161.2
-79145.5
73285.1
-90212.1
72645.4
-97365.1
84271.6
-101193
101421
-101069
121427
-92237.6
132372
-63471.7
102557
-15637.7
2679.66
7376.54
-77710.6
5304.08
-97834.2
4209.27
-97116.7
6378.77
-71676.2
13473.2
-58338.2
-10396.9
-30023.2
19839.3
-33231.5
-101045
-28695.3
-113743
-30106.5
13979.5
-46801.9
96856.6
-63808.8
90291.9
-75122.4
83959.1
-82662.8
91812
-86720.5
105479
-85907.9
120615
-73577.4
120042
-37721.3
66701.2
-1697.1
-33344.6
6648.67
-86056.3
6492.91
-97678.4
7384.2
-98008
9220.22
-73512.3
12278.6
-61396.5
-9887.77
-25661.9
26296
-28698.4
-98009
-23268.8
-119173
-18395.5
9106.06
-33139.4
111601
-51151.4
108304
-62584.3
95392
-69958.2
99185.8
-73563.8
109085
-71329.9
118381
-55579.1
104291
-20428.3
31550.4
1554.54
-55327.4
4691.79
-89193.6
7256.76
-100243
9267.29
-100018
10296.1
-74541
11620.5
-62720.9
-6530.09
-25095
-25350.8
-21221.1
-12828.6
-18554.9
-33039.7
-43480.6
-50184.4
-53289.7
-50605.1
-36436.2
-13268.8
-316.409
5076.81
8627.14
10551.6
10658.8
10835.1
781.048
-7521.96
3163.07
-15786
5502.92
-17484.5
7414.5
-16582.9
8949.56
-15080.5
10218
-13669.1
10971.5
-12431.1
11545.6
-11374.8
11911
-10404.5
12059.2
-9497.77
11983.3
-8646.24
11685.3
-7843.74
11172.1
-7086.52
10452.7
-6365.66
9540.92
-5674.31
8435.13
-4995.32
7108.13
-4325.75
5437.16
-3636.29
3183.97
-2699.76
-892.538
2388.48
-9910.4
4081.5
-17479
4921.46
-18324.4
5425.74
-17087.2
5990.61
-15645.3
6696.09
-14374.6
7521.46
-13256.5
8315.51
-12168.8
8998.87
-11087.9
9511.18
-10010.1
9813.24
-8948.28
9880.07
-7910.54
9698.6
-6905.02
9261.99
-5929.03
8571.49
-4983.79
7612.6
-4036.4
6359.92
-3073.06
4703.91
-1980.27
2592.32
-588.152
1699.79
3704.98
-13615.4
5503.29
-19277.3
6122.77
-18943.9
6646.6
-17611
7438.63
-16437.3
8423.75
-15359.7
9450.79
-14283.5
10389.5
-13107.6
11176.7
-11874.9
11773.6
-10607
12151.3
-9325.89
12275
-8034.22
12106.9
-6736.91
11604.4
-5426.48
10722.5
-4101.92
9397.57
-2711.44
7486.49
-1161.96
4843.31
662.926
2362.02
1893.17
4061.81
3195.31
-16810.7
3461.23
-19543.2
3164.51
-18647.2
3154.33
-17600.8
3439.45
-16722.4
3870.9
-15791.1
4287.17
-14699.8
4590.54
-13410.9
4771.01
-12055.4
4819.28
-10655.3
4714
-9220.6
4416.58
-7736.78
3887.72
-6208.03
3106.26
-4645
2098.05
-3093.67
1001.36
-1614.7
90.8141
-251.316
-455.525
1209.36
-1030.79
2468.49
3031.02
147.172
-16957.8
-1357.68
-18038.3
-2648.79
-17356
-3704.53
-16545
-4718.03
-15708.9
-5710.16
-14798.9
-6726.02
-13683.9
-7760.33
-12376.6
-8804.6
-11011.1
-9863.98
-9595.85
-10949.7
-8134.84
-12060.8
-6625.68
-13168
-5100.83
-14180.4
-3632.48
-14912.9
-2361.2
-15006.2
-1521.41
-13940.3
-1317.13
-11026.5
-1704.43
-6011.26
-2546.72
-2980.25
-2059.88
-14897.9
-3695.55
-16402.7
-5326.18
-15725.4
-7107.55
-14763.7
-9104.17
-13712.3
-11175.4
-12727.7
-13192
-11667.3
-15116
-10452.7
-16967
-9160.04
-18770.8
-7792.03
-20511.9
-6393.78
-22095.8
-5041.81
-23300
-3896.62
-23731.3
-3201.16
-22889.5
-3202.96
-20392
-4018.99
-16126.6
-5582.52
-10324.2
-7506.76
-4171.33
-8699.62
-7151.57
-1348.34
-13549.6
-1797.39
-15953.6
-2464.54
-15058.2
-3391.95
-13836.2
-4501.89
-12602.3
-5686.24
-11543.3
-6726.79
-10626.7
-7542.34
-9637.09
-8076.32
-8626.06
-8303.42
-7564.91
-8199.1
-6498.09
-7754.41
-5486.48
-6965.85
-4685.17
-5820.2
-4346.8
-4305.79
-4717.35
-2504.52
-5820.25
-781.462
-7305.57
303.926
-8592.14
375.315
-8771
-6776.26
-87.0193
-13462.6
508.538
-16549.2
989.044
-15538.8
1229.13
-14076.3
1460.89
-12834.1
1703.16
-11785.6
2043.53
-10967.1
2541.61
-10135.2
3272.03
-9356.49
4294.56
-8587.46
5638.74
-7842.28
7260.27
-7108.03
8977.1
-6402
10422.6
-5792.27
11100.8
-5395.62
10605.4
-5324.86
8851.45
-5551.6
6098.46
-5839.14
2981.23
-5653.78
-3795.03
390.422
-13853
1252.8
-17411.5
1891.4
-16177.3
2277.09
-14462
2780.41
-13337.4
3343.86
-12349
3930.75
-11553.9
4508.61
-10713
5086.34
-9934.2
5669.54
-9170.62
6272.41
-8445.14
6907.47
-7743.06
7562.18
-7056.71
8145.83
-6375.89
8463.05
-5712.84
8228.25
-5090.05
7225.59
-4548.94
5377.74
-3991.29
2907.26
-3183.32
-887.762
803.357
-14656.3
1508.35
-18116.5
1881.52
-16550.5
2157.52
-14738
2617.96
-13797.8
3079.82
-12810.9
3550.28
-12024.4
3984.33
-11147.1
4395.81
-10345.7
4757.65
-9532.46
5056.21
-8743.71
5272.68
-7959.52
5400.42
-7184.46
5430.66
-6406.14
5338.07
-5620.26
5040.68
-4792.67
4412.79
-3921.06
3318.32
-2896.83
1681.86
-1546.89
794.101
1346.78
-16003.1
1753.91
-18523.7
2002.7
-16799.3
2420.98
-15156.3
3015.13
-14392
3577.59
-13373.4
4176.36
-12623.2
4775.41
-11746.1
5404.08
-10974.4
6011.52
-10139.9
6552.15
-9284.34
6946.86
-8354.23
7130.56
-7368.16
7051.49
-6327.06
6681.89
-5250.66
5998.57
-4109.35
4980.64
-2903.13
3613.62
-1529.83
1846.82
219.906
2640.92
1607.17
-17610.3
1485.94
-18402.5
1702.95
-17016.3
2183.77
-15637.1
2804.6
-15012.8
3433.03
-14001.8
4176.76
-13366.9
4992
-12561.4
5918.18
-11900.6
6853.31
-11075
7700.15
-10131.2
8308.95
-8963.05
8591.21
-7650.43
8487.93
-6223.8
7962.19
-4724.94
6924.7
-3071.88
5178.68
-1157.12
3134.53
514.298
1353.83
2000.58
3994.75
829.471
-18439.7
60.0026
-17633
-92.1993
-16864.1
-101.939
-15627.4
-30.0674
-15084.7
87.4161
-14119.3
315.481
-13595
640.111
-12886
1064.3
-12324.8
1470.55
-11481.3
1720.56
-10381.2
1673.11
-8915.62
1294.25
-7271.57
619.404
-5548.97
-240.887
-3864.66
-1084.42
-2228.37
-1607.12
-634.448
-2029.6
936.76
-1935.73
1906.69
2059.02
-416.804
-18023
-1349.98
-16699.9
-2012.76
-16201.4
-2730.69
-14909.5
-3427.32
-14388.1
-4159.83
-13386.8
-4897.4
-12857.5
-5647.98
-12135.5
-6414.49
-11558.3
-7206.59
-10689.3
-8048.79
-9539.02
-8931.64
-8032.8
-9843.55
-6359.67
-10764.9
-4627.65
-11616.6
-3013
-12096.1
-1748.85
-11602.7
-1127.84
-9320.16
-1345.78
-5092.08
-2321.39
-3033.06
-595.526
-17427.5
-1228.5
-16066.9
-1830.75
-15599.2
-2634.44
-14105.8
-3404.97
-13617.6
-4342.59
-12449.2
-5362.19
-11837.9
-6542.01
-10955.7
-7820.67
-10279.6
-9076.75
-9433.19
-10111.7
-8504.12
-10736.6
-7407.86
-10850.7
-6245.57
-10425
-5053.37
-9490.12
-3947.91
-8056.13
-3182.85
-6059.81
-3124.18
-3535.72
-3869.88
-1167.65
-4689.47
-4200.71
164.061
-17591.6
161.041
-16063.9
275.026
-15713.2
288.495
-14119.3
327.316
-13656.5
319.625
-12441.6
251.947
-11770.2
116.44
-10820.2
-92.626
-10070.6
-266.465
-9259.41
-257.43
-8513.19
89.9351
-7755.29
853.604
-7009.28
2056.9
-6256.73
3613.07
-5504.11
5164.5
-4734.32
6008.73
-3968.41
5353.24
-3214.4
3071.04
-2407.28
-1129.67
116.969
-17708.5
82.158
-16029.1
211.889
-15842.9
457.243
-14364.7
698.769
-13898
1104
-12846.9
1519.84
-12186.1
2056.78
-11357.2
2635.8
-10649.6
3292.96
-9916.59
4008.45
-9228.71
4801.81
-8548.66
5668.65
-7876.14
6575.34
-7163.44
7401.56
-6330.35
7874.49
-5207.27
7582.16
-3676.09
5998.87
-1631.12
3267.27
324.288
2137.6
-1032.07
-16676.5
-2181.51
-14879.7
-3009.8
-15014.6
-3504.21
-13870.3
-3914.5
-13487.7
-4032.43
-12728.9
-4031.33
-12187.2
-3826.13
-11562.4
-3480.65
-10995.1
-2984.68
-10412.6
-2369.59
-9843.82
-1645.76
-9272.51
-822.51
-8699.4
90.3426
-8076.3
1032.61
-7272.63
1838.89
-6013.56
2201.02
-4038.23
1856.49
-1286.62
837.291
1343.46
2974.89
-2103.59
-14572.9
-4460.62
-12522.7
-6789.99
-12685.3
-8703.93
-11956.4
-10508.9
-11682.8
-11979.1
-11258.7
-13240.3
-10926
-14231.1
-10571.7
-14992.2
-10234
-15513.7
-9891.13
-15808.7
-9548.79
-15877.1
-9204.09
-15719.9
-8856.66
-15308.4
-8487.76
-14554.2
-8026.87
-13242.1
-7325.65
-11082.4
-6197.95
-7840.06
-4528.95
-3949.12
-2547.48
-974.234
-5472.92
-8895.6
-12480.9
-15337.3
-17920.1
-20078.8
-21904.8
-23376.5
-24510.4
-25301.6
-25750.4
-25854.5
-25611.1
-24998.9
-23925.7
-22151.4
-19249.3
-14678.3
-8125.77
-5471.72
14571.7
-8894.38
12522.7
-12479.8
12685.4
-15336.8
11957
-17920.6
11683.8
-20080.7
11260.1
-21908.3
10927.6
-23381.8
10573.5
-24517.9
10236.1
-25311.5
9893.61
-25763.5
9552.02
-25872.2
9208.67
-25635.1
8862.89
-25029.2
8494.09
-23957.1
8027.91
-22171.2
7314.09
-19245.8
6174.64
-14657.5
4511.64
-8110.81
2553.33
989.187
-2111.12
16682.8
-4475.62
14887.1
-6812.54
15022.3
-8734.94
13879.4
-10548.7
13497.5
-12028.5
12740
-13300.2
12199.3
-14302.2
11575.5
-15075.3
11009.2
-15609.1
10427.4
-15917
9859.84
-15998.9
9290.6
-15856.4
8720.4
-15459.5
8097.15
-14713.3
7281.71
-13392.3
5993.09
-11202.9
3985.2
-7910.57
1219.36
-3966.67
-1390.57
-2977.48
-1038.43
17721.2
-2196.46
16045.2
-3031.36
15857.2
-3534.44
14382.5
-3951.86
13914.9
-4079.79
12867.9
-4088.12
12207.6
-3894.98
11382.3
-3561.45
10675.6
-3077.14
9943.1
-2470.31
9253
-1750.01
8570.29
-925.25
7895.63
-8.7925
7180.68
933.005
6339.91
1729.97
5196.12
2079.54
3635.62
1744.72
1554.16
765.885
-411.754
-2211.59
128.496
17592.7
88.6692
16085
221.807
15724
477.168
14127.1
726.859
13665.2
1144.77
12450
1574.98
11777.4
2132.35
10824.9
2736.36
10071.6
3420.8
9258.66
4154.85
8518.95
4945.14
7780
5774.39
7066.38
6612.59
6342.48
7362.05
5590.44
7766.13
4792.04
7425.06
3976.69
5823.88
3155.34
3126.18
2285.94
914.585
212.504
17380.2
276.149
16021.3
445.373
15554.8
528.131
14044.4
636.588
13556.8
713.506
12373
735.006
11755.9
703.31
10856.6
605.994
10168.9
547.05
9317.59
657.999
8407.99
1083.38
7354.61
1900.21
6249.54
3128.14
5114.54
4646.95
4071.62
6042.58
3396.4
6594.13
3425.13
5618.77
4130.7
3159.24
4745.47
4073.82
-507.752
17888
-1080.4
16594
-1594.35
16068.8
-2300.54
14750.6
-2988.78
14245
-3827.42
13211.7
-4749.71
12678.2
-5821.49
11928.4
-6996.92
11344.4
-8147.1
10467.8
-9060.87
9321.77
-9537.92
7831.65
-9483.88
6195.5
-8887.01
4517.66
-7801.77
2986.39
-6272.99
1867.62
-4330.56
1482.71
-2178.79
1978.93
-498.395
3065.08
3575.43
-310.567
18198.5
-1147.91
17431.3
-1763.67
16684.5
-2530.27
15517.1
-3175.75
14890.5
-3931.5
13967.4
-4657.08
13403.8
-5437.78
12709.1
-6235.34
12141.9
-7072.43
11304.8
-7977.83
10227.2
-8949.31
8803.13
-9945.87
7192.06
-10939.1
5510.93
-11819.8
3867.08
-12214.4
2262.21
-11425.6
693.946
-8834.71
-612.005
-4615.63
-1153.99
-1040.2
811.722
17386.8
815.665
17427.4
1028.02
16472.1
1107.13
15438
1373.19
14624.4
1552.78
13787.8
1850.75
13105.8
2141.49
12418.4
2483.63
11799.8
2726.17
11062.3
2761.88
10191.5
2464.97
9100.05
1825.3
7831.74
885.858
6450.37
-238.536
4991.49
-1359.21
3382.89
-2259.49
1594.25
-2693.49
-177.997
-2274.44
-1573.02
-3314.64
1358.65
16028.2
2354.57
16431.4
3302.33
15524.4
4110.6
14629.8
4924.47
13810.6
5674.31
13038
6447.16
12332.9
7185.18
11680.3
7917.45
11067.5
8576.31
10403.4
9134.51
9633.25
9484.28
8750.27
9522.03
7793.99
9192.53
6779.87
8460.72
5723.3
7246.06
4597.55
5439.6
3400.72
3193.71
2067.89
1222.07
398.624
-2092.57
1190.25
14837.9
2335.4
15286.3
3265.35
14594.4
3983.5
13911.6
4578.7
13215.3
5098.43
12518.2
5579.56
11851.8
6001.59
11258.3
6361.26
10707.8
6667.28
10097.4
6932.09
9368.44
7097.76
8584.61
7097.57
7794.17
6879.02
6998.43
6413.53
6188.79
5679.06
5332.03
4663.06
4416.72
3375.5
3355.45
1814.4
1959.73
-278.169
771.142
14066.8
1588.2
14469.2
2097.34
14085.3
2388.25
13620.7
2597.9
13005.7
2857.93
12258.2
3258.08
11451.7
3832.27
10684.1
4412.57
10127.5
4801.98
9708.02
4984.08
9186.34
5057
8511.7
5054.12
7797.06
4959.77
7092.78
4733.93
6414.63
4312.27
5753.69
3627.83
5101.16
2634.8
4348.47
1320.39
3274.15
1042.22
280.785
13786
438.405
14311.6
247.824
14275.9
-111.356
13979.9
-431.044
13325.4
-463.017
12290.2
47.6427
10941
1119.3
9612.48
2459.25
8787.58
3873.04
8294.24
5125.72
7933.66
6150.72
7486.71
6929.44
7018.34
7373.33
6648.89
7386.58
6401.38
6864.39
6275.89
5769.5
6196.05
4142.59
5975.37
2179.7
5237.04
3221.92
-365.362
14151.4
-1083.21
15029.5
-2106.4
15299.1
-3243.24
15116.7
-4337.22
14419.4
-5157.78
13110.8
-5413.19
11196.4
-5030.06
9229.35
-4077.83
7835.36
-2619.85
6836.26
-885.324
6199.14
972.851
5628.53
2905.3
5085.9
4715.21
4838.99
6076.79
5039.8
6597.39
5755.28
6046.21
6747.24
4473.28
7548.3
2255.44
7454.88
5477.36
-1580.53
15731.9
-3166.88
16615.8
-4792.5
16924.7
-6428.88
16753.1
-8165
16155.5
-10040.7
14986.4
-11965.3
13121
-13685.4
10949.4
-15006.8
9156.77
-15962.8
7792.31
-16563.3
6799.67
-16743.6
5808.76
-16363.4
4705.73
-15260
3735.57
-13286
3065.79
-10418.2
2887.52
-7013.31
3342.35
-3743.33
4278.33
-1229.04
4940.59
4248.32
-810.49
16542.4
-2044.75
17850.1
-2844.79
17724.7
-3387.48
17295.8
-3955.75
16723.8
-4845.82
15876.5
-6291.14
14566.3
-8208.94
12867.2
-10322.3
11270.1
-12417.4
9887.39
-14352.2
8734.5
-16159.5
7616.04
-17833.1
6379.36
-19134.9
5037.32
-19633.4
3564.38
-18804.3
2058.4
-16217.4
755.474
-11545.3
-393.81
-5555.42
-1049.29
-1307.09
1618.05
14924.3
1866.65
17601.5
2633.57
16957.8
3849.1
16080.3
5263.92
15308.9
6567.82
14572.6
7384.64
13749.5
7503.77
12748.1
7086.71
11687.2
6347.97
10626.1
5489.37
9593.1
4524.64
8580.78
3349.3
7554.71
1906.81
6479.82
181.915
5289.29
-1575.17
3815.49
-2839.44
2019.77
-3022.6
-210.637
-2349.59
-1722.29
-3656.68
2730.9
12193.4
4248.14
16084.2
5771.77
15434.2
7529.63
14322.4
9472.57
13366
11456.4
12588.8
13288.9
11917
14762.3
11274.7
15829
10620.6
16518
9937.06
16884.3
9226.86
16952.8
8512.26
16681.3
7826.2
15991.3
7169.79
14766.7
6513.97
12817.2
5764.91
9985.03
4851.98
6117.91
3656.48
2412.11
1983.52
-1244.58
2076.93
10116.5
3817.57
14343.6
5276.94
13974.8
6640.4
12959
7960.81
12045.6
9207.49
11342.1
10326.5
10797.9
11258.5
10342.7
11958.2
9920.91
12413.5
9481.72
12621
9019.34
12570.5
8562.81
12244.8
8151.85
11623.6
7791.02
10686.8
7450.75
9395.9
7055.84
7712.09
6535.78
5605.94
5762.64
3133.55
4455.91
1888.98
1137.2
8979.29
2424.46
13056.3
3507.13
12892.1
4369.1
12097
5098.03
11316.7
5717.46
10722.7
6297.82
10217.5
6773.41
9867.13
7142.44
9551.88
7419.82
9204.33
7609.15
8830.02
7696.13
8475.83
7663.56
8184.42
7487.54
7967.04
7128.85
7809.44
6493.63
7691.05
5468.11
7561.31
3950.96
7279.8
2048.32
6358.57
3937.29
881.851
2647.72
4186.15
5351.64
6228.06
6915.24
7245.27
7371.49
7417.46
7396.61
7310.12
7158.27
6946.44
6673.59
6321.03
5820.16
5070.55
3944.18
2324.28
)
;

boundaryField
{
    outletWall
    {
        type            calculated;
        value           nonuniform List<scalar> 
60
(
55700.5
-16624.7
-41596.2
-33189.4
7144.3
48663.6
51461.5
29905.8
-67969
-89023.3
-95194.4
-110509
-116006
-118823
-117117
-112649
-99711.7
-94268.6
-59754
-3682.39
23681
19205.2
20916.2
24474.4
30697.1
39393
48828.4
58044.6
66896.7
75319.9
84038
97652.9
120479
138995
135109
111478
82536.4
57696.7
38687.2
24198.2
-28931.2
-1601.69
-62897.2
-74648.3
-101943
-103794
-94586.8
-68279.8
8383.04
90122
115696
112190
105890
105833
122789
117327
713.564
-123302
-97753.2
27710
)
;
    }
    fineWalls
    {
        type            calculated;
        value           uniform 0;
    }
    fineFrontAndBack
    {
        type            calculated;
        value           nonuniform List<scalar> 
960
(
2.14928e-13
-4.83487e-12
-4.31222e-13
-1.73725e-13
-7.5877e-12
-8.67235e-13
-7.38571e-13
-2.00089e-13
-1.27239e-11
-2.19476e-12
-1.57725e-12
-1.13265e-11
-8.35248e-13
-6.92383e-13
-2.10812e-11
-4.858e-12
-6.09146e-12
-3.82218e-11
-1.01757e-11
-1.27444e-11
-3.53373e-12
-4.40442e-12
-4.33965e-12
-4.03117e-12
-3.80277e-12
-3.89169e-12
-4.56633e-11
-4.8106e-12
-4.97644e-12
-4.93833e-12
-4.97925e-12
-5.27199e-12
-5.58954e-12
-5.59011e-12
-5.14801e-12
-4.2046e-12
-2.97299e-12
-2.57435e-12
-2.26429e-12
-4.26787e-12
2.75666e-11
1.23765e-11
9.44182e-12
2.38649e-12
-2.06822e-11
-7.92046e-12
-8.43904e-12
-7.27132e-12
-6.15367e-11
-1.75876e-11
-8.82367e-12
7.71784e-11
1.36383e-11
1.55271e-11
1.57445e-11
7.18539e-11
4.26664e-12
-3.02986e-12
-7.28166e-12
4.41832e-11
8.38733e-12
5.54197e-12
6.37619e-12
6.32789e-12
6.6432e-12
6.90572e-12
7.32308e-12
7.58184e-12
7.55138e-12
7.34543e-12
7.19793e-12
7.3008e-12
7.57801e-12
7.19917e-11
6.71245e-12
6.39674e-12
6.57917e-12
7.12574e-12
7.46773e-12
6.17874e-12
2.718e-11
2.59607e-11
1.427e-10
2.51426e-11
2.3643e-11
1.191e-10
2.03802e-11
1.96886e-11
1.19478e-10
2.58163e-11
3.21487e-11
1.86274e-10
4.46119e-11
4.57713e-11
4.34496e-11
1.72394e-10
2.71841e-11
2.73652e-11
1.31588e-10
3.54296e-11
4.89268e-11
3.88193e-11
2.64607e-11
1.89454e-11
1.32028e-11
1.30953e-11
1.95955e-11
3.23535e-11
4.54965e-11
4.83839e-11
4.21682e-11
4.04362e-11
5.20357e-11
6.77512e-11
8.51849e-11
9.72292e-11
1.22177e-10
1.52474e-10
1.45844e-10
5.25533e-11
3.33033e-11
2.48064e-11
1.85413e-11
1.3121e-11
1.32324e-11
1.99357e-11
3.27329e-11
4.56347e-11
4.83722e-11
4.21809e-11
4.02926e-11
4.83361e-11
6.58823e-11
8.53071e-11
9.47232e-11
1.12013e-10
1.44468e-10
1.31722e-10
6.36068e-11
3.07293e-11
2.00137e-11
1.70966e-11
1.30034e-11
1.34936e-11
2.04287e-11
3.32698e-11
4.58491e-11
4.83107e-11
4.21465e-11
4.01674e-11
5.0749e-11
7.75299e-11
1.06569e-10
1.19211e-10
1.12495e-10
1.37314e-10
1.11019e-10
7.87997e-11
4.02151e-11
1.46967e-11
1.38092e-11
1.23744e-11
1.37876e-11
2.10725e-11
3.39395e-11
4.6098e-11
4.81597e-11
4.19197e-11
4.01591e-11
6.60159e-11
1.0477e-10
1.52329e-10
1.81412e-10
1.33687e-10
1.34633e-10
1.21059e-10
8.59914e-11
5.70877e-11
1.77791e-11
9.63457e-12
1.08415e-11
1.4107e-11
2.19014e-11
3.48042e-11
4.64305e-11
4.79188e-11
4.13643e-11
4.2352e-11
9.09033e-11
1.41399e-10
2.11161e-10
2.48596e-10
1.63249e-10
1.36895e-10
1.18034e-10
6.44912e-11
4.36691e-11
2.99763e-11
1.29637e-11
8.84306e-12
1.4513e-11
2.33305e-11
3.60215e-11
4.67839e-11
4.6733e-11
4.15213e-11
4.70945e-11
1.11936e-10
1.73036e-10
2.50005e-10
2.64182e-10
1.68113e-10
1.52969e-10
9.06529e-11
7.6103e-12
-2.74007e-11
-9.41938e-12
1.83554e-11
1.36974e-11
1.50677e-11
2.59262e-11
3.80649e-11
4.71908e-11
4.60973e-11
4.16769e-11
5.75707e-11
1.33677e-10
1.96183e-10
2.62318e-10
2.69138e-10
1.89017e-10
1.24445e-10
8.36058e-12
-6.23279e-11
-1.156e-10
-8.04224e-11
-6.46502e-12
2.82431e-11
1.84627e-11
2.78171e-11
4.13813e-11
4.8194e-11
4.43908e-11
3.78943e-11
6.74069e-11
1.55175e-10
2.00595e-10
2.36815e-10
2.43244e-10
1.97169e-10
8.81829e-11
2.28872e-11
-1.10318e-10
-1.66401e-10
-1.21721e-10
-2.82905e-11
4.37944e-11
3.23907e-11
3.34942e-11
4.11647e-11
4.68231e-11
4.26742e-11
5.3699e-11
1.12943e-10
1.5657e-10
1.65325e-10
1.56434e-10
1.62462e-10
1.94542e-10
2.02935e-10
1.60171e-10
-1.26314e-10
-1.75757e-10
-1.29397e-10
-2.96262e-11
5.56508e-11
3.44372e-11
1.24794e-11
3.98751e-11
4.40101e-11
4.39076e-11
2.52442e-11
-3.44462e-11
1.17456e-10
7.12296e-11
4.52535e-11
3.33153e-11
6.75719e-11
1.33337e-10
1.50108e-10
-1.20716e-10
-1.64524e-10
-1.26501e-10
-2.73612e-11
8.82612e-11
7.51076e-11
4.84932e-11
4.31775e-11
4.54335e-11
3.90199e-11
-8.19942e-13
-3.73945e-11
5.67806e-11
-1.62381e-11
-7.13178e-11
-8.69321e-11
-5.80495e-11
-1.3007e-11
-1.2631e-11
-1.02293e-10
-1.42883e-10
-1.18867e-10
-3.81644e-11
7.3154e-11
8.851e-11
6.9142e-11
5.2629e-11
4.75218e-11
2.68038e-11
-1.36868e-11
-2.10387e-11
-6.20154e-13
-7.30296e-11
-1.21321e-10
-1.1488e-10
-8.20584e-11
-4.51586e-11
-3.04227e-11
-7.7064e-11
-1.15929e-10
-1.08563e-10
-4.54321e-11
4.35063e-11
5.60665e-11
5.41596e-11
4.78671e-11
3.53066e-11
9.71283e-12
-1.56363e-11
-2.13391e-11
-4.08122e-11
-9.43377e-11
-1.0932e-10
-8.88744e-11
-5.43546e-11
3.81652e-11
7.59586e-11
-4.72775e-11
-8.55767e-11
-9.83144e-11
-5.59777e-11
1.86053e-11
2.47358e-11
2.84344e-11
2.96486e-11
1.98422e-11
3.63206e-12
-9.95748e-12
-2.49725e-11
-5.91541e-11
-9.21644e-11
-8.43181e-11
-7.68624e-11
-9.01247e-11
-7.7793e-11
1.26136e-11
-1.74988e-11
-5.61696e-11
-8.72602e-11
-6.8166e-11
-2.15696e-12
6.26221e-12
1.2474e-11
1.97193e-11
1.89475e-11
1.22497e-11
6.19491e-13
-2.24948e-11
-5.89171e-11
-7.58528e-11
-6.4299e-11
-7.66224e-11
-9.69303e-11
-8.67933e-11
-1.93585e-11
1.01276e-11
-3.03909e-11
-7.53351e-11
-8.07683e-11
-2.23664e-11
-7.69439e-12
1.24414e-12
1.50107e-11
2.35996e-11
2.34043e-11
1.13896e-11
-1.58119e-11
-4.9308e-11
-5.61014e-11
-5.6689e-11
-8.08754e-11
-1.03134e-10
-9.16691e-11
-6.85459e-11
3.45782e-11
-9.74509e-12
-6.28015e-11
-9.22566e-11
-4.27608e-11
-2.06963e-11
-1.12682e-11
5.73798e-12
2.15964e-11
2.77077e-11
1.84061e-11
-7.78192e-12
-3.76373e-11
-4.20073e-11
-5.75724e-11
-8.63198e-11
-1.0826e-10
-9.24961e-11
-8.82193e-11
5.49668e-11
6.4449e-12
-5.03434e-11
-1.01481e-10
-6.41693e-11
-3.40854e-11
-2.51343e-11
-9.54481e-12
1.00637e-11
2.25589e-11
1.94484e-11
-2.23774e-12
-3.05693e-11
-3.8769e-11
-6.10948e-11
-9.07487e-11
-1.09808e-10
-9.12409e-11
-7.68777e-11
6.9841e-11
1.87387e-11
-3.93352e-11
-1.0526e-10
-8.47435e-11
-4.37665e-11
-3.33527e-11
-2.35353e-11
-5.01444e-12
1.23988e-11
1.64145e-11
-9.54502e-13
-2.72453e-11
-3.94263e-11
-6.29053e-11
-9.21426e-11
-1.09807e-10
-8.91135e-11
-7.26245e-11
8.76947e-11
2.62438e-11
-3.13587e-11
-1.02734e-10
-1.16652e-10
-7.46519e-11
-5.12796e-11
-4.20201e-11
-2.95391e-11
-1.32173e-11
-1.84758e-12
-7.84248e-12
-2.43799e-11
-3.96213e-11
-6.34367e-11
-9.2945e-11
-1.10131e-10
-8.70165e-11
-6.82397e-11
-2.14928e-13
4.83487e-12
4.31222e-13
1.73725e-13
7.5877e-12
8.67235e-13
7.38571e-13
2.00089e-13
1.27239e-11
2.19476e-12
1.57725e-12
1.13265e-11
8.35248e-13
6.92383e-13
2.10812e-11
4.858e-12
6.09146e-12
3.82218e-11
1.01757e-11
1.27444e-11
3.53373e-12
4.40442e-12
4.33965e-12
4.03117e-12
3.80277e-12
3.89169e-12
4.56633e-11
4.8106e-12
4.97644e-12
4.93833e-12
4.97925e-12
5.27199e-12
5.58954e-12
5.59011e-12
5.14801e-12
4.2046e-12
2.97299e-12
2.57435e-12
2.26429e-12
4.26787e-12
-2.75666e-11
-1.23765e-11
-9.44182e-12
-2.38649e-12
2.06822e-11
7.92046e-12
8.43904e-12
7.27132e-12
6.15367e-11
1.75876e-11
8.82367e-12
-7.71784e-11
-1.36383e-11
-1.55271e-11
-1.57445e-11
-7.18539e-11
-4.26664e-12
3.02986e-12
7.28166e-12
-4.41832e-11
-8.38733e-12
-5.54197e-12
-6.37619e-12
-6.32789e-12
-6.6432e-12
-6.90572e-12
-7.32308e-12
-7.58184e-12
-7.55138e-12
-7.34543e-12
-7.19793e-12
-7.3008e-12
-7.57801e-12
-7.19917e-11
-6.71245e-12
-6.39674e-12
-6.57917e-12
-7.12574e-12
-7.46773e-12
-6.17874e-12
-2.718e-11
-2.59607e-11
-1.427e-10
-2.51426e-11
-2.3643e-11
-1.191e-10
-2.03802e-11
-1.96886e-11
-1.19478e-10
-2.58163e-11
-3.21487e-11
-1.86274e-10
-4.46119e-11
-4.57713e-11
-4.34496e-11
-1.72394e-10
-2.71841e-11
-2.73652e-11
-1.31588e-10
-3.54296e-11
-4.89268e-11
-3.88193e-11
-2.64607e-11
-1.89454e-11
-1.32028e-11
-1.30953e-11
-1.95955e-11
-3.23535e-11
-4.54965e-11
-4.83839e-11
-4.21682e-11
-4.04362e-11
-5.20357e-11
-6.77512e-11
-8.51849e-11
-9.72292e-11
-1.22177e-10
-1.52474e-10
-1.45844e-10
-5.25533e-11
-3.33033e-11
-2.48064e-11
-1.85413e-11
-1.3121e-11
-1.32324e-11
-1.99357e-11
-3.27329e-11
-4.56347e-11
-4.83722e-11
-4.21809e-11
-4.02926e-11
-4.83361e-11
-6.58823e-11
-8.53071e-11
-9.47232e-11
-1.12013e-10
-1.44468e-10
-1.31722e-10
-6.36068e-11
-3.07293e-11
-2.00137e-11
-1.70966e-11
-1.30034e-11
-1.34936e-11
-2.04287e-11
-3.32698e-11
-4.58491e-11
-4.83107e-11
-4.21465e-11
-4.01674e-11
-5.0749e-11
-7.75299e-11
-1.06569e-10
-1.19211e-10
-1.12495e-10
-1.37314e-10
-1.11019e-10
-7.87997e-11
-4.02151e-11
-1.46967e-11
-1.38092e-11
-1.23744e-11
-1.37876e-11
-2.10725e-11
-3.39395e-11
-4.6098e-11
-4.81597e-11
-4.19197e-11
-4.01591e-11
-6.60159e-11
-1.0477e-10
-1.52329e-10
-1.81412e-10
-1.33687e-10
-1.34633e-10
-1.21059e-10
-8.59914e-11
-5.70877e-11
-1.77791e-11
-9.63457e-12
-1.08415e-11
-1.4107e-11
-2.19014e-11
-3.48042e-11
-4.64305e-11
-4.79188e-11
-4.13643e-11
-4.2352e-11
-9.09033e-11
-1.41399e-10
-2.11161e-10
-2.48596e-10
-1.63249e-10
-1.36895e-10
-1.18034e-10
-6.44912e-11
-4.36691e-11
-2.99763e-11
-1.29637e-11
-8.84306e-12
-1.4513e-11
-2.33305e-11
-3.60215e-11
-4.67839e-11
-4.6733e-11
-4.15213e-11
-4.70945e-11
-1.11936e-10
-1.73036e-10
-2.50005e-10
-2.64182e-10
-1.68113e-10
-1.52969e-10
-9.06529e-11
-7.6103e-12
2.74007e-11
9.41938e-12
-1.83554e-11
-1.36974e-11
-1.50677e-11
-2.59262e-11
-3.80649e-11
-4.71908e-11
-4.60973e-11
-4.16769e-11
-5.75707e-11
-1.33677e-10