/*--------------------------------*- C++ -*----------------------------------*\
| =========                 |                                                 |
| \\      /  F ield         | OpenFOAM: The Open Source CFD Toolbox           |
|  \\    /   O peration     | Version:  4.1                                   |
|   \\  /    A nd           | Web:      www.OpenFOAM.org                      |
|    \\/     M anipulation  |                                                 |
\*---------------------------------------------------------------------------*/
FoamFile
{
    version     2.0;
    format      ascii;
    class       volVectorField;
    location    "27";
    object      U;
}
// * * * * * * * * * * * * * * * * * * * * * * * * * * * * * * * * * * * * * //

dimensions      [0 1 -1 0 0 0 0];

internalField   nonuniform List<vector> 
1280
(
(1.55323e-16 9.52889 0.280194)
(-8.21732e-16 11.1662 -1.67447)
(-2.97662e-16 11.2128 -1.53204)
(-1.25546e-16 11.6912 -1.52959)
(-1.2896e-15 13.9335 -4.59151)
(-6.26728e-16 13.2366 -3.95017)
(-5.30405e-16 14.8503 -4.25162)
(-1.21431e-16 14.5723 -4.16681)
(-2.31357e-15 18.1844 -8.22415)
(-1.59541e-15 17.5064 -6.49857)
(-1.13984e-15 19.0321 -5.96287)
(-1.68876e-15 22.8787 -11.8182)
(-6.03612e-16 22.26 -9.51213)
(-5.00367e-16 24.3782 -8.65506)
(-3.91809e-15 29.943 -18.2014)
(-3.51075e-15 29.391 -14.2627)
(-4.40214e-15 32.9648 -13.0931)
(-6.49617e-15 36.8967 -26.3394)
(-7.35372e-15 41.1695 -19.5597)
(-9.21008e-15 39.7454 -29.0331)
(-1.44974e-14 41.9269 30.8487)
(-1.80694e-14 41.8057 63.5322)
(-1.78037e-14 43.0925 81.4992)
(-1.65381e-14 45.5186 90.4253)
(-1.56011e-14 46.9618 95.1835)
(-1.59659e-14 50.0525 99.027)
(-9.626e-15 45.5947 74.2543)
(-1.97358e-14 82.5914 124.528)
(-2.04161e-14 82.6354 124.928)
(-2.02598e-14 83.5162 124.273)
(-2.04277e-14 83.6888 123.36)
(-2.16287e-14 83.6782 122.215)
(-2.29315e-14 83.6025 120.898)
(-2.29338e-14 83.3123 119.351)
(-2.112e-14 83.0353 117.35)
(-1.72496e-14 82.4347 114.696)
(-1.21969e-14 82.2465 111.904)
(-1.05614e-14 81.164 109.98)
(-9.28941e-15 81.523 111.689)
(-1.75092e-14 78.8152 112.852)
(4.79836e-15 97.9545 127.958)
(9.94099e-15 57.6137 91.7179)
(7.58379e-15 47.906 90.6006)
(1.91686e-15 36.7944 84.2623)
(-2.62683e-15 27.5745 75.1885)
(-6.36182e-15 17.2874 44.898)
(-6.77835e-15 12.1453 43.06)
(-5.84042e-15 7.21927 35.9381)
(-9.26605e-15 3.58503 19.234)
(-1.44633e-14 0.66073 13.4082)
(-7.23833e-15 -1.49682 11.2273)
(1.3434e-14 -3.71591 9.73913)
(1.09545e-14 -5.99592 26.516)
(1.24716e-14 -9.581 36.0612)
(1.26462e-14 -14.4072 40.5901)
(1.25072e-14 -22.6384 66.1716)
(3.42702e-15 -31.1025 74.1421)
(-2.43362e-15 -40.0903 80.3159)
(-5.84873e-15 -49.9464 84.4521)
(5.44269e-15 -93.6156 127.749)
(3.44095e-14 -68.0499 123.898)
(2.27363e-14 -69.9064 129.145)
(2.61587e-14 -68.7643 125.359)
(2.59606e-14 -69.3182 122.631)
(2.72542e-14 -68.8637 121.351)
(2.83311e-14 -68.9842 121.694)
(3.00434e-14 -68.8407 122.778)
(3.1105e-14 -68.8712 123.782)
(3.098e-14 -68.757 124.605)
(3.01351e-14 -68.6337 125.233)
(2.953e-14 -68.3761 125.652)
(2.9952e-14 -67.8923 125.766)
(3.10893e-14 -67.2926 124.999)
(1.51761e-14 -35.5939 82.1092)
(2.75383e-14 -38.8212 94.5786)
(2.62431e-14 -36.7499 89.5199)
(2.69915e-14 -36.6913 82.5536)
(2.92338e-14 -35.7261 72.0705)
(3.06368e-14 -34.6848 56.5755)
(2.53487e-14 -34.9482 32.5437)
(1.96423e-14 -29.2916 -31.9475)
(1.86456e-14 -34.0709 -24.8561)
(2.42533e-14 -25.6516 -31.8811)
(1.81699e-14 -25.4984 -19.1804)
(1.70862e-14 -20.2682 -20.9838)
(2.00019e-14 -20.9481 -25.8916)
(1.46713e-14 -15.5099 -16.0218)
(1.42769e-14 -12.4527 -17.1944)
(2.07007e-14 -11.4938 -21.1721)
(1.84409e-14 -7.45981 -13.0619)
(2.3233e-14 -5.0865 -13.944)
(3.30667e-14 -3.65364 -18.6593)
(3.32793e-14 -0.337925 -13.7571)
(3.30778e-14 1.47162 -14.1567)
(3.13999e-14 3.72619 -13.8402)
(2.92999e-14 6.49371 -19.9975)
(1.96452e-14 8.43152 -15.1935)
(1.97761e-14 12.22 -14.1206)
(2.23777e-14 10.376 -19.989)
(2.56041e-14 18.2277 -21.2179)
(5.43631e-15 -1.54098 19.5054)
(4.31326e-15 -19.3819 13.3863)
(2.94007e-15 -31.2435 13.2833)
(2.10505e-15 -33.0656 11.0228)
(1.46697e-15 -37.3858 8.86568)
(1.45504e-15 -38.9468 7.64305)
(2.17727e-15 -39.527 6.03775)
(3.59484e-15 -38.6199 4.81706)
(5.05517e-15 -36.8079 3.09629)
(5.37599e-15 -31.7552 0.819467)
(4.68535e-15 -29.7756 -1.88744)
(4.49291e-15 -22.8636 -4.52874)
(5.78175e-15 10.4047 -10.6723)
(7.52791e-15 17.4311 -17.6855)
(9.46499e-15 16.2685 -24.5527)
(1.08032e-14 2.01684 -28.8536)
(1.35753e-14 -11.1127 -26.8021)
(1.69415e-14 -13.7238 -23.5792)
(1.62049e-14 -5.58982 -24.7053)
(5.83926e-15 2.10661 31.8334)
(3.70037e-15 -18.4822 16.7296)
(2.75627e-15 -30.6988 14.1831)
(2.06014e-15 -31.8291 11.5256)
(1.45789e-15 -36.597 8.91289)
(1.47026e-15 -38.119 7.94644)
(2.21508e-15 -38.7261 6.25064)
(3.63699e-15 -37.6973 5.20878)
(5.07052e-15 -35.484 3.61789)
(5.37469e-15 -29.9651 1.48802)
(4.68676e-15 -27.7833 -0.656037)
(4.47695e-15 -19.0302 -4.07496)
(5.37068e-15 14.0899 -12.9768)
(7.32026e-15 22.1199 -21.2746)
(9.47856e-15 20.4019 -30.8041)
(1.05248e-14 3.2856 -38.5942)
(1.24459e-14 -13.4283 -32.5588)
(1.6052e-14 -15.1681 -23.9264)
(1.46358e-14 -6.94991 -20.5455)
(7.06742e-15 5.80459 48.2543)
(3.41436e-15 -13.3014 27.7246)
(2.22374e-15 -28.6707 16.469)
(1.89962e-15 -30.6308 12.6853)
(1.44483e-15 -35.9035 9.15727)
(1.49929e-15 -37.5459 8.4524)
(2.26986e-15 -38.2592 6.65061)
(3.69664e-15 -37.2739 5.77003)
(5.09434e-15 -34.9215 4.39515)
(5.36785e-15 -29.4547 2.48614)
(4.68295e-15 -27.4321 1.41512)
(4.46304e-15 -16.2927 -1.92697)
(5.63878e-15 16.9601 -11.9899)
(8.61443e-15 25.4095 -19.6846)
(1.1841e-14 24.0019 -29.2178)
(1.32456e-14 3.35287 -38.4417)
(1.24995e-14 -16.5342 -36.4756)
(1.52571e-14 -17.9179 -25.2443)
(1.23354e-14 -6.90156 -18.2006)
(8.75552e-15 10.1566 69.2679)
(4.46834e-15 -6.28131 45.924)
(1.63296e-15 -24.0379 21.129)
(1.53435e-15 -28.9137 14.951)
(1.37493e-15 -35.1267 9.93727)
(1.53195e-15 -37.0067 9.21098)
(2.34139e-15 -37.8033 7.3082)
(3.77105e-15 -36.8869 6.53633)
(5.12199e-15 -34.3682 5.35033)
(5.35108e-15 -28.8652 3.65914)
(4.65774e-15 -26.9664 4.12647)
(4.46212e-15 -13.4332 2.11619)
(7.3351e-15 20.6596 -7.982)
(1.16411e-14 28.8585 -11.9178)
(1.69254e-14 28.0798 -17.2257)
(2.01569e-14 5.88036 -23.7962)
(1.48541e-14 -18.6736 -31.6862)
(1.49592e-14 -22.5059 -24.0617)
(1.3451e-14 -9.55725 -18.4376)
(9.55461e-15 14.5268 93.4706)
(6.34308e-15 6.25495 75.1522)
(1.97546e-15 -16.5332 29.275)
(1.07051e-15 -26.0006 16.9319)
(1.20462e-15 -33.8742 11.7895)
(1.56745e-15 -36.3052 10.4349)
(2.43349e-15 -37.3134 8.26797)
(3.86713e-15 -36.482 7.56677)
(5.15894e-15 -33.8067 6.55914)
(5.32432e-15 -28.9878 5.2733)
(4.59604e-15 -27.895 9.28749)
(4.70578e-15 -9.05527 6.74175)
(1.01004e-14 22.7011 0.134048)
(1.5711e-14 29.4893 3.52765)
(2.34623e-14 29.179 6.7695)
(2.76218e-14 7.22556 5.56789)
(1.81388e-14 -16.0598 -17.1532)
(1.52106e-14 -22.0881 -18.1581)
(1.31149e-14 -6.79982 -18.1492)
(7.16569e-15 16.8296 113.212)
(4.85212e-15 19.6074 106.89)
(3.33069e-15 -0.610415 57.379)
(1.44041e-15 -21.351 18.7524)
(9.82562e-16 -33.0381 13.0993)
(1.61255e-15 -35.2992 12.6789)
(2.59228e-15 -36.7768 9.68548)
(4.00239e-15 -36.1422 8.91206)
(5.19821e-15 -33.433 7.98674)
(5.19255e-15 -29.5773 8.01658)
(4.61348e-15 -28.5185 10.9901)
(5.23272e-15 -9.53805 9.6374)
(1.24373e-14 20.8181 11.0703)
(1.92262e-14 26.4443 23.3801)
(2.77784e-14 27.7626 35.5396)
(2.93536e-14 13.449 35.6319)
(1.86792e-14 -12.3456 4.82453)
(1.69966e-14 -23.7491 -3.74069)
(1.00725e-14 -6.59356 -22.695)
(8.45589e-16 16.3613 116.552)
(-3.04453e-15 28.5366 116.517)
(-1.0466e-15 19.2793 83.933)
(2.03949e-15 -9.13726 34.8754)
(1.52193e-15 -31.5962 12.9519)
(1.67419e-15 -34.6994 15.3664)
(2.88069e-15 -35.9351 12.0428)
(4.22943e-15 -35.7813 10.6567)
(5.24343e-15 -33.3312 9.65229)
(5.12192e-15 -30.3672 10.7788)
(4.63077e-15 -29.0744 12.5796)
(6.39675e-15 -8.2507 13.6075)
(1.4853e-14 15.8861 24.7312)
(2.17981e-14 19.6718 46.1785)
(2.91465e-14 24.386 66.005)
(2.99042e-14 19.5428 70.304)
(2.10018e-14 0.743078 40.6847)
(1.38272e-14 -6.94709 6.69091)
(9.28954e-16 14.9713 -8.38771)
(-6.92533e-15 15.8606 101.177)
(-1.28445e-14 33.1561 98.3853)
(-8.93583e-15 31.8913 81.3519)
(-7.18335e-16 7.39409 53.1619)
(3.13812e-15 -25.795 18.6894)
(2.05141e-15 -34.4943 16.9357)
(3.09079e-15 -35.0706 15.0768)
(4.59793e-15 -35.1668 12.8623)
(5.35489e-15 -33.3577 11.544)
(4.93231e-15 -31.2234 13.8227)
(4.21048e-15 -30.0709 18.0573)
(7.48966e-15 -11.6655 20.1863)
(1.72417e-14 7.70032 42.0373)
(2.22883e-14 10.3071 70.072)
(2.63128e-14 18.5393 93.7974)
(2.70271e-14 22.8848 104.246)
(2.19076e-14 11.5044 90.7981)
(9.7981e-15 -10.538 67.1003)
(2.54303e-15 -42.8446 82.4166)
(-1.22576e-14 16.4424 82.1792)
(-1.8489e-14 36.5926 79.086)
(-1.35245e-14 37.3204 69.5206)
(-3.14339e-15 17.5427 58.8799)
(4.86604e-15 -17.8966 31.3147)
(3.59896e-15 -32.6963 20.371)
(3.72157e-15 -34.4913 17.6786)
(4.57385e-15 -34.3363 15.3978)
(5.20257e-15 -33.5713 13.8964)
(4.74158e-15 -32.9487 17.5593)
(5.96656e-15 -32.0727 23.2635)
(1.25492e-14 -17.766 27.8348)
(1.73966e-14 -4.35692 59.0035)
(1.83695e-14 -0.713453 90.7436)
(1.73816e-14 11.373 112.324)
(1.80513e-14 20.8112 121.543)
(2.16157e-14 14.7804 119.128)
(2.25484e-14 -3.54625 104.495)
(1.77967e-14 -15.7428 81.6782)
(-1.40349e-14 16.2413 70.8776)
(-1.95286e-14 38.5247 72.1956)
(-1.43775e-14 39.9567 65.9025)
(-3.2918e-15 23.0465 63.3125)
(6.18342e-15 -11.141 45.2091)
(3.82636e-15 -28.5264 29.05)
(1.27214e-15 -33.2311 21.2974)
(4.43057e-15 -33.6288 18.8426)
(4.89001e-15 -34.1362 18.3528)
(4.87863e-15 -35.0958 22.7354)
(2.80492e-15 -34.4429 27.3505)
(-8.36637e-15 -25.2697 32.6956)
(1.30507e-14 -17.2499 65.1497)
(7.9144e-15 -11.3997 98.3469)
(5.2367e-15 6.20465 114.098)
(3.7017e-15 20.2185 116.773)
(7.50799e-15 19.3172 111.379)
(1.48152e-14 3.47402 90.2644)
(1.66787e-14 -8.36033 46.8153)
(-1.34129e-14 14.8776 63.6831)
(-1.82804e-14 38.9442 68.5803)
(-1.40557e-14 40.9491 63.9144)
(-3.04013e-15 25.6115 67.6258)
(9.8068e-15 -4.99844 59.656)
(8.34529e-15 -22.7404 42.1324)
(5.50072e-15 -30.5031 29.2038)
(4.7975e-15 -33.1456 24.526)
(5.04817e-15 -35.0765 24.5795)
(4.33554e-15 -36.6695 27.4095)
(-9.11047e-17 -36.2557 29.4264)
(-4.15495e-15 -32.8062 37.0396)
(6.30896e-15 -30.3773 69.0429)
(-1.80424e-15 -20.5975 97.7807)
(-7.9242e-15 4.12782 105.117)
(-9.65913e-15 21.8345 101.047)
(-6.44994e-15 25.9375 100.161)
(-1.44522e-15 20.0809 93.1535)
(-1.40345e-15 15.2676 53.9757)
(-1.13659e-14 13.0811 56.7672)
(-1.58759e-14 38.7645 63.4055)
(-1.32074e-14 40.4997 59.3085)
(-4.24049e-15 24.4585 68.5807)
(8.12822e-15 -0.977551 72.9385)
(9.83445e-15 -16.3085 58.7183)
(7.68245e-15 -26.1824 43.0656)
(5.84767e-15 -31.8156 34.0519)
(5.2802e-15 -35.2485 31.0956)
(2.97821e-15 -37.0624 31.0942)
(-1.52076e-15 -38.4369 33.8231)
(-2.33763e-15 -41.0456 48.0449)
(-6.8906e-17 -41.1799 75.5172)
(-8.1144e-15 -25.8033 90.4528)
(-1.34801e-14 4.82338 79.4086)
(-1.27645e-14 21.7955 66.706)
(-9.1176e-15 22.6703 72.3837)
(-5.01762e-15 18.6418 96.7669)
(-3.3803e-15 20.0721 94.6847)
(-8.56267e-15 10.9133 49.5559)
(-1.28809e-14 38.3042 57.3486)
(-1.20625e-14 39.0634 53.3087)
(-5.04801e-15 19.7682 65.8569)
(4.83404e-15 -0.880386 81.2181)
(6.22961e-15 -10.9412 75.7409)
(6.01773e-15 -20.5195 62.9183)
(5.31857e-15 -28.3302 51.7535)
(3.92296e-15 -33.83 45.0626)
(1.0792e-15 -37.8482 44.2564)
(-1.73737e-15 -43.1204 51.1616)
(-2.37101e-15 -49.3298 67.0187)
(-4.53469e-15 -46.9239 82.6949)
(-1.0482e-14 -22.8227 79.0682)
(-1.21467e-14 12.6274 51.7417)
(-9.87493e-15 25.458 34.2726)
(-6.0394e-15 14.0293 28.9991)
(4.24058e-15 9.03726 55.0862)
(8.43985e-15 43.7126 94.179)
(-5.25305e-15 8.49083 42.1925)
(-9.50852e-15 37.7042 50.9966)
(-1.09238e-14 37.3181 46.8652)
(-6.21975e-15 13.0193 59.6154)
(2.06725e-15 -4.54747 80.7202)
(2.74842e-15 -9.29284 85.2003)
(3.15938e-15 -16.5929 81.5051)
(3.29429e-15 -24.7456 74.8809)
(2.20468e-15 -32.2418 69.2681)
(4.03562e-16 -39.4472 69.1349)
(-1.10639e-15 -47.5532 75.3661)
(-2.77472e-15 -53.6026 84.0099)
(-6.57268e-15 -45.8632 84.2125)
(-1.02405e-14 -13.435 62.2581)
(-9.36868e-15 22.0452 28.4236)
(-8.54026e-15 30.9613 18.4397)
(-1.00139e-14 17.5038 10.2959)
(-8.64367e-15 -4.67154 -7.76588)
(1.40151e-15 -15.4788 -13.6602)
(-1.94432e-15 5.64321 35.0169)
(-6.24107e-15 37.0402 44.6896)
(-9.69557e-15 35.9486 40.5447)
(-7.574e-15 6.06045 50.4484)
(-2.39662e-16 -10.6471 71.3615)
(6.95801e-16 -11.4866 83.112)
(1.386e-15 -16.3229 88.0454)
(2.19103e-15 -23.5159 88.8718)
(2.10528e-15 -31.5882 87.7359)
(1.36107e-15 -40.3898 88.1089)
(6.88323e-17 -49.1386 90.1024)
(-2.49942e-15 -52.7326 89.6124)
(-6.54634e-15 -38.3078 76.0693)
(-8.42809e-15 -0.00479946 38.273)
(-7.14433e-15 29.6537 10.045)
(-8.5136e-15 32.8085 8.41341)
(-1.077e-14 22.1395 5.15157)
(-9.6437e-15 11.0837 -2.02184)
(-2.15094e-15 -1.49908 -31.2077)
(1.12529e-15 2.26892 28.3818)
(-3.37677e-15 36.2747 38.8068)
(-8.37057e-15 35.3991 34.9691)
(-8.97425e-15 0.38017 40.1624)
(-2.48515e-15 -17.3351 57.8346)
(-8.54932e-16 -16.1629 73.2908)
(1.38238e-16 -18.8733 82.5948)
(1.66786e-15 -24.6694 88.2347)
(2.62218e-15 -31.9875 90.861)
(2.60048e-15 -40.4822 92.1251)
(1.26552e-15 -48.2006 91.4094)
(-1.75688e-15 -47.9435 84.4226)
(-5.47866e-15 -25.5586 58.2059)
(-6.23349e-15 13.1702 10.0605)
(-6.29877e-15 33.3421 -0.913436)
(-8.98616e-15 33.0314 1.07485)
(-1.14593e-14 22.7802 0.487357)
(-1.01855e-14 14.5881 -2.75616)
(-7.61621e-15 1.52043 -23.3226)
(3.84202e-15 -1.9157 22.9506)
(-1.08279e-15 35.3113 33.4435)
(-6.97795e-15 35.8545 30.3969)
(-1.02507e-14 -3.45694 29.9476)
(-4.7512e-15 -23.8616 43.4619)
(-2.29958e-15 -21.4049 60.4396)
(-1.25202e-15 -22.115 71.3923)
(6.37554e-16 -26.7112 78.9328)
(2.3996e-15 -33.0698 83.3308)
(3.07863e-15 -40.5787 85.2842)
(2.04512e-15 -45.9945 83.1087)
(-8.64658e-16 -39.6692 70.9028)
(-4.18192e-15 -8.78567 34.1127)
(-4.66748e-15 23.215 -6.97658)
(-6.39694e-15 33.139 -5.68141)
(-9.59109e-15 32.4873 -3.41632)
(-1.20289e-14 23.5536 -3.73066)
(-1.02773e-14 19.1284 -6.8296)
(-9.80214e-15 3.76333 -15.3529)
(6.10742e-15 -5.09718 19.4487)
(7.161e-16 34.1822 28.5939)
(-5.59371e-15 37.1112 26.6092)
(-1.12756e-14 -4.83782 20.7296)
(-7.12992e-15 -29.6659 30.3275)
(-3.78726e-15 -27.6275 47.6371)
(-2.7927e-15 -26.4858 58.6633)
(-1.06053e-15 -29.5805 66.5093)
(1.11819e-15 -34.5962 71.2495)
(2.50655e-15 -40.3414 73.2409)
(2.16093e-15 -42.083 69.928)
(-2.48638e-16 -28.2954 53.0168)
(-3.39659e-15 7.26907 8.99397)
(-4.30767e-15 28.1754 -5.40741)
(-6.78831e-15 32.2361 -5.69328)
(-1.00832e-14 32.3075 -5.37986)
(-1.22009e-14 24.2239 -7.06323)
(-1.01379e-14 19.9913 -8.16311)
(-8.54197e-15 3.47031 -12.0006)
(7.76012e-15 -8.14571 17.2523)
(2.08208e-15 33.1836 24.4022)
(-4.37058e-15 38.391 23.2042)
(-1.16956e-14 -7.28767 14.2169)
(-9.41594e-15 -35.0635 18.1543)
(-4.86295e-15 -32.2665 36.9738)
(-3.70586e-15 -29.168 48.2382)
(-2.61504e-15 -31.4161 56.0294)
(-5.57159e-16 -35.6191 60.56)
(1.37765e-15 -40.1159 62.0127)
(1.82383e-15 -38.234 56.917)
(-1.06056e-16 -17.1597 35.5586)
(-3.02726e-15 15.7814 -0.887645)
(-4.3807e-15 29.2476 -2.22088)
(-6.98948e-15 32.9308 -5.39763)
(-1.02381e-14 32.9701 -6.93012)
(-1.22008e-14 24.6827 -8.6013)
(-9.9015e-15 20.7439 -8.46674)
(-8.06939e-15 3.11349 -10.3666)
(9.74386e-15 -9.36508 20.0764)
(2.91597e-15 32.3688 21.4896)
(-3.4843e-15 41.1891 20.6571)
(-1.14149e-14 1.06623 14.0175)
(-1.29613e-14 -39.2246 8.28555)
(-8.29465e-15 -40.5667 22.3657)
(-5.69773e-15 -34.9651 32.7596)
(-4.6689e-15 -35.0709 39.6905)
(-3.28212e-15 -37.2794 43.9353)
(-1.46859e-15 -38.6685 44.8674)
(-2.05287e-16 -30.5932 39.6285)
(-8.71387e-16 -3.03108 20.4078)
(-2.70888e-15 21.717 2.47444)
(-4.40237e-15 30.9913 -2.17171)
(-7.04852e-15 34.276 -6.24551)
(-1.03272e-14 33.8809 -8.18639)
(-1.22368e-14 24.9727 -9.44102)
(-9.6685e-15 21.0485 -8.27918)
(-7.58219e-15 0.868301 -9.41219)
(5.09856e-16 70.0638 116.421)
(-1.51169e-14 140.876 239.552)
(-1.53559e-14 165.133 269.022)
(-1.50292e-14 161.886 257.835)
(-1.5459e-14 152.352 234.952)
(-2.04009e-14 142.004 212.037)
(-2.6451e-14 131.873 191.196)
(-3.07405e-14 123.584 174.758)
(-3.33613e-14 116.176 160.129)
(-3.51254e-14 109.123 147.084)
(-3.82864e-14 102.36 135.25)
(-4.42019e-14 95.7141 124.382)
(-5.14586e-14 89.0466 114.28)
(-5.80853e-14 82.3108 104.735)
(-6.45653e-14 75.3545 95.5763)
(-7.15458e-14 68.3066 86.8018)
(-8.00176e-14 61.1868 78.7047)
(-9.22621e-14 54.5704 72.2373)
(-1.0301e-13 46.3847 64.44)
(-1.35297e-13 29.1922 44.8252)
(-3.64445e-17 77.2367 122.909)
(-6.526e-15 150.121 249.617)
(-5.66239e-15 166.695 271.679)
(-5.45884e-15 157.616 254.898)
(-6.32179e-15 145.123 231.44)
(-8.28627e-15 134.467 210.754)
(-1.03018e-14 125.998 193.423)
(-1.12989e-14 118.463 177.383)
(-1.29597e-14 111.072 162.015)
(-1.47893e-14 103.676 147.065)
(-1.77622e-14 96.1543 132.613)
(-2.19472e-14 88.5382 118.728)
(-2.62831e-14 80.764 105.496)
(-3.15682e-14 72.9161 92.852)
(-3.91429e-14 64.7106 80.7614)
(-4.75918e-14 56.3478 68.7088)
(-5.64434e-14 46.6254 56.3314)
(-6.83803e-14 36.3474 41.8093)
(-8.02102e-14 18.8074 21.3393)
(-1.43918e-13 1.42298 -12.6329)
(4.4627e-17 108.763 179.557)
(8.15631e-16 176.143 286.933)
(6.54652e-16 179.501 291.023)
(3.07084e-16 168.807 269.754)
(9.37704e-17 157.454 248.857)
(3.20489e-15 149.02 230.481)
(2.96235e-15 141.111 213.481)
(2.02725e-15 133.176 196.137)
(2.09125e-15 124.6 178.33)
(1.78539e-15 115.538 160.198)
(8.71161e-16 106.034 142.058)
(1.59191e-16 96.1914 124.089)
(-3.72688e-16 85.9447 106.457)
(-1.21294e-15 75.361 89.1414)
(-2.82118e-15 64.0814 72.2126)
(-5.30306e-15 52.3547 55.1577)
(-8.5605e-15 38.5708 37.9073)
(-1.38982e-14 24.5961 18.6785)
(-2.46618e-14 2.07326 -3.98216)
(-7.44584e-14 -12.984 -40.5572)
(-2.88465e-17 141.332 241.484)
(2.49874e-16 187.237 307.693)
(3.47387e-16 174.587 293.345)
(4.43406e-16 165.064 273.693)
(1.71972e-16 155.274 258.576)
(7.09878e-15 148.336 243.846)
(5.99904e-15 139.514 227.768)
(5.0713e-15 129.613 208.967)
(5.65364e-15 118.345 188.891)
(6.47329e-15 106.584 168.066)
(5.87881e-15 94.2131 146.864)
(6.15762e-15 81.3038 125.205)
(6.6723e-15 67.6253 103.108)
(8.10259e-15 53.1914 80.4347)
(1.00052e-14 37.6654 57.2435)
(1.16614e-14 21.4054 32.9283)
(1.47475e-14 1.82234 6.85586)
(2.5287e-14 -14.2489 -23.511)
(1.37216e-15 -36.753 -44.461)
(-4.19218e-14 -32.621 -77.0089)
(9.91004e-18 154.49 274.03)
(-1.44956e-16 170.876 292.491)
(-1.82159e-16 155.465 279.356)
(-1.8438e-16 148.817 266.814)
(-2.65311e-16 138.244 254.935)
(-9.26614e-16 129.176 241.091)
(-4.96297e-16 116.574 223.701)
(-1.85469e-16 102.848 202.963)
(-1.86901e-16 88.1318 181.445)
(-9.21902e-17 73.3379 159.295)
(-6.1163e-17 57.9054 136.437)
(-1.07326e-16 41.8914 112.473)
(1.04284e-15 25.1627 87.463)
(4.95417e-15 8.15663 61.7689)
(9.25337e-15 -8.22791 36.5378)
(2.85629e-15 -22.5486 13.7143)
(-2.5409e-14 -33.9989 -7.24322)
(-6.42333e-14 -41.954 -28.2801)
(-8.16496e-14 -40.4224 -36.896)
(-4.49518e-14 -16.1166 -16.6939)
(-9.39973e-19 137.616 246.282)
(5.6244e-17 146.453 261.207)
(6.91439e-17 136.968 253.333)
(8.16376e-17 127.332 240.798)
(5.76474e-17 114.876 226.8)
(-9.03483e-17 102.756 212.495)
(-2.35495e-16 88.566 195.424)
(-2.84153e-16 73.3758 175.753)
(-3.4187e-16 57.5683 155.057)
(-5.85558e-16 41.4729 133.451)
(-1.1547e-15 24.9661 111.153)
(-1.6968e-15 8.4721 88.4995)
(-8.70708e-16 -7.2591 66.4551)
(2.12316e-15 -20.4831 46.8837)
(3.86368e-15 -28.3779 32.9416)
(-2.46763e-15 -26.9793 29.8352)
(-1.76766e-14 -12.0063 44.2765)
(-2.99644e-14 17.7084 76.7912)
(-2.4945e-14 50.9618 110.046)
(-5.29744e-15 48.9186 99.4231)
(-1.36908e-18 121.226 212.776)
(-2.05932e-17 137.753 244)
(-2.65006e-17 129.532 230.977)
(-2.7014e-17 118.018 213.906)
(1.07371e-17 105.198 195.534)
(1.00459e-16 93.8092 179.542)
(1.49305e-16 82.2639 163.996)
(1.9339e-16 70.404 146.331)
(2.622e-16 57.8898 127.304)
(2.92957e-16 45.4376 106.875)
(1.778e-16 33.3186 86.2036)
(-2.53158e-17 22.9985 67.2933)
(6.49914e-17 16.6046 54.1128)
(7.82575e-16 17.4336 52.2762)
(1.76958e-15 28.1677 66.2743)
(2.38946e-15 47.9612 94.5262)
(3.01816e-15 71.4099 128.201)
(4.58773e-15 89.2682 155.214)
(6.09247e-15 95.4082 159.536)
(3.76841e-15 68.1389 123.56)
(8.82177e-19 118.495 204.856)
(6.64612e-18 143.276 247.459)
(8.27193e-18 136.07 232.869)
(8.13773e-18 125.288 212.348)
(-2.25811e-18 113.636 192.759)
(-3.13371e-17 105.33 176.131)
(-4.48528e-17 97.7483 163.394)
(-5.19936e-17 91.6799 150.506)
(-6.21255e-17 85.4555 138.309)
(-6.774e-17 80.2667 125.973)
(-5.74031e-17 75.4683 113.73)
(-3.73935e-17 71.4239 101.478)
(-3.95809e-17 68.2967 90.0381)
(-9.47236e-17 66.7172 81.5674)
(-2.09828e-16 67.8187 79.0843)
(-3.91897e-16 71.3595 84.8067)
(-6.37178e-16 76.34 96.6988)
(-9.03323e-16 78.3255 108.973)
(-1.16464e-15 73.2198 109.963)
(-1.08274e-15 50.8611 84.3012)
(-4.01423e-19 120.941 209.331)
(-1.96726e-18 153.673 261.762)
(-2.33681e-18 144.303 245.293)
(-2.26859e-18 132.695 220.874)
(6.598e-20 121.203 202.32)
(7.78025e-18 114.714 186.798)
(1.2111e-17 107.77 174.471)
(1.35498e-17 102.253 161.897)
(1.41949e-17 96.3821 150.26)
(1.34273e-17 91.1604 139.027)
(1.08308e-17 86.1466 128.384)
(8.98013e-18 81.3935 118.026)
(1.21278e-17 76.7117 107.679)
(2.21949e-17 72.0327 97.3038)
(3.79664e-17 67.3573 87.5034)
(6.07802e-17 63.0901 79.5177)
(9.77807e-17 58.8497 74.5462)
(1.52428e-16 54.5335 71.078)
(2.08288e-16 45.1176 64.4419)
(2.4649e-16 24.335 32.9099)
(1.34051e-19 125.078 216.988)
(5.04459e-19 162.731 274.02)
(5.77344e-19 147.478 252.508)
(5.71718e-19 135.325 224.133)
(8.08152e-20 123.569 208.069)
(-1.75982e-18 118.366 193.157)
(-2.91344e-18 110.674 180.999)
(-3.19872e-18 104.794 167.677)
(-3.09614e-18 98.0629 155.34)
(-2.66229e-18 91.9523 143.076)
(-1.9981e-18 85.8041 131.411)
(-1.72934e-18 79.8824 120.203)
(-2.54406e-18 73.9949 109.491)
(-4.36101e-18 68.1602 99.003)
(-6.43051e-18 61.9168 88.5006)
(-8.47751e-18 55.4144 77.4241)
(-1.13685e-17 47.405 65.8422)
(-1.63558e-17 38.8589 52.2866)
(-2.41769e-17 23.7624 34.3165)
(-2.26483e-17 4.18943 -3.34059)
(-3.55013e-20 133.882 233.889)
(-1.1287e-19 171.003 283.322)
(-1.27008e-19 148.233 256.631)
(-1.27166e-19 140.004 229.2)
(-3.13598e-20 128.096 216.309)
(3.61938e-19 124.286 200.825)
(6.23739e-19 115.944 188.75)
(6.66075e-19 110.658 175.035)
(5.93804e-19 104.021 162.668)
(4.69099e-19 98.2118 149.851)
(3.47998e-19 91.9453 137.18)
(3.27477e-19 85.4743 124.176)
(4.50401e-19 78.3917 110.941)
(5.96523e-19 70.7618 97.3596)
(5.65428e-19 62.1895 83.5283)
(2.98363e-19 53.017 68.9371)
(-6.09576e-20 41.8325 53.4034)
(-6.66278e-19 29.994 34.9112)
(-2.29149e-18 9.37949 9.8691)
(-1.57087e-17 -6.23803 -26.7699)
(7.32049e-21 145.782 259.21)
(2.27861e-20 175.831 287.227)
(2.48315e-20 147.669 260.923)
(2.44107e-20 146.019 237.879)
(6.84096e-21 132.661 227.272)
(-6.80052e-20 130.746 211.46)
(-1.18471e-19 121.799 200.476)
(-1.21276e-19 118.132 187.252)
(-9.72751e-20 111.973 175.912)
(-6.82471e-20 107.197 163.112)
(-5.21238e-20 100.862 149.531)
(-5.80244e-20 93.5885 134.014)
(-6.69616e-20 84.6143 117.037)
(-2.93782e-20 74.3725 98.7486)
(9.62069e-20 62.5666 79.6725)
(2.91967e-19 49.7657 59.4373)
(5.11053e-19 34.1838 38.3187)
(5.95004e-19 18.8364 15.2028)
(1.6475e-18 -6.05177 -11.8984)
(-8.62007e-18 -18.2812 -48.9283)
(-1.33378e-21 155.04 282.664)
(-4.22239e-21 171.073 279.119)
(-4.34684e-21 143.868 262.849)
(-4.15422e-21 146.555 243.489)
(-8.26221e-22 130.759 234.965)
(1.33445e-20 130.277 219.721)
(2.19801e-20 119.864 211.235)
(2.09122e-20 117.68 199.728)
(1.47976e-20 110.736 190.787)
(8.62285e-21 105.888 178.25)
(4.50675e-21 96.8195 162.879)
(-7.52123e-22 85.8023 142.6)
(-1.72647e-20 71.6328 119.439)
(-5.85282e-20 56.0642 94.2936)
(-1.2397e-19 38.8994 68.2174)
(-1.64428e-19 20.3068 40.0097)
(-8.00859e-20 -1.95899 7.81437)
(4.15634e-19 -15.2321 -20.4937)
(1.87178e-19 -36.6132 -43.6099)
(-6.91846e-18 -32.2117 -68.8369)
(2.283e-22 152.762 283.74)
(6.92081e-22 159.33 262.476)
(6.38127e-22 136.29 255.043)
(5.44706e-22 137.911 236.311)
(-2.56433e-22 121.152 228.147)
(-2.5779e-21 119.183 213.669)
(-3.26113e-21 107.757 206.033)
(-2.02887e-21 104.07 195.728)
(-3.43979e-22 95.2749 187.417)
(-1.28602e-21 87.5369 174.002)
(-1.0054e-20 74.2156 155.484)
(-3.0726e-20 58.6536 130.535)
(-6.17006e-20 40.4697 102.797)
(-8.3723e-20 22.3429 74.2868)
(-2.629e-20 4.68873 47.1106)
(2.3248e-19 -11.6301 21.6154)
(7.0259e-19 -26.194 -2.88245)
(9.06076e-19 -34.6034 -22.0922)
(2.53469e-20 -28.2924 -21.3927)
(-1.56078e-18 -6.2839 1.43979)
(-3.1951e-23 143.714 269.859)
(-8.92647e-23 153.688 250.253)
(-7.35591e-23 127.831 242.257)
(-5.00113e-23 130.881 221.089)
(1.27735e-22 111.727 213.099)
(5.08428e-22 109.879 196.64)
(5.79504e-22 96.5919 187.879)
(5.38539e-22 91.3834 175.878)
(7.73675e-22 81.0653 166.354)
(9.5195e-23 71.985 152.956)
(-6.59494e-21 59.0811 135.996)
(-2.85681e-20 45.2831 114.489)
(-7.00762e-20 30.5378 90.6261)
(-8.44049e-20 16.5483 65.71)
(7.80968e-20 4.81274 43.0675)
(5.14152e-19 -0.682494 29.4776)
(9.45547e-19 5.44711 34.5746)
(9.07596e-19 25.2228 60.0297)
(4.0348e-19 48.7505 88.3261)
(-4.9892e-20 43.1881 85.2717)
(2.84489e-24 140.217 268.106)
(6.72076e-24 156.953 245.94)
(5.65477e-25 126.133 239.545)
(-4.79165e-24 135.23 214.838)
(-1.753e-23 113.093 207.784)
(-2.35094e-23 114.83 188.301)
(6.45454e-23 100.437 178.199)
(1.88932e-22 96.6164 162.971)
(2.6092e-22 86.7578 151.575)
(3.58824e-22 80.4936 138.789)
(4.4659e-22 72.6501 127.014)
(2.73128e-23 66.211 114.631)
(-4.31994e-23 60.1663 102.505)
(2.1483e-21 55.3164 90.4438)
(1.37813e-21 51.3486 78.8648)
(-9.72e-21 48.6401 68.9464)
(-3.0318e-20 47.8655 62.3092)
(-7.85897e-20 46.8171 60.283)
(-1.80301e-19 43.1951 57.6282)
(-2.93915e-19 30.2219 45.2317)
(2.07671e-25 139.271 272.527)
(2.72675e-25 160.267 247.686)
(-6.21094e-25 126.806 243.414)
(-1.56802e-24 137.661 219.16)
(5.25683e-24 116.862 212.086)
(2.80706e-23 118.149 194.332)
(6.32156e-23 106.647 183.926)
(1.15003e-22 102.983 170.098)
(1.74188e-22 95.805 158.616)
(2.43131e-22 90.904 146.653)
(5.27772e-22 85.6229 135.711)
(1.55951e-21 81.1415 125.097)
(3.60646e-21 76.75 114.739)
(5.77413e-21 72.4339 104.014)
(6.30327e-21 67.3759 92.3327)
(3.6069e-21 60.9768 78.2568)
(-3.21342e-21 51.0041 61.0897)
(-1.43179e-20 37.9933 39.8018)
(-1.75064e-20 18.8852 17.7389)
(-7.24417e-20 3.28793 -8.30513)
(-5.70816e-26 132.82 272.486)
(-6.73455e-25 158.373 245.372)
(-2.38989e-24 121.533 243.743)
(-3.02042e-24 130.527 222.43)
(4.94927e-24 111.884 214.991)
(2.96089e-23 110.237 200.284)
(6.9467e-23 100.491 190.267)
(1.11489e-22 95.8227 178.488)
(1.56761e-22 89.4411 168.125)
(2.48866e-22 84.5836 157.462)
(4.33366e-22 79.5368 147.183)
(6.5472e-22 75.0056 136.835)
(6.67236e-22 70.4817 126.481)
(6.64276e-24 65.8212 115.319)
(-1.82864e-21 59.5911 101.619)
(-5.22539e-21 50.1409 81.5461)
(-9.73895e-21 33.5072 52.0773)
(-1.31615e-20 12.2344 11.0839)
(-7.79465e-21 -15.6332 -25.759)
(-5.15363e-20 -21.9208 -55.0214)
(1.08387e-25 109.471 256.201)
(6.87425e-26 149.201 227.099)
(-9.72957e-25 108.697 230.035)
(-2.38724e-24 114.744 214.929)
(-9.34247e-26 98.7736 209.275)
(1.17662e-23 94.0586 199.747)
(3.48212e-23 85.2482 192.316)
(6.42728e-23 79.1096 184.243)
(1.00939e-22 72.6181 176.604)
(1.73581e-22 66.9978 168.853)
(3.34736e-22 61.6844 161.169)
(5.86391e-22 56.8957 153.469)
(7.1071e-22 52.4686 145.677)
(6.10202e-23 48.0274 137.059)
(-2.36392e-21 42.3548 125.332)
(-7.07892e-21 33.1132 106.015)
(-1.31868e-20 18.0194 74.1449)
(-1.94487e-20 -1.98321 29.9548)
(-2.53767e-20 -20.3852 -14.52)
(-2.49866e-20 -20.562 -35.1169)
(1.44147e-26 36.1067 158.413)
(6.86818e-26 78.4637 131.141)
(-1.33466e-25 52.7501 139.301)
(-1.05548e-24 52.5191 135.315)
(-2.35813e-24 43.9843 135.388)
(-1.96702e-24 39.5256 133.846)
(2.46067e-24 34.4319 132.68)
(8.07468e-24 30.4135 131.152)
(2.78336e-24 26.7915 129.5)
(-2.57238e-23 23.8093 127.638)
(-6.36719e-23 21.388 125.613)
(-4.48226e-23 19.5917 123.451)
(1.46445e-22 18.4506 121.248)
(6.20124e-22 18.0632 119.182)
(1.35886e-21 18.7122 117.376)
(2.0734e-21 20.4347 115.767)
(2.2718e-21 22.8664 113.555)
(1.75256e-21 28.1743 106.853)
(9.54183e-22 32.0393 92.1081)
(3.29282e-22 7.77131 66.6015)
(-6.17627e-26 -36.0982 158.389)
(6.35598e-26 -78.4554 131.125)
(1.56904e-25 -52.7453 139.288)
(2.07864e-25 -52.5145 135.304)
(4.91788e-25 -43.9787 135.378)
(1.32753e-24 -39.5182 133.837)
(2.18089e-24 -34.4217 132.672)
(6.49674e-25 -30.4004 131.145)
(-7.04218e-24 -26.7763 129.496)
(-2.2183e-23 -23.7927 127.639)
(-3.52087e-23 -21.3694 125.62)
(-1.4739e-23 -19.5696 123.465)
(9.66846e-23 -18.4252 121.275)
(3.61779e-22 -18.0412 119.24)
(7.89777e-22 -18.7071 117.483)
(1.26406e-21 -20.4574 115.91)
(1.52717e-21 -22.9168 113.673)
(1.31826e-21 -28.2409 106.903)
(6.93823e-22 -32.1107 92.1464)
(1.33007e-22 -7.79995 66.6822)
(2.81524e-25 -109.492 256.215)
(-8.27239e-27 -149.187 227.143)
(-9.30474e-25 -108.697 230.079)
(-2.20067e-24 -114.72 214.988)
(-1.74563e-24 -98.7457 209.343)
(4.66866e-24 -94.0147 199.826)
(2.07964e-23 -85.1907 192.403)
(4.50446e-23 -79.0332 184.336)
(6.86911e-23 -72.5218 176.703)
(8.76474e-23 -66.881 168.96)
(1.25225e-22 -61.5531 161.294)
(2.24469e-22 -56.7591 153.629)
(3.36286e-22 -52.3264 145.876)
(1.14158e-22 -47.8387 137.231)
(-1.20086e-21 -42.0169 125.293)
(-4.54084e-21 -32.5245 105.551)
(-1.00488e-20 -17.2735 73.3418)
(-1.54162e-20 2.49036 29.4104)
(-1.66128e-20 20.3581 -14.3564)
(-1.25824e-20 20.3975 -34.6524)
(-8.38246e-25 -132.909 272.649)
(-5.70905e-26 -158.427 245.532)
(7.54079e-25 -121.607 243.908)
(1.53196e-24 -130.574 222.622)
(5.5059e-24 -111.937 215.193)
(1.94199e-23 -110.281 200.509)
(5.09005e-23 -100.528 190.514)
(1.0322e-22 -95.853 178.755)
(1.68358e-22 -89.4534 168.412)
(2.20339e-22 -84.5822 157.758)
(2.03584e-22 -79.5171 147.49)
(5.64184e-23 -74.9879 137.161)
(-1.4497e-22 -70.4839 126.845)
(-9.17345e-23 -65.833 115.69)
(2.86096e-22 -59.5012 101.818)
(-1.48583e-22 -49.7623 81.2417)
(-2.97715e-21 -32.6609 51.0728)
(-6.67041e-21 -10.9866 9.24246)
(-2.14108e-20 17.0659 -27.7349)
(-2.6943e-20 22.4981 -55.9021)
(2.92424e-24 -139.422 272.712)
(4.09577e-26 -160.416 247.971)
(-6.32567e-24 -127.011 243.64)
(-1.50709e-23 -137.799 219.464)
(-2.32168e-23 -117.142 212.35)
(-2.53828e-23 -118.358 194.696)
(-1.42771e-23 -107.008 184.28)
(1.25044e-23 -103.326 170.545)
(4.47423e-23 -96.2731 159.069)
(1.00159e-22 -91.3844 147.115)