/*--------------------------------*- C++ -*----------------------------------*\
| =========                 |                                                 |
| \\      /  F ield         | OpenFOAM: The Open Source CFD Toolbox           |
|  \\    /   O peration     | Version:  4.1                                   |
|   \\  /    A nd           | Web:      www.OpenFOAM.org                      |
|    \\/     M anipulation  |                                                 |
\*---------------------------------------------------------------------------*/
FoamFile
{
    version     2.0;
    format      ascii;
    class       surfaceScalarField;
    location    "27";
    object      phi;
}
// * * * * * * * * * * * * * * * * * * * * * * * * * * * * * * * * * * * * * //

dimensions      [0 3 -1 0 0 0 0];

internalField   nonuniform List<scalar> 
2360
(
2.51661e+09
2.30354e+09
2.13023e+08
2.30362e+09
2.30356e+09
2.0963e+09
2.07329e+08
2.09626e+09
2.0963e+09
2.09626e+09
2.08391e+09
1.23963e+07
2.0839e+09
2.08397e+09
2.11181e+09
-2.78699e+07
2.11186e+09
2.11181e+09
2.12767e+09
-1.57839e+07
2.12765e+09
2.12775e+09
2.08257e+09
4.51649e+07
2.08261e+09
2.08256e+09
2.05706e+09
2.03343e+09
2.01299e+09
1.99461e+09
1.97874e+09
1.96467e+09
1.98253e+09
-2.63419e+07
1.97603e+09
1.97002e+09
1.9654e+09
1.96286e+09
1.96269e+09
1.96544e+09
1.97157e+09
1.98137e+09
1.99541e+09
2.01391e+09
2.03824e+09
2.06863e+09
2.11e+09
2.55346e+09
-4.43435e+08
2.55345e+09
2.55345e+09
2.55345e+09
3.01967e+09
-4.66202e+08
3.01965e+09
3.01969e+09
3.01966e+09
3.49855e+09
-4.78828e+08
3.49854e+09
3.49859e+09
3.96429e+09
-4.65711e+08
3.96433e+09
3.96433e+09
3.96438e+09
4.43107e+09
-4.66703e+08
4.43114e+09
4.43114e+09
4.4312e+09
4.7756e+09
-3.44405e+08
4.69027e+09
4.60535e+09
4.53368e+09
4.47374e+09
4.42418e+09
4.38431e+09
4.35378e+09
4.3323e+09
4.31964e+09
4.31595e+09
4.32113e+09
4.33464e+09
4.3554e+09
5.50063e+09
-1.117e+09
5.53614e+09
5.58028e+09
5.63423e+09
5.70037e+09
5.7808e+09
5.89321e+09
5.89324e+09
5.89332e+09
7.91668e+09
-2.02338e+09
7.91671e+09
7.91668e+09
1.02782e+10
-2.36147e+09
1.02781e+10
1.02782e+10
1.30491e+10
-2.77092e+09
1.30491e+10
1.30491e+10
1.98571e+10
-6.80806e+09
1.98571e+10
1.98572e+10
1.98571e+10
-4.06454e+10
6.05025e+10
-4.06454e+10
-4.06454e+10
1.57879e+10
-5.64333e+10
-7.92646e+08
-3.74769e+07
-7.31244e+08
-1.4848e+08
-1.03907e+09
2.80195e+07
-1.2929e+09
1.73771e+07
-1.64892e+09
2.77757e+07
-2.09402e+09
4.02886e+07
-2.67005e+09
6.02896e+07
-3.4125e+09
8.9575e+07
-4.37363e+09
1.30812e+08
-5.61917e+09
1.8564e+08
-7.24003e+09
2.60186e+08
-9.37839e+09
3.867e+08
-1.22807e+10
6.72412e+08
-1.62997e+10
1.2344e+09
-2.15819e+10
1.81493e+09
-2.76344e+10
1.63929e+09
-3.37639e+10
-1.99161e+09
-2.82347e+10
-1.88483e+10
-4.87148e+10
-2.08615e+08
2.96174e+08
-1.945e+08
-1.62599e+08
-2.57384e+08
9.09e+07
-3.25522e+08
8.55086e+07
-4.6063e+08
1.62879e+08
-6.19073e+08
1.98725e+08
-8.30231e+08
2.71443e+08
-1.1012e+09
3.60537e+08
-1.46263e+09
4.92234e+08
-1.97715e+09
7.00152e+08
-2.76091e+09
1.04394e+09
-3.95207e+09
1.57785e+09
-5.55257e+09
2.27291e+09
-7.18911e+09
2.87095e+09
-8.08277e+09
2.70859e+09
-8.40558e+09
1.96211e+09
-1.35361e+10
3.13888e+09
-2.97859e+10
-2.59841e+09
-1.79982e+10
-1.69816e+07
3.04911e+08
-1.35124e+08
-4.44593e+07
-1.49468e+08
1.05244e+08
-2.00071e+08
1.36112e+08
-2.56703e+08
2.19513e+08
-3.34327e+08
2.76351e+08
-4.32077e+08
3.69197e+08
-5.60527e+08
4.88989e+08
-7.36363e+08
6.68077e+08
-9.87273e+08
9.51067e+08
-1.34137e+09
1.39805e+09
-1.7754e+09
2.01189e+09
-2.10387e+09
2.6014e+09
-1.8043e+09
2.57139e+09
-3.23309e+08
1.22764e+09
1.78182e+09
-1.42991e+08
5.64142e+09
-7.20679e+08
9.94903e+09
-6.906e+09
-1.48572e+10
4.8719e+07
2.13062e+08
-8.02981e+07
8.45537e+07
-1.10218e+08
1.35162e+08
-1.41492e+08
1.67384e+08
-1.68104e+08
2.46127e+08
-2.08228e+08
3.16474e+08
-2.56773e+08
4.17745e+08
-3.20046e+08
5.52263e+08
-4.00374e+08
7.48409e+08
-4.9244e+08
1.04314e+09
-5.66796e+08
1.47242e+09
-5.30324e+08
1.97542e+09
-1.89044e+08
2.26014e+09
8.30048e+08
1.55233e+09
2.18701e+09
-1.29287e+08
3.3837e+09
-1.33967e+09
4.56248e+09
-1.89943e+09
4.11061e+09
-6.45411e+09
-1.35174e+10
5.69698e+06
1.70194e+08
-5.04727e+07
1.40721e+08
-7.48941e+07
1.59585e+08
-9.16322e+07
1.84124e+08
-1.0373e+08
2.58229e+08
-1.18328e+08
3.31075e+08
-1.33308e+08
4.32732e+08
-1.47962e+08
5.66921e+08
-1.55092e+08
7.55549e+08
-1.30864e+08
1.01891e+09
-1.64068e+07
1.35798e+09
2.75597e+08
1.68343e+09
8.40717e+08
1.69504e+09
1.71551e+09
6.77551e+08
2.43841e+09
-8.5217e+08
3.0608e+09
-1.96203e+09
4.09955e+09
-2.93815e+09
4.11684e+09
-6.47136e+09
-1.1762e+10
-2.42241e+07
1.55808e+08
-4.28655e+07
1.59361e+08
-5.32777e+07
1.70001e+08
-6.23568e+07
1.93207e+08
-6.42671e+07
2.60146e+08
-6.30811e+07
3.29896e+08
-5.55603e+07
4.25221e+08
-3.62028e+07
5.47574e+08
9.06865e+06
7.10291e+08
1.0771e+08
9.20286e+08
3.1481e+08
1.15089e+09
6.81446e+08
1.31682e+09
1.29523e+09
1.08129e+09
1.95728e+09
1.55329e+07
2.34702e+09
-1.24188e+09
2.68007e+09
-2.29505e+09
3.13284e+09
-3.39088e+09
2.99956e+09
-6.33803e+09
-1.07858e+10
-3.74576e+07
1.54355e+08
-3.59873e+07
1.57889e+08
-3.83024e+07
1.72318e+08
-4.10377e+07
1.95944e+08
-3.53677e+07
2.54481e+08
-2.3248e+07
3.17779e+08
1.06402e+06
4.00916e+08
4.51191e+07
5.03523e+08
1.2409e+08
6.31329e+08
2.63204e+08
7.81179e+08
5.06163e+08
9.07949e+08
8.8671e+08
9.36281e+08
1.44886e+09
5.19151e+08
1.9415e+09
-4.77092e+08
2.16123e+09
-1.4616e+09
2.34959e+09
-2.48339e+09
2.62517e+09
-3.66643e+09
2.32748e+09
-6.0403e+09
-9.57528e+09
-3.99333e+07
1.59277e+08
-2.75675e+07
1.45525e+08
-2.58673e+07
1.70624e+08
-2.29498e+07
1.93036e+08
-1.11129e+07
2.42656e+08
1.05722e+07
2.96107e+08
4.83356e+07
3.63169e+08
1.1027e+08
4.41604e+08
2.10236e+08
5.31384e+08
3.71243e+08
6.20194e+08
6.18557e+08
6.60664e+08
1.00564e+09
5.49231e+08
1.472e+09
5.28279e+07
1.77643e+09
-7.81483e+08
1.94074e+09
-1.62588e+09
2.05344e+09
-2.59606e+09
2.143e+09
-3.75593e+09
1.69028e+09
-5.58752e+09
-8.22932e+09
-3.56405e+07
1.64242e+08
-2.00509e+07
1.29933e+08
-1.53237e+07
1.65899e+08
-7.68121e+06
1.85394e+08
9.59221e+06
2.25386e+08
3.94231e+07
2.66278e+08
8.71754e+07
3.15422e+08
1.61242e+08
3.67542e+08
2.73919e+08
4.18715e+08
4.45019e+08
4.491e+08
6.94376e+08
4.11318e+08
1.06069e+09
1.82923e+08
1.42334e+09
-3.09815e+08
1.61985e+09
-9.77988e+08
1.73615e+09
-1.74216e+09
1.8004e+09
-2.66031e+09
1.80706e+09
-3.76258e+09
1.46452e+09
-5.24495e+09
-7.23149e+09
-2.87394e+07
1.66271e+08
-1.37673e+07
1.14966e+08
-6.38486e+06
1.58524e+08
5.587e+06
1.73435e+08
2.73885e+07
2.03601e+08
6.34413e+07
2.30243e+08
1.18499e+08
2.60387e+08
2.00803e+08
2.85261e+08
3.22252e+08
2.97295e+08
4.9856e+08
2.72823e+08
7.5552e+08
1.54396e+08
1.05949e+09
-1.21009e+08
1.29788e+09
-5.48171e+08
1.44544e+09
-1.12552e+09
1.5375e+09
-1.83418e+09
1.57168e+09
-2.69445e+09
1.52013e+09
-3.71097e+09
1.22514e+09
-4.94989e+09
-6.47197e+09
-2.17213e+07
1.64953e+08
-8.54457e+06
1.01785e+08
1.1963e+06
1.48784e+08
1.72149e+07
1.57416e+08
4.25007e+07
1.78317e+08
8.30352e+07
1.8971e+08
1.43737e+08
1.9969e+08
2.32529e+08
1.96469e+08
3.6127e+08
1.68559e+08
5.45184e+08
8.89113e+07
7.74782e+08
-7.51982e+07
9.91848e+08
-3.38079e+08
1.15974e+09
-7.16063e+08
1.28069e+09
-1.24647e+09
1.35455e+09
-1.90803e+09
1.3671e+09
-2.70699e+09
1.28799e+09
-3.63185e+09
1.05158e+09
-4.71346e+09
-5.89923e+09
-1.5382e+07
1.60569e+08
-3.75925e+06
9.0171e+07
7.58745e+06
1.37446e+08
2.66804e+07
1.3834e+08
5.47781e+07
1.50242e+08
9.87357e+07
1.45778e+08
1.64238e+08
1.34218e+08
2.5999e+08
1.00751e+08
3.94822e+08
3.37624e+07
5.60543e+08
-7.67754e+07
7.29906e+08
-2.44527e+08
8.84415e+08
-4.92556e+08
1.02194e+09
-8.53551e+08
1.12624e+09
-1.35074e+09
1.18454e+09
-1.96628e+09
1.17979e+09
-2.7022e+09
1.08579e+09
-3.5378e+09
8.88282e+08
-4.51586e+09
-5.47706e+09
-9.84834e+06
1.53494e+08
663262
7.96541e+07
1.28964e+07
1.25212e+08
3.38559e+07
1.17379e+08
6.42691e+07
1.1983e+08
1.11076e+08
9.89689e+07
1.82797e+08
6.24979e+07
2.82471e+08
1.07349e+06
3.99288e+08
-8.30576e+07
5.21949e+08
-1.99444e+08
6.47697e+08
-3.70281e+08
7.75889e+08
-6.20757e+08
8.94335e+08
-9.72003e+08
9.83089e+08
-1.4395e+09
1.02726e+09
-2.01046e+09
1.00773e+09
-2.68267e+09
9.05047e+08
-3.43512e+09
7.06981e+08
-4.31779e+09
-5.21356e+09
-5.93553e+06
1.44896e+08
4.68609e+06
6.90452e+07
1.7436e+07
1.12471e+08
3.88959e+07
9.59443e+07
7.1078e+07
8.76787e+07
1.21751e+08
4.83324e+07
1.94696e+08
-1.04115e+07
2.77027e+08
-8.12247e+07
3.62914e+08
-1.68913e+08
4.58785e+08
-2.95285e+08
5.65176e+08
-4.76639e+08
6.75212e+08
-7.3076e+08
7.75967e+08
-1.07272e+09
8.49586e+08
-1.51308e+09
8.81667e+08
-2.0425e+09
8.51273e+08
-2.65222e+09
7.39363e+08
-3.32314e+09
4.68113e+08
-4.04647e+09
-4.77167e+09
-3.14612e+06
1.35774e+08
7.84968e+06
5.8044e+07
2.10364e+07
9.92862e+07
4.17623e+07
7.52198e+07
7.62644e+07
5.31745e+07
1.27907e+08
-3.31467e+06
1.85203e+08
-6.7716e+07
2.44843e+08
-1.40875e+08
3.15113e+08
-2.39193e+08
3.97142e+08
-3.77325e+08
4.88178e+08
-5.67685e+08
5.81157e+08
-8.2375e+08
6.65376e+08
-1.15695e+09
7.25398e+08
-1.57312e+09
7.47854e+08
-2.06496e+09
7.13102e+08
-2.61748e+09
6.04064e+08
-3.21412e+09
3.69627e+08
-3.81203e+09
-4.35694e+09
-838700
1.26053e+08
1.04642e+07
4.67564e+07
2.33985e+07
8.63606e+07
4.31664e+07
5.54822e+07
7.81502e+07
1.8231e+07
1.20068e+08
-4.52007e+07
1.61185e+08
-1.08806e+08
2.10029e+08
-1.89692e+08
2.6952e+08
-2.98656e+08
3.3877e+08
-4.46545e+08
4.14902e+08
-6.43787e+08
4.91957e+08
-9.00771e+08
5.61044e+08
-1.226e+09
6.08852e+08
-1.62088e+09
6.2365e+08
-2.07971e+09
5.87233e+08
-2.58101e+09
4.87566e+08
-3.11438e+09
3.09614e+08
-3.634e+09
-4.06298e+09
352217
1.17784e+08
1.13701e+07
3.57366e+07
2.39419e+07
7.37947e+07
4.33597e+07
3.6072e+07
7.38727e+07
-1.22763e+07
1.02261e+08
-7.35914e+07
1.35022e+08
-1.4157e+08
1.75386e+08
-2.3006e+08
2.24349e+08
-3.47621e+08
2.80995e+08
-5.03194e+08
3.42921e+08
-7.05716e+08
4.05116e+08
-9.62968e+08
4.60332e+08
-1.28122e+09
4.97406e+08
-1.65796e+09
5.06538e+08
-2.08885e+09
4.70411e+08
-2.54489e+09
3.83487e+08
-3.02746e+09
2.28534e+08
-3.47904e+09
-3.86237e+09
2.36455e+06
1.07335e+08
1.29806e+07
2.51229e+07
2.4029e+07
6.27461e+07
4.04313e+07
1.96767e+07
6.32607e+07
-3.5104e+07
8.46857e+07
-9.50186e+07
1.10891e+08
-1.67778e+08
1.43507e+08
-2.62678e+08
1.82992e+08
-3.87108e+08
2.28555e+08
-5.48759e+08
2.78183e+08
-7.55345e+08
3.27774e+08
-1.01256e+09
3.715e+08
-1.32494e+09
4.00201e+08
-1.68666e+09
4.05761e+08
-2.09441e+09
3.71793e+08
-2.51092e+09
2.9506e+08
-2.95072e+09
1.31285e+08
-3.31527e+09
-3.71868e+09
-2.01757e+06
1.09507e+08
5.98251e+06
1.71244e+07
2.02527e+07
4.84784e+07
3.77837e+07
2.15148e+06
5.46645e+07
-5.19824e+07
7.04605e+07
-1.10813e+08
9.06144e+07
-1.87931e+08
1.1623e+08
-2.88292e+08
1.47308e+08
-4.18185e+08
1.83087e+08
-5.84536e+08
2.2182e+08
-7.94076e+08
2.60252e+08
-1.05099e+09
2.93506e+08
-1.3582e+09
3.14801e+08
-1.70795e+09
3.16436e+08
-2.09604e+09
2.87299e+08
-2.48178e+09
2.15973e+08
-2.87939e+09
3.99748e+07
-3.13926e+09
-3.47137e+09
2.74142e+06
1.84786e+07
3.27848e+07
3.52366e+07
3.15139e+07
3.46806e+07
4.2896e+07
5.40898e+07
6.77622e+07
8.3441e+07
1.00164e+08
1.16561e+08
1.30016e+08
1.38408e+08
1.36299e+08
1.24023e+08
8.47774e+07
2.09122e+07
3.44604e+07
-9.00376e+06
6.06647e+07
-2.69661e+06
6.77792e+07
1.33874e+07
7.20528e+07
1.39485e+07
7.51498e+07
1.27163e+07
7.6981e+07
1.21804e+07
7.63449e+07
9.15363e+06
7.57113e+07
7.27698e+06
7.58614e+07
6.09924e+06
7.56986e+07
4.90803e+06
7.48314e+07
3.5722e+06
7.30623e+07
2.05171e+06
7.01469e+07
269122
6.59281e+07
-1.79725e+06
6.02619e+07
-4.07156e+06
5.29716e+07
-6.63909e+06
4.38243e+07
-9.36736e+06
3.23971e+07
-1.28895e+07
1.8048e+07
-1.60343e+07
-2.33167e+07
-1.92343e+06
-7.14511e+06
-1.46357e+06
-3.25371e+06
4.71127e+06
7.20836e+06
1.06861e+07
7.94123e+06
1.63922e+07
7.01466e+06
2.20734e+07
6.48017e+06
2.60187e+07
5.21301e+06
2.94047e+07
3.87741e+06
3.27441e+07
2.7643e+06
3.57952e+07
1.84706e+06
3.83693e+07
1.00114e+06
4.02491e+07
164680
4.1144e+07
-623958
4.07551e+07
-1.41302e+06
3.89282e+07
-2.24533e+06
3.54781e+07
-3.19108e+06
3.0328e+07
-4.22006e+06
2.30006e+07
-5.56507e+06
1.3798e+07
-6.83586e+06
-9.51873e+06
-9.72572e+06
2.55685e+06
-1.45196e+07
1.51955e+06
-9.68402e+06
2.35565e+06
-4.98644e+06
3.20997e+06
-1.21561e+06
3.20972e+06
2.11502e+06
3.09744e+06
4.76721e+06
2.53383e+06
6.85918e+06
1.74674e+06
8.57162e+06
1.03623e+06
9.94098e+06
448598
1.0992e+07
-59305.7
1.16839e+07
-547788
1.20417e+07
-985947
1.20027e+07
-1.38642e+06
1.15403e+07
-1.7859e+06
1.0581e+07
-2.23743e+06
9.09059e+06
-2.73084e+06
6.92586e+06
-3.40076e+06
4.09307e+06
-4.00357e+06
-5.42559e+06
-631720
3.19715e+06
-1.01962e+06
1.91092e+06
174513
1.17163e+06
2.13617e+06
1.24682e+06
4.19488e+06
1.15724e+06
6.2858e+06
1.00286e+06
8.04673e+06
778147
9.29067e+06
499616
1.01099e+07
222714
1.05771e+07
-20629.5
1.07346e+07
-211041
1.05663e+07
-380036
1.0131e+07
-544562
9.46481e+06
-719016
8.59653e+06
-911760
7.50187e+06
-1.14001e+06
6.17362e+06
-1.39723e+06
4.52477e+06
-1.74643e+06
2.61196e+06
-2.08439e+06
-2.81372e+06
1.09836e+06
2.06641e+06
1.22322e+06
1.7409e+06
1.33532e+06
1.02248e+06
1.87144e+06
669177
2.51915e+06
485886
3.14319e+06
350530
3.66934e+06
235105
4.0213e+06
125741
4.21355e+06
16141.6
4.27385e+06
-98852
4.25778e+06
-206946
4.17264e+06
-308985
4.02819e+06
-410781
3.81618e+06
-518011
3.52738e+06
-633288
3.1441e+06
-765077
2.64561e+06
-907146
1.98795e+06
-1.09655e+06
1.15816e+06
-1.26319e+06
-1.65555e+06
1.19817e+06
869831
1.86046e+06
1.07733e+06
2.1077e+06
776679
2.30407e+06
470690
2.52781e+06
264517
2.74369e+06
133439
2.93585e+06
45889.1
3.08006e+06
-18671.5
3.16601e+06
-66722.1
3.17672e+06
-109069
3.12355e+06
-151126
3.0115e+06
-195964
2.84823e+06
-245205
2.63252e+06
-301116
2.36541e+06
-364381
2.04113e+06
-439730
1.65881e+06
-523736
1.20026e+06
-637118
681316
-743439
-974283
555724
310473
1.12662e+06
504496
1.44446e+06
454538
1.58396e+06
327804
1.63386e+06
209252
1.64548e+06
117833
1.63633e+06
49095
1.61885e+06
-4913.09
1.59452e+06
-48130.5
1.56664e+06
-84185.9
1.52688e+06
-116587
1.47661e+06
-148137
1.40679e+06
-180552
1.31897e+06
-215572
1.20351e+06
-253832
1.05946e+06
-298234
877873
-346623
648192
-411759
369518
-469540
-604704
337915
-3974.63
733789
127431
1.03034e+06
163040
1.22319e+06
146349
1.32499e+06
111660
1.37641e+06
76326.1
1.38548e+06
45372.9
1.37059e+06
19420.6
1.33236e+06
-3996.66
1.28228e+06
-25455.6
1.2178e+06
-46056.2
1.14441e+06
-66816.5
1.05843e+06
-88364.2
961601
-111750
851603
-137242
725982
-166773
583662
-199073
418769
-241930
236523
-281804
-368217
32765.5
-30741.7
169686
-8582.05
318254
15430.7
440035
25508.6
526960
24908.5
585791
18482.3
621476
9174.86
643368
-1502.93
651483
-13207
651628
-24741.6
640212
-36180.3
621892
-47822.8
591356
-60041
553158
-73326.6
501349
-87853.8
438781
-104680
359718
-122968
262407
-147532
147210
-169822
-220991
29840.6
-48968.3
76298.8
-48541
140613
-41611
204796
-33607.7
262575
-27563.1
309666
-23951.7
345664
-22228.5
370536
-22068.1
384545
-23254.8
389391
-25707.3
385789
-29251
375380
-33893.9
357673
-39538.1
333752
-46349.4
302571
-54175.3
263958
-63591.1
216370
-73944.5
158293
-88149
90807.5
-100899
-130176
5959.37
-46319.9
12241.9
-46486.4
22414.2
-44248
38247
-41834.6
55823.9
-39674.7
75753.2
-37933.3
93892.6
-36378.6
111901
-35317.1
126394
-34721.3
139340
-34738.7
147739
-35349.5
153769
-36617.4
154405
-38497.9
151834
-41094.6
143467
-44323.5
130384
-48496.8
110229
-53192.5
82936.6
-60253
48745.5
-65980.2
-81391.7
8780.14
-40143.8
16124.6
-40270.2
21866
-38370.6
28363.5
-36731.8
33965.8
-35464.2
40657.8
-34709.1
46722.7
-33912.7
53172.5
-33408.2
58745.4
-32962
63797.8
-32824.1
67513.9
-32868.2
70066.6
-33292.7
70943.6
-33972.7
69908.4
-35102.8
67125.6
-36546.3
61358.1
-38543.4
52598.9
-40810.8
40429.5
-44630.1
25479.1
-47312.1
-55874.2
4702.93
-29958.4
8904.28
-30457
12031.6
-29458.2
16244.5
-28563.2
19001.9
-28004.9
22917.3
-27740.2
25508.5
-27501.3
29010.4
-27405.6
31232.3
-27376.6
34014.1
-27478.2
35413.7
-27696.3
37115.9
-28072.7
37307
-28585.2
37236.6
-29289.2
35952.3
-30163.1
33291.3
-31285.8
28529.2
-32545.2
22079
-34836.4
14415.6
-36087.5
-41417.1
4799.22
-24511.3
8255.19
-24706.8
10924.3
-23647.8
13445
-22783.9
15378.7
-22303.6
17258.1
-22041.4
18836.9
-21916.4
20191
-21838
21380.5
-21904.7
22121
-21995.4
22692.5
-22263.5
22783.4
-22576.2
22743.2
-23058.5
21973
-23585.2
21292.2
-24299.3
19364.4
-25075.1
16692.5
-26015.5
13155.1
-27626.7
9258.7
-28392.5
-32108.3
4437.91
-15892.9
7245.87
-16702.9
9732.86
-16040.6
11822.6
-15503.5
13709.2
-15265.2
15175.4
-15162.2
16729
-15199.6
17642.7
-15238.4
18803.5
-15420.1
19111.1
-15578.9
19630
-15907.5
19350.2
-16223.4
19345.7
-16705.8
18357.5
-17165.7
17871.8
-17806.9
16006.1
-18440.1
13817.6
-19231
11040.6
-20468.7
8192.19
-21045.3
-23876.2
4169.71
-12143
6298.45
-12553
8313.42
-11979.9
9685.08
-11500.9
11190.3
-11252.9
11928.2
-11123.3
13137.6
-11112.4
13377.6
-11114.5
14315.7
-11226.6
14087.1
-11333.6
14588.2
-11565.9
13945.8
-11801.9
14119.2
-12155.8
13053.8
-12509.8
12852.9
-12990.7
11331.7
-13481.9
9932.05
-14086.9
8079.39
-15033.1
6203.95
-15507.9
-17642.9
3005.1
-7905.28
4657.26
-8609.09
6258
-8296.26
7536.94
-8008.65
8806.64
-7852.06
9690.65
-7779.14
10715.8
-7784.54
11232.5
-7802.13
11968.9
-7888.3
12089.6
-7977.4
12386.7
-8147.5
12131.6
-8328.68
12057.8
-8587.47
11372.8
-8857.82
10972.5
-9211.92
9769.51
-9584.49
8360.64
-10035.7
6638.61
-10745.3
4920.57
-11116.3
-12699.6
2724.29
-5666.53
3863.95
-6079.32
5016.65
-5859.37
5836.86
-5649.67
6756.29
-5519.2
7271.29
-5446.34
8018.69
-5442.61
8268.5
-5444.51
8837.28
-5502.53
8815.5
-5556.22
9095.62
-5676.42
8820.56
-5797.41
8857.64
-5982.87
8298.41
-6166.77
8093.16
-6423.02
7198.97
-6677.62
6242.32
-7011.07
5019.29
-7506.89
3788.21
-7780.42
-8886.32
3612.84
-3105.74
4508.15
-3222.32
5442.28
-3131.1
6137.68
-3050.23
6938.3
-2981.91
7403.64
-2947.34
8067.76
-2941.24
8275.33
-2943.64
8758.6
-2971.22
8690.6
-2999.49
8883.31
-3064.67
8565.74
-3132.34
8532.66
-3239.05
7942.43
-3345.33
7707.38
-3501.58
6796.41
-3653.4
5860.61
-3879.13
4728.51
-4194.8
3680.24
-4420.51
-5178.43
4790.59
5491.23
5980.54
6558.18
7104.64
7514.55
8075.64
8252.73
8729.98
8650.59
8913.79
8590.19
8672.74
8083.37
7959.03
7068.18
6237.83
5149.61
4203.43
52463
32141.3
54829.4
14035.5
55931.8
15247.4
58150.1
16455
58982.5
16693.3
60079.7
16534
61042.8
16240.3
61127.7
15937.3
61699.4
15728.3
60667.1
15580.3
60184.1
15641.2
57999.6
15805.5
56539.9
16166.2
52838.4
16615.4
50577.6
17303
44902.3
18032.7
38628.4
19172.1
31266.4
20940.7
25101.2
22333.3
26266
23828.5
22954
22285.1
29735.8
23532.8
29733
25732.8
29475.1
29281
29213.5
31893.9
29066
35117.7
29056
36604.6
29024
38737.2
29154.5
38753.9
29290.5
39274
29670.9
38000.2
30097.9
37412.6
30752
34817.9
31442.3
33586.7
32405.3
29511
33374.8
25163.6
34674.1
20200
36819.6
16129.7
37863.6
42515.2
1959.36
41493
4620.52
44547.5
7590.92
43759.8
10710.1
42625
14119.7
42000.4
16923.5
41712.1
20124.8
41634.6
22145.1
41573
24654.1
41717.4
25572.2
41846.9
26839.4
42225.4
26737.6
42631.3
27074.8
43251.6
25836.9
43910.5
25557.3
44810.3
22996.9
45750.3
19883.3
46886
16052.5
49194.5
12683.5
49808.2
55300.3
2615.65
57543.5
6575.76
57737.3
9964.28
57000.2
13227.1
55538.5
16135.6
54919.7
18732.4
54552.4
21373.3
54386.6
23337.1
54205.9
25418.8
54255.7
26488.4
54239.3
27471
54509.7
27622.1
54782.3
27675.2
55298
26660
55843.6
26067.6
56648.6
23581.6
57517.1
20126.8
58520.9
15973
60972
12110.5
61263.2
67507.5
3034.62
71615.5
6647.91
70286.8
9960.49
69720.2
12718.4
68094
15494.8
67502.2
17536.6
67058.2
20175
66743.8
21644.7
66458.3
23903.2
66337
24602.8
66209.6
25882.3
66313.8
25766
66500.4
26221.1
66865
25039.3
67367.4
24773.8
68029.1
22289.3
68890.9
19166.7
69706.3
15233.7
72307.8
11493.4
72315.3
79052
2831.47
80662.1
6941.34
78209.1
9277.86
78519.5
12116.3
77011.5
13678.2
76606.5
16054.1
76232.1
17461.1
75788.9
19612.7
75480.5
20689.8
75139.5
22371.5
74949.8
22674.9
74809.1
23736
74933.3
23172.3
75051.4
23182.4
75526.8
22109.8
75980.2
20594.8
76891.6
17030.6
77550.8
12846.7
80409.4
8752.51
80352.8
87843.4
841.393
94346.5
3270.95
90830.4
4971
90926.4
7726.81
88963.5
9674.69
88001
12766
87227.3
15158.3
86050.7
18227.6
85473.3
20415.9
84396.7
22960.9
84052.9
24197.3
83231.2
25928.8
83281.2
26083.5
82815.8
26314.6
83460.3
25393.1
83496.7
23474.3
84801.8
19473.8
85169
14276.1
88534.7
8704.85
88781.2
96451.7
3812.97
84661.3
7902.3
82410.1
9851.97
83065.8
14246.9
81550.7
15193
81340.5
19668.4
81148.1
19546.4
80552.6
24046.4
80508.5
22783.3
79914
26893.5
80065.2
24561.2
79651.5
27880.1
80162
23583.3
80013.3
25368.2
81069.1
20248.4
81268
20037.8
82881.9
13824.4
83273.4
7622.94
87101.7
1523.57
87379.1
98086.6
4579.39
124890
9626.85
121136
13944.4
120156
19075.4
117631
22472.3
115909
27897.7
114530
31115
112350
36311.7
111001
38463.6
108706
42871.6
107467
43134.4
105215
46571.3
104225
45487.6
102092
47090.5
101572
45609.4
100026
43572.3
100294
36439.8
100374
27143.7
104408
14482.7
107838
112210
-18581.3
123347
-33581.5
118244
-48919.4
119127
-60557.2
117274
-74841.8
116434
-82630.9
115143
-96512.4
113231
-100594
111406
-113736
108574
-113655
105993
-124670
102248
-119790
98794
-128761
94106.6
-118829
89898.2
-121470
84206.8
-105998
78487.6
-96793.8
70844.9
-76284.7
64673
-54942.1
62307.5
56930
-87023.1
201800
-158051
177276
-211939
171546
-264985
164552
-307785
160616
-350681
156237
-388011
152113
-423310
147325
-455872
141772
-482753
135015
-508256
126383
-522100
115342
-532800
100615
-522114
81451.8
-500455
55997.7
-446464
23201.2
-366430
-18181.7
-249245
-62314.8
-115463
-90531.7
-59106.7
-136731
263753
-269163
246280
-386500
243617
-503691
239157
-611366
236222
-718595
232193
-819291
227240
-916205
220279
-1.00618e+06
210662
-1.08705e+06
196949
-1.15539e+06
177321
-1.20514e+06
149149
-1.22925e+06
109341
-1.21678e+06
54779.6
-1.15792e+06
-17713.8
-1.03648e+06
-110407
-842262
-222740
-575250
-339510
-268512
-414728
-327518
-277801
561587
-515427
497985
-743161
485050
-962071
468802
-1.17349e+06
458152
-1.37857e+06
446153
-1.57522e+06
432242
-1.76163e+06
413700
-1.93319e+06
388407
-2.08437e+06
352980
-2.20575e+06
303265
-2.28753e+06
233616
-2.31219e+06
138097
-2.26722e+06
10767.6
-2.12765e+06
-154073
-1.87784e+06
-360851
-1.49297e+06
-603563
-988002
-841950
-427022
-972305
-755055
-470170
960517
-929111
905392
-1.37739e+06
888945
-1.81434e+06
871937
-2.24586e+06
856229
-2.6609e+06
835721
-3.06456e+06
807766
-3.44066e+06
769066
-3.79232e+06
715415
-4.09791e+06
640797
-4.35229e+06
536337
-4.52511e+06
390310
-4.59624e+06
189413
-4.51953e+06
-80727.6
-4.25601e+06
-435469
-3.74479e+06
-885205
-2.95262e+06
-1.40843e+06
-1.90713e+06
-1.90041e+06
-790106
-2.10997e+06
-1.54556e+06
-1.13506e+06
2.08409e+06
-2.08035e+06
1.84845e+06
-3.00418e+06
1.80396e+06
-3.87356e+06
1.74131e+06
-4.72603e+06
1.70024e+06
-5.54483e+06
1.65495e+06
-6.34864e+06
1.603e+06
-7.11309e+06
1.53308e+06
-7.84102e+06
1.43404e+06
-8.49199e+06
1.28973e+06
-9.044e+06
1.07888e+06
-9.43278e+06
775141
-9.60363e+06
350146
-9.46307e+06
-227005
-8.92393e+06
-984968
-7.86666e+06
-1.95e+06
-6.19845e+06
-3.08474e+06
-3.9531e+06
-4.15524e+06
-1.52927e+06
-4.54999e+06
-3.0756e+06
-1.67763e+06
3.68582e+06
-3.49516e+06
3.62181e+06
-5.33389e+06
3.59307e+06
-7.18213e+06
3.56378e+06
-9.04326e+06
3.52194e+06
-1.08573e+07
3.45101e+06
-1.26229e+07
3.33402e+06
-1.42616e+07
3.15703e+06
-1.57614e+07
2.90222e+06
-1.70343e+07
2.54881e+06
-1.8053e+07
2.06898e+06
-1.87207e+07
1.42844e+06
-1.89839e+07
585428
-1.87095e+07
-516048
-1.77619e+07
-1.95741e+06
-1.586e+07
-3.86606e+06
-1.2733e+07
-6.23059e+06
-8.27973e+06
-8.62611e+06
-3.18157e+06
-9.67783e+06
-6.2571e+06
-5.58222e+06
9.33579e+06
-9.93844e+06
8.04553e+06
-1.39846e+07
7.67209e+06
-1.75622e+07
7.19122e+06
-2.08376e+07
6.81713e+06
-2.37723e+07
6.42663e+06
-2.64557e+07
6.03076e+06
-2.88666e+07
5.60098e+06
-3.10679e+07
5.11086e+06
-3.30179e+07
4.5237e+06
-3.47264e+07
3.78144e+06
-3.6069e+07
2.78821e+06
-3.69004e+07
1.41878e+06
-3.69296e+07
-477587
-3.57322e+07
-3.15301e+06
-3.26817e+07
-6.91593e+06
-2.71187e+07
-1.17892e+07
-1.85751e+07
-1.71681e+07
-7.81028e+06
-2.04408e+07
-1.4068e+07
-3.8599e+06
1.31698e+07
-1.04525e+07
1.46471e+07
-1.7477e+07
1.46674e+07
-2.48638e+07
1.45877e+07
-3.24612e+07
1.4384e+07
-4.00871e+07
1.40603e+07
-4.76555e+07
1.35688e+07
-5.49067e+07
1.28563e+07
-6.17528e+07
1.19264e+07
-6.79047e+07
1.06748e+07
-7.30434e+07
8.89234e+06
-7.65999e+07
6.3385e+06
-7.79781e+07
2.77024e+06
-7.66905e+07
-1.7767e+06
-7.23335e+07
-7.53345e+06
-6.4559e+07
-1.47064e+07
-5.29673e+07
-2.33953e+07
-3.69667e+07
-3.31839e+07
-1.67071e+07
-4.07239e+07
-3.07757e+07
-2.83433e+07
4.15305e+07
-5.23358e+07
3.86823e+07
-7.45742e+07
3.69017e+07
-9.39804e+07
3.40261e+07
-1.10599e+08
3.09897e+07
-1.24066e+08
2.75529e+07
-1.33939e+08
2.34259e+07
-1.40512e+08
1.94468e+07
-1.44261e+08
1.56551e+07
-1.44547e+08
1.09693e+07
-1.41167e+08
5.49096e+06
-1.34253e+08
-575682
-1.24143e+08
-7.36288e+06
-1.11136e+08
-1.47943e+07
-9.57742e+07
-2.29195e+07
-7.87303e+07
-3.17693e+07
-6.05588e+07
-4.1586e+07
-4.10725e+07
-5.26923e+07
-1.8796e+07
-6.3032e+07
-4.95734e+07
-7.08473e+07
-1.12569e+08
-1.41708e+08
-1.61582e+08
-1.74656e+08
-1.82549e+08
-1.87379e+08
-1.88705e+08
-1.86533e+08
-1.80706e+08
-1.71504e+08
-1.59412e+08
-1.45321e+08
-1.29587e+08
-1.12679e+08
-9.48739e+07
-7.65673e+07
-5.7596e+07
-3.57913e+07
)
;

boundaryField
{
    outletWall
    {
        type            calculated;
        value           nonuniform List<scalar> 
60
(
1.57879e+10
-3.59532e+10
1.33191e+10
8.12111e+09
4.41318e+09
3.46729e+09
2.78467e+09
2.22988e+09
1.75166e+09
1.36068e+09
1.0599e+09
8.30316e+08
6.52874e+08
5.15745e+08
4.04814e+08
3.28239e+08
2.3645e+08
2.79808e+08
8.70772e+07
7.15622e+08
1.47263e+07
-154299
8.08301e+06
7.9196e+06
1.05578e+07
1.22697e+07
1.45321e+07
1.69231e+07
1.97642e+07
2.30393e+07
2.67078e+07
3.0674e+07
3.5009e+07
3.89082e+07
3.86077e+07
3.71692e+07
4.31281e+07
8.24267e+06
-1.25038e+08
1.145e+08
-2.51656e+09
-3.23743e+09
-3.0754e+09
-2.84015e+09
-2.4695e+09
-2.09393e+09
-1.71634e+09
-1.37165e+09
-1.06739e+09
-8.10799e+08
-6.00214e+08
-4.31857e+08
-2.99485e+08
-1.96146e+08
-1.1398e+08
-4.82593e+07
-299566
3.41728e+07
1.3877e+06
9.20395e+07
)
;
    }
    fineWalls
    {
        type            calculated;
        value           uniform 0;
    }
    fineFrontAndBack
    {
        type            calculated;
        value           nonuniform List<scalar> 
960
(
-1.32222e-09
8.36448e-08
-6.42195e-08
-6.18659e-08
-2.28975e-07
-4.23988e-08
5.22421e-08
-2.88356e-07
2.51252e-06
8.73933e-07
1.01042e-06
-5.08534e-06
-1.95948e-06
-1.39471e-06
-1.59208e-05
-3.1813e-06
-2.25784e-06
-9.6368e-06
-1.1497e-06
-1.23075e-06
1.10547e-08
9.25455e-08
-6.26016e-09
-8.12393e-08
-1.05241e-07
-9.76974e-08
-1.68293e-06
-6.27723e-08
-4.86823e-08
-3.54278e-08
-2.46707e-08
-1.64642e-08
-1.01568e-08
1.15004e-09
1.63642e-08
3.5832e-08
5.53143e-08
9.19802e-08
1.01322e-07
3.7999e-07
-6.81039e-08
-5.89225e-07
-3.75464e-07
-5.84305e-07
-1.10916e-05
-2.14416e-06
-1.77558e-06
-9.07245e-07
-1.92658e-05
-8.92215e-07
3.39607e-06
2.21791e-05
2.60346e-06
1.93384e-06
1.33036e-06
6.62864e-06
1.85849e-07
-1.68384e-07
1.43574e-07
-1.27672e-05
-5.0375e-07
-3.50829e-07
-2.58309e-07
-1.96602e-07
-1.50368e-07
-1.12974e-07
-8.41728e-08
-6.53867e-08
-5.14137e-08
-4.74605e-08
-5.14086e-08
-5.75512e-08
-6.13315e-08
6.69814e-07
-8.11633e-08
-7.0872e-08
-9.81483e-08
-9.5013e-08
-3.64445e-07
-4.76639e-07
7.94096e-07
1.14682e-06
4.28491e-06
4.25067e-07
7.1921e-07
-1.15118e-05
-3.83708e-06
-2.79693e-06
-2.83193e-05
-5.06921e-06
-1.94663e-06
-3.93425e-05
-9.73013e-06
-7.47467e-06
-3.91701e-06
-7.20897e-05
-2.88413e-05
-3.46353e-05
0.000117081
0.000240969
-7.13594e-07
-5.58699e-07
-8.85682e-07
-1.11708e-06
-1.50342e-06
-1.9952e-06
-2.66454e-06
-3.56561e-06
-4.79153e-06
-6.46587e-06
-8.76149e-06
-1.19257e-05
-1.6346e-05
-2.26563e-05
-3.16711e-05
-4.374e-05
-5.73831e-05
-6.59606e-05
-4.5035e-05
-1.18963e-07
-1.97946e-07
-4.8573e-07
-6.01375e-07
-8.3851e-07
-1.14628e-06
-1.57772e-06
-2.16918e-06
-2.9811e-06
-4.09458e-06
-5.62163e-06
-7.67848e-06
-1.02496e-05
-1.28604e-05
-1.42625e-05
-1.32021e-05
-1.26783e-05
-2.65487e-05
-6.40628e-05
3.51213e-09
-1.02522e-07
-2.60014e-07
-3.34345e-07
-4.74316e-07
-6.58122e-07
-9.1824e-07
-1.27759e-06
-1.77674e-06
-2.46718e-06
-3.40148e-06
-4.57961e-06
-5.82733e-06
-6.63277e-06
-6.11203e-06
-3.39396e-06
-9.91047e-07
-1.0944e-06
1.28314e-05
2.34774e-08
-4.79569e-08
-1.48479e-07
-1.96758e-07
-2.80642e-07
-3.93275e-07
-5.52958e-07
-7.75368e-07
-1.0868e-06
-1.51862e-06
-2.0969e-06
-2.80669e-06
-3.49961e-06
-3.67275e-06
-2.72462e-06
-1.46589e-06
-7.0011e-07
-9.44199e-09
2.33578e-07
1.92792e-08
-3.36289e-08
-8.92358e-08
-1.20823e-07
-1.72401e-07
-2.43149e-07
-3.43722e-07
-4.84831e-07
-6.84114e-07
-9.63897e-07
-1.33881e-06
-1.74656e-06
-2.04184e-06
-1.91801e-06
-1.17703e-06
-4.9422e-07
-3.5151e-08
1.62225e-07
6.88667e-07
5.9115e-09
-2.51789e-08
-5.45516e-08
-7.61455e-08
-1.08564e-07
-1.537e-07
-2.18045e-07
-3.10142e-07
-4.40246e-07
-6.09795e-07
-8.14243e-07
-1.00421e-06
-1.08299e-06
-8.83098e-07
-5.40485e-07
-4.89275e-08
4.12847e-07
3.47853e-07
-1.91349e-07
-7.70271e-09
-1.66789e-08
-3.26128e-08
-4.84422e-08
-6.93654e-08
-9.87594e-08
-1.42366e-07
-1.9844e-07
-2.71712e-07
-3.60474e-07
-4.52424e-07
-5.22796e-07
-5.09032e-07
-3.72387e-07
-1.75291e-07
8.01593e-07
9.94389e-07
3.31177e-07
5.84309e-08
-1.38158e-08
-8.35665e-09
-1.80649e-08
-3.03631e-08
-4.47042e-08
-6.4411e-08
-7.92499e-08
-1.15363e-07
-1.55308e-07
-1.92199e-07
-2.37858e-07
-2.30505e-07
-1.69009e-07
-3.01903e-07
1.42129e-06
2.64703e-06
1.37432e-06
1.51274e-07
1.54091e-08
-1.22512e-08
-1.89108e-09
-8.40384e-09
-1.80279e-08
-2.81789e-08
-3.59177e-08
-1.25115e-07
-9.40335e-08
-8.4329e-08
-1.14704e-07
5.85866e-09
-3.87795e-07
7.27768e-07
-2.37137e-08
6.89361e-06
4.80895e-06
1.03893e-06
-7.99631e-08
-1.35463e-07
-7.34607e-09
1.72692e-09
-2.40243e-09
-9.28177e-09
-1.58528e-08
-4.19864e-08
3.73084e-07
9.75728e-08
-4.06631e-08
8.30631e-08
-1.26968e-06
5.86958e-06
5.62584e-06
6.02615e-07
1.07405e-05
4.13416e-06
1.30672e-07
-1.40102e-07
1.6155e-07
-2.76972e-09
2.80403e-09
7.58446e-10
-3.35924e-09