/*--------------------------------*- C++ -*----------------------------------*\
| =========                 |                                                 |
| \\      /  F ield         | OpenFOAM: The Open Source CFD Toolbox           |
|  \\    /   O peration     | Version:  4.1                                   |
|   \\  /    A nd           | Web:      www.OpenFOAM.org                      |
|    \\/     M anipulation  |                                                 |
\*---------------------------------------------------------------------------*/
FoamFile
{
    version     2.0;
    format      ascii;
    class       volVectorField;
    location    "27";
    object      U;
}
// * * * * * * * * * * * * * * * * * * * * * * * * * * * * * * * * * * * * * //

dimensions      [0 1 -1 0 0 0 0];

internalField   nonuniform List<vector> 
1280
(
(-9.55537e-13 1.2497e+06 -19566.3)
(1.42162e-11 1.06664e+06 129606)
(-7.06989e-11 718382 84929.8)
(-4.47089e-11 748131 48457.9)
(-3.89165e-11 991465 144803)
(-3.06405e-11 662236 72131.6)
(3.7754e-11 738199 48781.5)
(-2.61768e-10 661354 49161.5)
(6.40555e-10 884326 7231.09)
(6.85267e-10 676486 -4471.96)
(7.1678e-10 667935 7085.42)
(-1.7651e-09 911011 3191.4)
(-1.40282e-09 684826 -1056.28)
(-9.94671e-10 676496 104.102)
(-3.65262e-09 925452 39885)
(-2.29904e-09 692960 23250.4)
(-1.63168e-09 676651 5900.16)
(-1.63787e-09 974929 98634.1)
(-8.30857e-10 642212 47719.3)
(-8.89432e-10 776762 66615.4)
(4.53526e-11 702969 -27621.2)
(3.79674e-10 684324 -39938.5)
(-2.56827e-11 695662 -30578.6)
(-3.33289e-10 676395 -16763.9)
(-4.31756e-10 687522 5605.31)
(-4.0081e-10 623560 18054.6)
(-3.54769e-10 1.204e+06 127351)
(-2.57528e-10 681388 66333.6)
(-1.99722e-10 658506 27844.5)
(-1.45345e-10 669807 -1342.11)
(-1.01213e-10 666313 -13878)
(-6.75454e-11 664086 -15413.6)
(-4.16688e-11 666134 -8750.61)
(4.71813e-12 668151 4207.43)
(6.71352e-11 672260 21414.4)
(1.47003e-10 673548 42458)
(2.26931e-10 683261 65204.1)
(3.77355e-10 676110 93850.6)
(4.1568e-10 706918 116460)
(1.55893e-09 662002 172449)
(-1.18545e-11 1.54472e+06 -105818)
(-4.73273e-10 829932 -83617.6)
(-3.01578e-10 857978 -70327.2)
(-6.44617e-10 804256 -26103.8)
(-2.52359e-09 1.27926e+06 -218954)
(-1.72222e-09 933518 -150091)
(-1.42617e-09 1.07086e+06 -114412)
(-7.28711e-10 962737 -50144.3)
(-3.86527e-09 1.42235e+06 -187837)
(3.38877e-10 1.13872e+06 -109963)
(3.78329e-09 1.11495e+06 -63752.5)
(3.86059e-09 1.71726e+06 -161591)
(2.09114e-09 1.2298e+06 -110236)
(1.55328e-09 1.40375e+06 -93954.5)
(1.06856e-09 1.25161e+06 -44490.1)
(1.15381e-09 1.91939e+06 -110935)
(-7.80094e-11 1.37966e+06 -66075.3)
(-1.35248e-10 1.58598e+06 -35228)
(1.15321e-10 1.36195e+06 -660.586)
(-2.97214e-09 2.40665e+06 43626.4)
(-2.06667e-09 1.60064e+06 -255045)
(-1.4393e-09 1.52647e+06 -280816)
(-1.05973e-09 1.54041e+06 -244120)
(-8.06571e-10 1.52811e+06 -198785)
(-6.16896e-10 1.50962e+06 -154744)
(-4.63482e-10 1.4974e+06 -110502)
(-3.45324e-10 1.48572e+06 -65078.1)
(-2.68253e-10 1.47621e+06 -18038.5)
(-2.10928e-10 1.46386e+06 29843.1)
(-1.9471e-10 1.46183e+06 80656.7)
(-2.10907e-10 1.4371e+06 131118)
(-2.36108e-10 1.46909e+06 184289)
(-2.51616e-10 1.36046e+06 242998)
(1.41199e-10 2.98603e+06 -250285)
(-3.32978e-10 1.84745e+06 27960.6)
(-2.90757e-10 1.85312e+06 6111.12)
(-4.0266e-10 1.9195e+06 -2086.94)
(-3.89797e-10 1.92152e+06 29158)
(-1.49516e-09 1.98844e+06 53326)
(-1.95544e-09 1.90725e+06 197071)
(5.73872e-10 2.54307e+06 -123493)
(8.28773e-10 1.78521e+06 -46196.6)
(7.28261e-10 2.88697e+06 -1.14322e+06)
(3.07185e-10 2.56553e+06 -761143)
(5.19754e-10 2.59953e+06 -426206)
(-1.78235e-09 3.81259e+06 -1.20906e+06)
(-2.72941e-09 3.33955e+06 -750983)
(-2.45677e-09 3.28727e+06 -404383)
(-5.9108e-09 5.03066e+06 -1.65501e+06)
(-3.32037e-09 4.15283e+06 -1.14312e+06)
(-1.13236e-09 4.23004e+06 -613217)
(-7.94897e-09 6.78832e+06 -3.00685e+06)
(-7.39237e-09 5.89904e+06 -2.29359e+06)
(-5.40175e-09 7.53703e+06 -538802)
(-2.83072e-09 5.44837e+06 -6.15617e+06)
(-1.22523e-08 1.08375e+07 6.24777e+07)
(-2.08429e-08 -1.2351e+07 1.22336e+08)
(-2.503e-08 -2.11748e+07 1.47031e+08)
(2.00259e-08 -4.08565e+07 -1.10726e+08)
(1.74142e-07 -1.07701e+08 -1.00575e+09)
(-7.92882e-11 906292 1.04035e+06)
(-6.20777e-11 280990 376056)
(-9.84091e-11 600148 808809)
(-1.2412e-10 626531 934273)
(-1.67047e-10 781127 1.21533e+06)
(-2.21688e-10 939014 1.53361e+06)
(-2.9606e-10 1.14167e+06 1.95516e+06)
(-3.96178e-10 1.38825e+06 2.49409e+06)
(-5.32393e-10 1.69424e+06 3.19217e+06)
(-7.1843e-10 2.07892e+06 4.09582e+06)
(-9.73498e-10 2.57844e+06 5.26767e+06)
(-1.32508e-09 3.25968e+06 6.79602e+06)
(-1.81622e-09 4.25023e+06 8.83023e+06)
(-2.51736e-09 5.7811e+06 1.16319e+07)
(-3.51901e-09 8.07921e+06 1.55261e+07)
(-4.86e-09 1.08953e+07 2.05414e+07)
(-6.3759e-09 1.3304e+07 2.54852e+07)
(-7.32895e-09 1.26401e+07 2.78437e+07)
(-5.00389e-09 555430 2.50559e+07)
(-1.32181e-11 -391145 91269.5)
(-2.1994e-11 -112313 155398)
(-5.397e-11 -367939 197596)
(-6.68195e-11 -395927 222887)
(-9.31678e-11 -484791 326758)
(-1.27365e-10 -589978 439945)
(-1.75303e-10 -718886 594111)
(-2.4102e-10 -877074 790455)
(-3.31233e-10 -1.07027e+06 1.04511e+06)
(-4.54954e-10 -1.31038e+06 1.39153e+06)
(-6.24625e-10 -1.62693e+06 1.90152e+06)
(-8.53164e-10 -2.09061e+06 2.69371e+06)
(-1.13885e-09 -2.85082e+06 3.89815e+06)
(-1.42893e-09 -4.15256e+06 5.43769e+06)
(-1.58472e-09 -6.17184e+06 6.62717e+06)
(-1.4669e-09 -8.11866e+06 6.78432e+06)
(-1.4087e-09 -6.56327e+06 7.63981e+06)
(-2.94985e-09 4.38585e+06 1.43235e+07)
(-7.11809e-09 1.92741e+07 3.52793e+07)
(3.90237e-13 -140825 -58718.7)
(-1.13913e-11 131152 93776)
(-2.88904e-11 53280.4 117326)
(-3.71495e-11 68134.8 141738)
(-5.27018e-11 44569.9 185797)
(-7.31247e-11 60384.2 241939)
(-1.02027e-10 58247.9 313362)
(-1.41954e-10 55022.8 405248)
(-1.97415e-10 33403.4 526995)
(-2.74131e-10 -22111.8 696996)
(-3.77942e-10 -128752 942015)
(-5.08845e-10 -273962 1.27825e+06)
(-6.47481e-10 -367436 1.66179e+06)
(-7.36975e-10 -168296 1.8395e+06)
(-6.79114e-10 680888 1.22907e+06)
(-3.77106e-10 1.93974e+06 -757966)
(-1.10116e-10 736732 -2.64621e+06)
(-1.216e-10 -1.5194e+06 -6.27645e+06)
(1.42571e-09 -1.33472e+06 -9.49445e+06)
(2.6086e-12 -37351.5 -36425.7)
(-5.32855e-12 -41022.7 5791.53)
(-1.64977e-11 -32848.9 94400.9)
(-2.18619e-11 -47427.6 101211)
(-3.11824e-11 -65292.6 127631)
(-4.36972e-11 -86095.9 154362)
(-6.14397e-11 -113529 191045)
(-8.6152e-11 -150324 236435)
(-1.20756e-10 -203833 295616)
(-1.68736e-10 -286438 368347)
(-2.32989e-10 -413309 445998)
(-3.11855e-10 -578889 483847)
(-3.88845e-10 -695050 387061)
(-4.08084e-10 -493885 -31171.7)
(-3.02736e-10 199816 -1.34696e+06)
(-1.62876e-10 434091 -2.26053e+06)
(-7.77901e-11 466722 -3.4716e+06)
(-1.04911e-12 3.40605e+06 -3.96338e+06)
(2.59531e-11 7.54125e+06 -2.80993e+06)
(2.14213e-12 -65636.4 11911)
(-3.73655e-12 -39796.6 5396.55)
(-9.91509e-12 -59614.4 65590)
(-1.34247e-11 -71438 66045.9)
(-1.91557e-11 -100187 82429.3)
(-2.70166e-11 -128394 91301)
(-3.81913e-11 -167091 104632)
(-5.38701e-11 -217913 116799)
(-7.60126e-11 -289445 128227)
(-1.071e-10 -393198 126718)
(-1.48756e-10 -537819 84670.3)
(-1.94063e-10 -695783 -67611.4)
(-2.26871e-10 -772114 -378840)
(-2.13112e-10 -539125 -990087)
(-1.30782e-10 -26925.7 -1.85226e+06)
(-5.49134e-11 484181 -2.19212e+06)
(-3.90566e-12 849964 -3.01567e+06)
(1.8025e-11 1.70982e+06 -3.68093e+06)
(7.65186e-11 3.04099e+06 -2.90272e+06)
(6.56833e-13 -57486.8 57369.2)
(-2.79765e-12 -48174.6 9766.27)
(-6.06129e-12 -54196.9 49710.6)
(-8.46062e-12 -60990 45304)
(-1.20626e-11 -85112.6 54880.4)
(-1.70778e-11 -108644 52802.3)
(-2.42272e-11 -141678 50981.1)
(-3.44603e-11 -185504 40580.6)
(-4.89163e-11 -246809 17630.3)
(-6.7755e-11 -328124 -35952.3)
(-9.04714e-11 -424100 -146838)
(-1.11578e-10 -502639 -383020)
(-1.20332e-10 -460108 -740077)
(-9.8122e-11 -72509.5 -1.40223e+06)
(-6.00539e-11 435202 -1.83767e+06)
(-5.43639e-12 766831 -2.04755e+06)
(4.58718e-11 1.07114e+06 -2.44442e+06)
(3.86503e-11 2.28929e+06 -2.70791e+06)
(-2.1261e-11 4.16461e+06 -2.19221e+06)
(-8.55856e-13 -49389.1 85855)
(-1.85322e-12 -54258.8 6186.1)
(-3.62364e-12 -56262.2 40266.3)
(-5.38247e-12 -63764.2 30008.4)
(-7.70726e-12 -84092.5 34738.9)
(-1.09733e-11 -105928 24915.9)
(-1.58184e-11 -135790 12315.8)
(-2.20489e-11 -173007 -14998.4)
(-3.01903e-11 -219904 -61833.9)
(-4.00527e-11 -277960 -147228)
(-5.02694e-11 -334459 -293945)
(-5.80884e-11 -364027 -551038)
(-5.65591e-11 -249650 -919202)
(-4.13763e-11 90206.4 -1.47948e+06)
(-1.94767e-11 427934 -1.726e+06)
(8.90659e-11 773371 -1.85114e+06)
(1.10488e-10 1.17669e+06 -2.07243e+06)
(3.67974e-11 2.00542e+06 -2.25989e+06)
(6.49232e-12 3.21492e+06 -1.5298e+06)
(-1.53509e-12 -51491.7 95351.2)
(-9.28516e-13 -51265.7 -504.049)
(-2.00722e-12 -57428.4 32674.2)
(-3.37368e-12 -65305.3 16797.3)
(-4.96714e-12 -83393.6 17878.9)
(-7.15677e-12 -103324 1385.04)
(-8.80554e-12 -128444 -20494.3)
(-1.28181e-11 -158477 -60723.8)
(-1.72565e-11 -194676 -124335)
(-2.13554e-11 -234463 -227434)
(-2.64286e-11 -261700 -393046)
(-2.56117e-11 -249952 -635090)
(-1.87787e-11 -97901.5 -1.04032e+06)
(-3.35448e-11 214418 -1.38445e+06)
(1.57921e-10 523038 -1.55404e+06)
(2.94115e-10 854349 -1.65722e+06)
(1.52702e-10 1.24067e+06 -1.75035e+06)
(1.68082e-11 1.94707e+06 -1.79251e+06)
(1.71213e-12 3.00633e+06 -861023)
(-1.36125e-12 -53931.2 93014)
(-2.10121e-13 -45719.5 -7067.38)
(-9.3376e-13 -56088.9 26364)
(-2.0031e-12 -63207 5540.44)
(-3.13098e-12 -78317.1 3587.47)
(-3.99086e-12 -94137.5 -18788.9)
(-1.39017e-11 -113394 -48235.4)
(-1.04482e-11 -135230 -97572)
(-9.36989e-12 -158842 -172161)
(-1.27449e-11 -178672 -285253)
(6.50962e-13 -179296 -456685)
(-4.30883e-11 -122144 -698815)
(8.08631e-11 52795.6 -1.06407e+06)
(-2.63486e-12 297730 -1.27938e+06)
(7.65956e-10 556949 -1.39913e+06)
(5.34328e-10 868286 -1.47333e+06)
(1.15437e-10 1.24773e+06 -1.50767e+06)
(-8.88479e-12 1.77934e+06 -1.48061e+06)
(-1.50514e-11 2.50864e+06 -837284)
(-8.1623e-13 -55046.7 85488)
(1.9188e-13 -40526.2 -12649.2)
(-2.66937e-13 -53943.9 21074.1)
(-1.03131e-12 -59813.9 -4038.07)
(-1.76142e-12 -71445.8 -9022.21)
(-4.66515e-12 -82630 -35769.9)
(5.06831e-11 -95875.1 -71162.7)
(1.08414e-11 -108738 -126794)
(-4.51812e-12 -119340 -208668)
(9.22923e-12 -120204 -328965)
(-1.41075e-10 -95206.1 -501288)
(8.63421e-10 -5258.52 -756251)
(6.25093e-10 149109 -994846)
(6.69572e-11 350109 -1.14694e+06)
(1.46636e-09 593736 -1.2431e+06)
(4.59351e-10 889719 -1.30018e+06)
(1.45191e-11 1.24123e+06 -1.29699e+06)
(-1.55669e-11 1.68953e+06 -1.21586e+06)
(1.79501e-11 2.26986e+06 -738268)
(-3.07747e-13 -55145.9 76390.5)
(3.11559e-13 -35870.1 -16982.8)
(8.42718e-14 -51218.5 16488.4)
(-3.73249e-13 -55209.1 -12106.1)
(-7.94979e-13 -63561.4 -20241.3)
(-1.6782e-12 -69976.9 -49774.6)
(-2.69108e-11 -76770 -89759.5)
(2.86548e-15 -80562.3 -150279)
(-7.34332e-13 -78087.2 -237951)
(6.96408e-12 -61448.5 -364349)
(-1.38936e-11 -10976.3 -542983)
(-2.30358e-11 82416.6 -740624)
(-4.76567e-11 212525 -898378)
(-1.25865e-11 393905 -1.01781e+06)
(-1.63131e-10 620383 -1.09917e+06)
(-9.43069e-11 895086 -1.14086e+06)
(-1.51879e-11 1.21696e+06 -1.11636e+06)
(-1.49983e-13 1.59552e+06 -1.01116e+06)
(8.03991e-11 2.03142e+06 -685774)
(1.01897e-14 -54239.1 67391.8)
(2.64579e-13 -31761.6 -20256.5)
(2.06347e-13 -47582.8 11833)
(-1.06511e-15 -49285.2 -18265)
(-2.75777e-13 -54736.8 -29695.2)
(1.41221e-12 -55971 -60937.6)
(-2.0012e-11 -55913.3 -104800)
(-1.32393e-11 -50052.1 -169481)
(-6.12135e-12 -34603 -264673)
(-2.24527e-12 -158.475 -392042)
(-1.00234e-12 58059.6 -537455)
(2.419e-13 140514 -670159)
(3.57595e-12 261135 -792891)
(1.53377e-12 430941 -896319)
(1.58228e-11 642636 -964677)
(1.42884e-11 897239 -993933)
(4.22295e-12 1.18857e+06 -952625)
(-1.26645e-13 1.52944e+06 -840092)
(1.96969e-11 1.87793e+06 -604108)
(1.58509e-13 -52257.2 59215.6)
(1.62879e-13 -28117.6 -22917.6)
(1.93513e-13 -43683.2 7304.16)
(1.36582e-13 -42554.1 -22729.6)
(-9.19248e-14 -44989.1 -37045.3)
(1.82396e-12 -40940.1 -69693.9)
(-6.74343e-12 -33385.7 -116725)
(-8.03697e-12 -17706.3 -188978)
(-5.24503e-12 10222.8 -280682)
(-2.58143e-12 49379.1 -381286)
(-9.22883e-13 103828 -483151)
(-2.02532e-13 185563 -589472)
(-3.07945e-13 303673 -694270)
(-1.42712e-13 463415 -784244)
(-1.59796e-12 659765 -839538)
(-2.05399e-12 892956 -858923)
(-9.01512e-13 1.15578e+06 -802053)
(2.28911e-13 1.46643e+06 -695259)
(-7.82564e-12 1.77275e+06 -491121)
(2.12092e-13 -49784.9 51962.3)
(7.39593e-14 -24745.6 -23963)
(1.28186e-13 -39482.2 2416.55)
(1.36648e-13 -35473.7 -25751.1)
(-4.36983e-14 -34675.5 -42318.7)
(7.6481e-13 -24946.5 -76207.7)
(2.32637e-13 -8839.98 -128325)
(9.29479e-14 15524 -195572)
(1.77599e-13 44018.8 -263417)
(2.21421e-13 82962.8 -338097)
(1.54128e-13 141103 -422269)
(5.97144e-14 224937 -513806)
(3.9698e-14 339623 -603228)
(1.25815e-14 489619 -679703)
(1.71377e-13 671491 -722919)
(2.93272e-13 883432 -734759)
(1.67753e-13 1.11878e+06 -665046)
(1.17475e-13 1.38531e+06 -561148)
(-5.93014e-12 1.66139e+06 -186790)
(2.30198e-13 -46212.3 45233.1)
(2.4444e-14 -21049.2 -23671.7)
(6.60299e-14 -35069 -2222.75)
(9.10144e-14 -28308.2 -27582.7)
(-4.82051e-15 -23528.4 -45180.6)
(9.37262e-14 -7958.72 -82973.9)
(7.44121e-14 14396.8 -130157)
(3.83936e-14 37821.5 -176485)
(5.04504e-15 67849.8 -229682)
(-1.74219e-14 111802 -292928)
(-2.02193e-14 173591 -365257)
(-1.09406e-14 258075 -443227)
(-6.19814e-15 369816 -518065)
(-1.22461e-15 511521 -582030)
(-1.92288e-14 680471 -614948)
(-4.2322e-14 872727 -621441)
(-2.90049e-14 1.08228e+06 -549022)
(1.02485e-14 1.29732e+06 -454036)
(-6.91375e-12 1.50137e+06 -111871)
(2.45197e-13 -44662.5 39690.6)
(1.43478e-14 -17762.1 -23253.7)
(2.93893e-14 -30968 -6211.83)
(5.18067e-14 -21956.3 -28017.9)
(2.66455e-14 -12371.7 -47564.6)
(2.7204e-14 9346.61 -83240.1)
(1.54392e-14 30543.3 -115383)
(1.09571e-15 56059.1 -151908)
(-2.56721e-15 91129.7 -196654)
(3.59122e-16 139286 -250319)
(2.27916e-15 204317 -311028)
(1.72159e-15 290281 -376007)
(1.00251e-15 400383 -437498)
(1.50238e-16 535752 -489951)
(2.27472e-15 694248 -514024)
(6.11229e-15 869763 -516904)
(7.18256e-15 1.05737e+06 -445240)
(-9.28711e-14 1.24187e+06 -365224)
(5.80683e-12 1.39891e+06 -116878)
(2.54853e-13 -37168.5 33031.8)
(2.67258e-14 -12757.6 -20914.2)
(1.58392e-14 -25916.6 -8783.74)
(3.08795e-14 -14578 -26927)
(3.65812e-14 -130.165 -49538.2)
(2.09049e-14 20710.5 -72377.1)
(2.68178e-15 42292.1 -97033.9)
(-1.86084e-15 70354.5 -127028)
(-4.15169e-16 107793 -163992)
(1.061e-16 157859 -208026)
(-1.78408e-16 223712 -257504)
(-2.39808e-16 308221 -310233)
(-1.60627e-16 413728 -359471)
(-2.43534e-17 539969 -401379)
(-2.84926e-16 685204 -418308)
(-8.96336e-16 841206 -419094)
(-9.12462e-16 1.00608e+06 -350133)
(-1.07659e-14 1.16531e+06 -289969)
(2.09525e-12 1.29351e+06 -68943.3)
(2.77785e-13 -46707.7 30770.9)
(7.65409e-14 -12500.6 -21402.6)
(2.22454e-14 -24290.1 -10793)
(2.40847e-14 -11354.2 -26061.3)
(1.8167e-14 6648.1 -44122.4)
(2.52356e-15 25300.9 -60433.3)
(-1.93662e-15 46361.9 -79945.4)
(-4.81761e-16 73987.1 -104159)
(1.21194e-16 110691 -134008)
(3.64877e-17 159000 -169503)
(1.60058e-17 221506 -209232)
(2.90914e-17 300369 -251453)
(2.42973e-17 397385 -290530)
(4.52895e-18 511340 -323736)
(3.74095e-17 641361 -335782)
(1.30216e-16 777196 -335473)
(1.98981e-16 922463 -271224)
(-3.65032e-15 1.05604e+06 -225759)
(9.8585e-13 1.18788e+06 20833.3)
(1.73898e-13 -8334.01 12830.2)
(5.96693e-14 -1009.37 -6926.18)
(1.56747e-14 -13011.5 -7530.43)
(1.46215e-14 2383.05 -24707.9)
(9.26779e-15 17938.5 -39805.5)
(6.3731e-16 39055.9 -50998)
(-2.40074e-16 68181.9 -65698.4)
(3.89188e-17 106304 -84619.3)
(6.05668e-18 155763 -108080)
(-7.05213e-18 219392 -135934)
(-2.93086e-18 300010 -166950)
(-3.56236e-18 399499 -199668)
(-3.50974e-18 519335 -229539)
(-8.44664e-19 656860 -254404)
(-5.03364e-18 810846 -262140)
(-1.89015e-17 965824 -259652)
(-3.50077e-17 1.12817e+06 -203646)
(7.58105e-16 1.2452e+06 -162522)
(-6.23239e-13 1.37991e+06 140197)
(6.17138e-13 -99866.1 58489.6)
(2.54215e-13 -16198.5 -32702.7)
(1.01272e-13 -30409.5 -20208.4)
(5.22684e-14 -12195.2 -33587.7)
(9.6857e-15 22502.9 -26164.9)
(-2.12589e-17 53977.3 -25786.2)
(-1.27546e-16 90139.1 -31347.6)
(-1.99084e-17 135930 -39497.5)
(-3.04566e-18 194693 -49740)
(9.73599e-19 269335 -61841)
(4.85051e-19 362451 -75149)
(4.12295e-19 475461 -88908.2)
(4.40648e-19 608852 -101075)
(1.21097e-19 758907 -110593)
(6.24337e-19 922146 -112417)
(2.41162e-18 1.08203e+06 -109108)
(7.56797e-18 1.2384e+06 -82968.1)
(-9.49956e-16 1.32901e+06 -64776.4)
(1.0409e-12 1.4363e+06 99162.7)
(3.92951e-09 9529.1 -268618)
(5.55294e-09 -73759.7 -324786)
(3.27994e-09 -51634.1 -318230)
(1.49051e-09 -21187.5 -293641)
(5.01773e-10 257.662 -262487)
(-2.27908e-11 21457.7 -245119)
(-2.78727e-10 53703.8 -158601)
(-3.66967e-10 78187.9 -132690)
(-3.94078e-10 89114.9 -111060)
(-3.86337e-10 102630 -82733.8)
(-3.50596e-10 119761 -50212)
(-3.02063e-10 137640 -12247.9)
(-1.97788e-10 158294 33285.5)
(1.27291e-10 179857 85634.7)
(6.37517e-10 202491 143000)
(1.3547e-09 223120 207462)
(2.23228e-09 249996 275882)
(3.56691e-09 261266 363723)
(5.76572e-09 327285 444066)
(1.26282e-08 234966 621592)
(2.76942e-08 68226.2 291163)
(7.96924e-08 94307.9 149620)
(1.80043e-08 -89051.4 -166233)
(1.07356e-08 -88453.6 -181021)
(8.96514e-09 -67243.8 -160420)
(9.15713e-09 -44322.4 -148465)
(1.02173e-08 -21464.1 -119629)
(1.0134e-08 361.284 -95131.9)
(1.02614e-08 17434 -77194.4)
(1.09256e-08 31794.7 -62907.3)
(1.16023e-08 44913.5 -49744.2)
(1.11679e-08 56741 -36576.1)
(1.08211e-08 67382.6 -23056)
(1.12929e-08 76111.6 -8036.79)
(1.11804e-08 83347.9 8569.01)
(1.14323e-08 88269.3 27743.3)
(1.18194e-08 92719.5 48861.8)
(1.35673e-08 91868.7 76500.6)
(1.70067e-08 100398 103583)
(2.32505e-08 71680.1 160572)
(2.1188e-08 -28075.5 -23389.5)
(3.4384e-08 -42947.3 -21951.6)
(2.63278e-08 -56191.2 -53960.4)
(2.7861e-08 -54435.6 -68258)
(2.92905e-08 -45866.1 -66135.8)
(1.81573e-08 -36345.7 -63755.1)
(7.78159e-09 -22941.2 -50922)
(4.6303e-09 -7971.43 -32391.8)
(3.88339e-09 5552.22 -15685.7)
(3.49588e-09 16763 -1462.85)
(2.99219e-09 26543.9 11599.5)
(3.15055e-09 35410.8 24324.7)
(4.31435e-09 42716 35392.6)
(6.08579e-09 48397 45057.5)
(8.25868e-09 53186.9 54322.6)
(1.07289e-08 56866.2 64450.6)
(1.3627e-08 61458.5 75232.7)
(1.76061e-08 62368.8 89702.6)
(2.22455e-08 73596.3 102665)
(2.66917e-08 53932.9 133453)
(1.40266e-08 -29007.4 -54583.2)
(1.54673e-08 -21733 -26430.8)
(1.84762e-08 -12711.9 -20403)
(2.11939e-08 -15248.8 -28711.4)
(1.61783e-08 -10633.7 -28573)
(4.60622e-08 -5181.65 -26446.9)
(4.76181e-08 1212.75 -22427.4)
(4.50291e-08 7433.38 -16964.8)
(4.50479e-08 12507.9 -11720.4)
(4.37632e-08 16168.2 -7524.66)
(4.30695e-08 18610.3 -4441.28)
(4.20788e-08 20092.4 -1651.23)
(4.21013e-08 21036.8 1135.54)
(4.12823e-08 21638.5 4249.61)
(3.99172e-08 22168.5 7891.27)
(3.93178e-08 22562.5 12415.1)
(4.03661e-08 23455.9 17720.3)
(4.06445e-08 23385.5 25046.5)
(3.96726e-08 27021.5 32350.1)
(3.85037e-08 20305.1 47777.2)
(7.95462e-09 -19813.7 -41527.3)
(8.05665e-09 -16244.3 -30046.3)
(8.81023e-09 -5925.55 -15066.3)
(1.00391e-08 -2809.73 -10004)
(7.19455e-09 -229.603 -7770.93)
(1.19463e-08 2376.33 -5475.12)
(1.46143e-08 4957.8 -2972.49)
(1.37964e-08 7349.65 -265.272)
(1.12192e-08 9508.73 2640.7)
(7.63586e-09 11397.7 5636.27)
(4.56449e-09 12916.9 8262.01)
(2.22123e-09 14121.4 10595.4)
(4.57732e-10 15120.3 12799.5)
(-8.931e-10 15970.7 15008.6)
(-2.00282e-09 16774.2 17291.4)
(-2.97402e-09 17388.4 19835.9)
(-3.92561e-09 18290.9 22521.1)
(-5.11718e-09 18223 26124)
(-6.44613e-09 20935 29266)
(-7.67038e-09 15341.3 37081.2)
(3.69073e-09 -10217.1 -21545.2)
(4.2469e-09 -10382.1 -22999.2)
(3.72225e-09 -4982.99 -15579.3)
(3.27326e-09 -1064.17 -9448.85)
(2.53253e-09 1363.62 -5887.06)
(1.78052e-09 2964.68 -3900.49)
(1.35867e-09 4061.27 -2723.28)
(1.01583e-09 4839.5 -1939.95)
(6.95918e-10 5415.19 -1351.68)
(4.24306e-10 5846.39 -737.495)
(2.20921e-10 6192.57 -27.4388)
(9.30843e-11 6485.34 804.85)
(3.33191e-11 6750.48 1776.09)
(3.14687e-11 6995.57 2915.78)
(8.20023e-11 7262.91 4235.7)
(1.76177e-10 7493.96 5818.84)
(3.19238e-10 7912.21 7600.08)
(5.56705e-10 7968.3 9979.29)
(9.28491e-10 9380.84 12219.7)
(1.44745e-09 7111.31 16943.1)
(1.41162e-09 -3754.07 -6803.16)
(2.01038e-09 -4693.11 -11093.6)
(1.67761e-09 -2761.8 -9264.49)
(1.19678e-09 -486.322 -6036.56)
(8.61366e-10 1252.91 -3287.07)
(5.24159e-10 2461.99 -1261.87)
(3.01127e-10 3317.36 243.311)
(1.91657e-10 3974.65 1449.74)
(1.25937e-10 4452.69 2372.23)
(8.42314e-11 4814.19 3100.82)
(5.66966e-11 5094.98 3718.89)
(3.71874e-11 5325.76 4293.77)
(2.25588e-11 5524.72 4864.48)
(1.14079e-11 5698.59 5472.18)
(2.13789e-12 5872.04 6128.93)
(-7.72264e-12 5997.08 6897.98)
(-2.27209e-11 6233.89 7732.17)
(-5.36869e-11 6158.87 8893.28)
(-1.19073e-10 7046.46 9906.53)
(-2.68717e-10 5181.12 12476.3)
(2.93178e-10 -633.238 -1563.5)
(6.42703e-10 -1155.6 -3909.69)
(6.30027e-10 -705.276 -4315.22)
(4.74685e-10 147.476 -3680.04)
(3.33537e-10 941.475 -2787.65)
(2.2653e-10 1540.66 -1990.56)
(1.52934e-10 1950.35 -1365.06)
(1.0782e-10 2213.69 -895.791)
(7.78351e-11 2381.7 -493.501)
(5.58116e-11 2502.39 -114.932)
(3.79165e-11 2599.81 263.535)
(2.31423e-11 2684.04 661.274)
(1.20024e-11 2764.27 1089.04)
(4.93041e-12 2841.77 1561.73)
(1.45986e-12 2932.47 2084.35)
(5.31133e-13 3011.55 2688.29)
(1.33745e-12 3163.57 3350.58)
(4.63314e-12 3172.76 4216.6)
(1.36741e-11 3714.28 5006.86)
(4.87611e-11 2801.43 6698.16)
(-1.75409e-11 356.708 1032.87)
(8.65389e-11 134.643 -117.548)
(1.38384e-10 56.0121 -767.361)
(1.33733e-10 231.261 -908.166)
(1.07339e-10 517.76 -761.812)
(8.23638e-11 809.666 -497.523)
(6.30524e-11 1069.72 -194.125)
(4.81367e-11 1300.24 116.029)
(3.52812e-11 1501.46 424.184)
(2.35431e-11 1666.1 701.705)
(1.35558e-11 1796.38 954.819)
(6.35626e-12 1901.09 1194.94)
(2.19587e-12 1984.53 1432.1)
(3.99867e-13 2052.84 1681.87)
(-8.56221e-14 2115.45 1948.96)
(-1.03626e-13 2159.21 2259.52)
(-9.7499e-14 2239.1 2596.1)
(-3.53302e-13 2211.9 3057.87)
(-1.27326e-12 2523.41 3477.55)
(-8.51826e-12 1870.11 4481.49)
(1.68082e-12 242.273 478.162)
(-6.01074e-13 419.455 547.68)
(-1.15335e-12 443.189 409.374)
(1.41354e-12 471.354 232.098)
(3.5819e-12 523.311 104.573)
(4.67673e-12 589.689 38.9011)
(4.67515e-12 661.332 23.4172)
(3.65515e-12 732.45 42.6212)
(2.18912e-12 796.374 92.4185)
(8.64005e-13 854.851 166.054)
(5.75563e-14 907.886 261.374)
(-2.2052e-13 957.193 376.795)
(-1.94069e-13 1004.15 512.507)
(-9.00223e-14 1048.41 669.727)
(-2.00616e-14 1094.37 847.587)
(3.93225e-15 1131.73 1055.1)
(6.92373e-15 1191.05 1281.83)
(2.90911e-14 1191.4 1582.24)
(7.77195e-14 1380.09 1854.41)
(1.44799e-12 1032.9 2456.9)
(-2.85872e-13 324.636 824.761)
(6.40256e-14 506.595 809.511)
(1.8599e-13 452.481 777.761)
(-6.98273e-14 462.959 733.96)
(-3.23345e-13 474.96 691.497)
(-4.61556e-13 492.096 654.212)
(-4.67259e-13 511.579 621.149)
(-3.69387e-13 535.801 599.299)
(-2.28597e-13 561.402 588.329)
(-1.04158e-13 590.287 591.36)
(-2.55656e-14 619.304 606.688)
(7.65515e-15 649.408 635.578)
(1.27158e-14 678.178 675.983)
(7.50711e-15 705.424 730.837)
(2.31896e-15 732.982 797.337)
(-6.54631e-17 753.28 883.553)
(-4.04206e-16 787.635 980.07)
(-3.19999e-15 778.364 1123.99)
(2.0341e-15 893.226 1247.72)
(-2.40967e-13 658.613 1569.52)
(5.24726e-14 246.905 618.329)
(1.01711e-15 398.753 630.435)
(-2.71827e-14 362.602 595.759)
(8.00034e-15 359.615 564.236)
(5.57909e-14 361.105 542.151)
(8.07709e-14 365.604 528.578)
(7.62334e-14 371.577 516.041)
(5.4137e-14 379.568 507.499)
(2.95747e-14 388.26 501.551)
(1.17401e-14 398.279 500.517)
(2.36762e-15 409.159 504.625)
(-9.15663e-16 421.068 515.473)
(-1.2136e-15 434.29 533.002)
(-6.57304e-16 447.194 558.6)
(-1.87852e-16 463.043 591.631)
(2.15432e-17 474.106 635.1)
(2.7125e-17 497.268 684.409)
(5.03929e-16 489.399 762.012)
(-1.80799e-15 568.718 819.05)
(3.94858e-14 415.695 990.256)
(-1.22562e-14 208.826 546.141)
(-2.57791e-15 336.884 545.909)
(3.32089e-15 305.525 529.263)
(-3.24416e-15 307.693 512.567)
(-1.20052e-14 308.902 499.879)
(-1.54011e-14 311.941 493.153)
(-1.28393e-14 314.314 485.154)
(-7.97344e-15 318.664 481.196)
(-3.70273e-15 322.246 477.18)
(-1.18126e-15 327.409 476.933)
(-1.14608e-16 331.989 477.636)
(1.53245e-16 337.831 482.572)
(1.27503e-16 343.608 489.075)
(5.54189e-17 349.43 500.73)
(1.07383e-17 357.241 514.789)
(-7.29138e-18 361.198 535.269)
(-3.65669e-18 374.98 557.89)
(-9.12634e-17 363.896 601.038)
(4.40307e-16 422.308 626.553)
(-6.39996e-15 305.04 729.175)
(2.57083e-15 153.777 394.58)
(1.0513e-15 250.317 403.842)
(-4.68639e-17 230.79 389.556)
(9.31499e-16 229.154 376.275)
(2.18804e-15 231.332 369.672)
(2.46759e-15 233.3 366.848)
(1.84018e-15 236.381 365.762)
(1.00349e-15 239.358 365.683)
(3.94484e-16 243.037 367.494)
(9.2423e-17 246.454 370.084)
(-8.19078e-18 250.598 375.103)
(-2.16408e-17 254.538 381.233)
(-1.24378e-17 259.554 389.772)
(-3.87276e-18 263.604 399.541)
(2.43326e-19 269.977 411.898)
(1.97552e-18 272.748 426.056)
(1.18739e-18 283.569 441.937)
(1.742e-17 274.651 470.387)
(-8.70674e-17 319.91 482.454)
(1.02944e-15 229.022 549.708)
(-6.79274e-16 117.902 309.404)
(-4.01993e-16 193.178 316.044)
(-1.29117e-16 181.875 302.852)
(-2.14898e-16 179.387 291.824)
(-3.5647e-16 181.483 285.827)
(-3.54211e-16 182.855 282.51)
(-2.38524e-16 185.501 281.25)
(-1.14385e-16 187.489 280.383)
(-3.72344e-17 190.543 281.691)
(-4.99476e-18 192.763 283.076)
(2.9236e-18 195.94 287.07)
(2.57232e-18 198.432 291.439)
(1.043e-18 202.188 298.277)
(9.27161e-20 204.72 305.435)
(-3.13991e-19 209.409 315.288)
(-5.54057e-19 211.143 325.667)
(-4.23627e-19 218.836 338.469)
(-3.55478e-18 212.233 360.115)
(1.66989e-17 246.274 369.397)
(-1.64948e-16 177.123 420.583)
(1.38642e-16 79.5217 198.742)
(1.03052e-16 131.194 209.682)
(4.32578e-17 125.273 201.31)
(3.33403e-17 123.448 193.866)
(3.95717e-17 125.567 190.801)
(3.47258e-17 126.877 189.64)
(2.13148e-17 129.62 190.678)
(8.8607e-18 131.415 191.651)
(2.13532e-18 134.513 194.745)
(-1.57754e-19 136.485 197.339)
(-4.42041e-19 139.682 202.383)
(-2.24397e-19 141.827 206.97)
(-3.62341e-20 145.419 213.958)
(6.30529e-20 147.647 220.292)
(1.11631e-19 151.787 229.198)
(1.5568e-19 153.543 237.72)
(1.38591e-19 159.787 248.272)
(7.29716e-19 155.543 264.431)
(-2.96716e-18 180.985 271.162)
(2.63119e-17 130.403 309.22)
(-3.06911e-17 60.1834 154.963)
(-2.37926e-17 100.271 162.115)
(-9.8274e-18 96.4356 155.157)
(-3.92262e-18 94.8257 148.952)
(-2.59835e-18 96.1037 145.277)
(-1.83691e-18 97.0478 143.277)
(-9.34803e-19 98.6918 142.527)
(-2.47454e-19 99.974 142.187)
(4.13551e-20 101.804 142.984)
(8.14609e-20 103.195 144.077)
(4.45268e-20 105.019 146.492)
(8.00933e-21 106.527 149.388)
(-1.31748e-20 108.593 153.49)
(-2.50185e-20 110.135 158.137)
(-3.28973e-20 112.665 164.065)
(-4.15982e-20 113.875 170.664)
(-4.014e-20 117.881 178.472)
(-1.46934e-19 114.874 191.364)
(4.84054e-19 132.911 197.815)
(-4.18409e-18 96.6728 227.11)
(5.35298e-18 38.4968 97.305)
(4.25436e-18 67.6263 107.761)
(1.59661e-18 67.3047 104.664)
(2.23216e-19 66.0322 101.166)
(-1.44708e-19 67.239 99.2623)
(-1.57834e-19 68.1483 98.4585)
(-1.06443e-19 69.7186 98.827)
(-6.19567e-20 70.8455 99.2577)
(-3.12552e-20 72.5503 100.656)
(-1.22536e-20 73.7238 101.947)
(-2.30326e-21 75.3811 104.374)
(2.64401e-21 76.5883 106.768)
(5.31869e-21 78.3627 110.27)
(7.1286e-21 79.5703 113.713)
(8.58211e-21 81.5286 118.352)
(1.02482e-20 82.534 123.026)
(1.03669e-20 85.2719 128.776)
(2.90219e-20 83.3004 137.68)
(-7.31074e-20 95.5651 141.863)
(6.6334e-19 69.5354 162.47)
(-9.89107e-19 24.0965 62.6276)
(-8.06572e-19 46.5536 72.1864)
(-2.933e-19 49.6452 69.8699)
(-1.96469e-21 48.4275 67.6079)
(7.84152e-20 49.1602 65.8353)
(6.69779e-20 49.9132 64.8419)
(3.83156e-20 51.0481 64.6165)
(1.71591e-20 51.7677 64.5508)
(6.22097e-21 52.8658 65.0668)
(1.51447e-21 53.5049 65.631)
(-3.0516e-22 54.4198 66.9416)
(-1.10032e-21 54.9562 68.3628)
(-1.57039e-21 55.8635 70.5158)
(-1.91348e-21 56.3316 72.7467)
(-2.20375e-21 57.2553 75.8322)
(-2.53365e-21 57.6537 78.9405)
(-2.63333e-21 58.6718 83.1361)
(-6.04207e-21 57.372 89.2604)
(1.07044e-20 64.1863 92.6347)
(-1.05046e-19 47.0815 106.84)
(1.53667e-19 9.99743 20.5814)
(1.31936e-19 21.4271 25.4574)
(5.50812e-20 25.9353 25.059)
(6.67131e-21 26.1902 24.8415)
(-9.36316e-21 26.9236 24.3633)
(-9.32484e-21 27.7591 24.1484)
(-5.46321e-21 28.8083 24.072)
(-2.39196e-21 29.4793 24.1532)
(-8.19618e-22 30.344 24.3353)
(-1.5742e-22 30.7965 24.6067)
(1.04982e-22 31.3502 25.1167)
(2.30546e-22 31.5093 25.7228)
(3.09891e-22 31.8329 26.5952)
(3.65245e-22 31.7509 27.5409)
(4.14514e-22 31.7968 28.8743)
(4.70597e-22 31.5345 30.2292)
(4.98297e-22 31.0115 32.3316)
(1.06729e-21 29.8602 35.1101)
(-1.41439e-21 30.9524 37.1914)
(1.46012e-20 23.3612 44.474)
(1.10245e-20 -351.567 75.7763)
(-2.07061e-21 -99.3829 50.8699)
(-2.80968e-21 -140.877 63.0574)
(-3.31749e-21 -149.671 91.6773)
(-3.34061e-21 -155.903 104.11)
(-3.11297e-21 -165.129 106.759)
(-2.71177e-21 -170.423 105.743)
(-2.24687e-21 -172.108 103.965)
(-1.79028e-21 -174.023 101.77)
(-1.2531e-21 -173.958 100.477)
(-4.10109e-22 -174.339 100.569)
(1.41605e-21 -172.957 102.262)
(5.43006e-21 -172.487 105.395)
(1.28322e-20 -169.77 110.117)
(2.47694e-20 -168.45 116.565)
(3.42618e-20 -164.758 124.145)
(2.29444e-20 -160.527 135.718)
(-7.25457e-20 -151.436 153.467)
(-3.3843e-19 -158.486 167.446)
(-5.31366e-19 -111.147 212.26)
(1.31598e-20 -150.328 209.219)
(2.98328e-20 -232.575 335.501)
(3.49821e-20 -258.736 344.377)
(2.97609e-20 -250.458 347.308)
(2.1515e-20 -256.053 345.628)
(1.44836e-20 -262.905 343.987)
(9.7327e-21 -268.669 343.218)
(6.61174e-21 -272.199 342.157)
(3.51918e-21 -276.706 342.776)
(-3.9612e-21 -279.267 344.079)
(-2.25522e-20 -282.637 348.589)
(-6.64044e-20 -284.498 354.361)
(-1.48568e-19 -287.941 363.076)
(-2.67905e-19 -289.211 372.792)
(-3.852e-19 -293.25 386.066)
(-3.29953e-19 -294.151 399.67)
(1.84007e-19 -299.471 418.303)
(1.61234e-18 -291.997 447.755)
(3.50531e-18 -328.912 463.572)
(2.69035e-18 -237.028 534.533)
(-1.38322e-19 -219.447 523.408)
(-2.0843e-19 -372.94 592.124)
(-1.63954e-19 -359.276 582.525)
(-9.9254e-20 -351.048 568.247)
(-5.49664e-20 -354.708 558.21)
(-3.32351e-20 -356.245 552.607)
(-2.48701e-20 -360.133 550.426)
(-1.4098e-20 -362.961 548.263)
(2.59006e-20 -367.832 549.635)