/*--------------------------------*- C++ -*----------------------------------*\
| =========                 |                                                 |
| \\      /  F ield         | OpenFOAM: The Open Source CFD Toolbox           |
|  \\    /   O peration     | Version:  4.1                                   |
|   \\  /    A nd           | Web:      www.OpenFOAM.org                      |
|    \\/     M anipulation  |                                                 |
\*---------------------------------------------------------------------------*/
FoamFile
{
    version     2.0;
    format      ascii;
    class       volScalarField;
    location    "22";
    object      nut;
}
// * * * * * * * * * * * * * * * * * * * * * * * * * * * * * * * * * * * * * //

dimensions      [0 2 -1 0 0 0 0];

internalField   nonuniform List<scalar> 
1280
(
9.04777
15.1052
8.54733
8.57325
14.2447
8.11709
8.11727
8.14832
13.7593
7.86699
7.77038
15.6303
11.0703
7.54655
61.1236
48.4828
49.6355
179.268
122.321
228.783
108.529
127.452
157.452
172.744
170.493
157.2
130.563
55.052
37.7223
20.2451
3.79476
0.207567
7.38937e-07
7.01811e-09
4.95625e-07
1.99602e-05
0.0017882
0.0121647
0.116179
0.486026
64.0669
37.25
62.5428
81.0104
218.435
151.284
175.15
202.422
455.188
227.13
228.309
477.83
216.808
189.113
163.83
252.471
94.3111
76.7884
57.3042
67.0718
0.369253
0.0866223
0.000510366
0.00536065
3.81133e-06
2.18962e-08
4.64745e-11
2.58874e-09
0.000598621
0.457945
17.4486
37.2292
51.8465
122.772
147.805
160.118
161.706
146.325
116.891
119.074
207.049
86.7036
32.3668
13.0679
6.30779
14.1507
7.37849
7.4356
12.9327
7.78589
7.7411
13.6466
8.09421
8.05848
8.05186
14.0717
8.46802
8.43766
14.9077
8.98464
3.83584e-16
3.83681e-16
3.83708e-16
3.83913e-16
3.84089e-16
3.83996e-16
3.84191e-16
3.84318e-16
3.84278e-16
3.85062e-16
3.84508e-16
3.39553e-16
3.39219e-16
8.51971e-10
1.45945e-14
3.87798e-16
3.9269e-16
4.41024e-16
0.0111484
3.83547e-16
3.83649e-16
3.83633e-16
3.83638e-16
3.83709e-16
3.83858e-16
3.84096e-16
3.84201e-16
3.84236e-16
3.84696e-16
3.99879e-16
2.21623e-16
4.9502e-11
0.0260479
1.01658e-07
4.5846e-08
2.32221e-10
4.53019e-16
0.0125887
3.83558e-16
3.83635e-16
3.83622e-16
3.83702e-16
3.83878e-16
3.83823e-16
3.8407e-16
3.84124e-16
3.84183e-16
4.93941e-16
1.6169e-13
5.50351e-15
1.6153e-10
5.11193
2.00683
0.0562898
1.8181e-09
1.34842e-14
0.0170433
3.83662e-16
3.83749e-16
3.83616e-16
3.83802e-16
3.84018e-16
3.83871e-16
3.84082e-16
3.84171e-16
4.54595e-16
4.21884e-13
1.83208e-06
1.44878e-07
8.19372e-06
46.3791
40.9461
46.0722
0.036418
4.2557e-11
0.058397
3.8356e-16
3.83634e-16
3.83759e-16
3.8365e-16
3.83821e-16
3.84288e-16
3.84218e-16
4.02447e-16
6.02394e-13
4.73206e-06
211.017
86.4666
3.34826
91.3102
173.529
132.536
3.71587
0.00120864
0.00223171
3.83554e-16
3.83617e-16
3.83852e-16
3.83627e-16
3.83795e-16
3.84249e-16
3.85437e-16
2.85949e-13
2.4923e-07
100.809
3313.04
243.825
86.1257
261.921
329.363
221.341
20.0357
0.172511
0.510376
3.83549e-16
3.83615e-16
3.83821e-16
3.8362e-16
3.83793e-16
3.84258e-16
3.83955e-16
3.73202e-16
2.54631e-16
1.56415e-10
1.29495e-05
106.265
235.353
445.085
497.883
424.028
64.6354
22.8398
74.6289
3.83544e-16
3.83604e-16
3.83807e-16
3.8365e-16
3.83661e-16
3.8395e-16
3.81209e-16
2.28831e-16
4.41961e-11
0.00461643
0.37049
66.0496
153.225
435.335
583.316
554.6
317.529
47.2547
32.7756
3.83564e-16
3.83615e-16
3.8379e-16
3.83648e-16
3.83798e-16
3.83953e-16
3.83939e-16
3.83933e-16
3.84094e-16
1.31788e-16
7.99523e-14
2.25567e-05
2.32754
113.055
230.165
626.744
654.43
547.845
507.843
3.83669e-16
3.83676e-16
3.83749e-16
3.83634e-16
3.83738e-16
3.84183e-16
3.83812e-16
3.84026e-16
3.84864e-16
3.84181e-16
6.51998e-22
1.15209e-14
3.15973e-07
0.00833427
142.204
633.534
754.177
805.218
810.68
3.83538e-16
3.83595e-16
3.83856e-16
3.83722e-16
3.83733e-16
3.83664e-16
3.83704e-16
3.84107e-16
3.81251e-16
1.08173e-17
1.24738e-13
4.24253e-06
49.3723
11.9013
105.127
501.284
719.011
705.856
666.293
3.83662e-16
3.83586e-16
3.83607e-16
3.83814e-16
3.8385e-16
3.83702e-16
3.83917e-16
3.84459e-16
3.70107e-16
2.78365e-15
2.21154e-09
0.10231
343.701
244.535
183.173
458.224
448.851
267.233
167.314
3.83678e-16
3.8377e-16
3.83607e-16
3.83737e-16
3.84055e-16
3.83756e-16
3.83859e-16
3.71192e-16
2.69114e-09
7.25711e-15
4.3288e-05
14.5891
227.002
513.948
555.971
477.364
199.071
36.7471
33.9255
3.83694e-16
3.8368e-16
3.83726e-16
3.83687e-16
3.8384e-16
3.84153e-16
3.84934e-16
1.01085e-14
7.12682e-09
0.646929
105.423
176.617
303.962
487.937
486.653
382.019
195.235
98.6096
100.369
3.836e-16
3.83604e-16
3.83849e-16
3.83844e-16
3.83882e-16
3.84041e-16
3.83873e-16
8.91586e-17
7.65929e-13
0.000107396
23.5025
345.138
207.507
466.699
504.186
517.327
593.808
612.58
303.372
3.8371e-16
3.83805e-16
3.83632e-16
3.83707e-16
3.83772e-16
3.83881e-16
3.84428e-16
3.83976e-16
3.83981e-16
4.24568e-15
2.03259e-09
0.000617259
8.54243
301.895
555.098
633.102
644.767
163.694
48.3951
3.83578e-16
3.83662e-16
3.83628e-16
3.83823e-16
3.83992e-16
3.84173e-16
3.8401e-16
3.83996e-16
3.83877e-16
3.8133e-16
1.48675e-16
1.13666e-12
3.51436e-05
69.9445
364.566
475.207
125.492
8.5988
1.40341
3.83555e-16
3.83596e-16
3.83631e-16
3.83776e-16
3.83779e-16
3.83992e-16
3.8394e-16
3.84593e-16
3.84912e-16
3.84454e-16
3.84369e-16
9.2037e-17
2.68886e-13
3.15703e-05
65.0408
75.9619
2.62833
0.0662334
0.0140512
3.83657e-16
3.8378e-16
3.83644e-16
3.83817e-16
3.83789e-16
3.83988e-16
3.8395e-16
3.84305e-16
3.84862e-16
3.84551e-16
3.846e-16
3.83966e-16
3.07295e-16
1.06346e-14
5.27255e-06
0.264811
0.0163284
2.59373e-06
0.0083037
3.83583e-16
3.83683e-16
3.83712e-16
3.83883e-16
3.84031e-16
3.84191e-16
3.83937e-16
3.84265e-16
3.84861e-16
3.8486e-16
3.85469e-16
3.8521e-16
3.86134e-16
1.45065e-16
1.14569e-16
2.14698e-14
2.78248e-16
4.36192e-16
0.0100908
1.18056
1.82286
0.0548591
0.109744
0.991556
0.427371
1.96688
0.434817
0.109299
0.202504
0.0340801
0.00186413
6.63871e-09
2.19384e-11
4.8641e-12
7.31995e-20
7.72488e-08
0.00421462
0.398861
1.84251
2.3492
2.12703
2.32126
0.640692
0.120751
0.0379088
0.00110661
3.04728e-05
1.453e-06
9.62726e-08
6.2601e-11
1.2493e-15
4.46361e-16
4.40677e-16
1.19121e-17
4.46286e-16
9.91282e-09
0.00109394
0.157533
1.47379
2.26925
2.01482
1.90279
0.884524
0.180188
0.0194253
0.002029
0.000113613
2.11896e-06
6.09602e-10
4.59762e-15
4.42457e-16
4.5003e-16
4.43082e-16
4.28306e-16
4.43958e-16
3.13939e-09
0.000871484
0.149949
1.4001
2.34112
2.32363
3.50749
1.68114
0.349161
0.0466832
0.00435427
0.000284511
8.89298e-06
2.44619e-07
4.84502e-13
4.53922e-16
4.59104e-16
4.54956e-16
4.48787e-16
4.34869e-16
3.15727e-09
0.000927461
0.152478
1.22873
2.36389
3.0115
4.98878
2.65017
0.610786
0.0816409
0.00787961
0.000537018
1.77321e-05
4.78058e-07
3.63684e-13
4.45266e-16
4.19854e-16
4.27494e-16
4.26825e-16
4.285e-16
2.22091e-09
0.000822686
0.157115
1.13836
2.3986
3.58655
7.40906
4.2106
1.01364
0.135387
0.0132372
0.00101381
3.74175e-05
1.23188e-06
1.08794e-10
1.65992e-15
4.3075e-16
4.36781e-16
4.32605e-16
4.44094e-16
1.40356e-09
0.000785343
0.179931
0.944034
2.34924
4.31078
10.5444
6.25753
1.50896
0.17759
0.016451
0.00146192
6.41444e-05
2.35988e-06
6.63035e-08
3.7837e-13
4.81337e-16
4.76593e-16
4.76102e-16
4.75771e-16
9.73495e-11
0.000567466
0.209963
0.839213
2.30579
5.2183
14.0313
8.25227
1.95551
0.256993
0.0248193
0.00154692
0.000173164
7.8522e-06
1.45322e-07
8.66882e-12
4.69088e-16
4.2916e-16
4.22285e-16
4.24069e-16
7.35805e-15
0.000134857
0.100271
0.658175
2.18049
5.84877
15.7333
6.81914
0.698196
0.0350456
0.0011582
4.12171e-05
9.85981e-07
1.93335e-06
4.2561e-10
7.80996e-18
4.28489e-16
4.32106e-16
4.2435e-16
4.29894e-16
5.66318e-16
6.76958e-06
0.0289955
0.590765
1.94774
6.00541
8.01506
1.06124
0.0249262
0.000686592
3.20231e-05
9.84079e-07
2.64232e-08
1.8714e-09
9.5139e-15
4.31255e-16
4.37337e-16
4.66204e-16
4.56162e-16
4.67924e-16
4.50905e-16
5.62556e-07
0.00699368
0.524128
1.59174
6.51776
1.09773
0.0196793
0.00096027
0.000155968
1.96586e-05
4.69085e-07
1.71628e-08
1.4244e-14
4.58615e-16
4.25249e-16
4.26527e-16
4.35729e-16
4.40703e-16
4.51884e-16
4.44644e-16
9.21598e-07
0.00493795
0.500063
1.18058
2.12522
0.0919898
0.00710835
0.00135525
0.000277113
4.87627e-05
5.5258e-06
4.8855e-07
2.04273e-11
4.32335e-15
4.26236e-16
4.2858e-16
4.32823e-16
4.39882e-16
4.5065e-16
2.13651e-16
4.88325e-06
0.0039349
0.465437
1.02723
0.369726
0.0495026
0.0106299
0.00273128
0.000680383
0.00013908
2.25847e-05
1.88249e-06
1.78504e-07
1.12726e-11
1.48516e-15
4.32641e-16
4.32942e-16
3.61077e-16
1.23587e-16
2.77238e-14
2.1099e-05
0.00726604
0.457521
0.849491
0.188062
0.0561418
0.0155899
0.00417352
0.0011525
0.000282623
5.58126e-05
5.4067e-06
5.87376e-07
6.30022e-08
3.52816e-12
7.48269e-16
4.72039e-16
6.93869e-17
2.05458e-16
5.69968e-10
8.23616e-05
0.0154955
0.444125
0.75415
0.108423
0.048764
0.0115818
0.00214079
0.000333022
6.8766e-05
2.65017e-05
1.11137e-05
1.10763e-06
1.22998e-07
4.84072e-09
1.91385e-13
2.82923e-16
8.69466e-14
1.95778e-12
1.73543e-05
0.000325193
0.0444127
0.489046
0.594706
0.0800753
0.00724378
0.000659559
6.13737e-05
7.30383e-06
9.6222e-07
7.96497e-08
3.94595e-09
1.85841e-10
8.37388e-13
7.26217e-14
1.4092e-16
8.25911e-16
4.95046e-09
9.70919e-08
0.00026559
0.00168923
0.161148
0.602282
0.488117
0.0172275
0.00048141
3.51681e-06
2.71721e-08
8.62923e-10
2.82817e-11
1.36696e-11
1.14053e-11
9.6543e-12
8.35595e-12
6.75364e-12
3.98399e-14
7.16553e-13
3.38896e-07
0.000210187
0.00238167
0.010456
0.386503
0.769574
0.405496
2.27439e-05
5.00179e-10
3.82961e-10
3.58214e-10
3.28243e-10
3.13044e-10
2.85613e-10
2.61884e-10
2.38215e-10
2.15531e-10
1.92897e-10
1.79865e-10
3.90798e-10
2.56618e-05
0.00541715
0.0246351
0.0891265
0.609663
1.10309
0.337612
7.60764e-08
1.11803e-08
1.0519e-08
1.02569e-08
9.86292e-09
9.55434e-09
9.23085e-09
8.92403e-09
8.61004e-09
8.28813e-09
7.95296e-09
8.60882e-09
2.80501e-07
0.000510017
0.0144602
0.104323
0.406304
0.663393
0.929173
0.310213
6.45635e-07
6.4026e-07
6.39947e-07
6.39827e-07
6.39647e-07
6.39503e-07
6.39354e-07
6.39213e-07
6.39065e-07
6.38916e-07
6.38758e-07
6.3859e-07
6.38398e-07
6.3624e-07
6.34445e-07
6.3507e-07
6.59777e-07
5.55418e-06
0.356543
0.310206
6.45635e-07
6.4026e-07
6.39948e-07
6.39828e-07
6.39646e-07
6.39503e-07
6.39354e-07
6.39212e-07
6.39066e-07
6.38916e-07
6.38758e-07
6.38588e-07
6.38126e-07
6.34685e-07
6.34751e-07
6.35132e-07
6.59857e-07
5.55238e-06
0.356625
0.33782
7.63578e-08
1.11809e-08
1.05199e-08
1.02579e-08
9.86417e-09
9.55573e-09
9.23225e-09
8.92561e-09
8.61207e-09
8.29058e-09
7.96095e-09
9.18439e-09
4.49622e-07
0.000836719
0.0178369
0.124468
0.45533
0.745937
0.960807
0.393426
1.89287e-05
4.96884e-10
3.83133e-10
3.60122e-10
3.22559e-10
3.0767e-10
2.85571e-10
2.61961e-10
2.38313e-10
2.15717e-10
1.92938e-10
1.65733e-10
6.92667e-11
3.65856e-06
0.00313401
0.0218529
0.0904296
0.662363
1.14467
0.506378
0.0205681
0.000498942
4.4891e-06
3.53905e-08
2.25333e-09
2.53201e-10
2.28304e-11
1.17714e-11
9.72537e-12
7.90245e-12
6.55416e-12
6.20228e-12
6.59835e-13
1.77249e-08
0.000270845
0.00221034
0.010624
0.39889
0.803573
0.591703
0.0698871
0.00957583
0.00148039
0.000314212
8.48609e-05
2.75051e-05
7.33488e-06
1.54901e-06
2.20836e-07
1.72563e-08
9.76576e-10
4.19812e-12
4.02244e-15
5.56618e-11
2.42094e-05
0.000256671
0.00173108
0.154163
0.614816
0.736436
0.158961
0.0363354
0.0181542
0.00464707
0.0127396
0.00971438
0.0150636
0.00746615
0.00233989
0.000705529
0.000197177
2.68549e-05
4.79733e-07
8.38484e-07
2.08621e-06
2.19935e-05
0.000330211
0.0384001
0.503529
0.865314
0.124277
0.644704
0.847542
0.948658
0.826425
0.615468
0.392784
0.162919
0.0390623
0.00555193
0.00135067
0.00108961
0.145553
2.41619e-05
8.40077e-07
9.31953e-10
8.10087e-05
0.0136724
0.474683
2.70547
44.1232
60.1532
63.743
56.0302
44.9857
32.0154
16.1751
5.86575
3.95792
3.6995
0.202974
0.0207642
0.00301914
0.000100349
6.47545e-07
2.9905e-12
2.43485e-05
0.00710331
0.469675
6.20353
61.9132
89.5194
94.3847
87.4229
75.3042
60.5863
45.4312
26.8559
7.43635
0.360049
0.0274914
0.00506728
0.000831637
5.1707e-05
2.51893e-08
4.57706e-15
5.7978e-06
0.0041753
0.505279
7.42837
52.0324
77.1869
81.3688
74.1061
62.328
48.2843
30.636
10.2802
1.79362
0.133033
0.039905
0.00124228
0.000717296
1.341e-06
3.10237e-13
1.17351e-16
1.62758e-06
0.00683782
0.53627
7.62509
48.517
72.775
76.0078
68.3242
56.0517
41.1684
24.9157
7.64428
0.28891
0.00591884
1.21958e-07
1.15958e-05
4.49942e-08
3.35849e-13
2.97713e-16
4.47663e-16
1.18386e-06
0.0095699
0.587061
7.37659
39.6425
58.3038
59.3616
52.2101
41.865
29.3263
13.5951
16.0953
0.705186
0.0151262
1.29601e-08
2.81877e-10
1.93527e-13
1.05264e-16
4.55472e-16
5.19366e-16
4.0018e-06
0.0201987
0.615619
6.58168
30.2048
44.4791
44.0568
37.751
29.3466
19.1672
24.6384
43.4398
1.52204
0.000951667
2.61613e-11
1.95441e-15
3.09832e-17
2.93086e-16
4.26056e-16
9.38588e-14
0.000242293
0.146243
0.684513
5.74592
22.7765
33.9578
32.3838
26.6797
18.8819
8.79724
0.0457398
2.9285e-08
4.12628e-08
5.74301e-09
1.3521e-15
5.51723e-18
9.34099e-17
4.27413e-16
4.23784e-16
5.75961e-09
0.00107168
0.233532
0.85645
4.97944
16.5596
25.3977
23.2045
18.0976
10.7599
2.46793
0.0120496
1.95597e-10
6.15294e-14
3.18952e-14
1.59717e-17
2.50158e-16
4.32166e-16
4.63375e-16
4.66943e-16
7.65577e-09
0.0010286
0.212754
0.960366
4.30298
11.5336
17.9017
15.7124
11.4208
4.98716
0.537207
2.70548e-05
4.87536e-10
3.22732e-16
1.77339e-17
3.5854e-16
4.31246e-16
4.29823e-16
4.33189e-16
4.32459e-16
1.27735e-08
0.0015539
0.175049
1.15676
3.73536
7.52432
11.9104
10.2798
6.67403
1.98048
0.138619
3.64653e-09
2.01828e-15
1.3835e-18
2.89934e-16
4.79439e-16
4.2825e-16
4.29093e-16
4.30215e-16
4.25882e-16
9.2903e-09
0.00119541
0.164985
1.24303
3.22601
5.48847
7.70294
5.97575
3.20422
0.728879
0.0372457
4.92258e-10
2.84001e-17
1.97498e-17
4.74459e-16
4.33554e-16
4.38443e-16
4.29174e-16
4.39486e-16
4.32033e-16
6.52617e-09
0.00112111
0.160145
1.40702
2.97107
2.45737
3.46306
3.65654
1.88991
0.291494
0.00261117
1.58835e-06
4.88701e-08
2.38184e-08
1.45025e-12
5.62495e-16
4.388e-16
4.3708e-16
4.37943e-16
4.30511e-16
1.69978e-08
0.00144674
0.164978
1.47843
2.33922
1.60147
7.49121
4.0599
0.0448098
6.64095
0.520161
0.299317
0.334348
0.156703
0.00411273
5.37612e-06
2.32487e-11
4.3521e-19
8.40893e-19
2.11927e-19
1.40826e-07
0.00492607
0.412287
1.84577
)
;

boundaryField
{
    outletWall
    {
        type            calculated;
        value           nonuniform List<scalar> 
60
(
8.98464
0.0111484
4.41024e-16
3.9269e-16
3.87798e-16
1.45945e-14
8.51971e-10
3.39219e-16
3.39553e-16
3.84508e-16
3.85062e-16
3.84278e-16
3.84318e-16
3.84191e-16
3.83996e-16
3.84089e-16
3.83913e-16
3.83708e-16
3.83681e-16
3.83584e-16
3.83583e-16
3.83657e-16
3.83555e-16
3.83578e-16
3.8371e-16
3.836e-16
3.83694e-16
3.83678e-16
3.83662e-16
3.83538e-16
3.83669e-16
3.83564e-16
3.83544e-16
3.83549e-16
3.83554e-16
3.8356e-16
3.83662e-16
3.83558e-16
3.83547e-16
3.83584e-16
9.04777
0.0100908
4.36192e-16
2.78248e-16
2.14698e-14
1.14569e-16
1.45065e-16
3.86134e-16
3.8521e-16
3.85469e-16
3.8486e-16
3.84861e-16
3.84265e-16
3.83937e-16
3.84191e-16
3.84031e-16
3.83883e-16
3.83712e-16
3.83683e-16
3.83583e-16
)
;
    }
    fineWalls
    {
        type            nutkWallFunction;
        Cmu             0.09;
        kappa           0.41;
        E               9.8;
        value           nonuniform List<scalar> 
60
(
11.7768
6.50626
9.34529
2.77315
2.71231
3.37573
0.471202
0.675078
0.933525
0.484294
0.489939
0.828079
0.506352
0.504542
0.504531
0.855512
0.531081
0.529575
0.904006
0.558613
3.68534
3.17611
4.1881
5.08678
12.9306
8.58081
9.83112
11.1914
23.6983
11.7537
11.6961
22.6298
10.4859
9.14169
7.9569
11.271
4.40551
3.44974
2.11508
3.52912
0.554955
0.89289
0.523198
0.524964
0.845738
0.500728
0.501114
0.503198
0.821705
0.482583
0.485201
0.781246
0.464704
0.461357
0.850205
0.398311
0.788916
1.85259
4.69777
10.7131
)
;
    }
    fineFrontAndBack
    {
        type            calculated;
        value           nonuniform List<scalar> 
960
(
9.04777
15.1052
8.54733
8.57325
14.2447
8.11709
8.11727
8.14832
13.7593
7.86699
7.77038
15.6303
11.0703
7.54655
61.1236
48.4828
49.6355
179.268
122.321
228.783
108.529
127.452
157.452
172.744
170.493
157.2
130.563
55.052
37.7223
20.2451
3.79476
0.207567
7.38937e-07
7.01811e-09
4.95625e-07
1.99602e-05
0.0017882
0.0121647
0.116179
0.486026
64.0669
37.25
62.5428
81.0104
218.435
151.284
175.15
202.422
455.188
227.13
228.309
477.83
216.808
189.113
163.83
252.471
94.3111
76.7884
57.3042
67.0718
0.369253
0.0866223
0.000510366
0.00536065
3.81133e-06
2.18962e-08
4.64745e-11
2.58874e-09
0.000598621
0.457945
17.4486
37.2292
51.8465
122.772
147.805
160.118
161.706
146.325
116.891
119.074
207.049
86.7036
32.3668
13.0679
6.30779
14.1507
7.37849
7.4356
12.9327
7.78589
7.7411
13.6466
8.09421
8.05848
8.05186
14.0717
8.46802
8.43766
14.9077
8.98464
3.83584e-16
3.83681e-16
3.83708e-16
3.83913e-16
3.84089e-16
3.83996e-16
3.84191e-16
3.84318e-16
3.84278e-16
3.85062e-16
3.84508e-16
3.39553e-16
3.39219e-16
8.51971e-10
1.45945e-14
3.87798e-16
3.9269e-16
4.41024e-16
0.0111484
3.83547e-16
3.83649e-16
3.83633e-16
3.83638e-16
3.83709e-16
3.83858e-16
3.84096e-16
3.84201e-16
3.84236e-16
3.84696e-16
3.99879e-16
2.21623e-16
4.9502e-11
0.0260479
1.01658e-07
4.5846e-08
2.32221e-10
4.53019e-16
0.0125887
3.83558e-16
3.83635e-16
3.83622e-16
3.83702e-16
3.83878e-16
3.83823e-16
3.8407e-16
3.84124e-16
3.84183e-16
4.93941e-16
1.6169e-13
5.50351e-15
1.6153e-10
5.11193
2.00683
0.0562898
1.8181e-09
1.34842e-14
0.0170433
3.83662e-16
3.83749e-16
3.83616e-16
3.83802e-16
3.84018e-16
3.83871e-16
3.84082e-16
3.84171e-16
4.54595e-16
4.21884e-13
1.83208e-06
1.44878e-07
8.19372e-06
46.3791
40.9461
46.0722
0.036418
4.2557e-11
0.058397
3.8356e-16
3.83634e-16
3.83759e-16
3.8365e-16
3.83821e-16
3.84288e-16
3.84218e-16
4.02447e-16
6.02394e-13
4.73206e-06
211.017
86.4666
3.34826
91.3102
173.529
132.536
3.71587
0.00120864
0.00223171
3.83554e-16
3.83617e-16
3.83852e-16
3.83627e-16
3.83795e-16
3.84249e-16
3.85437e-16
2.85949e-13
2.4923e-07
100.809
3313.04
243.825
86.1257
261.921
329.363
221.341
20.0357
0.172511
0.510376
3.83549e-16
3.83615e-16
3.83821e-16
3.8362e-16
3.83793e-16
3.84258e-16
3.83955e-16
3.73202e-16
2.54631e-16
1.56415e-10
1.29495e-05
106.265
235.353
445.085
497.883
424.028
64.6354
22.8398
74.6289
3.83544e-16
3.83604e-16
3.83807e-16
3.8365e-16
3.83661e-16
3.8395e-16
3.81209e-16
2.28831e-16
4.41961e-11
0.00461643
0.37049
66.0496
153.225
435.335
583.316
554.6
317.529
47.2547
32.7756
3.83564e-16
3.83615e-16
3.8379e-16
3.83648e-16
3.83798e-16
3.83953e-16
3.83939e-16
3.83933e-16
3.84094e-16
1.31788e-16
7.99523e-14
2.25567e-05
2.32754
113.055
230.165
626.744
654.43
547.845
507.843
3.83669e-16
3.83676e-16
3.83749e-16
3.83634e-16
3.83738e-16
3.84183e-16
3.83812e-16
3.84026e-16
3.84864e-16
3.84181e-16
6.51998e-22
1.15209e-14
3.15973e-07
0.00833427
142.204
633.534
754.177
805.218
810.68
3.83538e-16
3.83595e-16
3.83856e-16
3.83722e-16
3.83733e-16
3.83664e-16
3.83704e-16
3.84107e-16
3.81251e-16
1.08173e-17
1.24738e-13
4.24253e-06
49.3723
11.9013
105.127
501.284
719.011
705.856
666.293
3.83662e-16
3.83586e-16
3.83607e-16
3.83814e-16
3.8385e-16
3.83702e-16
3.83917e-16
3.84459e-16
3.70107e-16
2.78365e-15
2.21154e-09
0.10231
343.701
244.535
183.173
458.224
448.851
267.233
167.314
3.83678e-16
3.8377e-16
3.83607e-16
3.83737e-16
3.84055e-16
3.83756e-16
3.83859e-16
3.71192e-16
2.69114e-09
7.25711e-15
4.3288e-05
14.5891
227.002
513.948
555.971
477.364
199.071
36.7471
33.9255
3.83694e-16
3.8368e-16
3.83726e-16
3.83687e-16
3.8384e-16
3.84153e-16
3.84934e-16
1.01085e-14
7.12682e-09
0.646929
105.423
176.617
303.962
487.937
486.653
382.019
195.235
98.6096
100.369
3.836e-16
3.83604e-16
3.83849e-16
3.83844e-16
3.83882e-16
3.84041e-16
3.83873e-16
8.91586e-17
7.65929e-13
0.000107396
23.5025
345.138
207.507
466.699
504.186
517.327
593.808
612.58
303.372
3.8371e-16
3.83805e-16
3.83632e-16
3.83707e-16
3.83772e-16
3.83881e-16
3.84428e-16
3.83976e-16
3.83981e-16
4.24568e-15
2.03259e-09
0.000617259
8.54243
301.895
555.098
633.102
644.767
163.694
48.3951
3.83578e-16
3.83662e-16
3.83628e-16
3.83823e-16
3.83992e-16
3.84173e-16
3.8401e-16
3.83996e-16
3.83877e-16
3.8133e-16
1.48675e-16
1.13666e-12
3.51436e-05
69.9445
364.566
475.207
125.492
8.5988
1.40341
3.83555e-16
3.83596e-16
3.83631e-16
3.83776e-16
3.83779e-16
3.83992e-16
3.8394e-16
3.84593e-16
3.84912e-16
3.84454e-16
3.84369e-16
9.2037e-17
2.68886e-13
3.15703e-05
65.0408
75.9619
2.62833
0.0662334
0.0140512
3.83657e-16
3.8378e-16
3.83644e-16
3.83817e-16
3.83789e-16
3.83988e-16
3.8395e-16
3.84305e-16
3.84862e-16
3.84551e-16
3.846e-16
3.83966e-16
3.07295e-16
1.06346e-14
5.27255e-06
0.264811
0.0163284
2.59373e-06
0.0083037
3.83583e-16
3.83683e-16
3.83712e-16
3.83883e-16
3.84031e-16
3.84191e-16
3.83937e-16
3.84265e-16
3.84861e-16
3.8486e-16
3.85469e-16
3.8521e-16
3.86134e-16
1.45065e-16
1.14569e-16
2.14698e-14
2.78248e-16
4.36192e-16
0.0100908
9.04777
15.1052
8.54733
8.57325
14.2447
8.11709
8.11727
8.14832
13.7593
7.86699
7.77038
15.6303
11.0703
7.54655
61.1236
48.4828
49.6355
179.268
122.321
228.783
108.529
127.452
157.452
172.744
170.493
157.2
130.563
55.052
37.7223
20.2451
3.79476
0.207567
7.38937e-07
7.01811e-09
4.95625e-07
1.99602e-05
0.0017882
0.0121647
0.116179
0.486026
64.0669
37.25
62.5428
81.0104
218.435
151.284
175.15
202.422
455.188
227.13
228.309
477.83
216.808
189.113
163.83
252.471
94.3111
76.7884
57.3042
67.0718
0.369253
0.0866223
0.000510366
0.00536065
3.81133e-06
2.18962e-08
4.64745e-11
2.58874e-09
0.000598621
0.457945
17.4486
37.2292
51.8465
122.772
147.805
160.118
161.706
146.325
116.891
119.074
207.049
86.7036
32.3668
13.0679
6.30779
14.1507
7.37849
7.4356
12.9327
7.78589
7.7411
13.6466
8.09421
8.05848
8.05186
14.0717
8.46802
8.43766
14.9077
8.98464
3.83584e-16
3.83681e-16
3.83708e-16
3.83913e-16
3.84089e-16
3.83996e-16
3.84191e-16
3.84318e-16
3.84278e-16
3.85062e-16
3.84508e-16
3.39553e-16
3.39219e-16
8.51971e-10
1.45945e-14
3.87798e-16
3.9269e-16
4.41024e-16
0.0111484
3.83547e-16
3.83649e-16
3.83633e-16
3.83638e-16
3.83709e-16
3.83858e-16
3.84096e-16
3.84201e-16
3.84236e-16
3.84696e-16
3.99879e-16
2.21623e-16
4.9502e-11
0.0260479
1.01658e-07
4.5846e-08
2.32221e-10
4.53019e-16
0.0125887
3.83558e-16
3.83635e-16
3.83622e-16
3.83702e-16
3.83878e-16
3.83823e-16
3.8407e-16
3.84124e-16
3.84183e-16
4.93941e-16
1.6169e-13
5.50351e-15
1.6153e-10
5.11193
2.00683
0.0562898
1.8181e-09
1.34842e-14
0.0170433
3.83662e-16
3.83749e-16
3.83616e-16
3.83802e-16
3.84018e-16
3.83871e-16
3.84082e-16
3.84171e-16
4.54595e-16
4.21884e-13
1.83208e-06
1.44878e-07
8.19372e-06
46.3791
40.9461
46.0722
0.036418
4.2557e-11
0.058397
3.8356e-16
3.83634e-16
3.83759e-16
3.8365e-16
3.83821e-16
3.84288e-16
3.84218e-16
4.02447e-16
6.02394e-13
4.73206e-06
211.017
86.4666
3.34826
91.3102
173.529
132.536
3.71587
0.00120864
0.00223171
3.83554e-16
3.83617e-16
3.83852e-16
3.83627e-16
3.83795e-16
3.84249e-16
3.85437e-16
2.85949e-13
2.4923e-07
100.809
3313.04
243.825
86.1257
261.921
329.363
221.341
20.0357
0.172511
0.510376
3.83549e-16
3.83615e-16
3.83821e-16
3.8362e-16
3.83793e-16
3.84258e-16
3.83955e-16
3.73202e-16
2.54631e-16
1.56415e-10
1.29495e-05
106.265
235.353
445.085
497.883
424.028
64.6354
22.8398
74.6289
3.83544e-16
3.83604e-16
3.83807e-16
3.8365e-16
3.83661e-16
3.8395e-16
3.81209e-16
2.28831e-16
4.41961e-11
0.00461643
0.37049
66.0496
153.225
435.335
583.316
554.6
317.529
47.2547
32.7756
3.83564e-16
3.83615e-16
3.8379e-16
3.83648e-16
3.83798e-16
3.83953e-16
3.83939e-16
3.83933e-16
3.84094e-16
1.31788e-16
7.99523e-14
2.25567e-05
2.32754
113.055
230.165
626.744
654.43
547.845
507.843
3.83669e-16
3.83676e-16
3.83749e-16
3.83634e-16
3.83738e-16
3.84183e-16
3.83812e-16
3.84026e-16
3.84864e-16
3.84181e-16
6.51998e-22
1.15209e-14
3.15973e-07
0.00833427
142.204
633.534
754.177
805.218
810.68
3.83538e-16
3.83595e-16
3.83856e-16
3.83722e-16
3.83733e-16
3.83664e-16
3.83704e-16
3.84107e-16
3.81251e-16
1.08173e-17
1.24738e-13
4.24253e-06
49.3723
11.9013
105.127
501.284
719.011
705.856
666.293
3.83662e-16
3.83586e-16
3.83607e-16
3.83814e-16
3.8385e-16
3.83702e-16
3.83917e-16
3.84459e-16
3.70107e-16
2.78365e-15
2.21154e-09
0.10231
343.701
244.535
183.173
458.224
448.851
267.233
167.314
3.83678e-16
3.8377e-16
3.83607e-16
3.83737e-16
3.84055e-16
3.83756e-16
3.83859e-16
3.71192e-16
2.69114e-09
7.25711e-15
4.3288e-05
14.5891
227.002
513.948
555.971
477.364
199.071
36.7471
33.9255
3.83694e-16
3.8368e-16
3.83726e-16
3.83687e-16
3.8384e-16
3.84153e-16
3.84934e-16
1.01085e-14
7.12682e-09
0.646929
105.423
176.617
303.962
487.937
486.653
382.019
195.235
98.6096
100.369
3.836e-16
3.83604e-16
3.83849e-16
3.83844e-16
3.83882e-16
3.84041e-16
3.83873e-16
8.91586e-17
7.65929e-13
0.000107396
23.5025
345.138
207.507
466.699
504.186
517.327
593.808
612.58
303.372
3.8371e-16
3.83805e-16
3.83632e-16
3.83707e-16
3.83772e-16
3.83881e-16
3.84428e-16
3.83976e-16
3.83981e-16
4.24568e-15
2.03259e-09
0.000617259
8.54243
301.895
555.098
633.102
644.767
163.694
48.3951
3.83578e-16
3.83662e-16
3.83628e-16
3.83823e-16
3.83992e-16
3.84173e-16
3.8401e-16
3.83996e-16
3.83877e-16
3.8133e-16
1.48675e-16
1.13666e-12
3.51436e-05
69.9445
364.566
475.207
125.492
8.5988
1.40341
3.83555e-16
3.83596e-16
3.83631e-16
3.83776e-16
3.83779e-16
3.83992e-16
3.8394e-16
3.84593e-16
3.84912e-16
3.84454e-16
3.84369e-16
9.2037e-17
2.68886e-13
3.15703e-05
65.0408
75.9619
2.62833
0.0662334
0.0140512
3.83657e-16
3.8378e-16
3.83644e-16
3.83817e-16
3.83789e-16
3.83988e-16
3.8395e-16
3.84305e-16
3.84862e-16
3.84551e-16
3.846e-16
3.83966e-16
3.07295e-16
1.06346e-14
5.27255e-06
0.264811
0.0163284
2.59373e-06
0.0083037
3.83583e-16
3.83683e-16
3.83712e-16
3.83883e-16
3.84031e-16
3.84191e-16
3.83937e-16
3.84265e-16
3.84861e-16
3.8486e-16
3.85469e-16
3.8521e-16
3.86134e-16
1.45065e-16
1.14569e-16
2.14698e-14
2.78248e-16
4.36192e-16
0.0100908
)
;
    }
    fineplugLeft
    {
        type            cyclicAMI;
        value           nonuniform List<scalar> 
20
(
1.57121
0.342325
0.00580463
0.000357703
3.99205e-06
9.9129e-08
1.42117e-09
1.53098e-07
0.0430047
0.786215
4.21103
7.63189
11.3582
16.5892
31.782
34.8918
34.6366
31.5342
26.9486
22.6503
)
;
    }
    fineplugRight
    {
        type            cyclicAMI;
        value           nonuniform List<scalar> 
20
(
1.55047
0.347154
0.00404293
0.00107224
7.62266e-07
4.37923e-09
9.29491e-12
5.36347e-10
0.000124025
0.0948792
3.61509
7.71331
10.6087
14.4211
34.8738
32.0594
35.5891
35.258
24.6593
25.6861
)
;
    }
    inletOutletLeft
    {
        type            cyclicAMI;
        value           nonuniform List<scalar> 
20
(
1.57121
0.342325
0.00580463
0.000357703
3.99205e-06
9.9129e-08
1.42117e-09
1.53098e-07
0.0430047
0.786215
4.21103
7.63189
11.3582
16.5892
31.782
34.8918
34.6366
31.5342
26.9486
22.6503
)
;
    }
    inletLeft
    {
        type            calculated;
        value           uniform 5.26945e-05;
    }
    inletWallsLeft
    {
        type            nutkWallFunction;
        Cmu             0.09;
        kappa           0.41;
        E               9.8;
        value           nonuniform List<scalar> 
40
(
0.0241714
0.0261355
0.0309549
0.0367453
0.0441171
0.0549809
0.0614009
0.0732458
0.0833556
0.11007
0.132837
0.147577
0.15547
0.158201
0.161299
0.159121
0.157691
0.153171
0.158198
0.083354
0.126137
0.102458
0.0976818
0.0865119
0.0805812
0.0677199
0.0607112
0.0484626
0.0438462
0.0392471
0.0375766
0.0351631
0.0346097
0.0336715
0.03681
0.0446374
0.0560231
0.0782585
0.0667295
0.0274858
)
;
    }
    inletFacesLeft
    {
        type            calculated;
        value           nonuniform List<scalar> 
800
(
1.18056
1.82286
0.0548591
0.109744
0.991556
0.427371
1.96688
0.434817
0.109299
0.202504
0.0340801
0.00186413
6.63871e-09
2.19384e-11
4.8641e-12
7.31995e-20
7.72488e-08
0.00421462
0.398861
1.84251
2.3492
2.12703
2.32126
0.640692
0.120751
0.0379088
0.00110661
3.04728e-05
1.453e-06
9.62726e-08
6.2601e-11
1.2493e-15
4.46361e-16
4.40677e-16
1.19121e-17
4.46286e-16
9.91282e-09
0.00109394
0.157533
1.47379
2.26925
2.01482
1.90279
0.884524
0.180188
0.0194253
0.002029
0.000113613
2.11896e-06
6.09602e-10
4.59762e-15
4.42457e-16
4.5003e-16
4.43082e-16
4.28306e-16
4.43958e-16
3.13939e-09
0.000871484
0.149949
1.4001
2.34112
2.32363
3.50749
1.68114
0.349161
0.0466832
0.00435427
0.000284511
8.89298e-06
2.44619e-07
4.84502e-13
4.53922e-16
4.59104e-16
4.54956e-16
4.48787e-16
4.34869e-16
3.15727e-09
0.000927461
0.152478
1.22873
2.36389
3.0115
4.98878
2.65017
0.610786
0.0816409
0.00787961
0.000537018
1.77321e-05
4.78058e-07
3.63684e-13
4.45266e-16
4.19854e-16
4.27494e-16
4.26825e-16
4.285e-16
2.22091e-09
0.000822686
0.157115
1.13836
2.3986
3.58655
7.40906
4.2106
1.01364
0.135387
0.0132372
0.00101381
3.74175e-05
1.23188e-06
1.08794e-10
1.65992e-15
4.3075e-16
4.36781e-16
4.32605e-16
4.44094e-16
1.40356e-09
0.000785343
0.179931
0.944034
2.34924
4.31078
10.5444
6.25753
1.50896
0.17759
0.016451
0.00146192
6.41444e-05
2.35988e-06
6.63035e-08
3.7837e-13
4.81337e-16
4.76593e-16
4.76102e-16
4.75771e-16
9.73495e-11
0.000567466
0.209963
0.839213
2.30579
5.2183
14.0313
8.25227
1.95551
0.256993
0.0248193
0.00154692
0.000173164
7.8522e-06
1.45322e-07
8.66882e-12
4.69088e-16
4.2916e-16
4.22285e-16
4.24069e-16
7.35805e-15
0.000134857
0.100271
0.658175
2.18049
5.84877
15.7333
6.81914
0.698196
0.0350456
0.0011582
4.12171e-05
9.85981e-07
1.93335e-06
4.2561e-10
7.80996e-18
4.28489e-16
4.32106e-16
4.2435e-16
4.29894e-16
5.66318e-16
6.76958e-06
0.0289955
0.590765
1.94774
6.00541
8.01506
1.06124
0.0249262
0.000686592
3.20231e-05
9.84079e-07
2.64232e-08
1.8714e-09
9.5139e-15
4.31255e-16
4.37337e-16
4.66204e-16
4.56162e-16
4.67924e-16
4.50905e-16
5.62556e-07
0.00699368
0.524128
1.59174
6.51776
1.09773
0.0196793
0.00096027
0.000155968
1.96586e-05
4.69085e-07
1.71628e-08
1.4244e-14
4.58615e-16
4.25249e-16
4.26527e-16
4.35729e-16
4.40703e-16
4.51884e-16
4.44644e-16
9.21598e-07
0.00493795
0.500063
1.18058
2.12522
0.0919898
0.00710835
0.00135525
0.000277113
4.87627e-05
5.5258e-06
4.8855e-07
2.04273e-11
4.32335e-15
4.26236e-16
4.2858e-16
4.32823e-16
4.39882e-16
4.5065e-16
2.13651e-16
4.88325e-06
0.0039349
0.465437
1.02723
0.369726
0.0495026
0.0106299
0.00273128
0.000680383
0.00013908
2.25847e-05
1.88249e-06
1.78504e-07