/*--------------------------------*- C++ -*----------------------------------*\
| =========                 |                                                 |
| \\      /  F ield         | OpenFOAM: The Open Source CFD Toolbox           |
|  \\    /   O peration     | Version:  4.1                                   |
|   \\  /    A nd           | Web:      www.OpenFOAM.org                      |
|    \\/     M anipulation  |                                                 |
\*---------------------------------------------------------------------------*/
FoamFile
{
    version     2.0;
    format      ascii;
    class       volScalarField;
    location    "22";
    object      p;
}
// * * * * * * * * * * * * * * * * * * * * * * * * * * * * * * * * * * * * * //

dimensions      [0 2 -2 0 0 0 0];

internalField   nonuniform List<scalar> 
1280
(
-29.4084
22.6605
-14.3438
-49.0524
39.5804
-29.3726
-73.2857
-56.5693
-12.224
-81.8009
-182.66
-81.5623
-232.342
-426.121
-272.096
-620.654
-976.838
-900.995
-1212.39
-2542.07
-1582.35
80.9085
1519.42
2251.02
2273.9
2927.67
-1789.7
234.357
386.448
179.219
77.4876
-33.3233
-163.949
-311.274
-460.135
-646.307
-794.844
-1023.17
-1069.96
-1489.05
-3886.07
-1857.49
-1201.99
-925.78
848.697
229.507
377.128
467.51
651.577
502.318
512.191
484.242
409.207
298.209
127.573
720.853
-873.841
-1092.77
-1928
-4835.18
-193.215
269.059
176.231
195.313
149.676
174.691
190.757
225.659
254.024
281.677
301.36
333.44
293.28
-1816.03
2045.51
1371.88
1419.3
1116.74
709.058
-481.631
-1765.43
-376.121
-202.561
-8.60178
122.926
370.553
373.869
412.079
485.498
494.371
491.155
492.645
488.969
443.197
413.733
373.002
301.194
193.446
64.0966
114.66
-72.5439
-123.033
-97.9608
-83.8016
21.8069
124
141.524
45.102
20.8779
37.4973
-106.137
-185.088
-655.285
-330.554
-53.416
109.142
142.296
102.193
104.477
-51.4325
-65.1195
-7.57675
51.6735
224.156
404.742
494.876
206.345
202.653
68.7887
-205.13
-493.346
-1038.39
-325.301
60.8643
259.097
312.135
264.254
271.834
-16.259
-42.0822
24.0787
93.0838
298.499
541.828
772.897
398.118
317.547
129.045
-241.105
-844.869
-1212
-371.709
145.041
415.011
485.529
372.18
405.73
-14.5216
-57.0875
34.8711
119.519
372.9
689.921
1142.67
658.002
483.385
183.778
-274.625
-1149.08
-1292.33
-449.721
235.625
583.395
675.251
504.09
518.992
-27.0274
-85.6695
43.1858
146.904
444.27
816.078
1459.9
883.84
631.737
279.346
-174.575
-1364.59
-1245.4
-494.032
335.134
753.164
833.719
584.876
629.2
-52.9238
-135.782
34.1936
157.485
489.89
900.595
1657.55
1089.19
722.766
151.476
87.2302
-1197.35
-1145.52
-559.66
417.35
932.271
1034.57
797.213
657.872
-84.5766
-203.806
7.31725
151.75
509.711
951.145
1719.31
1234.61
761.503
1.36585
-30.7978
-904.124
-1104.1
-610.203
474.218
1072.91
1073.64
795.534
405.641
-114.866
-278.468
-34.6701
130.739
502.198
965.14
1643.85
1265.14
814.496
187.65
-177.55
-917.838
-1057.53
-633.857
487.866
1281.42
1389.57
1168.83
1463.4
-144.036
-345.056
-89.1669
95.0636
462.403
897.791
1411.7
1115.24
718.856
178.165
-68.001
-671.434
-836.705
-483.497
408.261
1166.96
1360.01
1646.67
5289.4
-175.576
-388.506
-150.314
51.261
400.461
799.631
1197.97
915.383
615.771
145.722
-146.252
-576.556
-620.728
-265.332
396.859
1046.17
1400.12
1602.22
4114.21
-214.365
-401.675
-211.197
7.25861
326.54
680.775
960.582
640.996
436.08
96.4995
-185.239
-529.354
-482.852
-123.261
384.312
957.562
1279.68
1416.16
4223.36
-262.964
-383.038
-264.573
-29.6654
252.036
558.755
720.847
356.572
237.46
13.0182
-279.077
-516.25
-443.426
-98.1361
427.36
961.424
1065.87
1276.69
5010.31
-323.913
-336.757
-303.444
-53.7532
188.389
452.355
508.905
126.764
93.782
-19.3188
-326.734
-472.313
-331.311
-60.6102
375.018
840.837
964.036
595.403
640.262
-384.797
-261.349
-325.395
-65.601
146.639
373.708
330.34
-3.86282
19.3696
-9.17626
-354.54
-468.245
-257.562
-12.5747
295.817
629.042
646.907
14.2618
-602.988
-424.887
-154.788
-298.824
-31.3504
157.635
329.852
197.269
-6.69396
8.07751
28.9068
-324.369
-420.472
-228.467
-7.67686
221.594
490.997
547.311
158.715
-112.947
-417.112
-30.1632
-204.429
60.3808
219.642
294.439
102.274
15.024
12.1496
13.8654
-304.745
-394.504
-199.881
23.7335
161.895
343.775
335.361
97.6604
-7.74795
-373.784
41.4634
-79.3721
181.345
279.419
230.569
88.0823
9.13745
9.24347
-1.52313
-265.997
-362.124
-170.185
21.2462
108.712
215.254
205.19
104.648
24.0878
-286.664
30.8423
-8.70471
177.948
177.688
128.689
97.1519
19.8315
-6.95327
-15.2699
-173.473
-271.823
-125.597
11.2983
65.6697
133.938
140.179
74.3486
26.185
-195.242
-44.2661
7.21586
127.81
136.52
95.8203
68.9631
30.2529
-9.79412
-7.88147
-66.6283
-136.735
-75.8305
7.49217
44.5613
92.7771
101.234
64.0965
21.6679
-61.3605
-65.4914
-10.0324
41.2763
28.9072
16.0195
23.7225
5.84876
-27.525
-10.2426
-23.1236
-44.845
-34.3853
4.54619
23.858
44.1883
47.8608
32.4881
10.8128
7356.92
7582.36
7617.53
7690.83
7618.42
7540.17
7395.34
7240.26
7078.13
6936.28
6807.18
6696.16
6602.56
6526.25
6465.34
6419.32
6385.66
6359.89
6343.17
6310.73
1288.05
1685
1826.92
2050.54
2230.61
2407.08
2574.7
2728.71
2877.64
3018.65
3156.48
3294.56
3433.81
3579.12
3726.08
3883.72
4033.38
4200.58
4322.96
4494.32
-344.951
-175.8
-120.661
-67.1544
22.2938
86.603
170.083
245.394
329.159
417.136
513.022
619.338
736.445
870.969
1018.44
1197.89
1385.25
1646.8
1878.31
2227.93
-3106.72
-3383.4
-3446.53
-3650.31
-3767.04
-3938.97
-4065.14
-4183.67
-4256.48
-4294.61
-4288.57
-4239.65
-4148.68
-4018.16
-3861.71
-3680.97
-3506.82
-3294.39
-3129.36
-2759.09
1246.05
643.177
401.402
-46.2397
-400.129
-839.513
-1254.84
-1684.55
-2083.06
-2457.69
-2786.89
-3064.66
-3274.06
-3402.77
-3439.15
-3400.93
-3309.99
-3177.84
-3178.17
-3209.96
6827.46
6492.71
6358.5
6144.54
5971.6
5764.8
5569.68
5368.74
5178.31
4988.7
4804.07
4616.57
4425.84
4235.12
4067.83
3940.05
3865.21
3932.54
4019.43
3631.12
8387.67
8409.26
8388.26
8392.53
8370.32
8329.32
8257.15
8135.44
7973.98
7758.84
7502.91
7205.97
6882.53
6550.69
6251.69
6034.08
5915.75
5848.87
5881.63
5738.11
6943.53
7100.47
7183.13
7296.97
7396.62
7508.57
7633.07
7739.78
7844.52
7912.62
7945.53
7919.01
7829.63
7678.71
7507.48
7368.4
7329.79
7359.25
7415.21
7391.84
5761.04
5903.45
5967.16
6021.37
6094.04
6144.82
6230.32
6283.42
6359.02
6424.04
6496.66
6569.69
6643.79
6717.79
6789.95
6867.02
6942.56
7036.99
7098.63
7191.19
4134.79
4307.91
4387.1
4448.08
4576.49
4630.86
4758.21
4829.71
4934.18
5019.84
5111.63
5200.15
5287.4
5375.58
5460.43
5550.77
5632.43
5732.78
5796.6
5905.46
2489.85
2645.81
2759.19
2799.67
2983.32
3021.34
3188.08
3269.26
3410.2
3525.4
3659.03
3792.57
3931.28
4076.8
4222.51
4378.44
4523.77
4686.46
4795.66
4974.55
349.732
334.527
458.477
374.616
518.754
441.497
541.895
508.286
561.878
558.935
585.715
603.544
638.198
692.89
768.925
889.587
1036.07
1274.27
1463.12
1746.48
360.064
64.6243
95.2852
-159.241
-169.263
-404.127
-467.199
-672.458
-782.523
-961.58
-1090.95
-1225.33
-1320.11
-1391.69
-1441.28
-1470.01
-1481.6
-1450.36
-1427.89
-1205.66
3515.19
3148.32
3140.12
2794.91
2733.52
2412.11
2283.2
1991.72
1802.24
1532.27
1315.26
1086.58
910.607
766.588
671.562
603.749
561.769
543.06
462.254
334.018
6264.76
6151.8
6298.74
6132.56
6325.84
6192.02
6332.24
6261.66
6322.53
6282.06
6275.76
6219.61
6151.11
6043.08
5901.5
5720.94
5524.33
5387
5318.18
5063.35
4708.67
4687.68
4885.2
4750.2
5027.67
4949.45
5170.92
5208.35
5379.83
5493.07
5648.47
5788.48
5934.23
6068.73
6179.55
6234.57
6237.63
6209.22
6241.47
6314.27
4798.77
4631.03
4816.87
4429.16
4596.96
4324.06
4356.89
4222.69
4200.38
4144.16
4126.37
4113.23
4116.97
4134.72
4167.53
4234.81
4327.07
4476.15
4619.77
4820.98
4270.89
3877.25
4451.55
3901.18
4102.65
3792.08
3720.84
3501.45
3335.98
3136.4
2948.4
2755.85
2567.81
2385.37
2212.23
2074.78
1988.68
2042.88
2139.57
2363.01
3723.55
2033.22
2778.66
1810.92
1727.42
1186.74
870.849
482.174
170.852
-114.733
-340.588
-510.22
-613.063
-646.021
-601.673
-474.991
-269.346
7.43203
286.3
557.903
56812.4
50288.6
46825.3
42483.5
38863.6
35284.6
31993.7
28868.9
25935.5
23162.9
20543.1
18060.7
15701.4
13448.7
11309.5
9256.38
7231.23
5603.95
4018.19
1121.57
58278.3
51754.9
48291.8
43950.2
40330.3
36751.3
33460.4
30335.4
27401.8
24629.1
22009.1
19526.5
17166.9
14914
12774.8
10722.4
8699
7073.68
5487.69
2589.01
5200.51
3509.33
4254.69
3286.36
3202.71
2661.61
2345.5
1956.52
1644.93
1359.05
1132.89
963
859.937
826.793
871.04
997.753
1203.46
1480.88
1759.68
2028.16
5720.15
5323.45
5896.19
5343.3
5542.69
5229.37
5155.58
4933
4764.36
4561.13
4369.4
4172.8
3980.55
3793.61
3616.09
3475.43
3387.82
3441.89
3536.79
3758.4
6205.09
6034.44
6220.38
5830.07
5996.25
5720.75
5750.45
5613.97
5588.4
5530.08
5509.83
5495.82
5500.21
5522.38
5562.86
5637.5
5732.25
5881.5
6025.58
6230.61
6161.04
6144.79
6344.8
6211.09
6492.51
6413.81
6638.52
6679.3
6854.45
6974.71
7137.48
7286.92
7440.05
7573.99
7672.61
7708.25
7701.25
7689.16
7740.27
7826.08
7776.34
7691.12
7846.45
7698.53
7898.99
7777.42
7923.85
7860.58
7924.54
7885.55
7877.04
7816.78
7742.46
7629.45
7489.31
7322.68
7147.86
7021.52
6966.64
6745.28
5621.66
5287.7
5265.6
4886.63
4839.31
4498.8
4393.16
4103.97
3938.98
3682.93
3485.19
3274.06
3119.9
2997.52
2921.91
2869.51
2838.32
2814.12
2740.38
2589.57
2552.97
2166.65
2335.69
2048.23
2083.14
1924.81
1874.29
1715.19
1573.25
1373.23
1218.19
1066.27
952.542
864.379
800.633
756.067
724.875
727.777
724.914
908.37
2638.89
2718.74
2830.21
2791.27
2808.56
2769.43
2740.81
2689.6
2641.27
2592.96
2574.74
2565.79
2569.91
2594.73
2640.66
2727.72
2840.35
3033.69
3198.64
3438.98
4022.37
4238.36
4288.65
4352.82
4388.83
4430.83
4480.74
4547.06
4639.98
4761.32
4895.13
5032.46
5170.82
5312.63
5451.5
5595.07
5726.05
5864.88
5955.2
6088.33
5299.02
5495.18
5532.99
5598.69
5636
5684.08
5735.26
5799.39
5867.72
5951.29
6040.02
6122.38
6195.99
6265.67
6329.43
6395.87
6454.32
6522.8
6564.75
6630.07
6752.62
6865.5
6880.45
6927.29
6961.89
7006.3
7047.56
7094.95
7110.54
7109.52
7109.66
7099.95
7087.77
7098.41
7134.09
7184.96
7229.67
7280.17
7306.39
7352.27
7157.77
7227.17
7233.81
7275.63
7315.3
7365.37
7418.14
7446.76
7377.96
7280.46
7318.91
7406.82
7481.5
7533.02
7524.91
7453.19
7381.7
7344.04
7361.42
7358.68
8811.06
8685.3
8635.04
8606.31
8606
8610.82
8608.69
8566.39
8489.27
8366.97
8211.45
8013.98
7746.9
7433.07
7124.96
6890.32
6741.16
6681.13
6697.13
6423.22
4506.32
4005.84
3790.2
3461.3
3159.91
2803.41
2418.14
2003.34
1627.16
1328.52
1103.12
946.973
863.318
859.194
923.007
1032.75
1157.98
1265.36
1251.65
1095.69
-97.4998
-393.146
-440.74
-622.529
-770.457
-960.14
-1144.21
-1293.53
-1365.67
-1379.28
-1371.35
-1366.53
-1363.23
-1351.66
-1342.69
-1324.89
-1308.8
-1262.61
-1242.78
-910.173
1430.07
1649.08
1752.51
1848.98
1936.03
1996.84
2045.79
2078.65
2099.37
2109.17
2114.06
2123.12
2141.59
2186.41
2252.6
2384.79
2563.7
2908.57
3285.74
3774.98
5752.25
6033.03
6108.06
6265.26
6391.22
6524.61
6662.54
6804.32
6950.26
7104.12
7268.14
7446.14
7638.43
7851.36
8078.11
8329.64
8577.9
8840.28
9026.98
9243.63
6633.92
6908.26
6979
7153.85
7271.23
7400.26
7521.76
7636.79
7750.34
7860.04
7967.12
8071.35
8171.82
8271.09
8365.72
8461.32
8546.43
8633.46
8684.11
8738.76
10991.6
11054.5
10996.2
10976.6
10889.1
10811.4
10704.2
10590.3
10459.7
10339.6
10225.5
10119.4
10022.8
9934.55
9856.45
9784.61
9724.43
9657.05
9610.55
9491.28
)
;

boundaryField
{
    outletWall
    {
        type            fixedValue;
        value           uniform 0;
    }
    fineWalls
    {
        type            zeroGradient;
    }
    fineFrontAndBack
    {
        type            zeroGradient;
    }
    fineplugLeft
    {
        type            cyclicAMI;
        value           nonuniform List<scalar> 
20
(
4750.78
4860.54
4883.28
4949.56
5006.19
5080.25
5158.75
5249.26
5350.26
5461.24
5584.86
5739.79
5839.08
6350.92
6617.67
6549.52
6602.86
6397.9
6082.07
5569.07
)
;
    }
    fineplugRight
    {
        type            cyclicAMI;
        value           nonuniform List<scalar> 
20
(
7554.38
7742.25
7760.88
7818.61
7857.62
7920.1
7985.79
8063.35
8146.36
8236.77
8331.93
8434.47
8530.93
9280.56
9058.23
8985.67
9065.15
9020.34
8985.37
8696.96
)
;
    }
    inletOutletLeft
    {
        type            cyclicAMI;
        value           nonuniform List<scalar> 
20
(
4750.78
4860.54
4883.28
4949.56
5006.19
5080.25
5158.75
5249.26
5350.26
5461.24
5584.86
5739.79
5839.08
6350.92
6617.67
6549.52
6602.86
6397.9
6082.07
5569.07
)
;
    }
    inletLeft
    {
        type            zeroGradient;
    }
    inletWallsLeft
    {
        type            zeroGradient;
    }
    inletFacesLeft
    {
        type            zeroGradient;
    }
    inletOutletRight
    {
        type            cyclicAMI;
        value           nonuniform List<scalar> 
20
(
7554.38
7742.25
7760.88
7818.61
7857.62
7920.1
7985.79
8063.35
8146.36
8236.77
8331.93
8434.47
8530.93
9280.56
9058.23
8985.67
9065.15
9020.34
8985.37
8696.96
)
;
    }
    inletRight
    {
        type            zeroGradient;
    }
    inletWallsRight
    {
        type            zeroGradient;
    }
    inletFacesRight
    {
        type            zeroGradient;
    }
}


// ************************************************************************* //
