/*--------------------------------*- C++ -*----------------------------------*\
| =========                 |                                                 |
| \\      /  F ield         | OpenFOAM: The Open Source CFD Toolbox           |
|  \\    /   O peration     | Version:  4.1                                   |
|   \\  /    A nd           | Web:      www.OpenFOAM.org                      |
|    \\/     M anipulation  |                                                 |
\*---------------------------------------------------------------------------*/
FoamFile
{
    version     2.0;
    format      ascii;
    class       volVectorField;
    location    "22";
    object      U;
}
// * * * * * * * * * * * * * * * * * * * * * * * * * * * * * * * * * * * * * //

dimensions      [0 1 -1 0 0 0 0];

internalField   nonuniform List<vector> 
1280
(
(-5.8221e-18 11.0682 0.200053)
(-7.68674e-17 13.083 -1.24308)
(-4.96437e-18 12.4124 -1.11024)
(1.30916e-17 12.8301 -1.18154)
(-9.25692e-17 15.263 -3.49644)
(5.26836e-17 13.9029 -3.08252)
(9.4774e-17 15.4706 -3.41957)
(-5.6268e-17 15.042 -3.47884)
(-2.29526e-16 18.6734 -6.93336)
(-2.13427e-16 17.6051 -5.47809)
(6.9491e-17 18.9332 -5.0667)
(-1.1693e-15 22.84 -10.5988)
(-3.61381e-16 22.1343 -8.54057)
(-6.20233e-16 23.9879 -7.66098)
(-3.97268e-15 29.7581 -17.6222)
(-3.28028e-15 29.4202 -13.9843)
(-3.79992e-15 32.8615 -12.8023)
(-4.30367e-15 36.9037 -25.9356)
(-4.88441e-15 41.249 -19.4715)
(-5.89385e-15 39.7328 -29.1341)
(-1.12768e-14 41.9849 30.6907)
(-1.55678e-14 41.8769 63.2204)
(-1.58746e-14 43.1861 81.0277)
(-1.53243e-14 45.6357 89.813)
(-1.50016e-14 47.0999 94.4585)
(-1.57524e-14 50.2242 98.2592)
(-8.933e-15 45.9356 73.2445)
(-1.95286e-14 82.866 123.565)
(-2.04577e-14 82.9614 123.859)
(-2.09591e-14 83.8281 123.149)
(-2.1202e-14 84.0222 122.214)
(-2.10646e-14 84.0362 121.07)
(-2.07988e-14 83.9844 119.77)
(-2.02434e-14 83.7192 118.251)
(-1.81321e-14 83.4675 116.289)
(-1.35749e-14 82.8904 113.699)
(-7.69149e-15 82.7224 111.053)
(-5.20819e-15 81.6522 109.439)
(-4.19649e-15 82.001 111.634)
(-1.53222e-14 79.2883 113.347)
(6.56859e-15 98.0699 129.115)
(1.08247e-14 57.4572 92.7301)
(8.5635e-15 47.649 91.7018)
(3.20166e-15 36.4402 85.487)
(1.35352e-15 26.7662 76.6735)
(-3.70422e-15 16.4854 46.2706)
(-4.25777e-15 11.078 44.1744)
(-3.44216e-15 6.18378 36.2755)
(-6.93987e-15 2.6889 18.1054)
(-1.50488e-14 0.0387739 11.5036)
(-8.98912e-15 -1.76622 8.53821)
(1.06858e-14 -3.92277 5.59152)
(8.84863e-15 -5.93816 22.9661)
(9.9919e-15 -9.0076 33.1646)
(9.73022e-15 -13.7135 39.2565)
(7.06199e-15 -22.0924 67.2637)
(-2.14399e-15 -31.1766 76.7813)
(-8.89013e-15 -40.4242 83.0604)
(-1.29459e-14 -50.6178 87.3021)
(-5.13788e-15 -95.6019 132.454)
(2.58197e-14 -69.7285 128.55)
(1.2458e-14 -71.6991 133.59)
(1.25771e-14 -70.5989 129.179)
(1.04458e-14 -71.2438 125.53)
(1.20255e-14 -70.8216 123.219)
(1.43797e-14 -70.9669 122.6)
(1.69677e-14 -70.806 122.872)
(1.88378e-14 -70.8041 123.183)
(1.96554e-14 -70.6333 123.423)
(2.02399e-14 -70.4439 123.582)
(2.09303e-14 -70.1108 123.626)
(2.16822e-14 -69.5507 123.385)
(2.28628e-14 -68.8133 122.273)
(5.09217e-15 -36.366 77.0189)
(2.1356e-14 -39.1135 91.6383)
(1.99487e-14 -36.9374 86.7207)
(2.12975e-14 -36.7825 80.1639)
(2.41572e-14 -35.7105 70.3321)
(2.63055e-14 -34.5715 55.6464)
(2.13173e-14 -34.7901 32.2889)
(1.67564e-14 -28.9731 -32.3961)
(1.71096e-14 -34.0107 -26.5383)
(2.54673e-14 -22.031 -34.8324)
(2.33508e-14 -22.3683 -17.0219)
(2.58091e-14 -17.3666 -20.1004)
(3.76372e-14 -15.416 -25.9879)
(3.06343e-14 -10.739 -13.9271)
(3.10392e-14 -8.07418 -15.9856)
(4.23712e-14 -4.34991 -21.0764)
(3.64508e-14 -2.54936 -12.2751)
(3.89096e-14 -0.171172 -13.0863)
(5.45234e-14 3.43733 -17.8483)
(5.0558e-14 4.40964 -12.9422)
(5.00921e-14 6.95746 -12.6604)
(4.30395e-14 7.98816 -11.5564)
(3.79936e-14 13.0143 -16.881)
(2.08206e-14 12.6176 -12.9442)
(1.81206e-14 15.6471 -12.0471)
(2.13233e-14 16.6866 -17.2944)
(2.24804e-14 21.4815 -18.134)
(-1.92445e-15 -15.0117 29.61)
(4.34792e-15 -36.8734 26.6119)
(8.40764e-15 -41.5964 24.6013)
(1.09147e-14 -46.2597 21.0983)
(1.31862e-14 -47.2912 18.3163)
(1.51139e-14 -43.8956 15.5561)
(1.66146e-14 -33.9215 12.9132)
(1.77795e-14 11.0881 3.94421)
(1.80384e-14 33.7609 -7.70398)
(1.62669e-14 38.0031 -0.983917)
(1.0974e-14 32.1297 3.49066)
(5.46949e-15 2.00357 -5.53713)
(1.06876e-14 -30.5123 -15.3462)
(1.60352e-14 -40.7749 -21.6735)
(1.79534e-14 -39.8853 -26.2219)
(1.78192e-14 -32.2982 -26.8162)
(1.83019e-14 -20.3974 -25.6491)
(1.99329e-14 -10.5476 -23.7834)
(2.08838e-14 6.09549 -23.8609)
(-2.09527e-15 -14.7856 28.76)
(5.32978e-15 -35.7269 26.2131)
(8.66601e-15 -40.1517 24.7265)
(1.11276e-14 -44.5758 21.4005)
(1.33456e-14 -45.6025 18.9767)
(1.52313e-14 -42.0288 16.3806)
(1.67081e-14 -29.5253 13.0988)
(1.77777e-14 16.4511 0.16394)
(1.70058e-14 34.8499 -5.91764)
(1.32122e-14 34.0115 7.84218)
(5.72295e-15 32.6492 10.9376)
(3.11395e-16 9.22607 6.15776)
(8.2193e-15 -27.5033 -12.2399)
(1.50064e-14 -38.0497 -17.8101)
(1.78796e-14 -38.4337 -23.7103)
(1.79477e-14 -32.3097 -25.6449)
(1.82056e-14 -21.0776 -25.2155)
(1.96758e-14 -11.2461 -24.0613)
(1.6576e-14 3.8682 -20.086)
(-3.03253e-15 -14.0069 27.0749)
(6.98069e-15 -34.92 24.7732)
(9.05619e-15 -39.2543 25.0129)
(1.1369e-14 -43.5309 21.9271)
(1.35556e-14 -44.811 20.0854)
(1.53928e-14 -41.1499 18.0118)
(1.68405e-14 -26.1637 14.3337)
(1.73855e-14 18.0356 -0.528181)
(1.48141e-14 31.834 1.36927)
(1.03894e-14 31.0634 14.0034)
(3.69748e-15 32.4486 18.0135)
(8.32281e-17 13.4947 17.9347)
(5.05887e-15 -21.9866 -4.13934)
(1.30298e-14 -34.8101 -11.1114)
(1.72246e-14 -36.4954 -18.8115)
(1.79582e-14 -31.7528 -22.7054)
(1.81672e-14 -21.1067 -23.8856)
(2.00403e-14 -12.2308 -23.6307)
(1.07592e-14 2.89861 -19.6711)
(-3.90935e-15 -13.6641 24.4536)
(8.24542e-15 -34.8954 22.3955)
(9.82359e-15 -38.9957 25.1815)
(1.16333e-14 -42.7445 22.8468)
(1.37731e-14 -44.2187 21.7034)
(1.56025e-14 -40.2431 20.4365)
(1.69584e-14 -21.8248 16.1499)
(1.56062e-14 20.3922 2.64598)
(1.1054e-14 28.9865 10.3852)
(7.25135e-15 27.56 22.0935)
(2.4512e-15 31.5265 28.8135)
(7.99683e-16 18.3197 32.1976)
(5.66815e-15 -16.694 8.8083)
(1.08194e-14 -31.2432 -2.8639)
(1.57669e-14 -33.896 -11.0501)
(1.76099e-14 -30.3323 -17.4712)
(1.81643e-14 -20.6986 -21.3114)
(2.02401e-14 -13.6341 -22.365)
(1.36712e-14 1.42521 -21.8718)
(-4.00868e-15 -13.209 22.9428)
(8.23285e-15 -35.3327 19.9857)
(1.07622e-14 -39.4146 24.9007)
(1.20698e-14 -42.2467 24.0644)
(1.39985e-14 -43.8333 23.8238)
(1.58705e-14 -39.3681 23.4802)
(1.68397e-14 -17.6254 18.5064)
(1.16745e-14 20.0572 10.181)
(6.07046e-15 24.4299 22.499)
(4.25727e-15 22.9979 32.968)
(2.08312e-15 28.5148 40.1763)
(2.22434e-15 22.0127 48.4759)
(8.9868e-15 -9.57174 28.8139)
(1.03836e-14 -26.4121 8.98971)
(1.44536e-14 -30.6681 -0.0842859)
(1.70944e-14 -27.6547 -10.0521)
(1.81404e-14 -18.5874 -17.6467)
(2.02801e-14 -11.4637 -20.2934)
(1.50558e-14 1.93683 -28.1123)
(-2.77957e-15 -12.4145 24.0477)
(7.43489e-15 -35.748 19.0805)
(1.11449e-14 -40.5065 24.3497)
(1.27204e-14 -42.3597 25.2794)
(1.4354e-14 -43.8764 26.272)
(1.61855e-14 -38.7533 26.9749)
(1.5964e-14 -14.9103 22.2242)
(6.01384e-15 17.6578 23.1487)
(9.78405e-16 20.2145 38.2035)
(1.54631e-15 21.3589 46.2815)
(1.64947e-15 25.5089 50.5493)
(3.74572e-15 21.5226 66.849)
(1.16873e-14 -1.48347 55.2557)
(1.30826e-14 -19.1727 31.9251)
(1.47368e-14 -26.0925 16.2958)
(1.69425e-14 -23.4676 1.38981)
(1.78836e-14 -17.1454 -12.8846)
(2.0707e-14 -12.3159 -15.3042)
(1.09576e-14 4.23021 -39.5924)
(1.53222e-17 -11.2173 28.2403)
(7.23743e-15 -35.5471 21.1303)
(1.06414e-14 -41.7601 24.4365)
(1.32298e-14 -43.0995 26.4308)
(1.4909e-14 -44.4191 28.6955)
(1.65141e-14 -38.5067 30.5968)
(1.40466e-14 -14.6462 28.4672)
(5.9554e-16 12.7476 41.8902)
(-2.48097e-15 15.6716 58.1942)
(-3.35019e-16 17.7874 64.4585)
(1.47347e-15 21.5664 69.2816)
(6.07818e-15 19.5496 89.9875)
(1.36512e-14 4.79603 83.0502)
(1.70224e-14 -10.9357 63.6402)
(1.78528e-14 -18.2501 42.3358)
(1.85258e-14 -15.6951 21.3927)
(1.84275e-14 -9.23572 -1.57222)
(2.3011e-14 3.1645 -20.2332)
(-1.36826e-16 16.8064 -18.6143)
(4.15436e-15 -9.6404 35.3171)
(8.79183e-15 -34.3509 26.6585)
(1.01218e-14 -42.4682 26.368)
(1.33898e-14 -44.1535 27.9822)
(1.55526e-14 -45.4627 30.8567)
(1.65505e-14 -39.3278 34.1088)
(1.14651e-14 -18.4259 37.5564)
(-1.82249e-15 5.15437 61.403)
(-2.20249e-15 11.1135 78.5944)
(1.01399e-15 14.815 88.4454)
(3.47246e-15 16.0324 98.839)
(7.73903e-15 17.0152 107.992)
(1.48869e-14 9.05154 110.367)
(2.08657e-14 -2.87838 97.8199)
(2.30771e-14 -9.04785 80.4647)
(2.27182e-14 -6.58725 65.014)
(1.71859e-14 -3.84531 55.0806)
(4.23044e-15 -12.2181 59.9599)
(-7.26503e-15 -44.272 86.6904)
(8.91021e-15 -7.82922 44.4535)
(1.20353e-14 -32.1304 35.1895)
(1.05909e-14 -42.1034 30.9684)
(1.33805e-14 -44.9733 30.7872)
(1.62715e-14 -46.799 32.9776)
(1.78255e-14 -41.4308 37.0363)
(1.27551e-14 -24.618 43.8209)
(-5.1235e-17 -3.38279 67.4657)
(1.08786e-15 5.51199 84.256)
(4.1041e-15 10.5815 94.7079)
(5.59437e-15 13.1065 107.56)
(7.97617e-15 13.5056 121.204)
(1.23293e-14 8.4412 130.552)
(1.78446e-14 0.460401 128.745)
(2.04776e-14 -4.72037 119.781)
(2.07344e-14 -4.4168 111.089)
(1.95719e-14 -4.60145 105.656)
(1.52829e-14 -9.85452 100.995)
(9.98962e-15 -17.5784 84.862)
(1.36974e-14 -6.0092 54.6643)
(1.65648e-14 -29.1549 45.7686)
(1.25291e-14 -40.5183 38.3235)
(1.38504e-14 -45.0349 35.6771)
(1.64942e-14 -47.9376 35.8533)
(1.39011e-14 -43.9396 39.5498)
(-2.13996e-15 -30.615 47.6052)
(2.28176e-15 -11.5543 69.8287)
(1.66324e-15 -0.0995241 86.7677)
(4.67676e-15 4.97853 96.2961)
(5.97863e-15 6.67089 109.03)
(8.29462e-15 8.28149 122.227)
(5.21945e-15 6.15869 131.85)
(7.95624e-15 1.23405 133.666)
(8.60656e-15 -2.17686 127.637)
(1.12498e-14 -1.14045 117.783)
(1.33806e-14 -0.287847 105.894)
(1.51871e-14 -5.28014 87.1346)
(1.42142e-14 -11.2468 46.1544)
(1.75624e-14 -4.3639 65.1598)
(2.16084e-14 -25.7701 57.3147)
(1.59523e-14 -37.8997 47.8187)
(1.50849e-14 -44.0475 42.9738)
(1.63571e-14 -48.3361 40.3304)
(1.53219e-14 -46.2603 42.2677)
(1.1644e-14 -36.3302 49.6939)
(2.60999e-15 -19.0955 68.8462)
(1.33036e-15 -4.66559 83.0051)
(-7.85426e-16 1.45146 90.7726)
(-5.33168e-15 2.45921 102.448)
(-7.40995e-15 4.14839 113.229)
(-7.41938e-15 3.91931 120.012)
(-6.11539e-15 2.22555 121.949)
(-4.19372e-15 1.81439 116.943)
(-2.21802e-15 4.38157 109.263)
(3.33432e-16 8.39415 102.618)
(2.95811e-15 11.5828 90.6236)
(1.73887e-15 12.9314 52.6147)
(1.95021e-14 -3.05899 75.5846)
(2.52048e-14 -22.3206 68.96)
(1.96344e-14 -34.6657 58.3207)
(1.74485e-14 -42.0741 52.0599)
(1.76173e-14 -47.6598 46.6241)
(1.79197e-14 -47.7691 45.9713)
(1.44185e-14 -40.9862 51.3939)
(3.21395e-15 -25.1231 65.5456)
(1.75111e-15 -8.71128 72.6011)
(-1.63971e-15 -2.66388 75.8238)
(-6.50113e-15 -1.81762 84.7775)
(-9.6029e-15 1.2081 89.9586)
(-1.12647e-14 2.94563 90.578)
(-1.20367e-14 2.72705 87.4262)
(-1.08719e-14 2.5426 82.1283)
(-8.62374e-15 4.32454 79.7789)
(-5.90484e-15 7.8198 87.765)
(-2.8408e-15 11.27 103.825)
(-2.39859e-16 17.3839 96.8145)
(1.94201e-14 -2.01778 86.1856)
(2.62618e-14 -18.8243 81.2296)
(2.18792e-14 -31.1077 69.578)
(1.98146e-14 -39.3739 62.3574)
(1.9234e-14 -45.9244 54.8764)
(1.84467e-14 -48.2172 52.0713)
(1.29705e-14 -43.9671 54.6939)
(3.83922e-15 -27.8594 60.3058)
(2.61497e-15 -8.76965 54.5913)
(2.66741e-16 -3.55231 52.2936)
(-3.57585e-15 -3.42049 59.2754)
(-6.48267e-15 1.4285 60.257)
(-8.0969e-15 4.50964 58.5197)
(-8.95405e-15 5.40117 52.0506)
(-8.56355e-15 5.16253 43.5304)
(-6.31411e-15 2.59974 35.9459)
(-3.87312e-16 -1.57582 38.4766)
(6.90107e-15 6.88823 66.3131)
(9.34401e-15 44.1693 96.8857)
(1.73018e-14 -1.59758 96.7787)
(2.50217e-14 -15.4782 95.8004)
(2.22124e-14 -27.1357 84.1654)
(2.06979e-14 -36.1115 76.6729)
(1.92247e-14 -43.5657 68.3916)
(1.63821e-14 -47.7025 63.8161)
(9.90266e-15 -44.0757 60.4499)
(2.66504e-15 -25.3562 51.0679)
(1.11087e-15 -5.43507 30.7676)
(1.45031e-15 -4.30748 30.1078)
(-3.70374e-16 -4.94436 36.6908)
(-2.63002e-15 1.81329 35.0611)
(-4.50616e-15 6.49266 32.8983)
(-5.93075e-15 8.58307 27.1442)
(-6.41958e-15 8.85998 19.8284)
(-5.69816e-15 6.84644 11.5228)
(-4.00523e-15 -1.67233 -0.714368)
(-1.42911e-15 -10.7394 -8.45508)
(3.48267e-15 -14.2768 -14.9084)
(1.24141e-14 -2.37216 104.773)
(2.08711e-14 -13.4293 111.093)
(2.01876e-14 -23.6295 103.471)
(1.91818e-14 -33.0154 97.7879)
(1.66708e-14 -40.8712 88.6599)
(1.20492e-14 -45.0291 78.2751)
(4.7961e-15 -38.7385 61.2433)
(-2.75916e-15 -16.4822 32.6454)
(-4.71125e-15 -0.628949 5.78374)
(1.14368e-15 -5.8192 15.7093)
(8.60013e-16 -6.14823 20.9852)
(-1.01386e-15 2.22308 19.4284)
(-3.0058e-15 8.02086 14.0084)
(-5.12738e-15 10.8701 9.02387)
(-6.29785e-15 11.2596 3.8547)
(-6.10542e-15 9.99177 0.321755)
(-4.92472e-15 4.31831 -5.43761)
(-3.46002e-15 3.0388 -9.50603)
(2.5276e-15 -1.10782 -32.0933)
(4.9957e-15 -5.1281 106.418)
(1.36091e-14 -14.5193 120.246)
(1.46935e-14 -22.1112 118.788)
(1.39745e-14 -30.1316 114.531)
(1.05501e-14 -35.8596 100.191)
(4.68337e-15 -36.6618 77.6472)
(-3.24339e-15 -25.6754 45.5184)
(-1.18532e-14 -3.42965 8.65118)
(-1.55116e-14 0.623719 -3.14312)
(-1.23687e-15 -8.65314 4.55817)
(1.05186e-15 -6.57189 9.04184)
(-5.83742e-16 4.78906 6.94961)
(-4.39052e-15 10.7465 -0.588829)
(-6.89657e-15 12.3482 -2.55063)
(-7.75648e-15 12.197 -4.92709)
(-7.03911e-15 10.8494 -5.05025)
(-5.47866e-15 4.60724 -6.4816)
(-3.54227e-15 4.8527 -6.40017)
(4.63486e-16 0.581473 -24.957)
(-3.21852e-15 -8.86474 100.642)
(4.41392e-15 -17.7527 118.194)
(5.74839e-15 -21.6659 117.944)
(4.31318e-15 -25.6266 108.354)
(1.01034e-16 -26.3174 83.5628)
(-5.50031e-15 -23.0474 52.4335)
(-1.17115e-14 -11.3351 19.7204)
(-1.78744e-14 3.57674 -5.27108)
(-1.77812e-14 1.1269 -2.02653)
(-6.68839e-15 -9.94903 -3.96085)
(-1.09224e-15 -7.53417 -1.30535)
(-2.02056e-15 5.97046 -5.92854)
(-7.67778e-15 12.2606 -7.79838)
(-1.03695e-14 12.9638 -8.38452)
(-9.8534e-15 12.1587 -8.42489)
(-7.92184e-15 10.6775 -6.6727)
(-5.87905e-15 4.58219 -6.65286)
(-2.93163e-15 8.57466 -6.82754)
(-1.73212e-15 2.61567 -14.9122)
(-1.03241e-14 -13.1546 89.5487)
(-5.12683e-15 -20.8493 104.812)
(-5.1979e-15 -18.3532 97.4967)
(-8.5561e-15 -16.0505 75.5778)
(-1.25516e-14 -12.9356 44.4268)
(-1.49666e-14 -10.7216 21.6432)
(-1.7011e-14 -2.78124 4.07399)
(-1.75891e-14 3.84696 5.03986)
(-1.64962e-14 1.11259 2.8149)
(-1.20991e-14 -8.06934 -7.39968)
(-6.46475e-15 -6.59895 -8.67265)
(-7.26868e-15 5.5574 -11.6964)
(-1.11513e-14 12.1568 -10.5503)
(-1.27629e-14 12.683 -8.6202)
(-1.10981e-14 11.4333 -7.52442)
(-8.00367e-15 10.1385 -5.72912)
(-5.5917e-15 4.61351 -6.72976)
(-2.52938e-15 8.79395 -7.31289)
(-1.28347e-15 2.20852 -10.3771)
(-1.60346e-14 -15.5775 77.4909)
(-1.38787e-14 -20.4073 86.6057)
(-1.56946e-14 -10.1472 67.1199)
(-1.98998e-14 -4.36956 37.6176)
(-2.07412e-14 -5.61455 17.7829)
(-1.936e-14 -7.87263 10.2853)
(-1.85317e-14 -3.86915 5.83562)
(-1.7779e-14 3.73759 8.8888)
(-1.67257e-14 4.61639 6.15341)
(-1.51499e-14 -5.32201 -5.78936)
(-1.12812e-14 -6.07807 -10.6196)
(-1.19344e-14 5.85421 -12.7276)
(-1.32506e-14 11.3251 -10.1128)
(-1.26909e-14 11.7788 -7.60016)
(-1.042e-14 10.7408 -6.2536)
(-7.22849e-15 10.1132 -5.65937)
(-5.06876e-15 5.13229 -7.37034)
(-2.23895e-15 9.33471 -7.20207)
(-1.16689e-15 1.99428 -8.32372)
(-1.7873e-14 -17.3816 56.408)
(-2.13342e-14 -16.4365 60.9415)
(-2.19918e-14 1.33669 44.3952)
(-2.29031e-14 3.99988 31.1183)
(-2.18353e-14 -0.853594 23.244)
(-2.03249e-14 -4.84775 15.7515)
(-1.89532e-14 -2.13243 12.4147)
(-1.81032e-14 4.63365 11.3364)
(-1.68567e-14 7.71722 8.69389)
(-1.55104e-14 -0.185375 0.307011)
(-1.39936e-14 -2.7091 -7.36432)
(-1.40114e-14 6.01454 -9.43448)
(-1.36641e-14 10.3827 -8.78198)
(-1.23528e-14 11.2374 -7.85429)
(-9.94838e-15 10.5756 -7.18504)
(-6.90794e-15 10.7351 -6.84972)
(-4.82174e-15 5.56692 -7.93214)
(-1.97156e-15 9.57766 -6.63286)
(-9.28431e-16 -0.0261339 -7.69882)
(1.93129e-16 70.1883 116.746)
(-1.66373e-14 140.702 239.429)
(-1.54586e-14 164.865 268.747)
(-1.51559e-14 161.615 257.592)
(-1.59051e-14 152.119 234.759)
(-2.17114e-14 141.777 211.883)
(-2.74773e-14 131.646 191.028)
(-3.07747e-14 123.374 174.657)
(-3.28639e-14 116.007 160.089)
(-3.61005e-14 108.99 147.102)
(-4.05753e-14 102.266 135.326)
(-4.55583e-14 95.6624 124.516)
(-5.15033e-14 89.039 114.465)
(-5.87082e-14 82.3436 104.961)
(-6.57546e-14 75.4242 95.8251)
(-7.17661e-14 68.4143 87.073)
(-7.91087e-14 61.3678 79.0444)
(-8.9783e-14 54.8746 72.7629)
(-1.00944e-13 46.8881 65.2477)
(-1.37313e-13 29.6331 45.6316)
(3.96429e-17 76.8758 122.285)
(-7.39038e-15 149.679 249.063)
(-5.66515e-15 166.357 271.256)
(-5.95378e-15 157.311 254.556)
(-6.34912e-15 144.824 231.091)
(-8.86507e-15 134.14 210.382)
(-1.07143e-14 125.656 193.046)
(-1.11595e-14 118.119 177.02)
(-1.17546e-14 110.742 161.696)
(-1.48191e-14 103.375 146.811)
(-1.90185e-14 95.8948 132.444)
(-2.32701e-14 88.3311 118.657)
(-2.80413e-14 80.6163 105.529)
(-3.49468e-14 72.8331 92.9909)
(-4.18738e-14 64.6982 81.0055)
(-4.95071e-14 56.4114 69.0544)
(-5.72754e-14 46.7763 56.7814)
(-6.82279e-14 36.5878 42.3709)
(-7.89701e-14 19.195 22.0653)
(-1.44123e-13 1.66166 -11.9082)
(5.07309e-17 108.145 178.415)
(6.71914e-16 175.701 286.281)
(3.77336e-16 179.329 290.705)
(1.99592e-16 168.636 269.465)
(1.47663e-16 157.25 248.479)
(2.76742e-15 148.77 230.043)
(2.56167e-15 140.857 213.038)
(2.36408e-15 132.946 195.738)
(2.21e-15 124.411 177.997)
(1.56699e-15 115.393 159.945)
(1.01054e-15 105.938 141.895)
(1.10845e-16 96.1447 124.018)
(-9.6317e-16 85.9455 106.481)
(-2.55359e-15 75.4131 89.2683)
(-4.60671e-15 64.196 72.4528)
(-6.92624e-15 52.5437 55.5251)
(-9.72661e-15 38.8689 38.3876)
(-1.51706e-14 24.972 19.1645)
(-2.58296e-14 2.57344 -3.48434)
(-7.52e-14 -12.6175 -40.0422)
(-3.35036e-17 140.791 240.341)
(3.48521e-16 187.248 307.527)
(4.3147e-16 174.845 293.367)
(4.4768e-16 165.263 273.587)
(1.89886e-16 155.471 258.345)
(6.37734e-15 148.561 243.573)
(5.37456e-15 139.832 227.525)
(5.64171e-15 130.029 208.783)
(5.67819e-15 118.856 188.752)
(5.5694e-15 107.182 167.981)
(6.36873e-15 94.9045 146.845)
(6.31079e-15 82.0761 125.251)
(6.526e-15 68.485 103.237)
(7.13574e-15 54.1622 80.6983)
(8.33178e-15 38.7746 57.6934)
(7.83823e-15 22.7023 33.6402)
(1.24378e-14 3.60629 8.09185)
(1.0877e-14 -12.6642 -22.0426)
(-2.83088e-15 -35.8591 -43.6652)
(-4.51066e-14 -32.385 -76.9566)
(1.05284e-17 154.587 274.053)
(-1.80265e-16 171.487 293.241)
(-1.96551e-16 155.911 279.828)
(-1.85943e-16 149.276 267.189)
(-2.60873e-16 138.755 255.331)
(-7.55006e-16 129.794 241.534)
(-3.90383e-16 117.286 224.2)
(-3.03264e-16 103.633 203.471)
(-1.81623e-16 88.9666 181.939)
(-4.32681e-17 74.224 159.781)
(-1.46552e-16 58.835 136.911)
(-1.12001e-16 42.8452 112.918)
(1.19468e-15 26.1545 87.9)
(5.19536e-15 9.1828 62.2188)
(9.58292e-15 -7.25133 36.8957)
(3.86487e-15 -21.7605 13.8291)
(-2.33628e-14 -33.4179 -7.27844)
(-6.23405e-14 -41.8045 -28.7493)
(-8.14987e-14 -41.4301 -38.8045)
(-4.66505e-14 -17.2987 -19.1103)
(-3.11779e-19 138.162 247.285)
(6.52095e-17 146.866 261.792)
(7.09113e-17 137.316 253.961)
(8.2488e-17 127.769 241.496)
(6.33428e-17 115.36 227.596)
(-8.40059e-17 103.299 213.336)
(-2.13466e-16 89.1134 196.256)
(-2.78159e-16 73.9169 176.551)
(-3.71747e-16 58.096 155.827)
(-6.21241e-16 41.9805 134.188)
(-1.20481e-15 25.4399 111.849)
(-1.79495e-15 8.90482 89.1538)
(-1.00043e-15 -6.90363 67.0273)
(2.12677e-15 -20.3118 47.2296)
(4.3385e-15 -28.6108 32.7449)
(-1.38756e-15 -27.9115 28.6112)
(-1.64948e-14 -13.7905 41.704)
(-2.9533e-14 15.3627 73.2544)
(-2.54932e-14 48.7973 106.761)
(-5.85215e-15 47.8385 97.6301)
(-1.63823e-18 121.478 213.348)
(-2.21209e-17 137.796 244.231)
(-2.64896e-17 129.509 231.264)
(-2.7902e-17 117.989 214.278)
(6.88068e-18 105.146 196.02)
(9.5229e-17 93.7109 180.096)
(1.4727e-16 82.0614 164.521)
(1.99602e-16 70.0704 146.786)
(2.69743e-16 57.4108 127.661)
(2.96088e-16 44.7988 107.125)
(1.79203e-16 32.5265 86.3486)
(-2.279e-17 22.0296 67.2879)
(6.69262e-17 15.3983 53.8512)
(7.86411e-16 15.9213 51.615)
(1.78219e-15 26.3975 65.2129)
(2.38125e-15 46.2355 93.4412)
(2.90902e-15 70.1311 127.636)
(4.3614e-15 88.7293 155.348)
(5.89603e-15 95.4725 160.183)
(3.75931e-15 68.143 123.728)
(9.19861e-19 118.538 204.944)
(6.77631e-18 143.135 247.261)
(8.09562e-18 135.877 232.618)
(8.17317e-18 125.074 212.103)
(-1.62288e-18 113.388 192.507)
(-3.04937e-17 105.046 175.869)
(-4.48185e-17 97.4027 163.1)
(-5.32945e-17 91.2689 150.143)
(-6.3115e-17 84.9616 137.861)
(-6.78053e-17 79.694 125.424)
(-5.72973e-17 74.8603 113.15)
(-3.69975e-17 70.7915 100.874)
(-3.69914e-17 67.6555 89.4231)
(-8.59302e-17 66.1896 81.1188)
(-1.93309e-16 67.5609 79.0221)
(-3.73612e-16 71.4023 85.1647)
(-6.21475e-16 76.6701 97.4138)
(-8.81412e-16 78.837 109.978)
(-1.12146e-15 73.8306 111.047)
(-1.03914e-15 51.3883 85.4075)
(-3.96792e-19 120.953 209.391)
(-1.9339e-18 153.529 261.556)
(-2.24477e-18 144.168 245.096)
(-2.20871e-18 132.575 220.703)
(3.36394e-20 121.095 202.164)
(7.82732e-18 114.61 186.642)
(1.23867e-17 107.67 174.321)
(1.37929e-17 102.169 161.756)
(1.40698e-17 96.3185 150.133)
(1.30302e-17 91.128 138.913)
(1.0459e-17 86.1414 128.267)
(8.57302e-18 81.4114 117.895)
(1.09239e-17 76.7616 107.54)
(1.88044e-17 72.1102 97.151)
(3.12135e-17 67.4546 87.3458)
(5.08665e-17 63.2291 79.453)
(8.62409e-17 59.1011 74.7105)
(1.40853e-16 54.9055 71.5508)
(1.96335e-16 45.603 65.162)
(2.31181e-16 24.811 33.7906)
(1.29512e-19 125.001 216.873)
(4.85356e-19 162.594 273.836)
(5.46835e-19 147.392 252.361)
(5.45767e-19 135.231 223.994)
(6.8133e-20 123.485 207.923)
(-1.81762e-18 118.276 193.019)
(-3.02741e-18 110.592 180.862)
(-3.24383e-18 104.711 167.548)
(-3.00778e-18 97.986 155.219)
(-2.49939e-18 91.881 142.974)
(-1.83341e-18 85.7452 131.335)
(-1.51971e-18 79.8413 120.161)
(-2.05548e-18 73.9763 109.482)
(-3.23832e-18 68.1699 99.0312)
(-4.39719e-18 61.9668 88.5728)
(-5.5374e-18 55.5106 77.5474)
(-7.80006e-18 47.5584 66.035)
(-1.24904e-17 39.0746 52.6021)
(-2.01017e-17 24.0963 34.8342)
(-1.87978e-17 4.43984 -2.86948)
(-3.37988e-20 133.71 233.584)
(-1.06971e-19 170.871 283.169)
(-1.1883e-19 148.155 256.486)
(-1.19638e-19 139.871 229.021)
(-2.53929e-20 127.971 216.113)
(3.80789e-19 124.143 200.635)
(6.52514e-19 115.803 188.556)
(6.71304e-19 110.5 174.839)
(5.65381e-19 103.854 162.467)
(4.23722e-19 98.0331 149.654)
(2.99009e-19 91.767 137.002)
(2.58733e-19 85.31 124.041)
(3.04255e-19 78.2598 110.87)
(2.9429e-19 70.6768 97.369)
(5.42643e-20 62.1624 83.6272)
(-4.08269e-19 53.0537 69.1286)
(-8.85586e-19 41.9405 53.6847)
(-1.47568e-18 30.1791 35.3057)
(-3.15214e-18 9.68869 10.387)
(-1.37734e-17 -5.93322 -26.1756)
(6.86594e-21 145.563 258.751)
(2.12686e-20 175.789 287.183)
(2.28845e-20 147.64 260.791)
(2.25872e-20 145.913 237.675)
(5.31661e-21 132.577 227.038)
(-7.18031e-20 130.63 211.218)
(-1.23061e-19 121.689 200.199)
(-1.19992e-19 117.984 186.949)
(-8.90612e-20 111.816 175.577)
(-5.68322e-20 107.024 162.78)
(-3.98506e-20 100.713 149.234)
(-4.15196e-20 93.4837 133.796)
(-3.56877e-20 84.5789 116.918)
(3.04038e-20 74.417 98.7408)
(1.9282e-19 62.7029 79.7776)
(4.21846e-19 50.006 59.6599)
(6.58097e-19 34.52 38.6502)
(7.54654e-19 19.2371 15.6542)
(1.57478e-18 -5.62317 -11.3519)
(-8.0674e-18 -18.0035 -48.3164)
(-1.22271e-21 154.961 282.428)
(-3.85315e-21 171.238 279.313)
(-3.90908e-21 143.969 262.87)
(-3.75482e-21 146.639 243.459)
(-5.06565e-22 130.883 234.908)
(1.40419e-20 130.396 219.644)
(2.27893e-20 120.013 211.103)
(2.06249e-20 117.814 199.556)
(1.29648e-20 110.907 190.575)
(4.82945e-21 106.097 178.067)
(-2.51153e-21 97.1324 162.782)
(-1.25464e-20 86.2258 142.643)
(-3.39895e-20 72.1774 119.633)
(-7.77891e-20 56.7169 94.6482)
(-1.43703e-19 39.6649 68.7529)
(-1.94252e-19 21.1634 40.7681)
(-1.43731e-19 -1.49377 8.48418)
(4.11945e-19 -15.118 -20.5101)
(3.29884e-19 -36.2504 -43.0848)
(-6.74879e-18 -32.1506 -69.3587)
(2.01129e-22 152.901 283.977)
(6.0558e-22 159.519 262.724)
(5.34691e-22 136.443 255.275)
(4.47067e-22 138.113 236.546)
(-2.64218e-22 121.354 228.39)
(-2.38534e-21 119.431 213.904)
(-2.65511e-21 108.013 206.27)
(-1.03682e-21 104.381 195.955)
(1.16736e-22 95.629 187.671)
(-3.26821e-21 87.9821 174.301)
(-1.66272e-20 74.7313 155.84)
(-4.13999e-20 59.2185 130.902)
(-6.9621e-20 41.0416 103.147)
(-7.88846e-20 22.8997 74.5903)
(-1.31427e-20 5.18969 47.3228)
(2.09666e-19 -11.1898 21.7583)
(5.65367e-19 -25.8912 -2.85103)
(6.38694e-19 -34.8804 -22.7418)
(-2.3474e-19 -29.4366 -23.2139)
(-1.66337e-18 -7.34373 -0.631046)
(-2.53984e-23 143.846 270.087)
(-7.07513e-23 153.734 250.428)
(-5.78672e-23 127.941 242.463)
(-4.25665e-23 130.932 221.353)
(1.44479e-22 111.833 213.357)
(6.08003e-22 109.944 196.962)
(8.36734e-22 96.7007 188.223)
(8.71081e-22 91.4865 176.286)
(5.72039e-22 81.1974 166.803)
(-2.1802e-21 72.1054 153.422)
(-1.27041e-20 59.15 136.401)
(-3.74111e-20 45.2493 114.773)
(-7.45904e-20 30.3876 90.7844)
(-7.73508e-20 16.2777 65.7512)
(8.68474e-20 4.36356 42.9017)
(4.93262e-19 -1.45259 28.8422)
(8.76348e-19 4.2593 33.2573)
(8.21976e-19 23.9021 58.4207)
(3.62761e-19 47.836 87.2844)
(-2.82907e-20 42.8697 84.9284)
(1.47435e-24 140.233 268.116)
(1.9639e-24 156.869 245.899)
(-7.19624e-24 126.101 239.521)
(-1.3098e-23 135.133 214.848)
(-8.93697e-24 113.017 207.777)
(3.53444e-23 114.694 188.324)
(2.17507e-22 100.315 178.222)
(4.87289e-22 96.4499 163.036)
(7.38325e-22 86.5865 151.66)
(9.34051e-22 80.2719 138.877)
(7.83931e-22 72.3551 127.03)
(-3.00373e-22 65.8038 114.507)
(-9.01335e-22 59.6277 102.195)
(2.21816e-21 54.7239 90.0081)
(4.94149e-21 50.7719 78.4378)
(1.34926e-22 48.1382 68.6617)
(-1.34371e-20 47.6057 62.3451)
(-5.48908e-20 46.8144 60.6722)
(-1.46308e-19 43.5555 58.2947)
(-2.53166e-19 30.6981 46.2267)
(5.55284e-25 139.225 272.45)
(9.01214e-25 160.215 247.591)
(-1.76216e-24 126.743 243.329)
(-4.11775e-24 137.612 219.059)
(9.90346e-24 116.783 211.991)
(5.99584e-23 118.083 194.215)
(1.48318e-22 106.551 183.809)
(2.7755e-22 102.889 169.963)
(4.43298e-22 95.6862 158.481)
(6.91714e-22 90.7827 146.519)
(1.29641e-21 85.4967 135.597)
(2.75188e-21 81.0272 125.007)
(5.06888e-21 76.6537 114.673)
(6.99797e-21 72.3632 103.965)
(6.56527e-21 67.3468 92.3011)
(2.2763e-21 60.9993 78.2617)
(-6.30793e-21 51.0947 61.1581)
(-1.91288e-20 38.131 39.9501)
(-2.48098e-20 19.0759 17.9467)
(-7.42811e-20 3.48133 -7.94185)
(-7.19279e-26 132.798 272.45)
(-1.11489e-24 158.364 245.33)
(-4.48711e-24 121.515 243.703)
(-5.49661e-24 130.52 222.38)
(1.2457e-23 111.873 214.939)
(6.73573e-23 110.231 200.223)
(1.59761e-22 100.486 190.2)
(2.69307e-22 95.8216 178.416)
(3.79309e-22 89.4443 168.048)
(5.06374e-22 84.5918 157.382)
(6.64831e-22 79.5499 147.101)
(7.93087e-22 75.0195 136.749)
(7.03499e-22 70.4923 126.389)
(8.13532e-23 65.8336 115.231)
(-1.45335e-21 59.6331 101.579)
(-4.4231e-21 50.2567 81.6351)
(-8.66234e-21 33.7411 52.3456)
(-1.20917e-20 12.563 11.5607)
(-8.9966e-21 -15.2551 -25.2398)
(-5.70557e-20 -21.7575 -54.7573)
(1.66814e-25 109.467 256.197)
(1.31246e-25 149.205 227.089)
(-1.72998e-24 108.698 230.025)
(-4.13625e-24 114.751 214.915)
(1.22832e-24 98.7823 209.259)
(2.62226e-23 94.0717 199.729)
(7.56664e-23 85.2654 192.296)
(1.42449e-22 79.1321 184.221)
(2.18457e-22 72.6464 176.581)
(3.17522e-22 67.0314 168.828)
(4.75677e-22 61.7216 161.138)
(6.91764e-22 56.9344 153.428)
(7.75369e-22 52.5094 145.627)
(1.35076e-22 48.0801 137.016)
(-2.19224e-21 42.4415 125.337)
(-6.78239e-21 33.2543 106.114)
(-1.2898e-20 18.1937 74.3185)
(-1.93846e-20 -1.8613 30.0775)
(-2.58374e-20 -20.3828 -14.5496)
(-2.65784e-20 -20.5983 -35.224)
(2.0025e-26 36.1091 158.419)
(1.02185e-25 78.4657 131.145)
(-2.38798e-25 52.7514 139.305)
(-1.86197e-24 52.52 135.318)
(-4.46257e-24 43.9854 135.391)
(-5.3138e-24 39.527 133.849)
(-1.11139e-24 34.434 132.684)
(5.93993e-24 30.416 131.155)
(4.11256e-24 26.7943 129.503)
(-1.87741e-23 23.8121 127.639)
(-5.05054e-23 21.3908 125.612)
(-3.03591e-23 19.5949 123.447)
(1.48658e-22 18.4539 121.24)
(5.92087e-22 18.0651 119.165)
(1.29298e-21 18.7102 117.347)
(1.98924e-21 20.427 115.73)
(2.20981e-21 22.8535 113.524)
(1.73416e-21 28.1587 106.839)
(9.59697e-22 32.0233 92.0983)
(3.36732e-22 7.76525 66.5838)
(-6.98453e-26 -36.1039 158.404)
(-3.6923e-27 -78.4605 131.136)
(1.91194e-25 -52.7485 139.297)
(7.44893e-25 -52.5172 135.312)
(1.55499e-24 -43.9819 135.386)
(1.73794e-24 -39.5222 133.845)
(1.58164e-25 -34.4272 132.679)
(-3.41731e-24 -30.4073 131.152)
(-8.15115e-24 -26.784 129.501)
(-1.30818e-23 -23.8007 127.64)
(-1.56981e-23 -21.3779 125.616)
(-5.46097e-24 -19.5793 123.455)
(4.13944e-23 -18.4356 121.255)
(1.51314e-22 -18.0483 119.198)
(3.27331e-22 -18.7041 117.412)
(5.34203e-22 -20.4399 115.819)
(6.93495e-22 -22.8864 113.599)
(6.6437e-22 -28.204 106.869)
(3.64112e-22 -32.0723 92.1225)
(3.71133e-23 -7.78479 66.6389)
(2.02524e-25 -109.481 256.207)
(1.06853e-25 -149.196 227.119)
(2.56029e-25 -108.698 230.054)
(3.48469e-25 -114.736 214.955)
(-2.76433e-24 -98.7646 209.304)
(-1.42131e-23 -94.0436 199.781)
(-3.80034e-23 -85.2288 192.354)
(-7.48239e-23 -79.0833 184.283)
(-1.21695e-22 -72.5844 176.646)
(-1.69359e-22 -66.9554 168.896)
(-1.90269e-22 -61.6353 161.217)
(-1.37395e-22 -56.8441 153.529)
(-2.61374e-24 -52.4164 145.755)
(6.77553e-23 -47.9588 137.131)
(-3.1454e-22 -42.2225 125.315)
(-1.79642e-21 -32.8644 105.805)
(-4.88443e-21 -17.6901 73.775)
(-8.26152e-21 2.20453 29.7121)
(-8.22038e-21 20.3547 -14.4184)
(-4.12919e-21 20.4897 -34.9047)
(-7.24719e-25 -132.857 272.564)
(-4.49293e-26 -158.405 245.437)
(2.33048e-24 -121.565 243.815)
(4.84077e-24 -130.555 222.505)
(1.33935e-24 -111.91 215.071)
(-1.64074e-23 -110.264 200.37)
(-5.2518e-23 -100.514 190.362)
(-1.05017e-22 -95.8459 178.589)
(-1.6638e-22 -89.4566 168.236)
(-2.27823e-22 -84.5957 157.577)
(-2.97553e-22 -79.5406 147.303)
(-4.14949e-22 -75.0104 136.961)
(-5.11698e-22 -70.4966 126.627)
(-2.1599e-22 -65.8495 115.482)
(8.02785e-22 -59.5908 101.729)
(1.73616e-21 -50.0302 81.4627)
(9.05231e-22 -33.206 51.7126)
(-1.37602e-21 -11.7445 10.3599)
(-1.69212e-20 16.2428 -26.61)
(-8.08853e-21 22.1626 -55.3649)
(2.12494e-24 -139.318 272.548)
(7.61021e-25 -160.298 247.761)
(-2.00473e-24 -126.869 243.457)
(-6.11091e-24 -137.691 219.244)
(-1.75463e-23 -116.966 212.147)
(-4.55977e-23 -118.214 194.444)
(-9.48248e-23 -106.797 184.031)
(-1.66376e-22 -103.125 170.254)