/*--------------------------------*- C++ -*----------------------------------*\
| =========                 |                                                 |
| \\      /  F ield         | OpenFOAM: The Open Source CFD Toolbox           |
|  \\    /   O peration     | Version:  4.1                                   |
|   \\  /    A nd           | Web:      www.OpenFOAM.org                      |
|    \\/     M anipulation  |                                                 |
\*---------------------------------------------------------------------------*/
FoamFile
{
    version     2.0;
    format      ascii;
    class       surfaceScalarField;
    location    "16";
    object      phi;
}
// * * * * * * * * * * * * * * * * * * * * * * * * * * * * * * * * * * * * * //

dimensions      [0 3 -1 0 0 0 0];

internalField   nonuniform List<scalar> 
2360
(
50621.6
55680.1
-5058.52
55680.1
55680.1
62448.2
-6768.06
62448.2
62448.2
62448.2
71892.3
-9444.12
71892.3
71892.3
84882.3
-12990
84882.3
84882.3
104892
-20009.5
104892
104892
134554
-29661.9
134554
134554
143211
156515
170625
184245
196915
208574
160915
58588.5
171070
180533
189366
197596
205217
212204
218570
224439
230184
236380
243515
251314
257966
139171
118795
139171
139171
139171
51075
88096
51075
51075
51075
270.835
50804.2
270.829
270.823
-37342.2
37613.1
-37342.3
-37342.3
-37342.3
-130701
93359
-130701
-130701
-130701
-237289
106588
-228516
-217702
-206697
-196719
-188060
-180640
-173986
-167582
-160987
-153930
-146266
-137935
-128934
-181449
61984.2
-171463
-160978
-149891
-138428
-127026
-117273
-117273
-117273
-72180.3
-45092.7
-72180.3
-72180.3
-40155.1
-32025.2
-40155.1
-40155.1
-14185.4
-25969.7
-14185.4
-14185.4
7692.16
-21877.5
7692.15
7692.16
7692.15
25944
-18251.8
25944
25944
44245.8
-18301.8
-36194.1
82243.2
-34112.7
119711
-32116.9
126249
-29488.2
132373
-27094.9
125301
-22483.5
100753
-5490.24
16415.7
7141.22
-87456.5
3601.17
-105486
-1801.16
-92944.5
5177.07
-47574.7
15168.3
55955.4
21877.9
101280
26203
104791
28185.5
90206.8
27987
61168.1
25966.7
33236.8
23140.4
16985.8
-13022.8
-36217.3
81168.4
-34356.4
117850
-32600.3
124493
-30354.8
130127
-28247.1
123194
-21336.2
93842.2
1550.59
-6471.12
5780.94
-91686.8
-6912.46
-92793
-13057.9
-86799.1
-2284.3
-58348.3
10603.7
43067.4
17982.3
93901.3
23574.7
99198.8
27412.7
86368.8
29166.4
59414.5
27700.7
34702.4
23155.9
21530.7
-8118.75
-36176.9
80263.7
-34628.4
116302
-33201.1
123066
-31571.1
128497
-29581.8
121204
-18844.8
83105.2
1949.57
-27265.5
-4512.4
-85224.9
-18995.5
-78309.9
-23438.9
-82355.6
-14165.6
-67621.6
2280.38
26621.4
11275.5
84906.2
18066.4
92407.9
24685.1
79750
29615.2
54484.3
29711.1
34606.6
25157
26084.8
-4839.29
-35842.4
79876.2
-34925.6
115385
-33974.3
122115
-33160.4
127683
-31251.9
119296
-17374.8
69228.1
-6482.85
-38157.4
-20115.1
-71592.6
-33073
-65352.1
-37641.1
-77787.5
-31215.5
-74047.2
-10100
5505.97
1692.15
73114
9160.56
84939.5
19289.9
69620.7
28347.7
45426.4
30653.3
32301
27481.5
29256.7
-3327.56
-35030.2
80415
-35256.6
115611
-34981.7
121840
-35099.8
127801
-33454.9
117651
-21950.1
57723.2
-23155.3
-36952.2
-40073.8
-54674.1
-49551.7
-55874.1
-53295.3
-74044
-50657.3
-76685.2
-29027.6
-16123.6
-12361.9
56448.2
-2668.31
75245.9
10641
56311.5
25543.6
30523.8
31045.5
26799.1
30315.6
29986.6
-5037.18
-33732.2
82094.6
-35538.7
117418
-36212.6
122514
-37271.5
128860
-36538.1
116918
-33331.3
54516.4
-46499.7
-23783.9
-63593.2
-37580.6
-69187.1
-50280.2
-69602.2
-73628.9
-68877.2
-77410.2
-53099.6
-31901.3
-33695.8
37044.4
-20376.2
61926.4
-5385.07
41320.3
16791.4
8347.33
28903.6
14686.9
36616.1
22274.1
-13513.8
-32218.7
84728.7
-35666.9
120866
-37530.4
124377
-39496.9
130827
-41014.6
118435
-49513.8
63015.5
-73584.5
286.874
-91008.3
-20156.8
-95163.5
-46124.9
-92854
-75938.4
-89944.8
-80319.4
-77422.6
-44423.5
-59266
18887.8
-46205.2
48865.6
-37838.9
32954
-28379.7
-1111.93
-4860.13
-8832.6
3581.55
13832.4
52052
-31122.2
87685.9
-35647.8
125392
-38690.2
127419
-41614
133751
-46469.9
123291
-64788.2
81333.8
-95651.1
31149.8
-112307
-3500.59
-115092
-43339.9
-114413
-76617.5
-110557
-84175.4
-99403.4
-55577.5
-85903.8
5388.27
-80558.2
43520.1
-91163.2
43559
-107704
15428.5
-106318
-10218.2
-96299.9
3814.25
62339.9
-31341.4
90016.9
-35744.2
129794
-39536.3
131212
-43253.5
137468
-49857.5
129895
-69069.2
100546
-96479.8
58560.5
-107020
7039.3
-105447
-44912.8
-108234
-73830.1
-115830
-76579.9
-117968
-53438.9
-112661
80.5457
-112225
43084.4
-123596
54930.6
-138263
30094.7
-141442
-7038.41
-127277
-10350.8
28421.6
-33664.5
90751.2
-36501.4
132631
-40243.8
134954
-44337.3
141561
-51248.2
136806
-67895.6
117193
-88463.2
79128.1
-88538.6
7114.67
-80755.4
-52696.1
-89367.4
-65218
-109593
-56353.9
-124858
-38174
-128052
3273.83
-126997
42029.6
-128728
56662.1
-130679
32045
-123795
-13921.7
-96520.7
-37625.4
-30486.1
-38423.7
89269.6
-38593.3
132801
-41292.5
137653
-45008.2
145277
-51286.6
143084
-64007.9
129914
-75433
90553.2
-63857.1
-4461.16
-52479.1
-64074.1
-68696.3
-49000.8
-97059.2
-27991
-117974
-17258.9
-126394
11693.1
-127273
42908.8
-127427
56816.2
-128636
33253.9
-123489
-19069
-101150
-59963.8
-80832.1
-45498.7
85460.7
-42578.2
129880
-43369.2
138444
-45775.3
147683
-50865.5
148175
-59752.1
138801
-62761.6
93562.7
-45285.8
-21937
-36071.5
-73288.4
-57439.1
-27633.2
-86010.8
580.634
-106070
2800.36
-117357
22979.6
-121686
47238.3
-120223
55353.6
-113772
26802
-105647
-27194
-104624
-60985.9
-97360.5
-54708.7
79414
-48615.3
123787
-46984.8
136814
-47296.7
147995
-50711.9
151590
-56141
144230
-52027.8
89449.5
-32894.1
-41070.7
-28771.6
-77410.9
-48823.6
-7581.18
-69650.1
21407.2
-86289.7
19439.9
-97250.5
33940.4
-99665.8
49653.6
-87506.1
43193.8
-60019.3
-684.77
-40060.2
-47153
-61830.9
-39215.1
-40396.9
-66252.2
71025
-56483.8
114019
-51925.4
132255
-49692.1
145762
-51144.4
153042
-53285.9
146371
-42058.5
78222.1
-23714.4
-59414.8
-24845.5
-76279.8
-38176.6
5749.83
-48892.8
32123.3
-61568.2
32115.4
-70292.9
42665
-67989.8
47350.6
-49080.4
24284.4
-23776.9
-25988.2
-10585.4
-60344.6
-6890.24
-42910.3
11301.4
-81142
60765.8
-67237.8
100114
-58816.2
123834
-53938.7
140884
-53621.6
152725
-51649.8
144400
-30877
57449.3
-16781.3
-73510.5
-23550.9
-69510.2
-29099.5
11298.4
-33910.8
36934.6
-41556.6
39761.2
-45005.9
46114.4
-37977.4
40322
-20886.8
7193.81
-7237.32
-39637.7
-5265.05
-62316.8
7807.96
-55983.3
-10552.6
-99087.9
51473.4
-83905.2
84931.8
-72290.2
112219
-65313.7
133908
-62077.1
149488
-51447.9
133770
-19266.7
25268.1
-11028.9
-81748.3
-20672.2
-59866.8
-19143.9
9770.03
-22787.1
40577.8
-26869.9
43844
-25906.8
45151.3
-17206.7
31621.9
-4831.48
-5181.41
1487.69
-45956.8
-869.467
-59959.7
5005.23
-61858
-25556.9
-115752
46939.2
-105263
74442.7
-94027.4
100983
-85087
124967
-73821.6
138223
-46714.6
106663
-10942.9
-10503.5
-9530.34
-83160.9
-15338
-54059.2
-8910.06
3342.11
-12633.8
44301.5
-15128.9
46339.1
-12414.3
42436.7
-3980.16
23187.8
4873.98
-14035.5
6686.96
-47769.8
2152.65
-55425.4
3571.89
-63277.2
-34975
-122000
47814.9
-119149
71592.4
-111230
93063.7
-99358.8
113096
-75244.5
114109
-28897.6
60316.6
-2045.08
-37356
-10257
-74949
-10621.3
-53694.9
-2090.37
-5188.8
-3707.34
45918.5
-5770.79
48402.6
-3330.6
39996.5
4273.88
15583.3
10354.2
-20115.9
8553.17
-45968.8
3516.33
-50388.5
4225.46
-63986.4
-40193.7
-118845
51287.3
-119718
72465.1
-112230
85575.9
-94425.6
95292
-58875.1
78558.2
-13489.3
14930.8
-442.608
-50402.7
-8374.13
-67017.5
-7189.62
-54879.4
942.407
-13320.8
2953.06
43907.8
2634.05
48721.6
4085.34
38545.2
9107.88
10560.8
11424.4
-22432.4
8322.1
-42866.5
4831.67
-46898.1
5310.35
-64465.1
-41651.4
-94287
-93462.7
-84557.5
-65249.4
-33125.8
-6589.37
-3212.56
-5804.88
-5220.14
157.807
4783.64
7250.52
8841.49
10872.6
10683.5
8513.25
6172.3
6397.75
544.824
-9202.43
2423.93
-15182.6
4298.4
-15984.7
5856.29
-15177.6
7052.38
-13865.8
7964.09
-12571.2
8406.06
-11371.3
8652.19
-10401.3
8763.97
-9574.65
8774.39
-8843.5
8705.23
-8160.63
8575.35
-7490.77
8396.18
-6808.25
8150.35
-6119.86
7777.44
-5496.08
7147.67
-5114.8
6119.56
-5167.61
4583.3
-5598.97
2571.07
-5787.1
-4080.36
228.536
-9430.92
1004.14
-15958.2
1680.74
-16661.3
2155.12
-15651.9
2557.51
-14268.2
2974.21
-12987.8
3482.52
-11879.6
3996.84
-10915.6
4491.73
-10069.5
4950.62
-9302.36
5373.22
-8583.19
5772.76
-7890.27
6174.18
-7209.64
6579.99
-6525.64
6926.51
-5842.58
6994.43
-5182.69
6453.49
-4626.67
4984.05
-4129.52
2648.39
-3451.43
-1431.97
920.305
-10351.2
2114
-17151.9
2929.76
-17477
3481
-16203.1
4005.02
-14792.2
4561.25
-13544
5148.13
-12466.4
5727.21
-11494.7
6237.54
-10579.8
6623.49
-9688.26
6852.73
-8812.41
6916.27
-7953.78
6827.6
-7120.94
6612.76
-6310.78
6290.23
-5520.03
5819.5
-4711.93
5074.61
-3881.77
3868.59
-2923.48
2022.43
-1605.24
590.457
2091.51
-12442.7
3421.36
-18481.7
4062.52
-18118.2
4552.13
-16692.8
5158.81
-15398.8
5894.05
-14279.2
6712.23
-13284.6
7502.45
-12284.9
8178.72
-11256.1
8682.23
-10191.8
8980.91
-9111.08
9052.46
-8025.31
8879.98
-6948.45
8450.39
-5881.17
7758.94
-4828.56
6799.86
-3752.84
5568.02
-2649.92
4033.22
-1388.67
2120.91
307.097
2711.37
3041.01
-15483.7
4032.52
-19473.2
4408.21
-18493.9
4922.62
-17207.1
5715.56
-16191.7
6720.92
-15284.6
7817.38
-14381
8832.95
-13300.4
9677.35
-12100.4
10311.6
-10826
10725
-9524.54
10894.3
-8194.6
10782.3
-6836.38
10330.5
-5429.33
9449.02
-3947.1
7995.26
-2299.07
5718.01
-372.654
3503.53
825.83
1551.8
2258.85
4263.17
2066.14
-17549.8
1652.88
-19059.9
1267.86
-18108.8
1211.15
-17150.4
1389.66
-16370.3
1720.61
-15615.5
2047.16
-14707.6
2222.82
-13476.1
2222.38
-12100
2064.19
-10667.8
1760.29
-9220.62
1292.49
-7726.78
640.834
-6184.7
-187.116
-4601.36
-1088.12
-3046.05
-1815.41
-1571.71
-1923.22
-264.766
-2262.98
1165.63
-2033.46
2029.36
2229.71
-568.549
-16981.2
-2003.93
-17624.5
-3228.97
-16883.8
-4360.49
-16018.9
-5482.16
-15248.6
-6595.17
-14502.5
-7752.58
-13550.1
-8970.41
-12258.2
-10226.8
-10843.5
-11508.6
-9385.97
-12819.1
-7910.13
-14149.5
-6396.37
-15446
-4888.24
-16575.7
-3471.66
-17291.2
-2330.5
-17128.7
-1734.17
-15537
-1856.48
-11758.1
-2613.26
-6035.07
-3693.64
-3805.36
-1942.94
-15038.3
-3128.08
-16439.4
-4534.09
-15477.8
-6248.74
-14304.3
-8145.53
-13351.8
-10174.8
-12473.3
-12181.1
-11543.8
-14083.9
-10355.5
-15847.5
-9079.94
-17504.3
-7729.18
-19048.4
-6365.96
-20397.4
-5047.45
-21324.5
-3961.08
-21438.3
-3357.87
-20311.2
-3457.62
-17713
-4332.36
-13663.1
-5906.4
-8480.65
-7795.72
-3350.98
-8823.3
-7156.34
-812.323
-14226
-796.183
-16455.5
-1048.11
-15225.9
-1693.66
-13658.7
-2413.52
-12631.9
-3245.65
-11641.1
-3991.86
-10797.6
-4528.65
-9818.71
-4746.92
-8861.66
-4624.92
-7851.16
-4142.52
-6848.34
-3304.67
-5885.27
-2155.04
-5110.68
-772.225
-4740.64
707.77
-4937.58
2031.93
-5656.49
2777.36
-6651.81
2548.35
-7566.71
1354.1
-7629.03
-5802.24
72.4553
-14298.5
741.489
-17124.6
1188.06
-15672.4
1433.44
-13904.1
1771.58
-12970.1
2100.78
-11970.4
2482.08
-11178.9
2977.9
-10314.6
3664.13
-9547.9
4601.5
-8788.55
5818.5
-8065.36
7286.46
-7353.23
8831.87
-6656.1
10099.5
-6008.26
10645.3
-5483.41
10157.8
-5169.02
8584.44
-5078.4
6064.26
-5046.53
3091.49
-4656.28
-2710.76
556.783
-14855.2
1212.59
-17780.4
1586.39
-16046.2
1993.01
-14310.7
2521.51
-13498.6
3045.86
-12494.7
3584.43
-11717.5
4105.44
-10835.6
4606.6
-10049.1
5080.12
-9262.06
5531.54
-8516.79
5970.92
-7792.61
6404.66
-7089.84
6791.04
-6394.65
7010.76
-5703.14
6846.25
-5004.52
6085.43
-4317.59
4585.96
-3547.08
2440.14
-2510.48
-270.616
1003.08
-15858.4
1311.3
-18088.7
1579.45
-16314.4
1975.27
-14706.6
2473.84
-13997.2
2926.37
-12947.3
3404.35
-12195.5
3864.16
-11295.4
4330.38
-10515.3
4768.55
-9700.26
5164.25
-8912.51
5480.05
-8108.45
5681.74
-7291.55
5729.78
-6442.72
5586.48
-5559.86
5193.12
-4611.2
4471.89
-3596.37
3313.28
-2388.48
1690.22
-887.476
1419.61
1367.57
-17225.9
1340.91
-18062
1680.96
-16654.5
2159.88
-15185.5
2734.86
-14572.2
3278.06
-13490.5
3881.65
-12799.1
4498.07
-11911.8
5173.91
-11191.2
5870.35
-10396.7
6562.63
-9604.81
7157.68
-8703.51
7547.94
-7681.82
7626.68
-6521.46
7334.69
-5267.88
6639.42
-3915.94
5540.3
-2497.28
3966.55
-814.75
2029.74
1049.3
3449.35
1113.99
-18339.9
767.647
-17715.7
1011.03
-16897.9
1368.47
-15543
1819.43
-15023.2
2294.5
-13965.6
2874.2
-13378.8
3522.01
-12559.7
4283.88
-11953.1
5105.4
-11218.3
5920.98
-10420.4
6542.91
-9325.46
6785.1
-7924.03
6546.58
-6282.97
5849.44
-4570.77
4721.81
-2788.34
3352.27
-1127.76
2020.88
516.601
620.287
2449.85
4069.64
75.0596
-18415
-581.251
-17059.4
-871.04
-16608.1
-1127.33
-15286.7
-1345.44
-14805.1
-1517.11
-13793.9
-1644.16
-13251.8
-1696.84
-12507
-1684.29
-11965.6
-1615.48
-11287.1
-1573.78
-10462.1
-1682.32
-9216.95
-2017.48
-7588.89
-2508.77
-5791.71
-3058.42
-4021.16
-3663.93
-2182.86
-4287.3
-504.429
-4490.83
720.103
-3425.71
1384.7
643.921
-556.865
-17858.2
-1250.27
-16366
-1862.52
-15995.9
-2547.92
-14601.3
-3249.35
-14103.7
-3974.16
-13069.2
-4765.86
-12460.1
-5587.54
-11685.4
-6484.47
-11068.7
-7412.75
-10358.8
-8352.43
-9522.46
-9190.1
-8379.3
-9786.03
-6992.97
-10007
-5570.77
-9806
-4222.15
-9132.96
-2855.92
-7999.19
-1638.2
-6281.97
-997.115
-3445.97
-1451.3
-2802.05
-359.572
-17498.6
-875.135
-15850.5
-1242.64
-15628.4
-1646.53
-14197.4
-2047.77
-13702.4
-2438.4
-12678.5
-2879.54
-12018.9
-3347.32
-11217.6
-3877.62
-10538.4
-4414.98
-9821.48
-4847.23
-9090.23
-4958.94
-8267.6
-4576.77
-7375.15
-3683.32
-6464.24
-2354.75
-5550.74
-659.88
-4550.81
1115.1
-3413.22
2316.17
-2198.21
2119.93
-1255.1
-682.116
-988.41
-16510.2
-2146.01
-14692.9
-2952.85
-14821.5
-3499.03
-13651.3
-3949.4
-13252.1
-4161.58
-12466.4
-4278.87
-11901.7
-4242.36
-11254.1
-4109.72
-10671.1
-3849.58
-10081.6
-3425.49
-9514.33
-2750.79
-8942.31
-1775.16
-8350.79
-527.53
-7711.88
915.762
-6994.04
2460.7
-6095.76
3824.12
-4776.65
4330.21
-2704.31
2981.08
94.0252
2298.96
-1974.89
-14535.3
-4194.45
-12473.3
-6380.93
-12635.1
-8138.86
-11893.3
-9780.37
-11610.6
-11073.4
-11173.3
-12145.7
-10829.4
-12934
-10465.9
-13481.8
-10123.3
-13784
-9779.35
-13861.2
-9437.16
-13716.6
-9086.94
-13346.7
-8720.7
-12731.6
-8326.95
-11841.6
-7884.05
-10598.8
-7338.54
-8814.54
-6560.94
-6284.91
-5233.94
-3134.65
-3056.24
-835.689
-5435.33
-8808.65
-12343.7
-15137.1
-17647.6
-19720.9
-21450.3
-22816.2
-23839.5
-24518.8
-24856
-24842.9
-24463.6
-23690.6
-22474.6
-20713.2
-18174.1
-14308.1
-8264.31
-5436.28
14536.3
-8810.78
12474.5
-12347.1
12636.3
-15141.9
11894.8
-17654
11612.2
-19729.2
11175.1
-21460.6
10831.4
-22828.6
10468
-23854.2
10125.6
-24535.8
9781.64
-24875.1
9439.29
-24863.8
9088.73
-24485.9
8722.11
-23714.3
8328.32
-22500.5
7886.21
-20742.5
7342.04
-18205.8
6563.24
-14333.8
5228
-8273.64
3039.87
826.365
-1976.09
16512.4
-4195.66
14694.1
-6382.6
14823.2
-8139.72
13651.9
-9780.35
13252.8
-11071.6
12466.3
-12141.4
11901.2
-12926.2
11252.9
-13469.8
10669.1
-13767.1
10079
-13839.3
9511.48
-13690.6
8940.02
-13318.6
8350.16
-12704.6
7714.28
-11819.7
7001.28
-10583.8
6106.2
-8808.93
4788.32
-6289.25
2708.32
-3148.05
-101.342
-2321.69
-981.063
17493.4
-2129
15842
-2926.45
15620.7
-3461.08
14186.5
-3899.69
13691.4
-4097.78
12664.4
-4199.87
12003.3
-4146.05
11199
-3994.54
10517.6
-3714.15
9798.57
-3269.8
9067.13
-2577.07
8247.29
-1589.43
7362.51
-340.484
6465.33
1090.75
5570.04
2603.76
4593.18
3910.05
3482.03
4345.43
2272.93
2966.74
1277.34
645.054
-343.854
17837.3
-846.593
16344.7
-1200.15
15974.2
-1586.91
14573.3
-1970.89
14075.4
-2343.2
13036.7
-2765.62
12425.7
-3214.17
11647.6
-3725.17
11028.6
-4242.73
10316.1
-4651.96
9476.36
-4735.09
8330.4
-4321.21
6948.62
-3400.1
5544.21
-2054.67
4224.61
-359.709
2898.21
1404.53
1717.78
2575.38
1102.07
2261.14
1591.57
2906.2
-547.161
18384.4
-1223.24
17020.8
-1819.65
16570.6
-2499.72
15253.3
-3195.06
14770.7
-3917.44
13759.1
-4709.25
13217.5
-5535.89
12474.2
-6441.55
11934.2
-7380.57
11255.1
-8329.82
10425.6
-9170.21
9170.79
-9756.84
7535.26
-9955.84
5743.21
-9717.1
3985.86
-8982.95
2164.05
-7786.43
521.26
-6054.42
-629.943
-3273.81
-1189.05
-367.61
106.881
18277.5
-606.385
17734.1
-906.948
16871.2
-1151.77
15498.2
-1363.5
14982.4
-1533.17
13928.7
-1657.66
13342
-1707.92
12524.5
-1695.6
11921.9
-1635.63
11195.2
-1611.14
10401.1
-1745.16
9304.81
-2111.19
7901.28
-2634.2
6266.21
-3216.45
4568.11
-3857.19
2804.79
-4507.58
1171.65
-4675.7
-461.822
-3503.36
-2361.38
-3870.97
1079.18
17198.3
1081.71
17731.5
1442.05
16510.8
1788.93
15151.3
2328.12
14443.2
2819.43
13437.4
3418.49
12742.9
4036.45
11906.5
4772.16
11186.2
5578.38
10388.9
6374.05
9605.43
6955.04
8723.82
7143.99
7712.32
6846
6564.21
6088.88
5325.23
4906.06
3987.61
3495.42
2582.3
2104.05
929.546
644.208
-901.544
-3226.76
1173.19
16025.2
2169.86
16734.9
2993.91
15686.8
3560.5
14584.7
4281.89
13721.8
4871.07
12848.3
5513.78
12100.2
6074.26
11346
6629.02
10631.5
7155.97
9862
7679.99
9081.42
8113.48
8290.33
8348.84
7476.96
8283.9
6629.16
7862.85
5746.28
7051.6
4798.86
5852.58
3781.31
4196.66
2585.47
2173.18
1121.93
-1053.58
889.27
15135.9
2059.67
15564.5
2899.07
14847.4
3419.78
14064
3872.17
13269.4
4264.46
12456
4699.62
11665.1
5113.14
10932.5
5459.92
10284.7
5675.2
9646.72
5824.82
8931.79
5915.36
8199.79
5912.41
7479.91
5779.18
6762.38
5478.67
6046.79
4959
5318.53
4164.2
4576.12
3023.44
3726.24
1547.57
2597.8
493.989
523.882
14612
1164.46
14923.9
1424.81
14587
1393.36
14095.4
1255.31
13407.5
1177.24
12534
1342.26
11500.1
1885.35
10389.4
2782.08
9387.95
3690.29
8738.52
4342.89
8279.2
4825.47
7717.22
5197.91
7107.47
5448.92
6511.38
5506.12
5989.59
5238.69
5585.96
4534.68
5280.12
3341.32
4919.6
1738.77
4200.34
2232.76
-20.8566
14632.9
-243.71
15146.7
-817.571
15160.9
-1601.98
14879.8
-2469.32
14274.8
-3259.98
13324.7
-3690.45
11930.5
-3314.95
10013.9
-2026.3
8099.3
-232.487
6944.7
1586.87
6459.85
3420.45
5883.64
5198.23
5329.69
6642.19
5067.42
7389.66
5242.11
7192.71
5782.91
6073.35
6399.48
4257.56
6735.4
2140.33
6317.56
4373.09
-840.806
15473.7
-1824.53
16130.5
-2929.58
16266
-4090.63
16040.9
-5334.2
15518.4
-6665.92
14656.4
-7971.19
13235.8
-9086.7
11129.4
-9980.99
8993.59
-10101.5
7065.27
-9279.67
5637.98
-8241.57
4845.54
-6940.12
4028.25
-5347.2
3474.5
-3501.91
3396.83
-1628.29
3909.31
-140.42
4911.61
624.058
5970.93
576.232
6365.4
4949.33
-985.117
16458.8
-2017.07
17162.4
-2783.46
17032.3
-3390.07
16647.5
-4021.33
16149.7
-4868.26
15503.3
-6156.93
14524.5
-8125.63
13098.1
-10765.8
11633.7
-13499.3
9798.74
-15609.2
7747.95
-17365.4
6601.74
-18712.1
5374.98
-19302.4
4064.77
-18696
2790.42
-16552.9
1766.22
-12792.7
1151.4
-7946.29
1124.52
-3188.36
1607.47
1760.96
371.799
16087
204.218
17330
577.508
16659.1
1299.63
15925.4
2151.28
15298
2912.43
14742.2
3278.84
14158.1
3023.63
13353.3
2241.26
12416.1
764.527
11275.5
-1231.16
9743.65
-3117.09
8487.69
-5022.37
7280.27
-6941.69
5984.1
-8706.26
4555.01
-9888.16
2948.13
-9896.05
1159.29
-8307.73
-463.787
-4960.19
-1740.06
-3199.23
2023.05
14063.9
3149.8
16203.3
4559.3
15249.6
6206.12
14278.6
7982.26
13521.9
9786.16
12938.3
11492.1
12452.1
12923.1
11922.4
14047.3
11292
14706.1
10616.7
14586.4
9863.32
13970.7
9103.44
12917.7
8333.2
11417.5
7484.34
9472.79
6499.72
7100.36
5320.56
4316.57
3943.09
1572.99
2279.8
-66.4017
-100.665
-3265.63
2045.68
12018.3
3565.58
14683.4
4955.96
13859.2
6283.87
12950.7
7554.05
12251.7
8767.17
11725.2
9929.3
11290
10993.1
10858.6
11926.1
10358.9
12704.6
9838.2
13194.5
9373.48
13348.9
8949
13159.7
8522.4
12615.6
8028.43
11691.7
7423.65
10347.4
6664.81
8543.81
5746.72
6264.8
4558.81
3284.05
2880.09
18.4203
1386.77
10631.5
2757.33
13312.8
3856.16
12760.4
4729.85
12077
5453.74
11527.8
6077.65
11101.3
6637.63
10730
7135.67
10360.6
7567.09
9927.52
7946.74
9458.55
8275.54
9044.68
8518.26
8706.28
8633.24
8407.43
8558.33
8103.34
8204.36
7777.63
7451.39
7417.79
6211.73
6986.38
4455.16
6315.4
2283.61
5051.65
2302.03
750.484
9881.03
1950.67
12112.6
2929.2
11781.8
3684.99
11321.2
4315.88
10896.9
4874.54
10542.6
5406.09
10198.5
5957.26
9809.4
6514.71
9370.08
7082.01
8891.26
7685.54
8441.15
8326.51
8065.31
8950.49
7783.46
9406.34
7647.49
9470.47
7713.51
8892.2
7996.06
7543.19
8335.39
5433.07
8425.52
2814.48
7670.24
5116.5
-257.421
10138.5
-165.444
12020.7
-208.734
11825.1
-225.308
11337.8
-57.863
10729.5
248.186
10236.6
814.242
9632.41
1584.41
9039.25
2558.99
8395.5
3696.62
7753.64
4970.03
7167.75
6320.01
6715.34
7608.39
6495.08
8587.93
6667.94
8974.18
7327.26
8517.96
8452.28
7184.92
9668.43
5057.14
10553.3
2569.37
10158
7685.87
386.003
1004.4
1366.46
1616.78
1861.1
2112.15
2275.06
2313.51
2378.39
2467.31
2578.59
2698.98
2790.27
2803.96
2711.15
2504.13
2195.38
1743.11
1087.09
)
;

boundaryField
{
    outletWall
    {
        type            calculated;
        value           nonuniform List<scalar> 
60
(
44245.8
17861.3
-14159.5
-31216.4
-60969.6
-92189.3
-109116
-107990
-65946.6
40596.5
98346.8
109026
74825
-33409
-105364
-127695
-135002
-128245
-121793
-83682.9
92056.5
115373
121124
120286
108380
91401.2
74641.2
60755.4
49307.5
39905.3
32930.2
29010.4
28165.1
29584.6
32052.6
34491.4
36229.8
37081.7
37292.1
37633.8
-50621.6
-40312.1
-64690.5
-44557.2
-40696.3
-22243.2
8529.69
36954.2
46254.7
39282
-18698.8
-55464.1
-64425.2
-53779.5
-11605.6
46434.6
75983.9
76670.6
71640.8
53517.7
)
;
    }
    fineWalls
    {
        type            calculated;
        value           uniform 0;
    }
    fineFrontAndBack
    {
        type            calculated;
        value           nonuniform List<scalar> 
960
(
9.65307e-15
9.7436e-14
-4.51429e-14
-5.20325e-14
-4.67486e-13
-1.35901e-14
2.46063e-13
-6.61002e-13
-1.0819e-12
6.68907e-13
2.32865e-12
-2.63289e-13
-2.65079e-12
-4.33165e-12
-5.1975e-11
-1.45622e-11
-1.64758e-11
-8.61802e-11
-1.6745e-11
-1.69564e-11
-3.58969e-12
-4.36089e-12
-3.56052e-12
-2.78662e-12
-2.38308e-12
-2.69775e-12
4.10253e-12
-2.93052e-12
-1.93911e-12
-7.65111e-13
4.67851e-13
2.01665e-12
4.26253e-12
7.19495e-12
9.30634e-12
8.39165e-12
4.5854e-12
4.647e-13
-1.28536e-12
-3.88047e-12
-2.94191e-11
-6.94217e-12
-1.54582e-11
-2.42066e-11
-1.24236e-10
-1.31034e-11
-1.08698e-11
-7.08066e-12
3.07764e-11
-1.41286e-11
-1.26264e-11
6.79291e-11
1.34909e-11
1.59032e-11
2.06025e-11
1.88516e-10
3.43796e-11
2.79714e-11
1.84491e-11
1.02585e-10
7.51665e-12
4.54997e-12
3.10677e-12
1.29398e-12
-8.87526e-13
-3.26022e-12
-4.98987e-12
-5.40725e-12
-4.90541e-12
-3.81585e-12
-2.72744e-12
-1.58488e-12
-2.73018e-13
-2.16707e-11
8.30238e-13
7.98673e-13
8.85597e-13
1.31369e-12
2.53047e-12
1.45141e-12
3.61558e-12
5.55431e-12
4.28288e-11
4.20072e-12
7.75924e-12
6.27608e-11
9.69181e-12
1.45633e-11
9.93719e-11
1.68838e-11
2.454e-11
1.6041e-10
3.02988e-11
1.89791e-11
1.0214e-11
6.36946e-11
9.61356e-12
7.34962e-12
4.3671e-11
5.17561e-12
1.92068e-10
2.78758e-10
2.96087e-10
3.119e-10
3.19475e-10
3.2228e-10
3.21904e-10
3.05185e-10
2.60825e-10
2.14755e-10
1.67057e-10
1.49453e-10
1.66336e-10
1.97947e-10
2.16443e-10
2.10182e-10
1.85682e-10
1.46263e-10
1.27519e-10
2.03559e-10
2.82962e-10
2.98142e-10
3.12975e-10
3.19976e-10
3.22918e-10
3.19196e-10
2.71675e-10
2.09755e-10
1.76864e-10
1.45268e-10
1.37731e-10
1.6033e-10
1.93981e-10
2.15251e-10
2.12931e-10
1.93925e-10
1.58924e-10
1.36479e-10
2.17958e-10
2.88011e-10
3.00381e-10
3.14316e-10
3.20708e-10
3.23804e-10
3.07608e-10
2.24368e-10
1.80363e-10
1.68871e-10
1.44764e-10
1.28388e-10
1.4908e-10
1.84966e-10
2.1157e-10
2.14737e-10
2.01789e-10
1.73542e-10
1.26455e-10
2.31927e-10
2.93916e-10
3.02107e-10
3.15703e-10
3.21984e-10
3.22793e-10
2.67519e-10
1.73533e-10
1.59556e-10
1.59332e-10
1.40782e-10
1.26881e-10
1.38569e-10
1.73802e-10
2.02565e-10
2.10435e-10
2.04651e-10
1.80926e-10
1.6016e-10
2.41797e-10
3.01097e-10
3.03885e-10
3.16893e-10
3.24067e-10
3.15444e-10
2.03856e-10
1.30214e-10
1.42124e-10
1.47844e-10
1.36574e-10
1.2917e-10
1.34265e-10
1.59854e-10
1.86781e-10
1.96919e-10
1.98388e-10
1.80494e-10
1.83119e-10
2.42242e-10
3.08364e-10
3.07424e-10
3.18007e-10
3.25884e-10
2.96481e-10
1.37524e-10
8.9475e-11
1.10139e-10
1.19656e-10
1.25567e-10
1.28919e-10
1.34644e-10
1.45652e-10
1.6879e-10
1.89523e-10
1.86389e-10
1.67896e-10
1.5593e-10
2.2878e-10
3.11851e-10
3.13539e-10
3.2006e-10
3.26159e-10
2.6913e-10
7.98741e-11
3.12426e-11
3.55619e-11
4.53033e-11
9.10692e-11
1.22539e-10
1.4098e-10
1.42963e-10
1.76782e-10
2.55366e-10
2.97491e-10
1.71461e-10
3.53824e-11
2.02466e-10
3.06557e-10
3.20269e-10
3.24247e-10
3.23305e-10
2.38694e-10
2.75062e-11
-6.29036e-11
-9.25426e-11
-8.87534e-11
-1.4087e-11
9.83133e-11
1.56672e-10
1.64949e-10
2.2377e-10
3.3259e-10
3.93255e-10
3.45208e-10
2.30049e-10
1.72785e-10
2.90339e-10
3.22795e-10
3.29957e-10
3.24646e-10
2.3437e-10
-7.73898e-13
-1.72788e-10
-2.17005e-10
-2.0133e-10
-1.2187e-10
3.26396e-11
1.72646e-10
1.99938e-10
2.27374e-10
2.49267e-10
2.51085e-10
2.81951e-10
3.23784e-10
1.55948e-10
2.6756e-10
3.1816e-10
3.37092e-10
3.23774e-10
1.97895e-10
-7.36555e-11
-2.15566e-10
-2.47113e-10
-2.21962e-10
-1.9992e-10
-7.53761e-11
9.58305e-11
1.56253e-10
1.42024e-10
1.05818e-10
4.91479e-11
7.28232e-11
1.50708e-10
1.67512e-10
2.49867e-10
3.0672e-10
3.39285e-10
3.20224e-10
1.87847e-10
-6.1415e-11
-1.9215e-10
-1.64116e-10
-1.5883e-10
-2.21493e-10
-1.88817e-10
-7.25862e-11
1.04105e-11
-3.82502e-12
-7.5255e-11
-1.42159e-10
-1.19942e-10
-1.95894e-11
2.10074e-10
2.51853e-10
2.94549e-10
3.34651e-10
3.20718e-10
2.08876e-10
-9.96351e-12
-1.64652e-10
-1.20511e-10
-1.21461e-10
-2.12637e-10
-2.37741e-10
-2.12245e-10
-1.79695e-10
-1.77486e-10
-2.08908e-10
-2.13698e-10
-1.81926e-10
-1.80212e-10
2.63897e-10
2.81043e-10
2.93674e-10
3.30678e-10
3.26999e-10
2.34679e-10
2.08902e-11
-1.60407e-10
-1.20165e-10
-1.17525e-10
-1.91949e-10
-2.31923e-10
-2.5006e-10
-2.58811e-10
-2.50819e-10
-2.01301e-10
-9.69546e-11
-3.01701e-11
-2.5714e-11
2.90036e-10
3.25086e-10
3.13499e-10
3.39754e-10
3.38722e-10
2.49678e-10
2.78154e-11
-1.59089e-10
-1.1501e-10
-1.06991e-10
-1.48232e-10
-1.88128e-10
-2.27171e-10
-2.46291e-10
-2.26089e-10
-1.333e-10
-3.50529e-11
1.59358e-11
1.09538e-10
2.48717e-10
3.42571e-10
3.38899e-10
3.58311e-10
3.46395e-10
2.41514e-10
1.24999e-11
-1.53549e-10
-1.12222e-10
-9.68751e-11
-1.15902e-10
-1.48788e-10
-1.84867e-10
-1.95e-10
-1.65795e-10
-8.68419e-11
-3.02072e-11
-3.62533e-12
5.08298e-11
1.32295e-10
2.77295e-10
3.11173e-10
3.3556e-10
3.07545e-10
1.85078e-10
-2.7984e-11
-1.38995e-10
-1.16026e-10
-9.01562e-11
-9.39113e-11
-1.21093e-10
-1.45418e-10
-1.45788e-10
-1.15795e-10
-6.05836e-11
-2.03997e-11
-6.17454e-13
1.27637e-11
-1.76717e-11
1.21652e-10
1.81598e-10
2.14206e-10
1.8451e-10
7.47199e-11
-8.88388e-11
-1.26813e-10
-1.19387e-10
-9.40281e-11
-7.94077e-11
-9.6851e-11
-1.12926e-10
-1.11003e-10
-8.56173e-11
-4.34687e-11
-8.83548e-12
2.01693e-12
-2.04814e-12
-1.42261e-10
-4.96506e-11
2.65439e-12
3.49622e-11
2.1221e-11
-4.39687e-11
-1.3291e-10
-1.27444e-10
-1.20017e-10
-1.04384e-10
-7.59212e-11
-7.76615e-11
-8.84861e-11
-8.74045e-11
-6.61922e-11
-2.9962e-11
-7.2486e-13
1.73281e-12
-4.88543e-13
-2.18917e-10
-1.67165e-10
-1.35699e-10
-1.09826e-10
-1.03853e-10
-1.17557e-10
-1.28305e-10
-1.29659e-10
-1.20523e-10
-1.09068e-10
-8.34182e-11
-6.91661e-11
-6.9484e-11
-6.74233e-11
-5.07404e-11
-2.03153e-11
1.42122e-12
1.53183e-12
-1.06621e-12
-2.55514e-10
-2.24326e-10
-2.0235e-10
-1.81495e-10
-1.59402e-10
-1.38679e-10
-1.27521e-10
-1.29397e-10
-1.21148e-10
-1.10119e-10
-9.25168e-11
-7.35534e-11
-6.1131e-11
-5.27554e-11
-4.2715e-11
-1.57683e-11
2.53304e-12
1.34716e-12
-1.18657e-12
-9.65307e-15
-9.7436e-14
4.51429e-14
5.20325e-14
4.67486e-13
1.35901e-14
-2.46063e-13
6.61002e-13
1.0819e-12
-6.68907e-13
-2.32865e-12
2.63289e-13
2.65079e-12
4.33165e-12
5.1975e-11
1.45622e-11
1.64758e-11
8.61802e-11
1.6745e-11
1.69564e-11
3.58969e-12
4.36089e-12
3.56052e-12
2.78662e-12
2.38308e-12
2.69775e-12
-4.10253e-12
2.93052e-12
1.93911e-12
7.65111e-13
-4.67851e-13
-2.01665e-12
-4.26253e-12
-7.19495e-12
-9.30634e-12
-8.39165e-12
-4.5854e-12
-4.647e-13
1.28536e-12
3.88047e-12
2.94191e-11
6.94217e-12
1.54582e-11
2.42066e-11
1.24236e-10
1.31034e-11
1.08698e-11
7.08066e-12
-3.07764e-11
1.41286e-11
1.26264e-11
-6.79291e-11
-1.34909e-11
-1.59032e-11
-2.06025e-11
-1.88516e-10
-3.43796e-11
-2.79714e-11
-1.84491e-11
-1.02585e-10
-7.51665e-12
-4.54997e-12
-3.10677e-12
-1.29398e-12
8.87526e-13
3.26022e-12
4.98987e-12
5.40725e-12
4.90541e-12
3.81585e-12
2.72744e-12
1.58488e-12
2.73018e-13
2.16707e-11
-8.30238e-13
-7.98673e-13
-8.85597e-13
-1.31369e-12
-2.53047e-12
-1.45141e-12
-3.61558e-12
-5.55431e-12
-4.28288e-11
-4.20072e-12
-7.75924e-12
-6.27608e-11
-9.69181e-12
-1.45633e-11
-9.93719e-11
-1.68838e-11
-2.454e-11
-1.6041e-10
-3.02988e-11
-1.89791e-11
-1.0214e-11
-6.36946e-11
-9.61356e-12
-7.34962e-12
-4.3671e-11
-5.17561e-12
-1.92068e-10
-2.78758e-10
-2.96087e-10
-3.119e-10
-3.19475e-10
-3.2228e-10
-3.21904e-10
-3.05185e-10
-2.60825e-10
-2.14755e-10
-1.67057e-10
-1.49453e-10
-1.66336e-10
-1.97947e-10
-2.16443e-10
-2.10182e-10
-1.85682e-10
-1.46263e-10
-1.27519e-10
-2.03559e-10
-2.82962e-10
-2.98142e-10
-3.12975e-10
-3.19976e-10
-3.22918e-10
-3.19196e-10
-2.71675e-10
-2.09755e-10
-1.76864e-10
-1.45268e-10
-1.37731e-10
-1.6033e-10
-1.93981e-10
-2.15251e-10
-2.12931e-10
-1.93925e-10
-1.58924e-10
-1.36479e-10
-2.17958e-10
-2.88011e-10
-3.00381e-10
-3.14316e-10
-3.20708e-10
-3.23804e-10
-3.07608e-10
-2.24368e-10
-1.80363e-10
-1.68871e-10
-1.44764e-10
-1.28388e-10
-1.4908e-10
-1.84966e-10
-2.1157e-10
-2.14737e-10
-2.01789e-10
-1.73542e-10
-1.26455e-10
-2.31927e-10
-2.93916e-10
-3.02107e-10
-3.15703e-10
-3.21984e-10
-3.22793e-10
-2.67519e-10
-1.73533e-10
-1.59556e-10
-1.59332e-10
-1.40782e-10
-1.26881e-10
-1.38569e-10
-1.73802e-10
-2.02565e-10
-2.10435e-10
-2.04651e-10
-1.80926e-10
-1.6016e-10
-2.41797e-10
-3.01097e-10
-3.03885e-10
-3.16893e-10
-3.24067e-10
-3.15444e-10
-2.03856e-10
-1.30214e-10
-1.42124e-10
-1.47844e-10
-1.36574e-10
-1.2917e-10
-1.34265e-10
-1.59854e-10
-1.86781e-10
-1.96919e-10
-1.98388e-10
-1.80494e-10
-1.83119e-10
-2.42242e-10
-3.08364e-10
-3.07424e-10
-3.18007e-10
-3.25884e-10
-2.96481e-10
-1.37524e-10
-8.9475e-11
-1.10139e-10
-1.19656e-10
-1.25567e-10
-1.28919e-10
-1.34644e-10
-1.45652e-10
-1.6879e-10
-1.89523e-10
-1.86389e-10
-1.67896e-10
-1.5593e-10
-2.2878e-10
-3.11851e-10
-3.13539e-10
-3.2006e-10
-3.26159e-10
-2.6913e-10
-7.98741e-11
-3.12426e-11
-3.55619e-11
-4.53033e-11
-9.10692e-11
-1.22539e-10