/*--------------------------------*- C++ -*----------------------------------*\
| =========                 |                                                 |
| \\      /  F ield         | OpenFOAM: The Open Source CFD Toolbox           |
|  \\    /   O peration     | Version:  4.1                                   |
|   \\  /    A nd           | Web:      www.OpenFOAM.org                      |
|    \\/     M anipulation  |                                                 |
\*---------------------------------------------------------------------------*/
FoamFile
{
    version     2.0;
    format      ascii;
    class       volVectorField;
    location    "16";
    object      U;
}
// * * * * * * * * * * * * * * * * * * * * * * * * * * * * * * * * * * * * * //

dimensions      [0 1 -1 0 0 0 0];

internalField   nonuniform List<vector> 
1280
(
(6.97602e-18 16.5349 0.273207)
(2.59243e-17 20.0323 -1.84254)
(-5.10764e-17 17.887 -1.73177)
(-3.76025e-17 18.4681 -1.56173)
(-7.94537e-17 22.5581 -4.64235)
(2.33768e-17 19.1987 -4.03207)
(1.77824e-16 21.6798 -4.08541)
(-5.44091e-16 20.6766 -3.60273)
(-8.70275e-17 25.6161 -7.79912)
(5.41588e-16 22.9479 -6.45514)
(1.79914e-15 24.5993 -5.68917)
(-6.43265e-16 29.2106 -11.5463)
(-2.01414e-15 26.697 -9.79835)
(-3.32554e-15 28.9845 -8.90638)
(-9.4505e-15 35.147 -17.3378)
(-1.05237e-14 32.1128 -14.3405)
(-1.19066e-14 36.4066 -13.5409)
(-1.46472e-14 37.693 -25.2677)
(-1.21012e-14 43.6673 -19.7213)
(-1.2254e-14 38.0761 -33.1803)
(-1.47269e-14 43.8219 36.8776)
(-1.78908e-14 43.3992 66.6675)
(-1.46072e-14 44.8546 83.7138)
(-1.14323e-14 46.6127 93.5044)
(-9.77675e-15 47.5478 99.4024)
(-1.10677e-14 50.0139 103.713)
(8.64829e-16 47.8365 87.6164)
(-1.20226e-14 78.4192 128.67)
(-7.95531e-15 78.4464 128.395)
(-3.13892e-15 78.8765 127.387)
(1.91939e-15 78.7969 126.002)
(8.27344e-15 78.4651 123.826)
(1.74873e-14 78.0646 120.615)
(2.95178e-14 77.406 116.926)
(3.81798e-14 76.9577 114.081)
(3.44273e-14 76.1155 114.309)
(1.88119e-14 75.8925 118.996)
(1.90646e-15 74.5067 126.723)
(-5.27326e-15 75.1796 135.623)
(-1.59199e-14 73.139 130.325)
(-5.12081e-15 97.54 130.66)
(-5.57604e-15 57.7491 81.9233)
(-1.24162e-14 47.8761 75.5396)
(-1.95613e-14 39.3406 68.2767)
(-2.08266e-14 32.1093 68.5225)
(-1.05249e-14 21.4595 45.8267)
(-8.73074e-15 16.7852 44.1767)
(-5.68728e-15 11.6108 37.5683)
(7.70708e-15 5.49973 26.7849)
(-1.34374e-14 0.984166 13.8036)
(-1.30811e-14 -0.537504 10.7958)
(1.1824e-14 -5.99334 12.6737)
(1.08361e-14 -9.08252 22.3426)
(1.27737e-14 -12.1406 31.7567)
(1.65482e-14 -16.3235 39.8518)
(3.2814e-14 -27.9266 69.3013)
(2.76992e-14 -36.8261 68.9611)
(2.2467e-14 -45.2307 69.3034)
(1.48186e-14 -52.5413 68.4162)
(1.55852e-14 -93.9897 105.427)
(3.08375e-14 -67.3309 113.153)
(1.86666e-14 -67.8851 124.041)
(1.27457e-14 -65.145 122.598)
(5.30863e-15 -65.2991 118.824)
(-3.64113e-15 -64.0718 115.046)
(-1.33752e-14 -64.2835 112.305)
(-2.04713e-14 -64.1868 111.88)
(-2.21836e-14 -64.7582 113.744)
(-2.01248e-14 -65.3677 117.391)
(-1.56548e-14 -66.162 121.581)
(-1.11895e-14 -66.7309 125.04)
(-6.50207e-15 -67.2549 127.018)
(-1.12007e-15 -66.871 126.948)
(-4.56827e-15 -39.8928 92.7755)
(3.4061e-15 -40.8259 105.579)
(3.27661e-15 -38.9187 102.313)
(3.63322e-15 -38.6965 97.8186)
(5.3895e-15 -37.9685 88.9891)
(1.03814e-14 -36.9666 72.6769)
(5.95452e-15 -38.179 47.2603)
(2.61288e-15 -30.3518 -34.6288)
(4.01396e-15 -38.6584 -25.1728)
(7.27916e-15 -25.1006 -32.8532)
(3.03575e-15 -26.0699 -15.5589)
(5.6074e-15 -21.1365 -18.619)
(1.06738e-14 -20.1206 -23.7848)
(7.00402e-15 -14.4126 -12.2365)
(1.05751e-14 -12.1193 -14.6559)
(1.77849e-14 -9.17734 -19.5076)
(1.22451e-14 -6.0226 -10.1269)
(1.77344e-14 -4.21449 -12.0028)
(3.02092e-14 -0.746169 -16.9636)
(2.27818e-14 0.936362 -10.5469)
(1.37157e-14 2.76236 -9.27397)
(7.38142e-15 3.69635 -8.43538)
(1.08255e-14 7.34141 -13.5734)
(6.94747e-15 7.88954 -9.89044)
(5.31138e-15 9.89784 -8.61726)
(7.19626e-15 11.1907 -12.5066)
(3.74028e-15 14.4329 -11.9535)
(2.13409e-14 -27.7044 31.4334)
(3.09732e-14 -40.4479 28.8224)
(3.28986e-14 -42.634 28.034)
(3.46556e-14 -44.9138 25.4976)
(3.54973e-14 -42.5652 23.6501)
(3.58089e-14 -35.2647 21.5118)
(3.57671e-14 -11.9605 15.4416)
(3.39095e-14 25.742 -5.30275)
(2.89806e-14 36.4292 -7.17486)
(2.38617e-14 32.7537 1.15605)
(1.85619e-14 13.6231 1.57712)
(1.66059e-14 -20.4559 -9.42205)
(1.84818e-14 -35.3492 -16.2182)
(2.19941e-14 -36.1222 -20.359)
(2.40492e-14 -30.7009 -23.3007)
(2.33535e-14 -20.4104 -23.677)
(2.06313e-14 -10.4844 -22.871)
(1.62515e-14 -4.79585 -20.3754)
(1.41688e-14 5.79791 -18.377)
(2.26177e-14 -27.309 31.1978)
(3.14402e-14 -39.5661 29.0373)
(3.31268e-14 -41.7219 28.269)
(3.4775e-14 -43.5708 26.0318)
(3.55529e-14 -41.161 24.5856)
(3.58798e-14 -32.0922 22.5133)
(3.54662e-14 -0.029647 10.7451)
(3.01861e-14 31.4834 -10.6625)
(2.33062e-14 33.7583 0.475873)
(1.96516e-14 29.4193 10.9365)
(1.61409e-14 18.0667 11.13)
(1.53034e-14 -17.1832 -6.02602)
(1.78144e-14 -32.8445 -12.9361)
(2.15535e-14 -34.0917 -17.4024)
(2.39168e-14 -29.5285 -21.8018)
(2.3659e-14 -20.2594 -23.8729)
(2.15472e-14 -11.5516 -24.4089)
(1.76583e-14 -6.53732 -21.6986)
(1.51643e-14 2.88018 -17.2462)
(2.42175e-14 -26.844 30.9848)
(3.20012e-14 -38.9623 29.2231)
(3.33756e-14 -41.2062 28.5397)
(3.4924e-14 -43.0266 26.7612)
(3.56342e-14 -40.7241 25.8657)
(3.59782e-14 -29.797 23.4886)
(3.41787e-14 6.52937 5.20506)
(2.49298e-14 30.0324 -5.45679)
(2.00403e-14 28.2546 12.4875)
(1.87634e-14 28.3334 18.8689)
(1.60849e-14 21.2123 21.2398)
(1.42653e-14 -12.0605 2.99051)
(1.65645e-14 -29.8014 -7.75699)
(2.05517e-14 -31.9739 -11.7359)
(2.35078e-14 -27.9616 -18.2613)
(2.38597e-14 -19.3506 -22.8951)
(2.2421e-14 -11.6329 -25.9643)
(1.92824e-14 -7.70722 -23.427)
(1.40505e-14 2.7989 -19.3321)
(2.57696e-14 -26.6324 30.2699)
(3.26573e-14 -38.555 29.388)
(3.35674e-14 -40.8319 28.8737)
(3.50781e-14 -42.6496 27.7243)
(3.5776e-14 -40.1401 27.569)
(3.58659e-14 -25.7455 24.2707)
(2.97243e-14 12.0732 3.92915)
(1.92814e-14 26.733 8.13284)
(1.77284e-14 23.8964 25.0118)
(1.77036e-14 26.6906 29.7924)
(1.56424e-14 23.7155 34.091)
(1.40979e-14 -6.27977 17.8485)
(1.53966e-14 -26.6539 -1.02856)
(1.93113e-14 -29.6674 -2.98254)
(2.25072e-14 -25.2807 -12.1892)
(2.33817e-14 -17.0085 -19.9595)
(2.27391e-14 -11.6009 -26.552)
(2.01029e-14 -9.96077 -24.4299)
(1.77956e-14 0.0621092 -22.9965)
(2.68663e-14 -26.6239 28.819)
(3.34553e-14 -38.3833 29.4891)
(3.37651e-14 -40.5932 29.3274)
(3.52103e-14 -42.4996 28.9623)
(3.60075e-14 -39.4593 29.641)
(3.50493e-14 -20.9258 25.2739)
(2.26507e-14 13.2631 11.9074)
(1.44683e-14 20.9739 27.0052)
(1.57916e-14 19.5993 39.5569)
(1.64271e-14 24.7193 42.6286)
(1.51749e-14 25.5898 47.0825)
(1.43522e-14 2.61025 37.1626)
(1.49184e-14 -22.1402 11.7952)
(1.77615e-14 -27.0824 7.45772)
(2.07534e-14 -21.1318 -3.05041)
(2.18799e-14 -13.4349 -14.7544)
(2.20432e-14 -9.64632 -26.6564)
(2.00548e-14 -8.9733 -25.0547)
(2.03465e-14 2.05155 -28.1213)
(2.69158e-14 -26.9859 26.7857)
(3.42627e-14 -38.6932 29.3643)
(3.41582e-14 -40.6336 29.9173)
(3.53341e-14 -42.7028 30.4366)
(3.62093e-14 -38.9765 31.8545)
(3.29424e-14 -17.793 27.814)
(1.52804e-14 10.8922 28.8214)
(9.94166e-15 15.422 48.7462)
(1.22377e-14 17.7174 57.0336)
(1.32952e-14 25.0169 58.1871)
(1.39519e-14 25.5473 58.2274)
(1.43243e-14 8.27294 56.5293)
(1.49605e-14 -15.4672 32.5834)
(1.61836e-14 -23.1 22.457)
(1.87544e-14 -16.5442 11.146)
(2.10582e-14 -6.67437 -2.19303)
(2.07099e-14 -9.01164 -24.1601)
(1.86551e-14 -11.9484 -24.5262)
(1.73255e-14 2.13083 -39.8165)
(2.542e-14 -27.7421 24.7277)
(3.46501e-14 -39.5883 28.9095)
(3.48376e-14 -41.0433 30.5706)
(3.55623e-14 -43.207 31.9923)
(3.62399e-14 -38.9693 33.9984)
(2.99033e-14 -18.3938 33.2281)
(8.8749e-15 4.72145 50.2855)
(3.4714e-15 9.46965 72.3731)
(3.95132e-15 15.7051 79.1207)
(5.0337e-15 24.3502 79.6111)
(1.01188e-14 25.9548 75.2598)
(1.36154e-14 12.7668 74.7107)
(1.56645e-14 -9.13287 54.8651)
(1.58848e-14 -18.1851 43.0389)
(1.96424e-14 -11.0444 33.4886)
(2.8374e-14 1.32741 29.4684)
(3.30545e-14 1.679 20.1418)
(1.90512e-14 -0.579449 -12.1683)
(3.93138e-15 8.01222 0.642387)
(2.24962e-14 -28.7426 23.5391)
(3.40619e-14 -40.9923 28.2892)
(3.55854e-14 -41.8753 31.1321)
(3.60275e-14 -44.0116 33.3785)
(3.59228e-14 -40.0152 36.0687)
(2.65216e-14 -23.4495 40.5863)
(3.05624e-15 -4.96826 68.0866)
(-6.98928e-15 3.961 91.3896)
(-1.02825e-14 15.0536 95.7248)
(-9.86149e-15 25.8242 95.9792)
(-1.56522e-15 27.7156 94.8452)
(1.09237e-14 17.2981 89.636)
(1.7408e-14 -3.26158 76.3273)
(1.83277e-14 -14.2748 66.3304)
(2.48634e-14 -11.2659 67.4418)
(3.69545e-14 -1.51369 84.4872)
(4.3695e-14 2.43332 95.8537)
(3.83564e-14 -9.22672 81.6415)
(2.5561e-14 -40.459 74.9645)
(1.91983e-14 -29.7105 24.2308)
(3.22599e-14 -42.6019 27.9944)
(3.58661e-14 -43.068 31.5476)
(3.66619e-14 -45.1395 34.3805)
(3.60717e-14 -42.1038 37.7313)
(2.60411e-14 -30.4567 44.8319)
(-8.59887e-17 -15.3434 70.8905)
(-1.91986e-14 -1.29641 89.8791)
(-2.41117e-14 14.1175 88.4677)
(-2.237e-14 25.4932 87.1091)
(-1.35411e-14 28.1932 93.2607)
(3.62662e-15 19.4632 100.096)
(1.91828e-14 -0.368994 96.6671)
(2.22154e-14 -14.4689 90.8191)
(2.52638e-14 -17.1297 95.8994)
(2.76963e-14 -8.19632 110.164)
(2.78983e-14 3.96737 120.791)
(3.13279e-14 4.04178 116.041)
(3.5976e-14 -10.2052 91.5816)
(1.73276e-14 -30.2952 27.4742)
(2.97289e-14 -43.9226 28.6715)
(3.53512e-14 -44.4013 32.083)
(3.74547e-14 -46.4915 35.0352)
(3.59749e-14 -44.4615 38.8517)
(2.19883e-14 -36.5885 46.1147)
(-8.37759e-15 -23.5268 67.7958)
(-2.39517e-14 -3.28475 79.4553)
(-2.7457e-14 15.7764 68.0368)
(-2.46624e-14 23.6248 66.3496)
(-2.22134e-14 22.826 82.5645)
(-7.91575e-15 15.9844 100.427)
(1.06478e-14 -0.0584129 107.654)
(1.73615e-14 -14.4275 105.655)
(1.5638e-14 -19.4545 105.822)
(1.17576e-14 -11.5362 108.835)
(5.46088e-15 1.48975 109.198)
(8.09147e-15 4.80299 97.9926)
(1.67454e-14 -2.00249 58.8038)
(1.86125e-14 -30.2034 33.252)
(2.7763e-14 -44.4931 30.8916)
(3.408e-14 -45.5652 33.2954)
(3.76983e-14 -47.8743 35.5825)
(3.55804e-14 -46.7189 39.4046)
(2.08718e-14 -41.5114 45.6566)
(-7.26535e-15 -29.0221 61.98)
(-2.135e-14 -1.44253 63.3831)
(-1.82351e-14 19.2726 42.8074)
(-1.76477e-14 19.7415 44.5099)
(-2.46103e-14 14.5389 69.9086)
(-2.09797e-14 9.41264 92.3081)
(-8.06514e-15 -2.19639 104.17)
(1.15672e-15 -13.7228 106.444)
(-4.25003e-16 -18.4818 105.643)
(-8.36166e-15 -10.228 106.893)
(-1.57954e-14 6.9145 107.516)
(-1.33269e-14 19.117 99.1469)
(-2.1766e-15 20.7858 65.5885)
(2.33415e-14 -29.3107 41.0426)
(2.79837e-14 -44.03 34.9716)
(3.27277e-14 -46.195 35.8037)
(3.71835e-14 -48.9658 36.5478)
(3.56353e-14 -48.6541 39.7086)
(2.32084e-14 -45.0897 44.6881)
(-1.10706e-15 -31.3355 55.9341)
(-1.82947e-14 4.28988 48.4271)
(-1.33901e-14 23.2079 26.3491)
(-1.34956e-14 12.8752 33.8154)
(-2.36263e-14 4.12511 61.8303)
(-2.64157e-14 2.13452 82.0095)
(-2.35828e-14 -5.50279 94.5877)
(-1.99661e-14 -14.8303 100.989)
(-1.97207e-14 -19.3394 101.836)
(-2.3212e-14 -11.6012 98.7716)
(-2.37442e-14 6.68811 90.808)
(-2.0214e-14 22.0972 86.5576)
(-2.00235e-14 29.7341 83.0222)
(2.93219e-14 -27.6713 50.5355)
(3.1227e-14 -42.555 40.9083)
(3.26305e-14 -46.1055 39.8823)
(3.6742e-14 -49.4918 38.5065)
(3.63332e-14 -50.1301 40.2818)
(2.60755e-14 -47.4684 43.9172)
(2.32113e-15 -31.1195 50.5684)
(-1.7823e-14 10.6312 36.3486)
(-1.33517e-14 25.628 17.1969)
(-1.30583e-14 5.6135 30.9706)
(-2.13277e-14 -4.40748 50.4868)
(-2.57693e-14 -3.96935 65.8708)
(-2.77844e-14 -9.70249 77.8351)
(-2.87567e-14 -16.5735 84.2572)
(-2.78688e-14 -17.4217 81.9203)
(-2.23667e-14 -5.97025 64.3338)
(-1.07727e-14 11.4019 35.6575)
(-3.35224e-15 17.1329 30.75)
(-2.85711e-15 40.4487 67.6478)
(3.22263e-14 -25.2825 62.0673)
(3.61207e-14 -39.9408 48.6828)
(3.48332e-14 -45.0841 45.1881)
(3.77504e-14 -49.1545 41.4429)
(3.76357e-14 -50.9182 41.3321)
(2.7742e-14 -48.6933 43.6873)
(3.0906e-15 -28.6472 45.7599)
(-1.76765e-14 16.7282 24.8864)
(-1.27789e-14 26.0916 13.1101)
(-1.18879e-14 -0.383199 28.4461)
(-1.64702e-14 -9.61687 35.6744)
(-2.09031e-14 -9.06233 45.7751)
(-2.52412e-14 -13.0683 56.7819)
(-2.73657e-14 -16.5202 60.4777)
(-2.5121e-14 -11.3183 52.9616)
(-1.48111e-14 6.02223 29.2735)
(-3.89476e-15 19.7294 9.9787)
(1.77065e-15 10.3084 6.55168)
(1.21709e-14 -11.2194 1.87973)
(2.76352e-14 -22.0956 76.025)
(3.80634e-14 -36.0785 59.5562)
(3.76554e-14 -43.1187 52.2345)
(3.98123e-14 -48.0517 45.8829)
(3.84883e-14 -51.1361 43.9564)
(2.68349e-14 -48.9139 45.3309)
(1.38888e-15 -23.6165 41.0166)
(-1.7061e-14 22.4904 11.2132)
(-1.24691e-14 24.7468 15.2375)
(-1.07639e-14 -3.46424 24.0183)
(-1.2878e-14 -11.8837 25.1885)
(-1.6532e-14 -12.2895 31.2087)
(-2.05408e-14 -15.1545 38.0527)
(-2.16667e-14 -14.8726 37.1215)
(-1.84217e-14 -4.90686 26.195)
(-9.6491e-15 11.5537 9.06767)
(-3.35635e-15 20.6187 2.49035)
(-4.02814e-16 17.7584 5.74129)
(5.64776e-15 -0.259148 -20.8619)
(1.46995e-14 -18.3967 90.2162)
(3.08105e-14 -30.5945 75.2021)
(3.45748e-14 -39.3497 64.4196)
(3.72844e-14 -45.7827 56.1424)
(3.41717e-14 -50.6269 52.626)
(2.05643e-14 -47.3633 50.9238)
(-3.10933e-15 -15.1919 34.5205)
(-1.54439e-14 26.385 -1.21254)
(-1.28918e-14 21.5309 18.0636)
(-1.00174e-14 -4.17595 16.1619)
(-1.04346e-14 -12.8562 16.6489)
(-1.34548e-14 -14.1006 21.2642)
(-1.61576e-14 -15.5677 23.5061)
(-1.61986e-14 -12.102 19.8372)
(-1.28661e-14 0.019339 8.86825)
(-6.73151e-15 14.6221 -0.524178)
(-2.26664e-15 20.6997 -2.46351)
(-6.86061e-17 19.9126 3.85408)
(1.41818e-15 6.65545 -13.9077)
(-1.96352e-15 -15.886 100.228)
(1.35169e-14 -26.0974 92.8005)
(2.01776e-14 -35.5418 82.5211)
(2.38007e-14 -43.5969 74.2396)
(2.05012e-14 -49.1671 67.4363)
(8.30221e-15 -41.7974 55.8556)
(-9.87098e-15 -1.93183 21.1748)
(-1.40903e-14 28.2794 -1.51578)
(-1.32652e-14 18.4867 16.1116)
(-1.04476e-14 -2.7182 8.29607)
(-8.82308e-15 -14.2548 8.32688)
(-1.07612e-14 -15.174 12.6453)
(-1.25473e-14 -14.6441 12.5767)
(-1.23337e-14 -9.20064 8.23024)
(-9.51303e-15 3.25805 -1.49211)
(-4.82985e-15 15.8458 -6.56556)
(-9.8172e-16 19.3967 -4.90432)
(2.24103e-16 21.0957 1.28749)
(-2.27572e-16 10.5614 -8.50616)
(-1.58068e-14 -15.3898 100.992)
(-5.51673e-15 -23.5054 102.311)
(2.94932e-16 -31.6289 96.257)
(3.88469e-15 -39.5151 89.1417)
(2.35789e-15 -42.7937 76.3085)
(-4.88541e-15 -28.9313 49.3829)
(-1.47678e-14 10.1191 -1.45607)
(-1.41605e-14 26.8106 5.25455)
(-1.33352e-14 17.625 11.2229)
(-1.15982e-14 0.190844 4.7078)
(-8.43569e-15 -15.2636 1.00949)
(-8.62905e-15 -15.7141 4.96999)
(-9.83179e-15 -13.5291 4.74085)
(-9.71161e-15 -6.13825 0.870841)
(-7.35469e-15 6.01781 -7.86649)
(-3.32911e-15 15.9143 -9.45028)
(-8.054e-17 17.5425 -5.02647)
(1.92535e-16 21.1633 -0.825356)
(-5.42825e-17 12.9057 -7.02981)
(-2.43241e-14 -16.4675 96.2386)
(-1.85739e-14 -24.3677 101.738)
(-1.50776e-14 -30.7899 97.806)
(-1.22028e-14 -36.4787 89.2179)
(-1.15392e-14 -33.9273 68.1085)
(-1.30619e-14 -12.5051 29.8853)
(-1.42562e-14 15.3683 -6.38759)
(-1.44066e-14 23.3163 6.40798)
(-1.33915e-14 17.9793 7.29369)
(-1.21187e-14 2.49471 3.39598)
(-9.26869e-15 -15.477 -3.23746)
(-7.68512e-15 -16.7254 -2.00032)
(-7.72044e-15 -13.2357 -2.26132)
(-7.49147e-15 -4.2158 -4.59115)
(-5.63783e-15 7.68033 -10.4154)
(-2.25726e-15 15.0431 -8.66587)
(1.57913e-16 16.2037 -5.38736)
(1.70203e-16 21.4093 -2.66416)
(-1.18468e-16 13.8097 -6.58453)
(-2.83904e-14 -17.8048 76.7401)
(-2.49252e-14 -23.8618 80.3439)
(-2.24834e-14 -25.7918 75.451)
(-2.01661e-14 -25.9783 65.5102)
(-1.77113e-14 -16.7039 43.3761)
(-1.54088e-14 3.59608 11.1094)
(-1.4169e-14 17.6036 0.616534)
(-1.43774e-14 21.4656 4.56619)
(-1.34609e-14 18.6422 5.06367)
(-1.22355e-14 6.83038 3.33181)
(-1.02796e-14 -13.3757 -3.00107)
(-8.1726e-15 -15.554 -5.24486)
(-6.79233e-15 -12.4332 -6.78561)
(-5.86171e-15 -2.91625 -8.02856)
(-4.74611e-15 7.24292 -9.9751)
(-1.75204e-15 13.4975 -7.84609)
(2.81449e-16 14.9102 -6.41556)
(1.49685e-16 21.5767 -3.82524)
(-1.31841e-16 13.6894 -7.01328)
(-2.20597e-15 90.0479 152.646)
(-3.68637e-14 137.997 236.556)
(-3.24626e-14 151.342 248.212)
(-3.1341e-14 146.491 236.492)
(-3.1914e-14 138.592 216.75)
(-4.42391e-14 128.607 196.343)
(-5.08697e-14 118.468 176.168)
(-5.02461e-14 110.168 161.103)
(-4.95169e-14 103.047 147.953)
(-4.91171e-14 96.2824 136.138)
(-5.03046e-14 89.7265 124.885)
(-4.87313e-14 83.0546 113.726)
(-4.32e-14 76.1985 102.349)
(-3.45747e-14 69.3562 91.2909)
(-3.01077e-14 63.7232 82.4022)
(-4.06885e-14 61.2345 79.8942)
(-6.52035e-14 64.1468 87.366)
(-8.49504e-14 70.6266 103.494)
(-8.9149e-14 73.7941 113.911)
(-1.05735e-13 54.894 92.2597)
(-5.2479e-16 82.7684 136.998)
(-2.3783e-14 134.601 234.143)
(-1.74931e-14 146.477 246.603)
(-1.76811e-14 138.151 233.276)
(-1.86951e-14 127.895 212.564)
(-2.86734e-14 116.939 192.994)
(-3.10094e-14 108.267 176.114)
(-3.02403e-14 100.846 161.486)
(-3.67811e-14 94.6825 149.083)
(-4.23729e-14 89.4209 138.306)
(-5.18644e-14 84.6006 128.46)
(-5.8482e-14 79.918 118.943)
(-6.75364e-14 75.1021 109.28)
(-7.44306e-14 70.0955 99.1437)
(-7.7076e-14 64.8749 88.8468)
(-7.86885e-14 60.2753 79.6229)
(-8.18593e-14 56.2806 73.7522)
(-8.20625e-14 53.3906 70.8637)
(-7.99832e-14 45.5787 66.3665)
(-1.09474e-13 25.8173 36.5474)
(2.40169e-16 90.0441 150.393)
(-5.93728e-15 149.614 255.356)
(-4.61409e-15 158.875 264.683)
(-4.61372e-15 148.994 246.974)
(-4.84908e-15 137.695 225.101)
(-1.2431e-14 127.232 205.295)
(-8.03871e-15 118.473 188.124)
(-6.30494e-15 111.025 173.161)
(-8.26209e-15 104.307 159.611)
(-9.757e-15 97.8618 146.86)
(-1.13588e-14 91.417 134.65)
(-1.45835e-14 84.9406 122.911)
(-1.87017e-14 78.3796 111.688)
(-2.22425e-14 71.8461 100.829)
(-2.58488e-14 65.0123 90.1552)
(-3.05336e-14 58.1008 79.1191)
(-3.5137e-14 50.0621 67.9116)
(-3.9001e-14 41.9072 55.5118)
(-4.5011e-14 27.6502 39.0289)
(-6.71896e-14 9.18615 5.96435)
(-1.19141e-16 102.347 169.184)
(1.43792e-15 163.04 272.934)
(1.28238e-15 165.952 273.558)
(1.34004e-15 154.318 252.044)
(1.62702e-15 142.808 230.486)
(-5.83663e-15 133.549 211.851)
(-5.8859e-15 125.791 195.822)
(-5.57689e-15 118.859 180.829)
(-7.54513e-15 111.871 166.167)
(-8.10544e-15 104.574 151.418)
(-8.79007e-15 96.8277 136.605)
(-1.0847e-14 88.7109 121.841)
(-1.24573e-14 80.2178 107.345)
(-1.39359e-14 71.5162 93.1633)
(-1.54681e-14 62.3099 79.3693)
(-2.0288e-14 52.8607 65.3668)
(-2.71447e-14 41.7965 50.7859)
(-3.46903e-14 30.0893 33.3081)
(-5.3221e-14 9.39381 8.31134)
(-1.48887e-13 -5.33819 -27.1092)
(2.6293e-17 127.504 214.049)
(-3.79981e-16 179.358 295.982)
(-4.28884e-16 171.882 284.198)
(-4.32257e-16 160.947 261.903)
(-6.32814e-16 150.891 243.703)
(1.27118e-15 144.152 227.941)
(1.87526e-15 137.64 213.424)
(1.94371e-15 130.921 197.727)
(2.3698e-15 122.959 180.819)
(2.68329e-15 114.154 162.923)
(3.1017e-15 104.603 144.605)
(3.80323e-15 94.5464 126.102)
(4.70285e-15 83.9252 107.635)
(5.50114e-15 72.8289 89.1837)
(6.25852e-15 60.8071 70.8545)
(7.27276e-15 48.1252 52.104)
(8.84447e-15 32.9406 33.2255)
(1.05549e-14 17.938 12.3335)
(1.36689e-14 -6.48191 -13.4881)
(-8.49976e-14 -18.769 -50.8467)
(-3.61965e-20 151.734 262.745)
(1.2109e-16 181.875 303.584)
(1.51095e-16 165.867 285.272)
(1.42605e-16 158.103 268.018)
(2.24139e-16 149.075 255.043)
(-2.35063e-16 143.63 242.924)
(-5.45648e-16 136.058 229.663)
(-6.67041e-16 126.851 212.136)
(-7.59559e-16 115.195 192.158)
(-8.43921e-16 102.829 170.893)
(-9.78926e-16 89.6982 149.254)
(-1.16348e-15 76.0374 126.988)
(-1.40896e-15 61.4073 103.953)
(-1.70065e-15 45.7151 79.7198)
(-2.07459e-15 28.2724 53.9466)
(-2.4578e-15 8.89511 25.3262)
(-1.63832e-15 -14.0424 -7.43941)
(5.89119e-15 -19.5621 -27.8969)
(8.67228e-15 -41.5207 -49.7883)
(-2.98367e-14 -34.8977 -74.8986)
(-3.04404e-18 154.942 276.21)
(-4.08416e-17 163.094 282.111)
(-4.68599e-17 149.866 271.205)
(-4.96495e-17 143.009 258.957)
(-6.14167e-17 132.798 247.93)
(9.49368e-17 125.148 236.871)
(2.01937e-16 113.811 222.272)
(2.29299e-16 100.126 201.971)
(2.50977e-16 84.4374 179.641)
(3.01646e-16 68.8947 156.815)
(3.81245e-16 52.8769 133.817)
(4.48062e-16 36.4558 109.86)
(3.87622e-16 19.3078 84.9052)
(3.37213e-17 2.03017 59.2866)
(-6.03729e-16 -14.2354 34.5305)
(-8.04484e-16 -27.8578 12.474)
(1.02476e-15 -37.8166 -7.02655)
(5.33841e-15 -40.6749 -21.6808)
(8.31545e-15 -30.2391 -19.0546)
(2.84127e-15 -6.37967 2.45371)
(2.08518e-18 136.695 244.53)
(1.11403e-17 145.731 258.625)
(1.17171e-17 134.525 246.777)
(1.22498e-17 124.24 232.263)
(3.27155e-18 112.198 219.369)
(-4.12713e-17 101.94 207.305)
(-6.08328e-17 88.7407 192.476)
(-6.2227e-17 73.8318 172.883)
(-6.20417e-17 57.5858 151.541)
(-4.76232e-17 41.5231 129.394)
(-5.83652e-18 25.1947 106.899)
(3.64875e-17 9.17455 84.2567)
(-8.59768e-19 -5.70314 62.8638)
(-1.77567e-16 -17.3218 45.0305)
(-3.90009e-16 -22.389 34.8554)
(-3.60385e-16 -16.4749 38.7063)
(7.04472e-17 3.56701 61.956)
(5.73386e-16 35.3358 99.6504)
(4.95817e-16 65.1835 129.376)
(-8.26146e-17 55.0189 108.901)
(-6.07937e-19 124.999 219.889)
(-2.16714e-18 142.978 248.577)
(-2.02927e-18 130.947 230.718)
(-1.89875e-18 119.232 209.185)
(1.06891e-18 106.734 192.879)
(1.00696e-17 98.0963 177.948)
(1.1594e-17 87.1947 164.159)
(8.59883e-18 76.9515 147.188)
(4.81658e-18 65.2509 129.288)
(3.29388e-18 54.3127 109.879)
(5.70722e-18 43.4887 90.4207)
(1.10089e-18 34.5839 72.4595)
(-2.75823e-17 29.5859 60.3451)
(-7.09032e-17 31.6737 59.4436)
(-8.73779e-17 42.14 72.3477)
(-6.11484e-17 58.1111 94.9206)
(-4.28744e-17 74.945 119.713)
(-9.07539e-17 86.1496 140.405)
(-1.8574e-16 88.676 143.028)
(-1.47057e-16 63.348 112.772)
(1.07896e-19 124.108 217.548)
(3.13336e-19 151.442 257.553)
(2.56676e-19 137.459 237.555)
(2.47403e-19 126.276 210.828)
(-1.74186e-19 114.591 195.511)
(-1.72362e-18 109.078 179.944)
(-1.89685e-18 100.682 167.764)
(-1.17053e-18 95.2293 154.593)
(-2.29075e-19 88.9493 143.028)
(4.34461e-19 84.1897 131.35)
(4.75167e-19 79.6372 120.01)
(1.32342e-18 75.752 108.498)
(5.52767e-18 72.3114 97.092)
(1.31779e-17 69.5129 87.0876)
(2.1044e-17 68.0073 80.7293)
(2.64891e-17 67.9289 80.3611)
(3.10317e-17 69.0407 85.6418)
(3.8776e-17 68.6833 92.5863)
(5.22568e-17 62.4057 91.6959)
(5.54465e-17 41.2941 65.5927)
(-1.0836e-20 126.875 222.847)
(-2.76362e-20 160.828 269.714)
(-1.52649e-20 141.492 245.06)
(-1.68706e-20 131.829 217.461)
(2.04321e-20 120.52 204.107)
(2.09075e-19 116.116 188.977)
(1.94749e-19 108.12 176.863)
(3.4511e-20 102.599 163.507)
(-1.43116e-19 96.1688 151.544)
(-2.2625e-19 90.6223 139.892)
(-2.4197e-19 85.1697 128.985)
(-5.95218e-19 80.0418 118.553)
(-1.74397e-18 75.0662 108.455)
(-3.48905e-18 70.1811 98.4632)
(-4.90304e-18 65.1133 88.6138)
(-5.12043e-18 60.0456 79.2422)
(-4.37955e-18 54.2468 71.1383)
(-4.73603e-18 48.1245 63.2399)
(-8.87144e-18 36.7595 52.309)
(-1.72148e-17 16.5782 19.0095)
(-5.54503e-22 132.397 234.007)
(-1.56871e-21 167.606 277.186)
(-4.29914e-21 141.748 248.447)
(-3.17188e-21 136.036 222.611)
(-8.15274e-22 123.561 210.961)
(-1.17436e-20 120.102 195.178)
(2.89162e-21 111.226 183.362)
(3.68334e-20 105.874 169.567)
(6.76783e-20 98.8825 157.324)
(6.57759e-20 92.9159 144.765)
(4.47266e-20 86.6746 132.757)
(1.16106e-19 80.6404 120.942)
(3.88643e-19 74.4963 109.467)
(7.83997e-19 68.2913 98.1318)
(1.02449e-18 61.5136 86.7644)
(8.30456e-19 54.2936 74.683)
(1.19866e-19 45.2181 61.6692)
(-8.91511e-19 35.3134 45.8851)
(-1.09844e-18 18.2911 24.9519)
(-3.2675e-18 1.01347 -10.2831)
(5.71219e-22 142.075 254.22)
(1.59742e-21 171.826 279.608)
(2.15417e-21 142.769 253.743)
(1.71203e-21 142.243 230.095)
(-5.60683e-22 128.028 219.872)
(-3.21966e-21 126.179 203.311)
(-8.65039e-21 116.501 191.935)
(-1.61129e-20 112.133 177.974)
(-2.15049e-20 105.274 166.141)
(-1.75624e-20 100.001 153.541)
(-7.23693e-21 94.0318 141.224)
(-1.55663e-20 87.9646 128.206)
(-6.71554e-20 80.9819 114.45)
(-1.46154e-19 72.9909 99.5664)
(-1.90509e-19 63.4314 83.6596)
(-1.2769e-19 52.8099 66.4089)
(9.61647e-20 39.7147 47.9826)
(5.18463e-19 25.955 26.1211)
(1.54826e-18 3.57649 -0.125169)
(6.4878e-19 -11.6089 -36.7165)
(-1.78858e-22 151.139 276.588)
(-5.30258e-22 171.88 276.959)
(-6.19897e-22 142.848 259.641)
(-3.84924e-22 147.009 238.199)
(5.01423e-22 130.538 229.627)
(1.62199e-21 130.825 213.021)
(2.2906e-21 120.119 203.202)
(2.27451e-21 117.529 189.973)
(1.50632e-21 110.772 179.705)
(3.2999e-22 106.79 167.944)
(2.51792e-21 100.952 155.962)
(1.61441e-20 94.3328 141.325)
(4.51416e-20 84.9563 123.738)
(7.85098e-20 73.1781 103.037)
(9.70937e-20 59.0087 80.5461)
(9.10505e-20 43.6525 56.5083)
(3.04703e-20 25.9332 31.9618)
(-9.87328e-20 8.92175 3.60536)
(7.38928e-20 -17.752 -26.091)
(1.73745e-18 -25.5615 -63.8277)
(4.4711e-23 153.23 287.02)
(1.31516e-22 165.452 267.484)
(1.64698e-22 138.778 259.654)
(1.93476e-22 143.994 239.381)
(-1.71187e-23 125.646 232.032)
(-8.31691e-22 126.145 216.134)
(-2.42364e-21 114.02 208.002)
(-4.40149e-21 111.74 196.142)
(-4.86028e-21 103.88 187.914)
(2.73685e-22 99.689 177.286)
(1.70411e-20 91.6168 165.012)
(4.81273e-20 81.4181 146.356)
(7.82847e-20 66.1412 121.358)
(7.51076e-20 48.6398 92.2624)
(4.86796e-20 30.4689 62.9305)
(5.73151e-20 12.2526 33.3182)
(-3.73935e-20 -3.71481 8.27684)
(-2.32802e-19 -16.8125 -14.6817)
(4.51776e-19 -38.8421 -45.8631)
(1.9332e-18 -31.0659 -55.9265)
(-1.15552e-23 146.766 278.897)
(-3.50768e-23 158.667 256.632)
(-1.05495e-23 131.84 250.519)
(9.05408e-23 136.066 230.002)
(1.45457e-22 117.553 222.403)
(-2.63701e-22 115.889 207.025)
(-1.49557e-21 103.832 198.289)
(-3.16475e-21 98.9834 187.007)
(-3.46014e-21 90.358 178.32)
(2.35848e-21 83.4381 167.736)
(2.2295e-20 73.148 154.207)
(5.66998e-20 59.908 133.976)
(7.76264e-20 43.2919 108.143)
(4.81524e-20 26.8328 81.034)
(-8.4867e-21 11.6138 54.8244)
(-3.7046e-20 -3.91143 26.4539)
(-3.30271e-20 -18.6886 -1.95677)
(7.193e-20 -23.9626 -16.2762)
(3.83057e-19 -12.6089 -4.21361)
(4.79201e-19 6.77428 26.4977)
(1.41842e-24 139.144 270.302)
(3.54759e-24 156.444 246.582)
(2.3316e-23 125.245 241.381)
(7.65428e-23 132.519 218.995)
(4.39944e-23 112.843 211.319)
(-3.43507e-22 111.636 194.891)
(-1.28143e-21 99.774 184.913)
(-2.56633e-21 94.5142 172.37)
(-3.28718e-21 86.0808 162.092)
(-1.39368e-21 79.217 150.829)
(6.15427e-21 70.7381 138.604)
(1.88492e-20 61.5818 123.61)
(2.48983e-20 51.943 106.679)
(5.09369e-21 43.5616 89.8165)
(-4.46915e-20 36.7697 74.1226)
(-9.81753e-20 31.5363 59.5397)
(-1.22636e-19 29.2639 48.2555)
(-1.35102e-19 27.0924 41.4406)
(-1.88771e-19 33.1907 44.1172)
(-4.06524e-19 30.165 53.5589)
(-1.04857e-24 130.92 268.792)
(-2.53984e-24 156.309 241.573)
(1.33696e-23 119.302 239.777)
(5.61332e-23 128.196 218.097)
(4.98988e-23 109.207 210.413)
(-1.86323e-22 107.263 195.276)
(-8.03921e-22 97.0625 184.898)
(-1.75591e-21 91.9132 172.739)
(-2.81723e-21 84.9867 162.089)
(-3.85512e-21 79.5705 151.271)
(-4.94141e-21 74.0674 140.99)
(-5.9126e-21 69.2757 130.692)
(-5.57814e-21 64.8233 120.216)
(-1.95787e-21 60.7181 109.149)
(5.24156e-21 56.518 97.0921)
(9.96974e-21 51.0139 82.3784)
(-2.89326e-22 42.0961 61.8834)
(-2.65752e-20 28.0175 32.7893)
(-7.07118e-20 7.31221 -0.422936)
(-2.25688e-19 -6.22123 -27.1874)
(-2.65746e-25 108.67 255.106)
(-4.41037e-25 149.059 225.614)
(7.88436e-24 108.26 228.535)
(3.05566e-23 114.768 213.047)
(2.86781e-23 98.7567 207.16)
(-9.71111e-23 94.2948 197.267)
(-4.50924e-22 85.6103 189.532)
(-1.07267e-21 79.7393 181.183)
(-1.96337e-21 73.5645 173.398)
(-3.11734e-21 68.3953 165.656)
(-4.25636e-21 63.5989 158.113)
(-4.4595e-21 59.2892 150.495)
(-2.61214e-21 55.1725 142.509)
(9.98959e-22 51.0571 133.714)
(3.54275e-21 46.5968 123.426)
(2.57016e-22 40.9373 109.972)
(-1.53073e-20 31.8794 89.4106)
(-5.14011e-20 16.2078 54.8703)
(-1.02012e-19 -7.06844 3.59067)
(-1.03194e-19 -19.0987 -36.6298)
(-7.7318e-26 35.9618 158.157)
(-9.45074e-26 78.4144 130.835)
(1.19228e-24 52.7659 138.968)
(6.29329e-24 52.6267 134.94)
(1.30016e-23 44.1958 134.955)
(3.25975e-24 39.8591 133.355)
(-5.93134e-23 34.9227 132.14)
(-2.02758e-22 31.0936 130.588)
(-3.98201e-22 27.682 128.92)
(-5.45991e-22 24.8913 127)
(-5.50073e-22 22.6065 124.825)
(-4.17692e-22 20.8774 122.395)
(-2.18934e-22 19.7481 119.786)
(1.07076e-22 19.3098 117.109)
(8.36816e-22 19.7811 114.406)
(2.2332e-21 21.1601 111.761)
(4.16091e-21 23.0553 109.106)
(5.73166e-21 27.5632 103.459)
(5.15539e-21 30.8238 90.3771)
(1.56827e-21 7.07879 64.8824)
(-5.48825e-26 -35.9642 158.16)
(-3.07586e-26 -78.4132 130.84)
(1.43929e-25 -52.7647 138.975)
(1.40737e-24 -52.6228 134.948)
(5.01588e-24 -44.1904 134.965)
(9.16713e-24 -39.8514 133.367)
(3.66746e-24 -34.9126 132.155)
(-3.04605e-23 -31.0806 130.605)
(-1.08374e-22 -27.6653 128.938)
(-2.17884e-22 -24.8705 127.019)
(-3.05811e-22 -22.5815 124.845)
(-3.04236e-22 -20.849 122.415)
(-2.03999e-22 -19.7172 119.808)
(-1.24722e-22 -19.2772 117.132)
(-2.82726e-22 -19.747 114.431)
(-8.10114e-22 -21.1238 111.793)
(-1.53954e-21 -23.0182 109.152)
(-1.95721e-21 -27.5305 103.51)
(-1.48099e-21 -30.7936 90.3974)
(-2.87844e-22 -7.07309 64.8515)
(1.91768e-25 -108.684 255.13)
(-1.95896e-25 -149.072 225.643)
(-8.63508e-25 -108.276 228.564)
(8.63591e-25 -114.784 213.082)
(9.11014e-24 -98.7778 207.196)
(1.93247e-23 -94.3191 197.308)
(3.50751e-24 -85.6411 189.575)
(-8.50844e-23 -79.7767 181.229)
(-2.71499e-22 -73.6104 173.444)
(-5.17926e-22 -68.4496 165.701)
(-7.58992e-22 -63.6601 158.151)
(-1.01275e-21 -59.3531 150.521)
(-1.39841e-21 -55.2354 142.522)
(-1.90439e-21 -51.1202 133.724)
(-2.02529e-21 -46.6664 123.458)
(-5.31509e-22 -41.0118 110.038)
(4.55087e-21 -31.9086 89.4237)
(1.46081e-20 -16.0677 54.6164)
(2.49784e-20 7.4545 3.00113)
(1.8747e-20 19.3873 -37.037)
(-6.2088e-25 -130.918 268.824)
(-1.65054e-25 -156.362 241.571)
(5.52721e-25 -119.322 239.79)
(3.99423e-24 -128.268 218.074)
(1.47795e-23 -109.266 210.391)
(2.74372e-23 -107.357 195.229)
(1.14239e-23 -97.1635 184.84)
(-7.47959e-23 -92.0411 172.656)
(-2.30817e-22 -85.1344 161.986)
(-3.80157e-22 -79.7509 151.152)
(-4.739e-22 -74.29 140.877)
(-8.40297e-22 -69.5584 130.614)
(-2.41623e-21 -65.1777 120.208)
(-5.67279e-21 -61.15 109.244)
(-8.10141e-21 -56.9825 97.2761)
(-3.57752e-21 -51.4596 82.6002)
(1.17007e-20 -42.499 62.2114)
(3.73109e-20 -28.3595 33.1586)
(5.83539e-20 -7.41823 -0.0673747)
(4.50709e-20 6.35092 -27.4633)
(2.31759e-24 -139.038 270.096)
(3.17644e-25 -156.365 246.31)
(-4.26161e-24 -125.118 241.118)
(-8.23418e-24 -132.476 218.67)
(-7.19935e-24 -112.756 210.988)
(-1.05618e-23 -111.602 194.491)
(-6.19566e-23 -99.7186 184.478)