/*--------------------------------*- C++ -*----------------------------------*\
| =========                 |                                                 |
| \\      /  F ield         | OpenFOAM: The Open Source CFD Toolbox           |
|  \\    /   O peration     | Version:  4.1                                   |
|   \\  /    A nd           | Web:      www.OpenFOAM.org                      |
|    \\/     M anipulation  |                                                 |
\*---------------------------------------------------------------------------*/
FoamFile
{
    version     2.0;
    format      ascii;
    class       surfaceScalarField;
    location    "22";
    object      phi;
}
// * * * * * * * * * * * * * * * * * * * * * * * * * * * * * * * * * * * * * //

dimensions      [0 3 -1 0 0 0 0];

internalField   nonuniform List<scalar> 
2360
(
-85960.8
-118320
32358.8
-118320
-118320
-85286.5
-33033.2
-85286.6
-85286.5
-85286.7
-45353.3
-39933.3
-45353.4
-45353.3
-17144.8
-28208.4
-17144.7
-17144.7
881.459
-18025.4
882.691
883.646
14034.6
-13151.2
14034.6
14034.2
14580.6
15567.2
16521.7
17455
18394.2
19331.4
25633.4
-5372.69
26508.5
27393.6
28322.2
29295.5
30301.7
31332.1
32383.3
33453.8
34550.2
35690
36889.9
38030.7
38911.6
41930.8
-3019.18
41931
41931
41931
51172.4
-9241.39
51172.4
51172.3
51172.4
59101
-7928.65
59101
59101
64002.5
-4901.49
64002.5
64002.5
64002.5
67109.6
-3107.08
67109.6
67109.6
67109.7
67326.5
-216.791
66293.3
65661.2
65824.4
66207.9
66606.1
67000.6
67409.7
67867.1
68420
69114.2
69987.2
71055
72328
78021.9
-4246.88
79686.7
81562.1
83665.2
86023.2
88618.6
91073.6
91073.6
91073.7
99849.5
-8775.78
99849.5
99849.5
126204
-26354.2
126204
126204
161454
-35250.1
161454
161454
247953
-86499.7
247953
247953
247953
-538443
786397
-538443
-538443
207479
-745922
-65665.4
-455228
123128
-32293
-61828.7
346227
-47445.7
12696.9
-13337.4
53520
-23974.8
48267
-31434.4
34043.2
-19056.2
-26535.9
4964.97
-56086.9
26160.5
-57499.6
41906.7
-44882.6
48871.3
-11699.5
-22198.8
29004
-123441
-56549.8
-242610
-75525.7
-361438
24977.5
-432149
-9188.53
-367652
-244800
-637924
-85897.4
-308383
-73827.9
-44362.5
-50433.1
322833
-45360.2
7623.96
-7819.45
15979.2
-28992.7
69440.3
-13755.8
18806.2
658.323
-40950
6176.58
-61605.2
9966.42
-61289.5
14207.9
-49124.2
28884
-26375.6
52253.6
5634.3
69225
-73521.2
8145.85
-14446.5
-143151
176274
-184556
32216.4
-381659
-47697.1
-233186
44403.4
-351115
14143.9
-14103.1
20390.8
316586
-10499.7
38514.5
-20292.1
25771.7
-18918.3
68066.4
-3996.48
3884.45
7964.31
-52910.8
14195.2
-67836
18270.1
-65364.4
23192.7
-54046.8
30598.4
-33781.2
37779.9
-1547.12
5888.71
-41630
-2128.98
-6428.78
5991.89
168153
60258.6
-22050.2
118576
-106015
-201110
-47437.1
-282009
-54058.9
-7481.27
-2003
264530
-10726.4
47237.8
-22063.9
37109.1
-7767.35
53769.9
11077.9
-14960.8
21809.9
-63642.9
24730.3
-70756.4
23144.4
-63778.5
23062.8
-53965.2
25713.8
-36432.1
33559.7
-9393.08
14659.5
-22729.7
-8707.53
16938.2
40996.2
118450
45845.9
-26899.9
37376.3
-97545.2
-198983
-16356.7
-256419
-38081.7
14243.7
-10452.9
236901
-18834.5
55619.4
-18002.9
36277.6
-1461.83
37228.8
20146.7
-36569.2
33480.8
-76977
35617.2
-72892.8
29825.4
-57986.6
25472.7
-49612.5
25321.3
-36280.7
31404.2
-15475.9
21239.6
-12565.1
17658.4
20519.5
40199
95909.1
44805
-31505.9
41728.3
-94468.4
-183609
-40551.3
-204327
-50752.9
24445.4
-15892.3
202040
-18003.1
57730.2
-10714.2
28988.6
8606.55
17908.1
31516.2
-59478.9
43625.1
-89085.9
42779
-72046.6
32764
-47971.7
24937.4
-41785.8
24011
-35354.3
27781.9
-19246.8
22330.1
-7113.29
20676
22173.6
36842.2
79742.9
35385.4
-30049
28842.6
-87925.5
-163542
-46654.9
-152256
-52443.7
30234.2
-17211.1
166808
-10047.6
50566.8
-558.669
19499.7
22351.3
-5001.87
40233.5
-77361.2
43672.3
-92524.7
36970.2
-65344.5
25944.4
-36945.9
20570.7
-36412.1
22084.1
-36867.7
25599.6
-22762.3
21663
-3176.63
16593.7
27242.9
30343
65993.6
30778
-30484
22588.7
-79736.2
-145200
-52910.3
-96398.3
-53259.7
30583.6
-11105.8
124654
-866.708
40327.7
12703
5929.92
38098.2
-30397.1
39583.2
-78846.1
26063.4
-79004.9
13635.8
-52916.8
9586.26
-32896.4
13876
-40701.9
19563
-42554.6
23231.7
-26430.9
19275.3
779.789
12773.7
33744.6
23463.9
55303.6
24507.3
-31527.3
16193.3
-71422.1
-129224
-57528.9
-41003.5
-54366.5
27421.2
3491.22
66796.3
28704.6
15114.3
43820.6
-9186.07
50207
-36783.5
29010.6
-57649.7
3838.75
-53833.1
-3530.34
-45547.7
1864.15
-38290.8
10177.4
-49015.1
16429.8
-48807
20170.6
-30171.6
16671.7
4278.69
10670.7
39745.6
19510
46464.3
20781.6
-32798.8
15372
-66012.5
-116959
-61303.5
12823.9
-56642.1
22759.8
15483.9
-5329.78
51154.5
-20556.3
65146.4
-23177.9
55259.5
-26896.6
23192.7
-25582.9
2462.18
-33102.5
1354.58
-44440.1
3739.75
-40676
7375.47
-52650.8
12302.2
-53733.7
16147.3
-34016.7
14069.1
6357.04
9972.25
43842.5
17670.8
38765.8
18297.6
-33425.5
14478.3
-62193.1
-107382
-61031.7
67621.9
-54531.9
16260
17259.6
-77121.2
50743.3
-54040
57922.3
-30356.9
45672
-14646.3
21583.1
-1493.93
7660.57
-19180
4300.54
-41080.1
3459.84
-39835.3
4450.85
-53641.8
7716.29
-56999.2
11275.2
-37575.6
11343.3
6288.96
9791.73
45394.1
17052.4
31505.1
17229.8
-33603
14710.6
-59673.9
-100600
-56134.5
122276
-49226.5
9352.01
9768.67
-136116
27616.3
-71887.5
20534.6
-23275.2
14793.1
-8904.8
9133.22
4165.93
5669.05
-15715.8
2907.9
-38318.9
2047.71
-38975.1
1666.64
-53260.7
2744.57
-58077.1
5341.74
-40172.8
8189.67
3441.19
9579.81
44004
17156.2
23928.9
17210.1
-33656.7
15396.1
-57859.8
-94445.2
-50068.3
175777
-47764.1
7047.81
-1544.96
-182336
-8117.55
-65315
-21630.7
-9762.06
-8491.84
-22043.7
1511.03
-5836.92
2821.4
-17026.2
1533.58
-37031
603.16
-38044.6
-1123.82
-51533.7
-1925.66
-57275.2
-420.857
-41677.5
4859.95
-1839.66
9488
39376
17826.6
15590.2
18081.1
-33911.3
15515
-55293.7
-81949.4
-40810.5
222183
-44325.4
10562.7
-8466.51
-218194
-15467
-58314.4
-19556.5
-5672.54
-8257.11
-33343.1
-1612.98
-12481
926.045
-19565.2
357.87
-36462.8
-757.718
-36929
-3462.76
-48828.6
-5523.44
-55214.5
-5032.2
-42168.7
1367.92
-8239.51
9992.52
30751.4
18987.5
6595.39
19886.5
-34810.1
15890.5
-51297.4
-71431.3
-44913.8
278426
-48389.4
14038.3
-6793.9
-259790
-13961.8
-51146.5
-19407.3
-227.028
-9911.35
-42839.1
-2969.29
-19423.1
-348.424
-22186.1
-595.59
-36215.7
-1617.44
-35907.2
-4880.3
-45565.8
-7902.88
-52191.9
-7892.14
-42179.5
-1624.83
-14506.9
11298.6
17828
20493.9
-2600.08
21609.8
-35926
18031.2
-47718.7
-66551.4
-20288.6
307643
-33841.9
27591.6
2320.39
-295952
-1673.94
-47152.2
-17800.1
15899.1
-10732.9
-49906.2
-3807.46
-26348.5
-1181.73
-24811.8
-1169.72
-36227.7
-1821.51
-35255.3
-5108.03
-42279.2
-8874.95
-48425
-8948.43
-42105.9
-2594.05
-20861.1
12771.8
2462.42
21745.2
-11573.4
22344.3
-36524.9
19476.7
-44850.9
-65099.8
-60142.1
391669
-52668.1
20117.6
16354
-364974
10326.6
-41124.8
-12538.3
38764
-10183.5
-52261
-4621.95
-31910
-1570.56
-27863.2
-1408.56
-36389.7
-1547.96
-35115.9
-4179.05
-39648.2
-8328.57
-44275.4
-8572.71
-41861.7
-2417.74
-27016.1
12758.9
-12714.3
21884.3
-20698.8
20236.9
-34877.4
20431.2
-45045.2
-72877.1
33418.8
357540
4809.67
48726.7
33115.3
-393280
-14999.9
6990.49
-21464.3
45228.4
-9373.45
-64351.9
-5140.55
-36142.9
-1514.51
-31489.2
-1299.46
-36604.7
-1120.68
-35294.7
-2789.17
-37979.7
-6784.6
-40280
-8002.4
-40643.9
-2173.71
-32844.8
9231.56
-24119.5
18777.1
-30244.4
16650.4
-32750.7
20328.2
-48722.9
-92482.2
-100943
527062
-87177.7
34961.4
-54561.1
-425897
-59863
12292.4
-2581.28
-12053.3
-6878.64
-60054.5
-4611.95
-38409.6
-1080.75
-35020.4
-972.197
-36713.3
-560.998
-35705.9
-1387.8
-37152.9
-4262.61
-37405.2
-6576.17
-38330.4
-2666.08
-36754.8
4520.04
-31305.6
11648.2
-37372.5
16197
-37299.5
18672.9
-51198.8
-106842
-112025
141810
-94705.5
-62849
11503.4
-2003.97
-2048.22
-346.626
-392.857
-15.9244
-194.704
-619.197
-1671.98
-1392.23
1543.57
3065.06
8416.45
3951.67
65.6973
-612.511
135.887
-1057.68
191.991
-1010.27
240.929
-983.317
285.888
-984.386
330.183
-982.045
394.684
-993.552
510.674
-990.237
612.504
-985.656
669.348
-984.65
684.427
-987.625
672.533
-993.677
644.084
-1001.55
603.859
-1010.48
552.957
-1019.38
489.018
-1032.04
410.844
-1061.71
333.729
-1122.75
248.556
-1055.68
-632.322
20.629
-633.236
26.3853
-1063.56
39.2826
-1023.22
54.2134
-998.374
68.3003
-998.514
84.0147
-997.878
88.4144
-997.981
98.4065
-1000.33
114.74
-1002.01
133.234
-1003.22
150.226
-1004.63
162.666
-1006.17
169.167
-1008.05
169.156
-1010.5
162.083
-1012.32
143.604
-1013.58
104.715
-1022.83
58.2298
-1076.28
61.8923
-1059.36
-570.43
5.10176
-638.407
6.02001
-1064.55
7.96332
-1025.21
10.1297
-1000.62
13.2369
-1001.67
16.9647
-1001.68
20.9135
-1001.97
21.9959
-1001.48
22.0235
-1002.07
21.1135
-1002.37
19.5385
-1003.08
17.1418
-1003.82
13.7314
-1004.67
9.13331
-1005.94
3.73596
-1006.94
-2.15974
-1007.7
-15.6248
-1009.38
-43.9516
-1047.96
-37.4081
-1065.92
-607.838
14.7944
-653.166
13.1053
-1062.83
10.3556
-1022.43
8.27956
-998.514
6.01568
-999.366
3.91715
-999.553
2.3144
-1000.33
1.2805
-1000.42
0.132263
-1000.88
-1.13092
-1001.08
-2.70141
-1001.48
-4.66189
-1001.83
-7.12335
-1002.18
-10.3047
-1002.73
-14.2335
-1002.99
-18.319
-1003.6
-23.5767
-1004.11
-40.0491
-1031.48
-39.6067
-1066.35
-647.445
16.838
-670.031
15.3337
-1061.35
11.2822
-1018.4
9.08898
-996.342
6.96488
-997.265
4.82271
-997.431
2.49845
-998.029
0.131157
-998.068
-2.21509
-998.559
-4.55892
-998.75
-6.90345
-999.153
-9.27698
-999.474
-11.6723
-999.803
-14.123
-1000.29
-16.6676
-1000.46
-19.4448
-1000.83
-22.7154
-1000.86
-30.7713
-1023.44
-31.2021
-1065.93
-678.646
19.4123
-689.41
17.8978
-1059.81
13.4887
-1013.96
11.3377
-994.16
9.28506
-995.183
7.23203
-995.346
5.17857
-995.947
3.14212
-996
1.06665
-996.456
-1.01658
-996.637
-3.12996
-997.016
-5.27566
-997.301
-7.44841
-997.609
-9.68491
-998.034
-11.8985
-998.23
-14.073
-998.643
-16.6211
-998.297
-22.9689
-1017.08
-24.9933
-1063.9
-703.64
20.2771
-709.669
18.2157
-1057.73
13.6874
-1009.42
11.5857
-992.039
9.5686
-993.15
7.53095
-993.288
5.45475
-993.855
3.40651
-993.932
1.34407
-994.379
-0.704183
-994.57
-2.75459
-994.953
-4.80569
-995.233
-6.84271
-995.562
-8.90154
-995.96
-10.9353
-996.187
-12.9636
-996.604
-14.9867
-996.269
-19.7309
-1012.33
-22.2337
-1061.39
-725.873
20.6083
-730.234
18.0435
-1055.13
13.7726
-1005.11
11.8661
-990.092
9.99588
-991.241
8.10241
-991.354
6.17483
-991.889
4.25902
-991.976
2.31999
-992.403
0.381219
-992.593
-1.56826
-992.969
-3.53136
-993.236
-5.48792
-993.574
-7.47806
-993.941
-9.43259
-994.204
-11.4014
-994.612
-13.3937
-994.258
-17.8141
-1007.9
-20.9762
-1058.21
-746.849
20.6373
-750.854
17.4414
-1051.92
13.3624
-1001.02
11.5541
-988.266
9.74762
-989.419
7.92331
-989.511
6.06408
-990.014
4.22135
-990.115
2.35483
-990.521
0.493906
-990.714
-1.37939
-991.082
-3.26055
-991.338
-5.13751
-991.686
-7.04284
-992.022
-8.91985
-992.316
-10.8161
-992.705
-12.6683
-992.399
-16.6996
-1003.86
-20.4386
-1054.47
-767.288
20.5519
-771.386
16.7394
-1048.08
12.9291
-997.188
11.2339
-986.551
9.50369
-987.67
7.75915
-987.746
5.98102
-988.216
4.21516
-988.329
2.42542
-988.713
0.638019
-988.908
-1.16272
-989.264
-2.97399
-989.509
-4.78213
-989.862
-6.62141
-990.167
-8.43203
-990.492
-10.2731
-990.851
-12.0465
-990.616
-15.8194
-1000.08
-20.1511
-1050.13
-787.439
20.4281
-791.796
15.9862
-1043.63
12.433
-993.619
10.8262
-984.927
9.1586
-985.986
7.48213
-986.053
5.77365
-986.491
4.07741
-986.616
2.35734
-986.976
0.640656
-987.176
-1.09081
-987.518
-2.83072
-987.755
-4.56992
-988.109
-6.33825
-988.386
-8.08042
-988.737
-9.85882
-989.062
-11.5457
-988.921
-15.0525
-996.567
-19.9752
-1045.2
-807.414
20.2892
-812.074
15.2221
-1038.55
11.9372
-990.323
10.4121
-983.392
8.80614
-984.37
7.19558
-984.432
5.55467
-984.839
3.92494
-984.976
2.27192
-985.312
0.622651
-985.516
-1.04218
-985.843
-2.7136
-986.074
-4.38642
-986.426
-6.08561
-986.678
-7.76069
-987.052
-9.47577
-987.339
-11.0828
-987.307
-14.3293
-993.315
-19.8418
-1039.68
-827.255
20.1536
-832.213
14.4646
-1032.85
11.4519
-987.296
10.0033
-981.929
8.46067
-982.812
6.91758
-982.874
5.34497
-983.252
3.78314
-983.4
2.19767
-983.712
0.616681
-983.922
-0.981845
-984.23
-2.58412
-984.459
-4.19184
-984.806
-5.82163
-985.037
-7.43138
-985.431
-9.08368
-985.677
-10.6183
-985.764
-13.6062
-990.319
-19.7107
-1033.56
-846.966
20.0259
-852.23
13.7127
-1026.53
10.9742
-984.549
9.59608
-980.542
8.1171
-981.325
6.64083
-981.39
5.13532
-981.737
3.64023
-981.897
2.1214
-982.184
0.607292
-982.4
-0.925536
-982.689
-2.45928
-982.918
-4.00326
-983.253
-5.56285
-983.471
-7.10889
-983.877
-8.69602
-984.084
-10.1625
-984.291
-12.8906
-987.586
-19.5834
-1026.87
-866.549
19.9149
-872.137
12.9701
-1019.57
10.5072
-982.078
9.19613
-979.223
7.78296
-979.903
6.37567
-979.975
4.93801
-980.291
3.51058
-980.462
2.05971
-980.725
0.612442
-980.946
-0.8537
-981.215
-2.31855
-981.447
-3.79902
-981.765
-5.28672
-981.977
-6.7706
-982.385
-8.29076
-982.558
-9.69474
-982.882
-12.1664
-985.11
-19.4429
-1019.58
-885.992
19.8456
-891.978
12.2562
-1011.98
10.0754
-979.893
8.83332
-977.978
7.48958
-978.555
6.15471
-978.636
4.78441
-978.916
3.42225
-979.096
2.03646
-979.334
0.650185
-979.556
-0.75438
-979.805
-2.15757
-980.04
-3.58138
-980.337
-5.00155
-980.553
-6.43174
-980.951
-7.88373
-981.103
-9.23131
-981.531
-11.4498
-982.888
-19.2883
-1011.74
-905.28
19.8671
-911.841
11.6138
-1003.72
9.74483
-978.02
8.60092
-976.83
7.34921
-977.299
6.11054
-977.394
4.82663
-977.628
3.54313
-977.809
2.233
-978.02
0.912335
-978.232
-0.430036
-978.459
-1.7787
-978.688
-3.15634
-978.956
-4.52668
-979.18
-5.9309
-979.543
-7.33485
-979.697
-8.66915
-980.194
-10.6745
-980.88
-19.0411
-1003.37
-924.322
20.0766
-931.916
11.1026
-994.747
9.5907
-976.506
8.60542
-975.843
7.48379
-976.175
6.37178
-976.28
5.20312
-976.457
4.01753
-976.622
2.79977
-976.8
1.55805
-976.988
0.289485
-977.189
-0.997297
-977.399
-2.31845
-977.632
-3.63989
-977.857
-5.02075
-978.16
-6.37999
-978.336
-7.75968
-978.813
-9.59974
-979.039
-18.4228
-994.548
-942.744
20.7991
-952.713
11.0702
-985.016
9.96555
-975.399
9.25241
-975.128
8.35821
-975.279
7.43287
-975.353
6.42483
-975.447
5.35331
-975.549
4.21438
-975.659
3.01006
-975.782
1.74289
-975.919
0.418091
-976.073
-0.966074
-976.246
-2.38391
-976.438
-3.87306
-976.669
-5.32707
-976.88
-6.87785
-977.261
-8.53084
-977.385
-17.5648
-985.513
-960.309
22.2881
12.2727
11.8747
11.7478
11.4697
11.1176
10.6716
10.1241
9.46619
8.68473
7.76647
6.69434
5.44922
4.01238
2.34411
0.464659
-1.79504
-4.17874
-14.6909
-674.847
1649.85
-1092.64
1392.8
-1519.48
1401.84
-1860.18
1315.7
-2160.78
1275.6
-2409.69
1223.91
-2615.09
1180.4
-2776.61
1136.52
-2896.23
1094.63
-2974.5
1053.27
-3011.61
1012.11
-3006.41
969.799
-2956.32
924.922
-2857.17
875.852
-2701.71
819.544
-2476.19
749.481
-2149.91
648.723
-1657.18
482.274
-925.844
243.67
49.1558
-184.87
1834.73
-415.265
1623.2
-659.85
1646.43
-859.323
1515.18
-1048.53
1464.81
-1202.66
1378.05
-1332.19
1309.94
-1432.27
1236.6
-1506.12
1168.48
-1553.68
1100.83
-1575.43
1033.88
-1569.82
964.188
-1534.11
889.22
-1465.17
806.911
-1359.53
713.917
-1207.32
597.279
-987.185
428.59
-677.109
172.208
-317.775
-115.647
-268.619
-126.902
1961.63
-288.561
1784.86
-409.388
1767.26
-495.024
1600.81
-569.973
1539.77
-617.238
1425.32
-652.333
1345.04
-670.585
1254.85
-675.982
1173.89
-663.507
1088.35
-625.338
995.714
-552.363
891.216
-444.319
781.186
-309.826
672.424
-155.114
559.22
15.3177
426.863
184.142
259.786
349.714
6.65623
347.443
-113.357
78.8245
-48.2667
2009.91
-118.416
1855.01
-172.919
1821.77
-225.55
1653.45
-279.363
1593.59
-327.382
1473.34
-379.817
1397.48
-431.956
1307
-486.354
1228.29
-533.569
1135.57
-557.714
1019.87
-537.364
870.87
-465.628
709.459
-355.487
562.289
-217.821
421.562
-50.3062
259.36
121.382
88.158
66.7628
61.3386
111.294
-157.865
190.118
-39.0212
2048.93
-116.061
1932.05
-176.074
1881.79
-239.793
1717.17
-307.728
1661.53
-373.53
1539.15
-447.005
1470.97
-521.165
1381.16
-601.754
1308.89
-683.9
1217.72
-764.591
1100.57
-831.085
937.37
-868.552
746.933
-869.669
563.414
-841.044
392.945
-790.02
208.345
-742.417
40.5624
-554.857
-126.216
-433.753
-278.962
-243.634
52.7548
1996.18
-29.7471
2014.56
-56.4845
1908.54
-77.2089
1737.9
-93.8971
1678.23
-105.582
1550.84
-112.34
1477.74
-111.421
1380.26
-104.261
1301.74
-95.0695
1208.55
-95.0079
1100.52
-116.297
958.678
-156.909
787.567
-197.965
604.493
-227.465
422.475
-248.603
229.527
-245.866
37.8693
-270.285
-101.769
-253.894
-295.335
-497.528
171.599
1824.59
130.599
2055.57
152.27
1886.87
191.885
1698.3
245.819
1624.3
299.863
1496.81
366.548
1411.06
439.731
1307.08
524.704
1216.78
612.986
1120.28
693.958
1019.55
746.183
906.464
753.77
779.988
715.784
642.489
638.738
499.531
517.435
350.842
356.071
199.247
232.117
22.201
98.0662
-161.269
-399.461
195.94
1628.66
202.132
2049.39
233.654
1855.36
285.869
1646.1
354.667
1555.51
418.843
1432.65
490.631
1339.28
563.597
1234.13
642.812
1137.57
722.957
1040.14
798.785
943.73
858.873
846.388
891.302
747.562
887.242
646.56
843.168
543.61
756.792
437.227
627.887
328.155
446.078
204.014
224.429
60.3857
-175.033
144.245
1484.44
183.227
2010.43
219.75
1818.86
269.68
1596.19
332.623
1492.59
391.996
1373.3
454.047
1277.25
514.406
1173.8
574.24
1077.75
630.039
984.369
679.385
894.403
718.749
807.045
744.756
721.571
753.446
637.888
739.803
557.271
694.08
482.965
602.904
419.344
448.635
358.297
231.989
277.059
56.9566
58.4039
1426.04
109.275
1959.57
161.837
1766.3
216.714
1541.33
277.12
1432.18
339.943
1310.49
404.863
1212.33
473.139
1105.53
544.569
1006.33
620.986
907.96
701.897
813.495
785.672
723.276
867.415
639.831
935.953
569.354
970.854
522.374
943.624
510.199
829.647
533.323
615.572
572.376
324.918
567.718
381.874
-42.3515
1468.41
15.7576
1901.47
76.5156
1705.56
106.239
1511.62
126.184
1412.25
137.377
1299.32
148.768
1200.96
172.228
1082.1
218.403
960.17
294.928
831.461
403.718
704.718
543.188
583.828
702.198
480.828
856.422
415.141
965.733
413.065
981.387
494.547
866.346
648.365
621.964
816.756
304.318
885.362
686.192
-185.27
1653.66
-237.374
1953.56
-278.842
1747.01
-377.438
1610.21
-502.797
1537.6
-649.778
1446.29
-798.573
1349.74
-933.685
1217.21
-1041.63
1068.1
-1118.91
908.731
-1164.29
750.077
-1173.85
593.387
-1141.99
448.95
-1061.16
334.301
-922.928
274.807
-720.304
291.91
-464.165
392.2
-206.531
559.096
-41.2722
720.071
644.919
-38.4433
1692.12
-193.641
2108.79
-355.597
1908.98
-507.376
1762.01
-666.038
1696.27
-838.49
1618.77
-1019.49
1530.74
-1204.03
1401.76
-1388.32
1252.4
-1570.89
1091.31
-1751.28
930.463
-1923.68
765.796
-2072.45
597.727
-2167.39
429.24
-2161.85
269.27
-2001.75
131.808
-1657.9
48.3515
-1129.42
30.6071
-481.832
72.4772
163.086
345.781
1346.32
354.032
2100.53
182.587
2080.4
41.5546
1903.03
-47.8231
1785.62
-117.386
1688.32
-184.202
1597.52
-262.742
1480.29
-355.198
1344.82
-458.517
1194.62
-568.132
1040.04
-682.46
880.111
-799.72
714.941
-914.247
543.745
-1013.51
368.479
-1075.49
193.76
-1067.84
40.6569
-921.748
-115.523
-566.954
-282.369
-403.869
549.317
796.999
777.564
1872.28
721.033
2136.93
641.333
1982.74
629.125
1797.82
660.171
1657.28
708.937
1548.75
750.19
1439.05
773.699
1321.3
775.129
1193.19
756.108
1059.04
715.333
920.888
649.838
780.421
555.961
637.617
431.517
492.902
282.765
342.492
138.572
184.808
33.1631
-10.168
-52.56
-196.688
-456.429
306.484
490.473
425.918
1752.83
439.737
2123.09
452.039
1970.41
494.322
1755.51
559.672
1591.91
636.431
1471.96
711.212
1364.24
775.565
1256.92
823.831
1144.91
853.78
1029.06
863.549
911.095
850.944
792.992
812.987
675.551
746.464
559.389
648.118
440.814
515.033
317.847
334.014
170.787
157.392
-20.1334
-299.037
-95.5012
585.988
-157.464
1814.8
-118.166
2083.79
-45.8131
1898.08
25.4002
1684.3
95.2344
1522.09
165.756
1401.44
233.939
1296.07
295.617
1195.23
347.254
1093.28
386.325
989.987
410.402
887.023
416.848
786.541
404.473
687.927
373.644
590.214
324.425
490.03
253.551
388.722
154.783
269.556
40.437
94.211
-258.6
-283.057
869.035
-375.271
1907.02
-297.216
2005.73
-196.261
1797.12
-112.879
1600.89
-47.4063
1456.61
7.05936
1346.95
55.5706
1247.55
95.3147
1155.46
121.927
1066.65
132.354
979.532
129.841
889.518
121.279
795.077
110.409
698.773
96.8482
603.748
72.2341
514.619
19.577
441.359
-83.1758
372.28
-152.106
163.109
-410.708
-555.235
1424.26
-804.263
2156.05
-871.335
2072.79
-920.496
1846.28
-975.416
1655.8
-1018.28
1499.47
-1026.32
1354.96
-1007.04
1228.27
-955.004
1103.4
-869.677
981.311
-759.419
869.248
-641.503
771.575
-534.451
687.99
-457.599
621.881
-425.483
571.583
-448.805
537.899
-517.029
509.542
-530.054
385.252
-269.168
-97.8409
-679.879
-1030.75
-1470.17
-1755.26
-2012.1
-2231.71
-2397.01
-2489.1
-2533.82
-2498.16
-2389.82
-2214.62
-1995.89
-1765.31
-1552.45
-1375.32
-1235.58
-1109.61
-887.593
-353.429
)
;

boundaryField
{
    outletWall
    {
        type            calculated;
        value           nonuniform List<scalar> 
60
(
207479
-475650
180303
79899.1
93851.1
194694
157792
42066.2
4734.94
29136.4
36304.1
32065.8
14157.7
-26583.6
-37629.6
-87628.2
-27079.9
-161270
-156501
449046
88149.9
-68578.5
709.445
-23883.9
-8928.1
-11329.4
-5594.95
-3433.07
1480.48
6233.72
7476.13
2134.02
-2947.23
-5416.39
-11541.1
-9232.58
-21669
-1671.31
-60948.2
71847.4
85960.9
-70531.9
-46734
-42650.9
-38894
-34241.4
-37034.6
-37277.6
-36980.7
-36974.1
-36082.9
-36667
-36722
-38365.4
-46547.2
-86405.8
-19564
-189381
-218874
550937
)
;
    }
    fineWalls
    {
        type            calculated;
        value           uniform 0;
    }
    fineFrontAndBack
    {
        type            calculated;
        value           nonuniform List<scalar> 
960
(
-4.93151e-10
4.84619e-10
-7.67196e-12
1.36288e-11
6.02883e-11
3.01015e-12
4.40467e-12
8.03551e-12
6.71822e-11
-5.78746e-12
-1.62583e-11
-1.12991e-10
-1.51216e-11
-3.29635e-11
-1.75523e-10
6.79092e-12
8.86834e-12
6.91516e-11
3.10788e-12
-1.24599e-12
-2.82329e-13
7.78824e-13
8.148e-13
8.56559e-13
9.05148e-13
1.09748e-12
6.6828e-11
3.26492e-12
2.62144e-12
1.75749e-12
1.08583e-12
7.08823e-13
5.13191e-13
3.99605e-13
2.95698e-13
1.73591e-13
4.83284e-14
-6.86744e-14
-1.59387e-13
8.22027e-15
1.64374e-12
1.38698e-12
5.86925e-12
5.27822e-12
1.45195e-11
-4.56484e-12
-3.29919e-12
2.74659e-12
-7.78255e-11
2.15883e-11
8.32994e-11
5.89381e-10
8.6425e-11
7.70962e-11
6.46524e-11
3.75125e-10
4.97165e-11
4.8948e-11
5.57103e-11
2.4368e-10
6.40091e-12
7.94523e-12
1.17841e-11
1.27574e-11
1.18645e-11
9.84364e-12
7.28495e-12
4.89652e-12
2.9355e-12
1.32126e-12
3.12974e-13
-4.60993e-13
-7.86205e-13
3.11856e-11
-2.37071e-12
-2.52413e-12
-2.23504e-12
-1.57424e-12
-2.37929e-12
-8.86065e-13
-1.34797e-12
-3.29854e-12
-1.31007e-11
-1.66347e-11
-2.01289e-11
-3.25523e-10
-1.22194e-10
-1.57194e-10
-1.32257e-09
-2.75683e-10
-2.24375e-10
-1.22185e-09
-2.00699e-10
-1.37883e-10
-8.45308e-11
-9.55155e-10
-3.47652e-10
-4.24559e-10
1.36538e-09
2.83641e-09
-1.21495e-08
-8.97077e-10
5.2196e-10
-1.30942e-10
2.30077e-12
5.99726e-11
3.58535e-10
6.07382e-10
3.65772e-10
3.19741e-10
3.58588e-10
3.48574e-10
6.63063e-10
2.5215e-09
3.2493e-09
-1.07518e-09
-9.36875e-10
-8.53932e-10
-6.25708e-10
3.74505e-09
8.61657e-11
6.79064e-10
-1.80386e-10
1.22903e-10
2.56999e-10
4.87491e-10
1.21956e-10
6.81704e-11
-3.58398e-11
-9.8409e-11
-1.23418e-10
3.70943e-11
2.15505e-10
-2.36255e-10
-1.01029e-10
-7.28832e-11
-2.36511e-10
-7.99226e-10
3.86394e-11
3.80284e-10
7.27797e-10
2.97564e-10
2.29725e-10
3.53549e-10
4.48e-10
3.23534e-10
2.21183e-10
1.1543e-10
4.61922e-11
1.86017e-11
-3.31122e-12
-2.85089e-11
-1.32328e-11
1.04079e-10
7.75162e-11
2.2952e-10
5.4464e-10
8.44705e-10
8.66465e-10
7.34072e-10
4.04719e-10
2.9512e-10
3.77458e-10
3.47493e-10
2.87021e-10
2.20887e-10
1.21533e-10
2.83101e-11
-5.09447e-12
-2.7634e-11
-2.30212e-11
-4.57419e-11
2.43236e-11
1.11083e-10
2.77773e-10
2.90448e-10
6.73251e-10
8.60604e-10
7.27941e-10
4.01826e-10
3.16637e-10
3.78659e-10
3.19589e-10
2.58215e-10
2.19308e-10
1.47641e-10
4.53397e-11
1.63084e-11
3.63245e-12
2.81854e-12
-3.91035e-11
-9.42114e-12
1.70006e-10
2.76132e-10
2.56499e-10
7.32196e-10
8.41468e-10
7.0381e-10
3.71956e-10
3.26764e-10
3.81207e-10
2.77524e-10
1.97206e-10
1.71283e-10
1.29626e-10
3.89957e-11
3.71175e-11
5.45075e-11
3.85279e-11
-6.00286e-12
6.62455e-11
2.31109e-10
3.04344e-10
2.36202e-10
7.35982e-10
8.0257e-10
6.60478e-10
3.35102e-10
3.21025e-10
3.55403e-10
2.19058e-10
1.20866e-10
9.12058e-11
7.29689e-11
1.96871e-11
6.79574e-11
1.28574e-10
9.24166e-11
4.88659e-11
1.65666e-10
2.52013e-10
3.49869e-10
2.42571e-10
7.41799e-10
7.41694e-10
6.0191e-10
2.93535e-10
3.16665e-10
2.81026e-10
1.52508e-10
3.7444e-11
2.15467e-12
5.4319e-12
5.17514e-12
1.08325e-10
1.83621e-10
1.33693e-10
1.06942e-10
2.2894e-10
2.66472e-10
3.91161e-10
2.50962e-10
7.4745e-10
6.63567e-10
5.47199e-10
3.03979e-10
2.8302e-10
2.3504e-10
9.10422e-11
-2.21011e-11
-2.56157e-11
-4.01314e-12
1.25132e-11
1.52605e-10
1.73276e-10
1.42987e-10
1.11314e-10
2.44155e-10
2.86337e-10
4.07745e-10
2.71268e-10
7.32349e-10
6.08464e-10
5.15005e-10
3.7541e-10
2.92736e-10
1.55099e-10
1.31765e-11
-2.46281e-11
2.55105e-12
3.44438e-12
1.39592e-11
1.25844e-10
9.64766e-11
1.06999e-10
2.91182e-10
2.66091e-10
2.90365e-10
4.03157e-10
3.00289e-10
5.84249e-10
2.36008e-10
2.20127e-11
-2.10966e-12
-1.4195e-11
-3.24012e-11
-7.15849e-11
-1.33282e-11
4.87353e-12
-8.66038e-13
1.0811e-11
2.93186e-12
2.32616e-11
8.18365e-11
2.91624e-10
2.7328e-10
3.08053e-10
4.01029e-10
3.07845e-10
4.10466e-10
-3.64442e-11
-2.24019e-11
-2.18719e-11
-2.05226e-11
-2.58202e-11
-2.56499e-11
-2.4312e-12
-8.7731e-13
-1.48084e-12
7.88974e-12
2.74691e-11
2.12637e-11
6.86025e-11
2.30298e-10
2.75311e-10
3.35682e-10
3.93867e-10
2.9023e-10
2.80318e-10
-9.6948e-11
-1.41808e-12
-4.56638e-12
6.3082e-12
1.44178e-12
-1.82428e-12
-2.84038e-13
-8.30649e-13
-1.11308e-12
6.90657e-12
2.11644e-11
1.53828e-11
6.15187e-11
2.11709e-10
2.79699e-10
3.58928e-10
3.65941e-10
2.57081e-10
2.01755e-10
-9.22574e-11
-1.29676e-11
-1.00467e-11
2.16136e-12
3.52976e-13
2.97603e-13
5.17997e-13
-1.28078e-13
-1.44692e-12
5.80344e-12
2.68269e-11
2.98528e-11
6.77033e-11
2.1992e-10
2.91239e-10
3.57178e-10
3.12691e-10
2.21256e-10
1.42069e-10
-7.5453e-11
-1.56252e-11
-1.19178e-11
2.37595e-12
1.29777e-14
-1.52133e-13
-1.32315e-13
-1.74653e-13
-1.37681e-12
3.4764e-12
2.71719e-11
4.39785e-11
8.865e-11
2.31112e-10
3.055e-10
3.22687e-10
2.46596e-10
1.79859e-10
1.19598e-10
-5.79246e-11
-1.92326e-11
-1.94253e-11
1.88411e-12
-9.96246e-14
-1.26857e-14
1.11695e-14
-7.29657e-14
-9.16019e-13
1.512e-13
1.76852e-11
4.5361e-11
9.41341e-11
2.1936e-10
2.86418e-10
2.58664e-10
1.85052e-10
1.44453e-10
8.10345e-11
-6.27866e-11
-2.13661e-11
-2.43233e-11
-2.3818e-12
-1.10581e-13
5.07354e-14
2.66638e-14
2.77405e-14
-2.59999e-13
-1.63221e-12
3.88128e-12
3.12181e-11
7.81508e-11
1.64794e-10
1.9716e-10
1.80902e-10
1.30622e-10
1.24995e-10
9.56198e-11
5.05801e-11
-2.42137e-11
-2.52912e-11
-5.44895e-13
-3.35023e-13
2.34795e-14
-3.95664e-15
1.89683e-14
5.31038e-14
-8.60677e-13
-2.39337e-12
1.36645e-11
5.23193e-11
8.43572e-11
1.01685e-10
1.10243e-10
6.4309e-11
1.83646e-10
-3.71656e-11
1.32049e-11
-2.65753e-11
-9.10132e-14
-5.10493e-13
-3.90131e-13
7.6456e-15
-2.08628e-15
-1.92088e-15
2.08302e-14
6.56414e-14
-1.0348e-12
6.07905e-13
1.49078e-11
2.74087e-11
3.10447e-11
4.13948e-11
-1.17359e-12
3.36049e-10
4.68317e-10
1.34309e-11
-2.08921e-11
5.82482e-12
-7.84118e-13
-2.8001e-13
1.25045e-15
7.89763e-16
-6.25599e-16
-6.01453e-15
3.3194e-14
2.39241e-13
-1.55163e-12
-4.63929e-12
-4.15063e-12
-6.85846e-12
-4.28322e-12
-9.55354e-12
3.20662e-10
4.93151e-10
-4.84619e-10
7.67196e-12
-1.36288e-11
-6.02883e-11
-3.01015e-12
-4.40467e-12
-8.03551e-12
-6.71822e-11
5.78746e-12
1.62583e-11
1.12991e-10
1.51216e-11
3.29635e-11
1.75523e-10
-6.79092e-12
-8.86834e-12
-6.91516e-11
-3.10788e-12
1.24599e-12
2.82329e-13
-7.78824e-13
-8.148e-13
-8.56559e-13
-9.05148e-13
-1.09748e-12
-6.6828e-11
-3.26492e-12
-2.62144e-12
-1.75749e-12
-1.08583e-12
-7.08823e-13
-5.13191e-13
-3.99605e-13
-2.95698e-13
-1.73591e-13
-4.83284e-14
6.86744e-14
1.59387e-13
-8.22027e-15
-1.64374e-12
-1.38698e-12
-5.86925e-12
-5.27822e-12
-1.45195e-11
4.56484e-12
3.29919e-12
-2.74659e-12
7.78255e-11
-2.15883e-11
-8.32994e-11
-5.89381e-10
-8.6425e-11
-7.70962e-11
-6.46524e-11
-3.75125e-10
-4.97165e-11
-4.8948e-11
-5.57103e-11
-2.4368e-10
-6.40091e-12
-7.94523e-12
-1.17841e-11
-1.27574e-11
-1.18645e-11
-9.84364e-12
-7.28495e-12
-4.89652e-12
-2.9355e-12
-1.32126e-12
-3.12974e-13
4.60993e-13
7.86205e-13
-3.11856e-11
2.37071e-12
2.52413e-12
2.23504e-12
1.57424e-12
2.37929e-12
8.86065e-13
1.34797e-12
3.29854e-12
1.31007e-11
1.66347e-11
2.01289e-11
3.25523e-10
1.22194e-10
1.57194e-10
1.32257e-09
2.75683e-10
2.24375e-10
1.22185e-09
2.00699e-10
1.37883e-10
8.45308e-11
9.55155e-10
3.47652e-10
4.24559e-10
-1.36538e-09
-2.83641e-09
1.21495e-08
8.97077e-10
-5.2196e-10
1.30942e-10
-2.30077e-12
-5.99726e-11
-3.58535e-10
-6.07382e-10
-3.65772e-10
-3.19741e-10
-3.58588e-10
-3.48574e-10
-6.63063e-10
-2.5215e-09
-3.2493e-09
1.07518e-09
9.36875e-10
8.53932e-10
6.25708e-10
-3.74505e-09
-8.61657e-11
-6.79064e-10
1.80386e-10
-1.22903e-10
-2.56999e-10
-4.87491e-10
-1.21956e-10
-6.81704e-11
3.58398e-11
9.8409e-11
1.23418e-10
-3.70943e-11
-2.15505e-10
2.36255e-10
1.01029e-10
7.28832e-11
2.36511e-10
7.99226e-10
-3.86394e-11
-3.80284e-10
-7.27797e-10
-2.97564e-10
-2.29725e-10
-3.53549e-10
-4.48e-10
-3.23534e-10
-2.21183e-10
-1.1543e-10
-4.61922e-11
-1.86017e-11
3.31122e-12
2.85089e-11
1.32328e-11
-1.04079e-10
-7.75162e-11
-2.2952e-10
-5.4464e-10
-8.44705e-10
-8.66465e-10
-7.34072e-10
-4.04719e-10
-2.9512e-10
-3.77458e-10
-3.47493e-10
-2.87021e-10
-2.20887e-10
-1.21533e-10
-2.83101e-11
5.09447e-12
2.7634e-11
2.30212e-11
4.57419e-11
-2.43236e-11
-1.11083e-10
-2.77773e-10
-2.90448e-10
-6.73251e-10
-8.60604e-10
-7.27941e-10
-4.01826e-10
-3.16637e-10
-3.78659e-10
-3.19589e-10
-2.58215e-10
-2.19308e-10
-1.47641e-10
-4.53397e-11
-1.63084e-11
-3.63245e-12
-2.81854e-12
3.91035e-11
9.42114e-12
-1.70006e-10
-2.76132e-10
-2.56499e-10
-7.32196e-10
-8.41468e-10
-7.0381e-10
-3.71956e-10
-3.26764e-10
-3.81207e-10
-2.77524e-10
-1.97206e-10
-1.71283e-10
-1.29626e-10
-3.89957e-11
-3.71175e-11
-5.45075e-11
-3.85279e-11
6.00286e-12
-6.62455e-11
-2.31109e-10
-3.04344e-10