/*--------------------------------*- C++ -*----------------------------------*\
| =========                 |                                                 |
| \\      /  F ield         | OpenFOAM: The Open Source CFD Toolbox           |
|  \\    /   O peration     | Version:  4.1                                   |
|   \\  /    A nd           | Web:      www.OpenFOAM.org                      |
|    \\/     M anipulation  |                                                 |
\*---------------------------------------------------------------------------*/
FoamFile
{
    version     2.0;
    format      ascii;
    class       volVectorField;
    location    "22";
    object      U;
}
// * * * * * * * * * * * * * * * * * * * * * * * * * * * * * * * * * * * * * //

dimensions      [0 1 -1 0 0 0 0];

internalField   nonuniform List<vector> 
1280
(
(-3.56388e-13 -42.8763 -366.648)
(8.23656e-14 55.7795 56.8353)
(-5.54432e-15 -55.6567 -39.5016)
(9.84916e-15 -31.7328 -28.3008)
(1.02466e-14 -44.6134 -31.5514)
(2.17536e-15 -29.1199 -12.9649)
(3.18314e-15 -30.3418 -20.6878)
(4.70083e-15 -24.345 -24.0025)
(1.63962e-14 -20.5977 -31.298)
(-3.1309e-15 -16.0665 -8.99134)
(-1.06979e-14 -13.7294 -14.4665)
(-2.76164e-14 -7.74823 -19.4779)
(-1.0928e-14 -6.73765 -3.94145)
(-2.38219e-14 -5.44025 -8.06779)
(-3.76856e-14 1.21436 -11.0896)
(4.90762e-15 0.84281 1.19946)
(6.40892e-15 -0.329919 -4.76388)
(1.1753e-14 7.44741 -7.58179)
(2.24598e-15 4.50498 4.38789)
(-9.00443e-16 6.40789 9.40207)
(-1.15827e-15 3.69187 12.2203)
(3.19518e-15 3.97647 14.6526)
(3.34277e-15 3.73196 14.7829)
(3.51409e-15 3.85515 14.3006)
(3.71343e-15 4.12091 13.9614)
(4.50249e-15 3.6034 13.2372)
(1.40876e-14 13.5903 2.54908)
(1.33945e-14 9.56244 4.42107)
(1.07546e-14 9.91979 6.17514)
(7.2102e-15 10.801 9.56316)
(4.45468e-15 11.2135 12.4766)
(2.90799e-15 11.384 14.1598)
(2.1054e-15 11.4767 14.9456)
(1.63941e-15 11.5075 15.2961)
(1.21312e-15 11.5555 15.461)
(7.12168e-16 11.5305 15.5803)
(1.9827e-16 11.6662 15.8519)
(-2.81741e-16 11.4833 16.2652)
(-6.53897e-16 12.0508 16.5675)
(3.37242e-17 11.1772 14.1929)
(2.86116e-16 26.4109 10.4051)
(1.11404e-15 14.9339 5.87421)
(4.71426e-15 13.9949 3.74325)
(1.53612e-15 12.9405 1.4052)
(-7.25547e-15 20.919 -3.46792)
(-3.66654e-15 15.7462 -3.01339)
(-2.64995e-15 18.0704 -2.60207)
(2.2061e-15 16.5199 -1.9073)
(-2.20744e-14 23.7342 -3.35127)
(3.35429e-14 19.1494 -1.16179)
(8.05518e-14 19.007 -0.556746)
(1.0259e-13 27.7442 -0.923274)
(6.94177e-14 20.0332 -0.0901395)
(6.19247e-14 22.6071 0.237128)
(5.19296e-14 20.1748 0.484672)
(6.52959e-14 29.545 0.361143)
(3.64873e-14 20.9775 0.734601)
(3.93157e-14 23.9287 1.40381)
(4.47473e-14 20.4761 1.9273)
(3.01649e-14 33.9641 2.4555)
(2.62601e-14 22.9353 -0.128448)
(3.25958e-14 22.0687 3.95877)
(4.83452e-14 22.6048 6.89631)
(5.2338e-14 22.6059 6.93521)
(4.86748e-14 22.4718 5.72005)
(4.03842e-14 22.5306 3.98894)
(2.9887e-14 22.6483 2.50171)
(2.00883e-14 22.8073 2.06069)
(1.20431e-14 22.7908 3.01516)
(5.42054e-15 22.8445 5.19363)
(1.284e-15 22.278 8.19312)
(-1.89125e-15 22.6439 11.4516)
(-3.22546e-15 20.3853 15.5962)
(6.57405e-15 49.8773 8.66144)
(-9.726e-15 29.588 19.366)
(-1.03554e-14 30.3679 21.4122)
(-9.16937e-15 31.5677 23.4204)
(-6.45841e-15 31.7363 25.059)
(-9.76117e-15 32.5679 27.5771)
(-3.63514e-15 31.4409 28.6132)
(-9.74144e-16 38.9356 21.5404)
(-2.38377e-15 24.3928 20.9627)
(-2.22659e-15 37.3987 6.59416)
(-1.20214e-14 32.9484 0.262515)
(-1.45466e-14 31.9923 0.202406)
(-5.19757e-14 47.6326 -16.4413)
(-8.74692e-14 40.6264 -13.9634)
(-1.12762e-13 40.4901 -9.23398)
(-2.45702e-13 63.1073 -28.9069)
(-1.99229e-13 50.5517 -21.3432)
(-1.55613e-13 52.5718 -13.4743)
(-2.34805e-13 84.8361 -44.2254)
(-1.52673e-13 73.0346 -33.3651)
(-9.96444e-14 94.2397 -10.5389)
(-6.10882e-14 68.3717 -83.6889)
(-1.62338e-13 135.611 812.748)
(-2.51239e-13 -164.847 1573.49)
(-3.05271e-13 -276.913 1905.75)
(2.34294e-13 -535.876 -1458.71)
(2.0498e-12 -1404.17 -13124.1)
(-1.34994e-12 765.326 389)
(-9.96752e-14 -29.5882 -191.038)
(5.79956e-14 -137.246 -48.269)
(-1.45491e-14 -33.506 116.634)
(2.55641e-16 -45.1284 -6.06796)
(6.66363e-15 -20.0122 20.8171)
(3.98373e-14 -6.62006 23.0727)
(6.74869e-14 32.3273 27.7871)
(4.06414e-14 46.4249 4.28497)
(3.55268e-14 51.096 -12.5274)
(3.98431e-14 47.8372 -31.4757)
(3.87305e-14 27.648 -35.5516)
(7.36736e-14 30.3215 -40.0196)
(2.80166e-13 155.015 71.7741)
(3.61033e-13 368.022 120.455)
(-1.19464e-13 178.08 294.254)
(-1.04097e-13 134.995 310.414)
(-9.48814e-14 168.302 365.867)
(-6.95231e-14 3.73981 325.614)
(4.16117e-13 -216.203 -176.716)
(9.57397e-15 -12.4475 230.856)
(7.54516e-14 -127.111 -52.4301)
(-2.00429e-14 20.7948 116.915)
(1.36559e-14 -14.3169 -23.3717)
(2.85554e-14 -21.7264 32.6694)
(5.41656e-14 -16.4589 19.0778)
(1.35507e-14 -1.75563 1.88572)
(7.57449e-15 6.2848 -3.15101)
(-3.9822e-15 4.2665 -6.82117)
(-1.09343e-14 -1.80198 -9.9642)
(-1.37131e-14 -8.3927 -13.0728)
(4.12159e-15 -25.0417 -42.9071)
(2.3945e-14 -27.709 -28.6258)
(-2.62505e-14 -201.404 -105.086)
(-1.12254e-14 -109.797 110.996)
(-8.09813e-15 -67.3001 123.901)
(-2.6279e-14 55.3518 176.831)
(-8.88029e-14 252.796 458.629)
(4.29326e-15 265.634 -25.5102)
(4.22538e-14 91.5471 -15.9969)
(8.08664e-14 -98.1964 -41.5002)
(3.30626e-14 -22.717 12.2281)
(2.5525e-14 2.10135 3.66555)
(3.92833e-14 -22.9771 29.7644)
(4.97778e-14 0.294423 5.98743)
(3.59483e-14 21.1688 -3.28068)
(2.45759e-14 27.281 -10.1862)
(1.28255e-14 28.006 -13.2933)
(5.13247e-15 24.8856 -17.4177)
(2.06685e-15 17.0977 -20.2567)
(-3.67914e-16 9.02458 -33.92)
(-3.16765e-15 28.5505 -21.2242)
(-1.47031e-15 105.343 -10.6738)
(1.15644e-14 -70.5619 30.4434)
(8.61291e-15 8.15995 -35.1385)
(2.55022e-14 -10.8608 -73.23)
(6.05156e-14 -16.8609 -112.046)
(9.38561e-14 36.7248 -38.0538)
(9.62739e-14 -80.8238 110.932)
(8.15636e-14 -97.8715 -26.0621)
(4.49687e-14 -11.4193 20.1037)
(3.27912e-14 -11.7333 10.3888)
(4.19398e-14 -21.6403 23.6203)
(3.86103e-14 -0.563299 -6.53292)
(3.18912e-14 16.8578 -15.6297)
(2.4543e-14 20.8643 -20.8888)
(1.35037e-14 19.0677 -20.1839)
(3.14557e-15 15.0841 -18.5289)
(-5.66052e-16 8.67892 -19.3675)
(-3.07045e-15 -3.42115 -24.7353)
(-2.55791e-15 6.40555 -28.7452)
(-5.08244e-15 -35.0604 7.06822)
(2.70262e-15 -35.5974 -1.58998)
(1.23426e-14 8.59864 -51.7841)
(3.08637e-14 48.6237 -36.3383)
(3.2272e-14 102.224 -24.0104)
(7.48057e-14 123.549 -9.79302)
(9.56226e-14 38.1776 53.2252)
(8.08823e-14 -84.6218 -10.74)
(4.46473e-14 -15.7467 26.2091)
(3.51819e-14 -14.1124 10.321)
(4.20733e-14 -15.2572 17.1504)
(3.55098e-14 9.13889 -11.5068)
(2.86905e-14 24.2382 -24.5791)
(2.43676e-14 25.0469 -31.1682)
(1.64045e-14 21.9525 -28.1282)
(5.03774e-15 19.1983 -21.7116)
(1.81205e-15 13.8231 -20.2995)
(4.03606e-16 6.78808 -22.4039)
(3.13172e-16 8.05347 -27.8617)
(-4.34484e-15 -1.75416 -12.5937)
(-1.04679e-15 -35.5872 -16.4577)
(1.88895e-14 9.33353 -42.7663)
(3.06813e-14 26.1714 -38.2901)
(2.84999e-14 50.6473 -26.9989)
(8.13551e-14 61.7818 8.5021)
(9.34965e-14 -15.0179 66.0105)
(7.82012e-14 -72.5362 4.52022)
(4.13285e-14 -20.1012 23.9232)
(3.63071e-14 -10.8672 7.58359)
(4.23563e-14 -8.79707 8.29889)
(3.0836e-14 15.9978 -20.1441)
(2.19118e-14 27.5862 -33.9345)
(1.90314e-14 24.052 -38.5982)
(1.44028e-14 17.3705 -32.688)
(4.33285e-15 14.6728 -22.0898)
(4.12416e-15 11.1305 -19.1301)
(6.05639e-15 4.73221 -20.9134)
(4.28088e-15 1.34448 -24.3632)
(-6.66985e-16 -5.46203 -15.757)
(7.36061e-15 -29.9526 -18.9432)
(2.56788e-14 9.49523 -36.4728)
(3.3816e-14 32.4084 -26.8202)
(2.62447e-14 62.8999 -20.1108)
(8.17758e-14 66.9065 28.5334)
(8.91744e-14 -10.5816 58.272)
(7.33865e-14 -61.7117 16.2859)
(3.72335e-14 -18.8376 15.743)
(3.56695e-14 -7.9867 1.60105)
(3.94892e-14 -3.92391 -3.61852)
(2.43398e-14 23.5055 -30.8997)
(1.34296e-14 31.6673 -37.2722)
(1.0134e-14 23.9472 -35.1889)
(8.10765e-15 14.4843 -26.4952)
(2.18746e-15 12.7514 -17.074)
(7.55083e-15 11.9761 -16.8124)
(1.4286e-14 7.5937 -19.7344)
(1.02685e-14 2.64033 -23.002)
(5.42954e-15 -8.01841 -13.8348)
(1.84074e-14 -23.6153 -15.0292)
(2.80015e-14 9.77778 -30.7503)
(3.88743e-14 26.8413 -23.683)
(2.69523e-14 48.8815 -12.9301)
(8.24221e-14 37.6513 42.0326)
(8.24105e-14 -9.41324 54.4887)
(6.68789e-14 -49.454 22.811)
(3.2615e-14 -14.9129 1.30874)
(3.5185e-14 -4.29644 -0.220029)
(3.12251e-14 7.80413 -23.306)
(1.69453e-14 28.0048 -39.1337)
(4.16045e-15 30.0949 -27.6044)
(2.39408e-16 19.7574 -15.3836)
(6.03544e-16 10.2586 -7.51595)
(5.75015e-16 11.6848 -8.85445)
(1.20361e-14 12.7922 -13.8384)
(2.04024e-14 7.88063 -18.3201)
(1.48548e-14 0.199423 -20.8828)
(1.18824e-14 -10.2123 -11.4272)
(2.54378e-14 -20.0059 -10.9845)
(2.9608e-14 10.1808 -24.1602)
(4.34623e-14 25.2109 -19.0513)
(2.78846e-14 46.0229 -5.29593)
(8.305e-14 24.4289 55.55)
(7.37297e-14 -10.4146 51.9158)
(6.07999e-14 -34.0267 25.2957)
(3.37755e-14 -11.1789 -21.3914)
(3.14467e-14 0.0783132 -30.036)
(2.61155e-14 12.5945 -43.7942)
(1.01158e-14 24.1833 -39.7115)
(-2.45568e-15 22.3129 -9.13906)
(-2.84619e-15 15.1666 3.31824)
(-4.45904e-16 11.556 2.37319)
(1.39035e-15 15.3824 -5.86951)
(1.69561e-14 15.441 -10.7861)
(1.92528e-14 9.63545 -15.9715)
(1.58874e-14 -0.828166 -18.2919)
(1.23682e-14 -12.3507 -9.51471)
(2.71283e-14 -16.9314 -9.22491)
(3.18153e-14 10.5809 -20.1364)
(4.5305e-14 22.4272 -16.1505)
(3.01409e-14 40.4251 -7.49111)
(8.13721e-14 3.04053 65.0228)
(6.76071e-14 -9.2552 52.1056)
(5.72227e-14 -12.668 24.3092)
(4.17122e-14 -1.33564 -35.5963)
(3.25262e-14 4.87859 -53.5024)
(1.72332e-14 11.1508 -55.6636)
(2.04578e-15 13.8596 -36.4685)
(-2.73646e-15 13.6163 -2.56092)
(2.8345e-16 15.1349 -0.921917)
(3.82708e-16 13.7516 -1.60155)
(1.55102e-15 17.3079 -4.86428)
(1.71393e-14 17.1838 -7.28506)
(1.07196e-14 10.588 -12.4407)
(1.18888e-14 -1.92828 -15.2502)
(3.902e-14 -14.0795 -8.13614)
(2.95656e-14 -14.1285 -9.27314)
(3.22628e-14 10.957 -17.6592)
(4.47952e-14 21.1837 -13.9097)
(3.33654e-14 37.037 -8.8911)
(6.49165e-14 -11.3172 65.4542)
(2.62231e-14 -5.47114 51.1936)
(2.44586e-15 16.4232 20.8804)
(-2.34406e-16 15.0839 -36.5452)
(-1.57722e-15 10.8974 -50.5655)
(-3.60014e-15 7.21796 -46.5744)
(-8.96696e-15 3.63102 -29.6126)
(-1.48091e-15 8.18848 -7.02081)
(5.41503e-16 14.5265 -4.87542)
(-9.62264e-17 13.4373 -2.5468)
(1.20122e-15 17.7903 -3.39478)
(3.25762e-16 18.6207 -3.99064)
(2.58462e-15 12.0433 -7.91963)
(9.09294e-15 -2.2918 -11.8168)
(3.24026e-14 -15.0854 -6.95447)
(3.03645e-14 -11.7179 -9.96745)
(3.42281e-14 11.0574 -16.5187)
(4.45588e-14 20.0986 -12.7723)
(3.4205e-14 34.482 -11.0161)
(4.56074e-14 -33.9215 59.3627)
(-4.04935e-15 -5.49522 47.8906)
(-2.4891e-15 37.0172 17.9056)
(-2.43021e-15 23.5292 -26.1781)
(-2.28029e-15 10.6684 -21.7084)
(-2.86891e-15 2.86231 -13.5058)
(-2.84999e-15 -2.29488 -11.0546)
(-2.70134e-16 5.01473 -4.92642)
(-9.74789e-17 12.9632 -3.47254)
(-1.64538e-16 13.1001 -1.62592)
(8.76638e-16 17.9444 -1.89464)
(3.05213e-15 19.383 -0.939076)
(2.36263e-15 13.1018 -2.44212)
(7.6225e-15 -1.87522 -7.71644)
(2.55886e-14 -15.1639 -5.66131)
(3.05901e-14 -9.33445 -10.7208)
(3.7298e-14 11.0745 -16.4227)
(4.37631e-14 19.4928 -12.4174)
(3.22478e-14 32.7024 -13.0122)
(3.11464e-14 -44.9618 47.6973)
(-1.0772e-14 1.76036 48.5437)
(-1.57564e-16 54.3167 14.4868)
(-5.07375e-16 23.3099 -6.3348)
(7.00911e-16 3.66227 19.1819)
(1.60198e-16 3.39945 15.6683)
(-2.02698e-16 -0.555875 -1.74337)
(-3.15598e-17 5.40429 -1.4758)
(-9.22944e-17 12.5664 -2.07216)
(-1.23676e-16 12.888 -0.726471)
(7.67397e-16 17.5741 -0.33118)
(2.3516e-15 19.3614 2.0927)
(1.7092e-15 13.76 2.43075)
(6.83541e-15 -0.233745 -3.19826)
(2.35232e-14 -14.1895 -4.49402)
(3.10776e-14 -6.7067 -11.5504)
(3.98809e-14 11.1386 -17.0743)
(4.06601e-14 18.8693 -12.7199)
(2.85646e-14 29.3014 -14.4555)
(2.24172e-14 -75.6115 34.7219)
(-1.02508e-14 -12.0257 47.3213)
(-1.44084e-15 66.851 8.41345)
(-1.1163e-15 20.5465 9.19447)
(2.40151e-16 2.66638 17.7323)
(3.92195e-17 10.0743 12.7701)
(3.3067e-17 3.6744 1.41695)
(5.75552e-17 6.03446 0.453491)
(-1.42309e-17 12.1848 -1.07075)
(-1.60769e-16 12.4572 0.225639)
(6.44826e-16 16.76 1.04)
(2.98076e-15 18.8228 4.611)
(3.31698e-15 14.0004 5.72718)
(7.52259e-15 2.24702 1.71622)
(2.44355e-14 -12.0255 -4.00138)
(3.23599e-14 -3.78445 -12.666)
(3.96865e-14 11.3369 -18.1735)
(3.47435e-14 17.7035 -14.432)
(2.4584e-14 25.1767 -12.8875)
(1.57855e-14 -65.1758 17.6146)
(-8.38366e-15 16.24 65.9542)
(-1.73614e-15 78.677 -0.942469)
(-1.3242e-15 18.381 13.2806)
(2.63995e-16 0.782481 14.7133)
(1.44197e-18 12.7142 14.0743)
(-1.69037e-17 5.00418 2.86207)
(-1.47017e-17 6.91557 1.42429)
(-1.94059e-17 12.0759 -0.116687)
(-1.52979e-16 12.1103 0.88397)
(3.86266e-16 15.7457 1.8485)
(3.0191e-15 17.9572 6.17293)
(4.88651e-15 14.0844 7.91254)
(9.85e-15 4.4322 5.60151)
(2.56791e-14 -8.52322 -4.36363)
(3.39444e-14 -0.677134 -14.0036)
(3.58542e-14 11.7158 -19.7434)
(2.73995e-14 16.384 -15.5606)
(1.99843e-14 22.7285 -15.2469)
(1.32887e-14 -136.62 1.62289)
(-6.43606e-15 -44.8054 49.1542)
(-2.13695e-15 93.3378 -14.1789)
(-2.15837e-15 12.291 6.10969)
(2.09345e-16 -0.295183 8.40842)
(-1.10694e-17 16.0315 14.7767)
(-1.40952e-18 8.07332 3.76436)
(1.24106e-18 8.10868 1.99601)
(-8.1073e-18 12.3226 0.546057)
(-1.0178e-16 12.0578 1.19829)
(1.68e-17 14.8192 1.90397)
(1.96502e-15 16.9817 6.513)
(5.04011e-15 14.1156 8.95427)
(1.04593e-14 5.96437 6.84056)
(2.43733e-14 -3.84091 -5.13349)
(3.18243e-14 2.45232 -14.683)
(2.87404e-14 12.2127 -21.6723)
(2.05614e-14 15.4118 -14.6273)
(1.60503e-14 21.7575 -19.0531)
(9.00383e-15 -34.9816 -26.9544)
(-6.97628e-15 55.2074 115.515)
(-2.37401e-15 110.025 -28.7358)
(-2.70259e-15 14.5597 -7.63857)
(-2.64644e-16 -10.5526 3.40453)
(-1.22867e-17 16.3989 13.2933)
(5.63726e-18 9.74116 4.98054)
(2.96265e-18 8.57077 2.06736)
(3.08228e-18 11.9048 0.950919)
(-2.88888e-17 11.5095 1.25616)
(-1.81356e-16 13.4194 1.38854)
(4.31253e-16 15.3724 5.49459)
(3.46868e-15 13.9632 8.84117)
(8.68342e-15 7.83874 6.31634)
(1.83105e-14 2.09594 -5.47884)
(2.19066e-14 5.42958 -13.4806)
(2.01002e-14 12.1326 -23.3812)
(1.45135e-14 14.7303 -9.11661)
(1.38883e-14 21.9598 -26.9191)
(1.06244e-14 -308.91 -2.83189)
(5.62001e-15 -63.209 -9.03817)
(-2.69041e-15 117.615 -42.43)
(-2.81013e-15 31.0433 -5.41627)
(-6.05439e-17 -14.37 25.4288)
(-3.72248e-17 18.3391 9.819)
(2.60884e-18 9.86022 6.73578)
(-4.39627e-19 8.32201 1.6883)
(2.10758e-18 10.7935 1.01584)
(5.90042e-18 10.3947 1.10174)
(-9.56307e-17 11.6043 0.814857)
(-2.6593e-16 12.9175 3.73606)
(1.51828e-15 12.8137 7.83085)
(5.81325e-15 8.93661 6.28387)
(9.37302e-15 6.00264 -4.58733)
(1.12984e-14 7.40458 -9.49777)
(1.22493e-14 10.1085 -22.11)
(7.14544e-15 13.8907 -4.27837)
(2.04052e-14 23.1842 -32.8022)
(-4.12951e-15 259.109 -190.1)
(1.46721e-15 -24.6828 258.123)
(-2.95281e-15 156.222 -50.231)
(-1.01126e-17 -40.8984 119.295)
(-5.67215e-17 -19.993 -2.28477)
(-4.33479e-17 24.4281 5.68816)
(8.49511e-19 15.3668 6.48531)
(-2.31809e-19 13.9226 1.24571)
(-2.13431e-19 14.8833 0.775147)
(2.31447e-18 14.3964 0.731675)
(7.29349e-18 14.9617 0.349694)
(-1.14977e-16 15.0072 1.89409)
(6.7545e-17 15.1465 5.38185)
(1.65643e-15 13.7375 6.04651)
(3.04542e-15 11.4222 -2.68893)
(3.44941e-15 13.6752 -4.0952)
(4.59943e-15 12.7661 -15.4308)
(-1.30399e-16 19.0824 -11.6892)
(3.73387e-14 40.1785 -20.7124)
(5.20352e-14 -905.155 529.212)
(1.49232e-15 85.556 -234.246)
(-2.32135e-15 166.021 -43.9944)
(6.47202e-16 27.2878 163.987)
(-8.71242e-17 50.5118 -25.746)
(-3.11122e-17 26.2021 0.705327)
(1.38939e-19 17.9584 3.61631)
(8.77514e-20 16.7992 0.515377)
(-6.9511e-20 16.7385 0.297961)
(-6.68281e-19 16.2904 0.19456)
(3.68822e-18 16.6675 0.0319724)
(2.65823e-17 16.636 0.25753)
(-1.72403e-16 16.8502 0.969889)
(-5.15477e-16 16.2643 1.92157)
(-4.61181e-16 14.1255 -0.463653)
(-7.62051e-16 17.3669 -1.31068)
(-4.75913e-16 19.0156 -4.0782)
(-1.0615e-15 23.4619 -12.2794)
(3.56291e-14 47.2083 4.5835)
(7.14922e-16 5.68006 8.59982)
(1.86826e-14 9.55781 15.986)
(1.37099e-14 9.22902 15.2118)
(1.35508e-14 9.14488 14.841)
(1.24055e-14 9.17742 14.9376)
(1.27844e-14 9.4871 14.948)
(1.05106e-14 9.45785 15.5707)
(1.06637e-14 9.7686 15.3997)
(9.92895e-15 9.85977 15.2514)
(1.0256e-14 9.99298 15.2201)
(1.02148e-14 10.1109 15.2971)
(1.02233e-14 10.2078 15.4675)
(9.74536e-15 10.2962 15.6938)
(1.02035e-14 10.37 15.9495)
(1.06347e-14 10.4422 16.2228)
(1.0541e-14 10.5355 16.6171)
(1.04599e-14 10.8472 17.3177)
(8.65878e-15 11.0986 18.3006)
(1.17888e-14 10.5638 16.9175)
(1.77346e-14 5.91098 11.9674)
(1.51622e-16 5.58433 9.6301)
(3.83596e-14 9.47785 16.202)
(2.50863e-14 9.03708 15.5384)
(2.56842e-14 8.87928 15.1287)
(2.44224e-14 8.85687 15.1024)
(2.95495e-14 8.86819 15.0749)
(2.08127e-14 8.91285 15.0886)
(2.49846e-14 8.94428 15.189)
(2.07523e-14 9.00559 15.2306)
(2.16444e-14 9.0566 15.2682)
(2.48157e-14 9.10944 15.3017)
(2.14296e-14 9.15745 15.3382)
(2.36576e-14 9.20052 15.3805)
(2.11497e-14 9.22983 15.431)
(2.11851e-14 9.25014 15.4672)
(2.09285e-14 9.23425 15.504)
(2.06732e-14 9.35634 15.7567)
(1.69036e-14 9.74662 16.692)
(2.48108e-14 9.3812 16.0884)
(3.21643e-14 4.66556 8.40464)
(-1.77711e-17 5.65412 9.78254)
(1.94854e-14 9.54958 16.4325)
(1.42816e-14 9.15029 15.8287)
(1.46827e-14 8.97719 15.4552)
(1.41973e-14 8.9601 15.4759)
(2.25263e-14 8.98937 15.4748)
(8.09377e-15 8.97176 15.4696)
(6.65177e-15 8.98326 15.4532)
(7.92761e-15 8.97682 15.4671)
(6.66038e-15 8.98791 15.4754)
(6.47684e-15 8.98962 15.4939)
(6.62149e-15 8.9973 15.5134)
(6.85209e-15 9.0053 15.5367)
(7.22875e-15 9.00975 15.5687)
(6.30378e-15 9.02291 15.5952)
(6.46885e-15 9.0008 15.6057)
(7.71931e-15 9.04175 15.6481)
(8.461e-15 9.36989 16.3721)
(7.92881e-15 9.42417 16.4568)
(1.03686e-14 5.05241 9.11542)
(6.28959e-18 5.7093 9.88184)
(-1.95013e-15 9.50042 16.3324)
(-1.36013e-15 9.09204 15.7265)
(-1.41619e-15 8.906 15.3457)
(-1.30019e-15 8.8814 15.3592)
(2.48685e-14 8.89868 15.3634)
(1.6528e-14 8.88964 15.3794)
(1.8455e-14 8.89866 15.3826)
(1.64339e-14 8.89375 15.3899)
(1.41591e-14 8.89781 15.394)
(1.41052e-14 8.89629 15.4009)
(1.77227e-14 8.89696 15.4078)
(1.42325e-14 8.89772 15.4142)
(1.49229e-14 8.89327 15.4245)
(1.40004e-14 8.89814 15.4316)
(1.40259e-14 8.88435 15.447)
(1.62088e-14 8.90485 15.4577)
(1.66096e-14 9.12159 15.9179)
(1.63143e-14 9.39253 16.3848)
(2.98023e-14 5.46623 9.67587)
(-1.69178e-18 5.87957 10.1834)
(1.97767e-16 9.51182 16.3488)
(1.31186e-16 9.08682 15.7106)
(1.37095e-16 8.90921 15.3552)
(1.35638e-16 8.88869 15.3684)
(-2.57048e-15 8.90331 15.3705)
(-1.65578e-15 8.89042 15.379)
(-1.47566e-15 8.89572 15.3794)
(-1.62439e-15 8.88822 15.3873)
(-1.48909e-15 8.89027 15.3904)
(-1.44854e-15 8.88618 15.3969)
(-1.48044e-15 8.88559 15.4022)
(-1.49548e-15 8.88488 15.4077)
(-1.56435e-15 8.8811 15.4159)
(-1.42413e-15 8.88426 15.4181)
(-1.43791e-15 8.87014 15.4232)
(-1.59907e-15 8.88638 15.4298)
(-1.69112e-15 9.0723 15.8133)
(-1.64828e-15 9.44002 16.4207)
(-2.15215e-15 5.82798 10.246)
(3.25766e-19 6.03889 10.4422)
(-2.62847e-17 9.49292 16.3123)
(-1.90444e-17 9.04535 15.6287)
(-1.89675e-17 8.88325 15.3052)
(-2.08451e-17 8.86593 15.3202)
(2.60106e-16 8.87979 15.3231)
(1.75106e-16 8.86908 15.3328)
(1.58533e-16 8.87445 15.3335)
(1.72733e-16 8.86783 15.3407)
(1.81696e-16 8.86992 15.3435)
(1.73598e-16 8.86615 15.3494)
(1.79245e-16 8.86576 15.3539)
(1.76353e-16 8.86466 15.3586)
(1.76345e-16 8.86131 15.3654)
(1.68159e-16 8.86445 15.3685)
(1.70616e-16 8.85354 15.3749)
(1.71518e-16 8.86191 15.369)
(1.66023e-16 9.01117 15.6802)
(1.71245e-16 9.43193 16.3802)
(2.27841e-16 6.07527 10.6434)
(-3.14216e-20 6.22785 10.7639)
(4.50497e-18 9.48084 16.2921)
(3.534e-18 9.0098 15.5648)
(3.44626e-18 8.86762 15.279)
(3.70273e-18 8.85288 15.2956)
(-3.48099e-17 8.86521 15.2979)
(-2.52395e-17 8.85497 15.3067)
(-2.27221e-17 8.85976 15.3078)
(-2.60466e-17 8.85357 15.3148)
(-2.58159e-17 8.85549 15.3177)
(-2.54972e-17 8.85185 15.3236)
(-2.52214e-17 8.85182 15.3279)
(-2.48696e-17 8.85054 15.3329)
(-2.51737e-17 8.84815 15.3392)
(-2.43148e-17 8.85046 15.3423)
(-2.47544e-17 8.84156 15.3487)
(-2.50385e-17 8.84889 15.3441)
(-2.23667e-17 8.97718 15.611)
(-2.54195e-17 9.42276 16.3519)
(-3.32934e-17 6.28917 11.0044)
(-8.57189e-21 6.41138 11.0732)
(-6.31237e-19 9.45604 16.2532)
(-5.19066e-19 8.96985 15.4937)
(-5.40361e-19 8.84731 15.2447)
(-5.27401e-19 8.83492 15.2621)
(5.65151e-18 8.84618 15.2641)
(4.23796e-18 8.83695 15.2726)
(3.89069e-18 8.84142 15.2739)
(4.52769e-18 8.83584 15.2806)
(4.08363e-18 8.83773 15.2835)
(4.2968e-18 8.83433 15.2894)
(3.95091e-18 8.8346 15.2936)
(4.09133e-18 8.8331 15.2987)
(4.14858e-18 8.83148 15.3046)
(4.02527e-18 8.83307 15.3084)
(4.10194e-18 8.82608 15.3148)
(4.03061e-18 8.83057 15.3091)
(3.56449e-18 8.93894 15.5364)
(4.13855e-18 9.39832 16.3052)
(5.21485e-18 6.48065 11.3299)
(6.67838e-21 6.59975 11.3938)
(8.12305e-21 9.42883 16.2103)
(1.2523e-20 8.93328 15.4305)
(3.0362e-20 8.83022 15.2175)
(1.89835e-20 8.81949 15.2353)
(-7.24126e-19 8.82955 15.2368)
(-5.34297e-19 8.82105 15.2448)
(-4.81556e-19 8.82505 15.2462)
(-5.7197e-19 8.81996 15.2526)
(-4.61876e-19 8.82167 15.2556)
(-5.30066e-19 8.81846 15.2613)
(-4.32038e-19 8.81894 15.2653)
(-4.82391e-19 8.8172 15.2706)
(-4.74872e-19 8.8163 15.276)
(-4.75919e-19 8.81707 15.2803)
(-4.78659e-19 8.81182 15.2864)
(-4.34492e-19 8.81455 15.2813)
(-3.77918e-19 8.90595 15.4737)
(-3.99959e-19 9.36943 16.2533)
(-5.62745e-19 6.66641 11.6485)
(-2.73553e-21 6.7853 11.709)
(3.40626e-20 9.3939 16.1553)
(2.52686e-20 8.89749 15.3687)
(1.92314e-20 8.81249 15.1894)
(2.11409e-20 8.80314 15.207)
(-1.52554e-20 8.81209 15.2083)
(-1.60798e-20 8.80439 15.2158)
(-2.24275e-20 8.80794 15.2174)
(-1.99001e-20 8.80339 15.2235)
(-3.48013e-20 8.80491 15.2265)
(-2.26204e-20 8.80193 15.2321)
(-4.27598e-20 8.80255 15.2359)
(-3.43191e-20 8.80062 15.2413)
(-3.85656e-20 8.80038 15.2463)
(-3.19176e-20 8.80034 15.2511)
(-3.53299e-20 8.79676 15.2568)
(-4.64725e-20 8.79778 15.2526)
(-4.8678e-20 8.8738 15.4129)
(-7.80327e-20 9.33339 16.1905)
(-4.7233e-20 6.84766 11.9595)
(8.89814e-22 6.97085 12.0249)
(-1.53293e-20 9.35444 16.0921)
(-1.1715e-20 8.8647 15.3123)
(-1.02373e-20 8.79644 15.1643)
(-1.02243e-20 8.78808 15.1812)
(4.99377e-20 8.79597 15.1822)
(3.87862e-20 8.789 15.1892)
(3.87111e-20 8.79206 15.191)
(4.20433e-20 8.78801 15.1967)
(4.24668e-20 8.78927 15.1998)
(4.11337e-20 8.78654 15.2051)
(4.49992e-20 8.78722 15.2088)
(4.43424e-20 8.78514 15.2143)
(4.50501e-20 8.78546 15.2188)
(4.29558e-20 8.78465 15.2239)
(4.44178e-20 8.78261 15.2292)
(4.59034e-20 8.78218 15.2263)
(4.43424e-20 8.84445 15.3572)
(5.95054e-20 9.29239 16.1196)
(5.15853e-20 7.02747 12.2683)
(-2.51404e-22 7.1547 12.3376)
(4.79259e-21 9.30891 16.0186)
(3.71885e-21 8.83396 15.2594)
(3.41437e-21 8.78078 15.1399)
(3.33571e-21 8.7732 15.1557)
(-2.09669e-20 8.78011 15.1567)
(-1.61891e-20 8.77387 15.1632)
(-1.57431e-20 8.77646 15.1652)
(-1.7088e-20 8.77292 15.1705)
(-1.66891e-20 8.7739 15.1736)
(-1.67058e-20 8.77147 15.1788)
(-1.74748e-20 8.77215 15.1824)
(-1.75934e-20 8.77001 15.1878)
(-1.75478e-20 8.77081 15.1919)
(-1.7171e-20 8.76929 15.1975)
(-1.76196e-20 8.76873 15.2022)
(-1.75379e-20 8.767 15.2008)
(-1.67968e-20 8.81717 15.3052)
(-2.19788e-20 9.24576 16.0392)
(-1.95904e-20 7.20579 12.5744)
(6.40088e-23 7.33756 12.6487)
(-1.26226e-21 9.2581 15.9358)
(-9.94875e-22 8.80585 15.211)
(-9.36674e-22 8.76609 15.1171)
(-9.18738e-22 8.75908 15.1315)
(6.36261e-21 8.76508 15.1324)
(4.96978e-21 8.75956 15.1384)
(4.75265e-21 8.76166 15.1406)
(5.10486e-21 8.75866 15.1456)
(4.97644e-21 8.75932 15.1488)
(5.04453e-21 8.75724 15.1537)
(5.18579e-21 8.75783 15.1572)
(5.25668e-21 8.75571 15.1626)
(5.19529e-21 8.75689 15.1663)
(5.15378e-21 8.75476 15.1722)
(5.28275e-21 8.75554 15.1763)
(5.17149e-21 8.75264 15.1767)
(4.93071e-21 8.79238 15.2573)
(6.38919e-21 9.1939 15.9499)
(5.6707e-21 7.38317 12.8789)
(-1.50131e-23 7.51914 12.9575)
(2.98034e-22 9.20164 15.8434)
(2.38981e-22 8.78007 15.1666)
(2.27925e-22 8.75197 15.0952)
(2.27273e-22 8.7454 15.1081)
(-1.63952e-21 8.75058 15.109)
(-1.3064e-21 8.74575 15.1146)
(-1.23032e-21 8.74738 15.117)
(-1.3041e-21 8.74491 15.1216)
(-1.28291e-21 8.74525 15.1249)
(-1.31241e-21 8.74355 15.1295)
(-1.32884e-21 8.74399 15.133)
(-1.34981e-21 8.74201 15.1383)
(-1.3312e-21 8.74343 15.1417)
(-1.32805e-21 8.74083 15.1479)
(-1.36312e-21 8.74281 15.1514)
(-1.32567e-21 8.73885 15.1537)
(-1.25879e-21 8.7699 15.2133)
(-1.61912e-21 9.13662 15.8514)
(-1.41699e-21 7.5595 13.1812)
(3.3091e-24 7.69979 13.2646)
(-6.50978e-23 9.13974 15.7414)
(-5.31389e-23 8.75679 15.1265)
(-5.10129e-23 8.73861 15.0745)
(-5.19306e-23 8.73234 15.0858)
(3.80184e-22 8.73679 15.0868)
(3.1007e-22 8.73263 15.0919)
(2.88011e-22 8.73379 15.0945)
(3.01138e-22 8.73185 15.0987)
(3.00421e-22 8.73185 15.1021)
(3.10084e-22 8.73055 15.1064)
(3.08365e-22 8.73077 15.1099)
(3.12896e-22 8.72904 15.115)
(3.10188e-22 8.73052 15.1182)
(3.09305e-22 8.72765 15.1245)
(3.17794e-22 8.73062 15.1275)
(3.09016e-22 8.72571 15.1316)
(2.92585e-22 8.74982 15.1733)
(3.73158e-22 9.07397 15.7439)
(3.20779e-22 7.73491 13.4815)
(-7.02381e-25 7.87971 13.5703)
(1.3475e-23 9.07239 15.6298)
(1.11951e-23 8.73604 15.0909)
(1.07853e-23 8.72608 15.055)
(1.12005e-23 8.72003 15.0647)
(-8.19614e-23 8.72376 15.0658)
(-6.83806e-23 8.72032 15.0704)
(-6.28344e-23 8.72096 15.0731)
(-6.48997e-23 8.71951 15.077)
(-6.57371e-23 8.71921 15.0804)
(-6.84119e-23 8.71826 15.0844)
(-6.6656e-23 8.71823 15.088)
(-6.7352e-23 8.71684 15.0927)
(-6.75767e-23 8.71813 15.0959)
(-6.71568e-23 8.71528 15.1022)
(-6.88981e-23 8.7189 15.1046)
(-6.7215e-23 8.7132 15.1105)
(-6.36344e-23 8.73207 15.1373)
(-8.03127e-23 9.00598 15.6275)
(-6.77399e-23 7.9094 13.7795)
(1.48232e-25 8.05935 13.8753)
(-2.71494e-24 8.99939 15.5081)
(-2.29566e-24 8.71774 15.0597)
(-2.21331e-24 8.71449 15.0366)
(-2.34041e-24 8.70871 15.0447)
(1.68679e-23 8.71166 15.0461)
(1.43535e-23 8.70908 15.0501)
(1.31085e-23 8.70921 15.053)
(1.34193e-23 8.70821 15.0564)
(1.37677e-23 8.70771 15.0598)
(1.44142e-23 8.70702 15.0635)
(1.37619e-23 8.70675 15.0672)
(1.38061e-23 8.70577 15.0715)
(1.40799e-23 8.70662 15.0749)
(1.39721e-23 8.70416 15.0809)
(1.42671e-23 8.70787 15.0831)
(1.39741e-23 8.70163 15.0903)
(1.32752e-23 8.71686 15.1052)
(1.6548e-23 8.93301 15.5028)
(1.36932e-23 8.083 14.0751)
(-3.2159e-26 8.23963 14.1804)
(5.49513e-25 8.92053 15.3748)
(4.73477e-25 8.70161 15.0324)
(4.54181e-25 8.70357 15.0189)
(4.89507e-25 8.69845 15.0253)
(-3.40664e-24 8.70029 15.0269)
(-2.94645e-24 8.69867 15.0302)
(-2.69031e-24 8.69833 15.033)
(-2.74351e-24 8.69764 15.0361)
(-2.83254e-24 8.69706 15.0394)
(-2.97352e-24 8.6965 15.0428)
(-2.79194e-24 8.6961 15.0463)
(-2.77572e-24 8.69549 15.0503)
(-2.8752e-24 8.69579 15.054)
(-2.86896e-24 8.69418 15.0593)
(-2.91059e-24 8.69718 15.0619)
(-2.85918e-24 8.69121 15.07)
(-2.73253e-24 8.70418 15.0762)
(-3.3599e-24 8.85554 15.3706)
(-2.7263e-24 8.25503 14.366)
(7.40316e-27 8.42318 14.4926)
(-1.16266e-25 8.83806 15.2311)
(-1.02322e-25 8.69067 15.012)
(-9.66427e-26 8.6952 15.0051)
(-1.06768e-25 8.6918 15.0089)
(7.01135e-25 8.6921 15.0105)
(6.14323e-25 8.69112 15.0126)
(5.6494e-25 8.69032 15.0148)
(5.77638e-25 8.68948 15.0171)
(5.93414e-25 8.68859 15.0197)
(6.22629e-25 8.68772 15.0224)
(5.78634e-25 8.68685 15.0254)
(5.70704e-25 8.68601 15.0287)
(5.96071e-25 8.68539 15.0321)
(6.04036e-25 8.68429 15.0364)
(6.09948e-25 8.68528 15.0397)
(6.00003e-25 8.68099 15.0469)
(5.76654e-25 8.69103 15.0483)
(6.98706e-25 8.77263 15.2324)
(5.54112e-25 8.4232 14.6448)
(-1.51568e-27 8.61058 14.8239)
(2.18823e-26 8.7527 15.0801)
(1.97922e-26 8.69281 15.0032)
(1.82142e-26 8.695 15.0014)
(2.08825e-26 8.69441 15.0021)
(-1.26555e-25 8.69407 15.0026)
(-1.12707e-25 8.69365 15.0031)
(-1.04964e-25 8.69304 15.0038)
(-1.08189e-25 8.69231 15.0046)
(-1.09181e-25 8.69142 15.0056)
(-1.14208e-25 8.69037 15.0067)
(-1.06042e-25 8.68913 15.008)
(-1.04247e-25 8.68771 15.0095)
(-1.08427e-25 8.68603 15.0113)
(-1.1212e-25 8.68415 15.0133)
(-1.13239e-25 8.68207 15.0156)
(-1.11671e-25 8.6789 15.0189)
(-1.07588e-25 8.67937 15.02)
(-1.28682e-25 8.69418 15.0844)
(-9.90012e-26 8.59338 14.8932)
(-1.43082e-27 -2.62018 17.0635)
(-9.35496e-26 -8.04405 13.7093)
(-3.1783e-25 -5.17975 14.5574)
(-4.05523e-25 -4.98273 14.1721)
(8.94272e-25 -4.06474 14.1353)
(6.15995e-24 -3.50262 13.9676)
(1.84866e-23 -2.93405 13.817)
(3.946e-23 -2.47069 13.6339)
(6.67748e-23 -2.06792 13.4281)
(9.24509e-23 -1.73402 13.1911)
(1.03507e-22 -1.46376 12.924)
(8.91624e-23 -1.2616 12.6306)
(5.41618e-23 -1.13166 12.3169)
(2.69652e-23 -1.08614 11.9829)
(5.20782e-23 -1.14149 11.6228)
(1.72151e-22 -1.26548 11.2491)
(3.95938e-22 -1.48248 10.8034)
(6.14892e-22 -2.08337 9.93382)
(5.51111e-22 -2.30641 8.51695)
(1.2459e-22 0.234493 6.33907)
(2.17024e-26 -11.1572 28.5312)
(-1.05563e-25 -17.1074 24.9782)
(-1.23275e-24 -12.0481 25.3648)
(-2.91883e-24 -12.7504 23.6167)
(1.9923e-24 -11.0208 22.8473)
(2.95581e-23 -10.3876 21.7278)
(9.67729e-23 -9.42178 20.7855)
(2.03132e-22 -8.68499 19.8144)
(3.1176e-22 -7.96087 18.8954)
(3.55884e-22 -7.32982 17.9997)
(2.88259e-22 -6.75085 17.1233)
(1.45785e-22 -6.21583 16.2249)
(4.66682e-23 -5.69627 15.2591)
(8.0398e-23 -5.1735 14.179)
(1.3043e-22 -4.61371 12.9024)
(-4.10227e-22 -3.89408 11.2235)
(-3.12866e-21 -2.75822 8.66596)
(-1.05262e-20 -0.930732 4.51966)
(-2.24085e-20 1.45176 -0.943564)
(-2.73264e-20 2.23332 -4.32366)
(6.90536e-26 -13.9559 30.2417)
(-2.16733e-25 -18.0411 27.2227)
(-2.79034e-24 -13.2222 27.1219)
(-5.88109e-24 -14.2786 24.6341)
(5.77898e-24 -12.1356 23.6623)
(5.89339e-23 -11.724 21.9754)
(1.67492e-22 -10.6009 20.7103)
(3.00604e-22 -9.89021 19.3349)
(3.76553e-22 -9.08506 18.083)
(3.20409e-22 -8.39127 16.8332)
(1.47035e-22 -7.71101 15.595)
(-2.61157e-23 -7.07775 14.3039)
(-7.68785e-23 -6.46561 12.9271)
(3.29173e-23 -5.85861 11.4479)
(2.72404e-22 -5.22439 9.84985)
(4.28318e-22 -4.47806 7.96436)
(-5.4852e-22 -3.27381 5.36061)
(-8.76245e-22 -1.63939 1.7006)
(-3.37637e-20 0.0726094 -1.56806)
(-5.41415e-20 0.573636 -2.74481)
(1.14355e-25 -15.0514 30.3596)
(-3.10236e-25 -18.1 27.9127)
(-3.8195e-24 -13.9727 27.4251)
(-8.10255e-24 -14.9776 24.7822)
(8.66384e-24 -12.6894 23.8439)
(8.28768e-23 -12.4328 21.9897)
(2.18401e-22 -11.1574 20.7637)
(3.17833e-22 -10.4586 19.3459)
(1.81352e-22 -9.52482 18.0899)
(-2.98939e-22 -8.65482 16.694)
(-8.46729e-22 -7.61758 15.0707)
(-8.51747e-22 -6.49812 13.14)
(-7.64933e-23 -5.43286 11.1299)