/*--------------------------------*- C++ -*----------------------------------*\
| =========                 |                                                 |
| \\      /  F ield         | OpenFOAM: The Open Source CFD Toolbox           |
|  \\    /   O peration     | Version:  4.1                                   |
|   \\  /    A nd           | Web:      www.OpenFOAM.org                      |
|    \\/     M anipulation  |                                                 |
\*---------------------------------------------------------------------------*/
FoamFile
{
    version     2.0;
    format      ascii;
    class       volScalarField;
    location    "19";
    object      p;
}
// * * * * * * * * * * * * * * * * * * * * * * * * * * * * * * * * * * * * * //

dimensions      [0 2 -2 0 0 0 0];

internalField   nonuniform List<scalar> 
1280
(
594.579
-482.572
-200.83
-243.848
-184.786
-174.877
-152.915
-125.954
-128.431
-124.62
-106.88
-113.668
-102.158
-88.4119
-96.0642
-93.6275
-84.2201
-74.837
-75.4424
-87.7873
-82.6074
-70.7321
-57.4903
-46.9253
-36.5783
-26.0542
9.40136
45.3567
57.8091
65.8834
75.546
83.9811
92.4274
100.274
107.925
115.096
120.649
126.817
137.135
140.5
144.456
142.968
143.535
144.158
142.718
142.598
142.594
142.601
142.456
140.548
139.834
140.371
137.814
137.309
136.994
137.664
133.961
132.887
131.277
131.044
102.727
99.0278
94.0596
89.823
85.615
81.4664
77.2
72.8625
68.4145
63.8096
59.1763
54.5143
48.9161
-1.841
6.3475
-3.51341
-10.0727
-23.5558
-46.2779
-60.5308
-62.657
-60.9961
-76.776
-71.3
-69.6923
-74.0258
-67.8109
-64.2799
-63.1275
-57.6722
-56.0172
-45.9221
-33.8172
-35.8128
-35.8204
-43.6127
-71.2572
-58.5177
-63.0863
47.5679
61736.4
-10193.1
-14685.6
-369.615
-1617.58
-293.977
-110.539
77.0855
77.6479
90.117
62.54
24.7116
-6.23201
-57.1147
-44.7308
34.5152
202.547
19.1329
142.533
-39655.5
-2699.12
-7499.37
-673.152
-667.027
-194.363
-193.494
-72.6925
-26.2353
-18.6895
-43.0374
-39.5706
-13.4347
-40.5217
-105.05
-102.279
-125.257
-9.03703
-65.9222
-40.37
-5880.31
-5.0636
-470.819
-355.97
-320.282
-238.455
-50.8588
-2.23561
12.933
1.80607
-23.1175
-18.0324
-54.5766
-133.664
-97.897
-27.0372
-2.96932
12.5422
-10390.5
-6266.04
-2030.37
129.992
-400.118
-335.155
-297.958
-84.8452
-28.6455
-15.0708
-6.75981
-25.4682
-46.6972
-123.521
-224.294
-191.45
-112.35
-22.0087
-44.5895
-3375.8
-4482.99
-882.014
-34.1217
-425.886
-349.116
-321.136
-73.8468
-36.8743
-19.6005
7.38044
-20.4648
-76.3294
-176.034
-298.926
-249.343
-123.364
-16.7305
-36.9426
-3719.25
-3932.64
-330.135
-249.611
-441.529
-362.314
-362.792
-80.1435
-67.9654
-40.9324
-6.06312
-19.7017
-113.942
-224.39
-372.138
-315.712
-151.832
-17.3742
-71.1026
-1555.33
-2577.71
192.44
-311.086
-457.844
-357.822
-317.346
-84.259
-110.327
-67.3363
-38.3227
-39.776
-159.022
-265.639
-425.418
-361.02
-154.128
6.92675
-14.9953
-901.536
-1918.4
569.797
-332.311
-455.956
-398.209
-241.417
-79.8098
-147.131
-106.323
-97.7458
-75.5123
-199.458
-294.214
-450.461
-397.109
-148.472
47.2642
84.3675
-77.8251
-1237.87
1007.48
-308.537
-381.569
-302.391
-139.567
-50.4143
-155.175
-139.744
-155.47
-109.694
-229.409
-314.305
-452.775
-412.885
-133.822
64.8887
128.557
265.481
-813.485
1397.86
-50.4176
-153.943
-66.8685
-39.2641
-13.3882
-149.917
-163.535
-185.037
-134.069
-247.527
-326.401
-440.033
-406.157
-111.357
78.7931
132.215
387.249
-588.616
1563.42
118.225
7.08905
85.7127
18.2913
1.5891
-144.629
-185.734
-197.839
-149.487
-253.89
-325.811
-410.912
-379.363
-84.7956
89.5331
129.696
266.57
-786.596
1364.97
16.4068
18.0714
129.381
21.0037
7.15424
-139.099
-205.595
-199.763
-154.942
-248.521
-312.524
-363.934
-330.334
-58.1228
88.3959
118.632
-418.04
-1370.33
888.96
-41.8088
-17.1474
114.619
9.88946
0.369116
-126.362
-215.584
-180.825
-153.054
-232.4
-285.966
-303.349
-256.377
-32.676
81.2747
94.9143
-1071.75
-2109.24
472.913
27.0748
-38.2474
82.0869
-11.3923
-11.3325
-113.145
-213.937
-150.557
-147.682
-195.51
-227.781
-219.906
-164.499
-7.4366
74.0086
80.7387
-3251.04
-3501.49
-40.4094
115.337
-85.3717
30.7777
-30.9977
-26.5523
-102.826
-196.944
-149.484
-155.325
-161.062
-170.994
-159.319
-117.691
-14.8865
41.7605
12.4321
-2915.07
-3922.01
-679.513
192.925
-176.403
-19.5931
-50.8137
-44.0408
-100.918
-169.242
-157.529
-150.372
-128.492
-109.281
-94.2419
-55.1807
2.30352
29.946
8.66168
-9645.97
-6037.91
-2364.96
-51.4005
-264.181
-19.5461
-61.684
-46.0768
-89.4262
-130.897
-152.582
-146.187
-138.925
-112.564
-105.47
-75.0715
-30.4843
1.97946
-39.3477
-132.632
-5385.93
-343.123
-1192.38
-433.671
-26.5286
-52.4869
-32.7791
-55.9032
-66.953
-98.4712
-135.905
-114.615
-59.9567
-38.8022
-16.9376
24.1323
39.7852
43.4738
-37349.6
-1637.01
-7108.74
-1211.47
-454.383
-77.2927
-107.165
-87.4019
-117.891
-114.162
-105.985
-152.766
-138.809
-124.587
-135.568
-125.303
-168.815
-70.8656
-168.256
55841.9
-8686.64
-13644.4
-330.968
-857.73
-214.421
-171.894
-151.586
-185.882
-186.312
-169.719
-105.609
-33.2634
12.2388
38.9326
152.202
398.266
138.264
284.121
34.671
35.311
37.1261
38.2717
39.7992
41.2288
43.0701
45.3083
47.6818
50.1868
52.7372
55.356
57.9983
60.648
63.2954
65.9091
68.4939
71.2497
73.5494
76.1072
41.4209
41.153
41.385
41.6393
42.0724
42.6281
43.3469
44.1058
44.971
45.8814
46.8604
47.8762
48.9398
50.0199
51.1326
52.2294
53.355
54.4401
55.5509
56.8934
46.7206
46.5722
46.6052
46.5867
46.6622
46.7541
46.9183
47.1266
47.3929
47.6966
48.0504
48.4322
48.8558
49.2952
49.7705
50.2436
50.7493
51.2303
51.8383
52.3641
47.4793
47.4065
47.4207
47.3925
47.406
47.4121
47.4493
47.4877
47.5533
47.6257
47.7221
47.826
47.9535
48.084
48.2411
48.3908
48.5733
48.7313
48.9618
49.1806
48.863
48.781
48.7712
48.719
48.7021
48.6686
48.6567
48.6383
48.6351
48.6297
48.6371
48.6427
48.6615
48.6751
48.706
48.7228
48.7663
48.7787
48.8439
48.8645
49.4246
49.3601
49.348
49.3008
49.281
49.2431
49.2218
49.1909
49.1706
49.1453
49.1281
49.1068
49.0943
49.0749
49.0689
49.0484
49.0511
49.0241
49.0413
49.0093
50.1679
50.1006
50.0847
50.034
50.0096
49.9667
49.9388
49.9011
49.872
49.8375
49.8089
49.7761
49.7496
49.7165
49.6942
49.6581
49.6429
49.5992
49.5963
49.541
50.7389
50.6775
50.6624
50.615
50.5917
50.5508
50.5235
50.4866
50.4572
50.4226
50.3927
50.3591
50.3302
50.2957
50.27
50.2319
50.2125
50.1666
50.1585
50.0995
51.3354
51.2751
51.2595
51.2128
51.1892
51.1488
51.121
51.0844
51.0544
51.0199
50.9891
50.9555
50.9253
50.8908
50.8634
50.8253
50.8038
50.758
50.7476
50.6881
51.8843
51.8271
51.8118
51.7672
51.7444
51.7056
51.6787
51.6435
51.6143
51.5813
51.551
51.5189
51.4889
51.456
51.4285
51.3922
51.3703
51.3265
51.3154
51.2579
52.4199
52.3649
52.3498
52.3067
52.2844
52.247
52.2208
52.1869
52.1583
52.1266
52.0969
52.0662
52.0366
52.0054
51.9778
51.9436
51.9214
51.8799
51.8682
51.813
52.9299
52.8775
52.8628
52.8216
52.8
52.7643
52.7389
52.7064
52.6789
52.6486
52.6198
52.5907
52.5617
52.5325
52.5051
52.4732
52.4508
52.4119
52.3999
52.3474
53.4196
53.3697
53.3551
53.3158
53.2948
53.2606
53.2362
53.2051
53.1785
53.1496
53.1217
53.0943
53.0659
53.0387
53.0114
52.9821
52.9594
52.9234
52.9109
52.8612
53.8893
53.842
53.8276
53.7902
53.7698
53.7371
53.7136
53.6838
53.6582
53.6306
53.6036
53.5776
53.5498
53.5246
53.4974
53.4707
53.4474
53.4145
53.4013
53.3544
54.338
54.294
54.2801
54.2449
54.2256
54.1945
54.1723
54.1441
54.1197
54.0936
54.0678
54.0431
54.0163
53.9929
53.9657
53.9417
53.9176
53.8881
53.8737
53.8299
54.7554
54.7147
54.7013
54.6686
54.6511
54.622
54.6017
54.5759
54.5533
54.5295
54.5059
54.4833
54.4585
54.4375
54.4113
54.3911
54.3662
54.3411
54.3255
54.2858
55.1491
55.1118
55.0971
55.0648
55.0486
55.0202
55
54.9757
54.9536
54.9311
54.9087
54.8873
54.8645
54.8452
54.8207
54.8047
54.779
54.7607
54.7448
54.7106
55.548
55.5207
55.5093
55.4769
55.4639
55.4384
55.4186
55.3961
55.3739
55.351
55.3274
55.3035
55.2784
55.2545
55.2262
55.206
55.1719
55.1567
55.1305
55.0928
55.8217
55.8126
55.8277
55.8071
55.8073
55.7999
55.7952
55.79
55.7843
55.7779
55.7702
55.7607
55.7487
55.7339
55.7136
55.6926
55.6541
55.6327
55.5608
55.5038
55.787
55.7287
55.7668
55.7775
55.795
55.8127
55.8316
55.8523
55.875
55.9
55.9279
55.9589
55.9936
56.0324
56.0759
56.125
56.1777
56.2463
56.2876
56.4507
763.31
680.331
630.958
574.518
525.331
477.903
433.834
392.254
353.178
316.333
281.561
248.67
217.446
187.802
159.756
132.483
106.433
86.3062
63.1037
26.5487
68.5257
45.9393
53.8693
42.6839
39.7339
32.954
27.8507
22.474
17.8213
13.6957
10.3242
7.75325
6.07449
5.3625
5.7113
7.10031
9.52508
12.8151
15.8908
18.7048
55.4589
49.3509
57.9378
51.5933
54.1199
51.3842
50.7094
48.8371
47.2735
45.4865
43.7566
42.0429
40.4228
38.9246
37.6071
36.6288
36.2732
37.2382
38.69
41.3446
72.9737
70.5422
73.8702
68.7722
70.6225
67.7402
67.6852
66.4192
66.0485
65.6402
65.6
65.698
65.9277
66.2048
66.3973
66.4561
66.4018
66.7983
68.015
69.9078
74.2896
72.3489
74.9894
71.9691
74.9322
73.36
75.0532
74.9118
75.8207
76.1874
76.7218
77.0489
77.3012
77.4544
77.5272
77.3639
76.8698
76.3777
75.9974
74.964
60.7752
57.21
58.6746
55.0756
56.2731
53.5899
53.7716
52.0809
51.5416
50.3844
49.623
48.7624
48.0556
47.3331
46.5922
45.5235
43.9391
42.2072
39.9502
37.5481
28.1498
23.9816
24.4072
20.6097
20.5164
17.0684
15.9555
12.9132
10.8147
7.83182
5.09265
2.18498
-0.479099
-2.91179
-4.89704
-6.57939
-7.89847
-8.35744
-8.72384
-6.83716
11.374
9.07188
10.4217
7.94809
9.06865
6.9006
7.19243
5.71629
5.32399
4.36135
3.83346
3.49054
3.66558
4.39579
5.68631
7.57559
9.70941
12.2555
14.1403
17.6569
31.045
31.6504
33.9858
33.5997
36.1898
36.3199
38.3735
39.3527
41.0572
42.5731
44.2956
46.1059
48.0248
50.0629
52.1504
54.3523
56.4977
58.8787
60.785
63.8064
56.7704
58.7239
60.9268
61.4528
63.9455
64.7498
66.747
68.0552
69.6827
71.1818
72.6927
74.1942
75.6759
77.1653
78.6374
80.1578
81.6158
83.2412
84.4724
86.1887
79.9381
81.9969
83.7148
84.3932
86.3249
87.0529
88.5897
89.6335
90.8835
92.0659
93.2692
94.4899
95.7079
96.911
98.0852
99.272
100.44
101.77
102.775
104.08
98.4032
100.737
102.258
103.458
105.352
106.491
108.254
109.539
110.891
111.849
112.444
112.476
111.895
110.755
109.441
108.451
108.422
109.044
109.815
109.901
116.753
117.461
117.672
117.521
117.723
117.158
116.801
115.688
114.399
112.568
110.449
108.014
105.404
102.745
100.312
98.4151
97.2233
96.5075
96.6468
95.1051
107.058
103.475
101.615
99.2401
97.8049
95.6836
94.0568
92.0732
90.2931
88.2912
86.2368
83.9093
81.3297
78.5168
75.7288
73.2546
71.6516
71.7593
71.8749
67.7127
57.299
50.719
46.6915
41.9
37.3598
32.223
27.2635
22.0664
17.2508
12.688
8.70587
5.31357
2.70865
0.983234
0.230684
0.373006
1.19523
1.94117
1.45409
0.649274
12.2441
7.12971
3.69043
0.473376
-2.35849
-5.26423
-7.68865
-9.87666
-11.4147
-12.4675
-12.9807
-13.0854
-12.8456
-12.3588
-11.7522
-11.0723
-10.4082
-9.62124
-8.9574
-6.1583
-7.77589
-7.70635
-5.10233
-2.44817
-0.284452
1.56113
3.41559
5.1171
6.7792
8.30923
9.72301
11.0141
12.195
13.3316
14.4407
15.7185
17.1244
19.3237
21.334
24.3054
16.262
18.6626
22.7344
26.7442
30.0985
32.9025
35.4513
37.7199
39.8075
41.7021
43.436
45.052
46.5787
48.0793
49.55
51.0858
52.5614
54.1998
55.4238
57.2327
39.3435
43.2201
45.0609
47.5445
49.5175
51.3938
53.1304
54.6854
56.1712
57.5185
58.7903
59.9998
61.1554
62.288
63.371
64.4643
65.4575
66.5457
67.3159
68.4597
94.133
94.1485
92.5899
91.6084
89.6226
87.6994
85.618
84.3952
83.2484
82.3196
81.597
81.0747
80.7654
80.6801
80.7938
81.1407
81.6129
82.3775
83.0124
84.2359
)
;

boundaryField
{
    outletWall
    {
        type            fixedValue;
        value           uniform 0;
    }
    fineWalls
    {
        type            zeroGradient;
    }
    fineFrontAndBack
    {
        type            zeroGradient;
    }
    fineplugLeft
    {
        type            cyclicAMI;
        value           nonuniform List<scalar> 
20
(
88.9856
86.2666
82.3631
78.925
75.7465
72.2212
68.5732
64.8841
61.081
57.299
53.3261
49.7072
45.318
39.2417
27.7722
24.5237
21.2323
18.2028
14.1024
11.2154
)
;
    }
    fineplugRight
    {
        type            cyclicAMI;
        value           nonuniform List<scalar> 
20
(
87.9341
86.2154
84.7139
83.2549
82.0355
80.9283
79.9841
79.1848
78.5427
78.0395
77.6909
77.5016
77.2994
75.6732
71.429
70.9954
71.2721
69.3607
66.0633
63.2002
)
;
    }
    inletOutletLeft
    {
        type            cyclicAMI;
        value           nonuniform List<scalar> 
20
(
88.9856
86.2666
82.3631
78.925
75.7465
72.2212
68.5732
64.8841
61.081
57.299
53.3261
49.7072
45.318
39.2417
27.7722
24.5237
21.2323
18.2028
14.1024
11.2154
)
;
    }
    inletLeft
    {
        type            zeroGradient;
    }
    inletWallsLeft
    {
        type            zeroGradient;
    }
    inletFacesLeft
    {
        type            zeroGradient;
    }
    inletOutletRight
    {
        type            cyclicAMI;
        value           nonuniform List<scalar> 
20
(
87.9341
86.2154
84.7139
83.2549
82.0355
80.9283
79.9841
79.1848
78.5427
78.0395
77.6909
77.5016
77.2994
75.6732
71.429
70.9954
71.2721
69.3607
66.0633
63.2002
)
;
    }
    inletRight
    {
        type            zeroGradient;
    }
    inletWallsRight
    {
        type            zeroGradient;
    }
    inletFacesRight
    {
        type            zeroGradient;
    }
}


// ************************************************************************* //
