/*--------------------------------*- C++ -*----------------------------------*\
| =========                 |                                                 |
| \\      /  F ield         | OpenFOAM: The Open Source CFD Toolbox           |
|  \\    /   O peration     | Version:  4.1                                   |
|   \\  /    A nd           | Web:      www.OpenFOAM.org                      |
|    \\/     M anipulation  |                                                 |
\*---------------------------------------------------------------------------*/
FoamFile
{
    version     2.0;
    format      ascii;
    class       surfaceScalarField;
    location    "19";
    object      phi;
}
// * * * * * * * * * * * * * * * * * * * * * * * * * * * * * * * * * * * * * //

dimensions      [0 3 -1 0 0 0 0];

internalField   nonuniform List<scalar> 
2360
(
-41189.2
-24686.3
-16502.9
-24686.3
-24686.3
-21019.6
-3666.68
-21019.6
-21019.5
-21019.5
-14038.8
-6980.66
-14038.7
-14038.7
-11735.9
-2302.76
-11735.8
-11735.8
-9334.18
-2401.5
-9334.1
-9333.96
-12171.1
2837.35
-12170.9
-12170.8
-11339.1
-10172.7
-9056.42
-7967.28
-6878.38
-5786.15
-16918.4
12199.1
-15868.9
-14831.4
-13805.9
-12792.9
-11792.9
-10806
-9832.41
-8872.63
-7924.86
-6973.63
-5996.5
-5112.45
-4870.41
-5157.77
287.329
-5157.78
-5157.79
-5157.8
-497.145
-4660.7
-497.057
-497.216
-497.115
2797.07
-3294.37
2797.07
2796.92
3962.89
-1165.92
3962.79
3962.78
3962.7
-1011.5
4974.16
-1011.75
-1011.94
-1012.06
-14850.1
13838
-14588.1
-14139.2
-13658.1
-13127.7
-12535.3
-11873.3
-11141.9
-10341.2
-9469.73
-8525.31
-7505.4
-6407.27
-5226.79
-16519.8
12581.1
-15151.8
-13636.1
-11947.3
-10142.4
-8550.15
-7932.18
-7932.23
-7932.38
-9593.42
1661.06
-9593.49
-9593.44
-8296.3
-1297.2
-8296.27
-8296.35
-4295.67
-4000.68
-4295.75
-4295.71
3672.1
-7967.93
3672.14
3671.94
3672.05
7916.5
-4244.61
7916.52
7916.48
9175.91
-1259.42
-97295.3
-412520
111932
-32718.3
-74672.8
342541
-51274.7
-5271.29
-7818.88
29507.7
-16836.5
34635.2
-16622.5
13556.4
-8183.62
-18989.1
3574.81
-23997.8
13412.7
-22796
19888.8
-14961
14312.7
448.789
2807.27
12198.4
-8003.43
20533.2
-14354.5
13759.4
-10945.2
-9955.12
-4560.35
-29380.9
20431
-27340.6
-3545.34
-77435.7
-279230
-70086
-40068
-43408.3
315864
-35168.4
-13511.2
-10465.8
4805.06
-23561.4
47730.9
-10888.8
883.73
-3242.51
-26635.4
2138.52
-29378.9
5565.2
-26222.7
9519.39
-18915.2
6576.27
3391.91
-4036.85
22811.5
-11789.8
28286.2
-13139.6
15109.2
-10567.7
-12527
-7112.49
-32836.1
802.904
-35256
-6987.02
28043.4
-307154
4.33368
-12029
19830.3
296038
-20579
26898.1
-31964.8
16190.8
-19451.1
35217.2
-6090.74
-12476.6
2910.62
-35636.8
6798.41
-33266.6
8627.05
-28051.3
9358.86
-19647
1831.19
10919.6
-8500.33
33143
-13440.1
33226
-15276.2
16945.3
-12693.6
-15109.6
-7673.49
-37856.3
-1830.8
-41098.7
-16785.9
-47994
-239481
-44568.4
-15454.7
1031.3
250438
-15460.9
43390.3
-24436.1
25166.1
-10031
20812
2852.14
-25359.7
11022.8
-43807.4
12941.1
-35185
11426.6
-26536.8
7798.55
-16018.9
-1249.32
19967.4
-9495.43
41389.1
-13145.9
36876.5
-14633
18432.3
-12152.3
-17590.4
-8601.36
-41407.2
-3731.85
-45968.2
-24518.4
-11468.8
-219784
-29606
2682.49
-4788
225620
-14721.7
53324
-15468.3
25912.6
-3359.8
8703.59
11335.4
-40055
19368.6
-51840.6
20327.7
-36144
16212.5
-22421.7
8038.61
-7845
-2485.63
30491.7
-8786.44
47689.9
-11577.6
39667.6
-12661.4
19516.2
-9964.7
-20287.1
-7271.49
-44100.4
-5834.89
-47404.9
-31650.6
-34648
-175241
-40428.3
8462.82
-7389.81
192582
-11997.9
57932
-9830.55
23745.3
4486.34
-5613.3
19754.4
-55323.1
25958.7
-58044.9
26199.2
-36384.6
20642.4
-16864.9
8546.63
4250.8
-2361.47
41399.8
-6746.64
52075.1
-8310.33
41231.3
-8879.77
20085.6
-6785.11
-22381.8
-4999.32
-45886.2
-6854.75
-45549.5
-36844.3
-31962.4
-138084
-35601.3
12101.8
-6859.82
163840
-7693.18
58765.4
210.37
15841.8
18066.2
-23469.1
26649.9
-63906.8
27973.4
-59368.4
27460.6
-35871.8
21871.2
-11275.5
8273.74
17848.3
-1080.24
50753.8
-3621.88
54616.7
-4054.77
41664.2
-4215.73
20246.5
-2891.84
-23705.7
-2015.29
-46762.8
-6651.35
-40913.4
-30914.6
-36575.4
-97677.6
-35843.3
11369.7
-2169.44
130166
-2318.9
58914.9
7983.99
5538.87
28973.5
-44458.6
28546.5
-63479.7
23331
-54153
22353.2
-34894
18975.8
-7897.99
7400.65
29423.4
1095.1
57059.3
156.7
55555.1
363.796
41457.1
971.783
19638.5
2233.64
-24967.6
1753.4
-46282.6
-3827.48
-35332.6
-20904.1
-38986.5
-58177
-35722
8105.24
5679.59
88764.5
21003.7
43590.7
31930.3
-5387.67
35448.1
-47976.5
23583.6
-51615.1
14647.4
-45216.9
14741.3
-34987.9
14731.6
-7888.28
7057
37098
3888.6
60227.7
4198.33
55245.4
5043.82
40611.6
7003.99
17678.4
8167.86
-26131.5
6414.95
-44529.7
3217.87
-32135.5
-12712.1
-42602
-18028.8
-38283.3
3786.63
11684.5
38796.6
35939.7
19335.5
42534.5
-11982.4
30737.2
-36179.2
13721.6
-34599.6
7793.46
-39288.7
10387.2
-37581.6
12309.2
-9810.27
8028.97
41378.2
7253.71
61003
8471.95
54027.2
10230.9
38852.7
13384.1
14525.1
14151.9
-26899.3
10822.7
-41200.4
6771.95
-28084.9
-7106.31
-46928.1
24218.2
-43026.6
-114.88
14375.1
-18605.1
38178.5
-4467.85
34755.6
-8559.55
14827.8
-16251.4
3292.62
-23064.4
3421.11
-39417.2
7572.13
-41732.6
10991.3
-13229.4
10278.4
42091
11108.9
60172.5
12856.6
52279.5
15467.9
36241.4
19728.6
10264.4
19918.8
-27089.5
15063.6
-36345.3
9449.67
-22471
-950.969
-48605.1
70724.9
-45438.8
-3281.16
10001.4
-74045.3
29400.1
-23866.5
15596.2
5244.3
1472.93
-2128.1
-1644.14
-19947.3
-502.456
-40558.8
3390.87
-45626
9061.1
-18899.7
13692.6
37459.5
15916.6
57948.5
17925.6
50270.5
21617.8
32549.2
26503.4
5378.71
25146.5
-25732.6
18622.7
-29821.5
12257.3
-16105.6
6645.6
-44906.4
117703
-43214.5
-4973
2038.76
-119299
7443.41
-29271.2
-3962.59
16650.3
-1609.85
-4480.83
-4179.82
-17377.4
-4419.44
-40319.2
-1921.59
-48123.8
6101.18
-26922.4
17553.3
26007.4
22745.5
52756.2
25887.4
47128.6
30355.1
28081.5
33436.7
2297.11
28891.8
-21187.7
20789
-21718.6
12519
-7835.63
19452
-39730.5
161292
-40762.7
-3940.79
-2668.97
-157392
-4906.46
-27033.7
-10744.2
22488.1
-2507.85
-12717.2
-4561.23
-15324
-7606.92
-37273.5
-6189.64
-49541.1
2891.37
-36003.4
18783.5
10115.3
28676.7
42863
34102.4
41702.9
37854.8
24329.2
37222.4
2929.51
29834.1
-13799.5
20627
-12511.5
7685.8
5105.67
39337
-39377.9
209649
-42761.3
-557.341
-953.752
-199200
-4127.97
-23859.4
-11481.4
29841.5
-2939.43
-21259.2
-2528.64
-15734.8
-8536.44
-31265.7
-9771.63
-48305.9
-3165.75
-42609.3
13799.5
-6849.95
28484.5
28178
36151.2
34036.2
38799.3
21681.1
35873.2
5855.63
27594.6
-5520.89
16973.2
-1890.21
3194.99
18884
45369.4
-16623.8
233520
-30810.3
13629.1
2754.21
-232764
1978.47
-23083.7
-10042.7
41862.7
-4124.62
-27177.3
-72.5039
-19786.9
-6866.21
-24472
-12330.2
-42841.9
-9790.78
-45148.8
4995.5
-21636.2
21476.1
11697.4
30161.7
25350.6
32323.7
19519.1
29504.2
8675.18
22777.5
1205.73
10176.4
10711
-2189.27
31249.7
40778.7
-47428.8
299611
-45563.7
11764.1
9537.98
-287866
11016
-24561.7
-5333.17
58211.8
-4862.16
-27648.3
616.242
-25265.3
-3473.72
-20382.1
-11483.9
-34831.7
-13619.2
-43013.5
-3013.71
-32241.7
12163.7
-3480.02
20990.2
16524.1
23619.3
16890
22009.1
10285.4
15091.2
8123.63
2087.5
23714.8
-4655.85
37993.1
33820.1
31503.1
268353
7128.96
36138.2
25790.8
-306528
-4093.88
5323.02
-7734.41
61852.4
-3352.99
-32029.7
-132.915
-28485.4
-260.5
-20254.5
-6846.54
-28245.7
-14404.2
-35455.8
-11778.1
-34867.8
327.154
-15585.3
10447.6
6403.73
13413.8
13923.7
13164
10535.2
7254.12
14033.5
-1788.68
32757.6
-2218.59
38423
24620.9
-74603.2
397474
-69721.1
31256.1
-45949.9
-330299
-50143.5
9516.63
1648.29
10060.6
1094.78
-31476.2
-605.268
-26785.3
1262.72
-22122.5
-1339.98
-25643
-9808.47
-26987.3
-16419
-28257.2
-11257.8
-20746.6
1425.69
-6279.75
10377.8
4971.66
11659.6
9253.4
3098.18
22594.9
-5804.46
41660.2
-2415.54
35034.1
18538.7
-86801.5
106313
-74780.8
-49503.5
11632.3
3088.56
-564.176
631.446
593.338
-1561.74
-9575.18
-17644.8
-18732.2
-15637.5
-12085.6
-6081.58
2028.57
24091.2
-134.411
-696.975
-184.553
-1115.79
-220.882
-1079.85
-257.583
-1051.83
-293.944
-1052.08
-336.863
-1049.17
-365.967
-1037.82
-385.193
-1030.58
-396.454
-1026.56
-400.501
-1021.75
-397.103
-1016.6
-386.208
-1011.17
-367.922
-1005.35
-342.424
-999.286
-310.388
-991.96
-273.381
-984.961
-233.822
-990.847
-180.43
-1030.61
-90.8742
-973.727
-332.914
-59.1839
-637.772
-102.611
-1072.34
-143.258
-1039.2
-182.391
-1012.67
-220.893
-1013.58
-255.456
-1014.58
-275.491
-1017.78
-288.188
-1017.86
-297.889
-1016.86
-304.283
-1015.34
-307.116
-1013.77
-306.392
-1011.88
-302
-1009.75
-293.689
-1007.59
-280.989
-1004.67
-264.29
-1001.66
-250.83
-1004.31
-239.89
-1041.56
-182.552
-1031.07
-515.467
-2.81297
-634.947
-8.40357
-1066.73
-15.8638
-1031.73
-23.3621
-1005.16
-31.0082
-1005.92
-39.6609
-1005.91
-51.6701
-1005.77
-64.1878
-1005.33
-75.44
-1005.61
-85.3247
-1005.45
-93.7497
-1005.35
-100.558
-1005.07
-105.704
-1004.61
-109.027
-1004.27
-110.315
-1003.38
-109.582
-1002.4
-111.608
-1002.29
-120.685
-1032.49
-92.8672
-1058.9
-608.334
14.1352
-649.084
10.1145
-1062.71
2.56012
-1024.18
-3.18149
-999.418
-8.85923
-1000.25
-14.2132
-1000.56
-18.5996
-1001.38
-22.4898
-1001.44
-26.282
-1001.82
-29.873
-1001.85
-33.1828
-1002.04
-36.1309
-1002.12
-38.6274
-1002.12
-40.6279
-1002.27
-42.0139
-1002
-42.502
-1001.91
-43.1792
-1001.61
-49.5806
-1026.09
-44.5592
-1063.92
-652.893
18.7382
-667.819
17.1927
-1061.16
12.0551
-1019.04
9.10138
-996.461
6.17646
-997.322
3.15196
-997.528
-0.102259
-998.128
-3.38406
-998.154
-6.58214
-998.623
-9.64637
-998.788
-12.5487
-999.14
-15.2716
-999.394
-17.7607
-999.626
-20.025
-1000
-21.9688
-1000.05
-23.5393
-1000.34
-25.14
-1000.01
-30.0142
-1021.21
-29.0839
-1064.85
-681.977
20.5312
-688.353
18.9708
-1059.6
13.9084
-1013.98
11.4541
-994.01
9.15942
-995.031
6.83792
-995.21
4.52687
-995.82
2.25364
-995.884
-0.0307016
-996.343
-2.30098
-996.521
-4.55133
-996.893
-6.78077
-997.167
-8.95041
-997.459
-11.0935
-997.862
-13.1298
-998.02
-15.0628
-998.409
-17.0276
-998.05
-21.8189
-1016.42
-23.2036
-1063.47
-705.18
20.8305
-709.186
18.8328
-1057.61
14.2306
-1009.38
12.1287
-991.91
10.1092
-993.014
8.05171
-993.155
5.95195
-993.723
3.8638
-993.799
1.76433
-994.245
-0.324224
-994.435
-2.40325
-994.816
-4.47933
-995.094
-6.52213
-995.418
-8.57396
-995.813
-10.5627
-996.033
-12.5231
-996.45
-14.4939
-996.08
-18.9391
-1011.98
-21.2754
-1061.13
-726.456
20.8365
-730.028
18.2656
-1055.04
13.9113
-1005.03
11.9806
-989.984
10.0969
-991.135
8.18427
-991.247
6.23948
-991.783
4.30734
-991.871
2.35526
-992.298
0.404737
-992.489
-1.55113
-992.865
-3.51773
-993.131
-5.47026
-993.469
-7.45047
-993.836
-9.39082
-994.097
-11.3371
-994.507
-13.2677
-994.152
-17.5057
-1007.74
-20.5771
-1058.06
-747.033
20.7201
-750.751
17.5241
-1051.85
13.4398
-1000.94
11.6346
-988.182
9.83199
-989.335
8.007
-989.425
6.14881
-989.927
4.30244
-990.027
2.43515
-990.433
0.56969
-990.626
-1.30407
-990.993
-3.18926
-991.248
-5.06524
-991.595
-6.97203
-991.931
-8.84534
-992.225
-10.739
-992.615
-12.5867
-992.306
-16.5801
-1003.75
-20.2841
-1054.36
-767.317
20.5763
-771.33
16.7544
-1048.03
12.9308
-997.124
11.2292
-986.482
9.49494
-987.603
7.74545
-987.678
5.96362
-988.148
4.19396
-988.26
2.40183
-988.643
0.612266
-988.838
-1.18875
-989.194
-3.00013
-989.439
-4.80642
-989.791
-6.64313
-990.097
-8.45028
-990.42
-10.2861
-990.781
-12.0492
-990.544
-15.7981
-1000
-20.1113
-1050.05
-787.428
20.4296
-791.761
15.9814
-1043.58
12.4238
-993.568
10.8132
-984.874
9.14199
-985.934
7.46158
-985.999
5.74949
-986.438
4.04966
-986.562
2.32661
-986.922
0.607454
-987.121
-1.12534
-987.463
-2.86617
-987.7
-4.60503
-988.054
-6.37206
-988.331
-8.11221
-988.681
-9.88661
-989.008
-11.5667
-988.865
-15.0624
-996.507
-19.9748
-1045.14
-807.403
20.2853
-812.048
15.2143
-1038.51
11.9261
-990.281
10.3987
-983.347
8.78988
-984.326
7.17722
-984.388
5.5336
-984.795
3.9022
-984.932
2.24688
-985.268
0.59676
-985.472
-1.0693
-985.798
-2.74054
-986.03
-4.41349
-986.382
-6.11117
-986.635
-7.7852
-987.008
-9.49735
-987.296
-11.0997
-987.263
-14.3391
-993.268
-19.8471
-1039.63
-827.25
20.1474
-832.197
14.4549
-1032.82
11.4391
-987.267
9.98796
-981.898
8.44207
-982.782
6.89647
-982.844
5.32058
-983.221
3.75665
-983.37
2.16832
-983.681
0.586157
-983.891
-1.01395
-984.2
-2.61621
-984.429
-4.22438
-984.775
-5.85258
-985.008
-7.46151
-985.401
-9.11032
-985.649
-10.64
-985.735
-13.6209
-990.288
-19.7217
-1033.53
-846.972
20.0188
-852.216
13.7036
-1026.51
10.9628
-984.527
9.58334
-980.519
8.10228
-981.302
6.62488
-981.367
5.11736
-981.714
3.6215
-981.874
2.10092
-982.162
0.586657
-982.378
-0.947157
-982.667
-2.48034
-982.896
-4.0246
-983.232
-5.58274
-983.45
-7.1282
-983.856
-8.71292
-984.065
-10.1761
-984.272
-12.8994
-987.565
-19.5902
-1026.84
-866.562
19.9096
-872.127
12.9645
-1019.56
10.5004
-982.064
9.18886
-979.208
7.77436
-979.888
6.36647
-979.96
4.9272
-980.276
3.49928
-980.447
2.04679
-980.71
0.599417
-980.931
-0.867798
-981.2
-2.33228
-981.433
-3.81339
-981.752
-5.30007
-981.964
-6.78395
-982.373
-8.30233
-982.547
-9.70403
-982.871
-12.1719
-985.098
-19.4461
-1019.57
-886.008
19.8436
-891.971
12.255
-1011.97
10.0746
-979.883
8.83359
-977.967
7.4901
-978.545
6.15612
-978.626
4.78569
-978.906
3.42428
-979.086
2.03805
-979.324
0.652447
-979.546
-0.752598
-979.795
-2.15524
-980.03
-3.57968
-980.327
-4.99944
-980.544
-6.43031
-980.942
-7.88207
-981.095
-9.2296
-981.524
-11.4471
-982.88
-19.2845
-1011.73
-905.293
19.8668
-911.838
11.6134
-1003.72
9.74451
-978.015
8.60132
-976.824
7.34987
-977.294
6.11177
-977.388
4.82789
-977.622
3.54491
-977.803
2.23465
-978.014
0.914484
-978.226
-0.427995
-978.453
-1.77624
-978.682
-3.15411
-978.95
-4.52412
-979.175
-5.92873
-979.538
-7.3325
-979.692
-8.66682
-980.19
-10.6716
-980.876
-19.0369
-1003.36
-924.33
20.076
-931.914
11.1015
-994.745
9.58931
-976.503
8.60434
-975.84
7.48275
-976.172
6.37112
-976.277
5.20249
-976.454
4.01734
-976.618
2.79957
-976.797
1.55832
-976.985
0.289796
-977.185
-0.996545
-977.396
-2.31775
-977.629
-3.63884
-977.854
-5.01986
-978.157
-6.37893
-978.333
-7.75856
-978.81
-9.59829
-979.036
-18.4199
-994.542
-942.75
20.7986
-952.713
11.0693
-985.016
9.9645
-975.398
9.25149
-975.127
8.35718
-975.278
7.43196
-975.352
6.42376
-975.446
5.3524
-975.547
4.21329
-975.658
3.00919
-975.781
1.74192
-975.918
0.417365
-976.072
-0.966908
-976.245
-2.38448
-976.436
-3.87375
-976.668
-5.32752
-976.879
-6.87811
-977.26
-8.53072
-977.384
-17.5625
-985.51
-960.312
22.2872
12.2711
11.8727
11.7459
11.4677
11.1159
10.67
10.1229
9.46512
8.68416
7.76614
6.69454
5.44963
4.01323
2.34505
0.465853
-1.7938
-4.17763
-14.6879
-678.681
1653.66
-1101.72
1398.01
-1533.83
1407.1
-1881.12
1322.27
-2189.21
1283.08
-2446.8
1232.58
-2661.8
1189.98
-2833.55
1146.73
-2963.48
1104.93
-3051.53
1063.04
-3097.52
1020.98
-3100.69
978.159
-3059.56
933.872
-2970.03
885.461
-2820.44
825.4
-2584.9
739.458
-2218.31
608.403
-1663.84
420.527
-900.567
211.727
74.4328
-197.396
1851.03
-439.794
1640.39
-697.282
1664.57
-909.223
1534.19
-1111.21
1485.05
-1277.92
1399.27
-1419.97
1332.02
-1532.26
1259.01
-1617.99
1190.64
-1677.24
1122.28
-1711.14
1054.87
-1719.35
986.353
-1700.53
915.045
-1650.98
835.905
-1560.74
735.156
-1406.77
585.475
-1160.76
362.387
-801.564
61.3262
-395.802
-194.046
-321.369
-120.994
1972.01
-267.858
1787.23
-377.899
1774.6
-442.49
1598.75
-497.082
1539.62
-515.624
1417.79
-518.083
1334.46
-496.253
1237.15
-457.208
1151.58
-400.986
1066.03
-330.618
984.48
-246.294
902.001
-148.024
816.755
-37.2766
725.129
79.1074
618.748
184.944
479.614
253.595
293.712
229.264
85.6289
113.316
-78.1257
-208.053
10.2404
1961.76
-9.14255
1806.6
-8.09383
1773.54
2.37713
1588.27
12.6594
1529.34
35.7075
1394.72
58.1063
1312.06
86.352
1208.88
116.623
1121.31
156.247
1026.39
211.718
929.006
286.816
826.884
379.488
724.083
491.78
612.822
628.258
482.27
765.851
342.016
826.478
233.087
702.128
209.982
406.304
217.703
198.251
-24.47
1986.21
-66.4976
1848.61
-100.415
1807.44
-148.31
1636.14
-196.122
1577.13
-251.299
1449.88
-315.958
1376.7
-389.483
1282.38
-469.092
1200.9
-538.802
1096.07
-579.696
969.888
-579.808
826.975
-540.107
684.371
-460.229
532.926
-341.122
363.147
-198.024
198.896
-53.0974
88.1314
68.2969
88.553
108.217
177.753
306.467
-44.699
2030.92
-137.809
1941.72
-207.809
1877.45
-289.256
1717.59
-371.934
1659.82
-459.857
1537.8
-556.047
1472.9
-657.474
1383.81
-766.081
1309.52
-873.084
1203.08
-970.053
1066.87
-1043.62
900.556
-1087.99
728.743
-1106.48
551.428
-1111.1
367.776
-1099.94
187.75
-1038.76
26.9553
-832.568
-117.641
-445.576
-209.239
-139.109
67.5511
1963.37
-36.9879
2046.26
-76.5078
1916.97
-108.225
1749.3
-134.445
1686.04
-158.24
1561.59
-175.887
1490.55
-186.991
1394.92
-193.39
1315.92
-202.809
1212.5
-223.819
1087.88
-257.232
933.969
-295.188
766.706
-334.71
590.954
-375.812
408.89
-409.788
221.74
-428.723
45.9007
-438.469
-107.885
-343.663
-304.036
-482.771
206.426
1756.96
157.951
2094.76
164.501
1910.45
198.419
1715.41
250.1
1634.38
301.29
1510.43
366.865
1425
439.167
1322.64
522.63
1232.48
602.651
1132.5
665.935
1024.62
696.971
902.956
692.609
771.086
651.728
631.855
572.043
488.598
453.833
339.976
312.897
186.873
198.229
6.82429
68.3347
-174.107
-414.436
230.706
1526.27
245.487
2079.99
264.917
1891.02
312.701
1667.65
381.902
1565.19
447.208
1445.15
520.818
1351.4
595.981
1247.5
677.508
1150.96
757.321
1052.71
827.816
954.127
877.423
853.365
898.023
750.49
884.292
645.598
833.255
539.64
742.534
430.704
610.653
318.759
427.302
190.179
213.276
39.9249
-201.16
163.99
1362.3
210.382
2033.62
239.947
1861.48
284.506
1623.11
346.239
1503.48
405.302
1386.11
466.769
1289.95
526.111
1188.19
585.021
1092.07
639.527
998.232
686.093
907.574
719.995
819.49
737.376
733.118
735.243
647.751
710.741
564.152
657.451
484.008
564.896
411.319
417.551
337.529
213.544
243.94
12.3839
69.638
1292.68
121.629
1981.65
173.966
1809.16
229.705
1567.4
294.598
1438.6
360.999
1319.74
428.096
1222.87
494.336
1121.98
559.275
1027.14
622.901
934.632
685.413
845.072
747.343
757.581
807.615
672.854
859.178
596.204
886.335
537.001
862.436
507.917
762.306
511.451
570.181
529.656
301.589
512.536
313.973
-43.9847
1336.68
15.0341
1922.64
91.2639
1732.94
141.801
1516.88
184.508
1395.9
223.78
1280.48
267.59
1179.07
324.588
1064.99
401.318
950.419
504.235
831.729
635.945
713.369
793.229
600.309
959.328
506.759
1099.98
455.565
1168.25
468.732
1122.99
553.177
950.382
684.065
667.495
812.545
331.967
848.067
645.94
-173.375
1510.06
-185.975
1935.25
-166.203
1713.18
-204.457
1555.14
-277.028
1468.49
-365.877
1369.34
-447.996
1261.21
-509.586
1126.6
-542.651
983.504
-544.732
833.826
-515.262
683.919
-454.884
539.952
-366.677
418.577
-253.913
342.826
-121.465
336.312
18.5704
413.167
130.954
571.701
166.963
776.551
102.039
913.008
747.98
-75.7874
1585.84
-218.126
2077.57
-377.903
1872.95
-534.906
1712.12
-707.912
1641.49
-900.2
1561.61
-1098.39
1459.39
-1293.53
1321.72
-1482.02
1172
-1664.85
1016.64
-1841.32
860.393
-2002.68
701.311
-2127.08
542.98
-2175.97
391.712
-2101.1
261.452
-1866.11
178.179
-1463.54
169.128
-923.39
236.41
-362.283
351.907
385.697
332.341
1253.49
381.709
2028.19
193.348
2061.3
-2.01732
1907.47
-151.469
1790.94
-283.159
1693.29
-415.923
1592.16
-558.549
1464.33
-708.818
1322.28
-863.759
1171.57
-1021.34
1017.98
-1179.36
859.325
-1332.1
695.727
-1467.83
527.442
-1564.99
358.622
-1587.71
200.896
-1483.86
65.2839
-1166.08
-81.364
-620.88
-193.288
-235.183
616.505
636.971
943.559
1701.12
892.185
2112.67
752.679
2046.96
669.866
1873.75
634.821
1728.31
615.037
1611.93
584.933
1494.41
538.768
1368.44
477.044
1233.27
402.245
1092.78
313.706
947.841
210.333
799.094
92.0794
645.678
-35.6478
486.338
-147.476
312.697
-195.583
113.367
-210.884
-66.0774
-188.479
-215.701
-423.662
396.5
240.456
565.372
1532.23
572.835
2105.2
559.413
2060.37
577.186
1855.97
626.375
1679.1
692.573
1545.73
758.071
1428.89
813.559
1312.95
854.705
1192.1
880.48
1067
889.05
939.259
877.531
810.617
841.592
681.609
775.013
552.92
666.363
421.346
493.886
285.847
292.318
135.497
128.372
-51.7481
-295.29
-30.5722
271.012
-101.835
1603.48
-58.4659
2061.83
42.6157
1959.27
149.713
1748.88
254.842
1573.95
356.578
1444
453.503
1331.95
540.383
1226.08
612.787
1119.68
667.548
1012.25
702.041
904.755
713.845
798.818
700.471
694.976
659.539
593.856
588.525
492.362
484.964
389.413
347.188
273.284
164.341
131.114
-130.948
-176.429
447.439
-309.276
1736.32
-272.194
2024.75
-186.872
1873.94
-99.1254
1661.13
-14.7183
1489.54
76.1782
1353.1
164.839
1243.28
245.531
1145.39
313.884
1051.32
367.425
958.713
404.963
867.214
426.25
777.543
431.567
689.661
421.785
603.654
396.048
518.106
348.906
436.577
266.876
355.341
130.453
267.599
-0.491716
-170.577
-26.4851
193.272
378.4
523.774
645.272
710.279
773.086
820.162
851.428
865.549
861.195
837.902
796.105
737.724
663.292
569.468
443.766
262.582
)
;

boundaryField
{
    outletWall
    {
        type            calculated;
        value           nonuniform List<scalar> 
60
(
9175.91
22716.8
2349.24
22996
6545.79
-7408.33
-9722.52
-692.946
5127.32
8484.93
12958.1
12239.4
10550.2
-13770.3
-25617.6
-72963.5
-18126.8
-155937
-176509
439496
66796.6
-54517.5
-245.217
-18662.4
-7247.03
-8978.51
-3858.84
-2071.82
2098.39
4681.09
2453.71
-514.089
-3830.75
-5195.15
-9894.67
-8227.93
-19679.6
-119.37
-55853.6
70319.3
41189.2
26127
12971.5
33550.1
16590.8
5701.53
1876.98
-5192.43
-12676.9
-20243.8
-24832.2
-25604.9
-23318.1
-23132.6
-22932.5
-51075.2
-15760.7
-149205
-161858
417479
)
;
    }
    fineWalls
    {
        type            calculated;
        value           uniform 0;
    }
    fineFrontAndBack
    {
        type            calculated;
        value           nonuniform List<scalar> 
960
(
-1.35988e-10
1.09974e-10
-1.57781e-11
-9.23226e-12
-2.50579e-11
2.4547e-12
7.65323e-12
8.69661e-12
-1.72775e-11
-3.03267e-11
-5.15706e-11
-2.99535e-10
-4.17133e-11
-4.38541e-11
-1.26734e-10
-4.1732e-12
-4.20453e-12
-8.76967e-12
-1.94234e-12
-3.32878e-12
-7.46656e-13
-9.87969e-13
-7.01896e-13
-8.60007e-13
-1.06303e-12
-1.40028e-12
-2.6564e-11
-8.72535e-13
-8.86354e-13
-8.67338e-13
-8.68056e-13
-8.6377e-13
-8.68191e-13
-8.65068e-13
-8.83659e-13
-8.66254e-13
-8.09607e-13
-5.86615e-13
2.63298e-13
2.70094e-12
2.84997e-10
4.77819e-11
4.37294e-11
4.23886e-11
3.53811e-10
1.35132e-10
1.42226e-10
1.19638e-10
6.10822e-10
1.65621e-10
2.52987e-10
1.969e-09
2.63367e-10
1.52605e-10
6.43015e-11
7.29301e-11
5.13666e-12
-1.43542e-12
8.30732e-13
-2.68089e-12
-1.55002e-13
-4.66609e-13
-5.31727e-13
-4.43276e-13
-1.99259e-13
4.70971e-14
2.2321e-13
3.35055e-13
3.63797e-13
3.59392e-13
3.48913e-13
3.21203e-13
2.59291e-13
-2.23764e-12
-7.27453e-14
-3.26147e-13
-5.02662e-13
-7.80466e-13
-1.11393e-12
-1.6298e-12
-9.86838e-12
-9.60087e-12
-5.27602e-11
-1.03209e-11
-1.3701e-11
-8.65072e-11
-1.52787e-11
-1.74164e-11
-6.52786e-11
-7.08828e-12
-1.19662e-11
-5.62681e-11
-1.7066e-11
-1.85401e-11
-1.73275e-11
-4.54883e-11
-5.75128e-12
-1.12411e-12
-2.01806e-10
1.02119e-10
-1.11529e-08
-1.99708e-10
5.59696e-10
-1.59646e-10
2.05094e-11
-4.8577e-12
-1.57437e-11
7.3368e-13
-7.07413e-12
-2.16493e-11
-2.60205e-11
-1.82463e-11
-1.08031e-12
-1.08312e-11
-3.42308e-11
-5.4222e-11
-6.59723e-11
-2.1599e-11
-2.8299e-11
3.34999e-09
2.26299e-10
7.281e-10
-8.4017e-11
3.60796e-11
-1.647e-11
4.421e-11
1.39585e-10
7.30608e-11
1.88198e-11
-8.83227e-13
-6.23814e-12
-1.45174e-11
-4.35471e-11
-2.46683e-11
1.32977e-11
1.34583e-11
5.75711e-12
3.11199e-11
-3.8616e-11
5.11572e-10
7.70578e-10
2.6727e-10
-5.20298e-11
5.73294e-11
2.91777e-10
2.75436e-10
1.58757e-10
5.48084e-11
9.29047e-12
-4.28414e-12
-4.06984e-11
-5.09784e-11
1.02526e-11
4.96493e-11
2.70405e-11
4.57694e-12
1.35623e-11
6.95935e-10
9.38326e-10
7.57839e-10
2.64954e-10
-3.23343e-11
1.58138e-10
4.45955e-10
3.86537e-10
2.43929e-10
1.08131e-10
3.06383e-11
-1.14546e-11
-6.02e-11
-3.0472e-11
7.49667e-11
1.45283e-10
8.31055e-11
1.87775e-11
-1.26308e-11
4.93304e-10
9.17125e-10
7.40099e-10
2.45266e-10
-1.54271e-11
2.34654e-10
4.98936e-10
4.29789e-10
2.86274e-10
1.53511e-10
5.74374e-11
-2.14951e-11
-6.05155e-11
2.25912e-11
1.79353e-10
2.64885e-10
1.6034e-10
5.01491e-11
-1.63443e-11
5.40281e-10
9.12091e-10
7.11435e-10
2.36079e-10
3.69595e-11
3.60859e-10
5.40413e-10
4.04248e-10
2.55425e-10
1.59368e-10
7.22728e-11
-2.58491e-11
-3.49634e-11
1.03783e-10
2.98987e-10
3.5988e-10
2.28013e-10
9.61744e-11
-9.04278e-12
5.11272e-10
8.94832e-10
6.83457e-10
2.29502e-10
7.86784e-11
5.08752e-10
5.33318e-10
3.04092e-10
1.52617e-10
1.0896e-10
5.58635e-11
-1.87969e-11
1.10782e-11
1.85427e-10
3.93904e-10
4.13005e-10
2.55358e-10
1.41241e-10
1.87424e-11
4.97421e-10
8.67182e-10
6.60347e-10
2.59771e-10
9.42121e-11
5.47978e-10
4.39678e-10
1.64178e-10
3.89476e-11
3.05344e-11
3.03375e-11
6.76728e-12
6.92293e-11
2.45452e-10
4.42064e-10
4.48601e-10
2.53231e-10
1.6408e-10
7.78542e-11
4.55627e-10
8.38992e-10
6.43393e-10
3.70026e-10
4.53185e-10
5.64101e-10
2.85238e-10
5.00163e-11
-2.20526e-12
-3.54217e-12
1.88011e-11
3.41853e-11
1.35102e-10
3.00312e-10
4.34939e-10
4.73126e-10
2.38528e-10
1.53864e-10
1.45443e-10
3.48475e-10
8.10728e-10
7.36242e-10
6.20748e-10
6.77726e-10
3.87467e-10
8.90702e-11
5.88961e-12
2.00593e-11
1.16845e-11
2.0027e-11
1.0224e-10
2.04664e-10
3.17894e-10
7.48355e-10
4.77603e-10
2.05859e-10
1.36176e-10
9.40426e-11
7.39671e-11
2.36005e-10
3.70479e-10
4.20793e-10
2.83724e-10
4.88959e-11
-2.01539e-11
6.6407e-12
2.31868e-11
1.69793e-11
2.45749e-11
1.54021e-10
2.66906e-10
3.6157e-10
5.2823e-10
3.2389e-10
1.73034e-10
1.32445e-10
7.07406e-12
-1.29545e-11
-5.50723e-12
-2.40461e-11
-2.95661e-11
-2.36789e-11
-1.58521e-11
-5.68563e-12
-1.32373e-12
1.38068e-11
1.66078e-11
2.8337e-11
1.63095e-10
2.94853e-10
3.94284e-10
4.21735e-10
2.69223e-10
1.48505e-10
1.1389e-10
3.99319e-11
-2.06163e-11
3.21801e-12
-1.55053e-12
-3.59592e-12
-3.55504e-11
-5.94894e-12
-1.28196e-11
-8.84302e-12
4.94132e-12
1.84268e-11
3.09411e-11
1.36961e-10
2.59574e-10
3.40367e-10
3.18903e-10
1.91003e-10
1.14519e-10
9.46669e-11
1.1556e-10
-1.5234e-11
-7.48045e-13
-6.13523e-12
-1.25313e-11
-1.8068e-11
-4.40595e-12
-1.33047e-11
-1.74716e-11
-7.11128e-12
1.59703e-11
3.11239e-11
9.99037e-11
1.83116e-10
2.24994e-10
1.95677e-10
1.23543e-10
8.85028e-11
8.96706e-11
8.33645e-11
-1.00334e-11
-2.63858e-12
-7.57256e-12
-1.42799e-11
-6.46767e-12
3.49214e-14
-7.57583e-12
-2.01773e-11
-1.95991e-11
4.39855e-12
2.57179e-11
6.88558e-11
1.12898e-10
1.28171e-10
1.08919e-10
7.76706e-11
7.15534e-11
8.00339e-11
5.71843e-11
-5.96395e-12
-4.43241e-12
-9.60292e-12
-1.6801e-11
-3.29059e-12
1.60368e-12
-8.37485e-13
-1.38558e-11
-2.65491e-11
-9.47666e-12
2.37685e-11
4.93773e-11
6.94043e-11
7.32471e-11
6.00197e-11
5.19039e-11
6.35775e-11
6.80508e-11
1.71775e-11
-5.04844e-12
-9.99137e-12
-1.18214e-11
-1.8941e-11
-6.41015e-12
8.2284e-13
6.08078e-13
-3.51254e-12
-2.13202e-11
-2.0471e-11
1.0404e-11
3.62261e-11
4.82662e-11
4.6782e-11
3.66558e-11
4.78644e-11
5.96748e-11
4.98336e-11
-2.17137e-11
8.67868e-12
1.19529e-11
-1.362e-11
-1.93715e-11
-7.66739e-12
7.99e-14
2.98733e-14
1.17012e-12
-7.01589e-12
-2.02062e-11
-4.73488e-12
2.84706e-11
3.74214e-11
2.97318e-11
2.56099e-11
5.22404e-11
3.55078e-11
1.40897e-11
-4.37716e-11
-4.2738e-11
5.67064e-12
-1.4843e-11
-9.59089e-12
-6.63302e-12
-5.05559e-13
-6.89179e-14
1.38298e-13
1.83884e-12
-6.76231e-12
-1.22822e-11
7.40044e-12
3.16229e-11
2.92635e-11
5.01189e-11
7.81744e-11
2.46796e-11
3.61336e-12
-7.65201e-12
2.27793e-10
5.20482e-12
-1.02939e-11
1.41159e-12
-8.00719e-13
-2.04357e-13
1.82767e-15
-1.15979e-13
2.30822e-13
1.99259e-12
-3.68485e-12
-5.58178e-12
7.65629e-12
1.88102e-11
1.82111e-11
-5.7594e-12
-9.61747e-11
-4.40387e-11
-1.58372e-10
1.35988e-10
-1.09974e-10
1.57781e-11
9.23226e-12
2.50579e-11
-2.4547e-12
-7.65323e-12
-8.69661e-12
1.72775e-11
3.03267e-11
5.15706e-11
2.99535e-10
4.17133e-11
4.38541e-11
1.26734e-10
4.1732e-12
4.20453e-12
8.76967e-12
1.94234e-12
3.32878e-12
7.46656e-13
9.87969e-13
7.01896e-13
8.60007e-13
1.06303e-12
1.40028e-12
2.6564e-11
8.72535e-13
8.86354e-13
8.67338e-13
8.68056e-13
8.6377e-13
8.68191e-13
8.65068e-13
8.83659e-13
8.66254e-13
8.09607e-13
5.86615e-13
-2.63298e-13
-2.70094e-12
-2.84997e-10
-4.77819e-11
-4.37294e-11
-4.23886e-11
-3.53811e-10
-1.35132e-10
-1.42226e-10
-1.19638e-10
-6.10822e-10
-1.65621e-10
-2.52987e-10
-1.969e-09
-2.63367e-10
-1.52605e-10
-6.43015e-11
-7.29301e-11
-5.13666e-12
1.43542e-12
-8.30732e-13
2.68089e-12
1.55002e-13
4.66609e-13
5.31727e-13
4.43276e-13
1.99259e-13
-4.70971e-14
-2.2321e-13
-3.35055e-13
-3.63797e-13
-3.59392e-13
-3.48913e-13
-3.21203e-13
-2.59291e-13
2.23764e-12
7.27453e-14
3.26147e-13
5.02662e-13
7.80466e-13
1.11393e-12
1.6298e-12
9.86838e-12
9.60087e-12
5.27602e-11
1.03209e-11
1.3701e-11
8.65072e-11
1.52787e-11
1.74164e-11
6.52786e-11
7.08828e-12
1.19662e-11
5.62681e-11
1.7066e-11
1.85401e-11
1.73275e-11
4.54883e-11
5.75128e-12
1.12411e-12
2.01806e-10
-1.02119e-10
1.11529e-08
1.99708e-10
-5.59696e-10
1.59646e-10
-2.05094e-11
4.8577e-12
1.57437e-11
-7.3368e-13
7.07413e-12
2.16493e-11
2.60205e-11
1.82463e-11
1.08031e-12
1.08312e-11
3.42308e-11
5.4222e-11
6.59723e-11
2.1599e-11
2.8299e-11
-3.34999e-09
-2.26299e-10
-7.281e-10
8.4017e-11
-3.60796e-11
1.647e-11
-4.421e-11
-1.39585e-10
-7.30608e-11
-1.88198e-11
8.83227e-13
6.23814e-12
1.45174e-11
4.35471e-11
2.46683e-11
-1.32977e-11
-1.34583e-11
-5.75711e-12
-3.11199e-11
3.8616e-11
-5.11572e-10
-7.70578e-10
-2.6727e-10
5.20298e-11
-5.73294e-11
-2.91777e-10
-2.75436e-10
-1.58757e-10
-5.48084e-11
-9.29047e-12
4.28414e-12
4.06984e-11
5.09784e-11
-1.02526e-11
-4.96493e-11
-2.70405e-11
-4.57694e-12
-1.35623e-11
-6.95935e-10
-9.38326e-10
-7.57839e-10
-2.64954e-10
3.23343e-11
-1.58138e-10
-4.45955e-10
-3.86537e-10
-2.43929e-10
-1.08131e-10
-3.06383e-11
1.14546e-11
6.02e-11
3.0472e-11
-7.49667e-11
-1.45283e-10
-8.31055e-11
-1.87775e-11
1.26308e-11
-4.93304e-10
-9.17125e-10
-7.40099e-10
-2.45266e-10
1.54271e-11
-2.34654e-10
-4.98936e-10
-4.29789e-10
-2.86274e-10
-1.53511e-10
-5.74374e-11
2.14951e-11
6.05155e-11
-2.25912e-11
-1.79353e-10
-2.64885e-10
-1.6034e-10
-5.01491e-11
1.63443e-11
-5.40281e-10
-9.12091e-10
-7.11435e-10
-2.36079e-10
-3.69595e-11
-3.60859e-10
-5.40413e-10
-4.04248e-10
-2.55425e-10
-1.59368e-10
-7.22728e-11
2.58491e-11
3.49634e-11
-1.03783e-10