/*--------------------------------*- C++ -*----------------------------------*\
| =========                 |                                                 |
| \\      /  F ield         | OpenFOAM: The Open Source CFD Toolbox           |
|  \\    /   O peration     | Version:  4.1                                   |
|   \\  /    A nd           | Web:      www.OpenFOAM.org                      |
|    \\/     M anipulation  |                                                 |
\*---------------------------------------------------------------------------*/
FoamFile
{
    version     2.0;
    format      ascii;
    class       volVectorField;
    location    "19";
    object      U;
}
// * * * * * * * * * * * * * * * * * * * * * * * * * * * * * * * * * * * * * //

dimensions      [0 1 -1 0 0 0 0];

internalField   nonuniform List<vector> 
1280
(
(-9.82751e-14 -26.7634 -106.301)
(1.86911e-14 29.8126 17.1446)
(-1.20186e-14 -13.5405 -4.9069)
(-6.67191e-15 -5.7715 -4.50568)
(-4.25884e-15 -11.8475 -6.89211)
(1.77395e-15 -7.52927 -5.91576)
(5.53079e-15 -7.3941 -6.83483)
(5.99298e-15 -5.65058 -6.97154)
(-1.76912e-15 -7.6965 -7.84859)
(-2.19163e-14 -4.40121 -2.90618)
(-3.72687e-14 -4.23511 -3.94589)
(-5.45241e-14 -5.57565 -5.72353)
(-3.01451e-14 -4.10901 -4.23224)
(-3.19628e-14 -3.32523 -5.66245)
(-2.37045e-14 -4.98907 -6.78076)
(-3.01586e-15 -3.27376 -2.91845)
(-3.03851e-15 -2.96152 -3.0174)
(-1.49049e-15 -3.43866 1.38644)
(-1.40368e-15 -2.42823 7.78954)
(-2.40562e-15 -5.09461 11.2773)
(-3.0632e-15 -5.10698 14.8011)
(-4.05321e-15 -5.09666 16.6796)
(-2.87957e-15 -5.26285 15.3598)
(-3.52824e-15 -5.04518 15.2113)
(-4.36116e-15 -5.16102 15.3625)
(-5.74476e-15 -4.85037 16.3416)
(-5.5998e-15 -11.3689 17.0457)
(-3.57963e-15 -2.17939 16.7691)
(-3.63633e-15 -2.87469 16.2753)
(-3.55831e-15 -2.64815 15.8413)
(-3.56126e-15 -2.8529 15.3859)
(-3.54367e-15 -2.82586 14.909)
(-3.56181e-15 -2.88731 14.434)
(-3.549e-15 -2.8884 13.9706)
(-3.62527e-15 -2.87856 13.5554)
(-3.55386e-15 -2.82922 13.26)
(-3.32147e-15 -2.93198 13.1291)
(-2.40662e-15 -2.90685 12.6462)
(1.0802e-15 -2.15737 10.2236)
(1.10808e-14 -2.78702 5.58926)
(4.96078e-14 -3.24054 4.50085)
(3.8379e-14 -1.64522 -0.889762)
(3.5124e-14 -1.83611 0.00432518)
(3.51912e-14 -1.54465 -0.544215)
(6.61625e-14 -1.88082 -1.20659)
(1.08539e-13 -0.0773264 -0.0103478)
(1.14237e-13 -0.243298 0.109878)
(9.60949e-14 -0.0623335 -0.0320986)
(1.2317e-13 0.349643 -0.573223)
(1.35945e-13 0.999422 0.36536)
(2.03202e-13 0.825841 0.64456)
(3.42733e-13 1.75877 1.50781)
(2.1154e-13 1.5751 2.53072)
(1.22574e-13 1.53094 3.36059)
(5.16478e-14 0.808353 3.53557)
(1.26945e-14 0.527313 8.0344)
(7.63356e-15 0.686277 7.66724)
(-1.15295e-15 -0.530034 8.44179)
(6.67255e-16 -1.62294 8.91847)
(1.02435e-15 -2.76801 13.4553)
(-6.35906e-16 -3.87364 11.7592)
(-1.91429e-15 -4.04948 12.2051)
(-2.18145e-15 -4.10502 11.9016)
(-1.81857e-15 -4.21332 12.1665)
(-8.17472e-16 -4.28216 12.474)
(1.93219e-16 -4.35498 12.7509)
(9.15732e-16 -4.40018 12.8914)
(1.37459e-15 -4.42627 12.9648)
(1.4925e-15 -4.43009 13.0653)
(1.47443e-15 -4.43045 13.2582)
(1.43144e-15 -4.41437 13.5559)
(1.31776e-15 -4.37534 13.9029)
(1.06376e-15 -4.39585 14.1141)
(-4.71704e-16 0.830699 10.4717)
(-2.98442e-16 -3.54283 11.4481)
(-1.33804e-15 -2.72019 11.7731)
(-2.0622e-15 -2.59318 11.6171)
(-3.20191e-15 -2.28056 10.0875)
(-4.56996e-15 -2.69912 5.77969)
(-6.68637e-15 -2.40384 -1.49212)
(-7.13162e-15 -2.21548 -4.42003)
(-6.9383e-15 -2.15785 -3.28363)
(-8.9671e-15 -2.89369 -4.66367)
(-7.45865e-15 -3.48596 -3.83418)
(-9.90134e-15 -2.61561 -4.36551)
(-1.58867e-14 -2.99022 -5.63394)
(-1.13926e-14 -3.25977 -4.34655)
(-1.29375e-14 -2.25418 -4.99301)
(-1.24992e-14 -2.25543 -6.79527)
(-5.30516e-15 -2.34758 -6.44857)
(-8.64767e-15 -1.31519 -7.25528)
(-1.27703e-14 0.972517 -9.37594)
(-1.268e-14 0.147813 -6.53437)
(-1.33984e-14 1.00701 -6.26687)
(-1.25221e-14 2.5831 -5.48595)
(-7.73117e-15 1.54164 -6.24795)
(-4.1563e-15 1.72698 -4.32132)
(-7.32477e-16 4.78435 -10.2085)
(-3.32596e-14 -10.519 37.9907)
(7.37989e-14 -9.75871 -170.425)
(-1.23921e-12 724.314 431.149)
(-2.21898e-14 -76.8402 -183.642)
(6.21885e-14 -134.996 -35.0691)
(-1.77384e-14 -21.3702 127.499)
(2.27882e-15 -38.6229 -12.9639)
(-5.39745e-16 -13.624 18.8332)
(-1.7493e-15 -4.8545 12.5029)
(8.152e-17 14.3392 14.2902)
(-7.86015e-16 14.6806 0.2425)
(-2.40548e-15 15.4996 -6.46289)
(-2.89117e-15 13.4715 -15.7261)
(-2.02737e-15 7.07654 -17.3375)
(-1.20035e-16 -1.65589 -6.7623)
(-1.20346e-15 -6.81626 2.64169)
(-3.80342e-15 -2.32082 10.7341)
(-6.02467e-15 13.456 13.3322)
(-7.33025e-15 27.1663 3.01815)
(-2.39989e-15 9.36335 7.3738)
(-3.14433e-15 38.1485 -44.7003)
(3.72221e-13 -212.399 -157.4)
(2.51443e-14 29.0353 206.312)
(8.09e-14 -125.445 -39.9762)
(-9.33522e-15 26.317 91.6637)
(4.00884e-15 -1.67046 -14.7797)
(-1.83001e-15 -15.6422 29.7982)
(4.91222e-15 -5.10065 11.0827)
(1.55094e-14 3.60639 6.14306)
(8.11787e-15 6.12877 -0.607986)
(2.09108e-15 4.77179 -2.93929)
(-9.81363e-17 1.21454 -6.02338)
(-6.93127e-16 -3.2042 -9.81503)
(-1.61305e-15 -6.14474 -1.57136)
(-4.83857e-15 -9.11299 8.31254)
(-2.74092e-15 -6.88966 11.8405)
(1.47752e-15 -1.62334 9.68668)
(1.49537e-15 2.67047 8.44828)
(6.39678e-16 9.7831 2.34442)
(3.45776e-15 -18.3797 -1.82922)
(-4.29066e-15 245.98 -3.97663)
(5.68414e-14 48.4292 -5.22007)
(8.56198e-14 -94.5594 -32.5424)
(2.96967e-14 -17.668 3.56721)
(-5.78109e-15 0.27402 28.7905)
(6.36993e-15 -14.4996 24.8289)
(3.24196e-14 3.74348 8.17559)
(3.0604e-14 11.8622 0.806425)
(1.76397e-14 11.6287 -5.29433)
(6.08982e-15 10.6077 -6.00803)
(1.03227e-15 8.74675 -8.31544)
(-4.76016e-16 -1.72045 -7.06115)
(-4.52205e-15 -9.34421 3.71438)
(-5.66426e-15 -9.84408 10.3952)
(1.13918e-15 -4.21592 12.6378)
(5.51659e-15 7.02467 12.5369)
(3.0045e-15 14.6882 8.32916)
(5.08549e-16 13.2741 4.54853)
(1.50692e-15 9.59414 -2.09738)
(7.73261e-14 25.0346 -24.6366)
(1.04258e-13 -50.5934 95.0136)
(8.42044e-14 -90.4645 -21.9086)
(2.94393e-14 -8.73062 13.476)
(-3.59271e-15 -7.90309 21.7441)
(1.75709e-14 -9.45561 17.0364)
(4.95506e-14 5.28653 0.626474)
(4.29486e-14 12.7183 -6.67726)
(2.71033e-14 11.1416 -11.3911)
(1.20145e-14 8.84897 -10.0699)
(3.40426e-15 5.33142 -9.05301)
(-1.27274e-15 -5.026 -3.90774)
(-6.68888e-15 -12.6132 5.86489)
(-3.38577e-15 -11.8074 10.0088)
(8.32964e-15 -6.2721 12.5299)
(1.61425e-14 4.46355 11.5505)
(9.23394e-15 12.2697 8.5517)
(2.08639e-15 14.4465 5.44534)
(-1.40343e-15 4.99395 1.05926)
(5.48116e-14 108.197 -3.57278)
(1.01903e-13 37.1422 39.119)
(8.22332e-14 -80.4549 -10.5218)
(2.72518e-14 -14.9837 17.1907)
(-1.71412e-15 -8.93643 11.4561)
(2.60727e-14 -4.42158 12.5948)
(5.54373e-14 11.0264 -6.06115)
(4.77544e-14 16.093 -13.9327)
(3.18082e-14 12.0699 -17.9778)
(1.70568e-14 8.56173 -15.8102)
(6.38193e-15 4.64181 -11.545)
(-2.38835e-15 -8.39199 -1.68624)
(-6.72394e-15 -15.0394 5.80907)
(2.51014e-15 -12.8659 8.85228)
(1.99281e-14 -6.16872 11.2379)
(2.94316e-14 6.82172 9.49506)
(1.78156e-14 14.7909 6.79058)
(5.57213e-15 16.0193 5.04612)
(-1.81604e-15 10.1302 4.88684)
(6.00313e-14 51.0821 9.65673)
(1.01343e-13 -20.1309 55.1335)
(7.90483e-14 -69.2962 -0.762632)
(2.6231e-14 -19.5221 14.4213)
(4.10662e-15 -8.39996 7.04641)
(4.00955e-14 -0.954891 7.66908)
(6.00459e-14 16.2875 -13.8641)
(4.49164e-14 18.577 -20.0781)
(2.83805e-14 12.1228 -22.7265)
(1.77075e-14 6.53657 -20.91)
(8.03031e-15 0.719245 -13.8587)
(-2.87212e-15 -12.0228 -0.335136)
(-3.88482e-15 -16.7543 4.43182)
(1.15315e-14 -13.5716 6.72549)
(3.32208e-14 -6.6469 8.17842)
(3.99867e-14 7.01079 6.17699)
(2.53348e-14 14.8932 4.66502)
(1.0686e-14 15.7728 3.25416)
(-1.00475e-15 12.1186 8.75896)
(5.68081e-14 59.6043 22.1718)
(9.94258e-14 3.41387 40.4582)
(7.59396e-14 -59.2532 6.02779)
(2.55002e-14 -19.6335 8.0566)
(8.74205e-15 -7.21127 5.40995)
(5.6528e-14 3.67601 -7.39629)
(5.92575e-14 20.2516 -22.1022)
(3.3788e-14 20.1457 -22.971)
(1.69575e-14 12.2282 -23.1495)
(1.21067e-14 4.70291 -22.7392)
(6.20706e-15 -3.50413 -13.8568)
(-2.08854e-15 -15.5106 -0.0977962)
(1.23091e-15 -17.8927 2.17183)
(2.0603e-14 -13.874 3.66234)
(4.37671e-14 -6.5873 4.489)
(4.58895e-14 7.79597 1.99031)
(2.83731e-14 15.6166 2.16071)
(1.56935e-14 14.5572 0.782485)
(2.08249e-15 11.999 10.8689)
(5.5269e-14 35.4258 31.5341)
(9.63535e-14 -6.53631 37.7991)
(7.33719e-14 -49.6443 10.3466)
(2.88635e-14 -19.4924 -2.69679)
(1.0468e-14 -2.17359 6.45374)
(6.08865e-14 13.3045 -21.0078)
(4.88531e-14 22.3077 -27.4975)
(1.8242e-14 19.4847 -20.4196)
(4.32751e-15 11.7929 -17.9071)
(3.39271e-15 2.96398 -19.6361)
(3.37083e-15 -8.01481 -11.8318)
(7.5192e-16 -18.2237 -0.890655)
(7.69214e-15 -18.4775 -0.589931)
(2.72724e-14 -13.9201 0.0475787)
(4.91182e-14 -6.90763 0.923774)
(4.98446e-14 8.08139 -3.03598)
(2.81367e-14 15.5839 -1.5587)
(1.82311e-14 12.4642 -1.7769)
(8.65047e-15 7.85683 8.67032)
(5.06253e-14 27.807 40.4031)
(9.32213e-14 -2.86787 34.8105)
(7.14881e-14 -37.3649 12.3501)
(4.1114e-14 -18.8784 -16.1441)
(5.03539e-14 -1.44253 -20.6042)
(6.26779e-14 16.1299 -33.0683)
(3.16931e-14 19.919 -26.2568)
(5.55737e-15 16.5513 -13.2808)
(-2.45028e-16 11.3641 -10.5104)
(-3.93575e-16 2.29199 -14.4487)
(2.08901e-15 -11.4342 -9.7515)
(3.79837e-15 -19.796 -2.53219)
(1.50113e-14 -18.5487 -3.5716)
(3.3368e-14 -13.7258 -3.68018)
(4.83265e-14 -6.32244 -3.58502)
(5.25696e-14 8.52272 -8.22684)
(2.65031e-14 15.26 -6.29065)
(1.7096e-14 11.2357 -4.71777)
(1.61603e-14 5.95293 -0.558014)
(3.87194e-14 11.3535 46.7025)
(9.00809e-14 -2.2534 36.2951)
(8.18047e-14 -22.5339 13.5473)
(6.8972e-14 -11.7247 -24.9042)
(7.53029e-14 3.27881 -37.4666)
(4.30519e-14 15.0211 -34.0172)
(1.00757e-14 14.2877 -17.1573)
(6.54401e-16 13.4318 -6.06182)
(2.22881e-15 11.864 -6.24785)
(1.29828e-15 2.79297 -11.3497)
(2.22522e-15 -13.4223 -8.95048)
(1.20416e-14 -20.3887 -4.93626)
(2.27405e-14 -18.2808 -6.78445)
(3.53216e-14 -13.3195 -7.52984)
(9.02759e-14 -5.4323 -8.68543)
(5.3067e-14 8.85938 -13.5856)
(2.28733e-14 14.3953 -10.8955)
(1.51306e-14 10.184 -7.41385)
(1.04492e-14 2.955 -3.89488)
(8.21857e-15 0.191654 51.0537)
(2.62227e-14 -1.72714 39.6421)
(4.11643e-14 -4.57506 16.2949)
(4.67547e-14 -2.98727 -28.2159)
(3.15249e-14 4.09227 -39.149)
(5.43287e-15 8.77714 -19.6346)
(-2.08451e-15 8.52048 -4.6465)
(7.37856e-16 12.8144 -1.33319)
(2.57631e-15 13.1803 -3.7453)
(1.88659e-15 3.73172 -8.86061)
(2.73055e-15 -14.2421 -9.5614)
(1.71135e-14 -20.2971 -7.99521)
(2.96562e-14 -17.7382 -10.1804)
(4.01744e-14 -12.5769 -11.3766)
(5.86922e-14 -4.19455 -13.796)
(3.59878e-14 9.10115 -18.9514)
(1.9226e-14 13.0375 -15.1117)
(1.47162e-14 8.45603 -10.2411)
(7.86007e-16 1.64503 -5.44298)
(-1.43939e-15 -17.176 48.8254)
(-6.11914e-16 2.0673 42.5066)
(-2.67178e-15 17.6449 19.7045)
(-3.28512e-15 8.49967 -25.484)
(-2.63099e-15 2.16467 -27.9641)
(-1.76135e-15 1.64068 -0.154774)
(-6.31736e-16 7.05075 -0.409235)
(-1.47082e-16 13.4268 2.3313)
(1.53409e-15 14.6618 -0.924064)
(1.84531e-15 5.10811 -4.4171)
(3.14856e-15 -13.8076 -11.0857)
(1.81216e-14 -19.8393 -12.0656)
(3.27615e-14 -17.1239 -14.1633)
(4.38093e-14 -11.5753 -15.7671)
(4.68594e-14 -2.67422 -19.881)
(2.99137e-14 9.01466 -24.0827)
(1.65005e-14 11.1752 -18.6359)
(1.26545e-14 6.55645 -12.6019)
(4.43688e-15 -1.07665 -7.47721)
(-2.2907e-15 -27.5411 39.4908)
(3.57557e-16 1.56935 43.2706)
(-1.72281e-16 33.0408 17.5814)
(-3.99547e-16 8.76336 -13.2782)
(-3.95005e-15 -4.98958 -2.62913)
(-6.60993e-16 0.146249 5.1432)
(-1.4244e-15 6.37944 1.0873)
(-9.82558e-16 13.6589 5.09847)
(5.49035e-16 15.6967 2.64372)
(2.04743e-15 7.38285 1.13024)
(3.4379e-15 -11.2759 -11.9823)
(1.52179e-14 -18.8104 -17.4198)
(2.88416e-14 -16.3537 -20.2607)
(3.78185e-14 -10.0104 -22.8678)
(3.54336e-14 -0.833076 -27.5244)
(2.12226e-14 8.13264 -28.0103)
(1.27243e-14 8.69423 -20.8197)
(1.05185e-14 4.2187 -14.0754)
(1.284e-14 -2.92174 -6.11639)
(-1.69267e-15 -53.837 29.6292)
(-8.31161e-17 -1.69444 45.1305)
(-6.81693e-16 46.2109 11.0654)
(-1.39236e-15 9.68999 -2.57987)
(-2.00755e-15 -6.67536 9.88242)
(-4.8955e-16 2.81778 5.66727)
(-1.4783e-15 5.34075 0.445111)
(-1.94129e-15 13.2246 6.39095)
(-7.90143e-16 16.3689 6.53351)
(1.77447e-15 10.5272 4.3846)
(3.45822e-15 -6.38434 -10.0361)
(1.11004e-14 -16.415 -21.1211)
(2.03462e-14 -15.1524 -26.5508)
(2.49994e-14 -8.84761 -30.2346)
(2.17419e-14 -1.06485 -32.7609)
(1.3727e-14 5.61773 -29.151)
(9.83364e-15 5.52226 -21.0709)
(9.9634e-15 0.557901 -13.6209)
(9.26272e-15 -10.6083 0.992729)
(-1.11482e-15 -47.2437 14.8024)
(-2.93176e-16 15.3441 57.338)
(-8.41395e-16 58.7821 1.80836)
(-1.58666e-15 7.94259 0.327083)
(-7.1863e-16 -8.4929 9.15656)
(3.88016e-18 5.96985 7.90878)
(-8.41758e-16 4.83438 -1.78676)
(-2.24192e-15 11.6317 5.38611)
(-2.17768e-15 16.6372 9.01921)
(4.88728e-16 13.4051 7.70401)
(2.85754e-15 -0.198186 -3.19424)
(7.65064e-15 -12.0333 -19.4353)
(1.25442e-14 -12.6542 -28.0348)
(1.42412e-14 -7.33961 -32.1612)
(1.21021e-14 -0.711459 -32.4449)
(8.63007e-15 3.92605 -27.2248)
(7.95038e-15 3.3615 -19.1697)
(8.89265e-15 -3.26505 -9.44839)
(6.35381e-15 -14.8141 4.3645)
(-6.62661e-16 -105.218 -0.641324)
(-4.9249e-16 -37.6344 42.3892)
(-1.06699e-15 72.855 -8.85484)
(-1.86677e-15 4.31254 -0.0574947)
(-3.65621e-16 -10.9498 3.84462)
(1.78187e-16 8.68744 10.5936)
(-9.30539e-17 5.7854 -2.80179)
(-1.53954e-15 9.36981 2.4927)
(-2.9499e-15 15.6729 9.14334)
(-1.05296e-15 14.9753 11.6076)
(2.64094e-15 5.1151 4.51622)
(5.48637e-15 -6.85811 -12.795)
(7.71159e-15 -10.2692 -23.0268)
(8.13857e-15 -7.53334 -27.241)
(6.66886e-15 -3.87386 -26.5342)
(5.7671e-15 -1.30251 -22.626)
(7.06416e-15 -3.16751 -15.5959)
(7.5612e-15 -9.66447 -1.39118)
(1.90861e-15 -16.0967 4.94092)
(-5.60938e-16 -24.9661 -24.6892)
(-1.11015e-15 58.822 94.5937)
(-1.31348e-15 87.5125 -19.386)
(-2.10455e-15 6.62643 -4.57821)
(-7.12238e-16 -17.4021 -4.11727)
(9.14266e-17 8.94336 10.9376)
(6.75642e-17 7.54005 -1.52582)
(-3.90282e-16 6.98841 -0.0344844)
(-2.36891e-15 12.9858 6.09505)
(-2.27456e-15 15.204 13.0759)
(1.15601e-15 9.52829 9.67929)
(4.02512e-15 -0.825795 -4.78251)
(5.36291e-15 -6.13267 -15.3826)
(5.198e-15 -4.68883 -19.7165)
(4.07286e-15 -0.560457 -19.4896)
(5.31826e-15 2.38241 -17.1768)
(6.63053e-15 -2.29562 -8.11746)
(5.53707e-15 -10.5422 4.43163)
(-2.41264e-15 -9.72592 3.43751)
(9.64298e-16 -238.173 -8.34859)
(1.3281e-15 -59.3699 -13.5338)
(-1.51333e-15 92.1403 -29.1695)
(-2.15239e-15 28.417 -5.26887)
(-8.51933e-16 -20.3406 5.18656)
(8.87778e-18 9.20268 6.84005)
(3.31926e-18 8.38647 0.373099)
(1.30013e-16 5.47459 -0.562227)
(-7.79543e-16 9.31823 1.26979)
(-2.24513e-15 12.6916 10.0515)
(-5.26098e-16 11.0809 13.9627)
(3.16339e-15 2.49021 6.18503)
(4.15793e-15 -5.95472 -6.91617)
(3.30353e-15 -8.30714 -10.888)
(2.84554e-15 -9.21078 -11.3083)
(5.80449e-15 -11.0678 -10.5052)
(3.94531e-15 -16.551 -1.74582)
(1.56553e-15 -16.4091 4.72737)
(-4.86351e-15 -16.8399 -1.77538)
(-4.74867e-15 205.46 -157.77)
(6.30071e-16 -16.6251 201.639)
(-1.64922e-15 120.886 -34.9757)
(-1.06565e-15 -37.9388 96.5598)
(-7.37002e-16 -23.4392 -2.43924)
(-5.61732e-17 11.7143 -1.0804)
(-7.65755e-18 11.1868 0.924006)
(1.53665e-17 8.8472 -0.389457)
(2.04315e-16 10.2486 -1.2973)
(-7.51368e-16 11.447 3.41591)
(-1.36469e-15 12.2335 12.743)
(8.22272e-16 9.02388 14.9819)
(3.51366e-15 5.42744 3.59487)
(3.2515e-15 4.17483 -6.16958)
(5.56877e-15 8.24702 -10.782)
(8.68605e-15 8.12349 -9.01952)
(2.74218e-15 2.17035 4.5431)
(4.01484e-16 -5.78957 4.06844)
(-8.50224e-16 12.7144 1.11492)
(2.53104e-14 -697.273 401.788)
(5.78313e-16 64.2354 -176.141)
(-1.14376e-15 129.886 -31.3704)
(1.56844e-16 25.6557 126.962)
(-8.89688e-17 29.0877 -19.7686)
(-2.27063e-17 15.0775 -4.06218)
(2.03074e-19 11.375 0.90908)
(-1.28866e-17 10.7517 -0.153339)
(2.56469e-17 11.9721 -0.454433)
(2.21399e-16 11.6699 -0.611817)
(-4.09427e-16 11.0405 3.32543)
(-6.20198e-16 6.01316 12.4939)
(8.50699e-16 -4.54138 16.7341)
(2.09002e-15 -13.4972 14.5019)
(2.02346e-15 -21.5486 12.1518)
(-6.39933e-16 -32.7313 8.18167)
(-1.06861e-14 -44.9365 -0.116604)
(-4.89319e-15 -23.6537 -0.508229)
(-1.75969e-14 -42.286 -44.0135)
(-2.15825e-16 6.49803 11.9311)
(-3.213e-15 10.2619 18.0583)
(-2.23363e-15 9.60489 17.4615)
(-2.39117e-15 9.34659 16.9816)
(-2.97169e-15 9.25426 16.9618)
(-3.87095e-15 9.06897 16.8208)
(-2.6908e-15 8.7123 16.264)
(-2.93372e-15 8.47611 15.9956)
(-2.96526e-15 8.41115 15.8987)
(-2.84564e-15 8.32086 15.7959)
(-2.90495e-15 8.26301 15.6809)
(-2.9218e-15 8.20568 15.5667)
(-2.89826e-15 8.16844 15.4444)
(-2.86229e-15 8.13523 15.3181)
(-3.08105e-15 8.11196 15.1676)
(-3.07443e-15 8.09292 15.0257)
(-3.0281e-15 8.23024 15.1337)
(-2.90047e-15 8.70895 15.7411)
(-3.57394e-15 8.04905 14.5927)
(-4.91842e-15 2.52644 3.56247)
(-6.98171e-17 5.49122 9.82133)
(-2.0688e-15 9.4017 16.4572)
(-1.50109e-15 8.93843 15.9388)
(-1.62482e-15 8.67637 15.5462)
(-1.89386e-15 8.57965 15.5657)
(-2.97671e-15 8.55356 15.6069)
(-2.14497e-15 8.54655 15.7302)
(-2.16347e-15 8.54725 15.7487)
(-2.1351e-15 8.49365 15.7143)
(-2.17749e-15 8.45902 15.6704)
(-2.13499e-15 8.41957 15.6249)
(-2.26312e-15 8.38874 15.5724)
(-2.1995e-15 8.36157 15.5161)
(-2.22469e-15 8.33691 15.4571)
(-2.49462e-15 8.32113 15.3836)
(-2.45625e-15 8.29863 15.3123)
(-2.21833e-15 8.39678 15.3899)
(-2.37732e-15 8.74674 16.009)
(-2.74563e-15 8.43495 15.3924)
(-4.04539e-15 3.80115 6.72989)
(1.34063e-17 5.57131 9.76473)
(-7.56095e-16 9.57189 16.5081)
(-6.39425e-16 9.1959 15.9999)
(-7.08381e-16 8.97889 15.575)
(-6.14325e-16 8.9396 15.5825)
(-1.75808e-15 8.93937 15.5736)
(-8.73973e-16 8.89239 15.5501)
(-7.43229e-16 8.86589 15.5332)
(-8.44232e-16 8.83696 15.5359)
(-9.04925e-16 8.81824 15.5311)
(-8.92627e-16 8.79478 15.5267)
(-8.01186e-16 8.77559 15.5185)
(-7.8844e-16 8.75894 15.5069)
(-7.98694e-16 8.7399 15.4965)
(-9.33352e-16 8.73202 15.4768)
(-8.80983e-16 8.70479 15.4519)
(-7.76341e-16 8.7265 15.4524)
(-8.07657e-16 8.98797 15.9772)
(-8.21173e-16 9.18139 16.2643)
(-1.27054e-15 5.09339 8.97418)
(-3.72431e-18 5.66468 9.82387)
(1.72944e-16 9.50487 16.3453)
(1.26182e-16 9.11018 15.7765)
(1.50033e-16 8.90462 15.3832)
(1.11668e-16 8.87731 15.3977)
(-1.06912e-15 8.88831 15.4043)
(-8.44442e-16 8.87422 15.4213)
(-7.64586e-16 8.8781 15.4231)
(-8.78698e-16 8.86549 15.4275)
(-9.02134e-16 8.86223 15.4258)
(-8.75495e-16 8.85276 15.4262)
(-8.39722e-16 8.84631 15.4246)
(-8.60248e-16 8.84064 15.4213)
(-8.52199e-16 8.83115 15.4203)
(-9.3164e-16 8.83112 15.4121)
(-7.99584e-16 8.81274 15.4061)
(-8.63714e-16 8.82938 15.4016)
(-8.22563e-16 9.03104 15.8052)
(-8.81037e-16 9.3526 16.331)
(-1.35859e-15 5.57513 9.76096)
(1.31745e-18 5.85214 10.1337)
(-5.76219e-17 9.51514 16.3458)
(-3.95925e-17 9.09991 15.729)
(-4.23157e-17 8.91305 15.3607)
(-3.77193e-17 8.89026 15.372)
(2.51844e-16 8.90372 15.3749)
(2.05576e-16 8.88921 15.3833)
(1.84902e-16 8.89208 15.3829)
(2.00274e-16 8.88264 15.3899)
(2.12995e-16 8.88252 15.392)
(2.09133e-16 8.87647 15.3969)
(1.96045e-16 8.87379 15.4002)
(1.94568e-16 8.87123 15.4028)
(1.93157e-16 8.86561 15.4078)
(2.19821e-16 8.8682 15.4071)
(2.1095e-16 8.85435 15.4098)
(1.88526e-16 8.86691 15.4046)
(1.96931e-16 9.03772 15.7539)
(2.01363e-16 9.42974 16.3921)
(3.13449e-16 5.8866 10.3061)
(-4.38296e-19 6.03062 10.4242)
(1.76385e-17 9.4953 16.3114)
(1.24308e-17 9.0496 15.6323)
(1.19013e-17 8.8843 15.3059)
(1.25269e-17 8.86706 15.3211)
(-7.63962e-17 8.88046 15.3243)
(-6.12905e-17 8.86945 15.3342)
(-6.09356e-17 8.8745 15.3352)
(-6.17072e-17 8.86751 15.3424)
(-6.14047e-17 8.86915 15.345)
(-6.38715e-17 8.86494 15.3507)
(-6.08268e-17 8.86416 15.3548)
(-5.90455e-17 8.86275 15.359)
(-5.66156e-17 8.85914 15.3652)
(-6.51818e-17 8.86202 15.367)
(-6.77855e-17 8.85099 15.3726)
(-6.51109e-17 8.86045 15.3673)
(-6.22308e-17 9.00656 15.6697)
(-6.08282e-17 9.4336 16.3735)
(-9.29736e-17 6.10418 10.6778)
(1.26708e-19 6.2234 10.7529)
(-4.60857e-18 9.48158 16.2902)
(-3.3851e-18 9.01195 15.5655)
(-3.06033e-18 8.86839 15.2775)
(-3.4778e-18 8.85354 15.2939)
(2.18776e-17 8.86595 15.2962)
(1.72221e-17 8.85569 15.3051)
(1.79075e-17 8.86039 15.3061)
(1.85915e-17 8.85413 15.313)
(1.72232e-17 8.85596 15.3159)
(1.83517e-17 8.85223 15.3217)
(1.73513e-17 8.8521 15.3259)
(1.71336e-17 8.85075 15.3307)
(1.64093e-17 8.84826 15.3369)
(1.84845e-17 8.85064 15.3399)
(1.94557e-17 8.84174 15.3462)
(1.97356e-17 8.84868 15.3404)
(1.79086e-17 8.97469 15.6033)
(1.77248e-17 9.42307 16.3469)
(2.53537e-17 6.30064 11.0172)
(-3.3533e-20 6.41084 11.0702)
(1.08749e-18 9.45707 16.253)
(8.39026e-19 8.97076 15.4938)
(7.46552e-19 8.84793 15.2443)
(8.57059e-19 8.83553 15.2619)
(-5.56474e-18 8.84682 15.2638)
(-4.35932e-18 8.83758 15.2724)
(-4.56189e-18 8.84206 15.2737)
(-4.8918e-18 8.83649 15.2804)
(-4.39618e-18 8.83838 15.2833)
(-4.63863e-18 8.83498 15.2892)
(-4.36417e-18 8.83527 15.2934)
(-4.40371e-18 8.83379 15.2985)
(-4.28581e-18 8.83218 15.3044)
(-4.61654e-18 8.83383 15.3082)
(-4.82361e-18 8.82683 15.3146)
(-4.976e-18 8.83155 15.3089)
(-4.49696e-18 8.93936 15.5351)
(-4.53204e-18 9.39943 16.3038)
(-6.00566e-18 6.48588 11.3356)
(8.54371e-21 6.59943 11.3917)
(-2.46267e-19 9.42913 16.2097)
(-1.99809e-19 8.93366 15.43)
(-1.78265e-19 8.83047 15.2167)
(-2.01259e-19 8.81971 15.2345)
(1.32043e-18 8.82982 15.236)
(1.03922e-18 8.82132 15.244)
(1.08381e-18 8.82534 15.2454)
(1.16768e-18 8.82026 15.2518)
(1.05435e-18 8.82199 15.2548)
(1.08983e-18 8.81878 15.2605)
(1.03273e-18 8.81927 15.2645)
(1.0519e-18 8.81755 15.2698)
(1.03959e-18 8.81666 15.2752)
(1.07717e-18 8.81747 15.2794)
(1.09754e-18 8.8122 15.2856)
(1.12341e-18 8.81499 15.2804)
(1.05746e-18 8.9061 15.4723)
(1.07315e-18 9.36986 16.252)
(1.32459e-18 6.66843 11.6498)
(-2.15236e-21 6.78579 11.7088)
(5.5522e-20 9.39459 16.1553)
(4.70654e-20 8.89802 15.3687)
(4.21896e-20 8.81305 15.1894)
(4.7108e-20 8.80365 15.207)
(-3.0683e-19 8.81264 15.2082)
(-2.44848e-19 8.80492 15.2157)
(-2.53558e-19 8.80848 15.2173)
(-2.68325e-19 8.80393 15.2234)
(-2.48142e-19 8.80545 15.2264)
(-2.52989e-19 8.80248 15.232)
(-2.4297e-19 8.80311 15.2358)
(-2.45236e-19 8.8012 15.2412)
(-2.44981e-19 8.80095 15.2461)
(-2.50146e-19 8.80095 15.2509)
(-2.4599e-19 8.79734 15.2567)
(-2.48161e-19 8.79845 15.2524)
(-2.47306e-19 8.87435 15.4125)
(-2.50382e-19 9.33407 16.1901)
(-2.92556e-19 6.84892 11.9601)
(5.40795e-22 6.97117 12.0245)
(-1.26441e-20 9.35485 16.0918)
(-1.11015e-20 8.86506 15.3121)
(-9.94286e-21 8.79681 15.1641)
(-1.11865e-20 8.78843 15.1809)
(7.14137e-20 8.79634 15.182)
(5.83931e-20 8.78937 15.189)
(5.94971e-20 8.79245 15.1908)
(6.16649e-20 8.7884 15.1965)
(5.85547e-20 8.78967 15.1995)
(5.9661e-20 8.78695 15.2049)
(5.80801e-20 8.78764 15.2086)
(5.72281e-20 8.78558 15.2141)
(5.75144e-20 8.7859 15.2185)
(5.91228e-20 8.78512 15.2237)
(5.63616e-20 8.78307 15.229)
(5.66052e-20 8.7827 15.226)
(5.87501e-20 8.8449 15.3569)
(5.9348e-20 9.29292 16.1192)
(6.67034e-20 7.02827 12.2685)
(-1.35703e-22 7.1551 12.3376)
(2.91387e-21 9.30938 16.0185)
(2.63862e-21 8.83436 15.2594)
(2.34045e-21 8.78122 15.1399)
(2.69578e-21 8.77362 15.1557)
(-1.67146e-20 8.78054 15.1566)
(-1.4092e-20 8.77431 15.1631)
(-1.40132e-20 8.7769 15.1651)
(-1.43344e-20 8.77338 15.1705)
(-1.38644e-20 8.77437 15.1736)
(-1.42525e-20 8.77195 15.1787)
(-1.40344e-20 8.77263 15.1823)
(-1.34926e-20 8.7705 15.1878)
(-1.35607e-20 8.77131 15.1918)
(-1.41119e-20 8.76982 15.1974)
(-1.32192e-20 8.76924 15.2022)
(-1.33864e-20 8.76757 15.2007)
(-1.41059e-20 8.81767 15.305)
(-1.43113e-20 9.24631 16.039)
(-1.55737e-20 7.20651 12.5748)
(3.40348e-23 7.33783 12.6486)
(-6.78273e-22 9.25845 15.9358)
(-6.33342e-22 8.80616 15.2109)
(-5.51758e-22 8.76641 15.1171)
(-6.55376e-22 8.7594 15.1314)
(3.93026e-21 8.76542 15.1324)
(3.40807e-21 8.7599 15.1384)
(3.30526e-21 8.76201 15.1406)
(3.35973e-21 8.75902 15.1456)
(3.27629e-21 8.75969 15.1488)
(3.40543e-21 8.75762 15.1536)
(3.38687e-21 8.75822 15.1572)
(3.22183e-21 8.75611 15.1626)
(3.21237e-21 8.7573 15.1663)
(3.36593e-21 8.75519 15.1722)
(3.13942e-21 8.75597 15.1763)
(3.21646e-21 8.75311 15.1767)
(3.39178e-21 8.7928 15.2572)
(3.47692e-21 9.19436 15.9497)
(3.65517e-21 7.38376 12.8792)
(-8.54404e-24 7.51937 12.9575)
(1.59285e-22 9.20196 15.8434)
(1.53002e-22 8.78035 15.1666)
(1.30561e-22 8.75227 15.0953)
(1.59669e-22 8.74569 15.1081)
(-9.2839e-22 8.75089 15.1091)
(-8.20697e-22 8.74607 15.1147)
(-7.79929e-22 8.74771 15.117)
(-7.90217e-22 8.74525 15.1216)
(-7.71657e-22 8.7456 15.1249)
(-8.07427e-22 8.74391 15.1295)
(-8.113e-22 8.74436 15.133)
(-7.77404e-22 8.74239 15.1383)
(-7.63174e-22 8.74381 15.1418)
(-8.00877e-22 8.74123 15.1479)
(-7.50118e-22 8.74321 15.1514)
(-7.72893e-22 8.73929 15.1537)
(-8.12834e-22 8.77029 15.2133)
(-8.43856e-22 9.13701 15.8513)
(-8.52336e-22 7.56003 13.1816)
(2.14842e-24 7.69991 13.2645)
(-3.77225e-23 9.13995 15.7414)
(-3.69333e-23 8.75698 15.1265)
(-3.104e-23 8.73881 15.0745)
(-3.87691e-23 8.73254 15.0858)
(2.20321e-22 8.737 15.0868)
(1.96577e-22 8.73286 15.0919)
(1.84179e-22 8.73402 15.0945)
(1.86172e-22 8.73209 15.0987)
(1.8182e-22 8.7321 15.1021)
(1.89877e-22 8.73081 15.1064)
(1.93008e-22 8.73105 15.1099)
(1.8833e-22 8.72932 15.115)
(1.81449e-22 8.73081 15.1183)
(1.90711e-22 8.72796 15.1246)
(1.80153e-22 8.73093 15.1275)
(1.84831e-22 8.72605 15.1316)
(1.93703e-22 8.75012 15.1733)
(2.03658e-22 9.07426 15.7438)
(1.96748e-22 7.73533 13.4819)
(-5.40363e-25 7.87977 13.5702)
(8.99857e-24 9.07252 15.6298)
(8.85022e-24 8.73616 15.0909)
(7.40769e-24 8.7262 15.055)
(9.35344e-24 8.72016 15.0647)
(-5.24534e-23 8.72391 15.0658)
(-4.68849e-23 8.72048 15.0704)
(-4.35793e-23 8.72112 15.0731)
(-4.39383e-23 8.71969 15.077)
(-4.30548e-23 8.71939 15.0804)
(-4.44579e-23 8.71845 15.0844)
(-4.57378e-23 8.71842 15.088)
(-4.54544e-23 8.71704 15.0927)
(-4.31107e-23 8.71834 15.096)
(-4.55273e-23 8.7155 15.1022)
(-4.34788e-23 8.71912 15.1046)
(-4.40364e-23 8.71344 15.1105)
(-4.58195e-23 8.73228 15.1373)
(-4.88016e-23 9.00616 15.6274)
(-4.4987e-23 7.9097 13.7799)
(1.35494e-25 8.05938 13.8752)
(-2.15588e-24 8.99948 15.5081)
(-2.09931e-24 8.71781 15.0597)
(-1.76999e-24 8.71456 15.0366)
(-2.24296e-24 8.70879 15.0447)
(1.24957e-23 8.71175 15.0461)
(1.11483e-23 8.70917 15.0501)
(1.03453e-23 8.70931 15.053)
(1.03925e-23 8.70831 15.0564)
(1.02618e-23 8.70782 15.0598)
(1.04159e-23 8.70713 15.0635)
(1.08238e-23 8.70687 15.0672)
(1.08734e-23 8.70589 15.0715)
(1.02344e-23 8.70675 15.0749)
(1.08738e-23 8.70429 15.0809)
(1.05209e-23 8.70801 15.0831)
(1.04779e-23 8.70178 15.0904)
(1.07551e-23 8.71699 15.1053)
(1.16204e-23 8.93311 15.5027)
(1.02108e-23 8.08319 14.0753)
(-3.37189e-26 8.23966 14.1804)
(5.16186e-25 8.9206 15.3748)
(4.93218e-25 8.70166 15.0324)
(4.21913e-25 8.70363 15.0189)
(5.35914e-25 8.69851 15.0253)
(-2.96916e-24 8.70035 15.0269)
(-2.64483e-24 8.69873 15.0302)
(-2.46355e-24 8.6984 15.033)
(-2.46229e-24 8.69771 15.0361)
(-2.45454e-24 8.69713 15.0394)
(-2.44991e-24 8.69658 15.0428)
(-2.55976e-24 8.69618 15.0464)
(-2.57411e-24 8.69558 15.0503)
(-2.42788e-24 8.69587 15.054)
(-2.58742e-24 8.69427 15.0594)
(-2.541e-24 8.69727 15.0619)
(-2.49278e-24 8.69131 15.0701)
(-2.51026e-24 8.70426 15.0762)
(-2.75533e-24 8.85559 15.3705)
(-2.30723e-24 8.25516 14.3662)
(8.39144e-27 8.42319 14.4926)
(-1.24233e-25 8.83809 15.2311)
(-1.16205e-25 8.69069 15.012)
(-1.01088e-25 8.69522 15.0051)
(-1.29289e-25 8.69183 15.0089)
(7.10154e-25 8.69213 15.0105)
(6.33238e-25 8.69115 15.0126)
(5.93853e-25 8.69036 15.0148)
(5.9019e-25 8.68952 15.0171)
(5.92703e-25 8.68863 15.0197)
(5.85658e-25 8.68776 15.0224)
(6.112e-25 8.68689 15.0254)
(6.10277e-25 8.68605 15.0287)
(5.81621e-25 8.68544 15.0321)
(6.17629e-25 8.68434 15.0364)
(6.16378e-25 8.68532 15.0397)
(5.99296e-25 8.68104 15.0469)
(5.90797e-25 8.69108 15.0483)
(6.58469e-25 8.77265 15.2324)
(5.24629e-25 8.42327 14.6449)
(-1.74216e-27 8.61058 14.8239)
(2.48281e-26 8.75271 15.0801)
(2.29759e-26 8.69281 15.0032)
(2.02777e-26 8.695 15.0014)
(2.64272e-26 8.69442 15.0021)
(-1.4145e-25 8.69407 15.0026)
(-1.28032e-25 8.69366 15.0031)
(-1.20701e-25 8.69305 15.0038)
(-1.19283e-25 8.69232 15.0046)
(-1.19889e-25 8.69143 15.0056)
(-1.18487e-25 8.69038 15.0067)
(-1.22538e-25 8.68914 15.008)
(-1.21098e-25 8.68772 15.0095)
(-1.17176e-25 8.68605 15.0113)
(-1.23089e-25 8.68417 15.0133)
(-1.24605e-25 8.68208 15.0156)
(-1.21298e-25 8.67892 15.0189)
(-1.1768e-25 8.67938 15.02)
(-1.32896e-25 8.69418 15.0844)
(-1.00457e-25 8.5934 14.8933)
(-1.01768e-26 -2.6311 17.0815)
(-1.02486e-26 -8.04369 13.7335)
(6.66102e-26 -5.17518 14.5861)
(2.07632e-25 -4.96838 14.2065)
(5.67792e-25 -4.0405 14.1766)
(2.06024e-24 -3.46548 14.0147)
(6.31624e-24 -2.88061 13.8679)
(1.40613e-23 -2.39771 13.6857)
(2.23755e-23 -1.97475 13.4812)
(2.43586e-23 -1.62436 13.2511)
(1.53356e-23 -1.34444 12.9995)
(5.42717e-24 -1.13902 12.7293)
(3.2304e-23 -1.00995 12.4466)
(1.64488e-22 -0.971382 12.1578)
(4.74606e-22 -1.04784 11.8669)
(9.47816e-22 -1.21537 11.583)
(1.35387e-21 -1.51491 11.2006)
(1.31259e-21 -2.24525 10.3011)
(7.61211e-22 -2.54714 8.80827)
(2.05179e-22 0.155184 6.61619)
(-1.49888e-26 -11.2464 28.647)
(-2.86673e-25 -17.1283 25.1419)
(-9.27445e-25 -12.103 25.5277)
(3.39273e-25 -12.7667 23.8173)
(1.1953e-23 -11.0428 23.07)
(4.5398e-23 -10.3937 21.9823)
(1.02144e-22 -9.42129 21.0652)
(1.61857e-22 -8.66879 20.1134)
(1.88686e-22 -7.92258 19.1964)
(1.6609e-22 -7.25488 18.2784)
(1.31377e-22 -6.62828 17.3594)
(1.59807e-22 -6.04621 16.4238)
(2.55283e-22 -5.49055 15.4476)
(1.27013e-22 -4.91906 14.3453)
(-1.10454e-21 -4.20963 12.8847)
(-4.89646e-21 -3.12684 10.6229)
(-1.2109e-20 -1.46097 7.05719)
(-2.08403e-20 0.682992 2.25117)
(-2.65258e-20 2.56999 -2.34269)
(-2.60931e-20 2.19501 -4.03456)
(-9.8755e-27 -14.0932 30.5764)
(-4.37943e-25 -18.2744 27.5186)
(-2.34649e-24 -13.4203 27.4461)
(-5.72081e-25 -14.5542 24.9427)
(2.24268e-23 -12.4257 23.984)
(8.77668e-23 -12.0776 22.2919)
(1.9573e-22 -11.0048 21.0244)
(3.10242e-22 -10.362 19.6351)
(3.70637e-22 -9.6321 18.3677)
(3.40911e-22 -9.02612 17.1098)
(2.51474e-22 -8.43536 15.8863)
(1.97824e-22 -7.87603 14.6457)
(2.55195e-22 -7.30857 13.3552)
(2.62666e-22 -6.6954 11.9382)
(-4.57856e-22 -5.9109 10.2011)
(-2.8599e-21 -4.73408 7.76748)
(-7.89116e-21 -2.91702 4.40314)
(-6.9148e-21 -0.629747 -0.0916195)
(-1.29633e-20 1.84672 -3.27378)
(-5.69227e-20 1.98863 -5.51728)
(1.51055e-25 -14.8785 30.2513)
(-1.00122e-24 -18.3136 27.5989)
(-4.59011e-24 -13.8764 27.2406)
(-4.5906e-24 -15.3076 24.3307)
(2.06921e-23 -12.8146 23.4417)