/*--------------------------------*- C++ -*----------------------------------*\
| =========                 |                                                 |
| \\      /  F ield         | OpenFOAM: The Open Source CFD Toolbox           |
|  \\    /   O peration     | Version:  4.1                                   |
|   \\  /    A nd           | Web:      www.OpenFOAM.org                      |
|    \\/     M anipulation  |                                                 |
\*---------------------------------------------------------------------------*/
FoamFile
{
    version     2.0;
    format      ascii;
    class       volScalarField;
    location    "30";
    object      p;
}
// * * * * * * * * * * * * * * * * * * * * * * * * * * * * * * * * * * * * * //

dimensions      [0 2 -2 0 0 0 0];

internalField   nonuniform List<scalar> 
1280
(
0.449701
0.196672
1.12363
1.50675
2.23542
2.60508
2.67008
2.85064
3.03473
3.14555
3.02755
2.81891
2.33466
1.56387
0.901918
-0.903966
-3.45834
-4.654
-11.103
-18.48
-15.9221
-3.11425
17.3909
28.2839
31.0873
34.4531
24.4485
15.85
17.3531
16.5194
15.2498
13.8814
12.1081
9.99043
7.73859
5.18522
2.82545
-0.197149
-1.86573
-6.65634
-18.3011
-6.26558
-1.49344
2.10003
11.342
10.7026
10.8185
10.8033
10.7256
11.0259
10.8516
10.6475
10.151
9.40996
8.84469
10.8097
-5.61547
-10.976
-17.7405
-33.4163
-19.0896
-13.9834
-12.2799
-9.06803
-6.59919
-3.81558
-1.30838
1.1526
3.32617
5.12769
6.86908
8.51822
7.56656
5.69178
33.1228
31.6981
30.8159
21.4103
2.16216
-10.6992
-14.5381
-3.73524
-5.02017
-2.41262
3.29459
4.47242
6.73409
8.99914
8.44916
7.9003
7.91714
7.56982
5.1251
4.17002
4.96002
4.89282
0.734989
-1.09666
-1.80961
1.58159
0.0255014
0.329044
0.329133
0.579776
0.563734
0.735463
0.922076
1.19433
1.53206
2.02044
2.92648
4.41941
6.5181
6.28185
3.07654
0.353511
-0.556534
-1.14382
-0.193975
0.0912002
0.673472
0.420095
0.639933
0.556696
0.795153
1.07279
1.65738
2.51267
3.9196
6.39687
10.3162
15.1809
15.6072
8.46578
2.56981
-2.2617
-4.17723
-0.604422
0.188621
0.836443
0.530326
0.705872
0.591041
0.870977
1.20375
1.93633
3.03382
4.8653
8.00828
12.9261
19.66
22.5763
13.011
4.35685
-6.40034
-10.2552
-3.22143
0.257548
1.00651
0.770528
0.832331
0.699608
1.02862
1.4404
2.33314
3.67268
5.91222
9.75237
15.7905
24.8854
31.3537
19.8264
6.2285
-13.5575
-19.4218
-7.25728
0.274842
1.13276
1.00109
0.892992
0.755221
1.12035
1.6072
2.65642
4.23583
6.88304
11.4469
18.6368
30.2472
40.0072
27.4561
7.65986
-22.5934
-33.8383
-17.2764
0.202194
1.1633
1.13681
0.88633
0.763191
1.15535
1.70857
2.8802
4.64257
7.59345
12.6892
20.6641
34.2614
44.3208
33.1199
10.2418
-27.2079
-36.4147
-22.7228
0.023806
1.07367
1.13594
0.821052
0.730441
1.14707
1.76188
3.02459
4.91327
8.05884
13.4588
21.8395
36.8561
44.3193
35.5892
12.8981
-27.5334
-38.8398
-23.9184
-0.247542
0.824283
0.976461
0.681483
0.645699
1.08603
1.75569
3.07848
5.03788
8.27191
13.7312
22.1691
38.3349
40.5112
35.526
15.6474
-15.5768
-28.6665
-11.8493
-0.625257
0.353582
0.65719
0.453492
0.50452
0.970998
1.68679
3.03574
5.0058
8.21222
13.4745
21.3828
36.2471
34.3507
32.401
18.0029
1.32366
1.95572
28.655
-1.09741
-0.366346
0.189102
0.127443
0.305223
0.804418
1.55816
2.89995
4.82251
7.88704
12.7176
19.533
31.0919
26.2666
26.7167
18.352
7.79648
17.0713
24.9771
-1.59669
-1.32266
-0.382664
-0.290062
0.0506195
0.590024
1.37521
2.67979
4.50441
7.33648
11.5774
17.1085
25.4717
16.525
17.9997
18.2069
12.3972
21.1997
20.9052
-2.08478
-2.35181
-0.964404
-0.751768
-0.254352
0.329443
1.14128
2.38501
4.07253
6.61081
10.1769
14.2675
19.1657
4.50033
9.86592
20.7005
19.1097
23.7364
32.3374
-2.46732
-2.91018
-1.49051
-1.19346
-0.586487
0.03667
0.868834
2.03403
3.55608
5.76529
8.6626
11.4048
14.1539
-0.657973
5.87403
20.7562
22.8558
13.1336
3.16723
-2.67012
-3.07247
-1.90611
-1.58804
-0.930276
-0.284759
0.55836
1.63599
2.98032
4.85185
7.15365
8.7425
10.1611
-2.48544
1.69693
18.214
18.2017
8.44127
3.25107
-2.52755
-3.04288
-2.10813
-1.86239
-1.21223
-0.579177
0.250003
1.22542
2.38243
3.91613
5.70421
6.36428
6.42708
-4.06493
-2.16945
15.4301
16.9917
9.57524
5.36408
-2.06808
-2.85012
-2.17628
-2.04647
-1.44897
-0.8627
-0.0742224
0.796288
1.77716
2.99492
4.34566
4.29352
3.01838
-3.6908
-4.19508
12.6058
13.5641
7.13856
5.19579
-1.40379
-2.4374
-1.94978
-1.93775
-1.44015
-0.956832
-0.278984
0.433371
1.20865
2.11522
3.09471
2.73862
0.657019
-1.93251
-5.89517
9.98736
10.7267
6.17778
4.31375
-0.975814
-2.19534
-1.77306
-1.85043
-1.46431
-1.08622
-0.519416
0.0737137
0.694251
1.34825
2.01265
1.4094
-1.77356
0.0801327
-6.23777
7.96804
7.91321
4.66666
3.30476
-0.132507
-1.23856
-0.930203
-1.00203
-0.784905
-0.604022
-0.334311
-0.0802863
0.213237
0.559286
0.92581
0.716646
-1.33226
2.49634
-7.59011
5.47742
5.48508
3.27233
2.10028
-0.28501
-1.2666
-0.900561
-1.05142
-0.951924
-0.826376
-0.565116
-0.241208
0.0586605
0.271158
0.437944
-0.261152
-3.88801
0.0958235
-8.3293
0.515993
1.32358
0.577273
0.532267
5.73551
9.24409
10.9863
12.3982
12.4319
12.4099
11.6733
10.7021
9.76169
8.96709
8.28097
7.75157
7.40432
7.26159
7.31156
7.58663
8.01443
8.67843
9.30617
10.2359
-63.9223
-60.3801
-55.3666
-50
-45.5742
-41.7158
-38.2963
-35.3075
-32.6803
-30.4008
-28.3919
-26.5886
-24.9338
-23.3425
-21.7975
-20.1924
-18.6372
-16.895
-15.5445
-13.5687
-71.7364
-72.4748
-69.9791
-66.5539
-64.0053
-61.9269
-59.9935
-58.2301
-56.5632
-55.044
-53.6702
-52.443
-51.3538
-50.3364
-49.3705
-48.2632
-47.0473
-45.087
-43.2514
-40.4515
-49.345
-54.481
-58.5867
-61.8516
-64.9828
-68.0387
-70.6905
-73.0165
-74.7183
-75.8789
-76.4802
-76.6429
-76.4445
-75.9865
-75.4209
-74.7995
-74.2147
-73.4932
-72.8769
-70.3018
-2.29943
-8.69062
-13.3715
-18.0968
-22.6961
-27.8263
-32.9759
-38.311
-43.3706
-48.1398
-52.3476
-55.9527
-58.7652
-60.6815
-61.6351
-61.6601
-60.9572
-60.3961
-60.9398
-61.9577
42.7507
39.0881
36.5469
33.9065
32.1075
29.8917
28.0181
25.9122
23.9699
21.8622
19.7119
17.3482
14.7923
12.084
9.44764
7.14907
5.73046
5.95524
6.13373
2.08585
55.1037
55.623
55.6937
55.5706
55.5194
54.8814
54.2852
53.0128
51.4817
49.4051
46.9809
44.1886
41.1615
38.0399
35.1612
32.9015
31.4607
30.6466
30.7943
29.1642
35.5903
37.9354
39.3293
40.6843
42.4239
43.6489
45.3331
46.6423
47.969
48.9199
49.4887
49.4678
48.7922
47.5028
45.9729
44.7377
44.4883
44.9431
45.6648
45.6352
17.7838
19.9161
21.4969
22.3691
24.1061
24.921
26.3459
27.3774
28.5663
29.7037
30.8618
32.0446
33.2339
34.4212
35.5886
36.7683
37.9234
39.2185
40.1722
41.4299
-4.35522
-2.23935
-0.244538
0.495613
2.70315
3.609
5.42076
6.70049
8.21294
9.62908
11.048
12.4619
13.862
15.2757
16.6806
18.1401
19.5432
21.1106
22.2804
23.9306
-28.0476
-26.9614
-24.8243
-24.8383
-22.4907
-22.1045
-20.2039
-19.1548
-17.5488
-16.0819
-14.4518
-12.7356
-10.9181
-8.97471
-6.96099
-4.81618
-2.72233
-0.45219
1.29786
4.0688
-50.5551
-52.2609
-50.8058
-52.641
-51.3945
-52.9557
-52.4113
-53.3977
-53.4836
-54.0858
-54.3441
-54.4943
-54.2774
-53.615
-52.4528
-50.6773
-48.5715
-45.8364
-43.8229
-40.4414
-40.2733
-44.7025
-44.4767
-47.9487
-48.2297
-51.3708
-52.4193
-55.1329
-56.9001
-59.371
-61.4535
-63.5922
-65.4666
-67.1345
-68.4996
-69.6701
-70.5092
-70.5773
-70.4257
-68.0577
-2.17324
-6.44754
-6.03708
-10.2073
-10.3679
-14.039
-15.184
-18.2477
-20.1689
-22.8116
-24.9223
-27.0416
-28.7545
-30.2208
-31.3929
-32.55
-33.8074
-34.9724
-36.6881
-38.5073
23.0234
21.9121
24.3489
22.2796
25.2294
23.8944
25.82
25.4556
26.2558
26.1174
26.0683
25.5451
24.7854
23.6921
22.269
20.3663
18.1687
16.5316
15.3531
12.7693
1.96299
1.40778
4.55299
2.35798
6.16499
5.34485
7.98801
8.91015
11.0308
12.8835
15.0676
17.2337
19.387
21.3476
22.9054
23.8072
24.1592
24.2608
24.9364
26.2524
1.70682
-1.17837
1.83642
-3.8225
-2.26334
-5.81218
-6.40952
-8.34965
-9.47176
-10.6617
-11.5506
-12.2436
-12.6951
-12.8629
-12.7277
-12.075
-10.8098
-8.69092
-6.09126
-3.27143
-10.1996
-16.8874
-8.61412
-15.4079
-13.3307
-16.548
-17.7311
-20.1488
-22.2826
-24.6837
-27.0696
-29.5101
-31.9335
-34.3047
-36.5099
-38.1016
-38.7996
-37.7995
-36.6182
-34.3152
9.84294
-13.0673
-5.22058
-16.6186
-19.6928
-26.6479
-31.8975
-37.4362
-42.2419
-46.5161
-50.0179
-52.6945
-54.4531
-55.2226
-54.9147
-53.5088
-51.004
-47.7986
-45.288
-42.9809
704.467
621.456
572.08
515.599
466.377
418.891
374.757
333.097
293.933
256.99
222.118
189.124
157.797
128.077
100.046
72.9459
47.2851
27.5933
4.38976
-32.7127
708.011
625
575.624
519.143
469.921
422.435
378.3
336.641
297.476
260.533
225.66
192.666
161.339
131.619
103.588
76.488
50.8284
31.1373
7.93335
-29.1702
13.3913
-9.51955
-1.67289
-13.0713
-16.1456
-23.1009
-28.3507
-33.8896
-38.6954
-42.9697
-46.4714
-49.1479
-50.9062
-51.6751
-51.3666
-49.96
-47.4541
-44.2475
-41.7389
-39.4341
-6.66621
-13.356
-5.08371
-11.879
-9.80307
-13.0221
-14.2068
-16.6265
-18.7623
-21.1657
-23.5541
-25.9973
-28.4236
-30.7978
-33.006
-34.5997
-35.2986
-34.2994
-33.1194
-30.8192
5.20965
2.32164
5.33594
-0.325302
1.23223
-2.31892
-2.91874
-4.86123
-5.98602
-7.1782
-8.0692
-8.76374
-9.21601
-9.3839
-9.24771
-8.59335
-7.32659
-5.20649
-2.60535
0.215037
5.47153
4.91769
8.06648
5.87195
9.68251
8.86385
11.5097
12.4338
14.5565
16.4113
18.5978
20.7652
22.9188
24.8794
26.4358
27.335
27.6871
27.7957
28.4802
29.8045
26.5947
25.4904
27.9296
25.8642
28.8174
27.4855
29.4142
29.0523
29.8544
29.7172
29.6687
29.1454
28.3856
27.2934
25.873
23.9761
21.7851
20.1524
18.9805
16.4055
1.48575
-2.78322
-2.36955
-6.53543
-6.69005
-10.3551
-11.4926
-14.5483
-16.4606
-19.0934
-21.1936
-23.3023
-25.0057
-26.4652
-27.6341
-28.792
-30.0563
-31.233
-32.9592
-34.7982
-36.6658
-41.0994
-40.8792
-44.3574
-44.6447
-47.7928
-48.8489
-51.5717
-53.3497
-55.8339
-57.9329
-60.0899
-61.9828
-63.6696
-65.0515
-66.2389
-67.0936
-67.171
-67.0267
-64.6638
-47.1077
-48.8259
-47.3791
-49.224
-47.9876
-49.5597
-49.0259
-50.0242
-50.121
-50.735
-51.0031
-51.1611
-50.9482
-50.2877
-49.1245
-47.3467
-45.2385
-42.5046
-40.4934
-37.1097
-24.6601
-23.5789
-21.4429
-21.4596
-19.113
-18.7286
-16.8282
-15.7798
-14.1731
-12.7055
-11.0739
-9.35556
-7.53524
-5.58883
-3.57212
-1.4245
0.671771
2.94443
4.69717
7.47293
-0.928895
1.1846
3.17864
3.91758
6.12483
7.03005
8.8418
10.1214
11.6343
13.0509
14.4708
15.8859
17.2872
18.7021
20.1077
21.5671
22.9696
24.5362
25.7052
27.3547
21.1613
23.2955
24.8783
25.7525
27.492
28.3099
29.7383
30.7741
31.9676
33.1095
34.272
35.458
36.6487
37.8354
39.0013
40.1802
41.3365
42.6355
43.5934
44.8542
39.0889
41.4302
42.8179
44.1639
45.8955
47.1084
48.7776
50.0693
51.3759
52.3078
52.8597
52.8276
52.1521
50.8788
49.3858
48.2027
48.0025
48.4867
49.2153
49.1951
58.4739
58.9679
59.0125
58.8707
58.7913
58.1292
57.5148
56.2349
54.7087
52.656
50.2761
47.5512
44.6124
41.5937
38.8171
36.644
35.2664
34.4753
34.6195
33.0064
46.5096
42.8905
40.262
37.5928
35.7864
33.5971
31.7587
29.6988
27.809
25.7508
23.6374
21.2891
18.7242
15.9811
13.2863
10.9237
9.45057
9.62228
9.81785
5.84098
3.35427
-2.99394
-7.91547
-12.6958
-17.2984
-22.409
-27.5351
-32.8511
-37.9062
-42.6657
-46.8549
-50.4199
-53.1742
-55.0198
-55.8993
-55.8422
-55.0444
-54.4194
-54.9279
-56.0265
-44.9346
-50.4161
-54.8096
-57.8889
-60.9066
-63.8528
-66.3912
-68.5984
-70.1783
-71.2066
-71.6746
-71.7113
-71.4108
-70.8875
-70.3022
-69.7085
-69.1819
-68.5597
-68.0328
-65.49
-73.899
-74.7115
-71.3877
-66.7495
-63.2753
-60.4356
-57.8777
-55.5735
-53.4532
-51.5597
-49.8917
-48.4466
-47.2119
-46.1164
-45.1295
-44.0521
-42.8899
-41.0099
-39.2571
-36.4904
-64.8831
-60.2781
-54.3565
-48.0793
-43.009
-38.662
-34.893
-31.6481
-28.8558
-26.4928
-24.4609
-22.6815
-21.082
-19.5625
-18.0909
-16.5477
-15.032
-13.2868
-11.9151
-9.82624
25.0953
28.8433
29.5036
29.7715
28.751
27.7641
26.1288
24.3468
22.5387
20.928
19.4639
18.2017
17.1793
16.4234
15.9352
15.7418
15.7952
16.1494
16.5705
17.3267
)
;

boundaryField
{
    outletWall
    {
        type            fixedValue;
        value           uniform 0;
    }
    fineWalls
    {
        type            zeroGradient;
    }
    fineFrontAndBack
    {
        type            zeroGradient;
    }
    fineplugLeft
    {
        type            cyclicAMI;
        value           nonuniform List<scalar> 
20
(
6.85746
7.07179
6.90331
6.97663
7.10635
7.39696
7.80736
8.34508
8.97754
9.67473
10.4776
11.28
11.7317
13.1259
16.8185
16.163
15.5753
12.2672
6.77242
1.404
)
;
    }
    fineplugRight
    {
        type            cyclicAMI;
        value           nonuniform List<scalar> 
20
(
10.0435
10.4597
10.4635
10.8226
11.2736
11.985
12.8771
13.974
15.2266
16.5967
18.1162
19.7346
20.9908
23.8049
28.8358
29.3404
29.9804
27.8849
23.5071
17.9364
)
;
    }
    inletOutletLeft
    {
        type            cyclicAMI;
        value           nonuniform List<scalar> 
20
(
6.85746
7.07179
6.90331
6.97663
7.10635
7.39696
7.80736
8.34508
8.97754
9.67473
10.4776
11.28
11.7317
13.1259
16.8185
16.163
15.5753
12.2672
6.77242
1.404
)
;
    }
    inletLeft
    {
        type            zeroGradient;
    }
    inletWallsLeft
    {
        type            zeroGradient;
    }
    inletFacesLeft
    {
        type            zeroGradient;
    }
    inletOutletRight
    {
        type            cyclicAMI;
        value           nonuniform List<scalar> 
20
(
10.0435
10.4597
10.4635
10.8226
11.2736
11.985
12.8771
13.974
15.2266
16.5967
18.1162
19.7346
20.9908
23.8049
28.8358
29.3404
29.9804
27.8849
23.5071
17.9364
)
;
    }
    inletRight
    {
        type            zeroGradient;
    }
    inletWallsRight
    {
        type            zeroGradient;
    }
    inletFacesRight
    {
        type            zeroGradient;
    }
}


// ************************************************************************* //
