/*--------------------------------*- C++ -*----------------------------------*\
| =========                 |                                                 |
| \\      /  F ield         | OpenFOAM: The Open Source CFD Toolbox           |
|  \\    /   O peration     | Version:  4.1                                   |
|   \\  /    A nd           | Web:      www.OpenFOAM.org                      |
|    \\/     M anipulation  |                                                 |
\*---------------------------------------------------------------------------*/
FoamFile
{
    version     2.0;
    format      ascii;
    class       surfaceScalarField;
    location    "30";
    object      phi;
}
// * * * * * * * * * * * * * * * * * * * * * * * * * * * * * * * * * * * * * //

dimensions      [0 3 -1 0 0 0 0];

internalField   nonuniform List<scalar> 
2360
(
-5019.22
-3229.52
-1789.7
-3229.52
-3229.52
-1256.4
-1973.12
-1256.4
-1256.4
-1256.41
871.359
-2127.76
871.359
871.36
3468.67
-2597.31
3468.67
3468.67
7085.14
-3616.47
7085.14
7085.14
12582.3
-5497.2
12582.3
12582.3
13067.1
14488.4
16273.7
18004.6
19573.6
20990.6
16613.8
5700.61
17833.3
18964.8
20012.1
20977.5
21863.2
22672.5
23409.3
24077.5
24679.2
25216.3
25689.5
26099.8
26381.7
10978.6
15403.2
10978.6
10978.6
10978.6
-210.7
11189.3
-210.701
-210.703
-210.703
655.376
-866.08
655.376
655.375
-2067.02
2722.4
-2067.02
-2067.02
-2067.02
-14668.3
12601.3
-14668.3
-14668.3
-14668.3
-29091.4
14423.1
-28780.9
-28356.7
-27871.9
-27326.3
-26719.5
-26050.2
-25315.4
-24511.1
-23632.6
-22676.2
-21639.3
-20519.3
-19311.7
-22586.4
4591.97
-21182.2
-19627.2
-17910.2
-16134.3
-14718.7
-14183.4
-14183.4
-14183.4
-9880.63
-4302.76
-9880.63
-9880.63
-4656.15
-5224.48
-4656.15
-4656.15
682.795
-5338.94
682.796
682.796
5601.5
-4918.7
5601.5
5601.5
5601.5
10051.4
-4449.94
10051.4
10051.4
14031.4
-3979.93
1.50493
-3808.42
-163.437
245.067
-272.726
7893.07
-435.409
10157.5
-588.964
12287.3
-745.556
14040
-907.874
15611.8
-1045.72
17206.2
-1145.26
18646.5
-1175.56
20361.1
-1097.2
22163.6
-840.153
22403.2
-373.077
18840
532.538
12080.7
2176.98
-1263.18
3764.02
-6083.68
4293.01
-4874.69
4244.96
-938.673
1846.83
95.6316
-3361.5
-143.057
483.756
-266.246
8016.26
-436.18
10327.4
-601.104
12452.3
-767.337
14206.3
-942.581
15787
-1095.16
17358.8
-1218.01
18769.4
-1285.35
20428.4
-1247.94
22126.2
-1003.63
22158.9
-402.579
18239
1271.01
10407.1
3555.71
-3547.88
5817.14
-8345.11
6735.24
-5792.78
5833.1
-36.5367
3229.99
227.58
-2814.42
-111.473
822.809
-230.976
8135.77
-433.182
10529.6
-613.699
12632.8
-798.472
14391.1
-992.651
15981.2
-1169.88
17536.1
-1328.42
18927.9
-1448.43
20548.5
-1470.77
22148.5
-1269.59
21957.7
-598.16
17567.5
1685.78
8123.18
4556.98
-6419.09
7185.72
-10973.8
8357.64
-6964.7
7082
1239.09
5393.29
427.891
-2180.11
-32.8158
1283.52
-175.569
8278.52
-425.884
10780
-628.637
12835.5
-837.652
14600.1
-1055.34
16198.9
-1263.19
17743.9
-1465.5
19130.2
-1650.51
20733.5
-1754.84
22252.9
-1651.2
21854
-977.19
16893.5
1968.45
5177.54
5112.19
-9562.84
7440.6
-13302.2
8765.56
-8289.66
7821.74
2182.91
7876.09
705.467
-1514.01
119.571
1869.41
-111.465
8509.56
-417.749
11086.2
-648.709
13066.5
-885.931
14837.3
-1131.31
16444.3
-1374.9
17987.5
-1628.86
19384.2
-1891.19
20995.8
-2103.01
22464.7
-2156.55
21907.6
-1537.77
16274.8
1691.06
1948.71
3735.96
-11607.7
4418.08
-13984.4
5910.57
-9782.16
6548.4
1545.08
9200.01
1055.21
-856.987
344.256
2580.37
-47.8819
8901.69
-417.169
11455.5
-678.789
13328.1
-945.131
15103.6
-1220.47
16719.6
-1502.96
18270
-1813.84
19695.1
-2161.86
21343.8
-2505.23
22808
-2747.56
22149.9
-2155.83
15683
-34.2177
-172.907
-901.193
-10740.8
-1717.34
-13168.2
73.153
-11572.7
1404.7
213.531
6301.95
1429.67
-212.364
603.212
3406.83
16.0826
9488.82
-431.98
11903.6
-725.501
13621.6
-1018.36
15396.5
-1323.21
17024.5
-1645.34
18592.1
-2015.04
20064.8
-2452.31
21781.1
-2940.24
23296
-3357.51
22567.2
-3017.21
15342.7
-3650.38
460.259
-6118.27
-8272.87
-6821.08
-12465.4
-5441.2
-12952.5
-1755.28
-3472.39
9138.65
1788.08
452.369
843.436
4351.47
79.3628
10252.9
-462.262
12445.2
-793.791
13953.2
-1109.13
15711.8
-1440.47
17355.8
-1800.49
18952.1
-2227.7
20492
-2752.63
22306
-3376.11
23919.5
-3986.92
23178
-4618.8
15974.6
-7308.34
3149.81
-9802.84
-5778.38
-10918.5
-11349.7
-11923.1
-11948
-12450.2
-2945.26
11111.6
2093.27
1181.06
1006.46
5438.28
122.419
11136.9
-500.646
13068.3
-881.805
14334.3
-1219.12
16049.2
-1573.12
17709.8
-1966.96
19346
-2447.02
20972
-3049.99
22909
-3779.83
24649.3
-4593.44
23991.6
-6107.48
17488.7
-9484.93
6527.26
-11517.7
-3745.61
-12617.8
-10249.7
-14561.9
-10003.8
-15431
-2076.22
8281.85
2262.81
2002.04
1026.67
6674.43
110.038
12053.6
-540.859
13719.2
-979.482
14772.9
-1345.78
16415.5
-1721.55
18085.6
-2143.9
19768.3
-2668.58
21496.7
-3331
23571.4
-4125.63
25443.9
-5091.1
24957.1
-7033.53
19431.1
-10340.3
9834.03
-11636.1
-2449.77
-11429.7
-10456.1
-10785.4
-10648.1
-8932.67
-3928.94
2071.58
2163.31
2925.26
820.828
8016.91
4.06583
12870.3
-589.993
14313.2
-1076.56
15259.5
-1482.97
16821.9
-1885.08
18487.7
-2331.62
20214.9
-2889.94
22055
-3589.12
24270.6
-4410.28
26265.1
-5482.42
26029.2
-7671.06
21619.7
-10738.2
12901.2
-11449.2
-1738.75
-12026.8
-9878.45
-12775.1
-9899.92
-8945.03
-7758.96
-7739.53
1686.02
3990.84
318.532
9384.39
-224.662
13413.5
-679.441
14768
-1177.85
15757.9
-1627.18
17271.2
-2062.6
18923.1
-2531.68
20683.9
-3111.59
22634.9
-3823.67
24982.6
-4636.4
27077.8
-5734.9
27127.7
-7695.88
23580.7
-9026.28
14231.6
-7638.93
-3126.1
-8785.63
-8731.74
-13648
-5037.52
-15140.2
-6266.75
-11690.5
719.594
5197.76
-482.3
10586.3
-606.531
13537.8
-864.368
15025.8
-1313.97
16207.5
-1786.04
17743.3
-2254.55
19391.6
-2746.03
21175.4
-3336.41
23225.3
-4039.23
25685.5
-4818.82
27857.4
-5898.83
28207.7
-7570.74
25252.6
-7699.17
14360
-4839.31
-5985.96
-3249.09
-10322
-6349.89
-1936.71
-11484.8
-1131.81
-7772.16
-865.76
6118.91
-1449.64
11170.2
-1168.53
13256.6
-1204.33
15061.6
-1535.92
16539.1
-1983.1
18190.5
-2467.33
19875.8
-2978.01
21686.1
-3569.5
23816.8
-4243.92
26359.9
-4973.71
28587.2
-6002.25
29236.2
-7411.18
26661.6
-7043.4
13992.2
-4341.84
-8687.53
-1579.7
-13084.1
2260.97
-5777.39
3171.3
-2042.14
1099.75
-2649.16
6362.29
-2457.7
10978.7
-1915.58
12714.5
-1733.41
14879.5
-1890.99
16696.7
-2249.74
18549.2
-2712.5
20338.6
-3230.04
22203.6
-3813.75
24400.5
-4445.54
26991.7
-5116.93
29258.6
-6067.11
30186.4
-7146.89
27741.3
-6082.57
12927.9
-3361.01
-11409.1
-1255.29
-15189.8
800.599
-7833.27
3518.59
-4760.13
-878.847
-4092.88
6185.85
-3487.82
10373.6
-2822.24
12048.9
-2448.75
14506
-2407.04
16655
-2620.76
18762.9
-3014.25
20732.1
-3514.27
22703.7
-4077.72
24964
-4654.64
27568.6
-5262.37
29866.3
-6122.98
31047
-6842.69
28461.1
-5098.83
11184
-2579.95
-13928
-846.204
-16923.6
988.393
-9667.87
2485.38
-6257.12
-2009.94
-5290.93
5790.33
-4526.54
9609.24
-3814.15
11336.6
-3287.73
13979.6
-3055.17
16422.4
-3092.75
18800.5
-3373.45
21012.8
-3822.96
23153.2
-4349.44
25490.5
-4867.97
28087.1
-5424.07
30422.4
-6187.91
31810.9
-6472.58
28745.7
-4043.91
8755.36
-1881.02
-16090.9
-606.146
-18198.4
983.363
-11257.4
1949.48
-7223.24
-2657.77
-6409.32
5292.23
-5608.8
8808.73
-4888.33
10616.1
-4248.02
13339.3
-3856.58
16031
-3717.01
18660.9
-3855.23
21151
-4215.05
23513
-4678.92
25954.3
-5132.72
28540.9
-5626.62
30916.3
-6245.96
32430.2
-6061.5
28561.3
-3139.17
5833.02
-1234.72
-17995.3
-300.409
-19132.7
941.164
-12499
1632.79
-7914.86
-3152.74
-7355.63
4598.84
-6449.9
7903
-5764.71
9930.89
-5051.66
12626.2
-4542.85
15522.2
-4252.45
18370.5
-4254.07
21152.6
-4523.89
23782.8
-4934.93
26365.4
-5344.29
28950.3
-5796.94
31369
-6264.69
32898
-5526.77
27823.3
-2426.26
2732.51
-847.374
-19574.2
-39.716
-19940.4
847.914
-13386.6
1479.24
-8546.19
-3646.62
-9134.13
-8082.01
-7368.85
-6602.33
-5988.94
-5548.59
-5359.26
-5425.56
-5648.02
-5901.45
-6187.88
-6266.85
-4798.61
-1869.22
-634.645
90.5859
754.475
1375.77
-412.167
-72.6413
-292.922
-1540.47
-18.7917
-2059.44
247.743
-1997.42
468.657
-1789.96
653.65
-1601.98
782.479
-1452.68
893.678
-1330.64
982.248
-1220.09
1047.74
-1112.77
1088.77
-1006.41
1104.12
-901.068
1092.56
-797.771
1052.68
-696.931
983.483
-598.935
883.534
-501.767
750.819
-404.415
576.717
-299.04
336.431
-170.061
54.5028
-57.3201
-15.3198
-241.195
-1356.6
-239.613
-2061.02
-149.333
-2087.69
-41.122
-1898.17
73.4866
-1716.59
197.06
-1576.26
319.248
-1452.83
431.301
-1332.14
526.756
-1208.22
601.75
-1081.4
653.783
-953.1
680.992
-824.979
681.568
-697.507
654.036
-571.401
596.113
-443.844
505.744
-314.046
379.551
-172.848
210.638
-1.14738
265.141
385.55
-400.869
519.801
-1490.85
529.422
-2070.64
538.823
-2097.09
572.13
-1931.47
627.124
-1771.59
693.328
-1642.46
759.137
-1518.64
816.528
-1389.54
861.584
-1253.28
892.419
-1112.24
906.46
-967.141
900.09
-818.608
868.438
-665.855
805.35
-508.313
699.622
-338.115
529.983
-144.406
311.677
45.4587
134.654
175.877
399.796
660.247
-1061.11
1067.47
-1898.07
1054.66
-2057.84
905.72
-1948.15
794.146
-1819.9
732.63
-1710.07
690.361
-1600.19
642.114
-1470.39
581.941
-1329.36
509.991
-1181.33
427.415
-1029.66
333.07
-872.794
225.419
-710.956
104.734
-545.169
-23.3584
-380.218
-139.092
-222.378
-204.594
-78.8983
-209.984
50.8522
-197.276
163.17
202.52
417.372
-1478.49
590.997
-2071.7
430.553
-1897.39
205.491
-1723.09
25.4334
-1639.84
-127.991
-1556.64
-278.226
-1449.95
-435.253
-1313.36
-597
-1167.61
-761.522
-1016.81
-927.489
-863.693
-1092.97
-707.317
-1252.85
-551.069
-1395.85
-402.167
-1500.41
-275.665
-1528.78
-194.005
-1425.61
-182.063
-1126.32
-248.438
-597.787
-365.364
-395.266
-14.4088
-1464.08
-131.316
-1954.79
-310.249
-1718.46
-482.156
-1551.18
-660.142
-1461.85
-853.605
-1363.18
-1051.96
-1251.6
-1247.66
-1117.66
-1438.64
-976.637
-1626.5
-828.946
-1810.16
-680.031
-1980.42
-537.061
-2114.72
-416.762
-2174.38
-342.515
-2110.53
-339.51
-1882.21
-422.326
-1476.63
-587.648
-928.613
-796.45
-362.346
-931.63
-757.613
-181.93
-1282.15
-216.638
-1920.08
-199.633
-1735.46
-231.531
-1519.28
-305.194
-1388.19
-396.136
-1272.24
-478.473
-1169.26
-540.26
-1055.87
-575.787
-941.11
-582.871
-821.861
-560.502
-702.4
-509.227
-588.335
-430.655
-495.334
-326.274
-446.895
-197.706
-468.078
-55.3726
-564.659
66.8723
-709.892
120.41
-849.988
78.0805
-889.3
-679.532
-75.9053
-1206.24
-17.6744
-1978.31
71.7689
-1824.91
127.992
-1575.5
171.435
-1431.63
210.874
-1311.68
256.416
-1214.81
316.255
-1115.71
396.461
-1021.32
503.309
-928.71
639.514
-838.605
801.296
-750.117
970.827
-664.865
1112.69
-588.757
1178.84
-534.23
1128.49
-514.306
948.799
-530.203
660.114
-561.304
324.19
-553.376
-355.342
45.0238
-1251.26
95.9151
-2029.2
155.244
-1884.24
214.139
-1634.4
281.205
-1498.7
350.22
-1380.69
419.522
-1284.11
487.932
-1184.12
555.407
-1088.79
622.585
-995.887
690.096
-906.116
758.917
-818.936
827.42
-733.369
887.564
-648.9
920.213
-566.88
896.349
-490.442
790.699
-424.553
589.725
-360.33
313.238
-276.89
-42.1033
154.856
-1406.12
209.438
-2083.78
240.984
-1915.78
283.732
-1677.15
344.067
-1559.04
403.716
-1440.34
464.777
-1345.17
522.941
-1242.28
579.141
-1144.99
629.751
-1046.5
671.544
-947.909
700.807
-848.199
715.233
-747.795
713.254
-646.921
692.44
-546.066
644.912
-442.914
558.173
-337.814
415.373
-217.531
212.158
-73.6757
170.054
245.224
-1651.34
279.989
-2118.55
293.231
-1929.02
336.202
-1720.12
404.376
-1627.21
470.291
-1506.25
543.357
-1418.23
617.318
-1316.24
695.537
-1223.21
769.449
-1120.41
831.814
-1010.27
873.287
-889.672
887.476
-761.984
869.642
-629.087
817.247
-493.671
727.83
-353.497
599.558
-209.543
426.531
-44.5038
213.428
139.427
383.482
250.114
-1901.46
216.993
-2085.43
215.248
-1927.28
250.684
-1755.55
309.476
-1686
367.6
-1564.38
440.922
-1491.56
520.498
-1395.82
609.76
-1312.47
692.362
-1203.01
757.833
-1075.75
794.517
-926.357
797.859
-765.326
762.946
-594.175
687.845
-418.571
567.464
-233.117
392.252
-34.3322
241.758
105.99
97.4181
283.766
480.9
116.017
-2017.48
3.85855
-1973.27
-36.4236
-1887
-59.9993
-1731.98
-74.3624
-1671.64
-87.0449
-1551.7
-90.2255
-1488.38
-87.18
-1398.87
-80.1372
-1319.51
-80.4651
-1202.68
-93.9889
-1062.22
-121.702
-898.644
-162.111
-724.917
-215.484
-540.803
-272.346
-361.709
-314.163
-191.301
-318.877
-29.6187
-335.122
122.234
-278.362
227.005
202.539
-36.0831
-1981.39
-145.106
-1864.25
-218.472
-1813.63
-302.048
-1648.4
-384.489
-1589.2
-472.963
-1463.22
-566.577
-1394.76
-664.819
-1300.63
-767.838
-1216.5
-868.772
-1101.75
-961.893
-969.101
-1040.48
-820.056
-1106.09
-659.314
-1164.84
-482.051
-1220.59
-305.962
-1247.8
-164.088
-1191.39
-86.0307
-970.358
-98.7974
-527.657
-215.696
-325.119
-51.9169
-1929.48
-106.643
-1809.52
-159.426
-1760.85
-234.137
-1573.69
-305.626
-1517.71
-392.236
-1376.61
-489.182
-1297.82
-599.087
-1190.72
-713.756
-1101.83
-815.095
-1000.41
-886.595
-897.601
-917.46
-789.192
-902.317
-674.458
-838.963
-545.405
-738.726
-406.199
-615.04
-287.775
-459.804
-241.267
-252.245
-306.356
-56.0584
-411.884
-381.177
37.1862
-1966.66
48.5052
-1820.84
71.9995
-1784.35
90.0853
-1591.78
107.656
-1535.28
126.42
-1395.38
138.064
-1309.46
147.406
-1200.06
152.635
-1107.06
164.341
-1012.12
189.359
-922.62
233.644
-833.48
302.864
-743.678
405.792
-648.334
541.913
-542.321
678.996
-424.858
738.963
-301.234
644.556
-211.949
377.087
-144.415
-4.09022
24.0631
-1990.73
13.4302
-1810.21
25.0215
-1795.94
56.1984
-1622.96
85.2286
-1564.31
136.088
-1446.24
190.419
-1363.79
259.591
-1269.24
336.351
-1183.82
422.267
-1098.04
514.664
-1015.02
613.027
-931.843
714.94
-845.592
814.777
-748.171
897.579
-625.124
928.304
-455.583
866.001
-238.932
610.024
44.0269
312.414
153.193
308.324
-129.406
-1861.32
-287.599
-1652.02
-407.448
-1676.09
-482.286
-1548.12
-546.831
-1499.77
-577.149
-1415.92
-590.873
-1350.07
-581.584
-1278.53
-554.205
-1211.2
-508.733
-1143.51
-446.815
-1076.94
-368.811
-1009.85
-275.607
-938.797
-171.09
-852.688
-65.8846
-730.33
22.0959
-543.563
72.2728
-289.11
95.7923
20.5064
24.2081
224.777
332.532
-207.43
-1653.89
-460.717
-1398.73
-728.866
-1407.94
-953.344
-1323.64
-1168.27
-1284.84
-1349.45
-1234.74
-1507.01
-1192.5
-1635.94
-1149.6
-1738.91
-1108.22
-1815.46
-1066.96
-1866.5
-1025.9
-1891.9
-984.443
-1889.65
-941.043
-1851.67
-890.672
-1759.37
-822.628
-1579.94
-722.99
-1287.17
-581.881
-865.059
-401.608
-423.684
-216.598
-91.1518
-678.893
-1102.62
-1535.56
-1884.2
-2194.05
-2453.79
-2671.3
-2845.9
-2979.12
-3071.08
-3121.98
-3131.43
-3097.47
-3013.14
-2860.77
-2608.76
-2215.64
-1642.25
-883.848
-678.889
1653.89
-1102.62
1398.73
-1535.56
1407.94
-1884.2
1323.64
-2194.05
1284.85
-2453.8
1234.75
-2671.31
1192.51
-2845.92
1149.61
-2979.15
1108.23
-3071.13
1066.98
-3122.04
1025.92
-3131.51
984.464
-3097.57
941.065
-3013.25
890.681
-2860.86
822.602
-2608.78
722.921
-2215.58
581.805
-1642.16
401.58
-883.8
216.639
91.2003
-207.458
1861.35
-460.774
1652.05
-728.954
1676.12
-953.468
1548.16
-1168.43
1499.81
-1349.65
1415.97
-1507.26
1350.12
-1636.24
1278.58
-1739.26
1211.26
-1815.86
1143.58
-1866.96
1077.01
-1892.43
1009.93
-1890.25
938.884
-1852.3
852.74
-1759.99
730.285
-1580.45
543.387
-1287.5
288.848
-865.049
-20.8668
-423.635
-224.774
-332.435
-129.441
1990.79
-287.684
1810.29
-407.571
1796.01
-482.454
1623.04
-547.038
1564.39
-577.404
1446.34
-591.173
1363.89
-581.934
1269.35
-554.603
1183.93
-509.174
1098.15
-447.287
1015.13
-369.305
931.952
-276.119
845.699
-171.628
748.25
-66.4707
625.129
21.4601
455.458
71.6666
238.644
95.3145
-44.5117
23.9064
-153.365
-308.528
24.1176
1966.67
13.4721
1820.94
25.0866
1784.39
56.2929
1591.84
85.3639
1535.32
136.263
1395.44
190.65
1309.51
259.88
1200.12
336.708
1107.1
422.688
1012.17
515.138
922.678
613.532
833.558
715.443
743.788
815.208
648.486
897.842
542.495
928.286
425.015
865.619
301.311
609.263
211.846
311.852
144.047
3.32312
37.3483
1929.33
48.7796
1809.51
72.4059
1760.77
90.6599
1573.58
108.39
1517.59
127.349
1376.48
139.2
1297.66
148.783
1190.53
154.268
1101.62
166.227
1000.21
191.46
897.446
235.915
789.105
305.256
674.448
408.26
545.483
544.383
406.373
681.229
288.17
740.574
241.966
645.398
307.022
377.422
412.024
380.745
-51.79
1981.12
-106.32
1864.04
-158.949
1813.4
-233.498
1648.13
-304.827
1588.92
-391.271
1462.92
-488.054
1394.44
-597.789
1300.27
-712.268
1216.1
-813.387
1101.33
-884.648
968.707
-915.274
819.731
-899.89
659.064
-836.28
481.874
-735.789
305.883
-611.852
164.233
-456.509
86.6223
-249.431
99.9447
-54.4956
217.088
326.25
-36.3709
2017.49
-145.357
1973.02
-218.81
1886.85
-302.536
1731.86
-385.138
1671.53
-473.818
1551.6
-567.681
1488.3
-666.22
1398.81
-769.57
1319.45
-870.817
1202.58
-964.186
1062.08
-1042.92
898.464
-1108.56
724.701
-1167.25
540.564
-1222.82
361.456
-1249.54
190.956
-1192.03
29.1138
-970.098
-121.99
-526.945
-226.064
-200.696
115.585
1901.9
3.25868
2085.35
-37.2078
1927.32
-61.023
1755.68
-75.6552
1686.16
-88.6063
1564.55
-92.0823
1491.78
-89.343
1396.07
-82.6143
1312.72
-83.2145
1203.18
-96.9363
1075.8
-124.776
926.303
-165.291
765.215
-218.681
593.954
-275.493
418.268
-317.265
232.728
-322.397
34.2455
-338.322
-106.066
-280.194
-284.192
-480.89
250.072
1651.83
216.753
2118.67
214.912
1929.16
250.269
1720.32
308.982
1627.45
367.044
1506.49
440.322
1418.5
519.868
1316.52
609.086
1223.5
691.594
1120.67
756.916
1010.48
793.427
889.793
796.624
762.018
761.556
629.023
686.314
493.509
565.817
353.226
390.896
209.167
240.919
43.9109
96.7745
-140.047
-384.115
245.512
1406.32
280.23
2083.95
293.422
1915.97
336.395
1677.34
404.599
1559.24
470.548
1440.54
543.671
1345.38
617.7
1242.5
695.997
1145.2
769.976
1046.69
832.384
948.068
873.874
848.302
888.063
747.83
870.207
646.879
817.767
545.949
728.27
442.723
599.894
337.543
426.677
217.128
213.493
73.1368
-170.622
155.177
1251.14
209.765
2029.36
241.232
1884.5
283.95
1634.63
344.285
1498.91
403.93
1380.9
464.998
1284.31
523.177
1184.32
579.409
1088.97
630.058
996.045
671.868
906.258
701.103
819.068
715.438
733.495
713.304
649.013
692.307
566.947
644.644
490.386
557.874
424.313
415.133
359.87
212.03
276.24
41.4077
45.4856
1205.65
96.443
1978.41
155.6
1825.34
214.352
1575.87
281.35
1431.91
350.272
1311.97
419.441
1215.14
487.636
1116.12
554.804
1021.8
621.524
929.323
688.458
839.323
756.642
750.882
824.572
665.565
884.31
589.273
916.937
534.32
893.466
513.857
788.539
529.241
588.406
560.002
312.583
552.064
353.99
-75.4748
1281.13
-16.9738
1919.9
72.7692
1735.6
129.134
1519.51
172.805
1388.24
212.609
1272.17
258.496
1169.25
318.587
1056.03
398.891
941.498
505.666
822.549
641.665
703.323
803.129
589.419
972.196
496.497
1113.36
448.111
1178.66
469.015
1127.71
564.808
948.146
708.806
660.099
848.049
324.657
887.506
678.648
-177.683
1458.81
-212.867
1955.09
-195.054
1717.79
-224.158
1548.61
-294.977
1459.06
-383.286
1360.48
-463.13
1249.1
-522.413
1115.31
-555.427
974.511
-559.974
827.095
-535.139
678.488
-481.636
535.914
-401.341
416.201
-296.12
342.889
-168.47
341.363
-29.8557
426.192
85.6128
593.337
130.943
802.718
81.8878
936.56
760.535
-1.78424
1460.59
-112.82
2066.12
-292.546
1897.51
-465.274
1721.34
-642.11
1635.89
-834.07
1552.44
-1031.28
1446.3
-1226.08
1310.11
-1416.11
1164.54
-1602.84
1013.82
-1785.34
860.988
-1954.58
705.153
-2088.09
549.709
-2147.38
402.182
-2083.98
277.96
-1856.72
198.929
-1453.17
189.79
-910.914
260.46
-354.888
380.534
405.648
438.173
1022.42
639.426
1864.87
487.93
2049.01
257.694
1951.57
70.654
1822.93
-88.0821
1711.17
-242.611
1600.83
-403.893
1471.39
-570.095
1330.75
-739.181
1182.91
-909.768
1031.58
-1079.95
875.331
-1244.57
714.328
-1392.21
549.819
-1500.76
386.514
-1531.27
229.436
-1425.03
83.5505
-1119.53
-45.0362
-589.346
-149.651
-183.698
687.39
335.03
1120.91
1431.35
1114.5
2055.42
959.986
2106.09
839.257
1943.66
769.619
1780.81
720.708
1649.74
666.325
1525.78
600.05
1397.02
521.889
1261.07
433.185
1120.28
333.029
975.487
220.081
827.275
95.0149
674.885
-36.1606
517.688
-153.89
347.164
-224.37
154.027
-232.315
-37.0935
-212.971
-168.996
-396.669
350.656
-15.627
473.305
1308.7
475.554
2053.17
485.568
2096.07
521.478
1907.75
577.546
1724.75
643.541
1583.75
709.776
1459.54
768.217
1338.58
814.771
1214.51
847.463
1087.59
863.755
959.194
860.055
830.974
831.587
703.353
772.3
576.975
670.532
448.932
506.209
318.349
293.208
175.907
121.501
2.71006
-275.168
-135.586
119.959
-343.987
1517.1
-342.662
2051.85
-239.302
1992.71
-116.879
1785.33
10.3902
1597.48
144.872
1449.26
276.181
1328.23
396.436
1218.32
499.28
1111.67
580.89
1005.98
638.816
901.268
671.233
798.557
676.32
698.266
652.57
600.724
597.526
503.976
509.265
406.61
384.774
300.398
218.95
168.534
-56.2177
-415.363
-313.89
-37.8763
237.799
468.123
661.422
793.369
914.066
1012.35
1087.16
1136.74
1159.5
1153.67
1117.22
1048.62
945.833
806.746
622.405
366.729
)
;

boundaryField
{
    outletWall
    {
        type            calculated;
        value           nonuniform List<scalar> 
60
(
14031.4
-1581.81
986.723
4345.71
4496.63
-381.259
-12986.3
-19307.1
-22660.2
-22241.9
-20330.8
-18547
-17068.4
-15449.5
-13883.5
-12133.8
-9994.81
-7783.79
-80.1251
4026.45
9946.06
8049.02
6907.42
5686.44
4269.33
2405.78
-55.3934
-1926.52
-2751.6
-3086.52
-3083.8
-2821.96
-2452.81
-2074.29
-1712.24
-1371.57
-1062.2
-774.663
-542.55
-219.534
5019.22
-4060.54
-9167.49
-14050.5
-20665.6
-20808.8
-196.879
26355.1
32976.9
31655.4
29203.7
26587.8
23849.1
20963.3
17930.2
14908.8
11859.7
9217.73
6850.87
3786.91
)
;
    }
    fineWalls
    {
        type            calculated;
        value           uniform 0;
    }
    fineFrontAndBack
    {
        type            calculated;
        value           nonuniform List<scalar> 
960
(
2.47496e-13
4.38205e-12
1.53925e-12
1.99078e-12
1.04545e-11
1.44732e-12
1.35885e-13
-5.83073e-13
-7.03136e-12
-1.87899e-12
-2.52699e-12
-3.20261e-12
5.68301e-13
8.42243e-13
5.3151e-12
1.13796e-12
1.23669e-12
4.36378e-12
6.97707e-13
6.85493e-13
1.18357e-13
5.19701e-14
-2.01386e-14
-1.14302e-13
-1.81905e-13
-3.15008e-13
-7.42789e-12
-5.06404e-13
-5.81388e-13
-6.58761e-13
-7.16716e-13
-7.51477e-13
-7.81444e-13
-7.95095e-13
-7.70743e-13
-7.0116e-13
-5.70437e-13
-4.24503e-13
-2.78536e-13
-3.8381e-13
3.89738e-12
1.90686e-12
2.07097e-12
1.79692e-12
1.53117e-11
1.24815e-11
1.71827e-11
1.93794e-11
1.01139e-10
1.37821e-11
1.43122e-11
2.56797e-11
-1.51435e-12
-1.43803e-12
-2.2052e-12
-1.8859e-11
-3.88942e-12
-3.82877e-12
-3.34158e-12
-1.75212e-12
7.69931e-13
6.59514e-13
7.60022e-13
8.23394e-13
9.0985e-13
9.70599e-13
1.00152e-12
1.0023e-12
9.85849e-13
9.62815e-13
9.34682e-13
8.96883e-13
8.60117e-13
1.96353e-11
8.72244e-13
8.37618e-13
8.86818e-13
9.37462e-13
1.02807e-12
1.07674e-12
6.0682e-12
6.31407e-12
3.92598e-11
7.8904e-12
8.86331e-12
5.31068e-11
9.52739e-12
7.89178e-12
3.66735e-11
5.59399e-12
4.58907e-12
3.68382e-11
8.23258e-12
8.60165e-12
8.74083e-12
4.5272e-11
7.7427e-12
7.22908e-12
3.46584e-11
7.95189e-12
1.1087e-12
7.09024e-13
-2.06072e-12
-3.33002e-12
-2.6787e-12
-1.49344e-12
-2.73838e-12
-6.14123e-12
-8.09295e-12
-4.29571e-12
7.44969e-12
2.38266e-11
3.83116e-11
4.61365e-11
4.62465e-11
4.59827e-11
4.32644e-11
4.26212e-11
3.26069e-11
2.37528e-12
7.20364e-13
-2.08156e-12
-3.32766e-12
-2.64338e-12
-1.49766e-12
-2.82623e-12
-6.24775e-12
-8.07691e-12
-4.03631e-12
7.8807e-12
2.42216e-11
3.85144e-11
4.61063e-11
4.65027e-11
4.67322e-11
4.52166e-11
4.58593e-11
3.39329e-11
3.47e-12
8.75338e-13
-2.09267e-12
-3.32297e-12
-2.60162e-12
-1.50568e-12
-2.93986e-12
-6.38247e-12
-8.04673e-12
-3.67591e-12
8.48803e-12
2.48008e-11
3.88384e-11
4.60788e-11
4.669e-11
4.66765e-11
4.54802e-11
4.69736e-11
3.6739e-11
4.8172e-12
1.24485e-12
-2.08814e-12
-3.31252e-12
-2.55979e-12
-1.51736e-12
-3.06552e-12
-6.5284e-12
-7.99877e-12
-3.24017e-12
9.22912e-12
2.55415e-11
3.93013e-11
4.60906e-11
4.61365e-11
4.42924e-11
4.11237e-11
4.52959e-11
3.83808e-11
6.3317e-12
1.93253e-12
-2.05879e-12
-3.30157e-12
-2.51443e-12
-1.53539e-12
-3.20705e-12
-6.6828e-12
-7.92716e-12
-2.72075e-12
1.01179e-11
2.6472e-11
3.99548e-11
4.62143e-11
4.31663e-11
3.60564e-11
2.57966e-11
3.54533e-11
3.39312e-11
7.92696e-12
2.98969e-12
-1.93202e-12
-3.31543e-12
-2.46141e-12
-1.55697e-12
-3.35763e-12
-6.84728e-12
-7.82286e-12
-2.10209e-12
1.11621e-11
2.75936e-11
4.08661e-11
4.63671e-11
3.73002e-11
2.22044e-11
5.43998e-12
1.71534e-11
2.39619e-11
9.43856e-12
4.21766e-12
-1.57345e-12
-3.35756e-12
-2.4054e-12
-1.59203e-12
-3.55045e-12
-7.02048e-12
-7.67769e-12
-1.36407e-12
1.24302e-11
2.9054e-11
4.19608e-11
4.43104e-11
3.31612e-11
1.52766e-11
7.2172e-13
1.33007e-11
3.94447e-11
1.06314e-11
5.32358e-12
-9.31981e-13
-3.3433e-12
-2.3653e-12
-1.63119e-12
-3.756e-12
-7.20426e-12
-7.46866e-12
-4.86576e-13
1.37391e-11
3.02439e-11
4.26969e-11
4.27533e-11
3.36726e-11
1.73248e-11
-8.77728e-13
-4.17073e-12
5.82605e-12
1.12541e-11
6.09371e-12
-1.51452e-13
-3.13398e-12
-2.36125e-12
-1.68403e-12
-3.84526e-12
-7.39514e-12
-7.20347e-12
5.15845e-13
1.57513e-11
3.38322e-11
4.44969e-11
4.4215e-11
2.65771e-11
1.88407e-11
-1.62383e-12
-2.02875e-11
-2.54205e-11
1.082e-11
6.3031e-12
5.37524e-13
-2.61663e-12
-2.343e-12
-1.89827e-12
-5.31413e-12
-7.56484e-12
-6.81387e-12
1.85039e-12
1.65655e-11
2.71075e-11
4.37201e-11
2.01645e-11
-1.23704e-11
1.06963e-11
5.1309e-12
5.20198e-12
4.06235e-12
1.02368e-11
6.02731e-12
1.03157e-12
-1.72022e-12
-2.18785e-12
-2.03229e-12
-5.0305e-12
-7.75069e-12
-6.25924e-12
3.26041e-12
1.74378e-11
2.75605e-11
4.12707e-11
1.47578e-11
-7.68452e-12
-7.64042e-12
1.04949e-12
1.41324e-11
4.92074e-11
9.82395e-12
5.38995e-12
1.42846e-12
-5.60671e-13
-1.77467e-12
-2.07857e-12
-4.68485e-12
-7.92165e-12
-5.52694e-12
4.72534e-12
1.86404e-11
3.06242e-11
3.86747e-11
1.17087e-11
-7.66413e-12
-1.65544e-12
3.32118e-12
5.38916e-12
1.14682e-11
9.73781e-12
4.84968e-12
1.9372e-12
4.99434e-13
-1.19265e-12
-2.06799e-12
-4.86242e-12
-8.02435e-12
-4.61113e-12
6.31177e-12
2.03359e-11
3.28534e-11
3.57732e-11
1.05986e-11
-1.33914e-12
4.06382e-12
7.63239e-12
7.48089e-12
5.60177e-12
1.07769e-11
5.6716e-12
3.01017e-12
1.47258e-12
-4.67045e-13
-2.00577e-12
-5.23911e-12
-7.99997e-12
-3.48773e-12
8.1499e-12
2.25189e-11
3.45579e-11
3.27327e-11
9.0237e-12
-2.62323e-12
-3.80331e-13
1.14978e-12
5.63665e-12
-8.4833e-12
1.36776e-11
8.20602e-12
5.1724e-12
2.95932e-12
5.53391e-13
-1.96367e-12
-5.79219e-12
-7.77723e-12
-2.08562e-12
1.03886e-11
2.51214e-11
3.56269e-11
2.9332e-11
6.63512e-12
-3.98097e-12
-6.9295e-13
1.71471e-12
3.18454e-12
-2.86146e-12
1.66758e-11
1.0899e-11
7.6521e-12
4.7431e-12
1.46702e-12
-2.27109e-12
-6.44259e-12
-7.21459e-12
-2.67191e-13
1.3147e-11
2.80178e-11
3.59438e-11
2.52786e-11
3.33095e-12
-5.17898e-12
-1.60238e-12
1.4367e-12
2.47243e-12
1.34388e-12
1.93218e-11
1.23994e-11
8.75231e-12
5.40003e-12
1.30909e-12
-3.21168e-12
-6.96015e-12
-6.16226e-12
2.08264e-12
1.64748e-11
3.10638e-11
3.55076e-11
2.06357e-11
-2.8866e-13
-4.85515e-12
-1.92905e-12
1.40017e-12
2.48641e-12
4.37048e-12
2.25722e-11
1.40078e-11
8.73097e-12
4.7371e-12
3.05257e-13
-3.96781e-12
-6.43003e-12
-3.96215e-12
5.44754e-12
2.047e-11
3.39368e-11
3.42949e-11
1.59383e-11
-3.46448e-12
-4.07353e-12
-2.09051e-12
1.3932e-12
2.67997e-12
2.18743e-12
2.72279e-11
1.92987e-11
1.09522e-11
4.84735e-12
-7.1397e-13
-4.87691e-12
-6.19693e-12
-2.26499e-12
8.56357e-12
2.45001e-11
3.6774e-11
3.32286e-11
1.20657e-11
-5.89611e-12
-3.8495e-12
-2.19237e-12
1.40965e-12
2.70347e-12
-2.64062e-13
2.80478e-11
2.78064e-11
2.10694e-11
1.50356e-11
9.09464e-12
4.89135e-12
4.05503e-12
8.52326e-12
1.90773e-11
3.23962e-11
3.91973e-11
3.01801e-11
8.48495e-12
-6.81812e-12
-3.96415e-12
-2.22856e-12
1.44089e-12
2.64021e-12
1.78815e-12
-2.47496e-13
-4.38205e-12
-1.53925e-12
-1.99078e-12
-1.04545e-11
-1.44732e-12
-1.35885e-13
5.83073e-13
7.03136e-12
1.87899e-12
2.52699e-12
3.20261e-12
-5.68301e-13
-8.42243e-13
-5.3151e-12
-1.13796e-12
-1.23669e-12
-4.36378e-12
-6.97707e-13
-6.85493e-13
-1.18357e-13
-5.19701e-14
2.01386e-14
1.14302e-13
1.81905e-13
3.15008e-13
7.42789e-12
5.06404e-13
5.81388e-13
6.58761e-13
7.16716e-13
7.51477e-13
7.81444e-13
7.95095e-13
7.70743e-13
7.0116e-13
5.70437e-13
4.24503e-13
2.78536e-13
3.8381e-13
-3.89738e-12
-1.90686e-12
-2.07097e-12
-1.79692e-12
-1.53117e-11
-1.24815e-11
-1.71827e-11
-1.93794e-11
-1.01139e-10
-1.37821e-11
-1.43122e-11
-2.56797e-11
1.51435e-12
1.43803e-12
2.2052e-12
1.8859e-11
3.88942e-12
3.82877e-12
3.34158e-12
1.75212e-12
-7.69931e-13
-6.59514e-13
-7.60022e-13
-8.23394e-13
-9.0985e-13
-9.70599e-13
-1.00152e-12
-1.0023e-12
-9.85849e-13
-9.62815e-13
-9.34682e-13
-8.96883e-13
-8.60117e-13
-1.96353e-11
-8.72244e-13
-8.37618e-13
-8.86818e-13
-9.37462e-13
-1.02807e-12
-1.07674e-12
-6.0682e-12
-6.31407e-12
-3.92598e-11
-7.8904e-12
-8.86331e-12
-5.31068e-11
-9.52739e-12
-7.89178e-12
-3.66735e-11
-5.59399e-12
-4.58907e-12
-3.68382e-11
-8.23258e-12
-8.60165e-12
-8.74083e-12
-4.5272e-11
-7.7427e-12
-7.22908e-12
-3.46584e-11
-7.95189e-12
-1.1087e-12
-7.09024e-13
2.06072e-12
3.33002e-12
2.6787e-12
1.49344e-12
2.73838e-12
6.14123e-12
8.09295e-12
4.29571e-12
-7.44969e-12
-2.38266e-11
-3.83116e-11
-4.61365e-11
-4.62465e-11
-4.59827e-11
-4.32644e-11
-4.26212e-11
-3.26069e-11
-2.37528e-12
-7.20364e-13
2.08156e-12
3.32766e-12
2.64338e-12
1.49766e-12
2.82623e-12
6.24775e-12
8.07691e-12
4.03631e-12
-7.8807e-12
-2.42216e-11
-3.85144e-11
-4.61063e-11
-4.65027e-11
-4.67322e-11
-4.52166e-11
-4.58593e-11
-3.39329e-11
-3.47e-12
-8.75338e-13
2.09267e-12
3.32297e-12
2.60162e-12
1.50568e-12
2.93986e-12
6.38247e-12
8.04673e-12
3.67591e-12
-8.48803e-12
-2.48008e-11
-3.88384e-11
-4.60788e-11
-4.669e-11
-4.66765e-11
-4.54802e-11
-4.69736e-11
-3.6739e-11
-4.8172e-12
-1.24485e-12
2.08814e-12
3.31252e-12
2.55979e-12
1.51736e-12
3.06552e-12
6.5284e-12
7.99877e-12
3.24017e-12
-9.22912e-12
-2.55415e-11
-3.93013e-11
-4.60906e-11
-4.61365e-11
-4.42924e-11
-4.11237e-11
-4.52959e-11
-3.83808e-11
-6.3317e-12
-1.93253e-12
2.05879e-12
3.30157e-12
2.51443e-12
1.53539e-12
3.20705e-12
6.6828e-12
7.92716e-12
2.72075e-12
-1.01179e-11
-2.6472e-11
-3.99548e-11
-4.62143e-11
-4.31663e-11
-3.60564e-11
-2.57966e-11
-3.54533e-11
-3.39312e-11
-7.92696e-12
-2.98969e-12
1.93202e-12
3.31543e-12
2.46141e-12
1.55697e-12
3.35763e-12
6.84728e-12
7.82286e-12
2.10209e-12
-1.11621e-11
-2.75936e-11
-4.08661e-11
-4.63671e-11
-3.73002e-11
-2.22044e-11
-5.43998e-12
-1.71534e-11