/*--------------------------------*- C++ -*----------------------------------*\
| =========                 |                                                 |
| \\      /  F ield         | OpenFOAM: The Open Source CFD Toolbox           |
|  \\    /   O peration     | Version:  4.1                                   |
|   \\  /    A nd           | Web:      www.OpenFOAM.org                      |
|    \\/     M anipulation  |                                                 |
\*---------------------------------------------------------------------------*/
FoamFile
{
    version     2.0;
    format      ascii;
    class       volVectorField;
    location    "30";
    object      U;
}
// * * * * * * * * * * * * * * * * * * * * * * * * * * * * * * * * * * * * * //

dimensions      [0 1 -1 0 0 0 0];

internalField   nonuniform List<vector> 
1280
(
(1.78859e-16 -1.63938 -1.67014)
(7.45897e-16 -1.12243 -1.57919)
(1.11237e-15 -1.31011 -1.27372)
(1.43869e-15 -0.956767 -1.35928)
(1.77684e-15 -0.87478 -1.88485)
(1.04594e-15 -0.671315 -1.51438)
(9.82002e-17 -0.424545 -1.57655)
(-3.49584e-16 -0.216705 -1.51606)
(-1.53366e-15 0.139007 -2.00381)
(-1.3579e-15 0.177077 -1.54887)
(-1.82619e-15 0.468869 -1.43562)
(-3.62178e-16 0.819185 -2.37252)
(4.36708e-16 0.961442 -1.9783)
(6.08667e-16 1.32565 -1.81074)
(9.54432e-16 1.8585 -3.16708)
(8.22373e-16 2.01298 -2.63195)
(8.93725e-16 2.50305 -2.28264)
(7.41667e-16 3.33293 -4.54068)
(5.04215e-16 3.62878 -3.45789)
(4.95388e-16 4.07951 -3.75532)
(4.85567e-16 4.19171 -2.98397)
(2.13211e-16 4.34773 2.97336)
(-8.26198e-17 4.12506 7.77532)
(-4.68931e-16 4.25606 10.1328)
(-7.46277e-16 4.45061 11.0397)
(-1.29234e-15 4.83133 11.4518)
(-1.56583e-15 3.84248 8.49304)
(-2.07756e-15 8.28935 13.8788)
(-2.38518e-15 8.26862 13.7813)
(-2.70261e-15 8.30674 13.4571)
(-2.94037e-15 8.31992 13.0655)
(-3.08298e-15 8.30821 12.6948)
(-3.20592e-15 8.29864 12.4084)
(-3.26193e-15 8.2788 12.2399)
(-3.16202e-15 8.25298 12.182)
(-2.87656e-15 8.18875 12.1689)
(-2.34025e-15 8.13961 12.1643)
(-1.74155e-15 7.99531 12.0903)
(-1.14271e-15 7.98321 12.2474)
(-1.5746e-15 7.64225 12.1626)
(6.78395e-16 8.90399 14.1677)
(1.53161e-15 5.06327 10.1098)
(1.66343e-15 3.86018 9.9636)
(1.45174e-15 2.81824 10.0253)
(2.79629e-15 0.770193 7.50397)
(1.00253e-14 0.261485 -0.994382)
(1.38014e-14 -0.178871 -2.09853)
(1.55658e-14 0.300663 -3.23109)
(1.8749e-14 0.0781507 -4.40268)
(1.23416e-14 0.0238386 -4.20436)
(1.20614e-14 0.311323 -4.16142)
(4.46992e-15 1.04844 -0.560066)
(-1.21635e-15 -0.138727 4.7821)
(-1.15505e-15 -0.599246 4.51334)
(-1.77124e-15 -1.27322 5.03786)
(-3.28268e-15 -2.34052 9.27498)
(-3.13651e-15 -3.97903 9.8535)
(-3.07531e-15 -5.13175 10.0015)
(-2.684e-15 -6.2511 10.0647)
(-5.05088e-16 -10.2472 13.8726)
(3.15869e-15 -8.57934 11.6861)
(2.7057e-15 -8.90009 11.8342)
(3.11804e-15 -8.89621 11.6805)
(3.37803e-15 -9.03399 11.6571)
(3.73272e-15 -9.06662 11.5166)
(3.98194e-15 -9.11365 11.3654)
(4.1088e-15 -9.11393 11.2722)
(4.11199e-15 -9.10629 11.3134)
(4.04451e-15 -9.08497 11.5043)
(3.95001e-15 -9.06737 11.8106)
(3.83459e-15 -9.0294 12.1619)
(3.67952e-15 -8.95503 12.4678)
(3.52869e-15 -8.93524 12.5764)
(4.1392e-15 -4.93763 7.0701)
(3.57844e-15 -5.57201 10.3238)
(3.43638e-15 -5.19519 9.87624)
(3.63823e-15 -4.96567 9.01849)
(3.846e-15 -4.80994 6.86905)
(4.21773e-15 -4.91287 2.51871)
(4.41738e-15 -4.7746 -2.67179)
(4.38533e-15 -4.46643 -3.42407)
(4.55011e-15 -4.18611 -2.95399)
(6.67259e-15 -4.63542 -3.98704)
(5.70219e-15 -3.40191 -3.00993)
(6.40528e-15 -2.86873 -2.89884)
(9.08233e-15 -2.97522 -3.59652)
(6.8852e-15 -1.72803 -2.55727)
(5.78724e-15 -1.24882 -2.74574)
(6.43477e-15 -1.24032 -3.7024)
(3.7086e-15 -0.102302 -2.75837)
(3.39942e-15 0.515304 -2.63188)
(6.74497e-15 0.716801 -3.62387)
(5.97972e-15 1.4521 -2.60732)
(6.21618e-15 1.94088 -2.5861)
(6.31677e-15 2.19298 -2.42292)
(7.69442e-15 2.99814 -3.42331)
(5.59545e-15 3.08705 -2.4713)
(5.2199e-15 3.78038 -2.26718)
(5.91582e-15 3.52924 -3.00779)
(5.74663e-15 4.61512 -3.0795)
(1.23189e-16 1.34233 -0.176873)
(7.87804e-17 -0.0690744 0.149332)
(-2.28969e-16 -2.60434 0.148095)
(-3.70002e-16 -3.34746 0.302756)
(-2.97633e-16 -4.05835 0.425265)
(-1.65938e-16 -4.64279 0.555469)
(-3.04265e-16 -5.16593 0.687366)
(-6.82359e-16 -5.70605 0.825636)
(-8.99216e-16 -6.19888 0.917445)
(-4.77301e-16 -6.79257 0.991993)
(8.27743e-16 -7.43012 0.967519)
(2.6474e-15 -7.57295 0.861131)
(4.25684e-15 -6.46949 0.530476)
(5.12628e-15 -4.36137 0.0867635)
(5.1385e-15 -0.0947573 -0.931879)
(5.10918e-15 1.56877 -2.70968)
(4.80716e-15 1.43229 -3.58522)
(4.73569e-15 0.291202 -3.54152)
(3.62299e-15 -0.525144 -3.61624)
(2.6392e-16 1.19831 -0.442399)
(8.00404e-17 -0.0551324 0.197504)
(-2.31285e-16 -2.6459 0.129568)
(-3.69739e-16 -3.40767 0.303678)
(-2.93709e-16 -4.11879 0.42907)
(-1.66406e-16 -4.7024 0.57004)
(-3.14026e-16 -5.22675 0.710648)
(-6.94194e-16 -5.75189 0.859772)
(-8.97435e-16 -6.22331 0.966907)
(-4.48479e-16 -6.77998 1.06557)
(8.75634e-16 -7.35453 1.07761)
(2.69129e-15 -7.38603 0.999814)
(4.27937e-15 -6.12241 0.639679)
(5.12292e-15 -3.70683 -0.0092958)
(5.16697e-15 1.01692 -1.91233)
(5.19247e-15 2.42529 -4.12682)
(5.02407e-15 1.78903 -5.54349)
(5.09548e-15 0.266929 -5.61987)
(3.77032e-15 -0.792347 -4.16195)
(3.85556e-16 1.03904 -0.638862)
(9.72598e-17 -0.212388 0.185857)
(-2.32519e-16 -2.69521 0.0772396)
(-3.69219e-16 -3.47583 0.297837)
(-2.89069e-16 -4.18217 0.430194)
(-1.67298e-16 -4.76729 0.589411)
(-3.26651e-16 -5.29587 0.743666)
(-7.09163e-16 -5.81594 0.910142)
(-8.94081e-16 -6.28117 1.04151)
(-4.08435e-16 -6.82468 1.1752)
(9.43114e-16 -7.37131 1.24002)
(2.75564e-15 -7.34219 1.21165)
(4.31538e-15 -5.96487 0.869795)
(5.11986e-15 -3.15651 0.0128427)
(5.18778e-15 1.52327 -2.60476)
(5.18628e-15 3.16827 -5.06354)
(5.05336e-15 2.09255 -6.8301)
(5.21929e-15 -0.194463 -7.00173)
(4.08211e-15 -1.30125 -4.91467)
(5.35245e-16 0.83578 -0.879178)
(1.38316e-16 -0.345598 0.108805)
(-2.32015e-16 -2.73481 0.00254694)
(-3.68058e-16 -3.54774 0.284455)
(-2.84421e-16 -4.24297 0.430752)
(-1.68595e-16 -4.82998 0.613465)
(-3.40613e-16 -5.36169 0.785192)
(-7.25378e-16 -5.87815 0.973038)
(-8.88752e-16 -6.34066 1.13452)
(-3.60019e-16 -6.8771 1.3112)
(1.02546e-15 -7.39736 1.44124)
(2.83794e-15 -7.3008 1.48803)
(4.36681e-15 -5.75957 1.22988)
(5.12118e-15 -2.33151 0.173155)
(5.12628e-15 2.62226 -3.20088)
(4.92138e-15 4.14637 -5.34339)
(4.5693e-15 2.60624 -6.89978)
(5.03287e-15 -0.656055 -7.59762)
(4.26453e-15 -2.38363 -5.63273)
(7.03522e-16 0.614376 -1.13494)
(2.14725e-16 -0.516526 -0.0846946)
(-2.28755e-16 -2.78893 -0.0790898)
(-3.66841e-16 -3.63941 0.265578)
(-2.79381e-16 -4.31439 0.43448)
(-1.70599e-16 -4.90355 0.64323)
(-3.56339e-16 -5.43781 0.836098)
(-7.42534e-16 -5.95183 1.04873)
(-8.80795e-16 -6.41431 1.2454)
(-3.02306e-16 -6.94799 1.47322)
(1.12422e-15 -7.44334 1.68066)
(2.94133e-15 -7.27908 1.83357)
(4.43943e-15 -5.52817 1.72351)
(5.13492e-15 -1.29819 0.446209)
(4.79626e-15 3.66575 -2.90309)
(4.00626e-15 4.7589 -3.31547)
(2.86629e-15 3.0579 -3.81122)
(3.93926e-15 -0.166458 -5.7911)
(3.77013e-15 -2.62575 -5.49829)
(8.80773e-16 0.392633 -1.41238)
(3.32188e-16 -0.734266 -0.387609)
(-2.14669e-16 -2.88731 -0.164339)
(-3.68381e-16 -3.75177 0.250273)
(-2.7349e-16 -4.39692 0.447179)
(-1.72997e-16 -4.98804 0.68097)
(-3.7307e-16 -5.52502 0.897054)
(-7.60809e-16 -6.03976 1.13636)
(-8.69207e-16 -6.5084 1.37144)
(-2.33566e-16 -7.04918 1.65588)
(1.24024e-15 -7.53344 1.94905)
(3.06596e-15 -7.32562 2.24016)
(4.54068e-15 -5.32046 2.28388)
(5.1519e-15 -0.0207135 0.6556)
(4.14446e-15 4.03419 -0.0148891)
(2.46715e-15 4.54949 1.53767)
(6.04443e-16 3.49332 1.76593)
(1.90593e-15 -1.41513 -0.680348)
(2.66243e-15 -3.49137 -3.23392)
(1.04873e-15 0.177904 -1.70276)
(4.68629e-16 -0.992124 -0.72795)
(-1.74828e-16 -3.04933 -0.263008)
(-3.73063e-16 -3.88636 0.245183)
(-2.67266e-16 -4.4892 0.475929)
(-1.76892e-16 -5.08155 0.730524)
(-3.94494e-16 -5.62184 0.969428)
(-7.80053e-16 -6.14061 1.23526)
(-8.53077e-16 -6.62194 1.50992)
(-1.51563e-16 -7.18022 1.85276)
(1.38114e-15 -7.67208 2.23615)
(3.22822e-15 -7.44056 2.68213)
(4.66231e-15 -5.13534 2.82633)
(4.92338e-15 0.356799 1.90112)
(3.68458e-15 3.18043 4.45683)
(1.6974e-15 4.22767 5.75411)
(8.01911e-17 4.30998 5.9368)
(1.47785e-15 1.85821 3.47604)
(4.38275e-15 -0.49453 -0.927616)
(1.18127e-15 -0.0382652 -2.0075)
(5.91509e-16 -1.2859 -1.02742)
(-1.03553e-16 -3.2777 -0.368897)
(-3.71478e-16 -4.05051 0.246219)
(-2.62812e-16 -4.59243 0.524925)
(-1.81243e-16 -5.18312 0.795925)
(-4.17333e-16 -5.72809 1.05508)
(-8.00473e-16 -6.2544 1.34509)
(-8.29851e-16 -6.75482 1.65863)
(-5.40639e-17 -7.34079 2.05809)
(1.52657e-15 -7.8587 2.53146)
(3.36043e-15 -7.60703 3.11745)
(4.7441e-15 -5.13041 3.40087)
(4.75036e-15 -0.486201 4.33781)
(3.7414e-15 2.33688 7.80006)
(1.92497e-15 4.07225 8.59471)
(-9.75253e-17 4.17517 9.76606)
(-4.63414e-16 0.187157 10.2327)
(6.47339e-16 -5.59478 10.0696)
(1.25045e-15 -0.262883 -2.30929)
(6.77079e-16 -1.61887 -1.23448)
(-1.6828e-17 -3.55811 -0.439666)
(-3.48221e-16 -4.24733 0.245074)
(-2.62362e-16 -4.71013 0.589822)
(-1.87114e-16 -5.29169 0.87843)
(-4.27251e-16 -5.84259 1.15558)
(-8.21682e-16 -6.38044 1.46573)
(-8.00386e-16 -6.90648 1.81525)
(5.73161e-17 -7.52975 2.26626)
(1.75014e-15 -8.08698 2.81818)
(3.75914e-15 -7.84317 3.50055)
(4.9441e-15 -5.49899 4.03078)
(4.91278e-15 -1.59275 6.26996)
(2.95301e-15 1.5232 9.4256)
(2.09341e-15 3.46279 9.85575)
(-1.80426e-16 3.57808 11.2741)
(-2.25417e-15 1.09524 13.082)
(-2.82451e-15 -2.72856 12.2226)
(1.20222e-15 -0.52162 -2.52338)
(7.00344e-16 -2.00782 -1.29915)
(5.97249e-17 -3.86594 -0.417194)
(-2.90737e-16 -4.46553 0.243333)
(-2.60334e-16 -4.84641 0.65823)
(-2.10919e-16 -5.40795 0.973653)
(-6.27822e-16 -5.96401 1.27113)
(-8.40537e-16 -6.51685 1.59764)
(-7.57097e-16 -7.07469 1.97793)
(2.05599e-16 -7.74233 2.4719)
(1.84061e-15 -8.34428 3.07945)
(2.86249e-15 -8.14515 3.80827)
(4.85779e-15 -6.11964 4.57644)
(2.2405e-15 -2.75316 7.28127)
(-2.25899e-15 0.940891 9.82669)
(1.18848e-15 3.386 9.63065)
(5.701e-16 3.19179 9.54652)
(5.77998e-16 0.288943 8.29311)
(4.51372e-16 -2.24706 6.35481)
(1.13742e-15 -0.81203 -2.52222)
(6.69701e-16 -2.4391 -1.1277)
(1.14619e-16 -4.16768 -0.257378)
(-1.91135e-16 -4.6802 0.261486)
(-2.43095e-16 -5.00246 0.721136)
(-2.2581e-16 -5.5359 1.07345)
(-5.40766e-16 -6.09311 1.39962)
(-8.61188e-16 -6.66195 1.7418)
(-6.95471e-16 -7.25618 2.14623)
(3.62267e-16 -7.97125 2.67154)
(1.93753e-15 -8.61678 3.30885)
(3.06228e-15 -8.4908 4.04794)
(4.58564e-15 -6.83432 5.00184)
(1.63975e-15 -3.80376 7.93305)
(-8.53836e-16 0.775128 9.88457)
(-8.48936e-16 3.61542 9.16388)
(1.1661e-16 3.9542 10.9996)
(1.57027e-15 2.55645 10.1422)
(5.46749e-15 1.33771 4.70007)
(1.09155e-15 -1.13531 -2.23804)
(5.98884e-16 -2.88725 -0.609296)
(1.58718e-16 -4.41106 0.0466325)
(-6.22968e-17 -4.86091 0.341414)
(-1.97186e-16 -5.1704 0.789226)
(-2.30953e-16 -5.67867 1.17489)
(-5.20539e-16 -6.23193 1.53816)
(-8.80183e-16 -6.81439 1.89927)
(-6.14104e-16 -7.44678 2.3218)
(5.25038e-16 -8.20842 2.86447)
(2.07116e-15 -8.89168 3.50554)
(3.40269e-15 -8.85779 4.2232)
(4.29719e-15 -7.55709 5.25311)
(1.30096e-15 -4.68631 7.76458)
(-8.5157e-16 0.472715 7.2377)
(-1.83937e-16 2.86457 5.31544)
(3.69021e-16 2.5708 9.47531)
(5.98796e-16 2.47116 13.2491)
(1.27424e-15 2.8274 11.7945)
(1.08198e-15 -1.52053 -1.53448)
(5.38853e-16 -3.36679 0.284396)
(2.15244e-16 -4.52992 0.486209)
(5.54926e-17 -4.98403 0.537388)
(-1.32517e-16 -5.33479 0.90083)
(-2.29776e-16 -5.8356 1.29048)
(-5.40269e-16 -6.38353 1.68693)
(-8.91595e-16 -6.97476 2.07056)
(-5.12348e-16 -7.64281 2.50742)
(7.01308e-16 -8.44603 3.05292)
(2.25954e-15 -9.15913 3.67524)
(3.65038e-15 -9.22559 4.35717)
(3.9748e-15 -8.16979 5.40831)
(1.17762e-15 -4.88291 7.37924)
(-1.48793e-16 1.46462 5.46249)
(4.51535e-16 2.9446 2.36255)
(8.48043e-16 0.558424 3.04494)
(8.3121e-16 2.01952 7.67651)
(6.22419e-16 5.86281 11.3941)
(1.19743e-15 -1.93711 0.0406153)
(6.30177e-16 -3.69903 1.32909)
(3.34464e-16 -4.49243 1.06319)
(1.6362e-16 -5.03188 0.894058)
(-5.18939e-17 -5.46903 1.11046)
(-2.22864e-16 -5.99254 1.45079)
(-5.82124e-16 -6.5437 1.85461)
(-8.88885e-16 -7.14172 2.25765)
(-3.87525e-16 -7.84023 2.70667)
(9.05545e-16 -8.67704 3.24188)
(2.5021e-15 -9.41211 3.82647)
(3.83977e-15 -9.57941 4.46528)
(3.63697e-15 -8.67338 5.49008)
(1.00263e-15 -4.74972 6.98403)
(-2.91469e-16 2.51587 4.81261)
(-4.2259e-17 3.99026 2.15502)
(1.27753e-16 1.16114 0.458042)
(6.26294e-16 -0.972744 -3.92121)
(-9.42589e-16 -0.997527 -1.10429)
(1.51973e-15 -2.13974 2.06553)
(9.1178e-16 -3.7476 2.30106)
(5.74711e-16 -4.34605 1.77583)
(3.28813e-16 -5.0096 1.42505)
(6.14879e-17 -5.55717 1.46091)
(-2.18186e-16 -6.13467 1.69201)
(-6.43576e-16 -6.70705 2.05734)
(-8.64136e-16 -7.31565 2.46362)
(-2.31736e-16 -8.03733 2.92049)
(1.15429e-15 -8.89568 3.43517)
(2.79127e-15 -9.64573 3.96853)
(3.95854e-15 -9.91176 4.56146)
(3.25911e-15 -9.09847 5.51923)
(7.37236e-16 -4.56341 6.47487)
(-4.4233e-16 3.27922 3.74789)
(-7.69945e-17 4.73482 1.60238)
(1.90523e-16 2.42961 0.499464)
(3.53838e-16 1.69208 -1.64523)
(-3.1794e-16 0.0976095 -4.44387)
(1.85286e-15 -2.10496 3.59747)
(1.211e-15 -3.57035 3.1959)
(8.50233e-16 -4.12648 2.60017)
(5.27011e-16 -4.90623 2.11066)
(1.63003e-16 -5.57051 1.96727)
(-2.52343e-16 -6.22881 2.04561)
(-7.15843e-16 -6.85018 2.32175)
(-8.01621e-16 -7.48568 2.70213)
(-2.96879e-17 -8.22908 3.15544)
(1.46077e-15 -9.09832 3.64034)
(3.11308e-15 -9.85963 4.11156)
(3.99376e-15 -10.2112 4.65924)
(2.80873e-15 -9.38815 5.53612)
(3.70105e-16 -4.06309 5.89847)
(-5.75442e-16 4.2874 2.70947)
(-1.78042e-16 5.39779 1.35765)
(1.59634e-16 2.88429 0.0866595)
(2.74715e-16 1.7461 -1.57567)
(1.49321e-16 0.57268 -2.71842)
(2.14686e-15 -2.0304 4.75904)
(1.37771e-15 -3.35352 4.05051)
(9.72479e-16 -3.91185 3.47777)
(6.00004e-16 -4.76922 2.8855)
(1.45455e-16 -5.53653 2.59072)
(-3.56853e-16 -6.28251 2.50226)
(-7.73349e-16 -6.97281 2.65155)
(-6.84696e-16 -7.65046 2.97102)
(2.31404e-16 -8.41304 3.40081)
(1.83053e-15 -9.27973 3.84808)
(3.45153e-15 -10.0503 4.26009)
(3.94529e-15 -10.4894 4.77802)
(2.29286e-15 -9.59481 5.54436)
(-3.20733e-17 -3.40879 5.20715)
(-5.39461e-16 5.01294 1.69351)
(-2.14339e-16 5.8911 1.21581)
(1.55575e-16 3.53954 -0.152609)
(2.76268e-16 2.34042 -1.39512)
(4.85609e-16 0.806848 -1.8877)
(2.50803e-15 -1.81355 5.76512)
(1.55643e-15 -3.03534 4.92036)
(9.70107e-16 -3.63204 4.41132)
(5.26344e-16 -4.53702 3.74213)
(3.39175e-17 -5.40034 3.33482)
(-4.40868e-16 -6.24216 3.09373)
(-7.14447e-16 -7.02996 3.10048)
(-4.40239e-16 -7.78268 3.32492)
(6.05282e-16 -8.58073 3.70017)
(2.27444e-15 -9.44612 4.09802)
(3.77076e-15 -10.2324 4.4521)
(3.81054e-15 -10.7141 4.92074)
(1.77093e-15 -9.54403 5.51936)
(-3.84943e-16 -2.42256 4.46636)
(-4.52615e-16 5.67226 0.978141)
(-2.32279e-16 6.22713 0.871029)
(1.548e-16 3.97228 -0.304604)
(2.97775e-16 2.50044 -1.20977)
(2.43048e-16 0.963564 -1.5104)
(3.02533e-15 -1.74837 6.70112)
(2.14429e-15 -2.87036 5.57514)
(1.21691e-15 -3.47182 5.16132)
(5.38594e-16 -4.38219 4.45075)
(-7.933e-17 -5.30876 3.96666)
(-5.41879e-16 -6.2148 3.60534)
(-6.88548e-16 -7.07968 3.4816)
(-2.51665e-16 -7.89392 3.6088)
(9.51508e-16 -8.71834 3.93104)
(2.72224e-15 -9.57569 4.29375)
(4.086e-15 -10.3727 4.61139)
(3.69207e-15 -10.9127 5.04547)
(1.34063e-15 -9.54694 5.42545)
(-6.55124e-16 -1.57494 3.58528)
(-4.27722e-16 6.34815 0.751578)
(-2.43596e-16 6.49979 0.457065)
(1.56628e-16 4.31225 -0.32643)
(3.00386e-16 2.73079 -1.05468)
(-2.93402e-17 1.13026 -1.39279)
(3.11643e-15 -1.2793 8.28548)
(3.0896e-15 -2.33076 6.95064)
(2.34105e-15 -3.10302 6.50605)
(1.67062e-15 -3.98637 5.78036)
(1.01052e-15 -4.99785 5.22207)
(5.43484e-16 -5.9994 4.75996)
(4.50559e-16 -7.00214 4.48723)
(9.47029e-16 -7.95522 4.44445)
(2.1197e-15 -8.86197 4.59792)
(3.59958e-15 -9.73157 4.81564)
(4.35525e-15 -10.5481 5.01749)
(3.35335e-15 -11.0038 5.28938)
(9.42772e-16 -8.88172 5.19406)
(-7.57569e-16 0.0152035 2.54816)
(-4.40462e-16 6.82335 0.81881)
(-2.47618e-16 6.86344 0.169615)
(1.60098e-16 4.66803 -0.302475)
(2.93356e-16 3.03258 -0.944092)
(1.98684e-16 1.33874 -1.35714)
(-2.90743e-16 5.24073 9.23885)
(8.79897e-17 14.3014 26.3845)
(4.81282e-17 18.389 32.2239)
(-1.00098e-16 17.9154 30.6017)
(-1.96291e-16 16.511 27.2675)
(-4.74793e-16 15.1896 24.2484)
(-7.03691e-16 14.0306 21.7679)
(-8.18831e-16 13.1644 19.8431)
(-1.02729e-15 12.4157 18.1912)
(-1.34373e-15 11.6871 16.6655)
(-1.71734e-15 10.9443 15.1958)
(-2.11969e-15 10.1751 13.7624)
(-2.66602e-15 9.37346 12.3692)
(-3.25681e-15 8.54581 11.0186)
(-3.88034e-15 7.67791 9.71171)
(-4.63319e-15 6.78129 8.43308)
(-5.56409e-15 5.81237 7.18419)
(-6.63087e-15 4.84018 5.94797)
(-7.62827e-15 3.61992 4.66044)
(-1.05378e-14 1.83304 1.92561)
(5.65989e-16 -0.0204093 -2.86004)
(1.7697e-15 12.0106 21.5105)
(8.6552e-16 17.6857 31.494)
(7.70584e-16 17.6042 31.1757)
(7.57619e-16 16.0479 28.1144)
(8.99348e-16 14.6702 25.3369)
(8.14084e-16 13.6793 23.2149)
(6.70199e-16 12.86 21.3514)
(5.12415e-16 12.0647 19.5679)
(3.38704e-16 11.2371 17.7668)
(1.45027e-16 10.3578 15.946)
(-5.15737e-17 9.43831 14.1256)
(-2.2247e-16 8.4833 12.3329)
(-4.40426e-16 7.50843 10.5779)
(-7.85802e-16 6.49024 8.87109)
(-1.22684e-15 5.45152 7.16689)
(-1.99509e-15 4.26508 5.43614)
(-2.84034e-15 3.04164 3.46094)
(-3.22939e-15 0.957144 0.870258)
(-8.06021e-15 -0.454447 -3.0161)
(-1.23263e-16 0.414564 0.700757)
(1.15591e-15 12.6349 20.0786)
(6.78607e-16 19.481 31.8259)
(5.72005e-16 20.0974 32.9688)
(5.17197e-16 18.5165 30.1939)
(9.53435e-16 17.0037 27.3827)
(7.1482e-16 15.8563 25.1949)
(5.8328e-16 14.8888 23.2725)
(6.16597e-16 13.9003 21.3527)
(5.99306e-16 12.8454 19.3494)
(5.45693e-16 11.7207 17.2772)
(5.54126e-16 10.5434 15.1609)
(6.19849e-16 9.31452 13.0256)
(6.05981e-16 8.04268 10.8767)
(6.51089e-16 6.69695 8.72671)
(6.86636e-16 5.29662 6.53593)
(7.04277e-16 3.68697 4.31625)
(2.6425e-16 2.14761 1.98836)
(-8.83996e-16 -0.345356 -0.650729)
(-6.7585e-15 -1.73152 -4.94188)
(8.55243e-18 6.67459 11.2208)
(-1.0059e-16 16.8732 25.7273)
(-8.29252e-17 20.6522 31.8653)
(-6.44158e-17 20.2085 31.5628)
(-9.71031e-17 18.5382 29.2629)
(8.16132e-16 17.2142 27.1754)
(8.43888e-16 16.0745 25.4088)
(9.33558e-16 14.9325 23.5373)
(9.05733e-16 13.6299 21.4957)
(9.49891e-16 12.24 19.3124)
(1.12087e-15 10.7626 17.0472)
(1.09938e-15 9.22159 14.7011)
(1.33413e-15 7.59543 12.2731)
(1.78814e-15 5.88086 9.74403)
(2.10906e-15 4.03984 7.10845)
(3.23315e-15 2.02678 4.26697)
(5.86472e-15 -0.377937 1.04646)
(1.25517e-14 -2.22003 -2.00829)
(5.90713e-15 -3.69057 -4.03705)
(-1.89773e-15 -2.97017 -6.82186)
(3.98056e-19 12.2284 21.2403)
(4.2907e-18 20.2155 32.5852)
(1.32943e-18 19.153 31.3691)
(5.7568e-19 17.0319 28.2891)
(6.77114e-18 15.5332 26.6369)
(-1.29804e-16 14.5645 25.3481)
(-1.29901e-16 13.2659 23.7488)
(-1.14121e-16 11.7992 21.6486)
(-1.25202e-16 10.135 19.3751)
(-1.10989e-16 8.47414 17.0235)
(-1.11846e-16 6.75065 14.6337)
(-1.4151e-16 4.99143 12.1523)
(-1.13005e-16 3.17241 9.57877)
(9.66691e-17 1.34513 6.94632)
(3.89053e-16 -0.411499 4.36267)
(1.57094e-16 -1.95675 1.95324)
(-1.34522e-15 -3.12327 -0.175377)
(-3.47637e-15 -3.68771 -1.76206)
(-4.13291e-15 -2.96441 -1.78229)
(-2.01918e-15 -0.621351 0.322975)
(-4.09275e-19 13.6584 24.138)
(1.73067e-18 18.082 31.0785)
(2.76444e-18 15.0084 26.9203)
(2.74576e-18 13.5763 24.6208)
(4.95368e-18 12.5154 23.6816)
(1.04702e-17 11.4974 22.3727)
(2.92501e-18 10.0265 20.6509)
(-2.33655e-18 8.44356 18.5176)
(-4.77158e-18 6.73032 16.2767)
(-1.56719e-17 5.02778 13.9605)
(-5.04865e-17 3.28569 11.6153)
(-1.00198e-16 1.56669 9.26704)
(-7.94165e-17 -0.0603663 7.02362)
(6.06091e-17 -1.40893 5.07479)
(2.37349e-17 -2.18618 3.77365)
(-7.29345e-16 -1.9726 3.67826)
(-2.08479e-15 -0.324083 5.43205)
(-2.82768e-15 2.8242 9.01285)
(-1.93552e-15 6.14809 12.496)
(-2.09325e-16 5.39454 10.9385)
(5.74913e-20 11.843 20.9877)
(-1.0919e-18 16.4711 29.1213)
(-1.34823e-18 14.5319 26.0019)
(-1.45998e-18 13.097 23.1511)
(-6.56498e-19 11.7454 21.3422)
(2.82811e-18 10.719 19.6189)
(5.83237e-18 9.4533 17.9155)
(9.27308e-18 8.2272 15.9378)
(1.46986e-17 6.89209 13.8517)
(1.93257e-17 5.59347 11.636)
(1.52029e-17 4.32258 9.41)
(1.28101e-18 3.23214 7.36556)
(-9.91245e-19 2.53003 5.90636)
(3.51863e-17 2.51814 5.56105)
(9.53026e-17 3.44498 6.75426)
(1.4827e-16 5.24063 9.37851)
(2.399e-16 7.44882 12.6917)
(4.2852e-16 9.21362 15.5757)
(5.67565e-16 9.96038 16.3513)
(3.15304e-16 6.92406 12.6268)
(6.51022e-21 10.5825 18.5867)
(3.75851e-19 17.3751 30.0452)
(4.18318e-19 15.7776 27.4854)
(4.8861e-19 14.0672 23.687)
(1.68138e-19 12.5723 21.4544)
(-1.43097e-18 11.7914 19.5981)
(-2.30441e-18 10.8822 18.1184)
(-2.96963e-18 10.1727 16.5909)
(-3.96166e-18 9.42971 15.1299)
(-5.1332e-18 8.77895 13.6636)
(-5.73921e-18 8.17771 12.2087)
(-5.64873e-18 7.63663 10.7519)
(-6.31329e-18 7.19015 9.374)
(-9.41467e-18 6.88049 8.26685)
(-1.44704e-17 6.84492 7.76383)
(-2.15127e-17 7.08289 8.12789)
(-3.15912e-17 7.55403 9.25527)
(-4.51841e-17 7.81092 10.6209)
(-6.99574e-17 7.43622 11.0205)
(-8.6356e-17 5.03731 8.26131)
(-4.42252e-21 10.6263 18.5217)
(-1.14778e-19 18.2213 30.8324)
(-1.25931e-19 16.5769 28.678)
(-1.51832e-19 14.9149 24.8125)
(-5.84538e-20 13.4446 22.6285)
(4.56405e-19 12.7376 20.806)
(7.73992e-19 11.911 19.3197)
(9.36653e-19 11.2223 17.8135)
(1.0813e-18 10.5194 16.3845)
(1.22498e-18 9.86066 15.011)
(1.35499e-18 9.23565 13.6961)
(1.56868e-18 8.63472 12.4253)
(1.97671e-18 8.04674 11.1702)
(2.44208e-18 7.46067 9.9257)
(2.51435e-18 6.88093 8.74491)
(2.02233e-18 6.34652 7.76304)
(1.43737e-18 5.84315 7.123)
(1.07802e-18 5.35838 6.70808)
(6.51673e-19 4.36984 6.06818)
(5.64495e-18 2.24969 2.72727)
(1.15759e-21 11.4812 19.9858)
(3.24818e-20 19.0605 31.6066)
(3.75003e-20 17.0209 29.3001)
(4.49601e-20 15.5144 25.4756)
(2.29181e-20 14.0228 23.4823)
(-1.19622e-19 13.375 21.6702)
(-2.22521e-19 12.4928 20.1822)
(-2.64891e-19 11.7657 18.6092)
(-2.82736e-19 10.9907 17.1035)
(-2.93742e-19 10.2453 15.6182)
(-3.06527e-19 9.50459 14.1723)
(-3.38274e-19 8.76372 12.764)
(-3.76771e-19 8.01336 11.3916)
(-3.39213e-19 7.25184 10.0443)
(-1.21922e-19 6.45008 8.70985)
(2.79774e-19 5.61856 7.34857)
(8.019e-19 4.65408 5.97001)
(1.68637e-18 3.63715 4.4195)
(3.54177e-18 1.94553 2.50975)
(7.35888e-18 0.183161 -1.27001)
(-1.34116e-22 13.2136 23.2949)
(-8.52533e-21 20.0222 32.5174)
(-1.0596e-20 17.1249 29.6554)
(-1.23806e-20 16.1447 26.1377)
(-7.42609e-21 14.6098 24.4954)
(2.78291e-20 14.1362 22.6539)
(5.63013e-20 13.1852 21.2109)
(6.62841e-20 12.5379 19.6147)
(6.60177e-20 11.7775 18.1225)
(6.36948e-20 11.0573 16.5712)
(6.32808e-20 10.2737 14.9769)
(6.36151e-20 9.42096 13.3084)
(5.20737e-20 8.48034 11.581)
(6.45941e-21 7.46347 9.81134)
(-8.33433e-20 6.35193 8.02577)
(-1.95171e-19 5.17709 6.19062)
(-2.99637e-19 3.82133 4.30208)
(-4.2121e-19 2.38428 2.08721)
(-1.28174e-18 0.0754362 -0.535771)
(3.51006e-18 -1.24282 -4.32473)
(-1.14942e-23 15.2406 27.6044)
(2.07131e-21 20.4289 32.7409)
(2.72217e-21 16.7269 29.7826)
(3.07681e-21 16.6311 26.884)
(1.86479e-21 14.8971 25.6735)
(-6.19074e-21 14.7127 23.8044)
(-1.30315e-20 13.6226 22.5464)
(-1.49837e-20 13.1753 21.0162)
(-1.35621e-20 12.4128 19.6566)
(-1.13617e-20 11.7402 18.0591)
(-9.86847e-21 10.8386 16.2822)
(-7.98844e-21 9.79254 14.2614)
(-1.2836e-21 8.57437 12.0863)
(1.47825e-20 7.2358 9.79884)
(3.88574e-20 5.76588 7.45727)
(5.96836e-20 4.21163 5.03362)
(6.42032e-20 2.43974 2.59717)
(4.85515e-21 0.726926 -0.110181)
(-5.07911e-19 -1.91032 -2.96915)
(-9.32749e-20 -2.57861 -6.72668)
(6.93094e-24 16.5019 30.8373)
(-4.81334e-22 19.5868 31.3798)
(-6.22379e-22 15.8294 29.4768)
(-6.75525e-22 16.4169 27.088)
(-4.25253e-22 14.2921 26.1641)
(1.23101e-21 14.3061 24.2926)
(2.47992e-21 12.9426 23.3161)
(2.94961e-21 12.6251 21.9067)
(3.27428e-21 11.6286 20.7109)
(3.54008e-21 10.7911 18.9534)
(3.38726e-21 9.4426 16.8367)
(3.23803e-21 7.96117 14.2992)
(3.71233e-21 6.26429 11.5772)
(4.32023e-21 4.47688 8.67835)
(9.45123e-21 2.62797 5.72691)
(2.69254e-20 0.619774 2.62793)
(5.96361e-20 -1.49677 -0.534847)
(6.3794e-20 -1.96777 -2.38436)
(-5.48365e-19 -4.55244 -5.29965)
(-1.84922e-18 -3.68212 -7.56018)
(-1.04869e-24 16.2966 31.101)
(1.08199e-22 18.1316 29.1998)
(1.38844e-22 14.9154 28.4375)
(1.34953e-22 15.4237 26.0497)
(-5.72003e-23 13.2076 25.1144)
(-6.16662e-22 13.0304 23.2877)
(-9.00951e-22 11.5947 22.3083)
(-4.48598e-22 11.0428 20.9494)
(5.24763e-22 9.8559 19.6854)
(9.81058e-22 8.71419 17.8207)
(7.09736e-22 7.13334 15.5686)
(2.37445e-21 5.51433 12.9934)
(9.21578e-21 3.76568 10.2582)
(2.2793e-20 1.97575 7.35126)
(4.69576e-20 0.261617 4.59738)
(5.92554e-20 -1.27656 2.14814)
(-5.16939e-20 -2.82222 -0.480856)
(-3.92758e-19 -3.92363 -2.8417)
(-8.58859e-19 -3.24835 -2.62676)
(-8.83044e-19 -0.549117 0.500861)
(-3.99423e-25 15.3732 29.7816)
(-1.95481e-23 17.7376 28.0593)
(-1.75585e-23 14.1135 27.2515)
(-1.55634e-23 14.8837 24.5351)
(-3.07544e-23 12.3962 23.6335)
(-9.03334e-23 12.2708 21.5658)
(-1.94761e-22 10.675 20.4244)
(-1.19388e-22 9.99649 18.874)
(1.66199e-22 8.76975 17.5406)
(1.24407e-22 7.68649 15.8667)
(-4.22316e-22 6.39196 14.0299)
(4.42051e-22 5.145 12.0111)
(6.6485e-21 3.83459 9.79151)
(2.10043e-20 2.44596 7.2296)
(3.85166e-20 1.07619 4.53965)
(4.00037e-20 0.167522 2.57852)
(7.61942e-21 0.497117 2.73497)
(-2.73733e-20 2.5061 5.41083)
(1.43699e-20 5.02311 8.66295)
(1.22876e-19 4.41641 8.70372)
(1.19205e-25 15.061 29.8264)
(3.6726e-24 18.3052 27.8733)
(5.22196e-24 14.0649 27.1813)
(3.03554e-24 15.4768 24.1548)
(-2.05421e-23 12.7983 23.3289)
(-8.72363e-23 12.9649 21.058)
(-1.9894e-22 11.4153 19.7674)
(-3.4499e-22 10.8664 18.0102)
(-4.47065e-22 9.84481 16.5903)
(-4.00988e-22 9.11061 15.1204)
(-2.81258e-22 8.32133 13.7642)
(-3.8335e-22 7.62842 12.412)
(-7.3677e-22 6.95119 11.0617)
(-5.66749e-22 6.29021 9.61852)
(1.65464e-21 5.59538 8.0097)
(7.17016e-21 4.90335 6.34525)
(1.66987e-20 4.28479 4.8116)
(2.36803e-20 3.91514 4.22867)
(3.79382e-20 3.66629 4.27505)
(7.06725e-20 2.5403 3.09072)
(-3.69576e-26 15.0319 30.5786)
(2.39347e-25 18.6242 28.0434)
(1.86276e-24 14.1419 27.6339)
(-1.40809e-24 15.612 24.749)
(-2.37181e-23 13.2063 23.8607)
(-7.72699e-23 13.2073 21.8514)
(-1.55157e-22 12.0153 20.5316)
(-2.30157e-22 11.4672 18.9585)
(-2.74093e-22 10.7132 17.5607)
(-2.64194e-22 10.1018 16.1607)
(-1.80093e-22 9.49691 14.8206)
(-5.543e-23 8.92383 13.4892)
(-1.47944e-23 8.33893 12.1301)
(-1.68157e-22 7.71234 10.6794)
(-3.86601e-22 6.9472 9.04165)
(-5.1693e-22 5.97239 7.08342)
(4.2448e-22 4.61125 4.80832)
(-2.47386e-21 3.19732 2.66391)
(-1.23611e-21 1.16447 0.5971)
(3.09039e-20 -0.236725 -2.20247)
(3.48336e-26 14.2385 30.8054)
(4.8992e-25 18.3375 27.7532)
(1.16398e-24 13.5412 27.6797)
(-3.2136e-24 14.6203 25.2286)
(-2.48486e-23 12.5201 24.2803)
(-7.11229e-23 12.1512 22.6313)
(-1.25114e-22 11.082 21.3916)
(-1.48172e-22 10.4287 20.0338)
(-1.14739e-22 9.68512 18.7855)
(-6.2774e-23 9.05856 17.5319)
(-8.6493e-23 8.4465 16.3076)
(-2.19027e-22 7.87711 15.0758)
(-1.98601e-22 7.29724 13.7841)
(7.83579e-22 6.60574 12.2507)
(3.9877e-21 5.56253 10.1334)
(1.00952e-20 3.93561 6.94129)
(1.793e-20 1.44333 2.70537)
(1.7058e-20 -1.42578 -3.29072)
(-2.15543e-22 -3.26447 -4.85236)
(4.01764e-20 -2.79503 -6.86052)
(3.17812e-27 11.2882 28.6927)
(1.18927e-25 17.1109 25.2079)
(3.16284e-25 12.1053 25.5926)
(-1.27877e-24 12.7332 23.9)
(-9.69475e-24 11.0005 23.164)
(-2.84326e-23 10.3277 22.0896)
(-5.04756e-23 9.33322 21.184)
(-5.90136e-23 8.55311 20.2412)
(-4.58076e-23 7.77717 19.332)
(-3.70918e-23 7.08041 18.4241)
(-8.88234e-23 6.43054 17.5244)
(-2.04325e-22 5.82873 16.6137)
(-1.46261e-22 5.23619 15.6335)
(7.7534e-22 4.56661 14.4161)
(3.63328e-21 3.65873 12.6401)
(9.17945e-21 2.33165 9.91231)
(1.67943e-20 0.588062 6.06509)
(2.41333e-20 -1.26377 1.56552)
(2.75951e-20 -2.65611 -2.31069)
(2.46373e-20 -2.07282 -3.58537)
(-9.48483e-27 2.63118 17.0829)
(-6.6353e-26 8.04713 13.7357)
(-1.44357e-26 5.17539 14.5906)
(5.4741e-25 4.96829 14.2114)
(1.67322e-24 4.0364 14.1818)
(2.34206e-24 3.45754 14.0194)
(1.13562e-24 2.86772 13.8726)
(-1.32947e-24 2.38089 13.6928)
(-9.11103e-25 1.95544 13.4947)
(5.93418e-24 1.60372 13.2745)
(9.83318e-24 1.32247 13.0355)
(-2.85316e-23 1.11641 12.7835)
(-1.85584e-22 0.991915 12.5335)
(-5.42152e-22 0.970507 12.3002)
(-1.08731e-21 1.08012 12.0773)
(-1.61669e-21 1.28867 11.8337)
(-1.79948e-21 1.62379 11.4226)
(-1.48166e-21 2.37736 10.455)
(-8.86336e-22 2.68256 8.94374)
(-3.31833e-22 -0.112504 6.77062)
(8.24464e-27 -2.63117 17.0829)
(6.5523e-26 -8.04713 13.7356)
(2.39851e-26 -5.17539 14.5906)
(-5.30244e-25 -4.96829 14.2114)
(-1.6719e-24 -4.0364 14.1818)
(-2.36263e-24 -3.45753 14.0194)
(-1.09459e-24 -2.8677 13.8726)
(1.62287e-24 -2.38087 13.6928)
(1.55713e-24 -1.95541 13.4947)
(-5.48023e-24 -1.60368 13.2745)
(-1.15191e-23 -1.32242 13.0356)
(2.13397e-23 -1.11635 12.7836)
(1.70557e-22 -0.991873 12.5337)
(5.23624e-22 -0.97054 12.3006)
(1.08117e-21 -1.08028 12.078)
(1.64538e-21 -1.28897 11.8344)
(1.87268e-21 -1.62418 11.4232)
(1.57875e-21 -2.37776 10.4553)
(9.67743e-22 -2.68291 8.94406)
(3.70336e-22 0.112413 6.77089)
(-4.96005e-27 -11.2883 28.6928)
(-1.1635e-25 -17.1109 25.208)
(-3.12138e-25 -12.1053 25.5928)
(1.39135e-24 -12.7331 23.9002)
(1.03291e-23 -11.0004 23.1642)
(3.02634e-23 -10.3275 22.0899)
(5.37554e-23 -9.33297 21.1843)
(6.2537e-23 -8.55279 20.2416)
(4.63537e-23 -7.77678 19.3324)
(3.03906e-23 -7.07995 18.4246)
(7.31093e-23 -6.43003 17.525)
(1.8636e-22 -5.82814 16.6144)
(1.43372e-22 -5.23541 15.6341)
(-7.54997e-22 -4.56537 14.4161)
(-3.65003e-21 -3.65672 12.6389)
(-9.43821e-21 -2.32896 9.90969)
(-1.76385e-20 -0.585684 6.06242)
(-2.58328e-20 1.26455 1.5646)
(-2.99886e-20 2.65531 -2.30942)
(-2.7296e-20 2.07189 -3.58324)
(-3.64763e-26 -14.2389 30.8061)
(-5.5723e-25 -18.3376 27.7539)
(-1.30037e-24 -13.5415 27.6805)
(3.27649e-24 -14.6204 25.2295)
(2.61826e-23 -12.5203 24.2812)
(7.53694e-23 -12.1513 22.6324)
(1.32896e-22 -11.0821 21.3928)
(1.57279e-22 -10.4288 20.0351)
(1.19194e-22 -9.68512 18.7868)
(5.52745e-23 -9.05851 17.5333)
(6.49901e-23 -8.44645 16.3091)
(1.94734e-22 -7.87712 15.0775)
(1.95981e-22 -7.29724 13.7859)
(-7.52168e-22 -6.6054 12.2519)
(-3.98223e-21 -5.56106 10.1328)
(-1.03085e-20 -3.93218 6.93767)
(-1.86291e-20 -1.43663 2.69737)
(-1.75859e-20 1.4342 -3.30499)
(2.34003e-21 3.26825 -4.85572)
(-4.39553e-20 2.79587 -6.86157)