/*--------------------------------*- C++ -*----------------------------------*\
| =========                 |                                                 |
| \\      /  F ield         | OpenFOAM: The Open Source CFD Toolbox           |
|  \\    /   O peration     | Version:  4.1                                   |
|   \\  /    A nd           | Web:      www.OpenFOAM.org                      |
|    \\/     M anipulation  |                                                 |
\*---------------------------------------------------------------------------*/
FoamFile
{
    version     2.0;
    format      ascii;
    class       volScalarField;
    location    "1";
    object      p;
}
// * * * * * * * * * * * * * * * * * * * * * * * * * * * * * * * * * * * * * //

dimensions      [0 2 -2 0 0 0 0];

internalField   nonuniform List<scalar> 
1280
(
-17.8435
-5.0983
-6.43517
-9.97419
-8.25777
-9.04025
-10.3203
-10.6748
-9.72286
-10.6275
-12.8709
-11.4479
-12.6861
-15.9681
-14.5661
-16.3602
-20.9026
-20.0085
-23.1829
-34.5874
-28.066
-22.9124
-25.7065
-30.8431
-32.0757
-33.4191
-56.0631
-28.1864
-26.3867
-24.5305
-22.5778
-20.7431
-18.7829
-17.3801
-15.2257
-14.3369
-12.1159
-10.9928
-10.4742
-4.45482
-15.4882
-14.9747
-15.014
-14.7457
-16.4675
-15.492
-15.1261
-14.9497
-14.6403
-14.7194
-14.7295
-15.0224
-14.6598
-14.8357
-15.2801
-16.3433
-14.6005
-14.8589
-14.8249
-15.3104
-4.85464
-10.7404
-11.2133
-12.3595
-14.5519
-15.4542
-17.5952
-19.0009
-20.9569
-22.791
-24.7449
-26.6042
-28.3977
-56.2707
-33.4567
-32.1046
-30.8417
-25.6067
-22.8316
-28.0834
-34.6505
-23.2293
-20.0583
-20.9433
-16.3987
-14.6028
-16.0024
-12.7172
-11.4776
-12.8975
-10.6514
-9.74491
-10.6946
-10.3375
-9.05555
-8.27116
-9.98499
-6.44417
-5.10606
-17.8451
3.91256
0.129655
1.61575
1.13585
1.69738
1.99431
2.56224
3.25264
4.16768
5.31991
6.70801
8.23921
9.64644
10.2914
8.29301
1.56233
-10.7425
-19.3978
-17.5494
-0.299854
-0.243931
-0.175849
-0.270935
-0.285653
-0.394026
-0.491726
-0.654277
-0.86707
-1.15911
-1.53251
-1.97604
-2.45599
-2.88701
-3.24728
-7.13746
-16.1137
-13.9742
-9.20576
1.4083
-0.0888255
0.60796
0.360741
0.593159
0.664459
0.856328
1.06456
1.34699
1.69987
2.14152
2.67272
3.2377
3.58503
2.10609
-9.67291
-19.3609
-12.0421
-2.30649
1.02949
-0.202439
0.376737
0.121911
0.288567
0.284703
0.379155
0.455589
0.566021
0.695859
0.8638
1.0937
1.39189
1.61615
-0.213237
-15.5591
-21.7335
-17.8889
-2.03213
1.38808
-0.178471
0.544345
0.268297
0.488934
0.526925
0.685962
0.844859
1.06599
1.3407
1.69668
2.17792
2.83715
3.58316
2.05259
-13.5904
-23.0234
-19.6539
0.609596
1.41313
-0.224219
0.526536
0.237067
0.458796
0.488418
0.640964
0.789468
0.997543
1.25424
1.58922
2.06424
2.75761
3.61044
2.52521
-9.06456
-23.9243
-16.4953
7.2528
1.53485
-0.239214
0.571243
0.278685
0.517185
0.560248
0.732167
0.905387
1.14572
1.44226
1.82525
2.36196
3.07795
3.66133
1.32084
-6.09733
-15.9376
-10.5094
12.8385
1.58425
-0.270529
0.577068
0.28295
0.526535
0.57348
0.750382
0.930015
1.17751
1.4788
1.84715
2.3016
2.83789
2.6609
-1.03072
-4.38132
-1.21986
4.71197
-14.0145
1.6351
-0.294329
0.589793
0.297239
0.545236
0.598352
0.781999
0.97094
1.22922
1.54018
1.90644
2.34308
2.92759
2.83971
-0.346088
-2.34878
2.78237
11.389
-8.71481
1.65579
-0.314386
0.592722
0.301893
0.549868
0.60574
0.791214
0.983238
1.24496
1.56019
1.92918
2.35666
2.94133
2.93606
0.0935777
-1.78083
3.34835
8.91165
-4.97489
1.65579
-0.314385
0.592722
0.301893
0.549868
0.60574
0.791214
0.983241
1.24496
1.56022
1.92925
2.35681
2.94153
2.93824
0.101463
-1.78096
3.34987
8.88074
-4.66687
1.63509
-0.294325
0.589792
0.297237
0.545234
0.598351
0.781999
0.970944
1.22924
1.54023
1.90655
2.34326
2.92761
2.84104
-0.337798
-2.34613
2.78904
11.3716
-8.29578
1.58424
-0.270522
0.577065
0.282948
0.526532
0.573477
0.750382
0.930023
1.17754
1.47888
1.84735
2.30199
2.83856
2.66429
-1.01685
-4.36904
-1.21951
4.68761
-13.8696
1.53483
-0.239207
0.571237
0.278682
0.51718
0.560243
0.732165
0.905394
1.14575
1.44234
1.82545
2.36236
3.07877
3.66444
1.33292
-6.08617
-15.9433
-10.5235
12.8267
1.4131
-0.224212
0.526529
0.237065
0.458791
0.488415
0.640964
0.789478
0.99758
1.25434
1.58944
2.06471
2.7586
3.6133
2.53301
-9.06079
-23.9262
-16.4818
7.32603
1.38805
-0.178466
0.544334
0.268291
0.488924
0.526915
0.685952
0.844856
1.066
1.34076
1.69685
2.17835
2.83813
3.58559
2.05767
-13.5894
-23.024
-19.649
0.645717
1.02946
-0.202433
0.37673
0.12191
0.288565
0.284703
0.379161
0.455608
0.566065
0.695956
0.864007
1.09416
1.39289
1.61829
-0.209599
-15.5588
-21.7342
-17.8831
-2.00207
1.40826
-0.0888253
0.607942
0.360727
0.593136
0.66443
0.856291
1.06452
1.34693
1.69982
2.1415
2.67283
3.23823
3.58657
2.10889
-9.67188
-19.3611
-12.037
-2.28651
-0.299864
-0.243923
-0.175842
-0.27092
-0.285632
-0.393991
-0.491672
-0.654189
-0.86693
-1.15889
-1.53216
-1.9755
-2.45517
-2.88586
-3.24619
-7.13795
-16.1136
-13.9714
-9.19303
3.91245
0.129646
1.61569
1.13579
1.69729
1.99419
2.56205
3.25238
4.16731
5.31942
6.70742
8.23865
9.64639
10.2926
8.29562
1.56423
-10.7417
-19.3981
-17.5431
23.9767
21.3731
21.4928
18.9027
18.7348
17.8262
17.4748
16.6843
16.5293
16.343
16.3406
16.3046
16.743
16.4997
17.6977
16.9446
18.9581
17.9288
19.8549
19.8406
16.9019
16.3564
17.104
15.7839
16.6061
15.5938
15.8276
15.3268
15.1612
14.89
14.7034
14.3895
14.4826
13.7812
14.5304
13.1804
14.6384
12.934
14.2685
13.2199
19.9308
19.1064
19.9856
18.6
19.5281
18.5225
18.9351
18.4412
18.4355
18.2215
18.1007
17.8438
17.9533
17.2694
18.009
16.5875
18.0415
16.1953
17.3952
16.4908
20.2585
19.3357
20.3846
18.8423
19.99
18.8943
19.3971
18.9081
18.9263
18.7363
18.6327
18.3992
18.5133
17.8673
18.5919
17.2279
18.6598
16.8722
18.1084
17.1902
21.7598
20.7903
21.9311
20.305
21.5233
20.3866
20.9277
20.4309
20.4679
20.2851
20.1895
19.9704
20.0792
19.4622
20.1493
18.8476
20.1965
18.4959
19.6452
18.7619
22.5909
21.5961
22.8384
21.1478
22.424
21.2607
21.8299
21.3308
21.3802
21.2066
21.1191
20.9157
21.0257
20.4374
21.1126
19.8532
21.1827
19.5267
20.6593
19.831
23.7986
22.748
24.0926
22.3248
23.6321
22.4536
23.0116
22.5176
22.5521
22.3794
22.2826
22.0801
22.173
21.603
22.235
21.0254
22.2813
20.6957
21.7566
20.9733
24.8811
23.777
25.2537
23.4184
24.7521
23.5874
24.1277
23.6602
23.6827
23.5228
23.4248
23.2328
23.3149
22.7761
23.3651
22.2236
23.4008
21.9028
22.89
22.1649
25.9246
24.7367
26.3611
24.4358
25.8117
24.6566
25.1785
24.743
24.7519
24.6077
24.5097
24.3308
24.4008
23.9034
24.437
23.3894
24.4608
23.0869
23.9746
23.3324
26.9138
25.607
27.3728
25.3286
26.8045
25.6244
26.1611
25.7507
25.7595
25.6344
25.543
25.3843
25.4429
25.0025
25.4671
24.5481
25.4797
24.2814
25.0333
24.5134
27.7804
26.364
28.1712
26.008
27.6428
26.3722
26.9776
26.5622
26.5924
26.484
26.4048
26.2741
26.3187
25.954
26.33
25.5811
26.3288
25.3698
25.9358
25.5892
28.6657
27.3633
28.9545
26.846
28.5235
27.1566
27.8286
27.359
27.413
27.2974
27.2178
27.1109
27.1191
26.8437
27.0899
26.5465
27.0528
26.3787
26.7037
26.5486
29.9211
29.0084
30.1679
28.4273
29.7636
28.5126
29.0922
28.5863
28.6215
28.4694
28.3616
28.2605
28.1964
28.0182
28.0778
27.7701
27.9789
27.594
27.6554
27.6399
31.2119
30.8981
31.5249
30.3619
31.1581
30.2792
30.6221
30.1893
30.1627
29.9873
29.8412
29.7256
29.5792
29.4704
29.3238
29.2417
29.1328
29.0096
28.8307
28.8775
31.2404
31.3945
31.6943
31.2092
31.5395
31.1783
31.2964
31.0816
31.0148
30.8897
30.7531
30.6379
30.4708
30.3866
30.1248
30.1828
29.823
29.8713
29.4495
29.5453
29.8454
30.1793
30.4168
30.4415
30.5983
30.6474
30.736
30.7659
30.7702
30.7709
30.7307
30.6807
30.5926
30.5211
30.3204
30.3581
30.0108
29.9906
29.5616
29.6761
28.5572
28.8086
29.0371
29.1734
29.3581
29.515
29.6808
29.847
29.9847
30.1313
30.259
30.3716
30.4777
30.5457
30.6066
30.6833
30.6632
30.5884
30.5932
30.699
28.4788
28.5318
28.677
28.6654
28.8262
28.8757
29.0073
29.118
29.249
29.3842
29.5335
29.6829
29.8595
30.0005
30.2155
30.3627
30.5898
30.6787
30.9339
31.2499
28.9028
28.8409
28.9231
28.8568
28.9128
28.905
28.9415
28.9652
29.0073
29.0508
29.1059
29.1656
29.2439
29.31
29.4193
29.5034
29.6217
29.7176
29.8215
30.2171
28.7931
28.7017
28.7487
28.766
28.7838
28.8149
28.8431
28.8802
28.9211
28.9688
29.0222
29.0827
29.1494
29.2255
29.3054
29.4019
29.4961
29.619
29.7043
29.9409
642.522
559.736
510.318
454.038
405.083
358.004
314.401
273.346
234.886
198.702
164.641
132.49
102.045
73.1477
45.7045
18.9524
-7.29222
-29.7635
-54.2581
-88.2223
-55.4986
-77.5032
-69.1729
-79.8532
-82.1726
-88.1663
-92.3158
-96.6272
-100.098
-102.998
-105.121
-106.472
-106.996
-106.673
-105.447
-103.261
-100.269
-96.7014
-92.4131
-87.2644
-51.5001
-55.6423
-45.5944
-50.2885
-45.7377
-46.6805
-45.4497
-45.3128
-44.9192
-44.6126
-44.2311
-43.7575
-43.1329
-42.3612
-41.3598
-40.1618
-38.7663
-37.066
-35.481
-30.4365
-1.20262
-2.21312
3.27234
-1.79245
1.71148
-0.037227
0.433804
0.332841
0.420514
0.694892
1.16093
1.83596
2.76781
3.91692
5.34048
7.0116
8.82437
10.9936
12.6193
15.2648
4.60353
4.66246
7.82607
4.75439
7.70672
6.90731
7.73684
8.29183
8.82673
9.53238
10.2875
11.1135
12.0011
12.9421
13.8908
14.8714
15.78
16.6356
17.186
18.0473
14.0477
13.5173
16.4822
13.585
17.0573
15.7948
16.8002
17.1292
17.4415
17.856
18.2141
18.5882
18.9267
19.2951
19.5898
19.9222
20.2052
20.4042
20.5214
20.8867
20.9104
18.1801
21.6106
18.0201
21.69
19.8695
20.7768
20.7881
20.8907
21.0726
21.1953
21.3574
21.473
21.6495
21.7443
21.9179
22.036
22.1215
22.1232
22.3977
22.2579
18.067
22.3613
18.6545
21.5946
20.2392
20.9024
20.9318
21.0291
21.1843
21.281
21.4146
21.4938
21.6173
21.6739
21.7753
21.8485
21.8635
21.8241
22.0532
22.7024
19.0169
23.6431
20.3392
22.3995
21.6683
22.0638
22.1339
22.2065
22.3278
22.3928
22.4847
22.5438
22.5975
22.6753
22.6744
22.8131
22.7318
22.7575
22.984
24.3983
21.7551
25.7362
22.8575
24.3354
23.7527
23.9589
23.9335
23.9107
23.9349
23.9137
23.9107
23.923
23.8492
23.9559
23.7695
24.0075
23.7346
23.8324
23.9591
25.5539
23.5191
26.6985
24.11
25.3504
24.648
24.8042
24.6484
24.5559
24.4948
24.4018
24.3134
24.2948
24.0883
24.247
23.8467
24.212
23.7026
23.8988
23.8644
25.4687
23.7362
26.308
23.9506
25.1562
24.3151
24.5303
24.2809
24.1833
24.0825
23.9649
23.8326
23.8216
23.5172
23.762
23.1746
23.7035
22.9696
23.3116
23.1249
24.7615
23.2338
25.3829
23.2272
24.456
23.5136
23.8212
23.5073
23.4374
23.3195
23.2027
23.0494
23.0633
22.6855
23.0261
22.2782
22.9798
22.039
22.5436
22.2165
23.8303
22.4623
24.2964
22.3041
23.5448
22.5318
22.9139
22.5477
22.5051
22.3717
22.2581
22.0872
22.1242
21.6835
22.1102
21.2211
22.0811
20.9529
21.6108
21.1528
22.6925
21.4688
23.0643
21.2202
22.4511
21.4098
21.8457
21.4478
21.4331
21.2919
21.1881
21.0077
21.0713
20.5817
21.0916
20.0821
21.0936
19.7974
20.6061
20.0295
21.8906
20.7601
22.1477
20.4176
21.602
20.5518
20.9929
20.5703
20.5556
20.396
20.2849
20.0808
20.1515
19.6069
20.1654
19.051
20.1548
18.7262
19.6259
18.9336
20.356
19.324
20.5395
18.9292
20.0526
19.0161
19.4476
19.0107
18.9906
18.8166
18.7006
18.4775
18.5626
17.9698
18.598
17.3733
18.6208
17.0378
18.0858
17.3066
20.0026
19.1104
20.096
18.6652
19.5797
18.611
18.9767
18.5183
18.4853
18.2834
18.1536
17.9048
17.9933
17.3499
18.0191
16.7011
18.0211
16.3255
17.3953
16.5834
16.9371
16.3463
17.1623
15.814
16.6272
15.6433
15.8461
15.3695
15.1881
14.9253
14.7346
14.4281
14.5083
13.8372
14.5407
13.2637
14.6354
13.0377
14.2849
13.3344
24.0525
21.4087
21.5656
18.9615
18.787
17.8895
17.5226
16.7379
16.5726
16.3858
16.3778
16.3427
16.7703
16.5403
17.7085
16.9907
18.951
17.9715
19.8576
19.9084
)
;

boundaryField
{
    outletWall
    {
        type            fixedValue;
        value           uniform 0;
    }
    fineWalls
    {
        type            zeroGradient;
    }
    fineFrontAndBack
    {
        type            zeroGradient;
    }
    fineplugLeft
    {
        type            cyclicAMI;
        value           nonuniform List<scalar> 
20
(
14.9815
13.7891
12.1445
12.7433
10.6883
11.113
9.72377
9.63784
8.89508
8.55695
8.16832
7.94607
7.71018
9.11295
7.57717
8.57266
8.95357
12.0529
12.516
13.5682
)
;
    }
    fineplugRight
    {
        type            cyclicAMI;
        value           nonuniform List<scalar> 
20
(
14.9558
13.738
12.1346
12.6889
10.6822
11.076
9.71322
9.61605
8.88282
8.54406
8.15969
7.93724
7.71075
9.13172
7.62021
8.60871
9.00087
12.1311
12.5607
13.6254
)
;
    }
    inletOutletLeft
    {
        type            cyclicAMI;
        value           nonuniform List<scalar> 
20
(
14.9815
13.7891
12.1445
12.7433
10.6883
11.113
9.72377
9.63784
8.89508
8.55695
8.16832
7.94607
7.71018
9.11295
7.57717
8.57266
8.95357
12.0529
12.516
13.5682
)
;
    }
    inletLeft
    {
        type            zeroGradient;
    }
    inletWallsLeft
    {
        type            zeroGradient;
    }
    inletFacesLeft
    {
        type            zeroGradient;
    }
    inletOutletRight
    {
        type            cyclicAMI;
        value           nonuniform List<scalar> 
20
(
14.9558
13.738
12.1346
12.6889
10.6822
11.076
9.71322
9.61605
8.88282
8.54406
8.15969
7.93724
7.71075
9.13172
7.62021
8.60871
9.00087
12.1311
12.5607
13.6254
)
;
    }
    inletRight
    {
        type            zeroGradient;
    }
    inletWallsRight
    {
        type            zeroGradient;
    }
    inletFacesRight
    {
        type            zeroGradient;
    }
}


// ************************************************************************* //
