/*--------------------------------*- C++ -*----------------------------------*\
| =========                 |                                                 |
| \\      /  F ield         | OpenFOAM: The Open Source CFD Toolbox           |
|  \\    /   O peration     | Version:  4.1                                   |
|   \\  /    A nd           | Web:      www.OpenFOAM.org                      |
|    \\/     M anipulation  |                                                 |
\*---------------------------------------------------------------------------*/
FoamFile
{
    version     2.0;
    format      ascii;
    class       surfaceScalarField;
    location    "1";
    object      phi;
}
// * * * * * * * * * * * * * * * * * * * * * * * * * * * * * * * * * * * * * //

dimensions      [0 3 -1 0 0 0 0];

internalField   nonuniform List<scalar> 
2360
(
7043.95
6255.38
788.568
6255.38
6255.38
5889.67
365.716
5889.67
5889.67
5889.67
6675.31
-785.645
6675.31
6675.31
7721.69
-1046.38
7721.69
7721.69
8911.54
-1189.85
8911.54
8911.54
12123.6
-3212.06
12123.6
12123.6
12964.3
13848.9
14723.7
15626.3
16613.2
17622
417.148
18206.5
1412.78
2400.88
3383.31
4362.2
5340.04
6312.7
7293.79
8258.01
9251.3
10197.9
11211.8
12146.7
13417.2
-1235.02
14652.2
-1235.02
-1235.02
-1235.02
-2184.1
949.075
-2184.1
-2184.1
-2184.1
-382.228
-1801.88
-382.234
-382.237
2260.97
-2643.21
2260.97
2260.97
2260.97
1229.04
1031.93
1229.04
1229.04
1229.04
-13422.6
14651.6
-12163.4
-11231.2
-10218.9
-9271.33
-8278.76
-7314.17
-6333.34
-5360.62
-4382.96
-3404.37
-2422.28
-1434.44
-438.875
-17640.5
18202.9
-16631.6
-15645
-14742
-13864.6
-12971.9
-12125.5
-12125.5
-12125.5
-8913.26
-3212.2
-8913.26
-8913.26
-7722.9
-1190.36
-7722.9
-7722.9
-6676.46
-1046.44
-6676.46
-6676.46
-5890.72
-785.736
-5890.72
-5890.72
-5890.72
-6256.32
365.594
-6256.32
-6256.32
-7044.78
788.459
-1793.25
-2536.02
-1541.97
-498.597
-2074.13
-1377.59
-2236.43
-1182.35
-2556.18
-1423.19
-2858.04
-1545.44
-3207.75
-1759.37
-3585.14
-2000.71
-3979.06
-2307.46
-4354.22
-2687.83
-4639.31
-3169.93
-4698.54
-3795.81
-4283.51
-4638.07
-2979.13
-5766.65
-385.418
-6667.35
2020.94
-3246.69
1746.15
6050.08
132.02
9173.7
8257.82
-472.79
-1981.3
-469.904
-501.483
-577.963
-1269.53
-650.526
-1109.79
-740.29
-1333.43
-824.319
-1461.41
-910.265
-1673.43
-996.785
-1914.19
-1088.79
-2215.46
-1192.93
-2583.68
-1320.23
-3042.62
-1472.92
-3643.12
-1587.76
-4523.23
-1401.6
-5952.81
-414.466
-7654.49
1942.28
-5603.43
2812.05
5180.3
1137.84
10847.9
9761.25
-577.999
-1786.89
-686.907
-392.575
-875.515
-1080.92
-991.141
-994.162
-1131.81
-1192.76
-1272.85
-1320.38
-1429.62
-1516.66
-1599.83
-1743.97
-1786.08
-2029.21
-1989.87
-2379.9
-2213.19
-2819.3
-2437.55
-3418.77
-2546.2
-4414.57
-2222.31
-6276.7
-1067.25
-8809.55
1102.77
-7773.44
2310.89
3972.19
1651.55
11507.3
10627.1
-631.686
-1467.7
-710.373
-313.887
-873.261
-918.034
-988.337
-879.086
-1126.9
-1054.19
-1267.87
-1179.41
-1424.18
-1360.36
-1595.45
-1572.7
-1787.01
-1837.65
-2007.84
-2159.07
-2280.54
-2546.59
-2635.05
-3064.27
-3045.51
-4004.11
-3339.26
-5982.94
-3148.77
-9000.04
-1422.19
-9500.02
879.481
1670.52
1344.05
11042.7
10924.7
-703.586
-1225.6
-789.324
-228.149
-953.742
-753.617
-1077.08
-755.749
-1228.07
-903.203
-1385.76
-1021.71
-1563.6
-1182.52
-1761.63
-1374.67
-1985.49
-1613.8
-2247.13
-1897.43
-2589.19
-2204.54
-3114.19
-2539.26
-3969.38
-3148.93
-5276.38
-4675.95
-6802.93
-7473.49
-6695.26
-9607.69
-2186.61
-2838.14
679.578
8176.49
10413.9
-770.576
-973.688
-854.985
-143.739
-1007.04
-601.56
-1137.22
-625.568
-1295.3
-745.126
-1464.84
-852.171
-1657.55
-989.802
-1874.92
-1157.3
-2123.2
-1365.51
-2417.99
-1602.63
-2830.31
-1792.22
-3577.94
-1791.63
-5064.74
-1662.12
-7724.62
-2016.07
-11353.2
-3844.93
-13302.2
-7658.66
-8454.16
-7686.18
-1150.41
872.737
6051.29
-857.858
-733.325
-932.493
-69.1036
-1079.28
-454.77
-1217.16
-487.695
-1385.37
-576.915
-1570.4
-667.135
-1782.8
-777.401
-2025.59
-914.52
-2306.31
-1084.79
-2642.98
-1265.96
-3122.02
-1313.18
-4031.96
-881.699
-5861.06
166.982
-9008.42
1131.29
-13154.7
301.379
-16433.1
-4380.33
-16600.7
-7518.54
-14902.4
-825.616
9351.79
-947.339
-489.771
-1007.56
-8.88431
-1150.61
-311.717
-1298.51
-339.798
-1477.7
-397.725
-1679.68
-465.158
-1913.38
-543.696
-2184.63
-643.272
-2504.63
-764.795
-2888.43
-882.156
-3349.7
-851.905
-3893.48
-337.925
-4577.73
851.235
-5553.94
2107.49
-6748.31
1495.75
-8412.51
-2716.13
-12033.6
-3897.49
-15321.7
2462.49
8681.77
-1052.43
-242.208
-1078.47
17.1519
-1228.32
-161.868
-1389.75
-178.372
-1582.33
-205.141
-1804.67
-242.817
-2063.94
-284.425
-2368.97
-338.244
-2732.06
-401.702
-3159.79
-454.425
-3606.79
-404.903
-3895.46
-49.2544
-3801.5
757.274
-3371.76
1677.75
-2985.08
1109.08
-3839.23
-1861.98
-6878.45
-858.273
-8198.1
3782.14
1515.6
-1153.34
0.0153578
-1136.18
-0.00683085
-1298.06
0.0130119
-1476.45
0.0138782
-1681.61
0.0202099
-1924.45
0.0261526
-2208.91
0.0303846
-2547.18
0.0262853
-2948.88
0.000464049
-3403.24
-0.0623108
-3807.98
-0.171732
-3856.83
-0.39881
-3098.2
-1.36276
-1413.59
-6.86216
-285.608
-18.9035
-2140.24
-7.35026
-3005.46
6.94263
753.368
23.313
-374.244
-1153.34
242.243
-1136.18
-17.1653
-1298.06
161.893
-1476.44
178.397
-1681.6
205.179
-1924.44
242.866
-2208.89
284.483
-2547.17
338.301
-2948.9
401.729
-3403.33
454.374
-3808.24
404.736
-3857.57
48.9346
-3100.53
-758.411
-1424.16
-1683.22
-315.418
-1127.65
-2164.21
1841.44
-3019.33
862.059
789.6
-3785.61
-1386.52
-1052.43
489.816
-1078.47
8.8751
-1228.31
311.741
-1389.74
339.819
-1582.31
397.758
-1804.65
465.2
-2063.91
543.748
-2368.94
643.329
-2732.06
764.845
-3159.86
882.179
-3607.03
851.907
-3896.07
337.965
-3803.19
-851.289
-3377.9
-2108.51
-3004.39
-1501.16
-3868.83
2705.88
-6899.73
3892.96
-8220.32
-2465.02
-8657.76
-947.323
733.372
-1007.55
69.1011
-1150.6
454.789
-1298.49
487.712
-1477.67
576.942
-1679.64
667.17
-1913.34
777.448
-2184.59
914.58
-2504.61
1084.86
-2888.47
1266.04
-3349.87
1313.3
-3893.86
881.962
-4578.68
-166.47
-5557.11
-1130.08
-6758.25
-300.014
-8431.03
4378.66
-12051.6
7513.57
-15336.3
819.65
-9341.86
-857.837
973.734
-932.476
143.74
-1079.26
601.574
-1217.13
625.579
-1385.33
745.144
-1570.36
852.196
-1782.75
989.839
-2025.53
1157.36
-2306.27
1365.6
-2642.99
1602.76
-3122.07
1792.38
-4031.95
1791.84
-5860.95
1662.53
-9008.45
2017.41
-13156.2
3847.74
-16438.1
7660.55
-16608.1
7683.55
-14909.8
-878.597
-6045.2
-770.553
1225.64
-854.962
228.149
-1007.01
753.625
-1137.19
755.754
-1295.26
903.212
-1464.78
1021.72
-1657.48
1182.54
-1874.84
1374.72
-2123.14
1613.9
-2417.97
1897.6
-2830.35
2204.76
-3577.96
2539.45
-5064.52
3149.09
-7723.81
4676.7
-11351.8
7475.69
-13300.9
9609.73
-8453.09
2835.69
-1151.57
-8180.12
-10408.8
-703.56
1467.73
-789.297
313.886
-953.709
918.037
-1077.04
879.084
-1228.02
1054.19
-1385.7
1179.41
-1563.53
1360.36
-1761.53
1572.73
-1985.37
1837.73
-2247
2159.24
-2589.09
2546.85
-3114.15
3064.51
-3969.32
4004.26
-5275.91
5983.29
-6801.58
9001.36
-6693.52
9501.67
-2186.25
-1671.58
677.947
-11044.3
-10920.7
-631.663
1786.91
-710.346
392.569
-873.229
1080.92
-988.298
994.154
-1126.86
1192.75
-1267.81
1320.37
-1424.1
1516.65
-1595.36
1743.98
-1786.88
2029.25
-2007.64
2380
-2280.26
2819.47
-2634.74
3419
-3045.3
4414.81
-3339.04
6277.04
-3148.11
8810.42
-1421.32
7774.88
879.179
-3972.07
1343.1
-11508.2
-10624
-577.972
1981.3
-686.878
501.475
-875.48
1269.52
-991.099
1109.77
-1131.76
1333.41
-1272.79
1461.39
-1429.54
1673.4
-1599.73
1914.17
-1785.93
2215.45
-1989.62
2583.69
-2212.81
3042.66
-2437.05
3643.23
-2545.73
4523.5
-2222.01
5953.32
-1066.97
7655.38
1103.03
5604.88
2310.77
-5179.81
1651.08
-10848.5
-9758.57
-472.778
2536.01
-469.886
498.583
-577.94
1377.58
-650.5
1182.33
-740.26
1423.17
-824.285
1545.42
-910.226
1759.34
-996.735
2000.68
-1088.71
2307.43
-1192.8
2687.78
-1319.99
3169.85
-1472.49
3795.73
-1587.17
4638.17
-1401.02
5767.16
-414.08
6668.45
1942.5
3248.3
2812.17
-6049.48
1137.42
-9173.8
-8255.43
-1793.19
-1541.92
-2074.07
-2236.35
-2556.08
-2857.91
-3207.57
-3584.91
-3978.77
-4353.88
-4638.96
-4698.24
-4283.27
-2978.95
-385.284
2021.16
1746.45
131.751
157.141
-997.839
296.32
-1023.75
414.835
-993.351
443.182
-930.917
407.139
-950.896
337.944
-939.607
290.869
-954.518
249.196
-953.947
216.952
-955.841
190.576
-956.045
168
-956.306
149.006
-958.84
130.163
-953.815
114.591
-965.505
93.7657
-943.39
80.1781
-979.703
57.4647
-923.874
53.6075
-1010.04
-10.0781
-871.268
-1280.52
37.2722
-1035.11
9.79646
-996.27
12.2333
-995.782
19.2136
-937.892
41.9291
-973.606
51.2666
-948.938
57.9027
-961.149
57.7149
-953.754
58.1193
-956.24
58.0164
-955.938
57.3504
-955.636
56.5024
-957.987
55.3086
-952.618
55.2982
-965.491
54.1822
-942.271
56.5316
-982.05
55.9653
-923.306
61.4316
-1015.5
31.6659
-841.501
-1248.85
44.2555
-1079.36
32.5089
-984.518
29.4555
-992.723
18.864
-927.295
14.6537
-969.391
8.32688
-942.606
5.74045
-958.558
3.92278
-951.931
3.06396
-955.377
2.09619
-954.965
1.48979
-955.025
0.963392
-957.456
0.939852
-952.59
0.879397
-965.426
1.22806
-942.616
1.60618
-982.424
2.10023
-923.798
2.11188
-1015.51
19.4501
-858.837
-1229.4
38.6224
-1117.98
18.4572
-964.35
22.5967
-996.86
23.8841
-928.579
27.1028
-972.607
28.6743
-944.175
30.5656
-960.447
31.1327
-952.495
31.3602
-955.602
31.3391
-954.941
31.1173
-954.801
30.4648
-956.802
29.864
-951.987
28.1971
-963.757
27.5353
-941.952
24.2172
-979.105
23.959
-923.538
18.0569
-1009.61
20.0196
-860.798
-1209.39
28.5285
-1146.5
17.4198
-953.236
19.8272
-999.263
19.9542
-928.701
21.6614
-974.309
22.0885
-944.596
22.7697
-961.123
23.2427
-952.963
23.653
-956.008
23.798
-955.081
23.7716
-954.771
23.4373
-956.463
23.1317
-951.678
22.1778
-962.8
21.9115
-941.683
20.231
-977.421
20.5693
-923.874
18.0275
-1007.06
18.5472
-861.316
-1190.84
22.9871
-1169.49
20.993
-951.242
22.4562
-1000.73
22.6004
-928.845
23.1002
-974.809
23.4887
-944.985
23.5836
-961.218
23.6553
-953.034
23.4557
-955.808
23.1624
-954.788
22.7531
-954.361
22.1062
-955.816
21.6044
-951.176
20.468
-961.663
20.1317
-941.346
18.208
-975.497
18.3312
-923.997
15.1167
-1003.85
17.2101
-863.409
-1173.63
19.4478
-1188.93
26.9443
-958.737
28.532
-1002.31
29.8054
-930.117
30.0813
-975.084
31.1454
-946.047
30.9924
-961.064
31.2139
-953.255
30.8444
-955.437
30.3765
-954.319
29.6867
-953.671
28.6745
-954.803
27.8027
-950.304
26.0839
-959.943
25.5203
-940.782
22.7507
-972.727
23.0887
-924.335
18.8129
-999.572
21.2085
-865.804
-1152.42
18.5415
-1207.48
36.479
-976.677
39.3653
-1005.2
41.2741
-932.029
41.7864
-975.598
43.2776
-947.541
43.1109
-960.899
43.3057
-953.452
42.6779
-954.811
41.8362
-953.479
40.646
-952.482
38.9922
-953.151
37.443
-948.756
34.7885
-957.291
33.5361
-939.53
29.4623
-968.655
29.2639
-924.136
23.2677
-993.576
25.8528
-868.389
-1126.57
21.3134
-1228.79
44.6965
-1000.06
51.1379
-1011.64
54.5711
-935.459
57.3408
-978.365
60.0372
-950.234
61.0063
-961.866
61.7797
-954.222
61.4552
-954.485
60.5726
-952.594
59.0774
-950.985
56.8223
-950.893
54.5148
-946.447
50.6549
-953.429
48.4381
-937.312
42.4313
-962.646
41.3247
-923.029
32.4691
-984.72
35.0578
-870.978
-1091.51
27.5269
-1256.32
43.0826
-1015.61
54.7734
-1023.33
61.6936
-942.38
69.5113
-986.184
74.8297
-955.554
78.8148
-965.852
81.2912
-956.7
82.3457
-955.54
82.2086
-952.458
81.0613
-949.839
78.7162
-948.549
76.0775
-943.809
71.3161
-948.668
68.3693
-934.366
60.4548
-954.733
58.3204
-920.896
46.1683
-972.568
49.284
-874.094
-1042.22
28.5342
-1284.85
21.1282
-1008.21
37.33
-1039.53
50.5828
-955.633
64.7819
-1000.38
74.3874
-965.16
82.9911
-974.456
88.4404
-962.149
92.1441
-959.244
93.9122
-954.226
94.3195
-950.246
93.1416
-947.371
91.6029
-942.27
87.3986
-944.464
85.3856
-932.354
76.9697
-946.317
75.3083
-919.234
61.6503
-958.911
68.8406
-881.284
-973.384
-0.0140943
-1284.84
-19.5741
-988.653
-6.2449
-1052.87
13.4148
-975.298
28.5119
-1015.49
41.5496
-978.202
52.5809
-985.492
60.2666
-969.84
66.2097
-965.191
70.1618
-958.183
73.044
-953.132
74.6106
-948.942
76.4873
-944.15
75.6716
-943.652
78.1647
-934.85
72.8672
-941.022
76.8927
-923.262
69.3119
-951.332
89.8775
-901.852
-883.507
-64.6022
-1220.24
-61.0088
-992.248
-61.5452
-1052.33
-42.6324
-994.212
-38.0173
-1020.1
-27.2483
-988.973
-21.4063
-991.335
-15.6187
-975.629
-11.0361
-969.776
-6.775
-962.446
-2.22606
-957.683
2.52281
-953.693
9.08644
-950.716
14.2243
-948.791
24.2599
-944.887
27.1471
-943.911
45.4111
-941.527
58.6422
-964.564
104.275
-947.486
-779.232
-122.026
-1098.22
-89.7797
-1024.5
-107.581
-1034.54
-100.377
-1001.42
-111.225
-1009.26
-109.958
-990.244
-114.389
-986.909
-114.444
-975.578
-114.287
-969.936
-111.798
-964.939
-107.255
-962.229
-100.419
-960.533
-90.5986
-960.54
-79.5991
-959.794
-63.6197
-960.87
-49.1464
-958.387
-13.5027
-977.173
31.0017
-1009.07
99.5718
-1016.06
-679.66
-131.594
-966.627
-102.828
-1053.27
-129.093
-1008.27
-136.861
-993.656
-155.902
-990.221
-164.732
-981.416
-175.539
-976.105
-180.635
-970.485
-183.609
-966.965
-182.944
-965.607
-179.345
-965.83
-172.523
-967.358
-162.707
-970.357
-149.603
-972.901
-132.918
-977.557
-110.109
-981.197
-69.4257
-1017.86
-9.40951
-1069.09
54.9351
-1080.4
-624.725
-86.8601
-879.769
-86.8413
-1053.29
-107.015
-988.103
-120.287
-980.387
-135.025
-975.486
-145.284
-971.16
-153.904
-967.488
-158.856
-965.536
-161.363
-964.461
-161.562
-965.411
-159.974
-967.42
-156.581
-970.754
-151.735
-975.205
-144.132
-980.507
-134.805
-986.884
-118.528
-997.476
-101.1
-1035.29
-73.5305
-1096.66
-41.307
-1112.63
-666.032
-11.4824
-868.289
-31.4579
-1033.32
-38.5156
-981.047
-45.0157
-973.889
-47.8877
-972.616
-49.827
-969.223
-49.6222
-967.695
-48.5814
-966.579
-46.7467
-966.298
-45.2157
-966.943
-44.3662
-968.271
-44.4895
-970.632
-45.9803
-973.716
-47.9264
-978.562
-51.3878
-983.425
-55.1231
-993.742
-76.4815
-1013.93
-116.517
-1056.62
-131.653
-1097.49
-797.685
40.2868
-908.577
18.549
-1011.58
17.1528
-979.652
18.1835
-974.921
21.4354
-975.868
26.1099
-973.898
31.9061
-973.491
37.9073
-972.581
43.785
-972.176
48.7205
-971.88
52.3009
-971.852
53.9957
-972.327
53.3037
-973.025
49.785
-975.044
42.8915
-976.532
30.1162
-980.967
-0.109271
-983.705
-63.3763
-993.358
-126.376
-1034.5
-924.061
41.7693
-950.346
20.4582
-990.269
17.472
-976.666
18.4368
-975.886
18.9828
-976.415
21.3359
-976.252
24.141
-976.297
27.6959
-976.136
31.5284
-976.009
35.4677
-975.819
39.2428
-975.628
42.4184
-975.503
44.7419
-975.348
45.1972
-975.499
44.0548
-975.389
38.7862
-975.699
29.5154
-974.434
7.3855
-971.228
-46.9413
-980.169
-971.002
24.6532
9.384
7.71787
6.83176
5.41671
4.16449
2.86729
1.73081
0.721562
-0.098157
-0.726217
-1.22953
-1.57819
-2.07771
-2.4674
-3.16619
-2.60081
1.17104
-3.99777
-688.635
1663.63
-1102.9
1389.26
-1532.79
1404.88
-1870.67
1312.88
-2167.53
1271.86
-2411.08
1218.55
-2611.47
1175.39
-2767.89
1131.42
-2882.59
1089.7
-2955.23
1047.63
-2985.34
1005.11
-2971.31
960.97
-2910.64
914.331
-2799.89
864.253
-2636.02
811.132
-2419.6
758.58
-2147.28
702.673
-1751.28
578.996
-1032.84
256.561
-57.837
-156.881
1820.51
-343.867
1576.25
-565.103
1626.12
-725.107
1472.89
-883.776
1430.52
-1003.51
1338.28
-1101.32
1273.19
-1170.55
1200.65
-1214.18
1133.33
-1232.24
1065.7
-1225.79
998.651
-1195.84
931.027
-1143.42
861.903
-1069.47
790.301
-973.644
715.309
-855.284
640.219
-712.617
560.006
-541.856
408.234
-314.681
29.3837
-372.518
7.95411
1812.56
-86.8788
1671.08
-118.804
1658.04
-112.62
1466.7
-97.5783
1415.48
-64.4489
1305.15
-19.8424
1228.58
34.6818
1146.12
97.2954
1070.71
164.718
998.271
234.033
929.334
301.971
863.086
365.508
798.365
421.896
733.911
470.144
667.059
512.136
598.226
546.17
525.971
519.273
435.129
283.918
264.737
-88.5997
107.058
1705.5
177.569
1600.57
303.002
1532.61
415.883
1353.82
534.749
1296.61
636.938
1202.96
732.757
1132.76
814.753
1064.13
884.391
1001.07
938.421
944.239
974.249
893.504
989.265
848.07
980.973
806.656
948.096
766.787
888.828
726.326
803.401
683.651
690.347
639.025
537.665
587.81
308.829
493.571
220.229
-16.4427
1721.94
139.078
1445.04
295.185
1376.5
431.939
1217.06
549.946
1178.61
649.789
1103.12
729.356
1053.19
788.577
1004.9
828.759
960.891
849.818
923.178
851.891
891.43
835.343
864.617
799.942
842.055
746.668
820.06
674.439
798.553
584.152
773.937
473.579
749.597
340.756
720.633
186.631
647.694
406.86
-93.91
1815.85
-16.11
1367.24
111.518
1248.87
248.508
1080.07
346.094
1081.02
432.308
1016.9
495.522
989.98
541.246
959.178
570.034
932.103
583.31
909.902
582.682
892.058
569.866
877.433
545.37
866.55
510.323
855.107
463.211
845.665
404.729
832.419
331.482
822.843
242.104
810.011
130.691
759.106
537.551
2.33797
1813.51
-76.0154
1445.6
-11.9921
1184.85
101.461
966.616
189.226
993.253
257.644
948.481
307.019
940.605
341.92
924.276
363.379
910.643
373.28
900
373.448
891.889
365.73
885.15
350.879
881.4
329.506
876.48
300.717
874.453
264.506
868.629
218.982
868.366
162.787
866.206
85.3484
836.543
622.9
128.628
1684.88
42.0075
1532.22
46.2042
1180.65
100.222
912.6
165.233
928.242
204.232
909.484
232.62
912.218
250.493
906.404
259.727
901.41
261.772
897.956
257.954
895.708
249.498
893.606
237.305
893.593
221.107
892.679
201.764
893.796
177.189
893.205
149.753
895.801
114.521
901.437
69.2132
881.851
692.113
152.99
1531.89
185.938
1499.27
193.229
1173.36
196.896
908.931
219.777
905.359
227.505
901.753
231.927
907.794
231.302
907.027
226.788
905.922
219.059
905.682
208.803
905.962
196.394
906.013
182.854
907.132
166.935
908.596
151.497
909.233
131.656
913.044
114.997
912.459
90.7803
925.654
71.4722
901.158
763.585
114.754
1417.14
226.78
1387.24
266.436
1133.7
257.992
917.375
248.907
914.444
238.278
912.383
227.705
918.367
216.296
918.436
203.835
918.383
190.595
918.922
176.898
919.659
162.556
920.356
148.707
920.98
133.396
923.907
120.884
921.746
104.155
929.773
94.5259
922.088
76.4064
943.773
73.9485
903.616
837.534
75.3783
1341.76
196.061
1266.56
245.106
1084.66
240.068
922.413
221.469
933.043
207.402
926.449
193.464
932.306
180.569
931.331
167.551
931.401
154.725
931.747
142.267
932.117
129.78
932.842
118.456
932.304
106.005
936.359
97.2098
930.541
84.1341
942.849
79.4894
926.733
65.3565
957.906
70.8992
898.073
908.433
52.5599
1289.2
149.748
1169.37
187.661
1046.74
184.988
925.09
168.98
949.053
158.787
936.645
147.597
943.498
137.926
941.004
128.118
941.212
118.7
941.167
109.744
941.075
100.842
941.747
93.1313
940.017
84.2947
945.197
78.9963
935.84
69.3466
952.5
67.7963
928.284
56.3491
969.354
64.1142
890.309
972.547
41.4296
1247.77
110.721
1100.08
133.894
1023.57
131.841
927.143
121.092
959.802
115.494
942.245
108.133
950.859
102.209
946.928
95.9395
947.482
89.9917
947.116
84.3453
946.722
78.6449
947.448
73.9073
944.755
67.9774
951.128
65.0843
938.734
57.959
959.626
57.9717
928.272
48.4513
978.875
55.8465
882.914
1028.39
36.498
1211.28
81.9595
1054.62
94.6146
1010.92
93.2051
928.555
87.0917
965.918
84.7172
944.622
80.4546
955.124
77.3431
950.042
73.7376
951.09
70.3185
950.537
67.0054
950.037
63.5029
950.952
60.6946
947.565
56.6452
955.179
55.1339
940.247
49.611
965.15
50.3431
927.541
42.1878
987.031
48.4924
876.611
1076.89
35.478
1175.8
62.5701
1027.53
69.1979
1004.29
67.8823
929.873
64.7234
969.079
63.6951
945.652
61.3805
957.441
59.729
951.696
57.6441
953.177
55.6327
952.55
53.6271
952.044
51.3657
953.216
49.6155
949.317
46.7162
958.08
45.82
941.145
41.4603
969.511
42.1071
926.895
35.1892
993.95
40.4081
871.393
1117.29
37.5168
1138.28
48.67
1016.38
52.9705
999.996
52.6697
930.175
52.2278
969.522
52.3014
945.581
51.5076
958.236
51.1361
952.069
50.4041
953.91
49.5229
953.433
48.4808
953.087
47.0536
954.644
45.9141
950.457
43.6074
960.388
43.0183
941.734
39.2865
973.244
40.1988
925.983
34.4554
999.694
37.5055
868.343
1154.8
44.9376
1093.35
41.449
1019.87
45.6858
995.76
47.0534
928.809
48.9454
967.631
50.5391
943.988
51.5113
957.265
51.6651
951.916
51.1801
954.396
50.5202
954.094
49.6621
953.947
48.318
955.989
47.2152
951.561
44.6264
962.977
43.8175
942.545
39.0084
978.053
39.2674
925.725
30.9524
1008.01
34.691
864.605
1189.49
48.1674
1045.18
48.7248
1019.32
45.6139
998.872
35.2492
939.174
30.1972
972.684
24.1103
950.075
20.9238
960.452
18.9781
953.862
17.7278
955.647
16.4371
955.385
15.4693
954.915
14.4836
956.975
14.113
951.932
13.3292
963.762
13.6273
942.247
12.7652
978.916
13.8101
924.681
11.695
1010.13
29.9881
846.312
1219.48
39.6367
1005.54
21.3705
1037.58
23.9456
996.297
31.3501
931.769
53.6594
950.374
63.6133
940.121
69.969
954.097
69.8888
953.942
70.0762
955.46
69.8263
955.635
68.8658
955.875
67.4835
958.358
65.7949
953.621
64.872
964.685
63.4688
943.65
64.3501
978.034
64.0382
924.993
67.2684
1006.9
41.6796
871.901
1261.16
159.137
304.001
422.936
451.659
415.438
346.701
299.515
257.89
225.51
199.061
176.339
157.038
137.936
121.791
100.85
86.3131
63.7578
58.3837
-1.94935
)
;

boundaryField
{
    outletWall
    {
        type            calculated;
        value           nonuniform List<scalar> 
60
(
-7044.78
-7337.34
-7559.57
-5775.29
840.327
4073.64
4462.27
4223.04
3855.03
3455.01
3062.99
2701.38
2378.1
2109.08
1847.31
1742.94
1344.65
1909.75
247.322
3732.13
597.132
-81.9341
383.581
312.48
461.475
518.645
617.475
703.766
804.852
911.11
911.119
804.871
703.786
617.494
518.661
461.489
312.49
383.59
-81.9313
597.141
-7043.95
-7335.11
-7559.1
-5774.77
841.856
4074.78
4462.84
4223.21
3855.01
3454.93
3062.89
2701.29
2378.01
2109.01
1847.25
1742.9
1344.62
1909.72
247.31
3732.08
)
;
    }
    fineWalls
    {
        type            calculated;
        value           uniform 0;
    }
    fineFrontAndBack
    {
        type            calculated;
        value           nonuniform List<scalar> 
960
(
-5.41546e-15
2.16762e-13
-6.30709e-14
-1.63906e-13
-4.08135e-13
-2.37784e-13
-1.12213e-13
-1.7118e-13
8.69286e-13
-3.11362e-13
7.5653e-13
2.16498e-11
8.0911e-12
4.57306e-12
-2.35382e-11
-1.55535e-11
-2.13842e-11
-1.4476e-10
-2.72573e-11
-2.7281e-11
-2.13288e-12
-2.66767e-12
-3.17776e-12
-3.04294e-12
-2.51206e-12
-2.76511e-12
-4.81001e-11
-5.47097e-12
-5.58923e-12
-5.07853e-12
-4.83805e-12
-4.39357e-12
-4.26345e-12
-3.91018e-12
-3.88082e-12
-3.64834e-12
-3.42192e-12
-3.10336e-12
-3.36603e-12
-2.54244e-12
-5.8782e-11
-2.78074e-11
-3.16681e-11
-3.90848e-11
-2.24183e-10
-1.93473e-11
-5.11796e-12
-6.06934e-13
-3.04174e-11
4.12236e-12
9.13279e-12
-1.05446e-11
-3.47713e-12
-1.53533e-12
-1.65815e-13
2.22109e-12
-3.06353e-13
8.93744e-13
3.05673e-13
3.1815e-11
2.38591e-12
3.55941e-12
3.24903e-12
3.40684e-12
3.85654e-12
3.66064e-12
3.69072e-12
4.08771e-12
4.30092e-12
4.74177e-12
5.15599e-12
5.03636e-12
4.58377e-12
4.77443e-11
2.89678e-12
2.39621e-12
2.64924e-12
1.96688e-12
2.49305e-13
-1.95656e-12
-1.2849e-11
-1.53189e-11
-8.56906e-11
-1.5855e-11
-1.60878e-11
-9.14393e-11
-1.85147e-11
-1.98402e-11
-7.81806e-11
-5.51041e-12
-1.59597e-13
1.70931e-12
-2.77236e-13
3.02483e-13
6.29742e-13
3.64947e-12
6.56897e-13
6.88065e-13
2.21817e-12
-7.31154e-14
4.84166e-16
-7.63119e-14
-1.45308e-13
-1.38134e-13
-8.03811e-14
-2.46999e-14
-5.846e-14
-1.34708e-13
-1.81027e-13
-1.95213e-13
-2.24294e-13
-3.0214e-13
-3.74705e-13
-3.55071e-13
-2.35951e-13
-9.07676e-14
5.36487e-14
-1.3198e-13
7.89505e-13
1.14481e-13
-1.11766e-13
-3.89593e-13
-7.70613e-13
-7.10012e-13
-2.59158e-13
-4.32468e-14
-3.67451e-13
-7.95462e-13
-9.018e-13
-8.01731e-13
-8.38729e-13
-1.05988e-12
-8.92511e-13
-3.26573e-13
-3.84808e-14
-1.60589e-13
4.91644e-13
-1.54462e-13
4.57405e-13
4.06835e-13
2.32763e-13
-7.58134e-13
-1.01968e-12
-2.80927e-13
5.01484e-13
2.64046e-13
-3.97288e-13
-4.96527e-13
-1.25286e-13
-6.03196e-14
-6.99634e-13
-9.35729e-13
-4.7762e-13
-8.29217e-14
-5.35988e-14
1.0832e-12
-2.50637e-12
1.26728e-12
3.10459e-12
4.80584e-12
3.61621e-12
1.73792e-12
1.14642e-12
2.94431e-12
4.97648e-12
5.77943e-12
6.0007e-12
6.38118e-12
6.10841e-12
3.7987e-12
7.56956e-13
-8.40279e-13
-4.4719e-13
7.12501e-13
-2.11749e-12
3.46776e-12
2.18059e-12
1.03898e-11
1.82056e-11
1.96609e-11
1.31361e-11
5.80306e-12
8.55067e-12
1.89642e-11
2.61826e-11
2.67454e-11
2.51106e-11
2.26521e-11
1.54267e-11
4.26145e-12
-2.13183e-12
-1.82875e-12
1.73403e-12
1.67707e-12
2.39866e-11
-7.92082e-13
1.86918e-11
3.4397e-11
4.30779e-11
2.96623e-11
9.73161e-12
1.21782e-11
3.60848e-11
5.31097e-11
5.22866e-11
4.66581e-11
4.25727e-11
2.88419e-11
6.22316e-12
-5.16338e-12
-6.30195e-12
-1.17363e-12
1.85235e-11
2.60363e-11
-2.37489e-11
-4.95325e-12
-2.31166e-12
1.57616e-11
1.25632e-11
-7.64052e-12
-1.62783e-11
-2.84205e-12
9.45817e-12
8.31107e-12
1.04297e-11
2.5414e-11
2.57488e-11
4.37572e-12
-8.52713e-12
-1.42018e-11
-2.38951e-11
-2.82748e-11
3.65317e-12
-1.09547e-10
-1.55179e-10
-2.28067e-10
-1.91136e-10
-1.09063e-10
-8.37269e-11
-1.56553e-10
-2.47572e-10
-2.7642e-10
-2.52847e-10
-1.99962e-10
-1.0439e-10
-9.49522e-12
6.31612e-12
-7.6213e-12
-9.10186e-12
-6.30267e-12
1.42712e-12
1.88772e-11
-3.13522e-10
-5.33415e-10
-7.18969e-10
-6.09176e-10
-3.2987e-10
-2.4403e-10
-5.03292e-10
-8.16583e-10
-8.89473e-10
-7.83249e-10
-6.39645e-10
-4.17598e-10
-1.40657e-10
-8.59918e-12
-6.1139e-12
-5.35673e-12
-1.97365e-12
3.48446e-12
1.65214e-11
-4.95765e-10
-8.24081e-10
-9.4801e-10
-7.42304e-10
-4.00557e-10
-4.21149e-10
-8.9018e-10
-1.31488e-09
-1.34772e-09
-1.16572e-09
-9.96313e-10
-7.21546e-10
-2.50458e-10
9.4013e-11
1.08858e-10
3.89272e-11
-7.21347e-12
-3.37397e-11
-1.73599e-11
4.98567e-10
8.30991e-10
9.51764e-10
6.98379e-10
1.84909e-10
-1.64238e-10
-2.04492e-10
-1.77518e-10
-2.01138e-10
-1.89877e-10
-1.39178e-10
-8.35879e-11
-2.20878e-11
3.04249e-12
1.08921e-12
2.67371e-12
-1.03331e-11
-3.84916e-11
-7.88356e-11
3.14686e-10
5.35982e-10
7.19746e-10
5.87972e-10
2.30487e-10
-2.80509e-11
-1.99873e-11
7.3583e-11
8.26518e-11
6.13188e-11
5.79087e-11
4.38678e-11
2.02084e-11
5.96961e-13
-2.22833e-12
3.74494e-12
-2.27851e-12
-4.12682e-11
-1.4349e-10
1.09884e-10
1.55512e-10
2.26912e-10
1.81749e-10
7.63895e-11
6.37434e-12
2.05934e-11
6.32594e-11
7.56028e-11
6.66826e-11
5.52831e-11
3.63146e-11
1.24589e-11
1.02375e-12
1.2377e-14
-2.41881e-12
-8.30316e-12
-1.54211e-11
-3.15963e-11
2.38002e-11
4.75787e-12
1.20367e-12
-1.94243e-11
-1.98065e-11
8.53585e-14
1.84394e-11
2.45385e-11
2.74529e-11
2.78528e-11
2.24573e-11
1.42646e-11
4.88173e-12
1.10182e-12
2.90212e-12
6.72988e-12
1.30812e-11
2.13499e-11
-2.76156e-12
7.69596e-13
-1.88541e-11
-3.49254e-11
-4.40978e-11
-2.98211e-11
-4.00709e-12
8.18086e-12
5.16357e-12
3.51896e-12
5.00967e-12
3.89625e-12
2.12269e-12
2.16481e-13
5.98352e-13
4.10311e-12
1.12649e-11
2.00642e-11
1.80921e-11
-4.13706e-12
-2.20668e-12
-1.04591e-11
-1.83626e-11
-1.97547e-11
-1.22972e-11
-1.77548e-12
1.89172e-12
-3.08181e-13
-1.61979e-12
-1.19609e-12
-1.16195e-12
-1.23567e-12
-1.20601e-12
-7.83534e-14
2.64702e-12
7.95606e-12
1.26644e-11
5.99274e-12
6.29483e-12
-1.28023e-12
-3.12391e-12
-4.82902e-12
-3.5368e-12
-1.24632e-12
3.16502e-13
-3.86887e-14
-7.93408e-13
-1.0787e-12
-1.15237e-12
-1.07929e-12
-1.03377e-12
-8.99578e-13
-3.02624e-13
1.02689e-12
3.76149e-12
4.76411e-12
1.79322e-12
-6.26062e-12
-4.60515e-13
-4.08852e-13
-2.27632e-13
8.11011e-13
1.18542e-12
5.87727e-13
-2.10241e-13
-3.57822e-13
-2.8623e-13
-3.71106e-13
-3.64349e-13
-3.79069e-13
-3.60352e-13
-2.30303e-13
1.6447e-13
1.19937e-12
9.46828e-13
6.81029e-13
1.18914e-12
-1.14069e-13
1.13119e-13
3.94607e-13
7.89364e-13
7.45819e-13
2.71593e-13
-9.3622e-14
-9.20367e-14
-2.27983e-14
-4.8163e-14
-5.48415e-14
-7.62922e-14
-9.57863e-14
-1.31119e-13
-1.1286e-13
1.83556e-13
3.64591e-13
-2.09078e-13
6.2932e-13
3.92156e-16
7.70556e-14
1.46883e-13
1.39715e-13
7.65147e-14
-1.14114e-15
-1.30047e-14
5.91736e-15
1.32126e-14
1.37079e-14
9.31677e-15
-4.26488e-16
-1.68707e-14
-4.50702e-14
-4.79336e-14
5.77202e-14
5.72502e-14
5.19464e-14
-2.88923e-13
5.41546e-15
-2.16762e-13
6.30709e-14
1.63906e-13
4.08135e-13
2.37784e-13
1.12213e-13
1.7118e-13
-8.69286e-13
3.11362e-13
-7.5653e-13
-2.16498e-11
-8.0911e-12
-4.57306e-12
2.35382e-11
1.55535e-11
2.13842e-11
1.4476e-10
2.72573e-11
2.7281e-11
2.13288e-12
2.66767e-12
3.17776e-12
3.04294e-12
2.51206e-12
2.76511e-12
4.81001e-11
5.47097e-12
5.58923e-12
5.07853e-12
4.83805e-12
4.39357e-12
4.26345e-12
3.91018e-12
3.88082e-12
3.64834e-12
3.42192e-12
3.10336e-12
3.36603e-12
2.54244e-12
5.8782e-11
2.78074e-11
3.16681e-11
3.90848e-11
2.24183e-10
1.93473e-11
5.11796e-12
6.06934e-13
3.04174e-11
-4.12236e-12
-9.13279e-12
1.05446e-11
3.47713e-12
1.53533e-12
1.65815e-13
-2.22109e-12
3.06353e-13
-8.93744e-13
-3.05673e-13
-3.1815e-11
-2.38591e-12
-3.55941e-12
-3.24903e-12
-3.40684e-12
-3.85654e-12
-3.66064e-12
-3.69072e-12
-4.08771e-12
-4.30092e-12
-4.74177e-12
-5.15599e-12
-5.03636e-12
-4.58377e-12
-4.77443e-11
-2.89678e-12
-2.39621e-12
-2.64924e-12
-1.96688e-12
-2.49305e-13
1.95656e-12
1.2849e-11
1.53189e-11
8.56906e-11
1.5855e-11
1.60878e-11
9.14393e-11
1.85147e-11
1.98402e-11
7.81806e-11
5.51041e-12
1.59597e-13
-1.70931e-12
2.77236e-13
-3.02483e-13
-6.29742e-13
-3.64947e-12
-6.56897e-13
-6.88065e-13
-2.21817e-12
7.31154e-14
-4.84166e-16
7.63119e-14
1.45308e-13
1.38134e-13
8.03811e-14
2.46999e-14
5.846e-14
1.34708e-13
1.81027e-13
1.95213e-13
2.24294e-13
3.0214e-13
3.74705e-13
3.55071e-13
2.35951e-13
9.07676e-14
-5.36487e-14
1.3198e-13
-7.89505e-13
-1.14481e-13
1.11766e-13
3.89593e-13
7.70613e-13
7.10012e-13
2.59158e-13
4.32468e-14
3.67451e-13
7.95462e-13
9.018e-13
8.01731e-13
8.38729e-13
1.05988e-12
8.92511e-13
3.26573e-13
3.84808e-14
1.60589e-13
-4.91644e-13
1.54462e-13
-4.57405e-13
-4.06835e-13
-2.32763e-13
7.58134e-13
1.01968e-12
2.80927e-13
-5.01484e-13
-2.64046e-13
3.97288e-13
4.96527e-13
1.25286e-13
6.03196e-14
6.99634e-13
9.35729e-13
4.7762e-13
8.29217e-14
5.35988e-14
-1.0832e-12
2.50637e-12
-1.26728e-12
-3.10459e-12
-4.80584e-12
-3.61621e-12
-1.73792e-12
-1.14642e-12
-2.94431e-12
-4.97648e-12
-5.77943e-12
-6.0007e-12
-6.38118e-12
-6.10841e-12
-3.7987e-12
-7.56956e-13
8.40279e-13
4.4719e-13
-7.12501e-13
2.11749e-12
-3.46776e-12
-2.18059e-12
-1.03898e-11
-1.82056e-11
-1.96609e-11
-1.31361e-11
-5.80306e-12
-8.55067e-12
-1.89642e-11
-2.61826e-11
-2.67454e-11
-2.51106e-11
-2.26521e-11
-1.54267e-11
-4.26145e-12
2.13183e-12
1.82875e-12
-1.73403e-12
-1.67707e-12
-2.39866e-11
7.92082e-13
-1.86918e-11
-3.4397e-11
-4.30779e-11
-2.96623e-11
-9.73161e-12
-1.21782e-11
-3.60848e-11
-5.31097e-11
-5.22866e-11
-4.66581e-11
-4.25727e-11