/*--------------------------------*- C++ -*----------------------------------*\
| =========                 |                                                 |
| \\      /  F ield         | OpenFOAM: The Open Source CFD Toolbox           |
|  \\    /   O peration     | Version:  4.1                                   |
|   \\  /    A nd           | Web:      www.OpenFOAM.org                      |
|    \\/     M anipulation  |                                                 |
\*---------------------------------------------------------------------------*/
FoamFile
{
    version     2.0;
    format      ascii;
    class       volVectorField;
    location    "1";
    object      U;
}
// * * * * * * * * * * * * * * * * * * * * * * * * * * * * * * * * * * * * * //

dimensions      [0 1 -1 0 0 0 0];

internalField   nonuniform List<vector> 
1280
(
(-3.91361e-18 3.83506 -0.126132)
(3.68408e-17 2.58567 0.307519)
(-4.55797e-17 1.86164 0.38592)
(-1.1845e-16 2.1306 0.21883)
(-6.93666e-17 2.54069 0.280984)
(-1.7184e-16 1.85728 0.301352)
(-8.10932e-17 2.06668 0.213522)
(-1.86863e-16 1.86975 -0.0232756)
(3.70523e-16 2.54373 -0.592658)
(-1.6932e-16 2.15289 -0.189839)
(5.32815e-16 2.18764 -0.17366)
(3.33929e-15 2.95579 -0.737108)
(5.85936e-15 2.47953 -0.206411)
(3.30483e-15 2.52333 -0.191519)
(-4.68174e-15 3.3824 -0.93403)
(-1.12401e-14 2.88087 -0.169593)
(-1.54538e-14 2.90142 0.172239)
(-2.46034e-14 3.81841 -2.67755)
(-1.96982e-14 4.34073 0.82647)
(-1.97153e-14 3.13924 -0.999702)
(-8.75028e-15 4.09168 1.64079)
(-1.09443e-14 4.45745 1.38466)
(-1.3037e-14 4.06165 4.87984)
(-1.24839e-14 3.67329 11.5322)
(-1.03059e-14 2.55746 17.723)
(-1.1344e-14 2.3359 19.2773)
(-1.01397e-14 0.69964 18.9585)
(-2.2445e-14 2.6956 16.4826)
(-2.29302e-14 2.96201 15.803)
(-2.0835e-14 2.94064 15.3799)
(-1.98484e-14 2.92943 15.0619)
(-1.80249e-14 2.88054 14.8343)
(-1.74911e-14 2.97165 14.6823)
(-1.60418e-14 2.82778 14.7088)
(-1.59213e-14 3.10572 14.6288)
(-1.49675e-14 2.72405 14.833)
(-1.40387e-14 3.25204 14.4377)
(-1.27317e-14 2.68757 14.5853)
(-1.38093e-14 3.17703 14.0731)
(-1.04305e-14 2.89209 16.4241)
(-1.02319e-14 2.53861 10.8268)
(-2.23353e-14 -0.913566 -1.68766)
(-2.54362e-14 -0.246366 -1.14041)
(-3.19485e-14 -0.24162 -2.82632)
(-4.04285e-14 -0.508457 -4.16852)
(-1.554e-14 -0.994786 -1.70301)
(-4.11081e-15 -0.658905 -2.21909)
(-4.87498e-16 -0.520643 -2.39246)
(-6.70085e-15 -0.0777099 -0.888918)
(3.31113e-15 0.558111 4.20403)
(6.76668e-15 -0.643548 1.03914)
(-1.83543e-15 0.237447 -2.20062)
(-2.79287e-15 0.532075 -2.35211)
(-1.2332e-15 0.672957 -2.09882)
(-1.33185e-16 1.01094 -1.62647)
(3.86613e-16 0.538591 -4.08544)
(-8.0525e-16 0.238993 -2.81737)
(7.17867e-16 0.245898 -1.13842)
(2.4552e-16 0.904221 -1.6853)
(5.33832e-15 -2.49303 10.822)
(9.78834e-15 -2.90626 16.3817)
(1.46027e-14 -3.17353 14.0654)
(1.33294e-14 -2.70604 14.5883)
(1.39768e-14 -3.25005 14.4449)
(1.58217e-14 -2.73706 14.8306)
(1.5018e-14 -3.10876 14.6292)
(1.51414e-14 -2.83695 14.7079)
(1.67701e-14 -2.97745 14.682)
(1.76448e-14 -2.88793 14.8312)
(1.94534e-14 -2.93571 15.0572)
(2.11528e-14 -2.94786 15.3757)
(2.0662e-14 -2.97176 15.8025)
(1.88052e-14 -2.71012 16.487)
(1.00647e-14 -0.722371 18.9601)
(1.18842e-14 -2.34109 19.277)
(9.83062e-15 -2.56543 17.7226)
(1.08687e-14 -3.67848 11.5372)
(8.06927e-15 -4.06346 4.89924)
(1.02279e-15 -4.46014 1.42912)
(-8.02692e-15 -4.08957 1.67246)
(-9.28564e-15 -3.13459 -1.01837)
(-1.10705e-14 -4.34321 0.831975)
(-1.45639e-14 -3.81776 -2.67842)
(-1.1458e-14 -2.90217 0.172582)
(-1.16262e-14 -2.8814 -0.169563)
(-1.58815e-14 -3.38341 -0.934249)
(-1.33801e-14 -2.52358 -0.19136)
(-1.43258e-14 -2.48001 -0.206308)
(-1.3725e-14 -2.95648 -0.737059)
(-3.99614e-15 -2.18793 -0.173505)
(-5.96459e-17 -2.15331 -0.189752)
(-1.55021e-16 -2.54441 -0.592646)
(-2.63503e-16 -1.87003 -0.0231369)
(2.18596e-16 -2.06709 0.213643)
(4.55098e-16 -1.85764 0.301406)
(6.20262e-16 -2.54134 0.280986)
(4.74722e-16 -2.13083 0.218889)
(4.97247e-16 -1.86201 0.385973)
(4.82871e-16 -2.58644 0.307575)
(-5.28386e-17 -3.83518 -0.12611)
(5.37962e-20 4.61027 3.51695)
(-8.4791e-18 0.933685 0.197642)
(-1.61453e-17 2.49004 1.94441)
(-1.53482e-17 2.05129 1.63117)
(-8.93124e-18 2.45873 2.04357)
(-2.74443e-18 2.66648 2.23285)
(-6.49555e-18 3.01058 2.52315)
(-1.49675e-17 3.40248 2.82296)
(-2.01141e-17 3.86774 3.14934)
(-2.16903e-17 4.39409 3.47934)
(-2.49215e-17 4.95619 3.77347)
(-3.35711e-17 5.49927 3.95301)
(-4.16339e-17 5.92945 3.86883)
(-3.94523e-17 6.08115 3.24577)
(-2.62168e-17 5.46916 1.69225)
(-1.00853e-17 2.49395 -1.10709)
(5.96096e-18 -2.34945 -2.00575)
(-1.46645e-17 -3.88587 -0.852916)
(8.77228e-17 -3.59694 0.644045)
(1.27201e-17 -1.16574 0.478507)
(-1.24184e-17 -0.319062 0.269521)
(-4.32881e-17 -0.614802 0.502229)
(-8.56237e-17 -0.522626 0.477864)
(-7.88902e-17 -0.596047 0.595844)
(-2.87954e-17 -0.648831 0.645252)
(-4.8052e-18 -0.715242 0.726118)
(-4.08279e-17 -0.796518 0.793612)
(-8.83846e-17 -0.882236 0.868679)
(-1.002e-16 -0.963158 0.948328)
(-8.90812e-17 -1.01012 1.04254)
(-9.31921e-17 -0.96684 1.16061)
(-1.17764e-16 -0.727957 1.29773)
(-9.91679e-17 -0.136158 1.34999)
(-3.62859e-17 0.785199 0.925951)
(-4.27565e-18 0.684947 -0.278499)
(-1.78433e-17 -2.30218 -2.60892)
(5.46271e-17 -3.79355 -2.31712)
(-1.71624e-17 -3.47712 0.355624)
(5.08228e-17 1.40144 1.51958)
(4.52039e-17 0.397003 -0.0430363)
(2.58625e-17 0.831106 0.857886)
(-8.42371e-17 0.745342 0.697218)
(-1.13298e-16 0.868189 0.912581)
(-3.12141e-17 0.950886 0.988598)
(5.57204e-17 1.07164 1.12649)
(2.93384e-17 1.21296 1.25764)
(-4.41431e-17 1.3841 1.40736)
(-5.51696e-17 1.58627 1.56881)
(-1.39206e-17 1.82115 1.74639)
(-6.70218e-18 2.09367 1.93993)
(-7.77372e-17 2.43134 2.11813)
(-1.0397e-16 2.90685 2.10352)
(-5.30689e-17 3.42559 1.49879)
(-9.21353e-18 2.74326 0.474876)
(-5.95542e-18 -1.12646 -1.88803)
(1.20356e-16 -3.57 -2.48987)
(-2.78485e-16 -3.1656 -0.441695)
(1.40808e-16 0.206343 1.44666)
(3.44954e-16 -0.00938254 0.0452083)
(5.33982e-16 0.135939 0.848718)
(4.01801e-16 0.129573 0.697619)
(1.93102e-16 0.172396 0.909636)
(1.27379e-16 0.197395 0.984209)
(3.27146e-16 0.238902 1.12279)
(5.52942e-16 0.286163 1.25334)
(6.42159e-16 0.34773 1.40529)
(6.66744e-16 0.42615 1.57391)
(7.0902e-16 0.530525 1.7732)
(6.78712e-16 0.693579 2.02777)
(4.22078e-16 1.02701 2.36199)
(8.41062e-17 1.7469 2.68712)
(-9.33643e-17 2.82821 2.7676)
(-4.96877e-17 2.85055 2.77937)
(7.91668e-17 -1.49137 -0.0941909)
(-2.35277e-16 -3.84017 -1.91963)
(3.85306e-16 -3.71045 -0.664859)
(2.42288e-16 0.591179 1.76633)
(1.15442e-15 0.152142 0.000887267)
(2.02284e-15 0.36438 0.945902)
(2.18455e-15 0.356011 0.756583)
(1.45957e-15 0.417022 0.991048)
(6.44784e-16 0.465223 1.07343)
(9.50074e-16 0.531037 1.22908)
(2.10714e-15 0.609385 1.37927)
(2.90918e-15 0.706141 1.55578)
(2.97171e-15 0.82181 1.7537)
(2.79007e-15 0.955673 1.99197)
(2.5169e-15 1.12214 2.32362)
(1.71407e-15 1.41199 2.86418)
(4.73495e-16 2.03196 3.71917)
(-2.3687e-16 3.01824 4.98619)
(-2.03195e-16 3.34665 6.58477)
(1.9267e-16 0.0924906 4.67687)
(1.86341e-16 -3.49148 -1.14782)
(2.66518e-15 -3.55631 -0.523155)
(-8.80091e-17 0.301334 1.90858)
(2.07686e-15 0.0331489 0.0283462)
(3.82189e-15 0.186918 1.00244)
(4.78643e-15 0.193481 0.799527)
(3.29581e-15 0.235395 1.0449)
(1.08129e-15 0.270552 1.13325)
(1.35314e-15 0.317217 1.30066)
(4.00942e-15 0.37338 1.46464)
(5.90107e-15 0.443434 1.65936)
(5.80962e-15 0.525161 1.88005)
(5.18423e-15 0.604558 2.15127)
(4.7303e-15 0.667116 2.56697)
(3.20465e-15 0.7793 3.39373)
(6.91463e-16 1.15455 5.0184)
(-5.73709e-16 1.9768 7.80719)
(-7.00217e-16 2.97148 11.2255)
(-1.30404e-16 1.91313 11.0727)
(2.05817e-15 -2.01101 3.0247)
(2.89292e-15 -3.49212 -1.87413)
(-2.63877e-15 0.311116 2.1231)
(-5.50361e-16 0.0475858 0.048438)
(-2.56851e-16 0.191669 1.07707)
(1.75129e-15 0.201983 0.857894)
(1.39591e-15 0.237884 1.11599)
(-8.48946e-16 0.272244 1.21351)
(-1.8087e-15 0.315184 1.39586)
(-3.15783e-16 0.368069 1.57821)
(1.05091e-15 0.433842 1.7967)
(9.23453e-16 0.506838 2.0478)
(1.15886e-15 0.549065 2.35867)
(2.82377e-15 0.477627 2.84438)
(2.86098e-15 0.278079 3.86748)
(4.86191e-16 0.158787 5.86535)
(-9.47459e-16 0.618075 9.1716)
(-1.57798e-15 2.11908 12.8046)
(-2.65501e-15 3.14834 14.6443)
(-3.14165e-15 1.51001 13.0504)
(4.05908e-16 -0.964239 11.1347)
(-1.21718e-14 0.191963 2.30382)
(-1.72421e-14 0.00732063 0.0860068)
(-2.53407e-14 0.121372 1.14588)
(-2.12374e-14 0.132457 0.918497)
(-1.21181e-14 0.156728 1.18802)
(-9.30299e-15 0.183101 1.29649)
(-1.73947e-14 0.214508 1.49469)
(-2.7508e-14 0.254051 1.69712)
(-3.07133e-14 0.303119 1.94275)
(-2.80941e-14 0.352817 2.23188)
(-2.2218e-14 0.346826 2.5829)
(-1.15988e-14 0.144659 3.00003)
(-1.05502e-15 -0.330481 3.46535)
(7.01792e-16 -0.803438 4.12934)
(-8.46811e-16 -0.66939 5.24072)
(-1.01132e-15 0.775367 6.07722)
(-7.00297e-16 1.52821 7.82907)
(1.58569e-16 -1.24101 12.0107)
(2.09747e-15 -4.31682 13.8693)
(-3.48358e-14 0.124328 2.50526)
(-5.92684e-14 -0.00168914 0.125486)
(-7.98855e-14 0.0817955 1.2178)
(-6.76863e-14 0.0895471 0.986987)
(-3.66523e-14 0.103701 1.26872)
(-2.71144e-14 0.121879 1.39113)
(-5.59213e-14 0.142475 1.60803)
(-9.07315e-14 0.168852 1.83473)
(-9.88303e-14 0.20046 2.11219)
(-8.70276e-14 0.229124 2.4412)
(-7.10716e-14 0.215612 2.82614)
(-4.63998e-14 0.0709052 3.18793)
(-1.56285e-14 -0.269209 3.27818)
(-9.55465e-16 -0.669256 3.02043)
(-6.79322e-16 -0.48586 2.73867)
(-5.95192e-16 0.921328 2.39234)
(-2.19295e-16 1.12319 3.76279)
(3.87162e-16 -0.602257 7.25357)
(1.83571e-15 -1.96937 7.07202)
(-5.5085e-14 0.0381675 2.69751)
(-9.15646e-14 -0.00430746 0.160462)
(-1.05334e-13 0.0276029 1.28161)
(-8.24782e-14 0.0303229 1.05186)
(-4.45063e-14 0.0347815 1.34493)
(-4.67943e-14 0.0415726 1.48156)
(-9.91035e-14 0.0489589 1.71682)
(-1.46098e-13 0.0585945 1.96768)
(-1.49747e-13 0.0694483 2.2762)
(-1.29524e-13 0.0757537 2.63847)
(-1.10701e-13 0.0555573 3.03442)
(-8.0359e-14 -0.036476 3.31589)
(-2.78287e-14 -0.232405 3.0849)
(1.04459e-14 -0.461549 2.01024)
(1.21645e-14 -0.365419 0.58978)
(4.32524e-15 0.261138 0.467195)
(-8.01497e-16 -0.499697 2.1124)
(-3.74885e-15 -1.31477 2.16328)
(-1.92887e-15 0.513861 -2.1841)
(5.53963e-14 -0.0381779 2.69749)
(9.23323e-14 0.00431248 0.160462)
(1.05752e-13 -0.0276119 1.2816)
(7.75977e-14 -0.0303321 1.05185)
(2.05454e-14 -0.034795 1.34492)
(-1.82486e-14 -0.0415901 1.48155)
(-2.25483e-14 -0.0489793 1.71681)
(-1.97242e-14 -0.0586126 1.96767)
(-2.23487e-14 -0.0694501 2.27619)
(-2.10974e-14 -0.0757154 2.6385)
(-1.54642e-14 -0.0554511 3.03454)
(-9.28755e-15 0.0367221 3.31621)
(-2.4542e-15 0.233287 3.0859)
(3.38055e-16 0.465589 2.0133)
(1.21024e-16 0.377059 0.60178)
(2.97079e-16 -0.253778 0.500594)
(-1.14812e-15 0.495238 2.12575)
(-4.27684e-15 1.31044 2.19261)
(-8.75951e-15 -0.441929 -2.2545)
(3.49651e-14 -0.124341 2.50523)
(5.95535e-14 0.0016929 0.125488)
(7.99717e-14 -0.0818035 1.21779)
(6.53302e-14 -0.0895548 0.98698)
(2.56097e-14 -0.103713 1.26871)
(-3.11677e-15 -0.121894 1.39112)
(-2.22081e-15 -0.142493 1.60801)
(8.17589e-15 -0.168871 1.8347)
(9.18354e-15 -0.200474 2.11217)
(6.8132e-15 -0.229123 2.44121)
(6.43429e-15 -0.215593 2.82625)
(4.8742e-15 -0.0708905 3.18822)
(2.24538e-15 0.269237 3.27896)
(6.6329e-17 0.669695 3.0226)
(-2.47592e-16 0.488169 2.74621)
(4.16104e-16 -0.917293 2.41731)
(-2.53168e-16 -1.12232 3.7864)
(-4.58536e-15 0.599501 7.27387)
(-1.59433e-14 1.9613 7.06522)
(1.22093e-14 -0.191979 2.30378)
(1.72791e-14 -0.00731918 0.0860032)
(2.52125e-14 -0.121379 1.14587)
(2.01943e-14 -0.132464 0.918484)
(8.48773e-15 -0.156738 1.188)
(7.0826e-16 -0.183114 1.29647)
(2.28816e-15 -0.214525 1.49466)
(7.02883e-15 -0.254071 1.69709)
(8.40031e-15 -0.30314 1.94272)
(7.40917e-15 -0.352837 2.23189)
(6.14257e-15 -0.346857 2.58297)
(4.03496e-15 -0.144733 3.00024)
(1.38432e-15 0.33037 3.46587)
(1.1375e-16 0.803307 4.13049)
(1.37523e-18 0.66963 5.2445)
(-2.68757e-16 -0.773662 6.08991)
(-9.22574e-16 -1.52558 7.84743)
(-1.71345e-15 1.24593 12.0246)
(-3.5107e-15 4.32726 13.8744)
(2.64447e-15 -0.311131 2.12307)
(5.28652e-16 -0.0475854 0.0484269)
(1.33742e-16 -0.191674 1.07706)
(-2.15825e-15 -0.201987 0.857874)
(-2.20072e-15 -0.237891 1.11596)
(9.48428e-18 -0.272253 1.21347)
(2.04882e-15 -0.315197 1.39581)
(2.7265e-15 -0.368087 1.57816)
(3.05032e-15 -0.433866 1.79665)
(3.09476e-15 -0.506868 2.04778)
(2.49526e-15 -0.549107 2.3587)
(1.58496e-15 -0.477707 2.84444)
(5.42414e-16 -0.278272 3.86747)
(1.22425e-16 -0.159338 5.86523)
(3.22458e-16 -0.618944 9.17155)
(7.47765e-16 -2.11936 12.8071)
(1.45346e-15 -3.14774 14.6504)
(2.37222e-15 -1.51156 13.0566)
(-3.0684e-16 0.949202 11.142)
(8.55107e-17 -0.30135 1.90855)
(-2.0949e-15 -0.0331499 0.0283298)
(-3.88061e-15 -0.186923 1.00242)
(-4.89976e-15 -0.193485 0.799501)
(-3.31345e-15 -0.235401 1.04487)
(-4.45232e-16 -0.270561 1.1332)
(9.08985e-16 -0.317231 1.3006)
(5.7373e-16 -0.373403 1.46458)
(3.90996e-16 -0.443475 1.65929)
(5.5663e-16 -0.525222 1.88001)
(4.32917e-16 -0.604632 2.15128)
(2.35854e-16 -0.667191 2.56703)
(2.40534e-17 -0.779401 3.39373)
(6.64836e-17 -1.1549 5.01805)
(4.55901e-16 -1.9777 7.80607)
(1.25166e-15 -2.97226 11.2243)
(2.22936e-15 -1.91221 11.0719)
(2.01023e-15 2.01476 3.02396)
(-4.59673e-16 3.49616 -1.87332)
(-2.45186e-16 -0.591187 1.7663)
(-1.16212e-15 -0.15214 0.000867258)
(-2.04029e-15 -0.36438 0.945877)
(-2.19496e-15 -0.356009 0.756553)
(-1.36636e-15 -0.41702 0.991012)
(-1.97275e-16 -0.46522 1.07338)
(2.10191e-16 -0.531036 1.22902)
(-3.42423e-17 -0.60939 1.3792)
(-1.79977e-16 -0.706161 1.55569)
(-1.32898e-16 -0.821853 1.75359)
(-1.29105e-16 -0.955733 1.99187)
(-1.37297e-16 -1.12218 2.32356)
(-1.34002e-16 -1.412 2.86419)
(-8.70594e-18 -2.03211 3.71906)
(2.94114e-16 -3.01881 4.98543)
(8.84006e-16 -3.34725 6.58336)
(1.40716e-15 -0.0916683 4.6755)
(6.6586e-16 3.49181 -1.14709)
(6.99426e-16 3.55358 -0.521913)
(-1.42248e-16 -0.206356 1.44663)
(-3.47101e-16 0.00938059 0.0451896)
(-5.36558e-16 -0.135944 0.848693)
(-3.92978e-16 -0.129576 0.69759)
(-1.3848e-16 -0.172401 0.909601)
(3.51669e-17 -0.197403 0.984166)
(-4.29875e-18 -0.238915 1.12274)
(-8.81564e-17 -0.286187 1.25327)
(-1.19856e-16 -0.347778 1.4052)
(-1.28041e-16 -0.426238 1.57378)
(-1.19922e-16 -0.530658 1.773)
(-1.14863e-16 -0.693731 2.0275)
(-9.99531e-17 -1.02713 2.36175)
(-3.36248e-17 -1.74701 2.687)
(1.14099e-16 -2.82852 2.76729)
(4.17943e-16 -2.85107 2.77864)
(5.29345e-16 1.49144 -0.094599)
(1.99247e-16 3.84063 -1.9191)
(-6.95625e-16 3.70965 -0.664317)
(-5.11684e-17 -1.40143 1.51955)
(-4.5428e-17 -0.396995 -0.0430578)
(-2.52924e-17 -0.831095 0.85786)
(9.01123e-17 -0.745328 0.697187)
(1.31713e-16 -0.86817 0.912543)
(6.5303e-17 -0.950861 0.988552)
(-2.33601e-17 -1.0716 1.12643)
(-3.9758e-17 -1.21292 1.25756)
(-3.18033e-17 -1.38405 1.40726)
(-4.1234e-17 -1.58621 1.56866)
(-4.04832e-17 -1.8211 1.74614)
(-4.21188e-17 -2.09362 1.93955)
(-4.00392e-17 -2.43135 2.11768)
(-2.55892e-17 -2.90696 2.10318)
(1.82744e-17 -3.42589 1.49858)
(1.33264e-16 -2.74379 0.474667)
(1.05203e-16 1.12625 -1.88812)
(7.56699e-17 3.57029 -2.4897)
(1.32127e-16 3.16465 -0.441345)
(-1.26743e-17 1.16571 0.478491)
(1.25688e-17 0.319054 0.269512)
(4.38453e-17 0.614786 0.502211)
(8.77071e-17 0.522607 0.477843)
(8.28687e-17 0.59602 0.59582)
(3.0177e-17 0.648793 0.645225)
(-1.04024e-17 0.715188 0.726088)
(-1.02263e-17 0.796441 0.793576)
(-2.53314e-18 0.882127 0.868632)
(-5.35144e-18 0.963017 0.948254)
(-6.0935e-18 1.00996 1.0424)
(-8.47691e-18 0.966672 1.16034)
(-1.06429e-17 0.727782 1.29729)
(-1.45688e-17 0.136004 1.34944)
(-1.254e-17 -0.785331 0.92551)
(2.03951e-17 -0.685145 -0.278621)
(4.05101e-17 2.30212 -2.60922)
(-2.32309e-17 3.79371 -2.31703)
(6.99244e-17 3.47628 0.355996)
(4.35729e-20 -4.61021 3.51689)
(8.56173e-18 -0.933661 0.197611)
(1.63204e-17 -2.49 1.94436)
(1.55239e-17 -2.05123 1.63111)
(8.50163e-18 -2.45866 2.0435)
(-1.26794e-19 -2.66639 2.23275)
(-1.44497e-18 -3.01046 2.52302)
(6.57485e-19 -3.40231 2.82279)
(1.46807e-18 -3.86753 3.14912)
(1.5231e-18 -4.39383 3.47907)
(1.0352e-18 -4.95589 3.77317)
(-4.73875e-20 -5.49901 3.95274)
(-1.87452e-18 -5.92938 3.86861)
(-5.0078e-18 -6.0815 3.24559)
(-5.32595e-18 -5.4701 1.69211)
(6.41336e-18 -2.49521 -1.10708)
(6.36113e-18 2.34902 -2.00617)
(5.77182e-18 3.88588 -0.852902)
(-3.21025e-17 3.59619 0.644303)
(-3.8517e-16 7.91478 15.4745)
(-1.03246e-14 10.7963 16.4576)
(-1.1942e-14 9.04082 15.4214)
(-1.05997e-14 9.48293 14.2899)
(-9.34241e-15 8.97406 14.4033)
(-2.09389e-14 9.19894 14.4246)
(-2.09795e-14 9.00651 14.7244)
(-1.96074e-14 9.14477 14.8548)
(-1.9305e-14 9.02843 14.8926)
(-1.70402e-14 8.98821 14.9007)
(-1.77884e-14 8.96894 14.9207)
(-1.67048e-14 8.89148 14.9704)
(-1.84784e-14 8.99521 14.9091)
(-1.75653e-14 8.67398 15.0827)
(-1.85115e-14 9.19919 14.7699)
(-1.65824e-14 8.21435 15.2996)
(-1.57567e-14 9.63884 14.4894)
(-1.48108e-14 7.66046 15.7573)
(-1.65966e-14 10.2176 14.3675)
(-9.94147e-15 9.57277 20.2323)
(6.2852e-17 7.73062 15.4498)
(2.93659e-15 9.94726 15.1757)
(3.19481e-15 7.83444 15.264)
(2.42292e-15 9.0718 14.4697)
(2.59685e-15 8.22006 14.9464)
(-5.0811e-15 8.74798 14.5856)
(-5.91631e-15 8.47599 14.7244)
(-5.85248e-15 8.55857 14.5802)
(-5.81367e-15 8.51142 14.598)
(-4.93806e-15 8.51866 14.5934)
(-5.64791e-15 8.53213 14.5805)
(-4.92237e-15 8.47111 14.6112)
(-5.97654e-15 8.6155 14.5203)
(-5.60621e-15 8.28991 14.707)
(-5.50673e-15 8.89841 14.3501)
(-4.9611e-15 7.87331 14.9349)
(-5.24173e-15 9.42649 14.0499)
(-4.66535e-15 7.39616 15.4218)
(-5.26461e-15 9.3004 12.5661)
(-3.63004e-15 8.96781 19.2813)
(1.52775e-16 7.93907 16.2828)
(1.59989e-15 10.2967 15.3461)
(1.29171e-15 7.70014 15.2508)
(1.11182e-15 9.12408 14.2761)
(1.24037e-15 8.04191 14.9012)
(2.18647e-15 8.71649 14.5022)
(2.13445e-15 8.32009 14.7418)
(2.22717e-15 8.52934 14.6593)
(2.0336e-15 8.45383 14.7176)
(1.64851e-15 8.47706 14.7107)
(1.71989e-15 8.49071 14.712)
(1.75969e-15 8.4404 14.753)
(1.85474e-15 8.59329 14.6759)
(1.5247e-15 8.2701 14.8818)
(2.10052e-15 8.91508 14.5233)
(1.61837e-15 7.83682 15.1596)
(1.23286e-15 9.5147 14.2356)
(1.54012e-15 7.31745 15.7017)
(1.7826e-15 9.6499 13.1757)
(1.07468e-15 8.79776 19.0609)
(-4.66921e-17 8.11426 16.9224)
(-7.55214e-16 10.2023 14.91)
(-6.39806e-16 7.53777 15.2624)
(-5.79657e-16 9.19706 14.2312)
(-7.00368e-16 8.00876 14.8939)
(1.00644e-15 8.75394 14.4712)
(1.08939e-15 8.35463 14.7208)
(1.31118e-15 8.54995 14.5994)
(1.14117e-15 8.47388 14.6485)
(8.59287e-16 8.49847 14.6414)
(1.18528e-15 8.51047 14.6417)
(1.01633e-15 8.46376 14.6767)
(1.27075e-15 8.60202 14.6035)
(1.05069e-15 8.29874 14.7901)
(1.24671e-15 8.88998 14.4505)
(9.87436e-16 7.87736 15.033)
(9.98881e-16 9.4297 14.1602)
(1.08664e-15 7.35586 15.5091)
(1.05535e-15 9.57629 13.1985)
(8.2444e-16 8.71013 18.7591)
(4.37805e-18 8.26428 17.4388)
(-1.25619e-16 10.1676 14.6885)
(-9.37065e-17 7.50755 15.3437)
(-7.1551e-17 9.26786 14.2779)
(-8.41681e-17 8.00762 14.9667)
(-3.69805e-16 8.7878 14.516)
(-2.72711e-16 8.35504 14.7661)
(-3.58996e-16 8.56418 14.6434)
(-2.99431e-16 8.48107 14.6907)
(-2.08876e-16 8.50437 14.6765)
(-2.53029e-16 8.51235 14.6716)
(-2.52358e-16 8.46553 14.6994)
(-3.24452e-16 8.59485 14.624)
(-2.26708e-16 8.30278 14.7977)
(-3.64387e-16 8.86896 14.4698)
(-2.47788e-16 7.89912 15.0264)
(-1.8782e-16 9.39184 14.1951)
(-2.77558e-16 7.41209 15.4914)
(-3.58579e-16 9.49761 13.2053)
(-2.34984e-16 8.60453 18.421)
(3.4262e-19 8.37005 17.8161)
(1.57257e-16 10.1861 14.5841)
(1.25429e-16 7.46653 15.3528)
(1.07347e-16 9.29088 14.2523)
(1.33337e-16 7.98877 14.9618)
(-2.59007e-16 8.7912 14.5008)
(-2.61809e-16 8.34678 14.7572)
(-2.79405e-16 8.5585 14.6297)
(-2.73162e-16 8.47181 14.6768)
(-2.39753e-16 8.49453 14.6615)
(-2.89393e-16 8.50002 14.6565)
(-2.41953e-16 8.45498 14.682)
(-2.8709e-16 8.57751 14.6096)
(-2.64499e-16 8.29596 14.7763)
(-2.759e-16 8.84242 14.4574)
(-2.33692e-16 7.89934 14.9966)
(-2.58954e-16 9.35243 14.1853)
(-2.31722e-16 7.4157 15.445)
(-2.36356e-16 9.46071 13.2302)
(-1.69165e-16 8.52823 18.1988)
(-1.02399e-19 8.48109 18.1381)
(-5.42061e-17 10.2545 14.617)
(-4.33777e-17 7.47843 15.3798)
(-3.78511e-17 9.315 14.2726)
(-4.81402e-17 8.01985 14.9731)
(1.87921e-16 8.80519 14.5189)
(1.7066e-16 8.37322 14.7602)
(1.91704e-16 8.57193 14.637)
(1.79224e-16 8.48955 14.676)
(1.53031e-16 8.5071 14.6591)
(1.79158e-16 8.51019 14.6508)
(1.56578e-16 8.46574 14.6715)
(1.90819e-16 8.57768 14.6009)
(1.64728e-16 8.31096 14.7552)
(1.8932e-16 8.82275 14.4523)
(1.53305e-16 7.93248 14.9601)
(1.57892e-16 9.30045 14.1926)
(1.54002e-16 7.47711 15.3861)
(1.71557e-16 9.38025 13.2635)
(1.16881e-16 8.47424 17.8869)
(-1.49825e-21 8.6004 18.4187)
(1.13239e-17 10.3995 14.8196)
(9.09159e-18 7.52552 15.4058)
(8.0176e-18 9.32546 14.2954)
(1.04735e-17 8.07281 14.9743)
(-5.89988e-17 8.81611 14.5373)
(-5.16611e-17 8.41216 14.756)
(-5.92188e-17 8.58885 14.64)
(-5.42172e-17 8.51398 14.6685)
(-4.6338e-17 8.52446 14.65)
(-5.30611e-17 8.52464 14.638)
(-4.71608e-17 8.48064 14.6532)
(-5.85334e-17 8.57985 14.585)
(-4.92298e-17 8.33072 14.7252)
(-5.835e-17 8.80039 14.4417)
(-4.6734e-17 7.97321 14.9128)
(-4.69235e-17 9.23854 14.1967)
(-4.68435e-17 7.54855 15.3144)
(-5.41009e-17 9.28805 13.3046)
(-3.58702e-17 8.42485 17.5459)
(3.7948e-21 8.73893 18.7083)
(-1.6684e-18 10.6283 15.1693)
(-1.34487e-18 7.592 15.4682)
(-1.19401e-18 9.34545 14.3314)
(-1.61629e-18 8.14244 14.9892)
(1.17543e-17 8.83769 14.565)
(1.01578e-17 8.46625 14.7556)
(1.18042e-17 8.61702 14.6435)
(1.06321e-17 8.55013 14.6573)
(9.14218e-18 8.55206 14.634)
(1.02766e-17 8.5478 14.615)
(9.24706e-18 8.50363 14.6214)
(1.16703e-17 8.58589 14.5542)
(9.65994e-18 8.35864 14.6743)
(1.16485e-17 8.77151 14.4147)
(9.30048e-18 8.02883 14.8356)
(9.18203e-18 9.15177 14.1874)
(9.28063e-18 7.64697 15.2022)
(1.09863e-17 9.15418 13.3441)
(7.12873e-18 8.37404 17.0912)
(-8.09006e-22 8.90914 19.0753)
(1.85733e-19 10.8958 15.5407)
(1.49654e-19 7.63782 15.6041)
(1.33445e-19 9.41058 14.4028)
(1.88608e-19 8.20927 15.0604)
(-1.66568e-18 8.88699 14.621)
(-1.4379e-18 8.52885 14.7869)
(-1.68882e-18 8.66097 14.6643)
(-1.49952e-18 8.59578 14.6593)
(-1.29876e-18 8.58925 14.6234)
(-1.43604e-18 8.57767 14.5925)
(-1.30725e-18 8.53272 14.5841)
(-1.67586e-18 8.59324 14.5146)
(-1.37393e-18 8.39264 14.6066)
(-1.67596e-18 8.73319 14.3737)
(-1.34075e-18 8.09767 14.728)
(-1.30477e-18 9.03529 14.1626)
(-1.33233e-18 7.77092 15.0415)
(-1.60766e-18 8.97417 13.3842)
(-1.02752e-18 8.29971 16.4657)
(9.91972e-23 9.11453 19.5588)
(-1.63742e-20 11.0307 15.6515)
(-1.30274e-20 7.62395 15.8305)
(-1.16445e-20 9.54805 14.5509)
(-1.71599e-20 8.24725 15.2331)
(1.7848e-19 8.97092 14.733)
(1.54175e-19 8.5804 14.8824)
(1.82762e-19 8.71067 14.7233)
(1.59998e-19 8.63307 14.6937)
(1.39538e-19 8.61873 14.6332)
(1.51944e-19 8.59579 14.5833)
(1.39865e-19 8.55055 14.5523)
(1.8191e-19 8.58455 14.4764)
(1.48413e-19 8.41871 14.5308)
(1.82485e-19 8.67144 14.3271)
(1.46874e-19 8.16965 14.5949)
(1.41022e-19 8.87652 14.1245)
(1.45537e-19 7.91475 14.8305)
(1.78073e-19 8.75093 13.4432)
(1.13545e-19 8.15809 15.5748)
(-7.86046e-24 9.31254 19.9584)
(1.18442e-21 10.7825 15.3126)
(9.16276e-22 7.62794 16.1048)
(8.20725e-22 9.7018 14.8147)
(1.24103e-21 8.25495 15.4977)
(-1.52307e-20 9.05881 14.9202)
(-1.30202e-20 8.58789 15.0539)
(-1.5596e-20 8.73037 14.8347)
(-1.34186e-20 8.62124 14.7763)
(-1.17742e-20 8.59927 14.6806)
(-1.26412e-20 8.5614 14.6083)
(-1.17419e-20 8.51992 14.5507)
(-1.54765e-20 8.5246 14.4706)
(-1.25671e-20 8.41031 14.4804)
(-1.55478e-20 8.5608 14.3152)
(-1.25905e-20 8.2271 14.4728)
(-1.19318e-20 8.66411 14.1151)
(-1.24334e-20 8.07999 14.6251)
(-1.52921e-20 8.53429 13.6106)
(-9.92265e-21 7.88822 14.348)
(-1.53729e-25 9.33183 19.555)
(-6.74352e-23 10.1864 15.0402)
(-5.13839e-23 7.84898 16.2354)
(-4.7703e-23 9.64576 15.1473)
(-6.74498e-23 8.28756 15.6909)
(1.08078e-21 9.03722 15.1292)
(9.0315e-22 8.52268 15.2153)
(1.10282e-21 8.65622 14.9553)
(9.25168e-22 8.51392 14.872)
(8.17495e-22 8.48447 14.7507)
(8.67206e-22 8.43631 14.6687)
(8.09293e-22 8.40785 14.5971)
(1.08127e-21 8.38902 14.5317)
(8.65693e-22 8.34992 14.5032)
(1.07933e-21 8.38979 14.4017)
(8.71252e-22 8.26506 14.4306)
(8.13157e-22 8.42335 14.2469)
(8.48704e-22 8.32448 14.5973)
(1.03388e-21 8.4439 14.077)
(6.96575e-22 7.44322 12.8046)
(6.82258e-26 8.99911 17.9592)
(2.99635e-24 9.67105 15.4078)
(2.32893e-24 8.21751 16.0764)
(2.3074e-24 9.27712 15.3826)
(1.56442e-24 8.36937 15.6283)
(-5.93045e-23 8.80012 15.2394)
(-4.90643e-23 8.41078 15.2209)
(-6.02802e-23 8.46225 15.0022)
(-4.95153e-23 8.33583 14.9061)
(-4.44587e-23 8.29938 14.8017)
(-4.66716e-23 8.26297 14.7388)
(-4.44731e-23 8.2553 14.6877)
(-6.00257e-23 8.23884 14.6637)
(-4.79194e-23 8.27388 14.6304)
(-6.08098e-23 8.23542 14.6148)
(-4.89672e-23 8.31728 14.5535)
(-4.5544e-23 8.3022 14.6687)
(-4.72614e-23 8.7604 15.0248)
(-5.61449e-23 8.63067 15.0091)
(-3.93829e-23 6.81351 11.1254)
(-5.31523e-27 8.40718 15.7953)
(-1.06367e-25 9.40085 16.0365)
(-8.5334e-26 8.47639 15.6846)
(-8.81916e-26 8.80918 15.3654)
(4.54849e-26 8.39791 15.3565)
(2.5743e-24 8.49102 15.165)
(2.11967e-24 8.29436 15.0768)
(2.59523e-24 8.26155 14.9513)
(2.08189e-24 8.19291 14.8738)
(1.8966e-24 8.16267 14.8251)
(1.96691e-24 8.15822 14.8061)
(1.92238e-24 8.17221 14.8059)
(2.58659e-24 8.18916 14.8316)
(2.0739e-24 8.2554 14.8411)
(2.6497e-24 8.22902 14.8904)
(2.1228e-24 8.41691 14.8754)
(1.98674e-24 8.48732 15.3428)
(2.10839e-24 9.31891 15.9621)
(2.53276e-24 9.08155 16.1866)
(1.76839e-24 6.05669 9.73068)
(2.25574e-28 7.82307 13.9198)
(3.09908e-27 9.28389 16.3162)
(2.52004e-27 8.56947 15.2805)
(2.58209e-27 8.5196 15.1543)
(-4.9321e-27 8.40808 15.0534)
(-9.07548e-26 8.34048 14.9746)
(-7.4021e-26 8.28023 14.8945)
(-9.00001e-26 8.2282 14.849)
(-7.05633e-26 8.21355 14.8164)
(-6.49428e-26 8.20479 14.8229)
(-6.65837e-26 8.22646 14.8487)
(-6.65049e-26 8.25601 14.8965)
(-8.87658e-26 8.30127 14.9633)
(-7.15694e-26 8.36362 15.0325)
(-9.15096e-26 8.39654 15.1251)
(-7.30725e-26 8.58123 15.257)
(-6.97658e-26 8.85805 15.9195)
(-7.56157e-26 9.654 16.8705)
(-9.33255e-26 9.48948 16.9905)
(-5.93095e-26 5.5425 9.42852)
(-5.75285e-30 7.60186 13.1379)
(-7.52122e-29 9.22914 16.0648)
(-6.04543e-29 8.62155 15.0855)
(-5.99092e-29 8.55597 14.9769)
(1.87743e-28 8.51676 14.9233)
(2.68693e-27 8.46859 14.8672)
(2.16575e-27 8.4557 14.8292)
(2.64236e-27 8.43456 14.813)
(2.03288e-27 8.44262 14.8089)
(1.88525e-27 8.45088 14.8283)
(1.91733e-27 8.47455 14.8613)
(1.94046e-27 8.50043 14.9135)
(2.59385e-27 8.54371 14.9805)
(2.08584e-27 8.57894 15.072)
(2.68054e-27 8.64574 15.171)
(2.12749e-27 8.73935 15.369)
(2.0569e-27 9.03628 15.8676)
(2.23906e-27 9.46301 16.7983)
(2.68886e-27 9.63247 17.1672)
(1.39247e-27 6.03984 10.9798)
(1.0332e-31 7.87784 13.5677)
(1.41563e-30 9.19921 15.7142)
(1.14413e-30 8.67866 15.0792)
(1.08859e-30 8.72382 14.9688)
(-4.55932e-30 8.66472 14.9816)
(-6.43637e-29 8.68213 14.9326)
(-5.12935e-29 8.66718 14.9213)
(-6.27425e-29 8.67428 14.9017)
(-4.74301e-29 8.67866 14.8953)
(-4.39733e-29 8.68841 14.8935)
(-4.43094e-29 8.70002 14.8993)
(-4.51874e-29 8.71107 14.9174)
(-6.10314e-29 8.73546 14.9425)
(-4.92187e-29 8.73997 14.9968)
(-6.4233e-29 8.79245 15.0438)
(-5.13705e-29 8.7882 15.1636)
(-5.06985e-29 8.90282 15.2826)
(-5.54542e-29 8.91473 15.6541)
(-6.32098e-29 9.39322 16.5476)
(-2.59741e-29 7.45812 13.5152)
(-1.39804e-33 8.35871 14.38)
(-2.00491e-32 9.00609 15.4006)
(-1.62808e-32 8.69088 15.0519)
(-1.44949e-32 8.73941 15.0162)
(8.66564e-32 8.70841 15.032)
(1.20463e-30 8.72624 15.0201)
(9.53623e-31 8.71868 15.0184)
(1.17404e-30 8.72513 15.0093)
(8.75304e-31 8.72568 15.0029)
(8.12524e-31 8.72933 14.995)
(8.12418e-31 8.73253 14.9879)
(8.315e-31 8.73511 14.9838)
(1.13103e-30 8.74176 14.9799)
(9.09217e-31 8.73912 14.9862)
(1.1965e-30 8.75059 14.9852)
(9.55884e-31 8.73631 15.0021)
(9.41645e-31 8.72228 14.9673)
(1.05123e-30 8.62533 14.8846)
(1.21524e-30 8.77511 15.2626)
(4.06478e-31 8.49735 14.913)
(1.35944e-35 8.64395 14.8654)
(2.01387e-34 8.74229 15.0711)
(1.62698e-34 8.68733 15.0014)
(1.28369e-34 8.68815 15.0118)
(-1.24554e-33 8.69035 15.0111)
(-1.69818e-32 8.68744 15.0172)
(-1.33722e-32 8.68788 15.0192)
(-1.66874e-32 8.68614 15.0223)
(-1.23074e-32 8.68504 15.0236)
(-1.14982e-32 8.68341 15.0245)
(-1.14598e-32 8.68176 15.0244)
(-1.17731e-32 8.68002 15.0233)
(-1.61335e-32 8.67729 15.0213)
(-1.28292e-32 8.67563 15.0177)
(-1.69893e-32 8.66921 15.014)
(-1.33675e-32 8.66851 15.0052)
(-1.30935e-32 8.65379 14.999)
(-1.46819e-32 8.6612 14.9787)
(-1.7228e-32 8.57845 14.8749)
(-4.83734e-33 8.66388 14.952)
(-1.18241e-35 -2.60549 17.0591)
(-8.80951e-35 -8.01105 13.6986)
(-4.32781e-35 -5.12127 14.5165)
(1.50936e-35 -4.91332 14.0936)
(2.7901e-34 -3.9809 14.0363)
(1.28909e-33 -3.42439 13.8467)
(1.02628e-33 -2.85197 13.6822)
(7.93372e-34 -2.3972 13.4892)
(7.49906e-34 -2.00339 13.2863)
(5.6534e-34 -1.68716 13.0602)
(4.5422e-34 -1.43739 12.8085)
(4.05643e-34 -1.25531 12.5221)
(3.9024e-34 -1.13697 12.1935)
(4.12131e-34 -1.08927 11.817)
(5.11037e-34 -1.13561 11.4032)
(5.04352e-34 -1.2658 11.0079)
(2.31905e-35 -1.4765 10.6272)
(-1.73703e-33 -1.92315 9.90152)
(-1.11955e-32 -1.89396 8.36136)
(-1.67767e-31 0.512197 5.46817)
(3.74397e-34 -10.9836 28.8499)
(1.20908e-32 -17.3175 24.6966)
(7.63585e-33 -12.0224 25.339)
(4.59965e-33 -12.9365 23.4252)
(-1.06511e-32 -11.1515 22.6493)
(-2.041e-31 -10.6224 21.4976)
(-1.85998e-31 -9.71108 20.5817)
(-1.48823e-31 -9.0537 19.6189)
(-1.52989e-31 -8.38701 18.7047)
(-1.21962e-31 -7.79938 17.7777)
(-9.98616e-32 -7.24475 16.8448)
(-9.04701e-32 -6.72668 15.884)
(-8.76796e-32 -6.22714 14.8799)
(-9.01786e-32 -5.73401 13.8132)
(-1.17541e-31 -5.25244 12.6916)
(-1.44e-31 -4.82966 11.5825)
(-1.73057e-31 -4.37532 10.3561)
(-4.07838e-31 -2.93777 7.38535)
(-2.70913e-30 1.39786 -0.571801)
(-2.99577e-29 3.65556 -7.38012)
(-8.88203e-33 -12.9655 29.4879)
(-8.72493e-31 -18.4541 26.1607)
(-5.98952e-31 -12.8063 26.5963)
(-4.22195e-31 -14.718 23.638)
(-8.48431e-31 -12.3534 22.9298)
(1.444e-29 -12.29 21.1167)
(1.5323e-29 -11.287 19.9317)
(1.26688e-29 -10.7421 18.574)
(1.38817e-29 -10.107 17.3438)
(1.17182e-29 -9.54384 16.1231)
(9.76923e-30 -8.99261 14.9332)
(8.94424e-30 -8.45161 13.7577)
(8.78833e-30 -7.90971 12.5828)
(8.71405e-30 -7.33666 11.3962)
(1.1369e-29 -6.74018 10.1624)
(1.41717e-29 -6.09148 8.9096)
(1.33082e-29 -5.42171 7.61312)
(1.81481e-29 -4.52375 5.8939)