/*--------------------------------*- C++ -*----------------------------------*\
| =========                 |                                                 |
| \\      /  F ield         | OpenFOAM: The Open Source CFD Toolbox           |
|  \\    /   O peration     | Version:  4.1                                   |
|   \\  /    A nd           | Web:      www.OpenFOAM.org                      |
|    \\/     M anipulation  |                                                 |
\*---------------------------------------------------------------------------*/
FoamFile
{
    version     2.0;
    format      ascii;
    class       volScalarField;
    location    "6";
    object      p;
}
// * * * * * * * * * * * * * * * * * * * * * * * * * * * * * * * * * * * * * //

dimensions      [0 2 -2 0 0 0 0];

internalField   nonuniform List<scalar> 
1280
(
-4.50721
-0.327127
-0.914331
-1.88482
-1.14136
-1.19952
-1.63551
-1.6294
-1.33689
-1.39905
-1.99524
-1.62639
-1.75925
-2.62826
-2.30346
-2.89488
-4.09422
-3.94834
-3.77312
-8.30758
-4.15183
2.43985
7.53733
9.01918
10.7805
15.0765
-0.744808
8.99335
8.6709
10.264
11.4667
12.4995
13.7701
14.9973
16.4115
17.5089
19.3529
19.9627
24.9327
20.6019
-51.2937
-14.4266
-5.62055
-3.21
4.44191
4.92409
5.28002
5.67311
5.41695
6.06771
6.13477
5.59828
5.3366
5.31038
5.2175
5.26769
-2.9605
-6.44746
-12.3784
-30.9754
-4.71996
0.530106
1.87994
4.27562
5.74905
7.37702
8.71589
9.97328
11.0022
11.7404
12.3832
12.8035
11.5002
3.16652
24.5386
22.2481
22.0304
14.7247
-6.3886
-20.8806
-21.43
-16.1288
-10.5851
-11.2722
-8.15185
-6.14467
-6.56904
-4.83917
-4.00661
-4.39559
-3.34351
-2.93965
-3.19672
-3.06243
-2.41197
-2.23832
-2.94793
-1.65042
-1.03599
-5.78842
1958.76
-764.777
-210.929
-49.3257
-13.3237
-20.934
-3.4177
0.981685
3.13657
0.216754
-2.74967
-4.23061
-1.00083
1.01128
0.0699458
-0.957149
-1.66579
-1.64252
-2.25894
-463.736
-173.11
60.7828
-15.6873
-0.703343
-6.43493
1.59426
0.588302
-0.384899
-1.43786
-4.0986
-2.39905
-0.309201
0.169839
-0.344368
-0.970149
-1.11466
-1.00538
-1.51885
361.924
-260.406
111.991
-14.5445
8.88952
3.8158
3.35873
1.68318
0.996574
-4.31018
-7.37559
-1.65941
1.20306
0.491576
-0.985684
-1.78157
-0.927459
-0.553353
-0.851769
72.0484
-135.688
49.9923
-26.223
7.5492
0.101718
3.41398
2.18485
0.332924
-10.3059
-14.0336
-3.45322
3.80944
2.13061
-2.59701
-3.5279
-1.27268
-0.653357
-1.032
222.905
-135.701
41.8774
-27.2493
7.70911
1.09857
6.74618
3.6982
0.912342
-15.5143
-17.8651
-4.15616
7.78808
4.74804
-5.20563
-6.96776
-1.81828
-0.576439
-1.33155
193.777
-109.907
32.9699
-25.6077
8.60865
4.46996
11.9399
6.09957
1.94517
-17.9928
-18.3918
-3.44166
11.4093
6.17995
-7.58779
-9.32802
-1.77564
0.692026
-1.16195
238.823
-111.023
32.1512
-25.9787
8.56725
6.77871
16.945
8.99287
3.74671
-17.2528
-17.456
-3.4972
13.5077
7.3498
-8.64026
-9.28788
-2.16813
0.500233
-2.50468
247.572
-107.454
32.4211
-24.9766
8.63436
8.66521
20.116
11.0899
5.54434
-15.2824
-17.0017
-4.65724
13.426
9.38996
-6.79304
-8.42294
-0.347978
4.30123
-1.52158
261.428
-109.974
36.3097
-24.212
9.12111
9.98999
20.5955
11.5829
7.02853
-11.3345
-15.9285
-6.46678
10.1886
8.64729
-2.69526
-5.06948
1.50418
17.6168
21.4626
261.091
-108.926
38.6058
-23.3318
9.94729
10.8462
20.154
11.5872
8.38742
-6.84151
-14.3103
-8.76378
4.89696
6.34374
0.321975
-1.24759
7.15024
29.9117
18.4654
256.169
-105.955
37.561
-23.9683
9.56818
10.5803
20.1407
11.8786
9.39506
-4.08327
-14.0009
-10.5671
1.4262
4.70425
1.48707
0.305891
6.34936
27.9673
17.105
241.346
-100.467
32.8047
-25.8361
8.12171
9.32772
20.6069
12.4712
10.0442
-3.9211
-17.2587
-15.014
-2.28617
5.92514
4.29822
0.805224
0.808618
13.1544
23.2061
216.991
-94.5647
27.3629
-27.338
7.22597
7.98933
20.385
12.7289
10.0074
-5.34806
-20.2301
-16.7602
-2.59409
4.45469
1.81237
0.623548
1.07674
0.769319
-1.69598
201.69
-94.3353
26.205
-28.6833
6.96856
6.46639
18.0114
11.6311
8.58908
-7.4456
-21.5842
-19.3406
-4.16286
2.56134
0.603044
0.0476236
-0.178121
-1.87148
-3.24073
164.044
-94.2888
27.0846
-28.5503
7.13424
4.66413
13.6829
9.03322
5.98841
-9.5614
-20.9854
-20.7395
-4.60681
0.97627
-0.133588
-0.222603
0.0940291
-0.0403769
-0.0303798
194.623
-111.778
35.984
-29.6981
6.56835
1.85765
8.65345
6.01671
3.72924
-10.1147
-19.2155
-20.8802
-5.07646
-0.36507
-0.55918
-0.276836
0.0933435
-0.294382
-1.05362
79.8256
-115.691
42.7289
-29.1537
6.79666
0.918289
4.56075
2.97702
1.06609
-9.52018
-16.8213
-18.6833
-4.39544
-0.979748
-0.714908
-0.237142
0.0701076
-0.10744
-0.4096
333.753
-220.148
95.1966
-20.4279
8.96793
4.28223
2.99912
2.47911
2.56357
-5.19832
-12.3743
-12.6193
-1.72297
-0.340183
-0.371654
-0.0831788
0.052172
-0.0838533
-0.398984
-314.187
-144.818
53.3816
-20.0554
-0.507903
-2.99741
0.51016
-1.41766
-1.77849
-3.20931
-7.46654
-10.4255
-4.92948
-2.31354
-1.27305
-0.587
-0.33565
-0.425665
-0.92881
1526.3
-646.521
-153.06
-47.2195
-13.0133
-13.8905
0.988634
6.45458
7.45967
3.84197
-2.19838
-10.3539
-10.1959
-5.18265
-2.84602
-1.5395
-0.945117
-0.929109
-1.66884
96.7128
95.8119
95.1002
94.2777
93.3605
92.3442
91.3923
90.3269
89.0991
87.9563
86.9058
85.9128
85.0029
84.1724
83.4324
82.7704
82.2243
81.6982
81.4639
80.8472
77.9634
78.4247
78.5823
78.7911
78.9608
79.0502
79.1316
79.1118
79.0837
78.9933
78.8912
78.7578
78.6167
78.4599
78.3036
78.1466
77.9953
77.8573
77.6995
77.5798
84.6559
84.4364
84.3456
84.1738
84.0556
83.8949
83.7569
83.5984
83.4458
83.2776
83.114
82.9378
82.7677
82.5876
82.4159
82.2374
82.0689
81.8944
81.7262
81.53
82.0789
82.0781
82.0918
82.0669
82.0711
82.0347
82.018
81.9722
81.9359
81.8792
81.8261
81.7569
81.6909
81.6089
81.5338
81.4418
81.3586
81.2631
81.1436
81.0585
83.983
83.8568
83.8216
83.7206
83.6659
83.5741
83.5054
83.4157
83.3365
83.244
83.1563
83.0574
82.9629
82.8542
82.7551
82.634
82.5319
82.3984
82.2599
82.1137
84.4574
84.3689
84.3488
84.2749
84.2389
84.1712
84.1232
84.057
83.9997
83.9311
83.8663
83.7921
83.7213
83.6379
83.5637
83.466
83.3927
83.2754
83.1828
83.0323
85.6322
85.5368
85.513
85.4378
85.3992
85.3341
85.2874
85.2269
85.1752
85.1157
85.0605
84.9994
84.9421
84.876
84.8194
84.7424
84.693
84.5939
84.5582
84.413
86.44
86.3658
86.3495
86.2906
86.2624
86.2129
86.1795
86.135
86.099
86.0573
86.0201
85.9795
85.9426
85.9005
85.8669
85.8183
85.7951
85.727
85.7351
85.6321
87.2405
87.1747
87.1601
87.1082
87.0837
87.0411
87.013
86.9759
86.9467
86.9135
86.8845
86.854
86.8269
86.7973
86.7746
86.7424
86.7301
86.6846
86.7032
86.6427
87.8931
87.8351
87.8215
87.7757
87.754
87.7162
87.6913
87.6586
87.6328
87.6039
87.5785
87.5524
87.5289
87.5044
87.4849
87.4595
87.4483
87.4154
87.4252
87.3905
88.4915
88.4367
88.4226
88.3794
88.3581
88.3218
88.2974
88.2657
88.24
88.2116
88.1859
88.16
88.1356
88.111
88.0898
88.0644
88.0496
88.0193
88.0177
87.9874
89.0315
88.9793
88.965
88.9239
88.9029
88.8679
88.8436
88.8125
88.7867
88.7584
88.732
88.7058
88.6799
88.6546
88.631
88.6044
88.5862
88.5545
88.5465
88.5107
89.5375
89.4875
89.4731
89.4338
89.4131
89.3792
89.3552
89.3248
89.299
89.2711
89.2444
89.2183
89.1914
89.1661
89.1407
89.1138
89.0932
89.0608
89.0498
89.0085
90.0147
89.9673
89.953
89.9156
89.8953
89.8627
89.8394
89.8099
89.7846
89.7575
89.731
89.7056
89.6785
89.654
89.6276
89.602
89.5796
89.5482
89.5356
89.4923
90.4675
90.4234
90.4095
90.3743
90.3551
90.3241
90.3019
90.2739
90.2496
90.2236
90.1981
90.1736
90.1471
90.124
90.0971
90.0736
90.0498
90.0209
90.0068
89.9643
90.8868
90.8461
90.8327
90.8001
90.7826
90.7535
90.7332
90.7075
90.6849
90.6612
90.6377
90.6152
90.5906
90.5697
90.5436
90.5236
90.4988
90.474
90.4585
90.4193
91.2817
91.2444
91.2297
91.1975
91.1813
91.1528
91.1327
91.1084
91.0864
91.0639
91.0416
91.0201
90.9975
90.9782
90.9537
90.9378
90.9122
90.894
90.8782
90.8441
91.6812
91.6538
91.6425
91.6101
91.5971
91.5716
91.5519
91.5294
91.5072
91.4843
91.4608
91.4369
91.4118
91.3879
91.3597
91.3395
91.3054
91.2903
91.2642
91.2266
91.9552
91.9461
91.9612
91.9406
91.9408
91.9335
91.9288
91.9235
91.9179
91.9115
91.9038
91.8944
91.8824
91.8676
91.8473
91.8264
91.7878
91.7665
91.6946
91.6377
91.9206
91.8623
91.9004
91.9111
91.9287
91.9464
91.9653
91.986
92.0086
92.0337
92.0615
92.0926
92.1273
92.1661
92.2096
92.2587
92.3114
92.38
92.4213
92.5845
719.1
636.496
587.344
531.086
482.019
434.631
390.529
348.832
309.558
272.426
237.277
203.924
172.2
142.135
113.903
86.7574
60.9664
40.5502
16.6591
-20.6547
32.8939
10.0182
18.0163
6.70581
3.84602
-2.96037
-8.00369
-13.3543
-17.9519
-22.011
-25.2842
-27.7104
-29.1667
-29.55
-28.7445
-26.5263
-23.2049
-20.0376
-17.6223
-16.5844
6.58336
-1.41497
6.14387
-1.68877
-0.555285
-4.87892
-7.16391
-10.8119
-14.2106
-17.9764
-21.7756
-25.6932
-29.5805
-33.2424
-36.3458
-38.3887
-38.8401
-38.7833
-39.4522
-38.2439
-5.32228
-9.97676
-7.9099
-14.6678
-14.3828
-19.2287
-21.1697
-24.5249
-27.0417
-29.643
-31.8937
-33.8947
-35.5312
-36.653
-37.0491
-36.318
-34.5657
-32.0548
-30.4966
-27.1963
-10.027
-11.546
-7.65256
-10.396
-6.36886
-7.34622
-4.92797
-4.00272
-2.19562
-0.445403
1.52452
3.64421
5.89962
8.30976
10.8378
13.5801
16.3255
19.2822
21.6982
25.2998
23.0791
23.8312
27.7378
26.6307
30.7333
30.7312
33.4152
34.6443
36.4378
37.9873
39.5156
41.0335
42.5754
44.2177
45.9853
47.8818
49.7701
51.7339
53.289
55.0535
43.422
44.9649
47.689
47.2851
50.5172
50.7236
53.2568
54.5209
56.5186
58.1162
59.6896
60.8804
61.5576
61.4425
60.4485
58.7028
57.0673
56.0731
56.4341
56.4909
69.1969
68.5629
70.0033
68.5342
70.3054
69.0516
69.8258
68.6501
67.9378
66.0586
63.7764
60.5802
56.6401
52.0208
47.2387
42.8109
39.3174
37.497
37.052
33.7217
31.1346
25.5049
24.6423
19.9591
18.2538
14.0756
11.5756
7.84308
5.00572
1.88302
-0.65235
-3.05017
-5.05824
-6.85571
-8.30546
-9.54473
-10.6626
-11.2104
-12.7875
-17.2292
-28.8043
-35.4579
-36.9196
-41.787
-44.3
-49.0034
-52.5376
-57.3369
-61.613
-66.2649
-70.5333
-74.6458
-78.2574
-81.2289
-83.2047
-84.3165
-84.5776
-83.7879
-83.4157
-81.3453
-59.0379
-62.1591
-62.2702
-65.0264
-65.5974
-68.0734
-69.2639
-71.356
-72.7329
-74.0083
-74.574
-74.5134
-73.6627
-72.0323
-69.6721
-66.7561
-63.7438
-60.7217
-58.2606
-53.945
-38.5721
-37.2638
-35.4089
-34.891
-32.8637
-31.8747
-29.9674
-28.3804
-26.4135
-24.3718
-22.1513
-19.8052
-17.3763
-14.9074
-12.4825
-10.1142
-7.86026
-5.51587
-3.40232
-0.553808
-11.6276
-9.30256
-7.10099
-5.54069
-3.38729
-1.87809
0.0810993
1.78178
3.57583
5.28743
6.93861
8.50952
9.97291
11.3322
12.5638
13.692
14.6727
15.5942
16.2776
17.0291
6.51544
8.20782
9.5913
10.7426
12.059
12.9583
14.1143
15.0206
15.9785
16.8187
17.6045
18.3141
18.9434
19.5088
19.99
20.4272
20.7653
21.0969
21.2777
21.5262
16.8018
17.7419
18.2172
18.7411
19.3328
19.6701
20.2085
20.5312
20.9451
21.2464
21.549
21.8008
22.0163
22.2108
22.3534
22.504
22.5829
22.7172
22.7422
22.9096
22.936
23.2973
23.2463
23.3321
23.5092
23.5084
23.6991
23.7039
23.8404
23.8734
23.9573
24.0073
24.0569
24.1161
24.1443
24.221
24.2341
24.3546
24.3574
24.5604
24.5103
24.8504
24.7131
24.7188
24.8641
24.8373
25.0069
24.9898
25.1304
25.1637
25.2769
25.3598
25.4632
25.5895
25.6964
25.8712
25.982
26.2225
26.3254
26.6347
32.7356
32.7583
32.3371
32.0209
31.9226
31.6083
31.5284
31.2638
31.1743
30.9958
30.9143
30.8251
30.7786
30.7757
30.7788
30.8641
30.9134
31.0896
31.173
31.4062
28.6444
29.7689
29.6759
29.7371
30.0566
30.2208
30.5713
30.6459
30.8142
30.8244
30.8727
30.8781
30.8932
30.9316
30.9675
31.0734
31.1456
31.3446
31.4302
31.7147
61.7502
61.8362
61.1689
59.9324
58.2964
56.246
53.9379
51.4775
49.2288
47.1499
45.3007
43.6545
42.2233
41.0083
39.9694
39.1398
38.4427
37.9303
37.5503
37.1913
)
;

boundaryField
{
    outletWall
    {
        type            fixedValue;
        value           uniform 0;
    }
    fineWalls
    {
        type            zeroGradient;
    }
    fineFrontAndBack
    {
        type            zeroGradient;
    }
    fineplugLeft
    {
        type            cyclicAMI;
        value           nonuniform List<scalar> 
20
(
68.7982
70.1577
69.3511
69.6501
69.7181
70.0282
70.3374
70.7563
71.2302
71.8179
72.4179
73.0134
74.0602
80.9155
76.8906
76.8445
77.226
77.5876
77.1375
76.5398
)
;
    }
    fineplugRight
    {
        type            cyclicAMI;
        value           nonuniform List<scalar> 
20
(
28.809
30.1463
30.7203
31.6093
32.4616
33.4509
34.5498
35.7733
37.124
38.5886
40.1966
41.9437
43.482
48.1648
49.9045
51.0868
52.352
51.88
48.1912
45.224
)
;
    }
    inletOutletLeft
    {
        type            cyclicAMI;
        value           nonuniform List<scalar> 
20
(
68.7982
70.1577
69.3511
69.6501
69.7181
70.0282
70.3374
70.7563
71.2302
71.8179
72.4179
73.0134
74.0602
80.9155
76.8906
76.8445
77.226
77.5876
77.1375
76.5398
)
;
    }
    inletLeft
    {
        type            zeroGradient;
    }
    inletWallsLeft
    {
        type            zeroGradient;
    }
    inletFacesLeft
    {
        type            zeroGradient;
    }
    inletOutletRight
    {
        type            cyclicAMI;
        value           nonuniform List<scalar> 
20
(
28.809
30.1463
30.7203
31.6093
32.4616
33.4509
34.5498
35.7733
37.124
38.5886
40.1966
41.9437
43.482
48.1648
49.9045
51.0868
52.352
51.88
48.1912
45.224
)
;
    }
    inletRight
    {
        type            zeroGradient;
    }
    inletWallsRight
    {
        type            zeroGradient;
    }
    inletFacesRight
    {
        type            zeroGradient;
    }
}


// ************************************************************************* //
