/*--------------------------------*- C++ -*----------------------------------*\
| =========                 |                                                 |
| \\      /  F ield         | OpenFOAM: The Open Source CFD Toolbox           |
|  \\    /   O peration     | Version:  4.1                                   |
|   \\  /    A nd           | Web:      www.OpenFOAM.org                      |
|    \\/     M anipulation  |                                                 |
\*---------------------------------------------------------------------------*/
FoamFile
{
    version     2.0;
    format      ascii;
    class       volVectorField;
    location    "6";
    object      U;
}
// * * * * * * * * * * * * * * * * * * * * * * * * * * * * * * * * * * * * * //

dimensions      [0 1 -1 0 0 0 0];

internalField   nonuniform List<vector> 
1280
(
(-3.65691e-19 1.93709 -0.0403803)
(-1.23616e-19 1.18742 -0.210505)
(4.54372e-18 0.95231 -0.241365)
(3.32153e-18 1.19556 -0.247813)
(-2.11922e-18 1.34436 -0.374196)
(-3.1444e-17 1.06153 -0.314082)
(-4.92078e-18 1.23185 -0.321864)
(-1.38141e-16 1.1996 -0.302785)
(6.99411e-17 1.45292 -0.521419)
(1.67463e-16 1.25831 -0.445733)
(2.56001e-16 1.36255 -0.416516)
(-2.18429e-16 1.68928 -0.729986)
(-2.63207e-16 1.46786 -0.615545)
(-2.59722e-16 1.61591 -0.573601)
(-9.36093e-16 1.98933 -0.978946)
(-8.44002e-16 1.78732 -0.826084)
(-8.47613e-16 2.00475 -0.702501)
(-9.45141e-16 2.24621 -1.65033)
(-5.97412e-16 2.64745 -0.739822)
(-9.70083e-16 1.94248 -2.66859)
(-2.02098e-16 2.54334 1.09309)
(-1.94625e-15 2.69295 4.25913)
(-2.31561e-15 2.48282 5.77288)
(-2.53295e-15 2.73703 6.85459)
(-2.62274e-15 2.62083 7.64633)
(-3.36676e-15 2.95375 8.65381)
(-2.79226e-15 1.92615 7.32517)
(-3.91083e-15 5.70389 12.5246)
(-4.0127e-15 5.9856 13.0375)
(-4.08041e-15 6.05436 13.4987)
(-4.0565e-15 6.13855 13.8942)
(-4.11487e-15 6.21516 14.2427)
(-4.16625e-15 6.2719 14.5552)
(-4.06027e-15 6.30095 14.8339)
(-4.02137e-15 6.35028 15.0805)
(-4.01864e-15 6.32853 15.279)
(-3.92122e-15 6.41514 15.4674)
(-3.96256e-15 6.25808 15.5754)
(-3.63465e-15 6.6232 16.3085)
(-4.57313e-15 6.21639 14.6997)
(-4.25197e-15 10.1077 15.5087)
(-2.83821e-15 4.49495 10.9674)
(-2.92437e-15 2.76851 10.6451)
(-3.56379e-15 2.0838 10.9292)
(-2.16361e-15 -0.596611 6.42169)
(7.1686e-16 -0.988813 -5.51115)
(-1.79982e-15 -0.407988 -4.19392)
(-2.52364e-15 0.1053 -4.57111)
(-3.94145e-15 0.192277 -5.04314)
(-4.41913e-15 -0.556315 -3.45009)
(-2.43719e-15 0.108308 -3.85616)
(-2.36304e-15 -0.735438 -4.81113)
(-1.74486e-15 -0.252192 -4.10935)
(-1.99761e-15 0.110307 -3.64554)
(-2.24814e-15 0.432505 -4.85772)
(-1.29453e-15 -0.377883 6.74025)
(-6.6877e-16 -2.57288 9.75442)
(-4.06385e-16 -3.441 9.55401)
(-5.31221e-17 -4.73333 9.85086)
(1.59584e-15 -8.8957 14.0367)
(3.66168e-15 -7.04794 12.5592)
(2.72566e-15 -7.35483 13.23)
(3.03096e-15 -7.32764 13.2188)
(2.90652e-15 -7.46614 13.3258)
(2.85634e-15 -7.50673 13.3293)
(2.75709e-15 -7.57294 13.3537)
(2.61081e-15 -7.60789 13.391)
(2.43402e-15 -7.6374 13.4734)
(2.22815e-15 -7.6542 13.6017)
(1.99008e-15 -7.66584 13.7697)
(1.74049e-15 -7.65487 13.9518)
(1.48697e-15 -7.61355 14.1041)
(1.25681e-15 -7.60632 14.1067)
(3.48016e-16 -3.51056 9.25587)
(6.4379e-16 -4.63051 11.2986)
(2.85512e-16 -4.22905 11.0158)
(1.5061e-16 -4.05082 10.515)
(-6.14987e-17 -3.77531 8.9813)
(-3.199e-16 -4.13282 5.10792)
(-8.45035e-16 -3.764 -1.0261)
(-5.68448e-16 -4.00141 -2.75163)
(-7.54379e-16 -3.62439 -1.79254)
(-1.07722e-15 -3.73319 -2.63757)
(-1.21601e-15 -2.87642 -1.063)
(-1.29372e-15 -2.62788 -1.30378)
(-1.56064e-15 -2.77064 -1.57225)
(-9.33986e-16 -2.19998 -0.784578)
(-1.04261e-15 -2.01181 -0.912316)
(-1.01299e-15 -2.20239 -1.11234)
(-5.57937e-16 -1.73854 -0.561738)
(-8.67858e-16 -1.60921 -0.644419)
(-1.01145e-15 -1.79469 -0.766935)
(-3.16634e-18 -1.4332 -0.388714)
(7.55558e-17 -1.47175 -0.425598)
(8.15646e-17 -1.27156 -0.405787)
(1.48084e-16 -1.60166 -0.46668)
(1.45713e-16 -1.36662 -0.27068)
(1.75743e-16 -1.12639 -0.270783)
(1.72266e-16 -1.41727 -0.233107)
(-1.65869e-17 -2.18233 -0.0364154)
(-2.55002e-13 122.798 126.312)
(4.14805e-14 -33.0255 -33.039)
(3.01219e-14 -21.633 -7.54199)
(7.54829e-16 -6.7103 2.73233)
(-2.9444e-17 -2.90887 1.73576)
(1.25777e-17 -3.92228 0.458656)
(8.62e-19 -1.46198 2.11738)
(-5.97971e-17 0.893244 3.32367)
(-1.09189e-16 2.45226 2.89163)
(-3.78701e-17 0.800129 -0.738998)
(-6.58212e-17 -1.41013 -1.0213)
(-1.29131e-17 -1.82625 -0.151468)
(3.35982e-18 -0.635939 0.953909)
(-2.95252e-17 1.19282 1.52321)
(-4.08577e-17 0.375778 -0.389016)
(2.4608e-19 -0.905704 -0.395606)
(1.66375e-18 -1.14559 -0.15913)
(-3.14316e-19 -1.09521 -0.0813774)
(2.34933e-18 -1.29851 0.123684)
(-2.04464e-14 -48.2104 -8.15527)
(1.21187e-14 28.8786 18.9863)
(1.62041e-14 -13.3514 1.35697)
(8.99348e-16 -7.08505 -2.42635)
(2.43726e-16 -1.71817 1.68917)
(-2.46633e-17 -3.48386 0.958005)
(-3.80893e-18 -1.16024 3.14434)
(-1.78815e-17 0.21475 2.05753)
(7.56708e-17 1.31593 0.416564)
(4.94103e-16 0.947821 -1.27988)
(2.16942e-16 -1.253 -1.8659)
(-3.78631e-17 -1.94498 -0.910368)
(-2.02526e-17 -0.835235 0.781506)
(-5.63813e-17 0.869258 0.328432)
(-1.1282e-17 0.485632 -0.869583)
(-2.56517e-17 -0.707332 -0.918358)
(-5.46692e-18 -1.03096 -0.554445)
(1.28652e-18 -1.01375 -0.331018)
(-7.92464e-18 -1.18573 -0.0143286)
(-9.44504e-14 38.611 29.6457)
(2.53186e-14 -7.17642 -10.6522)
(-9.57035e-16 -3.28129 14.2423)
(1.8926e-15 -4.44098 -7.18086)
(8.7265e-16 -2.22458 0.225404)
(-1.38473e-16 -3.19906 0.56244)
(-7.33699e-17 -0.980321 2.68033)
(1.85683e-17 1.22814 1.12384)
(4.98949e-16 2.67796 -0.206061)
(1.68217e-15 1.67122 -1.76423)
(1.29875e-15 -1.2857 -2.18694)
(2.46884e-16 -2.17538 -1.42723)
(-9.40674e-17 -0.948228 0.0433374)
(-5.3088e-17 1.2945 -0.567405)
(8.42402e-17 0.780602 -1.45423)
(1.6493e-17 -0.666811 -1.27808)
(-8.43798e-18 -0.921665 -0.72784)
(-1.56456e-19 -0.834467 -0.505774)
(3.11076e-17 -0.750133 -0.489739)
(-7.37569e-14 -2.61433 17.9633)
(2.66394e-14 8.73992 0.969218)
(-4.70593e-15 -5.65459 13.1195)
(3.19611e-15 -3.58566 -6.39451)
(8.40934e-16 -3.6495 2.15799)
(-5.49443e-17 -3.98323 -0.0787037)
(-1.12192e-16 -1.30882 2.26074)
(2.05495e-16 1.55649 0.404462)
(1.69157e-15 3.04788 -0.629289)
(3.93173e-15 1.95704 -1.4059)
(3.48326e-15 -1.10319 -1.8567)
(1.26959e-15 -2.55381 -1.38651)
(1.19676e-16 -1.16133 -0.347863)
(1.84607e-16 1.4426 -1.13986)
(1.83467e-16 0.842469 -1.97438)
(1.63571e-16 -1.08396 -1.79539)
(3.88999e-17 -1.26575 -0.949918)
(-1.60521e-17 -1.03252 -0.559815)
(1.08297e-16 -0.877267 -1.05286)
(-9.17807e-14 14.327 25.1028)
(3.05627e-14 -0.243572 -5.68758)
(-3.0037e-15 -1.12213 12.9562)
(4.62843e-15 -3.10138 -2.68361)
(1.29944e-15 -4.15516 3.88864)
(5.88e-16 -3.97352 -0.568239)
(1.3282e-16 -1.3466 1.90164)
(9.70626e-16 2.09118 -0.150114)
(3.86694e-15 3.3913 -0.0945545)
(6.47582e-15 2.08276 0.365465)
(5.66556e-15 -1.75673 -0.267895)
(2.51084e-15 -2.74671 -0.509666)
(6.77451e-16 -1.01128 0.102948)
(4.93593e-16 1.89613 -1.18727)
(2.05018e-17 1.03517 -1.56238)
(1.53472e-16 -0.926678 -1.98665)
(9.88342e-17 -1.34973 -1.26913)
(5.29188e-18 -0.822633 -0.794169)
(3.11242e-16 -0.474623 -1.75178)
(-8.51957e-14 4.42049 23.7667)
(3.10016e-14 2.8695 -2.28411)
(-1.88459e-15 -0.110237 12.1927)
(5.76334e-15 -2.38294 0.915713)
(2.35331e-15 -3.70826 4.58679)
(1.75473e-15 -3.50149 -0.219757)
(8.25503e-16 -1.30439 1.81173)
(2.72717e-15 2.15824 0.299667)
(6.25962e-15 3.12255 1.79262)
(7.35535e-15 1.88355 2.77522)
(5.96006e-15 -1.54802 2.0078)
(3.72124e-15 -2.57087 1.1737)
(1.33919e-15 -0.578109 1.09006)
(2.49255e-16 2.25239 0.353165)
(-4.86704e-16 0.985148 0.968865)
(-2.26682e-16 -1.28713 -1.0106)
(1.65298e-17 -1.7168 -0.955602)
(-2.20928e-17 -1.16218 -0.461214)
(4.65318e-16 -0.680629 -2.93033)
(-8.9191e-14 7.38252 27.0503)
(3.33659e-14 0.850704 -2.31349)
(-2.26585e-15 1.22005 13.7398)
(5.99386e-15 -1.72426 3.882)
(3.04662e-15 -2.94516 5.73968)
(2.86887e-15 -3.07068 1.62111)
(2.02304e-15 -1.23652 2.35763)
(5.10718e-15 1.87168 2.05414)
(7.88123e-15 2.62657 4.27106)
(6.9717e-15 1.76835 5.23108)
(5.0771e-15 -1.22565 4.52976)
(4.10983e-15 -2.27981 3.38349)
(1.72721e-15 -0.229741 2.89945)
(-2.03085e-17 1.95613 3.94224)
(-4.25594e-16 1.26281 4.59469)
(-4.83649e-16 -0.712532 1.63335)
(-1.05912e-16 -1.12795 -0.279)
(-2.5789e-17 0.613185 -1.91837)
(-1.33668e-16 0.942487 0.505989)
(-8.2291e-14 3.36754 28.3999)
(3.23898e-14 1.57402 0.0887889)
(-2.69193e-15 1.13175 15.3355)
(4.85214e-15 -0.899212 7.67444)
(2.04368e-15 -2.13875 8.4259)
(2.68746e-15 -2.4708 4.60119)
(3.14267e-15 -1.12887 3.90303)
(7.09696e-15 1.25468 4.39701)
(8.56088e-15 2.08686 6.52226)
(6.24531e-15 1.68823 7.6307)
(3.54754e-15 -0.79783 7.05877)
(3.03297e-15 -1.95459 5.61388)
(1.55174e-15 -0.540339 5.76613)
(3.79622e-16 1.43738 8.43849)
(1.05181e-16 1.71965 9.40829)
(-3.83523e-16 0.732524 7.67579)
(-3.3511e-16 -0.479327 5.432)
(1.52146e-16 -1.9768 6.52353)
(7.97476e-16 -5.90604 10.523)
(-7.9499e-14 3.07461 31.2875)
(3.11007e-14 0.942092 1.60626)
(-2.40783e-15 1.01849 17.3097)
(4.25933e-15 -0.25701 11.2398)
(6.05538e-16 -1.13457 11.9555)
(2.10441e-15 -1.52563 8.1283)
(4.59433e-15 -0.833445 6.48253)
(8.1748e-15 0.73782 6.38993)
(8.32112e-15 1.52618 8.16007)
(6.05991e-15 1.35038 10.096)
(2.54558e-15 -0.523393 10.9177)
(1.24877e-15 -1.78847 10.1416)
(1.17348e-15 -1.18636 10.5672)
(6.75945e-16 0.672354 12.376)
(6.08244e-17 1.42451 13.104)
(-1.10903e-16 0.753608 13.5417)
(-1.36072e-16 -0.382747 13.1426)
(-7.05218e-17 -1.50352 12.1572)
(-2.66744e-16 -2.90325 11.1869)
(-7.59904e-14 0.100907 33.383)
(2.26332e-14 1.1436 2.93729)
(-1.65547e-15 0.156366 18.695)
(5.67117e-15 -0.00532972 13.6732)
(3.1335e-15 -0.411236 14.5609)
(2.85955e-15 -0.51661 10.5877)
(3.15316e-15 -0.258538 8.01488)
(6.02201e-15 0.413246 7.02551)
(6.32039e-15 0.757402 8.9662)
(6.95789e-15 0.449902 11.821)
(6.18113e-15 -0.871503 13.8776)
(3.4867e-15 -1.81672 13.7133)
(-5.06722e-17 -1.35576 12.4712)
(-2.69292e-15 0.452564 11.4942)
(-3.43972e-15 1.24461 11.75)
(-2.19643e-15 0.729946 12.0785)
(-1.31228e-15 -0.279232 11.1647)
(-1.18318e-15 -1.23632 8.78128)
(-1.4645e-15 -2.43697 4.92214)
(-7.36712e-14 -0.857093 32.5235)
(4.69459e-15 0.776761 2.82509)
(-1.21102e-14 -0.541714 18.5069)
(-6.35635e-15 0.285374 13.5404)
(-4.43426e-15 0.583028 14.4222)
(-2.1725e-15 0.902601 10.4859)
(-1.48355e-15 0.740414 7.89774)
(-2.24964e-15 0.168313 6.81694)
(-2.27558e-17 -0.232194 8.79092)
(3.10162e-16 -0.669061 11.8124)
(-1.02306e-15 -1.30661 14.4959)
(-3.91106e-15 -1.31418 14.9306)
(-7.11709e-15 -0.331382 13.1989)
(-8.02023e-15 0.992134 11.6361)
(-7.33856e-15 1.24536 12.1433)
(-6.55799e-15 1.0688 12.9376)
(-5.69176e-15 0.997977 12.2415)
(-5.09294e-15 1.70477 9.82426)
(-4.66855e-15 2.916 5.62193)
(-6.20233e-14 -3.55841 29.2451)
(-5.92497e-16 0.762265 1.49619)
(-9.24944e-15 -1.394 16.7287)
(-1.52822e-15 0.530171 10.9408)
(-6.446e-16 1.28937 11.6827)
(-1.24277e-15 1.90369 7.98433)
(-3.33851e-15 1.36169 6.42753)
(-5.31984e-15 -0.141476 6.41058)
(-4.73514e-15 -1.09878 8.38227)
(-4.14537e-15 -1.83687 10.8002)
(-4.89268e-15 -2.06101 13.1075)
(-5.27619e-15 -1.19526 12.2661)
(-4.13816e-15 0.119955 8.24508)
(-3.26186e-15 0.711123 5.64648)
(-3.80209e-15 0.476407 6.81654)
(-4.46878e-15 0.684174 9.05691)
(-4.68368e-15 0.941438 10.6574)
(-4.49852e-15 1.89902 11.2343)
(-3.92699e-15 3.35526 10.9213)
(-4.98899e-14 -4.46304 26.1134)
(-3.83806e-15 0.135537 -0.314454)
(-8.44657e-15 -1.54232 14.4998)
(-3.28508e-15 1.12724 7.40438)
(-3.13049e-15 2.23825 8.16501)
(-2.81525e-15 2.77049 4.50994)
(-3.05038e-15 1.5519 4.00863)
(-6.14927e-15 -0.802246 4.95878)
(-7.42691e-15 -1.87051 7.40741)
(-6.60907e-15 -2.58877 9.18868)
(-5.63683e-15 -1.98106 10.2329)
(-4.57042e-15 0.431666 7.60796)
(-3.93303e-15 2.15091 3.77481)
(-2.47891e-15 1.82968 1.46038)
(-7.58644e-16 0.298229 -0.486069)
(-1.76351e-16 -0.547034 -1.62668)
(-1.91958e-15 -0.386509 2.27019)
(-2.37241e-15 1.60135 4.36169)
(-3.32443e-15 6.4905 9.22492)
(-3.97803e-14 -7.48529 24.7914)
(-6.27846e-15 0.172466 -2.67793)
(-8.99546e-15 -1.61042 12.6315)
(-5.33856e-15 1.85365 3.89674)
(-4.38072e-15 3.01763 5.57645)
(-2.8754e-15 3.30558 1.68132)
(-2.01731e-15 1.44879 2.49275)
(-5.41504e-15 -1.61473 3.18228)
(-8.25488e-15 -2.66185 5.70301)
(-8.08977e-15 -2.98667 7.06598)
(-6.51015e-15 -1.49012 7.10177)
(-5.89511e-15 1.45642 4.22356)
(-4.92598e-15 2.83526 2.29781)
(-2.10176e-15 2.46908 1.12789)
(-3.1412e-16 1.35228 0.0373166)
(2.80967e-16 -0.249772 -1.56507)
(-4.48475e-16 -0.945997 -1.14528)
(-4.31081e-16 -1.1636 -1.88985)
(1.6826e-16 -1.78208 -2.05809)
(-2.98097e-14 -5.21858 21.7658)
(-8.04017e-15 -1.84652 -2.11381)
(-9.19759e-15 -0.309186 10.9254)
(-5.25012e-15 2.38552 1.22354)
(-3.26682e-15 3.77284 4.42034)
(-1.55141e-15 3.69607 -0.0204744)
(-7.30485e-16 1.23352 1.83284)
(-3.59068e-15 -2.17191 1.57949)
(-7.47556e-15 -3.28368 3.56137)
(-8.87145e-15 -3.15158 4.69)
(-7.80762e-15 -0.88784 4.3127)
(-6.96486e-15 2.14941 1.71912)
(-4.15365e-15 3.41054 0.770093)
(-1.20027e-15 2.77671 0.224211)
(-1.33428e-17 1.35114 0.136504)
(1.08529e-16 -0.216691 0.432684)
(5.2837e-17 -0.589296 -1.2276)
(6.42352e-17 0.940558 -0.488637)
(3.39407e-16 1.67589 -1.52134)
(-2.2323e-14 -13.3352 23.817)
(-9.03368e-15 0.264288 -7.35187)
(-8.07986e-15 0.738405 11.3562)
(-3.40928e-15 2.85245 -2.14919)
(-1.4171e-15 4.27311 3.60046)
(-3.87229e-16 4.12106 -0.356652)
(-5.92282e-17 1.06633 1.84206)
(-1.77557e-15 -2.47774 0.844132)
(-5.47192e-15 -3.84212 1.64489)
(-8.5258e-15 -3.3735 2.26128)
(-8.76378e-15 -0.241366 1.83549)
(-6.60703e-15 2.75589 -0.268044)
(-2.8138e-15 3.66109 -0.371863)
(-5.01497e-16 2.76784 -0.163053)
(6.88283e-17 1.23307 0.561914)
(5.71839e-17 0.0829942 0.795848)
(1.82576e-16 -0.324303 -0.476512)
(2.8761e-17 0.122423 -0.669819)
(4.67179e-17 0.154758 -0.851904)
(-1.58236e-14 2.363 15.7207)
(-7.72634e-15 -7.78596 1.78428)
(-5.84803e-15 4.88159 11.7547)
(-1.67245e-15 3.0266 -6.03629)
(-2.85108e-16 3.87218 1.65121)
(1.00486e-16 4.10442 0.0692523)
(1.10381e-16 0.963902 2.16216)
(-6.64832e-16 -2.11049 0.833234)
(-3.13718e-15 -3.57718 0.500603)
(-6.6359e-15 -3.22438 0.157321)
(-8.58997e-15 0.46289 -0.461523)
(-4.70384e-15 2.87001 -1.58383)
(-1.50678e-15 3.54948 -1.17115)
(-2.69063e-17 2.40767 -0.0928928)
(4.30778e-17 0.957824 0.912294)
(-1.37913e-17 0.259285 0.837859)
(1.86294e-17 0.0418905 0.14378)
(6.63291e-19 0.546217 -0.383479)
(-2.47474e-18 0.928943 -0.429197)
(-3.84376e-15 -35.223 30.1507)
(-8.14182e-15 6.27593 -13.3874)
(-4.37012e-15 3.2021 14.3046)
(-9.37841e-16 3.77912 -7.05826)
(-9.29033e-17 2.4962 -0.617014)
(1.05907e-16 3.26738 0.693455)
(6.22388e-17 0.680108 2.72839)
(-2.0729e-16 -2.36428 1.46861)
(-1.38945e-15 -3.86757 0.389417)
(-3.85778e-15 -3.28406 -1.02674)
(-5.62916e-15 -0.0385663 -2.10353)
(-2.34097e-15 2.70638 -2.45784)
(-3.79735e-16 3.001 -1.33496)
(9.19506e-17 1.74078 0.419695)
(-6.22664e-18 0.683697 1.06596)
(-3.01776e-18 0.26962 0.656378)
(1.42544e-18 0.113684 0.16826)
(3.72394e-20 0.390195 -0.366567)
(-1.72159e-18 0.600335 -0.10659)
(-2.70269e-14 47.1392 -7.98482)
(3.38232e-16 -27.1228 13.8409)
(-8.32329e-15 11.4247 2.6264)
(-4.60707e-16 6.73491 -2.81617)
(-9.6158e-17 2.07711 0.793179)
(9.13749e-18 3.09206 1.24017)
(1.80595e-17 0.972914 3.6532)
(-4.41204e-17 -0.0417063 2.13675)
(-4.81667e-16 -1.55506 0.400765)
(-1.70466e-15 -1.79925 -1.11682)
(-2.47796e-15 0.879509 -2.5456)
(-6.81263e-16 2.85933 -2.54985)
(4.35644e-17 2.83194 -0.668803)
(1.15727e-17 1.62366 0.998086)
(-6.67536e-18 1.02257 0.999543)
(1.76309e-18 0.763542 0.565206)
(-2.25635e-19 0.613528 0.205681)
(-1.09846e-19 0.697345 -0.275217)
(1.22311e-18 1.05092 0.111029)
(1.04638e-13 -112.187 119.137)
(-1.93637e-14 29.0176 -29.9112)
(-1.2677e-14 18.6418 -5.84713)
(-2.51493e-16 6.67113 1.92703)
(-1.74848e-17 2.83446 1.72032)
(-8.2631e-18 3.11213 0.853123)
(2.95258e-17 -0.324784 4.30878)
(7.38002e-17 -3.60202 6.50415)
(-6.48135e-17 -4.39731 3.90887)
(-5.13832e-16 -3.17288 -0.337567)
(-5.76929e-16 0.314431 -2.77107)
(-3.77914e-17 2.75985 -1.34148)
(2.46624e-17 2.75542 0.131399)
(-5.77059e-18 1.91666 0.627555)
(1.16078e-18 1.47956 0.418955)
(-9.1723e-20 1.08362 0.268996)
(-6.10972e-20 0.834194 0.116651)
(2.59221e-20 0.819891 -0.112738)
(-1.88328e-19 1.10218 0.125704)
(1.00734e-16 6.09678 10.8915)
(-5.63278e-15 10.1935 17.3215)
(-4.94269e-15 9.98104 16.7636)
(-4.36434e-15 9.79124 16.2238)
(-4.75195e-15 9.81654 16.1062)
(-6.35253e-15 9.86946 16.0338)
(-4.98248e-15 9.75238 15.6822)
(-4.5147e-15 9.77808 15.7444)
(-4.50263e-15 9.80131 15.7828)
(-4.50571e-15 9.79921 15.7915)
(-4.24242e-15 9.7787 15.8028)
(-4.50617e-15 9.76044 15.8161)
(-4.68354e-15 9.73507 15.8333)
(-4.46398e-15 9.70717 15.8535)
(-4.59528e-15 9.67286 15.8694)
(-4.65382e-15 9.62238 15.8735)
(-4.45203e-15 9.6191 15.9415)
(-4.31782e-15 9.9631 16.6637)
(-4.10687e-15 10.2371 17.0164)
(-7.11935e-15 5.86795 9.99252)
(2.58183e-17 5.63635 9.54593)
(-4.6089e-15 9.31558 16.0136)
(-3.84351e-15 8.86719 15.2973)
(-3.42613e-15 8.75892 15.0591)
(-4.45947e-15 8.75242 15.1121)
(-6.0369e-15 8.79892 15.1301)
(-3.84285e-15 8.84054 15.2324)
(-3.57751e-15 8.88333 15.2252)
(-3.81059e-15 8.89427 15.2451)
(-4.08467e-15 8.92772 15.2637)
(-3.51418e-15 8.94832 15.2899)
(-3.78974e-15 8.97268 15.3125)
(-3.75837e-15 8.99239 15.336)
(-3.79542e-15 9.00904 15.3587)
(-3.78598e-15 9.02242 15.3733)
(-3.97648e-15 9.0184 15.3705)
(-3.78053e-15 9.10253 15.5123)
(-3.67615e-15 9.5618 16.2909)
(-3.71206e-15 9.51435 16.2034)
(-6.52347e-15 4.80604 8.20809)
(2.51332e-18 6.08412 10.6101)
(-1.67289e-15 9.68477 16.6095)
(-1.63203e-15 9.19876 15.8906)
(-1.33466e-15 9.09022 15.5963)
(-1.56047e-15 9.06353 15.6063)
(-3.53091e-15 9.08946 15.5902)
(-2.05791e-15 9.06627 15.5774)
(-1.51072e-15 9.07842 15.573)
(-1.8772e-15 9.07491 15.5767)
(-1.87211e-15 9.0828 15.574)
(-1.72066e-15 9.08301 15.5762)
(-1.85035e-15 9.08781 15.5778)
(-1.69945e-15 9.09226 15.5811)
(-1.58395e-15 9.09405 15.5872)
(-1.69219e-15 9.0984 15.5839)
(-1.90669e-15 9.08478 15.5733)
(-1.71718e-15 9.18283 15.7242)
(-1.81283e-15 9.6444 16.5346)
(-1.7286e-15 9.4611 16.1756)
(-3.26765e-15 4.53656 7.83109)
(-1.73168e-18 6.07161 10.5152)
(4.01234e-16 9.55062 16.4273)
(3.70832e-16 9.0461 15.6596)
(2.86227e-16 8.94989 15.42)
(3.78013e-16 8.92976 15.4491)
(-1.92518e-15 8.95454 15.4468)
(-1.92357e-15 8.94503 15.4652)
(-1.5676e-15 8.9606 15.465)
(-1.8239e-15 8.95694 15.4755)
(-1.63272e-15 8.96727 15.4797)
(-2.00517e-15 8.96946 15.4885)
(-1.61162e-15 8.97635 15.4955)
(-1.74759e-15 8.98306 15.5028)
(-1.68861e-15 8.98644 15.5126)
(-1.89903e-15 8.99384 15.5107)
(-1.73659e-15 8.98153 15.5047)
(-1.56805e-15 9.09686 15.6772)
(-1.70714e-15 9.56885 16.5118)
(-1.70698e-15 9.25149 15.9365)
(-3.14336e-15 4.19496 7.27044)
(6.4087e-19 6.22418 10.8229)
(-9.14548e-17 9.58012 16.4744)
(-8.22914e-17 9.06131 15.7012)
(-7.04784e-17 8.96769 15.4658)
(-8.55999e-17 8.94378 15.4922)
(5.29884e-16 8.9621 15.4891)
(4.33662e-16 8.94674 15.5006)
(3.67134e-16 8.95542 15.5018)
(4.40381e-16 8.94843 15.5115)
(4.33628e-16 8.95293 15.5159)
(3.94828e-16 8.95063 15.5241)
(4.36564e-16 8.9528 15.5311)
(4.0613e-16 8.95482 15.5386)
(3.79675e-16 8.95432 15.5487)
(4.04445e-16 8.95797 15.5472)
(4.40164e-16 8.94161 15.5432)
(4.02396e-16 9.05759 15.716)
(4.15398e-16 9.513 16.5542)
(4.02709e-16 9.17029 15.9263)
(7.65571e-16 4.20911 7.39752)
(-2.01967e-19 6.29755 10.9305)
(2.21509e-17 9.52402 16.3945)
(1.88734e-17 9.00832 15.6106)
(1.74315e-17 8.91299 15.3888)
(1.85447e-17 8.89272 15.4161)
(-1.28131e-16 8.90738 15.4173)
(-1.03993e-16 8.89382 15.4314)
(-8.67149e-17 8.90003 15.4354)
(-1.03229e-16 8.89242 15.4468)
(-9.94028e-17 8.89485 15.4535)
(-8.5317e-17 8.89083 15.4639)
(-1.07197e-16 8.89111 15.4727)
(-9.88516e-17 8.89026 15.4825)
(-9.30092e-17 8.88807 15.4942)
(-9.66946e-17 8.88883 15.4966)
(-1.03547e-16 8.87056 15.4941)
(-9.67659e-17 8.96516 15.6367)
(-1.01677e-16 9.38638 16.4436)
(-1.01099e-16 9.15942 16.028)
(-1.73655e-16 4.47284 7.91599)
(5.67619e-20 6.40044 11.1027)
(-5.47446e-18 9.49462 16.3465)
(-4.52989e-18 8.98223 15.5608)
(-4.18589e-18 8.88477 15.3433)
(-4.11482e-18 8.86612 15.3681)
(2.92122e-17 8.87764 15.3697)
(2.48314e-17 8.86411 15.3819)
(2.19234e-17 8.8678 15.3857)
(2.40934e-17 8.85929 15.396)
(2.29773e-17 8.85958 15.4021)
(2.07262e-17 8.85377 15.4116)
(2.44808e-17 8.85212 15.4194)
(2.41338e-17 8.84854 15.4286)
(2.24288e-17 8.84474 15.439)
(2.3217e-17 8.84335 15.4439)
(2.44251e-17 8.82479 15.4416)
(2.2947e-17 8.87994 15.5215)
(2.41982e-17 9.23558 16.2271)
(2.48184e-17 9.25337 16.2519)
(3.63178e-17 4.96043 8.80401)
(-1.42187e-20 6.50721 11.2681)
(1.33299e-18 9.45691 16.2812)
(1.11415e-18 8.94997 15.4927)
(9.78752e-19 8.85289 15.2837)
(9.66138e-19 8.8373 15.3062)
(-6.6518e-18 8.84719 15.3081)
(-5.77788e-18 8.83512 15.319)
(-5.51589e-18 8.83797 15.3223)
(-5.82683e-18 8.82993 15.3313)
(-5.54175e-18 8.82972 15.3364)
(-5.19499e-18 8.82373 15.3448)
(-5.55001e-18 8.82177 15.3513)
(-5.94758e-18 8.81723 15.3593)
(-5.47232e-18 8.81348 15.3676)
(-5.50171e-18 8.81118 15.3738)
(-5.7325e-18 8.79646 15.3741)
(-5.39223e-18 8.8173 15.3999)
(-5.76902e-18 9.08404 15.9379)
(-6.03188e-18 9.3444 16.4035)
(-7.44899e-18 5.54038 9.81859)
(3.06431e-21 6.64276 11.4865)
(-3.18793e-19 9.42681 16.2243)
(-2.74015e-19 8.92293 15.4333)
(-2.27813e-19 8.83165 15.239)
(-2.34522e-19 8.81854 15.2591)
(1.54263e-18 8.82745 15.2607)
(1.33346e-18 8.81689 15.2699)
(1.35159e-18 8.81947 15.2723)
(1.41425e-18 8.81241 15.2798)
(1.35087e-18 8.81232 15.2838)
(1.29693e-18 8.80694 15.2907)
(1.30614e-18 8.80545 15.2956)
(1.44162e-18 8.80108 15.3023)
(1.35096e-18 8.79829 15.3084)
(1.32204e-18 8.79569 15.3143)
(1.34761e-18 8.78641 15.3174)
(1.28304e-18 8.78968 15.3182)
(1.3792e-18 8.96646 15.6754)
(1.45383e-18 9.37858 16.412)
(1.58079e-18 6.10115 10.7707)
(-4.98696e-22 6.79962 11.7428)
(7.54677e-20 9.39323 16.1628)
(6.62901e-20 8.89358 15.3723)
(5.36402e-20 8.81285 15.2)
(5.64956e-20 8.80207 15.2186)
(-3.66059e-19 8.81028 15.2199)
(-3.12292e-19 8.80133 15.2279)
(-3.24616e-19 8.80394 15.23)
(-3.38701e-19 8.79813 15.2365)
(-3.26138e-19 8.79847 15.2398)
(-3.20712e-19 8.7941 15.2458)
(-3.16946e-19 8.79343 15.2499)
(-3.40678e-19 8.78979 15.2557)
(-3.3075e-19 8.78833 15.2606)
(-3.21894e-19 8.78596 15.266)
(-3.19329e-19 8.78086 15.2702)
(-3.10517e-19 8.77899 15.2664)
(-3.28783e-19 8.89158 15.4925)
(-3.48085e-19 9.35509 16.3125)
(-3.48824e-19 6.56101 11.5303)
(2.43416e-23 6.97294 12.0317)
(-1.77747e-20 9.35534 16.0967)
(-1.56514e-20 8.86395 15.3151)
(-1.28765e-20 8.79671 15.1689)
(-1.32928e-20 8.78761 15.186)
(8.84577e-20 8.7951 15.1872)
(7.44279e-20 8.7875 15.1944)
(7.70811e-20 8.79003 15.1963)
(8.02322e-20 8.78531 15.2021)
(7.79679e-20 8.78593 15.2052)
(7.85508e-20 8.78246 15.2106)
(7.73358e-20 8.78243 15.2143)
(7.89938e-20 8.77946 15.2198)
(7.91903e-20 8.77911 15.224)
(7.806e-20 8.77705 15.2293)
(7.59876e-20 8.77449 15.2336)
(7.54176e-20 8.77185 15.2306)
(7.78848e-20 8.84768 15.3828)
(8.29069e-20 9.30602 16.1841)
(7.88308e-20 6.90494 12.0908)
(2.39199e-23 7.15353 12.3361)
(4.17268e-21 9.31054 16.0217)
(3.60605e-21 8.83433 15.2611)
(3.13779e-21 8.78122 15.1417)
(3.03853e-21 8.7733 15.1576)
(-2.14844e-20 8.78003 15.1586)
(-1.77986e-20 8.77351 15.1652)
(-1.81791e-20 8.77585 15.1672)
(-1.88749e-20 8.77202 15.1726)
(-1.85009e-20 8.7727 15.1757)
(-1.90519e-20 8.76994 15.1808)
(-1.8655e-20 8.77028 15.1844)
(-1.81927e-20 8.76775 15.1897)
(-1.85457e-20 8.76823 15.1936)
(-1.86504e-20 8.76619 15.1992)
(-1.79736e-20 8.76542 15.2034)
(-1.81083e-20 8.76261 15.2019)
(-1.83333e-20 8.81725 15.3119)
(-1.96285e-20 9.25164 16.0658)
(-1.79056e-20 7.16157 12.5118)
(-1.33217e-23 7.33629 12.6461)
(-9.76625e-22 9.25952 15.9377)
(-8.15638e-22 8.80633 15.2117)
(-7.66876e-22 8.76648 15.1177)
(-6.71929e-22 8.75933 15.1321)
(5.17549e-21 8.76528 15.1331)
(4.21725e-21 8.75964 15.1392)
(4.25845e-21 8.76165 15.1414)
(4.40717e-21 8.75853 15.1463)
(4.34606e-21 8.75908 15.1495)
(4.56465e-21 8.75686 15.1544)
(4.42994e-21 8.75733 15.1579)
(4.20484e-21 8.75506 15.1632)
(4.28291e-21 8.75611 15.1668)
(4.38837e-21 8.7538 15.1727)
(4.19948e-21 8.7545 15.1766)
(4.26864e-21 8.75122 15.1769)
(4.2919e-21 8.79219 15.2586)
(4.60832e-21 9.19605 15.959)
(4.02702e-21 7.3696 12.8598)
(4.77045e-24 7.51847 12.9558)
(2.27577e-22 9.20261 15.8444)
(1.82776e-22 8.78045 15.1669)
(1.8592e-22 8.7523 15.0955)
(1.42869e-22 8.74568 15.1083)
(-1.22748e-21 8.75086 15.1093)
(-9.86788e-22 8.74599 15.1149)
(-9.89557e-22 8.7476 15.1173)
(-1.02024e-21 8.74509 15.1219)
(-1.00688e-21 8.74539 15.1252)
(-1.07652e-21 8.74365 15.1298)
(-1.0384e-21 8.74405 15.1333)
(-9.78736e-22 8.74202 15.1385)
(-9.84129e-22 8.7434 15.1419)
(-1.02192e-21 8.74075 15.1481)
(-9.70572e-22 8.7427 15.1515)
(-9.90038e-22 8.73864 15.1537)
(-9.99731e-22 8.76998 15.2135)
(-1.07088e-21 9.13743 15.854)
(-8.9058e-22 7.55608 13.1763)
(-1.39543e-24 7.6995 13.2637)
(-5.26436e-23 9.14028 15.7419)
(-4.09315e-23 8.75702 15.1266)
(-4.44997e-23 8.73882 15.0746)
(-2.90184e-23 8.73254 15.0858)
(2.86472e-22 8.73699 15.0869)
(2.28826e-22 8.73283 15.092)
(2.28205e-22 8.73398 15.0946)
(2.34786e-22 8.73204 15.0988)
(2.3007e-22 8.73203 15.1022)
(2.49557e-22 8.73073 15.1064)
(2.41172e-22 8.73095 15.11)
(2.28743e-22 8.7292 15.115)
(2.2635e-22 8.73067 15.1183)
(2.36759e-22 8.7278 15.1246)
(2.23193e-22 8.73076 15.1275)
(2.27647e-22 8.72584 15.1316)
(2.31866e-22 8.74999 15.1733)
(2.46495e-22 9.07433 15.7445)
(1.93933e-22 7.73434 13.4806)
(3.57698e-25 7.87961 13.5699)
(1.20782e-23 9.07265 15.63)
(9.22906e-24 8.73616 15.0909)
(1.05439e-23 8.7262 15.055)
(5.62081e-24 8.72016 15.0647)
(-6.6089e-23 8.7239 15.0658)
(-5.29234e-23 8.72046 15.0705)
(-5.24037e-23 8.72111 15.0732)
(-5.40426e-23 8.71967 15.077)
(-5.2135e-23 8.71937 15.0804)
(-5.70592e-23 8.71841 15.0844)
(-5.56728e-23 8.71839 15.088)
(-5.34588e-23 8.717 15.0927)
(-5.22742e-23 8.71829 15.096)
(-5.4773e-23 8.71545 15.1022)
(-5.1411e-23 8.71907 15.1046)
(-5.23713e-23 8.71337 15.1105)
(-5.36766e-23 8.73223 15.1373)
(-5.64697e-23 9.00616 15.6276)
(-4.18892e-23 7.90947 13.7795)
(-8.33019e-26 8.05933 13.8751)
(-2.76498e-24 8.99952 15.5081)
(-2.11315e-24 8.7178 15.0597)
(-2.49555e-24 8.71456 15.0366)
(-1.05088e-24 8.70878 15.0447)
(1.51916e-23 8.71174 15.0461)
(1.22965e-23 8.70917 15.0501)
(1.20589e-23 8.70929 15.053)
(1.25284e-23 8.7083 15.0564)
(1.18366e-23 8.70781 15.0598)
(1.29859e-23 8.70712 15.0635)
(1.28314e-23 8.70686 15.0672)
(1.25011e-23 8.70587 15.0715)
(1.21611e-23 8.70673 15.0749)
(1.26994e-23 8.70427 15.0809)
(1.19405e-23 8.70799 15.0831)
(1.21594e-23 8.70175 15.0904)
(1.24723e-23 8.71697 15.1052)
(1.29865e-23 8.93309 15.5027)
(9.06738e-24 8.08314 14.0752)
(1.81054e-26 8.23965 14.1804)
(6.39847e-25 8.92061 15.3748)
(4.96269e-25 8.70165 15.0324)
(5.96494e-25 8.70362 15.0189)
(1.97331e-25 8.69851 15.0253)
(-3.50908e-24 8.70034 15.0269)
(-2.88739e-24 8.69873 15.0302)
(-2.80073e-24 8.6984 15.033)
(-2.93776e-24 8.6977 15.0361)
(-2.72293e-24 8.69712 15.0394)
(-2.97668e-24 8.69657 15.0428)
(-2.97139e-24 8.69617 15.0464)
(-2.9407e-24 8.69556 15.0503)
(-2.86124e-24 8.69586 15.054)
(-2.9645e-24 8.69426 15.0594)
(-2.81081e-24 8.69725 15.0619)
(-2.86584e-24 8.69129 15.0701)
(-2.92862e-24 8.70425 15.0762)
(-3.02663e-24 8.85558 15.3705)
(-1.98719e-24 8.25514 14.3661)
(-3.81742e-27 8.42318 14.4926)
(-1.54421e-25 8.83809 15.2311)
(-1.2268e-25 8.69069 15.012)
(-1.47705e-25 8.69522 15.0051)
(-4.02814e-26 8.69182 15.0089)
(8.34882e-25 8.69212 15.0105)
(6.99863e-25 8.69115 15.0126)
(6.72515e-25 8.69035 15.0148)
(7.10141e-25 8.68951 15.0171)
(6.51423e-25 8.68863 15.0197)
(7.06245e-25 8.68775 15.0224)
(7.08158e-25 8.68689 15.0254)
(7.13617e-25 8.68605 15.0287)
(6.95601e-25 8.68543 15.0321)
(7.1298e-25 8.68433 15.0364)
(6.84463e-25 8.68532 15.0397)
(6.98829e-25 8.68103 15.0469)
(7.10778e-25 8.69107 15.0483)
(7.3121e-25 8.77265 15.2324)
(4.49277e-25 8.42326 14.6449)
(6.29021e-28 8.61058 14.8239)
(3.19563e-26 8.75271 15.0801)
(2.60431e-26 8.69281 15.0032)
(3.09779e-26 8.695 15.0014)
(7.83307e-27 8.69442 15.0021)
(-1.70382e-25 8.69407 15.0026)
(-1.45364e-25 8.69366 15.0031)
(-1.3872e-25 8.69305 15.0038)
(-1.46359e-25 8.69232 15.0046)
(-1.34927e-25 8.69143 15.0056)
(-1.44287e-25 8.69038 15.0067)
(-1.44982e-25 8.68914 15.008)
(-1.48714e-25 8.68772 15.0095)
(-1.45138e-25 8.68604 15.0113)
(-1.47328e-25 8.68417 15.0133)
(-1.42778e-25 8.68208 15.0156)
(-1.45864e-25 8.67892 15.0189)
(-1.47915e-25 8.67938 15.02)
(-1.52142e-25 8.69418 15.0844)
(-8.71479e-26 8.5934 14.8933)
(-8.36006e-27 -2.60222 17.0193)
(-3.0327e-26 -8.03952 13.6638)
(-1.1456e-26 -5.17457 14.5195)
(4.69461e-26 -4.98107 14.1341)
(1.25233e-25 -4.05616 14.0988)
(1.49202e-25 -3.48608 13.9308)
(3.39642e-26 -2.90325 13.7796)
(-1.05034e-25 -2.42306 13.596)
(3.57961e-25 -2.00337 13.3965)
(2.54219e-24 -1.66033 13.1848)
(7.02768e-24 -1.39803 12.9809)
(1.25897e-23 -1.22882 12.8044)
(1.76577e-23 -1.15784 12.66)
(2.54456e-23 -1.19082 12.5131)
(4.52419e-23 -1.33139 12.2928)
(7.94077e-23 -1.53532 11.946)
(1.05415e-22 -1.83566 11.3899)
(8.70691e-23 -2.52295 10.3419)
(2.39931e-23 -2.74493 8.83238)
(-2.05931e-23 0.151207 6.69649)
(-6.94819e-27 -11.2615 28.5388)
(1.03632e-25 -16.9818 25.1409)
(1.92946e-25 -12.0196 25.5201)
(2.52192e-25 -12.5877 23.8635)
(1.24338e-25 -10.8392 23.149)
(-2.39873e-25 -10.1241 22.1013)
(-5.80448e-25 -9.09212 21.2225)
(-5.15999e-25 -8.26863 20.3128)
(5.03729e-25 -7.45181 19.4464)
(2.28574e-24 -6.71357 18.5948)
(3.54792e-24 -6.01057 17.7426)
(3.48505e-24 -5.31111 16.8077)
(-3.39764e-24 -4.54545 15.6435)
(-5.39512e-23 -3.64678 14.0668)
(-2.42147e-22 -2.58897 11.9245)
(-6.43166e-22 -1.45323 9.15146)
(-1.06277e-21 -0.417101 5.91498)
(-8.82716e-22 0.418815 2.73914)
(3.58123e-22 1.09927 -0.0247728)
(1.47869e-21 1.01574 -1.49549)
(3.15387e-27 -14.4323 31.0624)
(-2.78056e-25 -18.3259 28.0935)
(-2.95033e-25 -13.6782 28.0376)
(-3.50868e-25 -14.606 25.7036)
(-1.97876e-25 -12.5425 24.7846)
(9.55839e-25 -12.1059 23.217)
(2.05462e-24 -11.0132 22.0322)
(2.83764e-24 -10.3189 20.7428)
(4.33135e-24 -9.54522 19.5737)
(6.1825e-24 -8.90347 18.4236)
(3.65577e-24 -8.27064 17.2931)
(-1.02805e-23 -7.60705 16.0203)
(-4.24897e-23 -6.7378 14.3517)
(-1.23935e-22 -5.44827 11.8954)
(-3.54832e-22 -3.40188 8.1051)
(-8.05255e-22 -0.408472 2.62651)
(-1.10554e-21 2.30523 -2.65748)