/*--------------------------------*- C++ -*----------------------------------*\
| =========                 |                                                 |
| \\      /  F ield         | OpenFOAM: The Open Source CFD Toolbox           |
|  \\    /   O peration     | Version:  4.1                                   |
|   \\  /    A nd           | Web:      www.OpenFOAM.org                      |
|    \\/     M anipulation  |                                                 |
\*---------------------------------------------------------------------------*/
FoamFile
{
    version     2.0;
    format      ascii;
    class       volScalarField;
    location    "24";
    object      k;
}
// * * * * * * * * * * * * * * * * * * * * * * * * * * * * * * * * * * * * * //

dimensions      [0 2 -2 0 0 0 0];

internalField   nonuniform List<scalar> 
1280
(
0.344741
0.360226
0.344925
0.354162
0.391818
0.365613
0.37026
0.392911
0.464826
0.458119
0.479586
0.574742
0.562932
0.57924
0.693058
0.689801
0.717686
0.902752
0.901996
0.913492
1.12833
2.26147
2.39383
2.41339
2.49969
2.68724
1.87146
2.23718
2.46489
2.64452
2.79179
2.91607
3.0221
3.10983
3.18322
3.2386
3.28771
3.30866
3.32608
3.25347
3.13012
2.99396
2.86158
2.73068
2.47516
2.03829
1.87369
1.79339
1.85666
1.67071
1.66653
1.84095
1.76184
1.82965
1.97825
2.39798
2.63804
2.75609
2.87721
3.01129
3.12993
3.19517
3.17924
3.16003
3.11199
3.05635
2.98266
2.89533
2.79104
2.66996
2.52715
2.35332
2.13353
1.79135
2.6081
2.43796
2.37117
2.36712
2.23683
1.10265
0.888235
0.876267
0.881831
0.687982
0.655348
0.655627
0.537137
0.51696
0.523807
0.431674
0.411492
0.414166
0.348487
0.327732
0.322291
0.344705
0.312291
0.305296
0.318829
0.303258
1.28813
1.12867
0.898852
0.738945
0.668413
0.706059
0.816991
0.995508
1.3025
1.75563
1.94212
1.67801
1.24684
0.913038
0.768197
0.726034
0.661551
0.551385
0.435546
1.41506
1.23371
0.960797
0.778417
0.714602
0.77795
0.932669
1.1843
1.60314
2.15125
2.22337
1.83532
1.34119
0.985457
0.829013
0.796985
0.724612
0.606889
0.485423
1.62698
1.40916
1.08546
0.879908
0.812327
0.900429
1.12278
1.49848
2.13746
2.83615
2.60314
2.07477
1.50615
1.10336
0.929969
0.945114
0.840718
0.695136
0.575126
1.8859
1.64877
1.2887
1.05622
0.987121
1.11576
1.45803
2.06882
3.20454
3.81387
3.12518
2.40206
1.76408
1.29083
1.11587
1.22678
1.05188
0.872115
0.743506
2.15174
1.92844
1.56332
1.32399
1.26652
1.45402
1.95213
2.86458
4.30368
4.82741
3.9455
2.88617
2.13056
1.59109
1.49012
1.71188
1.40646
1.12981
0.94146
2.41199
2.24508
1.92361
1.71216
1.69083
1.96013
2.63237
3.87792
5.22697
5.615
5.00211
3.77742
2.73511
2.1421
2.34823
2.75863
2.3145
1.83056
1.28744
2.64318
2.56556
2.33674
2.19289
2.22469
2.55959
3.32465
4.59205
5.55374
5.85743
5.6792
4.956
3.86976
3.26862
4.00041
4.61034
3.82453
3.27227
1.55997
2.81006
2.82849
2.72123
2.67839
2.75588
3.07388
3.71299
4.59135
5.20695
5.53065
5.76357
5.88529
5.50472
5.47901
6.37273
5.97037
4.17998
2.44847
1.99836
2.85228
2.9298
2.91963
2.9699
3.06366
3.25836
3.58599
4.01706
4.47388
4.86881
5.13512
5.46844
5.79106
5.51629
4.62054
3.32599
2.43779
2.29967
2.47505
2.78288
2.85699
2.87234
2.97255
3.09365
3.2106
3.33286
3.54966
3.98638
4.2896
4.18627
4.02165
3.91257
3.56135
2.95564
2.66229
2.90032
3.47072
4.01832
2.78679
2.85175
2.86048
2.96511
3.10947
3.23265
3.3398
3.58461
4.14804
4.60003
4.68796
4.72342
4.55525
3.74433
2.89186
2.62645
2.9614
3.53865
4.06552
2.92579
3.01269
3.02219
3.11634
3.24575
3.41402
3.66841
4.08337
4.69381
5.31608
5.87264
6.24588
6.27734
5.57425
4.17355
2.9186
2.37679
2.37602
2.55924
2.99328
3.06321
3.02466
3.04942
3.13213
3.38141
3.90868
4.72266
5.43365
5.84076
6.02191
5.61441
5.2999
6.2553
6.41887
4.9433
3.69202
2.5535
2.11017
2.94219
2.93643
2.7851
2.67696
2.66223
2.87421
3.44586
4.50596
5.53516
5.80996
5.24705
4.21127
3.39045
3.88104
5.43226
4.89898
3.66922
3.07101
1.64888
2.81233
2.71927
2.44697
2.21532
2.1148
2.23444
2.65958
3.51404
4.70818
5.02941
4.10643
3.04899
2.35327
2.36001
3.5003
3.43303
2.57674
1.89558
1.30749
2.62314
2.46058
2.10335
1.8044
1.66228
1.72082
2.01152
2.57477
3.44497
3.77597
3.10049
2.37696
1.83647
1.58388
2.20907
2.22037
1.65055
1.24735
0.986386
2.38595
2.19129
1.8047
1.49413
1.34253
1.37793
1.59113
1.96384
2.49038
2.81992
2.49386
1.99007
1.55089
1.30845
1.54843
1.58019
1.23832
0.984493
0.811429
2.11226
1.92031
1.55235
1.26818
1.1311
1.16398
1.33321
1.59548
1.93767
2.21505
2.10613
1.74628
1.3801
1.16675
1.20848
1.23149
1.00686
0.806219
0.648735
1.85985
1.69149
1.37126
1.12502
1.0042
1.03673
1.17775
1.382
1.63652
1.86509
1.85247
1.59034
1.27753
1.08194
1.04259
1.0448
0.881982
0.711405
0.551223
1.7006
1.54774
1.2742
1.06221
0.941862
0.96031
1.07566
1.24268
1.44962
1.6529
1.68985
1.49396
1.21655
1.02067
0.95553
0.938522
0.798893
0.642852
0.491588
4.30659
15.1015
6.45699
5.50028
6.54263
7.75537
8.37603
8.45881
8.24037
7.88771
7.51189
7.17034
6.89959
6.71466
6.62397
6.5981
6.61798
6.42854
6.00738
2.87753
3.88873
12.6168
4.90768
4.85772
5.94862
6.85983
7.36358
7.58307
7.62952
7.6081
7.53969
7.45676
7.38253
7.34075
7.3484
7.38084
7.40355
7.10034
6.4166
2.59449
3.69526
11.5792
3.80692
4.02672
5.12513
5.96765
6.52208
6.93304
7.24974
7.51489
7.7151
7.86549
7.9817
8.08237
8.18058
8.24366
8.21995
7.74228
6.75666
2.69725
3.38192
10.6276
2.95041
3.25533
4.13992
4.88004
5.49575
6.08965
6.63315
7.1273
7.55578
7.93113
8.25786
8.53679
8.7626
8.89804
8.87216
8.27373
7.02413
2.52754
3.09249
9.72451
2.09481
2.38493
3.23266
4.00355
4.6817
5.3852
6.05399
6.68114
7.2609
7.80458
8.30301
8.73217
9.07307
9.27015
9.21874
8.42124
6.78512
2.47616
2.7115
8.69065
1.51087
1.65908
2.43589
3.25084
3.9488
4.6816
5.40478
6.10764
6.78876
7.44842
8.0771
8.63468
9.08989
9.37075
9.35115
8.42652
6.62132
2.43266
2.21781
7.0385
1.07761
1.03475
1.72497
2.57521
3.23279
3.9405
4.68295
5.4421
6.21232
6.97792
7.72177
8.38936
8.93551
9.26013
9.24659
8.24096
6.38532
2.42584
1.93701
4.22483
0.804492
0.592134
1.11086
1.97062
2.57963
3.2461
3.99073
4.78987
5.62719
6.48004
7.32266
8.0943
8.73245
9.11322
9.14197
8.23645
6.50793
2.61463
1.9849
1.6486
0.383856
0.314579
0.646552
1.48889
2.0974
2.75869
3.51206
4.32917
5.18936
6.08027
6.98872
7.86039
8.61397
9.10883
9.22705
8.53343
6.97514
2.91052
2.16907
0.664642
0.170361
0.209004
0.438132
1.16265
1.81565
2.5652
3.37936
4.2132
5.05979
5.91865
6.82558
7.76691
8.66468
9.37365
9.69282
9.27523
7.76956
3.05179
2.17071
0.264431
0.0629129
0.108166
0.36057
0.900118
1.65133
2.51867
3.40882
4.24411
5.04052
5.77908
6.54405
7.35902
8.1529
8.76194
8.85462
8.16806
6.35458
2.34605
1.98383
0.137703
0.0412745
0.0712493
0.288982
0.734029
1.32968
2.04905
2.71259
3.3038
3.84054
4.28795
4.62484
4.8079
4.79172
4.53112
4.02567
3.4094
2.59427
0.523495
1.82539
0.149129
0.0251714
0.0382156
0.204805
0.403102
0.636423
0.880764
1.11743
1.30679
1.44948
1.52271
1.52225
1.49282
1.53734
1.70208
1.88626
1.79124
1.22795
1.5e-15
1.74408
0.171933
0.0178056
0.00423197
0.0357494
0.0542096
0.0978636
0.127801
0.155512
0.187643
0.228342
0.26899
0.304637
0.325732
0.378768
0.410172
0.572994
0.436518
8.02871e-08
0.012877
1.5893
0.160594
0.0143317
0.00183228
0.000950129
0.00163553
0.00234036
0.00315076
0.00387156
0.00462621
0.00578344
0.00717187
0.00843693
0.0105323
0.0181988
0.0357855
0.0651506
0.0669041
0.0317685
0.0269511
1.39327
0.0957851
0.00499147
0.000375469
4.44118e-05
9.77762e-06
5.28257e-06
3.03464e-06
2.87553e-06
2.84802e-06
3.11192e-06
3.70063e-06
5.66593e-06
1.10423e-05
3.78634e-05
0.000172724
0.000425807
0.00101074
0.00703598
0.015875
1.15904
0.022639
1.95645e-05
1.83093e-08
1.15349e-09
3.61194e-10
6.83146e-10
6.37161e-10
4.14147e-10
3.73818e-10
3.07084e-10
3.48411e-10
5.11451e-10
4.99617e-08
2.55267e-05
0.000574851
0.000598646
0.000801428
0.00948264
0.0224721
0.915097
0.00740278
5.98838e-08
2.18875e-08
1.57753e-08
1.4484e-08
1.79098e-08
1.64283e-08
1.39643e-08
1.26698e-08
1.12234e-08
1.03025e-08
3.21113e-08
1.23371e-05
0.000964992
0.00638644
0.0188411
0.0222633
0.0123806
0.0293096
0.773418
0.001391
2.4065e-06
2.2546e-06
2.19431e-06
2.1079e-06
2.03803e-06
1.9668e-06
1.89843e-06
1.83127e-06
1.76476e-06
1.6964e-06
1.61835e-06
1.51819e-06
1.387e-06
1.59988e-06
4.16271e-05
0.00172192
0.022527
0.214558
0.692191
0.000731181
0.000695088
0.000695193
0.000695163
0.00069528
0.000695222
0.000695064
0.000695083
0.000695077
0.000695189
0.000695141
0.000695011
0.000695164
0.000695174
0.000695187
0.000694859
0.000688097
0.00181539
0.851948
0.692192
0.000731172
0.000695086
0.000695198
0.000695189
0.000695208
0.000695229
0.000695206
0.000695098
0.000695222
0.000695148
0.000695026
0.000695107
0.000695115
0.000695125
0.000695191
0.000694865
0.000688094
0.00181514
0.851496
0.773396
0.00139802
2.40663e-06
2.25491e-06
2.19449e-06
2.10868e-06
2.03841e-06
1.96686e-06
1.89902e-06
1.83124e-06
1.76556e-06
1.69744e-06
1.61869e-06
1.5192e-06
1.39067e-06
1.94884e-06
6.78655e-05
0.00199483
0.020724
0.1971
0.914975
0.00754505
6.02011e-08
2.23467e-08
2.61082e-08
2.40896e-08
1.73693e-08
1.57801e-08
1.34888e-08
1.26985e-08
1.1213e-08
1.10883e-08
4.09581e-07
0.000135356
0.00371815
0.0130757
0.0231776
0.0154751
0.0010856
0.016663
1.15913
0.0221447
1.36426e-05
1.62852e-08
2.5777e-09
1.08399e-09
6.49021e-10
5.93509e-10
3.1686e-10
3.45506e-10
2.74769e-10
3.18089e-10
7.04877e-10
4.75582e-07
0.000139093
0.00264063
0.00208352
0.00169415
0.00124154
0.0111041
1.39362
0.0951441
0.00464082
0.000331085
3.83819e-05
6.10131e-06
2.34301e-06
1.24644e-06
6.85819e-07
5.13109e-07
5.46369e-07
6.89531e-07
1.74521e-06
1.72123e-06
3.63535e-05
0.000325046
0.000403165
0.000630273
0.0012771
0.00630053
1.58951
0.161691
0.0143899
0.00175728
0.000451051
0.00129892
0.00118255
0.000929246
0.000948477
0.00125598
0.00182868
0.00217861
0.00276676
0.00394137
0.011177
0.00915266
0.00430228
0.0103604
0.00561412
0.0101981
1.74406
0.172491
0.0178238
0.00389194
0.0206992
0.0461679
0.039171
0.0405313
0.0395382
0.0234933
0.040096
0.0591199
0.12336
0.51656
1.5e-15
1.5e-15
1.5e-15
1.5e-15
0.0049894
0.0604046
1.817
0.148289
0.0236246
0.0446775
0.132829
0.241777
0.35808
0.43832
0.494967
0.492186
0.410115
0.25832
0.101381
1.5e-15
0.1105
0.681626
1.5e-15
3.01522
0.2146
0.167884
1.97891
0.137148
0.0440804
0.111679
0.308371
0.67637
1.14418
1.6732
2.18582
2.62101
3.00063
3.31171
3.56653
3.73535
3.76639
3.59142
3.17942
2.99461
2.78502
0.923767
2.16669
0.276535
0.062465
0.132527
0.371755
0.794809
1.3489
2.09528
2.93716
3.73332
4.50531
5.25527
6.04778
6.89611
7.73657
8.40938
8.55251
7.88175
6.01251
2.30581
2.18147
0.645676
0.146996
0.172031
0.479247
0.966076
1.51528
2.2192
3.03585
3.86974
4.71375
5.57726
6.48833
7.43818
8.35926
9.11269
9.48924
9.15221
7.71443
3.01265
1.99488
1.66646
0.39661
0.297152
0.674367
1.2501
1.80157
2.46318
3.23267
4.05931
4.91814
5.80062
6.6967
7.56431
8.33281
8.87632
9.08178
8.53545
7.108
2.9619
1.93571
4.26008
0.783894
0.538298
1.04085
1.7064
2.28282
2.94618
3.69778
4.49817
5.32721
6.16497
6.99434
7.76559
8.42761
8.87273
9.02862
8.33059
6.73635
2.70703
2.23483
7.15231
1.0525
0.944081
1.56579
2.27725
2.91334
3.61272
4.34988
5.10203
5.85964
6.61022
7.34115
8.00868
8.58084
8.97009
9.10499
8.3257
6.58409
2.51342
2.7308
8.80231
1.50544
1.54414
2.22327
2.9348
3.60993
4.33239
5.04746
5.73745
6.39964
7.03816
7.64932
8.201
8.67283
8.99865
9.09552
8.34033
6.60529
2.42442
3.11463
9.8411
2.01374
2.2416
2.97286
3.65828
4.32311
5.0211
5.68276
6.29566
6.85423
7.37405
7.85092
8.26625
8.60776
8.82344
8.83201
8.13223
6.55524
2.38761
3.40274
10.7108
2.86895
3.06226
3.84989
4.53322
5.13259
5.71798
6.25558
6.73987
7.15508
7.51519
7.8266
8.09207
8.30722
8.43856
8.42853
7.87166
6.67073
2.39119
3.71577
11.6302
3.67062
3.82607
4.85231
5.62352
6.14624
6.54979
6.86713
7.13392
7.33553
7.48696
7.60281
7.69966
7.78795
7.83827
7.815
7.37474
6.4556
2.56055
3.90944
12.6274
4.76752
4.62169
5.66172
6.50916
6.98363
7.19975
7.25755
7.25127
7.19963
7.13278
7.07159
7.03627
7.03988
7.05873
7.0724
6.79273
6.1752
2.45975
4.31994
15.0876
6.34156
5.29267
6.27859
7.42091
8.00179
8.08886
7.89559
7.57139
7.2199
6.89976
6.64587
6.4712
6.38197
6.34746
6.35423
6.16577
5.78967
2.77184
)
;

boundaryField
{
    outletWall
    {
        type            calculated;
        value           nonuniform List<scalar> 
60
(
0.303258
0.435546
0.551385
0.661551
0.726034
0.768197
0.913038
1.24684
1.67801
1.94212
1.75563
1.3025
0.995508
0.816991
0.706059
0.668413
0.738945
0.898852
1.12867
1.28813
1.7006
1.85985
2.11226
2.38595
2.62314
2.81233
2.94219
2.99328
2.92579
2.78679
2.78288
2.85228
2.81006
2.64318
2.41199
2.15174
1.8859
1.62698
1.41506
1.28813
0.344741
0.491588
0.642852
0.798893
0.938522
0.95553
1.02067
1.21655
1.49396
1.68985
1.6529
1.44962
1.24268
1.07566
0.96031
0.941862
1.06221
1.2742
1.54774
1.7006
)
;
    }
    fineWalls
    {
        type            calculated;
        value           nonuniform List<scalar> 
60
(
0.913492
0.901996
0.902752
0.717686
0.689801
0.693058
0.57924
0.562932
0.574742
0.479586
0.458119
0.464826
0.392911
0.37026
0.365613
0.391818
0.354162
0.344925
0.360226
0.344741
3.01129
2.87721
2.75609
2.63804
2.39798
1.97825
1.82965
1.76184
1.84095
1.66653
1.67071
1.85666
1.79339
1.87369
2.03829
2.47516
2.73068
2.86158
2.99396
3.13012
0.303258
0.318829
0.305296
0.312291
0.344705
0.322291
0.327732
0.348487
0.414166
0.411492
0.431674
0.523807
0.51696
0.537137
0.655627
0.655348
0.687982
0.881831
0.876267
0.888235
)
;
    }
    fineFrontAndBack
    {
        type            calculated;
        value           nonuniform List<scalar> 
960
(
0.344741
0.360226
0.344925
0.354162
0.391818
0.365613
0.37026
0.392911
0.464826
0.458119
0.479586
0.574742
0.562932
0.57924
0.693058
0.689801
0.717686
0.902752
0.901996
0.913492
1.12833
2.26147
2.39383
2.41339
2.49969
2.68724
1.87146
2.23718
2.46489
2.64452
2.79179
2.91607
3.0221
3.10983
3.18322
3.2386
3.28771
3.30866
3.32608
3.25347
3.13012
2.99396
2.86158
2.73068
2.47516
2.03829
1.87369
1.79339
1.85666
1.67071
1.66653
1.84095
1.76184
1.82965
1.97825
2.39798
2.63804
2.75609
2.87721
3.01129
3.12993
3.19517
3.17924
3.16003
3.11199
3.05635
2.98266
2.89533
2.79104
2.66996
2.52715
2.35332
2.13353
1.79135
2.6081
2.43796
2.37117
2.36712
2.23683
1.10265
0.888235
0.876267
0.881831
0.687982
0.655348
0.655627
0.537137
0.51696
0.523807
0.431674
0.411492
0.414166
0.348487
0.327732
0.322291
0.344705
0.312291
0.305296
0.318829
0.303258
1.28813
1.12867
0.898852
0.738945
0.668413
0.706059
0.816991
0.995508
1.3025
1.75563
1.94212
1.67801
1.24684
0.913038
0.768197
0.726034
0.661551
0.551385
0.435546
1.41506
1.23371
0.960797
0.778417
0.714602
0.77795
0.932669
1.1843
1.60314
2.15125
2.22337
1.83532
1.34119
0.985457
0.829013
0.796985
0.724612
0.606889
0.485423
1.62698
1.40916
1.08546
0.879908
0.812327
0.900429
1.12278
1.49848
2.13746
2.83615
2.60314
2.07477
1.50615
1.10336
0.929969
0.945114
0.840718
0.695136
0.575126
1.8859
1.64877
1.2887
1.05622
0.987121
1.11576
1.45803
2.06882
3.20454
3.81387
3.12518
2.40206
1.76408
1.29083
1.11587
1.22678
1.05188
0.872115
0.743506
2.15174
1.92844
1.56332
1.32399
1.26652
1.45402
1.95213
2.86458
4.30368
4.82741
3.9455
2.88617
2.13056
1.59109
1.49012
1.71188
1.40646
1.12981
0.94146
2.41199
2.24508
1.92361
1.71216
1.69083
1.96013
2.63237
3.87792
5.22697
5.615
5.00211
3.77742
2.73511
2.1421
2.34823
2.75863
2.3145
1.83056
1.28744
2.64318
2.56556
2.33674
2.19289
2.22469
2.55959
3.32465
4.59205
5.55374
5.85743
5.6792
4.956
3.86976
3.26862
4.00041
4.61034
3.82453
3.27227
1.55997
2.81006
2.82849
2.72123
2.67839
2.75588
3.07388
3.71299
4.59135
5.20695
5.53065
5.76357
5.88529
5.50472
5.47901
6.37273
5.97037
4.17998
2.44847
1.99836
2.85228
2.9298
2.91963
2.9699
3.06366
3.25836
3.58599
4.01706
4.47388
4.86881
5.13512
5.46844
5.79106
5.51629
4.62054
3.32599
2.43779
2.29967
2.47505
2.78288
2.85699
2.87234
2.97255
3.09365
3.2106
3.33286
3.54966
3.98638
4.2896
4.18627
4.02165
3.91257
3.56135
2.95564
2.66229
2.90032
3.47072
4.01832
2.78679
2.85175
2.86048
2.96511
3.10947
3.23265
3.3398
3.58461
4.14804
4.60003
4.68796
4.72342
4.55525
3.74433
2.89186
2.62645
2.9614
3.53865
4.06552
2.92579
3.01269
3.02219
3.11634
3.24575
3.41402
3.66841
4.08337
4.69381
5.31608
5.87264
6.24588
6.27734
5.57425
4.17355
2.9186
2.37679
2.37602
2.55924
2.99328
3.06321
3.02466
3.04942
3.13213
3.38141
3.90868
4.72266
5.43365
5.84076
6.02191
5.61441
5.2999
6.2553
6.41887
4.9433
3.69202
2.5535
2.11017
2.94219
2.93643
2.7851
2.67696
2.66223
2.87421
3.44586
4.50596
5.53516
5.80996
5.24705
4.21127
3.39045
3.88104
5.43226
4.89898
3.66922
3.07101
1.64888
2.81233
2.71927
2.44697
2.21532
2.1148
2.23444
2.65958
3.51404
4.70818
5.02941
4.10643
3.04899
2.35327
2.36001
3.5003
3.43303
2.57674
1.89558
1.30749
2.62314
2.46058
2.10335
1.8044
1.66228
1.72082
2.01152
2.57477
3.44497
3.77597
3.10049
2.37696
1.83647
1.58388
2.20907
2.22037
1.65055
1.24735
0.986386
2.38595
2.19129
1.8047
1.49413
1.34253
1.37793
1.59113
1.96384
2.49038
2.81992
2.49386
1.99007
1.55089
1.30845
1.54843
1.58019
1.23832
0.984493
0.811429
2.11226
1.92031
1.55235
1.26818
1.1311
1.16398
1.33321
1.59548
1.93767
2.21505
2.10613
1.74628
1.3801
1.16675
1.20848
1.23149
1.00686
0.806219
0.648735
1.85985
1.69149
1.37126
1.12502
1.0042
1.03673
1.17775
1.382
1.63652
1.86509
1.85247
1.59034
1.27753
1.08194
1.04259
1.0448
0.881982
0.711405
0.551223
1.7006
1.54774
1.2742
1.06221
0.941862
0.96031
1.07566
1.24268
1.44962
1.6529
1.68985
1.49396
1.21655
1.02067
0.95553
0.938522
0.798893
0.642852
0.491588
0.344741
0.360226
0.344925
0.354162
0.391818
0.365613
0.37026
0.392911
0.464826
0.458119
0.479586
0.574742
0.562932
0.57924
0.693058
0.689801
0.717686
0.902752
0.901996
0.913492
1.12833
2.26147
2.39383
2.41339
2.49969
2.68724
1.87146
2.23718
2.46489
2.64452
2.79179
2.91607
3.0221
3.10983
3.18322
3.2386
3.28771
3.30866
3.32608
3.25347
3.13012
2.99396
2.86158
2.73068
2.47516
2.03829
1.87369
1.79339
1.85666
1.67071
1.66653
1.84095
1.76184
1.82965
1.97825
2.39798
2.63804
2.75609
2.87721
3.01129
3.12993
3.19517
3.17924
3.16003
3.11199
3.05635
2.98266
2.89533
2.79104
2.66996
2.52715
2.35332
2.13353
1.79135
2.6081
2.43796
2.37117
2.36712
2.23683
1.10265
0.888235
0.876267
0.881831
0.687982
0.655348
0.655627
0.537137
0.51696
0.523807
0.431674
0.411492
0.414166
0.348487
0.327732
0.322291
0.344705
0.312291
0.305296
0.318829
0.303258
1.28813
1.12867
0.898852
0.738945
0.668413
0.706059
0.816991
0.995508
1.3025
1.75563
1.94212
1.67801
1.24684
0.913038
0.768197
0.726034
0.661551
0.551385
0.435546
1.41506
1.23371
0.960797
0.778417
0.714602
0.77795
0.932669
1.1843
1.60314
2.15125
2.22337
1.83532
1.34119
0.985457
0.829013
0.796985
0.724612
0.606889
0.485423
1.62698
1.40916
1.08546
0.879908
0.812327
0.900429
1.12278
1.49848
2.13746
2.83615
2.60314
2.07477
1.50615
1.10336
0.929969
0.945114
0.840718
0.695136
0.575126
1.8859
1.64877
1.2887
1.05622
0.987121
1.11576
1.45803
2.06882
3.20454
3.81387
3.12518
2.40206
1.76408
1.29083
1.11587
1.22678
1.05188
0.872115
0.743506
2.15174
1.92844
1.56332
1.32399
1.26652
1.45402
1.95213
2.86458
4.30368
4.82741
3.9455
2.88617
2.13056
1.59109
1.49012
1.71188
1.40646
1.12981
0.94146
2.41199
2.24508
1.92361
1.71216
1.69083
1.96013
2.63237
3.87792
5.22697
5.615
5.00211
3.77742
2.73511
2.1421
2.34823
2.75863
2.3145
1.83056
1.28744
2.64318
2.56556
2.33674
2.19289
2.22469
2.55959
3.32465
4.59205
5.55374
5.85743
5.6792
4.956
3.86976
3.26862
4.00041
4.61034
3.82453
3.27227
1.55997
2.81006
2.82849
2.72123
2.67839
2.75588
3.07388
3.71299
4.59135
5.20695
5.53065
5.76357
5.88529
5.50472
5.47901
6.37273
5.97037
4.17998
2.44847
1.99836
2.85228
2.9298
2.91963
2.9699
3.06366
3.25836
3.58599
4.01706
4.47388
4.86881
5.13512
5.46844
5.79106
5.51629
4.62054
3.32599
2.43779
2.29967
2.47505
2.78288
2.85699
2.87234
2.97255
3.09365
3.2106
3.33286
3.54966
3.98638
4.2896
4.18627
4.02165
3.91257
3.56135
2.95564
2.66229
2.90032
3.47072
4.01832
2.78679
2.85175
2.86048
2.96511
3.10947
3.23265
3.3398
3.58461
4.14804
4.60003
4.68796
4.72342
4.55525
3.74433
2.89186
2.62645
2.9614
3.53865
4.06552
2.92579
3.01269
3.02219
3.11634
3.24575
3.41402
3.66841
4.08337
4.69381
5.31608
5.87264
6.24588
6.27734
5.57425
4.17355
2.9186
2.37679
2.37602
2.55924
2.99328
3.06321
3.02466
3.04942
3.13213
3.38141
3.90868
4.72266
5.43365
5.84076
6.02191
5.61441
5.2999
6.2553
6.41887
4.9433
3.69202
2.5535
2.11017
2.94219
2.93643
2.7851
2.67696
2.66223
2.87421
3.44586
4.50596
5.53516
5.80996
5.24705
4.21127
3.39045
3.88104
5.43226
4.89898
3.66922
3.07101
1.64888
2.81233
2.71927
2.44697
2.21532
2.1148
2.23444
2.65958
3.51404
4.70818
5.02941
4.10643
3.04899
2.35327
2.36001
3.5003
3.43303
2.57674
1.89558
1.30749
2.62314
2.46058
2.10335
1.8044
1.66228
1.72082
2.01152
2.57477
3.44497
3.77597
3.10049
2.37696
1.83647
1.58388
2.20907
2.22037
1.65055
1.24735
0.986386
2.38595
2.19129
1.8047
1.49413
1.34253
1.37793
1.59113
1.96384
2.49038
2.81992
2.49386
1.99007
1.55089
1.30845
1.54843
1.58019
1.23832
0.984493
0.811429
2.11226
1.92031
1.55235
1.26818
1.1311
1.16398
1.33321
1.59548
1.93767
2.21505
2.10613
1.74628
1.3801
1.16675
1.20848
1.23149
1.00686
0.806219
0.648735
1.85985
1.69149
1.37126
1.12502
1.0042
1.03673
1.17775
1.382
1.63652
1.86509
1.85247
1.59034
1.27753
1.08194
1.04259
1.0448
0.881982
0.711405
0.551223
1.7006
1.54774
1.2742
1.06221
0.941862
0.96031
1.07566
1.24268
1.44962
1.6529
1.68985
1.49396
1.21655
1.02067
0.95553
0.938522
0.798893
0.642852
0.491588
)
;
    }
    fineplugLeft
    {
        type            cyclicAMI;
        value           nonuniform List<scalar> 
20
(
2.95272
5.47112
5.80457
5.95193
5.9262
5.93582
5.99369
6.1241
6.31948
6.56787
6.83908
7.08527
7.21449
7.63641
6.74174
5.73404
4.8829
5.64435
12.5335
3.67094
)
;
    }
    fineplugRight
    {
        type            cyclicAMI;
        value           nonuniform List<scalar> 
20
(
2.84346
5.27077
5.56846
5.71539
5.70037
5.71685
5.77349
5.89576
6.07802
6.30991
6.56254
6.78713
6.8978
7.29561
6.45835
5.51046
4.70837
5.54667
12.5174
3.67648
)
;
    }
    inletOutletLeft
    {
        type            cyclicAMI;
        value           nonuniform List<scalar> 
20
(
2.95272
5.47112
5.80457
5.95193
5.9262
5.93582
5.99369
6.1241
6.31948
6.56787
6.83908
7.08527
7.21449
7.63641
6.74174
5.73404
4.8829
5.64435
12.5335
3.67094
)
;
    }
    inletLeft
    {
        type            calculated;
        value           uniform 1.13;
    }
    inletWallsLeft
    {
        type            calculated;
        value           nonuniform List<scalar> 
40
(
0.692191
0.773418
0.915097
1.15904
1.39327
1.5893
1.74408
1.82539
1.98383
2.17071
2.16907
1.9849
1.93701
2.21781
2.7115
3.09249
3.38192
3.69526
3.88873
4.30659
2.87753
2.59449
2.69725
2.52754
2.47616
2.43266
2.42584
2.61463
2.91052
3.05179
2.34605
0.523495
1.5e-15
0.012877
0.0269511
0.015875
0.0224721
0.0293096
0.214558
0.851948
)
;
    }
    inletFacesLeft
    {
        type            calculated;
        value           nonuniform List<scalar> 
800
(
4.30659
15.1015
6.45699
5.50028
6.54263
7.75537
8.37603
8.45881
8.24037
7.88771
7.51189
7.17034
6.89959
6.71466
6.62397
6.5981
6.61798
6.42854
6.00738
2.87753
3.88873
12.6168
4.90768
4.85772
5.94862
6.85983
7.36358
7.58307
7.62952
7.6081
7.53969
7.45676
7.38253
7.34075
7.3484
7.38084
7.40355
7.10034
6.4166
2.59449
3.69526
11.5792
3.80692
4.02672
5.12513
5.96765
6.52208
6.93304
7.24974
7.51489
7.7151
7.86549
7.9817
8.08237
8.18058
8.24366
8.21995
7.74228
6.75666
2.69725
3.38192
10.6276
2.95041
3.25533
4.13992
4.88004
5.49575
6.08965
6.63315
7.1273
7.55578
7.93113
8.25786
8.53679
8.7626
8.89804
8.87216
8.27373
7.02413
2.52754
3.09249
9.72451
2.09481
2.38493
3.23266
4.00355
4.6817
5.3852
6.05399
6.68114
7.2609
7.80458
8.30301
8.73217
9.07307
9.27015
9.21874
8.42124
6.78512
2.47616
2.7115
8.69065
1.51087
1.65908
2.43589
3.25084
3.9488
4.6816
5.40478
6.10764
6.78876
7.44842
8.0771
8.63468
9.08989
9.37075
9.35115
8.42652
6.62132
2.43266
2.21781
7.0385
1.07761
1.03475
1.72497
2.57521
3.23279
3.9405
4.68295
5.4421
6.21232
6.97792
7.72177
8.38936
8.93551
9.26013
9.24659
8.24096
6.38532
2.42584
1.93701
4.22483
0.804492
0.592134
1.11086
1.97062
2.57963
3.2461
3.99073
4.78987
5.62719
6.48004
7.32266
8.0943
8.73245
9.11322
9.14197
8.23645
6.50793
2.61463
1.9849
1.6486
0.383856
0.314579
0.646552
1.48889
2.0974
2.75869
3.51206
4.32917
5.18936
6.08027
6.98872
7.86039
8.61397
9.10883
9.22705
8.53343
6.97514
2.91052
2.16907
0.664642
0.170361
0.209004
0.438132
1.16265
1.81565
2.5652
3.37936
4.2132
5.05979
5.91865
6.82558
7.76691
8.66468
9.37365
9.69282
9.27523
7.76956
3.05179
2.17071
0.264431
0.0629129
0.108166
0.36057
0.900118
1.65133
2.51867
3.40882
4.24411
5.04052
5.77908
6.54405
7.35902
8.1529
8.76194
8.85462
8.16806
6.35458
2.34605
1.98383
0.137703
0.0412745
0.0712493
0.288982
0.734029
1.32968
2.04905
2.71259
3.3038
3.84054
4.28795
4.62484
4.8079
4.79172
4.53112
4.02567
3.4094
2.59427
0.523495
1.82539
0.149129
0.0251714
0.0382156
0.204805
0.403102
0.636423
0.880764
1.11743
1.30679
1.44948
1.52271
1.52225
1.49282
1.53734
1.70208
1.88626
1.79124
1.22795
1.5e-15
1.74408
0.171933
0.0178056
0.00423197
0.0357494
0.0542096
0.0978636
0.127801
0.155512
0.187643
0.228342
0.26899
0.304637
0.325732
0.378768
0.410172
0.572994
0.436518
8.02871e-08
0.012877
1.5893
0.160594
0.0143317
0.00183228
0.000950129
0.00163553
0.00234036
0.00315076
0.00387156
0.00462621
0.00578344
0.00717187
0.00843693
0.0105323
0.0181988
0.0357855
0.0651506
0.0669041
0.0317685
0.0269511
1.39327
0.0957851
0.00499147
0.000375469
4.44118e-05
9.77762e-06
5.28257e-06
3.03464e-06
2.87553e-06
2.84802e-06
3.11192e-06
3.70063e-06
5.66593e-06
1.10423e-05
3.78634e-05
0.000172724
0.000425807
0.00101074
0.00703598
0.015875
1.15904
0.022639
1.95645e-05
1.83093e-08
1.15349e-09
3.61194e-10
6.83146e-10
6.37161e-10
4.14147e-10
3.73818e-10
3.07084e-10
3.48411e-10
5.11451e-10
4.99617e-08
2.55267e-05
0.000574851
0.000598646
0.000801428
0.00948264
0.0224721
0.915097
0.00740278
5.98838e-08
2.18875e-08
1.57753e-08
1.4484e-08
1.79098e-08
1.64283e-08
1.39643e-08
1.26698e-08
1.12234e-08
1.03025e-08
3.21113e-08
1.23371e-05
0.000964992
0.00638644
0.0188411
0.0222633
0.0123806
0.0293096
0.773418
0.001391
2.4065e-06
2.2546e-06
2.19431e-06
2.1079e-06
2.03803e-06
1.9668e-06
1.89843e-06
1.83127e-06
1.76476e-06
1.6964e-06
1.61835e-06
1.51819e-06
1.387e-06
1.59988e-06
4.16271e-05
0.00172192
0.022527
0.214558
0.692191
0.000731181
0.000695088
0.000695193
0.000695163
0.00069528
0.000695222
0.000695064
0.000695083
0.000695077
0.000695189
0.000695141
0.000695011
0.000695164
0.000695174
0.000695187
0.000694859
0.000688097
0.00181539
0.851948
4.30659
15.1015
6.45699
5.50028
6.54263
7.75537
8.37603
8.45881
8.24037
7.88771
7.51189
7.17034
6.89959
6.71466
6.62397
6.5981
6.61798
6.42854
6.00738
2.87753
3.88873
12.6168
4.90768
4.85772
5.94862
6.85983
7.36358
7.58307
7.62952
7.6081
7.53969
7.45676
7.38253
7.34075
7.3484
7.38084
7.40355
7.10034
6.4166
2.59449
3.69526
11.5792
3.80692
4.02672
5.12513
5.96765
6.52208
6.93304
7.24974
7.51489
7.7151
7.86549
7.9817
8.08237
8.18058
8.24366
8.21995
7.74228
6.75666
2.69725
3.38192
10.6276
2.95041
3.25533
4.13992
4.88004
5.49575
6.08965
6.63315
7.1273
7.55578
7.93113
8.25786
8.53679
8.7626
8.89804
8.87216
8.27373
7.02413
2.52754
3.09249
9.72451
2.09481
2.38493
3.23266
4.00355
4.6817
5.3852
6.05399
6.68114
7.2609
7.80458
8.30301
8.73217
9.07307
9.27015
9.21874
8.42124
6.78512
2.47616
2.7115
8.69065
1.51087
1.65908
2.43589
3.25084
3.9488
4.6816
5.40478
6.10764
6.78876
7.44842
8.0771
8.63468
9.08989
9.37075
9.35115
8.42652
6.62132
2.43266
2.21781
7.0385
1.07761
1.03475
1.72497
2.57521
3.23279
3.9405
4.68295
5.4421
6.21232
6.97792
7.72177
8.38936
8.93551
9.26013
9.24659
8.24096
6.38532
2.42584
1.93701
4.22483
0.804492
0.592134
1.11086
1.97062
2.57963
3.2461
3.99073
4.78987
5.62719
6.48004
7.32266
8.0943
8.73245
9.11322
9.14197
8.23645
6.50793
2.61463
1.9849
1.6486
0.383856
0.314579
0.646552
1.48889
2.0974
2.75869
3.51206
4.32917
5.18936
6.08027
6.98872
7.86039
8.61397
9.10883
9.22705
8.53343
6.97514
2.91052
2.16907
0.664642
0.170361
0.209004
0.438132
1.16265
1.81565
2.5652
3.37936
4.2132
5.05979
5.91865
6.82558
7.76691
8.66468
9.37365
9.69282
9.27523
7.76956
3.05179
2.17071
0.264431
0.0629129
0.108166
0.36057
0.900118
1.65133
2.51867
3.40882
4.24411
5.04052
5.77908
6.54405
7.35902
8.1529
8.76194
8.85462
8.16806
6.35458
2.34605
1.98383
0.137703
0.0412745
0.0712493
0.288982
0.734029
1.32968
2.04905
2.71259
3.3038
3.84054
4.28795
4.62484
4.8079
4.79172
4.53112
4.02567
3.4094
2.59427
0.523495
1.82539
0.149129
0.0251714
0.0382156
0.204805
0.403102
0.636423
0.880764
1.11743
1.30679
1.44948
1.52271
1.52225
1.49282
1.53734
1.70208
1.88626
1.79124
1.22795
1.5e-15
1.74408
0.171933
0.0178056
0.00423197
0.0357494
0.0542096
0.0978636
0.127801
0.155512
0.187643
0.228342
0.26899
0.304637
0.325732
0.378768
0.410172
0.572994
0.436518
8.02871e-08
0.012877
1.5893
0.160594
0.0143317
0.00183228
0.000950129
0.00163553
0.00234036
0.00315076
0.00387156
0.00462621
0.00578344
0.00717187
0.00843693
0.0105323
0.0181988
0.0357855
0.0651506
0.0669041
0.0317685
0.0269511
1.39327
0.0957851
0.00499147
0.000375469
4.44118e-05
9.77762e-06
5.28257e-06
3.03464e-06
2.87553e-06
2.84802e-06
3.11192e-06
3.70063e-06
5.66593e-06
1.10423e-05
3.78634e-05
0.000172724
0.000425807
0.00101074
0.00703598
0.015875
1.15904
0.022639
1.95645e-05
1.83093e-08
1.15349e-09
3.61194e-10
6.83146e-10
6.37161e-10
4.14147e-10
3.73818e-10
3.07084e-10
3.48411e-10
5.11451e-10
4.99617e-08
2.55267e-05
0.000574851
0.000598646
0.000801428
0.00948264
0.0224721
0.915097
0.00740278
5.98838e-08
2.18875e-08
1.57753e-08
1.4484e-08
1.79098e-08
1.64283e-08
1.39643e-08
1.26698e-08
1.12234e-08
1.03025e-08
3.21113e-08
1.23371e-05
0.000964992
0.00638644
0.0188411
0.0222633
0.0123806
0.0293096
0.773418
0.001391
2.4065e-06
2.2546e-06
2.19431e-06
2.1079e-06
2.03803e-06
1.9668e-06
1.89843e-06
1.83127e-06
1.76476e-06
1.6964e-06
1.61835e-06
1.51819e-06
1.387e-06
1.59988e-06
4.16271e-05
0.00172192
0.022527
0.214558
0.692191
0.000731181
0.000695088
0.000695193
0.000695163
0.00069528
0.000695222
0.000695064
0.000695083
0.000695077
0.000695189
0.000695141
0.000695011
0.000695164
0.000695174
0.000695187
0.000694859
0.000688097
0.00181539
0.851948
)
;
    }
    inletOutletRight
    {
        type            cyclicAMI;
        value           nonuniform List<scalar> 
20
(