/*--------------------------------*- C++ -*----------------------------------*\
| =========                 |                                                 |
| \\      /  F ield         | OpenFOAM: The Open Source CFD Toolbox           |
|  \\    /   O peration     | Version:  4.1                                   |
|   \\  /    A nd           | Web:      www.OpenFOAM.org                      |
|    \\/     M anipulation  |                                                 |
\*---------------------------------------------------------------------------*/
FoamFile
{
    version     2.0;
    format      ascii;
    class       volScalarField;
    location    "24";
    object      p;
}
// * * * * * * * * * * * * * * * * * * * * * * * * * * * * * * * * * * * * * //

dimensions      [0 2 -2 0 0 0 0];

internalField   nonuniform List<scalar> 
1280
(
1.38903
0.414388
1.30319
3.60957
5.13705
5.60294
6.06757
7.18337
7.88954
7.92147
8.36216
8.08821
7.66066
7.17024
6.80339
3.1546
1.5013
-2.94701
-2.19211
-24.6757
-3.59887
17.4842
27.6035
25.2816
22.9374
29.2296
12.4898
13.6493
11.2545
10.0817
8.75546
7.28898
6.07427
4.1095
2.50677
-0.119337
-1.65814
-4.59864
-4.46136
1.86929
-9.95676
-5.42755
0.329408
5.5487
17.2676
17.4249
17.4332
17.4584
17.1674
17.4767
17.3645
17.1837
17.7033
17.6834
17.4439
18.2386
6.19275
0.802126
-6.09833
-6.74293
9.19493
-0.769332
-5.34763
-3.38498
-2.36828
0.262765
1.69843
3.76538
5.03941
6.35182
7.2947
7.98018
8.42099
-2.37681
31.1223
24.3999
21.2756
22.7827
11.8082
-8.38967
-24.2038
-7.25815
-8.79671
-5.56402
-3.70986
-1.23512
-1.01451
0.0789104
0.566202
0.864121
1.18567
1.099
1.29829
1.32474
1.45975
1.30222
0.799499
0.802077
0.335595
0.378007
-0.886373
-0.401738
-2.3591
-2.48187
-2.1821
-1.73535
-2.5737
-2.27351
-3.58933
-0.0240732
3.65984
4.0446
1.1402
-1.28262
-2.71483
-2.37808
-0.603569
-0.0365254
0.377211
-2.29081
-2.52638
-5.08888
-3.59396
-1.78737
-0.443478
-3.03359
-3.1286
-3.49427
3.19629
11.4493
14.3647
8.8678
-2.58802
-11.5186
-10.7292
-3.26624
-0.416111
0.704324
-1.82875
-3.3523
-6.20505
-4.5256
-2.57957
-1.67036
-5.87204
-4.22401
-4.45454
4.00039
16.6941
23.8457
15.1532
-6.8812
-24.1106
-21.5587
-5.30951
-0.446688
0.805797
-1.81194
-4.42988
-6.13466
-4.08806
-1.821
-1.25075
-6.17014
-4.55109
-5.60149
4.56516
22.4576
33.5318
20.3217
-7.94199
-30.9913
-29.1726
-7.31391
0.0744301
1.63737
-0.389188
-3.61766
-4.66488
-2.98473
-1.06816
-1.23025
-6.59996
-5.00353
-6.20978
5.02294
27.2674
39.9378
24.2282
-6.97612
-33.1821
-30.6983
-8.35296
0.69207
2.04505
0.507916
-2.69811
-2.91903
-1.53622
-0.145242
-0.903644
-6.21161
-5.10826
-6.4593
4.7021
29.8116
40.9301
26.4842
-3.72815
-31.6421
-29.3195
-7.93436
3.60478
4.15915
1.59815
-1.25588
-1.01105
-0.358352
0.528752
-0.657253
-5.40736
-4.98998
-6.48991
3.3552
26.7381
35.4584
23.3418
-0.973399
-26.89
-25.3615
-6.31719
2.77079
3.94486
2.41124
-0.390339
0.430401
0.513758
1.12376
-0.207691
-3.99721
-4.36923
-6.09567
1.06393
17.6687
24.2628
16.3962
1.80073
-19.4665
-23.4204
-5.59007
10.8111
7.5014
3.03298
0.410698
1.51205
1.417
1.75368
0.396969
-2.2867
-3.57776
-5.5511
-2.10909
6.74158
12.4742
11.9062
7.67299
-1.53109
-8.04409
-0.6829
15.2457
24.5652
3.18654
1.05043
2.45545
2.5128
2.5161
0.98792
-0.755648
-2.7373
-5.14567
-5.61925
-1.24175
4.85249
12.018
13.7108
13.0888
9.77696
13.0626
29.7001
17.4318
3.08979
1.49485
3.40175
3.82397
3.45149
1.56629
0.106975
-2.11164
-5.23677
-9.19076
-5.58537
0.719002
12.362
18.7323
23.9955
20.1213
16.7654
30.2004
19.4718
2.84458
1.80414
4.47259
5.45678
4.70819
2.33489
0.224995
-1.99323
-5.88784
-13.2375
-11.7696
-3.74721
11.1084
20.7063
33.8561
30.0497
19.9205
18.4609
24.3879
2.49076
2.14708
5.79973
7.69987
6.72434
3.654
0.128929
-2.5766
-7.08317
-17.7473
-20.4449
-8.65275
10.1486
20.3193
28.2435
30.6805
21.0238
-1.78614
-4.40007
2.02402
2.51707
7.20868
10.4775
9.42777
5.56536
0.785601
-3.01574
-8.32863
-20.7024
-26.6496
-11.7217
8.99397
19.7902
25.898
28.8718
13.1486
-10.846
-7.00325
1.47697
2.8493
8.22014
12.9274
11.6544
7.35264
2.21713
-2.4423
-8.71384
-20.3
-29.1596
-13.1723
7.52493
18.2966
23.3706
25.2614
13.515
-2.31252
-1.29568
0.933761
3.03248
8.38108
14.0815
12.3574
8.40258
3.55223
-1.384
-8.69748
-17.8588
-29.0738
-13.2923
5.76008
15.96
20.3864
20.986
11.4498
0.286818
0.639576
0.486178
2.89218
7.51617
13.6598
11.3118
8.13938
3.8849
-0.515887
-7.9959
-13.8708
-26.1004
-11.9412
4.16698
12.8639
16.3152
15.9823
8.81058
1.54963
2.45521
0.177456
2.46317
6.0038
11.952
8.93503
6.90941
3.46697
-0.344712
-7.51404
-10.6641
-20.6384
-9.24192
2.89235
9.72911
12.2071
11.2514
6.14782
1.64015
2.38571
-0.227232
1.86805
4.89543
10.1027
5.46694
4.18964
1.88011
-0.160193
-4.77123
-7.10147
-15.0981
-6.81653
1.52864
6.56211
8.29346
7.15528
3.61692
1.16313
1.62329
-0.436405
0.207741
1.3628
3.85085
1.58275
2.13818
1.09775
-0.477235
-2.96468
-4.2361
-9.23323
-5.32587
-0.769803
1.59428
2.81608
2.49244
1.16012
0.317424
0.706911
140.454
138.316
136.731
136.498
133.696
131.161
127.832
125.357
122.59
120.11
117.911
115.697
114.152
112.321
111.526
109.807
109.817
107.879
108.776
107.239
81.0257
80.6621
82.0496
83.4339
83.6293
84.0403
83.7896
83.5809
83.7524
83.7089
84.0883
84.0287
84.5604
84.4074
85.2385
84.9001
86.0873
85.6587
87.2576
87.5185
100.799
99.3708
100.896
101.025
100.976
100.497
100.25
99.6968
99.457
98.925
98.7565
98.3477
98.4076
98.0224
98.3878
97.8678
98.6206
97.9368
99.2325
98.9621
86.0849
85.3404
87.3663
87.3473
88.1579
87.4583
87.7347
87.1568
87.2063
86.8355
86.8556
86.701
86.9354
86.8729
87.46
87.3319
88.3637
88.0878
89.6723
89.936
91.767
90.9175
92.8292
92.1921
93.622
92.2693
92.7689
91.9259
91.7998
91.2966
91.0288
90.7264
90.6542
90.419
90.7395
90.4613
91.2945
90.8827
92.3933
92.3993
86.5107
86.2951
87.8843
87.1309
89.4328
87.5028
88.2011
87.6263
87.373
87.1325
86.7185
86.5302
86.391
86.1463
86.4883
86.1836
87.0857
86.7765
88.4272
88.5532
86.2064
86.656
87.5167
86.8384
90.1507
87.4852
88.1941
88.275
87.6933
87.9199
87.2795
87.2262
86.9743
86.6415
86.9207
86.4695
87.3288
87.0235
88.7208
88.7628
80.3869
81.9403
81.901
81.6685
86.3418
82.7707
83.4303
84.7472
83.7875
84.7059
84.0874
84.2914
84.1661
83.9547
84.2889
83.9699
84.882
84.8029
86.7178
86.942
72.5307
75.253
74.0324
74.1775
80.3909
75.9794
76.2803
79.0058
77.9101
79.2059
78.9106
79.1889
79.3322
79.2786
79.6765
79.6142
80.4928
80.7106
82.6878
83.1923
58.968
62.5836
59.957
60.511
68.9815
63.3884
63.1087
67.6384
66.8727
68.2227
68.7053
69.134
69.929
70.3283
71.1616
71.7028
72.7712
73.6434
75.5397
77.056
44.2419
47.0353
43.2483
43.2788
50.9692
46.1609
45.1796
48.7243
48.7139
48.4063
48.9714
48.4106
48.989
48.7099
49.2037
49.2168
49.9483
50.8404
52.5928
54.9227
43.1708
43.8371
44.5048
42.9662
46.7129
42.8052
45.9364
42.7927
44.5695
42.0731
42.8383
40.9382
40.9975
39.5179
39.3798
38.3925
38.8511
38.8747
39.6751
39.6563
42.9439
43.6566
44.7396
42.9773
46.161
43.703
47.2764
46.1254
48.4255
47.5175
49.0849
48.8543
49.7269
49.7439
50.1675
49.9176
49.9477
49.8237
49.6852
50.0392
38.4789
38.5295
39.5491
37.5418
39.8564
36.6647
40.2803
38.82
40.4591
39.5803
40.5767
40.9308
41.9603
42.6454
43.3776
44.3165
44.7308
45.3907
45.649
45.7931
43.072
43.0496
44.8534
43.1314
45.5741
44.2086
46.0163
45.6535
46.7241
46.9989
47.6691
48.1482
48.7208
49.242
49.5602
49.4938
48.7938
48.8312
48.7388
48.7473
34.3567
33.3647
35.4
32.5258
35.0665
33.3592
34.8086
34.5796
35.4851
36.0512
36.9922
37.9582
39.0451
40.1312
41.1758
42.0932
42.8471
43.6056
44.2852
45.3347
51.9143
48.4599
50.3209
43.8442
44.0155
39.472
37.5698
34.3941
31.9911
29.4527
27.225
25.1556
23.3435
21.8075
20.6862
20.1251
20.4852
21.0793
21.5738
22.72
58.0047
51.5957
59.4281
52.3627
54.2714
50.7959
49.458
46.8407
44.5368
41.9577
39.4004
36.7957
34.2283
31.7716
29.5466
27.9562
27.59
27.6344
27.4464
27.3588
73.3937
51.4895
59.6941
48.6953
46.123
39.6337
34.9155
29.9146
25.6869
22.0139
19.1461
17.1349
16.0851
16.0697
17.1764
19.6037
23.3553
27.4324
30.8674
32.2216
760.164
677.665
628.7
572.389
523.388
476.07
432.083
390.534
351.443
314.53
279.634
246.562
215.111
185.217
156.926
129.467
103.08
81.7588
57.4223
20.3807
739.053
656.476
607.471
551.06
501.957
454.495
410.343
368.597
329.284
292.12
256.947
223.577
191.839
161.768
133.548
106.439
80.7073
60.4563
36.746
-1.1201
52.0136
29.6296
37.6889
26.3379
23.5239
16.7006
11.6643
6.30268
1.6941
-2.38417
-5.68213
-8.1409
-9.63945
-10.0814
-9.35489
-7.19127
-3.87468
-0.815614
1.40381
2.39084
25.819
18.5401
25.8706
18.08
19.1899
14.8406
12.5472
8.87094
5.45504
1.66066
-2.16827
-6.12697
-10.072
-13.8123
-16.9908
-19.0908
-19.4977
-19.2983
-19.8148
-18.4439
14.6948
10.9885
12.9308
6.28432
6.61319
1.85195
-0.0165647
-3.24054
-5.63258
-8.0638
-10.1331
-11.9204
-13.3222
-14.2008
-14.3366
-13.297
-11.1529
-8.20113
-6.26852
-2.70388
11.4307
11.7788
15.6911
13.6355
18.1487
17.8878
21.0397
22.7648
25.3467
27.9399
30.7827
33.7964
36.8235
39.6454
41.936
44.2047
47.1407
49.9816
52.1095
54.5518
50.3738
51.3798
53.6183
52.2843
55.4837
54.5643
56.3069
55.451
56.4984
56.9081
57.159
56.9762
57.0701
53.9998
52.3323
54.9128
55.7174
56.8736
57.2809
57.0316
21.5544
20.2277
19.9871
16.6915
16.7845
13.0282
12.0611
8.95764
7.33674
4.87317
2.15379
1.07673
-4.68145
15.5674
57.4553
54.8801
53.931
52.1178
50.2497
50.5745
11.8361
11.4087
12.3716
10.7423
12.3442
10.8135
12.0709
11.1729
11.7047
11.6303
11.5462
12.5616
12.7336
13.3495
13.8996
8.78711
11.2441
12.318
3.2397
6.88964
14.1571
14.8706
16.1732
14.7856
16.9436
15.3491
17.0952
16.1407
17.1054
16.9651
17.5938
18.055
19.0632
19.4533
21.2796
20.6381
23.6102
26.7112
25.8733
29.5347
37.1193
39.9136
41.6378
42.1088
44.6917
45.208
47.386
48.2526
50.0818
51.352
53.2212
54.8851
56.8643
58.7014
60.6094
62.4324
64.3573
66.9187
68.9296
72.8715
62.8509
66.4255
67.5714
68.6843
70.7061
71.2978
73.0566
73.7555
75.0324
75.8502
76.9035
77.7365
78.5619
79.2346
79.8339
80.3414
81.2818
81.9607
83.7669
85.0276
78.3505
81.1426
81.4973
82.639
83.451
83.6542
84.4561
84.5014
85.0412
85.054
85.3562
85.2577
85.3535
84.995
84.9833
84.4199
84.8787
84.5687
86.3135
86.291
82.8671
84.2503
84.2002
85.2384
84.9863
84.886
84.9115
84.3941
84.4453
83.8359
83.8025
83.1216
83.078
82.2439
82.3081
81.3818
81.935
81.2146
82.9773
82.7858
82.2172
82.4344
82.6027
83.4478
82.7822
82.6021
82.3003
81.6398
81.5118
80.7325
80.7197
80.0059
80.162
79.5573
80.0142
79.5061
80.4752
80.0682
82.0073
82.0787
79.8524
79.888
80.7504
81.9287
81.4888
81.5947
81.4631
81.0989
81.176
80.7577
81.0338
80.7673
81.2951
81.2266
82.1192
82.2316
83.5936
83.759
85.7965
86.2489
88.4557
88.3478
89.6323
91.0734
90.6693
90.9316
90.691
90.4715
90.4611
90.1303
90.3617
90.0945
90.5699
90.3918
91.1476
91.063
92.1417
92.0994
93.691
93.9194
86.4801
86.4008
87.7442
89.3645
88.7733
89.1128
88.6453
88.4935
88.3699
88.0516
88.247
87.9027
88.3612
88.0214
88.6902
88.3517
89.2159
88.954
90.2625
90.5014
100.589
99.5629
100.465
101.625
100.533
100.472
99.4781
98.9507
98.3094
97.6019
97.3099
96.5531
96.5479
95.7517
95.9645
95.0914
95.5129
94.6371
95.5685
95.2205
79.9841
79.6476
80.2843
82.2133
81.1741
81.4106
80.5268
80.3382
79.8659
79.5078
79.4382
78.9962
79.2849
78.7828
79.3854
78.8037
79.6289
79.1483
80.2698
80.5199
129.178
127.334
125.21
125.935
122.103
120.026
116.736
114.039
110.913
108.369
106.076
103.873
102.356
100.52
99.8003
98.0699
98.177
96.2148
97.001
96.0342
)
;

boundaryField
{
    outletWall
    {
        type            fixedValue;
        value           uniform 0;
    }
    fineWalls
    {
        type            zeroGradient;
    }
    fineFrontAndBack
    {
        type            zeroGradient;
    }
    fineplugLeft
    {
        type            cyclicAMI;
        value           nonuniform List<scalar> 
20
(
86.1648
86.1282
85.3833
87.5222
87.8216
89.7223
90.6786
92.5361
94.0158
96.0799
98.104
100.323
103.016
114.716
110.775
111.544
114.255
114.906
114.149
111.644
)
;
    }
    fineplugRight
    {
        type            cyclicAMI;
        value           nonuniform List<scalar> 
20
(
78.6664
77.4469
75.9023
77.8646
77.9823
79.8928
80.7558
82.6379
84.1061
86.1314
88.1538
90.3267
92.9157
103.192
102.245
102.562
105.003
104.725
104.229
101.664
)
;
    }
    inletOutletLeft
    {
        type            cyclicAMI;
        value           nonuniform List<scalar> 
20
(
86.1648
86.1282
85.3833
87.5222
87.8216
89.7223
90.6786
92.5361
94.0158
96.0799
98.104
100.323
103.016
114.716
110.775
111.544
114.255
114.906
114.149
111.644
)
;
    }
    inletLeft
    {
        type            zeroGradient;
    }
    inletWallsLeft
    {
        type            zeroGradient;
    }
    inletFacesLeft
    {
        type            zeroGradient;
    }
    inletOutletRight
    {
        type            cyclicAMI;
        value           nonuniform List<scalar> 
20
(
78.6664
77.4469
75.9023
77.8646
77.9823
79.8928
80.7558
82.6379
84.1061
86.1314
88.1538
90.3267
92.9157
103.192
102.245
102.562
105.003
104.725
104.229
101.664
)
;
    }
    inletRight
    {
        type            zeroGradient;
    }
    inletWallsRight
    {
        type            zeroGradient;
    }
    inletFacesRight
    {
        type            zeroGradient;
    }
}


// ************************************************************************* //
