/*--------------------------------*- C++ -*----------------------------------*\
| =========                 |                                                 |
| \\      /  F ield         | OpenFOAM: The Open Source CFD Toolbox           |
|  \\    /   O peration     | Version:  4.1                                   |
|   \\  /    A nd           | Web:      www.OpenFOAM.org                      |
|    \\/     M anipulation  |                                                 |
\*---------------------------------------------------------------------------*/
FoamFile
{
    version     2.0;
    format      ascii;
    class       surfaceScalarField;
    location    "24";
    object      phi;
}
// * * * * * * * * * * * * * * * * * * * * * * * * * * * * * * * * * * * * * //

dimensions      [0 3 -1 0 0 0 0];

internalField   nonuniform List<scalar> 
2360
(
-9648.93
-7066.77
-2582.17
-7066.76
-7066.77
-4354.46
-2712.31
-4354.46
-4354.46
-4354.46
-1371.22
-2983.23
-1371.22
-1371.22
2337.56
-3708.78
2337.56
2337.56
6886.41
-4548.85
6886.41
6886.41
13140.8
-6254.34
13140.8
13140.8
14431.4
16171.3
17686.5
18982.2
20177.7
21412.3
17612.3
5022.42
18736.3
19753.8
20690.3
21564.7
22388.2
23156.5
23869.2
24518.5
25114.2
25643.7
26148.4
26776.3
27618.3
12173.3
15445
12173.3
12173.3
12173.3
22.1961
12151.1
22.1964
22.1955
22.1958
175.652
-153.457
175.652
175.651
-365.962
541.614
-365.964
-365.963
-365.965
-12576.8
12210.8
-12576.8
-12576.8
-12576.8
-27196.5
14619.7
-26197.9
-25409.3
-24897.8
-24441.4
-23922.9
-23337.8
-22671.7
-21932.6
-21114.9
-20227.4
-19267.8
-18237.7
-17129.8
-20115.1
4166.26
-18868.5
-17558.7
-16192.4
-14750.1
-13024.1
-11862.7
-11862.7
-11862.7
-7184.52
-4678.21
-7184.52
-7184.52
-3860.12
-3324.39
-3860.12
-3860.12
-1248.97
-2611.15
-1248.97
-1248.97
746.184
-1995.15
746.185
746.185
746.185
2529.33
-1783.15
2529.33
2529.33
4537.23
-2007.9
-9026.47
-1227.38
-9888.7
-1894.67
-8748.81
-4717.73
-7129.56
-11359.6
-5825.05
-16209.3
-4856.81
-18158.3
-3575.62
-12887.7
-2165.78
3769.96
-1263.06
11467.1
-632.885
13097.9
57.3753
10829.9
1342.69
223.31
3166.64
-11552.6
4830.72
-11750.6
4949.56
-1700.92
3859.87
6645.59
2905.47
7218.53
2483.05
5030.47
2127.2
-8681.86
-109.359
-8790.52
-1786.01
-6636.86
-6871.38
-4560.62
-13435.8
-3565.36
-17204.5
-3455.17
-18268.5
-3342.37
-13000.5
-2413.89
2841.48
-1525.99
10579.2
-1078.64
12650.6
-319.023
10070.3
1521.82
-1617.53
3830.71
-13861.5
5957.4
-13877.3
6350.98
-2094.51
4665.88
8330.7
3011.91
8872.5
2200.85
5841.53
2544.9
-7988.65
265.04
-7038.11
-2736.55
-4629.46
-9280.03
-3028.87
-15036.4
-2713.91
-17519.5
-3253.37
-17729
-3972.51
-12281.4
-3267.22
2136.19
-2234.55
9546.49
-1843.69
12259.7
-1257.34
9483.95
860.904
-3735.78
2620.66
-15621.2
3917.19
-15173.9
5301.92
-3479.24
4928.12
8704.49
3380.38
10420.2
2279.48
6942.42
2829.23
-7139.99
121.639
-5407.86
-4468.69
-2887.68
-11800.2
-1858.28
-16065.8
-2157.99
-17219.8
-3313.84
-16573.2
-4723.77
-10871.4
-4467.44
1879.86
-3662.62
8741.67
-3162
11759.1
-2518.71
8840.66
-1099.34
-5155.15
-817.31
-15903.3
-214.577
-15776.6
2324.77
-6018.59
3940.59
7088.68
3466.68
10894.2
2712.51
7696.59
2930.58
-5976.83
-763.007
-3518.53
-6926.99
-1447.17
-13871.6
-1244.53
-16268.5
-2060.02
-16404.3
-3745
-14888.2
-5699.5
-8916.91
-5884.19
2064.55
-5499.44
8356.91
-5072.86
11332.5
-4350.26
8118.06
-4443.94
-5061.47
-5211.97
-15135.2
-4062.55
-16926
-873.823
-9207.32
1830.32
4384.53
2851.22
9873.26
3007.55
7540.26
2613.74
-4472.53
-2313.31
-1891.24
-9508.27
-824.208
-14938.6
-1304.51
-15788.2
-2446.85
-15261.9
-4524.61
-12810.4
-6817.93
-6623.59
-7392.28
2638.9
-7450.67
8415.31
-7376.38
11258.2
-7309.47
8051.14
-8563.19
-3807.75
-9447.34
-14251.1
-7943.17
-18430.2
-4597.58
-12552.9
-1166.63
953.586
1055.28
7651.34
2754.97
5840.57
690.49
-3026.22
-4203.46
-1092.1
-11442.4
-1095.27
-14935.4
-1791.74
-15091.7
-3138.86
-13914.8
-5514.37
-10434.9
-8050.15
-4087.82
-9000.62
3589.37
-9422.23
8836.91
-9882.46
11718.4
-10758.7
8927.42
-12127.7
-2438.75
-12751.1
-13627.7
-11781.4
-19399.9
-8286.29
-16048
-3746.15
-3586.55
-470.282
4375.47
2090.78
3279.51
6947.53
-2426.13
-5761.85
-1418.29
-12450.2
-1820.79
-14532.9
-2446.34
-14466.2
-3984.78
-12376.4
-6556.68
-7863.02
-9162.43
-1482.06
-10402.8
4829.76
-11205.1
9639.22
-12154
12667.3
-13065.4
9838.84
-13431.5
-2072.6
-13897.9
-13161.3
-14411.8
-18886
-12536.7
-17923.2
-7801.06
-8322.16
-5245.98
1820.39
-8290.03
6323.55
13277.2
-2781.13
-6694.77
-2296.69
-12934.7
-2505.43
-14324.2
-3146.88
-13824.7
-4890.81
-10632.5
-7521.62
-5232.2
-9984.89
981.204
-11414.3
6259.21
-12540.8
10765.7
-13441.2
13567.6
-13076.6
9474.28
-11809.6
-3339.65
-12225.3
-12745.6
-14536.6
-16574.7
-15954.7
-16505.2
-15347.6
-8929.24
-14463.8
936.595
-14478.4
6338.2
11009.6
-3527.85
-7284.86
-3098.49
-13364
-3092.31
-14330.4
-3896.46
-13020.6
-5807.27
-8721.64
-8278.2
-2761.26
-10406.9
3109.87
-11926.9
7779.27
-13176.7
12015.5
-13474.4
13865.3
-11392.2
7392.11
-8782.21
-5949.65
-8766.73
-12761.1
-11746.3
-13595.1
-14859.8
-13391.7
-15403.6
-8385.42
-14175.3
-291.711
-10414.6
2577.49
1136.64
-4236.45
-7899.87
-3677.2
-13923.3
-3676.37
-14331.2
-4699.58
-11997.3
-6690.72
-6730.5
-8789.76
-662.224
-10530.5
4850.66
-12060
9308.73
-13231.1
13186.5
-12918.4
13552.7
-10234.9
4708.59
-7320.3
-8864.28
-5958.96
-14122.4
-7712.3
-11841.7
-12125.3
-8978.72
-14243.4
-6267.36
-12776.5
-1758.54
-9049.04
-1150.01
-8065.85
-4701.22
-8638.94
-4080.59
-14543.9
-4249.82
-14162
-5536.57
-10710.6
-7554.09
-4712.98
-9149.68
933.365
-10465.8
6166.74
-11880.2
10723.1
-12927
14233.4
-12456.7
13082.4
-10115.6
2367.45
-7374.19
-11605.6
-4984.66
-16511.9
-4089.62
-12736.8
-7525.16
-5543.18
-13400.9
-391.663
-15934.9
775.549
-15527.8
-1557.17
-11442.5
-4914.16
-9433.47
-4325.48
-15132.6
-4695.02
-13792.4
-6306.16
-9099.45
-8430.17
-2588.98
-9607.81
2111.01
-10451
7009.97
-11485.6
11757.7
-12287.3
15035.1
-11775.5
12570.6
-9444.2
36.1804
-6571.93
-14477.9
-4282.01
-18801.9
-2330.16
-14688.6
-118.506
-7754.83
-2953.99
2443.82
-8267.32
6088.88
-11610.5
1786.02
-7608.02
-4952.5
-10183.4
-4432.25
-15652.8
-4894.44
-13330.2
-6770.1
-7223.79
-9114.58
-244.498
-10178.6
3175.06
-10719.5
7550.89
-11264.6
12302.7
-11534
15304.5
-10551
11587.5
-7816.16
-2698.63
-4875.76
-17418.3
-2861.17
-20816.5
-1396.46
-16153.3
573.376
-9724.66
2194.58
822.615
2356.98
5926.48
1792.4
2350.61
-793.207
-4850.89
-10777.1
-4436.48
-16067.2
-4798.63
-12968.1
-6648.07
-5374.35
-9194.73
2302.16
-10480.6
4460.95
-11061
8131.3
-11304.3
12545.9
-10920.7
14920.9
-9007.83
9674.69
-5782.35
-5924.1
-3196.67
-20004
-1621.62
-22391.5
-269.81
-17505.1
918.656
-10913.1
3380.96
-1639.69
5567.14
3740.29
6399.2
1518.55
-648.352
-4647.38
-11139.4
-4371.67
-16343
-4479.52
-12860.2
-5932.64
-3921.22
-8519.3
4888.82
-10151.6
6093.23
-10927.4
8907.13
-11041
12659.5
-10053.3
13933.2
-7134.2
6755.62
-3629.37
-9428.93
-1619.41
-22014
-572.874
-23438
563.285
-18641.3
1630.28
-11980.1
3664.38
-3673.79
5486.16
1918.51
5709.25
1295.46
512.05
-4424.38
-11294.3
-4259.99
-16507.3
-4084.64
-13035.6
-4943
-3062.86
-7324.2
7270.02
-9175.01
7944.03
-10081.5
9813.66
-10079.9
12657.9
-8539.25
12392.6
-4877.93
3094.29
-1635
-12671.9
-340.919
-23308
305.898
-24084.9
1199.9
-19535.3
2091.21
-12871.4
3583.83
-5166.41
4881.81
620.531
4840.63
1336.64
1643.89
-4243.41
-11334.1
-4117.96
-16632.8
-3709.64
-13443.9
-3957.32
-2815.19
-5956.95
9269.65
-7795.72
9782.8
-8637.73
10655.7
-8459.04
12479.2
-6476.08
10409.6
-2626.79
-754.995
-153.241
-15145.4
500.459
-23961.7
953.747
-24538.1
1615.41
-20197
2319.09
-13575.1
3362.26
-6209.59
4298.21
-315.412
4191.13
1443.72
2851.79
-4106.89
-11341.9
-3967.56
-16772.1
-3435.35
-13976.1
-3073.06
-3177.48
-4633.23
10829.8
-6522.59
11672.2
-7296.7
11429.8
-6855.29
12037.8
-4395.88
7950.2
-939.496
-4211.38
609.658
-16694.6
982.291
-24334.4
1361.92
-24917.8
1864.84
-20699.9
2384.67
-14094.9
3050.31
-6875.23
3669.92
-935.019
3626.11
1487.53
3765.6
-4001.8
-3829.45
-3335.81
-2609.89
-3236.11
-4684.73
-5382.79
-4859.01
-2676.3
-269.57
771.286
1231.38
1569.54
1980.91
2356.81
2732.11
3049.11
3170.47
262.602
-1553.2
485.001
-1962.3
626.557
-1656.8
725.379
-1394.48
847.358
-1317.56
993.95
-1381.14
1040.22
-1268.72
1024.44
-1108.16
994.7
-987.779
969.29
-911.064
935.932
-841.082
885.929
-773.531
810.372
-692.703
712.005
-614.351
588.712
-526.018
453.008
-459.978
306.631
-383.126
180.539
-378.636
86.6973
-533.979
-755.359
85.0075
-1638.21
68.021
-1945.31
70.0011
-1658.78
71.0911
-1395.57
111.335
-1357.8
172.26
-1442.06
150.211
-1246.67
112.729
-1070.68
108.176
-983.225
128.269
-931.157
148.022
-860.835
158.593
-784.101
153.552
-687.662
136.329
-597.127
103.67
-493.359
67.4876
-423.795
40.5944
-356.233
32.868
-370.91
22.3166
-523.428
-733.042
-3.05326
-1635.15
8.77212
-1957.14
52.3413
-1702.35
70.6508
-1413.88
101.214
-1388.37
128.837
-1469.68
97.8416
-1215.68
103.023
-1075.86
132.539
-1012.74
159.347
-957.964
173.901
-875.388
182.047
-792.246
185.081
-690.696
185.432
-597.477
173.231
-481.157
149.117
-399.681
126.995
-334.11
103.175
-347.09
61.3429
-481.595
-671.699
-2.56398
-1632.59
-2.08034
-1957.62
29.6459
-1734.07
39.6252
-1423.86
59.2435
-1407.99
75.2418
-1485.68
57.2036
-1197.64
68.2724
-1086.93
83.2599
-1027.73
95.1863
-969.889
102.482
-882.683
110.472
-800.236
117.178
-697.4
127.098
-607.397
127.878
-481.937
113.251
-385.053
91.4155
-312.275
71.6639
-327.338
43.5138
-453.444
-628.186
-4.04901
-1628.54
-14.2797
-1947.39
17.7568
-1766.11
30.263
-1436.36
41.9871
-1419.71
49.7532
-1493.45
52.0635
-1199.95
67.74
-1102.61
75.6984
-1035.69
81.381
-975.571
85.1677
-886.469
90.7832
-805.851
95.8462
-702.463
106.343
-617.893
117.996
-493.59
118.93
-385.986
107.372
-300.717
87.1382
-307.104
53.2893
-419.595
-574.896
6.18356
-1634.72
-1.30171
-1939.9
32.3516
-1799.76
45.4012
-1449.41
56.1434
-1430.45
62.5679
-1499.87
69.5726
-1206.95
81.7
-1114.73
85.5123
-1039.5
88.1354
-978.194
89.6529
-887.986
91.282
-807.479
91.4939
-702.674
91.0864
-617.485
97.9287
-500.432
104.031
-392.088
100.147
-296.832
82.8752
-289.832
53.5721
-390.291
-521.324
10.1239
-1644.84
5.56299
-1935.34
34.6947
-1828.89
45.8408
-1460.56
55.1746
-1439.78
59.7727
-1504.47
66.6419
-1213.82
79.3747
-1127.46
86.2118
-1046.33
90.1773
-982.159
94.3566
-892.165
96.2541
-809.376
99.9911
-706.411
97.4987
-614.992
103.253
-506.186
114.742
-403.578
122.597
-304.687
109.45
-276.685
72.7935
-353.634
-448.531
19.2101
-1664.06
26.3462
-1942.48
51.9237
-1854.47
71.6587
-1480.29
83.6308
-1451.76
86.8942
-1507.73
98.3891
-1225.32
114.679
-1143.75
128.967
-1060.62
137.917
-991.11
148.647
-902.895
153.835
-814.565
161.99
-714.566
162.732
-615.734
167.271
-510.725
173.128
-409.435
176.134
-307.692
154.904
-255.456
101.319
-300.049
-347.212
30.4483
-1694.5
47.3872
-1959.41
64.537
-1871.62
97.6996
-1513.45
114.726
-1468.78
113.576
-1506.58
138.473
-1250.21
163.949
-1169.23
190.709
-1087.38
208.723
-1009.12
229.283
-923.454
242.76
-828.041
256.717
-728.523
264.431
-623.446
272.021
-518.315
273.624
-411.038
266.069
-300.137
229.81
-219.197
148.588
-218.826
-198.624
44.7951
-1739.3
62.8383
-1977.46
63.716
-1872.49
117.34
-1567.07
143.169
-1494.61
127.808
-1491.22
172.554
-1294.96
206.208
-1202.88
243.678
-1124.85
269.015
-1034.46
297.814
-952.253
321.01
-851.238
344.219
-751.731
363.566
-642.794
381.609
-536.358
390.236
-419.664
379.24
-289.142
335.991
-175.947
226.425
-109.261
27.8011
62.6195
-1801.92
72.7242
-1987.56
47.5764
-1847.34
114.509
-1634.01
159.949
-1540.05
126.148
-1457.42
181.144
-1349.95
214.462
-1236.2
252.166
-1162.56
281.133
-1063.43
313.456
-984.577
343.731
-881.512
375.781
-783.781
406.891
-673.904
434.012
-563.479
446.174
-431.827
411.856
-254.824
309.956
-74.047
110.674
90.0197
138.475
67.8741
-1869.79
47.7769
-1967.46
25.9239
-1825.49
58.9411
-1667.02
98.3385
-1579.45
83.0071
-1442.09
101.855
-1368.8
119.427
-1253.77
135.47
-1178.6
151.647
-1079.6
164.222
-997.153
176.638
-893.928
184.779
-791.922
187.543
-676.669
177.808
-553.745
153.265
-407.284
91.0058
-192.566
-35.2463
52.2041
-143.735
198.506
-5.25921
64.9664
-1934.76
18.2647
-1920.76
19.7529
-1826.98
14.8417
-1662.11
29.9355
-1594.54
49.0839
-1461.24
56.251
-1375.97
71.6288
-1269.15
83.7498
-1190.72
98.7874
-1094.64
106.343
-1004.71
108.992
-896.578
95.0155
-777.946
66.0151
-647.668
24.9257
-512.656
-19.2014
-363.158
-41.4819
-170.286
-34.4682
45.1899
17.0113
147.026
11.7521
47.6345
-1982.39
5.05616
-1878.18
3.7038
-1825.63
-8.01497
-1650.39
-9.99328
-1592.56
-12.951
-1458.28
-8.9995
-1379.92
-6.25043
-1271.9
-5.88645
-1191.08
-3.36799
-1097.16
-4.24199
-1003.83
-8.93899
-891.881
-21.032
-765.853
-36.7556
-631.945
-55.4785
-493.933
-70.1422
-348.494
-47.2054
-193.223
35.8232
-37.8393
104.769
78.0789
116.521
12.7099
-1995.1
-16.9336
-1848.54
-27.5389
-1815.02
-46.6794
-1631.26
-62.4291
-1576.82
-85.0905
-1435.62
-105.677
-1359.33
-126.599
-1250.98
-151.091
-1166.59
-173.884
-1074.37
-192.571
-985.148
-197.473
-886.98
-180.819
-782.509
-141.185
-671.58
-88.5874
-546.531
-37.2167
-399.865
13.4453
-243.885
97.1285
-121.524
122.965
52.2405
239.486
21.6209
-2016.73
22.1935
-1849.12
31.3167
-1824.15
41.8433
-1641.78
50.7003
-1585.67
67.0578
-1451.98
79.4095
-1371.69
96.4678
-1268.04
111.91
-1182.04
130.091
-1092.55
153.383
-1008.44
189.532
-923.132
241.139
-834.117
301.401
-731.843
353.551
-598.683
364.711
-411.027
326.464
-205.641
239.972
-35.0359
120.99
171.219
360.476
-8.94392
-2007.78
-39.4361
-1818.62
-54.4164
-1809.17
-53.4651
-1642.74
-53.9395
-1585.2
-35.0558
-1470.86
-14.2821
-1392.46
19.3491
-1301.67
58.9328
-1221.62
107.502
-1141.12
162.208
-1063.15
221.492
-982.417
280.66
-893.285
330.317
-781.501
344.123
-612.489
273.152
-340.057
108.487
-40.9766
-28.5752
102.026
-84.972
227.616
275.504
-154.767
-1853.02
-331.179
-1642.21
-473.237
-1667.11
-575.155
-1540.82
-667.295
-1493.06
-727.851
-1410.31
-775.058
-1345.26
-801.954
-1274.78
-814.791
-1208.79
-813.012
-1142.9
-798.62
-1077.54
-771.818
-1009.22
-732.341
-932.762
-678.107
-835.736
-600.328
-690.269
-481.717
-458.668
-348.128
-174.567
-242.182
-3.9198
-119.545
104.977
155.959
-208.823
-1644.19
-463.195
-1387.84
-729.99
-1400.32
-955.958
-1314.85
-1173.23
-1275.79
-1358.56
-1224.98
-1521.66
-1182.15
-1657.92
-1138.53
-1770.3
-1096.4
-1858.83
-1054.37
-1923.99
-1012.38
-1963.79
-969.421
-1972.94
-923.612
-1937.34
-871.335
-1820.61
-806.995
-1555.73
-723.554
-1116.23
-614.066
-646.275
-473.872
-246.874
-294.424
-90.9148
-669.192
-1082.03
-1507.35
-1847.2
-2147.99
-2397.97
-2605.12
-2768.65
-2890.05
-2969.42
-3006.8
-3001.23
-2949.84
-2846.17
-2678.17
-2426.72
-2065.79
-1564.66
-884.085
-669.507
1644.51
-1085.03
1390.53
-1513.12
1403.09
-1857.1
1318.99
-2163.01
1280.91
-2419.34
1231.33
-2634.15
1189.81
-2806.93
1147.78
-2939.63
1107.7
-3033.09
1068.46
-3088.1
1030.01
-3103.3
990.21
-3072.58
944.275
-2982.21
884.635
-2810.66
803.449
-2532.29
696.635
-2124.29
567.001
-1570.79
421.502
-859.097
263.306
115.903
-225.638
1870.15
-496.815
1661.71
-781.39
1687.67
-1026.83
1564.43
-1264.05
1518.14
-1470.46
1437.74
-1655.59
1374.94
-1814.86
1307.05
-1951.35
1244.2
-2065.08
1182.19
-2156.12
1121.06
-2219.21
1053.3
-2240.68
965.745
-2194.51
838.463
-2038.63
647.569
-1721.38
379.388
-1260.41
106.032
-799.529
-39.3761
-353.562
-182.656
-237.659
-161.571
2031.73
-350.381
1850.52
-500.253
1837.54
-608.609
1672.79
-705.485
1615.02
-769.946
1502.21
-818.455
1423.46
-844.394
1332.99
-851.956
1251.76
-840.132
1170.37
-809.756
1090.68
-761.421
1004.97
-697.044
901.371
-618.933
760.356
-528.532
557.172
-426.227
277.09
-332.34
12.1539
-251.986
-119.722
-174.44
-260.195
-412.099
37.3601
1994.37
-0.0370388
1887.92
5.19958
1832.31
28.7478
1649.24
57.9363
1585.83
105.173
1454.97
162.544
1366.09
232.929
1262.61
315.698
1169
411.561
1074.51
519.632
982.615
634.136
890.466
740.528
794.982
811.466
689.419
805.142
563.498
676.409
405.825
436.09
252.476
230.795
85.5784
69.9086
-99.3037
-342.191
96.3273
1898.04
114.08
1870.17
164.807
1781.58
215.471
1598.58
268.99
1532.31
324.099
1399.87
376.334
1313.85
433.238
1205.71
490.441
1111.8
546.604
1018.35
602.009
927.214
664.04
828.439
759.789
699.236
883.687
565.524
962.16
485.029
891.109
476.878
736.441
407.147
516.133
305.891
270.514
146.321
-71.6761
-3.45325
1901.5
-19.5299
1886.25
-34.0645
1796.12
-61.8069
1626.32
-90.9015
1561.41
-125.094
1434.06
-165.748
1354.51
-199.134
1239.09
-241.257
1153.92
-284.062
1061.14
-332.791
975.945
-362.976
858.621
-398.868
735.13
-405.285
571.941
-484.488
564.238
-304.682
297.077
-222.479
324.95
-157.092
240.513
-77.6107
66.8569
-149.286
-22.5581
1924.05
-30.2266
1893.91
-42.1458
1808.03
-63.4974
1647.67
-90.9103
1588.82
-138.744
1481.89
-195.044
1410.8
-234.781
1278.82
-255.971
1175.1
-251.9
1057.06
-234.152
958.19
-204.94
829.407
-222.467
752.657
-324.401
673.876
-577.319
817.162
-581.946
301.716
-454.927
197.943
-334.056
119.66
-224.186
-42.9916
-373.472
19.113
1904.93
-21.0536
1934.07
-34.7725
1821.75
-54.7275
1667.62
-71.7351
1605.82
-87.4785
1497.62
-100.179
1423.5
-120.139
1298.77
-139.369
1194.33
-147.546
1065.23
-138.434
949.074
-120.654
811.615
-63.0351
695.039
-18.8436
629.68
44.5369
753.784
-131.219
477.472
-164.271
230.999
-179.676
135.07
-120.908
-101.751
-494.38
131.999
1772.93
89.2926
1976.78
101.805
1809.24
122.506
1646.92
156.99
1571.34
204.957
1449.66
269.122
1359.34
323.013
1244.88
366.913
1150.43
394.907
1037.24
420.186
923.797
432.666
799.134
450.531
677.175
497.253
582.958
689.047
561.993
677.972
488.548
554.196
354.778
448.107
241.162
292.225
54.1352
-202.155
181.49
1591.44
158.956
1999.31
169.507
1798.68
199.201
1617.22
246.703
1523.84
304.072
1392.28
375.049
1288.36
443.406
1176.52
505.191
1088.64
546.391
996.034
567.727
902.461
566.117
800.742
545.309
697.983
556.66
571.605
646.723
471.931
691.775
443.496
645.881
400.672
547.266
339.778
338.896
262.507
136.741
134.173
1457.27
133.36
2000.12
140.865
1791.17
159.73
1598.35
191.75
1491.81
231.222
1352.81
276.991
1242.59
325.023
1128.49
367.097
1046.57
397.655
965.475
413.421
886.694
416.436
797.725
416.163
698.256
429.002
558.765
444.434
456.498
453.379
434.55
438.559
415.493
376.37
401.967
233.426
405.452
370.166
40.9383
1416.32
47.3436
1993.71
58.459
1780.06
62.9524
1593.85
71.7219
1483.04
79.2287
1345.3
87.2057
1234.61
103.124
1112.56
117.751
1031.94
132.873
950.35
146.601
872.963
165.671
778.653
197.051
666.873
219.614
536.2
231.686
444.425
253.874
412.361
270.26
399.105
243.387
428.839
159.055
489.782
529.222
-22.9154
1439.24
-15.0042
1985.79
1.39354
1763.66
-3.70651
1598.95
-9.18403
1488.52
-26.5554
1362.67
-49.4262
1257.48
-66.4648
1129.6
-71.9013
1037.37
-64.9322
943.378
-47.0483
855.077
-17.7155
749.318
14.7302
634.426
24.9674
525.961
42.3424
427.048
77.6732
377.029
107.681
369.097
106.018
430.501
72.0776
523.721
601.3
-24.3866
1463.62
-14.0034
1975.41
7.27647
1742.37
6.12557
1600.1
7.61371
1487.03
1.37339
1368.91
-10.9486
1269.8
-31.6725
1150.32
-40.9402
1046.64
-38.7283
941.164
-24.8801
841.227
-10.8214
735.257
-7.41541
631.018
-17.6474
536.191
-15.8001
425.199
-1.117
362.345
13.468
354.511
13.5276
430.44
-0.533528
537.78
600.766
7.49034
1456.13
23.0682
1959.83
54.2196
1711.22
67.2582
1587.06
82.8831
1471.4
100.182
1351.61
119.669
1250.31
127.438
1142.55
133.026
1041.05
134.932
939.257
135.971
840.186
126.114
745.113
108.209
648.921
90.1126
554.286
76.2264
439.084
63.4652
375.105
53.5346
364.44
35.7764
448.198
1.1331
572.422
601.899
13.0774
1443.05
24.6198
1948.28
61.8321
1674.01
79.7511
1569.14
95.6658
1455.49
113.621
1333.65
140.186
1223.74
165.914
1116.82
185.346
1021.61
191.215
933.386
188.19
843.21
177.43
755.871
170.21
656.14
167.679
556.816
164.25
442.511
155.653
383.701
148.583
371.509
124.556
472.224
63.6175
633.36
665.517
9.3447
1433.7
20.6029
1937.03
65.6208
1628.99
81.7117
1553.05
86.9046
1450.29
86.8296
1333.73
92.9155
1217.66
103.245
1106.49
115.262
1009.6
120.697
927.95
122.943
840.963
125.3
753.514
132.501
648.938
138.558
550.757
138.662
442.407
137.392
384.97
143.666
365.235
140.412
475.477
91.6026
682.168
757.119
-8.63799
1442.34
1.14975
1927.24
62.8671
1567.27
80.2701
1535.65
88.1743
1442.39
90.4118
1331.49
91.6307
1216.44
90.1354
1107.99
93.5583
1006.17
98.3141
923.194
106.731
832.546
116.709
743.534
127.837
637.809
131.982
546.613
131.719
442.669
134.958
381.73
147.595
352.598
149.113
473.959
106.514
724.766
863.633
60.8901
1381.45
42.6985
1945.43
47.1981
1562.77
71.8242
1511.02
83.0784
1431.13
80.2731
1334.29
78.2721
1218.44
69.7896
1116.47
61.5552
1014.41
57.4022
927.346
54.5636
835.385
50.7892
747.308
42.6861
645.912
31.598
557.7
18.0227
456.244
15.4573
384.296
36.885
331.171
76.9214
433.923
67.6679
734.02
931.301
220.094
439.519
559.971
704.728
826.029
913.759
951.252
959.812
944.04
911.806
859.753
789.34
696.16
587.701
458.868
324.689
199.414
121.838
67.2627
)
;

boundaryField
{
    outletWall
    {
        type            calculated;
        value           nonuniform List<scalar> 
60
(
4537.23
-1652.05
-4608.04
-6264.13
-5555.9
1582.08
10086.6
9728.66
-1508.63
-11520.2
-13728.1
-12369.8
-5179.8
11606.5
17190
14904.8
9740.35
3577.83
2756.9
2504.75
4040.14
4114.63
4283.25
4579.28
5009.66
5444.57
5702.45
5708.69
5440.28
4851.46
4117.94
3714.04
3984.53
4916.37
6022.83
6861.47
7283.39
7614.25
7563.84
7749.1
9648.93
4353.9
1366.17
-1252.02
-7250.54
-14470.8
-21111.2
-25255.9
-24794.5
-17735.4
-6618.11
5767.5
11514
12127.9
13120.8
11456
-3903.4
-14469.8
-16944.5
-11380.2
)
;
    }
    fineWalls
    {
        type            calculated;
        value           uniform 0;
    }
    fineFrontAndBack
    {
        type            calculated;
        value           nonuniform List<scalar> 
960
(
-1.26939e-14
4.58535e-13
6.18905e-14
-1.20512e-13
-3.76128e-12
-1.61133e-12
-2.51638e-12
-3.25916e-12
-1.75923e-11
-1.96047e-12
-3.63938e-13
1.7355e-11
4.63143e-12
3.86465e-12
1.71377e-11
2.91707e-12
2.44231e-12
9.32036e-12
1.34411e-12
9.62988e-13
2.426e-13
-2.87635e-14
-1.17505e-13
-2.22854e-13
-2.91873e-13
-4.20968e-13
-4.37871e-12
-6.18611e-13
-6.78852e-13
-7.50713e-13
-8.29545e-13
-9.05992e-13
-9.88006e-13
-1.07286e-12
-1.18324e-12
-1.30684e-12
-1.46161e-12
-1.75685e-12
-1.68953e-12
-1.30552e-12
-3.03617e-11
-4.20765e-12
-4.0776e-12
-4.26589e-12
-9.14239e-12
7.79862e-13
3.75451e-12
2.41008e-11
5.71449e-10
3.19205e-11
1.10063e-11
3.15802e-11
6.76535e-12
7.07112e-12
3.46255e-12
1.22254e-11
1.9419e-12
1.85057e-12
1.87086e-12
1.28428e-11
5.91405e-13
8.47574e-13
1.14455e-12
1.00539e-12
8.23378e-13
7.04097e-13
6.0786e-13
5.25857e-13
4.50165e-13
3.85685e-13
3.28907e-13
2.76195e-13
2.32296e-13
-6.86761e-12
2.69258e-14
-1.3644e-13
-1.6578e-13
-2.56502e-13
-3.57178e-13
-6.5406e-13
-3.20552e-12
-3.39622e-12
-1.88438e-11
-3.24304e-12
-3.51843e-12
-2.00206e-11
-3.30806e-12
-3.73667e-12
-2.20483e-11
-3.40352e-12
-3.6741e-12
-1.97843e-11
-2.29089e-12
-1.67248e-12
-1.36409e-12
-1.69862e-11
-3.4962e-12
-3.69389e-12
-2.26644e-11
-6.54437e-12
-4.20354e-11
-2.5074e-11
-1.80327e-12
1.14816e-11
2.20462e-11
2.37888e-11
1.03754e-11
-3.01963e-13
1.94311e-13
-2.82107e-12
-6.99531e-12
-9.76798e-12
-1.47971e-11
-1.49191e-11
-1.62844e-11
-2.37382e-11
-3.05839e-11
-3.51399e-11
-3.74649e-11
-4.23158e-11
-2.04974e-11
7.59471e-12
2.20464e-11
3.78403e-11
3.97806e-11
1.63556e-11
2.81352e-12
4.3236e-12
-1.96912e-13
-5.91301e-12
-8.69698e-12
-1.13945e-11
-7.06391e-12
-7.42373e-12
-1.81469e-11
-2.85282e-11
-3.46483e-11
-3.93575e-11
-3.32766e-11
-1.45676e-11
4.94483e-12
1.53038e-11
3.25428e-11
3.22111e-11
7.47152e-12
2.05118e-12
1.16433e-11
5.92959e-12
-4.30915e-12
-5.78267e-12
-6.34874e-12
-2.06235e-12
-5.52756e-12
-1.2139e-11
-2.37562e-11
-3.2236e-11
-3.96088e-11
-2.68447e-11
-1.52432e-11
-1.87793e-12
9.79933e-12
2.34892e-11
1.78233e-11
-6.33095e-12
-8.13855e-12
5.94107e-12
2.31243e-12
-2.7595e-12
-6.24059e-12
-6.27973e-13
-3.25978e-12
-1.69113e-11
-1.13387e-11
-1.91666e-11
-2.80124e-11
-3.49036e-11
-2.50154e-11
-2.29592e-11
-9.31609e-12
9.19763e-12
1.16301e-11
7.62145e-13
-2.45151e-11
-3.43508e-11
-2.05578e-11
-1.18097e-11
-5.4955e-12
-5.22087e-12
2.42549e-12
-7.91646e-12
-2.27346e-11
-8.94282e-12
-1.45835e-11
-2.32756e-11
-2.73852e-11
-3.41084e-11
-3.50022e-11
-4.63653e-12
1.02652e-11
-3.87601e-13
-1.37895e-11
-4.31681e-11
-6.53836e-11
-5.20191e-11
-2.99643e-11
-1.34067e-11
-2.69197e-12
2.05673e-12
-6.17456e-12
-1.9762e-11
-2.30374e-11
-1.55372e-11
-1.99114e-11
-2.33891e-11
-5.21315e-11
-3.02326e-11
1.17059e-11
7.1594e-12
-7.89913e-12
-2.18663e-11
-5.7584e-11
-8.10689e-11
-6.58322e-11
-3.74513e-11
-1.60709e-11
-3.83557e-12
-3.22479e-12
-2.89441e-12
-1.12143e-11
-2.76993e-11
-2.08652e-11
-2.51904e-11
-3.83973e-11
-5.79593e-11
4.23879e-12
2.19315e-11
1.62627e-12
-6.35455e-12
-2.07157e-11
-6.36936e-11
-7.61083e-11
-5.77488e-11
-3.27334e-11
-1.47778e-11
-1.24771e-11
-1.54668e-11
-5.62079e-12
-1.15015e-12
-1.63815e-11
-3.00149e-11
-1.99485e-11
-3.74634e-12
-3.22838e-11
3.45921e-11
1.83933e-11
1.04429e-12
4.49936e-12
-1.02043e-11
-6.23327e-11
-6.78407e-11
-4.50932e-11
-2.56368e-11
-1.84267e-11
-2.64025e-11
-2.50331e-11
-1.94508e-11
-5.86951e-12
5.39978e-12
-4.97915e-12
2.94846e-12
1.41839e-11
1.07995e-11
4.07836e-11
1.46885e-11
4.54743e-12
2.05668e-11
1.14392e-11
-4.69934e-11
-5.40958e-11
-3.55373e-11
-2.37603e-11
-2.48456e-11
-2.50767e-11
-1.3372e-11
-2.69352e-11
-2.61342e-11
5.3362e-12
1.38902e-11
1.20437e-11
2.34561e-11
4.00158e-11
3.68514e-11
1.48209e-11
3.91043e-12
3.04197e-11
3.9522e-11
-1.09933e-11
-3.64954e-11
-2.69633e-11
-1.66847e-11
-6.26657e-12
1.04243e-11
2.84631e-12
-1.1952e-11
-3.23173e-11
-2.7273e-11
1.63733e-11
6.73378e-11
2.40756e-10
4.58999e-11
3.44329e-11
1.18579e-11
-5.78857e-12
2.48436e-11
4.72191e-11
1.11553e-11
-1.94066e-11
-1.83576e-11
-6.4055e-12
7.00293e-12
6.06461e-12
-1.64867e-12
-1.25996e-12
-1.89478e-11
-5.73321e-11
-6.33498e-11
-5.83856e-11
-5.03133e-11
4.80315e-11
3.60158e-11
1.05605e-11
-1.38013e-11
1.46523e-11
4.08989e-11
1.99714e-11
-4.96906e-12
-9.81931e-12
5.4673e-13
5.05222e-12
-8.20241e-12
-1.02025e-11
-6.00125e-12
-2.7163e-12
-7.18138e-12
-3.95164e-11
-2.92195e-11
-3.3752e-11
4.77871e-11
3.71625e-11
1.34169e-11
-1.35116e-11
1.04902e-11
3.49046e-11
2.42068e-11
7.15302e-12
-8.66376e-13
2.89506e-12
-2.34404e-12
-1.46126e-11
-1.22253e-11
-9.56142e-12
-7.24945e-12
-2.8044e-13
-1.58881e-11
-1.65991e-11
7.81295e-12
4.0085e-11
3.53541e-11
1.65892e-11
-1.27398e-11
4.73813e-12
3.21755e-11
2.76376e-11
1.62286e-11
8.11071e-12
3.18319e-12
-9.26305e-12
-1.44271e-11
-1.32137e-11
-1.13108e-11
-7.34087e-12
-1.9062e-12
9.24678e-13
3.44361e-13
6.20331e-13
3.00795e-11
3.22253e-11
1.82861e-11
-1.32358e-11
-9.92768e-12
2.27583e-11
2.79755e-11
2.07632e-11
1.23838e-11
5.96948e-13
-1.23556e-11
-1.21376e-11
-1.23698e-11
-1.09985e-11
-8.79066e-12
-4.65622e-12
-1.75401e-12
7.66379e-14
-6.12688e-12
2.43243e-11
3.00802e-11
1.94726e-11
-1.12153e-11
-2.69705e-11
4.67775e-12
2.03708e-11
1.79968e-11
9.78177e-12
-2.36601e-12
-1.00736e-11
-1.16671e-11
-1.18607e-11
-1.06214e-11
-8.38885e-12
-6.23077e-12
-4.85466e-12
-2.10997e-12
-8.4394e-12
2.40907e-11
2.90799e-11
2.18038e-11
-5.4884e-12
-3.87408e-11
-1.82967e-11
4.23369e-12
9.87469e-12
5.73118e-12
-3.27472e-12
-8.97817e-12
-1.20719e-11
-1.15351e-11
-1.06251e-11
-8.30555e-12
-5.61825e-12
-4.02408e-12
-3.31589e-12
-2.09503e-13
2.68625e-11
3.02821e-11
2.43473e-11
2.10481e-12
-4.1849e-11
-4.00706e-11
-1.69874e-11
-2.05593e-12
7.88099e-13
-5.99983e-12
-1.32641e-11
-1.19078e-11
-1.11419e-11
-1.05279e-11
-8.07796e-12
-5.21103e-12
-3.49226e-12
-2.98823e-12
1.16625e-13
2.86721e-11
3.12901e-11
2.62166e-11
8.52742e-12
-3.59021e-11
-5.2942e-11
-4.03941e-11
-2.10808e-11
-1.04084e-11
-1.29193e-11
-1.49271e-11
-1.16586e-11
-1.08256e-11
-1.04847e-11
-7.88931e-12
-4.83281e-12
-3.06674e-12
-2.37583e-12
-9.59998e-13
1.26939e-14
-4.58535e-13
-6.18905e-14
1.20512e-13
3.76128e-12
1.61133e-12
2.51638e-12
3.25916e-12
1.75923e-11
1.96047e-12
3.63938e-13
-1.7355e-11
-4.63143e-12
-3.86465e-12
-1.71377e-11
-2.91707e-12
-2.44231e-12
-9.32036e-12
-1.34411e-12
-9.62988e-13
-2.426e-13
2.87635e-14
1.17505e-13
2.22854e-13
2.91873e-13
4.20968e-13
4.37871e-12
6.18611e-13
6.78852e-13
7.50713e-13
8.29545e-13
9.05992e-13
9.88006e-13
1.07286e-12
1.18324e-12
1.30684e-12
1.46161e-12
1.75685e-12
1.68953e-12
1.30552e-12
3.03617e-11
4.20765e-12
4.0776e-12
4.26589e-12
9.14239e-12
-7.79862e-13
-3.75451e-12
-2.41008e-11
-5.71449e-10
-3.19205e-11
-1.10063e-11
-3.15802e-11
-6.76535e-12
-7.07112e-12
-3.46255e-12
-1.22254e-11
-1.9419e-12
-1.85057e-12
-1.87086e-12
-1.28428e-11
-5.91405e-13
-8.47574e-13
-1.14455e-12
-1.00539e-12
-8.23378e-13
-7.04097e-13
-6.0786e-13
-5.25857e-13
-4.50165e-13
-3.85685e-13
-3.28907e-13
-2.76195e-13
-2.32296e-13
6.86761e-12
-2.69258e-14
1.3644e-13
1.6578e-13
2.56502e-13
3.57178e-13
6.5406e-13
3.20552e-12
3.39622e-12
1.88438e-11
3.24304e-12
3.51843e-12
2.00206e-11
3.30806e-12
3.73667e-12
2.20483e-11
3.40352e-12
3.6741e-12
1.97843e-11
2.29089e-12
1.67248e-12
1.36409e-12
1.69862e-11
3.4962e-12
3.69389e-12
2.26644e-11
6.54437e-12
4.20354e-11
2.5074e-11
1.80327e-12
-1.14816e-11
-2.20462e-11
-2.37888e-11
-1.03754e-11
3.01963e-13
-1.94311e-13
2.82107e-12
6.99531e-12
9.76798e-12
1.47971e-11
1.49191e-11
1.62844e-11
2.37382e-11
3.05839e-11
3.51399e-11
3.74649e-11
4.23158e-11
2.04974e-11
-7.59471e-12
-2.20464e-11
-3.78403e-11
-3.97806e-11
-1.63556e-11
-2.81352e-12
-4.3236e-12
1.96912e-13
5.91301e-12
8.69698e-12
1.13945e-11
7.06391e-12
7.42373e-12
1.81469e-11
2.85282e-11
3.46483e-11
3.93575e-11
3.32766e-11
1.45676e-11
-4.94483e-12
-1.53038e-11
-3.25428e-11
-3.22111e-11
-7.47152e-12
-2.05118e-12
-1.16433e-11
-5.92959e-12
4.30915e-12
5.78267e-12
6.34874e-12
2.06235e-12
5.52756e-12
1.2139e-11
2.37562e-11
3.2236e-11
3.96088e-11
2.68447e-11
1.52432e-11
1.87793e-12
-9.79933e-12
-2.34892e-11
-1.78233e-11
6.33095e-12
8.13855e-12
-5.94107e-12
-2.31243e-12
2.7595e-12
6.24059e-12
6.27973e-13
3.25978e-12
1.69113e-11
1.13387e-11
1.91666e-11
2.80124e-11
3.49036e-11
2.50154e-11
2.29592e-11
9.31609e-12
-9.19763e-12
-1.16301e-11
-7.62145e-13
2.45151e-11
3.43508e-11
2.05578e-11
1.18097e-11
5.4955e-12
5.22087e-12
-2.42549e-12
7.91646e-12
2.27346e-11
8.94282e-12
1.45835e-11
2.32756e-11
2.73852e-11
3.41084e-11
3.50022e-11
4.63653e-12
-1.02652e-11