/*--------------------------------*- C++ -*----------------------------------*\
| =========                 |                                                 |
| \\      /  F ield         | OpenFOAM: The Open Source CFD Toolbox           |
|  \\    /   O peration     | Version:  4.1                                   |
|   \\  /    A nd           | Web:      www.OpenFOAM.org                      |
|    \\/     M anipulation  |                                                 |
\*---------------------------------------------------------------------------*/
FoamFile
{
    version     2.0;
    format      ascii;
    class       volSymmTensorField;
    location    "24";
    object      R;
}
// * * * * * * * * * * * * * * * * * * * * * * * * * * * * * * * * * * * * * //

dimensions      [0 2 -2 0 0 0 0];

internalField   nonuniform List<symmTensor> 
1280
(
(0.228248 8.13263e-17 3.14735e-17 0.249494 0.0339513 0.21174)
(0.241277 1.09499e-16 3.57398e-17 0.279761 0.0491938 0.199414)
(0.231886 7.43865e-17 2.88018e-17 0.253609 0.0316841 0.204355)
(0.236083 7.88852e-17 3.33645e-17 0.254332 0.0315572 0.217909)
(0.259297 1.24626e-16 5.33788e-17 0.291542 0.0507271 0.232797)
(0.240946 9.1343e-17 5.71867e-17 0.244933 0.0292039 0.245347)
(0.240891 8.17262e-17 6.61116e-17 0.232247 0.0275724 0.267382)
(0.255965 7.72706e-17 6.17006e-17 0.252541 0.0322603 0.277316)
(0.296921 1.17467e-16 8.58703e-17 0.309164 0.0654211 0.323568)
(0.292863 1.05067e-16 7.49922e-17 0.293584 0.0450185 0.329791)
(0.301833 1.22567e-16 8.48203e-17 0.294222 0.0439649 0.363116)
(0.358102 2.13608e-16 7.46234e-17 0.373157 0.0863448 0.418226)
(0.349443 1.72585e-16 6.49788e-17 0.346266 0.0588795 0.430155)
(0.352907 1.62548e-16 6.96437e-17 0.328802 0.0444633 0.476771)
(0.426964 2.60754e-16 8.79316e-17 0.430144 0.0804713 0.529007)
(0.423885 2.20034e-16 8.07979e-17 0.41522 0.0537928 0.540497)
(0.437197 2.05974e-16 8.39523e-17 0.422258 0.0419149 0.575916)
(0.525196 2.67709e-16 1.13899e-16 0.508986 0.0299396 0.771322)
(0.533868 2.40691e-16 1.01858e-16 0.521042 0.0157957 0.749081)
(0.546109 2.28409e-16 8.78559e-17 0.526168 -0.0141701 0.754708)
(0.684708 1.90148e-16 -5.32049e-19 0.553776 -0.104921 1.01818)
(1.34913 1.22003e-16 -1.79581e-16 0.850632 0.00630336 2.32318)
(1.44526 6.28722e-17 -2.01511e-16 0.961818 0.0580478 2.38058)
(1.46759 3.29136e-17 -2.0418e-16 1.06727 0.17908 2.29192)
(1.523 4.02161e-17 -1.95407e-16 1.20878 0.357081 2.2676)
(1.62435 5.16135e-17 -1.88778e-16 1.40077 0.565582 2.34936)
(1.13591 3.46299e-17 -1.14314e-16 0.949141 0.343533 1.65787)
(1.34349 4.90442e-17 -1.24408e-16 1.26278 0.612033 1.86809)
(1.47031 6.58252e-17 -1.2285e-16 1.48265 0.762306 1.97682)
(1.57012 8.16964e-17 -1.17905e-16 1.66634 0.863732 2.05257)
(1.6516 9.70377e-17 -1.10987e-16 1.82264 0.933266 2.10934)
(1.72024 1.12533e-16 -1.03715e-16 1.95663 0.98557 2.15527)
(1.77917 1.27609e-16 -9.65607e-17 2.0726 1.03079 2.19244)
(1.82933 1.45243e-16 -8.7938e-17 2.17065 1.0738 2.21967)
(1.87298 1.71932e-16 -7.45214e-17 2.25647 1.11646 2.23699)
(1.90891 2.07578e-16 -5.61118e-17 2.32521 1.15767 2.24308)
(1.94167 2.55045e-16 -3.04062e-17 2.38893 1.19901 2.24482)
(1.96159 3.00217e-16 -4.63001e-18 2.4243 1.22924 2.23144)
(1.97659 3.70397e-16 3.81458e-17 2.45119 1.25434 2.22437)
(1.9467 3.90288e-16 6.03776e-17 2.39849 1.22959 2.16174)
(1.91189 3.12988e-16 1.7874e-17 2.37037 1.21888 1.97798)
(1.87352 2.46386e-16 2.65709e-17 2.35872 0.968695 1.75568)
(1.82813 2.11502e-16 3.28798e-17 2.33805 0.855038 1.55697)
(1.7658 1.62259e-16 4.29841e-17 2.26719 0.726112 1.42838)
(1.62345 6.98945e-17 4.13009e-17 2.08579 0.702096 1.24108)
(1.36541 -1.25384e-16 5.78486e-17 1.76285 0.337595 0.948305)
(1.26497 -3.00706e-16 4.91664e-17 1.65718 0.20981 0.825219)
(1.21368 -4.88546e-16 3.19989e-17 1.63 0.104936 0.743089)
(1.23562 -1.00113e-15 -6.15297e-17 1.80107 0.0194043 0.676626)
(1.13617 -7.242e-16 -9.57716e-17 1.59739 -0.0124157 0.60786)
(1.13194 -6.96002e-16 -1.27112e-16 1.59367 0.00400495 0.607446)
(1.2219 -8.79958e-16 -1.02132e-16 1.78645 -0.0148509 0.673551)
(1.18884 -3.84948e-16 -1.68889e-16 1.60042 -0.100622 0.734419)
(1.23095 -2.00621e-16 -1.53032e-16 1.61952 -0.20349 0.80882)
(1.3201 -4.88737e-17 -1.21767e-16 1.71501 -0.327617 0.921385)
(1.56657 1.14829e-16 -1.21819e-17 2.02911 -0.680339 1.20028)
(1.69882 1.69644e-16 1.7829e-17 2.20092 -0.701873 1.37635)
(1.75318 2.08919e-16 3.73882e-17 2.26419 -0.825862 1.49482)
(1.79267 2.28974e-16 6.83636e-17 2.28148 -0.934412 1.68026)
(1.83222 2.71963e-16 1.29474e-16 2.29869 -1.17119 1.89167)
(1.86561 4.70724e-16 -1.05076e-16 2.32882 -1.17839 2.06542)
(1.89105 4.58014e-16 -8.90488e-17 2.37059 -1.20318 2.12869)
(1.87704 3.84321e-16 -4.17207e-17 2.34175 -1.17823 2.13969)
(1.85849 3.33783e-16 -8.51078e-18 2.30656 -1.14826 2.155)
(1.82693 2.82149e-16 2.46589e-17 2.24386 -1.10733 2.15319)
(1.79165 2.43641e-16 4.99713e-17 2.17586 -1.0663 2.1452)
(1.74862 2.10532e-16 7.14977e-17 2.09102 -1.02399 2.12568)
(1.69936 1.81136e-16 8.98026e-17 1.99446 -0.981672 2.09685)
(1.64192 1.54701e-16 1.0523e-16 1.88094 -0.937419 2.05921)
(1.57552 1.31643e-16 1.1754e-16 1.75051 -0.88627 2.0139)
(1.49703 1.11569e-16 1.2708e-16 1.59883 -0.818307 1.95842)
(1.40112 9.28421e-17 1.34484e-16 1.42085 -0.71986 1.88466)
(1.27949 7.19895e-17 1.38795e-16 1.20817 -0.575369 1.7794)
(1.08672 5.49512e-17 1.33424e-16 0.910449 -0.323889 1.58553)
(1.57427 9.09963e-17 2.09188e-16 1.35694 -0.541983 2.28499)
(1.48294 8.49145e-17 2.21263e-16 1.176 -0.345289 2.21698)
(1.43914 8.27122e-17 2.38674e-16 1.04619 -0.177967 2.25702)
(1.42594 1.15406e-16 2.5317e-16 0.950102 -0.0626564 2.35819)
(1.33048 1.76019e-16 2.61334e-16 0.843133 -0.0144855 2.30005)
(0.664206 2.42516e-16 1.34438e-16 0.546535 0.0977918 0.994553)
(0.524508 2.82886e-16 5.77739e-17 0.519512 0.00782547 0.732451)
(0.513355 2.93166e-16 3.95964e-17 0.519936 -0.0251292 0.719243)
(0.504679 3.23097e-16 4.03881e-17 0.500981 -0.0395118 0.758001)
(0.410274 1.76167e-16 2.04531e-17 0.406236 -0.0511455 0.559453)
(0.394043 1.67202e-16 1.88013e-17 0.396851 -0.0636827 0.519801)
(0.397165 1.87018e-16 1.39145e-17 0.416559 -0.0943422 0.497531)
(0.319989 8.9632e-17 1.72481e-17 0.307255 -0.0529379 0.44703)
(0.313613 9.07625e-17 2.03566e-17 0.319695 -0.067016 0.400612)
(0.319627 1.10996e-16 2.46568e-17 0.346505 -0.0979356 0.381482)
(0.268681 6.92415e-17 2.11833e-17 0.276361 -0.0525181 0.318306)
(0.260506 6.52076e-17 1.97913e-17 0.277022 -0.0509112 0.285455)
(0.265386 7.0119e-17 2.34712e-17 0.301508 -0.0791612 0.261438)
(0.228217 3.07706e-17 1.57423e-17 0.246639 -0.0461509 0.222118)
(0.216785 3.62739e-17 1.66716e-17 0.234136 -0.0432519 0.204542)
(0.213922 4.57985e-17 2.07012e-17 0.237231 -0.043781 0.193429)
(0.228669 7.37897e-17 4.10685e-17 0.278732 -0.0641701 0.18201)
(0.2103 4.53907e-17 2.51186e-17 0.250906 -0.0379209 0.163376)
(0.205604 4.18898e-17 2.38966e-17 0.245563 -0.0362022 0.159425)
(0.213677 6.5468e-17 4.45524e-17 0.267811 -0.054581 0.15617)
(0.202156 4.72272e-17 3.15192e-17 0.243853 -0.0392447 0.160508)
(0.669108 -7.77801e-15 -8.73347e-15 0.920786 0.138383 0.986372)
(0.586413 -4.68464e-15 -7.02369e-15 0.871664 0.0654447 0.79927)
(0.469683 4.81211e-16 -4.43708e-15 0.792411 0.0598666 0.53561)
(0.386534 2.36315e-15 -3.1335e-15 0.728452 0.0796858 0.362903)
(0.348954 1.85148e-15 -2.40095e-15 0.701583 0.0742244 0.286289)
(0.367341 8.33488e-16 -1.67184e-15 0.761719 0.0378074 0.283059)
(0.425553 7.8803e-16 -1.05632e-15 0.890091 -0.0291782 0.318338)
(0.523023 1.84956e-15 -5.18765e-16 1.07225 -0.134933 0.395742)
(0.691584 3.71413e-15 -1.32354e-16 1.3506 -0.270917 0.56282)
(0.930629 5.17556e-15 -2.72698e-17 1.71619 -0.449738 0.864443)
(1.01853 4.47944e-15 -3.21247e-16 1.77995 -0.439757 1.08576)
(0.871385 3.34075e-15 -3.80777e-16 1.41923 -0.197942 1.06541)
(0.656456 2.34278e-15 -3.04707e-16 1.00015 0.0382096 0.837068)
(0.498235 1.58436e-15 -1.16107e-16 0.754996 0.133674 0.572846)
(0.435192 1.02312e-15 4.75315e-17 0.726956 -0.0152875 0.374246)
(0.419037 5.58821e-16 4.62824e-17 0.750248 -0.161697 0.282784)
(0.389811 2.94085e-16 5.45882e-17 0.661026 -0.186614 0.272265)
(0.333422 1.58466e-16 6.7424e-17 0.523181 -0.15469 0.246167)
(0.276013 1.04199e-16 8.05334e-17 0.395067 -0.0937906 0.200012)
(0.728954 -9.33449e-15 -9.66366e-15 0.964498 0.203913 1.13667)
(0.635137 -5.74815e-15 -7.24649e-15 0.908621 0.115905 0.923668)
(0.499239 -2.3266e-16 -4.26961e-15 0.817234 0.0848872 0.605121)
(0.406356 2.08831e-15 -3.13892e-15 0.751616 0.0959732 0.398862)
(0.373481 1.53363e-15 -2.44454e-15 0.737235 0.0898807 0.318487)
(0.405974 4.18202e-16 -1.6948e-15 0.825732 0.0638629 0.324195)
(0.487841 6.29074e-16 -9.96944e-16 1.00119 0.0207161 0.376303)
(0.623933 2.23647e-15 -3.03361e-16 1.26164 -0.0350494 0.483026)
(0.848818 4.9633e-15 3.23698e-16 1.65311 -0.0951394 0.70436)
(1.1347 6.80874e-15 3.45168e-16 2.07521 -0.390634 1.09259)
(1.15894 5.37721e-15 -4.50618e-16 1.97292 -0.423826 1.31488)
(0.94683 3.72365e-15 -5.09052e-16 1.48676 -0.175245 1.23706)
(0.702339 2.52989e-15 -3.591e-16 1.03739 0.0702578 0.942659)
(0.536467 1.68882e-15 -1.13312e-16 0.807486 0.156193 0.626961)
(0.468605 1.07707e-15 4.54335e-17 0.794355 -0.0218501 0.395067)
(0.458143 6.19366e-16 3.19853e-17 0.816174 -0.178144 0.319652)
(0.424402 3.32711e-16 4.0044e-17 0.707276 -0.20992 0.317546)
(0.36294 1.77639e-16 6.48221e-17 0.552338 -0.173248 0.2985)
(0.302747 1.17451e-16 7.74928e-17 0.424832 -0.116085 0.243266)
(0.83011 -1.00844e-14 -1.00055e-14 1.03349 0.297239 1.39037)
(0.718302 -6.19342e-15 -6.97716e-15 0.96936 0.198027 1.13067)
(0.559338 -1.4387e-15 -4.0414e-15 0.87206 0.146544 0.739518)
(0.456204 1.38609e-15 -3.09271e-15 0.816196 0.141859 0.487415)
(0.423652 1.46377e-15 -2.47209e-15 0.811629 0.138666 0.389375)
(0.471002 3.42942e-16 -1.70627e-15 0.926033 0.149706 0.403823)
(0.589004 6.29198e-16 -7.87148e-16 1.17021 0.191445 0.486342)
(0.789884 2.97326e-15 4.23485e-16 1.55809 0.349968 0.648985)
(1.12936 7.38098e-15 2.15168e-15 2.14735 0.444342 0.998218)
(1.49968 9.53342e-15 2.0213e-15 2.6406 -0.0869488 1.53203)
(1.36411 7.05796e-15 -3.19059e-16 2.22833 -0.309427 1.61384)
(1.06512 4.45618e-15 -6.99076e-16 1.57568 -0.119959 1.50873)
(0.77974 2.85893e-15 -5.04262e-16 1.08462 0.117703 1.14794)
(0.59664 1.8565e-15 -1.52654e-16 0.871154 0.192363 0.73893)
(0.525288 1.15518e-15 3.79979e-17 0.890814 0.0112982 0.443835)
(0.544007 7.48349e-16 3.43334e-17 0.927925 -0.161541 0.418296)
(0.493769 4.23746e-16 2.78856e-17 0.782693 -0.20833 0.404974)
(0.415364 2.36519e-16 6.21414e-17 0.592939 -0.177366 0.381969)
(0.350975 1.54766e-16 6.60201e-17 0.470758 -0.152695 0.328519)
(0.957099 -9.19879e-15 -9.13785e-15 1.13111 0.407549 1.68359)
(0.835085 -5.88877e-15 -6.19644e-15 1.06957 0.300314 1.39289)
(0.658574 -2.34415e-15 -3.7167e-15 0.974665 0.237289 0.944157)
(0.542856 4.51786e-16 -3.01234e-15 0.927781 0.227194 0.641809)
(0.511618 1.39061e-15 -2.45029e-15 0.940939 0.237481 0.521686)
(0.582751 7.81681e-16 -1.63368e-15 1.09281 0.311083 0.555957)
(0.763769 1.20397e-15 -3.10286e-16 1.44095 0.484578 0.711336)
(1.08404 4.23956e-15 1.89157e-15 2.0177 0.935775 1.0359)
(1.66816 9.74004e-15 5.42981e-15 2.8784 1.15756 1.86252)
(1.99092 1.13561e-14 4.85475e-15 3.19498 0.505199 2.44184)
(1.64378 9.09659e-15 7.28678e-16 2.55085 0.0175936 2.05573)
(1.23708 5.68062e-15 -7.28269e-16 1.76344 0.0251175 1.80359)
(0.902978 3.4339e-15 -6.96563e-16 1.19387 0.203265 1.43132)
(0.690676 2.13128e-15 -2.49903e-16 0.968793 0.242722 0.922185)
(0.6302 1.28963e-15 4.04869e-17 1.03136 0.133928 0.570189)
(0.706487 1.00745e-15 9.01484e-17 1.09419 -0.0780378 0.652887)
(0.620883 6.61128e-16 2.71346e-17 0.901697 -0.156846 0.581172)
(0.518901 3.84299e-16 6.42548e-17 0.691773 -0.150711 0.533555)
(0.44273 2.17738e-16 6.51633e-17 0.578504 -0.184061 0.465778)
(1.09315 -7.54474e-15 -7.41204e-15 1.23957 0.52718 1.97077)
(0.976332 -5.05773e-15 -5.00568e-15 1.19424 0.423801 1.6863)
(0.795939 -2.72922e-15 -3.24347e-15 1.11416 0.359523 1.21654)
(0.676185 -4.50825e-16 -2.87468e-15 1.09106 0.356768 0.88074)
(0.652045 1.07556e-15 -2.38543e-15 1.13563 0.391375 0.745365)
(0.756997 1.51322e-15 -1.38317e-15 1.33196 0.535344 0.819075)
(1.02117 2.66775e-15 6.00244e-16 1.77963 0.853384 1.10346)
(1.49317 6.34013e-15 4.21076e-15 2.49168 1.47388 1.7443)
(2.20461 9.82183e-15 7.90014e-15 3.25773 1.74029 3.14502)
(2.4651 1.00003e-14 6.54186e-15 3.40792 1.26732 3.78178)
(2.03974 9.55549e-15 2.30775e-15 2.90326 0.589223 2.94799)
(1.48332 6.77224e-15 -2.52377e-16 2.0806 0.355057 2.20842)
(1.08428 4.2837e-15 -7.27838e-16 1.42968 0.397954 1.74716)
(0.841541 2.65718e-15 -2.88932e-16 1.16192 0.397243 1.17872)
(0.83279 1.67616e-15 2.30021e-16 1.22888 0.427547 0.918568)
(0.972756 1.35865e-15 3.40858e-16 1.29054 0.208848 1.16046)
(0.8314 1.08503e-15 1.70883e-16 1.04191 0.0595062 0.939621)
(0.676807 7.19677e-16 8.56048e-17 0.798268 -0.00187015 0.784554)
(0.557693 4.01107e-16 1.76146e-17 0.666929 -0.175269 0.658299)
(1.2319 -5.86567e-15 -5.55076e-15 1.35573 0.65247 2.23634)
(1.14105 -4.26165e-15 -3.8675e-15 1.3484 0.571875 2.00071)
(0.979823 -2.91103e-15 -2.80726e-15 1.30777 0.51794 1.55963)
(0.872355 -1.36705e-15 -2.79829e-15 1.32572 0.534191 1.22624)
(0.866722 3.39575e-16 -2.43399e-15 1.41706 0.602675 1.09788)
(1.01636 1.93969e-15 -1.15142e-15 1.6636 0.812599 1.2403)
(1.3725 4.25078e-15 1.63359e-15 2.16528 1.26522 1.72695)
(2.00105 7.36227e-15 5.94016e-15 2.88247 1.81565 2.87232)
(2.63935 6.83782e-15 6.82054e-15 3.3497 2.0417 4.46488)
(2.81265 5.37166e-15 3.94675e-15 3.43275 1.86259 4.98459)
(2.51349 6.66171e-15 2.10375e-15 3.27754 1.30419 4.21319)
(1.89889 6.59458e-15 4.27506e-16 2.63404 0.915669 3.02191)
(1.37352 4.84976e-15 -3.81602e-16 1.87796 0.790744 2.21874)
(1.11174 3.29963e-15 3.94851e-17 1.57664 0.77839 1.59581)
(1.25687 1.77829e-15 5.95745e-16 1.65404 0.93602 1.78555)
(1.48735 1.22794e-15 6.65498e-16 1.66167 0.814993 2.36825)
(1.28496 1.11696e-15 5.91726e-16 1.38788 0.554467 1.95616)
(1.04157 1.00911e-15 2.53425e-16 1.21838 0.313934 1.40116)
(0.757782 5.7966e-16 9.94481e-17 0.955016 0.0248895 0.862087)
(1.3615 -5.00218e-15 -4.34553e-15 1.46532 0.760017 2.45955)
(1.31423 -4.16302e-15 -3.35619e-15 1.51362 0.72519 2.30328)
(1.19776 -3.64058e-15 -2.89644e-15 1.53815 0.696425 1.93757)
(1.12249 -2.81881e-15 -3.12063e-15 1.61522 0.730146 1.64808)
(1.14382 -1.22957e-15 -2.83054e-15 1.75728 0.820746 1.54828)
(1.32843 1.08204e-15 -1.39874e-15 2.02723 1.05209 1.76353)
(1.73055 3.85857e-15 1.47897e-15 2.47013 1.46772 2.44861)
(2.35381 4.57735e-15 4.04043e-15 2.93853 1.81027 3.89177)
(2.79161 1.87772e-15 2.19614e-15 3.16006 2.01934 5.15581)
(2.91609 3.39258e-16 -6.55667e-16 3.29768 2.12226 5.50109)
(2.80991 1.86006e-15 -6.48064e-16 3.45749 1.96694 5.091)
(2.43169 4.38612e-15 2.17821e-16 3.30761 1.65183 4.1727)
(1.89829 4.28966e-15 -1.99802e-17 2.68817 1.43998 3.15305)
(1.64855 3.11482e-15 4.52819e-16 2.36401 1.42592 2.52468)
(2.03925 8.67591e-16 3.75026e-16 2.28691 1.5979 3.67466)
(2.3363 4.3778e-16 3.09283e-16 2.19652 1.60476 4.68786)
(1.97192 4.60733e-16 4.16445e-16 1.84574 1.33338 3.83141)
(1.69108 5.88178e-16 3.16113e-16 1.5771 1.12372 3.27635)
(0.871306 1.42351e-16 1.11095e-16 0.670118 0.199297 1.57852)
(1.46328 -5.18206e-15 -3.93759e-15 1.55699 0.804263 2.59986)
(1.4655 -5.00658e-15 -3.63103e-15 1.67409 0.827691 2.51738)
(1.41211 -5.42632e-15 -3.77257e-15 1.78945 0.837921 2.24091)
(1.38788 -5.42708e-15 -4.06342e-15 1.93941 0.875818 2.02948)
(1.43269 -4.17767e-15 -3.70416e-15 2.11417 0.94759 1.96491)
(1.60793 -1.70096e-15 -2.32675e-15 2.33616 1.09957 2.20368)
(1.94295 6.906e-16 -2.59992e-16 2.5699 1.30567 2.91312)
(2.36907 -1.44565e-16 1.41182e-16 2.66817 1.47318 4.14546)
(2.6417 -2.42528e-15 -1.91747e-15 2.74911 1.69156 5.02308)
(2.77226 -2.78564e-15 -3.24865e-15 2.94904 1.99904 5.33999)
(2.8524 -1.26967e-15 -2.51821e-15 3.3424 2.30545 5.33234)
(2.86455 9.81588e-16 -1.05279e-15 3.77451 2.35952 5.13153)
(2.65783 1.71315e-15 -5.21962e-16 3.72252 2.30434 4.62909)
(2.67598 7.28696e-16 -3.05779e-16 3.35597 2.27122 4.92608)
(3.09745 8.23693e-18 -4.54831e-16 2.91433 2.08936 6.73369)
(2.89999 8.96656e-17 -3.18609e-17 2.53314 1.91671 6.5076)
(2.09353 1.57933e-16 2.32488e-16 1.82716 1.32708 4.43927)
(1.36101 2.32533e-16 2.8307e-16 1.20254 0.476443 2.33339)
(1.23709 2.5465e-16 1.63292e-16 1.27847 -0.286076 1.48116)
(1.50771 -6.13709e-15 -3.70364e-15 1.6052 0.710273 2.59165)
(1.54368 -6.17594e-15 -3.82855e-15 1.78325 0.777774 2.53268)
(1.54368 -6.73824e-15 -4.14178e-15 1.9881 0.818061 2.30748)
(1.56853 -7.29291e-15 -4.23246e-15 2.20394 0.832518 2.16734)
(1.62212 -6.80002e-15 -3.72544e-15 2.3792 0.82267 2.126)
(1.73556 -5.03125e-15 -2.60733e-15 2.47486 0.807985 2.3063)
(1.91524 -3.57162e-15 -1.59845e-15 2.42477 0.798631 2.83197)
(2.12311 -4.41203e-15 -2.03911e-15 2.23328 0.87459 3.67772)
(2.31712 -5.19617e-15 -3.0703e-15 2.22775 1.06541 4.40288)
(2.47886 -4.55047e-15 -3.20131e-15 2.45801 1.35136 4.80075)
(2.58829 -3.28634e-15 -2.633e-15 2.85609 1.71783 4.82586)
(2.72091 -1.9599e-15 -1.94569e-15 3.34592 2.06957 4.87006)
(2.83325 -8.00315e-16 -1.14403e-15 3.57564 2.08624 5.17322)
(2.70063 -2.9818e-16 -4.02353e-16 2.99495 1.6583 5.337)
(2.29902 -3.18481e-17 3.60321e-18 2.30168 1.16574 4.64038)
(1.76287 8.86588e-17 1.76653e-16 1.90084 0.807244 2.98827)
(1.40235 1.07166e-16 1.48904e-16 1.73394 0.394881 1.73929)
(1.37057 1.63555e-16 1.08233e-16 1.84329 -0.0979133 1.38547)
(1.49597 2.12262e-16 2.83405e-17 2.09436 -0.613651 1.35976)
(1.49697 -7.78711e-15 -2.91319e-15 1.60797 0.382905 2.46083)
(1.53773 -8.37231e-15 -3.25289e-15 1.82268 0.442133 2.35356)
(1.55693 -8.87854e-15 -3.66255e-15 2.09142 0.480799 2.09633)
(1.60987 -9.24699e-15 -3.66032e-15 2.36702 0.468199 1.9682)
(1.67514 -9.34674e-15 -3.11983e-15 2.55866 0.394816 1.95349)
(1.74546 -8.97619e-15 -2.34734e-15 2.56923 0.280791 2.10652)
(1.81859 -8.51889e-15 -1.95396e-15 2.32324 0.159968 2.52389)
(1.91544 -8.11384e-15 -1.52407e-15 1.93365 0.129383 3.25023)
(2.09188 -6.9305e-15 -1.43232e-15 1.86255 0.131399 4.01834)
(2.2161 -6.13924e-15 -9.77466e-16 2.08288 0.112811 4.28023)
(2.17558 -5.51898e-15 -7.59093e-16 2.36985 0.108372 3.82709)
(2.10822 -4.68672e-15 -8.91856e-16 2.66642 0.241328 3.26867)
(2.05444 -3.61422e-15 -5.3906e-16 2.77964 0.483656 2.99107)
(1.89304 -2.586e-15 -6.05936e-16 2.46833 0.368083 2.76134)
(1.62716 -1.98228e-15 -5.04624e-16 2.13231 0.101136 2.15181)
(1.51369 -1.79853e-15 1.88337e-16 2.27717 -0.0922686 1.53373)
(1.63935 -1.70934e-15 2.9351e-16 2.82843 -0.284473 1.33286)
(1.91614 -1.53711e-15 3.86454e-16 3.59067 -0.575214 1.43462)
(2.20278 -1.33518e-15 4.64159e-16 4.3121 -0.953243 1.52175)
(1.50454 -6.76163e-15 -1.38751e-15 1.62071 -0.167076 2.44834)
(1.54364 -7.21954e-15 -1.40723e-15 1.84765 -0.16404 2.31222)
(1.56312 -6.97854e-15 -1.69048e-15 2.13881 -0.155063 2.01902)
(1.62137 -6.56765e-15 -1.89921e-15 2.44618 -0.18244 1.86267)
(1.69695 -6.39184e-15 -1.75253e-15 2.65917 -0.231597 1.86283)
(1.7667 -6.94977e-15 -1.12823e-15 2.65018 -0.310603 2.04843)
(1.82862 -7.84077e-15 2.73635e-16 2.3542 -0.450802 2.49679)
(1.93505 -7.60481e-15 1.56901e-15 1.9537 -0.684826 3.28045)
(2.16673 -6.08196e-15 2.6952e-15 1.92985 -0.95617 4.1995)
(2.35339 -5.06425e-15 2.94836e-15 2.19514 -1.2426 4.65154)
(2.38857 -4.39366e-15 2.85959e-15 2.53852 -1.50232 4.44882)
(2.39863 -3.73001e-15 2.46273e-15 2.90344 -1.50172 4.14477)
(2.31956 -3.40918e-15 1.7866e-15 2.99238 -0.979859 3.79856)
(1.97178 -2.9483e-15 6.8959e-16 2.52756 -0.322674 2.98932)
(1.60385 -2.37073e-15 -5.18662e-17 2.12542 -0.00928521 2.05446)
(1.50276 -2.12251e-15 -2.35667e-16 2.28215 0.16436 1.46798)
(1.67373 -1.9734e-15 -3.13767e-16 2.8906 0.325793 1.35846)
(1.95653 -1.82983e-15 -3.49913e-16 3.64156 0.583379 1.47922)
(2.2367 -1.74794e-15 -4.16055e-16 4.34268 0.979273 1.55167)
(1.55278 -2.71194e-15 -1.23945e-15 1.65452 -0.632496 2.64428)
(1.59774 -2.32895e-15 -1.07676e-15 1.87012 -0.68573 2.55753)
(1.61388 -7.54184e-16 -1.70636e-15 2.14333 -0.734347 2.28716)
(1.66484 9.74475e-16 -2.65993e-15 2.44451 -0.771958 2.12333)
(1.7333 1.83656e-15 -3.18021e-15 2.65914 -0.801449 2.09906)
(1.82859 1.47057e-15 -3.02616e-15 2.70443 -0.879007 2.29502)
(1.96725 -5.03836e-16 -1.66342e-15 2.54508 -1.03574 2.8245)
(2.16381 -2.93123e-15 1.11084e-15 2.32338 -1.28156 3.67956)
(2.42431 -3.50557e-15 3.2718e-15 2.37899 -1.61798 4.58433)
(2.67987 -2.52193e-15 3.51272e-15 2.67247 -2.02826 5.27982)
(2.89948 -1.0647e-15 2.56065e-15 3.15332 -2.35126 5.69247)
(3.02722 -3.45258e-16 1.70351e-15 3.59815 -2.46066 5.8664)
(3.01882 -8.12023e-16 1.51014e-15 3.58955 -2.07652 5.9463)
(2.71491 -9.96606e-16 1.01343e-15 2.8578 -1.29793 5.5758)
(2.11937 -7.03359e-16 3.54377e-16 2.20458 -0.802361 4.02316)
(1.60524 -3.90573e-16 7.39084e-17 1.84581 -0.59128 2.38615)
(1.39197 -1.38711e-16 -2.47101e-17 1.76085 -0.395035 1.60076)
(1.42097 -9.73627e-17 -4.22904e-17 1.89106 0.0533395 1.44001)
(1.55497 -3.55004e-17 -3.27641e-17 2.14784 0.619514 1.41567)
(1.5611 4.16137e-16 -2.41037e-15 1.66249 -0.861137 2.76297)
(1.59101 3.64233e-16 -1.61291e-15 1.84058 -0.914918 2.69482)
(1.57532 1.78955e-15 -1.98426e-15 2.05497 -0.955502 2.41903)
(1.58539 3.59153e-15 -3.2207e-15 2.3114 -0.989972 2.20205)
(1.62908 4.88021e-15 -4.12041e-15 2.5337 -1.04972 2.10148)
(1.76497 5.44025e-15 -4.68304e-15 2.7154 -1.21599 2.28245)
(2.03947 4.67159e-15 -4.60011e-15 2.83597 -1.51054 2.94191)
(2.43166 1.94914e-15 -2.32547e-15 2.87667 -1.77542 4.13698)
(2.74644 -3.43127e-16 1.16089e-15 3.00297 -2.01368 5.11789)
(2.90636 -3.10333e-16 2.3327e-15 3.22081 -2.18885 5.55435)
(2.93905 1.39493e-15 1.31978e-15 3.53026 -2.14283 5.57451)
(2.69974 2.12621e-15 7.62873e-16 3.51187 -2.18145 5.0172)
(2.54776 1.02966e-15 9.45436e-16 3.3214 -2.33237 4.73064)
(3.02817 -6.11195e-16 1.61108e-15 3.17212 -2.10313 6.31032)
(3.08379 -5.05501e-16 1.09626e-15 2.81108 -1.74465 6.94287)
(2.44159 -2.03839e-16 4.23749e-16 2.26314 -1.57186 5.18187)
(1.89567 -1.6167e-17 6.68321e-17 1.76913 -1.27138 3.71925)
(1.41852 9.34962e-17 -3.70326e-17 1.28469 -0.521027 2.40379)
(1.30761 2.02508e-16 -4.08399e-17 1.3367 0.296942 1.57602)
(1.5136 3.32376e-15 -4.80339e-15 1.62867 -0.91509 2.74211)
(1.50192 2.50214e-15 -3.17025e-15 1.74371 -0.923058 2.62723)
(1.42353 3.05333e-15 -2.58852e-15 1.86219 -0.90791 2.28448)
(1.36304 4.22737e-15 -3.39288e-15 2.02709 -0.911176 1.9638)
(1.35779 4.94534e-15 -3.93322e-15 2.20794 -0.946668 1.75874)
(1.47757 5.38466e-15 -4.3231e-15 2.44807 -1.11004 1.82279)
(1.78167 6.04621e-15 -5.01879e-15 2.78716 -1.5026 2.3229)
(2.3061 5.94128e-15 -5.23655e-15 3.15349 -1.92261 3.55234)
(2.77664 4.01462e-15 -2.72445e-15 3.39759 -2.05836 4.89608)
(2.88314 3.56803e-15 -7.4088e-16 3.5273 -1.80654 5.20949)
(2.58151 4.82812e-15 -3.93369e-16 3.4142 -1.45255 4.49838)
(2.05428 4.49601e-15 1.85807e-16 2.81806 -1.34963 3.55019)
(1.66975 2.97385e-15 2.90679e-16 2.29579 -1.49323 2.81536)
(1.96945 5.70341e-16 3.13804e-16 2.47512 -1.8294 3.31751)
(2.692 -2.58863e-16 8.3429e-16 2.61004 -1.81605 5.56247)
(2.44589 -2.87479e-16 7.41906e-16 2.20725 -1.61362 5.14483)
(1.90473 -5.02711e-17 2.84436e-16 1.84909 -1.26986 3.58462)
(1.59807 2.15803e-16 1.53813e-16 1.58755 -1.08021 2.95639)
(0.922963 6.83144e-17 2.97034e-17 0.715578 -0.200579 1.65923)
(1.43076 6.37013e-15 -7.96882e-15 1.56848 -0.872616 2.62542)
(1.37424 5.16624e-15 -5.79793e-15 1.62393 -0.820171 2.44036)
(1.23481 4.58696e-15 -3.90489e-15 1.65122 -0.747293 2.00792)
(1.11434 4.47281e-15 -3.64674e-15 1.72067 -0.717212 1.59563)
(1.067 4.03492e-15 -3.41073e-15 1.83417 -0.702892 1.32842)
(1.13989 3.96754e-15 -3.21883e-15 2.04186 -0.778961 1.28713)
(1.37262 5.20915e-15 -3.57366e-15 2.43187 -1.05002 1.51467)
(1.81222 7.61241e-15 -4.72566e-15 3.00385 -1.5469 2.21202)
(2.38552 8.23725e-15 -4.89228e-15 3.49497 -1.62729 3.53586)
(2.52779 8.09871e-15 -3.03451e-15 3.57075 -1.10083 3.96029)
(2.06445 7.02698e-15 -5.84581e-16 3.01103 -0.724199 3.13737)
(1.52416 5.10258e-15 5.44053e-16 2.18631 -0.67783 2.38751)
(1.19021 3.08498e-15 4.86838e-16 1.65501 -0.862989 1.86131)
(1.24824 1.19563e-15 -1.77813e-16 1.82432 -1.18575 1.64746)
(1.81804 3.87301e-16 5.7412e-17 2.04087 -1.35981 3.1417)
(1.80899 1.51099e-16 2.35721e-16 1.79693 -0.98264 3.26015)
(1.41143 3.43445e-16 1.45914e-16 1.403 -0.576261 2.33906)
(1.07586 5.25923e-16 1.27651e-16 1.20564 -0.354391 1.50966)
(0.776208 3.8271e-16 1.06873e-16 0.962294 -0.0391087 0.876473)
(1.32418 8.74064e-15 -1.05476e-14 1.48626 -0.781214 2.43583)
(1.23352 7.56082e-15 -8.26673e-15 1.4921 -0.681983 2.19555)
(1.05523 5.81753e-15 -5.24087e-15 1.45081 -0.575518 1.70066)
(0.905437 4.12412e-15 -3.79159e-15 1.45312 -0.523784 1.25024)
(0.838509 2.69014e-15 -2.8385e-15 1.51263 -0.469263 0.973426)
(0.877915 2.53109e-15 -2.25002e-15 1.66908 -0.463739 0.894648)
(1.03733 3.91304e-15 -2.10071e-15 2.00938 -0.543579 0.976326)
(1.33208 6.41418e-15 -2.444e-15 2.56227 -0.765444 1.25518)
(1.76973 8.93856e-15 -3.05856e-15 3.18848 -0.773602 1.93173)
(1.9369 9.07488e-15 -1.63132e-15 3.28634 -0.381423 2.32869)
(1.58763 6.78863e-15 3.17062e-16 2.56474 -0.174506 2.04861)
(1.20537 4.45697e-15 9.20053e-16 1.80525 -0.278889 1.7433)
(0.945118 2.50235e-15 5.98292e-16 1.35259 -0.500711 1.37524)
(0.864595 1.09638e-15 -5.16603e-17 1.40572 -0.685901 0.897443)
(1.19918 7.11263e-16 -1.63351e-16 1.55644 -0.81634 1.6625)
(1.23949 5.89659e-16 -2.5212e-17 1.44989 -0.383481 1.75135)
(0.960315 6.25306e-16 1.12523e-16 1.09084 -0.117163 1.24995)
(0.741817 5.23492e-16 1.7687e-16 0.820599 -0.0419144 0.932274)
(0.591276 4.0713e-16 1.79222e-16 0.674524 0.145118 0.706973)
(1.20118 9.45427e-15 -1.12847e-14 1.39489 -0.669929 2.17584)
(1.09528 8.45953e-15 -9.24794e-15 1.37035 -0.547639 1.91694)
(0.905633 5.8875e-15 -5.80958e-15 1.29053 -0.429156 1.41325)
(0.753116 3.09464e-15 -3.68468e-15 1.25628 -0.369999 0.978867)
(0.681613 1.39986e-15 -2.39427e-15 1.27712 -0.301447 0.72632)
(0.705728 1.65177e-15 -1.67309e-15 1.39817 -0.252985 0.65197)
(0.819875 2.99447e-15 -1.25709e-15 1.67487 -0.214141 0.687521)
(1.01399 4.57596e-15 -1.03168e-15 2.10125 -0.176489 0.812438)
(1.28362 6.38559e-15 -9.16134e-16 2.59325 -0.0820053 1.10389)
(1.45445 6.96655e-15 -1.09222e-16 2.75427 0.0899944 1.43112)
(1.2809 5.3672e-15 8.35983e-16 2.22384 0.117382 1.48297)
(1.01491 3.58397e-15 9.44203e-16 1.59634 -0.0965962 1.36888)
(0.807722 2.11209e-15 5.43831e-16 1.21906 -0.335032 1.075)
(0.715788 1.05008e-15 8.32676e-17 1.23091 -0.377567 0.6702)
(0.861288 7.21119e-16 -9.00815e-17 1.3002 -0.402664 0.935371)
(0.907826 6.789e-16 2.83098e-17 1.25178 -0.00848695 1.00078)
(0.728088 5.84731e-16 1.56375e-16 0.96106 0.140588 0.787493)
(0.584852 4.22498e-16 1.75155e-16 0.724039 0.128963 0.660096)
(0.487231 3.01588e-16 1.3138e-16 0.595509 0.162896 0.540118)
(1.06806 8.35705e-15 -1.01325e-14 1.29897 -0.549148 1.8575)
(0.964298 7.58152e-15 -8.60972e-15 1.25814 -0.423562 1.61819)
(0.784744 4.68323e-15 -5.53551e-15 1.1613 -0.309074 1.15865)
(0.645651 1.66804e-15 -3.39161e-15 1.1135 -0.257289 0.77721)
(0.579538 4.96612e-16 -2.10976e-15 1.11616 -0.197306 0.566492)
(0.598487 1.26563e-15 -1.36417e-15 1.22005 -0.134283 0.509421)
(0.686488 2.37183e-15 -8.42399e-16 1.44787 -0.0465601 0.532058)
(0.822703 3.21644e-15 -4.4967e-16 1.76137 0.0768772 0.606891)
(0.999303 4.25794e-15 -1.20411e-16 2.10374 0.220692 0.772302)
(1.14122 4.92068e-15 4.24334e-16 2.26856 0.302951 1.02031)
(1.08114 4.22241e-15 8.87662e-16 1.97444 0.231746 1.15668)
(0.89606 3.04115e-15 8.34294e-16 1.49044 -0.0159496 1.10605)
(0.72582 1.9592e-15 4.73805e-16 1.15762 -0.242414 0.876756)
(0.638787 1.1544e-15 1.34499e-16 1.11851 -0.210867 0.576212)
(0.679552 6.39613e-16 -1.10682e-17 1.14823 -0.146578 0.589184)
(0.711124 5.76504e-16 7.67881e-17 1.10978 0.162152 0.642089)
(0.589999 4.40051e-16 1.38972e-16 0.863182 0.233139 0.560548)
(0.480389 3.15829e-16 1.38473e-16 0.638073 0.177593 0.493975)
(0.397026 2.26729e-16 1.00343e-16 0.496155 0.140006 0.404288)
(0.94958 6.40992e-15 -8.21586e-15 1.22416 -0.438265 1.54596)
(0.858351 5.73631e-15 -7.20291e-15 1.17988 -0.317535 1.34475)
(0.70086 2.90059e-15 -4.88729e-15 1.08202 -0.217176 0.959632)
(0.578926 4.57733e-16 -3.12158e-15 1.02691 -0.185652 0.644213)
(0.518205 8.47062e-17 -1.9592e-15 1.01724 -0.145036 0.472962)
(0.533825 1.06233e-15 -1.20807e-15 1.11027 -0.078774 0.429366)
(0.6053 1.8824e-15 -6.66743e-16 1.30247 0.0269188 0.44774)
(0.710957 2.39313e-15 -2.50613e-16 1.5474 0.170185 0.505641)
(0.842983 3.10139e-15 1.13979e-16 1.80492 0.316377 0.625133)
(0.960058 3.70162e-15 5.30145e-16 1.95684 0.372312 0.813279)
(0.951958 3.50317e-15 8.06482e-16 1.80271 0.27158 0.950266)
(0.820628 2.71734e-15 7.29466e-16 1.43002 0.0291844 0.930029)
(0.676003 1.87076e-15 4.3827e-16 1.12375 -0.180217 0.755313)
(0.592912 1.17787e-15 1.77636e-16 1.04333 -0.126075 0.527631)
(0.58813 5.53601e-16 4.11468e-17 1.05989 -0.00373225 0.437169)
(0.599981 4.49208e-16 9.08504e-17 1.01459 0.230852 0.475038)
(0.513416 3.33388e-16 1.14527e-16 0.805352 0.253607 0.445197)
(0.424007 2.49695e-16 1.05003e-16 0.60596 0.184628 0.392845)
(0.344456 1.79114e-16 6.28549e-17 0.452198 0.107708 0.305792)
(0.875547 5.19618e-15 -7.05103e-15 1.17454 -0.364181 1.35111)
(0.793191 4.39786e-15 -6.26253e-15 1.12948 -0.249041 1.1728)
(0.656667 1.8431e-15 -4.49571e-15 1.04297 -0.172722 0.848753)
(0.549563 1.96013e-17 -3.00077e-15 0.991341 -0.157415 0.583523)
(0.487296 -7.54751e-17 -1.8951e-15 0.967448 -0.129389 0.428979)
(0.49443 8.05028e-16 -1.15397e-15 1.03997 -0.0656188 0.386221)
(0.551897 1.50251e-15 -6.23918e-16 1.19988 0.0412193 0.399537)
(0.638229 1.93954e-15 -2.16382e-16 1.40073 0.182525 0.446409)
(0.747071 2.53481e-15 1.38618e-16 1.61165 0.321736 0.540522)
(0.853141 3.09677e-15 4.89386e-16 1.76082 0.379048 0.691848)
(0.871388 3.11678e-15 7.1856e-16 1.68346 0.286313 0.824854)
(0.773533 2.54234e-15 6.70829e-16 1.38192 0.0607568 0.832477)
(0.644785 1.82166e-15 4.37737e-16 1.09051 -0.140324 0.697797)
(0.560172 1.1747e-15 2.07358e-16 0.973539 -0.110374 0.507625)
(0.541865 5.02792e-16 5.81868e-17 0.989353 0.040219 0.379842)
(0.541042 3.71012e-16 8.2516e-17 0.93878 0.227681 0.397221)
(0.469231 2.81374e-16 9.22089e-17 0.760724 0.234148 0.36783)
(0.388107 2.17699e-16 8.20756e-17 0.577006 0.17241 0.320591)