/*--------------------------------*- C++ -*----------------------------------*\
| =========                 |                                                 |
| \\      /  F ield         | OpenFOAM: The Open Source CFD Toolbox           |
|  \\    /   O peration     | Version:  4.1                                   |
|   \\  /    A nd           | Web:      www.OpenFOAM.org                      |
|    \\/     M anipulation  |                                                 |
\*---------------------------------------------------------------------------*/
FoamFile
{
    version     2.0;
    format      ascii;
    class       volVectorField;
    location    "24";
    object      U;
}
// * * * * * * * * * * * * * * * * * * * * * * * * * * * * * * * * * * * * * //

dimensions      [0 1 -1 0 0 0 0];

internalField   nonuniform List<vector> 
1280
(
(-9.17356e-18 -3.16367 -1.80586)
(7.79325e-17 -2.71107 -1.69546)
(4.95257e-17 -2.54221 -1.18424)
(-8.70906e-17 -2.20712 -1.32958)
(-6.39266e-16 -2.34133 -1.90563)
(-1.16447e-15 -1.57834 -1.33877)
(-1.81852e-15 -1.53304 -1.46843)
(-2.303e-15 -1.17668 -1.46696)
(-3.21636e-15 -1.0822 -2.05524)
(-1.41678e-15 -0.525106 -1.47806)
(-3.48344e-16 -0.257392 -1.62883)
(3.4315e-15 0.110632 -2.67783)
(3.34702e-15 0.61362 -2.06527)
(2.79288e-15 0.932104 -1.79994)
(3.22102e-15 1.65416 -3.29599)
(2.10809e-15 1.8729 -2.70454)
(1.76499e-15 2.61365 -2.27453)
(1.58408e-15 2.22769 -4.71433)
(9.60751e-16 4.63088 -2.41277)
(6.95927e-16 2.5029 -6.60334)
(9.95282e-16 4.45969 1.7881)
(-1.18004e-16 4.54946 6.78466)
(-4.82071e-16 4.50385 8.38559)
(-9.14274e-16 4.95887 8.94813)
(-1.19743e-15 4.94625 9.22075)
(-1.72705e-15 5.34268 10.4055)
(-9.23049e-16 4.09839 7.90377)
(-2.53789e-15 8.41741 13.5354)
(-2.78504e-15 8.57744 13.6109)
(-3.07985e-15 8.56988 13.6064)
(-3.40326e-15 8.59171 13.5815)
(-3.71689e-15 8.55582 13.5617)
(-4.05336e-15 8.55616 13.4875)
(-4.40149e-15 8.45781 13.3948)
(-4.85431e-15 8.45957 13.2381)
(-5.36141e-15 8.28622 13.1261)
(-5.99634e-15 8.31859 12.9466)
(-7.20757e-15 8.03466 12.7962)
(-6.93141e-15 8.07579 13.0841)
(-5.35598e-15 7.89622 14.0658)
(-5.28489e-15 8.82939 14.4077)
(-3.37964e-15 5.40604 9.431)
(-3.27556e-15 4.28483 9.22497)
(-3.41718e-15 3.28559 9.2826)
(-1.42054e-15 1.216 8.27648)
(6.26395e-16 0.395044 2.73218)
(3.01567e-15 -0.282217 -0.341397)
(1.9358e-14 0.475287 -2.1833)
(1.00133e-13 0.518718 -5.12291)
(2.57891e-14 -0.535156 -3.21464)
(8.81039e-15 0.643569 -3.30937)
(5.49699e-15 -0.309803 -4.73557)
(5.43402e-15 -0.399815 -0.718405)
(5.67962e-15 0.19085 1.27218)
(2.78116e-15 -0.690235 4.16114)
(2.12801e-15 -1.41502 8.52265)
(1.56887e-15 -3.42161 9.13337)
(1.48515e-15 -4.40976 9.14276)
(1.5027e-15 -5.5785 9.39582)
(2.18787e-15 -8.78024 14.6017)
(2.42628e-15 -7.63853 14.6566)
(3.47723e-15 -7.8729 13.5205)
(4.69557e-15 -7.72919 12.6412)
(4.12467e-15 -8.10193 12.7077)
(3.37796e-15 -8.05406 12.9696)
(2.8886e-15 -8.28529 13.188)
(2.49378e-15 -8.28167 13.4534)
(2.15736e-15 -8.41996 13.645)
(1.84683e-15 -8.42219 13.8354)
(1.5823e-15 -8.48746 13.9341)
(1.34936e-15 -8.45475 13.9996)
(1.13311e-15 -8.45496 13.9725)
(9.5301e-16 -8.32404 13.8368)
(-1.44772e-15 -4.15547 8.42211)
(1.10465e-16 -4.6934 11.0202)
(-5.59756e-16 -4.40771 10.2403)
(-6.80122e-16 -4.37463 9.51407)
(-1.05232e-15 -3.91717 8.41865)
(-1.46535e-15 -4.14355 7.22224)
(-2.68332e-15 -3.92422 1.46749)
(-2.31654e-15 -2.44172 -5.65617)
(-2.45436e-15 -4.10874 -2.09623)
(-3.20268e-15 -2.34644 -4.02487)
(-2.34366e-15 -2.65803 -1.98901)
(-2.54268e-15 -2.01308 -2.32747)
(-3.4215e-15 -2.0397 -2.8273)
(-2.39719e-15 -1.42169 -1.64489)
(-2.69957e-15 -1.11417 -1.81835)
(-3.73238e-15 -0.931884 -2.19861)
(-2.45964e-15 -0.573911 -1.28176)
(-2.66679e-15 -0.320871 -1.40585)
(-3.28344e-15 -0.227658 -1.68155)
(-1.64184e-15 0.0638219 -1.30985)
(-1.20866e-15 0.261237 -1.26542)
(-9.85791e-16 0.392949 -1.00105)
(-2.88697e-15 0.634295 -1.34738)
(-2.52661e-15 0.761088 -0.956469)
(-2.66948e-15 1.0093 -0.886171)
(-3.85918e-15 0.896352 -1.37485)
(-4.72944e-15 1.49093 -1.54031)
(-4.6706e-15 0.844092 6.47439)
(-2.78599e-15 0.905105 8.53989)
(-2.00364e-16 1.232 7.96824)
(1.27573e-15 3.30459 6.60209)
(2.44958e-15 5.03002 5.27878)
(2.6432e-15 5.78844 4.42199)
(1.15283e-15 3.95045 3.68853)
(-3.35514e-17 -1.58645 2.2569)
(2.15901e-17 -4.04038 1.38193)
(-3.13452e-16 -4.54667 0.700565)
(-7.77256e-16 -3.83636 0.340906)
(-1.08533e-15 -0.435343 -0.447563)
(-1.64412e-15 3.34034 -1.76233)
(-1.65768e-15 3.38817 -3.5107)
(-1.80938e-15 0.418211 -4.52306)
(-2.63758e-15 -1.9134 -3.74118)
(-3.39821e-15 -2.11329 -2.71191)
(-3.90443e-15 -1.54333 -2.12361)
(-4.16276e-15 -0.569919 -2.02122)
(-4.70175e-15 -0.010325 6.32697)
(-2.27749e-15 0.392881 8.10923)
(8.43857e-16 1.8955 6.57372)
(2.4496e-15 4.20977 4.46569)
(4.20448e-15 5.69918 3.13266)
(4.42006e-15 6.23142 2.79271)
(1.81729e-15 4.55592 3.01302)
(3.12614e-16 -1.00612 2.54762)
(4.804e-16 -3.70174 1.50036)
(-2.18791e-17 -4.24912 0.995575)
(-6.57001e-16 -3.42131 0.765212)
(-9.66331e-16 0.243002 -0.249553)
(-1.26606e-15 4.25419 -2.26785)
(-7.84879e-16 4.39654 -4.06941)
(-8.24859e-16 0.759523 -5.77093)
(-2.01632e-15 -2.49155 -4.86776)
(-3.1698e-15 -2.6597 -3.00523)
(-3.84981e-15 -1.79355 -1.99511)
(-4.37305e-15 -0.83818 -1.66144)
(-3.6974e-15 0.0487366 6.35543)
(-1.61862e-15 0.780208 6.9451)
(5.49426e-16 2.6788 4.81188)
(1.70042e-15 4.76429 2.88101)
(3.61586e-15 5.80732 2.16173)
(3.57902e-15 6.00415 2.34207)
(8.30169e-16 4.19517 3.15902)
(2.27909e-16 -0.885223 3.37762)
(1.2937e-15 -3.33547 2.14848)
(6.58843e-16 -4.15634 1.52807)
(-4.78794e-16 -3.25769 1.49716)
(-6.42519e-16 0.855398 0.539629)
(-7.05416e-16 5.00092 -1.94162)
(-2.2915e-16 4.94755 -2.33448)
(-6.14173e-16 0.910231 -3.99439)
(-1.34877e-15 -2.95274 -4.97516)
(-2.63957e-15 -3.2711 -3.42988)
(-3.58178e-15 -2.09825 -2.1549)
(-4.40098e-15 -0.823162 -1.62354)
(-2.98274e-15 -0.199159 6.07226)
(-1.69369e-15 1.06841 5.83169)
(-2.08659e-16 3.50677 3.19153)
(1.08881e-15 5.24976 1.60422)
(2.60991e-15 5.85245 1.48432)
(1.98037e-15 5.79175 2.09476)
(-7.03439e-16 3.95191 3.51781)
(-9.04283e-16 -0.606165 4.24134)
(6.60118e-16 -3.01826 3.3195)
(2.56937e-16 -4.01951 2.73515)
(-3.06611e-16 -3.08337 2.47314)
(-6.93399e-16 1.5832 1.63457)
(-6.97748e-17 5.41272 0.256947)
(-3.62198e-16 5.15866 1.21363)
(-1.87904e-15 1.39512 -0.535622)
(-1.25986e-15 -2.78928 -3.53493)
(-2.12963e-15 -3.66566 -3.31528)
(-3.11248e-15 -2.54207 -2.40921)
(-3.87818e-15 -1.10365 -2.09847)
(-2.77949e-15 0.0876123 5.69751)
(-2.55102e-15 1.88686 4.29662)
(-1.03512e-15 4.34661 1.5667)
(1.02196e-15 5.45756 0.833868)
(1.29223e-15 5.6314 1.22936)
(8.46828e-17 5.26948 2.18985)
(-2.7239e-15 3.30854 4.14507)
(-3.81675e-15 -0.650237 5.23994)
(-2.2842e-15 -2.81416 4.68178)
(-1.31219e-15 -3.82939 4.44364)
(-6.10611e-16 -2.82567 3.93117)
(-5.80096e-16 1.83218 3.23319)
(2.69499e-16 5.1875 4.24205)
(-8.79607e-16 5.35648 4.54038)
(-2.52606e-15 2.53179 2.4861)
(-9.93647e-16 -1.98972 -1.0809)
(-1.62039e-15 -3.59095 -2.32425)
(-2.58617e-15 -2.54396 -2.38773)
(-3.0428e-15 -0.777068 -2.62682)
(-3.78982e-15 0.435898 4.98329)
(-3.88914e-15 2.73453 2.52271)
(-5.1517e-16 4.90008 0.619554)
(1.14057e-15 5.38151 0.747286)
(-4.30668e-17 5.30037 1.41616)
(-1.53217e-15 4.65201 2.65159)
(-4.79646e-15 2.62463 4.97534)
(-7.26485e-15 -0.734217 6.29409)
(-5.7799e-15 -2.75958 6.12136)
(-3.32937e-15 -3.72857 6.2741)
(-1.48963e-15 -2.61617 5.91528)
(-2.99108e-16 1.53014 6.21477)
(2.28526e-16 4.86682 8.10968)
(-6.86063e-16 5.88991 7.71022)
(-2.19578e-15 3.56378 5.70395)
(-2.55971e-15 -0.927745 2.03091)
(-1.72635e-15 -2.99348 -0.450992)
(-2.21238e-15 -2.62156 -1.32024)
(-2.59879e-15 -1.12079 -3.40881)
(-5.79239e-15 1.0973 4.043)
(-3.35918e-15 3.58913 1.07224)
(1.30066e-15 5.05195 0.731154)
(7.95489e-16 5.14581 1.09521)
(-8.77681e-16 4.87814 1.87865)
(-2.42959e-15 3.89308 3.34749)
(-6.39823e-15 1.78956 5.91239)
(-9.00766e-15 -1.01323 7.43739)
(-7.31469e-15 -2.84699 7.6347)
(-4.16126e-15 -3.77487 8.05813)
(-1.78566e-15 -2.75108 8.30637)
(-4.26175e-16 1.01254 9.59163)
(-3.5831e-16 4.65309 10.6734)
(-3.21602e-16 6.39918 10.6181)
(-1.24604e-15 4.78078 9.14163)
(-3.0777e-15 0.141817 4.71034)
(-2.31836e-15 -2.15508 1.26182)
(-2.79893e-15 -0.902531 -0.473456)
(-4.26637e-15 0.900629 -3.03669)
(-6.43992e-15 1.70711 3.25212)
(4.70977e-16 4.04715 0.881156)
(2.43684e-15 4.90788 1.45676)
(1.80696e-16 4.92175 1.58664)
(-7.06061e-16 4.40109 2.47697)
(-2.30175e-15 3.06204 4.16445)
(-7.07707e-15 0.923867 6.81024)
(-8.45648e-15 -1.37953 8.41963)
(-6.41653e-15 -3.04568 8.96651)
(-3.63704e-15 -4.03312 9.69789)
(-1.64198e-15 -3.15789 10.4842)
(-1.38635e-15 0.674121 11.2629)
(-1.71853e-15 4.48961 11.1733)
(-6.24532e-16 6.55503 11.9913)
(-1.27794e-16 5.97934 12.1089)
(-1.82016e-15 2.48921 8.84638)
(-3.33499e-15 -0.642335 4.01452)
(-2.2165e-15 -1.64637 4.5769)
(-4.1626e-16 -5.49821 9.34699)
(-3.58709e-15 2.13054 3.02235)
(3.84356e-15 4.25198 1.70732)
(2.04371e-15 4.78495 2.0924)
(1.16032e-16 4.72598 2.09415)
(4.99929e-16 3.85218 3.13889)
(-1.13381e-15 2.17564 5.01745)
(-6.92586e-15 0.046991 7.53985)
(-7.53786e-15 -1.84073 9.08589)
(-5.01035e-15 -3.38221 9.96345)
(-2.84853e-15 -4.40163 10.9304)
(-2.04741e-15 -3.3518 11.4379)
(-2.93362e-15 0.772656 10.3393)
(-2.78146e-15 4.29875 9.36293)
(-2.1612e-15 6.00567 11.0092)
(-6.52168e-16 5.84813 13.2428)
(5.99975e-16 2.90019 13.3993)
(-5.53239e-16 -0.514881 12.1747)
(3.27606e-16 -2.35356 11.8428)
(1.57599e-15 -3.79351 12.2519)
(1.19994e-15 2.33941 3.36677)
(4.53151e-15 4.37153 2.598)
(1.63206e-15 4.76686 2.53917)
(5.05269e-16 4.49222 2.62408)
(2.2852e-15 3.23772 3.86145)
(1.27102e-15 1.31143 5.82832)
(-5.19179e-15 -0.715646 7.96719)
(-6.01065e-15 -2.33821 9.378)
(-3.94859e-15 -3.79761 10.5094)
(-2.64004e-15 -4.63723 11.4597)
(-2.76063e-15 -2.96312 10.981)
(-2.86159e-15 1.43105 8.01233)
(-1.48578e-15 4.14518 6.59124)
(-2.9928e-15 5.02826 8.03483)
(-3.08441e-15 5.14184 11.5398)
(5.92912e-16 2.93578 13.2675)
(1.54335e-15 -0.418613 12.4701)
(1.33819e-15 -2.21871 10.8815)
(2.60623e-15 -3.08464 6.75986)
(4.4462e-15 2.51951 3.98856)
(4.0946e-15 4.53918 3.14567)
(1.64677e-15 4.78821 2.95634)
(4.34493e-16 4.19115 3.17771)
(3.37996e-15 2.57992 4.64963)
(4.39133e-15 0.532059 6.51697)
(-1.22342e-15 -1.35724 8.12348)
(-4.05505e-15 -2.85363 9.42765)
(-2.99592e-15 -4.21239 10.6737)
(-1.85386e-15 -4.60829 11.4093)
(-6.96285e-16 -2.03526 10.0961)
(1.15826e-15 2.46443 6.98393)
(3.16256e-16 4.34094 5.16465)
(-1.328e-15 4.00829 4.78413)
(-3.59082e-15 3.80819 8.02962)
(-3.03033e-15 2.73794 12.2292)
(1.81926e-15 0.777938 11.6287)
(7.48198e-15 0.476652 9.35527)
(2.67507e-14 2.20139 5.99784)
(5.09999e-15 2.74797 4.49002)
(3.82588e-15 4.74505 3.40802)
(1.31755e-15 4.76681 3.36502)
(-6.43174e-16 3.81272 3.72154)
(2.7604e-15 1.91541 5.50388)
(5.24657e-15 -0.085155 7.10093)
(1.23948e-15 -1.86773 8.14585)
(-2.15629e-15 -3.35487 9.28905)
(-2.03973e-15 -4.57748 10.5066)
(-7.11723e-16 -4.42444 11.0846)
(7.78103e-16 -1.1038 9.67037)
(6.73846e-16 3.44096 7.18575)
(-1.83186e-16 5.09393 5.05304)
(-1.39995e-16 3.88716 3.29178)
(-2.10531e-15 1.93649 3.39601)
(-6.37024e-15 1.27967 9.21752)
(-7.03887e-15 0.371742 13.2245)
(-6.48728e-15 0.401867 13.3221)
(-5.59037e-15 2.71386 12.4451)
(5.33684e-15 3.01158 4.72526)
(4.00176e-15 4.95032 3.51616)
(1.17338e-15 4.67093 3.66413)
(-1.53347e-15 3.32822 4.15924)
(1.62803e-15 1.22682 6.34972)
(4.54432e-15 -0.536 7.7143)
(2.21905e-15 -2.23081 8.30663)
(-5.52118e-16 -3.78461 9.09852)
(-1.09103e-15 -4.9063 10.031)
(6.07478e-17 -4.27769 10.4976)
(5.61358e-16 -0.403232 9.16858)
(-9.11379e-16 4.31787 6.52228)
(-1.13361e-15 5.90726 4.36844)
(-6.66806e-16 4.63254 2.79289)
(-3.01811e-16 2.06226 1.05135)
(-7.97931e-16 -0.95536 -0.986531)
(-4.39071e-15 -1.07338 5.98491)
(-3.24661e-15 1.02686 8.10565)
(-3.75022e-15 5.63051 11.046)
(5.30968e-15 3.27817 4.73253)
(4.12917e-15 5.1367 3.55944)
(1.49077e-15 4.5166 3.80073)
(-1.50129e-15 2.72668 4.3459)
(1.16557e-15 0.474526 6.93471)
(3.87829e-15 -0.883293 8.27767)
(2.68964e-15 -2.44264 8.69715)
(7.9478e-16 -4.04441 9.15646)
(-9.6264e-17 -5.10944 9.60144)
(3.21673e-16 -4.09135 9.66522)
(-2.60449e-16 0.393591 7.99203)
(-1.62362e-15 5.32811 4.95389)
(-1.35837e-15 6.62527 3.11121)
(-1.06238e-15 5.1473 1.67302)
(-8.05494e-16 3.05908 0.657566)
(-3.116e-17 -0.636928 -1.85757)
(-1.76534e-15 -2.57951 -1.58579)
(-1.84435e-15 -1.84218 -1.87216)
(8.68105e-16 -0.584309 -1.25167)
(4.45389e-15 3.51206 4.52957)
(3.92824e-15 5.29693 3.57827)
(1.84324e-15 4.36402 3.79485)
(-1.41553e-15 2.07628 4.17975)
(5.26458e-16 -0.33645 6.9035)
(3.57506e-15 -1.24347 8.4472)
(3.07085e-15 -2.60354 9.02645)
(1.80318e-15 -4.16284 9.39896)
(9.0119e-16 -5.0981 9.43156)
(3.53687e-16 -3.64789 8.79325)
(-1.02923e-15 1.39152 6.31482)
(-1.60301e-15 6.28 3.22734)
(-1.46819e-15 7.25223 2.04482)
(-1.25676e-15 5.62357 0.665671)
(-8.15652e-16 3.41769 -0.206241)
(-2.11799e-16 0.127172 -1.49466)
(1.02742e-16 -1.60437 -3.96181)
(3.82623e-17 -0.480057 -5.12321)
(6.89257e-17 0.689927 -5.74559)
(3.34217e-15 3.67372 4.17638)
(3.58059e-15 5.41294 3.57883)
(2.03179e-15 4.27936 3.69454)
(-1.47064e-15 1.50334 3.7351)
(-1.10308e-15 -1.20057 6.17364)
(2.52869e-15 -1.74193 8.04131)
(3.10839e-15 -2.83073 8.88149)
(2.30702e-15 -4.20848 9.32119)
(1.37598e-15 -4.84657 9.08562)
(6.63275e-17 -2.8084 7.66462)
(-1.37284e-15 2.55322 4.34141)
(-1.34863e-15 7.05678 1.60404)
(-1.37443e-15 7.6806 1.04991)
(-1.22205e-15 6.04933 -0.0917875)
(-9.7674e-16 3.84855 -0.841303)
(-5.17357e-16 0.966649 -1.97399)
(-1.9489e-16 -0.862024 -4.0109)
(8.51533e-18 -0.444144 -4.99255)
(-6.80765e-16 -0.138731 -4.56134)
(2.7027e-15 3.75285 3.82297)
(3.34224e-15 5.48288 3.55122)
(2.16362e-15 4.29836 3.54483)
(-1.24614e-15 1.11467 3.21269)
(-2.99672e-15 -2.04975 5.06692)
(5.1975e-16 -2.31622 7.14304)
(2.26343e-15 -3.10554 8.15317)
(1.99964e-15 -4.23811 8.63683)
(1.08686e-15 -4.45082 8.18488)
(-2.6289e-16 -1.71829 6.00717)
(-1.11929e-15 3.72315 2.25418)
(-1.29634e-15 7.61889 0.368522)
(-1.31786e-15 7.94704 0.165898)
(-1.18015e-15 6.39073 -0.674147)
(-9.32095e-16 4.16167 -1.32243)
(-6.92308e-16 1.51526 -2.21127)
(-5.39406e-16 -0.403693 -3.67791)
(-2.34442e-16 -0.424724 -4.36035)
(-9.37711e-16 -0.264311 -3.73792)
(2.67674e-15 3.77399 3.57812)
(3.2311e-15 5.52331 3.48941)
(2.42265e-15 4.40371 3.37712)
(-6.09822e-16 0.947685 2.74437)
(-4.30454e-15 -2.79486 3.91063)
(-2.03297e-15 -2.99126 6.00586)
(4.7041e-16 -3.44477 6.99279)
(1.09719e-15 -4.19316 7.39036)
(6.36797e-16 -3.78329 6.74383)
(-3.63857e-16 -0.325256 3.98514)
(-9.97575e-16 4.69955 0.515076)
(-1.34132e-15 7.90759 -0.344566)
(-1.28168e-15 8.10662 -0.509419)
(-1.18057e-15 6.63463 -1.08216)
(-9.22839e-16 4.42543 -1.60969)
(-6.2425e-16 1.94052 -2.27365)
(-4.4712e-16 -0.00675048 -3.27211)
(-3.68432e-16 -0.456845 -3.83328)
(-2.32781e-17 -0.793792 -3.1545)
(2.98472e-15 3.78511 3.44011)
(3.36468e-15 5.55784 3.39638)
(2.70525e-15 4.53097 3.22014)
(2.33867e-16 0.845808 2.43303)
(-4.64989e-15 -3.3754 2.77452)
(-4.45229e-15 -3.49866 4.92272)
(-1.88749e-15 -3.63393 5.95498)
(-2.28436e-16 -4.13665 6.19202)
(8.75665e-17 -3.20086 5.25854)
(-6.66648e-16 0.833707 2.02016)
(-1.47378e-15 5.40116 -0.360317)
(-1.32309e-15 8.06456 -0.720594)
(-1.23799e-15 8.24492 -0.926853)
(-1.16977e-15 6.80939 -1.34704)
(-8.97551e-16 4.59667 -1.76237)
(-5.79003e-16 2.17091 -2.21594)
(-3.88029e-16 0.212807 -2.8226)
(-3.32026e-16 -0.504104 -3.27058)
(1.29583e-17 -1.09141 -2.77318)
(3.18579e-15 3.78356 3.3723)
(3.47668e-15 5.64034 3.29306)
(2.91296e-15 4.8178 3.09187)
(9.47491e-16 1.31948 2.43394)
(-3.98913e-15 -3.82912 1.96465)
(-5.88244e-15 -4.33624 3.39902)
(-4.48823e-15 -4.02185 4.41653)
(-2.34231e-15 -3.86216 4.5535)
(-1.15649e-15 -2.00718 3.55696)
(-1.43547e-15 2.08523 0.877391)
(-1.65856e-15 5.82183 -0.382047)
(-1.29539e-15 8.21801 -0.928283)
(-1.20284e-15 8.39855 -1.12968)
(-1.16496e-15 7.02639 -1.48447)
(-8.76591e-16 4.82573 -1.81947)
(-5.36979e-16 2.42226 -2.10898)
(-3.40749e-16 0.409711 -2.42917)
(-2.63981e-16 -0.467673 -2.63701)
(-1.06666e-16 -1.43386 -2.68179)
(2.96065e-17 14.1563 23.9032)
(-3.27369e-15 18.8077 31.4689)
(-3.14406e-15 16.7961 26.8041)
(-3.70617e-15 14.2658 22.4627)
(-3.97693e-15 13.4161 20.5044)
(-4.60427e-15 13.975 20.9983)
(-4.41165e-15 13.696 20.0306)
(-4.45297e-15 12.5271 18.118)
(-4.74969e-15 11.3126 16.0497)
(-5.18754e-15 10.3164 14.4881)
(-5.69079e-15 9.6234 13.2965)
(-6.18011e-15 8.91591 12.3197)
(-6.83929e-15 8.27758 11.2724)
(-7.65481e-15 7.36771 10.2259)
(-8.97623e-15 6.64871 9.03987)
(-1.06153e-14 5.52445 8.03318)
(-1.3297e-14 4.92794 6.78917)
(-1.63822e-14 3.77132 6.33329)
(-1.14471e-14 5.71391 8.5729)
(-4.77146e-15 6.5516 12.3234)
(4.27224e-17 14.3544 24.5446)
(-3.13619e-15 17.0631 29.3196)
(-2.48163e-15 14.3967 24.5675)
(-3.21517e-15 12.1187 20.7809)
(-3.21517e-15 11.8669 20.275)
(-4.19208e-15 12.8366 21.6755)
(-3.38636e-15 11.4416 19.1518)
(-3.81557e-15 9.5567 16.1464)
(-4.29011e-15 8.62554 14.518)
(-4.5162e-15 8.12239 13.7273)
(-4.91083e-15 7.72074 12.7718)
(-5.2213e-15 6.98196 11.6746)
(-6.10943e-15 6.34118 10.2377)
(-7.03729e-15 5.28706 8.87682)
(-8.7765e-15 4.68086 7.34933)
(-1.03611e-14 3.58164 6.33034)
(-1.26806e-14 3.43684 5.22363)
(-1.37476e-14 2.87093 5.56448)
(-7.93728e-15 5.29438 8.17304)
(-4.35307e-15 6.07076 11.3907)
(1.93728e-17 14.4618 25.4862)
(-1.37703e-15 17.6315 30.2754)
(-1.08092e-15 15.1609 26.2082)
(-1.12843e-15 12.8452 21.9413)
(-1.16342e-15 12.4652 21.3553)
(-2.36828e-15 13.3258 22.5841)
(-1.67048e-15 11.2902 19.102)
(-1.81033e-15 9.77714 16.6853)
(-2.01144e-15 9.31275 15.6151)
(-1.98674e-15 8.78451 14.7977)
(-2.1294e-15 8.26835 13.5863)
(-2.26623e-15 7.38748 12.3204)
(-2.81489e-15 6.71482 10.7898)
(-3.26156e-15 5.6506 9.36506)
(-4.01814e-15 4.98717 7.70057)
(-4.75949e-15 3.91385 6.57932)
(-5.77257e-15 3.78273 5.60552)
(-6.54686e-15 3.18693 5.71085)
(-4.11545e-15 5.10699 7.76241)
(-2.04353e-15 5.8593 10.8969)
(1.26682e-17 14.0857 25.0099)
(3.07844e-16 17.645 30.075)
(2.30874e-16 15.064 26.3049)
(2.60233e-16 12.7104 21.6781)
(2.73883e-16 12.4223 21.4435)
(-1.58782e-15 13.2856 22.6971)
(-1.63805e-15 10.7731 18.3619)
(-1.68942e-15 9.57372 16.4816)
(-1.93562e-15 9.26744 15.6151)
(-1.89282e-15 8.60289 14.751)
(-2.08404e-15 8.07294 13.4238)
(-2.2326e-15 7.09741 12.1326)
(-2.76768e-15 6.4617 10.539)
(-3.16074e-15 5.33634 9.09489)
(-4.13736e-15 4.6055 7.17976)
(-4.85578e-15 3.36633 5.79329)
(-5.82339e-15 3.23071 4.74967)
(-6.03958e-15 2.72848 5.04676)
(-3.92768e-15 4.68889 7.15349)
(-2.78426e-15 5.33652 9.93415)
(-2.95041e-18 13.9837 25.1172)
(-6.67181e-17 17.802 30.0827)
(-5.32554e-17 15.2658 26.9705)
(-6.06269e-17 13.0098 22.0579)
(-6.88557e-17 12.5993 21.8247)
(3.55763e-16 13.3697 22.9757)
(3.73534e-16 10.8257 18.4501)
(4.14213e-16 9.79504 16.9226)
(4.5971e-16 9.50321 15.9645)
(4.65812e-16 8.71291 15.0469)
(4.95519e-16 8.22761 13.6897)
(5.29416e-16 7.21286 12.4441)
(6.50343e-16 6.63623 10.8743)
(7.42651e-16 5.53792 9.55031)
(9.29031e-16 4.82703 7.60639)
(1.1049e-15 3.48261 6.01292)
(1.3824e-15 3.30032 4.81779)
(1.67955e-15 2.72734 4.98317)
(9.83676e-16 4.48452 6.74526)
(4.58593e-16 4.96057 9.30129)
(6.06417e-19 13.8628 25.0467)
(1.56832e-17 17.8513 29.8774)
(1.23302e-17 15.3807 27.4144)
(1.42574e-17 13.2347 22.1844)
(1.78439e-17 12.6555 21.894)
(-7.9313e-17 13.3481 23.001)
(-8.79592e-17 10.9575 18.4935)
(-9.94854e-17 9.82524 17.0259)
(-1.09015e-16 9.55301 15.9262)
(-1.11684e-16 8.66547 14.9957)
(-1.18797e-16 8.21498 13.6124)
(-1.27789e-16 7.16944 12.3775)
(-1.53261e-16 6.57604 10.7657)
(-1.77509e-16 5.48132 9.48672)
(-2.13604e-16 4.7878 7.60498)
(-2.63687e-16 3.36431 5.88681)
(-3.52109e-16 3.08022 4.4578)
(-4.39775e-16 2.42448 4.48979)
(-2.8294e-16 4.17074 6.1961)
(-1.65892e-16 4.46836 8.44419)
(-1.227e-19 13.9007 25.2171)
(-3.9273e-18 17.937 29.7857)
(-2.89208e-18 15.5058 27.9338)
(-3.39463e-18 13.5039 22.3778)
(-4.54755e-18 12.7489 22.092)
(1.80185e-17 13.3312 23.1293)
(2.09803e-17 11.1319 18.628)
(2.34004e-17 9.87768 17.2593)
(2.55639e-17 9.66385 16.0434)
(2.67119e-17 8.70523 15.0861)
(2.86076e-17 8.26033 13.6928)
(3.08081e-17 7.24524 12.4501)
(3.65049e-17 6.59772 10.8374)
(4.22103e-17 5.53968 9.49615)
(5.00559e-17 4.86443 7.77696)
(6.39507e-17 3.56156 6.16254)
(8.45532e-17 3.20702 4.66096)
(1.07036e-16 2.45637 4.41315)
(8.22892e-17 3.97979 5.79365)
(4.58623e-17 3.98175 7.56142)
(2.5971e-20 14.0114 25.4058)
(9.88181e-19 18.0579 29.7716)
(6.90437e-19 15.6044 28.3491)
(8.07733e-19 13.8264 22.5733)
(1.14762e-18 12.861 22.2172)
(-4.06938e-18 13.2959 23.1675)
(-5.04071e-18 11.3589 18.7249)
(-5.50765e-18 9.98649 17.4355)
(-6.0052e-18 9.81675 16.1556)
(-6.379e-18 8.85338 15.1378)
(-6.84404e-18 8.35186 13.7624)
(-7.39444e-18 7.42541 12.4573)
(-8.61861e-18 6.68616 10.9015)
(-9.98571e-18 5.69846 9.42942)
(-1.18666e-17 4.94047 7.80042)
(-1.52436e-17 3.8106 6.25725)
(-1.90179e-17 3.27657 4.71568)
(-2.39869e-17 2.45016 4.10167)
(-2.31953e-17 3.5917 5.08823)
(-1.42285e-17 3.31887 6.23961)
(-5.46331e-21 14.2683 25.7843)
(-2.43155e-19 18.3037 29.986)
(-1.66923e-19 15.6465 28.6993)
(-1.90529e-19 14.264 22.9595)
(-2.88801e-19 13.0326 22.4406)
(9.02463e-19 13.2662 23.2126)
(1.18946e-18 11.6514 18.9695)
(1.29378e-18 10.2578 17.7513)
(1.41022e-18 10.0577 16.4728)
(1.51735e-18 9.18578 15.3512)
(1.62265e-18 8.57096 14.0121)
(1.75248e-18 7.74652 12.5998)
(1.99719e-18 6.91382 11.0794)
(2.30888e-18 5.99953 9.51124)
(2.75045e-18 5.15115 7.91024)
(3.4527e-18 4.14017 6.33734)
(3.99929e-18 3.40123 4.74902)
(4.90628e-18 2.51795 3.75607)
(6.16123e-18 3.06703 4.1405)
(4.69938e-18 2.47593 4.43948)
(1.04747e-21 14.6918 26.3707)
(5.85764e-20 18.5776 30.3123)
(4.04969e-20 15.5961 28.8999)
(4.45754e-20 14.8091 23.6188)
(6.96299e-20 13.2479 22.7509)
(-1.99593e-19 13.2655 23.1531)
(-2.83675e-19 11.937 19.5029)
(-3.09364e-19 10.7302 18.2226)
(-3.3054e-19 10.3106 16.9817)
(-3.57114e-19 9.61241 15.6916)
(-3.8144e-19 8.83271 14.3919)
(-4.13619e-19 8.10291 12.8657)
(-4.6755e-19 7.17965 11.3214)
(-5.4525e-19 6.30127 9.65398)
(-6.45498e-19 5.38424 8.01864)
(-7.65598e-19 4.39426 6.28869)
(-8.49844e-19 3.39679 4.46347)
(-9.32855e-19 2.3846 2.96176)
(-1.30439e-18 2.18408 2.55429)
(-2.65273e-18 1.21974 1.55766)
(-1.50584e-22 15.2377 27.1977)
(-1.38621e-20 18.7159 30.5796)
(-9.93427e-21 15.5539 28.7845)
(-1.01077e-20 15.3736 24.6771)
(-1.8593e-20 13.4695 23.2969)
(4.22996e-20 13.3389 22.7796)
(6.40975e-20 12.1328 20.386)
(7.35561e-20 11.4064 18.8228)
(7.90116e-20 10.4879 17.6668)
(8.52232e-20 10.0655 16.1836)
(8.95239e-20 9.09574 14.9569)
(9.40316e-20 8.49162 13.378)
(1.00909e-19 7.5103 11.8607)
(1.11769e-19 6.69845 10.1758)
(1.27292e-19 5.7658 8.53427)
(1.43248e-19 4.73945 6.67275)
(1.11509e-19 3.50123 4.4823)
(1.18358e-19 2.17117 2.50668)
(1.82746e-19 1.02744 0.886314)
(-5.06837e-19 -1.11512 -2.21207)
(1.28618e-23 15.7142 28.2043)
(3.29786e-21 18.5344 30.5513)
(2.40631e-21 15.5751 27.9973)
(2.43999e-21 15.4086 25.5857)
(3.07156e-21 13.5456 24.0755)
(-1.05876e-20 13.4639 21.9993)
(-1.65605e-20 11.8607 21.1207)
(-1.84169e-20 11.7517 19.2096)
(-1.90747e-20 10.3716 18.0895)
(-2.06943e-20 10.1059 16.5287)
(-2.28517e-20 8.97844 15.3283)
(-2.61927e-20 8.42744 13.7419)
(-3.09512e-20 7.35167 12.2556)
(-3.64827e-20 6.53918 10.5673)
(-3.80041e-20 5.45261 8.81856)
(-4.72238e-20 4.1499 6.64313)
(-2.05661e-19 2.31984 3.40449)
(-1.16229e-19 -0.124565 -0.165613)
(6.93358e-19 -2.11333 -3.59392)
(2.14014e-19 -1.63031 -1.84102)
(2.37446e-24 16.0062 29.3026)
(-7.92304e-22 18.4967 29.9519)
(-5.78144e-22 15.2553 28.1466)
(-5.82018e-22 15.6671 25.6852)
(-6.91303e-22 13.6357 24.5185)
(2.5056e-21 13.4444 22.3692)
(4.81165e-21 11.8921 20.9891)
(5.21157e-21 11.5911 19.351)
(5.41484e-21 10.4281 18.1571)
(5.80671e-21 9.97682 16.6654)
(5.80779e-21 8.94899 15.3248)
(4.97405e-21 8.23341 13.7276)
(3.47139e-21 7.13388 12.0695)
(2.08567e-21 6.09771 10.2008)
(5.10504e-21 4.79006 8.15108)
(1.16767e-21 3.32845 5.77851)
(-1.66076e-19 1.29462 2.33479)
(-6.7453e-19 -1.06722 -1.61964)
(-4.3246e-19 -1.58319 -2.67741)
(-2.27065e-18 1.05886 1.54507)
(-1.57101e-24 16.2227 30.2615)
(1.87597e-22 18.2975 29.1832)
(1.32034e-22 14.9754 28.1098)
(1.24654e-22 15.7612 25.4976)
(1.73148e-22 13.4599 24.5722)
(-4.68523e-22 13.5147 22.6113)
(-8.26237e-22 11.9794 21.3603)
(-7.20546e-22 11.6463 19.718)
(-5.46078e-22 10.5045 18.5096)
(-3.51498e-22 9.93811 17.0475)
(-7.9989e-22 8.96964 15.6224)
(-3.64916e-21 8.04689 13.8935)
(-1.06375e-20 6.83809 11.9046)
(-1.86575e-20 5.59032 9.76852)
(-1.84292e-20 4.33088 7.67023)
(-9.05271e-21 3.04322 5.46284)
(1.51629e-20 1.54662 3.01736)
(-2.67061e-20 0.217869 0.346576)
(-3.30002e-19 -0.904798 -1.68921)
(-1.18342e-18 -0.622249 -1.47005)
(6.38522e-25 16.0965 30.675)
(-4.54929e-23 18.1378 28.5391)
(-3.70463e-23 14.669 27.9846)
(-4.40939e-23 15.6875 25.1959)
(-4.1053e-23 13.0972 24.3451)
(1.63032e-22 13.2671 22.1682)
(3.56913e-22 11.6046 21.0161)
(5.37581e-22 11.1592 19.3325)
(8.9886e-22 10.0555 18.0468)
(1.5136e-21 9.34069 16.6123)
(1.51181e-21 8.37363 15.1567)
(-2.02202e-21 7.38918 13.4351)
(-1.11912e-20 6.28397 11.5349)
(-2.33273e-20 5.21687 9.56248)
(-3.03181e-20 4.06744 7.45174)
(-2.51297e-20 2.9014 5.20354)
(-2.15529e-20 1.58246 2.86399)
(-2.83957e-20 0.557483 0.677298)
(-8.57122e-20 -0.457158 -1.18122)
(-6.86639e-19 -1.23552 -2.70451)
(2.95894e-26 15.8203 30.8477)
(1.02987e-23 18.4306 28.4846)
(3.49429e-24 14.6061 28.0124)
(-2.49624e-24 15.8672 25.1599)
(1.75141e-24 13.3116 24.3298)
(-3.3583e-24 13.4642 22.1738)
(5.0726e-23 11.9752 20.9632)
(1.94481e-22 11.4991 19.3083)
(4.78723e-22 10.5371 17.9827)
(1.04876e-21 9.86668 16.5738)
(1.96389e-21 9.10516 15.271)
(2.93471e-21 8.4238 13.9574)
(2.98512e-21 7.73843 12.6276)
(-9.57528e-23 7.00581 11.1513)
(-9.63292e-21 6.09761 9.35791)
(-2.67901e-20 4.85221 7.05931)
(-4.75453e-20 3.35934 4.55185)
(-6.85317e-20 2.3657 2.91725)
(-5.47282e-20 0.0378784 -0.48058)
(-4.75775e-19 -2.17525 -4.77676)
(1.6913e-25 15.4672 31.0845)
(-3.0064e-24 18.503 28.2839)
(-5.9924e-24 14.3545 28.0079)
(-1.00599e-23 15.6472 25.2596)
(-1.97148e-24 13.279 24.3866)
(4.25841e-23 13.2581 22.4506)
(1.22547e-22 12.011 21.2202)
(2.70955e-22 11.4829 19.7173)
(5.93003e-22 10.6814 18.4326)
(1.2172e-21 10.0723 17.127)
(2.10147e-21 9.4357 15.8833)
(2.70847e-21 8.82599 14.6151)
(1.71212e-21 8.15589 13.249)
(-2.80406e-21 7.32585 11.622)
(-1.30912e-20 6.11162 9.37246)
(-3.35859e-20 4.10784 6.00665)
(-5.81307e-20 1.97947 2.55967)
(-7.84843e-20 -0.139652 -0.274153)
(-1.97833e-19 -2.43404 -3.58695)
(-3.69912e-19 -2.71366 -5.42487)
(9.08297e-26 14.3556 30.7507)
(3.88503e-26 18.1148 27.693)
(-2.78399e-24 13.4755 27.6374)
(-3.9022e-24 14.4419 25.2466)
(6.25146e-24 12.3452 24.3107)
(3.54612e-23 11.9149 22.6984)
(9.56621e-23 10.81 21.4834)
(2.3484e-22 10.1003 20.1606)
(5.78388e-22 9.3093 18.9533)
(1.24064e-21 8.62913 17.7562)
(1.98053e-21 7.95563 16.5792)
(1.79893e-21 7.2868 15.3458)
(-9.68724e-22 6.54512 13.9552)
(-8.1102e-21 5.58142 12.1294)
(-2.33025e-20 3.96948 9.15757)
(-5.95129e-20 1.19954 4.06361)
(-1.34905e-19 -1.94575 -2.02238)
(-2.21369e-19 -3.01393 -4.20598)
(-2.96199e-19 -2.95219 -4.19975)
(-2.88695e-19 -2.11369 -3.59004)
(-1.8334e-27 11.3083 28.5328)
(-4.60897e-25 16.9627 25.0056)
(-1.2302e-24 11.9959 25.4206)
(-3.9051e-25 12.6332 23.7145)
(6.40877e-24 10.8846 22.9798)
(1.97508e-23 10.2081 21.8983)
(3.90918e-23 9.19832 20.989)
(9.07962e-23 8.40429 20.0413)
(2.58818e-22 7.60949 19.1292)
(6.45718e-22 6.89031 18.2188)
(1.19467e-21 6.20784 17.3091)
(1.44123e-21 5.55766 16.3664)
(4.45673e-22 4.90553 15.3304)
(-2.89529e-21 4.20825 14.0966)
(-9.53965e-21 3.42092 12.5214)
(-2.10079e-20 2.55625 10.4214)
(-4.07871e-20 1.71525 7.6795)
(-7.18286e-20 0.932247 4.5232)
(-1.07536e-19 -0.0634123 1.1099)
(-9.78582e-20 -0.988026 -1.66116)
(-4.89259e-27 2.65011 17.0392)
(-1.83688e-26 8.06483 13.6701)
(1.46211e-25 5.17693 14.5417)
(9.59615e-25 5.00039 14.1428)
(2.23901e-24 4.07356 14.1062)
(9.90255e-25 3.50993 13.9323)
(-1.00171e-23 2.93267 13.7744)
(-3.63668e-23 2.45968 13.5808)
(-6.30991e-23 2.04762 13.3665)
(-2.89175e-23 1.71057 13.1294)
(1.81754e-22 1.44728 12.8767)
(6.96779e-22 1.26373 12.6152)
(1.56018e-21 1.16342 12.3513)
(2.64437e-21 1.15826 12.0806)
(3.68428e-21 1.26162 11.7786)
(4.46332e-21 1.43268 11.4236)
(4.92417e-21 1.69384 10.9306)
(4.89572e-21 2.32652 9.98727)
(3.76163e-21 2.51956 8.57053)
(1.15474e-21 -0.217665 6.45372)
(-1.01521e-26 -2.64973 17.0298)
(-3.66169e-26 -8.06159 13.6683)
(-5.19139e-27 -5.17308 14.5474)
(1.55947e-25 -4.99343 14.1541)
(3.83237e-25 -4.05976 14.1232)
(7.0636e-27 -3.48888 13.9558)
(-2.10989e-24 -2.90249 13.8068)
(-4.9776e-24 -2.41996 13.6255)
(2.73233e-25 -1.99744 13.4284)
(3.42519e-23 -1.65066 13.2176)
(1.20031e-22 -1.38255 13.0112)
(2.56995e-22 -1.20592 12.8298)
(3.9957e-22 -1.12867 12.6832)
(4.7649e-22 -1.16047 12.5431)
(4.46895e-22 -1.30652 12.3382)
(3.29364e-22 -1.51955 12.0072)
(1.69247e-22 -1.82931 11.4619)
(1.28864e-23 -2.53126 10.4175)
(-7.6421e-23 -2.77587 8.89709)
(-5.4848e-23 0.126629 6.73706)
(3.0754e-28 -11.3839 28.6109)
(1.04478e-25 -16.9569 25.1581)
(1.8247e-25 -12.0247 25.5664)
(2.19105e-25 -12.6065 23.8988)
(-7.11516e-25 -10.8507 23.1875)
(-4.26164e-24 -10.1428 22.1372)
(-9.51905e-24 -9.11143 21.2587)
(-6.83278e-24 -8.29159 20.3478)
(2.14636e-23 -7.47723 19.4815)
(7.47172e-23 -6.74287 18.6312)
(9.33866e-23 -6.04532 17.784)
(-3.95053e-23 -5.3528 16.8587)
(-4.1349e-22 -4.58915 15.7005)
(-9.84905e-22 -3.67543 14.1062)
(-1.5484e-21 -2.57905 11.9098)
(-1.73696e-21 -1.3959 9.05945)
(-1.00543e-21 -0.320585 5.73818)
(9.82515e-22 0.569162 2.46917)
(3.43353e-21 1.32831 -0.376874)
(3.85285e-21 1.1829 -1.79842)
(-1.56475e-26 -14.5786 31.1255)
(-3.66423e-25 -18.2518 28.042)
(-2.61539e-25 -13.6849 28.0251)
(-1.14523e-25 -14.6112 25.6832)
(-9.06011e-25 -12.5425 24.7651)
(-5.33173e-24 -12.1158 23.1894)
(-1.53102e-23 -11.022 22.0073)
(-1.64754e-23 -10.3383 20.7199)
(1.84985e-23 -9.57093 19.5555)
(8.77118e-23 -8.93887 18.4072)
(8.52529e-23 -8.31916 17.2857)
(-2.16141e-22 -7.68051 16.0376)
(-1.03182e-21 -6.84607 14.4107)
(-2.37182e-21 -5.58784 11.9926)
(-3.9244e-21 -3.5491 8.20571)
(-4.65644e-21 -0.493316 2.63945)
(-2.48218e-21 2.30673 -2.80306)
(1.65725e-21 2.95545 -4.2089)
(6.91931e-21 4.37929 -5.74705)
(1.1352e-20 3.01703 -6.54736)