/*--------------------------------*- C++ -*----------------------------------*\
| =========                 |                                                 |
| \\      /  F ield         | OpenFOAM: The Open Source CFD Toolbox           |
|  \\    /   O peration     | Version:  4.1                                   |
|   \\  /    A nd           | Web:      www.OpenFOAM.org                      |
|    \\/     M anipulation  |                                                 |
\*---------------------------------------------------------------------------*/
FoamFile
{
    version     2.0;
    format      ascii;
    class       volScalarField;
    location    "1";
    object      epsilon;
}
// * * * * * * * * * * * * * * * * * * * * * * * * * * * * * * * * * * * * * //

dimensions      [0 2 -3 0 0 0 0];

internalField   nonuniform List<scalar> 
1280
(
0.00378448
0.00186158
0.0032416
0.0032413
0.0016413
0.00279501
0.00275516
0.00276189
0.00128326
0.00221998
0.00226879
0.00101531
0.00189309
0.00193505
0.00101012
0.00195945
0.00207967
0.00118796
0.00040793
8.52003
447.848
1032.31
707.107
225.785
55.33
10.4582
0.0115134
0.00213842
0.00211181
0.00211175
0.00211744
0.00210924
0.00210855
0.00211595
0.00211607
0.00211831
0.00217613
0.0123913
0.762626
3.16751
0.0153225
0.0158289
0.0102394
0.00648616
0.00119404
0.00057142
0.000316934
0.000109458
7.76811e-06
5.66252e-05
6.23547e-05
1.80226e-05
6.42695e-05
0.000162775
0.000285977
0.00111476
0.00679398
0.010846
0.0166993
0.0167986
3.10678
0.765408
0.085884
0.0205462
0.00377877
0.00212297
0.0021171
0.00211761
0.00211325
0.00211977
0.00211289
0.00211291
0.00213987
0.0107374
9.94047
52.902
218.356
686.841
982.497
408.059
7.52115
0.00749524
0.000977103
0.00200515
0.00187621
0.000942181
0.00189356
0.00186869
0.00105933
0.00225952
0.00225325
0.00130579
0.0027181
0.00271355
0.00274767
0.00160819
0.00317184
0.0031717
0.00182079
0.00370019
0.00207988
0.00207989
0.00207992
0.00207992
0.00207995
0.00207995
0.00208002
0.00208005
0.00208011
0.00208016
0.00208022
0.0020803
0.00208039
0.00208056
0.0020808
0.00208084
0.00208076
0.00208181
0.00208516
0.00207988
0.00207989
0.00207991
0.00207991
0.00207991
0.00207993
0.00207996
0.00208002
0.00208007
0.00208014
0.00208017
0.0020803
0.00208023
0.00208026
0.00208053
0.00208064
0.00208092
0.00208098
0.00208158
0.00207988
0.00207991
0.00207991
0.00207991
0.00207991
0.00207993
0.00207996
0.00208002
0.00208007
0.00208014
0.00208017
0.00208031
0.0020802
0.00208026
0.00208055
0.00208057
0.00208157
0.0020813
0.00208159
0.00207988
0.0020799
0.00207991
0.00207991
0.00207991
0.00207993
0.00208002
0.00208004
0.00208012
0.00208008
0.00208011
0.00208029
0.00208019
0.00208022
0.00208038
0.00208053
0.00208084
0.00208079
0.00208176
0.0020799
0.00207989
0.00207991
0.00207994
0.00207991
0.00207997
0.00208001
0.00208
0.00208001
0.00208007
0.0020801
0.00208029
0.0020802
0.0020803
0.00208058
0.00208067
0.00208131
0.00208133
0.00208101
0.0020799
0.00207989
0.0020799
0.00207992
0.00207992
0.00207994
0.00208001
0.00207999
0.00208
0.00208011
0.0020801
0.00208036
0.00208034
0.00208039
0.0020809
0.00208084
0.00208265
0.00208289
0.0020818
0.0020799
0.00207989
0.0020799
0.00207992
0.00207992
0.00207994
0.00208004
0.00207999
0.00208003
0.00208
0.00208009
0.00208026
0.00208015
0.00208029
0.00208075
0.00208065
0.00208075
0.00213666
0.00214242
0.00207991
0.00207989
0.00207989
0.0020799
0.00207991
0.00207992
0.00207993
0.00207997
0.0020801
0.00208001
0.00208009
0.00208024
0.00208013
0.00208023
0.00208051
0.00208057
0.00209237
0.144495
0.469853
0.00207989
0.0020799
0.00207993
0.0020799
0.00207994
0.00207998
0.00207997
0.00207996
0.00208
0.00208005
0.00208009
0.00208022
0.00208012
0.00208023
0.00208052
0.00208045
0.00208037
0.00209696
0.2008
0.0020799
0.0020799
0.00207991
0.0020799
0.00207992
0.00207997
0.00207993
0.00207994
0.00207998
0.00208005
0.00208019
0.00208008
0.00208015
0.00208041
0.00208027
0.0020802
0.0020802
0.00208035
0.00208688
0.00207991
0.00207989
0.0020799
0.00207994
0.00207993
0.00207993
0.00207992
0.00207996
0.00208003
0.00208007
0.00208003
0.00208013
0.00208043
0.0020802
0.00208019
0.00208044
0.00208023
0.00208039
0.00208987
0.00207991
0.00207992
0.00207991
0.00207992
0.00207992
0.00207992
0.00207992
0.00207997
0.00208006
0.00208002
0.0020801
0.00208025
0.00208019
0.00208027
0.00208046
0.00208038
0.00208034
0.00210753
0.262626
0.00207989
0.00207989
0.00207992
0.00207991
0.00207992
0.00207998
0.00207994
0.00207998
0.00208011
0.00208002
0.0020801
0.00208033
0.0020802
0.00208024
0.00208047
0.00208048
0.00211106
0.191486
0.591588
0.00207991
0.00207989
0.0020799
0.00207992
0.00207994
0.00207998
0.00207995
0.00207999
0.00208006
0.00208003
0.0020801
0.00208026
0.00208022
0.00208027
0.0020809
0.00208089
0.00208086
0.00215396
0.00257255
0.0020799
0.00207992
0.00207991
0.00207992
0.00207993
0.00207995
0.00207999
0.00208007
0.00208003
0.00208016
0.00208011
0.00208016
0.00208048
0.00208029
0.00208039
0.00208082
0.00208265
0.00208288
0.00208219
0.00207988
0.00207989
0.00207992
0.00207996
0.00207993
0.00207996
0.00207996
0.00208001
0.00208002
0.00208009
0.00208027
0.00208019
0.00208022
0.00208062
0.00208061
0.00208079
0.00208127
0.00208133
0.00208101
0.00207989
0.0020799
0.00207991
0.00207993
0.00207994
0.00208001
0.00207995
0.00207997
0.00208013
0.00208009
0.00208012
0.0020803
0.00208019
0.00208039
0.00208043
0.00208085
0.00208079
0.00208078
0.00208178
0.00207988
0.00207989
0.00207991
0.00207996
0.00207993
0.00207996
0.00207996
0.00207997
0.00208002
0.0020802
0.00208011
0.0020802
0.00208026
0.00208044
0.00208037
0.00208056
0.00208156
0.00208129
0.00208151
0.00207987
0.00207989
0.00207991
0.00207992
0.00207992
0.00207996
0.00207996
0.00207999
0.00208002
0.00208019
0.00208012
0.00208016
0.00208025
0.0020804
0.00208044
0.00208049
0.00208097
0.002081
0.00208148
0.00207988
0.0020799
0.00207992
0.00207992
0.00207996
0.00207999
0.00208001
0.00208003
0.00208012
0.00208019
0.00208016
0.00208033
0.00208043
0.00208045
0.00208062
0.00208092
0.00208081
0.00208182
0.00208517
0.291943
4.4591
7.24305
2.02779
0.49709
0.000668106
0.0021197
0.00210109
0.00210929
0.00210299
0.00210175
0.00210247
0.00210351
0.00210318
0.00210304
0.0021097
0.00211194
0.00531522
4.30327
27.4812
33.4137
6.0312
0.139172
0.00210823
0.00211133
0.0021016
0.00210601
0.00210437
0.0021032
0.00210689
0.00210537
0.00210577
0.00210374
0.00210087
0.00210442
0.00210896
0.00211065
0.00210265
0.707803
15.3573
31.4404
5.19548
0.25083
0.00216713
0.00210811
0.00209683
0.00210259
0.00209757
0.00210107
0.00210949
0.00210086
0.00211142
0.00209985
0.00210068
0.0021106
0.00211046
0.00211221
0.00209739
0.281345
12.305
33.7216
5.42074
0.283703
0.0023878
0.00210775
0.00209691
0.00210269
0.00209777
0.00210112
0.00210643
0.00210096
0.00210713
0.00209993
0.00210083
0.0020995
0.00210776
0.00209738
0.00209702
0.200353
10.2586
37.4384
5.825
0.355857
0.00270593
0.00210791
0.00210787
0.00210953
0.00210943
0.00210675
0.00210648
0.00210876
0.00210772
0.00210965
0.00210743
0.00209964
0.00210994
0.00209777
0.00209603
0.105479
7.97783
33.5772
6.42182
0.47976
0.00331629
0.00209494
0.00209579
0.00209489
0.00209466
0.00209537
0.00209474
0.00209472
0.0020948
0.00209481
0.00209498
0.00209499
0.00209565
0.00210898
0.00209667
0.0845277
7.01886
33.935
9.69004
0.854581
0.00933925
0.00209542
0.00209608
0.00209528
0.00209503
0.00209617
0.00209613
0.00209619
0.00209614
0.00209617
0.00209522
0.00209515
0.00209592
0.00210695
0.0021087
0.0708216
5.85299
32.2387
15.2378
1.54604
0.0461956
0.00209989
0.00210901
0.00210537
0.00209746
0.00210987
0.00210833
0.00210545
0.0021096
0.00210861
0.00210631
0.00210745
0.00210768
0.00210759
0.00209661
0.0560533
5.20379
23.2569
23.8658
2.91051
0.115431
0.0021018
0.00209888
0.00209893
0.0020956
0.0020965
0.00209637
0.00210145
0.00209764
0.00209553
0.00209956
0.00210588
0.00210054
0.0020951
0.00209697
0.0447946
4.10759
19.5574
35.0711
5.30567
0.197025
0.00211557
0.00209908
0.00209602
0.00209444
0.00209711
0.00209696
0.00210147
0.00209766
0.0020959
0.00209924
0.00210647
0.00209871
0.00209519
0.00210835
0.0464861
3.23112
13.2777
39.2696
5.94668
0.137215
0.0021194
0.00210296
0.00209609
0.00209517
0.00210693
0.0021082
0.00210234
0.00210578
0.00210815
0.00209924
0.00210014
0.002098
0.00209584
0.00210103
0.0474806
2.1574
9.66769
47.4612
6.45844
0.139086
0.00214877
0.00209807
0.00210237
0.00210858
0.00210094
0.00209458
0.0020938
0.00209801
0.00209656
0.00209766
0.00210004
0.00209764
0.0020947
0.00210089
0.0339062
1.15279
6.38131
30.5804
1.36217
0.0288338
0.00210668
0.0020969
0.00209495
0.00209615
0.0020992
0.00209559
0.0020943
0.00209827
0.00209664
0.00209769
0.00209314
0.00209601
0.00209358
0.00210028
0.0163727
0.517551
4.50365
20.0247
0.0104222
0.00210912
0.00210433
0.00209721
0.00209566
0.00209617
0.00209907
0.00210837
0.00210533
0.00210528
0.00210899
0.00209912
0.00209426
0.00209407
0.00209429
0.00210043
0.00263606
0.258105
2.59768
0.208378
0.00209788
0.00209628
0.00211128
0.00209579
0.00210377
0.00210459
0.0020979
0.00209505
0.00209675
0.00209658
0.00209701
0.00209627
0.00210638
0.00209626
0.00210837
0.00210722
0.00211786
0.0693786
1.94339
0.0442491
0.00209942
0.00209845
0.00210976
0.00210229
0.00210568
0.00210631
0.00210168
0.0020996
0.00210583
0.00209902
0.00209822
0.00210477
0.00210175
0.00210164
0.00210801
0.00210671
0.00264113
0.0293993
1.61144
0.03626
0.00213071
0.00211367
0.00211311
0.00211983
0.00211656
0.00211656
0.0021154
0.00211558
0.00211529
0.00211534
0.0021193
0.00211213
0.0021001
0.0021135
0.00210991
0.00210619
0.0769519
0.0115673
0.868327
0.0455281
0.00215477
0.00212169
0.00211904
0.00211432
0.0021124
0.00211163
0.00211099
0.0021106
0.00211086
0.00211027
0.00211028
0.00210677
0.00210397
0.0021005
0.00209978
0.00248404
0.801966
0.0224746
0.400717
0.0479417
0.025859
0.0240552
0.0234584
0.022505
0.0217888
0.0210818
0.0204084
0.0197181
0.0190228
0.0183196
0.0175079
0.0166308
0.0156642
0.0146225
0.0166731
0.221651
2.31961
0.214204
0.277808
6.40904
6.39172
6.38969
6.38943
6.38981
6.38799
6.38757
6.38812
6.38612
6.38551
6.38507
6.38361
6.38269
6.38172
6.38107
6.38001
6.42597
11.944
0.43123
0.277934
6.40951
6.39142
6.39006
6.39023
6.3886
6.38784
6.38718
6.38664
6.38579
6.38525
6.38476
6.38333
6.38241
6.38147
6.38083
6.37984
6.42609
11.9726
0.431122
0.401144
0.0480249
0.0258293
0.0240778
0.0234726
0.0225488
0.021801
0.0210674
0.0203951
0.0197161
0.0190446
0.0183341
0.0175239
0.0166499
0.0156751
0.0146485
0.0168626
0.229326
2.37481
0.215583
0.877582
0.0431133
0.00215335
0.0021205
0.00211669
0.00211402
0.00211224
0.00211148
0.00211125
0.00210906
0.00210814
0.00210868
0.00210766
0.00210761
0.00210529
0.00210419
0.00210739
0.00251303
0.8713
0.0244561
1.61473
0.0370344
0.00212396
0.00209946
0.00210212
0.00211848
0.00211742
0.00211743
0.00211808
0.00211062
0.0021045
0.00212074
0.00211401
0.00211324
0.00211899
0.00211221
0.00210599
0.0021047
0.0863008
0.01196
1.96127
0.0456683
0.00210197
0.0021016
0.00210393
0.00210263
0.00211213
0.00210509
0.00210037
0.00209978
0.00210506
0.00210252
0.00210404
0.00210071
0.00210045
0.00210425
0.0020978
0.0020963
0.0028654
0.0294269
2.62809
0.281999
0.00216894
0.00206032
0.00210867
0.00209617
0.00211227
0.00210062
0.00209506
0.00209897
0.00210977
0.00209805
0.00210169
0.00209728
0.00209697
0.00209926
0.00209556
0.00209771
0.00212846
0.0788108
4.53104
8.68528
6.30664
0.131946
0.0021039
0.0020964
0.00209944
0.00209478
0.00209607
0.00210734
0.00209691
0.00210422
0.00210864
0.00210873
0.002109
0.00210085
0.00210221
0.00210633
0.00265167
0.275346
6.44119
38.8033
8.20308
0.291157
0.00219794
0.0020965
0.00209557
0.00209556
0.0020969
0.00209829
0.0020948
0.00209399
0.00210601
0.00210725
0.00210591
0.00210043
0.002102
0.00210035
0.0170899
0.536173
9.95891
52.0495
11.2877
0.258435
0.00220488
0.00210644
0.00211005
0.002107
0.00210484
0.00209778
0.00209566
0.00209325
0.00210583
0.00210817
0.00210599
0.00210664
0.002102
0.00209958
0.0322509
1.19879
14.8304
48.2112
9.62294
0.197169
0.00215534
0.00209811
0.00209859
0.0020974
0.00209965
0.00210759
0.00209575
0.00209356
0.00210945
0.00209709
0.00210878
0.00209749
0.00210507
0.00210056
0.0511459
2.32607
21.8842
35.6134
6.34065
0.109335
0.00211729
0.0020954
0.00209631
0.00209626
0.00209971
0.00209597
0.00209704
0.00209393
0.00209941
0.00209541
0.00209482
0.00209623
0.00209572
0.00210239
0.0498281
3.32757
25.4273
22.3046
3.16923
0.113238
0.00211382
0.00210272
0.00210862
0.00210718
0.00210815
0.00209461
0.0020979
0.00210471
0.00209547
0.00210645
0.00209481
0.00210764
0.00209561
0.00210308
0.047831
4.04143
35.8061
14.7653
1.72434
0.0764695
0.00211231
0.00210219
0.0020965
0.00209879
0.00209612
0.00210419
0.00209674
0.00209674
0.00209603
0.00210573
0.002106
0.00210667
0.00210912
0.00210309
0.0546195
4.99705
37.0936
9.69943
0.958249
0.0176312
0.00209688
0.00210398
0.00209623
0.00209878
0.00209608
0.00210413
0.00209679
0.00209675
0.00209601
0.00210827
0.00209616
0.00210751
0.00210499
0.00210745
0.0756557
5.58043
36.7786
7.00229
0.569445
0.00505177
0.00209571
0.00209707
0.00210182
0.00210181
0.0021083
0.00210416
0.00210482
0.00210779
0.00210045
0.00209905
0.00209475
0.00209626
0.00210468
0.00210746
0.0849299
6.69543
40.4333
5.72742
0.403736
0.00326243
0.00210895
0.00209702
0.00209715
0.00210169
0.00210044
0.00210536
0.00209633
0.00209682
0.00209689
0.00209918
0.00209646
0.00209528
0.00210861
0.00210878
0.104229
7.60812
35.6408
5.86526
0.348402
0.00303583
0.00210316
0.00209718
0.00209663
0.00210232
0.00209955
0.00210125
0.00209508
0.00209503
0.0020961
0.00210051
0.00209678
0.00209973
0.00209998
0.00210684
0.177976
9.15636
32.3667
5.32992
0.326064
0.00238222
0.00210312
0.00209735
0.0020979
0.00210212
0.00210017
0.00210031
0.00209685
0.0020976
0.00209753
0.00210064
0.00209771
0.00209975
0.00209919
0.00210704
0.209307
10.229
30.8343
7.13394
0.163944
0.00211537
0.00210444
0.00210159
0.00210021
0.00210301
0.00210119
0.00210101
0.00209753
0.00209776
0.00209789
0.00210271
0.00210051
0.00210244
0.00210011
0.00210883
0.543597
12.1257
1.93478
4.30648
7.03116
1.96106
0.475319
0.00084028
0.00212195
0.00210577
0.0021185
0.0021012
0.0021045
0.00210351
0.002107
0.00210489
0.00211737
0.00210333
0.00210157
0.00552489
4.28814
26.7978
)
;

boundaryField
{
    outletWall
    {
        type            zeroGradient;
    }
    fineWalls
    {
        Cmu             0.09;
        kappa           0.41;
        E               9.8;
        type            epsilonWallFunction;
        value           nonuniform List<scalar> 
60
(
8.52003
0.00040793
0.00118796
0.00207967
0.00195945
0.00101012
0.00193505
0.00189309
0.00101531
0.00226879
0.00221998
0.00128326
0.00276189
0.00275516
0.00279501
0.0016413
0.0032413
0.0032416
0.00186158
0.00378448
0.0167986
0.0166993
0.010846
0.00679398
0.00111476
0.000285977
0.000162775
6.42695e-05
1.80226e-05
6.23547e-05
5.66252e-05
7.76811e-06
0.000109458
0.000316934
0.00057142
0.00119404
0.00648616
0.0102394
0.0158289
0.0153225
0.00370019
0.00182079
0.0031717
0.00317184
0.00160819
0.00274767
0.00271355
0.0027181
0.00130579
0.00225325
0.00225952
0.00105933
0.00186869
0.00189356
0.000942181
0.00187621
0.00200515
0.000977103
0.00749524
7.52115
)
;
    }
    fineFrontAndBack
    {
        type            zeroGradient;
    }
    fineplugLeft
    {
        type            cyclicAMI;
        value           nonuniform List<scalar> 
20
(
22.6184
3.44225
0.00673043
0.00212478
0.00211142
0.00210564
0.00210574
0.00210452
0.00210383
0.00210489
0.00210474
0.0021098
0.00210856
0.00318784
2.09217
10.9273
43.6055
138.877
210.029
89.8032
)
;
    }
    fineplugRight
    {
        type            cyclicAMI;
        value           nonuniform List<scalar> 
20
(
22.0596
3.40858
0.0215967
0.00139237
0.00243842
0.00211849
0.00210733
0.00210912
0.00210546
0.00210755
0.00210354
0.00211738
0.00211259
0.00310159
1.98877
10.4491
42.0769
134.799
199.945
83.1596
)
;
    }
    inletOutletLeft
    {
        type            cyclicAMI;
        value           nonuniform List<scalar> 
20
(
22.6184
3.44225
0.00673043
0.00212478
0.00211142
0.00210564
0.00210574
0.00210452
0.00210383
0.00210489
0.00210474
0.0021098
0.00210856
0.00318784
2.09217
10.9273
43.6055
138.877
210.029
89.8032
)
;
    }
    inletLeft
    {
        type            fixedValue;
        value           uniform 2180.89;
    }
    inletWallsLeft
    {
        Cmu             0.09;
        kappa           0.41;
        E               9.8;
        type            epsilonWallFunction;
        value           nonuniform List<scalar> 
40
(
0.277808
0.400717
0.868327
1.61144
1.94339
2.59768
4.50365
6.38131
9.66769
13.2777
19.5574
23.2569
32.2387
33.935
33.5772
37.4384
33.7216
31.4404
33.4137
0.291943
27.4812
15.3573
12.305
10.2586
7.97783
7.01886
5.85299
5.20379
4.10759
3.23112
2.1574
1.15279
0.517551
0.258105
0.0693786
0.0293993
0.0115673
0.0224746
0.214204
0.43123
)
;
    }
    inletFacesLeft
    {
        type            zeroGradient;
    }
    inletOutletRight
    {
        type            cyclicAMI;
        value           nonuniform List<scalar> 
20
(
22.0596
3.40858
0.0215967
0.00139237
0.00243842
0.00211849
0.00210733
0.00210912
0.00210546
0.00210755
0.00210354
0.00211738
0.00211259
0.00310159
1.98877
10.4491
42.0769
134.799
199.945
83.1596
)
;
    }
    inletRight
    {
        type            fixedValue;
        value           uniform 2180.89;
    }
    inletWallsRight
    {
        Cmu             0.09;
        kappa           0.41;
        E               9.8;
        type            epsilonWallFunction;
        value           nonuniform List<scalar> 
40
(
1.93478
30.8343
32.3667
35.6408
40.4333
36.7786
37.0936
35.8061
25.4273
21.8842
14.8304
9.95891
6.44119
4.53104
2.62809
1.96127
1.61473
0.877582
0.401144
0.277934
0.431122
0.215583
0.0244561
0.01196
0.0294269
0.0788108
0.275346
0.536173
1.19879
2.32607
3.32757
4.04143
4.99705
5.58043
6.69543
7.60812
9.15636
10.229
12.1257
26.7978
)
;
    }
    inletFacesRight
    {
        type            zeroGradient;
    }
}


// ************************************************************************* //
