/*--------------------------------*- C++ -*----------------------------------*\
| =========                 |                                                 |
| \\      /  F ield         | OpenFOAM: The Open Source CFD Toolbox           |
|  \\    /   O peration     | Version:  4.1                                   |
|   \\  /    A nd           | Web:      www.OpenFOAM.org                      |
|    \\/     M anipulation  |                                                 |
\*---------------------------------------------------------------------------*/
FoamFile
{
    version     2.0;
    format      ascii;
    class       volScalarField;
    location    "1";
    object      nut;
}
// * * * * * * * * * * * * * * * * * * * * * * * * * * * * * * * * * * * * * //

dimensions      [0 2 -1 0 0 0 0];

internalField   nonuniform List<scalar> 
1280
(
8.8013
14.8607
8.36762
8.45053
14.4567
8.10335
8.05692
8.03727
13.8285
7.66218
7.47273
12.4498
6.88343
6.88902
11.465
6.95364
6.32863
22.2122
33183.8
47.606
133.76
25.6927
6.42173
1.47152
0.0481982
1.77539e-05
1.02345e-08
5.81302e-11
5.55988e-11
5.5671e-11
5.55062e-11
5.73721e-11
5.51263e-11
5.47455e-11
5.69186e-11
1.77397e-05
0.000329267
3.42286e-05
0.000484752
0.232858
0.427142
8.80683
7.52415
5.80728
7.33059
2.50271
2.31085
1.00482
0.785609
1.09772
1.53779
1.78161
1.21338
2.07853
1.87218
4.28599
5.32694
7.37272
9.04243
1.80879
0.201157
0.0495192
0.00354065
0.000850747
0.000178757
1.66804e-05
5.74914e-11
5.46339e-11
5.47783e-11
5.67442e-11
5.54942e-11
5.51046e-11
6.05184e-11
9.91936e-09
1.57077e-05
0.0411284
1.3225
5.70934
24.1551
131.893
35.3835
1946.49
236.051
6.11532
6.8691
11.3554
6.9886
7.04437
12.8431
7.55627
7.62254
13.5858
7.98365
7.99858
8.0379
14.3304
8.36616
8.36593
14.75
8.7355
5.02581e-11
5.02617e-11
5.02634e-11
5.0267e-11
5.02735e-11
5.02705e-11
5.0282e-11
5.02837e-11
5.02799e-11
5.03066e-11
5.03066e-11
5.03202e-11
5.0353e-11
5.03887e-11
5.04171e-11
5.04291e-11
5.04439e-11
5.06149e-11
7.60071e-11
5.02566e-11
5.02586e-11
5.02622e-11
5.02617e-11
5.02652e-11
5.02679e-11
5.02738e-11
5.02761e-11
5.02761e-11
5.03031e-11
5.03144e-11
5.03105e-11
5.03359e-11
5.03514e-11
5.03446e-11
5.03724e-11
5.04614e-11
5.04144e-11
7.18004e-11
5.02571e-11
5.02578e-11
5.02608e-11
5.02628e-11
5.02689e-11
5.02685e-11
5.02737e-11
5.02749e-11
5.02738e-11
5.03041e-11
5.03234e-11
5.03061e-11
5.03363e-11
5.03563e-11
5.035e-11
5.03879e-11
5.03931e-11
5.04252e-11
6.74453e-11
5.02597e-11
5.02611e-11
5.02612e-11
5.02664e-11
5.02697e-11
5.02685e-11
5.02735e-11
5.02743e-11
5.02741e-11
5.02876e-11
5.03113e-11
5.03077e-11
5.03258e-11
5.03944e-11
5.0408e-11
5.03993e-11
5.0458e-11
5.0565e-11
6.39683e-11
5.0258e-11
5.02598e-11
5.02645e-11
5.02626e-11
5.02659e-11
5.02803e-11
5.02768e-11
5.02867e-11
5.03066e-11
5.02919e-11
5.03056e-11
5.03188e-11
5.03313e-11
5.03566e-11
5.03323e-11
5.03621e-11
5.06364e-11
5.04988e-11
6.20114e-11
5.02579e-11
5.02593e-11
5.02669e-11
5.02625e-11
5.02652e-11
5.02714e-11
5.02651e-11
5.02762e-11
5.0293e-11
5.03174e-11
5.02938e-11
5.03148e-11
5.03379e-11
5.03472e-11
5.03113e-11
5.03364e-11
5.04574e-11
6.81798e-11
2.42495e-06
5.0258e-11
5.02594e-11
5.02664e-11
5.02623e-11
5.02655e-11
5.02756e-11
5.02657e-11
5.02767e-11
5.02997e-11
5.02836e-11
5.02921e-11
5.03447e-11
5.0339e-11
5.03632e-11
5.031e-11
5.0348e-11
1.32246e-10
0.000234839
0.0007293
5.02577e-11
5.02596e-11
5.02664e-11
5.02616e-11
5.02634e-11
5.02738e-11
5.02825e-11
5.02713e-11
5.02784e-11
5.03003e-11
5.02911e-11
5.03032e-11
5.0338e-11
5.03411e-11
5.03159e-11
5.41889e-11
1.04275e-05
1.46324
43.3278
5.02581e-11
5.02593e-11
5.02636e-11
5.02613e-11
5.02648e-11
5.02701e-11
5.027e-11
5.02701e-11
5.02801e-11
5.03122e-11
5.02903e-11
5.02989e-11
5.03412e-11
5.03457e-11
5.03321e-11
5.03511e-11
5.09383e-11
4.28052e-06
1.59769
5.02618e-11
5.02589e-11
5.0258e-11
5.02597e-11
5.02644e-11
5.02736e-11
5.02665e-11
5.02763e-11
5.03011e-11
5.0279e-11
5.02921e-11
5.03142e-11
5.0311e-11
5.03059e-11
5.03061e-11
5.03083e-11
5.03274e-11
5.09857e-11
2.93402e-06
5.02576e-11
5.02595e-11
5.02672e-11
5.02599e-11
5.02625e-11
5.0267e-11
5.0266e-11
5.02669e-11
5.02643e-11
5.02685e-11
5.02938e-11
5.03251e-11
5.02893e-11
5.03113e-11
5.03585e-11
5.03229e-11
5.03312e-11
5.11735e-11
5.61843e-06
5.02585e-11
5.02582e-11
5.0261e-11
5.02636e-11
5.02617e-11
5.02637e-11
5.02712e-11
5.02788e-11
5.02711e-11
5.02849e-11
5.03084e-11
5.02914e-11
5.03177e-11
5.03599e-11
5.03226e-11
5.03499e-11
5.13504e-11
1.11329e-05
2.04168
5.02592e-11
5.02592e-11
5.02584e-11
5.0264e-11
5.02735e-11
5.0267e-11
5.02729e-11
5.02885e-11
5.02813e-11
5.02836e-11
5.03024e-11
5.03054e-11
5.03135e-11
5.02945e-11
5.02928e-11
6.60278e-11
0.000155351
4.23484
53.2157
5.02617e-11
5.02594e-11
5.02594e-11
5.0261e-11
5.02656e-11
5.02761e-11
5.02732e-11
5.02723e-11
5.02754e-11
5.02868e-11
5.03243e-11
5.02937e-11
5.02929e-11
5.02929e-11
5.02826e-11
5.03874e-11
6.54905e-10
0.00412574
0.00244438
5.0259e-11
5.02596e-11
5.02679e-11
5.02615e-11
5.02629e-11
5.0274e-11
5.02729e-11
5.02846e-11
5.03039e-11
5.02891e-11
5.03039e-11
5.02933e-11
5.03294e-11
5.03812e-11
5.04362e-11
5.03771e-11
5.04905e-11
1.54865e-10
2.92154e-06
5.02619e-11
5.02636e-11
5.02613e-11
5.02606e-11
5.02636e-11
5.02703e-11
5.02872e-11
5.02734e-11
5.02787e-11
5.02971e-11
5.02944e-11
5.02942e-11
5.03162e-11
5.03564e-11
5.03464e-11
5.04581e-11
5.0735e-11
5.04835e-11
6.28767e-11
5.0257e-11
5.02589e-11
5.02602e-11
5.02684e-11
5.02706e-11
5.02707e-11
5.02701e-11
5.02713e-11
5.02709e-11
5.02914e-11
5.03192e-11
5.0293e-11
5.02997e-11
5.03134e-11
5.03341e-11
5.03841e-11
5.04839e-11
5.04883e-11
6.33806e-11
5.02568e-11
5.02594e-11
5.02605e-11
5.02621e-11
5.02654e-11
5.02739e-11
5.02694e-11
5.02926e-11
5.03007e-11
5.0289e-11
5.02987e-11
5.02989e-11
5.03609e-11
5.04026e-11
5.04048e-11
5.03732e-11
5.04246e-11
5.04224e-11
6.72476e-11
5.02597e-11
5.02636e-11
5.02609e-11
5.0263e-11
5.02652e-11
5.0275e-11
5.02706e-11
5.02907e-11
5.02961e-11
5.02884e-11
5.02937e-11
5.03043e-11
5.03595e-11
5.03612e-11
5.03977e-11
5.03824e-11
5.04954e-11
5.04112e-11
7.2355e-11
5.02582e-11
5.02615e-11
5.02631e-11
5.0268e-11
5.02716e-11
5.02756e-11
5.02716e-11
5.02911e-11
5.03003e-11
5.02949e-11
5.03188e-11
5.03283e-11
5.03635e-11
5.0355e-11
5.04184e-11
5.03815e-11
5.04679e-11
5.06048e-11
7.66737e-11
58.9984
0.400026
0.105053
0.0132152
0.000432704
2.24216e-05
1.30566e-12
5.48744e-11
5.47945e-11
5.4298e-11
5.46867e-11
5.3932e-11
5.44353e-11
5.46989e-11
5.36546e-11
5.49948e-11
5.4096e-11
0.000344853
0.353964
1.74138
1.76263
0.901422
0.00683988
2.087e-08
5.47124e-11
5.42257e-11
5.41815e-11
5.42075e-11
5.39765e-11
5.36905e-11
5.38943e-11
5.42391e-11
5.4166e-11
5.44792e-11
5.36093e-11
5.53548e-11
5.39671e-11
5.02799e-10
0.0828767
1.17294
1.91311
0.518898
0.022636
3.61788e-06
5.48827e-11
5.4298e-11
5.29711e-11
5.38412e-11
5.32717e-11
5.26653e-11
5.2783e-11
5.36386e-11
5.42247e-11
5.38104e-11
5.30292e-11
5.56652e-11
5.36354e-11
1.63566e-10
0.0418945
1.20979
1.81846
0.553129
0.029341
5.29452e-05
6.57802e-11
5.30381e-11
5.29709e-11
5.38715e-11
5.32736e-11
5.26397e-11
5.2774e-11
5.37491e-11
5.4228e-11
5.3795e-11
5.33102e-11
5.41197e-11
5.40322e-11
9.80439e-11
0.0445902
1.11919
1.83901
0.563568
0.0258808
0.000115766
7.94862e-11
5.27825e-11
5.24577e-11
5.51948e-11
5.26702e-11
5.25372e-11
5.25805e-11
5.26054e-11
5.26313e-11
5.33941e-11
5.33001e-11
5.35449e-11
5.54621e-11
8.19395e-11
0.0312868
1.0635
1.93019
0.589924
0.030853
0.000254204
9.55404e-11
5.53135e-11
5.32367e-11
5.4652e-11
5.31924e-11
5.31669e-11
5.31804e-11
5.31812e-11
5.32431e-11
5.4002e-11
5.34351e-11
5.49101e-11
5.29264e-11
6.71278e-11
0.0256661
1.02941
1.93354
0.604455
0.0400682
0.000170299
1.27102e-10
5.30532e-11
5.59572e-11
5.46584e-11
5.57615e-11
5.5754e-11
5.51052e-11
5.58551e-11
5.58302e-11
5.58572e-11
5.58733e-11
5.58439e-11
5.29792e-11
6.18611e-11
0.0176378
0.961107
1.58166
0.838176
0.0606235
5.56983e-05
1.95322e-10
5.27347e-11
5.25669e-11
5.27975e-11
5.40513e-11
5.37622e-11
5.36158e-11
5.34178e-11
5.27126e-11
5.33761e-11
5.27363e-11
5.28921e-11
5.25703e-11
5.85969e-11
0.0136146
0.908765
1.50189
1.17783
0.0976896
0.000178005
1.1581e-09
5.56107e-11
5.31389e-11
5.32977e-11
5.44123e-11
5.40808e-11
5.32531e-11
5.37967e-11
5.31014e-11
5.35842e-11
5.28267e-11
5.31404e-11
5.31808e-11
5.54369e-11
0.0109606
0.806523
1.39829
1.3272
0.159569
0.000560828
1.29554e-08
5.3725e-11
5.5284e-11
5.54591e-11
5.54505e-11
5.58822e-11
5.33667e-11
5.40061e-11
5.42181e-11
5.54423e-11
5.479e-11
5.49511e-11
5.45253e-11
5.46743e-11
0.0121651
0.724094
1.2008
1.04236
0.115005
0.00189157
5.24823e-08
5.43217e-11
5.3887e-11
5.29989e-11
5.35252e-11
5.53173e-11
5.40576e-11
5.30213e-11
5.32572e-11
5.41057e-11
5.30066e-11
5.46753e-11
5.3288e-11
5.4863e-11
0.0121153
0.588363
1.11275
0.928919
0.11719
0.00274701
1.64485e-07
5.73356e-11
5.33616e-11
5.25637e-11
5.37139e-11
5.55337e-11
5.30242e-11
5.28483e-11
5.3243e-11
5.41349e-11
5.27587e-11
5.4678e-11
5.27924e-11
6.78669e-11
0.00841018
0.447678
0.948278
0.406363
0.0160058
5.53522e-05
2.74722e-10
5.3853e-11
5.34035e-11
5.28266e-11
5.29542e-11
5.5606e-11
5.3197e-11
5.29172e-11
5.34092e-11
5.34003e-11
5.29236e-11
5.47424e-11
5.28312e-11
5.67203e-11
0.00482361
0.335413
0.823787
0.217003
0.000192526
8.08449e-11
5.43045e-11
5.37341e-11
5.3578e-11
5.30077e-11
5.32136e-11
5.56975e-11
5.49304e-11
5.44602e-11
5.48969e-11
5.3362e-11
5.29712e-11
5.26892e-11
5.39267e-11
5.30996e-11
2.60889e-05
0.231447
0.712036
0.00518602
5.99389e-11
5.37907e-11
5.27031e-11
5.32459e-11
5.49302e-11
5.4398e-11
5.47298e-11
5.35772e-11
5.45326e-11
5.31241e-11
5.2613e-11
5.27923e-11
5.24745e-11
5.31237e-11
5.22275e-11
5.21327e-11
3.81532e-08
0.134661
0.666127
0.0042323
3.64766e-10
5.42892e-11
5.32186e-11
5.36283e-11
5.46704e-11
5.39871e-11
5.44093e-11
5.41174e-11
5.46092e-11
5.43448e-11
5.45654e-11
5.30295e-11
5.2707e-11
5.43971e-11
5.29241e-11
5.22982e-11
9.26183e-06
0.103589
0.608676
0.00315739
9.42836e-08
5.54964e-11
5.54627e-11
5.5795e-11
5.42523e-11
5.32612e-11
5.39489e-11
5.68986e-11
5.59076e-11
5.586e-11
5.72237e-11
5.58013e-11
5.41907e-11
5.32591e-11
5.50908e-11
6.22045e-11
0.000590923
0.0877263
0.401691
0.00287417
5.94743e-09
7.28725e-11
7.31984e-11
7.05433e-11
6.89527e-11
6.78425e-11
6.64938e-11
6.62689e-11
6.40648e-11
6.27729e-11
6.19049e-11
6.1075e-11
6.08777e-11
5.86554e-11
6.08487e-11
1.83878e-07
0.005758
0.142769
0.348432
7.88341e-08
1.09266e-08
1.01538e-08
9.89764e-09
9.49392e-09
9.1837e-09
8.89621e-09
8.61178e-09
8.31654e-09
8.02036e-09
7.73452e-09
7.38623e-09
7.01777e-09
6.61206e-09
6.18174e-09
1.54831e-08
2.74046e-05
0.00526842
0.268985
0.309154
6.61121e-07
6.55519e-07
6.55103e-07
6.55051e-07
6.55127e-07
6.54753e-07
6.54671e-07
6.54775e-07
6.54356e-07
6.54225e-07
6.54132e-07
6.53829e-07
6.53639e-07
6.5344e-07
6.53312e-07
6.53105e-07
6.63643e-07
4.70546e-06
0.360411
0.309157
6.61216e-07
6.55458e-07
6.55181e-07
6.55208e-07
6.54866e-07
6.54707e-07
6.54571e-07
6.54458e-07
6.54283e-07
6.5417e-07
6.54067e-07
6.53774e-07
6.53583e-07
6.53388e-07
6.53263e-07
6.53068e-07
6.63599e-07
4.73369e-06
0.360301
0.348294
7.90694e-08
1.09026e-08
1.01725e-08
9.90857e-09
9.53093e-09
9.19255e-09
8.88193e-09
8.59851e-09
8.31152e-09
8.03464e-09
7.74179e-09
7.39374e-09
7.0276e-09
6.61566e-09
6.19968e-09
1.63085e-08
2.98484e-05
0.00553273
0.271177
0.403137
0.00309797
5.94438e-09
7.49959e-11
7.3138e-11
7.05396e-11
6.99338e-11
6.81507e-11
6.66017e-11
6.54825e-11
6.42239e-11
6.24144e-11
6.14997e-11
6.12094e-11
6.00195e-11
5.91974e-11
6.20759e-11
2.62095e-07
0.0063018
0.146938
0.608647
0.00314716
1.05785e-07
5.82595e-11
5.63534e-11
5.39056e-11
5.6111e-11
5.62565e-11
5.67573e-11
5.53961e-11
5.34165e-11
5.28858e-11
5.34228e-11
5.32634e-11
5.30995e-11
5.35686e-11
5.49077e-11
6.37862e-11
0.000667133
0.0904744
0.666947
0.00443989
4.04626e-10
5.2858e-11
5.30642e-11
5.44875e-11
5.36394e-11
5.41046e-11
5.40923e-11
5.59057e-11
5.57954e-11
5.38894e-11
5.38029e-11
5.38088e-11
5.38219e-11
5.39442e-11
5.30502e-11
5.24666e-11
1.46048e-05
0.101224
0.712079
0.00122805
0.000190289
5.37591e-11
5.27988e-11
5.55041e-11
5.33941e-11
5.39556e-11
5.37162e-11
5.62845e-11
5.33293e-11
5.36912e-11
5.44313e-11
5.45877e-11
5.49842e-11
5.46326e-11
5.26539e-11
5.23279e-11
7.39106e-08
0.132597
0.826707
0.814182
127.425
0.0221076
1.00095e-08
5.44323e-11
5.58179e-11
5.59614e-11
5.52e-11
5.38098e-11
5.28942e-11
5.34878e-11
5.38769e-11
5.39361e-11
5.38158e-11
5.28265e-11
5.44007e-11
5.35956e-11
3.49921e-05
0.243797
0.955865
0.59813
12.6431
0.0949561
1.69992e-05
7.10467e-11
5.39823e-11
5.32779e-11
5.31341e-11
5.4142e-11
5.47064e-11
5.39152e-11
5.4038e-11
5.27595e-11
5.3813e-11
5.25837e-11
5.40149e-11
5.55292e-11
0.00414623
0.34417
1.09059
0.904636
0.78745
0.0256371
5.34586e-06
6.60435e-11
5.26186e-11
5.26968e-11
5.28665e-11
5.55919e-11
5.36028e-11
5.50509e-11
5.48698e-11
5.28088e-11
5.50677e-11
5.45873e-11
5.37772e-11
5.39648e-11
0.0118429
0.445005
1.21817
1.49809
0.346403
0.00918809
6.37639e-07
5.68548e-11
5.32668e-11
5.33026e-11
5.30656e-11
5.33145e-11
5.34049e-11
5.31264e-11
5.27597e-11
5.31557e-11
5.27231e-11
5.30183e-11
5.38552e-11
5.4569e-11
0.011038
0.602128
1.43504
1.17585
0.153201
0.00260438
2.46086e-08
5.41718e-11
5.3334e-11
5.33445e-11
5.30772e-11
5.34191e-11
5.38319e-11
5.30281e-11
5.2825e-11
5.32988e-11
5.2999e-11
5.30317e-11
5.42147e-11
5.48226e-11
0.0122236
0.744608
1.58061
0.833948
0.0735768
0.00028172
1.91644e-09
5.57278e-11
5.47511e-11
5.51244e-11
5.48627e-11
5.59533e-11
5.48815e-11
5.55745e-11
5.57442e-11
5.42154e-11
5.56123e-11
5.50093e-11
5.48581e-11
5.70401e-11
0.011711
0.818734
1.61589
0.659531
0.0464387
5.225e-05
2.66007e-10
5.28962e-11
5.29169e-11
5.28762e-11
5.29677e-11
5.2775e-11
5.30776e-11
5.32353e-11
5.31373e-11
5.42024e-11
5.28696e-11
5.30989e-11
5.27164e-11
5.67197e-11
0.0128629
0.907883
1.97155
0.538823
0.0307331
4.88124e-05
1.07615e-10
5.26237e-11
5.28556e-11
5.27861e-11
5.28554e-11
5.26771e-11
5.29659e-11
5.31767e-11
5.30328e-11
5.43022e-11
5.30494e-11
5.29809e-11
5.27438e-11
6.04595e-11
0.0140157
0.951126
1.96415
0.50539
0.0245166
0.000139808
9.30935e-11
5.5572e-11
5.52729e-11
5.54044e-11
5.41594e-11
5.53648e-11
5.54263e-11
5.35647e-11
5.55364e-11
5.36869e-11
5.4584e-11
5.50824e-11
5.51072e-11
7.73299e-11
0.0275179
1.01763
1.88151
0.568551
0.0290572
0.000172987
8.55811e-11
5.3441e-11
5.53616e-11
5.40626e-11
5.4384e-11
5.32872e-11
5.35498e-11
5.38591e-11
5.3328e-11
5.34772e-11
5.39565e-11
5.34381e-11
5.32382e-11
7.08661e-11
0.0271065
1.04533
1.89356
0.579475
0.038393
0.000167454
7.96095e-11
5.33001e-11
5.5999e-11
5.37611e-11
5.579e-11
5.3077e-11
5.30741e-11
5.61523e-11
5.30339e-11
5.35637e-11
5.36838e-11
5.31019e-11
5.29575e-11
7.34456e-11
0.0384125
1.13302
1.79743
0.502943
0.0283418
3.3556e-05
5.9625e-11
5.51629e-11
5.40064e-11
5.39368e-11
5.47768e-11
5.33158e-11
5.33574e-11
5.39235e-11
5.46788e-11
5.35807e-11
5.38522e-11
5.34586e-11
5.36931e-11
1.07118e-10
0.0349967
1.16368
1.88457
0.941149
0.0118398
7.3525e-08
5.48334e-11
5.5153e-11
5.40451e-11
5.39825e-11
5.48161e-11
5.35061e-11
5.35968e-11
5.38339e-11
5.48115e-11
5.43744e-11
5.39095e-11
5.34558e-11
5.38292e-11
2.75665e-10
0.0683561
1.23617
10.2168
0.00474083
0.0498247
0.0118769
0.000369202
1.49962e-05
7.31516e-12
5.4873e-11
5.54597e-11
5.55755e-11
5.60325e-11
5.6658e-11
5.66256e-11
5.65531e-11
5.57022e-11
5.51938e-11
5.64995e-11
0.000348555
0.340842
1.56834
)
;

boundaryField
{
    outletWall
    {
        type            calculated;
        value           nonuniform List<scalar> 
60
(
8.7355
7.60071e-11
5.06149e-11
5.04439e-11
5.04291e-11
5.04171e-11
5.03887e-11
5.0353e-11
5.03202e-11
5.03066e-11
5.03066e-11
5.02799e-11
5.02837e-11
5.0282e-11
5.02705e-11
5.02735e-11
5.0267e-11
5.02634e-11
5.02617e-11
5.02581e-11
5.02582e-11
5.02597e-11
5.02568e-11
5.0257e-11
5.02619e-11
5.0259e-11
5.02617e-11
5.02592e-11
5.02585e-11
5.02576e-11
5.02618e-11
5.02581e-11
5.02577e-11
5.0258e-11
5.02579e-11
5.0258e-11
5.02597e-11
5.02571e-11
5.02566e-11
5.02581e-11
8.8013
7.66737e-11
5.06048e-11
5.04679e-11
5.03815e-11
5.04184e-11
5.0355e-11
5.03635e-11
5.03283e-11
5.03188e-11
5.02949e-11
5.03003e-11
5.02911e-11
5.02716e-11
5.02756e-11
5.02716e-11
5.0268e-11
5.02631e-11
5.02615e-11
5.02582e-11
)
;
    }
    fineWalls
    {
        type            nutkWallFunction;
        Cmu             0.09;
        kappa           0.41;
        E               9.8;
        value           nonuniform List<scalar> 
60
(
4.96869
2.22588
0.874512
0.435814
0.439366
0.720687
0.43712
0.434798
0.735655
0.462458
0.462815
0.796671
0.492616
0.492616
0.494944
0.852949
0.517503
0.516319
0.884279
0.541796
0.912885
0.772524
0.665397
0.552447
0.591204
0.206069
0.185131
0.131482
0.183366
0.137969
0.124716
0.12451
0.142451
0.221711
0.259238
0.681467
0.557651
0.659609
0.758155
0.636514
0.537993
0.878143
0.513663
0.513671
0.847126
0.49203
0.490026
0.490005
0.796615
0.463867
0.46322
0.748472
0.435832
0.436371
0.707404
0.433675
0.428646
1.45635
2.26555
4.49744
)
;
    }
    fineFrontAndBack
    {
        type            calculated;
        value           nonuniform List<scalar> 
960
(
8.8013
14.8607
8.36762
8.45053
14.4567
8.10335
8.05692
8.03727
13.8285
7.66218
7.47273
12.4498
6.88343
6.88902
11.465
6.95364
6.32863
22.2122
33183.8
47.606
133.76
25.6927
6.42173
1.47152
0.0481982
1.77539e-05
1.02345e-08
5.81302e-11
5.55988e-11
5.5671e-11
5.55062e-11
5.73721e-11
5.51263e-11
5.47455e-11
5.69186e-11
4.24867e-29
0.000329267
3.42286e-05
3.69684e+11
0.232858
0.427142
8.80683
7.52415
5.80728
7.33059
2.50271
2.31085
1.00482
0.785609
1.09772
1.53779
1.78161
1.21338
2.07853
1.87218
4.28599
5.32694
7.37272
9.04243
1.80879
0.201157
9e-17
0.00354065
9e-17
0.000178757
4.23935e-29
5.74914e-11
5.46339e-11
5.47783e-11
5.67442e-11
5.54942e-11
5.51046e-11
6.05184e-11
9.91936e-09
1.57077e-05
0.0411284
1.3225
5.70934
24.1551
131.893
35.3835
1946.49
9.21091e-29
6.11532
6.8691
11.3554
6.9886
7.04437
12.8431
7.55627
7.62254
13.5858
7.98365
7.99858
8.0379
14.3304
8.36616
8.36593
14.75
8.7355
5.02581e-11
5.02617e-11
5.02634e-11
5.0267e-11
5.02735e-11
5.02705e-11
5.0282e-11
5.02837e-11
5.02799e-11
5.03066e-11
5.03066e-11
5.03202e-11
5.0353e-11
5.03887e-11
5.04171e-11
5.04291e-11
5.04439e-11
5.06149e-11
7.60071e-11
5.02566e-11
5.02586e-11
5.02622e-11
5.02617e-11
5.02652e-11
5.02679e-11
5.02738e-11
5.02761e-11
5.02761e-11
5.03031e-11
5.03144e-11
5.03105e-11
5.03359e-11
5.03514e-11
5.03446e-11
5.03724e-11
5.04614e-11
5.04144e-11
7.18004e-11
5.02571e-11
5.02578e-11
5.02608e-11
5.02628e-11
5.02689e-11
5.02685e-11
5.02737e-11
5.02749e-11
5.02738e-11
5.03041e-11
5.03234e-11
5.03061e-11
5.03363e-11
5.03563e-11
5.035e-11
5.03879e-11
5.03931e-11
5.04252e-11
6.74453e-11
5.02597e-11
5.02611e-11
5.02612e-11
5.02664e-11
5.02697e-11
5.02685e-11
5.02735e-11
5.02743e-11
5.02741e-11
5.02876e-11
5.03113e-11
5.03077e-11
5.03258e-11
5.03944e-11
5.0408e-11
5.03993e-11
5.0458e-11
5.0565e-11
6.39683e-11
5.0258e-11
5.02598e-11
5.02645e-11
5.02626e-11
5.02659e-11
5.02803e-11
5.02768e-11
5.02867e-11
5.03066e-11
5.02919e-11
5.03056e-11
5.03188e-11
5.03313e-11
5.03566e-11
5.03323e-11
5.03621e-11
5.06364e-11
5.04988e-11
6.20114e-11
5.02579e-11
5.02593e-11
5.02669e-11
5.02625e-11
5.02652e-11
5.02714e-11
5.02651e-11
5.02762e-11
5.0293e-11
5.03174e-11
5.02938e-11
5.03148e-11
5.03379e-11
5.03472e-11
5.03113e-11
5.03364e-11
5.04574e-11
6.81798e-11
4.32319e-29
5.0258e-11
5.02594e-11
5.02664e-11
5.02623e-11
5.02655e-11
5.02756e-11
5.02657e-11
5.02767e-11
5.02997e-11
5.02836e-11
5.02921e-11
5.03447e-11
5.0339e-11
5.03632e-11
5.031e-11
5.0348e-11
1.32246e-10
0.000234839
0.0007293
5.02577e-11
5.02596e-11
5.02664e-11
5.02616e-11
5.02634e-11
5.02738e-11
5.02825e-11
5.02713e-11
5.02784e-11
5.03003e-11
5.02911e-11
5.03032e-11
5.0338e-11
5.03411e-11
5.03159e-11
5.41889e-11
1.04275e-05
1.46324
43.3278
5.02581e-11
5.02593e-11
5.02636e-11
5.02613e-11
5.02648e-11
5.02701e-11
5.027e-11
5.02701e-11
5.02801e-11
5.03122e-11
5.02903e-11
5.02989e-11
5.03412e-11
5.03457e-11
5.03321e-11
5.03511e-11
5.09383e-11
4.28052e-06
1.59769
5.02618e-11
5.02589e-11
5.0258e-11
5.02597e-11
5.02644e-11
5.02736e-11
5.02665e-11
5.02763e-11
5.03011e-11
5.0279e-11
5.02921e-11
5.03142e-11
5.0311e-11
5.03059e-11
5.03061e-11
5.03083e-11
5.03274e-11
5.09857e-11
2.93402e-06
5.02576e-11
5.02595e-11
5.02672e-11
5.02599e-11
5.02625e-11
5.0267e-11
5.0266e-11
5.02669e-11
5.02643e-11
5.02685e-11
5.02938e-11
5.03251e-11
5.02893e-11
5.03113e-11
5.03585e-11
5.03229e-11
5.03312e-11
5.11735e-11
5.61843e-06
5.02585e-11
5.02582e-11
5.0261e-11
5.02636e-11
5.02617e-11
5.02637e-11
5.02712e-11
5.02788e-11
5.02711e-11
5.02849e-11
5.03084e-11
5.02914e-11
5.03177e-11
5.03599e-11
5.03226e-11
5.03499e-11
5.13504e-11
1.11329e-05
2.04168
5.02592e-11
5.02592e-11
5.02584e-11
5.0264e-11
5.02735e-11
5.0267e-11
5.02729e-11
5.02885e-11
5.02813e-11
5.02836e-11
5.03024e-11
5.03054e-11
5.03135e-11
5.02945e-11
5.02928e-11
6.60278e-11
0.000155351
4.23484
53.2157
5.02617e-11
5.02594e-11
5.02594e-11
5.0261e-11
5.02656e-11
5.02761e-11
5.02732e-11
5.02723e-11
5.02754e-11
5.02868e-11
5.03243e-11
5.02937e-11
5.02929e-11
5.02929e-11
5.02826e-11
5.03874e-11
6.54905e-10
0.00412574
0.00244438
5.0259e-11
5.02596e-11
5.02679e-11
5.02615e-11
5.02629e-11
5.0274e-11
5.02729e-11
5.02846e-11
5.03039e-11
5.02891e-11
5.03039e-11
5.02933e-11
5.03294e-11
5.03812e-11
5.04362e-11
5.03771e-11
5.04905e-11
1.54865e-10
2.92154e-06
5.02619e-11
5.02636e-11
5.02613e-11
5.02606e-11
5.02636e-11
5.02703e-11
5.02872e-11
5.02734e-11
5.02787e-11
5.02971e-11
5.02944e-11
5.02942e-11
5.03162e-11
5.03564e-11
5.03464e-11
5.04581e-11
5.0735e-11
5.04835e-11
6.28767e-11
5.0257e-11
5.02589e-11
5.02602e-11
5.02684e-11
5.02706e-11
5.02707e-11
5.02701e-11
5.02713e-11
5.02709e-11
5.02914e-11
5.03192e-11
5.0293e-11
5.02997e-11
5.03134e-11
5.03341e-11
5.03841e-11
5.04839e-11
5.04883e-11
6.33806e-11
5.02568e-11
5.02594e-11
5.02605e-11
5.02621e-11
5.02654e-11
5.02739e-11
5.02694e-11
5.02926e-11
5.03007e-11
5.0289e-11
5.02987e-11
5.02989e-11
5.03609e-11
5.04026e-11
5.04048e-11
5.03732e-11
5.04246e-11
5.04224e-11
6.72476e-11
5.02597e-11
5.02636e-11
5.02609e-11
5.0263e-11
5.02652e-11
5.0275e-11
5.02706e-11
5.02907e-11
5.02961e-11
5.02884e-11
5.02937e-11
5.03043e-11
5.03595e-11
5.03612e-11
5.03977e-11
5.03824e-11
5.04954e-11
5.04112e-11
7.2355e-11
5.02582e-11
5.02615e-11
5.02631e-11
5.0268e-11
5.02716e-11
5.02756e-11
5.02716e-11
5.02911e-11
5.03003e-11
5.02949e-11
5.03188e-11
5.03283e-11
5.03635e-11
5.0355e-11
5.04184e-11
5.03815e-11
5.04679e-11
5.06048e-11
7.66737e-11
8.8013
14.8607
8.36762
8.45053
14.4567
8.10335
8.05692
8.03727
13.8285
7.66218
7.47273
12.4498
6.88343
6.88902
11.465
6.95364
6.32863
22.2122
33183.8
47.606
133.76
25.6927
6.42173
1.47152
0.0481982
1.77539e-05
1.02345e-08
5.81302e-11
5.55988e-11
5.5671e-11
5.55062e-11
5.73721e-11
5.51263e-11
5.47455e-11
5.69186e-11
4.24867e-29
0.000329267
3.42286e-05
3.69684e+11
0.232858
0.427142
8.80683
7.52415
5.80728
7.33059
2.50271
2.31085
1.00482
0.785609
1.09772
1.53779
1.78161
1.21338
2.07853
1.87218
4.28599
5.32694
7.37272
9.04243
1.80879
0.201157
9e-17
0.00354065
9e-17
0.000178757
4.23935e-29
5.74914e-11
5.46339e-11
5.47783e-11
5.67442e-11
5.54942e-11
5.51046e-11
6.05184e-11
9.91936e-09
1.57077e-05
0.0411284
1.3225
5.70934
24.1551
131.893
35.3835
1946.49
9.21091e-29
6.11532
6.8691
11.3554
6.9886
7.04437
12.8431
7.55627
7.62254
13.5858
7.98365
7.99858
8.0379
14.3304
8.36616
8.36593
14.75
8.7355
5.02581e-11
5.02617e-11
5.02634e-11
5.0267e-11
5.02735e-11
5.02705e-11
5.0282e-11
5.02837e-11
5.02799e-11
5.03066e-11
5.03066e-11
5.03202e-11
5.0353e-11
5.03887e-11
5.04171e-11
5.04291e-11
5.04439e-11
5.06149e-11
7.60071e-11
5.02566e-11
5.02586e-11
5.02622e-11
5.02617e-11
5.02652e-11
5.02679e-11
5.02738e-11
5.02761e-11
5.02761e-11
5.03031e-11
5.03144e-11
5.03105e-11
5.03359e-11
5.03514e-11
5.03446e-11
5.03724e-11
5.04614e-11
5.04144e-11
7.18004e-11
5.02571e-11
5.02578e-11
5.02608e-11
5.02628e-11
5.02689e-11
5.02685e-11
5.02737e-11
5.02749e-11
5.02738e-11
5.03041e-11
5.03234e-11
5.03061e-11
5.03363e-11
5.03563e-11
5.035e-11
5.03879e-11
5.03931e-11
5.04252e-11
6.74453e-11
5.02597e-11
5.02611e-11
5.02612e-11
5.02664e-11
5.02697e-11
5.02685e-11
5.02735e-11
5.02743e-11
5.02741e-11
5.02876e-11
5.03113e-11
5.03077e-11
5.03258e-11
5.03944e-11
5.0408e-11
5.03993e-11
5.0458e-11
5.0565e-11
6.39683e-11
5.0258e-11
5.02598e-11
5.02645e-11
5.02626e-11
5.02659e-11
5.02803e-11
5.02768e-11
5.02867e-11
5.03066e-11
5.02919e-11
5.03056e-11
5.03188e-11
5.03313e-11
5.03566e-11
5.03323e-11
5.03621e-11
5.06364e-11
5.04988e-11
6.20114e-11
5.02579e-11
5.02593e-11
5.02669e-11
5.02625e-11
5.02652e-11
5.02714e-11
5.02651e-11
5.02762e-11
5.0293e-11
5.03174e-11
5.02938e-11
5.03148e-11
5.03379e-11
5.03472e-11
5.03113e-11
5.03364e-11
5.04574e-11
6.81798e-11
4.32319e-29
5.0258e-11
5.02594e-11
5.02664e-11
5.02623e-11
5.02655e-11
5.02756e-11
5.02657e-11
5.02767e-11
5.02997e-11
5.02836e-11
5.02921e-11
5.03447e-11
5.0339e-11
5.03632e-11
5.031e-11
5.0348e-11
1.32246e-10
0.000234839
0.0007293
5.02577e-11
5.02596e-11
5.02664e-11
5.02616e-11
5.02634e-11
5.02738e-11
5.02825e-11
5.02713e-11
5.02784e-11
5.03003e-11
5.02911e-11
5.03032e-11
5.0338e-11
5.03411e-11
5.03159e-11
5.41889e-11
1.04275e-05
1.46324
43.3278
5.02581e-11
5.02593e-11
5.02636e-11
5.02613e-11
5.02648e-11
5.02701e-11
5.027e-11
5.02701e-11
5.02801e-11
5.03122e-11
5.02903e-11
5.02989e-11
5.03412e-11
5.03457e-11
5.03321e-11
5.03511e-11
5.09383e-11
4.28052e-06
1.59769
5.02618e-11
5.02589e-11
5.0258e-11
5.02597e-11
5.02644e-11
5.02736e-11
5.02665e-11
5.02763e-11
5.03011e-11
5.0279e-11
5.02921e-11
5.03142e-11
5.0311e-11
5.03059e-11
5.03061e-11
5.03083e-11
5.03274e-11
5.09857e-11
2.93402e-06
5.02576e-11
5.02595e-11
5.02672e-11
5.02599e-11
5.02625e-11
5.0267e-11
5.0266e-11
5.02669e-11
5.02643e-11
5.02685e-11
5.02938e-11
5.03251e-11
5.02893e-11
5.03113e-11
5.03585e-11
5.03229e-11
5.03312e-11
5.11735e-11
5.61843e-06
5.02585e-11
5.02582e-11
5.0261e-11
5.02636e-11
5.02617e-11
5.02637e-11
5.02712e-11
5.02788e-11
5.02711e-11
5.02849e-11
5.03084e-11
5.02914e-11
5.03177e-11
5.03599e-11
5.03226e-11
5.03499e-11
5.13504e-11
1.11329e-05
2.04168
5.02592e-11
5.02592e-11
5.02584e-11
5.0264e-11
5.02735e-11
5.0267e-11
5.02729e-11
5.02885e-11
5.02813e-11
5.02836e-11
5.03024e-11
5.03054e-11
5.03135e-11
5.02945e-11
5.02928e-11
6.60278e-11
0.000155351
4.23484
53.2157
5.02617e-11
5.02594e-11
5.02594e-11
5.0261e-11
5.02656e-11
5.02761e-11
5.02732e-11
5.02723e-11
5.02754e-11
5.02868e-11
5.03243e-11
5.02937e-11
5.02929e-11
5.02929e-11
5.02826e-11
5.03874e-11
6.54905e-10
0.00412574
0.00244438
5.0259e-11
5.02596e-11
5.02679e-11
5.02615e-11
5.02629e-11
5.0274e-11
5.02729e-11
5.02846e-11
5.03039e-11
5.02891e-11
5.03039e-11
5.02933e-11
5.03294e-11
5.03812e-11
5.04362e-11
5.03771e-11
5.04905e-11
1.54865e-10
2.92154e-06
5.02619e-11
5.02636e-11
5.02613e-11
5.02606e-11
5.02636e-11
5.02703e-11
5.02872e-11
5.02734e-11
5.02787e-11
5.02971e-11
5.02944e-11
5.02942e-11
5.03162e-11
5.03564e-11
5.03464e-11
5.04581e-11
5.0735e-11
5.04835e-11
6.28767e-11
5.0257e-11
5.02589e-11
5.02602e-11
5.02684e-11
5.02706e-11
5.02707e-11
5.02701e-11
5.02713e-11
5.02709e-11
5.02914e-11
5.03192e-11
5.0293e-11
5.02997e-11
5.03134e-11
5.03341e-11
5.03841e-11
5.04839e-11
5.04883e-11
6.33806e-11
5.02568e-11
5.02594e-11
5.02605e-11
5.02621e-11
5.02654e-11
5.02739e-11
5.02694e-11
5.02926e-11
5.03007e-11
5.0289e-11
5.02987e-11
5.02989e-11
5.03609e-11
5.04026e-11
5.04048e-11
5.03732e-11
5.04246e-11
5.04224e-11
6.72476e-11
5.02597e-11
5.02636e-11
5.02609e-11
5.0263e-11
5.02652e-11
5.0275e-11
5.02706e-11
5.02907e-11
5.02961e-11
5.02884e-11
5.02937e-11
5.03043e-11
5.03595e-11
5.03612e-11
5.03977e-11
5.03824e-11
5.04954e-11
5.04112e-11
7.2355e-11
5.02582e-11
5.02615e-11
5.02631e-11
5.0268e-11
5.02716e-11
5.02756e-11
5.02716e-11
5.02911e-11
5.03003e-11
5.02949e-11
5.03188e-11
5.03283e-11
5.03635e-11
5.0355e-11
5.04184e-11
5.03815e-11
5.04679e-11
5.06048e-11
7.66737e-11
)
;
    }
    fineplugLeft
    {
        type            cyclicAMI;
        value           nonuniform List<scalar> 
20
(
1.43968
0.283268
0.000282728
6.58534e-05
3.54798e-06
5.43074e-11
5.47082e-11
5.45735e-11
5.462e-11
5.48506e-11
5.45726e-11
5.49554e-11
5.55256e-11
1.1649e-09
2.14881e-05
0.00998581
0.304876
1.36839
5.45855
73.9507
)
;
    }
    fineplugRight
    {
        type            cyclicAMI;
        value           nonuniform List<scalar> 
20
(
1.2949
0.282578
0.000986975
0.000170149
3.57515e-05
3.33612e-06
5.67408e-11
5.62273e-11
5.62821e-11
5.61749e-11
5.55592e-11
5.53887e-11
5.60021e-11
1.13439e-09
1.51385e-05
0.00852105
0.274001
1.18173
4.83481
34.552
)
;
    }
    inletOutletLeft
    {
        type            cyclicAMI;
        value           nonuniform List<scalar> 
20
(
1.43968
0.283268
0.000282728
6.58534e-05
3.54798e-06
5.43074e-11
5.47082e-11
5.45735e-11
5.462e-11
5.48506e-11
5.45726e-11
5.49554e-11
5.55256e-11
1.1649e-09
2.14881e-05
0.00998581
0.304876
1.36839
5.45855
73.9507
)
;
    }
    inletLeft
    {
        type            calculated;
        value           uniform 5.26945e-05;
    }
    inletWallsLeft
    {
        type            nutkWallFunction;
        Cmu             0.09;
        kappa           0.41;
        E               9.8;
        value           nonuniform List<scalar> 
40
(
0.024319
0.0272051
0.0336131
0.0426957
0.0455292
0.0494526
0.058112
0.0650966
0.0743997
0.0815204
0.092413
0.0978254
0.106826
0.113283
0.112959
0.11456
0.111513
0.111013
0.11047
0.0829969
0.10526
0.0838653
0.080231
0.0755332
0.0704092
0.0678317
0.0640034
0.061477
0.0566059
0.0522205
0.0453223
0.0368002
0.0286081
0.0223656
0.0145894
0.0112769
0.00876412
0.0114128
0.02218
0.0278868
)
;
    }
    inletFacesLeft
    {
        type            calculated;
        value           nonuniform List<scalar> 
800
(
58.9984
0.400026
9e-17
9e-17
9e-17
1.34709e-28
1.30566e-12
5.48744e-11
5.47945e-11
5.4298e-11
5.46867e-11
5.3932e-11
5.44353e-11
5.46989e-11
5.36546e-11
5.49948e-11
5.4096e-11
0.000344853
0.353964
1.74138
1.76263
0.901422
0.00683988
2.087e-08
5.47124e-11
5.42257e-11
5.41815e-11
5.42075e-11
5.39765e-11
5.36905e-11
5.38943e-11
5.42391e-11
5.4166e-11
5.44792e-11
5.36093e-11
5.53548e-11