/*--------------------------------*- C++ -*----------------------------------*\
| =========                 |                                                 |
| \\      /  F ield         | OpenFOAM: The Open Source CFD Toolbox           |
|  \\    /   O peration     | Version:  4.1                                   |
|   \\  /    A nd           | Web:      www.OpenFOAM.org                      |
|    \\/     M anipulation  |                                                 |
\*---------------------------------------------------------------------------*/
FoamFile
{
    version     2.0;
    format      ascii;
    class       volScalarField;
    location    "1";
    object      p;
}
// * * * * * * * * * * * * * * * * * * * * * * * * * * * * * * * * * * * * * //

dimensions      [0 2 -2 0 0 0 0];

internalField   nonuniform List<scalar> 
1280
(
-192.799
-15.0404
-64.9227
-256.994
24.5708
-91.0116
-225.761
-205.256
-11.9317
-22.725
-226.34
138.561
100.629
-134.316
392.337
255.616
8.55607
396.334
700.561
-595.756
-916.14
-989.023
-1298.68
-1343.68
-1256.21
-1214.32
-2743.63
-349.789
-185.85
-29.124
112.313
260.339
417.875
533.564
700.017
748.225
946.079
967.241
1122.92
1674.19
0.833052
215.069
229.146
252.337
306.617
295.421
306.484
309.832
347.711
317.198
317.87
341.314
282.451
271.302
255.585
258.699
208.265
186.792
174.313
-31.8015
1756.52
1205.67
1049.03
1029.02
832.216
785.36
620.147
506.626
351.434
205.784
66.5678
-89.2852
-252.986
-2700.59
-1143.11
-1182.97
-1270.16
-1222.15
-920.351
-873.471
-589.638
714.717
411.904
20.1138
266.863
403.158
-126.757
108.016
145.326
-221.455
-18.0029
-7.92644
-202.176
-223.012
-88.4088
26.9385
-255.614
-63.6854
-14.2082
-192.783
0.0558048
0.203988
0.387766
0.642984
0.997614
1.49782
2.20571
3.208
4.62354
6.60797
9.34581
13.1079
18.1268
21.6479
18.1924
0.953201
-112.847
-392.533
-136.1
0.161093
0.595283
1.12972
1.8682
2.88909
4.32513
6.3502
9.20713
13.2262
18.8394
26.5892
37.4354
52.4477
65.079
65.2353
44.4384
-379.657
-867.674
-497.851
0.258658
0.981068
1.87499
3.1067
4.80685
7.19715
10.5665
15.3186
22.0009
31.3257
44.2218
62.4664
87.9134
110.642
121.48
89.7628
-936.956
-1574.63
-706.862
0.349444
1.34755
2.56664
4.25025
6.56963
9.82986
14.4223
20.895
29.9876
42.6585
60.2214
85.3875
121.3
159.198
207.573
167.499
-1735.19
-2148.92
-889.453
0.431322
1.6943
3.20839
5.30874
8.19723
12.2585
17.9771
26.0341
37.3396
53.0681
74.8738
106.252
151.723
208.556
320.06
276.769
-2111.21
-2227.86
-1012.53
0.502352
2.01155
3.77624
6.24091
9.62442
14.3843
21.0851
30.5217
43.7457
62.1084
87.5083
123.813
176.125
245.661
404.804
371.876
-1599.49
-2112.29
-453.509
0.560194
2.29172
4.25827
7.02893
10.8259
16.1716
23.6964
34.2884
49.1084
69.6323
97.8772
137.906
195.457
273.121
452.844
230.551
-1110.7
-1173.24
-133.924
0.601466
2.52226
4.63588
7.64442
11.7602
17.5598
25.7233
37.2091
53.252
75.3706
105.49
146.475
197.087
261.049
325.442
-373.524
-1160.88
-66.0467
1419.5
0.627169
2.69527
4.90282
8.07834
12.4161
18.5341
27.1464
39.2614
56.1691
79.4196
110.829
152.325
200.027
268.808
333.832
-226.387
-970.058
-55.7339
1314.29
0.633225
2.78262
5.0276
8.2819
12.7225
18.9881
27.8078
40.2101
57.5022
81.232
113.265
155.795
204.14
273.467
348.507
-73.9551
-912.514
38.8912
1277.99
0.633224
2.78261
5.02758
8.28187
12.7224
18.988
27.8076
40.21
57.5021
81.2317
113.266
155.808
204.177
273.369
347.949
-74.1717
-912.108
36.4478
1264.64
0.627168
2.69525
4.90277
8.07826
12.416
18.5339
27.1461
39.2611
56.1687
79.4184
110.829
152.348
200.095
268.593
332.714
-223.849
-972.001
-60.5666
1288.35
0.601461
2.52221
4.6358
7.64429
11.76
17.5595
25.7227
37.2083
53.2511
75.3687
105.489
146.497
197.133
260.803
324.991
-367.205
-1166.37
-74.143
1388.74
0.560188
2.29167
4.25818
7.02877
10.8256
16.1711
23.6957
34.2874
49.1073
69.6297
97.8741
137.919
195.48
272.981
453.214
238.18
-1113.64
-1187.76
-159.744
0.502343
2.01149
3.77614
6.24072
9.62412
14.3838
21.0843
30.5206
43.7442
62.1051
87.5029
123.817
176.122
245.503
405.015
374.856
-1611.63
-2122.89
-463.96
0.431312
1.69425
3.20829
5.30856
8.19693
12.258
17.9764
26.0329
37.3379
53.0642
74.8661
106.246
151.703
208.378
319.852
277.529
-2121.42
-2239.45
-1018.13
0.349435
1.34749
2.56655
4.25009
6.56936
9.82941
14.4215
20.8939
29.9858
42.6545
60.2127
85.3745
121.271
159.052
207.17
167.396
-1738.54
-2158.8
-892.606
0.25865
0.981028
1.87491
3.10657
4.80663
7.19679
10.5659
15.3176
21.9993
31.3222
44.2139
62.452
87.8834
110.535
121.099
89.3086
-938.179
-1577.65
-709.009
0.161088
0.595257
1.12967
1.86812
2.88896
4.3249
6.34983
9.20653
13.2252
18.8371
26.584
37.4252
52.4264
65.0175
65.0037
44.0318
-380.588
-870.307
-499.061
0.0558023
0.203978
0.387747
0.642951
0.997558
1.49772
2.20555
3.20774
4.62306
6.60691
9.34345
13.103
18.1165
21.622
18.1047
0.756191
-113.283
-394.048
-136.96
2759.84
2592.31
2533.06
2420.37
2418.7
2390.23
2351.92
2314.9
2322.77
2341.95
2371.99
2395.82
2455.65
2455.1
2585.14
2518.84
2738.44
2625.26
2844.74
2828.77
2418.32
2380.11
2350.53
2278.57
2249.51
2194.61
2151.29
2107.43
2061.58
2020.28
1984.12
1938.33
1930.17
1846.85
1906.37
1749.87
1889.97
1690.37
1823.62
1680.76
2724.01
2670.63
2658.39
2566.7
2561.78
2489.5
2459.01
2407.17
2363.55
2319.65
2276.29
2225.05
2202.68
2115.05
2149.46
1993.19
2095.54
1900.45
1979.11
1857.9
2674.9
2597.17
2611.06
2492.47
2507.91
2419.97
2397.87
2340.76
2297.94
2252.16
2207.4
2156.35
2129
2046.07
2070.19
1923.82
2013.13
1830.64
1898.11
1794.01
2802.5
2704.57
2739.76
2598.77
2629.94
2530.54
2514.47
2453.98
2412.2
2365.88
2320.01
2270.19
2237.65
2161.9
2170.04
2043.51
2102.37
1948.14
1986.51
1896
2795.68
2681.59
2744.41
2581.82
2634.3
2523.66
2518.2
2455.6
2417.93
2373.39
2329.21
2283.34
2249.03
2182.66
2181.07
2072.79
2114.04
1981.47
2004.35
1929.82
2844.1
2702.68
2795.76
2605.32
2675.99
2551.86
2552.18
2485.12
2447.42
2401.46
2355.38
2309.93
2270.42
2209.91
2195.16
2102.07
2121.67
2008.82
2012.15
1949.52
2871.28
2700.27
2831.34
2611.15
2701.29
2565.57
2571.66
2501.75
2464.49
2418.09
2370.82
2326.52
2282.56
2228.38
2201.45
2123.36
2123.01
2028.64
2014.79
1962.13
2870.53
2659.79
2838.82
2583.19
2692.1
2546.01
2555.32
2483.54
2445.54
2398.78
2350.08
2306.86
2258.6
2210.74
2172.25
2108.95
2090.05
2013.42
1984.32
1940.91
2855.12
2592.8
2834.52
2536.01
2664.03
2509.58
2519.63
2447.46
2407.68
2360.68
2310.33
2267.83
2215.43
2173.06
2123.95
2073.67
2038.42
1976.7
1935.04
1898.62
2784.97
2453.48
2783.39
2431.68
2586.19
2425.77
2438.29
2369.43
2329.91
2285.32
2235.93
2195.93
2142.72
2105.97
2051.6
2011.63
1967.95
1916.38
1869.94
1838.28
2651.6
2208.31
2648.36
2227.89
2433.7
2259.15
2285.06
2221.96
2187.94
2149.9
2106.22
2071.9
2023.9
1992.89
1943.07
1908.57
1869.91
1822.01
1782.57
1753.66
2510.11
1943.36
2457.3
1953.39
2258.32
2034.68
2096.56
2033.44
2009.96
1980.2
1944.95
1917.72
1878.76
1852.18
1813.61
1779.69
1753.69
1706.12
1676.15
1650.54
2347.74
1802.07
2259.41
1728.71
2156
1855.78
1976.91
1907.89
1900.19
1881.27
1857.08
1839.75
1811.9
1792.84
1765.36
1737.07
1718.7
1680.06
1650.69
1633.76
1858.68
1502.64
1897.43
1438.31
1890.38
1579.67
1742.27
1685.41
1699.66
1702.81
1700.4
1706
1699.62
1705.71
1694.29
1695.11
1683.45
1674.76
1647.19
1650.52
1293.57
1194.94
1421.12
1022.81
1367.04
1112.51
1220.33
1174.98
1183.06
1194.96
1206.99
1235.86
1256.72
1305.08
1326.62
1388.3
1410.54
1466.29
1481.58
1534.69
1494.3
1466.12
1777.76
1350.23
1609.37
1374.28
1387.22
1302.76
1247.95
1201.65
1161.4
1143.28
1127.4
1151.59
1162.25
1234.69
1277.95
1397.52
1446.13
1605.23
-1886.96
-2056.96
-1302.76
-1715.07
-1313.19
-1414.96
-1310.33
-1305.53
-1282.67
-1271.71
-1262.54
-1250.68
-1239.08
-1214.79
-1187
-1138.83
-1083.8
-993.667
-1019.91
-659.889
-5003.03
-6588.22
-5782.51
-6655.1
-6633.41
-7043.87
-7226.28
-7460.35
-7621.58
-7750.18
-7826.73
-7852.94
-7824.26
-7736.42
-7584.63
-7364.78
-7059.42
-6736.47
-6247.74
-5717.58
47798.8
41324.5
37880.5
33593
30033.4
26532.1
23332.3
20306.9
17480.3
14816.6
12304.7
9925.11
7662.33
5498.22
3423.73
1417.55
-607.077
-2477.03
-4314.54
-7186.84
47450.9
40979.2
37537.4
33252.2
29694.8
26195.5
22997.7
19974
17148.9
14486.5
11975.8
9597.12
7335.06
5171.5
3097.66
1092.21
-931.854
-2800.62
-4636.41
-7504.01
-5370.28
-6951.85
-6142.81
-7011.86
-6987.22
-7394.89
-7575.1
-7807.3
-7967.11
-8094.67
-8170.62
-8196.61
-8168.11
-8080.79
-7929.9
-7711.11
-7407.3
-7085.72
-6601.89
-6071.67
-2318.58
-2482.49
-1724.34
-2130.9
-1724.87
-1822.59
-1714.1
-1706.25
-1680.42
-1667.01
-1655.76
-1642.26
-1629.38
-1604.3
-1575.88
-1527.61
-1471.78
-1382.16
-1409.2
-1044.42
982.302
962.898
1281.99
863.003
1130.22
902.535
923.41
845.877
798.286
758.767
725.129
713.364
703.763
733.895
750.655
828.297
878.738
1002.17
1056.47
1222.42
706.959
618.519
855.833
465.972
821.137
576.574
693.987
658.692
676.209
697.518
718.768
756.624
786.279
843.217
872.936
942.589
972.971
1035.26
1056.94
1117.56
1186.64
841.378
1245.39
789.464
1253.64
953.584
1124.75
1078.8
1102.38
1115.39
1122.54
1137.61
1140.39
1155.75
1152.55
1162.61
1158.31
1158.05
1136.27
1146.75
1578.55
963.934
1543.66
985.834
1410.06
1121.12
1251.05
1193.16
1195.28
1186.72
1172.72
1165.59
1147.72
1139.02
1120.65
1103.35
1093.05
1065.44
1043.09
1035.18
1613.88
1044.94
1580.57
1095.86
1404.59
1191.38
1262.75
1209.94
1196.53
1177.11
1152.22
1135.45
1106.86
1091.11
1062.28
1040.12
1022.89
987.592
965.629
949.998
1670.9
1233.64
1680.26
1270.19
1483.29
1316.97
1351.87
1297.49
1272.76
1244.09
1210.03
1185.53
1147.45
1126.83
1086.75
1063.7
1034.23
998.672
967.946
949.048
1743.61
1415.79
1748.49
1403.07
1563.16
1408.25
1427.68
1365.26
1333.11
1296.02
1254.57
1222.85
1178.22
1150.56
1105.13
1075.35
1040.63
1000.34
962.887
940.492
1781.55
1522.87
1765.3
1468.87
1599.74
1447.9
1461.99
1393.53
1358.48
1316.43
1271.58
1235.02
1189.01
1153.54
1111.57
1069.28
1041.64
989.045
955.501
926.807
1808.64
1597.31
1773.81
1516.28
1624.52
1477.64
1487.39
1416.05
1379.4
1334.35
1287.95
1247.55
1202.63
1158.62
1124.46
1066.08
1052.25
981.72
958.608
920.45
1858.16
1682.11
1807.08
1581.39
1667.07
1526.91
1529.6
1456.56
1416.92
1368.63
1320.05
1275
1230.83
1176.97
1150.97
1074.23
1075.72
983.899
973.158
922.555
1920.55
1770.17
1853.78
1653.87
1716.16
1583.6
1576.48
1502.34
1458.21
1406.36
1354.96
1304.76
1261.06
1196.89
1179.2
1083.41
1101.16
986.857
989.984
925.777
1999.21
1872.61
1922.79
1746.89
1787.45
1664.45
1647.8
1574.18
1526.16
1471.77
1418.28
1363.67
1321.14
1247.1
1238.6
1123.52
1159.05
1020.94
1040.03
960.29
2165.09
2052.17
2072.63
1915.39
1931.8
1816.73
1786.33
1711.41
1655.83
1596.1
1537.29
1475.02
1430.5
1343.26
1340.63
1203.43
1252.62
1088.96
1119.66
1020.71
2213.81
2119.54
2118.24
1982
1981.32
1875.98
1837.72
1764.08
1705.22
1643.56
1583.24
1516.95
1474.7
1377.22
1387.36
1227.04
1303.29
1107.71
1164.14
1048.6
2441.58
2372.45
2346.88
2238.22
2217.86
2128.37
2081.67
2012.96
1952.62
1891.89
1831.74
1763.73
1724.65
1620.44
1638.51
1465.84
1552.44
1341.11
1406.21
1270.93
2285.72
2236.53
2197.54
2112.44
2071.77
2002.94
1946.29
1887.92
1827.29
1770.69
1718.91
1657.16
1632.69
1532.82
1575.59
1401.78
1524.96
1307.06
1424.84
1266.82
2729.75
2555.2
2491.93
2371.89
2363.41
2326.35
2280.1
2234.24
2231.76
2239.74
2258.27
2269.96
2317.07
2303.54
2419.74
2339.13
2543.94
2414.36
2618.35
2587.26
)
;

boundaryField
{
    outletWall
    {
        type            fixedValue;
        value           uniform 0;
    }
    fineWalls
    {
        type            zeroGradient;
    }
    fineFrontAndBack
    {
        type            zeroGradient;
    }
    fineplugLeft
    {
        type            cyclicAMI;
        value           nonuniform List<scalar> 
20
(
2597.85
2500.37
2293.66
2379.97
2164.72
2208.12
2070.79
2048.09
1968.73
1920.06
1867.73
1821.04
1781.96
1772.51
1669.32
1683.72
1667.56
1766.71
1876.04
2024.64
)
;
    }
    fineplugRight
    {
        type            cyclicAMI;
        value           nonuniform List<scalar> 
20
(
2421.11
2335.82
2141.29
2240.96
2037.75
2092.87
1966.86
1954.98
1886.26
1847.77
1805.1
1767.55
1736.79
1713.76
1632.46
1654.14
1643.48
1749.11
1860.09
2009.11
)
;
    }
    inletOutletLeft
    {
        type            cyclicAMI;
        value           nonuniform List<scalar> 
20
(
2597.85
2500.37
2293.66
2379.97
2164.72
2208.12
2070.79
2048.09
1968.73
1920.06
1867.73
1821.04
1781.96
1772.51
1669.32
1683.72
1667.56
1766.71
1876.04
2024.64
)
;
    }
    inletLeft
    {
        type            zeroGradient;
    }
    inletWallsLeft
    {
        type            zeroGradient;
    }
    inletFacesLeft
    {
        type            zeroGradient;
    }
    inletOutletRight
    {
        type            cyclicAMI;
        value           nonuniform List<scalar> 
20
(
2421.11
2335.82
2141.29
2240.96
2037.75
2092.87
1966.86
1954.98
1886.26
1847.77
1805.1
1767.55
1736.79
1713.76
1632.46
1654.14
1643.48
1749.11
1860.09
2009.11
)
;
    }
    inletRight
    {
        type            zeroGradient;
    }
    inletWallsRight
    {
        type            zeroGradient;
    }
    inletFacesRight
    {
        type            zeroGradient;
    }
}


// ************************************************************************* //
