/*--------------------------------*- C++ -*----------------------------------*\
| =========                 |                                                 |
| \\      /  F ield         | OpenFOAM: The Open Source CFD Toolbox           |
|  \\    /   O peration     | Version:  4.1                                   |
|   \\  /    A nd           | Web:      www.OpenFOAM.org                      |
|    \\/     M anipulation  |                                                 |
\*---------------------------------------------------------------------------*/
FoamFile
{
    version     2.0;
    format      ascii;
    class       volScalarField;
    location    "2";
    object      p;
}
// * * * * * * * * * * * * * * * * * * * * * * * * * * * * * * * * * * * * * //

dimensions      [0 2 -2 0 0 0 0];

internalField   nonuniform List<scalar> 
1680
(
-12.0434
-8.36837
-4.15988
-5.84833
-7.55788
-5.10088
-6.39922
-7.84586
-5.422
-6.97185
-7.57307
-7.188
-8.03569
-5.78186
-7.62158
-8.65729
-7.43095
-10.6875
-2.94379
-14.3256
-2.55904
-14.9649
-1.13233
-1.83418
0.122968
0.870549
2.44398
3.34001
5.3897
6.23905
9.49282
-3.18837
8.6662
8.42723
9.66719
9.90686
10.2574
11.0869
9.4228
12.1051
-1.5302
-3.71099
-4.13122
1.25599
0.275848
-0.198895
-0.013716
0.044388
0.0985459
0.056962
-0.12885
-0.033997
-0.02921
-0.0208815
-0.139879
-0.0362221
-0.0029032
0.0490273
0.0566618
0.214149
5.9993
-0.156721
6.26601
3.70693
5.69504
5.07559
6.0577
6.29333
6.98882
7.47724
8.33818
5.4536
-3.15085
-7.10958
-4.57762
-5.59696
0.340965
-0.548819
-1.8693
6.7282
-0.187781
6.12645
3.35617
5.47523
4.79472
5.8166
6.05462
6.80907
7.47363
8.38319
5.32419
-3.02873
-6.5359
-3.56023
-5.53849
0.0632152
-0.231333
-1.86261
7.33311
-0.0850801
5.97581
3.03365
5.24171
4.50546
5.5599
5.79954
6.63688
7.52494
8.32277
5.12771
-3.16212
-6.58679
-3.11478
-5.35205
-0.949876
0.0901707
-1.95886
7.7057
-0.361933
5.79919
2.72023
4.99372
4.20853
5.2871
5.52648
6.4571
7.57507
8.28791
4.95008
-3.56385
-7.12102
-2.99273
-5.46725
-3.4388
-0.971515
-0.764751
7.90324
-0.577015
5.59778
2.41696
4.73043
3.90438
4.99739
5.23271
6.25153
7.58934
8.25819
4.91685
-4.15023
-8.26578
-3.29503
-6.0437
-7.30922
-4.54826
1.27
7.91735
-0.74024
5.36811
2.1258
4.45131
3.59369
4.69031
4.916
6.00087
7.52302
8.13911
5.1342
-4.77973
-9.72918
-4.52344
-8.52976
-13.6466
-12.0231
-5.0446
7.77155
-0.899147
5.10597
1.84425
4.15552
3.2765
4.36503
4.57426
5.68392
7.30407
7.90672
5.46394
-5.16468
-11.0741
-6.65222
-12.4807
-16.7294
-13.0727
2.30805
7.48507
-1.03582
4.81035
1.57214
3.84373
2.95423
4.02267
4.20875
5.29362
6.88147
7.57654
5.69573
-4.35954
-11.4423
-8.46776
-13.3211
-16.1229
-12.3868
1.06331
7.06262
-1.14786
4.47722
1.30757
3.51375
2.62504
3.66107
3.81896
4.84149
6.24894
6.9828
5.52328
-2.79346
-10.5665
-9.02858
-12.3359
-17.0582
-11.7085
0.283705
6.52774
-1.23783
4.11099
1.05422
3.17093
2.29492
3.2872
3.41436
4.3592
5.53838
6.15903
4.85635
-1.89308
-10.2235
-9.78918
-11.0952
-16.6308
-11.3246
-0.784112
5.86652
-1.31058
3.69586
0.802215
2.80294
1.95148
2.88717
2.98097
3.83925
4.80005
5.26903
4.01684
-1.77961
-10.9438
-10.6204
-11.2024
-14.4481
-10.8788
-1.65532
5.15759
-1.35891
3.26543
0.573503
2.44045
1.62599
2.49745
2.56073
3.33269
4.10591
4.43017
3.20754
-1.90391
-11.3967
-10.6804
-11.3862
-13.1559
-10.3606
-2.40438
4.23804
-1.4036
2.73238
0.316124
2.01131
1.24626
2.03484
2.06199
2.73537
3.33868
3.5376
2.36369
-2.01307
-11.0016
-10.8918
-10.6907
-11.9078
-9.85889
-3.04334
3.53561
-1.40414
2.30585
0.151068
1.69141
0.985417
1.70167
1.70923
2.30658
2.79505
2.93817
1.86924
-1.72761
-9.50879
-10.877
-9.92153
-10.6567
-9.22197
-3.53991
1.98037
-1.45369
1.47748
-0.204871
1.0611
0.434544
1.01894
0.975116
1.44064
1.77987
1.84787
0.927082
-1.79115
-7.66475
-10.1923
-9.09375
-9.63265
-8.67115
-3.91999
2.21526
-1.34938
1.49161
-0.0872163
1.1355
0.567607
1.13625
1.11985
1.5828
1.92438
2.06859
1.34827
-0.831458
-5.4062
-9.04202
-8.38741
-9.07186
-8.57612
-4.5751
-2.43272
-1.53147
-0.654959
-1.05498
-0.524722
-0.932583
-0.695895
-0.856177
-0.6986
-0.621835
-0.617212
-1.02117
-1.95721
-4.01929
-7.69324
-7.16339
-7.7696
-7.50325
-4.30019
4.63735
-1.0357
2.38892
0.575209
1.99011
1.48268
2.14533
2.23784
2.79557
3.2279
3.55796
3.13655
1.37788
-1.93177
-6.07903
-5.09525
-5.33447
-5.26881
-2.99949
-18.2833
-1.83854
-6.99584
-3.76327
-5.47158
-5.32746
-6.11902
-6.6405
-7.30885
-7.77748
-7.90921
-7.08442
-4.44639
-1.54767
-6.7915
-8.16783
-9.57957
-10.0933
-7.36276
38.6418
0.303675
15.5602
6.89198
12.4284
11.1305
13.7209
14.6303
16.6348
17.9132
18.3487
15.7559
8.42205
0.00697761
-7.44363
-11.7872
-14.1989
-15.2552
-12.2595
75.4539
74.0127
74.0778
72.2052
71.7895
69.8968
69.16
67.4077
66.5277
65.0184
64.3202
63.0075
62.5944
61.5114
61.6665
60.6851
61.1253
60.407
60.7886
60.5951
60.6221
60.458
61.0334
60.6325
61.3215
60.7566
61.2972
60.748
61.0665
60.5503
60.7386
60.1809
60.375
59.6851
59.9836
59.2486
59.5956
58.9688
59.2141
58.8881
65.2826
64.7041
65.2435
64.4396
64.9841
64.2897
64.6584
64.1282
64.3375
63.9019
64.0641
63.6048
63.837
63.2787
63.6129
62.9834
63.3392
62.7772
62.9907
62.6533
63.4468
63.0742
63.6991
63.0303
63.6902
63.099
63.5958
63.1752
63.4961
63.188
63.4372
63.1225
63.4143
63.0141
63.3867
62.9238
63.3048
62.9032
63.1427
62.9567
64.4413
64.0036
64.6165
63.8742
64.5472
63.9052
64.3902
63.9635
64.2539
63.9684
64.1789
63.9088
64.1507
63.8178
64.1259
63.7452
64.0582
63.7314
63.9228
63.7766
64.3823
63.9832
64.5495
63.8456
64.5698
63.8992
64.4483
64.009
64.3344
64.07
64.2825
64.0659
64.2783
64.0287
64.2803
64.0025
64.2486
64.0197
64.1632
64.0784
64.7302
64.3584
64.8122
64.2098
64.8684
64.2157
64.7713
64.3133
64.6555
64.3867
64.5928
64.405
64.5783
64.3917
64.5756
64.3836
64.5511
64.4051
64.4898
64.4466
64.8684
64.5929
64.9362
64.5017
64.9873
64.4811
64.9427
64.5439
64.8556
64.6123
64.7967
64.6462
64.7776
64.6555
64.7749
64.6661
64.7651
64.6939
64.7371
64.7223
65.0381
64.9059
65.0936
64.8139
65.1161
64.7843
65.0868
64.8101
65.0322
64.8566
64.9906
64.8935
64.9767
64.9197
64.9801
64.9474
64.9889
64.9768
64.9983
64.9933
65.1225
65.0798
65.154
65.0011
65.149
64.9658
65.1159
64.9645
65.0748
64.9809
65.0438
65.0029
65.0305
65.0302
65.0328
65.0653
65.0527
65.0974
65.1051
65.1135
65.1039
65.0918
65.106
65.0352
65.0784
64.9932
65.0345
64.9617
64.9849
64.9374
64.9383
64.9202
64.899
64.9139
64.8701
64.9181
64.864
64.9234
64.9056
64.925
65.1346
65.1176
65.1066
65.0679
65.0558
65.0096
64.9904
64.9427
64.913
64.8695
64.8274
64.7933
64.7361
64.718
64.6439
64.6422
64.5617
64.5635
64.4942
64.477
65.5318
65.4925
65.4731
65.4292
65.3977
65.3491
65.3077
65.253
65.2011
65.141
65.0777
65.0131
64.9374
64.8687
64.7794
64.7034
64.6042
64.5192
64.3932
64.2762
66.3279
66.28
66.2587
66.2059
66.1784
66.1229
66.0877
66.0294
65.984
65.9214
65.8657
65.7955
65.7301
65.6493
65.5743
65.4783
65.395
65.2763
65.1622
64.962
67.2083
67.1706
67.1527
67.1041
67.0891
67.0422
67.0237
66.9813
66.9569
66.9171
66.8881
66.8475
66.8143
66.771
66.7323
66.6834
66.6436
66.573
66.5391
66.3794
67.916
67.8794
67.8677
67.826
67.8161
67.7823
67.77
67.7454
67.7317
67.7137
67.7011
67.6881
67.6764
67.67
67.6562
67.6586
67.6433
67.6456
67.6437
67.6248
68.4546
68.4078
68.3977
68.3569
68.3434
68.3135
68.2955
68.2746
68.2567
68.2412
68.2263
68.216
68.2038
68.2016
68.1885
68.2011
68.1812
68.2127
68.1865
68.2575
68.9103
68.8683
68.8613
68.8222
68.8084
68.7811
68.7599
68.7376
68.7152
68.694
68.672
68.6517
68.6298
68.6119
68.5884
68.5788
68.5469
68.5564
68.5135
68.5496
69.1921
69.1739
69.1911
69.1677
69.1668
69.1582
69.1523
69.1461
69.1398
69.1328
69.125
69.1155
69.1041
69.0896
69.0709
69.0503
69.0146
68.9948
68.9218
68.8815
69.1596
69.0983
69.1359
69.1459
69.1625
69.1795
69.1976
69.2175
69.2395
69.2638
69.291
69.3215
69.3557
69.394
69.4372
69.4856
69.5387
69.6059
69.6493
69.8095
0.229463
0.177337
0.434671
0.502141
0.629651
0.702134
0.892526
0.917451
1.05375
1.14779
1.30426
1.31423
1.26117
1.33186
1.30989
1.40144
1.07442
-1.83553
-1.83807
-3.33851
8.38108
6.42701
7.46125
6.42501
5.89569
5.25412
4.39021
3.56599
-14.2029
-1.43216
-4.83269
-5.78883
-7.89098
-8.97347
-10.593
-11.5058
-13.1453
-12.4404
-26.1289
-14.7118
-26.7841
-14.7297
-23.2656
-19.5291
-21.1687
-19.4221
-16.9149
-19.6797
-17.9942
-18.1816
-16.9042
-15.0547
-16.4729
-15.2787
-14.95
-15.3966
-15.2778
-15.4594
-15.5145
-15.6051
7.81543
7.55319
7.68345
7.52994
7.58745
7.51562
7.65562
7.75441
7.87865
7.83323
7.42369
6.27796
4.32189
1.82461
-1.35172
-11.5819
-23.0571
-23.9805
-18.2834
7.81817
7.53775
7.68229
7.50509
7.56946
7.49405
7.64173
7.74656
7.87219
7.82123
7.39958
6.23136
4.27412
1.82156
-1.33659
-11.7961
-23.7446
-24.8232
-18.5857
7.84568
7.52068
7.65582
7.43478
7.52789
7.46865
7.6321
7.73778
7.86237
7.80466
7.36342
6.14887
4.16999
1.77157
-1.34941
-12.0684
-24.5885
-26.3059
-18.9719
7.87899
7.47828
7.60981
7.36376
7.49293
7.44126
7.62018
7.72821
7.85626
7.79334
7.32978
6.04112
4.00516
1.67457
-1.35818
-12.4145
-25.6602
-28.0012
-19.7789
7.86488
7.40112
7.55915
7.29096
7.45997
7.411
7.60851
7.71853
7.85242
7.78783
7.30196
5.91644
3.77325
1.52919
-1.37153
-12.7741
-26.888
-29.9412
-20.6366
7.79834
7.2985
7.50757
7.21161
7.42546
7.37421
7.59382
7.70908
7.85312
7.79172
7.28629
5.78405
3.47416
1.34669
-1.36894
-13.0671
-28.0972
-31.9592
-21.7332
7.69911
7.17705
7.45489
7.12194
7.38781
7.33158
7.57659
7.70023
7.85808
7.80609
7.28726
5.64944
3.10275
1.0403
-1.36446
-13.179
-28.9528
-33.701
-22.7867
7.57942
7.03853
7.39943
7.01788
7.34406
7.28017
7.55503
7.69254
7.86807
7.83279
7.3112
5.52713
2.66311
0.415854
-1.62844
-12.6685
-29.2621
-34.9833
-23.8451
7.44779
6.88201
7.33948
6.89652
7.2924
7.21898
7.53038
7.68666
7.88275
7.87203
7.36403
5.44395
2.15367
-0.794207
-2.64266
-11.2171
-28.7682
-35.4099
-24.8487
7.31023
6.70498
7.27408
6.75584
7.23108
7.14618
7.50336
7.68131
7.90119
7.92163
7.45091
5.44681
1.51235
-3.046
-5.15518
-9.33664
-28.4674
-35.318
-25.6371
7.1706
6.50416
7.20294
6.59438
7.15858
7.05996
7.47377
7.6709
7.92102
7.97448
7.57406
5.55332
0.36033
-6.90673
-10.0267
-8.62771
-28.9476
-34.6026
-26.8476
7.03048
6.27544
7.12644
6.41095
7.07357
6.95678
7.43675
7.64664
7.93628
8.01435
7.72374
5.73613
-1.81923
-12.5327
-16.8218
-9.21776
-24.0855
-32.376
-26.7505
6.89403
6.01378
7.04533
6.20453
6.97493
6.83155
7.38263
7.60673
7.94037
8.03569
7.91189
5.83931
-4.88355
-17.3854
-21.1619
-7.62063
-17.2087
-33.0605
-25.3155
6.75738
5.7121
6.96093
5.97423
6.86216
6.67941
7.2937
7.53121
7.9186
8.04378
8.06605
5.67601
-7.45338
-18.6816
-20.9053
-3.49061
-8.27137
-29.4476
-23.1013
6.62743
5.36308
6.87396
5.71926
6.7354
6.50232
7.17445
7.41614
7.85761
8.00231
8.0872
5.30097
-8.63815
-18.9469
-18.5122
0.00466058
0.445695
-12.6695
-15.5677
6.48494
4.94771
6.78545
5.43909
6.59499
6.30405
7.03282
7.27109
7.7534
7.91817
8.05482
4.93202
-7.86082
-18.8543
-15.6244
0.871644
2.58377
-4.37088
-1.5573
6.38172
4.44799
6.69444
5.13339
6.44129
6.0873
6.87103
7.10471
7.62508
7.81496
8.01462
4.63118
-6.27894
-17.291
-12.6224
-0.50609
2.32498
-3.48388
-1.90489
6.20516
3.81698
6.60406
4.80385
6.27448
5.85429
6.69113
6.92147
7.47969
7.70738
8.02087
4.50129
-5.36467
-14.3619
-9.93032
-3.37685
1.413
-2.17231
-2.04919
6.19019
2.98696
6.50272
4.45105
6.09454
5.60691
6.49502
6.72486
7.32428
7.60972
8.10944
4.88746
-4.74245
-11.2171
-7.65207
-5.21183
0.314248
-1.49691
-2.15011
5.8505
1.89493
6.41376
4.08611
5.9015
5.34685
6.28374
6.51585
7.16127
7.52619
8.21391
5.33316
-3.85826
-8.6707
-5.94399
-5.60259
0.123527
-0.932504
-2.01154
687.381
604.1
554.57
497.885
448.495
400.829
356.532
314.71
275.398
238.322
203.345
170.276
138.889
109.102
81.0035
53.976
28.9451
10.2632
-12.7937
-50.6305
-11.485
-34.6465
-26.9692
-38.5911
-41.9046
-49.0904
-54.594
-60.3648
-65.4158
-69.9117
-73.6314
-76.4959
-78.4198
-79.3402
-79.2082
-77.9241
-75.4395
-72.8037
-71.0151
-68.5105
-34.8016
-41.8756
-33.6963
-40.6784
-38.7513
-42.1352
-43.457
-46.0307
-48.2867
-50.8116
-53.2746
-55.7641
-58.2273
-60.7035
-63.1359
-64.8955
-65.3974
-64.1267
-62.9625
-60.5876
-23.7714
-27.6306
-24.6528
-30.4921
-28.9405
-32.6178
-33.1986
-35.1797
-36.2385
-37.3568
-38.0869
-38.5723
-38.7794
-38.7159
-38.4868
-37.809
-36.7022
-34.715
-32.8027
-30.1394
-25.7996
-28.127
-24.6547
-27.7848
-24.1491
-25.5383
-23.5396
-23.06
-21.7119
-20.4631
-18.9988
-17.4123
-15.7164
-13.9051
-12.0575
-10.1255
-8.3258
-6.50625
-5.40416
-3.68187
-11.488
-12.0821
-8.48289
-10.3629
-6.96537
-7.45615
-5.55942
-4.73448
-3.48323
-2.29563
-1.075
0.170048
1.41496
2.66793
3.87769
5.09643
6.16736
7.35326
8.08595
9.3092
5.60178
6.05527
9.02158
7.78585
10.3211
10.3059
11.615
12.4221
13.3602
14.3116
15.262
16.231
17.2028
18.1873
19.147
20.1405
21.0199
22.0543
22.7059
23.8742
21.2898
22.0349
24.1762
23.4211
25.218
25.3787
26.2753
26.9471
27.6364
28.354
29.0596
29.7753
30.4905
31.2143
31.9186
32.6522
33.296
34.0619
34.5172
35.3979
33.4289
33.8669
35.3925
34.5947
36.0009
35.8644
36.4728
36.8036
37.182
37.5747
37.9524
38.3437
38.7325
39.1318
39.5193
39.9303
40.2864
40.7179
40.9656
41.4332
40.5225
40.2853
41.4937
40.4406
41.8397
41.2075
41.7911
41.7754
41.9788
42.1334
42.2903
42.4643
42.6327
42.8164
42.9903
43.1848
43.3472
43.5502
43.6666
43.8643
43.5555
42.8323
43.6972
42.6951
44.041
43.0955
43.7919
43.5422
43.7266
43.7595
43.8347
43.9152
43.9894
44.0795
44.1565
44.2535
44.3233
44.4216
44.4721
44.5516
43.9907
43.2371
43.9706
43.2025
44.2947
43.4525
44.1423
43.8782
44.0957
44.1143
44.2018
44.2741
44.3456
44.4228
44.4885
44.5673
44.6196
44.6991
44.7318
44.8005
43.7787
43.2037
44.1302
43.4055
44.295
43.8041
44.3374
44.2327
44.4578
44.5261
44.6555
44.7511
44.8603
44.9496
45.0468
45.1321
45.209
45.2996
45.3456
45.4473
44.629
44.2454
45.2832
44.5213
45.2811
45.0586
45.4081
45.4242
45.6051
45.6872
45.8204
45.8994
46.024
46.0862
46.2055
46.2615
46.3624
46.434
46.4959
46.6061
46.2811
45.9951
46.985
46.2289
46.8433
46.6705
46.887
46.8981
47.0153
47.0504
47.1554
47.1739
47.2922
47.287
47.4181
47.4051
47.5267
47.5406
47.6167
47.6966
48.2321
47.8846
48.7717
47.9867
48.491
48.2274
48.3637
48.2874
48.348
48.2982
48.366
48.2963
48.4003
48.2978
48.4361
48.3208
48.4589
48.3796
48.4629
48.4739
48.3337
47.9808
48.8173
48.07
48.5936
48.2783
48.4632
48.3328
48.4254
48.3292
48.4205
48.2972
48.432
48.259
48.4409
48.2434
48.4277
48.273
48.3843
48.3488
50.739
50.1483
50.8634
49.9792
50.4058
49.9304
50.0384
49.7519
49.7607
49.5183
49.5329
49.2611
49.3409
49.0121
49.1604
48.8006
48.9635
48.6538
48.7396
48.5588
46.3371
46.1067
46.8206
46.3051
46.9262
46.5363
46.8653
46.5581
46.7004
46.4086
46.4806
46.149
46.2483
45.8217
46.0068
45.5667
45.7909
45.4395
45.6079
45.4786
60.3033
58.9313
59.0956
57.2698
56.8048
55.1916
54.3803
52.9564
52.1088
50.9277
50.3308
49.3448
49.0757
48.4184
48.6208
48.0683
48.4804
48.1963
48.5454
48.7584
)
;

boundaryField
{
    outletWallLeft
    {
        type            fixedValue;
        value           uniform 0;
    }
    fineWallsLeft
    {
        type            zeroGradient;
    }
    fineFrontAndBackLeft
    {
        type            zeroGradient;
    }
    fineplugLeft
    {
        type            cyclicAMI;
        value           nonuniform List<scalar> 
20
(
59.8513
63.6773
59.0358
57.3973
57.4562
56.0916
55.8168
54.5942
54.3001
53.2626
53.3547
55.3184
51.8088
50.8946
51.2666
50.5294
50.9517
50.543
50.5154
50.8971
)
;
    }
    symmetryWallLeft
    {
        type            cyclicAMI;
        value           nonuniform List<scalar> 
20
(
0.221806
-1.94042
-0.740662
0.232246
-5.59978
-5.2608
-7.89014
-3.50456
5.39338
8.27604
7.50171
7.07504
6.40459
6.17072
5.21122
5.79827
3.89652
6.33989
0.869103
5.9249
)
;
    }
    inletOutletLeft
    {
        type            cyclicAMI;
        value           nonuniform List<scalar> 
20
(
50.8971
50.5154
50.543
50.9517
50.5294
51.2666
50.8946
51.8088
55.3184
53.3547
53.2626
54.3001
54.5942
55.8168
56.0916
57.4562
57.3973
59.0358
63.6773
59.8513
)
;
    }
    inletLeft
    {
        type            zeroGradient;
    }
    inletWallsLeft
    {
        type            zeroGradient;
    }
    inletFacesLeft
    {
        type            zeroGradient;
    }
    fineWallsRight
    {
        type            zeroGradient;
    }
    outletWallRight
    {
        type            zeroGradient;
    }
    fineplugRight
    {
        type            cyclicAMI;
        value           nonuniform List<scalar> 
20
(
40.6829
40.1217
40.0493
40.0693
39.6338
39.9474
39.6128
39.9738
41.9633
39.9782
39.7756
40.5293
40.7869
41.7096
42.0347
43.1427
43.1868
44.7884
49.051
45.3003
)
;
    }
    fineFrontAndBackRight
    {
        type            zeroGradient;
    }
    symmetryWallRight
    {
        type            cyclicAMI;
        value           nonuniform List<scalar> 
20
(
0.221806
-1.94042
-0.740662
0.232246
-5.59978
-5.2608
-7.89014
-3.50456
5.39338
8.27604
7.50171
7.07504
6.40459
6.17072
5.21122
5.79827
3.89652
6.33989
0.869103
5.9249
)
;
    }
    inletOutletRight
    {
        type            cyclicAMI;
        value           nonuniform List<scalar> 
20
(
40.6829
40.1217
40.0493
40.0693
39.6338
39.9474
39.6128
39.9738
41.9633
39.9782
39.7756
40.5293
40.7869
41.7096
42.0347
43.1427
43.1868
44.7884
49.051
45.3003
)
;
    }
    inletRight
    {
        type            zeroGradient;
    }
    inletWallsRight
    {
        type            zeroGradient;
    }
    inletFacesRight
    {
        type            zeroGradient;
    }
}


// ************************************************************************* //
