/*--------------------------------*- C++ -*----------------------------------*\
| =========                 |                                                 |
| \\      /  F ield         | OpenFOAM: The Open Source CFD Toolbox           |
|  \\    /   O peration     | Version:  4.1                                   |
|   \\  /    A nd           | Web:      www.OpenFOAM.org                      |
|    \\/     M anipulation  |                                                 |
\*---------------------------------------------------------------------------*/
FoamFile
{
    version     2.0;
    format      ascii;
    class       surfaceScalarField;
    location    "2";
    object      phi;
}
// * * * * * * * * * * * * * * * * * * * * * * * * * * * * * * * * * * * * * //

dimensions      [0 3 -1 0 0 0 0];

internalField   nonuniform List<scalar> 
3120
(
6523.69
16.3357
6523.69
6330.5
193.186
6330.5
6181.86
148.645
5996.61
185.243
5996.61
5921.46
75.152
5944.55
-23.088
5944.55
6130.88
-186.34
6130.88
6398.46
-267.573
6731.4
-332.941
6731.39
7102.27
-370.879
7102.27
7550.71
-448.439
7386.68
164.026
7386.68
8278.18
9625.21
-332.999
10579.1
11479.6
12402.2
13310
14237.3
15169.8
16120.9
17086.9
18063.9
12159.6
6891.36
13165.7
14190
15192.4
16220.4
17211.7
18250.6
19199.6
20328.3
11228.8
9099.49
11228.8
11228.8
4127.03
7101.78
4127.03
4127.03
4127.03
654.355
3472.67
654.333
654.324
-321.865
976.169
-321.905
-321.949
-321.971
-574.516
252.526
-574.544
-574.575
-574.6
-134.276
-440.367
-395.019
622.967
-320.665
7612.07
-450.147
3216.29
-538.998
4617.32
-671.127
3557.07
-807.038
3811.26
-981.263
3547.17
-1208.03
3466.8
-1427.64
3083.88
-1207.41
2103.75
-27.9344
-121.898
1025.7
-1776.47
717.769
-2428.35
-1173.67
-2917.02
-3015.93
-3120.97
-2638.68
-1829.93
-933.463
-310.715
-75.9333
-2685.73
-2213.73
-1043
1065.1
-371.236
6940.31
-515.69
3360.74
-531.393
4633.02
-660.906
3686.59
-783.862
3934.22
-947.243
3710.56
-1156.56
3676.11
-1339.43
3266.75
-1072.88
1837.21
-259.701
-935.081
323.63
-2359.8
-367.615
-1737.11
-2496.89
-787.746
-3866.81
-1751.04
-3611.34
-2085.41
-2592.11
-1329.95
-1633
-3644.84
-3594.21
-1077.29
1630.66
-387.53
6250.55
-547.795
3521.01
-523.186
4608.41
-651.249
3814.65
-763.019
4045.99
-918.406
3865.94
-1112.64
3870.35
-1297.08
3451.19
-1192.34
1732.46
-745.184
-1382.23
-364.736
-2740.25
-1144.26
-957.583
-3140.15
1208.15
-4579.4
-311.795
-5225.04
-1439.77
-5112.42
-1442.56
-3976.1
-4781.16
-6594.14
-992.74
2183.11
-394.5
5652.31
-558.46
3684.97
-514.998
4564.95
-641.549
3941.2
-743.716
4148.15
-892.392
4014.62
-1075.66
4053.62
-1292.09
3667.61
-1395.5
1835.87
-1268.29
-1509.44
-1054.15
-2954.39
-1517.18
-494.561
-3263.19
2954.16
-5500.38
1925.4
-7480.51
540.359
-8325.01
-598.066
-7258.82
-5847.35
-10380.3
-915.793
2716.36
-391.613
5128.13
-557.722
3851.08
-507.144
4514.37
-631.561
4065.62
-725.398
4241.99
-867.932
4157.15
-1042.86
4228.55
-1305.01
3929.76
-1653.98
2184.84
-1907.57
-1255.85
-1886.56
-2975.41
-1879.11
-502.007
-3039.63
4114.68
-5905.26
4791.03
-9220.87
3855.96
-10690.7
871.766
-9907.56
-6630.49
-13186.1
-852.433
3235.97
-380.784
4656.48
-550.029
4020.32
-499.679
4464.02
-621.147
4187.09
-707.713
4328.55
-844.264
4293.7
-1010.47
4394.76
-1315.03
4234.32
-1939.97
2809.77
-2672.31
-523.502
-2992.21
-2655.51
-2671.18
-823.035
-3012.53
4456.03
-5445.52
7224.01
-8544
6954.44
-8920.73
1248.5
-8250.47
-7300.74
-12337.1
-794.991
3741.8
-367.973
4229.46
-538.867
4191.22
-492.529
4417.68
-610.263
4304.82
-690.418
4408.71
-821.056
4424.34
-975.795
4549.5
-1294.04
4552.57
-2144.51
3660.24
-3466.45
798.436
-4398.8
-1723.16
-4214.69
-1007.15
-3884.35
4125.7
-5062.05
8401.7
-5997.38
7889.78
-3476.47
-1272.41
-2091.64
-8685.57
-7537.35
-741.117
4232.67
-356.502
3844.85
-526.54
4361.26
-485.424
4376.56
-598.946
4418.34
-673.321
4483.08
-798.338
4549.36
-939.519
4690.68
-1224.98
4838.03
-2124.05
4559.31
-3983.24
2657.63
-5845.29
138.89
-6610.33
-242.107
-6336.28
3851.64
-5926.98
7992.41
-4196.66
6159.45
-1101.18
-4367.9
708.693
-10495.4
-7161.66
-689.081
4706.84
-345.534
3501.3
-514.258
4529.98
-477.953
4340.26
-587.223
4527.61
-656.192
4552.05
-775.913
4669.08
-905.826
4820.59
-1131.89
5064.09
-1832.99
5260.41
-3657.6
4482.23
-6135.23
2616.52
-7946.79
1569.46
-8171.64
4076.49
-6463.66
6284.43
-2534.71
2230.5
21.4333
-6924.04
-100.202
-10373.8
-7097.83
-636.783
5160.81
-332.349
3196.87
-502.579
4700.21
-469.859
4307.54
-575.185
4632.94
-638.951
4615.82
-753.266
4783.39
-874.902
4942.23
-1051.06
5240.25
-1483.85
5693.21
-2761.3
5759.67
-4976.51
4831.73
-7078.2
3671.15
-7472.8
4471.09
-4937.3
3748.92
-1044.07
-1662.73
397.272
-8365.38
193.035
-10169.6
-7353.24
-584.006
5592.16
-315.761
2928.62
-491.604
4876.05
-461.025
4276.96
-562.759
4734.68
-621.441
4674.5
-729.871
4891.82
-844.294
5056.65
-989.955
5385.91
-1228.7
5931.95
-1933.69
6464.66
-3445.54
6343.59
-5135.31
5360.92
-5171.6
4507.39
-2270.24
847.557
225.355
-4158.32
405.526
-8545.55
247.595
-10011.6
-7476.52
-532.251
5998.69
-296.831
2693.2
-481.253
5060.47
-451.868
4247.57
-550.209
4833.02
-604.008
4728.3
-706.136
4993.95
-812.961
5163.48
-941.048
5514
-1075.98
6066.88
-1382.62
6771.3
-2176.27
7137.24
-3229.16
6413.81
-2970.77
4248.99
-874.998
-1248.22
480.985
-5514.31
511.698
-8576.27
338.292
-9838.23
-7471.17
-487.094
6388.55
-279.563
2485.67
-471.762
5252.67
-442.309
4218.12
-536.967
4927.67
-585.973
4777.31
-681.463
5089.44
-779.849
5261.86
-895.529
5629.68
-984.361
6155.71
-1079.37
6866.31
-1352.63
7410.5
-1830.71
6891.89
-1441.53
3859.81
-99.2324
-2590.52
607.052
-6220.59
604.156
-8573.37
381.69
-9615.76
-7357.05
-444.672
6756.42
-263.748
2304.75
-462.928
5451.85
-433.961
4189.16
-524.486
5018.2
-569.208
4822.03
-658.214
5178.45
-748.19
5351.84
-853.191
5734.68
-922.881
6225.4
-929.176
6872.61
-909.743
7391.07
-966.812
6948.96
-527.515
3420.52
305.854
-3423.89
689.854
-6604.59
650.395
-8533.91
342.678
-9308.05
-7200.71
-430.099
7146.46
-262.228
2136.87
-456.234
5645.86
-423.793
4156.71
-508.772
5103.18
-548.709
4861.96
-630.883
5260.62
-712.079
5433.04
-806.719
5829.32
-867.975
6286.66
-849.829
6854.46
-713.106
7254.34
-525.334
6761.19
-22.1003
2917.28
520.383
-3966.37
736.934
-6821.14
644.635
-8441.61
242.071
-8905.48
-6981.73
-386.021
7489.21
-252.201
2003.05
-452.135
5845.79
-423.671
4128.25
-502.88
5182.39
-540.382
4899.47
-617.083
5337.32
-691.894
5507.85
-778.11
5915.53
-833.898
6342.44
-811.574
6832.14
-640.275
7083.04
-325.995
6446.91
208.291
2382.99
618.557
-4376.64
763.916
-6966.5
560.059
-8237.75
95.9396
-8441.36
-6810.64
-470.581
8007.88
-298.967
1831.44
-434.581
5981.41
-388.743
4082.41
-456.596
5250.24
-485.55
4928.42
-552.947
5404.72
-616.856
5571.75
-693.185
5991.86
-748.128
6397.39
-745.698
6829.71
-614.83
6952.17
-307.875
6139.96
259.994
1815.13
654.924
-4771.57
728.825
-7040.4
395.211
-7904.14
-47.6192
-7998.53
-6673.01
-385.235
8309.51
-315.51
1761.72
-530.567
6196.46
-514.002
4065.85
-586.853
5323.09
-628.817
4970.38
-703.388
5479.29
-775.89
5644.26
-855.045
6071.02
-907.009
6449.35
-889.249
6811.95
-719.761
6782.69
-311.111
5731.31
364.056
1139.96
712.674
-5120.18
593.805
-6921.53
209.767
-7520.1
-110.499
-7678.26
-6634.87
-360.328
8981.88
-174.004
1575.39
1.43046
6021.03
97.5951
3969.68
105.888
5314.8
129.97
4946.3
122.418
5486.84
116.861
5649.81
84.3753
6103.51
28.1049
6505.62
-68.9144
6908.97
-190.744
6904.52
-227.857
5768.42
449.483
462.618
639.36
-5310.06
359.584
-6641.76
76.6101
-7237.13
-129.103
-7472.55
-6570.78
-3435.81
-2179.6
-2866.28
-2812.15
-3155.65
-3369.1
-3668.45
-3915.64
-4087.49
-4051.32
-3648.85
-2664.58
-870.863
327.059
253.846
85.9622
16.1384
-41.0748
123.795
-1015.29
171.876
-1062.12
222.256
-1004.3
261.969
-940.141
313.667
-974.292
353.353
-947.536
392.177
-966.106
412.117
-952.488
419.672
-958.661
410.441
-956.726
387.688
-954.21
361.225
-960.671
303.992
-948.785
251.176
-971.578
196.86
-948.021
152.843
-983.964
106.829
-945.361
71.0428
-1003.12
25.0282
-902.943
-1103.68
52.0893
-1067.38
35.6911
-1045.72
29.4641
-998.077
25.8761
-936.554
26.5683
-974.985
25.1995
-946.167
26.8298
-967.737
28.5547
-954.213
32.2194
-962.326
35.8533
-960.361
39.6526
-958.009
45.7628
-966.781
50.369
-953.391
51.7091
-972.918
50.5675
-946.879
46.6699
-980.066
42.248
-940.94
34.4516
-995.323
29.8756
-898.368
-1073.8
28.5367
-1095.92
41.0064
-1058.19
52.3909
-1009.46
59.943
-944.106
63.8394
-978.881
68.8396
-951.168
70.0037
-968.901
71.4178
-955.627
70.2668
-961.175
68.5353
-958.629
65.9349
-955.409
61.031
-961.877
57.3354
-949.696
51.3669
-966.95
48.0114
-943.524
40.8191
-972.874
37.5919
-937.713
28.9356
-986.667
27.3724
-896.804
-1046.43
20.5037
-1116.42
34.593
-1072.28
39.871
-1014.74
43.5035
-947.738
47.4452
-982.823
50.663
-954.385
53.2414
-971.479
55.1393
-957.525
56.319
-962.355
56.5501
-958.86
56.5877
-955.446
55.0462
-960.336
54.3354
-948.985
50.5176
-963.132
49.2171
-942.224
43.1914
-966.848
41.3805
-935.902
33.0041
-978.29
34.4482
-898.248
-1011.98
19.5704
-1135.99
27.5458
-1080.26
34.615
-1021.81
41.9763
-955.1
49.1517
-989.998
53.7903
-959.024
57.7967
-975.486
59.7709
-959.499
61.1434
-963.728
60.8232
-958.54
60.6003
-955.224
58.2309
-957.966
57.2267
-947.981
52.8623
-958.768
51.6409
-941.002
45.2401
-960.448
43.8563
-934.518
35.5611
-969.995
39.897
-902.584
-972.083
18.4265
-1154.42
6.23466
-1068.06
11.9549
-1027.53
23.3055
-966.45
33.703
-1000.4
40.5321
-965.853
47.2
-982.154
50.3427
-962.642
53.4713
-966.856
53.9057
-958.975
54.7659
-956.084
53.1065
-956.307
52.9369
-947.811
49.3361
-955.167
48.8551
-940.521
43.2829
-954.876
43.3212
-934.556
37.5092
-964.183
46.8551
-911.93
-925.228
4.21093
-1158.63
-23.4977
-1040.35
-19.7639
-1031.26
-5.58471
-980.629
2.89929
-1008.88
11.3318
-974.286
17.3633
-988.185
21.1007
-966.379
24.3993
-970.155
25.3567
-959.932
27.0697
-957.797
26.4838
-955.721
27.9253
-949.253
26.1467
-953.388
27.9391
-942.314
25.2102
-952.147
30.3144
-939.66
32.3304
-966.199
52.1535
-931.753
-873.074
-28.6774
-1129.95
-49.7327
-1019.3
-50.2541
-1030.74
-37.6188
-993.265
-35.7805
-1010.72
-28.2208
-981.845
-26.7415
-989.665
-23.5486
-969.572
-22.3248
-971.379
-21.2244
-961.032
-19.412
-959.609
-18.7568
-956.376
-15.3984
-952.611
-14.7382
-954.049
-9.50869
-947.543
-7.60435
-954.051
6.37991
-953.645
21.5184
-981.338
55.7451
-965.98
-817.329
-61.5906
-1068.36
-62.7267
-1018.16
-69.572
-1023.9
-63.3545
-999.482
-68.723
-1005.35
-65.3082
-985.26
-69.1028
-985.87
-67.7223
-970.952
-69.0924
-970.008
-67.9966
-962.128
-66.402
-961.204
-64.2321
-958.546
-59.2507
-957.593
-55.6766
-957.623
-47.1739
-956.046
-39.6035
-961.621
-16.7086
-976.54
12.1751
-1010.22
57.8979
-1011.7
-759.431
-75.3507
-993.013
-62.7231
-1030.79
-74.8762
-1011.74
-76.2774
-998.081
-85.5336
-996.093
-86.8525
-983.941
-92.6672
-980.055
-92.7539
-970.866
-94.3544
-968.408
-92.4549
-964.028
-89.8738
-963.785
-85.4925
-962.927
-78.7899
-964.295
-71.8188
-964.594
-60.8021
-967.063
-48.3381
-974.085
-22.3616
-1002.52
13.0953
-1045.68
58.5618
-1057.17
-700.87
-70.0909
-922.922
-56.2327
-1044.65
-68.6107
-999.365
-74.0231
-992.669
-82.1726
-987.944
-84.8416
-981.272
-88.2367
-976.66
-87.1298
-971.973
-85.7015
-969.836
-81.3009
-968.428
-76.0078
-969.078
-68.8797
-970.056
-60.2914
-972.884
-50.4343
-974.451
-38.3112
-979.186
-24.5455
-987.851
-5.38732
-1021.67
23.3201
-1074.39
54.0757
-1087.92
-646.794
-51.9733
-870.949
-46.0576
-1050.57
-53.4254
-991.997
-58.0354
-988.059
-61.4435
-984.535
-61.7232
-980.993
-60.254
-978.129
-56.0091
-976.217
-50.5042
-975.341
-43.3456
-975.587
-35.6362
-976.788
-27.0211
-978.671
-18.195
-981.71
-8.26232
-984.384
1.75957
-989.208
11.6435
-997.735
16.2454
-1026.28
25.646
-1083.79
35.1633
-1097.44
-611.631
-27.2392
-843.71
-30.0419
-1047.76
-32.1515
-989.888
-34.407
-985.803
-33.9679
-984.975
-31.9056
-983.055
-27.6811
-982.354
-22.1886
-981.71
-15.6786
-981.851
-8.80203
-982.463
-2.07651
-983.513
4.45765
-985.205
10.0779
-987.33
15.8047
-990.11
20.072
-993.475
22.2121
-999.875
12.407
-1016.47
-1.0887
-1070.29
-6.0084
-1092.52
-617.639
-3.78509
-839.925
-10.1202
-1041.43
-11.0458
-988.962
-12.6751
-984.174
-12.4285
-985.221
-11.1712
-984.312
-8.74869
-984.776
-5.87695
-984.582
-2.7145
-985.013
0.20545
-985.383
2.60334
-985.911
4.27211
-986.873
4.76271
-987.821
4.32818
-989.676
2.17249
-991.319
-3.19414
-994.509
-19.8923
-999.773
-50.6339
-1039.55
-59.2479
-1083.91
-676.887
13.3711
-853.296
5.73142
-1033.79
2.96141
-986.192
0.543703
-981.756
-1.56062
-983.117
-2.90755
-982.965
-4.13303
-983.551
-5.10921
-983.605
-6.20371
-983.919
-7.48592
-984.101
-9.11675
-984.28
-11.3535
-984.637
-14.2807
-984.893
-18.4027
-985.554
-23.6127
-986.109
-31.5016
-986.62
-45.2227
-986.052
-79.7637
-1005.01
-94.5485
-1069.12
-771.435
24.2032
-877.499
12.9976
-1022.58
8.75917
-981.954
6.07408
-979.071
2.92378
-979.967
0.145497
-980.187
-2.84617
-980.559
-5.6578
-980.794
-8.5609
-981.016
-11.4474
-981.214
-14.3615
-981.366
-17.4849
-981.513
-20.7259
-981.652
-24.5864
-981.693
-28.7478
-981.948
-33.8945
-981.473
-39.3464
-980.6
-60.6749
-983.679
-89.2028
-1040.6
-860.638
27.5941
-905.093
13.7156
-1008.7
10.1228
-978.361
8.08857
-977.037
5.67061
-977.549
3.24966
-977.766
0.704573
-978.014
-1.81364
-978.276
-4.33267
-978.497
-6.80966
-978.737
-9.2096
-978.966
-11.5696
-979.153
-13.8315
-979.39
-16.0743
-979.45
-18.255
-979.767
-20.1988
-979.529
-20.7557
-980.043
-25.3494
-979.086
-55.8966
-1010.05
-916.535
25.0068
-930.1
12.2213
-995.918
10.287
-976.426
9.05124
-975.801
7.63475
-976.132
6.12092
-976.252
4.54505
-976.438
2.89562
-976.626
1.22345
-976.825
-0.480056
-977.034
-2.18516
-977.261
-3.85602
-977.482
-5.50614
-977.74
-7.00261
-977.954
-8.49189
-978.278
-9.59867
-978.422
-10.5007
-979.141
-10.265
-979.321
-27.2371
-993.077
-943.772
22.3757
-952.476
11.5515
-985.094
10.5298
-975.405
9.8392
-975.11
8.97379
-975.267
8.05084
-975.329
7.03869
-975.426
5.93475
-975.522
4.74681
-975.637
3.47286
-975.76
2.1136
-975.902
0.692702
-976.061
-0.806412
-976.241
-2.31076
-976.45
-3.90187
-976.687
-5.38884
-976.935
-7.21415
-977.315
-8.87989
-977.656
-17.0219
-984.935
-960.794
22.5245
12.4309
12.0262
11.916
11.6492
11.3202
10.894
10.3719
9.73522
8.97521
8.07354
7.0121
5.77088
4.32125
2.63468
0.699251
-1.61622
-4.27179
-14.2064
-134.606
520.218
-654.843
520.202
520.183
520.177
852.196
-332.027
852.188
852.18
852.178
351.419
500.753
351.409
351.404
-1832.31
2183.71
-1832.31
-1832.31
-1832.31
-8347.5
6515.19
-8347.5
-8347.5
-18407.3
10059.8
-17357
-16412.7
-15396.6
-14416.2
-13408.5
-12419.2
-11412
-10416
-18090.5
8661.85
-17110.8
-16139.4
-15182.2
-14240.5
-13308.3
-12392.8
-11472.8
-10558.9
-9562.59
-8117.46
-354.634
-7214.5
-7214.5
-7899.74
685.241
-7862.58
-37.1653
-7862.58
-7810.26
-52.3193
-7810.26
-7665.15
-145.106
-7203.71
-461.446
-7203.71
-6399.55
-804.155
-6399.55
-5177.73
-1221.82
-3712.63
-1465.09
-3712.63
-2067.13
-1645.51
-660.623
-1406.5
-660.622
321.423
-982.044
321.426
321.426
237.489
-237.489
57.6998
179.789
-189.953
247.652
-577.018
387.066
-842.577
265.558
-1011.7
169.124
-1018.21
6.50729
-886.032
-132.177
-624.343
-261.69
-235.254
-389.09
252.348
-487.603
727.444
-475.098
1169.26
-441.817
1742.73
-573.473
2723.09
-980.36
3541.62
-818.53
3209.49
332.138
1337.91
1871.57
1659.34
-72.0956
-165.395
-484.103
591.796
-885.231
648.78
-1172.05
673.889
-1294.17
387.673
-1293.05
168.01
-1216.25
-70.299
-1106.55
-241.877
-915.406
-452.835
-607.16
-697.337
-164.872
-929.893
358.355
-998.326
843.445
-926.908
1436.27
-1166.3
2418.56
-1962.66
3319.58
-1719.55
3584.94
66.7781
2549.97
2906.55
3227.27
-421.856
256.462
-833.858
1003.8
-1106.14
921.062
-1248.45
816.195
-1280.06
419.286
-1276.18
164.132
-1231.13
-115.351
-1146.53
-326.474
-990.368
-609.001
-743.961
-943.744
-377.829
-1296.02
92.6818
-1468.84
560.447
-1394.67
1153.62
-1759.47
2126.91
-2935.95
3026.82
-2619.46
3279.52
-185.916
2705.96
3480.1
4526.72
-552.435
808.896
-896.081
1347.44
-1061.36
1086.35
-1176.8
931.627
-1238.18
480.666
-1281.81
207.766
-1256.23
-140.933
-1184.2
-398.5
-1055.59
-737.616
-849.333
-1150
-534.598
-1610.76
-118.929
-1884.51
309.246
-1822.85
875.203
-2325.43
1793.04
-3853.78
2764.89
-3591.31
3003.51
-424.537
2499.09
3984.52
5380.31
-536.126
1345.02
-816.366
1627.68
-946.377
1216.36
-1101.09
1086.34
-1215.73
595.307
-1295.66
287.696
-1284.07
-152.521
-1224.96
-457.609
-1117.96
-844.618
-941.195
-1326.77
-664.987
-1886.97
-306.846
-2242.65
38.8024
-2168.5
484.689
-2771.31
1238.37
-4607.46
2267.14
-4620.09
2647.31
-804.711
2199.49
4432.34
6114.71
-457.264
1802.29
-701.827
1872.25
-836.03
1350.56
-1037.49
1287.79
-1196.69
754.512
-1310.45
401.455
-1317.79
-145.185
-1271.38
-504.013
-1181.86
-934.144
-1029.16
-1479.47
-789.866
-2126.26
-517.992
-2514.52
-347.85
-2338.64
-191.949
-2927.22
267.221
-5066.63
1365.97
-5718.84
2096.21
-1534.95
1814.83
4713.73
6707.72
-363.934
2166.22
-597.117
2105.43
-745.603
1499.05
-979.94
1522.13
-1172.44
947.013
-1322.95
551.964
-1356.21
-111.925
-1323
-537.221
-1248.7
-1008.44
-1122.03
-1606.14
-941.213
-2307.08
-830.177
-2625.56
-985.745
-2183.07
-1262.91
-2650.06
-1095.24
-5234.29
172.74
-6986.82
1385.87
-2748.08
1384.32
4715.28
7287.88
-277.116
2443.34
-513.495
2341.81
-673.244
1658.8
-924.734
1773.62
-1140.45
1162.73
-1330.18
741.697
-1397.03
-45.0744
-1379.65
-554.604
-1324.1
-1064
-1244.39
-1685.85
-1190.03
-2361.44
-1384.76
-2430.83
-2035.51
-1532.32
-2787.02
-1898.55
-2756.89
-5264.41
-1275.51
-8468.2
550.605
-4574.2
963.316
4302.57
7789.75
-203.811
2647.15
-449.628
2587.62
-613.971
1823.14
-871.055
2030.7
-1100.48
1392.15
-1328.19
969.403
-1436.91
63.6495
-1445.14
-546.374
-1427.86
-1081.28
-1452.01
-1661.7
-1651.85
-2161.6
-2330.75
-1751.93
-3574.42
-288.654
-4762.73
-710.241
-4818.68
-5208.46
-3019.9
-10267
-359.244
-7234.85
564.931
3378.4
8209.58
-144.357
2791.5
-401.196
2844.46
-563.32
1985.26
-819.347
2286.73
-1053.75
1626.56
-1314.99
1230.65
-1476.52
225.176
-1534.89
-488.003
-1602.96
-1013.21
-1828.49
-1436.17
-2427
-1563.09
-3660.74
-518.195
-5422.8
1473.41
-6926.01
792.968
-7013.86
-5120.62
-4942.39
-12338.4
-1161.76
-11015.5
484.075
1732.57
8641.34
-95.8881
2887.39
-364.359
3112.93
-518.506
2139.41
-770.639
2538.86
-1002.56
1858.47
-1291.36
1519.45
-1523.6
457.418
-1679.31
-332.296
-1905.15
-787.372
-2422.77
-918.545
-3426.15
-559.708
-4994.64
1050.29
-6972.41
3451.19
-8454.52
2275.08
-8333.85
-5241.29
-6400.94
-14271.4
-2267.13
-15149.3
180.2
-714.765
8784.37
-54.2195
2941.61
-336.556
3395.27
-478.453
2281.31
-726.063
2786.47
-949.523
2081.93
-1258.44
1828.37
-1585.31
784.296
-1900.82
-16.7913
-2334.6
-353.588
-3095.86
-157.289
-4255.76
600.192
-5826.22
2620.75
-7537.55
5162.52
-8103.89
2841.41
-7294.18
-6051
-6418.74
-15146.8
-4514.67
-17053.4
-1631.41
-3598.02
7838.2
-14.5458
2956.16
-316.171
3696.9
-443.167
2408.3
-686.504
3029.81
-897.073
2292.5
-1213.4
2144.69
-1634.74
1205.64
-2125.33
473.798
-2690.69
211.77
-3463.62
615.641
-4522.88
1659.45
-5809.49
3907.36
-6598.82
5951.85
-5366.63
1609.22
-3811.75
-7605.89
-4746.4
-14212.1
-6015.46
-15784.3
-2299.75
-7313.74
5183.82
26.8456
2929.31
-300.986
4024.73
-413.036
2520.35
-652.551
3269.33
-848.143
2488.09
-1150.27
2446.81
-1594.41
1649.79
-2142.64
1022.02
-2700.09
769.227
-3347.07
1262.61
-4179.21
2491.6
-4974.06
4702.2
-4599.78
5577.57
-2228.77
-761.787
-660.31
-9174.35
-2832.23
-12040.2
-7206.45
-11410.1
-8069.5
-6450.69
5776.17
73.8644
2855.45
-289.634
4388.23
-388.414
2619.13
-624.223
3505.13
-805.348
2669.22
-1078.55
2720.02
-1488.24
2059.47
-2004.76
1538.55
-2504.51
1268.97
-2996.71
1754.81
-3508.51
3003.4
-3715.98
4909.67
-2274.83
4136.43
-143.162
-2893.46
544.727
-9862.24
-1961.55
-9533.95
-7788.87
-5582.76
-11300.6
-2939.01
4535.4
129.384
2726.06
-282.36
4799.97
-369.852
2706.62
-601.001
3736.28
-769.552
2837.77
-1010.11
2960.58
-1364.52
2413.88
-1819.65
1993.68
-2246.69
1696.01
-2583.57
2091.69
-2771.36
3191.2
-2462.06
4600.37
-511.287
2185.65
1143.64
-4548.39
1111.27
-9829.87
-1226.45
-7196.23
-6016.5
-792.711
-8732.94
-222.57
2317.65
202.416
2523.65
-278.269
5280.65
-358.128
2786.48
-582.256
3960.41
-740.413
2995.92
-951.387
3171.55
-1250.52
2713.01
-1639.4
2382.56
-1996.44
2053.06
-2196.69
2291.94
-2088.87
3083.38
-1339.8
3851.29
495.356
350.491
1676.25
-5729.28
1334.09
-9487.71
-823.632
-5038.51
-3734.54
2118.2
-4420.42
463.299
80.9418
299.688
2223.96
-277.303
5857.65
-354.664
2863.85
-567.269
4173.02
-716.979
3145.63
-903.553
3358.12
-1155.98
2965.44
-1485.02
2711.6
-1786.04
2354.08
-1880.34
2386.23
-1500.5
2703.55
-169.782
2520.57
1343.06
-1162.35
1839.97
-6226.2
1034.6
-8682.34
-665.764
-3338.15
-1874.89
3327.33
-1557.19
145.581
-975.501
420.873
1803.09
-291.226
6569.75
-364.076
2936.7
-555.656
4364.6
-698.258
3288.24
-865.067
3524.93
-1081.61
3181.98
-1362.53
2992.52
-1627.31
2618.86
-1646.46
2405.38
-1017.25
2074.33
672.266
831.058
1822.74
-2312.82
1533.86
-5937.32
-79.5487
-7068.94
-1391.89
-2025.81
-1035.82
2971.26
-149.3
-740.946
-1456.84
884.191
-232.491
-382.602
-546.47
-683.179
-833.597
-1024.56
-1272.08
-1517.48
-1436.08
-419.336
1134.56
1558.01
429.146
-1676.57
-2249.71
-672.958
414.272
-682.138
1657.14
-1111.95
1404.81
-1550.22
1413.27
-1904.71
1329.49
-2220.53
1290.82
-2486.67
1241.14
-2711.1
1199.43
-2893.45
1157.35
-3035.11
1116.66
-3136.02
1075.91
-3196.24
1035.22
-3216.31
995.071
-3196.23
954.923
-3128.58
907.35
-2985.21
831.628
-2712.87
702.66
-2262.26
524.393
-1632.87
345.611
-865.587
207.714
109.413
-215.651
1872.79
-472.412
1661.57
-746.397
1687.26
-975.994
1559.09
-1195.31
1510.14
-1380.41
1426.24
-1541.54
1360.56
-1673.47
1289.27
-1778.76
1221.96
-1856.7
1153.84
-1908.82
1087.34
-1937.23
1023.48
-1944.57
962.265
-1926.01
888.783
-1855.82
761.446
-1682.33
529.17
-1368.8
210.856
-935.242
-87.9429
-477.091
-250.437
-367.679
-127.135
1999.92
-293.759
1828.19
-414.261
1807.76
-489.654
1634.48
-554.771
1575.26
-584.895
1456.36
-598.963
1374.63
-589.32
1279.63
-561.396
1194.04
-513.777
1106.22
-447.194
1020.76
-360.433
936.72
-254.034
855.866
-134.996
769.746
-26.2656
652.715
35.761
467.143
28.8481
217.769
10.1424
-69.2371
-50.1903
-190.104
-417.869
73.7165
1926.21
15.725
1886.18
19.9434
1803.54
42.7881
1611.64
67.7906
1550.25
107.399
1416.75
151.991
1330.04
206.062
1225.56
267.118
1132.98
334.959
1038.38
409.362
946.357
491.044
855.038
581.12
765.79
674.46
676.406
745.857
581.318
744.568
468.432
623.598
338.739
358.703
195.658
147.225
21.3737
-270.644
162.156
1764.05
132.772
1915.57
158.195
1778.12
195.579
1574.25
244.39
1501.44
290.164
1370.98
339.036
1281.17
385.55
1179.04
431.098
1087.43
472.098
997.383
507.137
911.318
533.911
828.265
551.249
748.452
556.924
670.73
544.089
594.154
498.625
513.896
409.387
427.977
283.757
321.287
135.228
169.904
-135.416
158.291
1605.76
186.301
1887.56
229.008
1735.41
279.271
1523.99
349.934
1430.78
411.243
1309.67
473.88
1218.53
527.778
1125.15
574.453
1040.76
609.835
962.001
631.903
889.25
638.026
822.142
626.272
760.206
595.18
701.823
544.099
645.234
472.292
585.703
379.925
520.344
266.616
434.596
122.327
314.193
-13.089
91.4619
1514.3
192.123
1786.9
275.94
1651.59
351.158
1448.77
441.028
1340.91
519.505
1231.19
592.656
1145.38
652.125
1065.68
697.817
995.067
727.531
932.287
740.231
876.55
734.984
827.39
711.065
784.125
667.965
744.923
605.748
707.451
524.846
666.606
426.429
618.761
308.606
552.418
160.555
462.244
147.466
9.68136
1504.62
154.048
1642.53
273.457
1532.18
369.772
1352.46
461.417
1249.27
539.592
1153.02
605.458
1079.51
655.346
1015.79
688.769
961.644
705.649
915.407
706.418
875.78
691.682
842.125
661.976
813.831
617.77
789.129
559.252
765.969
486.112
739.746
397.827
707.046
290.711
659.534
160.82
592.134
308.286
-35.8117
1540.43
81.5583
1525.16
212.265
1401.48
319.189
1245.53
400.882
1167.57
469.497
1084.4
520.759
1028.25
556.916
979.632
577.61
940.95
584.337
908.68
578.217
881.9
560.472
859.871
532.114
842.188
494.067
827.175
446.526
813.51
388.978
797.295
319.646
776.377
233.511
745.67
129.045
696.599
437.332
-6.95433
1547.38
2.38993
1515.82
109.371
1294.5
213.711
1141.19
284.567
1096.72
345.569
1023.4
385.291
988.526
412.442
952.481
426.171
927.222
429.319
905.531
422.891
888.329
408.261
874.501
386.494
863.955
358.551
855.119
324.556
847.505
284.088
837.763
234.928
825.538
172.441
808.157
93.907
775.133
531.239
65.0154
1482.37
-18.2879
1599.12
13.4481
1262.76
94.5605
1060.08
159.461
1031.82
215.055
967.806
248.753
954.828
271.399
929.834
282.85
915.771
286.526
901.855
283.202
891.653
274.166
883.537
260.495
877.627
242.81
872.804
221.401
868.913
195.656
863.508
163.844
857.35
122.305
849.696
67.0042
830.433
598.243
106.231
1376.14
37.4561
1667.89
-11.3937
1311.61
18.8583
1029.83
75.808
974.867
122.167
921.447
152.567
924.429
171.173
911.228
181.497
905.447
185.856
897.496
185.345
892.163
180.736
888.146
173.307
885.056
162.925
883.186
150.568
881.269
134.792
879.284
115.512
876.631
89.0956
876.113
53.1772
866.352
651.42
98.2392
1277.9
110.726
1655.41
59.0829
1363.25
42.8404
1046.07
77.1073
940.6
105.222
893.332
127.259
902.392
138.204
900.283
144.146
899.505
145.554
896.088
144.03
893.687
139.496
892.68
133.583
890.969
125.138
891.63
116.259
890.149
104.14
891.403
91.1713
889.599
72.342
894.942
50.8082
887.886
702.228
67.0814
1210.82
150.664
1571.82
161.841
1352.08
146.353
1061.56
153.704
933.25
158.199
888.837
163.598
896.993
162.931
900.949
160.157
902.279
154.582
901.663
147.771
900.498
138.897
901.554
129.933
899.934
118.714
902.848
108.518
900.345
95.0702
904.85
83.2673
901.402
66.0057
912.204
53.6852
900.206
755.914
40.0364
1170.78
152.578
1459.28
218.189
1286.47
232.356
1047.39
227.841
937.765
215.579
901.099
205.343
907.229
194.731
911.561
183.966
913.044
171.994
913.635
159.977
912.515
146.611
914.92
134.198
912.347
119.685
917.361
107.451
912.579
91.8403
920.461
79.8572
913.385
62.3151
929.746
55.689
906.832
811.603
27.0509
1143.73
134.747
1351.59
216.374
1204.84
248.818
1014.95
243.081
943.502
226.059
918.121
209.191
924.098
194.881
925.871
180.988
926.937
166.898
927.724
153.363
926.05
138.831
929.452
125.95
925.229
110.936
932.374
99.0863
924.429
83.5859
935.962
72.9702
924.001
56.449
946.267
54.0915
909.19
865.694
26.3969
1117.33
112.09
1265.89
180.536
1136.39
210.74
984.743
205.376
948.866
191.618
931.879
177.132
938.584
165.557
937.445
154.168
938.327
142.797
939.095
131.92
936.927
120.093
941.279
109.849
935.473
97.2012
945.022
87.7673
933.862
74.3853
949.344
66.0563
932.33
51.556
960.767
51.4082
909.338
917.102
33.3998
1083.93
98.8375
1200.46
155.25
1079.98
181.326
958.666
177.256
952.935
169.961
939.174
159.268
949.277
150.799
945.914
140.741
948.385
130.594
949.241
120.475
947.046
108.547
953.207
98.8013
945.219
86.7436
957.079
78.4077
942.198
65.9525
961.799
59.027
939.255
45.8477
973.946
45.6242
909.561
962.726
55.8001
1028.13
82.2474
1174.01
100.724
1061.5
105.248
954.143
98.3672
959.816
91.7203
945.821
85.8134
955.184
82.7001
949.028
80.3239
950.761
78.4122
951.153
76.9145
948.544
76.5245
953.597
75.5427
946.201
70.5956
962.027
66.8161
945.978
58.6687
969.946
54.1049
943.819
43.8967
984.155
44.6749
908.783
1007.4
125.179
208.688
273.923
314.126
353.983
384.247
407.259
414.53
408.116
387.864
356.744
322.935
273.214
228.031
184.677
146.902
110.388
78.3735
42.9219
)
;

boundaryField
{
    outletWallLeft
    {
        type            calculated;
        value           nonuniform List<scalar> 
40
(
690.951
600.863
511.739
440.286
382.543
332.832
289.151
250.255
214.913
182.809
152.654
125.719
97.2415
76.7958
40.0615
43.2702
-48.0841
83.5983
-312.039
477.603
-6540.03
-6595.52
-7415.34
-7167.3
-6473.87
-5236.85
-735.304
3974.7
5920.25
6506.49
6469.46
6275.36
5897
5786.19
5159.76
5658.3
3915.55
6707.71
319.183
11940.1
)
;
    }
    fineWallsLeft
    {
        type            calculated;
        value           uniform 0;
    }
    fineFrontAndBackLeft
    {
        type            calculated;
        value           nonuniform List<scalar> 
880
(
-3.26682e-15
5.1332e-15
-8.41948e-14
1.05913e-13
-1.03152e-12
-2.29619e-12
-6.25038e-13
-1.84122e-12
-1.76684e-12
-3.97005e-13
-1.31434e-12
-3.6427e-13
-1.1437e-12
-1.10749e-12
-2.2531e-13
-4.4341e-13
-3.10138e-14
1.14321e-13
1.56495e-13
1.88353e-13
1.29772e-14
3.04728e-13
-1.37558e-13
1.32181e-14
5.85585e-14
-2.33838e-13
-7.60491e-13
-1.55185e-12
-2.50178e-12
-3.37251e-12
-3.81642e-12
-5.19924e-11
-3.6083e-12
-3.18045e-12
-2.86483e-12
-2.63738e-12
-2.54026e-12
-2.50884e-12
-2.66757e-12
-2.62061e-12
-3.85624e-11
-6.02816e-12
-6.06961e-12
-3.17005e-11
-4.01544e-12
-3.56691e-12
-3.25505e-12
-8.1575e-12
3.37033e-13
-1.37694e-13
5.40053e-11
1.90309e-11
1.68011e-11
1.23259e-11
5.2199e-11
7.91701e-12
7.24369e-12
7.5654e-12
4.16901e-11
6.74855e-12
7.5019e-20
5.664e-20
5.96996e-19
-3.3607e-18
-2.08718e-17
2.81777e-18
1.49807e-16
6.03799e-16
2.4555e-15
4.06477e-15
3.22779e-14
2.77188e-13
5.61988e-13
-3.31271e-13
-3.35866e-12
1.16406e-11
4.12321e-11
2.26652e-11
3.78297e-11
2.05075e-19
-6.4656e-20
-9.84593e-19
1.54035e-18
3.29001e-17
-6.70925e-18
-7.51836e-16
-1.76633e-15
2.97684e-15
3.67508e-14
2.49522e-13
6.96716e-13
1.15782e-12
-2.72554e-12
-1.47943e-11
-2.99447e-11
-3.79894e-11
-3.12867e-11
1.2258e-11
1.81121e-19
-2.09752e-19
-1.58636e-18
6.58644e-18
5.46767e-17
-6.22545e-17
-1.13724e-15
-2.85459e-15
6.5382e-16
7.66047e-14
5.48452e-13
1.27599e-12
1.50866e-12
-6.56456e-12
-2.39489e-11
-4.32092e-11
-5.62339e-11
-5.20638e-11
-1.14933e-11
8.15506e-20
-2.79018e-19
-1.15611e-18
8.9407e-18
4.73123e-17
-8.60132e-17
-1.00877e-15
-3.98178e-15
-5.93592e-15
1.30316e-13
8.9117e-13
1.84429e-12
2.15389e-12
-5.29177e-12
-2.53433e-11
-5.35924e-11
-7.32825e-11
-7.48943e-11
-5.39787e-11
1.12414e-21
-2.34534e-19
-3.8269e-19
7.42382e-18
2.76714e-17
-3.55325e-17
-6.10637e-16
-5.88251e-15
-1.49316e-14
1.92717e-13
1.19137e-12
2.13174e-12
2.95078e-12
-1.02438e-12
-2.18583e-11
-6.43024e-11
-9.24258e-11
-8.86401e-11
-7.32226e-11
-2.62988e-20
-1.23762e-19
7.14959e-20
3.35478e-18
1.18356e-17
7.37864e-17
-1.91973e-16
-8.37365e-15
-2.39465e-14
2.46744e-13
1.35156e-12
1.78387e-12
1.88505e-12
9.10691e-13
-1.65762e-11
-5.95994e-11
-8.19992e-11
-6.21456e-11
-6.55486e-11
-1.69219e-20
-2.18703e-20
6.91648e-20
-8.16829e-19
5.33214e-18
1.85361e-16
1.0733e-16
-1.03019e-14