/*--------------------------------*- C++ -*----------------------------------*\
| =========                 |                                                 |
| \\      /  F ield         | OpenFOAM: The Open Source CFD Toolbox           |
|  \\    /   O peration     | Version:  4.1                                   |
|   \\  /    A nd           | Web:      www.OpenFOAM.org                      |
|    \\/     M anipulation  |                                                 |
\*---------------------------------------------------------------------------*/
FoamFile
{
    version     2.0;
    format      ascii;
    class       volVectorField;
    location    "2";
    object      U;
}
// * * * * * * * * * * * * * * * * * * * * * * * * * * * * * * * * * * * * * //

dimensions      [0 1 -1 0 0 0 0];

internalField   nonuniform List<vector> 
1680
(
(-8.99022e-19 3.14004 0.0835196)
(3.70963e-18 2.29128 0.104227)
(-2.31702e-17 2.27827 0.26874)
(7.65405e-17 1.86412 0.295524)
(-3.99911e-16 2.28082 0.310084)
(-6.31906e-16 2.26288 0.305818)
(-4.51699e-16 1.80813 0.203854)
(-5.06701e-16 2.11789 0.147191)
(-4.86229e-16 2.27563 -0.0309683)
(-2.86905e-16 1.71814 -0.0441074)
(-3.61702e-16 2.47066 -0.25076)
(-2.63248e-16 1.89464 -0.150522)
(-3.14745e-16 2.14542 -0.287112)
(-3.0478e-16 2.48065 -0.530305)
(-1.62825e-16 1.99251 -0.315755)
(-1.22026e-16 2.67032 -0.647882)
(-2.24129e-17 2.36748 -0.304325)
(3.14608e-17 1.80936 -0.709839)
(4.30672e-17 4.60771 0.281086)
(1.36118e-16 0.010115 -3.90596)
(5.324e-17 2.9588 4.20314)
(1.22197e-16 1.41678 0.927568)
(-5.6434e-16 3.6868 7.08003)
(5.42279e-17 4.30068 7.35705)
(2.4024e-16 4.21297 7.83045)
(-9.59335e-16 4.50187 8.30928)
(-3.11996e-15 4.5476 9.38818)
(-6.36655e-15 4.65356 10.7681)
(-1.02637e-14 4.69615 12.3205)
(-1.38359e-14 4.53787 13.7353)
(-1.56571e-14 4.73525 14.9723)
(-2.08491e-14 3.68432 16.4545)
(-1.48033e-14 5.47173 17.782)
(-1.3048e-14 5.29108 17.731)
(-1.17531e-14 5.47551 17.1913)
(-1.082e-14 5.13889 16.9697)
(-1.04216e-14 5.44008 16.2776)
(-1.02927e-14 5.14368 16.4157)
(-1.09439e-14 5.34754 15.4663)
(-1.07512e-14 5.28165 16.2624)
(-1.34247e-14 5.88696 16.0919)
(-9.68379e-15 3.94563 9.57727)
(-9.75038e-15 3.41986 8.85421)
(-1.10369e-14 2.81514 9.18744)
(-6.4505e-15 1.58639 4.96683)
(-5.72998e-15 1.42273 4.35738)
(-5.22923e-15 1.17114 3.98753)
(-2.83986e-15 0.722676 2.19568)
(5.41419e-16 0.131332 -0.12772)
(-2.21196e-16 0.305955 -0.29268)
(1.88008e-14 -0.0333538 -1.25962)
(3.05717e-14 -0.240396 -0.847868)
(2.69897e-14 -0.0940293 -0.957479)
(1.98007e-14 -0.041855 -0.728468)
(1.81607e-14 -0.241349 -0.868296)
(1.27181e-14 -0.302347 -1.45203)
(1.16364e-14 -0.183683 -1.56567)
(1.21532e-14 -0.0857634 -1.39963)
(1.45135e-14 0.0222648 -1.30069)
(1.0841e-14 -0.22017 -1.2711)
(1.66709e-23 -0.267749 2.62972)
(1.25867e-23 -2.66557 -0.357851)
(1.32666e-22 -1.04984 1.17465)
(-7.46823e-22 -1.53035 0.539231)
(-4.63818e-21 -1.1635 1.16095)
(6.26172e-22 -1.24831 1.13845)
(3.32906e-20 -1.15405 1.51785)
(1.34178e-19 -1.11905 1.76995)
(5.45667e-19 -0.994353 2.24783)
(9.03282e-19 -0.752419 2.51885)
(7.17286e-18 -0.166773 1.33943)
(6.15974e-17 0.50405 -1.23364)
(1.24886e-16 0.921069 -1.89934)
(-7.36158e-17 1.33248 -0.541565)
(-7.4637e-16 1.28278 4.34819)
(2.58681e-15 0.51589 5.83873)
(9.16269e-15 -0.179086 2.71701)
(5.0367e-15 0.786397 0.547977)
(8.40661e-15 0.661845 -0.242298)
(4.55722e-23 -0.294991 4.77507)
(-1.4368e-23 -2.4731 -0.442866)
(-2.18798e-22 -1.09508 1.42603)
(3.423e-22 -1.5467 0.503669)
(7.31113e-21 -1.20695 1.16609)
(-1.49094e-21 -1.29133 1.10181)
(-1.67075e-19 -1.20996 1.47617)
(-3.92518e-19 -1.19171 1.69889)
(6.6152e-19 -1.06097 2.14836)
(8.16685e-18 -0.652615 2.31963)
(5.54494e-17 0.247044 1.04758)
(1.54826e-16 0.721367 -0.0557731)
(2.57293e-16 0.710307 -0.766033)
(-6.05676e-16 0.60292 1.92846)
(-3.28762e-15 0.775364 6.2288)
(-6.65438e-15 0.73195 6.81631)
(-8.44209e-15 0.371113 5.03901)
(-6.9526e-15 0.988831 3.68264)
(2.72401e-15 0.839771 1.81755)
(4.02491e-23 -0.438485 4.87326)
(-4.66115e-23 -2.1751 -0.529518)
(-3.52525e-22 -1.14587 1.56307)
(1.46365e-21 -1.54195 0.468877)
(1.21504e-20 -1.24983 1.16938)
(-1.38343e-20 -1.33031 1.06799)
(-2.52721e-19 -1.26292 1.4397)
(-6.34353e-19 -1.25867 1.64014)
(1.45293e-19 -1.11921 2.06151)
(1.70233e-17 -0.583594 2.25619)
(1.21878e-16 0.408721 1.5928)
(2.83554e-16 0.876354 0.966965)
(3.35258e-16 0.433937 0.46047)
(-1.45879e-15 -0.0725856 3.31153)
(-5.32198e-15 0.386416 6.94684)
(-9.60205e-15 0.660886 8.49089)
(-1.24964e-14 0.505425 8.81677)
(-1.15697e-14 1.37108 8.23435)
(-2.55407e-15 1.62358 5.07059)
(1.81224e-23 -0.637551 4.58829)
(-6.2004e-23 -1.97283 -0.589847)
(-2.56913e-22 -1.20055 1.63001)
(1.98682e-21 -1.52911 0.438157)
(1.05138e-20 -1.29229 1.16935)
(-1.9114e-20 -1.36585 1.0367)
(-2.24171e-19 -1.31351 1.40609)
(-8.84839e-19 -1.3212 1.58797)
(-1.31909e-18 -1.18403 1.99084)
(2.89591e-17 -0.579916 2.30246)
(1.98038e-16 0.495125 2.25713)
(4.09843e-16 0.972033 2.03421)
(4.78643e-16 0.192668 1.65583)
(-1.17595e-15 -0.718412 3.35808)
(-5.63185e-15 -0.192994 7.33058)
(-1.19094e-14 0.31092 11.1584)
(-1.6285e-14 0.487348 13.7246)
(-1.66432e-14 1.79839 14.0081)
(-1.19953e-14 2.73254 10.1999)
(2.4981e-25 -0.815594 4.32677)
(-5.21187e-23 -1.79416 -0.635215)
(-8.50422e-23 -1.25544 1.65131)
(1.64974e-21 -1.51289 0.413334)
(6.1492e-21 -1.33413 1.16548)
(-7.89611e-21 -1.39838 1.00763)
(-1.35697e-19 -1.36194 1.37383)
(-1.30723e-18 -1.38069 1.53952)
(-3.31813e-18 -1.26321 1.93023)
(4.28261e-17 -0.651501 2.401)
(2.64749e-16 0.484452 3.03319)
(4.73721e-16 1.00801 3.38317)
(6.55729e-16 0.128742 3.04932)
(-2.2764e-16 -1.20102 3.20011)
(-4.8574e-15 -1.10947 6.76421)
(-1.42894e-14 -0.699122 13.0251)
(-2.05391e-14 -0.0805113 17.7139)
(-1.96978e-14 2.09643 17.9031)
(-1.62717e-14 4.04851 15.0924)
(-5.84418e-24 -0.991125 4.10882)
(-2.75027e-23 -1.62568 -0.672353)
(1.5888e-23 -1.31125 1.64087)
(7.45507e-22 -1.49565 0.395049)
(2.63014e-21 -1.37521 1.15758)
(1.6397e-20 -1.42842 0.980465)
(-4.26607e-20 -1.40847 1.34205)
(-1.86081e-18 -1.43764 1.49296)
(-5.32144e-18 -1.35852 1.86909)
(5.4832e-17 -0.813204 2.49228)
(3.00347e-16 0.342436 3.90286)
(3.96415e-16 0.965562 5.0513)
(4.189e-16 0.218827 5.04799)
(2.02376e-16 -1.49257 3.87457)
(-3.68359e-15 -2.076 6.00456)
(-1.32443e-14 -1.81981 12.2307)
(-1.82221e-14 -0.325156 16.2829)
(-1.38101e-14 2.49428 13.4173)
(-1.45664e-14 5.05118 14.0592)
(-3.76043e-24 -1.16273 3.90233)
(-4.86007e-24 -1.47623 -0.695091)
(1.537e-23 -1.36795 1.61109)
(-1.81518e-22 -1.47918 0.382939)
(1.18492e-21 -1.41495 1.14583)
(4.11913e-20 -1.45598 0.954911)
(2.38511e-20 -1.45276 1.31027)
(-2.28932e-18 -1.49109 1.44751)
(-6.56476e-18 -1.46462 1.79915)
(5.93329e-17 -1.06404 2.49189)
(2.75242e-16 0.0138869 4.6134)
(1.32939e-16 0.784399 6.94137)
(-4.9786e-16 0.388223 7.84377)
(-1.23299e-15 -1.42191 6.23572)
(-4.1834e-15 -2.7039 6.56497)
(-1.07967e-14 -2.70282 10.3983)
(-9.93882e-15 -0.47074 9.64189)
(-1.39558e-15 2.26628 1.90546)
(-8.18452e-15 2.8194 4.92969)
(1.97522e-26 -1.32963 3.69351)
(6.65534e-24 -1.34183 -0.699992)
(-2.84568e-23 -1.42527 1.57068)
(-7.25128e-22 -1.46488 0.375705)
(9.69659e-22 -1.45383 1.13068)
(5.28958e-20 -1.48203 0.930675)
(6.02109e-20 -1.49567 1.27814)
(-2.22123e-18 -1.54069 1.40352)
(-6.39977e-18 -1.56858 1.72218)
(4.9958e-17 -1.37438 2.34195)
(1.95106e-16 -0.549942 4.71852)
(-1.58594e-16 0.331343 8.52004)
(-1.31064e-15 0.2725 11.0748)
(-3.04017e-15 -1.31029 10.9948)
(-5.44881e-15 -2.87327 10.0186)
(-8.23019e-15 -2.60313 9.80241)
(-3.6765e-15 1.11718 4.26038)
(9.7702e-16 3.48475 -0.668209)
(2.14453e-15 2.40473 -1.96344)
(1.88849e-24 -1.48879 3.48181)
(8.06773e-24 -1.22018 -0.694602)
(-5.47214e-23 -1.48062 1.52531)
(-8.12929e-22 -1.45142 0.371636)
(7.71305e-22 -1.49009 1.11252)
(4.81616e-20 -1.50504 0.907456)
(8.18165e-20 -1.53546 1.24521)
(-1.66757e-18 -1.58446 1.36089)
(-5.96819e-18 -1.65314 1.65181)
(2.85634e-17 -1.65518 2.1068)
(1.54669e-16 -1.21777 3.99068)
(1.69506e-17 -0.440347 8.16655)
(-8.57394e-16 -0.174033 12.3553)
(-2.47303e-15 -1.30163 14.18)
(-4.2687e-15 -2.47548 12.9801)
(-4.48973e-15 -1.58275 8.58688)
(-1.36111e-16 1.98335 -0.0121547)
(-4.65811e-17 3.516 -0.165834)
(-4.72724e-16 2.33662 0.358601)
(1.72976e-24 -1.64813 3.27174)
(5.11047e-24 -1.11309 -0.691105)
(-4.71602e-23 -1.53894 1.47838)
(-6.20157e-22 -1.44159 0.369372)
(2.52776e-22 -1.52774 1.09182)
(3.3673e-20 -1.52912 0.885144)
(8.54509e-20 -1.57665 1.21134)
(-9.62793e-19 -1.62851 1.31829)
(-4.73038e-18 -1.72122 1.59051)
(9.39415e-18 -1.84548 1.9023)
(9.78028e-17 -1.75971 3.03453)
(1.60176e-16 -1.29323 6.14922)
(-1.23062e-16 -0.888086 10.4709)
(-8.68871e-16 -1.433 13.1849)
(-1.62645e-15 -1.69892 11.6614)
(-1.12346e-15 -0.00434501 4.76291)
(2.05759e-16 2.58596 -1.13772)
(-2.80733e-17 3.42333 -0.268451)
(1.16851e-16 2.41589 -0.551912)
(8.24117e-25 -1.78605 3.06223)
(2.32153e-24 -1.01626 -0.692067)
(-2.26658e-23 -1.5909 1.43013)
(-3.64429e-22 -1.42751 0.368679)
(-3.0081e-22 -1.55759 1.06854)
(1.84385e-20 -1.54485 0.863483)
(7.17023e-20 -1.60865 1.17628)
(-4.0857e-19 -1.66234 1.27426)
(-3.04064e-18 -1.7675 1.53197)
(-5.63025e-19 -1.94289 1.75984)
(4.49776e-17 -2.07265 2.32801)
(1.55576e-16 -1.92236 4.1029)
(2.20357e-16 -1.54393 7.39148)
(1.13249e-16 -1.51488 9.81232)
(-2.42177e-17 -0.758783 7.35252)
(1.27184e-16 1.19098 0.184232)
(-2.3001e-18 2.87786 -0.830915)
(1.23907e-18 3.36297 -0.559104)
(1.65986e-17 2.48299 -0.412677)
(1.12305e-25 -1.94867 2.85809)
(1.0717e-24 -0.93703 -0.695186)
(-1.25334e-24 -1.66341 1.38074)
(-1.71679e-22 -1.42617 0.369876)
(-6.08071e-22 -1.6018 1.04339)
(7.67568e-21 -1.57451 0.842825)
(5.01831e-20 -1.65577 1.14078)
(-9.79182e-20 -1.71208 1.22945)
(-1.59037e-18 -1.82628 1.47212)
(-3.30891e-18 -2.01368 1.65861)
(1.3433e-17 -2.23917 1.92117)
(9.42272e-17 -2.31038 2.6757)
(2.51354e-16 -2.02132 4.57543)
(3.72456e-16 -1.4743 6.29818)
(2.98151e-16 0.157793 3.49897)
(6.33825e-17 1.61622 -0.571459)
(9.84296e-18 2.85474 -0.975095)
(-6.34939e-18 3.31607 -0.750559)
(2.90582e-17 2.50148 -0.484297)
(-1.83009e-25 -2.02691 2.64305)
(8.31203e-25 -0.853096 -0.677063)
(9.11734e-24 -1.69635 1.32696)
(-6.60046e-23 -1.39625 0.375083)
(-6.32781e-22 -1.60821 1.01498)
(2.04425e-21 -1.56591 0.822296)
(3.03203e-20 -1.66045 1.1036)
(2.40145e-20 -1.71634 1.18303)
(-6.77358e-19 -1.83454 1.40832)
(-2.83167e-18 -2.01412 1.57221)
(4.99132e-19 -2.25892 1.70294)
(4.14587e-17 -2.43467 1.88573)
(1.67362e-16 -2.24148 2.61323)
(3.14859e-16 -1.35974 3.60288)
(1.96703e-16 0.752218 1.14073)
(3.44705e-17 1.99201 -0.848926)
(1.61642e-18 2.85617 -1.12461)
(-2.7941e-18 3.2539 -0.897889)
(1.63332e-17 2.48133 -0.486851)
(-2.07777e-25 -2.28045 2.4472)
(8.327e-25 -0.813751 -0.657924)
(1.05259e-23 -1.83227 1.27414)
(-2.15831e-23 -1.43411 0.383311)
(-4.94856e-22 -1.70009 0.987037)
(-8.44201e-23 -1.64205 0.804082)
(1.63129e-20 -1.7576 1.06833)
(4.71243e-20 -1.81796 1.1395)
(-2.29015e-19 -1.94655 1.34668)
(-1.68426e-18 -2.11841 1.49393)
(-2.56711e-18 -2.34912 1.57672)
(1.31194e-17 -2.53654 1.51396)
(8.37157e-17 -2.3824 1.50674)
(1.98105e-16 -1.27398 1.80739)
(1.0836e-16 1.00726 -0.0420259)
(1.35413e-17 2.15389 -1.06245)
(-9.63285e-19 2.84856 -1.19546)
(-1.80677e-19 3.15496 -0.973391)
(3.82209e-18 2.42327 -0.266367)
(-1.40497e-25 -2.1023 2.19114)
(7.63759e-25 -0.697002 -0.539446)
(7.90483e-24 -1.73276 1.20872)
(-7.23129e-24 -1.31182 0.401082)
(-3.21124e-22 -1.58489 0.94966)
(-5.2042e-22 -1.51327 0.782127)
(8.0261e-21 -1.62944 1.02558)
(3.57466e-20 -1.68137 1.08936)
(-5.53231e-20 -1.80339 1.2773)
(-8.17302e-19 -1.95529 1.40951)
(-2.15822e-18 -2.1572 1.4789)
(2.26747e-18 -2.32272 1.34994)
(3.35649e-17 -2.19815 1.0172)
(1.02428e-16 -1.01891 0.784977)
(4.01226e-17 1.20879 -0.662843)
(4.43485e-18 2.23851 -1.16279)
(-1.02803e-18 2.82953 -1.25983)
(7.43433e-19 3.04408 -0.884747)
(-8.11294e-18 2.36227 0.00605202)
(-7.30263e-26 -2.94547 2.06511)
(5.81226e-25 -0.784909 -0.544427)
(4.74954e-24 -2.18759 1.17059)
(-3.82865e-24 -1.56663 0.420433)
(-1.82253e-22 -1.95534 0.932962)
(-3.96485e-22 -1.86392 0.776812)
(3.73285e-21 -2.02621 1.00461)
(2.03089e-20 -2.09618 1.06343)
(-5.17241e-21 -2.24779 1.23635)
(-3.45655e-19 -2.40683 1.35585)
(-1.20171e-18 -2.58582 1.41901)
(-4.8213e-19 -2.67725 1.28319)
(1.09831e-17 -2.43597 0.844783)
(4.3441e-17 -1.008 0.256848)
(1.02728e-17 1.39378 -0.879158)
(7.78138e-19 2.33911 -1.26414)
(-3.80782e-19 2.83684 -1.25564)
(5.27571e-19 2.94492 -0.603389)
(-1.90941e-17 2.34316 0.199326)
(-3.04017e-26 -1.37204 1.56171)
(4.08191e-25 -0.416805 -0.0466274)
(2.41692e-24 -1.3323 1.03403)
(-2.73917e-24 -0.925451 0.439626)
(-9.13508e-23 -1.16236 0.833037)
(-2.07791e-22 -1.07206 0.707015)
(1.64907e-21 -1.16988 0.899714)
(9.65135e-21 -1.19765 0.950991)
(3.31656e-21 -1.29597 1.10097)
(-1.32211e-19 -1.40957 1.20908)
(-5.38784e-19 -1.56102 1.28206)
(-6.28134e-19 -1.67443 1.20286)
(2.94919e-18 -1.58754 0.841943)
(1.51356e-17 -0.458884 0.145854)
(1.40474e-18 1.51541 -0.90864)
(8.5638e-21 2.32012 -1.34172)
(-1.61554e-21 2.6671 -1.06657)
(2.91134e-19 2.69495 -0.241909)
(-2.33293e-17 2.20472 0.345626)
(-1.02324e-26 -5.56765 2.21169)
(2.59113e-25 -1.09359 -0.544375)
(1.11316e-24 -3.52363 1.27545)
(-2.47856e-24 -2.39365 0.588294)
(-4.35404e-23 -3.11993 1.05938)
(-8.05425e-23 -2.97549 0.931052)
(7.52627e-22 -3.26848 1.14536)
(4.05357e-21 -3.38503 1.20962)
(1.75295e-21 -3.61363 1.37039)
(-4.88082e-20 -3.79148 1.47941)
(-2.06537e-19 -3.91766 1.53898)
(-3.16321e-19 -3.79942 1.42148)
(6.57932e-19 -3.09886 0.978521)
(4.25488e-18 -0.917217 0.0419122)
(3.81431e-20 1.48408 -1.17371)
(-3.91647e-20 2.12728 -1.27111)
(4.12005e-20 2.30939 -0.691144)
(4.858e-19 2.33058 0.00145179)
(-8.546e-18 1.95283 0.289109)
(-5.77898e-29 3.98886 -1.39559)
(8.95392e-26 0.60109 1.49274)
(2.51327e-25 1.63474 -0.111779)
(-1.22507e-24 1.27636 -0.0569488)
(-1.40619e-23 1.62067 -0.167977)
(-1.81615e-23 1.66418 -0.218581)
(2.84047e-22 1.81022 -0.198826)
(1.36651e-21 1.90851 -0.213531)
(3.02104e-22 1.97202 -0.171899)
(-1.68438e-20 1.9394 -0.108671)
(-6.81201e-20 1.7401 0.0190573)
(-1.10921e-19 1.30523 0.214439)
(1.3436e-19 0.554489 0.402879)
(9.57638e-19 0.364024 0.106243)
(-1.61695e-20 2.11803 -1.29721)
(-9.80847e-21 2.69453 -0.879024)
(2.52145e-21 2.94587 -0.31037)
(3.06338e-20 3.05159 0.0702528)
(7.92363e-19 2.69532 0.337391)
(1.38294e-26 -16.2798 12.8264)
(5.85742e-25 -2.38315 0.147226)
(1.48204e-24 -9.22659 6.03109)
(-2.18033e-24 -6.27216 3.82848)
(-3.2197e-23 -8.30383 5.35898)
(-7.57792e-23 -7.9446 5.2411)
(1.71237e-22 -8.7581 5.9464)
(1.27534e-21 -9.07073 6.30026)
(2.02579e-21 -9.62418 6.73934)
(-4.07091e-21 -9.93744 6.88537)
(-2.42334e-20 -9.93745 6.60811)
(-4.34797e-20 -9.06137 5.54763)
(-7.18062e-21 -6.43712 3.36822)
(7.78996e-20 -0.704783 -0.441599)
(-4.95776e-21 2.34979 -0.63667)
(1.46854e-21 3.00184 -0.229607)
(-4.07235e-21 3.2753 -0.0644655)
(1.44393e-21 3.39017 0.0311086)
(-8.27389e-20 3.02982 0.0448441)
(1.42591e-16 8.15908 15.7476)
(-3.96668e-15 11.207 17.2174)
(-3.4299e-15 9.0385 16.2874)
(-3.16259e-15 9.8517 15.1894)
(-2.9051e-15 9.10762 15.5217)
(-3.29294e-15 9.72489 15.1307)
(-2.3036e-15 9.36372 15.2579)
(-1.52236e-15 9.61297 15.0249)
(-1.41213e-15 9.46888 15.0128)
(-1.05383e-15 9.45843 14.9556)
(-9.98143e-16 9.49163 14.8759)
(-1.40642e-15 9.17196 14.8659)
(-1.4748e-15 9.46133 14.7443)
(-1.36082e-15 8.91529 15.1223)
(-1.63058e-15 9.52276 14.8287)
(-1.46392e-15 8.58384 15.3874)
(-1.78055e-15 9.6484 14.8503)
(-1.40649e-15 8.32119 15.7391)
(-1.97487e-15 9.38511 14.2316)
(-9.95797e-16 9.00635 17.511)
(4.58445e-17 8.21524 15.9044)
(-4.14021e-15 10.2434 15.7617)
(-3.10688e-15 7.77064 14.969)
(-3.07931e-15 9.00314 14.0828)
(-3.04276e-15 7.93329 14.765)
(-4.40007e-15 8.82389 14.3116)
(-3.23192e-15 8.20866 14.724)
(-3.05727e-15 8.67137 14.5172)
(-2.93581e-15 8.44316 14.6938)
(-3.0248e-15 8.55853 14.6737)
(-2.95591e-15 8.63677 14.6578)
(-3.00837e-15 8.46448 14.8253)
(-3.10837e-15 8.83828 14.6077)
(-2.99674e-15 8.31187 14.925)
(-3.16881e-15 9.03095 14.4984)
(-2.80333e-15 8.10904 15.0402)
(-3.26816e-15 9.2247 14.4011)
(-2.58914e-15 7.98259 15.2824)
(-3.34737e-15 9.01884 13.7341)
(-2.98964e-15 8.57305 16.599)
(-2.87744e-19 8.59722 16.782)
(-1.335e-15 10.5189 16.272)
(-1.01984e-15 8.21727 15.5958)
(-1.07568e-15 9.26827 14.5948)
(-9.48021e-16 8.30841 15.1105)
(-2.6897e-15 9.021 14.6852)
(-1.68034e-15 8.5091 14.9498)
(-1.58687e-15 8.83142 14.7485)
(-1.31375e-15 8.64042 14.8318)
(-1.54628e-15 8.68637 14.7979)
(-1.26939e-15 8.74394 14.7484)
(-1.17618e-15 8.54599 14.8553)
(-1.32343e-15 8.85593 14.665)
(-1.48033e-15 8.38315 14.9505)
(-1.41623e-15 9.0073 14.5759)
(-1.48183e-15 8.18797 15.0578)
(-1.4013e-15 9.17548 14.4898)
(-1.44515e-15 8.0765 15.2863)
(-1.38549e-15 8.9621 13.8432)
(-1.48823e-15 8.56272 16.389)
(-6.85332e-18 8.7242 16.9945)
(3.63634e-16 10.5432 16.3389)
(2.85718e-16 8.14926 15.5165)
(2.699e-16 9.19306 14.5043)
(2.62907e-16 8.23525 15.0541)
(-1.7863e-15 8.95777 14.6256)
(-1.40352e-15 8.44357 14.9024)
(-1.3183e-15 8.76912 14.6949)
(-1.29761e-15 8.57755 14.7794)
(-1.41672e-15 8.62942 14.734)
(-1.2873e-15 8.67348 14.6834)
(-1.20729e-15 8.50359 14.7737)
(-1.33671e-15 8.77255 14.5897)
(-1.41006e-15 8.35771 14.8328)
(-1.3988e-15 8.89448 14.4877)
(-1.39078e-15 8.18583 14.9066)
(-1.06142e-15 9.02578 14.3932)
(-1.39078e-15 8.09717 15.101)
(-1.41463e-15 8.7966 13.78)
(-1.03419e-15 8.4181 15.8337)
(3.16805e-18 8.90747 17.3355)
(-9.37136e-17 10.7171 16.6326)
(-7.7381e-17 8.21831 15.6847)
(-7.00052e-17 9.26829 14.6368)
(-7.53467e-17 8.30472 15.1673)
(4.25785e-16 9.00947 14.7221)
(3.54792e-16 8.50263 14.9725)
(3.37744e-16 8.80305 14.7516)
(3.0174e-16 8.61148 14.817)
(3.39566e-16 8.65607 14.7553)
(2.83869e-16 8.67739 14.7024)
(2.73341e-16 8.53203 14.7626)
(3.06401e-16 8.74132 14.5989)
(3.2526e-16 8.3981 14.7909)
(3.18578e-16 8.82403 14.494)
(3.27362e-16 8.24691 14.8332)
(3.25549e-16 8.91161 14.3946)
(3.22489e-16 8.17732 14.9928)
(3.15375e-16 8.68984 13.8495)
(3.2964e-16 8.28645 15.2989)
(-4.96855e-19 9.07435 17.6277)
(1.52636e-17 10.7116 16.6127)
(1.31227e-17 8.16082 15.7635)
(1.20236e-17 9.35754 14.7605)
(1.34269e-17 8.29495 15.3007)
(-9.30045e-17 9.06474 14.7943)
(-8.06947e-17 8.49187 15.0487)
(-7.83805e-17 8.82179 14.7782)
(-6.67317e-17 8.59003 14.8423)
(-7.34749e-17 8.65433 14.7439)
(-6.7341e-17 8.63676 14.6951)
(-6.55418e-17 8.52776 14.7182)
(-6.85122e-17 8.67359 14.5755)
(-6.83341e-17 8.40705 14.7141)
(-7.07359e-17 8.72064 14.4652)
(-7.1961e-17 8.2806 14.7235)
(-7.48379e-17 8.76724 14.3642)
(-6.93135e-17 8.24455 14.8579)
(-7.32225e-17 8.57947 13.926)
(-7.61652e-17 8.08609 14.6163)
(-1.01306e-19 9.25618 17.8911)
(-3.12419e-20 10.4231 16.2459)
(6.42202e-20 8.14622 15.8502)
(-1.34105e-19 9.44696 14.974)
(1.30085e-20 8.29492 15.4766)
(1.45167e-17 9.12467 14.9226)
(1.02709e-17 8.45877 15.1681)
(9.06419e-18 8.83537 14.8397)
(9.37807e-18 8.53588 14.9049)
(9.22184e-18 8.6354 14.7608)
(1.03027e-17 8.56514 14.7213)
(9.54466e-18 8.50104 14.7044)
(9.0791e-18 8.5822 14.5867)
(8.63233e-18 8.39535 14.6736)
(1.03929e-17 8.60293 14.4727)
(9.33416e-18 8.29947 14.6558)
(9.8681e-18 8.63127 14.3899)
(9.27156e-18 8.33399 14.8085)
(1.18203e-17 8.54384 14.1315)
(4.74068e-18 7.82919 13.8522)
(5.50182e-20 9.30917 17.7626)
(-4.70247e-19 9.90608 15.7651)
(-5.19724e-19 8.26687 15.8829)
(-3.99231e-19 9.39885 15.1998)
(-4.83189e-19 8.34715 15.5661)
(-8.52917e-19 9.09074 15.057)
(5.71088e-19 8.42133 15.2373)
(9.5369e-19 8.78801 14.8964)
(-2.28136e-19 8.45067 14.9463)
(2.25629e-19 8.5737 14.7762)
(-4.23584e-19 8.45948 14.7502)
(3.53955e-21 8.44501 14.7027)
(1.73471e-19 8.46542 14.6221)
(8.71738e-20 8.36687 14.6616)
(-4.15477e-19 8.47256 14.5225)
(3.87148e-19 8.31922 14.6416)
(4.04995e-19 8.5307 14.5232)
(1.95883e-19 8.49755 14.9218)
(-7.31682e-19 8.62603 14.5378)
(3.46931e-18 7.51697 13.0129)
(-4.3094e-21 9.09073 17.0071)
(-1.58446e-19 9.48513 15.596)
(-4.3629e-20 8.47131 15.8319)
(-5.06831e-20 9.22249 15.3609)
(-1.13125e-19 8.44838 15.532)
(1.01225e-19 8.94133 15.1535)
(8.80744e-21 8.41939 15.2125)
(-4.63843e-20 8.66748 14.9366)
(1.68386e-19 8.38514 14.9411)
(1.96301e-19 8.48247 14.7935)
(2.13848e-19 8.37024 14.7755)
(7.28135e-20 8.38963 14.7233)
(9.80246e-20 8.37331 14.6884)
(2.08502e-19 8.35736 14.6926)
(1.95797e-19 8.38178 14.6319)
(2.4916e-21 8.38267 14.7129)
(1.81804e-20 8.53487 14.8184)
(3.63782e-20 8.7877 15.2728)
(2.70426e-19 8.86814 15.1831)
(-2.69733e-19 7.15172 12.1348)
(3.33997e-21 8.66936 15.8675)
(1.99907e-19 9.28642 15.7316)
(1.21641e-19 8.63227 15.6731)
(1.19448e-19 8.99679 15.3921)
(1.42764e-19 8.53071 15.4018)
(-3.51929e-19 8.7583 15.1625)
(-5.03539e-19 8.43295 15.1215)
(-4.84021e-19 8.54131 14.9394)
(-3.80409e-19 8.36365 14.9049)
(-5.05369e-19 8.41491 14.8107)
(-3.89065e-19 8.34508 14.7999)
(-3.89348e-19 8.37817 14.7704)
(-4.12944e-19 8.36301 14.7762)
(-4.44998e-19 8.40099 14.7726)
(-3.7076e-19 8.39342 14.785)
(-4.09314e-19 8.5142 14.8754)
(-4.2618e-19 8.68533 15.2288)
(-3.47701e-19 9.17457 15.8112)
(-3.769e-19 9.23121 15.9456)
(-8.89458e-19 6.71365 11.2316)
(-3.87704e-21 8.19232 14.6886)
(-8.92981e-20 9.25511 15.9857)
(-5.88535e-20 8.70007 15.4591)
(-5.97746e-20 8.80542 15.319)
(-5.05929e-20 8.57822 15.2482)
(2.40124e-19 8.62945 15.1138)
(3.22689e-19 8.46887 15.0346)
(3.05386e-19 8.4896 14.9347)
(2.27943e-19 8.41034 14.8928)
(2.92869e-19 8.43352 14.8528)
(2.26867e-19 8.41564 14.8556)
(2.45859e-19 8.45489 14.8591)
(2.49335e-19 8.46426 14.8953)
(2.51781e-19 8.52713 14.9081)
(2.18358e-19 8.53142 14.9716)
(2.64595e-19 8.70764 15.0974)
(2.7058e-19 8.93418 15.6188)
(2.19084e-19 9.54263 16.3647)
(2.14047e-19 9.58776 16.5837)
(5.92671e-19 6.19191 10.3347)
(1.80352e-21 7.77414 13.7108)
(2.65834e-20 9.27939 16.1585)
(1.8107e-20 8.71558 15.2924)
(1.88205e-20 8.70664 15.2262)
(1.02943e-20 8.62129 15.1516)
(-9.333e-20 8.60331 15.0809)
(-1.18702e-19 8.54818 15.0177)
(-1.10635e-19 8.54267 14.974)
(-8.25325e-20 8.5293 14.9496)
(-1.03754e-19 8.54697 14.9467)
(-8.13895e-20 8.56577 14.9635)
(-9.0573e-20 8.60584 14.9906)
(-8.94745e-20 8.63898 15.0411)
(-8.85117e-20 8.70073 15.0769)
(-7.90155e-20 8.73302 15.1587)
(-9.87205e-20 8.8865 15.3001)
(-1.01154e-19 9.1359 15.8192)
(-8.18363e-20 9.72926 16.6952)
(-7.79751e-20 9.7788 16.8932)
(-2.24753e-19 5.65693 9.57081)
(-5.04216e-22 7.49909 13.0868)
(-6.09856e-21 9.2938 16.1657)
(-4.20675e-21 8.7343 15.23)
(-4.41824e-21 8.70733 15.1752)
(-1.37947e-21 8.67854 15.1413)
(2.58816e-20 8.66391 15.1032)
(3.17058e-20 8.65322 15.0782)
(2.93629e-20 8.65534 15.0634)
(2.19265e-20 8.66684 15.0606)
(2.73373e-20 8.68471 15.0713)
(2.16152e-20 8.71253 15.0913)
(2.44561e-20 8.7415 15.1226)
(2.37508e-20 8.78013 15.1653)
(2.33461e-20 8.81776 15.2122)
(2.12917e-20 8.86562 15.2785)
(2.71098e-20 8.94625 15.4002)
(2.80131e-20 9.14916 15.7593)
(2.26393e-20 9.63492 16.6528)
(2.13058e-20 9.73514 16.8754)
(6.17014e-20 5.3259 9.25228)
(9.80433e-23 7.41639 12.8705)
(1.1492e-21 9.29021 16.0705)
(7.92707e-22 8.76151 15.2254)
(8.34708e-22 8.74936 15.1546)
(1.24267e-22 8.72655 15.1629)
(-5.65206e-21 8.73604 15.1421)
(-6.75797e-21 8.72789 15.1455)
(-6.25551e-21 8.73926 15.1405)
(-4.66908e-21 8.74526 15.1476)
(-5.81337e-21 8.75679 15.1557)
(-4.61872e-21 8.77198 15.1679)
(-5.29207e-21 8.78246 15.1887)
(-5.06887e-21 8.80663 15.2112)
(-4.96425e-21 8.81669 15.2499)
(-4.61059e-21 8.85221 15.287)
(-5.95984e-21 8.8685 15.3624)
(-6.203e-21 8.96774 15.5139)
(-4.98151e-21 9.32364 16.2763)
(-5.03948e-21 9.56051 16.7373)
(-1.26398e-20 5.48323 9.74678)
(-1.49271e-23 7.50532 12.9714)
(-1.83138e-22 9.2731 15.9716)
(-1.2621e-22 8.77173 15.2023)
(-1.32532e-22 8.76545 15.1256)
(-5.15095e-24 8.74019 15.1495)
(1.02478e-21 8.7584 15.1423)
(1.20432e-21 8.74429 15.1531)
(1.11568e-21 8.75297 15.152)
(8.32279e-22 8.74822 15.1581)
(1.03544e-21 8.7501 15.1612)
(8.25321e-22 8.75031 15.1651)
(9.55382e-22 8.74825 15.1737)
(9.03287e-22 8.75233 15.1802)
(8.82872e-22 8.74903 15.1983)
(8.34572e-22 8.7556 15.2117)
(1.09023e-21 8.74719 15.2341)
(1.12976e-21 8.74634 15.2444)
(9.06745e-22 8.95866 15.7058)
(9.93343e-22 9.41039 16.6092)
(2.04459e-21 6.1917 11.072)
(1.90877e-24 7.71815 13.284)
(2.49667e-23 9.2064 15.8373)
(1.73015e-23 8.75554 15.1422)
(1.80654e-23 8.74545 15.0823)
(-1.04959e-24 8.72814 15.1003)
(-1.58075e-22 8.73827 15.1027)
(-1.83617e-22 8.72759 15.11)
(-1.70215e-22 8.72857 15.1127)
(-1.26875e-22 8.72229 15.1163)
(-1.5761e-22 8.71901 15.1187)
(-1.25888e-22 8.7139 15.1203)
(-1.46753e-22 8.7094 15.1226)
(-1.36979e-22 8.70313 15.124)
(-1.33624e-22 8.69996 15.1261)
(-1.28366e-22 8.6883 15.1298)
(-1.6879e-22 8.68586 15.123)
(-1.73619e-22 8.64272 15.0953)
(-1.40085e-22 8.72286 15.2168)
(-1.61813e-22 9.24444 16.2867)
(-2.82089e-22 7.13144 12.6629)
(-2.12476e-25 7.98574 13.7166)
(-2.96485e-24 9.07982 15.6274)
(-2.066e-24 8.72413 15.0726)
(-2.14537e-24 8.71996 15.0438)
(3.23509e-25 8.71158 15.0534)
(2.1073e-23 8.71367 15.0578)
(2.42847e-23 8.70967 15.0621)
(2.25506e-23 8.7073 15.0667)
(1.67833e-23 8.70451 15.07)
(2.08272e-23 8.70149 15.0738)
(1.66501e-23 8.69811 15.0769)
(1.9527e-23 8.69581 15.0792)
(1.80073e-23 8.69041 15.0822)
(1.75449e-23 8.69031 15.0815)
(1.70679e-23 8.67956 15.0856)
(2.25667e-23 8.68583 15.078)
(2.31115e-23 8.65859 15.079)
(1.86785e-23 8.68133 15.0521)
(2.22644e-23 9.00172 15.734)
(3.49612e-23 7.86887 13.8212)
(2.10839e-26 8.22347 14.1318)
(3.10576e-25 8.94611 15.4091)
(2.16909e-25 8.70122 15.0304)
(2.24269e-25 8.70445 15.0185)
(-5.45726e-26 8.69939 15.0247)
(-2.45643e-24 8.69979 15.0271)
(-2.81316e-24 8.69853 15.0305)
(-2.61888e-24 8.69697 15.0342)
(-1.94826e-24 8.69608 15.0377)
(-2.41921e-24 8.69472 15.0415)
(-1.93341e-24 8.69351 15.0455)
(-2.28049e-24 8.69266 15.0492)
(-2.07938e-24 8.69098 15.0537)
(-2.02497e-24 8.69117 15.0565)
(-1.98971e-24 8.68805 15.0622)
(-2.64621e-24 8.69241 15.0628)
(-2.70663e-24 8.68611 15.0776)
(-2.18211e-24 8.70614 15.0754)
(-2.63247e-24 8.82782 15.3458)
(-3.92452e-24 8.25262 14.3821)
(-1.87304e-27 8.42192 14.4858)
(-2.8849e-26 8.84168 15.2331)
(-2.01497e-26 8.69117 15.0118)
(-2.07521e-26 8.69622 15.0045)
(7.03452e-27 8.69274 15.0085)
(2.52158e-25 8.69298 15.0097)
(2.87424e-25 8.69197 15.0119)
(2.68167e-25 8.69117 15.014)
(1.99443e-25 8.69025 15.0165)
(2.47752e-25 8.68932 15.0191)
(1.98244e-25 8.68839 15.022)
(2.35334e-25 8.68738 15.0252)
(2.12412e-25 8.68667 15.0288)
(2.06794e-25 8.6857 15.0327)
(2.04896e-25 8.68532 15.0372)
(2.74189e-25 8.68541 15.0415)
(2.80389e-25 8.68338 15.0493)
(2.2537e-25 8.69427 15.0579)
(2.71971e-25 8.76031 15.2116)
(3.9357e-25 8.43642 14.6602)
(1.34181e-28 8.61038 14.8235)
(2.14804e-27 8.75348 15.0804)
(1.49936e-27 8.69326 15.0035)
(1.53797e-27 8.69542 15.0014)
(-6.5865e-28 8.69479 15.0022)
(-2.04602e-26 8.69455 15.0027)
(-2.32621e-26 8.69409 15.0032)
(-2.17398e-26 8.69355 15.0038)
(-1.61679e-26 8.6928 15.0046)
(-2.00719e-26 8.69194 15.0055)
(-1.60897e-26 8.69089 15.0065)
(-1.91758e-26 8.68963 15.0078)
(-1.71737e-26 8.68822 15.0092)
(-1.67299e-26 8.68649 15.011)
(-1.67118e-26 8.68462 15.013)
(-2.25412e-26 8.68235 15.0154)
(-2.31129e-26 8.6791 15.0181)
(-1.85207e-26 8.67822 15.0186)
(-2.23189e-26 8.69627 15.0872)
(-3.14245e-26 8.59383 14.8924)
(7.83996e-15 0.041142 -1.19818)
(1.26131e-14 0.106657 -1.23011)
(7.42824e-15 0.0652135 -1.06155)
(5.80853e-15 0.142872 -1.13507)
(3.62407e-15 0.248382 -0.930157)
(5.04037e-15 0.241273 -0.589427)
(3.34722e-15 0.223944 -0.425152)
(5.71129e-15 0.28365 -0.431535)
(1.12714e-14 0.336558 -0.223084)
(2.67767e-14 0.219951 0.320123)
(2.80362e-14 0.036256 0.0767992)
(2.89013e-14 0.179489 -0.135324)
(1.01764e-14 0.00600232 1.51186)
(1.21367e-15 -0.441669 3.9808)
(4.42837e-15 -0.602995 4.00669)
(5.09948e-15 -0.816368 4.29885)
(9.56216e-15 -1.87177 7.9159)
(9.15818e-15 -2.48181 8.07247)
(8.48477e-15 -2.94739 8.43674)
(1.21545e-14 -4.8624 14.9658)
(1.03082e-14 -4.72276 15.7993)
(1.04692e-14 -4.71345 15.1647)
(1.01423e-14 -4.60576 15.8896)
(1.0025e-14 -4.79117 15.7113)
(1.00536e-14 -4.58307 16.2316)
(1.05106e-14 -4.82853 16.3766)
(1.15049e-14 -4.65546 16.8544)
(1.28568e-14 -4.83722 17.0452)
(1.94556e-14 -3.29052 16.9821)
(1.4174e-14 -4.71018 15.4488)
(1.20309e-14 -4.48745 14.4663)
(8.8451e-15 -4.66766 13.2342)
(5.69222e-15 -4.62049 11.8191)
(2.86759e-15 -4.56095 10.4336)
(8.41266e-16 -4.50065 9.25231)
(-4.39639e-16 -4.27113 8.53282)
(-9.90388e-16 -4.29511 7.94759)
(-1.21204e-15 -3.77474 7.6633)
(-4.27459e-15 -1.07898 1.19607)
(-4.36614e-15 -2.88936 4.6225)
(-7.05832e-15 0.133427 -3.03669)
(-7.93649e-15 -4.64717 1.55638)
(-4.7242e-15 -2.04767 0.156253)
(-1.65605e-15 -2.56577 0.251321)
(1.23438e-16 -3.06937 0.281594)
(9.0838e-16 -2.31326 0.160504)
(8.32256e-16 -2.93642 0.199)
(1.5775e-16 -2.60964 -0.176688)
(8.72349e-17 -2.22287 -0.34509)
(4.71445e-16 -2.80544 -0.793765)
(5.79418e-16 -1.83467 -0.864964)
(1.00196e-16 -2.18482 -1.60759)
(-2.06214e-16 -1.56702 -1.7555)
(-4.50561e-16 -1.14026 -1.43803)
(-1.19549e-15 -1.06026 -2.0184)
(-2.00105e-15 -0.523709 -1.22901)
(-2.36234e-15 -0.155668 -0.424735)
(-1.55048e-15 -0.24217 -0.851782)
(3.37219e-15 0.0891353 -1.15326)
(-1.58215e-14 0.588377 1.01919)
(3.48588e-24 0.0883393 -0.245748)
(-6.87417e-24 0.0245386 -0.395391)
(1.18408e-22 -0.0130292 0.0543359)
(1.44113e-22 -0.0691987 0.657491)
(-5.64974e-22 -0.0570394 1.23665)
(-2.81411e-21 -0.0448401 1.59365)
(-8.1901e-21 -0.00991584 1.76451)
(-1.97897e-20 0.0241658 1.63423)
(-4.23784e-20 0.051176 1.30891)
(-7.79925e-20 0.0738287 0.757349)
(-1.16941e-19 0.0891287 -0.014193)
(-1.32484e-19 0.0730679 -0.790713)
(-2.23698e-19 0.0623276 -1.58864)
(3.55707e-19 0.083584 -2.32792)
(-2.85367e-18 0.15462 -3.62722)
(1.38189e-17 0.132953 -5.30466)
(-5.37305e-17 -0.0907528 -6.28014)
(2.54151e-16 -0.370157 -4.47593)
(-2.89465e-15 -0.219835 -0.234531)
(1.48737e-23 0.100995 0.0188684)
(8.1143e-23 -0.127213 0.336474)
(1.93682e-22 -0.157614 1.22072)
(-4.6505e-23 -0.1853 1.75674)
(-1.60256e-21 -0.118041 2.13515)
(-6.45243e-21 -0.0621289 2.19386)
(-1.78538e-20 0.0102986 2.1052)
(-3.80744e-20 0.0657377 1.95272)
(-7.00165e-20 0.124903 1.72842)
(-1.1323e-19 0.190531 1.31685)
(-1.6356e-19 0.248664 0.691414)
(-2.20325e-19 0.253969 -0.136319)
(-2.8944e-19 0.22909 -1.03148)
(-1.17177e-19 0.289369 -1.80025)
(-1.75165e-18 0.49326 -3.10974)
(1.45689e-17 0.427991 -4.83262)
(-8.42306e-17 -0.080063 -6.00772)