/*--------------------------------*- C++ -*----------------------------------*\
| =========                 |                                                 |
| \\      /  F ield         | OpenFOAM: The Open Source CFD Toolbox           |
|  \\    /   O peration     | Version:  4.1                                   |
|   \\  /    A nd           | Web:      www.OpenFOAM.org                      |
|    \\/     M anipulation  |                                                 |
\*---------------------------------------------------------------------------*/
FoamFile
{
    version     2.0;
    format      ascii;
    class       volScalarField;
    location    "6";
    object      p;
}
// * * * * * * * * * * * * * * * * * * * * * * * * * * * * * * * * * * * * * //

dimensions      [0 2 -2 0 0 0 0];

internalField   nonuniform List<scalar> 
1280
(
0.0829502
-0.0473942
0.0657768
0.0321109
0.192704
0.21215
0.20465
0.204531
0.197919
0.097666
-0.134111
-0.405383
-0.809962
-1.57754
-2.07639
-3.78061
-5.71257
-7.42125
-10.5644
-19.1878
-14.0627
2.08788
21.6329
27.911
28.4958
31.6613
12.8617
17.9369
18.5947
18.1586
17.4565
16.5982
15.4907
14.1803
12.7845
11.1259
9.60138
7.22205
5.78858
0.736235
-25.1461
-6.70614
-0.674594
3.1067
11.4724
11.5016
11.5577
11.6273
11.8422
11.8481
11.8409
11.8182
11.5997
11.5519
11.5015
11.5295
3.14566
-0.588749
-6.54474
-24.6325
0.90573
5.91618
7.3125
9.65385
11.1402
12.7613
14.1206
15.3944
16.4669
17.3006
17.9727
18.3631
17.7484
12.9396
31.4774
28.2677
27.6377
21.3166
1.73416
-14.4447
-19.6019
-11.1305
-9.34268
-7.67956
-5.34991
-3.84382
-3.20992
-1.99373
-1.56478
-1.09623
-0.553794
-0.375975
-0.198049
-0.0705261
0.06454
0.0810597
-0.0464229
0.0481564
-0.00754013
0.0227217
-0.510753
-1.95865
-1.37986
-0.103626
0.590261
1.18442
1.59545
1.53655
0.462647
-1.02302
-1.38383
-0.470027
1.15309
1.91819
0.212807
-0.160679
-0.337718
-0.422905
-0.196176
-1.42913
-3.30294
-2.38357
-0.0169093
1.4401
2.89862
3.91976
3.9656
2.03212
-0.536114
-1.03133
0.42379
3.20127
4.7187
0.972689
-0.432667
-1.29914
-1.27916
-0.390982
-2.62218
-3.73907
-2.8565
0.209767
2.01271
3.80857
5.0419
5.08984
2.50683
-0.944215
-1.61393
0.589332
4.13159
6.30098
2.00744
-1.17296
-2.91
-2.36541
-0.505191
-3.60192
-3.98401
-3.62543
0.318399
2.71401
4.95753
6.54805
6.4926
2.90841
-1.36525
-2.41154
0.37134
4.79179
7.44607
3.0473
-2.4636
-5.35284
-4.03675
-0.664927
-4.36198
-3.91033
-4.33157
0.425837
3.50504
6.14376
8.06565
7.44973
2.05975
-4.37193
-4.43535
0.535164
5.37524
8.12649
3.0726
-5.8737
-9.99006
-7.03728
-0.939952
-4.87055
-3.78199
-4.76381
0.618195
4.41624
7.40652
9.51191
7.65503
-0.130187
-7.77813
-9.80223
0.179939
7.25666
9.70713
3.48173
-10.9413
-15.6827
-10.3316
0.314482
-5.35867
-3.79089
-4.97162
0.773386
5.3698
8.65931
10.0671
7.58606
-0.677016
-9.71687
-13.8559
-0.439698
12.4189
14.3966
6.04896
-12.1177
-18.9759
-14.1104
-1.16664
-5.76053
-3.363
-4.53222
1.27918
6.44358
9.66323
9.9336
7.79352
0.34896
-11.2851
-15.1988
-1.12484
19.7116
18.7134
9.21998
-9.83637
-16.6442
-8.26933
-0.369767
-6.14344
-2.68466
-4.07088
1.73365
7.23807
10.1101
9.45683
7.4108
1.77134
-9.97011
-15.1258
-2.62586
23.3818
20.2621
12.1029
-4.45565
-9.50297
8.80718
18.562
-6.28718
-1.72508
-3.33752
2.51343
7.98081
10.358
9.2398
7.27709
3.46626
-6.00327
-12.4906
-3.56702
18.5526
18.4269
11.6762
-0.823114
-2.07774
23.0353
16.1073
-6.30727
-1.81266
-3.42264
2.46013
7.93615
10.3791
9.37934
7.50941
4.42659
-3.78394
-10.9232
-4.69407
13.6586
16.7082
10.9348
0.610015
-1.64167
23.0088
15.9354
-6.15722
-2.77412
-4.18476
1.66671
7.10424
9.99945
9.50431
7.75134
4.65803
-3.72628
-12.6395
-7.77013
10.704
17.6435
10.6971
1.13964
-5.60313
10.0735
18.5424
-5.79077
-3.45678
-4.65378
1.1886
6.22786
9.46131
9.87775
8.29093
4.68423
-5.43351
-15.014
-9.47411
8.5363
14.3464
10.1226
1.80171
-8.50664
-5.4057
-1.81431
-5.37152
-3.85124
-4.96182
0.749458
5.2176
8.57781
9.95278
8.24762
4.45384
-7.54378
-15.1795
-10.7984
6.04449
10.2238
7.835
0.3943
-8.77542
-8.44178
-2.49996
-4.86681
-3.9255
-4.68751
0.595114
4.31252
7.47659
9.59516
7.90394
4.04933
-8.99885
-14.0492
-10.8727
3.86483
6.15777
4.78551
0.45807
-4.4704
-4.34878
0.134534
-4.28595
-4.0699
-4.19768
0.422513
3.4567
6.24849
8.45794
7.67973
3.67611
-8.32696
-13.4785
-8.66311
2.18006
4.11066
3.63569
1.30548
-1.41639
-2.24256
-0.241555
-3.43962
-4.06438
-3.47967
0.308135
2.6926
5.02946
6.85194
7.20917
3.46322
-4.8496
-10.9792
-5.51233
1.19288
3.1066
3.03863
1.41403
-0.425413
-1.19568
-0.0328085
-2.41806
-3.71814
-2.70457
0.199797
2.00836
3.89262
5.32061
5.9153
3.09293
-1.23472
-4.52782
-2.75879
0.794818
2.41466
2.28709
1.1032
-0.146086
-0.631043
0.0343884
-1.26887
-3.24958
-2.25429
-0.0351021
1.43181
2.98306
4.20545
4.52036
2.54405
0.251908
-1.20632
-1.59694
0.376215
1.7442
1.62926
0.757151
-0.0361284
-0.307205
0.0246242
-0.446966
-1.92576
-1.30771
-0.127315
0.555097
1.20983
1.80906
2.10131
1.26918
0.17776
-0.861233
-1.2148
-0.155826
0.564976
0.610719
0.276836
-0.0193033
-0.12898
-0.0256145
79.1292
78.8283
77.1881
75.1783
73.0372
70.4156
67.7161
64.889
62.3069
59.9213
57.8264
55.9713
54.3662
53.0076
51.8488
50.9198
50.1364
49.5502
49.1061
48.6857
39.2177
40.4108
40.1884
40.1958
40.5787
40.7079
41.0912
41.1136
41.2879
41.2671
41.3096
41.3033
41.3179
41.3614
41.4086
41.5356
41.6284
41.8644
41.9695
42.3072
42.2266
42.2347
42.0331
41.7955
41.8337
41.5391
41.5569
41.303
41.2767
41.1111
41.0677
40.9962
40.9755
40.9945
41.0199
41.1322
41.2027
41.4136
41.5136
41.7897
33.0295
33.3597
33.4427
33.536
33.825
33.8414
34.1312
34.154
34.3911
34.4696
34.6557
34.7886
34.9497
35.128
35.2837
35.511
35.6625
35.9571
36.085
36.4532
31.4828
31.7521
31.8278
31.9186
32.1841
32.1794
32.4521
32.4652
32.6682
32.7265
32.8626
32.9503
33.0449
33.1495
33.2202
33.348
33.3997
33.5777
33.6068
33.8766
25.8664
26.6214
26.9584
27.32
27.8784
28.0978
28.6283
28.8755
29.28
29.5459
29.8403
30.0823
30.2968
30.4991
30.6504
30.826
30.9229
31.1052
31.1537
31.4037
17.1592
18.6303
19.4804
20.1895
21.2813
21.8621
22.8508
23.5274
24.3327
25.015
25.675
26.2723
26.8031
27.2846
27.6858
28.061
28.3345
28.6396
28.7914
29.0847
0.95377
3.24913
4.855
5.87022
7.76377
8.82969
10.5159
11.8608
13.3643
14.7914
16.1928
17.5448
18.8178
20.0125
21.0897
22.073
22.8922
23.6595
24.151
24.7693
-25.5742
-23.5505
-21.4039
-20.8155
-18.4361
-17.4475
-15.4299
-13.8787
-11.9883
-10.0801
-8.03667
-5.87185
-3.59805
-1.21804
1.20174
3.63722
5.94544
8.14107
9.97813
12.4501
-54.4473
-55.8463
-54.4318
-56.1173
-55.2055
-56.5598
-56.5184
-57.5259
-58.0163
-58.6665
-58.9929
-59.058
-58.6692
-57.6528
-55.8269
-53.1034
-49.7607
-46.1681
-43.5508
-39.4792
-42.8625
-48.5832
-48.8858
-53.0013
-54.4588
-58.1963
-60.582
-64.1122
-66.9578
-70.0415
-72.7277
-75.3039
-77.5814
-79.5696
-81.1167
-82.4429
-83.5025
-83.1384
-82.2414
-78.8969
15.8939
9.26285
7.98841
2.44622
-0.136023
-5.26875
-8.88036
-13.7734
-17.8243
-22.1063
-25.6451
-28.765
-30.9879
-32.3394
-32.7275
-32.7255
-33.0627
-33.5134
-35.0252
-37.6075
74.9442
72.8176
73.8138
71.5157
72.8422
71.1283
71.6954
70.4895
70.0318
68.6423
67.0961
64.7462
61.591
57.384
52.4444
47.4193
43.3425
41.5158
40.7755
36.2292
57.7859
58.6508
60.9467
60.027
62.8262
62.424
64.4303
64.892
66.1163
66.8034
67.5558
68.1097
68.5416
68.7562
68.6548
68.0166
66.9439
65.4734
65.1155
64.4495
38.6293
39.4488
43.4269
42.379
46.6541
46.7116
49.5835
50.8625
52.7513
54.2518
55.6269
56.7684
57.6764
58.4544
59.3644
60.6616
62.3727
64.3703
65.9322
67.3972
5.08666
3.82297
7.9109
5.26499
9.49038
8.67317
11.2602
12.3816
14.3669
16.3228
18.492
20.8183
23.2699
25.8477
28.4998
31.3088
34.0917
37.0852
39.4973
42.917
5.66705
1.3155
3.61998
-2.98323
-2.45552
-7.10287
-8.82795
-11.9487
-14.2381
-16.5897
-18.5885
-20.3282
-21.7072
-22.584
-22.758
-21.8486
-19.901
-17.0347
-15.1698
-11.6546
16.1645
8.16961
15.7574
7.94413
9.0956
4.78259
2.51446
-1.12572
-4.51195
-8.27005
-12.0617
-15.9806
-19.8883
-23.5983
-26.764
-28.9185
-29.3952
-29.1836
-29.6422
-28.1755
42.6091
19.5492
27.5859
16.1797
13.2907
6.42194
1.32989
-4.07442
-8.72391
-12.8357
-16.162
-18.6432
-20.1609
-20.6161
-19.9163
-17.8275
-14.513
-11.4477
-9.28462
-8.14346
730.544
647.708
598.594
542.264
493.174
445.75
401.627
359.914
320.635
283.511
248.385
215.07
183.394
153.391
125.239
98.1849
72.5439
52.4509
28.7861
-8.59423
729.715
646.88
597.768
541.439
492.35
444.927
400.804
359.092
319.813
282.689
247.563
214.248
182.572
152.568
124.416
97.3617
71.7196
51.6247
27.9593
-9.41971
41.8082
18.7493
26.7866
15.3812
12.493
5.62507
0.533902
-4.8696
-9.51822
-13.6291
-16.9546
-19.4349
-20.9515
-21.4053
-20.7036
-18.6127
-15.2975
-12.2308
-10.0653
-8.9256
15.3568
7.36182
14.9493
7.13551
8.28648
3.9731
1.70437
-1.93625
-5.32309
-9.08174
-12.874
-16.7934
-20.7012
-24.4107
-27.5753
-29.728
-30.2044
-29.9954
-30.4581
-28.993
4.84276
0.487029
2.78829
-3.81684
-3.29303
-7.94375
-9.67197
-12.7967
-15.0897
-17.4454
-19.4485
-21.1925
-22.5758
-23.4564
-23.6339
-22.7273
-20.7832
-17.9229
-16.0626
-12.5485
4.17412
2.90801
6.99568
4.3484
8.57286
7.75352
10.3392
11.4583
13.4417
15.3953
17.5625
19.8866
22.3363
24.9128
27.5646
30.3749
33.1604
36.1578
38.5742
42.0009
37.7743
38.5961
42.5777
41.5312
45.8079
45.8676
48.7396
50.0203
51.9092
53.4115
54.7887
55.9347
56.8508
57.6416
58.5673
59.8788
61.5992
63.6029
65.1707
66.6453
56.9074
57.7845
60.0897
59.1804
61.9856
61.5947
63.6094
64.0844
65.321
66.0236
66.7908
67.3603
67.8067
68.0359
67.946
67.3098
66.2273
64.7535
64.4037
63.7514
74.2345
72.1373
73.1486
70.8706
72.2124
70.5126
71.0913
69.8942
69.4414
68.0542
66.5054
64.1476
60.9819
56.7715
51.8363
46.8081
42.7188
40.8866
40.1531
35.6294
15.6495
9.04024
7.77692
2.25286
-0.311112
-5.42412
-9.01492
-13.885
-17.9131
-22.1733
-25.6962
-28.807
-31.0323
-32.4172
-32.8716
-32.9739
-33.3995
-33.7984
-35.2973
-37.9151
-43.1752
-48.9152
-49.2423
-53.3817
-54.8643
-58.6289
-61.0515
-64.6227
-67.5172
-70.656
-73.4032
-76.045
-78.3884
-80.4377
-82.0439
-83.383
-84.2904
-83.8251
-82.9685
-79.6264
-55.2049
-56.6413
-55.2496
-56.9627
-56.0769
-57.4595
-57.4448
-58.4794
-58.9898
-59.6533
-59.9803
-60.0317
-59.61
-58.5457
-56.669
-53.8972
-50.5351
-46.9592
-44.3399
-40.2413
-26.2983
-24.2778
-22.1249
-21.5338
-19.145
-18.1472
-16.1164
-14.55
-12.6408
-10.7112
-8.64357
-6.45316
-4.15318
-1.74883
0.692273
3.144
5.45374
7.6555
9.49958
11.9878
0.437043
2.74596
4.36518
5.39185
7.30006
8.37958
10.0799
11.4395
12.9572
14.3981
15.8123
17.1759
18.4591
19.6622
20.7464
21.7354
22.5583
23.3299
23.8253
24.4482
16.7723
18.2555
19.1144
19.8321
20.9327
21.5216
22.5177
23.202
24.0138
24.7025
25.3678
25.97
26.5049
26.9899
27.3941
27.772
28.0477
28.355
28.5081
28.8029
25.5455
26.308
26.6488
27.0152
27.5777
27.8009
28.3346
28.5853
28.9924
29.2608
29.5571
29.8009
30.0166
30.22
30.3721
30.5482
30.6455
30.8281
30.8767
31.127
31.1966
31.4692
31.5454
31.6384
31.905
31.9018
32.1754
32.1898
32.3934
32.4527
32.5891
32.6774
32.7723
32.8772
32.948
33.0758
33.1276
33.3057
33.3347
33.6044
32.7507
33.0819
33.1638
33.2582
33.547
33.5641
33.854
33.8775
34.1148
34.1938
34.3801
34.5134
34.6748
34.8533
35.0093
35.2368
35.3885
35.6832
35.8111
36.1792
41.9501
41.9569
41.7535
41.5159
41.5534
41.259
41.2765
41.0229
40.9965
40.8313
40.788
40.7169
40.6964
40.7158
40.7415
40.8542
40.9251
41.1364
41.2366
41.5129
38.8979
40.0925
39.8744
39.8867
40.2727
40.4057
40.792
40.8176
40.9946
40.9767
41.0214
41.0176
41.0344
41.0801
41.1294
41.2585
41.3532
41.5911
41.6977
42.037
78.793
78.504
76.8849
74.8913
72.7609
70.147
67.4529
64.6331
62.0512
59.665
57.571
55.7174
54.1141
52.7579
51.6019
50.6758
49.8953
49.3123
48.8708
48.4561
)
;

boundaryField
{
    outletWall
    {
        type            fixedValue;
        value           uniform 0;
    }
    fineWalls
    {
        type            zeroGradient;
    }
    fineFrontAndBack
    {
        type            zeroGradient;
    }
    fineplugLeft
    {
        type            cyclicAMI;
        value           nonuniform List<scalar> 
20
(
39.0958
40.4426
41.0846
42.0294
42.961
44.036
45.2421
46.5911
48.0967
49.7524
51.5688
53.5644
55.4986
61.4787
62.6648
64.1289
65.7249
66.077
63.4803
60.4908
)
;
    }
    fineplugRight
    {
        type            cyclicAMI;
        value           nonuniform List<scalar> 
20
(
38.946
40.2799
40.9123
41.847
42.7686
43.8338
45.0304
46.3702
47.8673
49.5169
51.3266
53.3136
55.2561
61.2543
62.4131
63.8622
65.4406
65.7712
63.1501
60.1455
)
;
    }
    inletOutletLeft
    {
        type            cyclicAMI;
        value           nonuniform List<scalar> 
20
(
39.0958
40.4426
41.0846
42.0294
42.961
44.036
45.2421
46.5911
48.0967
49.7524
51.5688
53.5644
55.4986
61.4787
62.6648
64.1289
65.7249
66.077
63.4803
60.4908
)
;
    }
    inletLeft
    {
        type            zeroGradient;
    }
    inletWallsLeft
    {
        type            zeroGradient;
    }
    inletFacesLeft
    {
        type            zeroGradient;
    }
    inletOutletRight
    {
        type            cyclicAMI;
        value           nonuniform List<scalar> 
20
(
38.946
40.2799
40.9123
41.847
42.7686
43.8338
45.0304
46.3702
47.8673
49.5169
51.3266
53.3136
55.2561
61.2543
62.4131
63.8622
65.4406
65.7712
63.1501
60.1455
)
;
    }
    inletRight
    {
        type            zeroGradient;
    }
    inletWallsRight
    {
        type            zeroGradient;
    }
    inletFacesRight
    {
        type            zeroGradient;
    }
}


// ************************************************************************* //
