/*--------------------------------*- C++ -*----------------------------------*\
| =========                 |                                                 |
| \\      /  F ield         | OpenFOAM: The Open Source CFD Toolbox           |
|  \\    /   O peration     | Version:  4.1                                   |
|   \\  /    A nd           | Web:      www.OpenFOAM.org                      |
|    \\/     M anipulation  |                                                 |
\*---------------------------------------------------------------------------*/
FoamFile
{
    version     2.0;
    format      ascii;
    class       surfaceScalarField;
    location    "6";
    object      phi;
}
// * * * * * * * * * * * * * * * * * * * * * * * * * * * * * * * * * * * * * //

dimensions      [0 3 -1 0 0 0 0];

internalField   nonuniform List<scalar> 
2360
(
-2485.46
-1254.22
-1231.24
-1254.22
-1254.22
57.5201
-1311.74
57.5209
57.5181
57.5204
1476.1
-1418.58
1476.1
1476.1
3244.65
-1768.55
3244.65
3244.65
6118.23
-2873.59
6118.24
6118.23
11310.7
-5192.47
11310.7
11310.7
12093
13727.1
15454.9
17002
18381.2
19641.6
15019.5
5820.67
16143.8
17198.8
18186.5
19110.6
19975
20784.4
21543.2
22255.3
22922.6
23544.7
24114.5
24618.6
24990.1
10565.5
14424.6
10565.5
10565.5
10565.5
-327.011
10892.5
-327.013
-327.014
-327.014
-33.778
-293.238
-33.7819
-33.7845
273.307
-307.091
273.305
273.305
273.304
-10620
10893.3
-10620
-10620
-10620
-25002.8
14382.8
-24631.7
-24127.8
-23557.9
-22935.6
-22268.2
-21555.8
-20796.8
-19987.2
-19122.6
-18198.4
-17210.8
-16155.9
-15032.3
-19621.9
5787.55
-18362.1
-16983.3
-15436.3
-13708.5
-12073.9
-11290.4
-11290.4
-11290.4
-6781.67
-4508.7
-6781.67
-6781.67
-4169.82
-2611.85
-4169.82
-4169.82
-2392.5
-1777.32
-2392.5
-2392.5
-950.052
-1442.45
-950.051
-950.052
-950.051
442.167
-1392.22
442.167
442.167
1786.4
-1344.23
-5165.01
-2016.59
-4972.08
4402.06
-5038.48
6973.01
-5065.78
7587.49
-4999.68
7781.76
-4802.3
7443.52
-4425.6
6632.66
-3820.44
5227.48
-3067.5
4257.18
-2368.27
4993.31
-1786.41
6259.85
-1274.58
6697.31
-742.565
5647.46
236.956
2515.3
983.298
-2881.69
1423.29
-2670.33
1446.95
244.884
1372.75
2138.99
2521.93
-5200.05
-2422.53
-4951.48
4153.5
-5146.76
7168.29
-5246.93
7687.65
-5153.84
7688.67
-4867.86
7157.54
-4304.54
6069.35
-3388.47
4311.41
-2494.1
3362.81
-2038.16
4537.37
-1785.88
6007.57
-1466.47
6377.91
-875.047
5056.03
698.06
942.196
1577.48
-3761.11
2105.72
-3198.56
2016.97
333.629
1583.37
2572.6
2713.07
-5876.94
-2882.5
-5230.13
3506.69
-5258.64
7196.8
-5448.83
7877.85
-5399.19
7639.03
-5030.13
6788.48
-4200.37
5239.59
-2785.04
2896.08
-1602.72
2180.49
-1452.69
4387.34
-1714.17
6269.05
-1704.18
6367.92
-1133.77
4485.62
810.922
-1002.49
1882.26
-4832.45
2693.17
-4009.47
2543.34
483.464
1834.65
3281.29
3105.27
-6954.1
-3329.1
-5908.28
2460.87
-5560.7
6849.22
-5676.2
7993.35
-5700.13
7662.97
-5293.95
6382.3
-3931.4
3877.04
-1222.28
186.959
477.917
480.289
-125.037
4990.29
-1325.7
7469.71
-1991.16
7033.38
-1507.65
4002.11
735.258
-3245.4
2482.04
-6579.23
3724.2
-5251.63
3460.96
746.703
2300.99
4441.26
3628.94
-8344.33
-3644.16
-7039.75
1156.29
-6228.73
6038.21
-6058.07
7822.69
-6047.29
7652.18
-5500.36
5835.37
-3456.97
1833.65
-509.444
-2760.57
1737.01
-1766.17
1945.6
4781.7
333.963
9081.35
-1464.91
8832.25
-1498.62
4035.81
915.774
-5659.79
3184.28
-8847.73
4436.44
-6503.8
4253.41
929.741
3173.35
5521.31
4190.45
-9928.35
-3696.28
-8635.62
-136.448
-7393.56
4796.15
-6757.24
7186.36
-6454.47
7349.41
-5694.13
5075.03
-4134.15
273.672
-2834.64
-4060.08
-397.546
-4203.26
1968.17
2415.99
1707.83
9341.69
-65.3254
10605.4
-559.955
4530.44
1115.71
-7335.45
2175.36
-9907.39
2479.48
-6807.92
2604.7
804.514
3208.24
4917.77
2889.98
-11591.3
-3382.98
-10643.7
-1084.01
-9154.11
3306.51
-7955.42
5987.67
-7114.33
6508.32
-6314.86
4275.56
-5929.4
-111.785
-6137.71
-3851.77
-4860.78
-5480.19
-994.698
-1450.09
1250.77
7096.22
644.495
11211.7
48.1548
5126.79
-621.698
-6665.6
-2487.78
-8041.3
-3240.47
-6055.22
-862.114
-1573.84
795.862
3259.8
9473.4
-13350.3
-2640.85
-13016.5
-1417.84
-11532.7
1822.7
-9757.27
4212.25
-8228.78
4979.83
-7417.59
3464.38
-7824.85
295.467
-8769.65
-2906.97
-8822.23
-5427.61
-6135.47
-4136.85
-2364.97
3325.72
-451.201
9297.91
-1350.39
6025.98
-5355.8
-2660.19
-8721.18
-4675.92
-9561.24
-5215.17
-9012.39
-2122.7
-10277.9
4525.27
13578.3
-15137.8
-1477.02
-15507.3
-1048.29
-14307.8
623.105
-12201.2
2105.72
-10064.9
2843.53
-8843.26
2242.71
-8922.93
375.139
-9831.23
-1998.67
-11204.8
-4054
-11596
-3745.7
-9274.54
1004.28
-6305.79
6329.16
-7025.71
6745.9
-11115.2
1429.29
-13631.6
-2159.54
-15108.2
-3738.54
-15780.3
-1450.62
-14659.8
3404.75
9811.9
-16701.6
26.1372
-17695.7
-54.144
-16904.3
-168.334
-14557.4
-241.135
-11483.7
-230.21
-9038.13
-202.863
-8317.95
-345.039
-9569.97
-746.648
-12439.2
-1184.79
-15620.7
-564.178
-16597.6
1981.18
-14871
4602.51
-12662.2
4537.14
-11733.8
500.916
-11831.1
-2062.24
-12840.9
-2728.8
-13032.9
-1258.57
-9417.76
-210.397
87.0533
-16638.2
1491.34
-17553
860.691
-16703.7
-1017.65
-14333.6
-2611.27
-11209.4
-3354.43
-8668.21
-2744.04
-7974.44
-1038.81
-9470.94
749.851
-12656.1
2000.38
-16508.8
3288.5
-18900.2
4372.59
-18128
3830.31
-14931.9
1341.01
-12869.6
-1561.3
-13074.4
-1857.48
-13828.4
-1974.78
-13426.7
-1660.26
-9501
-4136.13
-9707.19
-15043
2596.13
-15306.7
1124.37
-14083.3
-2241.04
-12042.8
-4651.77
-9937.78
-5459.47
-8577.23
-4104.58
-8497.17
-1118.87
-9605.77
1858.45
-11849.2
4243.79
-14837.2
6276.48
-16108.1
5643.53
-13355.1
1077.31
-9037.64
-2976.45
-8807.11
-1791.83
-11851.7
1187.14
-14138.5
312.022
-15150.4
-648.382
-14487
-4799.54
-13301.7
-13190
3268.04
-12744.8
679.182
-11265.3
-3720.53
-9598.36
-6318.72
-8201.41
-6856.41
-7452.1
-4853.89
-7838.36
-732.605
-9067.48
3087.57
-10584.3
5760.64
-11901.5
7593.62
-10411.8
4153.88
-5582.76
-3751.76
-1034.83
-7524.39
658.608
-3485.27
-1718.64
3564.39
-5405.08
3998.46
-7273.61
1220.15
-9938.49
-2134.66
-8815.59
-11374.9
3519.5
-10377.9
-317.807
-8952.18
-5146.26
-7858.67
-7412.23
-7134.32
-7580.76
-6571.72
-5416.5
-6594.3
-710.019
-7544.86
4038.13
-8451.06
6666.83
-8177.21
7319.77
-4769.99
746.662
-1099.68
-7422.07
522.945
-9147.01
1705.08
-4667.4
2792.15
2477.32
2060.66
4729.96
1875
1405.8
1590.75
-1850.41
-1404.16
-9680.01
3419.81
-8408.81
-1589.01
-7267.65
-6287.42
-6724.22
-7955.66
-6486.07
-7818.91
-5922.23
-5980.34
-5111.3
-1520.94
-5254.73
4181.56
-5535.29
6947.39
-4194.15
5978.63
-886.748
-2560.74
1005.87
-9314.69
918.088
-9059.23
919.609
-4668.92
2735.22
661.717
4234.8
3230.37
4261.13
1379.46
4410.54
-1999.82
-2186.09
-8118.66
3079.65
-6884.78
-2822.89
-6174.21
-6997.99
-6074.52
-8055.35
-6100.2
-7793.23
-5572.21
-6508.33
-4004.76
-3088.39
-2865.73
3042.53
-2442.78
6524.44
-569.011
4104.86
1414.11
-4543.86
1486.02
-9386.6
191.723
-7764.94
-312.152
-4165.05
1368.61
-1019.04
3182.44
1416.54
3759.63
802.277
3310.18
-1550.38
-1749.5
-6787.66
2627.17
-5831.11
-3779.45
-5567
-7262.1
-5720.77
-7901.57
-5776.83
-7737.18
-5345.63
-6939.53
-3682.47
-4751.55
-1271.83
631.89
115.706
5136.91
1589.68
2630.89
2164.86
-5119.03
787.706
-8009.45
-720.368
-6256.86
-561.822
-4323.59
745.832
-2326.7
1981.66
180.712
2518.19
265.75
2091.4
-1123.59
-1426.65
-5785.31
2177.32
-5226.63
-4338.12
-5309.67
-7179.06
-5505.23
-7706.01
-5469.19
-7773.22
-5129.14
-7279.58
-4006.98
-5873.71
-1296.31
-2078.78
1088.55
2752.04
2305.83
1413.61
1612
-4425.2
-357.554
-6039.89
-931.744
-5682.67
-242.817
-5012.52
691.907
-3261.42
1480.95
-608.329
1837.84
-91.1395
1645.15
-930.907
-1200.07
-5188.34
1799.06
-5007.85
-4518.62
-5219.27
-6967.64
-5309.16
-7616.12
-5212.06
-7870.33
-4944.63
-7547.01
-4291.04
-6527.3
-2394.32
-3975.49
339.494
18.2228
1321.56
431.54
62.651
-3166.29
-897.637
-5079.6
-600.712
-5979.6
-45.1671
-5568.07
519.214
-3825.8
1052.77
-1141.89
1352.6
-390.964
1323.13
-901.442
-1188.68
-5206.84
-5046.91
-5115.39
-5131.73
-5050.9
-4849.23
-4472.17
-3680.23
-2248.73
-1247.5
-1032.45
-734.937
-381.56
-17.7701
338.934
683.228
941.978
1117.71
188.188
-970.513
491.265
-1937.11
698.076
-1934.65
814.957
-1664.01
911.868
-1476.09
1000.54
-1349.03
1053.38
-1251.46
1088.06
-1158.93
1107.44
-1074.44
1110.76
-991.013
1099.09
-912.453
1071.42
-836.727
1027.27
-765.249
965.083
-696.554
884.003
-631.086
781.77
-564.999
656.903
-497.276
503.69
-416.625
307.845
-308.206
-63.6419
140.838
-1111.35
200.028
-1996.3
166.657
-1901.28
119.724
-1617.08
111.551
-1467.92
126.954
-1364.43
158.193
-1282.7
189.909
-1190.64
220.108
-1104.63
245.72
-1016.62
266.811
-933.542
281.222
-851.137
288.075
-772.099
285.03
-693.507
270.941
-616.995
242.962
-537.018
200.439
-454.75
139.542
-355.724
56.5433
-225.197
-7.09849
80.5974
-1191.95
119.33
-2035.03
118.245
-1900.19
130.192
-1629.02
155.129
-1492.85
177.781
-1387.08
195.176
-1300.09
207.87
-1203.34
217.865
-1114.63
224.94
-1023.7
229.974
-938.575
232.185
-853.347
231.673
-771.585
226.986
-688.819
217.415
-607.422
200.183
-519.785
173.634
-428.199
132.082
-314.17
66.7687
-159.879
59.6703
53.9927
-1245.94
72.2728
-2053.31
65.1194
-1893.04
66.4159
-1630.32
72.1528
-1498.59
77.4609
-1392.39
82.4251
-1305.05
86.9635
-1207.87
91.1676
-1118.83
95.3164
-1027.85
99.313
-942.571
103.159
-857.192
106.503
-774.928
108.621
-690.936
108.576
-607.376
104.511
-515.72
94.5724
-418.26
74.5873
-294.184
45.4531
-130.742
105.123
29.4032
-1275.34
43.7574
-2067.66
48.2604
-1897.54
57.4252
-1639.48
63.502
-1504.66
67.8559
-1396.74
71.0266
-1308.22
75.0539
-1211.9
78.46
-1122.23
82.6063
-1031.99
86.2765
-946.24
90.0729
-860.988
92.8214
-777.676
94.4593
-692.573
93.5557
-606.471
89.8238
-511.987
80.9857
-409.42
66.6545
-279.851
42.1718
-106.257
147.295
12.3242
-1287.66
31.3895
-2086.73
51.2825
-1917.43
69.2175
-1657.42
81.381
-1516.83
91.2187
-1406.58
99.3338
-1316.34
108.05
-1220.62
115.28
-1129.46
122.001
-1038.71
126.447
-950.686
128.719
-863.259
127.392
-776.349
122.481
-687.661
112.791
-596.781
98.9401
-498.136
79.5045
-389.984
56.3707
-256.716
25.5171
-75.4025
172.812
32.548
-1320.21
65.3011
-2119.48
98.2245
-1950.36
128.112
-1687.3
155.238
-1543.95
179.34
-1430.68
200.543
-1337.54
220.228
-1240.3
236.295
-1145.53
248.236
-1050.65
253.919
-956.369
252.524
-861.863
242.958
-766.783
225.313
-670.016
199.305
-570.772
165.898
-464.729
125.033
-349.119
77.9703
-209.652
29.6046
-27.0353
202.417
118.483
-1438.69
168.968
-2169.96
203.183
-1984.57
246.016
-1730.14
297.643
-1595.58
347.79
-1480.83
395.743
-1385.49
439.698
-1284.26
476.717
-1182.55
503.342
-1077.28
516.469
-969.496
514.343
-859.736
496.217
-748.657
462.349
-636.147
413.123
-521.547
349.369
-400.975
272.363
-272.112
177.579
-114.867
77.5672
72.9767
279.984
246.204
-1684.9
294.084
-2217.84
317.021
-2007.51
375.157
-1788.27
459.258
-1679.68
547.396
-1568.96
639.555
-1477.65
727.014
-1371.71
803.902
-1259.44
861.906
-1135.28
896.975
-1004.56
906.345
-869.106
888.396
-730.707
841.443
-589.194
764.276
-444.378
656.329
-293.027
524.507
-140.29
356.106
53.5353
180.532
248.553
460.516
295.632
-1980.53
274.419
-2196.63
273.954
-2007.04
331.209
-1845.53
422.232
-1770.7
525.158
-1671.89
642.041
-1594.53
754.797
-1484.47
854.33
-1358.97
929.155
-1210.11
977.672
-1053.08
994.45
-885.884
971.583
-707.84
899.901
-517.512
772.716
-317.194
582.121
-102.432
376.599
65.2315
241.111
189.024
107.165
382.499
567.681
131.701
-2112.23
-3.34279
-2061.59
-62.6843
-1947.7
-84.6085
-1823.6
-88.7791
-1766.53
-80.8867
-1679.78
-64.1721
-1611.25
-53.6734
-1494.97
-56.8714
-1355.77
-76.8968
-1190.08
-111.246
-1018.73
-163.896
-833.234
-239.597
-632.139
-333.157
-423.953
-417.535
-232.815
-455.53
-64.4367
-468.184
77.8851
-461.02
181.861
-347.926
269.405
219.755
-102.608
-2009.62
-255.54
-1908.66
-379.385
-1823.86
-509.967
-1693.02
-641.885
-1634.62
-779.244
-1542.42
-920.439
-1470.05
-1064.27
-1351.14
-1208.01
-1212.03
-1348.88
-1049.22
-1491.66
-875.948
-1644.43
-680.472
-1804.59
-471.975
-1941.04
-287.501
-2002.48
-171.38
-1938.37
-128.545
-1719.87
-140.615
-1320.37
-217.644
-677.737
-373.225
-457.982
-151.745
-1857.88
-245.754
-1814.65
-364.372
-1705.24
-519.553
-1537.84
-681.313
-1472.86
-874.495
-1349.24
-1078.44
-1266.11
-1281.21
-1148.37
-1463.03
-1030.22
-1616.18
-896.064
-1737.09
-755.036
-1815.72
-601.838
-1832.79
-454.908
-1772.98
-347.308
-1637.91
-306.451
-1422.63
-343.831
-1099.79
-463.45
-666.351
-651.085
-239.423
-800.153
-697.405
3.25082
-1861.13
28.241
-1839.64
46.5735
-1723.57
41.3586
-1532.63
32.8548
-1464.35
6.25886
-1322.65
-30.2283
-1229.62
-63.6211
-1114.98
-80.1243
-1013.72
-67.1853
-909.005
-15.3466
-806.876
88.644
-705.831
246.32
-612.586
433.827
-534.818
606.521
-479.146
720.099
-457.41
731.47
-474.823
597.537
-517.152
319.291
-521.908
-378.113
70.8437
-1931.97
106.716
-1875.51
161.059
-1777.92
216.099
-1587.67
272.768
-1521.02
335.367
-1385.25
398.075
-1292.33
466.98
-1183.88
540.004
-1086.74
622.371
-991.372
715.876
-900.381
822.376
-812.331
934.78
-724.991
1035.34
-635.377
1098.34
-542.149
1088.93
-447.996
977.249
-363.146
741.875
-281.778
404.368
-184.402
26.2551
95.2778
-2027.25
104.676
-1884.91
157.224
-1830.47
215.703
-1646.15
278.813
-1584.13
347.107
-1453.54
420.56
-1365.79
498.579
-1261.9
579.906
-1168.07
661.963
-1073.43
743.127
-981.546
819.838
-889.043
886.425
-791.579
932.574
-681.527
942.336
-551.911
893.024
-398.685
779.688
-249.811
593.935
-96.0269
327.479
82.0531
353.734
21.5065
-2048.76
-13.8396
-1849.56
-8.33722
-1835.97
15.5236
-1670.01
44.1532
-1612.76
89.834
-1499.22
144.128
-1420.08
211.369
-1329.14
290.821
-1247.52
382.958
-1165.57
487.074
-1085.66
598.219
-1000.19
704.142
-897.502
781.983
-759.368
794.698
-564.627
692.56
-296.547
468.712
-25.963
259.554
113.132
91.5532
250.053
445.287
-169.032
-1879.73
-355.181
-1663.42
-502.839
-1688.31
-607.716
-1565.13
-701.798
-1518.68
-762.754
-1438.27
-807.585
-1375.25
-829.725
-1307
-833.591
-1243.65
-818.037
-1181.12
-784.137
-1119.56
-732.682
-1051.64
-665.748
-964.436
-585.874
-839.242
-495.487
-655.015
-396.125
-395.91
-306.325
-115.764
-238.078
44.8834
-179.533
191.508
265.754
-228.432
-1651.3
-499.194
-1392.65
-784.823
-1402.68
-1030.83
-1319.13
-1268.49
-1281.02
-1475.16
-1231.59
-1660.28
-1190.13
-1819.11
-1148.17
-1954.73
-1108.04
-2067.21
-1068.65
-2156.75
-1030.01
-2218.23
-990.162
-2238.25
-944.42
-2192.19
-885.305
-2042.31
-804.896
-1739.88
-698.34
-1289.32
-566.324
-828.569
-415.864
-380.042
-257.02
-114.288
-676.296
-1093.95
-1521.63
-1865.76
-2171.78
-2428.38
-2643.51
-2816.68
-2949.72
-3043.37
-3098.38
-3113.54
-3082.96
-2993.27
-2823.16
-2546.5
-2137.83
-1578.69
-860.712
-676.27
1651.27
-1093.9
1392.63
-1521.56
1402.66
-1865.67
1319.1
-2171.66
1281
-2428.24
1231.57
-2643.35
1190.11
-2816.5
1148.15
-2949.52
1108.02
-3043.15
1068.63
-3098.16
1030
-3113.31
990.152
-3082.71
944.404
-2993
885.286
-2822.89
804.887
-2546.25
698.354
-2137.62
566.371
-1578.58
415.956
-860.684
257.107
114.315
-228.437
1879.7
-499.22
1663.41
-784.867
1688.3
-1030.9
1565.13
-1268.59
1518.68
-1475.29
1438.27
-1660.44
1375.26
-1819.32
1307.02
-1954.99
1243.68
-2067.52
1181.16
-2157.11
1119.6
-2218.61
1051.65
-2238.6
964.385
-2192.43
839.124
-2042.38
654.829
-1739.73
395.705
-1289.13
115.771
-828.41
-44.7693
-379.857
-191.45
-265.542
-169.107
2048.8
-355.294
1849.59
-503.011
1836.01
-607.952
1670.07
-702.111
1612.84
-763.14
1499.3
-808.055
1420.17
-830.28
1329.24
-834.239
1247.64
-818.786
1165.7
-784.995
1085.8
-733.652
1000.3
-666.816
897.546
-586.993
759.296
-496.571
564.403
-397.088
296.215
-307.194
25.8665
-238.801
-113.171
-180.002
-250.257
-445.544
21.4353
2027.37
-14.0335
1885.06
-8.62892
1830.61
15.1369
1646.3
43.6739
1584.3
89.2665
1453.7
143.472
1365.96
210.629
1262.08
290.004
1168.26
382.076
1073.63
486.135
981.741
597.216
889.22
703.049
791.711
780.769
681.575
793.328
551.841
691.054
398.486
467.382
249.536
258.646
95.5597
91.0387
-82.6551
-354.505
95.4367
1931.92
104.742
1875.75
157.308
1778.04
215.811
1587.79
278.977
1521.13
347.3
1385.38
420.804
1292.45
498.868
1184.01
580.264
1086.86
662.414
991.472
743.692
900.459
820.528
812.38
887.238
724.997
933.458
635.352
943.183
542.112
893.708
447.959
780.126
363.115
594.05
281.632
327.391
183.997
-27.1143
70.9981
1860.93
106.836
1839.91
161.213
1723.66
216.339
1532.67
273.104
1464.36
335.84
1322.64
398.721
1229.57
467.805
1114.93
540.975
1013.69
623.412
909.034
716.892
806.978
823.242
706.031
935.394
612.844
1035.68
535.065
1098.48
479.309
1089.03
457.407
977.486
474.661
742.209
516.908
404.595
521.608
377.481
3.6968
1857.23
29.0462
1814.56
47.8201
1704.88
43.1206
1537.36
35.1408
1472.34
9.16506
1348.61
-26.6447
1265.38
-59.3067
1147.59
-75.0641
1029.44
-61.2856
895.253
-8.59182
754.281
95.4975
601.938
251.525
456.813
436.376
350.211
607.722
307.96
721.849
343.279
733.436
463.072
598.509
651.835
319.504
800.612
696.985
-151.256
2008.49
-244.68
1907.98
-362.791
1823
-517.542
1692.12
-678.9
1633.7
-871.738
1541.45
-1075.29
1468.94
-1277.57
1349.87
-1458.74
1210.62
-1611.01
1047.53
-1730.82
874.089
-1808.62
679.742
-1825.71
473.901
-1765.67
290.17
-1628.74
171.032
-1412.6
127.133
-1092
142.473
-661.299
221.141
-236.811
376.127
460.173
-103.552
2112.03
-256.494
2060.92
-380.707
1947.21
-511.876
1823.28
-644.481
1766.3
-782.695
1679.66
-924.871
1611.11
-1069.66
1494.65
-1214.28
1355.24
-1356.01
1189.25
-1499.57
1017.65
-1652.35
832.514
-1810.76
632.32
-1943.88
423.285
-2002.31
229.458
-1938.63
63.4558
-1724.55
-71.607
-1321.78
-181.631
-676.982
-268.672
-216.808
130.325
1981.71
-5.31404
2196.56
-65.2969
2007.19
-88.0063
1845.99
-93.0461
1771.34
-86.0233
1672.64
-70.2333
1595.32
-60.665
1485.08
-64.7517
1359.32
-85.5967
1210.1
-120.613
1052.67
-173.242
885.142
-248.099
707.179
-341.418
516.603
-427.04
315.083
-465.972
102.39
-476.015
-61.5624
-467.095
-190.548
-351.668
-384.099
-568.476
295.65
1686.06
273.964
2218.24
273.237
2007.92
330.35
1788.88
421.286
1680.41
524.177
1569.75
641.018
1478.48
753.621
1372.48
852.871
1260.07
927.237
1135.73
975.087
1004.82
991.071
869.157
967.684
730.566
895.448
588.839
766.765
443.765
576.764
292.391
376.018
139.184
239.989
-54.5191
105.715
-249.823
-462.761
247.041
1439.02
294.907
2170.38
317.745
1985.08
375.961
1730.66
460.28
1596.09
548.695
1481.34
641.171
1386
728.905
1284.75
806.004
1182.98
864.131
1077.61
899.245
969.707
908.587
859.818
890.563
748.592
843.492
635.913
766.122
521.138
658.076
400.44
525.931
271.333
357.487
113.931
181.623
-73.9531
-281.138
119.137
1319.89
169.773
2119.74
204.01
1950.84
246.958
1687.72
298.798
1544.25
349.188
1430.95
397.4
1337.79
441.595
1240.55
478.822
1145.75
505.6
1050.83
518.829
956.48
516.75
861.898
498.608
766.735
464.651
669.872
415.28
570.511
351.348
464.373
274.012
348.67
178.837
209.112
78.3027
26.5861
-202.836
32.694
1287.19
65.5574
2086.88
98.5993
1917.8
128.603
1657.72
155.873
1516.98
180.116
1406.71
201.455
1316.46
221.261
1220.75
237.43
1129.59
249.438
1038.83
255.151
950.77
253.745
863.307
244.131
776.352
226.393
687.613
200.245
596.662
166.664
497.958
125.598
389.74
78.29
256.428
29.7621
75.1236
-173.073
12.126
1275.07
31.2458
2067.77
51.2954
1897.76
69.3352
1639.68
81.5827
1504.74
91.4904
1396.8
99.6693
1308.28
108.443
1211.98
115.723
1122.31
122.478
1032.07
126.94
946.31
129.206
861.045
127.855
777.706
122.902
692.569
113.152
606.415
99.2294
511.882
79.7139
409.259
56.4908
279.656
25.6057
106.015
-147.468
29.1446
1245.93
43.5165
2053.4
48.1455
1893.13
57.3879
1630.44
63.5032
1498.63
67.8832
1392.43
71.0753
1305.09
75.1246
1207.93
78.5512
1118.89
82.714
1027.91
86.3939
942.634
90.1906
857.252
92.93
774.97
94.5518
690.951
93.6253
607.345
89.8735
515.637
81.0164
418.12
66.6786
294
42.1811
130.521
-105.286
53.8522
1192.08
72.1336
2035.12
65.0167
1900.25
66.3316
1629.12
72.0596
1492.9
77.3533
1387.13
82.3038
1300.14
86.8328
1203.41
91.027
1114.69
95.1684
1023.78
99.1556
938.648
102.991
853.419
106.317
771.644
108.415
688.856
108.344
607.417
104.261
519.722
94.3156
428.066
74.3557
313.961
45.2955
159.584
-59.9909
80.6576
1111.42
119.433
1996.34
118.31
1901.37
130.223
1617.21
155.155
1467.97
177.81
1364.48
195.191
1282.76
207.867
1190.73
217.84
1104.72
224.892
1016.72
229.901
933.641
232.086
851.236
231.542
772.19
226.818
693.581
217.204
617.033
199.929
536.998
173.349
454.648
131.788
355.524
66.487
224.89
6.49626
140.854
970.569
200.066
1937.13
166.681
1934.76
119.681
1664.21
111.403
1476.25
126.715
1349.17
157.944
1251.53
189.699
1158.98
219.955
1074.47
245.641
991.041
266.81
912.474
281.293
836.755
288.191
765.293
285.152
696.621
271.023
631.165
242.961
565.061
200.334
497.277
139.331
416.529
56.2363
307.99
62.7328
187.022
489.615
696.49
813.761
911.242
1000.59
1054.11
1089.49
1109.14
1112.51
1100.77
1072.97
1028.66
966.314
885.073
782.693
657.69
504.352
308.387
)
;

boundaryField
{
    outletWall
    {
        type            calculated;
        value           nonuniform List<scalar> 
60
(
1786.4
-2493.41
-2064.79
-268.548
2230.34
2135.34
-3494.82
-6179.48
-7209.14
-6841.72
-5692.53
-5010.13
-5832.64
-7009.36
-7640.9
-7847.86
-7560.19
-6906.62
-4594.98
1726.88
5475.62
5566.6
6235.15
7240.14
8458.83
9779.7
11123.4
12518.1
13938.2
15173
15198.4
13973.9
12608.2
11278
9980.48
8659.39
7400.7
6336.9
5605.99
5454.72
2485.46
-1302.22
-1077.17
-649.714
-1486.18
-4182.51
-5931.86
-6332.97
-5377.11
-3381.35
-569.693
-1413.28
-4767.43
-6904.36
-7748.68
-7951.15
-7599.78
-6899.16
-4678.55
1530.27
)
;
    }
    fineWalls
    {
        type            calculated;
        value           uniform 0;
    }
    fineFrontAndBack
    {
        type            calculated;
        value           nonuniform List<scalar> 
960
(
3.01257e-13
1.1108e-12
2.24425e-13
2.16385e-13
1.40852e-12
5.23986e-13
7.88564e-13
1.4727e-12
7.93083e-13
-3.46308e-14
9.00516e-14
3.67786e-12
9.80643e-13
1.25383e-12
4.44275e-12
4.14417e-13
8.61857e-13
-6.3494e-12
-1.28938e-12
-1.4914e-12
-9.1255e-14
-1.29791e-13
-1.13768e-13
-1.08685e-13
-1.03003e-13
-1.74574e-13
-1.6711e-12
-2.65977e-13
-3.27186e-13
-4.11144e-13
-4.97313e-13
-5.71424e-13
-6.30352e-13
-6.80825e-13
-7.27913e-13
-7.70357e-13
-8.08287e-13
-8.88838e-13
-8.34936e-13
-1.10284e-12
-1.90283e-11
-1.86996e-12
-1.36447e-12
-1.79809e-12
2.56286e-11
3.44457e-11
2.9152e-11
2.81039e-11
1.41486e-10
1.89647e-11
3.82169e-11
1.10181e-10
1.50144e-11
2.08392e-11
3.13101e-11
4.63856e-11
3.6592e-12
3.98101e-12
3.69437e-12
3.07302e-11
1.55364e-12
1.17049e-12
1.16181e-12
1.05519e-12
1.01133e-12
9.60846e-13
9.01742e-13
8.24731e-13
7.32371e-13
6.39844e-13
5.42986e-13
4.35559e-13
3.33059e-13
6.37825e-13
1.14787e-13
9.07369e-15
-5.5167e-16
-3.10323e-14
-5.72469e-14
-1.509e-13
-1.90048e-13
-6.52459e-13
-6.69536e-12
-2.91203e-12
-3.12275e-12
-1.92293e-11
-2.84401e-12
-3.14312e-12
-1.61387e-11
-2.06329e-12
-2.57357e-12
-1.26152e-11
-8.26199e-13
-1.2473e-12
-1.31371e-12
-1.16069e-11
-1.59719e-12
-8.05696e-13
-6.40975e-12
-3.90553e-13
1.84449e-09
1.56643e-09
1.08861e-09
8.75184e-10
4.96797e-10
2.19913e-10
2.73514e-11
-5.95094e-11
-6.20474e-11
-2.56959e-11
6.96952e-12
1.77684e-11
7.43188e-12
-1.34433e-11
-2.70683e-11
-3.10728e-11
-3.14916e-11
-2.56735e-11
-2.20468e-11
1.79612e-09
1.34182e-09
1.04525e-09
7.75299e-10
4.09373e-10
1.62079e-10
-8.71884e-13
-6.45524e-11
-5.40569e-11
-1.78669e-11
9.2079e-12
1.66345e-11
5.44347e-12
-1.41282e-11
-2.72502e-11
-3.11095e-11
-3.27326e-11
-2.88479e-11
-2.4595e-11
1.35046e-09
1.1347e-09
1.01486e-09
6.96087e-10
3.13637e-10
8.92139e-11
-3.1461e-11
-6.48493e-11
-4.33781e-11
-8.53992e-12
1.58352e-11
1.83739e-11
3.02488e-12
-1.67319e-11
-2.80128e-11
-2.54702e-11
-2.72169e-11
-3.07332e-11
-2.75776e-11
9.68642e-10
8.71201e-10
9.37971e-10
6.65941e-10
2.68977e-10
2.67553e-11
-6.33004e-11
-5.83376e-11
-2.42901e-11
-3.01337e-11
-5.22537e-12
1.29821e-11
1.91644e-12
-2.01106e-11
-1.66181e-11
-2.64533e-12
-3.42993e-12
-2.35893e-11
-3.0448e-11
5.97355e-10
5.56679e-10
7.57448e-10
6.29617e-10
2.88436e-10
8.15965e-12
-7.98353e-11
3.25534e-11
1.93236e-10
1.03038e-10
3.06304e-11
2.13242e-12
-7.25117e-12
-1.33782e-11
1.93758e-11
3.99705e-11
3.99797e-11
3.54617e-12
-2.4358e-11
3.26124e-10
2.73073e-10
5.03398e-10
5.25098e-10
3.15837e-10
4.57146e-11
-2.34404e-11
1.86621e-10
3.34054e-10
2.89757e-10
1.61351e-10
6.22413e-11
4.78685e-12
2.62871e-11
7.31541e-11
7.66479e-11
7.28292e-11
3.80274e-11
1.91389e-11
1.65165e-10
1.14391e-10
2.73737e-10
3.53819e-10
2.83969e-10
1.11042e-10
1.05786e-10
2.93391e-10
3.63688e-10
3.27659e-10
2.57719e-10
1.63882e-10
7.04636e-11
9.26748e-11
1.0374e-10
6.91582e-11
4.86696e-11
5.94262e-11
9.27419e-12
1.02241e-10
8.1538e-11
1.24277e-10
1.5977e-10
1.6814e-10
1.35648e-10
2.1245e-10
3.44147e-10
3.5143e-10
2.94503e-10
2.54288e-10
2.21974e-10
1.50581e-10
1.1912e-10
9.00742e-11
6.00539e-11
4.25266e-11
4.01896e-11
3.54922e-11
9.77792e-11
1.29585e-10
8.57468e-11
3.4652e-11
4.80652e-11
1.24639e-10
2.58405e-10
3.24668e-10
2.89863e-10
2.51788e-10
2.14586e-10
1.85172e-10
1.50012e-10
1.03467e-10
9.07921e-11
8.34247e-11
5.99393e-11
4.45171e-11
5.3068e-11
6.61795e-11
1.75247e-10
1.97637e-10
1.65922e-10
1.53666e-10
1.84891e-10
2.12455e-10
1.81137e-10
1.50985e-10
1.89473e-10
2.35569e-10
2.12818e-10
1.53443e-10
9.60299e-11
6.67663e-11
8.58081e-11
1.04604e-10
1.02577e-10
1.04258e-10
-2.25408e-10
-2.2962e-10
-1.99007e-10
-1.62696e-10
-1.37479e-10
-1.5153e-10
-1.58494e-10
-1.10041e-10
-5.22043e-11
-3.24815e-11
-2.45298e-11
-3.56959e-11
-7.37042e-11
-1.05402e-10
-9.20283e-11
-5.79287e-11
-2.27287e-11
4.96485e-12
5.76359e-11
-2.69121e-10
-2.07805e-10
-7.46914e-11
-1.25388e-11
-4.6794e-12
-8.13101e-11
-2.21559e-10
-2.73302e-10
-2.17886e-10
-1.76286e-10
-1.63542e-10
-1.47318e-10
-1.20304e-10
-8.28992e-11
-4.67772e-11
-3.60537e-11
-3.28167e-11
-2.84247e-11
-1.20062e-11
-2.51549e-10
-2.11428e-10
-8.10659e-11
-3.08018e-11
-1.8229e-12
-3.7024e-11
-1.91468e-10
-3.33292e-10
-3.24703e-10
-2.67569e-10
-2.25365e-10
-2.07495e-10
-2.00373e-10
-1.46028e-10
-1.14741e-10
-3.28899e-11
-1.0786e-11
-2.29608e-11
-2.53158e-11
-1.89479e-10
-2.08308e-10
-7.60701e-11
-2.5724e-11
3.50378e-12
-1.04798e-11
-1.37232e-10
-3.20243e-10
-3.65644e-10
-3.21818e-10
-2.67987e-10
-2.53758e-10
-1.89559e-10
-8.4091e-11
-8.57967e-11
-7.53033e-11
-4.69406e-11
-4.6101e-11
-2.0059e-11
-7.48751e-11
-1.53559e-10
-2.71749e-11
2.88798e-12
6.23352e-12
1.51607e-12
-6.48706e-11
-2.47032e-10
-3.52266e-10
-3.53145e-10
-3.06076e-10
-2.50571e-10
-1.17088e-10
-2.16984e-11
-6.97094e-12
-4.81207e-11
-5.3217e-11
-4.159e-11
-3.9987e-11
7.9823e-11
-4.96545e-11
3.02315e-11
1.61515e-11
-5.38257e-12
-2.90477e-12
-1.26499e-11
-1.37121e-10
-2.85068e-10
-3.55678e-10
-3.1632e-10
-1.62853e-10
-3.10675e-11
1.31866e-11
7.53522e-12
-6.87605e-12
-1.8465e-11
-9.18352e-12
-4.61563e-13
2.3094e-10
6.06661e-11
5.7887e-11
6.31758e-12
-1.83314e-11
-9.88837e-12
4.13304e-12
-3.70188e-11
-1.69365e-10
-2.77331e-10
-2.01443e-10
-5.18614e-11
1.3934e-11
5.59934e-12
5.62713e-13
5.06878e-12
2.19818e-12
5.6335e-12
5.25255e-12
3.27148e-10
1.21528e-10
4.71116e-11
-8.87059e-12
-2.30802e-11
-1.40241e-11
9.62921e-13
4.7301e-12
-5.28934e-11
-1.35906e-10
-5.302e-11
9.58478e-12
7.98409e-12
1.73041e-12
2.35124e-12
1.92987e-12
3.23311e-12
2.99126e-12
1.66632e-12
3.26336e-10
1.11659e-10
2.94771e-11
-1.07995e-11
-2.12601e-11
-1.70871e-11
-4.57572e-12
7.99932e-12
5.40867e-12
-3.14969e-11
1.27925e-11
1.07171e-11
4.07418e-12
3.79013e-12
2.43588e-12
2.0411e-12
1.88028e-12
1.79056e-12
9.1024e-13
2.14879e-10
7.3506e-11
3.41194e-11
-3.69446e-12
-1.92606e-11
-1.96482e-11
-8.35326e-12
5.21968e-12
1.46698e-11
1.4313e-11
1.15309e-11
7.86689e-12
5.91406e-12
3.62158e-12
2.16607e-12
1.86632e-12
1.67354e-12
1.53705e-12
6.44846e-13
-3.01257e-13
-1.1108e-12
-2.24425e-13
-2.16385e-13
-1.40852e-12
-5.23986e-13
-7.88564e-13
-1.4727e-12
-7.93083e-13
3.46308e-14
-9.00516e-14
-3.67786e-12
-9.80643e-13
-1.25383e-12
-4.44275e-12
-4.14417e-13
-8.61857e-13
6.3494e-12
1.28938e-12
1.4914e-12
9.1255e-14
1.29791e-13
1.13768e-13
1.08685e-13
1.03003e-13
1.74574e-13
1.6711e-12
2.65977e-13
3.27186e-13
4.11144e-13
4.97313e-13
5.71424e-13
6.30352e-13
6.80825e-13
7.27913e-13
7.70357e-13
8.08287e-13
8.88838e-13
8.34936e-13
1.10284e-12
1.90283e-11
1.86996e-12
1.36447e-12
1.79809e-12
-2.56286e-11
-3.44457e-11
-2.9152e-11
-2.81039e-11
-1.41486e-10
-1.89647e-11
-3.82169e-11
-1.10181e-10
-1.50144e-11
-2.08392e-11
-3.13101e-11
-4.63856e-11
-3.6592e-12
-3.98101e-12
-3.69437e-12
-3.07302e-11
-1.55364e-12
-1.17049e-12
-1.16181e-12
-1.05519e-12
-1.01133e-12
-9.60846e-13
-9.01742e-13
-8.24731e-13
-7.32371e-13
-6.39844e-13
-5.42986e-13
-4.35559e-13
-3.33059e-13
-6.37825e-13
-1.14787e-13
-9.07369e-15
5.5167e-16
3.10323e-14
5.72469e-14
1.509e-13
1.90048e-13
6.52459e-13
6.69536e-12
2.91203e-12
3.12275e-12
1.92293e-11
2.84401e-12
3.14312e-12
1.61387e-11
2.06329e-12
2.57357e-12
1.26152e-11
8.26199e-13
1.2473e-12
1.31371e-12
1.16069e-11
1.59719e-12
8.05696e-13
6.40975e-12
3.90553e-13
-1.84449e-09
-1.56643e-09
-1.08861e-09
-8.75184e-10
-4.96797e-10
-2.19913e-10
-2.73514e-11
5.95094e-11
6.20474e-11
2.56959e-11
-6.96952e-12
-1.77684e-11
-7.43188e-12
1.34433e-11
2.70683e-11
3.10728e-11
3.14916e-11
2.56735e-11
2.20468e-11
-1.79612e-09
-1.34182e-09
-1.04525e-09
-7.75299e-10
-4.09373e-10
-1.62079e-10
8.71884e-13
6.45524e-11
5.40569e-11
1.78669e-11
-9.2079e-12
-1.66345e-11
-5.44347e-12
1.41282e-11
2.72502e-11
3.11095e-11
3.27326e-11
2.88479e-11
2.4595e-11
-1.35046e-09
-1.1347e-09
-1.01486e-09
-6.96087e-10
-3.13637e-10
-8.92139e-11
3.1461e-11
6.48493e-11
4.33781e-11
8.53992e-12
-1.58352e-11
-1.83739e-11
-3.02488e-12
1.67319e-11
2.80128e-11
2.54702e-11
2.72169e-11
3.07332e-11
2.75776e-11
-9.68642e-10
-8.71201e-10
-9.37971e-10
-6.65941e-10
-2.68977e-10
-2.67553e-11
6.33004e-11
5.83376e-11
2.42901e-11
3.01337e-11
5.22537e-12
-1.29821e-11
-1.91644e-12
2.01106e-11
1.66181e-11
2.64533e-12
3.42993e-12
2.35893e-11
3.0448e-11
-5.97355e-10
-5.56679e-10
-7.57448e-10
-6.29617e-10
-2.88436e-10
-8.15965e-12
7.98353e-11
-3.25534e-11
-1.93236e-10
-1.03038e-10
-3.06304e-11
-2.13242e-12
7.25117e-12
1.33782e-11
-1.93758e-11
-3.99705e-11
-3.99797e-11
-3.54617e-12
2.4358e-11
-3.26124e-10
-2.73073e-10
-5.03398e-10
-5.25098e-10
-3.15837e-10
-4.57146e-11
2.34404e-11
-1.86621e-10
-3.34054e-10
-2.89757e-10
-1.61351e-10
-6.22413e-11
-4.78685e-12
-2.62871e-11
-7.31541e-11