/*--------------------------------*- C++ -*----------------------------------*\
| =========                 |                                                 |
| \\      /  F ield         | OpenFOAM: The Open Source CFD Toolbox           |
|  \\    /   O peration     | Version:  4.1                                   |
|   \\  /    A nd           | Web:      www.OpenFOAM.org                      |
|    \\/     M anipulation  |                                                 |
\*---------------------------------------------------------------------------*/
FoamFile
{
    version     2.0;
    format      ascii;
    class       volVectorField;
    location    "6";
    object      U;
}
// * * * * * * * * * * * * * * * * * * * * * * * * * * * * * * * * * * * * * //

dimensions      [0 1 -1 0 0 0 0];

internalField   nonuniform List<vector> 
1280
(
(2.1771e-16 -0.813028 -1.06606)
(1.88791e-16 -0.388494 -1.00993)
(1.62186e-16 -0.571823 -0.792682)
(1.56376e-16 -0.34812 -0.843552)
(2.39392e-16 -0.196349 -1.1152)
(3.78671e-16 -0.1189 -0.788725)
(5.69875e-16 0.039451 -0.796545)
(1.21435e-15 0.126577 -0.776991)
(1.42739e-16 0.401118 -1.12199)
(-2.45012e-17 0.431631 -0.859472)
(6.93035e-17 0.582469 -0.857403)
(5.59211e-16 0.958536 -1.38117)
(7.08685e-16 0.973545 -1.1007)
(9.06108e-16 1.14815 -0.97359)
(6.34351e-16 1.74458 -2.11092)
(2.99488e-16 1.7607 -1.95897)
(6.22842e-16 2.17445 -1.80923)
(-1.07914e-15 2.71786 -4.17571)
(-9.318e-16 3.47196 -2.82127)
(-1.07779e-15 3.16306 -4.91257)
(-3.74379e-16 3.66574 -1.07706)
(-5.32478e-16 3.99215 4.94876)
(-4.6674e-16 3.71047 8.42675)
(-4.45887e-16 4.04318 9.74328)
(-4.22575e-16 4.20668 10.2159)
(-7.162e-16 4.6162 10.6015)
(-3.52275e-16 3.52729 8.50076)
(-1.09119e-15 7.65572 13.72)
(-1.3423e-15 7.71119 13.8411)
(-1.68675e-15 7.75573 13.7973)
(-2.04026e-15 7.76862 13.6904)
(-2.3443e-15 7.75819 13.5692)
(-2.58606e-15 7.73728 13.466)
(-2.79313e-15 7.7028 13.391)
(-2.98631e-15 7.66129 13.3447)
(-3.16044e-15 7.59207 13.2979)
(-3.31605e-15 7.54501 13.2564)
(-3.64651e-15 7.41169 13.115)
(-3.42538e-15 7.42925 13.0671)
(-4.52447e-15 7.14354 12.4162)
(-3.31214e-15 9.01279 13.9759)
(-1.50197e-15 4.9128 9.83877)
(-1.09596e-15 3.63032 9.54574)
(-1.4356e-15 2.76526 9.69688)
(4.76266e-15 0.542386 7.08343)
(2.76672e-14 -0.534703 -4.96608)
(2.34152e-14 -0.0769618 -3.70469)
(2.25734e-14 0.330129 -4.16256)
(2.35858e-14 1.19892 -4.73217)
(1.75254e-14 0.115955 -3.93532)
(3.06963e-14 -0.12492 -3.95569)
(1.91786e-14 -1.22798 -4.69591)
(1.20598e-14 -0.311559 -4.10613)
(1.67383e-14 0.0645181 -3.61905)
(2.51487e-14 0.467455 -4.89439)
(8.07408e-15 -0.575687 7.12242)
(2.94773e-15 -2.7819 9.68377)
(3.1976e-15 -3.65226 9.53152)
(2.96736e-15 -4.92929 9.82705)
(5.11568e-15 -9.01355 13.9684)
(6.37391e-15 -7.14752 12.4217)
(4.80202e-15 -7.43299 13.072)
(4.76638e-15 -7.41566 13.1212)
(4.32899e-15 -7.54899 13.2648)
(4.14905e-15 -7.5962 13.3092)
(3.94193e-15 -7.66566 13.3589)
(3.69945e-15 -7.70747 13.4074)
(3.38351e-15 -7.74234 13.483)
(3.0046e-15 -7.7635 13.5846)
(2.625e-15 -7.77344 13.7013)
(2.22764e-15 -7.75974 13.7985)
(1.78691e-15 -7.71358 13.822)
(1.3664e-15 -7.64879 13.6693)
(1.34456e-16 -3.54728 8.39972)
(4.70922e-16 -4.62037 10.5425)
(3.72254e-17 -4.20769 10.1651)
(-2.26326e-18 -4.0408 9.71196)
(-1.27312e-16 -3.70383 8.42313)
(-2.34859e-16 -3.98218 4.98435)
(-6.19075e-16 -3.65234 -0.991239)
(-1.37343e-16 -3.1459 -4.73818)
(-4.71515e-16 -3.48776 -2.58683)
(-1.13794e-15 -2.9298 -3.80419)
(-2.10445e-15 -2.37396 -1.71225)
(-2.25673e-15 -1.99068 -1.79608)
(-3.37751e-15 -2.12149 -1.95048)
(-2.05529e-15 -1.43944 -0.99891)
(-2.27145e-15 -1.27667 -1.09796)
(-2.83451e-15 -1.36582 -1.38218)
(-1.47019e-15 -0.8709 -0.865937)
(-1.8468e-15 -0.732566 -0.855882)
(-2.18065e-15 -0.816798 -1.10557)
(-6.12816e-16 -0.41061 -0.803898)
(-9.01392e-16 -0.344033 -0.865655)
(-9.49871e-16 -0.161751 -0.860155)
(-1.97271e-15 -0.210557 -1.15339)
(-1.15425e-15 0.0840233 -0.892982)
(-5.81766e-16 0.323406 -0.844714)
(-1.09076e-15 0.0247589 -1.07888)
(-2.82242e-16 0.589925 -1.1098)
(2.04943e-13 0.574446 4.53558)
(1.74048e-13 -1.46253 4.1066)
(1.20957e-13 -2.27808 4.15999)
(9.72427e-14 -2.519 4.22998)
(5.51997e-14 -2.62289 4.21628)
(2.44347e-14 -2.55841 4.11615)
(3.03904e-15 -2.35116 3.88611)
(-6.61216e-15 -1.95407 3.48655)
(-6.89415e-15 -1.64868 2.88633)
(-2.8551e-15 -1.83651 2.23887)
(7.74391e-16 -2.21979 1.70621)
(1.97427e-15 -2.37262 1.26502)
(8.25765e-16 -2.07164 0.846025)
(-1.4937e-15 -1.21312 0.363634)
(-3.00759e-15 0.788125 -0.632116)
(-3.45253e-15 0.747402 -1.08216)
(-3.49906e-15 -0.142085 -1.28897)
(-2.85261e-15 -0.687161 -1.12128)
(-2.44964e-15 -0.822696 -1.17563)
(1.99569e-13 0.753069 4.67923)
(1.49091e-13 -1.49337 4.03379)
(1.16139e-13 -2.39001 4.17196)
(8.61444e-14 -2.54358 4.38628)
(4.54859e-14 -2.56984 4.3679)
(1.80088e-14 -2.41631 4.21803)
(-9.6876e-17 -2.08996 3.88995)
(-7.17249e-15 -1.55851 3.27368)
(-6.00632e-15 -1.2406 2.39797)
(-1.98522e-15 -1.58489 1.79844)
(1.0231e-15 -2.05377 1.58255)
(1.84827e-15 -2.15925 1.37822)
(6.0483e-16 -1.74487 1.0245)
(-1.5698e-15 -0.561413 0.257375)
(-3.0278e-15 1.11804 -1.11103)
(-3.45661e-15 1.01277 -1.58855)
(-3.63696e-15 -0.0429551 -1.89234)
(-3.20532e-15 -0.754989 -1.49148)
(-2.73278e-15 -0.865646 -1.19045)
(1.50051e-13 0.881315 5.32777)
(1.26078e-13 -1.29755 4.46476)
(1.12762e-13 -2.41233 4.21937)
(7.7343e-14 -2.58938 4.51582)
(3.48485e-14 -2.5475 4.57836)
(9.91266e-15 -2.33099 4.41554)
(-3.49566e-15 -1.91485 3.96099)
(-7.20548e-15 -1.26062 3.01936)
(-4.81979e-15 -0.946831 1.65905)
(-9.4888e-16 -1.39776 1.07727)
(1.75946e-15 -1.93013 1.3163)
(2.04154e-15 -2.08702 1.50657)
(3.36098e-16 -1.58571 1.29365)
(-1.8591e-15 0.0119662 0.227486)
(-3.11253e-15 1.35517 -1.12514)
(-2.83002e-15 1.14281 -2.00048)
(-3.0241e-15 -0.165573 -2.43296)
(-3.4148e-15 -0.979502 -1.87953)
(-3.06418e-15 -0.954202 -1.26355)
(1.07627e-13 1.04908 6.24163)
(9.68002e-14 -1.03096 5.30089)
(1.04219e-13 -2.38099 4.5415)
(7.39934e-14 -2.66555 4.68108)
(2.98863e-14 -2.549 4.7944)
(2.97281e-15 -2.20143 4.70191)
(-7.03337e-15 -1.59073 4.10788)
(-6.48195e-15 -0.699502 2.39659)
(-2.6989e-15 -0.668144 -0.28186)
(-3.34818e-15 -1.71191 -0.423431)
(-5.80596e-16 -2.28135 0.592398)
(1.44246e-15 -2.13816 1.56163)
(2.12938e-16 -1.39256 1.71244)
(-2.23451e-15 0.724202 0.464657)
(-1.84646e-15 1.84104 -1.30489)
(-2.93926e-16 1.50125 -2.75689)
(-3.81104e-16 -0.224655 -3.374)
(-2.62103e-15 -1.24135 -2.50855)
(-3.38311e-15 -1.13063 -1.46914)
(6.63727e-14 1.17602 7.30733)
(6.18532e-14 -0.632325 6.50546)
(8.41609e-14 -2.18377 5.26545)
(6.99574e-14 -2.66771 5.05296)
(3.20484e-14 -2.56172 5.05901)
(9.06628e-16 -2.05319 5.01856)
(-8.87059e-15 -0.999339 4.11841)
(3.61705e-15 0.56133 1.56206)
(2.14706e-14 0.382276 -0.596155)
(1.14487e-14 -1.39864 -2.1139)
(3.40338e-15 -2.77925 -1.24201)
(2.36935e-16 -2.59744 0.610028)
(-8.05686e-16 -1.21258 1.81208)
(-1.48647e-15 1.60698 0.531115)
(2.15287e-15 2.62131 -1.88187)
(4.44116e-15 2.06719 -3.29429)
(4.44219e-15 -0.124388 -3.99883)
(3.94019e-16 -1.66246 -3.25553)
(-2.70645e-15 -1.2222 -2.24956)
(3.6236e-14 1.24798 8.41444)
(3.03414e-14 -0.164823 8.01048)
(5.59332e-14 -1.84223 6.45489)
(5.83442e-14 -2.55523 5.79178)
(3.50929e-14 -2.54354 5.48302)
(5.0794e-15 -1.84001 5.27506)
(-2.60449e-15 -0.258076 4.15684)
(2.07356e-14 1.33739 2.71397)
(3.71171e-14 1.10437 2.14621)
(3.21952e-14 -1.599 -1.28304)
(1.79278e-14 -3.17141 -2.15215)
(6.9157e-15 -3.32073 -0.875)
(5.31873e-16 -1.41552 0.952554)
(2.92079e-15 2.24994 -0.076932)
(8.12823e-15 3.33096 -1.68456)
(8.51643e-15 2.46594 -1.69873)
(8.09213e-15 -0.239854 -2.22537)
(4.22527e-15 -2.06601 -2.48395)
(2.12655e-15 -1.76665 -3.28057)
(1.83517e-14 1.21699 9.50037)
(1.27101e-14 0.263092 9.68716)
(3.04152e-14 -1.34195 8.13675)
(3.93132e-14 -2.23243 7.0405)
(3.15521e-14 -2.35758 6.22433)
(1.2338e-14 -1.54811 5.62895)
(1.1754e-14 0.107076 4.85769)
(3.2599e-14 1.38439 5.02213)
(4.04098e-14 1.68455 5.30148)
(3.64066e-14 -0.148262 2.90173)
(2.86354e-14 -2.94869 -1.14424)
(1.82091e-14 -3.77927 -1.25213)
(7.82929e-15 -1.73239 0.0331034)
(1.02972e-14 2.40198 -0.118518)
(1.15266e-14 3.24594 1.2907)
(7.68424e-15 2.07958 3.15741)
(5.40773e-15 -0.0251458 2.45444)
(6.60291e-15 -0.59601 -1.32677)
(1.03047e-15 -0.00387184 -0.156355)
(1.13601e-14 1.03755 10.6163)
(9.05978e-15 0.457801 11.4945)
(1.38086e-14 -0.874097 10.2834)
(1.77523e-14 -1.76885 8.86439)
(1.86823e-14 -1.9911 7.39409)
(1.5072e-14 -1.30504 6.3142)
(2.36055e-14 -9.08484e-05 6.05459)
(3.82386e-14 1.15465 6.95901)
(3.90477e-14 1.92944 7.70367)
(3.27225e-14 1.19035 7.10921)
(2.82542e-14 -1.81085 3.2679)
(2.46638e-14 -3.74005 0.416023)
(1.67313e-14 -1.96086 -0.0447231)
(1.32356e-14 1.86468 2.48722)
(1.00082e-14 2.09893 6.5823)
(6.67265e-15 1.88487 8.15379)
(4.72518e-15 0.641953 7.80667)
(4.46551e-15 -1.97509 7.02826)
(3.94358e-15 -6.15179 9.94043)
(1.08644e-14 0.728353 11.7654)
(1.43983e-14 0.491046 13.309)
(9.52743e-15 -0.336636 12.6214)
(3.85022e-15 -1.03318 11.1585)
(5.34058e-15 -1.32597 9.16464)
(1.38488e-14 -0.99097 7.60775)
(2.87117e-14 -0.174073 7.15624)
(3.60742e-14 0.804204 7.68762)
(3.2207e-14 1.67322 8.70282)
(2.79764e-14 1.56815 10.0823)
(2.38428e-14 -0.388331 9.34763)
(2.05746e-14 -2.42203 5.9816)
(1.6668e-14 -2.10661 4.18737)
(1.14964e-14 -0.0769851 7.72183)
(1.0088e-14 0.942357 10.8428)
(9.26941e-15 1.48822 12.0218)
(6.65992e-15 0.662589 13.2303)
(4.94635e-15 -1.308 12.8454)
(5.89645e-15 -3.38563 11.5559)
(7.35327e-15 0.254167 12.7965)
(1.94719e-14 0.184914 14.8664)
(2.19596e-14 -0.0988077 14.7149)
(1.84358e-14 -0.390334 13.397)
(1.7074e-14 -0.582664 10.8494)
(2.05434e-14 -0.500573 8.29184)
(2.32975e-14 -0.0733747 6.80312)
(2.01263e-14 0.527399 7.04023)
(1.67761e-14 0.993245 8.89202)
(2.10525e-14 0.838258 11.9304)
(2.61744e-14 -0.354412 14.1743)
(2.36986e-14 -1.78614 13.4211)
(1.70492e-14 -2.20094 11.158)
(1.067e-14 -0.767097 10.0294)
(6.93469e-15 0.541398 9.56457)
(9.53423e-15 0.978988 10.3013)
(1.16227e-14 0.142397 11.2182)
(1.13975e-14 -1.26473 9.96693)
(1.15842e-14 -2.82315 6.06201)
(-2.50454e-14 -0.270842 12.7752)
(-2.55134e-14 -0.146129 14.7822)
(-2.21119e-14 0.213399 14.5612)
(-1.80773e-14 0.552547 13.2161)
(-1.52755e-14 0.735898 10.6579)
(-1.68367e-14 0.630437 8.02579)
(-1.72978e-14 0.290208 6.45195)
(-1.22268e-14 -0.0424835 6.82531)
(-5.80047e-15 -0.210576 8.93452)
(-3.60906e-15 -0.478049 12.2337)
(-2.72554e-15 -0.995486 15.3395)
(-3.96621e-15 -1.29431 16.1216)
(-8.18935e-15 -0.787744 13.9323)
(-1.17113e-14 0.512764 10.9965)
(-1.02254e-14 0.835787 10.492)
(-6.43653e-15 0.866945 11.4141)
(-2.52541e-15 0.759454 11.771)
(5.5165e-16 1.45368 10.0969)
(6.40399e-15 2.77543 6.05417)
(-2.99024e-14 -0.722782 11.7354)
(-2.30894e-14 -0.408248 13.1807)
(-8.29905e-15 0.482708 12.4156)
(-1.3932e-15 1.20648 10.9899)
(-5.19934e-16 1.51414 9.07096)
(-9.03446e-15 1.2016 7.49007)
(-2.46177e-14 0.409668 6.82976)
(-3.03669e-14 -0.448928 7.32311)
(-2.42096e-14 -1.11166 8.6628)
(-1.95873e-14 -1.70251 11.1452)
(-1.81713e-14 -1.87485 13.6579)
(-1.63687e-14 -1.20921 13.1716)
(-1.33671e-14 -0.128639 8.88434)
(-9.21102e-15 0.364002 6.16244)
(-5.19747e-15 0.386864 8.64693)
(-4.00596e-15 0.473672 11.1801)
(-3.64631e-15 0.460157 12.5144)
(-3.1583e-15 1.56151 12.5105)
(-1.33402e-15 3.32891 11.5985)
(-2.79499e-14 -1.01219 10.542)
(-2.3492e-14 -0.343974 11.2998)
(-9.00732e-15 1.00844 10.0251)
(-3.42242e-15 1.89075 8.67724)
(-2.02545e-16 2.12524 7.31856)
(-4.11378e-15 1.52564 6.34482)
(-2.12743e-14 0.316096 6.08612)
(-3.70324e-14 -0.81617 6.97408)
(-3.60781e-14 -1.71399 8.11577)
(-2.97298e-14 -2.45077 9.60085)
(-2.50405e-14 -1.84344 10.322)
(-2.3055e-14 0.475962 7.02549)
(-2.22637e-14 2.08395 1.9605)
(-1.62253e-14 0.863758 -0.26957)
(-1.2749e-14 -1.3428 -0.698562)
(-3.65444e-15 -0.765814 3.7745)
(-1.19844e-15 0.0738733 5.44992)
(-2.5512e-15 1.97627 6.42798)
(-2.81287e-15 6.07747 9.98494)
(-2.10532e-14 -1.16621 9.37289)
(-2.31454e-14 -0.10799 9.45336)
(-8.45223e-15 1.47869 7.92356)
(-2.85822e-15 2.32856 6.91999)
(3.89309e-16 2.45195 6.18528)
(-1.16442e-15 1.70846 5.69882)
(-1.5248e-14 0.155937 5.23705)
(-3.55825e-14 -1.23303 5.77379)
(-4.06271e-14 -2.12224 6.7624)
(-3.57576e-14 -2.58511 7.45075)
(-2.97763e-14 -0.944503 6.25127)
(-2.81954e-14 2.07032 1.70493)
(-2.10621e-14 2.96309 -0.236762)
(-9.34344e-15 1.56913 -0.543059)
(-9.53297e-15 -0.852477 -2.28246)
(-8.36703e-15 -1.75703 -2.23296)
(-5.21562e-15 -0.678809 -0.929323)
(-5.12234e-15 -0.221795 -2.32665)
(-2.22877e-15 -0.345071 -0.35768)
(-8.31946e-15 -1.18014 8.24749)
(-1.70621e-14 0.319777 7.76939)
(-3.01943e-15 1.94119 6.30705)
(3.20886e-16 2.61143 5.7352)
(6.92613e-16 2.60335 5.48564)
(1.68452e-16 1.90181 5.3205)
(-7.20784e-15 0.285349 4.5035)
(-2.7448e-14 -1.4322 4.06164)
(-3.91407e-14 -2.31643 4.63516)
(-3.92383e-14 -2.25193 4.79114)
(-3.40085e-14 0.415516 2.3039)
(-2.78412e-14 2.89671 -0.980808)
(-1.30097e-14 3.16829 -0.988124)
(-2.41093e-15 1.65509 -0.422453)
(-7.74549e-16 -0.555283 -1.16612)
(-5.34674e-15 -1.47906 -3.2558)
(-5.913e-15 -0.644591 -3.69591)
(-4.62111e-15 0.757959 -3.44327)
(-4.443e-15 1.05688 -4.22652)
(8.86922e-15 -1.0971 7.13746)
(-5.51717e-15 0.763746 6.31087)
(3.35905e-15 2.25109 5.18864)
(1.79461e-15 2.69912 5.04516)
(-5.98064e-16 2.61226 5.09433)
(-3.22753e-16 2.08854 5.07004)
(-1.40555e-15 0.73332 4.17733)
(-1.52357e-14 -1.35627 2.51068)
(-3.16742e-14 -2.3162 2.21605)
(-3.95198e-14 -1.70702 2.09549)
(-3.51467e-14 1.56262 -0.901091)
(-1.80948e-14 3.25998 -1.87182)
(-3.45194e-15 2.90297 -0.759607)
(1.46517e-15 1.41385 0.524517)
(8.37247e-16 -0.0800179 -0.0950346)
(-7.64005e-16 -0.790018 -2.03667)
(-2.05167e-15 -0.354124 -3.20182)
(-1.02039e-15 0.636243 -3.05966)
(-5.12847e-17 0.586822 -2.62524)
(2.566e-14 -0.964829 6.10153)
(6.74068e-15 1.13156 5.17474)
(6.43189e-15 2.41357 4.53072)
(7.01953e-16 2.67579 4.70808)
(-2.03682e-15 2.58569 4.84061)
(-1.09871e-15 2.25476 4.78369)
(4.59226e-16 1.35125 4.1119)
(-4.1132e-15 -0.745962 1.94948)
(-1.88184e-14 -2.05224 0.20738)
(-3.08145e-14 -1.17935 -0.254988)
(-2.23826e-14 1.46348 -2.19574)
(-5.76237e-15 3.00028 -1.7006)
(1.54822e-15 2.29454 0.31444)
(6.22149e-16 1.3197 0.928596)
(6.25236e-17 0.613773 -0.0162526)
(5.63198e-16 -0.165152 -1.15006)
(2.44242e-16 -0.132277 -2.09016)
(6.25945e-16 0.417852 -2.0994)
(5.83617e-16 0.539336 -1.51309)
(3.63498e-14 -0.796413 5.23473)
(1.35031e-14 1.37236 4.41346)
(5.23462e-15 2.4223 4.26164)
(-9.85621e-16 2.59425 4.5635)
(-2.56446e-15 2.57602 4.62335)
(-1.55824e-15 2.37718 4.48747)
(1.06991e-16 1.82734 4.05681)
(5.25566e-16 0.339124 2.55396)
(-5.87705e-15 -1.37101 -0.320129)
(-1.51006e-14 -0.765596 -1.44276)
(-5.89111e-15 1.53517 -2.33282)
(1.06498e-15 2.3231 -0.448121)
(8.87121e-16 1.86597 0.977897)
(1.92268e-16 1.55114 0.58643)
(2.61249e-16 0.972303 -0.178473)
(2.1443e-16 0.112324 -0.922182)
(3.59234e-16 -0.011041 -1.49485)
(3.32362e-16 0.349991 -1.57886)
(1.85147e-16 0.42598 -1.2398)
(3.62595e-14 -0.671983 4.63922)
(1.24066e-14 1.54125 4.05892)
(3.27524e-15 2.38691 4.2406)
(-1.19994e-15 2.55107 4.44253)
(-2.36223e-15 2.59784 4.41424)
(-1.89857e-15 2.45089 4.26899)
(-5.08413e-16 2.04434 3.96639)
(8.88813e-16 1.02237 3.16423)
(6.00963e-16 -0.538564 0.877979)
(-3.49965e-15 -0.296964 -1.42036)
(1.42139e-15 1.32933 -0.810011)
(1.19079e-15 1.74314 0.717217)
(4.52687e-16 1.92474 0.706983)
(4.21126e-16 1.76497 0.286226)
(2.70653e-16 1.17011 -0.201142)
(2.26788e-16 0.271439 -0.622776)
(2.0892e-16 0.0686549 -1.09742)
(1.98952e-16 0.281554 -1.17739)
(1.01138e-16 0.383104 -1.07125)
(2.38755e-14 -0.506985 4.55019)
(8.16733e-15 1.49572 4.16309)
(3.79105e-15 2.27736 4.22808)
(-4.10495e-16 2.53133 4.29161)
(-2.14006e-15 2.65596 4.26436)
(-2.18314e-15 2.59428 4.15372)
(-9.2814e-16 2.32251 3.92685)
(5.79964e-16 1.62466 3.52063)
(1.62998e-15 0.5092 2.62252)
(1.59034e-15 0.198678 1.12441)
(1.28121e-15 1.0674 0.961407)
(8.74099e-16 1.73794 0.761944)
(6.57118e-16 2.09713 0.442517)
(4.02398e-16 1.9785 0.191225)
(2.40674e-16 1.40249 -0.159483)
(2.07369e-16 0.498219 -0.397075)
(1.85949e-16 0.20966 -0.732019)
(1.70783e-16 0.350897 -0.842227)
(7.16496e-17 0.427689 -1.03436)
(1.03291e-16 8.55838 14.7572)
(-1.53986e-15 18.0281 29.9095)
(-1.56796e-15 19.0511 30.8968)
(-1.54e-15 17.2634 27.1108)
(-1.69432e-15 15.4106 23.7603)
(-2.23902e-15 14.3181 21.384)
(-2.36562e-15 13.3262 19.5169)
(-2.27932e-15 12.5693 18.016)
(-2.27079e-15 11.8307 16.668)
(-2.47456e-15 11.1263 15.3934)
(-2.72034e-15 10.4253 14.2053)
(-2.9982e-15 9.74777 13.0929)
(-3.23371e-15 9.07831 12.0654)
(-3.53727e-15 8.42764 11.1116)
(-3.92443e-15 7.7642 10.2271)
(-4.3477e-15 7.10149 9.36979)
(-4.72407e-15 6.35365 8.50455)
(-5.32886e-15 5.53385 7.5131)
(-5.59423e-15 4.42501 6.21702)
(-1.04138e-14 2.41348 3.60782)
(2.44102e-17 9.35115 15.8567)
(-1.33565e-15 17.8445 30.0271)
(-9.87418e-16 16.9684 28.9126)
(-1.02856e-15 14.492 24.3792)
(-1.3241e-15 12.7882 21.9521)
(-2.03691e-15 12.117 20.4073)
(-1.5278e-15 11.3366 19.2478)
(-1.31422e-15 10.7419 17.9044)
(-1.50477e-15 9.99344 16.6322)
(-1.69062e-15 9.33939 15.3236)
(-1.87995e-15 8.64063 14.0807)
(-2.19993e-15 7.98455 12.8522)
(-2.18624e-15 7.30967 11.6728)
(-2.61694e-15 6.65913 10.509)
(-2.90538e-15 5.96431 9.37941)
(-3.59285e-15 5.28717 8.20968)
(-3.73316e-15 4.45542 7.00631)
(-4.46897e-15 3.62165 5.54902)
(-5.74132e-15 2.15496 3.5967)
(-1.70649e-14 0.00461155 -0.683768)
(4.26971e-19 10.346 18.022)
(-5.13621e-16 18.4524 31.239)
(-3.61743e-16 17.0841 29.4319)
(-3.92528e-16 14.9551 25.2044)
(-4.61127e-16 13.4696 23.0368)
(-1.12785e-15 12.8069 21.4022)
(-5.92448e-16 11.8897 20.0573)
(-5.83099e-16 11.1962 18.5782)
(-6.36842e-16 10.3369 17.2141)
(-6.72697e-16 9.61227 15.8228)
(-6.84644e-16 8.82681 14.5163)
(-8.93287e-16 8.11138 13.2143)
(-8.90666e-16 7.3658 11.9654)
(-1.05439e-15 6.66421 10.7125)
(-1.18967e-15 5.9051 9.48707)
(-1.4471e-15 5.18471 8.19166)
(-1.65247e-15 4.2837 6.85317)
(-1.96453e-15 3.41697 5.24058)
(-2.78943e-15 1.86044 3.09729)
(-3.27871e-15 0.41026 0.0246405)
(-6.9157e-19 10.776 18.7576)
(1.11672e-16 18.4759 31.431)
(8.39437e-17 16.7858 29.0908)
(9.80745e-17 14.7214 24.9802)
(1.26903e-16 13.2716 22.9591)
(-6.5904e-16 12.5975 21.3385)
(-5.53312e-16 11.6332 20.0055)
(-6.05512e-16 10.9329 18.5074)
(-6.54338e-16 10.0383 17.1415)
(-7.23111e-16 9.31322 15.7356)
(-7.58695e-16 8.50773 14.4235)
(-8.86211e-16 7.79296 13.1042)
(-9.27291e-16 7.03439 11.8388)
(-1.16646e-15 6.33041 10.5474)
(-1.28917e-15 5.54653 9.27167)
(-1.52237e-15 4.80803 7.87623)
(-1.84996e-15 3.83213 6.40595)
(-2.34257e-15 2.90261 4.53086)
(-3.59159e-15 1.05107 1.99824)
(-1.44342e-14 -0.272082 -1.38133)
(2.23221e-19 11.1947 19.5219)
(-2.52177e-17 18.5665 31.7159)
(-1.88732e-17 16.7702 29.1238)
(-2.2893e-17 14.7907 25.1481)
(-2.99273e-17 13.3572 23.1153)
(1.47587e-16 12.6467 21.4683)
(1.363e-16 11.6885 20.1145)
(1.46347e-16 10.9677 18.6225)
(1.56138e-16 10.0875 17.2486)
(1.71952e-16 9.35198 15.8551)
(1.7933e-16 8.56011 14.5433)
(2.29489e-16 7.84155 13.2355)
(2.23574e-16 7.09039 11.9692)
(2.65597e-16 6.37688 10.6755)
(3.02665e-16 5.58776 9.37893)
(3.6753e-16 4.82085 7.95192)
(4.17524e-16 3.82331 6.4187)
(4.79689e-16 2.83912 4.46543)
(1.9244e-15 1.00761 1.92294)
(-1.41758e-14 -0.68289 -2.01167)
(-6.5183e-20 11.3434 19.7318)
(6.13213e-18 18.6236 31.912)
(4.98947e-18 16.8589 29.2692)
(5.80131e-18 14.8931 25.3048)
(7.4606e-18 13.4447 23.1891)
(-3.4025e-17 12.7015 21.515)
(-3.42328e-17 11.7797 20.145)
(-3.48587e-17 11.0429 18.673)
(-3.67872e-17 10.1989 17.2877)
(-4.05345e-17 9.44773 15.9045)
(-4.47644e-17 8.67276 14.5777)
(-5.52457e-17 7.93259 13.2626)
(-5.59377e-17 7.17223 11.9655)
(-6.44903e-17 6.41648 10.641)
(-7.40893e-17 5.59605 9.2886)
(-8.7772e-17 4.75858 7.80908)
(-9.84245e-17 3.71843 6.18715)
(-1.25663e-16 2.63055 4.15628)
(2.48257e-16 0.687853 1.36872)
(-1.35722e-14 -1.01604 -2.50758)
(2.16578e-20 11.482 19.8791)
(-1.62079e-18 18.9182 32.2912)
(-1.40649e-18 17.1886 29.7238)
(-1.5162e-18 15.2286 25.6861)
(-2.01864e-18 13.752 23.475)
(8.11545e-18 12.9924 21.7556)
(9.06681e-18 12.1106 20.3483)
(8.71507e-18 11.361 18.8739)
(9.2978e-18 10.5472 17.4534)
(1.04666e-17 9.7726 16.0433)
(1.1797e-17 8.98717 14.6605)
(1.353e-17 8.19908 13.2847)
(1.48191e-17 7.38836 11.9067)
(1.71966e-17 6.55569 10.5014)
(1.96458e-17 5.66463 9.05621)
(2.28626e-17 4.72904 7.49847)
(2.58843e-17 3.62304 5.78879)
(2.29933e-17 2.43153 3.70875)
(4.78065e-16 0.461583 0.851188)
(-1.09526e-14 -1.24199 -2.86204)
(-9.74116e-21 12.0645 20.7462)
(4.38093e-19 19.5786 32.9254)
(3.98321e-19 17.6527 30.2882)
(3.90532e-19 15.7989 26.2303)
(5.85408e-19 14.3228 24.0291)
(-1.91825e-18 13.5959 22.2604)
(-2.52101e-18 12.7512 20.7999)
(-2.39398e-18 12.0095 19.279)
(-2.55202e-18 11.2125 17.7799)
(-2.93794e-18 10.4064 16.2667)
(-3.26162e-18 9.56823 14.7436)
(-3.58164e-18 8.69166 13.2064)
(-4.05483e-18 7.77317 11.6533)
(-4.73453e-18 6.81295 10.075)
(-5.39918e-18 5.7901 8.45941)
(-6.18932e-18 4.70236 6.74507)
(-7.55323e-18 3.45962 4.88353)
(-1.32812e-17 2.08986 2.63714)
(2.91248e-16 0.0480292 -0.213319)
(-6.23272e-15 -1.49672 -3.4664)
(4.61124e-21 13.6545 23.5663)
(-1.13492e-19 20.5845 33.8673)
(-1.11393e-19 18.0185 30.802)
(-9.98568e-20 16.5714 27.0333)
(-1.72889e-19 15.1674 25.0937)
(4.06789e-19 14.5843 23.3294)
(6.81135e-19 13.7858 21.8544)
(6.96107e-19 13.104 20.2567)
(7.23705e-19 12.3126 18.6219)
(8.16651e-19 11.457 16.8899)
(9.0319e-19 10.5143 15.0884)
(9.81643e-19 9.49332 13.2373)
(1.09631e-18 8.40302 11.3582)
(1.26096e-18 7.24629 9.45559)
(1.43879e-18 6.00167 7.51949)
(1.69912e-18 4.65968 5.4886)
(1.19813e-18 3.15415 3.33327)
(6.70862e-18 1.40389 0.634996)
(6.39183e-17 -0.910832 -2.2788)
(-1.93927e-15 -2.14251 -5.49223)
(-1.70645e-21 16.0534 28.3946)
(2.78465e-20 21.2477 34.4652)
(2.99881e-20 17.8347 31.0732)
(2.57788e-20 17.2225 28.111)
(4.81675e-20 15.8713 26.7174)
(-7.45237e-20 15.5654 25.086)
(-1.6467e-19 14.7711 23.7611)
(-1.90284e-19 14.1889 22.1144)
(-1.98741e-19 13.306 20.313)
(-2.15354e-19 12.3207 18.2489)
(-2.35644e-19 11.172 16.0574)
(-2.56819e-19 9.93013 13.776)
(-2.81518e-19 8.58433 11.4406)
(-3.10831e-19 7.12052 9.04293)
(-3.49965e-19 5.52027 6.58976)
(-4.03264e-19 3.77407 4.05787)
(-1.00028e-18 1.94656 1.64603)
(5.93036e-18 -0.0762939 -1.3781)
(-3.95271e-17 -2.55523 -4.34581)
(-8.06433e-17 -3.24977 -7.82104)
(4.86742e-22 17.7493 32.4879)
(-6.87544e-21 20.2556 33.088)
(-7.7049e-21 16.7746 30.6536)
(-6.4281e-21 16.9284 28.6427)
(-1.29681e-20 15.3906 27.7405)
(1.53154e-20 15.252 26.3352)
(3.88892e-20 14.221 25.2854)
(4.78455e-20 13.5212 23.5526)
(5.09276e-20 12.1691 21.5044)
(5.47574e-20 10.7781 19.0079)
(5.8741e-20 9.1378 16.4027)
(6.14923e-20 7.41881 13.6042)
(8.03266e-20 5.46689 10.5631)
(1.6431e-19 3.31769 7.24095)
(2.1798e-19 1.11013 3.72647)
(-3.5672e-19 -1.32604 -0.0171301)
(-3.53898e-18 -2.9416 -2.56376)
(-5.35402e-18 -2.84137 -3.56736)
(7.39415e-17 -5.57323 -6.71916)
(3.66358e-16 -4.54924 -8.85551)
(-1.08676e-22 17.2776 32.3354)
(1.77222e-21 18.0741 30.1816)
(1.9345e-21 15.4505 29.0992)
(2.07643e-21 15.393 27.2864)
(2.73798e-21 13.7688 26.4316)
(-4.60475e-21 13.349 25.1614)
(-1.05909e-20 12.0705 24.0979)
(-1.29098e-20 10.9537 22.2419)
(-1.34158e-20 9.2063 19.9838)
(-1.42129e-20 7.48282 17.3377)
(-1.91961e-20 5.5602 14.5927)
(-2.63855e-20 3.53454 11.5435)
(1.94046e-20 1.25749 8.18898)
(2.01528e-19 -0.974448 4.86788)
(1.81711e-19 -2.73467 2.20503)
(-1.03244e-18 -3.88162 0.271452)
(-1.79027e-18 -4.76451 -1.67828)
(1.05705e-17 -5.12539 -3.40597)
(5.84132e-17 -3.74789 -2.61356)
(1.05419e-16 -0.446819 1.07286)
(1.11901e-23 15.5677 29.2853)
(-4.44701e-22 17.0327 28.3173)
(-5.06942e-22 14.0918 26.7755)
(-6.10048e-22 13.9633 24.5453)
(-3.95663e-22 12.0538 23.5904)
(1.56991e-21 11.4792 22.0115)
(2.94376e-21 9.96306 20.8376)
(3.50892e-21 8.74229 19.022)
(4.20013e-21 7.0345 16.9864)
(4.67648e-21 5.39399 14.6097)
(6.74596e-22 3.57887 12.014)
(-6.55748e-21 1.6713 9.04441)
(3.22539e-20 -0.218322 5.9882)
(2.1062e-19 -1.53599 3.65055)
(4.1288e-19 -1.849 2.77141)
(4.50201e-20 -1.1347 3.41777)
(-1.40165e-18 0.718832 5.73941)
(-3.21145e-18 3.93596 9.79488)
(-4.42761e-18 7.31422 13.6683)
(-5.92162e-18 6.22265 12.3563)
(-2.09588e-24 14.8858 28.1791)
(1.04712e-22 17.529 27.8167)
(1.20694e-22 13.91 25.9921)
(1.50327e-22 14.421 23.0809)
(8.95346e-23 12.1867 22.0337)
(-4.07828e-22 11.954 19.8067)
(-7.73763e-22 10.4365 18.4173)
(-9.10445e-22 9.67357 16.6038)
(-8.87203e-22 8.51342 14.998)
(-5.19567e-22 7.5843 13.2409)
(2.7094e-22 6.60192 11.4882)
(-1.38652e-21 5.77444 9.73248)
(-1.44764e-20 5.19896 8.24279)
(-4.63581e-20 4.95516 7.20497)
(-8.75569e-20 5.01833 6.74314)
(-1.03806e-19 5.50453 7.18879)
(-1.22792e-20 6.47159 8.53268)
(3.27908e-19 7.27703 10.3234)
(9.33638e-19 7.65459 11.1526)
(1.19016e-18 5.4917 9.34031)
(7.18344e-25 15.1697 29.0373)
(-2.34493e-23 18.4301 28.7453)
(-2.84399e-23 14.5047 26.9899)
(-3.56812e-23 15.2444 24.0246)
(-2.69635e-23 13.153 22.9676)
(7.61806e-23 12.9846 20.8359)
(1.71749e-22 11.7787 19.3658)
(2.16876e-22 11.1329 17.6606)
(2.19433e-22 10.3391 16.1639)
(1.79658e-22 9.67955 14.7218)
(1.04664e-22 9.0737 13.3678)
(1.2777e-22 8.53029 12.0782)
(7.93303e-22 8.02534 10.8071)
(2.80454e-21 7.50458 9.51385)
(6.19722e-21 6.93617 8.20516)
(1.07222e-20 6.32272 7.01076)
(1.42611e-20 5.69567 6.1375)
(1.81731e-21 5.08274 5.60565)
(-7.84983e-20 3.99655 4.91367)
(-2.98751e-19 2.07377 2.2149)
(-1.56971e-25 15.6734 30.5717)
(5.17669e-24 18.9869 29.1321)
(5.85344e-24 14.7988 27.8886)
(7.1056e-24 15.9133 25.0083)
(6.52893e-24 13.7174 24.0072)
(-1.38737e-23 13.6439 21.9619)
(-3.60416e-23 12.5086 20.5638)
(-4.76931e-23 11.9001 18.9238)
(-5.04883e-23 11.1308 17.4185)
(-5.4087e-23 10.4381 15.9113)
(-6.89334e-23 9.75452 14.4472)
(-7.54843e-23 9.08399 13.0079)
(-2.33435e-23 8.3995 11.5719)
(8.92087e-23 7.6689 10.0904)
(1.56252e-22 6.81575 8.51566)
(-4.94388e-23 5.82286 6.79684)
(-9.15754e-22 4.59587 5.04252)
(-2.65656e-21 3.28051 3.0547)
(-7.41275e-22 1.17086 0.73187)
(-3.14704e-20 -0.361471 -3.04068)
(8.02377e-26 15.6825 31.7138)
(-1.3113e-24 18.9648 28.7698)
(-1.87947e-24 14.5452 28.3697)
(-2.51536e-24 15.9843 25.5923)
(-3.21748e-24 13.6275 24.7151)
(9.71278e-25 13.6362 22.7705)
(7.44304e-24 12.4742 21.5001)
(1.23176e-23 11.9519 19.977)
(9.89285e-24 11.2219 18.6274)
(-1.72036e-24 10.6362 17.2547)
(-3.58761e-24 10.0501 15.9218)
(4.67376e-23 9.47705 14.5438)
(1.86961e-22 8.81034 13.0097)
(4.18964e-22 7.92876 11.1365)
(7.1855e-22 6.65609 8.76297)
(1.05458e-21 4.92592 5.83215)
(1.30262e-21 2.98309 3.14367)
(1.46851e-21 1.20318 0.598864)
(1.33041e-21 -1.64703 -2.22852)
(1.35932e-20 -2.40722 -6.74858)
(5.10372e-27 14.5598 31.336)
(2.5097e-25 18.3397 28.1098)
(7.1106e-26 13.6761 28.047)
(-1.45589e-25 14.6223 25.6997)
(-7.00628e-25 12.5549 24.7786)
(-1.93678e-24 12.1323 23.2006)
(-1.80033e-24 11.043 22.0117)
(-2.19167e-24 10.3598 20.7133)
(-1.13613e-23 9.59252 19.5356)
(-2.95665e-23 8.96083 18.3753)
(-1.86342e-23 8.34392 17.2456)
(1.03704e-22 7.71149 15.9966)
(4.02445e-22 6.88904 14.3806)
(8.66895e-22 5.66733 12.0176)
(1.50774e-21 3.74075 8.41697)
(2.43691e-21 0.8316 3.12611)
(3.36089e-21 -2.06104 -2.46642)
(3.87661e-21 -2.87606 -4.1989)
(5.86821e-21 -4.40511 -5.72773)
(1.1377e-20 -3.25259 -7.03124)
(8.66942e-27 11.335 28.7139)
(-1.37372e-25 16.9901 25.1676)
(-3.44199e-25 12.0199 25.5617)
(-6.67289e-25 12.5958 23.9013)
(-8.04516e-25 10.8449 23.1889)
(-2.29148e-25 10.134 22.1409)
(1.21317e-24 9.1043 21.2628)
(1.33514e-24 8.28458 20.3528)
(-5.29018e-24 7.47102 19.4849)
(-1.85003e-23 6.73656 18.631)
(-1.79263e-23 6.03918 17.7791)
(3.24951e-23 5.34746 16.8498)
(1.55071e-22 4.58672 15.6911)
(3.68662e-22 3.68058 14.1045)
(7.8921e-22 2.58997 11.9241)
(1.64987e-21 1.38164 9.07318)
(2.96226e-21 0.228076 5.6682)
(4.1368e-21 -0.769524 2.23447)
(4.51869e-21 -1.57122 -0.666961)
(3.59578e-21 -1.34068 -2.05907)
(1.17721e-26 2.6114 17.0772)
(3.53819e-26 8.04415 13.6773)
(-8.46985e-27 5.16476 14.5414)
(-1.49864e-25 4.97316 14.1555)
(-3.61285e-25 4.04379 14.1231)
(-3.61421e-25 3.47146 13.9572)
(4.68568e-25 2.88547 13.8087)
(2.24971e-24 2.40217 13.6278)
(2.13161e-24 1.9785 13.4299)
(-8.04603e-24 1.63008 13.2173)
(-3.83697e-23 1.361 13.0096)
(-8.91552e-23 1.18542 12.8297)
(-1.42366e-22 1.11158 12.689)
(-1.75762e-22 1.14735 12.5566)
(-1.93201e-22 1.29516 12.3585)
(-2.22851e-22 1.50701 12.0337)
(-2.63042e-22 1.81799 11.4931)
(-2.57631e-22 2.52754 10.4475)
(-1.70979e-22 2.77207 8.92736)
(-4.94671e-23 -0.125404 6.76926)
(-1.0618e-26 -2.61128 17.077)
(-3.3832e-26 -8.04408 13.677)
(9.67314e-27 -5.16471 14.5411)
(1.54248e-25 -4.97316 14.1552)
(3.69908e-25 -4.04382 14.1228)
(3.60482e-25 -3.47153 13.9569)
(-5.23617e-25 -2.88558 13.8084)
(-2.40213e-24 -2.4023 13.6275)
(-2.27161e-24 -1.97867 13.4295)
(8.41958e-24 -1.6303 13.217)
(4.01969e-23 -1.36133 13.0094)
(9.33472e-23 -1.1859 12.8298)
(1.49078e-22 -1.11217 12.6892)
(1.84445e-22 -1.14795 12.5568)
(2.03894e-22 -1.29565 12.3584)
(2.36848e-22 -1.50733 12.0333)
(2.80501e-22 -1.81811 11.4925)
(2.74379e-22 -2.52739 10.4468)
(1.80707e-22 -2.77168 8.9265)
(5.08443e-23 0.125706 6.76855)
(-1.17337e-26 -11.3348 28.7134)
(1.26316e-25 -16.9897 25.1671)
(3.42713e-25 -12.0195 25.5612)
(6.74955e-25 -12.5954 23.9009)
(8.14825e-25 -10.8445 23.1886)
(1.99067e-25 -10.1336 22.1405)
(-1.3336e-24 -9.10384 21.2625)
(-1.45629e-24 -8.28407 20.3526)
(5.5289e-24 -7.47046 19.4848)
(1.93965e-23 -6.73595 18.631)
(1.87634e-23 -6.03845 17.7791)
(-3.40863e-23 -5.34653 16.8496)
(-1.62735e-22 -4.58562 15.6905)
(-3.88681e-22 -3.67958 14.1039)
(-8.37882e-22 -2.58959 11.924)
(-1.75976e-21 -1.38229 9.07414)
(-3.16264e-21 -0.229765 5.67053)
(-4.40118e-21 0.766856 2.23853)
(-4.74134e-21 1.56804 -0.662513)
(-3.66481e-21 1.33888 -2.05525)
(2.28489e-27 -14.5597 31.3356)
(-2.10465e-25 -18.3392 28.1098)
(-5.75359e-26 -13.676 28.047)
(1.61605e-25 -14.6218 25.6998)
(7.31982e-25 -12.5546 24.7788)
(1.96667e-24 -12.1317 23.201)
(1.74583e-24 -11.0425 22.0122)
(2.12002e-24 -10.3591 20.714)
(1.17603e-23 -9.59177 19.5364)
(3.08062e-23 -8.95999 18.3764)
(1.90709e-23 -8.34286 17.2466)
(-1.09402e-22 -7.70984 15.997)
(-4.22028e-22 -6.88638 14.3796)
(-9.08009e-22 -5.66338 12.0146)
(-1.58417e-21 -3.73528 8.41149)
(-2.59112e-21 -0.825813 3.11934)
(-3.65747e-21 2.06295 -2.46676)
(-4.25828e-21 2.87775 -4.19714)