/*--------------------------------*- C++ -*----------------------------------*\
| =========                 |                                                 |
| \\      /  F ield         | OpenFOAM: The Open Source CFD Toolbox           |
|  \\    /   O peration     | Version:  4.1                                   |
|   \\  /    A nd           | Web:      www.OpenFOAM.org                      |
|    \\/     M anipulation  |                                                 |
\*---------------------------------------------------------------------------*/
FoamFile
{
    version     2.0;
    format      ascii;
    class       volScalarField;
    location    "18";
    object      p;
}
// * * * * * * * * * * * * * * * * * * * * * * * * * * * * * * * * * * * * * //

dimensions      [0 2 -2 0 0 0 0];

internalField   nonuniform List<scalar> 
1280
(
147.606
-61.5376
-30.4367
-35.765
-24.4735
-24.079
-24.443
-23.8979
-23.61
-27.614
-28.0328
-26.1057
-29.0035
-30.5378
-29.3826
-31.5705
-32.4305
-31.7038
-25.6129
-26.7617
-23.0981
-16.3574
-8.87175
-4.7861
-1.02577
5.82566
11.655
42.5503
45.7383
49.301
52.9318
56.6816
60.7028
64.9451
69.4826
74.128
79.272
84.1151
91.1672
94.2027
85.394
88.7466
88.7107
89.5519
86.0146
85.3798
85.3853
85.3645
85.2295
85.7535
85.6228
85.2485
79.7469
76.9966
74.8247
72.2402
48.2638
42.3783
29.5534
-17.4066
29.8259
29.6679
21.6475
15.7154
9.78653
6.57901
4.62029
3.79063
3.00016
1.90349
0.662137
-0.56548
-2.87912
-45.1372
-2.81027
-8.013
-8.93927
-15.4965
-36.8669
-56.3844
-64.6318
-54.4428
-59.2203
-54.7993
-49.866
-47.4374
-44.2785
-41.0386
-42.6213
-41.2348
-40.0535
-35.508
-27.919
-29.7936
-32.4359
-32.0863
-119.158
-63.8529
-299.396
380.889
50563.8
-8187.71
-11369.1
-194.639
-960.865
-150.296
5.83816
15.8631
2.24075
-26.9978
-69.3185
-96.1323
-67.6018
-4.5475
66.4712
73.6269
89.9328
-1.9408
60.6939
-31879.3
-2265.63
-6047.56
-660.785
-443.834
-120.904
-37.1063
-6.44416
-4.91654
-12.7721
-32.9645
-52.9843
-97.6399
-84.5045
-68.0922
-42.4227
-45.3375
-48.7629
-53.354
393.22
-4619.73
-84.174
-684.11
-362.017
-103.133
-51.3973
-4.30207
-6.38083
-7.66671
-12.0232
-37.9777
-105.621
-99.0359
-44.8165
-8.41835
6.88605
-30.9693
-26.4512
-8117.33
-5056.57
-1720.61
-112.969
-284.319
-100.505
-80.6161
-8.41213
-1.41665
-8.0897
-36.4125
-89.0163
-177.643
-176.959
-117.562
-50.4079
-24.9963
-40.1909
-47.8013
-2231.59
-3439.91
-628.781
-53.5159
-251.993
-144.466
-110.965
2.02532
36.4636
22.4304
-46.0854
-123.537
-242.01
-245.761
-158.395
-56.0635
-11.3228
-29.5211
-44.8757
-2584.1
-3003.82
-85.7499
-181.885
-247.929
-160.627
-125.881
19.0321
79.4103
74.4193
-52.415
-154.746
-308.651
-318.869
-214.092
-74.154
-10.0475
-22.7766
-56.8388
-867.024
-1968.49
419.892
-219.83
-269.165
-184.892
-106.252
34.57
98.4956
112.441
-66.9768
-182.978
-349.709
-354.187
-244.04
-71.2704
9.88593
-0.697359
-51.0167
-302.492
-1431.69
793.535
-191.298
-257.945
-160.91
-74.6191
37.5506
90.8947
116.028
-85.2841
-204.948
-363.598
-369.722
-253.223
-59.9807
36.6307
48.3724
20.5018
306.149
-872.721
1153.86
-41.7111
-99.1316
-33.5652
-38.6567
5.35823
40.618
73.0202
-109.231
-225.416
-366.23
-366.917
-237.916
-38.9291
61.2143
88.1799
87.5319
434.369
-611.982
1314.96
105.177
68.8437
115.295
7.44771
-37.8696
-41.7591
1.47173
-135.775
-239.784
-357.569
-348.59
-205.076
-9.95537
69.4986
99.8959
94.5674
367.052
-645.21
1170.2
27.5045
113.673
210.987
42.3564
-53.3585
-78.329
-60.3263
-156.352
-246.494
-335.374
-312.739
-155.362
25.7204
74.0497
86.2731
83.0253
89.1306
-993.177
716.108
-2.7682
99.3334
160.434
38.7201
-55.0271
-95.1966
-109.979
-167.957
-234.782
-284.458
-242.942
-91.6596
65.1836
73.0359
68.6854
83.88
-591.155
-1507.07
349.591
9.42113
73.5373
120.925
23.9455
-55.867
-124.719
-143.811
-173.439
-203.829
-218.633
-172.459
-49.8386
92.5628
90.4635
61.3379
61.6658
-1180.94
-2294.57
6.38974
79.6474
-4.67021
69.6636
3.2472
-58.9215
-143.062
-156.929
-183.873
-177.657
-163.185
-119.707
-30.0821
90.1829
89.9431
37.3098
-0.3728
-3138
-3349.87
-207.619
174.694
-70.0566
32.1257
-21.5722
-62.4155
-142.801
-174.036
-202.941
-184.458
-151.872
-107.163
-36.0077
63.3669
64.5899
20.5608
-10.5731
-2567.07
-3489.02
-390.804
332.369
-155.79
6.74813
-48.5959
-66.8858
-140.112
-185.539
-205.154
-174.861
-129.355
-88.7765
-36.6191
44.3823
43.7673
8.10188
-8.21058
-8640.61
-5763.53
-1747.27
408.837
-151.567
41.809
-55.2234
-62.7987
-120.785
-185.016
-210.965
-199.672
-154.106
-111.679
-61.7036
8.92435
13.8061
-4.61998
-15.0945
-219.946
-5206.39
-163.589
-855.24
-241.669
59.9807
-33.7155
-34.0137
-59.5226
-128.737
-185.996
-165.172
-111.127
-58.7153
-2.81483
48.9436
35.2691
7.68969
-6.81749
-33566.5
-1403.05
-6521.29
-1341.93
-449.5
-66.9484
-91.5473
-99.6239
-78.5519
-133.247
-235.121
-215.101
-178.354
-154.651
-130.432
-79.9631
-41.7866
-22.1444
-30.6058
50785.9
-8467.63
-12542.4
-317.178
-929.536
-284.959
-154.634
-171.01
-147.442
-123.579
-78.9798
-38.0508
55.4759
194.655
263.079
217.416
131.15
52.5451
42.1119
72.2878
71.1634
70.451
69.5157
68.5002
67.3295
66.1819
65.8279
66.0393
66.1599
66.4239
66.7844
67.2575
67.8245
68.5117
69.2876
70.1837
71.2003
72.2673
73.7317
62.7925
63.0505
63.1729
63.323
63.4877
63.6021
63.7303
63.8076
63.9051
64.0137
64.1289
64.2452
64.3816
64.5133
64.6726
64.8149
64.9982
65.1421
65.3113
65.524
67.6444
67.4412
67.3758
67.2359
67.1426
67.0342
66.9515
66.8735
66.8175
66.7645
66.7337
66.7047
66.6974
66.6874
66.7022
66.7036
66.7383
66.7342
66.8091
66.7882
66.9674
66.928
66.9159
66.8817
66.8694
66.8358
66.8182
66.7863
66.7655
66.7361
66.7156
66.6883
66.6717
66.6458
66.6363
66.6099
66.6109
66.5806
66.5981
66.5656
68.2505
68.1628
68.1373
68.0707
68.0348
67.978
67.9383
67.8874
67.8469
67.7996
67.7601
67.7145
67.6777
67.6318
67.5998
67.5506
67.5263
67.4694
67.4585
67.3857
68.6676
68.6048
68.5887
68.5389
68.5145
68.4705
68.4414
68.4009
68.3692
68.3305
68.298
68.2596
68.2282
68.1883
68.1602
68.1161
68.0945
68.0425
68.0323
67.9661
69.4001
69.3318
69.3133
69.2603
69.233
69.1868
69.155
69.1129
69.0788
69.0388
69.0041
68.9646
68.931
68.8902
68.8597
68.815
68.7909
68.7382
68.7257
68.6584
69.9658
69.9039
69.8876
69.839
69.8144
69.772
69.743
69.7043
69.6728
69.6361
69.6037
69.5675
69.5358
69.4983
69.4695
69.4281
69.4053
69.3561
69.3443
69.2812
70.5676
70.507
70.4905
70.443
70.4187
70.3773
70.3487
70.3111
70.2801
70.2445
70.2126
70.1778
70.1464
70.1106
70.0819
70.0424
70.0196
69.9726
69.9606
69.8998
71.122
71.0646
71.0489
71.0038
70.9805
70.9413
70.914
70.8783
70.8486
70.815
70.7843
70.7516
70.7211
70.6876
70.6596
70.6227
70.6003
70.556
70.5442
70.4864
71.6641
71.6091
71.5937
71.5504
71.5278
71.4902
71.4637
71.4295
71.4008
71.3688
71.3388
71.3079
71.278
71.2466
71.2188
71.1843
71.1619
71.1202
71.1082
71.0531
72.1793
72.127
72.112
72.0708
72.0491
72.0132
71.9878
71.9552
71.9276
71.8972
71.8683
71.8392
71.81
71.7808
71.7533
71.7214
71.6989
71.66
71.6479
71.5956
72.6739
72.6241
72.6095
72.5702
72.5492
72.5149
72.4905
72.4594
72.4328
72.4039
72.376
72.3485
72.3201
72.293
72.2657
72.2364
72.2137
72.1778
72.1653
72.1158
73.1469
73.0998
73.0854
73.048
73.0277
72.9949
72.9715
72.9417
72.9162
72.8886
72.8617
72.8357
72.808
72.7828
72.7556
72.729
72.7058
72.673
72.6598
72.6132
73.5983
73.5544
73.5405
73.5053
73.4861
73.4551
73.4329
73.4047
73.3804
73.3543
73.3285
73.3039
73.2772
73.2538
73.2267
73.2028
73.1787
73.1493
73.135
73.0914
74.0172
73.9767
73.9632
73.9306
73.9131
73.8841
73.8637
73.838
73.8154
73.7917
73.7681
73.7455
73.7209
73.6999
73.6737
73.6536
73.6287
73.6037
73.5881
73.5486
74.4123
74.375
74.3603
74.328
74.3118
74.2834
74.2633
74.239
74.2169
74.1944
74.1721
74.1507
74.128
74.1086
74.0841
74.0682
74.0426
74.0243
74.0085
73.9743
74.8117
74.7844
74.7731
74.7407
74.7277
74.7022
74.6825
74.6599
74.6377
74.6149
74.5913
74.5675
74.5424
74.5185
74.4903
74.47
74.4359
74.4208
74.3946
74.357
75.0858
75.0767
75.0918
75.0712
75.0714
75.0641
75.0594
75.0541
75.0485
75.0421
75.0344
75.025
75.013
74.9982
74.9779
74.9569
74.9184
74.8971
74.8251
74.7682
75.0512
74.9929
75.031
75.0417
75.0592
75.0769
75.0958
75.1165
75.1392
75.1642
75.1921
75.2231
75.2579
75.2967
75.3402
75.3893
75.442
75.5106
75.5519
75.7151
756.176
673.702
624.631
568.581
519.749
472.689
428.968
387.707
348.894
312.23
277.526
244.57
213.15
183.189
154.71
126.949
99.9984
77.5836
52.4234
17.6064
69.8834
47.9415
56.2019
45.4937
42.9988
36.6388
31.9399
26.8988
22.5251
18.5978
15.365
12.9092
11.381
10.9099
11.6495
13.4564
16.0966
20.3905
25.2297
26.6957
66.3285
59.6388
68.1956
61.5473
64.0849
61.155
60.4461
58.4108
56.7156
54.7291
52.8017
50.9268
49.2954
48.0239
47.0783
46.3429
45.8875
45.5491
44.9643
43.8751
61.5835
55.859
57.6027
50.1945
49.8516
44.6807
42.2354
38.4796
35.5088
32.3881
29.5949
27.003
24.7762
22.9109
21.2812
19.6894
18.0309
16.0483
12.8946
10.6336
10.6651
5.46332
6.32164
1.13865
1.45096
-2.52361
-3.63173
-6.50433
-8.44962
-10.9539
-13.2739
-15.7105
-17.9711
-19.9164
-21.4004
-22.6084
-23.5388
-23.9344
-24.5967
-22.944
-8.27089
-11.104
-8.91983
-12.0057
-10.0814
-12.4898
-11.7897
-13.107
-13.2869
-14.0022
-14.4072
-14.7451
-14.7354
-14.1518
-12.8997
-11.0879
-9.16396
-6.82345
-5.09492
-1.53443
12.5939
12.6598
15.8466
14.8045
18.1628
17.8842
20.3043
21.1961
22.9985
24.5328
26.2683
28.0673
29.9507
31.9538
34.032
36.2576
38.4671
41.0322
43.1882
46.5235
40.8242
42.4307
45.3429
45.2805
48.5043
49.0049
51.4102
52.7543
54.6054
56.2828
57.9894
59.6876
61.3576
63.0254
64.6817
66.406
68.1161
70.0114
71.5317
73.4474
67.9065
69.7159
71.841
71.978
74.4306
74.8413
76.6287
77.5108
78.7073
79.633
80.4772
81.2243
81.9577
82.7944
83.8494
85.1407
86.5645
88.036
89.1421
90.2754
81.7195
83.4184
84.7562
85.1332
86.9675
87.4566
89.0939
90.047
91.3983
92.4792
93.5479
94.4117
95.0049
95.1035
94.5567
93.3218
91.9599
90.8115
90.815
90.4718
103.024
102.42
102.979
102.207
102.938
102.249
102.509
101.709
101.046
99.5597
97.5666
94.6416
90.8018
86.1075
81.117
76.5063
72.9948
71.3507
71.0159
67.6816
64.715
59.3004
57.3218
53.2154
50.8011
46.9313
43.9615
40.288
37.2031
34.0823
31.5183
29.2559
27.5033
26.173
25.2992
24.6962
24.1668
23.7487
22.2419
18.621
13.6567
7.69483
5.60402
1.68037
-1.05913
-4.87475
-8.09462
-11.9616
-15.5271
-19.2585
-22.7862
-26.2565
-29.4776
-32.3132
-34.5165
-36.0341
-36.7554
-36.6791
-36.6739
-34.5037
-8.51111
-10.8025
-11.8257
-13.9066
-15.0346
-16.9392
-18.3015
-20.0741
-21.5011
-22.8272
-23.6952
-24.0814
-23.8361
-22.8605
-21.1565
-18.7289
-16.0151
-13.0399
-10.7922
-7.053
2.45986
3.82066
6.1279
7.72725
9.61948
11.0771
12.8769
14.5596
16.4191
18.341
20.3808
22.5333
24.775
27.1015
29.4193
31.7528
33.9067
36.1523
37.9229
40.6662
23.6321
26.0363
29.2437
32.0092
34.5772
36.6723
38.8351
40.7795
42.6885
44.4847
46.183
47.785
49.2769
50.6812
51.9686
53.2098
54.3046
55.4895
56.3332
57.5145
44.0226
46.6398
48.3464
50.1866
51.7703
53.1182
54.5226
55.7443
56.9545
58.0774
59.15
60.1816
61.1792
62.1733
63.1581
64.2022
65.2134
66.3938
67.2613
68.5352
73.3253
74.6084
74.3892
74.9612
75.2168
75.5283
75.8969
76.2099
76.5794
76.9544
77.3818
77.8695
78.4357
79.0815
79.8055
80.6102
81.4488
82.3869
83.0416
83.923
74.2869
76.0266
75.3411
75.949
76.2078
76.8306
77.4145
78.0299
78.6777
79.2908
79.8718
80.3561
80.7111
80.8807
80.9386
80.9473
81.1679
81.5325
82.0229
82.2842
117.841
116.786
114.515
112.638
109.707
106.712
103.62
100.812
97.8783
95.1856
92.7538
90.5923
88.7434
87.1856
85.9092
84.8191
84.1448
83.4315
83.1897
81.9734
)
;

boundaryField
{
    outletWall
    {
        type            fixedValue;
        value           uniform 0;
    }
    fineWalls
    {
        type            zeroGradient;
    }
    fineFrontAndBack
    {
        type            zeroGradient;
    }
    fineplugLeft
    {
        type            cyclicAMI;
        value           nonuniform List<scalar> 
20
(
77.8259
76.0472
73.7833
72.0014
70.2557
68.7058
67.2486
65.9465
64.7638
63.7255
62.7881
61.9791
61.1724
59.9818
55.0287
54.595
54.6553
54.5864
53.6593
53.2106
)
;
    }
    fineplugRight
    {
        type            cyclicAMI;
        value           nonuniform List<scalar> 
20
(
71.5439
72.4853
71.0747
70.459
69.8125
70.0432
70.6725
71.7529
73.0739
74.5837
76.2809
78.1895
80.0739
86.7051
84.8076
86.1629
88.3223
88.5128
86.0557
82.9957
)
;
    }
    inletOutletLeft
    {
        type            cyclicAMI;
        value           nonuniform List<scalar> 
20
(
77.8259
76.0472
73.7833
72.0014
70.2557
68.7058
67.2486
65.9465
64.7638
63.7255
62.7881
61.9791
61.1724
59.9818
55.0287
54.595
54.6553
54.5864
53.6593
53.2106
)
;
    }
    inletLeft
    {
        type            zeroGradient;
    }
    inletWallsLeft
    {
        type            zeroGradient;
    }
    inletFacesLeft
    {
        type            zeroGradient;
    }
    inletOutletRight
    {
        type            cyclicAMI;
        value           nonuniform List<scalar> 
20
(
71.5439
72.4853
71.0747
70.459
69.8125
70.0432
70.6725
71.7529
73.0739
74.5837
76.2809
78.1895
80.0739
86.7051
84.8076
86.1629
88.3223
88.5128
86.0557
82.9957
)
;
    }
    inletRight
    {
        type            zeroGradient;
    }
    inletWallsRight
    {
        type            zeroGradient;
    }
    inletFacesRight
    {
        type            zeroGradient;
    }
}


// ************************************************************************* //
