/*--------------------------------*- C++ -*----------------------------------*\
| =========                 |                                                 |
| \\      /  F ield         | OpenFOAM: The Open Source CFD Toolbox           |
|  \\    /   O peration     | Version:  4.1                                   |
|   \\  /    A nd           | Web:      www.OpenFOAM.org                      |
|    \\/     M anipulation  |                                                 |
\*---------------------------------------------------------------------------*/
FoamFile
{
    version     2.0;
    format      ascii;
    class       surfaceScalarField;
    location    "18";
    object      phi;
}
// * * * * * * * * * * * * * * * * * * * * * * * * * * * * * * * * * * * * * //

dimensions      [0 3 -1 0 0 0 0];

internalField   nonuniform List<scalar> 
2360
(
-20489.2
-3416.54
-17072.7
-3416.34
-3416.33
-76.9906
-3339.15
-76.7069
-76.3908
-76.2456
4078.47
-4154.65
4078.52
4078.58
6195.99
-2117.41
6196.03
6196
7397.89
-1201.81
7397.89
7397.98
5430.23
1967.82
5430.35
5430.39
5994.66
6973.98
7969.41
8939.2
9907.31
10881.1
-2429.73
14319.9
-1386.12
-347.216
689.432
1723.92
2756.5
3786.42
4813.97
5837.9
6858.23
7874.82
8912.94
9977.24
10612.4
-2091.39
12703.8
-2091.35
-2091.36
-2091.35
376.287
-2467.68
376.234
376.112
376.095
30.2657
345.514
29.6127
29.3943
-5612.95
5642.33
-5612.95
-5612.97
-5612.96
-15567.9
9954.9
-15567.9
-15567.9
-15567.8
-26986.3
11418.4
-26228.9
-25266.2
-24365.2
-23617.9
-23010.3
-22477.3
-21933.2
-21314.2
-20590.7
-19763.2
-18839.5
-17828.4
-16736.6
-22298.5
6735.69
-21065.2
-19717.4
-18205.6
-16543.2
-14958.4
-14222.4
-14222.4
-14222.4
-11632.4
-2589.98
-11632.4
-11632.4
-7562.15
-4070.28
-7562.17
-7562.16
-2842.58
-4719.6
-2842.59
-2842.61
6169.49
-9012.09
6169.47
6169.48
6169.47
17899.1
-11729.6
17899.1
17899.1
31459.8
-13560.8
-85330.8
-376924
101038
-26653.2
-69329.1
305673
-45802.5
-13176.3
3094.96
10564.7
-11739.6
31800.8
-5940.95
-7400.47
5014.06
-14973.5
6325.71
-3324.3
3080.06
9984.23
457.855
16625.9
-5270.34
21480.9
-12007.8
17681
-10763.5
886.393
-2531.49
-19056.3
8031.91
-22330.6
13739
-18240.6
24320.4
-10466.5
1488.7
-72122.6
-255557
-63249.5
-35526.3
-39073
281496
-44305.3
-7943.99
-9215.91
-24524.7
-10461.3
33046.1
-5590.53
-12271.2
-163.044
-20401
5552.17
-9039.52
4348.21
11188.2
-2072.72
23046.8
-9003.44
28411.6
-10826.7
19504.3
-7679.6
-2260.67
-4551.65
-22184.3
-467.466
-26414.8
3701.58
-22409.6
9563.34
-16328.2
-677.576
23465.6
-279832
658.679
-12719.4
17194.8
264960
-18705
27955.8
-21406.8
-21822.9
-10171.4
21810.8
-6863.97
-15578.6
-1863.56
-25401.4
4278.24
-15181.3
1813.2
13653.2
-5437.46
30297.5
-10457.8
33432
-12540.9
21587.3
-11146.2
-3655.34
-6991.65
-26338.9
-2031.52
-31375
3759.98
-28201.1
6699.63
-19267.9
-2990.03
-44245.7
-218682
-38246.5
-18718.7
7399.65
219314
-4456.85
39812.3
-16487.3
-9792.49
-10520.7
15844.1
-7366.84
-18732.5
-3520.41
-29247.8
1271.73
-19973.5
-1686.83
16611.8
-7519.97
36130.7
-10740.9
36652.9
-12828.4
23674.8
-12453.7
-4029.96
-9509.73
-29282.9
-5534.45
-35350.3
-664.841
-33070.7
3091.39
-23024.1
-4618.23
-16476.8
-196240
-23686.9
-11508.5
3724.24
191903
-7123.89
50660.4
-16219.8
-696.535
-7394.18
7018.47
-3382.7
-22744
-2831.32
-29799.2
-1267.08
-21537.7
-3934.42
19279.1
-7892.48
40088.7
-10063.3
38823.8
-11907.3
25518.8
-12197.1
-3740.22
-10276.1
-31203.9
-7476.88
-38149.4
-3423.62
-37124
1152.13
-27599.9
-7536.36
-33654.6
-154885
-33604.2
-11558.9
1446.22
156853
-6988.4
59095
-12583.8
4898.87
879.962
-6445.3
6604.98
-28469
3921.16
-27115.4
-53.2175
-17563.3
-3199.24
22425.2
-5799.87
42689.3
-6861.54
39885.4
-7776.83
26434.1
-8500.02
-3017.03
-7855.24
-31848.7
-7109.39
-38895.3
-5739.08
-38494.3
-1796.6
-31542.3
-11922.9
-32178.1
-119407
-31583.7
-12153.4
2446.42
122822
-1063.21
62604.7
-2900
6735.66
14276.1
-23621.4
18590.7
-32783.6
14595.4
-23120
5010.76
-7978.7
116.391
27319.5
-1641.86
44447.6
-1992.4
40236
-1703.52
26145.2
-2131.25
-2589.31
-1956.09
-32023.8
-2907.91
-37943.5
-5800.07
-35602.2
-5945.75
-31396.7
-11133
-38831.9
-79052.1
-35669.7
-15315.6
5080.55
82072.2
16950
50735.3
20434.5
3251.15
27854
-31040.9
30063.9
-34993.5
25018.7
-18074.9
12266.5
4773.58
5284.02
34302
3817.07
45914.5
3750.52
40302.5
4786.21
25109.5
5833.47
-3636.58
5441.5
-31631.9
4079.35
-36581.3
-2191.46
-29331.4
-9201.16
-24387
-8915.72
-42524.4
-38706.3
-37997.1
-19842.9
8276.86
35798.2
29910.9
29101.2
36226
-3063.95
35540.5
-30355.5
33590.8
-33043.8
29790.5
-14274.5
18409.7
16154.4
11458.8
41252.8
10511.5
46861.9
10974.4
39839.6
12487.8
23596.1
14154.2
-5302.97
12826.3
-30303.9
10911.9
-34667
5315.71
-23735.2
-5546.93
-13524.3
-4507.76
-44061.2
-378.588
-40676.4
-23227.7
10806.9
-15685.2
33768.2
6139.98
37005.2
-6300.96
26972.2
-20322.5
21238.7
-27310.3
23874.5
-16910.3
21988.5
18040.4
17818.1
45423.2
17147.3
47532.7
18135.9
38851
20597.1
21134.8
22599.1
-7304.94
19882.6
-27587.4
15616.6
-30401.1
11868.7
-19987.3
2293.26
-3948.92
3427.75
-42953.8
37612.6
-39716.4
-26465.1
10038.8
-65440.4
28183.6
-12004.8
22464.6
-581.996
11583.1
-9440.97
8166.44
-23893.6
15068.7
-23812.6
24001.6
9107.43
25793.2
43631.6
25635.7
47690.3
26941
37545.7
30201.1
17874.7
31005.1
-8108.91
25668.5
-22250.8
18170.7
-22903.3
12447.9
-14264.4
5553.49
2945.43
9326.81
-39723.8
76641.1
-37513.2
-28675.7
4573.75
-107527
-4568.95
-2862.09
-10966
5815.09
680.477
-21087.5
3439.24
-26652.4
8691.08
-29064.4
21777.1
-3978.62
32191.4
33217.4
36107.7
43774
38730.7
34922.7
40656.1
15949.3
37421.8
-4874.57
28613.8
-13442.9
17963
-12252.5
9902.24
-6203.67
5276.85
7570.82
12136
-36948.2
116496
-37541.6
-28082.2
-8870.9
-136198
-14873.2
3140.23
-15712.5
6654.4
-5867.22
-30932.8
-2278.54
-30241
1807.48
-33150.5
14087.6
-16258.7
30540.9
16764.1
39985.3
34329.6
44350.8
30557.1
44222.8
16077.3
37899.2
1449.03
27083.1
-2626.75
12277.8
2552.89
-3429.6
9503.69
-11188.4
15329.7
13651.4
-33668.5
154568
-39104.8
-22646
-14765.4
-160537
-14095.3
2470.19
-15722.2
8281.28
-10164.5
-36490.5
-7124.81
-33280.7
-2489.21
-37786.1
7315.43
-26063.4
21977.4
2102.07
33701.2
22605.8
39217
25041.4
38596.5
16697.8
32295.3
7750.21
21902.9
7765.67
6228.31
18227.4
-8436.96
24169
-13318.5
20211.3
14652.8
-31316.3
195186
-40247.9
-13714.5
-16611
-184174
-12068.5
-2072.33
-13269.7
9482.49
-11194.6
-38565.6
-10461.4
-34013.9
-7474.18
-40773.3
-114.995
-33422.5
11473
-9485.92
22805.3
11273.5
28702.6
19144.1
28680.7
16719.7
23661.3
12769.6
14353.4
17073.6
1408.34
31172.5
-6625.58
32202.9
-6747.94
20333.7
9872.78
-15339.4
217362
-33360.8
4306.91
-13109
-204426
-2204.49
-12976.8
-8481.34
15759.3
-9127.85
-37919.1
-11199.6
-31942.2
-11979.8
-39993.1
-6209.02
-39193.3
3192.99
-18887.9
11701.1
2765.41
17429.3
13415.8
18840.5
15308.5
15544
16066.1
7055.78
25561.8
-1351.86
39580.1
-2436.48
33287.6
30.6391
17866.6
8701.8
-45062.2
280274
-48842.9
8087.61
9092.1
-262361
18829.8
-22714.6
-1034.23
35623.4
-5007.81
-33945.5
-8791.9
-28158.1
-13784.7
-35000.3
-12212.4
-40765.6
-3976.5
-27123.9
3918.38
-5129.47
9029.6
8304.59
10826.3
13511.8
7195.2
19697.2
-61.6702
32818.7
-2758.06
42276.5
390.345
30139.2
2746.35
15510.7
9330.75
32489.3
248234
5323.65
35253.3
34401.6
-291439
8740.64
2946.37
-4469.8
48833.9
-2387.64
-36027.7
-5056.78
-25488.9
-11659.4
-28397.7
-16755.8
-35669.2
-12890.2
-30989.4
-5461.1
-12558.6
-193.146
3036.63
1564.28
11754.4
-1445.45
22706.9
-4217.56
35590.8
-1006.72
39065.7
3297.08
25835.4
3676.16
15131.6
8852.33
-68878.1
369682
-65711.2
32086.3
-40460.7
-316690
-47931.1
10416.8
-1403.35
2306.08
-860.69
-36570.3
-2138.17
-24211.5
-6078
-24457.9
-15984.4
-25762.8
-21299.7
-25674.1
-16863.4
-16995
-8294.58
-5532.15
-5698.29
9158.09
-7798.49
24807.1
-7847.54
35639.8
-3933.06
35151.2
-1285.36
23187.7
344.408
13501.9
5857.61
-91822
99685.6
-73908
-47741.6
11086.7
1014.96
-495.471
-643.034
-6700.62
-18722
-27501.9
-28595.6
-24189.2
-15777.4
-4422.74
6645.23
12637.3
18259.1
14.9845
-579.112
107.331
-1071.55
170.329
-1058.34
221.955
-1021.35
271.363
-1017.44
315.7
-1018.16
319.346
-1012.65
282.725
-1006.51
250.978
-1006.75
221.878
-1007.14
195.008
-1007.55
170.266
-1007.66
147.628
-1007.33
127.171
-1007
108.921
-1005.75
93.04
-1004.41
80.0223
-1003.67
76.128
-1034.27
68.1457
-1056.38
-567.033
16.4723
-595.576
1.01356
-1056.08
-26.5737
-1030.75
-47.3867
-1000.52
-63.4676
-1001.36
-78.96
-1002.66
-85.6965
-1005.91
-84.8812
-1007.31
-83.6936
-1007.94
-82.6748
-1008.15
-81.7645
-1008.46
-80.7061
-1008.72
-79.2007
-1008.83
-76.9999
-1009.2
-73.7774
-1008.97
-69.1742
-1009.01
-63.4459
-1009.4
-59.0364
-1038.68
-49.3922
-1066.02
-616.425
26.8113
-622.383
32.1579
-1061.43
32.3861
-1030.97
33.6289
-1001.76
33.8029
-1001.53
32.886
-1001.73
28.9128
-1001.93
23.3626
-1001.76
17.7279
-1002.3
12.1206
-1002.54
6.65162
-1002.99
1.31716
-1003.38
-3.82995
-1003.68
-8.78134
-1004.25
-13.4151
-1004.34
-17.6406
-1004.79
-22.3092
-1004.73
-30.4872
-1030.5
-28.8116
-1067.7
-645.236
22.1802
-644.561
21.7523
-1061
14.261
-1023.48
10.5986
-998.096
7.89826
-998.826
5.3285
-999.162
3.37856
-999.981
1.71021
-1000.09
0.0190938
-1000.61
-1.70959
-1000.81
-3.49222
-1001.21
-5.33378
-1001.54
-7.19626
-1001.82
-9.12743
-1002.32
-11.0481
-1002.42
-13.0003
-1002.83
-15.0274
-1002.71
-19.7051
-1025.83
-20.5794
-1066.82
-665.816
21.9535
-666.513
21.6395
-1060.68
17.0365
-1018.87
15.0072
-996.065
13.0423
-996.86
10.9635
-997.081
8.67804
-997.694
6.33604
-997.745
3.96523
-998.237
1.59644
-998.443
-0.762431
-998.85
-3.12006
-999.178
-5.44068
-999.5
-7.76756
-999.987
-10.0237
-1000.16
-12.2343
-1000.62
-14.5569
-1000.38
-19.282
-1021.1
-20.4628
-1065.64
-686.279
21.4088
-687.922
20.1867
-1059.46
15.2216
-1013.91
13.0305
-993.874
11.0528
-994.882
9.03647
-995.065
7.01909
-995.677
5.02067
-995.747
3.00078
-996.218
0.971128
-996.413
-1.07231
-996.807
-3.14241
-997.108
-5.21055
-997.432
-7.32437
-997.874
-9.4122
-998.075
-11.5144
-998.521
-13.6978
-998.201
-18.3669
-1016.43
-20.3009
-1063.71
-706.58
21.1412
-709.063
19.2577
-1057.57
14.7101
-1009.36
12.7103
-991.874
10.8014
-992.973
8.85173
-993.115
6.85847
-993.683
4.87259
-993.761
2.86587
-994.211
0.857758
-994.405
-1.1566
-994.793
-3.18642
-995.078
-5.20511
-995.413
-7.25859
-995.82
-9.27813
-996.055
-11.3084
-996.491
-13.3732
-996.136
-17.8145
-1011.99
-20.3207
-1061.2
-726.9
20.9242
-729.988
18.3828
-1055.03
14.0435
-1005.02
12.1436
-989.975
10.2942
-991.125
8.41529
-991.238
6.50412
-991.774
4.60408
-991.862
2.68251
-992.29
0.759328
-992.483
-1.1733
-992.861
-3.12224
-993.13
-5.06397
-993.472
-7.04189
-993.843
-8.98945
-994.108
-10.9564
-994.525
-12.9174
-994.175
-17.155
-1007.75
-20.272
-1058.09
-747.172
20.7496
-750.738
17.5635
-1051.85
13.486
-1000.95
11.6919
-988.181
9.90104
-989.334
8.08772
-989.424
6.24099
-989.927
4.4056
-990.027
2.54838
-990.433
0.691778
-990.626
-1.17487
-990.994
-3.05483
-991.25
-4.92817
-991.599
-6.83512
-991.936
-8.71194
-992.231
-10.6135
-992.623
-12.4731
-992.315
-16.4699
-1003.76
-20.1874
-1054.37
-767.36
20.5861
-771.324
16.7671
-1048.03
12.9459
-997.125
11.2481
-986.484
9.51775
-987.604
7.77209
-987.679
5.99411
-988.149
4.22803
-988.262
2.43932
-988.645
0.65266
-988.84
-1.14593
-989.196
-2.95563
-989.441
-4.76102
-989.794
-6.59789
-990.1
-8.40623
-990.423
-10.2449
-990.785
-12.0122
-990.548
-15.7631
-1000
-20.0803
-1050.05
-787.44
20.4336
-791.758
15.9866
-1043.58
12.4303
-993.569
10.8211
-984.875
9.15143
-985.935
7.47246
-986
5.76184
-986.439
4.0633
-986.563
2.34152
-986.923
0.623326
-987.122
-1.10866
-987.464
-2.84902
-987.701
-4.58767
-988.055
-6.35496
-988.333
-8.09567
-988.683
-9.87135
-989.009
-11.5533
-988.866
-15.0504
-996.508
-19.9644
-1045.14
-807.404
20.2872
-812.047
15.2165
-1038.51
11.9287
-990.282
10.4017
-983.349
8.79341
-984.328
7.18114
-984.389
5.53799
-984.797
3.90691
-984.933
2.25199
-985.269
0.60207
-985.473
-1.06373
-985.799
-2.73493
-986.031
-4.40783
-986.383
-6.1057
-986.635
-7.77995
-987.009
-9.49259
-987.297
-11.0956
-987.264
-14.3355
-993.268
-19.8441
-1039.63
-827.248
20.1485
-832.196
14.4561
-1032.82
11.4406
-987.267
9.98973
-981.898
8.44416
-982.782
6.89877
-982.844
5.32319
-983.221
3.75942
-983.37
2.17135
-983.682
0.589273
-983.892
-1.01068
-984.2
-2.61296
-984.429
-4.22108
-984.775
-5.84944
-985.007
-7.45844
-985.4
-9.1076
-985.648
-10.6377
-985.734
-13.6191
-990.287
-19.7202
-1033.53
-846.969
20.0197
-852.216
13.7045
-1026.51
10.9638
-984.527
9.58439
-980.52
8.10343
-981.302
6.62601
-981.368
5.11857
-981.715
3.62266
-981.875
2.10213
-982.162
0.587776
-982.378
-0.946015
-982.667
-2.47932
-982.896
-4.02359
-983.232
-5.58187
-983.45
-7.12738
-983.856
-8.71227
-984.064
-10.1756
-984.271
-12.8991
-987.564
-19.59
-1026.84
-866.559
19.9101
-872.127
12.9647
-1019.56
10.5007
-982.064
9.18898
-979.209
7.77446
-979.888
6.36646
-979.96
4.92718
-980.276
3.49915
-980.447
2.04668
-980.71
0.599203
-980.931
-0.867982
-981.2
-2.33256
-981.432
-3.81361
-981.751
-5.30035
-981.963
-6.78417
-982.372
-8.30259
-982.546
-9.70426
-982.87
-12.1721
-985.097
-19.4464
-1019.56
-886.005
19.8436
-891.971
12.2546
-1011.97
10.0738
-979.884
8.83245
-977.968
7.48871
-978.545
6.15442
-978.627
4.78379
-978.906
3.42212
-979.086
2.03578
-979.324
0.65
-979.546
-0.755066
-979.796
-2.15778
-980.03
-3.58214
-980.327
-5.00185
-980.544
-6.43255
-980.942
-7.88412
-981.095
-9.23132
-981.523
-11.4484
-982.88
-19.2856
-1011.73
-905.291
19.8667
-911.838
11.6129
-1003.72
9.74382
-978.015
8.60036
-976.825
7.34872
-977.294
6.11042
-977.389
4.82641
-977.622
3.54327
-977.803
2.23295
-978.014
0.912685
-978.226
-0.42979
-978.453
-1.77806
-978.682
-3.15585
-978.95
-4.5258
-979.175
-5.93025
-979.538
-7.33387
-979.691
-8.66795
-980.189
-10.6725
-980.875
-19.0376
-1003.36
-924.328
20.076
-931.914
11.1012
-994.745
9.58896
-976.503
8.60382
-975.84
7.4821
-976.172
6.3703
-976.277
5.20156
-976.454
4.01628
-976.618
2.79845
-976.797
1.55711
-976.985
0.288565
-977.185
-0.997814
-977.396
-2.31897
-977.629
-3.64003
-977.854
-5.02095
-978.157
-6.37991
-978.333
-7.75936
-978.81
-9.59891
-979.036
-18.4203
-994.542
-942.749
20.7985
-952.713
11.069
-985.016
9.96405
-975.398
9.25086
-975.127
8.35642
-975.278
7.43106
-975.352
6.42276
-975.446
5.35127
-975.547
4.21211
-975.658
3.00794
-975.781
1.74066
-975.918
0.416088
-976.072
-0.96813
-976.245
-2.38566
-976.436
-3.87482
-976.668
-5.32847
-976.879
-6.87888
-977.259
-8.5313
-977.384
-17.5629
-985.51
-960.312
22.2871
12.2709
11.8724
11.7454
11.4672
11.1152
10.6693
10.122
9.46418
8.68313
7.76508
6.69342
5.44852
4.01213
2.34401
0.464893
-1.79462
-4.17827
-14.6885
-669.477
1644.5
-1081.06
1386.6
-1501.49
1395.45
-1835.14
1308.66
-2128.23
1268.11
-2369.1
1215.88
-2566.06
1171.97
-2718.97
1127.92
-2830.24
1086.28
-2900.96
1045.73
-2932.11
1006.17
-2923.23
966.127
-2871.4
923.176
-2770.62
874.227
-2612.24
816.626
-2385.46
748.229
-2072.06
661.608
-1626.3
529.24
-965.998
314.707
9.00266
-182.534
1827.05
-416.004
1620.09
-662.966
1642.43
-869.591
1515.3
-1067.74
1466.28
-1234.79
1382.94
-1380.41
1317.61
-1500.36
1247.88
-1596.98
1182.91
-1668.09
1116.86
-1709.16
1047.24
-1711.2
968.183
-1664.85
876.834
-1565.15
774.539
-1412.5
663.984
-1205.21
540.955
-929.248
385.65
-556.837
156.838
-140.828
-101.268
-131.825
-159.709
1986.78
-352.667
1813.07
-506.864
1796.64
-630.357
1638.81
-744.141
1580.08
-833.916
1472.73
-913.755
1397.47
-979.732
1313.88
-1035.79
1238.98
-1077.04
1158.12
-1092.5
1062.71
-1060.15
935.843
-957.764
774.459
-786.566
603.354
-578.702
456.137
-352.634
314.907
-102.821
135.878
99.4716
-45.4048
191.565
-193.31
59.7409
-66.8564
2053.65
-158.47
1904.69
-232.744
1870.93
-299.973
1706.05
-369.746
1649.86
-428.829
1531.82
-491.051
1459.7
-548.583
1371.42
-607.651
1298.06
-664.668
1215.15
-717.519
1115.58
-754.489
972.826
-756.908
776.892
-711.096
557.557
-630.111
375.172
-535.333
220.15
-455.932
56.5004
-381.042
-120.272
-300.116
-274.207
-240.375
15.4037
2038.26
-52.4747
1972.59
-81.661
1900.13
-104.998
1729.41
-127.593
1672.47
-141.417
1545.67
-153.298
1471.6
-157.018
1375.16
-155.842
1296.91
-150.098
1209.43
-147.243
1112.75
-159.446
985.059
-197.109
814.591
-249.353
609.84
-285.389
411.258
-294.294
229.119
-293.707
55.9784
-301.933
-112.001
-259.194
-316.911
-499.568
127.898
1910.37
86.9934
2013.5
109.583
1877.55
143.692
1695.31
188.073
1628.1
236.093
1497.66
294.247
1413.46
360.065
1309.36
436.796
1220.19
520.125
1126.12
603.046
1029.83
666.195
921.921
683.488
797.305
638.791
654.549
547.881
502.177
432.59
344.424
305.998
182.586
202.701
-8.68695
73.0538
-187.25
-426.514
171.852
1738.53
167.892
2017.48
206.949
1838.51
260.789
1641.49
328.017
1560.89
391.845
1433.85
463.6
1341.72
537.513
1235.47
618.494
1139.22
702.762
1041.87
786.784
945.823
860.009
848.711
907.801
749.522
915.143
647.218
875.553
541.777
788.832
431.158
655.056
316.369
460.311
186.069
233.793
39.2824
-192.721
139.474
1599.06
169.923
1987.03
211.86
1796.57
265.761
1587.59
329.91
1496.74
390.483
1373.28
454.632
1277.57
518.275
1171.82
582.442
1075.05
643.512
980.798
699.064
890.268
745.444
802.333
778.709
716.254
793.761
632.168
784.243
551.293
739.069
476.333
644.224
411.214
481.323
348.971
253.082
267.525
60.361
62.8839
1536.21
110.755
1939.2
161.337
1746.02
213.503
1535.47
269.18
1441.09
327.334
1315.16
387.266
1217.67
451.621
1107.5
520.548
1006.15
597.984
903.39
683.754
804.523
775.338
710.77
865.583
626.032
941.567
556.2
982.041
510.84
957.782
500.606
843.728
525.284
625.801
566.915
328.66
564.694
389.021
-33.5577
1569.76
17.7078
1887.93
61.5047
1702.22
76.0983
1520.87
83.8256
1433.36
80.4419
1318.54
72.4097
1225.69
71.0313
1108.88
90.5598
986.617
142.574
851.37
229.561
717.53
350.033
590.292
495.557
480.505
648.436
403.317
777.028
382.245
835.199
442.433
774.774
585.709
578.511
763.178
288.365
854.841
677.386
-173.191
1742.95
-236.543
1951.27
-302.601
1768.28
-419.243
1637.5
-553.767
1567.89
-711.799
1476.57
-878.498
1392.4
-1040.48
1270.86
-1180.16
1126.3
-1290.34
961.555
-1369.16
796.355
-1412.21
633.356
-1410.75
479.048
-1352.58
345.15
-1225.47
255.145
-1017.12
234.081
-725.264
293.854
-388.917
426.829
-116.346
582.267
561.039
-25.6537
1768.56
-182.311
2107.89
-327.788
1913.72
-462.156
1771.83
-599.871
1705.57
-747.444
1624.11
-902.197
1547.12
-1062.7
1431.33
-1227.57
1291.15
-1394.8
1128.75
-1563.04
964.565
-1727.51
797.803
-1876.83
628.341
-1987.03
455.331
-2018.22
286.314
-1914.11
129.953
-1634.68
14.4096
-1165.04
-42.8246
-533.747
-49.0409
27.2918
330.631
1437.91
300.98
2137.52
153.977
2060.7
55.8136
1869.97
4.55733
1756.81
-29.6562
1658.29
-57.042
1574.48
-93.0843
1467.33
-144.678
1342.71
-213.656
1197.69
-294.707
1045.59
-384.342
887.398
-480.361
724.337
-579.229
554.164
-670.854
377.916
-737.691
196.761
-759.444
36.1465
-696.888
-105.393
-464.547
-281.398
-437.255
520.108
917.783
700.896
1956.72
647.341
2114.24
600.909
1916.38
621.981
1735.72
678.762
1601.49
754.153
1499.07
826.575
1394.89
885.047
1284.22
919.833
1162.88
930.51
1034.9
915.394
902.492
871.604
768.11
793.547
632.201
675.756
495.684
516.569
355.923
338.433
214.248
184.864
48.1333
44.6973
-141.271
-392.558
349.463
568.3
480.577
1825.59
494.361
2100.45
507.306
1903.42
553.75
1689.26
622.049
1533.17
701.437
1419.67
779.963
1316.35
850.28
1213.89
905.209
1107.94
940.957
999.135
954.473
888.96
943.224
779.346
904.257
671.152
834.924
565.001
732.984
457.849
598.725
348.49
424.512
222.322
215.306
67.9046
-177.253
29.2451
539.032
24.3682
1830.46
71.7281
2053.07
136.565
1838.57
205.607
1620.2
277.89
1460.87
351.237
1346.3
421.901
1245.67
486.062
1149.71
539.761
1054.22
579.512
959.366
602.563
865.895
607.382
774.507
593.707
684.813
562.27
596.416
512.283
507.819
437.993
422.762
326.068
334.225
162.296
231.629
-14.9577
-138.817
677.84
-169.121
1860.76
-85.6463
1969.59
-0.227344
1753.15
72.0635
1547.9
140.164
1392.77
207.993
1278.46
272.664
1180.99
331.212
1091.15
381.409
1004.02
422.045
918.718
453.445
834.486
477.661
750.278
496.832
665.631
509.829
583.405
505.765
511.871
464.234
464.283
360.957
437.49
185.239
407.323
170.281
-126.18
804.008
-136.777
1871.35
-38.5707
1871.38
69.6036
1644.97
166.745
1450.75
250.906
1308.6
326.558
1202.8
397.368
1110.17
464.036
1024.47
527.47
940.574
589.187
856.988
651.209
772.454
714.965
686.508
776.894
603.693
820.647
539.638
814.441
518.068
728.999
549.715
550.226
616.253
299.996
657.536
470.277
13.3362
790.661
33.3693
1851.31
43.0625
1861.68
48.7297
1639.29
61.3255
1438.15
76.2271
1293.69
101.962
1177.05
136.242
1075.88
181.754
978.945
241.769
880.546
319.415
779.325
417.087
674.767
532.564
571.013
647.371
488.869
725.515
461.475
724.314
519.254
622.891
651.122
430.343
808.783
204.963
882.892
675.239
54.7125
321.225
520.558
648.04
738.457
798.819
802.049
786.123
753.898
710.763
662.476
613.752
565.634
510.341
438.792
350.358
254.174
161.944
82.1028
)
;

boundaryField
{
    outletWall
    {
        type            calculated;
        value           nonuniform List<scalar> 
60
(
31459.8
9270.99
-114.969
12533.5
11767.2
10824.3
-2130.64
-10943.6
-15752.7
-14003.7
-6738.58
2012.66
4018.46
1601.86
-16966.2
-59462.2
-10350.3
-135306
-159715
398495
63655.8
-52569.7
-449.847
-17849.2
-6837.45
-9301.48
-4403.54
-2906.5
695.285
4962.66
5733.46
2178.7
-1523.27
-3299.48
-7700.95
-5964.41
-16904.4
808.779
-49243.7
63759.2
20489.3
7044.02
7880.06
17195.7
24083.2
24285.1
16395.4
4751.69
-4438.4
-8215.14
-13652.7
-19705.2
-24310.3
-22701
-26498.5
-56522.3
-15749.6
-143096
-159421
397848
)
;
    }
    fineWalls
    {
        type            calculated;
        value           uniform 0;
    }
    fineFrontAndBack
    {
        type            calculated;
        value           nonuniform List<scalar> 
960
(
-3.71206e-11
-5.77906e-11
-7.69371e-12
-8.57197e-12
-5.18615e-11
-1.00259e-11
-8.79797e-12
-7.56855e-12
-1.00628e-11
4.18638e-13
8.09851e-13
-1.77389e-11
-4.97836e-12
-2.92908e-12
-2.28096e-11
-4.14364e-12
-2.7926e-12
-1.15242e-11
-1.36695e-12
-1.73469e-12
-1.4733e-13
-5.31387e-13
-5.5246e-13
-5.79999e-13
-5.66368e-13
-7.04695e-13
-1.56154e-11
-9.16841e-13
-8.88429e-13
-8.69108e-13
-8.79286e-13
-9.03536e-13
-8.88907e-13
-8.7631e-13
-8.81052e-13
-8.80487e-13
-8.81975e-13
-9.12708e-13
-8.367e-13
-1.06999e-12
4.74379e-11
5.14381e-11
4.22058e-11
4.31065e-11
1.46726e-10
2.07449e-11
1.84758e-11
1.2856e-11
1.01322e-09
2.00136e-10
1.03516e-10
7.73605e-11
-1.21629e-12
1.92611e-12
1.5601e-12
1.27976e-11
1.79854e-12
6.24493e-13
-6.67017e-14
1.61044e-14
1.42776e-13
-6.63252e-14
-2.44174e-13
-5.03613e-13
-8.07636e-13
-1.03155e-12
-1.06929e-12
-9.54686e-13
-7.50092e-13
-4.94591e-13
-2.84209e-13
-1.59614e-13
-1.07087e-13
-6.88883e-12
-1.83969e-15
1.16618e-14
1.19994e-14
-6.64201e-14
-2.47714e-13
-5.93001e-13
-3.7467e-12
-4.52494e-12
-3.31766e-11
-7.32096e-12
-9.35566e-12
-5.64871e-11
-7.26919e-12
6.09281e-13
5.97639e-11
5.0746e-12
-1.39649e-11
-4.1186e-11
-8.12337e-12
-8.12694e-12
-7.76337e-12
-2.8004e-11
-3.80482e-12
-3.06389e-12
-7.55396e-11
6.86971e-11
-1.08e-08
-2.59963e-10
5.30993e-10
-1.49556e-10
2.68523e-11
4.61158e-12
-2.211e-11
-1.88401e-11
-7.74433e-12
-5.7077e-13
5.45684e-13
-7.30138e-13
-2.10436e-11
-7.50181e-11
-9.34483e-11
-5.96622e-11
-4.94473e-11
-3.25118e-11
-1.98393e-11
3.3604e-09
1.90712e-10
7.11011e-10
6.09054e-12
3.18764e-11
6.02393e-12
-2.73467e-11
-3.08063e-11
-1.12124e-11
5.48639e-13
1.14424e-13
-8.20622e-12
-3.00807e-11
-6.04186e-11
-7.7322e-11
-3.36851e-11
-2.50136e-11
-2.41717e-11
-1.19663e-11
4.11251e-11
5.62976e-10
7.58232e-10
3.40654e-10
-2.8449e-11
3.76566e-12
-1.76639e-11
-3.46571e-11
-1.24786e-11
5.56842e-13
-5.25605e-12
-1.13969e-11
-2.49432e-11
-5.01913e-11
-8.67828e-11
-3.43372e-11
-2.66092e-11
-2.23374e-11
-7.69448e-12
7.58736e-10
8.40058e-10
7.59132e-10
4.66124e-10
-3.86064e-11
1.81437e-12
1.72631e-11
-2.1532e-11
-2.49638e-11
-9.08582e-12
-1.0924e-11
-5.93822e-13
1.28105e-11
2.029e-11
-6.12985e-11
-2.78091e-11
-1.93653e-11
-7.1461e-12
-2.52954e-11
5.61585e-10
8.43119e-10
7.52353e-10
5.1136e-10
-3.41864e-11
2.38493e-11
9.16908e-11
2.11656e-11
-3.42421e-11
-2.19321e-11
-2.87351e-12
4.39233e-11
1.09036e-10
1.61201e-10
1.25953e-11
-1.4738e-11
-1.34423e-11
2.09999e-12
6.0432e-12
5.67186e-10
8.41586e-10
7.4166e-10
5.4624e-10
7.35094e-11
1.56485e-10
1.87754e-10
9.04314e-11
-8.4256e-12
-2.33834e-11
3.03899e-11
1.28222e-10
2.5125e-10
3.51958e-10
1.50114e-10
2.95702e-11
-4.82675e-12
1.43898e-12
-1.93926e-11
4.90036e-10
8.45337e-10
7.44076e-10
6.3472e-10
2.75301e-10
4.65963e-10
2.6641e-10
1.31494e-10
3.79262e-11
-1.29551e-11
7.46387e-11
2.11492e-10
3.68236e-10
4.91257e-10
3.07894e-10
1.24457e-10
2.33928e-11
-1.40746e-12
-1.21045e-11
3.80071e-10
8.11023e-10
7.63766e-10
7.41933e-10
7.46693e-10
5.49731e-10
2.62076e-10
1.28743e-10
5.08932e-11
6.6778e-12
1.15934e-10
2.80315e-10
4.38828e-10
5.00001e-10
3.91722e-10
2.28757e-10
9.14152e-11
6.69477e-12
1.73417e-11
2.06679e-10
6.24849e-10
8.32193e-10
8.30657e-10
8.00381e-10
4.15989e-10
1.433e-10
7.21571e-11
4.42824e-11
2.52941e-11
1.46744e-10
2.9484e-10
4.22019e-10
4.84776e-10
4.04552e-10
2.73673e-10
1.70181e-10
3.98152e-11
2.65387e-11
1.28008e-11
1.56328e-10
4.39948e-10
6.07444e-10
4.43121e-10
1.39339e-10
1.85397e-11
7.06214e-12
3.65908e-11
5.17491e-11
1.52951e-10
3.68499e-10
4.88764e-10
4.76708e-10
3.67986e-10
2.5851e-10
1.93767e-10
1.09375e-10
1.28494e-11
-2.18031e-11
-3.43343e-11
-1.82557e-11
3.58886e-11
-4.88247e-12
-2.36449e-11
1.76102e-11
1.80516e-11
2.81589e-11
7.29456e-11
1.53357e-10
3.35862e-10
4.41127e-10
3.7568e-10
2.61337e-10
2.06056e-10
1.64265e-10
1.36091e-10
5.34881e-11
-1.20409e-11
-4.42844e-13
5.4203e-12
3.68974e-12
9.00579e-12
1.38446e-11
2.6214e-11
3.85073e-11
2.81003e-11
6.78238e-11
1.36475e-10
2.40298e-10
2.90273e-10
2.42232e-10
1.88575e-10
1.70888e-10
1.22886e-10
1.11231e-10
1.89519e-11
-2.70579e-12
-5.82602e-12
1.45983e-12
4.99514e-12
7.1693e-12
3.42613e-12
1.37968e-11
2.66554e-11
3.14201e-11
4.90107e-11
9.43826e-11
1.43685e-10
1.59688e-10
1.36242e-10
1.25306e-10
1.42595e-10
7.1543e-11
4.61102e-11
5.11883e-11
6.56281e-12
-3.93476e-12
9.73285e-13
-2.94134e-13
1.27352e-12
-2.02667e-12
4.81853e-12
1.82504e-11
3.36045e-11
3.74905e-11
5.63386e-11
7.48739e-11
7.87942e-11
7.14388e-11
9.32671e-11
1.25981e-10
1.54704e-11
-1.69615e-12
1.94991e-12
1.41806e-11
-2.54713e-12
2.41814e-13
-5.73045e-12
-2.92684e-12
-5.64275e-12
-6.49761e-12
6.95074e-12
2.73388e-11
3.74522e-11
4.0905e-11
4.29847e-11
4.00214e-11
4.45251e-11
9.34657e-11
9.7884e-11
-2.58601e-11
-2.19168e-11
-1.84453e-11
2.41152e-11
-1.48254e-12
1.25732e-13
-1.18015e-11
-2.57718e-12
-3.60515e-12
-1.24775e-11
-7.27933e-12
1.47033e-11
3.75996e-11
3.91097e-11
3.14386e-11
2.43508e-11
4.57725e-11
1.02935e-10
4.9389e-11
-4.20605e-11
-2.15186e-11
-1.54885e-11
2.84802e-11
-9.16105e-12
-3.01687e-13
-1.47367e-11
-8.59852e-12
2.89946e-13
-9.4284e-12
-1.78652e-11
-7.02909e-12
2.30077e-11
3.81644e-11
2.51052e-11
2.85458e-11
6.87834e-11
9.1806e-11
2.19774e-12
-3.83256e-11
-1.38124e-11
-1.0421e-11
3.51829e-11
4.88616e-11
-2.61561e-12
-1.82801e-11
-1.20153e-11
1.17556e-12
-1.58582e-12
-1.5377e-11
-2.76174e-11
-8.16145e-12
3.47436e-11
3.05064e-11
4.25144e-11
6.86305e-11
4.13905e-11
-2.63304e-11
-3.05107e-11
-7.98418e-12
-2.04459e-11
3.16237e-11
1.9409e-11
-6.48228e-12
-1.3251e-11
-7.58865e-12
3.42699e-13
1.22259e-12
-2.59592e-12
-2.68211e-11
-4.73347e-11
-1.29701e-11
5.1469e-11
6.9824e-11
5.94027e-11
2.16979e-11
-5.92869e-12
3.64603e-12
6.14674e-12
-3.51847e-11
1.03027e-10
1.6661e-12
-3.80549e-12
-1.57613e-12
2.59553e-13
1.37083e-13
-9.44e-14
1.41822e-12
-1.74288e-12
-3.64012e-11
-7.6348e-11
-8.26949e-11
-6.86788e-11
-7.15571e-11
-8.278e-11
-8.86887e-11
-9.50859e-11
-1.0416e-10
-1.53788e-10
3.71206e-11
5.77906e-11
7.69371e-12
8.57197e-12
5.18615e-11
1.00259e-11
8.79797e-12
7.56855e-12
1.00628e-11
-4.18638e-13
-8.09851e-13
1.77389e-11
4.97836e-12
2.92908e-12
2.28096e-11
4.14364e-12
2.7926e-12
1.15242e-11
1.36695e-12
1.73469e-12
1.4733e-13
5.31387e-13
5.5246e-13
5.79999e-13
5.66368e-13
7.04695e-13
1.56154e-11
9.16841e-13
8.88429e-13
8.69108e-13
8.79286e-13
9.03536e-13
8.88907e-13
8.7631e-13
8.81052e-13
8.80487e-13
8.81975e-13
9.12708e-13
8.367e-13
1.06999e-12
-4.74379e-11
-5.14381e-11
-4.22058e-11
-4.31065e-11
-1.46726e-10
-2.07449e-11
-1.84758e-11
-1.2856e-11
-1.01322e-09
-2.00136e-10
-1.03516e-10
-7.73605e-11
1.21629e-12
-1.92611e-12
-1.5601e-12
-1.27976e-11
-1.79854e-12
-6.24493e-13
6.67017e-14
-1.61044e-14
-1.42776e-13
6.63252e-14
2.44174e-13
5.03613e-13
8.07636e-13
1.03155e-12
1.06929e-12
9.54686e-13
7.50092e-13
4.94591e-13
2.84209e-13
1.59614e-13
1.07087e-13
6.88883e-12
1.83969e-15
-1.16618e-14
-1.19994e-14
6.64201e-14
2.47714e-13
5.93001e-13
3.7467e-12
4.52494e-12
3.31766e-11
7.32096e-12
9.35566e-12
5.64871e-11
7.26919e-12
-6.09281e-13
-5.97639e-11
-5.0746e-12
1.39649e-11
4.1186e-11
8.12337e-12
8.12694e-12
7.76337e-12
2.8004e-11
3.80482e-12
3.06389e-12
7.55396e-11
-6.86971e-11
1.08e-08
2.59963e-10
-5.30993e-10
1.49556e-10
-2.68523e-11
-4.61158e-12
2.211e-11
1.88401e-11
7.74433e-12
5.7077e-13
-5.45684e-13
7.30138e-13
2.10436e-11
7.50181e-11
9.34483e-11
5.96622e-11
4.94473e-11
3.25118e-11
1.98393e-11
-3.3604e-09
-1.90712e-10
-7.11011e-10
-6.09054e-12
-3.18764e-11
-6.02393e-12
2.73467e-11
3.08063e-11
1.12124e-11
-5.48639e-13
-1.14424e-13
8.20622e-12
3.00807e-11
6.04186e-11
7.7322e-11
3.36851e-11
2.50136e-11
2.41717e-11
1.19663e-11
-4.11251e-11
-5.62976e-10
-7.58232e-10
-3.40654e-10
2.8449e-11
-3.76566e-12
1.76639e-11
3.46571e-11
1.24786e-11
-5.56842e-13
5.25605e-12
1.13969e-11
2.49432e-11
5.01913e-11
8.67828e-11
3.43372e-11
2.66092e-11
2.23374e-11
7.69448e-12
-7.58736e-10
-8.40058e-10
-7.59132e-10
-4.66124e-10
3.86064e-11
-1.81437e-12
-1.72631e-11
2.1532e-11
2.49638e-11
9.08582e-12
1.0924e-11
5.93822e-13
-1.28105e-11
-2.029e-11
6.12985e-11
2.78091e-11
1.93653e-11
7.1461e-12
2.52954e-11
-5.61585e-10
-8.43119e-10
-7.52353e-10
-5.1136e-10
3.41864e-11
-2.38493e-11
-9.16908e-11
-2.11656e-11
3.42421e-11
2.19321e-11
2.87351e-12
-4.39233e-11
-1.09036e-10
-1.61201e-10
-1.25953e-11
1.4738e-11
1.34423e-11
-2.09999e-12
-6.0432e-12
-5.67186e-10
-8.41586e-10
-7.4166e-10
-5.4624e-10
-7.35094e-11
-1.56485e-10
-1.87754e-10
-9.04314e-11
8.4256e-12
2.33834e-11
-3.03899e-11
-1.28222e-10
-2.5125e-10
-3.51958e-10
-1.50114e-10
-2.95702e-11
4.82675e-12