/*--------------------------------*- C++ -*----------------------------------*\
| =========                 |                                                 |
| \\      /  F ield         | OpenFOAM: The Open Source CFD Toolbox           |
|  \\    /   O peration     | Version:  4.1                                   |
|   \\  /    A nd           | Web:      www.OpenFOAM.org                      |
|    \\/     M anipulation  |                                                 |
\*---------------------------------------------------------------------------*/
FoamFile
{
    version     2.0;
    format      ascii;
    class       volVectorField;
    location    "18";
    object      U;
}
// * * * * * * * * * * * * * * * * * * * * * * * * * * * * * * * * * * * * * //

dimensions      [0 1 -1 0 0 0 0];

internalField   nonuniform List<vector> 
1280
(
(-2.68261e-14 -16.2558 -29.7929)
(-9.82206e-15 20.2322 -7.77104)
(-6.04422e-15 -5.54621 -2.43272)
(-6.19474e-15 0.574866 -4.58235)
(-8.81436e-15 -1.60743 -4.56187)
(-7.24546e-15 -0.809132 -3.94885)
(-6.35806e-15 0.0471616 -3.8951)
(-7.18853e-15 0.469806 -2.87032)
(-2.03893e-15 0.180025 -3.70706)
(3.02539e-16 1.34521 -1.52582)
(5.85258e-16 1.47191 -0.601716)
(-5.14679e-15 1.80655 -1.10372)
(-3.59773e-15 2.02558 -0.277371)
(-2.11677e-15 2.07504 0.101887)
(-5.6243e-15 2.32183 -1.09651)
(-2.9945e-15 2.3579 -0.718969)
(-2.01814e-15 2.555 -0.358642)
(-1.95864e-15 2.00583 -1.40216)
(-9.8786e-16 1.83241 -0.700126)
(-1.25362e-15 1.0977 -2.04548)
(-6.04431e-16 1.6232 1.25047)
(-2.18005e-15 1.83248 4.6659)
(-2.2665e-15 1.54394 6.42039)
(-2.37948e-15 1.78532 7.50834)
(-2.32356e-15 1.64197 8.31473)
(-2.89106e-15 2.09437 9.18774)
(-3.29179e-15 -2.22113 11.8997)
(-3.7614e-15 2.11645 17.6822)
(-3.64484e-15 2.00373 17.4607)
(-3.56557e-15 1.95398 17.2891)
(-3.60733e-15 2.07679 17.1288)
(-3.70681e-15 2.11539 17.0097)
(-3.6468e-15 2.12363 16.9066)
(-3.59512e-15 2.10212 16.8112)
(-3.61457e-15 2.11528 16.7156)
(-3.61225e-15 2.06022 16.6127)
(-3.61836e-15 2.12623 16.5342)
(-3.74444e-15 1.95054 16.3745)
(-3.43262e-15 2.29388 16.9734)
(-4.38972e-15 1.96877 15.0836)
(8.25724e-15 2.55497 10.3562)
(4.13157e-14 -1.96234 -5.11063)
(3.39002e-14 -0.392924 -2.35287)
(3.6079e-14 -0.531902 -1.96844)
(3.04197e-14 -1.37994 -1.57776)
(1.66625e-14 0.152996 -1.56656)
(1.484e-14 0.181667 -1.83568)
(1.03261e-14 0.344839 -1.74384)
(2.02972e-13 -0.00720602 0.198662)
(1.48518e-13 0.96103 -0.0714058)
(1.37888e-13 -1.22363 0.58507)
(1.34657e-14 -0.160757 4.47115)
(-9.76943e-16 -1.13926 5.46279)
(1.54707e-15 -1.79599 5.16304)
(1.2531e-15 -2.30961 5.08466)
(2.22761e-15 -3.75377 7.35364)
(1.53482e-15 -4.53 6.59508)
(5.01601e-16 -5.20331 6.64271)
(-5.35757e-17 -6.08262 6.67164)
(-1.03851e-16 -10.2972 10.1733)
(5.85746e-16 -7.84969 10.6263)
(-2.72104e-16 -7.96056 12.3151)
(-1.00174e-15 -7.67545 12.24)
(-2.06611e-15 -7.78224 12.1522)
(-3.31338e-15 -7.7607 12.0869)
(-4.232e-15 -7.8826 12.2069)
(-4.38682e-15 -7.98358 12.5874)
(-3.91666e-15 -8.11794 13.1963)
(-3.0773e-15 -8.24067 13.8359)
(-2.02909e-15 -8.32828 14.2305)
(-1.16599e-15 -8.3476 14.2672)
(-6.54825e-16 -8.25834 13.8871)
(-4.3933e-16 -8.07491 13.1437)
(-1.45219e-15 -3.97666 6.75427)
(-7.54747e-18 -6.00494 8.26153)
(4.78434e-17 -5.54156 7.31386)
(4.92284e-17 -5.29765 7.30361)
(-2.72493e-16 -4.84233 6.56264)
(-1.01626e-15 -5.00205 4.06922)
(-2.43282e-15 -4.67397 -1.21617)
(-2.70764e-15 -4.0642 -4.50114)
(-3.27006e-15 -4.43392 -2.64013)
(-5.63868e-15 -4.26601 -3.91002)
(-5.29067e-15 -4.12176 -2.87493)
(-6.76109e-15 -3.40031 -3.04745)
(-1.05994e-14 -3.56171 -4.0846)
(-5.44627e-15 -2.78215 -2.93852)
(2.47295e-16 -2.15551 -3.16725)
(9.38535e-15 -2.35561 -4.45915)
(4.20719e-15 -1.44725 -4.2695)
(-9.55218e-15 -0.90338 -5.44484)
(-9.06083e-15 1.26345 -7.90514)
(-6.09479e-15 1.01974 -5.80627)
(-5.87313e-15 2.25934 -5.75887)
(-5.61038e-15 2.48484 -4.9296)
(-4.75955e-15 7.59282 -9.50751)
(-2.74964e-15 3.05886 -7.25777)
(-2.3748e-15 12.5818 -7.60099)
(-9.93319e-15 -31.9981 12.8596)
(4.96456e-14 22.5227 -84.608)
(-1.2e-12 652.464 388.477)
(-2.88848e-14 -66.8012 -168.052)
(5.89992e-14 -119.206 -30.6673)
(-1.66173e-14 -13.5301 119.589)
(2.98359e-15 -33.1834 -19.1947)
(5.12398e-16 -11.4684 8.25105)
(-2.45667e-15 4.31912 12.4174)
(-2.09334e-15 6.29066 -1.35623)
(-8.60481e-16 1.86142 -7.13007)
(-6.34189e-17 -4.35837 -3.27461)
(6.06315e-17 -7.07944 -1.63686)
(-8.11264e-17 -8.54643 1.08674)
(-2.33818e-15 -5.15639 7.61043)
(-8.33535e-15 7.02417 12.3201)
(-1.03831e-14 15.9444 5.15791)
(-6.62914e-15 16.2742 -0.545792)
(-5.49414e-15 17.9077 -13.4154)
(-3.61242e-15 6.13963 -8.21384)
(-2.20437e-15 16.0972 -35.3498)
(3.73378e-13 -188.237 -134.909)
(2.11903e-14 22.8421 183.888)
(7.90012e-14 -111.822 -34.2497)
(6.76726e-16 25.0741 84.1561)
(3.54182e-15 10.592 1.89802)
(6.69326e-16 -12.8721 12.457)
(-3.03852e-15 2.58197 5.31282)
(-3.42292e-15 5.24917 4.14724)
(-1.24583e-15 1.48565 -3.82715)
(6.09599e-17 -3.85506 -5.41612)
(1.27138e-17 -7.17649 -1.7614)
(-9.11802e-16 -9.30687 5.11701)
(-3.3423e-15 -7.88132 10.2455)
(-6.71318e-15 -4.39924 7.62695)
(-8.59133e-15 2.16635 5.17275)
(-3.74279e-15 3.81533 2.22987)
(-2.77929e-15 0.516421 -1.32328)
(-2.68575e-15 2.43205 -4.85106)
(-1.32958e-15 -10.3883 -10.7823)
(4.56946e-15 222.144 2.42915)
(6.25529e-14 42.5167 -6.97294)
(8.4248e-14 -84.6525 -28.424)
(3.78504e-14 -17.456 5.04476)
(-3.161e-15 8.53037 22.9286)
(4.18407e-16 -9.1253 12.3806)
(-1.96265e-15 4.89012 5.11258)
(-3.85079e-15 7.86814 6.0644)
(-1.38651e-15 4.44376 -2.6825)
(6.18714e-17 -3.54774 -4.52812)
(-5.84006e-16 -8.43339 1.43035)
(-1.26632e-15 -9.89744 7.57267)
(-2.77147e-15 -6.02493 10.2746)
(-5.57681e-15 3.25584 10.7576)
(-9.64254e-15 10.0943 7.42531)
(-3.81524e-15 11.4203 4.18646)
(-2.95658e-15 10.8804 -0.969513)
(-2.48193e-15 7.06737 -4.83446)
(-8.54942e-16 5.64132 -6.71995)
(8.4304e-14 24.1629 -15.7565)
(9.33398e-14 -39.2537 81.6655)
(8.4348e-14 -80.7004 -19.3587)
(5.17916e-14 -9.92612 2.39128)
(-4.2896e-15 5.68778 11.9894)
(2.01596e-16 -5.72426 13.4149)
(1.91812e-15 5.74361 4.96172)
(-2.39244e-15 9.30116 6.76936)
(-2.77376e-15 6.0961 -0.7331)
(-1.00954e-15 -5.06951 -1.49105)
(-1.21377e-15 -11.2559 4.35386)
(-6.59802e-17 -11.7921 8.14603)
(1.42339e-15 -7.68602 10.1816)
(2.25444e-15 0.423614 11.3232)
(-6.81094e-15 8.59314 9.12393)
(-3.08989e-15 10.4817 6.54147)
(-2.1517e-15 9.29505 2.64593)
(-7.94011e-16 6.41302 -1.35783)
(-2.8106e-15 -1.03527 -3.55669)
(6.23983e-14 97.3579 4.90339)
(9.36799e-14 30.7608 34.4045)
(8.35947e-14 -69.378 -9.88748)
(5.68178e-14 -13.7593 3.06823)
(-3.79849e-15 0.91773 12.6196)
(2.64992e-15 -3.99076 12.1491)
(1.01879e-14 6.93115 0.877342)
(2.35174e-15 10.1525 4.07514)
(-3.80467e-15 6.6719 0.630281)
(-2.43689e-15 -6.27158 1.43155)
(-3.19279e-16 -12.9468 5.36955)
(4.88037e-15 -12.7544 7.69456)
(1.21151e-14 -8.21717 9.58863)
(1.79112e-14 2.0772 10.5213)
(1.39948e-15 10.6375 9.35129)
(-1.63756e-15 12.7516 7.52801)
(-1.49359e-15 12.2335 4.88003)
(2.33333e-16 8.60574 1.01579)
(6.71467e-16 2.44257 -2.71435)
(6.30206e-14 45.2941 15.6287)
(9.35096e-14 -9.18664 46.3185)
(8.24067e-14 -57.8668 -1.08639)
(6.06933e-14 -18.4286 0.641622)
(8.16771e-15 -0.567079 12.4462)
(1.73873e-14 -1.30577 6.64598)
(2.08616e-14 8.44684 -7.19972)
(1.00479e-14 9.67328 -4.62744)
(-9.36178e-16 7.22533 -2.05593)
(-2.59816e-15 -7.032 1.93918)
(3.37665e-15 -13.8764 4.00773)
(1.42469e-14 -13.1562 5.44826)
(2.79167e-14 -8.5789 6.66754)
(3.91064e-14 1.2077 6.78142)
(1.66794e-14 10.5138 6.7293)
(3.28558e-15 12.9187 5.9858)
(-5.36306e-16 12.7509 5.83464)
(1.59886e-16 9.97235 3.8341)
(-2.15473e-15 3.73507 -0.336954)
(5.44485e-14 52.4797 27.8778)
(9.39264e-14 9.48362 34.7047)
(8.26751e-14 -46.9029 6.08018)
(7.05245e-14 -21.1264 -6.66109)
(3.0589e-14 -0.202097 10.1263)
(5.17737e-14 6.53506 -7.95706)
(2.96011e-14 10.1903 -15.7127)
(1.46105e-14 8.32335 -15.6585)
(4.21403e-15 4.3719 -8.82595)
(-1.43946e-15 -8.09309 -0.0177129)
(8.29319e-15 -14.5631 0.756684)
(2.34991e-14 -13.4144 1.64943)
(4.09151e-14 -8.98413 2.56257)
(5.45841e-14 0.565681 1.23885)
(3.42105e-14 10.7639 1.31573)
(1.38285e-14 12.9503 1.34867)
(2.59921e-15 12.8354 3.48246)
(-1.56384e-16 11.1036 6.28051)
(-1.34494e-15 4.85173 4.22544)
(4.22301e-14 29.4768 36.4631)
(9.01136e-14 2.09013 36.5842)
(8.48629e-14 -34.7594 11.8252)
(8.2437e-14 -20.331 -15.423)
(8.29659e-14 -3.93339 -13.5986)
(6.10812e-14 9.1943 -21.3276)
(2.91195e-14 11.5961 -25.0683)
(1.43048e-14 6.98182 -25.2101)
(5.65481e-15 0.797113 -16.5784)
(7.41978e-16 -10.0634 -4.36367)
(1.28816e-14 -15.0721 -3.61465)
(3.11461e-14 -13.4426 -3.06194)
(4.87587e-14 -8.63013 -2.43181)
(5.55556e-14 0.780015 -4.99912)
(4.35247e-14 10.6155 -5.29464)
(2.54174e-14 12.375 -4.40939)
(1.01572e-14 10.8298 -2.42409)
(7.43863e-16 9.51738 6.1878)
(1.92686e-15 1.11785 9.19441)
(2.29643e-14 21.2532 43.9199)
(6.94277e-14 6.4364 36.2626)
(9.24658e-14 -20.6802 15.5699)
(9.22952e-14 -14.0755 -22.117)
(8.89312e-14 -0.133739 -29.6727)
(4.6221e-14 10.9363 -31.2483)
(1.59222e-14 11.7377 -27.8047)
(8.01745e-15 5.25293 -28.2412)
(4.92027e-15 -3.61372 -21.4616)
(2.81046e-15 -12.581 -9.68217)
(1.63049e-14 -15.5018 -8.83082)
(3.276e-14 -13.3966 -8.89813)
(4.6891e-14 -8.10537 -8.83514)
(5.38639e-14 1.42273 -11.7437)
(4.49502e-14 10.3928 -12.1401)
(3.04081e-14 11.9955 -9.77284)
(1.8909e-14 8.60781 -8.45196)
(4.42392e-15 6.52065 -0.310133)
(2.94875e-15 3.71641 9.54151)
(1.42231e-15 4.94856 47.0221)
(1.73698e-14 6.89042 37.2832)
(4.88832e-14 -4.27847 17.5368)
(6.74938e-14 -7.16224 -24.5307)
(4.92357e-14 1.08696 -35.1067)
(1.54821e-14 8.86998 -27.1537)
(1.99528e-15 10.1321 -17.3732)
(7.84682e-16 4.4848 -17.9733)
(4.06565e-15 -6.56349 -21.853)
(5.7499e-15 -14.6972 -15.2516)
(1.69946e-14 -15.6803 -14.0761)
(4.26072e-14 -13.1462 -14.6082)
(5.43072e-14 -7.5935 -15.1922)
(5.29675e-14 2.07945 -19.0031)
(4.18128e-14 9.77714 -18.888)
(2.87233e-14 11.0983 -14.7343)
(2.15296e-14 7.32875 -11.211)
(1.21528e-14 2.35044 -8.71698)
(1.42771e-15 -0.19675 5.06353)
(-2.42257e-15 -4.84457 44.6952)
(-3.81492e-15 8.48062 36.9406)
(-2.02841e-15 15.0774 18.7787)
(3.98762e-15 5.28546 -24.7841)
(-5.42496e-16 3.36535 -27.4704)
(-2.62721e-15 3.47948 -11.0756)
(2.28914e-15 7.77243 -6.99823)
(2.00573e-15 6.6235 -6.52869)
(3.12877e-15 -5.69761 -18.756)
(8.10507e-15 -15.5978 -21.5556)
(1.70397e-14 -15.9931 -21.2499)
(3.7318e-14 -12.6979 -21.4962)
(4.90141e-14 -6.3797 -23.099)
(4.17422e-14 2.9142 -27.1274)
(2.90374e-14 8.57297 -24.7784)
(2.28951e-14 9.14432 -18.4603)
(1.82517e-14 5.93617 -11.6664)
(1.51213e-14 0.638805 -9.11215)
(5.94312e-15 -0.9497 0.055378)
(-1.33788e-15 -20.3293 37.2532)
(-4.92049e-17 9.83016 36.0119)
(6.02255e-16 30.2248 18.7226)
(4.09971e-16 3.32454 -15.4764)
(1.00064e-15 -2.71717 14.5793)
(1.53829e-15 4.3959 3.10911)
(2.91267e-15 8.40474 -3.15272)
(4.27859e-15 9.0969 -2.47644)
(3.12226e-15 -0.626588 -12.06)
(7.53597e-15 -13.4684 -24.443)
(1.51639e-14 -15.8065 -29.1591)
(2.66998e-14 -12.3175 -30.9851)
(3.22526e-14 -5.60116 -33.3753)
(2.69146e-14 2.29883 -34.295)
(2.09527e-14 6.01134 -28.28)
(1.89875e-14 5.98477 -19.9384)
(1.3654e-14 3.89237 -9.6497)
(1.2359e-14 -2.09173 -6.56728)
(2.10577e-15 -6.09397 -2.58909)
(-3.00644e-16 -28.9655 27.5422)
(-6.47335e-16 8.77371 38.8759)
(1.62203e-16 41.2509 16.763)
(5.55016e-16 -1.20316 3.24753)
(7.96589e-16 -1.59377 18.1208)
(3.80681e-16 9.39127 7.67989)
(1.53297e-15 9.42181 2.60582)
(2.96171e-15 10.2272 1.17088)
(3.49113e-15 3.6759 -3.80342)
(5.44563e-15 -8.64781 -20.1028)
(1.0487e-14 -13.4138 -30.7735)
(1.5965e-14 -11.0436 -35.8429)
(1.77431e-14 -5.15594 -37.9614)
(1.5138e-14 0.818487 -35.6553)
(1.39229e-14 2.85187 -27.616)
(1.58439e-14 1.92102 -18.2897)
(7.94923e-15 -0.359379 -1.77045)
(5.12335e-15 -3.4718 7.89416)
(5.68759e-15 -2.03908 10.6604)
(7.29201e-16 -51.5843 18.4771)
(-4.37196e-16 9.9335 43.3508)
(1.08143e-16 49.7335 13.6111)
(-3.26815e-17 -1.84214 11.415)
(1.41502e-16 -1.88508 14.1337)
(-2.25186e-16 11.4326 10.828)
(5.35392e-16 10.7864 6.4688)
(2.02782e-15 11.903 5.32235)
(3.73384e-15 7.1545 -0.727062)
(4.16562e-15 -2.72059 -11.9143)
(6.25985e-15 -9.49132 -24.5657)
(8.31932e-15 -9.46183 -31.6593)
(8.75491e-15 -5.77294 -33.6462)
(7.93765e-15 -2.00753 -30.6027)
(1.0363e-14 -1.23876 -23.2112)
(1.39978e-14 -3.63699 -14.0198)
(1.71893e-15 -6.0272 3.92376)
(-1.88461e-16 -6.61559 10.4263)
(2.16656e-16 -5.98604 11.9809)
(1.57562e-15 -44.866 4.80784)
(-2.83015e-16 11.6519 51.1113)
(2.68683e-17 57.1075 6.81838)
(-6.36717e-16 0.854425 17.8833)
(-3.25204e-16 -4.1016 8.88692)
(-6.26972e-16 12.879 10.918)
(-7.21956e-16 11.4264 8.13583)
(7.72304e-16 13.2793 9.15714)
(3.03764e-15 9.97779 3.59732)
(4.16136e-15 1.52136 -3.5905)
(4.545e-15 -5.38772 -15.3665)
(4.77608e-15 -6.96866 -22.77)
(4.44682e-15 -5.04872 -25.0703)
(4.94723e-15 -2.8184 -22.6735)
(1.03851e-14 -3.65899 -16.7099)
(1.0876e-14 -8.17625 -7.70165)
(-2.87335e-15 -9.75714 5.50791)
(-2.4352e-15 -6.80406 5.7697)
(-2.04947e-15 -3.96496 5.548)
(2.67946e-15 -98.3578 -6.30978)
(-1.64726e-16 -26.911 44.0155)
(1.39702e-17 64.0334 -4.21163)
(-1.31128e-15 -2.36557 17.4062)
(-2.86354e-16 -0.566 0.50654)
(-4.00572e-16 13.1412 8.81707)
(-1.38639e-15 11.4118 7.03586)
(-8.08814e-16 13.9691 11.3952)
(1.6337e-15 12.3943 8.77769)
(4.17773e-15 4.86607 1.65746)
(4.34553e-15 -2.32997 -6.72355)
(3.49317e-15 -6.22004 -13.1054)
(2.70564e-15 -6.59613 -16.0333)
(5.08583e-15 -6.15195 -15.3074)
(1.14372e-14 -8.01575 -10.5078)
(5.48767e-15 -12.7909 -1.61396)
(-4.67339e-15 -11.8182 3.96069)
(-2.39095e-15 -6.76283 0.36352)
(-1.72095e-15 -3.21559 -0.581792)
(3.16446e-15 -21.7301 -25.3587)
(-1.01789e-15 59.4583 94.2761)
(-3.35207e-17 77.4123 -16.1303)
(-1.63741e-15 -1.31855 -9.83428)
(-9.55391e-16 -12.1528 -7.44357)
(3.22162e-17 11.6018 5.62146)
(-1.0476e-15 9.96528 3.88477)
(-1.98503e-15 12.7961 10.3578)
(-7.8101e-16 13.8498 12.721)
(2.55641e-15 8.07151 7.79706)
(4.24048e-15 1.73545 -0.708014)
(2.78946e-15 -1.33773 -6.11647)
(3.17176e-15 -2.37238 -9.22717)
(7.6426e-15 -3.32771 -8.75903)
(1.02007e-14 -8.06588 -3.16001)
(2.44194e-16 -12.939 2.99059)
(-4.2584e-15 -9.76737 1.69123)
(-1.53472e-15 -4.6608 -2.19036)
(-1.15789e-15 -1.83051 -2.43725)
(3.90922e-15 -225.551 -7.79335)
(5.42907e-15 -56.9091 -14.5712)
(-2.90623e-16 85.918 -26.4347)
(-2.03112e-15 38.6429 -23.781)
(-1.33503e-15 -11.4212 3.50742)
(1.30617e-16 10.0752 3.50872)
(-1.76202e-16 7.85631 2.05242)
(-1.70855e-15 9.71707 5.93494)
(-3.0686e-15 12.6414 13.4684)
(-9.06828e-16 9.01802 14.5788)
(3.8604e-15 -0.843316 7.4401)
(3.38961e-15 -8.03235 1.65597)
(4.72382e-15 -9.72755 -1.85618)
(7.62561e-15 -12.4242 -0.713442)
(4.59894e-15 -15.9652 3.12103)
(-2.9256e-15 -17.0109 3.70234)
(-3.39008e-15 -11.9123 -1.90383)
(-8.87132e-16 -6.89988 -3.43151)
(-2.27176e-15 -5.72838 -2.81126)
(3.51375e-15 200.911 -152.502)
(2.15656e-15 -23.2932 190.278)
(-7.20254e-16 116.701 -32.7757)
(-1.47233e-15 -39.3351 86.7017)
(-8.43183e-16 -22.1136 1.95681)
(3.80777e-17 14.2778 0.305487)
(1.35844e-16 9.81351 2.5234)
(-2.88435e-16 9.85157 1.06928)
(-2.98012e-15 11.2669 8.74399)
(-5.25941e-15 12.119 17.9527)
(-1.44112e-15 12.4113 18.1469)
(5.71878e-15 12.9589 9.65998)
(7.75822e-15 8.68868 3.91788)
(6.6003e-15 3.07197 5.661)
(2.41088e-15 -2.80992 7.43898)
(-6.58743e-16 -4.65555 5.54026)
(4.05114e-16 -1.15376 0.964708)
(6.82972e-16 -0.193049 0.985156)
(-3.90941e-15 4.05651 -1.09276)
(1.14475e-14 -664.782 397.635)
(1.85122e-16 72.0551 -167.936)
(-4.22832e-16 123.759 -26.6028)
(-1.75126e-16 21.9825 122.749)
(2.88392e-17 34.0532 -19.8809)
(1.52315e-17 16.9549 -2.77532)
(-1.04889e-17 10.943 2.00741)
(1.5758e-16 11.4126 -0.268615)
(-1.93654e-16 10.3153 1.15712)
(-4.04458e-15 7.20835 10.0997)
(-8.48311e-15 -2.81681 21.0316)
(-9.18832e-15 -14.2286 24.9937)
(-7.63098e-15 -21.8867 22.7052)
(-7.95079e-15 -28.768 17.2278)
(-9.19777e-15 -31.585 8.84584)
(-9.8543e-15 -28.7007 -1.32455)
(-1.05651e-14 -22.1372 -9.54546)
(-1.15734e-14 -13.3029 -11.1827)
(-1.70875e-14 -13.5901 -20.1267)
(1.45674e-16 5.43077 9.90979)
(-4.96848e-15 10.2002 17.3177)
(-3.53454e-15 10.2429 17.2492)
(-3.49747e-15 9.93919 16.5088)
(-3.49155e-15 9.91201 16.2946)
(-5.02632e-15 9.95897 16.2225)
(-3.98864e-15 9.80609 15.8476)
(-3.63959e-15 9.65389 15.5776)
(-3.48505e-15 9.51756 15.5656)
(-3.34122e-15 9.47316 15.5644)
(-3.44016e-15 9.4171 15.5674)
(-3.58362e-15 9.36162 15.5637)
(-3.4235e-15 9.31002 15.5502)
(-3.32376e-15 9.25215 15.5353)
(-3.43706e-15 9.20455 15.5035)
(-3.38352e-15 9.13719 15.4687)
(-3.36581e-15 9.10231 15.4336)
(-3.51932e-15 9.33574 15.8934)
(-3.39431e-15 9.54571 16.274)
(-5.3023e-15 5.23734 8.50587)
(1.72078e-17 5.0291 8.58752)
(-4.27875e-15 9.27691 15.9865)
(-2.58373e-15 8.97632 15.6055)
(-2.95955e-15 8.71141 15.1799)
(-3.08638e-15 8.68643 15.2416)
(-4.65608e-15 8.70735 15.2977)
(-2.95107e-15 8.73728 15.4224)
(-3.1165e-15 8.77833 15.4813)
(-3.08686e-15 8.78845 15.4958)
(-3.01507e-15 8.79556 15.5022)
(-3.07899e-15 8.79871 15.5063)
(-3.06888e-15 8.80178 15.5088)
(-3.02474e-15 8.80671 15.5078)
(-3.01125e-15 8.80487 15.5095)
(-3.11341e-15 8.81593 15.5001)
(-2.98523e-15 8.80142 15.492)
(-2.85266e-15 8.84471 15.5029)
(-3.0465e-15 9.09958 15.9836)
(-2.98622e-15 9.31355 16.2791)
(-4.64563e-15 5.15861 9.04441)
(7.92319e-18 5.48215 9.5278)
(-1.71199e-15 9.58283 16.404)
(-1.06085e-15 9.29511 16.0116)
(-1.02587e-15 9.04983 15.5166)
(-1.13523e-15 9.01193 15.4925)
(-2.77279e-15 9.02775 15.4884)
(-1.39156e-15 9.00218 15.4748)
(-1.3989e-15 8.99556 15.4642)
(-1.44087e-15 8.97988 15.4702)
(-1.43186e-15 8.97554 15.4726)
(-1.40286e-15 8.96526 15.4789)
(-1.3344e-15 8.958 15.4845)
(-1.41161e-15 8.95258 15.4886)
(-1.42463e-15 8.94155 15.4973)
(-1.38347e-15 8.94271 15.4982)
(-1.31619e-15 8.9221 15.5052)
(-1.22504e-15 8.93666 15.5035)
(-1.34292e-15 9.13169 15.9212)
(-1.24695e-15 9.47745 16.464)
(-1.91485e-15 5.59026 9.81265)
(-3.73064e-18 5.61542 9.69808)
(3.48922e-16 9.49133 16.2949)
(2.52579e-16 9.12028 15.7496)
(2.4375e-16 8.90561 15.3436)
(2.46497e-16 8.88483 15.3577)
(-1.86086e-15 8.9024 15.3658)
(-1.34552e-15 8.89383 15.3833)
(-1.60759e-15 8.90329 15.3871)
(-1.59997e-15 8.89777 15.3963)
(-1.37215e-15 8.90163 15.4001)
(-1.37086e-15 8.8991 15.4066)
(-1.37533e-15 8.89923 15.412)
(-1.38235e-15 8.89994 15.4164)
(-1.37905e-15 8.89584 15.4242)
(-1.34744e-15 8.9014 15.4254)
(-1.36504e-15 8.88725 15.4314)
(-1.33857e-15 8.90355 15.4308)
(-1.33217e-15 9.08597 15.8046)
(-1.27388e-15 9.45968 16.4059)
(-2.04313e-15 5.75414 10.0667)
(1.28331e-18 5.84226 10.1069)
(-7.82181e-17 9.51699 16.336)
(-6.09133e-17 9.10841 15.7269)
(-5.73311e-17 8.91909 15.3527)
(-5.7028e-17 8.89737 15.3619)
(4.22113e-16 8.91246 15.365)
(3.06752e-16 8.90015 15.3735)
(3.31936e-16 8.90504 15.3736)
(3.32593e-16 8.89764 15.3809)
(3.25477e-16 8.89939 15.3839)
(3.23901e-16 8.89532 15.39)
(3.16122e-16 8.89445 15.3949)
(3.27095e-16 8.8937 15.3996)
(3.27164e-16 8.88956 15.4072)
(3.17915e-16 8.89369 15.4095)
(3.1026e-16 8.88105 15.4164)
(2.91662e-16 8.89359 15.4132)
(3.1744e-16 9.05641 15.7512)
(2.96861e-16 9.46372 16.4118)
(4.49866e-16 5.94613 10.4082)
(-3.90109e-19 6.02611 10.4124)
(1.79574e-17 9.49429 16.3068)
(1.44743e-17 9.05072 15.6296)
(1.34623e-17 8.8846 15.3017)
(1.39518e-17 8.86795 15.3167)
(-9.93899e-17 8.88203 15.3201)
(-7.48561e-17 8.8717 15.3301)
(-8.0178e-17 8.87742 15.3314)
(-8.08431e-17 8.8712 15.339)
(-7.82683e-17 8.87362 15.3421)
(-7.86982e-17 8.87022 15.3484)
(-7.64854e-17 8.87022 15.3533)
(-7.70091e-17 8.86956 15.3583)
(-7.73894e-17 8.86662 15.3654)
(-7.89755e-17 8.87015 15.3684)
(-7.37175e-17 8.85966 15.3754)
(-7.08252e-17 8.8693 15.371)
(-7.82697e-17 9.01312 15.6702)
(-7.32703e-17 9.44456 16.3798)
(-1.06298e-16 6.12353 10.7115)
(1.10797e-19 6.22225 10.75)
(-4.17205e-18 9.4816 16.2893)
(-3.41606e-18 9.01251 15.565)
(-3.163e-18 8.86873 15.2765)
(-3.42339e-18 8.85404 15.2927)
(2.35624e-17 8.86664 15.295)
(1.88651e-17 8.85661 15.3039)
(1.90616e-17 8.86152 15.3049)
(1.93252e-17 8.85549 15.312)
(1.88818e-17 8.85755 15.3149)
(1.93818e-17 8.85405 15.3209)
(1.91734e-17 8.85414 15.3253)
(1.81366e-17 8.85301 15.3304)
(1.82809e-17 8.8507 15.3369)
(1.95025e-17 8.85327 15.3402)
(1.78664e-17 8.84452 15.347)
(1.79559e-17 8.85152 15.3416)
(1.92672e-17 8.97675 15.6034)
(1.81412e-17 9.42629 16.3486)
(2.57324e-17 6.30662 11.0279)
(-3.02766e-20 6.41033 11.0691)
(9.72515e-19 9.45688 16.2526)
(8.20457e-19 8.97076 15.4934)
(7.44159e-19 8.84785 15.2438)
(8.40797e-19 8.83551 15.2614)
(-5.5333e-18 8.84687 15.2633)
(-4.64135e-18 8.8377 15.2719)
(-4.4832e-18 8.84225 15.2732)
(-4.55792e-18 8.83676 15.28)
(-4.49041e-18 8.83873 15.283)
(-4.6963e-18 8.83542 15.2889)
(-4.70059e-18 8.83578 15.2932)
(-4.32338e-18 8.83437 15.2984)
(-4.33182e-18 8.83284 15.3044)
(-4.64847e-18 8.83455 15.3083)
(-4.27917e-18 8.8276 15.3149)
(-4.42569e-18 8.83235 15.3093)
(-4.63434e-18 8.93994 15.5352)
(-4.44258e-18 9.40028 16.3042)
(-6.09762e-18 6.48761 11.3389)
(8.10409e-21 6.59921 11.3913)
(-2.27962e-19 9.42901 16.2095)
(-2.01062e-19 8.9336 15.4299)
(-1.75662e-19 8.83038 15.2165)
(-2.06968e-19 8.81964 15.2344)
(1.30012e-18 8.82977 15.2359)
(1.11214e-18 8.82129 15.2438)
(1.05595e-18 8.82533 15.2453)
(1.07103e-18 8.82027 15.2517)
(1.05088e-18 8.82202 15.2546)
(1.10981e-18 8.81884 15.2604)
(1.11629e-18 8.81935 15.2644)
(1.04904e-18 8.81765 15.2697)
(1.03195e-18 8.81678 15.2751)
(1.09018e-18 8.81761 15.2794)
(1.0173e-18 8.81235 15.2857)
(1.06097e-18 8.81515 15.2805)
(1.10146e-18 8.9062 15.4724)
(1.08342e-18 9.36999 16.2521)
(1.41257e-18 6.66886 11.6508)
(-2.14553e-21 6.78563 11.7086)
(5.38918e-20 9.39444 16.1552)
(4.93226e-20 8.89791 15.3686)
(4.17242e-20 8.81292 15.1892)
(5.07439e-20 8.80353 15.2069)
(-3.08325e-19 8.81252 15.2081)
(-2.64466e-19 8.80481 15.2156)
(-2.4947e-19 8.80838 15.2172)
(-2.51977e-19 8.80383 15.2233)
(-2.45255e-19 8.80536 15.2263)
(-2.58517e-19 8.80239 15.2319)
(-2.62586e-19 8.80303 15.2357)
(-2.56925e-19 8.80112 15.2411)
(-2.46321e-19 8.80088 15.2461)
(-2.57499e-19 8.80089 15.2509)
(-2.4341e-19 8.79728 15.2567)
(-2.51839e-19 8.79839 15.2524)
(-2.62057e-19 8.87428 15.4125)
(-2.62814e-19 9.33397 16.1901)
(-3.23041e-19 6.84894 11.9604)
(5.63671e-22 6.97106 12.0244)
(-1.28543e-20 9.35472 16.0918)
(-1.19071e-20 8.86495 15.3121)
(-9.98199e-21 8.79669 15.164)
(-1.22958e-20 8.78831 15.1809)
(7.36534e-20 8.79623 15.1819)
(6.29968e-20 8.78926 15.1889)
(5.89957e-20 8.79233 15.1907)
(5.9461e-20 8.78828 15.1965)
(5.78635e-20 8.78956 15.1995)
(6.01119e-20 8.78683 15.2049)
(6.20109e-20 8.78752 15.2085)
(6.25584e-20 8.78546 15.214)
(5.86265e-20 8.78579 15.2185)
(6.15973e-20 8.78501 15.2237)
(5.88849e-20 8.78296 15.229)
(5.97885e-20 8.78259 15.226)
(6.21955e-20 8.84479 15.3568)
(6.31704e-20 9.29278 16.1191)
(7.32687e-20 7.02819 12.2685)
(-1.46668e-22 7.15501 12.3375)
(3.08428e-21 9.30927 16.0185)
(2.8188e-21 8.83426 15.2593)
(2.3977e-21 8.78111 15.1399)
(2.94272e-21 8.77351 15.1556)
(-1.76007e-20 8.78043 15.1566)
(-1.49994e-20 8.7742 15.1631)
(-1.39921e-20 8.77679 15.1651)
(-1.40783e-20 8.77326 15.1704)
(-1.38459e-20 8.77425 15.1735)
(-1.40418e-20 8.77183 15.1787)
(-1.46812e-20 8.77251 15.1823)
(-1.49901e-20 8.77038 15.1877)
(-1.39001e-20 8.77119 15.1918)
(-1.48061e-20 8.7697 15.1974)
(-1.43313e-20 8.76912 15.2021)
(-1.42256e-20 8.76744 15.2007)
(-1.45963e-20 8.81755 15.305)
(-1.50416e-20 9.24617 16.0389)
(-1.65075e-20 7.20641 12.5747)
(3.76301e-23 7.33776 12.6486)
(-7.40327e-22 9.25836 15.9357)
(-6.58366e-22 8.80607 15.2109)
(-5.74822e-22 8.76633 15.117)
(-7.00236e-22 8.75931 15.1314)
(4.18729e-21 8.76533 15.1323)
(3.55896e-21 8.75981 15.1384)
(3.33751e-21 8.76192 15.1405)
(3.34174e-21 8.75892 15.1455)
(3.33787e-21 8.75959 15.1487)
(3.3028e-21 8.75752 15.1536)
(3.47429e-21 8.75812 15.1571)
(3.53275e-21 8.75601 15.1625)
(3.29296e-21 8.7572 15.1662)
(3.53977e-21 8.75509 15.1721)
(3.48111e-21 8.75586 15.1763)
(3.38956e-21 8.75301 15.1766)
(3.38714e-21 8.7927 15.2571)
(3.56141e-21 9.19423 15.9497)
(3.70238e-21 7.38367 12.8791)
(-9.4859e-24 7.51932 12.9575)
(1.76702e-22 9.20189 15.8434)
(1.52991e-22 8.78029 15.1666)
(1.36895e-22 8.7522 15.0952)
(1.67001e-22 8.74562 15.1081)
(-9.91293e-22 8.75082 15.109)
(-8.43008e-22 8.74599 15.1146)
(-8.00037e-22 8.74764 15.117)
(-7.94681e-22 8.74517 15.1216)
(-8.03299e-22 8.74552 15.1249)
(-7.83456e-22 8.74383 15.1295)
(-8.22364e-22 8.74428 15.133)
(-8.24231e-22 8.7423 15.1383)
(-7.8185e-22 8.74373 15.1417)
(-8.37388e-22 8.74114 15.1479)
(-8.38864e-22 8.74312 15.1514)
(-8.08615e-22 8.7392 15.1536)
(-7.84517e-22 8.77021 15.2133)
(-8.43181e-22 9.13691 15.8512)
(-8.29269e-22 7.55995 13.1815)
(2.34891e-24 7.69987 13.2645)
(-4.17679e-23 9.1399 15.7414)
(-3.55912e-23 8.75693 15.1265)
(-3.23771e-23 8.73876 15.0745)
(-4.0091e-23 8.73249 15.0858)
(2.33968e-22 8.73695 15.0868)
(2.00255e-22 8.7328 15.0919)
(1.92126e-22 8.73396 15.0945)
(1.89407e-22 8.73203 15.0987)
(1.92002e-22 8.73204 15.1021)
(1.8746e-22 8.73075 15.1064)
(1.9485e-22 8.73099 15.1099)
(1.91939e-22 8.72926 15.115)
(1.86092e-22 8.73075 15.1182)
(1.96275e-22 8.72789 15.1245)
(2.00065e-22 8.73086 15.1275)
(1.93153e-22 8.72598 15.1316)
(1.83339e-22 8.75006 15.1733)
(2.00546e-22 9.07418 15.7438)
(1.86056e-22 7.73528 13.4818)
(-5.73344e-25 7.87975 13.5702)
(9.77092e-24 9.07249 15.6298)
(8.31553e-24 8.73613 15.0909)
(7.63582e-24 8.72617 15.055)
(9.68293e-24 8.72013 15.0647)
(-5.51354e-23 8.72387 15.0658)
(-4.78582e-23 8.72044 15.0704)
(-4.61447e-23 8.72109 15.0731)
(-4.52902e-23 8.71965 15.077)
(-4.56056e-23 8.71935 15.0804)
(-4.51151e-23 8.7184 15.0844)
(-4.61554e-23 8.71838 15.0879)
(-4.48431e-23 8.717 15.0927)
(-4.43156e-23 8.7183 15.0959)
(-4.5815e-23 8.71545 15.1022)
(-4.72655e-23 8.71908 15.1046)
(-4.61494e-23 8.71339 15.1105)
(-4.34395e-23 8.73224 15.1373)
(-4.80045e-23 9.00611 15.6274)
(-4.19027e-23 7.90966 13.7798)
(1.38747e-25 8.05937 13.8752)
(-2.26786e-24 8.99946 15.5081)
(-1.95394e-24 8.71779 15.0597)
(-1.80551e-24 8.71454 15.0366)
(-2.34381e-24 8.70877 15.0447)
(1.29726e-23 8.71173 15.0461)
(1.15031e-23 8.70915 15.0501)
(1.10961e-23 8.70928 15.0529)
(1.08645e-23 8.70829 15.0564)
(1.08091e-23 8.7078 15.0598)
(1.08632e-23 8.70711 15.0635)
(1.09113e-23 8.70685 15.0671)
(1.05212e-23 8.70587 15.0715)
(1.05413e-23 8.70672 15.0749)
(1.07091e-23 8.70426 15.0808)
(1.10965e-23 8.70798 15.0831)
(1.10034e-23 8.70175 15.0903)
(1.04077e-23 8.71696 15.1052)
(1.15496e-23 8.93307 15.5027)
(9.48442e-24 8.08317 14.0752)
(-3.34542e-26 8.23966 14.1804)
(5.24178e-25 8.92059 15.3748)
(4.61624e-25 8.70165 15.0324)
(4.29085e-25 8.70361 15.0189)
(5.65524e-25 8.6985 15.0253)
(-3.04291e-24 8.70034 15.0269)
(-2.76962e-24 8.69872 15.0302)
(-2.67264e-24 8.69839 15.033)
(-2.60763e-24 8.69769 15.0361)
(-2.56419e-24 8.69712 15.0394)
(-2.602e-24 8.69657 15.0428)
(-2.57191e-24 8.69616 15.0463)
(-2.47397e-24 8.69556 15.0503)
(-2.50232e-24 8.69585 15.054)
(-2.51389e-24 8.69425 15.0593)
(-2.59745e-24 8.69725 15.0619)
(-2.61051e-24 8.69129 15.07)
(-2.50344e-24 8.70424 15.0762)
(-2.78299e-24 8.85557 15.3705)
(-2.15914e-24 8.25514 14.3661)
(8.14324e-27 8.42319 14.4926)
(-1.22258e-25 8.83808 15.2311)
(-1.10671e-25 8.69069 15.012)
(-1.03422e-25 8.69521 15.0051)
(-1.36693e-25 8.69182 15.0089)
(7.18461e-25 8.69212 15.0105)
(6.71918e-25 8.69114 15.0126)
(6.51178e-25 8.69035 15.0148)
(6.30708e-25 8.68951 15.0171)
(6.15595e-25 8.68862 15.0197)
(6.24338e-25 8.68775 15.0224)
(6.11216e-25 8.68688 15.0254)
(5.88003e-25 8.68604 15.0287)
(5.99328e-25 8.68543 15.0321)
(5.9927e-25 8.68433 15.0364)
(6.1394e-25 8.68531 15.0397)
(6.21364e-25 8.68103 15.0469)
(6.06892e-25 8.69107 15.0483)
(6.75745e-25 8.77264 15.2324)
(4.98515e-25 8.42326 14.6449)
(-1.67276e-27 8.61058 14.8239)
(2.39425e-26 8.7527 15.0801)
(2.23725e-26 8.69281 15.0032)
(2.09252e-26 8.695 15.0014)
(2.75365e-26 8.69441 15.0021)
(-1.41422e-25 8.69407 15.0026)
(-1.35832e-25 8.69366 15.0031)
(-1.32418e-25 8.69304 15.0038)
(-1.27268e-25 8.69232 15.0046)
(-1.23931e-25 8.69143 15.0056)
(-1.24591e-25 8.69038 15.0067)
(-1.21989e-25 8.68914 15.008)
(-1.17659e-25 8.68772 15.0095)
(-1.20449e-25 8.68604 15.0113)
(-1.20527e-25 8.68416 15.0133)
(-1.22054e-25 8.68208 15.0156)
(-1.23379e-25 8.67892 15.0189)
(-1.22748e-25 8.67938 15.02)
(-1.37375e-25 8.69418 15.0844)
(-9.71593e-26 8.59339 14.8933)
(2.13084e-26 -2.60629 17.0507)
(2.73131e-26 -8.05274 13.6813)
(-3.36333e-25 -5.18637 14.523)
(-1.56174e-24 -5.00133 14.1265)
(-2.47614e-24 -4.08975 14.0794)
(2.26631e-24 -3.53718 13.8996)
(2.28745e-23 -2.97845 13.738)
(7.03422e-23 -2.52889 13.5487)
(1.48446e-22 -2.14544 13.3467)
(2.46708e-22 -1.83635 13.1247)
(3.38436e-22 -1.59127 12.8771)
(3.85634e-22 -1.40667 12.5973)
(3.55264e-22 -1.28139 12.2837)
(2.5039e-22 -1.2288 11.9343)
(1.34296e-22 -1.27017 11.5423)
(1.02859e-22 -1.37735 11.1225)
(2.01388e-22 -1.57173 10.633)
(3.51062e-22 -2.10428 9.77122)
(3.44683e-22 -2.17459 8.42809)
(1.44517e-23 0.28635 6.10177)
(7.98467e-26 -11.0956 28.3821)
(2.7563e-25 -17.0129 24.8184)
(-1.44625e-24 -11.9619 25.2073)
(-6.70465e-24 -12.6468 23.4551)
(-8.05189e-24 -10.9039 22.6864)
(1.7238e-23 -10.2483 21.5668)
(1.0047e-22 -9.2555 20.6279)
(2.57476e-22 -8.48629 19.6626)
(4.59257e-22 -7.72384 18.7525)
(6.1761e-22 -7.05344 17.8714)
(6.10326e-22 -6.4476 17.0287)
(3.77024e-22 -5.91622 16.19)
(3.86092e-23 -5.4328 15.2856)
(-1.40714e-22 -4.96601 14.2266)
(-4.87455e-23 -4.48709 12.9449)
(-3.88441e-23 -3.93098 11.3707)
(-1.04399e-21 -3.18016 9.31963)
(-4.67332e-21 -2.20736 6.31877)
(-1.23696e-20 -0.859821 1.88988)
(-1.70044e-20 1.01227 -2.68215)
(1.65514e-25 -14.0213 30.2465)
(-1.88341e-25 -17.9276 27.3718)
(-4.81088e-24 -13.2241 27.2301)
(-1.36927e-23 -14.1227 24.8623)
(-7.85607e-24 -12.0187 23.9212)
(5.33199e-23 -11.5268 22.33)
(1.99704e-22 -10.3866 21.1374)
(3.8124e-22 -9.62417 19.8573)
(4.15592e-22 -8.7729 18.6829)
(6.21652e-23 -7.98472 17.4574)
(-7.24024e-22 -7.12402 16.0949)
(-1.53733e-21 -6.18074 14.4511)
(-1.72574e-21 -5.18661 12.512)
(-1.19968e-21 -4.26292 10.4121)
(-1.05268e-21 -3.44797 8.30523)
(-3.20212e-21 -2.62958 6.14917)
(-9.99067e-21 -1.68634 3.62647)
(-2.58747e-20 -0.385549 0.250473)
(-6.01268e-20 1.45125 -3.31446)
(-5.55091e-20 -0.642358 1.06497)
(1.79e-25 -15.4098 31.046)
(-5.61076e-25 -18.3425 28.5408)
(-6.60136e-24 -14.3473 28.132)
(-1.69669e-23 -15.2633 25.6271)
(-9.42013e-24 -13.0641 24.7266)
(6.4696e-23 -12.7889 22.9912)