/*--------------------------------*- C++ -*----------------------------------*\
| =========                 |                                                 |
| \\      /  F ield         | OpenFOAM: The Open Source CFD Toolbox           |
|  \\    /   O peration     | Version:  4.1                                   |
|   \\  /    A nd           | Web:      www.OpenFOAM.org                      |
|    \\/     M anipulation  |                                                 |
\*---------------------------------------------------------------------------*/
FoamFile
{
    version     2.0;
    format      ascii;
    class       volScalarField;
    location    "28";
    object      p;
}
// * * * * * * * * * * * * * * * * * * * * * * * * * * * * * * * * * * * * * //

dimensions      [0 2 -2 0 0 0 0];

internalField   nonuniform List<scalar> 
1280
(
1.58384
4.36205
7.12676
7.45065
10.5646
11.714
11.5588
11.8006
12.0997
13.2039
11.8764
12.8879
12.8379
9.53838
11.7375
10.1985
6.12477
3.47947
10.9076
-13.0458
10.279
32.7465
42.2746
39.068
37.0138
44.0612
29.081
28.708
25.6851
25.3531
24.5917
23.3256
22.1737
20.2809
18.7031
15.9095
14.2044
11.7194
12.4323
19.4206
9.35267
9.11452
14.7225
19.9261
32.8191
30.734
30.8546
30.8469
29.9764
30.3815
30.3992
30.3634
30.4788
30.3624
30.1963
30.8563
17.8695
12.5485
5.53265
-1.85384
15.9357
7.41523
3.57577
4.72956
5.73003
8.19768
9.522
11.2425
12.2989
13.4143
14.1917
14.9281
15.0695
-8.63629
37.0532
31.2646
29.5311
32.2106
22.0583
2.33369
-12.8438
6.12783
9.42388
15.1493
17.025
20.9862
21.3852
21.2193
21.4584
21.1462
18.9935
19.1418
16.7253
13.0747
11.7003
11.9356
7.81564
1.20562
0.496547
2.86381
-0.67348
0.494681
3.95901
1.28424
1.74567
0.858584
0.312712
-0.452969
-1.28367
-3.12939
-5.87266
-1.64749
-11.397
-3.80613
0.756746
4.08606
4.04196
1.97835
2.06125
-3.59327
-1.32321
4.36232
1.37803
1.51658
-1.04241
-1.28246
-2.08205
-2.49147
-2.53167
0.216409
-0.211364
-12.3403
2.54121
10.1981
13.6723
12.0718
6.44748
5.28314
-6.66414
-2.81402
3.56421
1.82678
2.58244
-0.810164
-1.22499
-2.68024
-3.9865
-6.419
-5.37485
-9.69904
-14.339
4.38347
15.8584
20.6988
19.7531
10.7286
8.02937
-8.66792
-4.00335
2.20759
0.951696
1.75437
-1.8348
-2.2066
-3.77347
-4.89619
-7.01607
-6.21529
-18.1194
-17.8326
4.71412
21.2289
28.0605
27.8466
14.5659
9.26231
-9.8636
-5.05643
0.525482
0.0427055
0.943135
-2.42982
-3.03954
-4.78223
-5.61243
-7.78402
-8.83451
-25.8174
-19.4002
6.09301
26.6962
35.6023
35.7378
18.0729
8.57969
-9.88468
-5.17372
-0.98959
-0.945465
-0.697568
-3.4612
-4.25224
-5.70143
-5.75974
-7.20679
-8.87383
-28.1671
-18.4591
8.11698
31.1819
42.4234
42.3162
18.4318
2.11585
-9.12969
-4.63129
-2.27249
-1.89503
-2.48615
-4.28436
-5.10343
-5.92336
-5.44296
-6.41305
-8.07368
-27.6488
-16.0028
9.49396
34.636
49.3577
48.4916
13.3208
-6.94541
-7.96384
-3.70804
-3.29869
-2.75462
-4.2615
-4.7426
-5.38095
-5.37879
-4.42467
-4.88464
-5.47718
-22.9378
-12.1417
10.2625
36.1984
56.8207
53.158
30.943
5.50274
-6.88135
-2.83218
-4.03346
-3.08254
-5.36371
-4.47847
-4.97607
-4.27805
-2.909
-2.85619
-1.87796
-14.9565
-6.655
11.0648
37.6348
58.171
51.1088
43.855
44.1193
-6.05887
-2.27526
-4.53093
-2.77769
-5.72408
-3.74969
-4.30359
-3.03193
-1.18683
-0.485541
2.05456
-7.27333
-1.54198
11.3995
34.315
44.4341
42.5359
48.1365
35.8986
-5.60753
-2.13762
-4.95441
-2.15297
-5.53978
-2.89885
-3.56743
-1.85862
0.44671
1.88313
6.36439
-2.40634
0.294809
9.3936
26.6778
32.2383
35.8208
47.8498
34.0248
-5.40833
-2.29745
-5.44965
-1.69579
-5.12107
-2.29995
-3.01971
-1.03969
1.79631
4.17541
11.9707
1.7988
0.642423
5.58108
18.3051
17.8301
16.423
29.7571
41.0506
-5.27956
-2.43609
-6.01891
-1.96106
-4.64688
-1.8885
-2.6144
-0.580746
2.85658
6.34368
19.3951
9.17133
4.41321
2.31961
6.64925
-5.64496
-4.06072
17.9118
26.8494
-4.99687
-2.56667
-6.5865
-3.37204
-4.13583
-1.46072
-1.94042
-0.0111701
3.77437
8.1617
27.5984
19.3583
12.2634
2.66179
-3.18558
-17.1255
-9.82592
10.094
22.8193
-4.61689
-2.67907
-6.31605
-5.22995
-3.64451
-1.10225
-1.07654
0.817345
4.63795
9.46107
34.7065
28.9715
20.4048
5.21469
-10.6473
-21.4723
-15.3978
10.0817
21.3229
-4.09938
-3.29915
-5.27523
-6.13787
-3.2133
-0.930652
-0.464263
1.50698
5.37937
10.1682
38.4011
34.7123
25.2695
6.4628
-17.4335
-25.0975
-20.9766
6.40689
17.4065
-3.59109
-3.4161
-3.55399
-5.69458
-2.69483
-0.910977
-0.221031
1.74248
5.62486
9.96649
37.2006
34.9669
25.7352
5.73052
-21.5141
-25.4229
-20.5334
5.61651
14.6722
-2.97731
-3.92432
-3.21997
-4.64576
-2.01974
-0.804762
-0.0161451
1.77826
5.36329
8.90067
31.4537
29.5652
20.9671
3.48125
-22.0966
-25.0381
-19.1794
3.55854
10.9455
-1.89614
-1.11907
-2.61946
-4.11109
-1.84667
-1.16044
-0.41161
1.18582
4.27598
7.22395
23.6216
19.1265
14.0859
1.08997
-17.5353
-24.1537
-15.9617
1.59069
7.01257
-1.26112
-1.56209
-2.99421
-3.81633
-2.4646
-2.32689
-2.16126
-1.29967
0.361944
2.0109
8.73569
4.74705
4.15393
-0.0392715
-7.96861
-16.8475
-10.2819
1.15628
4.1768
167.855
165.498
163.963
163.655
160.693
158.107
154.685
152.428
149.385
146.72
144.315
141.918
140.135
138.099
137.03
135.179
135.046
132.967
133.764
132.001
110.36
109.952
111.38
112.71
112.801
112.932
112.505
112.1
112.183
111.845
112.022
111.681
112.017
111.663
112.275
111.838
112.857
112.344
113.865
113.946
131.292
129.979
131.504
131.714
131.586
130.969
130.751
129.887
129.65
128.863
128.709
128.077
128.098
127.522
127.784
127.128
127.753
126.971
128.206
127.817
114.714
114.143
116.12
116.321
117.036
116.506
116.861
116.266
116.448
116.005
116.189
115.928
116.305
116.11
116.771
116.532
117.53
117.26
118.753
119.05
119.498
118.85
120.722
120.336
121.681
120.655
121.173
120.563
120.542
120.168
120.078
119.82
119.955
119.698
120.188
119.868
120.729
120.391
121.817
121.919
112.131
112.166
113.782
113.298
115.583
114.002
114.7
114.486
114.309
114.33
114.075
114.067
114.126
114.021
114.543
114.356
115.364
115.232
116.906
117.188
109.65
110.354
111.261
110.802
114.182
111.758
112.493
112.883
112.372
112.835
112.335
112.473
112.377
112.262
112.674
112.471
113.476
113.417
115.264
115.481
101.847
103.549
103.595
103.434
108.261
104.761
105.468
106.951
106.066
107.087
106.583
106.88
106.861
106.811
107.232
107.137
108.178
108.314
110.396
110.751
92.7945
95.457
94.4297
94.4938
100.978
96.5549
96.9772
99.7896
98.8246
100.179
100.025
100.382
100.64
100.712
101.199
101.296
102.276
102.646
104.735
105.317
77.9992
81.2573
78.8553
79.102
87.8134
82.0573
81.8862
86.4153
85.7598
87.1331
87.753
88.2601
89.189
89.7111
90.6702
91.3619
92.5511
93.5952
95.5618
97.2571
63.7715
65.956
62.3504
61.9526
69.5054
64.316
63.1575
66.4255
66.2799
65.6916
66.1251
65.348
65.78
65.3595
65.7411
65.702
66.4136
67.5095
69.5847
72.0899
66.4093
66.6417
67.2057
65.445
66.4132
61.7564
64.2663
60.7199
62.3942
59.4785
60.1319
57.9951
57.8958
56.3871
56.0927
55.2461
55.5583
55.876
56.588
56.8666
72.1928
73.4386
74.3582
72.973
75.5868
72.8412
74.8431
71.9811
73.5813
71.4798
72.1122
70.8356
70.8463
70.0457
69.7497
69.1035
68.8284
68.1671
67.2354
66.8471
60.4244
61.84
63.8079
62.7844
65.9838
64.5195
67.7161
65.9174
68.4511
68.459
69.7769
70.179
70.8768
71.4375
72.1434
72.6716
73.0937
73.2357
73.6057
74.4439
45.5347
44.8259
46.5198
44.1872
46.1743
44.1933
45.263
44.1784
44.29
43.8195
43.5989
43.3053
43.1107
43.1439
43.772
45.5016
47.4542
48.6701
49.4493
51.0743
59.5686
56.8719
58.1682
54.2106
55.5351
52.7474
52.8828
51.3547
50.8649
49.9176
49.2852
48.5798
48.0075
47.531
47.2041
46.9841
46.8881
46.8125
46.2477
46.5472
89.6539
86.0811
88.1927
81.8115
82.2523
77.9668
76.3881
73.5487
71.4989
69.3461
67.5134
65.8662
64.5098
63.4754
62.7488
62.1692
61.6632
61.225
60.6532
59.8819
86.3087
80.4759
88.7118
82.1178
84.4985
81.4862
80.6322
78.4796
76.6549
74.5526
72.4945
70.4345
68.4996
66.7979
65.4356
64.3501
63.6327
63.8674
64.2334
64.3704
95.6053
73.9674
82.222
71.3825
68.8827
62.4821
57.8013
52.8059
48.5266
44.7397
41.6855
39.4218
38.0686
37.744
38.605
40.5232
43.4449
47.9132
51.7809
53.8383
782.874
700.385
651.433
595.174
546.246
499.04
455.195
413.816
374.915
338.205
303.515
270.631
239.326
209.512
181.246
153.736
127.127
105.731
81.6325
44.4911
765.845
683.705
634.955
578.87
530.049
482.869
438.971
397.451
358.318
321.277
286.162
252.794
221.015
190.831
162.386
134.912
108.382
86.7632
62.3424
24.9054
85.837
63.9024
72.1775
61.1798
58.6839
52.1762
47.4521
42.3691
38.0244
34.1707
31.0717
28.7884
27.4551
27.2431
28.4478
30.9279
34.0436
37.7195
40.85
41.6747
65.152
57.7822
65.0188
57.1625
58.2443
53.8693
51.5396
47.8594
44.4034
40.5991
36.7602
32.8597
29.0997
25.7507
23.2429
21.827
21.1445
20.537
19.1493
18.7955
42.8997
38.2471
39.6017
32.4118
31.8193
26.4317
23.7334
19.6167
16.3308
12.8493
9.72107
6.80641
4.32135
2.4753
1.55291
1.72595
2.24618
3.06133
3.65533
5.68438
23.9052
22.5662
25.3911
22.3141
25.3821
23.7189
25.4439
25.4096
26.343
27.1441
28.1557
29.3505
30.5537
32.0266
33.2992
34.8473
37.0864
39.5913
41.9112
44.5006
48.2667
49.9323
52.9423
52.0519
55.8697
55.5217
58.2892
58.4912
60.6865
62.207
64.2597
65.313
68.1771
67.4816
66.4871
69.082
70.0748
71.1685
71.738
72.1519
67.9559
69.5837
71.0034
70.1422
72.8734
71.8519
73.9356
73.8198
75.3169
75.96
76.5885
78.6648
75.6625
67.9535
61.299
60.3569
60.8936
59.9461
58.6061
59.1859
60.175
59.9265
59.7756
57.5731
58.1784
55.3265
55.1883
52.5995
51.5934
49.6417
47.5633
46.3307
43.6782
41.6256
40.0107
34.9292
36.874
37.3973
28.526
31.7837
42.2937
41.9799
42.189
40.237
41.1574
38.689
39.2764
37.3278
37.3365
36.1703
35.776
35.1789
35.0277
34.2009
34.8344
33.6032
36.2945
38.5856
37.1156
40.0977
54.2162
55.894
57.3043
57.324
59.3806
59.354
61.0387
61.2225
62.5774
63.2303
64.7472
65.9425
67.735
69.2288
71.0824
72.6854
74.5679
77.1384
79.107
83.0986
75.5073
78.3534
79.5221
80.1318
82.0904
82.278
83.9368
84.2908
85.461
86.0669
87.0891
87.8975
88.8497
89.7054
90.6291
91.4794
92.7009
93.7599
95.748
97.3183
91.9196
94.7144
95.4159
96.3647
97.603
97.7343
98.8334
98.9398
99.6451
99.8255
100.259
100.42
100.7
100.695
100.978
100.846
101.612
101.767
103.744
104.142
100.846
102.621
103.006
104.136
104.351
104.349
104.617
104.327
104.566
104.209
104.311
103.839
103.866
103.17
103.269
102.407
102.966
102.363
104.077
104.012
103.215
103.626
103.914
104.851
104.209
104.056
103.662
103.006
102.821
102.023
101.925
101.079
101.106
100.196
100.446
99.4782
100.154
99.3134
100.948
100.805
98.565
98.4176
99.0899
100.17
99.4287
99.449
99.0402
98.546
98.4018
97.765
97.8497
97.2959
97.6405
97.2345
97.9144
97.5957
98.7146
98.4285
100.292
100.561
103.754
103.391
104.467
105.817
105.203
105.429
105.072
104.773
104.675
104.271
104.463
104.176
104.655
104.513
105.318
105.284
106.477
106.433
108.185
108.451
101.175
101.113
102.419
104.14
103.576
104.062
103.719
103.689
103.677
103.5
103.794
103.646
104.22
104.125
104.964
104.908
106.03
105.99
107.559
107.915
118.187
117.309
118.204
119.535
118.505
118.587
117.698
117.288
116.735
116.161
115.931
115.34
115.387
114.791
115.079
114.427
114.994
114.276
115.386
115.069
98.3013
98.2741
98.9338
101.036
100.107
100.443
99.6479
99.5599
99.1665
98.936
98.9248
98.6248
98.9438
98.5791
99.196
98.7655
99.6403
99.2352
100.48
100.708
153.555
151.559
149.083
149.541
145.441
142.952
139.315
136.409
133.113
130.425
127.989
125.67
124.009
122.068
121.189
119.418
119.341
117.345
117.982
116.797
)
;

boundaryField
{
    outletWall
    {
        type            fixedValue;
        value           uniform 0;
    }
    fineWalls
    {
        type            zeroGradient;
    }
    fineFrontAndBack
    {
        type            zeroGradient;
    }
    fineplugLeft
    {
        type            cyclicAMI;
        value           nonuniform List<scalar> 
20
(
109.485
109.498
108.717
110.877
111.325
113.364
114.536
116.543
118.2
120.37
122.447
124.645
127.684
140.402
135.298
135.957
138.737
139.625
138.948
136.34
)
;
    }
    fineplugRight
    {
        type            cyclicAMI;
        value           nonuniform List<scalar> 
20
(
96.6244
95.869
94.5913
96.4185
96.6802
98.5906
99.5588
101.456
102.996
105.074
107.178
109.476
112.141
122.492
121.772
122.606
125.539
125.708
125.659
123.31
)
;
    }
    inletOutletLeft
    {
        type            cyclicAMI;
        value           nonuniform List<scalar> 
20
(
109.485
109.498
108.717
110.877
111.325
113.364
114.536
116.543
118.2
120.37
122.447
124.645
127.684
140.402
135.298
135.957
138.737
139.625
138.948
136.34
)
;
    }
    inletLeft
    {
        type            zeroGradient;
    }
    inletWallsLeft
    {
        type            zeroGradient;
    }
    inletFacesLeft
    {
        type            zeroGradient;
    }
    inletOutletRight
    {
        type            cyclicAMI;
        value           nonuniform List<scalar> 
20
(
96.6244
95.869
94.5913
96.4185
96.6802
98.5906
99.5588
101.456
102.996
105.074
107.178
109.476
112.141
122.492
121.772
122.606
125.539
125.708
125.659
123.31
)
;
    }
    inletRight
    {
        type            zeroGradient;
    }
    inletWallsRight
    {
        type            zeroGradient;
    }
    inletFacesRight
    {
        type            zeroGradient;
    }
}


// ************************************************************************* //
