/*--------------------------------*- C++ -*----------------------------------*\
| =========                 |                                                 |
| \\      /  F ield         | OpenFOAM: The Open Source CFD Toolbox           |
|  \\    /   O peration     | Version:  4.1                                   |
|   \\  /    A nd           | Web:      www.OpenFOAM.org                      |
|    \\/     M anipulation  |                                                 |
\*---------------------------------------------------------------------------*/
FoamFile
{
    version     2.0;
    format      ascii;
    class       surfaceScalarField;
    location    "28";
    object      phi;
}
// * * * * * * * * * * * * * * * * * * * * * * * * * * * * * * * * * * * * * //

dimensions      [0 3 -1 0 0 0 0];

internalField   nonuniform List<scalar> 
2360
(
-6711.29
-2638.65
-4072.64
-2638.65
-2638.65
1243.29
-3881.94
1243.29
1243.29
1243.29
4701.96
-3458.67
4701.96
4701.96
7844.05
-3142.09
7844.05
7844.05
10654.5
-2810.42
10654.5
10654.5
14044.7
-3390.23
14044.7
14044.7
15355.5
17104.2
18601.4
19893.2
21090.9
22343.3
17965
5578.43
19049.1
20049.2
20996.8
21896.1
22745.9
23534
24261.4
24911.3
25488.8
25996.1
26488.6
27115.8
27966.3
13593.5
14372.8
13593.5
13593.5
13593.5
1347.69
12245.8
1347.69
1347.69
1347.69
-117.699
1465.39
-117.699
-117.699
711.678
-829.377
711.679
711.679
711.68
-11326.9
12038.6
-11326.9
-11326.9
-11326.9
-27418.3
16091.4
-26459.9
-25690.9
-25143.6
-24654.8
-24117.2
-23513.5
-22828.6
-22076.1
-21252.5
-20363.1
-19403.8
-18375
-17269
-20812.4
4721.67
-19573.6
-18274.2
-16921.6
-15483.7
-13776.6
-12640.1
-12640.1
-12640.1
-5645.79
-6994.26
-5645.79
-5645.79
400.58
-6046.37
400.578
400.579
5044.59
-4644.01
5044.59
5044.59
9007
-3962.4
9007
9007
9007
12375.9
-3368.9
12375.9
12375.9
15729.3
-3353.41
-1031.81
-5486.34
-1803.91
4799.53
-3093.57
8053.81
-5234.69
-3004.45
-7215.95
-7948.88
-8355.34
-8443
-8715.79
-11112.7
-8714.52
-15259
-8459.45
-20240
-7350.41
-24673.4
-4165.26
-22579.1
-398.718
-747.137
1090.68
24945.2
2052.13
30493.9
2915.94
26388.7
3509.94
17743.6
4014.18
6556.22
4253.28
-2158.29
-7548.53
-1126.17
-4891.41
-2144.38
5817.74
-3724.36
9633.79
-6347.49
-381.322
-8003.6
-6292.78
-8289.5
-8157.09
-7934.66
-11467.5
-7510.73
-15682.9
-7226.66
-20524
-6696.9
-25203.1
-4682.88
-24593.1
-1024.45
-4405.57
970.037
22950.7
1811.88
29652.1
2771.48
25429.1
3546.28
16968.9
4545.97
5556.52
4741.94
-2354.26
-6175.5
-1876.09
-3907.81
-2933.66
6875.31
-4393.22
11093.4
-6800.72
2026.17
-7812.15
-5281.34
-7638.48
-8330.76
-7153.84
-11952.2
-6650.18
-16186.5
-6213.21
-20961
-5743.98
-25672.4
-4608.7
-25728.4
-1542.26
-7472.01
616.586
20791.8
1350.84
28917.8
2462.58
24317.3
3464.7
15966.7
4921.22
4100
5369.18
-2802.22
-4768.72
-2938.33
-2672.68
-3925.63
7862.61
-5002.2
12169.9
-7003.88
4027.86
-7659.96
-4625.26
-7368.19
-8622.53
-6933.42
-12387
-6473.38
-16646.6
-5943.83
-21490.5
-5362.42
-26253.8
-4604.58
-26486.2
-2372
-9704.6
-339.81
18759.7
613.137
27964.9
1929.46
23001
3214.4
14681.8
5221.23
2093.18
6174.66
-3755.65
-3238.07
-4137.43
-1310.89
-4994
8719.19
-5625.98
12801.9
-7102.73
5504.61
-7496.58
-4231.41
-7188.52
-8930.59
-6816.55
-12758.9
-6413.05
-17050.1
-5861.13
-22042.5
-5240.69
-26874.2
-4881.97
-26844.9
-3764.17
-10822.4
-1810.36
16805.8
-320.803
26475.3
1147.23
21533
2740.73
13088.3
5396.1
-562.198
7023.61
-5383.15
-2260.84
-5345.82
39.1228
-5989.25
9362.61
-6204.56
13017.2
-7124.14
6424.19
-7301.45
-4054.11
-6953.02
-9279.02
-6545.05
-13166.9
-6149.92
-17445.2
-5659.36
-22533
-5167.75
-27365.8
-5254.68
-26758
-5149.24
-10927.8
-3272.28
14928.9
-1357.08
24560.1
114.827
20061.1
2322.6
10880.5
5196.83
-3436.43
6961.02
-7147.33
-2294.08
-6361.34
1299.83
-6799.52
9800.8
-6687.19
12904.9
-7078.6
6815.6
-6991.4
-4141.31
-6476.9
-9793.53
-5916.45
-13727.4
-5496.66
-17865
-5171.46
-22858.2
-5015.22
-27522.1
-5604.65
-26168.6
-6281.75
-10250.7
-4550.36
13197.5
-2581.99
22591.8
-1286.47
18765.6
2101.16
7492.88
3301.73
-4637
2004.71
-5850.32
4432.3
-7061.17
2416.99
-7353.09
10092.7
-7021.97
12573.8
-6934.66
6728.3
-6537.35
-4538.62
-5774.91
-10556
-5049.31
-14452.9
-4687.3
-18227
-4681.2
-22864.3
-4965.44
-27237.8
-5892.5
-25241.5
-7150.92
-8992.33
-5891.33
11937.9
-4053.81
20754.2
-2521.51
17233.3
-1301.91
6273.28
-5706.85
-232.06
-12178
620.864
8345.7
-7405.35
3417.37
-7643.03
10330.4
-7213.63
12144.4
-6730.63
6245.3
-5994.27
-5274.98
-4971.88
-11578.4
-4187.97
-15236.9
-3998.4
-18416.6
-4352
-22510.7
-5046.09
-26543.7
-6083.26
-24204.3
-7581.02
-7494.56
-6987.34
11344.2
-5292.32
19059.2
-4766.12
16707.1
-8636.68
10143.8
-14351
5482.3
-15392.1
1661.93
4992.2
-7453.54
4340.37
-7733.73
10610.6
-7330.21
11740.8
-6516.5
5431.59
-5409.67
-6381.81
-4213.95
-12774.1
-3560.29
-15890.5
-3584.59
-18392.3
-4199.74
-21895.6
-5226.94
-25516.5
-6288.03
-23143.2
-7477.21
-6305.39
-7317.23
11184.2
-6419.71
18161.7
-7709.34
17996.7
-11764.2
14198.7
-12407.9
6126.05
-7879.91
-2866.1
-3717.08
-7468.81
5182.46
-7828.88
10970.7
-7501.51
11413.5
-6310.19
4240.26
-4805.17
-7886.83
-3631.21
-13948
-3265.56
-16256.2
-3450.46
-18207.4
-4185.72
-21160.3
-5455.31
-24246.9
-6683.73
-21914.8
-7382.02
-5607.1
-7215.88
11018.1
-7643.46
18589.3
-10368.2
20721.4
-13647.3
17477.8
-13642.6
6121.32
-10199.9
-6308.8
-12451.6
-7804.34
5919.23
-8201.77
11368.1
-7817.34
11029
-6073.16
2496.08
-4253.73
-9706.26
-3339.98
-14861.8
-3245.46
-16350.7
-3455.69
-17997.1
-4167.09
-20448.9
-5548.08
-22866
-7156.1
-20306.8
-7990.17
-4773.03
-7942.86
10970.8
-9451.52
20097.9
-12976.1
24246
-15818.8
20320.5
-15820.5
6123.05
-14826.5
-7302.82
-15032.2
-8586.86
6565.36
-8904.93
11686.2
-8112.89
10237
-5706.85
90.0284
-3849.12
-11564
-3319.86
-15391
-3321.01
-16349.5
-3443.26
-17874.9
-4038.56
-19853.6
-5386.6
-21517.9
-7460.54
-18232.8
-9259.02
-2974.55
-9911.6
11623.4
-11742.1
21928.4
-14277.3
26781.2
-13818.8
19861.9
-9981.87
2286.16
-9545.49
-7739.2
-10204.9
-9567.82
7141.08
-9643.55
11761.9
-8093.39
8686.85
-5215.86
-2787.5
-3614.66
-13165.2
-3352.74
-15653
-3267.06
-16435.2
-3295.44
-17846.5
-3781.99
-19367.1
-4997.4
-20302.5
-7353.12
-15877.1
-10299.6
-28.0775
-11870.1
13193.8
-13365.1
23423.5
-13885.1
27301.2
-10138.1
16114.9
-4455.46
-3396.5
-951.893
-11242.8
-5578.4
-10311.5
7666.89
-10046.9
11497.3
-7709.34
6349.26
-4726.96
-5769.89
-3489.81
-14402.3
-3288.14
-15854.6
-3023.41
-16699.9
-2964.52
-17905.4
-3363.28
-18968.3
-4415.36
-19250.4
-6682.75
-13609.7
-10297.3
3586.5
-12500.6
15397.1
-13313.8
24236.7
-12034.2
26021.5
-7103.03
11183.7
-2742.82
-7756.7
111.41
-14097
-8857.22
-10475.5
8137.22
-9895.83
10917.7
-7035.15
3488.58
-4283.37
-8521.66
-3426.96
-15258.7
-3161.07
-16120.5
-2734.58
-17126.4
-2558.35
-18081.6
-2813.61
-18713.1
-3645.59
-18418.4
-5330.99
-11924.3
-8928.3
7183.81
-11434.9
17903.7
-11614.6
24416.5
-9198.4
23605.3
-3796.44
5781.77
-145.634
-11407.5
1390.45
-15633.1
-10277.2
-10148.5
8545.27
-9235.96
10005.1
-6124.19
376.803
-3922.07
-10723.8
-3421.06
-15759.8
-3029.35
-16512.2
-2519.79
-17636
-2214.57
-18386.9
-2250.72
-18676.9
-2760.64
-17908.5
-3553.76
-11131.2
-6583.52
10213.6
-9159.74
20479.9
-8994.32
24251
-6133.53
20744.5
-979.006
627.252
2027.4
-14413.9
2834.66
-16440.3
-10584.6
-9511.1
8837.46
-8286.57
8780.59
-5292.93
-2616.83
-3748.12
-12268.6
-3431.25
-16076.6
-2922.25
-17021.2
-2388.35
-18169.9
-1968.21
-18807
-1768.23
-18876.9
-1891.34
-17785.4
-1842.37
-11180.2
-3903.21
12274.4
-6343.45
22920.2
-6201.89
24109.5
-3222.41
17765.1
1301.6
-3896.76
3691.34
-16803.7
3925.38
-16674.4
-10117.9
-8952.59
9032.14
-7360.86
7188.87
-4708.65
-5269.04
-3749.82
-13227.4
-3416.34
-16410.1
-2862.04
-17575.5
-2307.54
-18724.4
-1799.48
-19315
-1401.78
-19274.6
-1187.78
-17999.4
-606.276
-11761.7
-1490.31
13158.4
-3566.29
24996.2
-3891.43
24434.6
-509.997
14383.6
3425.77
-7832.52
4923.74
-18301.6
4745.51
-16496.2
-9254.34
-8135.47
-6514
-4538.34
-3852.91
-3398.41
-2846.98
-2258.49
-1691.71
-1175.9
-751.362
-53.3606
468.655
-143.294
-466.489
1938.66
4746.76
5620.38
5179.91
240.205
-1550.99
437.64
-1946.11
562.468
-1622.08
656.822
-1386.17
770.759
-1311.58
905.143
-1386.77
932.471
-1227.52
925.056
-1076.66
916.747
-991.75
904.916
-935.842
875.749
-870.148
829.04
-803.018
759.581
-718.659
675.292
-643.1
565.986
-540.629
439.384
-450.898
300.945
-368.81
182.186
-373.777
94.8298
-539.824
-755.645
72.856
-1623.85
36.9381
-1910.19
47.1952
-1632.34
58.8166
-1397.79
91.5717
-1344.33
129.878
-1425.08
116.21
-1213.85
102.295
-1062.74
104.404
-993.859
112.093
-943.53
113.518
-871.573
111.104
-800.604
100.354
-707.908
89.7747
-632.52
75.9312
-526.785
60.7386
-435.705
47.7457
-355.817
48.2282
-374.26
42.5127
-534.108
-713.133
-5.01086
-1618.84
3.91902
-1919.12
68.5572
-1696.97
97.3786
-1426.61
117.428
-1364.38
127.516
-1435.17
129.962
-1216.3
143.762
-1076.54
150.993
-1001.09
152.86
-945.397
150.304
-869.017
147.804
-798.104
142.487
-702.59
136.523
-626.555
134.792
-525.054
133.948
-434.86
129.252
-351.121
117.088
-362.095
79.0081
-496.028
-634.125
-1.84173
-1616.99
13.7665
-1934.73
61.4802
-1744.69
73.7151
-1438.85
88.4176
-1379.08
99.6099
-1446.36
97.6224
-1214.31
99.8611
-1078.78
101.31
-1002.54
104.262
-948.349
104.749
-869.503
104.321
-797.676
101.567
-699.836
95.3213
-620.309
90.8616
-520.594
92.2743
-436.273
94.7763
-353.623
92.7814
-360.1
62.6682
-465.914
-571.456
-7.34635
-1609.65
4.52942
-1946.6
41.3095
-1781.47
45.6412
-1443.18
60.6639
-1394.1
73.9344
-1459.63
77.6014
-1217.98
88.13
-1089.31
96.4694
-1010.88
103.918
-955.797
108.974
-874.559
111.468
-800.17
114.063
-702.43
111.98
-618.225
111.085
-519.698
116.498
-441.685
125.425
-362.55
118.8
-353.475
73.6679
-420.781
-497.788
3.60461
-1613.25
15.8298
-1958.83
46.5702
-1812.21
53.2
-1449.81
72.4305
-1413.33
89.6795
-1476.88
93.3016
-1221.6
108.06
-1104.07
121.139
-1023.95
132.039
-966.697
140.35
-882.869
144.662
-804.481
148.57
-706.338
146.878
-616.533
142.534
-515.353
137.815
-436.966
134.174
-358.908
114.586
-333.887
64.9526
-371.147
-432.836
16.2322
-1629.48
19.6694
-1962.26
41.5206
-1834.06
52.428
-1460.71
71.1898
-1432.09
87.0768
-1492.76
91.9422
-1226.46
112.016
-1124.14
130.837
-1042.77
145.272
-981.131
157.725
-895.321
165.612
-812.369
173.42
-714.146
175.392
-618.504
174.601
-514.561
167.753
-430.118
156.552
-347.708
125.528
-302.862
69.1071
-314.727
-363.729
42.9815
-1672.46
37.2773
-1956.56
54.9196
-1851.7
78.7132
-1484.51
99.3079
-1452.69
111.278
-1504.73
121.4
-1236.58
144.989
-1147.73
168.076
-1065.86
183.908
-996.963
199.676
-911.089
210.291
-822.984
221.133
-724.988
225.272
-622.643
225.89
-515.18
215.799
-420.027
194.625
-326.534
150.82
-259.056
85.8396
-249.747
-277.889
66.9544
-1739.41
52.9763
-1942.58
64.2721
-1862.99
102.885
-1523.12
126.215
-1476.02
130.706
-1509.22
154.593
-1260.47
183.914
-1177.05
214.327
-1096.27
234.344
-1016.98
256.258
-933.002
272.52
-839.245
288.926
-741.393
299.049
-632.765
305.125
-521.255
298.313
-413.215
274.337
-302.558
222.084
-206.802
136.422
-164.084
-141.467
71.2378
-1810.65
59.2491
-1930.59
59.3425
-1863.09
118.823
-1582.6
149.805
-1507
139.471
-1498.89
186.861
-1307.86
224.344
-1214.53
265.753
-1137.68
294.315
-1045.54
326.312
-964.999
352.415
-865.347
377.686
-766.665
397.768
-652.846
414.031
-537.517
417.287
-416.471
394.412
-279.682
336.524
-148.914
227.001
-54.5616
85.5335
51.6344
-1862.29
53.7916
-1932.75
30.51
-1839.8
97.5484
-1649.63
143.952
-1553.4
113.846
-1468.78
175.163
-1369.18
214.585
-1253.95
258.898
-1182
294.842
-1081.48
334.611
-1004.77
370.012
-900.748
403.12
-799.773
431.015
-680.741
453.139
-559.641
453.312
-416.645
395.855
-222.225
253.466
-6.52574
79.5173
119.386
165.051
18.3098
-1880.59
23.0536
-1937.49
2.54257
-1819.29
18.7
-1665.79
46.0921
-1580.79
27.2124
-1449.9
44.5672
-1386.53
59.3975
-1268.78
70.3334
-1192.93
83.2075
-1094.36
93.5826
-1015.14
102.939
-910.104
106.201
-803.036
103.706
-678.246
89.7539
-545.689
44.2236
-371.115
-70.541
-107.461
-213.303
136.235
-248.039
154.121
-82.9884
19.3373
-1899.93
21.3278
-1939.48
30.2942
-1828.26
22.7119
-1658.21
29.9682
-1588.05
32.7512
-1452.69
18.0148
-1371.8
10.8494
-1261.62
-2.45025
-1179.63
-12.7444
-1084.06
-29.8665
-998.022
-43.5863
-896.384
-59.0502
-787.572
-75.6945
-661.602
-104.278
-517.107
-132.076
-343.317
-124.467
-115.07
-76.9172
88.6849
-8.29205
85.4955
-91.2805
60.2619
-1960.19
58.4386
-1937.66
77.7125
-1847.53
93.7831
-1674.28
114.981
-1609.25
133.683
-1471.39
152.612
-1390.73
175.32
-1284.33
194.95
-1199.26
217.075
-1106.19
236.231
-1017.18
257.378
-917.531
271.173
-801.367
269.532
-659.962
257.879
-505.454
261.396
-346.834
331.272
-184.946
417.232
2.7242
335.681
167.046
244.4
64.7274
-2024.92
38.4435
-1911.37
51.4062
-1860.5
64.6584
-1687.53
85.8889
-1630.48
114.229
-1499.73
146.388
-1422.89
183.754
-1321.69
224.154
-1239.66
269.866
-1151.9
316.685
-1064
355.957
-956.804
367.724
-813.136
329.911
-622.149
247.771
-423.315
155.647
-254.711
83.8944
-113.194
75.3187
11.2987
55.1713
187.192
299.571
3.39069
-2028.31
-46.081
-1861.9
-71.7346
-1834.84
-96.0358
-1663.23
-121.762
-1604.75
-142.017
-1479.48
-163.289
-1401.61
-180.69
-1304.29
-197.159
-1223.2
-211.785
-1137.28
-227.226
-1048.56
-247.318
-936.714
-275.977
-784.479
-306.91
-591.218
-326.767
-403.46
-313.725
-267.755
-264.807
-162.115
-142.56
-110.952
-98.8369
143.465
200.734
-41.4751
-1986.84
-102.862
-1800.52
-149.599
-1788.11
-188.367
-1624.47
-228.637
-1564.48
-256.584
-1451.53
-286.503
-1371.7
-309.615
-1281.18
-332.658
-1200.15
-352.209
-1117.73
-367.687
-1033.08
-369.226
-935.175
-338.198
-815.508
-252.4
-677.016
-117.786
-538.075
16.3746
-401.917
82.2791
-228.023
-19.3608
-9.31556
-46.3002
170.403
154.434
-145.341
-1841.5
-317.63
-1628.23
-453.259
-1652.48
-553.941
-1523.78
-643.678
-1474.75
-705.085
-1390.12
-753.203
-1323.58
-782.891
-1251.49
-799.119
-1183.93
-800.392
-1116.45
-783.793
-1049.68
-738.992
-979.976
-651.398
-903.102
-514.58
-813.834
-347.53
-705.126
-185.494
-563.954
-52.0153
-361.504
-31.541
-29.7924
18.6009
120.259
173.035
-196.263
-1645.24
-437.264
-1387.23
-690.069
-1399.67
-900.808
-1313.05
-1102.31
-1273.24
-1270.91
-1221.52
-1416.42
-1178.08
-1533.84
-1134.07
-1625.89
-1091.88
-1692.24
-1050.1
-1732.96
-1008.96
-1745.3
-967.643
-1724.18
-924.216
-1663.21
-874.81
-1554.24
-814.09
-1382.03
-736.164
-1112.59
-630.948
-664.743
-477.638
-265.177
-279.307
-92.142
-670.238
-1082.46
-1507.14
-1845.18
-2143.43
-2389.95
-2593.03
-2752.1
-2868.98
-2944.08
-2978.04
-2970.68
-2919.9
-2819.71
-2658.8
-2419.96
-2075.91
-1578.55
-882.858
-661.302
1636.31
-1067.41
1381.11
-1485.99
1393.59
-1819.67
1308.68
-2114.71
1270.04
-2359.45
1219.74
-2562.11
1177.66
-2722.36
1135.24
-2842.58
1095.23
-2923.85
1056.27
-2966.5
1017.65
-2968.07
976.569
-2922.26
929.192
-2818.31
871.052
-2641.32
798.012
-2376.33
710.012
-2011.38
610.052
-1520.78
484.398
-859.492
313.713
115.509
-217.374
1853.68
-485.254
1648.99
-765.331
1673.67
-1009.06
1552.42
-1245.52
1506.5
-1453.52
1427.75
-1641.91
1366.05
-1806.95
1300.29
-1951.42
1239.71
-2074.46
1179.32
-2172.71
1115.9
-2235.06
1038.92
-2238.4
932.53
-2144
776.653
-1912.73
566.746
-1548.8
346.082
-1110.97
172.227
-652.359
25.7878
-232.671
-105.972
-117.162
-183.579
2037.27
-384.971
1850.39
-553.075
1841.78
-683.225
1682.57
-803.585
1626.86
-893.239
1517.41
-970.296
1443.11
-1027.61
1357.6
-1071.38
1283.48
-1099.89
1207.83
-1113.54
1129.55
-1108.98
1034.37
-1078.7
902.253
-1007.1
705.054
-878.544
438.191
-701.244
168.785
-545.727
16.7133
-403.53
-116.405
-240.877
-268.621
-358.039
-1.06695
2038.33
-60.5185
1909.84
-84.7732
1866.03
-91.8936
1689.69
-95.4369
1630.41
-81.7232
1503.7
-60.9991
1422.38
-25.8567
1322.46
21.6029
1236.02
81.7116
1147.73
151.074
1060.19
222.133
963.311
275.598
848.79
275.553
705.103
194.813
518.935
60.0639
303.544
-2.22223
79.0164
-25.3427
-93.2713
-73.2123
-220.745
-431.251
95.8377
1942.5
83.4308
1922.25
118.673
1830.79
160.016
1648.35
206.591
1583.84
263.144
1447.14
326.99
1358.54
395.152
1254.3
466.464
1164.71
544.263
1069.93
630.275
974.179
711.957
881.631
794.806
765.946
892.145
607.766
901.226
509.858
761.295
443.479
529.246
311.07
284.8
151.182
137.475
-73.4115
-293.776
76.6369
1865.86
87.813
1911.07
121.818
1796.79
153.28
1616.88
186.034
1551.08
223.931
1409.24
262.438
1320.03
306.107
1210.62
339.627
1131.19
373.042
1036.51
401.927
945.294
436.32
847.235
448.673
753.596
465.411
591.027
392.947
582.328
364.153
472.276
268.509
406.721
185.952
233.754
76.0849
36.4724
-217.69
4.27354
1861.58
8.99144
1906.35
9.01614
1796.76
-2.21934
1628.12
-14.3862
1563.25
-40.3789
1435.23
-76.5311
1356.18
-101.35
1235.44
-126.134
1155.97
-152.245
1062.61
-192.473
985.516
-224.725
879.484
-277.073
805.944
-385.381
699.335
-555.685
752.639
-479.634
396.236
-365.078
292.177
-294.233
162.929
-187.223
-70.5149
-404.913
-13.957
1875.54
-25.6826
1918.07
-36.7036
1807.78
-58.4734
1649.88
-81.9395
1586.71
-121.538
1474.83
-165.352
1399.99
-198.564
1268.64
-214.852
1172.26
-212.913
1060.66
-196.087
968.687
-170.028
853.414
-125.517
761.435
-104.457
678.271
-102.443
750.627
-139.919
433.713
-83.8511
236.112
-88.4031
167.486
-74.3128
-84.596
-479.226
61.6517
1813.88
40.3205
1939.4
50.9592
1797.14
57.0361
1643.8
64.9439
1578.8
71.6595
1468.11
82.746
1388.91
89.2433
1262.14
104.131
1157.37
130.399
1034.39
176.678
922.409
233.415
796.677
319.287
675.564
410.253
587.306
560.355
600.527
505.914
488.155
410.793
331.237
357.961
220.323
240.812
32.5592
-238.414
138.11
1675.77
107.364
1970.14
117.242
1787.26
137.769
1623.27
171.595
1544.97
211.944
1427.76
262.853
1338
304.462
1220.53
342.986
1118.84
371.299
1006.08
397.766
895.941
415.403
779.038
426.328
664.64
456.174
557.458
575.297
481.405
626.626
436.826
582.093
375.77
501.178
301.239
316.897
216.842
78.4837
154.394
1521.38
138.918
1985.61
143.98
1782.19
164.434
1602.81
201.784
1507.62
249.537
1380
308.479
1279.05
362.479
1166.53
408.391
1072.93
437.511
976.954
450.539
882.912
444.924
784.651
423.642
685.922
416.197
564.902
441.666
455.936
459
419.491
439.643
395.127
371.352
369.53
226.95
361.245
305.434
93.8645
1427.51
92.9198
1986.55
101.084
1774.02
112.549
1591.34
135.72
1484.45
167.535
1348.18
207.541
1239.04
250.065
1124
283.102
1039.89
304.167
955.886
312
875.076
310.076
786.573
310.579
685.416
317.07
558.409
319.999
453.005
323.736
415.752
320.097
398.765
275.486
414.14
174.842
461.887
480.276
11.2145
1416.29
13.2527
1984.51
29.0383
1758.24
29.2188
1591.16
32.625
1481.04
32.2688
1348.54
33.645
1237.67
43.5456
1114.1
54.2468
1029.19
65.922
944.209
77.2578
863.738
94.735
769.094
122.906
657.244
141.291
540.022
156.188
438.107
178.602
393.337
196.028
381.338
178.105
432.062
120.794
519.197
601.07
-32.281
1448.57
-29.4264
1981.66
-7.99109
1736.8
-12.7603
1595.93
-16.6081
1484.89
-30.8674
1362.79
-49.9627
1256.76
-68.2768
1132.41
-74.1087
1035.02
-68.333
938.431
-51.6983
847.101
-26.7346
744.127
-3.56473
634.071
4.18742
532.268
16.7117
425.581
41.0072
369.04
63.4765
358.868
64.1531
431.384
43.2374
540.111
644.308
-24.2143
1472.78
-11.7391
1969.18
19.7847
1705.27
24.9619
1590.75
31.4524
1478.4
33.7879
1360.46
32.8303
1257.72
21.3739
1143.86
16.3047
1040.09
17.398
937.335
26.0566
838.441
31.105
739.077
26.031
639.144
13.1929
545.104
2.79806
435.974
2.28377
369.553
6.72656
354.424
3.46519
434.644
-11.8174
555.392
632.49
-6.41903
1479.19
7.53148
1955.22
42.3675
1670.43
58.4856
1574.63
74.5775
1462.3
92.2399
1342.79
114.115
1235.84
128.391
1129.58
138.161
1030.31
140.148
935.346
137.936
840.651
125.869
751.141
110.848
654.163
95.6486
560.302
82.4133
449.208
74.2483
377.717
68.7291
359.942
52.5497
450.822
12.755
595.184
645.245
12.0075
1467.19
28.6591
1938.57
69.8273
1629.27
91.5577
1552.9
103.529
1450.33
112.391
1333.93
127.801
1220.43
144.186
1113.2
157.732
1016.77
161.089
931.989
156.648
845.091
146.914
760.874
139.14
661.936
130.24
569.202
120.969
458.477
113.007
385.679
108.883
364.065
98.0681
461.637
53.1042
640.147
698.349
6.90485
1460.28
20.8357
1924.64
79.9748
1570.13
105.66
1527.21
118.729
1437.26
126.758
1325.9
135.976
1211.21
144.429
1104.74
154.912
1006.28
161.163
925.738
165.371
840.882
168.407
757.838
171.365
658.977
170.335
570.23
168.409
460.403
162.813
391.273
157.765
369.112
143.591
475.81
96.0823
687.655
794.432
84.8969
1375.38
70.7889
1938.75
74.045
1566.87
100.789
1500.47
113.257
1424.79
110.899
1328.26
110.758
1211.35
106.187
1109.31
102.716
1009.75
102.511
925.943
103.963
839.429
104.452
757.348
98.7748
664.652
89.1736
579.831
74.7923
474.783
64.1452
401.919
69.9321
363.324
87.4007
458.34
73.3369
701.716
867.769
238.789
470.482
599.495
747.335
872.665
962.205
995.202
998.537
979.535
946.146
896.152
829.958
742.077
637.017
508.113
372.434
246.964
157.929
90.6901
)
;

boundaryField
{
    outletWall
    {
        type            calculated;
        value           nonuniform List<scalar> 
60
(
15729.3
8448.4
1919.2
-7060.46
-18337.7
-27252.5
-31455.4
-26434.6
-3019.41
19393.9
23564.3
19984.9
15257.7
11473.1
9582.39
9930.14
5145.57
-6764.15
-4027.42
5751.6
8229.24
8757.91
9218.91
9740.48
10005.1
9785.68
8992.1
7940.73
7067.57
6626.72
6530.54
6404.97
5944.01
5100.64
3995.81
2775.65
1703.19
892.489
531.234
766.551
6711.29
-8147.08
-16055.7
-19175.3
-10640.6
11978.5
24757.8
25608.1
12636.4
-12459.7
-18423.9
-19790.4
-19881.8
-19312.9
-18127
-16864.6
-13912.9
-7244.71
5567.4
8938.36
)
;
    }
    fineWalls
    {
        type            calculated;
        value           uniform 0;
    }
    fineFrontAndBack
    {
        type            calculated;
        value           nonuniform List<scalar> 
960
(
-9.87961e-13
-3.33802e-12
-6.10801e-13
-8.64262e-13
-4.82734e-12
-8.08427e-13
-1.32308e-12
-4.29857e-13
-1.37899e-11
-2.96564e-12
-2.97877e-12
-1.97876e-12
5.67658e-13
-4.39352e-15
3.26468e-12
6.99507e-13
5.0227e-13
1.63454e-13
3.79118e-13
1.76224e-13
2.31271e-13
-1.01383e-13
-1.13365e-13
-1.58608e-13
-1.75231e-13
-2.8741e-13
2.15863e-13
-4.126e-13
-4.63892e-13
-5.14875e-13
-5.79098e-13
-6.3843e-13
-7.06733e-13
-7.72735e-13
-8.60787e-13
-9.94496e-13
-1.11566e-12
-1.374e-12
-1.30781e-12
-1.00574e-12
-1.9739e-11
-2.45501e-12
-2.43219e-12
-2.60848e-12
-2.52697e-13
1.5689e-12
7.89566e-13
-2.40832e-12
2.97526e-10
7.84907e-11
5.05373e-11
1.16925e-10
5.36495e-12
4.39532e-12
2.07233e-12
1.09373e-11
2.09292e-12
1.88703e-12
2.03281e-12
1.59874e-11
8.02983e-13
1.04118e-12
1.29576e-12
1.17851e-12
9.90289e-13
8.44514e-13
7.30594e-13
6.51097e-13
5.6962e-13
4.99905e-13
4.32495e-13
3.7228e-13
3.28838e-13
-3.16306e-12
1.81095e-13
7.22429e-14
5.25325e-14
2.40774e-15
-7.74044e-14
-3.98134e-13
-1.29467e-12
-1.37035e-12
-3.21405e-12
1.0945e-12
1.09031e-12
1.27152e-11
6.86553e-12
8.20779e-12
2.39049e-11
2.26299e-12
6.26518e-14
6.86252e-12
3.20927e-12
3.18408e-12
3.18919e-12
1.10486e-11
1.77463e-12
1.62771e-12
4.30578e-12
-3.05476e-13
2.02465e-11
1.0216e-11
4.52842e-12
3.16556e-12
-9.84231e-12
-2.14781e-11
-2.75787e-11
-2.92644e-11
-2.76436e-11
-2.41148e-11
-1.71895e-11
-7.78899e-12
-5.89043e-12
-2.98332e-12
-4.46327e-12
-9.49094e-12
-1.50779e-11
-1.53857e-11
-2.62185e-11
2.37916e-11
9.02605e-12
4.15773e-12
-3.73574e-12
-2.4448e-11
-3.73565e-11
-4.00661e-11
-3.74534e-11
-3.46663e-11
-3.11355e-11
-2.29011e-11
-1.04642e-11
-5.6608e-12
-2.75758e-12
-4.29718e-12
-9.10938e-12
-1.43943e-11
-1.44173e-11
-2.44665e-11
1.93787e-11
6.36458e-12
2.0641e-12
-8.58845e-12
-3.13148e-11
-3.79838e-11
-3.52473e-11
-3.10131e-11
-3.16593e-11
-3.1778e-11
-2.5232e-11
-1.20303e-11
-4.35951e-12
-2.42519e-12
-4.1973e-12
-8.34213e-12
-1.26685e-11
-1.17998e-11
-2.15009e-11
1.01689e-11
1.8141e-13
-3.2897e-13
-1.193e-11
-3.66125e-11
-3.52494e-11
-2.56242e-11
-2.11623e-11
-2.63039e-11
-2.99209e-11
-2.65835e-11
-1.42795e-11
-1.25859e-12
-1.81813e-12
-3.8488e-12
-7.5283e-12
-1.09941e-11
-9.23563e-12
-2.06259e-11
-5.83027e-13
-4.75811e-12
-2.37485e-12
-1.40621e-11
-3.88904e-11
-3.08161e-11
-1.66629e-11
-1.33148e-11
-2.04936e-11
-2.45226e-11
-2.57584e-11
-1.58733e-11
1.12179e-12
-1.02565e-12
-3.4588e-12
-7.0199e-12
-8.96964e-12
-8.98645e-12
-1.94051e-11
-1.07681e-11
-7.2301e-12
-3.23979e-12
-1.72733e-11
-4.03264e-11
-2.63721e-11
-8.85992e-12
-8.21587e-12
-1.49023e-11
-1.81001e-11
-2.21171e-11
-1.77347e-11
1.63679e-12
-4.09309e-16
-3.00894e-12
-7.89689e-12
-1.36917e-11
-9.93622e-12
-2.07761e-11
-1.842e-11
-8.63589e-12
-5.30598e-12
-2.14958e-11
-3.84934e-11
-1.67459e-11
1.42139e-12
-2.20024e-12
-8.12657e-12
-1.02238e-11
-1.56276e-11
-1.85177e-11
-7.91555e-13
-4.89385e-13
-4.56263e-12
-8.34716e-12
-1.08613e-11
-3.03686e-13
-1.99203e-11
-2.34423e-11
-8.5803e-12
-7.57116e-12
-2.40132e-11
-2.51592e-11
5.84014e-12
1.64308e-11
4.7435e-12
-1.48444e-12
-4.60303e-12
-9.24559e-12
-1.65442e-11
-6.58791e-12
-1.79395e-12
-6.45378e-12
-9.14807e-12
5.63337e-13
1.27577e-11
1.60541e-11
-2.7169e-11
-6.79701e-12
-7.00413e-12
-2.00802e-11
1.13369e-12
3.55762e-11
2.89974e-11
9.51343e-12
2.14427e-12
-2.1953e-12
-3.35549e-12
-1.113e-11
-1.16521e-11
-1.78615e-12
-5.56166e-12
-8.30667e-12
5.62385e-12
1.32632e-11
1.59138e-11
-3.12138e-11
-6.38857e-12
-1.54382e-12
-4.07114e-12
3.79368e-11
5.0863e-11
2.58004e-11
1.17611e-11
3.8727e-12
-1.6927e-12
1.15521e-12
-3.8551e-12
-1.81964e-11
-1.26801e-11
-2.9196e-11
-4.54102e-12
2.93402e-11
6.93018e-11
1.0847e-10
-2.50798e-11
-6.61626e-12
9.86264e-12
2.23375e-11
5.48984e-11
3.06545e-11
8.77901e-12
8.66657e-12
2.34789e-12
-2.86914e-12
8.04269e-13
-8.18029e-13
-2.58932e-11
-2.62889e-11
-2.6306e-11
1.64137e-11
4.49219e-11
5.59572e-11
1.6058e-10
-2.10977e-11
-1.27833e-11
1.45642e-11
3.23848e-11
2.34156e-11
-7.95164e-12
-6.76162e-12
1.4259e-12
-1.51837e-12
-6.0713e-12
-1.97218e-12
4.67368e-12
-2.17531e-11
-2.5715e-11
-8.20567e-12
1.21028e-11
-1.64239e-11
-4.36042e-11
-2.94622e-11
-2.41833e-11
-2.48449e-11
4.17816e-12
1.29144e-11
-1.4284e-11
-2.38038e-11
-1.52459e-11
-7.02946e-12
-6.49007e-12
-8.94436e-12
-5.59765e-12
1.04338e-11
-5.85645e-12
-1.18757e-11
1.19919e-12
-1.51691e-12
-2.29675e-11
-1.29196e-11
-1.91105e-11
-2.16774e-11
-3.21503e-11
-1.05544e-11
-7.08289e-12
-1.90833e-11
-1.65747e-11
-1.54849e-11
-1.48131e-11
-1.29722e-11
-1.33863e-11
-1.05449e-11
1.06442e-11
9.0233e-12
4.88635e-13
2.22326e-13
-1.28125e-11
-2.45486e-11
-1.77388e-11
-9.99748e-13
-8.48377e-12
-2.74153e-11
-1.62875e-11
-1.22117e-11
-1.27517e-11
-9.77452e-12
-1.36726e-11
-1.83683e-11
-1.85963e-11
-1.87561e-11
-1.54254e-11
5.01053e-12
1.26807e-11
3.42657e-12
-5.04363e-12
-1.87828e-11
-2.45487e-11
-2.15407e-11
-1.55714e-11
5.46584e-12
-1.50191e-11
-1.30165e-11
-1.09825e-11
-8.26199e-12
-7.7377e-12
-1.09277e-11
-1.64002e-11
-2.00808e-11
-2.2085e-11
-1.85539e-11
-3.77046e-12
8.20845e-12
1.29324e-13
-1.09989e-11
-2.31174e-11
-2.8211e-11
-1.89526e-11
-1.11999e-11
1.19147e-11
-3.73999e-12
-9.39835e-12
-9.06002e-12
-6.06674e-12
-6.59392e-12
-8.40422e-12
-1.26053e-11
-1.75806e-11
-2.11786e-11
-1.8813e-11
-1.16548e-11
-2.22974e-13
-4.66485e-12
-1.5473e-11
-2.5465e-11
-2.54521e-11
-1.71836e-11
-9.98867e-12
9.7872e-12
5.70208e-14
-7.67188e-12
-5.95813e-12
-4.93038e-12
-6.29982e-12
-7.19345e-12
-9.7858e-12
-1.39036e-11
-1.89493e-11
-1.78242e-11
-1.57095e-11
-1.01451e-11
-9.66678e-12
-1.79592e-11
-2.55887e-11
-2.32651e-11
-1.48146e-11
-8.47461e-12
5.35193e-12
-2.86223e-13
-5.04338e-12
-2.53706e-12
-4.35945e-12
-6.24571e-12
-6.57299e-12
-8.56773e-12
-1.24545e-11
-1.7847e-11
-1.74941e-11
-1.50042e-11
-1.86533e-11
-1.6067e-11
-2.08565e-11
-3.00586e-11
-2.24612e-11
-1.32587e-11
-8.7004e-12
3.46659e-12
4.40129e-13
-2.05359e-13
-1.04133e-12
-4.09856e-12
-6.18659e-12
-6.10154e-12
-7.72665e-12
-1.16039e-11
-1.73611e-11
-1.69393e-11
-1.28314e-11
-1.94671e-11
-2.16327e-11
-2.46515e-11
-3.01877e-11
-2.09388e-11
-1.21788e-11
-8.35025e-12
9.87961e-13
3.33802e-12
6.10801e-13
8.64262e-13
4.82734e-12
8.08427e-13
1.32308e-12
4.29857e-13
1.37899e-11
2.96564e-12
2.97877e-12
1.97876e-12
-5.67658e-13
4.39352e-15
-3.26468e-12
-6.99507e-13
-5.0227e-13
-1.63454e-13
-3.79118e-13
-1.76224e-13
-2.31271e-13
1.01383e-13
1.13365e-13
1.58608e-13
1.75231e-13
2.8741e-13
-2.15863e-13
4.126e-13
4.63892e-13
5.14875e-13
5.79098e-13
6.3843e-13
7.06733e-13
7.72735e-13
8.60787e-13
9.94496e-13
1.11566e-12
1.374e-12
1.30781e-12
1.00574e-12
1.9739e-11
2.45501e-12
2.43219e-12
2.60848e-12
2.52697e-13
-1.5689e-12
-7.89566e-13
2.40832e-12
-2.97526e-10
-7.84907e-11
-5.05373e-11
-1.16925e-10
-5.36495e-12
-4.39532e-12
-2.07233e-12
-1.09373e-11
-2.09292e-12
-1.88703e-12
-2.03281e-12
-1.59874e-11
-8.02983e-13
-1.04118e-12
-1.29576e-12
-1.17851e-12
-9.90289e-13
-8.44514e-13
-7.30594e-13
-6.51097e-13
-5.6962e-13
-4.99905e-13
-4.32495e-13
-3.7228e-13
-3.28838e-13
3.16306e-12
-1.81095e-13
-7.22429e-14
-5.25325e-14
-2.40774e-15
7.74044e-14
3.98134e-13
1.29467e-12
1.37035e-12
3.21405e-12
-1.0945e-12
-1.09031e-12
-1.27152e-11
-6.86553e-12
-8.20779e-12
-2.39049e-11
-2.26299e-12
-6.26518e-14
-6.86252e-12
-3.20927e-12
-3.18408e-12
-3.18919e-12
-1.10486e-11
-1.77463e-12
-1.62771e-12
-4.30578e-12
3.05476e-13
-2.02465e-11
-1.0216e-11
-4.52842e-12
-3.16556e-12
9.84231e-12
2.14781e-11
2.75787e-11
2.92644e-11
2.76436e-11
2.41148e-11
1.71895e-11
7.78899e-12
5.89043e-12
2.98332e-12
4.46327e-12
9.49094e-12
1.50779e-11
1.53857e-11
2.62185e-11
-2.37916e-11
-9.02605e-12
-4.15773e-12
3.73574e-12
2.4448e-11
3.73565e-11
4.00661e-11
3.74534e-11
3.46663e-11
3.11355e-11
2.29011e-11
1.04642e-11
5.6608e-12
2.75758e-12
4.29718e-12
9.10938e-12
1.43943e-11
1.44173e-11
2.44665e-11
-1.93787e-11
-6.36458e-12
-2.0641e-12
8.58845e-12
3.13148e-11
3.79838e-11
3.52473e-11
3.10131e-11
3.16593e-11
3.1778e-11
2.5232e-11
1.20303e-11
4.35951e-12
2.42519e-12
4.1973e-12
8.34213e-12
1.26685e-11
1.17998e-11
2.15009e-11
-1.01689e-11
-1.8141e-13
3.2897e-13
1.193e-11
3.66125e-11
3.52494e-11
2.56242e-11
2.11623e-11
2.63039e-11
2.99209e-11
2.65835e-11
1.42795e-11
1.25859e-12
1.81813e-12
3.8488e-12
7.5283e-12
1.09941e-11
9.23563e-12
2.06259e-11
5.83027e-13
4.75811e-12
2.37485e-12
1.40621e-11
3.88904e-11
3.08161e-11
1.66629e-11
1.33148e-11
2.04936e-11
2.45226e-11
2.57584e-11
1.58733e-11
-1.12179e-12
1.02565e-12
3.4588e-12
7.0199e-12
8.96964e-12
8.98645e-12
1.94051e-11
1.07681e-11
7.2301e-12
3.23979e-12
1.72733e-11
4.03264e-11
2.63721e-11
8.85992e-12
8.21587e-12
1.49023e-11
1.81001e-11
2.21171e-11