/*--------------------------------*- C++ -*----------------------------------*\
| =========                 |                                                 |
| \\      /  F ield         | OpenFOAM: The Open Source CFD Toolbox           |
|  \\    /   O peration     | Version:  4.1                                   |
|   \\  /    A nd           | Web:      www.OpenFOAM.org                      |
|    \\/     M anipulation  |                                                 |
\*---------------------------------------------------------------------------*/
FoamFile
{
    version     2.0;
    format      ascii;
    class       volVectorField;
    location    "28";
    object      U;
}
// * * * * * * * * * * * * * * * * * * * * * * * * * * * * * * * * * * * * * //

dimensions      [0 1 -1 0 0 0 0];

internalField   nonuniform List<vector> 
1280
(
(-7.13973e-16 -2.22039 -3.11709)
(-5.67329e-16 -0.862687 -2.80982)
(-4.4141e-16 -1.25128 -1.73579)
(-6.2458e-16 -0.761233 -2.10524)
(-8.20453e-16 -0.0737752 -2.87651)
(-5.84229e-16 0.0581601 -1.73099)
(-9.56152e-16 0.49977 -1.63522)
(-2.20597e-16 0.54581 -1.62024)
(-2.76336e-15 1.41592 -2.61336)
(-2.14319e-15 1.42239 -1.8678)
(-2.14092e-15 1.73345 -1.67559)
(-1.23862e-16 2.47425 -2.60963)
(4.10232e-16 2.37393 -1.95345)
(2.95002e-17 2.73931 -1.78419)
(1.02117e-15 3.6268 -2.73177)
(5.05516e-16 3.10393 -2.16254)
(3.62977e-16 3.82334 -1.91929)
(2.77806e-17 3.39858 -3.45835)
(2.73979e-16 5.01084 -1.42051)
(1.27352e-16 2.76841 -5.61076)
(9.48806e-16 4.70574 2.70495)
(-4.15932e-16 4.79871 7.53089)
(-4.65089e-16 4.74236 8.8357)
(-6.50698e-16 5.22561 9.33703)
(-7.18898e-16 5.19637 9.521)
(-1.17912e-15 5.60469 10.6667)
(4.55047e-17 4.6027 8.09443)
(-1.69272e-15 8.3958 12.9752)
(-1.90315e-15 8.60227 13.0347)
(-2.11231e-15 8.59816 13.1165)
(-2.37579e-15 8.64943 13.1596)
(-2.6192e-15 8.63127 13.1679)
(-2.89942e-15 8.65272 13.0817)
(-3.17019e-15 8.56503 12.9849)
(-3.53143e-15 8.58308 12.7893)
(-4.07998e-15 8.40956 12.6012)
(-4.57707e-15 8.44778 12.3931)
(-5.63693e-15 8.17014 12.3054)
(-5.36539e-15 8.21023 12.632)
(-4.12611e-15 8.04005 13.7643)
(-3.43585e-15 9.12161 14.0671)
(-1.9719e-15 5.84032 9.18975)
(-1.95357e-15 4.78419 8.98975)
(-2.06062e-15 3.74554 8.97934)
(2.72228e-16 1.91275 8.73482)
(1.26016e-15 1.15311 5.36937)
(6.34189e-16 0.177649 3.85975)
(-1.9344e-15 0.318484 2.21529)
(5.28291e-14 -0.125047 -3.40213)
(6.33483e-14 -0.511837 -3.93099)
(4.05315e-14 0.427808 -3.5502)
(2.03524e-14 0.143564 -5.01463)
(4.3092e-15 0.0606795 0.0302302)
(3.53038e-15 0.600842 2.74266)
(1.66452e-15 -0.468356 4.95003)
(1.9038e-15 -0.995327 8.34415)
(1.71977e-15 -2.98835 9.32944)
(1.51569e-15 -3.98592 9.29417)
(1.63278e-15 -5.14912 9.49273)
(2.77103e-15 -8.66871 14.6899)
(3.29429e-15 -7.74074 14.6895)
(4.27151e-15 -7.93149 13.6036)
(5.31595e-15 -7.84142 12.8818)
(4.83492e-15 -8.15763 12.8124)
(4.06272e-15 -8.13078 13.0179)
(3.46467e-15 -8.33974 13.2242)
(2.99731e-15 -8.34264 13.4795)
(2.67117e-15 -8.4654 13.6464)
(2.3369e-15 -8.46823 13.825)
(2.05089e-15 -8.53152 13.9469)
(1.77434e-15 -8.50944 14.0504)
(1.5273e-15 -8.50649 14.0755)
(1.34908e-15 -8.39267 13.9933)
(-6.66784e-16 -4.37048 8.5338)
(7.42953e-16 -5.02428 10.5564)
(2.96381e-16 -4.75431 9.5971)
(2.15518e-16 -4.73076 8.69058)
(9.87792e-18 -4.29516 7.44996)
(-3.17557e-16 -4.49869 6.01597)
(-1.63337e-15 -4.28062 0.186113)
(-9.35622e-16 -2.7919 -6.79658)
(-9.90315e-16 -4.18327 -3.30495)
(-5.46259e-16 -2.01014 -5.59209)
(7.90968e-16 -2.26499 -3.04709)
(7.87942e-16 -1.35981 -3.73146)
(2.41939e-15 -0.774195 -4.52126)
(5.16819e-15 -0.0717574 -1.98595)
(6.14147e-15 0.305762 -1.9757)
(4.36453e-15 1.0268 -3.1584)
(1.54192e-15 1.39663 -2.27882)
(-4.90269e-17 1.7556 -2.06444)
(1.70036e-15 2.7496 -2.77221)
(2.38308e-15 2.60011 -1.82588)
(2.30105e-15 3.15697 -1.70152)
(2.30475e-15 3.09923 -1.49106)
(1.87782e-15 4.30151 -2.2164)
(1.28248e-15 3.90626 -1.56793)
(1.17943e-15 4.34145 -1.39226)
(7.26553e-16 4.72008 -2.08315)
(-2.2076e-16 5.1703 -2.10803)
(2.24961e-15 1.87837 0.660252)
(1.13511e-15 -1.39648 1.0548)
(5.03158e-16 -2.36511 1.8971)
(3.51729e-16 1.61892 3.33383)
(-1.09359e-15 3.23904 5.34562)
(-2.38645e-15 3.13517 6.69427)
(-3.0643e-15 3.79473 7.22757)
(-3.2516e-15 5.07952 7.29977)
(-3.07151e-15 6.67645 7.22046)
(-2.67943e-15 7.91335 6.87932)
(-1.90994e-15 6.62596 5.39999)
(-8.65444e-16 -0.895471 1.39844)
(-6.54492e-16 -8.69967 -0.582069)
(-3.3148e-16 -10.4241 -1.2772)
(-4.95919e-16 -9.0452 -2.14006)
(-1.05455e-15 -6.10384 -2.72676)
(-1.67532e-15 -2.35499 -3.1249)
(-1.70952e-15 0.661956 -3.51772)
(-2.91317e-15 2.79603 -3.62227)
(2.64351e-15 1.80982 0.502181)
(1.00289e-15 -1.74713 1.33686)
(4.6197e-16 -2.93042 2.15367)
(-4.15082e-16 0.460248 4.1453)
(-2.71645e-15 2.15769 6.39148)
(-4.15072e-15 2.58891 6.98074)
(-4.45179e-15 3.66589 6.81549)
(-4.16149e-15 5.11096 6.41437)
(-3.85182e-15 6.79765 6.1026)
(-3.4595e-15 8.4411 5.94832)
(-2.54457e-15 8.18689 5.19809)
(-1.16269e-15 1.14613 2.55238)
(-6.28977e-16 -8.05282 -0.692429)
(-3.06398e-16 -10.0062 -1.0425)
(-4.77465e-16 -8.62674 -1.96991)
(-1.01215e-15 -5.77109 -2.65823)
(-1.59936e-15 -2.02537 -3.25975)
(-1.60192e-15 0.751326 -4.22167)
(-2.7185e-15 2.24714 -3.66284)
(2.15319e-15 1.46896 0.852252)
(7.07175e-16 -2.13601 2.17833)
(2.29345e-16 -3.48285 2.64659)
(-9.54273e-16 -0.251629 4.74683)
(-3.47942e-15 1.97918 6.54517)
(-4.22042e-15 2.79277 6.52397)
(-3.91637e-15 3.94073 6.17948)
(-3.4459e-15 5.3267 5.75099)
(-3.5177e-15 6.8941 5.32693)
(-3.53088e-15 8.41977 5.04255)
(-2.80356e-15 8.3226 4.50937)
(-1.3367e-15 1.94154 3.18156)
(-4.8439e-16 -7.25476 -0.52609)
(-2.69465e-16 -9.74051 -0.613954)
(-4.66367e-16 -8.29437 -1.6393)
(-9.26903e-16 -5.50671 -2.46823)
(-1.40761e-15 -1.66335 -3.34909)
(-1.31109e-15 0.812601 -4.69947)
(-2.38899e-15 1.84756 -4.18416)
(1.12988e-15 1.13162 1.56295)
(2.01567e-17 -2.45047 3.19607)
(-3.65523e-17 -3.90911 3.29638)
(-1.32555e-15 -1.05257 5.10064)
(-4.06805e-15 1.58046 6.52802)
(-3.9166e-15 2.78935 6.29294)
(-2.84713e-15 4.04376 5.95706)
(-2.35137e-15 5.47102 5.60868)
(-2.92266e-15 7.07566 5.17373)
(-3.32454e-15 8.67031 4.74416)
(-2.95373e-15 8.78742 4.15655)
(-1.58661e-15 3.03341 3.59479)
(-1.39844e-16 -6.57584 0.395287)
(-2.02014e-16 -9.51838 0.0585859)
(-4.27645e-16 -7.91596 -1.10058)
(-8.36477e-16 -5.14378 -2.11247)
(-1.22157e-15 -1.08788 -3.34045)
(-1.02618e-15 1.06271 -5.13366)
(-2.29176e-15 1.32413 -5.05678)
(-6.47808e-17 0.65708 2.48654)
(-5.28679e-16 -2.78317 4.23628)
(-2.63872e-16 -4.19899 4.04953)
(-1.56245e-15 -1.62992 5.37328)
(-4.32116e-15 1.48337 6.4231)
(-3.42401e-15 2.94386 6.12347)
(-1.85144e-15 4.20674 5.83086)
(-1.47942e-15 5.62725 5.54185)
(-2.27706e-15 7.25514 5.13691)
(-2.72473e-15 8.84293 4.63951)
(-2.86204e-15 8.89722 4.0567)
(-1.7637e-15 3.4834 4.20341)
(1.24643e-16 -5.92241 2.05859)
(-1.13961e-16 -9.12917 0.856781)
(-3.84311e-16 -7.43432 -0.359874)
(-7.79989e-16 -4.66328 -1.55169)
(-9.96627e-16 -0.344507 -3.18805)
(-9.98495e-16 1.3839 -5.48857)
(-2.15612e-15 0.741228 -6.05448)
(-1.19646e-15 0.210867 3.52465)
(-8.03345e-16 -3.03251 5.18429)
(-3.59976e-16 -4.33413 4.77513)
(-1.91925e-15 -2.03654 5.59524)
(-4.48071e-15 1.34998 6.25303)
(-2.93023e-15 3.02001 5.95341)
(-9.84436e-16 4.30942 5.61717)
(-9.12874e-16 5.74588 5.30198)
(-1.65581e-15 7.43879 4.93643)
(-2.01112e-15 9.06613 4.50033)
(-2.45746e-15 8.98952 4.07334)
(-1.97052e-15 3.71019 4.83395)
(1.81866e-16 -5.29076 3.71077)
(-4.54788e-20 -8.53437 1.64947)
(-3.34327e-16 -6.92505 0.564775)
(-8.77432e-16 -4.05221 -0.778317)
(-1.5213e-15 0.752904 -3.30097)
(-1.10402e-15 2.1801 -4.98572)
(-2.30846e-15 0.855591 -6.40909)
(-2.04667e-15 -0.242695 4.44643)
(-9.59543e-16 -3.21178 5.94596)
(-5.89553e-16 -4.34175 5.38163)
(-2.38842e-15 -2.24577 5.77543)
(-4.27705e-15 1.35257 6.0187)
(-1.86066e-15 3.16692 5.64923)
(1.57932e-16 4.4708 5.13886)
(-2.44471e-16 5.88417 4.72809)
(-9.02952e-16 7.58501 4.422)
(-1.13598e-15 9.18158 4.2006)
(-1.7364e-15 8.85603 4.11537)
(-2.05752e-15 3.58961 5.39872)
(-8.79505e-17 -4.66277 5.00639)
(-5.43762e-17 -7.84021 2.50431)
(-5.06959e-16 -6.46281 1.74749)
(-9.27462e-16 -3.21187 0.319484)
(-1.20681e-15 1.50768 -4.06308)
(-3.37428e-17 3.23677 -0.891076)
(-2.21336e-15 1.57607 -2.31602)
(-2.6047e-15 -0.632006 5.12332)
(-9.53367e-16 -3.32599 6.45319)
(-8.4124e-16 -4.25819 5.81642)
(-2.66813e-15 -2.29272 5.88008)
(-2.79546e-15 1.41886 5.69998)
(6.48905e-16 3.36543 5.185)
(1.82565e-15 4.68129 4.4443)
(5.27056e-16 6.02249 3.97221)
(-1.64937e-16 7.65143 3.83045)
(-5.11448e-16 9.16463 3.97684)
(-1.02729e-15 8.58445 4.25101)
(-1.83824e-15 3.2405 5.75424)
(-7.3199e-16 -4.13079 6.08385)
(-1.99328e-16 -7.21457 3.68468)
(-7.17087e-16 -6.02241 3.03295)
(-1.01645e-15 -1.93707 0.967331)
(6.2593e-17 1.36307 1.17977)
(1.41752e-15 0.021403 8.5938)
(1.78379e-15 -5.01472 11.8178)
(-3.01877e-15 -0.980009 5.4789)
(-7.55224e-16 -3.40443 6.69317)
(-7.78237e-16 -4.12175 6.07811)
(-2.23113e-15 -2.19389 5.91762)
(1.25965e-16 1.60358 5.3466)
(3.95291e-15 3.66601 4.61034)
(3.22194e-15 4.94812 3.69072)
(1.05705e-15 6.12343 3.28597)
(2.38252e-16 7.58827 3.36988)
(-2.43922e-16 8.99241 3.89217)
(-3.72832e-16 8.23719 4.47116)
(-1.23666e-15 2.71165 5.83039)
(-1.29468e-15 -3.85113 6.73082)
(-1.98462e-16 -6.62541 4.896)
(-6.17962e-16 -5.52156 3.86113)
(-9.22963e-16 -2.32244 3.93293)
(6.24872e-16 -1.0794 10.6446)
(1.47369e-15 -0.502346 13.3324)
(1.76821e-15 -1.54224 12.1871)
(-3.4682e-15 -1.2982 5.56169)
(-7.09841e-16 -3.48283 6.70902)
(-1.71535e-16 -3.97344 6.22819)
(-4.52348e-16 -1.97684 5.9398)
(4.2152e-15 1.90497 4.98874)
(5.65144e-15 4.0471 3.97758)
(2.92732e-15 5.2068 3.06934)
(1.30679e-15 6.15109 2.85753)
(4.303e-16 7.41558 3.10954)
(-1.88078e-16 8.7003 3.90148)
(1.28357e-16 7.89928 4.76627)
(-3.73725e-16 2.24168 5.84037)
(-2.02182e-15 -3.74703 6.56695)
(-1.4089e-15 -6.09768 5.62593)
(-3.65532e-15 -5.60203 4.98038)
(-5.04558e-16 -4.16936 7.86668)
(3.26002e-15 -2.42173 11.8454)
(7.7002e-15 -0.542962 8.65541)
(1.20522e-14 -1.00397 4.67135)
(-2.78664e-15 -1.59202 5.62661)
(-7.3514e-16 -3.5889 6.68424)
(1.09585e-15 -3.853 6.42165)
(2.48194e-15 -1.65288 6.01065)
(6.09982e-15 2.34026 4.58972)
(3.40606e-15 4.46413 3.36152)
(9.14735e-16 5.3834 2.72023)
(9.62953e-16 6.10686 2.71289)
(2.60877e-16 7.17919 3.03135)
(-3.18794e-16 8.30984 3.9597)
(8.93632e-17 7.53846 5.07933)
(-9.08921e-17 1.9865 6.16846)
(-2.87702e-15 -3.68531 6.09966)
(-2.92099e-15 -6.004 5.92038)
(-2.92289e-15 -6.35447 6.74634)
(1.82374e-15 -5.3428 10.5691)
(4.99132e-15 -1.86881 12.2307)
(6.21747e-15 2.25169 10.3016)
(1.78423e-14 3.49157 6.9297)
(-2.34418e-15 -1.85891 5.98184)
(-1.42037e-15 -3.72049 6.90197)
(1.61825e-15 -3.75398 6.83067)
(3.59831e-15 -1.18143 6.1122)
(2.60173e-15 2.91237 4.09932)
(-8.83516e-16 4.83636 2.93478)
(-7.51292e-16 5.45454 2.66347)
(1.58434e-16 6.03155 2.73597)
(-1.68707e-16 6.92742 3.01722)
(-6.74589e-16 7.85406 3.94936)
(-2.19131e-16 7.07665 5.22091)
(5.19298e-16 1.80873 6.81257)
(-2.41701e-15 -3.59601 6.48676)
(-2.85722e-15 -6.36654 6.74072)
(-9.11742e-16 -7.47577 8.94783)
(1.34476e-15 -6.35452 12.7164)
(-1.82488e-15 -2.04502 13.7236)
(-4.84491e-15 2.31753 12.5643)
(-3.27357e-15 4.4196 12.0702)
(-2.68704e-15 -2.0831 6.69828)
(-2.76054e-15 -3.85763 7.50269)
(4.6424e-16 -3.5964 7.40295)
(1.43494e-15 -0.483007 6.03091)
(-1.58711e-15 3.5575 3.55992)
(-2.64487e-15 5.07506 2.80878)
(-1.69399e-15 5.45111 2.75565)
(-7.81051e-16 5.97233 2.77194)
(-7.21119e-16 6.70648 2.95987)
(-9.93818e-16 7.38771 3.80261)
(-6.21961e-16 6.45236 5.07326)
(1.15931e-15 1.3749 7.46081)
(-6.50716e-16 -3.69953 7.96102)
(-1.31952e-15 -7.00449 8.55627)
(1.33243e-16 -8.64776 10.9523)
(-1.68545e-16 -7.02743 12.9286)
(-2.55195e-15 -1.82915 10.1751)
(-1.43551e-15 2.50911 6.26201)
(-2.12338e-15 5.93295 9.60133)
(-2.4086e-15 -2.29406 7.5609)
(-3.57225e-15 -3.93168 8.29193)
(-1.17271e-15 -3.21944 7.83763)
(-7.86988e-16 0.449392 5.59422)
(-2.12037e-15 4.15156 3.13741)
(-1.84163e-15 5.18522 2.85649)
(-1.72055e-15 5.44768 2.7594)
(-1.6459e-15 5.94628 2.68211)
(-1.44135e-15 6.52977 2.80289)
(-1.48737e-15 6.95605 3.54313)
(-1.17166e-15 5.68754 4.66152)
(1.18269e-15 0.56267 7.67876)
(1.00259e-15 -4.08709 9.48029)
(5.42927e-17 -7.6205 10.317)
(2.47029e-17 -9.20005 11.9279)
(-1.42361e-15 -6.25247 11.2999)
(-2.72763e-15 0.0911555 5.61982)
(-1.97098e-15 2.72734 1.65545)
(-1.11083e-16 0.814949 -0.0556815)
(-9.42641e-16 -2.46628 8.20884)
(-3.04614e-15 -3.91331 8.90359)
(-1.80972e-15 -2.57702 7.87793)
(-1.35685e-15 1.43646 4.96479)
(-1.41685e-15 4.62665 2.90193)
(-1.08606e-15 5.24884 2.90127)
(-1.51917e-15 5.50342 2.60083)
(-2.04092e-15 5.94704 2.43805)
(-2.06626e-15 6.38062 2.49589)
(-2.08401e-15 6.57818 3.16473)
(-1.71394e-15 4.87675 4.0432)
(5.56725e-16 -0.595324 7.16887)
(1.40896e-15 -4.74656 9.99368)
(3.80731e-16 -8.01898 10.8597)
(-5.60404e-16 -9.00816 11.3493)
(-2.08698e-15 -4.54503 8.75375)
(-2.72763e-15 2.17124 3.15947)
(-2.39341e-15 4.57457 1.17765)
(-1.73016e-15 2.77608 -1.59735)
(6.07315e-16 -2.64646 8.37727)
(-1.66879e-15 -3.74092 9.03487)
(-1.44628e-15 -1.65841 7.46667)
(-1.22028e-15 2.40287 4.28222)
(-9.17999e-16 4.97814 2.82515)
(-8.59745e-16 5.32145 2.88408)
(-1.21419e-15 5.62856 2.40046)
(-1.82225e-15 5.98626 2.15921)
(-2.2312e-15 6.26087 2.09718)
(-2.45389e-15 6.25267 2.66108)
(-2.06155e-15 4.17711 3.23578)
(-4.18939e-16 -1.81447 5.7248)
(9.12049e-16 -5.53162 9.15768)
(1.43693e-17 -8.14312 9.91751)
(-1.22211e-15 -8.31979 9.51278)
(-2.5686e-15 -2.8682 5.82351)
(-3.13456e-15 3.10165 0.602225)
(-2.10585e-15 4.91993 -0.627836)
(-1.24444e-15 3.21841 -1.7222)
(1.32386e-15 -2.77811 8.14708)
(-4.15555e-16 -3.54465 8.73804)
(-1.04426e-15 -0.68554 6.64316)
(-1.00667e-15 3.26131 3.60044)
(-6.74082e-16 5.19648 2.90201)
(-7.32658e-16 5.42875 2.80273)
(-9.33802e-16 5.79383 2.25717)
(-1.40059e-15 6.07164 1.94596)
(-1.9534e-15 6.21413 1.73554)
(-2.35318e-15 6.02588 2.09345)
(-2.09034e-15 3.76508 2.31509)
(-1.29497e-15 -2.96936 3.68775)
(-2.47749e-17 -6.41486 7.2821)
(-5.18316e-16 -8.13024 7.99977)
(-1.71923e-15 -7.40412 7.10812)
(-2.82944e-15 -0.999306 3.10939)
(-2.82801e-15 4.40662 -1.44852)
(-1.90928e-15 5.44796 -2.15695)
(-1.10985e-15 3.59351 -2.5482)
(1.08747e-15 -2.91476 7.70229)
(6.33565e-18 -3.0955 8.13607)
(-8.52431e-16 0.461739 5.65885)
(-6.62014e-16 3.87437 3.19001)
(-5.4782e-16 5.30399 3.03007)
(-6.9998e-16 5.57263 2.69489)
(-7.99273e-16 5.95699 2.18181)
(-1.08731e-15 6.18157 1.8029)
(-1.54484e-15 6.23398 1.46673)
(-2.10548e-15 5.91502 1.5544)
(-1.98046e-15 3.67482 1.41953)
(-1.7455e-15 -3.83161 1.72459)
(-1.12723e-15 -7.21076 4.78232)
(-1.07409e-15 -8.02665 5.79382)
(-1.99547e-15 -6.40212 4.67906)
(-2.84319e-15 0.615171 0.73073)
(-2.58502e-15 5.21447 -2.98265)
(-1.64607e-15 5.53434 -3.33281)
(-9.41624e-16 3.47883 -3.17142)
(5.94658e-16 -2.98824 7.31566)
(-3.18025e-17 -2.82033 7.5781)
(-5.60375e-16 1.2739 4.70606)
(-2.81895e-16 4.30792 3.15088)
(-4.84383e-16 5.41186 3.07433)
(-6.93968e-16 5.77064 2.62815)
(-7.30332e-16 6.14743 2.14511)
(-9.5197e-16 6.3415 1.70406)
(-1.38383e-15 6.32838 1.2858)
(-1.983e-15 5.91132 1.10779)
(-1.94379e-15 3.72288 0.719388)
(-1.66713e-15 -4.34637 0.383257)
(-2.07259e-15 -8.07597 2.07888)
(-1.78522e-15 -8.03075 3.87298)
(-2.31739e-15 -5.44232 2.69906)
(-3.33984e-15 2.18246 -1.71453)
(-2.49568e-15 5.99335 -4.16982)
(-1.47319e-15 5.60326 -4.13198)
(-9.66711e-16 3.29342 -3.72658)
(3.85177e-16 -3.00307 6.86892)
(4.89033e-17 -1.89764 6.67087)
(-2.28176e-17 2.3281 4.20039)
(-1.15704e-16 4.5766 3.3644)
(-4.55396e-16 5.58031 3.04624)
(-6.87398e-16 5.99987 2.62172)
(-6.77949e-16 6.39555 2.12496)
(-8.58516e-16 6.59304 1.63942)
(-1.28932e-15 6.57642 1.17758)
(-1.92901e-15 6.13399 0.796628)
(-1.88215e-15 4.1793 0.402937)
(-1.42571e-15 -4.28887 -0.25261)
(-2.16301e-15 -8.55059 -0.565449)
(-2.40363e-15 -8.26573 0.803264)
(-2.73905e-15 -4.10346 -0.019553)
(-3.35418e-15 3.18862 -3.11446)
(-2.32654e-15 6.29334 -4.87034)
(-1.3532e-15 5.36745 -4.53486)
(-9.27805e-16 2.78902 -4.0871)
(4.30535e-17 14.2198 24.0455)
(-4.84989e-15 18.7085 31.4405)
(-4.17564e-15 16.4263 26.3335)
(-4.6335e-15 14.0025 22.2784)
(-4.84683e-15 13.2686 20.4593)
(-5.71176e-15 13.9496 21.2696)
(-5.33999e-15 13.272 19.6029)
(-5.19559e-15 11.916 17.4847)
(-5.43602e-15 11.0383 15.8503)
(-5.64215e-15 10.3562 14.8184)
(-6.15441e-15 9.85037 13.8735)
(-6.69554e-15 9.12715 12.9149)
(-7.40471e-15 8.45717 11.7485)
(-8.21585e-15 7.47998 10.6031)
(-9.55037e-15 6.67202 9.15692)
(-1.16038e-14 5.35003 7.80761)
(-1.39847e-14 4.74592 6.49104)
(-1.68262e-14 3.68732 6.21314)
(-1.25567e-14 5.79364 8.66419)
(-7.13401e-15 6.67477 12.5518)
(5.86079e-17 14.2758 24.3469)
(-4.51459e-15 16.7122 28.8606)
(-3.41591e-15 14.028 23.9849)
(-4.21459e-15 12.0256 20.7199)
(-4.23158e-15 11.8013 20.1423)
(-5.58031e-15 12.6899 21.5826)
(-4.41104e-15 10.8833 18.3147)
(-4.63876e-15 9.30352 15.8168)
(-5.16931e-15 8.84074 14.8451)
(-5.05089e-15 8.32997 14.1642)
(-5.91285e-15 7.89125 13.0943)
(-6.51288e-15 7.04154 11.9928)
(-7.24256e-15 6.4688 10.567)
(-8.24272e-15 5.43478 9.39072)
(-9.84031e-15 4.83821 7.68834)
(-1.20852e-14 3.48663 6.28364)
(-1.42566e-14 3.39785 5.08896)
(-1.50326e-14 2.84993 5.54163)
(-9.87966e-15 5.42151 8.26682)
(-6.7119e-15 5.94542 11.1785)
(1.82041e-17 14.3896 25.2344)
(-1.6193e-15 17.1944 29.6457)
(-1.35749e-15 15.0738 25.9689)
(-1.54231e-15 12.9391 22.0667)
(-1.58766e-15 12.3842 21.0702)
(-3.53569e-15 13.0556 22.1517)
(-2.04498e-15 11.2104 18.9255)
(-2.26078e-15 9.92369 16.7673)
(-2.42459e-15 9.38423 15.6122)
(-2.32357e-15 8.74367 14.7382)
(-2.72313e-15 8.26069 13.5895)
(-2.77026e-15 7.40252 12.5046)
(-3.23812e-15 6.8433 11.0772)
(-3.87048e-15 5.84303 9.93409)
(-4.58608e-15 5.32702 8.38395)
(-5.56727e-15 4.05058 6.98634)
(-6.7919e-15 3.88846 5.72132)
(-7.61322e-15 3.22811 5.83135)
(-4.96218e-15 5.32653 7.99187)
(-3.25067e-15 5.59847 10.4821)
(1.13967e-17 14.0289 24.7747)
(4.04297e-16 17.2744 29.547)
(3.05568e-16 15.2286 26.3898)
(3.27261e-16 12.8974 21.9526)
(3.69363e-16 12.2594 20.9978)
(-2.38947e-15 12.9539 22.073)
(-2.1044e-15 10.9576 18.5627)
(-2.47992e-15 9.63202 16.4255)
(-2.59506e-15 9.10622 15.2647)
(-2.25322e-15 8.44131 14.4297)
(-2.87205e-15 7.98324 13.2307)
(-2.82732e-15 7.07694 12.1352)
(-3.327e-15 6.5192 10.6241)
(-4.12878e-15 5.44871 9.42705)
(-5.00222e-15 4.95588 7.85314)
(-5.70487e-15 3.64646 6.47472)
(-7.2835e-15 3.50081 5.16322)
(-7.53434e-15 2.9157 5.39337)
(-5.03417e-15 4.90829 7.37486)
(-4.24614e-15 4.91096 9.20978)
(-2.90072e-18 13.8965 24.8639)
(-9.64863e-17 17.6361 29.8997)
(-6.43179e-17 15.5223 27.2068)
(-7.44389e-17 13.1083 22.2405)
(-8.6768e-17 12.3896 21.3774)
(5.26564e-16 13.0691 22.3869)
(4.51461e-16 11.0532 18.7604)
(5.22689e-16 9.74104 16.7257)
(5.62756e-16 9.27525 15.5373)
(5.42007e-16 8.57782 14.7026)
(6.28918e-16 8.13277 13.4743)
(6.44355e-16 7.22426 12.3599)
(7.48717e-16 6.65927 10.8613)
(8.85245e-16 5.60834 9.61267)
(1.05769e-15 5.11997 8.11981)
(1.25358e-15 3.96976 6.90505)
(1.49771e-15 3.81412 5.67425)
(1.78962e-15 3.16789 5.64249)
(1.17221e-15 4.63434 6.90472)
(7.61688e-16 4.40015 8.2698)
(7.33726e-19 13.7132 24.7226)
(2.29429e-17 17.9111 30.0387)
(1.3748e-17 15.6049 27.6524)
(1.70291e-17 13.2401 22.2133)
(2.13512e-17 12.4809 21.5551)
(-1.13632e-16 13.1469 22.5504)
(-1.05344e-16 11.1358 18.739)
(-1.14712e-16 9.77188 16.8148)
(-1.23856e-16 9.38823 15.5914)
(-1.25545e-16 8.63215 14.7328)
(-1.39163e-16 8.18262 13.4625)
(-1.49532e-16 7.26612 12.288)
(-1.72427e-16 6.64985 10.7789)
(-1.96513e-16 5.61203 9.43557)
(-2.33531e-16 5.02014 7.89585)
(-2.73762e-16 3.95393 6.70923)
(-3.23367e-16 3.70298 5.50446)
(-4.12943e-16 2.99326 5.2578)
(-3.12214e-16 4.09367 6.07375)
(-2.32452e-16 3.7617 7.10753)
(-1.87072e-19 13.7249 24.8806)
(-5.29515e-18 18.1998 30.2071)
(-3.11263e-18 15.6153 28.0793)
(-3.90939e-18 13.508 22.3621)
(-5.20234e-18 12.6411 21.9042)
(2.51398e-17 13.2549 22.8724)
(2.52453e-17 11.2774 18.8334)
(2.591e-17 9.89289 17.1424)
(2.77851e-17 9.62194 15.9003)
(2.90052e-17 8.79448 14.9956)
(3.14259e-17 8.3321 13.6858)
(3.41337e-17 7.4228 12.4481)
(3.90342e-17 6.75176 10.938)
(4.3854e-17 5.75377 9.5188)
(5.1427e-17 5.06711 7.94621)
(5.94835e-17 4.071 6.72188)
(7.09517e-17 3.72613 5.52516)
(9.76139e-17 2.91829 5.00145)
(8.45943e-17 3.64882 5.32698)
(6.15493e-17 3.23663 6.17205)
(3.98035e-20 13.9449 25.2707)
(1.19664e-18 18.3813 30.1796)
(7.46561e-19 15.5682 28.3637)
(8.87683e-19 13.8914 22.5963)
(1.26748e-18 12.8152 22.1706)
(-5.52506e-18 13.316 23.0658)
(-5.98607e-18 11.4813 18.9099)
(-5.88464e-18 10.0745 17.4514)
(-6.26712e-18 9.87775 16.1908)
(-6.62934e-18 9.00322 15.1987)
(-7.10456e-18 8.48378 13.869)
(-7.67287e-18 7.61329 12.5544)
(-8.66525e-18 6.85995 11.0422)
(-9.74143e-18 5.89672 9.51837)
(-1.12814e-17 5.09071 7.89241)
(-1.30881e-17 4.10453 6.5183)
(-1.59482e-17 3.56621 5.17906)
(-2.34026e-17 2.63385 4.32338)
(-2.38754e-17 3.10212 4.36423)
(-1.6558e-17 2.6388 5.03416)
(-6.78706e-21 14.4795 26.1743)
(-2.71377e-19 18.4625 30.0085)
(-1.83763e-19 15.4811 28.5958)
(-1.99726e-19 14.404 23.0613)
(-3.09818e-19 13.0345 22.511)
(1.20301e-18 13.3417 23.218)
(1.39972e-18 11.7436 19.128)
(1.34389e-18 10.378 17.8546)
(1.41293e-18 10.1508 16.5954)
(1.50285e-18 9.31973 15.4661)
(1.59658e-18 8.69088 14.153)
(1.70577e-18 7.90337 12.7568)
(1.89353e-18 7.06773 11.2543)
(2.1326e-18 6.14465 9.62982)
(2.44158e-18 5.23257 7.95026)
(2.85629e-18 4.25153 6.39751)
(3.522e-18 3.48422 4.86067)
(5.1665e-18 2.46681 3.64025)
(7.01435e-18 2.54185 3.31025)
(6.7935e-18 1.93418 3.49911)
(9.341e-22 15.1798 27.368)
(6.23428e-20 18.4275 29.7771)
(4.53134e-20 15.3667 28.7444)
(4.46153e-20 15.0126 23.8225)
(7.39425e-20 13.2897 22.9096)
(-2.54821e-19 13.3727 23.2334)
(-3.12268e-19 12.024 19.6631)
(-3.03847e-19 10.8691 18.3623)
(-3.16362e-19 10.4189 17.1353)
(-3.37386e-19 9.75129 15.8206)
(-3.5524e-19 8.96395 14.5467)
(-3.75481e-19 8.28232 13.0546)
(-4.10857e-19 7.36512 11.543)
(-4.64275e-19 6.47536 9.82179)
(-5.2669e-19 5.47235 8.06793)
(-6.0366e-19 4.46904 6.2938)
(-7.69118e-19 3.40892 4.424)
(-1.05791e-18 2.25856 2.69323)
(-1.53878e-18 1.65529 1.69599)
(-2.569e-18 0.79507 0.72937)
(-1.0652e-22 15.7494 28.3994)
(-1.44662e-20 18.2886 29.6785)
(-1.1218e-20 15.3404 28.6563)
(-9.90143e-21 15.5718 24.9583)
(-1.8705e-20 13.5068 23.5188)
(5.55575e-20 13.4404 22.9351)
(6.9578e-20 12.2169 20.6226)
(6.91732e-20 11.5566 19.0419)
(7.16359e-20 10.6097 17.9094)
(7.6377e-20 10.2295 16.3981)
(7.94458e-20 9.25387 15.1982)
(8.10921e-20 8.69939 13.6284)
(8.32291e-20 7.69431 12.105)
(8.86325e-20 6.85114 10.3249)
(9.99558e-20 5.79236 8.52902)
(1.26036e-19 4.73301 6.57847)
(9.82315e-20 3.33945 4.24034)
(1.7878e-19 1.81263 1.95503)
(3.17996e-19 0.382796 0.0774231)
(-2.46786e-18 -1.58291 -3.12419)
(1.51637e-23 15.9032 28.856)
(3.41379e-21 18.0549 29.759)
(2.7312e-21 15.4516 27.8875)
(2.39601e-21 15.4976 25.7843)
(3.35103e-21 13.5165 24.27)
(-1.02847e-20 13.5079 22.1912)
(-1.44195e-20 11.9123 21.4826)
(-1.49315e-20 11.8716 19.5414)
(-1.51048e-20 10.4169 18.4487)
(-1.56569e-20 10.1997 16.8731)
(-1.73364e-20 9.03538 15.7104)
(-2.26099e-20 8.50304 14.0845)
(-3.32166e-20 7.32121 12.5035)
(-4.5098e-20 6.43512 10.6278)
(-4.71471e-20 5.18229 8.70553)
(-4.83586e-20 3.79468 6.27089)
(-1.76373e-19 1.56241 2.64725)
(-1.75431e-19 -1.31624 -1.69995)
(-9.68514e-19 -2.6284 -3.7004)
(-1.52695e-18 -1.53911 -1.80492)
(-2.76371e-24 15.7807 28.9477)
(-8.13404e-22 18.3096 29.7849)
(-6.55912e-22 15.2758 28.0294)
(-5.86721e-22 15.5526 25.4323)
(-7.57983e-22 13.525 24.3526)
(2.45682e-21 13.507 22.4055)
(3.64633e-21 11.8787 21.161)
(4.42354e-21 11.6166 19.4707)
(5.58409e-21 10.2886 18.2286)
(6.54276e-21 9.87036 16.7672)
(5.54738e-21 8.77493 15.4905)
(-6.15497e-22 8.04963 13.879)
(-1.30954e-20 6.85746 12.1614)
(-2.62183e-20 5.81177 10.1894)
(-2.63484e-20 4.43212 8.0206)
(-1.84483e-20 2.69411 5.05197)
(-1.53178e-19 0.0447831 0.500354)
(-6.1364e-19 -1.77359 -2.63581)
(-1.41706e-18 -0.766594 -1.1706)
(-1.69257e-18 2.41514 4.07591)
(2.2646e-26 15.976 29.5647)
(1.90813e-22 18.6799 29.9398)
(1.52084e-22 15.3187 28.2707)
(1.24893e-22 15.8901 25.6225)
(1.75189e-22 13.7387 24.5204)
(-4.56115e-22 13.5875 22.2994)
(-5.14373e-22 12.1051 21.0505)
(-4.98608e-23 11.7669 19.349)
(7.00549e-22 10.6517 18.0598)
(1.51917e-21 10.0808 16.5773)
(1.49837e-21 9.19428 15.2051)
(-1.40955e-21 8.43431 13.6879)
(-8.46107e-21 7.48257 12.0539)
(-1.94972e-20 6.43296 10.1475)
(-3.4167e-20 5.07119 7.87358)
(-3.23169e-20 3.69497 5.49889)
(-1.16214e-20 2.29531 3.03425)
(-8.19652e-20 0.682771 -0.168971)
(-5.05537e-19 -0.0896769 -1.67091)
(-6.98629e-19 -0.279839 -1.75475)
(5.38465e-25 16.3108 30.8378)
(-4.40781e-23 18.8657 29.777)
(-4.22859e-23 15.2833 28.6848)
(-5.38278e-23 16.2171 26.0111)
(-6.2626e-23 13.8922 25.1163)
(2.11234e-22 14.0107 23.0801)
(6.68032e-22 12.6125 21.8561)
(1.3428e-21 12.1716 20.2824)
(2.01924e-21 11.3029 18.9705)
(2.15966e-21 10.6752 17.5982)
(1.14398e-21 9.95331 16.2402)
(-1.63598e-21 9.16595 14.7033)
(-8.43102e-21 8.11204 12.7835)
(-1.98315e-20 6.68256 10.3419)
(-2.99053e-20 5.10911 7.8196)
(-4.13621e-20 3.47589 5.29341)
(-4.49772e-20 1.83879 2.80491)
(-3.34123e-20 0.344347 0.419267)
(-2.25783e-19 -1.64202 -2.64516)
(-3.49455e-19 -1.95805 -4.75279)
(2.20547e-25 16.2031 31.4218)
(1.13315e-23 18.5081 28.9908)
(1.15988e-24 14.8678 28.5184)
(-2.33861e-23 15.8934 25.8635)
(-2.07462e-23 13.4803 24.9982)
(9.52476e-23 13.4975 23.006)
(5.2899e-22 12.0573 21.8596)
(1.25112e-21 11.55 20.3231)
(1.83504e-21 10.5816 19.1039)
(1.55142e-21 9.90074 17.7699)
(-5.28048e-22 9.02333 16.4108)
(-6.51436e-21 7.99846 14.6424)
(-2.24573e-20 6.4794 12.1283)
(-5.56808e-20 4.44311 8.70688)
(-8.73224e-20 2.32346 5.15443)
(-7.59764e-20 0.766879 2.51692)
(-4.8129e-20 -0.198856 0.694623)
(-6.6934e-20 -0.83207 -0.752816)
(-1.31797e-19 -2.54389 -3.34966)
(-1.56348e-19 -2.30889 -4.60179)
(4.394e-25 15.4462 30.8406)
(-1.78438e-24 18.1782 28.134)
(-1.12764e-23 14.227 27.7855)
(-3.97317e-23 15.2471 25.1602)
(-4.54955e-23 12.9862 24.2352)
(1.00273e-22 12.774 22.3786)
(5.08397e-22 11.5202 21.1378)
(1.12571e-21 10.8602 19.6859)
(1.6118e-21 9.9761 18.417)
(1.49279e-21 9.22471 17.111)
(1.88046e-22 8.37768 15.7432)
(-3.96157e-21 7.39357 14.0673)
(-1.50383e-20 6.1466 11.8862)
(-3.58612e-20 4.78433 9.33105)
(-5.92755e-20 3.70697 7.0419)
(-7.44875e-20 3.04479 5.36655)
(-8.42487e-20 2.31443 3.67949)
(-7.32109e-20 2.16751 2.98571)
(-7.80132e-20 -1.38455 -1.82644)
(-7.37149e-20 -1.37517 -2.25253)
(4.44271e-25 14.209 30.4426)
(1.29178e-24 17.9709 27.3858)
(-8.3414e-24 13.318 27.3124)
(-3.59935e-23 14.2887 24.8913)
(-5.04267e-23 12.1777 23.9396)
(4.10361e-23 11.7396 22.3011)
(3.39406e-22 10.6178 21.065)
(8.25175e-22 9.89142 19.7155)
(1.31316e-21 9.0757 18.4772)
(1.58152e-21 8.36354 17.2367)
(1.45209e-21 7.64748 15.993)
(5.49844e-22 6.93061 14.6531)
(-2.14808e-21 6.18515 13.1524)
(-8.70687e-21 5.42907 11.4526)
(-2.21181e-20 4.61949 9.48733)
(-4.44605e-20 3.52598 7.02781)
(-7.38568e-20 1.6644 3.43397)
(-1.00656e-19 -1.61904 -3.06001)
(-8.48276e-20 -1.91656 -3.48699)
(-1.04307e-19 -1.48566 -2.6365)
(2.46292e-25 11.2599 28.5103)
(2.75646e-25 16.9936 24.9262)
(-5.05883e-24 11.9897 25.3428)
(-2.35039e-23 12.6718 23.5996)
(-4.31871e-23 10.925 22.8444)
(-1.29332e-23 10.273 21.735)
(1.42328e-22 9.28185 20.8042)
(4.58672e-22 8.51491 19.8375)
(8.90349e-22 7.75124 18.9127)
(1.38146e-21 7.07519 18.0027)
(1.99775e-21 6.45688 17.1242)
(2.85544e-21 5.90188 16.2568)
(3.65354e-21 5.37337 15.335)
(3.10472e-21 4.81701 14.2364)
(-1.18781e-21 4.16427 12.8095)
(-1.21052e-20 3.30999 10.8804)
(-3.10962e-20 2.16993 8.20673)
(-5.42708e-20 0.858327 4.54128)
(-6.8354e-20 -0.507147 0.412335)
(-5.40237e-20 -1.17206 -2.21342)
(1.05954e-25 2.65544 17.0549)
(5.63797e-26 8.07042 13.6839)
(-1.48161e-24 5.18166 14.5529)
(-6.32758e-24 5.00663 14.152)
(-1.31103e-23 4.08298 14.1131)
(-1.10372e-23 3.52468 13.9378)
(2.23466e-23 2.95601 13.7813)
(1.08902e-22 2.49528 13.5938)
(2.44689e-22 2.0978 13.3887)
(3.85342e-22 1.77319 13.1574)
(4.78439e-22 1.51379 12.8972)
(5.465e-22 1.32066 12.609)
(7.50752e-22 1.19708 12.3024)
(1.332e-21 1.15991 11.9836)
(2.41002e-21 1.23286 11.6444)
(3.76367e-21 1.38402 11.2865)
(4.75605e-21 1.63335 10.8429)
(4.56144e-21 2.28058 9.96619)
(2.88064e-21 2.52285 8.57855)
(6.86641e-22 -0.213074 6.49156)
(-1.40557e-26 -2.62032 16.9874)
(-1.61282e-26 -8.05779 13.6064)
(9.06521e-26 -5.17347 14.4775)
(1.03079e-25 -5.01005 14.071)
(-6.95759e-25 -4.0894 14.028)
(-2.88673e-24 -3.53374 13.8473)
(-3.78497e-24 -2.96289 13.684)
(6.92709e-24 -2.49789 13.49)
(4.71037e-23 -2.09696 13.2864)
(1.31494e-22 -1.77766 13.0808)
(2.53514e-22 -1.54117 12.8877)
(3.74559e-22 -1.39263 12.7109)
(4.35066e-22 -1.328 12.5351)
(3.84818e-22 -1.34631 12.3186)
(2.15324e-22 -1.45343 12.0052)
(-2.32434e-23 -1.6113 11.5752)
(-2.35511e-22 -1.83874 10.9934)
(-3.29589e-22 -2.43376 9.99716)
(-2.67864e-22 -2.61251 8.56825)
(-8.78514e-23 0.226186 6.50093)
(6.57436e-28 -11.2776 28.399)
(1.57575e-25 -16.8465 24.9203)
(1.57571e-25 -11.9149 25.3337)
(-6.96226e-25 -12.5051 23.6555)
(-3.99318e-24 -10.7443 22.9409)
(-7.68384e-24 -10.0355 21.8838)
(8.8375e-25 -8.99624 21.0045)
(4.13815e-23 -8.17092 20.0963)
(1.15861e-22 -7.34747 19.2403)
(1.75238e-22 -6.5984 18.3952)
(1.22206e-22 -5.87151 17.5307)
(-1.16138e-22 -5.14376 16.5612)
(-4.75546e-22 -4.38208 15.3868)
(-6.92405e-22 -3.59818 13.9148)
(-3.81584e-22 -2.85885 12.0809)
(7.21665e-22 -2.22817 9.92007)
(2.48251e-21 -1.69928 7.5764)
(4.41174e-21 -1.18212 4.95961)
(5.74038e-21 -0.418903 1.89702)
(4.20891e-21 0.245643 -0.318373)
(-1.159e-26 -14.5039 30.9004)
(-5.15704e-25 -18.0806 27.9603)
(-5.41922e-25 -13.5899 27.8921)
(-2.01582e-24 -14.4097 25.6163)
(-6.94903e-24 -12.3731 24.7086)
(-1.14461e-23 -11.8817 23.1866)
(2.42437e-24 -10.7839 22.0357)
(6.18801e-23 -10.0565 20.8097)
(1.4908e-22 -9.26788 19.7034)
(1.38367e-22 -8.57931 18.6012)
(-1.90528e-22 -7.85021 17.4312)
(-1.01049e-21 -6.98794 15.9543)
(-2.21903e-21 -5.75731 13.7837)
(-3.19869e-21 -3.88853 10.3957)
(-2.86938e-21 -1.37951 5.71272)
(-7.17601e-22 0.997283 1.01981)
(2.13376e-21 2.39367 -2.07638)
(4.81968e-21 3.26058 -4.0804)
(7.81923e-21 3.98842 -5.25657)
(4.10046e-22 2.54646 -4.38452)
(-8.39895e-26 -15.889 31.7695)
(2.01178e-24 -18.8118 28.9177)
(1.63525e-24 -14.7277 28.6811)