/*--------------------------------*- C++ -*----------------------------------*\
| =========                 |                                                 |
| \\      /  F ield         | OpenFOAM: The Open Source CFD Toolbox           |
|  \\    /   O peration     | Version:  4.1                                   |
|   \\  /    A nd           | Web:      www.OpenFOAM.org                      |
|    \\/     M anipulation  |                                                 |
\*---------------------------------------------------------------------------*/
FoamFile
{
    version     2.0;
    format      ascii;
    class       volScalarField;
    location    "13";
    object      p;
}
// * * * * * * * * * * * * * * * * * * * * * * * * * * * * * * * * * * * * * //

dimensions      [0 2 -2 0 0 0 0];

internalField   nonuniform List<scalar> 
1280
(
-57.2816
-28.6121
-57.7293
-119.521
-60.5782
-121.294
-184.949
-199.043
-175.511
-234.785
-365.192
-302.411
-422.759
-647.906
-561.077
-824.059
-1227.91
-1257.85
-1386.34
-2795.03
-1698.24
90.0547
1536.2
2065.63
1910.41
2347.5
-237.697
-197.092
249.73
-115.198
-283.702
-462.713
-700.684
-967.371
-1259.59
-1579.66
-1911.94
-2287.23
-2616.94
-3224.61
-2239.15
-1953.13
-1518.81
-1144.49
333.359
-170.211
-43.5062
41.0703
65.3865
127.187
153.321
-34.6308
171.347
137.903
16.6121
524.158
-743.847
-974.019
-1523.51
-3109.9
-1017.37
-494.875
-263.479
-30.5741
94.9732
187.753
240.221
284.434
315.164
322.767
329.127
427.37
221.277
-1180.28
2272.66
1724.48
1872.73
1480.49
604.06
-695.915
-1582.33
-598.66
-504.078
-444.056
-323.465
-172.354
-157.024
-101.173
-58.184
-44.5871
-25.4891
-7.48904
3.83505
6.66016
12.9276
12.3764
10.9973
12.2405
2.49056
7.50005
-54.6228
-119.992
-47.5312
-360.433
-301.443
-192.542
-157.1
-58.3658
45.6041
138.022
175.175
190.866
5.29525
-35.3934
-54.0621
-38.3567
-9.36494
-6.12884
7.08038
-94.8583
-57.3999
15.6742
-336.566
-323.808
-194.836
-113.864
76.4418
260.729
411.629
442.883
442.417
116.912
-106.61
-252.498
-220.77
-73.0603
-24.3943
28.8117
-97.7752
-179.234
-140.76
-230.078
-428.762
-217.281
-121.117
107.777
330.625
532.924
557.813
576.092
188.572
-288.653
-579.826
-498.047
-136.196
-44.4199
39.1082
-64.1186
-233.069
-185.795
-249.215
-590.366
-297.633
-148.211
128.835
404.05
666.1
731.713
703.651
263.479
-432.346
-869.095
-792.316
-209.424
-47.3747
89.2468
-17.4219
-258.218
-275.353
-443.105
-787.268
-399.953
-167.802
154.668
493.985
846.68
893.835
746.181
306.89
-473.619
-1025.22
-954.505
-284.874
-74.9776
117.715
14.0268
-225.74
-352.738
-710.266
-989.864
-522.013
-193.904
163.95
543.603
875.537
1211.26
947.74
385.839
-415.503
-1022.49
-947.88
-232.519
58.7031
246.758
30.2334
-175.294
-386.942
-919.393
-1097.89
-645.836
-222.295
166.193
599.647
944.049
1767.46
1179.19
542.486
-273.033
-918.56
-921.525
-238.953
-18.4811
148.493
39.3626
-98.4438
-357.849
-1019.29
-1089.29
-735.31
-249.121
159.745
633.895
1067.27
1797.79
1186.81
535.679
-161.137
-699.275
-672.037
-7.23888
467.365
607.406
48.4626
-7.39463
-280.48
-995.502
-992.222
-782.216
-281.867
137.106
624.433
1060.38
1584.86
1148.86
474.846
-111.981
-505.165
-393.316
182.999
1079.19
4005.47
64.2634
89.5061
-169.546
-852.867
-844.065
-777.333
-311.393
98.6784
575.947
964.406
1328.78
918.128
345.442
-87.6002
-324.984
-147.215
396.897
1118.6
2698.26
93.6378
178.642
-51.0707
-636.387
-692.731
-714.931
-328.192
51.6984
490.623
795.16
976.653
555.532
123.749
-102.357
-192.827
17.6023
443.819
1106.26
2965.11
141.691
243.647
45.7846
-399.342
-519.754
-587.949
-328.429
2.32296
373.964
571.318
546.733
185.495
-92.5401
-128.122
-31.2056
193.397
363.65
900.898
3509.83
210.173
275.918
100.409
-195.512
-311.959
-392.535
-252.098
-5.02739
269.412
350.533
193.934
-4.7473
-100.984
-81.6414
28.3897
191.748
269.597
338.76
462.612
272.815
268.72
118.786
-62.7549
-141.069
-198.102
-118.782
56.0208
225.196
185.831
-12.4493
-107.507
-33.67
-18.4426
21.6326
82.5274
61.1324
-5.03853
-138.759
311.945
240.024
131.03
17.9923
-30.372
-68.8571
-29.2039
95.7479
184.341
96.8627
-9.8955
-105.19
-10.7661
-8.91534
6.34184
66.7886
90.277
64.0903
-21.6704
309.26
186.792
124.096
52.8564
20.5891
-11.5708
-4.58764
87.0331
129.982
43.8387
-14.8026
-41.965
11.1028
17.2288
6.74157
39.4609
40.4073
19.7308
16.7065
256.391
142.877
118.066
72.9172
34.547
-7.30487
-17.3244
63.4152
96.8419
49.526
-6.11556
-19.1164
11.0398
14.0651
8.58716
20.8716
25.078
31.6143
26.6403
154.835
98.6381
79.1302
59.9252
27.6525
-15.9423
-33.8042
43.658
84.2875
51.3681
4.25075
-12.0706
5.43479
9.54374
2.56214
8.80858
17.5947
11.8419
4.97901
87.3482
143.439
72.8464
59.7122
1.57417
-46.4015
-31.8701
33.3944
66.1006
40.0817
4.75309
-5.33129
3.95745
5.49325
1.14108
6.23779
15.7705
13.119
-0.885777
22.8737
63.0355
-36.841
7.27831
8.07304
-16.2497
-18.6243
-9.31658
19.6373
10.404
-9.52095
-16.2396
-7.98411
-2.52763
1.95062
4.78126
6.91895
-2.60262
8.38737
-5543.3
-5116.79
-4930.95
-4840.82
-4831.26
-4873.87
-5010.2
-5145.08
-5227.56
-5278.39
-5300.23
-5281.4
-5224.01
-5124.42
-4987.29
-4798.44
-4583.29
-4281.37
-4022.52
-3644.21
-11786.9
-12030.6
-12107.2
-12335.3
-12468.4
-12667.3
-12815.2
-12955.2
-13045.1
-13092.1
-13081.8
-13012.8
-12885
-12702.2
-12483.6
-12232
-11979.1
-11671.1
-11421.3
-10963.7
-6037.17
-6740.61
-7062.63
-7621.33
-8061.36
-8591.79
-9083.78
-9589.24
-10056.9
-10495.7
-10881
-11203.9
-11444.9
-11591.4
-11634.6
-11601.2
-11516.1
-11375.2
-11384.5
-11438.2
-410.312
-809.639
-984.29
-1267.3
-1507.88
-1784.35
-2047.56
-2312.61
-2563.26
-2803.62
-3028.36
-3239.2
-3433.57
-3606.54
-3735.27
-3807.72
-3819.76
-3681.41
-3552.45
-3967.26
2186.53
2196.14
2161.6
2160.29
2107.41
2027.4
1889.43
1697.4
1440.29
1115.91
725.087
274.411
-217.892
-717.554
-1163.05
-1484.88
-1659.97
-1747.09
-1700.91
-1880.16
241.408
415.005
497.741
645.797
762.355
898.32
1029.71
1155.34
1262.94
1333.26
1350.24
1291.93
1150.62
931.197
683.067
468.274
378.485
370.706
415.488
349.059
-700.671
-559.655
-517.261
-431.129
-375.183
-312.189
-246.617
-188.269
-122.037
-57.5898
13.6935
88.2024
165.72
243.774
321.667
402.818
482.632
574.543
629.556
707.424
-2425.91
-2247.88
-2178.06
-2079.05
-1990.89
-1910.06
-1811.81
-1734.17
-1644.01
-1563.39
-1480.4
-1398.58
-1316.92
-1232.45
-1148.54
-1056.22
-969.46
-861.985
-790.789
-671.194
-3824.31
-3625.9
-3515.03
-3431.33
-3302.11
-3214.93
-3074.24
-2977.87
-2853.61
-2745.43
-2631.98
-2521.11
-2411.68
-2300.14
-2191.93
-2076.32
-1972.07
-1850.81
-1768.69
-1642.17
-6343.09
-6215.48
-6070.94
-6030.18
-5855.9
-5800.11
-5627.4
-5534.7
-5384.28
-5261.98
-5122.22
-4985.7
-4845.66
-4700.59
-4555.7
-4393.92
-4238.87
-4036.02
-3867.95
-3588.85
-7915.56
-8143.75
-8117.26
-8305.07
-8307.25
-8492.01
-8530.23
-8681.83
-8747.72
-8852
-8893.06
-8907.46
-8864.98
-8781.83
-8665.16
-8514.25
-8359.77
-8167.4
-8026.21
-7709.27
-4986.97
-5419.38
-5489.93
-5850.28
-5993.99
-6340.07
-6553.69
-6898.02
-7178.82
-7529.61
-7834.32
-8136.01
-8375.81
-8566.22
-8683.19
-8735.14
-8718.3
-8658.23
-8673.02
-8632.02
-991.39
-1230.85
-1202.84
-1430.36
-1397.6
-1591.91
-1593.97
-1742.45
-1783.76
-1895.8
-1963.39
-2064.27
-2165.37
-2302.68
-2463.18
-2649.09
-2832.92
-2916.44
-2949.04
-3290.09
-550.605
-530.14
-406.849
-492.039
-313.768
-399.981
-263.676
-314.212
-255.945
-299.655
-320.793
-389.137
-459.975
-544.403
-623.801
-688.377
-730.826
-779.312
-782.046
-890.236
-2076.35
-1989.09
-1753.97
-1803.74
-1502.16
-1524.35
-1279.43
-1220.01
-1044.69
-938.384
-809.552
-717.371
-649.946
-625.626
-633.551
-647.09
-620.737
-529.96
-449.01
-369.553
-4082.64
-4142.38
-3888.5
-4060.7
-3748.81
-3844.38
-3618.4
-3578.2
-3416.56
-3295.48
-3142.14
-2984.46
-2817
-2640.22
-2461.77
-2274.24
-2095.57
-1888.01
-1750.12
-1526.97
-4174.34
-4450.77
-4313.95
-4778.64
-4692.29
-5050.46
-5111.17
-5339.11
-5459.25
-5610.63
-5722.32
-5822.64
-5899.79
-5950.5
-5974.46
-5940.31
-5860.77
-5684.09
-5530.3
-5298.27
-2837.74
-3333.36
-2807.15
-3436.24
-3301.27
-3692.56
-3841.89
-4150.72
-4407.06
-4706.99
-4999.09
-5304.18
-5609.97
-5914.3
-6200.27
-6424.28
-6571.97
-6545.68
-6527.61
-6440.63
-2944.93
-4642.77
-3890.79
-4860.19
-4934.09
-5471.2
-5777.02
-6157.43
-6457.11
-6730.2
-6941.3
-7094.17
-7177.87
-7187.73
-7113.51
-6956.34
-6702.43
-6339.63
-6090.91
-5909.3
49776.7
43271.1
39816.4
35483.7
31869.2
28293
25002.1
21874.2
18934.8
16153.2
13521.1
11022.6
8644.07
6373.03
4225.18
2180.21
174.087
-1454.98
-3078.55
-6024.82
55193.5
48688.4
45233.8
40901.3
37287
33710.9
30420
27292.2
24352.8
21571.3
18939.2
16440.7
14062.2
11791.2
9643.28
7598.19
5591.77
3961.94
2337.49
-609.102
2484.15
785.97
1537.89
568.367
494.458
-42.6505
-348.416
-728.754
-1028.31
-1301.24
-1512.14
-1664.78
-1748.22
-1757.77
-1683.25
-1525.97
-1272.03
-909.213
-659.138
-478.473
2572.11
2077.47
2604.13
1975.46
2110.97
1720.2
1571.45
1263.3
1007.7
708.635
417.493
113.487
-191.089
-494.129
-778.627
-1001.46
-1147.28
-1120.75
-1102.56
-1015.3
1276.43
996.202
1130.59
664.667
748.897
389.277
327.2
98.0169
-23.0331
-175.26
-287.495
-388.238
-465.606
-516.468
-540.576
-506.874
-428.243
-253.09
-102.566
127.085
1232.36
1173.99
1428.35
1256.15
1568.81
1473.41
1700.71
1741.73
1905.27
2027.91
2183.41
2343.05
2512.54
2691.21
2871.53
3061.18
3241.76
3450.56
3588.45
3813.27
3387.07
3467.03
3694.65
3640.76
3933.99
3908.56
4147.73
4205.35
4377.62
4483.28
4610.68
4703.37
4773.22
4804.77
4810.34
4818.4
4864.26
4963.08
5042.45
5126.82
4578.72
4578.45
4697.08
4564.43
4757.38
4660.22
4826.56
4800.44
4903.36
4902.52
4927.94
4909.39
4891.26
4857.29
4826.13
4804.58
4797.18
4771.9
4778.16
4709.84
4474.64
4143.99
4265.53
3997.2
4074.03
3967.77
4022.33
3993.68
4011.07
3970.1
3973.64
3950.15
3908.69
3819.44
3695.88
3540.26
3390.18
3321.57
3313.24
3071.7
1851.56
1564.37
1589.66
1470.19
1451.91
1377.87
1292.55
1155.02
957.893
683.378
347.468
-4.50504
-305.989
-535.13
-680.265
-744.742
-729.51
-690.87
-699.14
-687.677
-233.752
-246.056
-229.834
-260.217
-305.904
-376.765
-470.268
-584.781
-717.164
-847.165
-966.879
-1041.95
-1042.26
-978.394
-876.474
-747.394
-620.296
-471.877
-371.808
-159.952
1039.41
1241.85
1309.86
1373.77
1406.77
1442.04
1483.1
1543.17
1623.07
1729.31
1853.59
1979.76
2103.25
2223.74
2332.51
2444.51
2539.38
2670.36
2768.95
2978.14
2608.4
2807.78
2864.39
2949.28
3012.07
3085.93
3165.68
3258.81
3343.14
3424.31
3512.93
3604.52
3692.17
3779.56
3863.41
3953.01
4033.72
4128.31
4193.49
4280.75
3955
4085
4117.13
4169.8
4206.79
4251.33
4289.3
4347.06
4387.97
4397.22
4447.64
4520.7
4576.44
4630.92
4680.87
4735.82
4790.08
4858.85
4907.96
4980.08
4959.95
5072.06
5113.71
5196.85
5275.14
5359.85
5429.76
5507.12
5605.46
5681.63
5713.44
5686.85
5594.19
5482.91
5403.57
5393.94
5449.54
5521.32
5566.73
5577.31
6070.21
6087.49
6050.03
6040.59
6012.86
5981.98
5929.14
5832.71
5704.63
5543.17
5377.31
5218.98
5075.01
4960.71
4891.47
4873.05
4882.6
4838.77
4829.07
4705.02
5917.37
5584.66
5453.89
5275.32
5152.7
5015.69
4857.26
4657.39
4456.34
4258.69
4059.24
3837.78
3582.81
3302.7
3034.84
2814.81
2654.53
2629.76
2653.64
2171.41
-1180.03
-1860.66
-2184.64
-2733.27
-3230.58
-3814.74
-4392.94
-4956.18
-5475.18
-5945.32
-6347.87
-6665.38
-6876.06
-6961.41
-6916.59
-6776.04
-6582.76
-6375.16
-6308.79
-6239.02
-5831.96
-6147.54
-6232.91
-6487.49
-6675.96
-6896.46
-7043.32
-7100.48
-7086.15
-7021.77
-6901.67
-6723.34
-6491.04
-6209.69
-5899.72
-5562.75
-5251.23
-4914.8
-4679.75
-4163.04
-2562.88
-2106.02
-1890.99
-1643.66
-1394.28
-1172.32
-956.093
-752.555
-561.026
-377.884
-197.58
-15.2732
170.156
366.766
569.298
802.407
1031.49
1348.12
1632.26
2119.77
5131.73
5550.13
5660.43
5809.89
5854.03
5894.24
5856.64
5816.34
5789.93
5774.39
5771.98
5788.93
5825.66
5883.87
5961.96
6060.73
6169.06
6286.92
6392.16
6478.42
)
;

boundaryField
{
    outletWall
    {
        type            fixedValue;
        value           uniform 0;
    }
    fineWalls
    {
        type            zeroGradient;
    }
    fineFrontAndBack
    {
        type            zeroGradient;
    }
    fineplugLeft
    {
        type            cyclicAMI;
        value           nonuniform List<scalar> 
20
(
-3560.29
-3741.4
-3882.54
-4049.02
-4154.68
-4241.75
-4293.01
-4319.35
-4317.67
-4296.92
-4245.75
-4132.1
-4155.48
-4467.53
-3429.6
-3482.93
-3459.53
-3637.52
-4075.42
-4774.29
)
;
    }
    fineplugRight
    {
        type            cyclicAMI;
        value           nonuniform List<scalar> 
20
(
4979.26
5014.75
4976.84
4929.13
4867.58
4807.12
4755.14
4717.42
4694.18
4682.14
4685.34
4717.42
4697.33
5056.48
5169.93
5028.12
5022.46
4824.44
4560.92
3966.2
)
;
    }
    inletOutletLeft
    {
        type            cyclicAMI;
        value           nonuniform List<scalar> 
20
(
-3560.29
-3741.4
-3882.54
-4049.02
-4154.68
-4241.75
-4293.01
-4319.35
-4317.67
-4296.92
-4245.75
-4132.1
-4155.48
-4467.53
-3429.6
-3482.93
-3459.53
-3637.52
-4075.42
-4774.29
)
;
    }
    inletLeft
    {
        type            zeroGradient;
    }
    inletWallsLeft
    {
        type            zeroGradient;
    }
    inletFacesLeft
    {
        type            zeroGradient;
    }
    inletOutletRight
    {
        type            cyclicAMI;
        value           nonuniform List<scalar> 
20
(
4979.26
5014.75
4976.84
4929.13
4867.58
4807.12
4755.14
4717.42
4694.18
4682.14
4685.34
4717.42
4697.33
5056.48
5169.93
5028.12
5022.46
4824.44
4560.92
3966.2
)
;
    }
    inletRight
    {
        type            zeroGradient;
    }
    inletWallsRight
    {
        type            zeroGradient;
    }
    inletFacesRight
    {
        type            zeroGradient;
    }
}


// ************************************************************************* //
