/*--------------------------------*- C++ -*----------------------------------*\
| =========                 |                                                 |
| \\      /  F ield         | OpenFOAM: The Open Source CFD Toolbox           |
|  \\    /   O peration     | Version:  4.1                                   |
|   \\  /    A nd           | Web:      www.OpenFOAM.org                      |
|    \\/     M anipulation  |                                                 |
\*---------------------------------------------------------------------------*/
FoamFile
{
    version     2.0;
    format      ascii;
    class       volScalarField;
    location    "30";
    object      p;
}
// * * * * * * * * * * * * * * * * * * * * * * * * * * * * * * * * * * * * * //

dimensions      [0 2 -2 0 0 0 0];

internalField   nonuniform List<scalar> 
1280
(
0.357818
1.5909
2.54626
2.47075
2.60557
3.68046
3.51055
3.40527
4.03277
4.48425
3.36774
4.31106
5.01618
2.79644
4.21749
4.71556
1.52254
2.21861
5.49325
-5.93038
4.34657
24.4193
43.5775
47.3792
47.6841
52.2096
18.5455
39.219
38.5176
38.0792
37.4142
36.3657
35.1206
33.7877
33.1625
33.4172
36.2792
39.5608
44.72
43.418
-7.88019
28.6147
38.1347
41.6963
57.6532
57.4205
58.1207
59.1708
61.3233
60.5403
60.4922
61.0402
55.4465
51.8877
50.7337
53.0883
28.9377
23.5828
9.44495
-30.2192
30.2596
32.4745
27.5698
24.7917
22.3994
22.7879
24.0689
26.101
27.9984
29.74
31.0789
32.1219
33.7667
15.9343
54.2028
49.2021
48.5557
43.915
24.6666
5.67364
-2.76673
8.74124
14.2679
18.5045
19.8899
24.0489
24.1576
24.1929
24.2671
24.6578
22.9058
21.2013
20.3089
16.9503
15.0095
13.5752
10.3676
4.30358
0.332102
3.34222
0.0700035
0.613503
1.62013
6.15128
1.67076
2.66998
2.15192
0.68508
-1.35639
-3.43921
-2.64039
-17.8649
-10.5875
-6.30759
-3.90428
0.63965
3.5572
4.2329
3.53984
0.114888
1.18905
3.10034
11.0389
3.73614
2.67066
-0.536739
-1.80373
-2.83389
-1.66566
-4.75142
-23.3763
-12.6093
-4.19866
1.22539
8.9569
11.621
12.3708
9.70583
0.226567
1.51191
3.62054
11.4282
4.52623
4.42127
0.586377
-1.54827
-4.22891
-6.18432
-16.7919
-25.6286
-14.94
-2.95657
3.57325
13.7245
17.492
18.2404
14.9092
0.287493
1.70532
3.87092
10.8057
4.2766
4.37695
-0.151321
-1.99366
-4.68532
-8.3199
-24.9899
-27.3799
-19.1363
-2.64538
5.05839
18.0343
23.4495
24.4439
19.6857
0.293388
1.76763
3.84845
9.65752
3.68141
4.57011
-0.0420766
-1.82155
-4.94355
-10.5912
-29.3074
-26.5491
-22.366
-2.05386
7.02602
22.6017
29.3937
30.7949
24.5637
0.268421
1.71108
3.58591
8.20839
2.95326
4.24549
-0.477803
-2.09822
-5.14226
-11.4396
-28.6699
-25.0094
-24.8218
-1.57938
8.89113
26.7064
34.4853
36.3467
22.9396
0.218474
1.57003
3.17909
6.79011
2.26398
3.74921
-0.991859
-2.6193
-5.47895
-11.5987
-25.7721
-24.2614
-26.2696
-1.43239
10.3126
30.3162
39.0004
41.5568
20.8953
0.149022
1.36693
2.65252
5.34238
1.30634
2.67248
-1.93349
-3.56246
-5.85135
-10.9973
-21.8796
-24.2771
-25.9863
-1.67848
11.4796
33.0912
44.1972
44.8406
39.1967
0.0671083
1.11597
2.02007
3.80566
-0.0528967
0.784166
-3.17745
-4.75237
-6.14389
-9.78614
-17.3351
-23.22
-23.651
-2.19176
11.8181
33.9006
48.0941
44.2928
73.8699
-0.0204099
0.835342
1.32379
2.22087
-1.83905
-2.10151
-4.72693
-6.10544
-6.257
-8.01387
-12.3352
-20.4734
-19.632
-2.84272
11.288
32.1276
42.0699
43.4506
74.7472
-0.10668
0.546245
0.61943
0.673283
-3.86226
-5.636
-6.42755
-7.47309
-6.13694
-5.79917
-7.02403
-16.5085
-14.9419
-3.57107
9.36584
25.1499
30.8348
36.3356
73.3473
-0.184975
0.269529
-0.0364894
-0.744508
-5.80837
-9.37681
-8.08169
-8.72427
-5.7534
-3.23883
-1.16241
-10.9674
-9.86218
-4.07293
6.56146
17.8865
23.0035
34.7697
75.5799
-0.2496
0.0248694
-0.59125
-1.93805
-7.37385
-12.8977
-9.43939
-9.70851
-5.11887
-0.498471
5.38322
-3.48542
-3.98662
-3.28992
3.99002
8.59877
4.51635
8.93441
31.5784
-0.295139
-0.171278
-1.00707
-2.82974
-8.35699
-15.8077
-10.2764
-10.2847
-4.30257
2.1291
12.039
4.46994
2.05024
-0.826433
2.11404
-1.85479
-11.679
-3.37478
10.3505
-0.319356
-0.306022
-1.25461
-3.3425
-8.63463
-17.6601
-10.4534
-10.3697
-3.43953
4.23568
17.5567
10.7971
6.9853
2.45599
1.17738
-9.00301
-13.0789
-3.0333
11.9896
-0.31688
-0.373315
-1.33708
-3.46642
-8.24211
-18.1192
-9.99193
-9.89304
-2.62161
5.42365
20.2369
13.8832
9.64616
4.59607
-0.0918912
-14.4366
-14.4078
-7.57569
7.04254
-0.294715
-0.373504
-1.2355
-3.14268
-7.14239
-16.9007
-8.90806
-8.70679
-1.82933
5.51926
19.1714
13.307
9.99347
5.17222
-1.57055
-17.1442
-16.3789
-7.3541
5.56993
-0.235214
-0.311781
-1.02347
-2.56426
-5.64787
-14.0978
-7.36366
-7.19362
-1.34014
4.60831
15.1156
9.27933
7.61982
3.62497
-3.26806
-16.145
-17.8767
-7.42983
3.3688
-0.182393
-0.212809
-0.605301
-1.47219
-3.30573
-9.38352
-5.69816
-5.62198
-1.03507
3.54604
11.2279
5.88889
5.30421
2.81839
-3.17682
-11.3754
-16.6998
-6.07424
2.17034
-0.0368942
-0.0599986
-0.310469
-0.791706
-1.59043
-3.5515
-2.57487
-2.01214
0.484233
2.53499
5.14714
1.85225
0.375959
0.0589136
-2.39955
-4.77663
-9.24292
-1.58298
1.78287
150.89
150.267
147.793
145.962
143.258
140.524
137.719
134.999
132.06
129.365
126.948
124.811
122.994
121.45
120.176
119.038
118.289
117.604
117.377
116.185
102.744
105.226
105.506
106.744
107.713
108.721
109.721
110.594
111.466
112.232
112.936
113.556
114.108
114.597
115.086
115.604
116.237
117.028
117.669
118.312
92.8189
94.7635
95.9074
97.0308
98.0433
98.8005
99.6726
100.384
101.125
101.834
102.551
103.286
104.05
104.865
105.739
106.733
107.756
108.986
109.845
111.12
68.8414
71.4795
73.621
75.4007
77.2299
78.6378
80.2206
81.5694
82.9235
84.1889
85.4026
86.5742
87.6994
88.8054
89.8659
90.9542
91.9566
93.1132
93.9083
95.1569
49.7803
52.3442
54.6344
56.2584
58.4575
60.0502
62.0487
63.7865
65.6051
67.3501
69.0598
70.7381
72.3796
74.0236
75.6407
77.308
78.8772
80.5827
81.8381
83.7059
17.2438
17.8566
19.3489
19.6381
21.2994
22.0009
23.521
24.6493
26.0912
27.4998
29.0336
30.631
32.2995
34.077
35.9525
38.0864
40.3584
43.3826
45.995
49.7865
4.71333
0.280687
-0.21814
-3.02748
-4.11989
-6.58368
-8.04042
-10.0745
-11.422
-12.5548
-12.9709
-12.8743
-12.2275
-11.1396
-9.68464
-7.93245
-6.18534
-4.12247
-2.30286
1.71777
46.8358
40.4267
38.3689
33.5845
30.4919
25.8706
21.9483
17.1746
12.7712
8.23017
4.2448
0.669635
-2.19471
-4.32975
-5.49114
-5.85942
-5.55618
-4.70856
-4.98698
-4.41003
106.507
103.231
102.329
99.6352
98.4783
96.1016
94.6633
92.5583
90.9009
88.9618
87.1475
85.1492
83.0438
80.706
78.3036
75.9762
74.2101
74.0338
73.4908
68.9591
118.76
119.505
120.264
119.996
121.057
120.621
121.101
120.436
119.865
118.532
116.918
114.872
112.599
110.181
107.839
105.805
104.294
103.405
103.376
101.649
97.7939
99.9395
101.938
102.552
105.103
105.962
108.137
109.501
111.241
112.585
113.687
114.293
114.331
113.75
112.759
111.768
111.554
112.216
113.172
113.657
75.9441
77.7373
80.2372
80.3063
83.2013
83.7011
85.8705
87.0888
88.755
90.2688
91.8207
93.3873
94.9478
96.4989
98.0081
99.5127
100.962
102.593
103.888
105.545
44.852
45.8174
48.9017
48.4389
51.8204
51.974
54.5043
55.6466
57.5826
59.2414
61.0538
62.897
64.7948
66.783
68.8282
71.0036
73.1563
75.5533
77.4774
80.4009
20.5593
19.2572
21.789
19.7835
22.2473
20.7642
22.2394
21.7453
22.4449
22.5854
23.0666
23.5784
24.3361
25.4326
26.8614
28.7277
30.7434
33.3515
35.3714
38.8585
19.6541
16.3408
17.8759
14.559
15.699
13.0072
13.0461
11.1562
10.3434
8.85078
7.65837
6.3727
5.31806
4.52818
4.04692
3.92936
4.04379
4.72794
5.18721
7.29423
45.0421
40.3182
41.5943
36.6978
37.4475
33.9562
33.3514
31.094
29.798
28.0574
26.5888
25.0674
23.6939
22.4186
21.2546
20.0283
18.8229
17.8242
16.2651
16.524
85.2953
80.5082
82.837
76.1173
76.5599
72.0961
70.4579
67.4725
65.3037
62.9798
60.9646
59.1086
57.5139
56.162
55.0203
53.9889
52.9536
51.7239
49.7551
47.592
79.2663
72.7978
81.4665
74.9716
77.6226
74.8329
74.255
72.3781
70.8534
69.0563
67.3224
65.6023
64.0132
62.6191
61.4963
60.6957
60.4235
60.5682
60.6642
60.5253
87.2266
65.0319
73.2883
62.4631
59.9306
53.5414
48.8569
43.8747
39.6072
35.8389
32.8055
30.5642
29.222
28.8818
29.7108
31.6503
34.5679
38.8913
43.4071
45.6231
774.343
691.648
642.605
586.46
537.564
490.415
446.609
405.271
366.403
329.718
295.04
262.163
230.874
201.082
172.799
145.245
118.591
96.7716
72.1328
36.4482
787.565
704.87
655.826
599.681
550.784
503.635
459.829
418.49
379.623
342.938
308.26
275.384
244.095
214.303
186.021
158.468
131.814
109.996
85.3583
49.6751
100.436
78.2411
86.4969
75.6712
73.138
66.7481
62.0628
57.0797
52.8112
49.0416
46.0068
43.764
42.4198
42.0773
42.9036
44.8403
47.7543
52.0752
56.5905
58.8103
92.4743
86.0081
94.6775
88.1839
90.8356
88.0469
87.4697
85.5935
84.0692
82.2727
80.5393
78.8197
77.2309
75.837
74.7146
73.9145
73.6422
73.7886
73.8879
73.7555
98.5616
93.7789
96.1106
89.3942
89.8403
85.3798
83.7452
80.7634
78.5984
76.2782
74.2668
72.4147
70.8237
69.4754
68.337
67.3091
66.2771
65.0493
63.083
60.9235
58.3706
53.6491
54.9271
50.0323
50.7845
47.2957
46.6935
44.439
43.1458
41.4085
39.9432
38.4251
37.0545
35.7816
34.6189
33.3928
32.1856
31.1856
29.627
29.8818
32.9635
29.6474
31.1797
27.8606
28.9979
26.3046
26.3399
24.4475
23.6313
22.135
20.9386
19.6485
18.5892
17.794
17.307
17.1833
17.2925
17.9694
18.4239
20.5248
33.7701
32.4611
34.9882
32.9782
35.4365
33.9479
35.4175
34.9168
35.6106
35.7443
36.2193
36.7249
37.4773
38.5694
39.9945
41.8574
43.8701
46.4767
48.4938
51.9796
58.0121
58.9724
62.0547
61.589
64.9683
65.1188
67.6474
68.7868
70.7212
72.378
74.1892
76.0314
77.9287
79.9168
81.9621
84.1377
86.2904
88.688
90.6121
93.5386
89.0662
90.8601
93.3621
93.4323
96.3292
96.8305
99.0022
100.223
101.892
103.409
104.964
106.534
108.096
109.648
111.157
112.662
114.113
115.746
117.045
118.706
110.993
113.137
115.136
115.747
118.298
119.154
121.326
122.685
124.417
125.752
126.845
127.443
127.477
126.898
125.92
124.955
124.771
125.458
126.421
126.911
131.788
132.543
133.301
133.036
134.098
133.665
134.148
133.492
132.931
131.615
130.023
128.007
125.771
123.396
121.1
119.111
117.639
116.765
116.741
115.034
119.951
116.704
115.812
113.14
112.003
109.648
108.232
106.149
104.511
102.588
100.782
98.7847
96.6686
94.3107
91.8833
89.5268
87.7358
87.5515
87.0201
82.4897
60.2789
53.8697
51.8089
47.0227
43.9261
39.3026
35.3769
30.6026
26.2005
21.6643
17.6855
14.1172
11.2584
9.13176
7.97674
7.60343
7.89884
8.74106
8.45655
8.99158
17.9921
13.5382
13.0351
10.2192
9.11866
6.64984
5.18578
3.14638
1.79294
0.653803
0.227444
0.308387
0.933065
1.9942
3.41958
5.13619
6.85217
8.88949
10.6956
14.6973
30.1726
30.7706
32.252
32.5254
34.1703
34.8524
36.3505
37.4532
38.8671
40.2456
41.7488
43.316
44.9565
46.7098
48.5664
50.6891
52.9571
55.9915
58.611
62.409
62.8409
65.3917
67.665
69.2714
71.4561
73.0343
75.0185
76.7422
78.5471
80.2796
81.9783
83.6478
85.2829
86.9234
88.5392
90.2077
91.78
93.489
94.7494
96.6235
81.5797
84.2442
86.3862
88.17
90.0027
91.4137
92.9987
94.3496
95.7054
96.9723
98.1872
99.3595
100.485
101.591
102.651
103.739
104.739
105.892
106.684
107.927
106.699
108.586
109.676
110.745
111.713
112.424
113.249
113.912
114.597
115.248
115.902
116.572
117.268
118.018
118.827
119.757
120.719
121.89
122.707
123.931
114.817
117.392
117.577
118.765
119.687
120.656
121.615
122.442
123.264
123.975
124.633
125.214
125.737
126.208
126.682
127.19
127.807
128.583
129.209
129.818
168.437
167.615
164.778
162.703
159.777
156.832
153.913
150.932
147.573
144.501
141.72
139.22
137.053
135.17
133.568
132.092
130.992
129.909
129.346
127.611
)
;

boundaryField
{
    outletWall
    {
        type            fixedValue;
        value           uniform 0;
    }
    fineWalls
    {
        type            zeroGradient;
    }
    fineFrontAndBack
    {
        type            zeroGradient;
    }
    fineplugLeft
    {
        type            cyclicAMI;
        value           nonuniform List<scalar> 
20
(
101.632
102.846
101.996
101.887
101.914
102.773
103.917
105.419
107.122
109.041
111.108
113.352
115.843
124.168
122.861
124.143
126.246
126.95
125.097
121.581
)
;
    }
    fineplugRight
    {
        type            cyclicAMI;
        value           nonuniform List<scalar> 
20
(
108.141
109.972
109.441
109.752
110.154
111.412
112.95
114.863
116.976
119.324
121.817
124.483
127.499
138.223
136.306
137.662
139.874
140.605
139.025
135.885
)
;
    }
    inletOutletLeft
    {
        type            cyclicAMI;
        value           nonuniform List<scalar> 
20
(
101.632
102.846
101.996
101.887
101.914
102.773
103.917
105.419
107.122
109.041
111.108
113.352
115.843
124.168
122.861
124.143
126.246
126.95
125.097
121.581
)
;
    }
    inletLeft
    {
        type            zeroGradient;
    }
    inletWallsLeft
    {
        type            zeroGradient;
    }
    inletFacesLeft
    {
        type            zeroGradient;
    }
    inletOutletRight
    {
        type            cyclicAMI;
        value           nonuniform List<scalar> 
20
(
108.141
109.972
109.441
109.752
110.154
111.412
112.95
114.863
116.976
119.324
121.817
124.483
127.499
138.223
136.306
137.662
139.874
140.605
139.025
135.885
)
;
    }
    inletRight
    {
        type            zeroGradient;
    }
    inletWallsRight
    {
        type            zeroGradient;
    }
    inletFacesRight
    {
        type            zeroGradient;
    }
}


// ************************************************************************* //
