/*--------------------------------*- C++ -*----------------------------------*\
| =========                 |                                                 |
| \\      /  F ield         | OpenFOAM: The Open Source CFD Toolbox           |
|  \\    /   O peration     | Version:  4.1                                   |
|   \\  /    A nd           | Web:      www.OpenFOAM.org                      |
|    \\/     M anipulation  |                                                 |
\*---------------------------------------------------------------------------*/
FoamFile
{
    version     2.0;
    format      ascii;
    class       surfaceScalarField;
    location    "30";
    object      phi;
}
// * * * * * * * * * * * * * * * * * * * * * * * * * * * * * * * * * * * * * //

dimensions      [0 3 -1 0 0 0 0];

internalField   nonuniform List<scalar> 
2360
(
-2267.92
488.431
-2756.35
488.434
488.43
2807.03
-2318.6
2807.03
2807.03
2807.03
4859.05
-2052.01
4859.04
4859.05
7247.88
-2388.84
7247.88
7247.88
9745.8
-2497.92
9745.8
9745.81
12669.4
-2923.64
12669.5
12669.5
13592.1
15311.1
16999.5
18491
19811.1
21011.1
16709
5434.6
17757.2
18726.5
19613.2
20414.1
21125.3
21748.3
22302.1
22833.1
23419.4
24132.1
24996
25938.5
26734.9
13454.5
13280.4
13454.5
13454.5
13454.5
3347.83
10106.7
3347.83
3347.83
3347.83
-1037.01
4384.84
-1037.01
-1037.01
-7948.74
6911.73
-7948.74
-7948.74
-7948.74
-18044.8
10096.1
-18044.8
-18044.8
-18044.8
-28599.7
10554.9
-27785.5
-26835.5
-25967
-25251
-24659.2
-24119.5
-23554.9
-22920.3
-22199.1
-21391.5
-20501.5
-19532.7
-18488.7
-20138.5
2777.63
-18939.8
-17622.4
-16134
-14453.7
-12758.9
-11877.3
-11877.3
-11877.3
-5719.81
-6157.52
-5719.81
-5719.81
-153.95
-5565.86
-153.955
-153.955
4283.6
-4437.56
4283.6
4283.6
8071.73
-3788.13
8071.73
8071.73
8071.73
11702.7
-3630.99
11702.7
11702.7
15767.5
-4064.8
-1919.75
12905.4
-1977.53
14855.7
-2055.74
15526.8
-1973.61
12723.1
-3281.33
-6368.68
-5954.82
-11920.1
-8323.04
-11340
-9311.55
-13844.5
-9054.85
-17973.1
-6612.03
-18926.2
-2326.99
-7132.71
-261.658
14859.4
641.055
24034.7
1591.94
26693.1
2565.64
27328.5
3428.05
24579
3913.06
17406.3
4336.29
7093.08
-4168.57
-1979.47
12980.2
-2096.34
14972.5
-2282.87
15713.4
-2341.46
12781.7
-4415.37
-4294.76
-6818.03
-9517.49
-8189.58
-9968.44
-8698.61
-13335.4
-8708.79
-17962.9
-7053.38
-20581.6
-2405.79
-11780.3
-150.845
12604.5
385.012
23498.8
1342.42
25735.7
2317.9
26353
3254.46
23642.4
3872.5
16788.2
4097.46
6868.13
-3702.11
-2063.06
13078.3
-2237.85
15147.3
-2513.79
15989.3
-2909.08
13176.9
-4980.5
-2223.34
-6487.2
-8010.79
-7145.65
-9309.98
-7447.89
-13033.2
-7586.37
-17824.4
-6771.41
-21396.6
-3040.71
-15511
-334.238
9898.03
188.028
22976.5
924.194
24999.5
1925.54
25351.6
2931.66
22636.3
3734.96
15984.9
4196.57
6406.51
-3293.67
-2160.93
13198.5
-2384.22
15370.6
-2752.99
16358.1
-3325.23
13749.2
-5248.73
-299.836
-6277.83
-6981.69
-6694.51
-8893.3
-6974.09
-12753.6
-7128.06
-17670.4
-6669.73
-21854.9
-4051.93
-18128.8
-878.748
6724.84
0.594787
22097.2
330.663
24669.5
1368.56
24313.7
2433.7
21571.1
3427.7
14991
4458.38
5375.83
-3272.85
-2262.43
13338.7
-2526.91
15635.1
-2975.06
16806.2
-3704.13
14478.2
-5491.61
1487.64
-6297.06
-6176.25
-6710.76
-8479.59
-7083.56
-12380.8
-7269.46
-17484.5
-7010.79
-22113.6
-5289.02
-19850.6
-1780.18
3216
-531.615
20848.6
-375.718
24513.6
619.858
23318.2
1752.34
20438.6
2866.28
13877
4546.02
3696.1
-4292.69
-2360.28
13495.3
-2656.33
15931.2
-3163.27
17313.2
-4034.23
15349.2
-5808.95
3262.37
-6665.17
-5320.03
-7197.96
-7946.81
-7634.96
-11943.8
-7817.84
-17301.6
-7689.5
-22242
-6692.9
-20847.2
-3322.25
-154.649
-1555.42
19081.8
-1143.66
24101.8
-347.153
22521.7
918.362
19173.1
2229.49
12565.9
4408.55
1517.04
-6041.66
-2450.12
13663.8
-2766.59
16247.6
-3310.47
17857.1
-4314.26
16353
-6219.78
5167.89
-7223.31
-4316.49
-7776.44
-7393.68
-8170.99
-11549.3
-8340.35
-17132.3
-8383.06
-22199.2
-7984.97
-21245.3
-5216.05
-2923.56
-2930.3
16796
-2078.71
23250.2
-1483.54
21926.5
-203.385
17893
2202.8
10159.7
4181.92
-462.075
917.892
-2528.66
13839.7
-2852.88
16571.8
-3407.06
18411.2
-4512.94
17458.9
-6598.91
7253.86
-7746.29
-3169.12
-8214.98
-6924.99
-8507.23
-11257
-8673.93
-16965.6
-8912.86
-21960.3
-9026.88
-21131.2
-7046.68
-4903.76
-4623.98
14373.3
-3368.88
21995.1
-2836.09
21393.7
-1439.74
16496.6
1098.74
7621.2
-2213.04
2849.71
9259.73
-2593.04
14018.1
-2910.87
16889.7
-3444.38
18944.7
-4595.06
18609.6
-6827.24
9486.03
-8091.57
-1904.79
-8418.64
-6597.92
-8606.26
-11069.4
-8799.66
-16772.2
-9247.43
-21512.6
-9846.62
-20532
-8736.68
-6013.7
-6555.3
12192
-4953.59
20393.4
-4195.25
20635.4
-3615.57
15916.9
-5998.64
10004.3
-10653.9
7505.01
8701.89
-2641.2
14194
-2938.36
17186.8
-3418.18
19424.6
-4533.56
19724.9
-6819.62
11772.1
-8212.24
-512.162
-8403.8
-6406.36
-8511.28
-10961.9
-8749.96
-16533.5
-9396.34
-20866.2
-10428.9
-19499.5
-10090
-6352.57
-8226.12
10328
-6455.2
18622.5
-5932.84
20113
-7547.87
17532
-11400
13856.4
-12234.6
8339.63
3378.99
-2672.34
14362.8
-2936.45
17450.9
-3332.76
19820.9
-4330.05
20722.2
-6559.99
14002
-8111.07
1038.92
-8197
-6320.43
-8243.99
-10914.9
-8533.42
-16244
-9363.97
-20035.6
-10809.2
-18054.3
-11123
-6038.77
-9533.44
8738.52
-7969.77
17058.8
-8133.16
20276.4
-10451.8
19850.7
-12405.7
15810.2
-10461.9
6395.89
-2698.08
-2687.32
14520.8
-2909.95
17673.6
-3201.79
20112.7
-4007.2
21527.6
-6081.26
16076.1
-7786.32
2743.98
-7810.71
-6296.03
-7809.29
-10916.3
-8150.38
-15903
-9145.57
-19040.4
-11030
-16169.8
-12157.1
-4911.7
-11100.5
7681.88
-10040.3
15998.7
-10751.5
20987.6
-13114
22213.1
-14991.7
17687.9
-14503.4
5907.54
-7094.77
-2688.84
14665.6
-2866.71
17851.4
-3046.5
20292.5
-3604.92
22086.1
-5420.44
17891.6
-7244.33
4567.87
-7250.02
-6290.34
-7216.3
-10950.1
-7612.02
-15507.2
-8726.12
-17926.3
-10998.9
-13897.1
-13128.7
-2781.9
-13018
7571.2
-12572.6
15553.2
-13366.3
21781.4
-14878.4
23725.2
-15030
17839.5
-13468.8
4346.41
-7283.22
-2680.69
14795.9
-2815.41
17986.1
-2890.12
20367.2
-3178.84
22374.8
-4627.56
19340.3
-6500.63
6440.93
-6524.92
-6266.04
-6486.6
-10988.4
-6944.38
-15049.5
-8088.47
-16782.2
-10495.5
-11490
-13422.6
145.192
-14330.3
8478.88
-14430.1
15653
-14755.4
22106.7
-14186.1
23155.9
-10155.1
13808.5
-4345.47
-1463.25
-6194.09
-2667.28
14911.8
-2764.48
18083.3
-2752.57
20355.3
-2788.76
22411
-3785.18
20336.8
-5592.01
8247.76
-5651.37
-6206.68
-5651.63
-10988.1
-6188.92
-14512.2
-7254.87
-15716.3
-9359.32
-9385.54
-12525.6
3311.48
-14128.9
10082.2
-14519
16043
-14070.9
21658.7
-11483.3
20568.3
-5167.17
7492.39
97.765
-6728.18
-9019.97
-2652.06
15013.9
-2718.89
18150.2
-2644.13
20280.5
-2479.03
22245.9
-2992.53
20850.3
-4585.27
9840.5
-4664.9
-6127.05
-4761.96
-10891.1
-5402.29
-13871.8
-6295.13
-14823.4
-7567.16
-8113.52
-10365.3
6109.58
-12337.3
12054.2
-12757.2
16463
-11548.6
20450.1
-7867.53
16887.2
-2127.35
1752.22
1117.15
-9972.68
-10400.7
-2638.93
15104.6
-2685.05
18196.3
-2571.97
20167.5
-2272.21
21946.1
-2336.2
20914.2
-3560.59
11064.9
-3630.64
-6057
-3896.64
-10625.1
-4650.02
-13118.5
-5349.12
-14124.3
-5535.28
-7927.36
-7436.4
8010.7
-9473.36
14091.1
-9920.95
16910.6
-8318.7
18847.8
-4393.09
12961.6
107.529
-2748.4
2120.34
-11985.5
-10669.2
-2627.44
15183.6
-2658.63
18227.5
-2527.07
20035.9
-2160.48
21579.5
-1879.44
20633.2
-2602.28
11787.7
-2656.61
-6002.67
-3163.35
-10118.3
-3982.99
-12298.8
-4526.99
-13580.3
-3791.65
-8662.7
-4472.12
8691.16
-6151.15
15770.2
-6809.53
17569
-5306.53
17344.8
-1340.33
8995.38
2126.76
-6215.49
2826.49
-12685.2
-9894.77
-2623.81
15257.4
-2654.46
18258.1
-2524.47
19905.9
-2140.21
21195.3
-1624.01
20117
-1784.71
11948.4
-1938.15
-5849.23
-2650.36
-9406.13
-3416.49
-11532.7
-3884.05
-13112.8
-2768.29
-9778.47
-2232.7
8155.57
-2972.67
16510.2
-3729.98
18326.3
-2650.4
16265.2
1010.77
5334.22
3589.43
-8794.15
3410.23
-12506
-8803.14
-2612.95
-2637.86
-2521.83
-2185.18
-1637.62
-1418.9
-1664.65
-2325.39
-2994.01
-3441.09
-2696.59
-1218.87
-395.995
-179.253
758.38
3085.8
4383.6
3752.83
51.3211
-973.939
287.323
-1955.06
478.172
-1879.25
610.845
-1624.17
711.008
-1420.27
789.195
-1278.1
823.061
-1166.43
845.869
-1071.01
855.95
-979.303
855.818
-886.609
847.716
-792.766
833.485
-697.03
811.721
-601.23
774.878
-516.861
712.697
-468.863
617.159
-490.779
489.554
-585.1
338.821
-713.174
178.691
-782.322
-617.695
-61.6587
-912.276
-55.032
-1961.68
-6.18247
-1928.09
36.9067
-1667.25
79.5671
-1462.92
122.397
-1320.93
174.289
-1218.32
229.233
-1125.95
289.833
-1039.9
359.718
-956.489
441.636
-874.68
537.588
-792.977
646.069
-709.708
755.258
-626.047
837.72
-551.322
849.96
-503.017
758.582
-493.722
557.036
-511.629
291.331
-516.617
-326.364
-47.1682
-865.103
-19.9226
-1988.92
71.843
-2019.85
152.692
-1748.1
228.202
-1538.43
303.6
-1396.32
376.442
-1291.16
444.7
-1194.2
505.83
-1101.02
559.232
-1009.89
605.768
-921.214
647.472
-834.677
687.32
-749.554
725.87
-664.593
754.476
-579.927
749.078
-497.617
680.84
-425.484
527.668
-358.455
292.401
-281.349
-33.9623
93.9518
-959.053
137.423
-2032.39
173.28
-2055.71
207.19
-1782
252.948
-1584.19
305.807
-1449.18
360.826
-1346.17
412.782
-1246.16
459.153
-1147.39
497.451
-1048.18
525.479
-949.241
541.717
-850.913
545.878
-753.714
538.662
-657.375
520.548
-561.812
487.059
-464.126
426.352
-364.776
321.035
-253.136
160.331
-120.643
126.368
281.599
-1240.65
378.704
-2129.49
383.725
-2060.73
404.794
-1803.07
459.964
-1639.36
527.44
-1516.65
599.274
-1418.01
669.507
-1316.39
734.426
-1212.31
788.077
-1101.83
825.52
-986.681
842.621
-868.012
836.446
-747.537
804.811
-625.738
746.321
-503.32
659.422
-377.226
541.575
-246.928
386.677
-98.2364
189.591
76.4461
315.96
408.562
-1649.21
493.18
-2214.11
460.027
-2027.58
477.209
-1820.25
547.002
-1709.15
635.291
-1604.94
735.646
-1518.36
836.405
-1417.15
928.605
-1304.51
1000.49
-1173.72
1047.65
-1033.84
1067.61
-887.973
1058.48
-738.407
1016.51
-583.763
936.327
-423.139
811.148
-252.048
617.982
-53.7618
390.532
129.213
193.078
273.9
509.038
309.499
-1958.71
255.026
-2159.64
183.164
-1955.71
181.064
-1818.15
216.804
-1744.89
269.058
-1657.19
334.823
-1584.13
397.752
-1480.08
442.456
-1349.21
457.044
-1188.31
443.88
-1020.68
405.563
-849.656
342.834
-675.678
254.179
-495.108
142.339
-311.297
35.1598
-144.866
-4.68687
-13.9118
-45.6478
170.177
-102.586
330.84
406.452
2.19475
-1960.91
-146.405
-2011.04
-255.93
-1846.19
-344.377
-1729.71
-427.388
-1661.88
-504.714
-1579.87
-578.974
-1509.87
-657.974
-1401.08
-750.086
-1257.1
-855.49
-1082.9
-968.6
-907.567
-1084.69
-733.565
-1199.26
-561.11
-1302.22
-392.156
-1378.2
-235.316
-1407.74
-115.318
-1359.58
-62.0782
-1124.79
-64.6056
-655.139
-138.813
-248.687
-187.761
-1773.15
-287.039
-1911.76
-402.756
-1730.47
-553.356
-1579.11
-715.174
-1500.06
-893.955
-1401.09
-1084.54
-1319.29
-1279.51
-1206.11
-1467.39
-1069.22
-1641.8
-908.495
-1802.66
-746.711
-1946.78
-589.438
-2061.86
-446.036
-2119.49
-334.525
-2074.93
-279.871
-1890.35
-299.897
-1549.73
-402.701
-1038.36
-575.972
-435.961
-741.211
-684.648
-102.725
-1670.42
-100.78
-1913.71
-123.102
-1708.15
-184.239
-1517.97
-255.291
-1429.01
-347.709
-1308.67
-451.962
-1215.03
-554.078
-1103.99
-629.691
-993.605
-664.67
-873.517
-657.846
-753.535
-611.02
-636.265
-527.307
-529.75
-412.569
-449.265
-273.588
-418.852
-113.504
-459.982
45.4076
-561.613
145.075
-675.64
120.057
-716.193
-564.591
25.2574
-1695.68
79.6797
-1968.13
134.354
-1762.83
176.566
-1560.18
217.513
-1469.96
253.835
-1344.99
286.76
-1247.96
322.921
-1140.16
372.27
-1042.95
446.747
-947.996
550.253
-857.041
682.459
-768.472
834.636
-681.927
984.358
-598.987
1089.16
-523.655
1094.9
-465.717
965.778
-432.496
705.202
-415.065
363.503
-374.494
-201.088
95.4148
-1791.1
136.385
-2009.1
187.156
-1813.6
245.864
-1618.89
311.746
-1535.84
376.996
-1410.25
446.194
-1317.16
517.107
-1211.07
588.933
-1114.78
659.357
-1018.42
726.595
-924.281
788.296
-830.174
841.382
-735.015
880.26
-637.867
895.336
-538.732
866.838
-437.22
770.333
-335.992
583.15
-227.883
314.842
-106.19
113.754
143.56
-1934.66
149.803
-2015.35
195.553
-1859.35
253.258
-1676.6
322.922
-1605.51
387.414
-1474.74
459.218
-1388.96
531.563
-1283.42
609.588
-1192.81
688.013
-1096.85
762.91
-999.178
824.843
-892.108
863.398
-773.571
869.067
-643.537
836.986
-506.653
763.652
-363.887
644.575
-216.916
469.136
-52.4463
241.978
120.965
355.732
127.335
-2061.99
96.8144
-1984.83
130.748
-1893.29
174.185
-1720.04
229.055
-1660.38
282.846
-1528.53
347.063
-1453.18
415.274
-1351.63
493.084
-1270.62
574.719
-1178.48
654.754
-1079.22
718.291
-955.647
750.54
-805.822
742.987
-635.986
696.18
-459.848
608.61
-276.319
465.57
-73.878
302.142
110.978
155.895
267.209
511.628
36.5045
-2098.5
-17.842
-1930.48
-25.9993
-1885.13
-29.7604
-1716.28
-29.9587
-1660.18
-24.8707
-1533.62
-15.6842
-1462.37
0.100229
-1367.42
21.2756
-1291.8
45.9117
-1203.12
67.8179
-1101.12
78.2984
-966.129
73.8785
-801.404
61.3483
-623.458
48.1276
-446.631
35.7562
-263.955
42.4662
-80.5967
9.11734
144.321
-55.7153
332.038
455.912
-38.6326
-2059.87
-95.241
-1873.88
-139.068
-1841.3
-182.554
-1672.79
-229.104
-1613.63
-270.053
-1492.67
-315.995
-1416.43
-358.936
-1324.48
-404.496
-1246.24
-447.989
-1159.63
-487.639
-1061.48
-514.695
-939.075
-519.742
-796.359
-500.023
-643.179
-470.651
-476.004
-455.731
-278.878
-472.136
-64.1932
-467.618
139.802
-378.218
242.637
77.6937
-61.1299
-1998.74
-134.543
-1800.46
-191.794
-1784.05
-244.283
-1620.3
-297.532
-1560.38
-342.279
-1447.93
-389.633
-1369.08
-433.827
-1280.28
-478.805
-1201.26
-518.498
-1119.94
-544.495
-1035.48
-542.476
-941.095
-504.756
-834.08
-438.8
-709.136
-361.563
-553.243
-288.249
-352.193
-231.531
-120.914
-176.617
84.8854
-99.2106
165.228
-21.5169
-150.067
-1848.67
-324.718
-1625.81
-459.058
-1649.71
-558.855
-1520.51
-648.088
-1471.15
-709.948
-1386.07
-759.707
-1319.32
-792.603
-1247.39
-813.304
-1180.56
-819.015
-1114.23
-805.879
-1048.61
-767.188
-979.787
-698.264
-903.004
-596.178
-811.223
-453.919
-695.502
-261.52
-544.593
-37.6427
-344.792
139.641
-92.4001
195.761
109.106
174.244
-197.358
-1651.31
-434.106
-1389.07
-685.075
-1398.75
-892.899
-1312.68
-1091.25
-1272.8
-1256.12
-1221.2
-1397.7
-1177.73
-1511.37
-1133.73
-1600.39
-1091.54
-1664.91
-1049.7
-1705.51
-1008.01
-1720.04
-965.262
-1703.01
-920.028
-1644.18
-870.055
-1528.26
-811.423
-1333.93
-738.922
-1035.47
-643.26
-627.329
-500.539
-228.382
-289.842
-54.1378
-676.315
-1090.38
-1514.13
-1851.81
-2149.61
-2395.81
-2598.54
-2757.27
-2873.81
-2948.52
-2981.53
-2971.79
-2916.82
-2811.88
-2648.3
-2412.22
-2080.48
-1606.02
-920.862
-676.325
1651.33
-1090.4
1389.08
-1514.16
1398.76
-1851.86
1312.7
-2149.67
1272.81
-2395.89
1221.22
-2598.64
1177.75
-2757.38
1133.75
-2873.93
1091.55
-2948.65
1049.72
-2981.67
1008.02
-2971.94
965.267
-2916.97
920.033
-2812.03
870.066
-2648.48
811.448
-2412.45
738.969
-2080.76
643.313
-1606.27
500.511
-920.896
289.625
54.1038
-197.351
1848.68
-434.083
1625.81
-685.037
1649.72
-892.837
1520.5
-1091.16
1471.14
-1255.99
1386.05
-1397.54
1319.3
-1511.16
1247.36
-1600.13
1180.53
-1664.6
1114.19
-1705.15
1048.58
-1719.63
979.746
-1702.56
902.969
-1643.72
811.219
-1527.85
695.581
-1333.7
544.826
-1035.6
345.21
-627.829
92.7423
-229.002
-109.2
-174.898
-149.994
1998.68
-324.565
1800.39
-458.828
1783.98
-558.535
1620.21
-647.677
1560.29
-709.437
1447.82
-759.092
1368.95
-791.877
1280.15
-812.464
1201.12
-818.058
1119.79
-804.814
1035.33
-766.042
940.977
-697.085
834.013
-594.987
709.124
-452.694
553.29
-260.23
352.366
-36.303
121.29
141.027
-84.5808
196.695
-164.86
21.797
-61.0622
2059.74
-134.441
1873.77
-191.64
1841.18
-244.089
1672.66
-297.294
1613.49
-342.009
1492.53
-389.335
1416.28
-433.513
1324.33
-478.476
1246.08
-518.142
1159.46
-544.081
1061.27
-541.978
938.875
-504.197
796.235
-438.226
643.155
-360.913
475.979
-287.285
278.742
-229.933
63.9425
-174.622
-139.889
-97.348
-242.128
-75.5509
-38.7417
2098.49
-95.3873
1930.42
-139.29
1885.09
-182.877
1716.25
-229.532
1660.15
-270.605
1533.61
-316.699
1462.38
-359.809
1367.44
-405.562
1291.84
-449.247
1203.14
-489.052
1101.08
-516.169
965.996
-521.175
801.243
-501.384
623.367
-471.999
446.599
-457.137
263.884
-473.94
80.7507
-469.643
-144.183
-379.724
-332.043
-455.275
36.2743
2062.21
-18.181
1984.87
-26.5004
1893.41
-30.4378
1720.19
-30.833
1660.55
-25.9387
1528.72
-16.9615
1453.4
-1.38876
1351.87
19.5569
1270.89
43.9525
1178.75
65.6072
1079.43
75.8695
955.735
71.3443
805.771
58.8692
635.844
45.8073
459.664
33.651
276.046
41.1227
73.2866
8.10024
-111.155
-56.4947
-267.445
-511.77
127.306
1934.91
96.6469
2015.53
130.495
1859.56
173.857
1676.83
228.647
1605.76
282.371
1474.99
346.53
1389.25
414.692
1283.71
492.463
1193.12
574.049
1097.17
654.007
999.472
717.418
892.325
749.52
773.67
741.871
643.495
695.063
506.475
607.526
363.586
464.311
216.504
301.266
51.8932
155.406
-121.582
-356.364
143.764
1791.14
149.857
2009.44
195.551
1813.87
253.235
1619.15
322.903
1536.09
387.394
1410.5
459.211
1317.43
531.573
1211.35
609.632
1115.06
688.106
1018.69
763.059
924.519
825.023
830.361
863.564
735.13
869.161
637.898
836.947
538.689
763.453
437.08
644.271
335.687
468.828
227.337
241.803
105.446
-114.561
95.7719
1695.37
136.651
1968.56
187.363
1763.16
246.072
1560.44
311.998
1470.17
377.249
1345.25
446.45
1248.23
517.327
1140.47
589.092
1043.3
659.39
948.396
726.431
857.481
787.862
768.932
840.609
682.385
879.103
599.407
893.831
523.962
865.219
465.695
768.876
432.031
582.076
414.139
314.256
373.27
199.695
25.5501
1669.82
79.9558
1914.16
134.685
1708.43
177.098
1518.03
218.304
1428.96
254.978
1308.58
288.348
1214.86
325.008
1103.81
374.802
993.507
449.575
873.623
553.203
753.852
685.38
636.754
837.351
530.414
986.614
450.143
1090.66
419.914
1095.53
460.824
965.863
561.699
705.171
674.832
363.593
714.847
563.288
-101.853
1771.68
-99.2401
1911.54
-120.701
1729.89
-180.916
1578.24
-251.06
1499.1
-342.5
1400.02
-445.691
1318.05
-546.62
1204.74
-621.015
1067.9
-654.83
907.439
-646.927
745.949
-599.08
588.907
-514.404
445.738
-398.879
334.618
-259.643
280.678
-100.519
301.7
55.7972
405.383
151.643
578.985
122.559
743.932
685.847
-188.253
1959.93
-287.068
2010.35
-402.65
1845.47
-553.37
1728.96
-715.391
1661.12
-894.51
1579.13
-1085.44
1508.98
-1280.67
1399.96
-1468.57
1255.81
-1642.8
1081.67
-1803.33
906.473
-1947.01
732.582
-2061.4
560.127
-2117.97
391.191
-2072.42
235.12
-1887.42
116.708
-1546.17
64.1244
-1034.33
67.1424
-433.525
143.129
252.322
0.652516
1959.27
-148.05
2159.06
-257.838
1955.26
-346.872
1817.99
-430.618
1744.87
-508.797
1657.31
-584.046
1584.23
-664.088
1480
-757.159
1348.88
-863.308
1187.82
-976.971
1020.14
-1093.5
849.11
-1208.43
675.052
-1311.56
494.32
-1387.34
310.899
-1416
145.367
-1366.6
14.7193
-1129.46
-170
-656.386
-329.943
-404.064
308.518
1650.75
253.206
2214.37
180.833
2027.63
178.163
1820.66
213.232
1709.8
264.797
1605.75
329.77
1519.25
391.771
1418
435.445
1305.2
449.067
1174.19
435.099
1034.1
396.167
888.04
332.948
738.266
243.931
583.333
132.44
422.383
26.8909
250.902
-9.46125
51.0538
-49.2022
-130.273
-104.745
-274.409
-508.809
409.305
1241.45
493.862
2129.81
460.443
2061.04
477.523
1803.58
547.348
1639.97
635.768
1517.32
736.301
1418.72
837.195
1317.1
929.433
1212.96
1001.27
1102.36
1048.33
987.038
1068.19
868.179
1058.95
747.503
1016.79
625.488
936.332
502.84
810.75
376.482
615.915
245.887
388.595
97.044
191.815
-77.6318
-316.994
283.282
958.162
381.019
2032.07
385.821
2056.24
406.712
1782.68
461.956
1584.72
529.642
1449.63
601.757
1346.6
672.274
1246.58
737.438
1147.8
791.26
1048.53
828.801
949.495
845.951
851.026
839.789
753.664
808.096
657.179
749.428
561.506
662.185
463.723
543.789
364.282
388.217
252.614
190.385
120.198
-126.609
96.3252
861.835
140.819
1987.57
177.004
2020.05
211.136
1748.55
257.187
1538.67
310.372
1396.45
365.71
1291.26
417.919
1194.37
464.485
1101.23
502.908
1010.11
530.94
921.462
546.988
834.977
550.723
749.927
542.79
665.111
523.706
580.587
489.13
498.299
427.481
425.929
321.625
358.468
160.876
280.943
34.2668
-43.4936
905.327
-16.3401
1960.42
74.6473
1929.06
155.008
1668.19
230.25
1463.43
305.3
1321.4
377.794
1218.77
445.998
1126.17
507.252
1039.97
560.789
956.568
607.497
874.752
649.254
793.219
688.585
710.595
726.349
627.346
754.428
552.508
749.303
503.423
682.154
493.078
530.172
510.449
294.929
516.185
329.196
-44.0239
949.35
-32.2486
1948.64
15.453
1881.36
56.8107
1626.83
99.1203
1421.12
142.985
1277.53
196.575
1165.18
252.112
1070.63
311.976
980.109
379.94
888.602
458.937
795.754
551.002
701.153
655.243
606.354
761.068
521.519
841.765
471.811
854.393
490.794
764.52
582.951
563.292
711.676
296.185
783.291
625.381
67.825
321.629
522.678
661.07
764.842
843.701
881.011
907.639
918.964
917.508
905.689
885.662
857.408
814.366
746.394
645.438
512.367
355.57
188.803
)
;

boundaryField
{
    outletWall
    {
        type            calculated;
        value           nonuniform List<scalar> 
60
(
15767.5
4440.07
-7516.32
-17891.3
-25441.4
-28302.2
-27644
-24937.4
-16924.8
2847.68
16483.4
17716.4
14833
13708.2
14593.6
7676.39
-12805.2
-15448.6
-14797.9
-12858.9
2554.26
2549.96
2548.5
2548.23
2549.96
2551.35
2550.41
2544.06
2529.29
2503.53
2465.33
2414.66
2352.76
2281.62
2203.72
2122.14
2040.82
1964.95
1904.6
1873.28
2267.92
-7806.67
-11875.2
-10092
3006.8
15327.6
18109.6
15687.3
6677.85
-10523
-12665.7
-10864.1
-8745.4
-5603.48
11729.7
19569.4
20858.6
19789.9
18283
15316.1
)
;
    }
    fineWalls
    {
        type            calculated;
        value           uniform 0;
    }
    fineFrontAndBack
    {
        type            calculated;
        value           nonuniform List<scalar> 
960
(
-8.28433e-12
-3.11961e-11
-4.03373e-12
-3.46865e-12
-2.94155e-11
-5.68581e-12
-5.88469e-12
-5.21903e-12
-3.29582e-11
-5.5155e-12
-4.79376e-12
-2.58835e-11
-4.68996e-12
-4.97075e-12
-2.97025e-11
-5.44502e-12
-5.29392e-12
-3.12862e-11
-5.20473e-12
-5.33659e-12
-7.61598e-13
-1.01492e-12
-9.77139e-13
-9.30336e-13
-9.02851e-13
-9.20176e-13
-1.4276e-11
-7.17704e-13
-6.24237e-13
-4.47507e-13
-2.44981e-13
-4.09273e-14
7.71923e-14
1.0828e-13
4.32187e-14
-6.95017e-14
-1.88094e-13
-2.83537e-13
-3.0928e-13
-4.87861e-13
-6.21499e-12
-1.02473e-12
-1.69826e-12
-2.52914e-12
1.06123e-12
1.87615e-12
2.4052e-12
5.3952e-13
4.47985e-11
2.00092e-12
3.77257e-12
1.45268e-11
3.50766e-12
3.7292e-12
3.75777e-12
2.3114e-11
3.17106e-12
1.97568e-12
1.19689e-12
7.36487e-12
5.88398e-13
3.64301e-13
3.55977e-13
2.7449e-13
9.5826e-14
-6.48512e-14
-1.36492e-13
-1.76093e-13
-1.01678e-13
7.4122e-14
2.54643e-13
3.85594e-13
4.76169e-13
6.42399e-12
6.48803e-13
6.14297e-13
6.24408e-13
6.27409e-13
5.94478e-13
2.61701e-13
2.34992e-12
2.27601e-12
1.78166e-11
4.68309e-12
5.32026e-12
3.87426e-11
1.18642e-11
1.02503e-11
4.28527e-11
6.99647e-12
2.4129e-12
1.55809e-11
4.54412e-12
5.20389e-12
6.61687e-12
3.48026e-11
6.21329e-12
6.53142e-12
3.14081e-11
8.18265e-12
-3.32422e-11
-2.85508e-11
-2.35693e-11
-1.66641e-11
3.05594e-12
1.56555e-11
1.28775e-11
1.53926e-12
-8.61099e-12
-7.27415e-12
1.5355e-11
4.4112e-11
5.40107e-11
6.23137e-11
6.59298e-11
4.95642e-11
2.82789e-11
1.60545e-11
-4.93391e-12
-3.30723e-11
-2.82667e-11
-2.32665e-11
-1.55296e-11
1.58568e-12
-2.08501e-12
-1.94366e-11
-3.53054e-11
-4.34787e-11
-3.76648e-11
-6.14634e-12
4.63343e-11
5.38853e-11
6.22033e-11
6.6043e-11
5.07385e-11
3.01197e-11
1.86427e-11
1.91464e-12
-3.2848e-11
-2.78949e-11
-2.27359e-11
-1.44335e-11
-6.28664e-12
-2.27064e-11
-4.02702e-11
-5.1278e-11
-5.49987e-11
-4.769e-11
-1.7398e-11
4.40797e-11
5.40522e-11
6.23115e-11
6.61635e-11
5.19856e-11
3.22175e-11
2.10136e-11
1.07165e-11
-3.25976e-11
-2.7474e-11
-2.20045e-11
-1.35543e-11
-1.60811e-11
-4.26462e-11
-5.57403e-11
-6.01666e-11
-5.93086e-11
-5.02657e-11
-2.15732e-11
3.82139e-11
5.55965e-11
6.24378e-11
6.62179e-11
5.29562e-11
3.40458e-11
2.39736e-11
5.42123e-12
-3.23274e-11
-2.69998e-11
-2.10932e-11
-1.29453e-11
-2.41636e-11
-5.71652e-11
-6.20943e-11
-5.96895e-11
-5.55705e-11
-4.59051e-11
-1.89545e-11
3.73452e-11
5.82159e-11
6.20963e-11
6.62607e-11
5.34498e-11
3.53499e-11
2.68792e-11
7.96223e-12
-3.20371e-11
-2.647e-11
-2.00878e-11
-1.26339e-11
-2.96825e-11
-6.31252e-11
-6.05839e-11
-5.42373e-11
-4.9187e-11
-3.99264e-11
-1.41743e-11
3.9142e-11
6.07877e-11
6.2079e-11
6.62822e-11
5.32692e-11
3.56709e-11
2.99237e-11
1.23036e-11
-3.17251e-11
-2.58981e-11
-1.90998e-11
-1.23951e-11
-3.20525e-11
-6.18683e-11
-5.49733e-11
-4.76846e-11
-4.31939e-11
-3.48408e-11
-9.92548e-12
4.10801e-11
6.47385e-11
6.39498e-11
6.58338e-11
5.23291e-11
3.54999e-11
3.31816e-11
1.34605e-11
-3.13907e-11
-2.53011e-11
-1.81944e-11
-1.19784e-11
-3.14058e-11
-5.69429e-11
-4.85582e-11
-4.14411e-11
-3.80924e-11
-3.08964e-11
-6.64825e-12
4.42972e-11
7.08373e-11
6.75489e-11
6.41461e-11
4.93743e-11
3.18298e-11
1.94279e-11
1.40426e-11
-3.10342e-11
-2.46946e-11
-1.73979e-11
-1.13141e-11
-2.88162e-11
-5.15864e-11
-4.26691e-11
-3.53913e-11
-3.33364e-11
-2.7809e-11
-4.37663e-12
4.87376e-11
7.38902e-11
6.91595e-11
6.07177e-11
4.45169e-11
3.48219e-11
4.23881e-11
4.19332e-11
-3.06579e-11
-2.40943e-11
-1.67095e-11
-1.04806e-11
-2.55997e-11
-4.66058e-11
-3.68407e-11
-2.96779e-11
-2.84964e-11
-2.5356e-11
-4.92466e-12
4.91724e-11
7.22268e-11
6.69056e-11
5.09841e-11
3.77135e-11
2.9007e-11
3.37081e-11
3.2375e-11
-3.02652e-11
-2.35142e-11
-1.61494e-11
-9.6293e-12
-2.15785e-11
-4.08135e-11
-3.22476e-11
-2.46402e-11
-2.36882e-11
-2.26223e-11
-1.06924e-11
2.59468e-11
6.36666e-11
5.96763e-11
4.11167e-11
3.21466e-11
5.42452e-11
1.01304e-10
1.1338e-10
-2.98597e-11
-2.29591e-11
-1.57128e-11
-8.85338e-12
-1.70685e-11
-3.27104e-11
-2.48663e-11
-2.01724e-11
-1.96181e-11
-1.98546e-11
-9.89744e-12
1.81258e-11
4.18589e-11
4.35211e-11
3.57238e-11
3.99284e-11
5.54586e-11
2.69732e-11
-1.73974e-11
-2.94432e-11
-2.24188e-11
-1.53567e-11
-8.21241e-12
-1.27996e-11
-2.62914e-11
-2.05339e-11
-1.60255e-11
-1.58931e-11
-1.7679e-11
-1.00348e-11
1.38811e-11
2.66563e-11
3.06427e-11
3.5089e-11
3.79195e-11
1.96233e-11
-2.59004e-11
-2.31861e-11
-2.90153e-11
-2.18728e-11
-1.50196e-11
-7.76483e-12
-9.24337e-12
-2.05042e-11
-1.65039e-11
-1.23393e-11
-1.25038e-11
-1.56781e-11
-1.0643e-11
1.27015e-11
2.21065e-11
2.41246e-11
2.77838e-11
1.8503e-11
-1.34813e-11
-3.69349e-11
-2.40409e-11
-2.85735e-11
-2.1303e-11
-1.46519e-11
-7.50797e-12
-6.66903e-12
-1.53294e-11
-1.27056e-11
-9.06439e-12
-9.57593e-12
-1.38238e-11
-1.20574e-11
9.6494e-12
1.75635e-11
1.55144e-11
1.16558e-11
-4.63234e-12
-2.92711e-11
-3.03719e-11
-3.48022e-11
-2.81118e-11
-2.07017e-11
-1.42366e-11
-7.38269e-12
-5.05408e-12
-1.08785e-11
-9.09239e-12
-6.20887e-12
-7.25445e-12
-1.21358e-11
-1.3894e-11
3.73939e-12
1.11089e-11
4.8026e-12
-5.24594e-12
-2.07384e-11
-3.37493e-11
-2.87628e-11
-3.74582e-11
-2.76341e-11
-2.00813e-11
-1.37889e-11
-7.31029e-12
-4.13789e-12
-7.2039e-12
-5.77014e-12
-3.81108e-12
-5.60758e-12
-1.06191e-11
-1.53408e-11
-4.41472e-12
4.97871e-12
-2.19989e-12
-1.6248e-11
-2.8982e-11
-3.23806e-11
-3.1116e-11
-4.21624e-11
-2.7107e-11
-1.94142e-11
-1.32918e-11
-7.19379e-12
-3.59448e-12
-4.31292e-12
-2.90103e-12
-2.00519e-12
-4.58846e-12
-9.32555e-12
-1.54574e-11
-1.33848e-11
-2.108e-12
-4.17513e-12
-1.91849e-11
-2.9916e-11
-2.15652e-11
-3.35321e-11
-4.49869e-11
-2.66651e-11
-1.88581e-11
-1.28706e-11
-7.06902e-12
-3.25528e-12
-2.25125e-12
-6.84748e-13
-9.68914e-13
-3.99255e-12
-8.34142e-12
-1.44133e-11
-1.95664e-11
-1.12674e-11
-4.77205e-12
-1.42106e-11
-2.58176e-11
-2.63842e-11
-3.88132e-11
-4.70701e-11
-2.57502e-11
-1.77618e-11
-1.19911e-11
-6.56986e-12
-2.77386e-12
-5.57256e-13
5.83494e-13
-6.19383e-13
-3.61051e-12
-7.70982e-12
-1.32707e-11
-2.18534e-11
-2.24273e-11
-1.56554e-11
-1.59202e-11
-2.13186e-11
-3.03278e-11
-4.22971e-11
-4.80391e-11
8.28433e-12
3.11961e-11
4.03373e-12
3.46865e-12
2.94155e-11
5.68581e-12
5.88469e-12
5.21903e-12
3.29582e-11
5.5155e-12
4.79376e-12
2.58835e-11
4.68996e-12
4.97075e-12
2.97025e-11
5.44502e-12
5.29392e-12
3.12862e-11
5.20473e-12
5.33659e-12
7.61598e-13
1.01492e-12
9.77139e-13
9.30336e-13
9.02851e-13
9.20176e-13
1.4276e-11
7.17704e-13
6.24237e-13
4.47507e-13
2.44981e-13
4.09273e-14
-7.71923e-14
-1.0828e-13
-4.32187e-14
6.95017e-14
1.88094e-13
2.83537e-13
3.0928e-13
4.87861e-13
6.21499e-12
1.02473e-12
1.69826e-12
2.52914e-12
-1.06123e-12
-1.87615e-12
-2.4052e-12
-5.3952e-13
-4.47985e-11
-2.00092e-12
-3.77257e-12
-1.45268e-11
-3.50766e-12
-3.7292e-12
-3.75777e-12
-2.3114e-11
-3.17106e-12
-1.97568e-12
-1.19689e-12
-7.36487e-12
-5.88398e-13
-3.64301e-13
-3.55977e-13
-2.7449e-13
-9.5826e-14
6.48512e-14
1.36492e-13
1.76093e-13
1.01678e-13
-7.4122e-14
-2.54643e-13
-3.85594e-13
-4.76169e-13
-6.42399e-12
-6.48803e-13
-6.14297e-13
-6.24408e-13
-6.27409e-13
-5.94478e-13
-2.61701e-13
-2.34992e-12
-2.27601e-12
-1.78166e-11
-4.68309e-12
-5.32026e-12
-3.87426e-11
-1.18642e-11
-1.02503e-11
-4.28527e-11
-6.99647e-12
-2.4129e-12
-1.55809e-11
-4.54412e-12
-5.20389e-12
-6.61687e-12
-3.48026e-11
-6.21329e-12
-6.53142e-12
-3.14081e-11
-8.18265e-12
3.32422e-11
2.85508e-11
2.35693e-11
1.66641e-11
-3.05594e-12
-1.56555e-11
-1.28775e-11
-1.53926e-12
8.61099e-12
7.27415e-12
-1.5355e-11
-4.4112e-11
-5.40107e-11
-6.23137e-11
-6.59298e-11
-4.95642e-11
-2.82789e-11
-1.60545e-11
4.93391e-12
3.30723e-11
2.82667e-11
2.32665e-11
1.55296e-11
-1.58568e-12
2.08501e-12
1.94366e-11
3.53054e-11
4.34787e-11
3.76648e-11
6.14634e-12
-4.63343e-11
-5.38853e-11
-6.22033e-11
-6.6043e-11
-5.07385e-11
-3.01197e-11
-1.86427e-11
-1.91464e-12
3.2848e-11
2.78949e-11
2.27359e-11
1.44335e-11
6.28664e-12
2.27064e-11
4.02702e-11
5.1278e-11
5.49987e-11
4.769e-11
1.7398e-11
-4.40797e-11
-5.40522e-11
-6.23115e-11
-6.61635e-11
-5.19856e-11
-3.22175e-11
-2.10136e-11
-1.07165e-11
3.25976e-11
2.7474e-11
2.20045e-11
1.35543e-11
1.60811e-11
4.26462e-11
5.57403e-11
6.01666e-11
5.93086e-11
5.02657e-11
2.15732e-11
-3.82139e-11
-5.55965e-11
-6.24378e-11
-6.62179e-11
-5.29562e-11
-3.40458e-11
-2.39736e-11
-5.42123e-12
3.23274e-11
2.69998e-11
2.10932e-11
1.29453e-11
2.41636e-11
5.71652e-11
6.20943e-11
5.96895e-11
5.55705e-11
4.59051e-11
1.89545e-11
-3.73452e-11
-5.82159e-11
-6.20963e-11
-6.62607e-11
-5.34498e-11
-3.53499e-11
-2.68792e-11
-7.96223e-12
3.20371e-11
2.647e-11
2.00878e-11
1.26339e-11
2.96825e-11
6.31252e-11
6.05839e-11
5.42373e-11