/*--------------------------------*- C++ -*----------------------------------*\
| =========                 |                                                 |
| \\      /  F ield         | OpenFOAM: The Open Source CFD Toolbox           |
|  \\    /   O peration     | Version:  4.1                                   |
|   \\  /    A nd           | Web:      www.OpenFOAM.org                      |
|    \\/     M anipulation  |                                                 |
\*---------------------------------------------------------------------------*/
FoamFile
{
    version     2.0;
    format      ascii;
    class       volVectorField;
    location    "30";
    object      U;
}
// * * * * * * * * * * * * * * * * * * * * * * * * * * * * * * * * * * * * * //

dimensions      [0 1 -1 0 0 0 0];

internalField   nonuniform List<vector> 
1280
(
(-5.98687e-15 -0.775623 -2.11836)
(-5.30207e-15 0.387348 -2.00789)
(-2.77922e-15 -0.0340557 -1.00468)
(-2.5067e-15 0.0626017 -0.956977)
(-4.99945e-15 1.04476 -1.45998)
(-4.10899e-15 0.752569 -0.786152)
(-4.25271e-15 0.975886 -0.693818)
(-3.70912e-15 0.963205 -0.728247)
(-5.78469e-15 1.68175 -1.34924)
(-4.03169e-15 1.50749 -1.0732)
(-3.45975e-15 1.69764 -1.12151)
(-4.17808e-15 2.48618 -1.95913)
(-3.36474e-15 2.19037 -1.62111)
(-3.57995e-15 2.51418 -1.63684)
(-4.90162e-15 3.36959 -2.43551)
(-3.93497e-15 2.87953 -1.8835)
(-3.82578e-15 3.39045 -1.75055)
(-5.31739e-15 3.72271 -2.93316)
(-3.76133e-15 4.2003 -1.35966)
(-3.85662e-15 3.2089 -4.10761)
(-3.1245e-15 4.05403 0.988522)
(-4.16378e-15 4.33371 6.8498)
(-4.00877e-15 4.11278 9.2195)
(-3.81676e-15 4.57062 9.7484)
(-3.704e-15 4.80771 9.47672)
(-3.77508e-15 5.33318 9.39655)
(-3.00944e-15 4.41837 7.05761)
(-2.94443e-15 7.83777 12.0347)
(-2.56097e-15 8.03395 12.4196)
(-1.83592e-15 8.12151 12.788)
(-1.00505e-15 8.15276 13.0429)
(-1.67907e-16 8.12752 13.1056)
(3.16686e-16 8.06105 13.0043)
(4.44228e-16 7.95642 12.9122)
(1.77307e-16 7.86606 13.0006)
(-2.85135e-16 7.72289 13.348)
(-7.71667e-16 7.69638 13.8547)
(-1.16323e-15 7.53592 14.2804)
(-1.26884e-15 7.71703 14.6184)
(-2.00148e-15 7.56473 13.2069)
(-1.08181e-15 10.1577 12.6494)
(-8.23079e-16 5.55591 7.79363)
(-1.36407e-15 4.50964 7.36111)
(-1.92527e-15 3.82396 7.106)
(1.03405e-15 2.79565 6.9567)
(1.50695e-15 1.49915 4.25292)
(1.93189e-15 1.07296 4.1683)
(4.33349e-16 0.533713 4.34016)
(1.03441e-14 -0.0951893 2.35263)
(1.60716e-15 -0.156127 1.7531)
(5.70378e-15 -0.521941 2.04382)
(2.52859e-15 -0.982576 4.00242)
(2.8174e-15 -1.99727 5.01119)
(2.99534e-15 -2.63063 4.95218)
(3.01829e-15 -3.04907 5.06163)
(4.02332e-15 -4.64683 7.70808)
(2.62634e-15 -5.28779 7.024)
(1.58689e-15 -6.07493 7.4108)
(9.61356e-16 -7.13655 7.83137)
(1.07872e-15 -11.5214 12.4075)
(2.41394e-15 -8.20068 12.8992)
(1.49457e-15 -8.36137 14.2864)
(1.46042e-15 -8.16135 13.9451)
(1.12611e-15 -8.31933 13.5064)
(3.93132e-16 -8.33368 12.9913)
(-2.66056e-16 -8.46916 12.6453)
(-5.59967e-16 -8.54645 12.5592)
(-7.22435e-16 -8.64036 12.6412)
(-4.17141e-16 -8.68976 12.6832)
(3.0409e-16 -8.69055 12.5137)
(1.04469e-15 -8.63007 12.1321)
(1.58192e-15 -8.511 11.6247)
(1.95351e-15 -8.2615 11.1193)
(1.3542e-15 -4.24317 5.55259)
(2.66175e-15 -5.175 8.85638)
(2.52019e-15 -4.63012 8.64016)
(2.56167e-15 -4.42031 8.71659)
(2.57398e-15 -3.9744 7.88484)
(2.43888e-15 -4.22133 5.09179)
(1.07364e-15 -3.92029 -1.22167)
(1.69823e-15 -3.03961 -6.35404)
(1.64481e-15 -3.68358 -3.65389)
(3.0281e-15 -2.0662 -5.82054)
(3.38435e-15 -2.34354 -3.65356)
(3.84481e-15 -1.34464 -4.06505)
(7.56709e-15 -0.646648 -4.8886)
(8.57397e-15 -0.351642 -2.53465)
(7.40763e-15 0.215765 -2.84199)
(6.9553e-15 0.986023 -3.72256)
(5.05617e-15 1.07331 -2.70318)
(1.56556e-15 1.52953 -2.55077)
(3.29736e-15 2.49402 -3.18766)
(3.37665e-15 2.25943 -2.19637)
(3.76072e-15 2.81012 -2.1797)
(4.78184e-15 2.91113 -2.05579)
(5.91504e-15 4.05224 -2.96774)
(4.49018e-15 3.64533 -2.24525)
(4.72008e-15 4.2095 -2.05152)
(5.33007e-15 4.53205 -2.8883)
(5.91338e-15 5.16393 -2.94505)
(-3.69358e-15 -4.28799 1.56256)
(-3.17231e-15 -4.94078 1.63643)
(-2.61881e-15 -5.16986 1.66948)
(-1.85156e-15 -4.36567 1.70081)
(3.39549e-16 2.47729 1.72904)
(1.7395e-15 4.75531 3.64007)
(1.43083e-15 4.46311 6.29683)
(1.71029e-16 4.89723 7.57772)
(-9.56777e-16 5.92486 7.94537)
(-8.08238e-16 5.60028 7.16061)
(1.70611e-15 0.98836 3.65718)
(4.90134e-15 -5.35581 0.490395)
(6.00119e-15 -8.19956 -0.148921)
(6.92374e-15 -9.13547 -0.914751)
(7.32554e-15 -9.36858 -1.73045)
(5.50713e-15 -8.44263 -2.5537)
(3.1421e-15 -5.95736 -3.16243)
(1.78384e-15 -2.51102 -3.36062)
(-5.48212e-16 1.44617 -3.89973)
(-3.6747e-15 -4.31451 1.59288)
(-3.14074e-15 -4.96522 1.70277)
(-2.58517e-15 -5.19018 1.82438)
(-1.72551e-15 -4.16183 1.78679)
(1.76187e-16 1.68885 2.3748)
(-2.31668e-16 3.30477 4.87187)
(-2.15962e-15 3.26116 6.5306)
(-3.92282e-15 4.41489 7.10682)
(-4.83097e-15 6.03833 7.40093)
(-4.18497e-15 6.83678 7.08369)
(-6.82927e-16 3.46867 4.5517)
(5.14825e-15 -4.75194 -0.113146)
(5.98726e-15 -7.9495 0.0583266)
(6.91148e-15 -8.7506 -0.690853)
(7.33812e-15 -8.94908 -1.52709)
(5.63761e-15 -8.02482 -2.36821)
(3.34663e-15 -5.68741 -3.04209)
(2.07141e-15 -2.27358 -3.43529)
(2.12738e-16 1.3252 -3.24804)
(-3.64978e-15 -4.34202 1.64276)
(-3.09943e-15 -5.01651 1.79138)
(-2.52621e-15 -5.27639 1.9685)
(-1.60372e-15 -4.29667 2.03854)
(-6.98515e-16 1.10328 3.08545)
(-2.52293e-15 2.96621 5.07497)
(-4.47447e-15 3.28504 5.79103)
(-5.69756e-15 4.42834 6.10336)
(-6.11097e-15 5.94935 6.3188)
(-5.29889e-15 6.97514 6.28059)
(-1.93312e-15 4.6355 5.03694)
(4.89774e-15 -3.65375 0.306682)
(6.0058e-15 -7.74172 -0.0234423)
(6.9235e-15 -8.40822 -0.306511)
(7.3515e-15 -8.60201 -1.1973)
(5.77618e-15 -7.70499 -2.05772)
(3.57972e-15 -5.47353 -2.81361)
(2.33484e-15 -2.23697 -3.43519)
(1.19072e-15 1.16322 -3.34331)
(-3.62195e-15 -4.37733 1.70586)
(-3.05267e-15 -5.08281 1.8904)
(-2.44495e-15 -5.38409 2.10648)
(-1.50603e-15 -4.46801 2.32629)
(-1.78679e-15 0.435515 3.48171)
(-4.73847e-15 2.42571 5.11159)
(-6.19337e-15 2.97129 5.42204)
(-6.68517e-15 4.27846 5.71007)
(-6.58985e-15 5.92388 5.91664)
(-5.58508e-15 7.26518 5.90755)
(-2.39702e-15 5.75411 5.34349)
(4.24599e-15 -2.76828 1.5648)
(6.17739e-15 -7.53891 -0.322696)
(6.93754e-15 -8.2466 0.253392)
(7.35755e-15 -8.2866 -0.742401)
(5.88402e-15 -7.38078 -1.6013)
(3.78287e-15 -5.18694 -2.44138)
(2.66373e-15 -2.04122 -3.30717)
(6.02359e-16 1.04736 -3.89886)
(-3.59193e-15 -4.42122 1.77385)
(-2.99998e-15 -5.16402 1.99028)
(-2.34369e-15 -5.51981 2.23783)
(-1.43837e-15 -4.68155 2.59508)
(-2.68484e-15 -0.168731 3.80221)
(-6.35169e-15 2.21805 5.19622)
(-6.89937e-15 2.93222 5.38174)
(-6.63216e-15 4.20878 5.7724)
(-6.1745e-15 5.85653 6.03199)
(-5.10057e-15 7.32923 6.03766)
(-2.10605e-15 6.38242 5.82477)
(4.14947e-15 -1.79029 2.95769)
(6.46843e-15 -7.20308 -0.0713432)
(6.89959e-15 -8.21087 0.833845)
(7.3623e-15 -7.93241 -0.124703)
(5.93887e-15 -7.01333 -0.989155)
(3.92777e-15 -4.82466 -1.91642)
(2.98658e-15 -1.5773 -2.92378)
(8.84692e-16 0.895309 -4.4692)
(-3.55968e-15 -4.47102 1.84191)
(-2.94112e-15 -5.25811 2.08429)
(-2.23198e-15 -5.68096 2.35419)
(-1.40376e-15 -4.95453 2.82056)
(-3.29805e-15 -0.777706 4.07788)
(-7.01391e-15 1.91805 5.46304)
(-6.73154e-15 2.73496 5.73813)
(-6.02636e-15 4.05005 6.22433)
(-5.46523e-15 5.79832 6.49572)
(-4.43626e-15 7.40942 6.50302)
(-1.57493e-15 6.82341 6.47443)
(4.34912e-15 -0.584163 4.50076)
(6.75419e-15 -6.70445 1.14767)
(6.89767e-15 -8.14165 1.27375)
(7.36469e-15 -7.62041 0.729012)
(5.9188e-15 -6.61731 -0.248579)
(3.96343e-15 -4.4252 -1.26323)
(3.32486e-15 -0.869735 -2.69339)
(1.36706e-15 2.19344 -4.30857)
(-3.52501e-15 -4.52546 1.90688)
(-2.87756e-15 -5.36115 2.16833)
(-2.1222e-15 -5.85826 2.45053)
(-1.37724e-15 -5.2699 2.99238)
(-3.56139e-15 -1.37992 4.33543)
(-6.87425e-15 1.62713 5.90012)
(-6.10814e-15 2.56187 6.23713)
(-5.29829e-15 3.91199 6.68935)
(-4.79932e-15 5.73789 6.92241)
(-3.8712e-15 7.41968 6.96045)
(-1.10283e-15 7.04861 7.13092)
(4.56445e-15 0.568178 6.02075)
(7.19317e-15 -6.00993 2.84856)
(7.10553e-15 -7.93426 1.83282)
(7.31486e-15 -7.39428 1.7359)
(5.81435e-15 -6.17443 0.622733)
(3.94444e-15 -3.93027 -0.263153)
(3.68685e-15 -0.280006 -4.03463)
(1.49561e-15 2.74832 -1.98052)
(-3.48785e-15 -4.58322 1.96623)
(-2.81123e-15 -5.46893 2.23922)
(-2.0216e-15 -6.04328 2.52141)
(-1.33093e-15 -5.6242 3.10028)
(-3.48954e-15 -2.04819 4.53036)
(-6.32698e-15 1.24867 6.34444)
(-5.39535e-15 2.37588 6.66801)
(-4.60457e-15 3.79208 6.99225)
(-4.23249e-15 5.68461 7.17756)
(-3.43293e-15 7.37682 7.26901)
(-7.38695e-16 7.09876 7.66043)
(4.92191e-15 1.38161 7.30201)
(7.87081e-15 -5.18027 4.59761)
(7.50543e-15 -7.57127 2.9085)
(7.12734e-15 -7.23244 2.80368)
(5.48603e-15 -5.77608 1.81352)
(3.53665e-15 -2.90713 0.539557)
(2.15865e-15 0.333439 -2.46455)
(1.56029e-15 -3.85604 5.62664)
(-3.44824e-15 -4.64267 2.01783)
(-2.74384e-15 -5.57709 2.29426)
(-1.9331e-15 -6.22718 2.56179)
(-1.25713e-15 -6.00661 3.13585)
(-3.2018e-15 -2.77486 4.60924)
(-5.73183e-15 0.855051 6.6585)
(-4.74101e-15 2.24622 6.92322)
(-3.93237e-15 3.71561 7.08444)
(-3.70404e-15 5.62607 7.24701)
(-3.08989e-15 7.26024 7.41314)
(-4.86293e-16 6.97422 8.03432)
(5.41529e-15 1.88504 8.36222)
(8.21002e-15 -4.39974 6.30981)
(7.68439e-15 -7.09484 4.44577)
(6.74641e-15 -7.03159 3.88962)
(4.94633e-15 -5.23314 3.01281)
(3.8691e-15 -2.34831 2.91503)
(4.70978e-15 -1.87467 7.53596)
(4.65925e-15 -3.26611 9.59946)
(-3.40643e-15 -4.70211 2.06)
(-2.67715e-15 -5.68075 2.33177)
(-1.85661e-15 -6.39885 2.56933)
(-1.16451e-15 -6.39193 3.09455)
(-2.84441e-15 -3.53764 4.52995)
(-5.17842e-15 0.425968 6.75777)
(-3.99259e-15 2.1616 6.99452)
(-3.29754e-15 3.66831 7.00227)
(-3.16626e-15 5.55484 7.16596)
(-2.81733e-15 7.07677 7.41279)
(-5.47184e-16 6.70023 8.25094)
(5.69818e-15 2.1126 9.16702)
(8.0252e-15 -3.73518 7.71199)
(7.43395e-15 -6.50122 5.87731)
(5.41853e-15 -6.73206 4.93247)
(4.19039e-15 -5.40803 4.86468)
(3.223e-15 -4.17824 7.73228)
(3.74534e-15 -3.22073 11.4954)
(3.59722e-15 -2.04688 8.3665)
(-3.3628e-15 -4.75992 2.09171)
(-2.61269e-15 -5.77527 2.35151)
(-1.79438e-15 -6.54727 2.54588)
(-1.06992e-15 -6.75121 2.98248)
(-2.39761e-15 -4.29901 4.28902)
(-4.53483e-15 -0.0549178 6.62443)
(-3.68644e-15 2.12169 6.89885)
(-2.73781e-15 3.64447 6.77119)
(-2.63202e-15 5.46652 6.94511)
(-2.51359e-15 6.82894 7.27265)
(-1.18805e-15 6.29119 8.31028)
(2.88298e-15 2.12994 9.78093)
(7.07407e-15 -3.14711 8.77351)
(6.6307e-15 -5.90983 7.04641)
(4.56852e-15 -6.66995 6.25011)
(3.57184e-15 -6.21485 7.24598)
(6.02724e-15 -4.94989 10.223)
(1.1256e-14 -2.16881 10.6485)
(1.25978e-14 -0.0628398 6.02577)
(-3.31774e-15 -4.81469 2.11299)
(-2.55101e-15 -5.85698 2.35498)
(-1.74587e-15 -6.66342 2.49772)
(-9.83709e-16 -7.05773 2.81741)
(-1.8965e-15 -5.02555 3.90438)
(-3.63449e-15 -0.603633 6.27036)
(-2.76292e-15 2.10822 6.64798)
(-2.24138e-15 3.6384 6.39915)
(-2.17979e-15 5.36115 6.58448)
(-2.20606e-15 6.5218 6.99541)
(-1.09972e-15 5.7374 8.19767)
(2.01398e-15 1.91065 10.2895)
(4.65099e-15 -2.66309 9.95482)
(4.83568e-15 -5.44745 8.52253)
(3.96931e-15 -6.83493 8.1995)
(4.43649e-15 -7.03308 9.69143)
(6.16207e-15 -5.73128 12.2189)
(2.99703e-15 -2.51481 12.9044)
(-1.93305e-15 0.943565 10.6796)
(-3.27147e-15 -4.86532 2.12504)
(-2.49098e-15 -5.92392 2.34552)
(-1.70629e-15 -6.74242 2.43452)
(-9.12489e-16 -7.28925 2.62611)
(-1.42217e-15 -5.68471 3.41353)
(-2.92127e-15 -1.19446 5.71267)
(-2.28154e-15 2.10808 6.24368)
(-1.78061e-15 3.64656 5.89285)
(-1.7659e-15 5.23818 6.09271)
(-1.96434e-15 6.16346 6.59338)
(-1.11497e-15 5.0268 7.87143)
(1.54235e-15 1.3474 10.5788)
(2.96181e-15 -2.46031 11.2742)
(3.40474e-15 -5.2078 10.4295)
(3.89878e-15 -7.14948 10.4926)
(4.21328e-15 -7.76245 11.7638)
(2.18037e-15 -5.93273 13.0972)
(-2.87782e-15 -0.888639 12.0267)
(-2.57623e-15 4.907 9.91733)
(-3.22393e-15 -4.91134 2.13001)
(-2.43031e-15 -5.97584 2.32735)
(-1.66884e-15 -6.78386 2.36648)
(-8.62759e-16 -7.43083 2.4376)
(-1.02704e-15 -6.23847 2.87927)
(-2.27825e-15 -1.81773 4.97265)
(-1.83377e-15 2.10393 5.68819)
(-1.37103e-15 3.6608 5.26733)
(-1.38932e-15 5.09632 5.49151)
(-1.74201e-15 5.77688 6.0888)
(-1.18256e-15 4.2096 7.27464)
(1.41127e-15 0.458893 10.3501)
(2.45628e-15 -2.60329 12.0013)
(2.68052e-15 -5.16345 11.8991)
(3.08709e-15 -7.36551 12.108)
(2.05589e-15 -8.01415 12.4875)
(-1.49792e-15 -5.82573 11.2529)
(-4.10387e-15 -1.85568 5.6502)
(-2.67121e-15 0.168302 1.46603)
(-3.17483e-15 -4.9522 2.13045)
(-2.367e-15 -6.0141 2.30527)
(-1.62799e-15 -6.79321 2.30299)
(-8.34219e-16 -7.48337 2.27569)
(-7.41003e-16 -6.65442 2.37809)
(-1.70326e-15 -2.44692 4.10769)
(-1.41173e-15 2.08537 4.98767)
(-1.00715e-15 3.6717 4.54218)
(-1.06399e-15 4.93368 4.81477)
(-1.53597e-15 5.39983 5.5151)
(-1.33971e-15 3.40582 6.40923)
(1.07216e-15 -0.615454 9.34469)
(1.9515e-15 -3.07088 11.5263)
(1.72382e-15 -5.28796 12.0346)
(1.29509e-15 -7.37989 12.1232)
(-5.14705e-16 -7.43177 11.3791)
(-3.25235e-15 -3.54864 7.81969)
(-3.37465e-15 2.22474 0.796609)
(-3.86692e-15 3.19152 -1.39496)
(-3.12353e-15 -4.98893 2.12883)
(-2.30019e-15 -6.04102 2.28251)
(-1.58184e-15 -6.77621 2.24925)
(-8.20299e-16 -7.45531 2.15193)
(-5.61564e-16 -6.90393 1.9741)
(-1.20873e-15 -3.02783 3.21313)
(-1.01027e-15 2.05771 4.1657)
(-6.89874e-16 3.66042 3.74743)
(-8.0605e-16 4.74033 4.11853)
(-1.34842e-15 5.06873 4.9063)
(-1.54378e-15 2.80603 5.37038)
(4.15487e-16 -1.60359 7.43492)
(1.23432e-15 -3.66085 9.8332)
(5.33623e-16 -5.41021 10.7367)
(-5.82883e-16 -7.05639 10.4904)
(-2.30427e-15 -6.26371 8.85368)
(-3.74993e-15 -1.46238 4.26763)
(-3.19586e-15 2.65374 -0.707586)
(-4.16203e-15 3.13077 -1.4348)
(-3.07046e-15 -5.01994 2.12698)
(-2.23125e-15 -6.05903 2.26372)
(-1.53209e-15 -6.74519 2.21139)
(-8.12255e-16 -7.37757 2.07177)
(-4.59766e-16 -7.00346 1.70104)
(-8.00433e-16 -3.52544 2.39471)
(-6.41126e-16 2.01801 3.26308)
(-4.23453e-16 3.59332 2.93904)
(-6.23065e-16 4.50326 3.48166)
(-1.1799e-15 4.80988 4.28921)
(-1.70453e-15 2.58464 4.38925)
(-4.90524e-16 -2.44272 5.07436)
(5.5319e-16 -4.38591 7.28487)
(-2.44432e-16 -5.57055 8.51048)
(-1.80534e-15 -6.57508 7.99774)
(-3.22022e-15 -4.96854 5.99485)
(-3.59785e-15 0.375634 1.4472)
(-3.45733e-15 3.8356 -1.82671)
(-4.68471e-15 3.70891 -1.87259)
(-3.01189e-15 -5.05052 2.12643)
(-2.15713e-15 -6.0723 2.24673)
(-1.47686e-15 -6.69907 2.18438)
(-7.9931e-16 -7.25102 2.0254)
(-3.99386e-16 -6.9387 1.55781)
(-4.79213e-16 -3.84984 1.75338)
(-3.22336e-16 1.99746 2.33286)
(-2.22798e-16 3.47984 2.2365)
(-5.09828e-16 4.24609 2.96488)
(-1.03617e-15 4.62145 3.6873)
(-1.71749e-15 2.7639 3.63968)
(-1.4872e-15 -2.71776 2.9662)
(-2.34222e-16 -4.96181 4.3924)
(-4.63903e-16 -5.66475 5.86898)
(-2.13165e-15 -5.96464 5.4664)
(-3.324e-15 -3.66109 3.49077)
(-2.39613e-15 1.57759 -1.07921)
(-3.72579e-15 4.19358 -2.74355)
(-4.99854e-15 3.45132 -2.05551)
(-2.96279e-15 -5.07022 2.12724)
(-2.09534e-15 -6.07953 2.24171)
(-1.43007e-15 -6.66379 2.18244)
(-7.85446e-16 -7.14953 2.02357)
(-3.61698e-16 -6.84357 1.52662)
(-2.50139e-16 -4.04697 1.30445)
(-7.60831e-17 2.06089 1.51761)
(-1.07657e-16 3.30579 1.7984)
(-4.43617e-16 3.98237 2.55839)
(-9.26824e-16 4.44467 3.14377)
(-1.60148e-15 2.99984 3.1589)
(-2.17405e-15 -3.01692 1.75864)
(-1.25194e-15 -5.58828 1.81217)
(-5.30227e-16 -6.07655 3.14905)
(-1.57895e-15 -5.60394 3.07523)
(-2.86863e-15 -2.35604 1.37471)
(-2.93158e-15 2.63617 -2.87566)
(-4.31258e-15 4.30357 -3.34366)
(-5.23002e-15 3.15257 -2.39122)
(-2.86113e-15 -5.10423 2.1289)
(-1.97354e-15 -6.09425 2.22449)
(-1.33234e-15 -6.60196 2.17222)
(-7.29984e-16 -6.96656 2.03087)
(-3.08206e-16 -6.5474 1.60645)
(-6.19174e-17 -3.96174 1.16126)
(6.48327e-17 1.77609 1.17662)
(-6.88203e-17 2.90264 1.60685)
(-4.01168e-16 3.6537 2.25148)
(-8.56646e-16 4.27233 2.73999)
(-1.47452e-15 3.57194 2.96292)
(-2.42816e-15 -2.37047 1.65456)
(-2.49192e-15 -5.29119 0.290421)
(-1.73949e-15 -6.0751 0.355562)
(-1.76891e-15 -5.18049 -0.0407283)
(-2.36873e-15 -1.10538 -1.26776)
(-3.36976e-15 3.20665 -3.76037)
(-4.69968e-15 3.97641 -3.63475)
(-5.33768e-15 2.65622 -2.62315)
(4.91212e-17 9.7255 16.7429)
(-4.34089e-15 18.0824 30.9526)
(-3.40802e-15 18.1282 29.8336)
(-3.6415e-15 16.0744 25.9316)
(-4.2568e-15 14.4576 22.6939)
(-5.92422e-15 13.3164 20.4167)
(-5.68201e-15 12.2975 18.4288)
(-4.84725e-15 11.4171 16.8691)
(-4.68037e-15 10.5332 15.2629)
(-4.13643e-15 9.57881 13.5908)
(-3.79244e-15 8.57984 11.8803)
(-3.50458e-15 7.55249 10.1431)
(-3.41444e-15 6.55549 8.46887)
(-3.86392e-15 5.73537 7.15347)
(-5.20444e-15 5.38779 6.69003)
(-7.08554e-15 5.76377 7.67243)
(-8.67665e-15 6.9449 9.99803)
(-9.06349e-15 8.19366 12.8277)
(-8.49703e-15 8.90397 14.2554)
(-9.8611e-15 6.70446 11.7595)
(-3.08071e-16 8.50941 14.1738)
(-3.82362e-15 16.8204 29.6327)
(-2.23855e-15 16.3864 28.3662)
(-3.13327e-15 14.1553 24.4256)
(-3.73538e-15 12.4711 21.3881)
(-5.72956e-15 11.3605 19.2693)
(-5.04468e-15 10.5591 17.7738)
(-4.54663e-15 9.90607 16.4161)
(-5.27933e-15 9.28978 15.1748)
(-5.38729e-15 8.72739 13.9696)
(-6.82025e-15 8.18558 12.7709)
(-7.63226e-15 7.65462 11.5454)
(-7.79763e-15 7.1225 10.2613)
(-7.65753e-15 6.60283 8.97498)
(-8.50736e-15 6.2293 7.95493)
(-9.14598e-15 6.15402 7.63017)
(-9.60772e-15 6.40798 8.18233)
(-9.18457e-15 6.75558 9.26819)
(-9.03835e-15 6.60071 9.95632)
(-1.13547e-14 4.70811 7.40215)
(7.81565e-18 7.92903 13.5599)
(-1.01095e-15 17.5583 30.5801)
(-7.087e-16 17.8244 30.8132)
(-9.05638e-16 15.7208 26.7205)
(-9.7228e-16 13.9102 23.4738)
(-2.184e-15 12.831 21.2358)
(-1.64104e-15 11.9941 19.5909)
(-1.43972e-15 11.3046 18.1247)
(-1.5418e-15 10.6288 16.739)
(-1.92098e-15 9.96812 15.3972)
(-2.27835e-15 9.31577 14.0971)
(-2.70696e-15 8.66709 12.825)
(-3.01008e-15 8.01552 11.5608)
(-3.29171e-15 7.35856 10.2834)
(-3.57352e-15 6.69384 9.01158)
(-4.04662e-15 6.07727 7.8535)
(-4.78442e-15 5.50578 7.01755)
(-5.62258e-15 5.0593 6.48451)
(-5.76172e-15 4.1931 5.95388)
(-8.44374e-15 2.2194 2.63935)
(9.94325e-18 7.88395 13.1828)
(2.43319e-16 18.04 30.6701)
(1.73134e-16 18.3756 31.3851)
(2.18716e-16 16.1189 27.1154)
(2.68906e-16 14.2228 23.9104)
(-1.40276e-15 13.1734 21.7722)
(-1.22053e-15 12.3168 20.1778)
(-1.31953e-15 11.5674 18.6572)
(-1.42947e-15 10.8021 17.1725)
(-1.50748e-15 10.0429 15.7073)
(-1.73172e-15 9.28328 14.2769)
(-2.14728e-15 8.52465 12.885)
(-2.22189e-15 7.75867 11.5299)
(-2.88356e-15 6.98819 10.1942)
(-3.37182e-15 6.18148 8.86343)
(-3.95829e-15 5.36437 7.49336)
(-4.69937e-15 4.43218 6.11748)
(-5.65075e-15 3.51116 4.60404)
(-6.61798e-15 1.94141 2.79411)
(-1.84028e-14 0.046272 -1.32173)
(-3.26977e-18 9.75106 16.2301)
(-6.77683e-17 19.2966 31.8142)
(-5.39756e-17 19.0109 31.816)
(-5.75115e-17 16.8651 27.6566)
(-9.44195e-17 15.0998 24.7695)
(2.46973e-16 14.1772 22.7491)
(3.45796e-16 13.349 21.1712)
(3.43654e-16 12.6168 19.6109)
(3.65892e-16 11.8476 18.0532)
(4.10755e-16 11.0521 16.4618)
(4.83358e-16 10.2117 14.8433)
(5.92068e-16 9.32362 13.2038)
(6.79853e-16 8.38615 11.5602)
(7.70755e-16 7.41081 9.92036)
(8.50686e-16 6.37445 8.294)
(9.4404e-16 5.29918 6.63324)
(1.08229e-15 4.05966 4.91213)
(1.29587e-15 2.77107 2.91482)
(1.97336e-15 0.694236 0.470692)
(-4.69047e-15 -0.817183 -3.23377)
(3.43339e-19 13.0203 22.0984)
(1.72603e-17 20.8868 33.793)
(1.58037e-17 18.9681 31.6752)
(1.47651e-17 17.2217 27.9135)
(2.85162e-17 15.7632 25.7655)
(-5.08752e-17 15.1164 24.0095)
(-9.71876e-17 14.3489 22.5486)
(-9.88273e-17 13.7036 20.9792)
(-9.84311e-17 12.9243 19.3321)
(-1.05112e-16 12.0566 17.5238)
(-1.20621e-16 11.0609 15.6015)
(-1.40538e-16 9.97022 13.5951)
(-1.53225e-16 8.79223 11.5415)
(-1.5815e-16 7.53927 9.44842)
(-1.53048e-16 6.18451 7.32949)
(-1.40601e-16 4.74703 5.13972)
(-1.27163e-16 3.07745 2.89805)
(-8.19673e-17 1.40817 0.384505)
(1.65541e-16 -1.20154 -2.41018)
(3.53943e-16 -2.2089 -6.03524)
(1.59222e-21 16.2973 28.7209)
(-3.7895e-18 21.1229 34.4149)
(-3.76636e-18 17.7452 30.8143)
(-3.32804e-18 16.943 28.2115)
(-6.56647e-18 15.7272 26.9531)
(1.11978e-17 15.3449 25.5139)
(2.23501e-17 14.5454 24.3185)
(2.29839e-17 13.9312 22.7823)
(2.22724e-17 12.9208 20.9716)
(2.28353e-17 11.7487 18.7645)
(2.46559e-17 10.3494 16.3921)
(2.64138e-17 8.87245 13.9223)
(2.65703e-17 7.29134 11.3933)
(2.47822e-17 5.60608 8.76571)
(1.90379e-17 3.77727 6.02483)
(4.8391e-18 1.83389 3.16144)
(-1.59214e-17 -0.553586 0.0627916)
(-9.70375e-17 -1.80544 -2.98192)
(-1.79048e-16 -4.14195 -5.11101)
(1.24145e-15 -3.82646 -9.00304)
(-5.09585e-21 17.2667 31.3974)
(8.10675e-19 18.9766 31.9262)
(7.79612e-19 15.9985 29.2511)
(8.01968e-19 15.6811 27.6144)
(1.01901e-18 14.3694 26.6234)
(-3.238e-18 13.8753 25.3735)
(-5.10407e-18 12.8591 24.3363)
(-5.07574e-18 11.9352 22.6909)
(-4.96511e-18 10.3813 20.498)
(-4.857e-18 8.68417 17.7775)
(-4.51786e-18 6.8184 15.0112)
(-3.56041e-18 5.00853 12.231)
(-1.09834e-18 3.12462 9.40492)
(3.10792e-18 1.1959 6.44706)
(1.39154e-18 -0.721072 3.44146)
(-2.05195e-17 -2.30552 0.930717)
(-4.39683e-17 -3.38937 -0.958086)
(5.36871e-18 -4.59604 -3.49898)
(2.11973e-16 -5.31306 -5.51479)
(5.12524e-16 -2.54889 -3.40172)
(-4.16523e-21 15.7281 28.7342)
(-1.53585e-19 17.2139 29.7535)
(-1.50192e-19 14.8042 27.3386)
(-1.47601e-19 14.0062 25.3772)
(3.11032e-20 12.6107 24.2711)
(8.3709e-19 11.8285 22.983)
(1.01097e-18 10.6034 21.85)
(8.56708e-19 9.33635 20.1243)
(7.05034e-19 7.5624 17.8561)
(7.2489e-19 5.69364 15.1794)
(9.05654e-19 3.79053 12.5132)
(7.44342e-19 1.98601 9.9045)
(-7.59659e-19 0.253343 7.39416)
(-4.77486e-18 -1.25015 5.12807)
(-1.21949e-17 -2.35877 3.28527)
(-2.21991e-17 -2.85042 2.08069)
(-2.87416e-17 -2.20879 2.30108)
(-2.19724e-17 0.252623 4.87631)
(-4.73527e-18 3.8859 8.99214)
(-3.57501e-18 4.58827 9.79227)
(1.36711e-21 14.3591 25.9286)
(2.54232e-20 17.1407 29.1603)
(2.42523e-20 14.3962 25.9886)
(1.67523e-20 13.5448 23.2889)
(-3.75426e-20 12.0123 21.9562)
(-1.58147e-19 11.2817 20.1965)
(-1.57531e-19 9.99337 18.8116)
(-1.26658e-19 8.93431 17.0581)
(-6.03234e-20 7.53155 15.1202)
(2.11942e-19 6.1656 12.8599)
(8.30299e-19 4.788 10.5557)
(1.15734e-18 3.57808 8.33062)
(-1.0257e-18 2.61619 6.42858)
(-7.88712e-18 2.1538 5.25569)
(-1.68004e-17 2.50304 5.401)
(-1.99862e-17 3.85072 7.20246)
(-1.33985e-17 5.88214 10.1253)
(-2.05655e-18 7.73718 12.9343)
(5.44699e-18 8.76787 14.0373)
(4.21823e-18 6.36596 11.5742)
(-1.9269e-22 14.2132 25.5638)
(-3.52174e-21 17.9825 29.8114)
(-3.00172e-21 15.0249 26.6608)
(-1.4423e-21 14.3839 23.5146)
(6.78569e-21 12.8399 22.1074)
(2.33219e-20 12.3322 20.1594)
(2.04115e-20 11.2096 18.6554)
(1.18578e-20 10.476 16.9809)
(-1.43648e-22 9.62561 15.5102)
(-2.60857e-20 8.94108 14.0643)
(-6.13442e-20 8.30062 12.6694)
(-6.06469e-20 7.74275 11.2887)
(6.09197e-20 7.25032 9.93088)
(3.41332e-19 6.83293 8.66491)
(7.10867e-19 6.53245 7.63731)
(1.21944e-18 6.38339 7.14828)
(2.3456e-18 6.43492 7.35193)
(4.09481e-18 6.39243 7.99902)
(4.95541e-18 5.81979 8.09601)
(2.39436e-18 3.79156 5.85252)
(2.8846e-23 14.7426 26.5985)
(3.39704e-22 18.8354 30.7416)
(1.60399e-22 15.5382 27.5776)
(-6.83776e-23 15.1306 24.4936)
(-7.82111e-22 13.5903 23.1305)
(-2.0594e-21 13.1616 21.2402)
(-9.55393e-22 12.1686 19.7677)
(9.55292e-22 11.4852 18.1356)
(4.27449e-21 10.7189 16.628)
(8.31519e-21 10.0225 15.163)
(3.05576e-21 9.35507 13.7657)
(-2.44028e-20 8.70562 12.4208)
(-6.53981e-20 8.06379 11.1091)
(-7.44446e-20 7.41083 9.81418)
(1.83145e-20 6.71705 8.51781)
(2.62821e-19 5.97832 7.22029)
(5.96941e-19 5.13403 5.99271)
(8.04205e-19 4.24881 4.7997)
(5.51829e-19 2.84025 3.44331)
(-1.18192e-19 1.04408 0.315219)
(-5.40582e-24 15.6101 28.5638)
(-2.04744e-24 19.4153 31.1202)
(5.23838e-23 15.6895 28.2699)
(9.1183e-23 15.8293 25.3632)
(5.54939e-23 14.0599 24.1665)
(-9.05737e-23 13.8143 22.19)
(-4.52416e-22 12.7176 20.7936)
(-8.12044e-22 12.1234 19.1574)
(-1.431e-21 11.3455 17.6974)
(-1.99466e-21 10.664 16.1933)
(1.08243e-22 9.94563 14.6904)
(7.47124e-21 9.19297 13.1372)
(1.54141e-20 8.36245 11.5198)
(7.74244e-21 7.43814 9.82581)
(-3.79912e-20 6.38971 8.07305)
(-1.33899e-19 5.25534 6.24775)
(-2.66445e-19 3.92609 4.35743)
(-4.23236e-19 2.53158 2.21132)
(-6.1822e-19 0.363118 -0.18293)
(-8.11769e-19 -0.894698 -3.74928)
(8.55496e-25 16.5289 31.0059)
(-9.96093e-24 19.5928 30.9349)
(-1.70663e-23 15.683 28.9931)
(-8.46006e-24 16.4548 26.2845)
(1.65937e-23 14.3332 25.2975)
(2.18645e-23 14.3677 23.2601)
(-1.85969e-23 13.0967 22.0222)
(-3.07007e-23 12.6711 20.4197)
(4.12848e-23 11.8719 19.0982)
(-2.10201e-22 11.2793 17.6572)
(-1.70223e-21 10.5511 16.1626)
(-4.72059e-21 9.71256 14.4299)
(-7.21894e-21 8.64228 12.411)
(-4.14808e-21 7.35289 10.1177)
(1.01312e-20 5.86822 7.67733)
(3.37751e-20 4.30599 5.1375)
(5.68981e-20 2.49538 2.56133)
(4.57175e-20 0.780065 -0.267761)
(-1.19555e-19 -1.89917 -3.11778)
(-9.35459e-19 -2.54927 -6.73942)
(-2.56223e-25 16.85 32.4305)
(2.86984e-24 19.1724 30.129)
(9.71976e-24 15.3963 29.2581)
(9.98431e-24 16.4452 26.6341)
(-4.48896e-23 14.0379 25.7915)
(-1.7122e-22 14.1974 23.7749)
(-2.51466e-22 12.7414 22.7)
(-1.76944e-22 12.3899 21.184)
(-2.07876e-22 11.4758 20.0203)
(-1.01768e-21 10.8623 18.6363)
(-3.15286e-21 9.9463 17.0899)
(-6.71892e-21 8.82417 15.0402)
(-1.05815e-20 7.32848 12.4803)
(-8.47012e-21 5.64014 9.59848)
(9.86669e-21 3.90602 6.70548)
(3.70633e-20 2.18965 3.78049)
(4.12554e-20 0.100351 0.762031)
(6.83445e-20 -0.890819 -2.18771)
(6.13045e-20 -3.74221 -4.6335)
(-9.40803e-19 -3.78048 -8.68848)
(-1.39301e-25 16.348 32.104)
(2.73087e-25 18.6113 29.2355)
(4.52743e-24 14.9191 28.7081)
(-2.35868e-24 15.8201 26.1318)
(-5.78519e-23 13.5099 25.241)
(-1.51135e-22 13.4075 23.3546)
(-1.5321e-22 12.0403 22.2259)
(-1.178e-23 11.4755 20.8075)
(-1.59081e-22 10.5268 19.6314)
(-1.49987e-21 9.74075 18.2707)
(-4.85665e-21 8.67755 16.6601)
(-1.0433e-20 7.39566 14.529)
(-1.45982e-20 5.87259 11.9789)
(-3.01507e-21 4.35732 9.31856)
(3.87944e-20 2.88571 6.66146)
(8.52999e-20 1.22934 3.74619)
(7.6043e-20 -0.744803 0.335774)
(-7.64618e-21 -2.89751 -3.46615)
(-2.30414e-19 -4.83114 -6.20189)
(-5.78885e-19 -3.38032 -5.65466)
(-6.19796e-27 15.4094 31.0982)
(1.22437e-24 18.2558 28.2241)
(3.62441e-24 14.1336 27.7647)
(-9.49238e-24 15.1457 25.154)
(-6.53636e-23 12.8722 24.2326)
(-1.32744e-22 12.6326 22.401)
(-9.00516e-23 11.3708 21.1904)
(8.97452e-23 10.6942 19.7839)
(7.55444e-23 9.7931 18.5572)
(-7.86258e-22 8.99769 17.2552)
(-3.26157e-21 8.09227 15.8446)
(-8.01411e-21 7.11983 14.2014)
(-1.34683e-20 6.08311 12.3416)
(-1.10906e-20 4.99405 10.2546)
(1.291e-20 3.6812 7.70867)
(5.41799e-20 1.96252 4.4412)
(5.63068e-20 0.147397 0.986192)
(-3.15035e-20 -1.14926 -1.49428)
(-1.68526e-19 -1.48074 -1.86597)
(-1.85491e-19 0.390267 2.04726)
(4.43618e-26 14.1533 30.5993)
(1.2479e-24 18.014 27.3449)
(2.13143e-24 13.2462 27.2542)
(-1.1019e-23 14.2489 24.815)
(-5.43865e-23 12.1191 23.8609)
(-9.57718e-23 11.685 22.212)
(-3.11032e-23 10.5558 20.9754)
(1.99009e-22 9.83146 19.6323)
(4.28148e-22 9.01651 18.4124)
(2.45253e-22 8.31227 17.2004)
(-8.32135e-22 7.61516 16.0038)
(-3.22478e-21 6.93701 14.7389)
(-6.97527e-21 6.21362 13.3069)
(-1.0308e-20 5.37339 11.5567)
(-7.47082e-21 4.31986 9.32012)
(8.90896e-21 2.96174 6.4205)
(3.42113e-20 1.29114 2.72833)
(3.77306e-20 -0.545448 -1.48112)
(-1.64811e-20 -1.43812 -3.29781)
(-1.30225e-20 -0.414975 -1.38468)
(7.60518e-26 11.2023 28.6016)
(6.23595e-25 17.0387 24.9327)
(4.51648e-25 11.9909 25.3272)
(-7.5145e-24 12.6758 23.5891)
(-3.10965e-23 10.9372 22.8294)
(-4.94009e-23 10.2887 21.7192)
(1.41963e-23 9.30518 20.7855)
(2.44116e-22 8.54605 19.8202)
(6.14781e-22 7.79393 18.9025)
(9.494e-22 7.12806 18.002)
(1.0481e-21 6.50738 17.1154)
(7.78913e-22 5.92513 16.2041)
(-3.15165e-23 5.35416 15.2212)
(-1.43652e-21 4.7761 14.1025)
(-2.49496e-21 4.16371 12.7457)
(-8.26758e-22 3.4472 10.9985)
(5.41043e-21 2.54518 8.63939)
(1.4179e-20 1.43052 5.31573)
(2.03342e-20 -0.0613148 0.905705)
(2.03183e-20 -1.35055 -2.84078)
(5.20752e-26 2.61309 17.0884)
(1.83548e-25 8.04486 13.6806)
(-2.44769e-25 5.17055 14.5363)
(-2.59273e-24 4.98405 14.1447)
(-7.43569e-24 4.06722 14.1054)
(-9.05924e-24 3.50901 13.9329)
(1.40712e-23 2.94225 13.7771)
(1.03504e-22 2.48049 13.5872)
(3.04471e-22 2.07912 13.374)
(6.28313e-22 1.74818 13.1307)
(1.02566e-21 1.48426 12.8613)
(1.4028e-21 1.29318 12.572)
(1.64994e-21 1.1789 12.2694)
(1.62192e-21 1.15232 11.9512)
(1.13748e-21 1.22813 11.6038)
(1.68328e-22 1.37153 11.2283)
(-8.7752e-22 1.60207 10.7608)
(-1.28867e-21 2.1847 9.87603)
(-8.02399e-22 2.32487 8.48292)
(-6.89017e-23 -0.257413 6.26583)
(-5.94264e-26 -2.61311 17.0884)
(-1.84399e-25 -8.04485 13.6806)
(3.62214e-25 -5.17054 14.5364)
(3.01196e-24 -4.98402 14.1448)
(7.98679e-24 -4.06718 14.1055)
(8.13332e-24 -3.50895 13.9331)
(-2.11351e-23 -2.94217 13.7772)
(-1.2541e-22 -2.48037 13.5874)
(-3.52329e-22 -2.07897 13.3741)
(-7.10315e-22 -1.74798 13.1309)
(-1.14082e-21 -1.48405 12.8615)
(-1.53948e-21 -1.29298 12.5721)
(-1.79018e-21 -1.17871 12.2696)
(-1.74343e-21 -1.15211 11.9514)
(-1.20845e-21 -1.22788 11.604)
(-1.49391e-22 -1.37121 11.2285)
(1.00681e-21 -1.60166 10.761)
(1.49227e-21 -2.18416 9.87621)
(9.77367e-22 -2.32441 8.48275)
(1.05268e-22 0.257431 6.26552)
(-9.45389e-26 -11.2024 28.6019)
(-6.42753e-25 -17.0389 24.933)
(-4.88171e-26 -11.9911 25.3275)
(9.3323e-24 -12.6761 23.5893)
(3.39089e-23 -10.9375 22.8296)
(4.59564e-23 -10.2891 21.7195)
(-4.35379e-23 -9.30561 20.7858)
(-3.26887e-22 -8.54655 19.8204)
(-7.6615e-22 -7.79451 18.9027)
(-1.15156e-21 -7.12869 18.0022)
(-1.25538e-21 -6.50803 17.1154)
(-9.4504e-22 -5.92576 16.2039)
(-5.6635e-23 -5.35484 15.2209)
(1.45871e-21 -4.77695 14.1024)
(2.59569e-21 -4.16481 12.7461)
(7.47362e-22 -3.44845 10.9994)
(-6.32217e-21 -2.54584 8.64041)
(-1.70207e-20 -1.42862 5.31392)
(-2.63267e-20 0.0684766 0.897095)
(-2.82556e-20 1.35775 -2.85062)
(-7.51322e-26 -14.1532 30.5992)
(-1.30869e-24 -18.0142 27.3445)
(-1.41621e-24 -13.2462 27.2538)
(1.41956e-23 -14.2492 24.8144)
(5.88928e-23 -12.1193 23.8602)
(8.93462e-23 -11.6854 22.2111)
(-1.32257e-23 -10.5563 20.9745)
(-3.05609e-22 -9.83214 19.6311)
(-5.83349e-22 -9.01732 18.4111)
(-3.78529e-22 -8.3133 17.199)
(8.26109e-22 -7.61645 16.0025)
(3.4501e-21 -6.93859 14.7378)
(7.51281e-21 -6.21545 13.306)
(1.1132e-20 -5.37567 11.5565)
(8.16647e-21 -4.32337 9.32206)
(-9.55552e-21 -2.9677 6.42648)
(-3.82761e-20 -1.30001 2.73972)
(-4.73039e-20 0.536675 -1.47113)
(4.10454e-21 1.43345 -3.29409)
(-1.50918e-21 0.418756 -1.39871)
(-3.15632e-26 -15.4086 31.0967)