/*--------------------------------*- C++ -*----------------------------------*\
| =========                 |                                                 |
| \\      /  F ield         | OpenFOAM: The Open Source CFD Toolbox           |
|  \\    /   O peration     | Version:  4.1                                   |
|   \\  /    A nd           | Web:      www.OpenFOAM.org                      |
|    \\/     M anipulation  |                                                 |
\*---------------------------------------------------------------------------*/
FoamFile
{
    version     2.0;
    format      ascii;
    class       volScalarField;
    location    "21";
    object      p;
}
// * * * * * * * * * * * * * * * * * * * * * * * * * * * * * * * * * * * * * //

dimensions      [0 2 -2 0 0 0 0];

internalField   nonuniform List<scalar> 
1280
(
5207.14
-4500.82
-866.281
-1457.55
-322.348
-594.483
-540.637
-427.537
-258.525
-371.132
-276.468
-110.607
-180.941
-158.162
-38.3363
-112.294
-121.61
-57.4853
-110.941
-136.162
-166.04
-166.375
-161.51
-160.576
-158.427
-149.419
-126.915
-117.204
-117.5
-117.392
-116.838
-115.901
-114.528
-112.788
-110.707
-107.992
-104.074
-100.448
-99.348
-98.481
-97.1147
-71.1219
-77.1255
-85.585
-84.4688
-80.7266
-92.8646
-102.328
-103.886
-101.496
-119.886
-123.409
-123.732
-136.839
-143.134
-144.491
-149.642
-157.86
-160.146
-161.669
-183.708
-186.353
-186.98
-187.886
-189.548
-191.53
-193.919
-197.003
-201.282
-206.773
-213.834
-221.862
-232.626
-326.91
-360.187
-378.298
-392.66
-411.93
-435.916
-450.623
-456.974
-454.806
-472.548
-470.285
-471.371
-481.928
-478.594
-479.115
-477.346
-474.262
-473.775
-477.169
-502.083
-516.631
-534.186
-504.314
-1922.14
-1176.92
76.7093
142.462
68893.3
-9915.62
-17561.1
-686.577
-2504.94
-654.61
-233.729
429.752
507.61
586.979
337.276
143.792
-13.8269
179.32
1046.5
649.315
297.002
474.328
-2250.42
-49448.5
-1810.4
-8363.85
-815.77
-968.155
-349.949
-457.354
-334.51
-215.423
-235.847
-230.232
-195.439
-207.626
-100.145
-686.702
-320.297
-151.174
32.5065
-384.162
-1105.07
-8140.72
136.096
-519.237
-357.86
-448.52
-509.122
-126.868
18.4593
70.2586
-15.8687
-31.4544
-111.104
70.0987
284.336
-94.8494
-41.627
-103.741
-537.223
-13450.6
-9226.72
-3331.87
377.384
-529.694
-520.879
-649.772
-298.8
-142.523
-103.025
-163.276
-164.288
-200.793
-81.4104
63.6477
-149.358
-142.849
-119.546
-432.213
-4525.31
-5717.2
-1275.72
164.297
-512.629
-490.269
-708.924
-287.952
-104.66
-50.9128
-127.137
-140.69
-156.269
-109.844
-119.122
-160.979
-200.394
-180.287
-464.536
-5289.78
-5618.45
-406.255
-156.025
-419.32
-470.522
-756.289
-323.893
-121.937
-82.4769
-169.291
-190.012
-204.235
-120.74
-99.3475
-223.925
-275.585
-249.202
-497.615
-2178.96
-4033.86
92.5094
-227.869
-402.119
-425.562
-713.727
-298.831
-88.9819
-63.0931
-174.736
-208.911
-233.35
-162.206
-143.721
-280.08
-326.321
-292.506
-298.555
-1127.33
-2763.31
653.871
-225.542
-373.297
-375.578
-620.371
-261.923
-58.3286
-50.4481
-190.902
-251.423
-272.686
-207.673
-207.886
-329.469
-369.165
-337.123
-252.724
25.1715
-1917.19
1238.07
-176.019
-309.81
-314.597
-504.377
-235.911
-41.1696
-17.5532
-193.515
-286.195
-309.28
-239.767
-245.001
-366.938
-395.29
-359.14
-200.611
519.771
-1290.33
1861.6
41.9897
-147.326
-95.2345
-359.132
-271.598
-83.2012
18.4299
-195.809
-321.552
-337.073
-256.663
-264.412
-381.716
-398.617
-371.751
-186.417
670.354
-1063.2
2183.97
229.138
19.2321
104.39
-248.943
-287.729
-110.287
-3.81014
-199.895
-343.907
-346.31
-253.847
-271.274
-372.218
-387.994
-367.577
-157.005
531.932
-1355.91
2020.74
118.802
8.15337
171.728
-193.063
-224.615
-125.123
-56.3128
-195.062
-344.813
-328.076
-230.879
-262.527
-350.807
-363.886
-352.078
-124.688
-385.545
-2279.22
1441.83
-44.4279
-39.2111
145.157
-172.789
-158.705
-124.528
-85.7222
-180.081
-314.589
-278.901
-193.198
-238.221
-319.666
-326.786
-329.606
-123.167
-1296.89
-3174.89
837.827
-143.769
-97.5693
104.144
-160.971
-140.498
-124.582
-93.9562
-156.713
-258.308
-210.104
-147.069
-201.89
-278.817
-277.758
-298.177
-17.9882
-4067.41
-4883.29
-6.73693
-196.736
-180.229
50.2213
-158.08
-122.994
-120.488
-95.0921
-133.51
-196.061
-142.916
-101.411
-160.108
-237.297
-223.498
-270.163
69.4168
-3555.46
-5579.05
-917.949
-164.819
-287.61
0.251919
-163.939
-119.32
-124.005
-99.2213
-120.809
-151.256
-90.3328
-60.6474
-116.727
-181.16
-166.051
-268.64
99.8433
-12949.3
-8225.38
-2744
-411.588
-387.553
-14.3562
-159.204
-110.662
-112.97
-89.81
-100.035
-118.144
-63.7311
-32.8979
-72.2858
-133.674
-120.492
-302.476
45.6171
531.937
-7386.77
-181.879
-1307.41
-553.658
-90.3125
-119.028
-81.7168
-82.3132
-62.1214
-59.5792
-67.3529
-47.0367
-11.1366
-39.4503
-41.1456
-24.3038
-448.678
28.6783
-50439.3
-3877.33
-9161.55
-1006.73
-649.043
-218.415
-222.478
-161.523
-155.524
-126.516
-112.766
-87.5469
-40.979
-0.440307
-10.0443
-70.3118
-55.0622
-344.788
-63.7415
78752.9
-12248.1
-17557.5
-341.379
-1408.26
-441.333
-337.909
-260.499
-238.661
-200.564
-180.298
-137.711
-57.7579
-16.3389
-31.6756
29.4467
-30.9805
-633.049
142.713
-63.96
-61.7001
-59.552
-57.981
-56.3963
-55.0236
-54.2144
-53.982
-53.3421
-53.0249
-52.7614
-52.6786
-52.7502
-53.0036
-53.4548
-54.1399
-55.1993
-56.9002
-58.6184
-59.2095
-67.1137
-67.4641
-67.1932
-67.0949
-66.769
-66.4381
-66.0089
-65.6749
-65.3661
-65.0788
-64.846
-64.6708
-64.5707
-64.5698
-64.684
-64.9562
-65.5115
-66.2391
-66.66
-67.1923
-54.4213
-54.693
-54.7175
-54.8082
-54.799
-54.7769
-54.6865
-54.5661
-54.3991
-54.2102
-53.9815
-53.7359
-53.4595
-53.1743
-52.869
-52.5598
-52.2357
-51.8702
-51.2886
-51.7194
-57.3053
-57.3011
-57.2382
-57.2307
-57.1737
-57.1373
-57.0684
-57.0027
-56.9105
-56.8125
-56.6901
-56.5575
-56.3979
-56.2276
-56.0223
-55.8154
-55.5601
-55.285
-54.7893
-54.4925
-53.9475
-54.0712
-54.0913
-54.1666
-54.1969
-54.2431
-54.2641
-54.2896
-54.297
-54.3043
-54.2962
-54.2868
-54.2613
-54.2368
-54.1913
-54.1537
-54.0822
-54.0425
-53.8967
-53.8087
-54.18
-54.2227
-54.219
-54.2535
-54.2601
-54.2849
-54.2929
-54.3103
-54.3162
-54.3268
-54.3282
-54.3325
-54.3269
-54.3264
-54.311
-54.3078
-54.2796
-54.2787
-54.224
-54.2034
-53.0521
-53.1281
-53.1466
-53.2022
-53.2297
-53.2752
-53.3049
-53.3439
-53.3735
-53.4079
-53.4356
-53.4669
-53.4911
-53.5212
-53.5397
-53.5713
-53.5812
-53.619
-53.613
-53.6545
-52.6176
-52.6756
-52.6888
-52.7344
-52.7557
-52.7946
-52.8198
-52.8544
-52.8814
-52.9133
-52.9405
-52.9711
-52.9968
-53.028
-53.0501
-53.0844
-53.0998
-53.1413
-53.1449
-53.196
-51.9587
-52.0206
-52.0371
-52.085
-52.1095
-52.1507
-52.1791
-52.2163
-52.2466
-52.2813
-52.3122
-52.3458
-52.3758
-52.41
-52.437
-52.4745
-52.4953
-52.5402
-52.5497
-52.6071
-51.4333
-51.4899
-51.505
-51.5495
-51.5721
-51.6107
-51.6373
-51.6722
-51.7011
-51.7338
-51.7637
-51.7954
-51.8249
-51.8573
-51.8843
-51.92
-51.9413
-51.9844
-51.9949
-52.051
-50.8891
-50.9442
-50.9595
-51.0027
-51.0252
-51.0627
-51.089
-51.123
-51.1516
-51.1834
-51.213
-51.2437
-51.2732
-51.3043
-51.3317
-51.3658
-51.3878
-51.429
-51.4405
-51.4951
-50.3833
-50.4355
-50.4502
-50.4912
-50.5128
-50.5484
-50.5737
-50.606
-50.6334
-50.6636
-50.6922
-50.7211
-50.75
-50.779
-50.8062
-50.8378
-50.86
-50.8986
-50.9104
-50.9624
-49.8925
-49.9423
-49.9568
-49.9961
-50.017
-50.0511
-50.0755
-50.1065
-50.1329
-50.1617
-50.1895
-50.2168
-50.2451
-50.2721
-50.2992
-50.3283
-50.3508
-50.3866
-50.3989
-50.4483
-49.4237
-49.4708
-49.4851
-49.5224
-49.5427
-49.5753
-49.5988
-49.6284
-49.6539
-49.6813
-49.7082
-49.7341
-49.7617
-49.7867
-49.8138
-49.8403
-49.8634
-49.8961
-49.9091
-49.9557
-48.9748
-49.0188
-49.0326
-49.0677
-49.087
-49.1179
-49.1401
-49.1682
-49.1925
-49.2185
-49.2442
-49.2687
-49.2954
-49.3187
-49.3458
-49.3696
-49.3936
-49.423
-49.4372
-49.4808
-48.5576
-48.5982
-48.6116
-48.6442
-48.6616
-48.6907
-48.711
-48.7367
-48.7592
-48.7829
-48.8065
-48.829
-48.8536
-48.8746
-48.9007
-48.9208
-48.9456
-48.9705
-48.9861
-49.0256
-48.1636
-48.2009
-48.2155
-48.2478
-48.264
-48.2924
-48.3125
-48.3368
-48.3588
-48.3813
-48.4036
-48.425
-48.4477
-48.467
-48.4915
-48.5074
-48.533
-48.5512
-48.567
-48.6012
-47.7648
-47.7921
-47.8034
-47.8358
-47.8488
-47.8743
-47.894
-47.9165
-47.9387
-47.9616
-47.9851
-48.0089
-48.034
-48.0579
-48.0861
-48.1063
-48.1404
-48.1555
-48.1817
-48.2193
-47.4911
-47.5001
-47.485
-47.5056
-47.5054
-47.5128
-47.5174
-47.5227
-47.5283
-47.5347
-47.5424
-47.5518
-47.5638
-47.5786
-47.5989
-47.6198
-47.6584
-47.6797
-47.7516
-47.8085
-47.5258
-47.584
-47.546
-47.5353
-47.5177
-47.5
-47.4811
-47.4604
-47.4377
-47.4127
-47.3848
-47.3538
-47.319
-47.2802
-47.2367
-47.1876
-47.1349
-47.0663
-47.025
-46.8618
546.733
464.568
415.678
359.805
311.101
264.118
220.42
179.127
140.227
103.422
68.5383
35.3851
3.77408
-26.3439
-54.8916
-82.6325
-109.557
-131.83
-156.761
-192.794
-133.935
-156.091
-147.834
-158.65
-161.153
-167.582
-172.301
-177.375
-181.745
-185.648
-188.82
-191.194
-192.603
-192.844
-191.71
-189.447
-186.413
-182.283
-178.339
-177.07
-146.005
-153.528
-145.594
-152.913
-151.084
-154.717
-156.169
-158.942
-161.411
-164.181
-166.94
-169.702
-172.291
-174.472
-176.011
-177.103
-177.979
-178.804
-180.393
-182.258
-166.256
-172.512
-171.208
-179.105
-180.129
-186.04
-189.302
-193.991
-197.94
-202.154
-206.112
-209.974
-213.484
-216.408
-218.435
-219.744
-220.686
-221.407
-222.649
-221.716
-207.182
-211.331
-209.325
-213.695
-212.076
-215.092
-214.926
-216.5
-217.015
-217.865
-218.381
-218.786
-218.901
-218.575
-217.647
-216.083
-214.576
-212.822
-211.481
-208.195
-195.112
-195.783
-192.11
-193.729
-190.01
-190.593
-188.1
-187.329
-185.601
-184.193
-182.606
-180.998
-179.341
-177.592
-175.759
-173.706
-171.609
-169.029
-166.709
-163.229
-163.495
-162.292
-158.884
-159.464
-155.838
-155.658
-153.102
-151.866
-149.992
-148.318
-146.581
-144.825
-143.073
-141.307
-139.545
-137.718
-135.893
-133.844
-132.155
-130.076
-136.706
-135.036
-132.501
-132.637
-129.669
-129.333
-127.138
-126.12
-124.612
-123.485
-122.489
-121.788
-121.375
-121.179
-120.948
-120.404
-119.331
-117.911
-116.75
-115.829
-121.068
-120.039
-118.806
-119.18
-117.461
-117.749
-116.523
-116.454
-115.887
-115.846
-115.811
-115.976
-116.174
-116.402
-116.643
-116.957
-117.397
-118.203
-118.384
-119.293
-113.535
-115.499
-115.172
-116.966
-116.509
-117.91
-117.833
-118.881
-119.344
-120.426
-121.579
-123.328
-125.62
-128.628
-132.168
-135.891
-138.953
-140.147
-140.629
-144.598
-160.813
-166.645
-168.387
-172.962
-175.395
-179.743
-182.953
-187.229
-190.886
-194.811
-198.11
-201.072
-203.34
-204.979
-205.829
-206.059
-205.92
-205.655
-206.511
-207.795
-204.958
-209.897
-210.792
-213.974
-215.381
-218.225
-219.945
-222.418
-224.202
-226.031
-227.333
-228.396
-229.159
-229.727
-230.094
-230.31
-230.311
-229.848
-229.232
-226.264
-207.638
-208.176
-207.46
-208.186
-207.556
-207.993
-207.617
-207.808
-207.673
-207.671
-207.509
-207.242
-206.788
-206.066
-205.012
-203.368
-201.26
-198.224
-195.864
-192.441
-185.555
-183.573
-181.178
-179.75
-177.723
-176.354
-174.559
-173.028
-171.367
-169.744
-168.09
-166.399
-164.67
-162.864
-161.02
-159.065
-157.172
-155.164
-153.675
-151.44
-167.102
-164.58
-161.993
-159.947
-157.846
-156.262
-154.497
-152.976
-151.449
-150.009
-148.623
-147.281
-145.986
-144.713
-143.488
-142.241
-141.078
-139.777
-138.847
-137.504
-145.296
-142.974
-141.452
-139.881
-138.425
-137.249
-135.928
-134.788
-133.612
-132.489
-131.387
-130.31
-129.263
-128.234
-127.208
-126.114
-124.998
-123.699
-122.758
-121.506
-125.932
-123.917
-123.093
-121.722
-120.67
-119.646
-118.586
-117.697
-116.877
-116.287
-115.94
-115.894
-116.109
-116.447
-116.61
-116.352
-115.507
-114.457
-113.626
-113.226
-107.238
-107.042
-107.565
-107.516
-107.915
-108.18
-108.523
-108.972
-109.519
-110.209
-110.993
-111.86
-112.774
-113.713
-114.623
-115.437
-116.106
-116.989
-117.275
-118.728
-121.14
-122.448
-123.465
-123.797
-124.085
-124.208
-124.349
-124.772
-125.457
-126.594
-128.284
-130.69
-133.859
-137.673
-141.682
-145.161
-147.544
-148.487
-148.315
-150.693
-134.457
-139.743
-140.648
-142.3
-143.963
-146.188
-148.244
-149.965
-152.074
-154.229
-156.376
-158.357
-160.02
-161.2
-161.951
-162.475
-162.936
-163.279
-163.788
-165.64
)
;

boundaryField
{
    outletWall
    {
        type            fixedValue;
        value           uniform 0;
    }
    fineWalls
    {
        type            zeroGradient;
    }
    fineFrontAndBack
    {
        type            zeroGradient;
    }
    fineplugLeft
    {
        type            cyclicAMI;
        value           nonuniform List<scalar> 
20
(
-67.0638
-66.7643
-65.6098
-64.9742
-64.9102
-64.9052
-64.9605
-65.1057
-65.3231
-65.5768
-65.8983
-66.1737
-66.6263
-62.481
-73.9026
-76.8024
-78.5
-79.9437
-82.6351
-84.376
)
;
    }
    fineplugRight
    {
        type            cyclicAMI;
        value           nonuniform List<scalar> 
20
(
-169.254
-168.301
-168.019
-167.926
-167.89
-167.867
-167.744
-167.416
-166.942
-166.456
-166.15
-166.032
-166.497
-168.56
-188.987
-190.83
-192.372
-194.904
-198.978
-197.69
)
;
    }
    inletOutletLeft
    {
        type            cyclicAMI;
        value           nonuniform List<scalar> 
20
(
-67.0638
-66.7643
-65.6098
-64.9742
-64.9102
-64.9052
-64.9605
-65.1057
-65.3231
-65.5768
-65.8983
-66.1737
-66.6263
-62.481
-73.9026
-76.8024
-78.5
-79.9437
-82.6351
-84.376
)
;
    }
    inletLeft
    {
        type            zeroGradient;
    }
    inletWallsLeft
    {
        type            zeroGradient;
    }
    inletFacesLeft
    {
        type            zeroGradient;
    }
    inletOutletRight
    {
        type            cyclicAMI;
        value           nonuniform List<scalar> 
20
(
-169.254
-168.301
-168.019
-167.926
-167.89
-167.867
-167.744
-167.416
-166.942
-166.456
-166.15
-166.032
-166.497
-168.56
-188.987
-190.83
-192.372
-194.904
-198.978
-197.69
)
;
    }
    inletRight
    {
        type            zeroGradient;
    }
    inletWallsRight
    {
        type            zeroGradient;
    }
    inletFacesRight
    {
        type            zeroGradient;
    }
}


// ************************************************************************* //
