/*--------------------------------*- C++ -*----------------------------------*\
| =========                 |                                                 |
| \\      /  F ield         | OpenFOAM: The Open Source CFD Toolbox           |
|  \\    /   O peration     | Version:  4.1                                   |
|   \\  /    A nd           | Web:      www.OpenFOAM.org                      |
|    \\/     M anipulation  |                                                 |
\*---------------------------------------------------------------------------*/
FoamFile
{
    version     2.0;
    format      ascii;
    class       volVectorField;
    location    "21";
    object      U;
}
// * * * * * * * * * * * * * * * * * * * * * * * * * * * * * * * * * * * * * //

dimensions      [0 1 -1 0 0 0 0];

internalField   nonuniform List<vector> 
1280
(
(-2.12963e-13 -87.5989 -265.551)
(5.51039e-14 95.5452 81.1629)
(-2.38061e-14 -50.5315 -19.0969)
(-7.90848e-15 -23.8652 -12.4078)
(-7.48735e-15 -42.1956 -20.0366)
(-3.60915e-15 -22.8269 -10.0367)
(2.89598e-16 -24.6896 -11.1717)
(2.40174e-15 -20.5374 -11.0642)
(4.77633e-15 -22.4883 -12.7177)
(-1.86088e-15 -16.4297 -4.4719)
(-1.51159e-15 -15.8471 -5.95586)
(-1.94919e-15 -13.5571 -6.52659)
(-2.42091e-15 -10.3826 1.63287)
(-2.63938e-15 -10.6082 0.156864)
(-1.35812e-15 -7.98834 2.28613)
(-4.18253e-15 -5.40509 10.3497)
(-4.11604e-15 -7.5892 10.1314)
(-4.10752e-15 -5.65205 13.8437)
(-3.75918e-15 -4.13338 13.6288)
(-3.90207e-15 -6.77971 14.2746)
(-4.26736e-15 -7.91169 16.7214)
(-4.81202e-15 -7.5656 16.6137)
(-3.76014e-15 -7.67284 15.2986)
(-3.71725e-15 -7.42127 14.6496)
(-3.02222e-15 -7.41922 13.8934)
(-1.92428e-15 -6.82561 13.1649)
(5.46259e-15 -6.30643 8.3893)
(2.01853e-15 -0.973286 15.6451)
(4.61225e-15 -1.06588 14.6955)
(6.2137e-15 -1.09997 14.1217)
(7.04359e-15 -1.15227 13.3522)
(6.68766e-15 -1.16391 12.5434)
(5.39187e-15 -1.16329 11.6596)
(3.68333e-15 -1.12574 10.7212)
(2.17109e-15 -1.08168 9.70723)
(1.32763e-15 -1.00785 8.39347)
(1.46277e-15 -0.745728 6.15699)
(3.12698e-15 -0.380018 2.30867)
(7.27156e-15 -0.396307 -2.4723)
(1.22016e-14 0.830939 -4.85047)
(1.15284e-14 5.7575 -6.17666)
(7.51981e-15 2.20185 -3.27439)
(7.98043e-15 3.25125 -2.75934)
(6.842e-15 3.02445 -2.30851)
(1.01009e-14 6.32298 -2.34156)
(1.81676e-14 4.12508 -1.55663)
(2.61353e-14 4.97697 -1.65666)
(2.71297e-14 4.69759 -1.99167)
(1.88659e-14 7.10152 -1.6331)
(2.1406e-14 5.05231 -1.10983)
(3.45449e-14 5.36835 -1.39058)
(5.05631e-14 7.36634 -0.149354)
(4.67794e-14 4.7927 0.25659)
(5.40529e-14 5.4237 0.528425)
(5.81682e-14 4.99224 0.585246)
(8.49486e-14 5.82669 2.57806)
(6.78223e-14 3.67871 2.28914)
(7.14572e-14 3.81063 2.63687)
(8.5584e-14 3.39305 2.6041)
(1.11344e-13 3.97674 6.23092)
(3.33587e-14 1.16546 4.23687)
(1.38795e-14 1.58967 2.83763)
(4.48657e-15 1.54612 2.84158)
(8.68523e-16 1.48179 4.08015)
(-8.08561e-16 1.48486 5.5247)
(-1.86395e-15 1.43343 6.91071)
(-2.78355e-15 1.3213 8.57529)
(-3.5176e-15 1.17293 10.723)
(-3.64276e-15 0.923321 13.0202)
(-2.96206e-15 0.749512 15.0706)
(-1.8525e-15 0.427369 16.8726)
(-9.62692e-16 0.369209 18.4369)
(8.09436e-17 -0.284339 20.475)
(-1.01309e-14 7.53672 24.3051)
(-4.54094e-15 -0.0656323 22.1903)
(-7.86629e-15 0.63794 19.9341)
(-1.15412e-14 0.254817 17.9719)
(-1.58602e-14 0.598051 16.1981)
(-2.1572e-14 -0.0327744 13.2714)
(-2.99563e-14 0.449399 6.28569)
(-3.99183e-14 2.57908 -6.5656)
(-3.89882e-14 -0.146188 -2.84202)
(-5.5484e-14 -1.44462 -5.62232)
(-5.00317e-14 -2.00216 -5.72862)
(-7.02443e-14 -0.74678 -6.61926)
(-1.06003e-13 -1.09531 -8.09223)
(-4.6931e-14 -2.24406 -6.43439)
(-5.42641e-14 -0.840856 -7.28027)
(-7.64191e-14 0.333089 -8.80821)
(-4.29913e-14 -1.45272 -8.12904)
(-5.22572e-14 0.776409 -10.6048)
(-7.43252e-14 1.87333 -13.6927)
(-6.62646e-14 2.89173 -7.82376)
(-5.27761e-14 5.51046 -2.81962)
(-3.06721e-14 3.05482 -1.97617)
(-2.51806e-14 1.11098 86.8217)
(-2.69882e-14 -26.5249 127.796)
(-2.88013e-14 -30.9836 153.923)
(2.68306e-14 -58.6238 -198.277)
(2.10161e-13 -145.567 -1359.23)
(-1.35958e-12 784.22 425.914)
(-5.26708e-14 -55.3897 -193.012)
(6.52064e-14 -145.97 -43.6641)
(-1.60165e-14 -37.5382 123.42)
(2.56072e-16 -46.0271 -7.52921)
(5.67281e-15 -20.5624 20.9491)
(5.91843e-14 -2.82178 20.2792)
(1.30142e-13 39.189 13.0441)
(1.02016e-13 41.6971 -10.7725)
(1.01361e-13 42.9916 -28.6198)
(9.65193e-14 33.953 -37.2553)
(9.92562e-14 30.2885 -47.6774)
(8.78642e-14 17.7875 -39.9391)
(9.49848e-14 19.0858 -47.6666)
(9.30738e-14 123.763 -22.3594)
(6.03721e-14 55.8793 8.98927)
(7.10534e-15 32.1753 20.4023)
(-1.45116e-14 31.3887 19.2005)
(-1.41882e-14 -8.04483 44.5631)
(4.12371e-13 -230.103 -187.517)
(1.88909e-14 5.86954 232.162)
(8.25338e-14 -133.88 -46.8504)
(-2.27513e-14 27.2969 118.205)
(1.2099e-14 -12.0945 -22.9675)
(2.80849e-14 -21.5835 32.8608)
(7.62869e-14 -9.5827 12.6215)
(1.89325e-14 9.45599 -1.01531)
(9.49177e-15 9.7398 -7.65179)
(3.80531e-15 2.6189 -11.9966)
(3.87317e-15 -3.71428 -14.2363)
(7.9141e-15 -14.3633 -15.4247)
(1.83454e-14 -13.3119 -11.2499)
(2.79813e-14 -12.3162 -32.3079)
(1.44664e-14 -67.0748 2.8713)
(1.61624e-14 -11.8213 20.8218)
(8.1952e-15 -8.23243 16.9634)
(-1.15614e-14 0.148884 28.4273)
(-2.61023e-14 22.2041 63.3825)
(4.65836e-15 269.203 -24.6067)
(3.99909e-14 86.8828 -20.5082)
(8.6558e-14 -104.131 -36.5821)
(4.61778e-14 -26.7989 2.84037)
(1.89671e-14 2.60336 13.0148)
(3.56454e-14 -21.5038 30.065)
(4.23777e-14 5.68321 4.19574)
(2.89594e-14 27.0906 1.84425)
(1.55627e-14 26.8998 -5.56713)
(9.06372e-15 23.8117 -11.6767)
(7.43605e-15 17.2291 -15.7744)
(1.04744e-14 12.4067 -20.4885)
(1.83244e-14 11.7784 -20.1221)
(2.09256e-14 0.996224 -15.9947)
(1.33865e-14 13.3156 -2.2497)
(2.48316e-14 13.0728 4.66076)
(2.19799e-14 8.61292 14.5059)
(1.72022e-14 3.83508 1.2955)
(9.0307e-15 0.364377 -11.4512)
(9.38963e-14 33.729 -40.2444)
(1.00637e-13 -83.4641 113.777)
(8.60641e-14 -102.309 -22.6095)
(5.4325e-14 -10.0994 14.5696)
(2.31634e-14 -12.4496 17.0455)
(3.89407e-14 -18.6447 23.5682)
(3.65322e-14 4.96322 -2.16638)
(2.14931e-14 23.2241 -1.03783)
(5.50559e-15 23.2045 -4.49502)
(-5.0278e-16 17.6328 -8.74245)
(-1.8372e-15 9.92812 -12.2007)
(-1.99519e-15 0.513515 -14.7758)
(6.09675e-15 -5.94711 -14.8907)
(1.8036e-14 -8.15226 -8.36747)
(1.81488e-14 -2.36125 -1.48816)
(2.69624e-14 -3.6257 9.0493)
(2.74941e-14 3.35958 15.1877)
(2.4074e-14 10.8431 9.94942)
(1.99005e-15 11.078 2.58223)
(7.57184e-14 122.993 -12.8935)
(1.00365e-13 34.5595 54.557)
(8.38607e-14 -88.2421 -9.23208)
(4.34028e-14 -15.7341 25.3942)
(2.61449e-14 -15.3208 14.2627)
(4.15091e-14 -12.7529 16.262)
(3.73374e-14 10.281 -7.57874)
(2.19685e-14 25.8228 -5.55529)
(4.76335e-15 26.6339 -5.06498)
(-8.09608e-16 22.5397 -7.90101)
(-1.36903e-15 14.676 -11.7158)
(-3.75345e-15 7.64493 -12.7396)
(2.19084e-15 0.882148 -13.6338)
(1.54604e-14 -10.8305 -8.19343)
(2.01836e-14 -12.295 1.12132)
(2.85528e-14 -2.94379 12.2024)
(3.05392e-14 5.37305 13.3678)
(3.14128e-14 12.4564 11.8198)
(1.23612e-14 13.2883 8.49633)
(8.22351e-14 60.3683 3.78186)
(9.82596e-14 -14.6124 64.5362)
(8.01898e-14 -76.9969 3.34111)
(3.56423e-14 -21.2775 24.9317)
(3.06259e-14 -11.7219 9.79115)
(4.54724e-14 -7.17396 6.85047)
(3.63433e-14 12.8958 -14.6855)
(2.42364e-14 24.523 -14.2165)
(7.14908e-15 25.4366 -8.9443)
(3.07164e-17 22.3255 -8.215)
(-4.20674e-16 13.8841 -11.5533)
(-2.17367e-15 4.75863 -12.851)
(1.30863e-15 -2.96251 -12.2123)
(1.27189e-14 -13.0163 -8.43003)
(2.00075e-14 -13.8248 1.04569)
(2.89768e-14 -6.03454 9.76087)
(2.95922e-14 4.05388 11.4052)
(3.08596e-14 13.6281 11.9454)
(2.31873e-14 18.6251 12.7798)
(8.16523e-14 66.8228 21.8867)
(9.43453e-14 -13.2276 56.1296)
(7.58788e-14 -67.2773 12.581)
(3.22293e-14 -20.4593 17.4931)
(3.1241e-14 -7.80512 3.00924)
(4.18796e-14 -1.72829 -5.26732)
(3.14021e-14 16.0955 -24.5071)
(2.60357e-14 23.7591 -25.4143)
(1.04112e-14 23.6775 -15.396)
(5.48838e-16 22.9139 -8.70069)
(-8.16058e-16 15.4288 -10.9425)
(5.15383e-16 6.62505 -12.8551)
(1.8048e-15 -3.41611 -12.2305)
(9.88316e-15 -15.5504 -8.46418)
(1.92521e-14 -16.6646 0.307651)
(2.96267e-14 -8.18637 6.58664)
(2.90837e-14 3.55881 8.98477)
(2.59244e-14 12.4849 10.2256)
(3.25072e-14 17.2157 14.0533)
(8.04894e-14 39.0609 33.623)
(8.72442e-14 -11.1824 50.9485)
(7.044e-14 -56.4712 18.1869)
(2.99911e-14 -17.7469 5.39434)
(3.22381e-14 -3.78709 -1.82007)
(2.16551e-14 6.22848 -19.8576)
(2.33989e-14 19.4565 -37.3774)
(2.54442e-14 21.5074 -37.2356)
(1.20996e-14 18.9455 -23.0994)
(5.56158e-16 20.9898 -8.93368)
(-1.40913e-15 15.7507 -9.63747)
(9.4988e-15 6.28365 -11.8318)
(4.79539e-15 -4.5467 -11.9321)
(7.41441e-15 -18.021 -7.38786)
(1.98959e-14 -19.5133 -0.135668)
(3.24746e-14 -9.75345 3.85569)
(3.60134e-14 2.72878 6.20819)
(2.21546e-14 12.117 7.65021)
(3.94155e-14 14.9966 6.63342)
(7.8685e-14 27.5616 45.1538)
(7.63399e-14 -12.6458 46.6777)
(6.32349e-14 -43.3497 21.3818)
(2.77834e-14 -13.4511 -12.5277)
(2.04743e-14 1.72118 -18.9886)
(1.66391e-14 14.2321 -37.7387)
(2.0661e-14 22.2528 -48.2143)
(2.01745e-14 18.2661 -44.5512)
(9.2349e-15 12.3198 -28.3832)
(-2.46506e-17 17.4714 -7.91763)
(-3.417e-16 16.2547 -7.62813)
(2.45231e-14 7.2515 -10.1988)
(1.09714e-14 -5.54889 -10.8176)
(5.64358e-15 -20.2103 -4.91963)
(1.96934e-14 -21.175 -0.652626)
(3.59353e-14 -10.8109 1.20693)
(4.97617e-14 2.02197 2.30308)
(2.97441e-14 12.1968 4.69824)
(1.20745e-14 16.5417 4.57555)
(7.55004e-14 8.55911 54.0274)
(6.52963e-14 -11.3281 46.7447)
(5.73443e-14 -26.6545 22.7434)
(3.68814e-14 -7.64325 -27.8747)
(2.36283e-14 5.76505 -42.2761)
(1.58238e-14 17.38 -48.9624)
(1.13682e-14 21.5184 -45.372)
(5.25804e-15 14.0681 -37.4903)
(-1.55133e-16 5.05776 -24.1384)
(-8.79904e-16 12.6636 -4.32708)
(2.41012e-15 16.6113 -4.73439)
(2.68629e-14 7.76314 -7.71702)
(1.49143e-14 -6.84677 -8.54689)
(4.67535e-15 -21.9224 -1.78622)
(2.87202e-14 -21.6476 -1.71414)
(3.74435e-14 -11.106 -1.26379)
(5.17225e-14 0.654179 -2.04003)
(3.96088e-14 11.2958 0.669727)
(1.38501e-14 16.625 1.47664)
(6.80477e-14 -4.16517 58.9773)
(4.45135e-14 -10.2369 48.3705)
(3.13436e-14 -4.29974 23.1722)
(1.54168e-14 5.86231 -33.5265)
(6.6701e-15 11.8341 -43.4154)
(2.53209e-15 16.3823 -32.1297)
(-9.48435e-15 17.3375 -19.7196)
(-1.14168e-14 9.67521 -8.01748)
(-1.06545e-14 -1.38757 -0.903295)
(-3.95752e-16 10.7903 0.147374)
(4.05333e-15 17.5032 -0.849291)
(3.02375e-15 8.59925 -4.29143)
(1.09307e-14 -8.09576 -5.34931)
(4.62098e-15 -22.7983 0.820635)
(3.30905e-14 -21.0714 -3.30235)
(3.85087e-14 -10.7973 -3.77366)
(5.10113e-14 0.50526 -5.12093)
(4.31307e-14 10.5017 -3.23637)
(1.60329e-14 16.8414 -1.9588)
(4.70203e-14 -25.2303 56.7418)
(3.40278e-15 -9.19203 48.3548)
(-4.02827e-15 20.5359 22.3136)
(-4.80813e-15 15.1539 -31.7253)
(-5.02806e-15 7.77653 -27.5654)
(-4.19456e-15 8.99744 -2.21197)
(-3.91827e-15 11.7744 1.42603)
(-3.81029e-15 5.35333 14.9452)
(-1.51468e-15 1.70256 7.6931)
(3.36345e-16 12.894 0.542981)
(3.46967e-15 18.1476 2.86352)
(6.71737e-15 9.27815 -0.343041)
(6.69964e-15 -9.05377 -1.64401)
(5.37135e-15 -22.5655 1.93907)
(3.50899e-14 -19.6331 -5.09696)
(4.16731e-14 -10.3654 -6.4684)
(5.41512e-14 0.568327 -8.49845)
(4.40838e-14 9.58232 -7.17662)
(1.84897e-14 16.2602 -5.54583)
(3.02996e-14 -36.2053 47.704)
(-9.77866e-15 -4.30157 48.7048)
(-4.92167e-16 39.1153 17.617)
(-1.42361e-15 19.0403 -22.5929)
(3.31021e-16 -0.10914 -10.5638)
(6.25219e-16 7.20145 4.77014)
(-2.16824e-15 9.52806 -0.918073)
(-2.08003e-15 6.95047 9.62464)
(9.95613e-16 4.45357 0.817866)
(2.92254e-17 12.8391 -0.110367)
(2.83864e-15 17.9572 5.08807)
(5.00025e-15 9.69141 3.45032)
(2.80586e-15 -9.21852 1.6558)
(6.24807e-15 -21.1859 1.34076)
(3.38975e-14 -17.6107 -6.90944)
(4.5836e-14 -9.56635 -9.15272)
(5.53456e-14 1.06116 -11.7992)
(4.21267e-14 8.74609 -11.0886)
(1.96532e-14 16.1872 -9.10332)
(2.07446e-14 -65.996 36.5658)
(-1.02411e-14 -13.4181 45.8953)
(-1.82708e-15 55.8118 8.87)
(-2.32236e-15 22.0934 -12.5325)
(-5.21122e-16 -4.22877 -2.53427)
(-1.2376e-16 7.6505 7.10962)
(-9.57131e-16 7.88437 -0.12966)
(-1.27386e-15 6.39455 8.40826)
(1.03414e-16 5.76167 -1.07201)
(-5.99924e-17 11.4305 -0.833323)
(1.89882e-15 16.8689 5.96664)
(4.50777e-15 10.0718 6.55465)
(5.35272e-16 -8.30259 3.5134)
(6.30885e-15 -18.9374 -0.40784)
(2.91998e-14 -15.3802 -8.76082)
(4.56481e-14 -8.6814 -11.3893)
(4.94716e-14 1.6463 -14.9697)
(3.69262e-14 7.74656 -14.5633)
(1.93475e-14 13.3111 -12.1882)
(1.41041e-14 -57.6212 20.6807)
(-7.33621e-15 9.37278 59.4984)
(-1.92396e-15 71.0496 -1.96199)
(-1.89509e-15 21.4168 -3.99788)
(-7.51333e-16 -8.57127 2.59695)
(1.25024e-16 8.82329 10.9301)
(1.46041e-17 7.28086 0.30495)
(-4.34592e-17 7.0353 6.42323)
(-6.01584e-18 7.69233 0.00653101)
(-1.21737e-16 10.3075 -0.765576)
(7.91004e-16 15.1407 5.40103)
(3.71608e-15 10.2653 8.59773)
(7.2584e-16 -6.33991 3.79125)
(6.05476e-15 -16.0787 -2.60415)
(2.30706e-14 -13.1601 -10.7068)
(3.90757e-14 -7.16504 -13.0873)
(3.86787e-14 2.97091 -18.6945)
(2.99138e-14 6.36027 -19.2169)
(2.00302e-14 7.0165 -15.3125)
(1.03991e-14 -123.121 6.80958)
(-4.94834e-15 -38.7581 45.123)
(-2.06129e-15 86.6686 -14.4992)
(-1.68989e-15 17.0849 2.71034)
(-5.16045e-16 -11.2636 4.99485)
(4.50712e-17 10.6302 12.9884)
(9.23797e-17 8.4118 1.37177)
(1.31862e-16 7.57561 4.46975)
(-1.50823e-17 8.78124 0.773156)
(-9.33121e-17 9.74639 -0.0378376)
(-3.18782e-17 13.3938 4.04827)
(2.90133e-15 10.6245 9.28234)
(3.63269e-15 -3.80869 3.30876)
(7.29699e-15 -13.0237 -4.9395)
(1.8881e-14 -11.0932 -12.7091)
(3.06521e-14 -6.10481 -14.7337)
(2.80672e-14 4.80018 -22.8191)
(2.22893e-14 4.69009 -23.5102)
(1.98915e-14 0.940727 -20.9286)
(5.5295e-15 -32.4731 -19.9171)
(-3.96492e-15 48.5077 102.563)
(-2.08041e-15 101.346 -27.2367)
(-1.46296e-15 14.0613 5.84782)
(-3.5189e-16 -15.6515 5.53443)
(3.24661e-17 11.2732 13.2999)
(-1.67559e-17 9.38967 3.62142)
(-2.26935e-17 7.76666 3.51296)
(9.67046e-20 8.96458 1.19958)
(-4.4013e-17 9.09669 0.823206)
(-2.96545e-16 11.443 2.96827)
(1.98574e-15 10.4282 8.89611)
(8.32269e-15 -0.0792309 4.39836)
(1.04102e-14 -9.48114 -6.48723)
(1.7548e-14 -9.2989 -14.8865)
(2.45251e-14 -2.83757 -18.3242)
(1.90354e-14 7.89899 -23.2739)
(1.45009e-14 2.81508 -22.9194)
(1.58167e-14 -0.0741749 -23.1947)
(4.98855e-15 -278.812 0.722163)
(1.04556e-15 -57.114 -6.69532)
(-2.12102e-15 105.709 -39.3876)
(-1.19366e-15 22.9844 10.9481)
(-2.28088e-16 -16.4534 22.0496)
(-1.98308e-18 13.8327 10.9547)
(1.84567e-18 9.53937 5.07442)
(3.23365e-20 7.51445 3.07079)
(3.31934e-18 8.28839 1.36172)
(-1.50028e-17 7.96908 1.31194)
(-1.92264e-16 9.14591 2.54055)
(7.4913e-16 8.83058 7.93613)
(6.60371e-15 2.31484 7.83037)
(1.15849e-14 -5.38778 -5.80482)
(1.62777e-14 -6.12496 -14.6304)
(2.02694e-14 -5.12231 -19.0182)
(1.15717e-14 6.35487 -16.9757)
(7.49902e-15 6.85909 -14.4091)
(1.02862e-14 -6.22456 -18.2059)
(-7.33656e-15 231.055 -166.767)
(2.27704e-16 -19.4136 232.354)
(-2.05621e-15 138.705 -46.9027)
(-6.74891e-17 -33.7326 109.878)
(-2.49304e-16 -18.3993 -3.86647)
(-3.03305e-17 18.38 6.64986)
(1.33124e-18 14.41 3.87832)
(8.79987e-19 11.828 2.67759)
(2.73096e-19 11.7819 1.32379)
(-9.02121e-19 10.7533 1.30278)
(-6.08422e-17 10.4778 1.99251)
(6.40778e-18 9.35531 5.79617)
(2.5092e-15 5.04579 8.40531)
(8.24424e-15 -0.485247 0.538438)
(1.25915e-14 -4.92259 -11.0944)
(1.27631e-14 1.41622 -17.6262)
(8.09802e-15 11.0913 -10.035)
(3.35143e-15 -17.2596 -10.2185)
(1.10019e-14 8.47154 -24.7199)
(3.33475e-14 -815.364 471.663)
(1.26996e-15 72.8744 -210.502)
(-1.54672e-15 148.753 -42.3843)
(4.30513e-16 23.8459 146.849)
(-6.13904e-17 40.9035 -22.8055)
(-2.1047e-17 19.9283 0.909711)
(-1.92021e-19 16.1659 1.7813)
(-2.15092e-19 14.0676 1.10422)
(-1.66803e-19 13.4624 0.670527)
(3.96771e-19 12.3121 0.650517)
(4.55549e-18 11.6844 0.761661)
(-4.11352e-17 10.2093 1.95453)
(2.2673e-17 6.99193 4.20699)
(8.10815e-16 5.3643 5.19029)
(3.50078e-15 4.57113 2.99731)
(1.97302e-14 -11.7691 -18.7835)
(7.89378e-15 4.62207 -9.96595)
(2.22957e-15 35.8466 22.5872)
(-9.21965e-15 -8.53933 -111.226)
(-6.83532e-16 7.61078 13.3993)
(-3.01885e-15 10.4942 18.682)
(-2.33539e-15 9.76996 17.837)
(-3.02735e-15 9.63875 17.6419)
(-4.39447e-15 9.50155 17.6574)
(-5.09032e-15 9.34444 17.3942)
(-3.74274e-15 8.9638 16.9116)
(-4.28008e-15 9.02528 16.9257)
(-4.73432e-15 8.92588 16.9818)
(-4.9975e-15 8.90369 16.9844)
(-5.28572e-15 8.87198 17.0019)
(-5.48929e-15 8.86249 17.0016)
(-5.57875e-15 8.87043 17.0012)
(-5.43087e-15 8.94328 17.0734)
(-5.30982e-15 9.16832 17.3813)
(-5.43921e-15 9.53185 17.8945)
(-5.97701e-15 9.52973 17.6754)
(-6.04291e-15 8.03222 14.6758)
(-2.19897e-15 4.50915 7.88141)
(9.35055e-15 1.57227 2.14007)
(1.20616e-16 5.78178 10.4343)
(1.13677e-15 9.41342 16.4982)
(7.70414e-16 8.80384 15.8045)
(6.95114e-16 8.60826 15.4958)
(-2.44472e-16 8.51753 15.5578)
(-1.80116e-15 8.49874 15.6408)
(-5.23433e-16 8.4898 15.7373)
(-9.27327e-16 8.43274 15.7154)
(-1.09462e-15 8.38134 15.7066)
(-1.18229e-15 8.32696 15.7018)
(-1.19571e-15 8.2723 15.6945)
(-1.22948e-15 8.21618 15.6866)
(-1.33564e-15 8.1522 15.6637)
(-1.29783e-15 8.07433 15.618)
(-1.31916e-15 8.02814 15.6393)
(-1.37946e-15 8.13804 15.993)
(-1.73322e-15 8.35405 16.6108)
(-2.34159e-15 7.87691 15.8183)
(-1.24254e-15 5.35244 10.693)
(3.46472e-15 0.806979 1.80505)
(3.86351e-17 5.86879 10.3772)
(1.38844e-15 9.6283 16.7155)
(9.63491e-16 9.16114 16.0773)
(1.0118e-15 8.98603 15.7451)
(9.4562e-16 8.93801 15.7674)
(2.38857e-17 8.91957 15.7559)
(-1.75028e-16 8.86233 15.7537)
(-2.09998e-16 8.83768 15.7633)
(-2.94432e-16 8.79664 15.7733)
(-3.03855e-16 8.76525 15.7756)
(-2.83261e-16 8.72675 15.7803)
(-4.11219e-16 8.69229 15.7823)
(-4.02614e-16 8.6586 15.787)
(-4.69834e-16 8.62171 15.7871)
(-4.17334e-16 8.57106 15.7474)
(-4.35654e-16 8.51421 15.7241)
(-3.4036e-16 8.66997 16.1244)
(-3.68745e-16 9.11756 17.1308)
(-1.01825e-15 8.53952 15.8228)
(-1.00387e-15 3.7231 6.9652)
(-9.47806e-18 5.72079 9.92654)
(4.82677e-18 9.48893 16.3497)
(1.06797e-18 9.05799 15.7143)
(-2.72467e-17 8.88145 15.3574)
(3.18229e-17 8.85255 15.3769)
(1.45033e-15 8.86469 15.3832)
(8.8262e-16 8.84717 15.3968)
(7.8539e-16 8.84466 15.3938)
(9.9289e-16 8.82772 15.3984)
(7.6533e-16 8.81951 15.397)
(1.02243e-15 8.80423 15.3973)
(6.67007e-16 8.791 15.395)
(9.82863e-16 8.77658 15.3902)
(9.05551e-16 8.75831 15.3881)
(9.19851e-16 8.75035 15.3836)
(9.10309e-16 8.71753 15.3635)
(8.92482e-16 8.70825 15.3353)
(6.13906e-16 8.94824 15.9072)
(7.45596e-16 9.06267 16.1467)
(1.11131e-15 4.94675 8.83594)
(2.52175e-18 5.91627 10.2776)
(-6.83858e-17 9.5284 16.3921)
(-4.64196e-17 9.08676 15.7423)
(-3.74596e-17 8.91375 15.3972)
(-4.24642e-17 8.88897 15.4134)
(5.7477e-17 8.89898 15.4154)
(6.07464e-17 8.88173 15.4249)
(6.25726e-17 8.88277 15.4259)
(8.34104e-17 8.87084 15.4329)
(8.81397e-17 8.8681 15.4347)
(7.33988e-17 8.85939 15.439)
(8.99796e-17 8.85409 15.4415)
(8.89635e-17 8.8487 15.4432)
(1.00077e-16 8.84056 15.4463)
(7.81067e-17 8.83884 15.4425)
(8.57088e-17 8.82156 15.4415)
(1.04066e-16 8.84181 15.4503)
(9.30168e-17 9.04211 15.8547)
(1.23813e-16 9.37067 16.3988)
(1.20847e-16 5.70016 10.046)
(-7.6533e-19 6.03491 10.4322)
(2.76423e-17 9.48657 16.3064)
(1.87805e-17 9.03934 15.6214)
(1.72854e-17 8.87746 15.2992)
(1.58038e-17 8.85981 15.3145)
(-9.52169e-17 8.87305 15.3176)
(-6.95533e-17 8.8614 15.3273)
(-7.15039e-17 8.86573 15.3279)
(-8.00839e-17 8.85787 15.3349)
(-7.91537e-17 8.85865 15.3372)
(-7.85237e-17 8.85343 15.3425)
(-8.0341e-17 8.85156 15.3462)
(-8.14038e-17 8.84892 15.3499)
(-8.28845e-17 8.84408 15.3554)
(-7.62552e-17 8.8457 15.3567)
(-7.84938e-17 8.83324 15.3606)
(-8.32785e-17 8.84045 15.3531)
(-7.54569e-17 8.99339 15.6717)
(-9.61041e-17 9.40477 16.3611)
(-1.09587e-16 6.03366 10.5682)
(2.24222e-19 6.23257 10.7747)
(-8.12247e-18 9.48429 16.2977)
(-5.56112e-18 9.01132 15.5697)
(-5.47165e-18 8.8695 15.2846)
(-4.74659e-18 8.85416 15.3014)
(3.68976e-17 8.86604 15.3034)
(2.63835e-17 8.85525 15.3123)
(2.64491e-17 8.85956 15.3131)
(2.89638e-17 8.85283 15.3199)
(2.78927e-17 8.85425 15.3224)
(2.83561e-17 8.85009 15.3279)
(2.90709e-17 8.84955 15.3318)
(2.93056e-17 8.84779 15.3361)
(2.92893e-17 8.84495 15.3417)
(2.83778e-17 8.84689 15.344)
(2.89157e-17 8.83756 15.3494)
(2.90041e-17 8.84468 15.3436)
(2.68824e-17 8.97401 15.6118)
(3.38039e-17 9.41758 16.3497)
(3.90591e-17 6.27992 10.9873)
(-5.98669e-20 6.41084 11.07)
(2.04189e-18 9.45519 16.2514)
(1.43183e-18 8.96907 15.4918)
(1.44746e-18 8.84654 15.2428)
(1.27522e-18 8.83408 15.2604)
(-1.05684e-17 8.84532 15.2624)
(-7.66367e-18 8.83599 15.271)
(-7.53818e-18 8.84038 15.2723)
(-8.13473e-18 8.83469 15.279)
(-7.81039e-18 8.83646 15.282)
(-7.94551e-18 8.83293 15.2878)
(-8.17814e-18 8.83307 15.2919)
(-8.29013e-18 8.83145 15.297)
(-8.1629e-18 8.8297 15.3028)
(-8.14466e-18 8.83122 15.3064)
(-8.29914e-18 8.8241 15.3127)
(-8.0821e-18 8.82866 15.3068)
(-7.5362e-18 8.93736 15.5345)
(-9.43924e-18 9.39626 16.3027)
(-1.08364e-17 6.47788 11.3228)
(1.44885e-20 6.60056 11.3945)
(-4.61926e-19 9.42958 16.2107)
(-3.34611e-19 8.93379 15.4309)
(-3.38607e-19 8.83077 15.2178)
(-3.10374e-19 8.81991 15.2357)
(2.58346e-18 8.82995 15.2371)
(1.9372e-18 8.82136 15.2451)
(1.86117e-18 8.82531 15.2464)
(1.97398e-18 8.82016 15.2528)
(1.92615e-18 8.82182 15.2557)
(1.9643e-18 8.81854 15.2613)
(2.00262e-18 8.81896 15.2653)
(2.04042e-18 8.81718 15.2704)
(1.9952e-18 8.81623 15.2757)
(2.01135e-18 8.81699 15.2799)
(2.06238e-18 8.81166 15.2859)
(1.9935e-18 8.81442 15.2806)
(1.84836e-18 8.90585 15.473)
(2.30974e-18 9.36931 16.2525)
(2.59768e-18 6.66613 11.6465)
(-3.23134e-21 6.78569 11.7085)
(9.63769e-20 9.39423 16.1549)
(7.2132e-20 8.89772 15.3683)
(7.23272e-20 8.81277 15.189)
(6.92046e-20 8.80337 15.2067)
(-5.68553e-19 8.81235 15.2079)
(-4.44026e-19 8.80462 15.2154)
(-4.16075e-19 8.80817 15.2171)
(-4.32792e-19 8.8036 15.2232)
(-4.32563e-19 8.80511 15.2261)
(-4.4639e-19 8.80212 15.2317)
(-4.44243e-19 8.80274 15.2356)
(-4.52762e-19 8.80081 15.2409)
(-4.45267e-19 8.80055 15.2459)
(-4.46994e-19 8.80054 15.2506)
(-4.61476e-19 8.79691 15.2564)
(-4.48831e-19 8.79801 15.2521)
(-4.13688e-19 8.87401 15.4123)
(-5.12731e-19 9.33365 16.19)
(-5.60799e-19 6.848 11.9586)
(6.84529e-22 6.97128 12.0247)
(-1.89605e-20 9.35487 16.0919)
(-1.45942e-20 8.86505 15.3122)
(-1.45347e-20 8.79682 15.1642)
(-1.438e-20 8.78842 15.1811)
(1.16304e-19 8.79633 15.1821)
(9.40935e-20 8.78934 15.1891)
(8.65744e-20 8.79241 15.1909)
(8.85437e-20 8.78835 15.1966)
(9.05083e-20 8.78961 15.1996)
(9.47816e-20 8.78687 15.205)
(9.14875e-20 8.78755 15.2087)
(9.27003e-20 8.78548 15.2141)
(9.29559e-20 8.7858 15.2186)
(9.22462e-20 8.78501 15.2237)
(9.53182e-20 8.78295 15.229)
(9.37218e-20 8.78258 15.226)
(8.64379e-20 8.8448 15.3569)
(1.05533e-19 9.2928 16.1192)
(1.1226e-19 7.028 12.2681)
(-1.44404e-22 7.15505 12.3374)
(3.63064e-21 9.30928 16.0184)
(2.86044e-21 8.83428 15.2593)
(2.84661e-21 8.78113 15.1398)
(2.87294e-21 8.77353 15.1556)
(-2.27579e-20 8.78046 15.1565)
(-1.88489e-20 8.77422 15.163)
(-1.72224e-20 8.77681 15.1651)
(-1.74388e-20 8.77328 15.1704)
(-1.81125e-20 8.77427 15.1735)
(-1.91318e-20 8.77185 15.1787)
(-1.79602e-20 8.77253 15.1822)
(-1.79928e-20 8.7704 15.1877)
(-1.85586e-20 8.77121 15.1918)
(-1.82559e-20 8.76971 15.1973)
(-1.87072e-20 8.76913 15.2021)
(-1.85467e-20 8.76746 15.2007)
(-1.72604e-20 8.81756 15.3049)
(-2.06833e-20 9.2462 16.0389)
(-2.14829e-20 7.20639 12.5746)
(3.20304e-23 7.33782 12.6486)
(-7.09145e-22 9.25842 15.9358)
(-5.71268e-22 8.80612 15.2109)
(-5.669e-22 8.76638 15.117)
(-5.80252e-22 8.75936 15.1314)
(4.41223e-21 8.76538 15.1323)
(3.70045e-21 8.75986 15.1384)
(3.39414e-21 8.76197 15.1406)
(3.43361e-21 8.75897 15.1456)
(3.58754e-21 8.75964 15.1487)
(3.78703e-21 8.75757 15.1536)
(3.49035e-21 8.75817 15.1571)
(3.44751e-21 8.75606 15.1625)
(3.64706e-21 8.75724 15.1662)
(3.60578e-21 8.75513 15.1722)
(3.64338e-21 8.75591 15.1763)
(3.61718e-21 8.75305 15.1767)
(3.41669e-21 8.79274 15.2571)
(4.01797e-21 9.19429 15.9497)
(4.08286e-21 7.38372 12.8791)
(-7.67855e-24 7.51934 12.9574)
(1.48303e-22 9.20192 15.8434)
(1.22488e-22 8.78031 15.1666)
(1.19381e-22 8.75223 15.0952)
(1.25106e-22 8.74565 15.1081)
(-8.84377e-22 8.75085 15.109)
(-7.47265e-22 8.74602 15.1146)
(-6.93704e-22 8.74767 15.117)
(-7.0714e-22 8.74521 15.1216)
(-7.32653e-22 8.74555 15.1249)
(-7.68595e-22 8.74386 15.1295)
(-7.04435e-22 8.74431 15.133)
(-6.87889e-22 8.74234 15.1383)
(-7.33658e-22 8.74376 15.1417)
(-7.4271e-22 8.74118 15.1479)
(-7.43179e-22 8.74316 15.1514)
(-7.34779e-22 8.73924 15.1537)
(-7.03177e-22 8.77024 15.2133)
(-8.13328e-22 9.13695 15.8512)
(-8.04657e-22 7.56001 13.1816)
(1.9503e-24 7.69989 13.2645)
(-3.37579e-23 9.13993 15.7414)
(-2.86618e-23 8.75696 15.1265)
(-2.69816e-23 8.73878 15.0745)
(-2.93958e-23 8.73252 15.0858)
(1.89736e-22 8.73697 15.0868)
(1.615e-22 8.73283 15.0919)
(1.52586e-22 8.73399 15.0945)
(1.57526e-22 8.73206 15.0987)
(1.59346e-22 8.73207 15.1021)
(1.66243e-22 8.73078 15.1064)
(1.53153e-22 8.73102 15.1099)
(1.49154e-22 8.72929 15.115)
(1.56861e-22 8.73078 15.1182)
(1.64035e-22 8.72793 15.1246)
(1.64477e-22 8.73089 15.1275)
(1.62115e-22 8.72601 15.1316)
(1.5572e-22 8.75008 15.1733)
(1.77746e-22 9.07421 15.7437)
(1.69443e-22 7.73533 13.4819)
(-5.03695e-25 7.87976 13.5702)
(8.14026e-24 9.07251 15.6298)
(7.10502e-24 8.73614 15.0909)
(6.43867e-24 8.72619 15.055)
(7.3235e-24 8.72014 15.0647)
(-4.37545e-23 8.72389 15.0658)
(-3.75183e-23 8.72046 15.0704)
(-3.61518e-23 8.7211 15.0731)
(-3.78012e-23 8.71967 15.077)
(-3.70414e-23 8.71937 15.0804)
(-3.85522e-23 8.71842 15.0844)
(-3.58517e-23 8.7184 15.0879)
(-3.51423e-23 8.71702 15.0927)
(-3.60555e-23 8.71832 15.0959)
(-3.85981e-23 8.71547 15.1022)
(-3.90745e-23 8.7191 15.1046)
(-3.86021e-23 8.71341 15.1105)
(-3.69498e-23 8.73226 15.1373)
(-4.1761e-23 9.00612 15.6274)
(-3.80245e-23 7.9097 13.7798)
(1.28438e-25 8.05938 13.8752)
(-1.99621e-24 8.99948 15.5081)
(-1.78908e-24 8.7178 15.0597)
(-1.57512e-24 8.71455 15.0366)
(-1.85406e-24 8.70878 15.0447)
(1.05669e-23 8.71174 15.0461)
(9.11509e-24 8.70916 15.0501)
(8.93715e-24 8.70929 15.0529)
(9.43083e-24 8.7083 15.0564)
(8.9878e-24 8.70781 15.0598)
(9.34035e-24 8.70712 15.0635)
(8.7622e-24 8.70686 15.0671)
(8.67417e-24 8.70588 15.0715)
(8.72259e-24 8.70673 15.0749)
(9.39385e-24 8.70428 15.0808)
(9.57464e-24 8.70799 15.0831)
(9.51446e-24 8.70176 15.0903)
(9.09461e-24 8.71697 15.1052)
(1.02027e-23 8.93308 15.5027)
(8.84835e-24 8.08319 14.0752)
(-3.20004e-26 8.23966 14.1804)
(4.84541e-25 8.9206 15.3748)
(4.45496e-25 8.70165 15.0324)
(3.8586e-25 8.70362 15.0189)
(4.64223e-25 8.69851 15.0253)
(-2.58605e-24 8.70034 15.0269)
(-2.24365e-24 8.69873 15.0302)
(-2.22576e-24 8.6984 15.033)
(-2.35828e-24 8.6977 15.0361)
(-2.21001e-24 8.69712 15.0394)
(-2.29029e-24 8.69657 15.0428)
(-2.16456e-24 8.69617 15.0463)
(-2.15837e-24 8.69556 15.0503)
(-2.14925e-24 8.69586 15.054)
(-2.2989e-24 8.69426 15.0593)
(-2.3391e-24 8.69726 15.0619)
(-2.33841e-24 8.6913 15.07)
(-2.25041e-24 8.70425 15.0762)
(-2.51056e-24 8.85558 15.3705)
(-2.07907e-24 8.25516 14.3662)
(7.88386e-27 8.42319 14.4926)
(-1.16523e-25 8.83808 15.2311)
(-1.09909e-25 8.69069 15.012)
(-9.45697e-26 8.69522 15.0051)
(-1.15167e-25 8.69182 15.0089)
(6.35192e-25 8.69212 15.0105)
(5.55335e-25 8.69115 15.0126)
(5.53586e-25 8.69035 15.0148)
(5.85897e-25 8.68951 15.0171)
(5.46346e-25 8.68862 15.0197)
(5.64126e-25 8.68775 15.0224)
(5.37056e-25 8.68689 15.0254)
(5.3593e-25 8.68605 15.0287)
(5.33035e-25 8.68543 15.0321)
(5.63521e-25 8.68433 15.0364)
(5.67086e-25 8.68532 15.0397)
(5.69758e-25 8.68103 15.0469)
(5.5705e-25 8.69107 15.0483)
(6.18578e-25 8.77264 15.2324)
(4.91154e-25 8.42326 14.6449)
(-1.6194e-27 8.61058 14.8239)
(2.30981e-26 8.7527 15.0801)
(2.24278e-26 8.69281 15.0032)
(1.92398e-26 8.695 15.0014)
(2.37739e-26 8.69442 15.0021)
(-1.28607e-25 8.69407 15.0026)
(-1.14672e-25 8.69366 15.0031)
(-1.13615e-25 8.69304 15.0038)
(-1.195e-25 8.69232 15.0046)
(-1.12046e-25 8.69143 15.0056)
(-1.15414e-25 8.69038 15.0067)
(-1.10943e-25 8.68914 15.008)
(-1.10048e-25 8.68772 15.0095)
(-1.09636e-25 8.68604 15.0113)
(-1.1486e-25 8.68417 15.0133)
(-1.13729e-25 8.68208 15.0156)
(-1.14823e-25 8.67892 15.0189)
(-1.14569e-25 8.67938 15.02)
(-1.27123e-25 8.69418 15.0844)
(-9.72311e-26 8.5934 14.8933)
(4.64914e-27 -2.57128 16.9886)
(4.27867e-26 -8.03718 13.613)
(-1.07079e-27 -5.17505 14.455)
(-7.0877e-25 -4.9994 14.0546)
(-2.75422e-24 -4.09125 14.004)
(-5.01021e-24 -3.54122 13.8196)
(-7.50617e-25 -2.98137 13.6515)
(2.51312e-23 -2.52883 13.455)
(9.26042e-23 -2.1432 13.2501)
(2.13808e-22 -1.83881 13.0398)
(3.76776e-22 -1.61167 12.8284)
(5.38309e-22 -1.45952 12.6082)
(6.35348e-22 -1.37279 12.361)
(6.13198e-22 -1.35141 12.06)
(4.61612e-22 -1.40996 11.6782)
(2.40601e-22 -1.5214 11.2262)
(5.99706e-23 -1.71182 10.6798)
(2.13484e-24 -2.26382 9.76028)
(4.03613e-23 -2.38731 8.40453)
(3.72684e-23 0.27869 6.28912)
(2.85941e-26 -11.1093 28.2943)
(1.50836e-25 -16.8954 24.801)
(-4.8592e-25 -11.9059 25.1926)
(-3.37089e-24 -12.5242 23.489)
(-8.12823e-24 -10.7747 22.7494)
(-6.16185e-24 -10.0811 21.6677)
(2.38413e-23 -9.05656 20.7636)
(1.03992e-22 -8.24704 19.8321)
(2.26537e-22 -7.43816 18.951)
(3.26945e-22 -6.70458 18.0786)
(2.90837e-22 -6.00482 17.2018)
(5.12126e-24 -5.34665 16.28)
(-5.41737e-22 -4.73418 15.2672)
(-1.12188e-21 -4.18719 14.0853)
(-1.28768e-21 -3.70807 12.647)
(-8.19368e-22 -3.24278 10.9155)
(-2.1526e-22 -2.70012 8.81953)
(-4.69225e-22 -2.03129 6.07605)
(-2.17972e-21 -1.01449 2.49359)
(-3.27215e-21 0.380427 -0.908645)
(3.97449e-26 -14.1987 30.533)
(-3.62324e-25 -18.019 27.7636)
(-1.89943e-24 -13.4027 27.6136)
(-6.00163e-24 -14.2262 25.3328)
(-1.04088e-23 -12.1654 24.4218)
(4.66411e-25 -11.6512 22.8958)
(5.86778e-23 -10.5281 21.7461)
(1.79984e-22 -9.76568 20.521)
(2.84417e-22 -8.93557 19.4065)
(1.21746e-22 -8.17676 18.2704)
(-6.77503e-22 -7.34496 17.0091)
(-2.24604e-21 -6.32522 15.346)
(-3.87845e-21 -4.94069 12.9385)
(-4.07152e-21 -3.19783 9.67702)
(-2.16478e-21 -1.46332 6.07829)
(1.78277e-22 -0.12307 2.90628)
(3.7319e-22 0.965108 0.19616)
(-3.33933e-21 1.99276 -2.29433)
(-1.12505e-20 2.5999 -3.58546)
(-1.58071e-20 1.50699 -1.8115)
(-1.47999e-27 -15.6551 31.605)
(3.49225e-25 -18.693 28.9031)
(-6.53087e-25 -14.6308 28.6138)
(-3.53031e-24 -15.7221 26.0686)
(-8.29431e-24 -13.4764 25.2053)
(-3.82777e-24 -13.3445 23.4273)
(4.54165e-23 -12.1312 22.2864)
(1.66917e-22 -11.5847 20.9327)
(2.89136e-22 -10.7879 19.7946)