/*--------------------------------*- C++ -*----------------------------------*\
| =========                 |                                                 |
| \\      /  F ield         | OpenFOAM: The Open Source CFD Toolbox           |
|  \\    /   O peration     | Version:  4.1                                   |
|   \\  /    A nd           | Web:      www.OpenFOAM.org                      |
|    \\/     M anipulation  |                                                 |
\*---------------------------------------------------------------------------*/
FoamFile
{
    version     2.0;
    format      ascii;
    class       surfaceScalarField;
    location    "2";
    object      phi;
}
// * * * * * * * * * * * * * * * * * * * * * * * * * * * * * * * * * * * * * //

dimensions      [0 3 -1 0 0 0 0];

internalField   nonuniform List<scalar> 
2360
(
65429.1
71964.8
-6535.73
71964.8
71964.8
79798.8
-7833.94
79798.8
79798.8
79798.8
88229.4
-8430.58
88229.4
88229.4
99091.1
-10861.8
99091.1
99091.1
112930
-13838.6
112930
112930
123737
-10807.3
123737
123737
130374
139147
148022
156816
165860
175022
19554.1
164705
28925
38318.1
47714.1
57069.7
66445.8
75720.1
85066.8
94236.8
103564
112652
122045
130850
141032
2018.07
139014
2018.06
2018.06
2018.06
-12920.7
14938.7
-12920.7
-12920.6
-12920.6
3315.22
-16235.9
3315.23
3315.23
17586.6
-14271.3
17586.6
17586.6
17586.6
1045.84
16540.8
1045.8
1045.8
1045.78
-136258
137304
-126082
-117282
-107909
-98838.2
-89521.8
-80361.4
-71021.3
-61750.2
-52370.2
-43006.3
-33604.3
-24210.1
-14844.2
-171017
165398
-161890
-152858
-144016
-135237
-126533
-119656
-119656
-119656
-96246.7
-23409.3
-96246.8
-96246.7
-86909.6
-9337.12
-86909.6
-86909.6
-78127.3
-8782.33
-78127.3
-78127.3
-70586.8
-7540.49
-70586.8
-70586.8
-70586.8
-63095.7
-7491.09
-63095.7
-63095.7
-56664.3
-6431.43
-2266.58
-5180.73
-2522.71
-8806.86
-2904.51
-11226.3
-3407.73
-13951.1
-4040.8
-16841.1
-4823.01
-20101.6
-5781
-23815.3
-6949.59
-28151.6
-8358.52
-33268.1
-10060.6
-39042.8
-12100.4
-45341.1
-13990.3
-54342.9
-12333.3
-74024
-8270.29
-78014.5
3245
-38378
9939.31
56393
10211.9
88260.3
9318.46
90460.5
65515.8
-3361.27
-5019.32
-3729.44
-8438.69
-4283.49
-10672.3
-5005.66
-13228.9
-5909.07
-15937.7
-7020.56
-18990.1
-8380.96
-22454.9
-10043.1
-26489.5
-12030.8
-31280.4
-14443.6
-36630.1
-17549.4
-42235.2
-20190.1
-51702.3
-19497.3
-74716.9
-16350.4
-81161.3
-3554.78
-51173.7
7064.16
45774
7843.85
87480.7
7442.37
90862
65467.1
-4048.1
-4804.34
-4497.61
-7989.18
-5165.34
-10004.6
-6027.61
-12366.6
-7101.36
-14863.9
-8417.65
-17673.8
-10028
-20844.6
-12006.9
-24510.6
-14360.2
-28927.2
-17216.4
-33773.8
-21374.7
-38076.9
-25973.2
-47103.7
-30326.8
-70363.3
-32651.4
-78836.8
-21928.4
-61896.7
-1420.38
25266.1
4677.72
81382.6
4903.27
90636.5
62829.9
-4798.73
-4509.93
-5368.52
-7419.39
-6181.65
-9191.43
-7219.45
-11328.8
-8501.92
-13581.5
-10063.6
-16112.2
-11964.3
-18943.9
-14327.3
-22147.6
-17177.2
-26077.2
-21041.1
-29909.9
-27267.4
-31850.7
-36836
-37535.1
-49706.7
-57492.5
-64494.8
-64048.6
-59712.4
-66679.1
-20905.3
-13541.1
-136.684
60614
1756.11
88743.7
55803.7
-5567.05
-4117.94
-6279.39
-6707.05
-7255.35
-8215.46
-8487.49
-10096.7
-9996.65
-12072.3
-11815.6
-14293.2
-14004.2
-16755.3
-16803.2
-19348.5
-20375.7
-22504.7
-25311.3
-24974.3
-31992.3
-25169.7
-49281.7
-20245.7
-78669.6
-28104.7
-106901
-35817
-109460
-64119.8
-60856.2
-62145.4
-12368.7
12126.5
542.962
75832
47009.5
-6384.27
-3607.67
-7267.71
-5823.61
-8431.87
-7051.3
-9886.86
-8641.69
-11650.9
-10308.3
-13747.9
-12196.2
-16226.8
-14276.4
-19567.9
-16007.5
-23185.3
-18887.3
-29037.5
-19122.1
-39803.5
-14403.7
-62363.2
2313.97
-97873.5
7405.62
-127818
-5872.84
-137150
-54787.3
-108134
-91161.7
-42936.8
-53070.5
12915.4
19979.7
36515.6
-7278.82
-2956.55
-8366.06
-4736.36
-9748.34
-5669.01
-11460.1
-6929.91
-13513.2
-8255.2
-15917.1
-9792.35
-18629
-11564.4
-21323.1
-13313.3
-25453.8
-14756.7
-33604.1
-10971.7
-47716.4
-291.364
-65815.8
20413.3
-86938.3
28528.1
-99284.8
6473.61
-101993
-52079.2
-108953
-84201.4
-115518
-46505.7
-123568
28030.2
78344.9
-8270.23
-2141.77
-9596.24
-3410.35
-11227.9
-4037.36
-13232.2
-4925.59
-15617.3
-5870.12
-18411.6
-6998.03
-21661.2
-8314.83
-25570
-9404.57
-30444.1
-9882.55
-36279.5
-5136.31
-44036.9
7465.97
-49855.6
26232.1
-53013
31685.5
-47663.9
1124.53
-47887.7
-51855.5
-76246
-55843.1
-121103
-1648.62
-145410
52337.1
70238.9
-9341.88
-1149.76
-10930.8
-1821.39
-12831.7
-2136.48
-15153.5
-2603.84
-17910.6
-3112.96
-21164.5
-3744.15
-24984.7
-4494.63
-29283.5
-5105.77
-34205.8
-4960.21
-37898.8
-1443.32
-38891.4
8458.54
-31998.5
19339.2
-19338.9
19025.9
-13759.5
-4454.82
-30447.8
-35167.2
-62989.6
-23301.3
-81094
16455.8
-67878.9
39122
18900.7
-10300.6
-0.227782
-12120.9
-1.13165
-14254.3
-3.03479
-16851.2
-7.00928
-19948.1
-15.9993
-23655.5
-36.7855
-28065.9
-84.1904
-32990.6
-181.082
-37630.3
-320.504
-39227.2
153.52
-33334.3
2565.68
-12358.2
-1636.89
11593.9
-4926.23
4953.86
2185.24
-31008.3
794.917
-58871.7
4562.17
-50649.2
8233.27
-13900.6
2373.39
-9271.13
-10300.6
1149.28
-12120.9
1819.18
-14254.6
2130.65
-16852.2
2590.56
-19951.1
3082.93
-23663.2
3675.29
-28082
4334.68
-33008.2
4745.05
-37499.6
4170.9
-38496.6
1150.52
-29141.9
-6788.94
-12110
-18668.8
3735.46
-20771.7
2091.29
3829.42
-32192.6
35078.8
-58487.4
30856.9
-47652
-2602.13
-10399
-34879.6
-35905.9
-9342.12
2141.33
-10931.4
3408.47
-12833.2
4032.48
-15157.3
4914.68
-17920.5
5846.09
-21189.5
6944.3
-25045
8190.16
-29429.4
9129.49
-34144.4
8885.89
-38180.2
5186.26
-37506.6
-7462.49
-30705.2
-25470.2
-21777.2
-29699.8
-15680.7
-2267.08
-31256.2
50654.4
-61432.4
61033.1
-77755.8
13721.3
-66078.9
-46556.6
-87046.1
-8270.8
2956.24
-9597.41
4735.09
-11230.6
5665.68
-13238.6
6922.65
-15632.3
8239.77
-18445.5
9757.53
-21712.2
11456.8
-25292.2
12709.6
-29928.5
13522.1
-36043.8
11301.6
-43616.2
109.87
-50838.4
-18247.9
-53778.8
-26759.4
-49485.4
-6560.44
-48815.1
49984.1
-73751
85968.9
-115057
55027.4
-139420
-22193.5
-87452.4
-7279.65
3607.57
-8367.68
5823.12
-9751.93
7049.94
-11468.2
8638.97
-13532.5
10304
-15970.9
12195.9
-18841.6
14327.5
-22583.2
16451.1
-26823.1
17762
-33926.2
18404.7
-46619.3
12803
-66222.5
1355.25
-86692.7
-6289.25
-100041
6787.39
-102404
52348
-104347
87911.7
-105843
56523.4
-116404
-11632.8
-39151.2
-6385.25
4118.08
-7269.57
6707.43
-8435.85
8216.22
-9895.41
10098.5
-11669.3
12077.9
-13786.5
14313.2
-16290.1
16831.1
-19449.1
19610.1
-24134.4
22447.3
-30590.4
24860.7
-40443.7
22656.3
-61301.2
22212.8
-93252.1
25661.6
-122515
36050.7
-132512
62344.1
-109604
65003.6
-60108
7027.93
-12734.4
-59006.5
-62692.9
-5568.07
4510.34
-6281.26
7420.62
-7259.24
9194.2
-8495.5
11334.8
-10012.6
13595
-11844
16144.6
-14035.5
19022.6
-16725.2
22299.9
-20271
25993.1
-25246.3
29835.9
-34460
31869.9
-51503.2
39256.1
-76402.4
50560.9
-102361
62008.9
-109234
69217.6
-74870.6
30640.1
-25529
-42313.6
3648.42
-88183.9
-72883.1
-4799.65
4804.99
-5370.2
7991.16
-6185.03
10009
-7226.18
12375.9
-8514.48
14883.3
-10083.6
17713.7
-11982.8
20921.9
-14305.6
24622.7
-17226.5
28914
-21104
33713.4
-27968.3
38734.2
-37806.4
49094.2
-51797.7
64552.2
-67432.5
77643.7
-66673.3
68458.4
-30368.8
-5664.45
-809.296
-71873.1
5809.45
-94802.7
-77935.5
-4048.83
5020.17
-4498.9
8441.23
-5167.91
10678
-6032.57
13240.6
-7110.21
15960.9
-8430.72
19034.2
-10039.8
22531
-12009
26591.9
-14447.1
31352.1
-17581.6
36847.9
-22139.3
43291.9
-27118.2
54073
-32280.7
69714.8
-37035.7
82398.6
-30163.2
61585.9
-4614.4
-31213.3
7263.26
-83750.7
6873.6
-94413
-79492.4
-3361.68
5181.7
-3730.17
8809.72
-4284.95
11232.8
-5008.47
13964.1
-5913.95
16866.4
-7027.4
20147.6
-8387.1
23890.7
-10049.7
28254.5
-12096
33398.4
-14675.7
39427.6
-17974.7
46590.9
-20701.2
56799.6
-20957.6
69971.2
-17965
79406
-5777.32
49398.3
7404.41
-44395
8932.54
-85278.9
8412.69
-93893.2
-78913.7
-2266.65
-2522.86
-2904.86
-3408.44
-4042.05
-4824.62
-5782.08
-6951.4
-8381.06
-10138.5
-12216.7
-13787.3
-12965.3
-7989.65
2033.06
9831.75
10634.3
9793.2
1468.06
-8105.08
2798.98
-10103.9
3596.23
-9672.02
3908.6
-9106.28
3944.88
-9081.03
3751.71
-8968.33
3500.98
-8986.64
3096.78
-8966.71
2707.21
-9003.53
2332.88
-9021.77
1986.82
-9009.58
1679.91
-9069.24
1402.86
-8997.23
1173.4
-9117.3
964.789
-8961.41
792.699
-9155.64
623.026
-8917.6
466.133
-9236.06
284.42
-8623.24
-9897.81
585.891
-8691
690.055
-10208.1
572.925
-9554.92
409.636
-8943.02
359.072
-9030.5
346.728
-8956.01
403.597
-9043.54
435.774
-8998.91
458.376
-9026.16
461.463
-9024.88
464.073
-9012.21
447.769
-9052.96
443.004
-8992.49
414.42
-9088.74
417.614
-8964.63
386.857
-9124.9
410.882
-8941.64
384.268
-9209.46
449.52
-8688.5
-9448.3
508.353
-9199.37
848.833
-10548.6
1004.98
-9711.09
1012.05
-8950.11
970.108
-8988.58
918.573
-8904.51
865.159
-8990.15
810.688
-8944.47
761.936
-8977.43
708.088
-8971.06
665.155
-8969.3
610.543
-8998.38
577.796
-8959.76
519.962
-9030.93
500.463
-8945.15
438.919
-9063.37
436.342
-8939.08
369.545
-9142.67
406.085
-8725.05
-9042.21
538.987
-9738.37
862.869
-10872.5
1005.89
-9854.13
1013.73
-8957.96
977.678
-8952.55
938.402
-8865.25
905.454
-8957.22
867.769
-8906.8
831.748
-8941.42
790.207
-8929.54
755.012
-8934.12
708.392
-8951.77
677.807
-8929.19
625.513
-8978.65
603.323
-8922.97
544.187
-9004.25
531.566
-8926.46
459.778
-9070.9
450.456
-8715.74
-8591.75
554.098
-10292.5
955.339
-11273.7
1163.34
-10062.1
1195.33
-8989.97
1123.09
-8880.34
1050.92
-8793.11
984.299
-8890.63
924.372
-8846.9
866.044
-8883.12
807.764
-8871.28
757.202
-8883.58
700.185
-8894.78
660.26
-8889.28
603.336
-8921.74
575.134
-8894.79
513.952
-8943.08
495.078
-8907.6
419.999
-8995.83
424.283
-8720.04
-8167.47
592.346
-10884.8
1126.09
-11807.5
1423.62
-10359.7
1497.71
-9064.07
1407.21
-8789.84
1309.97
-8695.88
1220.89
-8801.54
1141.65
-8767.68
1061.97
-8803.44
984.234
-8793.55
913.039
-8812.39
837.18
-8818.92
776.809
-8828.92
701.497
-8846.43
651.265
-8844.56
568.566
-8860.39
521.067
-8860.11
418.335
-8893.1
398.848
-8700.55
-7768.62
659.001
-11543.9
1362.69
-12511.2
1744.59
-10741.6
1821.58
-9141.07
1713.51
-8681.78
1585.06
-8567.45
1477.11
-8693.61
1373.54
-8664.12
1272.65
-8702.56
1172.16
-8693.07
1077.14
-8717.39
978.55
-8720.34
890.584
-8740.96
790.72
-8746.58
706.064
-8759.91
593.721
-8748.05
501.015
-8767.4
363.299
-8755.39
312.729
-8649.99
-7455.89
792.955
-12336.8
1591.91
-13310.1
1942.73
-11092.4
1915.98
-9114.31
1841.15
-8606.94
1720.8
-8447.1
1638.65
-8611.44
1531.43
-8556.89
1430.59
-8601.72
1320.32
-8582.8
1210.71
-8607.77
1094.33
-8603.96
978.547
-8625.17
851.664
-8619.69
725.037
-8633.28
578.2
-8601.21
430.927
-8620.13
255.91
-8580.37
166.519
-8560.6
-7289.38
1000.74
-13337.6
1532.13
-13841.5
1561.87
-11122.2
1344.28
-8896.75
1465.63
-8728.31
1452.95
-8434.44
1480.72
-8639.24
1430.73
-8506.92
1382.46
-8553.47
1304.59
-8504.95
1214.19
-8517.39
1107.29
-8497.09
985.848
-8503.74
850.048
-8483.91
698.755
-8482
534.919
-8437.39
353.139
-8438.36
159.267
-8386.5
35.3236
-8436.66
-7254.05
1103.55
-14441.1
733.716
-13471.7
330.908
-10719.4
270.482
-8836.31
700.18
-9158
894.393
-8628.65
1076.49
-8821.32
1152.12
-8582.54
1200.04
-8601.38
1198.74
-8503.64
1161.7
-8480.34
1094.33
-8429.72
996.031
-8405.43
876.323
-8364.19
730.527
-8336.2
574.111
-8280.97
390.93
-8255.17
193.206
-8188.77
46.3364
-8289.79
-7207.72
745.975
-15187.1
-508.243
-12217.5
-684.923
-10542.7
-182.603
-9338.63
368.392
-9708.99
767.387
-9027.64
1034.93
-9088.86
1235.11
-8782.73
1355.18
-8721.46
1421.03
-8569.49
1425.75
-8485.05
1387.1
-8391.07
1305.13
-8323.45
1192.57
-8251.63
1049.41
-8193.04
887.34
-8118.89
694.683
-8062.51
460.802
-7954.89
270.013
-8098.99
-6937.7
-122.31
-15064.7
-813.005
-11526.7
-231.575
-11124.1
625.035
-10195.2
1108.33
-10192.3
1606.23
-9525.51
1878.62
-9361.22
2126.36
-9030.43
2257.21
-8852.28
2331.71
-8643.96
2328.75
-8482.07
2269.39
-8331.69
2157.14
-8211.18
2002.81
-8097.28
1811.37
-8001.57
1583.4
-7890.9
1312.06
-7791.16
960.009
-7602.82
628.279
-7767.25
-6309.42
-606.276
-14458.5
313.677
-12446.7
1335.22
-12145.6
2243.06
-11103
2747.51
-10696.7
3260.46
-10038.4
3554.36
-9655.11
3792.54
-9268.6
3907.01
-8966.74
3945.16
-8682.1
3895.12
-8432.03
3770.71
-8207.27
3578.57
-8019.03
3326.6
-7845.3
3018.94
-7693.9
2648.36
-7520.31
2203.04
-7345.82
1641.48
-7041.24
1009.15
-7134.9
-5300.27
-162.854
-14295.6
1648.84
-14258.3
2863.73
-13360.5
3793.68
-12033
4479.14
-11382.1
5055.6
-10614.9
5460.36
-10059.8
5738.07
-9546.29
5880.51
-9109.16
5909.57
-8711.14
5828.9
-8351.33
5645.91
-8024.26
5365.95
-7739.04
4993.64
-7472.97
4527.37
-7227.61
3956.8
-6949.72
3265.14
-6654.15
2437.24
-6213.33
1389.67
-6087.31
-3910.6
697.717
-14993.3
2219.33
-15779.9
3435.41
-14576.5
4364.01
-12961.5
5248.42
-12266.5
5953.42
-11319.9
6540.86
-10647.3
6959.18
-9964.6
7229.23
-9379.19
7350.81
-8832.7
7331.6
-8332.11
7172.62
-7865.26
6872.01
-7438.42
6427.31
-7028.25
5832.04
-6632.33
5079.29
-6196.95
4166.55
-5741.4
3109.2
-5155.96
1691.8
-4669.9
-2218.8
1393.03
-16386.3
1973.83
-16360.7
2818.24
-15420.9
3589.45
-13732.7
4469.14
-13146.2
5199.72
-12050.4
5898.22
-11345.7
6456.13
-10522.5
6903.54
-9826.58
7205.74
-9134.88
7361.26
-8487.61
7351.93
-7855.91
7162.26
-7248.74
6780.57
-6646.53
6207.38
-6059.13
5450.2
-5439.75
4513.58
-4804.78
3335.43
-3977.8
1683.73
-3018.18
-535.073
1112.73
-17499
799.749
-16047.7
1109.3
-15730.5
1550.88
-14174.3
2100.76
-13696.1
2670.44
-12620.1
3285.51
-11960.8
3889.24
-11126.2
4488.18
-10425.5
5036.48
-9683.17
5519.68
-8970.81
5901.76
-8237.98
6154.98
-7501.95
6265.62
-6757.17
6250.59
-6044.08
6094.42
-5283.58
5619.69
-4330.04
4387.59
-2745.68
2354.26
-984.829
1819.19
-726.924
-16772.1
-1951.52
-14823.1
-2682.54
-14999.4
-3047.38
-13809.4
-3321.33
-13422.1
-3313.45
-12628
-3190.91
-12083.3
-2882.26
-11434.8
-2451.55
-10856.2
-1892.89
-10241.8
-1234.96
-9628.73
-489.29
-8983.63
338.413
-8329.64
1279.04
-7697.79
2350.93
-7115.96
3454.22
-6386.86
4080.02
-4955.82
3435.54
-2101.2
1355.42
1095.3
3174.61
-2167.55
-14604.5
-4414.24
-12576.4
-6692.46
-12721.2
-8514.95
-11987
-10237
-11700
-11594.3
-11270.7
-12748.8
-10928.8
-13611.6
-10572
-14238.4
-10229.5
-14600.1
-9880.11
-14708.4
-9520.44
-14548.9
-9143.11
-14125
-8753.54
-13446.3
-8376.45
-12537.4
-8024.84
-11343.2
-7581.08
-9653.55
-6645.48
-7069.3
-4685.44
-3866.55
-2107.44
-691.948
-5504.53
-8980.95
-12602.2
-15489.1
-18089.1
-20259.9
-22088.6
-23560.7
-24690.1
-25470.2
-25890.7
-25933.8
-25587.3
-24863.8
-23788.6
-22269.7
-19815.2
-15400.6
-8408.05
-5504.71
14604.7
-8981.66
12577
-12603.4
12721.7
-15491.1
11987.7
-18092
11700.9
-20263.9
11271.8
-22093.8
10930
-23567.3
10573.5
-24698.3
10231
-25480.2
9881.87
-25902.5
9522.29
-25947.3
9144.87
-25602.4
8755.1
-24880.3
8377.89
-23806
8025.71
-22285.1
7579.08
-19822.4
6637.34
-15397.1
4674.66
-8404.21
2107.14
695.794
-2168.12
16772.9
-4412.96
14821.8
-6691.1
14999.9
-8513.25
13809.9
-10235.3
13423
-11592.3
12628.8
-12746.9
12084.7
-13609.9
11436.5
-14237.2
10858.3
-14599.7
10244.4
-14709.4
9631.93
-14551.7
8987.23
-14130.1
8333.56
-13454.1
7701.83
-12547.1
7118.79
-11352.7
6384.66
-9659.27
4943.9
-7070.27
2085.68
-3865.53
-1097.58
-3169.74
-719.648
17492.5
-1946.71
16048.9
-2674.16
15727.4
-3034.47
14170.2
-3304.31
13692.9
-3292.73
12617.3
-3165.96
11957.9
-2853.25
11123.8
-2418.38
10423.5
-1855.86
9681.94
-1194.43
8970.53
-446.073
8238.9
383.797
7503.71
1325.77
6759.88
2397
6047.58
3495.03
5286.64
4108.38
4330.57
3448.11
2745.96
1362.12
988.443
-1807.62
1135.54
16357
828.43
16356
1143.42
15412.4
1588.75
13724.9
2152.38
13129.2
2734.43
12035.2
3361.97
11330.4
3974.94
10510.8
4581.49
9816.94
5136.09
9127.35
5624.48
8482.16
6009.99
7853.39
6264.16
7249.56
6373.04
6651.01
6353.58
6067.05
6188.61
5451.63
5699.17
4820.02
4446.63
3998.51
2389.48
3045.62
581.857
1431.7
14925.3
2032.96
15754.8
2888.14
14557.2
3673.73
12939.3
4561.46
12241.5
5304.28
11292.4
6020.47
10614.2
6597.97
9933.33
7062.76
9352.16
7377.39
8812.74
7539.83
8319.73
7532.1
7861.14
7339.32
7442.35
6949.91
7040.44
6364.65
6652.33
5589.36
6226.93
4629.36
5780.04
3421.06
5206.81
1739.9
4726.8
2321.76
881.003
14044.3
2308.69
14327.1
3689.94
13176
4818.91
11810.4
5869.15
11191.3
6681.48
10480.1
7320.89
9974.81
7746.63
9507.6
7997.25
9101.53
8085.82
8724.18
8024.91
8380.65
7816.83
8069.23
7460.91
7798.27
6954.97
7546.39
6293.49
7313.81
5467.67
7052.75
4476.77
6770.94
3329.8
6353.79
1829.34
6227.27
4151.11
461.244
13583.1
2013.46
12774.9
3568
11621.4
4817.93
10560.4
5937.02
10072.2
6747.21
9669.93
7262.04
9459.99
7497.59
9272.07
7516.32
9082.81
7386.42
8854.09
7143.62
8623.46
6804.14
8408.72
6372.99
8229.42
5853.94
8065.45
5244.9
7922.86
4533.99
7763.66
3705.22
7599.72
2735.35
7323.66
1555.32
7407.32
5706.42
301.517
13281.6
1114.65
11961.8
1974.75
10761.3
2705.3
9829.91
3438.68
9338.82
4008.13
9100.47
4402.66
9065.46
4614.03
9060.69
4656.19
9040.64
4575.47
8934.82
4407.95
8790.97
4179.21
8637.45
3895.26
8513.37
3563.33
8397.37
3185.61
8300.58
2755.62
8193.65
2260.72
8094.62
1659.16
7925.22
995.912
8070.57
6702.33
272.213
13009.4
372.446
11861.5
497.86
10635.9
667.783
9659.99
899.208
9107.4
1140.17
8859.52
1377.23
8828.42
1591.12
8846.82
1751.29
8880.48
1850.44
8835.69
1883
8758.43
1860.66
8659.81
1785.5
8588.55
1669.35
8513.54
1516.53
8453.41
1330.96
8379.23
1103.45
8322.14
802.484
8226.19
523.455
8349.6
7225.79
346.861
12662.5
403.802
11804.6
456.079
10583.7
524.608
9591.46
597.393
9034.61
676.348
8780.56
769.887
8734.88
882.335
8734.37
997.851
8764.96
1092.77
8740.77
1134.95
8716.24
1128.18
8666.57
1076.07
8640.65
991.275
8598.33
874.857
8569.82
740.884
8513.2
574.629
8488.39
371.137
8429.68
207.866
8512.87
7433.65
459.574
12202.9
650.943
11613.2
781.773
10452.8
870.55
9502.69
905.14
9000.03
910.529
8775.18
907.767
8737.64
919.106
8723.04
941.525
8742.55
952.817
8729.48
933.509
8735.55
882.443
8717.65
802.629
8720.47
702.34
8698.63
577.079
8695.08
444.525
8645.76
285.734
8647.18
117.417
8597.99
-0.0862916
8630.37
7433.57
497.929
11705
751.173
11360
922.897
10281.1
1030.79
9394.79
1055.46
8975.35
1037.33
8793.3
996.763
8778.2
959.287
8760.51
919.33
8782.5
873.093
8775.72
816.543
8792.1
745.351
8788.82
661.874
8803.91
566.21
8794.26
456.037
8805.23
336.163
8765.61
199.849
8783.47
56.1031
8741.72
-14.1264
8700.58
7419.44
489.863
11215.1
740.095
11109.7
909.832
10111.4
1014.76
9289.85
1025.44
8964.67
996.428
8822.3
940.55
8834.07
889.679
8811.38
834.611
8837.57
790.694
8819.64
733.691
8849.11
672.126
8850.38
608.631
8867.41
534.225
8868.66
460.502
8878.95
366.427
8859.68
273.037
8876.86
153.943
8860.81
118.572
8735.95
7538.01
483.832
10731.3
705.859
10887.7
856.716
9960.49
951.113
9195.44
950.964
8964.8
921.811
8851.43
867.669
8888.18
820.951
8858.06
770.612
8887.9
715.855
8874.37
671.329
8893.6
624.549
8897.13
585.866
8906.06
533.933
8920.57
496.715
8916.15
429.408
8926.97
382.123
8924.13
289.247
8953.68
276.459
8748.73
7814.47
488.93
10242.3
682.627
10694
809.732
9833.37
888.569
9116.59
879.214
8974.15
851.762
8878.87
805.359
8934.57
766.299
8897.1
724.482
8929.69
683.048
8915.78
647.894
8928.74
607.027
8937.97
581.326
8931.75
539.316
8962.56
521.715
8933.73
469.109
8979.56
451.521
8941.71
377.161
9028.03
378.239
8747.64
8192.71
494.319
9748
672.43
10515.9
778.714
9727.07
835.032
9060.25
815.296
8993.86
786.064
8908.08
745.191
8975.43
710.114
8932.15
674.267
8965.52
637.546
8952.48
608.749
8957.51
572.505
8974.19
553.199
8951.04
515.921
8999.82
506.783
8942.86
462.917
9023.41
460.986
8943.63
401.668
9087.34
415.309
8733.99
8608.02
506.69
9241.29
683.421
10339.1
768.983
9641.5
809.215
9020.01
799.162
9003.9
782.628
8924.6
760.984
8997.05
738.312
8954.8
716.677
8987.13
688.719
8980.42
667.057
8979.16
633.235
9008
615.19
8969.06
574.761
9040.23
563.995
8953.61
515.361
9072.03
513.112
8945.87
451.16
9149.28
446.241
8738.9
9054.26
503.876
8737.41
738.177
10104.8
858.668
9521
904.11
8974.56
879.717
9028.29
841.747
8962.56
794.009
9044.78
745.633
9003.17
701.888
9030.87
653.463
9028.83
616.494
9016.11
567.96
9056.52
541.595
8995.42
490.059
9091.76
477.317
8966.34
422.113
9127.23
426.516
8941.46
366.52
9209.27
404.521
8700.89
9458.78
489.059
8248.34
554.26
10039.6
452.219
9623.03
284.912
9141.85
233.396
9079.79
220.304
8975.64
272.286
8992.79
315.861
8959.58
350.421
8996.3
364.621
9014.62
377.385
9003.34
370.848
9063.05
375.495
8990.77
356.581
9110.67
369.952
8952.96
349.584
9147.59
385.14
8905.9
370.728
9223.68
442.619
8629
9901.4
1371.84
2706.99
3551
3850.47
3898.86
3747.17
3515.05
3108.71
2710.89
2323.41
1962.88
1645.94
1365.65
1136.11
928.758
759.923
595.365
445.484
274.361
)
;

boundaryField
{
    outletWall
    {
        type            calculated;
        value           nonuniform List<scalar> 
60
(
-56664.3
-62628.8
-89567.1
-88532.9
-63087.3
26862.8
73951.5
72367.1
56232.8
47380.9
40744.9
34677.1
29320.2
24773.3
20883.8
17474.2
14454.3
11608.1
9062.99
5286.5
2160.84
3200.14
3833.65
4505
5175.81
5874.73
6628.32
7455.89
8350.06
9151.08
9151.11
8349.86
7455.45
6627.69
5874
5175.06
4504.32
3833.12
3199.86
2160.8
-65429.1
-75656.2
-93052.1
-86081.4
-52193.7
39375.5
74430.3
69149.3
58370.2
48669.1
41185
34828
29423.8
24848.1
20930.2
17500
14467.7
11614.8
9065.93
5287.52
)
;
    }
    fineWalls
    {
        type            calculated;
        value           uniform 0;
    }
    fineFrontAndBack
    {
        type            calculated;
        value           nonuniform List<scalar> 
960
(
-1.92929e-14
-1.49541e-13
-1.95972e-13
-2.06695e-13
-8.30866e-13
1.31341e-13
3.57509e-13
-1.39358e-12
9.20603e-13
2.16047e-12
3.68798e-12
-2.08708e-11
-2.65752e-12
4.71035e-12
2.53315e-12
-1.46522e-11
-2.78522e-11
-2.58298e-10
-6.03499e-11
-5.7959e-11
-1.05983e-11
-1.35653e-11
-1.72198e-11
-1.95838e-11
-2.08372e-11
-2.28837e-11
-5.74612e-10
-3.38657e-11
-3.51706e-11
-3.6393e-11
-3.71935e-11
-3.71303e-11
-3.73143e-11
-3.67358e-11
-3.64244e-11
-3.56059e-11
-3.39805e-11
-2.81843e-11
-3.42439e-11
-2.21607e-11
-3.26466e-10
-6.31051e-12
-1.14225e-11
-2.98009e-11
-2.26919e-10
2.11296e-13
1.5493e-11
1.73234e-11
7.56521e-11
1.27727e-11
3.42606e-12
-8.40342e-11
-1.06283e-11
-7.31774e-12
-4.8571e-12
-3.93134e-11
-1.2783e-11
-1.03904e-11
-6.38288e-13
3.58321e-10
2.41047e-11
3.3848e-11
2.98502e-11
3.33551e-11
3.46002e-11
3.64318e-11
3.78162e-11
3.8515e-11
3.73635e-11
3.60151e-11
3.52442e-11
3.51441e-11
3.41746e-11
6.11166e-10
2.38515e-11
1.95395e-11
1.86494e-11
1.46272e-11
7.29492e-12
-1.32738e-12
-4.2324e-11
-4.06886e-11
-1.86559e-10
-3.17686e-11
-3.32199e-11
-1.62274e-10
-2.14701e-11
-1.25141e-11
-8.70476e-12
1.68561e-12
3.14813e-12
1.80471e-11
3.24602e-12
3.41983e-12
1.83051e-12
-5.79934e-13
-8.64597e-13
-1.34153e-12
-5.42001e-12
-3.85381e-13
1.33489e-14
3.8661e-14
6.07772e-14
5.86933e-14
3.09417e-14
4.04919e-14
1.47297e-13
2.99093e-13
3.88526e-13
3.97828e-13
3.9043e-13
3.68016e-13
1.50589e-13
-5.20822e-13
-7.1826e-13
-3.48125e-13
-1.59019e-13
-5.46863e-14
-2.71417e-13
4.68619e-14
1.60938e-13
2.82646e-13
3.23859e-13
2.32401e-13
2.07389e-13
5.55537e-13
1.23115e-12
1.8109e-12
2.03534e-12
2.0072e-12
1.69313e-12
1.62556e-13
-2.28086e-12
-3.96262e-12
-8.02042e-13
-2.54659e-13
-3.21538e-13
-7.5426e-13
8.96007e-14
3.35874e-13
6.0567e-13
7.12757e-13
5.24216e-13
4.19443e-13
1.06943e-12
2.4788e-12
3.78916e-12
4.36541e-12
4.27612e-12
3.14938e-12
-1.27319e-12
-7.63722e-12
-1.31704e-11
-2.18252e-12
-8.73804e-13
1.54589e-12
-1.57656e-12
7.46923e-14
4.16124e-13
8.50954e-13
1.07385e-12
7.78316e-13
4.08094e-13
1.07576e-12
3.09666e-12
5.32648e-12
6.61343e-12
6.70467e-12
4.0891e-12
-6.99245e-12
-2.23037e-11
-4.00031e-11
-1.61426e-11
6.77418e-13
-3.81236e-12
-7.73508e-12
-2.6796e-13
-1.89628e-13
2.99025e-13
7.48953e-13
3.7954e-13
-9.21696e-13
-1.70632e-12
-4.15266e-13
2.76133e-12
5.53273e-12
7.53694e-12
3.97002e-12
-1.94178e-11
-5.9995e-11
-9.71426e-11
-8.00074e-11
4.95308e-12
2.51273e-12
1.84453e-11
-1.5595e-12
-2.69952e-12
-2.48436e-12
-1.74008e-12
-2.38032e-12
-6.31739e-12
-1.20817e-11
-1.48058e-11
-8.88724e-12
-2.42909e-12
5.81062e-12
4.12649e-13
-3.42659e-11
-9.27379e-11
-1.65455e-10
-2.08263e-10
-1.07842e-10
1.9056e-11
-2.93001e-11
-4.70312e-12
-8.66718e-12
-9.48876e-12
-9.14959e-12
-1.13843e-11
-2.09793e-11
-3.6995e-11
-4.93842e-11
-4.41391e-11
-1.97098e-11
3.86315e-14
-2.21083e-12
-3.00073e-11
-7.44351e-11
-1.38171e-10
-2.53737e-10
-2.23389e-10
4.13685e-10
8.85011e-10
-1.00904e-11
-1.85681e-11
-2.21818e-11
-2.53887e-11
-3.32836e-11
-5.22022e-11
-8.19046e-11
-1.08654e-10
-1.01966e-10
-6.30971e-11
-1.49349e-11
-2.34098e-12
-8.27139e-12
6.90887e-13
1.56857e-11
-1.48328e-10
-4.81019e-10
-3.27591e-10
2.77411e-10
-1.55625e-11
-2.86112e-11
-3.78151e-11
-5.10165e-11
-7.24321e-11
-1.04422e-10
-1.44519e-10
-1.82462e-10
-1.91844e-10
-1.22763e-10
-2.58756e-11
1.4769e-11
2.03995e-11
5.805e-11
1.50025e-10
-1.12253e-10
-4.35513e-10
-6.36235e-10
-3.39426e-10
-1.29351e-11
-2.46432e-11
-3.83933e-11
-6.33303e-11
-1.0194e-10
-1.51259e-10
-1.94556e-10
-2.15588e-10
-2.78703e-10
-2.96207e-10
-2.56404e-10
-1.54896e-10
-1.16151e-11
-3.75942e-11
2.49691e-10
-7.34085e-11
-2.05566e-10
-3.3436e-10
-2.2256e-10
1.72303e-11
2.98512e-11
3.5679e-11
3.70696e-11
3.18131e-11
2.07586e-11
-9.44508e-12
-6.08099e-11
-4.39871e-11
-2.37584e-11
-3.30964e-12
8.54517e-13
-4.09492e-12
-1.40498e-11
5.86717e-11
2.44982e-11
1.34483e-10
2.53934e-10
2.21866e-10
1.83368e-11
3.27438e-11
3.79902e-11
3.69473e-11
2.87405e-11
1.60489e-11
3.71619e-12
-1.39863e-12
8.94046e-12
1.10672e-11
8.25924e-12
2.61413e-12
-5.82565e-12
-2.37344e-11
-2.49558e-11
8.52248e-11
4.25381e-10
6.39547e-10
2.60626e-10
1.14449e-11
2.09166e-11
2.30619e-11
1.94899e-11
1.19384e-11
6.08831e-12
6.53387e-12
1.27535e-11
1.60502e-11
1.22486e-11
5.12176e-12
2.20327e-12
1.95519e-12
-6.42388e-12
-1.11653e-11
1.27904e-10
4.68912e-10
3.47668e-10
-2.24098e-10
5.21139e-12
9.60945e-12
9.93667e-12
6.92351e-12
2.77441e-12
1.9978e-12
6.04716e-12
1.11203e-11
1.13841e-11
7.98747e-12
8.90124e-13
2.90007e-12
2.31864e-11
5.719e-11
1.12082e-10
2.2767e-10
2.60363e-10
-2.65134e-10
-7.90353e-10
1.69499e-12
2.91488e-12
2.47276e-12
8.11872e-13
-5.32088e-13
5.42868e-13
3.73347e-12
6.39025e-12
6.51075e-12
3.65837e-12
-3.29963e-13
3.65179e-12
3.07531e-11
8.10756e-11
1.44801e-10
1.9656e-10
1.46472e-10
-7.60492e-12
-9.14382e-11
2.82504e-13
1.58896e-13
-4.80287e-13
-1.23488e-12
-1.23385e-12
2.70602e-14
1.73015e-12
2.72224e-12
2.7116e-12
1.26659e-12
-9.62526e-13
1.70999e-12
2.27751e-11
6.02561e-11
1.02388e-10
1.11029e-10
5.62358e-11
3.83635e-12
-4.17862e-12
-8.41798e-14
-4.78351e-13
-1.00945e-12
-1.34522e-12
-1.01638e-12
-1.19903e-13
6.10388e-13
8.03406e-13
7.07105e-13
8.61771e-14
-1.09588e-12
2.58351e-14
1.05156e-11
3.33715e-11
5.74859e-11
4.97169e-11
5.90632e-12
-2.48722e-12
-2.36072e-13
-9.74831e-14
-3.73745e-13
-6.92638e-13
-8.44612e-13
-5.92312e-13
-1.07846e-13
1.47044e-13
8.16215e-14
-3.55995e-14
-2.69092e-13
-7.4556e-13
-5.91254e-13
3.25357e-12
1.45922e-11
2.77833e-11
1.93471e-11
-1.33528e-12
3.23086e-13
9.36284e-13
-5.05983e-14
-1.76684e-13
-3.17296e-13
-3.73425e-13
-2.47312e-13
-4.76314e-14
8.57651e-15
-8.36849e-14
-1.72729e-13
-2.60569e-13
-4.05053e-13
-4.43569e-13
5.47855e-13
4.55921e-12
1.10352e-11
3.00176e-12
-4.86729e-13
-2.59094e-13
-1.72821e-12
-1.4382e-14
-4.20486e-14
-6.71677e-14
-6.5642e-14
-2.5793e-14
7.754e-15
-1.18219e-14
-5.87211e-14
-9.32426e-14
-1.18441e-13
-1.31815e-13
-1.35071e-13
-4.89765e-14
5.07026e-13
1.88294e-12
-1.40277e-13
-8.73836e-13
2.04662e-13
-1.42326e-12
1.92929e-14
1.49541e-13
1.95972e-13
2.06695e-13
8.30866e-13
-1.31341e-13
-3.57509e-13
1.39358e-12
-9.20603e-13
-2.16047e-12
-3.68798e-12
2.08708e-11
2.65752e-12
-4.71035e-12
-2.53315e-12
1.46522e-11
2.78522e-11
2.58298e-10
6.03499e-11
5.7959e-11
1.05983e-11
1.35653e-11
1.72198e-11
1.95838e-11
2.08372e-11
2.28837e-11
5.74612e-10
3.38657e-11
3.51706e-11
3.6393e-11
3.71935e-11
3.71303e-11
3.73143e-11
3.67358e-11
3.64244e-11
3.56059e-11
3.39805e-11
2.81843e-11
3.42439e-11
2.21607e-11
3.26466e-10
6.31051e-12
1.14225e-11
2.98009e-11
2.26919e-10
-2.11296e-13
-1.5493e-11
-1.73234e-11
-7.56521e-11
-1.27727e-11
-3.42606e-12
8.40342e-11
1.06283e-11
7.31774e-12
4.8571e-12
3.93134e-11
1.2783e-11
1.03904e-11
6.38288e-13
-3.58321e-10
-2.41047e-11
-3.3848e-11
-2.98502e-11
-3.33551e-11
-3.46002e-11
-3.64318e-11
-3.78162e-11
-3.8515e-11
-3.73635e-11
-3.60151e-11
-3.52442e-11
-3.51441e-11
-3.41746e-11
-6.11166e-10
-2.38515e-11
-1.95395e-11
-1.86494e-11
-1.46272e-11
-7.29492e-12
1.32738e-12
4.2324e-11
4.06886e-11
1.86559e-10
3.17686e-11
3.32199e-11
1.62274e-10
2.14701e-11
1.25141e-11
8.70476e-12
-1.68561e-12
-3.14813e-12
-1.80471e-11
-3.24602e-12
-3.41983e-12
-1.83051e-12
5.79934e-13
8.64597e-13
1.34153e-12
5.42001e-12
3.85381e-13
-1.33489e-14
-3.8661e-14
-6.07772e-14
-5.86933e-14
-3.09417e-14
-4.04919e-14
-1.47297e-13
-2.99093e-13
-3.88526e-13
-3.97828e-13
-3.9043e-13
-3.68016e-13
-1.50589e-13
5.20822e-13
7.1826e-13
3.48125e-13
1.59019e-13
5.46863e-14
2.71417e-13
-4.68619e-14
-1.60938e-13
-2.82646e-13
-3.23859e-13
-2.32401e-13
-2.07389e-13
-5.55537e-13
-1.23115e-12
-1.8109e-12
-2.03534e-12
-2.0072e-12
-1.69313e-12
-1.62556e-13
2.28086e-12
3.96262e-12
8.02042e-13
2.54659e-13
3.21538e-13
7.5426e-13
-8.96007e-14
-3.35874e-13
-6.0567e-13
-7.12757e-13
-5.24216e-13
-4.19443e-13
-1.06943e-12
-2.4788e-12
-3.78916e-12
-4.36541e-12
-4.27612e-12
-3.14938e-12
1.27319e-12
7.63722e-12
1.31704e-11
2.18252e-12
8.73804e-13
-1.54589e-12
1.57656e-12
-7.46923e-14
-4.16124e-13
-8.50954e-13
-1.07385e-12
-7.78316e-13
-4.08094e-13
-1.07576e-12
-3.09666e-12
-5.32648e-12
-6.61343e-12
-6.70467e-12
-4.0891e-12
6.99245e-12
2.23037e-11
4.00031e-11
1.61426e-11
-6.77418e-13
3.81236e-12
7.73508e-12
2.6796e-13
1.89628e-13
-2.99025e-13
-7.48953e-13
-3.7954e-13
9.21696e-13
1.70632e-12
4.15266e-13
-2.76133e-12
-5.53273e-12
-7.53694e-12
-3.97002e-12
1.94178e-11
5.9995e-11
9.71426e-11
8.00074e-11
-4.95308e-12
-2.51273e-12
-1.84453e-11
1.5595e-12
2.69952e-12
2.48436e-12
1.74008e-12
2.38032e-12
6.31739e-12
1.20817e-11
1.48058e-11
8.88724e-12
2.42909e-12
-5.81062e-12
-4.12649e-13
3.42659e-11
9.27379e-11
1.65455e-10
2.08263e-10
1.07842e-10
-1.9056e-11
2.93001e-11
4.70312e-12
8.66718e-12
9.48876e-12
9.14959e-12
1.13843e-11
2.09793e-11
3.6995e-11
4.93842e-11
4.41391e-11