/*--------------------------------*- C++ -*----------------------------------*\
| =========                 |                                                 |
| \\      /  F ield         | OpenFOAM: The Open Source CFD Toolbox           |
|  \\    /   O peration     | Version:  4.1                                   |
|   \\  /    A nd           | Web:      www.OpenFOAM.org                      |
|    \\/     M anipulation  |                                                 |
\*---------------------------------------------------------------------------*/
FoamFile
{
    version     2.0;
    format      ascii;
    class       volVectorField;
    location    "12";
    object      U;
}
// * * * * * * * * * * * * * * * * * * * * * * * * * * * * * * * * * * * * * //

dimensions      [0 1 -1 0 0 0 0];

internalField   nonuniform List<vector> 
1280
(
(6.92751e-18 8.65678 0.266189)
(1.19815e-17 10.9415 -1.50289)
(-2.21032e-16 9.97853 -1.42767)
(-1.84664e-16 10.248 -1.30423)
(-1.63589e-16 13.1613 -4.10358)
(-8.58618e-17 11.3725 -3.59253)
(9.3581e-17 13.0365 -3.73518)
(-6.85661e-16 12.5351 -3.35437)
(1.04856e-15 16.2761 -7.56136)
(1.53379e-15 15.0781 -6.24106)
(2.93395e-15 16.3335 -5.46145)
(-2.15874e-15 20.3686 -11.6951)
(-4.4244e-15 19.3441 -9.7516)
(-4.66441e-15 21.2608 -8.6454)
(-1.27455e-14 26.8429 -18.1834)
(-1.10592e-14 25.7429 -14.625)
(-1.04151e-14 29.3718 -13.4589)
(-1.06496e-14 32.0282 -25.7077)
(-7.10811e-15 36.9446 -19.8166)
(-6.6124e-15 34.0467 -27.7536)
(-8.84843e-15 36.7273 42.3701)
(-1.10782e-14 36.6952 74.8497)
(-1.29683e-14 38.2247 91.07)
(-1.4621e-14 40.6716 98.6992)
(-1.61182e-14 42.0618 102.615)
(-1.70798e-14 45.0155 105.83)
(-1.91003e-14 39.012 82.219)
(-2.01319e-14 76.7273 129.44)
(-2.13591e-14 76.3496 129.43)
(-2.23518e-14 77.2322 128.364)
(-2.32004e-14 77.3427 127.004)
(-2.41138e-14 77.2591 125.246)
(-2.52877e-14 77.1023 123.148)
(-2.69039e-14 76.7671 120.792)
(-2.86886e-14 76.396 118.216)
(-3.05652e-14 75.8009 115.497)
(-3.26203e-14 75.3784 112.561)
(-3.56355e-14 74.3829 109.483)
(-3.59811e-14 74.2727 106.112)
(-5.24638e-14 72.1504 100.343)
(-4.9006e-14 87.2349 112.676)
(-3.00547e-14 54.3773 78.3213)
(-3.04655e-14 46.5558 77.0604)
(-3.06612e-14 36.4041 73.7182)
(-3.05227e-14 28.1472 72.3025)
(-1.5752e-14 17.1954 43.7035)
(-1.16974e-14 12.399 38.1954)
(-5.98301e-15 8.57958 27.9235)
(6.18934e-15 5.61361 9.6104)
(6.20953e-15 2.44079 -0.997415)
(5.42932e-15 2.87228 -4.51835)
(8.25914e-15 0.590844 -9.04908)
(4.95609e-15 -1.69176 7.30186)
(4.43128e-15 -2.13699 19.1006)
(4.80243e-15 -6.37565 31.7195)
(9.58847e-15 -14.6641 71.3629)
(1.05228e-14 -26.6446 84.9437)
(1.15941e-14 -37.2648 88.3228)
(1.34691e-14 -46.7132 87.995)
(3.70458e-14 -84.3247 124.643)
(6.27664e-14 -67.917 112.485)
(4.21875e-14 -69.8884 117.045)
(3.90017e-14 -69.7477 120.426)
(3.66168e-14 -70.3885 122.889)
(3.47995e-14 -70.388 125.338)
(3.33509e-14 -70.4976 127.181)
(3.22476e-14 -70.344 128.111)
(3.11581e-14 -70.0946 127.864)
(2.99866e-14 -69.656 126.724)
(2.88125e-14 -69.1191 125.309)
(2.76638e-14 -68.4626 123.933)
(2.64171e-14 -67.4128 122.343)
(2.53864e-14 -66.5958 119.851)
(2.03304e-14 -27.9904 67.5469)
(2.2127e-14 -32.8412 91.5187)
(2.06149e-14 -30.1344 87.6657)
(1.83631e-14 -29.5141 83.5566)
(1.55488e-14 -27.7305 77.4944)
(1.17892e-14 -26.1635 67.2183)
(6.06909e-15 -25.876 46.9854)
(-1.46687e-15 -21.7042 -15.02)
(-2.10895e-15 -27.6943 -15.3501)
(-2.67278e-15 -19.6183 -20.0239)
(-2.87124e-15 -19.4978 -9.71936)
(-2.88883e-15 -16.5602 -11.1858)
(-2.96809e-15 -16.4921 -14.1289)
(-1.00021e-15 -12.9307 -7.80096)
(-6.61736e-16 -11.2896 -8.90703)
(-4.48416e-16 -10.3076 -11.916)
(-3.28289e-17 -7.22866 -6.13968)
(6.28912e-16 -6.24996 -7.18701)
(1.78519e-15 -4.23157 -10.1956)
(3.16154e-16 -2.69903 -5.64575)
(-1.78445e-16 -1.84471 -6.01088)
(-1.95355e-16 -0.988914 -6.26998)
(-2.69992e-16 0.875802 -8.92015)
(-1.96189e-16 1.61281 -5.53281)
(9.42551e-17 2.61787 -4.81968)
(-7.46853e-16 3.13998 -7.01594)
(-7.40693e-16 4.8777 -7.3578)
(1.03289e-14 18.3322 43.5258)
(1.81087e-14 27.129 50.2614)
(2.09611e-14 27.0275 55.5789)
(2.4727e-14 20.5857 53.5273)
(3.15644e-14 -2.33093 34.8214)
(3.55624e-14 -23.0617 21.2053)
(3.57717e-14 -35.784 17.611)
(3.57201e-14 -41.4575 14.5337)
(3.54868e-14 -43.2541 10.943)
(3.46883e-14 -40.826 6.93048)
(3.26487e-14 -37.788 3.25325)
(2.80934e-14 -31.5366 0.515072)
(1.91333e-14 -6.4873 -3.62613)
(1.44626e-14 4.42349 -11.5222)
(1.00999e-14 4.13315 -15.375)
(5.88101e-15 -1.63658 -14.4307)
(1.70815e-15 -4.72261 -12.1556)
(-2.9191e-16 -4.62825 -10.1987)
(-5.49008e-16 1.5576 -8.7044)
(1.43997e-14 15.8555 55.5958)
(1.69048e-14 22.935 66.7202)
(1.32219e-14 25.892 72.7365)
(1.16068e-14 27.0247 71.7654)
(2.01191e-14 10.4292 50.0021)
(3.58339e-14 -18.8706 17.2871)
(3.60245e-14 -34.976 16.4334)
(3.56619e-14 -39.8296 15.6091)
(3.54707e-14 -41.2228 11.7846)
(3.46564e-14 -38.5068 7.74662)
(3.26037e-14 -35.6744 4.05662)
(2.80841e-14 -28.9893 0.79302)
(2.04526e-14 -1.22964 -6.89242)
(1.66009e-14 7.95523 -18.4001)
(1.29198e-14 5.35737 -24.8756)
(8.80738e-15 -2.59129 -23.393)
(3.91617e-15 -6.43094 -17.6334)
(8.09754e-16 -6.27965 -12.2936)
(5.89774e-17 -0.153263 -9.76902)
(1.15488e-14 13.5179 64.8878)
(6.56086e-15 20.0434 76.7729)
(-2.01921e-15 24.8554 81.7171)
(-7.1216e-15 30.1233 82.6054)
(1.07777e-15 21.7369 66.8657)
(2.85814e-14 -10.5953 24.8055)
(3.73241e-14 -34.4542 12.2847)
(3.56562e-14 -39.1403 16.7213)
(3.54047e-14 -39.6432 13.5219)
(3.45737e-14 -37.1746 9.18224)
(3.24391e-14 -34.4463 5.71126)
(2.80167e-14 -26.4983 1.85069)
(2.24648e-14 2.70567 -10.6933)
(1.68936e-14 11.6008 -22.7482)
(1.31084e-14 6.57165 -30.2732)
(1.02637e-14 -4.286 -30.7002)
(6.19421e-15 -8.87462 -25.039)
(2.54207e-15 -7.78547 -17.4082)
(8.51254e-16 1.45087 -13.1912)
(3.84894e-15 10.8936 74.2071)
(-8.74117e-15 16.6184 84.8685)
(-1.95783e-14 23.6662 86.4282)
(-2.53833e-14 32.7263 85.9078)
(-1.83655e-14 32.3722 76.041)
(1.07527e-14 3.33278 43.4863)
(3.77087e-14 -31.6269 11.1366)
(3.62662e-14 -40.0002 16.064)
(3.52338e-14 -38.3394 16.0748)
(3.44076e-14 -35.375 11.5369)
(3.2354e-14 -33.2172 8.00516)
(2.78332e-14 -23.3183 4.02989)
(2.14272e-14 7.73524 -14.3103)
(1.47e-14 15.457 -22.6708)
(1.1251e-14 8.64185 -27.8187)
(9.51286e-15 -4.67921 -30.9955)
(6.86414e-15 -11.6183 -28.6077)
(3.46415e-15 -11.7883 -20.3294)
(1.58943e-15 -4.52687 -15.616)
(-8.28592e-15 8.91481 79.7384)
(-2.40942e-14 15.3009 83.71)
(-3.09569e-14 24.3736 78.062)
(-3.32812e-14 34.4938 74.0214)
(-2.78867e-14 38.614 70.0958)
(-4.06723e-15 17.1349 55.4963)
(3.36413e-14 -24.6222 20.1613)
(3.77578e-14 -40.6295 14.6502)
(3.54522e-14 -38.085 18.3585)
(3.42727e-14 -34.3129 15.0929)
(3.12607e-14 -31.6007 16.1965)
(2.70106e-14 -16.4924 7.37987)
(1.53108e-14 13.5416 -12.2259)
(1.19197e-14 17.2502 -11.9686)
(1.07085e-14 9.97041 -12.5176)
(9.23061e-15 -3.93883 -18.3405)
(6.85376e-15 -12.2717 -24.0844)
(3.44847e-15 -12.3425 -19.318)
(1.99749e-15 1.67611 -15.1242)
(-1.86264e-14 9.07012 76.6407)
(-2.75825e-14 17.4569 68.9377)
(-2.48709e-14 27.4752 57.1005)
(-2.39074e-14 35.7372 52.2168)
(-2.41757e-14 39.7979 55.4109)
(-1.00467e-14 24.1773 58.2772)
(2.70235e-14 -16.2856 35.5702)
(3.86283e-14 -38.672 17.9178)
(3.61395e-14 -38.6007 19.5972)
(3.35551e-14 -33.887 19.0224)
(3.02179e-14 -30.5848 20.6474)
(2.54309e-14 -12.2856 11.451)
(1.17554e-14 15.8772 -1.96112)
(1.24149e-14 15.6747 8.08412)
(1.19901e-14 10.4922 10.2913)
(9.7423e-15 -1.34964 6.37369)
(6.52328e-15 -11.9701 -12.1643)
(3.11246e-15 -18.4139 -12.0402)
(1.9405e-15 -9.71834 -23.5286)
(-1.89885e-14 11.9807 63.8751)
(-1.49248e-14 22.9308 48.0833)
(-6.89016e-15 31.0017 38.562)
(-8.45763e-15 34.9769 38.1811)
(-1.66596e-14 36.4427 48.2389)
(-1.01917e-14 24.9028 61.1982)
(2.2167e-14 -9.39931 50.9488)
(3.72523e-14 -33.8071 29.1322)
(3.63342e-14 -38.5164 23.2987)
(3.2855e-14 -34.8468 24.6072)
(2.93426e-14 -29.4363 23.7657)
(2.15857e-14 -6.17517 13.0177)
(1.23923e-14 13.3885 15.3064)
(1.36981e-14 12.4043 29.2186)
(1.3357e-14 10.6097 35.4995)
(1.1403e-14 4.48066 33.6028)
(6.56961e-15 -2.60413 14.3522)
(1.03857e-15 -2.74377 -1.74703)
(2.07728e-15 14.1519 -28.7554)
(-9.99836e-15 15.6673 49.1091)
(-4.65118e-16 27.3143 35.6014)
(3.19793e-15 31.6461 34.9528)
(-4.25212e-15 31.7609 40.43)
(-1.53299e-14 31.0371 54.7352)
(-8.94915e-15 22.6451 69.8605)
(1.94316e-14 -3.91371 65.9895)
(3.4294e-14 -27.3856 46.1796)
(3.47074e-14 -36.5774 34.7598)
(3.10231e-14 -34.7606 34.029)
(2.59442e-14 -26.4229 30.6429)
(1.69339e-14 -5.72299 21.2082)
(1.35996e-14 8.495 38.0036)
(1.4591e-14 8.06511 53.6589)
(1.48479e-14 8.62601 64.451)
(1.63247e-14 5.90515 71.8028)
(1.94599e-14 0.101979 73.6358)
(2.37343e-14 -11.4866 75.972)
(3.12653e-14 -42.5291 93.5812)
(-9.60294e-16 17.8408 40.9553)
(4.92441e-15 28.3086 33.2417)
(1.58435e-15 29.2608 40.1715)
(-9.81035e-15 26.8886 49.7172)
(-1.77694e-14 25.1262 66.6918)
(-7.05159e-15 19.7851 81.5459)
(1.79768e-14 0.140372 80.5541)
(3.02226e-14 -21.5622 63.5226)
(3.04359e-14 -33.3028 50.0179)
(2.73732e-14 -33.2416 44.1036)
(2.26345e-14 -24.2894 38.7136)
(1.66143e-14 -8.98771 40.9242)
(1.39138e-14 0.0963082 66.6901)
(1.3564e-14 2.13314 81.4828)
(1.37475e-14 3.70469 92.754)
(1.54148e-14 1.46108 101.088)
(1.8851e-14 -3.17066 107.143)
(2.1707e-14 -8.83609 107.51)
(2.04949e-14 -15.0292 93.875)
(4.06943e-15 19.143 39.6744)
(4.83909e-15 27.2908 35.1246)
(-3.26053e-15 25.2205 45.5665)
(-1.62487e-14 20.9649 57.8337)
(-2.00174e-14 18.7458 77.0246)
(-6.20978e-15 16.6799 92.37)
(1.81154e-14 3.81652 94.948)
(2.56967e-14 -15.4397 80.1324)
(2.52943e-14 -28.5088 64.7458)
(1.95897e-14 -30.6543 55.4557)
(8.38036e-15 -25.2858 54.3465)
(-5.61851e-15 -16.4912 68.3688)
(8.28076e-15 -8.10634 90.0489)
(2.67452e-15 -2.55839 98.9013)
(3.09147e-15 0.630836 103.432)
(2.82999e-15 0.209184 104.543)
(3.03995e-15 -2.20908 100.638)
(4.75919e-15 -5.79672 84.5718)
(6.82212e-15 -8.36726 45.4764)
(6.316e-15 20.1154 40.708)
(4.40901e-15 25.6171 38.1663)
(-6.84452e-15 20.4051 48.4119)
(-2.18869e-14 14.1491 63.01)
(-2.50992e-14 11.6484 83.5518)
(-1.63238e-14 12.199 99.609)
(-1.28748e-15 5.18927 108.3)
(1.76529e-14 -9.68815 101.32)
(1.84615e-14 -23.0839 87.4778)
(1.19725e-14 -29.2666 78.5638)
(2.624e-15 -29.1434 80.3136)
(-5.64848e-15 -22.8221 90.9837)
(-9.56711e-15 -11.9951 99.2152)
(-1.62839e-14 -3.21011 100.822)
(-1.80923e-14 1.41582 101.763)
(-1.9738e-14 2.62085 101.15)
(-2.24657e-14 4.78877 96.9708)
(-2.29284e-14 10.5575 83.2948)
(-1.57754e-14 17.6843 49.1867)
(6.47777e-15 20.5701 41.3097)
(4.51004e-15 23.8475 40.7305)
(-8.70487e-15 15.4528 48.5673)
(-2.76354e-14 6.73269 64.4262)
(-3.17418e-14 4.43395 84.503)
(-2.29809e-14 6.58719 99.7441)
(-1.10852e-14 3.03355 112.946)
(-8.08544e-17 -7.46164 116.484)
(4.46651e-15 -19.3988 110.644)
(1.36777e-15 -27.8917 103.695)
(-6.75605e-15 -30.1815 100.066)
(-1.64127e-14 -23.8515 97.067)
(-2.48253e-14 -11.9176 90.7648)
(-2.93195e-14 -3.41914 85.956)
(-3.1677e-14 0.350253 85.6833)
(-3.48832e-14 1.98036 87.7546)
(-4.08515e-14 5.54301 91.1969)
(-4.58918e-14 12.9556 94.4785)
(-4.48797e-14 24.1293 87.9462)
(6.26618e-15 20.6317 41.5525)
(4.78479e-15 22.4143 41.6172)
(-8.1692e-15 11.1416 46.2219)
(-2.90029e-14 -0.249811 59.4174)
(-3.47148e-14 -2.20257 76.1773)
(-3.00762e-14 0.69103 90.363)
(-2.41561e-14 -1.38396 104.409)
(-1.80113e-14 -8.83347 113.169)
(-1.37563e-14 -18.0449 114.462)
(-1.42115e-14 -25.2591 109.259)
(-1.92973e-14 -26.5682 98.6651)
(-2.46862e-14 -19.3028 83.2701)
(-2.56721e-14 -7.94055 67.0448)
(-2.36223e-14 -1.38455 56.1664)
(-2.30315e-14 0.781145 50.2829)
(-2.49787e-14 0.845721 46.5415)
(-2.85846e-14 1.93027 42.4637)
(-3.47306e-14 9.6954 48.6203)
(-4.42219e-14 39.8587 74.5651)
(6.25906e-15 20.7565 41.5432)
(5.3527e-15 21.7058 41.5178)
(-5.85208e-15 8.59602 42.3998)
(-2.7421e-14 -5.28714 49.0862)
(-3.50296e-14 -7.86089 62.1372)
(-3.36714e-14 -4.76763 75.2616)
(-3.09508e-14 -5.96487 87.801)
(-2.83037e-14 -11.4151 96.6466)
(-2.5925e-14 -17.6981 99.5375)
(-2.47976e-14 -21.4785 93.8686)
(-2.46609e-14 -19.5616 78.742)
(-2.27762e-14 -11.0695 57.4589)
(-1.84427e-14 -1.44118 39.968)
(-1.50245e-14 2.85688 31.1527)
(-1.25447e-14 4.19901 24.7018)
(-9.97749e-15 5.16283 17.0991)
(-5.60967e-15 5.34091 6.27944)
(-9.14072e-16 0.570457 -1.57753)
(-5.95967e-15 -8.05439 -4.28212)
(6.03703e-15 20.7969 41.105)
(5.92335e-15 21.7726 41.2592)
(-1.95592e-15 8.38219 38.9175)
(-2.20461e-14 -8.12267 37.9672)
(-3.23934e-14 -12.7464 47.478)
(-3.40599e-14 -9.69508 59.3445)
(-3.29056e-14 -9.88431 69.989)
(-3.14585e-14 -13.4851 77.0265)
(-2.96329e-14 -16.8885 78.6213)
(-2.67935e-14 -16.9719 71.2141)
(-2.22397e-14 -12.2871 53.7182)
(-1.59178e-14 -3.87084 32.3105)
(-1.0474e-14 3.14423 17.1396)
(-8.58356e-15 5.16545 13.1714)
(-5.92287e-15 6.49421 8.97197)
(-3.69983e-15 7.89855 5.31047)
(-1.99319e-15 8.31911 0.254932)
(-6.69092e-16 9.54607 -1.57343)
(1.73315e-15 1.20795 -24.4559)
(5.72894e-15 20.7711 40.3824)
(6.16528e-15 22.3067 40.7876)
(1.80663e-15 10.3273 37.0035)
(-1.45544e-14 -8.51424 28.7089)
(-2.70736e-14 -16.3389 33.8547)
(-3.19378e-14 -13.7698 44.7823)
(-3.22739e-14 -12.986 54.2985)
(-3.09222e-14 -14.874 59.7908)
(-2.81323e-14 -15.3996 59.4513)
(-2.24928e-14 -11.4966 48.6096)
(-1.42128e-14 -3.77906 26.9432)
(-7.92131e-15 3.11107 8.17757)
(-4.18797e-15 5.62962 -1.1262)
(-4.45376e-15 5.62257 1.39337)
(-2.75976e-15 7.20129 0.614576)
(-1.48275e-15 8.77957 0.758744)
(-9.01143e-16 8.75298 -1.82974)
(-3.19091e-16 12.0516 -2.06546)
(1.77997e-15 5.5158 -18.5468)
(5.43834e-15 20.6734 39.4632)
(6.13086e-15 22.931 40.063)
(4.27091e-15 13.4946 36.5932)
(-6.79243e-15 -7.17625 23.1885)
(-1.98623e-14 -19.5475 22.2698)
(-2.7621e-14 -18.0265 31.7497)
(-3.01954e-14 -15.9267 40.8544)
(-2.89923e-14 -15.5121 45.6629)
(-2.40353e-14 -12.4097 42.7967)
(-1.47127e-14 -4.0768 26.3549)
(-7.09579e-15 4.35177 4.23841)
(-6.52597e-15 7.2246 -1.58413)
(-3.74225e-15 6.41314 -4.18349)
(-1.80534e-15 5.01072 -5.42401)
(-8.69784e-16 6.66791 -4.17208)
(-3.15008e-16 8.88942 -1.76269)
(-1.70068e-16 9.3438 -3.22621)
(-4.27688e-17 15.0465 -3.93642)
(-1.2607e-16 8.75315 -11.6331)
(5.18343e-15 20.5239 38.5324)
(5.97772e-15 23.3778 39.1021)
(5.41826e-15 16.97 36.6823)
(-3.06241e-16 -2.45634 22.2127)
(-1.20999e-14 -19.7743 13.6093)
(-2.13975e-14 -20.913 20.7349)
(-2.65166e-14 -18.5113 29.5637)
(-2.63023e-14 -15.707 34.1428)
(-2.01411e-14 -7.86599 28.9864)
(-1.12635e-14 3.42056 11.0953)
(-9.92747e-15 7.43598 2.3279)
(-7.79638e-15 7.13056 -0.47217)
(-3.92695e-15 7.20564 -3.69331)
(-1.02883e-15 5.57757 -6.60017)
(3.6993e-16 5.81721 -6.66176)
(4.49911e-16 8.41992 -3.27086)
(1.59606e-16 9.66506 -4.03311)
(-6.33242e-17 15.5182 -4.56396)
(-1.68149e-16 9.55134 -8.42705)
(4.9524e-15 20.4512 37.7093)
(5.82558e-15 23.563 38.051)
(5.73423e-15 19.2868 36.6971)
(3.32793e-15 2.28622 26.0111)
(-5.40784e-15 -20.1303 9.20165)
(-1.45713e-14 -24.7091 11.1346)
(-2.19844e-14 -21.295 19.5162)
(-2.39997e-14 -15.1631 25.2089)
(-1.84949e-14 -3.27895 19.5823)
(-1.24814e-14 7.1887 6.0058)
(-1.09506e-14 9.1171 2.45148)
(-7.51377e-15 8.71702 -1.37121)
(-3.48501e-15 8.36971 -3.9902)
(-7.24814e-16 6.14659 -5.8521)
(7.54882e-16 5.20253 -6.10309)
(6.11992e-16 7.79533 -3.43169)
(9.03271e-17 9.84141 -4.20119)
(-7.48457e-17 16.2464 -4.64942)
(-9.09e-17 10.1037 -6.74386)
(4.76405e-15 20.3536 37.1286)
(5.7064e-15 23.9382 37.0143)
(5.74693e-15 21.7022 36.0929)
(4.9241e-15 11.5598 31.1112)
(9.23803e-17 -13.3462 12.958)
(-5.97798e-15 -23.9191 6.23026)
(-1.25216e-14 -24.2721 9.14237)
(-1.71256e-14 -16.1749 13.778)
(-1.62263e-14 0.465396 11.2)
(-1.33594e-14 9.83039 4.95132)
(-1.10953e-14 11.2209 1.66168)
(-7.48142e-15 10.3201 -1.52224)
(-3.20998e-15 9.45545 -3.72408)
(-3.87068e-16 6.62763 -5.23962)
(8.296e-16 4.65897 -5.20836)
(4.9812e-16 7.6514 -3.27344)
(5.76591e-17 10.3171 -4.49391)
(-7.42878e-17 16.7134 -4.63974)
(-1.05091e-16 9.12956 -6.26665)
(5.48047e-16 85.7183 141.485)
(-7.36005e-16 153.014 258.241)
(-1.88846e-15 169.933 274.584)
(-2.66039e-15 163.079 257.273)
(-3.53606e-15 153.133 233.77)
(-4.82962e-15 143.737 212.134)
(-6.64773e-15 134.665 193.107)
(-7.62608e-15 127.17 177.565)
(-8.51699e-15 120.157 163.543)
(-9.64965e-15 113.276 150.722)
(-1.11263e-14 106.385 138.673)
(-1.29806e-14 99.2751 127.102)
(-1.52809e-14 91.849 115.836)
(-1.83817e-14 84.0794 104.749)
(-2.19133e-14 75.8508 93.7058)
(-2.6148e-14 67.1029 82.5222)
(-3.14493e-14 57.4664 70.7547)
(-3.71282e-14 46.7686 57.8984)
(-4.8495e-14 32.6491 40.9782)
(-9.01476e-14 16.8955 22.1082)
(-9.53872e-17 94.9834 154.395)
(5.60296e-15 161.598 269.756)
(3.75522e-15 169.404 277.483)
(3.49158e-15 158.095 256.294)
(2.29145e-15 146.513 233.862)
(4.63684e-15 137.268 214.748)
(4.76195e-15 129.496 198.072)
(3.52678e-15 122.045 181.897)
(2.34618e-15 114.339 165.91)
(8.83089e-16 106.351 150.086)
(-9.38332e-16 98.0341 134.549)
(-2.57882e-15 89.4065 119.318)
(-4.45725e-15 80.3964 104.382)
(-7.08991e-15 71.0185 89.5995)
(-1.00702e-14 61.0058 74.8371)
(-1.40521e-14 50.4511 59.6084)
(-1.99174e-14 38.5066 43.6238)
(-2.6699e-14 25.3322 24.5389)
(-3.83351e-14 4.53064 -1.80125)
(-1.0595e-13 -6.73322 -30.4906)
(-2.49544e-17 123.209 206.382)
(5.76624e-15 183.813 301.718)
(3.54631e-15 180.525 296.546)
(4.20622e-15 170.072 274.307)
(2.77891e-15 159.913 255.201)
(1.0551e-14 152.38 237.529)
(1.03473e-14 144.294 220.075)
(9.36652e-15 135.769 201.586)
(9.68519e-15 126.416 182.492)
(9.50234e-15 116.578 163.081)
(8.5732e-15 106.29 143.688)
(9.06903e-15 95.6218 124.433)
(9.00093e-15 84.4611 105.395)
(8.74654e-15 72.7865 86.4771)
(7.67131e-15 60.1911 67.6941)
(7.50162e-15 46.8953 48.5224)
(7.54061e-15 31.3987 29.9338)
(1.60008e-15 15.3209 8.97321)
(-9.61598e-15 -7.76646 -15.9945)
(-8.24665e-14 -19.2859 -51.5304)
(-1.10462e-17 150.603 260.573)
(-6.92447e-16 188.292 312.614)
(-4.77518e-16 173.226 296.933)
(-4.31148e-16 165.551 279.616)
(-8.95936e-16 155.943 265.848)
(1.22482e-14 148.217 250.217)
(1.04029e-14 137.663 232.393)
(1.09607e-14 126.241 211.964)
(1.32609e-14 113.612 190.601)
(1.38158e-14 100.582 168.504)
(1.38563e-14 86.826 145.851)
(1.80438e-14 72.3442 122.419)
(1.90946e-14 56.819 98.1028)
(2.38071e-14 40.0385 72.5204)
(3.31213e-14 21.6688 45.1611)
(5.71857e-14 1.04101 14.1439)
(1.17367e-13 -26.9246 -23.2418)
(8.83717e-14 -20.4551 -31.5123)
(4.09034e-14 -43.5133 -52.2439)
(-2.40594e-14 -36.0309 -76.1464)
(6.46853e-18 155.888 278.663)
(4.47492e-17 167.631 289.895)
(1.00236e-17 154.545 281.029)
(3.11966e-17 148.09 269.611)
(-1.94827e-16 136.595 256.95)
(-2.25777e-15 125.644 241.053)
(-1.9272e-15 111.446 221.911)
(-1.90107e-15 96.676 200.367)
(-2.01967e-15 81.0995 178.2)
(-1.98029e-15 65.2851 155.169)
(-1.98952e-15 48.7084 131.182)
(-1.92052e-15 31.5091 106.011)
(-5.58282e-16 13.7802 79.9705)
(1.84935e-15 -3.80937 53.6927)
(3.43638e-15 -19.8359 28.8688)
(1.43315e-16 -32.2952 8.15908)
(-9.98207e-15 -40.965 -9.71567)
(-1.9735e-14 -43.9102 -25.5496)
(-2.33835e-14 -33.5357 -23.3623)
(-1.115e-14 -6.9826 2.05804)
(1.66855e-19 134.643 241.508)
(1.66939e-17 144.992 260.056)
(2.33794e-17 135.765 252.184)
(3.12205e-17 125.386 239.401)
(9.35783e-17 112.049 224.354)
(2.5023e-16 98.6951 208.656)
(1.47268e-16 83.7851 190.658)
(9.40523e-17 68.0877 170.463)
(2.0488e-17 51.6921 148.999)
(-1.79182e-16 34.8651 126.397)
(-4.65257e-16 17.7066 103.128)
(-2.97434e-16 0.890251 79.9358)
(9.54516e-16 -14.3424 58.4335)
(1.91135e-15 -25.6577 41.287)
(-1.72092e-15 -29.7657 32.334)
(-1.2207e-14 -22.6825 37.1779)
(-2.36648e-14 -1.15092 61.4446)
(-2.55619e-14 33.2286 101.411)
(-1.47435e-14 66.2818 134.118)
(-1.27487e-15 57.3023 113.497)
(-1.27402e-18 119.61 209.351)
(-9.29028e-18 137.296 242.621)
(-1.1327e-17 129.274 229.41)
(-1.20644e-17 117.642 211.915)
(-7.53232e-18 104.676 192.81)
(4.03804e-18 93.2048 176.132)
(3.2164e-17 81.871 160.17)
(5.70532e-17 70.2933 142.161)
(8.01386e-17 58.0539 122.65)
(6.80828e-17 45.934 101.719)
(1.56635e-18 34.4129 80.8522)
(4.17834e-17 25.2698 62.6951)
(5.66961e-16 21.0859 52.1154)
(1.64285e-15 25.0394 54.732)
(2.62189e-15 38.4326 72.9015)
(3.1117e-15 58.6573 102.472)
(3.76711e-15 80.3544 134.379)
(4.86572e-15 94.7861 159.159)
(4.98791e-15 98.388 161.955)
(2.19027e-15 70.6366 127.347)
(5.5307e-19 117.658 203.419)
(2.9239e-18 143.458 247.693)
(3.36472e-18 136.577 233.514)
(3.26332e-18 125.81 212.903)
(-4.86218e-20 114.247 193.232)
(-8.46768e-18 106.142 176.764)
(-1.45997e-17 98.9511 164.289)
(-1.86835e-17 93.2803 151.791)
(-2.25372e-17 87.5576 139.942)
(-2.35747e-17 82.8142 127.911)
(-1.66514e-17 78.4131 115.722)
(-2.4496e-18 74.516 103.147)
(3.05636e-18 71.2618 91.0059)
(-2.32872e-17 69.2821 81.7599)
(-1.10751e-16 69.6623 78.4946)
(-2.851e-16 72.2789 83.5013)
(-5.14998e-16 76.4692 95.0577)
(-7.42321e-16 78.1702 107.499)
(-9.80845e-16 73.2021 109.272)
(-8.86167e-16 51.2206 84.1936)
(-1.83362e-19 120.119 207.768)
(-7.8231e-19 153.855 261.976)
(-8.81139e-19 144.701 245.805)
(-8.28309e-19 132.958 221.216)
(1.13183e-19 121.377 202.458)
(2.92975e-18 114.861 186.935)
(4.73484e-18 107.963 174.662)
(5.52592e-18 102.446 162.176)
(5.77749e-18 96.5588 150.598)
(5.78131e-18 91.2806 139.422)
(5.92719e-18 86.1978 128.839)
(6.0509e-18 81.3772 118.536)
(6.20557e-18 76.634 108.199)
(7.9216e-18 71.8665 97.6855)
(1.71835e-17 67.0443 87.5764)
(4.85913e-17 62.6295 79.1654)
(1.11167e-16 58.2544 73.7884)
(1.65574e-16 53.9302 70.0765)
(1.52918e-16 44.6907 63.6732)
(1.52114e-16 23.972 31.9084)
(5.13082e-20 124.444 215.918)
(1.91784e-19 162.764 274.134)
(2.18282e-19 147.594 252.775)
(2.11777e-19 135.243 224.205)
(-1.98647e-20 123.428 208.104)
(-7.83469e-19 118.216 193.223)
(-1.28165e-18 110.488 181.099)
(-1.43439e-18 104.593 167.782)
(-1.34448e-18 97.8147 155.466)
(-1.26689e-18 91.6745 143.203)
(-1.75398e-18 85.4806 131.542)
(-3.08164e-18 79.5246 120.332)
(-4.81662e-18 73.6057 109.628)
(-6.09855e-18 67.7567 99.1477)
(-5.95973e-18 61.4982 88.6267)
(-3.97197e-18 54.982 77.4583)
(-2.15176e-18 46.9433 65.7405)
(-3.54469e-18 38.4286 52.0478)
(6.3564e-19 23.3834 34.0205)
(3.73625e-17 3.68439 -4.13498)
(-1.31786e-20 133.162 232.527)
(-4.47611e-20 170.872 283.247)
(-5.27113e-20 148.183 256.517)
(-5.32536e-20 139.715 228.875)
(-5.51842e-22 127.82 215.969)
(1.86229e-19 123.975 200.533)
(3.14872e-19 115.625 188.487)
(3.39205e-19 110.305 174.796)
(2.81795e-19 103.642 162.461)
(2.56329e-19 97.8129 149.694)
(5.05933e-19 91.5438 137.097)
(1.15179e-18 85.0933 124.192)
(1.837e-18 78.0524 111.066)
(1.598e-18 70.4771 97.5894)
(-9.66241e-19 61.969 83.8532)
(-6.92455e-18 52.8739 69.3484)
(-1.54573e-17 41.785 53.8815)
(-2.36317e-17 30.0638 35.4982)
(-3.33016e-17 9.77046 10.6493)
(-1.92897e-17 -5.88057 -25.5633)
(2.95349e-21 145.085 257.696)
(1.03901e-20 175.878 287.355)
(1.25692e-20 147.699 260.698)
(1.30939e-20 145.79 237.42)
(1.63796e-21 132.502 226.726)
(-4.12605e-20 130.496 210.91)
(-7.30617e-20 121.578 199.857)
(-7.73899e-20 117.818 186.596)
(-5.96548e-20 111.638 175.19)
(-5.77335e-20 106.805 162.396)
(-1.45289e-19 100.496 148.887)
(-3.47579e-19 93.2867 133.541)
(-5.08198e-19 84.4304 116.774)
(-2.35786e-19 74.3214 98.7014)
(9.79187e-19 62.675 79.824)
(3.47927e-18 50.0647 59.7749)
(7.20645e-18 34.6928 38.7916)
(1.19444e-17 19.3948 15.69)
(1.82065e-17 -5.34139 -11.2214)
(-2.10212e-17 -17.8146 -47.7307)
(-6.51664e-22 154.848 282.01)
(-2.46806e-21 171.659 279.86)
(-2.99706e-21 144.232 263.016)
(-3.17686e-21 146.861 243.522)
(-5.77972e-22 131.195 234.928)
(9.43632e-21 130.703 219.655)
(1.70613e-20 120.407 211.046)
(1.81675e-20 118.195 199.456)
(1.30186e-20 111.352 190.385)
(1.15842e-20 106.563 177.856)
(4.23109e-20 97.7159 162.616)
(1.17288e-19 86.944 142.634)
(1.44371e-19 73.0771 119.826)
(-4.98223e-20 57.7999 95.0838)
(-5.81659e-19 40.9762 69.4846)
(-1.60036e-18 22.8605 41.9968)
(-2.79934e-18 0.211856 10.395)
(2.71934e-18 -14.4679 -20.0118)
(1.36361e-17 -35.7042 -42.4728)
(-1.21935e-17 -32.2315 -70.4704)
(1.57196e-22 153.193 284.459)
(6.12278e-22 159.909 263.265)
(7.49398e-22 136.76 255.767)
(7.91819e-22 138.506 237.063)
(-8.86753e-23 121.767 228.928)
(-2.66088e-21 119.924 214.468)
(-3.94017e-21 108.556 206.876)
(-3.81858e-21 105.021 196.577)
(-6.88322e-21 96.3271 188.298)
(-1.04915e-20 88.7731 174.91)
(1.33743e-20 75.5908 156.448)
(4.25849e-20 60.1611 131.524)
(-1.00794e-19 42.0558 103.82)
(-4.39212e-19 23.9668 75.2946)
(-6.65151e-19 6.21464 47.9281)
(-6.13576e-19 -10.3112 22.1619)
(1.4065e-18 -25.334 -2.80072)
(7.30254e-18 -35.4118 -24.0898)
(1.12461e-17 -31.6522 -26.7975)
(3.31789e-18 -9.36453 -4.5371)
(-4.05195e-23 144.108 270.531)
(-1.55344e-22 153.828 250.78)
(-1.9392e-22 128.165 242.868)
(-1.90126e-22 131.031 221.882)
(9.44919e-23 112.048 213.874)
(7.6909e-22 110.076 197.626)
(1.29146e-21 96.9359 188.959)
(6.88648e-22 91.7092 177.172)
(-2.52239e-21 81.4601 167.746)
(4.83022e-21 72.3042 154.334)
(5.21459e-20 59.2308 137.147)
(6.13662e-20 45.1609 115.319)
(-2.43021e-19 30.1262 91.1626)
(-8.01558e-19 15.7896 65.932)
(-5.34855e-19 3.48885 42.6465)
(1.53701e-18 -3.02388 27.5661)
(4.19387e-18 1.75604 30.4453)
(4.85502e-18 21.0388 54.8494)
(2.44285e-18 45.8126 84.8851)
(-9.49848e-19 42.2595 84.2862)
(1.00156e-23 140.25 268.1)
(3.83974e-23 156.694 245.815)
(4.90037e-23 126.026 239.449)
(5.11119e-23 134.911 214.852)
(-2.54895e-23 112.862 207.732)
(-2.10343e-22 114.39 188.361)
(-3.37272e-22 100.052 178.257)
(-3.76761e-22 96.0959 163.171)
(-7.48471e-22 86.224 151.851)
(-1.01157e-21 79.8055 139.078)
(6.51017e-21 71.7383 127.082)
(2.60305e-20 64.9582 114.272)
(1.11216e-20 58.4976 101.552)
(-1.21581e-19 53.3851 88.997)
(-3.81746e-19 49.4989 77.4859)
(-6.68101e-19 47.1443 68.1909)
(-8.41658e-19 47.0644 62.4942)
(-9.61841e-19 46.7641 61.4796)
(-1.46579e-18 44.3179 59.7197)
(-2.07555e-18 31.7486 48.4346)
(-2.36146e-24 139.124 272.273)
(-9.76439e-24 160.098 247.376)
(-1.15771e-23 126.603 243.134)
(-9.52245e-24 137.5 218.827)
(5.04761e-24 116.61 211.769)
(2.2134e-23 117.936 193.948)
(-1.27752e-23 106.34 183.542)
(-5.58288e-23 102.681 169.658)
(2.9884e-22 95.4252 158.175)
(1.61549e-21 90.5153 146.217)
(1.86801e-21 85.2156 135.336)
(-4.54171e-21 80.7636 124.789)
(-1.40345e-20 76.4164 114.491)
(-1.79986e-21 72.1798 103.818)
(5.36844e-20 67.2613 92.2027)
(1.41009e-19 61.0305 78.2595)
(2.22739e-19 51.2787 61.3126)
(2.79656e-19 38.4303 40.2947)
(2.85314e-19 19.5166 18.4601)
(-2.06626e-19 3.94278 -7.08803)
(6.7974e-25 132.749 272.374)
(2.43756e-24 158.349 245.24)
(4.18289e-24 121.475 243.616)
(5.81071e-24 130.51 222.267)
(-7.86427e-24 111.851 214.822)
(-5.17576e-23 110.224 200.085)
(-9.07257e-23 100.48 190.051)
(-1.23337e-23 95.8238 178.251)
(2.94104e-22 89.4551 167.87)
(7.62013e-22 84.612 157.193)
(1.2555e-21 79.5791 146.903)
(1.60816e-21 75.0525 136.544)
(3.772e-22 70.5273 126.181)
(-5.26153e-21 65.8847 115.047)
(-1.27322e-20 59.7591 101.511)
(-2.67389e-21 50.5493 81.8552)
(4.85517e-20 34.2926 52.9623)
(1.27687e-19 13.3315 12.6541)
(2.66581e-19 -14.3636 -24.0026)
(8.72255e-20 -21.3839 -54.1617)
(-1.67191e-25 109.459 256.195)
(-7.94149e-25 149.218 227.074)
(-4.7151e-25 108.704 230.009)
(2.67047e-25 114.771 214.891)
(-5.91849e-24 98.8056 209.23)
(-2.82586e-23 94.1046 199.693)
(-3.98675e-23 85.3074 192.255)
(5.61133e-23 79.186 184.176)
(3.52953e-22 72.7136 176.533)
(7.12845e-22 67.1117 168.775)
(5.65658e-22 61.812 161.073)
(-8.02272e-22 57.0308 153.343)
(-3.00432e-21 52.614 145.526)
(-2.47625e-21 48.2136 136.936)
(9.55462e-21 42.6473 125.36)
(4.71614e-20 33.5674 106.323)
(1.19715e-19 18.5598 74.6606)
(1.99587e-19 -1.62399 30.2861)
(2.0736e-19 -20.405 -14.6609)
(9.849e-20 -20.6879 -35.4796)
(1.14461e-25 36.1147 158.434)
(2.57734e-25 78.4698 131.156)
(1.23001e-25 52.754 139.315)
(-3.0602e-25 52.5216 135.328)
(-1.78938e-24 43.987 135.401)
(-7.51718e-24 39.5288 133.859)
(-1.95318e-23 34.4369 132.693)
(-2.02528e-23 30.4201 131.165)
(4.91689e-23 26.7992 129.512)
(2.58304e-22 23.817 127.646)
(5.50326e-22 21.3948 125.614)
(5.51834e-22 19.5974 123.441)
(-4.72087e-22 18.454 121.219)
(-3.31722e-21 18.0603 119.123)
(-8.20946e-21 18.6966 117.28)
(-1.41132e-20 20.4029 115.65)
(-1.82875e-20 22.8218 113.463)
(-1.69295e-20 28.1255 106.814)
(-9.11693e-21 31.992 92.0839)
(-1.11179e-21 7.7546 66.5514)
(-6.55179e-26 -36.115 158.434)
(1.12064e-25 -78.4699 131.157)
(3.01151e-25 -52.7544 139.316)
(5.1122e-25 -52.5219 135.328)
(7.75367e-25 -43.9875 135.401)
(1.10972e-24 -39.5294 133.859)
(1.46812e-24 -34.4376 132.694)
(1.84967e-24 -30.4208 131.166)
(2.83996e-24 -26.7997 129.512)
(5.78492e-24 -23.8171 127.644)
(1.03517e-23 -21.3945 125.61)
(8.10587e-24 -19.5966 123.434)
(-2.32055e-23 -18.4524 121.208)
(-1.09255e-22 -18.0575 119.107)
(-2.35289e-22 -18.6932 117.26)
(-3.01114e-22 -20.4003 115.629)
(-2.03951e-22 -22.8212 113.441)
(-6.97849e-23 -28.1261 106.794)
(-1.77489e-22 -31.9928 92.0732)
(-3.17664e-22 -7.75439 66.5504)
(3.80032e-25 -109.457 256.19)
(-2.79069e-26 -149.216 227.07)
(-6.09068e-25 -108.703 230.005)
(-1.33033e-24 -114.771 214.888)
(-2.32508e-24 -98.8073 209.226)
(-3.51731e-24 -94.1076 199.689)
(-4.2039e-24 -85.3124 192.251)
(-2.61396e-24 -79.1926 184.172)
(2.86282e-24 -72.7216 176.528)
(9.10629e-24 -67.1195 168.766)
(3.5697e-24 -61.8183 161.06)
(-2.41555e-23 -57.0355 153.325)
(-3.06597e-23 -52.6196 145.508)
(1.36864e-22 -48.2224 136.923)
(5.88379e-22 -42.6575 125.353)
(9.10848e-22 -33.573 106.314)
(4.47079e-22 -18.5637 74.6606)
(1.44716e-21 1.59449 30.3369)
(1.2228e-20 20.3416 -14.5596)
(3.53878e-20 20.6708 -35.4295)
(-1.51977e-24 -132.745 272.384)
(1.00246e-25 -158.36 245.234)
(2.22289e-24 -121.475 243.616)
(4.43106e-24 -130.52 222.255)
(6.7739e-24 -111.853 214.812)
(9.45018e-24 -110.233 200.069)
(1.33881e-23 -100.485 190.034)
(2.12879e-23 -95.8325 178.231)
(3.57701e-23 -89.4625 167.853)
(5.0037e-23 -84.6221 157.179)
(5.12089e-23 -79.588 146.891)
(6.74784e-23 -75.0612 136.532)
(2.01976e-22 -70.5369 126.174)
(4.94978e-22 -65.9036 115.056)
(6.1778e-22 -59.7935 101.542)
(-2.16642e-23 -50.5955 81.9076)
(-1.88383e-21 -34.3478 53.0341)
(-4.58473e-21 -13.3448 12.6843)
(-2.29974e-21 14.4034 -24.0802)
(1.11575e-19 21.3734 -54.0816)
(6.59403e-24 -139.102 272.186)
(6.6373e-25 -160.042 247.296)
(-7.75005e-24 -126.563 243.05)
(-1.75796e-23 -137.453 218.758)
(-2.94863e-23 -116.587 211.692)
(-4.44968e-23 -117.9 193.887)
(-6.19779e-23 -106.336 183.48)
(-8.28424e-23 -102.678 169.617)
(-1.04905e-22 -95.4524 158.14)