/*--------------------------------*- C++ -*----------------------------------*\
| =========                 |                                                 |
| \\      /  F ield         | OpenFOAM: The Open Source CFD Toolbox           |
|  \\    /   O peration     | Version:  4.1                                   |
|   \\  /    A nd           | Web:      www.OpenFOAM.org                      |
|    \\/     M anipulation  |                                                 |
\*---------------------------------------------------------------------------*/
FoamFile
{
    version     2.0;
    format      ascii;
    class       volScalarField;
    location    "30";
    object      p;
}
// * * * * * * * * * * * * * * * * * * * * * * * * * * * * * * * * * * * * * //

dimensions      [0 2 -2 0 0 0 0];

internalField   nonuniform List<scalar> 
1280
(
2.94774
2.38066
6.45624
10.109
14.8196
16.8228
17.6307
19.5346
21.4489
22.3224
22.6396
22.938
22.8192
22.06
21.8778
18.9283
17.056
12.6393
14.6494
-7.57307
13.391
34.9408
45.2443
43.0098
41.2394
48.0759
30.5533
24.9473
21.198
20.3536
19.0519
17.3039
15.7864
13.4586
11.6268
8.49692
6.50178
3.23435
4.0646
10.1666
-6.99002
-6.32467
2.25216
7.85509
28.4049
21.4375
22.2102
23.8807
23.6807
23.4314
23.9506
22.7733
24.0025
24.0617
24.0351
25.1366
12.4098
9.9844
5.61769
-11.5884
10.6308
2.68526
-1.32179
-0.192179
0.54686
2.73854
3.73394
5.1385
5.92974
6.64013
7.06768
8.38379
7.09017
-45.4732
14.0583
9.05107
8.79131
13.9404
5.14068
-17.2615
-37.4017
-13.6263
-25.3405
-20.3994
-11.7842
-11.335
-7.77228
0.27785
1.44977
5.02142
8.82017
9.13405
8.51644
9.01914
10.5959
10.0611
3.167
2.11524
1.72174
2.52399
-0.9267
0.283716
-0.67024
-0.660823
-0.745926
-0.779828
-0.983602
-1.53596
-2.24083
-2.87741
-7.83059
-5.14162
2.19915
9.19324
11.4035
3.02667
-0.150616
-2.99574
-1.19307
-2.24466
0.648229
-1.58985
-0.789398
-1.02497
-1.0168
-1.43184
-2.52686
-2.89138
-6.20722
-11.6726
-5.1934
10.3168
26.0699
30.7479
13.6794
1.65851
-10.694
-7.14733
-2.07433
2.03406
-2.06559
-1.1536
-1.60624
-1.62415
-2.39242
-4.64377
-6.8151
-14.7748
-16.4036
-7.27454
13.7478
35.4653
43.4424
23.9695
-1.03973
-25.482
-19.9424
-2.75082
2.37115
-2.35347
-1.19539
-1.76006
-1.8306
-2.95467
-6.12422
-9.49146
-21.64
-21.8638
-10.0697
16.6512
44.6119
52.8226
33.7396
-4.02018
-42.2092
-36.104
-2.45395
3.37798
-2.08022
-1.11748
-1.89689
-2.12698
-3.67522
-7.66386
-12.3396
-28.6493
-26.8387
-12.3191
18.893
52.3667
57.0245
40.4254
-3.05232
-48.7233
-49.7179
-2.2731
3.34415
-1.70505
-0.976124
-1.93619
-2.38012
-4.22301
-8.45447
-13.8462
-32.4737
-29.598
-13.7527
19.7115
57.2595
55.8641
41.6286
1.48101
-47.4633
-46.2426
-1.79495
3.1233
-1.23094
-0.887234
-2.00204
-2.62615
-4.4741
-8.32487
-14.0037
-32.4218
-29.1654
-14.1758
18.7401
54.4514
50.0428
38.9768
3.72826
-59.4232
-47.2616
-1.10765
2.21272
-0.843419
-0.894136
-1.99886
-2.63834
-4.12291
-7.16689
-12.4499
-28.1076
-24.5224
-12.965
15.9684
43.7688
41.1776
34.5396
18.8515
1.40683
0.497906
-0.0741984
1.28363
-0.355299
-0.897797
-1.81189
-2.34207
-3.29185
-5.46059
-9.8401
-21.5349
-17.8927
-10.1431
13.1177
32.8754
32.6265
29.6781
19.2545
28.4411
56.1937
1.13358
0.53603
0.155258
-0.845953
-1.45536
-1.86266
-2.30463
-3.59825
-6.82404
-14.5682
-11.4211
-6.88575
11.3398
24.8525
24.2591
23.8675
21.4519
21.8505
28.9756
2.09047
-0.00626842
0.503453
-0.826074
-1.10041
-1.3997
-1.35626
-1.73162
-3.52909
-7.824
-6.29365
-5.08857
7.98623
13.2813
12.1918
15.5473
24.2652
30.9977
38.4632
2.43866
-0.571993
0.582873
-0.869463
-0.814736
-1.05576
-0.656618
-0.176503
-0.374122
-1.38394
-2.39291
-4.57435
3.60096
3.35372
7.15644
13.4916
27.7805
33.6169
55.4789
2.35594
-1.19197
0.546173
-0.849833
-0.460306
-0.660945
-0.121221
0.929124
1.59168
3.4314
0.159128
-3.64195
1.19041
-1.58603
5.02721
13.2927
27.3477
39.8788
38.0143
2.11504
-1.70741
0.478121
-0.731791
-0.0190992
-0.0666802
0.63744
2.04091
2.17588
5.46479
0.729598
-2.92601
-0.13761
-5.16783
0.0557927
11.5482
25.8285
33.5512
33.0015
1.9379
-1.91155
0.43074
-0.575109
0.363893
0.529064
1.5299
3.41575
1.92629
5.13012
-0.639615
-3.44457
-2.15208
-6.67172
-4.11469
10.7524
23.4307
30.1836
31.511
1.73543
-1.87651
0.402909
-0.461723
0.556462
0.876905
2.13795
4.82276
1.96851
5.35657
-1.65741
-4.1988
-5.25574
-3.99375
-7.17116
9.74921
19.7806
25.73
26.6328
1.64129
-1.87843
0.34503
-0.462449
0.523891
0.914547
2.26178
5.71935
2.06596
5.64832
-2.35696
-4.2954
-8.01224
0.844061
-8.14179
8.51163
15.6304
21.4101
22.7917
1.36149
-1.6575
0.315316
-0.40198
0.507798
0.925009
2.23334
6.13611
2.27042
7.0883
-0.140947
-3.49141
-12.2522
-0.319229
-7.34094
6.74656
11.67
16.5222
17.3787
0.979327
-1.84934
0.0359279
-0.655737
0.128754
0.568815
1.87459
6.02076
2.5097
4.41247
-1.39913
-1.82128
-9.27293
-6.15565
-6.51823
3.33841
7.2512
10.8086
11.3846
0.191123
-2.1421
-1.01443
-1.72793
-1.38821
-1.14809
-0.186737
2.89557
1.79966
3.9858
3.96917
-1.3438
-8.91827
-11.3633
-9.45397
-5.00124
-1.15164
2.23994
4.37717
175.013
172.653
171.086
170.836
167.951
165.487
162.257
159.837
156.651
153.852
151.302
148.707
146.744
144.493
143.242
141.142
140.824
138.53
139.198
137.12
115.283
114.86
116.266
117.541
117.69
117.849
117.515
117.125
117.252
116.928
117.166
116.829
117.209
116.847
117.481
117.035
118.035
117.566
119.064
119.117
137.676
136.326
137.851
138.009
137.929
137.246
137.042
136.138
135.89
135.087
134.918
134.265
134.278
133.669
133.919
133.227
133.814
133.024
134.22
133.793
120.558
120.047
122.064
122.306
123.05
122.505
122.862
122.251
122.41
121.994
122.156
121.928
122.293
122.123
122.783
122.551
123.553
123.283
124.793
125.083
124.621
124.031
125.943
125.625
126.959
125.981
126.472
125.884
125.841
125.498
125.384
125.168
125.283
125.074
125.558
125.27
126.163
125.823
127.306
127.429
116.296
116.375
118.039
117.611
119.884
118.401
119.075
118.915
118.747
118.798
118.557
118.582
118.647
118.584
119.112
118.961
119.998
119.869
121.588
121.911
112.972
113.729
114.681
114.271
117.637
115.33
116.055
116.526
116.062
116.562
116.125
116.296
116.252
116.175
116.625
116.457
117.499
117.466
119.344
119.616
104.197
106.031
106.102
106.031
110.839
107.459
108.159
109.734
108.908
109.962
109.536
109.858
109.902
109.885
110.35
110.291
111.361
111.541
113.636
114.036
93.921
96.7381
95.722
95.9166
102.418
98.1312
98.6088
101.541
100.69
102.126
102.115
102.568
102.978
103.187
103.83
104.095
105.214
105.77
107.956
108.712
78.7913
82.0086
79.4648
79.6351
88.2179
82.3486
82.021
86.451
85.6837
86.9031
87.4127
87.7599
88.5918
88.9913
89.8852
90.532
91.6936
92.7962
94.7749
96.5901
67.0836
69.1336
65.6235
65.1967
72.7624
67.5252
66.2732
69.4613
69.2466
68.5907
68.9474
68.0673
68.427
67.8545
68.1371
67.9216
68.5057
69.3865
71.1382
73.3026
68.4615
68.1903
68.9085
66.4517
69.3678
66.6043
69.2825
65.6173
67.333
64.429
65.0733
62.935
62.8572
61.316
61.0742
60.2007
60.5783
60.956
61.7247
61.8897
79.9206
80.4739
81.0458
78.9997
81.4593
77.8359
79.8449
76.5161
77.8081
75.4021
75.7934
74.2374
74.0381
72.9892
72.4457
71.5435
71.0566
70.3139
69.433
68.9163
76.1777
77.7213
79.5494
78.6126
81.8061
80.2714
83.1409
80.6911
83.0045
82.6287
83.6838
83.5905
83.8744
83.9698
83.95
83.7307
83.5696
83.0649
82.9825
83.0793
56.3551
56.4422
58.6063
56.6888
59.3161
57.844
59.5413
59.1337
59.8636
60.0472
60.4531
60.7923
61.1082
61.447
61.7137
62.2621
63.5242
65.1104
66.2837
67.7131
59.9532
57.403
58.7009
54.8109
56.1956
53.4282
53.6059
52.1338
51.676
50.827
50.2694
49.7025
49.2753
48.9871
48.9252
49.044
49.142
49.454
49.7328
50.6416
95.0501
90.817
92.5257
85.6469
85.5358
80.6803
78.513
75.0389
72.3647
69.5476
67.0631
64.7431
62.7349
61.1127
60.0066
59.2541
58.5991
57.8555
56.7668
56.267
99.8752
93.7736
101.901
95.1458
97.4149
94.2731
93.3107
91.0478
89.1167
86.9127
84.7515
82.5845
80.532
78.7532
77.4831
76.6083
76.0149
75.8616
75.6536
75.0672
107.8
86.215
94.5106
83.7004
81.2263
74.8218
70.1277
65.0936
60.7636
56.9104
53.7798
51.4251
49.9743
49.5828
50.4652
52.4989
55.4291
59.6429
63.8261
65.7121
793.744
711.345
662.451
606.254
557.376
510.206
466.379
424.997
386.067
349.301
314.528
281.541
250.111
220.136
191.666
163.946
137.08
115.227
90.8122
53.8581
741.406
658.361
609.093
552.428
503.146
455.575
411.389
369.688
330.499
293.548
258.683
225.718
194.439
164.762
136.732
109.56
83.8148
64.2858
41.4026
4.02997
44.3601
22.0682
29.9679
18.6017
15.5735
8.64565
3.41981
-2.09535
-6.88093
-11.1369
-14.628
-17.3067
-19.0895
-19.9052
-19.6671
-18.3656
-15.9576
-12.9885
-10.4347
-7.64591
27.8751
22.4233
30.7182
24.3504
26.7435
23.9151
23.1325
21.1653
19.5044
17.6144
15.7625
13.8876
12.0445
10.2666
8.64666
7.51808
7.19858
8.5448
10.1789
13.3078
48.7562
47.3937
50.4787
45.5315
47.617
44.7363
44.8663
43.6476
43.3256
42.912
42.806
42.7992
42.9011
43.1155
43.4555
44.0912
45.0858
46.9569
49.0663
51.6727
49.09
48.9938
51.3772
49.0217
52.2808
51.0859
53.3078
53.8049
55.5205
56.7902
58.3225
59.7728
61.2722
62.6759
64.2309
65.5703
66.5502
67.1942
67.687
67.6279
52.6451
50.8338
51.8833
48.948
50.7262
48.1312
49.8045
48.7359
48.8617
47.8399
47.459
46.7361
44.1327
46.6919
47.5123
47.077
46.8754
46.3512
45.377
43.6235
0.473092
-3.03003
-4.15879
-8.96016
-10.4399
-15.7852
-18.3733
-23.5296
-27.8627
-33.1441
-38.7372
-42.8929
-49.5058
-14.2661
14.3761
10.2074
8.60337
7.20448
4.42749
7.83588
-17.9755
-18.6357
-17.5707
-19.421
-17.8077
-19.4909
-18.0911
-19.0231
-18.409
-18.2319
-17.7416
-16.3641
-14.4618
-13.117
-11.591
-13.5948
-10.7936
-5.55424
-12.4414
-7.20421
6.77609
9.44803
11.8244
12.0332
15.3335
15.2725
18.0885
18.3806
20.5332
21.4915
23.2742
24.4326
26.3337
27.9923
30.2647
31.9727
35.2396
39.1017
39.0549
42.6749
40.2962
44.2308
45.9681
47.126
49.6776
50.6332
52.9037
53.9915
55.9784
57.2821
59.1828
60.6392
62.2931
63.6327
64.8189
66.0477
67.2949
68.936
70.4357
73.5822
64.0973
67.5224
68.1533
69.3543
70.8858
71.4337
72.9167
73.4248
74.6152
75.1335
76.1617
76.6659
77.4245
77.723
78.1369
78.2974
78.9592
79.1269
80.6841
81.42
73.9483
76.0369
75.9093
76.6944
77.1329
77.0014
77.5915
77.2593
77.6622
77.2719
77.5374
77.1584
77.2974
76.8954
77.0098
76.628
77.193
76.9867
78.8507
78.7494
75.2117
76.3293
76.439
77.1145
77.2648
76.9217
77.3233
76.7271
76.9915
76.4363
76.6391
76.2703
76.5257
76.3181
76.8413
76.799
77.8809
78.0533
80.275
80.5968
80.5741
81.298
82.1355
83.0503
83.2149
83.054
83.3407
82.8714
83.1456
82.7474
83.023
82.7991
83.2081
83.1123
83.8618
83.9187
85.1604
85.4153
87.4607
87.9349
85.3465
85.8743
87.1705
88.4684
88.3808
88.4481
88.378
88.0367
88.1511
87.7486
88.0021
87.6383
88.0549
87.7031
88.3698
88.0462
89.0221
88.8671
90.482
90.8021
93.121
92.8522
94.0584
95.2719
94.6306
94.6277
94.0319
93.5734
93.286
92.6555
92.6385
91.9427
92.1434
91.4083
91.8163
91.0258
91.6496
90.9338
92.1318
92.0865
85.5358
85.0554
86.228
87.5549
86.6862
86.8277
86.0988
85.7816
85.4199
84.9152
84.9158
84.3901
84.7094
84.178
84.7726
84.1643
85.0186
84.4208
85.7268
85.9563
98.334
97.1136
97.9597
99.077
97.8891
97.8934
96.8663
96.4168
95.7482
95.1349
94.8342
94.2167
94.2478
93.6187
93.9493
93.2099
93.8822
93.019
94.2142
94.0332
78.1661
78.1953
78.9266
81.1466
80.2703
80.8159
80.0927
80.192
79.9232
79.8747
79.9889
79.865
80.3049
80.1041
80.8742
80.5747
81.6946
81.3613
82.8866
83.2477
135.423
133.513
131.045
131.516
127.255
124.746
120.938
118.486
115.543
113.189
111.033
109.008
107.57
105.901
105.232
103.745
103.928
102.164
103.082
101.975
)
;

boundaryField
{
    outletWall
    {
        type            fixedValue;
        value           uniform 0;
    }
    fineWalls
    {
        type            zeroGradient;
    }
    fineFrontAndBack
    {
        type            zeroGradient;
    }
    fineplugLeft
    {
        type            cyclicAMI;
        value           nonuniform List<scalar> 
20
(
111.729
112.171
111.471
113.96
114.613
116.919
118.286
120.553
122.426
124.852
127.152
129.561
132.859
147.281
142.005
142.608
145.271
145.918
145.111
142.689
)
;
    }
    fineplugRight
    {
        type            cyclicAMI;
        value           nonuniform List<scalar> 
20
(
83.7058
83.0027
81.4669
83.1037
83.105
84.733
85.4674
87.0834
88.3921
90.1548
91.9647
94.1114
96.2066
102.016
102.608
103.614
106.971
107.624
107.839
104.886
)
;
    }
    inletOutletLeft
    {
        type            cyclicAMI;
        value           nonuniform List<scalar> 
20
(
111.729
112.171
111.471
113.96
114.613
116.919
118.286
120.553
122.426
124.852
127.152
129.561
132.859
147.281
142.005
142.608
145.271
145.918
145.111
142.689
)
;
    }
    inletLeft
    {
        type            zeroGradient;
    }
    inletWallsLeft
    {
        type            zeroGradient;
    }
    inletFacesLeft
    {
        type            zeroGradient;
    }
    inletOutletRight
    {
        type            cyclicAMI;
        value           nonuniform List<scalar> 
20
(
83.7058
83.0027
81.4669
83.1037
83.105
84.733
85.4674
87.0834
88.3921
90.1548
91.9647
94.1114
96.2066
102.016
102.608
103.614
106.971
107.624
107.839
104.886
)
;
    }
    inletRight
    {
        type            zeroGradient;
    }
    inletWallsRight
    {
        type            zeroGradient;
    }
    inletFacesRight
    {
        type            zeroGradient;
    }
}


// ************************************************************************* //
