/*--------------------------------*- C++ -*----------------------------------*\
| =========                 |                                                 |
| \\      /  F ield         | OpenFOAM: The Open Source CFD Toolbox           |
|  \\    /   O peration     | Version:  4.1                                   |
|   \\  /    A nd           | Web:      www.OpenFOAM.org                      |
|    \\/     M anipulation  |                                                 |
\*---------------------------------------------------------------------------*/
FoamFile
{
    version     2.0;
    format      ascii;
    class       surfaceScalarField;
    location    "30";
    object      phi;
}
// * * * * * * * * * * * * * * * * * * * * * * * * * * * * * * * * * * * * * //

dimensions      [0 3 -1 0 0 0 0];

internalField   nonuniform List<scalar> 
2360
(
-14094.2
-9680.72
-4413.51
-9680.72
-9680.72
-5359.04
-4321.69
-5359.04
-5359.04
-5359.04
-1236.81
-4122.22
-1236.81
-1236.81
3018.47
-4255.28
3018.47
3018.47
7429.89
-4411.42
7429.89
7429.89
13043.5
-5613.65
13043.5
13043.5
14331.2
16076
17577.2
18873.7
20066
21304.1
19304.2
3188.14
20382.5
21375.7
22314.8
23206.8
24053.7
24843.1
25577.1
26242.5
26840.3
27365.2
27873.5
28516.3
29355.4
16665.2
12690.2
16665.2
16665.2
16665.2
4847.77
11817.4
4847.77
4847.77
4847.77
-628.324
5476.1
-628.324
-628.324
-285.037
-343.286
-285.037
-285.036
-285.037
-9018.44
8733.4
-9018.44
-9018.44
-9018.44
-27075.7
18057.3
-26159.1
-25408.8
-24864.5
-24369.1
-23820.4
-23202.4
-22504.8
-21740.9
-20909.2
-20016.9
-19059.1
-18034.2
-16932.6
-23846.5
8093.92
-22624
-21340.2
-19995.6
-18559.6
-16837.9
-15669.6
-15669.6
-15669.6
-13980.4
-1689.24
-13980.4
-13980.4
-10479.2
-3501.13
-10479.2
-10479.2
-4745.63
-5733.62
-4745.63
-4745.63
2549.71
-7295.34
2549.71
2549.71
2549.71
9637.43
-7087.73
9637.43
9637.43
15607.7
-5970.29
-5223.81
-994.774
-6456.12
-6558.1
-6422.33
-9115.79
-5900.06
-12231.5
-5417.58
-14853.5
-5028.29
-17981.7
-4738.25
-21407.1
-4390.7
-24896.2
-3570.91
-25117.1
-1963.58
-11952
-733.849
13405.5
-195.062
26064.4
370.288
29184.9
1338.33
22311.8
3209.45
5213.82
5252.74
-10171.6
6875.96
-13278
7406.54
-6594.39
1191.72
-4460.79
549.88
-5942.03
-5076.86
-5791.9
-9265.92
-5085.24
-12938.1
-4448.27
-15490.5
-4029.38
-18400.6
-3837.76
-21598.7
-3671.1
-25062.9
-3250.16
-25538
-2070.5
-13131.7
-976.936
12311.9
-563.555
25651.1
-65.3134
28686.7
1168.55
21078
4065.41
2316.96
6957.16
-13063.4
9346.39
-15667.3
9608.9
-6856.9
3712.89
-4429.67
1985.14
-5578.91
-3927.62
-5273.78
-9571.04
-4536.48
-13675.4
-3893.65
-16133.3
-3534.72
-18759.5
-3412.15
-21721.2
-3294.37
-25180.7
-3129.76
-25702.6
-2606.74
-13654.7
-1585.09
11290.3
-1133.42
25199.4
-787.718
28341
624.199
19666
4144.87
-1203.72
6931.92
-15850.4
9277.81
-18013.1
9722.71
-7301.81
6140.26
-4480.26
3316.99
-5266.17
-3141.7
-4745.97
-10091.2
-4015.18
-14406.2
-3462.95
-16685.5
-3222.24
-19000.2
-3174.74
-21768.7
-3103
-25252.4
-3159.6
-25646
-3250.67
-13563.6
-2451.47
10491.1
-2007.68
24755.6
-1788.47
28121.8
-178.025
18055.6
2940.03
-4321.77
4094.1
-17004.5
5534.82
-19453.9
6886.4
-8653.39
7293.05
-4680.36
4365.22
-4892.98
-2929.09
-4188.97
-10795.2
-3606.9
-14988.3
-3221.99
-17070.4
-3126.37
-19095.9
-3143.72
-21751.4
-3141.98
-25254.1
-3469.12
-25318.9
-4159.56
-12873.2
-3696.08
10027.6
-3250.85
24310.4
-2989.81
27860.7
-1302.17
16368
-452.497
-5171.44
-1727.21
-15729.8
-1162.93
-20018.2
1709.58
-11525.9
5501.49
-4915.01
5037.15
-4531.28
-3312.82
-3717.56
-11609
-3323.44
-15382.4
-3105.67
-17288.2
-3145.2
-19056.3
-3235.94
-21660.6
-3385.29
-25104.8
-4071.85
-24632.3
-5285.68
-11659.4
-5166.38
9908.27
-4679.42
23823.4
-4298.85
27480.2
-3650.07
15719.2
-5251.91
-3569.6
-7218.02
-13763.7
-6859.43
-20376.8
-2916.57
-15468.8
895.68
-5057.75
5231.41
-4146.1
-4224.46
-3373.45
-12381.6
-3167.34
-15588.5
-3076.58
-17379
-3209.71
-18923.2
-3382.7
-21487.7
-3752.89
-24734.6
-4842.64
-23542.6
-6497.1
-10004.9
-6639.48
10050.7
-6066.88
23250.8
-5687.33
27100.6
-6328.7
16360.6
-8885.79
-1012.51
-10788.2
-11861.3
-11543.5
-19621.4
-9400.23
-17612
-410.637
-5008.77
4919.95
-3820.78
-5412.45
-3228.41
-12974
-3128.77
-15688.2
-3109.05
-17398.7
-3282.54
-18749.7
-3546.87
-21223.3
-4167.88
-24113.6
-5582.52
-22127.9
-7523.25
-8064.19
-7859.67
10387.1
-7265.43
22656.6
-6971.14
26806.3
-8055.76
17445.2
-10296.1
1227.79
-12107
-10050.4
-14975.1
-16753.4
-18631.3
-13955.8
-984.718
-4835.21
4205.2
-3650.58
-6597.08
-3269.94
-13354.6
-3179.43
-15778.7
-3184.51
-17393.6
-3347.87
-18586.4
-3700.14
-20871.1
-4546.76
-23267
-6122.21
-20552.5
-8127.45
-6058.95
-8642.3
10901.9
-8132.83
22147.1
-7837.56
26511
-8824.94
18432.6
-10481
2883.85
-11072.9
-9458.44
-10990.1
-16836.2
-10475
-14470.8
-2726.34
-4691.21
3316.05
-3712.28
-7576.01
-3449.78
-13617.1
-3299.69
-15928.8
-3283.37
-17409.9
-3398.51
-18471.2
-3823.28
-20446.3
-4849.79
-22240.5
-6471.89
-18930.4
-8317.64
-4213.2
-8960.79
11545.1
-8657.03
21843.4
-8504.94
26359
-9819.67
19747.3
-11222.4
4286.54
-11249.9
-9430.88
-11116
-16970
-8366.78
-17220.1
-11436.4
-4745.25
2492.26
-3996.21
-8325.05
-3682.26
-13931.1
-3455.1
-16155.9
-3377.91
-17487.1
-3425.3
-18423.8
-3889.36
-19982.2
-5043.38
-21086.4
-6718.46
-17255.3
-8325.05
-2606.61
-8994.92
12214.9
-8918.9
21767.3
-8948.68
26388.7
-9955.86
20754.5
-9335.72
3666.4
-8076.45
-10690.1
-9907.81
-15138.7
-11177.9
-15949.9
-17138.3
-4962.1
1798.03
-4317.07
-8970.09
-3871.92
-14376.2
-3595.81
-16432
-3448.33
-17634.6
-3429.56
-18442.6
-3872.75
-19539
-5050.72
-19908.5
-6764.22
-15541.8
-8150.51
-1220.32
-8834.88
12899.3
-9006.84
21939.3
-9155.27
26537.2
-9236.05
20835.2
-6418.72
849.066
-3666.97
-13441.9
-4997.14
-13808.5
-10009.8
-10937.3
-15330.6
-5154.84
1148.13
-4484.2
-9640.73
-3957.98
-14902.5
-3674.27
-16715.7
-3472.93
-17836
-3402.55
-18513
-3769.81
-19171.8
-4860.97
-18817.3
-6551.45
-13851.3
-7725.36
-46.4115
-8486.3
13660.3
-9086.7
22539.7
-9443.3
26893.8
-8699.8
20091.7
-5154.74
-2695.99
-2400.67
-16196
-1104.03
-15105.1
-3933.74
-8107.61
-6574.13
-5251.5
452.081
-4485.17
-10407.1
-3959.38
-15428.2
-3684.92
-16990.2
-3434.95
-18085.9
-3312.86
-18635
-3570.54
-18914.1
-4529.07
-17858.8
-6274.33
-12106.1
-7366.95
1046.21
-8125.68
14419
-9177.66
23591.7
-9747.06
27463.2
-7963.63
18308.3
-3748.59
-6911.03
-1201.51
-18743
62.8968
-16369.6
2667.22
-10711.9
-718.777
-5305.53
-399.953
-4386.16
-11326.4
-3931.68
-15882.7
-3658.41
-17263.5
-3362.08
-18382.3
-3179.52
-18817.6
-3300.32
-18793.3
-4091.23
-17067.9
-6033.14
-10164.1
-7365.43
2378.5
-8096.1
15149.7
-9359.83
24855.4
-9827.83
27931.2
-6414.1
14894.6
-2046.9
-11278.2
43.194
-20833.1
1443.6
-17770
3329.14
-12597.5
-3003.28
-5339.08
-1492.32
-4254.38
-12411.1
-3918.95
-16218.2
-3620.94
-17561.5
-3291.19
-18712
-3050.26
-19058.5
-3032.87
-18810.7
-3629.78
-16471
-5869.42
-7924.51
-7725.78
4234.86
-8566.78
15990.7
-9733.79
26022.4
-9564.93
27762.3
-4340.74
9670.39
-354.683
-15264.3
890.239
-22078.1
2544.78
-19424.5
3597.93
-13650.6
-3816.77
-5296.74
-2764.18
-4159.21
-13548.7
-3934.85
-16442.5
-3587.59
-17908.7
-3237.43
-19062.2
-2944.31
-19351.7
-2810.82
-18944.2
-3187.51
-16094.3
-5664.35
-5447.66
-8212.43
6782.94
-9489.93
17268.2
-10307.9
26840.4
-8921.58
26376
-2739.87
3488.67
769.441
-18773.6
1767.52
-23076.1
3224.15
-20881.1
3956.86
-14383.3
-4115.19
-5162.54
-3948.84
-4150.95
-14560.2
-3959.02
-16634.4
-3569.63
-18298.1
-3200.78
-19431
-2862.42
-19690
-2635.66
-19170.9
-2762.43
-15967.5
-5325.35
-2884.75
-8473.3
9930.89
-10273
19067.9
-10603.1
27170.4
-7668.22
23441.1
-1575.09
-2604.45
1142.06
-21490.7
2451.01
-24385.1
3729.67
-22159.8
4295.88
-14949.6
-3941.53
-4976.78
-4823.32
-4208.38
-15328.6
-3969.86
-16873
-3569.98
-18698
-3177.15
-19823.9
-2798.89
-20068.3
-2496.99
-19472.8
-2296.53
-16168
-4490
-691.275
-8265.95
13706.8
-10931.2
21733.1
-10590.1
26829.4
-5514.8
18365.8
-265.108
-7854.14
1332.22
-23088.1
2853.36
-25906.2
4025.63
-23332.1
4652.39
-15576.3
-3610.82
-4735.48
-4263.61
-3978.18
-3579.99
-3168.41
-2753.07
-2397.35
-2133.89
-3526.1
-6811.22
-9692.34
-9100.95
-4183.05
33.2503
1564.49
3086.29
4186.63
4875.53
248.197
-1535.89
454.488
-1951.04
578.567
-1625.27
671.631
-1389.59
782.33
-1303.06
912.912
-1368.62
951.62
-1226.98
951.247
-1077.91
942.636
-984.572
929.515
-926.043
899.735
-862.205
852.771
-799.938
782.011
-718.64
695.304
-647.287
586.194
-556.286
461.124
-472.759
323.258
-387.025
203.42
-388.447
109.867
-549.219
-729.254
81.1239
-1617.01
46.0209
-1915.93
46.4217
-1625.67
53.1999
-1396.37
86.9614
-1336.82
128.488
-1410.15
123.067
-1221.56
107.755
-1062.6
105.395
-982.213
111.903
-932.552
114.834
-865.136
113.821
-798.926
104.198
-709.018
91.1373
-634.228
74.7948
-539.944
61.6582
-459.623
54.0667
-379.433
57.8189
-392.199
46.6307
-538.03
-682.624
0.457653
-1617.47
-0.812965
-1914.67
54.9925
-1681.48
81.8707
-1423.25
107.38
-1362.33
123.608
-1426.38
127.433
-1225.39
138.468
-1073.63
147.749
-991.495
153.404
-938.208
154.628
-866.361
153.129
-797.429
149.204
-705.094
141.248
-626.272
133.469
-532.166
130.658
-456.813
130.951
-379.727
122.282
-383.53
78.2731
-494.023
-604.351
5.56651
-1623.04
9.61058
-1918.71
57.5722
-1729.44
74.5102
-1440.19
93.2504
-1381.07
109.489
-1442.62
106.927
-1222.83
110.733
-1077.44
117.213
-997.976
123.659
-944.655
126.425
-869.127
126.371
-797.376
124.115
-702.838
118.157
-620.315
108.667
-522.677
101.998
-450.145
100.945
-378.674
96.3858
-378.971
59.2788
-456.917
-545.072
-0.397036
-1622.64
5.111
-1924.22
48.1423
-1772.48
59.1127
-1451.16
75.4303
-1397.39
91.6753
-1458.86
93.2489
-1224.4
105.796
-1089.99
118.041
-1010.22
127.953
-954.568
134.078
-875.254
137.523
-800.822
140.555
-705.872
140.435
-620.196
137.405
-519.648
132.828
-445.569
130.753
-376.6
116.821
-365.039
67.8297
-407.926
-477.242
5.06678
-1627.71
20.2952
-1939.45
59.3409
-1811.52
68.5525
-1460.37
87.4282
-1416.27
105.902
-1477.34
108.071
-1226.57
123.597
-1105.51
138.339
-1024.96
150.468
-966.698
158.976
-883.763
163.961
-805.807
168.051
-709.962
168.121
-620.266
164.909
-516.437
154.93
-435.591
140.23
-361.9
112.051
-336.86
61.5738
-357.45
-415.668
9.15106
-1636.86
25.7282
-1956.03
54.5488
-1840.34
63.9972
-1469.82
83.1351
-1435.4
100.567
-1494.77
106.521
-1232.53
127.435
-1126.43
147.23
-1044.76
162.85
-982.319
176.092
-897.005
184.48
-814.196
191.861
-717.343
193.71
-622.115
193.395
-516.123
185.074
-427.27
167.095
-343.921
129.014
-298.78
71.9175
-300.354
-343.751
29.6385
-1666.5
42.6997
-1969.09
63.7312
-1861.38
85.0781
-1491.17
107.208
-1457.53
122.058
-1509.62
134.721
-1245.19
161.01
-1152.72
186.715
-1070.46
205.464
-1001.07
223.973
-915.514
236.384
-826.606
247.104
-728.064
249.694
-624.705
248.226
-514.655
235.951
-414.994
210.661
-318.631
160.547
-248.665
90.8973
-230.705
-252.853
59.0618
-1725.56
57.7853
-1967.81
68.1267
-1871.72
104.985
-1528.03
129.714
-1482.27
136.8
-1516.71
161.6
-1269.99
193.693
-1184.81
226.798
-1103.57
249.392
-1023.66
274.017
-940.14
292.549
-845.14
310.04
-745.555
319.596
-634.262
324.121
-519.181
314.18
-405.054
286.199
-290.65
229.466
-191.932
138.309
-139.548
-114.545
78.5447
-1804.11
64.1945
-1953.46
61.0743
-1868.6
120.676
-1587.63
152.737
-1514.33
143.451
-1507.42
188.236
-1314.77
224.783
-1221.36
265.731
-1144.52
294.044
-1051.98
326.648
-972.744
353.909
-872.401
381.494
-773.141
404.169
-656.937
423.52
-538.531
426.081
-407.615
396.55
-261.12
337.125
-132.507
225.202
-27.6255
110.658
67.8607
-1871.97
49.0926
-1934.7
19.1765
-1838.68
84.3947
-1652.85
128.987
-1558.92
95.9664
-1474.4
151.756
-1370.56
185.227
-1254.83
224.032
-1183.32
254.33
-1082.27
288.219
-1006.63
318.29
-902.473
347.454
-802.304
372.811
-682.294
393.835
-559.555
393.214
-406.994
325.579
-193.485
183.842
9.23044
55.1697
101.048
165.827
33.7167
-1905.69
16.1963
-1917.18
-6.93975
-1815.55
6.45395
-1666.24
32.3339
-1584.8
11.4642
-1453.53
29.0299
-1388.13
44.0459
-1269.85
55.9055
-1195.18
69.7701
-1096.14
80.1638
-1017.03
89.3777
-911.687
90.7633
-803.689
84.7885
-676.319
67.8096
-542.575
32.097
-371.28
-58.0193
-103.368
-207.886
159.098
-247.248
140.412
-81.421
9.47588
-1915.16
0.128033
-1907.83
2.55814
-1817.98
-14.779
-1648.91
-16.4981
-1583.08
-17.6829
-1452.35
-31.3298
-1374.48
-38.1728
-1263
-52.4725
-1180.88
-62.5479
-1086.06
-78.0364
-1001.54
-90.009
-899.714
-105.207
-788.491
-123.494
-658.031
-154.608
-511.461
-178.758
-347.13
-149.246
-132.879
-92.8897
102.742
-42.9691
90.492
-124.39
34.234
-1949.4
41.6848
-1915.28
55.2479
-1831.54
62.4674
-1656.13
71.3256
-1591.94
76.6433
-1457.66
80.5787
-1378.42
87.5093
-1269.93
88.3623
-1181.74
91.2585
-1088.96
91.6106
-1001.89
99.5984
-907.701
115.456
-804.348
136.098
-678.674
143.625
-518.988
146.275
-349.779
201.65
-188.254
311.475
-7.08158
283.558
118.41
159.168
65.012
-2014.41
65.1419
-1915.41
91.836
-1858.23
117.865
-1682.15
150.379
-1624.45
183.637
-1490.92
216.652
-1411.43
255.51
-1308.79
297.623
-1223.85
343.577
-1134.91
390.752
-1049.06
439.516
-956.465
481.105
-845.937
496.781
-694.349
465.505
-487.712
384.94
-269.213
277.537
-80.851
192.226
78.2307
138.719
171.919
297.887
26.5215
-2040.93
-6.68444
-1882.2
-12.2567
-1852.66
-13.6478
-1680.76
-14.4421
-1623.65
-6.7971
-1498.57
3.09509
-1421.32
18.3833
-1324.08
37.4348
-1242.9
60.6085
-1158.08
86.141
-1074.59
107.174
-977.496
107.622
-846.383
66.3925
-653.117
-13.0034
-408.312
-76.4594
-205.751
-64.6148
-92.6843
-19.5168
33.1425
-27.3365
179.743
270.551
-41.4814
-1999.45
-109.91
-1813.77
-160.162
-1802.41
-199.225
-1641.7
-239.919
-1582.96
-266.384
-1472.1
-293.574
-1394.13
-312.262
-1305.39
-328.782
-1226.38
-340.635
-1146.23
-349.866
-1065.36
-356.44
-970.921
-359.374
-843.448
-348.759
-663.731
-307.604
-449.465
-238.769
-274.583
-182.638
-148.813
-154.61
5.11825
-140.965
166.1
129.586
-160.191
-1839.25
-345.537
-1628.43
-495.478
-1652.47
-611.287
-1525.89
-716.756
-1477.49
-794.552
-1394.3
-860.063
-1328.62
-907.849
-1257.6
-943.399
-1190.83
-965.76
-1123.87
-974.381
-1056.74
-960.965
-984.336
-905.998
-898.414
-779.32
-790.409
-569.095
-659.689
-331.226
-512.452
-138.555
-341.482
-24.8741
-108.56
32.1689
109.06
161.755
-196.292
-1642.96
-439.774
-1384.94
-694.944
-1397.3
-910.156
-1310.68
-1116.8
-1270.85
-1292.02
-1219.08
-1445.12
-1175.53
-1571.34
-1131.37
-1673.14
-1089.02
-1750.05
-1046.96
-1801.46
-1005.33
-1822.1
-963.694
-1799.59
-920.921
-1716.73
-873.266
-1561.92
-814.507
-1335.25
-739.12
-1037.21
-639.517
-651.827
-493.944
-251.322
-291.445
-89.5671
-667.961
-1077.9
-1500.2
-1835.88
-2131.72
-2375.8
-2576.33
-2732.7
-2846.73
-2918.69
-2949.02
-2937.71
-2883.63
-2781.9
-2621.41
-2385.53
-2050.05
-1568.99
-885.433
-680.105
1655.1
-1103.66
1398.55
-1539.64
1410.98
-1890.51
1325.87
-2202.63
1287.11
-2464.46
1236.83
-2684.07
1194.6
-2860.78
1151.71
-2996.07
1110.28
-3089.76
1068.69
-3141.62
1026.85
-3150.99
984.37
-3116.7
940.706
-3034.05
892.346
-2887.87
828.821
-2645.61
732.745
-2258.35
587.738
-1678.55
395.191
-902.171
198.624
72.8293
-207.846
1862.95
-455.897
1646.6
-717.364
1672.45
-933.394
1541.89
-1139.42
1493.13
-1310.23
1407.64
-1456.63
1341
-1573.51
1268.59
-1664.02
1200.8
-1727.94
1132.61
-1766.22
1065.13
-1778.83
996.984
-1765.09
926.959
-1720.09
847.35
-1630.05
738.78
-1468.33
571.018
-1207.45
326.858
-841.804
29.5434
-431.838
-211.345
-359.008
-116.722
1979.66
-257.232
1787.1
-363.25
1778.46
-423.05
1601.69
-472.936
1543.02
-486.897
1421.6
-484.197
1338.3
-456.999
1241.39
-411.66
1155.46
-349.04
1069.98
-272.708
988.795
-183.625
907.897
-81.6224
824.952
31.465
734.258
144.843
625.397
232.543
483.314
258.206
301.189
204.013
83.7289
83.6941
-91.0331
-275.314
20.0427
1959.62
14.6487
1792.5
25.8679
1767.24
51.1515
1576.41
75.1763
1518.99
118.554
1378.22
163.572
1293.28
218.303
1186.66
277.401
1096.36
347.918
999.464
433.994
902.717
538.691
803.198
658.757
704.884
784.441
608.572
896.317
513.519
959.957
419.671
916.367
344.778
714.38
285.713
398.554
224.789
123.24
5.91155
1953.71
-6.85509
1805.26
-11.0231
1771.41
-28.0668
1593.45
-44.9785
1535.9
-77.6925
1410.93
-123.644
1339.23
-169.491
1232.5
-213.621
1140.48
-247.984
1033.82
-254.721
909.45
-231.224
779.697
-202.108
675.763
-160.358
566.817
-82.1478
435.301
7.77068
329.744
119.151
233.387
193.879
210.976
162.508
256.15
285.747
-58.8646
2012.57
-147.066
1893.47
-221.244
1845.59
-314.046
1686.25
-404.14
1626
-507.45
1514.24
-620.69
1452.47
-742.656
1354.47
-872.354
1270.18
-996.91
1158.38
-1110.13
1022.66
-1190.22
859.79
-1270.36
755.908
-1328.57
625.02
-1437.38
544.107
-1351.91
244.271
-1165.19
46.6671
-850.902
-103.314
-450.228
-144.53
-164.481
25.7468
1986.83
-46.9631
1966.18
-72.3769
1871
-98.9492
1712.83
-119.507
1646.56
-130.848
1525.58
-130.881
1452.51
-129.166
1352.76
-131.414
1272.44
-131.036
1158.01
-135.981
1027.62
-143.11
866.922
-161.281
774.079
-222.658
686.396
-376.109
697.55
-471.379
339.523
-497.352
72.6245
-481.085
-119.595
-421.42
-204.207
-585.901
127.182
1859.65
77.5773
2015.79
89.8148
1858.77
109.034
1693.61
141.279
1614.31
191.012
1475.86
258.572
1384.95
326.22
1285.12
381.457
1217.2
416.514
1122.96
421.825
1022.31
400.869
887.885
414.07
760.878
425.306
675.162
484.206
638.649
370.918
452.81
271.837
171.704
122.088
30.1507
22.1921
-104.317
-563.709
155.491
1704.16
143.898
2027.38
168.887
1833.78
207.767
1654.74
261.483
1560.6
324.437
1412.9
398.27
1311.12
481.087
1202.3
564.542
1133.75
637.789
1049.72
694.958
965.139
722.257
860.586
731.669
751.465
776.213
630.618
842.188
572.672
806.512
488.485
660.517
317.697
501.942
188.724
381.889
15.7326
-181.82
111.018
1593.14
126.741
2011.66
150.868
1809.65
182.484
1623.12
221.73
1521.35
258.459
1376.18
296.272
1273.3
342.694
1155.89
395.516
1080.93
449.619
995.617
500.73
914.03
543.617
817.7
584.219
710.863
637.345
577.493
693.86
516.158
711.15
471.195
648.113
380.734
537.799
299.037
325.218
228.312
143.398
44.6434
1548.5
64.3943
1991.91
80.1336
1793.91
91.7085
1611.55
104.213
1508.85
106.05
1374.34
103.532
1275.82
110.105
1149.31
126.086
1064.95
150.731
970.973
179.197
885.564
213.275
783.623
255.684
668.454
290.434
542.745
336.007
470.584
376.755
430.447
371.006
386.483
315.66
354.383
194.728
349.244
338.126
14.6594
1533.85
28.4941
1978.08
40.4709
1781.94
41.3998
1610.62
41.5221
1508.73
27.3708
1388.5
7.47298
1295.72
-11.1308
1167.92
-15.4375
1069.26
-7.60421
963.143
10.7003
867.263
36.8598
757.467
63.0236
642.293
73.1764
532.594
105.043
438.719
146.343
389.149
165.417
367.41
145.186
374.615
85.8702
408.562
423.997
29.3547
1504.49
41.1121
1966.33
61.1785
1761.88
68.3633
1603.44
77.7162
1499.38
82.6115
1383.6
86.0209
1292.32
78.2735
1175.67
76.9548
1070.58
80.1979
959.901
90.8257
856.636
98.0102
750.284
93.8024
646.502
80.3912
546.007
82.6693
436.442
94.2336
377.585
101.047
360.598
81.3619
394.3
36.4433
453.482
460.44
40.7344
1463.76
50.9508
1956.11
80.6579
1732.17
95.8075
1588.29
115.014
1480.17
141.004
1357.61
174.578
1258.74
199.819
1150.43
217.882
1052.52
226.105
951.681
228.412
854.332
218.315
760.382
202.36
662.459
187.921
560.448
178.364
446.001
172.249
383.702
164.956
367.891
132.362
426.896
68.1942
517.651
528.634
25.8164
1437.95
34.4145
1947.52
72.4687
1694.12
86.2255
1574.54
99.6017
1466.8
116.449
1340.77
143.862
1231.33
174.743
1119.55
198.92
1028.34
209.939
940.663
210.552
853.721
204.757
766.179
203.893
663.325
204.185
560.158
203.127
447.06
202.013
384.817
198.116
371.789
169.724
455.288
104.426
582.95
633.061
-5.73505
1443.69
-5.3887
1947.17
32.677
1656.06
38.2794
1568.94
41.6409
1463.44
41.175
1341.23
45.7765
1226.73
54.5721
1110.76
67.236
1015.68
77.3134
930.588
86.8436
844.192
99.7309
753.293
116.411
646.646
128.602
547.969
139.143
436.521
151.705
372.256
162.024
361.471
151.728
465.584
106.154
628.526
739.215
-11.0475
1454.73
-7.52379
1943.65
35.3434
1613.19
43.9219
1560.36
47.0465
1460.31
43.272
1345.01
39.3349
1230.67
31.7441
1118.35
31.3398
1016.08
36.1815
925.747
46.7363
833.638
58.6047
741.425
65.3876
639.863
65.3708
547.986
61.9541
439.938
63.9388
370.272
73.6208
351.79
81.3234
457.882
63.7234
646.127
802.938
-11.6816
1466.42
-4.83706
1936.81
53.4952
1554.86
80.2154
1533.64
100.521
1440.01
116.824
1328.71
131.18
1216.32
136.887
1112.64
141.953
1011.02
144.975
922.726
147.47
831.144
143.418
745.478
133.319
649.963
118.21
563.096
102.105
456.044
88.5881
383.79
81.1812
359.197
73.555
465.509
46.3328
673.35
849.271
77.0546
1389.36
63.1926
1950.67
58.634
1559.42
91.9874
1500.29
112.192
1419.8
116.21
1324.69
121.408
1211.12
123.223
1110.83
122.913
1011.33
119.507
926.132
110.817
839.835
95.4688
760.827
73.9999
671.432
49.4672
587.629
21.3918
484.12
-0.936109
406.118
-4.69322
362.955
10.3334
450.483
4.03343
679.651
853.305
221.101
450.055
573.447
729.124
865.133
967.318
998.459
1007.67
994.132
962.442
909.962
839.15
746.677
636.647
502.744
360.23
227.719
133.981
63.2746
)
;

boundaryField
{
    outletWall
    {
        type            calculated;
        value           nonuniform List<scalar> 
60
(
15607.7
244.531
6063.81
11654.8
8128.34
-7084.94
-23279.9
-29750.3
-26603.2
-14635.2
10344.7
24297.3
24548.7
21117
17592.4
14371
11709.2
9081.99
7790.41
2126.74
5196.87
5851.25
6347.2
6568.59
6431.45
6157.57
5947.55
5804.73
5656.33
5569.04
5580.35
5549.97
5320.23
4863.49
4243.07
3632.13
3148.41
2994.41
2916.13
4091.85
14094.2
-3148.8
-16265.2
-24432.4
-27428
-24619.3
-12070.4
13447.9
26238
24614.2
16992
700.937
-16431.4
-19828.6
-20483.6
-20235.4
-19096.2
-17158.4
-15800.5
-5284.71
)
;
    }
    fineWalls
    {
        type            calculated;
        value           uniform 0;
    }
    fineFrontAndBack
    {
        type            calculated;
        value           nonuniform List<scalar> 
960
(
-1.3512e-12
-4.91036e-12
-6.4835e-13
-9.17205e-13
-1.05017e-11
-3.14118e-12
-5.1276e-12
-6.88595e-12
-5.44316e-11
-1.359e-11
-9.07833e-12
2.66159e-11
1.18495e-11
1.02581e-11
4.36954e-11
8.91434e-12
8.44393e-12
2.44041e-11
3.15611e-12
2.4961e-12
5.0496e-13
5.15284e-14
-1.17222e-13
-2.88602e-13
-3.83395e-13
-5.60461e-13
-5.90805e-12
-6.66103e-13
-7.10706e-13
-7.2712e-13
-7.51938e-13
-7.86843e-13
-8.29291e-13
-8.82286e-13
-9.49065e-13
-1.06303e-12
-1.19078e-12
-1.46114e-12
-1.38201e-12
-1.08108e-12
-2.01201e-11
-2.28363e-12
-2.15973e-12
-2.24336e-12
-3.023e-12
5.13857e-13
2.52858e-12
-3.39212e-13
9.094e-11
4.97147e-11
2.57132e-11
9.91751e-11
7.34393e-12
4.88181e-12
3.09602e-12
9.07213e-12
1.58627e-12
1.38468e-12
1.49884e-12
1.55803e-11
8.77824e-13
1.11904e-12
1.35148e-12
1.22667e-12
1.06254e-12
9.44425e-13
8.5806e-13
8.00258e-13
7.51752e-13
7.144e-13
6.83382e-13
6.66074e-13
6.579e-13
5.11049e-12
5.19873e-13
4.25442e-13
4.55817e-13
4.61315e-13
4.68718e-13
3.20792e-13
3.58176e-12
3.92871e-12
2.72602e-11
5.01994e-12
4.12736e-12
1.29208e-11
1.8439e-12
4.81799e-13
-1.93445e-13
5.91491e-14
7.19109e-13
1.18974e-11
4.02172e-12
4.09675e-12
4.2033e-12
1.06705e-11
1.62997e-12
1.93167e-12
5.74885e-12
1.41716e-12
-7.18462e-12
-2.23886e-11
-2.15769e-11
-4.41871e-12
6.47244e-12
4.90845e-12
-2.43777e-12
-1.10156e-11
-1.82465e-11
-1.6908e-11
-5.5367e-12
-4.56603e-12
-6.10713e-12
-3.50387e-12
-3.71263e-12
-4.28158e-12
-6.19779e-12
-5.47344e-12
-1.23956e-11
-2.48158e-12
-2.15622e-11
-2.17206e-11
1.61957e-12
1.52777e-11
1.12679e-11
1.90724e-12
-6.92267e-12
-1.66314e-11
-1.90121e-11
-4.87646e-12
-4.37384e-12
-5.91297e-12
-3.21343e-12
-3.58672e-12
-3.54078e-12
-3.78165e-12
-2.40859e-12
-1.0798e-11
5.9387e-12
-1.80386e-11
-1.87663e-11
4.67922e-12
1.49677e-11
9.09934e-12
1.08298e-12
-6.5033e-12
-1.72587e-11
-2.24484e-11
-6.04476e-12
-3.12729e-12
-5.44838e-12
-2.90018e-12
-3.62832e-12
-1.22774e-12
9.05715e-13
1.71765e-12
-8.48225e-12
1.34384e-11
-1.47026e-11
-1.17703e-11
1.01767e-11
1.22297e-11
4.5897e-12
-1.56232e-13
-6.72552e-12
-1.81929e-11
-2.6567e-11
-1.12186e-11
-1.78869e-12
-4.58817e-12
-2.26785e-12
-1.84294e-12
6.21781e-12
8.63295e-12
4.09802e-12
-3.22252e-12
1.73331e-11
-1.041e-11
-2.16433e-12
1.46475e-11
5.97716e-12
-9.96358e-13
-2.77606e-12
-8.58369e-12
-1.82311e-11
-2.75843e-11
-1.87376e-11
-1.04609e-12
-3.81012e-12
-1.18819e-12
5.3142e-12
1.99872e-11
1.50752e-11
-2.32796e-12
-7.97816e-12
1.5059e-11
-6.32256e-12
8.83716e-12
1.4862e-11
-8.88323e-13
-4.5948e-12
-4.59131e-12
-9.52276e-12
-1.52599e-11
-2.61039e-11
-2.47431e-11
-2.08967e-12
-3.2867e-12
9.07327e-13
1.87181e-11
3.13835e-11
1.8712e-11
-4.80875e-12
-1.49778e-11
7.77456e-12
-1.9242e-12
1.75085e-11
1.04911e-11
-4.20383e-12
-4.20146e-12
-4.47334e-12
-7.23243e-12
-9.18241e-12
-2.03553e-11
-2.33865e-11
-5.12111e-12
-3.48029e-12
1.98446e-12
2.85137e-11
4.15534e-11
3.04595e-11
1.09796e-11
-8.40834e-12
-7.59707e-13
6.32791e-12
2.3014e-11
4.86707e-12
-1.94585e-12
8.11185e-14
-1.44124e-12
-2.2907e-12
-2.51249e-12
-1.49693e-11
-2.04265e-11
-7.84612e-12
-4.89586e-12
4.08019e-12
3.67951e-11
4.27267e-11
3.74358e-11
3.41781e-11
2.49175e-11
-6.37182e-12
1.8093e-11
2.18264e-11
2.88397e-12
3.58462e-12
4.97515e-12
3.79772e-12
2.85734e-12
2.44422e-12
-1.03246e-11
-2.18399e-11
-1.04055e-11
-5.32793e-12
9.35739e-12
3.3894e-11
1.96184e-11
2.19387e-11
4.16062e-11
2.53113e-11
-4.57603e-12
3.20518e-11
1.50122e-11
4.02392e-12
7.79787e-12
7.74117e-12
8.03433e-12
7.12162e-12
6.98636e-12
-1.73456e-12
-1.72595e-11
-9.20125e-12
-4.93207e-12
2.16525e-13
-1.07454e-11
-1.69473e-11
-1.03355e-11
3.1772e-11
9.77876e-11
1.10458e-11
3.48541e-11
5.93387e-12
3.26985e-12
4.54592e-12
4.36694e-12
6.82753e-12
6.57109e-12
8.50276e-12
7.74611e-12
-6.53214e-12
-6.11634e-12
-5.07015e-12
-7.02051e-12
-2.09933e-11
-2.98898e-11
-2.73778e-11
-1.71509e-11
3.56293e-11
2.44578e-11
1.86792e-11
-2.31317e-12
-3.26262e-12
-5.06978e-12
-5.79262e-12
-3.36621e-12
6.98146e-13
6.39392e-12
1.03263e-11
8.03301e-13
-4.5562e-12
-6.37267e-12
-9.76646e-12
-1.65351e-11
-2.42825e-11
-2.0566e-11
-2.52534e-11
-2.59168e-11
2.84262e-11
9.50273e-12
-3.57663e-12
-8.26664e-12
-1.1113e-11
-1.24417e-11
-1.24664e-11
-7.95933e-12
2.02302e-12
1.16289e-11
2.2244e-12
-4.58971e-12
-7.96914e-12
-1.10363e-11
-1.90454e-11
-2.90242e-11
-2.42379e-11
-1.90855e-11
-2.54896e-11
3.03499e-11
9.97391e-12
-1.20688e-12
-7.7467e-12
-1.05493e-11
-1.22662e-11
-1.54922e-11
-1.62863e-11
-5.98052e-12
9.58906e-12
5.59267e-13
-7.44408e-12
-9.18625e-12
-1.16349e-11
-2.34748e-11
-2.93926e-11
-2.65601e-11
-2.17717e-11
-1.56538e-11
2.58934e-11
6.50333e-12
-1.21136e-13
-6.49104e-12
-8.85265e-12
-9.38289e-12
-1.36059e-11
-2.03219e-11
-1.54921e-11
2.07792e-12
-2.52162e-12
-1.16712e-11
-1.05595e-11
-1.26805e-11
-2.68491e-11
-2.8411e-11
-2.70366e-11
-2.17535e-11
-3.85845e-11
1.08544e-11
2.02426e-13
-6.95968e-13
-5.49942e-12
-7.06594e-12
-7.56413e-12
-1.05557e-11
-1.86567e-11
-2.1652e-11
-7.98137e-12
-5.59531e-12
-1.37525e-11
-1.11166e-11
-1.48854e-11
-2.99238e-11
-2.9001e-11
-2.78559e-11
-2.26676e-11
-3.28465e-11
-3.70643e-12
-2.8347e-12
-1.42147e-12
-4.37742e-12
-5.85537e-12
-6.43301e-12
-8.22432e-12
-1.4667e-11
-2.1872e-11
-1.27902e-11
-5.7904e-12
-1.17763e-11
-1.10365e-11
-1.64847e-11
-2.58108e-11
-2.91999e-11
-2.7371e-11
-2.24214e-11
-1.97089e-11
-9.70494e-12
-3.19496e-12
-9.57306e-13
-3.01454e-12
-4.99283e-12
-6.19586e-12
-7.13205e-12
-1.12496e-11
-1.76839e-11
-1.20613e-11
-3.12575e-12
-7.66965e-12
-1.11383e-11
-1.85528e-11
-2.29302e-11
-2.87138e-11
-2.71862e-11
-2.16171e-11
-9.10441e-12
-6.85104e-12
-1.01335e-12
-1.25944e-13
-1.77389e-12
-4.43083e-12
-6.18572e-12
-6.51819e-12
-9.55909e-12
-1.57428e-11
-1.15068e-11
-6.78678e-13
-3.42306e-12
-1.18994e-11
-2.17987e-11
-2.26813e-11
-2.87625e-11
-2.68221e-11
-2.03151e-11
-1.81083e-11
-2.30866e-12
2.04704e-14
7.5998e-13
-1.07094e-12
-4.16231e-12
-6.1593e-12
-6.04591e-12
-8.34819e-12
-1.42125e-11
-1.34528e-11
-2.33495e-12
-1.87007e-12
-1.29427e-11
-2.24454e-11
-2.28617e-11
-2.89407e-11
-2.64598e-11
-1.96585e-11
-1.60431e-11
1.3512e-12
4.91036e-12
6.4835e-13
9.17205e-13
1.05017e-11
3.14118e-12
5.1276e-12
6.88595e-12
5.44316e-11
1.359e-11
9.07833e-12
-2.66159e-11
-1.18495e-11
-1.02581e-11
-4.36954e-11
-8.91434e-12
-8.44393e-12
-2.44041e-11
-3.15611e-12
-2.4961e-12
-5.0496e-13
-5.15284e-14
1.17222e-13
2.88602e-13
3.83395e-13
5.60461e-13
5.90805e-12
6.66103e-13
7.10706e-13
7.2712e-13
7.51938e-13
7.86843e-13
8.29291e-13
8.82286e-13
9.49065e-13
1.06303e-12
1.19078e-12
1.46114e-12
1.38201e-12
1.08108e-12
2.01201e-11
2.28363e-12
2.15973e-12
2.24336e-12
3.023e-12
-5.13857e-13
-2.52858e-12
3.39212e-13
-9.094e-11
-4.97147e-11
-2.57132e-11
-9.91751e-11
-7.34393e-12
-4.88181e-12
-3.09602e-12
-9.07213e-12
-1.58627e-12
-1.38468e-12
-1.49884e-12
-1.55803e-11
-8.77824e-13
-1.11904e-12
-1.35148e-12
-1.22667e-12
-1.06254e-12
-9.44425e-13
-8.5806e-13
-8.00258e-13
-7.51752e-13
-7.144e-13
-6.83382e-13
-6.66074e-13
-6.579e-13
-5.11049e-12
-5.19873e-13
-4.25442e-13
-4.55817e-13
-4.61315e-13
-4.68718e-13
-3.20792e-13
-3.58176e-12
-3.92871e-12
-2.72602e-11
-5.01994e-12
-4.12736e-12
-1.29208e-11
-1.8439e-12
-4.81799e-13
1.93445e-13
-5.91491e-14
-7.19109e-13
-1.18974e-11
-4.02172e-12
-4.09675e-12
-4.2033e-12
-1.06705e-11
-1.62997e-12
-1.93167e-12
-5.74885e-12
-1.41716e-12
7.18462e-12
2.23886e-11
2.15769e-11
4.41871e-12
-6.47244e-12
-4.90845e-12
2.43777e-12
1.10156e-11
1.82465e-11
1.6908e-11
5.5367e-12
4.56603e-12
6.10713e-12
3.50387e-12
3.71263e-12
4.28158e-12
6.19779e-12
5.47344e-12
1.23956e-11
2.48158e-12
2.15622e-11
2.17206e-11
-1.61957e-12
-1.52777e-11
-1.12679e-11
-1.90724e-12
6.92267e-12
1.66314e-11
1.90121e-11
4.87646e-12
4.37384e-12
5.91297e-12
3.21343e-12
3.58672e-12
3.54078e-12
3.78165e-12
2.40859e-12
1.0798e-11
-5.9387e-12
1.80386e-11
1.87663e-11
-4.67922e-12
-1.49677e-11
-9.09934e-12
-1.08298e-12
6.5033e-12
1.72587e-11
2.24484e-11
6.04476e-12
3.12729e-12
5.44838e-12
2.90018e-12
3.62832e-12
1.22774e-12
-9.05715e-13
-1.71765e-12
8.48225e-12
-1.34384e-11
1.47026e-11
1.17703e-11
-1.01767e-11
-1.22297e-11
-4.5897e-12
1.56232e-13
6.72552e-12
1.81929e-11
2.6567e-11
1.12186e-11
1.78869e-12
4.58817e-12
2.26785e-12
1.84294e-12
-6.21781e-12
-8.63295e-12
-4.09802e-12
3.22252e-12
-1.73331e-11
1.041e-11
2.16433e-12
-1.46475e-11
-5.97716e-12
9.96358e-13
2.77606e-12
8.58369e-12
1.82311e-11
2.75843e-11
1.87376e-11
1.04609e-12
3.81012e-12
1.18819e-12
-5.3142e-12
-1.99872e-11
-1.50752e-11
2.32796e-12
7.97816e-12
-1.5059e-11
6.32256e-12
-8.83716e-12
-1.4862e-11
8.88323e-13
4.5948e-12
4.59131e-12