/*--------------------------------*- C++ -*----------------------------------*\
| =========                 |                                                 |
| \\      /  F ield         | OpenFOAM: The Open Source CFD Toolbox           |
|  \\    /   O peration     | Version:  4.1                                   |
|   \\  /    A nd           | Web:      www.OpenFOAM.org                      |
|    \\/     M anipulation  |                                                 |
\*---------------------------------------------------------------------------*/
FoamFile
{
    version     2.0;
    format      ascii;
    class       volVectorField;
    location    "30";
    object      U;
}
// * * * * * * * * * * * * * * * * * * * * * * * * * * * * * * * * * * * * * //

dimensions      [0 1 -1 0 0 0 0];

internalField   nonuniform List<vector> 
1280
(
(-9.76475e-16 -4.63339 -3.30962)
(-8.34564e-16 -3.57295 -3.01846)
(-4.68545e-16 -3.5938 -2.0835)
(-6.6284e-16 -3.00269 -2.36584)
(-1.78487e-15 -2.97318 -3.30786)
(-2.27005e-15 -2.08088 -2.27768)
(-3.70558e-15 -1.8673 -2.62446)
(-4.88461e-15 -1.37705 -2.5992)
(-9.54587e-15 -0.958398 -3.37488)
(-1.0003e-14 -0.587853 -2.25054)
(-6.73955e-15 -0.112864 -2.28503)
(6.50434e-15 0.291831 -3.65784)
(8.67916e-15 0.751319 -2.80419)
(7.52823e-15 1.22805 -2.47304)
(8.36657e-15 1.90829 -3.91008)
(6.44216e-15 1.99123 -3.03791)
(6.10221e-15 2.82275 -2.5542)
(4.14772e-15 2.31558 -4.90178)
(2.28084e-15 4.57502 -2.46662)
(1.80387e-15 2.48832 -6.58616)
(2.07163e-15 4.40601 1.89018)
(2.11399e-16 4.512 7.04609)
(-4.80909e-16 4.42389 8.57472)
(-1.18401e-15 4.89949 9.2068)
(-1.5729e-15 4.86751 9.41014)
(-2.29933e-15 5.28572 10.5872)
(-1.24544e-15 4.48499 7.09938)
(-2.73273e-15 8.74608 12.4351)
(-2.91572e-15 8.9804 12.5757)
(-2.98306e-15 8.99144 12.7499)
(-3.08488e-15 9.06201 12.8984)
(-3.22807e-15 9.0558 13.0268)
(-3.40222e-15 9.09083 13.0481)
(-3.61963e-15 9.00277 13.0439)
(-3.8936e-15 9.03389 12.94)
(-4.36116e-15 8.85352 12.8118)
(-4.88525e-15 8.9081 12.6076)
(-5.99441e-15 8.60696 12.4906)
(-5.66977e-15 8.69328 12.8355)
(-4.43518e-15 8.46695 13.8268)
(-3.5022e-15 10.3683 14.3006)
(-1.83424e-15 6.92499 9.59855)
(-1.73472e-15 5.83912 9.36322)
(-1.78682e-15 4.66646 9.16492)
(-2.55248e-16 3.35387 9.32562)
(4.12737e-16 2.2334 5.5422)
(2.03099e-15 1.51831 5.26462)
(-2.7246e-16 0.997921 5.67257)
(1.64334e-14 -0.380608 1.34633)
(3.9708e-14 -0.536152 -3.79986)
(2.04296e-14 0.168416 -3.65331)
(1.72629e-14 -0.0526206 -3.98151)
(5.89874e-15 -0.574074 -2.06054)
(3.92113e-15 0.263436 0.593683)
(2.48676e-15 -0.633461 3.04529)
(1.57913e-15 -0.759082 7.34848)
(1.29624e-15 -2.21905 8.77759)
(1.11219e-15 -3.23119 8.49409)
(1.20389e-15 -4.14197 8.5556)
(2.61648e-15 -8.37141 13.8262)
(3.60133e-15 -7.62908 14.6231)
(4.59093e-15 -7.83524 13.7621)
(5.54452e-15 -7.73699 13.0871)
(5.03249e-15 -8.05861 13.0956)
(4.35914e-15 -8.03527 13.3283)
(3.87456e-15 -8.24404 13.5459)
(3.52025e-15 -8.25091 13.7616)
(3.28311e-15 -8.36775 13.8635)
(3.08411e-15 -8.36406 13.9349)
(2.93087e-15 -8.41298 13.9188)
(2.80362e-15 -8.38005 13.8842)
(2.73261e-15 -8.31051 13.7923)
(2.69908e-15 -8.23359 13.6098)
(1.07731e-15 -4.88134 8.52749)
(2.13281e-15 -6.24777 9.39665)
(1.7454e-15 -5.92452 8.68157)
(1.87002e-15 -5.84977 8.10873)
(1.89257e-15 -5.35199 7.32092)
(1.92295e-15 -5.44928 6.5247)
(1.31607e-15 -5.23566 1.60319)
(2.58845e-15 -3.70285 -4.70649)
(2.83918e-15 -5.38048 -1.11221)
(4.63314e-15 -4.841 -2.56489)
(3.62778e-15 -4.87866 -2.07309)
(2.98274e-15 -4.19666 -2.02952)
(1.9945e-15 -4.98753 -3.20922)
(1.29824e-15 -3.71791 -3.20706)
(3.48399e-16 -3.12149 -3.22789)
(-3.52795e-18 -3.22531 -4.0121)
(1.02606e-17 -1.90062 -3.00282)
(4.67189e-16 -1.33819 -3.25415)
(2.2952e-15 -1.1096 -5.16593)
(2.97134e-15 0.34902 -3.6847)
(2.96062e-15 0.886973 -3.45733)
(3.03762e-15 1.28007 -2.97893)
(1.81355e-15 2.22982 -4.86358)
(1.17794e-15 2.94689 -3.36445)
(1.40511e-15 3.73595 -2.83472)
(9.56556e-16 3.5573 -4.0215)
(1.02414e-15 5.15345 -3.65476)
(-7.98291e-16 0.724249 3.44084)
(-2.48762e-15 2.59596 5.22238)
(-2.39744e-15 3.03574 5.55676)
(-4.90968e-16 3.92142 5.14031)
(7.1916e-16 4.80762 4.69389)
(5.45383e-16 5.88098 4.33428)
(-2.70863e-16 7.05585 4.0454)
(-1.22396e-15 8.20354 3.8527)
(-2.02739e-15 8.13695 3.4664)
(-1.87867e-15 3.48243 2.45472)
(-6.15189e-16 -4.77544 0.874704)
(-5.07336e-16 -8.81829 0.330117)
(-6.7857e-16 -9.90034 -0.0146528)
(-3.89319e-16 -7.76968 -0.613102)
(-4.12515e-16 -2.41165 -1.66769)
(-4.75732e-16 2.81413 -3.57332)
(-6.88643e-16 3.92158 -5.22353)
(-6.0816e-16 1.99148 -6.2007)
(-1.37729e-15 -0.0374909 -6.16295)
(-2.75731e-16 -0.0482858 2.48506)
(-2.39581e-15 1.79275 4.86987)
(-2.4134e-15 3.03967 5.07462)
(1.79953e-16 4.21129 4.55685)
(1.69752e-15 5.07317 3.92539)
(1.25199e-15 6.08537 3.48509)
(2.11916e-16 7.19315 3.22962)
(-7.69185e-16 8.36313 3.17285)
(-1.84793e-15 8.54151 2.93256)
(-2.11246e-15 4.38606 2.48319)
(-5.41828e-16 -4.27278 1.03504)
(-4.85982e-16 -8.62464 0.561306)
(-6.56997e-16 -9.60969 0.353338)
(-3.57048e-16 -7.17653 -0.29328)
(-3.98525e-16 -1.18698 -1.83681)
(-3.9342e-16 3.86555 -4.67121)
(-4.20183e-16 4.85279 -6.95434)
(-2.67621e-16 2.34843 -8.51856)
(-1.19978e-15 -0.772745 -7.45868)
(6.59856e-16 -0.359031 2.55355)
(-2.00429e-15 1.56866 4.73135)
(-2.08515e-15 3.13549 4.63281)
(5.19913e-16 4.42205 4.12395)
(1.66308e-15 5.26366 3.44613)
(1.01104e-15 6.19142 3.03742)
(1.20331e-16 7.21618 2.85078)
(-7.22589e-16 8.36345 2.84374)
(-1.91763e-15 8.52704 2.62684)
(-2.49427e-15 4.45409 2.63648)
(-6.7164e-16 -3.93359 1.72762)
(-3.47477e-16 -8.46696 0.897878)
(-6.05376e-16 -9.48315 0.960999)
(-3.22242e-16 -6.79803 0.285493)
(-4.03146e-16 -0.284281 -1.70719)
(-1.36416e-16 4.85657 -4.76873)
(1.00635e-16 5.65886 -6.74711)
(1.9085e-16 2.3301 -8.53492)
(-9.42473e-16 -1.57453 -7.65731)
(1.49316e-15 -0.934053 2.69338)
(-1.63362e-15 1.0719 4.65392)
(-1.30781e-15 3.2492 4.20281)
(1.13075e-15 4.69191 3.66903)
(1.35885e-15 5.4864 3.03426)
(5.09966e-16 6.30912 2.72974)
(-1.73592e-17 7.25882 2.63656)
(-7.4728e-16 8.41773 2.66405)
(-2.02143e-15 8.59714 2.47933)
(-2.95189e-15 4.63225 2.86258)
(-1.24651e-15 -3.57922 2.55747)
(-1.98743e-16 -8.32481 1.51672)
(-5.09797e-16 -9.41274 1.79324)
(-2.51983e-16 -6.32376 1.08441)
(-2.04771e-16 0.982112 -1.27147)
(6.90868e-16 5.69037 -3.10994)
(9.59217e-16 6.40153 -3.61412)
(4.55336e-16 2.73766 -5.31405)
(-3.58058e-16 -2.40023 -6.19798)
(1.9259e-15 -1.29658 3.09475)
(-1.15666e-15 0.999227 4.57578)
(-2.40481e-16 3.47284 3.67338)
(1.6275e-15 4.91167 3.26782)
(6.64128e-16 5.63848 2.75517)
(-1.10706e-16 6.35983 2.60579)
(-3.08451e-16 7.25804 2.60034)
(-9.53743e-16 8.42597 2.6486)
(-2.02568e-15 8.515 2.55344)
(-3.06493e-15 4.44299 3.33428)
(-2.08196e-15 -3.3991 3.57819)
(-1.16232e-16 -8.17788 2.57498)
(-4.23347e-16 -9.34207 2.80567)
(-1.32021e-16 -5.74115 2.01453)
(5.90467e-16 1.92579 -0.0812919)
(2.2208e-15 5.61543 1.11208)
(1.67502e-15 6.56711 1.91667)
(-2.58663e-16 3.00049 0.38762)
(-8.86462e-16 -2.10204 -3.16457)
(1.67323e-15 -1.60863 3.6002)
(-7.02507e-16 0.964778 4.46148)
(9.81906e-16 3.72344 3.18588)
(1.65133e-15 5.07913 2.97248)
(-9.87026e-17 5.74034 2.57764)
(-5.10533e-16 6.37077 2.58946)
(-5.10146e-16 7.24484 2.64894)
(-1.05808e-15 8.41219 2.7516)
(-1.69555e-15 8.36569 2.8535)
(-2.90043e-15 4.14881 4.05966)
(-2.74923e-15 -3.27543 4.71387)
(-2.32186e-16 -8.02736 3.89158)
(-3.65189e-16 -9.23489 3.87284)
(1.00814e-16 -5.2441 3.06646)
(2.07978e-15 1.65342 3.10158)
(3.48705e-15 4.90742 5.68598)
(2.07911e-15 6.70708 6.43513)
(-5.34306e-16 4.33429 5.30329)
(-1.6642e-15 -2.2146 -0.370733)
(8.6384e-16 -1.75342 4.1071)
(-2.138e-16 1.2328 4.20449)
(1.94539e-15 4.01319 2.7945)
(1.16568e-15 5.17548 2.79606)
(-4.67093e-16 5.78653 2.49258)
(-4.66829e-16 6.33667 2.62734)
(-4.97037e-16 7.19928 2.71962)
(-8.03603e-16 8.32554 2.92118)
(-1.02027e-15 8.06001 3.30046)
(-2.26171e-15 3.63358 4.90723)
(-2.5985e-15 -3.31556 5.87394)
(-5.69013e-16 -7.84917 5.18979)
(-3.86698e-16 -9.08368 4.87971)
(2.20495e-16 -5.21204 4.39494)
(3.16819e-15 0.774084 6.29696)
(4.61705e-15 4.29569 8.48048)
(3.38438e-15 7.00938 9.50761)
(1.21996e-15 6.8854 10.1252)
(-9.3426e-16 3.24767 5.11497)
(-8.44119e-17 -1.73415 4.46795)
(7.03101e-16 1.59395 3.79928)
(2.55711e-15 4.24299 2.63139)
(5.40785e-16 5.21846 2.72826)
(-2.16206e-16 5.80098 2.49369)
(9.01317e-18 6.27995 2.68265)
(-1.60138e-16 7.12467 2.78583)
(-2.54523e-16 8.16003 3.12491)
(-2.79166e-16 7.63005 3.79637)
(-1.66325e-15 3.01843 5.64028)
(-2.26961e-15 -3.40261 6.83874)
(-8.71791e-16 -7.64857 6.27164)
(-5.43985e-16 -8.9671 5.78054)
(4.53355e-16 -5.58698 5.71779)
(4.08835e-15 -0.0159729 7.80681)
(4.74741e-15 3.62247 9.3543)
(4.15953e-15 5.82555 10.8513)
(3.79757e-15 3.82447 14.1668)
(2.76861e-15 -4.32817 16.751)
(-7.0798e-16 -1.55046 4.63015)
(2.01033e-15 2.01568 3.40222)
(2.42515e-15 4.40494 2.70903)
(3.20442e-16 5.24129 2.73396)
(3.98291e-16 5.79802 2.56826)
(5.52795e-16 6.21855 2.73644)
(4.21969e-16 7.02102 2.84037)
(3.17483e-16 7.91209 3.32406)
(2.7158e-16 7.11593 4.23798)
(-1.14718e-15 2.33478 6.07938)
(-2.42666e-15 -3.5451 7.40014)
(-1.15617e-15 -7.46211 7.02892)
(-5.91992e-16 -8.89263 6.46494)
(1.03971e-15 -6.01268 6.53824)
(3.766e-15 -0.810149 8.2262)
(2.17982e-15 3.06174 9.22777)
(2.43763e-15 5.49118 9.33892)
(4.62291e-15 5.40257 8.98009)
(2.81236e-15 3.02925 7.83396)
(-5.08448e-16 -1.2608 4.6211)
(3.56132e-15 2.38087 3.22915)
(1.66802e-15 4.49568 2.95184)
(4.47102e-16 5.27688 2.80411)
(8.6643e-16 5.79576 2.69375)
(8.6013e-16 6.17017 2.77834)
(9.17891e-16 6.89113 2.88265)
(7.91291e-16 7.5974 3.48598)
(7.76262e-16 6.5842 4.58995)
(-1.92729e-16 1.69493 6.28157)
(-1.91773e-15 -3.73528 7.52159)
(-9.40291e-16 -7.31597 7.44708)
(-5.48008e-16 -8.7997 6.92228)
(2.40584e-17 -6.33204 7.22247)
(-1.88242e-15 -1.16718 9.19398)
(-1.88303e-15 3.22318 9.49971)
(-1.14838e-15 5.71628 9.26578)
(3.53022e-15 4.78867 9.27657)
(1.08653e-14 1.44181 4.51785)
(1.22731e-15 -0.954808 4.58275)
(3.87268e-15 2.66448 3.40192)
(6.59319e-16 4.58143 3.2305)
(3.63317e-16 5.34194 2.92229)
(5.05102e-16 5.81016 2.83037)
(4.85216e-16 6.1428 2.80197)
(7.45797e-16 6.73758 2.90391)
(7.30121e-16 7.22563 3.57427)
(9.44752e-16 6.03133 4.8303)
(8.60679e-16 1.11145 6.41639)
(-7.25793e-16 -3.95796 7.42032)
(-6.79593e-16 -7.24281 7.60743)
(-5.6335e-16 -8.76676 7.19647)
(-7.80056e-16 -6.78213 7.72646)
(-2.33259e-15 -1.53432 8.90794)
(-3.32109e-15 3.16584 6.65158)
(-3.04198e-15 5.59002 6.76752)
(-1.90566e-15 6.44989 9.75664)
(3.95881e-15 5.46672 8.75534)
(2.71753e-15 -0.699754 4.64113)
(2.07547e-15 2.88441 3.72759)
(-2.57018e-16 4.70821 3.42787)
(-3.62513e-16 5.43011 3.04645)
(-5.63309e-16 5.84958 2.93748)
(-6.43625e-16 6.14155 2.81474)
(-3.74024e-16 6.58487 2.89923)
(7.75718e-17 6.82943 3.5513)
(7.10436e-16 5.46019 4.87012)
(1.14736e-15 0.60057 6.404)
(8.92557e-17 -4.18425 7.18091)
(-5.06244e-16 -7.25362 7.57816)
(-7.08075e-16 -8.80379 7.37625)
(-1.08516e-15 -7.03306 7.92421)
(-1.83723e-15 -0.988448 7.465)
(-2.69805e-15 3.88224 3.2569)
(-2.28511e-15 4.43719 2.76392)
(-2.80594e-15 4.29536 5.69384)
(-2.87964e-15 5.51564 10.6936)
(3.15847e-15 -0.490335 4.76191)
(1.05586e-15 3.09759 3.93527)
(-3.97403e-16 4.87708 3.49258)
(-9.18516e-16 5.5248 3.12805)
(-1.23477e-15 5.90708 2.98422)
(-1.38241e-15 6.15508 2.81081)
(-1.38515e-15 6.44557 2.85984)
(-8.8437e-16 6.44645 3.41743)
(2.2478e-16 4.89976 4.69667)
(1.2921e-15 0.194799 6.17904)
(2.47156e-16 -4.41868 6.73457)
(-5.09968e-16 -7.37778 7.43392)
(-8.8546e-16 -8.89363 7.66205)
(-1.22625e-15 -6.89065 8.13112)
(-2.11616e-15 0.347132 6.35646)
(-3.22491e-15 5.03251 2.23296)
(-2.6931e-15 4.81042 1.73641)
(-2.12061e-15 2.68974 -0.00999083)
(-2.83217e-15 5.24135 6.41078)
(3.37221e-15 -0.267517 4.88548)
(1.10821e-15 3.3317 3.96868)
(-1.34098e-16 5.05853 3.46044)
(-8.60745e-16 5.61809 3.16269)
(-1.17215e-15 5.98188 2.9664)
(-1.36291e-15 6.18437 2.76608)
(-1.72136e-15 6.33492 2.75634)
(-1.80959e-15 6.10017 3.18272)
(-6.64502e-16 4.34309 4.39359)
(1.06545e-15 -0.154659 5.99882)
(6.21407e-17 -4.68534 6.33319)
(-8.2712e-16 -7.65691 7.22062)
(-1.02069e-15 -9.04808 8.03549)
(-1.29277e-15 -6.50475 8.2659)
(-2.60831e-15 1.5282 5.03883)
(-3.26584e-15 5.79436 1.14541)
(-2.95112e-15 5.26429 0.816416)
(-2.41908e-15 3.03329 -0.955963)
(-1.73931e-15 -0.899584 -3.45609)
(2.87704e-15 -0.0320652 5.06923)
(7.22592e-16 3.60473 3.86291)
(-1.34595e-17 5.22701 3.40649)
(-7.21226e-16 5.70763 3.16828)
(-9.83628e-16 6.07392 2.91724)
(-1.04254e-15 6.23577 2.69398)
(-1.51177e-15 6.26976 2.60724)
(-2.25799e-15 5.80212 2.86864)
(-1.72135e-15 3.74463 4.00042)
(2.3088e-16 -0.505222 5.9802)
(-2.8018e-16 -4.90923 6.35352)
(-1.2968e-15 -8.06413 7.13763)
(-1.17328e-15 -9.26202 8.43826)
(-1.40894e-15 -5.68788 7.97566)
(-2.98323e-15 3.06451 2.80237)
(-3.15677e-15 6.68655 0.483838)
(-3.00406e-15 5.64628 -0.567145)
(-2.41706e-15 4.03499 -1.84639)
(-4.28717e-15 1.12394 -3.97622)
(1.20605e-15 0.303945 5.31106)
(2.24918e-17 3.94323 3.65864)
(-7.73298e-17 5.36107 3.39803)
(-6.11046e-16 5.80054 3.15284)
(-7.85104e-16 6.18056 2.87145)
(-8.40459e-16 6.30836 2.62141)
(-1.17286e-15 6.25682 2.46699)
(-2.07297e-15 5.56836 2.54723)
(-2.40578e-15 3.03409 3.58057)
(-8.86819e-16 -1.08136 6.10949)
(-6.21701e-16 -5.18983 6.83316)
(-1.52806e-15 -8.49987 7.43026)
(-1.23518e-15 -9.34557 8.80255)
(-1.65393e-15 -4.27107 7.08588)
(-3.32487e-15 4.44852 0.337397)
(-3.22233e-15 7.2008 0.0684492)
(-3.0951e-15 6.20894 -1.53266)
(-2.51862e-15 4.38174 -2.72074)
(-3.64961e-15 1.02665 -3.31263)
(-4.11826e-16 0.686691 5.43451)
(-3.14967e-16 4.33335 3.45268)
(-1.57941e-16 5.45161 3.44915)
(-4.8638e-16 5.90879 3.12666)
(-6.50597e-16 6.29666 2.84312)
(-7.14779e-16 6.40036 2.55952)
(-9.13813e-16 6.28766 2.35574)
(-1.62967e-15 5.41066 2.275)
(-2.43022e-15 2.25492 3.14267)
(-1.42113e-15 -1.72237 6.18636)
(-6.43378e-16 -5.45026 7.5763)
(-1.30848e-15 -8.84726 8.21224)
(-1.22628e-15 -9.17325 9.01693)
(-1.83163e-15 -2.30368 5.65646)
(-2.86787e-15 5.70879 -0.789585)
(-3.24444e-15 7.5191 -0.691108)
(-3.04122e-15 6.74791 -2.21499)
(-2.49126e-15 4.70961 -3.17801)
(-2.18987e-15 1.44949 -3.40333)
(-1.07833e-15 1.15563 5.25921)
(-3.54995e-16 4.69388 3.39155)
(-1.06367e-16 5.50758 3.50118)
(-3.34949e-16 6.02658 3.11294)
(-5.54759e-16 6.40727 2.82805)
(-6.88429e-16 6.49664 2.51264)
(-7.9245e-16 6.33941 2.26863)
(-1.24995e-15 5.31608 2.06302)
(-1.96488e-15 1.38189 2.67919)
(-1.34014e-15 -2.85868 6.05754)
(-3.47305e-16 -6.10675 8.13458)
(-8.52184e-16 -9.04426 8.95756)
(-1.23759e-15 -8.3408 8.79765)
(-2.06142e-15 0.0139511 3.68046)
(-2.5478e-15 6.7789 -0.732605)
(-3.19043e-15 7.85779 -1.31458)
(-3.02069e-15 7.16528 -2.73172)
(-2.4019e-15 4.87578 -3.50604)
(-1.0116e-15 1.31524 -3.59593)
(-7.61227e-16 1.47213 4.85205)
(-1.12595e-16 5.01521 3.48178)
(-1.39938e-17 5.57728 3.50801)
(-1.97098e-16 6.16702 3.12337)
(-4.92314e-16 6.53829 2.81937)
(-6.87302e-16 6.61865 2.48121)
(-7.24244e-16 6.42425 2.19496)
(-1.06212e-15 5.29597 1.90444)
(-1.7492e-15 0.532697 2.058)
(-1.27853e-15 -3.69112 5.31239)
(-7.54086e-17 -6.53723 8.51645)
(-3.8034e-16 -9.0878 9.66465)
(-1.32215e-15 -7.37866 8.0407)
(-2.42208e-15 1.91457 1.09475)
(-2.52014e-15 7.49711 -0.601909)
(-3.19584e-15 8.36745 -1.68256)
(-2.98023e-15 7.57128 -3.05156)
(-2.25723e-15 5.06408 -3.67225)
(-2.01203e-15 1.30242 -4.03155)
(-2.56518e-16 1.75385 4.31649)
(2.27449e-18 5.23631 3.59943)
(8.44422e-17 5.69875 3.49252)
(-1.18994e-16 6.33585 3.14546)
(-4.62479e-16 6.71734 2.81818)
(-6.84367e-16 6.8015 2.46465)
(-6.71768e-16 6.59253 2.12786)
(-9.27577e-16 5.50128 1.8473)
(-1.57917e-15 -0.194212 1.79306)
(-1.49476e-15 -5.57534 4.0053)
(-2.59439e-16 -8.10661 7.3443)
(-2.07786e-16 -8.76816 8.81984)
(-1.43807e-15 -4.66528 6.36954)
(-2.49393e-15 3.64572 0.615828)
(-2.54019e-15 8.07746 -0.694883)
(-3.21564e-15 9.04741 -1.91908)
(-2.93998e-15 8.08413 -3.22451)
(-2.18428e-15 5.38968 -3.75604)
(-1.78257e-15 1.0892 -4.40633)
(2.66199e-17 14.0759 23.787)
(-5.10282e-15 18.7537 31.4756)
(-4.75635e-15 16.542 26.4656)
(-5.26767e-15 14.0954 22.3955)
(-5.41974e-15 13.2567 20.3808)
(-6.52629e-15 13.8116 21.01)
(-6.11177e-15 13.2378 19.5032)
(-5.98195e-15 11.9737 17.5004)
(-6.27416e-15 11.0793 15.8245)
(-6.37634e-15 10.3567 14.7373)
(-6.908e-15 9.85192 13.7879)
(-7.57564e-15 9.15335 12.8851)
(-8.39723e-15 8.5215 11.7703)
(-9.39869e-15 7.57455 10.7035)
(-1.07397e-14 6.85955 9.40433)
(-1.27474e-14 5.57229 8.13327)
(-1.5433e-14 4.95692 6.76361)
(-1.85134e-14 3.86095 6.45463)
(-1.41739e-14 5.98249 8.89334)
(-8.68483e-15 6.4986 12.2801)
(6.24558e-17 14.1747 24.1706)
(-4.81515e-15 16.8204 28.9932)
(-3.39241e-15 14.0227 23.9671)
(-4.43314e-15 12.015 20.7222)
(-4.58034e-15 11.6939 19.97)
(-6.26886e-15 12.5103 21.2931)
(-4.89277e-15 10.9447 18.4065)
(-5.48834e-15 9.34095 15.8512)
(-5.97788e-15 8.74022 14.6628)
(-5.77368e-15 8.2082 13.9576)
(-6.83115e-15 7.81086 12.9499)
(-7.27976e-15 7.01268 11.9424)
(-8.27243e-15 6.47626 10.5591)
(-9.46709e-15 5.46117 9.43356)
(-1.11499e-14 4.98629 7.93652)
(-1.33128e-14 3.68535 6.64375)
(-1.59475e-14 3.58263 5.39032)
(-1.69585e-14 2.99783 5.76585)
(-1.11253e-14 5.48394 8.3443)
(-7.69068e-15 5.65285 10.6778)
(2.3504e-17 14.3544 25.1791)
(-1.65654e-15 17.235 29.6767)
(-1.51181e-15 14.9177 25.7666)
(-1.67193e-15 12.886 22.0076)
(-1.82153e-15 12.3055 21.0019)
(-3.7793e-15 12.9489 21.9743)
(-2.42175e-15 11.2806 19.0642)
(-2.6579e-15 9.8956 16.7213)
(-2.87199e-15 9.25869 15.4285)
(-2.68594e-15 8.66914 14.599)
(-3.06552e-15 8.22124 13.528)
(-3.3677e-15 7.418 12.4957)
(-3.89978e-15 6.86449 11.112)
(-4.53471e-15 5.86956 9.93711)
(-5.23609e-15 5.40871 8.53466)
(-6.16447e-15 4.26451 7.35712)
(-7.3716e-15 4.11743 6.14196)
(-8.20551e-15 3.43766 6.15506)
(-5.91361e-15 5.34539 8.02978)
(-3.91696e-15 5.33319 10.0286)
(1.12708e-17 14.0544 24.7951)
(4.23887e-16 17.1995 29.3838)
(3.38056e-16 15.0378 26.121)
(3.55296e-16 12.8946 21.912)
(4.0795e-16 12.247 21.0055)
(-2.55065e-15 12.9366 21.9816)
(-2.18155e-15 11.0444 18.7049)
(-2.64149e-15 9.64049 16.3834)
(-2.69186e-15 9.05267 15.1549)
(-2.62574e-15 8.45044 14.3492)
(-3.11516e-15 7.99258 13.212)
(-3.41361e-15 7.13941 12.1244)
(-3.86939e-15 6.562 10.6672)
(-4.5611e-15 5.51638 9.41621)
(-5.25381e-15 5.01218 7.92193)
(-6.40485e-15 3.87815 6.77974)
(-7.48957e-15 3.74961 5.6228)
(-7.74395e-15 3.15142 5.7292)
(-5.68502e-15 4.82488 7.27597)
(-4.4527e-15 4.65886 8.75263)
(-2.67464e-18 14.0134 25.0299)
(-9.8301e-17 17.4548 29.57)
(-7.46688e-17 15.3994 27.0066)
(-8.43148e-17 13.1942 22.3227)
(-9.89936e-17 12.4321 21.4314)
(5.61159e-16 13.1069 22.3635)
(5.3915e-16 11.1403 18.8807)
(6.11055e-16 9.78872 16.7269)
(6.60507e-16 9.28005 15.5072)
(6.24199e-16 8.62526 14.67)
(7.0924e-16 8.16513 13.4823)
(7.81757e-16 7.30115 12.3623)
(8.97014e-16 6.71455 10.9116)
(1.03813e-15 5.69788 9.62472)
(1.20494e-15 5.14721 8.11623)
(1.39733e-15 4.11805 7.02804)
(1.64554e-15 3.98322 5.98664)
(1.93646e-15 3.34139 5.88838)
(1.39561e-15 4.49507 6.72756)
(8.95731e-16 4.20877 7.91441)
(5.7907e-19 13.8672 24.9577)
(2.27737e-17 17.6939 29.6814)
(1.73576e-17 15.5903 27.5774)
(2.00149e-17 13.362 22.3777)
(2.44424e-17 12.5355 21.6032)
(-1.2323e-16 13.1875 22.551)
(-1.26666e-16 11.2016 18.817)
(-1.38319e-16 9.82437 16.8351)
(-1.49768e-16 9.41482 15.602)
(-1.427e-16 8.67867 14.7283)
(-1.6086e-16 8.2149 13.4765)
(-1.75498e-16 7.32799 12.3062)
(-1.9779e-16 6.70708 10.835)
(-2.25401e-16 5.69535 9.48474)
(-2.61845e-16 5.05042 7.89852)
(-3.03668e-16 4.01413 6.70636)
(-3.55745e-16 3.77955 5.62509)
(-4.44309e-16 3.07368 5.36854)
(-3.58992e-16 3.94309 5.85705)
(-2.72829e-16 3.61897 6.83521)
(-1.28083e-19 13.847 25.09)
(-5.35553e-18 18.0341 29.9676)
(-4.16292e-18 15.6971 28.1328)
(-4.71151e-18 13.6075 22.5228)
(-5.93346e-18 12.6941 21.9463)
(2.74083e-17 13.2913 22.886)
(2.92225e-17 11.3411 18.9084)
(3.07358e-17 9.94726 17.1666)
(3.30325e-17 9.65479 15.9207)
(3.20526e-17 8.84089 15.0001)
(3.5773e-17 8.36774 13.6991)
(3.85994e-17 7.48019 12.4704)
(4.28693e-17 6.81549 10.9929)
(4.86668e-17 5.8332 9.58404)
(5.63566e-17 5.11624 7.97635)
(6.54461e-17 4.09161 6.68185)
(7.61563e-17 3.73504 5.49596)
(1.0145e-16 2.92318 4.98138)
(9.31324e-17 3.52682 5.12087)
(7.46129e-17 3.10596 5.9127)
(2.8042e-20 13.9437 25.2881)
(1.25624e-18 18.3739 30.2266)
(1.00431e-18 15.6992 28.5029)
(1.09043e-18 13.9529 22.7147)
(1.44182e-18 12.8673 22.2293)
(-6.00042e-18 13.3673 23.1134)
(-6.66011e-18 11.5594 19.0212)
(-6.75062e-18 10.1427 17.4975)
(-7.20097e-18 9.92393 16.2315)
(-7.19845e-18 9.0719 15.231)
(-7.88661e-18 8.54479 13.9079)
(-8.48082e-18 7.6895 12.5889)
(-9.36734e-18 6.93528 11.0865)
(-1.06014e-17 5.97726 9.56536)
(-1.22002e-17 5.14646 7.91177)
(-1.41411e-17 4.12317 6.47235)
(-1.64237e-17 3.55164 5.0938)
(-2.34439e-17 2.60535 4.22039)
(-2.53637e-17 2.97417 4.13201)
(-1.94253e-17 2.45859 4.68884)
(-5.44933e-21 14.36 25.9768)
(-2.92024e-19 18.6416 30.3494)
(-2.40073e-19 15.6036 28.7566)
(-2.48657e-19 14.4496 23.15)
(-3.52408e-19 13.088 22.6021)
(1.30082e-18 13.4222 23.3205)
(1.52511e-18 11.8302 19.2807)
(1.50412e-18 10.4693 17.9608)
(1.57915e-18 10.2178 16.6945)
(1.62152e-18 9.40958 15.5574)
(1.7454e-18 8.77018 14.2465)
(1.87152e-18 7.98756 12.829)
(2.05191e-18 7.13214 11.2989)
(2.30029e-18 6.19478 9.63962)
(2.61124e-18 5.24481 7.90731)
(3.0131e-18 4.22317 6.28021)
(3.48272e-18 3.40905 4.69333)
(4.99257e-18 2.36358 3.41197)
(7.10253e-18 2.32264 2.93892)
(8.48386e-18 1.69267 3.02888)
(8.29193e-22 15.0569 27.1451)
(6.73321e-20 18.7034 30.2187)
(5.66452e-20 15.4311 28.8604)
(5.53051e-20 15.068 23.8969)
(8.32492e-20 13.3444 23.0228)
(-2.71932e-19 13.4776 23.3708)
(-3.40828e-19 12.098 19.8118)
(-3.3539e-19 10.9687 18.5037)
(-3.45771e-19 10.4822 17.2719)
(-3.6136e-19 9.83878 15.9491)
(-3.84288e-19 9.03377 14.6891)
(-4.12999e-19 8.36655 13.1817)
(-4.54676e-19 7.42119 11.6455)
(-5.09255e-19 6.52387 9.87792)
(-5.68266e-19 5.48193 8.06738)
(-6.2699e-19 4.43129 6.18057)
(-7.28223e-19 3.31185 4.24631)
(-9.58661e-19 2.14519 2.48808)
(-1.50003e-18 1.44575 1.34664)
(-1.97906e-18 0.651894 0.457792)
(-8.98155e-23 15.7393 28.3971)
(-1.55428e-20 18.4828 29.918)
(-1.33714e-20 15.2967 28.6843)
(-1.26037e-20 15.6034 25.0056)
(-2.15492e-20 13.5086 23.6093)
(6.14989e-20 13.4933 23.0475)
(7.75155e-20 12.1874 20.6772)
(7.70025e-20 11.559 19.101)
(7.85303e-20 10.5598 17.9716)
(8.349e-20 10.2079 16.4537)
(8.77222e-20 9.1931 15.2791)
(8.9203e-20 8.66265 13.7026)
(8.66585e-20 7.61668 12.186)
(8.33189e-20 6.78129 10.3792)
(8.79455e-20 5.67322 8.54597)
(1.11379e-19 4.52218 6.40549)
(8.76374e-20 2.97717 3.83391)
(1.55051e-19 1.47859 1.64271)
(3.39732e-19 -0.0295377 -0.416506)
(-3.389e-18 -1.8933 -3.65986)
(5.48412e-24 16.0191 29.1897)
(3.62725e-21 18.0657 29.6144)
(3.08925e-21 15.3649 27.8609)
(2.44968e-21 15.5271 25.8434)
(3.48942e-21 13.5129 24.3339)
(-1.10216e-20 13.5245 22.2411)
(-1.7033e-20 11.8541 21.4702)
(-1.62838e-20 11.8364 19.5089)
(-1.56387e-20 10.3605 18.4261)
(-1.59802e-20 10.1657 16.8403)
(-1.76358e-20 8.98147 15.6847)
(-2.32085e-20 8.47385 14.0603)
(-3.50656e-20 7.27918 12.4965)
(-4.99661e-20 6.40255 10.616)
(-5.62723e-20 5.11989 8.67843)
(-6.15845e-20 3.67264 6.13597)
(-2.3288e-19 1.27578 2.15285)
(-5.69752e-19 -1.37569 -1.89458)
(-1.68433e-18 -2.05555 -2.67211)
(-2.17477e-18 -1.28055 -1.37497)
(-1.72823e-25 15.8805 29.3688)
(-8.60452e-22 18.0926 29.2885)
(-7.13768e-22 15.0839 27.9282)
(-6.17747e-22 15.5186 25.3843)
(-7.55415e-22 13.4348 24.4055)
(2.7092e-21 13.4598 22.4708)
(4.17522e-21 11.8103 21.2295)
(4.84178e-21 11.564 19.5446)
(5.62381e-21 10.2469 18.3318)
(6.27894e-21 9.82691 16.8675)
(5.82211e-21 8.73211 15.5887)
(1.7845e-21 8.00437 13.9687)
(-7.94754e-21 6.79341 12.2078)
(-2.04796e-20 5.69973 10.165)
(-2.46616e-20 4.31229 7.9832)
(-4.19117e-20 2.69344 5.2441)
(-3.07012e-19 0.216849 0.963218)
(-9.97365e-19 -2.03741 -3.06275)
(-2.02216e-18 -1.11331 -1.69825)
(-2.30701e-18 2.10521 3.77887)
(-9.62745e-26 15.8894 29.5648)
(1.99352e-22 18.3844 29.4125)
(1.54581e-22 15.0839 28.0002)
(1.40307e-22 15.7281 25.3279)
(2.14876e-22 13.4778 24.2721)
(-4.34565e-22 13.4816 22.1982)
(-4.02349e-22 11.9255 21.0474)
(-2.08116e-23 11.621 19.2971)
(3.27075e-22 10.3781 17.9654)
(8.34832e-22 9.83514 16.5104)
(9.09116e-22 8.90125 15.1877)
(-8.95637e-22 8.13098 13.6739)
(-6.32138e-21 7.12747 12.0075)
(-1.66322e-20 6.08022 10.0314)
(-3.20816e-20 4.7247 7.7016)
(-3.48438e-20 3.40937 5.36828)
(-1.89597e-20 2.04856 3.02195)
(-2.19764e-19 0.337154 -0.265683)
(-9.25191e-19 -0.0452987 -1.43379)
(-1.07943e-18 0.0796678 -0.702986)
(3.16379e-25 16.1473 30.5414)
(-4.71326e-23 18.823 29.6501)
(-3.99343e-23 15.2427 28.4938)
(-3.14337e-23 16.1669 25.7747)
(-1.29638e-23 13.878 24.8478)
(2.21809e-22 13.9366 22.7519)
(4.37643e-22 12.5532 21.4646)
(7.41336e-22 12.0599 19.8702)
(1.25333e-21 11.1958 18.5056)
(1.82429e-21 10.5334 17.105)
(2.182e-21 9.82781 15.7481)
(2.08315e-21 9.12455 14.3645)
(1.0616e-21 8.35111 12.8555)
(-2.38425e-21 7.33345 10.9633)
(-1.61569e-20 5.81069 8.36365)
(-3.47496e-20 4.06074 5.49435)
(-4.44821e-20 2.34567 2.89484)
(-2.73542e-20 0.885195 0.694341)
(-2.42083e-19 -0.7996 -1.74343)
(-5.81758e-19 -1.23747 -3.42759)
(-1.8156e-26 16.2097 31.4511)
(1.0391e-23 18.7903 29.3035)
(6.89402e-24 15.0181 28.7113)
(8.04457e-24 16.1598 26.0153)
(2.70513e-23 13.7323 25.1699)
(5.21827e-23 13.8295 23.1624)
(2.21956e-22 12.4375 22.0053)
(6.21362e-22 11.9682 20.4545)
(1.17717e-21 11.0732 19.2037)
(1.57081e-21 10.4412 17.8715)
(1.2736e-21 9.7011 16.5844)
(-5.30756e-22 8.9248 15.1237)
(-6.7424e-21 7.85387 13.2388)
(-2.66351e-20 6.23746 10.5036)
(-6.96597e-20 3.97564 6.84676)
(-1.04282e-19 1.65497 3.18518)
(-6.29697e-20 -0.243945 0.464552)
(-2.02458e-20 -1.00368 -1.65637)
(-5.57283e-21 -2.37814 -2.91654)
(-4.0276e-19 -2.27026 -5.27894)
(1.50791e-25 15.5981 31.1567)
(-2.19397e-24 18.3317 28.4028)
(-3.27714e-24 14.3854 28.0968)
(-9.25364e-24 15.4235 25.5028)
(-1.24013e-23 13.1641 24.5999)
(4.17319e-23 12.982 22.7649)
(2.379e-22 11.7299 21.5543)
(6.59017e-22 11.1048 20.1202)
(1.19965e-21 10.2344 18.882)
(1.51055e-21 9.52815 17.6112)
(1.14364e-21 8.74338 16.3358)
(-1.07959e-21 7.858 14.8118)
(-1.09361e-20 6.59377 12.6586)
(-4.43859e-20 4.72448 9.42257)
(-1.0725e-19 2.49187 5.46373)
(-1.35995e-19 0.99066 2.66626)
(-8.43594e-20 0.351418 1.28461)
(-5.07044e-20 -0.894465 -1.03707)
(-1.23991e-19 -2.46329 -3.23802)
(-2.76838e-19 -1.98975 -3.35978)
(2.31228e-25 14.2572 30.4748)
(1.38299e-24 17.9367 27.4798)
(-1.6595e-24 13.3401 27.3957)
(-1.51195e-23 14.2443 25.0282)
(-3.5469e-23 12.1523 24.089)
(-1.94748e-23 11.6794 22.4879)
(1.26652e-22 10.5497 21.2735)
(4.66443e-22 9.79768 19.9537)
(9.18699e-22 8.96283 18.74)
(1.27715e-21 8.22423 17.5261)
(1.29668e-21 7.47347 16.2973)
(1.56504e-23 6.66735 14.9007)
(-6.37629e-21 5.68708 13.1156)
(-2.54679e-20 4.51091 10.7948)
(-6.33735e-20 3.31042 8.10333)
(-1.15606e-19 2.23544 5.40358)
(-1.66324e-19 1.09499 2.67488)
(-2.00099e-19 -0.355212 -0.66699)
(-2.14952e-19 -1.66584 -3.14778)
(-2.88906e-19 -1.3887 -1.95712)
(1.67229e-25 11.2441 28.4465)
(4.47741e-25 16.9493 24.8712)
(-2.08314e-24 11.9609 25.2877)
(-1.47227e-23 12.6285 23.5513)
(-3.92431e-23 10.8796 22.8)
(-5.4281e-23 10.216 21.695)
(-2.80419e-24 9.2128 20.7669)
(1.81903e-22 8.43007 19.8018)
(5.09099e-22 7.64697 18.8759)
(8.98449e-22 6.94395 17.9546)
(1.28893e-21 6.28887 17.0503)
(1.81374e-21 5.698 16.1578)
(2.55358e-21 5.16314 15.2467)
(2.40877e-21 4.65826 14.2064)
(-2.04145e-21 4.1228 12.8598)
(-1.56358e-20 3.45256 11.0426)
(-4.17849e-20 2.5306 8.57645)
(-7.96836e-20 1.33088 5.16426)
(-1.17597e-19 -0.13671 0.952133)
(-1.09315e-19 -1.07682 -2.01844)
(8.43823e-26 2.64731 17.0473)
(1.62402e-25 8.07141 13.6688)
(-7.55269e-25 5.182 14.5361)
(-4.78779e-24 5.01139 14.1311)
(-1.39423e-23 4.08966 14.0887)
(-2.56322e-23 3.534 13.909)
(-2.56307e-23 2.9672 13.7473)
(1.46836e-23 2.50859 13.5544)
(1.28027e-22 2.11463 13.3459)
(3.26901e-22 1.79734 13.1172)
(5.88995e-22 1.5507 12.8677)
(8.93885e-22 1.3736 12.5936)
(1.3208e-21 1.26232 12.2946)
(2.11008e-21 1.22593 11.9687)
(3.50541e-21 1.28632 11.6068)
(5.35428e-21 1.41668 11.2151)
(6.83908e-21 1.63942 10.7412)
(6.77891e-21 2.24966 9.86188)
(4.5215e-21 2.46469 8.49147)
(1.08292e-21 -0.233968 6.41174)
(-1.40357e-26 -2.68555 17.1074)
(-7.68768e-27 -8.07192 13.7524)
(1.03501e-25 -5.1766 14.6304)
(1.87091e-25 -4.98116 14.2434)
(-3.52605e-26 -4.04087 14.2194)
(-9.60216e-25 -3.46145 14.059)
(-3.06406e-24 -2.86851 13.9155)
(-7.06131e-24 -2.37846 13.7368)
(-1.45051e-23 -1.94795 13.5375)
(-2.778e-23 -1.59015 13.3137)
(-4.56225e-23 -1.30232 13.0684)
(-4.85545e-23 -1.08855 12.8043)
(2.1396e-23 -0.952751 12.5324)
(2.54167e-22 -0.91508 12.2706)
(6.87207e-22 -1.0074 12.0301)
(1.1619e-21 -1.20559 11.8018)
(1.32224e-21 -1.54276 11.4331)
(9.68145e-22 -2.31025 10.4871)
(4.10983e-22 -2.63634 8.94742)
(8.85308e-23 0.110589 6.74189)
(-1.61995e-26 -11.397 28.7547)
(4.77668e-26 -17.1018 25.2105)
(1.51626e-25 -12.1193 25.6202)
(1.71195e-24 -12.7776 23.9092)
(6.8211e-24 -11.046 23.1691)
(1.54495e-23 -10.3938 22.0862)
(2.0962e-23 -9.4163 21.1767)
(1.00279e-23 -8.65952 20.2322)
(-2.68045e-23 -7.90706 19.3213)
(-7.52507e-23 -7.23115 18.4058)
(-8.11066e-23 -6.59558 17.4871)
(1.94407e-23 -6.00725 16.5553)
(1.47269e-22 -5.44679 15.5872)
(-1.98753e-22 -4.8495 14.4593)
(-2.03277e-21 -4.03976 12.8403)
(-6.13836e-21 -2.74925 10.2071)
(-1.15216e-20 -0.861145 6.18955)
(-1.52177e-20 1.34603 1.26457)
(-1.50549e-20 3.0495 -2.94858)
(-1.09968e-20 2.42461 -4.32807)
(-3.26123e-26 -14.3072 30.7586)
(-8.69883e-25 -18.2655 27.5598)
(-1.06878e-24 -13.504 27.5474)
(1.90776e-24 -14.6459 25.041)
(1.43917e-23 -12.5218 24.087)
(3.89553e-23 -12.1911 22.3991)
(6.10159e-23 -11.1295 21.142)
(5.91538e-23 -10.5048 19.7626)
(1.57885e-23 -9.78912 18.5044)
(-6.02246e-23 -9.19588 17.2458)
(-1.05754e-22 -8.61148 16.0149)
(-1.09088e-23 -8.06132 14.773)
(2.19307e-22 -7.50796 13.4995)
(1.19452e-22 -6.89697 12.0751)
(-1.33164e-21 -6.05805 10.2523)
(-4.79189e-21 -4.78454 7.6358)
(-9.54989e-21 -2.74492 4.05481)
(-1.30374e-20 -0.523363 -0.30955)
(3.769e-22 2.24406 -3.477)
(-1.42066e-20 2.43268 -6.63032)
(-6.2728e-26 -15.047 30.3336)
(1.91372e-24 -18.2943 27.5843)
(1.03277e-24 -13.9393 27.2915)
(3.34583e-24 -15.4161 24.355)
(1.6008e-23 -12.9312 23.4776)
(3.44736e-23 -12.963 21.4133)