/*--------------------------------*- C++ -*----------------------------------*\
| =========                 |                                                 |
| \\      /  F ield         | OpenFOAM: The Open Source CFD Toolbox           |
|  \\    /   O peration     | Version:  4.1                                   |
|   \\  /    A nd           | Web:      www.OpenFOAM.org                      |
|    \\/     M anipulation  |                                                 |
\*---------------------------------------------------------------------------*/
FoamFile
{
    version     2.0;
    format      ascii;
    class       volScalarField;
    location    "1";
    object      k;
}
// * * * * * * * * * * * * * * * * * * * * * * * * * * * * * * * * * * * * * //

dimensions      [0 2 -2 0 0 0 0];

internalField   nonuniform List<scalar> 
1280
(
0.608353
0.55442
0.548984
0.551671
0.513461
0.501652
0.496634
0.496633
0.444041
0.43474
0.434026
0.374765
0.380511
0.38486
0.358716
0.389092
0.382411
0.541472
12.2641
67.1321
815.844
542.861
224.619
60.7588
5.44345
0.0454207
3.61838e-05
1.17524e-06
1.14219e-06
1.14292e-06
1.14276e-06
1.15956e-06
1.13645e-06
1.1345e-06
1.15683e-06
0.000646169
0.0028216
0.00217086
0.0640906
2.86275
0.269668
1.24455
0.92522
0.646932
0.311858
0.126055
0.0902087
0.034958
0.00823455
0.0262803
0.0326409
0.0188883
0.0294361
0.0613127
0.077129
0.230407
0.634132
0.942598
1.2953
0.581043
2.63513
0.648951
0.0581268
0.0139362
0.00273959
0.000627268
1.16292e-06
1.13379e-06
1.13412e-06
1.15607e-06
1.14141e-06
1.1374e-06
1.19954e-06
3.44008e-05
0.0416522
4.91684
56.6445
208.737
513.51
773.305
54.3777
12.732
1.60085
0.369115
0.378416
0.344784
0.383454
0.382445
0.388803
0.435552
0.436851
0.443974
0.491035
0.491082
0.495373
0.50603
0.542997
0.542978
0.546267
0.599287
1.07771e-06
1.07775e-06
1.07777e-06
1.07781e-06
1.07789e-06
1.07786e-06
1.078e-06
1.07803e-06
1.078e-06
1.0783e-06
1.07832e-06
1.07848e-06
1.07886e-06
1.07928e-06
1.07965e-06
1.07979e-06
1.07993e-06
1.08203e-06
1.32701e-06
1.07769e-06
1.07772e-06
1.07776e-06
1.07775e-06
1.07779e-06
1.07783e-06
1.0779e-06
1.07794e-06
1.07795e-06
1.07826e-06
1.07839e-06
1.07838e-06
1.07863e-06
1.07881e-06
1.0788e-06
1.07913e-06
1.08015e-06
1.07967e-06
1.28866e-06
1.0777e-06
1.07771e-06
1.07775e-06
1.07777e-06
1.07783e-06
1.07783e-06
1.0779e-06
1.07792e-06
1.07792e-06
1.07827e-06
1.07848e-06
1.07833e-06
1.07863e-06
1.07886e-06
1.07886e-06
1.07928e-06
1.07959e-06
1.07987e-06
1.24897e-06
1.07773e-06
1.07774e-06
1.07775e-06
1.0778e-06
1.07784e-06
1.07783e-06
1.07791e-06
1.07792e-06
1.07794e-06
1.07808e-06
1.07834e-06
1.07835e-06
1.07851e-06
1.07926e-06
1.07944e-06
1.07939e-06
1.0801e-06
1.08123e-06
1.2164e-06
1.07771e-06
1.07773e-06
1.07778e-06
1.07777e-06
1.0778e-06
1.07797e-06
1.07794e-06
1.07804e-06
1.07826e-06
1.07812e-06
1.07827e-06
1.07846e-06
1.07858e-06
1.07887e-06
1.07868e-06
1.07903e-06
1.08213e-06
1.08066e-06
1.19743e-06
1.07771e-06
1.07772e-06
1.07781e-06
1.07776e-06
1.07779e-06
1.07787e-06
1.07782e-06
1.07793e-06
1.07811e-06
1.0784e-06
1.07815e-06
1.07844e-06
1.07868e-06
1.0788e-06
1.07854e-06
1.0788e-06
1.08056e-06
1.25614e-06
0.000236837
1.07771e-06
1.07772e-06
1.0778e-06
1.07776e-06
1.0778e-06
1.07791e-06
1.07783e-06
1.07794e-06
1.07819e-06
1.07801e-06
1.07813e-06
1.07873e-06
1.07864e-06
1.07894e-06
1.07849e-06
1.07887e-06
1.74856e-06
0.00236119
0.00416662
1.07771e-06
1.07773e-06
1.0778e-06
1.07775e-06
1.07777e-06
1.07789e-06
1.07798e-06
1.07787e-06
1.07798e-06
1.07819e-06
1.07812e-06
1.07828e-06
1.07863e-06
1.07869e-06
1.07849e-06
1.11924e-06
0.000492365
1.53272
15.0398
1.07771e-06
1.07773e-06
1.07778e-06
1.07775e-06
1.07779e-06
1.07786e-06
1.07786e-06
1.07786e-06
1.07797e-06
1.07833e-06
1.07811e-06
1.07823e-06
1.07866e-06
1.07874e-06
1.07867e-06
1.07885e-06
1.0851e-06
0.000315808
1.88802
1.07775e-06
1.07772e-06
1.07771e-06
1.07773e-06
1.07779e-06
1.0779e-06
1.07781e-06
1.07792e-06
1.07819e-06
1.07797e-06
1.07815e-06
1.07836e-06
1.07834e-06
1.07836e-06
1.07832e-06
1.07833e-06
1.07853e-06
1.0856e-06
0.000260831
1.07771e-06
1.07773e-06
1.07781e-06
1.07774e-06
1.07777e-06
1.07782e-06
1.0778e-06
1.07782e-06
1.07781e-06
1.07787e-06
1.07813e-06
1.07849e-06
1.07818e-06
1.07836e-06
1.07886e-06
1.07855e-06
1.07858e-06
1.08761e-06
0.000361198
1.07772e-06
1.07772e-06
1.07775e-06
1.07778e-06
1.07776e-06
1.07778e-06
1.07786e-06
1.07795e-06
1.07789e-06
1.07803e-06
1.0783e-06
1.07816e-06
1.07843e-06
1.0789e-06
1.07855e-06
1.07882e-06
1.08948e-06
0.000510586
2.44085
1.07772e-06
1.07772e-06
1.07772e-06
1.07778e-06
1.07788e-06
1.07783e-06
1.07788e-06
1.07806e-06
1.07802e-06
1.07802e-06
1.07824e-06
1.07833e-06
1.07838e-06
1.07819e-06
1.07823e-06
1.23545e-06
0.00190891
3.00169
18.7029
1.07775e-06
1.07772e-06
1.07773e-06
1.07775e-06
1.0778e-06
1.07793e-06
1.07789e-06
1.07789e-06
1.07794e-06
1.07805e-06
1.07847e-06
1.07819e-06
1.07817e-06
1.07818e-06
1.07824e-06
1.07935e-06
3.89126e-06
0.00993685
0.00835882
1.07772e-06
1.07773e-06
1.07782e-06
1.07775e-06
1.07777e-06
1.0779e-06
1.0779e-06
1.07804e-06
1.07824e-06
1.07811e-06
1.07826e-06
1.07816e-06
1.07863e-06
1.07913e-06
1.07975e-06
1.07923e-06
1.08092e-06
1.89316e-06
0.000259983
1.07775e-06
1.07777e-06
1.07775e-06
1.07775e-06
1.07778e-06
1.07786e-06
1.07804e-06
1.0779e-06
1.07797e-06
1.07818e-06
1.0782e-06
1.07818e-06
1.07842e-06
1.07895e-06
1.07884e-06
1.08009e-06
1.08317e-06
1.0805e-06
1.20576e-06
1.0777e-06
1.07772e-06
1.07774e-06
1.07783e-06
1.07786e-06
1.07788e-06
1.07786e-06
1.07787e-06
1.07791e-06
1.07812e-06
1.07842e-06
1.07819e-06
1.07823e-06
1.07843e-06
1.07867e-06
1.07931e-06
1.08036e-06
1.08041e-06
1.21081e-06
1.07769e-06
1.07772e-06
1.07774e-06
1.07777e-06
1.0778e-06
1.0779e-06
1.07785e-06
1.0781e-06
1.0782e-06
1.07812e-06
1.0782e-06
1.07823e-06
1.07891e-06
1.0794e-06
1.07941e-06
1.07912e-06
1.07993e-06
1.07983e-06
1.24711e-06
1.07772e-06
1.07777e-06
1.07774e-06
1.07777e-06
1.07779e-06
1.07791e-06
1.07786e-06
1.07808e-06
1.07815e-06
1.07811e-06
1.07815e-06
1.07828e-06
1.07889e-06
1.07895e-06
1.07935e-06
1.0792e-06
1.08053e-06
1.07964e-06
1.2936e-06
1.07771e-06
1.07775e-06
1.07777e-06
1.07782e-06
1.07787e-06
1.07792e-06
1.07789e-06
1.0781e-06
1.07822e-06
1.07818e-06
1.07843e-06
1.07858e-06
1.07898e-06
1.07889e-06
1.07962e-06
1.0793e-06
1.08019e-06
1.08192e-06
1.33282e-06
13.834
4.45191
2.90766
0.545666
0.0488868
0.000407976
1.7536e-07
1.13184e-06
1.13322e-06
1.12639e-06
1.13008e-06
1.12245e-06
1.12795e-06
1.13059e-06
1.11971e-06
1.1354e-06
1.12668e-06
0.00451291
4.11394
23.0591
25.5812
7.77222
0.102844
2.21105e-05
1.13292e-06
1.12527e-06
1.12599e-06
1.12582e-06
1.12311e-06
1.12111e-06
1.12283e-06
1.12652e-06
1.12522e-06
1.1277e-06
1.11961e-06
1.13891e-06
1.125e-06
3.42736e-06
0.80733
14.1473
25.8519
5.47309
0.25117
0.000295154
1.13382e-06
1.12474e-06
1.11244e-06
1.1202e-06
1.11519e-06
1.11104e-06
1.11e-06
1.12177e-06
1.12479e-06
1.12071e-06
1.11517e-06
1.14251e-06
1.12195e-06
1.95238e-06
0.36189
12.861
26.1027
5.77194
0.304123
0.0011852
1.24118e-06
1.11164e-06
1.11246e-06
1.12057e-06
1.11522e-06
1.10996e-06
1.10994e-06
1.12179e-06
1.12485e-06
1.12059e-06
1.11517e-06
1.12581e-06
1.12213e-06
1.51144e-06
0.315062
11.2947
27.6586
6.03949
0.319894
0.00186564
1.36443e-06
1.11185e-06
1.10886e-06
1.13739e-06
1.11037e-06
1.1089e-06
1.10995e-06
1.10994e-06
1.11072e-06
1.11815e-06
1.1151e-06
1.1204e-06
1.13699e-06
1.38141e-06
0.191489
9.70934
26.8349
6.48793
0.405545
0.00306053
1.49127e-06
1.13493e-06
1.11318e-06
1.12782e-06
1.11284e-06
1.11241e-06
1.11255e-06
1.11258e-06
1.11322e-06
1.12117e-06
1.11528e-06
1.13074e-06
1.11366e-06
1.25053e-06
0.155259
8.95998
27.001
8.06722
0.616815
0.00420379
1.72024e-06
1.11157e-06
1.14137e-06
1.12798e-06
1.13962e-06
1.13953e-06
1.1329e-06
1.14057e-06
1.14032e-06
1.14034e-06
1.14048e-06
1.14039e-06
1.11367e-06
1.20391e-06
0.11781
7.90594
23.8026
11.9126
1.02049
0.00534687
2.13477e-06
1.11165e-06
1.10892e-06
1.10926e-06
1.12567e-06
1.12224e-06
1.11995e-06
1.11898e-06
1.11131e-06
1.11767e-06
1.11125e-06
1.11295e-06
1.10954e-06
1.16836e-06
0.0920836
7.24877
19.7004
17.6729
1.77741
0.0151097
5.20052e-06
1.13881e-06
1.11323e-06
1.11401e-06
1.12583e-06
1.12237e-06
1.11509e-06
1.11975e-06
1.11193e-06
1.11805e-06
1.11179e-06
1.11367e-06
1.11265e-06
1.13651e-06
0.0738598
6.06709
17.4314
22.7416
3.06707
0.0350392
1.74509e-05
1.11939e-06
1.13469e-06
1.13605e-06
1.13669e-06
1.14107e-06
1.11628e-06
1.12194e-06
1.12366e-06
1.13718e-06
1.13242e-06
1.13199e-06
1.12665e-06
1.13173e-06
0.0792681
5.09862
13.3099
21.3263
2.75661
0.0537021
3.51554e-05
1.12663e-06
1.12028e-06
1.11076e-06
1.11939e-06
1.13832e-06
1.12372e-06
1.11381e-06
1.11691e-06
1.12339e-06
1.11216e-06
1.12896e-06
1.11397e-06
1.13171e-06
0.0799471
3.75549
10.933
22.1328
2.89993
0.0651555
6.26667e-05
1.15612e-06
1.11647e-06
1.10973e-06
1.11977e-06
1.13686e-06
1.11067e-06
1.10994e-06
1.11369e-06
1.12327e-06
1.10953e-06
1.12889e-06
1.10847e-06
1.25866e-06
0.0562887
2.39462
8.19977
11.7505
0.49219
0.00421112
2.53585e-06
1.12014e-06
1.11494e-06
1.10922e-06
1.11136e-06
1.13787e-06
1.11261e-06
1.11073e-06
1.11545e-06
1.11563e-06
1.10944e-06
1.12911e-06
1.10858e-06
1.1505e-06
0.0296228
1.38882
6.42049
6.94856
0.00472175
1.37643e-06
1.12682e-06
1.11899e-06
1.11695e-06
1.11112e-06
1.11405e-06
1.14227e-06
1.13356e-06
1.12869e-06
1.1342e-06
1.11561e-06
1.11023e-06
1.10722e-06
1.12021e-06
1.11321e-06
0.000874147
0.81471
4.53339
0.109578
1.18202e-06
1.11933e-06
1.11191e-06
1.11351e-06
1.13314e-06
1.12786e-06
1.12949e-06
1.11678e-06
1.12715e-06
1.11245e-06
1.1072e-06
1.10889e-06
1.10821e-06
1.11236e-06
1.10612e-06
1.10481e-06
2.99635e-05
0.32219
3.7926
0.0456162
2.91699e-06
1.12508e-06
1.11693e-06
1.11924e-06
1.13097e-06
1.12405e-06
1.12719e-06
1.12361e-06
1.13038e-06
1.12581e-06
1.12788e-06
1.11363e-06
1.10944e-06
1.12706e-06
1.11338e-06
1.10643e-06
0.000521341
0.183952
3.30125
0.0356662
4.72454e-05
1.14164e-06
1.14114e-06
1.14637e-06
1.12954e-06
1.11918e-06
1.12607e-06
1.1565e-06
1.1463e-06
1.14583e-06
1.16082e-06
1.14436e-06
1.1245e-06
1.11835e-06
1.13645e-06
1.20653e-06
0.0224778
0.106184
1.96864
0.0381307
1.19329e-05
1.3107e-06
1.3128e-06
1.28734e-06
1.27216e-06
1.26165e-06
1.24886e-06
1.24663e-06
1.2258e-06
1.2132e-06
1.20479e-06
1.19569e-06
1.19297e-06
1.17002e-06
1.19149e-06
7.12397e-05
0.226513
0.188817
1.24554
0.000204924
5.60307e-05
5.20951e-05
5.07919e-05
4.87238e-05
4.71525e-05
4.56494e-05
4.41906e-05
4.26857e-05
4.11731e-05
3.96783e-05
3.79059e-05
3.6011e-05
3.39236e-05
3.16916e-05
5.3557e-05
0.00821533
0.368491
0.800122
0.976873
0.00686145
0.00682308
0.00681982
0.00681942
0.00682002
0.0068171
0.00681645
0.00681728
0.00681403
0.00681303
0.00681231
0.00680995
0.00680847
0.00680692
0.00680591
0.00680426
0.0068836
0.0249893
1.31411
0.977102
0.00686219
0.0068226
0.00682043
0.00682066
0.00681802
0.00681677
0.00681572
0.00681484
0.00681348
0.0068126
0.0068118
0.00680952
0.00680803
0.00680652
0.00680552
0.00680398
0.00688343
0.0250941
1.31375
1.24596
0.000205407
5.59371e-05
5.21676e-05
5.08352e-05
4.88661e-05
4.71883e-05
4.55972e-05
4.41422e-05
4.26707e-05
4.12333e-05
3.97127e-05
3.79425e-05
3.60569e-05
3.39446e-05
3.17659e-05
5.52774e-05
0.008721
0.382088
0.805958
1.98266
0.0385233
1.19259e-05
1.32928e-06
1.31153e-06
1.28721e-06
1.28113e-06
1.26447e-06
1.24994e-06
1.23876e-06
1.22653e-06
1.20928e-06
1.2001e-06
1.19724e-06
1.1849e-06
1.17645e-06
1.20563e-06
8.55476e-05
0.246999
0.199821
3.30455
0.0359866
4.99648e-05
1.16578e-06
1.14727e-06
1.12644e-06
1.14896e-06
1.15046e-06
1.15574e-06
1.13979e-06
1.11761e-06
1.11633e-06
1.1202e-06
1.11832e-06
1.11812e-06
1.12125e-06
1.13351e-06
1.22134e-06
0.0252925
0.10965
3.81236
0.0474649
3.07411e-06
1.11099e-06
1.11377e-06
1.12826e-06
1.12197e-06
1.12494e-06
1.12356e-06
1.14207e-06
1.14238e-06
1.12202e-06
1.12153e-06
1.1207e-06
1.12077e-06
1.12305e-06
1.112e-06
1.10547e-06
0.000681899
0.181925
4.55998
0.0620313
0.00214146
1.10936e-06
1.11223e-06
1.13699e-06
1.11944e-06
1.1222e-06
1.11823e-06
1.14571e-06
1.1181e-06
1.11876e-06
1.12742e-06
1.12786e-06
1.13186e-06
1.12886e-06
1.10725e-06
1.10438e-06
4.18085e-05
0.340752
6.45139
8.86403
94.4942
0.180031
1.52967e-05
1.12601e-06
1.14108e-06
1.14128e-06
1.13384e-06
1.12247e-06
1.11013e-06
1.11828e-06
1.12352e-06
1.12416e-06
1.12298e-06
1.11046e-06
1.12725e-06
1.11997e-06
0.00101537
0.863639
8.27104
16.0587
33.9464
0.554247
0.000644319
1.28646e-06
1.12113e-06
1.11379e-06
1.11264e-06
1.12351e-06
1.12842e-06
1.12001e-06
1.1245e-06
1.11144e-06
1.12213e-06
1.10779e-06
1.12319e-06
1.13837e-06
0.0280592
1.43192
10.9854
22.873
9.93785
0.271324
0.000361893
1.24328e-06
1.1107e-06
1.11072e-06
1.11193e-06
1.13832e-06
1.1172e-06
1.13154e-06
1.13307e-06
1.1122e-06
1.13515e-06
1.13037e-06
1.12071e-06
1.12202e-06
0.0651446
2.43463
14.168
28.3284
6.08588
0.141877
0.000123573
1.15127e-06
1.11448e-06
1.11454e-06
1.11265e-06
1.11736e-06
1.11517e-06
1.11167e-06
1.11203e-06
1.11292e-06
1.11146e-06
1.11158e-06
1.12234e-06
1.12855e-06
0.0792009
3.94488
18.68
21.5706
3.28531
0.0562485
2.40609e-05
1.12305e-06
1.11457e-06
1.11467e-06
1.11279e-06
1.11537e-06
1.11996e-06
1.11074e-06
1.11006e-06
1.11397e-06
1.11067e-06
1.11139e-06
1.12358e-06
1.13166e-06
0.0822651
5.24694
21.132
14.3762
1.60963
0.0188271
6.70905e-06
1.14105e-06
1.13259e-06
1.13606e-06
1.13362e-06
1.14115e-06
1.13106e-06
1.14002e-06
1.13925e-06
1.12646e-06
1.13772e-06
1.135e-06
1.1302e-06
1.15451e-06
0.0788915
6.06342
25.355
10.402
0.943257
0.00666294
2.49864e-06
1.11155e-06
1.11026e-06
1.11044e-06
1.11069e-06
1.1108e-06
1.112e-06
1.11366e-06
1.11244e-06
1.12613e-06
1.11227e-06
1.11486e-06
1.11148e-06
1.15126e-06
0.088353
7.09987
28.5057
7.62035
0.572033
0.00309233
1.58344e-06
1.10915e-06
1.10954e-06
1.10949e-06
1.1095e-06
1.10975e-06
1.11085e-06
1.11305e-06
1.11134e-06
1.12785e-06
1.11156e-06
1.11384e-06
1.11068e-06
1.18984e-06
0.108544
7.67947
28.3311
6.27065
0.393853
0.00280134
1.47233e-06
1.13792e-06
1.13614e-06
1.13749e-06
1.12637e-06
1.13772e-06
1.13853e-06
1.12003e-06
1.13848e-06
1.11899e-06
1.12714e-06
1.13268e-06
1.13521e-06
1.34565e-06
0.161145
8.70089
29.0738
6.0151
0.36104
0.00250412
1.41612e-06
1.11588e-06
1.13579e-06
1.1236e-06
1.1266e-06
1.11649e-06
1.11683e-06
1.12018e-06
1.11466e-06
1.11683e-06
1.1211e-06
1.11539e-06
1.11683e-06
1.28859e-06
0.177178
9.40034
27.3837
6.14525
0.385518
0.00237665
1.36395e-06
1.11445e-06
1.14217e-06
1.12063e-06
1.14083e-06
1.11319e-06
1.11153e-06
1.14329e-06
1.11138e-06
1.11809e-06
1.11835e-06
1.11305e-06
1.1116e-06
1.31123e-06
0.275611
10.7364
25.4246
5.45756
0.320438
0.000942443
1.18039e-06
1.1338e-06
1.122e-06
1.12241e-06
1.13059e-06
1.11544e-06
1.11496e-06
1.12106e-06
1.12887e-06
1.1183e-06
1.12035e-06
1.11679e-06
1.11909e-06
1.5836e-06
0.285289
11.5004
25.4098
8.63719
0.146858
4.15709e-05
1.13232e-06
1.13485e-06
1.12302e-06
1.12312e-06
1.13127e-06
1.11762e-06
1.11764e-06
1.12017e-06
1.13033e-06
1.12711e-06
1.12169e-06
1.11748e-06
1.12075e-06
2.5415e-06
0.642548
12.9054
14.8201
0.476285
1.97294
0.508717
0.0441574
0.00037418
4.15296e-07
1.13309e-06
1.14257e-06
1.13908e-06
1.14465e-06
1.15075e-06
1.15138e-06
1.15006e-06
1.14476e-06
1.13574e-06
1.14861e-06
0.00462569
4.02986
21.6097
)
;

boundaryField
{
    outletWall
    {
        type            zeroGradient;
    }
    fineWalls
    {
        type            kqRWallFunction;
        value           nonuniform List<scalar> 
60
(
67.1321
12.2641
0.541472
0.382411
0.389092
0.358716
0.38486
0.380511
0.374765
0.434026
0.43474
0.444041
0.496633
0.496634
0.501652
0.513461
0.551671
0.548984
0.55442
0.608353
0.581043
1.2953
0.942598
0.634132
0.230407
0.077129
0.0613127
0.0294361
0.0188883
0.0326409
0.0262803
0.00823455
0.034958
0.0902087
0.126055
0.311858
0.646932
0.92522
1.24455
0.269668
0.599287
0.546267
0.542978
0.542997
0.50603
0.495373
0.491082
0.491035
0.443974
0.436851
0.435552
0.388803
0.382445
0.383454
0.344784
0.378416
0.369115
1e-15
12.732
54.3777
)
;
    }
    fineFrontAndBack
    {
        type            zeroGradient;
    }
    fineplugLeft
    {
        type            cyclicAMI;
        value           nonuniform List<scalar> 
20
(
19.0199
3.30397
0.0040445
0.000565221
1e-15
1.12713e-06
1.13138e-06
1.12965e-06
1.12987e-06
1.13262e-06
1.1297e-06
1.13502e-06
1.14052e-06
4.26981e-06
0.00616895
1.05105
10.7689
41.6019
112.134
174.236
)
;
    }
    fineplugRight
    {
        type            cyclicAMI;
        value           nonuniform List<scalar> 
20
(
17.8148
3.17906
0.0153259
1e-15
0.000548826
1e-15
1.15264e-06
1.14786e-06
1.14743e-06
1.14694e-06
1.13954e-06
1.14153e-06
1.14638e-06
4.27972e-06
0.00613227
0.950736
10.0531
38.5536
103.083
166.517
)
;
    }
    inletOutletLeft
    {
        type            cyclicAMI;
        value           nonuniform List<scalar> 
20
(
19.0199
3.30397
0.0040445
0.000565221
1e-15
1.12713e-06
1.13138e-06
1.12965e-06
1.12987e-06
1.13262e-06
1.1297e-06
1.13502e-06
1.14052e-06
4.26981e-06
0.00616895
1.05105
10.7689
41.6019
112.134
174.236
)
;
    }
    inletLeft
    {
        type            fixedValue;
        value           uniform 1.13;
    }
    inletWallsLeft
    {
        type            kqRWallFunction;
        value           nonuniform List<scalar> 
40
(
0.976873
1.24554
1.96864
3.30125
3.7926
4.53339
6.42049
8.19977
10.933
13.3099
17.4314
19.7004
23.8026
27.001
26.8349
27.6586
26.1027
25.8519
25.5812
13.834
23.0591
14.1473
12.861
11.2947
9.70934
8.95998
7.90594
7.24877
6.06709
5.09862
3.75549
2.39462
1.38882
0.81471
0.32219
0.183952
0.106184
0.188817
0.800122
1.31411
)
;
    }
    inletFacesLeft
    {
        type            zeroGradient;
    }
    inletOutletRight
    {
        type            cyclicAMI;
        value           nonuniform List<scalar> 
20
(
17.8148
3.17906
0.0153259
1e-15
0.000548826
1e-15
1.15264e-06
1.14786e-06
1.14743e-06
1.14694e-06
1.13954e-06
1.14153e-06
1.14638e-06
4.27972e-06
0.00613227
0.950736
10.0531
38.5536
103.083
166.517
)
;
    }
    inletRight
    {
        type            fixedValue;
        value           uniform 1.13;
    }
    inletWallsRight
    {
        type            kqRWallFunction;
        value           nonuniform List<scalar> 
40
(
14.8201
25.4098
25.4246
27.3837
29.0738
28.3311
28.5057
25.355
21.132
18.68
14.168
10.9854
8.27104
6.45139
4.55998
3.81236
3.30455
1.98266
1.24596
0.977102
1.31375
0.805958
0.199821
0.10965
0.181925
0.340752
0.863639
1.43192
2.43463
3.94488
5.24694
6.06342
7.09987
7.67947
8.70089
9.40034
10.7364
11.5004
12.9054
21.6097
)
;
    }
    inletFacesRight
    {
        type            zeroGradient;
    }
}


// ************************************************************************* //
