/*--------------------------------*- C++ -*----------------------------------*\
| =========                 |                                                 |
| \\      /  F ield         | OpenFOAM: The Open Source CFD Toolbox           |
|  \\    /   O peration     | Version:  4.1                                   |
|   \\  /    A nd           | Web:      www.OpenFOAM.org                      |
|    \\/     M anipulation  |                                                 |
\*---------------------------------------------------------------------------*/
FoamFile
{
    version     2.0;
    format      ascii;
    class       volVectorField;
    location    "1";
    object      U;
}
// * * * * * * * * * * * * * * * * * * * * * * * * * * * * * * * * * * * * * //

dimensions      [0 1 -1 0 0 0 0];

internalField   nonuniform List<vector> 
1280
(
(-2.13297e-17 20.651 0.314346)
(6.87896e-17 25.4061 -0.363852)
(-4.14482e-17 22.1191 -0.31603)
(-2.22856e-16 22.5802 -0.67857)
(-3.72023e-16 28.0556 0.684154)
(-7.92168e-16 22.5182 -0.47305)
(5.36821e-16 25.1503 -2.41611)
(-1.20036e-15 23.5277 -2.87797)
(-3.20768e-15 29.5553 -0.451323)
(5.08493e-15 24.8015 -1.3827)
(1.65244e-14 26.2083 -3.68217)
(3.45021e-14 31.5217 -1.00159)
(-3.42994e-15 26.7016 -1.82619)
(-3.04244e-14 28.3554 -5.71566)
(-4.96029e-14 35.4292 -1.0641)
(-5.72573e-14 28.701 -0.710699)
(-6.43949e-14 31.6472 -6.0557)
(-8.2855e-14 32.7701 -5.72124)
(-3.15548e-14 30.6791 3.37543)
(-1.37654e-14 25.281 -50.0179)
(-1.06461e-14 32.0468 -9.20406)
(-9.08141e-14 30.008 41.6989)
(-9.43662e-14 22.4057 121.46)
(-7.34983e-14 15.8892 178.522)
(-5.66819e-14 11.9275 189.149)
(-7.0627e-14 17.3724 160.228)
(-1.76984e-14 7.56891 131.761)
(-1.38186e-13 19.4937 131.599)
(-1.56091e-13 23.4869 132.731)
(-1.63075e-13 23.6039 131.986)
(-1.3848e-13 24.3293 131.193)
(-1.35237e-13 24.2886 131.225)
(-1.4234e-13 25.1706 132.469)
(-1.35185e-13 24.4266 134.172)
(-1.2687e-13 26.477 134.974)
(-1.00254e-13 23.6897 136.849)
(-8.3798e-14 28.1072 134.065)
(-1.09797e-13 22.6972 135.625)
(-7.45441e-14 27.9814 143.678)
(1.86105e-13 23.8299 156.474)
(1.36381e-13 44.8288 117.842)
(3.20812e-14 -1.0889 36.8191)
(6.76615e-15 -3.14245 10.9095)
(5.55442e-15 -2.7083 -1.32441)
(2.36056e-14 -5.42857 -20.9327)
(-2.70676e-15 -2.12648 -3.39642)
(-9.53029e-16 -2.45967 -4.13265)
(2.49379e-14 -2.85361 -2.82293)
(8.10608e-14 0.293749 -18.2753)
(5.07958e-15 4.19589 0.413963)
(-3.05249e-14 -3.04824 2.4539)
(-1.4265e-14 0.451219 -15.2245)
(-1.97476e-15 3.12437 -3.10864)
(1.36448e-16 3.27601 -4.70018)
(4.01019e-16 2.9237 -3.51515)
(1.58059e-15 5.6053 -18.3152)
(1.08208e-15 2.70567 -1.08831)
(-1.16076e-14 3.07491 10.8036)
(-3.62999e-14 0.950531 36.7858)
(-1.32461e-13 -45.112 117.863)
(-1.52184e-13 -23.8401 156.444)
(6.90679e-14 -27.9812 143.683)
(1.20453e-13 -22.6923 135.495)
(9.69452e-14 -28.0982 134.068)
(1.07352e-13 -23.6887 137.038)
(1.18588e-13 -26.4696 134.926)
(1.18385e-13 -24.4269 134.151)
(1.23575e-13 -25.1666 132.511)
(1.39388e-13 -24.2961 131.166)
(1.68314e-13 -24.337 131.265)
(1.79087e-13 -23.6237 132.019)
(1.50287e-13 -23.5146 132.745)
(1.38138e-13 -19.3729 131.537)
(1.72976e-14 -7.59096 131.794)
(7.06812e-14 -17.4085 160.055)
(5.54833e-14 -11.9842 188.816)
(7.86121e-14 -15.9662 178.082)
(1.00122e-13 -22.4246 121.095)
(9.4344e-14 -30.0422 41.5445)
(2.64451e-16 -32.0586 -9.22547)
(-1.49608e-14 -25.1422 -50.0702)
(-2.37462e-14 -30.7198 3.51911)
(-5.89533e-14 -32.8142 -5.74962)
(-4.18381e-14 -31.6863 -6.06575)
(-3.23376e-14 -28.7293 -0.710732)
(-2.49222e-14 -35.4804 -1.0666)
(-2.45893e-14 -28.3929 -5.74188)
(-2.62901e-14 -26.7363 -1.84675)
(-3.52226e-14 -31.551 -1.02035)
(-2.86986e-14 -26.2349 -3.69376)
(-1.9126e-14 -24.8253 -1.39891)
(-4.58221e-16 -29.5777 -0.460457)
(8.93573e-16 -23.5471 -2.87739)
(5.25033e-16 -25.1707 -2.4176)
(1.85304e-15 -22.5377 -0.473788)
(4.43131e-15 -28.0743 0.687165)
(3.83557e-15 -22.5991 -0.674473)
(3.0426e-15 -22.138 -0.314496)
(4.82051e-16 -25.4241 -0.365942)
(-6.16345e-16 -20.6688 0.314136)
(3.02651e-21 0.558626 0.497003)
(6.14841e-21 1.0535 0.51829)
(-1.24176e-20 1.45736 0.583452)
(-1.09011e-19 1.893 0.680577)
(-2.96312e-19 2.38692 0.814316)
(-3.71711e-19 2.96525 0.987004)
(-1.29369e-19 3.6554 1.2053)
(1.95116e-20 4.48667 1.47728)
(-4.70257e-19 5.49327 1.81366)
(-1.34862e-18 6.71482 2.22699)
(-1.95691e-18 8.19845 2.72991)
(-1.80979e-18 10.0002 3.32589)
(-2.39908e-18 12.1606 3.98626)
(-3.71378e-18 14.6447 4.60811)
(-4.10441e-18 17.4095 4.63627)
(-6.95911e-18 19.0416 2.34823)
(-1.10299e-17 11.3742 -5.30744)
(-2.59522e-18 -18.2119 -10.1561)
(-1.69504e-16 -29.0988 -9.18069)
(1.21376e-20 0.550223 0.836549)
(4.73564e-20 1.0228 0.883783)
(5.60749e-20 1.39787 1.00134)
(-1.84132e-19 1.80875 1.17318)
(-8.94823e-19 2.27532 1.40512)
(-1.45222e-18 2.82321 1.70214)
(-6.24283e-19 3.47768 2.07504)
(5.42779e-19 4.26661 2.5374)
(-6.61882e-19 5.22259 3.10707)
(-3.59626e-18 6.38467 3.80537)
(-6.20969e-18 7.80252 4.65536)
(-5.20426e-18 9.54248 5.67005)
(-6.00475e-18 11.6885 6.83447)
(-1.19308e-17 14.397 8.07399)
(-1.55296e-17 18.1689 8.39263)
(-3.48047e-17 22.4854 3.67905)
(-6.15256e-17 16.2581 -8.55626)
(-2.53994e-19 -20.0976 -17.2242)
(-7.50887e-16 -32.5893 -8.48386)
(1.49267e-20 0.536051 1.05391)
(1.59439e-19 0.987561 1.12632)
(5.09432e-19 1.33693 1.28253)
(7.52035e-19 1.72506 1.50769)
(-1.8515e-20 2.16624 1.80758)
(-1.51611e-18 2.68558 2.18942)
(-8.1298e-19 3.30648 2.66658)
(2.51138e-18 4.05539 3.2564)
(3.68918e-18 4.9633 3.98158)
(1.78956e-18 6.06826 4.86987)
(-1.58841e-18 7.4197 5.95337)
(1.40884e-18 9.08336 7.26289)
(3.15843e-18 11.1622 8.85796)
(-8.47782e-18 14.0298 10.8551)
(-2.71747e-17 19.0525 11.8781)
(-1.01248e-16 26.4345 5.76671)
(-1.80401e-16 21.2417 -5.5128)
(-3.41396e-16 -16.4443 -20.3583)
(6.80513e-16 -37.0647 -10.1793)
(-8.92883e-20 0.514201 1.2672)
(2.98998e-19 0.934589 1.37763)
(2.23459e-18 1.24768 1.57996)
(6.38124e-18 1.60351 1.86676)
(9.68333e-18 2.0087 2.24296)
(6.70748e-18 2.48746 2.71926)
(1.39389e-18 3.06062 3.31213)
(8.00197e-18 3.7525 4.04355)
(2.75647e-17 4.59168 4.94226)
(4.63244e-17 5.61424 6.04416)
(5.23877e-17 6.86495 7.39244)
(5.84252e-17 8.38874 9.04718)
(7.37366e-17 10.2689 11.2201)
(5.5439e-17 13.1793 14.4299)
(-2.68393e-17 19.6831 17.2263)
(-2.68221e-16 30.3861 13.9623)
(-4.52538e-16 28.2364 13.0483)
(-2.56596e-16 -18.7426 -12.2474)
(3.26972e-15 -39.8828 -11.4363)
(-6.43548e-19 0.482367 1.46998)
(-1.42281e-19 0.865468 1.62833)
(5.97877e-18 1.13916 1.88117)
(2.27883e-17 1.45862 2.23452)
(4.21111e-17 1.82292 2.69127)
(3.76762e-17 2.25509 3.26661)
(9.09815e-18 2.77313 3.9803)
(1.67969e-17 3.39875 4.85942)
(9.39787e-17 4.1576 5.93931)
(1.83272e-16 5.08319 7.2642)
(2.25462e-16 6.21061 8.88374)
(2.3571e-16 7.53093 10.8716)
(2.89849e-16 9.01358 13.625)
(2.54835e-16 11.5331 18.4366)
(-1.00723e-17 18.4889 25.3836)
(-6.96747e-16 29.9919 34.4829)
(-1.2879e-15 30.0589 53.7579)
(3.69172e-15 -13.0801 29.7837)
(9.39316e-15 -39.4565 -14.0586)
(-2.09438e-18 0.438311 1.66887)
(-3.63639e-18 0.775246 1.88704)
(5.24253e-18 1.00426 2.19586)
(3.91074e-17 1.28109 2.62256)
(8.72509e-17 1.59708 3.16645)
(8.90446e-17 1.97367 3.84841)
(1.96311e-17 2.4256 4.69185)
(4.63168e-18 2.97135 5.72945)
(1.58652e-16 3.633 7.00363)
(3.55318e-16 4.44205 8.56664)
(4.62816e-16 5.42595 10.4658)
(4.86236e-16 6.49107 12.7445)
(6.15067e-16 7.30132 15.9638)
(5.74379e-16 8.41433 22.8419)
(2.46939e-18 12.9045 37.5759)
(-1.58694e-15 20.7381 68.3551)
(-5.37934e-15 26.7666 114.813)
(-9.00509e-15 8.7663 107.311)
(-1.13522e-14 -30.1596 11.6457)
(-3.38395e-18 0.379299 1.87244)
(-1.77808e-17 0.661264 2.16624)
(-3.88463e-17 0.842322 2.53781)
(-4.05461e-17 1.07105 3.04721)
(9.04871e-18 1.3321 3.6881)
(6.42616e-17 1.64471 4.4886)
(2.28397e-18 2.02022 5.4762)
(-1.52342e-16 2.47333 6.68972)
(-1.40737e-16 3.02227 8.17812)
(-1.92183e-17 3.69966 10.0004)
(1.02669e-16 4.53772 12.2045)
(1.60049e-16 5.3117 14.806)
(4.39867e-16 4.94171 18.4644)
(7.1633e-16 2.50814 27.2493)
(-7.6007e-17 -0.30713 48.1408)
(-3.31488e-15 0.548886 93.1756)
(-1.28542e-14 14.6299 149.851)
(-3.02361e-14 25.8627 158.575)
(-3.96269e-14 11.6721 126.066)
(1.18276e-18 0.301889 2.09219)
(-6.23259e-17 0.518494 2.48151)
(-2.35907e-16 0.649027 2.92381)
(-4.81942e-16 0.823075 3.52833)
(-5.76058e-16 1.02136 4.28006)
(-3.57659e-16 1.25999 5.21615)
(-2.1142e-16 1.54675 6.3688)
(-8.01631e-16 1.89242 7.78342)
(-1.80793e-15 2.31155 9.51383)
(-2.55086e-15 2.83841 11.6249)
(-2.83615e-15 3.51364 14.1966)
(-2.81342e-15 4.02105 17.3177)
(-1.99009e-15 2.60658 21.0807)
(-6.9642e-17 -3.27936 25.0858)
(3.38392e-16 -11.6644 30.4887)
(8.57346e-16 -16.3633 46.1532)
(3.02727e-16 1.49357 49.7345)
(-2.54707e-14 15.8128 40.9962)
(-1.14181e-13 -22.4391 97.1603)
(1.81299e-17 0.200246 2.33721)
(-1.66549e-16 0.33924 2.84013)
(-7.00426e-16 0.417744 3.36042)
(-1.52237e-15 0.528844 4.07258)
(-2.06651e-15 0.654976 4.94969)
(-1.8157e-15 0.807427 6.03949)
(-1.36806e-15 0.990705 7.37943)
(-2.36699e-15 1.21187 9.02224)
(-5.96678e-15 1.48127 11.0282)
(-9.17028e-15 1.82071 13.4736)
(-1.14422e-14 2.2462 16.4783)
(-1.21781e-14 2.54773 20.2144)
(-9.3386e-15 1.67545 24.4486)
(-2.88302e-15 -2.23595 25.9727)
(1.14898e-15 -9.27278 20.3241)
(3.76787e-16 -12.0187 13.3903)
(1.73259e-15 11.6 4.57059)
(-2.21905e-15 12.4427 7.23324)
(-3.24653e-14 -10.5752 37.0784)
(2.81186e-17 0.0753692 2.57362)
(-2.60505e-16 0.1251 3.18553)
(-1.01779e-15 0.152247 3.77819)
(-2.17186e-15 0.192395 4.59167)
(-3.26731e-15 0.237841 5.5872)
(-4.12043e-15 0.292905 6.82215)
(-5.08047e-15 0.359097 8.3386)
(-4.05514e-15 0.439413 10.1961)
(-1.04076e-14 0.539521 12.4654)
(-1.68968e-14 0.669449 15.2465)
(-2.37508e-14 0.820772 18.6867)
(-2.82644e-14 0.841138 22.8909)
(-2.34105e-14 0.192287 27.2543)
(-2.46775e-14 -1.89467 27.4958)
(-1.96236e-14 -5.18358 15.4081)
(3.40026e-15 -5.86011 -5.73363)
(4.40728e-15 -0.91034 -16.8928)
(5.70716e-16 2.02116 -2.64752)
(-3.26524e-16 -7.48439 21.9393)
(-3.2058e-17 -0.075402 2.57358)
(2.88322e-16 -0.125165 3.18547)
(1.15354e-15 -0.15234 3.77811)
(2.54009e-15 -0.192533 4.59155)
(3.89461e-15 -0.238044 5.58701)
(4.63882e-15 -0.293202 6.82189)
(4.06135e-15 -0.359529 8.33821)
(-1.48798e-15 -0.440034 10.1956)
(-1.36979e-15 -0.540355 12.4646)
(-2.18676e-15 -0.670366 15.2454)
(-2.5917e-15 -0.821302 18.6857)
(-2.6227e-15 -0.84096 22.8907)
(-1.81432e-15 -0.192948 27.2568)
(-4.8164e-16 1.89449 27.5075)
(9.87474e-17 5.23422 15.4439)
(-2.56732e-16 6.14494 -5.62745)
(-2.89611e-16 0.972031 -16.6994)
(-2.58471e-15 -2.2682 -2.72698)
(9.92398e-15 6.26935 21.4639)
(-1.95466e-17 -0.200268 2.33717)
(1.79206e-16 -0.339287 2.84007)
(7.59896e-16 -0.417813 3.36033)
(1.67859e-15 -0.528948 4.07243)
(2.32823e-15 -0.655128 4.94947)
(1.98069e-15 -0.807651 6.03916)
(7.76943e-16 -0.991033 7.37894)
(-1.70842e-16 -1.21234 9.02152)
(4.9126e-16 -1.48192 11.0271)
(7.4657e-16 -1.82149 13.4721)
(1.01305e-15 -2.24697 16.4766)
(1.14142e-15 -2.54894 20.2132)
(1.00579e-15 -1.68021 24.4522)
(5.5519e-16 2.22467 25.9924)
(-4.56588e-17 9.27506 20.3696)
(-1.09343e-15 12.1159 13.4745)
(-2.95109e-15 -11.3872 5.19386)
(2.06214e-15 -12.5878 7.37898)
(4.02923e-14 10.5466 37.0474)
(-1.10542e-18 -0.301908 2.09215)
(6.67788e-17 -0.518533 2.48143)
(2.52447e-16 -0.649085 2.9237)
(5.18873e-16 -0.82316 3.52817)
(6.2599e-16 -1.02149 4.27982)
(3.61133e-16 -1.26017 5.2158)
(-3.62314e-18 -1.54702 6.36829)
(9.45869e-17 -1.8928 7.78268)
(4.09172e-16 -2.31208 9.51277)
(6.41352e-16 -2.83904 11.6235)
(7.78249e-16 -3.51439 14.1949)
(8.21315e-16 -4.02344 17.3163)
(7.3434e-16 -2.61486 21.0808)
(3.70675e-16 3.26817 25.0913)
(-1.4237e-16 11.6626 30.5048)
(-1.63197e-15 16.3759 46.2206)
(-2.85532e-15 -1.43243 50.2711)
(2.19613e-14 -15.7614 41.5822)
(1.10666e-13 22.5 97.1675)
(3.71073e-18 -0.379308 1.87239)
(1.90631e-17 -0.661287 2.16616)
(4.09684e-17 -0.842359 2.5377)
(4.07681e-17 -1.07111 3.04705)
(-1.8351e-17 -1.33218 3.68786)
(-9.53321e-17 -1.64483 4.48826)
(-6.61232e-17 -2.0204 5.47571)
(7.41354e-17 -2.4736 6.68902)
(1.45995e-16 -3.02266 8.17712)
(2.35447e-16 -3.70019 9.99912)
(2.74697e-16 -4.53853 12.2031)
(2.80229e-16 -5.31396 14.8047)
(1.91152e-16 -4.94869 18.4616)
(-1.39722e-16 -2.524 27.2437)
(3.83918e-18 0.270577 48.1543)
(2.70006e-15 -0.609043 93.2457)
(1.13637e-14 -14.6288 150.162)
(2.77304e-14 -25.7602 158.991)
(3.62912e-14 -11.5625 126.058)
(2.26825e-18 -0.438315 1.66883)
(3.89462e-18 -0.775259 1.88697)
(-5.87816e-18 -1.00428 2.19576)
(-4.32548e-17 -1.28113 2.62241)
(-9.8477e-17 -1.59714 3.16623)
(-1.08205e-16 -1.97375 3.8481)
(-3.54288e-17 -2.42572 4.6914)
(3.04162e-17 -2.97153 5.72882)
(2.59732e-17 -3.63328 7.00273)
(4.10792e-17 -4.4425 8.56544)
(4.50608e-17 -5.4268 10.4644)
(4.19709e-17 -6.49315 12.7429)
(-1.62317e-17 -7.30694 15.9609)
(-1.36587e-16 -8.42804 22.8354)
(3.08053e-16 -12.9413 37.5596)
(2.82624e-15 -20.8158 68.3004)
(7.35807e-15 -26.7872 114.743)
(5.67924e-15 -8.60636 107.068)
(-1.75865e-14 30.3524 11.4152)
(6.93442e-19 -0.482366 1.46993)
(1.42384e-19 -0.865469 1.62826)
(-6.49636e-18 -1.13917 1.88108)
(-2.48419e-17 -1.45864 2.23438)
(-4.66803e-17 -1.82294 2.69108)
(-4.40224e-17 -2.25512 3.26633)
(-1.08962e-17 -2.77318 3.9799)
(7.79092e-18 -3.39884 4.85886)
(-2.28485e-18 -4.15776 5.93851)
(-6.36928e-18 -5.08349 7.26307)
(-9.58601e-18 -6.2113 8.8822)
(-1.13986e-17 -7.53267 10.8693)
(-3.45971e-17 -9.01789 13.6207)
(-6.76947e-17 -11.5433 18.4277)
(9.55534e-17 -18.5135 25.3591)
(1.00256e-15 -30.034 34.3944)
(3.43021e-15 -30.0198 53.5871)
(7.95365e-15 13.2781 29.3928)
(8.63917e-15 39.5124 -14.0568)
(9.54071e-20 -0.514196 1.26716)
(-3.27751e-19 -0.934582 1.37757)
(-2.4241e-18 -1.24767 1.57988)
(-6.9386e-18 -1.6035 1.86664)
(-1.06831e-17 -2.00869 2.2428)
(-7.7016e-18 -2.48746 2.71903)
(-4.61956e-19 -3.06063 3.3118)
(5.30909e-19 -3.75252 4.04307)
(-3.22018e-18 -4.59173 4.94157)
(-6.99646e-18 -5.61438 6.04314)
(-9.21456e-18 -6.86537 7.39089)
(-9.61648e-18 -8.38987 9.04451)
(-1.51326e-17 -10.2716 11.2149)
(-2.15915e-17 -13.185 14.4189)
(-1.20231e-18 -19.6941 17.2017)
(1.57707e-16 -30.3941 13.8874)
(8.94258e-16 -28.154 12.909)
(8.46829e-16 18.7768 -12.3663)
(-1.39301e-15 39.9263 -11.3846)
(-1.64439e-20 -0.536042 1.05387)
(-1.73847e-19 -0.987546 1.12626)
(-5.53354e-19 -1.33691 1.28246)
(-8.18934e-19 -1.72504 1.50759)
(6.86781e-21 -2.16622 1.80744)
(1.70905e-18 -2.68554 2.18923)
(1.5394e-18 -3.30643 2.6663)
(-5.88322e-19 -4.05534 3.25599)
(-1.13597e-18 -4.96324 3.98098)
(-2.41663e-18 -6.06822 4.86897)
(-3.08232e-18 -7.41975 5.95193)
(-3.09006e-18 -9.08369 7.2603)
(-3.36613e-18 -11.163 8.85278)
(-3.58939e-18 -14.0314 10.8441)
(-1.455e-17 -19.0541 11.8563)
(-5.09365e-17 -26.4279 5.71578)
(-6.10076e-18 -21.1558 -5.59082)
(2.10189e-16 16.5513 -20.3938)
(-1.17511e-15 37.0675 -10.1592)
(-1.31748e-20 -0.55021 0.836518)
(-5.14355e-20 -1.02278 0.883739)
(-6.07128e-20 -1.39784 1.00128)
(2.00819e-19 -1.80872 1.17309)
(9.79649e-19 -2.27528 1.40501)
(1.637e-18 -2.82315 1.70198)
(9.00889e-19 -3.4776 2.07481)
(-3.2495e-19 -4.2665 2.53706)
(-2.18172e-19 -5.22245 3.10658)
(-4.08736e-19 -6.38448 3.80461)
(-4.44895e-19 -7.80228 4.65412)
(-4.14154e-19 -9.54218 5.66781)
(-1.35949e-20 -11.6879 6.83014)
(4.48845e-19 -14.3957 8.06505)
(-8.47887e-18 -18.1647 8.37541)
(-4.77202e-17 -22.4717 3.64557)
(-1.10763e-16 -16.1853 -8.60449)
(-2.0521e-17 20.1568 -17.2195)
(3.61109e-16 32.6128 -8.47144)
(-3.26271e-21 -0.55861 0.496981)
(-6.56153e-21 -1.05347 0.518259)
(1.38326e-20 -1.45733 0.583414)
(1.19466e-19 -1.89296 0.680522)
(3.26341e-19 -2.38686 0.814244)
(4.21476e-19 -2.96517 0.986898)
(1.76728e-19 -3.65528 1.20516)
(-6.72173e-20 -4.4865 1.47707)
(-2.08607e-23 -5.49303 1.81334)
(3.92803e-20 -6.71446 2.22649)
(9.79477e-20 -8.19789 2.72912)
(1.08917e-19 -9.99928 3.32447)
(2.72132e-19 -12.1587 3.98366)
(4.5191e-19 -14.6408 4.60303)
(-2.3763e-18 -17.4008 4.62655)
(-1.48621e-17 -19.022 2.3306)
(-4.06348e-17 -11.3069 -5.33887)
(1.8842e-17 18.2559 -10.1691)
(-1.06318e-16 29.1109 -9.17691)
(-4.95904e-14 71.546 128.869)
(-2.69098e-13 86.5158 138.209)
(-2.29717e-13 81.5001 133.631)
(-2.13501e-13 82.7928 131.945)
(-2.17752e-13 81.0075 133.583)
(-3.89876e-13 81.3412 134.774)
(-3.28134e-13 81.3957 136.117)
(-2.19858e-13 83.8385 139.136)
(-2.35462e-13 83.4843 139.167)
(-2.647e-13 83.6631 139.526)
(-2.2786e-13 83.9198 140.076)
(-2.43705e-13 83.8804 140.726)
(-2.70416e-13 84.7414 140.578)
(-2.56284e-13 82.7287 141.774)
(-2.43183e-13 86.5081 139.701)
(-1.92697e-13 79.4088 143.844)
(-1.78881e-13 90.6473 138.146)
(-2.24756e-13 75.3808 148.875)
(-7.5915e-14 105.276 153.849)
(5.01341e-13 94.6612 194.788)
(-1.3289e-14 66.9671 118.937)
(-7.61963e-14 82.7214 141.04)
(-5.27382e-14 81.3634 140.902)
(-6.07782e-14 82.3477 139.215)
(-5.35381e-14 82.0117 138.802)
(-2.63826e-13 82.4459 138.59)
(-2.64739e-13 82.9402 138.605)
(-1.59508e-13 82.0759 137.107)
(-1.70227e-13 82.0469 136.749)
(-2.04548e-13 82.0767 136.734)
(-1.68039e-13 82.2138 136.658)
(-1.80016e-13 81.8947 136.863)
(-2.00538e-13 82.825 136.37)
(-1.8313e-13 80.7302 137.644)
(-1.75015e-13 84.857 135.251)
(-1.40449e-13 77.7087 139.399)
(-1.23479e-13 88.7531 132.979)
(-1.6873e-13 73.6943 142.681)
(-2.1711e-13 89.5479 124.7)
(2.62093e-13 91.1239 186.542)
(7.02881e-15 69.624 125.782)
(3.33624e-14 88.1776 145.025)
(2.91799e-14 80.7921 142.279)
(2.78779e-14 83.0759 138.749)
(3.43849e-14 80.6718 139.972)
(-4.62328e-14 81.5938 138.868)
(-5.50566e-14 80.8003 138.99)
(-3.3431e-14 81.0831 139.173)
(-4.41602e-14 81.1082 139.122)
(-5.46516e-14 81.0063 139.051)
(-4.24452e-14 81.1263 138.911)
(-5.0697e-14 80.8275 139.043)
(-5.60505e-14 81.719 138.528)
(-4.63305e-14 79.8532 139.789)
(-4.53751e-14 83.8658 137.55)
(-3.84977e-14 77.1853 141.764)
(-3.88469e-14 87.9438 135.652)
(-4.83002e-14 74.108 145.88)
(-7.62082e-14 87.4795 125.892)
(5.90292e-14 86.7281 173.658)
(-4.26e-16 72.4423 134.26)
(7.47483e-15 90.5609 145.178)
(5.81897e-15 78.7761 141.115)
(6.08944e-15 83.1604 136.383)
(3.8552e-15 79.5494 138.412)
(2.76222e-14 81.4894 137.23)
(2.76439e-14 80.6369 137.993)
(1.03439e-14 80.9517 137.741)
(1.50196e-14 80.8682 137.891)
(2.05587e-14 80.8856 137.969)
(1.24409e-14 80.9671 138.036)
(1.60634e-14 80.7867 138.249)
(1.86693e-14 81.467 137.938)
(1.67824e-14 79.8909 138.98)
(1.43222e-14 83.1702 137.009)
(8.7808e-15 77.284 140.579)
(6.32028e-15 86.5921 135.146)
(1.5151e-14 74.0648 143.837)
(2.33736e-14 87.3151 128.934)
(-4.50655e-14 84.8443 167.602)
(-2.99005e-16 75.8723 143.507)
(-7.0621e-15 93.5682 147.582)
(-6.28424e-15 78.4118 142.382)
(-6.06272e-15 84.2506 136.631)
(-6.87566e-15 79.7436 139.256)
(1.03726e-14 82.2372 137.672)
(1.41116e-14 81.0007 138.435)
(1.01433e-14 81.4727 138.131)
(1.24469e-14 81.3174 138.218)
(1.40452e-14 81.3163 138.2)
(1.14018e-14 81.3264 138.195)
(1.34537e-14 81.1732 138.286)
(1.46061e-14 81.6117 138.022)
(1.25621e-14 80.4311 138.784)
(1.23239e-14 82.875 137.287)
(1.00872e-14 78.4176 140.022)
(1.04171e-14 85.519 135.923)
(1.3004e-14 76.1356 142.736)
(1.31022e-14 85.1197 129.652)
(-2.39247e-14 81.9715 157.109)
(1.00499e-16 78.841 152.362)
(2.03144e-15 96.7609 149.701)
(1.87491e-15 77.2683 142.77)
(1.78724e-15 84.6834 135.54)
(2.31314e-15 78.9758 139.011)
(-8.79446e-15 82.2048 137.059)
(-9.97567e-15 80.5747 138.107)
(-6.21329e-15 81.2198 137.713)
(-8.0154e-15 80.9803 137.881)
(-9.10257e-15 81.0136 137.874)
(-6.90559e-15 80.9887 137.917)
(-8.40125e-15 80.917 137.986)
(-9.13123e-15 81.1843 137.84)
(-8.04451e-15 80.3598 138.403)
(-7.78217e-15 82.1585 137.276)
(-5.9217e-15 78.7361 139.402)
(-5.74974e-15 84.3231 136.22)
(-8.19566e-15 76.8848 141.671)
(-8.46491e-15 83.6769 130.682)
(1.79365e-14 79.359 149.211)
(-1.80852e-17 82.0927 161.879)
(-3.51267e-16 100.511 152.634)
(-3.32236e-16 76.4965 143.551)
(-3.15525e-16 85.3029 134.712)
(-4.51789e-16 78.5464 138.894)
(2.56115e-15 82.3849 136.624)
(2.76373e-15 80.4283 137.825)
(1.6741e-15 81.1891 137.353)
(2.19556e-15 80.8791 137.541)
(2.47721e-15 80.9188 137.514)
(1.84005e-15 80.8449 137.571)
(2.27323e-15 80.8335 137.591)
(2.466e-15 80.9107 137.547)
(2.2065e-15 80.438 137.898)
(2.13842e-15 81.56 137.162)
(1.57674e-15 79.2405 138.65)
(1.49035e-15 83.1822 136.461)
(2.24407e-15 77.9377 140.473)
(2.27531e-15 82.1043 131.504)
(-5.2552e-15 76.7603 140.769)
(2.26093e-18 85.5767 171.921)
(4.24111e-17 104.863 156.418)
(4.09329e-17 75.8873 144.419)
(3.88822e-17 85.7969 133.634)
(6.10749e-17 78.0793 138.511)
(-4.52776e-16 82.4476 136.02)
(-4.75926e-16 80.2259 137.367)
(-2.85217e-16 81.0689 136.859)
(-3.78905e-16 80.7106 137.085)
(-4.24916e-16 80.7585 137.07)
(-3.10787e-16 80.6496 137.169)
(-3.89989e-16 80.7119 137.171)
(-4.22547e-16 80.619 137.256)
(-3.83083e-16 80.5081 137.43)
(-3.72768e-16 80.9922 137.099)
(-2.68241e-16 79.7472 137.997)
(-2.48849e-16 82.1389 136.78)
(-3.8972e-16 78.9563 139.435)
(-3.86256e-16 80.7048 132.397)
(9.56299e-16 74.1401 132.628)
(-2.13226e-19 89.4599 182.814)
(-3.81087e-18 110.13 161.617)
(-3.74229e-18 75.693 145.566)
(-3.56303e-18 86.125 132.259)
(-6.15292e-18 77.6646 137.709)
(5.57931e-17 82.3918 135.167)
(5.79441e-17 80.0357 136.594)
(3.45548e-17 80.8865 136.11)
(4.63984e-17 80.5152 136.365)
(5.18753e-17 80.5582 136.388)
(3.74193e-17 80.423 136.544)
(4.77252e-17 80.5592 136.555)
(5.17342e-17 80.3101 136.792)
(4.74885e-17 80.5545 136.82)
(4.64237e-17 80.4232 136.904)
(3.27014e-17 80.2028 137.226)
(2.98598e-17 81.0882 136.957)
(4.83694e-17 79.8338 138.263)
(4.6987e-17 79.2825 133.112)
(-1.23205e-16 71.3241 124.386)
(1.58013e-20 93.9643 194.917)
(2.63343e-19 116.831 169.018)
(2.62402e-19 76.1217 147.294)
(2.50668e-19 86.2668 130.542)
(4.79583e-19 77.3057 136.421)
(-5.09295e-18 82.2088 134.042)
(-5.28586e-18 79.8661 135.493)
(-3.14854e-18 80.6403 135.091)
(-4.26535e-18 80.2864 135.375)
(-4.77254e-18 80.3045 135.464)
(-3.39942e-18 80.144 135.695)
(-4.41111e-18 80.3364 135.743)
(-4.79413e-18 79.9466 136.152)
(-4.45691e-18 80.4861 136.069)
(-4.38086e-18 79.7916 136.534)
(-3.02689e-18 80.3954 136.293)
(-2.72917e-18 79.9383 136.845)
(-4.5635e-18 80.202 136.868)
(-4.3504e-18 77.8467 133.58)
(1.19424e-17 68.2951 116.649)
(-9.17337e-22 99.2598 209.053)
(-1.43925e-20 125.713 179.264)
(-1.44402e-20 76.7994 149.711)
(-1.37728e-20 86.1575 128.306)
(-2.94736e-20 76.7956 134.619)
(3.55087e-19 81.8301 132.498)
(3.72045e-19 79.5986 133.945)
(2.2234e-19 80.2455 133.636)
(3.03232e-19 79.9226 133.93)
(3.41138e-19 79.8907 134.082)
(2.40607e-19 79.691 134.372)
(3.18092e-19 79.8791 134.459)
(3.47904e-19 79.3625 134.996)
(3.28261e-19 80.015 134.836)
(3.25364e-19 78.8937 135.526)
(2.21024e-19 79.8462 134.82)
(1.98182e-19 78.5131 135.858)
(3.42279e-19 79.4393 134.984)
(3.19805e-19 76.6085 133.66)
(-9.0247e-19 65.5837 111.354)
(4.31485e-23 105.46 226.685)
(6.34555e-22 136.33 190.455)
(6.35861e-22 75.6716 152.353)
(6.02121e-22 86.1545 125.764)
(1.44091e-21 75.6685 133.221)
(-1.93322e-20 81.3904 130.819)
(-2.05318e-20 79.084 132.321)
(-1.23581e-20 79.7156 131.934)
(-1.69243e-20 79.4039 132.156)
(-1.92256e-20 79.3138 132.269)
(-1.3485e-20 79.0559 132.503)
(-1.81831e-20 79.1444 132.539)
(-2.01271e-20 78.5208 133.021)
(-1.93597e-20 78.997 132.77)
(-1.9456e-20 77.7176 133.366)
(-1.3048e-20 78.3569 132.464)
(-1.17535e-20 76.96 133.397)
(-2.10223e-20 77.4207 132.466)
(-1.90455e-20 76.0089 133.016)
(5.38287e-20 64.5076 111.19)
(-1.65749e-24 111.857 248.921)
(-2.38315e-23 144.055 193.617)
(-2.34548e-23 68.9607 154.033)
(-2.17358e-23 88.1241 124.658)
(-5.6668e-23 73.7066 134.736)
(8.45734e-22 81.6582 130.232)
(9.00685e-22 78.5052 131.88)
(5.44757e-22 79.4439 130.908)
(7.45518e-22 79.0465 130.795)
(8.55358e-22 78.8931 130.567)
(5.98608e-22 78.5465 130.476)
(8.20713e-22 78.4551 130.231)
(9.23936e-22 77.7362 130.363)
(9.09853e-22 77.8427 129.92)
(9.31482e-22 76.652 130.108)
(6.21474e-22 76.6583 129.312)
(5.64545e-22 75.7302 129.646)
(1.04636e-21 75.261 129.26)
(9.2337e-22 75.4533 130.416)
(-2.54636e-21 65.9095 115.119)
(5.53073e-26 116.742 269.437)
(7.95331e-25 138.234 176.518)
(7.43632e-25 60.6991 157.397)
(6.71363e-25 94.8286 129.881)
(1.8257e-24 73.0608 141.863)
(-3.05525e-23 84.3343 133.299)
(-3.18085e-23 79.3756 134.754)
(-1.91049e-23 80.7 132.421)
(-2.58601e-23 79.9459 131.377)
(-2.97785e-23 79.5512 130.231)
(-2.07889e-23 78.9555 129.334)
(-2.86857e-23 78.5706 128.419)
(-3.2863e-23 77.6435 127.888)
(-3.31607e-23 77.3992 127)
(-3.45956e-23 76.1426 126.671)
(-2.32402e-23 75.8651 125.825)
(-2.11358e-23 74.8167 125.645)
(-4.0421e-23 74.2368 125.228)
(-3.65155e-23 73.823 125.916)
(9.82599e-23 66.8812 114.074)
(-1.74432e-27 117.298 268.807)
(-2.06577e-26 120.207 154.881)
(-1.80214e-26 67.7394 167.322)
(-1.6266e-26 102.787 144.288)
(-4.7601e-26 79.4246 152.706)
(8.7779e-25 90.3841 141.923)
(8.86347e-25 84.4997 141.657)
(5.24501e-25 85.2281 137.653)
(6.89942e-25 83.7742 134.922)
(7.92215e-25 82.6504 132.215)
(5.52471e-25 81.4043 129.944)
(7.56098e-25 80.4333 127.885)
(8.80674e-25 78.9551 126.39)
(9.10485e-25 78.3112 124.646)
(9.68161e-25 76.3829 123.734)
(6.65118e-25 76.1358 122.105)
(6.02972e-25 73.7526 121.744)
(1.18712e-24 73.8845 120.136)
(1.11755e-24 72.7555 123.83)
(-3.03504e-24 61.0917 98.7728)
(4.58569e-29 112.827 242.836)
(4.01276e-28 117.638 167.164)
(3.60862e-28 88.597 181.57)
(3.02397e-28 110.008 162.577)
(9.39953e-28 93.4307 163.202)
(-1.82206e-26 98.7628 153.25)
(-1.82404e-26 94.0198 149.658)
(-1.07131e-26 92.9567 144.235)
(-1.33631e-26 90.6948 139.494)
(-1.52412e-26 88.4903 134.955)
(-1.06909e-26 86.2674 130.978)
(-1.42561e-26 84.3887 127.434)
(-1.68838e-26 82.0326 124.655)
(-1.79138e-26 80.6019 121.63)
(-1.95188e-26 77.5064 119.722)
(-1.39851e-26 76.6242 116.529)
(-1.27649e-26 72.3495 115.569)
(-2.59155e-26 72.2833 112.144)
(-2.65884e-26 71.225 120.03)
(7.4185e-26 48.6226 74.2442)
(-8.51442e-31 111.462 227.746)
(-6.06535e-30 133.729 199.024)
(-5.34928e-30 106.911 198.437)
(-4.22884e-30 118.636 179.077)
(-1.36919e-29 106.058 174.142)
(2.77638e-28 106.991 163.254)
(2.76403e-28 102.453 156.336)
(1.61261e-28 99.8688 148.919)
(1.86752e-28 96.8177 142.124)
(2.08162e-28 93.8045 135.659)
(1.45958e-28 90.8211 129.77)
(1.85127e-28 88.1088 124.379)
(2.19569e-28 85.0069 119.695)
(2.36174e-28 82.3904 114.738)
(2.61885e-28 78.288 110.643)
(1.96579e-28 75.5009 105.176)
(1.81572e-28 69.895 101.889)
(3.73775e-28 68.1238 96.8525)
(4.56458e-28 64.7651 102.594)
(-1.38784e-27 31.7415 39.4683)
(1.19415e-32 114.285 244.232)
(7.92998e-32 154.218 224.646)
(7.03842e-32 113.684 222.643)
(5.45965e-32 126.804 199.434)
(1.77823e-31 110.34 193.073)
(-4.30475e-30 109.771 179.703)
(-4.09662e-30 103.204 170.727)
(-2.32075e-30 99.4646 161.189)
(-2.57792e-30 95.3442 152.684)
(-2.76088e-30 91.6419 144.47)
(-1.87322e-30 88.0351 136.626)
(-2.26726e-30 84.5304 128.977)
(-2.61293e-30 80.7779 121.432)
(-2.7586e-30 76.7844 113.42)
(-3.01218e-30 72.0685 105.307)
(-2.26556e-30 67.0692 96.4163)
(-2.06192e-30 61.7128 88.608)
(-4.12732e-30 58.3385 81.8828)
(-5.87515e-30 46.5523 71.4903)
(-8.72714e-30 5.228 -16.777)
(-1.35875e-34 104.42 255.022)
(-7.82605e-34 152.784 220.396)
(-6.56695e-34 107.318 224.989)
(-5.08157e-34 117.737 206.932)
(1.45916e-33 101.331 201.273)
(4.53477e-32 98.5594 190.856)
(3.84185e-32 91.0743 183.515)
(2.14566e-32 86.4305 175.588)
(2.39466e-32 81.4908 168.39)
(2.41225e-32 77.2259 161.153)
(1.64391e-32 73.121 153.885)
(2.03194e-32 69.1255 146.282)
(2.30065e-32 65.0169 138.089)
(2.429e-32 60.6721 129.124)
(2.57771e-32 56.115 119.385)
(1.90827e-32 51.4364 109.273)
(1.83303e-32 48.0799 100.193)
(6.10709e-32 42.7902 90.8216)
(9.53636e-31 23.5018 50.1183)
(1.14508e-29 -18.5418 -36.2238)
(1.25472e-36 36.1868 159.354)
(4.21064e-36 77.6543 129.251)
(2.92323e-36 51.9853 137.66)
(-8.59022e-37 51.9568 132.865)
(-3.28822e-35 43.581 132.597)
(-2.18591e-34 39.5697 130.674)
(-1.60994e-34 34.915 129.297)
(-8.91167e-35 31.4293 127.576)
(-9.60542e-35 28.3538 125.834)
(-8.91257e-35 25.92 123.905)
(-6.18124e-35 23.989 121.763)
(-7.56273e-35 22.5467 119.267)
(-8.28565e-35 21.5732 116.309)
(-8.61646e-35 21.1039 112.849)
(-8.77835e-35 21.2594 108.814)
(-6.88183e-35 22.1835 104.316)
(-1.05011e-34 23.8154 100.447)
(-5.09962e-34 28.3555 97.1184)
(-3.58821e-33 32.2934 90.329)
(-1.34663e-32 7.53669 67.2926)
(-1.25765e-36 -36.176 159.355)
(-4.22325e-36 -77.6565 129.252)
(-2.9425e-36 -51.9916 137.671)
(8.64845e-37 -51.9746 132.887)
(3.29739e-35 -43.6052 132.631)
(2.19044e-34 -39.5998 130.717)
(1.60837e-34 -34.9463 129.345)
(8.91793e-35 -31.4588 127.627)
(9.68591e-35 -28.3797 125.888)
(9.44906e-35 -25.941 123.963)
(8.81481e-35 -24.0038 121.825)
(8.44793e-35 -22.5544 119.334)
(8.40779e-35 -21.5705 116.38)
(8.67157e-35 -21.0839 112.915)
(9.40654e-35 -21.218 108.868)
(1.0757e-34 -22.1187 104.351)
(1.48253e-34 -23.7259 100.459)
(4.06398e-34 -28.2473 97.1141)
(2.4777e-33 -32.1776 90.2977)
(9.13935e-33 -7.49614 67.1638)
(1.36552e-34 -104.383 254.982)
(7.86629e-34 -152.738 220.368)
(6.62629e-34 -107.294 224.973)
(5.08982e-34 -117.71 206.925)
(-1.4672e-33 -101.313 201.268)
(-4.54303e-32 -98.5402 190.855)
(-3.82709e-32 -91.0651 183.527)
(-2.14223e-32 -86.4346 175.632)
(-2.39982e-32 -81.5058 168.456)
(-2.46804e-32 -77.2453 161.236)
(-2.36764e-32 -73.1477 153.987)
(-2.31215e-32 -69.1623 146.412)
(-2.33441e-32 -65.0653 138.248)
(-2.42383e-32 -60.7236 129.297)
(-2.63008e-32 -56.1521 119.547)
(-2.9327e-32 -51.4662 109.427)
(-3.423e-32 -48.0912 100.345)
(-5.82637e-32 -42.685 90.7296)
(-6.58535e-31 -22.9002 49.3799)
(-7.8414e-30 18.9889 -36.8609)
(-1.2042e-32 -114.253 244.206)
(-7.98296e-32 -154.16 224.643)
(-7.11246e-32 -113.628 222.654)
(-5.47145e-32 -126.772 199.467)
(-1.77596e-31 -110.284 193.128)
(4.31157e-30 -109.733 179.764)
(4.06614e-30 -103.151 170.818)
(2.31232e-30 -99.4148 161.294)
(2.58031e-30 -95.2873 152.793)
(2.74732e-30 -91.589 144.584)
(2.6707e-30 -87.9887 136.746)
(2.61992e-30 -84.4904 129.097)
(2.65035e-30 -80.7479 121.548)
(2.74749e-30 -76.7672 113.532)
(2.97098e-30 -72.0673 105.405)
(3.29995e-30 -67.069 96.5009)
(3.86416e-30 -61.7533 88.6846)
(4.80653e-30 -58.3581 81.9365)
(3.9096e-30 -46.2988 71.1272)
(6.39379e-30 -4.79099 -17.495)
(8.61606e-31 -111.449 227.784)
(6.11303e-30 -133.7 199.091)
(5.40571e-30 -106.894 198.543)
(4.23325e-30 -118.66 179.224)
(1.36634e-29 -106.069 174.329)
(-2.7736e-28 -107.044 163.48)
(-2.72521e-28 -102.505 156.613)
(-1.60066e-28 -99.8975 149.155)