/*--------------------------------*- C++ -*----------------------------------*\
| =========                 |                                                 |
| \\      /  F ield         | OpenFOAM: The Open Source CFD Toolbox           |
|  \\    /   O peration     | Version:  4.1                                   |
|   \\  /    A nd           | Web:      www.OpenFOAM.org                      |
|    \\/     M anipulation  |                                                 |
\*---------------------------------------------------------------------------*/
FoamFile
{
    version     2.0;
    format      ascii;
    class       volVectorField;
    location    "13";
    object      U;
}
// * * * * * * * * * * * * * * * * * * * * * * * * * * * * * * * * * * * * * //

dimensions      [0 1 -1 0 0 0 0];

internalField   nonuniform List<vector> 
1280
(
(3.74728e-18 10.1607 0.281911)
(-2.94309e-17 12.7512 -1.47872)
(-9.219e-18 11.5173 -1.4004)
(-2.14764e-17 11.8049 -1.27419)
(-1.0086e-16 15.048 -4.08412)
(-1.76781e-16 12.9128 -3.5817)
(-2.77943e-17 14.7303 -3.73077)
(-1.07894e-15 14.1001 -3.32996)
(1.84653e-15 18.2022 -7.6377)
(1.5257e-15 16.7728 -6.317)
(2.85312e-15 18.0633 -5.51751)
(-3.31309e-15 22.5051 -12.0611)
(-3.61859e-15 21.2508 -10.1273)
(-4.60238e-15 23.3064 -8.98502)
(-1.3638e-14 29.1616 -19.1014)
(-1.23982e-14 28.1443 -15.5359)
(-1.17757e-14 31.7264 -14.4638)
(-1.27295e-14 35.9564 -27.0704)
(-8.88555e-15 38.9704 -20.9775)
(-7.78805e-15 37.2444 -29.5467)
(-7.79861e-15 39.8255 34.2306)
(-7.1806e-15 40.1877 70.2801)
(-8.86922e-15 41.5506 90.1743)
(-1.07959e-14 44.448 99.3499)
(-1.21856e-14 46.1544 103.754)
(-1.23087e-14 49.4876 107.117)
(-1.9313e-14 38.9263 76.625)
(-1.20263e-14 82.465 130.079)
(-1.38682e-14 81.3046 129.711)
(-1.55608e-14 82.582 127.596)
(-1.70538e-14 82.6424 125.105)
(-1.85216e-14 82.4556 122.389)
(-1.99641e-14 82.2045 119.774)
(-2.13285e-14 81.7499 117.353)
(-2.28546e-14 81.1365 115.082)
(-2.46465e-14 80.3235 112.827)
(-2.65637e-14 79.4068 110.604)
(-2.9632e-14 78.1376 107.942)
(-3.08777e-14 77.2547 105.895)
(-3.75231e-14 74.5652 99.4066)
(-3.94699e-14 82.7006 117.632)
(-2.62438e-14 52.8793 82.1727)
(-2.66475e-14 44.8562 80.195)
(-2.83247e-14 34.2048 75.7893)
(-3.01232e-14 25.3772 71.0209)
(-1.72158e-14 15.0322 42.4196)
(-1.40712e-14 10.1961 37.5896)
(-9.94111e-15 6.47872 27.8327)
(-6.30661e-15 3.62938 9.18577)
(-7.23872e-15 1.07931 1.27287)
(-6.09229e-15 1.01983 -1.79147)
(2.30129e-15 -1.24235 -5.94316)
(3.89713e-15 -3.13158 10.8846)
(5.00684e-15 -4.2452 22.5028)
(5.94029e-15 -8.56062 33.7443)
(1.15011e-14 -17.0318 70.143)
(1.20271e-14 -27.9445 81.3466)
(1.42105e-14 -38.2197 85.0501)
(1.60823e-14 -47.452 85.8587)
(3.61291e-14 -85.2047 123.699)
(5.28812e-14 -67.9909 111.959)
(3.56945e-14 -69.9337 119.009)
(3.59791e-14 -69.93 123.409)
(3.2779e-14 -70.7153 126.697)
(3.10457e-14 -70.9674 128.694)
(2.93911e-14 -71.3169 129.217)
(2.80668e-14 -71.4021 128.866)
(2.66615e-14 -71.4092 128.263)
(2.53444e-14 -71.2495 127.742)
(2.42794e-14 -70.9959 127.049)
(2.35035e-14 -70.5041 125.841)
(2.26515e-14 -69.324 124.182)
(2.14875e-14 -69.0606 121.711)
(1.92589e-14 -29.27 70.4728)
(1.85012e-14 -35.816 93.3739)
(1.73939e-14 -32.9009 89.8687)
(1.52345e-14 -31.8419 86.2143)
(1.24288e-14 -29.4642 80.2969)
(8.64508e-15 -27.7897 68.4784)
(4.24798e-15 -27.3147 43.6412)
(-1.52007e-15 -24.9133 -18.0261)
(-1.7048e-15 -28.3521 -18.1536)
(-3.45673e-16 -20.9217 -24.8343)
(-1.58708e-15 -19.2803 -11.8867)
(-1.2826e-15 -16.0794 -14.1734)
(-1.02647e-15 -15.2155 -18.0911)
(-3.23669e-16 -11.7206 -10.0227)
(8.67825e-16 -9.63455 -11.4652)
(1.80374e-15 -8.77339 -14.0282)
(1.86304e-15 -6.11341 -7.3604)
(1.30134e-15 -4.78708 -7.9783)
(5.22045e-16 -3.86344 -9.50669)
(3.6809e-16 -2.61846 -5.90167)
(-1.43789e-16 -1.73724 -6.14551)
(-3.0079e-16 -0.777012 -6.14286)
(-5.88151e-16 -0.0120284 -8.28483)
(-3.48313e-16 1.184 -6.0197)
(-2.26729e-16 2.41876 -5.61156)
(-6.80499e-16 2.09951 -7.87085)
(-7.82099e-16 4.87259 -7.50021)
(7.92632e-15 22.5818 69.612)
(7.88433e-15 19.8306 68.4797)
(2.04101e-14 0.173018 44.8458)
(3.27179e-14 -20.6437 27.2699)
(3.49208e-14 -34.4998 23.4172)
(3.56168e-14 -40.8444 20.9016)
(3.57875e-14 -44.6274 17.8658)
(3.57115e-14 -45.1799 14.7837)
(3.5434e-14 -41.5073 11.4596)
(3.45639e-14 -33.2938 7.60256)
(3.24354e-14 -24.4261 3.73263)
(2.82302e-14 -9.00517 -0.679839)
(2.6663e-14 8.78179 -15.4183)
(2.22918e-14 13.5485 -22.0965)
(1.92719e-14 4.23684 -24.5999)
(1.41072e-14 -6.70189 -19.5021)
(6.19578e-15 -9.41541 -13.9076)
(9.75462e-16 -9.03767 -10.6829)
(-6.21528e-16 -2.69983 -9.53213)
(-8.83598e-15 22.7307 82.7189)
(-1.72295e-14 27.7213 82.5695)
(-1.51002e-15 15.5345 58.4495)
(3.09624e-14 -15.4608 23.6275)
(3.61813e-14 -33.7 20.9983)
(3.55387e-14 -39.5813 21.6438)
(3.57816e-14 -43.1212 18.4434)
(3.57085e-14 -43.3544 15.5978)
(3.54061e-14 -39.1994 12.2909)
(3.44987e-14 -30.5038 8.22686)
(3.2349e-14 -21.3242 4.09733)
(2.87285e-14 -0.709456 -3.33834)
(2.51898e-14 15.3714 -22.8075)
(2.01903e-14 17.067 -31.2367)
(1.7907e-14 4.09346 -34.7908)
(1.54982e-14 -10.1522 -26.9508)
(8.48353e-15 -12.4828 -16.3231)
(1.97258e-15 -10.7766 -10.1353)
(-2.39274e-16 -4.1292 -7.42515)
(-2.02066e-14 22.5789 78.9678)
(-2.96898e-14 30.5201 76.2957)
(-1.93216e-14 25.854 62.4174)
(1.54895e-14 -6.22203 30.8049)
(3.77657e-14 -32.7917 16.4234)
(3.60208e-14 -39.4713 21.6277)
(3.56673e-14 -41.8665 19.7709)
(3.57087e-14 -42.2003 16.8456)
(3.53714e-14 -37.9829 13.7074)
(3.43832e-14 -29.2775 9.49553)
(3.222e-14 -19.3225 5.20972)
(3.0118e-14 4.74367 -6.53321)
(2.12208e-14 20.1816 -24.4089)
(1.56196e-14 19.12 -29.9181)
(1.38022e-14 3.18853 -32.5522)
(1.45592e-14 -13.9036 -30.1885)
(1.05218e-14 -16.1242 -20.1757)
(3.90063e-15 -12.7329 -11.3599)
(9.11173e-16 -2.39511 -7.42143)
(-2.25246e-14 23.7009 66.4752)
(-2.53441e-14 33.894 56.9082)
(-2.08421e-14 32.9588 51.5131)
(1.3151e-16 3.35371 36.2638)
(3.41003e-14 -30.2441 16.7227)
(3.75656e-14 -40.6271 19.3728)
(3.56392e-14 -41.3055 21.4941)
(3.56429e-14 -41.0174 18.7715)
(3.53201e-14 -36.5455 15.6316)
(3.42765e-14 -27.26 11.3)
(3.22032e-14 -16.568 6.86016)
(2.77162e-14 10.5239 -6.22578)
(1.60592e-14 23.9808 -17.7206)
(1.26849e-14 20.1683 -16.639)
(1.17684e-14 3.58806 -17.2481)
(1.28133e-14 -15.1089 -24.342)
(1.11214e-14 -19.5476 -21.3514)
(5.9345e-15 -16.4609 -13.8532)
(3.46843e-15 -5.4412 -12.3453)
(-1.44169e-14 26.4715 49.9164)
(-1.01692e-14 36.4979 38.4263)
(-1.15721e-14 34.351 40.1113)
(-3.64024e-15 8.5894 37.5017)
(2.6051e-14 -26.5163 22.895)
(3.82316e-14 -41.1413 17.875)
(3.62461e-14 -41.7891 22.198)
(3.54873e-14 -39.8776 21.4945)
(3.52567e-14 -35.1858 18.501)
(3.40326e-14 -26.1884 15.5736)
(3.04123e-14 -12.0999 17.3038)
(2.20077e-14 16.7281 -1.03734)
(1.30709e-14 24.5387 -0.733917)
(1.32878e-14 18.8702 5.56096)
(1.23014e-14 5.38137 4.69959)
(1.17016e-14 -12.7655 -10.7088)
(1.07521e-14 -19.3392 -17.1484)
(6.98868e-15 -16.1517 -15.1219)
(6.15736e-15 0.168839 -16.9941)
(-4.09786e-15 28.5467 39.7157)
(-1.28418e-15 37.5522 34.6102)
(-7.13362e-15 33.292 41.1429)
(-2.45056e-15 10.7225 42.919)
(2.05232e-14 -22.8136 31.3127)
(3.6175e-14 -39.9706 21.0731)
(3.74163e-14 -42.8115 22.1402)
(3.55215e-14 -39.4655 24.1603)
(3.49784e-14 -34.1055 22.0117)
(3.31189e-14 -25.7751 19.5415)
(2.90764e-14 -10.3781 17.3506)
(1.83889e-14 16.1761 6.53753)
(1.38022e-14 21.5034 18.8763)
(1.41423e-14 17.9164 26.2147)
(1.28352e-14 8.84797 25.9118)
(1.09551e-14 -7.57582 11.629)
(9.95466e-15 -17.9642 -7.72488)
(7.42394e-15 -19.2603 -10.3822)
(6.44705e-15 -6.15767 -29.2298)
(9.9029e-16 28.7674 37.9697)
(-3.18899e-15 35.8372 40.8955)
(-9.6161e-15 31.0931 50.571)
(-9.09574e-16 12.5693 53.6078)
(2.00586e-14 -18.5197 41.5183)
(3.33555e-14 -37.0578 28.7882)
(3.81669e-14 -43.083 23.974)
(3.60805e-14 -39.852 26.0535)
(3.47647e-14 -33.4374 26.2924)
(3.28889e-14 -24.7839 25.1488)
(2.77578e-14 -7.90591 14.6736)
(1.36979e-14 15.9931 17.9872)
(1.44146e-14 16.2462 38.9985)
(1.48013e-14 16.0215 48.2342)
(1.44103e-14 11.6309 51.6997)
(1.25052e-14 0.923423 40.1041)
(8.68973e-15 -7.89961 13.2798)
(4.46755e-15 -3.79968 -4.8421)
(6.56716e-15 13.7457 -23.4557)
(8.68692e-16 27.5791 41.2397)
(-9.29028e-15 32.3557 49.5548)
(-1.30161e-14 28.3534 61.413)
(1.42228e-15 14.3317 65.7981)
(2.31158e-14 -13.4206 53.6873)
(3.28478e-14 -32.686 39.1307)
(3.8248e-14 -41.7367 29.7549)
(3.70156e-14 -40.4447 28.3138)
(3.45942e-14 -33.5084 30.807)
(3.05047e-14 -22.2956 30.9218)
(2.04937e-14 -5.41263 24.9158)
(1.31759e-14 7.2122 43.6489)
(1.40965e-14 10.2779 61.8548)
(1.47423e-14 13.0203 72.3764)
(1.59493e-14 11.9177 79.9785)
(1.82665e-14 6.29513 79.6254)
(2.18811e-14 -1.33011 71.681)
(2.68241e-14 -12.1897 69.4629)
(3.35991e-14 -42.2168 89.054)
(-1.35971e-15 25.5707 45.8817)
(-1.50737e-14 27.6994 57.7068)
(-1.56699e-14 24.8778 71.4718)
(3.00933e-15 15.4527 77.7463)
(2.60853e-14 -8.0956 67.1737)
(3.2825e-14 -27.3429 51.5441)
(3.64121e-14 -38.673 39.8825)
(3.74125e-14 -40.3115 34.1231)
(3.40413e-14 -34.3036 35.9761)
(2.84111e-14 -22.8826 37.8141)
(1.8312e-14 -10.6773 44.0175)
(1.18701e-14 -0.34879 69.51)
(1.12104e-14 4.54105 85.3137)
(1.1248e-14 8.88483 94.6493)
(1.25411e-14 8.88932 102.141)
(1.49556e-14 4.40909 105.606)
(1.99007e-14 -2.58683 106.334)
(2.38239e-14 -9.55049 103.26)
(2.29439e-14 -16.7587 90.0404)
(-3.86215e-15 22.8969 50.1553)
(-2.00656e-14 22.0931 64.903)
(-1.93396e-14 20.6249 80.2833)
(5.06015e-16 15.6266 88.8267)
(2.91727e-14 -2.98751 81.5655)
(4.06153e-14 -21.8024 65.5806)
(4.0909e-14 -34.6544 52.8059)
(3.46137e-14 -38.9283 43.9453)
(3.1376e-14 -34.9229 42.6007)
(1.96096e-14 -25.9865 47.0863)
(4.72718e-16 -18.2586 62.9438)
(-9.34251e-15 -8.90698 86.9009)
(2.9243e-15 0.112225 97.7583)
(-2.15109e-15 6.25143 102.626)
(-4.02537e-17 7.39635 105.635)
(-1.55144e-15 4.63334 105.054)
(1.22867e-15 -0.388081 99.0272)
(4.43939e-15 -6.03989 82.3157)
(5.76909e-15 -10.3257 44.2061)
(-6.20804e-15 19.6534 53.3804)
(-2.43748e-14 15.6823 70.4238)
(-2.36874e-14 15.5698 86.7893)
(-9.17224e-15 14.5039 97.8042)
(1.1674e-14 1.52913 96.2893)
(2.66215e-14 -15.9924 81.719)
(2.9816e-14 -29.8914 67.319)
(3.01877e-14 -36.2891 56.148)
(2.35866e-14 -35.5019 52.7146)
(8.55799e-15 -31.2424 60.7292)
(-7.781e-15 -26.1101 78.5164)
(-1.51908e-14 -14.3703 92.4412)
(-1.9948e-14 -1.61144 94.22)
(-2.39171e-14 5.83391 96.3024)
(-2.33324e-14 8.00754 99.4924)
(-2.3495e-14 7.2034 100.323)
(-2.42566e-14 6.93115 96.8637)
(-2.33216e-14 10.3359 82.7502)
(-1.84076e-14 14.7378 47.0918)
(-8.09045e-15 16.0422 54.9732)
(-2.8045e-14 8.82491 72.8899)
(-2.64633e-14 9.86908 89.1638)
(-1.40409e-14 11.4717 102.17)
(2.08574e-15 3.67253 108.289)
(1.4804e-14 -10.4085 100.85)
(2.0277e-14 -24.2295 87.4187)
(2.07372e-14 -33.0958 75.7412)
(1.24042e-14 -36.6695 71.9851)
(-1.17381e-15 -36.3809 78.5542)
(-1.44605e-14 -30.5888 86.7025)
(-2.30396e-14 -15.2046 83.6075)
(-2.71342e-14 -1.33586 74.1414)
(-2.84232e-14 4.29356 72.8785)
(-3.0936e-14 5.40725 77.9741)
(-3.45919e-14 5.36746 85.1618)
(-3.96167e-14 6.89678 93.5452)
(-4.29568e-14 12.249 99.2048)
(-4.13203e-14 21.1905 90.5846)
(-8.75513e-15 12.462 54.3296)
(-3.08771e-14 2.10324 70.7861)
(-3.02373e-14 3.99511 85.9016)
(-2.22423e-14 6.62843 99.6922)
(-1.18102e-14 2.06073 111.463)
(-1.48449e-15 -7.89697 113.988)
(4.92805e-15 -19.8794 107.984)
(5.57013e-15 -30.1681 99.4312)
(-7.81558e-16 -36.5941 93.5634)
(-1.12165e-14 -37.1592 90.3262)
(-2.07559e-14 -28.1355 81.3724)
(-2.39849e-14 -9.78657 61.7442)
(-2.07807e-14 2.02627 47.6743)
(-1.95465e-14 4.11246 44.61)
(-2.07307e-14 3.30331 44.4185)
(-2.40459e-14 1.37872 46.2297)
(-2.8474e-14 1.19974 49.916)
(-3.32656e-14 10.8447 62.5897)
(-3.92517e-14 40.6286 89.4853)
(-7.74551e-15 9.68951 51.1942)
(-3.21324e-14 -3.66678 62.5653)
(-3.3324e-14 -1.61366 76.4953)
(-2.86355e-14 1.19686 90.4842)
(-2.31193e-14 -1.89721 103.613)
(-1.71743e-14 -9.10204 111.782)
(-1.22213e-14 -18.4882 113.526)
(-1.0738e-14 -27.4734 109.071)
(-1.38339e-14 -33.1032 99.7065)
(-1.92905e-14 -31.4906 84.8111)
(-2.17501e-14 -19.0961 61.3729)
(-1.72461e-14 -1.52343 34.4235)
(-1.30534e-14 5.40649 25.5133)
(-1.22303e-14 5.55132 24.1754)
(-1.1087e-14 4.80073 21.7358)
(-9.63516e-15 3.69893 17.0924)
(-6.29268e-15 1.91667 7.62329)
(-2.15267e-15 -2.87358 -2.86447)
(-1.16532e-14 -8.42724 3.34145)
(-4.64477e-15 8.42336 47.0004)
(-2.96604e-14 -8.13799 50.9569)
(-3.4338e-14 -7.2781 63.1642)
(-3.24899e-14 -4.29868 76.7269)
(-2.96106e-14 -6.3555 89.065)
(-2.66951e-14 -11.836 98.2968)
(-2.39282e-14 -18.7166 102.708)
(-2.22715e-14 -24.6027 99.4693)
(-2.21455e-14 -26.8152 86.6993)
(-2.16997e-14 -21.8432 64.1547)
(-1.75666e-14 -8.51148 34.6473)
(-1.09374e-14 4.21983 12.9929)
(-7.80209e-15 6.69992 8.60662)
(-7.17882e-15 5.90453 9.39179)
(-5.26541e-15 6.04927 7.6297)
(-3.56046e-15 6.30392 5.35872)
(-2.07913e-15 6.52394 0.758215)
(-9.02646e-16 7.40415 -2.37913)
(2.24671e-16 1.9943 -24.1474)
(-7.11651e-16 8.97547 43.3235)
(-2.39542e-14 -10.2981 39.8684)
(-3.25062e-14 -11.8361 49.4985)
(-3.37327e-14 -9.13741 62.2336)
(-3.23559e-14 -10.4412 73.4636)
(-3.06761e-14 -14.5432 81.5003)
(-2.88036e-14 -18.916 84.7683)
(-2.63087e-14 -20.9999 79.1939)
(-2.27035e-14 -18.8375 61.637)
(-1.74164e-14 -10.5458 33.8121)
(-1.11005e-14 1.99591 4.78589)
(-8.58498e-15 8.11309 -1.34786)
(-5.35899e-15 6.82702 -2.99384)
(-4.33314e-15 5.54267 -0.0490759)
(-2.61602e-15 6.27019 0.0115423)
(-1.43361e-15 6.83037 0.508624)
(-8.93329e-16 6.61876 -1.34817)
(-3.71486e-16 9.90529 -2.14523)
(1.87926e-15 6.01053 -20.1569)
(2.56105e-15 10.8966 40.8761)
(-1.62226e-14 -11.1263 31.347)
(-2.78172e-14 -16.2877 36.9258)
(-3.25782e-14 -14.0226 48.4349)
(-3.29096e-14 -14.035 58.9352)
(-3.13786e-14 -16.3185 65.6976)
(-2.84775e-14 -17.8132 66.1449)
(-2.34002e-14 -15.3466 55.0656)
(-1.67421e-14 -8.60351 31.1223)
(-1.15457e-14 0.502947 4.66304)
(-1.05379e-14 5.30514 -4.81147)
(-8.44863e-15 7.86271 -4.29758)
(-5.38906e-15 6.66194 -3.71171)
(-2.81118e-15 4.97916 -4.85132)
(-1.18344e-15 5.76531 -4.19196)
(-3.38255e-16 6.82899 -2.12965)
(-1.22406e-16 7.21312 -2.81396)
(-3.6395e-18 13.5345 -3.88021)
(-1.67414e-16 9.48424 -12.7048)
(4.50853e-15 14.002 39.3497)
(-8.18287e-15 -8.68429 25.879)
(-2.08377e-14 -18.3328 26.315)
(-2.88234e-14 -17.8199 36.1755)
(-3.15831e-14 -17.3605 46.1481)
(-3.021e-14 -17.5122 51.8374)
(-2.53143e-14 -14.7129 48.6238)
(-1.75039e-14 -6.96854 31.2202)
(-1.18293e-14 1.22684 7.51107)
(-1.23389e-14 3.93412 -0.0494982)
(-1.10589e-14 5.33702 -1.1679)
(-8.19105e-15 7.56648 -1.8914)
(-4.67962e-15 7.1335 -3.05353)
(-2.00096e-15 5.61506 -5.2444)
(-2.34009e-16 5.23842 -6.06153)
(4.30011e-16 6.33367 -3.58736)
(2.98256e-16 7.37132 -3.84893)
(-3.00607e-17 14.1306 -4.51991)
(-2.06477e-16 10.224 -9.03773)
(5.29103e-15 16.62 38.7686)
(-1.43053e-15 -7.7574 25.061)
(-1.32516e-14 -20.8784 18.1849)
(-2.34844e-14 -22.207 25.0184)
(-2.95132e-14 -20.1562 34.9231)
(-2.91413e-14 -17.1006 40.9296)
(-2.25256e-14 -9.71131 34.5313)
(-1.45367e-14 0.766987 15.2592)
(-1.37216e-14 3.93292 6.00562)
(-1.2843e-14 4.19223 3.47877)
(-1.07435e-14 6.05808 -0.0467267)
(-7.87923e-15 8.31082 -1.7481)
(-4.22843e-15 7.87191 -3.21416)
(-1.4472e-15 6.15564 -4.70607)
(3.20332e-16 4.99787 -5.41655)
(7.2225e-16 5.86269 -3.64149)
(2.24493e-16 7.51605 -4.07487)
(-5.60662e-17 15.0124 -4.54329)
(-9.30327e-17 10.7775 -7.07704)
(5.43936e-15 19.697 38.3051)
(3.85536e-15 0.926561 30.1631)
(-4.33816e-15 -17.1812 16.3782)
(-1.28037e-14 -24.1452 15.64)
(-2.05288e-14 -23.9827 20.553)
(-2.38721e-14 -17.6925 25.8844)
(-2.04783e-14 -4.37262 22.1929)
(-1.59102e-14 5.29588 11.8355)
(-1.46122e-14 6.65296 7.80121)
(-1.28876e-14 6.57839 4.27147)
(-1.085e-14 7.70294 0.949195)
(-7.75481e-15 9.27488 -1.51018)
(-3.92814e-15 8.67342 -3.15338)
(-1.10143e-15 6.66305 -4.5481)
(5.15467e-16 4.73513 -5.01412)
(6.57487e-16 5.77229 -3.60027)
(1.66908e-16 7.89283 -4.44643)
(-6.20634e-17 15.5772 -4.46463)
(-1.20976e-16 9.79993 -6.52994)
(-6.83681e-16 92.1676 149.931)
(1.77422e-14 172.895 279.091)
(2.01837e-14 191.815 302.105)
(1.82883e-14 187.237 285.464)
(1.70657e-14 176.846 261.587)
(1.86367e-14 167.584 237.766)
(1.88973e-14 157.702 216.437)
(1.82173e-14 148.541 196.246)
(1.71222e-14 139.185 176.919)
(1.5893e-14 129.663 158.419)
(1.47506e-14 119.951 140.63)
(1.30793e-14 109.957 123.559)
(1.06969e-14 99.6088 107.228)
(8.42643e-15 88.8767 91.5155)
(5.94301e-15 77.4481 76.2907)
(3.19927e-15 65.4049 61.1053)
(-2.64372e-16 51.6288 45.891)
(-6.88433e-15 37.5316 29.6227)
(-1.52327e-14 17.0301 11.3699)
(-3.57904e-14 1.50396 -17.3617)
(-8.02838e-16 133.911 225.964)
(2.24998e-14 191.414 309.105)
(2.21622e-14 183.085 301.127)
(2.17685e-14 172.544 280.262)
(2.40055e-14 161.257 263)
(2.98168e-14 152.61 245.523)
(2.89406e-14 142.567 227.167)
(3.07778e-14 132.115 207.06)
(3.29341e-14 120.715 186.137)
(3.54458e-14 108.852 164.556)
(3.82424e-14 96.34 142.618)
(4.66106e-14 83.2137 120.33)
(5.33334e-14 69.323 97.8226)
(6.13726e-14 54.8029 75.1563)
(6.74869e-14 39.4744 52.4175)
(6.69994e-14 23.6631 28.7583)
(7.41687e-14 5.31685 3.69224)
(8.47729e-14 -10.353 -24.1904)
(7.45887e-14 -33.9147 -45.0325)
(2.93233e-14 -31.8667 -77.325)
(2.89521e-17 154.985 275.218)
(8.75837e-15 178.48 303.155)
(5.54657e-15 161.259 289.044)
(6.9554e-15 154.289 275.477)
(1.05296e-14 142.431 262.23)
(1.30234e-14 131.693 245.423)
(7.0612e-15 117.85 226.129)
(1.10417e-14 103.843 204.789)
(1.45347e-14 88.8372 182.71)
(2.03639e-14 73.5316 159.632)
(2.95563e-14 57.4421 135.629)
(4.60376e-14 40.703 110.471)
(7.3364e-14 23.4758 84.7003)
(9.90151e-14 6.73937 59.6494)
(9.13814e-14 -8.47273 36.4992)
(4.35462e-14 -21.8617 15.2245)
(-5.96412e-16 -33.8951 -6.97308)
(-1.29224e-14 -44.0392 -32.516)
(-1.36076e-14 -45.5567 -45.9036)
(-3.39038e-15 -20.238 -23.9154)
(-1.03162e-16 136.773 245.762)
(-1.92804e-15 146.94 263.408)
(-1.6408e-15 137.607 257.579)
(-1.83447e-15 127.739 245.253)
(-2.29187e-16 114.323 230.348)
(4.72594e-15 100.944 214.376)
(5.20939e-15 85.9996 196.221)
(7.99401e-15 70.2858 175.985)
(1.09925e-14 53.7033 154.325)
(1.65688e-14 36.5926 131.534)
(2.67951e-14 19.0369 107.99)
(4.66504e-14 1.47752 84.0463)
(7.83718e-14 -15.0879 60.9188)
(1.09887e-13 -28.3993 41.3964)
(1.11184e-13 -35.4508 29.0431)
(7.35419e-14 -33.1308 27.5554)
(2.71297e-14 -17.8455 41.9882)
(4.09128e-15 12.5559 73.9368)
(4.54037e-15 47.8806 108.257)
(8.73174e-15 48.3473 99.0438)
(5.84168e-17 116.13 204.469)
(4.44808e-16 133.892 240.369)
(4.02771e-16 127.357 230.51)
(1.80828e-16 115.59 214.761)
(-9.70261e-16 102.7 196.114)
(-2.3719e-15 90.1122 179.44)
(-2.50676e-15 77.8109 162.692)
(-3.3653e-15 64.7251 143.958)
(-3.74949e-15 51.0671 123.247)
(-3.70028e-15 37.3453 101.286)
(-3.46513e-15 24.4211 79.5641)
(-4.89175e-15 13.7787 60.5866)
(-9.36776e-15 7.74225 48.353)
(-1.50971e-14 9.56776 48.3862)
(-1.83028e-14 22.1781 65.4419)
(-1.65114e-14 45.1467 98.5845)
(-9.97315e-15 72.9254 138.62)
(-2.05728e-15 95.2317 171.12)
(2.31977e-15 103.928 177.403)
(9.77445e-16 74.0922 135.48)
(-1.3659e-17 111.138 190.581)
(-8.225e-17 136.781 238.618)
(-7.21637e-17 133.615 228.737)
(-2.1606e-17 123.878 212.014)
(2.67162e-16 113.085 191.641)
(6.53459e-16 103.054 173.519)
(5.97415e-16 95.4176 159.472)
(7.09001e-16 88.8895 146.557)
(7.20299e-16 82.8116 133.805)
(7.18291e-16 77.3458 120.745)
(7.50772e-16 72.3589 107.352)
(7.76121e-16 68.1468 94.1218)
(5.09484e-16 65.4427 82.7648)
(-4.29778e-16 65.2386 76.3555)
(-1.69702e-15 68.8785 78.2)
(-1.87302e-15 75.6111 89.9078)
(-3.4006e-18 83.9046 107.916)
(2.65506e-15 87.9307 125.079)
(3.07865e-15 83.8049 127.759)
(6.68263e-16 60.5244 102.793)
(2.47778e-18 113.614 194.64)
(1.20182e-17 146.773 252.386)
(9.44037e-18 143.575 242.571)
(6.04986e-21 133.901 224.044)
(-5.19336e-17 123.276 204.054)
(-1.33369e-16 114.442 186.277)
(-1.23097e-16 107.543 172.609)
(-1.18065e-16 102.058 160.571)
(-9.954e-17 96.8101 149.402)
(-8.05006e-17 91.9713 138.566)
(-8.90582e-17 87.3119 127.955)
(-1.16673e-16 82.7438 117.195)
(-8.96728e-17 78.1075 106.032)
(1.04354e-16 73.4379 94.8753)
(5.57786e-16 69.1325 85.1528)
(1.25799e-15 65.8468 79.0569)
(1.94075e-15 63.4293 77.8416)
(2.00253e-15 60.9861 79.1534)
(9.7941e-16 53.3461 76.6007)
(-2.66527e-16 32.3752 47.0885)
(-3.1446e-19 117.073 200.297)
(-1.13052e-18 155.684 265.431)
(-4.55723e-19 149.145 251.898)
(1.04962e-18 137.645 229.618)
(8.5506e-18 125.699 209.251)
(2.26033e-17 117.47 192.283)
(2.0744e-17 110.214 179.133)
(1.65833e-17 104.1 166.335)
(1.04201e-17 97.6874 154.192)
(4.01386e-18 91.6232 142.335)
(4.27111e-18 85.6611 131.111)
(1.19216e-17 79.9639 120.462)
(1.14559e-17 74.3742 110.281)
(-2.25483e-17 68.8581 100.176)
(-1.11293e-16 62.9702 89.8843)
(-2.7073e-16 56.9121 79.1312)
(-5.1355e-16 49.6645 68.4913)
(-8.0305e-16 42.1836 56.9122)
(-9.14429e-16 28.9112 42.227)
(-7.91602e-16 8.19186 3.88202)
(1.21726e-21 125.31 214.664)
(-6.93802e-20 165.507 278.372)
(-2.31634e-19 153.148 259.331)
(-4.21895e-19 141.176 233.503)
(-1.27357e-18 128.931 214.803)
(-3.07906e-18 122.506 198.855)
(-2.4674e-18 115.15 186.284)
(-1.24173e-18 109.305 172.989)
(2.1101e-19 102.773 160.356)
(1.60728e-18 96.5872 147.545)
(1.77301e-18 90.13 134.9)
(3.39864e-19 83.5077 122.262)
(-2.55912e-19 76.5254 109.75)
(4.26664e-18 69.2862 97.3001)
(1.75644e-17 61.4356 84.9348)
(4.40547e-17 53.2734 72.035)
(9.39076e-17 43.3406 58.2843)
(1.82086e-16 32.8034 41.6484)
(3.17564e-16 14.5811 18.9403)
(2.24902e-16 -1.68563 -16.2265)
(1.42926e-20 138.471 239.698)
(7.19016e-20 174.785 289.147)
(1.09218e-19 154.692 265.192)
(1.31072e-19 145.81 238.858)
(1.91638e-19 133.969 224.389)
(2.76134e-19 130.018 209.25)
(4.05067e-20 122.512 197.419)
(-2.65593e-19 117.848 184.188)
(-5.61248e-19 111.791 171.731)
(-8.06751e-19 106.03 158.077)
(-8.60738e-19 99.1332 143.668)
(-6.74729e-19 91.4122 128.208)
(-5.26554e-19 82.6393 112.111)
(-9.21495e-19 73.097 95.48)
(-2.39175e-18 62.49 78.5745)
(-5.88929e-18 51.2066 60.9172)
(-1.42864e-17 37.5929 42.419)
(-3.00297e-17 23.5198 20.7449)
(-7.43859e-17 0.427407 -5.19675)
(2.26698e-16 -14.2985 -42.0404)
(-6.13048e-21 152.843 271.584)
(-2.55898e-20 176.629 290.136)
(-3.46569e-20 151.071 267.478)
(-3.75055e-20 148.777 246.455)
(-3.33142e-20 136.154 236.314)
(2.27654e-21 134.347 222.053)
(8.16439e-20 126.275 212.644)
(1.55652e-19 123.459 200.965)
(2.13201e-19 117.158 189.804)
(2.51189e-19 111.027 174.883)
(2.46032e-19 101.604 157.407)
(1.89389e-19 90.6874 137.202)
(1.39776e-19 77.9712 115.951)
(2.81909e-19 64.4136 93.9244)
(9.57801e-19 49.486 71.1838)
(2.22427e-18 33.5357 47.0551)
(3.11194e-18 15.1602 22.0097)
(3.908e-18 -2.19163 -7.57626)
(-5.48095e-17 -28.5941 -34.5064)
(1.20023e-16 -30.3134 -72.9207)
(1.92335e-21 156.413 285.794)
(7.7442e-21 164.562 273.636)
(9.90242e-21 141.463 260.878)
(1.03216e-20 141.529 244.128)
(5.79557e-21 127.063 235.666)
(-1.41873e-20 124.869 222.86)
(-3.90738e-20 115.379 216.025)
(-5.31128e-20 112.053 206.097)
(-4.7632e-20 102.874 195.414)
(-4.85922e-20 93.2005 177.565)
(-1.44834e-19 78.0145 154.963)
(-4.01663e-19 61.7665 128.449)
(-6.31575e-19 44.1178 101.824)
(-2.61319e-20 26.7282 75.0524)
(2.4221e-18 8.53426 47.5169)
(4.90866e-18 -9.25835 20.1386)
(1.38859e-18 -24.4237 -4.46446)
(-1.02969e-17 -36.4051 -27.8092)
(-1.88419e-17 -41.609 -42.7761)
(4.7267e-18 -20.9515 -28.0387)
(-5.84219e-22 146.433 270.383)
(-2.19821e-21 152.574 255.74)
(-2.75814e-21 131.09 245.366)
(-2.7173e-21 129.71 227.359)
(6.60522e-23 114.014 218.743)
(7.19623e-21 110.122 205.358)
(1.31771e-20 98.9067 197.982)
(2.31527e-20 92.8032 187.563)
(4.01303e-20 81.1874 175.985)
(3.968e-21 68.4827 157.488)
(-1.9393e-19 51.4604 134.129)
(-4.5938e-19 33.9671 107.527)
(-1.5889e-19 16.4644 81.3064)
(1.73508e-18 0.63999 56.6587)
(4.8827e-18 -12.6835 35.0031)
(5.56316e-18 -20.0833 20.1662)
(3.60712e-19 -16.0779 20.5837)
(-7.15141e-18 3.90883 42.2478)
(-9.25986e-18 33.6059 75.6355)
(-3.73182e-18 38.6204 81.5641)
(1.61393e-22 138.537 257.124)
(5.76097e-22 152.012 247.853)
(7.23014e-22 126.085 234.453)
(6.69359e-22 128.203 212.303)
(-3.86113e-22 109.819 203.63)
(-2.91499e-21 107.972 185.846)
(-4.61823e-21 94.4833 175.955)
(-1.33552e-22 88.9848 161.918)
(1.15811e-20 77.8208 150.172)
(-1.8276e-20 68.5739 134.558)
(-1.72908e-19 56.55 116.962)
(-3.27693e-19 45.1937 96.6527)
(3.21006e-20 34.4521 76.6348)
(1.32466e-18 27.3761 60.6965)
(2.97296e-18 27.0038 55.2052)
(3.5395e-18 35.6254 64.0372)
(2.60355e-18 49.9191 82.1722)
(1.47622e-18 61.3697 100.005)
(8.80743e-19 68.2937 106.834)
(2.12429e-19 50.3892 89.8209)
(-3.89649e-23 139.105 260.416)
(-1.39304e-22 158.459 251.737)
(-1.73198e-22 128.986 238.547)
(-1.65241e-22 134.881 214.294)
(6.94024e-23 115.763 206.149)
(6.34826e-22 116.16 187.129)
(1.06191e-21 103.387 176.163)
(6.14807e-22 99.2565 160.712)
(-1.00788e-21 90.4625 148.644)
(2.6593e-21 84.9375 135.987)
(1.995e-20 78.8881 124.989)
(3.24902e-20 74.3248 114.33)
(-2.18957e-22 70.2507 103.994)
(-8.06722e-20 66.7314 93.5087)
(-1.44723e-19 63.4042 83.1409)
(-1.4791e-19 60.042 74.1502)
(-1.83197e-19 56.3767 67.852)
(-4.16302e-19 52.0108 64.0832)
(-8.10218e-19 42.5282 56.9054)
(-1.28069e-18 23.988 32.6597)
(9.15858e-24 142.657 270.777)
(3.3525e-23 163.182 255.993)
(4.28603e-23 131.932 245.89)
(3.81309e-23 140.012 222.004)
(-3.69371e-23 120.825 214.037)
(-1.91763e-22 121.486 196.116)
(-2.43026e-22 110.295 185.277)
(2.43509e-24 106.289 171.112)
(2.92024e-22 99.1092 159.079)
(-9.62876e-22 93.6491 146.479)
(-3.50555e-21 87.8557 134.582)
(7.97771e-22 82.5214 123.063)
(1.87975e-20 77.2935 112.027)
(3.54603e-20 72.0901 100.976)
(1.76673e-20 66.0584 89.2633)
(-5.47192e-20 58.8753 75.774)
(-1.68493e-19 48.7663 60.3584)
(-2.64216e-19 38.0476 43.6455)
(-2.48799e-19 18.4918 21.0044)
(-5.19286e-19 0.605545 -15.8362)
(-2.03156e-24 142.643 278.056)
(-7.46028e-24 163.297 253.766)
(-9.46907e-24 130.271 249.258)
(-1.83432e-23 140.676 225.939)
(-2.79055e-23 120.572 218.828)
(7.36355e-24 121.653 201.843)
(1.49829e-22 110.692 191.75)
(3.89253e-22 107.107 178.567)
(5.52086e-22 100.34 167.571)
(5.94728e-22 95.6048 155.981)
(2.70828e-22 90.4341 145.039)
(-2.03532e-21 85.8489 134.032)
(-6.781e-21 81.0242 122.822)
(-6.93697e-21 75.5484 110.101)
(1.12178e-20 67.6566 94.4036)
(5.63877e-20 56.5991 73.5834)
(1.26742e-19 39.8646 47.6914)
(2.17812e-19 23.862 23.2194)
(3.11865e-19 -3.43037 -4.2209)
(-1.63084e-19 -15.4093 -43.6081)
(6.60373e-25 134.252 274.857)
(2.60751e-24 158.813 248.421)
(1.82023e-24 122.742 246.788)
(-9.9388e-24 130.709 226.36)
(-3.16966e-23 112.416 219.086)
(-3.59234e-24 110.225 205.025)
(1.79309e-22 100.394 195.367)
(4.67996e-22 95.3833 184.058)
(3.95479e-22 88.7508 174.156)
(-7.61905e-22 83.7337 164.155)
(-2.85962e-21 78.733 154.866)
(-3.37347e-21 74.3969 145.62)
(2.77426e-21 69.6265 135.479)
(2.09559e-20 63.1126 121.771)
(5.18046e-20 52.3919 100.904)
(8.57142e-20 35.3652 68.6274)
(1.24818e-19 6.74947 19.7011)
(3.01512e-19 -24.1258 -44.6848)
(4.41026e-19 -31.6788 -41.8135)
(6.98242e-20 -25.7944 -56.1365)
(-8.8534e-26 109.349 255.473)
(-3.37107e-25 148.46 226.878)
(-1.77857e-24 108.237 229.849)
(-8.78885e-24 113.862 215.039)
(-1.53222e-23 97.8105 209.553)
(1.92655e-23 92.7829 200.239)
(1.55213e-22 83.7055 192.994)
(3.46075e-22 77.236 185.133)
(2.56806e-22 70.4351 177.766)
(-6.72133e-22 64.5398 170.437)
(-2.51369e-21 59.0032 163.352)
(-3.52334e-21 53.886 156.213)
(5.609e-22 48.6149 148.184)
(1.43232e-20 42.2874 137.388)
(3.76195e-20 33.7568 121.176)
(6.45675e-20 22.2303 97.3706)
(9.35149e-20 8.56609 65.7035)
(1.31892e-19 -4.04547 28.7927)
(1.60454e-19 -12.9006 -3.33788)
(8.67678e-20 -12.9369 -19.8606)
(9.0304e-26 35.9174 158.035)
(2.77742e-25 78.3755 130.715)
(1.89269e-25 52.6899 138.871)
(-1.49039e-24 52.5178 134.86)
(-6.25418e-24 44.0022 134.905)
(-8.64279e-24 39.5667 133.336)
(1.3555e-23 34.4845 132.149)
(9.11697e-23 30.4805 130.618)
(2.11735e-22 26.8672 128.979)
(2.21304e-22 23.8819 127.141)
(-2.7258e-22 21.4512 125.189)
(-1.87707e-21 19.6864 123.259)
(-5.07747e-21 18.6971 121.583)
(-9.51004e-21 18.6295 120.307)
(-1.3407e-20 19.6932 119.15)
(-1.45052e-20 21.7335 117.434)
(-1.24393e-20 24.2498 114.245)
(-9.26445e-21 29.4886 106.617)
(-6.14379e-21 33.3051 92.0094)
(-1.98334e-21 8.07742 67.3852)
(-7.9199e-26 -35.9169 158.029)
(1.16679e-25 -78.375 130.712)
(3.55404e-25 -52.6906 138.869)
(5.995e-25 -52.5192 134.858)
(7.88705e-25 -44.0038 134.903)
(1.00663e-24 -39.5688 133.334)
(1.78063e-24 -34.4868 132.147)
(3.63052e-24 -30.4832 130.616)
(4.75632e-24 -26.8702 128.975)
(-1.71427e-24 -23.8853 127.136)
(-2.38555e-23 -21.4548 125.182)
(-5.49982e-23 -19.6905 123.249)
(-6.63532e-23 -18.7023 121.57)
(-6.23085e-23 -18.6363 120.292)
(-1.97875e-22 -19.7014 119.131)
(-7.60504e-22 -21.7427 117.411)
(-1.77386e-21 -24.259 114.218)
(-2.56339e-21 -29.4964 106.589)
(-2.23723e-21 -33.3104 91.9884)
(-8.44044e-22 -8.07546 67.3793)
(4.19778e-25 -109.353 255.484)
(5.62906e-26 -148.463 226.885)
(-5.42234e-25 -108.237 229.855)
(-1.31117e-24 -113.861 215.043)
(-2.17967e-24 -97.8079 209.555)
(-2.50899e-24 -92.7788 200.239)
(-1.5299e-24 -83.6997 192.993)
(-7.00744e-25 -77.2281 185.129)
(-5.24035e-24 -70.4246 177.759)
(-1.81338e-23 -64.5265 170.426)
(-3.4966e-23 -58.9869 163.337)
(-7.71111e-23 -53.8661 156.194)
(-2.43176e-22 -48.5906 148.158)
(-4.88537e-22 -42.2587 137.356)
(2.96997e-22 -33.7279 121.143)
(5.27059e-21 -22.2112 97.3537)
(1.77782e-20 -8.57696 65.7254)
(3.49517e-20 3.97622 28.8833)
(4.50445e-20 12.7575 -3.14427)
(3.40111e-20 12.8453 -19.6767)
(-1.59803e-24 -134.24 274.831)
(-1.29537e-25 -158.799 248.401)
(1.95097e-24 -122.729 246.764)
(4.22895e-24 -130.692 226.337)
(6.97175e-24 -112.4 219.066)
(1.12908e-23 -110.203 205.007)
(1.88055e-23 -100.371 195.351)
(2.84692e-23 -95.3537 184.043)
(3.12996e-23 -88.7165 174.141)
(1.24785e-23 -83.6918 164.139)
(-2.02579e-23 -78.6839 154.848)
(-1.04945e-23 -74.3397 145.601)
(7.20924e-23 -69.5598 135.459)
(1.68755e-22 -63.0315 121.745)
(7.80451e-22 -52.2963 100.86)
(4.47041e-21 -35.2209 68.5314)
(1.2521e-20 -6.54694 19.4003)
(1.11256e-20 24.2141 -44.6102)
(3.67372e-20 31.6663 -41.8772)
(5.79256e-20 25.8016 -55.8829)
(6.62897e-24 -142.698 278.19)
(1.61178e-24 -163.327 253.833)
(-6.32144e-24 -130.3 249.382)
(-1.60038e-23 -140.728 226.07)
(-2.76142e-23 -120.589 218.975)
(-4.08233e-23 -121.692 201.992)
(-5.30279e-23 -110.705 191.913)
(-6.56225e-23 -107.126 178.728)
(-9.57124e-23 -100.338 167.736)