/*--------------------------------*- C++ -*----------------------------------*\
| =========                 |                                                 |
| \\      /  F ield         | OpenFOAM: The Open Source CFD Toolbox           |
|  \\    /   O peration     | Version:  4.1                                   |
|   \\  /    A nd           | Web:      www.OpenFOAM.org                      |
|    \\/     M anipulation  |                                                 |
\*---------------------------------------------------------------------------*/
FoamFile
{
    version     2.0;
    format      ascii;
    class       volScalarField;
    location    "19";
    object      p;
}
// * * * * * * * * * * * * * * * * * * * * * * * * * * * * * * * * * * * * * //

dimensions      [0 2 -2 0 0 0 0];

internalField   nonuniform List<scalar> 
1280
(
0.909958
-0.505864
0.130827
0.541842
3.2291
3.74819
3.35186
3.54468
4.4349
4.69697
3.79917
2.61796
2.73684
-0.451146
-2.71689
-3.04592
-7.7581
-10.8445
-5.93086
-18.0966
-10.8886
8.36963
28.0128
31.601
30.3467
33.446
-18.2121
28.1755
28.8216
28.2414
27.9593
27.3491
26.4445
25.2595
24.3671
23.8882
25.4482
27.8978
32.4272
31.8139
-14.1387
25.0832
34.0849
37.6019
53.302
53.6453
54.459
55.2258
57.1476
56.0884
56.2659
58.514
51.0425
46.5508
46.606
54.4621
26.7723
21.5911
8.0333
-24.4902
32.9492
36.2323
32.5721
31.6183
31.321
33.4478
35.9944
38.9197
41.5576
44.064
46.0669
47.8698
50.3482
34.9664
74.9523
72.0876
73.1819
70.2704
50.1369
28.9011
18.9314
32.8559
31.1793
29.546
34.4877
34.2274
32.2985
34.8994
32.2719
32.1223
32.8866
28.4092
27.25
26.857
26.7272
25.4757
16.1149
14.0394
8.98209
3.30288
0.231681
0.978077
-0.16059
0.0714589
-0.269022
-0.0644267
0.218629
1.65616
3.29929
10.4786
4.05603
3.49793
-0.742275
-11.2026
-22.6852
-19.8187
-9.4422
-1.41863
7.50625
0.18472
2.10584
-0.191073
0.169661
-0.291897
0.386454
1.13814
3.86738
6.56408
17.2516
7.55292
2.17362
-1.79803
-21.3829
-27.6291
-22.8177
-2.12674
7.5478
16.9402
0.337504
2.76387
0.0337319
0.58012
-0.0411685
0.780272
1.48892
4.57461
6.72572
15.325
11.355
4.44472
-2.70059
-29.2347
-25.3717
-25.7787
1.35078
12.4928
25.1075
0.246792
3.07189
0.0804947
0.805455
0.0643924
1.02074
1.7278
5.07651
7.36399
14.188
12.8241
4.85743
-2.27944
-27.2769
-23.9354
-29.9453
2.30324
16.2959
33.493
0.00690778
2.91817
-0.0290517
0.847333
0.0713711
1.17312
1.94449
5.47156
7.99244
14.0405
13.8252
5.95332
-0.769252
-22.4742
-25.2599
-31.6085
3.07522
20.078
40.5338
-0.375354
2.35628
-0.229145
0.775486
0.0285816
1.22218
2.02418
5.5677
8.05267
13.6843
14.1981
6.69592
1.27246
-16.0007
-28.0675
-31.6896
3.42036
23.7032
47.6515
-0.773315
1.60546
-0.537325
0.59117
-0.0781715
1.16244
1.97373
5.43472
7.77418
13.0865
14.2817
7.4129
3.72092
-9.28787
-28.8227
-29.3938
3.18211
24.8526
52.0696
-1.0817
1.00792
-0.905623
0.321906
-0.240366
1.01406
1.82047
5.11833
7.24139
12.054
13.9916
8.00507
6.48381
-3.35928
-27.9249
-24.5302
2.45695
25.1403
60.0945
-1.38516
0.595028
-1.29762
-0.0029722
-0.442193
0.795337
1.57184
4.61398
6.42975
10.3591
13.252
8.57686
9.63436
2.3212
-23.6172
-20.3442
-0.262028
19.9753
76.2744
-1.69423
0.114013
-1.70301
-0.373993
-0.674779
0.521937
1.2405
3.93639
5.36721
7.91464
11.8559
9.05608
12.9747
8.38012
-11.145
-10.904
1.06412
20.2412
74.0339
-1.95424
-0.495966
-2.08647
-0.778112
-0.923535
0.215206
0.852109
3.12758
4.147
4.90821
9.78201
9.46711
16.2438
12.3137
-1.71315
-2.2053
1.20915
10.9401
63.4836
-2.15211
-1.103
-2.40724
-1.18265
-1.17062
-0.104141
0.435139
2.24105
2.88738
1.73462
7.19579
9.93163
20.1392
15.8368
5.31474
1.18636
0.331742
16.7741
74.1785
-2.19614
-1.5726
-2.62224
-1.5324
-1.38534
-0.405275
0.0282124
1.34846
1.71814
-1.29584
4.17345
10.1441
23.5821
17.741
11.2061
6.10779
0.68516
-1.5549
13.3551
-2.08405
-1.88153
-2.71793
-1.80207
-1.55753
-0.675455
-0.34542
0.501707
0.691864
-4.09436
0.870105
9.5942
23.9656
16.874
13.1058
7.04906
-6.33041
-30.2728
-23.5954
-1.83063
-1.99907
-2.65142
-1.92995
-1.62951
-0.859815
-0.631029
-0.21146
-0.0483178
-6.26048
-2.35961
8.5166
21.5776
14.4879
12.072
6.37646
-6.11552
-21.9437
-21.506
-1.52848
-1.99306
-2.48875
-1.96602
-1.65287
-0.999732
-0.845665
-0.781745
-0.579021
-7.49205
-5.0477
7.09287
17.5961
11.9757
10.1955
5.12937
-7.29472
-20.5027
-22.4171
-1.13101
-1.76637
-2.10072
-1.73802
-1.44485
-0.931963
-0.868091
-1.06362
-0.609762
-7.02388
-6.69506
5.56424
13.2318
10.0821
7.77399
3.69812
-5.85303
-15.7944
-13.8994
-0.858079
-1.58541
-1.78137
-1.58556
-1.35376
-0.958036
-0.886602
-1.20851
-0.870572
-6.1787
-7.72383
4.229
9.66511
8.23859
4.82965
2.19139
-2.87811
-8.58394
-7.28511
-0.353951
-0.879786
-0.925688
-0.754579
-0.577888
-0.381026
-0.482284
-0.863684
0.011772
-2.70818
-9.27907
2.7562
7.32645
6.40942
2.75746
1.13567
-0.897285
-3.67552
-3.03932
-0.291929
-0.814733
-0.801175
-0.894988
-0.876455
-0.733538
-0.545914
-0.635408
-1.09297
-2.5787
-8.67465
-0.000188648
3.44881
2.99923
0.81606
0.0445127
-0.315691
-1.07084
-0.851519
146.205
145.766
143.165
141.302
138.438
135.599
132.664
130.164
127.508
125.086
122.923
121.016
119.406
118.059
116.988
116.066
115.41
114.817
114.603
113.631
91.1019
93.9604
94.375
95.7318
96.7783
97.8713
98.937
99.875
100.809
101.651
102.456
103.219
103.959
104.69
105.436
106.246
107.094
108.114
108.878
109.842
81.6202
83.6444
85.0891
86.468
87.6873
88.6394
89.6635
90.5255
91.3791
92.1754
92.9415
93.6938
94.4389
95.2071
95.9916
96.8683
97.7393
98.8259
99.6263
100.844
54.9706
57.6733
60.1419
62.2573
64.3917
66.1356
68.0497
69.7807
71.5215
73.1872
74.7903
76.3306
77.7901
79.1873
80.485
81.7505
82.8685
84.0878
84.9333
86.1882
34.312
36.1296
37.8025
38.8104
40.5206
41.7002
43.3541
44.8642
46.5847
48.3897
50.3358
52.4277
54.6477
56.9989
59.3947
61.855
64.1902
66.5885
68.4783
71.3912
9.71773
8.04419
7.83509
6.15201
5.72303
4.20233
3.30977
1.89514
0.791031
-0.259569
-0.929274
-1.173
-0.849494
0.180236
1.98474
4.62098
7.70241
11.1349
13.6127
17.7177
26.9273
21.0377
19.6467
15.8905
13.543
9.95066
6.9736
3.36913
0.103417
-3.25579
-6.39295
-9.43434
-12.2579
-14.7681
-16.75
-18.3298
-19.372
-19.2698
-19.0019
-16.2171
81.0984
75.1331
73.1318
68.7009
65.7542
61.4909
57.9073
53.7236
50.0313
46.3969
43.3463
40.7363
38.7981
37.507
36.9507
36.8026
36.4828
36.035
34.3734
31.3159
132.412
131.243
131.288
130.26
130.539
129.702
129.684
128.85
128.142
126.743
124.884
122.172
118.544
113.976
108.932
104.086
100.358
98.8899
98.5302
94.4906
115.007
116.444
117.445
117.702
119.141
119.413
120.643
121.187
122.018
122.541
123.063
123.48
123.819
123.999
123.891
123.296
122.344
121.133
120.917
120.258
101.411
103.369
105.284
105.67
107.997
108.582
110.362
111.33
112.549
113.45
114.186
114.703
115.074
115.445
116.064
117.083
118.485
120.053
121.234
122.288
73.6743
75.5488
78.179
78.3601
81.3676
81.9801
84.2653
85.6102
87.399
89.034
90.6926
92.3432
93.9637
95.5752
97.169
98.8308
100.49
102.367
103.874
105.796
45.1933
45.8653
48.8403
48.2441
51.51
51.5384
53.9815
55.0207
56.8964
58.4945
60.2766
62.1066
64.013
66.0292
68.1105
70.3317
72.5212
74.9758
76.9355
80.0199
22.054
20.3953
22.7294
20.4959
22.6738
20.9216
22.0858
21.2535
21.607
21.3595
21.4584
21.5988
22.0503
22.9245
24.1998
25.9488
27.8802
30.4989
32.4013
35.8286
26.3074
22.7992
24.2802
20.8636
21.8941
19.1366
19.0638
17.0788
16.1241
14.4624
13.0588
11.5373
10.2281
9.15156
8.35487
7.84581
7.63138
7.88045
8.09009
9.95735
52.4743
47.9409
49.4018
44.6783
45.6495
42.3846
42.0253
40.034
39.0197
37.5889
36.4576
35.3058
34.3159
33.4114
32.5796
31.5883
30.3432
29.3387
27.9648
28.3473
88.5034
84.0934
86.6882
80.2598
81.0028
76.8315
75.4948
72.8035
70.9314
68.8979
67.1737
65.6084
64.3017
63.2249
62.3407
61.5749
60.8373
59.7486
58.0302
56.2895
77.9315
71.6877
80.4616
74.1229
76.8884
74.2318
73.7669
72.0079
70.592
68.9048
67.2816
65.6802
64.2147
62.9386
61.9317
61.2282
60.9434
61.2021
61.5794
61.9271
85.911
63.7132
71.9393
61.0993
58.5269
52.1033
47.3668
42.3239
37.9768
34.1087
30.9503
28.5573
27.0332
26.4755
27.0551
28.7011
31.2463
35.254
39.6342
42.1598
774.216
691.477
642.415
586.256
537.359
490.222
446.441
405.142
366.328
329.709
295.108
262.32
231.13
201.445
173.26
145.786
119.202
97.5263
73.1195
37.4637
795.343
712.604
663.541
607.383
558.487
511.35
467.571
426.273
387.461
350.844
316.246
283.461
252.274
222.591
194.41
166.938
140.357
118.685
94.2827
58.6272
107.011
84.8128
93.0391
82.1994
79.6274
73.2046
68.469
63.4271
59.0811
55.2141
52.0566
49.6643
48.1405
47.5825
48.1612
49.8056
52.3484
56.3525
60.7297
63.2574
98.9926
92.7518
101.528
95.1925
97.9614
95.309
94.8487
93.0949
91.6845
90.0034
88.3865
86.7916
85.3324
84.0623
83.0608
82.3617
82.079
82.3401
82.7212
83.0751
109.536
105.133
107.733
101.312
102.062
97.8981
96.5697
93.8876
92.0256
90.0033
88.2914
86.7395
85.4471
84.3852
83.5162
82.7655
82.0413
80.9626
79.2586
77.5184
73.4947
68.9686
70.4344
65.7159
66.6926
63.433
63.0792
61.0936
60.085
58.6601
57.5348
56.3894
55.4058
54.5073
53.6803
52.6916
51.4412
50.4166
49.0149
49.376
47.2962
43.7876
45.2685
41.8505
42.879
40.1191
40.0436
38.0549
37.0957
35.428
34.0167
32.486
31.1669
30.0806
29.2744
28.7535
28.527
28.7691
28.9738
30.8371
42.9704
41.3065
43.637
41.4001
43.5732
41.8165
42.9758
42.138
42.4863
42.2328
42.3261
42.4614
42.9094
43.7819
45.0564
46.8047
48.7353
51.3486
53.2453
56.668
66.0855
66.7528
69.7262
69.1277
72.3919
72.4179
74.8596
75.8969
77.7715
79.3683
81.1497
82.9789
84.8851
86.9015
88.9832
91.205
93.3952
95.8505
97.8109
100.897
94.5531
96.427
99.0579
99.2391
102.247
102.86
105.146
106.491
108.28
109.915
111.574
113.225
114.845
116.457
118.051
119.714
121.374
123.252
124.759
126.682
122.313
124.269
126.184
126.568
128.893
129.475
131.252
132.217
133.433
134.332
135.068
135.589
135.968
136.353
136.987
138.016
139.422
140.989
142.168
143.226
135.89
137.335
138.343
138.608
140.055
140.337
141.578
142.136
142.983
143.523
144.063
144.499
144.855
145.04
144.921
144.305
143.332
142.112
141.898
141.247
153.51
152.359
152.413
151.397
151.685
150.855
150.842
150.008
149.297
147.891
146.019
143.289
139.637
135.041
129.972
125.11
121.374
119.897
119.538
115.509
102.428
96.4687
94.4684
90.0431
87.1006
82.8447
79.2693
75.0965
71.4155
67.7928
64.7513
62.1465
60.207
58.9053
58.3321
58.172
57.8561
57.3992
55.7233
52.6231
48.0979
42.1913
40.7831
37.01
34.6417
31.0277
28.0237
24.3893
21.088
17.6896
14.5122
11.4285
8.56418
6.01591
4.01187
2.44201
1.40232
1.50476
1.76319
4.53123
30.6098
28.9018
28.6735
26.9676
26.5158
24.9709
24.0546
22.6163
21.4913
20.4241
19.7451
19.4978
19.8243
20.8615
22.6757
25.3276
28.4188
31.8508
34.3271
38.4409
54.9629
56.7753
58.4523
59.4615
61.1751
62.3579
64.0166
65.532
67.2592
69.072
71.0271
73.1287
75.3584
77.7187
80.1217
82.5858
84.9239
87.3273
89.2222
92.1468
75.9147
78.6188
81.1097
83.2385
85.385
87.1374
89.0592
90.7961
92.5414
94.2097
95.8136
97.3532
98.8108
100.206
101.501
102.765
103.883
105.105
105.955
107.215
102.263
104.352
105.851
107.286
108.55
109.545
110.605
111.495
112.369
113.176
113.946
114.697
115.435
116.193
116.966
117.831
118.692
119.769
120.562
121.774
113.03
115.851
116.286
117.624
118.648
119.703
120.726
121.599
122.448
123.195
123.903
124.571
125.22
125.866
126.539
127.287
128.079
129.049
129.764
130.658
166.876
166.686
164.315
162.693
160.112
157.616
155.032
152.399
149.479
146.817
144.407
142.238
140.36
138.741
137.394
136.178
135.218
134.252
133.716
132.173
)
;

boundaryField
{
    outletWall
    {
        type            fixedValue;
        value           uniform 0;
    }
    fineWalls
    {
        type            zeroGradient;
    }
    fineFrontAndBack
    {
        type            zeroGradient;
    }
    fineplugLeft
    {
        type            cyclicAMI;
        value           nonuniform List<scalar> 
20
(
97.2676
98.1677
97.4328
97.4173
97.6305
98.4634
99.4991
100.814
102.282
103.93
105.717
107.771
109.766
115.509
115.168
116.82
119.362
120.135
118.287
114.786
)
;
    }
    fineplugRight
    {
        type            cyclicAMI;
        value           nonuniform List<scalar> 
20
(
112.328
114.22
113.916
114.498
115.206
116.605
118.191
120.072
122.102
124.338
126.667
129.158
131.989
141.38
141.083
142.507
144.79
145.506
143.376
139.281
)
;
    }
    inletOutletLeft
    {
        type            cyclicAMI;
        value           nonuniform List<scalar> 
20
(
97.2676
98.1677
97.4328
97.4173
97.6305
98.4634
99.4991
100.814
102.282
103.93
105.717
107.771
109.766
115.509
115.168
116.82
119.362
120.135
118.287
114.786
)
;
    }
    inletLeft
    {
        type            zeroGradient;
    }
    inletWallsLeft
    {
        type            zeroGradient;
    }
    inletFacesLeft
    {
        type            zeroGradient;
    }
    inletOutletRight
    {
        type            cyclicAMI;
        value           nonuniform List<scalar> 
20
(
112.328
114.22
113.916
114.498
115.206
116.605
118.191
120.072
122.102
124.338
126.667
129.158
131.989
141.38
141.083
142.507
144.79
145.506
143.376
139.281
)
;
    }
    inletRight
    {
        type            zeroGradient;
    }
    inletWallsRight
    {
        type            zeroGradient;
    }
    inletFacesRight
    {
        type            zeroGradient;
    }
}


// ************************************************************************* //
