/*--------------------------------*- C++ -*----------------------------------*\
| =========                 |                                                 |
| \\      /  F ield         | OpenFOAM: The Open Source CFD Toolbox           |
|  \\    /   O peration     | Version:  4.1                                   |
|   \\  /    A nd           | Web:      www.OpenFOAM.org                      |
|    \\/     M anipulation  |                                                 |
\*---------------------------------------------------------------------------*/
FoamFile
{
    version     2.0;
    format      ascii;
    class       surfaceScalarField;
    location    "19";
    object      phi;
}
// * * * * * * * * * * * * * * * * * * * * * * * * * * * * * * * * * * * * * //

dimensions      [0 3 -1 0 0 0 0];

internalField   nonuniform List<scalar> 
2360
(
-10078.1
-6307.18
-3770.95
-6307.18
-6307.18
-2017.7
-4289.47
-2017.7
-2017.7
-2017.71
2432.53
-4450.24
2432.53
2432.53
6824.14
-4391.61
6824.14
6824.13
10569.4
-3745.24
10569.4
10569.4
13627.6
-3058.23
13627.6
13627.6
14443.8
16132
17840.5
19362.7
20705.2
21917.1
16271.1
6798.44
17336.7
18329.4
19250
20097.2
20868.4
21559.7
22175.7
22741.4
23313.1
23962.2
24735
25592
26329.3
10909.2
15420.1
10909.2
10909.2
10909.2
2098.41
8810.84
2098.41
2098.4
2098.4
-3336.37
5434.76
-3336.37
-3336.37
-11082.4
7746.01
-11082.4
-11082.4
-11082.4
-20367.1
9284.74
-20367.1
-20367.1
-20367.1
-30469.3
10102.2
-29713.5
-28846.4
-28064.9
-27409.5
-26833.4
-26266.1
-25651.4
-24964.3
-24199.2
-23359
-22446.6
-21464
-20412.3
-23250.6
3972.49
-22041.5
-20702.5
-19184.2
-17476.6
-15777.9
-14941.8
-14941.8
-14941.8
-11367.4
-3574.42
-11367.4
-11367.4
-7635.87
-3731.5
-7635.87
-7635.87
-3305.65
-4330.23
-3305.65
-3305.65
1361.12
-4666.77
1361.12
1361.12
1361.12
6064.31
-4703.19
6064.3
6064.31
11064
-4999.74
-1025.91
-8079.86
-1729.81
1590.83
-1862.54
10262.5
-1949.95
14463.1
-1974.52
18227.5
-1942.07
21091.5
-1870.22
23145.4
-1810.54
23916.3
-1672.26
22571.6
-1894.53
8100.87
-4154.17
-17090.6
-6162.86
-21310.7
-5698.48
-25196.2
-2165.71
-18281.5
1105.04
10906.8
2815.18
26604.6
4446.88
29567.8
5424.11
26484.6
15780.9
-671.943
-6812.68
-1587.32
2506.21
-1840.82
10516
-1953.22
14575.5
-2003.58
18277.8
-1993.68
21081.6
-1967.52
23119.3
-1993.22
23942
-1970.74
22549.2
-2599.4
8729.53
-5215.78
-14474.2
-6831.18
-19695.3
-6500.55
-25526.8
-2907.35
-21874.7
738.616
7260.87
2361.97
24981.2
4019.87
27909.9
5003.38
25501
16081.1
-481.884
-5498.78
-1457.88
3482.2
-1792.15
10850.3
-1958.97
14742.3
-2039.98
18358.8
-2066.4
21108
-2088.92
23141.8
-2220.78
24073.9
-2309.81
22638.2
-3151.31
9571.03
-5110.88
-12514.7
-6368.03
-18438.2
-6764.6
-25130.3
-4692.87
-23946.4
-335.794
2903.8
1723.66
22921.8
3261.37
26372.2
4381
24381.4
15795.4
-231.183
-4089.67
-1317.17
4568.18
-1733.09
11266.2
-1963.75
14973
-2079.15
18474.3
-2143.93
21172.8
-2216.03
23213.9
-2434.51
24292.3
-2682.9
22886.6
-3531.73
10419.9
-4980.55
-11065.9
-6213.42
-17205.3
-7298.37
-24045.3
-6602.66
-24642.1
-1850.1
-1848.76
672.938
20398.7
2050.68
24994.4
3456.06
22976
14921.2
-36.5132
-2673.69
-1171.7
5703.38
-1675.38
11769.9
-1977.43
15275.1
-2127.57
18624.4
-2229.75
21275
-2350.99
23335.1
-2635.51
24576.9
-3036.69
23287.8
-3825.31
11208.5
-4856.96
-10034.2
-6066.26
-15996
-7728.17
-22383.4
-8158.51
-24211.8
-3948.84
-6058.44
-975.88
17425.8
548.755
23469.8
2154.23
21370.6
13343.9
89.5253
-1319.85
-1034.98
6827.88
-1635.58
12370.5
-2007.83
15647.3
-2190.47
18807
-2324.65
21409.2
-2489.92
23500.4
-2824.56
24911.5
-3349.13
23812.3
-4133.73
11993.1
-4911.37
-9256.58
-6023.38
-14884
-7990.23
-20416.5
-9350.03
-22851.9
-6364.4
-9044.07
-3128.05
14189.4
-1314.37
21656.1
584.903
19471.3
10354.4
55.1277
-2.88241
-976.654
7859.66
-1629.67
13023.5
-2057.81
16075.5
-2271.26
19020.5
-2428.05
21566
-2628.06
23700.4
-3000.15
25283.6
-3622.39
24434.6
-4485.58
12856.2
-5107.39
-8634.77
-5938.5
-14052.9
-7914.26
-18440.8
-10122.5
-20643.7
-8662.61
-10504
-5561.35
11088.2
-3464.46
19559.2
-1407.7
17414.5
12919.2
-124.28
1300.42
-1037.17
8772.55
-1664.7
13651
-2126.56
16537.3
-2371.05
19265
-2540.94
21735.9
-2762.68
23922.2
-3159.17
25680.1
-3857.72
25133.1
-4861.72
13860.2
-5397.69
-8098.8
-5860.62
-13589.9
-7640.76
-16660.6
-10563.5
-17720.9
-10510.5
-10557
-7420.09
7997.76
-5049.46
17188.6
-5060.44
17425.5
17960.9
-368.975
2532.11
-1211.51
9615.09
-1745.92
14185.4
-2213.75
17005.1
-2487.96
19539.2
-2665.43
21913.3
-2893.05
24149.8
-3298.41
26085.4
-4051.11
25885.8
-5222.62
15031.8
-5729.72
-7591.7
-5923.61
-13396
-7539.11
-15045.1
-11081.9
-14178.2
-12766.5
-8872.41
-10581.8
5813.07
-8860.62
15467.5
-9583.6
18148.5
17662.1
-672.944
3742.07
-1482.01
10424.2
-1887.99
14591.4
-2324.38
17441.5
-2618.65
19833.4
-2802.95
22097.6
-3020.51
24367.3
-3415.52
26480.5
-4190.97
26661.3
-5488.71
16329.5
-5968.56
-7111.85
-6082.03
-13282.6
-7780.91
-13346.3
-11817.4
-10141.7
-15462
-5227.76
-15508.2
5859.24
-14092.3
14051.6
-12619.7
16675.8
12788.4
-1127.09
4871.02
-1850.84
11147.9
-2113.41
14854
-2469.87
17798
-2761.58
20125.2
-2952.73
22288.8
-3148.18
24562.8
-3510.88
26843.2
-4267.9
27418.3
-5596.28
17657.9
-5986.92
-6721.21
-6109.44
-13160
-8073.34
-11382.4
-11993.1
-6221.91
-15399.3
-1821.59
-16352.3
6812.22
-15344.9
13044.2
-12236
13567
5987.18
-1834.07
5730.74
-2332.08
11645.9
-2435.43
14957.3
-2664.39
18026.9
-2919.43
20380.2
-3112.3
22481.7
-3279.74
24730.2
-3589.36
27152.8
-4284.67
28113.6
-5546.93
18920.1
-5792.41
-6475.73
-5869.49
-13082.9
-8174.01
-9077.86
-12374.1
-2021.83
-15300.3
1104.61
-16121.9
7633.88
-15666
12588.2
-13555.4
11456.4
1242.58
-2720.59
6276.18
-2915.52
11840.8
-2848.41
14890.2
-2919.49
18098
-3099.35
20560.1
-3279.6
22661.9
-3418.61
24869.3
-3660.8
27395
-4252.99
28705.8
-5370.58
20037.7
-5455.55
-6390.76
-5321.27
-13217.2
-7352.45
-7046.68
-11542
2167.74
-14451.8
4014.37
-15495.3
8677.38
-15832.9
12925.8
-16375
11998.5
287.676
-3646.5
6545.45
-3563.55
11757.9
-3334.78
14661.5
-3240.49
18003.7
-3311.52
20631.1
-3455.7
22806.1
-3566.5
24980.1
-3735.65
27564.1
-4188.46
29158.6
-5066.89
20916.2
-4955.31
-6502.34
-4517.4
-13655.1
-5240.14
-6323.94
-8118.43
5046.03
-10675.8
6571.78
-11643
9644.5
-10706.6
11989.4
-7861.38
9153.31
-775.253
-4525.94
6601.97
-4234.05
11466
-3873.12
14300.5
-3624.22
17754.8
-3564.43
20571.3
-3644.52
22886.2
-3725.31
25060.8
-3827.51
27666.3
-4115.31
29446.4
-4635.41
21436.3
-4258.23
-6879.52
-3678.12
-14235.2
-3242.02
-6760.04
-4299.55
6103.56
-5901.92
8174.16
-6727.55
10470.1
-5650.58
10912.4
-1590.95
5093.68
-5424.44
-5320.12
6513.82
-4898.66
11044.5
-4444.23
13846.1
-4063.61
17374.2
-3867.53
20375.2
-3858.23
22876.9
-3900.23
25102.8
-3945.6
27711.7
-4065.66
29566.5
-4156.57
21527.2
-3483.34
-7552.74
-2831.45
-14887.1
-1907.23
-7684.26
-1536.28
5732.6
-1661.67
8299.56
-1588.78
10397.2
-261.896
9585.56
2428.19
2403.6
-6741.48
-6037.02
6320.25
-5537.06
10544.6
-5022.97
13332
-4537.04
16888.3
-4211.21
20049.4
-4094.69
22760.4
-4090.94
25099.1
-4102.65
27723.4
-4065.72
29529.6
-3690.68
21152.1
-2813.14
-8430.28
-2096.96
-15603.3
-1082.52
-8698.7
33.4786
4616.6
1168.73
7164.31
2655.27
8910.69
4589.47
7651.36
5604.28
1388.79
-5528.81
-6715.95
6067.61
-6176.67
10005.3
-5620.83
12776.2
-5057.59
16325
-4624.36
19616.2
-4399.17
22535.2
-4336.15
25036.1
-4314.43
27701.7
-4132.82
29348
-3258.55
20277.8
-2263.89
-9424.94
-1562.58
-16304.6
-597.13
-9664.15
862.332
3157.14
2282.82
5743.82
4159.66
7033.86
5979.18
5831.84
6176.12
1191.86
-3802.93
-7290.12
5752.2
-6713.11
9428.31
-6132.46
12195.5
-5504.49
15697.1
-4975.24
19086.9
-4644.4
22204.3
-4536.24
24927.9
-4529.87
27695.3
-4216.64
29034.7
-2763.29
18824.5
-1747.1
-10441.1
-1152.33
-16899.4
-342.189
-10474.3
1198.94
1616.02
2436.28
4506.47
4012.16
5457.98
5353.28
4490.72
5422.46
1122.67
-2669.94
-8239.13
-7609.2
-7022.57
-6365.3
-5769.34
-5337.37
-5148.02
-5067.31
-4487.53
-2727.32
-1354.87
-854.749
-440.568
665.352
1832.18
2956.59
3745.69
4106.56
18.238
-834.389
265.656
-1935.61
485.354
-1928.18
642.372
-1679.25
761.686
-1461.82
858.317
-1308.48
897.777
-1191.91
929.856
-1097.66
948.047
-1010.94
953.123
-925.599
946.252
-840.348
929.534
-754.466
904.716
-666.48
869.184
-580.493
814.587
-511.038
728.227
-485.322
601.156
-522.043
432.941
-604.589
235.938
-660.022
-501.317
-46.613
-787.765
-43.3094
-1938.9
9.53799
-1981.02
56.2859
-1725.99
103.507
-1509.03
153.367
-1358.33
212.627
-1251.16
272.142
-1157.16
331.043
-1069.83
390.801
-985.346
453.35
-902.888
520.671
-821.776
594.761
-740.564
672.398
-658.122
738.941
-577.575
761.6
-507.975
702.182
-462.624
535.66
-438.065
288.059
-412.42
-213.258
-28.9468
-758.807
-11.7847
-1956.06
71.6374
-2064.43
150.855
-1805.2
225.517
-1583.69
299.926
-1432.73
371.904
-1323.13
439.137
-1224.38
498.194
-1128.88
546.823
-1033.96
583.94
-939.998
609.633
-847.46
625.917
-756.843
635.393
-667.589
637.096
-579.273
619.489
-490.363
561.453
-404.585
438.434
-315.043
238.323
-212.303
25.0652
147.001
-905.802
204.357
-2013.41
237.46
-2097.53
272.335
-1840.07
323.277
-1634.62
384.151
-1493.6
448.666
-1387.64
510.33
-1286.04
564.999
-1183.54
608.712
-1077.67
638.262
-969.543
651.274
-860.467
646.447
-752.012
623.639
-644.775
583.647
-539.277
525.874
-432.587
445.76
-324.467
329.835
-199.113
169.358
-51.8181
194.423
373.074
-1278.87
505.243
-2145.58
502.149
-2094.43
515.552
-1853.46
575.867
-1694.93
657.687
-1575.41
747.654
-1477.6
834.108
-1372.49
910.021
-1259.45
968.384
-1136.03
1005.38
-1006.53
1018.03
-873.113
1003.77
-737.752
959.917
-600.916
884.16
-463.515
774.352
-322.774
632.288
-182.399
445.875
-12.6951
224.136
169.927
418.559
454.384
-1733.25
535.367
-2226.56
476.258
-2035.32
474.562
-1851.77
536.839
-1757.21
625.76
-1664.33
728.146
-1579.99
824.866
-1469.21
904.772
-1339.36
958.949
-1190.21
986.995
-1034.58
987.105
-873.224
955.041
-705.687
883.909
-529.785
766.641
-346.246
596.164
-152.298
399.399
14.3672
246.527
140.179
90.4385
326.018
508.998
233.031
-1966.28
123.865
-2117.39
7.84819
-1919.3
-44.8671
-1799.05
-65.4661
-1736.61
-72.2716
-1657.52
-74.0013
-1578.26
-85.6172
-1457.59
-115.299
-1309.67
-162.703
-1142.8
-221.612
-975.667
-289.777
-805.058
-366.016
-629.444
-447.333
-448.466
-521.191
-272.383
-564.059
-109.424
-567.556
17.8694
-537.386
110.014
-384.079
172.715
124.919
-94.9648
-1871.32
-249.141
-1963.22
-377.962
-1790.49
-509.132
-1667.89
-646.873
-1598.87
-789.595
-1514.81
-937.505
-1430.35
-1090.44
-1304.67
-1248.01
-1152.1
-1407.39
-983.423
-1566.8
-816.252
-1721.81
-650.054
-1861.88
-489.372
-1966.9
-343.448
-2005.57
-233.712
-1926.39
-188.599
-1689.86
-218.658
-1261.15
-318.699
-621.074
-467.355
-496.155
-201.666
-1669.65
-265.662
-1899.22
-360.317
-1695.83
-505.604
-1522.6
-668.175
-1436.3
-854.23
-1328.75
-1048.48
-1236.09
-1236.5
-1116.65
-1402.64
-985.966
-1543.19
-842.869
-1657.47
-701.963
-1738.26
-569.262
-1770.62
-457.015
-1734.51
-379.558
-1613.64
-354.578
-1394.12
-408.115
-1060.24
-552.537
-629.133
-749.806
-224.492
-871.992
-720.647
-44.7288
-1624.92
-1.58176
-1942.37
30.8646
-1728.28
30.9534
-1522.69
21.0884
-1426.43
-3.89615
-1303.76
-34.0523
-1205.94
-54.8202
-1095.88
-49.3346
-991.453
-8.09855
-884.107
69.5513
-779.615
180.919
-680.632
316.95
-593.049
463.467
-526.078
598.747
-489.859
686.522
-495.891
675.015
-541.03
528.941
-603.733
270.462
-613.514
-450.185
44.8364
-1669.76
97.0328
-1994.56
151.583
-1782.82
204.146
-1575.25
259.61
-1481.9
316.11
-1360.26
374.218
-1264.04
437.457
-1159.12
509.176
-1063.17
595.046
-969.974
695.642
-880.211
807.648
-792.635
920.989
-706.39
1016.63
-621.718
1067.79
-541.022
1041.37
-469.467
913.045
-412.71
672.765
-363.454
354.206
-294.96
-95.9785
117.307
-1787.07
152.869
-2030.13
199.256
-1829.22
256.886
-1632.88
324.334
-1549.35
388.415
-1424.35
456.16
-1331.79
523.227
-1226.19
590.205
-1130.15
653.273
-1033.05
710.123
-937.066
757.354
-839.872
791.647
-740.687
808.817
-638.893
802.77
-534.98
761.122
-427.824
667.018
-318.609
500.225
-196.666
264.794
-59.5368
168.815
156.518
-1943.59
155.29
-2028.9
197.852
-1871.78
254.996
-1690.03
325.185
-1619.54
390.426
-1489.59
463.525
-1404.89
537.591
-1300.26
618.062
-1210.63
699.401
-1114.39
776.813
-1014.48
839.253
-902.312
875.149
-776.586
875.208
-638.954
835.406
-495.181
753.264
-345.683
626.919
-192.268
448.138
-17.8901
228.102
160.493
396.917
128.848
-2072.44
91.2156
-1991.27
121.21
-1901.78
162.257
-1731.08
214.587
-1671.88
267.115
-1542.12
330.877
-1468.66
399.959
-1369.34
479.433
-1290.11
561.99
-1196.95
639.784
-1092.28
695.509
-958.041
715.369
-796.45
695.903
-619.493
641.223
-440.506
546.616
-251.084
380.519
-26.1783
245.946
116.673
122.975
283.456
519.892
24.8051
-2097.25
-38.6306
-1927.84
-57.2381
-1883.17
-71.8935
-1716.43
-83.6916
-1660.08
-90.2128
-1535.61
-93.1874
-1465.69
-89.4249
-1373.11
-80.7509
-1298.78
-69.5651
-1208.14
-63.4877
-1098.36
-70.5242
-951.011
-89.4688
-777.514
-108.851
-600.119
-122.957
-426.413
-133.699
-240.371
-69.1012
-90.8126
-81.6408
129.194
-126.621
328.427
393.271
-46.968
-2050.29
-109.37
-1865.44
-160.56
-1831.99
-213.367
-1663.63
-269.502
-1603.95
-321.734
-1483.38
-380.2
-1407.23
-437.351
-1315.96
-498.732
-1237.41
-558.662
-1148.21
-613.387
-1043.64
-651.029
-913.373
-661.029
-767.515
-642.774
-618.379
-612.449
-456.74
-590.426
-262.399
-631.665
-49.5743
-644.622
142.15
-534.648
218.45
-141.377
-57.9977
-1992.29
-130.262
-1793.18
-185.59
-1776.66
-237.571
-1611.65
-290.264
-1551.26
-335.784
-1437.86
-384.576
-1358.44
-431.493
-1269.05
-479.552
-1189.35
-521.077
-1106.69
-544.675
-1020.04
-534.509
-923.541
-485.153
-816.873
-406.216
-697.317
-308.83
-554.13
-196.009
-375.224
-81.1021
-164.488
-1.39824
62.4403
56.4432
160.598
-84.9339
-143.754
-1848.54
-312.246
-1624.69
-440.356
-1648.55
-533.575
-1518.43
-616.143
-1468.69
-671.102
-1382.9
-713.912
-1315.63
-739.797
-1243.17
-753.232
-1175.92
-750.744
-1109.18
-727.654
-1043.13
-677.265
-973.932
-596.497
-897.642
-484.51
-809.306
-335.794
-702.848
-142.745
-568.274
79.5447
-386.783
268.585
-126.603
308.524
120.655
223.59
-195.967
-1652.57
-430.463
-1390.2
-679.161
-1399.86
-883.849
-1313.74
-1078.71
-1273.83
-1239.4
-1222.21
-1376.3
-1178.73
-1484.72
-1134.74
-1568.04
-1092.6
-1626.39
-1050.83
-1660.38
-1009.15
-1667.93
-966.38
-1644.34
-921.233
-1581.88
-871.764
-1470.35
-814.381
-1295
-743.626
-1034.29
-647.486
-665.129
-495.769
-274.43
-270.046
-50.8396
-677.572
-1092.77
-1517.63
-1856.37
-2155.2
-2402.42
-2606.15
-2765.89
-2883.49
-2959.32
-2993.47
-2984.85
-2931.09
-2827.85
-2667.23
-2435.86
-2108.34
-1629.11
-924.16
-677.596
1652.59
-1092.82
1390.22
-1517.7
1399.88
-1856.46
1313.77
-2155.32
1273.85
-2402.56
1222.24
-2606.31
1178.76
-2766.08
1134.77
-2883.71
1092.63
-2959.56
1050.85
-2993.73
1009.17
-2985.13
966.398
-2931.38
921.251
-2828.17
871.789
-2667.58
814.417
-2436.26
743.674
-2108.77
647.512
-1629.45
495.68
-924.259
269.808
50.7407
-195.979
1848.57
-430.48
1624.72
-679.182
1648.58
-883.864
1518.45
-1078.72
1468.71
-1239.39
1382.91
-1376.26
1315.63
-1484.65
1243.16
-1567.92
1175.9
-1626.23
1109.16
-1660.16
1043.1
-1667.66
973.899
-1644.03
897.615
-1581.54
809.306
-1470.04
702.914
-1294.81
568.447
-1034.38
387.076
-665.569
126.871
-274.908
-120.853
-224.168
-143.711
1992.28
-312.152
1793.16
-440.213
1776.64
-533.371
1611.61
-615.875
1551.21
-670.76
1437.79
-713.491
1358.36
-739.286
1268.95
-752.625
1189.24
-750.038
1106.57
-726.858
1019.92
-676.403
923.443
-595.604
816.816
-483.607
697.308
-334.891
554.197
-141.9
375.456
80.3631
164.811
269.845
-62.6128
309.82
-160.829
85.6525
-57.9143
2050.2
-130.125
1865.37
-185.388
1831.9
-237.314
1663.53
-289.952
1603.85
-335.428
1483.27
-384.181
1407.11
-431.072
1315.84
-479.111
1237.28
-520.614
1148.07
-544.178
1043.48
-533.982
913.247
-484.641
767.475
-405.766
618.433
-308.413
456.843
-195.545
262.587
-80.9115
50.1769
-2.48958
-141.036
54.1071
-217.428
139.76
-47.0072
2097.2
-109.395
1927.76
-160.603
1883.11
-213.454
1716.38
-269.637
1660.03
-321.94
1535.57
-380.494
1465.66
-437.753
1373.1
-499.261
1298.78
-559.322
1208.13
-614.154
1098.32
-651.826
950.918
-661.773
777.422
-643.403
600.063
-612.898
426.338
-590.447
240.136
-630.052
89.7811
-642.364
-128.725
-531.753
-328.039
-391.993
24.6331
2072.57
-38.8625
1991.25
-57.5775
1901.83
-72.3531
1731.16
-84.2821
1671.96
-90.9343
1542.22
-94.0535
1468.78
-90.4371
1369.48
-81.9208
1290.27
-70.8816
1197.09
-64.9216
1092.36
-72.0032
957.999
-90.8963
796.314
-110.173
619.339
-124.141
440.306
-134.829
250.822
-71.6796
26.6286
-83.7013
-116.705
-127.98
-283.761
-519.974
128.776
1943.79
91.0417
2028.99
120.961
1871.91
161.938
1690.18
214.191
1619.7
266.654
1489.76
330.353
1405.08
399.38
1300.46
478.8
1210.85
561.287
1114.61
638.965
1014.68
694.514
902.45
714.185
776.643
694.593
638.93
639.818
495.08
545.13
345.509
379.729
192.029
245.528
17.496
122.668
-160.901
-397.306
156.612
1787.18
155.292
2030.31
197.818
1829.38
254.948
1633.05
325.131
1549.52
390.37
1424.52
463.48
1331.97
537.562
1226.37
618.06
1130.35
699.431
1033.23
776.872
937.236
839.317
840.005
875.193
740.767
875.217
638.905
835.375
534.922
753.192
427.692
626.825
318.396
447.986
196.334
227.994
59.0898
-169.312
117.484
1669.7
152.975
1994.82
199.319
1783.03
256.929
1575.44
324.376
1482.07
388.436
1360.46
456.158
1264.25
523.192
1159.34
590.142
1063.4
653.179
970.197
709.979
880.435
757.124
792.859
791.276
706.615
808.244
621.937
802.016
541.149
760.292
469.415
666.241
412.447
499.611
362.963
264.434
294.266
95.1227
45.0281
1624.67
97.1957
1942.65
151.717
1728.51
204.338
1522.82
259.891
1426.52
316.516
1303.84
374.77
1206
438.143
1095.97
509.925
991.614
595.727
884.396
696.082
780.08
807.63
681.312
920.401
593.844
1015.58
526.755
1066.54
490.189
1040.22
495.735
912.184
540.486
672.286
602.861
354.041
612.511
449.164
-44.245
1668.92
-0.840537
1899.24
31.9853
1695.69
32.5415
1522.26
23.1661
1435.9
-1.26765
1328.27
-30.8347
1235.57
-51.0043
1116.14
-44.9721
985.582
-3.24749
842.671
74.864
701.969
186.636
569.539
322.993
457.487
469.772
379.976
604.989
354.972
692.082
408.642
679.161
553.407
531.336
750.686
271.415
872.432
720.578
-201.476
1870.39
-265.083
1962.85
-359.394
1790
-504.413
1667.28
-666.734
1598.22
-852.566
1514.1
-1046.55
1429.55
-1234.23
1303.81
-1399.91
1151.27
-1539.89
982.649
-1653.43
815.509
-1733.26
649.373
-1764.6
488.827
-1727.64
343.022
-1606.16
233.487
-1386.62
189.103
-1053.55
220.339
-624.231
321.368
-222.171
470.373
498.407
-95.9559
1966.35
-250.097
2116.99
-379.033
1918.94
-510.597
1798.84
-648.852
1736.47
-792.175
1657.43
-940.738
1578.12
-1094.29
1457.36
-1252.4
1309.38
-1412.23
1142.48
-1572.04
975.311
-1727.36
804.695
-1867.61
629.077
-1972.54
447.955
-2010.63
271.573
-1930.11
108.592
-1691.15
-18.6268
-1260.98
-108.8
-620.007
-170.6
-121.6
231.697
1734.65
121.971
2226.72
5.71757
2035.19
-47.3505
1851.91
-68.4534
1757.58
-75.8201
1664.79
-78.1624
1580.46
-90.3667
1469.56
-120.536
1339.55
-168.31
1190.26
-227.543
1034.55
-295.933
873.086
-372.303
705.449
-453.773
529.428
-527.906
345.709
-570.987
151.674
-574.886
-14.7253
-543.481
-140.203
-387.597
-326.484
-509.196
453.939
1280.71
534.335
2146.32
474.912
2094.61
473.071
1853.75
535.244
1695.41
624.087
1575.95
726.38
1478.17
822.946
1373
902.635
1259.86
956.576
1136.32
984.435
1006.69
984.384
873.138
952.18
737.653
880.92
600.688
763.468
463.161
592.838
322.306
396.365
181.748
244.615
11.5486
89.3838
-171.252
-419.812
372.99
907.724
504.965
2014.35
501.951
2097.63
515.429
1840.28
575.751
1635.08
657.602
1494.1
747.664
1388.11
834.233
1286.43
910.245
1183.85
968.667
1077.89
1005.69
969.664
1018.35
860.483
1004.09
751.911
960.227
644.549
884.464
538.925
774.674
432.097
632.601
323.821
446.063
198.087
224.533
50.2791
-195.28
145.883
761.842
202.507
1957.73
235.847
2064.29
271.747
1804.38
323.707
1583.12
385.433
1432.38
450.665
1322.87
512.959
1224.14
568.222
1128.59
612.515
1033.6
642.612
939.568
656.109
846.987
651.633
756.387
628.975
667.208
588.917
578.983
530.835
490.18
450.085
404.572
332.991
315.181
170.919
212.353
-24.3607
-33.4151
795.257
-16.9334
1941.24
65.509
1981.85
143.67
1726.22
217.353
1509.44
291.063
1358.67
362.846
1251.09
430.509
1156.47
490.413
1068.69
540.08
983.934
578.344
901.304
605.289
820.043
623.058
738.618
634.341
655.925
638.105
575.219
622.39
505.894
565.362
461.6
441.878
438.665
239.995
414.235
215.635
-56.0125
851.27
-52.5372
1937.77
5.80444
1923.51
58.9308
1673.09
112.49
1455.88
169.05
1302.11
234.624
1185.52
298.696
1092.4
360.505
1006.88
422.106
922.333
485.874
837.536
553.911
752.007
627.892
664.638
704.276
579.54
768.535
510.961
787.977
486.452
724.735
524.842
553.252
610.148
299.663
667.824
515.298
15.1978
254.23
470.106
624.963
741.846
834.771
886.189
926.822
951.157
961.035
958.386
945.314
922.872
887.667
831.346
741.742
611.172
439.793
240.481
)
;

boundaryField
{
    outletWall
    {
        type            calculated;
        value           nonuniform List<scalar> 
60
(
11064
-15356.6
-27461.8
-31199.5
-28314.7
-14177.6
14748.7
24731.8
23319.4
19350.3
-7878.61
-22709.9
-23976
-23217.3
-21124
-18202.9
-14375.7
-10129.8
-886.931
8906.74
8623.77
7605.52
6968.6
6230.58
5408.28
4469.42
3377.23
2175.15
974.348
-1.86364
-537.021
-862.711
-1179.02
-1372.1
-1443.36
-1379.47
-1177.93
-832.015
-595.235
199.031
10078.1
-2334.33
761.792
3701.62
4333.56
3339.65
510.097
-10888.5
-17399.5
-11813.6
17064.3
28454.9
27614.6
24738.6
21772.3
18491
15039.8
11608.9
8798.38
5367.57
)
;
    }
    fineWalls
    {
        type            calculated;
        value           uniform 0;
    }
    fineFrontAndBack
    {
        type            calculated;
        value           nonuniform List<scalar> 
960
(
-4.59234e-12
-1.57879e-11
-3.16367e-12
-2.98573e-12
-1.59083e-11
-3.31836e-12
-2.98892e-12
-2.70966e-12
-1.37414e-11
-2.99482e-12
-2.91208e-12
-4.0983e-12
1.12399e-12
1.72167e-12
1.40935e-12
-6.77576e-14
2.39432e-13
-4.87346e-12
-6.07824e-13
-7.8519e-13
3.17495e-14
-2.74434e-13
-3.12189e-13
-3.50774e-13
-3.80227e-13
-4.82065e-13
-4.05875e-12
-5.14707e-13
-4.60121e-13
-3.59745e-13
-1.67662e-13
9.23594e-14
3.15766e-13
4.14268e-13
3.85888e-13
2.55126e-13
4.91982e-14
-1.29733e-13
-1.84564e-13
-3.72016e-13
-6.08933e-13
-1.13925e-14
-7.4929e-13
-1.60793e-12
-6.73832e-12
2.62265e-13
7.43461e-13
4.33401e-14
1.31956e-11
-3.62941e-12
1.40369e-13
2.0283e-11
4.63436e-12
4.79201e-12
4.6384e-12
2.54198e-11
3.08509e-12
1.8014e-12
1.04051e-12
8.72299e-12
7.90049e-13
6.12742e-13
6.08879e-13
4.49407e-13
2.20451e-13
8.41462e-14
9.439e-14
1.72381e-13
3.38369e-13
5.92589e-13
8.08008e-13
9.5593e-13
1.07223e-12
2.02282e-11
1.27059e-12
1.26723e-12
1.32859e-12
1.40647e-12
1.50699e-12
1.23934e-12
7.95027e-12
7.69378e-12
4.55859e-11
8.97935e-12
9.80478e-12
5.33978e-11
9.88807e-12
1.08319e-11
5.24938e-11
9.56616e-12
1.0892e-11
8.08426e-11
3.17683e-11
2.39557e-11
1.13043e-11
2.49572e-11
3.41464e-12
3.43229e-12
1.63042e-11
3.38167e-12
7.69085e-12
-3.69721e-11
-3.30514e-11
-3.11004e-11
-2.55643e-11
-1.65742e-11
-6.26284e-12
1.77006e-12
5.50814e-12
6.01993e-12
4.30664e-12
2.56231e-12
1.28609e-12
3.42378e-12
4.78944e-12
4.5944e-12
1.26224e-11
2.00329e-11
2.74926e-11
1.33965e-11
-3.65748e-11
-3.29908e-11
-3.08532e-11
-2.5151e-11
-1.60919e-11
-5.86785e-12
1.98964e-12
5.60738e-12
5.49954e-12
-2.79654e-12
-6.39585e-12
-3.15904e-12
5.07636e-12
6.77934e-12
4.47556e-12
1.20194e-11
1.94015e-11
2.68705e-11
1.26712e-11
-3.4828e-11
-3.31079e-11
-3.05242e-11
-2.46275e-11
-1.5481e-11
-5.36774e-12
2.27698e-12
5.74682e-12
4.41219e-12
-9.05995e-12
-1.13859e-11
-4.14584e-12
7.45493e-12
1.03973e-11
4.38104e-12
1.15062e-11
1.88711e-11
2.13668e-11
1.25758e-11
-3.20868e-11
-3.34463e-11
-3.01531e-11
-2.40583e-11
-1.48206e-11
-4.82838e-12
2.59785e-12
5.89141e-12
2.86679e-12
-1.40608e-11
-1.45367e-11
-4.67169e-12
9.35338e-12
1.41645e-11
5.34306e-12
1.16474e-11
1.84673e-11
1.8827e-11
1.05172e-11
-2.79275e-11
-3.3854e-11
-2.97852e-11
-2.34423e-11
-1.41207e-11
-4.26147e-12
2.94198e-12
6.00078e-12
1.32447e-12
-1.57792e-11
-1.40991e-11
-4.1285e-12
1.01022e-11
1.73895e-11
7.92117e-12
1.17633e-11
1.80541e-11
1.68564e-11
7.34041e-12
-2.23881e-11
-3.39986e-11
-2.94753e-11
-2.27689e-11
-1.33673e-11
-3.66153e-12
3.29304e-12
6.05145e-12
3.21285e-13
-1.41275e-11
-1.09914e-11
-3.48485e-12
8.50089e-12
1.96021e-11
1.13351e-11
1.24293e-11
1.83217e-11
1.48587e-11
3.24032e-12
-1.76205e-11
-3.35273e-11
-2.92151e-11
-2.20415e-11
-1.25559e-11
-3.04299e-12
3.63829e-12
6.05894e-12
-1.4419e-14
-1.15979e-11
-8.01091e-12
-3.40558e-12
4.51007e-12
2.06991e-11
1.46623e-11
1.30583e-11
1.79555e-11
1.85096e-11
-7.83973e-13
-1.51734e-11
-3.22928e-11
-2.88943e-11
-2.12681e-11
-1.16631e-11
-2.3963e-12
3.97348e-12
6.05955e-12
-8.3718e-14
-1.07669e-11
-7.17053e-12
-3.38896e-12
1.25665e-13
2.15957e-11
1.93755e-11
1.06761e-11
1.49242e-11
1.66866e-11
-3.8153e-12
-1.51107e-11
-3.0455e-11
-2.83462e-11
-2.04444e-11
-1.06563e-11
-1.43372e-12
4.29234e-12
6.07151e-12
-1.77911e-13
-1.11331e-11
-7.89741e-12
-2.78155e-12
-1.42651e-12
2.44808e-11
3.57052e-11
2.45073e-11
2.95363e-11
3.98737e-11
-6.49146e-12
-1.63135e-11
-2.83538e-11
-2.74028e-11
-1.95023e-11
-9.83266e-12
-2.48755e-12
4.65092e-12
6.08783e-12
-9.55063e-14
-7.28433e-12
-4.71336e-12
-2.45891e-12
8.51274e-13
2.7734e-11
4.0872e-11
3.83111e-11
4.01611e-11
4.16615e-11
-8.68549e-12
-1.76167e-11
-2.62236e-11
-2.59423e-11
-1.84216e-11
-8.62082e-12
-4.22103e-13
4.92036e-12
5.95484e-12
1.31873e-12
3.33997e-12
4.68088e-12
-3.69177e-12
-5.40782e-13
2.78487e-11
4.66024e-11
4.84216e-11
5.27778e-11
5.27487e-11
-1.00173e-11
-1.84033e-11
-2.41253e-11
-2.39582e-11
-1.70441e-11
-7.31092e-12
1.29286e-12
5.1638e-12
5.89389e-12
2.16327e-12
2.42148e-12
2.86528e-12
-4.73109e-12
-9.87243e-12
1.75568e-11
4.15861e-11
4.31379e-11
3.28681e-11
9.06419e-12
-9.76567e-12
-1.82077e-11
-2.19684e-11
-2.16157e-11
-1.53465e-11
-6.02987e-12
1.85461e-12
5.39279e-12
5.86314e-12
2.90216e-12
3.21135e-12
3.92075e-12
-4.76787e-12
-2.50931e-11
-1.68292e-11
1.6585e-12
3.536e-12
-8.00473e-12
-1.02146e-11
-7.08065e-12
-1.61097e-11
-1.91707e-11
-1.88586e-11
-1.33081e-11
-4.67045e-12
2.38624e-12
5.60507e-12
5.8607e-12
3.49049e-12
3.0127e-12
3.9484e-12
-2.54172e-12
-3.40636e-11
-4.37269e-11
-3.43527e-11
-2.26256e-11
-1.05964e-11
3.94078e-12
-2.07225e-12
-1.12662e-11
-1.46944e-11
-1.50961e-11
-1.07116e-11
-3.20078e-12
3.02992e-12
5.81139e-12
5.85656e-12
3.81253e-12
2.50065e-12
3.37618e-12
1.40756e-12
-2.43119e-11
-4.84849e-11
-5.35034e-11
-3.88989e-11
-2.18749e-11
-4.4062e-11
3.65477e-12
-4.42791e-12
-8.33523e-12
-9.93849e-12
-7.39861e-12
-1.68318e-12
3.5635e-12
5.99196e-12
5.80166e-12
3.83597e-12
2.09211e-12
2.71657e-12
3.08333e-12
-8.72455e-12
-3.22836e-11
-5.14723e-11
-4.92144e-11
-3.6324e-11
-3.03155e-11
8.32415e-12
2.09221e-12
-1.62146e-12
-4.17411e-12
-3.71098e-12
-2.09584e-13
3.91164e-12
6.09695e-12
5.64464e-12
3.61525e-12
1.90255e-12
2.40075e-12
3.31991e-12
6.99158e-13
-9.96508e-12
-2.58071e-11
-3.31765e-11
-2.90801e-11
-1.77627e-11
1.12121e-11
6.41975e-12
3.39004e-12
6.71156e-13
-3.17624e-13
1.24797e-12
4.23291e-12
6.10267e-12
5.35319e-12
3.26169e-12
1.96439e-12
2.30233e-12
3.29739e-12
3.13258e-12
1.72395e-12
-4.59389e-12
-1.1013e-11
-1.17198e-11
-6.72174e-12
1.3284e-11
9.03622e-12
6.18406e-12
3.64861e-12
2.09027e-12
2.51855e-12
4.57277e-12
5.96055e-12
4.87077e-12
2.85224e-12
2.1876e-12
2.24834e-12
3.28382e-12
3.24098e-12
3.93652e-12
1.80458e-12
-2.56769e-12
-6.26688e-12
-8.0505e-12
1.35028e-11
1.13778e-11
8.76476e-12
6.55369e-12
4.85591e-12
4.37229e-12
4.95625e-12
5.21697e-12
4.07188e-12
2.67584e-12
2.32697e-12
2.20536e-12
3.27566e-12
3.23823e-12
3.7449e-12
7.19799e-13
-4.05907e-12
-9.09264e-12
-1.29446e-11
4.59234e-12
1.57879e-11
3.16367e-12
2.98573e-12
1.59083e-11
3.31836e-12
2.98892e-12
2.70966e-12
1.37414e-11
2.99482e-12
2.91208e-12
4.0983e-12
-1.12399e-12
-1.72167e-12
-1.40935e-12
6.77576e-14
-2.39432e-13
4.87346e-12
6.07824e-13
7.8519e-13
-3.17495e-14
2.74434e-13
3.12189e-13
3.50774e-13
3.80227e-13
4.82065e-13
4.05875e-12
5.14707e-13
4.60121e-13
3.59745e-13
1.67662e-13
-9.23594e-14
-3.15766e-13
-4.14268e-13
-3.85888e-13
-2.55126e-13
-4.91982e-14
1.29733e-13
1.84564e-13
3.72016e-13
6.08933e-13
1.13925e-14
7.4929e-13
1.60793e-12
6.73832e-12
-2.62265e-13
-7.43461e-13
-4.33401e-14
-1.31956e-11
3.62941e-12
-1.40369e-13
-2.0283e-11
-4.63436e-12
-4.79201e-12
-4.6384e-12
-2.54198e-11
-3.08509e-12
-1.8014e-12
-1.04051e-12
-8.72299e-12
-7.90049e-13
-6.12742e-13
-6.08879e-13
-4.49407e-13
-2.20451e-13
-8.41462e-14
-9.439e-14
-1.72381e-13
-3.38369e-13
-5.92589e-13
-8.08008e-13
-9.5593e-13
-1.07223e-12
-2.02282e-11
-1.27059e-12
-1.26723e-12
-1.32859e-12
-1.40647e-12
-1.50699e-12
-1.23934e-12
-7.95027e-12
-7.69378e-12
-4.55859e-11
-8.97935e-12
-9.80478e-12
-5.33978e-11
-9.88807e-12
-1.08319e-11
-5.24938e-11
-9.56616e-12
-1.0892e-11
-8.08426e-11
-3.17683e-11
-2.39557e-11
-1.13043e-11
-2.49572e-11
-3.41464e-12
-3.43229e-12
-1.63042e-11
-3.38167e-12
-7.69085e-12
3.69721e-11
3.30514e-11
3.11004e-11
2.55643e-11
1.65742e-11
6.26284e-12
-1.77006e-12
-5.50814e-12
-6.01993e-12
-4.30664e-12
-2.56231e-12
-1.28609e-12
-3.42378e-12
-4.78944e-12
-4.5944e-12
-1.26224e-11
-2.00329e-11
-2.74926e-11
-1.33965e-11
3.65748e-11
3.29908e-11
3.08532e-11
2.5151e-11
1.60919e-11
5.86785e-12
-1.98964e-12
-5.60738e-12
-5.49954e-12
2.79654e-12
6.39585e-12
3.15904e-12
-5.07636e-12
-6.77934e-12
-4.47556e-12
-1.20194e-11
-1.94015e-11
-2.68705e-11
-1.26712e-11
3.4828e-11
3.31079e-11
3.05242e-11
2.46275e-11
1.5481e-11
5.36774e-12
-2.27698e-12
-5.74682e-12
-4.41219e-12
9.05995e-12
1.13859e-11
4.14584e-12
-7.45493e-12
-1.03973e-11
-4.38104e-12
-1.15062e-11
-1.88711e-11
-2.13668e-11
-1.25758e-11
3.20868e-11
3.34463e-11
3.01531e-11
2.40583e-11
1.48206e-11
4.82838e-12
-2.59785e-12
-5.89141e-12
-2.86679e-12
1.40608e-11
1.45367e-11
4.67169e-12
-9.35338e-12
-1.41645e-11
-5.34306e-12
-1.16474e-11
-1.84673e-11
-1.8827e-11
-1.05172e-11
2.79275e-11
3.3854e-11
2.97852e-11
2.34423e-11
1.41207e-11
4.26147e-12
-2.94198e-12
-6.00078e-12
-1.32447e-12
1.57792e-11
1.40991e-11
4.1285e-12
-1.01022e-11
-1.73895e-11
-7.92117e-12
-1.17633e-11
-1.80541e-11
-1.68564e-11
-7.34041e-12
2.23881e-11
3.39986e-11
2.94753e-11
2.27689e-11
1.33673e-11
3.66153e-12