/*--------------------------------*- C++ -*----------------------------------*\
| =========                 |                                                 |
| \\      /  F ield         | OpenFOAM: The Open Source CFD Toolbox           |
|  \\    /   O peration     | Version:  4.1                                   |
|   \\  /    A nd           | Web:      www.OpenFOAM.org                      |
|    \\/     M anipulation  |                                                 |
\*---------------------------------------------------------------------------*/
FoamFile
{
    version     2.0;
    format      ascii;
    class       volVectorField;
    location    "19";
    object      U;
}
// * * * * * * * * * * * * * * * * * * * * * * * * * * * * * * * * * * * * * //

dimensions      [0 1 -1 0 0 0 0];

internalField   nonuniform List<vector> 
1280
(
(-3.31876e-15 -3.31847 -2.74017)
(-2.6833e-15 -2.20251 -2.81434)
(-2.2862e-15 -2.50729 -2.11714)
(-2.15771e-15 -1.89632 -2.36364)
(-2.70377e-15 -1.51326 -3.27349)
(-2.39809e-15 -1.02821 -2.26688)
(-2.16002e-15 -0.702633 -2.41088)
(-1.88283e-15 -0.340228 -2.36472)
(-2.49701e-15 0.586591 -3.23028)
(-2.25104e-15 0.61232 -2.40934)
(-2.08287e-15 1.05275 -2.29834)
(-6.14022e-16 2.14194 -3.09029)
(8.29463e-16 1.98344 -2.46327)
(1.24034e-15 2.45404 -2.52084)
(1.2728e-16 3.52098 -3.20202)
(-4.89666e-17 3.06513 -2.57631)
(1.73032e-16 3.71452 -2.77305)
(-8.28292e-16 4.22316 -3.80778)
(-4.35931e-16 4.2796 -2.22654)
(-5.67437e-16 3.80012 -4.68847)
(1.30254e-16 4.45078 -0.732605)
(-1.12588e-15 4.77014 5.28181)
(-1.28077e-15 4.54746 7.97852)
(-1.43907e-15 4.99536 8.78603)
(-1.55991e-15 5.22628 8.69078)
(-1.9777e-15 5.7979 8.61754)
(-8.556e-16 4.30451 7.03923)
(-2.11162e-15 7.68626 11.9069)
(-1.88768e-15 7.82637 12.1813)
(-1.47588e-15 7.95633 12.492)
(-6.87845e-16 8.01084 12.793)
(3.7891e-16 8.01523 12.9604)
(1.29545e-15 7.98023 12.9037)
(1.69956e-15 7.89662 12.7067)
(1.58313e-15 7.8249 12.5833)
(1.04667e-15 7.70048 12.7527)
(2.01839e-16 7.66008 13.2581)
(-5.32239e-16 7.50028 13.8485)
(-7.57185e-16 7.60368 14.4584)
(-1.52622e-15 7.45183 13.4165)
(-1.05994e-16 9.52974 12.8487)
(-9.15063e-18 4.64697 7.73444)
(-6.0184e-16 3.61318 7.22962)
(-1.16362e-15 2.99022 6.8547)
(1.05901e-16 2.11426 6.49781)
(2.10655e-16 1.12205 4.17142)
(5.97158e-16 0.622756 4.25255)
(3.48113e-17 0.0541852 4.60459)
(4.36358e-15 -0.407202 2.38599)
(-2.91519e-15 -1.05693 2.17651)
(3.33588e-16 -1.19756 2.50193)
(3.53055e-15 -2.08651 4.64104)
(3.72238e-15 -2.99798 5.14539)
(3.849e-15 -3.73257 5.15309)
(3.72562e-15 -4.06997 5.24828)
(4.42467e-15 -5.79555 7.84907)
(2.5488e-15 -6.00805 6.97683)
(1.44691e-15 -6.91675 7.57319)
(8.3575e-16 -7.93532 8.1605)
(1.32723e-15 -12.3042 13.0112)
(3.24123e-15 -8.80077 13.2743)
(2.51381e-15 -9.01573 14.3222)
(2.49797e-15 -8.87091 13.7377)
(1.84372e-15 -9.0434 13.1343)
(9.04415e-16 -9.07024 12.5971)
(3.45215e-16 -9.19288 12.3743)
(3.87241e-16 -9.25499 12.4371)
(7.07203e-16 -9.33173 12.5832)
(1.38818e-15 -9.36106 12.6214)
(2.43114e-15 -9.34809 12.4613)
(3.3149e-15 -9.29101 12.1627)
(3.92176e-15 -9.18814 11.8297)
(4.39887e-15 -8.9812 11.5199)
(4.26417e-15 -5.94906 6.56729)
(5.21268e-15 -6.006 9.60891)
(5.19891e-15 -5.55818 9.61281)
(5.45063e-15 -5.31443 9.67896)
(5.77012e-15 -4.89395 8.92967)
(6.18253e-15 -5.10259 6.35988)
(5.08448e-15 -4.83771 0.419485)
(5.74545e-15 -4.16604 -4.03666)
(5.56009e-15 -4.81708 -1.74094)
(7.74776e-15 -4.5553 -3.54375)
(6.48914e-15 -3.94038 -2.14747)
(7.08566e-15 -3.34306 -2.44194)
(9.57874e-15 -3.81449 -3.38055)
(7.32994e-15 -2.67428 -2.32735)
(8.01204e-15 -2.24195 -2.58879)
(9.65821e-15 -2.49197 -3.63924)
(6.40813e-15 -1.25882 -2.48927)
(7.8714e-15 -0.86949 -2.70758)
(1.65339e-14 -1.31876 -3.7974)
(2.42903e-14 0.269496 -2.7795)
(1.73122e-14 0.365361 -2.67375)
(8.16934e-15 1.08003 -2.3453)
(4.24172e-15 0.832454 -3.69974)
(2.46767e-15 1.77984 -2.99235)
(2.48043e-15 2.666 -2.75592)
(2.66999e-15 1.91633 -3.6421)
(2.44385e-15 3.66488 -4.01798)
(8.54539e-16 2.95298 0.16966)
(-4.10802e-15 -0.366933 1.47037)
(-3.67238e-15 -3.3724 1.48648)
(-3.4556e-15 -4.79226 1.60797)
(-2.84048e-15 -6.06342 1.64596)
(-1.84158e-15 -7.03727 1.64339)
(-6.95871e-16 -7.73569 1.59617)
(1.96674e-16 -7.99782 1.51865)
(6.12015e-16 -7.59144 1.51187)
(6.68881e-16 -2.81333 1.18839)
(4.78515e-16 6.38404 2.07309)
(2.84701e-16 7.68839 4.8044)
(1.42899e-16 8.25314 5.45818)
(3.8042e-16 5.06588 4.04661)
(5.3216e-16 -4.18183 -0.328248)
(5.10489e-16 -9.24598 -1.58363)
(1.40249e-15 -10.2799 -3.12829)
(2.22588e-15 -9.09478 -4.27666)
(3.05474e-15 -5.16527 -4.7893)
(1.4885e-15 2.45844 -0.474348)
(-4.06387e-15 -0.660226 1.41044)
(-3.66565e-15 -3.46647 1.42389)
(-3.42813e-15 -4.84338 1.61153)
(-2.79456e-15 -6.08783 1.65693)
(-1.78799e-15 -7.02803 1.6758)
(-6.51984e-16 -7.7034 1.65672)
(2.21071e-16 -7.95484 1.61459)
(6.23042e-16 -7.472 1.74076)
(6.1106e-16 -2.56731 1.336)
(-3.10727e-16 5.10059 3.20122)
(-7.10649e-16 6.66009 5.475)
(-3.51005e-16 8.53677 5.83731)
(5.6404e-16 7.02027 5.12306)
(7.5326e-16 -3.25331 -0.0928152)
(4.97285e-16 -8.68844 -1.34756)
(1.33549e-15 -9.59021 -2.69012)
(2.15572e-15 -8.66317 -3.96912)
(2.98561e-15 -5.33452 -4.37131)
(1.40791e-15 2.06619 -0.666633)
(-3.86978e-15 -0.992289 1.28511)
(-3.67865e-15 -3.55542 1.33498)
(-3.39158e-15 -4.88272 1.61149)
(-2.73639e-15 -6.10355 1.6708)
(-1.72011e-15 -7.02763 1.71982)
(-5.96415e-16 -7.70383 1.73683)
(2.52998e-16 -7.99081 1.73116)
(6.38535e-16 -7.5166 1.99955)
(4.90243e-16 -3.01912 1.73653)
(-1.00666e-15 4.5083 3.58804)
(-1.2651e-15 6.4112 4.95316)
(-4.60648e-16 8.50421 5.58013)
(8.28326e-16 7.69767 5.9207)
(1.15526e-15 -1.92962 1.71518)
(4.86782e-16 -7.99603 -1.09705)
(1.27847e-15 -9.00865 -1.95932)
(2.09679e-15 -8.31141 -3.40456)
(2.37409e-15 -5.36618 -3.95724)
(1.39731e-15 1.60115 -0.942281)
(-3.5652e-15 -1.33137 1.14214)
(-3.71625e-15 -3.67803 1.23492)
(-3.35034e-15 -4.94561 1.60778)
(-2.67314e-15 -6.135 1.68604)
(-1.64673e-15 -7.0436 1.76768)
(-5.36486e-16 -7.7228 1.8202)
(2.8865e-16 -8.057 1.85799)
(6.54601e-16 -7.5811 2.22028)
(3.18532e-16 -3.36631 2.18738)
(-1.56231e-15 3.87324 3.70259)
(-1.61519e-15 5.91448 4.65539)
(-5.19077e-16 8.24931 5.61945)
(1.03926e-15 8.19858 6.75586)
(1.57384e-15 -0.263814 3.93356)
(5.93673e-16 -7.24462 -0.566103)
(1.29416e-15 -8.55884 -0.830995)
(2.05192e-15 -7.93352 -2.48578)
(2.09189e-15 -5.19272 -3.4075)
(1.16857e-15 1.12106 -1.09234)
(-3.10306e-15 -1.7072 0.973882)
(-3.76156e-15 -3.83164 1.13641)
(-3.30947e-15 -5.03534 1.60908)
(-2.6047e-15 -6.18046 1.70976)
(-1.56897e-15 -7.0718 1.82325)
(-4.73497e-16 -7.75424 1.90865)
(3.26886e-16 -8.13989 1.9942)
(6.66753e-16 -7.6823 2.41434)
(1.47163e-16 -3.61055 2.60308)
(-1.75325e-15 3.50099 3.74804)
(-1.56656e-15 5.54234 4.41833)
(-4.58722e-16 7.77684 5.61863)
(1.12246e-15 8.2078 7.425)
(1.93216e-15 1.4244 6.00198)
(8.80129e-16 -6.36565 0.843475)
(1.30703e-15 -8.11607 0.462124)
(2.00601e-15 -7.38726 -1.26337)
(1.87294e-15 -4.73986 -2.54337)
(8.15601e-16 0.663235 -1.11705)
(-2.48756e-15 -2.08579 0.788317)
(-3.77762e-15 -4.01613 1.06112)
(-3.27503e-15 -5.14831 1.62106)
(-2.52987e-15 -6.23605 1.74924)
(-1.48525e-15 -7.11158 1.88806)
(-4.06836e-16 -7.80218 2.00226)
(3.65893e-16 -8.24401 2.13188)
(6.72383e-16 -7.83948 2.59048)
(3.56983e-17 -3.86485 2.95817)
(-1.56973e-15 3.1963 3.89137)
(-1.22126e-15 5.1267 4.37816)
(-3.87206e-16 7.14329 5.59081)
(9.44544e-16 7.90903 7.82582)
(2.17801e-15 2.65361 7.73214)
(1.25946e-15 -5.23776 3.06684)
(1.38104e-15 -7.53796 1.83389)
(2.03575e-15 -6.89603 0.463074)
(1.65097e-15 -4.22394 -1.82942)
(3.60036e-16 0.220331 -1.00023)
(-1.95783e-15 -2.45582 0.692138)
(-3.72526e-15 -4.23071 1.03209)
(-3.24612e-15 -5.28316 1.64445)
(-2.44905e-15 -6.30197 1.80896)
(-1.3951e-15 -7.16099 1.96314)
(-3.3811e-16 -7.86427 2.09925)
(4.04255e-16 -8.36354 2.26511)
(6.73215e-16 -8.03427 2.74941)
(-1.60211e-18 -4.13366 3.26371)
(-1.28866e-15 2.97321 4.16083)
(-8.90101e-16 4.79452 4.44573)
(-3.78398e-16 6.46423 5.38091)
(5.01119e-16 7.3018 7.85145)
(2.2999e-15 3.36455 9.10021)
(1.62915e-15 -4.19626 5.4655)
(1.45093e-15 -6.8992 3.52243)
(1.99506e-15 -6.06053 2.35154)
(2.05662e-15 -2.54823 -0.440002)
(-8.71081e-17 -0.22711 -0.793217)
(-1.68593e-15 -2.78599 0.74996)
(-3.58808e-15 -4.45149 1.05819)
(-3.21047e-15 -5.43374 1.67949)
(-2.36313e-15 -6.37829 1.88753)
(-1.2959e-15 -7.21618 2.05154)
(-2.66255e-16 -7.93586 2.1983)
(4.41498e-16 -8.49277 2.39074)
(6.73284e-16 -8.25579 2.88764)
(-9.302e-18 -4.4383 3.52904)
(-1.19633e-15 2.78216 4.5115)
(-7.96725e-16 4.57503 4.58774)
(-3.76551e-16 5.82663 5.09981)
(1.39628e-17 6.45307 7.63375)
(2.39952e-15 3.67144 10.144)
(2.15284e-15 -3.22923 7.41324)
(1.18624e-15 -6.15898 4.74348)
(1.65824e-15 -5.61987 3.77137)
(1.85407e-15 -6.04225 3.91815)
(-4.23922e-16 -0.636846 -0.552023)
(-1.67897e-15 -3.07031 0.947973)
(-3.38389e-15 -4.64925 1.14231)
(-3.14958e-15 -5.59136 1.73214)
(-2.2716e-15 -6.46508 1.97862)
(-1.18403e-15 -7.27428 2.15623)
(-1.59302e-16 -8.01212 2.30005)
(4.76927e-16 -8.6277 2.50693)
(6.74612e-16 -8.49944 3.00113)
(-1.97679e-17 -4.79901 3.75352)
(-1.23702e-15 2.61172 4.87624)
(-8.7749e-16 4.48154 4.78185)
(-3.09062e-16 5.27307 4.99715)
(-1.58502e-16 5.36044 7.54046)
(2.72009e-15 3.46619 11.1558)
(3.96724e-15 -1.97626 10.0946)
(2.72304e-15 -5.22759 7.39585)
(3.28181e-15 -5.85856 7.5425)
(4.43041e-15 -6.22334 7.9122)
(-7.21273e-16 -1.04218 -0.301827)
(-1.81261e-15 -3.34026 1.23466)
(-3.15042e-15 -4.80715 1.29761)
(-3.04476e-15 -5.74551 1.81582)
(-2.16692e-15 -6.56104 2.07723)
(-1.09252e-15 -7.33443 2.27658)
(-2.86453e-16 -8.08755 2.40752)
(5.16769e-16 -8.76272 2.61291)
(6.76425e-16 -8.75698 3.08634)
(-1.06118e-17 -5.21551 3.92038)
(-8.0937e-16 2.44592 5.14228)
(-6.76421e-16 4.44472 4.91214)
(-2.73212e-16 4.74694 5.12036)
(9.4586e-17 4.04499 7.82544)
(3.35139e-15 2.32459 12.0679)
(4.54133e-15 -1.9752 13.6648)
(4.25679e-15 -5.1268 12.1162)
(4.46235e-15 -6.39224 11.4811)
(4.62905e-15 -5.44627 9.07743)
(-9.65054e-16 -1.44974 0.126535)
(-1.95741e-15 -3.60702 1.59003)
(-2.91373e-15 -4.91982 1.54556)
(-2.88248e-15 -5.88196 1.94736)
(-2.04684e-15 -6.66124 2.18552)
(-9.57869e-16 -7.39718 2.40778)
(-4.19327e-17 -8.15724 2.52439)
(5.46707e-16 -8.89089 2.71034)
(6.61649e-16 -9.01639 3.14238)
(1.46526e-16 -5.66413 4.01175)
(3.71108e-16 2.29221 5.22701)
(5.20098e-16 4.40424 4.84457)
(-4.10196e-16 4.15585 5.21537)
(-6.00869e-17 2.72417 8.2461)
(3.0943e-15 1.1494 11.9134)
(5.17804e-15 -2.00225 13.6855)
(5.38018e-15 -4.23093 13.5538)
(5.8642e-15 -4.47033 12.174)
(5.86096e-15 -2.61719 7.6446)
(-1.11303e-15 -1.79196 0.906013)
(-2.04482e-15 -3.82259 2.03247)
(-2.68059e-15 -4.98197 1.89359)
(-2.66203e-15 -5.98276 2.1407)
(-1.89379e-15 -6.75534 2.31338)
(-8.12324e-16 -7.46178 2.5443)
(1.43652e-16 -8.21785 2.6521)
(5.73756e-16 -9.00426 2.804)
(6.54876e-16 -9.26193 3.17327)
(2.40363e-16 -6.10609 4.0247)
(2.69053e-16 2.17928 5.14308)
(3.18365e-16 4.3524 4.57915)
(-5.25677e-16 3.40822 5.04675)
(-1.09694e-15 1.38415 8.62825)
(1.95075e-15 0.0821572 12.1196)
(4.62068e-15 -2.4457 13.3483)
(4.7931e-15 -4.43857 13.5638)
(3.65202e-15 -5.00768 12.6509)
(1.00713e-15 -3.20664 9.09735)
(-1.08507e-15 -2.02765 1.88389)
(-2.02308e-15 -3.94039 2.56299)
(-2.44093e-15 -4.98903 2.32519)
(-2.40175e-15 -6.03492 2.40204)
(-1.70517e-15 -6.83151 2.47421)
(-6.69985e-16 -7.526 2.68456)
(2.06068e-16 -8.26912 2.78889)
(5.99199e-16 -9.09737 2.90133)
(6.5146e-16 -9.48098 3.18831)
(3.22463e-16 -6.51136 3.96783)
(3.56816e-16 2.12828 4.93395)
(4.35639e-16 4.34612 4.18714)
(-5.29763e-16 2.57508 4.46946)
(-2.78812e-15 -0.0938233 7.93908)
(-1.86991e-15 -0.884555 11.3441)
(1.84277e-16 -2.71939 12.7299)
(3.92889e-16 -4.04203 13.1014)
(-8.89414e-16 -2.47752 13.341)
(-1.13495e-15 4.26622 13.5346)
(-7.86738e-16 -2.15664 2.86806)
(-1.78997e-15 -3.95235 3.14593)
(-2.13008e-15 -4.9367 2.81363)
(-2.0954e-15 -6.0295 2.72859)
(-1.47868e-15 -6.87461 2.67988)
(-5.18939e-16 -7.58148 2.83359)
(2.65138e-16 -8.31025 2.93155)
(6.22785e-16 -9.16523 3.00818)
(6.51188e-16 -9.65599 3.19929)
(3.87833e-16 -6.84963 3.85631)
(3.34745e-16 2.12804 4.5754)
(4.38711e-16 4.45498 3.65727)
(-2.82413e-16 2.09592 3.61699)
(-3.78485e-15 -1.32402 5.39116)
(-4.85854e-15 -1.78272 8.09776)
(-3.81697e-15 -3.04347 9.67035)
(-2.51395e-15 -4.39019 9.71995)
(-1.17738e-15 -4.80005 8.36865)
(4.37865e-16 -3.34034 4.50493)
(-2.30251e-16 -2.2096 3.7634)
(-1.2518e-15 -3.88709 3.73606)
(-1.63271e-15 -4.83833 3.33379)
(-1.67734e-15 -5.97353 3.10969)
(-1.19018e-15 -6.88019 2.93588)
(-3.55642e-16 -7.62321 3.00005)
(3.36658e-16 -8.34377 3.0781)
(6.4571e-16 -9.21077 3.12959)
(6.50729e-16 -9.78471 3.22461)
(4.23614e-16 -7.10018 3.71064)
(2.7785e-16 2.20634 4.04546)
(3.75131e-16 4.63998 2.9589)
(1.56395e-16 2.13191 2.93027)
(-2.70132e-15 -1.95981 2.81026)
(-5.38721e-15 -2.55156 4.26019)
(-5.94482e-15 -3.3724 5.55674)
(-4.3221e-15 -3.72273 5.68265)
(-2.43055e-15 -2.10119 3.93594)
(-4.89578e-15 2.15257 -1.24901)
(4.06086e-16 -2.19058 4.53394)
(-4.9199e-16 -3.75468 4.30476)
(-9.26136e-16 -4.69295 3.86687)
(-1.10428e-15 -5.8604 3.53202)
(-8.22068e-16 -6.8318 3.24389)
(-1.8702e-16 -7.63255 3.19806)
(3.95944e-16 -8.3627 3.23464)
(6.65774e-16 -9.23206 3.26757)
(6.44629e-16 -9.8441 3.2798)
(4.26219e-16 -7.19233 3.56679)
(2.32456e-16 2.38127 3.43346)
(3.01841e-16 4.84966 2.2202)
(3.42592e-16 2.42416 2.32994)
(-9.69395e-16 -2.01299 1.17837)
(-3.58706e-15 -2.88305 1.25068)
(-5.71914e-15 -3.60446 1.47652)
(-5.46827e-15 -3.44755 1.24441)
(-4.036e-15 -0.878144 -0.563019)
(-3.36839e-15 1.99437 -3.44177)
(9.24905e-16 -2.15746 5.20846)
(2.32468e-16 -3.61284 4.83848)
(-1.80162e-16 -4.54222 4.39253)
(-4.6379e-16 -5.72682 3.97385)
(-4.12331e-16 -6.75589 3.58964)
(-2.32871e-17 -7.6221 3.42595)
(4.34626e-16 -8.37485 3.39969)
(6.77438e-16 -9.24391 3.42312)
(6.27182e-16 -9.87311 3.38577)
(4.01695e-16 -7.18152 3.44447)
(2.11395e-16 2.62878 2.81646)
(2.6675e-16 5.08425 1.68231)
(3.68879e-16 2.77212 1.73747)
(7.76843e-17 -1.78278 0.296435)
(-1.10723e-15 -2.6403 -0.433358)
(-2.86745e-15 -3.32651 -1.5591)
(-3.68628e-15 -2.97591 -2.80845)
(-3.23112e-15 -0.764785 -4.64904)
(-1.97363e-15 2.17354 -4.70789)
(1.24579e-15 -2.04789 5.81679)
(7.13305e-16 -3.40615 5.37026)
(3.76671e-16 -4.33584 4.92305)
(7.45729e-17 -5.52132 4.44239)
(-3.52915e-17 -6.6005 3.9877)
(1.38663e-16 -7.54383 3.7173)
(4.70323e-16 -8.35404 3.61452)
(6.78074e-16 -9.23533 3.61744)
(5.94799e-16 -9.79966 3.54995)
(3.6241e-16 -6.89709 3.3718)
(2.18265e-16 2.94771 2.19183)
(2.55814e-16 5.31949 1.37615)
(3.66377e-16 3.07918 1.22327)
(3.48065e-16 -1.25535 -0.160155)
(1.9155e-16 -2.06283 -1.21065)
(-5.10432e-16 -2.6115 -2.66416)
(-1.22367e-15 -2.2024 -4.24372)
(-1.30221e-15 -0.36653 -5.60215)
(-7.4686e-16 1.47987 -4.6602)
(1.476e-15 -2.01271 6.3399)
(1.00402e-15 -3.28501 5.81152)
(6.87118e-16 -4.20177 5.37507)
(4.05401e-16 -5.38458 4.84413)
(2.32252e-16 -6.4982 4.33023)
(2.79839e-16 -7.49618 3.96043)
(5.08085e-16 -8.34559 3.78037)
(6.62283e-16 -9.23857 3.78646)
(5.41197e-16 -9.7927 3.74595)
(3.16915e-16 -6.69516 3.26993)
(2.43067e-16 3.40952 1.55345)
(2.49816e-16 5.53707 1.10384)
(3.64869e-16 3.30656 0.836181)
(3.60109e-16 -1.15567 -0.331744)
(4.37391e-16 -1.78541 -1.44658)
(2.00509e-16 -2.10357 -2.70897)
(-2.85299e-16 -1.71941 -3.97811)
(-6.9632e-16 -0.462488 -4.86961)
(-8.945e-16 1.04278 -4.12949)
(1.50031e-15 -1.80082 7.18717)
(1.2642e-15 -2.96058 6.54777)
(9.73862e-16 -3.89304 6.12985)
(7.28187e-16 -5.03965 5.57563)
(5.39546e-16 -6.18829 5.03316)
(4.8581e-16 -7.27684 4.58193)
(5.50694e-16 -8.2572 4.31231)
(5.79663e-16 -9.21477 4.26782)
(4.52431e-16 -9.51549 4.17609)
(2.97316e-16 -5.74365 3.27756)
(2.58552e-16 3.72609 1.3707)
(2.4504e-16 5.78187 0.792373)
(3.63962e-16 3.66256 0.634136)
(3.59804e-16 -0.0369112 0.0727548)
(4.161e-16 -1.25652 -1.07272)
(7.99777e-17 -1.49449 -2.05619)
(-4.51008e-16 -1.23548 -2.88358)
(-1.01029e-15 -0.231475 -3.32767)
(-1.43828e-15 0.789804 -3.53476)
(-1.87258e-16 8.67804 14.9438)
(-4.52852e-15 17.843 30.7086)
(-3.71036e-15 18.5155 30.5024)
(-3.70977e-15 16.5774 26.7406)
(-4.13567e-15 14.8945 23.2978)
(-5.5768e-15 13.6668 20.8169)
(-5.5712e-15 12.6297 18.7505)
(-5.36038e-15 11.7838 17.2224)
(-5.3575e-15 11.006 15.7714)
(-5.34645e-15 10.1878 14.3132)
(-5.09357e-15 9.32935 12.8332)
(-4.48763e-15 8.43658 11.3331)
(-4.27187e-15 7.51944 9.81136)
(-4.41108e-15 6.64688 8.4095)
(-5.05557e-15 6.02897 7.46456)
(-6.39806e-15 5.91326 7.53423)
(-8.41652e-15 6.52857 8.90114)
(-9.84205e-15 7.46487 11.1451)
(-9.99354e-15 8.07591 12.6039)
(-1.15351e-14 6.11911 10.4886)
(-2.14874e-16 7.34344 11.9591)
(-3.5653e-15 16.6622 29.3471)
(-2.45495e-15 16.9299 29.2511)
(-2.62402e-15 14.7212 25.3557)
(-3.15492e-15 12.9325 22.1089)
(-4.82134e-15 11.7459 19.8526)
(-4.34858e-15 10.9273 18.2895)
(-4.28584e-15 10.2763 16.9194)
(-4.90185e-15 9.66595 15.6771)
(-5.42419e-15 9.09918 14.4871)
(-6.34051e-15 8.54856 13.324)
(-7.0749e-15 8.00716 12.1654)
(-7.95627e-15 7.45737 10.9688)
(-7.97389e-15 6.88987 9.71856)
(-8.5693e-15 6.35339 8.52296)
(-8.81406e-15 5.9684 7.65461)
(-9.07665e-15 5.78764 7.40362)
(-9.58026e-15 5.7794 7.68236)
(-9.55744e-15 5.37534 7.9338)
(-1.28895e-14 3.5478 5.23039)
(-9.9061e-18 6.98559 11.8123)
(-1.02969e-15 17.3354 30.1327)
(-6.71565e-16 18.2539 31.5314)
(-5.84769e-16 16.2049 27.5693)
(-8.21084e-16 14.3002 24.1394)
(-2.23731e-15 13.1312 21.7676)
(-1.63651e-15 12.2561 20.0488)
(-1.39132e-15 11.5382 18.5425)
(-1.50316e-15 10.8372 17.1158)
(-1.76483e-15 10.1408 15.7235)
(-1.97116e-15 9.4414 14.3657)
(-2.32064e-15 8.73976 13.0437)
(-2.60607e-15 8.033 11.7551)
(-2.8963e-15 7.32429 10.4804)
(-3.22681e-15 6.59297 9.20769)
(-3.69448e-15 5.87312 7.94268)
(-4.38998e-15 5.11337 6.80443)
(-5.38257e-15 4.43583 5.77515)
(-5.97988e-15 3.33304 4.73613)
(-8.94308e-15 1.44161 1.27889)
(6.60259e-18 7.12903 11.7181)
(2.44413e-16 17.8602 30.1242)
(1.82025e-16 18.9122 32.0545)
(1.64603e-16 16.7736 28.0382)
(2.31768e-16 14.8013 24.6499)
(-1.2784e-15 13.6685 22.3704)
(-1.30327e-15 12.8034 20.7098)
(-1.40204e-15 12.0573 19.1697)
(-1.42146e-15 11.2931 17.6498)
(-1.66546e-15 10.5066 16.1143)
(-1.72041e-15 9.69062 14.5739)
(-1.89102e-15 8.84989 13.0426)
(-2.19848e-15 7.9856 11.538)
(-2.80085e-15 7.11018 10.0626)
(-3.30977e-15 6.19848 8.6153)
(-3.83018e-15 5.27357 7.14345)
(-5.00992e-15 4.22353 5.64295)
(-6.37473e-15 3.1565 3.9214)
(-8.04518e-15 1.39728 1.80671)
(-2.265e-14 -0.228333 -1.94425)
(-1.38185e-18 9.71862 16.0961)
(-5.61095e-17 19.5295 31.7983)
(-5.12134e-17 19.6402 32.4638)
(-4.86061e-17 17.5975 28.5604)
(-8.12795e-17 15.8233 25.6283)
(2.35821e-16 14.889 23.5688)
(3.37595e-16 14.0923 21.9689)
(3.45907e-16 13.3801 20.3806)
(3.71213e-16 12.5952 18.743)
(4.10584e-16 11.7382 17.0149)
(4.49906e-16 10.8 15.2198)
(5.24074e-16 9.79349 13.3833)
(6.14491e-16 8.72519 11.5354)
(7.20996e-16 7.60972 9.69063)
(8.36243e-16 6.4264 7.86489)
(9.6316e-16 5.19698 6.0175)
(1.13829e-15 3.81607 4.13856)
(1.38998e-15 2.33561 1.89709)
(2.14627e-15 0.0539171 -0.688787)
(-9.03565e-15 -1.40798 -4.63956)
(-3.90649e-21 13.6864 23.4063)
(1.39017e-17 21.2927 34.3094)
(1.49316e-17 19.2405 32.0808)
(1.40698e-17 17.593 28.589)
(2.59449e-17 16.2391 26.6586)
(-3.89979e-17 15.6767 25.0548)
(-8.00409e-17 14.9487 23.6588)
(-9.00125e-17 14.2799 22.0301)
(-9.69983e-17 13.3809 20.2104)
(-1.04213e-16 12.3543 18.1665)
(-1.1624e-16 11.186 16.0069)
(-1.34403e-16 9.93472 13.7721)
(-1.50201e-16 8.591 11.4929)
(-1.60751e-16 7.16351 9.17034)
(-1.66044e-16 5.62099 6.82)
(-1.66991e-16 3.98015 4.41035)
(-1.63535e-16 2.20642 2.09984)
(-8.81011e-17 0.402569 -0.661543)
(8.85672e-16 -2.1772 -3.46923)
(-1.68336e-15 -2.77037 -7.24103)
(4.9547e-20 16.7654 29.8155)
(-3.49082e-18 20.7292 34.1381)
(-3.95213e-18 17.247 30.4894)
(-3.56426e-18 16.5679 28.3267)
(-7.11325e-18 15.4238 27.3467)
(8.86151e-18 15.0174 26.0933)
(1.9877e-17 14.0836 24.8982)
(2.26444e-17 13.1885 23.1257)
(2.39831e-17 11.7952 20.9636)
(2.55922e-17 10.2897 18.4433)
(2.89794e-17 8.6249 15.8518)
(3.38713e-17 6.94573 13.1713)
(3.78266e-17 5.14054 10.3683)
(3.6526e-17 3.24602 7.38814)
(1.83082e-17 1.28385 4.23847)
(-3.47548e-17 -0.866815 0.896227)
(-1.45625e-16 -2.43148 -1.62263)
(-1.54003e-16 -2.75804 -2.95971)
(4.22123e-16 -5.2124 -5.98071)
(1.00058e-15 -3.93149 -7.64797)
(-8.70217e-21 16.7654 30.5339)
(8.78037e-19 18.0458 30.8808)
(9.38983e-19 15.4282 28.4214)
(1.05922e-18 14.9016 26.8714)
(1.06667e-18 13.6574 25.9222)
(-3.11987e-18 12.9713 24.7345)
(-5.2846e-18 11.7679 23.4798)
(-5.66231e-18 10.4517 21.5194)
(-5.76637e-18 8.6608 19.0928)
(-5.66075e-18 6.8391 16.4127)
(-4.93888e-18 4.96269 13.7725)
(-2.6791e-18 3.11603 11.1016)
(7.40107e-19 1.22018 8.3683)
(-1.92879e-18 -0.627774 5.61374)
(-2.24014e-17 -2.21854 3.13934)
(-4.72506e-17 -3.34955 1.16829)
(-1.66725e-17 -4.09437 -0.606248)
(1.31853e-16 -4.0573 -1.75006)
(3.93493e-16 -2.31809 -0.452586)
(4.73504e-16 0.41823 2.55836)
(-6.67308e-21 14.7995 26.8608)
(-1.91493e-19 16.8949 29.3474)
(-2.06953e-19 14.4365 26.4682)
(-2.12334e-19 13.4234 24.2275)
(4.44062e-20 12.0203 23.0415)
(9.46451e-19 11.1348 21.6321)
(1.19583e-18 9.78005 20.2785)
(1.0793e-18 8.38663 18.3608)
(9.78521e-19 6.6451 16.082)
(1.07944e-18 4.91479 13.5633)
(1.17553e-18 3.189 11.0574)
(1.91225e-19 1.58498 8.62003)
(-3.60839e-18 0.177832 6.42397)
(-1.14461e-17 -0.824242 4.714)
(-2.2166e-17 -1.17666 3.84695)
(-3.02547e-17 -0.487011 4.46597)
(-2.82246e-17 1.62488 7.18271)
(-1.81172e-17 4.93576 11.3907)
(-1.85578e-17 7.88713 14.5891)
(-3.54984e-17 6.29671 12.3119)
(1.70754e-21 13.8688 24.8275)
(3.57918e-20 17.4071 29.3752)
(3.76789e-20 14.6622 26.0134)
(3.34992e-20 13.7374 22.9394)
(-2.97803e-20 12.2242 21.4684)
(-1.95571e-19 11.5595 19.5677)
(-2.11329e-19 10.3422 18.0657)
(-1.64544e-19 9.4403 16.3043)
(-8.44927e-20 8.32466 14.5596)
(1.5305e-19 7.33582 12.6738)
(6.25966e-19 6.38861 10.8404)
(7.82051e-19 5.66364 9.18717)
(-5.56107e-19 5.16676 7.8854)
(-3.97645e-18 4.98882 7.11677)
(-7.79233e-18 5.23393 7.11429)
(-8.62258e-18 5.96817 8.07691)
(-4.34213e-18 7.09769 9.78654)
(2.80444e-18 7.95931 11.7049)
(7.6559e-18 8.18003 12.3618)
(6.74706e-18 5.82293 10.0092)
(-2.46736e-22 14.0116 25.0928)
(-5.74104e-21 18.2859 30.3339)
(-5.61382e-21 15.3587 27.1024)
(-3.92304e-21 14.5708 23.8503)
(6.89418e-21 13.1066 22.3612)
(2.99602e-20 12.5871 20.4925)
(2.79648e-20 11.5907 18.9932)
(1.421e-20 10.8937 17.3812)
(-2.78067e-21 10.1471 15.9314)
(-3.97321e-20 9.51499 14.5438)
(-1.16036e-19 8.93298 13.2096)
(-1.80435e-19 8.39361 11.9)
(-7.0654e-20 7.88035 10.5986)
(3.60261e-19 7.36743 9.32634)
(1.07518e-18 6.8725 8.17284)
(1.93801e-18 6.4219 7.32684)
(2.88314e-18 6.05422 6.95082)
(3.69637e-18 5.68734 6.92801)
(3.46202e-18 4.83678 6.57667)
(1.02498e-18 2.86397 3.8988)
(3.47203e-23 14.661 26.346)
(7.35525e-22 19.0553 31.0871)
(6.05852e-22 15.7108 27.8064)
(2.6923e-22 15.2391 24.6736)
(-1.05943e-21 13.7122 23.2895)
(-3.49118e-21 13.2777 21.4148)
(-2.37973e-21 12.2955 19.952)
(1.34071e-22 11.6105 18.3329)
(2.6869e-21 10.8371 16.8276)
(6.71968e-21 10.1186 15.3437)
(1.12272e-20 9.41265 13.9114)
(6.12822e-21 8.71523 12.5224)
(-2.49627e-20 8.01555 11.1681)
(-8.63471e-20 7.30361 9.83537)
(-1.47374e-19 6.54623 8.50742)
(-1.58143e-19 5.74212 7.15183)
(-1.1792e-19 4.79414 5.78363)
(-1.50771e-19 3.77699 4.29918)
(-4.80882e-19 2.16268 2.56627)
(-8.54003e-19 0.497993 -0.811917)
(-8.92221e-24 15.6741 28.656)
(-5.03218e-23 19.5949 31.3928)
(3.60604e-23 15.8207 28.4931)
(1.30819e-22 15.9631 25.5857)
(1.8218e-22 14.1914 24.3972)
(8.5307e-23 13.9589 22.4253)
(-5.48331e-22 12.8607 21.0374)
(-1.22814e-21 12.2784 19.4049)
(-1.73257e-21 11.5045 17.9524)
(-2.0952e-21 10.8293 16.4452)
(-1.19406e-21 10.1039 14.9216)
(3.59895e-21 9.32595 13.3173)
(1.31424e-20 8.44556 11.6173)
(2.11411e-20 7.45055 9.81495)
(1.17717e-20 6.31735 7.94065)
(-3.40088e-20 5.09645 5.99014)
(-1.21141e-19 3.67574 3.98154)
(-2.46463e-19 2.19733 1.67989)
(-3.92054e-19 -0.0950467 -0.836918)
(-9.5617e-19 -1.28415 -4.4599)
(1.19357e-24 16.6374 31.2036)
(-3.1979e-24 19.6751 31.0928)
(6.01716e-24 15.7707 29.1678)
(3.40582e-23 16.5467 26.4919)
(2.66536e-23 14.4299 25.5167)
(-1.15908e-22 14.4762 23.5017)
(-4.43639e-22 13.211 22.2902)
(-8.42552e-22 12.8095 20.7143)
(-8.93874e-22 12.0201 19.4179)
(-1.71917e-22 11.4342 17.9742)
(1.28359e-21 10.6771 16.4352)
(3.09982e-21 9.77282 14.6019)
(5.605e-21 8.60447 12.4512)
(1.08212e-20 7.22189 10.0413)
(2.17734e-20 5.67108 7.52212)
(3.89059e-20 4.05916 4.91873)
(6.26391e-20 2.19644 2.31007)
(6.93139e-20 0.41777 -0.612767)
(-3.76098e-20 -2.26626 -3.502)
(-7.90134e-19 -2.81601 -7.18173)
(-1.37059e-24 16.9054 32.5254)
(7.2612e-24 19.1223 30.1401)
(3.83145e-23 15.4069 29.3123)
(6.47075e-23 16.4006 26.7302)
(-3.28992e-23 14.0169 25.8873)
(-3.81123e-22 14.1463 23.9089)
(-9.10189e-22 12.6941 22.8633)
(-1.2528e-21 12.3422 21.3867)
(-8.66106e-22 11.4108 20.2521)
(7.58978e-22 10.7616 18.8397)
(4.11308e-21 9.73603 17.1731)
(9.73549e-21 8.45053 14.8988)
(1.83449e-20 6.78083 12.1168)
(3.10735e-20 5.0091 9.14355)
(4.65028e-20 3.26625 6.24753)
(5.33852e-20 1.4249 3.23307)
(4.39324e-20 -0.874697 0.235697)
(1.02744e-19 -0.940496 -1.90516)
(4.39591e-20 -4.12566 -4.91791)
(-7.17405e-19 -3.88201 -8.58586)
(-7.35496e-25 16.3077 31.9749)
(1.64441e-24 18.5126 29.1483)
(2.47047e-23 14.8542 28.5985)
(4.16733e-23 15.6976 26.0447)
(-6.02548e-23 13.4105 25.1458)
(-3.96548e-22 13.2656 23.285)
(-8.869e-22 11.9071 22.1666)
(-1.15569e-21 11.3151 20.7773)
(-6.75925e-22 10.3488 19.6044)
(9.66642e-22 9.498 18.1991)
(4.0061e-21 8.32773 16.4536)
(8.76914e-21 6.91537 14.1454)
(1.69846e-20 5.33005 11.5117)
(3.31272e-20 3.84597 8.91277)
(5.83688e-20 2.40017 6.29629)
(7.81665e-20 0.67805 3.23673)
(6.89464e-20 -1.47905 -0.422606)
(8.97612e-21 -3.57581 -3.97825)
(-1.75838e-19 -4.94773 -5.95719)
(-3.97524e-19 -2.82551 -4.0554)
(-5.54677e-25 15.3479 30.9532)
(2.02008e-24 18.179 28.0766)
(1.83689e-23 14.0531 27.6113)
(2.63072e-23 15.066 24.9845)
(-6.25463e-23 12.7846 24.0562)
(-3.32376e-22 12.5411 22.2128)
(-7.32053e-22 11.2729 20.9966)
(-1.04118e-21 10.5898 19.5846)
(-9.69918e-22 9.67635 18.3476)
(-3.46557e-22 8.85728 17.0142)
(7.06309e-22 7.91753 15.5455)
(1.85966e-21 6.92288 13.8437)
(3.99153e-21 5.90722 11.9801)
(1.20383e-20 4.88899 9.97014)
(3.4399e-20 3.69167 7.57441)
(7.03167e-20 2.18054 4.5569)
(8.77584e-20 0.687947 1.34085)
(3.31412e-20 -0.616029 -1.28836)
(-8.69263e-20 -0.922585 -1.61439)
(-2.20788e-20 2.90856 6.22454)
(-2.6985e-25 14.1256 30.5599)
(1.15891e-24 18.0112 27.285)
(1.05492e-23 13.2273 27.1965)
(1.32271e-23 14.2541 24.7359)
(-4.78612e-23 12.1193 23.775)
(-2.30593e-22 11.6973 22.1098)
(-5.19355e-22 10.5721 20.8621)
(-8.1573e-22 9.85646 19.5066)
(-1.01179e-21 9.04921 18.2767)
(-1.10381e-21 8.35498 17.0552)
(-1.23762e-21 7.67069 15.8499)
(-1.58652e-21 7.01188 14.5795)
(-1.9146e-21 6.32289 13.1637)
(-9.10105e-22 5.55776 11.5053)
(4.22973e-21 4.66681 9.51673)
(1.6931e-20 3.58576 7.07282)
(3.84948e-20 2.19659 3.94996)
(6.8326e-20 0.374642 -0.306918)
(7.06395e-20 -0.970348 -2.9117)
(9.7684e-20 -0.565462 -2.25369)
(-3.05344e-26 11.2054 28.6241)
(4.09375e-25 17.0565 24.9493)
(3.37342e-24 12.0035 25.3428)
(4.17322e-24 12.6966 23.6006)
(-2.16164e-23 10.961 22.8382)
(-1.05674e-22 10.3193 21.7247)
(-2.53467e-22 9.3428 20.7881)
(-4.34031e-22 8.59264 19.8208)
(-6.0858e-22 7.85106 18.9024)
(-7.61642e-22 7.1968 18.0015)
(-8.99909e-22 6.58781 17.113)
(-1.07423e-21 6.01786 16.1994)
(-1.38616e-21 5.46268 15.2194)
(-1.70808e-21 4.90661 14.1187)
(-1.0294e-21 4.32036 12.802)
(3.00847e-21 3.6119 11.1037)
(1.39651e-20 2.62865 8.7119)
(3.60174e-20 1.23556 5.07482)
(6.83617e-20 -0.689275 0.111763)
(7.76184e-20 -1.86058 -3.61148)
(3.42358e-26 2.61592 17.0952)
(2.09176e-25 8.04422 13.6887)
(2.43382e-25 5.16952 14.5451)
(-6.72336e-25 4.98115 14.1548)
(-4.60913e-24 4.06341 14.1169)
(-1.41239e-23 3.50408 13.9462)
(-2.83657e-23 2.93635 13.792)
(-3.95398e-23 2.47338 13.6034)
(-3.54197e-23 2.07052 13.3912)
(-8.58773e-24 1.73784 13.1487)
(3.51886e-23 1.47199 12.8799)
(7.20597e-23 1.27843 12.5902)
(4.67148e-23 1.16043 12.285)
(-1.48953e-22 1.12839 11.9617)
(-6.47831e-22 1.19716 11.6099)
(-1.46751e-21 1.33299 11.2352)
(-2.33707e-21 1.55585 10.7755)
(-2.69268e-21 2.13569 9.89406)
(-1.95733e-21 2.29982 8.48151)
(-3.1081e-22 -0.25532 6.27708)
(-3.80207e-26 -2.61594 17.0954)
(-2.1047e-25 -8.04419 13.6888)
(-1.89059e-25 -5.16948 14.5452)
(8.6104e-25 -4.98108 14.155)
(4.86677e-24 -4.06331 14.1171)
(1.38234e-23 -3.50395 13.9464)
(2.56863e-23 -2.93619 13.7922)
(3.11228e-23 -2.47317 13.6037)
(1.72733e-23 -2.07027 13.3914)
(-2.12133e-23 -1.73755 13.149)
(-7.35297e-23 -1.47167 12.8802)
(-1.11291e-22 -1.2781 12.5906)
(-8.07596e-23 -1.16009 12.2854)
(1.17366e-22 -1.12802 11.9621)
(6.08939e-22 -1.19675 11.6103)
(1.42197e-21 -1.33253 11.2357)
(2.3178e-21 -1.55531 10.776)
(2.74975e-21 -2.13517 9.89458)
(2.07194e-21 -2.29965 8.4818)
(3.52355e-22 0.255264 6.27759)
(2.36894e-26 -11.2055 28.6246)
(-4.35963e-25 -17.0567 24.9498)
(-3.3217e-24 -12.0037 25.3433)
(-3.55297e-24 -12.6968 23.6012)
(2.33679e-23 -10.9613 22.8387)
(1.06994e-22 -10.3196 21.7252)
(2.47771e-22 -9.3431 20.7886)
(4.11645e-22 -8.59301 19.8213)
(5.66949e-22 -7.85149 18.9028)
(7.15217e-22 -7.19729 18.0018)
(8.73192e-22 -6.58834 17.1133)
(1.07823e-21 -6.01843 16.1995)
(1.40807e-21 -5.46333 15.2195)
(1.74079e-21 -4.90743 14.1189)
(1.11296e-21 -4.32135 12.8025)
(-2.84794e-21 -3.61291 11.1044)
(-1.40726e-20 -2.62879 8.71177)
(-3.78017e-20 -1.2326 5.07076)
(-7.42989e-20 0.696687 0.102079)
(-8.67241e-20 1.86687 -3.6214)
(2.64598e-25 -14.1254 30.5603)
(-1.23742e-24 -18.0114 27.2852)
(-1.06125e-23 -13.2272 27.1968)
(-1.23015e-23 -14.2543 24.736)
(5.12394e-23 -12.1195 23.7749)
(2.34847e-22 -11.6976 22.1096)
(5.16636e-22 -10.5725 20.8617)
(7.97966e-22 -9.85698 19.5062)
(9.85689e-22 -9.04986 18.2761)
(1.09718e-21 -8.35581 17.0545)
(1.28087e-21 -7.67176 15.8493)
(1.68344e-21 -7.01322 14.579)
(2.04713e-21 -6.32453 13.1635)
(1.12068e-21 -5.55992 11.5059)
(-3.73742e-21 -4.67007 9.51915)
(-1.60315e-20 -3.59097 7.07838)
(-3.82056e-20 -2.20339 3.95952)
(-7.24644e-20 -0.382378 -0.295972)
(-8.5517e-20 0.966036 -2.90841)
(-1.16382e-19 0.56668 -2.26245)
(5.54129e-25 -15.3471 30.9523)
(-2.16468e-24 -18.1783 28.0755)
(-1.86858e-23 -14.0521 27.6102)
(-2.553e-23 -15.0654 24.9831)