/*--------------------------------*- C++ -*----------------------------------*\
| =========                 |                                                 |
| \\      /  F ield         | OpenFOAM: The Open Source CFD Toolbox           |
|  \\    /   O peration     | Version:  4.1                                   |
|   \\  /    A nd           | Web:      www.OpenFOAM.org                      |
|    \\/     M anipulation  |                                                 |
\*---------------------------------------------------------------------------*/
FoamFile
{
    version     2.0;
    format      ascii;
    class       volScalarField;
    location    "12";
    object      p;
}
// * * * * * * * * * * * * * * * * * * * * * * * * * * * * * * * * * * * * * //

dimensions      [0 2 -2 0 0 0 0];

internalField   nonuniform List<scalar> 
1280
(
-41.9705
-19.3665
-43.6064
-91.0686
-45.5132
-94.2222
-145.119
-156.363
-139.724
-188.67
-295.645
-248.253
-347.705
-538.298
-465.072
-699.136
-1030.34
-1125.97
-1210.59
-2595.89
-1561.31
64.9356
1248.06
1738.05
1586.51
2088.16
-1511.24
-207.425
53.9627
-123.819
-188.955
-264.776
-374.448
-507.948
-657.154
-840.483
-1021.12
-1271.88
-1465.92
-1925.44
-2882.15
-1864.91
-1319.14
-990.474
600.506
51.9995
175.806
269.846
268.33
415.137
444.349
214.607
512.768
499.44
391.639
872.009
-304.81
-516.803
-1018.56
-2512.9
-515.497
-53.9357
136.021
341.811
446.469
513.383
511.883
475.955
423.972
375.71
338.894
339.176
186.282
-1202.72
2118.52
1429.19
1512.23
1213.26
727.372
-387.469
-1485.13
-394.873
-447.53
-381.302
-266.777
-111.386
-130.938
-69.6949
-4.3839
-20.5921
-5.38064
27.4717
32.9765
29.4121
29.7854
29.801
26.9365
20.6768
7.36995
12.6541
-0.537568
48.9093
0.479465
-108.253
-23.4929
-364.541
-341.708
-196.326
-125.309
-18.947
77.9687
140.031
117.947
13.1773
-4.49513
-13.7391
-14.1846
-12.074
7.61817
-41.3117
43.2041
-26.5731
-88.2201
-25.2078
-413.307
-402.258
-180.828
-31.2807
157.343
304.759
399.43
299.204
71.745
-24.8212
-71.0866
-51.1152
-28.4124
31.5146
-65.6811
62.9624
-35.7152
-142.846
-234.236
-288.196
-524.642
-190.952
-16.4672
227.468
408.1
557.097
428.248
127.872
-107.412
-199.568
-120.162
-52.7193
48.0574
-90.5602
13.1861
-93.0274
-168.618
-248.365
-233.781
-761.703
-249.885
-20.8857
279.416
536.743
819.494
577.713
183.067
-247.212
-398.961
-223.601
-63.4976
112.686
-89.0009
-58.8036
-144.288
-222.056
-236.479
-414.592
-924.378
-336.866
-4.32886
379.044
659.77
1075.42
714.063
214.195
-388.979
-602.919
-370.267
-143.191
118.127
-51.6553
-129.595
-136.767
-198.549
-213.875
-718.148
-980.556
-444.765
1.85583
358.839
813.753
1448.58
799.142
273.337
-402.096
-670.104
-388.078
-74.6884
250.738
8.59241
-136.047
-51.3168
-102.278
-161.902
-882.198
-937.896
-555.62
0.780751
336.281
1074.64
1679.99
925.418
386.384
-302.327
-644.606
-408.067
-253.609
152.91
62.7215
-89.7975
51.2273
8.88732
-78.1967
-852.705
-839.26
-647.86
-6.87246
400.635
1189.04
1612.99
1004.19
440.944
-132.057
-376.409
-164.757
296.058
550.299
96.8081
-25.4454
156.61
127.098
40.9054
-676.335
-715.662
-659.458
-35.6711
396.299
1163.17
1487.12
965.26
385.052
-73.1648
-177.867
100.619
1063.42
4116.72
124.425
42.4634
264.057
249.694
174.3
-448.867
-604.168
-604.073
-73.7794
362.73
1055.92
1286.12
833.782
299.594
-45.6239
-43.3054
298.629
1068.34
2694.53
136.988
104.103
359.645
362.219
295.927
-208.147
-446.085
-487.965
-116.11
286.449
818.559
938.309
553.901
165.548
-32.4814
48.4643
388.829
1123.65
3035.43
131.693
160.175
446.433
453.618
365.734
-19.7613
-226.387
-285.725
-82.3958
205.256
542.346
531.744
204.388
-4.34459
-7.0914
124.534
245.628
737.852
3501.07
118.622
198.209
508.576
498.871
378.073
96.5895
-46.7214
-92.7469
9.70559
179.336
335.199
268.06
45.05
-71.8441
-8.36094
72.8931
157.279
351.408
658.255
101.436
211.299
532.276
509.805
362.948
151.564
54.5004
13.9173
44.5662
127.704
167.919
106.322
48.5503
-17.5598
-11.5712
13.016
44.592
48.989
5.24018
80.8524
204.924
514.673
494.628
341.338
174.91
91.8075
39.8733
23.2
81.0912
138.575
55.1392
34.0455
-3.96739
-21.1223
6.38482
49.5031
73.9232
43.1246
61.5905
183.283
448.609
466.86
299.045
171.668
86.0937
22.8949
-16.059
38.0577
122.282
78.6254
62.0872
42.6054
-9.15512
3.27241
26.209
27.2063
63.6846
43.579
151.02
355.265
478.944
263.837
168.389
66.3231
-12.3808
-47.0988
16.8164
94.9592
88.3404
61.4431
40.7514
3.37395
2.06238
18.8758
32.9647
55.8393
27.1
115.756
268.287
487.286
171.201
130.486
33.6879
-39.2728
-38.3614
13.3243
76.4245
63.7322
44.5627
30.6926
0.41135
1.4085
15.1939
12.9736
25.9502
7.51121
89.1872
229.041
461.013
98.9813
119.088
7.91039
-60.3859
-14.7896
-20.3891
56.0763
51.0086
35.8788
21.6338
0.574162
3.84898
13.795
12.725
12.0099
-7.71259
31.0183
104.264
189.467
-36.1304
9.29043
0.791
-24.8994
-5.32889
-40.8637
6.11626
7.73342
5.08271
5.8456
3.95979
5.01542
3.67824
-2.65508
13.345
3505.85
3794.05
3812.08
3887.53
3816.45
3745.36
3598.01
3440.11
3293.72
3164.6
3048.6
2952.42
2875.38
2817.56
2778.5
2757.74
2753.72
2765.56
2782.64
2806.98
-2270.61
-1907.99
-1809.35
-1629.78
-1479.21
-1334.14
-1191.42
-1059.68
-928.914
-799.967
-667.933
-529.306
-382.755
-224.737
-58.9374
120.24
297.04
476.98
610.676
822.958
-4053.38
-3983.93
-3976.19
-4019.45
-4011.29
-4055.11
-4077.5
-4115.58
-4142.8
-4163.94
-4171.36
-4160.7
-4127.36
-4060.11
-3953.33
-3773.37
-3550.79
-3218.88
-3003.5
-2677.63
-5118.37
-5490.68
-5549.44
-5805.37
-5958.29
-6181.85
-6358.57
-6537.53
-6681.71
-6804.62
-6897.5
-6963.94
-7005.99
-7028.3
-7036.47
-7039.45
-7044.68
-6987.04
-6897.38
-6596.58
-320.053
-951.74
-1195.6
-1662.12
-2035.61
-2496.17
-2925.02
-3362.3
-3761.54
-4129.02
-4440.34
-4686.08
-4845.97
-4907.19
-4858.3
-4739.86
-4643.49
-4531.53
-4549.86
-4720.65
5854.14
5576.02
5458.93
5291.33
5152.56
4985.2
4821.87
4646.19
4465.61
4265.4
4040.15
3775.46
3469.13
3134.84
2818.56
2563.53
2398.51
2409.07
2492.05
2090.8
6333.67
6366.99
6348.3
6359.24
6341.86
6311.52
6253.75
6154.52
6024.37
5854.03
5657.5
5436.56
5204.45
4977.03
4785.08
4659.05
4609.51
4567.6
4587.31
4448.71
5550.16
5698.52
5774.84
5880.65
5970.36
6068.5
6176.7
6262.96
6343.63
6384.28
6387.55
6332.95
6224.08
6074.55
5938.74
5866.59
5894.73
5961.94
6027.66
6012.07
4012.03
4161.11
4229.68
4288.81
4367.07
4422.83
4513.81
4573.37
4655.77
4727.98
4806.97
4885.03
4962.43
5038.96
5114.36
5197.58
5281.53
5386.47
5457.34
5559.05
2583.67
2748.02
2820.86
2876.6
2998.32
3047.51
3168.91
3234.65
3333.82
3414.09
3501.07
3584.82
3667.44
3751
3831.21
3917.19
3994.62
4091.31
4152.45
4258.02
949.134
1109.02
1222.07
1264.82
1448.08
1487.51
1653.9
1735.1
1875.12
1988.98
2120.5
2251.19
2386.17
2527.03
2667.23
2816.81
2955.47
3110.98
3215.44
3384.47
-1213.98
-1218.49
-1089.16
-1164.5
-1012.39
-1079.78
-969.787
-992.076
-927.573
-918.251
-879.787
-850.506
-806.249
-744.511
-664.915
-545.371
-406.174
-179.285
8.57207
289.124
-1368.18
-1659.65
-1624.06
-1875.44
-1879.65
-2110.49
-2166.78
-2365.66
-2467.16
-2636.43
-2753.81
-2873.9
-2951.88
-3004.29
-3032.96
-3039.71
-3032.86
-2983.42
-2946.91
-2719.1
1740.16
1367.88
1357.8
1009.03
943.272
617.695
483.025
185.59
-11.4678
-290.137
-517.161
-756.472
-942.973
-1096.41
-1198.65
-1271.21
-1315.55
-1332.09
-1403.12
-1510.78
4567.01
4444.74
4588.97
4416.89
4604.79
4466.74
4601.11
4526.99
4583.68
4541.14
4533.55
4477.62
4410.3
4304.1
4163.66
3980.78
3778.89
3638.47
3565.61
3302.54
3117.62
3093.09
3288.9
3151.38
3426.97
3345.29
3564.1
3597.31
3764.65
3872.04
4021.03
4153.42
4291.41
4419.72
4529.21
4590.17
4599.32
4565.65
4588.63
4651.25
3201.52
3037.19
3223.98
2839.07
3009.1
2738.83
2774.59
2642.9
2623.57
2569.74
2554.46
2542.93
2547.44
2564.2
2594.11
2657.21
2747.25
2895.57
3038.16
3236.28
2641.03
2250.19
2825.97
2277.94
2481.45
2173.41
2104.66
1888.16
1725.63
1529.32
1344.68
1155.74
971.475
793.033
623.921
489.715
405.598
460.73
559.409
785.168
2064.29
374.764
1120.29
153.089
69.6943
-470.601
-786.32
-1174.69
-1485.77
-1771.06
-1996.64
-2166.01
-2268.65
-2301.46
-2257.08
-2130.59
-1925.24
-1649.06
-1370.05
-1095.69
55166.1
48641.7
45178.2
40836.1
37215.9
33636.7
30345.9
27221
24287.6
21515.1
18895.3
16413.1
14053.9
11801.3
9662.08
7608.31
5581.78
3953.06
2367.25
-528.136
56289.4
49765
46301.4
41959.3
38339.1
34759.9
31469
28344
25410.6
22638.1
20018.3
17536.1
15176.9
12924.4
10785.1
8731.34
6704.77
5075.73
3489.4
593.874
3187.01
1497.73
2243.33
1276.33
1193.05
652.95
337.399
-50.7352
-361.579
-646.589
-871.875
-1040.93
-1143.24
-1175.72
-1131.02
-1004.22
-798.723
-522.03
-242.177
32.1138
3771.72
3380.9
3956.71
3408.68
3612.27
3304.23
3235.55
3019.03
2856.51
2660.12
2475.42
2286.37
2102.01
1923.5
1754.48
1620.57
1536.89
1592.23
1690.99
1916.93
4322.72
4159.42
4346.65
3962.25
4132.6
3862.55
3898.08
3766.39
3746.55
3692.39
3676.51
3664.7
3669.42
3687.66
3720.98
3788.29
3879.98
4027.5
4168.84
4366.8
4285.32
4261.19
4455.26
4316.91
4589.86
4506.99
4723.37
4754.96
4920.13
5026.27
5174.09
5306.3
5444.52
5572.35
5677.84
5729.28
5730.49
5699.91
5729.22
5795.55
5687.16
5581.5
5731.63
5571.07
5760.24
5629.9
5764.49
5694.16
5749.81
5706.84
5696.14
5636.73
5565.26
5455.74
5314.71
5137.22
4945.56
4809.92
4746
4505
3403.99
3062.81
3034.17
2647.27
2588
2236.5
2114.14
1807.95
1620.62
1339.71
1112.67
870.037
683.377
530.873
429.642
357.179
310.77
279.56
234.149
132.017
394.21
26.8292
203.765
-75.9489
-32.5669
-183.858
-222.092
-367.8
-487.969
-661.764
-784.112
-897.818
-965.492
-1000.17
-1004.85
-987.048
-963.937
-905.265
-865.462
-665.672
832.276
944.028
1068.78
1048.41
1083.29
1064.2
1057.97
1031.29
1010.63
992.921
1006.45
1028.69
1060.05
1105.48
1163.27
1251.07
1347.46
1512.88
1685.28
1933.64
2319.98
2539.18
2589.56
2654.48
2690.76
2733.12
2782.85
2848.39
2939.21
3056.41
3184.07
3313.53
3442.31
3572.93
3699.42
3829.51
3946.93
4071.54
4154.63
4269.9
3457.45
3654.04
3692.57
3760.37
3799.69
3849.08
3900.6
3963.86
4030.61
4110.31
4192.59
4267.8
4335.39
4400.57
4461.37
4525.22
4580.91
4646.39
4685.76
4749.3
5019.83
5125.77
5136.88
5176.88
5204.38
5241.37
5274.4
5312.16
5316.97
5300.33
5285.24
5273.3
5272.93
5295.54
5329.49
5366.75
5395.99
5434.1
5452.7
5492.28
5223.54
5304.94
5322.48
5376.88
5430.74
5492.97
5554.99
5595.93
5535.05
5438.1
5487.91
5581.34
5634.57
5624.75
5534.5
5406.95
5325.3
5304.67
5330.57
5320.23
7195.23
7076.44
7011.11
6967.23
6941.32
6917.35
6880.04
6795.75
6670.13
6494.94
6285.35
6021.3
5679.67
5307.79
4973.74
4737.7
4599.09
4537.31
4545.38
4287.37
2940.16
2431.45
2225.99
1915.09
1651.02
1353.41
1047.99
727.553
453.34
252.486
112.847
31.9502
7.50491
34.3121
87.7032
125.91
121.742
130.351
44.2864
-336.154
-2173.87
-2600.42
-2709.25
-2989.75
-3228.01
-3527.67
-3840.04
-4149.23
-4431.19
-4714.68
-5026.49
-5369.08
-5726.61
-6071.69
-6358.62
-6533
-6558.12
-6452.93
-6405.65
-6102.88
-3332.9
-3267.83
-3234.48
-3266.39
-3302.45
-3387.58
-3492.31
-3611.21
-3721.82
-3810.88
-3862.04
-3858.26
-3782.52
-3598.71
-3295.61
-2863.56
-2389
-1869.8
-1503.52
-915.647
1712.93
2040.15
2171.42
2379.02
2566.52
2765.33
2977.06
3199.35
3433.26
3680.19
3940.87
4217.39
4507.86
4811.83
5113.27
5407.23
5661.78
5908.58
6085.28
6367.41
3549.84
3865.87
3962.44
4165.93
4314.24
4474.18
4625.25
4770.83
4909.83
5041.28
5164.58
5279.54
5384.81
5480.7
5563.33
5634.57
5688.04
5735.07
5758.08
5768.71
7917.58
8078.25
8055.51
8075.91
8009.55
7953.76
7844.11
7713.93
7570.42
7430.04
7289.73
7152.99
7020.34
6893.44
6775.09
6665.67
6572.92
6483.29
6430.44
6336.26
)
;

boundaryField
{
    outletWall
    {
        type            fixedValue;
        value           uniform 0;
    }
    fineWalls
    {
        type            zeroGradient;
    }
    fineFrontAndBack
    {
        type            zeroGradient;
    }
    fineplugLeft
    {
        type            cyclicAMI;
        value           nonuniform List<scalar> 
20
(
1860.5
1932.93
1958.08
1998.75
2038.1
2091.37
2152.46
2225.42
2308.98
2401.09
2506.92
2645.77
2710.6
3017.05
3413.92
3370.46
3457.63
3299.28
3048.23
2492.42
)
;
    }
    fineplugRight
    {
        type            cyclicAMI;
        value           nonuniform List<scalar> 
20
(
4965.91
5133.56
5213.83
5326.7
5421.83
5522.75
5617.13
5711.46
5807.19
5906.92
6011.81
6124.17
6208.4
6815.41
6786.71
6693.48
6763.17
6687.06
6608.07
6256.57
)
;
    }
    inletOutletLeft
    {
        type            cyclicAMI;
        value           nonuniform List<scalar> 
20
(
1860.5
1932.93
1958.08
1998.75
2038.1
2091.37
2152.46
2225.42
2308.98
2401.09
2506.92
2645.77
2710.6
3017.05
3413.92
3370.46
3457.63
3299.28
3048.23
2492.42
)
;
    }
    inletLeft
    {
        type            zeroGradient;
    }
    inletWallsLeft
    {
        type            zeroGradient;
    }
    inletFacesLeft
    {
        type            zeroGradient;
    }
    inletOutletRight
    {
        type            cyclicAMI;
        value           nonuniform List<scalar> 
20
(
4965.91
5133.56
5213.83
5326.7
5421.83
5522.75
5617.13
5711.46
5807.19
5906.92
6011.81
6124.17
6208.4
6815.41
6786.71
6693.48
6763.17
6687.06
6608.07
6256.57
)
;
    }
    inletRight
    {
        type            zeroGradient;
    }
    inletWallsRight
    {
        type            zeroGradient;
    }
    inletFacesRight
    {
        type            zeroGradient;
    }
}


// ************************************************************************* //
