/*--------------------------------*- C++ -*----------------------------------*\
| =========                 |                                                 |
| \\      /  F ield         | OpenFOAM: The Open Source CFD Toolbox           |
|  \\    /   O peration     | Version:  4.1                                   |
|   \\  /    A nd           | Web:      www.OpenFOAM.org                      |
|    \\/     M anipulation  |                                                 |
\*---------------------------------------------------------------------------*/
FoamFile
{
    version     2.0;
    format      ascii;
    class       surfaceScalarField;
    location    "12";
    object      phi;
}
// * * * * * * * * * * * * * * * * * * * * * * * * * * * * * * * * * * * * * //

dimensions      [0 3 -1 0 0 0 0];

internalField   nonuniform List<scalar> 
2360
(
26625.4
31037.7
-4412.38
31037.8
31037.7
37446.1
-6408.34
37446.1
37446.1
37446.1
47313.9
-9867.79
47313.9
47313.9
61859.1
-14545.2
61859.1
61859.1
84630.3
-22771.2
84630.3
84630.3
116151
-31520.6
116151
116151
124240
138728
154265
168997
182561
195040
153521
53344.2
164514
174771
184344
193272
201574
209263
216345
222821
228684
233904
238431
242071
244807
131962
112845
131962
131962
131962
38270.1
93691.7
38270.1
38270.1
38270.1
7755.61
30514.5
7755.61
7755.6
-8280.5
16036.1
-8280.51
-8280.51
-8280.52
-104276
95995.8
-104276
-104276
-104276
-235366
131090
-231492
-226564
-220413
-213388
-205590
-197169
-188293
-179136
-169805
-160288
-150517
-140466
-130169
-149476
29805.4
-138848
-127779
-116148
-103960
-91741
-83171.3
-83171.3
-83171.3
-55179.1
-27992.3
-55179.1
-55179.1
-36697
-18482
-36697
-36697
-19725.4
-16971.7
-19725.4
-19725.4
-5528.05
-14197.3
-5528.05
-5528.05
-5528.05
5837.21
-11365.3
5837.21
5837.21
15276.5
-9439.24
-56339
-51090.8
-63483.6
-74768.6
-65354.7
-79292
-53540.5
-72234.6
-33060.9
-13288.5
-23388.7
62367.7
-19328.6
105043
-15262.9
121324
-10733.3
126075
-6116.04
118413
-2274.61
109713
1803.58
90464.3
9346.41
11282.8
15973.7
-19000.1
17886.6
-14557
15935
6077.77
13433.5
16536.2
11240.6
16216.4
-2474.96
-73527.2
-44116.1
-83612.5
-64683.3
-86658.8
-76245.8
-73400.7
-85492.7
-39751.2
-46937.9
-20485.8
43102.3
-19334.2
103892
-16388.9
118379
-11752.7
121439
-7088.7
113749
-2990.53
105614
3484.48
83989.3
15619.5
-852.153
25871.2
-29251.8
29000.5
-17686.3
24508.6
10569.6
18012.1
23032.7
12944.7
21283.8
-895.499
-85197.2
-36546
-95011.8
-54868.6
-98583.9
-72673.7
-89692.9
-94383.7
-55108.2
-81522.7
-21937.5
9931.65
-17700.6
99654.7
-18049.5
118728
-13679.8
117069
-8922.63
108992
-4691.49
101383
5110.28
74187.5
20516.2
-16258
31902.1
-40637.8
36635.2
-22419.4
33225.6
13979.3
25517.9
30740.4
17948.2
28853.5
2855.37
-95641.7
-29703.5
-102693
-47817.1
-103413
-71954.1
-97142.9
-100654
-72127.6
-106538
-31928.9
-30267.1
-16920.8
84646.6
-19130.6
120937
-16619.3
114558
-11691.8
104065
-7597.82
97289.2
6364.04
60225.7
22379.9
-32273.9
30554.9
-48812.9
35375
-27239.5
35412.3
13942
29387
36765.7
20846.8
37393.6
6730.55
-98192.4
-27023.5
-97021.4
-48988
-91235.8
-77739.8
-86534
-105355
-75494
-117578
-44605.6
-61155.5
-21611.8
61652.8
-19664.1
118990
-20142.8
115037
-18691.6
102613
-14742.3
93339.9
3356.01
42127.4
14607.1
-43525
15080.5
-49286.2
18701.3
-30860.2
24925.4
7717.93
26071
35620.1
19570.7
43893.9
7819.19
-87317.3
-31666.4
-75676.9
-60628.4
-65557.6
-87859.1
-64732.9
-106180
-67996
-114315
-55832.8
-73318.7
-32711.2
38531.2
-22480.9
108760
-23108.2
115664
-23805.8
103311
-20113.6
89647.6
-4723.04
26736.9
-3877.89
-44370.2
-10645.1
-42519
-9548.1
-31957.2
2751.13
-4581.31
14486.6
23884.6
19352.7
39027.9
-820.39
-66986.5
-41508.4
-52142.6
-75472.3
-45996.4
-94005.2
-52057.6
-100119
-65195.4
-101177
-67187.8
-71326.3
-48390.8
19734.2
-31579.7
91948.5
-28506.7
112591
-29224.3
104029
-23192.2
83615.5
-15659.8
19204.5
-26918.5
-33111.4
-38611
-30826.6
-41273.8
-29294.4
-29230
-16625.1
-7147.38
1801.9
15869.6
16010.9
44854.6
-50544.1
-50209
-42535.4
-83481
-45173.7
-91366.9
-57308.7
-87983.9
-74209.6
-84276.2
-81689
-63846.9
-67317.9
5363.11
-48801.1
73431.7
-41050.5
104840
-39123.6
102102
-31761
76252.9
-34642.7
22086.1
-55016.4
-12737.7
-70749.5
-15093.4
-81714.5
-18329.4
-87320.6
-11019
-89951.7
4433.01
-102669
28727.8
73275.5
-44213.6
-55498.3
-44264.1
-83430.5
-53871.2
-81759.9
-70034
-71821
-88447.6
-65862.6
-97493.1
-54801.4
-86303
-5827.01
-68404.6
55533.4
-56288.3
92723.9
-50009.3
95822.8
-48063.4
74307
-64100.6
38123.3
-88804.6
11966.3
-104476
578.436
-116324
-6482.11
-124865
-2477.38
-128437
8004.23
-122974
23265.4
46297.3
-44577.4
-58886.3
-48641.5
-79366.5
-61969.1
-68432.3
-81078.1
-52712
-101239
-45701.7
-112537
-43503.8
-104911
-13452.6
-87170.9
37793.2
-72000.6
77553.7
-66141
89963.2
-73712.7
81878.7
-94811.9
59222.5
-113249
30403.5
-121355
8684.64
-124820
-3016.94
-123093
-4204.93
-111000
-4088.73
-79726.4
-8008.2
-17393
-47052.1
-60995.3
-52181.2
-74237.3
-66775.5
-53838
-88066
-31421.5
-109598
-24169.7
-124802
-28300.1
-125692
-12562.7
-113434
25535.9
-99593.6
63712.9
-95487.5
85857.1
-102799
89190.3
-113964
70387.7
-119945
36383.9
-121520
10259.9
-121781
-2756.36
-118843
-7142.69
-107929
-15003
-81433.7
-34503.1
-68312.1
-49004.4
-61792.9
-53825.4
-69416.3
-67715.1
-39948.4
-89425.6
-9710.96
-110320
-3274.83
-127651
-10969.9
-137620
-2593.53
-136355
24271.4
-128613
55970.9
-122362
79605.7
-118271
85099.2
-112570
64686.8
-105992
29806
-103010
7277.42
-104120
-1645.5
-107254
-4009.39
-110846
-11410.8
-111669
-33680
-86289.4
-49730.9
-62077.7
-52982.6
-66164.6
-63283.9
-29647.1
-81340.5
8345.7
-99769.9
15154.6
-116901
6161.41
-130532
11037.6
-136620
30359
-134255
53606.2
-124813
70163
-109144
69430.3
-90096.6
45639.6
-73891.4
13600.8
-63940.2
-2673.79
-58102
-7483.75
-53344
-8767.34
-54650.4
-10104.4
-75307.1
-13023.3
-48751.4
-49704
-62313.9
-50665.1
-65203.5
-54763.1
-25549
-66651.8
20234.4
-82348
30850.7
-97880.9
21694.3
-110665
23821.3
-117728
37422.2
-116074
51952.2
-103587
57676
-81677.5
47521.1
-58464.5
22426.6
-42629.5
-2234.18
-33541.4
-11761.8
-25086.9
-15938.3
-14057.9
-19796.4
-2858.72
-21303.6
2264.91
-18146.9
6857.66
-49322.8
-62350.8
-48424.5
-66101.8
-45984.7
-27988.8
-51160.2
25409.9
-64045.4
43735.9
-77637.2
35286.1
-88207.3
34391.5
-93382.5
42597.4
-89930.1
48499.7
-75030.2
42776.1
-51494.2
23985.1
-29730.9
663.272
-18156.4
-13808.7
-13273.2
-16645
-8587.91
-20623.6
-3361.44
-25022.8
764.56
-25429.6
14455.4
-31837.8
-10207.5
-48642.4
-62165.5
-46920.7
-67823.4
-39371.3
-35538.2
-37362
23400.5
-47186.5
53560.4
-59466.5
47566.1
-68451.3
43376.3
-71521.8
45667.9
-64862.8
41840.8
-45492.4
23405.8
-20863.2
-644.15
-4287.66
-15912.3
-187.907
-17908.4
-1127.51
-15705.4
-861.984
-20889.1
622.603
-26507.4
2376.91
-27183.9
11590.8
-41051.7
-21387.8
-47687.3
-61811.2
-46096.6
-69414.2
-36152.9
-45481.9
-26836.6
14084.2
-32490.6
59214.4
-43550.4
58626
-51896.6
51722.5
-53051.6
46822.9
-41534.7
30323.8
-18594.5
465.567
-1389.36
-17849.3
3524.85
-20826.5
5725.07
-20108.6
5813.06
-15793.4
3542.38
-18618.4
2978.06
-25943.1
4307.57
-28513.4
8818.79
-45562.9
-27114.3
-46572.7
-61441.3
-45460.2
-70526.6
-36082.1
-54860.1
-20604.4
-1393.52
-20818.2
59428.2
-30135.9
67943.6
-38187.1
59773.8
-37900.3
46536.1
-24058.8
16482.3
-8228.76
-15364.5
-952.721
-25125.3
2521.58
-24300.8
6133.27
-23720.3
8034.05
-17694.2
5929.4
-16513.8
4344.53
-24358.2
5195.59
-29364.5
7496.69
-47864
-29485.4
-45465.7
-61158.8
-44825.7
-71166.6
-38308.8
-61376.9
-20199.6
-19502.8
-12572.5
51801.2
-18282.9
73654
-26778.3
68269.1
-27067.2
46825.1
-15109.1
4524.12
-5360.73
-25112.8
-510.341
-29975.7
3235.93
-28047
5890.97
-26375.4
7241
-19044.2
5677.69
-14950.5
4550.67
-23231.2
5327.05
-30140.9
6742.88
-49279.8
-29150.8
-44494.2
-43870.7
-40481.1
-26027.6
-11806.8
-9195.76
-13699.3
-15207.9
-9459.94
-4070.59
-49.3448
3154.7
5372.51
6276.39
5081.77
4658.7
5495.54
6486.39
1347.09
-9436.55
3931.11
-17071.5
6262.82
-17868.7
8152.92
-16622.1
9720.95
-15132.4
11055.6
-13813.7
11885.9
-12655.1
12520.3
-11626.9
12919.9
-10656.9
13076.4
-9729.59
12984.8
-8836.46
12651
-7968.33
12081.5
-7119.09
11279.7
-6280.08
10246.2
-5442.36
8966.99
-4583.74
7427.57
-3680.66
5539.32
-2639.26
3118.92
-1219.62
383.248
2336.92
-11773.5
3865.03
-18599.6
4675.59
-18679.2
5319.63
-17266.1
6101.22
-15913.9
7002.73
-14715.2
7949.5
-13601.8
8793.31
-12470.7
9462.43
-11326
9908.94
-10176.1
10108.3
-9035.76
10049.4
-7909.48
9729.43
-6799.09
9145.92
-5696.56
8300.78
-4597.22
7186.66
-3469.6
5848.19
-2342.19
4253.38
-1044.46
2389.26
644.501
2772.51
3369.65
-15143.1
4710.03
-19940
5292.21
-19261.4
6000.78
-17974.7
6991.75
-16904.9
8098.68
-15822.2
9172.09
-14675.2
10111.1
-13409.7
10878.9
-12093.7
11445.5
-10742.7
11782.3
-9372.54
11851.2
-7978.31
11607.4
-6555.37
10987.8
-5076.9
9899.01
-3508.42
8209.79
-1780.37
5583.48
284.124
3406.37
1132.67
1590.4
2460.49
4362.91
2423.11
-17566.2
2093.76
-19610.6
1643.72
-18811.3
1546.54
-17877.5
1659.41
-17017.8
1828.63
-15991.4
1941.68
-14788.3
1955
-13423
1869.7
-12008.4
1670.83
-10543.8
1331.82
-9033.52
819.484
-7465.96
118.622
-5854.48
-734.046
-4224.2
-1596.11
-2646.31
-2240.69
-1135.71
-2173.83
217.339
-2337.41
1296.3
-2100.5
2223.6
2262.41
-598.737
-16967.4
-2281.18
-17928.2
-3709.06
-17383.5
-4985.57
-16601
-6297.92
-15705.4
-7606.27
-14683
-8914.45
-13480.1
-10209.4
-12128.1
-11503.3
-10714.5
-12811.9
-9235.19
-14143.7
-7701.73
-15479.5
-6130.19
-16751.5
-4582.48
-17809.9
-3165.74
-18395.3
-2060.95
-17989.6
-1541.33
-16015.5
-1756.76
-12163.8
-2555.47
-6221.85
-3718.29
-3959.44
-2364.33
-14603.1
-3995.92
-16296.6
-5764.98
-15614.4
-7735.98
-14630
-9922.07
-13519.3
-12138.4
-12466.6
-14255.6
-11362.9
-16263
-10120.6
-18189.4
-8788.11
-20052.1
-7372.47
-21816.1
-5937.75
-23351.7
-4594.56
-24380.1
-3554.06
-24459.6
-3086.26
-23128.2
-3392.38
-20151.7
-4517.78
-15555.8
-6352.64
-9660.33
-8450.96
-3799.41
-9579.2
-7758.86
-1187.22
-13415.9
-1549.06
-15934.7
-2118.1
-15045.3
-2940.5
-13807.6
-3910.9
-12548.9
-4904.12
-11473.4
-5715.88
-10551.2
-6274.57
-9561.93
-6517.8
-8544.87
-6415.2
-7475.05
-5952.57
-6400.37
-5148.98
-5398.13
-4050.59
-4652.43
-2710.01
-4426.82
-1199.6
-4902.77
307.476
-6024.85
1399.38
-7444.53
1616.89
-8668.46
863.902
-8826.2
-6894.96
-65.2764
-13350.6
553.776
-16553.8
1075.66
-15567.2
1363.81
-14095.7
1657.73
-12842.8
1983.28
-11798.9
2423.27
-10991.1
3037.08
-10175.7
3903.8
-9411.58
5084.63
-8655.86
6600.12
-7915.85
8376.05
-7174.05
10169.8
-6446.22
11550.1
-5807.12
12022.6
-5375.22
11265.2
-5267.49
9290.76
-5470.04
6376.56
-5754.27
3149.74
-5599.38
-3745.22
423.816
-13774.4
1296.92
-17426.8
1936.65
-16206.9
2320.89
-14479.9
2825.94
-13347.8
3387.36
-12360.3
3964
-11567.7
4517.72
-10729.4
5058.93
-9952.76
5593.65
-9190.54
6144.34
-8466.52
6735.92
-7765.59
7368.93
-7079.21
7955.62
-6393.79
8300.5
-5720.1
8113.85
-5080.83
7166.34
-4522.54
5364.7
-3952.63
2915.49
-3150.18
-829.728
802.2
-14576.6
1493
-18117.6
1841.56
-16555.5
2091.46
-14729.8
2531.72
-13788.1
2975.18
-12803.7
3426.82
-12019.4
3840.47
-11143
4231.08
-10343.4
4572.33
-9531.78
4851.33
-8745.52
5050.15
-7964.4
5163.92
-7192.98
5188.31
-6418.16
5102.79
-5634.58
4828.6
-4806.64
4238.76
-3932.69
3193.62
-2907.49
1606.3
-1562.88
776.569
1334.47
-15911
1743.79
-18527
1978.54
-16790.2
2381.75
-15133
2959.32
-14365.6
3504.35
-13348.8
4082.54
-12597.5
4659.98
-11720.5
5264.56
-10947.9
5848.47
-10115.7
6368.25
-9265.29
6748.25
-8344.38
6924.44
-7369.17
6845.31
-6339.03
6483.48
-5272.75
5817.88
-4141.03
4827.19
-2942.01
3493.9
-1574.2
1773.1
157.915
2549.67
1624.99
-17536
1525.1
-18427.1
1745.45
-17010.6
2231.43
-15619
2855.39
-14989.6
3483.89
-13977.3
4222.57
-13336.2
5028.88
-12526.8
5940.84
-11859.9
6860.3
-11035.1
7693.49
-10098.5
8295.62
-8946.53
8580.34
-7653.9
8492
-6250.7
8000.63
-4781.39
7030.79
-3171.21
5352.81
-1264.03
3232.82
545.784
1447.03
1943.69
3996.7
905.599
-18441.6
160.611
-17682.1
42.3832
-16892.4
75.3716
-15652
193.41
-15107.6
357.521
-14141.4
635.159
-13613.9
1009.97
-12901.6
1486.26
-12336.2
1943.62
-11492.5
2241.74
-10396.6
2233.97
-8938.76
1883.23
-7303.16
1218.85
-5586.32
335.064
-3897.59
-582.617
-2253.52
-1164.59
-682.05
-1536.61
917.824
-1652.5
2059.58
2344.2
-371.872
-18069.8
-1309.85
-16744.2
-1955.87
-16246.4
-2646.53
-14961.4
-3313.65
-14440.5
-4008.2
-13446.9
-4699.82
-12922.3
-5393.58
-12207.9
-6094.31
-11635.5
-6819.16
-10767.7
-7602.86
-9612.93
-8443.37
-8098.28
-9328.63
-6417.91
-10238.7
-4676.26
-11101
-3035.3
-11640.4
-1714.14
-11316.5
-1005.95
-9275.72
-1122.92
-5169.88
-2046.26
-2825.68
-619.149
-17450.7
-1281.62
-16081.7
-1910.37
-15617.6
-2737.77
-14134
-3535.1
-13643.2
-4496.46
-12485.6
-5541.39
-11877.4
-6742.62
-11006.7
-8042.01
-10336.1
-9320.45
-9489.29
-10388.2
-8545.15
-11062.6
-7423.96
-11248.8
-6231.73
-10911.8
-5013.2
-10055.6
-3891.54
-8669.38
-3100.37
-6672.8
-3002.54
-4049.64
-3746.08
-1447.78
-4648.12
-4273.45
131.378
-17582.1
98.4306
-16048.8
180.776
-15700
154.613
-14107.9
154.882
-13643.5
99.4626
-12430.2
-18.9706
-11759
-213.601
-10812.1
-484.285
-10065.5
-718.091
-9255.55
-758.2
-8505.08
-445.41
-7736.81
297.835
-6975.02
1487.44
-6202.87
3043.34
-5447.48
4646.87
-4703.94
5623.18
-3978.86
5145.97
-3268.88
2996.95
-2499.1
-1276.5
114.104
-17696.2
79.4336
-16014.2
208.509
-15829.1
448.467
-14347.9
686.381
-13881.5
1083.26
-12827.1
1489.99
-12165.7
2012.08
-11334.2
2572.68
-10626.1
3209.88
-9892.77
3911.38
-9206.6
4703.07
-8528.51
5585.86
-7857.83
6530.43
-7147.46
7404.57
-6321.63
7917.58
-5216.96
7651.37
-3712.67
6083.32
-1700.84
3344.68
239.507
2068.18
-1024.21
-16672
-2164.73
-14873.7
-2985.09
-15008.8
-3470.19
-13862.8
-3871.93
-13479.7
-3979.47
-12719.6
-3968.27
-12177
-3751.4
-11551.1
-3394.5
-10983
-2887.73
-10399.6
-2264.67
-9829.67
-1536.43
-9256.78
-712.082
-8682.19
201.008
-8060.57
1145.97
-7266.61
1958.56
-6029.56
2324.52
-4078.64
1963.18
-1339.52
900.714
1301.95
2968.89
-2097.74
-14574.3
-4448.21
-12523.2
-6771.26
-12685.7
-8677.64
-11956.4
-10474.8
-11682.6
-11936.1
-11258.2
-13187.8
-10925.3
-14168.2
-10570.8
-14918.2
-10233
-15428
-9889.76
-15711
-9546.66
-15767.1
-9200.68
-15597.5
-8851.85
-15175.1
-8482.91
-14416
-8025.74
-13112.7
-7332.89
-10978.6
-6212.72
-7778.37
-4539.72
-3933.11
-2543.31
-964.221
-5474.27
-8897.48
-12483.2
-15339.6
-17922.2
-20080.5
-21905.7
-23376.5
-24509.5
-25299.3
-25745.9
-25846.6
-25598.5
-24981.4
-23907.1
-22140
-19252.7
-14692.5
-8135.78
-5474.22
14574.2
-8897.43
12523.2
-12483.1
12685.7
-15339.5
11956.4
-17922.1
11682.6
-20080.3
11258.2
-21905.5
10925.2
-23376.3
10570.7
-24509.1
10232.8
-25298.6
9889.52
-25744.8
9546.18
-25844.8
9199.95
-25595.7
8850.96
-24977.7
8482.03
-23902.6
8024.9
-22134.6
7331.92
-19246.6
6212.03
-14687.3
4540.72
-8133.85
2546.53
966.15
-2097.71
16671.9
-4447.62
14873.1
-6770.32
15008.4
-8675.98
13862
-10472.4
13479
-11932.9
12718.7
-13183.7
12176
-14163.1
11550.1
-14912.3
10982
-15421.3
10398.6
-15703.7
9828.55
-15759.2
9255.49
-15589.3
8681.05
-15167.5
8060.16
-14409.7
7267.15
-13108.6
6030.8
-10977.4
4080.86
-7778.79
1342.07
-3930.89
-1301.39
-2964.74
-1022.48
17694.4
-2161.53
16012.1
-2980.24
15827.1
-3464.19
14346
-3864.52
13879.4
-3971.18
12825.3
-3959.1
12163.9
-3742.05
11333
-3385.21
10625.2
-2878.87
9892.2
-2256.38
9206.06
-1528.84
8527.94
-704.973
7857.18
208.447
7146.73
1153.92
6321.67
1965.39
5219.32
2328.18
3718.06
1963.73
1706.52
899.181
-236.855
-2065.56
117.382
17577
79.4704
16050
208.775
15697.8
451.798
14103
690.797
13640.3
1091.47
12424.7
1501.43
11754
2029.31
10805.2
2596.4
10058.1
3240.65
9247.95
3947.2
8499.5
4738.55
7736.59
5609.36
6986.36
6523.32
6232.77
7359.58
5485.42
7848.47
4730.42
7576.87
3989.66
6019.85
3263.54
3303.55
2479.44
1237.99
139.064
17437.9
140.007
16049.1
241.196
15596.6
237.658
14106.5
263.266
13614.7
237.067
12450.8
149.84
11841.2
-10.0802
10965.1
-243.942
10291.9
-440.504
9444.5
-446.397
8505.38
-105.875
7396.05
651.686
6228.79
1841.36
5043.08
3379.82
3946.95
4927.48
3182.75
5802.62
3114.51
5212.99
3853.17
3006.56
4685.86
4244.55
-554.949
17992.9
-1206.8
16700.9
-1784.48
16174.3
-2548.14
14870.1
-3300.16
14366.7
-4198.35
13349
-5181.77
12824.6
-6307.59
12090.9
-7538.88
11523.2
-8757.71
10663.3
-9775.1
9522.77
-10399.4
8020.38
-10533.9
6363.22
-10142.9
4652.12
-9242.78
3046.82
-7836.79
1776.77
-5884.66
1162.37
-3451.87
1420.38
-1175
2409
3069.55
-222.326
18215.2
-1035.39
17514
-1596.38
16735.2
-2281.63
15555.4
-2839.53
14924.6
-3486.88
13996.4
-4091.18
13428.9
-4727.82
12727.5
-5363.5
12158.9
-6033.34
11333.1
-6791.25
10280.7
-7656.68
8885.79
-8594.24
7300.79
-9575.35
5633.22
-10512.1
3983.58
-11097.3
2361.95
-10748
813.085
-8946.5
-381.126
-4917.14
-1620.35
-1847.6
939.432
17275.8
1056.15
17397.3
1367.85
16423.5
1546.89
15376.3
1917.42
14554.1
2203.37
13710.4
2611.62
13020.6
3014.06
12325
3475.67
11697.3
3850.09
10958.7
4028.54
10102.2
3863.82
9050.5
3326.1
7838.52
2439.43
6519.88
1284.1
5138.92
-5.34444
3651.4
-1150.46
1958.2
-1239.58
-292.006
-1465.76
-1394.18
-3313.35
1360.27
15915.5
2404.6
16352.9
3371.57
15456.6
4182.13
14565.8
4989.34
13746.9
5725.86
12973.9
6478.93
12267.6
7190.47
11613.5
7890.02
10997.7
8518.67
10330.1
9060.63
9560.28
9418.62
8692.51
9492.36
7764.77
9226.66
6785.59
8599.85
5765.72
7572.56
4678.68
6011.83
3518.93
3515.17
2204.66
1515.8
605.186
-1797.55
1146.81
14768.7
2280.78
15219
3192.64
14544.7
3886.98
13871.4
4455.68
13178.2
4948.86
12480.7
5403.23
11813.2
5796.88
11219.8
6124.49
10670.1
6395.1
10059.5
6625.29
9330.09
6765.21
8552.59
6753.51
7776.47
6539.09
7000.01
6093.02
6211.79
5393.88
5377.83
4426.96
4485.85
3182.54
3449.08
1693.37
2094.36
-104.182
737.577
14031.1
1527.75
14428.8
2009.54
14062.9
2275.75
13605.2
2468.44
12985.5
2725.6
12223.5
3138.53
11400.3
3733.06
10625.3
4329.37
10073.8
4723.75
9665.08
4895.52
9158.31
4948.25
8499.86
4927.74
7796.97
4825.75
7102.01
4604.65
6432.89
4197.82
5784.66
3533.11
5150.55
2557.83
4424.36
1258.02
3394.17
1153.84
247.74
13783.4
372.559
14304
152.603
14282.9
-226.624
13984.5
-545.096
13304
-538.727
12217.2
52.9714
10808.6
1228.31
9449.99
2662.44
8639.69
4135.59
8191.94
5377.83
7916.08
6341.83
7535.87
7058.56
7080.25
7470.08
6690.49
7477.74
6425.23
6959.07
6303.33
5860.08
6249.54
4219.82
6064.61
2252.49
5361.5
3406.33
-337.15
14120.5
-1078.22
15045.1
-2127.31
15331.9
-3282.18
15139.3
-4361.56
14383.4
-5104.34
12960
-5216.67
10920.9
-4669.58
8902.9
-3566.06
7536.16
-1958.57
6584.44
-29.5455
5987.05
2058.47
5447.85
4175.2
4963.51
6042.47
4823.22
7291.61
5176.08
7559.62
6035.32
6680.29
7128.86
4782.83
7962.07
2345.79
7798.55
5752.11
-1648.25
15768.8
-3329.03
16725.8
-5083.76
17086.7
-6863.17
16918.8
-8731.59
16251.8
-10687.1
14915.5
-12602.7
12836.6
-14264.5
10564.7
-15522
8793.62
-16403.3
7465.72
-16829.2
6412.94
-16691.4
5310.07
-15908.1
4180.26
-14401.2
3316.33
-12143.7
2918.6
-9237.42
3129.03
-5991.47
3882.91
-2923.47
4894.09
-779.545
5654.63
4972.57
-1242.64
17011.4
-2707.76
18191
-3798.84
18177.8
-4698.59
17818.5
-5698.52
17251.7
-7091.04
16308
-9057.07
14802.6
-11431.5
12939.2
-13908.6
11270.7
-16297.9
9855.03
-18505.2
8620.2
-20533.1
7337.99
-22252
5899.16
-23261.6
4325.91
-23019.8
2676.82
-21034.9
1144.18
-17150.4
-1.60066
-11708.3
-548.063
-5325.04
-728.587
-352.477
1053.51
15957.9
924.624
18319.8
1388.86
17713.5
2295.37
16912
3344.5
16202.6
4183.05
15469.5
4422.21
14563.5
3946.69
13414.7
3013.83
12203.6
1872.44
10996.4
683.518
9809.14
-572.53
8594.07
-1938.65
7265.31
-3403.2
5790.48
-4905.7
4179.34
-6155.28
2393.79
-6737.06
580.196
-6269.14
-1015.97
-4141.09
-2856.63
-4493.56
2727.21
13230.7
4121.34
16925.7
5679.27
16155.6
7553.43
15037.8
9635.49
14120.5
11732.3
13372.6
13595.4
12700.4
14997.9
12012.2
15925.5
11276
16435
10487
16576
9668.14
16320.4
8849.6
15558.6
8027.19
14209.3
7139.76
12269.8
6118.82
9766.39
4897.23
6855.21
3491.38
4023.18
1816.08
1472.02
-305.456
-3021.55
2194.34
11036.4
3878.64
15241.4
5360.44
14673.8
6803.78
13594.5
8237.61
12686.7
9612.96
11997.3
10856.4
11457
11876.1
10992.5
12628
10524.1
13102.5
10012.5
13270.2
9500.45
13092.8
9027.08
12564.5
8555.47
11720.9
7983.36
10609.2
7230.5
9242.22
6264.25
7628.62
5104.98
5704.29
3740.42
3350.82
2048.02
329.278
1350.21
9686.16
2517.12
14074.5
3416.52
13774.4
4123.75
12887.3
4731.62
12078.8
5260.48
11468.4
5752.14
10965.4
6148.35
10596.3
6433.3
10239.1
6599.27
9846.49
6616.83
9482.89
6450.54
9193.37
6098.13
8907.89
5589.07
8492.42
4954.86
7864.71
4197.8
7021.31
3319.65
5983.14
2285.35
4774.73
1229.59
3103.8
1558.86
1116.44
2971.98
4557.94
5814.4
6824.79
7664.57
8131.56
8431.33
8619.4
8694.48
8660.29
8522.51
8274.3
7890.44
7333.62
6556.98
5515.44
4139.02
2315.27
)
;

boundaryField
{
    outletWall
    {
        type            calculated;
        value           nonuniform List<scalar> 
60
(
15276.5
4276.28
-14023.5
-14034.6
-4126.23
12644.2
12372.8
-18825.7
-94542.5
-113554
-123031
-130605
-125390
-109103
-72039.8
-7191.13
60420.3
81163.1
81913.1
55251.9
44519.2
45183.1
46202.8
47333
48457
49359.8
49940.2
50015.6
49802
49161
47965.5
49502.9
59244.7
76828.6
91960.1
95512.4
88799.2
77627.1
66552.5
52178
-26625.4
-27076.8
-50270.7
-30977.7
-22808.1
-13755.8
-19948.1
-28593.2
-31251.1
-33996.9
-30502.2
-1223.88
48333.7
72772.7
71043
37580.4
-33956.3
-64766.5
-71790.1
-61183.8
)
;
    }
    fineWalls
    {
        type            calculated;
        value           uniform 0;
    }
    fineFrontAndBack
    {
        type            calculated;
        value           nonuniform List<scalar> 
960
(
9.58595e-15
7.04964e-14
-2.61465e-13
-2.55529e-13
-9.62514e-13
-1.18811e-13
1.29493e-13
-7.98772e-13
4.08118e-12
2.00153e-12
3.81841e-12
-6.28454e-12
-5.9369e-12
-6.08821e-12
-6.61158e-11
-1.53032e-11
-1.4412e-11
-6.26594e-11
-9.83585e-12
-9.14991e-12
-2.15681e-12
-2.70032e-12
-3.16102e-12
-3.56387e-12
-3.92881e-12
-4.16321e-12
-9.06073e-11
-4.90716e-12
-5.20628e-12
-5.44824e-12
-5.65509e-12
-5.87774e-12
-6.16389e-12
-6.55782e-12
-6.99284e-12
-7.45027e-12
-7.95119e-12
-8.68616e-12
-8.7704e-12
-1.27881e-11
-2.81539e-10
-3.74181e-11
-3.79296e-11
-3.81732e-11
-1.7735e-10
-1.96113e-11
-1.45632e-11
-7.44885e-12
3.36302e-11
8.71821e-12
7.61487e-12
4.74488e-11
6.17033e-12
5.51695e-12
5.97903e-12
5.50857e-11
1.31009e-11
1.44346e-11
1.67691e-11
2.26024e-10
1.52993e-11
1.02832e-11
9.50666e-12
8.92534e-12
8.48238e-12
8.12929e-12
7.86036e-12
7.5948e-12
7.30922e-12
7.02304e-12
6.74306e-12
6.43916e-12
6.18794e-12
9.64426e-11
5.39346e-12
5.02488e-12
4.476e-12
3.79002e-12
2.87361e-12
1.47934e-12
-2.02978e-12
-2.91826e-12
-1.5726e-11
-3.97308e-12
-3.99742e-12
-1.56622e-11
-1.38404e-12
-9.15677e-13
-2.63836e-12
-7.81519e-14
8.70257e-13
7.99587e-12
2.72244e-13
-2.46924e-13
-2.70323e-13
-1.58857e-12
-2.71477e-13
4.08884e-14
-4.01711e-12
-1.02493e-12
9.29603e-11
1.62978e-10
1.8865e-10
2.22543e-10
2.8408e-10
3.20061e-10
3.21945e-10
3.21481e-10
3.19381e-10
3.12194e-10
2.93839e-10
2.52841e-10
1.722e-10
1.30163e-10
9.08988e-11
5.29291e-11
1.53733e-11
-2.62719e-12
-4.94107e-12
1.29598e-10
1.52143e-10
1.18997e-10
1.04461e-10
1.81072e-10
3.22505e-10
3.2422e-10
3.20957e-10
3.19236e-10
3.11908e-10
2.93433e-10
2.52756e-10
1.84073e-10
1.49408e-10
1.16278e-10
7.92664e-11
3.52455e-11
7.28779e-12
5.30797e-13
1.03939e-10
5.90478e-11
-1.81729e-11
-6.40944e-11
9.69997e-12
2.57232e-10
3.35917e-10
3.20906e-10
3.18642e-10
3.11164e-10
2.91952e-10
2.5215e-10
2.02183e-10
1.52042e-10
1.17975e-10
9.23731e-11
5.57479e-11
2.28787e-11
7.66129e-12
3.46405e-11
-7.86706e-11
-1.76205e-10
-2.28449e-10
-1.6529e-10
9.67745e-11
3.39378e-10
3.26395e-10
3.17104e-10
3.09669e-10
2.91186e-10
2.50499e-10
1.92845e-10
1.323e-10
1.01259e-10
8.56158e-11
6.17772e-11
3.11774e-11
1.43049e-11
-7.45733e-11
-2.16848e-10
-2.78612e-10
-2.99531e-10
-2.50981e-10
-3.66051e-11
3.02772e-10
3.3982e-10
3.1907e-10
3.08454e-10
2.81347e-10
2.43095e-10
1.37797e-10
1.07278e-10
9.63768e-11
8.30755e-11
6.16839e-11
3.10362e-11
1.79774e-11
-1.67637e-10
-2.48242e-10
-2.23838e-10
-2.15166e-10
-2.17581e-10
-9.042e-11
2.43211e-10
3.47655e-10
3.25256e-10
3.01996e-10
2.71961e-10
2.28878e-10
1.05799e-10
1.11734e-10
1.07911e-10
8.76807e-11
5.87095e-11
2.80121e-11
1.74645e-11
-1.70897e-10
-1.34323e-10
-6.20114e-11
-7.61187e-11
-1.49936e-10
-9.17255e-11
1.99503e-10
3.35271e-10
3.27008e-10
2.95695e-10
2.64083e-10
1.94271e-10
1.1153e-10
1.23283e-10
1.20213e-10
1.02627e-10
5.91265e-11
9.34714e-12
1.86955e-11
-8.99852e-11
-4.18606e-12
2.87814e-11
-3.82691e-11
-1.37969e-10
-8.05424e-11
1.74885e-10
3.08646e-10
3.12367e-10
2.79208e-10
2.33498e-10
1.52405e-10
1.22396e-10
1.31319e-10
1.33631e-10
1.46922e-10
1.75139e-10
2.13609e-10
2.81388e-10
-8.64265e-12
4.43197e-11
1.42592e-11
-8.82931e-11
-1.59925e-10
-6.34643e-11
1.61792e-10
2.72004e-10
2.73923e-10
2.46359e-10
2.0371e-10
1.49528e-10
1.25225e-10
1.22076e-10
1.23727e-10
1.38733e-10
1.69659e-10
1.95363e-10
1.84454e-10
3.66248e-11
4.35519e-11
-2.93448e-11
-1.46238e-10
-1.80157e-10
-5.58881e-11
1.53053e-10
2.3127e-10
2.27648e-10
1.76307e-10
7.54233e-11
-3.51252e-11
7.45268e-11
2.40706e-11
2.72852e-11
2.54699e-11
2.73596e-11
4.28327e-11
6.13991e-11
5.6844e-11
3.96811e-11
-6.16007e-11
-1.96982e-10
-2.25893e-10
-1.46914e-10
-2.77462e-12
1.58876e-10
1.66153e-10
1.07753e-10
2.3616e-11
-5.08363e-11
-8.6104e-11
-1.46555e-10
-1.62831e-10
-1.77642e-10
-2.02192e-10
-2.06355e-10
-1.41978e-10
5.82999e-11
4.05904e-11
-7.83438e-11
-2.48719e-10
-2.85676e-10
-2.06828e-10
-9.97672e-11
-7.27689e-13
4.01986e-11
1.23099e-11
-6.08045e-11
-1.47715e-10
-2.23427e-10
-2.63876e-10
-2.85093e-10
-3.13949e-10
-3.67664e-10
-4.13026e-10
-4.03917e-10
5.63956e-11
4.30631e-11
-7.35228e-11
-2.61026e-10
-3.12433e-10
-2.70686e-10
-2.17405e-10
-1.62101e-10
-1.23806e-10
-1.27904e-10
-1.73676e-10
-2.22176e-10
-2.31049e-10
-2.12601e-10
-2.07283e-10
-2.24808e-10
-2.57262e-10
-3.12576e-10
-3.97997e-10
5.63315e-11
4.81743e-11
-5.26687e-11
-2.46789e-10
-3.15266e-10
-3.03042e-10
-2.78557e-10
-2.54733e-10
-2.33325e-10
-2.23178e-10
-2.21948e-10
-2.04986e-10
-1.65984e-10
-1.3522e-10
-1.12902e-10
-8.97974e-11
-5.0487e-11
-8.22665e-12
-5.36371e-11
5.43332e-11
5.33101e-11
-1.76033e-11
-1.98415e-10
-2.91541e-10
-3.06539e-10
-2.9615e-10
-2.83126e-10
-2.66696e-10
-2.41141e-10
-2.00157e-10
-1.4326e-10
-9.42663e-11
-7.7252e-11
-5.33058e-11
-3.32985e-11
-1.79387e-11
-6.02183e-12
1.55984e-11
5.15605e-11
5.54875e-11
1.62596e-11
-1.3099e-10
-2.43662e-10
-2.8744e-10
-2.90465e-10
-2.783e-10
-2.53191e-10
-2.02435e-10
-1.27916e-10
-7.12918e-11
-3.76917e-11
-4.00839e-11
-2.48378e-11
-1.33448e-11
-8.11029e-12
-2.87182e-12
1.60197e-11
4.8945e-11
5.51778e-11
3.84382e-11
-6.11319e-11
-1.78761e-10
-2.48589e-10
-2.71759e-10
-2.60931e-10
-2.16318e-10
-1.32414e-10
-6.38621e-11
-5.87337e-11
-3.36803e-11
-1.62481e-11
-7.82806e-12
-2.83508e-12
-1.53061e-12
-3.84919e-13
-1.13463e-12
4.66508e-11
5.37994e-11
4.87643e-11
-2.75617e-12
-1.08899e-10
-1.92578e-10
-2.38649e-10
-2.36721e-10
-1.8127e-10
-1.01372e-10
-8.93473e-11
-7.01674e-11
-3.53425e-11
-9.2595e-12
3.32937e-12
4.0492e-12
1.43645e-12
-5.69918e-13
-1.51334e-12
4.45716e-11
5.24302e-11
5.1608e-11
2.99514e-11
-4.86706e-11
-1.31142e-10
-1.9786e-10
-2.15997e-10
-1.66454e-10
-1.12333e-10
-9.85556e-11
-6.76239e-11
-3.13651e-11
-6.52333e-12
6.79394e-12
5.50793e-12
8.12944e-13
-6.73611e-13
-8.181e-13
4.28765e-11
5.13576e-11
5.17224e-11
4.43169e-11
8.31422e-13
-5.38018e-11
-1.12694e-10
-1.5413e-10
-1.46037e-10
-1.20235e-10
-9.98576e-11
-6.73327e-11
-2.88898e-11
-3.48361e-12
7.4664e-12
4.48308e-12
5.18932e-13
-6.6859e-13
-9.45816e-13
-9.58595e-15
-7.04964e-14
2.61465e-13
2.55529e-13
9.62514e-13
1.18811e-13
-1.29493e-13
7.98772e-13
-4.08118e-12
-2.00153e-12
-3.81841e-12
6.28454e-12
5.9369e-12
6.08821e-12
6.61158e-11
1.53032e-11
1.4412e-11
6.26594e-11
9.83585e-12
9.14991e-12
2.15681e-12
2.70032e-12
3.16102e-12
3.56387e-12
3.92881e-12
4.16321e-12
9.06073e-11
4.90716e-12
5.20628e-12
5.44824e-12
5.65509e-12
5.87774e-12
6.16389e-12
6.55782e-12
6.99284e-12
7.45027e-12
7.95119e-12
8.68616e-12
8.7704e-12
1.27881e-11
2.81539e-10
3.74181e-11
3.79296e-11
3.81732e-11
1.7735e-10
1.96113e-11
1.45632e-11
7.44885e-12
-3.36302e-11
-8.71821e-12
-7.61487e-12
-4.74488e-11
-6.17033e-12
-5.51695e-12
-5.97903e-12
-5.50857e-11
-1.31009e-11
-1.44346e-11
-1.67691e-11
-2.26024e-10
-1.52993e-11
-1.02832e-11
-9.50666e-12
-8.92534e-12
-8.48238e-12
-8.12929e-12
-7.86036e-12
-7.5948e-12
-7.30922e-12
-7.02304e-12
-6.74306e-12
-6.43916e-12
-6.18794e-12
-9.64426e-11
-5.39346e-12
-5.02488e-12
-4.476e-12
-3.79002e-12
-2.87361e-12
-1.47934e-12
2.02978e-12
2.91826e-12
1.5726e-11
3.97308e-12
3.99742e-12
1.56622e-11
1.38404e-12
9.15677e-13
2.63836e-12
7.81519e-14
-8.70257e-13
-7.99587e-12
-2.72244e-13
2.46924e-13
2.70323e-13
1.58857e-12
2.71477e-13
-4.08884e-14
4.01711e-12
1.02493e-12
-9.29603e-11
-1.62978e-10
-1.8865e-10
-2.22543e-10
-2.8408e-10
-3.20061e-10
-3.21945e-10
-3.21481e-10
-3.19381e-10
-3.12194e-10
-2.93839e-10
-2.52841e-10
-1.722e-10
-1.30163e-10
-9.08988e-11
-5.29291e-11
-1.53733e-11
2.62719e-12
4.94107e-12
-1.29598e-10
-1.52143e-10
-1.18997e-10
-1.04461e-10
-1.81072e-10
-3.22505e-10
-3.2422e-10
-3.20957e-10
-3.19236e-10
-3.11908e-10
-2.93433e-10
-2.52756e-10
-1.84073e-10
-1.49408e-10
-1.16278e-10
-7.92664e-11
-3.52455e-11
-7.28779e-12
-5.30797e-13
-1.03939e-10
-5.90478e-11
1.81729e-11
6.40944e-11
-9.69997e-12
-2.57232e-10
-3.35917e-10
-3.20906e-10
-3.18642e-10
-3.11164e-10
-2.91952e-10
-2.5215e-10
-2.02183e-10
-1.52042e-10
-1.17975e-10
-9.23731e-11
-5.57479e-11
-2.28787e-11
-7.66129e-12
-3.46405e-11
7.86706e-11
1.76205e-10
2.28449e-10
1.6529e-10
-9.67745e-11
-3.39378e-10
-3.26395e-10
-3.17104e-10
-3.09669e-10
-2.91186e-10
-2.50499e-10
-1.92845e-10
-1.323e-10
-1.01259e-10
-8.56158e-11
-6.17772e-11
-3.11774e-11
-1.43049e-11
7.45733e-11
2.16848e-10
2.78612e-10
2.99531e-10
2.50981e-10
3.66051e-11
-3.02772e-10
-3.3982e-10
-3.1907e-10
-3.08454e-10
-2.81347e-10
-2.43095e-10
-1.37797e-10
-1.07278e-10
-9.63768e-11
-8.30755e-11
-6.16839e-11
-3.10362e-11
-1.79774e-11
1.67637e-10
2.48242e-10
2.23838e-10
2.15166e-10
2.17581e-10
9.042e-11
-2.43211e-10
-3.47655e-10
-3.25256e-10
-3.01996e-10
-2.71961e-10
-2.28878e-10
-1.05799e-10
-1.11734e-10
-1.07911e-10
-8.76807e-11
-5.87095e-11
-2.80121e-11
-1.74645e-11
1.70897e-10
1.34323e-10