/*--------------------------------*- C++ -*----------------------------------*\
| =========                 |                                                 |
| \\      /  F ield         | OpenFOAM: The Open Source CFD Toolbox           |
|  \\    /   O peration     | Version:  4.1                                   |
|   \\  /    A nd           | Web:      www.OpenFOAM.org                      |
|    \\/     M anipulation  |                                                 |
\*---------------------------------------------------------------------------*/
FoamFile
{
    version     2.0;
    format      ascii;
    class       volScalarField;
    location    "13";
    object      p;
}
// * * * * * * * * * * * * * * * * * * * * * * * * * * * * * * * * * * * * * //

dimensions      [0 2 -2 0 0 0 0];

internalField   nonuniform List<scalar> 
1280
(
1.24712
0.453325
1.77424
3.82039
5.00495
5.54022
6.11459
7.04299
7.25404
7.55368
7.80719
7.52168
6.29775
5.71127
4.9176
0.215539
-2.74188
-6.13066
-13.5732
-24.7039
-21.8906
-15.338
0.623456
20.5335
30.7368
37.3981
35.8763
20.1784
23.777
22.86
21.3965
20.0109
17.833
15.1185
12.0428
8.65982
5.0034
1.04584
-2.61347
-8.7992
4.23618
3.85928
6.77248
12.9824
28.0862
25.3277
25.6487
26.3841
26.5944
26.7633
26.8788
26.7628
26.7489
26.4466
26.2861
28.3034
15.2512
10.0826
7.9198
7.04123
-3.90871
2.69177
6.74459
11.1033
15.154
18.9258
22.3782
25.4522
27.9867
29.6982
31.4103
32.6783
29.6045
44.6595
45.3757
38.913
28.7817
8.50706
-8.20411
-15.4674
-19.1346
-7.6091
-7.58585
-6.39189
-1.43532
0.155313
0.951267
3.86086
4.40892
5.09525
6.09075
5.78874
5.33357
5.247
5.35102
4.9287
2.37783
1.89374
1.29429
0.78118
-0.37221
0.382439
0.0769904
-0.29369
-1.19811
-2.4492
-2.34004
-1.81173
-4.37545
-2.42381
1.87853
7.1478
9.18986
2.74935
0.506492
-1.40907
-2.36448
-1.76582
0.510471
-1.47917
-0.537466
-1.96975
-2.04735
-2.60729
-3.48386
-2.17953
-4.5368
-4.89657
-0.980267
7.52739
18.0523
22.1168
10.2727
2.90775
-5.06208
-9.68376
-6.98059
0.465731
-2.21102
-0.590931
-2.02957
-1.92462
-2.9509
-5.0342
-6.56327
-10.1321
-7.92467
-0.883476
9.909
23.8269
29.9087
17.5551
3.72628
-11.8397
-20.7815
-14.7333
0.214351
-2.75939
-1.21077
-2.54117
-2.26632
-3.36897
-5.85133
-9.60267
-14.3848
-12.274
-1.66305
11.5483
29.1512
35.2173
23.8927
4.94641
-19.0552
-33.4797
-24.2953
-0.513795
-2.8074
-1.35517
-2.29431
-2.03471
-3.4382
-6.63121
-12.7691
-17.7153
-15.0431
-2.31349
12.9645
33.6135
37.6708
27.6214
7.04653
-22.5481
-39.3697
-32.2989
-2.63405
-2.57681
-1.48571
-1.93688
-1.80073
-3.35279
-7.04543
-14.9621
-19.4
-16.403
-3.10175
13.7171
36.9454
37.7353
28.9712
9.45211
-21.0091
-39.7147
-29.8984
-1.52801
-2.02959
-1.34239
-1.2201
-1.29037
-2.93205
-7.17269
-16.3483
-19.6262
-16.9215
-4.16865
13.545
37.7472
36.1223
28.9009
11.8659
-16.5705
-40.7174
-30.0615
-2.32216
-1.21167
-1.04116
-0.335977
-0.638042
-2.24345
-6.97707
-16.7409
-18.767
-16.7326
-5.44081
12.0438
33.8097
32.2157
26.459
13.4162
-7.95895
-30.566
-20.944
1.05377
-0.187501
-0.522263
0.694146
0.181024
-1.2744
-6.42755
-16.1593
-17.4625
-16.1526
-6.82059
9.35427
26.2669
25.7045
22.6419
15.1648
2.2884
-8.97528
7.92723
35.4216
0.99628
0.239744
1.75396
1.08005
-0.0800737
-5.491
-14.7417
-16.0696
-15.3639
-8.12827
5.93834
17.4902
18.3708
18.3591
15.8606
6.85169
0.056083
22.1203
35.2946
2.37752
0.991595
2.87654
2.03058
1.29979
-4.21527
-12.8725
-14.6575
-14.4922
-9.20196
2.42818
8.60096
11.6586
15.2481
18.1015
12.2392
7.3784
23.1425
36.2354
3.6541
1.19294
3.89856
2.98855
2.76353
-2.65731
-10.707
-13.1221
-13.7357
-10.0596
-0.779996
0.996674
7.77342
13.5628
19.9344
15.4391
13.4209
20.4713
38.745
3.87308
1.10392
4.46545
3.90359
4.16743
-0.873174
-8.10722
-11.2117
-12.8457
-10.4863
-3.24423
-3.52026
3.72651
12.652
18.1019
12.831
15.5165
19.5847
8.4297
3.2276
1.31875
4.86758
4.71951
5.29942
0.824065
-5.18786
-8.62181
-11.0275
-9.91335
-5.08656
-4.73462
-1.91456
10.6791
16.4762
13.6151
13.3034
14.203
3.63439
2.71027
1.62068
5.13251
5.20801
5.7416
1.97004
-2.42046
-5.49698
-8.08124
-8.36721
-6.53945
-2.04194
-4.34411
9.32116
13.9744
11.9687
11.6466
12.4387
6.47712
2.19736
1.90196
5.10791
5.24802
5.51592
2.66894
-0.102477
-2.38906
-4.90806
-6.918
-8.15324
-3.07829
-4.1899
7.44846
11.6354
10.5148
9.85551
9.49921
7.74755
1.66395
1.98964
4.80801
4.98823
4.97904
2.91343
1.28197
-0.249742
-2.70606
-6.17312
-6.28055
-6.49002
-2.54451
5.35027
9.02478
8.31873
7.68236
7.33608
6.44894
1.1991
1.91159
4.3069
4.07434
4.08769
2.72566
1.9769
1.05162
-1.65257
-6.02001
-2.76098
-7.12781
-1.71665
3.70176
6.59605
6.07699
5.42684
5.07088
5.00863
0.77221
1.76627
3.76022
2.66589
2.74061
1.74514
1.25072
0.631795
-1.51823
-5.31248
-4.2664
-5.62743
-2.07848
1.89642
4.16492
3.82009
3.27143
3.16575
3.11772
0.237069
0.804883
1.81863
0.852072
1.07223
1.02411
1.19863
1.06204
-0.769301
-3.18594
-6.227
-6.21563
-4.02409
-1.47334
0.799649
1.29885
1.22082
1.11114
1.23468
-5.89339
-4.42126
-3.01452
-1.83619
-2.86697
-4.81032
-8.25994
-12.01
-15.7965
-19.2533
-22.3776
-25.0666
-27.278
-28.9498
-30.0942
-30.5375
-30.4658
-29.1318
-27.1027
-24.5151
-56.4592
-58.2244
-57.3027
-55.5621
-55.0732
-55.2044
-55.8556
-56.8819
-58.0777
-59.2395
-60.2014
-60.9224
-61.3688
-61.5064
-61.4019
-61.0336
-60.5178
-59.4986
-58.6304
-56.5839
17.1942
10.427
5.25166
1.38911
-2.45376
-6.47147
-10.7506
-15.3918
-20.2314
-25.0846
-29.6725
-33.8781
-37.5429
-40.5317
-42.7875
-44.2269
-44.8997
-45.7227
-46.684
-48.0833
55.6545
52.6041
49.4476
46.5802
43.7634
41.1062
38.873
36.7167
34.6601
32.5286
30.3764
28.1513
25.9154
23.752
21.7943
20.1914
19.4204
20.1158
20.3961
16.5666
69.895
69.956
69.2762
69.3452
69.2448
68.7552
68.0705
66.8898
65.34
63.2058
60.5303
57.2422
53.4162
49.2382
45.2142
41.9674
39.8792
38.8902
39.1768
37.53
52.1211
53.9829
54.8447
56.0703
57.2404
58.3241
59.6425
60.7885
61.9374
62.824
63.3823
63.3865
62.723
61.3523
59.5189
57.7197
56.8214
56.6835
57.1899
56.8869
35.2063
37.4317
38.7817
39.9701
41.362
42.2532
43.4378
44.3606
45.3567
46.306
47.2782
48.2924
49.3588
50.4789
51.6505
52.8512
54.0229
55.2288
56.0713
57.1469
13.7201
16.1526
18.1671
19.4997
21.4265
22.6155
24.2337
25.5226
26.8832
28.1587
29.3972
30.6115
31.8059
33.0167
34.2415
35.5554
36.8533
38.3316
39.4425
40.994
-6.4917
-4.40041
-2.20825
-1.21675
1.01435
2.16061
4.07975
5.53581
7.20582
8.77624
10.3495
11.9095
13.4487
15.0033
16.546
18.1601
19.7048
21.429
22.7318
24.6723
-34.3678
-34.2047
-32.4015
-32.6533
-30.7492
-30.5586
-28.9486
-28.1485
-26.7645
-25.5619
-24.1624
-22.7072
-21.1536
-19.4874
-17.7446
-15.7915
-13.7756
-11.1971
-8.93174
-5.54066
-44.7506
-48.7431
-48.5806
-51.5272
-51.8238
-54.452
-55.2604
-57.3453
-58.4416
-59.8359
-60.5447
-60.9051
-60.6707
-59.9753
-58.8924
-57.4643
-55.9629
-54.1098
-52.553
-49.0859
-9.55302
-15.099
-15.9154
-20.4857
-22.0533
-26.3267
-28.811
-32.9149
-36.1925
-40.1899
-43.6792
-47.1106
-49.9529
-52.2915
-53.905
-54.8976
-55.2267
-55.0614
-55.5634
-54.9731
35.5614
32.6252
33.2984
30.371
31.0417
28.6921
28.7376
27.0727
26.5118
25.2438
24.3227
23.0992
21.7819
20.0589
17.9587
15.4906
13.0927
11.7413
10.3677
6.34187
39.0811
39.4761
41.5145
40.2816
42.8237
41.9156
43.5895
43.3349
44.0004
43.8355
43.7197
43.2423
42.6409
41.903
41.1423
40.3926
39.7024
39.0669
38.8865
37.6003
16.0479
16.9389
20.6675
19.7605
23.9572
23.9872
27.0112
28.2885
30.4231
32.1139
33.8099
35.2545
36.3921
37.1203
37.4713
37.6581
38.2034
39.4227
40.7544
42.0435
-10.0128
-11.4447
-7.77054
-10.5622
-6.67491
-7.76491
-5.43578
-4.65047
-2.9477
-1.32566
0.520203
2.51729
4.64094
6.88718
9.19164
11.6011
13.9543
16.4756
18.5648
21.5509
-7.90276
-12.1452
-9.90726
-16.4498
-15.9485
-20.5556
-22.2778
-25.3918
-27.6901
-30.0711
-32.1207
-33.9391
-35.4346
-36.4966
-36.9428
-36.396
-34.7943
-32.3244
-30.7134
-27.6766
1.38111
-6.39069
1.29825
-6.34458
-5.02718
-9.13733
-11.2035
-14.6098
-17.7596
-21.261
-24.7878
-28.4271
-32.0583
-35.5321
-38.5548
-40.6455
-41.0864
-40.9023
-41.3373
-40.1305
25.6677
2.82213
10.8293
-0.458513
-3.30889
-10.0919
-15.1119
-20.431
-24.9913
-29.0084
-32.2346
-34.6135
-36.0294
-36.3913
-35.6137
-33.4494
-30.0201
-26.7734
-24.3008
-23.0333
713.09
630.428
581.244
524.958
475.871
428.475
384.376
342.696
303.45
266.362
231.273
197.995
166.345
136.333
108.116
80.9616
55.1811
34.8089
10.932
-26.3258
716.219
633.557
584.374
528.088
479.002
431.607
387.508
345.828
306.583
269.494
234.405
201.127
169.477
139.465
111.247
84.0926
58.3111
37.9363
14.0578
-23.1995
28.8147
5.96943
13.9769
2.68945
-0.160429
-6.94298
-11.9626
-17.2812
-21.8411
-25.8577
-29.0834
-31.4619
-32.8773
-33.2387
-32.4601
-30.294
-26.8645
-23.6175
-21.1434
-19.878
4.52183
-3.25164
4.43632
-3.2078
-1.89162
-6.00311
-8.07063
-11.4784
-14.6298
-18.1328
-21.6614
-25.3025
-28.9354
-32.4105
-35.4337
-37.5236
-37.964
-37.7818
-38.22
-37.0148
-4.79573
-9.04119
-6.80507
-13.3493
-12.8505
-17.4599
-19.1843
-22.3009
-24.6017
-26.9854
-29.0376
-30.8586
-32.3565
-33.4205
-33.8677
-33.3206
-31.7182
-29.2496
-27.6405
-24.603
-6.9298
-8.36287
-4.68799
-7.47985
-3.59242
-4.68255
-2.3534
-1.56798
0.134952
1.7573
3.60353
5.60105
7.72511
9.97183
12.2769
14.6875
17.0424
19.566
21.658
24.6474
19.1771
20.067
23.7972
22.8891
27.0863
27.1165
30.1397
31.4172
33.5505
35.2404
36.9349
38.3783
39.5152
40.2448
40.5999
40.795
41.3507
42.5787
43.9136
45.2047
42.1822
42.582
44.6209
43.3907
45.9337
45.0288
46.7042
46.4544
47.1239
46.9655
46.8568
46.3881
45.7963
45.0689
44.3192
43.5809
42.9001
42.2672
42.0874
40.8078
38.8181
35.8928
36.5702
33.6507
34.329
31.9873
32.0407
30.3836
29.8295
28.5674
27.6502
26.4287
25.1104
23.3834
21.2762
18.7991
16.3928
15.0406
13.6739
9.6474
-6.28647
-11.8339
-12.6506
-17.2227
-18.7919
-23.0669
-25.5528
-29.658
-32.9363
-36.9332
-40.4205
-43.8487
-46.6867
-49.0209
-50.6305
-51.6201
-51.9481
-51.7834
-52.2892
-51.7138
-41.5671
-45.5691
-45.4086
-48.3581
-48.6585
-51.289
-52.1006
-54.1882
-55.2872
-56.684
-57.3953
-57.7591
-57.5296
-56.8415
-55.7681
-54.351
-52.8603
-51.0164
-49.4654
-46.004
-31.2836
-31.1281
-29.3277
-29.5845
-27.6851
-27.5005
-25.8964
-25.1038
-23.7276
-22.534
-21.1437
-19.6981
-18.1538
-16.496
-14.7603
-12.8122
-10.7987
-8.21783
-5.94907
-2.55517
-3.41046
-1.31999
0.872183
1.86246
4.09294
5.23819
7.15665
8.61182
10.2813
11.8512
13.4243
14.9846
16.5246
18.0805
19.6249
21.2413
22.7882
24.5146
25.8186
27.7621
16.8186
19.249
21.2628
22.5939
24.5192
25.7068
27.3235
28.611
29.9701
31.2444
32.4819
33.6956
34.8896
36.1
37.3242
38.6366
39.9322
41.4077
42.5156
44.065
38.2444
40.4697
41.8209
43.0099
44.4034
45.2967
46.4841
47.4108
48.4115
49.3667
50.3454
51.365
52.4352
53.5576
54.7273
55.9251
57.094
58.2995
59.1416
60.2196
55.2544
57.1186
57.9836
59.2124
60.3854
61.4697
62.7874
63.9296
65.0729
65.9523
66.4984
66.4897
65.8194
64.4419
62.6124
60.8344
59.9595
59.8427
60.3562
60.0602
72.8596
72.928
72.2427
72.3093
72.2029
71.7085
71.0202
69.8393
68.295
66.1743
63.5217
60.2734
56.5024
52.3867
48.4277
45.2361
43.1865
42.2134
42.5023
40.8758
58.8957
55.8701
52.7273
49.882
47.0903
44.4649
42.266
40.1436
38.1181
36.0139
33.884
31.674
29.4422
27.2725
25.3021
23.6842
22.8991
23.587
23.8806
20.0618
20.3445
13.6018
8.44451
4.60474
0.788098
-3.20645
-7.46742
-12.093
-16.9138
-21.7405
-26.2943
-30.4621
-34.0855
-37.0285
-39.2332
-40.6144
-41.2215
-41.9823
-42.9999
-44.4405
-53.0844
-54.8965
-53.9908
-52.2519
-51.7728
-51.9264
-52.6093
-53.6734
-54.9087
-56.1132
-57.1295
-57.918
-58.4446
-58.6734
-58.6671
-58.3971
-57.9686
-57.0247
-56.2179
-54.1909
-3.68426
-2.1919
-0.748652
0.448267
-0.631024
-2.66498
-6.2616
-10.0235
-13.7623
-17.2041
-20.3082
-22.9705
-25.1526
-26.788
-27.8855
-28.2669
-28.1093
-26.6689
-24.6625
-22.0989
)
;

boundaryField
{
    outletWall
    {
        type            fixedValue;
        value           uniform 0;
    }
    fineWalls
    {
        type            zeroGradient;
    }
    fineFrontAndBack
    {
        type            zeroGradient;
    }
    fineplugLeft
    {
        type            cyclicAMI;
        value           nonuniform List<scalar> 
20
(
-21.3719
-22.2048
-23.0963
-23.372
-22.6981
-21.6668
-20.1362
-18.2558
-16.0511
-13.6228
-10.8307
-7.88182
-5.57233
-3.24131
3.63136
3.85378
2.63774
-2.28692
-6.60461
-9.09284
)
;
    }
    fineplugRight
    {
        type            cyclicAMI;
        value           nonuniform List<scalar> 
20
(
-18.4609
-19.1917
-19.9862
-20.2668
-19.5828
-18.5232
-16.9548
-15.0316
-12.7791
-10.3069
-7.48121
-4.47418
-2.09786
-0.471465
6.94316
7.27778
6.11495
1.10249
-3.39434
-6.04089
)
;
    }
    inletOutletLeft
    {
        type            cyclicAMI;
        value           nonuniform List<scalar> 
20
(
-21.3719
-22.2048
-23.0963
-23.372
-22.6981
-21.6668
-20.1362
-18.2558
-16.0511
-13.6228
-10.8307
-7.88182
-5.57233
-3.24131
3.63136
3.85378
2.63774
-2.28692
-6.60461
-9.09284
)
;
    }
    inletLeft
    {
        type            zeroGradient;
    }
    inletWallsLeft
    {
        type            zeroGradient;
    }
    inletFacesLeft
    {
        type            zeroGradient;
    }
    inletOutletRight
    {
        type            cyclicAMI;
        value           nonuniform List<scalar> 
20
(
-18.4609
-19.1917
-19.9862
-20.2668
-19.5828
-18.5232
-16.9548
-15.0316
-12.7791
-10.3069
-7.48121
-4.47418
-2.09786
-0.471465
6.94316
7.27778
6.11495
1.10249
-3.39434
-6.04089
)
;
    }
    inletRight
    {
        type            zeroGradient;
    }
    inletWallsRight
    {
        type            zeroGradient;
    }
    inletFacesRight
    {
        type            zeroGradient;
    }
}


// ************************************************************************* //
