/*--------------------------------*- C++ -*----------------------------------*\
| =========                 |                                                 |
| \\      /  F ield         | OpenFOAM: The Open Source CFD Toolbox           |
|  \\    /   O peration     | Version:  4.1                                   |
|   \\  /    A nd           | Web:      www.OpenFOAM.org                      |
|    \\/     M anipulation  |                                                 |
\*---------------------------------------------------------------------------*/
FoamFile
{
    version     2.0;
    format      ascii;
    class       volScalarField;
    location    "29";
    object      p;
}
// * * * * * * * * * * * * * * * * * * * * * * * * * * * * * * * * * * * * * //

dimensions      [0 2 -2 0 0 0 0];

internalField   nonuniform List<scalar> 
1680
(
68291.7
-30765.1
6013.08
-11685.4
-1750.49
-7332.65
-5000.46
-3921.99
-4999.05
-4619.13
-4473.91
-4338.99
-2805.76
-4185.75
-3624.52
-3595.09
-3545.87
-2013.61
-2615.73
-4306.87
-2944.1
-2985.77
-2558.94
-2319.22
-2178.96
-2001.14
-1846
-1677.06
-1532.66
-1340.43
-975.72
-825.454
-840.695
-812.269
-886.145
-822.3
-719.179
-623.843
-485.768
-222.55
45.8625
-368.661
113.871
205.987
-18.2103
50.6593
346.103
517.317
247.846
602.407
705.501
540.149
600.223
811.006
978.455
805.063
860.917
1037.09
1204.87
1012.26
-13611.7
-4471.98
-13142.8
-5772.33
-1209.78
1883.48
1704.89
1518.65
1356.4
1354.03
1621.05
1708.34
1648.27
1475.04
1407.98
1245.31
1688.21
1548.92
269.732
-16802.9
-4861.87
-15057.6
-6728.44
-1474.67
1836.08
1577.7
1329.83
1174.41
1183.66
1549.36
1665.47
1579.07
1388.52
1300.82
1046.17
1564.34
1405.43
-250.493
-20046.9
-5336.27
-16960.7
-7679.63
-1687.36
1788.01
1447.99
1128.74
964.297
980.745
1464.23
1601.83
1496.52
1280.28
1182.62
813.764
1403.22
1234.01
-830.937
-23384.4
-5878.66
-18761.5
-8585.54
-1812.56
1752.46
1336.06
939.474
742.404
759.141
1363.5
1512.91
1399.27
1151.81
1053.57
542.689
1205.35
1035.38
-1455.42
-26885.5
-6505.48
-20363.6
-9381.56
-1814.52
1737.97
1259.03
787.513
534.956
546.166
1246.59
1399.04
1286.98
1006.05
913.649
229.623
975.495
807.647
-2118.13
-30482.6
-7238.23
-21657.7
-9991.77
-1671.14
1739.01
1214.12
680.89
363.892
370.513
1115.7
1264.12
1160.4
845.918
763.655
-120.22
713.81
580
-2749.1
-34151.9
-8095.81
-22585.3
-10408.3
-1378.16
1731.69
1172.17
601.704
232.114
239.763
974.47
1112.97
1020.37
674.002
605.475
-488.733
427.892
385.295
-3414.18
-37847.3
-9102.25
-23055.4
-10585.3
-944.172
1675.42
1092.44
522.169
125.75
133.186
828.172
951.797
869.481
493.716
442.823
-845.361
144.207
175.259
-3845.94
-41644.2
-10280.3
-23213.4
-10256.8
-367.482
1521.97
942.741
426.967
30.0867
21.5466
679.669
783.465
708.058
306.865
279.047
-1155.77
-111.445
-67.3776
-4436.46
-45339.5
-11739.3
-23230
-9809.29
304.059
1238.28
711.855
318.99
-59.7837
-104.9
536.771
616.528
543.092
119.715
120.283
-1397.43
-318.369
-291.653
-4963.15
-49407.7
-13565.4
-23388.9
-10262.7
884.809
836.426
419.535
213.847
-139.473
-240.524
394.163
442.991
365.331
-72.5793
-36.9752
-1577.17
-475.715
-497.093
-5448.56
-52718
-16278.5
-23756.6
-9948.85
1211.94
359.979
117.521
138.841
-199.998
-356.494
274.654
290.88
203.061
-248.791
-178.783
-1711.66
-604.325
-724.684
-5899.71
-58030.8
-19669.3
-24065
-8237.13
1273.24
-88.1813
-109.822
115.161
-240.766
-450.066
136.803
102.413
-6.92797
-452.598
-337.112
-1828.31
-731.178
-907.944
-6200.03
-58541
-23376.8
-24076.7
-5116.72
1150.43
-323.843
-173.069
100.759
-272.917
-494.337
83.1499
16.4916
-113.528
-572.393
-433.688
-1907.57
-856.681
-942.923
-6570.09
-70380.5
-24656.3
-23660.1
-866.182
837.526
-362.621
-144.493
58.9425
-315.857
-615.806
-124.49
-282.911
-474.655
-871.383
-653.944
-2011.3
-985.132
-994.74
-6552.49
-54573.5
-28311.9
-23845.8
2605.42
-21.5042
-406.002
-129.583
0.483039
-375.602
-615.201
46.0126
-68.6837
-251.155
-717.42
-546.839
-1985.65
-1077.34
-1559.31
-7075.15
-104466
-20682.7
-24534.8
5640.61
-918.183
-329.628
-130.451
-20.1097
-390.33
-815.83
-620.827
-1004.53
-1423.6
-1614.94
-1181.05
-2155.46
-1081.99
-1111.24
-6019.06
4468.26
-38302.6
-10770.6
12948.2
-766.618
-214.848
-114.958
8.60656
-332.613
-307.945
660.714
716.988
654.806
2.82547
-34.6946
-1735.7
-1023.83
2339.2
-8593.49
-255202
2315.01
15962
4033.68
-1591.54
-390.394
-164.521
-138.247
-458.956
-1014.7
-2491.35
-3628.05
-4965.23
-4287.02
-3036.82
-2420.65
-1264.36
-3097.89
-3380.38
533385
-338832
-130263
-15049
-2768.36
-646.722
-212.373
-334.654
-407.939
1158.1
4749.33
6358.89
8218.6
6042.12
4174.25
-150.556
90.0133
-18001.8
-20260
-523.851
-530.865
-533.836
-538.787
-540.211
-540.996
-539.841
-537.378
-533.871
-531.024
-529.294
-540.876
-567.967
-595.873
-607.785
-602.986
-593.414
-585.103
-576.238
-570.867
-577.449
-575.86
-573.75
-570.568
-566.558
-561.663
-555.968
-549.504
-542.346
-534.7
-527.226
-521.963
-520.676
-523.335
-528.305
-531.457
-531.851
-531.7
-531.3
-532.625
-528.962
-530.441
-530.958
-531.687
-531.927
-531.914
-531.458
-530.596
-529.225
-527.304
-524.827
-522.212
-520.434
-520.428
-521.839
-523.155
-524.379
-525.301
-526.317
-526.564
-536.397
-536.271
-536.167
-536.037
-535.87
-535.677
-535.424
-535.13
-534.767
-534.346
-533.847
-533.278
-532.636
-532.032
-531.581
-531.326
-531.112
-531.088
-531.12
-531.061
-530.156
-530.349
-530.379
-530.49
-530.524
-530.57
-530.568
-530.555
-530.504
-530.436
-530.336
-530.223
-530.089
-529.954
-529.804
-529.671
-529.521
-529.418
-529.185
-529.122
-530.957
-530.981
-530.963
-530.981
-530.97
-530.974
-530.959
-530.95
-530.925
-530.9
-530.86
-530.818
-530.762
-530.705
-530.631
-530.568
-530.478
-530.42
-530.286
-530.183
-529.409
-529.491
-529.507
-529.565
-529.592
-529.635
-529.661
-529.694
-529.716
-529.742
-529.758
-529.776
-529.785
-529.798
-529.798
-529.809
-529.797
-529.812
-529.778
-529.783
-529.073
-529.127
-529.137
-529.179
-529.197
-529.232
-529.253
-529.283
-529.304
-529.33
-529.351
-529.374
-529.392
-529.415
-529.428
-529.452
-529.458
-529.488
-529.48
-529.513
-528.331
-528.394
-528.41
-528.458
-528.483
-528.524
-528.551
-528.588
-528.617
-528.65
-528.68
-528.711
-528.739
-528.771
-528.795
-528.83
-528.848
-528.889
-528.895
-528.947
-527.823
-527.878
-527.893
-527.937
-527.959
-527.997
-528.023
-528.057
-528.085
-528.116
-528.145
-528.176
-528.204
-528.235
-528.261
-528.295
-528.315
-528.356
-528.365
-528.419
-527.256
-527.312
-527.327
-527.37
-527.393
-527.43
-527.457
-527.491
-527.519
-527.551
-527.58
-527.611
-527.64
-527.671
-527.698
-527.732
-527.753
-527.794
-527.805
-527.859
-526.751
-526.803
-526.817
-526.858
-526.88
-526.915
-526.94
-526.972
-527
-527.03
-527.058
-527.087
-527.116
-527.144
-527.172
-527.203
-527.225
-527.263
-527.275
-527.326
-526.252
-526.302
-526.317
-526.356
-526.377
-526.411
-526.435
-526.466
-526.493
-526.522
-526.549
-526.577
-526.605
-526.632
-526.659
-526.688
-526.711
-526.746
-526.759
-526.808
-525.781
-525.828
-525.842
-525.879
-525.9
-525.932
-525.956
-525.985
-526.011
-526.038
-526.065
-526.091
-526.119
-526.144
-526.171
-526.197
-526.22
-526.253
-526.266
-526.313
-525.328
-525.372
-525.386
-525.421
-525.441
-525.472
-525.494
-525.522
-525.546
-525.572
-525.598
-525.623
-525.649
-525.673
-525.7
-525.724
-525.748
-525.777
-525.791
-525.835
-524.909
-524.95
-524.963
-524.996
-525.013
-525.042
-525.063
-525.088
-525.111
-525.135
-525.158
-525.181
-525.205
-525.226
-525.252
-525.273
-525.297
-525.322
-525.338
-525.377
-524.514
-524.551
-524.566
-524.598
-524.614
-524.643
-524.663
-524.687
-524.709
-524.732
-524.754
-524.776
-524.798
-524.818
-524.842
-524.858
-524.884
-524.902
-524.918
-524.952
-524.114
-524.142
-524.153
-524.185
-524.198
-524.224
-524.244
-524.266
-524.288
-524.311
-524.335
-524.359
-524.384
-524.408
-524.436
-524.456
-524.49
-524.505
-524.531
-524.569
-523.84
-523.849
-523.834
-523.855
-523.855
-523.862
-523.867
-523.872
-523.878
-523.884
-523.892
-523.901
-523.913
-523.928
-523.948
-523.969
-524.008
-524.029
-524.101
-524.158
-523.875
-523.933
-523.895
-523.884
-523.867
-523.849
-523.83
-523.809
-523.787
-523.762
-523.734
-523.703
-523.668
-523.629
-523.586
-523.537
-523.484
-523.415
-523.374
-523.211
1227.46
1351.35
1221.45
1251.17
1370.36
1542.48
1391.5
1414.59
1516.51
1682.72
1505.63
1638.39
1749.66
1631.99
1635.16
1702.22
1825
1697.5
1760.86
1767.76
1834.98
1849.5
1848.36
1856.31
1863.88
1872.93
1879.73
1900.13
1914.22
1954.77
1960.56
1965.52
1971.16
1976.96
1984
1992.32
2000.65
2004.96
1984.49
2005.54
1996.91
2036.62
2002.94
2024.09
2013.8
2028.23
2037.8
2027.6
2037.46
2034.66
2041.03
2044.12
2039.89
2043.86
2044.3
2040.85
2041.58
2040.72
2040.36
2040.22
774.004
709.107
340.036
745.629
1320.99
2045.17
2215.57
2264.58
2137.78
2039.73
1983.71
1953.43
1945.02
1964.42
1981.97
1938.5
1952.32
2070.79
2027.23
776.891
667.878
279.673
715.59
1305.29
2037.63
2211.09
2260.28
2134.08
2037.91
1982.33
1952.07
1941.73
1960.82
1980.01
1934.31
1946.97
2067.01
2024.78
794.384
592.216
194.868
682.321
1278.2
2025.87
2203.92
2253.79
2128.9
2035.03
1980.29
1949.98
1938.17
1952.32
1966.76
1930.2
1948.29
2062.83
2017.99
746.439
505.994
89.2014
636.736
1242.34
2011.27
2194.69
2245.93
2122.04
2030.67
1977.3
1946.93
1934.09
1942.88
1951.94
1935.96
1961.25
2065.19
2009.5
630.732
404.307
-34.5173
580.684
1199.44
1995.63
2184.21
2237.6
2114.03
2025.15
1973.48
1943.04
1929.36
1933.83
1939.83
1943.68
1975.55
2070.92
2003.27
463.735
285.779
-180.85
512.251
1151.21
1980.18
2173.05
2229.17
2104.79
2018.25
1968.69
1938.28
1923.72
1925.3
1928.1
1947.66
1982.48
2076.52
2000.91
246.121
150.992
-355.739
430.155
1098.09
1966.15
2161.75
2220.73
2094.31
2009.85
1962.84
1932.57
1917.19
1916.97
1916.67
1948.31
1977.93
2079.12
2001.42
-23.6995
-2.15613
-567.031
331.318
1039.85
1954.38
2150.77
2212.27
2082.42
1999.76
1955.82
1925.75
1909.83
1908.46
1905.41
1946.11
1963.63
2078.68
2000.98
-348.149
-176.853
-824.662
211.468
975.454
1945.49
2140.45
2203.54
2068.87
1987.78
1947.54
1917.79
1901.74
1899.38
1893.76
1941.27
1942.89
2076.48
1998.26
-732.901
-376.595
-1141.23
64.6674
903.1
1939.35
2130.95
2194.12
2053.3
1973.68
1937.96
1908.67
1893.08
1889.23
1881.09
1933.65
1918.62
2072.01
1993.35
-1186.4
-605.248
-1532.39
-116.734
820.12
1935.29
2122.21
2183.23
2035.17
1957.1
1927.06
1898.28
1883.99
1877.44
1866.88
1923.02
1895.44
2064.56
1983.3
-1719.46
-866.845
-2016.85
-342.176
723.169
1934.67
2113.61
2169.76
2013.62
1937.51
1914.71
1886.47
1874.5
1863.34
1850.71
1908.6
1878.29
2055.84
1968.76
-2345.65
-1164.9
-2615.56
-622.516
608.628
1938.09
2104.03
2152.32
1987.49
1914.06
1900.62
1873.21
1864.39
1846.03
1832.11
1889.95
1868.62
2042.85
1944.28
-3081.35
-1502.03
-3350.07
-969.269
472.489
1944.09
2092.2
2129.02
1955.3
1885.59
1884.28
1858.37
1853.29
1824.21
1809.93
1866.54
1863.77
2025.63
1909.46
-3946.65
-1878.08
-4240.17
-1393.37
311.114
1951.37
2076.14
2097.41
1915.19
1850.57
1864.95
1841.78
1840.47
1796.03
1782.29
1836.38
1861.82
1996.29
1850.05
-4964.08
-2291.37
-5300.97
-1903.69
121.681
1957.87
2053.1
2054.37
1864.65
1806.73
1841.48
1823.58
1825.14
1759.81
1746.75
1796.62
1860.91
1953.73
1738.22
-6163.49
-2732.14
-6540.91
-2505.65
-98.1725
1960.95
2019.58
1995.91
1801.33
1751.65
1812.36
1803.87
1805.36
1714.31
1702.39
1741.76
1859.67
1900.57
1576.75
-7571.34
-3196.01
-7960.1
-3200.66
-350.729
1957.47
1971.51
1917.44
1723.28
1683.25
1776.38
1783.32
1779.56
1659.68
1649.03
1666.59
1853.32
1840.2
1359.3
-9243.28
-3649.74
-9549.78
-3984.34
-629.858
1945.01
1904.7
1814.07
1626.67
1598.07
1733.07
1761.98
1747.03
1602.02
1583.61
1559.57
1828.98
1764.31
1073.66
-11181.9
-4112.53
-11289.3
-4847.67
-921.194
1920.89
1815.84
1681.56
1506.14
1490.49
1681.67
1738.29
1704.27
1543.17
1502.97
1415.63
1776.17
1667.18
710.771
2725.48
2642.81
2593.62
2537.43
2488.49
2441.34
2397.56
2356.29
2317.52
2280.96
2246.43
2213.71
2182.59
2152.98
2124.87
2097.44
2070.88
2049.31
2025.13
1989.5
2035.93
2013.82
2021.92
2011.06
2008.39
2001.9
1997.06
1991.91
1987.44
1983.42
1980.09
1977.51
1975.8
1975.04
1975.39
1976.82
1979.05
1982.48
1986.56
1989.44
2029.24
2023.26
2032.11
2025.94
2028.83
2026.35
2026.05
2024.48
2023.26
2021.79
2020.4
2019.09
2017.95
2017.02
2016.35
2015.96
2015.79
2016.12
2016.78
2017.82
2044.06
2039.96
2042.64
2036.4
2037.33
2033.38
2032.25
2029.79
2028.15
2026.36
2024.87
2023.55
2022.47
2021.61
2020.88
2020.23
2019.62
2018.55
2017.13
2015.4
2007.52
2002.87
2004.29
1999.49
2000.42
1997.09
1996.69
1994.65
1993.63
1992.2
1991.11
1990.03
1989.17
1988.43
1987.78
1986.95
1985.67
1984.25
1981.83
1981.42
1978.92
1975.19
1976.57
1973.07
1974.03
1971.16
1970.96
1968.86
1967.75
1965.95
1964.4
1962.76
1961.36
1960.21
1959.31
1958.62
1958.23
1958.42
1958.72
1960.87
1975.5
1973.94
1976.25
1974.06
1976.21
1974.51
1975.61
1974.82
1975.09
1974.81
1974.8
1974.82
1975.12
1975.87
1977.1
1978.9
1980.97
1983.77
1985.8
1989.21
1999.83
2000.64
2003.43
2002.95
2006.02
2006.14
2008.46
2009.53
2011.35
2012.95
2014.71
2016.53
2018.43
2020.44
2022.49
2024.67
2026.81
2029.14
2030.96
2033.81
2025.6
2027.51
2029.95
2030.23
2033
2033.65
2035.78
2037.07
2038.75
2040.28
2041.82
2043.35
2044.83
2046.31
2047.78
2049.32
2050.85
2052.56
2053.9
2055.63
2051.01
2052.96
2054.76
2055.17
2057.26
2057.78
2059.34
2060.16
2061.2
2061.98
2062.68
2063.29
2063.92
2064.67
2065.67
2066.92
2068.29
2069.69
2070.72
2071.78
2063.95
2065.7
2066.82
2067.4
2068.97
2069.58
2071.05
2072
2073.24
2074.26
2075.24
2076.02
2076.49
2076.43
2075.7
2074.3
2072.86
2071.71
2071.71
2071.28
2085.72
2085.09
2085.5
2084.89
2085.35
2084.74
2084.76
2083.9
2082.99
2081.27
2078.93
2075.59
2071.25
2066.06
2060.66
2055.82
2052.25
2050.61
2050.35
2047.05
2048.14
2042.68
2040.13
2036.02
2033.29
2029.43
2026.24
2022.54
2019.37
2016.27
2013.68
2011.43
2009.68
2008.38
2007.53
2006.98
2006.57
2006.33
2004.96
2001.22
1998.05
1992.02
1989.18
1985.16
1981.99
1978.03
1974.5
1970.52
1966.79
1962.96
1959.26
1955.64
1952.28
1949.36
1947.13
1945.67
1945.05
1945.12
1945.06
1946.96
1973.26
1970.77
1969.16
1967.02
1965.45
1963.41
1961.71
1959.79
1958.15
1956.7
1955.7
1955.21
1955.38
1956.3
1957.96
1960.32
1962.93
1965.79
1967.98
1971.58
1980.26
1981.33
1983.9
1986.05
1988.08
1989.75
1991.59
1993.34
1995.2
1997.1
1999.08
2001.16
2003.3
2005.51
2007.7
2009.88
2011.89
2013.98
2015.63
2018.19
1997.5
2000.13
2003.42
2006.5
2009.19
2011.44
2013.64
2015.62
2017.51
2019.27
2020.92
2022.45
2023.86
2025.18
2026.38
2027.52
2028.51
2029.58
2030.33
2031.4
2032.75
2034.72
2035
2035.84
2036.48
2037.06
2037.68
2038.17
2038.66
2039.09
2039.48
2039.85
2040.22
2040.59
2040.97
2041.43
2041.89
2042.53
2043.01
2043.81
2038.33
2040.77
2040.29
2041.02
2041.3
2041.79
2042.23
2042.57
2042.88
2043.11
2043.32
2043.52
2043.67
2043.88
2044.12
2044.47
2044.86
2045.4
2045.77
2046.17
2090.9
2091.79
2091.18
2089.58
2086.98
2084.28
2081.33
2078.31
2075.27
2072.39
2069.39
2067.09
2064.5
2061.2
2058.19
2055.29
2052.56
2049.33
2046.82
2041.91
)
;

boundaryField
{
    outletWallLeft
    {
        type            fixedValue;
        value           uniform 0;
    }
    fineWallsLeft
    {
        type            zeroGradient;
    }
    fineFrontAndBackLeft
    {
        type            zeroGradient;
    }
    fineplugLeft
    {
        type            cyclicAMI;
        value           nonuniform List<scalar> 
20
(
-1007.9
-816.019
-938.858
-894.872
-867.961
-833.025
-801.072
-765.315
-733.629
-692.906
-618.579
-573.932
-622.513
-639.152
-663.457
-646.848
-618.567
-592.851
-558.144
-501.204
)
;
    }
    symmetryWallLeft
    {
        type            cyclicAMI;
        value           nonuniform List<scalar> 
20
(
1119.86
490.251
1608.05
1732.19
1330.47
1455.48
1509.1
1676.27
1723.32
1651.36
1422.26
1431.27
1600.11
1760.36
1902.19
-1065.49
-5310
-12216
-4292.25
-12396.8
)
;
    }
    inletOutletLeft
    {
        type            cyclicAMI;
        value           nonuniform List<scalar> 
20
(
-501.204
-558.144
-592.851
-618.567
-646.848
-663.457
-639.152
-622.513
-573.932
-618.579
-692.906
-733.629
-765.315
-801.072
-833.025
-867.961
-894.872
-938.858
-816.019
-1007.9
)
;
    }
    inletLeft
    {
        type            zeroGradient;
    }
    inletWallsLeft
    {
        type            zeroGradient;
    }
    inletFacesLeft
    {
        type            zeroGradient;
    }
    fineWallsRight
    {
        type            zeroGradient;
    }
    outletWallRight
    {
        type            zeroGradient;
    }
    fineplugRight
    {
        type            cyclicAMI;
        value           nonuniform List<scalar> 
20
(
2000.52
2007.36
2009.14
2013.31
2017.01
2021.14
2024.9
2031.63
2049.34
2046.47
2050.02
2053.32
2056.88
2060.45
2064.22
2068.05
2071.79
2073.93
2079.32
2073.83
)
;
    }
    fineFrontAndBackRight
    {
        type            zeroGradient;
    }
    symmetryWallRight
    {
        type            cyclicAMI;
        value           nonuniform List<scalar> 
20
(
1119.86
490.251
1608.05
1732.19
1330.47
1455.48
1509.1
1676.27
1723.32
1651.36
1422.26
1431.27
1600.11
1760.36
1902.19
-1065.49
-5310
-12216
-4292.25
-12396.8
)
;
    }
    inletOutletRight
    {
        type            cyclicAMI;
        value           nonuniform List<scalar> 
20
(
2000.52
2007.36
2009.14
2013.31
2017.01
2021.14
2024.9
2031.63
2049.34
2046.47
2050.02
2053.32
2056.88
2060.45
2064.22
2068.05
2071.79
2073.93
2079.32
2073.83
)
;
    }
    inletRight
    {
        type            zeroGradient;
    }
    inletWallsRight
    {
        type            zeroGradient;
    }
    inletFacesRight
    {
        type            zeroGradient;
    }
}


// ************************************************************************* //
