/*--------------------------------*- C++ -*----------------------------------*\
| =========                 |                                                 |
| \\      /  F ield         | OpenFOAM: The Open Source CFD Toolbox           |
|  \\    /   O peration     | Version:  4.1                                   |
|   \\  /    A nd           | Web:      www.OpenFOAM.org                      |
|    \\/     M anipulation  |                                                 |
\*---------------------------------------------------------------------------*/
FoamFile
{
    version     2.0;
    format      ascii;
    class       surfaceScalarField;
    location    "29";
    object      phi;
}
// * * * * * * * * * * * * * * * * * * * * * * * * * * * * * * * * * * * * * //

dimensions      [0 3 -1 0 0 0 0];

internalField   nonuniform List<scalar> 
3120
(
-257077
-238414
-257077
-217353
-39724
-217353
-203975
-13377.8
-192074
-11901
-192074
-186256
-5818.34
-178613
-7642.27
-178613
-172313
-6300.49
-172313
-167050
-5262.65
-160093
-6956.85
-160093
-155021
-5072.69
-155021
-151634
-3386.39
-146874
-4760.42
-146874
-144879
-139731
-3363.4
-137810
-135973
-134178
-132432
-130726
-129073
-127546
-126382
-125991
-115889
-10777
-116994
-117768
-117330
-116270
-115081
-113968
-113194
-113234
-105937
-7296.71
-105937
-105937
-98350.5
-7586.72
-98350.5
-98350.4
-98350.5
-91242.1
-7108.3
-91242.1
-91242.1
-84169.5
-7072.6
-84169.5
-84169.5
-84169.5
-77714.1
-6455.41
-77714.1
-77714.1
-77714.1
-72552.2
-5161.93
-27170.3
378563
-34144.5
202020
-42155.8
154689
-19156.4
-221729
9353.98
-317993
26644
-261582
35663.5
-172102
38809.4
-89042.4
36152.3
-24763.8
28103.1
26841
22139.9
37105.9
15051
29986.7
2643
45404.2
-6561.13
76992.9
-10727.6
85620.5
-11109.2
67770.8
4499.97
-43579.3
17355.6
-114548
87478.2
-24210
408901
-33338.7
211149
-39141.9
160492
-15217
-245654
13018
-346228
29115.8
-277680
37081.6
-180068
40349.1
-92309.9
37970.3
-22385.2
29542.5
35268.8
22534.9
44113.4
12844.2
39677.2
76.421
58171.9
-7424.83
84494.1
-11499.5
89695.2
-11686.3
67957.5
4101.75
-59367.5
17552.5
-127999
98575.2
-21207.5
436946
-32261.9
222203
-34988.7
163219
-10365.9
-270277
16874.6
-373468
30843
-291648
36721.8
-185947
39747.1
-95335.1
38358.2
-20996.3
30385.2
43241.9
22313
52185.6
10774.9
51215.4
-1345.37
70292.3
-7626.41
90775.1
-12010.4
94079.2
-12321
68268.2
3144.6
-74833
17363.4
-142218
108866
-18263.9
462739
-30858.4
234797
-29673.3
162034
-4462.77
-295488
21170.7
-399102
32187.7
-302665
34726.1
-188485
36607.6
-97216.6
36732.2
-21121.1
30232
49742
21413.2
61004.3
9014.49
63614.1
-1938.6
81245.3
-7622.51
96459
-12344.8
98801.5
-12979.9
68903.2
1662.77
-89475.7
16626.7
-157181
118384
-15383.2
486354
-29183.6
248598
-23227.2
156078
2661.25
-321376
26299.3
-422740
33956.9
-310323
32235.8
-186764
31712.3
-96693.2
33229.3
-22638
29037.4
53933.9
19977.6
70064.1
7554.19
76037.6
-2071.99
90871.5
-7569.8
101957
-12440.4
103672
-13446.7
69909.4
-115.872
-102806
15417.2
-172715
126215
-12567.7
507857
-27401.8
263432
-15820.8
144497
11157.3
-348354
32693.5
-444276
37053.7
-314683
31048.5
-180759
27156.8
-92801.5
29010
-24491.3
27107.5
55836.4
18229
78942.6
6360.79
87905.8
-1970.73
99203
-7424.34
107410
-12176.2
108424
-13391.3
71124.5
-1839.45
-114358
13691.2
-188245
132610
-9851.47
527346
-25693.9
279274
-7701.63
126504
21137
-377193
40623.4
-463763
41892.3
-315952
32303.7
-171170
24942.7
-85440.6
25579.2
-25127.7
24840.3
56575.3
16336
87447
5401.25
98840.6
-1743.17
106347
-7100.15
112767
-11462
112786
-12547.9
72210.4
-3161.1
-123745
11741.8
-203148
133574
-7284.46
544963
-24267.2
296257
853.951
101383
32669.3
-409008
50002
-481095
48074.1
-314024
35480.2
-158576
25219.4
-75179.8
23604.3
-23512.7
22514.5
57665
14392.2
95569.2
4643.89
108589
-1445.85
112437
-6560.26
117882
-10269.5
116495
-10783.1
72723.9
-3854.37
-130674
10818.8
-217821
141030
-4923.05
560928
-23914.1
315248
9019.53
68449.7
45723.5
-445712
60353.6
-495725
54545.1
-308216
38912.4
-142944
26387.9
-62655.3
22572.6
-19697.4
20236.6
60001.1
12463.2
103343
4058.96
116993
-1127.61
117624
-5829.83
122584
-8661.05
119326
-8377.74
72440.7
-4088.34
-134963
10190.3
-232100
146460
-2674.12
575320
-24989.3
337563
14656.7
28803.7
60073.3
-491129
70726.9
-506379
59807.1
-297296
40772.3
-123909
26509.4
-48392.3
21439.7
-14627.8
17959.1
63481.7
10606.2
110695
3624.7
123975
-824.989
122073
-4957.37
126716
-6769
121138
-5936.6
71608.2
-4496.21
-136404
8767.1
-245363
151840
-793.657
588591
-30178.5
366948
17836.6
-19211.3
75350.4
-548642
79650.1
-510679
61815.2
-279461
39142
-101236
24010
-33260.2
19325.5
-9943.22
15614.8
67192.4
8894.37
117416
3322.38
129547
-574.573
125970
-4007.6
130149
-4761.32
121892
-3930.15
70777.1
-5506.04
-134828
7431.79
-258301
154200
1972.46
599645
-33847.9
402769
36461.3
-89520.6
91209.7
-603391
85007.1
-504476
57801.7
-252256
31731.9
-75166
18034.2
-19562.6
16028.8
-7937.85
13167.6
70053.6
7373.22
123210
3147.07
133773
-355.822
129473
-3004.53
132798
-2753.32
121640
-2349.42
70373.1
-7066.2
-130111
6462.26
-271829
153705
5241.04
608457
-26750.3
434760
62287.4
-178558
106596
-647700
84387.4
-482267
44933.5
-212802
17203.9
-47436.4
10389.8
-12748.5
13233.6
-10781.5
10949.7
72337.5
6153.46
128007
3080.08
136846
-220.821
132774
-2057.07
134634
-967.538
120551
-896.51
70302.2
-8765.79
-122242
4640.46
-285236
153083
10286.8
612143
-13209.2
458256
90191.4
-281959
119118
-676627
76035
-439184
23570.3
-160337
741.26
-24607.4
6755.1
-18762.4
12422.2
-16448.7
8958.51
75801.1
5173.82
131791
3122.03
138898
-46.6647
135943
-1061.22
135649
844.487
118645
1141.5
70005.1
-10106.7
-110993
3080.65
-298423
149863
12530.3
616231
1637.65
469149
119716
-400037
125947
-682858
60357.2
-373594
3624.62
-103604
-6736.8
-14246
6764.21
-32263.4
11638
-21322.4
7575.02
79864.1
4679.36
134687
3211.55
140366
-155.933
139310
-459.57
135953
2101.72
116084
3822.12
68284.8
-10562.4
-96608.9
2177.81
-311163
144399
15754.2
613351
21900
463003
148942
-527079
123563
-657479
40114.7
-290146
-4039.37
-59450.2
-4154.39
-14131.1
3712.35
-40130.2
7879.89
-25490
5603.34
82140.6
4230.91
136059
3516.86
141080
251.112
142576
721.086
135483
4061.4
112744
7826.96
64519.1
-9661.77
-79120.2
518.804
-321344
139099
28938
608694
50821.5
441119
176286
-652543
108326
-589518
18036.4
-199857
-6922.69
-34491.1
-2228.79
-18825
-1317.27
-41041.7
3657.5
-30464.7
5301.87
80496.3
4444.25
136917
3246.3
142278
-1027.44
146850
-301.071
134756
3189.81
109253
11698.2
56010.8
-7477.42
-59944.6
643.962
-329465
127842
-28236.4
635910
57580
355303
193709
-788673
75574.4
-471383
-2212.1
-122071
-7320.86
-29382.4
-3458.84
-22687
-5781.4
-38719.1
-2360.47
-33885.6
3078.36
75057.5
5369.43
134626
6147.79
141500
3202.39
149795
4934.15
133024
5355.35
108831
19836.4
41529.8
-1924.38
-38183.9
2766.28
-334156
117231
263457
427048
190734
428026
181570
-779509
19341.3
-309154
-17389.4
-85339.9
-6112.73
-40659.1
-2690.58
-26109.2
-6012.75
-35397
-915.772
-38982.6
5219.41
68922.3
888.725
138957
-4709.7
147098
-12026.4
157112
-12027.9
133026
-9775.14
106579
30740.4
1014.31
17141.7
-24585.2
2851.46
-319866
80358
-1.00859e+06
346110
108789
-20236.8
-9369.2
-2957.78
-226.332
-2911.56
-6066.05
6083.9
27096.4
41482
46164
52908.4
59993.4
68584.9
38100.9
-76541.1
-895.875
-1098.59
-1349.72
-1330.93
-1916.51
-1354.17
-2394.13
-1359.45
-2816.99
-1372.26
-3187.1
-1376.35
-3511.82
-1380.91
-3783.42
-1381.05
-3964.93
-1345.95
-3952.84
-1176.19
-3602.36
-741.017
-2808.89
-119.184
-2014.82
311.387
-1323.01
81.7253
-978.157
-782.518
-879.124
-1159.15
-827.24
-1241
-717.858
-1222.09
-480.624
-1011.77
-440.132
-374.051
-724.544
-610.232
-1094.75
-922.194
-1042.21
-1237.98
-1043.66
-1554.86
-1055.39
-1867.95
-1063.26
-2179.32
-1069.55
-2484.29
-1076.07
-2743.72
-1086.53
-2825.32
-1094.59
-2495.78
-1070.55
-1642.85
-972.122
-509.415
-822.068
381.754
-809.456
560.374
-961.164
391.512
-990.298
153.223
-1002.74
-25.1384
-1043.76
-49.1261
-987.843
-489.259
-17.8559
-706.7
-21.7342
-1090.88
-15.4145
-1048.54
-31.5277
-1027.56
-58.2418
-1028.69
-94.162
-1027.34
-137.772
-1025.95
-191.165
-1022.68
-259.836
-1017.87
-343.404
-1011.02
-406.735
-1007.23
-365.901
-1012.96
-165.206
-1022.78
44.7403
-1019.41
79.8621
-996.301
72.2243
-982.666
65.3688
-995.904
65.6343
-1044.04
60.2424
-982.471
-429.016
-30.5298
-676.17
-53.5537
-1067.85
-79.991
-1022.11
-103.658
-1003.89
-126.003
-1006.34
-145.902
-1007.44
-162.956
-1008.89
-176.083
-1009.56
-183.486
-1010.47
-183.662
-1010.85
-180.453
-1010.44
-185.863
-1007.55
-206.28
-1002.36
-227.173
-998.517
-224.433
-999.042
-204.586
-1002.51
-188.984
-1011.51
-179.791
-1053.23
-122.19
-1040.07
-551.207
3.85183
-680.029
0.146039
-1064.15
-2.98482
-1018.98
-8.42618
-998.453
-15.1869
-999.587
-23.0755
-999.56
-31.8789
-1000.1
-41.4416
-999.999
-51.6207
-1000.3
-62.2431
-1000.23
-72.3085
-1000.38
-79.1601
-1000.7
-80.05
-1001.47
-76.2077
-1002.36
-73.1706
-1002.08
-75.192
-1000.5
-87.4854
-999.218
-111.928
-1028.79
-89.9385
-1062.07
-641.145
13.1961
-693.226
9.68405
-1060.64
4.50757
-1013.81
0.939218
-994.885
-2.57198
-996.077
-5.88847
-996.244
-9.12043
-996.866
-12.1961
-996.924
-15.1333
-997.36
-17.8715
-997.493
-20.4606
-997.792
-23.2486
-997.916
-26.8007
-997.923
-31.253
-997.912
-35.6054
-997.733
-38.1396
-997.962
-39.4972
-997.861
-49.8193
-1018.47
-49.2334
-1062.66
-690.378
17.6702
-710.898
14.8824
-1057.86
10.4003
-1009.32
7.68005
-992.167
4.91165
-993.31
2.09783
-993.432
-0.770047
-994
-3.63
-994.065
-6.49087
-994.5
-9.31625
-994.669
-12.0857
-995.024
-14.733
-995.27
-17.0791
-995.578
-19.0203
-995.972
-20.5719
-996.182
-22.0592
-996.475
-23.9052
-996.016
-29.6164
-1012.76
-31.0026
-1061.27
-721.381
19.7577
-730.654
17.0716
-1055.17
12.8322
-1005.08
10.811
-990.144
8.80233
-991.3
6.77631
-991.405
4.71305
-991.935
2.66339
-992.015
0.595378
-992.431
-1.46501
-992.608
-3.52104
-992.967
-5.57779
-993.213
-7.6316
-993.523
-9.75153
-993.851
-11.8662
-994.067
-13.9071
-994.434
-15.8691
-994.053
-20.7778
-1007.85
-23.9351
-1058.11
-745.316
20.3093
-750.966
17.0103
-1051.87
12.8752
-1000.95
10.9583
-988.229
9.0443
-989.388
7.11463
-989.477
5.15779
-989.98
3.22091
-990.08
1.27179
-990.484
-0.663989
-990.674
-2.5955
-991.037
-4.52263
-991.287
-6.41962
-991.628
-8.31435
-991.958
-10.1385
-992.245
-11.9537
-992.62
-13.7105
-992.298
-17.7476
-1003.82
-21.4452
-1054.42
-766.761
20.4428
-771.409
16.6205
-1048.05
12.8183
-997.149
11.1048
-986.515
9.35259
-987.635
7.58538
-987.709
5.78401
-988.179
3.99428
-988.29
2.18181
-988.671
0.372617
-988.864
-1.44675
-989.218
-3.27407
-989.46
-5.09371
-989.808
-6.94154
-990.11
-8.75806
-990.428
-10.5943
-990.783
-12.3512
-990.541
-16.1538
-1000.02
-20.4954
-1050.07
-787.257
20.3854
-791.794
15.9282
-1043.59
12.3605
-993.581
10.7358
-984.891
9.05158
-985.951
7.35903
-986.017
5.63581
-986.456
3.92608
-986.58
2.19444
-986.94
0.468281
-987.138
-1.2698
-987.48
-3.01379
-987.716
-4.75357
-988.069
-6.51851
-988.345
-8.25314
-988.693
-10.0185
-989.018
-11.6866
-988.873
-15.1823
-996.519
-20.1041
-1045.15
-807.361
20.2713
-812.063
15.2022
-1038.52
11.9164
-990.293
10.3877
-983.36
8.77688
-984.339
7.16222
-984.4
5.51631
-984.808
3.88252
-984.944
2.22477
-985.28
0.572253
-985.484
-1.09604
-985.81
-2.76923
-986.041
-4.44367
-986.393
-6.14241
-986.644
-7.81673
-987.018
-9.52837
-987.305
-11.1292
-987.271
-14.3721
-993.276
-19.8863
-1039.64
-827.247
20.1438
-832.207
14.4512
-1032.83
11.4344
-987.276
9.98214
-981.907
8.43523
-982.791
6.8887
-982.853
5.31195
-983.23
3.74729
-983.379
2.15831
-983.691
0.575626
-983.901
-1.0249
-984.209
-2.62739
-984.438
-4.23561
-984.784
-5.86366
-985.016
-7.47207
-985.409
-9.12022
-985.657
-10.6491
-985.742
-13.6298
-990.295
-19.7329
-1033.53
-846.98
20.018
-852.222
13.7036
-1026.51
10.9632
-984.534
9.58402
-980.526
8.10311
-981.308
6.6259
-981.374
5.11851
-981.721
3.62276
-981.881
2.10226
-982.168
0.588
-982.384
-0.945849
-982.673
-2.47911
-982.903
-4.02342
-983.238
-5.58171
-983.456
-7.12714
-983.862
-8.71207
-984.07
-10.1755
-984.277
-12.8994
-987.57
-19.5911
-1026.84
-866.571
19.9099
-872.131
12.9651
-1019.57
10.5013
-982.068
9.18995
-979.213
7.77566
-979.892
6.368
-979.964
4.92894
-980.28
3.50122
-980.452
2.04893
-980.714
0.60169
-980.936
-0.865433
-981.205
-2.32986
-981.437
-3.81092
-981.756
-5.29765
-981.968
-6.78147
-982.377
-8.30003
-982.551
-9.70202
-982.875
-12.1701
-985.101
-19.4443
-1019.57
-886.016
19.8441
-891.973
12.2559
-1011.98
10.0757
-979.886
8.83507
-977.97
7.49191
-978.547
6.15827
-978.629
4.78817
-978.908
3.42704
-979.088
2.04111
-979.326
0.655686
-979.548
-0.749205
-979.798
-2.15177
-980.032
-3.57615
-980.33
-4.99599
-980.547
-6.42683
-980.944
-7.87887
-981.097
-9.22678
-981.526
-11.4446
-982.882
-19.2817
-1011.73
-905.297
19.8673
-911.839
11.6139
-1003.72
9.74508
-978.017
8.60205
-976.826
7.35073
-977.295
6.1128
-977.39
4.82906
-977.624
3.54623
-977.805
2.2361
-978.016
0.916043
-978.228
-0.426359
-978.455
-1.77454
-978.684
-3.15238
-978.951
-4.52241
-979.176
-5.92702
-979.539
-7.3309
-979.693
-8.66541
-980.191
-10.6704
-980.877
-19.0351
-1003.36
-924.332
20.0763
-931.915
11.1017
-994.746
9.58965
-976.504
8.6048
-975.841
7.48331
-976.173
6.3718
-976.278
5.20328
-976.455
4.01825
-976.619
2.8006
-976.798
1.55944
-976.986
0.290995
-977.186
-0.995293
-977.397
-2.31645
-977.63
-3.63755
-977.855
-5.01855
-978.158
-6.37771
-978.334
-7.75749
-978.811
-9.59739
-979.037
-18.4186
-994.542
-942.751
20.7987
-952.713
11.0694
-985.017
9.96462
-975.399
9.25165
-975.127
8.35738
-975.279
7.43222
-975.352
6.42407
-975.446
5.35277
-975.548
4.21373
-975.658
3.00968
-975.781
1.74246
-975.918
0.417946
-976.072
-0.966287
-976.245
-2.38385
-976.437
-3.87308
-976.668
-5.32689
-976.879
-6.87753
-977.26
-8.53023
-977.384
-17.5616
-985.51
-960.313
22.2872
12.2711
11.8727
11.7459
11.4677
11.1159
10.67
10.1229
9.46514
8.68419
7.76619
6.6946
5.44971
4.01332
2.34518
0.465987
-1.79367
-4.17751
-14.6874
-72552.2
-68464.3
-4087.88
-68464.3
-68464.3
-68464.3
-65241
-3223.3
-65241
-65241
-65241
-61983.1
-3257.93
-61983.1
-61983.1
-58310.3
-3672.82
-58310.2
-58310.3
-58310.2
-54731.6
-3578.73
-54731.6
-54731.6
-52929.4
-1802.17
-52137.6
-51299.4
-50552.6
-49897.6
-49265.4
-48605.8
-47895.2
-47133.8
-45425.6
-909.853
-44541.6
-43600.7
-42597.7
-41529.1
-40381
-39128.7
-37734.4
-36165.5
-34474.7
-28021.2
-4940.13
-27578.7
-27578.7
-24567.7
-3010.98
-21172.9
-3394.8
-21172.8
-18304.8
-2868.02
-18304.7
-15567.2
-2737.49
-12666.3
-2900.83
-12666.2
-9877.36
-2788.77
-9877.4
-7448.57
-2428.74
-5233.28
-2215.35
-5233.3
-2603.29
-2630.17
-73.0624
-2535.44
-77.9663
1278.38
-1356.6
1278.15
1278.13
263.552
-263.7
-17888.8
18152.4
-28861.4
10972.5
-26509
-2352.38
-19157.2
-7351.82
-8758.82
-10398.4
-1292.9
-7465.98
5335.02
-6627.99
8825.86
-3490.9
10195.8
-1370.04
9917.48
278.264
9101.18
816.218
7608.06
1493.05
3467.93
4140.06
-1817.68
5285.55
-5213.95
3396.24
-3844.38
-1369.58
1159.49
-5003.95
2437.47
-14842.7
14579
-26418.4
29728
-29999.7
14553.8
-25029.3
-7322.9
-18122.9
-14258.2
-8162.82
-20358.6
-884.839
-14744
5043.24
-12556.1
8509.64
-6957.37
9851.01
-2711.51
9801.5
327.672
9245.43
1372.19
9487.17
1251.22
7966.79
5660.37
783.47
12468.8
-3632.24
7811.89
-994.66
-4007.19
3307.15
-9305.83
4387.79
-18379.2
32958.2
-26376.8
37725.6
-28541.3
16718.2
-24123.7
-11740.5
-17012.6
-21369.3
-7419.73
-29951.5
-233.649
-21930.1
5211.3
-18001.1
8446.28
-10192.4
9637.82
-3903.1
9536.13
429.29
9088.36
1819.9
9523.62
815.906
10066.3
5117.69
6577.62
15957.4
2917.28
11472.2
2352.46
-3442.36
4128.46
-11081.8
5980.84
-18312.7
51270.9
-24929.5
44342.4
-27427
19215.7
-23230.8
-15936.8
-16027.7
-28572.4
-6647.52
-39331.7
500.237
-29077.9
5622.23
-23123.1
8642.69
-13212.9
9730.82
-4991.33
9569.34
590.661
9203.52
2185.62
9483.07
536.262
10574.8
4025.9
10151.9
16380.3
8047.6
13576.5
4473.07
132.127
3884.44
-10493.2
7234.99
-17312.8
68583.7
-23691.4
50721
-26811.8
22336.1
-22399.6
-20349
-15119.3
-35852.8
-5863.07
-48587.9
1294.29
-36235.3
6184.58
-28013.5
9024.99
-16053.3
10025.2
-5991.59
9800.44
815.371
9363.18
2622.83
9501.65
397.752
10420.1
3107.46
10885.1
15915.2
9471.91
14989.7
3980.73
5623.32
2627.43
-9139.94
7647.12
-16281.2
84864.9
-22894.4
57334.1
-26640.6
26082.3
-21802.3
-25187.2
-14280.5
-43374.6
-5062.11
-57806.4
2140.86
-43438.3
6852.88
-32725.5
9535.97
-18736.5
10465.9
-6921.64
10186.5
1094.64
9608.94
3200.34
9600.08
406.513
10159.8
2547.63
10315.5
15759.6
8772.69
16532.5
2297.91
12098
1304.56
-8146.62
6522.88
-15485.4
100350
-22534.9
64383.6
-26905.3
30452.7
-21520.5
-30572.1
-13520
-51375
-4232.61
-67093.8
3044.69
-50715.6
7607.27
-37288.1
10137.5
-21266.7
10998.4
-7782.56
10675.6
1417.34
9957.45
3918.5
9773.77
590.17
9950.59
2370.79
9440.01
16270.2
7401.03
18571.5
814.664
18684.4
724.56
-8056.5
4458.76
-14980.8
115331
-22584.1
71986.9
-27606.4
35475
-21575.3
-36603.2
-12836.7
-60113.7
-3349.73
-76580.7
4029.59
-58094.9
8456.17
-41714.7
10814.4
-23625
11576.1
-8544.35
11217.2
1776.11
10411.7
4723.87
10071.2
930.632
9821.82
2620.1
8564.06
17527.9
5884.06
21251.4
-62.6435
24631.1
900.508
-9019.7
2458.44
-14757.4
130088
-23006.4
80235.9
-28740.7
41209.3
-21967.3
-43376.6
-12222.2
-69858.8
-2385.46
-86417.4
5131.25
-65611.6
9429.81
-46013.3
11578.1
-25773.2
12176.8
-9143.07
11768.1
2184.79
10937.2
5554.74
10497.1
1370.65
9756.88
3360.36
7710.9
19573.9
4382.45
24579.9
-553.09
29566.7
1171.79
-10744.5
892.901
-14793.5
144882
-23761.3
89203.7
-30293.8
47741.8
-22682.6
-50987.9
-11660.1
-80881.3
-1314.96
-96762.6
6385.55
-73312.2
10570
-50197.7
12465.9
-27669.2
12816.7
-9493.99
12304
2697.36
11466.7
6391.99
10975.5
1861.8
9687.05
4648.71
6842.88
22418
2997.59
28425.1
-674.306
33238.5
2101.26
-13520.2
126.159
-15074.3
159956
-24803.7
98933.1
-32222.9
55161
-23673.5
-59537.2
-11117
-93437.8
-112.332
-107767
7823.04
-81247.5
11916.6
-54291.3
13530.6
-29283.2
13544.2
-9507.56
12832.5
3408.99
11960.4
7264.12
11430.2
2392.01
9533.85
6545.06
5937.58
26014.3
1753.65
32609.1
-445.003
35437.2
3576.46
-17541.6
307.971
-15595.8
175552
-26082
109419
-34443.9
63522.9
-24843.2
-69137.9
-10532.7
-107748
1258.83
-119559
9471.67
-89460.4
13498.3
-58317.9
14821.1
-30606.1
14418.1
-9104.66
13392.7
4434.37
12442.6
8214.15
11850.8
2983.71
9266.98
9128.81
5014
30267.3
609.248
37013.8
-31.76
36078.1
4568.2
-22141.6
1865.11
-16358.4
191910
-27533.8
120595
-36826.9
72816
-26040.6
-79924.2
-9825.46
-123963
2855.39
-132240
11374.4
-97979.4
15331.7
-62275.1
16366.6
-31641.1
15485.3
-8223.33
14032.9
5886.76
12975.5
9271.53
12276.8
3682.41
8927.33
12478.3
4073.56
35121
-530.272
41617.7
375.11
35172.8
6328.36
-28094.8
3253.42
-17356.7
209267
-29081.6
132320
-39202.9
82937.2
-27075.4
-92051.7
-8868.96
-142170
4747.26
-145856
13564.3
-106796
17428.6
-66139.5
18176.3
-32388.8
16767.3
-6814.43
14795.2
7858.72
13624
10442.7
12765
4541.28
8598.66
16644.6
3109.39
40610.3
-1751.25
46478.3
759.958
32661.6
8213.7
-35548.6
10557.2
-18574.3
227841
-30629
144374
-41382.3
93690.5
-27754.2
-105680
-7539.79
-162384
7009.72
-160405
16085.7
-115873
19811.1
-69864.8
20254.4
-32832
18267.7
-4827.72
15719.3
10407.1
14451.4
11710.6
13348.1
5644.63
8270.98
21721.7
1973.44
46907.8
-3145.52
51597.2
1216.67
28299.4
10413.5
-44745.3
19168.6
-19989.3
247831
-32068.1
156453
-43186
104808
-27920.7
-120945
-5746.52
-184558
9696.39
-175848
18975.5
-125152
22513.2
-73402.6
22609.7
-32928.5
19970.9
-2189.01
16831.7
13546.3
15511.5
13030.8
13933.7
7222.3
7613.72
28041.7
323.467
54198.1
-4716.91
56637.6
1892.79
21689.7
12265.3
-55117.9
27855.1
-21565.8
269397
-33285.5
168173
-44464.9
115988
-27484.2
-137926
-3458.13
-208585
12809.5
-192116
22234.8
-134577
25562.3
-76730
25190.6
-32556.8
21716.6
1285.01
18022.5
17240.4
16711.6
14341.7
14093.5
9840.48
5978.84
36156.4
-2034.7
62211.6
-6317.46
60920.4
2768.2
12604.1
13790.2
-66139.9
37972.6
-23362.4
292759
-34181.3
178992
-45109.7
126916
-26411.3
-156624
-710.403
-234285
16274.7
-209101
25793.7
-144096
28929.3
-79865.7
27903.2
-31530.8
23332.9
5855.3
19183.6
21389.5
17616.2
15909.1
12898.1
14558.5
2933.16
46121.2
-4832.2
69976.9
-8095.49
64183.6
3661.35
847.186
15031.7
-77510.2
49746.3
-25056
317815
-34667.9
188603
-45010.3
137259
-24690.5
-176944
2413.75
-261390
19922.3
-226610
29469.3
-153643
32483.2
-82879.6
30734.8
-29782.3
24892.1
11698
20298
25983.7
17767.5
18439.6
10000.6
22325.5
-1006.58
57128.4
-7481.58
76452
-9675.95
66378
4202.74
-13031.4
16022.5
-89329.9
62545.6
-28213.3
-34655.7
-44074.9
-22289.2
5803.87
23486.2
32925.9
35942.7
33581.2
26487.3
21328.3
16870.1
6199.32
-4461.02
-9463.16
-10474.4
4464.32
16826.8
-674.077
1649.07
-1090.99
1391.91
-1516.93
1400.94
-1856.58
1314.65
-2156.01
1274.44
-2403.62
1222.61
-2607.6
1178.98
-2767.61
1135.01
-2885.73
1093.11
-2962.58
1051.85
-2998.5
1010.92
-2992.37
968.87
-2941.5
924.135
-2841.48
874.974
-2685.03
818.554
-2459.29
749.253
-2135.94
651.655
-1650.92
489.979
-926.925
251
48.0753
-184.077
1833.15
-414.245
1622.08
-658.392
1645.08
-857.836
1514.09
-1047.12
1463.72
-1201.7
1377.18
-1331.97
1309.25
-1433.16
1236.19
-1508.36
1168.31
-1557.24
1100.73
-1579.81
1033.48
-1573.98
963.038
-1536.76
886.923
-1465.04
803.25
-1355.7
709.209
-1200
593.559
-978.529
430.178
-668.749
180.198
-306.069
-111.682
-257.994
-129.756
1962.9
-294.847
1787.17
-419.083
1769.31
-509.112
1604.12
-588.6
1543.21
-641.249
1429.83
-682.232
1350.23
-707.108
1261.07
-719.662
1180.87
-714.472
1095.54
-682.44
1001.45
-612.309
892.904
-502.351
776.963
-362.31
663.206
-199.796
546.692
-16.3105
410.07
173.707
240.156
349.11
4.79072
360.243
-122.819
102.249
-54.2297
2017.13
-129.009
1861.95
-188.973
1829.28
-246.988
1662.13
-306.533
1602.75
-360.193
1483.49
-418.455
1408.49
-476.308
1318.92
-536.774
1241.33
-591.101
1149.87
-624.457
1034.8
-614.475
882.92
-551.032
713.519
-446.073
558.245
-314.311
414.928
-157.304
253.06
4.61472
78.2303
41.7718
-32.3754
79.2085
-160.262
181.457
-33.7074
2050.84
-110.32
1938.56
-167.561
1886.52
-226.831
1721.4
-289.935
1665.85
-349.51
1543.06
-415.474
1474.45
-480.527
1383.97
-550.325
1311.13
-621.224
1220.76
-692.74
1106.32
-755.934
946.112
-796.709
754.291
-804.147
565.682
-783.225
394.003
-744.71
214.543
-728.447
61.9645
-638.435
-122.389
-495.706
-302.993
-314.249
64.9668
1985.87
-13.315
2016.84
-33.2004
1906.4
-45.9342
1734.13
-53.7375
1673.66
-56.5037
1545.82
-53.3393
1471.29
-42.358
1372.98
-24.5405
1293.31
-4.78767
1201.01
5.08628
1096.44
-10.3248
961.521
-52.8382
796.802
-102.653
615.493
-142.72
434.065
-173.088
244.903
-137.752
26.6175
-153.312
-106.836
-180.984
-275.324
-495.233
175.18
1810.69
139.936
2052.08
165.197
1881.14
208.326
1691
266.032
1615.95
323.355
1488.5
393.017
1401.62
468.798
1297.2
556.248
1205.86
647.959
1109.3
734.823
1009.57
796.872
899.47
816.293
777.379
787.29
644.495
715.518
505.835
598.726
361.693
410.92
214.421
257.618
46.462
119.094
-136.803
-376.14
189.238
1621.45
198.854
2042.46
231.625
1848.37
283.872
1638.75
352.112
1547.71
415.618
1425
486.038
1331.2
557.24
1226
633.937
1129.16
711.263
1031.97
784.518
936.319
843.393
840.595
876.531
744.24
874.574
646.451
833.297
547.11
750.318
444.671
624.604
340.135
448.607
222.457
227.254
84.5477
-148.886
134.664
1486.78
175.605
2001.52
214.392
1809.58
265.402
1587.74
328.276
1484.83
388.128
1365.14
450.373
1268.95
510.96
1165.41
570.423
1069.69
625.549
976.842
674.391
887.475
714.33
800.654
742.871
715.696
756.371
632.949
748.837
554.641
708.223
485.283
618.819
429.536
462.403
378.871
239.966
306.979
91.08
46.3233
1440.46
97.6743
1950.17
151.473
1755.78
204.989
1534.22
262.42
1427.4
322.188
1305.37
384.135
1207.01
451.084
1098.46
524.175
996.6
606.789
894.228
698.499
795.765
796.473
702.68
893.094
619.074
973.347
552.695
1013.63
514.354
983.781
515.135
860.555
552.76
634.045
605.381
332.978
608.044
424.058
-57.6969
1498.15
-4.07163
1896.54
49.8038
1701.9
67.8182
1516.21
74.4822
1420.74
70.3192
1309.53
65.6349
1211.69
73.3919
1090.7
105.764
964.226
170.088
829.902
267.256
698.595
395.262
574.671
544.582
469.753
695.439
401.836
814.661
395.131
857.217
472.578
780.142
629.835
572.88
812.642
281.81
899.113
705.868
-184.795
1682.95
-260.754
1972.5
-321.929
1763.08
-436.388
1630.67
-577.564
1561.91
-741.565
1473.54
-909.658
1379.78
-1067.09
1248.13
-1200.84
1097.98
-1307.66
936.725
-1385.75
776.681
-1428.96
617.887
-1427.27
468.064
-1366.88
341.443
-1234.02
262.282
-1016.74
255.295
-717.637
330.733
-381.463
476.47
-115.22
632.873
590.648
12.451
1670.5
-136.888
2121.84
-304.005
1930.19
-451.42
1778.08
-597.423
1707.92
-753.457
1629.57
-917.652
1543.98
-1088.41
1418.89
-1263.06
1272.64
-1439.5
1113.16
-1616.32
953.508
-1788.24
789.801
-1942.18
622.003
-2052.1
451.363
-2076
286.182
-1957.27
136.569
-1655.54
29.007
-1161.15
-17.9264
-518.334
-9.93853
72.3149
405.81
1264.69
459.079
2068.57
302.879
2086.39
171.401
1909.56
97.7357
1781.58
48.2938
1679.01
4.04639
1588.23
-52.6929
1475.63
-125.584
1345.53
-212.097
1199.67
-306.947
1048.36
-408.484
891.341
-515.315
728.839
-623.637
559.688
-723.039
385.589
-794.926
208.461
-815.149
49.2339
-736.775
-96.2953
-481.072
-265.636
-408.757
580.281
684.412
836.967
1811.89
800.542
2122.82
733.296
1976.81
730.878
1784
772.652
1637.24
834.381
1526.5
891.485
1418.53
932.665
1304.35
951.672
1180.67
949.08
1050.95
923.056
917.365
869.889
782.008
784.26
645.318
661.712
508.138
502.238
367.937
326.1
225.375
168.928
60.8808
29.4798
-126.183
-379.277
343.765
340.656
466.516
1689.14
484.052
2105.29
500.531
1960.33
545.847
1738.69
614.313
1568.78
694.381
1446.43
773.151
1339.76
842.203
1235.3
895.346
1127.53
929.598
1016.71
942.524
904.443
931.841
792.694
894.704
682.458
828.21
574.637
729.561
466.588
597.768
357.175
425.492
233.164
216.048
83.2711
-163.229
-3.26383
343.919
-45.0541
1730.93
8.47466
2051.76
90.0371
1878.77
169.414
1659.31
248.228
1489.96
327.435
1367.23
403.76
1263.43
472.718
1166.35
530.063
1070.18
572.396
974.373
597.328
879.511
603.024
786.998
588.665
696.818
554.578
608.723
500.846
520.32
424.832
433.189
317.148
340.847
165.79
234.629
2.56128
-104.68
448.613
-131.669
1757.93
-56.1658
1976.26
40.6968
1781.92
132.264
1567.75
216.428
1405.81
295.669
1287.99
368.6
1190.51
433.108
1101.84
486.824
1016.47
528.153
933.05
555.427
852.243
570.691
771.739
575.493
692.022
570.14
614.083
549.795
540.67
500.775
482.215
400.064
441.565
224.25
410.455
226.812
88.7353
359.906
126.821
1719.85
173.915
1929.17
215.283
1740.56
264.162
1518.88
320.274
1349.7
380.863
1227.41
440.757
1130.62
496.72
1045.89
548.3
964.902
593.415
887.943
639.75
805.919
679.813
731.686
710.067
661.78
728.894
595.27
722.465
547.111
665.568
539.129
520.834
586.318
293.01
638.307
519.825
-82.4181
124.193
362.605
534.303
658.832
756.268
835.601
897.592
940.497
964.484
968.453
976.113
946.387
897.659
833.328
748.194
632.352
471.971
272.073
)
;

boundaryField
{
    outletWallLeft
    {
        type            calculated;
        value           nonuniform List<scalar> 
40
(
-5364.29
-6127.54
-6838.01
-7528.52
-8232.14
-8935.21
-9637.69
-10332.3
-11042.2
-11718.1
-12477.5
-13026.4
-14052.9
-13972.4
-16619
-12873.9
-24280.7
1020.46
-54595.6
55216.9
495490
-234597
-205224
5898.71
-7577.18
99493.8
126281
152430
132712
117944
56772.3
-35828.1
-32711.8
-28840.6
-47070.5
-96207.5
-180128
-542188
-926676
1.38042e+06
)
;
    }
    fineWallsLeft
    {
        type            calculated;
        value           uniform 0;
    }
    fineFrontAndBackLeft
    {
        type            calculated;
        value           nonuniform List<scalar> 
880
(
-1.60042e-09
9.74955e-11
-9.83929e-11
1.40898e-12
-1.40649e-11
4.50499e-12
9.69847e-13
1.28385e-11
1.74565e-11
3.54428e-12
-2.56343e-12
8.13411e-13
5.16267e-12
5.3722e-12
1.61996e-12
7.02969e-12
1.77223e-12
8.44567e-12
8.14275e-12
3.52625e-12
1.50557e-12
9.3891e-12
2.69324e-12
3.00228e-12
3.17558e-12
3.32194e-12
3.52589e-12
3.71082e-12
3.53412e-12
2.73829e-12
1.01258e-12
-3.40269e-11
-3.49568e-12
-3.23126e-12
9.25481e-13
3.87293e-12
3.79321e-12
2.93094e-12
2.92148e-12
2.64712e-12
-1.29277e-12
2.18699e-12
1.97841e-12
1.33267e-11
1.88609e-12
1.90071e-12
1.85861e-12
1.20332e-11
1.92396e-12
2.3107e-12
1.798e-11
3.36179e-12
3.97802e-12
4.16815e-12
1.75922e-11
1.03727e-12
1.44795e-12
1.35597e-12
8.93627e-12
1.33781e-12
9.33811e-12
2.79298e-10
8.43048e-10
1.31859e-09
1.16495e-09
9.64354e-10
8.12146e-10
7.31271e-10
6.99173e-10
5.73952e-10
4.07355e-10
2.97466e-10
9.994e-11
2.35768e-12
-4.77806e-13
8.89716e-12
2.94221e-11
5.17364e-11
1.97516e-11
1.4442e-11
3.22141e-10
9.14743e-10
1.41268e-09
1.25229e-09
9.93495e-10
7.90852e-10
7.03324e-10
6.99748e-10
6.09695e-10
4.57333e-10
3.05941e-10
6.81946e-11
-2.85819e-12
-2.41645e-12
1.11556e-11
3.03832e-11
5.77839e-11
2.14811e-11
1.99426e-11
3.62285e-10
9.82128e-10
1.5142e-09
1.3488e-09
1.02026e-09
7.39896e-10
6.20485e-10
6.41684e-10
6.21773e-10
4.95396e-10
2.96846e-10
4.07729e-11
-6.49243e-12
-2.77567e-12
1.39672e-11
3.43892e-11
6.50197e-11
2.35939e-11
2.55784e-11
3.98742e-10
1.04571e-09
1.6256e-09
1.46015e-09
1.05848e-09
6.78185e-10
4.90113e-10
5.17694e-10
6.02791e-10
5.15433e-10
2.72729e-10
2.02804e-11
-8.60339e-12
-1.32548e-12
1.73981e-11
4.02369e-11
7.22607e-11
2.60722e-11
3.11365e-11
4.31026e-10
1.1054e-09
1.74893e-09
1.5906e-09
1.12361e-09
6.38085e-10
3.48819e-10
3.45911e-10
5.55847e-10
5.18184e-10
2.38903e-10
6.22383e-12
-9.21204e-12
1.54446e-12
2.11016e-11
4.53246e-11
7.84354e-11
2.83824e-11
3.64556e-11
4.5904e-10
1.16077e-09
1.88841e-09
1.74247e-09
1.22585e-09
6.51122e-10
2.53993e-10
1.76857e-10
4.94076e-10
5.07054e-10
2.00723e-10
-2.77589e-12
-8.60552e-12
5.13774e-12
2.44502e-11
4.69665e-11
8.34711e-11
3.09608e-11
4.14388e-11
4.83254e-10
1.21111e-09
2.05034e-09
1.91662e-09
1.36397e-09
7.27325e-10
2.43342e-10
6.80992e-11
4.32931e-10
4.84122e-10
1.62037e-10
-8.18456e-12
-7.23296e-12
8.83411e-12
2.67383e-11
4.37068e-11
8.833e-11
3.41951e-11
4.60462e-11
5.04307e-10
1.24973e-09
2.24131e-09
2.11159e-09
1.52436e-09
8.47818e-10
3.03378e-10
3.94329e-11
3.83238e-10
4.504e-10
1.25193e-10
-1.12448e-11
-5.5009e-12
1.22216e-11
2.75026e-11
3.66444e-11
9.36286e-11
3.54572e-11
5.03267e-11
5.22627e-10
1.28369e-09
2.47371e-09
2.32306e-09
1.68495e-09
9.77407e-10
3.88585e-10
6.26342e-11
3.48098e-10
4.075e-10