/*--------------------------------*- C++ -*----------------------------------*\
| =========                 |                                                 |
| \\      /  F ield         | OpenFOAM: The Open Source CFD Toolbox           |
|  \\    /   O peration     | Version:  4.1                                   |
|   \\  /    A nd           | Web:      www.OpenFOAM.org                      |
|    \\/     M anipulation  |                                                 |
\*---------------------------------------------------------------------------*/
FoamFile
{
    version     2.0;
    format      ascii;
    class       volVectorField;
    location    "29";
    object      U;
}
// * * * * * * * * * * * * * * * * * * * * * * * * * * * * * * * * * * * * * //

dimensions      [0 1 -1 0 0 0 0];

internalField   nonuniform List<vector> 
1680
(
(-4.40433e-13 -867.506 -993.556)
(7.04574e-14 127.927 111.914)
(-2.70775e-14 -299.334 -67.1582)
(1.01824e-15 -16.386 10.6804)
(-4.73537e-15 -127.73 9.30774)
(1.23976e-15 -47.6583 20.9913)
(7.00883e-16 -63.446 21.4382)
(3.53313e-15 -66.9915 27.8782)
(4.80398e-15 -62.9159 21.9746)
(3.61506e-15 -54.0791 17.9037)
(-7.05449e-16 -71.9469 20.904)
(5.87831e-16 -50.5476 14.6554)
(1.42075e-15 -66.4754 20.4093)
(1.47842e-15 -54.6626 15.6163)
(1.1707e-15 -49.1689 13.8597)
(1.93455e-15 -64.1744 17.8955)
(1.28075e-15 -46.4017 13.5098)
(2.32423e-15 -58.3866 20.0436)
(2.24087e-15 -45.0354 15.6469)
(2.54833e-15 -56.0735 14.8591)
(6.1767e-15 -47.9348 22.6844)
(3.76505e-15 -65.6298 13.405)
(1.10492e-14 -43.6885 21.7654)
(1.2317e-14 -44.9492 20.7669)
(1.3028e-14 -44.1067 20.6461)
(1.36285e-14 -44.314 20.1307)
(1.44652e-14 -44.0115 19.4953)
(1.52239e-14 -43.88 18.4122)
(1.44989e-14 -43.8271 16.3287)
(1.1234e-14 -43.4965 12.0797)
(4.15418e-15 -41.7305 5.26687)
(-1.36449e-14 -50.646 -12.2186)
(-1.43412e-14 -38.8882 -13.0199)
(-1.32565e-14 -40.5408 -15.1794)
(3.79684e-15 -39.1509 -5.93765)
(1.58889e-14 -38.9778 1.70193)
(1.55619e-14 -38.7167 3.75419)
(1.20244e-14 -38.5835 3.18899)
(1.19856e-14 -38.2297 1.99929)
(1.086e-14 -37.1788 0.132107)
(-4.50049e-16 -47.091 -0.846881)
(3.51324e-15 -34.6265 -0.434091)
(3.21295e-15 -34.1917 0.325936)
(4.63942e-15 -40.721 -0.949742)
(3.02987e-15 -31.765 -0.437523)
(3.03646e-15 -34.214 0.467931)
(2.98572e-15 -30.8852 1.14339)
(4.18911e-15 -39.5062 0.391985)
(3.09069e-15 -29.8737 0.767863)
(3.71196e-15 -29.4781 1.35087)
(6.25934e-15 -35.0812 0.270004)
(5.40046e-15 -27.02 0.910907)
(6.39039e-15 -29.2901 1.43178)
(6.69582e-15 -26.5445 1.82786)
(7.24989e-15 -33.5227 1.35813)
(1.6663e-15 -24.7125 2.12835)
(2.32603e-15 -27.1787 2.90439)
(2.17826e-15 -24.6326 3.68415)
(3.11097e-15 -31.2043 4.57382)
(2.14909e-15 -23.5555 5.01413)
(2.07514e-15 -120.349 27.3188)
(6.20662e-14 -66.0843 52.4871)
(1.87344e-13 -50.2677 71.4106)
(2.93021e-13 70.0369 63.1146)
(2.58878e-13 101.257 1.12806)
(2.14301e-13 84.3776 -32.8028)
(1.80477e-13 55.9285 -55.2651)
(1.62505e-13 29.1612 -63.6037)
(1.55372e-13 8.72361 -65.593)
(1.27545e-13 -7.5082 -54.7784)
(9.05232e-14 -11.2731 -39.4035)
(6.61034e-14 -8.59115 -34.3898)
(2.22089e-14 -12.9617 -15.7747)
(5.2393e-16 -24.2921 7.21783)
(-1.06179e-16 -27.8705 14.485)
(1.97715e-15 -22.5548 21.8332)
(6.53825e-15 11.9342 13.8918)
(1.1497e-14 36.0055 -28.6469)
(4.38925e-15 -27.1475 -27.0641)
(3.20934e-15 -131.351 12.3009)
(7.15869e-14 -68.652 55.6777)
(2.03276e-13 -52.6348 67.2022)
(3.1393e-13 77.8763 56.6094)
(2.78287e-13 110.775 -5.553)
(2.20777e-13 90.0192 -38.2872)
(1.75745e-13 58.8312 -58.0022)
(1.56294e-13 30.248 -65.5661)
(1.55499e-13 7.84731 -68.7847)
(1.35488e-13 -10.3002 -57.6184)
(1.01629e-13 -13.4193 -41.4366)
(6.79869e-14 -11.4244 -33.6781)
(1.51544e-14 -17.2724 -9.04551)
(-6.35154e-16 -27.0414 8.98954)
(-5.36989e-16 -29.1939 15.564)
(2.47902e-15 -22.6163 23.4975)
(6.75183e-15 17.1946 14.14)
(1.28409e-14 40.3777 -27.7911)
(4.77358e-15 -31.0363 -28.2413)
(4.43169e-15 -141.186 -3.31)
(8.05079e-14 -72.0738 59.5392)
(2.18251e-13 -54.1143 61.331)
(3.36489e-13 85.9804 47.9335)
(2.99733e-13 120.079 -13.123)
(2.26724e-13 95.1082 -43.5095)
(1.64421e-13 61.2399 -58.5286)
(1.37886e-13 31.3513 -63.814)
(1.42596e-13 7.18681 -68.5311)
(1.38172e-13 -13.1006 -59.138)
(1.10088e-13 -15.9438 -42.8236)
(6.59657e-14 -15.0318 -31.5138)
(9.06065e-15 -21.485 -4.28446)
(-1.44276e-15 -29.2741 8.95422)
(-6.16816e-16 -30.5893 16.2114)
(3.10383e-15 -22.6759 24.7531)
(7.64204e-15 22.4472 14.9358)
(1.44488e-14 44.9788 -25.5775)
(5.24308e-15 -34.5795 -29.4928)
(5.68409e-15 -150.069 -18.9724)
(8.86093e-14 -76.0614 63.8229)
(2.3238e-13 -54.4458 53.887)
(3.61245e-13 94.3047 36.8968)
(3.24478e-13 128.929 -21.8682)
(2.35218e-13 99.3227 -49.0021)
(1.50708e-13 62.7382 -57.5228)
(1.08914e-13 32.2557 -58.1452)
(1.15043e-13 6.95299 -63.7045)
(1.33953e-13 -15.6068 -58.5336)
(1.14541e-13 -18.7986 -43.0168)
(6.06065e-14 -19.0946 -28.2621)
(4.50675e-15 -25.3556 -1.68188)
(-1.91187e-15 -31.221 8.3452)
(-2.94551e-16 -32.1175 16.7201)
(3.86625e-15 -22.8061 25.5963)
(8.94153e-15 27.5063 16.1797)
(1.60579e-14 49.8505 -22.0288)
(5.79383e-15 -37.9456 -30.2035)
(6.91921e-15 -158.291 -34.747)
(9.57836e-14 -80.4724 68.5635)
(2.45644e-13 -53.2972 45.0627)
(3.88651e-13 102.782 23.3715)
(3.53466e-13 137.151 -32.2214)
(2.49691e-13 102.44 -55.6398)
(1.41797e-13 62.9037 -56.8045)
(7.75154e-14 32.5609 -50.5473)
(7.6869e-14 7.22234 -54.9211)
(1.23522e-13 -17.4744 -55.663)
(1.15152e-13 -21.8219 -41.9754)
(5.30896e-14 -23.2864 -24.4667)
(1.38307e-15 -28.7873 -0.644798)
(-2.04712e-15 -33.0613 7.7834)
(3.43214e-16 -33.7359 16.9994)
(4.68924e-15 -23.0601 25.9136)
(1.00721e-14 32.1834 17.2576)
(1.74301e-14 55.0106 -17.2873)
(6.30719e-15 -40.7767 -30.599)
(8.10125e-15 -165.845 -50.7445)
(1.02009e-13 -85.2544 73.9333)
(2.5795e-13 -50.5466 35.2702)
(4.19646e-13 111.48 7.43675)
(3.87215e-13 144.669 -44.7523)
(2.72412e-13 104.417 -64.2996)
(1.44694e-13 61.5631 -58.5092)
(5.64428e-14 31.8533 -44.8782)
(3.93015e-14 7.8317 -45.323)
(1.09795e-13 -18.5007 -51.2601)
(1.12679e-13 -24.8458 -39.9595)
(4.46051e-14 -27.377 -20.6286)
(-6.16865e-16 -31.7756 -0.547551)
(-1.91234e-15 -34.8864 7.38447)
(1.14172e-15 -35.3627 16.7953)
(5.43338e-15 -23.4312 25.5442)
(1.0437e-14 36.4117 17.272)
(1.85491e-14 60.2013 -11.6519)
(6.88019e-15 -43.5085 -30.1341)
(9.20863e-15 -172.617 -67.0642)
(1.0739e-13 -90.3623 80.1546)
(2.69135e-13 -45.4816 25.0482)
(4.55632e-13 120.787 -10.791)
(4.25916e-13 151.498 -59.9539)
(3.03105e-13 105.341 -75.3768)
(1.61628e-13 58.899 -63.6219)
(5.4076e-14 29.9587 -43.9528)
(1.51332e-14 8.35363 -38.8002)
(9.6207e-14 -18.8322 -46.4278)
(1.07583e-13 -27.7477 -37.195)
(3.60083e-14 -31.1972 -17.0833)
(-1.81879e-15 -34.3383 -0.936446)
(-1.60732e-15 -36.6949 7.05031)
(1.96313e-15 -36.9002 15.929)
(5.94184e-15 -23.8395 24.3437)
(9.71263e-15 39.9181 15.4987)
(1.96289e-14 65.2307 -5.61303)
(7.5989e-15 -44.2778 -29.5083)
(1.02325e-14 -178.91 -83.7607)
(1.12068e-13 -95.8091 87.4799)
(2.77717e-13 -39.0243 15.1138)
(4.98068e-13 130.857 -31.4111)
(4.69242e-13 157.665 -77.9507)
(3.38748e-13 105.265 -88.4559)
(1.88404e-13 55.197 -71.2299)
(6.74174e-14 26.9948 -46.9525)
(8.76286e-15 8.27628 -36.6916)
(8.5164e-14 -18.988 -42.0083)
(1.00089e-13 -30.5321 -33.8052)
(2.78206e-14 -34.6786 -14.0027)
(-2.49884e-15 -36.5463 -1.52951)
(-1.22242e-15 -38.4632 6.68496)
(2.71591e-15 -38.2729 14.384)
(6.11168e-15 -24.1638 22.2128)
(8.1432e-15 42.6463 11.5667)
(2.08063e-14 70.1912 0.600716)
(7.87938e-15 -45.645 -33.4147)
(1.11837e-14 -184.207 -100.925)
(1.16139e-13 -101.758 96.1252)
(2.85266e-13 -28.9301 8.05437)
(5.49712e-13 141.496 -54.4834)
(5.16236e-13 163.023 -98.4641)
(3.74433e-13 104.075 -102.244)
(2.17201e-13 50.5442 -79.1217)
(8.63522e-14 23.1816 -50.5488)
(1.39187e-14 7.36714 -36.9893)
(7.73552e-14 -19.4573 -38.269)
(9.05556e-14 -33.1564 -29.9202)
(2.03797e-14 -37.6825 -11.4589)
(-2.85939e-15 -38.3807 -2.15344)
(-8.16042e-16 -40.0944 6.27658)
(3.337e-15 -39.3666 12.2665)
(5.95034e-15 -24.2412 19.228)
(6.40984e-15 44.5148 6.3412)
(2.21404e-14 75.1066 6.5897)
(8.23232e-15 -47.8774 -36.8795)
(1.20454e-14 -189.924 -118.579)
(1.19087e-13 -108.43 105.921)
(2.97867e-13 -17.8729 8.29044)
(6.15269e-13 154.968 -80.3503)
(5.64868e-13 167.343 -120.52)
(4.03899e-13 101.435 -114.501)
(2.39562e-13 44.8318 -84.5434)
(1.01482e-13 18.6992 -51.4237)
(2.12088e-14 5.81508 -36.5171)
(7.21191e-14 -20.4814 -34.9046)
(7.95459e-14 -35.7519 -25.7038)
(1.39289e-14 -40.3233 -9.47333)
(-3.03e-15 -40.047 -2.71424)
(-4.19549e-16 -41.6272 5.85362)
(3.7771e-15 -40.1835 9.71318)
(5.56304e-15 -24.0815 15.6797)
(5.25292e-15 45.465 1.57826)
(2.36493e-14 79.6395 12.7245)
(8.56868e-15 -49.7901 -37.7524)
(1.27927e-14 -192.949 -136.901)
(1.3197e-13 -116.968 117.7)
(4.32401e-13 -2.09087 20.2115)
(6.94849e-13 173.394 -109.659)
(6.11466e-13 170.143 -142.497)
(4.1899e-13 96.8215 -121.899)
(2.4597e-13 37.9214 -83.9816)
(1.05078e-13 13.749 -46.7321)
(2.3412e-14 4.04929 -32.8404)
(6.8137e-14 -21.7014 -31.4264)
(6.77026e-14 -37.9901 -21.4057)
(8.62908e-15 -42.2521 -8.04574)
(-3.08339e-15 -41.2533 -3.14855)
(-4.86017e-17 -42.7867 5.47119)
(4.01216e-15 -40.5286 6.88145)
(5.06599e-15 -23.7002 11.9695)
(4.97741e-15 45.4442 -1.55026)
(2.53012e-14 83.8982 19.2553)
(8.9447e-15 -51.4456 -40.2453)
(1.33921e-14 -200.793 -155.529)
(1.54329e-13 -127.362 127.599)
(5.61116e-13 16.5022 6.57329)
(7.82837e-13 192.625 -143.096)
(6.52327e-13 170.291 -161.952)
(4.08843e-13 89.5937 -120.053)
(2.24028e-13 29.8144 -72.5754)
(8.85957e-14 8.66184 -33.7878)
(1.6803e-14 2.63649 -25.6772)
(6.44019e-14 -23.0542 -27.4907)
(5.56497e-14 -40.3831 -17.2301)
(4.52752e-15 -44.2343 -7.13155)
(-3.06106e-15 -42.8686 -3.4871)
(2.87178e-16 -44.0706 5.09592)
(4.06277e-15 -40.7999 3.87239)
(4.57159e-15 -23.5471 8.3934)
(5.2648e-15 44.417 -3.37782)
(2.70449e-14 88.3883 26.3668)
(9.48693e-15 -51.129 -44.1511)
(1.41312e-14 -195.439 -175.931)
(1.75654e-13 -140.76 136.79)
(6.59889e-13 43.5304 -34.6121)
(8.81363e-13 209.551 -180.608)
(6.78026e-13 166.053 -175.329)
(3.6146e-13 78.7626 -104.547)
(1.61129e-13 20.651 -45.3)
(4.82697e-14 4.20534 -13.3601)
(7.97143e-15 2.55037 -20.0385)
(6.077e-14 -23.5359 -23.7591)
(4.39743e-14 -41.5255 -13.5747)
(1.56133e-15 -44.6332 -6.70862)
(-2.98094e-15 -43.0808 -3.6828)
(5.94659e-16 -44.1899 4.83964)
(3.99137e-15 -40.08 0.938316)
(4.1456e-15 -23.2113 5.42187)
(5.50336e-15 42.3704 -5.31367)
(2.88363e-14 92.9475 34.0477)
(9.94466e-15 -51.7609 -45.0505)
(1.33735e-14 -218.16 -194.567)
(1.8853e-13 -147.145 140.29)
(7.95939e-13 75.4498 -87.1771)
(9.86548e-13 222.05 -218.837)
(6.75368e-13 155.434 -178.08)
(2.7331e-13 63.0894 -74.0951)
(6.20643e-14 10.8385 -4.66117)
(1.04786e-14 3.84919 0.174439)
(1.37083e-14 4.40889 -20.7669)
(5.77173e-14 -25.1027 -20.3175)
(3.31228e-14 -44.3402 -10.3833)
(-4.44269e-16 -47.2746 -6.6218)
(-2.86004e-15 -46.246 -3.90867)
(8.82153e-16 -46.1616 4.49312)
(3.855e-15 -40.7592 -2.06856)
(3.72048e-15 -23.8868 2.35825)
(5.23849e-15 39.171 -8.94919)
(3.06486e-14 97.0412 42.0779)
(1.02803e-14 -49.4085 -48.1954)
(1.81856e-14 -170.664 -220.637)
(1.89764e-13 -161.508 154.625)
(9.63041e-13 111.565 -150.923)
(1.0858e-12 228.227 -253.146)
(6.29974e-13 137.118 -165.431)
(1.61689e-13 43.5429 -34.8645)
(-1.12127e-14 4.63994 22.3263)
(7.72738e-15 8.77588 -0.936182)
(2.63696e-14 6.56583 -20.5783)
(5.42853e-14 -24.726 -17.7049)
(2.36861e-14 -42.3633 -8.36657)
(-1.68862e-15 -43.7601 -6.97565)
(-2.67642e-15 -42.4969 -3.80642)
(1.20048e-15 -42.8083 4.70471)
(3.72427e-15 -37.1299 -4.28865)
(3.31204e-15 -22.0491 0.234483)
(4.28939e-15 35.001 -15.598)
(3.248e-14 101.433 50.2804)
(1.04727e-14 -52.336 -53.6131)
(-4.0436e-15 -285.869 -226.504)
(1.70731e-13 -142.467 157.896)
(1.16594e-12 155.308 -225.697)
(1.15758e-12 227.104 -275.516)
(5.27877e-13 112.275 -133.809)
(6.29861e-14 25.9339 0.160919)
(-4.89542e-15 4.68371 12.4841)
(1.08083e-14 13.0654 1.08555)
(3.74363e-14 8.36931 -12.5695)
(4.98436e-14 -29.5513 -13.2432)
(1.5932e-14 -50.046 -6.38464)
(-2.40634e-15 -53.3396 -7.42454)
(-2.54791e-15 -54.6848 -4.39623)
(1.44652e-15 -51.2686 3.97918)
(3.58363e-15 -43.1356 -7.54421)
(3.01147e-15 -24.926 -3.03416)
(2.66257e-15 29.6679 -25.9177)
(3.43121e-14 107.48 58.0187)
(1.02052e-14 -39.5604 -55.1442)
(1.00898e-13 -14.0164 -300.33)
(1.68667e-13 -189.397 164.427)
(1.4225e-12 202.622 -319.886)
(1.16282e-12 213.055 -273.707)
(3.61505e-13 82.2681 -82.9796)
(3.04012e-15 13.5561 21.0176)
(3.94241e-15 5.26919 2.26787)
(1.54883e-14 13.7418 4.7066)
(4.78998e-14 8.95704 0.140949)
(4.41119e-14 -22.2285 -11.7165)
(9.84021e-15 -34.6868 -6.61984)
(-2.74688e-15 -32.6898 -7.96979)
(-2.16736e-15 -30.5113 -2.73743)
(1.91155e-15 -30.8469 6.36539)
(3.67189e-15 -25.0066 -6.4436)
(2.87073e-15 -14.2433 -1.43196)
(4.47654e-16 23.0576 -40.2882)
(3.6045e-14 108.568 65.1315)
(9.58639e-15 -64.3221 -64.8739)
(-4.10861e-13 -646.404 -113.165)
(-9.91147e-15 -47.6235 222.222)
(1.71423e-12 230.468 -424.431)
(1.03317e-12 170.595 -224.464)
(1.50816e-13 48.4364 -19.496)
(-2.22273e-15 6.83586 21.7018)
(1.64362e-15 6.16557 3.58195)
(1.54636e-14 12.1503 7.24357)
(4.33149e-14 8.93481 13.1539)
(3.91686e-14 -38.1602 -5.13217)
(6.74004e-15 -70.3471 -6.20938)
(-2.95418e-15 -80.2838 -11.3575)
(-2.93945e-15 -89.7127 -9.33572)
(1.14948e-15 -78.1379 -0.822596)
(3.13914e-15 -64.3439 -16.8285)
(4.44838e-15 -32.1875 2.50397)
(-2.23281e-15 15.1433 -68.4527)
(3.73056e-14 100.204 69.6171)
(1.06297e-14 5.00969 -67.8935)
(1.85674e-12 866.333 -863.183)
(7.32206e-13 -421.06 -108.002)
(1.91395e-12 235.652 -505.194)
(6.77647e-13 144.959 -97.5528)
(-1.11273e-14 33.618 35.8052)
(1.31298e-15 14.6754 17.4067)
(3.18111e-16 9.89028 3.86821)
(6.26973e-15 14.4291 4.98546)
(2.35416e-14 16.6165 15.1252)
(2.25962e-14 3.36465 -12.4207)
(-1.50409e-15 12.7716 -4.06567)
(-2.89227e-15 28.2074 0.86668)
(5.8394e-16 41.0901 15.7049)
(4.37877e-15 34.3052 23.8951)
(5.23134e-15 30.6607 15.5837)
(4.4619e-15 34.0215 18.1846)
(-4.49402e-15 20.9968 -124.593)
(3.65163e-14 122.178 70.8794)
(5.80966e-15 -157.185 -75.6206)
(-1.53087e-11 -2019.99 4271.69)
(2.19655e-12 560.888 -776.628)
(1.60399e-12 480.477 -432.774)
(1.67537e-13 116.764 55.6993)
(-4.12064e-15 43.5701 26.1097)
(-1.30095e-16 22.3608 8.87929)
(-1.14087e-16 12.7112 1.82274)
(-1.44486e-15 16.4976 0.158353)
(6.24656e-15 13.9452 11.8846)
(6.96452e-14 -78.6058 7.75272)
(2.13015e-14 -162.687 -30.6497)
(-1.71416e-15 -195.498 -58.7837)
(-1.30561e-14 -227.394 -80.8677)
(-1.01611e-14 -193.583 -71.6966)
(-3.93163e-15 -160.002 -105.721)
(-1.89565e-15 -67.3496 -89.0254)
(-4.59286e-15 -21.7342 -160.523)
(2.70204e-14 147.915 53.4957)
(6.21627e-14 215.199 216.823)
(1.79851e-14 14.3902 28.9453)
(3.7896e-14 14.2228 27.5424)
(3.34999e-14 13.416 29.3469)
(3.60748e-14 12.1855 28.4344)
(3.48983e-14 10.9089 28.0242)
(3.18855e-14 9.86567 27.4652)
(3.03372e-14 8.89411 27.0422)
(3.11105e-14 7.98783 26.4695)
(3.05269e-14 6.47297 24.6965)
(2.64867e-14 2.83513 18.8117)
(1.37783e-14 -4.21766 5.76337)
(-5.61029e-15 -12.9467 -10.4181)
(-1.49152e-14 -15.5269 -18.5949)
(-4.27179e-15 -10.424 -11.4701)
(2.48913e-14 3.97164 9.75777)
(3.70373e-14 9.94284 19.9349)
(3.69609e-14 10.9694 21.9926)
(3.71215e-14 10.3944 20.7595)
(4.36925e-14 7.43907 14.6421)
(4.02204e-14 0.863158 1.35044)
(4.08125e-15 4.67652 8.88474)
(3.14608e-14 7.93331 15.3341)
(2.27938e-14 6.79609 14.3686)
(2.61196e-14 6.49659 14.9583)
(3.04843e-14 6.15528 15.468)
(3.15251e-14 5.77927 15.9067)
(2.45784e-14 5.3725 16.2855)
(2.49211e-14 4.99527 16.705)
(2.53237e-14 4.73192 17.2847)
(2.66935e-14 4.61686 17.8327)
(2.85168e-14 4.41039 17.2529)
(2.82491e-14 3.70718 14.005)
(2.49025e-14 2.9933 8.99477)
(2.61142e-14 5.11668 8.79237)
(3.02144e-14 9.32879 14.1869)
(2.82948e-14 10.1135 15.5759)
(2.48329e-14 9.74491 15.8799)
(2.21317e-14 9.54475 16.4228)
(2.59251e-14 9.13504 15.8345)
(5.25228e-14 4.93026 9.32322)
(-9.09716e-16 6.74642 12.2849)
(1.13509e-14 10.3006 17.678)
(7.32844e-15 9.77562 17.0905)
(6.31922e-15 9.60601 16.6288)
(9.02701e-15 9.46225 16.5545)
(2.4354e-14 9.35735 16.4261)
(1.12755e-14 9.18805 16.3021)
(1.10838e-14 9.01075 16.1398)
(1.17655e-14 8.76807 15.9358)
(1.1083e-14 8.47806 15.6873)
(1.12567e-14 8.24217 15.5717)
(1.14032e-14 8.33396 15.849)
(1.15859e-14 8.84447 16.3493)
(1.22107e-14 9.37683 16.4022)
(1.08899e-14 9.21444 15.6669)
(1.05965e-14 8.84873 15.0722)
(1.02323e-14 8.86568 15.1295)
(1.10507e-14 9.3209 15.8613)
(1.46292e-14 8.56915 14.7492)
(2.03002e-14 3.65308 5.99927)
(1.44878e-16 5.79707 10.0864)
(-2.68881e-15 9.32792 16.2601)
(-1.87274e-15 8.83548 15.5352)
(-1.83313e-15 8.6795 15.3164)
(-3.5319e-16 8.65618 15.3865)
(1.46493e-14 8.65558 15.434)
(1.08225e-14 8.63298 15.4787)
(1.07829e-14 8.62719 15.5074)
(1.10849e-14 8.61525 15.5348)
(1.07433e-14 8.62002 15.5492)
(1.07206e-14 8.61468 15.5324)
(1.07975e-14 8.563 15.4306)
(1.08332e-14 8.43125 15.2452)
(1.07025e-14 8.28785 15.1038)
(1.08904e-14 8.27764 15.1344)
(1.10438e-14 8.40372 15.3042)
(1.09655e-14 8.66355 15.6348)
(1.1974e-14 9.06391 16.3663)
(1.25903e-14 8.66289 15.5712)
(2.10325e-14 4.12906 7.40295)
(-3.55228e-17 6.02443 10.5275)
(6.50427e-16 9.57686 16.4884)
(4.80895e-16 9.10663 15.8082)
(5.10385e-16 8.95237 15.4747)
(5.3728e-17 8.91566 15.4867)
(-3.5783e-15 8.91755 15.4786)
(-2.65033e-15 8.88757 15.4814)
(-2.57086e-15 8.87528 15.4739)
(-2.73094e-15 8.84772 15.4731)
(-2.61977e-15 8.82775 15.4662)
(-2.65397e-15 8.80171 15.4636)
(-2.73777e-15 8.78794 15.4701)
(-2.63915e-15 8.79406 15.495)
(-2.6058e-15 8.81437 15.5267)
(-2.54576e-15 8.82962 15.5252)
(-2.63328e-15 8.78991 15.4714)
(-2.6131e-15 8.7698 15.4259)
(-2.74011e-15 9.02266 15.9841)
(-3.44779e-15 9.24678 16.3735)
(-4.37125e-15 5.3125 9.44943)
(7.81678e-18 6.06079 10.485)
(-1.58626e-16 9.47394 16.308)
(-1.21777e-16 9.01228 15.599)
(-1.39451e-16 8.86055 15.2986)
(-2.60457e-17 8.84355 15.3191)
(8.73221e-16 8.85569 15.3237)
(6.59616e-16 8.84342 15.335)
(6.40135e-16 8.84726 15.3369)
(6.66778e-16 8.83894 15.3444)
(6.52004e-16 8.83923 15.3468)
(6.71656e-16 8.8336 15.3513)
(7.15725e-16 8.83021 15.3521)
(6.60988e-16 8.82224 15.348)
(6.67259e-16 8.8074 15.3412)
(6.2384e-16 8.79827 15.3326)
(6.54351e-16 8.78317 15.3369)
(6.33441e-16 8.79987 15.3427)
(7.11059e-16 8.97331 15.6937)
(9.25944e-16 9.34214 16.3297)
(1.0163e-15 5.86997 10.3193)
(-1.52383e-18 6.24849 10.8124)
(3.83009e-17 9.48571 16.3076)
(2.99535e-17 9.00885 15.5752)
(3.51735e-17 8.87039 15.2942)
(9.96613e-18 8.85352 15.3112)
(-2.14583e-16 8.86433 15.3126)
(-1.6821e-16 8.85208 15.3212)
(-1.65228e-16 8.85505 15.3216)
(-1.6844e-16 8.84683 15.328)
(-1.6397e-16 8.84674 15.3301)
(-1.70172e-16 8.84102 15.335)
(-1.83834e-16 8.83906 15.3383)
(-1.66088e-16 8.83647 15.3428)
(-1.70315e-16 8.8342 15.3496)
(-1.56831e-16 8.83728 15.3531)
(-1.62952e-16 8.8279 15.3561)
(-1.56157e-16 8.83367 15.3477)
(-1.80181e-16 8.97155 15.6317)
(-2.40233e-16 9.40397 16.356)
(-2.38792e-16 6.22717 10.9078)
(2.70896e-19 6.41331 11.0759)
(-9.08975e-18 9.45309 16.2509)
(-7.20759e-18 8.96642 15.4901)
(-8.20642e-18 8.8448 15.2429)
(-2.80022e-18 8.83225 15.2606)
(5.23399e-17 8.84332 15.2626)
(4.25303e-17 8.83381 15.2711)
(4.19471e-17 8.83802 15.2723)
(4.27989e-17 8.8321 15.2789)
(4.08061e-17 8.83364 15.2817)
(4.22269e-17 8.82985 15.2872)
(4.54082e-17 8.82971 15.2911)
(4.10878e-17 8.8277 15.2956)
(4.2102e-17 8.82531 15.3005)
(3.92871e-17 8.82591 15.3031)
(3.95881e-17 8.81811 15.3087)
(3.81392e-17 8.82242 15.3026)
(4.40735e-17 8.93296 15.5335)
(5.9718e-17 9.38927 16.3011)
(5.46145e-17 6.45813 11.292)
(-4.75407e-20 6.60294 11.4002)
(2.11879e-18 9.42992 16.2123)
(1.69591e-18 8.93352 15.432)
(1.82949e-18 8.83097 15.2197)
(6.35333e-19 8.81992 15.2377)
(-1.25155e-17 8.8298 15.239)
(-1.02894e-17 8.82103 15.247)
(-1.01672e-17 8.82483 15.2483)
(-1.04363e-17 8.81951 15.2546)
(-9.87419e-18 8.82101 15.2574)
(-1.01872e-17 8.81758 15.263)
(-1.07449e-17 8.81785 15.2668)
(-9.87438e-18 8.81595 15.2719)
(-9.97748e-18 8.81493 15.2771)
(-9.51746e-18 8.81568 15.2812)
(-9.28848e-18 8.81034 15.287)
(-9.06033e-18 8.81305 15.2814)
(-1.03727e-17 8.90549 15.4752)
(-1.41769e-17 9.36818 16.2541)
(-1.20597e-17 6.66032 11.6379)
(9.64924e-21 6.78577 11.7089)
(-4.85159e-19 9.39377 16.1546)
(-3.89782e-19 8.89739 15.3681)
(-4.01777e-19 8.81248 15.1889)
(-1.30113e-19 8.80306 15.2066)
(2.91596e-18 8.81201 15.2078)
(2.37837e-18 8.80426 15.2153)
(2.35488e-18 8.80778 15.217)
(2.40972e-18 8.80317 15.223)
(2.30751e-18 8.80464 15.226)
(2.38558e-18 8.8016 15.2315)
(2.44732e-18 8.80217 15.2353)
(2.29609e-18 8.8002 15.2407)
(2.27952e-18 8.79988 15.2455)
(2.21615e-18 8.7998 15.2502)
(2.1193e-18 8.79612 15.2559)
(2.09139e-18 8.79717 15.2515)
(2.37361e-18 8.87336 15.412)
(3.24138e-18 9.33289 16.19)
(2.57363e-18 6.84582 11.9553)
(-2.52166e-21 6.97167 12.0258)
(1.09926e-19 9.35507 16.0924)
(8.8397e-20 8.86517 15.3127)
(8.8894e-20 8.79699 15.1648)
(2.68719e-20 8.78856 15.1816)
(-6.6577e-19 8.79645 15.1827)
(-5.3457e-19 8.78944 15.1896)
(-5.30241e-19 8.79248 15.1914)
(-5.36439e-19 8.7884 15.1971)
(-5.25043e-19 8.78964 15.2001)
(-5.44849e-19 8.78688 15.2055)
(-5.4433e-19 8.78754 15.2091)
(-5.2094e-19 8.78545 15.2145)
(-5.10424e-19 8.78575 15.219)
(-5.03384e-19 8.78495 15.2241)
(-4.78155e-19 8.78288 15.2294)
(-4.74305e-19 8.7825 15.2263)
(-5.37005e-19 8.8448 15.3573)
(-7.24925e-19 9.29279 16.1196)
(-5.36601e-19 7.02751 12.2676)
(7.71665e-22 7.15504 12.3375)
(-2.49992e-20 9.30922 16.0185)
(-2.01856e-20 8.83425 15.2593)
(-2.01311e-20 8.7811 15.1399)
(-6.22166e-21 8.7735 15.1556)
(1.50605e-19 8.78042 15.1566)
(1.19565e-19 8.77419 15.1631)
(1.18502e-19 8.77678 15.1651)
(1.18566e-19 8.77324 15.1705)
(1.18445e-19 8.77423 15.1736)
(1.22599e-19 8.7718 15.1787)
(1.20667e-19 8.77248 15.1823)
(1.17343e-19 8.77034 15.1878)
(1.1467e-19 8.77115 15.1918)
(1.1426e-19 8.76965 15.1974)
(1.08823e-19 8.76906 15.2021)
(1.07619e-19 8.76738 15.2007)
(1.22002e-19 8.8175 15.305)
(1.614e-19 9.24613 16.039)
(1.11678e-19 7.20624 12.5744)
(-2.38935e-22 7.33791 12.6489)
(5.7863e-21 9.25852 15.936)
(4.72765e-21 8.8062 15.2111)
(4.70463e-21 8.76646 15.1173)
(1.66628e-21 8.75944 15.1316)
(-3.41892e-20 8.76546 15.1326)
(-2.71598e-20 8.75993 15.1386)
(-2.68021e-20 8.76204 15.1408)
(-2.66696e-20 8.75904 15.1458)
(-2.70543e-20 8.75971 15.1489)
(-2.75782e-20 8.75763 15.1538)
(-2.71516e-20 8.75823 15.1573)
(-2.67393e-20 8.75611 15.1627)
(-2.64025e-20 8.7573 15.1664)
(-2.64308e-20 8.75518 15.1723)
(-2.53494e-20 8.75595 15.1765)
(-2.48946e-20 8.7531 15.1768)
(-2.81485e-20 8.79278 15.2573)
(-3.63149e-20 9.19432 15.9498)
(-2.38094e-20 7.38376 12.8793)
(6.97608e-23 7.51936 12.9575)
(-1.36726e-21 9.20194 15.8434)
(-1.13879e-21 8.78033 15.1667)
(-1.12951e-21 8.75225 15.0953)
(-4.87183e-22 8.74567 15.1082)
(7.86349e-21 8.75088 15.1091)
(6.33805e-21 8.74605 15.1147)
(6.21905e-21 8.7477 15.1171)
(6.17484e-21 8.74523 15.1217)
(6.34994e-21 8.74558 15.125)
(6.29601e-21 8.74389 15.1296)
(6.2584e-21 8.74434 15.1331)
(6.23332e-21 8.74237 15.1384)
(6.28183e-21 8.74379 15.1418)
(6.26395e-21 8.74121 15.148)
(6.06056e-21 8.74319 15.1515)
(5.93097e-21 8.73927 15.1537)
(6.62792e-21 8.77026 15.2134)
(8.3216e-21 9.13697 15.8513)
(5.29757e-21 7.56006 13.1817)
(-1.8862e-23 7.69992 13.2646)
(3.26074e-22 9.13997 15.7415)
(2.77772e-22 8.75699 15.1266)
(2.73774e-22 8.73882 15.0746)
(1.43843e-22 8.73255 15.0859)
(-1.83519e-21 8.73701 15.0869)
(-1.51535e-21 8.73287 15.092)
(-1.48154e-21 8.73403 15.0946)
(-1.46618e-21 8.7321 15.0988)
(-1.5301e-21 8.73211 15.1022)
(-1.4692e-21 8.73082 15.1064)
(-1.47322e-21 8.73105 15.11)
(-1.48251e-21 8.72933 15.1151)
(-1.52927e-21 8.73081 15.1183)
(-1.50542e-21 8.72796 15.1246)
(-1.47174e-21 8.73093 15.1276)
(-1.44634e-21 8.72605 15.1317)
(-1.58511e-21 8.75012 15.1734)
(-1.93577e-21 9.07424 15.7438)
(-1.22917e-21 7.73538 13.482)
(4.73109e-24 7.87976 13.5703)
(-7.69972e-23 9.07252 15.6298)
(-6.70405e-23 8.73615 15.0909)
(-6.55187e-23 8.7262 15.055)
(-4.08266e-23 8.72016 15.0647)
(4.3111e-22 8.7239 15.0659)
(3.65435e-22 8.72048 15.0705)
(3.57226e-22 8.72112 15.0732)
(3.5175e-22 8.71969 15.077)
(3.7209e-22 8.71939 15.0804)
(3.48032e-22 8.71845 15.0844)
(3.49492e-22 8.71842 15.088)
(3.54536e-22 8.71704 15.0927)
(3.72704e-22 8.71834 15.096)
(3.6021e-22 8.7155 15.1022)
(3.56385e-22 8.71912 15.1047)
(3.53949e-22 8.71344 15.1105)
(3.79556e-22 8.73228 15.1373)
(4.51285e-22 9.00614 15.6274)
(2.91347e-22 7.90974 13.7799)
(-1.10974e-24 8.05938 13.8752)
(1.76876e-23 8.99949 15.5081)
(1.57047e-23 8.71781 15.0597)
(1.52042e-23 8.71457 15.0366)
(1.0913e-23 8.70879 15.0447)
(-1.00504e-22 8.71175 15.0461)
(-8.71007e-23 8.70918 15.0501)
(-8.53172e-23 8.70931 15.053)
(-8.36422e-23 8.70832 15.0565)
(-8.92058e-23 8.70782 15.0599)
(-8.22368e-23 8.70713 15.0636)
(-8.21184e-23 8.70687 15.0672)
(-8.37043e-23 8.70589 15.0715)
(-8.89236e-23 8.70675 15.0749)
(-8.43328e-23 8.70429 15.0809)
(-8.44859e-23 8.70801 15.0831)
(-8.4966e-23 8.70178 15.0904)
(-8.93653e-23 8.71699 15.1053)
(-1.03757e-22 8.93309 15.5027)
(-6.86119e-23 8.08321 14.0753)
(2.45617e-25 8.23966 14.1804)
(-3.90774e-24 8.9206 15.3748)
(-3.53033e-24 8.70166 15.0324)
(-3.38561e-24 8.70363 15.0189)
(-2.7326e-24 8.69851 15.0253)
(2.29077e-23 8.70035 15.0269)
(2.01665e-23 8.69874 15.0302)
(1.97957e-23 8.6984 15.033)
(1.93704e-23 8.69771 15.0361)
(2.06742e-23 8.69713 15.0394)
(1.90099e-23 8.69658 15.0428)
(1.8812e-23 8.69618 15.0464)
(1.92098e-23 8.69558 15.0504)
(2.0442e-23 8.69587 15.054)
(1.90926e-23 8.69427 15.0594)
(1.93456e-23 8.69727 15.062)
(1.96657e-23 8.69131 15.0701)
(2.03751e-23 8.70426 15.0762)
(2.32156e-23 8.85559 15.3705)
(1.57046e-23 8.25517 14.3662)
(-5.22204e-26 8.42319 14.4926)
(8.32491e-25 8.83809 15.2311)
(7.65245e-25 8.69069 15.012)
(7.27353e-25 8.69522 15.0051)
(6.50512e-25 8.69183 15.0089)
(-5.10209e-24 8.69213 15.0105)
(-4.53745e-24 8.69115 15.0126)
(-4.45603e-24 8.69036 15.0148)
(-4.36326e-24 8.68952 15.0171)
(-4.62602e-24 8.68863 15.0197)
(-4.28538e-24 8.68776 15.0224)
(-4.20345e-24 8.68689 15.0254)
(-4.29175e-24 8.68605 15.0287)
(-4.53948e-24 8.68544 15.0322)
(-4.20081e-24 8.68434 15.0364)
(-4.29115e-24 8.68532 15.0397)
(-4.39111e-24 8.68104 15.0469)
(-4.49979e-24 8.69108 15.0483)
(-5.0602e-24 8.77265 15.2324)
(-3.48019e-24 8.42327 14.6449)
(8.78568e-27 8.61058 14.8239)
(-1.39997e-25 8.75271 15.0801)
(-1.31067e-25 8.69281 15.0032)
(-1.23821e-25 8.695 15.0014)
(-1.20893e-25 8.69442 15.0021)
(9.03429e-25 8.69407 15.0026)
(8.11997e-25 8.69366 15.0031)
(7.94104e-25 8.69305 15.0038)
(7.78561e-25 8.69232 15.0046)
(8.16907e-25 8.69143 15.0056)
(7.66731e-25 8.69038 15.0067)
(7.48432e-25 8.68914 15.008)
(7.62905e-25 8.68772 15.0095)
(7.99199e-25 8.68605 15.0113)
(7.39533e-25 8.68417 15.0133)
(7.56497e-25 8.68208 15.0156)
(7.76622e-25 8.67892 15.0189)
(7.89706e-25 8.67938 15.02)
(8.83536e-25 8.69418 15.0844)
(6.11092e-25 8.5934 14.8933)
(2.37793e-15 -23.7499 6.01073)
(3.61644e-15 -27.6829 7.29068)
(2.90724e-15 -21.5045 6.98838)
(3.50489e-15 -23.7982 7.70349)
(4.06855e-15 -22.0828 8.02811)
(6.53386e-15 -27.2466 9.30052)
(5.54534e-15 -20.4385 8.12996)
(6.93475e-15 -22.9228 8.32647)
(8.37499e-15 -21.2147 8.17135)
(9.45624e-15 -25.9831 8.80667)
(-2.07148e-15 -20.1097 7.57499)
(-1.67917e-15 -20.5385 7.27709)
(-3.93236e-15 -23.1056 7.0922)
(-3.92192e-15 -18.3737 6.53304)
(-4.78971e-15 -20.26 6.09749)
(-5.20223e-15 -18.8956 5.72712)
(-7.3607e-15 -22.5612 6.26188)
(-7.11076e-15 -17.4863 6.88969)
(-9.40607e-15 -18.3149 7.46262)
(-3.73052e-15 -21.4916 10.4358)
(1.64056e-14 -16.3116 11.6583)
(1.21631e-14 -16.7673 11.5112)
(2.36164e-14 -16.47 10.4411)
(3.05444e-14 -16.6491 9.72215)
(3.02111e-14 -16.5419 9.6253)
(2.58049e-14 -16.6285 10.027)
(2.33158e-14 -16.6724 10.5931)
(2.1159e-14 -16.4451 10.9234)
(-6.06123e-15 -16.247 7.93146)
(1.82131e-14 -14.0665 10.8347)
(1.43059e-14 -14.0474 10.4146)
(1.41096e-14 -13.9401 10.0246)
(1.44004e-14 -13.8394 9.64669)
(1.49284e-14 -13.6739 9.43468)
(1.33205e-14 -13.4879 9.37353)
(1.04706e-14 -13.2442 9.31557)
(1.27216e-14 -12.9192 8.93614)
(1.28077e-14 -12.4336 7.64869)
(-7.33859e-15 -8.00043 -6.69629)
(-3.79675e-16 -9.70224 -0.367336)
(7.64381e-16 -7.39707 -4.95461)
(5.54559e-16 -10.3691 -4.64545)
(1.55334e-15 -7.77424 -5.28522)
(1.44205e-15 -6.82671 -4.11334)
(1.10109e-15 -7.80515 -6.01707)
(-2.2694e-16 -5.38902 -4.29487)
(-9.03309e-16 -6.02463 -6.32428)
(1.74791e-15 -5.11999 -5.09265)
(6.23413e-15 -3.9987 -3.74145)
(1.57489e-14 -4.45633 -4.64545)
(1.66504e-14 -2.79651 -2.59276)
(3.06885e-14 -3.10624 -3.31291)
(4.19726e-14 -2.39762 -1.91299)
(4.72997e-14 -1.4977 -1.55768)
(8.16182e-14 -1.43297 -2.67323)
(8.4887e-14 -1.15584 -2.31627)
(5.8858e-14 -0.911369 1.02582)
(1.71841e-13 -0.216225 -0.470114)
(4.04761e-14 0.450461 -0.207525)
(5.05754e-13 0.764996 3.23868)
(1.08565e-16 2.44864 -15.3059)
(4.75108e-16 -3.36206 17.4215)
(1.11745e-15 -2.34373 44.9723)
(1.73095e-15 0.315645 49.929)
(2.25301e-15 1.36933 38.3567)
(2.81988e-15 1.83601 23.2648)
(3.19485e-15 1.35944 6.82909)
(3.25704e-15 1.30439 -3.33688)
(2.51232e-15 0.67422 -12.5403)
(1.73316e-15 0.270251 -16.7693)
(1.16565e-15 -0.0385273 -17.3047)
(8.48013e-16 -0.134675 -15.7393)
(6.38746e-16 -0.379725 -14.5232)
(1.18918e-15 -0.922682 -11.039)
(-6.94276e-15 -0.609547 -1.16807)
(-3.57779e-14 -0.501819 8.60783)
(-3.59022e-14 0.119782 9.302)
(5.86113e-15 0.769686 0.373059)
(2.3756e-13 -0.443925 -0.899244)
(5.89205e-16 -2.91481 12.4205)
(1.15644e-15 -8.17665 36.9847)
(2.27257e-15 -4.47742 52.7434)
(3.73108e-15 1.56004 46.2893)
(4.69539e-15 3.61599 37.0664)
(5.46433e-15 5.17944 21.7781)
(5.67272e-15 3.72886 6.13045)
(5.46636e-15 3.27049 -3.57409)
(4.26595e-15 1.75439 -12.1701)
(2.96402e-15 0.674954 -16.0788)
(1.88632e-15 -0.117936 -16.8172)
(1.11811e-15 -0.380947 -15.857)
(5.12048e-16 -0.509369 -14.8842)
(1.14695e-15 -1.81912 -16.9174)
(-2.91673e-15 -3.07348 -9.92272)
(-2.75661e-14 -1.53323 8.08309)
(-8.77966e-15 1.51909 4.90484)
(-2.22646e-14 2.76431 -3.97825)
(1.46515e-13 -1.11003 -5.37628)
(7.96571e-16 -7.83071 20.6038)
(1.62686e-15 -11.4228 40.7754)
(3.5328e-15 -5.15155 48.6588)
(5.9114e-15 3.26558 45.374)
(7.01438e-15 5.94195 35.0482)
(7.85299e-15 8.42401 20.4059)
(7.80384e-15 6.13361 4.89534)
(7.35527e-15 5.14251 -4.37313)
(5.94117e-15 2.89894 -12.2376)
(4.33402e-15 1.13038 -15.805)
(2.83184e-15 -0.108911 -16.3575)
(1.57725e-15 -0.54034 -15.4392)