/*--------------------------------*- C++ -*----------------------------------*\
| =========                 |                                                 |
| \\      /  F ield         | OpenFOAM: The Open Source CFD Toolbox           |
|  \\    /   O peration     | Version:  4.1                                   |
|   \\  /    A nd           | Web:      www.OpenFOAM.org                      |
|    \\/     M anipulation  |                                                 |
\*---------------------------------------------------------------------------*/
FoamFile
{
    version     2.0;
    format      ascii;
    class       volScalarField;
    location    "5";
    object      k;
}
// * * * * * * * * * * * * * * * * * * * * * * * * * * * * * * * * * * * * * //

dimensions      [0 2 -2 0 0 0 0];

internalField   nonuniform List<scalar> 
1280
(
0.649313
0.581063
0.579471
0.582991
0.516749
0.522602
0.522627
0.526632
0.482126
0.490894
0.478911
0.622167
0.972047
0.451718
9.51456
18.6443
19.5414
81.8418
118.678
415.162
1416.47
2873.78
4376.58
5336.35
5366.96
4844.46
2726.14
925.355
605.049
340.921
97.1576
13.6655
0.0135214
0.000183777
0.000579794
0.00234948
0.0149059
0.0627517
1.30487
5.52455
10.2375
11.0058
31.026
52.0539
119.007
181.534
243.327
325.002
516.783
409.187
413.444
569.474
372.84
283.67
212.892
158.983
70.55
46.7694
26.0461
11.2204
4.82904
1.13752
0.0244993
0.00585113
0.00105538
0.00015734
1.32603e-05
0.000427785
0.442308
25.0991
270.613
548.923
827.68
2567.04
4605.56
5086.38
5019.77
4047.65
2553.95
1182.23
340.03
59.6273
2.6679
1.35451
0.315592
0.509952
0.431823
0.438534
0.425941
0.480826
0.47531
0.474263
0.519661
0.515083
0.514237
0.504268
0.568768
0.564696
0.565969
0.640283
4.11202e-12
4.11254e-12
4.11287e-12
4.11395e-12
4.11502e-12
4.11452e-12
4.11575e-12
4.11662e-12
4.11659e-12
4.12096e-12
4.1183e-12
4.15077e-12
6.25028e-10
1.56508e-05
1.03369e-08
4.14034e-12
4.16767e-12
4.42209e-12
0.00103481
4.11182e-12
4.11238e-12
4.11238e-12
4.11241e-12
4.11284e-12
4.11369e-12
4.11518e-12
4.11575e-12
4.116e-12
4.11878e-12
4.405e-12
1.03497e-10
3.49021e-06
0.122916
0.000222876
2.2564e-05
5.79711e-09
4.47288e-12
0.00108052
4.1119e-12
4.11242e-12
4.11232e-12
4.11274e-12
4.11369e-12
4.11349e-12
4.115e-12
4.11532e-12
4.11574e-12
4.86526e-12
4.57262e-09
7.28435e-09
8.85912e-06
3.38012
5.85279
0.451665
2.185e-06
2.44045e-11
0.0012371
4.11244e-12
4.11294e-12
4.11226e-12
4.11334e-12
4.11447e-12
4.11375e-12
4.11506e-12
4.11585e-12
4.56618e-12
6.60592e-09
8.09066e-05
9.94007e-05
0.00249112
30.2109
75.8994
51.2263
0.0410258
1.41494e-09
0.0023497
4.11198e-12
4.11234e-12
4.11302e-12
4.11269e-12
4.11357e-12
4.11623e-12
4.11575e-12
4.21864e-12
3.61873e-09
9.9402e-05
1.22763
2.55017
16.5935
147.221
243.77
182.162
3.76768
0.000642703
0.00429024
4.11192e-12
4.11224e-12
4.11353e-12
4.11254e-12
4.11328e-12
4.1158e-12
4.12263e-12
3.48362e-10
1.27741e-05
0.364355
8.29791
36.8644
147.858
360.913
429.965
342.158
46.5737
0.942425
5.6988
4.1119e-12
4.11223e-12
4.11335e-12
4.1125e-12
4.11326e-12
4.11584e-12
4.11468e-12
4.12206e-12
1.63017e-10
5.55383e-07
0.00127897
75.8572
309.864
579.5
675.876
631.723
232.484
219.356
920.216
4.11191e-12
4.11222e-12
4.1133e-12
4.11249e-12
4.11251e-12
4.11408e-12
4.12402e-12
1.26209e-10
3.34099e-06
0.0596961
2.0599
55.7066
219.976
543.552
653.746
758.802
591.917
223.997
255.351
4.11191e-12
4.11223e-12
4.1133e-12
4.1125e-12
4.11326e-12
4.11429e-12
4.1144e-12
4.11427e-12
4.11528e-12
4.57018e-12
1.53988e-08
0.00409968
14.9867
174.758
261.624
751.564
961.467
1094.52
1198.25
4.11247e-12
4.11256e-12
4.11307e-12
4.11235e-12
4.11294e-12
4.11544e-12
4.11354e-12
4.11492e-12
4.11919e-12
4.11551e-12
4.33317e-12
2.17773e-09
0.000379673
0.170943
187.56
694.389
939.006
1220.76
1267.85
4.11187e-12
4.11212e-12
4.11349e-12
4.11284e-12
4.11303e-12
4.11269e-12
4.11289e-12
4.11505e-12
4.11801e-12
1.79302e-11
2.50665e-07
0.00334491
15.9481
13.2685
148.115
564.626
856.121
1038.67
1039.77
4.11253e-12
4.11212e-12
4.11224e-12
4.11332e-12
4.11364e-12
4.11302e-12
4.11403e-12
4.117e-12
4.15207e-12
7.5629e-10
1.52152e-05
1.22237
83.4496
252.21
200.59
546.078
686.303
637.94
535.448
4.11253e-12
4.11307e-12
4.11233e-12
4.1129e-12
4.11474e-12
4.11331e-12
4.11372e-12
4.10828e-12
6.56028e-07
2.37835e-09
0.00499799
35.7457
294.039
578.393
598.666
616.089
430.774
211.587
284.57
4.11272e-12
4.11262e-12
4.11288e-12
4.11264e-12
4.11363e-12
4.1155e-12
4.12358e-12
3.6529e-10
1.15451e-05
0.185018
6.43712
95.5039
386.095
611.975
683.063
627.616
497.423
576.441
1122.26
4.11216e-12
4.11229e-12
4.11351e-12
4.11348e-12
4.11379e-12
4.1147e-12
4.11438e-12
7.81852e-12
1.37586e-07
0.00423492
3.47066
67.8708
280.494
592.819
675.33
798.347
971.632
974.273
598.793
4.11267e-12
4.11323e-12
4.11238e-12
4.11298e-12
4.11337e-12
4.1139e-12
4.11685e-12
4.11462e-12
4.12255e-12
2.91055e-10
8.01679e-06
0.0828889
41.7721
465.577
743.169
880.699
863.752
157.328
51.3776
4.11203e-12
4.11248e-12
4.11234e-12
4.11348e-12
4.11451e-12
4.11561e-12
4.11458e-12
4.11464e-12
4.11459e-12
4.11998e-12
9.08264e-11
5.20997e-07
0.0231282
147.803
535.085
618.152
119.97
5.08744
0.881468
4.11184e-12
4.11211e-12
4.11239e-12
4.11336e-12
4.1134e-12
4.11444e-12
4.11421e-12
4.11783e-12
4.11993e-12
4.1179e-12
4.12181e-12
2.38806e-11
1.01152e-08
0.00920645
117.916
96.8722
2.10161
0.0485434
0.00336302
4.11237e-12
4.1131e-12
4.11246e-12
4.1134e-12
4.11344e-12
4.11441e-12
4.11428e-12
4.11634e-12
4.11967e-12
4.11809e-12
4.11826e-12
4.12042e-12
4.59878e-12
2.21466e-09
0.00301822
0.876956
0.0323385
6.19562e-05
0.00117222
4.11201e-12
4.1126e-12
4.11289e-12
4.11373e-12
4.11473e-12
4.11569e-12
4.11438e-12
4.1163e-12
4.11983e-12
4.11965e-12
4.12295e-12
4.12242e-12
4.12753e-12
4.25254e-12
5.81416e-10
1.50234e-09
4.37199e-12
4.39797e-12
0.000988562
13.9624
27.6057
5.88634
13.2919
39.5339
11.1732
16.1489
8.59164
1.4094
3.34291
0.872557
0.122727
0.00012146
1.3358e-07
4.79022e-08
3.61907e-12
9.41484e-07
0.0208761
3.13057
34.0101
55.2876
27.7284
30.3982
9.84061
1.91366
0.406418
0.0209554
0.00101702
4.47719e-05
6.14272e-06
8.97147e-08
1.45939e-11
4.49937e-12
4.45509e-12
4.38004e-12
4.51126e-12
5.49331e-08
0.00522188
1.16077
21.76
51.5883
27.6106
36.1231
16.3504
3.31331
0.392839
0.0399094
0.00215877
7.37834e-05
2.16786e-07
1.51185e-11
4.48258e-12
4.49323e-12
4.45921e-12
4.40898e-12
4.48769e-12
2.61332e-08
0.00442175
1.05088
19.6382
54.9081
34.6349
67.184
31.1862
6.40747
0.84424
0.0797812
0.00537771
0.000177144
4.31568e-06
4.09701e-10
4.53119e-12
4.53957e-12
4.51949e-12
4.5014e-12
4.44122e-12
2.40687e-08
0.0043651
1.02455
15.1252
55.9811
47.7155
105.726
53.3628
11.7369
1.52856
0.14445
0.0100798
0.000366853
9.66351e-06
1.10998e-09
4.48805e-12
4.36539e-12
4.40246e-12
4.38985e-12
4.41073e-12
1.94601e-08
0.00405744
1.06252
12.9821
57.6371
63.6609
169.873
90.7025
20.3386
2.59858
0.241065
0.0182193
0.000792055
2.33848e-05
4.75353e-08
8.71218e-12
4.39093e-12
4.42271e-12
4.40043e-12
4.4595e-12
1.32414e-08
0.00370162
1.16807
8.92818
55.2896
84.777
261.713
142.893
30.8688
3.57442
0.320262
0.026557
0.00144178
4.52525e-05
1.1519e-06
1.70355e-10
4.644e-12
4.61993e-12
4.61646e-12
4.61662e-12
2.28253e-09
0.00224282
1.16462
7.05556
53.2633
109.568
374.878
187.489
38.5575
3.87849
0.280021
0.0144357
0.000854508
4.76512e-05
1.42658e-06
1.33966e-09
4.61223e-12
4.40401e-12
4.37587e-12
4.38078e-12
1.8256e-11
0.0004174
0.479272
4.3398
47.6316
129.82
428.577
150.4
11.2561
0.423062
0.0140486
0.000535432
1.71748e-05
4.49651e-06
3.20304e-08
5.91672e-13
4.37946e-12
4.41158e-12
4.38359e-12
4.3888e-12
5.03775e-12
6.42929e-05
0.178956
3.49637
38.0058
146.867
206.459
17.0096
0.320686
0.00944374
0.000421495
1.81471e-05
8.21855e-07
2.50314e-08
2.07348e-11
4.39614e-12
4.4248e-12
4.58182e-12
4.54564e-12
4.57737e-12
4.49262e-12
2.38563e-05
0.0747341
2.75208
25.3824
163.771
20.6696
0.237153
0.00879297
0.00171932
0.000264194
1.45637e-05
9.07135e-07
4.69546e-11
4.55612e-12
4.38814e-12
4.39683e-12
4.42975e-12
4.4556e-12
4.49753e-12
4.46707e-12
4.5092e-05
0.0687039
2.50516
13.963
31.5853
0.896599
0.0669543
0.0136805
0.00302809
0.000553355
6.77217e-05
7.00733e-06
1.707e-08
1.47405e-11
4.37333e-12
4.38373e-12
4.40548e-12
4.45164e-12
4.4933e-12
1.00032e-11
0.000162456
0.0854931
2.17024
10.5712
4.18653
0.432591
0.102119
0.0262345
0.00643784
0.00138096
0.000240817
2.6587e-05
2.47845e-06
6.62442e-09
8.32042e-12
4.40723e-12
4.40883e-12
4.54872e-12
4.92244e-12
4.02401e-09
0.000716605
0.187876
2.09705
7.22944
1.06712
0.48143
0.143284
0.0363525
0.00913847
0.00216861
0.000460523
6.63627e-05
7.13832e-06
7.25566e-07
1.49879e-09
5.85766e-12
4.41673e-12
3.6475e-11
3.00956e-10
2.04306e-06
0.00301283
0.475543
1.97605
5.69774
0.670765
0.357555
0.0728387
0.0109789
0.00175767
0.000348604
0.000102597
3.12869e-05
6.35597e-06
8.79022e-07
6.22838e-08
9.43345e-11
4.92837e-12
2.61396e-08
2.19834e-07
0.00142207
0.0138339
1.46173
2.396
3.54317
0.423376
0.0507887
0.00502273
0.000532456
7.49986e-05
1.17758e-05
1.71195e-06
2.05556e-07
2.3731e-08
7.77983e-10
9.73293e-11
5.98733e-11
3.24362e-10
1.77039e-05
0.000138678
0.0154966
0.0801428
5.00754
3.63402
2.3869
0.106164
0.00345826
9.50189e-05
3.64365e-06
3.34926e-07
3.16305e-08
1.8468e-08
1.561e-08
1.32232e-08
1.13431e-08
9.29015e-09
7.67084e-09
7.2125e-08
0.000431165
0.0193298
0.138974
0.524949
11.7805
5.93319
1.64725
0.00174838
1.21816e-06
9.72257e-07
9.15854e-07
8.36272e-07
7.90221e-07
7.21623e-07
6.61984e-07
6.02392e-07
5.4517e-07
4.88117e-07
4.58187e-07
7.66492e-06
0.0107133
0.293232
1.47062
4.52774
25.2108
12.1902
1.14189
0.000204127
5.71032e-05
5.37485e-05
5.24242e-05
5.04353e-05
4.88702e-05
4.72317e-05
4.56717e-05
4.40772e-05
4.24405e-05
4.07413e-05
4.34151e-05
0.000960814
0.100337
1.06311
6.05504
18.8778
17.8538
8.64929
0.964065
0.00674056
0.00670355
0.00670111
0.00670017
0.00669876
0.00669763
0.00669646
0.00669535
0.0066942
0.00669303
0.00669179
0.00669048
0.0066889
0.00667335
0.00665925
0.00666292
0.00684603
0.0282067
1.27354
0.964025
0.00674056
0.00670355
0.00670111
0.00670018
0.00669875
0.00669763
0.00669646
0.00669535
0.00669421
0.00669303
0.0066918
0.00669047
0.00668689
0.00666208
0.00665991
0.00666335
0.00684658
0.0282006
1.27412
1.1433
0.00020464
5.71059e-05
5.37524e-05
5.24291e-05
5.04413e-05
4.88768e-05
4.72386e-05
4.56795e-05
4.40867e-05
4.24516e-05
4.07785e-05
4.60347e-05
0.00149874
0.133097
1.25297
7.01792
21.025
19.8068
9.24825
1.55065
0.00155471
1.21278e-06
9.72583e-07
9.19024e-07
8.26551e-07
7.8119e-07
7.21619e-07
6.62191e-07
6.02648e-07
5.45585e-07
4.88266e-07
4.35917e-07
1.51171e-06
0.00309333
0.189495
1.31171
4.70434
27.4225
13.1265
2.56885
0.121983
0.00378703
0.00011098
4.54417e-06
6.56503e-07
1.42942e-07
2.59845e-08
1.59053e-08
1.32502e-08
1.09072e-08
9.03545e-09
7.35563e-09
1.6231e-08
7.53076e-05
0.0199249
0.134021
0.564261
12.2669
6.46901
3.50747
0.36532
0.0642622
0.0103558
0.00205883
0.000531929
0.000160488
4.24924e-05
1.07451e-05
2.51013e-06
4.73377e-07
6.7831e-08
2.4361e-09
9.08456e-11
1.65965e-06
0.00207475
0.016298
0.087357
4.84522
3.78684
5.43323
0.868515
0.304202
0.119065
0.0288297
0.0466907
0.0378322
0.0440055
0.0201455
0.00647122
0.00192982
0.000542028
0.000121205
2.6084e-05
7.41763e-05
0.00032075
0.00179202
0.0150436
1.29486
2.54002
7.50127
1.81192
5.15845
5.34095
4.2152
3.09339
1.94198
1.04958
0.405109
0.109945
0.0218294
0.004967
0.00220986
0.000628902
0.000220547
0.000124467
4.138e-06
0.00319934
0.414223
2.25733
73.3283
323.544
362.515
301.216
207.082
130.231
72.5011
32.8245
11.0492
4.08341
1.39668
0.240578
0.0416781
0.00665462
0.000409412
5.46298e-05
1.1196e-07
0.000835051
0.174956
2.20995
385.536
1019.4
1144.77
991.54
743.281
509.931
320.172
180.473
82.3436
22.763
2.13553
0.199163
0.0201355
0.00248657
0.000191856
4.99732e-06
1.24899e-09
0.000200998
0.0856822
2.55771
552.808
1167.82
1345.49
1184.11
903.993
634.981
410.577
224.39
73.5163
11.2615
0.87082
0.0727466
0.00639181
0.000755466
1.2502e-05
9.8505e-09
7.34769e-12
5.29279e-05
0.0849884
2.88107
582.476
1148.09
1329.4
1169.06
892.598
626.555
399.123
205.937
37.9436
3.51206
0.27951
0.000646966
0.00154741
3.54965e-05
2.38981e-08
2.07158e-11
4.50531e-12
3.01637e-05
0.0957817
3.45266
545.128
985.127
1137.1
984.722
743.889
517.655
321.004
127.974
14.6203
1.13703
0.0947562
5.98751e-05
5.73479e-06
5.61561e-08
4.63428e-11
4.63461e-12
4.83516e-12
4.61146e-05
0.156196
3.79675
433.971
720.14
844.418
719.762
535.693
367.968
205.44
45.2071
4.65459
0.381866
0.00638605
8.9377e-07
8.53215e-09
8.88105e-11
4.45581e-12
4.39386e-12
6.5668e-11
0.000654557
0.650502
4.69409
330.755
506.679
611.622
509.02
368.831
238.044
101.309
2.15912
2.79764e-05
2.17556e-05
1.02657e-05
2.48692e-09
1.71858e-11
4.79684e-12
4.3766e-12
4.38366e-12
3.01195e-08
0.00406659
1.45606
7.34838
248.399
342.967
433.034
349.129
243.029
137.437
32.3064
0.80953
1.74848e-05
2.99572e-08
1.58409e-08
1.34505e-11
4.64885e-12
4.41287e-12
4.55342e-12
4.57358e-12
4.48321e-08
0.00534905
1.3809
9.23977
185.492
223.367
292.743
228.361
150.749
64.8436
9.30239
0.0360317
3.60271e-05
4.10266e-09
2.85748e-11
4.46076e-12
4.39706e-12
4.39372e-12
4.41604e-12
4.39972e-12
7.03307e-08
0.00660809
1.18587
13.4053
139.783
140.557
189.911
144.566
87.5848
26.8199
2.77603
0.000218273
4.72102e-08
1.61873e-11
4.40835e-12
4.63337e-12
4.37885e-12
4.39721e-12
4.39708e-12
4.38109e-12
6.1924e-08
0.00608245
1.11935
15.4792
104.26
90.4174
116.648
84.8487
45.033
10.0381
0.783461
1.79043e-05
9.44396e-10
4.55098e-12
4.36862e-12
4.41327e-12
4.43233e-12
4.3972e-12
4.4441e-12
4.41243e-12
4.36967e-08
0.00579202
1.12797
19.8329
88.4329
55.3346
61.0963
47.763
24.3044
4.9577
0.17485
0.000834131
2.94557e-05
2.69134e-06
9.18338e-09
5.16464e-12
4.43507e-12
4.43784e-12
4.44238e-12
4.41166e-12
9.36962e-08
0.00668068
1.22056
21.8971
54.8189
37.6412
61.0787
56.9965
8.66039
43.2007
13.1111
7.43329
4.92979
2.43034
0.225411
0.0039723
3.84187e-06
4.4954e-12
4.56963e-12
4.53835e-12
1.21925e-06
0.02345
3.22429
34.1305
)
;

boundaryField
{
    outletWall
    {
        type            zeroGradient;
    }
    fineWalls
    {
        type            kqRWallFunction;
        value           nonuniform List<scalar> 
60
(
415.162
118.678
81.8418
19.5414
18.6443
9.51456
0.451718
0.972047
0.622167
0.478911
0.490894
0.482126
0.526632
0.522627
0.522602
0.516749
0.582991
0.579471
0.581063
0.649313
11.2204
26.0461
46.7694
70.55
158.983
212.892
283.67
372.84
569.474
413.444
409.187
516.783
325.002
243.327
181.534
119.007
52.0539
31.026
11.0058
10.2375
0.640283
0.565969
0.564696
0.568768
0.504268
0.514237
0.515083
0.519661
0.474263
0.47531
0.480826
0.425941
0.438534
0.431823
0.509952
0.315592
1.35451
2.6679
59.6273
340.03
)
;
    }
    fineFrontAndBack
    {
        type            zeroGradient;
    }
    fineplugLeft
    {
        type            cyclicAMI;
        value           nonuniform List<scalar> 
20
(
28.313
2.76543
0.0292512
0.00298193
0.000469895
0.000115997
3.68623e-05
0.00280144
2.83127
20.1296
70.8585
122.137
191.944
324.296
977.83
1105.02
1077.9
880.025
596.84
294.463
)
;
    }
    fineplugRight
    {
        type            cyclicAMI;
        value           nonuniform List<scalar> 
20
(
28.2702
2.80694
0.0236598
0.0011712
0.000211076
3.1468e-05
2.65207e-06
8.86305e-05
0.0916395
5.20016
56.067
113.728
171.483
303.513
955.673
1024.2
1049.55
858.393
540.903
280.301
)
;
    }
    inletOutletLeft
    {
        type            cyclicAMI;
        value           nonuniform List<scalar> 
20
(
28.313
2.76543
0.0292512
0.00298193
0.000469895
0.000115997
3.68623e-05
0.00280144
2.83127
20.1296
70.8585
122.137
191.944
324.296
977.83
1105.02
1077.9
880.025
596.84
294.463
)
;
    }
    inletLeft
    {
        type            fixedValue;
        value           uniform 1.13;
    }
    inletWallsLeft
    {
        type            kqRWallFunction;
        value           nonuniform List<scalar> 
40
(
0.964065
1.14189
1.64725
2.3869
3.54317
5.69774
7.22944
10.5712
13.963
25.3824
38.0058
47.6316
53.2633
55.2896
57.6371
55.9811
54.9081
51.5883
55.2876
13.9624
34.0101
21.76
19.6382
15.1252
12.9821
8.92818
7.05556
4.3398
3.49637
2.75208
2.50516
2.17024
2.09705
1.97605
2.396
3.63402
5.93319
12.1902
8.64929
1.27354
)
;
    }
    inletFacesLeft
    {
        type            zeroGradient;
    }
    inletOutletRight
    {
        type            cyclicAMI;
        value           nonuniform List<scalar> 
20
(
28.2702
2.80694
0.0236598
0.0011712
0.000211076
3.1468e-05
2.65207e-06
8.86305e-05
0.0916395
5.20016
56.067
113.728
171.483
303.513
955.673
1024.2
1049.55
858.393
540.903
280.301
)
;
    }
    inletRight
    {
        type            fixedValue;
        value           uniform 1.13;
    }
    inletWallsRight
    {
        type            kqRWallFunction;
        value           nonuniform List<scalar> 
40
(
54.8189
88.4329
104.26
139.783
185.492
248.399
330.755
433.971
545.128
582.476
552.808
385.536
73.3283
7.50127
5.43323
3.50747
2.56885
1.55065
1.1433
0.964025
1.27412
9.24825
13.1265
6.46901
3.78684
2.54002
2.25733
2.20995
2.55771
2.88107
3.45266
3.79675
4.69409
7.34838
9.23977
13.4053
15.4792
19.8329
21.8971
34.1305
)
;
    }
    inletFacesRight
    {
        type            zeroGradient;
    }
}


// ************************************************************************* //
