/*--------------------------------*- C++ -*----------------------------------*\
| =========                 |                                                 |
| \\      /  F ield         | OpenFOAM: The Open Source CFD Toolbox           |
|  \\    /   O peration     | Version:  4.1                                   |
|   \\  /    A nd           | Web:      www.OpenFOAM.org                      |
|    \\/     M anipulation  |                                                 |
\*---------------------------------------------------------------------------*/
FoamFile
{
    version     2.0;
    format      ascii;
    class       volScalarField;
    location    "5";
    object      p;
}
// * * * * * * * * * * * * * * * * * * * * * * * * * * * * * * * * * * * * * //

dimensions      [0 2 -2 0 0 0 0];

internalField   nonuniform List<scalar> 
1280
(
-15.3762
43.667
16.8959
-12.5208
78.4022
30.8419
-2.08137
20.7206
79.8468
51.1966
-27.785
96.5758
37.2752
-102.973
71.103
-28.4692
-218.588
-183.617
129.65
-1182.54
346.717
1769.91
2412.61
2669.02
2689.38
3260.21
482.915
1851.53
1737.07
1589.69
1530.58
1481.27
1436.69
1387.62
1344.39
1280.71
1240.02
1132.74
1116.18
878.068
-2101.7
-1132.07
-730.234
-621.839
-216.193
-342.769
-244.138
-208.458
-588.467
-211.93
-212.662
-575.16
-204.785
-240.43
-339.996
-228.619
-572.219
-664.871
-1047.24
-2014.88
1106.87
1320.26
1319.23
1405.14
1426.56
1472.13
1495.95
1525.86
1544.77
1562.64
1594.84
1707.55
1818.97
640.788
3135.17
2347.71
2127.87
1713.74
1355.43
241.06
-1258.77
-69.8435
-277.146
-254.813
-153.626
-35.0773
-123.421
-44.8677
12.2251
-42.2168
-8.78922
18.323
1.46838
-9.02061
0.930552
24.8805
-2.15711
1.8317
16.6393
1.26847
2.2493
11.5065
13.7113
24.8714
42.2822
64.1951
53.6953
-38.4195
-28.6133
-30.9244
-59.5022
-108.19
-65.97
19.2673
72.4599
76.269
31.2655
4.45285
11.5513
-0.0133134
17.6399
17.9396
34.268
51.8018
57.2776
20.7413
-49.0027
-8.79708
59.7139
85.7988
-45.2262
30.4351
185.128
255.932
240.974
113.998
37.3931
22.8072
0.428917
31.7899
32.885
57.7689
78.8902
84.5815
49.4837
-32.1612
-16.9441
72.8071
119.099
-95.5709
44.7571
242.44
340.744
319.658
143.718
36.7212
28.2864
-2.61979
38.6892
37.6335
65.128
74.6537
49.0687
-2.95385
-68.9226
-29.8153
74.5633
95.0899
-113.449
32.0925
312.982
438.534
410.705
202.297
70.465
61.4236
-6.13305
45.3836
39.2726
64.0224
64.1292
33.1197
-2.73998
-51.1321
-27.8076
23.5086
-8.53464
-141.479
-6.07973
408.823
552.367
497.842
201.637
12.5428
21.7128
-11.4256
49.8384
40.8528
65.133
50.4597
11.5733
-11.9755
-26.1554
16.7961
5.51022
-102.986
-281.544
-16.0374
449.488
696.098
580.095
296.097
123.814
121.766
-16.5681
52.5584
41.1201
62.8734
36.64
-0.590795
-9.44747
10.2212
35.1107
-54.1384
-237.608
-308.337
-70.5694
437.438
814.113
650.469
143.074
-174.501
-62.5299
-21.0879
54.7486
46.845
65.6105
30.4647
4.01467
16.3572
70.7285
100.398
30.8253
-264.338
-317.063
-141.123
320.527
859.135
977.217
651.349
436.991
330.041
-19.6584
61.3848
55.0183
63.92
23.6368
7.28931
41.999
114.976
132.942
88.0703
-86.0485
-216.158
-119.387
196.886
654.45
913.272
1174.63
2353.57
2929.05
-21.1995
57.9565
62.5657
75.0376
20.9675
-0.842589
55.9239
144.397
147.277
86.1958
-55.3148
-162.51
-89.1014
172.827
625.155
954.533
1199.66
2423.84
2138.23
-23.0299
61.1669
53.1189
58.9513
9.65316
-10.7022
61.7004
154.859
153.707
105.893
-11.396
-156.791
-127.446
75.4354
517.486
974.282
1324.29
2500.81
2134.47
-26.1911
64.3821
52.0343
49.868
-10.5187
-49.7938
20.848
116.654
128.992
103.455
8.60644
-166.338
-164.041
-39.8218
331.568
819.187
1141.37
2136.75
2820.03
-26.1529
68.9307
50.4926
44.9188
-25.3777
-79.3799
-42.1678
55.5878
90.0615
89.1055
11.6774
-209.357
-261.27
-196.375
220.067
828.758
1091.32
941.508
773.896
-24.5877
72.0898
55.6719
53.4214
-26.3541
-83.7668
-94.2303
-19.6323
32.0868
63.7698
9.06133
-229.707
-243.939
-186.716
188.573
609.173
575.145
126.653
-0.433817
-17.837
72.8143
57.6511
61.0713
-10.6138
-79.1138
-125.621
-88.3329
-31.4092
35.8239
3.26023
-246.581
-194.842
-174.166
148.583
527.701
594.151
397.646
276.072
-10.2959
70.2507
61.8849
73.4404
25.2943
-43.2771
-112.016
-129.804
-92.3979
-5.89654
-10.095
-213.619
-143.021
-78.9305
129.445
381.633
389.695
244.007
139.246
-4.53616
60.3753
56.8064
72.5595
44.4926
-9.37267
-80.5379
-130.223
-110.587
-9.7747
-1.53908
-116.182
-172.225
19.4837
115.124
295.247
316.951
228.164
151.53
0.0194878
49.0336
49.5029
66.2911
59.2721
41.6647
-1.95989
-62.8338
-76.2704
8.73082
11.4548
-53.6583
-145.245
8.79208
77.3815
219.307
230.953
161.763
98.909
-0.00518314
28.0308
27.7819
38.0152
35.9348
25.0855
-8.31148
-40.3857
-16.7819
42.3843
46.017
-61.4073
-85.6025
-9.13727
56.302
161.919
169.658
122.38
76.2385
2.6664
15.9943
18.137
27.036
36.6965
51.6654
55.7736
5.69345
-82.857
-31.2881
-8.03754
-109.543
-123.556
-85.7466
-50.9819
16.3846
52.5363
39.8579
48.1552
10313.5
10258
10155.7
10024.2
9879.04
9723.35
9562.36
9390.5
9224.76
9060.66
8906.93
8760.23
8626
8501.9
8391.1
8290.11
8205.6
8123.87
8071.23
7991.43
8016.1
8063.25
8075.36
8103.41
8125.95
8147.18
8168.67
8171.99
8175.6
8164.68
8153.82
8135.03
8115.86
8093.05
8070.45
8046.66
8025.31
8002.29
7987.7
7962.41
8699.18
8683.28
8678.06
8668.32
8661.18
8645.99
8637.39
8621.28
8610.53
8594.49
8581.41
8565.71
8551.3
8536.14
8521.44
8507.05
8493.19
8479.38
8468.56
8450.95
8194.03
8210.72
8227.94
8242.54
8259.05
8270.75
8285.62
8293.92
8304.97
8312.13
8320.55
8327.26
8334.03
8340.42
8346.03
8352.32
8356.82
8363.35
8366.34
8372.09
8113.3
8133.53
8149.29
8165.6
8180.26
8194.97
8209.82
8221.88
8234.32
8245.58
8257.01
8268.38
8279.42
8291.17
8301.67
8314.07
8323.23
8336.8
8342.89
8356.76
7643.73
7694.15
7714.6
7748.31
7770.08
7798.27
7824.12
7849.58
7874.49
7899.23
7923.67
7948.55
7972.72
7998.08
8021.39
8047.71
8068.39
8096.87
8111.04
8142.43
7061.67
7133.9
7161.17
7203.21
7229.17
7263.82
7299.15
7334.38
7370.97
7407.68
7444.62
7482.45
7519.54
7558.41
7594.48
7635.04
7667.27
7711.6
7733.6
7784.5
6261.28
6340.25
6382.43
6419.7
6452.88
6486.92
6533.28
6571.77
6619.67
6665.04
6713.42
6762.85
6812.13
6864.03
6912.64
6967.4
7011.34
7071.84
7102.36
7174.42
5495.01
5555.22
5603.49
5612.87
5651.93
5667.43
5720.96
5742.35
5792.35
5828.78
5875.96
5922.2
5970.66
6022.67
6071.89
6129
6174.54
6239.46
6272.26
6350.52
4927.6
4964.21
4992.03
4984.79
5030.55
5014.94
5075.1
5066.91
5113.31
5125.93
5161.53
5189.05
5222.79
5259.31
5294.11
5337.82
5370.69
5423.68
5447.68
5514.03
4603.56
4634.89
4650.8
4641.66
4705.02
4667.15
4735.65
4709.36
4755.35
4750.92
4777.73
4787.57
4805.49
4822.21
4836.69
4857.95
4868.62
4896.9
4899.68
4943.13
4295.89
4336.43
4390.11
4372.46
4477.44
4439.09
4535.5
4520.67
4585.36
4594.87
4634.91
4655.43
4681.65
4703.37
4720.99
4740.44
4749.42
4766.55
4764.34
4782.73
3589.99
3653.51
3776
3752.29
3931.39
3908.73
4061.69
4084.47
4195.11
4251.94
4335.92
4404.08
4474.22
4539.62
4598.57
4654.46
4697.98
4738.83
4759.17
4777.76
2065.47
2121.93
2323.25
2274.33
2527.85
2503.98
2712.76
2764.11
2923.37
3030.26
3170.25
3303.64
3444.31
3589.09
3733.04
3879.74
4015.24
4150.47
4248.66
4381.15
64.4208
-27.7596
169.187
2.24905
215.837
78.6634
219.876
163.591
233.412
232.96
268.9
290.693
321.454
364.858
428.401
539.682
677.023
885.164
1059.05
1308
203.049
-120.988
-40.8907
-379.74
-312.98
-595.175
-615.363
-815.919
-904.595
-1059.37
-1179.7
-1316.08
-1436.37
-1535.3
-1597.95
-1625.48
-1649.97
-1623.12
-1603.65
-1436.03
4015.22
3562.03
3627.67
3049.75
3017.67
2566.94
2388.29
2053.98
1819.5
1547.25
1313.82
1084.35
886.68
723.306
606.149
512.686
423.403
310.476
126.852
22.8673
5958.44
5511.15
6087.05
5508.72
5716.22
5390.43
5323.62
5096.06
4930.06
4724.26
4532.4
4338.9
4164.12
4021.2
3924.49
3856.9
3801.51
3762.74
3713.39
3617.05
4323.77
2703.43
3481.12
2564.99
2526.46
2028.53
1753.53
1398.88
1117.6
854.287
644.741
485.829
394.556
381.522
462.591
640.2
878.26
1196.83
1621.9
1864.47
56661.8
50189.7
46753.4
42451.3
38864.4
35320.3
32060.8
28964.5
26053.7
23295.8
20679.9
18189.6
15811.5
13531.1
11353.1
9251.67
7148.87
5319.12
3541.58
658.232
58972.1
52501.1
49065.3
44763.6
41176.8
37632.6
34372.8
31276
28364.5
25605.9
22989.1
20498
18119.2
15838.3
13659.9
11558.4
9455.72
7626.9
5851.11
2960.14
6666.02
5045.57
5823.71
4907.86
4869.86
4372.45
4098.13
3744.22
3463.85
3201.54
2993.17
2835.53
2745.55
2733.81
2816.51
2996.5
3237.74
3559.31
3984.4
4232.13
8289.85
7842.35
8417.28
7838.07
8044.03
7716.68
7647.76
7417.94
7249.2
7040.47
6845.28
6648.28
6469.71
6322.74
6222.89
6153.68
6097.48
6060.95
6013.27
5916.41
6382.24
5929.6
5995.89
5419.03
5387.05
4936.43
4757.59
4422.35
4186.64
3912.23
3675.96
3442.54
3239.93
3070.69
2947.98
2850.4
2758.45
2644.6
2473.52
2389.63
2638.96
2321.23
2409.02
2075.68
2151.2
1875.21
1864.48
1673.19
1595.42
1452.92
1346.47
1226.07
1123.57
1043.95
1001.29
995.291
988.316
1033.7
1065.55
1235.24
2691.46
2612.87
2817.89
2660.3
2881.77
2753.37
2899.36
2852.39
2926.85
2934.53
2976.32
3005
3041.27
3088.97
3153.2
3261.62
3390.21
3587.67
3765.47
4018.59
4781.78
4894.05
5073.41
4969.66
5211.32
5151.77
5351.5
5384.12
5540.54
5641.05
5776.31
5903.67
6039.41
6177.62
6313.61
6453.06
6579.19
6710.19
6798.79
6932.3
6578.07
6641.32
6808.42
6656.08
6778.59
6713.05
6780.49
6770.83
6818.5
6841.38
6894.66
6943.27
6996.75
7051.89
7105.22
7160.89
7206.34
7258.2
7284.91
7329.75
7095.4
7220.24
7307.35
7323.7
7380.44
7407.69
7449.85
7476.2
7503.36
7520.56
7539.03
7552.87
7573.96
7604.42
7637.06
7677.99
7712.99
7762.75
7790.33
7849.86
7824.19
7964.88
8024.01
8079.45
8100.21
8116.64
8126.37
8135.2
8146.91
8166.89
8190.16
8218.85
8253.82
8294.44
8334.46
8379.67
8416.71
8464.83
8488.81
8540.48
8279.07
8380.39
8414.69
8429.67
8414.87
8399.02
8386.99
8386.97
8403.92
8440.14
8485.35
8532.26
8578.28
8622.79
8662.86
8701.46
8732.12
8763.74
8780.74
8800.59
8351.61
8402.5
8419.32
8420.23
8410.37
8404.87
8406.67
8422.57
8449.24
8481.78
8520.78
8565.84
8606.19
8642.07
8673.12
8698.95
8719.91
8735.14
8746.07
8747.01
8443.15
8468.34
8479.59
8481.62
8480.85
8483.64
8491.68
8505.86
8509.85
8510.4
8535.05
8570.3
8598.07
8623.1
8644.74
8661.19
8676.21
8684.64
8693.52
8692.82
8508.19
8518.26
8525.19
8527.15
8528.98
8532.94
8539.13
8550.96
8564.91
8579.11
8599.35
8619.24
8635.34
8650.1
8662.91
8672.22
8681.89
8686.89
8693.15
8694.12
8570.16
8576.67
8585.43
8592.13
8599.6
8608.02
8617.05
8626.52
8636.58
8645.44
8655.53
8664.58
8672.9
8680.19
8686.89
8691.7
8697.36
8700.48
8704.51
8706.24
8708.9
8705.26
8711.11
8713.21
8716.8
8719.67
8722.15
8723.59
8725.73
8727.04
8729.09
8730.48
8732.14
8732.88
8733.95
8733.86
8734.79
8734.11
8734.79
8732.82
8606.57
8609.8
8620.09
8627.88
8636.74
8643.66
8649.48
8653.66
8658.16
8661.03
8663.98
8665.29
8666.72
8666.79
8667.31
8666.5
8666.69
8665.38
8665.59
8663.26
8977.31
8952.9
8951.61
8938.38
8928.26
8915.08
8901.88
8887.96
8874.2
8859.1
8844.09
8827.34
8811.23
8793.99
8777.97
8760.73
8745.9
8728.61
8717.26
8696.14
8303.47
8340.81
8367.2
8391.17
8413.57
8427.15
8435.49
8435.73
8431.81
8421.63
8407.38
8387.52
8365.58
8340.65
8316.62
8290.43
8268.69
8243.26
8228.99
8202.26
10416.1
10340.2
10255.3
10137.5
10008.5
9872.72
9722.54
9568.64
9413.74
9261.82
9114.73
8973.56
8844.27
8724.92
8619.55
8522.11
8443.11
8364.17
8316.59
8241.01
)
;

boundaryField
{
    outletWall
    {
        type            fixedValue;
        value           uniform 0;
    }
    fineWalls
    {
        type            zeroGradient;
    }
    fineFrontAndBack
    {
        type            zeroGradient;
    }
    fineplugLeft
    {
        type            cyclicAMI;
        value           nonuniform List<scalar> 
20
(
6568.76
6680.22
6725.64
6812.48
6888.23
6981.76
7079.04
7188.14
7304.44
7431.66
7566.47
7727.22
7882.71
8529.96
8430.72
8441.11
8553.17
8607.05
8560.34
8320.12
)
;
    }
    fineplugRight
    {
        type            cyclicAMI;
        value           nonuniform List<scalar> 
20
(
6814.19
6917.33
6955.18
7035.51
7103
7190.07
7279.13
7380.59
7487.81
7604.31
7728.42
7872.5
8018.7
8689.88
8525.21
8476.38
8535.55
8546.99
8543.22
8381.09
)
;
    }
    inletOutletLeft
    {
        type            cyclicAMI;
        value           nonuniform List<scalar> 
20
(
6568.76
6680.22
6725.64
6812.48
6888.23
6981.76
7079.04
7188.14
7304.44
7431.66
7566.47
7727.22
7882.71
8529.96
8430.72
8441.11
8553.17
8607.05
8560.34
8320.12
)
;
    }
    inletLeft
    {
        type            zeroGradient;
    }
    inletWallsLeft
    {
        type            zeroGradient;
    }
    inletFacesLeft
    {
        type            zeroGradient;
    }
    inletOutletRight
    {
        type            cyclicAMI;
        value           nonuniform List<scalar> 
20
(
6814.19
6917.33
6955.18
7035.51
7103
7190.07
7279.13
7380.59
7487.81
7604.31
7728.42
7872.5
8018.7
8689.88
8525.21
8476.38
8535.55
8546.99
8543.22
8381.09
)
;
    }
    inletRight
    {
        type            zeroGradient;
    }
    inletWallsRight
    {
        type            zeroGradient;
    }
    inletFacesRight
    {
        type            zeroGradient;
    }
}


// ************************************************************************* //
