/*--------------------------------*- C++ -*----------------------------------*\
| =========                 |                                                 |
| \\      /  F ield         | OpenFOAM: The Open Source CFD Toolbox           |
|  \\    /   O peration     | Version:  4.1                                   |
|   \\  /    A nd           | Web:      www.OpenFOAM.org                      |
|    \\/     M anipulation  |                                                 |
\*---------------------------------------------------------------------------*/
FoamFile
{
    version     2.0;
    format      ascii;
    class       surfaceScalarField;
    location    "5";
    object      phi;
}
// * * * * * * * * * * * * * * * * * * * * * * * * * * * * * * * * * * * * * //

dimensions      [0 3 -1 0 0 0 0];

internalField   nonuniform List<scalar> 
2360
(
27297.1
33118.4
-5821.34
33118.4
33118.4
40595.2
-7476.83
40595.2
40595.2
40595.2
50005.6
-9410.38
50005.6
50005.6
61702.7
-11697.1
61702.7
61702.7
75944.6
-14241.9
75944.6
75944.5
94008.8
-18064.3
94008.7
94008.7
102898
114841
126171
136314
145515
154074
123556
38922.3
132025
140551
149154
157835
166580
175391
184257
193173
202119
211075
220013
228911
237086
71426.4
165660
71426.3
71426.3
71426.3
-3897.56
75323.9
-3897.56
-3897.54
-3897.54
-687.696
-3209.84
-687.69
-687.682
2502.19
-3189.87
2502.2
2502.21
2502.21
-66703.7
69206
-66703.7
-66703.7
-66703.8
-234761
168057
-226216
-216919
-207582
-198238
-188903
-179595
-170323
-161096
-151931
-142864
-133926
-125088
-116304
-141900
34262.6
-133243
-124332
-115131
-105562
-95563.1
-87023.3
-87023.3
-87023.3
-62471.3
-24552
-62471.3
-62471.3
-46958.5
-15512.8
-46958.5
-46958.5
-33738.9
-13219.6
-33738.9
-33738.9
-23952.3
-9786.55
-23952.3
-23952.3
-23952.3
-16169
-7783.3
-16169
-16169
-10379.9
-5789.09
-17877
-25574.8
-20278.2
-34217.1
-23875.1
-35766.6
-30119.2
-38337.5
-40368.1
-40743.1
-54400.2
-46660.8
-66395.4
-53604.3
-64440.6
-49225.8
-46916
-19961.9
-30886.5
17827
-22357
41476
-15840.2
58489.3
-9675.26
69723.7
-3879.72
66160.7
1250.4
62784.5
5733.59
57752.2
7998.18
46025.3
8807.99
35802.5
11888.2
-22485.7
-24035.2
-25611.9
-31091
-30864.2
-30514.3
-40145.8
-29055.8
-54563.8
-26325.1
-72982.8
-28241.7
-89211.5
-37375.6
-90468.6
-47968.7
-65848.9
-44581.6
-32578.9
-15443.1
-17378.8
26275.9
-15424.7
56535.1
-10807.7
65106.7
-4570.4
59923.4
1386.71
56827.4
6961.73
52177.2
9462.19
43524.8
10055.4
35209.3
14160.3
-25563.7
-22175.6
-29356.7
-27298
-35914.4
-23956.6
-46673.3
-18296.9
-61328.4
-11670
-77736.2
-11833.9
-92487.7
-22624.2
-100052
-40404.5
-89693.4
-54940
-55000.2
-50136.3
-19387.7
-9336.59
-11613
48760.4
-12175.4
65669.1
-6358.54
54106.6
1245.93
49222.9
8531.29
44891.8
11564.5
40491.6
11707.1
35066.7
16080.8
-29406.6
-19797.4
-34113.7
-22590.8
-41730.9
-16339.4
-52681.2
-7346.61
-64959.4
608.237
-75611.3
-1182.05
-83180.7
-15054.8
-88101.9
-35483.3
-87647.6
-55394.4
-72929.2
-64854.7
-36903.3
-45362.5
-11387.1
23244.2
-10047.5
64329.5
-8434.25
52493.3
192.727
40596
9570.92
35513.6
13609.4
36453.1
14331.9
34344.3
17193.1
-33674.3
-16876.3
-39010.5
-17254.6
-46285.5
-9064.34
-54286.2
654.043
-61190
7512.03
-65963.2
3591.19
-67885
-13133
-68399.4
-34968.9
-69523.9
-54269.9
-69674.3
-64704.3
-56434.1
-58602.6
-27560.3
-5629.55
-11544.8
48313.9
-9589.02
50537.5
-1281.75
32288.7
10675.6
23556.3
16177.5
30951.2
16170.4
34351.4
17850.6
-38184.3
-13572.7
-43463.5
-11975.5
-49604.8
-2923.01
-55526.9
6576.16
-60181.7
12166.8
-62324.2
5733.63
-60540.4
-14916.7
-57764.9
-37744.4
-59267
-52767.8
-65819.1
-58152.2
-70260.7
-54160.9
-57923
-17967.3
-35852.8
26243.8
-22344.9
37029.6
-10822.2
20766
7464.56
5269.54
18028.8
20386.9
22659.5
29720.7
15958.1
-42520.1
-10259.8
-46604.6
-7890.98
-50216.1
688.456
-53812.7
10172.7
-56420.9
14775.1
-55145.7
4458.46
-50666.1
-19396.4
-49522.1
-38888.3
-56414.7
-45875.2
-69948.9
-44618
-86596.4
-37513.5
-88962.9
-15600.8
-72650.8
9931.65
-55740.7
20119.5
-43272.3
8297.67
-26732.8
-11270
4644.82
-10990.7
21030.4
13335.1
71251.1
-46267.9
-7052.07
-49440.8
-4718.06
-50882.4
2130.05
-51243.8
10534.2
-50248.3
13779.5
-47461.9
1672.12
-47289.3
-19569.1
-55343.7
-30833.9
-71783.4
-29435.5
-91819.6
-24581.9
-108304
-21029
-113265
-10639.4
-108275
4941
-101656
13500.9
-101369
8010.44
-107577
-5061.48
-116256
-2312.48
-135552
32631
103756
-47463.8
-4921.17
-48792.8
-3389.09
-48769.9
2107.17
-47318.2
9082.45
-45174
11635.3
-45981.8
2479.92
-54127.3
-11423.6
-69454.5
-15506.7
-87582.4
-11307.5
-104306
-7858.27
-118223
-7111.79
-127080
-1783.17
-129060
6921.28
-126831
11271.8
-124813
5993.12
-125610
-4265.27
-125982
-1940.31
-114717
21366
58245.4
-45587.7
-5069.42
-41796.7
-7180.09
-37106.8
-2582.7
-34353.2
6328.84
-36066.5
13348.6
-44765.6
11179
-60088.2
3898.96
-77268.3
1673.44
-91918.5
3342.64
-103129
3352.15
-112942
2701.13
-121237
6511.77
-125364
11048.5
-123922
9829.49
-118200
271.283
-109443
-13021.9
-93420.6
-17962.8
-59658.3
-12396.4
-4602.74
-48274.7
-4127.74
-45527.2
-9927.54
-37577.3
-10532.7
-27160.4
-4088.05
-24008
10196.3
-34240.5
21411.5
-53453.1
23111.6
-73083
21303.3
-88135.1
18394.8
-99102.2
14319.3
-109023
12621.5
-118808
16296.9
-125939
18179.8
-127922
11812.1
-124472
-3178.33
-116861
-20633.1
-100688
-34135.7
-64360.6
-48723.7
-72173.2
-49397.1
-1496.66
-50773
-8551.61
-48196
-13109.7
-39000.9
-13283.2
-27793.6
-1010.99
-27244.4
20862.3
-40596.3
36463.5
-60336.8
41043.8
-78987.6
37045.6
-94366.5
29698.2
-108224
26478.9
-120971
29043.7
-129798
27007.4
-131621
13635.3
-127907
-6892.72
-127083
-21456.9
-130216
-31002.5
-122033
-56907
-118883
-48723.2
2173.57
-52328.9
-4945.92
-53921.5
-11517.1
-51392.4
-15812.2
-42322.5
-10080.9
-33556.7
12096.5
-34884.7
37791.5
-47246.6
53405.6
-65069.3
54868.3
-83337.6
47966.5
-100453
43593.9
-113316
41907.2
-114732
28423.6
-102669
1572.01
-85685
-23876.9
-77747.8
-29394.1
-89496
-19254.3
-123893
-22509.6
-77115.9
-47187.3
7105.82
-53293.1
1159.88
-57865.4
-6944.75
-60125.3
-13552.4
-56722.5
-13483.7
-47637.1
3011.12
-40364.9
30519.3
-41877.6
54918.3
-53127.3
66118
-69992.2
64831.4
-87149
60750.7
-96995.8
51753.9
-88672.2
20100.1
-65657.7
-21442.5
-40345.7
-49188.9
-16862.4
-52877.4
6448.91
-42565.6
13468.1
-29528.8
-24725.6
-43607.1
12591.5
-51994.8
9547.64
-60000.6
1060.98
-66651.2
-6901.7
-69106.6
-11028.3
-64037.3
-2058.2
-54506.9
20988.9
-48005.7
48417.1
-50484.7
68597.1
-62191.5
76538.2
-76014.7
74573.9
-78271
54010.3
-59124.9
954.058
-35046.3
-45521.1
-19176.7
-65058.5
-7266.21
-64787.9
3405.22
-53237.1
13358.4
-39482
-29431.4
-38455
17612.7
-47675.4
18768
-58874.8
12260.3
-70271.1
4494.61
-78833.1
-2466.33
-80600.5
-290.789
-74778.3
15166.7
-66315.6
39954.4
-62470.4
64751.9
-66538.7
80606.5
-70847.2
78882.4
-56591.9
39755
-28245.7
-27392.1
-12588
-61178.8
-7593.33
-70053.2
-1763.35
-70617.9
4897.48
-59897.9
11527.6
-46112.1
-32145.8
-32979.9
21533.2
-40808.2
26596.3
-52060.2
23512.3
-66151.2
18585.7
-80278.9
11661.4
-90468.2
9898.44
-93948.9
18647.5
-91629
37634.5
-87279.4
60402.2
-81745.7
75072.8
-65382
62518.8
-29178.3
3551.29
-5342.17
-51228.3
-3572.62
-62948.4
-2560.58
-71065.2
1779.06
-74957.5
6986.92
-65105.8
11095.2
-50220.4
-32747.6
-28088.2
24382.8
-33955.2
32463.3
-43105.5
32662.6
-56210.1
31690.3
-72101.9
27553.2
-87943
25739.5
-100385
31089.4
-106622
43871.4
-103316
57096.2
-84247.3
56004.2
-45157.9
23429.4
-12050.2
-29556.3
-6300.77
-56977.8
-5384.68
-63864.5
-1254.21
-75195.7
3801.1
-80012.8
7851.33
-69156
10161.6
-52530.7
-31996.3
-24278.3
26536.2
-28701.1
36886.1
-35615.6
39577.1
-46457.2
42531.9
-61602.3
42698.3
-79581.2
43718.5
-96015.4
47523.5
-103288
51144
-91960.3
45768.6
-58649.1
22692.9
-23049.5
-12170.2
-11304
-41301.8
-10620.7
-57661.1
-5235.98
-69249.2
-182.986
-80248.7
4597.04
-84792.8
7518.75
-72077.7
9269.37
-54281.3
-30203.8
-18912.9
-21927
-26249.8
-33093
-43452.3
-57264.3
-70772.2
-74933.7
-61081.2
-36972.9
-21682.5
-16086.9
-10498.6
-4184.77
793.606
4923.59
7139.21
8571.77
1465.53
-10354.5
2955.48
-13433.5
3863.61
-12238.5
4506.25
-10785.5
5088.32
-9783.32
5687.05
-9157.21
6085.08
-8802.42
6214.72
-8598.8
6205.55
-8516.57
6053.49
-8451.08
5791.1
-8418.97
5432.27
-8386.74
4993.13
-8371.44
4479.43
-8353.04
3901.03
-8337.56
3261.32
-8306.11
2568.53
-8263.61
1810.73
-8179.99
1000.03
-8086.82
-7175.56
843.974
-11198.5
553.32
-13142.9
-8.04511
-11677.2
-264.495
-10529.2
-168.5
-9879.41
137.886
-9463.71
544.454
-9209.09
898.34
-8952.79
1157.69
-8776.01
1328.87
-8622.36
1429.43
-8519.6
1470.6
-8428
1457.48
-8358.4
1393.1
-8288.73
1280.84
-8225.35
1123.37
-8148.7
927.486
-8067.77
669.48
-7922.02
371.345
-7788.73
-6804.21
567.731
-11766.3
315.676
-12890.9
283.46
-11645
575.65
-10821.5
1018.62
-10322.5
1439.53
-9884.72
1729.3
-9498.94
1919.09
-9142.68
2017.37
-8874.36
2056.82
-8661.9
2042.27
-8505.13
1985.7
-8371.5
1886.53
-8259.3
1750.79
-8153.06
1579.39
-8054.02
1376.18
-7945.55
1141.42
-7833.05
858.59
-7639.23
502.414
-7432.59
-6301.8
338.691
-12105
217.695
-12769.9
464.75
-11892.1
907.905
-11264.7
1376.16
-10790.7
1780.06
-10288.6
2068.06
-9786.95
2258.26
-9332.91
2358.08
-8974.2
2391.61
-8695.45
2367.38
-8480.92
2298.09
-8302.23
2186.41
-8147.64
2036.54
-8003.21
1849.29
-7866.78
1624.83
-7721.11
1361.75
-7569.99
1043.49
-7320.99
626.122
-7015.25
-5675.68
133.621
-12238.7
465.859
-13102.2
1104.83
-12531.1
1794.58
-11954.5
2383.42
-11379.6
2817.98
-10723.3
3098.9
-10067.9
3266.96
-9501.03
3340.3
-9047.6
3336.93
-8692.14
3266.48
-8410.52
3140.79
-8176.6
2966.15
-7973.05
2746.42
-7783.53
2482.82
-7603.23
2172.33
-7410.66
1810.69
-7208.36
1379.88
-6890.2
829.548
-6464.94
-4846.13
12.9314
-12251.6
823.44
-13912.7
1787.81
-13495.5
2667.63
-12834.3
3331.35
-12043.3
3772.95
-11164.9
4058.02
-10353
4233.62
-9676.63
4315.5
-9129.46
4308.5
-8685.13
4218.91
-8320.92
4056.34
-8014.02
3829.69
-7746.38
3543.54
-7497.37
3199.74
-7259.42
2792.65
-7003.55
2315.31
-6731.02
1744.96
-6319.84
1039.1
-5759.07
-3807.02
47.9046
-12299.6
1168.27
-15033.1
2327.53
-14654.8
3245.51
-13752.3
3867.11
-12664.9
4277.17
-11574.9
4592.63
-10668.5
4827.98
-9911.99
4978.26
-9279.74
5028.4
-8735.28
4976.89
-8269.41
4828.14
-7865.28
4590.59
-7508.83
4269.41
-7176.2
3867.38
-6857.38
3377.92
-6514.09
2793.17
-6146.25
2088.29
-5614.95
1227.39
-4898.15
-2579.63
223.379
-12522.9
1383.58
-16193.3
2432.4
-15703.5
3072.32
-14392.2
3490.64
-13083.2
3842.01
-11926.3
4224.12
-11050.5
4562.84
-10250.7
4837.96
-9554.82
5010.86
-8908.13
5074.02
-8332.54
5019.66
-7810.87
4850.56
-7339.7
4568.06
-6893.66
4175.18
-6464.46
3666.38
-6005.25
3036.8
-5516.65
2267.49
-4845.62
1308.36
-3938.97
-1271.27
456.26
-12979.2
1411.66
-17148.7
2015.85
-16307.7
2149.21
-14525.5
2369.8
-13303.8
2678.5
-12235
3093.99
-11466
3473.55
-10630.2
3825.81
-9907.07
4094.6
-9176.93
4275.93
-8513.86
4343.68
-7878.62
4292.69
-7288.69
4114.98
-6715.95
3813.08
-6162.53
3383.22
-5575.39
2824.67
-4958.07
2124.77
-4145.69
1177.73
-2991.88
-93.5361
656.666
-13635.8
1245.96
-17738
1288.25
-16350
1128.61
-14365.9
1304.23
-13479.4
1538.58
-12469.3
1848.89
-11776.3
2114.83
-10896.1
2386.24
-10178.5
2605.67
-9396.33
2780.56
-8688.72
2876.74
-7974.77
2889.6
-7301.54
2807.25
-6633.57
2634.32
-5989.57
2368.18
-5309.23
2001.64
-4591.51
1509.78
-3653.82
733.649
-2215.68
640.114
759.807
-14395.6
969.221
-17947.4
727.274
-16108
642.903
-14281.5
789.57
-13626.1
896.521
-12576.2
1023.64
-11903.4
1116.48
-10989
1214.66
-10276.6
1287.13
-9468.78
1342.3
-8743.88
1364.57
-7997.02
1356.09
-7293.03
1315.57
-6593.04
1247.56
-5921.53
1148.63
-5210.27
987.287
-4430.15
728.147
-3394.65
278.298
-1765.77
918.413
851.648
-15247.2
773.285
-17869
635.866
-15970.6
692.073
-14337.6
798.05
-13732
859.371
-12637.5
908.815
-11952.8
944.575
-11024.7
961.278
-10293.3
967.979
-9475.43
957.431
-8733.29
939.747
-7979.29
911.476
-7264.72
877.235
-6558.75
826.057
-5870.32
744.053
-5128.23
579.099
-4265.17
318.921
-3134.43
15.2352
-1462.01
933.649
986.497
-16233.7
821.904
-17704.4
934.618
-16083.3
1132.39
-14535.4
1338.21
-13937.8
1520.37
-12819.6
1682.03
-12114.4
1840.67
-11183.3
1971.74
-10424.3
2099.12
-9602.77
2206.48
-8840.63
2301.84
-8074.62
2363.16
-7326.02
2371.36
-6566.93
2284.68
-5783.62
2060.05
-4903.58
1653.36
-3858.46
1079.99
-2561.04
431.843
-813.815
1365.49
1095.44
-17329.1
986.885
-17595.8
1310.06
-16406.4
1688.2
-14913.5
2097.87
-14347.4
2497.02
-13218.8
2906.33
-12523.7
3324.94
-11601.9
3750.04
-10849.4
4190.14
-10042.8
4633.06
-9283.52
5052
-8493.53
5384.26
-7658.26
5538.64
-6721.28
5411.46
-5656.42
4928.63
-4420.73
4091.18
-3020.99
2937.51
-1407.34
1493.38
630.355
2858.87
938.637
-18267.7
776.637
-17433.8
1114.19
-16744
1513.96
-15313.3
1984.11
-14817.6
2482.99
-13717.6
3047.6
-13088.3
3668.58
-12222.8
4369.82
-11550.6
5148.63
-10821.6
5989.52
-10124.4
6808.78
-9312.78
7448.35
-8297.81
7671.26
-6944.18
7286.58
-5271.73
6288.17
-3422.31
4658.33
-1391.12
2651.69
599.321
1225.98
2056.1
4084.85
200.549
-18468.3
-194.645
-17038.6
-256.975
-16681.6
-252.706
-15317.5
-208.048
-14862.2
-80.0216
-13845.6
93.9843
-13262.3
358.629
-12487.5
702.925
-11894.9
1136.53
-11255.2
1612.4
-10600.3
2012.24
-9712.6
2110.02
-8395.57
1650.94
-6485.07
676.367
-4297.11
-266.242
-2479.61
-701.02
-956.209
-859.028
757.443
-1189.24
2386.37
2895.61
-598.479
-17869.8
-1345
-16292
-1936.58
-16090
-2465.99
-14788.1
-2997.68
-14330.5
-3428.32
-13415
-3867.41
-12823.2
-4237.22
-12117.6
-4596.4
-11535.7
-4925.38
-10926.2
-5264.41
-10261.2
-5635.37
-9341.64
-6060.23
-7970.7
-6469.71
-6075.57
-6693.57
-4073.23
-6574.69
-2598.48
-6107.45
-1423.42
-5235.28
-114.701
-3756.83
907.955
-861.224
-1454.19
-16415.6
-3077.08
-14669.1
-4377.44
-14789.7
-5474.78
-13690.7
-6492.2
-13313.1
-7319.58
-12587.6
-8080.74
-12062
-8727.54
-11470.8
-9320.61
-10942.6
-9842.55
-10404.3
-10266.4
-9837.34
-10454.3
-9153.78
-10146.9
-8278.1
-9025.67
-7196.75
-7064.92
-6033.96
-4712.93
-4950.46
-2261.86
-3874.47
9.37172
-2385.9
1168.29
-250.915
307.063
-1955.23
-14460.4
-4236.99
-12387.4
-6481.91
-12544.7
-8374.82
-11797.8
-10176.4
-11511.5
-11693.6
-11070.4
-13034.1
-10721.5
-14152
-10352.9
-15085.2
-10009.4
-15817.5
-9672.07
-16311.7
-9343.1
-16457.4
-9008.09
-16081.4
-8654.02
-15017.2
-8260.97
-13249.8
-7801.4
-10950.1
-7250.19
-8251.87
-6572.66
-5065.22
-5572.55
-1482.49
-3833.64
-1175.42
-5360.34
-8647.69
-12092.4
-14790.2
-17201.7
-19172.1
-20793.6
-22046.5
-22955.9
-23528
-23771.1
-23679.2
-23233.2
-22394.1
-21095.5
-19245.7
-16718.4
-13190.9
-7924.58
-5357.73
14457.7
-8643.02
12385.2
-12085.9
12542.9
-14782.4
11796.4
-17192.7
11510.4
-19162.3
11069.5
-20783.3
10720.9
-22035.9
10352.6
-22945.4
10009.5
-23517.8
9672.41
-23761.3
9343.5
-23669.4
9008.08
-23222.6
8653.17
-22381.7
8259.07
-21079.7
7798
-19223.3
7243.68
-16683.7
6560.39
-13136.5
5552.81
-7856.24
3819.71
1243.76
-1958.72
16416.4
-4245.14
14671.6
-6494.5
14792.2
-8391.91
13693.8
-10198
13316.4
-11719.9
12591.4
-13065.1
12066.2
-14187.9
11475.4
-15126.2
10947.7
-15863.9
10410.1
-16364.9
9844.52
-16521.2
9164.38
-16162.3
8294.22
-15119.6
7216.37
-13368.9
6047.29
-11070.4
4945.17
-8358.34
3848.35
-5157.59
2352.06
-1592.05
254.182
-348.293
-1455.99
17872.3
-3075.5
16291.1
-4374.25
16090.9
-5468.75
14788.3
-6483.46
14331.1
-7306.55
13414.4
-8063.08
12822.7
-8703.99
12116.3
-9290.32
11534
-9804.37
10924.1
-10221
10261.1
-10407.4
9350.83
-10114.7
8001.45
-9027.55
6129.23
-7098.28
4118.01
-4765.81
2612.69
-2355.93
1438.47
-113.463
109.591
1091.65
-950.94
743.355
-582.897
18455.2
-1327.82
17036
-1909.98
16673.1
-2425.13
15303.4
-2940.52
14846.5
-3353.1
13827
-3771.11
13240.7
-4117.45
12462.6
-4449.57
11866.1
-4748.2
11222.7
-5053.1
10566
-5387.27
9684.99
-5778.05
8392.23
-6168.13
6519.31
-6395.8
4345.68
-6294.74
2511.63
-5854.29
998.014
-5157.02
-587.681
-3742.07
-2365.89
-2998.72
245.144
18210.1
-136.502
17417.6
-172.644
16709.2
-151.933
15282.7
-85.9666
14780.5
59.6481
13681.3
254.501
13045.8
536.18
12180.9
898.824
11503.5
1350.24
10771.3
1845.36
10070.9
2267.31
9263.02
2395.4
8264.13
1969.76
6944.93
996.344
5319.08
-17.0505
3524.99
-594.763
1575.66
-511.052
-671.455
-973.911
-1903.06
-3972.63
1004.16
17205.9
788.15
17633.7
1139.75
16357.6
1586.43
14836
2085.22
14281.7
2611.08
13155.5
3193.62
12463.3
3834.47
11540.1
4544.46
10793.5
5321.33
9994.44
6152.4
9239.82
6962.35
8453.09
7600.05
7626.42
7839.63
6705.36
7492.3
5666.41
6554.08
4463.21
5021.68
3108.05
2805.96
1544.26
1301.77
-398.882
-2670.86
1015.51
16190.4
1239.34
17409.8
1561.43
16035.6
1792.26
14605.2
2183.25
13890.8
2493.18
12845.6
2851.49
12105
3193.86
11197.7
3586.61
10400.8
4027
9554.07
4477.53
8789.29
4900.1
8030.53
5249.03
7277.49
5432.64
6521.76
5348.44
5750.61
4918.98
4892.66
4132.04
3894.99
3011.25
2665.06
1583.45
1028.91
-1087.41
737.46
15453
1634.18
16513.1
2149.97
15519.8
2362.47
14392.7
2754.01
13499.2
2997.86
12601.8
3252.01
11850.9
3364.39
11085.4
3412.7
10352.5
3401.45
9565.36
3388.28
8802.49
3369.71
8049.14
3332.93
7314.28
3251.03
6603.7
3088.44
5913.21
2792.78
5188.35
2310.12
4377.66
1620.49
3354.68
756.803
1892.61
-330.609
883.972
14569
2162.24
15234.9
3291.32
14390.7
4229.95
13454.1
5127.47
12601.7
5867.06
11862.2
6466.4
11251.5
6817.15
10734.7
6903.29
10266.3
6721.87
9746.79
6390.28
9134.09
5968.41
8471.03
5478.83
7803.87
4940.25
7142.3
4361.27
6492.19
3725.34
5824.29
2992.91
5110.09
2113.49
4234.11
1001.22
3004.88
670.614
1116.63
13452.4
2574.5
13777
4054.32
12910.9
5411.34
12097.1
6605.73
11407.3
7602.31
10865.6
8387.81
10466
8928.82
10193.7
9199.02
9996.15
9164.58
9781.26
8843.64
9455.04
8299.5
9015.18
7601.13
8502.25
6796.01
7947.44
5914.13
7374.08
4961.95
6776.48
3933.61
6138.43
2796.84
5370.88
1486.8
4314.93
2157.42
1140.6
12311.8
2483.4
12434.2
3753.67
11640.6
4864.92
10985.8
5797.74
10474.5
6562.88
10100.5
7171.25
9857.67
7632.49
9732.42
7928.68
9699.97
8001.78
9708.17
7822.45
9634.39
7422.55
9415.09
6858.91
9065.9
6174.78
8631.58
5395.78
8153.08
4526.39
7645.88
3569.58
7095.24
2509.08
6431.38
1331.37
5492.65
3488.78
922.291
11389.5
1877.67
11478.9
2654.6
10863.7
3269.18
10371.3
3762.51
9981.2
4173.34
9689.66
4532.52
9498.5
4855.13
9409.81
5125.65
9429.45
5295.17
9538.66
5262.73
9666.83
5068.09
9609.74
4760.92
9373.07
4363.64
9028.87
3884.01
8632.73
3315.21
8214.68
2653.73
7756.73
1888.21
7196.91
1011.24
6369.63
4500.02
577.39
10812.2
1130.89
10925.4
1503.64
10490.9
1761.8
10113.1
1962.78
9780.22
2144.05
9508.4
2332
9310.56
2535
9206.83
2737.21
9227.25
2921.84
9354.03
2979.33
9609.36
2943.69
9645.39
2851.82
9464.95
2703.39
9177.31
2489.76
8846.37
2197.04
8507.42
1815.68
8138.09
1338.3
7674.29
739.346
6968.6
5239.37
287.245
10524.9
562.181
10650.4
711.277
10341.8
799.901
10024.5
870.582
9709.54
947.163
9431.81
1044.15
9213.57
1164.44
9086.53
1289.16
9102.52
1414.93
9228.26
1503.8
9520.49
1568.61
9580.57
1613.46
9420.11
1620.04
9170.73
1571.67
8894.75
1454.8
8624.29
1258.63
8334.27
979.432
7953.49
568.796
7379.24
5808.17
103.665
10421.2
202.417
10551.7
238.448
10305.8
253.526
10009.4
267.913
9695.15
296.241
9403.48
355.448
9154.37
442.286
8999.7
536.838
9007.98
638.934
9126.16
743.849
9415.58
862.185
9462.24
973.669
9308.63
1051.58
9092.82
1079.21
8867.12
1047.91
8655.59
949.297
8432.89
779.995
8122.8
475.46
7683.78
6283.63
37.085
10384.2
42.1621
10546.6
43.3305
10304.6
46.492
10006.2
51.8776
9689.76
67.7938
9387.56
106.699
9115.46
165.309
8941.08
233.461
8939.82
317.38
9042.24
431.224
9301.74
570.202
9323.25
699.466
9179.37
793.255
8999.03
839.952
8820.43
836.798
8658.74
779.216
8490.48
660.616
8241.4
412.981
7931.42
6696.61
56.6776
10327.5
-17.4382
10620.7
-52.6388
10339.8
-64.2111
10017.8
-63.2626
9688.81
-48.4559
9372.75
-16.1839
9083.18
29.0738
8895.82
90.695
8878.19
177.308
8955.62
314.289
9164.75
465.842
9171.7
594.132
9051.07
681.406
8911.75
722.741
8779.09
720.261
8661.22
673.159
8537.57
568.286
8346.27
354.309
8145.39
7050.92
190.144
10137.3
153.649
10657.2
219.214
10274.3
300.22
9936.78
370.693
9618.33
425.513
9317.92
450.945
9057.74
466.98
8879.77
493.371
8851.8
544.716
8904.27
653.511
9055.96
761.995
9063.21
834.422
8978.64
861.975
8884.19
845.329
8795.73
790.54
8716.01
698.949
8629.16
552.75
8492.47
329.946
8368.19
7380.86
409.754
9727.56
117.966
10949
-19.1295
10411.3
-50.0251
9967.67
-21.0008
9589.3
37.691
9259.22
142.663
8952.76
242.071
8780.36
347.275
8746.59
469.768
8781.77
640.561
8885.16
787.078
8916.69
873.76
8891.96
900.167
8857.78
871.783
8824.12
796.427
8791.36
679.008
8746.59
494.648
8676.83
273.725
8589.12
7654.59
1187.74
2138.31
2980.67
3747.16
4425.35
5026.98
5313.39
5310.18
5218.53
5062.79
4880.93
4631.89
4297.15
3882.93
3398.94
2855.12
2257.59
1597.6
889.878
)
;

boundaryField
{
    outletWall
    {
        type            calculated;
        value           nonuniform List<scalar> 
60
(
-10379.9
-8869.33
-36612.3
-48289.9
-62235.4
-67914.6
-71956.2
-75888.6
-65006.1
-50005.5
-33856.4
2437.28
47271
65599.5
60692.9
50992
44581.6
39363.4
36618.4
26766
17424.6
22125
25238.6
29059.3
33433.9
38121.4
42255
45053
46766
47333
45736
45332.9
43060.2
39207.1
34880.7
30753.3
27028.3
23704.1
20946.2
16685.7
-27297.1
-27453.4
-55713.9
-74293.4
-88922.8
-85227.1
-75563
-63249.4
-46897.5
-27460.5
-1415.36
31916.1
55305.5
61031.4
57530.5
53057.5
49375.1
43899.8
39900.3
28024.5
)
;
    }
    fineWalls
    {
        type            calculated;
        value           uniform 0;
    }
    fineFrontAndBack
    {
        type            calculated;
        value           nonuniform List<scalar> 
960
(
1.90287e-14
-3.21405e-13
6.4082e-14
1.24526e-13
5.29182e-13
1.19151e-13
-1.83579e-14
3.36541e-13
-2.79112e-12
-1.64259e-12
-2.32669e-12
-5.32544e-13
2.26133e-12
2.31847e-12
2.06659e-11
6.14369e-12
6.69298e-12
3.3661e-11
4.49543e-12
3.18529e-12
-3.57699e-12
-6.86151e-12
-9.00716e-12
-1.07254e-11
-1.20998e-11
-1.31515e-11
-2.64141e-10
-1.50819e-11
-1.5279e-11
-1.52399e-11
-1.53275e-11
-1.5568e-11
-1.57698e-11
-1.59034e-11
-1.62834e-11
-1.65883e-11
-1.72548e-11
-1.72402e-11
-1.7474e-11
-1.82441e-11
-4.34021e-10
-6.24711e-11
-6.53339e-11
-6.47927e-11
-2.43811e-10
-1.1471e-11
-4.09667e-13
4.75046e-12
3.76881e-11
1.2604e-12
-8.38753e-12
-9.49435e-11
-1.0231e-11
-4.07932e-12
6.98514e-12
2.01442e-10
5.50004e-11
5.86012e-11
5.57522e-11
3.95368e-10
1.75678e-11
1.713e-11
1.70562e-11
1.6905e-11
1.61672e-11
1.56478e-11
1.52256e-11
1.47681e-11
1.41462e-11
1.35288e-11
1.30537e-11
1.23819e-11
1.14426e-11
1.25989e-10
7.7198e-12
6.37456e-12
4.72136e-12
3.23806e-12
2.14464e-12
6.24919e-13
9.27003e-13
3.56311e-12
2.71709e-11
5.2785e-12
4.44807e-12
1.83126e-11
3.12812e-12
2.67968e-12
1.11288e-11
1.86157e-12
1.48089e-12
4.79226e-13
-1.23757e-12
-1.02174e-12
-9.37488e-13
-4.89529e-12
-1.08696e-12
-1.14492e-12
-3.38858e-12
3.07385e-13
-1.58068e-11
-2.34599e-11
-2.06351e-11
-1.13517e-11
-4.97338e-12
-1.52112e-11
-4.08401e-11
-6.01004e-11
-4.76982e-11
-2.24542e-11
-1.35335e-11
-8.86739e-12
-4.75708e-12
-1.97804e-12
-6.94497e-13
-3.55122e-13
-1.80869e-13
-4.61439e-14
1.13932e-12
-3.79722e-11
-4.76875e-11
-3.64201e-11
-1.91656e-11
-1.50838e-11
-3.83559e-11
-7.62384e-11
-1.01204e-10
-8.73792e-11
-3.62517e-11
-4.91305e-12
-7.12184e-12
-5.43923e-12
-1.87895e-12
-6.52936e-13
-3.43023e-13
-2.495e-13
-2.08488e-13
1.43053e-12
-6.01386e-11
-6.47959e-11
-4.26699e-11
-2.1465e-11
-2.36194e-11
-5.26578e-11
-8.78595e-11
-1.11548e-10
-1.13046e-10
-8.19081e-11
-2.51675e-11
6.91996e-13
-4.46416e-12
-2.29885e-12
-5.77408e-13
-3.86393e-13
-4.97818e-14
9.98616e-15
9.12799e-13
-8.76624e-11
-8.03011e-11
-4.52254e-11
-2.28765e-11
-3.19348e-11
-6.03315e-11
-8.30459e-11
-9.35887e-11
-9.55908e-11
-8.64951e-11
-5.46172e-11
-6.38914e-12
7.95903e-13
-2.19185e-12
-7.55231e-13
-2.7433e-13
-7.95318e-13
-6.94422e-13
-3.92261e-12
-1.16348e-10
-8.92359e-11
-4.2151e-11
-2.05044e-11
-3.02622e-11
-5.09728e-11
-6.25318e-11
-6.40596e-11
-6.46734e-11
-6.57499e-11
-5.07774e-11
-4.97328e-12
1.12054e-12
-2.53025e-12
2.56126e-13
6.87346e-13
2.24701e-12
2.26839e-12
-2.60846e-12
-1.42769e-10
-9.06924e-11
-3.47874e-11
-1.54396e-11
-2.46716e-11
-4.07822e-11
-4.73079e-11
-4.68557e-11
-5.4205e-11
-6.35067e-11
-4.1212e-11
4.14609e-11
6.00253e-11
4.6332e-11
5.01604e-11
5.73012e-11
-1.04808e-11
-4.31654e-12
-1.86942e-11
-1.64919e-10
-8.7931e-11
-2.72628e-11
-1.04573e-11
-1.7977e-11
-2.81624e-11
-3.00193e-11
-3.84443e-11
-6.51278e-11
-7.52512e-11
-1.37307e-11
1.52189e-10
2.2688e-10
2.34537e-10
2.64221e-10
3.07593e-10
2.30388e-10
5.46878e-12
-3.88858e-11
-1.81907e-10
-8.70999e-11
-2.54824e-11
-1.1421e-11
-1.504e-11
-1.76166e-11
-2.63216e-11
-6.15692e-11
-1.04714e-10
-7.99442e-11
6.52599e-11
2.73149e-10
4.31975e-10
5.09787e-10
5.82308e-10
6.31676e-10
6.08213e-10
5.36987e-10
5.50924e-10
-1.84809e-10
-8.86107e-11
-1.53715e-11
1.15746e-11
6.98566e-12
-1.00184e-11
-4.59762e-11
-1.04571e-10
-1.4367e-10
-8.22932e-11
9.27503e-11
3.16087e-10
4.94797e-10
5.77609e-10
5.96345e-10
5.77464e-10
5.92251e-10
6.04354e-10
5.41667e-10
-1.23235e-10
-8.10597e-11
-6.33227e-11
-4.30743e-11
-2.16593e-11
-2.01774e-11
-5.85444e-11
-1.21472e-10
-1.6122e-10
-1.23511e-10
-1.6751e-11
1.03526e-10
1.75219e-10
1.83947e-10
1.33599e-10
1.31906e-10
1.30216e-10
2.00803e-10
1.92162e-10
3.68933e-11
4.98905e-11
3.86276e-11
2.10857e-11
2.63259e-12
-6.85059e-12
-2.54722e-11
-5.98065e-11
-7.97854e-11
-7.78521e-11
-8.35758e-11
-1.27805e-10
-2.11124e-10
-3.14973e-10
-4.05092e-10
-4.50458e-10
-4.64139e-10
-4.15465e-10
-2.99023e-10
8.39513e-12
3.18855e-12
4.92788e-12
7.93785e-12
7.9181e-12
1.65796e-12
-8.8091e-12
-1.93842e-11
-1.82236e-11
-2.17881e-11
-8.38836e-11
-2.31796e-10
-4.30078e-10
-6.32599e-10
-7.16392e-10
-7.15193e-10
-7.39267e-10
-7.40451e-10
-6.55126e-10
1.25373e-11
1.13624e-11
1.6364e-11
2.0221e-11
1.76197e-11
5.70902e-12
-4.02135e-12
-5.25688e-12
9.26507e-12
2.06925e-11
-3.85573e-11
-2.06132e-10
-4.09651e-10
-5.31163e-10
-4.96327e-10
-4.42787e-10
-4.69262e-10
-5.56606e-10
-6.67248e-10
1.33727e-11
1.26152e-11
2.01641e-11
2.93336e-11
3.34601e-11
2.1278e-11
2.88952e-12
-3.03306e-12
1.21988e-11
3.73394e-11
1.01995e-11
-1.14765e-10
-2.66473e-10
-2.83873e-10
-1.87478e-10
-9.68351e-11
-3.6825e-11
2.63251e-11
-1.28362e-10
1.31855e-11
1.33194e-11
2.33933e-11
3.78319e-11
5.08911e-11
4.92181e-11
2.89894e-11
1.21072e-11
1.63215e-11
4.07378e-11
3.87915e-11
-3.38589e-11
-1.15897e-10
-8.94653e-11
-4.01513e-11
-1.53383e-11
-7.77361e-12
-1.52169e-12
-1.29482e-11
1.19907e-11
1.16125e-11
2.12589e-11
3.99359e-11
6.24865e-11
7.69352e-11
7.19005e-11
5.52293e-11
4.75432e-11
5.80482e-11
6.13964e-11
2.33486e-11
-1.50659e-11
-9.22045e-12
-2.40782e-12
-1.91894e-12
-2.48311e-12
-9.53109e-13
-5.0518e-12
1.02857e-11
9.46936e-12
1.49858e-11
3.05442e-11
5.66595e-11
8.38546e-11
1.00377e-10
1.02604e-10
9.90239e-11
9.83938e-11
9.07714e-11
5.38664e-11
1.06097e-11
7.48811e-12
4.46341e-12
7.33331e-13
-8.57413e-13
-3.00121e-13
8.97798e-14
8.10179e-12
7.84715e-12
9.93464e-12
1.85721e-11
3.90753e-11
6.92388e-11
9.9541e-11
1.21209e-10
1.3047e-10
1.24261e-10
9.23853e-11
3.11881e-11
5.29236e-12
9.40969e-12
5.1934e-12
9.60254e-13
-8.818e-13
-3.91852e-13
-1.2429e-13
5.81313e-12
6.60973e-12
7.32248e-12
1.05495e-11
2.30908e-11
4.92947e-11
8.33596e-11
1.11844e-10
1.20135e-10
9.67571e-11
4.45849e-11
8.57742e-12
1.359e-11
1.05937e-11
5.3957e-12
8.82133e-13
-9.37736e-13
-2.68303e-13
-7.05647e-13
2.37555e-12
3.87048e-12
4.75621e-12
5.17409e-12
8.80777e-12
2.19268e-11
4.5678e-11
6.9411e-11
7.31938e-11
4.75618e-11
2.15433e-11
1.71055e-11
1.47989e-11
1.00754e-11
5.39552e-12
8.35503e-13
-9.57297e-13
-2.23521e-13
-5.5547e-13
-1.90287e-14
3.21405e-13
-6.4082e-14
-1.24526e-13
-5.29182e-13
-1.19151e-13
1.83579e-14
-3.36541e-13
2.79112e-12
1.64259e-12
2.32669e-12
5.32544e-13
-2.26133e-12
-2.31847e-12
-2.06659e-11
-6.14369e-12
-6.69298e-12
-3.3661e-11
-4.49543e-12
-3.18529e-12
3.57699e-12
6.86151e-12
9.00716e-12
1.07254e-11
1.20998e-11
1.31515e-11
2.64141e-10
1.50819e-11
1.5279e-11
1.52399e-11
1.53275e-11
1.5568e-11
1.57698e-11
1.59034e-11
1.62834e-11
1.65883e-11
1.72548e-11
1.72402e-11
1.7474e-11
1.82441e-11
4.34021e-10
6.24711e-11
6.53339e-11
6.47927e-11
2.43811e-10
1.1471e-11
4.09667e-13
-4.75046e-12
-3.76881e-11
-1.2604e-12
8.38753e-12
9.49435e-11
1.0231e-11
4.07932e-12
-6.98514e-12
-2.01442e-10
-5.50004e-11
-5.86012e-11
-5.57522e-11
-3.95368e-10
-1.75678e-11
-1.713e-11
-1.70562e-11
-1.6905e-11
-1.61672e-11
-1.56478e-11
-1.52256e-11
-1.47681e-11
-1.41462e-11
-1.35288e-11
-1.30537e-11
-1.23819e-11
-1.14426e-11
-1.25989e-10
-7.7198e-12
-6.37456e-12
-4.72136e-12
-3.23806e-12
-2.14464e-12
-6.24919e-13
-9.27003e-13
-3.56311e-12
-2.71709e-11
-5.2785e-12
-4.44807e-12
-1.83126e-11
-3.12812e-12
-2.67968e-12
-1.11288e-11
-1.86157e-12
-1.48089e-12
-4.79226e-13
1.23757e-12
1.02174e-12
9.37488e-13
4.89529e-12
1.08696e-12
1.14492e-12
3.38858e-12
-3.07385e-13
1.58068e-11
2.34599e-11
2.06351e-11
1.13517e-11
4.97338e-12
1.52112e-11
4.08401e-11
6.01004e-11
4.76982e-11
2.24542e-11
1.35335e-11
8.86739e-12
4.75708e-12
1.97804e-12
6.94497e-13
3.55122e-13
1.80869e-13
4.61439e-14
-1.13932e-12
3.79722e-11
4.76875e-11
3.64201e-11
1.91656e-11
1.50838e-11
3.83559e-11
7.62384e-11
1.01204e-10
8.73792e-11
3.62517e-11
4.91305e-12
7.12184e-12
5.43923e-12
1.87895e-12
6.52936e-13
3.43023e-13
2.495e-13
2.08488e-13
-1.43053e-12
6.01386e-11
6.47959e-11
4.26699e-11
2.1465e-11
2.36194e-11
5.26578e-11
8.78595e-11
1.11548e-10
1.13046e-10
8.19081e-11
2.51675e-11
-6.91996e-13
4.46416e-12
2.29885e-12
5.77408e-13
3.86393e-13
4.97818e-14
-9.98616e-15
-9.12799e-13
8.76624e-11
8.03011e-11
4.52254e-11
2.28765e-11
3.19348e-11
6.03315e-11
8.30459e-11
9.35887e-11
9.55908e-11
8.64951e-11
5.46172e-11
6.38914e-12
-7.95903e-13
2.19185e-12
7.55231e-13
2.7433e-13
7.95318e-13
6.94422e-13
3.92261e-12
1.16348e-10
8.92359e-11
4.2151e-11
2.05044e-11
3.02622e-11
5.09728e-11
6.25318e-11
6.40596e-11
6.46734e-11
6.57499e-11
5.07774e-11
4.97328e-12
-1.12054e-12
2.53025e-12
-2.56126e-13
-6.87346e-13
-2.24701e-12
-2.26839e-12
2.60846e-12
1.42769e-10
9.06924e-11
3.47874e-11
1.54396e-11
2.46716e-11
4.07822e-11
4.73079e-11
4.68557e-11
5.4205e-11
6.35067e-11
4.1212e-11
-4.14609e-11
-6.00253e-11
-4.6332e-11
-5.01604e-11
-5.73012e-11
1.04808e-11
4.31654e-12
1.86942e-11
1.64919e-10
8.7931e-11
2.72628e-11
1.04573e-11
1.7977e-11
2.81624e-11
3.00193e-11
3.84443e-11
6.51278e-11
7.52512e-11