/*--------------------------------*- C++ -*----------------------------------*\
| =========                 |                                                 |
| \\      /  F ield         | OpenFOAM: The Open Source CFD Toolbox           |
|  \\    /   O peration     | Version:  4.1                                   |
|   \\  /    A nd           | Web:      www.OpenFOAM.org                      |
|    \\/     M anipulation  |                                                 |
\*---------------------------------------------------------------------------*/
FoamFile
{
    version     2.0;
    format      ascii;
    class       volScalarField;
    location    "15";
    object      p;
}
// * * * * * * * * * * * * * * * * * * * * * * * * * * * * * * * * * * * * * //

dimensions      [0 2 -2 0 0 0 0];

internalField   nonuniform List<scalar> 
1280
(
1.52538
1.45663
3.46563
5.28437
6.93263
7.7032
8.22024
9.06032
9.6615
9.74734
9.73565
9.66711
8.90586
8.3161
8.25916
6.0271
4.35712
2.17731
0.870775
-10.5731
-0.171702
19.731
39.2691
44.1767
45.3326
50.6605
21.2078
35.5307
34.2721
33.0245
31.5257
29.6826
27.6675
25.7327
24.7401
24.8011
27.5559
30.3329
35.2439
32.3796
-33.4741
8.68618
19.3792
22.0064
40.4611
38.7912
39.1752
41.1766
44.3574
44.1929
44.2182
44.3512
40.9267
39.0554
38.0671
37.2324
18.2331
15.6186
4.2921
-47.4518
25.8642
29.2327
24.695
22.3124
19.978
20.4142
21.9096
24.4073
26.9459
29.1482
31.0397
33.2565
34.3646
0.145307
46.5514
42.8879
43.8349
40.8048
21.7211
0.951278
-9.81708
4.90029
0.784752
5.62128
10.428
14.9893
17.2245
18.7165
20.146
20.3736
19.5331
18.5561
17.0376
13.9698
13.1281
12.6547
7.82997
1.43735
-0.29264
3.31437
-0.268312
1.00524
-0.0313165
-0.537893
-1.32378
-2.81624
-4.44284
-2.05912
-7.78343
-4.66774
-4.65932
-2.41314
0.8142
4.23034
6.24435
5.00458
1.50436
0.0806629
0.573086
-1.5316
-0.667578
-1.97462
-2.23646
-2.7192
-2.75305
-2.87129
-0.630667
-11.0775
-4.96879
-3.54714
1.84259
8.43739
14.5948
17.2735
13.8069
5.17402
1.06137
1.03955
-1.27545
-0.313485
-2.21437
-2.77148
-4.08417
-5.59193
-5.90289
-1.9811
-14.2103
-5.39838
-3.09265
3.67681
11.9719
20.2327
24.809
21.2683
9.12348
0.678799
0.384978
-1.64377
-1.16709
-3.07132
-3.55546
-4.99513
-6.63557
-6.85499
-6.94094
-19.3805
-7.66797
-3.66148
4.50467
14.8489
25.7972
33.0522
28.9234
13.0423
-1.49254
-3.47379
-1.46216
-1.28874
-3.37835
-4.04362
-5.9209
-8.17431
-9.17719
-14.4895
-24.5665
-10.4435
-4.08954
5.41802
17.7967
31.4335
41.5786
36.2895
15.7346
-6.90429
-13.0319
-1.67781
-1.71335
-3.90175
-4.63592
-6.69644
-9.11534
-11.0169
-22.1653
-28.5849
-13.4146
-4.46011
5.99487
19.9958
36.1095
49.6641
43.3974
17.5048
-14.8826
-22.9994
-1.75986
-1.9497
-4.3033
-5.12838
-7.32558
-9.82582
-12.8598
-28.6799
-31.022
-16.5008
-4.95717
6.11242
21.2833
39.2922
55.8277
47.9571
20.1938
-20.4991
-31.1847
-1.96787
-2.27709
-4.785
-5.60127
-7.73055
-10.0318
-14.0702
-32.6474
-31.4987
-19.1906
-5.51419
5.84353
21.5558
40.2382
57.2624
49.2222
24.181
-5.73071
-6.67153
-2.03475
-2.59854
-5.25017
-5.97911
-7.88891
-9.78925
-14.5251
-33.6533
-30.1433
-20.9248
-6.09732
5.15922
20.744
39.1305
51.3356
45.8476
24.2379
10.7683
46.7885
-1.99377
-3.12351
-5.72608
-6.2527
-7.78202
-9.05329
-14.0134
-31.8497
-27.4
-21.4291
-6.70517
4.08231
18.8299
34.3313
41.3985
38.6391
22.926
13.7608
48.277
-1.79206
-3.77335
-6.04362
-6.33638
-7.40836
-7.86319
-12.5689
-27.9099
-23.8559
-20.6878
-7.2409
2.73928
16.2435
29.0805
36.0318
35.6072
24.2404
17.7933
50.1948
-1.45611
-4.26345
-6.04146
-6.21663
-6.81472
-6.27343
-10.3706
-22.7373
-19.9529
-18.9072
-7.57813
1.24447
13.3891
23.8624
27.7048
23.7019
16.6335
16.9347
51.3512
-1.0722
-4.32221
-5.96066
-6.03168
-6.1023
-4.37128
-7.71067
-17.1967
-16.0906
-16.6037
-7.77544
-0.360656
9.91463
16.0491
12.8553
13.1267
13.9577
18.7381
16.516
-0.884795
-3.92095
-6.36071
-5.87604
-5.37086
-2.24546
-4.76642
-11.5325
-12.4949
-14.2363
-7.87334
-1.90473
6.1887
8.26711
7.23732
12.7663
13.6667
15.755
8.17229
-0.891986
-3.03129
-7.07225
-5.29772
-4.63192
-0.00791847
-1.6271
-5.69095
-8.98975
-11.6701
-7.52377
-2.93674
3.01253
2.16162
7.40491
8.5015
13.3719
14.2719
9.94587
-1.08719
-2.08072
-7.40746
-3.71887
-3.82115
2.04557
1.04137
-0.835641
-5.46647
-8.31357
-6.04975
-2.92
0.27557
-2.94925
4.2313
6.71972
11.3743
12.0766
10.1099
-1.27868
-1.53654
-6.54479
-1.83091
-2.98024
3.28191
2.34521
2.14655
-2.31963
-4.79148
-3.65407
-1.78737
-1.5254
-2.62134
-0.496862
6.47182
9.16066
9.72538
8.41106
-1.28393
-1.53588
-4.9825
-0.602503
-2.33848
3.56585
2.67571
2.97081
0.24501
-1.37317
-1.03661
-1.09208
-3.56451
1.11371
-2.43015
5.17094
6.54734
7.146
6.66529
-1.12325
-1.30235
-2.84501
-0.107622
-1.86796
3.7413
3.42712
2.21647
0.604046
-0.586195
-0.11147
-0.0378343
-3.96706
-0.837927
-2.74694
3.04767
3.9932
4.53272
4.34579
-0.661016
-0.947448
-0.82787
0.190237
-0.621121
2.23845
1.86995
0.899535
1.61689
1.69613
1.08555
-1.45969
-5.03758
-3.95003
-5.51507
-1.60629
1.03999
1.53813
1.64949
152.717
151.801
148.948
146.83
143.751
140.702
137.602
134.545
131.262
128.236
125.507
123.09
121.026
119.255
117.756
116.421
115.529
114.625
114.224
112.647
105.415
107.613
107.47
108.483
109.157
110.014
110.811
111.557
112.293
112.935
113.493
113.922
114.221
114.393
114.529
114.678
115.033
115.542
116.054
116.419
96.7527
98.6707
99.5695
100.701
101.571
102.308
103.103
103.775
104.472
105.153
105.858
106.598
107.381
108.22
109.128
110.144
111.201
112.408
113.231
114.387
70.0422
72.7463
74.9512
76.9683
78.851
80.3846
82.0143
83.4295
84.8185
86.1094
87.3347
88.5088
89.6354
90.7453
91.8253
92.9533
94.0263
95.2763
96.1703
97.5393
51.5427
54.1292
56.6819
58.6937
61.0114
62.8393
64.9602
66.874
68.8226
70.6888
72.4809
74.1964
75.8175
77.3742
78.8402
80.2956
81.6271
83.0919
84.1585
85.7331
21.0416
22.2406
23.7616
24.4363
26.2471
27.3532
29.1823
30.8138
32.7781
34.8372
37.0721
39.4307
41.8693
44.3724
46.8528
49.3629
51.7809
54.5255
56.8481
60.3762
2.68222
-0.969944
-1.73626
-4.47022
-5.6049
-8.06866
-9.60525
-11.6945
-13.1499
-14.3463
-14.8023
-14.5968
-13.6372
-11.9897
-9.73514
-6.95431
-4.14111
-1.233
1.01645
5.45293
37.2301
30.6646
28.5752
23.7958
20.7139
16.0711
12.0918
7.22816
2.67514
-2.07391
-6.42765
-10.4975
-13.9996
-16.8612
-18.6415
-19.4384
-19.596
-18.8828
-18.9371
-17.1706
97.8686
93.0956
91.737
88.015
85.9481
82.5111
79.9568
76.7206
73.9728
71.0867
68.5581
66.1454
64.0015
62.0128
60.3263
59.01
58.0434
57.7306
56.3279
51.7406
129.486
129.596
130.314
129.835
130.807
130.219
130.545
129.636
128.766
126.954
124.595
121.377
117.445
112.917
108.257
104.006
100.746
99.1094
98.7868
95.8341
104.143
106.112
107.848
108.389
110.663
111.424
113.482
114.832
116.627
118.106
119.458
120.394
120.794
120.451
119.33
117.61
116.132
115.356
115.679
115.715
88.4549
90.1893
92.4222
92.4352
95.0437
95.4132
97.3004
98.2651
99.5998
100.74
101.875
103.009
104.182
105.441
106.794
108.226
109.638
111.114
112.212
113.548
58.7546
60.2276
63.3474
63.1662
66.609
67.0449
69.6048
70.9625
72.9224
74.6711
76.4787
78.289
80.0955
81.9345
83.7917
85.7465
87.6807
89.8087
91.5026
93.7836
29.6473
29.2826
32.4621
31.1174
34.3669
33.7525
36.0057
36.533
38.0822
39.2498
40.6464
42.0776
43.6189
45.3391
47.2285
49.4059
51.6723
54.439
56.7417
60.3096
14.3301
11.176
13.1812
9.94777
11.5639
9.02208
9.47837
7.93967
7.56627
6.61263
6.01955
5.4801
5.30748
5.61006
6.36716
7.4938
8.72325
10.5096
11.8488
15.1573
38.3646
33.0788
34.0078
28.7214
28.9569
24.9535
23.7819
20.8925
18.9478
16.4834
14.2725
12.0015
9.97325
8.23636
6.87104
5.65744
4.63353
3.97734
2.78143
4.04159
88.4568
83.0027
84.9364
77.7389
77.6636
72.714
70.5297
67.0085
64.2671
61.3624
58.7545
56.3188
54.1881
52.3441
50.6999
49.1303
47.5611
45.7728
42.9049
40.3976
88.8823
82.2186
90.8565
84.2531
86.8555
83.9775
83.3335
81.3627
79.7435
77.8362
75.995
74.1955
72.595
71.2637
70.2042
69.3968
69.0018
68.8256
68.4451
67.5991
94.0979
72.0137
80.3171
69.5613
67.0901
60.7449
56.0914
51.1122
46.8218
42.9987
39.8883
37.5648
36.159
35.7837
36.5997
38.5108
41.3281
45.6812
50.386
52.0733
780.625
697.977
648.97
592.878
544.04
496.96
453.227
411.96
373.155
336.513
301.849
268.951
237.606
207.736
179.362
151.708
124.889
102.771
77.8587
42.5494
786.163
703.515
654.507
598.415
549.577
502.496
458.762
417.495
378.689
342.047
307.382
274.483
243.138
213.267
184.893
157.237
130.418
108.298
83.3837
48.0776
99.6296
77.5452
85.8484
75.0925
72.6208
66.2754
61.6216
56.6421
52.3515
48.5282
45.4176
43.094
41.688
41.3124
42.1281
44.039
46.8556
51.2097
55.9184
57.609
94.4157
87.7542
96.3936
89.7921
92.3962
89.5202
88.8782
86.9095
85.2926
83.3877
81.549
79.752
78.1539
76.8245
75.7666
74.9608
74.567
74.3929
74.0155
73.1739
94.0489
88.5977
90.5339
83.339
83.2668
78.32
76.139
72.6208
69.8826
66.9811
64.3763
61.9436
59.8157
57.9743
56.3322
54.7645
53.1971
51.4109
48.545
46.0337
43.9698
38.6833
39.6124
34.3256
34.5613
30.5581
29.3869
26.4981
24.5543
22.0909
19.8817
17.6128
15.5868
13.852
12.4878
11.2742
10.2498
9.59174
8.39332
9.64996
19.8981
16.7415
18.7451
15.5109
17.1249
14.5823
15.0368
13.4967
13.1217
12.1662
11.5713
11.0298
10.8549
11.1546
11.9077
13.0297
14.2551
16.0383
17.3759
20.6826
35.1731
34.8054
37.9844
36.6383
39.8863
39.2701
41.5217
42.0467
43.5941
44.7592
46.1536
47.5826
49.1221
50.8411
52.7303
54.9086
57.1765
59.9452
62.2495
65.8195
64.2855
65.7582
68.8794
68.6986
72.1426
72.579
75.1401
76.4984
78.4594
80.2092
82.018
83.8297
85.638
87.4791
89.3386
91.2959
93.2323
95.3622
97.0577
99.3417
93.9977
95.7333
97.9681
97.9822
100.592
100.963
102.852
103.819
105.157
106.301
107.44
108.581
109.76
111.024
112.38
113.813
115.224
116.699
117.799
119.137
109.724
111.699
113.44
113.986
116.265
117.031
119.093
120.447
122.245
123.725
125.078
126.012
126.406
126.056
124.928
123.207
121.739
120.978
121.311
121.354
135.102
135.223
135.944
135.471
136.447
135.862
136.19
135.282
134.412
132.599
130.24
127.026
123.103
118.589
113.949
109.718
106.475
104.847
104.529
101.589
103.663
98.9007
97.5456
93.8311
91.7703
88.3409
85.7942
82.5661
79.826
76.9472
74.4245
72.0159
69.8741
67.8889
66.2075
64.8848
63.9015
63.5909
62.1946
57.6069
42.9832
36.4164
34.3239
29.5414
26.4569
21.8119
17.8303
12.9653
8.41223
3.66501
-0.685447
-4.75032
-8.24408
-11.088
-12.8568
-13.6644
-13.8153
-13.1055
-13.1611
-11.3919
8.39636
4.73758
3.97107
1.23616
0.101114
-2.36179
-3.89725
-5.98391
-7.43555
-8.62679
-9.07759
-8.86793
-7.90626
-6.25772
-4.00419
-1.23309
1.5653
4.46792
6.72095
11.1591
26.7328
27.9339
29.4537
30.1275
31.9376
33.0425
34.8698
36.4988
38.4598
40.5147
42.7446
45.0975
47.53
50.0269
52.5018
55.0108
57.4294
60.1779
62.5054
66.0354
57.3825
59.9659
62.5114
64.517
66.8298
68.6531
70.7689
72.6773
74.6202
76.4805
78.2669
79.977
81.5932
83.1458
84.6084
86.0618
87.3918
88.8546
89.9217
91.4923
75.7353
78.4497
80.6478
82.6586
84.5375
86.0665
87.6917
89.1027
90.4875
91.7746
92.9958
94.1657
95.2872
96.3911
97.464
98.5832
99.6454
100.883
101.766
103.119
103.049
104.915
105.755
106.842
107.671
108.368
109.122
109.751
110.404
111.04
111.698
112.388
113.122
113.913
114.772
115.742
116.754
117.919
118.71
119.827
110.562
112.839
112.642
113.618
114.246
115.061
115.808
116.509
117.208
117.819
118.352
118.764
119.059
119.232
119.371
119.523
119.867
120.362
120.852
121.188
161.132
160.141
157.038
154.654
151.236
147.812
144.312
141.103
137.72
134.563
131.7
129.15
126.955
125.053
123.421
121.939
120.883
119.8
119.239
117.427
)
;

boundaryField
{
    outletWall
    {
        type            fixedValue;
        value           uniform 0;
    }
    fineWalls
    {
        type            zeroGradient;
    }
    fineFrontAndBack
    {
        type            zeroGradient;
    }
    fineplugLeft
    {
        type            cyclicAMI;
        value           nonuniform List<scalar> 
20
(
96.5932
98.428
97.7668
97.9344
98.0973
99.153
100.551
102.354
104.408
106.71
109.193
111.864
114.742
124.367
122.693
124.068
126.299
127.012
125.387
122.14
)
;
    }
    fineplugRight
    {
        type            cyclicAMI;
        value           nonuniform List<scalar> 
20
(
99.1141
101.237
100.779
101.169
101.546
102.82
104.424
106.445
108.709
111.189
113.858
116.827
119.755
127.919
127.56
129.566
132.49
133.791
132.457
129.096
)
;
    }
    inletOutletLeft
    {
        type            cyclicAMI;
        value           nonuniform List<scalar> 
20
(
96.5932
98.428
97.7668
97.9344
98.0973
99.153
100.551
102.354
104.408
106.71
109.193
111.864
114.742
124.367
122.693
124.068
126.299
127.012
125.387
122.14
)
;
    }
    inletLeft
    {
        type            zeroGradient;
    }
    inletWallsLeft
    {
        type            zeroGradient;
    }
    inletFacesLeft
    {
        type            zeroGradient;
    }
    inletOutletRight
    {
        type            cyclicAMI;
        value           nonuniform List<scalar> 
20
(
99.1141
101.237
100.779
101.169
101.546
102.82
104.424
106.445
108.709
111.189
113.858
116.827
119.755
127.919
127.56
129.566
132.49
133.791
132.457
129.096
)
;
    }
    inletRight
    {
        type            zeroGradient;
    }
    inletWallsRight
    {
        type            zeroGradient;
    }
    inletFacesRight
    {
        type            zeroGradient;
    }
}


// ************************************************************************* //
