/*--------------------------------*- C++ -*----------------------------------*\
| =========                 |                                                 |
| \\      /  F ield         | OpenFOAM: The Open Source CFD Toolbox           |
|  \\    /   O peration     | Version:  4.1                                   |
|   \\  /    A nd           | Web:      www.OpenFOAM.org                      |
|    \\/     M anipulation  |                                                 |
\*---------------------------------------------------------------------------*/
FoamFile
{
    version     2.0;
    format      ascii;
    class       surfaceScalarField;
    location    "15";
    object      phi;
}
// * * * * * * * * * * * * * * * * * * * * * * * * * * * * * * * * * * * * * //

dimensions      [0 3 -1 0 0 0 0];

internalField   nonuniform List<scalar> 
2360
(
-8987.13
-5871.28
-3115.85
-5871.28
-5871.28
-3061.71
-2809.58
-3061.71
-3061.71
-3061.71
-45.331
-3016.37
-45.3257
-45.3296
3446.56
-3491.89
3446.56
3446.57
7524.88
-4078.32
7524.88
7524.87
12375
-4850.14
12375
12375
13278.7
14967.8
16638.1
18120
19431.5
20626.5
17328.1
4423.76
18372.8
19337
20214.9
20999.8
21685.4
22278.3
22809.1
23337.1
23945.5
24700.4
25620.3
26617
27451.2
16727.2
10724
16727.2
16727.2
16727.2
6680.2
10047
6680.21
6680.21
6680.21
382.06
6298.15
382.067
382.07
-5583.73
5965.8
-5583.73
-5583.73
-5583.73
-15965
10381.3
-15965.1
-15965.1
-15965.1
-28259.7
12294.6
-27417
-26417.5
-25497.4
-24743.4
-24135.3
-23605.2
-23069.6
-22468.5
-21773.2
-20980.3
-20096
-19126.5
-18076
-22799.2
5856.32
-21609.4
-20303.1
-18825.8
-17163.1
-15492.8
-14616
-14616
-14616
-10204.4
-4411.57
-10204.4
-10204.4
-3897.37
-6307.07
-3897.37
-3897.37
2434.96
-6332.33
2434.96
2434.96
8081.28
-5646.32
8081.28
8081.28
8081.28
12986.6
-4905.3
12986.6
12986.6
17398
-4411.39
-7332.96
-2842.48
-9082.17
-3899.01
-9622
-5228.45
-9739.45
-8323.83
-9354.81
-12023
-7836.21
-15412.7
-4453.47
-13242.9
-1599.27
2621.56
-1120.68
17240.7
-625.729
22237.9
31.9466
25096.4
784.086
26532.8
1596.26
25808.9
2403.75
22065
3157.83
14192.5
4011.61
4082.03
4754.33
-2811.79
5186.29
-5523.41
-5943.53
-8357.52
-1956.66
-8914.05
-3342.48
-8663.99
-5478.51
-8388.85
-8598.97
-8042.37
-12369.5
-7166.97
-16288.1
-4474.14
-15935.8
-1253.34
-599.252
-1049.73
17037.1
-786.219
21974.4
-149.306
24459.5
558.398
25825.1
1369.97
24997.4
2259.34
21175.7
3301.4
13150.4
4808.5
2574.92
6113.35
-4116.64
6343.66
-5753.72
-4505.16
-8010.2
-1528.6
-8031.21
-3321.47
-7733.03
-5776.69
-7458.1
-8873.9
-7142.23
-12685.4
-6573.18
-16857.2
-4821.24
-17687.7
-1491.06
-3929.44
-936.74
16482.8
-1034.37
22072
-447.882
23873
222.603
25154.6
1006.51
24213.5
1959.61
20222.6
3305.9
11804.1
5408.21
472.619
7193.46
-5901.89
7535.3
-6095.56
-2616.19
-7655.92
-1258.79
-7562.27
-3415.11
-7361.5
-5977.46
-7153.52
-9081.87
-6842.85
-12996.1
-6300.33
-17399.7
-4919.83
-19068.2
-1896.52
-6952.75
-995.363
15581.6
-1234.89
22311.5
-877.397
23515.5
-214.843
24492
493.57
23505
1466.03
19250.1
3142.52
10127.6
5924.46
-2309.33
8284.52
-8261.96
8847.6
-6658.64
-100.916
-7259.13
-1055.6
-7210.35
-3463.89
-7146.41
-6041.41
-6978.38
-9249.9
-6643.68
-13330.8
-6123.06
-17920.3
-5108.21
-20083
-2695.73
-9365.24
-1326.06
14212
-1403.45
22388.9
-1400.62
23512.7
-777.687
23869.1
-167.904
22895.3
769.567
18312.6
2953.09
7944.12
6097
-5453.23
8257.45
-10422.4
8748.55
-7149.74
2340.56
-6963.38
-740.136
-7065.76
-3361.51
-7059.86
-6047.31
-6868.58
-9441.18
-6489.03
-13710.3
-6000.95
-18408.4
-5346.89
-20737.1
-3702.19
-11009.9
-2018.73
12528.5
-1680.91
22051.1
-1927.81
23759.6
-1476.46
23417.8
-963.165
22382
-189.177
17538.6
2412.82
5342.12
4444.16
-7484.57
4354.65
-10332.9
4206.05
-7001.14
2135.04
-6711.12
-306.384
-6932.82
-3139.81
-6926.48
-6053.65
-6692.72
-9674.94
-6305.58
-14097.4
-5929.17
-18784.8
-5693.51
-20972.7
-4846.7
-11856.7
-3103.83
10785.6
-2206.48
21153.7
-2436.4
23989.5
-2281.15
23262.5
-1895.23
21996.1
-1319
16962.4
29.6268
3993.49
-1385.72
-6069.22
-3545.29
-8173.33
-3716.13
-6830.31
4275.24
-6369.59
286.142
-6733.56
-2775.84
-6729.45
-6057.76
-6478.9
-9925.49
-6140.95
-14435.4
-5948.78
-18977
-6167.26
-20754.3
-6076.3
-11947.7
-4456.98
9166.33
-3056.95
19753.7
-3005.63
23938.2
-3119.66
23376.5
-2888.39
21764.8
-2607.14
16681.2
-4412.11
5798.46
-8391.5
-2089.82
-10396.3
-6168.49
-11464
-5762.7
5105.89
-5844.26
1039.52
-6412.71
-2207.39
-6465.98
-6004.48
-6236.39
-10155.1
-5995.96
-14675.8
-6047.03
-18925.9
-6742.12
-20059.2
-7314.54
-11375.3
-5910.86
7762.65
-4223.59
18066.4
-3732.49
23447.1
-3938.5
23582.6
-3909.12
21735.4
-4464.81
17236.9
-7979.5
9313.14
-11590.9
1521.58
-13139.3
-4620.1
-13789.8
-5112.2
1697.43
-5099.3
1962.58
-5967.25
-1339.44
-6149.71
-5822.02
-5973.95
-10330.8
-5864.45
-14785.3
-6195.27
-18595.1
-7361.16
-18893.3
-8481.88
-10254.6
-7356.4
6637.17
-5614.14
16324.2
-4684.61
22517.6
-4747.03
23645
-4833.08
21821.5
-5637.21
18041
-8045.45
11721.4
-9438.9
2915.03
-10276.6
-3782.37
-10411.3
-4977.5
-2748.11
-4123.92
3015.33
-5380.69
-82.6767
-5771.67
-5431.04
-5684.06
-10418.5
-5732
-14737.4
-6362.66
-17964.4
-7967.34
-17288.6
-9505.59
-8716.32
-8709.52
5841.1
-7102.07
14716.7
-5859.94
21275.4
-5574.33
23359.4
-5705.01
21952.1
-6892.86
19228.8
-9455.01
14283.5
-11713
5173.04
-12769.8
-2725.64
-11549.8
-6197.44
-7999.77
-2931.89
4059.15
-4594.58
1580.01
-5319.96
-4705.67
-5366
-10372.4
-5591.94
-14511.4
-6525.77
-17030.6
-8518.9
-15295.5
-10305.3
-6929.92
-9802.49
5338.29
-8450.71
13365
-7094.89
19919.6
-6539.81
22804.3
-7095.68
22508
-9281.62
21414.8
-12003.1
17005.1
-12846.1
6016.03
-12609.2
-2962.61
-12648.5
-6158.09
-10601.3
-1665.98
4835.44
-3559.98
3474.02
-4792.03
-3473.63
-5025.2
-10139.2
-5437.94
-14098.7
-6658.82
-15809.7
-9005.02
-12949.3
-10891
-5043.97
-10532.6
4979.87
-9440.51
12272.9
-8259.12
18738.2
-7965.2
22510.4
-9341.59
23884.4
-11400.7
23473.9
-10276.5
15880.9
-4648.37
387.87
-1985.83
-5625.15
-5527.55
-2616.37
-5404.86
-473.929
5129.5
-2307.27
5307.35
-4213.3
-1567.59
-4667.49
-9685.04
-5258.49
-13507.7
-6721.11
-14347.1
-9431.78
-10238.6
-11452.5
-3023.25
-11203.5
4730.83
-10336.3
11405.7
-9614.02
18016
-10021.4
22917.8
-11747
25610
-11906.4
23633.2
-6379.19
10353.7
-668
-5323.32
2016.61
-8309.76
2428.65
-3028.41
1447.54
771.96
5189.9
-950.481
7029.79
-3587.28
1069.2
-4290.62
-8981.71
-5033.32
-12765
-6638.45
-12742
-9723.5
-7153.55
-12071.2
-675.517
-12180.6
4840.18
-11658.7
10883.8
-11446.1
17803.3
-12211.7
23683.4
-13105.6
26503.8
-10580.7
21108.4
-3414.1
3187.12
789.521
-9526.94
1409.2
-8929.44
3057.67
-4676.88
-344.933
1762
5390.96
154.44
8637.35
-2793.48
4017.13
-3887.95
-7887.24
-4737.17
-11915.8
-6285.51
-11193.6
-9585.55
-3853.52
-12343.9
2082.83
-13126.6
5622.92
-13177.7
10934.9
-13269.8
17895.5
-13625.5
24039.1
-12749
25627.4
-7542.61
15902
-1137.57
-3217.92
1424.64
-12089.2
2546.95
-10051.7
3549.41
-5679.34
-873.843
2065.01
5806
641.737
10060.6
-2120.64
6779.5
-3478.45
-6529.43
-4358.77
-11035.5
-5550.66
-10001.7
-8613.01
-791.176
-11654.1
5123.88
-13271.6
7240.45
-13980.4
11643.7
-14173.1
18088.2
-13696.2
23562.2
-10967.3
22898.5
-4009.68
8944.36
1092.97
-8320.56
2303.04
-13299.2
3199.77
-10948.5
3667.74
-6147.31
-697.992
1692.48
6409.44
467.933
11285.2
-1736.92
8984.35
-3087.8
-5178.55
-3927.44
-10195.8
-4543.9
-9385.25
-6948.12
1613.04
-10001.4
8177.16
-12263.2
9502.26
-13432.7
12813.2
-13611.4
18266.9
-12404.7
22355.4
-8496.33
18990.1
-1989.49
2437.52
1793.74
-12103.8
3016.8
-14522.3
3578.92
-11510.6
3610.35
-6178.75
-104.016
983.446
7203.14
-28.5704
12297.2
-1527.43
10483.2
-2761.41
-3944.57
-3491.85
-9465.38
-3528.44
-9348.66
-4990.88
3075.48
-7868.48
11054.8
-10700.5
12334.2
-12278.4
14391.1
-12376.5
18365
-10461.4
20440.3
-5436.67
13965.4
-96.4746
-2902.67
2125.08
-14325.4
3353.24
-15750.4
3711.56
-11868.9
3604.56
-6071.74
690.97
-1139.33
-1354.98
-1870.92
-2651.65
-3100.43
-2947.27
-3140.74
-4624.86
-6938.15
-8663.92
-9009.09
-7297.15
-3096.27
683.227
2387.53
3485.31
3707.09
3686.47
81.8129
-985.466
334.27
-1941.55
527.131
-1863.16
660.619
-1615.42
760.053
-1410.99
832.043
-1266.96
858.73
-1152.04
867.191
-1053.16
860.459
-957.46
842.417
-859.938
817.037
-759.483
786.992
-655.604
748.899
-554.817
693.449
-475.289
613.007
-447.597
506.727
-502.098
383.121
-631.351
254.391
-791.199
131.068
-873.371
-703.085
-59.401
-926.071
-51.2836
-1949.67
-8.48062
-1905.97
30.1714
-1654.08
67.1283
-1447.95
102.566
-1302.4
147.798
-1197.28
200.363
-1105.73
263.968
-1021.07
342.323
-938.301
438.058
-855.223
552.48
-770.033
679.694
-682.035
800.311
-595.911
879.498
-526.787
874.052
-496.655
759.926
-517.226
541.468
-572.742
274.393
-606.298
-428.691
-100.681
-825.396
-80.0012
-1970.36
26.3358
-2012.31
122.106
-1749.86
207.435
-1533.29
288.967
-1383.94
367.192
-1275.51
441.174
-1179.72
509.136
-1089.04
571.154
-1000.32
629.16
-913.233
686.361
-827.24
745.899
-741.577
805.399
-655.416
849.085
-570.476
845.628
-493.201
763.972
-435.572
584.924
-393.695
323.739
-345.115
-104.952
20.2271
-845.627
43.9132
-1994.05
98.0879
-2066.49
146.964
-1798.73
199.968
-1586.3
258.474
-1442.45
319.364
-1336.41
376.994
-1237.35
428.017
-1140.07
470.077
-1042.39
501.878
-945.037
523.371
-848.737
535.903
-754.111
541.302
-660.819
539.437
-568.613
521.652
-475.419
469.592
-383.514
359.575
-283.679
181.716
-167.26
76.7632
222.023
-1067.65
303.722
-2075.75
325.446
-2088.22
354.668
-1827.96
410.083
-1641.71
477.372
-1509.75
548.374
-1407.41
616.406
-1305.39
677.353
-1201.02
726.432
-1091.47
759.675
-978.284
773.841
-862.907
766.888
-747.161
737.824
-631.759
686.609
-517.401
612.445
-401.259
511.348
-282.418
370.544
-142.878
182.427
20.8518
259.191
410.422
-1478.08
531.787
-2197.12
511.313
-2067.75
522.886
-1839.53
588.244
-1707.07
675.021
-1596.52
771.626
-1504.02
864.889
-1398.65
947.298
-1283.43
1010.27
-1154.45
1050.28
-1018.29
1064.69
-877.321
1051.3
-733.768
1007.18
-587.636
928.767
-438.993
811.76
-284.252
654.328
-124.988
442.447
69.0025
223.076
240.221
482.267
398.361
-1876.44
406.554
-2205.31
334.443
-1995.63
334.086
-1839.18
387.505
-1760.49
461.583
-1670.6
548.31
-1590.75
629.173
-1479.52
692.33
-1346.59
727.664
-1189.78
736.205
-1026.84
717.607
-858.724
670.218
-686.38
590.851
-508.27
473.24
-321.384
323.035
-134.05
195.15
2.89225
107.434
156.713
-0.274901
347.926
481.992
109.498
-1985.94
-40.8243
-2054.99
-156.851
-1879.61
-228.992
-1767.04
-285.119
-1704.36
-332.606
-1623.11
-375.686
-1547.67
-424.19
-1431.01
-486.009
-1284.76
-561.92
-1113.87
-646.778
-941.977
-737.105
-768.394
-830.422
-593.063
-920.101
-418.59
-992.688
-248.797
-1033.22
-93.5192
-1027.79
-2.53393
-900.261
29.1803
-575.519
23.1823
-93.5274
-157.266
-1828.67
-291.918
-1920.34
-417.477
-1754.05
-566.832
-1617.68
-726.814
-1544.39
-898.277
-1451.65
-1076.88
-1369.06
-1257.64
-1250.25
-1436.02
-1106.39
-1609.06
-940.831
-1776.36
-774.676
-1933.12
-611.64
-2066.95
-459.229
-2153.53
-332.012
-2148.02
-254.308
-1995.74
-245.8
-1682.1
-316.18
-1188.03
-464.891
-529.434
-635.412
-622.961
-152.578
-1676.09
-182.034
-1890.88
-244.58
-1691.5
-352.714
-1509.55
-473.01
-1424.09
-617.54
-1307.12
-771.325
-1215.28
-920.027
-1101.55
-1041.81
-984.602
-1127.17
-855.474
-1174.63
-727.215
-1182.48
-603.784
-1147.41
-494.296
-1066.91
-412.508
-938.193
-383.028
-748.49
-435.503
-492.802
-571.867
-218.845
-738.847
-34.4206
-819.836
-657.382
2.2087
-1678.3
55.8402
-1944.51
104.72
-1740.38
132.876
-1537.7
156.522
-1447.73
170.836
-1321.44
179.683
-1224.12
193.108
-1114.97
224.534
-1016.03
286.493
-917.433
382.265
-822.986
510.833
-732.353
663.57
-647.032
821.493
-570.43
948.811
-510.345
992.198
-478.89
901.021
-480.689
664.396
-502.221
333.508
-488.948
-323.873
71.2837
-1749.58
117.849
-1991.07
169.902
-1792.43
226.324
-1594.12
287.458
-1508.86
350.514
-1384.49
416.037
-1289.64
484.684
-1183.61
555.276
-1086.62
629.2
-991.352
705.524
-899.307
782.384
-809.209
855.566
-720.211
917.029
-631.89
950.983
-544.297
930.372
-458.276
827.4
-377.716
622.175
-296.993
332.921
-199.689
9.04823
130.274
-1879.86
151.023
-2011.82
198.807
-1840.21
257.329
-1652.64
325.712
-1577.25
389.602
-1448.38
458.442
-1358.48
527.258
-1252.43
598.59
-1157.95
668.022
-1060.78
732.319
-963.602
785.523
-862.411
820.99
-755.676
831.532
-642.431
811.449
-524.211
753.701
-400.526
648.958
-272.97
481.84
-129.873
253.554
28.6017
262.603
143.532
-2023.38
129.11
-1997.4
173.258
-1884.36
228.632
-1708.01
295.609
-1644.22
360.64
-1513.4
434.905
-1432.74
512.574
-1330.09
598.885
-1244.25
689.212
-1151.11
778.858
-1053.24
854.444
-937.994
899.327
-800.556
899.719
-642.82
852.566
-477.054
758.939
-306.896
616.8
-130.827
418.071
68.8606
212.288
234.389
474.891
79.7664
-2103.15
35.3517
-1952.98
50.448
-1899.45
73.4518
-1731.01
103.536
-1674.3
138.847
-1548.71
182.409
-1476.3
233.81
-1381.49
294.352
-1304.79
359.524
-1216.27
420.784
-1114.5
459.814
-977.021
458.507
-799.246
415.779
-600.089
351.81
-413.081
282.077
-237.158
216.666
-65.4097
145.932
139.601
36.4433
343.883
511.335
-23.1827
-2079.96
-83.8054
-1892.35
-121.37
-1861.89
-155.437
-1696.94
-190.328
-1639.41
-217.421
-1521.61
-245.121
-1448.6
-266.483
-1360.13
-285.984
-1285.29
-302.745
-1199.51
-321.736
-1095.51
-346.475
-952.277
-374.541
-771.177
-391.531
-583.093
-386.52
-418.088
-371.646
-252.024
-367.793
-69.2589
-356.153
127.965
-292.785
280.518
218.55
-77.223
-2002.74
-162.487
-1807.09
-234.272
-1790.1
-300.835
-1630.38
-369.177
-1571.07
-428.568
-1462.22
-491.257
-1385.91
-550.441
-1300.94
-611.112
-1224.62
-667.771
-1142.85
-713.542
-1049.74
-731.39
-934.428
-704.177
-798.387
-632.17
-655.098
-540.416
-509.838
-454.504
-337.933
-399.782
-123.975
-348.465
76.6511
-265.497
197.555
-46.9471
-159.483
-1843.25
-345.564
-1621.01
-491.347
-1644.31
-605.81
-1515.91
-710.25
-1466.63
-790.102
-1382.37
-859.567
-1316.44
-914.637
-1245.87
-958.938
-1180.31
-987.363
-1114.42
-989.994
-1047.1
-950.576
-973.845
-857.767
-891.195
-717.282
-795.583
-544.733
-682.386
-339.386
-543.279
-102.19
-361.169
87.791
-113.326
175.53
109.819
128.583
-192.867
-1650.39
-426.662
-1387.21
-674.213
-1396.76
-880.061
-1310.07
-1076.91
-1269.78
-1241.59
-1217.69
-1384.09
-1173.93
-1500.05
-1129.92
-1592.19
-1088.17
-1659.28
-1047.34
-1699.18
-1007.2
-1706.87
-966.16
-1676.04
-922.021
-1599.39
-872.23
-1467.93
-813.843
-1267.99
-743.217
-977.043
-652.119
-574.121
-516.248
-156.306
-307.994
-27.7231
-675.385
-1087.6
-1509.36
-1844.42
-2139.2
-2381.89
-2580.82
-2735.74
-2848.91
-2921.25
-2953.44
-2944.6
-2891.63
-2788.86
-2627.7
-2395.92
-2073.03
-1614.28
-947.277
-675.395
1650.4
-1087.61
1387.22
-1509.39
1396.78
-1844.47
1310.08
-2139.25
1269.79
-2381.96
1217.71
-2580.91
1173.95
-2735.84
1129.93
-2849.02
1088.19
-2921.37
1047.35
-2953.57
1007.21
-2944.73
966.16
-2891.75
922.017
-2788.97
872.227
-2627.82
813.848
-2396.05
743.233
-2073.2
652.145
-1614.46
516.261
-947.354
307.897
27.6462
-192.864
1843.26
-426.642
1621
-674.179
1644.31
-880.001
1515.9
-1076.82
1466.61
-1241.46
1382.35
-1383.92
1316.41
-1499.82
1245.83
-1591.9
1180.27
-1658.93
1114.38
-1698.79
1047.06
-1706.45
973.826
-1675.64
891.209
-1599.05
795.636
-1467.68
682.483
-1267.88
543.432
-977.12
361.385
-574.404
113.547
-156.727
-109.777
-129.08
-159.414
2002.68
-345.431
1807.02
-491.147
1790.03
-605.537
1630.3
-709.903
1570.98
-789.677
1462.12
-859.065
1385.8
-914.054
1300.82
-958.272
1224.49
-986.607
1142.71
-989.145
1049.6
-949.657
934.339
-856.854
798.408
-716.464
655.248
-544.001
510.022
-338.629
338.062
-101.398
124.159
88.5192
-76.365
175.958
-197.21
46.8782
-77.2122
2079.89
-162.476
1892.29
-234.257
1861.81
-300.833
1696.87
-369.184
1639.33
-428.598
1521.54
-491.315
1448.52
-550.539
1360.05
-611.253
1285.21
-667.943
1199.41
-713.703
1095.36
-731.468
952.105
-704.13
771.071
-632.036
583.157
-540.238
418.226
-454.256
252.082
-399.302
69.2088
-347.63
-128.035
-264.563
-280.273
-217.685
-23.3019
2103.2
-83.9593
1952.95
-121.601
1899.46
-155.763
1731.04
-190.756
1674.33
-217.963
1548.75
-245.794
1476.35
-267.301
1381.56
-286.967
1304.87
-303.905
1216.35
-323.066
1114.53
-347.919
976.962
-375.973
799.128
-392.829
600.017
-387.679
413.082
-372.796
237.205
-369.01
65.4285
-357.219
-139.822
-293.479
-344.009
-511.164
79.6255
2023.57
35.1398
1997.43
50.1388
1884.46
73.0399
1708.14
103.01
1644.36
138.211
1513.55
181.656
1432.91
232.94
1330.28
293.358
1244.46
358.392
1151.31
419.491
1053.43
458.341
938.112
456.898
800.572
414.179
642.737
350.374
476.888
280.925
306.655
215.879
130.477
145.289
-69.2298
35.9569
-234.676
-475.207
143.556
1880.02
129.058
2011.93
173.174
1840.35
228.527
1652.79
295.485
1577.4
360.505
1448.53
434.769
1358.65
512.447
1252.6
598.777
1158.13
689.126
1060.97
778.786
963.772
854.355
862.544
899.185
755.744
899.506
642.416
852.287
524.108
758.607
400.336
616.388
272.697
417.648
129.512
212.054
-29.0802
-263.153
130.397
1749.62
151.068
1991.26
198.827
1792.58
257.342
1594.27
325.733
1509.01
389.622
1384.64
458.471
1289.8
527.294
1183.77
598.648
1086.77
668.112
991.5
732.447
899.438
785.672
809.318
821.118
720.299
831.595
631.939
811.416
544.288
753.566
458.186
648.751
377.514
481.634
296.631
253.406
199.151
-9.74701
71.4542
1678.17
118.001
1944.72
170.035
1740.55
226.482
1537.83
287.667
1447.83
350.76
1321.55
416.329
1224.23
485
1115.11
555.586
1016.19
629.429
917.66
705.574
823.295
782.173
732.722
855.038
647.436
916.22
570.759
950.073
510.436
929.5
478.76
826.689
480.326
621.715
501.605
332.714
488.154
322.967
2.4534
1675.71
56.1711
1891
105.191
1691.53
133.56
1509.46
157.44
1423.94
172.035
1306.95
181.195
1215.07
194.947
1101.35
226.663
984.475
288.854
855.468
384.83
727.319
513.632
603.919
666.607
494.461
824.589
412.776
951.59
383.436
994.304
436.046
902.365
572.265
665.121
738.85
333.863
819.412
656.831
-152.251
1827.97
-181.405
1920.16
-243.599
1753.73
-351.383
1617.24
-471.34
1543.9
-615.51
1451.12
-768.912
1368.47
-917.186
1249.63
-1038.51
1105.8
-1123.38
940.34
-1170.3
774.23
-1177.5
611.122
-1141.72
458.688
-1060.71
331.763
-931.904
254.628
-742.523
246.666
-487.727
317.468
-215.284
466.406
-32.8711
636.999
623.959
-157.673
1985.64
-292.183
2054.66
-417.729
1879.27
-567.222
1766.73
-727.386
1704.06
-899.089
1622.82
-1077.95
1547.33
-1258.93
1430.61
-1437.44
1284.32
-1610.54
1113.43
-1777.85
941.543
-1934.59
767.855
-2068.27
592.37
-2154.36
417.85
-2148.29
248.556
-1996.34
94.7077
-1682.91
4.04076
-1187.55
-28.9524
-528.778
-21.7762
95.1814
108.851
1876.78
-41.601
2205.11
-157.738
1995.41
-230.096
1839.09
-286.501
1760.47
-334.305
1670.63
-377.741
1590.76
-426.611
1479.48
-488.761
1346.46
-564.932
1189.6
-650.014
1026.62
-740.608
858.449
-834.224
685.984
-924.082
507.707
-996.64
321.112
-1037.05
135.113
-1030.99
-2.01962
-902.603
-157.341
-576.52
-347.862
-481.339
398.337
1478.45
406.332
2197.12
334.035
2067.7
333.505
1839.62
386.744
1707.23
460.65
1596.72
547.182
1504.23
627.809
1398.85
690.699
1283.57
725.774
1154.53
734.083
1018.31
715.249
877.28
667.577
733.653
587.87
587.41
470.323
438.655
321.573
283.857
195.18
124.365
106.924
-69.0926
-0.700897
-240.244
-482.04
411.149
1067.29
532.766
2075.5
512.216
2088.25
523.759
1828.07
589.137
1641.85
675.947
1509.91
772.589
1407.58
865.872
1305.56
948.267
1201.18
1011.19
1091.6
1051.13
978.373
1065.45
862.951
1051.95
747.155
1007.66
631.698
929.027
517.286
811.822
401.06
654.107
282.077
442.421
142.591
223.204
-21.0305
-258.836
223.226
844.066
305.328
1993.39
326.679
2066.9
355.554
1799.19
410.923
1586.47
478.322
1442.5
549.464
1336.44
617.618
1237.4
678.674
1140.12
727.855
1042.42
761.191
945.035
775.459
848.68
768.605
754.009
739.573
660.727
688.293
568.564
613.944
475.406
512.51
383.51
371.346
283.753
182.752
167.561
-76.0846
22.1284
821.935
46.7961
1968.72
101.646
2012.04
150.497
1750.34
203.222
1533.75
261.412
1384.31
322.007
1275.84
379.373
1180.04
430.107
1089.38
471.792
1000.73
503.104
913.721
523.957
827.825
535.656
742.307
540.148
656.233
537.457
571.253
519.116
493.745
467.051
435.573
357.736
393.066
180.89
344.403
104.805
-95.8069
917.74
-75.8433
1948.76
29.0466
1907.15
124.61
1654.78
210.184
1448.17
291.787
1302.71
369.95
1197.68
443.51
1106.47
510.805
1022.08
572.058
939.476
629.256
856.521
685.181
771.899
742.802
684.685
800.445
598.589
843.059
528.639
839.801
497.003
759.607
515.766
582.834
569.839
323.542
603.695
428.347
-41.777
959.515
-27.6823
1934.66
13.1289
1866.34
48.5191
1619.38
83.0482
1413.64
116.725
1269.03
159.877
1154.53
210.381
1055.97
271.866
960.598
347.681
863.659
440.107
764.094
550.559
661.445
674.844
560.4
794.416
479.016
874.345
448.709
871.092
500.255
759.316
627.542
542.334
786.821
275.685
870.344
704.032
82.7121
347.081
550.717
692.831
800.131
879.359
900.758
906.298
897.352
876.762
847.906
814.015
773.396
716.731
635.36
527.559
401.025
267.774
138.672
)
;

boundaryField
{
    outletWall
    {
        type            calculated;
        value           nonuniform List<scalar> 
60
(
17398
6718.43
5091.45
2069.06
-4935.8
-14946.6
-22872.5
-26621.1
-27284.9
-25754.1
-22732.8
-17719.3
-5475.75
9860.19
13894.1
11638.4
8441.27
5768.29
5648.22
4324.71
800.708
-1777.14
-2295.92
-2480.05
-1963.06
-832.362
179.869
889.69
1888.07
3071.18
4176.25
5090.88
5777.06
6277.37
6647.91
7055.94
7386.1
7582.14
7471.69
5850.73
8987.13
1261.59
-6051.12
-12090.7
-16848.2
-16029.7
-6682.17
9764.48
18728.4
18710.2
16116.8
14647.5
12538.9
3268.95
-9501.82
-9016.6
-3163.84
10999.2
12512.8
7541.76
)
;
    }
    fineWalls
    {
        type            calculated;
        value           uniform 0;
    }
    fineFrontAndBack
    {
        type            calculated;
        value           nonuniform List<scalar> 
960
(
-3.22243e-12
-1.32586e-11
-7.771e-13
1.01349e-12
2.19941e-11
6.16652e-12
1.04836e-12
-3.14535e-12
-4.01641e-11
-1.10133e-11
-1.30508e-11
-2.21709e-11
-3.94671e-13
-6.26664e-13
-5.93525e-12
-6.8078e-13
-1.0535e-12
-9.3272e-12
-1.87781e-12
-2.14711e-12
-3.88972e-13
-8.01928e-13
-9.01091e-13
-9.41365e-13
-9.40229e-13
-8.42945e-13
-9.76618e-12
-3.95083e-13
-1.94351e-13
1.04857e-13
4.75203e-13
7.81248e-13
9.28844e-13
9.24772e-13
7.89174e-13
5.59228e-13
2.851e-13
1.03648e-13
1.5387e-14
-2.27194e-13
-2.24934e-12
-9.77067e-13
-1.9379e-12
-2.8376e-12
-1.05331e-11
-1.04071e-12
-3.1743e-13
-1.27183e-12
3.81119e-11
3.15573e-11
3.12614e-11
2.3454e-11
1.59813e-12
2.40841e-12
2.35714e-12
1.42731e-11
1.67223e-12
3.88914e-13
-5.22776e-13
-2.32408e-12
2.34464e-13
5.01345e-14
-2.5788e-14
-1.73217e-13
-3.72873e-13
-5.56222e-13
-6.59387e-13
-6.63996e-13
-5.04782e-13
-1.8104e-13
1.76202e-13
4.54495e-13
6.65947e-13
1.64134e-11
1.03651e-12
1.09043e-12
1.12216e-12
1.17913e-12
1.20542e-12
9.70072e-13
6.39009e-12
6.46721e-12
4.05621e-11
7.87184e-12
8.89429e-12
5.58858e-11
1.15407e-11
1.07128e-11
4.8604e-11
7.76478e-12
5.39467e-12
4.38778e-11
1.01508e-11
1.03886e-11
1.02917e-11
5.32988e-11
8.9807e-12
8.35754e-12
4.14562e-11
9.51571e-12
-7.78462e-14
-2.76676e-12
-1.27376e-11
-2.01738e-11
-2.59884e-11
-2.97761e-11
-2.4408e-11
-4.48615e-12
4.61716e-12
6.00246e-12
5.63919e-12
4.84808e-12
4.2766e-12
1.55429e-11
3.17546e-11
4.19885e-11
4.47157e-11
4.74937e-11
4.08522e-11
-1.08748e-11
-2.23927e-11
-3.19285e-11
-3.96773e-11
-4.70991e-11
-5.01363e-11
-4.22851e-11
-1.43732e-11
5.47159e-12
5.96613e-12
5.63408e-12
4.85117e-12
4.21126e-12
1.49655e-11
3.04577e-11
4.00916e-11
4.27954e-11
4.64763e-11
3.88282e-11
-1.92705e-11
-3.3869e-11
-4.38046e-11
-5.11726e-11
-5.6227e-11
-5.6098e-11
-4.68921e-11
-2.20421e-11
5.50265e-12
6.07195e-12
5.62096e-12
4.84734e-12
4.1499e-12
1.43894e-11
2.90206e-11
3.76332e-11
4.06639e-11
4.5278e-11
3.92338e-11
-3.17362e-11
-4.84169e-11
-5.54852e-11
-5.93579e-11
-6.04737e-11
-5.71873e-11
-4.6458e-11
-2.30888e-11
3.17831e-12
6.54319e-12
5.5858e-12
4.82766e-12
4.11888e-12
1.40059e-11
2.78161e-11
3.46495e-11
3.87097e-11
4.4985e-11
3.89181e-11
-4.34094e-11
-5.98503e-11
-6.22229e-11
-6.15038e-11
-5.90213e-11
-5.39137e-11
-4.28934e-11
-2.04335e-11
1.34874e-12
6.9041e-12
5.5302e-12
4.75195e-12
4.17067e-12
1.39559e-11
2.706e-11
3.22647e-11
3.74806e-11
4.42705e-11
3.85973e-11
-5.15801e-11
-6.64594e-11
-6.42508e-11
-5.97146e-11
-5.48003e-11
-4.89834e-11
-3.84918e-11
-1.6413e-11
2.74987e-12
6.58583e-12
5.56535e-12
4.64589e-12
4.38974e-12
1.42327e-11
2.67538e-11
3.29737e-11
3.68198e-11
3.88915e-11
3.69461e-11
-5.3312e-11
-6.73433e-11
-6.27752e-11
-5.60199e-11
-4.97437e-11
-4.40203e-11
-3.42174e-11
-1.18859e-11
6.39746e-12
6.20251e-12
5.56952e-12
4.40504e-12
4.90931e-12
1.54017e-11
2.80675e-11
3.37864e-11
3.44571e-11
2.8386e-11
2.48123e-11
-4.88873e-11
-6.30154e-11
-5.80531e-11
-5.00168e-11
-4.36828e-11
-3.96662e-11
-3.04629e-11
-7.06344e-12
1.08616e-11
7.32067e-12
5.80783e-12
4.30826e-12
5.73593e-12
1.63527e-11
2.83911e-11
2.97931e-11
3.07016e-11
2.43039e-11
4.23052e-12
-4.03956e-11
-5.31016e-11
-4.80413e-11
-3.97479e-11
-3.58199e-11
-3.61015e-11
-2.70286e-11
-2.04455e-12
1.48252e-11
8.91521e-12
5.75198e-12
4.25372e-12
7.09631e-12
2.28901e-11
3.59852e-11
2.06041e-11
2.76217e-11
3.29343e-11
2.87297e-11
-3.07046e-11
-3.73928e-11
-3.23525e-11
-2.6139e-11
-2.72417e-11
-3.35549e-11
-2.63253e-11
3.10207e-12
1.83412e-11
9.44091e-12
3.95075e-12
2.26559e-12
1.07147e-11
1.77093e-11
-4.62088e-12
1.46235e-11
3.05212e-11
3.09208e-11
2.38831e-11
-2.45297e-11
-2.02115e-11
-1.51241e-11
-1.3151e-11
-2.00448e-11
-3.19304e-11
-2.96088e-11
7.95767e-12
2.35645e-11
1.2432e-11
4.51453e-12
4.73894e-12
1.34105e-11
7.4578e-12
-1.13585e-11
2.96506e-11
2.74104e-11
3.07453e-11
5.02125e-11
-2.60081e-11
-8.25384e-12
-5.01183e-13
-2.53765e-12
-1.50506e-11
-2.89822e-11
-2.18135e-11
1.05427e-11
2.89215e-11
2.01408e-11
1.12629e-11
1.03722e-11
1.24834e-11
1.90585e-12
-4.17222e-12
-7.81057e-12
-4.27843e-11
-3.30478e-11
-2.60861e-11
-3.39997e-11
-5.58471e-12
1.08512e-11
6.94493e-12
-1.08567e-11
-2.83042e-11
-2.04038e-11
1.06322e-11
2.71549e-11
2.44789e-11
1.78931e-11
1.26564e-11
7.17259e-12
4.26347e-13
-2.73582e-12
-2.42733e-11
-3.12998e-11
-1.91288e-11
-6.6772e-12
-3.87907e-11
-1.52245e-11
1.74916e-11
1.47085e-11
-7.03747e-12
-2.65038e-11
-1.758e-11
8.39937e-12
1.66239e-11
1.70598e-11
1.41357e-11
6.87398e-12
-1.37787e-13
-1.01318e-12
-6.31235e-12
-2.7616e-11
-2.54084e-11
-3.28834e-11
-7.66093e-12
-3.25814e-11
-3.46236e-11
1.71661e-11
2.01185e-11
-3.73088e-12
-2.44672e-11
-1.49565e-11
7.18555e-12
6.13114e-12
3.60309e-12
1.94585e-12
-2.84321e-12
-5.60842e-12
-3.57416e-12
-1.06768e-11
-2.12422e-11
-2.78498e-11
-3.17048e-11
-2.2363e-11
-3.21403e-11
-5.23772e-11
7.0527e-12
2.37225e-11
-1.49551e-13
-2.18566e-11
-1.30981e-11
8.5817e-12
3.74924e-12
-3.29299e-12
-6.22908e-12
-7.98887e-12
-7.10222e-12
-6.09971e-12
-1.39955e-11
-1.73367e-11
-2.80302e-11
-3.11252e-11
-3.8215e-11
-4.23919e-11
-6.53857e-11
-6.61766e-12
2.59631e-11
3.943e-12
-1.88332e-11
-1.361e-11
9.73238e-12
7.56599e-12
-3.45817e-13
-4.63497e-12
-5.78274e-12
-5.14991e-12
-6.06484e-12
-6.57811e-12
-1.68763e-11
-2.91094e-11
-3.3e-11
-3.35649e-11
-5.25593e-11
-7.30007e-11
-1.58783e-11
2.73003e-11
8.53366e-12
-1.53162e-11
-1.73629e-11
5.75335e-12
1.09141e-11
5.93319e-12
1.61518e-12
-2.85462e-13
-1.57733e-12
-2.99737e-12
6.84874e-13
-1.69095e-11
-3.05753e-11
-3.31639e-11
-2.97988e-11
-6.39712e-11
-7.9418e-11
-2.31643e-11
2.81553e-11
1.30182e-11
-1.13025e-11
-2.27755e-11
-2.48022e-12
1.19222e-11
1.28503e-11
9.12227e-12
5.63575e-12
2.36069e-12
2.20167e-13
8.02781e-13
-1.89139e-11
-3.19588e-11
-3.23114e-11
-4.21836e-11
-5.20044e-11
-5.8461e-11
-1.42788e-11
2.89446e-11
1.63914e-11
-7.59574e-12
-2.89573e-11
-2.03884e-11
-3.10799e-12
7.50012e-12
1.08368e-11
9.63433e-12
6.11036e-12
3.17395e-12
5.98656e-14
-2.10343e-11
-3.30508e-11
-3.19968e-11
-3.24796e-11
3.22243e-12
1.32586e-11
7.771e-13
-1.01349e-12
-2.19941e-11
-6.16652e-12
-1.04836e-12
3.14535e-12
4.01641e-11
1.10133e-11
1.30508e-11
2.21709e-11
3.94671e-13
6.26664e-13
5.93525e-12
6.8078e-13
1.0535e-12
9.3272e-12
1.87781e-12
2.14711e-12
3.88972e-13
8.01928e-13
9.01091e-13
9.41365e-13
9.40229e-13
8.42945e-13
9.76618e-12
3.95083e-13
1.94351e-13
-1.04857e-13
-4.75203e-13
-7.81248e-13
-9.28844e-13
-9.24772e-13
-7.89174e-13
-5.59228e-13
-2.851e-13
-1.03648e-13
-1.5387e-14
2.27194e-13
2.24934e-12
9.77067e-13
1.9379e-12
2.8376e-12
1.05331e-11
1.04071e-12
3.1743e-13
1.27183e-12
-3.81119e-11
-3.15573e-11
-3.12614e-11
-2.3454e-11
-1.59813e-12
-2.40841e-12
-2.35714e-12
-1.42731e-11
-1.67223e-12
-3.88914e-13
5.22776e-13
2.32408e-12
-2.34464e-13
-5.01345e-14
2.5788e-14
1.73217e-13
3.72873e-13
5.56222e-13
6.59387e-13
6.63996e-13
5.04782e-13
1.8104e-13
-1.76202e-13
-4.54495e-13
-6.65947e-13
-1.64134e-11
-1.03651e-12
-1.09043e-12
-1.12216e-12
-1.17913e-12
-1.20542e-12
-9.70072e-13
-6.39009e-12
-6.46721e-12
-4.05621e-11
-7.87184e-12
-8.89429e-12
-5.58858e-11
-1.15407e-11
-1.07128e-11
-4.8604e-11
-7.76478e-12
-5.39467e-12
-4.38778e-11
-1.01508e-11
-1.03886e-11
-1.02917e-11
-5.32988e-11
-8.9807e-12
-8.35754e-12
-4.14562e-11
-9.51571e-12
7.78462e-14
2.76676e-12
1.27376e-11
2.01738e-11
2.59884e-11
2.97761e-11
2.4408e-11
4.48615e-12
-4.61716e-12
-6.00246e-12
-5.63919e-12
-4.84808e-12
-4.2766e-12
-1.55429e-11
-3.17546e-11
-4.19885e-11
-4.47157e-11
-4.74937e-11
-4.08522e-11
1.08748e-11
2.23927e-11
3.19285e-11
3.96773e-11
4.70991e-11
5.01363e-11
4.22851e-11
1.43732e-11
-5.47159e-12
-5.96613e-12
-5.63408e-12
-4.85117e-12
-4.21126e-12
-1.49655e-11
-3.04577e-11
-4.00916e-11
-4.27954e-11
-4.64763e-11
-3.88282e-11
1.92705e-11
3.3869e-11
4.38046e-11
5.11726e-11
5.6227e-11
5.6098e-11
4.68921e-11
2.20421e-11
-5.50265e-12
-6.07195e-12
-5.62096e-12
-4.84734e-12
-4.1499e-12
-1.43894e-11
-2.90206e-11
-3.76332e-11
-4.06639e-11
-4.5278e-11
-3.92338e-11
3.17362e-11
4.84169e-11
5.54852e-11
5.93579e-11
6.04737e-11
5.71873e-11
4.6458e-11
2.30888e-11
-3.17831e-12
-6.54319e-12
-5.5858e-12
-4.82766e-12
-4.11888e-12
-1.40059e-11
-2.78161e-11
-3.46495e-11
-3.87097e-11
-4.4985e-11
-3.89181e-11
4.34094e-11
5.98503e-11
6.22229e-11
6.15038e-11
5.90213e-11
5.39137e-11
4.28934e-11
2.04335e-11
-1.34874e-12
-6.9041e-12
-5.5302e-12
-4.75195e-12
-4.17067e-12
-1.39559e-11
-2.706e-11
-3.22647e-11
-3.74806e-11
-4.42705e-11
-3.85973e-11
5.15801e-11
6.64594e-11
6.42508e-11
5.97146e-11
5.48003e-11
4.89834e-11
3.84918e-11
1.6413e-11
-2.74987e-12
-6.58583e-12
-5.56535e-12