/*--------------------------------*- C++ -*----------------------------------*\
| =========                 |                                                 |
| \\      /  F ield         | OpenFOAM: The Open Source CFD Toolbox           |
|  \\    /   O peration     | Version:  4.1                                   |
|   \\  /    A nd           | Web:      www.OpenFOAM.org                      |
|    \\/     M anipulation  |                                                 |
\*---------------------------------------------------------------------------*/
FoamFile
{
    version     2.0;
    format      ascii;
    class       volVectorField;
    location    "15";
    object      U;
}
// * * * * * * * * * * * * * * * * * * * * * * * * * * * * * * * * * * * * * //

dimensions      [0 1 -1 0 0 0 0];

internalField   nonuniform List<vector> 
1280
(
(-2.32876e-15 -2.94114 -2.16514)
(-2.25342e-15 -2.36253 -2.14125)
(-5.6159e-16 -2.17863 -1.41467)
(7.32425e-16 -1.81239 -1.53871)
(3.73812e-15 -1.86259 -2.09789)
(4.45638e-15 -1.22808 -1.53699)
(7.57626e-16 -1.08736 -1.78486)
(-2.14712e-15 -0.722441 -1.80586)
(-7.90027e-15 -0.483458 -2.47221)
(-1.01645e-14 -0.210134 -1.88413)
(-1.16369e-14 0.262478 -1.70662)
(-2.97347e-15 0.503077 -2.87726)
(-1.85887e-16 0.940104 -2.29134)
(-3.28756e-16 1.33949 -2.03732)
(-6.33268e-16 1.96338 -3.42579)
(-4.91982e-16 2.07863 -2.80633)
(-7.61334e-16 2.78129 -2.53999)
(-1.58525e-15 2.78714 -4.37566)
(-1.3602e-15 3.98514 -2.68376)
(-1.55166e-15 3.09364 -5.40752)
(-1.59578e-15 4.05546 -0.405625)
(-3.28996e-15 4.34011 5.43603)
(-3.69678e-15 4.14406 7.93829)
(-3.86201e-15 4.59387 8.61165)
(-3.85735e-15 4.83635 8.44815)
(-3.45824e-15 5.31719 8.82646)
(-2.05875e-15 4.32058 6.31236)
(-1.62085e-15 8.105 12.3164)
(-7.97336e-16 8.34413 13.0689)
(4.30181e-16 8.44509 13.6566)
(1.94955e-15 8.45606 13.92)
(3.20512e-15 8.38761 13.8234)
(3.81064e-15 8.27999 13.5161)
(3.79394e-15 8.14436 13.2241)
(3.23764e-15 8.03501 13.0856)
(2.29427e-15 7.89106 13.1329)
(1.16964e-15 7.89199 13.3094)
(4.25222e-16 7.75744 13.4663)
(6.31261e-17 8.02347 13.5893)
(-9.32078e-16 7.87383 11.9936)
(-3.91531e-16 11.2343 11.4409)
(-7.84793e-16 6.58488 7.24118)
(-1.55654e-15 5.61398 6.91039)
(-2.23598e-15 4.91758 6.66074)
(-1.57415e-15 4.19513 7.28849)
(-8.35909e-16 2.58868 4.63633)
(-2.54964e-16 2.21451 4.46696)
(-1.02155e-15 1.64755 4.50831)
(8.80448e-15 0.733337 3.52905)
(2.53472e-14 0.286881 1.5056)
(2.51095e-14 0.00292019 0.984642)
(4.08251e-15 -0.430018 3.58231)
(1.28364e-15 -1.2506 4.65187)
(1.93446e-15 -1.8158 4.60181)
(1.89328e-15 -2.24047 4.70328)
(2.48444e-15 -3.8458 7.32628)
(1.38818e-15 -4.66632 6.78303)
(3.12381e-16 -5.32209 7.02509)
(-4.199e-16 -6.31302 7.32516)
(-8.68497e-16 -11.4377 11.6042)
(9.61903e-16 -8.13954 12.0856)
(2.0568e-16 -8.28966 13.6124)
(-1.05797e-16 -8.02786 13.4277)
(-7.10635e-16 -8.16288 13.216)
(-1.52974e-15 -8.15923 12.9924)
(-2.28194e-15 -8.30035 12.9205)
(-2.70518e-15 -8.40438 13.0609)
(-2.72409e-15 -8.53582 13.3814)
(-2.0709e-15 -8.6385 13.7089)
(-7.42728e-16 -8.70174 13.7825)
(7.22879e-16 -8.68576 13.4971)
(1.8646e-15 -8.5518 12.9113)
(2.73209e-15 -8.33541 12.1772)
(3.46001e-15 -5.08951 6.15928)
(4.25235e-15 -6.22581 7.81681)
(4.47354e-15 -5.75097 7.37416)
(4.60374e-15 -5.48603 7.52831)
(4.83745e-15 -5.01711 6.88533)
(4.9453e-15 -5.15568 4.52675)
(3.97978e-15 -4.86318 -0.953531)
(4.61795e-15 -3.91372 -5.35897)
(4.67369e-15 -4.62112 -2.73593)
(6.89392e-15 -4.09382 -4.5509)
(5.68877e-15 -3.70144 -3.66346)
(6.42767e-15 -2.8463 -3.64385)
(9.78406e-15 -2.64115 -4.64176)
(8.53197e-15 -1.63363 -3.24666)
(7.93362e-15 -0.961205 -3.4736)
(8.60474e-15 -0.265379 -4.59905)
(5.32702e-15 0.360994 -3.29749)
(3.6142e-15 1.02019 -3.14763)
(8.61623e-15 1.97143 -4.18364)
(7.42484e-15 2.15983 -2.89353)
(7.50759e-15 2.82373 -2.8385)
(7.43755e-15 2.9943 -2.60426)
(9.05864e-15 4.26808 -3.61972)
(6.49012e-15 4.04464 -2.5068)
(6.04327e-15 4.68082 -2.18933)
(7.04589e-15 4.98175 -3.01653)
(6.87676e-15 5.71386 -2.82099)
(-8.64957e-18 1.42079 4.89752)
(-3.07418e-16 1.79991 7.28176)
(-1.41529e-15 1.88856 7.88138)
(-2.24154e-15 2.80683 8.149)
(-2.8876e-15 3.90025 8.08121)
(-3.30846e-15 4.70728 7.5133)
(-2.712e-15 3.45909 5.57337)
(-4.98462e-16 -1.59083 1.73584)
(5.13018e-16 -5.80946 1.04246)
(6.6694e-16 -7.52128 0.788356)
(6.26577e-16 -8.52458 0.268636)
(5.38675e-16 -9.04678 -0.325294)
(4.75178e-16 -8.84188 -0.983074)
(1.72699e-15 -7.61382 -1.68132)
(3.52829e-15 -4.99622 -2.33269)
(4.66538e-15 -1.66777 -2.93607)
(4.96841e-15 0.727007 -3.69284)
(5.27708e-15 1.72513 -4.24692)
(4.53913e-15 2.22332 -4.43542)
(-1.20831e-15 0.538499 6.27168)
(-2.48807e-15 0.934722 7.5924)
(-3.54761e-15 1.66725 7.29324)
(-4.40859e-15 2.76925 7.13634)
(-5.23323e-15 4.09223 6.8483)
(-5.5707e-15 5.45337 6.55171)
(-4.69834e-15 5.15826 5.41711)
(-1.59702e-15 -0.461125 1.75628)
(6.07955e-16 -5.80048 0.653162)
(6.62903e-16 -7.36858 0.973764)
(6.26009e-16 -8.27777 0.382805)
(5.39019e-16 -8.72195 -0.149861)
(4.67918e-16 -8.44527 -0.786546)
(1.66283e-15 -7.16995 -1.51318)
(3.38419e-15 -4.5149 -2.27626)
(4.45463e-15 -1.07199 -3.25115)
(4.75505e-15 1.13627 -4.62356)
(5.16403e-15 1.90544 -5.58682)
(4.31424e-15 1.73127 -4.89041)
(-2.14116e-15 0.699375 6.36094)
(-3.76322e-15 1.21304 6.91867)
(-4.86718e-15 1.93659 6.50754)
(-5.68585e-15 2.93977 6.36328)
(-6.24745e-15 4.16305 6.07041)
(-6.23312e-15 5.46987 5.84137)
(-5.21024e-15 5.55149 5.13887)
(-2.44912e-15 0.740615 2.61638)
(6.11406e-16 -5.59482 0.23069)
(6.74661e-16 -7.3066 1.15898)
(6.24551e-16 -8.03313 0.62553)
(5.38593e-16 -8.4803 0.102967)
(4.611e-16 -8.18177 -0.478923)
(1.59883e-15 -6.89011 -1.21954)
(3.22452e-15 -4.17916 -2.08729)
(4.18146e-15 -0.578857 -3.50181)
(4.51821e-15 1.60798 -5.31382)
(5.03089e-15 1.93413 -6.64045)
(4.35931e-15 1.21621 -5.76356)
(-3.52624e-15 0.35882 6.20434)
(-5.37966e-15 1.05216 6.48156)
(-6.16502e-15 1.93918 6.15982)
(-6.59532e-15 2.98504 6.08943)
(-6.7193e-15 4.28582 5.83821)
(-6.35414e-15 5.73941 5.57679)
(-5.16201e-15 6.19486 4.92569)
(-2.56542e-15 1.89358 3.1121)
(3.53146e-16 -5.36595 0.351852)
(7.27022e-16 -7.39742 1.09695)
(6.20644e-16 -7.86823 1.02992)
(5.36407e-16 -8.27841 0.417651)
(4.57654e-16 -7.95319 -0.0640893)
(1.55621e-15 -6.59235 -0.784778)
(3.09068e-15 -3.70239 -1.73517)
(3.84995e-15 0.251588 -3.6229)
(4.30108e-15 2.31221 -5.99185)
(4.99834e-15 2.11784 -7.72316)
(4.32424e-15 0.442561 -6.77503)
(-4.82327e-15 0.447167 5.9235)
(-6.65003e-15 1.1947 6.10682)
(-6.91366e-15 2.0286 5.94826)
(-6.83375e-15 3.06259 5.94033)
(-6.55792e-15 4.3821 5.69668)
(-5.99042e-15 5.87637 5.38745)
(-4.76593e-15 6.53587 4.7971)
(-2.27039e-15 2.78061 3.66245)
(1.4986e-16 -5.00124 1.06505)
(7.67122e-16 -7.47973 0.920209)
(6.14467e-16 -7.80979 1.48629)
(5.27994e-16 -8.05594 0.840514)
(4.63407e-16 -7.72821 0.451552)
(1.55066e-15 -6.25961 -0.202535)
(3.00667e-15 -3.07385 -1.21927)
(3.58496e-15 1.29398 -3.763)
(4.16451e-15 3.22012 -6.15546)
(4.91894e-15 2.35555 -7.46078)
(4.28859e-15 -0.172769 -6.75324)
(-5.73112e-15 0.276957 5.59132)
(-7.38438e-15 1.12764 5.93819)
(-7.13897e-15 2.00665 5.87621)
(-6.63496e-15 3.10755 5.86675)
(-6.08893e-15 4.5055 5.58865)
(-5.44259e-15 6.06662 5.23437)
(-4.27687e-15 6.84339 4.72594)
(-1.82367e-15 3.48094 4.22904)
(3.05541e-16 -4.45622 2.09985)
(7.31759e-16 -7.45014 1.0504)
(6.18372e-16 -7.86721 1.80536)
(5.1621e-16 -7.85852 1.41084)
(4.87748e-16 -7.5376 1.04705)
(1.58141e-15 -5.96078 0.52745)
(2.97264e-15 -2.29465 -0.471303)
(3.66374e-15 2.26283 -3.50269)
(4.09108e-15 3.77292 -3.68305)
(4.32128e-15 2.51787 -3.27712)
(4.10512e-15 -1.30381 -3.34917)
(-5.92355e-15 0.206637 5.28922)
(-7.48259e-15 1.10491 5.81184)
(-6.97503e-15 2.0202 5.7832)
(-6.22443e-15 3.18494 5.73612)
(-5.52708e-15 4.63666 5.42742)
(-4.89115e-15 6.20954 5.0844)
(-3.80193e-15 6.98619 4.74444)
(-1.32065e-15 3.88823 4.86262)
(7.10829e-16 -3.86744 3.29347)
(6.89168e-16 -7.24574 1.70334)
(6.18836e-16 -7.97117 2.00436)
(4.89449e-16 -7.75152 2.07134)
(5.45479e-16 -7.38437 1.72846)
(1.7113e-15 -5.74147 1.40263)
(3.11861e-15 -1.39855 0.343918)
(3.75404e-15 2.66734 -0.248944)
(3.82856e-15 3.14339 2.79711)
(3.154e-15 2.71742 3.61121)
(2.75693e-15 1.03667 2.90757)
(-5.43193e-15 0.0127711 4.88324)
(-7.00172e-15 0.990494 5.63475)
(-6.45034e-15 2.01705 5.63256)
(-5.55742e-15 3.26578 5.55695)
(-4.85364e-15 4.76236 5.25116)
(-4.40735e-15 6.31293 4.97935)
(-3.38477e-15 6.99725 4.88)
(-7.84827e-16 4.03936 5.56568)
(1.20685e-15 -3.3004 4.56037)
(8.13407e-16 -6.84633 2.75156)
(6.45314e-16 -8.0207 2.34267)
(4.78695e-16 -7.75526 2.69146)
(6.37326e-16 -7.27894 2.50509)
(1.81696e-15 -5.56268 2.27859)
(3.15456e-15 -1.23632 1.75356)
(3.31034e-15 1.3914 5.73745)
(3.41129e-15 2.18416 8.43739)
(2.70043e-15 1.23382 9.1305)
(4.70058e-16 -4.64631 9.41975)
(-4.4884e-15 -0.201981 4.3109)
(-5.90018e-15 0.848038 5.32771)
(-5.33792e-15 2.01931 5.41101)
(-4.41643e-15 3.35083 5.33767)
(-3.97999e-15 4.86183 5.06678)
(-4.01128e-15 6.33882 4.91515)
(-3.00317e-15 6.84442 5.11445)
(-2.27173e-16 3.94489 6.3121)
(1.64725e-15 -2.79714 5.81111)
(9.90579e-16 -6.31069 3.99032)
(6.39109e-16 -7.93733 3.0177)
(4.72636e-16 -7.82635 3.23378)
(7.88479e-16 -7.22908 3.32636)
(2.54335e-15 -5.57539 3.13553)
(3.99835e-15 -2.43809 4.21095)
(2.28935e-15 0.0564301 9.06805)
(3.06908e-15 1.97483 10.4827)
(3.65937e-15 2.35186 11.6723)
(3.19219e-15 -0.291479 10.6153)
(-3.41163e-15 -0.485606 3.53897)
(-4.15476e-15 0.618671 4.86822)
(-3.59472e-15 1.98759 5.12945)
(-2.90434e-15 3.42084 5.09071)
(-3.02686e-15 4.92216 4.87661)
(-3.72832e-15 6.27782 4.87984)
(-2.70612e-15 6.53346 5.40898)
(3.44675e-16 3.64969 7.04928)
(2.03791e-15 -2.37209 6.97738)
(1.04899e-15 -5.72167 5.2887)
(4.38972e-16 -7.69213 4.0136)
(2.00309e-16 -7.89129 3.8255)
(1.19052e-15 -7.25398 4.07379)
(1.9677e-15 -5.86192 3.93169)
(-1.99881e-15 -3.6154 5.4535)
(1.62483e-15 -0.869636 7.88608)
(3.39124e-15 1.16959 8.04051)
(3.43564e-15 1.29123 9.37775)
(2.65367e-15 0.191603 7.15923)
(-2.72552e-15 -0.8208 2.59688)
(-2.24572e-15 0.289843 4.22461)
(-1.68046e-15 1.90143 4.77814)
(-1.46122e-15 3.46701 4.81203)
(-2.2272e-15 4.93366 4.67251)
(-3.54782e-15 6.1181 4.85754)
(-3.37505e-15 6.06679 5.72511)
(8.84185e-16 3.18955 7.72575)
(2.61828e-15 -2.04791 7.99467)
(1.38133e-15 -5.15161 6.55953)
(5.01614e-16 -7.31666 5.21109)
(5.26549e-16 -7.86838 4.58372)
(1.49006e-15 -7.28788 4.68953)
(8.28645e-16 -6.15811 4.79255)
(-1.26206e-15 -4.3289 6.6881)
(3.29451e-15 -1.35504 9.0306)
(3.0456e-15 1.11426 10.6152)
(3.41614e-15 1.91627 10.8967)
(5.57917e-15 1.60743 7.74162)
(-2.88979e-15 -1.19077 1.58357)
(-9.17093e-16 -0.207459 3.31397)
(-5.56869e-17 1.71214 4.34018)
(-2.81961e-16 3.47434 4.50177)
(-1.67229e-15 4.88836 4.45317)
(-3.22025e-15 5.8569 4.83753)
(-2.42372e-15 5.46276 6.03284)
(1.17142e-15 2.61797 8.30867)
(3.2135e-15 -1.84343 8.75623)
(2.23787e-15 -4.65593 7.63017)
(1.25143e-15 -6.86526 6.38774)
(1.15247e-15 -7.70206 5.46061)
(1.38705e-15 -7.34939 5.41826)
(2.11761e-16 -6.68669 6.38643)
(-4.6358e-16 -5.21405 9.08233)
(-8.67841e-16 -1.88164 10.9433)
(-4.75381e-15 0.975256 10.5359)
(-3.67197e-15 2.33921 10.6385)
(-2.89846e-15 3.21543 9.94592)
(-3.77774e-15 -1.52933 0.725497)
(-6.20523e-16 -0.835116 2.10616)
(1.20569e-15 1.383 3.79999)
(7.71659e-16 3.43373 4.16715)
(-1.2063e-15 4.78195 4.22069)
(-3.14491e-15 5.49537 4.80582)
(-2.26709e-15 4.73995 6.3033)
(1.18136e-15 2.0042 8.81465)
(3.01721e-15 -1.71152 9.25147)
(2.71988e-15 -4.25309 8.34771)
(1.98812e-15 -6.41248 7.32656)
(1.40627e-15 -7.49751 6.45537)
(7.96954e-16 -7.65134 6.79222)
(4.73719e-17 -7.56157 8.75877)
(-3.0398e-16 -5.9549 10.2959)
(-2.69703e-15 -1.92948 6.81819)
(-3.47776e-15 0.986991 0.991307)
(-2.12542e-15 1.52362 2.14097)
(-7.41911e-16 4.83853 6.76347)
(-4.31008e-15 -1.70109 0.124728)
(-1.69161e-15 -1.47351 0.713898)
(1.94351e-15 0.903386 3.15114)
(1.63428e-15 3.33467 3.81791)
(-7.81942e-16 4.61469 3.9769)
(-2.94487e-15 5.04211 4.73972)
(-1.95334e-15 3.90076 6.49324)
(9.33263e-16 1.36609 9.29559)
(1.8471e-15 -1.59855 9.74274)
(1.89554e-15 -3.9226 8.96205)
(1.57063e-15 -6.07368 8.21511)
(7.63775e-16 -7.50413 7.8169)
(-1.53096e-17 -8.26402 8.85639)
(-1.12576e-16 -8.07445 10.7315)
(-7.01373e-16 -4.66727 9.15679)
(-3.06845e-15 1.25087 1.37067)
(-2.82315e-15 2.64645 -0.168951)
(-3.65371e-15 0.494434 -3.44739)
(-8.51214e-16 -1.264 -0.0063752)
(-3.62015e-15 -1.71852 -0.699)
(-3.84706e-15 -2.082 -0.600751)
(1.90734e-15 0.193957 2.35714)
(2.23539e-15 3.15113 3.45887)
(-4.14542e-16 4.39112 3.72117)
(-2.71858e-15 4.5157 4.60238)
(-1.66184e-15 2.92367 6.51834)
(7.98395e-16 0.629137 9.704)
(6.81237e-16 -1.54896 10.4147)
(4.00343e-16 -3.66941 9.90196)
(2.16206e-16 -5.92734 9.49063)
(-3.15912e-16 -7.76888 9.58754)
(-6.23158e-16 -8.80964 10.7389)
(-3.97129e-16 -7.68949 11.1441)
(-1.18632e-15 -2.39498 6.43069)
(-2.36024e-15 2.55565 -0.635977)
(-3.09442e-15 2.85399 -0.785424)
(-3.52275e-15 1.39841 -1.62697)
(-2.48477e-15 -0.237749 -3.47832)
(-3.57114e-15 -1.73509 -1.62048)
(-5.81969e-15 -2.62747 -1.38185)
(7.83633e-16 -0.835475 1.35481)
(2.63583e-15 2.83539 3.09464)
(-1.66168e-17 4.1196 3.45542)
(-2.42851e-15 3.96298 4.34587)
(-1.45534e-15 1.83701 6.22159)
(9.53522e-16 -0.201643 9.71681)
(4.16582e-16 -1.68703 10.8967)
(-3.65887e-16 -3.59232 10.9823)
(-6.9212e-16 -5.94089 10.9543)
(-8.87652e-16 -8.01818 11.157)
(-7.89135e-16 -8.85374 11.5321)
(-6.77746e-16 -6.33424 9.77463)
(-1.55505e-15 0.300541 2.68447)
(-1.9263e-15 3.72534 -0.692682)
(-3.11447e-15 3.1431 -1.7391)
(-3.45835e-15 1.74915 -2.51075)
(-4.24611e-15 0.459857 -3.37146)
(-4.71022e-15 -1.85249 -2.03918)
(-7.26508e-15 -3.14282 -1.48301)
(-7.35296e-16 -1.85607 0.608166)
(2.88479e-15 2.3968 2.72515)
(4.38112e-16 3.82226 3.19131)
(-2.09258e-15 3.49063 3.95123)
(-1.51222e-15 0.750778 5.44274)
(1.08138e-15 -1.18767 8.83181)
(8.40666e-16 -2.07062 10.6408)
(-3.84241e-17 -3.7016 11.4742)
(-5.14997e-16 -5.99584 11.8085)
(-6.42526e-16 -8.02033 11.8033)
(-5.72212e-16 -8.23975 11.0252)
(-6.73871e-16 -4.29184 7.26388)
(-7.30901e-16 2.01296 -0.506596)
(-1.87515e-15 4.27674 -1.42662)
(-3.23437e-15 3.55401 -2.39036)
(-3.66667e-15 2.03618 -2.95306)
(-3.72944e-15 0.24491 -3.06628)
(-5.83993e-15 -2.01844 -1.88491)
(-8.11119e-15 -3.55068 -1.00173)
(-1.76425e-15 -2.66379 0.355369)
(3.03337e-15 1.94224 2.35893)
(9.48185e-16 3.5377 2.9383)
(-1.7018e-15 3.1933 3.4723)
(-1.92921e-15 -0.150733 4.30193)
(6.39261e-16 -2.21842 7.16842)
(1.21268e-15 -2.79363 9.52749)
(6.59244e-16 -4.09794 10.907)
(1.79465e-16 -6.08295 11.4681)
(-3.1718e-17 -7.68047 11.2092)
(-1.75259e-16 -7.00519 9.50224)
(-3.33041e-16 -1.84728 4.53463)
(7.60971e-17 3.449 -1.01947)
(-1.87883e-15 4.5976 -2.12274)
(-3.39726e-15 3.75322 -2.86391)
(-3.68488e-15 2.06783 -3.11193)
(-3.31098e-15 0.183199 -2.77591)
(-7.10791e-15 -2.24979 -1.45397)
(-8.82422e-15 -3.97151 -0.229681)
(-2.57381e-15 -3.33867 0.344773)
(3.12837e-15 1.52187 2.06853)
(1.44647e-15 3.28434 2.68551)
(-1.25583e-15 3.03219 2.99896)
(-2.53061e-15 -1.07337 3.07967)
(-2.7558e-16 -3.22917 5.14947)
(1.32469e-15 -3.50663 7.96853)
(1.42781e-15 -4.40034 9.86569)
(1.01359e-15 -6.08148 10.5872)
(6.26194e-16 -7.25462 10.0254)
(2.62298e-16 -5.68017 7.46151)
(2.4463e-17 0.353553 1.46098)
(8.91979e-17 4.52203 -1.15354)
(-2.10155e-15 5.05751 -2.47545)
(-3.55098e-15 3.91013 -3.0836)
(-3.59015e-15 2.04106 -3.11099)
(-4.68707e-15 -0.0945323 -2.78803)
(-5.77827e-15 -2.53877 0.6803)
(-6.49567e-15 -4.19762 1.20554)
(-1.58654e-15 -3.66317 1.06267)
(3.21607e-15 1.07571 2.01841)
(1.82127e-15 3.00501 2.44912)
(-8.43971e-16 3.20413 2.68036)
(-3.21748e-15 -1.22098 2.32175)
(-2.26538e-15 -4.18261 2.85768)
(-3.45332e-16 -4.81967 4.83369)
(8.33347e-16 -5.29851 6.72899)
(1.20409e-15 -6.20349 7.70679)
(1.07048e-15 -6.29677 7.31323)
(6.78929e-16 -3.44278 4.88073)
(3.52661e-16 1.93274 0.229445)
(6.65173e-18 5.21774 -1.32806)
(-2.33714e-15 5.55035 -2.67455)
(-3.67231e-15 4.01955 -3.13909)
(-3.5552e-15 2.01842 -3.03366)
(-3.60884e-15 -0.374029 -3.11846)
(6.49878e-17 9.73341 16.7053)
(-4.56066e-15 18.0074 30.713)
(-3.67615e-15 18.2149 29.7923)
(-3.73198e-15 16.2083 26.0211)
(-4.30615e-15 14.6091 22.7773)
(-5.85661e-15 13.4241 20.4575)
(-5.29189e-15 12.3568 18.3933)
(-4.66466e-15 11.3843 16.7236)
(-3.75181e-15 10.396 14.9921)
(-2.27748e-15 9.33002 13.1898)
(-3.44896e-16 8.21015 11.3328)
(1.13595e-15 7.06219 9.44367)
(1.73568e-15 6.00983 7.72632)
(1.36683e-15 5.2557 6.58808)
(-5.01538e-16 5.11726 6.56026)
(-3.60024e-15 5.77979 8.10395)
(-7.09967e-15 7.2473 10.9103)
(-8.44909e-15 8.6835 14.0812)
(-7.86994e-15 9.52832 15.5321)
(-8.69298e-15 7.1339 12.7716)
(-3.22871e-16 8.78406 14.5756)
(-4.18579e-15 16.6856 29.4642)
(-2.51275e-15 16.1718 27.9181)
(-2.94893e-15 13.9118 24.0705)
(-3.43464e-15 12.266 21.0226)
(-5.78984e-15 11.0983 18.8888)
(-4.65085e-15 10.2844 17.3677)
(-4.8629e-15 9.61706 16.0188)
(-5.10174e-15 9.00452 14.7784)
(-5.7516e-15 8.44046 13.5537)
(-6.29916e-15 7.8882 12.2988)
(-6.60993e-15 7.33504 10.9788)
(-6.61618e-15 6.78469 9.59116)
(-6.38838e-15 6.2865 8.28449)
(-6.60862e-15 6.03917 7.45732)
(-7.14504e-15 6.18534 7.572)
(-8.56722e-15 6.74874 8.71262)
(-9.29374e-15 7.38529 10.4278)
(-8.60577e-15 7.47021 11.4866)
(-9.86818e-15 5.54165 9.03239)
(-2.93401e-17 7.9127 13.5667)
(-1.06868e-15 17.2544 30.3693)
(-7.78438e-16 17.6137 30.5683)
(-7.02493e-16 15.5878 26.6549)
(-4.65513e-16 13.8111 23.361)
(-2.34356e-15 12.6717 21.0271)
(-1.76428e-15 11.8228 19.3289)
(-1.67643e-15 11.1503 17.8789)
(-2.06165e-15 10.5116 16.5352)
(-2.59359e-15 9.88816 15.2323)
(-2.99951e-15 9.26452 13.9485)
(-3.4068e-15 8.63358 12.6624)
(-3.63618e-15 7.99298 11.3547)
(-3.58428e-15 7.34476 10.0203)
(-3.43247e-15 6.71121 8.72598)
(-3.70717e-15 6.17736 7.68459)
(-4.43146e-15 5.79384 7.17551)
(-5.28933e-15 5.58875 7.16324)
(-5.30329e-15 4.98038 7.1302)
(-7.16272e-15 2.99768 4.06775)
(3.18938e-17 7.18385 12.0128)
(2.89966e-16 17.6122 30.3381)
(1.94789e-16 18.2619 31.4252)
(2.09905e-16 16.057 27.2641)
(2.43606e-16 14.115 23.8945)
(-1.25183e-15 12.985 21.6299)
(-1.36827e-15 12.121 19.9879)
(-1.30157e-15 11.3898 18.4863)
(-1.47129e-15 10.6559 17.0365)
(-1.79111e-15 9.92435 15.607)
(-1.71606e-15 9.19007 14.2095)
(-2.27322e-15 8.45706 12.8492)
(-2.84706e-15 7.72004 11.5221)
(-3.31361e-15 6.98145 10.2081)
(-3.68833e-15 6.21485 8.89349)
(-4.12036e-15 5.45415 7.56379)
(-4.69496e-15 4.62488 6.30979)
(-5.32589e-15 3.84907 5.05138)
(-5.61571e-15 2.5015 3.62709)
(-1.32964e-14 0.488454 -0.49546)
(-8.09365e-18 8.39095 13.8866)
(-8.62764e-17 18.6095 30.9666)
(-5.9976e-17 19.0967 32.1101)
(-6.45726e-17 16.9547 28.0239)
(-1.02244e-16 15.072 24.8499)
(2.85262e-16 14.0361 22.6828)
(3.6396e-16 13.1951 21.0576)
(3.75441e-16 12.4574 19.5067)
(4.10121e-16 11.6888 17.9584)
(4.69102e-16 10.8873 16.3772)
(5.44168e-16 10.0447 14.7739)
(6.78931e-16 9.1647 13.1652)
(8.01814e-16 8.25066 11.5739)
(8.50305e-16 7.31728 10.0093)
(8.31683e-16 6.34174 8.47621)
(8.49289e-16 5.34465 6.92346)
(9.24312e-16 4.20591 5.32644)
(1.0861e-15 3.0217 3.46859)
(1.52368e-15 1.08222 1.17999)
(-1.36882e-15 -0.42864 -2.41658)
(7.54689e-19 11.402 19.1109)
(1.99215e-17 20.3797 32.9749)
(1.72311e-17 19.4654 32.2169)
(1.68239e-17 17.5111 28.302)
(2.97664e-17 15.8862 25.7483)
(-6.06443e-17 15.1042 23.8533)
(-9.86101e-17 14.3297 22.3248)
(-1.03494e-16 13.6406 20.7298)
(-1.0759e-16 12.8403 19.0587)
(-1.19065e-16 11.9543 17.2603)
(-1.34899e-16 10.9645 15.3715)
(-1.4991e-16 9.89263 13.4205)
(-1.50083e-16 8.7472 11.4413)
(-1.272e-16 7.54311 9.44707)
(-8.38679e-17 6.26037 7.45516)
(-3.49392e-17 4.91815 5.42803)
(1.23951e-17 3.39616 3.36001)
(7.22699e-17 1.79324 0.897062)
(1.04118e-16 -0.72468 -1.85472)
(1.20293e-15 -1.86784 -5.52527)
(2.41944e-20 15.2202 26.4854)
(-3.82392e-18 21.4834 34.728)
(-4.02191e-18 18.5358 31.5274)
(-3.76881e-18 17.3259 28.4437)
(-6.22764e-18 16.0758 26.9406)
(1.18642e-17 15.651 25.4523)
(2.16201e-17 14.8805 24.1499)
(2.32297e-17 14.2232 22.5211)
(2.33216e-17 13.246 20.6656)
(2.40279e-17 12.1379 18.5157)
(2.42865e-17 10.8502 16.2354)
(2.23263e-17 9.4815 13.8691)
(1.63149e-17 8.01615 11.4532)
(5.54012e-18 6.45829 8.97962)
(-1.03605e-17 4.78763 6.448)
(-3.42447e-17 3.00814 3.82264)
(-6.67798e-17 1.05961 1.2478)
(-7.84636e-17 -0.773922 -1.96002)
(-1.26714e-16 -3.2421 -4.47931)
(1.04731e-15 -3.40828 -8.4747)
(-2.20332e-20 17.2358 31.1027)
(7.28359e-19 19.8668 33.0284)
(8.22894e-19 16.4441 29.7817)
(7.91621e-19 16.1419 28.0436)
(9.97926e-19 14.8812 27.1292)
(-2.96494e-18 14.4602 25.86)
(-4.66186e-18 13.4278 24.7213)
(-4.74874e-18 12.5005 22.9499)
(-4.57161e-18 10.9946 20.7448)
(-4.36659e-18 9.40415 18.1068)
(-3.57861e-18 7.64084 15.4168)
(-1.62534e-18 5.89981 12.6591)
(2.30346e-18 4.06311 9.8234)
(9.08728e-18 2.16135 6.86565)
(1.34167e-17 0.187873 3.68479)
(-8.33427e-18 -1.75113 0.56142)
(-6.18609e-17 -2.82504 -1.2162)
(-6.75634e-17 -3.6679 -2.98689)
(7.43784e-17 -5.54617 -6.15588)
(3.71715e-16 -3.48166 -5.74209)
(2.44322e-21 16.2921 29.8159)
(-1.28949e-19 17.4537 30.0212)
(-1.39917e-19 15.0272 27.8495)
(-1.24961e-19 14.4043 26.1144)
(2.05122e-20 13.0441 25.094)
(7.07543e-19 12.2998 23.8494)
(9.08793e-19 11.0518 22.6489)
(8.26317e-19 9.74724 20.8023)
(5.88747e-19 7.95946 18.4694)
(2.86954e-19 6.11071 15.8008)
(6.41155e-20 4.20808 13.1487)
(-6.18703e-20 2.36874 10.5073)
(-5.03018e-19 0.542279 7.88499)
(-2.41861e-18 -1.12685 5.4061)
(-8.0224e-18 -2.46338 3.29153)
(-1.93258e-17 -3.33501 1.55188)
(-3.28391e-17 -3.48812 0.471368)
(-3.50018e-17 -2.12864 1.27609)
(-1.39987e-17 0.904503 4.50288)
(5.47559e-18 2.93918 7.0406)
(3.68649e-22 14.5495 26.4137)
(1.71422e-20 16.9365 29.0218)
(1.40349e-20 14.2746 26.0564)
(4.0096e-21 13.4021 23.5808)
(-2.93145e-20 11.8784 22.3349)
(-8.27552e-20 11.0811 20.7195)
(-2.09447e-20 9.73657 19.3748)
(6.91488e-20 8.52985 17.5653)
(1.40787e-19 6.95294 15.4733)
(3.21785e-19 5.39088 13.053)
(8.93713e-19 3.81801 10.6018)
(1.67948e-18 2.41059 8.24102)
(8.32629e-19 1.24847 6.19141)
(-4.96427e-18 0.549256 4.77354)
(-1.59939e-17 0.610734 4.51346)
(-2.49985e-17 1.78783 6.01321)
(-2.29414e-17 4.12766 9.29228)
(-1.04146e-17 6.94159 13.1117)
(1.80694e-18 8.89296 15.1738)
(3.3692e-18 6.57745 12.3306)
(-1.46778e-22 14.1004 25.4069)
(-1.02937e-21 17.6892 29.3896)
(7.36223e-22 14.7413 26.2305)
(2.23628e-21 14.1078 23.1194)
(3.34051e-21 12.5136 21.7321)
(3.12575e-21 11.9884 19.7433)
(-1.23965e-20 10.7842 18.2517)
(-3.053e-20 10.0241 16.5473)
(-4.9047e-20 9.07613 15.0223)
(-6.89549e-20 8.30171 13.4445)
(-6.7795e-20 7.55107 11.9165)
(-1.0931e-20 6.92324 10.4432)
(1.15771e-19 6.41576 9.08967)
(3.22037e-19 6.07408 7.96661)
(6.23692e-19 6.00487 7.3122)
(1.33658e-18 6.26079 7.43983)
(3.04569e-18 6.84355 8.37089)
(5.30088e-18 7.23088 9.69624)
(5.78086e-18 7.00195 10.1413)
(1.98614e-18 4.83377 7.96419)
(5.71497e-23 14.478 26.1538)
(-3.09763e-22 18.541 30.3838)
(-8.72808e-22 15.3513 27.2607)
(-9.52603e-22 14.8678 24.1392)
(2.99393e-22 13.3442 22.7649)
(2.69137e-21 12.8932 20.8769)
(4.28766e-21 11.8942 19.3894)
(2.14891e-21 11.2023 17.7567)
(-1.35624e-21 10.4424 16.2652)
(-3.75779e-21 9.7715 14.8399)
(-1.61335e-20 9.14454 13.4882)
(-5.52152e-20 8.54595 12.1863)
(-1.06975e-19 7.96311 10.9109)
(-1.0802e-19 7.37689 9.65918)
(2.87969e-20 6.77487 8.4425)
(3.37615e-19 6.16107 7.33108)
(6.83212e-19 5.52509 6.45307)
(7.39127e-19 4.88484 5.7816)
(1.37188e-19 3.75807 4.92024)
(-1.02937e-18 1.84838 1.95998)
(-1.93817e-23 15.2198 27.7323)
(1.52876e-22 19.1997 30.9209)
(3.31258e-22 15.5853 27.9313)
(3.53664e-22 15.532 24.9491)
(-1.34953e-22 13.8565 23.695)
(-1.19958e-21 13.5244 21.7512)
(-2.06979e-21 12.477 20.3142)
(-2.41927e-21 11.8261 18.6781)
(-3.1837e-21 11.0441 17.1784)
(-4.69081e-21 10.3282 15.6669)
(-3.59032e-21 9.60518 14.1821)
(4.07893e-21 8.87589 12.7093)
(1.24714e-20 8.12163 11.2453)
(5.73226e-22 7.32999 9.77931)
(-5.63212e-20 6.46095 8.30109)
(-1.65568e-19 5.52099 6.76588)
(-3.08072e-19 4.3993 5.16461)
(-4.72231e-19 3.1922 3.34866)
(-7.0671e-19 1.28066 1.20107)
(-1.15064e-18 -0.136302 -2.21516)
(2.86734e-24 16.1797 30.1483)
(-3.58774e-23 19.6085 31.0196)
(-2.53275e-23 15.6951 28.7325)
(6.7586e-23 16.2761 25.9468)
(1.7987e-22 14.3038 24.8801)
(-6.79727e-23 14.2155 22.8617)
(-1.30209e-21 13.0437 21.5319)
(-3.37075e-21 12.5289 19.9062)
(-4.79344e-21 11.7594 18.4985)
(-3.49187e-21 11.1279 17.0204)
(1.6155e-21 10.4283 15.5152)
(1.04238e-20 9.65796 13.875)
(2.33183e-20 8.7327 12.0566)
(4.19723e-20 7.62563 10.0408)
(6.72247e-20 6.31879 7.88495)
(9.51773e-20 4.89921 5.61717)
(1.1804e-19 3.25473 3.29584)
(1.2312e-19 1.6159 0.707398)
(9.49817e-20 -0.923255 -1.99355)
(-8.12489e-19 -1.95112 -5.67141)
(-2.95952e-24 16.7916 32.1734)
(1.10654e-23 19.4665 30.5096)
(7.99274e-23 15.589 29.3295)
(2.03844e-22 16.615 26.6965)
(1.10862e-22 14.3368 25.8077)
(-8.1609e-22 14.4569 23.8113)
(-3.04268e-21 13.1348 22.6666)
(-5.82598e-21 12.7592 21.1441)
(-6.23068e-21 11.9536 19.9186)
(4.26928e-22 11.3804 18.5398)
(1.81611e-20 10.6049 17.0437)
(4.71682e-20 9.63626 15.1514)
(8.27463e-20 8.29009 12.7619)
(1.16435e-19 6.62484 9.95807)
(1.37946e-19 4.81443 7.0686)
(1.40766e-19 3.03305 4.20038)
(1.30398e-19 1.07663 1.33346)
(1.18266e-19 -0.600187 -2.02614)
(2.11251e-19 -3.20482 -4.52125)
(-4.6843e-19 -3.48468 -8.38298)
(-2.78794e-24 16.5416 32.4863)
(2.38171e-24 18.8258 29.5319)
(8.69591e-23 15.1217 29.0673)
(2.34779e-22 16.0982 26.5133)
(3.58665e-23 13.7804 25.6588)
(-1.33781e-21 13.7612 23.7887)
(-4.25296e-21 12.4079 22.7063)
(-6.9886e-21 11.9312 21.3116)
(-4.69434e-21 11.031 20.1805)
(9.0158e-21 10.3276 18.8408)
(3.79564e-20 9.29665 17.2138)
(7.9757e-20 7.93412 14.887)
(1.26168e-19 6.08797 11.8186)
(1.64912e-19 4.12207 8.50455)
(1.82675e-19 2.46081 5.64361)
(1.77289e-19 0.978735 3.1056)
(1.56424e-19 -0.41449 0.674006)
(1.45924e-19 -2.07739 -2.45719)
(1.17216e-19 -4.82261 -6.18653)
(-1.36227e-19 -3.81064 -7.27597)
(-3.05531e-24 15.5276 31.2813)
(4.98088e-24 18.277 28.4391)
(9.26359e-23 14.2508 27.982)
(2.27065e-22 15.1691 25.455)
(-3.01162e-23 12.9575 24.5443)
(-1.45316e-21 12.676 22.789)
(-4.26138e-21 11.444 21.6265)
(-6.76965e-21 10.7631 20.296)
(-4.81856e-21 9.86901 19.1215)
(6.3803e-21 9.03406 17.8131)
(2.84785e-20 7.98983 16.2258)
(5.75208e-20 6.70529 14.1179)
(8.58246e-20 5.23176 11.5672)
(1.0747e-19 3.87168 9.01961)
(1.26834e-19 2.70989 6.69657)
(1.59805e-19 1.31094 3.94792)
(1.98588e-19 -0.543583 0.415096)
(1.92926e-19 -2.06845 -2.44522)
(1.41133e-19 -2.71722 -3.188)
(4.05658e-20 -0.913641 -0.365677)
(-2.23847e-24 14.1399 30.5269)
(4.17976e-24 17.9348 27.3194)
(7.16258e-23 13.2048 27.2079)
(1.74359e-22 14.1458 24.8061)
(-1.88507e-23 12.0275 23.8586)
(-1.09634e-21 11.5577 22.2425)
(-3.34329e-21 10.4189 21.0339)
(-5.97634e-21 9.66973 19.7307)
(-6.9132e-21 8.82831 18.5397)
(-3.84023e-21 8.06864 17.3183)
(3.85559e-21 7.27624 16.0292)
(1.40407e-20 6.47052 14.5799)
(2.38657e-20 5.64963 12.9354)
(3.40471e-20 4.81246 11.0625)
(5.06376e-20 3.88118 8.89689)
(8.16926e-20 2.75096 6.31388)
(1.31493e-19 1.38326 3.09057)
(1.95246e-19 -0.285514 -0.873981)
(2.24303e-19 -1.63451 -3.54693)
(2.29603e-19 0.414754 0.576886)
(-9.14252e-25 11.1663 28.5517)
(1.38318e-24 17.0203 24.8586)
(3.11956e-23 11.9601 25.253)
(9.17848e-23 12.6529 23.5002)
(4.11774e-23 10.9085 22.7335)
(-4.59325e-22 10.259 21.6138)
(-1.78752e-21 9.27079 20.675)
(-4.03075e-21 8.50883 19.7091)
(-6.70716e-21 7.75541 18.7996)
(-8.81015e-21 7.09571 17.921)
(-9.29225e-21 6.49546 17.0757)
(-7.8786e-21 5.95097 16.2182)
(-5.4422e-21 5.42688 15.2791)
(-3.08435e-21 4.89693 14.1837)
(-3.08171e-22 4.34078 12.8575)
(6.03202e-21 3.69611 11.1898)
(2.08967e-20 2.8677 8.98001)
(4.82222e-20 1.86887 5.8636)
(8.51513e-20 0.599768 1.5954)
(1.02689e-19 -0.943616 -2.52077)
(-1.9625e-25 2.61301 17.0963)
(1.1278e-24 8.05207 13.6821)
(7.36963e-24 5.17547 14.5348)
(1.78572e-23 4.99293 14.1387)
(8.23079e-24 4.0784 14.095)
(-8.79012e-23 3.52459 13.9182)
(-3.69394e-22 2.96352 13.7595)
(-9.18021e-22 2.51038 13.5709)
(-1.7402e-21 2.1203 13.3644)
(-2.73563e-21 1.80105 13.1309)
(-3.69433e-21 1.54452 12.8684)
(-4.33886e-21 1.35244 12.5778)
(-4.4651e-21 1.22851 12.2645)
(-4.15082e-21 1.18679 11.9279)
(-3.80236e-21 1.24561 11.5578)
(-3.84823e-21 1.37299 11.1628)
(-4.25441e-21 1.59004 10.6921)
(-4.28676e-21 2.15784 9.83199)
(-2.91781e-21 2.26595 8.48427)
(-1.97941e-22 -0.268305 6.21352)
(1.9395e-25 -2.61305 17.0964)
(-1.17685e-24 -8.05206 13.6822)
(-7.49481e-24 -5.17548 14.5349)
(-1.78771e-23 -4.99291 14.1388)
(-7.38239e-24 -4.07838 14.0952)
(9.09578e-23 -3.52456 13.9183)
(3.75421e-22 -2.96347 13.7597)
(9.25137e-22 -2.5103 13.5711)
(1.74296e-21 -2.12019 13.3646)
(2.72752e-21 -1.80089 13.131)
(3.67317e-21 -1.5443 12.8685)
(4.31097e-21 -1.35218 12.5778)
(4.4436e-21 -1.22825 12.2645)
(4.15024e-21 -1.18656 11.9279)
(3.83889e-21 -1.24541 11.5579)
(3.94556e-21 -1.3728 11.1629)
(4.43064e-21 -1.58986 10.6923)
(4.50803e-21 -2.15754 9.83212)
(3.07599e-21 -2.26538 8.48415)
(2.05978e-22 0.268278 6.21247)
(9.30577e-25 -11.1664 28.552)
(-1.50094e-24 -17.0206 24.8589)
(-3.21073e-23 -11.9604 25.2533)
(-9.35897e-23 -12.6532 23.5005)
(-3.99823e-23 -10.9088 22.7338)
(4.72865e-22 -10.2593 21.614)
(1.82263e-21 -9.27124 20.6752)
(4.08706e-21 -8.50936 19.7093)
(6.7745e-21 -7.75604 18.7998)
(8.88599e-21 -7.09644 17.9211)
(9.39833e-21 -6.49627 17.0758)
(8.04563e-21 -5.95178 16.2182)
(5.67219e-21 -5.42762 15.2788)
(3.34055e-21 -4.8976 14.1835)
(5.09415e-22 -4.34144 12.8575)
(-6.12309e-21 -3.69672 11.1902)
(-2.18263e-20 -2.86807 8.98061)
(-5.06716e-20 -1.86857 5.86375)
(-8.93416e-20 -0.597313 1.59215)
(-1.07844e-19 0.949162 -2.52904)
(2.29627e-24 -14.1397 30.5268)
(-4.45003e-24 -17.935 27.319)
(-7.38864e-23 -13.2047 27.2076)
(-1.78528e-22 -14.146 24.8055)
(2.15557e-23 -12.0276 23.8579)
(1.12349e-21 -11.558 22.2415)
(3.40804e-21 -10.4192 21.0328)
(6.07449e-21 -9.6701 19.7294)
(7.02917e-21 -8.82874 18.5383)
(3.96299e-21 -8.06923 17.3169)
(-3.73983e-21 -7.27719 16.028)
(-1.39664e-20 -6.47212 14.5795)
(-2.3892e-20 -5.65201 12.9362)
(-3.43393e-20 -4.8154 11.0644)
(-5.17287e-20 -3.88452 8.89997)
(-8.46999e-20 -2.75506 6.31836)
(-1.3756e-19 -1.38847 3.09684)
(-2.03705e-19 0.280122 -0.868035)
(-2.30376e-19 1.63113 -3.54383)
(-2.37038e-19 -0.412224 0.565918)
(3.15278e-24 -15.5269 31.28)
(-5.26591e-24 -18.2765 28.4379)
(-9.57069e-23 -14.2501 27.9807)