/*--------------------------------*- C++ -*----------------------------------*\
| =========                 |                                                 |
| \\      /  F ield         | OpenFOAM: The Open Source CFD Toolbox           |
|  \\    /   O peration     | Version:  4.1                                   |
|   \\  /    A nd           | Web:      www.OpenFOAM.org                      |
|    \\/     M anipulation  |                                                 |
\*---------------------------------------------------------------------------*/
FoamFile
{
    version     2.0;
    format      ascii;
    class       volScalarField;
    location    "11";
    object      p;
}
// * * * * * * * * * * * * * * * * * * * * * * * * * * * * * * * * * * * * * //

dimensions      [0 2 -2 0 0 0 0];

internalField   nonuniform List<scalar> 
1280
(
0.078393
0.217862
0.243749
0.284495
0.350985
0.276441
0.352023
0.529179
0.667471
0.279463
0.201365
0.687554
-0.292729
-1.01773
-0.127822
-2.74861
-4.30784
-4.80448
-5.95694
-20.2687
-5.21898
16.7906
35.211
39.03
40.3573
46.0276
24.9298
30.5431
29.9708
29.6416
28.628
27.4228
26.8355
27.1759
28.9617
32.1774
37.9092
43.0559
50.4566
47.0386
-22.7191
24.7786
34.4567
36.8715
56.7338
57.1582
57.5578
59.259
62.4452
62.4866
62.4723
62.4847
58.9535
56.7819
56.6412
58.1602
35.867
33.0339
22.5427
-22.5894
47.3784
50.8669
43.2746
37.96
32.0106
28.6884
26.8571
26.5246
27.198
28.5226
29.5331
29.7251
30.7477
28.0293
49.493
43.6695
42.0372
37.4893
18.9784
-1.92982
-15.1635
-2.01197
-4.01289
-2.71534
-0.670955
0.514475
0.31128
1.4766
1.59256
1.67785
2.13082
1.99708
2.04778
2.09796
2.20726
2.01592
1.47606
1.43714
1.0022
0.422335
-0.825277
-0.63865
-0.996808
0.73938
1.11645
0.548977
-0.261298
0.418396
1.24003
2.83324
2.76293
0.360851
-0.405007
-1.8446
-3.17469
-4.16084
-1.92285
-0.0771398
0.605108
-2.30776
-0.956222
-0.744441
2.85077
3.7048
2.82209
1.43589
2.6228
3.91915
6.77697
6.76827
3.08347
0.144091
-5.71434
-11.5975
-13.7811
-6.08058
-0.7278
1.08509
-3.85689
-1.25169
-0.361366
3.98867
4.96256
3.77375
1.95761
3.44297
4.90883
9.04056
9.35208
5.37223
-0.24677
-11.1505
-22.4753
-24.4413
-8.8461
-0.415448
1.61033
-5.4018
-1.55607
-0.527977
4.77117
6.47708
4.50889
2.15277
3.95522
5.89382
11.9009
11.8817
7.86788
0.668955
-13.9095
-29.6223
-33.658
-12.0797
0.145351
2.65898
-6.98129
-2.03773
-1.1353
4.98138
6.85266
5.04321
2.24548
4.31341
6.87294
14.9501
14.1091
10.0993
1.97688
-13.7659
-33.6361
-37.4422
-14.5993
1.16956
3.77215
-8.63691
-5.26205
-5.169
2.23475
7.02288
5.46794
1.16496
4.17838
7.36062
17.2938
15.9853
12.0883
3.48467
-11.1875
-35.5369
-36.2993
-15.2548
3.28372
6.72696
-9.62187
-9.34509
-8.40143
-1.29162
5.10768
3.41015
0.132214
3.13275
7.23497
17.9036
16.1774
12.7705
4.24259
-7.74154
-33.1731
-33.2181
-14.4325
4.98863
6.29178
-8.92231
-11.9511
-8.75333
-2.98883
1.53309
-2.01273
-2.84958
1.12299
6.32138
16.3558
14.672
12.0814
4.04231
-3.76742
-26.2005
-31.3634
-15.1466
7.73557
13.6592
-6.60262
-13.0232
-7.96813
-4.10998
-2.27483
-7.61547
-7.10185
-1.59611
4.60277
13.4034
11.742
9.66067
3.64625
1.28219
-11.8232
-17.4336
-9.94038
8.42833
53.8107
-4.1163
-12.3189
-6.57068
-4.43796
-5.53515
-11.4048
-10.3636
-4.28577
2.30703
9.88743
7.61643
5.55632
2.5596
4.5858
-2.47714
-4.49537
-0.738197
12.8085
57.9025
-2.57005
-9.88838
-4.87914
-4.10079
-7.57806
-12.7661
-12.0317
-6.3968
-0.280373
6.05215
1.83902
0.0064464
0.805724
9.58126
6.3017
0.945906
-0.690239
11.9391
58.3312
-1.67749
-6.69938
-3.0968
-3.29856
-7.94498
-12.0185
-12.0707
-7.85552
-2.85372
2.13912
-4.7968
-3.66343
1.02901
15.6158
14.4984
10.8371
3.42524
9.39387
52.5921
-0.86395
-3.71392
-1.37639
-2.19403
-6.73636
-10.132
-10.9351
-8.69226
-5.03985
-0.815564
-8.5657
-4.4689
2.08511
13.4936
15.3939
11.8147
1.23292
-2.97143
2.34091
0.141036
-1.3193
0.0143826
-0.842107
-4.54423
-8.11993
-9.49312
-9.12792
-6.75538
-2.68087
-10.3881
-7.0312
2.06064
12.4353
14.5741
10.2216
0.0748184
-4.13338
-4.09777
0.587492
-0.204661
1.08142
0.689634
-2.23517
-6.3307
-7.8803
-8.90262
-7.60404
-3.47692
-9.04302
-9.42096
2.06925
10.4894
12.5287
9.31694
1.84269
-1.84214
-0.807696
0.673664
0.504879
1.79235
2.07197
-0.394541
-4.30983
-5.71243
-7.38416
-6.9763
-3.64967
-4.12617
-10.1864
2.15943
8.47958
10.2388
7.6386
2.00192
-0.832394
-0.0995085
0.605099
1.03395
1.83841
2.8491
0.428818
-2.41775
-3.33588
-4.76139
-5.13452
-4.26506
-0.234296
-9.01166
1.94717
6.49324
7.92063
5.76543
1.69563
-0.156349
0.40748
0.458597
1.39183
1.5287
3.25752
0.976948
-0.813409
-1.31255
-2.43962
-3.95778
-5.56631
-1.77295
-6.1465
1.43453
4.78989
5.73745
3.91807
1.18054
0.00938884
0.370339
0.211406
1.67755
1.39432
2.29901
0.527408
-0.394906
-0.447222
-1.08075
-2.20081
-2.30716
-5.74176
-4.92711
0.367036
3.17404
3.8895
2.44268
0.677034
0.0695881
0.262097
-0.0650664
0.969748
0.789896
1.29031
1.01403
0.559218
0.400222
-0.272377
-2.22
-1.43075
-7.10623
-5.10535
-1.40376
0.669402
1.5373
0.929612
0.228968
0.0369929
0.0895264
128.781
127.565
124.98
122.731
119.645
116.524
113.336
110.121
106.824
103.897
101.285
99.0643
97.2309
95.7096
94.4732
93.5031
92.9614
92.4076
92.6113
91.3237
87.8629
89.3002
88.7363
89.3708
89.6487
90.1553
90.6055
91.1181
91.7104
92.3354
92.9482
93.4029
93.543
93.2763
92.7475
92.1601
92.0969
92.285
93.0926
93.0932
83.4139
85.1303
85.7107
86.7004
87.2998
87.861
88.3948
88.8129
89.2307
89.6529
90.1765
90.8748
91.8144
92.9619
94.3145
95.7575
97.2308
98.6179
99.6699
100.649
54.463
57.0523
58.722
60.4757
62.018
63.3455
64.7431
65.9752
67.2053
68.3657
69.4929
70.6021
71.719
72.8928
74.1475
75.5599
77.0185
78.6862
79.9268
81.6196
39.9178
42.4166
44.7202
46.6087
48.4837
49.9463
51.5558
52.9571
54.3554
55.6735
56.9365
58.1566
59.3278
60.4783
61.5833
62.7217
63.7793
65.0095
65.887
67.2261
15.7682
18.4493
20.8909
22.6096
24.8666
26.5177
28.5494
30.3342
32.1937
33.9981
35.7848
37.5686
39.3466
41.158
42.9712
44.8579
46.6503
48.5891
50.0326
52.1996
-13.0639
-12.8375
-11.5671
-11.6348
-10.287
-9.97007
-8.85646
-8.19493
-7.2459
-6.35897
-5.35902
-4.29671
-3.14179
-1.84201
-0.382426
1.42462
3.50439
7.03384
9.86735
13.828
-21.6177
-26.5233
-27.0319
-30.034
-31.1784
-33.7567
-35.2373
-37.2789
-38.5641
-39.6383
-40.0471
-40.019
-39.5086
-38.639
-37.482
-36.0903
-34.628
-33.0126
-31.5086
-27.6881
23.8879
17.1229
15.0769
9.98161
6.8517
1.96948
-2.05577
-6.97719
-11.3942
-15.9222
-19.8475
-23.3485
-26.111
-28.2015
-29.3909
-29.8471
-29.795
-28.5756
-28.8136
-28.7133
84.1321
80.9511
80.3639
77.6677
76.8758
74.5627
73.3968
71.4029
69.9082
68.0304
66.2104
64.0893
61.752
59.0732
56.2388
53.4598
51.3803
51.1845
50.9104
46.3954
91.5012
92.1855
93.1025
92.6108
93.8505
93.2611
93.8305
93.1302
92.6345
91.3953
89.9494
88.1378
86.179
84.1397
82.2134
80.5947
79.4484
78.7104
78.7485
77.2226
72.6476
74.5396
76.7488
77.0364
79.7792
80.4222
82.6292
83.853
85.4956
86.706
87.6725
88.1479
88.0917
87.4968
86.6133
85.8806
85.984
86.8707
87.8819
88.3628
50.3283
51.8449
54.6332
54.3714
57.5145
57.8314
60.0914
61.2761
62.9615
64.4941
66.0641
67.6491
69.2158
70.7613
72.2534
73.7369
75.1698
76.7925
78.0856
79.6975
19.6906
20.3889
23.8889
23.099
26.8081
26.8091
29.4554
30.609
32.5692
34.2807
36.1341
38.0377
40.0009
42.0612
44.1839
46.4378
48.6592
51.1175
53.0841
56.0891
-7.24702
-9.05193
-6.10265
-8.55269
-5.74357
-7.39497
-5.86448
-6.31384
-5.68893
-5.54748
-5.18797
-4.82829
-4.31634
-3.4887
-2.24482
-0.39668
1.68988
4.54151
6.74268
10.3943
-2.22911
-6.81412
-5.47525
-10.1171
-9.25296
-12.6428
-13.1242
-15.2917
-16.4717
-18.0707
-19.3778
-20.6508
-21.6628
-22.3204
-22.6186
-22.6564
-22.5872
-22.0736
-21.6521
-19.614
45.781
39.6011
41.034
33.2346
32.3676
26.6606
23.6008
19.1813
15.5156
11.6544
8.11245
4.77571
1.88774
-0.42675
-2.18378
-3.75082
-5.20015
-6.38829
-8.25238
-8.38497
60.0718
52.9101
61.2618
54.2944
56.5532
53.2854
52.2363
49.815
47.7014
45.2508
42.8085
40.3627
38.1172
36.2674
34.834
33.617
32.7452
32.1252
30.9478
29.2114
64.9453
42.9203
51.2994
40.6063
38.2143
31.9181
27.3162
22.3656
18.1002
14.2899
11.191
8.88462
7.5322
7.28063
8.28011
10.3756
13.3253
17.5272
21.7781
23.2993
748.707
666.241
617.354
561.395
512.674
465.692
422.032
380.807
342.003
305.32
270.574
237.559
206.07
176.045
147.539
119.787
92.8477
70.5821
45.6486
9.67428
756.494
674.027
625.14
569.181
520.46
473.477
429.818
388.592
349.789
313.106
278.361
245.346
213.857
183.833
155.326
127.575
100.636
78.37
53.4363
17.4635
72.7232
50.6986
59.0779
48.3852
45.9935
39.6977
35.0962
30.1462
25.8811
22.0713
18.9727
16.6665
15.3141
15.0621
16.0607
18.1551
21.1038
25.3051
29.5558
31.0759
67.8581
60.6981
69.051
62.0851
64.3452
61.0788
60.0312
57.6112
55.4991
53.0499
50.609
48.1649
45.9211
44.0728
42.6404
41.4244
40.5538
39.9346
38.7591
37.0247
53.5982
47.4198
48.8542
41.0562
40.191
34.4858
31.4278
27.0104
23.3468
19.4881
15.9489
12.6152
9.73039
7.41867
5.66322
4.09647
2.64577
1.45437
-0.411821
-0.547302
5.58121
0.993523
2.33116
-2.31208
-1.45022
-4.84152
-5.32486
-7.49439
-8.67682
-10.2788
-11.5892
-12.866
-13.8824
-14.5452
-14.8493
-14.894
-14.8304
-14.3209
-13.9025
-11.8699
0.49504
-1.31501
1.63099
-0.822272
1.98253
0.326959
1.85321
1.39881
2.01907
2.15525
2.50973
2.8644
3.37201
4.19649
5.43874
7.28646
9.37224
12.2212
14.4188
18.0679
27.4058
28.1005
31.599
30.807
34.5145
34.5134
37.1582
38.3099
40.2687
41.9787
43.8309
45.7333
47.6957
49.7553
51.8774
54.1309
56.3518
58.8101
60.7763
63.7821
58.0177
59.5338
62.3225
62.0605
65.2035
65.5202
67.7801
68.9647
70.6501
72.1828
73.7528
75.3377
76.904
78.4489
79.9403
81.4234
82.8565
84.48
85.7738
87.3859
80.3758
82.2644
84.4714
84.7557
87.4956
88.1353
90.338
91.5575
93.1946
94.3995
95.3604
95.8312
95.7716
95.1766
94.2982
93.5761
93.6906
94.5833
95.593
96.0727
99.1136
99.7979
100.711
100.218
101.454
100.864
101.431
100.732
100.238
99.004
97.5647
95.7626
93.8163
91.7927
89.8825
88.2781
87.1431
86.4077
86.4433
84.922
91.9073
88.7366
88.1511
85.462
84.6762
82.3699
81.2106
79.2227
77.7322
75.8561
74.0336
71.9056
69.5569
66.8599
64.0008
61.1978
59.0988
58.8942
58.6252
54.1094
31.6375
24.8684
22.8179
17.7177
14.5816
9.69318
5.66086
0.732613
-3.69146
-8.22627
-12.1593
-15.667
-18.4352
-20.5405
-21.7463
-22.2183
-22.2007
-20.94
-21.1649
-21.0743
-13.9647
-18.8807
-19.3885
-22.3912
-23.5348
-26.1098
-27.5861
-29.6209
-30.8979
-31.9621
-32.361
-32.3237
-31.804
-30.9291
-29.7695
-28.3779
-26.9173
-25.3173
-23.831
-20.0217
-5.63218
-5.41675
-4.15312
-4.23218
-2.89524
-2.59174
-1.49333
-0.849923
0.0785817
0.94223
1.91652
2.95043
4.07501
5.34223
6.76829
8.54171
10.5904
14.1571
17.0053
20.9732
23.1006
25.7826
28.2198
29.9331
32.1857
33.8318
35.8584
37.6381
39.4926
41.2925
43.0755
44.8566
46.6334
48.4449
50.2602
52.1503
53.9474
55.892
57.3397
59.5124
47.2934
49.7882
52.0878
53.9715
55.8434
57.3031
58.91
60.3089
61.7051
63.0212
64.2825
65.5008
66.67
67.8184
68.9211
70.0565
71.1102
72.3356
73.2082
74.5411
61.6572
64.2493
65.9158
67.6655
69.2049
70.5287
71.923
73.1522
74.3796
75.5381
76.6643
77.7732
78.8908
80.0649
81.3177
82.7259
84.1774
85.8376
87.0715
88.7618
90.8807
92.5689
93.1225
94.0935
94.6789
95.2278
95.7529
96.1664
96.5832
97.0083
97.5342
98.2312
99.1647
100.298
101.631
103.05
104.501
105.871
106.906
107.877
94.6163
96.0685
95.4706
96.0927
96.3706
96.8913
97.3604
97.8918
98.5007
99.1367
99.7589
100.227
100.378
100.129
99.6291
99.065
99.0164
99.2135
99.9989
100.001
136.95
135.804
133.25
131.093
128.088
125.045
121.936
118.719
115.319
112.292
109.561
107.2
105.233
103.585
102.226
101.147
100.503
99.8311
99.9036
98.5135
)
;

boundaryField
{
    outletWall
    {
        type            fixedValue;
        value           uniform 0;
    }
    fineWalls
    {
        type            zeroGradient;
    }
    fineFrontAndBack
    {
        type            zeroGradient;
    }
    fineplugLeft
    {
        type            cyclicAMI;
        value           nonuniform List<scalar> 
20
(
82.4667
84.1803
82.5373
81.951
81.238
81.3709
82.0029
83.1518
84.736
86.7535
89.0461
91.4537
94.2057
103.283
102.424
103.788
105.991
107.026
105.41
101.981
)
;
    }
    fineplugRight
    {
        type            cyclicAMI;
        value           nonuniform List<scalar> 
20
(
88.2865
90.0962
88.5198
87.9945
87.3193
87.5186
88.2394
89.4917
91.1995
93.353
95.7405
98.1999
101.125
111.259
109.934
111.204
113.281
114.098
112.439
109.174
)
;
    }
    inletOutletLeft
    {
        type            cyclicAMI;
        value           nonuniform List<scalar> 
20
(
82.4667
84.1803
82.5373
81.951
81.238
81.3709
82.0029
83.1518
84.736
86.7535
89.0461
91.4537
94.2057
103.283
102.424
103.788
105.991
107.026
105.41
101.981
)
;
    }
    inletLeft
    {
        type            zeroGradient;
    }
    inletWallsLeft
    {
        type            zeroGradient;
    }
    inletFacesLeft
    {
        type            zeroGradient;
    }
    inletOutletRight
    {
        type            cyclicAMI;
        value           nonuniform List<scalar> 
20
(
88.2865
90.0962
88.5198
87.9945
87.3193
87.5186
88.2394
89.4917
91.1995
93.353
95.7405
98.1999
101.125
111.259
109.934
111.204
113.281
114.098
112.439
109.174
)
;
    }
    inletRight
    {
        type            zeroGradient;
    }
    inletWallsRight
    {
        type            zeroGradient;
    }
    inletFacesRight
    {
        type            zeroGradient;
    }
}


// ************************************************************************* //
