/*--------------------------------*- C++ -*----------------------------------*\
| =========                 |                                                 |
| \\      /  F ield         | OpenFOAM: The Open Source CFD Toolbox           |
|  \\    /   O peration     | Version:  4.1                                   |
|   \\  /    A nd           | Web:      www.OpenFOAM.org                      |
|    \\/     M anipulation  |                                                 |
\*---------------------------------------------------------------------------*/
FoamFile
{
    version     2.0;
    format      ascii;
    class       surfaceScalarField;
    location    "11";
    object      phi;
}
// * * * * * * * * * * * * * * * * * * * * * * * * * * * * * * * * * * * * * //

dimensions      [0 3 -1 0 0 0 0];

internalField   nonuniform List<scalar> 
2360
(
-1230.7
-156.964
-1073.74
-156.96
-156.963
1206.22
-1363.18
1206.22
1206.22
1206.22
2924.96
-1718.74
2924.95
2924.96
5253.61
-2328.66
5253.61
5253.61
8519.44
-3265.83
8519.44
8519.44
13642.8
-5123.37
13642.8
13642.8
14651.5
16355.7
18002.3
19463.1
20768.1
21968.1
18643.6
4445.67
19671.5
20596
21406.2
22092.9
22663.3
23154.1
23625
24155
24826.3
25687.1
26730
27831.3
28697.2
17921.1
10776.1
17921.1
17921.1
17921.1
6655.81
11265.3
6655.81
6655.81
6655.81
-202.508
6858.31
-202.515
-202.519
-7841.26
7638.74
-7841.26
-7841.26
-7841.26
-19369.1
11527.9
-19369.1
-19369.1
-19369.1
-29138.3
9769.18
-28272.4
-27170.8
-26125.6
-25261.6
-24587.5
-24055
-23581.2
-23087.2
-22512.3
-21819.9
-21006.4
-20082.2
-19058.1
-20974.1
3034.45
-19775.1
-18470.3
-17007.9
-15360.8
-13664
-12672.7
-12672.7
-12672.7
-8301.33
-4371.4
-8301.33
-8301.33
-5184.42
-3116.91
-5184.42
-5184.42
-2803.15
-2381.27
-2803.15
-2803.15
-834.131
-1969.02
-834.133
-834.132
-834.134
1090.85
-1924.99
1090.85
1090.85
3277.81
-2186.95
-5533.25
-1693.54
-4829.57
2041.94
-4210.29
4953.75
-3554.98
4840.83
-2820.73
4825.05
-2127.6
5951.5
-1563.69
8721.4
-1064.03
10454.2
-627.126
10771.6
-24.784
8250.33
1151.27
-3452.48
2251.21
-9627.42
3367.87
-10953.3
4414.98
-8700.59
4621.54
295.026
3925.14
7784.14
3148.84
9206.8
2630.09
6856.42
3936.54
-6888.64
-1978.45
-5543.8
697.105
-4429.86
3839.81
-3561.68
3972.64
-2647.16
3910.53
-1957.51
5261.86
-1575.56
8339.45
-1194.6
10073.3
-853.31
10430.3
3.75629
7393.26
1288.04
-4736.77
2341.7
-10681.1
3620.64
-12232.3
5182.32
-10262.3
5693.61
-216.268
4475.95
9001.81
3131.91
10550.8
2361.18
7627.15
4372.73
-9000.84
-1802.29
-7443.12
-860.608
-5279.45
1676.14
-3680.08
2373.27
-2477.68
2708.13
-1772.75
4556.93
-1568.13
8134.82
-1389.39
9894.54
-1234.22
10275.1
-446.069
6605.11
593.391
-5776.23
1201.44
-11289.1
2032.35
-13063.2
3535.19
-11765.1
4962.5
-1643.58
4737.5
9226.82
3409.02
11879.3
2326.71
8709.46
4730.42
-12082.4
-825.178
-11331.3
-1611.7
-8238.18
-1417
-4477.08
-1387.83
-1954.06
185.101
-1458.18
4061.05
-1588.22
8264.86
-1619.05
9925.37
-1710.45
10366.5
-1172.35
6067.01
-840.465
-6108.11
-1176.03
-10953.6
-1187.31
-13051.9
-15.67
-12936.7
2438.01
-4097.26
3864.91
7799.91
3445.25
12299
2571.48
9583.23
4920.63
-15072.2
945.422
-15840.9
-842.933
-13623.1
-3634.83
-8825.55
-6185.37
-3122.5
-5517.95
-821.919
1760.48
-1502.38
8945.33
-1914.43
10337.4
-2241.85
10693.9
-2211.3
6036.46
-2989.21
-5330.2
-4261.67
-9681.1
-4820.3
-12493.3
-3777.11
-13979.9
-532.156
-7342.21
1914.89
5352.86
2734.12
11479.8
2746.59
9570.76
4550.31
-15727.8
2612.93
-16139.7
-431.03
-13792.2
-5982.36
-9782.83
-10194.7
-4613.15
-10687.6
-1076.38
-1776.29
-1201.19
9070.14
-2208.84
11345.1
-2848.66
11333.8
-3648.9
6836.7
-5627.56
-3351.54
-7499.31
-7809.35
-8325.11
-11667.5
-7477.87
-14827.2
-3998.31
-10821.8
-788.524
2143.07
886.419
9804.81
2342.3
8114.88
2521.22
-13455.9
3147.47
-11844.4
-2042.54
-8447.71
-9379.05
-5345.95
-13296.5
-2668.77
-13364.8
-894.21
-3550.85
-1048.57
9224.51
-2338.34
12634.8
-3488.58
12484
-5159.18
8507.3
-8051.9
-458.808
-10107.4
-5753.86
-11188.3
-10586.5
-11227.5
-14788
-8667.32
-13382
-4034.83
-2489.41
-839.641
6609.62
1068.25
6206.99
6623.92
-9831.56
2284.9
-6797.91
-5076.19
-3640.37
-12536.6
-1738.38
-15198.5
-714.077
-14389.1
-785.442
-3479.49
-1247.25
9686.31
-2383.08
13770.7
-3981.16
14082.1
-6239.3
10765.4
-9544.09
2845.98
-11546.9
-3751.02
-12765.8
-9367.67
-13901.7
-13652.2
-13559.6
-13724
-9397.71
-6651.3
-5484.64
2696.54
-5896.42
6618.77
10496.7
-6166.92
459.428
-3087.02
-8156.09
-1145.83
-14477.8
-370.456
-15973.9
-581.851
-14177.7
-1533.46
-2527.88
-1829.84
9982.7
-2589.35
14530.2
-4263.44
15756.2
-6801.92
13303.9
-10196.4
6240.46
-12216.9
-1730.53
-13345.2
-8239.32
-14785.7
-12211.7
-16698.6
-11811.1
-17232.9
-6117.03
-15839.3
1302.96
-14430.4
5209.92
7594.13
-2912.19
-1644.23
-666.826
-10401.5
28.5728
-15173.2
-28.1482
-15917.1
-1358.78
-12847.1
-2827.77
-1058.88
-2812.65
9967.57
-3092.85
14810.4
-4481.07
17144.4
-7041.14
15864
-10544.3
9743.61
-12624.6
349.734
-13328
-7535.86
-14180.1
-11359.6
-15411.5
-10579.7
-16178
-5350.53
-15852.5
977.471
-13488.6
2846
1744.31
-192.697
-3127.44
696.331
-11290.5
416.098
-14892.9
-553.646
-14947.4
-2885.92
-10514.8
-4453.34
508.538
-4084.68
9598.91
-3914.47
14640.2
-4830.35
18060.3
-7095.86
18129.5
-10233.8
12881.5
-11161.6
1277.57
-10806.4
-7891.07
-12533.5
-9632.54
-15094.4
-8018.86
-15323
-5121.95
-14162.6
-182.845
-12206.2
889.514
-3603.53
1401.36
-3623.65
1193.1
-11082.2
186.864
-13886.7
-1881.75
-12878.8
-4849.99
-7546.58
-6077.78
1736.32
-5425.1
8946.23
-4916.1
14131.2
-5310.03
18454.2
-6950.27
19769.7
-8841.65
14772.9
-7265.76
-298.321
-5051.67
-10105.2
-7055.5
-7628.71
-12578
-2496.38
-16505.8
-1194.14
-17245.5
556.88
-15649.2
-706.785
-7987.45
1450.27
-3855.7
905.74
-10537.7
-763.34
-12217.6
-3732.61
-9909.51
-6763.09
-4516.1
-7471.24
2444.48
-6637.66
8112.64
-5887.87
13381.4
-5854.27
18420.6
-6885.3
20800.8
-7659.76
15547.4
-5183.49
-2774.59
-2732.03
-12556.6
-1621.35
-8739.39
-3540.81
-576.929
-7599.02
2864.06
-9125.11
2082.97
-9402.34
-429.556
-6613.64
571.578
-4117.96
-130.118
-9836
-2281.29
-10066.5
-5592.35
-6598.45
-8301.24
-1807.21
-8719.96
2863.2
-7914.78
7307.46
-7101.98
12568.6
-6875.57
18194.2
-7353.22
21278.4
-6641.71
14835.9
-3660.18
-5756.12
-2187.48
-14029.3
-1334.08
-9592.78
880.511
-2791.52
1285.22
2459.36
1855.6
1512.6
1824.92
-398.883
-343.036
-521.062
-4296.54
-1388.12
-8968.93
-3732.7
-7721.88
-6930.32
-3400.83
-9299.58
562.053
-9950.9
3514.51
-9671.23
7027.8
-9200.56
12097.9
-8982.94
17976.6
-8547.1
20842.6
-5512.74
11801.5
-2162.63
-9106.23
-1300.15
-14891.8
-566.184
-10326.8
1661.92
-5019.63
3660.74
460.543
4296.96
876.374
4856.23
-958.149
-610.182
-1122.48
-4193.08
-2160.44
-7930.97
-4538.82
-5343.49
-7394.81
-544.845
-9511.31
2678.55
-10761
4764.19
-11431.5
7698.27
-11671.6
12338
-11416.3
17721.3
-9462.42
18888.7
-3972.18
6311.27
-958.955
-12119.5
-844.46
-15006.3
61.3491
-11232.6
1463.89
-6422.17
3207.15
-1282.72
3736.34
347.189
3523.5
-745.308
-352.51
-1480.07
-4084.06
-2347.4
-7063.65
-4687.92
-3002.97
-7150.54
1917.78
-9041.02
4569.03
-10716.8
6439.94
-12164.2
9145.67
-13011.3
13185.2
-12462.5
17172.5
-8806.18
15232.4
-2445.83
-49.076
-365.077
-14200.2
-376.74
-14994.6
512.174
-12121.5
1444.45
-7354.44
2654.94
-2493.21
3052.86
-50.7358
2787.47
-479.915
106.303
-1641.21
-4068.87
-2209.49
-6495.37
-4387.41
-825.046
-6484.98
4015.35
-8114.08
6198.14
-9800.74
8126.59
-11509.1
10854.1
-12545.4
14221.4
-11468.6
16095.7
-6329.5
10093.3
-1049.09
-5329.48
-281.943
-14967.4
75.145
-15351.7
780.312
-12826.6
1394.75
-7968.88
2181.28
-3279.74
2441.91
-311.372
2187.48
-225.482
575.043
-1604.34
-4068.05
-1878.93
-6220.78
-3777.67
1073.69
-5796.49
6034.17
-7291.63
7693.28
-8699.27
9534.23
-10236
12390.8
-11086.7
15072.2
-9410.91
14419.9
-4046.7
4729.09
-580.122
-8796.06
-216.503
-15331
388.884
-15957.1
907.587
-13345.3
1288.77
-8350.05
1744.48
-3735.46
1851.76
-418.642
1701.69
-75.4148
913.552
-1453.78
-1463.03
-2632.93
-4339.02
-5808.12
-6859.84
-7778.71
-8109.96
-6460.37
-2924.29
-841.469
-45.5078
562.01
964.838
1164.87
1345.23
1362.67
1305.25
107.292
-1115.94
345.963
-1942.94
512.459
-1813.01
621.807
-1570.18
695.2
-1378.38
736.491
-1241.25
734.891
-1119.58
711.374
-1004.41
674.396
-887.538
630.578
-766.371
585.171
-641.182
533.805
-519.03
463.256
-420.258
371.45
-379.072
267.902
-426.486
169.142
-572.45
90.8007
-782.498
42.12
-994.221
16.0436
-1075.17
-849.925
-92.1952
-1023.74
-98.1308
-1937
-68.8167
-1842.32
-42.5204
-1596.47
-24.6038
-1396.29
-12.0693
-1253.77
16.086
-1147.73
65.034
-1053.35
141.268
-963.762
248.128
-873.218
386.895
-779.939
549.711
-681.836
712.316
-582.856
839.706
-506.456
892.553
-479.329
840.786
-520.68
683.441
-625.151
447.084
-757.864
197.405
-825.488
-652.521
-157.759
-865.969
-134.803
-1959.95
-8.18964
-1968.92
106.692
-1711.34
207.198
-1496.78
300.42
-1346.98
392.059
-1239.36
485.753
-1147.04
582.439
-1060.44
683.956
-974.726
792.251
-888.229
909.906
-799.485
1034.23
-707.173
1142.27
-614.496
1195.48
-532.539
1152.91
-478.106
992.782
-465.019
717.885
-482.966
378.13
-485.733
-274.391
-62.961
-803.005
-50.3596
-1972.55
23.0566
-2042.34
86.2637
-1774.54
146.134
-1556.65
208.547
-1409.39
272.309
-1303.12
332.255
-1206.98
386.233
-1114.42
434.478
-1022.97
479.184
-932.934
524.006
-844.304
573.306
-756.473
626.73
-667.918
672.995
-578.805
686.093
-491.204
634.281
-413.206
490.768
-339.454
261.096
-256.062
-13.2945
89.4635
-892.462
127.7
-2010.78
168.089
-2082.72
211.381
-1817.83
265.45
-1610.72
325.632
-1469.57
387.465
-1364.94
445.986
-1265.49
497.645
-1166.07
539.006
-1064.32
567.3
-961.225
580.978
-857.976
580.388
-755.882
567.565
-655.09
544.248
-555.487
506.657
-453.61
442.799
-349.349
333.795
-230.451
165.39
-87.6581
152.095
305.564
-1198.02
418.045
-2123.26
427.27
-2091.95
447.372
-1837.93
504.383
-1667.73
577.298
-1542.48
655.821
-1443.47
730.867
-1340.54
797.565
-1232.77
850.135
-1116.89
884.409
-995.5
896.781
-870.347
884.393
-743.494
844.975
-615.673
777.238
-487.751
680.323
-356.697
553.337
-222.363
394.492
-71.6068
198.568
108.265
350.663
444.202
-1642.22
544.13
-2223.18
504.051
-2051.87
511.544
-1845.42
579.943
-1736.13
671.57
-1634.1
775.054
-1546.95
874.689
-1440.17
962.392
-1320.47
1028.89
-1183.39
1071.8
-1038.41
1089.28
-887.824
1079.42
-733.637
1037.78
-574.032
956.947
-406.917
825.364
-225.115
542.595
60.4049
334.17
136.817
165.602
276.832
516.264
326.457
-1968.68
261.814
-2158.54
172.098
-1962.15
153.962
-1827.28
177.493
-1759.66
216.444
-1673.06
264.157
-1594.66
303.939
-1479.95
325.208
-1341.74
320.044
-1178.22
291.13
-1009.49
240.032
-836.727
167.035
-660.642
69.7805
-476.78
-49.0291
-288.111
-150.387
-123.775
-36.0373
-53.9593
-79.2559
180.031
-132.93
330.504
383.334
1.43192
-1970.11
-165.632
-1991.47
-288.499
-1839.28
-390.163
-1725.62
-487.648
-1662.17
-583.043
-1577.66
-677.546
-1500.16
-775.499
-1381.99
-881.518
-1235.72
-995.95
-1063.79
-1115.74
-889.702
-1237.07
-715.399
-1354.29
-543.416
-1455.08
-375.993
-1521.08
-222.103
-1530.83
-114.029
-1500.92
-83.8653
-1212.46
-108.437
-683.115
-198.837
-299.781
-186.8
-1783.31
-292.347
-1885.93
-413.028
-1718.6
-571.787
-1566.86
-743.087
-1490.87
-933.888
-1386.86
-1133.09
-1300.96
-1331.42
-1183.67
-1518.21
-1048.93
-1690.27
-891.733
-1848.53
-731.452
-1988.73
-575.193
-2096.75
-435.402
-2141.53
-331.215
-2076.23
-287.405
-1870.04
-320.217
-1516.51
-437.398
-1001.37
-623.576
-410.596
-789.611
-710.377
-85.2618
-1698.05
-76.7512
-1894.44
-93.6449
-1701.71
-148.225
-1512.28
-211.346
-1427.75
-295.245
-1302.96
-387.328
-1208.87
-474.188
-1096.81
-534.971
-988.143
-556.691
-870.014
-536.964
-751.18
-477.058
-635.1
-381.423
-531.038
-258.428
-454.211
-117.292
-428.541
33.8704
-471.38
164.979
-568.508
219.254
-677.851
146.651
-717.008
-563.726
34.4701
-1732.53
86.3445
-1946.32
139.406
-1754.78
182.899
-1555.78
226.419
-1471.28
267.004
-1343.55
305.292
-1247.17
347.551
-1139.08
401.366
-1041.96
478.427
-947.082
583.432
-856.189
716.223
-767.896
867.048
-681.866
1012.26
-599.428
1108.84
-525.118
1105.27
-467.812
970.705
-433.947
708.058
-415.206
364.705
-373.658
-199.021
97.5692
-1830.1
133.717
-1982.47
184.747
-1805.81
243.406
-1614.44
308.39
-1536.26
373.104
-1408.27
441.162
-1315.23
510.478
-1208.4
579.715
-1111.2
646.746
-1014.11
710.009
-919.454
767.763
-825.651
817.731
-731.837
855.458
-637.156
871.553
-541.215
845.971
-442.231
753.921
-341.9
572.349
-233.637
309.3
-110.613
110.278
134.452
-1964.55
139.265
-1987.28
188.334
-1854.88
246.602
-1672.71
315.161
-1604.82
380.041
-1473.15
451.44
-1386.63
524.22
-1281.18
602.272
-1189.26
681.842
-1093.69
759.631
-997.246
827.51
-893.533
874.659
-778.988
888.589
-651.088
860.74
-513.369
787.416
-368.91
666.13
-220.616
488.184
-55.6943
254.921
122.645
365.199
111.012
-2075.56
86.5055
-1962.78
123.442
-1891.82
168.746
-1718.01
224.037
-1660.12
281.989
-1531.1
349.652
-1454.29
424.052
-1355.58
508.989
-1274.2
601.316
-1186.01
696.598
-1092.53
780.651
-977.586
831.638
-829.977
826.488
-645.94
759.831
-446.715
646.988
-256.07
465.646
-39.2777
291.886
118.061
146.669
267.858
511.868
17.4235
-2092.99
-32.3495
-1913.01
-44.1454
-1880.02
-48.3954
-1713.77
-50.6627
-1657.85
-43.183
-1538.59
-31.7843
-1465.69
-11.4353
-1375.93
15.4517
-1301.08
47.7538
-1218.32
78.3808
-1123.16
93.1469
-992.356
73.531
-810.366
14.247
-586.661
-52.6068
-379.871
-76.3273
-232.373
-7.2735
-108.358
-20.6631
131.436
-76.8735
324.061
434.995
-72.1489
-2020.84
-158.986
-1826.17
-228.156
-1810.86
-286.813
-1655.11
-347.184
-1597.48
-394.054
-1491.72
-441.698
-1418.05
-481.628
-1336
-519.694
-1263.02
-553.478
-1184.54
-584.112
-1092.53
-608.213
-968.256
-617.321
-801.26
-598.427
-605.558
-552.966
-425.335
-509.017
-276.326
-516.971
-100.408
-499.532
113.993
-414.469
238.994
20.5263
-180.415
-1840.43
-384.388
-1622.2
-549.938
-1645.31
-684.802
-1520.25
-809.984
-1472.3
-910.981
-1390.72
-1002.04
-1326.99
-1078.89
-1259.15
-1145.84
-1196.07
-1198.69
-1131.69
-1228.57
-1062.65
-1215.41
-981.414
-1133.76
-882.913
-971.841
-767.478
-758.818
-638.36
-541.99
-493.154
-321.939
-320.46
-94.4072
-113.541
64.721
79.8606
85.2473
-194.249
-1646.18
-433.58
-1382.87
-686.571
-1392.32
-901.183
-1305.64
-1108.15
-1265.33
-1285.58
-1213.3
-1442.92
-1169.65
-1576.17
-1125.9
-1687.58
-1084.67
-1774.76
-1044.51
-1832.2
-1005.22
-1848.34
-965.274
-1809.16
-922.095
-1704.64
-872.003
-1531.31
-811.687
-1285.35
-739.116
-957.379
-648.43
-553.361
-517.56
-152.915
-320.587
-67.668
-671.181
-1079.05
-1496.37
-1827.01
-2117.34
-2355.64
-2550.28
-2701.19
-2810.85
-2880.36
-2910.58
-2900.85
-2847.95
-2744.95
-2581.64
-2345.75
-2019.18
-1561.75
-907.332
-671.193
1646.19
-1079.07
1382.88
-1496.4
1392.33
-1827.04
1305.64
-2117.38
1265.34
-2355.68
1213.3
-2550.33
1169.65
-2701.23
1125.9
-2810.9
1084.66
-2880.4
1044.5
-2910.61
1005.21
-2900.88
965.27
-2847.97
922.091
-2744.97
872
-2581.66
811.693
-2345.8
739.135
-2019.26
648.458
-1561.84
517.583
-907.427
320.588
67.5733
-194.226
1840.42
-433.521
1622.18
-686.478
1645.28
-901.046
1520.21
-1107.97
1472.26
-1285.34
1390.68
-1442.63
1326.94
-1575.82
1259.09
-1687.16
1196.01
-1774.27
1131.61
-1831.64
1062.58
-1847.72
981.351
-1808.52
882.895
-1704.06
767.535
-1530.85
638.49
-1285.03
493.317
-957.171
320.595
-553.122
113.534
-152.554
-79.9807
-84.9803
-180.359
2020.78
-384.293
1826.11
-549.798
1810.79
-684.623
1655.04
-809.765
1597.4
-910.725
1491.64
-1001.75
1417.97
-1078.57
1335.91
-1145.49
1262.92
-1198.3
1184.42
-1228.11
1092.39
-1214.85
968.09
-1133.08
801.119
-971.097
605.557
-758.136
425.529
-541.328
276.509
-321.111
100.379
-93.5217
-114.055
65.5184
-239.02
-19.4619
-72.1914
2092.97
-159.04
1912.96
-228.241
1879.99
-286.945
1713.74
-347.369
1657.83
-394.302
1538.57
-442.025
1465.69
-482.05
1375.94
-520.228
1301.1
-554.134
1218.33
-584.882
1123.14
-609.047
992.254
-618.104
810.176
-599.029
586.482
-553.36
379.86
-509.252
232.401
-517.034
108.161
-500.061
-131.027
-415.083
-323.997
-434.545
17.288
2075.68
-32.555
1962.8
-44.455
1891.89
-48.8187
1718.11
-51.2101
1660.22
-43.8577
1531.22
-32.5945
1454.43
-12.3803
1355.73
14.3619
1274.36
46.5099
1186.18
76.9673
1092.68
91.5552
977.667
71.7991
829.933
12.5313
645.751
-54.0431
446.436
-77.4951
255.857
-8.59016
39.2598
-21.4434
-118.172
-77.4102
-268.029
-511.956
110.976
1964.71
86.4077
1987.37
123.303
1855
168.571
1672.84
223.828
1604.96
281.755
1473.29
349.4
1386.78
423.787
1281.34
508.72
1189.43
601.043
1093.86
696.31
997.413
780.305
893.671
831.174
779.065
825.848
651.077
759.016
513.268
646.136
368.738
465.006
220.39
291.459
55.3763
146.42
-122.99
-365.536
134.526
1830.18
139.285
1982.61
188.347
1805.93
246.619
1614.57
315.194
1536.39
380.09
1408.4
451.513
1315.36
524.321
1208.53
602.411
1111.34
682.028
1014.24
759.873
919.568
827.803
825.742
874.972
731.895
888.878
637.171
860.965
541.182
787.563
442.14
666.209
341.744
488.201
233.384
254.938
110.274
-110.598
97.7192
1732.46
133.838
1946.5
184.864
1754.91
243.536
1555.89
308.548
1471.37
373.267
1343.68
441.335
1247.29
510.644
1139.22
579.869
1042.11
646.869
947.243
710.074
856.363
767.734
768.081
817.562
682.067
855.111
599.622
871.085
525.207
845.463
467.761
753.443
433.765
571.967
414.86
309.078
373.163
198.481
34.574
1697.89
86.418
1894.65
139.484
1701.84
183.043
1512.34
226.649
1427.77
267.36
1302.97
305.804
1208.85
348.235
1096.79
402.204
988.142
479.375
870.072
584.441
751.298
717.249
635.273
868.004
531.312
1012.98
454.641
1109.18
429.01
1105.27
471.678
970.624
568.407
708.048
677.435
364.74
716.471
563.221
-84.8483
1782.74
-76.0469
1885.85
-92.5658
1718.36
-146.735
1566.51
-209.449
1490.48
-292.909
1386.43
-384.533
1300.47
-470.9
1183.16
-531.187
1048.43
-552.411
891.296
-532.155
731.041
-471.66
574.778
-375.459
435.11
-252.079
331.26
-110.872
287.802
39.9641
320.841
170.003
438.368
222.43
625.008
147.912
790.988
711.132
-187.047
1969.78
-292.36
1991.16
-413.02
1839.02
-571.867
1725.35
-743.291
1661.91
-934.272
1577.41
-1133.67
1499.86
-1332.15
1381.64
-1519.05
1235.33
-1691.16
1063.4
-1849.41
889.289
-1989.55
714.918
-2097.4
542.968
-2141.69
375.547
-2075.03
221.145
-1867.22
113.028
-1513.46
84.6024
-999.116
110.669
-409.327
201.199
301.806
0.623323
1969.16
-166.488
2158.27
-289.476
1962.01
-391.418
1827.29
-489.251
1759.74
-585.036
1673.19
-679.956
1594.78
-778.321
1480
-884.706
1341.72
-999.445
1178.14
-1119.52
1009.36
-1241.14
836.536
-1358.58
660.41
-1459.33
476.297
-1524.82
286.632
-1533.44
121.648
-1507.93
59.0953
-1216.59
-180.672
-684.508
-330.885
-382.702
325.828
1643.33
260.65
2223.45
170.67
2051.99
152.232
1845.73
175.389
1736.58
213.941
1634.64
261.207
1547.52
300.495
1440.72
321.233
1320.98
315.534
1183.84
286.074
1038.82
234.389
888.221
160.772
734.027
62.6593
574.409
-57.8411
407.131
-161.191
224.993
-32.6636
-69.4378
-78.071
-135.266
-132.892
-276.065
-515.594
444.567
1198.77
544.452
2123.57
504.296
2092.14
511.804
1838.22
580.29
1668.1
672.057
1542.87
775.715
1443.86
875.531
1340.9
963.417
1233.09
1030.11
1117.15
1073.26
995.676
1091.04
870.438
1081.57
743.495
1040.41
615.571
960.018
487.523
828.693
356.319
537.459
221.795
331.144
71.0483
164.117
-109.039
-351.478
306.323
892.442
419.124
2010.77
428.325
2082.94
448.451
1818.1
505.557
1610.99
578.586
1469.85
657.223
1365.22
732.36
1265.77
799.122
1166.33
851.726
1064.54
886.008
961.394
898.368
858.078
885.96
755.902
846.506
655.025
778.681
555.348
681.57
453.429
554.23
349.135
395.145
230.133
199.017
87.0882
-152.461
90.2109
802.232
128.617
1972.36
168.765
2042.79
211.837
1775.03
265.859
1556.97
326.065
1409.64
387.932
1303.35
446.492
1207.21
498.2
1114.62
539.608
1023.13
567.933
933.069
581.568
844.443
580.844
756.626
567.811
668.058
544.223
578.935
506.378
491.274
442.396
413.118
333.419
339.109
165.095
255.412
12.6345
-62.1182
864.351
-49.0926
1959.34
24.6907
1969.01
87.8679
1711.85
147.425
1497.41
209.436
1347.63
272.788
1240
332.286
1147.71
385.74
1061.17
433.339
975.537
477.265
889.143
521.299
800.41
569.786
708.139
622.113
615.73
667.327
533.722
680.237
478.364
629.38
463.974
487.485
481.003
259.346
483.55
271.981
-156.136
1020.49
-134.149
1937.35
-8.72211
1843.58
105.811
1597.32
206.29
1396.93
299.44
1254.48
390.831
1148.61
484.2
1054.34
580.46
964.906
681.558
874.439
789.264
781.437
905.851
683.824
1028.83
585.158
1135.66
508.899
1188.73
480.658
1147.17
519.916
988.892
622.256
716.158
753.737
377.745
821.963
649.726
-83.0916
1103.58
-86.4609
1940.72
-58.8538
1815.98
-34.3996
1572.87
-17.1885
1379.72
-4.70833
1242
23.4631
1120.44
71.4401
1006.36
145.658
890.689
249.554
770.545
384.864
646.127
545.676
523.013
707.721
423.114
835.438
381.182
889.403
426.693
838.131
571.189
680.514
779.874
443.962
990.288
195.343
1070.58
845.069
112.311
356.243
525.072
635.541
710.493
753.443
755.519
737.733
704.192
661.323
615.017
563.093
492.271
399.617
293.858
190.905
106.78
51.8943
20.8169
)
;

boundaryField
{
    outletWall
    {
        type            calculated;
        value           nonuniform List<scalar> 
60
(
3277.81
-3493.4
-6337.67
-8430.51
-7087.74
-501.584
7653.48
9836.68
8527.48
2276.43
-8852.67
-11208.5
-10953.9
-9285.3
-6644.63
-5559.3
-5496.13
-5573.03
-2745.62
1430.76
1520.89
1603.51
1626.02
1371.05
1019.03
699.635
-309.319
-1218.22
-905.148
1675.91
5015.85
7992.39
10694.1
12921.4
14060.3
13301.6
11105.3
8824.67
7173.55
5796.03
1230.7
1145.07
-17.9995
-436.081
-3915.82
-8550.09
-13748.2
-16564.6
-16126.9
-10878.9
1193.02
12770.3
15403.4
13309.6
10585.9
9162.38
7740.26
2243.59
-6211.53
-4135.16
)
;
    }
    fineWalls
    {
        type            calculated;
        value           uniform 0;
    }
    fineFrontAndBack
    {
        type            calculated;
        value           nonuniform List<scalar> 
960
(
8.94768e-14
1.4533e-12
2.04747e-13
1.17017e-13
1.4781e-12
2.15643e-13
1.32311e-13
2.79999e-13
1.41513e-12
1.30663e-13
8.26788e-14
2.94372e-12
6.00977e-13
3.60062e-13
2.20422e-12
8.27714e-14
-3.40811e-13
-1.55755e-12
-4.8735e-13
-8.26091e-13
-6.46887e-14
-3.76789e-13
-3.77703e-13
-3.41382e-13
-3.24554e-13
-2.58179e-13
4.36575e-13
3.68781e-14
3.60129e-13
8.00887e-13
1.18508e-12
1.30183e-12
1.26074e-12
1.13243e-12
9.21171e-13
6.27557e-13
3.35783e-13
8.15772e-14
-1.21406e-13
-2.76537e-13
-4.64688e-12
-1.2387e-12
-1.84295e-12
-2.23702e-12
-1.74311e-12
1.08258e-12
1.44035e-12
2.05679e-14
5.42473e-11
4.35498e-11
1.59138e-11
3.14828e-11
7.06827e-13
1.85745e-12
1.80882e-12
1.22295e-11
1.61829e-12
6.59555e-13
-1.4641e-13
-5.33073e-12
1.01993e-15
-1.59791e-13
-3.38568e-13
-5.99882e-13
-8.97635e-13
-1.17495e-12
-1.38895e-12
-1.50871e-12
-1.54634e-12
-1.44063e-12
-1.10569e-12
-7.0105e-13
-4.18233e-13
-1.00202e-11
-7.70023e-14
1.1841e-14
2.69861e-14
5.33218e-14
1.48662e-14
-3.12752e-13
-9.27565e-13
-9.29229e-13
-3.00615e-12
-8.29005e-13
-5.04462e-13
-1.21034e-12
-2.91005e-13
-4.77334e-14
1.91701e-12
1.08479e-12
1.81387e-12
7.53692e-12
1.84794e-13
-1.27917e-12
-1.11379e-12
-8.81544e-12
-1.70886e-12
-1.33002e-12
-9.23361e-12
-2.406e-12
3.05187e-11
5.24569e-11
6.32419e-11
6.33237e-11
7.00574e-11
7.34185e-11
7.69187e-11
7.93598e-11
8.03466e-11
7.92693e-11
7.50779e-11
7.02604e-11
6.15899e-11
5.13402e-11
4.65589e-11
3.76199e-11
1.93213e-11
1.33207e-12
-1.19088e-11
3.07219e-11
5.45703e-11
6.35982e-11
6.55791e-11
7.10803e-11
7.40426e-11
7.7195e-11
7.94654e-11
8.03543e-11
7.91767e-11
7.53801e-11
6.50232e-11
4.77621e-11
3.35964e-11
3.03292e-11
3.60841e-11
2.41212e-11
5.50655e-12
-9.011e-12
2.78136e-11
5.10745e-11
6.52677e-11
6.98051e-11
7.25833e-11
7.45671e-11
7.76552e-11
7.95914e-11
8.03548e-11
7.90397e-11
7.22503e-11
4.8427e-11
2.31537e-11
1.09005e-11
7.69336e-12
2.63125e-11
2.68549e-11
1.18276e-11
-6.2285e-12
2.25422e-11
4.02666e-11
5.84904e-11
7.17667e-11
7.81342e-11
7.67344e-11
7.71763e-11
7.98933e-11
8.04084e-11
7.85688e-11
5.98667e-11
2.39839e-11
3.06306e-12
2.18328e-13
-1.03973e-12
1.42897e-11
2.32867e-11
1.5901e-11
4.38751e-13
1.02843e-11
8.65265e-12
6.94743e-12
1.21642e-11
3.54036e-11
7.88323e-11
7.87661e-11
7.94752e-11
8.07474e-11
7.6482e-11
4.07617e-11
8.37957e-12
1.84095e-12
3.69003e-12
1.56517e-12
5.44975e-12
1.62128e-11
1.54679e-11
5.9856e-12
-6.8996e-12
-3.02058e-11
-4.94601e-11
-5.95958e-11
-4.88924e-11
1.20698e-11
8.73386e-11
7.9171e-11
8.08673e-11
7.21437e-11
2.53772e-11
4.41203e-12
7.42956e-12
7.60157e-12
2.38987e-12
2.66074e-12
1.09496e-11
1.22154e-11
1.21383e-11
-1.97928e-11
-5.07464e-11
-6.14421e-11
-6.30081e-11
-6.7173e-11
-4.91571e-11
7.75261e-11
8.34111e-11
8.01649e-11
6.7602e-11
1.94416e-11
5.36234e-12
1.01372e-11
8.96795e-12
3.90976e-12
1.80078e-12
8.18394e-12
9.37115e-12
-8.98895e-12
-2.58182e-11
-4.77569e-11
-4.07284e-11
-3.35986e-11
-4.64309e-11
-5.94334e-11
4.34308e-11
8.85563e-11
8.03995e-11
6.40331e-11
1.86405e-11
3.94839e-12
6.55251e-12
7.19665e-12
6.59117e-12
1.60203e-12
-2.1758e-12
-4.1314e-12
-1.21738e-11
-2.59707e-11
-3.22876e-11
-1.89156e-11
-2.00116e-11
-5.05802e-11
-5.44454e-11
1.6164e-11
8.47714e-11
8.32192e-11
6.2659e-11
1.98211e-11
-4.06995e-12
-3.99038e-12
-2.39412e-13
8.00483e-12
1.01622e-11
7.44544e-12
8.01238e-12
1.19861e-11
-2.29096e-11
-1.92587e-11
-8.67423e-12
-2.94326e-11
-7.08746e-11
-3.96302e-11
3.0125e-11
7.33985e-11
8.68252e-11
6.19853e-11
1.13299e-11
-2.32685e-11
-1.48799e-11
-1.0867e-11
3.06874e-12
1.21032e-11
5.97044e-12
9.78789e-12
2.96866e-11
-2.19251e-11
-2.10824e-11
-1.79674e-11
-6.03679e-11
-8.24501e-11
-1.75595e-11
2.4708e-11
6.9018e-11
8.81302e-11
6.24987e-11
9.09754e-12
-2.43028e-11
-2.32616e-11
-1.86743e-11
-6.17595e-12
2.02174e-11
5.00311e-11
5.35127e-11
5.62705e-11
-2.15399e-11
-3.84221e-11
-5.31496e-11
-9.87019e-11
-6.82109e-11
2.07019e-11
4.31204e-11
7.19637e-11
8.66825e-11
6.35943e-11
1.0136e-11
-2.6114e-11
-2.95167e-11
-2.08342e-11
-1.98803e-11
-2.5432e-11
-1.92441e-11
-1.15123e-11
-6.8169e-12
-1.78428e-11
-7.66291e-11
-1.09113e-10
-1.1766e-10
-3.25783e-11
4.99153e-11
6.21342e-11
7.31226e-11
8.06678e-11
6.11731e-11
1.15673e-11
-3.13501e-11
-3.89129e-11
-2.24749e-11
-8.11154e-12
-1.75713e-11
-1.88408e-11
-1.4638e-11
-9.17838e-12
-3.94178e-11
-1.39771e-10
-1.54213e-10
-1.02049e-10
2.21447e-12
5.59962e-11
6.23951e-11
6.64857e-11
6.84055e-11
5.26448e-11
1.08466e-11
-3.7486e-11
-4.41241e-11
-2.55521e-11
-1.05273e-11
-8.82877e-12
-1.02521e-11
-9.21037e-12
8.78391e-12
-1.25954e-10
-1.87066e-10
-1.57532e-10
-6.85585e-11
1.8252e-11
4.51502e-11
5.22483e-11
5.60763e-11
5.54724e-11
4.26022e-11
6.64597e-12
-4.49871e-11
-4.47782e-11
-2.88374e-11
-1.40502e-11
-7.32819e-12
-3.36359e-12
-1.18941e-12
5.46608e-12
-1.9092e-10
-1.84244e-10
-1.35743e-10
-4.33113e-11
1.26937e-11
2.92179e-11
4.04543e-11
4.75385e-11
4.74781e-11
3.45051e-11
-2.85693e-12
-5.24459e-11
-4.37409e-11
-3.07267e-11
-1.53372e-11
-7.33248e-12
-2.19145e-12
2.82333e-13
4.04852e-12
-1.93988e-10
-1.71956e-10
-1.20727e-10
-3.3741e-11
9.648e-13
1.3244e-11
2.69947e-11
3.79998e-11
3.96652e-11
2.37161e-11
-1.88029e-11
-5.22949e-11
-4.39976e-11
-3.14037e-11
-1.54533e-11
-5.59913e-12
-1.07576e-12
1.89758e-12
3.52738e-12
-1.83639e-10
-1.74605e-10
-1.18279e-10
-3.56988e-11
-8.71609e-12
-1.64372e-13
1.21064e-11
2.42063e-11
2.63734e-11
6.55691e-12
-3.94572e-11
-4.83534e-11
-4.44212e-11
-3.14912e-11
-1.47735e-11
-3.92114e-12
5.61338e-13
2.80108e-12
4.07155e-12
-1.87008e-10
-1.78438e-10
-1.22113e-10
-4.02889e-11
-1.12182e-11
-8.24523e-12
-2.20848e-12
7.51616e-12
8.862e-12
-1.23242e-11
-4.75456e-11
-4.70828e-11
-4.44087e-11
-3.12185e-11
-1.37014e-11
-2.31798e-12
1.96744e-12
3.40199e-12
3.9893e-12
-1.86028e-10
-1.80234e-10
-1.38881e-10
-6.88924e-11
-2.1565e-11
-9.09024e-12
-9.54898e-12
-9.43885e-12
-1.2773e-11
-2.93428e-11
-4.48907e-11
-4.72104e-11
-4.4358e-11
-3.08207e-11
-1.27112e-11
-1.09396e-12
2.89497e-12
3.63466e-12
3.61799e-12
-8.94768e-14
-1.4533e-12
-2.04747e-13
-1.17017e-13
-1.4781e-12
-2.15643e-13
-1.32311e-13
-2.79999e-13
-1.41513e-12
-1.30663e-13
-8.26788e-14
-2.94372e-12
-6.00977e-13
-3.60062e-13
-2.20422e-12
-8.27714e-14
3.40811e-13
1.55755e-12
4.8735e-13
8.26091e-13
6.46887e-14
3.76789e-13
3.77703e-13
3.41382e-13
3.24554e-13
2.58179e-13
-4.36575e-13
-3.68781e-14
-3.60129e-13
-8.00887e-13
-1.18508e-12
-1.30183e-12
-1.26074e-12
-1.13243e-12
-9.21171e-13
-6.27557e-13
-3.35783e-13
-8.15772e-14
1.21406e-13
2.76537e-13
4.64688e-12
1.2387e-12
1.84295e-12
2.23702e-12
1.74311e-12
-1.08258e-12
-1.44035e-12
-2.05679e-14
-5.42473e-11
-4.35498e-11
-1.59138e-11
-3.14828e-11
-7.06827e-13
-1.85745e-12
-1.80882e-12
-1.22295e-11
-1.61829e-12
-6.59555e-13
1.4641e-13
5.33073e-12
-1.01993e-15
1.59791e-13
3.38568e-13
5.99882e-13
8.97635e-13
1.17495e-12
1.38895e-12
1.50871e-12
1.54634e-12
1.44063e-12
1.10569e-12
7.0105e-13
4.18233e-13
1.00202e-11
7.70023e-14
-1.1841e-14
-2.69861e-14
-5.33218e-14
-1.48662e-14
3.12752e-13
9.27565e-13
9.29229e-13
3.00615e-12
8.29005e-13
5.04462e-13
1.21034e-12
2.91005e-13
4.77334e-14
-1.91701e-12
-1.08479e-12
-1.81387e-12
-7.53692e-12
-1.84794e-13
1.27917e-12
1.11379e-12
8.81544e-12
1.70886e-12
1.33002e-12
9.23361e-12
2.406e-12
-3.05187e-11
-5.24569e-11
-6.32419e-11
-6.33237e-11
-7.00574e-11
-7.34185e-11
-7.69187e-11
-7.93598e-11
-8.03466e-11
-7.92693e-11
-7.50779e-11
-7.02604e-11
-6.15899e-11
-5.13402e-11
-4.65589e-11
-3.76199e-11
-1.93213e-11
-1.33207e-12
1.19088e-11
-3.07219e-11
-5.45703e-11
-6.35982e-11
-6.55791e-11
-7.10803e-11
-7.40426e-11
-7.7195e-11
-7.94654e-11
-8.03543e-11
-7.91767e-11
-7.53801e-11
-6.50232e-11
-4.77621e-11
-3.35964e-11
-3.03292e-11
-3.60841e-11
-2.41212e-11
-5.50655e-12
9.011e-12
-2.78136e-11
-5.10745e-11
-6.52677e-11
-6.98051e-11
-7.25833e-11
-7.45671e-11
-7.76552e-11
-7.95914e-11
-8.03548e-11
-7.90397e-11
-7.22503e-11
-4.8427e-11
-2.31537e-11
-1.09005e-11
-7.69336e-12
-2.63125e-11
-2.68549e-11
-1.18276e-11
6.2285e-12
-2.25422e-11
-4.02666e-11
-5.84904e-11
-7.17667e-11
-7.81342e-11
-7.67344e-11
-7.71763e-11
-7.98933e-11
-8.04084e-11
-7.85688e-11
-5.98667e-11
-2.39839e-11
-3.06306e-12
-2.18328e-13
1.03973e-12
-1.42897e-11
-2.32867e-11
-1.5901e-11
-4.38751e-13
-1.02843e-11
-8.65265e-12
-6.94743e-12
-1.21642e-11
-3.54036e-11
-7.88323e-11
-7.87661e-11
-7.94752e-11
-8.07474e-11
-7.6482e-11
-4.07617e-11
-8.37957e-12
-1.84095e-12
-3.69003e-12
-1.56517e-12
-5.44975e-12
-1.62128e-11
-1.54679e-11
-5.9856e-12
6.8996e-12
3.02058e-11
4.94601e-11
5.95958e-11
4.88924e-11
-1.20698e-11