/*--------------------------------*- C++ -*----------------------------------*\
| =========                 |                                                 |
| \\      /  F ield         | OpenFOAM: The Open Source CFD Toolbox           |
|  \\    /   O peration     | Version:  4.1                                   |
|   \\  /    A nd           | Web:      www.OpenFOAM.org                      |
|    \\/     M anipulation  |                                                 |
\*---------------------------------------------------------------------------*/
FoamFile
{
    version     2.0;
    format      ascii;
    class       volVectorField;
    location    "11";
    object      U;
}
// * * * * * * * * * * * * * * * * * * * * * * * * * * * * * * * * * * * * * //

dimensions      [0 1 -1 0 0 0 0];

internalField   nonuniform List<vector> 
1280
(
(6.46626e-17 -0.389209 -0.227229)
(2.47002e-16 -0.356251 -0.754001)
(1.47965e-16 -0.106603 -0.485402)
(8.45654e-17 -0.0805148 -0.322596)
(2.51217e-16 0.0677375 -0.903421)
(1.55839e-16 0.309374 -0.658447)
(9.56179e-17 0.40344 -0.641655)
(2.17813e-16 0.478948 -0.587565)
(2.11727e-16 0.714799 -1.17162)
(9.03796e-17 0.907886 -0.94777)
(5.54783e-17 1.08832 -0.853056)
(5.33464e-16 1.43999 -1.65526)
(4.3431e-16 1.59224 -1.41801)
(2.62277e-16 1.87404 -1.29801)
(3.73981e-16 2.45833 -2.46637)
(5.98167e-17 2.48009 -2.16399)
(-2.46295e-16 3.06188 -2.03465)
(-2.64721e-16 3.177 -3.8834)
(-3.52195e-16 4.54823 -2.18276)
(-5.96994e-16 3.24805 -5.20062)
(-2.65389e-16 4.48489 0.747762)
(-1.5458e-15 4.72505 5.99985)
(-1.54955e-15 4.59791 7.93365)
(-1.40054e-15 5.11259 8.27038)
(-1.3315e-15 5.35244 8.0315)
(-1.0592e-15 5.76892 8.6844)
(9.20317e-17 4.76059 5.96362)
(1.51295e-16 8.57423 12.3941)
(1.47745e-15 8.78588 13.1621)
(3.28569e-15 8.84072 13.6115)
(4.86186e-15 8.79956 13.6757)
(5.34083e-15 8.69483 13.5056)
(5.17227e-15 8.55809 13.3097)
(4.64585e-15 8.40203 13.1026)
(3.77916e-15 8.27537 12.8958)
(2.57459e-15 8.1571 12.7469)
(1.37757e-15 8.19191 12.7131)
(3.34676e-16 8.12107 12.6795)
(-4.98078e-16 8.49396 12.6038)
(-1.13451e-15 8.34561 10.7621)
(-8.08857e-16 11.7197 10.5171)
(-9.94942e-16 6.88988 6.97256)
(-1.48028e-15 6.03558 6.84642)
(-1.71593e-15 5.31252 6.80921)
(3.43601e-16 4.49378 7.85126)
(8.69543e-16 2.60122 5.08212)
(1.15691e-15 2.19485 4.87879)
(1.65204e-17 1.58441 4.89049)
(1.11563e-14 0.738108 3.90137)
(5.43297e-14 -0.136524 0.773713)
(-6.56792e-15 -0.0596683 2.04636)
(5.48003e-15 -0.981205 4.29725)
(5.67732e-16 -1.95581 5.10023)
(1.49193e-15 -2.60262 5.17558)
(1.45287e-15 -3.02429 5.43333)
(2.12873e-15 -4.97984 8.3684)
(1.37478e-15 -5.74915 7.11972)
(5.29763e-16 -6.54691 7.13948)
(-1.17599e-16 -7.42646 7.20206)
(-1.12692e-15 -12.0887 10.6503)
(4.18433e-18 -8.4802 10.8738)
(-6.55553e-16 -8.63624 12.7195)
(-1.389e-15 -8.26258 12.7689)
(-2.46105e-15 -8.33784 12.7616)
(-3.68261e-15 -8.30113 12.7308)
(-4.8203e-15 -8.41696 12.8009)
(-5.69827e-15 -8.53629 12.9191)
(-6.18959e-15 -8.68213 13.0335)
(-6.34396e-15 -8.80337 13.1497)
(-5.91026e-15 -8.89013 13.2428)
(-4.53615e-15 -8.90394 13.0599)
(-2.8761e-15 -8.82465 12.4786)
(-1.71583e-15 -8.55818 11.5963)
(-2.11229e-15 -4.58089 4.8855)
(-3.15907e-16 -5.51852 8.30845)
(4.85784e-17 -5.06974 7.65484)
(1.10712e-16 -4.82065 7.94329)
(2.18756e-16 -4.29815 7.61018)
(6.09895e-17 -4.43622 5.60247)
(-1.28309e-15 -4.17686 0.237125)
(-6.70327e-16 -2.95243 -5.55261)
(-6.78559e-16 -4.16148 -2.46511)
(-5.10925e-16 -3.07287 -3.96433)
(-5.991e-16 -2.98285 -2.22721)
(-3.64562e-16 -2.37755 -2.33544)
(-1.93015e-16 -2.54984 -2.74821)
(-2.07628e-16 -1.85235 -1.66253)
(-2.59358e-17 -1.53712 -1.70182)
(4.02846e-16 -1.57631 -2.01672)
(7.87913e-16 -1.06181 -1.24972)
(1.27115e-15 -0.83612 -1.26634)
(1.53507e-15 -0.855078 -1.63057)
(2.39207e-16 -0.432407 -1.20598)
(-9.24424e-16 -0.297149 -1.13056)
(-8.04907e-16 -0.0758043 -1.055)
(-1.49827e-15 -0.0757079 -1.48913)
(-1.23495e-15 0.284975 -1.15329)
(-9.19014e-16 0.61944 -1.12089)
(-1.62485e-15 0.287241 -1.63577)
(-1.73875e-15 1.07609 -1.82966)
(3.39096e-15 0.483883 4.85705)
(5.82854e-15 -0.870452 4.33609)
(7.02688e-15 -1.82106 3.72839)
(7.03597e-15 -1.82609 3.26197)
(7.78416e-15 -1.84361 2.66961)
(8.15761e-15 -2.18569 2.03947)
(8.54652e-15 -3.06043 1.5156)
(8.81776e-15 -3.63227 1.0824)
(8.9274e-15 -3.73067 0.694869)
(8.8077e-15 -2.96488 0.339293)
(8.34199e-15 0.978181 -0.360845)
(7.80671e-15 2.93075 -1.47851)
(6.84332e-15 3.32139 -2.30158)
(5.70447e-15 2.55439 -3.30408)
(5.17321e-15 -0.273649 -4.04997)
(4.17999e-15 -2.37919 -3.63547)
(2.14681e-15 -2.81647 -2.93412)
(1.48008e-16 -2.12486 -2.32069)
(-1.3232e-15 -1.19115 -2.0567)
(3.41354e-15 0.639135 6.05361)
(6.06337e-15 -0.52785 5.33869)
(7.06647e-15 -1.53464 3.94067)
(7.28657e-15 -1.45401 3.36641)
(7.89781e-15 -1.42397 2.59828)
(8.22695e-15 -1.83906 1.84376)
(8.57722e-15 -2.81625 1.44322)
(8.82948e-15 -3.38571 1.15494)
(8.92825e-15 -3.48822 0.851702)
(8.79741e-15 -2.53564 0.529528)
(8.37557e-15 1.63201 -0.531299)
(7.2248e-15 3.46913 -1.54049)
(5.3069e-15 3.94825 -2.40956)
(3.73293e-15 3.24146 -3.59637)
(3.36991e-15 0.121355 -4.98071)
(4.00935e-15 -2.80574 -4.48492)
(2.68013e-15 -3.28907 -3.1015)
(6.11839e-16 -2.41047 -2.13731)
(-1.00122e-15 -1.41254 -1.76974)
(3.0904e-15 0.682174 7.46633)
(5.67494e-15 0.0413565 7.39827)
(7.25197e-15 -1.04834 5.06111)
(7.75612e-15 -1.17473 3.64648)
(8.06481e-15 -1.11401 2.52329)
(8.28524e-15 -1.61481 1.65246)
(8.62836e-15 -2.7173 1.33098)
(8.84349e-15 -3.29952 1.24512)
(8.92831e-15 -3.42441 1.09693)
(8.78219e-15 -2.33351 0.888503)
(8.02781e-15 1.67679 -0.1161)
(5.38077e-15 3.69824 -0.807438)
(2.57263e-15 4.26502 -1.247)
(1.21117e-15 3.70957 -2.08942)
(8.54818e-16 0.326582 -3.6427)
(2.92361e-15 -3.13999 -4.65073)
(2.98387e-15 -3.79555 -3.47551)
(1.31417e-15 -2.70169 -2.21172)
(-6.92055e-16 -1.48661 -1.62433)
(2.50469e-15 0.519573 9.39318)
(4.47406e-15 0.529076 10.578)
(6.49893e-15 -0.0673119 8.36564)
(7.97408e-15 -0.425856 5.27262)
(8.68158e-15 -0.767473 2.18636)
(8.52604e-15 -1.39553 1.18767)
(8.57514e-15 -2.69552 1.26329)
(8.87703e-15 -3.29224 1.33765)
(8.93426e-15 -3.43293 1.3962)
(8.72987e-15 -2.12225 1.3287)
(6.65185e-15 2.06628 0.697039)
(2.66488e-15 3.802 0.743775)
(3.4034e-16 4.42623 1.16304)
(2.42586e-17 4.15315 0.885919)
(-1.15525e-16 0.7346 -0.623678)
(1.58775e-15 -2.92187 -3.43756)
(2.58742e-15 -4.11542 -3.37038)
(1.76677e-15 -3.10508 -2.38253)
(4.87501e-17 -1.69381 -1.86672)
(1.1427e-15 0.0312261 11.2416)
(9.61405e-16 0.498474 13.6908)
(7.71937e-16 0.95769 12.7655)
(1.35158e-15 1.31225 9.87316)
(3.93373e-15 0.717037 4.8446)
(8.75914e-15 -1.26186 0.435953)
(8.75179e-15 -2.85369 0.948235)
(8.83057e-15 -3.3329 1.50955)
(8.97194e-15 -3.49746 1.72172)
(8.498e-15 -1.9881 1.83497)
(4.52907e-15 1.9265 1.96714)
(9.31064e-16 3.47757 3.03189)
(2.0455e-16 4.26947 4.04313)
(4.10003e-16 4.44511 4.02879)
(1.73908e-16 1.86309 2.48499)
(6.05528e-16 -2.2236 -1.36831)
(1.80143e-15 -4.07037 -2.36833)
(1.71865e-15 -3.27567 -2.23796)
(6.65066e-16 -1.52305 -2.30368)
(-7.66622e-16 -0.64659 11.8695)
(-3.3562e-15 0.105201 14.1685)
(-5.49557e-15 1.53841 12.7862)
(-6.62175e-15 2.85431 10.1423)
(-5.43249e-15 2.92962 6.14657)
(1.34109e-15 -0.0222173 1.57943)
(9.70429e-15 -3.07824 0.289896)
(8.79678e-15 -3.56958 1.63642)
(8.98526e-15 -3.63878 2.09517)
(8.01596e-15 -2.07661 2.4524)
(2.81969e-15 1.51192 3.74831)
(4.90226e-16 2.94322 5.64814)
(8.25507e-16 4.04243 6.84595)
(8.44619e-16 4.83952 7.02033)
(2.65541e-16 3.05948 5.66488)
(2.95637e-16 -1.41769 1.29685)
(1.21662e-15 -3.5796 -0.538383)
(1.35727e-15 -3.14756 -1.06667)
(1.3487e-15 -1.73086 -2.9163)
(-2.1992e-15 -1.08194 10.9084)
(-5.63849e-15 0.231046 11.3874)
(-6.8269e-15 2.47812 8.36736)
(-7.0009e-15 3.97959 5.6717)
(-7.46367e-15 4.18959 3.19627)
(-5.4619e-15 1.16617 1.32315)
(8.61401e-15 -3.02729 0.22212)
(9.2679e-15 -3.99896 1.46148)
(8.90721e-15 -3.92202 2.47371)
(7.51133e-15 -2.48222 3.16038)
(2.16017e-15 0.706174 5.55058)
(5.95816e-16 2.26232 7.87648)
(1.12635e-15 3.7324 8.98464)
(9.96439e-16 5.03519 9.62177)
(4.34418e-16 4.14807 9.2875)
(2.00086e-16 -0.181631 5.26025)
(9.09326e-16 -3.04445 1.19051)
(1.04124e-15 -2.22177 -0.0528649)
(-9.98772e-16 0.532162 -1.03878)
(-2.86869e-15 -1.02927 9.02588)
(-5.30633e-15 1.13893 7.31947)
(-4.52538e-15 3.73957 3.93202)
(-3.73318e-15 4.87156 2.12059)
(-5.15899e-15 4.74798 0.735072)
(-6.60371e-15 1.28909 0.582868)
(4.82565e-15 -3.09807 0.715729)
(9.83959e-15 -4.42459 1.30851)
(8.93328e-15 -4.40083 2.68706)
(7.11479e-15 -3.1603 3.81467)
(2.07116e-15 -0.36719 6.68372)
(4.3871e-16 1.55759 9.2001)
(7.28057e-16 3.33104 10.0874)
(7.99627e-16 4.82127 11.1222)
(7.32352e-16 4.79654 12.1921)
(1.78003e-16 2.0898 10.4669)
(-2.41756e-16 -1.15375 5.10253)
(-4.59045e-16 -2.00875 3.81044)
(-1.35265e-15 -4.71427 5.85042)
(-2.88563e-15 -0.546532 6.71215)
(-3.58751e-15 2.24774 3.64761)
(-2.10174e-15 4.61345 1.32962)
(-2.22351e-15 5.27207 0.589617)
(-5.62002e-15 4.86757 0.000227284)
(-6.04949e-15 1.05372 1.11615)
(1.796e-15 -3.28798 1.40329)
(9.41904e-15 -4.75284 1.5787)
(9.24658e-15 -4.98306 2.7529)
(6.96211e-15 -3.99449 4.26195)
(2.20234e-15 -1.50004 7.15933)
(-4.52217e-16 0.923088 9.79743)
(-4.43375e-16 2.90069 10.6224)
(-2.66014e-17 4.23924 11.5461)
(8.89426e-16 4.21231 13.182)
(1.12914e-15 2.14255 14.6802)
(8.27271e-16 -0.705119 14.0377)
(8.90265e-16 -2.27735 12.4451)
(1.33179e-15 -3.32581 11.2375)
(-2.54551e-15 0.200015 4.14387)
(-2.13985e-15 3.16433 0.885349)
(-9.63803e-16 5.03989 0.0261341)
(-3.27028e-15 5.37995 -0.0563922)
(-7.87496e-15 4.60499 0.105559)
(-4.40336e-15 0.615842 2.28568)
(3.52917e-15 -3.36312 2.37891)
(8.15539e-15 -4.93418 2.24233)
(9.64725e-15 -5.51655 2.92285)
(6.88726e-15 -4.8693 4.47883)
(1.25888e-15 -2.65154 7.33617)
(-2.81809e-15 0.226316 10.2112)
(-1.65332e-15 2.5907 10.8732)
(-1.20744e-15 3.93639 11.2609)
(3.69256e-16 3.69616 12.4421)
(1.3448e-15 1.83027 13.2504)
(6.63383e-16 -0.386345 13.7521)
(1.08754e-15 -1.32473 12.8055)
(3.29851e-15 -1.32986 9.15063)
(-2.43613e-15 0.952413 1.29963)
(-2.34249e-15 3.72549 -0.789433)
(-1.99637e-15 5.08039 -0.53729)
(-6.70754e-15 5.23305 -0.145263)
(-9.16113e-15 3.97265 1.10154)
(-1.95106e-15 0.0512149 3.78205)
(2.31107e-15 -3.30028 3.60123)
(7.66866e-15 -4.94198 3.15155)
(9.79224e-15 -5.90879 3.37909)
(6.9443e-15 -5.70159 4.61227)
(1.01084e-15 -3.81045 7.30877)
(-2.70031e-15 -0.388746 9.72985)
(-2.58463e-15 2.45768 8.90076)
(-2.07492e-15 3.61761 8.98714)
(-6.86217e-16 3.35118 11.9615)
(2.24638e-15 1.91162 13.2307)
(5.55901e-15 -0.0142755 12.3988)
(5.94585e-15 -0.523906 11.367)
(6.25228e-15 0.0859825 8.28493)
(-2.39332e-15 1.21704 -0.805586)
(-4.26912e-15 3.78382 -1.42379)
(-5.90551e-15 4.8539 -0.673944)
(-1.09669e-14 4.73515 0.366248)
(-7.57899e-15 3.0344 2.82278)
(2.30022e-15 -0.445816 5.27503)
(4.79115e-15 -3.12241 4.8399)
(7.99597e-15 -4.81732 4.16454)
(9.63138e-15 -6.12656 4.03056)
(7.06603e-15 -6.37128 4.75966)
(1.12622e-15 -4.71812 6.95247)
(-2.90156e-15 -0.453607 7.73754)
(-3.27963e-15 2.76644 4.40869)
(-2.31491e-15 2.61857 3.80343)
(-2.20892e-15 1.85202 8.07011)
(-2.82577e-15 1.27982 12.8898)
(-2.13823e-15 -0.0420909 14.7477)
(-1.27915e-15 -0.190818 14.159)
(-7.57433e-16 1.7879 11.4195)
(-1.98253e-15 1.20234 -1.0408)
(-8.51434e-15 3.59993 -1.31806)
(-1.21237e-14 4.40677 -0.261096)
(-1.30733e-14 3.85498 1.53522)
(-3.61981e-15 1.98309 4.73885)
(5.54615e-15 -0.73748 6.52136)
(6.9038e-15 -2.8596 5.92847)
(8.12473e-15 -4.60221 5.11607)
(8.96309e-15 -6.17552 4.6951)
(6.79701e-15 -6.80945 5.00187)
(1.28526e-15 -5.14323 6.61396)
(-3.48334e-15 0.570004 6.10533)
(-4.32365e-15 3.93209 2.49986)
(-2.49721e-15 2.66108 1.91173)
(-9.01282e-16 -0.174762 0.751548)
(-1.95237e-15 -0.431026 5.2082)
(-2.09342e-15 -0.170662 7.67997)
(-1.62645e-15 1.15918 7.54564)
(-1.01982e-15 4.9525 7.76644)
(-4.37976e-15 1.3131 -0.310432)
(-1.55301e-14 3.41445 -0.575294)
(-1.71348e-14 3.74697 0.750595)
(-1.13388e-14 2.75147 3.04831)
(2.46052e-16 1.00718 6.31013)
(6.2218e-15 -0.874552 7.52653)
(6.93279e-15 -2.54313 6.99765)
(7.3873e-15 -4.30919 6.19081)
(7.60061e-15 -6.10059 5.6432)
(5.84942e-15 -7.06276 5.75356)
(1.20518e-15 -5.21867 6.62639)
(-4.16512e-15 1.41892 4.4921)
(-4.90268e-15 4.46318 1.46375)
(-2.83912e-15 3.12128 2.09535)
(-1.1697e-15 0.55603 -0.0225328)
(-9.80975e-16 -1.31313 -1.37097)
(-1.13912e-15 -1.01922 -0.327145)
(-1.02337e-15 -0.728606 -2.76551)
(9.75989e-16 -0.853982 0.0472185)
(-1.39949e-14 1.45144 0.521928)
(-2.07851e-14 3.17599 0.419244)
(-1.75036e-14 2.96998 1.86519)
(-7.61761e-15 1.63635 4.34188)
(2.028e-15 0.180687 7.23413)
(5.01669e-15 -1.00847 8.28977)
(5.80536e-15 -2.31302 8.27481)
(6.2307e-15 -4.05474 7.85231)
(6.16361e-15 -6.02127 7.48083)
(4.73358e-15 -7.13204 7.43471)
(7.38442e-16 -4.6998 6.88061)
(-4.99856e-15 2.43866 2.46039)
(-4.97536e-15 4.89103 0.923363)
(-3.20416e-15 3.30026 1.20919)
(-1.56113e-15 1.41169 -0.317765)
(-8.14243e-16 -0.452159 -2.45574)
(-3.73732e-16 -0.359727 -3.38023)
(-1.32157e-16 0.447351 -3.76759)
(6.07342e-16 0.514405 -4.58933)
(-2.12134e-14 1.43622 0.810147)
(-2.04715e-14 2.81029 1.10587)
(-1.50826e-14 2.17688 2.48551)
(-4.81237e-15 0.609217 5.03842)
(1.41042e-15 -0.57009 7.32492)
(3.24643e-15 -1.34102 8.55343)
(4.49492e-15 -2.37372 9.3599)
(5.28206e-15 -4.00875 9.7051)
(5.27534e-15 -5.96359 9.74744)
(3.83389e-15 -6.77265 9.24872)
(-3.17437e-16 -3.26938 6.48877)
(-5.82732e-15 3.57495 0.387476)
(-4.86009e-15 5.03121 0.955307)
(-3.41407e-15 3.58969 0.458241)
(-1.70413e-15 1.95699 -0.591379)
(-8.1472e-16 0.18368 -1.87152)
(-2.43494e-16 -0.189212 -3.24436)
(3.13703e-17 0.226862 -2.97803)
(4.49836e-16 0.0421852 -3.03697)
(-2.15542e-14 1.36643 1.124)
(-1.91063e-14 2.47708 1.35386)
(-1.34141e-14 1.40759 2.5894)
(-3.749e-15 -0.23623 5.13643)
(1.072e-16 -1.19071 6.85331)
(1.47156e-15 -1.83891 8.22293)
(2.99941e-15 -2.76703 9.62202)
(4.2222e-15 -4.23293 10.6605)
(4.40724e-15 -5.868 11.0234)
(2.63513e-15 -5.8157 9.75297)
(-2.08921e-15 -1.03962 4.76249)
(-5.81054e-15 4.46599 -0.365394)
(-4.88862e-15 4.97731 0.747654)
(-3.4893e-15 3.90743 -0.0955704)
(-1.71703e-15 2.3369 -0.779954)
(-6.22125e-16 0.687653 -1.61972)
(-1.19529e-16 -0.0414831 -2.64299)
(2.10842e-16 0.240954 -2.45767)
(3.91931e-16 0.149691 -2.29967)
(-2.04044e-14 1.35628 1.35545)
(-1.94005e-14 2.23376 1.35399)
(-1.31422e-14 0.636906 2.42367)
(-3.96653e-15 -1.07127 4.75959)
(-9.68455e-16 -1.87652 6.12593)
(-1.82636e-17 -2.47218 7.39331)
(1.34515e-15 -3.34358 8.92919)
(2.68959e-15 -4.56592 10.2555)
(2.93037e-15 -5.56653 10.6543)
(7.28546e-16 -4.26993 8.48347)
(-4.38413e-15 1.18353 1.91746)
(-5.3726e-15 4.92543 0.0398322)
(-4.93569e-15 5.02066 0.305593)
(-3.49902e-15 4.17181 -0.418326)
(-1.6415e-15 2.57738 -0.895605)
(-4.35682e-16 0.997829 -1.40871)
(6.23709e-17 0.0868842 -2.11787)
(3.11231e-16 0.103222 -1.96264)
(4.52394e-16 -0.16249 -1.76566)
(-2.07786e-14 1.36066 1.35971)
(-1.98264e-14 2.05871 1.24772)
(-1.35682e-14 -0.100598 2.02968)
(-4.47654e-15 -1.53899 4.14827)
(-1.24646e-15 -2.21465 5.55579)
(-9.16136e-16 -2.91478 6.5895)
(-2.45387e-16 -3.87666 7.9005)
(8.35128e-16 -4.91145 9.1615)
(9.84666e-16 -5.19483 9.32299)
(-1.36935e-15 -2.59589 6.31321)
(-5.28285e-15 2.56238 0.557323)
(-5.23142e-15 5.06825 0.360614)
(-4.9343e-15 5.2147 -0.050163)
(-3.46873e-15 4.36035 -0.596456)
(-1.52238e-15 2.71132 -0.923998)
(-2.57553e-16 1.16665 -1.19973)
(2.18605e-16 0.122147 -1.62976)
(3.77999e-16 0.0429255 -1.47472)
(4.43255e-16 -0.215557 -1.42371)
(-2.06698e-14 1.36632 1.28189)
(-2.0026e-14 2.10302 1.11282)
(-1.54312e-14 -0.782085 1.43431)
(-7.65471e-15 -2.54648 2.86709)
(-2.39611e-15 -3.00219 4.37159)
(-1.01003e-15 -3.49035 5.31057)
(-1.061e-15 -4.41072 6.11686)
(-1.04876e-15 -5.13342 6.84527)
(-1.41922e-15 -4.32602 6.69573)
(-3.26031e-15 -0.423308 3.95179)
(-4.98785e-15 3.40908 1.06323)
(-5.2456e-15 5.28097 0.301273)
(-4.92867e-15 5.48181 -0.237112)
(-3.42453e-15 4.5718 -0.698521)
(-1.41236e-15 2.863 -0.913683)
(-1.21551e-16 1.31617 -1.01859)
(3.21663e-16 0.140884 -1.19455)
(4.03851e-16 0.00832046 -1.08559)
(4.01999e-16 -0.380357 -1.10432)
(-1.59025e-16 10.8073 18.5853)
(-5.03842e-15 18.2201 30.9145)
(-4.44464e-15 17.9532 29.3732)
(-4.57673e-15 15.9879 25.7282)
(-5.0273e-15 14.5149 22.7803)
(-5.7563e-15 13.3519 20.6092)
(-4.27653e-15 12.151 18.4067)
(-2.03757e-15 10.9107 16.3937)
(1.95957e-15 9.59944 14.2046)
(6.60804e-15 8.16627 11.8814)
(1.02745e-14 6.66526 9.46909)
(1.12274e-14 5.28945 7.24683)
(1.07787e-14 4.29047 5.72648)
(8.79145e-15 3.91866 5.36166)
(5.3028e-15 4.42413 6.55607)
(5.33723e-16 5.82615 9.37337)
(-3.54193e-15 7.88857 13.1179)
(-6.08186e-15 9.65447 16.7057)
(-7.18161e-15 10.6084 17.8764)
(-7.30095e-15 7.55689 13.7887)
(-4.2185e-16 9.79723 16.5256)
(-4.37346e-15 16.4904 29.2626)
(-3.33506e-15 15.4219 26.7687)
(-3.9554e-15 13.1305 22.9537)
(-4.62064e-15 11.5449 20.0077)
(-6.61776e-15 10.3568 17.9492)
(-4.83063e-15 9.48579 16.3768)
(-3.63376e-15 8.71587 14.8904)
(-2.53213e-15 8.0111 13.4646)
(-2.39943e-15 7.36128 12.0181)
(-2.18285e-15 6.73861 10.5312)
(-1.649e-15 6.12946 8.96247)
(-8.71661e-16 5.58237 7.44601)
(-1.22012e-15 5.37726 6.5797)
(-1.78628e-15 5.7622 6.87545)
(-4.11404e-15 6.7075 8.53414)
(-6.61964e-15 8.10051 11.1951)
(-8.28903e-15 9.24717 14.0625)
(-8.41966e-15 9.64045 15.3586)
(-9.04991e-15 7.3016 12.558)
(-9.01354e-17 8.45836 14.6435)
(-1.05372e-15 16.9645 30.172)
(-8.29417e-16 17.0824 29.7449)
(-8.5424e-16 15.1289 25.9828)
(-7.78314e-16 13.4715 22.7694)
(-3.50931e-15 12.3508 20.4551)
(-2.75396e-15 11.549 18.7828)
(-2.82771e-15 10.9403 17.3888)
(-3.55715e-15 10.3775 16.0889)
(-4.35288e-15 9.82141 14.7792)
(-4.62714e-15 9.24437 13.4143)
(-3.90378e-15 8.63119 11.9661)
(-2.98397e-15 7.98896 10.4254)
(-2.19718e-15 7.36373 8.92435)
(-1.98972e-15 6.88835 7.7797)
(-2.57557e-15 6.67997 7.38344)
(-4.08724e-15 6.8058 7.93182)
(-5.931e-15 7.06618 9.13565)
(-6.20908e-15 6.82309 9.90645)
(-6.84832e-15 4.78087 7.2888)
(7.34299e-17 7.2248 12.2413)
(4.10407e-16 17.2925 30.2445)
(3.06862e-16 17.8411 30.9499)
(3.37603e-16 15.6348 26.7984)
(4.36907e-16 13.7289 23.4152)
(-1.41635e-15 12.5781 21.1203)
(-1.44236e-15 11.7251 19.4789)
(-1.53188e-15 11.0288 18.0297)
(-1.58225e-15 10.3478 16.6634)
(-1.98585e-15 9.6833 15.3354)
(-2.84623e-15 9.02642 14.0396)
(-3.27153e-15 8.37409 12.7581)
(-3.84521e-15 7.71557 11.4597)
(-4.04368e-15 7.04376 10.1099)
(-4.12736e-15 6.35146 8.73498)
(-4.35607e-15 5.70662 7.46079)
(-4.94833e-15 5.10641 6.52021)
(-6.00923e-15 4.63817 5.88602)
(-5.79923e-15 3.69504 5.24757)
(-8.10371e-15 1.67045 1.55667)
(-1.69628e-17 7.36151 12.2952)
(-1.11404e-16 17.8539 30.3792)
(-8.43502e-17 18.6182 31.8229)
(-8.9768e-17 16.4626 27.7263)
(-1.33509e-16 14.5305 24.4004)
(4.44371e-16 13.4271 22.1621)
(5.18552e-16 12.5735 20.5344)
(5.15274e-16 11.8412 19.0268)
(5.6096e-16 11.0932 17.5465)
(7.07934e-16 10.3306 16.0615)
(8.75137e-16 9.54947 14.5873)
(9.04426e-16 8.75717 13.1412)
(8.48233e-16 7.95424 11.7357)
(6.83027e-16 7.14877 10.3585)
(4.93062e-16 6.30809 8.98887)
(4.01906e-16 5.45058 7.56512)
(4.66897e-16 4.46012 6.10315)
(7.07144e-16 3.46343 4.46518)
(1.0776e-15 1.79882 2.51918)
(9.99818e-16 0.0689594 -1.32826)
(1.93973e-18 9.19193 15.2062)
(2.13988e-17 19.1692 31.4978)
(1.83937e-17 19.3624 32.2647)
(1.79917e-17 17.2553 28.2082)
(2.7928e-17 15.4109 25.1591)
(-8.87752e-17 14.4347 23.0506)
(-1.18963e-16 13.6181 21.4554)
(-1.16147e-16 12.8976 19.8987)
(-1.24318e-16 12.1231 18.3159)
(-1.4458e-16 11.2942 16.6655)
(-1.4856e-16 10.4013 14.9621)
(-1.14324e-16 9.44978 13.2247)
(-4.65562e-17 8.4441 11.4798)
(4.15928e-17 7.39973 9.74286)
(1.27043e-16 6.29756 8.02913)
(1.89396e-16 5.15983 6.29048)
(2.22311e-16 3.86198 4.50112)
(2.27228e-16 2.51265 2.40832)
(1.59471e-16 0.316862 -0.181282)
(1.14303e-15 -1.03858 -3.79404)
(-1.00937e-19 12.8171 21.7547)
(-3.27454e-18 21.0438 33.8857)
(-3.33571e-18 19.334 32.1559)
(-3.06758e-18 17.5692 28.4028)
(-4.0913e-18 16.0762 26.2187)
(1.41854e-17 15.4413 24.4755)
(2.10996e-17 14.6873 23.0245)
(2.04899e-17 14.0223 21.4161)
(1.98944e-17 13.1878 19.687)
(1.92131e-17 12.2511 17.7788)
(1.32407e-17 11.1873 15.7577)
(-8.97236e-19 10.0362 13.6592)
(-2.17734e-17 8.80598 11.5215)
(-4.54267e-17 7.50729 9.35281)
(-6.72054e-17 6.11351 7.16781)
(-8.39521e-17 4.63661 4.92648)
(-9.34611e-17 2.88973 2.68954)
(-8.49825e-17 1.18644 0.257904)
(-2.81807e-17 -1.43851 -2.53471)
(3.69997e-16 -2.44802 -6.39787)
(-5.29992e-21 16.3247 28.8298)
(4.51945e-19 21.2946 34.5846)
(5.05109e-19 17.8521 31.0598)
(4.26798e-19 17.0681 28.4696)
(4.23919e-19 15.8414 27.2982)
(-2.35924e-18 15.4866 25.9076)
(-3.3397e-18 14.6219 24.6793)
(-2.92221e-18 13.8938 23.0047)
(-2.37342e-18 12.7447 21.0524)
(-1.79848e-18 11.4701 18.744)
(-2.88793e-19 9.99213 16.3053)
(2.81384e-18 8.44805 13.7737)
(7.27025e-18 6.80043 11.1771)
(1.22084e-17 5.0347 8.46174)
(1.69765e-17 3.08367 5.58007)
(2.1404e-17 0.883637 2.50144)
(2.30981e-17 -3.12327 -1.82323)
(-4.97306e-17 -2.20734 -3.46153)
(-2.12886e-17 -4.51057 -5.49041)
(9.20842e-18 -4.01688 -9.15368)
(1.6256e-21 17.3213 31.5988)
(-5.58353e-20 18.9111 31.7271)
(-5.31568e-20 15.879 29.2093)
(-2.98212e-20 15.6586 27.6445)
(4.25933e-20 14.3191 26.741)
(4.48982e-19 13.8147 25.4776)
(5.25839e-19 12.6678 24.3099)
(3.35653e-19 11.5996 22.4735)
(-3.66524e-19 9.9596 20.1934)
(-1.77646e-18 8.24956 17.4892)
(-3.20657e-18 6.38347 14.7493)
(-3.67324e-18 4.55986 11.9691)
(-3.04446e-18 2.66484 9.1349)
(-1.53666e-18 0.711078 6.14426)
(9.67418e-19 -1.23154 3.0763)
(3.50479e-18 -2.74585 0.638228)
(-7.67812e-19 -3.71324 -1.04548)
(-2.51435e-17 -4.77739 -3.44492)
(-6.32697e-17 -5.11721 -5.04705)
(-6.23221e-17 -2.13352 -2.53176)
(2.29781e-22 15.6986 28.8139)
(-3.90757e-22 17.0615 29.3456)
(-7.63708e-21 14.6211 27.1629)
(-1.54157e-20 13.9394 25.2156)
(-1.62949e-20 12.4702 24.1562)
(1.29251e-20 11.6795 22.8042)
(1.58167e-19 10.3428 21.5705)
(1.82296e-19 9.02222 19.7471)
(-4.25667e-19 7.25047 17.4969)
(-1.65747e-18 5.4212 14.876)
(-2.2058e-18 3.52962 12.2248)
(-5.18847e-19 1.72609 9.61034)
(3.5093e-18 0.0189559 7.12798)
(8.27911e-18 -1.41787 4.9476)
(1.00789e-17 -2.40419 3.26063)
(3.21122e-18 -2.67993 2.34945)
(-1.35719e-17 -1.70289 3.09021)
(-2.92163e-17 1.0966 6.22668)
(-2.71584e-17 4.80447 10.4312)
(-6.01533e-18 5.05983 10.5663)
(-4.32335e-23 14.3926 26.2057)
(3.07874e-21 17.1271 28.8162)
(5.86447e-21 14.2463 25.8455)
(4.05396e-21 13.6045 23.1233)
(-9.50542e-21 11.9654 21.8386)
(-1.94268e-20 11.2957 19.9886)
(7.95887e-21 9.9557 18.578)
(3.06119e-21 8.94076 16.7958)
(-3.81061e-19 7.58317 14.9052)
(-1.39324e-18 6.28293 12.6968)
(-2.19043e-18 4.94552 10.4218)
(-6.77894e-19 3.78355 8.23027)
(4.67595e-18 2.89527 6.40708)
(1.21615e-17 2.534 5.36895)
(1.65001e-17 2.99564 5.6842)
(1.38416e-17 4.38843 7.56941)
(7.00842e-18 6.33728 10.3844)
(1.71741e-18 7.95862 13.0355)
(1.11439e-19 8.86646 14.0844)
(6.17089e-19 6.42337 11.5917)
(2.84505e-23 14.3451 26.0975)
(-1.11178e-21 18.0021 29.5296)
(-1.87492e-21 14.8488 26.5702)
(-1.25841e-21 14.4575 23.4677)
(3.19779e-21 12.8204 22.1489)
(8.33791e-21 12.3787 20.1553)
(4.18697e-21 11.2316 18.6651)
(1.67389e-21 10.527 16.9913)
(5.08694e-20 9.69016 15.5299)
(1.51231e-19 9.02054 14.0974)
(1.28931e-19 8.39368 12.7151)
(-2.04957e-19 7.84474 11.346)
(-7.15805e-19 7.35957 9.99626)
(-9.09911e-19 6.93345 8.72302)
(-4.12903e-19 6.61688 7.68742)
(2.19793e-19 6.43756 7.17631)
(-3.70669e-19 6.44302 7.34)
(-2.76441e-18 6.37435 7.95549)
(-5.36322e-18 5.79343 8.05164)
(-5.09606e-18 3.77009 5.79745)
(-1.04649e-23 14.909 27.2123)
(2.89765e-22 18.7852 30.3632)
(4.61403e-22 15.3158 27.4322)
(3.02172e-22 15.1723 24.4166)
(-7.03075e-22 13.5381 23.1407)
(-1.84712e-21 13.1626 21.2107)
(-1.73792e-21 12.1361 19.743)
(-4.73822e-21 11.4551 18.0999)
(-1.67977e-20 10.6771 16.5831)
(-1.61043e-20 9.9661 15.1045)
(5.47643e-20 9.28402 13.6946)
(2.05831e-19 8.62419 12.3458)
(3.13157e-19 7.97957 11.0428)
(1.75665e-19 7.33734 9.77295)
(-3.23588e-19 6.66831 8.51861)
(-1.11021e-18 5.95975 7.26383)
(-1.98449e-18 5.13451 6.05594)
(-2.74807e-18 4.25628 4.8561)
(-3.0916e-18 2.85059 3.47838)
(-2.96577e-18 1.04733 0.346335)
(2.95511e-24 15.7105 29.1362)
(-6.43555e-23 19.3168 30.6673)
(-1.01268e-22 15.471 28.1621)
(-5.1518e-23 15.8643 25.2881)
(2.04573e-22 13.9909 24.1537)
(4.63947e-22 13.7907 22.1426)
(3.53472e-22 12.6711 20.7421)
(7.7529e-22 12.0697 19.0939)
(2.40998e-21 11.2872 17.6148)
(-6.79699e-22 10.5965 16.1013)
(-1.93759e-20 9.88147 14.5941)
(-4.65533e-20 9.14371 13.0528)
(-3.95978e-20 8.34635 11.4662)
(5.64761e-20 7.46942 9.82038)
(2.59833e-19 6.46558 8.1202)
(5.22751e-19 5.3521 6.32458)
(7.36341e-19 4.01969 4.43352)
(8.41731e-19 2.61299 2.275)
(7.92887e-19 0.416069 -0.16586)
(-6.13798e-19 -0.896089 -3.81201)
(-6.84261e-25 16.4724 31.3912)
(9.0747e-24 19.5407 30.5615)
(1.50286e-23 15.542 29.0004)
(4.93935e-23 16.5044 26.2773)
(1.15867e-22 14.319 25.3247)
(5.7146e-23 14.3655 23.294)
(-6.1358e-22 13.1286 22.0358)
(-2.48983e-21 12.6736 20.4478)
(-4.60234e-21 11.9121 19.105)
(-2.18485e-21 11.326 17.6856)
(1.10617e-20 10.6589 16.2342)
(3.35985e-20 9.90574 14.5954)
(4.9977e-20 8.93631 12.673)
(4.11972e-20 7.69002 10.4053)
(6.0907e-21 6.15025 7.89893)
(-2.69584e-20 4.49553 5.29349)
(-1.32429e-20 2.62032 2.7089)
(1.98547e-19 0.868938 -0.0841477)
(7.4364e-19 -1.86951 -2.99738)
(4.80853e-19 -2.55911 -6.77345)
(-3.07427e-25 16.5695 32.4844)
(-7.24942e-24 19.1647 29.8514)
(1.14733e-24 15.2516 29.2389)
(8.72899e-23 16.4168 26.6155)
(2.20352e-22 14.0366 25.7937)
(-5.38767e-23 14.1423 23.8591)
(-1.59247e-21 12.8016 22.7591)
(-4.39414e-21 12.388 21.313)
(-5.2657e-21 11.5648 20.1528)
(3.20706e-21 10.9687 18.8601)
(2.86941e-20 10.1698 17.4376)
(6.90998e-20 9.14325 15.5471)
(1.08144e-19 7.62834 12.9471)
(1.3483e-19 5.60785 9.60009)
(1.52641e-19 3.38474 6.09029)
(1.26202e-19 1.49534 3.1163)
(5.45768e-20 -0.672578 0.230701)
(-5.36406e-22 -1.09311 -2.43941)
(7.02894e-19 -4.03865 -4.89616)
(9.98986e-19 -3.81397 -8.76343)
(-8.77973e-25 15.7393 31.6798)
(-5.75967e-24 18.4664 28.757)
(1.58331e-23 14.4864 28.3708)
(1.31986e-22 15.4275 25.8786)
(2.29663e-22 13.2432 24.9898)
(-3.33503e-22 13.007 23.26)
(-2.48548e-21 11.8033 22.1254)
(-5.63721e-21 11.1846 20.8165)
(-4.7396e-21 10.3443 19.6842)
(9.66562e-21 9.60294 18.438)
(4.22619e-20 8.64645 16.9388)
(7.87008e-20 7.36464 14.8025)
(9.53608e-20 5.57307 11.7825)
(1.03915e-19 3.50566 8.18237)
(1.31497e-19 1.84209 5.16525)
(1.53091e-19 0.789221 3.20702)
(2.4661e-19 -0.640305 0.624162)
(5.76158e-19 -2.7884 -3.15729)
(1.06593e-18 -4.54976 -5.66456)
(9.22244e-19 -3.06953 -4.86137)
(-1.06494e-24 14.2101 30.5867)
(-5.11822e-24 17.8997 27.4815)
(2.10321e-23 13.2496 27.3529)
(1.33916e-22 14.1018 25.0322)
(2.00285e-22 12.0157 24.1104)
(-3.70624e-22 11.5077 22.5576)
(-2.33613e-21 10.3705 21.3966)
(-5.21264e-21 9.60426 20.1552)
(-5.5301e-21 8.75492 19.0188)
(2.17703e-21 7.96429 17.8293)
(1.90098e-20 7.08567 16.4783)
(3.61539e-20 6.0707 14.7696)
(4.6632e-20 4.90997 12.6217)
(7.13767e-20 3.73396 10.1513)
(1.55278e-19 2.63379 7.54474)
(3.19301e-19 1.47978 4.7962)
(5.48479e-19 0.1644 1.73402)
(8.37883e-19 -1.09874 -1.44801)
(1.12366e-18 -1.77108 -3.18036)
(9.57755e-19 -0.127654 1.10252)
(-6.86296e-25 11.1377 28.4495)
(-2.87458e-24 16.9404 24.7662)
(1.13575e-23 11.9048 25.1627)
(8.08969e-23 12.5704 23.4219)
(1.61865e-22 10.8214 22.6634)
(-5.24942e-23 10.1518 21.5557)
(-1.15952e-21 9.14488 20.63)
(-3.68804e-21 8.35909 19.6795)
(-7.42253e-21 7.57697 18.7845)
(-1.06959e-20 6.8811 17.9133)
(-1.02539e-20 6.24171 17.0704)
(-3.16618e-21 5.67165 16.2214)
(9.26817e-21 5.15166 15.296)
(2.1494e-20 4.65396 14.1912)
(3.2661e-20 4.14765 12.8235)
(5.39728e-20 3.58197 11.131)
(1.0107e-19 2.88595 8.97813)
(1.82907e-19 2.04051 6.05233)
(2.89719e-19 0.885676 2.17469)
(2.81971e-19 -0.473414 -1.33422)
(-3.59514e-25 2.59551 17.0774)
(-7.98269e-25 8.05264 13.6512)
(4.24185e-24 5.17422 14.5001)
(2.704e-23 5.00026 14.0966)
(6.49149e-23 4.08951 14.0468)
(3.86444e-23 3.54104 13.8626)
(-2.73411e-22 2.98439 13.6968)
(-1.19556e-21 2.53736 13.504)
(-2.94531e-21 2.15704 13.3012)
(-5.38387e-21 1.85328 13.0835)
(-7.99249e-21 1.6165 12.8467)
(-1.017e-20 1.44255 12.5823)
(-1.16415e-20 1.3281 12.2849)
(-1.27303e-20 1.28506 11.9477)
(-1.42321e-20 1.33587 11.5599)
(-1.65293e-20 1.45283 11.1339)
(-1.84637e-20 1.65735 10.631)
(-1.7549e-20 2.22452 9.75342)
(-1.176e-20 2.36345 8.42494)
(-2.14757e-21 -0.268557 6.30565)
(3.68108e-25 -2.59558 17.0775)
(8.16238e-25 -8.05267 13.6514)
(-4.35037e-24 -5.17425 14.5002)
(-2.7687e-23 -5.00028 14.0967)
(-6.63451e-23 -4.08953 14.0469)
(-3.90412e-23 -3.54105 13.8627)
(2.80886e-22 -2.9844 13.6969)
(1.22351e-21 -2.53738 13.5041)
(3.00705e-21 -2.15707 13.3014)
(5.4855e-21 -1.85328 13.0836)
(8.13418e-21 -1.61646 12.8467)
(1.03657e-20 -1.44245 12.5822)
(1.19456e-20 -1.32794 12.2847)
(1.32406e-20 -1.28488 11.9474)
(1.50349e-20 -1.33569 11.5597)
(1.75982e-20 -1.45267 11.1337)
(1.95949e-20 -1.65721 10.631)
(1.84418e-20 -2.22435 9.75344)
(1.22133e-20 -2.36323 8.425)
(2.19037e-21 0.268562 6.30553)
(7.02684e-25 -11.1377 28.4498)
(2.93902e-24 -16.9406 24.7663)
(-1.16262e-23 -11.9049 25.1628)
(-8.27288e-23 -12.5707 23.4219)
(-1.65408e-22 -10.8217 22.6634)
(5.39857e-23 -10.1521 21.5556)
(1.18584e-21 -9.14529 20.6298)
(3.77059e-21 -8.35959 19.6793)
(7.58921e-21 -7.57757 18.7842)
(1.09396e-20 -6.88184 17.913)
(1.04949e-20 -6.24264 17.0701)
(3.25202e-21 -5.6728 16.2213)
(-9.50581e-21 -5.15297 15.296)
(-2.22534e-20 -4.65529 14.1913)
(-3.43713e-20 -4.14893 12.8238)
(-5.73695e-20 -3.58314 11.1317)
(-1.06773e-19 -2.88691 8.97893)
(-1.91017e-19 -2.0412 6.0528)
(-2.99892e-19 -0.886485 2.17449)
(-2.90333e-19 0.47182 -1.33434)
(1.08801e-24 -14.2098 30.5863)
(5.22145e-24 -17.8996 27.4808)
(-2.15388e-23 -13.2493 27.3522)
(-1.3693e-22 -14.1016 25.0313)
(-2.04446e-22 -12.0155 24.1094)
(3.79776e-22 -11.5076 22.5564)
(2.3875e-21 -10.3704 21.3953)
(5.31954e-21 -9.6041 20.1538)
(5.63647e-21 -8.75472 19.0173)
(-2.19166e-21 -7.96406 17.8276)
(-1.92013e-20 -7.08546 16.4764)
(-3.65208e-20 -6.07085 14.7681)
(-4.78302e-20 -4.91114 12.6214)
(-7.58386e-20 -3.73667 10.1533)
(-1.66729e-19 -2.63765 7.54877)
(-3.39732e-19 -1.48394 4.80103)
(-5.76245e-19 -0.168494 1.73826)
(-8.70831e-19 1.09579 -1.44645)
(-1.1597e-18 1.76989 -3.18209)
(-9.81294e-19 0.117188 1.11937)
(9.02943e-25 -15.7389 31.6787)