/*--------------------------------*- C++ -*----------------------------------*\
| =========                 |                                                 |
| \\      /  F ield         | OpenFOAM: The Open Source CFD Toolbox           |
|  \\    /   O peration     | Version:  4.1                                   |
|   \\  /    A nd           | Web:      www.OpenFOAM.org                      |
|    \\/     M anipulation  |                                                 |
\*---------------------------------------------------------------------------*/
FoamFile
{
    version     2.0;
    format      ascii;
    class       volScalarField;
    location    "3";
    object      p;
}
// * * * * * * * * * * * * * * * * * * * * * * * * * * * * * * * * * * * * * //

dimensions      [0 2 -2 0 0 0 0];

internalField   nonuniform List<scalar> 
1280
(
0.333082
0.495532
1.16432
1.88768
2.50517
2.95357
3.17239
3.43315
3.60129
3.67459
3.74262
3.83795
3.58919
3.58455
4.0701
2.76984
2.4362
2.55996
2.64849
-3.21169
3.9247
14.3974
23.1902
25.2249
25.4299
27.0546
5.68273
10.0858
8.67723
8.5454
8.16152
7.53301
7.13533
6.76275
6.51055
6.39798
6.21837
6.41416
6.19454
5.76442
-13.2687
-10.6824
-6.00986
-2.6378
2.07552
2.44205
2.62181
2.83825
3.62907
3.4418
3.42276
3.50884
2.82203
2.60854
2.43251
2.09362
-2.68088
-6.1108
-10.8454
-13.4334
5.59078
6.028
6.23142
6.02328
6.19179
6.29439
6.53868
6.90432
7.2963
7.91868
8.29792
8.42909
9.82882
5.27283
26.7766
25.1705
24.9891
23.0029
14.2508
3.76339
-3.41804
2.48424
2.3859
2.22427
2.56783
3.87424
3.30924
3.32159
3.62123
3.44839
3.3519
3.28688
3.15018
2.95496
2.79064
2.45638
1.88245
1.17729
0.509796
0.325635
0.0253558
0.103847
0.133657
0.196765
0.26212
0.357288
0.492268
0.6568
0.640376
-0.407473
-2.00491
-3.12562
-6.63524
-2.75788
0.803093
2.38278
2.57928
1.12726
0.443222
0.0359972
0.210978
0.26748
0.393081
0.495594
0.610674
0.70636
0.701144
0.353918
-0.805404
-2.48283
-2.79804
-8.78136
-1.85259
3.73924
6.34638
5.97455
2.84011
1.41972
0.0554824
0.352746
0.455121
0.670241
0.844169
1.02564
1.14722
1.07253
0.475232
-0.889731
-2.41813
-3.70398
-10.322
-1.69476
5.60197
8.75824
8.14899
3.91866
2.37529
0.0564471
0.451008
0.57561
0.84183
1.02962
1.17758
1.16728
0.852847
-0.00398639
-1.27172
-2.61974
-7.47646
-11.5712
-2.73365
7.58862
11.5151
10.6293
5.33647
3.47284
0.0515223
0.541144
0.677932
0.976329
1.15015
1.2477
1.15808
0.819704
0.142972
-0.726297
-2.45253
-10.472
-11.6666
-3.53859
10.2643
14.7351
12.8749
5.90849
3.78052
0.0332121
0.605123
0.740118
1.05538
1.19685
1.22344
1.12103
1.0112
0.874233
0.629854
-1.37853
-11.0218
-11.396
-4.65998
12.7608
18.0997
14.9955
7.8106
5.22578
0.00525266
0.646898
0.762173
1.05735
1.15531
1.2128
1.27627
1.51177
1.83668
2.0141
0.179671
-8.79101
-10.5295
-3.03615
16.3327
21.601
15.4759
4.07183
3.7201
-0.0284088
0.664183
0.761233
1.05595
1.15036
1.25934
1.51736
2.05217
2.65443
3.01229
1.53013
-5.78468
-10.238
-2.61761
17.1933
25.3325
18.6538
10.7852
3.60105
-0.057678
0.664041
0.757331
1.05098
1.16376
1.33817
1.77923
2.46382
3.04648
3.23536
1.98275
-2.78296
-5.88527
1.4282
18.6033
24.3214
21.4143
28.0296
17.5095
-0.0706259
0.661538
0.756733
1.05667
1.19001
1.40748
1.9456
2.68824
3.20384
3.24962
2.04442
-1.95531
-4.63533
2.88219
18.8492
24.4019
24.7255
35.31
16.7213
-0.0694192
0.664576
0.760147
1.05958
1.1894
1.40104
1.9331
2.67447
3.1922
3.25134
2.06856
-1.93122
-4.6084
2.89788
18.8225
24.2549
24.763
35.4339
16.9475
-0.057823
0.663106
0.756397
1.0534
1.17117
1.35285
1.78739
2.44554
2.98439
3.16145
1.95271
-2.78488
-5.78753
1.62335
19.1042
24.5378
21.7721
28.305
17.4814
-0.0271899
0.667853
0.766823
1.06374
1.15957
1.2785
1.53169
2.03669
2.58572
2.91083
1.42818
-5.94417
-10.1607
-2.35736
17.9971
25.877
18.6137
10.2047
3.3714
0.00582542
0.6489
0.765513
1.06457
1.16782
1.2361
1.29973
1.51451
1.79335
1.93416
0.0644277
-9.0049
-10.4123
-2.59983
17.0264
22.205
15.3614
3.53265
3.70708
0.0339452
0.608204
0.745946
1.06575
1.21238
1.24755
1.14883
1.02773
0.856281
0.580785
-1.48037
-11.2436
-11.4049
-4.12517
13.3999
18.6875
15.0018
7.64143
5.21998
0.052177
0.543961
0.683012
0.98481
1.1629
1.26772
1.18474
0.845078
0.150776
-0.73738
-2.52164
-10.6074
-11.8017
-3.04516
10.7874
15.2259
12.9474
5.80654
3.77558
0.0570068
0.453451
0.580142
0.849584
1.04148
1.19512
1.19063
0.880329
0.0240977
-1.24911
-2.67401
-7.47016
-11.6857
-2.31749
8.00631
11.9284
10.729
5.33431
3.49232
0.0559385
0.354693
0.458744
0.676344
0.853272
1.03848
1.16381
1.09234
0.497786
-0.886696
-2.53052
-3.76137
-10.265
-1.36648
5.92961
9.07508
8.23725
3.9541
2.38626
0.0362938
0.212202
0.269728
0.396814
0.50109
0.618235
0.715726
0.711631
0.36376
-0.826133
-2.61993
-3.11583
-8.60908
-1.6067
4.00388
6.59189
6.04624
2.87726
1.41195
0.0254739
0.10432
0.134532
0.198254
0.2644
0.360463
0.495795
0.658361
0.632205
-0.438073
-2.02235
-3.50111
-6.56116
-2.61679
0.935229
2.52123
2.61425
1.14941
0.429571
94.7562
93.9319
93.5959
92.3517
91.661
90.6293
89.785
88.5712
87.1662
85.7608
84.438
83.0806
81.8401
80.6169
79.5814
78.6017
77.8498
77.1656
76.7238
76.2472
71.9878
72.2834
72.6827
72.5571
73.0915
73.2224
73.6099
73.7342
73.919
73.9552
74.0042
73.9684
73.9381
73.8498
73.7728
73.6699
73.578
73.5008
73.4294
73.4
77.3716
77.0618
77.2924
76.9005
77.1693
76.9429
77.1482
76.9941
77.0752
76.992
76.99
76.9275
76.887
76.8244
76.7635
76.7042
76.6286
76.5827
76.504
76.4527
73.8245
73.7634
74.0338
73.9038
74.3055
74.0939
74.526
74.3828
74.6275
74.6256
74.7467
74.7985
74.8719
74.9327
74.983
75.0447
75.0756
75.1409
75.1524
75.2198
75.089
74.8965
75.1364
74.8983
75.338
74.9181
75.3107
75.0714
75.2355
75.178
75.2321
75.2413
75.2677
75.2965
75.3163
75.3543
75.3676
75.4116
75.4164
75.4546
73.667
73.5292
73.9534
73.5853
74.2242
73.8194
74.1956
74.0629
74.2074
74.2234
74.2973
74.3582
74.4243
74.501
74.5685
74.6569
74.7195
74.8191
74.8632
74.9679
70.8865
70.8986
71.5256
71.1724
71.8613
71.6458
71.9869
72.0266
72.1948
72.3219
72.4628
72.6105
72.7569
72.9171
73.067
73.2422
73.3819
73.5795
73.677
73.9025
64.8746
65.2993
65.9946
65.9202
66.6254
66.6942
67.1098
67.3691
67.6735
67.9752
68.2741
68.5827
68.8877
69.2058
69.5083
69.8425
70.1193
70.4876
70.68
71.1099
55.9007
56.7191
57.5181
57.6256
58.4876
58.7666
59.3654
59.8359
60.3382
60.8455
61.348
61.8596
62.3664
62.8865
63.3838
63.9215
64.375
64.9593
65.2774
65.9653
44.3762
45.3234
46.4213
46.4488
47.6322
47.9398
48.777
49.3778
50.065
50.747
51.4313
52.1289
52.8227
53.534
54.2172
54.9507
55.5776
56.3697
56.822
57.7707
32.3717
33.1363
34.4973
34.2397
35.721
35.7892
36.8161
37.3305
38.0841
38.7817
39.5072
40.2538
41.0033
41.7805
42.5309
43.3429
44.0373
44.9225
45.4431
46.489
22.2495
22.5797
24.0536
23.4356
25.1255
24.7717
25.9395
26.1755
26.9031
27.4487
28.0711
28.7055
29.347
30.0227
30.672
31.3901
31.9841
32.7874
33.2063
34.2352
14.3582
14.3545
16.0499
15.125
17.1765
16.5113
17.9366
18.0143
18.8355
19.3207
19.9297
20.5116
21.0857
21.6743
22.2174
22.8076
23.2595
23.8892
24.1274
24.9248
4.03278
4.0589
6.53582
5.45928
8.3494
7.73777
9.75225
10.1125
11.372
12.2195
13.2085
14.1472
15.0615
15.964
16.7942
17.6199
18.2769
19.0089
19.3447
19.9978
-17.6669
-18.0881
-14.514
-15.9054
-12.0014
-12.4354
-9.68394
-8.75322
-6.8024
-5.21678
-3.44972
-1.67786
0.111096
1.93123
3.70766
5.49243
7.10754
8.75889
9.9735
11.7868
-39.8685
-42.8465
-39.8875
-43.4743
-40.6309
-42.7364
-41.3761
-41.8541
-41.2357
-40.9317
-40.3771
-39.7748
-39.0878
-38.2379
-37.1811
-35.6284
-33.8574
-30.997
-28.8284
-25.6299
-16.5739
-22.3926
-20.8325
-28.3299
-29.0011
-34.5206
-37.3408
-41.5596
-44.968
-48.5512
-51.7979
-54.8358
-57.4544
-59.3581
-60.2238
-60.1102
-59.8175
-59.3898
-59.0742
-57.0685
8.12972
-0.278522
6.9893
-1.18281
-0.304631
-4.9576
-7.54369
-11.5066
-15.2423
-19.3339
-23.4732
-27.6937
-31.7633
-35.3173
-37.802
-39.1821
-40.2018
-40.8016
-42.2602
-42.8028
33.9421
11.2038
19.4439
8.31876
5.72976
-0.864336
-5.66369
-10.8112
-15.2062
-19.097
-22.2202
-24.5222
-25.8704
-26.0578
-24.7601
-22.2977
-19.3549
-15.7352
-12.6676
-12.0857
712.199
629.911
581.104
525.139
476.343
429.187
385.276
343.724
304.54
267.437
232.249
198.806
166.976
136.809
108.461
81.0845
54.5308
32.7392
8.15386
-28.9222
712.081
629.796
580.991
525.028
476.234
429.079
385.169
343.617
304.433
267.33
232.142
198.698
166.866
136.698
108.348
80.9671
54.408
32.6092
8.01963
-29.0539
33.8728
11.1367
19.3776
8.25371
5.66546
-0.928285
-5.72779
-10.8761
-15.2726
-19.1658
-22.2921
-24.5979
-25.9501
-26.1407
-24.8456
-22.3887
-19.4506
-15.8305
-12.7607
-12.1793
8.09884
-0.310519
6.95671
-1.21654
-0.339493
-4.9944
-7.58263
-11.5487
-15.2886
-19.3855
-23.531
-27.758
-31.8338
-35.3928
-37.8816
-39.2729
-40.3179
-40.9016
-42.3542
-42.9043
-16.6111
-22.4374
-20.8788
-28.3787
-29.0508
-34.5699
-37.3889
-41.6055
-45.0111
-48.5912
-51.8331
-54.8644
-57.4738
-59.3662
-60.2226
-60.1122
-59.825
-59.4104
-59.1085
-57.1162
-40.1089
-43.0965
-40.1438
-43.7388
-40.9055
-43.0206
-41.6721
-42.1628
-41.5584
-41.2705
-40.7335
-40.1511
-39.486
-38.6585
-37.6227
-36.0876
-34.3284
-31.4485
-29.2796
-26.0793
-17.9662
-18.3893
-14.8141
-16.2076
-12.3042
-12.7395
-9.98924
-9.05934
-7.10935
-5.52417
-3.75728
-1.98515
-0.195515
1.62591
3.40422
5.19174
6.81049
8.46606
9.68533
11.5072
3.77011
3.79917
6.27935
5.2037
8.09662
7.48712
9.5035
9.86642
11.1279
11.9779
12.9691
13.9103
14.8268
15.7317
16.5641
17.3921
18.0512
18.7853
19.1228
19.7778
14.128
14.1266
15.8238
14.8995
16.9529
16.289
17.7154
17.7947
18.6169
19.1033
19.7133
20.2962
20.8711
21.4605
22.0043
22.5951
23.0474
23.6776
23.916
24.7136
22.0313
22.3623
23.8369
23.2189
24.9098
24.5562
25.7245
25.9608
26.6886
27.2344
27.8569
28.4914
29.1329
29.8087
30.458
31.1761
31.7699
32.5733
32.9916
34.0227
32.1639
32.9291
34.2909
34.0334
35.5157
35.5838
36.6115
37.126
37.8801
38.5781
39.304
40.0513
40.8015
41.5795
42.3308
43.144
43.8395
44.7261
45.2478
46.2959
44.1831
45.1313
46.2304
46.2584
47.4432
47.7512
48.5896
49.1911
49.8793
50.5622
51.2477
51.9464
52.6415
53.3543
54.039
54.7742
55.4027
56.1968
56.6506
57.6012
55.7245
56.544
57.3441
57.4524
58.3158
58.5955
59.1955
59.667
60.1703
60.6787
61.1824
61.6952
62.2032
62.7247
63.2232
63.7623
64.2171
64.803
65.122
65.8116
64.7068
65.1328
65.8286
65.7557
66.4619
66.5317
66.9483
67.2087
67.5141
67.817
68.117
68.4268
68.7329
69.0521
69.3556
69.691
69.9687
70.3383
70.5313
70.9624
70.7289
70.7426
71.3697
71.0186
71.7077
71.4935
71.835
71.8759
72.0447
72.1729
72.3146
72.4633
72.6105
72.7715
72.9221
73.0982
73.2385
73.4369
73.5349
73.7614
73.5149
73.3789
73.8037
73.4367
74.0759
73.6726
74.0485
73.9176
74.0621
74.0796
74.154
74.2159
74.2826
74.3602
74.4282
74.5174
74.5805
74.681
74.7254
74.8311
74.9452
74.7543
74.9945
74.7561
75.1978
74.7786
75.1705
74.9337
75.0971
75.0414
75.0956
75.1058
75.1327
75.1623
75.1825
75.2213
75.2348
75.2797
75.2847
75.3238
73.6867
73.6268
73.8988
73.7683
74.1712
73.9596
74.3915
74.251
74.4946
74.4947
74.6157
74.6687
74.7424
74.8039
74.8548
74.9171
74.9484
75.0145
75.0262
75.0945
77.2475
76.9387
77.1707
76.7779
77.0481
76.8223
77.027
76.8747
76.9548
76.8727
76.8702
76.8082
76.7676
76.7052
76.6444
76.5853
76.5098
76.4642
76.3856
76.3346
71.8718
72.1669
72.5677
72.4423
72.9769
73.1074
73.4939
73.6183
73.8021
73.8384
73.8869
73.8511
73.8205
73.7321
73.6548
73.552
73.4598
73.3828
73.3112
73.2818
94.6484
93.8226
93.4871
92.2406
91.5493
90.5163
89.6707
88.4566
87.0514
85.646
84.3222
82.9637
81.7212
80.4964
79.459
78.4784
77.7257
77.0412
76.5993
76.1204
)
;

boundaryField
{
    outletWall
    {
        type            fixedValue;
        value           uniform 0;
    }
    fineWalls
    {
        type            zeroGradient;
    }
    fineFrontAndBack
    {
        type            zeroGradient;
    }
    fineplugLeft
    {
        type            cyclicAMI;
        value           nonuniform List<scalar> 
20
(
62.1507
62.6179
63.0153
63.5235
64.161
64.9672
65.8461
66.8992
67.9711
69.1827
70.3177
71.4684
72.8742
80.2219
77.9144
78.4148
78.9264
79.5148
78.025
76.5899
)
;
    }
    fineplugRight
    {
        type            cyclicAMI;
        value           nonuniform List<scalar> 
20
(
62.0145
62.4851
62.8792
63.3852
64.0211
64.826
65.7049
66.7579
67.8302
69.0415
70.1764
71.3269
72.731
80.074
77.7684
78.2735
78.7903
79.3902
77.9082
76.4714
)
;
    }
    inletOutletLeft
    {
        type            cyclicAMI;
        value           nonuniform List<scalar> 
20
(
62.1507
62.6179
63.0153
63.5235
64.161
64.9672
65.8461
66.8992
67.9711
69.1827
70.3177
71.4684
72.8742
80.2219
77.9144
78.4148
78.9264
79.5148
78.025
76.5899
)
;
    }
    inletLeft
    {
        type            zeroGradient;
    }
    inletWallsLeft
    {
        type            zeroGradient;
    }
    inletFacesLeft
    {
        type            zeroGradient;
    }
    inletOutletRight
    {
        type            cyclicAMI;
        value           nonuniform List<scalar> 
20
(
62.0145
62.4851
62.8792
63.3852
64.0211
64.826
65.7049
66.7579
67.8302
69.0415
70.1764
71.3269
72.731
80.074
77.7684
78.2735
78.7903
79.3902
77.9082
76.4714
)
;
    }
    inletRight
    {
        type            zeroGradient;
    }
    inletWallsRight
    {
        type            zeroGradient;
    }
    inletFacesRight
    {
        type            zeroGradient;
    }
}


// ************************************************************************* //
