/*--------------------------------*- C++ -*----------------------------------*\
| =========                 |                                                 |
| \\      /  F ield         | OpenFOAM: The Open Source CFD Toolbox           |
|  \\    /   O peration     | Version:  4.1                                   |
|   \\  /    A nd           | Web:      www.OpenFOAM.org                      |
|    \\/     M anipulation  |                                                 |
\*---------------------------------------------------------------------------*/
FoamFile
{
    version     2.0;
    format      ascii;
    class       surfaceScalarField;
    location    "3";
    object      phi;
}
// * * * * * * * * * * * * * * * * * * * * * * * * * * * * * * * * * * * * * //

dimensions      [0 3 -1 0 0 0 0];

internalField   nonuniform List<scalar> 
2360
(
-3926.85
-2846.71
-1080.14
-2846.71
-2846.71
-1507.77
-1338.94
-1507.77
-1507.76
-1507.77
160.084
-1667.85
160.085
160.087
2176.6
-2016.51
2176.6
2176.59
4211.33
-2034.73
4211.32
4211.33
6929.26
-2717.93
6929.27
6929.26
7896.15
9267.66
10566.9
11680.9
12647.3
13529.7
12931.3
1455.4
13800.1
14680.5
15569.9
16465.4
17370.5
18285.6
19215.8
20157.5
21113.9
22076.3
23054.9
24022.2
24973.7
7718.58
17255.1
7718.58
7718.59
7718.59
-1261.06
8979.65
-1261.06
-1261.06
-1261.06
-29.0756
-1231.99
-29.0688
-29.0676
1253.92
-1282.98
1253.91
1253.92
1253.91
-7770.45
9024.36
-7770.45
-7770.45
-7770.45
-24980.1
17209.7
-24029.2
-23061.7
-22082.8
-21120
-20163.3
-19221.3
-18290.9
-17375.7
-16470.5
-15575
-14685.4
-13804.9
-12935.9
-13569.1
1490.48
-12686.7
-11720.8
-10607.7
-9309.51
-7938.5
-6970.63
-6970.63
-6970.63
-4304.28
-2666.35
-4304.28
-4304.28
-2301.02
-2003.26
-2301.02
-2301.02
-319.835
-1981.18
-319.835
-319.834
1344.3
-1664.13
1344.3
1344.3
1344.3
2672.52
-1328.22
2672.52
2672.52
3741.72
-1069.21
-1400.07
-2285.49
-1590.39
-3283.22
-1833.88
-3738.98
-2168.85
-4317.03
-2644.2
-4793.84
-3339.22
-5214.39
-4309.26
-5671.9
-5509.47
-6505.17
-6585.96
-7922.15
-6481.93
-8891.21
-4189.33
-5716.28
-1756.28
3858.92
-842.552
11659.3
-204.432
14423
296.146
13811.1
739.798
11581.8
1026.32
7328.57
1214.64
5366.65
-401.992
-1822.91
-2156.2
-2065.11
-3041.01
-2395.07
-3409.02
-2875.9
-3836.2
-3593.63
-4076.11
-4641.31
-4166.71
-6024.96
-4288.25
-7606.73
-4923.4
-8965.89
-6562.99
-8979.05
-8878.04
-5955.4
-8739.93
-1878.43
-218.053
-828.386
10609.3
-512.81
14107.4
84.797
13213.5
732.384
10934.2
1252.87
6808.08
1555.93
5063.6
-174.281
-2093.73
-2000.9
-2376.54
-2758.2
-2786.64
-2998.92
-3406.77
-3216.07
-4325.42
-3157.46
-5567.01
-2925.12
-6998.49
-2856.77
-8364.57
-3557.33
-9358.16
-5569.4
-9467.37
-8768.83
-7514.27
-10693
-3056.01
-4676.31
-885.02
8438.3
-792.285
14014.7
-314.831
12736.1
634.862
9984.52
1455.02
5987.92
1894.84
4623.78
56.4253
-2416.03
-1806.57
-2766.96
-2407.26
-3295.66
-2470.23
-4099.65
-2412.08
-5213.76
-2043.35
-6503.5
-1635.38
-7636.74
-1723.53
-8276.54
-2917.53
-8360.42
-5485.51
-8108.7
-9020.55
-7245.88
-11555.8
-4354.45
-7567.75
-1664.34
5748.19
-1063.14
13413.5
-849.528
12522.4
387.253
8747.73
1590.6
4784.58
2177.09
4037.28
252.334
-2763.98
-1564.33
-3202.6
-1968.64
-3868.97
-1803.87
-4830.76
-1450.28
-5975.3
-898.816
-6941.46
-669.228
-7295.53
-1369.46
-6934.26
-3278.79
-6323.31
-6096.47
-6199.77
-9144.09
-6614.91
-11140.7
-5822.09
-8360.57
-3301.12
3227.22
-1777.97
11890.3
-1384.16
12128.6
99.9547
7263.62
1852.33
3032.2
2456.19
3433.42
705.27
-3147.29
-1265.68
-3677.88
-1438.05
-4438
-1043.74
-5389.73
-498.555
-6223.3
-65.2499
-6500.2
-392.323
-6084.89
-1784.77
-5421.15
-3942.53
-5292.79
-6224.83
-6241.78
-8195.1
-7892.05
-9490.44
-8299.29
-7953.33
-5797.78
725.704
-3299.57
9392.12
-2147
10976.1
-277.393
5394.01
1906.18
848.627
2729.89
2609.71
768.809
-3551.44
-918.813
-4115.11
-874.379
-4786.35
-372.504
-5398.13
113.227
-5649.93
186.55
-5395.62
-646.628
-4948.54
-2231.85
-4973.39
-3917.67
-6033.77
-5164.45
-8200.67
-6028.19
-10753.8
-6937.33
-11804.4
-6902.68
-9186.67
-1892.06
-5391.77
5597.23
-2631.57
8215.87
137.491
2624.95
2879.38
-1893.26
4741.68
747.417
7000.97
-3926.44
-561.58
-4401.42
-399.398
-4797.24
23.3181
-4982.11
298.099
-4860.95
65.3858
-4620.29
-887.285
-4747.6
-2104.55
-5699.86
-2965.41
-7635.21
-3229.1
-10346.6
-3316.8
-13273.8
-4010.13
-15152.9
-5023.6
-13533.4
-3511.58
-9089.5
1153.36
-5330.96
4457.33
-5528.66
2822.65
-8581.63
1159.7
-12236.2
4401.96
11974.5
-4212.73
-243.934
-4512.69
-99.445
-4611.74
122.372
-4495.56
181.916
-4317.26
-112.909
-4473.41
-731.138
-5295.97
-1281.99
-6821.17
-1440.21
-8851.46
-1198.81
-11169.8
-998.448
-13763.2
-1416.79
-16526.5
-2260.21
-18009.9
-2028.2
-16749.4
-107.183
-14340.2
2048.13
-13975.3
2457.77
-14744.8
1929.26
-13843
3500.07
7155.87
-4351.53
-6.4445
-4429.95
-21.0187
-4265.83
-41.7508
-4018.87
-65.0387
-4060.67
-71.1115
-4751.09
-40.7159
-6044.97
11.8898
-7555.98
70.803
-8866.81
112.015
-9953.9
88.643
-11367.9
-2.8257
-13539.1
-89.0192
-15443.3
-123.961
-15452
-98.5152
-13394.4
-9.41168
-11074
137.379
-9315.35
170.58
-5924.31
109.03
-51.4187
-4361.57
237.133
-4459.5
76.912
-4329.8
-171.449
-4123.86
-270.981
-4185.9
-9.07543
-4855.25
628.637
-6094.98
1251.62
-7543.15
1518.97
-8806.39
1375.26
-9890.26
1172.51
-11360.4
1467.35
-13599.7
2150.26
-15501.9
1778.17
-15425.8
-174.604
-13230.2
-2204.93
-10769.8
-2323.08
-8988.72
-1610.49
-5716.57
-3163.11
-6999.98
-4215.49
557.182
-4525.2
386.627
-4650
-46.6563
-4582.91
-338.073
-4461.03
-130.947
-4640.92
808.524
-5427.4
2038.1
-6858.47
2950.05
-8771.2
3287.99
-11022.4
3423.69
-13657.3
4102.25
-16521.5
5014.49
-18043.9
3300.56
-16797.1
-1421.42
-14481.2
-4520.85
-14182.6
-2621.63
-14852.8
-940.262
-13836.7
-4179.28
-11857
-3929.06
915.745
-4408.61
866.173
-4815.6
360.339
-5026.52
-127.15
-4951.09
-206.384
-4756.4
613.838
-4898.15
2179.85
-5809.13
3861.03
-7656.07
5134.93
-10281.9
6049.55
-13177.5
6997.86
-15061.8
6898.7
-13441.7
1680.5
-9075.91
-5787.2
-5516.94
-8079.82
-5956.47
-2182.11
-8989.07
2092.34
-12430.3
-738.012
-7032.21
-3553.8
1263.71
-4120.98
1433.35
-4799.55
1038.91
-5425.5
498.799
-5704.07
72.1854
-5487.52
397.285
-5075.85
1768.18
-5110.06
3895.23
-6139.68
6164.56
-8251.44
8161.31
-10755.4
9501.77
-11762.4
7905.72
-9136.09
-945.785
-5374.86
-9548.43
-2605.18
-10849.5
172.491
-4959.78
2886.6
-621.772
4786.49
-2637.9
-790.314
-3149.73
1563.34
-3682.85
1966.47
-4446.77
1802.84
-5403.77
1455.8
-6248.36
916.776
-6548.56
697.489
-6170.93
1390.55
-5547.63
3271.93
-5443.96
6060.89
-6392.26
9109.61
-8008.91
11118.4
-8321.14
8217.94
-5771.77
-3495.15
-3303.25
-12016.9
-2154.37
-11998.4
-139.629
-6974.52
2060.35
-2821.75
2810.84
-3388.39
-697.404
-2766.19
1806.37
-3206.65
2406.93
-3875.05
2471.24
-4837.63
2418.39
-5982.38
2061.53
-6954.91
1670.02
-7333.61
1769.24
-7021.08
2959.4
-6473.38
5513.18
-6400.66
9036.89
-6798.85
11516.6
-5863.99
7283.09
-3278.98
-6080.16
-1791.33
-13504.6
-1386.33
-12403.4
176.043
-8536.9
1944.97
-4590.67
2515.02
-3958.45
-217.11
-2417.86
2001.32
-2770.23
2759.3
-3300.53
3001.54
-4104.8
3222.66
-5216.36
3173.08
-6502.77
2956.43
-7641.16
2907.64
-8307.53
3625.78
-8442.99
5648.65
-8239.06
8832.95
-7345.9
10623.5
-4327.88
4265.07
-1644.51
-8763.53
-1086.42
-14062.7
-838.585
-12651.2
437.611
-9813.09
1651.51
-5804.58
2227.04
-4533.97
-6.58105
-2095.15
2157.06
-2379.03
3043.18
-2790.52
3413.02
-3411.39
3843.53
-4328.36
4090.04
-5564.74
4192.81
-6990.19
4333.08
-8356.27
4991.85
-9359.04
6651.42
-9463.46
8937.37
-7442.72
8602.71
-2974.12
-203.522
-888.384
-10849.3
-804.253
-14146.8
-296.42
-13159
668.882
-10778.4
1496.85
-6632.54
1925.38
-4962.5
250.949
-1823.93
2286.65
-2066.89
3286.14
-2397.95
3744.09
-2879.8
4325.38
-3597.17
4807.42
-4641.06
5236.7
-6016.05
5708.08
-7584.36
6560.16
-8922.02
7989.08
-8888.03
8903.38
-5791.26
5505.94
-1805.25
-4189.53
-835.27
-11819.2
-506.004
-14476.1
102.165
-13767.2
755.077
-11431.3
1279.82
-7157.29
1572.4
-5255.07
484.403
-1400.57
-1591.27
-1835.38
-2171.1
-2646.83
-3340.53
-4305.4
-5493.61
-6545.62
-6400.45
-4094.11
-1721.47
-828.602
-191.329
311.66
752.684
1042.21
1224.03
146.357
-1113.25
346.824
-1571.99
485.995
-1438.44
554.393
-1182.38
588.803
-1000.77
605.447
-899.139
613.946
-865.501
611.064
-865.887
604.958
-874.284
594.312
-878.808
578.473
-879.659
554.871
-881.47
520.765
-880.997
474.522
-883.945
416.398
-883.609
347.963
-888.026
272.674
-887.118
192
-897.849
111.506
-886.817
-840.037
66.6417
-1179.9
146.934
-1652.29
168.969
-1460.48
144.979
-1158.4
132.265
-988.066
129.025
-895.91
142.746
-879.232
152.536
-875.687
157.441
-879.199
156.265
-877.641
152.393
-875.796
146.054
-875.14
138.903
-873.855
129.799
-874.848
120.02
-873.838
107.105
-875.118
93.1833
-873.202
73.2014
-877.873
58.1382
-871.76
-781.899
54.3228
-1234.23
118.334
-1716.31
92.0337
-1434.19
44.4956
-1110.87
45.4763
-989.056
63.8854
-914.33
88.7605
-904.116
104.793
-891.729
115.907
-890.321
121.053
-882.796
123.086
-877.836
121.399
-873.461
117.605
-870.067
110.817
-868.067
102.939
-865.966
92.207
-864.391
80.6155
-861.615
63.9264
-861.188
47.9037
-855.742
-733.996
66.3584
-1300.58
69.6123
-1719.57
-3.75317
-1360.82
-31.5306
-1083.1
-5.37428
-1015.21
29.7634
-949.47
60.441
-934.796
80.3546
-911.645
92.5524
-902.521
99.4803
-889.727
103.07
-881.427
103.708
-874.102
102.366
-868.725
98.7376
-864.441
93.7729
-861.002
86.4759
-857.095
77.1871
-852.326
62.5988
-846.599
43.7711
-836.915
-690.224
78.1671
-1378.76
31.1263
-1672.53
-12.0211
-1317.68
22.1412
-1117.27
70.002
-1063.08
114.624
-994.104
142.911
-963.092
161.465
-930.21
170.116
-911.181
173.599
-893.219
172.373
-880.208
167.624
-869.362
160.005
-861.113
149.815
-854.258
137.629
-848.823
123.103
-842.575
105.729
-834.957
82.3518
-823.226
50.963
-805.53
-639.261
69.1665
-1447.92
10.0382
-1613.4
42.2427
-1349.89
118.936
-1193.96
175.687
-1119.83
223.391
-1041.81
252.064
-991.763
270.396
-948.541
277.414
-918.196
277.717
-893.523
271.852
-874.341
261.212
-858.722
246.376
-846.274
227.935
-835.817
206.224
-827.11
181.228
-817.578
152.13
-805.857
115.351
-786.445
67.8105
-757.988
-571.451
31.194
-1479.12
19.3627
-1601.57
113.418
-1443.94
208.659
-1289.21
273.835
-1185.01
325.092
-1093.07
358.649
-1025.32
380.057
-969.952
389.14
-927.28
388.928
-893.313
380.595
-866.009
365.464
-843.593
344.317
-825.128
317.828
-809.329
286.36
-795.642
249.873
-781.091
207.682
-763.666
155.609
-734.371
90.5033
-692.881
-480.947
-14.0812
-1465.03
54.8158
-1670.47
170.929
-1560.05
267.765
-1386.03
339.02
-1256.26
395.132
-1149.17
436.824
-1067.01
465.598
-998.72
481.246
-942.92
485.045
-897.107
478.241
-859.197
462.063
-827.409
437.479
-800.536
405.205
-777.049
365.689
-756.119
318.745
-734.142
263.89
-708.803
196.748
-667.223
114.372
-610.497
-366.576
-25.2663
-1439.77
93.8604
-1789.6
203.304
-1669.5
285.905
-1468.64
357.418
-1327.78
418.623
-1210.38
470.567
-1118.96
510.473
-1038.63
537.169
-969.621
550.239
-910.181
550.203
-859.167
537.943
-815.154
514.358
-776.955
480.118
-742.813
435.676
-711.68
380.717
-679.186
314.867
-642.956
234.304
-586.663
135.514
-511.71
-231.061
4.51423
-1444.28
118.895
-1903.98
201.247
-1751.85
259.675
-1527.07
325.962
-1394.06
389.024
-1273.44
449.432
-1179.36
499.979
-1089.18
539.149
-1008.79
564.767
-935.799
576.168
-870.564
573.24
-812.225
556.251
-759.963
525.449
-712.01
481.079
-667.307
422.741
-620.846
350.164
-570.376
260.695
-497.191
147.82
-398.829
-83.2413
53.3561
-1497.64
131.632
-1982.25
174.32
-1794.54
208.748
-1561.5
265.659
-1450.97
321.934
-1329.72
380.921
-1238.35
432.587
-1140.84
477.11
-1053.31
510.83
-969.519
532.161
-891.895
539.542
-819.605
532.06
-752.479
509.091
-689.041
470.453
-628.668
415.647
-566.039
344.427
-499.155
254.811
-407.574
134.823
-278.836
51.5815
102.515
-1600.15
133.989
-2013.72
142.566
-1803.11
161.151
-1580.08
204.648
-1494.46
244.333
-1369.4
288.224
-1282.23
326.605
-1179.22
362.193
-1088.89
390.941
-998.262
411.413
-912.361
421.268
-829.456
418.896
-750.102
403.112
-673.252
373.465
-599.015
329.158
-521.728
269.284
-439.278
191.493
-329.779
84.5433
-171.876
136.125
132.198
-1732.35
122.095
-2003.62
119.681
-1800.7
134.672
-1595.07
165.783
-1525.57
190.119
-1393.73
216.457
-1308.57
238.615
-1201.38
259.319
-1109.6
275.914
-1014.85
287.704
-924.15
293.108
-834.859
290.935
-747.928
280.087
-662.402
259.472
-578.399
226.938
-489.192
179.691
-392.031
116.67
-266.756
44.3565
-99.5613
180.481
138.457
-1870.8
106.568
-1971.73
118.274
-1812.4
142.737
-1619.53
173.399
-1556.23
199.269
-1419.6
224.677
-1333.98
248.096
-1224.79
269.672
-1131.17
288.97
-1034.15
305.579
-940.755
318.82
-848.095
327.076
-756.18
327.385
-662.708
315.066
-566.077
284.352
-458.474
231.155
-338.832
155.183
-190.778
65.8275
-10.1986
246.309
128.151
-1998.95
97.3087
-1940.88
130.274
-1845.36
170.176
-1659.42
212.755
-1598.81
256.132
-1462.97
300.129
-1377.97
345.944
-1270.6
392.545
-1177.77
440.678
-1082.28
490.009
-990.086
538.457
-896.541
579.863
-797.585
602.877
-685.719
593.205
-556.404
542.243
-407.511
452.274
-248.862
322.797
-61.2985
157.893
154.707
404.202
88.1552
-2087.1
66.3778
-1919.1
101.457
-1880.44
145.412
-1703.38
192.554
-1645.95
248.555
-1518.97
309.269
-1438.68
377.946
-1339.28
454.356
-1254.17
539.768
-1167.69
633.534
-1083.85
728.589
-991.594
807.081
-876.073
838.218
-716.853
790.674
-508.857
661.073
-277.905
385.211
27.006
235.076
88.8431
115.158
274.631
519.36
-22.9862
-2064.12
-78.7428
-1863.34
-106.044
-1853.14
-114.626
-1694.79
-120.938
-1639.63
-108.269
-1531.64
-89.1884
-1457.76
-55.662
-1372.8
-10.6619
-1299.17
47.5399
-1225.89
114.976
-1151.28
179.729
-1056.35
215.28
-911.623
182.877
-684.449
61.7295
-387.709
-88.7892
-127.38
11.713
-73.4917
-37.5772
138.135
-94.325
331.379
425.035
-196.683
-1867.43
-402.498
-1657.53
-574.537
-1681.1
-707.784
-1561.55
-831.042
-1516.37
-923.916
-1438.77
-1003.82
-1377.86
-1064
-1312.62
-1110.5
-1252.68
-1142.74
-1193.64
-1162.97
-1131.06
-1170
-1049.32
-1155.86
-925.754
-1099.58
-740.729
-977.485
-509.808
-799.024
-305.841
-703.905
-168.61
-536.41
-29.3601
-315.969
110.939
109.066
-226.612
-1640.82
-502.347
-1381.79
-791.302
-1392.14
-1044.39
-1308.46
-1290.48
-1270.29
-1508.53
-1220.71
-1707.29
-1179.1
-1883.02
-1136.88
-2039.01
-1096.69
-2175.3
-1057.35
-2288.28
-1018.08
-2362.39
-975.207
-2364.35
-923.794
-2244.77
-860.307
-1969.85
-784.724
-1574.24
-701.455
-1131
-611.854
-666.97
-493.386
-231.858
-324.173
-122.792
-665.819
-1072.61
-1489.75
-1823.21
-2118.5
-2364.21
-2568.3
-2730.19
-2851.88
-2934.23
-2977.31
-2977.52
-2926.31
-2811.62
-2621.34
-2347.8
-1984.65
-1503.04
-852.208
-665.765
1640.77
-1072.5
1381.73
-1489.57
1392.08
-1822.97
1308.4
-2118.19
1270.22
-2363.83
1220.64
-2567.85
1179.02
-2729.66
1136.81
-2851.27
1096.62
-2933.55
1057.28
-2976.56
1018.01
-2976.69
975.131
-2925.41
923.72
-2810.68
860.262
-2620.43
784.754
-2347.03
701.606
-1984.15
612.114
-1502.83
493.681
-852.282
324.453
122.718
-226.561
1867.33
-502.273
1657.45
-791.204
1681.01
-1044.28
1561.48
-1290.38
1516.31
-1508.45
1438.71
-1707.23
1377.81
-1883.01
1312.58
-2039.05
1252.66
-2175.4
1193.62
-2288.38
1131
-2362.38
1049.13
-2364
925.341
-2243.86
740.123
-1968.52
509.419
-1573.01
306.096
-1129.99
169.095
-665.952
29.6397
-231.006
-110.493
-108.288
-196.78
2064.11
-402.711
1863.38
-574.861
1853.16
-708.253
1694.87
-831.65
1639.71
-924.681
1531.75
-1004.75
1457.88
-1065.1
1372.94
-1111.79
1299.34
-1144.25
1226.09
-1164.69
1151.44
-1171.87
1056.31
-1157.67
911.145
-1100.91
683.361
-977.824
386.336
-797.958
126.231
-707.325
78.4625
-538.544
-139.141
-316.86
-332.176
-425.148
-23.3082
2087.42
-79.3305
1919.4
-106.924
1880.76
-115.826
1703.77
-122.465
1646.35
-110.15
1519.43
-91.4515
1439.18
-58.3401
1339.83
-13.7802
1254.78
43.9586
1168.35
110.869
1084.53
174.977
992.201
209.684
876.439
176.265
716.781
54.2807
508.322
-96.4372
276.957
15.771
-33.7377
-36.2252
-87.1417
-94.0679
-274.332
-519.215
88.0793
1999.34
66.2835
1941.2
101.327
1845.71
145.279
1659.82
192.44
1599.19
248.484
1463.39
309.277
1378.39
378.073
1271.03
454.659
1178.2
540.3
1082.71
634.331
990.5
729.629
896.903
808.239
797.831
839.26
685.761
791.405
556.178
661.353
407.011
379.511
248.107
232.193
60.1781
113.781
-155.918
-405.434
128.206
1871.13
97.4626
1971.94
130.516
1812.66
170.523
1619.81
213.221
1556.49
256.726
1419.88
300.872
1334.24
346.844
1225.06
393.625
1131.42
441.951
1034.38
491.484
940.967
540.114
848.273
581.641
756.304
604.655
662.747
594.834
565.999
543.604
458.241
453.298
338.413
323.387
190.088
158.193
9.27586
-247.241
138.437
1732.7
106.66
2003.72
118.483
1800.84
143.045
1595.25
173.79
1525.75
199.747
1393.93
225.238
1308.75
248.736
1201.56
270.387
1109.77
289.756
1015.02
306.436
924.288
319.745
834.965
328.058
747.991
328.395
662.411
316.051
578.344
285.245
489.048
231.898
391.76
155.691
266.296
66.0548
98.9133
-181.187
132.111
1600.59
122.053
2013.78
119.741
1803.15
134.806
1580.19
165.936
1494.62
190.283
1369.58
216.609
1282.43
238.749
1179.42
259.415
1089.1
275.961
998.469
287.706
912.542
293.088
829.582
290.924
750.154
280.109
673.226
259.53
598.923
227.005
521.572
179.726
439.039
116.62
329.401
44.368
171.164
-136.818
102.472
1498.12
133.934
1982.32
142.573
1794.51
161.214
1561.55
204.701
1451.13
244.356
1329.93
288.203
1238.58
326.537
1141.09
362.059
1053.58
390.724
969.806
411.119
892.15
420.934
819.769
418.576
752.515
402.85
688.954
373.281
628.495
329.043
565.812
269.205
498.879
191.385
407.223
84.4006
278.153
-52.4178
53.3871
1444.73
131.644
1904.06
174.344
1751.81
208.794
1527.1
265.697
1394.23
321.966
1273.66
380.965
1179.58
432.648
1089.41
477.165
1009.07
510.854
936.116
532.152
870.852
539.527
812.393
532.074
759.969
509.156
711.872
470.569
667.081
415.794
620.588
344.563
570.11
254.868
496.918
134.672
398.351
82.2546
4.58937
1440.14
118.938
1789.71
201.227
1669.52
259.61
1468.72
325.893
1327.95
389.015
1210.54
449.527
1119.07
500.171
1038.76
539.402
969.835
565.053
910.466
576.479
859.428
573.583
815.289
556.628
776.925
525.853
742.648
481.49
711.446
423.131
678.947
350.494
642.748
260.915
586.498
147.781
511.487
230.035
-25.1466
1465.28
93.8888
1670.67
203.172
1560.24
285.658
1386.23
357.198
1256.41
418.54
1149.19
470.651
1066.96
510.688
998.723
537.467
943.053
550.598
897.332
550.623
859.401
538.418
827.491
514.867
800.473
480.634
776.879
436.171
755.908
381.166
733.951
315.242
708.671
234.557
667.181
135.49
610.553
365.526
-13.9581
1479.24
54.8468
1601.87
170.684
1444.4
267.386
1289.53
338.74
1185.05
395.039
1092.89
436.896
1025.1
465.77
969.85
481.481
927.344
485.344
893.469
478.609
866.137
462.491
843.61
437.936
825.029
405.661
809.155
366.117
795.453
319.129
780.94
264.211
763.591
196.952
734.442
114.291
693.216
479.817
31.2231
1448.02
19.4556
1613.63
113.172
1350.68
208.308
1194.39
273.658
1119.7
325.09
1041.46
358.763
991.426
380.212
948.397
389.332
918.221
389.173
893.624
380.905
874.403
365.822
858.69
344.692
846.158
318.194
835.65
286.698
826.947
250.177
817.459
207.942
805.825
155.757
786.625
90.4095
758.562
570.226
69.072
1378.94
10.2057
1672.5
42.238
1318.65
118.822
1117.8
175.728
1062.79
223.527
993.656
252.253
962.699
270.574
930.074
277.611
911.182
277.948
893.285
272.122
880.228
261.5
869.31
246.655
861.002
228.189
854.114
206.443
848.692
181.417
842.484
152.286
834.955
115.406
823.504
67.7404
806.227
637.967
78.0031
1300.94
31.3153
1719.18
-11.5454
1361.5
22.54
1083.71
70.405
1014.92
115.004
949.051
143.286
934.413
161.798
911.557
170.452
902.523
173.935
889.798
172.703
881.456
167.922
874.087
160.251
868.669
150.002
864.36
137.756
860.935
123.186
857.051
105.774
852.365
82.3169
846.959
50.9691
837.573
688.936
66.171
1234.77
69.7315
1715.62
-2.91609
1434.15
-30.4754
1111.27
-4.39659
988.845
30.6213
914.033
61.2001
903.834
81.0373
891.719
93.1849
890.376
100.059
882.923
103.576
877.94
104.12
873.542
102.671
870.12
98.9346
868.096
93.8698
866.001
86.4959
864.425
77.1509
861.711
62.5133
861.598
43.8614
856.226
732.797
54.119
1180.65
118.302
1651.44
92.7463
1459.71
45.8065
1158.21
46.8304
987.82
65.1211
895.741
89.8293
879.125
105.779
875.769
116.818
879.336
121.896
877.844
123.824
876.012
122.007
875.358
118.06
874.068
111.116
875.039
103.087
874.029
92.2344
875.277
80.557
873.388
63.8533
878.301
48.0548
872.024
780.852
66.4908
1114.16
146.762
1571.17
169.271
1437.2
145.995
1181.48
133.587
1000.23
130.401
898.926
144.006
865.519
153.679
866.096
158.45
874.564
157.156
879.137
153.153
880.015
146.679
881.831
139.392
881.354
130.164
884.267
120.277
883.915
107.272
888.282
93.2842
887.376
73.3206
898.265
58.3743
886.97
839.226
146.287
346.444
485.453
553.872
588.21
604.704
612.96
610.052
604.062
593.649
578.098
554.779
520.914
474.82
416.746
348.25
272.862
192.172
111.689
)
;

boundaryField
{
    outletWall
    {
        type            calculated;
        value           nonuniform List<scalar> 
60
(
3741.72
547.43
-5554.98
-7615.09
-12025.4
-14311.7
-15061.1
-12573.1
-6291.97
3423.68
8787.18
8998.63
7705.39
6641.93
5909.42
5269.19
4652
3982.47
3473.54
2382.64
1303.27
1694.34
1939.42
2222.91
2523.15
2850.1
3205.84
3570.5
3895.44
4117.99
4114.04
3895.09
3569.21
3204.57
2848.64
2521.74
2221.69
1938.44
1693.61
1302.92
3926.85
628.297
-5436.9
-7446.81
-11872.3
-14270.2
-15113.4
-12712.1
-6562.18
3199.6
8758.2
9041.1
7748.37
6672.94
5930.4
5283.14
4661.11
3988.2
3476.84
2383.95
)
;
    }
    fineWalls
    {
        type            calculated;
        value           uniform 0;
    }
    fineFrontAndBack
    {
        type            calculated;
        value           nonuniform List<scalar> 
960
(
-5.23549e-14
-2.72069e-13
1.19552e-14
-1.65326e-14
4.32785e-15
4.10972e-13
1.30627e-12
1.58487e-12
-6.57325e-12
-1.61404e-12
-1.37397e-12
1.67356e-12
1.21202e-12
1.20744e-12
1.27213e-11
3.42076e-12
3.81708e-12
1.2647e-11
2.73854e-12
2.43191e-12
5.62836e-13
1.4705e-13
-3.75405e-14
-1.78429e-13
-2.1195e-13
-2.02896e-13
1.91163e-11
2.08949e-13
2.69075e-13
7.40507e-14
-4.67362e-13
-1.31329e-12
-2.37766e-12
-3.44004e-12
-4.37946e-12
-5.2013e-12
-5.97514e-12
-6.70508e-12
-7.43193e-12
-8.24325e-12
-2.44718e-10
-4.04671e-11
-4.07673e-11
-4.43652e-11
-1.22463e-10
1.76018e-11
-5.00576e-12
-1.67437e-11
-1.0207e-10
1.87683e-11
2.44543e-11
1.57874e-10
1.71672e-11
1.00001e-11
-1.02288e-11
1.29112e-10
4.42013e-11
4.04997e-11
4.02583e-11
2.45957e-10
8.393e-12
7.64663e-12
6.96189e-12
6.31852e-12
5.70116e-12
5.11051e-12
4.50303e-12
3.86723e-12
3.26353e-12
2.80672e-12
2.56337e-12
2.503e-12
2.53367e-12
3.84342e-11
2.09409e-12
1.72136e-12
1.42203e-12
1.08558e-12
7.78878e-13
3.3036e-13
2.13902e-12
1.87293e-12
1.30116e-11
2.66031e-12
2.98211e-12
1.5066e-11
2.78051e-12
2.69982e-12
1.07488e-11
1.878e-12
2.12558e-12
1.1152e-11
3.12441e-12
1.47517e-12
2.09146e-13
-3.38678e-13
-2.85965e-13
-3.25041e-13
-2.7251e-12
-4.18334e-13
-5.8724e-09
-6.78721e-09
-7.59958e-09
-8.29378e-09
-7.03379e-09
-3.92008e-09
-8.25049e-10
6.87459e-10
8.18111e-10
4.41258e-10
8.64475e-11
-3.47268e-12
1.88053e-11
-5.5679e-12
-2.91711e-11
-2.50696e-11
-6.08046e-12
-3.20048e-13
1.28354e-12
-1.27354e-08
-1.45504e-08
-1.60264e-08
-1.61565e-08
-1.2421e-08
-6.35492e-09
-1.54018e-09
3.44471e-10
4.16971e-10
8.49251e-11
-1.05082e-10
-9.35533e-11
5.02637e-12
-4.14224e-12
-2.88534e-11
-2.52256e-11
-7.04709e-12
-6.14903e-13
1.08051e-12
-1.86749e-08
-2.14283e-08
-2.30038e-08
-2.11277e-08
-1.41487e-08
-5.93314e-09
-9.10276e-10
4.54322e-10
3.14961e-10
1.05261e-10
7.10269e-11
2.60862e-11
-4.84144e-11
-9.44257e-12
-2.82957e-11
-2.48906e-11
-7.80558e-12
-8.83085e-13
-1.98264e-12
-2.59639e-08
-2.9915e-08
-3.03753e-08
-2.47175e-08
-1.38697e-08
-4.34456e-09
-2.96063e-11
6.34715e-10
4.65291e-10
5.1489e-10
6.24738e-10
4.2144e-10
-3.04351e-11
-3.51189e-11
-3.10357e-11
-2.40406e-11
-7.35544e-12
-3.92161e-13
-3.81512e-12
-3.39718e-08
-3.85695e-08
-3.58134e-08
-2.50161e-08
-1.11094e-08
-2.0008e-09
8.66673e-10
1.02279e-09
1.07495e-09
1.34898e-09
1.35296e-09
8.00017e-10
5.17798e-11
-6.58149e-11
-3.63912e-11
-2.51551e-11
-7.8726e-12
-2.14478e-12
-6.99858e-12
-4.20372e-08
-4.56474e-08
-3.76959e-08
-2.20283e-08
-7.17113e-09
1.2104e-10
1.67271e-09
1.74321e-09
1.96948e-09
2.09362e-09
1.66092e-09
7.91849e-10
4.45779e-11
-9.13282e-11
-3.66906e-11
-1.60478e-11
-3.9549e-13
6.14094e-12
1.24104e-11
-4.88422e-08
-4.93221e-08
-3.59407e-08
-1.78147e-08
-4.41209e-09
1.1943e-09
2.24645e-09
2.38273e-09
2.48833e-09
2.14462e-09
1.2951e-09
4.73039e-10
2.23123e-11
-1.06755e-10
-6.50047e-11
-3.33029e-11
4.50163e-12
-1.02132e-11
-1.08773e-10
-5.26144e-08
-4.89336e-08
-3.26977e-08
-1.55715e-08
-4.12588e-09
8.28891e-10
2.04869e-09
2.43808e-09
2.31784e-09
1.52545e-09
6.19465e-10
1.96486e-10
1.62714e-10
8.37565e-11
5.99701e-12
7.62554e-11
2.39988e-10
2.7765e-10
3.21058e-10
-5.15759e-08
-4.51088e-08
-3.05822e-08
-1.68745e-08
-6.51267e-09
-8.89473e-10
1.48059e-09
2.20143e-09
1.68377e-09
6.61271e-10
3.9938e-11
6.10258e-11
3.29288e-10
4.3749e-10
3.80113e-10
3.98037e-10
4.59771e-10
4.42367e-10
3.71477e-10
-4.36745e-08
-3.62429e-08
-2.5374e-08
-1.51885e-08
-6.37563e-09
-7.1408e-10
1.70771e-09
1.86617e-09
9.11948e-10
-1.86416e-11
-3.03284e-10
-8.44995e-11
2.02999e-10
3.41417e-10
3.61882e-10
3.70616e-10
3.79996e-10
3.70971e-10
3.19453e-10
-2.55432e-08
-1.69031e-08
-8.34646e-09
-2.80176e-09
2.10715e-10
1.26878e-09
1.55765e-09
1.3878e-09
7.6518e-10
5.8894e-11
-3.09726e-10
-3.45492e-10
-3.07677e-10
-3.34521e-10
-3.65374e-10
-3.51969e-10
-3.28824e-10
-3.25313e-10
-2.9774e-10
-1.65108e-08
-1.01995e-08
-3.50716e-09
-3.13745e-10
9.10769e-10
1.13299e-09
1.1894e-09
1.10158e-09
7.55833e-10
2.37025e-10
-1.78622e-10
-3.64869e-10
-4.03384e-10
-3.79932e-10
-3.40746e-10
-3.68626e-10
-4.18821e-10
-4.11028e-10
-3.58568e-10
-1.04776e-08
-7.35884e-09
-1.77471e-09
3.14627e-10
7.56628e-10
5.82682e-10
6.05476e-10
6.88531e-10
6.11693e-10
3.24887e-10
-2.68883e-11
-2.54744e-10
-2.69538e-10
-1.13944e-10
-2.26812e-11
-9.02243e-11
-2.42988e-10
-2.65826e-10
-3.04032e-10
-5.32083e-09
-5.64187e-09
-9.61297e-10
6.11457e-10
6.85374e-10
2.52161e-10
1.30513e-10
2.32344e-10
3.16152e-10
2.50253e-10
4.83421e-11
-1.32347e-10
-1.21793e-10
2.70893e-12
2.91861e-11
1.80628e-11
-1.82715e-11
-6.14131e-12
1.38907e-10
-5.35053e-10
-3.9817e-09
-4.08508e-10
9.70988e-10
8.93217e-10
2.68769e-10
-3.2099e-11
-4.11145e-11
3.1997e-11
6.84344e-11
1.13706e-11
-7.58307e-11
-4.90907e-11
9.98563e-12
1.83766e-12
-4.79992e-12
-3.54297e-12
-3.10259e-12
-2.75491e-11
3.5142e-09
-2.03346e-09
7.5781e-11
1.3541e-09
1.31917e-09
5.57202e-10
5.35077e-11
-8.19866e-11
-8.66249e-11
-6.93221e-11
-6.76225e-11
-7.20851e-11
-1.71686e-11
1.01448e-11
1.39451e-12
2.75423e-12
1.68076e-12
1.27192e-12
-1.11458e-12
6.15398e-09
1.10773e-11
5.5147e-10
1.62546e-09
1.74653e-09
9.7372e-10
2.75743e-10
1.19211e-12
-6.44095e-11
-8.2553e-11
-8.33318e-11
-5.63589e-11
3.82952e-12
5.1118e-12
1.70267e-12
1.77832e-12
3.58749e-13
-6.44843e-13
-1.28636e-12
6.95736e-09
1.62189e-09
9.5423e-10
1.70097e-09
1.98459e-09
1.35481e-09
5.54154e-10
1.33551e-10
2.51974e-12
-3.20482e-11
-3.75114e-11
-1.59174e-11
1.08412e-11
2.85447e-12
2.33707e-12
1.75897e-12
5.67866e-13
-4.31673e-13
2.97964e-13
6.31332e-09
2.50387e-09
1.24401e-09
1.66557e-09
2.04741e-09
1.63975e-09
8.53212e-10
3.0901e-10
8.4846e-11
1.91487e-11
6.86784e-12
1.17227e-11
8.26121e-12
3.8632e-12
2.22692e-12
1.81794e-12
4.90623e-13
-4.90031e-13
-7.72421e-13
3.39422e-09
1.68095e-09
7.9934e-10
1.11616e-09
1.55967e-09
1.45352e-09
9.20764e-10
4.38598e-10
1.75704e-10
6.61387e-11
2.83687e-11
1.53912e-11
8.58557e-12
4.21102e-12
2.18053e-12
1.80354e-12
3.96256e-13
-6.02842e-13
-8.00735e-13
5.23549e-14
2.72069e-13
-1.19552e-14
1.65326e-14
-4.32785e-15
-4.10972e-13
-1.30627e-12
-1.58487e-12
6.57325e-12
1.61404e-12
1.37397e-12
-1.67356e-12
-1.21202e-12
-1.20744e-12
-1.27213e-11
-3.42076e-12
-3.81708e-12
-1.2647e-11
-2.73854e-12
-2.43191e-12
-5.62836e-13
-1.4705e-13
3.75405e-14
1.78429e-13
2.1195e-13
2.02896e-13
-1.91163e-11
-2.08949e-13
-2.69075e-13
-7.40507e-14
4.67362e-13
1.31329e-12
2.37766e-12
3.44004e-12
4.37946e-12
5.2013e-12
5.97514e-12
6.70508e-12
7.43193e-12
8.24325e-12
2.44718e-10
4.04671e-11
4.07673e-11
4.43652e-11
1.22463e-10
-1.76018e-11
5.00576e-12
1.67437e-11
1.0207e-10
-1.87683e-11
-2.44543e-11
-1.57874e-10
-1.71672e-11
-1.00001e-11
1.02288e-11
-1.29112e-10
-4.42013e-11
-4.04997e-11
-4.02583e-11
-2.45957e-10
-8.393e-12
-7.64663e-12
-6.96189e-12
-6.31852e-12
-5.70116e-12
-5.11051e-12
-4.50303e-12
-3.86723e-12
-3.26353e-12
-2.80672e-12
-2.56337e-12
-2.503e-12
-2.53367e-12
-3.84342e-11
-2.09409e-12
-1.72136e-12
-1.42203e-12
-1.08558e-12
-7.78878e-13
-3.3036e-13
-2.13902e-12
-1.87293e-12
-1.30116e-11
-2.66031e-12
-2.98211e-12
-1.5066e-11
-2.78051e-12
-2.69982e-12
-1.07488e-11
-1.878e-12
-2.12558e-12
-1.1152e-11
-3.12441e-12
-1.47517e-12
-2.09146e-13
3.38678e-13
2.85965e-13
3.25041e-13
2.7251e-12
4.18334e-13
5.8724e-09
6.78721e-09
7.59958e-09
8.29378e-09
7.03379e-09
3.92008e-09
8.25049e-10
-6.87459e-10
-8.18111e-10
-4.41258e-10
-8.64475e-11
3.47268e-12
-1.88053e-11
5.5679e-12
2.91711e-11
2.50696e-11
6.08046e-12
3.20048e-13
-1.28354e-12
1.27354e-08
1.45504e-08
1.60264e-08
1.61565e-08
1.2421e-08
6.35492e-09
1.54018e-09
-3.44471e-10
-4.16971e-10
-8.49251e-11
1.05082e-10
9.35533e-11
-5.02637e-12
4.14224e-12
2.88534e-11
2.52256e-11
7.04709e-12
6.14903e-13
-1.08051e-12
1.86749e-08
2.14283e-08
2.30038e-08
2.11277e-08
1.41487e-08
5.93314e-09
9.10276e-10
-4.54322e-10
-3.14961e-10
-1.05261e-10
-7.10269e-11
-2.60862e-11
4.84144e-11
9.44257e-12
2.82957e-11
2.48906e-11
7.80558e-12
8.83085e-13
1.98264e-12
2.59639e-08
2.9915e-08
3.03753e-08
2.47175e-08
1.38697e-08
4.34456e-09
2.96063e-11
-6.34715e-10
-4.65291e-10
-5.1489e-10
-6.24738e-10
-4.2144e-10
3.04351e-11
3.51189e-11
3.10357e-11
2.40406e-11
7.35544e-12
3.92161e-13
3.81512e-12
3.39718e-08
3.85695e-08
3.58134e-08
2.50161e-08
1.11094e-08
2.0008e-09
-8.66673e-10
-1.02279e-09
-1.07495e-09
-1.34898e-09
-1.35296e-09
-8.00017e-10
-5.17798e-11
6.58149e-11
3.63912e-11
2.51551e-11
7.8726e-12
2.14478e-12
6.99858e-12
4.20372e-08
4.56474e-08
3.76959e-08
2.20283e-08
7.17113e-09
-1.2104e-10
-1.67271e-09
-1.74321e-09
-1.96948e-09
-2.09362e-09
-1.66092e-09
-7.91849e-10
-4.45779e-11
9.13282e-11
3.66906e-11
1.60478e-11
3.9549e-13
-6.14094e-12
-1.24104e-11
4.88422e-08
4.93221e-08