/*--------------------------------*- C++ -*----------------------------------*\
| =========                 |                                                 |
| \\      /  F ield         | OpenFOAM: The Open Source CFD Toolbox           |
|  \\    /   O peration     | Version:  4.1                                   |
|   \\  /    A nd           | Web:      www.OpenFOAM.org                      |
|    \\/     M anipulation  |                                                 |
\*---------------------------------------------------------------------------*/
FoamFile
{
    version     2.0;
    format      ascii;
    class       volVectorField;
    location    "3";
    object      U;
}
// * * * * * * * * * * * * * * * * * * * * * * * * * * * * * * * * * * * * * //

dimensions      [0 1 -1 0 0 0 0];

internalField   nonuniform List<vector> 
1280
(
(-3.78355e-17 -1.28349 -0.545243)
(-4.62407e-17 -1.26937 -0.772537)
(2.66361e-17 -1.00676 -0.506487)
(-1.19477e-17 -0.902542 -0.764336)
(7.3556e-19 -0.912169 -1.1126)
(2.96998e-16 -0.578826 -0.527898)
(9.44006e-16 -0.524422 -0.519328)
(1.30019e-15 -0.37912 -0.704797)
(-1.55125e-15 -0.346136 -1.38571)
(-1.16643e-15 0.000699711 -1.0009)
(-9.92929e-16 0.118515 -0.731717)
(9.56423e-16 0.370371 -1.48779)
(8.75896e-16 0.638206 -0.991837)
(8.72588e-16 0.800081 -0.71977)
(2.49612e-15 1.10138 -1.32632)
(2.47209e-15 1.24732 -0.875167)
(2.7585e-15 1.52704 -0.568497)
(2.14947e-15 1.34737 -1.75888)
(1.97907e-15 2.66479 -0.120434)
(1.75748e-15 0.946789 -3.50354)
(2.30907e-15 2.09997 3.50954)
(6.03283e-16 2.25626 7.6605)
(-1.54013e-16 2.05476 9.25009)
(-7.32016e-16 2.47212 9.28378)
(-8.69539e-16 2.57273 8.79608)
(-8.32395e-16 3.0042 8.63507)
(4.02978e-15 2.97734 6.08143)
(8.57226e-16 6.24409 10.4811)
(1.1039e-15 6.47297 10.8456)
(3.03798e-16 6.55146 11.2434)
(-1.91738e-15 6.67075 11.7471)
(-5.38784e-15 6.77342 12.4921)
(-9.7545e-15 6.89063 13.429)
(-1.4113e-14 6.9335 14.5019)
(-1.7967e-14 6.97916 15.4666)
(-2.13387e-14 6.94005 16.2929)
(-2.45134e-14 6.91234 16.7582)
(-2.7508e-14 6.85171 17.1444)
(-3.049e-14 6.80858 17.091)
(-3.38184e-14 6.78009 17.0179)
(-4.25967e-14 7.44793 16.4962)
(-3.25037e-14 4.09174 10.0415)
(-3.27448e-14 2.72117 9.33936)
(-3.56495e-14 1.82683 9.27399)
(-2.12858e-14 -0.22633 4.85027)
(1.4138e-14 -0.800992 -3.77449)
(-4.02069e-15 -0.387203 -3.33069)
(-1.34488e-14 -0.0431869 -3.7567)
(-1.71872e-14 1.04077 -4.26442)
(1.50749e-14 1.54443 -2.70845)
(1.86255e-14 -1.38674 -3.41212)
(2.74802e-14 -0.934744 -4.40134)
(1.37889e-14 0.0568006 -3.58492)
(8.0322e-15 0.383488 -3.1366)
(-8.21593e-15 0.785582 -3.68468)
(2.24738e-14 0.217261 4.89326)
(3.54913e-14 -1.84401 9.28208)
(3.25299e-14 -2.73783 9.34713)
(3.2336e-14 -4.11084 10.0479)
(4.26662e-14 -7.46131 16.4928)
(3.44328e-14 -6.78275 17.0065)
(3.13708e-14 -6.81099 17.0927)
(2.85616e-14 -6.8535 17.1533)
(2.59221e-14 -6.91409 16.7689)
(2.33894e-14 -6.94208 16.3)
(2.09662e-14 -6.98093 15.466)
(1.8474e-14 -6.93488 14.4923)
(1.58655e-14 -6.89114 13.412)
(1.33888e-14 -6.77314 12.4704)
(1.15148e-14 -6.66981 11.7241)
(1.05164e-14 -6.55041 11.2233)
(1.02687e-14 -6.47232 10.8331)
(1.03945e-14 -6.2453 10.4792)
(8.10207e-15 -2.98828 6.10645)
(8.59112e-15 -3.01472 8.64756)
(7.06198e-15 -2.58518 8.80555)
(5.83398e-15 -2.4858 9.28747)
(4.45364e-15 -2.06895 9.25122)
(3.1954e-15 -2.26963 7.6658)
(1.35532e-15 -2.11436 3.52803)
(1.54581e-15 -0.959686 -3.48301)
(1.35352e-15 -2.68109 -0.0932102)
(2.21145e-15 -1.37652 -1.72282)
(1.92254e-15 -1.55768 -0.55778)
(2.15509e-15 -1.27781 -0.856002)
(2.72389e-15 -1.14539 -1.29911)
(2.00058e-15 -0.840181 -0.700273)
(1.95109e-15 -0.678579 -0.960511)
(1.75625e-15 -0.413685 -1.44705)
(1.35718e-15 -0.169511 -0.702194)
(1.56968e-15 -0.0621477 -0.954267)
(2.32721e-15 0.274123 -1.35964)
(2.45838e-15 0.329355 -0.700238)
(1.06606e-15 0.465367 -0.534542)
(1.51144e-16 0.521884 -0.547562)
(-5.75616e-17 0.85835 -1.12209)
(-2.0666e-16 0.841911 -0.711928)
(-2.15517e-16 0.940835 -0.437666)
(-4.89938e-16 1.2132 -0.751569)
(-3.02319e-16 1.2233 -0.552901)
(-6.52489e-13 0.790686 1.08668)
(-7.54135e-13 1.15091 1.24437)
(-8.44398e-13 1.31954 1.40826)
(-9.21531e-13 1.54061 1.64745)
(-7.81532e-13 1.74356 1.96772)
(-4.35564e-13 1.9521 2.43924)
(-9.16721e-14 2.18862 3.12576)
(7.63843e-14 2.53417 4.054)
(9.09012e-14 2.96673 5.1221)
(4.90286e-14 2.94317 5.86128)
(9.60528e-15 1.23881 4.94572)
(-3.85853e-16 -1.90304 2.02615)
(2.08948e-15 -4.05916 0.948491)
(-6.18655e-16 -4.9627 0.416925)
(-3.24123e-15 -4.7607 -0.0820919)
(-2.78551e-15 -4.02074 -0.409178)
(-6.75606e-16 -2.57051 -0.827847)
(-3.55609e-17 -1.86471 -0.863344)
(1.42615e-16 0.208209 -1.10558)
(-1.41505e-12 0.73723 1.41463)
(-1.61671e-12 1.04627 1.61703)
(-1.78071e-12 1.18337 1.82923)
(-1.79516e-12 1.35061 2.16059)
(-1.38011e-12 1.4695 2.6333)
(-7.06102e-13 1.54756 3.35568)
(-1.71131e-13 1.62556 4.37913)
(3.82746e-14 1.84737 5.66098)
(4.63302e-14 2.35986 7.01494)
(9.43613e-15 2.98062 7.93183)
(-1.16758e-14 2.49224 7.04586)
(-1.03948e-14 -0.903175 2.78409)
(5.58486e-16 -3.84736 0.547863)
(-4.60249e-16 -4.74007 0.684823)
(-3.20593e-15 -4.49089 0.160619)
(-2.80284e-15 -3.73456 -0.302878)
(-7.8301e-16 -2.32821 -0.920587)
(-6.83226e-17 -1.72953 -1.09848)
(1.20056e-16 0.0369145 -1.32596)
(-2.07499e-12 0.698081 1.62112)
(-2.38092e-12 0.975771 1.85738)
(-2.55597e-12 1.08226 2.1107)
(-2.34752e-12 1.19758 2.53038)
(-1.57208e-12 1.23609 3.14863)
(-6.59238e-13 1.21479 4.05957)
(-1.01142e-13 1.21345 5.21764)
(5.04803e-14 1.41232 6.44463)
(3.49956e-14 1.99678 7.49707)
(1.16956e-14 2.92978 8.10587)
(7.89187e-15 3.31567 7.67404)
(2.89847e-15 0.955508 4.77761)
(-5.37938e-15 -3.20378 0.568101)
(-1.04917e-15 -4.68097 0.692781)
(-3.14397e-15 -4.29458 0.612473)
(-2.76562e-15 -3.50939 -0.0883048)
(-8.67286e-16 -2.15508 -0.976141)
(-9.81205e-17 -1.59906 -1.34363)
(-2.20293e-16 0.103511 -1.68929)
(-2.88488e-12 0.636965 1.85988)
(-3.32389e-12 0.86497 2.1512)
(-3.37503e-12 0.919523 2.47)
(-2.74639e-12 0.949667 3.01815)
(-1.54108e-12 0.873383 3.8158)
(-4.82729e-13 0.74303 4.87254)
(-3.28959e-15 0.705487 5.9659)
(7.05239e-14 0.982009 6.76133)
(5.1699e-14 1.74332 7.03661)
(5.721e-14 2.93539 6.89978)
(6.94153e-14 3.82312 6.59225)
(4.68266e-14 2.29083 5.5143)
(-3.38168e-15 -2.34011 1.93976)
(-3.9021e-15 -4.64263 0.607804)
(-3.44841e-15 -4.19039 1.11164)
(-2.67118e-15 -3.1477 0.30849)
(-8.17271e-16 -1.85827 -0.963239)
(-4.35734e-17 -1.53455 -1.54028)
(-4.23902e-16 -0.276873 -2.04814)
(-3.77464e-12 0.567028 2.11281)
(-4.2855e-12 0.73861 2.47325)
(-3.97927e-12 0.726057 2.87651)
(-2.77957e-12 0.657685 3.56583)
(-1.23438e-12 0.489031 4.48718)
(-2.22311e-13 0.347273 5.47057)
(9.6297e-14 0.443774 6.09886)
(1.13644e-13 0.963019 6.06042)
(1.19439e-13 1.91013 5.49907)
(1.49887e-13 3.07402 5.03303)
(1.50328e-13 3.89666 5.26667)
(8.88907e-14 2.82988 5.87131)
(5.75332e-15 -1.50663 3.93176)
(-7.31277e-15 -4.32672 1.3885)
(-4.04347e-15 -4.18728 1.46817)
(-2.79501e-15 -2.69586 0.845161)
(-8.74733e-16 -1.32355 -1.02644)
(-2.38309e-16 -1.03632 -1.83836)
(-7.7762e-16 0.35716 -2.26644)
(-4.6708e-12 0.476391 2.38846)
(-5.07193e-12 0.57403 2.83112)
(-4.18844e-12 0.476505 3.31339)
(-2.44759e-12 0.308185 4.07576)
(-7.96792e-13 0.110359 4.90962)
(1.34489e-14 0.104405 5.46311)
(1.85857e-13 0.47667 5.37284)
(1.9369e-13 1.22219 4.76767)
(2.18831e-13 2.1412 4.26623)
(2.32624e-13 3.00513 4.53964)
(1.84547e-13 3.53276 5.83185)
(8.79833e-14 2.76871 7.46762)
(4.9531e-15 -0.690115 6.36431)
(-1.01476e-14 -3.54485 3.2333)
(-4.07674e-15 -3.88505 2.09286)
(-1.78309e-15 -2.15113 1.48182)
(-4.39434e-17 -0.812894 -1.00128)
(6.82326e-16 -1.64959 -1.92495)
(1.37894e-15 -1.23348 -2.77582)
(-5.42691e-12 0.367971 2.68846)
(-5.48023e-12 0.384714 3.199)
(-3.99342e-12 0.220671 3.67692)
(-1.97941e-12 0.0288006 4.2919)
(-4.90233e-13 -0.0602275 4.70982)
(1.327e-13 0.157703 4.70759)
(2.49606e-13 0.70592 4.28711)
(2.64748e-13 1.39375 3.95743)
(2.76481e-13 1.9964 4.32829)
(2.38291e-13 2.44993 5.71162)
(1.439e-13 2.78468 7.93285)
(5.25599e-14 2.49153 10.11)
(2.47915e-15 0.126977 9.5618)
(-1.18617e-14 -2.79024 5.74262)
(-7.22274e-15 -3.51976 3.02394)
(-3.70033e-15 -1.43184 1.30092)
(5.00181e-16 0.708455 -1.49084)
(-1.1348e-15 0.886646 -2.80886)
(-1.20858e-14 1.04548 -5.34883)
(-5.84604e-12 0.245491 2.99551)
(-5.43707e-12 0.199057 3.51179)
(-3.63308e-12 0.0291362 3.84414)
(-1.73016e-12 -0.104186 4.14179)
(-4.58432e-13 -0.0655643 4.1679)
(9.2099e-14 0.271013 3.93632)
(2.27632e-13 0.775841 3.76365)
(2.70898e-13 1.2095 4.14377)
(2.57538e-13 1.43765 5.35242)
(1.69494e-13 1.56094 7.35978)
(6.88295e-14 1.82696 9.8682)
(2.18318e-14 2.0899 12.3325)
(1.80793e-14 1.22787 12.9572)
(9.30627e-15 -0.833351 9.60336)
(6.66334e-16 -1.91109 5.33062)
(8.47282e-15 -0.471731 3.50397)
(2.66653e-14 0.267943 5.90491)
(3.085e-14 -1.72422 8.43105)
(3.56731e-14 -5.59114 11.8819)
(-5.73066e-12 0.129712 3.26953)
(-5.01209e-12 0.0685257 3.71128)
(-3.39802e-12 -0.0442308 3.83158)
(-1.87494e-12 -0.0934312 3.84538)
(-7.23631e-13 0.0208714 3.65405)
(-9.88304e-14 0.315896 3.54518)
(1.6451e-13 0.619102 3.90572)
(2.44604e-13 0.765275 4.91452)
(1.87086e-13 0.722496 6.45196)
(7.34746e-14 0.665969 8.29267)
(4.43756e-15 0.851882 10.3177)
(6.78064e-15 1.20654 12.6719)
(3.65875e-14 1.00495 14.9064)
(4.861e-14 -0.0446914 15.0999)
(4.22347e-14 -1.07763 12.6669)
(4.42263e-14 -1.23005 11.2733)
(5.10857e-14 -1.03642 12.1515)
(4.91519e-14 -1.63885 12.2439)
(4.12752e-14 -2.78214 10.8947)
(-4.85272e-12 0.0325688 3.45336)
(-4.02699e-12 -0.00132872 3.75674)
(-2.81933e-12 -0.0371631 3.64924)
(-1.68761e-12 -0.0289798 3.45065)
(-7.08403e-13 0.0512942 3.25545)
(-7.93422e-14 0.165531 3.51643)
(1.89618e-13 0.229715 4.39461)
(2.07352e-13 0.192573 5.67276)
(1.01328e-13 0.0797592 6.91974)
(-2.07129e-15 0.0059064 7.85194)
(-3.36982e-14 0.0978523 8.73187)
(-9.32296e-15 0.310962 10.2679)
(2.25554e-14 0.369598 12.3476)
(3.79353e-14 0.13169 13.3577)
(3.98322e-14 -0.266441 12.2402)
(4.11796e-14 -0.428098 10.1502)
(4.22218e-14 -0.339092 8.46486)
(4.1219e-14 -0.767011 6.57807)
(3.54947e-14 -1.72687 3.72813)
(-2.83814e-12 -0.0285656 3.45662)
(-1.87812e-12 0.0145981 3.77022)
(-9.27384e-13 0.0642408 3.68494)
(-3.11307e-13 0.0720279 3.52173)
(2.34128e-14 -0.00295763 3.35913)
(1.40976e-13 -0.135833 3.62161)
(1.73199e-13 -0.235126 4.4632)
(1.542e-13 -0.238909 5.68752)
(8.502e-14 -0.15556 6.88368)
(6.54378e-15 -0.0677678 7.78716)
(-3.44139e-14 -0.0990132 8.6901)
(-3.8388e-14 -0.253182 10.2978)
(-3.41863e-14 -0.286322 12.419)
(-3.7169e-14 -0.0628264 13.3839)
(-4.05971e-14 0.284473 12.1696)
(-3.91077e-14 0.351566 9.95007)
(-3.6536e-14 0.228718 8.15943)
(-3.61459e-14 0.679183 6.31738)
(-3.30822e-14 1.73232 3.65914)
(-1.83454e-12 -0.128681 3.26983)
(-1.13327e-12 -0.0654417 3.71555)
(-3.89685e-13 0.0513059 3.84822)
(-3.48606e-14 0.110314 3.89255)
(1.01197e-13 0.0106903 3.75231)
(1.25888e-13 -0.280803 3.68618)
(1.32155e-13 -0.596337 4.04399)
(1.22398e-13 -0.771464 4.99562)
(8.39815e-14 -0.761424 6.43371)
(2.63361e-14 -0.716585 8.177)
(-1.98469e-14 -0.882806 10.1865)
(-4.0541e-14 -1.19227 12.6276)
(-4.48205e-14 -0.923915 14.9424)
(-4.22147e-14 0.158702 15.1212)
(-3.78607e-14 1.14927 12.7211)
(-4.09584e-14 1.20397 11.461)
(-4.65356e-14 0.918981 12.3043)
(-4.56697e-14 1.49847 12.2688)
(-3.98409e-14 2.70153 10.864)
(-1.16418e-12 -0.243962 2.99659)
(-8.17649e-13 -0.194673 3.51503)
(-1.9719e-13 -0.021902 3.85293)
(3.49585e-14 0.113439 4.16364)
(8.40698e-14 0.0784373 4.22028)
(6.47424e-14 -0.252738 4.03349)
(6.72751e-14 -0.753572 3.89336)
(7.65034e-14 -1.1928 4.26529)
(6.79659e-14 -1.43831 5.41366)
(3.60986e-14 -1.58152 7.33313)
(-2.98759e-15 -1.85597 9.78597)
(-2.83049e-14 -2.09402 12.2567)
(-2.99487e-14 -1.16517 12.8799)
(-1.26604e-14 0.901485 9.52885)
(-2.52013e-15 1.87714 5.37478)
(-1.00249e-14 0.357441 3.77351)
(-2.69987e-14 -0.27133 6.35215)
(-2.95362e-14 1.75198 8.66844)
(-3.37813e-14 5.59819 11.9607)
(-5.91204e-13 -0.367232 2.68953)
(-6.26875e-13 -0.383007 3.20184)
(-1.06811e-13 -0.218934 3.68393)
(6.79397e-14 -0.0283051 4.30687)
(7.61527e-14 0.0603144 4.74057)
(2.80178e-14 -0.15434 4.76665)
(1.45015e-14 -0.694042 4.38116)
(2.5816e-14 -1.37361 4.07573)
(3.5128e-14 -1.97708 4.43833)
(2.78059e-14 -2.44447 5.77787)
(5.37135e-15 -2.79666 7.95048)
(-1.47053e-14 -2.48607 10.0976)
(-1.35325e-14 -0.0519984 9.50465)
(3.00992e-16 2.84444 5.70991)
(3.24291e-15 3.47351 3.02799)
(2.00697e-15 1.24925 1.22921)
(-2.03016e-15 -0.830146 -1.43544)
(-6.82367e-16 -0.917769 -2.86735)
(1.54342e-14 -1.0429 -5.38688)
(-5.94504e-14 -0.475895 2.3897)
(-4.42411e-13 -0.572881 2.83392)
(-4.53898e-14 -0.475523 3.31891)
(1.07888e-13 -0.309309 4.08483)
(9.92463e-14 -0.115282 4.92403)
(2.98632e-14 -0.111078 5.49026)
(-3.56656e-15 -0.477645 5.42618)
(-4.56828e-15 -1.21102 4.85774)
(3.55522e-15 -2.12052 4.38737)
(7.60383e-15 -2.98823 4.67017)
(1.2634e-15 -3.52879 5.95177)
(-8.42564e-15 -2.7432 7.54321)
(-5.45452e-15 0.768734 6.33232)
(1.10951e-15 3.59333 3.20983)
(2.04184e-16 3.84407 2.12634)
(-5.33325e-16 2.04361 1.44924)
(-3.93663e-16 0.74919 -1.17483)
(-3.44732e-16 1.66728 -2.00956)
(-3.06101e-15 1.25822 -2.83027)
(3.90467e-13 -0.566839 2.114)
(-2.2594e-13 -0.738228 2.47571)
(8.42011e-15 -0.726143 2.88081)
(1.50456e-13 -0.659911 3.57166)
(1.46574e-13 -0.495753 4.49285)
(6.19113e-14 -0.359153 5.47661)
(5.9453e-15 -0.456731 6.11516)
(-9.10962e-15 -0.969762 6.10756)
(-9.62499e-15 -1.90743 5.59685)
(-7.70245e-15 -3.06833 5.18505)
(-7.51361e-15 -3.88657 5.44985)
(-8.00946e-15 -2.76407 5.99215)
(-1.90763e-15 1.60304 3.88773)
(1.1272e-15 4.36591 1.38878)
(1.54946e-16 4.1424 1.49483)
(3.06025e-16 2.61341 0.815474)
(1.86751e-16 1.25552 -1.11242)
(1.41325e-16 1.00438 -1.90315)
(-1.23842e-16 -0.386289 -2.29895)
(6.83776e-13 -0.637018 1.86091)
(1.23082e-15 -0.865133 2.1532)
(6.12745e-14 -0.920143 2.47345)
(1.80607e-13 -0.951761 3.02282)
(1.94059e-13 -0.878953 3.81972)
(1.08191e-13 -0.754364 4.87291)
(3.06381e-14 -0.723048 5.9643)
(1.32457e-16 -1.00335 6.77029)
(-7.15661e-15 -1.76509 7.07927)
(-9.17256e-15 -2.95283 6.99422)
(-9.25909e-15 -3.80729 6.71661)
(-6.2621e-15 -2.17341 5.55134)
(4.25502e-16 2.45389 1.86188)
(5.67978e-16 4.66415 0.651)
(1.89186e-16 4.15561 1.11119)
(1.97591e-16 3.08837 0.286493)
(3.9861e-17 1.7974 -1.0168)
(-7.16492e-17 1.50757 -1.58885)
(-1.42929e-16 0.275101 -2.07215)
(7.7304e-13 -0.698309 1.62195)
(1.8021e-13 -0.976346 1.8589)
(1.06026e-13 -1.08339 2.11334)
(1.88996e-13 -1.19986 2.53422)
(2.2051e-13 -1.24087 3.15251)
(1.50535e-13 -1.22423 4.06057)
(6.15727e-14 -1.22963 5.21287)
(1.4839e-14 -1.43628 6.43557)
(2.79971e-16 -2.02726 7.49208)
(-3.56092e-15 -2.95398 8.11179)
(-4.16793e-15 -3.2825 7.66352)
(-1.7686e-15 -0.797615 4.66491)
(1.20458e-15 3.30101 0.539016)
(3.17163e-16 4.69182 0.733037)
(2.59674e-16 4.27257 0.59377)
(1.95441e-16 3.45567 -0.102743)
(6.30962e-17 2.09528 -1.01263)
(-4.79637e-17 1.56693 -1.37888)
(3.31072e-17 -0.133185 -1.68588)
(7.0148e-13 -0.737573 1.41524)
(2.78208e-13 -1.04713 1.61811)
(1.38223e-13 -1.18489 1.8311)
(1.85063e-13 -1.35319 2.1635)
(2.2749e-13 -1.47397 2.63689)
(1.82195e-13 -1.5555 3.35799)
(9.48013e-14 -1.63927 4.37639)
(3.43344e-14 -1.86907 5.64887)
(9.42734e-15 -2.38832 6.98955)
(2.12764e-15 -2.99575 7.88371)
(7.63094e-16 -2.43232 6.9422)
(1.30252e-15 1.05113 2.62736)
(9.17912e-16 3.91068 0.559927)
(4.29244e-16 4.75479 0.692966)
(2.47436e-16 4.47446 0.141015)
(2.01994e-16 3.68225 -0.313575)
(5.45136e-17 2.26894 -0.943702)
(-5.44479e-17 1.69464 -1.12209)
(-8.58246e-17 -0.0633337 -1.34052)
(3.77135e-13 -0.791116 1.08698)
(1.86772e-13 -1.152 1.2449)
(8.88155e-14 -1.32143 1.4092)
(1.24018e-13 -1.54362 1.649)
(1.73297e-13 -1.74818 1.96993)
(1.61502e-13 -1.95906 2.44142)
(1.02307e-13 -2.19899 3.12575)
(4.87331e-14 -2.54878 4.04754)
(1.95226e-14 -2.9818 5.10215)
(7.34874e-15 -2.93488 5.81434)
(3.15207e-15 -1.16242 4.85168)
(1.71013e-15 1.98036 1.97557)
(9.53952e-16 4.10836 0.929752)
(4.67891e-16 4.9822 0.414602)
(2.42282e-16 4.7483 -0.101259)
(2.00393e-16 3.97194 -0.416493)
(4.40285e-17 2.51538 -0.840846)
(-6.69824e-17 1.82579 -0.877309)
(-8.89706e-17 -0.238744 -1.10871)
(1.00893e-17 9.84322 17.3168)
(-4.16181e-15 14.6717 24.201)
(-4.21462e-15 13.7312 22.4475)
(-4.52675e-15 12.0448 18.8765)
(-4.72755e-15 10.4612 16.1563)
(-6.48414e-15 9.64247 14.5834)
(-7.09411e-15 9.22102 13.8143)
(-6.83062e-15 9.21685 13.849)
(-6.20498e-15 9.30928 13.9872)
(-5.85654e-15 9.32411 14.0675)
(-5.47884e-15 9.3198 14.0647)
(-4.89894e-15 9.24929 14.0675)
(-4.60734e-15 9.21488 14.0294)
(-4.28058e-15 9.0939 14.055)
(-3.64621e-15 9.04626 14.037)
(-3.19205e-15 8.88277 14.1154)
(-2.88818e-15 8.82977 14.111)
(-2.74083e-15 8.68663 14.325)
(-2.64759e-15 8.53309 14.1134)
(-2.53995e-15 8.02397 13.8221)
(4.39774e-17 9.89749 17.4327)
(-3.11864e-15 14.6016 24.4736)
(-2.51572e-15 12.9267 22.098)
(-2.73147e-15 10.7604 17.8106)
(-3.31242e-15 8.81583 14.9619)
(-5.67747e-15 8.07213 13.4121)
(-5.00601e-15 7.80768 13.1097)
(-4.41826e-15 7.90373 13.1235)
(-4.12995e-15 7.95004 13.2251)
(-4.56484e-15 7.98029 13.2648)
(-4.70161e-15 7.99326 13.2786)
(-4.78999e-15 7.98354 13.3171)
(-4.52165e-15 8.00593 13.3285)
(-5.00582e-15 7.98513 13.3823)
(-4.62547e-15 8.0064 13.3827)
(-4.42634e-15 7.97253 13.4343)
(-4.53338e-15 7.97136 13.4106)
(-4.7919e-15 7.97214 13.5263)
(-4.81542e-15 7.88571 13.4085)
(-5.15787e-15 7.19476 12.279)
(-3.98021e-18 10.3818 18.6681)
(-1.05633e-15 15.7466 26.2318)
(-8.53186e-16 13.0511 22.7006)
(-1.24159e-15 10.5909 17.6739)
(-1.27565e-15 8.68639 15.2651)
(-3.93687e-15 8.32973 13.9773)
(-2.05612e-15 8.01839 13.7755)
(-1.74552e-15 8.14965 13.6661)
(-1.75596e-15 8.10394 13.6873)
(-1.78283e-15 8.11616 13.6105)
(-1.67471e-15 8.0726 13.55)
(-1.94215e-15 8.04536 13.5)
(-1.78634e-15 8.02055 13.457)
(-1.77932e-15 7.99212 13.4409)
(-1.94216e-15 7.97017 13.4151)
(-1.62922e-15 7.94371 13.408)
(-1.84664e-15 7.89973 13.3762)
(-1.89825e-15 7.90538 13.4079)
(-1.54071e-15 7.80244 13.3384)
(-1.99903e-15 6.85445 11.6989)
(7.15461e-19 10.7524 19.3773)
(2.60609e-16 16.0842 26.621)
(2.31469e-16 12.0226 21.4787)
(2.65724e-16 9.90402 16.5682)
(2.79724e-16 8.41953 15.2309)
(-2.25187e-15 8.49227 14.2218)
(-1.52112e-15 8.08379 14.104)
(-1.66195e-15 8.23055 13.8285)
(-1.8144e-15 8.07922 13.7609)
(-1.74536e-15 8.07836 13.6033)
(-1.8011e-15 8.00094 13.5095)
(-1.87203e-15 7.96882 13.4229)
(-1.94285e-15 7.9257 13.3601)
(-1.7926e-15 7.8979 13.3134)
(-2.00473e-15 7.8595 13.2734)
(-1.8721e-15 7.8351 13.231)
(-2.26239e-15 7.76665 13.1764)
(-2.25241e-15 7.75072 13.1309)
(-2.14699e-15 7.61107 13.0321)
(-2.46066e-15 6.41974 10.9302)
(-1.07408e-19 11.477 20.6046)
(-6.02901e-17 15.9023 26.263)
(-5.63745e-17 11.2129 20.3616)
(-6.38306e-17 10.1101 16.7215)
(-7.12364e-17 8.97163 15.9671)
(5.24055e-16 9.07466 14.9534)
(4.23505e-16 8.57154 14.6226)
(4.28221e-16 8.58955 14.1876)
(4.37677e-16 8.37491 13.9769)
(4.52131e-16 8.30786 13.7424)
(4.36139e-16 8.19076 13.5827)
(4.95683e-16 8.11784 13.4454)
(4.68776e-16 8.03844 13.3442)
(4.8092e-16 7.98038 13.2605)
(5.03814e-16 7.90922 13.196)
(4.4746e-16 7.85469 13.1194)
(4.84055e-16 7.74736 13.0282)
(5.12e-16 7.66613 12.8987)
(4.4588e-16 7.45384 12.6997)
(5.49219e-16 6.04119 10.286)
(-1.21585e-19 12.2893 21.8283)
(1.65494e-17 15.1522 25.2072)
(1.52811e-17 11.1959 20.1897)
(1.74176e-17 10.7624 17.6659)
(2.35673e-17 9.72712 16.7529)
(-1.10261e-16 9.60714 15.6419)
(-1.13911e-16 9.08263 15.0184)
(-1.0574e-16 8.91767 14.4411)
(-1.05152e-16 8.66699 14.0653)
(-1.13736e-16 8.51391 13.7471)
(-1.09533e-16 8.35773 13.5058)
(-1.16824e-16 8.2328 13.3092)
(-1.1241e-16 8.11327 13.156)
(-1.16584e-16 8.01285 13.0286)
(-1.1508e-16 7.90301 12.9255)
(-1.07072e-16 7.80432 12.8096)
(-1.12291e-16 7.64569 12.6661)
(-1.16262e-16 7.48195 12.4343)
(-1.0914e-16 7.14902 12.0887)
(-1.27994e-16 5.55563 9.38593)
(1.15078e-19 12.8777 22.7206)
(-5.32158e-18 14.4898 24.4347)
(-5.16694e-18 12.1234 21.3425)
(-5.73843e-18 11.6026 19.0674)
(-8.8165e-18 10.583 17.7017)
(2.13879e-17 10.1706 16.4108)
(3.04287e-17 9.61829 15.4941)
(2.92276e-17 9.28184 14.7423)
(2.90114e-17 8.9731 14.1836)
(3.0911e-17 8.7309 13.7432)
(3.00824e-17 8.51818 13.3939)
(3.03101e-17 8.33204 13.1101)
(3.1015e-17 8.15931 12.8802)
(3.06043e-17 8.00448 12.6859)
(2.90938e-17 7.84221 12.521)
(2.7933e-17 7.68684 12.3435)
(2.92217e-17 7.45801 12.1263)
(2.88058e-17 7.1991 11.7602)
(2.94846e-17 6.70244 11.2302)
(3.51156e-17 4.93295 8.19007)
(-4.52137e-20 12.9167 22.7991)
(1.66905e-18 14.5903 24.8507)
(1.71338e-18 13.3878 23.0946)
(1.75427e-18 12.5019 20.6065)
(2.80649e-18 11.3932 18.7666)
(-3.87895e-18 10.7363 17.229)
(-7.93511e-18 10.1154 16.0599)
(-8.57489e-18 9.64816 15.1087)
(-8.56489e-18 9.25459 14.3536)
(-8.80646e-18 8.92321 13.749)
(-8.62693e-18 8.63572 13.2578)
(-8.698e-18 8.37878 12.8517)
(-9.08926e-18 8.1393 12.5133)
(-8.9702e-18 7.91873 12.2212)
(-8.508e-18 7.68911 11.9648)
(-8.31432e-18 7.46472 11.6942)
(-8.70327e-18 7.14562 11.3753)
(-8.39767e-18 6.78096 10.8391)
(-8.7678e-18 6.08399 10.0929)
(-1.02669e-17 4.12351 6.609)
(3.63132e-21 12.57 22.2871)
(-4.00567e-19 15.6057 26.5549)
(-3.97968e-19 14.5481 24.9139)
(-3.53094e-19 13.3591 22.048)
(-5.58759e-19 12.0875 19.8942)
(7.18213e-19 11.2939 18.1378)
(1.64598e-18 10.5886 16.778)
(1.79702e-18 10.0251 15.6283)
(1.75463e-18 9.53627 14.6661)
(1.77017e-18 9.10981 13.861)
(1.74034e-18 8.73214 13.1857)
(1.78659e-18 8.3903 12.6135)
(1.90518e-18 8.06881 12.1249)
(1.95377e-18 7.76792 11.6941)
(1.93063e-18 7.45377 11.3064)
(1.99015e-18 7.14317 10.9004)
(2.1931e-18 6.71253 10.4398)
(2.23626e-18 6.22748 9.69571)
(2.42589e-18 5.30251 8.69709)
(2.96591e-18 3.14062 4.66971)
(1.49238e-21 12.3439 22.0254)
(5.11926e-20 16.927 28.52)
(3.3773e-20 15.375 26.4644)
(1.55835e-20 14.0244 23.1517)
(2.36061e-20 12.6002 20.9706)
(-1.53766e-19 11.8159 19.1155)
(-2.04813e-19 11.0338 17.6622)
(-1.17239e-19 10.4052 16.34)
(-4.81447e-20 9.82045 15.179)
(-3.47417e-20 9.29439 14.155)
(-2.90883e-20 8.81471 13.2606)
(-3.38448e-20 8.37289 12.4785)
(-4.5714e-20 7.95273 11.7918)
(-5.59568e-20 7.55399 11.1721)
(-6.67756e-20 7.13592 10.6019)
(-1.0391e-19 6.71837 10.0081)
(-1.86536e-19 6.15579 9.35437)
(-2.6158e-19 5.53622 8.3663)
(-3.73933e-19 4.36107 7.06017)
(-7.06877e-19 2.03933 2.44371)
(-7.45784e-22 12.4576 22.4214)
(5.07944e-21 18.1016 30.0697)
(1.22537e-20 15.7399 27.4449)
(1.34769e-20 14.4733 23.8431)
(1.73192e-20 12.9392 21.9313)
(2.88067e-20 12.2993 20.0763)
(6.04697e-21 11.4233 18.6355)
(-3.00345e-20 10.7641 17.1828)
(-4.83242e-20 10.0811 15.8716)
(-4.98518e-20 9.46021 14.6501)
(-4.83379e-20 8.8723 13.538)
(-4.69839e-20 8.31856 12.5258)
(-4.90525e-20 7.78302 11.6053)
(-5.57678e-20 7.26716 10.7505)
(-6.39371e-20 6.72479 9.94625)
(-6.915e-20 6.18222 9.11191)
(-6.61351e-20 5.47328 8.21468)
(-6.0896e-20 4.71709 6.95413)
(-4.75859e-20 3.25829 5.24024)
(-1.02502e-20 0.95101 0.184164)
(1.77621e-23 13.012 23.6543)
(-3.17074e-21 18.909 30.9186)
(-3.70527e-21 15.6497 27.7697)
(-2.28086e-21 14.7927 24.2021)
(-7.32653e-22 13.1324 22.7128)
(-7.95758e-22 12.702 20.8388)
(-3.34769e-21 11.6716 19.4692)
(-9.76494e-21 11.019 17.9226)
(-1.71321e-20 10.2304 16.5424)
(-2.24509e-20 9.53388 15.1866)
(-2.60944e-20 8.84113 13.9121)
(-2.9883e-20 8.17545 12.7016)
(-3.27688e-20 7.51787 11.5586)
(-3.26722e-20 6.87666 10.4636)
(-2.97241e-20 6.20383 9.41272)
(-2.47132e-20 5.53904 8.32314)
(-1.7635e-20 4.68651 7.16679)
(-7.68511e-21 3.81684 5.61725)
(7.69793e-21 1.98261 3.3944)
(-2.47881e-20 -0.0477788 -1.59612)
(1.63391e-22 13.9074 25.5588)
(-2.20508e-22 19.2716 31.0238)
(-1.10069e-21 15.2965 27.693)
(-1.71766e-21 15.083 24.397)
(-3.67783e-21 13.2188 23.2512)
(-2.02486e-21 12.9801 21.2775)
(6.08042e-21 11.7654 19.9651)
(1.61928e-20 11.1416 18.3418)
(2.30564e-20 10.2551 16.9434)
(2.61146e-20 9.51051 15.5103)
(2.77234e-20 8.7335 14.1425)
(2.97821e-20 7.98158 12.8024)
(3.21595e-20 7.22871 11.5046)
(3.38206e-20 6.49294 10.2359)
(3.44919e-20 5.72686 9.00374)
(3.43711e-20 4.9735 7.71656)
(3.29562e-20 4.00565 6.33735)
(3.0463e-20 3.033 4.52093)
(2.36026e-20 0.882817 1.89996)
(7.21853e-21 -0.787182 -2.64323)
(-1.12544e-22 14.882 27.7162)
(6.66211e-22 19.3086 30.5979)
(1.25008e-21 15.0108 27.6809)
(1.3471e-21 15.4378 24.6457)
(2.30882e-21 13.3476 23.6507)
(9.4319e-22 13.2402 21.5641)
(-3.76131e-21 11.919 20.2532)
(-8.7885e-21 11.3175 18.5742)
(-1.16619e-20 10.3925 17.1455)
(-1.2607e-20 9.63004 15.6592)
(-1.29625e-20 8.82374 14.2322)
(-1.36004e-20 8.04415 12.8201)
(-1.45451e-20 7.26246 11.4381)
(-1.54753e-20 6.49198 10.0692)
(-1.63093e-20 5.67749 8.70914)
(-1.71979e-20 4.82616 7.24076)
(-1.80428e-20 3.72772 5.61152)
(-1.88369e-20 2.56096 3.53222)
(-3.37212e-20 0.404228 0.819605)
(4.34909e-20 -1.20718 -3.18774)
(4.73068e-23 15.7325 29.8905)
(-3.51807e-22 19.3147 30.1056)
(-5.7376e-22 15.0308 28.1165)
(-5.56243e-22 15.9473 25.2142)
(-8.8783e-22 13.694 24.2549)
(-2.76981e-22 13.6812 22.1313)
(1.48394e-21 12.367 20.7996)
(3.19596e-21 11.792 19.1107)
(4.06903e-21 10.9105 17.6497)
(4.26834e-21 10.1799 16.1405)
(4.27374e-21 9.42391 14.6831)
(4.36986e-21 8.69071 13.2318)
(4.58666e-21 7.93869 11.7719)
(4.86121e-21 7.14109 10.2482)
(5.19429e-21 6.20408 8.61406)
(5.66371e-21 5.09816 6.74244)
(6.37872e-21 3.6893 4.64184)
(7.40769e-21 2.12663 2.06378)
(5.72432e-21 -0.271979 -0.959244)
(4.18045e-20 -1.82553 -4.77711)
(-1.44811e-23 16.2428 31.7542)
(1.22584e-22 19.3471 29.7621)
(1.84825e-22 15.1791 28.8219)
(1.67702e-22 16.434 26.0155)
(2.51712e-22 14.0925 25.1112)
(6.12903e-23 14.1752 23.065)
(-4.25196e-22 12.918 21.7832)
(-8.66579e-22 12.4208 20.1746)
(-1.06966e-21 11.6318 18.7821)
(-1.09071e-21 11.0152 17.3574)
(-1.05642e-21 10.3862 15.9824)
(-1.03913e-21 9.76284 14.5613)
(-1.05148e-21 9.03219 12.9867)
(-1.08677e-21 8.06904 11.087)
(-1.15111e-21 6.70934 8.77624)
(-1.27352e-21 5.0382 6.12621)
(-1.43917e-21 3.02331 3.47922)
(-2.21323e-21 1.0221 0.487092)
(4.29194e-21 -1.82547 -2.92819)
(1.74907e-20 -2.93292 -7.0171)
(3.9483e-24 15.9826 32.3046)
(-3.55189e-23 18.9631 29.1177)
(-4.89758e-23 14.7962 28.8917)
(-4.22893e-23 16.0654 26.2542)
(-6.68654e-23 13.7576 25.4168)
(-7.89534e-24 13.7496 23.5725)
(1.19583e-22 12.539 22.4095)
(2.17694e-22 12.0523 20.9845)
(2.50983e-22 11.3003 19.7855)
(2.43385e-22 10.7606 18.5752)
(2.26278e-22 10.1823 17.3941)
(2.13771e-22 9.5209 15.999)
(2.08482e-22 8.49667 14.0442)
(2.16083e-22 6.80644 11.0836)
(2.58129e-22 4.32652 7.08265)
(3.54089e-22 1.60376 2.97436)
(3.46443e-22 -1.58762 -0.651478)
(-1.90857e-21 -0.93353 -1.8751)
(4.75692e-22 -4.02204 -5.03556)
(-2.29781e-21 -3.8913 -8.60718)
(-3.98794e-25 14.5415 31.2038)
(9.48937e-24 18.2161 28.1723)
(1.12822e-23 13.6365 28.0472)
(1.05181e-23 14.4643 25.7954)
(9.36962e-24 12.4323 24.8996)
(-1.16846e-23 11.9416 23.3935)
(-3.53429e-23 10.8454 22.2539)
(-4.57274e-23 10.1145 21.0334)
(-4.50804e-23 9.32928 19.941)
(-4.06818e-23 8.65744 18.8784)
(-3.6894e-23 7.94682 17.7556)
(-3.50557e-23 7.03534 16.225)
(-3.36691e-23 5.58165 13.7193)
(-1.82575e-23 3.28856 9.65883)
(3.94533e-23 0.440981 4.41125)
(6.41113e-23 -1.75717 0.0303923)
(-3.68455e-22 -2.80365 -2.31323)
(-1.90603e-21 -3.7199 -4.33488)
(-4.47711e-21 -4.51177 -5.87497)
(-6.38065e-21 -3.00418 -4.86365)
(-2.9034e-26 11.2494 28.5031)
(-2.20479e-24 16.8512 24.9509)
(-2.23244e-24 11.9043 25.3598)
(-1.51957e-24 12.4656 23.7081)
(3.43642e-25 10.7065 23.0053)
(4.14442e-24 9.98233 21.9668)
(6.25459e-24 8.93246 21.1003)
(6.21898e-24 8.09068 20.2018)
(5.37748e-24 7.24851 19.3508)
(4.56228e-24 6.47529 18.5062)
(3.91678e-24 5.70577 17.6179)
(3.06917e-24 4.89296 16.5537)
(1.34768e-24 4.00151 15.1851)
(2.25593e-25 3.11131 13.4886)
(1.13275e-23 2.40392 11.5689)
(5.73428e-23 1.97124 9.59524)
(1.1532e-22 1.68142 7.61863)
(-2.62338e-23 1.31587 5.25055)
(-7.44282e-22 0.616994 2.25312)
(-1.33964e-21 -0.0566023 0.113003)
(7.63797e-26 2.56861 17.0031)
(3.2461e-25 8.03234 13.5897)
(2.15226e-25 5.1599 14.4459)
(2.02549e-26 4.98665 14.0486)
(-2.47189e-25 4.07123 14.0052)
(-4.97289e-25 3.51365 13.827)
(-5.28969e-25 2.94089 13.6635)
(-4.46366e-25 2.46973 13.4651)
(-3.57979e-25 2.05892 13.25)
(-2.92686e-25 1.72934 13.0311)
(-2.40366e-25 1.49267 12.841)
(-1.69166e-25 1.36593 12.7023)
(-6.46049e-26 1.34586 12.5943)
(-1.70477e-25 1.41373 12.4348)
(-1.52974e-24 1.55156 12.1266)
(-5.8779e-24 1.71182 11.6557)
(-1.25283e-23 1.92077 11.0317)
(-1.3236e-23 2.49143 10.0189)
(1.17797e-24 2.64347 8.59205)
(1.23782e-23 -0.231039 6.53292)
(-7.65368e-26 -2.56841 17.0029)
(-3.25241e-25 -8.03233 13.5893)
(-2.15194e-25 -5.15991 14.4455)
(-2.04448e-26 -4.98677 14.0481)
(2.46185e-25 -4.07142 14.0046)
(4.96153e-25 -3.51393 13.8263)
(5.2907e-25 -2.94126 13.6627)
(4.47911e-25 -2.47021 13.4643)
(3.60385e-25 -2.05954 13.2491)
(2.95246e-25 -1.73018 13.0304)
(2.41363e-25 -1.49382 12.8406)
(1.6631e-25 -1.36737 12.7021)
(5.8584e-26 -1.34741 12.594)
(1.79245e-25 -1.4151 12.434)
(1.60617e-24 -1.55251 12.1249)
(6.06842e-24 -1.71227 11.6535)
(1.26854e-23 -1.92071 11.0294)
(1.28429e-23 -2.49094 10.0169)
(-2.47801e-24 -2.64262 8.59069)
(-1.34476e-23 0.231503 6.53189)
(2.9247e-26 -11.2488 28.5018)
(2.21238e-24 -16.8505 24.9495)
(2.23301e-24 -11.9037 25.3583)
(1.51739e-24 -12.465 23.7066)
(-3.36916e-25 -10.7059 23.0038)
(-4.12592e-24 -9.98166 21.9652)
(-6.24392e-24 -8.93173 21.0988)
(-6.22957e-24 -8.08988 20.2003)
(-5.40545e-24 -7.24764 19.3494)
(-4.60539e-24 -6.47428 18.5046)
(-3.95507e-24 -5.7045 17.6161)
(-3.07003e-24 -4.89147 16.5514)
(-1.30117e-24 -4.00044 15.183)
(-2.93077e-25 -3.11209 13.4879)
(-1.20554e-23 -2.40776 11.5713)
(-5.90369e-23 -1.97784 9.60207)
(-1.14525e-22 -1.68935 7.62908)
(4.29728e-23 -1.32454 5.26204)
(7.96212e-22 -0.626785 2.26543)
(1.40284e-21 0.0499194 0.122544)
(4.00263e-25 -14.5412 31.2022)
(-9.54075e-24 -18.2151 28.1715)
(-1.1299e-23 -13.636 28.0463)
(-1.04959e-23 -14.4631 25.795)
(-9.36786e-24 -12.4313 24.8993)
(1.15678e-23 -11.9403 23.3935)
(3.51886e-23 -10.844 22.254)
(4.57152e-23 -10.1129 21.0338)
(4.51979e-23 -9.32745 19.9416)
(4.09995e-23 -8.65519 18.879)
(3.73781e-23 -7.94351 17.7551)
(3.55367e-23 -7.02958 16.221)
(3.3926e-23 -5.57161 13.7082)
(1.79382e-23 -3.27474 9.64023)
(-4.05253e-23 -0.430878 4.39596)
(-6.16146e-23 1.75633 0.0297745)
(3.9214e-22 2.803 -2.31018)
(1.9784e-21 3.7251 -4.3374)
(4.60065e-21 4.51155 -5.87385)
(6.49639e-21 3.00071 -4.85442)