/*--------------------------------*- C++ -*----------------------------------*\
| =========                 |                                                 |
| \\      /  F ield         | OpenFOAM: The Open Source CFD Toolbox           |
|  \\    /   O peration     | Version:  4.1                                   |
|   \\  /    A nd           | Web:      www.OpenFOAM.org                      |
|    \\/     M anipulation  |                                                 |
\*---------------------------------------------------------------------------*/
FoamFile
{
    version     2.0;
    format      ascii;
    class       surfaceScalarField;
    location    "3";
    object      phi;
}
// * * * * * * * * * * * * * * * * * * * * * * * * * * * * * * * * * * * * * //

dimensions      [0 3 -1 0 0 0 0];

internalField   nonuniform List<scalar> 
2360
(
57241.9
63325.4
-6083.43
63325.4
63325.4
70818.7
-7493.29
70818.7
70818.7
70818.7
80675.1
-9856.46
80675.1
80675.1
91160.5
-10485.4
91160.5
91160.5
104701
-13540.2
104701
104701
123533
-18832
123533
123533
130956
140642
150062
158890
167552
176195
60745.6
124292
69880.2
79088.2
88350.4
97639
106970
116291
125658
134986
144364
153681
163090
172246
181241
25593.9
155647
25593.8
25593.8
25593.8
-6482.48
32076.3
-6482.48
-6482.46
-6482.46
-642.285
-5840.16
-642.289
-642.271
4704.14
-5346.42
4704.16
4704.16
4704.18
-23618.7
28322.8
-23618.6
-23618.6
-23618.6
-177568
153949
-168532
-159333
-149880
-140518
-131090
-121712
-112293
-102923
-93544.9
-84211.4
-74906.9
-65660.2
-56485.6
-171097
123492
-162425
-153736
-144964
-135873
-126511
-119060
-119060
-119060
-89371
-29689.2
-89370.9
-89371
-77451.8
-11919.2
-77451.8
-77451.8
-65956.2
-11495.6
-65956.2
-65956.2
-55763.3
-10192.9
-55763.3
-55763.3
-55763.3
-47991
-7772.38
-47991
-47991
-41962
-6029.01
-5430.2
-10792.3
-6079.24
-16954.5
-6939.72
-20312.7
-8046.55
-24263.7
-9423.66
-28080.5
-11127.4
-32297
-13264.8
-36821.5
-16226.3
-41757.3
-20422.8
-47777.1
-24752.6
-59460.1
-27182
-81317.3
-25515
-83543.2
-14433.9
-27932.2
-3125.08
44195.6
3321.69
71436.7
7480.34
85025.6
8829.97
78769.6
9720.36
68311.9
44137.8
-7470.11
-10368
-8302.68
-16121.9
-9425.9
-19189.5
-10862.8
-22826.8
-12657.8
-26285.5
-14897.9
-30056.9
-17758.2
-33961.2
-21922.9
-37592.6
-28456.9
-41243.1
-36724.8
-51192.2
-44424.8
-73617.3
-47150.2
-80817.9
-29632.8
-45449.6
-7064.29
21627.1
2159.22
62213.2
6312.6
80872.2
8485.74
76596.5
10454
66343.6
46819.5
-8766.45
-9841.76
-9725.05
-15163.3
-11015.8
-17898.7
-12639.3
-21203.3
-14652.7
-24272.1
-17189.1
-27520.6
-20462
-30688.3
-25211.3
-32843.3
-33323
-33131.4
-46243.1
-38272.1
-62058.4
-57801.9
-73347.9
-69528.4
-59891.1
-58906.3
-22146
-16117.9
255.237
39812
4154.9
76972.6
7377.41
73374
11130.4
62590.5
47757
-10258.3
-9159.7
-11423.2
-13998.4
-12935.2
-16386.7
-14775.2
-19363.4
-16988.9
-22058.4
-19799.5
-24710
-23562.4
-26925.4
-28917.8
-27487.9
-38023.1
-24026.2
-55110.8
-21184.5
-80667.2
-32245.4
-102287
-47908.2
-98698
-62495.8
-57913.3
-56902.6
-12661.6
-5439.75
1856.36
62454.6
4707.54
70522.8
11959.2
55338.9
48220.7
-11838.6
-8289.59
-13251.5
-12585.5
-15013.6
-14624.6
-17076.8
-17300.2
-19439.1
-19696.1
-22428.9
-21720.1
-26800.6
-22553.7
-33224.8
-21063.6
-41810.9
-15440.1
-56165.9
-6829.56
-84914.2
-3497.07
-114826
-17995.9
-119670
-57652.1
-94363.5
-82209.3
-42817.5
-56985.7
-6321.74
25958.8
1248.06
62953
8969.37
47617.6
45270.9
-13561.7
-7193.7
-15274.4
-10872.8
-17331.7
-12567.3
-19690.6
-14941.3
-22302.4
-17084.2
-25454.7
-18567.8
-30093.3
-17915.1
-37490.3
-13666.6
-46844.7
-6085.75
-57078.2
3403.95
-75100.5
14525.3
-96218.4
3121.95
-101762
-52108.3
-96770.2
-87201.3
-74904.1
-78851.8
-28975
-19970.3
4128.41
29849.5
25490.2
26255.9
41071.9
-15464.8
-5838.4
-17526.6
-8811.04
-19935
-10158.9
-22722.3
-12154.1
-25879.5
-13927
-29517.2
-14930
-33763.1
-13669.2
-39003.4
-8426.32
-46030.4
941.282
-56263
13636.5
-68064.8
26327.1
-69013.4
4070.52
-66848.2
-54273.4
-77906
-76143.5
-93414.5
-63343.3
-84762.5
-28622.2
-65459
10546
-77292.5
38089.3
87271.4
-17547.3
-4193.67
-20013.7
-6344.55
-22848.9
-7323.68
-26203.7
-8799.33
-30168.9
-9961.76
-34946.8
-10152.2
-40469.6
-8146.42
-46059.1
-2836.81
-51018.5
5900.66
-55164.6
17782.6
-53498.1
24660.7
-41990.6
-7436.98
-44160.1
-52104
-68667.7
-51635.8
-103457
-28554.5
-130913
-1165.61
-144409
24041.9
-154933
48612.9
86288.2
-19729.5
-2246.18
-22648.1
-3425.92
-25975.4
-3996.41
-29914.7
-4860.01
-34384.7
-5491.78
-39143.3
-5393.62
-43512.3
-3777.4
-46339.9
-9.23802
-46316.6
5877.43
-41382.7
12848.7
-27782.8
11060.7
-19736.6
-15483.2
-39270.2
-32570.4
-71892.9
-19013.1
-97616.7
-2830.75
-109905
11123
-106601
20737.4
-85605.9
27617.9
29005.2
-21581.7
-40.1724
-24902.1
-105.556
-28693.2
-205.33
-33152.9
-400.265
-37859.2
-785.48
-41710.1
-1542.76
-42749.1
-2738.35
-39077.8
-3680.55
-29945.8
-3254.56
-15911.1
-1185.93
-3750.26
-1100.19
-17899.4
-1334.06
-52465.9
1996.04
-78591
7112
-87710.8
6289.1
-82023.7
5435.93
-60351.7
-934.58
-26134.7
-6599.15
-2475.97
-21607.2
2177.12
-24962.4
3249.6
-28825.1
3657.39
-33382.6
4157.22
-38115.4
3947.34
-41772.3
2114.16
-42442.9
-2067.82
-38281.5
-7841.86
-27991.6
-13544.5
-12925.9
-16251.6
-6482.11
-7543.99
-22638.6
14822.4
-51757.3
31114.7
-76898.8
32253.5
-85960.6
15350.9
-80714
189.311
-62051.3
-19597.2
-28442
-40208.5
-36758.1
-19766.2
4138.54
-22723.1
6206.55
-26132
7066.22
-30211.6
8236.89
-34820
8555.69
-39468.3
6762.46
-43140.1
1603.94
-44831
-6150.96
-43529.7
-14845.8
-37853.7
-21927.6
-29176.8
-16220.9
-28619.5
14265.1
-43549
46044.3
-69811.8
58516.3
-95300.7
40839.8
-110652
15540.8
-114173
-16075.9
-95990.6
-58391.4
-100672
-17594
5799.19
-20100.1
8712.7
-23008.6
9974.66
-26500
11728.3
-30719.7
12775.4
-35906.7
11949.5
-41821.2
7518.43
-47529.4
-442.811
-52223.2
-10152
-54679.4
-19471.4
-51951.4
-18948.9
-45921.7
8235.43
-48553.5
48676.1
-67528.3
77491
-100590
73901.1
-130635
45585.8
-145774
-936.26
-156043
-48123
-101068
-15515.1
7169.48
-17611.9
10809.5
-20084.6
12447.4
-23027.1
14670.8
-26654.1
16402.4
-31658.5
16954
-38858.4
14718.3
-47898.7
8597.44
-57310.4
-740.251
-66296.7
-10485.1
-72778.3
-12467.4
-72153.7
7610.86
-70546.4
47068.8
-77370.9
84315.5
-91153.9
87684.1
-87505.5
41937.5
-69148.3
-19293.5
-76748.5
-40522.8
-53524.7
-13613.2
8279.23
-15358.8
12555
-17482.6
14571.2
-20021.8
17210.1
-23148.8
19529.4
-27541.1
21346.3
-34385.7
21562.9
-44529
18740.7
-57391
12121.8
-72085.9
4209.77
-87056.2
2503.01
-97380
17934.6
-100701
50389.4
-97130.6
80745.5
-83796.8
74350.2
-52668.3
10809
-19720.9
-52240.9
6753.36
-66997
-65603.4
-11889.4
9162.54
-13335.8
14001.4
-15166.8
16402.1
-17394.1
19437.4
-20133.4
22268.8
-23845.6
25058.5
-29474.5
27191.7
-38367.4
27633.6
-51897.5
25651.9
-70501.3
22813.5
-91806.2
23807.9
-109412
35540.1
-115257
56235.1
-101491
66979.3
-66690.7
39549.9
-26740.9
-29140.9
-3856.04
-75125.8
8316.67
-79169.8
-70826.9
-10305.9
9856.87
-11503.5
15199
-13077.6
17976.3
-15031.5
21391.3
-17437.7
24675
-20561.1
28181.8
-24990.6
31621.2
-31862.2
34505.2
-42897
36686.7
-59579.6
39496.1
-80704.5
44932.8
-99379.3
54214.8
-103449
60304.7
-80223.7
43754.1
-36981.2
-3692.63
-4490.63
-61631.5
5664.98
-85281.4
9836.75
-83341.5
-71475.6
-8807.79
10393.4
-9794
16185.2
-11132.5
19314.8
-12822.1
23080.8
-14907.6
26760.6
-17534.1
30808.4
-21036.4
35123.5
-26168.6
39637.4
-34152.1
44670.2
-46243.4
51587.4
-62212.3
60901.8
-76436.5
68439
-74396
58264.2
-42595.1
11953.3
-7250.23
-39037.5
6799.48
-75681.2
8321.72
-86803.6
10002.7
-85022.5
-71329.3
-7502.38
10825.3
-8355.29
17038.1
-9510.77
20470.3
-10983
24553.1
-12799.7
28577.3
-15052.4
33061.1
-17943.7
38014.7
-21949.1
43642.9
-27713.5
50434.6
-35707.4
59581.4
-45750.5
70944.9
-53425.9
76114.4
-44016.8
48855.1
-15211.2
-16852.4
3063.32
-57312.1
7775.45
-80393.3
8839.6
-87867.8
9826.79
-86009.7
-68995.9
-5447.64
-6106.81
-6982.36
-8103.43
-9485.66
-11188.5
-13319.1
-16107.7
-19753
-24070.8
-28438.4
-30325.1
-21603.5
-6060.28
2816.91
7715.7
9158.02
9696.43
1344.64
-8768.2
2798.29
-11139.7
3831.37
-10453.4
4448.9
-9444.95
4786.64
-9000.35
4985.39
-8841.07
4973.99
-8831.67
4656.66
-8817.29
4295.02
-8846.43
3899.79
-8867.12
3493.65
-8882.6
3082.05
-8918.97
2676.96
-8916.11
2278.83
-8969.66
1898.57
-8947.52
1531.91
-9011.26
1194.43
-8979.48
869.349
-9084.42
545.4
-8831.92
-8448.95
639.911
-9408.16
905.557
-11405.4
981.132
-10529
996.642
-9460.51
943.446
-8947.2
869.67
-8767.34
862.748
-8824.8
882.814
-8837.4
895.789
-8859.45
889.796
-8861.17
876.34
-8869.18
843.174
-8885.85
811.102
-8884.07
755.187
-8913.78
707.32
-8899.69
627.843
-8931.81
561.845
-8913.5
453.46
-8976.06
381.992
-8760.47
-8066.96
558.468
-9966.66
1105.39
-11952.3
1517.64
-10941.3
1798.03
-9740.95
1858.23
-9007.44
1780.75
-8689.92
1656.16
-8700.26
1540.67
-8721.96
1429.78
-8748.6
1317.79
-8749.23
1210.89
-8762.32
1097.79
-8772.79
995.792
-8782.11
882.176
-8800.2
784.161
-8801.71
663.991
-8811.67
561.183
-8810.71
419.719
-8834.61
334.12
-8674.9
-7732.84
573.832
-10540.5
1150.14
-12528.7
1531.14
-11322.3
1762.19
-9972.03
1793.47
-9038.74
1700.5
-8596.97
1597.88
-8597.67
1501.77
-8625.88
1411.56
-8658.42
1314.38
-8652.08
1220.29
-8668.25
1117.96
-8670.49
1019.96
-8684.13
909.018
-8689.28
802.11
-8694.82
672.229
-8681.81
544.133
-8682.63
378.748
-8669.24
271.853
-8568.02
-7460.99
636.95
-11177.5
1242.94
-13134.7
1581.9
-11661.3
1738.75
-10128.9
1753.81
-9053.85
1686.39
-8529.6
1627.43
-8538.76
1542.4
-8540.89
1460.56
-8576.62
1360.75
-8552.31
1261.63
-8569.18
1150.42
-8559.32
1037.95
-8571.71
912.308
-8563.67
782.793
-8565.34
634.227
-8533.28
477.946
-8526.38
292.291
-8483.61
169.12
-8444.87
-7291.87
739.06
-11916.6
1143.81
-13539.5
1225.27
-11742.8
1188.74
-10092.4
1227.99
-9093.1
1278.42
-8580.04
1351.42
-8611.76
1342.3
-8531.78
1323.1
-8557.43
1265.84
-8495.06
1197.74
-8501.08
1107.42
-8469.01
1003.73
-8468.02
882.573
-8442.52
746.83
-8429.6
595.114
-8381.57
426.752
-8358.02
233.672
-8290.54
98.9928
-8310.2
-7192.88
809.053
-12725.6
736.442
-13466.9
484.701
-11491.1
328.556
-9936.27
520.215
-9284.78
757.425
-8817.27
971.032
-8825.39
1068.12
-8628.89
1129.06
-8618.38
1139.62
-8505.64
1118.77
-8480.25
1066.5
-8416.75
986.624
-8388.16
884.395
-8340.31
759.36
-8304.58
619.628
-8241.85
457.845
-8196.24
266.564
-8099.26
114.604
-8158.25
-7078.27
701.843
-13427.5
144.587
-12909.6
-166.581
-11179.9
-144.115
-9958.72
255.752
-9684.62
640.571
-9202.07
914.527
-9099.32
1097.98
-8812.33
1208.1
-8728.48
1272.99
-8570.51
1283.8
-8491.05
1258.27
-8391.2
1192.85
-8322.72
1100.1
-8247.55
979.205
-8183.67
840.372
-8103
675.079
-8030.94
464.575
-7888.75
252.764
-7946.42
-6825.51
312.276
-13739.8
-154.212
-12443.1
-9.98322
-11324.1
446.63
-10415.4
933.324
-10171.4
1350.94
-9619.73
1599.02
-9347.43
1798.49
-9011.84
1898.38
-8828.4
1959.3
-8631.47
1954.97
-8486.75
1909.84
-8346.1
1818.04
-8230.94
1692.57
-8122.1
1534.46
-8025.58
1349.75
-7918.31
1131.06
-7812.27
846.026
-7603.72
499.744
-7600.15
-6325.76
-166.928
-13572.8
251.545
-12861.6
1077.46
-12150
1875.04
-11212.9
2356.95
-10653.2
2751.75
-10014.5
2978.81
-9574.48
3149.11
-9182.13
3214.81
-8894.08
3226.33
-8642.97
3169.5
-8429.91
3060.75
-8237.33
2898.83
-8069.01
2692.12
-7915.38
2443.46
-7776.9
2152.77
-7627.6
1811.9
-7471.39
1382.03
-7173.84
821.463
-7039.57
-5504.3
-291.075
-13281.7
1080.92
-14233.6
2316.5
-13385.6
3195.44
-12091.8
3748.12
-11205.9
4178.04
-10444.4
4467.32
-9863.75
4655.39
-9370.19
4730.72
-8969.41
4718.13
-8630.36
4622.96
-8334.73
4454.88
-8069.25
4217.68
-7831.8
3915.9
-7613.6
3551.8
-7412.8
3120.13
-7195.92
2609.54
-6960.8
1986.06
-6550.34
1168.73
-6222.23
-4335.57
32.4773
-13314.2
1645.53
-15846.6
2859.36
-14599.4
3688.8
-12921.2
4379.49
-11896.6
4931.08
-10996
5370.49
-10303.1
5674.18
-9673.84
5846.65
-9141.83
5894.3
-8677.96
5829
-8269.39
5659.66
-7899.87
5391.84
-7563.94
5027.97
-7249.69
4567.83
-6952.62
4003.49
-6631.55
3323.56
-6280.84
2510.66
-5737.42
1462.27
-5173.8
-2873.3
625.185
-13939.3
1783.52
-17004.9
2625.56
-15441.4
3299.21
-13594.9
4056.42
-12653.8
4701.18
-11640.7
5288.87
-10890.8
5738.87
-10123.8
6062.81
-9465.75
6242.91
-8858.03
6284.84
-8311.3
6190.65
-7805.66
5962.6
-7335.87
5599.58
-6886.65
5100.1
-6453.12
4460.41
-5991.85
3679.26
-5499.67
2760.77
-4818.92
1577.28
-3990.28
-1296.02
1233.11
-15172.4
1649.87
-17421.6
2013.88
-15805.4
2453.55
-14034.5
3115.5
-13315.7
3688.73
-12213.9
4279.62
-11481.6
4765.55
-10609.7
5176.79
-9876.95
5464.12
-9145.33
5623.11
-8470.26
5637.25
-7819.76
5500.54
-7199.14
5207.39
-6593.46
4758.91
-6004.61
4158.02
-5390.93
3409.79
-4751.41
2516.27
-3925.38
1306.28
-2780.23
10.2556
1428.65
-16601
1190.45
-17183.4
1310.8
-15925.7
1574.25
-14297.9
2023.19
-13764.6
2404.35
-12595
2836.72
-11914
3218.19
-10991.1
3584.69
-10243.4
3881.15
-9441.75
4100.01
-8689.09
4215.19
-7934.91
4221.97
-7205.9
4116.17
-6487.63
3891.31
-5779.73
3515.61
-5015.21
2947.16
-4182.94
2166.04
-3144.24
1044.73
-1658.87
1054.98
1071.16
-17672.2
590.065
-16702.2
737.069
-16072.7
957.026
-14517.8
1243
-14050.5
1530.81
-12882.8
1840.9
-12224
2162.64
-11312.8
2491.11
-10571.9
2809.99
-9760.59
3112.86
-8991.94
3395.97
-8217.98
3670.26
-7480.15
3925.73
-6743.08
4087.44
-5941.4
3980.61
-4908.35
3435.36
-3637.66
2450.61
-2159.44
1219.9
-428.098
2274.88
275.756
-17947.9
-138.909
-16287.6
-107.406
-16104.2
35.6342
-14660.9
183.89
-14198.8
472.067
-13170.9
776.838
-12528.8
1181.97
-11718
1632
-11021.9
2154.92
-10283.5
2746.53
-9583.53
3435.82
-8907.25
4237.93
-8282.26
5100.41
-7605.54
5801.69
-6642.67
5941.38
-5048.03
5147.68
-2843.95
2408.41
579.846
771.938
1208.4
3046.82
-1190.43
-16757.5
-2488.38
-14989.6
-3460.64
-15131.9
-4108.62
-14012.9
-4672.72
-13634.7
-4949.38
-12894.3
-5115.82
-12362.3
-5083.27
-11750.5
-4915.99
-11189.1
-4587.3
-10612.2
-4109.51
-10061.3
-3470.67
-9546.1
-2690.26
-9062.66
-1834.27
-8461.52
-1063.61
-7413.33
-562.752
-5548.87
-452.952
-2953.63
89.8781
37.1512
-368.657
1666.96
2678.17
-2194.25
-14563.2
-4652.05
-12531.8
-7090.85
-12693.1
-9130.89
-11972.8
-11062
-11703.5
-12671.7
-11284.6
-14077.1
-10956.9
-15219.1
-10608.6
-16131.6
-10276.6
-16804.8
-9938.95
-17261.6
-9604.48
-17529.2
-9278.56
-17632.8
-8959.03
-17507.3
-8586.98
-16908.7
-8011.96
-15392.7
-7064.86
-12599.6
-5746.66
-8333.09
-4229.38
-3984.55
-2681.57
-1306.38
-5463.23
-8895.08
-12488.2
-15361
-17964.5
-20149.1
-22006.1
-23514.6
-24691.2
-25530.2
-26034.7
-26213.2
-26072.3
-25559.2
-24471.2
-22436
-19082.7
-14212.1
-7793.62
-5463.18
14563.1
-8895.11
12531.9
-12487.9
12692.8
-15360.5
11972.5
-17963.7
11703.2
-20148
11284.2
-22004.5
10956.5
-23512.7
10608.1
-24688.8
10276.1
-25527.2
9938.35
-26031.1
9603.87
-26209.1
9278.03
-26067.5
8958.42
-25553.3
8585.74
-24463.1
8009.77
-22426.3
7063.2
-19075
5748.72
-14210.4
4235.43
-7795.7
2685.29
1304.3
-2194.42
16757.5
-4650.68
14988.1
-7089.12
15131.2
-9128.59
14011.9
-11059.1
13633.7
-12668.2
12893.2
-14073
12361.4
-15214.5
11749.5
-16126.5
11188.1
-16799.2
10611
-17255.3
10060
-17521.8
9544.48
-17623.3
9060.01
-17493.8
8456.22
-16889
7404.92
-15368.2
5542.37
-12582.4
2962.92
-8335.87
-11.0497
-3985.98
-1664.58
-2681.68
-1184.45
17941.9
-2481.54
16285.1
-3450.43
16100.1
-4095.56
14657
-4656.56
14194.6
-4930.12
13166.7
-5092.88
12524.1
-5056.52
11713.1
-4885.05
11016.6
-4552.13
10278
-4069.9
9577.73
-3426.37
8900.91
-2640.96
8274.59
-1780.03
7595.27
-1004.7
6629.58
-500.137
5037.79
-387.889
2850.54
122.791
-521.864
-332.424
-1209.39
-3014.11
300.4
17641.5
-124.766
16710.3
-87.4305
16062.7
63.7087
14505.9
223.072
14035.3
520.014
12869.8
835.768
12208.3
1249.75
11299.1
1709.15
10557.2
2239.68
9747.49
2837.97
8979.42
3532.01
8206.87
4336.81
7469.78
5198.79
6733.28
5895.78
5932.58
6027.71
4905.85
5230.59
3647.65
2524.77
2183.92
827.503
487.831
-2186.61
1143.68
16497.8
663.199
17190.7
835.25
15890.6
1084.25
14256.8
1401.76
13717.7
1714.75
12556.8
2052.4
11870.6
2397.51
10954
2748.84
10205.8
3086.23
9410.08
3403.49
8662.13
3694.47
7915.86
3969.01
7195.21
4215.78
6486.48
4359.79
5788.55
4227.51
5038.09
3651.81
4223.33
2623.87
3211.82
1321.76
1789.89
-864.846
1631.5
14866.3
1391.64
17430.6
1457.99
15824.3
1711.17
14003.7
2219.85
13209.1
2668.83
12107.8
3188.36
11351.1
3653.97
10488.4
4101.84
9757.98
4465.37
9046.56
4731.77
8395.72
4872.32
7775.32
4880.97
7186.55
4752.74
6614.71
4482.57
6058.71
4041.19
5479.47
3391.84
4872.67
2512.04
4091.59
1285.04
3016.85
420.196
1191.64
13674.6
2404.61
16217.6
3445.71
14783.2
4356.52
13092.9
5451.76
12113.8
6343.64
11215.9
7131.05
10563.7
7671.06
9948.37
8027.21
9401.82
8195.87
8877.9
8195.35
8396.24
8022.73
7947.94
7682.29
7526.99
7168.18
7128.82
6480.93
6745.95
5619.71
6340.68
4592.22
5900.16
3386
5297.8
1863.95
4538.88
2284.14
590.186
13084.5
3004.02
13803.8
5138.09
12649.2
6745.65
11485.3
8178.74
10680.7
9277.46
10117.2
10078.4
9762.8
10510.5
9516.23
10604.4
9307.95
10407.7
9074.69
10002.8
8801.09
9451.12
8499.69
8781.34
8196.78
7995.93
7914.25
7090.55
7651.34
6053.4
7377.85
4883.94
7069.62
3565.51
6616.23
2009.13
6095.26
4293.28
591.805
12492.7
2294.64
12101
3773.33
11170.5
4878.48
10380.2
5760.19
9799.02
6446.58
9430.85
6959.58
9249.8
7275.02
9200.79
7360.62
9222.35
7201.76
9233.55
6868.57
9134.28
6439.76
8928.51
5944.4
8692.13
5387.22
8471.44
4766.85
8271.7
4072.11
8072.59
3295.46
7846.26
2415.36
7496.32
1342
7168.61
5635.28
511.726
11981
1185.88
11426.8
1688.2
10668.2
2054.41
10014
2353.42
9500.02
2620.61
9163.67
2868.76
9001.67
3090.11
8979.47
3252.32
9060.15
3305.01
9180.89
3264.99
9174.31
3166.23
9027.31
3015.86
8842.51
2815.62
8671.71
2567.84
8519.5
2267.75
8372.69
1905.94
8208.08
1456.81
7945.45
824.473
7800.96
6459.75
314.13
11666.8
511.18
11229.8
624.574
10554.8
704.779
9933.77
774.398
9430.4
848.517
9089.56
941.09
8909.1
1065.5
8855.07
1216.64
8909.03
1362.96
9034.59
1470.18
9067.11
1536.86
8960.65
1552.45
8826.94
1519.89
8704.28
1444.04
8595.36
1326.98
8489.76
1160.01
8375.06
914.582
8190.88
536.623
8178.93
6996.37
219.827
11447
300.701
11148.9
356.204
10499.3
397.986
9892
423.579
9404.82
436.648
9076.51
452.94
8892.83
487.922
8820.11
564.144
8832.83
700.122
8898.64
825.206
8942.05
913.561
8872.32
953.071
8787.45
950.085
8707.29
910.1
8635.37
840.721
8559.16
733.507
8482.29
562.621
8361.79
331.917
8409.65
7328.29
229.143
11217.9
322.72
11055.4
408.331
10413.7
476.279
9824.06
515.841
9365.27
527.208
9065.15
522.55
8897.5
517.268
8825.4
531.294
8818.82
594.539
8835.41
670.416
8866.19
715.185
8827.58
719.199
8783.46
690.571
8735.93
632.234
8693.73
555.775
8635.64
450.543
8587.53
302.51
8509.83
157.203
8554.97
7485.49
271.86
10946
389.182
10938.1
497.079
10305.8
582.39
9738.76
632.564
9315.11
648.744
9048.99
637.976
8908.29
621.988
8841.41
606.652
8834.18
609.947
8832.14
628.443
8847.72
626.91
8829.13
594.69
8815.7
541.258
8789.38
463.987
8771.02
375.844
8723.8
264.2
8699.19
128.71
8645.33
36.8965
8646.8
7522.39
310.419
10635.6
427.2
10821.3
533.151
10199.8
619.637
9652.29
671.048
9263.71
691.685
9028.36
685.468
8914.52
667.464
8859.43
641.146
8860.52
623.095
8850.2
605.733
8865.1
578.688
8856.19
531.192
8863.21
471.164
8849.43
393.879
8848.32
306.269
8811.42
200.697
8804.78
78.2844
8767.76
18.1887
8706.91
7540.58
346.778
10288.9
447.641
10720.4
547.452
10100
636.941
9562.8
690.625
9210.03
714.011
9004.99
705.608
8922.94
681.627
8883.42
650.338
8891.82
622.91
8877.64
591.598
8896.42
555.741
8892.06
511.927
8907.04
458.312
8903.05
398.292
8908.35
322.684
8887.04
239.162
8888.31
132.836
8874.09
90.3249
8749.43
7630.91
390.605
9898.27
464.521
10646.5
529.54
10035
600.62
9491.73
649.409
9161.25
675.542
8978.86
676.093
8922.39
662.343
8897.18
644.69
8909.48
623.288
8899.05
601.512
8918.21
572.067
8921.51
544.402
8934.71
502.648
8944.81
464.21
8946.79
401.937
8949.32
342.393
8947.86
248.105
8968.39
208.992
8788.55
7839.9
476.363
9421.91
598.573
10524.3
735.57
9898.02
876.817
9350.48
957.615
9080.45
983.849
8952.63
952.898
8953.35
904.363
8945.72
855.21
8958.64
799.478
8954.79
750.705
8966.99
692.481
8979.73
646.949
8980.25
586.231
9005.53
542.333
8990.7
473.028
9018.63
422.613
8998.28
332.974
9058.03
292.879
8828.64
8132.78
610.154
8811.75
518.946
10615.5
394.312
10022.7
333.52
9411.28
312.444
9101.53
314.378
8950.7
368.955
8898.77
439.396
8875.28
499.579
8898.46
535.464
8918.9
566.88
8935.57
575.228
8971.39
586.074
8969.4
569.042
9022.57
559.79
8999.95
515.079
9063.34
483.667
9029.68
408.094
9133.59
360.076
8876.66
8492.85
1360.45
2613.98
3545.65
4185.29
4597.97
4877.01
4894.69
4595.28
4247.12
3861.47
3463.6
3057.27
2655.96
2259.55
1881.29
1517.5
1184.36
864.998
542.942
)
;

boundaryField
{
    outletWall
    {
        type            calculated;
        value           nonuniform List<scalar> 
60
(
-41962
-40446.5
-69202.3
-80119.3
-89184.3
-77883.5
-55504.5
16851.1
81876.1
83746.7
63789.9
51973.6
44718.8
38958.9
34000.7
29457.6
25370.5
21173.2
17603.5
11102.4
5133.65
7070.49
8271.23
9611.59
11006.1
12503.5
14144.8
15933.3
17804.8
19389.9
19375.7
17782
15902.5
14109.5
12465.8
10968.5
9576.21
8240.18
7045.87
5120.04
-57242
-65382.8
-86548.1
-89310.1
-85292.1
-66189.3
-32395.5
40133.5
78001
75312.5
63899.2
54079.9
46431.4
40145.3
34763.9
29959.5
25674.1
21345.9
17697.3
11139.3
)
;
    }
    fineWalls
    {
        type            calculated;
        value           uniform 0;
    }
    fineFrontAndBack
    {
        type            calculated;
        value           nonuniform List<scalar> 
960
(
-7.62809e-15
-3.73548e-13
-4.07201e-14
1.09142e-14
-1.82989e-13
-7.13345e-14
4.88868e-14
-2.24262e-13
-4.01311e-12
-7.96914e-13
-3.39571e-13
9.66143e-12
1.82085e-12
-2.22697e-13
-7.27703e-12
-1.45962e-12
-2.08567e-12
-1.91533e-11
-1.67586e-11
-2.97245e-11
-9.43822e-12
-1.15875e-11
-1.34717e-11
-1.54937e-11
-1.71695e-11
-1.77705e-11
-4.4048e-10
-2.07924e-11
-2.28517e-11
-2.40374e-11
-2.44065e-11
-2.42748e-11
-2.39978e-11
-2.3922e-11
-2.42548e-11
-2.46964e-11
-2.55633e-11
-2.62141e-11
-2.61157e-11
-2.62741e-11
-6.27605e-10
-6.65571e-11
-4.39943e-11
-2.88663e-11
-8.03125e-11
4.70721e-13
7.05693e-12
9.64833e-12
5.49969e-11
1.31653e-12
-8.83046e-12
-1.04281e-10
-1.35056e-11
-1.09076e-11
-9.08057e-12
-3.6549e-11
6.02727e-12
2.51277e-11
5.53348e-11
6.06896e-10
2.59262e-11
2.59965e-11
2.60799e-11
2.56074e-11
2.44006e-11
2.33092e-11
2.26612e-11
2.27231e-11
2.33291e-11
2.39307e-11
2.39026e-11
2.27987e-11
2.06241e-11
4.03392e-10
1.56341e-11
1.42234e-11
1.09241e-11
6.37488e-12
1.59969e-12
-2.3617e-12
-3.22502e-11
-2.54351e-11
-1.02187e-10
-1.04719e-11
-3.40892e-12
1.68842e-11
4.1993e-12
6.22745e-12
3.08036e-11
4.5122e-12
4.91996e-12
1.41058e-11
-7.19411e-13
-9.89504e-13
-1.14546e-12
-6.02938e-12
-1.14581e-12
-1.32636e-12
-5.31919e-12
-1.51952e-14
4.29357e-13
7.50151e-13
7.9019e-13
6.73208e-13
7.94515e-13
1.67385e-12
3.16266e-12
4.41322e-12
4.6889e-12
3.4997e-12
-2.84306e-15
-5.74957e-12
-7.98933e-12
-2.64353e-12
-8.55563e-13
-3.01289e-13
-1.75737e-13
2.15754e-14
1.79004e-13
5.85227e-13
1.03712e-12
1.05008e-12
6.33364e-13
4.17052e-13
1.47649e-12
3.93888e-12
6.51266e-12
7.3254e-12
3.71064e-12
-7.3581e-12
-2.33467e-11
-2.63217e-11
-4.14084e-12
-7.79571e-13
-3.52381e-13
-2.38044e-13
-1.20682e-13
3.83434e-13
9.16469e-14
4.02809e-13
2.4644e-13
-9.61049e-13
-2.47588e-12
-2.32402e-12
7.21028e-13
5.31822e-12
7.58612e-12
9.73749e-13
-2.03008e-11
-4.99104e-11
-5.83707e-11
-2.41249e-11
3.3063e-12
-1.06577e-12
1.15719e-13
1.17919e-13
1.85649e-13
-1.67315e-12
-1.931e-12
-2.74777e-12
-6.03392e-12
-1.06886e-11
-1.27355e-11
-8.41167e-12
8.22906e-13
7.08951e-12
-1.59167e-12
-3.46645e-11
-8.66629e-11
-1.11083e-10
-8.54258e-11
-1.96665e-11
3.72523e-12
-6.29797e-13
-1.64677e-12
-7.44705e-12
-5.83022e-12
-7.71952e-12
-1.05425e-11
-1.81993e-11
-2.83961e-11
-3.35216e-11
-2.5735e-11
-7.71338e-12
5.80808e-12
4.56844e-13
-3.33514e-11
-1.15486e-10
-1.56809e-10
-1.52235e-10
-8.69513e-11
1.01221e-12
-8.7213e-13
1.29133e-11
1.63713e-11
-1.37408e-11
-1.9625e-11
-2.71857e-11
-4.22858e-11
-5.97107e-11
-6.65165e-11
-5.05367e-11
-1.88461e-11
2.34513e-12
-1.6832e-12
-2.74181e-11
-9.93507e-11
-1.36187e-10
-1.50817e-10
-1.14403e-10
2.88829e-11
-1.04172e-11
-6.76796e-11
-1.00382e-10
-2.66469e-11
-4.08284e-11
-5.72761e-11
-8.28618e-11
-1.07138e-10
-1.1066e-10
-7.92378e-11
-2.99697e-11
-1.02601e-12
-4.72177e-12
-2.61356e-11
-5.509e-11
-4.34112e-11
-8.61048e-11
-1.15525e-10
1.70866e-10
5.35543e-10
5.49712e-10
6.59864e-10
-4.42611e-11
-7.22529e-11
-1.01942e-10
-1.403e-10
-1.70302e-10
-1.65132e-10
-1.09961e-10
-3.97932e-11
-1.04536e-11
-1.49827e-11
-1.89433e-11
-9.46619e-14
2.26745e-11
-3.42101e-11
-1.50045e-10
6.01051e-11
6.62418e-10
1.05849e-09
1.14747e-09
-6.07624e-11
-1.04922e-10
-1.48901e-10
-2.00577e-10
-2.39582e-10
-2.33622e-10
-1.58299e-10
-4.58747e-11
1.79407e-11
2.10619e-11
1.33289e-11
2.17314e-11
-5.89097e-12
-6.08248e-11
-1.99344e-10
-1.65414e-10
1.58006e-10
5.36362e-10
5.71686e-10
-5.5913e-11
-1.0496e-10
-1.52653e-10
-2.07713e-10
-2.56433e-10
-2.79694e-10
-2.56374e-10
-1.91124e-10
-1.36833e-10
-7.52528e-11
-1.68842e-11
7.43155e-11
-5.58933e-11
-1.2641e-10
-2.0064e-10
-1.47019e-10
-6.57043e-11
6.71972e-11
9.58135e-11
2.14837e-11
9.92085e-12
-4.47592e-12
-1.54483e-11
-1.38676e-11
3.57721e-12
1.3307e-11
-7.27214e-12
6.86479e-12
2.98954e-13
-2.54294e-12
-6.20564e-15
-2.1886e-12
9.20511e-12
2.57133e-11
4.62364e-11
-6.34315e-12
-1.59905e-10
-2.17372e-10
4.01863e-11
3.7935e-11
2.81505e-11
1.85978e-11
1.20305e-11
9.28741e-12
8.10315e-12
9.06537e-12
7.3564e-12
4.1117e-12
-1.72201e-12
-1.09428e-11
7.29449e-13
5.65566e-11
1.66304e-10
1.30215e-10
-2.17263e-10
-6.73237e-10
-7.46411e-10
3.51442e-11
3.38927e-11
2.49831e-11
1.70403e-11
1.219e-11
1.14356e-11
1.11707e-11
8.16621e-12
6.51535e-12
1.02658e-11
1.2209e-11
2.63269e-12
5.34156e-12
6.66582e-11
1.67423e-10
-3.53297e-11
-6.38512e-10
-1.00892e-09
-1.13364e-09
2.37021e-11
2.23108e-11
1.52203e-11
1.06599e-11
1.02533e-11
1.26003e-11
1.18206e-11
6.80342e-12
7.08359e-12
1.76817e-11
3.3193e-11
4.40039e-11
5.29428e-11
1.04377e-10
1.60264e-10
-4.00196e-11
-3.9455e-10
-4.69381e-10
-6.45562e-10
1.31584e-11
1.19628e-11
7.25897e-12
5.5007e-12
7.75527e-12
1.13107e-11
1.0394e-11
5.35445e-12
7.06922e-12
2.31938e-11
5.03797e-11
8.14887e-11
1.13996e-10
1.49912e-10
1.56884e-10
3.36666e-11
-7.01855e-11
-5.08268e-11
1.32309e-11
5.78834e-12
4.89926e-12
2.31671e-12
2.15672e-12
5.04587e-12
8.42043e-12
7.86988e-12
3.56212e-12
4.33542e-12
2.11974e-11
5.49334e-11
9.56614e-11
1.3407e-10
1.52141e-10
1.28468e-10
4.49892e-11
-5.5125e-12
-1.83059e-12
-7.42807e-13
1.61249e-12
8.88065e-13
-2.57593e-13
2.6938e-13
2.72963e-12
5.28069e-12
5.1602e-12
2.13587e-12
1.41136e-12
1.25558e-11
4.09071e-11
7.94742e-11
1.11164e-10
1.14392e-10
7.58933e-11
1.8363e-11
-9.41232e-13
-3.03561e-13
-1.67832e-12
-2.12144e-13
-8.80666e-13
-1.28133e-12
-5.98884e-13
1.15261e-12
2.78663e-12
2.86272e-12
1.10592e-12
-1.69549e-13
5.1835e-12
2.36497e-11
5.2707e-11
7.45452e-11
6.39455e-11
2.17938e-11
4.83873e-13
-1.46697e-12
-4.43446e-14
-8.29363e-13
-7.04193e-13
-1.32183e-12
-1.44804e-12
-8.57208e-13
2.90853e-13
1.21915e-12
1.28182e-12
3.87796e-13
-6.88537e-13
1.09048e-12
1.08852e-11
2.97804e-11
4.36695e-11
2.67059e-11
2.71642e-12
-4.29014e-13
-1.0369e-12
6.93854e-14
-1.092e-12
-4.93205e-13
-8.84422e-13
-9.28588e-13
-6.06492e-13
-7.07235e-14
2.68618e-13
2.28806e-13
-1.00682e-13
-5.74227e-13
-4.23586e-13
2.52709e-12
1.02568e-11
1.79698e-11
1.22667e-11
4.97615e-12
3.22441e-13
-9.77815e-13
1.2242e-13
-1.06582e-12
7.62809e-15
3.73548e-13
4.07201e-14
-1.09142e-14
1.82989e-13
7.13345e-14
-4.88868e-14
2.24262e-13
4.01311e-12
7.96914e-13
3.39571e-13
-9.66143e-12
-1.82085e-12
2.22697e-13
7.27703e-12
1.45962e-12
2.08567e-12
1.91533e-11
1.67586e-11
2.97245e-11
9.43822e-12
1.15875e-11
1.34717e-11
1.54937e-11
1.71695e-11
1.77705e-11
4.4048e-10
2.07924e-11
2.28517e-11
2.40374e-11
2.44065e-11
2.42748e-11
2.39978e-11
2.3922e-11
2.42548e-11
2.46964e-11
2.55633e-11
2.62141e-11
2.61157e-11
2.62741e-11
6.27605e-10
6.65571e-11
4.39943e-11
2.88663e-11
8.03125e-11
-4.70721e-13
-7.05693e-12
-9.64833e-12
-5.49969e-11
-1.31653e-12
8.83046e-12
1.04281e-10
1.35056e-11
1.09076e-11
9.08057e-12
3.6549e-11
-6.02727e-12
-2.51277e-11
-5.53348e-11
-6.06896e-10
-2.59262e-11
-2.59965e-11
-2.60799e-11
-2.56074e-11
-2.44006e-11
-2.33092e-11
-2.26612e-11
-2.27231e-11
-2.33291e-11
-2.39307e-11
-2.39026e-11
-2.27987e-11
-2.06241e-11
-4.03392e-10
-1.56341e-11
-1.42234e-11
-1.09241e-11
-6.37488e-12
-1.59969e-12
2.3617e-12
3.22502e-11
2.54351e-11
1.02187e-10
1.04719e-11
3.40892e-12
-1.68842e-11
-4.1993e-12
-6.22745e-12
-3.08036e-11
-4.5122e-12
-4.91996e-12
-1.41058e-11
7.19411e-13
9.89504e-13
1.14546e-12
6.02938e-12
1.14581e-12
1.32636e-12
5.31919e-12
1.51952e-14
-4.29357e-13
-7.50151e-13
-7.9019e-13
-6.73208e-13
-7.94515e-13
-1.67385e-12
-3.16266e-12
-4.41322e-12
-4.6889e-12
-3.4997e-12
2.84306e-15
5.74957e-12
7.98933e-12
2.64353e-12
8.55563e-13
3.01289e-13
1.75737e-13
-2.15754e-14
-1.79004e-13
-5.85227e-13
-1.03712e-12
-1.05008e-12
-6.33364e-13
-4.17052e-13
-1.47649e-12
-3.93888e-12
-6.51266e-12
-7.3254e-12
-3.71064e-12
7.3581e-12
2.33467e-11
2.63217e-11
4.14084e-12
7.79571e-13
3.52381e-13
2.38044e-13
1.20682e-13
-3.83434e-13
-9.16469e-14
-4.02809e-13
-2.4644e-13
9.61049e-13
2.47588e-12
2.32402e-12
-7.21028e-13
-5.31822e-12
-7.58612e-12
-9.73749e-13
2.03008e-11
4.99104e-11
5.83707e-11
2.41249e-11
-3.3063e-12
1.06577e-12
-1.15719e-13
-1.17919e-13
-1.85649e-13
1.67315e-12
1.931e-12
2.74777e-12
6.03392e-12
1.06886e-11
1.27355e-11
8.41167e-12
-8.22906e-13
-7.08951e-12
1.59167e-12
3.46645e-11
8.66629e-11
1.11083e-10
8.54258e-11
1.96665e-11
-3.72523e-12
6.29797e-13
1.64677e-12
7.44705e-12
5.83022e-12
7.71952e-12
1.05425e-11
1.81993e-11
2.83961e-11
3.35216e-11
2.5735e-11
7.71338e-12
-5.80808e-12
-4.56844e-13
3.33514e-11
1.15486e-10
1.56809e-10
1.52235e-10
8.69513e-11
-1.01221e-12
8.7213e-13
-1.29133e-11
-1.63713e-11
1.37408e-11
1.9625e-11
2.71857e-11
4.22858e-11
5.97107e-11
6.65165e-11
5.05367e-11
1.88461e-11
-2.34513e-12
1.6832e-12
2.74181e-11
9.93507e-11
1.36187e-10
1.50817e-10
1.14403e-10
-2.88829e-11
1.04172e-11
6.76796e-11
1.00382e-10
2.66469e-11
4.08284e-11
5.72761e-11
8.28618e-11
1.07138e-10
1.1066e-10
7.92378e-11
2.99697e-11
1.02601e-12
4.72177e-12
2.61356e-11
5.509e-11
4.34112e-11
8.61048e-11