/*--------------------------------*- C++ -*----------------------------------*\
| =========                 |                                                 |
| \\      /  F ield         | OpenFOAM: The Open Source CFD Toolbox           |
|  \\    /   O peration     | Version:  4.1                                   |
|   \\  /    A nd           | Web:      www.OpenFOAM.org                      |
|    \\/     M anipulation  |                                                 |
\*---------------------------------------------------------------------------*/
FoamFile
{
    version     2.0;
    format      ascii;
    class       volScalarField;
    location    "28";
    object      p;
}
// * * * * * * * * * * * * * * * * * * * * * * * * * * * * * * * * * * * * * //

dimensions      [0 2 -2 0 0 0 0];

internalField   nonuniform List<scalar> 
1680
(
49372.4
-22495.3
4071.98
-8456.08
-1299.03
-5462.79
-3614.18
-3020.37
-3731.96
-3477.54
-3331.56
-3310.45
-2280.21
-3108.19
-2785.06
-2710.4
-2728.47
-1719.68
-2062.31
-3206.37
-2321.95
-2336.42
-2059.18
-1907.8
-1818.8
-1706.4
-1608.24
-1498.88
-1417.92
-1344.6
-1119.14
-1000.2
-920.882
-771.752
-662.4
-569.615
-541.855
-564.857
-574.599
-420.81
-184.231
-430.827
-124.087
-93.0166
-190.152
-131.69
38.7311
112.7
1.22698
192.441
233.374
166.534
208.273
315.671
391.245
317.742
354.361
439.857
508.615
432.943
-6837.59
-2659.19
-6858.44
-2659.07
-96.4471
1120.86
972.196
847.364
785.032
921.696
1006.17
898.339
740.185
659.36
593.139
651.424
747.801
910.834
293.677
-8518.33
-2979.56
-7977.07
-3184.83
-184.801
1101.29
911.299
766.329
713.894
918.505
992.935
873.907
695.496
617.79
533.646
553.805
680.27
850.238
2.09113
-10260.6
-3364.45
-9088.16
-3710.33
-249.29
1054.9
821.664
659.992
623.064
908.984
963.95
837.79
642.915
570.367
464.883
432.476
591.759
770.257
-351.962
-12080.5
-3806.2
-10144.2
-4213.13
-276.301
976.897
698.474
520.548
506.01
885.868
917.38
789.372
583.408
516.027
386.651
288.43
483.321
670.465
-763.395
-14009.6
-4312.15
-11097.4
-4662.49
-253.696
868.791
542.384
343.747
356.264
844.869
854.821
729.453
517.613
453.925
299.737
125.333
357.882
550.286
-1213.5
-16010.9
-4889.81
-11903.7
-5038.6
-174.801
744.89
365.775
134.157
171.418
781.859
777.076
659.101
446.001
383.634
206.375
-50.6984
221.241
421.539
-1710.45
-18068.2
-5540.97
-12539.1
-5299.69
-28.5876
633.013
198.845
-86.9342
-37.8532
693.822
685.221
579.244
368.713
305.128
110.197
-232.664
82.2682
293.963
-2159.89
-20154
-6276.78
-12990.3
-5358.2
208.975
566.716
85.7962
-278.803
-237.689
584.22
582.748
491.708
286.216
219.19
15.6688
-414.993
-55.0126
143.322
-2704.91
-22308.5
-7080.91
-13323.2
-5467.17
536.62
563.594
52.0258
-402.918
-380.968
463.156
472.802
397.131
198.111
126.657
-74.4873
-594.617
-193.786
-24.3061
-3228.38
-24421.2
-8032.13
-13582.9
-6271.71
853.826
607.222
71.4634
-458.787
-450.069
346.497
362.642
299.337
106.345
30.3884
-158.666
-767.878
-335.011
-174.702
-3699.95
-26787
-8938.05
-13861.9
-6624.65
1065.67
648.685
99.8418
-475.376
-482.35
237.165
249.015
193.937
7.22405
-69.5323
-237.969
-923.045
-473.12
-306.951
-4138.65
-28739.5
-10544
-14102.1
-6126.27
1159.55
633.858
116.296
-474.379
-509.904
150.896
150.38
95.6847
-89.1717
-164.477
-304.283
-1037.77
-592.249
-444.289
-4523.18
-31747.5
-12293
-14360.9
-4923.37
1091.95
536.246
123.502
-463.683
-542.738
61.6677
29.3339
-28.2978
-207.203
-265.624
-361.567
-1083.41
-660.526
-540.615
-4758.43
-32074.8
-14194.1
-14559.7
-3022.05
847.614
351.439
136.904
-447.691
-555.378
32.5418
-22.5492
-97.1881
-286.588
-336.516
-387.799
-1064.16
-626.309
-508.302
-5053.64
-38677.9
-14920.1
-14645.8
-578.004
428.636
102.289
156.336
-443.127
-568.913
-84.1377
-216.918
-305.453
-476.236
-457.955
-438.629
-1031.26
-511.423
-468.868
-5050.93
-30072.4
-16894.8
-15129.9
1455.28
-198.453
-105.289
136.225
-459.907
-491.077
39.8351
-61.1923
-187.797
-412.126
-427.176
-402.154
-971.021
-417.293
-791.569
-5463.73
-58076.5
-13208.8
-16743.4
3072.21
-664.747
-150.336
76.0699
-420.102
-442.981
-340.392
-693.416
-856.843
-984.239
-735.946
-553.778
-956.578
-435.005
-329.658
-4668.16
2352.4
-21313.4
-11130.6
6548.09
-546.214
-123.451
39.7668
-287.295
-195.852
444.618
504.795
326.281
-32.0231
-191.652
-286.606
-875.493
-255.232
2320.85
-6601.75
-145036
-2014.46
7453.19
1874.55
-918.299
-166.099
-149.058
-594.182
-343.24
-1379.28
-2481.77
-2889.3
-2791.72
-1676.24
-1024.41
-972.664
-105.038
-1901.99
-2887
293234
-176618
-68883.5
-7849.14
-1454.08
-232.77
-344.102
-837.746
197.212
2731.1
4380.64
4640.44
3954.65
2078.91
883.55
-527.277
-187.639
-13546.2
-14432.6
-673.985
-679.199
-681.176
-685.112
-686.888
-688.71
-689.49
-689.594
-688.962
-688.265
-685.75
-681.752
-679.136
-675.542
-671.27
-675.042
-690.161
-703.953
-706.504
-701.336
-681.287
-681.331
-680.439
-678.991
-676.774
-673.934
-670.443
-666.352
-661.684
-656.422
-650.493
-644.126
-637.613
-630.609
-623.434
-618.679
-617.359
-619.021
-621.502
-624.455
-646.619
-647.744
-648.07
-648.562
-648.627
-648.479
-647.947
-647.078
-645.793
-644.098
-641.955
-639.362
-636.266
-632.648
-628.791
-625.725
-624.522
-624.978
-626.595
-626.13
-648.779
-648.912
-648.929
-648.987
-648.979
-648.957
-648.87
-648.743
-648.545
-648.289
-647.952
-647.543
-647.049
-646.469
-645.74
-644.842
-643.908
-643.42
-643.274
-642.713
-641.981
-642.159
-642.171
-642.249
-642.246
-642.243
-642.185
-642.108
-641.984
-641.834
-641.641
-641.422
-641.166
-640.89
-640.582
-640.267
-639.923
-639.61
-639.074
-638.92
-643.167
-643.191
-643.172
-643.192
-643.181
-643.184
-643.165
-643.148
-643.112
-643.07
-643.008
-642.936
-642.841
-642.737
-642.604
-642.467
-642.295
-642.141
-641.874
-641.626
-641.156
-641.249
-641.269
-641.331
-641.359
-641.403
-641.427
-641.458
-641.476
-641.497
-641.507
-641.517
-641.517
-641.519
-641.507
-641.504
-641.476
-641.474
-641.416
-641.39
-640.972
-641.023
-641.03
-641.071
-641.086
-641.119
-641.138
-641.165
-641.183
-641.206
-641.222
-641.241
-641.253
-641.27
-641.276
-641.293
-641.29
-641.313
-641.295
-641.316
-640.161
-640.226
-640.243
-640.292
-640.318
-640.359
-640.387
-640.424
-640.453
-640.487
-640.516
-640.547
-640.574
-640.605
-640.629
-640.662
-640.679
-640.719
-640.724
-640.773
-639.665
-639.721
-639.735
-639.779
-639.801
-639.838
-639.864
-639.898
-639.926
-639.958
-639.986
-640.016
-640.044
-640.075
-640.1
-640.134
-640.153
-640.194
-640.203
-640.256
-639.096
-639.152
-639.167
-639.211
-639.233
-639.271
-639.297
-639.331
-639.36
-639.392
-639.421
-639.452
-639.481
-639.512
-639.539
-639.573
-639.594
-639.635
-639.646
-639.7
-638.589
-638.641
-638.655
-638.696
-638.718
-638.753
-638.779
-638.811
-638.838
-638.868
-638.897
-638.926
-638.955
-638.983
-639.011
-639.042
-639.064
-639.102
-639.114
-639.166
-638.091
-638.141
-638.156
-638.195
-638.216
-638.25
-638.275
-638.306
-638.332
-638.361
-638.389
-638.416
-638.444
-638.471
-638.499
-638.528
-638.55
-638.586
-638.598
-638.648
-637.619
-637.666
-637.68
-637.718
-637.738
-637.771
-637.794
-637.824
-637.849
-637.877
-637.904
-637.93
-637.957
-637.982
-638.01
-638.036
-638.059
-638.092
-638.105
-638.151
-637.167
-637.211
-637.225
-637.26
-637.28
-637.311
-637.333
-637.361
-637.385
-637.411
-637.437
-637.462
-637.488
-637.512
-637.539
-637.563
-637.587
-637.616
-637.63
-637.674
-636.748
-636.789
-636.802
-636.835
-636.852
-636.881
-636.902
-636.927
-636.95
-636.974
-636.997
-637.02
-637.044
-637.065
-637.092
-637.112
-637.137
-637.161
-637.177
-637.216
-636.353
-636.39
-636.405
-636.437
-636.454
-636.482
-636.502
-636.526
-636.548
-636.571
-636.593
-636.615
-636.637
-636.657
-636.681
-636.697
-636.723
-636.741
-636.757
-636.791
-635.954
-635.981
-635.992
-636.025
-636.038
-636.063
-636.083
-636.105
-636.128
-636.151
-636.174
-636.198
-636.223
-636.247
-636.275
-636.295
-636.329
-636.344
-636.371
-636.408
-635.679
-635.689
-635.673
-635.694
-635.694
-635.701
-635.706
-635.711
-635.717
-635.723
-635.731
-635.74
-635.752
-635.767
-635.787
-635.808
-635.847
-635.868
-635.94
-635.997
-635.714
-635.772
-635.734
-635.724
-635.706
-635.688
-635.669
-635.649
-635.626
-635.601
-635.573
-635.542
-635.507
-635.469
-635.425
-635.376
-635.323
-635.255
-635.213
-635.05
535.13
581.731
531.542
551.993
608.219
681.911
618.2
634.85
683.94
766.416
677.187
749.54
813.87
739.172
746.449
790.585
868.979
774.405
828.123
818.854
877.582
890.634
885.054
888.934
893.609
902.43
913.239
930.551
937.465
982.551
995.484
1006.37
1018.33
1029.83
1041.64
1050.79
1052.42
1050.72
1053.27
1046.18
1050.44
1087.24
1051.53
1070.17
1064.53
1080
1102.32
1081.27
1096.7
1091.93
1101.48
1104.43
1095.02
1098.31
1095.86
1091.18
1091.23
1091.08
1092.02
1091.88
413.63
307.036
159.541
399.869
667.971
974.833
1070.24
1104.7
1079.26
1059.45
1030.33
974.319
946.222
975.622
1013.41
1035.33
1038.93
1101.35
1077
415.5
296.349
135.309
388.524
662.63
972.497
1068.66
1103.39
1078.22
1058.45
1029.1
971.392
941.651
970.978
1009.99
1034.96
1038.67
1102.61
1073.02
402.737
265.809
101.993
376.354
653.433
968.971
1066.22
1101.15
1076.07
1055.91
1026.47
967.709
936.797
963.372
1002.07
1035.5
1043.71
1106.41
1066.22
360.607
226.992
58.2223
359.186
641.672
964.974
1063.25
1098.32
1072.83
1051.75
1022.78
962.389
930.32
956.048
995.037
1035.99
1048.32
1108.31
1056.24
293.351
180.49
5.02716
337.836
628.091
961.161
1060.01
1095.1
1068.61
1046.06
1018.04
955.987
922.779
948.492
987.994
1035.06
1050.94
1110.17
1046.08
204.234
125.513
-58.9226
312.085
613.753
958.097
1056.64
1091.68
1063.62
1039.09
1012.45
948.747
913.869
940.197
980.318
1032.76
1051.61
1111.85
1035.73
93.3728
62.3548
-134.93
282.005
599.25
956.365
1053.42
1088.15
1057.96
1031.15
1006.09
941
903.769
931.195
971.726
1029.04
1049.92
1112.86
1028.25
-39.6023
-9.85195
-225.939
246.509
584.662
956.36
1050.53
1084.45
1051.68
1022.6
999.142
933.034
892.542
921.409
961.873
1023.7
1045.28
1112.18
1023.35
-196.297
-93.0661
-337.064
203.528
569.438
958.237
1048.1
1080.46
1044.68
1013.81
991.942
925.35
880.455
910.853
950.487
1016.58
1036.91
1110.9
1019.84
-379.965
-189.781
-474.981
150.197
552.688
962.195
1046.27
1076.02
1036.82
1005.01
984.856
918.526
867.729
899.543
937.327
1007.47
1023.48
1108.92
1018.17
-595.294
-302.682
-647.526
83.0317
533.386
968.959
1045.19
1070.98
1027.99
996.309
978.163
912.847
854.194
887.253
922.288
995.85
1003.5
1103.39
1015.81
-848.348
-434.508
-864.143
-2.29049
510.434
978.898
1044.99
1065.25
1018.08
987.705
972.247
907.474
839.489
873.284
905.014
981.764
976.39
1094.38
1013.93
-1146.69
-587.911
-1136.53
-111.238
482.483
991.882
1045.75
1058.66
1007.03
979.193
967.751
901.458
823.918
857.358
885.105
965.623
945.25
1084.22
1008.63
-1499.5
-765.566
-1478.93
-250.688
447.924
1007.82
1047.34
1050.85
994.671
970.775
965.083
898.142
809.79
841.473
861.822
946.676
915.734
1072.42
1003.2
-1918.11
-969.509
-1907.74
-428.912
404.829
1026.39
1049.27
1041.13
980.579
962.418
963.619
903.842
802.225
825.979
834.099
924.458
891.836
1058.27
986.743
-2415.67
-1201.79
-2440.11
-655.101
351.091
1047
1050.61
1028.4
963.975
954.112
963.074
913.095
804.652
808.113
802.541
899
874.886
1045.48
957.494
-3009.62
-1460.93
-3091.01
-937.908
284.882
1068.64
1049.92
1011.03
943.618
946.026
967.154
915.823
812.51
785.842
768.028
870.446
864.273
1030.86
905.53
-3716.53
-1747.95
-3868.6
-1283.2
204.658
1089.79
1045.15
987.038
917.773
938.459
980.902
915.358
812.257
759.317
730.86
836.181
850.45
1009.53
820.669
-4568.02
-2048.07
-4769.6
-1690.98
109.296
1108.38
1033.47
953.965
884.329
931.549
998.255
914.23
799.552
729.374
689.929
788.074
828.612
986.073
694.504
-5569.66
-2372.02
-5776.47
-2154.48
4.89913
1120.77
1010.87
908.712
840.953
925.585
1007.75
910.475
775.352
696.224
644.551
727.587
795.86
954.882
520.734
1704.16
1622.02
1573.14
1517.28
1468.57
1421.59
1377.88
1336.57
1297.65
1260.82
1225.92
1192.75
1161.13
1131.01
1102.48
1074.77
1047.9
1025.7
1000.84
964.714
1024.19
1001.98
1010.23
999.381
996.866
990.418
985.689
980.608
976.235
972.336
969.173
966.812
965.414
965.185
966.351
968.671
971.749
975.849
979.676
980.868
1010.18
1002.56
1010.41
1003.01
1004.73
1001
999.44
996.564
993.989
991.12
988.263
985.402
982.709
980.413
978.787
977.693
976.79
975.87
974.209
972.465
989.65
983.453
984.784
976.935
975.952
970.081
966.86
962.208
958.296
954.112
950.171
946.307
942.76
939.771
937.677
936.365
935.46
934.845
933.777
934.854
950.704
946.682
948.793
944.488
946.234
943.293
943.57
942.091
941.678
940.933
940.522
940.222
940.2
940.615
941.638
943.381
945.171
947.114
948.551
951.92
964.481
963.969
967.709
966.179
969.992
969.516
972.106
973
974.839
976.377
978.093
979.839
981.634
983.513
985.454
987.565
989.677
992.2
994.447
997.865
996.69
997.885
1001.23
1000.62
1004.2
1004.35
1006.86
1008.05
1009.88
1011.5
1013.19
1014.89
1016.58
1018.28
1019.96
1021.66
1023.34
1025.24
1026.81
1028.72
1021.23
1022.95
1025.48
1025.41
1028.42
1028.81
1031.1
1032.19
1033.82
1035.04
1036.12
1036.83
1037.14
1037.05
1036.8
1036.74
1037.35
1038.5
1039.58
1040.31
1038.55
1039.34
1040.49
1039.91
1041.5
1040.96
1041.94
1041.61
1041.73
1041.18
1040.56
1039.65
1038.67
1037.65
1036.71
1035.96
1035.4
1034.81
1034.76
1033.53
1037.55
1034.88
1034.93
1032.6
1032.6
1030.7
1030.31
1028.83
1028.02
1026.69
1025.45
1023.79
1021.8
1019.29
1016.45
1013.49
1011.03
1010.23
1009.71
1005.58
988.397
982.396
980.561
975.881
973.358
968.902
965.581
961.142
957.292
953.11
949.519
946.237
943.633
941.657
940.499
940.025
940.142
940.678
940.198
939.861
947.168
942.635
941.865
938.868
937.705
935.077
933.662
931.509
930.134
928.791
928.109
927.818
927.982
928.465
929.202
930.148
931.187
932.491
933.684
936.939
951.865
951.93
953.094
952.906
954.077
954.244
955.252
955.767
956.62
957.366
958.239
959.162
960.171
961.311
962.587
964.181
965.994
968.829
971.297
974.771
976.154
978.355
980.917
982.544
984.717
986.227
988.131
989.752
991.461
993.095
994.709
996.31
997.899
999.516
1001.14
1002.84
1004.47
1006.26
1007.6
1009.56
994.858
997.394
999.81
1001.75
1003.74
1005.22
1006.89
1008.3
1009.72
1011.05
1012.32
1013.56
1014.76
1015.95
1017.11
1018.3
1019.42
1020.7
1021.62
1022.95
1017.19
1019.38
1020.6
1021.92
1023.16
1024.15
1025.29
1026.26
1027.27
1028.24
1029.19
1030.13
1031.06
1031.99
1032.95
1033.98
1035.05
1036.27
1037.14
1038.3
1034.75
1036.39
1036.43
1037.33
1037.87
1038.4
1038.97
1039.41
1039.82
1040.09
1040.26
1040.33
1040.35
1040.42
1040.7
1041.23
1042.1
1043.04
1043.83
1044.32
1055.04
1055.04
1052.7
1051.77
1050.93
1050.57
1050.23
1049.82
1049.41
1049.01
1048.63
1048.25
1047.86
1047.31
1046.52
1045.5
1044.62
1043.7
1043.59
1042.5
1041.5
1040.65
1038.02
1036.95
1035.86
1034.69
1033.48
1032.48
1031.7
1030.97
1030.13
1028.98
1027.37
1025.2
1022.73
1020.41
1018.64
1017.45
1017.4
1015.98
1056.42
1056.74
1057.7
1058.13
1057.41
1055.71
1053.37
1050.74
1047.94
1044.99
1041.92
1039.22
1036.24
1032.97
1029.93
1027.05
1024.26
1021.01
1018.72
1014.35
)
;

boundaryField
{
    outletWallLeft
    {
        type            fixedValue;
        value           uniform 0;
    }
    fineWallsLeft
    {
        type            zeroGradient;
    }
    fineFrontAndBackLeft
    {
        type            zeroGradient;
    }
    fineplugLeft
    {
        type            cyclicAMI;
        value           nonuniform List<scalar> 
20
(
-1003.58
-871.697
-956.777
-929.65
-913.27
-892.249
-873.24
-851.45
-834.753
-819.531
-772.428
-718.742
-727.485
-694.784
-669.496
-653.956
-660.5
-676.134
-680.123
-645.231
)
;
    }
    symmetryWallLeft
    {
        type            cyclicAMI;
        value           nonuniform List<scalar> 
20
(
484.036
407.205
932.858
771.83
689.506
618.845
677.792
757.769
904.407
1006.96
923.64
812.992
878.038
991.531
1120.81
-45.774
-2406.78
-6317.45
-2515.6
-6203.63
)
;
    }
    inletOutletLeft
    {
        type            cyclicAMI;
        value           nonuniform List<scalar> 
20
(
-645.231
-680.123
-676.134
-660.5
-653.956
-669.496
-694.784
-727.485
-718.742
-772.428
-819.531
-834.753
-851.45
-873.24
-892.249
-913.27
-929.65
-956.777
-871.697
-1003.58
)
;
    }
    inletLeft
    {
        type            zeroGradient;
    }
    inletWallsLeft
    {
        type            zeroGradient;
    }
    inletFacesLeft
    {
        type            zeroGradient;
    }
    fineWallsRight
    {
        type            zeroGradient;
    }
    outletWallRight
    {
        type            zeroGradient;
    }
    fineplugRight
    {
        type            cyclicAMI;
        value           nonuniform List<scalar> 
20
(
986.999
993.099
993.818
997.195
1000.36
1004.43
1009.02
1015.1
1027.4
1030.04
1035.09
1039.63
1044.26
1048.66
1052.9
1056.09
1056.99
1056.31
1056.34
1054.37
)
;
    }
    fineFrontAndBackRight
    {
        type            zeroGradient;
    }
    symmetryWallRight
    {
        type            cyclicAMI;
        value           nonuniform List<scalar> 
20
(
484.036
407.205
932.858
771.83
689.506
618.845
677.792
757.769
904.407
1006.96
923.64
812.992
878.038
991.531
1120.81
-45.774
-2406.78
-6317.45
-2515.6
-6203.63
)
;
    }
    inletOutletRight
    {
        type            cyclicAMI;
        value           nonuniform List<scalar> 
20
(
986.999
993.099
993.818
997.195
1000.36
1004.43
1009.02
1015.1
1027.4
1030.04
1035.09
1039.63
1044.26
1048.66
1052.9
1056.09
1056.99
1056.31
1056.34
1054.37
)
;
    }
    inletRight
    {
        type            zeroGradient;
    }
    inletWallsRight
    {
        type            zeroGradient;
    }
    inletFacesRight
    {
        type            zeroGradient;
    }
}


// ************************************************************************* //
