/*--------------------------------*- C++ -*----------------------------------*\
| =========                 |                                                 |
| \\      /  F ield         | OpenFOAM: The Open Source CFD Toolbox           |
|  \\    /   O peration     | Version:  4.1                                   |
|   \\  /    A nd           | Web:      www.OpenFOAM.org                      |
|    \\/     M anipulation  |                                                 |
\*---------------------------------------------------------------------------*/
FoamFile
{
    version     2.0;
    format      ascii;
    class       surfaceScalarField;
    location    "28";
    object      phi;
}
// * * * * * * * * * * * * * * * * * * * * * * * * * * * * * * * * * * * * * //

dimensions      [0 3 -1 0 0 0 0];

internalField   nonuniform List<scalar> 
3120
(
-225038
-196137
-225038
-189164
-35873.8
-189164
-171063
-18101.3
-155522
-15540.4
-155522
-146512
-9010
-139180
-7332.49
-139180
-135703
-3476.68
-135703
-133741
-1962.51
-128828
-4912.92
-128828
-123944
-4883.32
-123944
-119590
-4354.5
-114352
-5237.41
-114352
-112581
-106966
-3968.48
-105213
-103530
-101881
-100270
-98690.5
-97142.1
-95624.5
-94140
-92697.5
-88615.8
-2686.85
-87312.2
-86523.4
-86698
-87615.8
-88543
-88932.8
-88566.8
-88196.7
-79685.1
-8511.63
-79685.2
-79685.2
-71473.6
-8211.57
-71473.6
-71473.7
-71473.6
-63956.6
-7517.03
-63956.6
-63956.6
-57258.3
-6698.35
-57258.3
-57258.3
-57258.3
-51862.3
-5396.02
-51862.3
-51862.3
-51862.3
-47649.5
-4212.88
-21403.8
264617
-29269.8
150995
-33656.3
99199.1
-15572.6
-167130
5925.34
-223512
18981.4
-166033
24129.8
-98157.3
23927.4
-41557.1
20071.4
107.601
16043.8
2730.21
7530.93
6865.45
-2417.52
37140.2
-5617.24
48561.6
-7616.43
43017.5
-10678.3
45691
-9839.8
27707.5
3141.89
-41219.4
12507.8
-85229.3
67693.1
-19614.2
288643
-29199.2
160580
-31234.1
101234
-11646.6
-186717
10112.7
-245272
23067.4
-178987
27860.9
-102951
26941.9
-40638.2
22312.8
4736.64
17021.2
8021.64
7014.3
16872.3
-2172.5
46326.9
-5037.58
51426.6
-7908.94
45888.7
-11658.4
49440.4
-10555.8
26604.7
3476.65
-55251.9
13809
-95561.6
76106
-17776.2
311340
-28684.1
171488
-27857.1
100407
-6939.87
-207634
14721.7
-266933
27315
-191581
31750.9
-107387
30021.5
-38908.8
24307.5
10450.7
17472.7
14856.5
6493.02
27852
-1792.21
54612.2
-4557.12
54191.6
-8176.58
49508.2
-12345.9
53609.7
-11013.3
25272.2
3526.28
-69791.5
14731.3
-106767
84139
-15960
332714
-27694.5
183222
-23626.1
96338.6
-1603.26
-229657
19418.8
-287955
31216.2
-203378
35306.3
-111477
33034.8
-36637.4
26043.5
17441.9
17444.5
23455.5
5960.95
39335.4
-1353.93
61927
-4169.35
57006.9
-8352.32
53691.1
-12680.2
57937.6
-11150.1
23741.9
3291.64
-84233.3
15131.4
-118606
91753.3
-14173.2
352801
-26295
195344
-18689.8
88733.4
4213.77
-252561
23820.4
-307562
34030.3
-213588
37649.9
-115096
35371.6
-34359.1
27318.8
25494.8
16999.9
33774.4
5407.45
50927.9
-928.014
68262.5
-3876.03
59955
-8434.35
58249.5
-12643.9
62147.1
-10966.6
22064.6
2741.87
-97941.7
15012.6
-130877
98554.3
-12417.6
371627
-24594.6
207521
-13295
77433.8
10352
-276208
27594.6
-324805
34894.8
-220888
37525.4
-117727
36060.8
-32894.6
27776.8
33778.7
16184.5
45366.6
4875.04
62237.4
-552.855
73690.3
-3673.73
63075.8
-8415.69
62991.4
-12196.4
65927.8
-10555.9
20424
1762.84
-110260
14268.3
-143383
104311
-10736.1
389261
-22760.6
219546
-7767.22
62440.3
16723.3
-300698
30565.7
-338647
33262.3
-223585
33774.1
-118239
34023.7
-33144.3
27019.9
40782.6
15012.1
57374.4
4395.79
72853.7
-248.441
78334.6
-3546.63
66374
-8259.2
67704
-11303.2
68971.8
-10098.2
19219
204.731
-120563
13148.3
-156326
114772
-9183.31
405816
-21216.6
231579
-2886.58
44110.3
23389.8
-326975
32984.3
-348242
29688.3
-220289
26625.5
-115176
28932
-35450.9
24818.9
44895.6
13492.5
68700.9
3979.24
82366.9
-15.2693
82329.1
-3455.01
69813.7
-7914.47
72163.4
-10006.4
71063.7
-9738.83
18951.3
-1930.62
-128372
12519.4
-170776
123323
-7868.61
421532
-19999.5
243710
304.338
23806.5
30523.4
-357194
35580.5
-353299
26144.2
-210853
18922.4
-107954
22474.3
-39002.8
21504.9
45865
11715.7
78490.1
3630.43
90452.1
162.898
85796.6
-3342.26
73318.9
-7343.33
76164.5
-8420.65
72141
-9386.81
19917.5
-4405.36
-133353
11654.8
-186836
129741
-7001.02
436816
-16796.9
253506
908.216
6101.39
38391.3
-394677
39192.4
-354100
24641.1
-196301
14254.6
-97567.8
17471
-42219.2
17875.5
45460.4
9861.91
86503.7
3362.16
96951.9
307.716
88851
-3180.53
76807.1
-6555.21
79539.2
-6636.06
72221.8
-8558.71
21840
-6597.39
-135314
10026.7
-203460
135413
-6037.48
451633
-22780.2
270248
12840.5
-29519.3
47500.8
-429337
44025.4
-350624
25141.5
-177417
12759
-85185.3
14649
-44109.2
14558.5
45550.9
8138.22
92924.1
3179.21
101911
414.115
91616.1
-3011.61
80232.9
-5621.9
82149.5
-4637.63
71237.6
-6590.83
23793.3
-7779.48
-134126
8384.68
-219625
138914
-4096.73
464876
-22848.4
289000
28765.9
-81133.6
58092.9
-458664
49138.7
-341670
25787.6
-154066
11947.2
-71344.8
12819.5
-44981.6
11739.9
46630.5
6678.62
97985.4
3093.69
105496
521.819
94188
-2816.48
83571.1
-4564.64
83897.6
-2298.9
68971.8
-3177.74
24672.1
-7636.76
-129667
6982.41
-234244
140984
-1923.54
476646
-17789.3
304866
45814.6
-144737
69367.2
-482217
52974.6
-325277
24905.5
-125997
10384.8
-56824.1
11234
-45830.8
9548.4
48316.1
5596.2
101938
3072.38
108020
623.684
96636.7
-2546.5
86741.4
-3422.77
84773.9
80.9113
65468.2
967.24
23785.9
-6701.95
-121997
5036.1
-245982
144057
1515.33
484879
-9205.2
315586
65029.4
-218972
79853.5
-497041
53388.6
-298813
21392.1
-94000.8
7661.19
-43093.3
9241.29
-47410.9
7777.24
49780.1
4840.52
104874
3147.09
109713
866.365
98917.4
-1956.84
89564.5
-2079.09
84896.1
2231
61158
4957.18
21059.6
-6006.6
-111034
3246.49
-255235
143827
2517.15
493875
-273.277
318377
86088.5
-305334
87058.3
-498011
47621.8
-259376
14261.6
-60640.6
3505.46
-32337.1
6328.55
-50234
6778.12
49330.6
4632.53
107020
3221.33
111124
939.721
101199
-1403.95
91908.2
-857.552
84349.8
3484.95
56815.6
7525.94
17018.8
-5864.53
-97643.2
1885.58
-262985
138380
4866.74
497841
13047.2
310196
107391
-399678
87267.2
-477886
33436.2
-205545
4088.64
-31293.1
-822.187
-27426.3
2265.9
-53322.1
5527.97
46068.5
4566.96
107981
3593.4
112098
1486.35
103306
-322.187
93716.7
728.735
83298.8
4356.56
53187.7
9359.01
12016.2
-5712.36
-82571.9
-113.384
-268584
129257
14239.5
500268
33237.2
291199
127240
-493681
76781.9
-427429
13265.7
-142029
-4546.06
-13481.4
-2985.35
-28987
106.253
-56413.7
6219.52
39955.2
5451.94
108748
3590.73
113959
672.382
106224
-1186.17
95575.3
592.844
81519.8
1713.2
52067.4
9078.19
4651.37
-5054.87
-68438.8
-543.654
-273095
113173
-25464.3
525051
37979
227755
139351
-595053
52558.2
-340636
-3152.18
-86318.5
-4986.18
-11647.4
-2409.3
-31563.9
-1374.64
-57448.3
4304.75
34275.8
6483.49
106570
6299.8
114143
4073.73
108451
2078.69
97570.4
4149.6
79448.9
4696.33
51520.7
16382.7
-7034.99
-2142.75
-49913.3
1194.97
-276433
96266.5
208632
354493
156166
280222
129668
-568555
11607.5
-222576
-12848.3
-61862.6
-1406.53
-23089.3
85.97
-33056.4
1652.92
-59015.3
8455.14
27473.6
4107.69
110917
-1905.34
120156
-7649.99
114195
-10208.9
100129
-6350.18
75590.2
3986.03
41184.4
31204.5
-34253.5
8752.4
-27461.2
-11.5216
-267669
60381.2
-710255
250083
76601
-15270.6
-7215.57
-314.03
581.779
-7008.11
1202.69
26998.3
39177.5
41095.1
34578.8
37609.1
34491.5
29779
17431.8
-65623.7
-659.377
-1112.06
-969.599
-1336.06
-1375.19
-1347.16
-1704.1
-1354.44
-1984.62
-1368.67
-2220.53
-1374.53
-2421.95
-1378.55
-2592.3
-1378.12
-2736.5
-1373.45
-2858.17
-1362.78
-2946.19
-1354.53
-2980.23
-1360.78
-2974.42
-1309.36
-2765.41
-997.909
-2275.61
-315.178
-1701.56
343.679
-1227.75
453.465
-718.974
-118.91
-338.986
-745.951
-709.147
-359.273
-752.777
-581.695
-1113.63
-863.072
-1065.78
-1149.9
-1067.61
-1437.37
-1081.2
-1720.6
-1091.3
-1998.79
-1100.36
-2268.86
-1108.04
-2527.38
-1114.93
-2769.89
-1120.27
-3000.27
-1124.15
-3232.21
-1128.83
-3408.2
-1133.37
-3298.83
-1107.27
-2634.88
-979.116
-1554.35
-736.843
-503.202
-597.65
152.082
-774.148
262.875
-856.695
-446.272
-41.5267
-711.241
-62.802
-1092.35
-79.284
-1049.29
-117.399
-1029.49
-167.2
-1031.39
-227.48
-1031.01
-297.102
-1030.73
-376.067
-1029.07
-464.037
-1026.95
-560.589
-1023.72
-665.228
-1019.5
-780.419
-1013.64
-905.06
-1008.72
-999.891
-1012.44
-950.643
-1028.36
-642.777
-1044.71
-183.91
-1056.51
104.271
-1062.32
161.602
-914.009
-284.67
-26.2315
-685.012
-45.5135
-1073.07
-66.4791
-1028.33
-86.0973
-1009.87
-105.148
-1012.34
-122.784
-1013.38
-138.733
-1014.78
-152.401
-1015.41
-163.162
-1016.19
-170.518
-1016.36
-173.656
-1016.37
-171.304
-1016
-165.005
-1015.02
-165.607
-1011.84
-189.946
-1004.02
-238.536
-996.12
-286.407
-1008.64
-290.658
-1058.07
-197.02
-1007.65
-481.69
-4.8312
-680.179
-14.28
-1063.62
-24.0843
-1018.52
-35.5626
-998.392
-48.1149
-999.787
-61.464
-1000.03
-75.4601
-1000.79
-89.9613
-1000.91
-104.75
-1001.4
-119.552
-1001.56
-134.065
-1001.85
-148.111
-1001.95
-161.119
-1002.01
-170.505
-1002.45
-171.499
-1003.02
-164.911
-1002.71
-171.062
-1002.48
-194.559
-1034.57
-141.938
-1060.27
-623.628
13.6795
-693.858
11.3637
-1061.3
7.38969
-1014.55
4.49107
-995.494
1.33684
-996.633
-1.94998
-996.742
-5.42477
-997.31
-9.02511
-997.307
-12.7501
-997.678
-16.5731
-997.735
-20.4761
-997.948
-24.401
-998.024
-28.3302
-998.081
-32.6423
-998.142
-37.84
-997.826
-42.8814
-997.665
-48.0813
-997.282
-64.2142
-1018.44
-62.5008
-1061.98
-686.129
17.007
-710.865
13.5658
-1057.86
8.31275
-1009.29
5.02685
-992.208
1.78239
-993.389
-1.42649
-993.533
-4.61459
-994.122
-7.71537
-994.206
-10.7419
-994.652
-13.6487
-994.829
-16.4114
-995.186
-19.0128
-995.423
-21.4019
-995.692
-23.5269
-996.017
-25.1833
-996.17
-26.4078
-996.441
-27.7239
-995.966
-33.4088
-1012.75
-34.3076
-1061.08
-720.436
19.7863
-730.651
17.1383
-1055.21
12.9744
-1005.13
10.9409
-990.173
8.87917
-991.326
6.77505
-991.428
4.60978
-991.956
2.43783
-992.033
0.233202
-992.447
-1.97465
-992.62
-4.18541
-992.974
-6.39278
-993.215
-8.56138
-993.523
-10.724
-993.854
-12.8215
-994.072
-14.837
-994.425
-16.7709
-994.032
-21.6633
-1007.86
-24.6757
-1058.07
-745.112
20.2947
-750.946
16.962
-1051.88
12.7934
-1000.96
10.856
-988.237
8.92587
-989.397
6.98348
-989.487
5.01708
-989.991
3.07339
-990.09
1.12011
-990.494
-0.817226
-990.683
-2.74704
-991.045
-4.66935
-991.293
-6.56221
-991.631
-8.46112
-991.955
-10.2975
-992.236
-12.1161
-992.607
-13.8681
-992.28
-17.9334
-1003.79
-21.61
-1054.39
-766.722
20.4522
-771.398
16.624
-1048.05
12.8092
-997.145
11.0857
-986.513
9.32297
-987.633
7.54433
-987.707
5.73118
-988.177
3.92979
-988.288
2.10616
-988.67
0.286819
-988.863
-1.54128
-989.216
-3.37552
-989.458
-5.19915
-989.807
-7.04591
-990.108
-8.85488
-990.426
-10.6803
-990.781
-12.4222
-990.538
-16.2021
-1000.01
-20.5254
-1050.07
-787.247
20.3896
-791.787
15.9316
-1043.59
12.3664
-993.58
10.7426
-984.889
9.0586
-985.949
7.36614
-986.015
5.64268
-986.453
3.9324
-986.578
2.19996
-986.937
0.472765
-987.136
-1.26651
-987.477
-3.01178
-987.713
-4.75284
-988.066
-6.51933
-988.342
-8.25579
-988.69
-10.0225
-989.014
-11.6913
-988.869
-15.1893
-996.515
-20.1074
-1045.15
-807.355
20.2734
-812.059
15.2027
-1038.52
11.9145
-990.29
10.3845
-983.357
8.77264
-984.336
7.15689
-984.398
5.51004
-984.805
3.87538
-984.942
2.21695
-985.278
0.563875
-985.482
-1.10474
-985.807
-2.77808
-986.038
-4.4524
-986.39
-6.15074
-986.642
-7.82425
-987.015
-9.53485
-987.303
-11.1343
-987.269
-14.3749
-993.274
-19.8868
-1039.64
-827.241
20.1446
-832.203
14.452
-1032.83
11.4359
-987.274
9.98386
-981.905
8.43707
-982.789
6.8906
-982.851
5.31387
-983.228
3.74912
-983.376
2.16004
-983.688
0.577165
-983.898
-1.02354
-984.206
-2.62629
-984.435
-4.23473
-984.782
-5.86307
-985.013
-7.4717
-985.406
-9.12012
-985.654
-10.6491
-985.739
-13.6302
-990.292
-19.7331
-1033.53
-846.974
20.0183
-852.22
13.7038
-1026.51
10.9633
-984.532
9.58398
-980.524
8.10299
-981.307
6.62561
-981.372
5.11813
-981.719
3.62221
-981.879
2.10162
-982.166
0.587217
-982.383
-0.946694
-982.671
-2.48007
-982.901
-4.02442
-983.236
-5.58278
-983.454
-7.12823
-983.86
-8.71318
-984.068
-10.1765
-984.275
-12.9003
-987.568
-19.5923
-1026.84
-866.567
19.9099
-872.129
12.9652
-1019.56
10.5013
-982.067
9.18991
-979.212
7.77559
-979.891
6.36785
-979.963
4.92875
-980.279
3.50094
-980.45
2.04861
-980.713
0.601272
-980.934
-0.865877
-981.203
-2.33039
-981.435
-3.81148
-981.754
-5.29828
-981.967
-6.78213
-982.375
-8.30075
-982.549
-9.7027
-982.873
-12.1708
-985.099
-19.4455
-1019.57
-886.012
19.844
-891.972
12.2555
-1011.98
10.0751
-979.886
8.83421
-977.969
7.49086
-978.547
6.15698
-978.628
4.78671
-978.908
3.42538
-979.088
2.03933
-979.326
0.653771
-979.548
-0.75116
-979.797
-2.1538
-980.032
-3.57815
-980.329
-4.99797
-980.546
-6.42874
-980.944
-7.88066
-981.096
-9.22834
-981.525
-11.4459
-982.881
-19.2832
-1011.73
-905.295
19.8672
-911.839
11.6135
-1003.72
9.74459
-978.016
8.60139
-976.826
7.34993
-977.295
6.11185
-977.39
4.82801
-977.624
3.54505
-977.805
2.23486
-978.015
0.914732
-978.227
-0.427684
-978.455
-1.77589
-978.683
-3.1537
-978.951
-4.52368
-979.176
-5.92821
-979.539
-7.33199
-979.692
-8.66634
-980.19
-10.6711
-980.876
-19.0359
-1003.36
-924.331
20.0763
-931.915
11.1015
-994.746
9.58932
-976.504
8.60431
-975.841
7.4827
-976.173
6.37104
-976.278
5.20243
-976.455
4.01727
-976.619
2.79955
-976.797
1.55832
-976.986
0.28984
-977.186
-0.996476
-977.397
-2.31761
-977.629
-3.63868
-977.854
-5.0196
-978.158
-6.37866
-978.333
-7.75828
-978.81
-9.59797
-979.036
-18.419
-994.541
-942.75
20.7986
-952.713
11.0691
-985.016
9.96424
-975.399
9.25114
-975.127
8.35675
-975.278
7.43146
-975.352
6.42322
-975.446
5.35182
-975.547
4.21271
-975.658
3.0086
-975.781
1.74136
-975.918
0.416835
-976.072
-0.96737
-976.245
-2.38489
-976.437
-3.87405
-976.668
-5.32775
-976.879
-6.87824
-977.26
-8.53076
-977.384
-17.5619
-985.51
-960.312
22.2872
12.271
11.8726
11.7456
11.4674
11.1155
10.6696
10.1224
9.46456
8.68354
7.76551
6.69388
5.44898
4.01259
2.34448
0.46533
-1.79423
-4.17795
-14.6877
-47649.5
-44686.4
-2963.06
-44686.5
-44686.5
-44686.5
-43876.9
-809.612
-43876.9
-43876.9
-43876.9
-44917.8
1040.9
-44917.8
-44917.8
-46538.1
1620.24
-46538.1
-46538.1
-46538.1
-48047.7
1509.57
-48047.7
-48047.7
-49154.3
1106.59
-48432.6
-47619.3
-46904.9
-46331.8
-45816
-45273
-44650.5
-43932
-43941.5
821.733
-43014.4
-41982.2
-40837.6
-39573.5
-38177.2
-36643.8
-35003.5
-33364.4
-31911.3
-29497.5
-1344.88
-29131.4
-29131.4
-28173.8
-957.599
-26217.8
-1955.98
-26217.8
-23548.8
-2669.11
-23548.8
-20087.2
-3461.56
-16133.7
-3953.58
-16133.7
-11620
-4513.76
-11620
-6861.26
-4758.79
-2747.39
-4113.97
-2747.51
611.719
-3359.4
2244.71
-1633.13
2244.6
1794.51
449.971
1794.38
1794.37
-4125.88
4125.77
-13765.6
9639.64
-19796.2
6030.57
-17741.2
-2055.02
-13076.4
-4664.93
-6872.99
-6203.46
-2257.48
-4615.63
1604.13
-3861.8
3824.72
-2220.78
6380.83
-2556.23
9546.31
-3165.57
11381.5
-1835.29
10084.5
1296.97
5971.66
4112.75
784.332
5187.25
-1972.82
2757.03
-1882.76
-90.2412
1436.19
-3319.08
3230.47
-10708.4
14834.1
-18332.7
17263.9
-20134.2
7832.07
-16692.3
-5497.01
-12305.3
-9052.04
-6365.49
-12143.3
-1892.62
-9088.61
1606.91
-7361.47
4069.88
-4683.91
6857.75
-5344.22
9872.32
-6180.23
11983
-3946.09
12549.4
730.441
10908.8
5753.34
7833.91
8262.08
5165.52
5425.35
4031.56
1043.61
3363.95
-2651.59
7044.32
-12075.9
26910
-17591.7
22779.7
-19092.4
9332.72
-16048.3
-8541.13
-11535.1
-13565.3
-5819.02
-17859.4
-1489.41
-13418.3
1724.28
-10575.2
4130.24
-7089.95
6821.84
-8035.88
9795.58
-9154.02
11617.6
-5768.12
11918.2
429.749
11205.2
6466.25
9708.75
9758.53
7861.72
7272.34
6294.95
2610.35
5312.45
-1669.15
10723.6
-11611.5
38521.4
-16467.8
27635.9
-18394.1
11258.9
-15340.7
-11594.5
-10755.6
-18150.4
-5156.29
-23458.8
-930.609
-17644
2015.99
-13521.9
4181.2
-9255.27
6623.24
-10478
9514.03
-12044.9
11331.9
-7586.09
11313.6
447.957
10326.2
7453.59
8982.33
11102.3
7297.09
8957.52
5554.3
4353.04
5834.91
-1949.87
13199.1
-10765.7
49287.2
-15637.7
32507.9
-17883.2
13504.4
-14505.7
-14972.1
-9870.54
-22785.6
-4371.87
-28957.5
-210.424
-21805.5
2492.16
-16224.5
4271.83
-11035
6304.85
-12511.1
9063.31
-14803.4
10954.4
-9477.25
10822.9
579.439
9418.48
8857.95
7714.7
12806.1
5935.88
10736.3
4039.36
6249.52
5519.9
-3430.46
14605
-9975.38
59262.5
-15061.8
37594.3
-17484.9
15927.3
-13642.8
-18814.3
-8878.97
-27549.5
-3493.22
-34343.3
631.771
-25930.6
3138.94
-18731.8
4492.17
-12388.3
6017.83
-14036.8
8565.84
-17351.5
10500.5
-11412
10314.8
765.069
8591.16
10581.5
6513.45
14883.7
4614.33
12635.4
2556.64
8307.11
4729.05
-5602.97
14575.2
-9364.5
68627
-14717.8
42947.6
-17336.2
18545.7
-12965.3
-23185.2
-7881.11
-32633.7
-2567.79
-39656.7
1548.47
-30046.8
3923.48
-21106.8
4924.21
-13389.1
5904.09
-15016.7
8113.74
-19561.1
10027.2
-13325.6
9750.31
1041.96
7783.56
12548.2
5460.47
17206.8
3483.16
14612.7
1136.15
10654.1
3645.99
-8112.84
13707.4
-8987.36
77614.3
-14644
48604.2
-17586.4
21488.1
-12662
-28109.6
-7009.99
-38285.8
-1655.04
-45011.6
2495.06
-34197
4799.32
-23411.1
5580.82
-14170.7
6000.65
-15436.6
7700.28
-21260.8
9528.84
-15154.2
9123.5
1447.18
6965.93
14705.7
4518.43
19654.3
2496.19
16634.8
-0.850692
13151
2731.06
-10844.8
12484.9
-8875.56
86489.9
-14873.9
54602.5
-18262
24876.2
-12764.6
-33607.1
-6334.23
-44716.2
-801.171
-50544.7
3428.63
-38426.8
5708.59
-25691.1
6390.19
-14852.3
6284.12
-15330.6
7360.72
-22337.5
9022.11
-16815.6
8440.05
2029.2
6149.81
16995.9
3687.22
22116.8
1555.48
18766.6
-870.817
15577.3
1968
-13683.6
10991.3
-9033.23
95523.1
-15407.4
60976.7
-19308.9
28777.6
-13201
-39715
-5838.15
-52079
-9.29324
-56373.6
4325.98
-42762.1
6595.61
-27960.8
7235.25
-15492
6746.21
-14841.7
7266.42
-22857.7
8644.77
-18194
7773.73
2900.12
5410.95
19358.7
3048.65
24479.1
549.171
21266
-1793.88
17920.3
1551.89
-17029.5
9874
-9438.24
104961
-16221.4
67759.8
-20677.2
33233.5
-13908.5
-46483.7
-5474.61
-60512.9
753.276
-62601.5
5192.13
-47201
7425.42
-30194.1
8007.24
-16073.8
7365.95
-14200.4
7507.17
-22999
8474.9
-19161.8
7232.14
4142.86
4822.94
21767.8
2444.72
26857.3
-661.179
24371.9
-2645.14
19904.3
1549.51
-21224.1
9467.52
-10057.7
115019
-17285.6
74987.7
-22344.7
38292.5
-14865.5
-53963
-5208.91
-70169.5
1538.61
-69349
6069.67
-51732.1
8204.5
-32329
8644.1
-16513.5
8048.66
-13605
7915.46
-22865.8
8359.56
-19606
6769.09
5733.23
4180.48
24356.4
1399.81
29637.9
-2064.47
27836.1
-3077.97
20917.7
1615.64
-25917.8
10125.5
-10865.4
125884
-18570.9
82693.2
-24294.4
44016.1
-16056.2
-62201.2
-5002.61
-81223.1
2406.51
-76758.2
7028.29
-56353.9
8992.63
-34293.3
9156.01
-16676.9
8660.98
-13110
8272.31
-22477.2
8038.14
-19371.8
5918.58
7852.78
2784.38
27490.6
-474.312
32896.6
-3482.81
30844.6
-2913.63
20348.5
1856.11
-30687.5
10636.7
-11849.3
137734
-20048.2
90892.1
-26484.2
50452
-17429.3
-71256
-4810.01
-93842.5
3413.41
-84981.6
8153.45
-61093.9
9892.1
-36032
9634.11
-16419
9136.53
-12612.5
8536.66
-21877.4
7267.84
-18103.1
3864.96
11255.6
12.3098
31343.2
-2976.21
35885.1
-4675.67
32544
-2275.97
17948.8
2742.25
-35705.7
14200.7
-13007
150741
-21678.6
99563.6
-28819.6
57593
-18869.4
-81206.2
-4562.24
-108150
4605.23
-94149.1
9516.36
-66005.1
11013.2
-37528.9
10224.2
-15630
9538.93
-11927.2
8740.11
-21078.6
5561.04
-14924
193.221
16623.4
-3496.14
35032.6
-5335.61
37724.6
-5501.32
32709.7
-1353.96
13801.4
4128.74
-41188.4
19436
-14338.4
165079
-23402.3
108628
-31134.6
65325.3
-20179.1
-92161.8
-4153.97
-124175
6022.06
-104325
11155
-71138.1
12433.4
-38807.3
11068.8
-14265.6
10018.2
-10876.7
8811.85
-19872.3
3086.29
-9198.57
-3780.24
23489.9
-6211.2
37463.5
-6949.98
38463.3
-6001.35
31761
-363.878
8163.87
5296.26
-46848.6
26241.8
-15827
180906
-25123.3
117924
-33184.3
73386.2
-21082.2
-104264
-3432.58
-141824
7716.13
-115474
13078.5
-76500.4
14172
-39900.8
12252.8
-12346.4
10710
-9333.9
8661.82
-17824.1
955.68
-1492.47
-6306.74
30752.3
-7492.96
38649.7
-7759.92
38730.3
-6438.72
30439.8
285.61
1439.59
6431.44
-52994.4
34293.5
-17506.5
198413
-26715.4
127133
-34682.1
81352.9
-21266
-117680
-2208.94
-160881
9768.97
-127452
15295.5
-82027
16203.9
-40809.3
13788.1
-9930.63
11682
-7227.91
7979.13
-14121.4
-1014.4
7500.92
-7136.13
36874
-7712.9
39226.4
-8229.51
39246.8
-7473.75
29683.9
722.771
-6757.04
7698.81
-59970.5
43033.2
-19133
217546
-28025.4
136025
-35352.4
88679.9
-20466.4
-132566
-300.427
-181047
12285
-140037
17841.9
-87583.9
18500.8
-41468.1
15636.1
-7065.9
12959.2
-4550.95
7458.14
-8620.36
-2209.46
17168.6
-6914.09
41578.6
-7536.83
39849.2
-8761.32
40471.3
-8234.51
29157.2
1703.75
-16695.2
9221.63
-67488.3
51445.2
-21800.3
-28904.1
-35036.8
-18557
2410.25
15349.7
20774.6
21065.8
17748.1
14494.4
7521.21
-2502.04
-6285.4
-7454.58
-9612.51
-9001.45
2541.05
10916.1
-661.949
1636.95
-1068.26
1381.31
-1483.66
1390.4
-1813.77
1305.12
-2104.33
1265.55
-2343.83
1214.5
-2540.45
1171.62
-2693.96
1128.51
-2806.73
1087.77
-2879.65
1047.91
-2913.02
1008.38
-2905.37
967.346
-2852.92
922.548
-2748.42
870.503
-2580.67
807.249
-2337.16
731.484
-2002.3
640.146
-1540.25
512.946
-891.039
325.79
83.9614
-199.771
1836.72
-455.325
1636.86
-724.167
1659.24
-956.169
1537.12
-1180.94
1490.32
-1377.13
1410.69
-1553.68
1348.18
-1706.78
1281.61
-1838.85
1219.84
-1948.41
1157.46
-2030.89
1090.87
-2073.23
1009.68
-2050.87
900.19
-1933.99
753.622
-1709.41
582.672
-1393.51
415.586
-1009.78
256.417
-582.712
85.8749
-187.738
-69.1846
-103.776
-183.866
2020.58
-390.408
1843.4
-562.033
1830.87
-699.26
1674.34
-827.026
1618.09
-927.767
1511.43
-1017.58
1437.99
-1090.94
1354.97
-1153.81
1282.71
-1204.61
1208.26
-1241.66
1127.91
-1254.68
1022.7
-1222.64
868.156
-1115.18
646.161
-916.597
384.086
-676.768
175.757
-487.079
66.727
-324.767
-76.438
-140.143
-253.81
-243.919
-34.8301
2055.41
-112.666
1921.24
-162.436
1880.63
-197.627
1709.54
-231.659
1652.12
-249.301
1529.07
-262.901
1451.59
-264.739
1356.81
-259.063
1277.03
-244.375
1193.58
-224.025
1107.56
-204.152
1002.82
-197.338
861.341
-215.08
663.903
-252.264
421.269
-285.055
208.546
-302.192
83.8625
-288.077
-90.5538
-236.228
-305.659
-480.147
85.3944
1970.02
50.1732
1956.46
68.8609
1861.95
97.5951
1680.8
131.981
1617.73
174.818
1486.24
224.289
1402.12
282.615
1298.48
350.294
1209.35
426.778
1117.09
509.118
1025.22
586.143
925.796
634.904
812.58
620.94
677.867
519.902
522.306
371.315
357.133
261.838
193.338
180.755
-9.47208
58.876
-183.781
-421.271
139.522
1830.5
130.785
1965.2
172.69
1820.04
223.593
1629.9
284.007
1557.32
344.131
1426.11
411.079
1335.17
481.652
1227.91
559.381
1131.62
642.128
1034.34
728.041
939.311
809.449
844.388
873.747
748.282
902.542
649.071
878.99
545.858
799.903
436.219
672.942
320.299
473.784
189.685
242.989
47.0136
-178.282
118.424
1712.07
144.003
1939.62
192.041
1772
247.817
1574.12
309.867
1495.27
371.737
1364.24
437.497
1269.41
505.517
1159.89
575.114
1062.02
643.409
966.048
707.846
874.874
765.45
786.783
812.929
700.802
844.927
617.073
853.121
537.664
821.686
467.654
730.19
411.794
554.759
365.116
300.19
301.582
121.908
50.778
1661.29
97.6492
1892.75
146.854
1722.8
190.173
1530.8
234.406
1451.04
278.151
1320.5
320.025
1227.53
364.182
1115.73
413.306
1012.9
477.675
901.679
563.665
788.885
674.479
675.969
803.017
572.264
928.659
491.431
1013.7
452.62
1014.29
467.064
902.078
524.009
667.565
599.629
347.108
622.037
469.017
-63.9757
1725.27
-45.9231
1874.69
-47.5965
1724.47
-81.2225
1564.43
-118.915
1488.73
-173.369
1374.95
-238.389
1292.55
-306.013
1183.35
-358.661
1065.55
-377.919
920.936
-355.155
766.119
-289.449
610.262
-186.536
469.35
-55.6847
360.578
88.3501
308.583
223.752
331.66
315.91
431.85
313.99
601.549
187.033
748.993
656.05
-140.654
1865.92
-243.421
1977.46
-342.04
1823.09
-473.415
1695.8
-614.579
1629.89
-775.562
1535.93
-949.263
1466.25
-1128.73
1362.82
-1300.9
1237.72
-1456.68
1076.71
-1594.83
904.271
-1713.95
729.383
-1804.93
560.327
-1841.5
397.151
-1783.49
250.573
-1598.46
146.629
-1278.89
112.279
-825.077
147.74
-328.047
251.964
328.003
59.3167
1806.61
-91.8069
2128.58
-215.157
1946.44
-312.965
1793.61
-403.121
1720.05
-493.103
1625.91
-581.898
1555.05
-673.07
1454
-770.834
1335.48
-878.539
1184.41
-996.048
1021.78
-1119.68
853.018
-1243.44
684.082
-1356.61
510.318
-1440.79
334.755
-1466.6
172.438
-1404.61
50.2935
-1135.49
-121.381
-626.69
-256.838
-298.687
356.141
1450.47
338.998
2145.73
244.272
2041.16
207.606
1830.28
216.328
1711.33
239.958
1602.28
277.138
1517.87
312.669
1418.47
337.05
1311.1
336.823
1184.64
310.639
1047.96
259.986
903.672
188.181
755.887
95.205
603.294
-14.5344
444.495
-114.288
272.193
-114.576
50.5837
-136.23
-99.7255
-158.605
-234.462
-457.293
429.319
1021.15
551.888
2023.16
521.061
2071.99
517.071
1834.27
567.447
1660.95
638.734
1531
724.975
1431.63
812.695
1330.75
895.766
1228.03
962.448
1117.96
1007.79
1002.62
1028.17
883.296
1021.77
762.284
984.48
640.587
909.778
519.197
786.857
395.114
570.004
267.436
344.842
125.436
159.709
-49.3294
-297.583
259.189
761.958
349.644
1932.7
370.476
2051.16
397.001
1807.74
450.248
1607.7
515.52
1465.73
587.161
1359.99
658.054
1259.85
724.583
1161.5
780.506
1062.03
820.893
962.231
841.215
862.974
838.234
765.265
809.538
669.283
753.716
575.019
669.022
479.809
552.18
384.278
398.998
278.619
199.777
149.892
-97.8065
31.4784
730.48
48.8935
1915.29
103.846
1996.21
160.183
1751.4
221.003
1546.88
285.236
1401.49
350.227
1295
411.857
1198.22
467.533
1105.82
514.332
1015.24
549.805
926.758
572.492
840.288
582.576
755.18
581.431
670.428
569.377
587.074
539.48
509.705
476.444
447.314
361.082
393.981
181.745
329.228
83.9389
-106.04
836.521
-95.8529
1905.1
3.74962
1896.61
87
1668.15
156.139
1477.75
222.915
1334.72
289.644
1228.27
353.856
1134.01
414.457
1045.22
471.876
957.816
528.095
870.541
586.122
782.261
648.363
692.94
711.669
607.123
760.295
538.448
763.613
506.387
691.409
519.518
526.527
558.864
284.244
571.511
368.183
-103.545
940.064
-104.362
1905.92
-18.976
1811.22
80.8635
1568.31
169.376
1389.23
240.23
1263.86
304.96
1163.54
371.827
1067.14
446.574
970.475
533.769
870.62
635.75
768.559
750.655
667.355
868.96
574.634
968.603
507.48
1013.56
493.489
969.029
550.918
821.043
667.503
578.024
801.883
291.682
857.851
659.866
26.1848
913.879
90.0189
1842.08
63.4173
1837.82
22.8446
1608.89
7.58492
1404.49
9.90118
1261.54
25.9778
1147.46
55.0867
1038.03
97.4713
928.089
155.83
812.26
231.404
692.985
322.661
576.098
423.623
473.671
519.83
411.272
585.241
428.078
587.516
548.642
505.176
749.843
346.074
960.985
155.535
1048.39
815.4
339.297
574.581
710.316
1471.06
776.928
1771.21
608.81
1777
364.996
1648.3
141.781
1484.76
-39.0354
1328.27
-187.428
1186.43
-315.832
1056.49
-431.309
927.735
-536.505
798.18
-626.065
665.656
-692.596
540.202
-711.251
429.926
-653.79
370.617
-528.153
423.005
-366.56
588.25
-212.781
807.207
-88.4831
924.092
726.917
208.428
610.609
928.698
1066.59
1074.61
1025.97
957.964
880.27
792.146
687.602
558.694
412.136
233.817
41.2343
-131.172
-223.913
-208.802
-115.96
-5.17424
)
;

boundaryField
{
    outletWallLeft
    {
        type            calculated;
        value           nonuniform List<scalar> 
40
(
-3867.44
-4411.59
-4920.29
-5414.02
-5913.92
-6408.88
-6897.14
-7371.87
-7847.99
-8282.84
-8779.85
-9145.35
-9847.29
-9748.29
-11513.3
-8832.3
-16666.1
680.688
-38073.8
40951.9
421174
-201379
-184614
-15114
-29541
44302.1
72559.9
106646
112278
107977
85121.6
19262.8
-51425.4
-33952.2
-29990.8
-69917.6
-130704
-395072
-680117
1.0238e+06
)
;
    }
    fineWallsLeft
    {
        type            calculated;
        value           uniform 0;
    }
    fineFrontAndBackLeft
    {
        type            calculated;
        value           nonuniform List<scalar> 
880
(
-1.19928e-09
7.41155e-11
-6.92895e-11
2.35604e-12
-7.2448e-12
6.47285e-12
1.19859e-12
3.29884e-12
-4.58796e-13
-6.46464e-13
-8.7718e-13
-2.82831e-13
-2.21317e-12
-2.57517e-12
-8.48207e-13
-7.9426e-13
2.12021e-13
3.9479e-12
5.54724e-12
2.51716e-12
1.17815e-12
4.20461e-12
1.93188e-12
1.94073e-12
1.72503e-12
1.47946e-12
1.44395e-12
1.60815e-12
1.76033e-12
2.0874e-12
2.38153e-12
1.63436e-11
3.53354e-12
3.27916e-12
1.45032e-12
-1.33174e-12
-2.646e-12
-1.26723e-12
2.20768e-12
3.47914e-12
-2.69074e-12
1.43941e-12
1.44012e-12
9.62064e-12
1.66025e-12
1.88002e-12
2.06378e-12
1.38499e-11
2.3358e-12
2.38512e-12
1.33808e-11
2.08529e-12
1.90623e-12
1.66627e-12
6.21125e-12
7.6741e-13
1.03624e-12
1.15046e-12
8.01121e-12
1.44948e-12
1.79098e-11
1.7636e-10
5.0816e-10
8.75479e-10
7.52119e-10
6.28877e-10
5.11806e-10
4.10335e-10
3.23234e-10
2.60712e-10
1.63497e-10
7.40116e-12
-9.6756e-12
-1.05823e-11
-7.95274e-12
4.88651e-12
2.25888e-11
2.76888e-11
1.65097e-12
2.42198e-11
2.15879e-10
5.92561e-10
9.76463e-10
8.51868e-10
7.15483e-10
5.94917e-10
4.92922e-10
3.93896e-10
3.24653e-10
1.67808e-10
1.48053e-12
-1.08135e-11
-1.07666e-11
-4.68378e-12
1.13998e-11
2.63273e-11
3.38829e-11
3.77857e-12
3.09046e-11
2.57226e-10
6.75405e-10
1.06504e-09
9.40456e-10
7.87901e-10
6.65402e-10
5.71279e-10
4.61158e-10
3.75586e-10
1.63646e-10
-3.50318e-12
-1.13647e-11
-1.01915e-11
-5.3023e-13
1.74274e-11
2.75154e-11
3.88737e-11
6.12606e-12
3.77376e-11
2.99437e-10
7.56056e-10
1.14652e-09
1.01843e-09
8.38919e-10
7.1089e-10
6.33316e-10
5.25138e-10
4.1053e-10
1.50431e-10
-7.25228e-12
-1.15743e-11
-9.1706e-12
4.02493e-12
2.21935e-11
2.61362e-11
4.3121e-11
8.71977e-12
4.45524e-11
3.41836e-10
8.35194e-10
1.22671e-09
1.08762e-09
8.61647e-10
7.15489e-10
6.61151e-10
5.75998e-10
4.30356e-10
1.30379e-10
-1.00078e-11
-1.16573e-11
-7.81117e-12
8.65473e-12
2.49501e-11
2.35478e-11
4.76918e-11
1.17999e-11
5.12219e-11
3.84323e-10
9.15366e-10
1.31282e-09
1.15027e-09
8.51994e-10
6.6203e-10
6.3102e-10
6.01715e-10
4.34471e-10
1.07434e-10
-1.18984e-11
-1.17305e-11
-6.10493e-12
1.279e-11
2.50747e-11
2.21108e-11
5.34491e-11
1.54532e-11
5.76294e-11
4.26424e-10
9.9912e-10
1.40824e-09
1.21057e-09
8.14072e-10
5.43468e-10
5.21502e-10
5.91346e-10
4.21835e-10
8.44456e-11
-1.30433e-11
-1.17886e-11
-4.0583e-12
1.57005e-11
2.26776e-11
2.39352e-11
6.02878e-11
1.8403e-11
6.37437e-11
4.68763e-10
1.09485e-09
1.51554e-09
1.27506e-09
7.65276e-10
3.83804e-10
3.39261e-10
5.41722e-10
3.92461e-10
6.29113e-11
-1.35848e-11
-1.17678e-11
-1.7931e-12
1.70425e-11
1.90935e-11
2.9245e-11