/*--------------------------------*- C++ -*----------------------------------*\
| =========                 |                                                 |
| \\      /  F ield         | OpenFOAM: The Open Source CFD Toolbox           |
|  \\    /   O peration     | Version:  4.1                                   |
|   \\  /    A nd           | Web:      www.OpenFOAM.org                      |
|    \\/     M anipulation  |                                                 |
\*---------------------------------------------------------------------------*/
FoamFile
{
    version     2.0;
    format      ascii;
    class       volVectorField;
    location    "28";
    object      U;
}
// * * * * * * * * * * * * * * * * * * * * * * * * * * * * * * * * * * * * * //

dimensions      [0 1 -1 0 0 0 0];

internalField   nonuniform List<vector> 
1680
(
(-3.3004e-13 -727.992 -821.698)
(5.35614e-14 102.642 87.5931)
(-1.90683e-14 -253.49 -68.3465)
(1.70265e-15 -15.4006 -5.75597)
(-2.98398e-15 -106.71 -16.563)
(1.78131e-15 -40.2986 -3.84041)
(8.66193e-16 -51.2446 2.80063)
(9.07833e-16 -52.6092 7.1497)
(-1.2626e-16 -49.7528 13.5684)
(-4.67182e-16 -41.8999 15.2699)
(-2.41398e-16 -56.2032 23.2461)
(-2.04395e-16 -39.9559 18.6963)
(-6.09059e-16 -53.2903 26.9098)
(-7.08682e-16 -43.6204 19.0906)
(-6.12977e-16 -39.4779 14.7186)
(-2.18579e-16 -51.6989 17.2697)
(1.53222e-16 -37.112 11.6531)
(1.08645e-15 -46.6772 16.7402)
(1.52659e-15 -34.578 13.4168)
(1.81909e-15 -44.2704 13.3689)
(4.83344e-15 -37.2958 20.0777)
(1.68606e-15 -51.8417 11.0268)
(7.92565e-15 -33.1469 19.2274)
(7.96195e-15 -34.2097 17.4866)
(7.07703e-15 -33.4849 16.888)
(6.06958e-15 -33.6027 16.2634)
(5.9239e-15 -33.2893 16.0652)
(6.59754e-15 -33.0878 16.1629)
(7.22186e-15 -33.0745 16.493)
(8.56368e-15 -33.2515 16.8754)
(9.77039e-15 -31.688 17.2234)
(6.55381e-15 -41.9309 10.7546)
(1.44966e-14 -27.5957 15.3298)
(1.3453e-14 -28.9936 10.5193)
(5.95003e-15 -28.6782 2.50156)
(-5.46356e-15 -29.3414 -5.33236)
(-1.08554e-14 -29.1474 -7.77828)
(-5.19888e-15 -29.6625 -6.2143)
(9.05714e-15 -29.6415 -2.54271)
(1.42734e-14 -28.6694 -1.06932)
(-9.36722e-16 -38.0833 -6.76745)
(2.31231e-15 -25.8276 -3.9202)
(2.31345e-15 -25.7033 -3.86614)
(3.34922e-15 -30.3159 -6.07931)
(2.66707e-15 -23.2884 -3.9304)
(3.02011e-15 -24.8968 -3.70227)
(3.31531e-15 -22.1998 -3.35191)
(4.82154e-15 -28.5765 -5.16)
(3.75229e-15 -20.9935 -2.98836)
(3.83152e-15 -20.5988 -2.73183)
(4.65826e-15 -24.5847 -3.98697)
(3.34987e-15 -18.5182 -1.84474)
(3.06222e-15 -19.9969 -1.48829)
(2.67674e-15 -17.9359 -1.09602)
(3.20161e-15 -22.9027 -1.80489)
(1.23279e-15 -16.5262 -0.252823)
(1.66464e-15 -18.16 -0.0697226)
(1.84812e-15 -16.2776 0.213488)
(2.78893e-15 -20.9394 -0.0445156)
(2.32848e-15 -15.4663 1.13621)
(3.97995e-15 -83.6671 19.0577)
(3.9191e-14 -48.9326 45.072)
(1.12924e-13 -32.4099 59.6258)
(1.94551e-13 52.5969 47.8962)
(1.67138e-13 70.8977 4.15983)
(1.3975e-13 53.1651 -24.0624)
(1.13735e-13 31.8892 -38.6973)
(9.11855e-14 13.941 -41.6875)
(7.18297e-14 0.675203 -37.6023)
(5.79359e-14 -0.171015 -29.9963)
(3.63327e-14 -0.733387 -24.1038)
(1.6447e-15 -10.7502 -0.338933)
(-2.15013e-15 -15.683 8.55162)
(-2.35162e-15 -13.9248 10.1306)
(-1.76728e-15 -14.6482 15.3777)
(1.08589e-15 -9.39387 20.1543)
(5.01973e-15 11.4935 12.6366)
(6.15307e-15 26.7704 -23.7319)
(3.66881e-16 -21.1115 -16.6603)
(5.38219e-15 -92.2552 8.4663)
(4.7973e-14 -51.7806 48.4225)
(1.3168e-13 -33.5249 57.2573)
(2.16992e-13 58.8813 41.5772)
(1.89304e-13 78.1313 -2.66091)
(1.58996e-13 57.5202 -31.1298)
(1.32204e-13 33.5519 -45.2486)
(1.09538e-13 13.7687 -47.5584)
(8.75324e-14 -0.694152 -41.7281)
(7.21451e-14 -1.6914 -33.6077)
(3.72908e-14 -3.84498 -23.3115)
(3.29006e-16 -13.9755 0.3445)
(-2.40299e-15 -16.6708 7.07126)
(-2.39258e-15 -14.7414 9.63057)
(-1.04084e-15 -15.8024 16.8452)
(2.53328e-15 -9.04846 22.1058)
(5.85052e-15 16.0408 12.9089)
(7.52953e-15 30.0611 -25.1618)
(8.39683e-16 -23.9263 -19.2437)
(6.86768e-15 -100.119 -2.23917)
(5.71614e-14 -55.2549 51.8873)
(1.5009e-13 -33.756 53.2742)
(2.36677e-13 65.6469 33.6159)
(2.0899e-13 85.403 -10.4602)
(1.75089e-13 61.8072 -38.603)
(1.47867e-13 35.0924 -51.9445)
(1.26951e-13 13.3221 -53.8149)
(1.0248e-13 -2.38633 -45.7766)
(8.34636e-14 -3.64076 -36.3092)
(3.63658e-14 -7.36551 -21.8323)
(-7.78485e-16 -16.8922 0.438359)
(-2.5255e-15 -17.5917 5.73069)
(-2.26478e-15 -15.8365 9.31957)
(-1.17829e-16 -17.1421 18.0373)
(3.87276e-15 -8.62781 23.3993)
(6.11452e-15 20.8487 12.9622)
(8.63861e-15 33.6668 -25.4445)
(1.36135e-15 -26.7234 -21.7099)
(8.38613e-15 -107.405 -12.667)
(6.65415e-14 -59.0791 55.2684)
(1.68012e-13 -32.9601 47.8332)
(2.54783e-13 72.8272 24.1451)
(2.26317e-13 92.5665 -18.8707)
(1.86426e-13 65.9241 -45.7361)
(1.57976e-13 36.5216 -57.8398)
(1.40737e-13 12.6345 -59.7506)
(1.16697e-13 -4.49947 -49.9302)
(9.12288e-14 -6.20565 -38.0058)
(3.34292e-14 -11.1554 -19.8598)
(-1.61162e-15 -19.4969 0.135802)
(-2.57206e-15 -18.5123 4.58829)
(-2.03791e-15 -17.1516 9.12697)
(8.94429e-16 -18.5779 18.7989)
(4.93189e-15 -8.13806 23.9908)
(5.80804e-15 25.729 12.6169)
(9.58245e-15 37.529 -24.3887)
(1.93773e-15 -29.2518 -23.7187)
(9.90054e-15 -114.309 -22.8809)
(7.59636e-14 -63.0797 58.618)
(1.85599e-13 -31.0269 41.1828)
(2.72602e-13 80.2989 13.3419)
(2.41693e-13 99.407 -27.5655)
(1.91477e-13 69.6847 -51.5892)
(1.58998e-13 37.8385 -61.4046)
(1.46922e-13 11.844 -63.9655)
(1.27999e-13 -7.03025 -53.5499)
(9.56347e-14 -9.38138 -38.6809)
(2.8973e-14 -15.0362 -17.5851)
(-2.22396e-15 -21.7694 -0.361875)
(-2.59052e-15 -19.4672 3.67449)
(-1.73582e-15 -18.622 9.03321)
(1.92327e-15 -20.0229 19.1418)
(5.54446e-15 -7.591 23.8132)
(5.23285e-15 30.4741 11.93)
(1.05982e-14 41.5867 -21.933)
(2.62221e-15 -31.8998 -25.4596)
(1.13827e-14 -120.821 -32.9994)
(8.54052e-14 -67.1526 62.084)
(2.03415e-13 -27.9036 33.668)
(2.91738e-13 88.1108 1.54017)
(2.55616e-13 105.637 -36.3437)
(1.89332e-13 72.7388 -55.2622)
(1.47118e-13 38.9582 -60.6595)
(1.40227e-13 11.1769 -64.2452)
(1.33714e-13 -9.82946 -55.6065)
(9.65491e-14 -13.0839 -38.1908)
(2.38741e-14 -18.8867 -15.2839)
(-2.64409e-15 -23.7218 -0.933803)
(-2.60677e-15 -20.4782 2.99695)
(-1.35665e-15 -20.1884 9.02179)
(2.84223e-15 -21.3811 19.0577)
(5.57215e-15 -7.01427 22.7483)
(4.91352e-15 34.8654 11.323)
(1.18776e-14 45.6969 -18.136)
(3.43405e-15 -33.5113 -26.3429)
(1.28065e-14 -126.855 -43.146)
(9.47609e-14 -71.2139 65.9294)
(2.22027e-13 -23.4611 25.921)
(3.12943e-13 96.1086 -11.1521)
(2.69016e-13 110.91 -45.004)
(1.80905e-13 74.5468 -56.3761)
(1.20771e-13 39.602 -54.159)
(1.15889e-13 10.9315 -58.1649)
(1.3141e-13 -12.5084 -54.9287)
(9.3741e-14 -17.0895 -36.3835)
(1.87657e-14 -22.5703 -13.1484)
(-2.89851e-15 -25.3844 -1.50107)
(-2.61968e-15 -21.546 2.54499)
(-9.01844e-16 -21.7802 9.05093)
(3.48901e-15 -22.5415 18.4611)
(5.03946e-15 -6.49884 20.7771)
(5.31893e-15 38.6655 11.4032)
(1.33973e-14 49.8508 -13.0696)
(4.08956e-15 -36.3918 -27.7179)
(1.41653e-14 -132.633 -53.4537)
(1.0417e-13 -75.1303 70.4889)
(2.433e-13 -18.178 19.7969)
(3.36787e-13 104.097 -24.8093)
(2.83347e-13 114.841 -53.6432)
(1.70061e-13 74.5102 -55.6751)
(8.52898e-14 39.2476 -43.0185)
(7.53914e-14 11.3056 -45.3668)
(1.20383e-13 -14.5179 -50.7919)
(8.72135e-14 -21.0822 -33.2058)
(1.39803e-14 -25.9714 -11.2658)
(-3.01884e-15 -26.8226 -2.01269)
(-2.61507e-15 -22.6815 2.27124)
(-3.98467e-16 -23.3312 9.03377)
(3.78722e-15 -23.4153 17.2667)
(4.24301e-15 -6.20234 18.1083)
(6.49888e-15 41.7209 12.4592)
(1.49328e-14 54.3808 -7.03997)
(4.79771e-15 -39.8201 -32.0067)
(1.53112e-14 -137.781 -64.0757)
(1.16838e-13 -79.3534 76.214)
(2.85285e-13 -11.2181 17.03)
(3.63937e-13 113.288 -39.6478)
(3.00301e-13 117.223 -62.7363)
(1.63e-13 72.3142 -55.0718)
(5.40863e-14 37.4564 -31.8995)
(3.35438e-14 12.2554 -30.6782)
(1.03998e-13 -15.4138 -44.018)
(7.76035e-14 -24.6423 -28.9077)
(9.70448e-15 -28.9035 -9.68463)
(-3.03395e-15 -28.0354 -2.44205)
(-2.58591e-15 -23.8294 2.09638)
(1.04046e-16 -24.7464 8.8568)
(3.81285e-15 -23.9352 15.4586)
(3.59114e-15 -6.26773 15.0712)
(7.86525e-15 43.8855 13.9386)
(1.63235e-14 59.523 -0.263849)
(5.57231e-15 -42.3364 -35.4688)
(1.62327e-14 -143.404 -75.0146)
(1.31853e-13 -82.9074 83.8597)
(3.56039e-13 -5.45807 15.1306)
(3.94989e-13 125.704 -56.0044)
(3.21314e-13 118.216 -73.08)
(1.64611e-13 68.193 -56.5079)
(3.88047e-14 34.408 -25.5346)
(1.00443e-14 13.5137 -21.3854)
(8.80912e-14 -15.3763 -36.7121)
(6.61188e-14 -27.6665 -24.0335)
(6.05345e-15 -31.3992 -8.44419)
(-2.96946e-15 -29.164 -2.79607)
(-2.52721e-15 -25.0431 1.95676)
(5.78419e-16 -26.0111 8.48545)
(3.71477e-15 -24.14 13.1049)
(3.23346e-15 -6.72862 11.8395)
(8.52542e-15 45.0563 14.126)
(1.753e-14 65.028 6.86055)
(6.26061e-15 -44.2086 -36.7285)
(1.73586e-14 -147.303 -86.4329)
(1.45653e-13 -86.8279 91.6568)
(3.44985e-13 1.8424 10.4878)
(4.31205e-13 137.75 -74.3355)
(3.46311e-13 117.829 -85.3294)
(1.7407e-13 62.616 -60.2202)
(3.70195e-14 30.6004 -23.5478)
(6.01121e-15 14.4688 -18.3602)
(7.57122e-14 -15.0692 -30.3686)
(5.4124e-14 -29.9528 -19.2283)
(3.09507e-15 -33.1737 -7.55912)
(-2.8491e-15 -30.0054 -3.07845)
(-2.42366e-15 -26.0999 1.87452)
(1.0394e-15 -26.9653 8.03067)
(3.60505e-15 -23.9553 10.3438)
(2.97768e-15 -7.47411 8.2253)
(7.83412e-15 45.2017 10.9803)
(1.86063e-14 70.5761 13.945)
(6.75253e-15 -46.0204 -38.5203)
(1.82654e-14 -154.724 -98.8051)
(1.56056e-13 -92.6387 97.7939)
(3.74655e-13 17.4286 -8.32844)
(4.7616e-13 148.354 -96.3674)
(3.71168e-13 115.884 -98.4179)
(1.84823e-13 55.6447 -64.1764)
(3.71975e-14 26.2249 -21.8195)
(9.12645e-15 14.8671 -17.3919)
(6.66935e-14 -15.3134 -25.2101)
(4.28341e-14 -32.0757 -14.9468)
(8.42173e-16 -34.8691 -7.0051)
(-2.6957e-15 -31.1697 -3.35167)
(-2.2859e-15 -27.4617 1.78276)
(1.47609e-15 -27.8252 7.49546)
(3.53428e-15 -23.5411 7.24815)
(2.61028e-15 -8.04209 3.81986)
(5.82067e-15 44.275 3.77856)
(1.96859e-14 75.9071 20.6978)
(6.9294e-15 -46.3841 -40.5506)
(1.88452e-14 -152.726 -113.616)
(1.62887e-13 -99.9345 104.935)
(4.31346e-13 36.8211 -36.4028)
(5.29455e-13 157.385 -121.636)
(3.91734e-13 111.889 -110.246)
(1.88744e-13 47.0816 -65.2574)
(3.26807e-14 21.4293 -17.9341)
(1.40117e-14 15.0805 -16.0581)
(6.00197e-14 -15.6383 -21.2045)
(3.31235e-14 -33.079 -11.6217)
(-7.53322e-16 -35.2021 -6.72534)
(-2.53134e-15 -31.3482 -3.56797)
(-2.17457e-15 -28.0097 1.65788)
(1.79694e-15 -27.9566 6.73401)
(3.54963e-15 -22.3293 4.11761)
(2.23965e-15 -8.45111 -0.740113)
(3.31544e-15 42.2649 -5.69083)
(2.08752e-14 80.374 27.0997)
(6.51331e-15 -48.0164 -39.9805)
(1.80175e-14 -170.7 -128.837)
(1.63682e-13 -101.904 109.801)
(5.0594e-13 59.6569 -72.2063)
(5.88913e-13 163.959 -148.78)
(3.99848e-13 104.973 -117.294)
(1.77202e-13 36.9824 -59.831)
(2.34968e-14 16.5029 -11.9386)
(2.07765e-14 15.3787 -12.8136)
(5.51113e-14 -16.6666 -17.7603)
(2.538e-14 -35.2933 -9.17423)
(-1.79622e-15 -37.3887 -6.65194)
(-2.3913e-15 -33.6825 -3.88763)
(-2.16685e-15 -30.3301 1.17503)
(1.84693e-15 -28.8362 5.26643)
(3.61258e-15 -21.5598 1.04978)
(2.02366e-15 -8.14351 -5.10116)
(1.3481e-15 38.9987 -14.3797)
(2.22267e-14 83.4783 33.4621)
(5.60104e-15 -47.2726 -40.5573)
(2.01285e-14 -139.124 -150.268)
(1.58278e-13 -110.814 124.75)
(6.00564e-13 85.7172 -116.524)
(6.48336e-13 166.844 -174.629)
(3.83246e-13 94.2093 -114.437)
(1.40843e-13 25.9932 -43.8365)
(1.22362e-14 11.9872 -4.73938)
(2.68782e-14 16.1947 -5.70864)
(5.13858e-14 -16.1129 -15.2505)
(1.97836e-14 -33.7524 -8.25498)
(-2.39548e-15 -34.4253 -6.85909)
(-2.29192e-15 -30.8177 -3.93792)
(-2.24336e-15 -28.0914 0.993426)
(1.61107e-15 -26.9915 3.57309)
(3.69796e-15 -18.6105 -1.36329)
(2.39306e-15 -5.672 -6.69684)
(1.1021e-16 34.7644 -21.6066)
(2.37415e-14 86.2659 40.3668)
(4.52345e-15 -50.0701 -43.0968)
(5.43869e-15 -221.911 -157.702)
(1.40114e-13 -94.7034 130.337)
(7.18279e-13 117.364 -169.48)
(6.93987e-13 165.118 -192.652)
(3.27124e-13 79.078 -95.9501)
(7.62903e-14 15.1107 -15.7199)
(5.44412e-15 9.46795 0.490245)
(2.6795e-14 17.7915 4.21749)
(4.80282e-14 -17.4098 -11.776)
(1.58803e-14 -39.5777 -7.54975)
(-2.66878e-15 -42.6809 -7.3808)
(-2.27822e-15 -39.9835 -4.63052)
(-2.39212e-15 -36.1947 -0.115633)
(1.17778e-15 -31.0644 1.09748)
(3.65862e-15 -20.7511 -4.22186)
(3.6758e-15 -6.71879 -6.23262)
(-9.10692e-16 30.0458 -28.9916)
(2.5358e-14 90.3831 47.6651)
(3.489e-15 -38.6715 -43.1467)
(6.76208e-14 -34.731 -214.092)
(1.33667e-13 -128.909 138.093)
(8.68966e-13 154.119 -236.971)
(6.99489e-13 154.682 -192.534)
(2.23073e-13 58.6093 -59.5773)
(8.32724e-15 5.62908 13.589)
(5.3566e-15 9.34043 0.840197)
(1.87261e-14 17.9613 10.7841)
(4.42996e-14 -12.0997 -11.4869)
(1.34515e-14 -28.0614 -9.58998)
(-2.73926e-15 -25.2245 -8.26556)
(-2.22813e-15 -21.14 -3.75818)
(-2.2552e-15 -19.0259 1.76243)
(1.16553e-15 -19.9133 1.90233)
(3.81692e-15 -11.1262 -4.54168)
(5.59695e-15 1.07103 3.9869)
(-2.39762e-15 26.0768 -39.1095)
(2.69418e-14 90.2072 55.3045)
(2.95541e-15 -56.6004 -50.8465)
(-2.44005e-13 -473.279 -83.1969)
(4.03256e-16 -24.4266 178.758)
(1.04111e-12 176.913 -311.939)
(6.2037e-13 123.914 -156.494)
(8.90547e-14 34.1656 -12.187)
(-5.21853e-15 1.10981 18.4196)
(1.3811e-15 8.58607 -1.65422)
(8.9747e-15 16.8982 10.8421)
(4.13635e-14 -18.0503 -5.88964)
(1.27003e-14 -54.3018 -9.48404)
(-2.3104e-15 -66.0528 -11.9766)
(-2.44176e-15 -67.2051 -9.00111)
(-2.83299e-15 -61.5781 -4.34737)
(5.04043e-16 -45.3921 -2.63014)
(3.10823e-15 -31.8516 -11.812)
(2.22213e-15 -9.13763 1.18558)
(-4.40437e-15 18.7455 -58.5494)
(2.8169e-14 81.8076 61.4333)
(4.56597e-15 2.71128 -55.1534)
(1.13963e-12 564.651 -625.472)
(5.4841e-13 -293.967 -136.382)
(1.15826e-12 173.181 -366.654)
(4.01279e-13 104.136 -63.7893)
(-9.63309e-15 23.9043 27.1969)
(1.92941e-15 7.78047 11.15)
(-7.03809e-16 13.4169 -5.45085)
(2.72133e-15 24.1254 6.69407)
(2.85997e-14 2.663 -14.8772)
(6.21346e-15 5.37445 -11.404)
(-3.47364e-15 25.3837 -1.89734)
(-1.57685e-15 35.7258 8.21965)
(1.86188e-16 36.3493 17.6586)
(3.88962e-15 19.6359 15.4178)
(6.3424e-15 20.0705 5.29628)
(-2.19314e-15 21.2704 -16.6622)
(-5.40974e-15 13.4576 -91.3947)
(2.77524e-14 101.953 65.1812)
(3.3974e-15 -130.653 -60.1243)
(-9.30969e-12 -1420.62 3032.44)
(1.31957e-12 415.181 -566.256)
(9.66038e-13 348.727 -308.825)
(9.99182e-14 84.0282 42.5024)
(-2.37514e-15 31.6858 19.2)
(-1.89464e-16 13.5574 6.11726)
(-1.14633e-16 15.9869 -3.02819)
(2.76027e-15 24.7751 3.34081)
(7.23931e-14 -33.7731 21.4281)
(3.42903e-14 -119.466 -28.7466)
(5.11359e-15 -162.408 -61.4253)
(-3.93989e-15 -174.492 -69.0245)
(-1.07607e-14 -164.177 -68.1577)
(-6.90073e-15 -112.725 -46.1352)
(-6.41601e-15 -79.8209 -79.7498)
(-3.21583e-15 -0.107293 -33.3171)
(-2.30076e-15 9.05596 -86.0938)
(2.03876e-14 128.685 49.5002)
(4.53543e-14 186.211 182.022)
(1.61246e-14 13.2861 26.2715)
(3.83432e-14 13.809 25.8633)
(3.2321e-14 13.1176 27.2105)
(3.54324e-14 12.3626 26.627)
(3.43988e-14 11.4815 26.3883)
(3.0845e-14 10.8039 25.9824)
(2.92301e-14 10.1167 25.6017)
(3.03152e-14 9.49476 25.1179)
(2.99693e-14 8.84753 24.5571)
(3.00505e-14 8.15215 23.8577)
(2.99557e-14 7.60301 23.1798)
(3.06821e-14 7.28086 22.8812)
(3.13078e-14 6.15482 21.0552)
(2.60517e-14 1.2999 12.3997)
(8.40038e-15 -7.30176 -4.07267)
(-1.14343e-14 -13.5758 -16.39)
(-1.36027e-14 -12.2859 -15.8545)
(1.09555e-14 -5.49207 -5.53685)
(5.04924e-14 4.40592 8.43854)
(5.0971e-14 5.50111 9.02467)
(5.60264e-15 5.58651 10.6976)
(3.50992e-14 8.70428 16.5265)
(2.66796e-14 7.63961 15.716)
(2.82926e-14 7.36619 16.1943)
(3.20169e-14 7.05152 16.6705)
(3.20903e-14 6.72267 17.0817)
(2.34733e-14 6.37044 17.4515)
(2.55013e-14 6.02348 17.7999)
(2.55371e-14 5.68021 18.1285)
(2.50791e-14 5.34825 18.4228)
(2.48501e-14 5.03793 18.6867)
(2.54671e-14 4.76688 19.0102)
(2.57272e-14 4.43927 19.2735)
(2.69078e-14 3.62834 18.2388)
(2.82657e-14 1.59933 13.5357)
(2.71825e-14 -1.17708 5.36659)
(2.47935e-14 -1.18864 1.25106)
(3.72463e-14 4.38553 7.88958)
(4.60707e-14 8.38217 13.1249)
(5.7659e-14 6.1563 10.5159)
(-6.12834e-16 6.57081 11.9028)
(1.17976e-14 10.0529 17.4018)
(1.0441e-14 9.49994 16.7684)
(9.22526e-15 9.31399 16.3919)
(1.42935e-14 9.16836 16.3745)
(2.94019e-14 9.0493 16.3134)
(1.37181e-14 8.87243 16.2576)
(1.37052e-14 8.68765 16.1778)
(1.46569e-14 8.46462 16.0897)
(1.35332e-14 8.224 15.9862)
(1.38165e-14 7.95061 15.8645)
(1.41227e-14 7.64213 15.7055)
(1.25872e-14 7.33889 15.5996)
(1.21192e-14 7.2343 15.8452)
(1.21699e-14 7.57276 16.6247)
(1.35279e-14 8.32015 17.3853)
(1.54632e-14 9.17809 17.356)
(1.58111e-14 9.70071 16.6298)
(1.80629e-14 8.12718 13.8205)
(2.03354e-14 2.91813 3.80842)
(1.31716e-17 5.91237 10.3736)
(-3.05343e-15 9.46809 16.448)
(-2.2498e-15 8.97039 15.7506)
(-2.35636e-15 8.81893 15.4978)
(-1.66227e-15 8.78667 15.5515)
(1.6634e-14 8.78333 15.5794)
(1.40375e-14 8.75323 15.6077)
(1.50826e-14 8.73953 15.6203)
(1.63062e-14 8.71399 15.63)
(1.43068e-14 8.69653 15.624)
(1.44908e-14 8.67405 15.609)
(1.47551e-14 8.65965 15.5843)
(1.33641e-14 8.64376 15.5394)
(1.41067e-14 8.58197 15.4125)
(1.37763e-14 8.40884 15.1328)
(1.48129e-14 8.18839 14.89)
(1.32831e-14 8.31619 15.2901)
(1.40274e-14 8.72314 16.2085)
(1.82548e-14 7.79943 14.4746)
(3.25246e-14 2.97894 5.39929)
(6.57272e-18 6.03303 10.5517)
(7.09913e-16 9.54617 16.4787)
(5.19292e-16 9.06897 15.799)
(5.21821e-16 8.90979 15.4868)
(1.14789e-16 8.87147 15.5111)
(-4.17269e-15 8.86755 15.5158)
(-3.27595e-15 8.83448 15.5295)
(-3.19387e-15 8.81776 15.5333)
(-3.45373e-15 8.78715 15.543)
(-3.1973e-15 8.76468 15.5476)
(-3.26973e-15 8.73621 15.5543)
(-3.45237e-15 8.71053 15.5572)
(-3.18722e-15 8.68455 15.5595)
(-3.20787e-15 8.66625 15.5742)
(-3.18406e-15 8.6731 15.6008)
(-2.91764e-15 8.67148 15.5958)
(-2.90753e-15 8.69682 15.5883)
(-3.00698e-15 8.97963 16.204)
(-4.27798e-15 9.10538 16.3776)
(-4.9781e-15 5.03778 9.08619)
(-8.77572e-19 6.05642 10.4804)
(-1.57186e-16 9.47913 16.3127)
(-1.14123e-16 9.02049 15.6066)
(-1.15518e-16 8.86759 15.2993)
(-2.01645e-17 8.84921 15.3168)
(9.32489e-16 8.86059 15.3187)
(7.0364e-16 8.84642 15.3274)
(7.03829e-16 8.84816 15.3267)
(7.08371e-16 8.83704 15.3318)
(7.0977e-16 8.83398 15.3314)
(7.43488e-16 8.82426 15.3332)
(7.23631e-16 8.81742 15.3327)
(7.07982e-16 8.80934 15.3315)
(6.79635e-16 8.79757 15.3295)
(6.786e-16 8.78779 15.3191)
(6.28953e-16 8.76294 15.3123)
(6.42688e-16 8.76786 15.3101)
(6.76482e-16 8.94224 15.6789)
(9.40927e-16 9.29172 16.3003)
(9.13706e-16 5.79279 10.1943)
(-2.16918e-19 6.25188 10.8228)
(3.51335e-17 9.48819 16.3141)
(2.52418e-17 9.00855 15.5809)
(2.6211e-17 8.87035 15.3024)
(4.67865e-18 8.85309 15.3205)
(-2.07093e-16 8.86337 15.3226)
(-1.54435e-16 8.85076 15.3317)
(-1.57179e-16 8.85341 15.3326)
(-1.52068e-16 8.84494 15.3392)
(-1.56907e-16 8.84466 15.3414)
(-1.64873e-16 8.83886 15.3464)
(-1.56638e-16 8.83674 15.3493)
(-1.55652e-16 8.8334 15.3523)
(-1.4896e-16 8.82932 15.3564)
(-1.49206e-16 8.8305 15.3575)
(-1.42729e-16 8.82076 15.3597)
(-1.41975e-16 8.82715 15.3506)
(-1.56202e-16 8.96555 15.6342)
(-2.08698e-16 9.39491 16.3539)
(-1.78748e-16 6.2133 10.8875)
(1.80353e-19 6.41193 11.0723)
(-8.05637e-18 9.45221 16.2495)
(-5.87608e-18 8.96585 15.4886)
(-6.14055e-18 8.8441 15.2411)
(-1.48952e-18 8.83148 15.2588)
(4.66483e-17 8.84242 15.2608)
(3.48659e-17 8.83274 15.2694)
(3.529e-17 8.83673 15.2706)
(3.45039e-17 8.83055 15.2772)
(3.54441e-17 8.83181 15.2799)
(3.64753e-17 8.82771 15.2855)
(3.53347e-17 8.82726 15.2893)
(3.4954e-17 8.82502 15.2939)
(3.42489e-17 8.82267 15.2992)
(3.45342e-17 8.82347 15.3022)
(3.34258e-17 8.81563 15.3075)
(3.25296e-17 8.81983 15.3012)
(3.62797e-17 8.93114 15.5332)
(4.68167e-17 9.38631 16.2993)
(3.73236e-17 6.45476 11.2853)
(-7.02997e-20 6.6029 11.4008)
(1.9177e-18 9.43034 16.2131)
(1.44312e-18 8.93391 15.433)
(1.49483e-18 8.83123 15.2206)
(5.0992e-19 8.82012 15.2385)
(-1.07306e-17 8.82997 15.2398)
(-8.16619e-18 8.82116 15.2477)
(-8.13357e-18 8.82492 15.249)
(-8.10797e-18 8.81956 15.2553)
(-8.29989e-18 8.82101 15.258)
(-8.23333e-18 8.81754 15.2635)
(-8.22276e-18 8.81776 15.2672)
(-8.17439e-18 8.81579 15.2722)
(-8.24521e-18 8.81466 15.2772)
(-8.29734e-18 8.81526 15.281)
(-8.05531e-18 8.8098 15.2867)
(-7.77279e-18 8.81243 15.2809)
(-8.55998e-18 8.90469 15.4745)
(-1.07343e-17 9.36731 16.2534)
(-8.27224e-18 6.65972 11.6368)
(2.1142e-20 6.7857 11.7086)
(-4.67056e-19 9.39374 16.1546)
(-3.63793e-19 8.89729 15.368)
(-3.71559e-19 8.8124 15.1888)
(-1.6989e-19 8.80298 15.2065)
(2.52033e-18 8.81192 15.2078)
(1.985e-18 8.80415 15.2153)
(1.95791e-18 8.80766 15.217)
(1.95394e-18 8.80303 15.223)
(2.03038e-18 8.80449 15.226)
(1.92951e-18 8.80145 15.2316)
(1.96237e-18 8.802 15.2354)
(1.97715e-18 8.80002 15.2407)
(2.05208e-18 8.79971 15.2456)
(2.03469e-18 8.79964 15.2503)
(1.98795e-18 8.79597 15.2559)
(1.93042e-18 8.79703 15.2515)
(2.07383e-18 8.87329 15.4121)
(2.52186e-18 9.33274 16.1899)
(1.94632e-18 6.8458 11.9551)
(-5.47233e-21 6.97153 12.0256)
(1.12598e-19 9.35498 16.0923)
(9.04629e-20 8.86512 15.3126)
(9.10762e-20 8.79692 15.1646)
(5.21656e-20 8.78848 15.1815)
(-6.00536e-19 8.79637 15.1825)
(-4.90756e-19 8.78936 15.1895)
(-4.84441e-19 8.7924 15.1913)
(-4.77443e-19 8.78831 15.197)
(-5.07694e-19 8.78955 15.2)
(-4.66558e-19 8.78679 15.2053)
(-4.74064e-19 8.78744 15.209)
(-4.82985e-19 8.78535 15.2144)
(-5.13535e-19 8.78564 15.2188)
(-4.96695e-19 8.78483 15.2239)
(-4.91144e-19 8.78275 15.2292)
(-4.85467e-19 8.78237 15.2261)
(-5.08649e-19 8.84465 15.3571)
(-5.97007e-19 9.29263 16.1195)
(-4.74252e-19 7.02742 12.2673)
(1.27801e-21 7.15505 12.3375)
(-2.60689e-20 9.30922 16.0185)
(-2.15076e-20 8.83423 15.2593)
(-2.13465e-20 8.78109 15.1399)
(-1.45369e-20 8.77349 15.1556)
(1.42225e-19 8.78041 15.1566)
(1.1954e-19 8.77417 15.1631)
(1.18559e-19 8.77676 15.1651)
(1.15574e-19 8.77323 15.1705)
(1.24682e-19 8.77421 15.1736)
(1.12934e-19 8.77178 15.1787)
(1.13224e-19 8.77246 15.1823)
(1.15869e-19 8.77032 15.1878)
(1.24857e-19 8.77112 15.1918)
(1.17616e-19 8.76962 15.1974)
(1.18032e-19 8.76903 15.2021)
(1.19123e-19 8.76736 15.2007)
(1.22473e-19 8.81749 15.305)
(1.38712e-19 9.24611 16.039)
(1.14463e-19 7.20621 12.5744)
(-2.77386e-22 7.33785 12.6488)
(5.70922e-21 9.25844 15.9359)
(4.82117e-21 8.80614 15.211)
(4.71578e-21 8.7664 15.1172)
(3.68639e-21 8.75938 15.1315)
(-3.26982e-20 8.76539 15.1325)
(-2.79233e-20 8.75987 15.1385)
(-2.77885e-20 8.76198 15.1407)
(-2.70191e-20 8.75898 15.1457)
(-2.9134e-20 8.75965 15.1488)
(-2.64685e-20 8.75757 15.1537)
(-2.61166e-20 8.75817 15.1573)
(-2.67146e-20 8.75605 15.1626)
(-2.87821e-20 8.75724 15.1663)
(-2.65656e-20 8.75512 15.1723)
(-2.70437e-20 8.75589 15.1764)
(-2.7744e-20 8.75304 15.1767)
(-2.81809e-20 8.79272 15.2572)
(-3.0992e-20 9.19427 15.9497)
(-2.64086e-20 7.38369 12.8791)
(5.72107e-23 7.51935 12.9575)
(-1.18055e-21 9.20192 15.8434)
(-1.01903e-21 8.78032 15.1666)
(-9.82786e-22 8.75223 15.0953)
(-8.60914e-22 8.74565 15.1081)
(7.18746e-21 8.75085 15.1091)
(6.17578e-21 8.74603 15.1147)
(6.14881e-21 8.74767 15.1171)
(6.00106e-21 8.74521 15.1217)
(6.38979e-21 8.74555 15.125)
(5.88902e-21 8.74386 15.1296)
(5.7396e-21 8.74431 15.1331)
(5.85862e-21 8.74234 15.1383)
(6.23916e-21 8.74376 15.1418)
(5.70029e-21 8.74118 15.148)
(5.8661e-21 8.74316 15.1515)
(6.06728e-21 8.73924 15.1537)
(6.11955e-21 8.77023 15.2133)
(6.60479e-21 9.13694 15.8513)
(5.73631e-21 7.56002 13.1816)
(-1.13471e-23 7.69989 13.2645)
(2.31275e-22 9.13994 15.7414)
(2.04222e-22 8.75697 15.1266)
(1.9473e-22 8.73879 15.0746)
(1.87622e-22 8.73253 15.0858)
(-1.50371e-21 8.73698 15.0869)
(-1.29323e-21 8.73284 15.092)
(-1.28371e-21 8.734 15.0945)
(-1.25944e-21 8.73207 15.0987)
(-1.31605e-21 8.73208 15.1021)
(-1.23759e-21 8.73079 15.1064)
(-1.1986e-21 8.73102 15.11)
(-1.221e-21 8.7293 15.115)
(-1.2769e-21 8.73078 15.1183)
(-1.16841e-21 8.72793 15.1246)
(-1.20711e-21 8.7309 15.1275)
(-1.24845e-21 8.72602 15.1316)
(-1.25443e-21 8.75008 15.1734)
(-1.34447e-21 9.0742 15.7438)
(-1.17225e-21 7.73535 13.4819)
(2.14898e-24 7.87976 13.5703)
(-4.28583e-23 9.07251 15.6298)
(-3.88178e-23 8.73615 15.0909)
(-3.68075e-23 8.72619 15.055)
(-3.83747e-23 8.72015 15.0647)
(2.99656e-22 8.72389 15.0659)
(2.57702e-22 8.72046 15.0705)
(2.53922e-22 8.72111 15.0732)
(2.49789e-22 8.71967 15.077)
(2.56103e-22 8.71938 15.0804)
(2.46132e-22 8.71843 15.0844)
(2.38439e-22 8.7184 15.088)
(2.42353e-22 8.71702 15.0927)
(2.48637e-22 8.71832 15.096)
(2.30411e-22 8.71548 15.1022)
(2.36436e-22 8.7191 15.1047)
(2.433e-22 8.71342 15.1105)
(2.43942e-22 8.73226 15.1373)
(2.6221e-22 9.00612 15.6274)
(2.26123e-22 7.90972 13.7799)
(-3.74515e-25 8.05938 13.8752)
(7.36969e-24 8.99948 15.5081)
(6.87502e-24 8.7178 15.0597)
(6.5411e-24 8.71456 15.0366)
(7.27752e-24 8.70878 15.0447)
(-5.66596e-23 8.71174 15.0461)
(-4.88205e-23 8.70917 15.0501)
(-4.7481e-23 8.7093 15.053)
(-4.66186e-23 8.7083 15.0565)
(-4.71395e-23 8.70781 15.0599)
(-4.61959e-23 8.70712 15.0635)
(-4.50834e-23 8.70686 15.0672)
(-4.56204e-23 8.70588 15.0715)
(-4.6067e-23 8.70673 15.0749)
(-4.35925e-23 8.70428 15.0809)
(-4.38223e-23 8.70799 15.0831)
(-4.48884e-23 8.70176 15.0904)
(-4.4907e-23 8.71698 15.1053)
(-4.86864e-23 8.93308 15.5027)
(-4.0998e-23 8.0832 14.0753)
(5.48541e-26 8.23966 14.1804)
(-1.11188e-24 8.9206 15.3748)
(-1.07698e-24 8.70166 15.0324)
(-1.04211e-24 8.70362 15.0189)
(-1.22757e-24 8.69851 15.0253)
(9.97947e-24 8.70035 15.0269)
(8.63872e-24 8.69873 15.0302)
(8.23362e-24 8.6984 15.033)
(8.02794e-24 8.6977 15.0361)
(8.08526e-24 8.69713 15.0394)
(8.02642e-24 8.69658 15.0428)
(7.96427e-24 8.69617 15.0464)
(7.98219e-24 8.69557 15.0504)
(7.97094e-24 8.69586 15.054)
(7.73553e-24 8.69426 15.0594)
(7.49023e-24 8.69726 15.0619)
(7.69297e-24 8.6913 15.0701)
(7.66081e-24 8.70425 15.0762)
(8.38443e-24 8.85557 15.3705)
(6.82947e-24 8.25516 14.3662)
(-4.55767e-27 8.42319 14.4926)
(1.19396e-25 8.83808 15.2311)
(1.24386e-25 8.69069 15.012)
(1.26884e-25 8.69522 15.0051)
(1.60784e-25 8.69182 15.0089)
(-1.54401e-24 8.69212 15.0105)
(-1.34791e-24 8.69115 15.0126)
(-1.24151e-24 8.69035 15.0148)
(-1.19507e-24 8.68952 15.0171)
(-1.22235e-24 8.68863 15.0197)
(-1.20934e-24 8.68775 15.0224)
(-1.24518e-24 8.68689 15.0254)
(-1.22231e-24 8.68605 15.0287)
(-1.21022e-24 8.68543 15.0321)
(-1.20616e-24 8.68433 15.0364)
(-1.08986e-24 8.68532 15.0397)
(-1.14375e-24 8.68104 15.0469)
(-1.12486e-24 8.69107 15.0483)
(-1.23866e-24 8.77264 15.2324)
(-9.67617e-25 8.42327 14.6449)
(-7.29086e-28 8.61058 14.8239)
(2.0509e-27 8.75271 15.0801)
(-1.46618e-28 8.69281 15.0032)
(-2.21241e-27 8.695 15.0014)
(-5.15549e-27 8.69442 15.0021)
(1.43034e-25 8.69407 15.0026)
(1.25986e-25 8.69366 15.0031)
(1.0693e-25 8.69305 15.0038)
(9.94222e-26 8.69232 15.0046)
(1.10917e-25 8.69143 15.0056)
(1.03237e-25 8.69038 15.0067)
(1.17809e-25 8.68914 15.008)
(1.0897e-25 8.68772 15.0095)
(1.0693e-25 8.68604 15.0113)
(1.10548e-25 8.68417 15.0133)
(8.26397e-26 8.68208 15.0156)
(9.57214e-26 8.67892 15.0189)
(9.06438e-26 8.67938 15.02)
(9.83402e-26 8.69418 15.0844)
(7.25813e-26 8.5934 14.8933)
(2.50886e-15 -15.531 1.32487)
(3.23526e-15 -18.3393 1.78314)
(2.46939e-15 -14.1166 2.84093)
(2.42236e-15 -15.5628 3.37372)
(2.30472e-15 -14.3352 4.09097)
(2.86696e-15 -18.1666 6.20276)
(2.25574e-15 -13.6738 6.21349)
(2.46922e-15 -15.4498 6.92584)
(2.34208e-15 -14.4144 7.51572)
(1.65216e-15 -18.2964 10.2112)
(-3.34306e-15 -14.4586 8.61776)
(-2.40586e-15 -15.0519 9.05276)
(-2.16474e-15 -17.5986 11.3391)
(-8.80908e-16 -14.4118 9.14634)
(-2.93313e-16 -16.1885 9.16671)
(1.60345e-18 -15.3417 8.97228)
(-4.95441e-16 -19.1183 10.8399)
(-1.70849e-15 -15.2519 8.4321)
(-4.27307e-15 -16.0995 8.24743)
(-3.79971e-15 -19.7324 10.0803)
(3.75556e-15 -15.1754 9.81286)
(8.75268e-15 -15.6507 9.80263)
(1.08847e-14 -15.2779 9.51858)
(1.18098e-14 -15.4405 9.2387)
(1.10858e-14 -15.3868 9.22802)
(9.50665e-15 -15.4841 9.35587)
(8.81044e-15 -15.497 9.49897)
(8.26229e-15 -15.3389 9.516)
(-2.26007e-15 -15.5145 6.89951)
(5.87134e-15 -13.5699 10.3182)
(6.01501e-15 -13.5557 10.5355)
(6.62756e-15 -13.3472 11.0315)
(8.07334e-15 -13.2022 11.5359)
(8.84697e-15 -12.998 11.964)
(9.43902e-15 -12.7612 12.003)
(8.43901e-15 -12.4367 11.2749)
(8.04818e-15 -12.0527 9.60024)
(5.88606e-15 -11.4995 7.50598)
(-7.85014e-15 -8.99265 -0.683071)
(-5.55372e-15 -9.66612 3.75037)
(-4.77976e-15 -8.71176 1.74057)
(-4.19556e-15 -10.8309 1.47612)
(-2.29376e-15 -9.46104 -0.662937)
(-1.20412e-15 -8.1422 -1.18857)
(-9.6145e-16 -10.2091 -3.04968)
(-4.7764e-16 -6.83936 -2.9698)
(3.68268e-16 -8.18086 -5.3096)
(2.54381e-15 -6.42402 -5.41077)
(4.2678e-15 -5.07209 -4.45682)
(5.48696e-15 -5.67791 -6.49754)
(-1.57083e-15 -3.13203 -4.55031)
(1.38217e-14 -3.39032 -6.73223)
(1.48255e-14 -1.89974 -4.70135)
(1.52613e-14 -0.560084 -2.87939)
(2.78205e-14 -0.690399 -3.8917)
(4.33117e-14 0.391355 -1.18982)
(2.89032e-14 0.78513 -0.551922)
(4.02671e-14 0.941039 1.57308)
(9.96085e-16 0.413561 1.54527)
(1.71653e-13 0.780647 3.46977)
(2.08848e-16 -0.144998 -0.707497)
(5.84916e-16 -1.79629 15.851)
(9.25295e-16 -1.30845 31.469)
(1.02041e-15 0.305571 33.3684)
(9.81113e-16 0.854443 25.7674)
(9.45056e-16 1.08107 16.6093)
(8.67118e-16 0.818835 6.73216)
(7.77239e-16 0.727242 0.382825)
(8.00841e-16 0.353795 -4.67821)
(8.75913e-16 0.376015 -8.21642)
(9.66217e-16 0.541364 -13.181)
(1.05426e-15 0.301209 -18.3507)
(9.61944e-16 -0.364625 -19.4382)
(6.26364e-16 -0.903064 -14.4031)
(2.60338e-16 -1.02841 -5.73973)
(-2.93491e-15 -0.269137 2.99104)
(-2.16437e-14 0.764296 6.0109)
(-1.04685e-14 1.38733 -3.73535)
(9.94805e-14 -0.253679 1.44133)
(5.52837e-16 -3.05259 9.08661)
(9.46047e-16 -4.60052 27.0229)
(9.49074e-16 -2.42139 35.1896)
(7.88821e-16 1.24168 30.9756)
(9.01862e-16 2.29866 24.6666)
(9.62821e-16 3.09253 15.4703)
(9.15142e-16 2.30641 6.10348)
(7.01759e-16 1.91308 0.0450489)
(5.94615e-16 1.15505 -4.83864)
(5.92656e-16 1.32439 -8.82049)
(6.91053e-16 1.57191 -14.1422)
(8.78606e-16 0.977687 -18.532)
(1.10137e-15 -0.388019 -21.2746)
(9.80084e-16 -1.73887 -20.764)
(5.97111e-16 -2.33313 -15.703)
(-2.36925e-16 -1.47878 -10.4423)
(-8.27884e-17 -0.366804 -6.01989)
(-1.0659e-14 0.849391 -9.03647)
(7.38173e-14 -1.65929 -0.865092)
(6.58567e-16 -6.87773 13.1561)
(9.0588e-16 -6.74408 27.3774)
(6.9949e-16 -2.78826 32.3459)
(7.4567e-16 2.38299 30.265)
(1.11996e-15 3.76908 23.2782)
(1.39109e-15 5.01952 14.4543)
(1.34355e-15 3.76674 5.24451)
(9.40784e-16 3.01675 -0.374147)
(5.37633e-16 1.97951 -4.98453)
(3.32889e-16 2.24718 -8.8467)