/*--------------------------------*- C++ -*----------------------------------*\
| =========                 |                                                 |
| \\      /  F ield         | OpenFOAM: The Open Source CFD Toolbox           |
|  \\    /   O peration     | Version:  4.1                                   |
|   \\  /    A nd           | Web:      www.OpenFOAM.org                      |
|    \\/     M anipulation  |                                                 |
\*---------------------------------------------------------------------------*/
FoamFile
{
    version     2.0;
    format      ascii;
    class       volScalarField;
    location    "6";
    object      p;
}
// * * * * * * * * * * * * * * * * * * * * * * * * * * * * * * * * * * * * * //

dimensions      [0 2 -2 0 0 0 0];

internalField   nonuniform List<scalar> 
1280
(
-4.53851
18.4372
1.73405
-10.3109
27.6637
0.589192
-16.6953
-7.22424
14.6898
-9.78846
-57.1552
8.43308
-43.756
-139.313
-38.8124
-146.202
-285.638
-323.713
-21.7662
-1380.48
217.763
1538.62
1987.85
2269.25
2338.29
3079.09
-648
1088.62
959.764
824.718
748.505
684.622
632.394
577.701
534.788
473.852
445.341
348.943
342.22
90.4242
-2939
-1781.83
-1236.46
-1055.3
-283.345
-577.167
-449.717
-415.753
-854.675
-403.111
-411.229
-867.815
-421.144
-456.905
-591.813
-289.215
-1010.71
-1173.69
-1704.83
-2729.5
339.773
551.928
536.635
599.999
596.609
625.426
633.004
643.916
629.194
612.007
618.628
672.899
804.596
-564.442
2682.2
1885.37
1727.02
1327.96
1053.42
92.9663
-1277.82
-167.213
-432.387
-360.49
-268.17
-179.481
-213.006
-134.196
-101.145
-122.892
-79.4772
-62.5149
-60.5454
-53.784
-33.6867
-19.6677
-27.5309
-13.3469
-4.44554
-7.03859
0.271497
37.8177
45.2848
62.9084
37.0407
-41.1849
-48.945
-12.0355
-97.2459
-101.042
-71.7175
-17.8441
100.291
101.176
62.5308
12.4469
-23.6827
-33.2803
-9.74076
-19.3104
50.0399
25.45
9.5704
-25.7234
-15.4563
23.7964
36.9602
-49.7545
-58.0368
35.3785
103.163
287.996
242.135
143.157
63.0855
-15.6778
-44.6369
-18.1229
-29.5997
74.9198
43.8824
37.4279
-13.6524
-42.1861
-14.4785
3.16495
-51.6575
-108.264
33.3315
103.292
363.803
295.05
163.531
53.5953
-41.0376
-82.266
-36.3399
-39.4547
70.693
18.0231
4.27344
-34.6373
-35.1342
-5.03116
-30.384
-144.053
-144.7
104.755
145.993
454.862
342.079
172.973
16.5849
-61.5592
-82.8608
6.77502
-40.5869
63.9896
21.3286
23.8884
0.851125
-0.795269
5.01478
-51.4918
-187.979
-55.3432
-68.6321
96.2587
552.229
379.335
150.723
-64.4936
-147.002
-199.616
-68.6374
-33.6424
44.9984
9.86004
21.0141
19.6301
33.027
28.3672
-72.2881
-281.19
-206.357
-592.274
270.691
622.004
444.482
153.797
-127.272
-145.692
-85.0019
131.39
-20.226
34.498
14.7277
41.2585
59.2702
74.5274
55.7156
-61.2821
-298.45
-378.34
-645.728
449.528
685.439
597.304
270.824
-161.572
-272.37
-505.968
-165.784
-3.66309
24.5436
14.2395
57.2313
90.648
109.863
90.3258
-16.4125
-208.614
-315.183
-540.471
305.5
608.337
639.363
453.592
200.604
122.659
482.106
549.913
8.90385
19.6608
15.1104
73.6138
117.069
133.239
106.351
9.62209
-153.065
-280.184
-408.603
227.015
476.271
537.004
484.825
433.191
638.847
1986.75
3419.08
23.4267
11.6565
11.3964
78.3628
129.903
145.05
115.348
35.7624
-97.8253
-235.307
-316.589
145.208
377.49
493.153
575.812
621.527
859.827
2358.79
2212.55
28.8746
-2.19043
3.58856
74.9964
129.956
143.747
113.524
46.3024
-73.8193
-221.343
-278.654
60.6599
266.647
400.452
563.518
722.278
960.72
2377.67
2236.41
12.1651
-11.1045
-21.8091
49.7591
104.514
127.776
106.566
52.5567
-67.9854
-241.581
-285.319
-22.5122
144.307
328.321
649.554
844.539
849.3
1884.51
3359.36
-17.3064
-16.9211
-59.1381
7.5693
64.1021
100.226
93.2685
55.0458
-74.746
-288.901
-311.872
-47.869
166.761
331.912
696.216
893.296
766.696
700.288
670.834
-45.6357
-17.4402
-75.1867
-35.6942
10.9067
54.9658
61.7041
36.3858
-111.928
-359.174
-339.348
-83.2825
231.874
376.564
628.142
663.198
413.096
-276.613
-248.792
-70.3062
-6.93519
-83.0553
-76.1013
-48.7723
-2.60635
21.0247
13.7255
-152.779
-383.767
-287.914
-62.1272
189.805
331.901
527.467
591.436
443.583
159.39
219.045
-81.8785
32.0381
-63.6375
-75.0493
-82.0281
-54.347
-29.1192
-21.5466
-194.497
-354.492
-280.615
23.3004
173.537
293.494
418.949
443.043
297.753
42.2473
31.7783
-82.7316
50.8174
-53.0119
-77.8728
-114.337
-99.3307
-60.8874
-26.6892
-180.159
-253.463
-275.793
20.0087
127.548
231.819
331.06
343.4
257.132
87.0681
76.7469
-61.3339
71.0124
-3.03384
-18.6514
-71.0459
-105.039
-101.392
-54.8414
-133.529
-213.789
-200.448
6.49376
95.6128
190.466
261.957
266.977
194.868
56.6475
31.6218
-39.4914
45.1146
-7.82395
-29.4028
-71.3056
-65.7862
-4.44613
41.6495
-16.9277
-242.412
-131.88
-4.8779
65.5682
138.411
198.698
204.169
144.912
50.2254
26.7207
-5.10063
38.3786
33.6801
51.4596
49.1798
8.46412
-79.0311
-109.863
-39.4122
-207.194
-122.969
-60.9318
-41.69
-4.18635
41.2729
50.4758
44.4268
9.36754
14.823
11856.1
11825.5
11735.2
11621.1
11478.6
11320.9
11152.6
10971.9
10775.9
10591.5
10414
10244.1
10084.6
9935.1
9798.19
9670.57
9560.91
9452.04
9378.82
9264.74
8769.01
8848.37
8886.9
8943.44
8983.37
9017.84
9040.61
9050.75
9055.91
9054.24
9049.47
9041.75
9031.91
9021.48
9010.05
9000.15
8989.95
8982.76
8976.46
8969.45
9379.69
9399.14
9401.09
9415.88
9416.27
9422.5
9422.49
9423.15
9421.09
9418.78
9415.39
9412.23
9408.39
9405.9
9402.15
9401.84
9398.11
9401.47
9397.35
9401.69
8301.66
8376.27
8396.51
8449.4
8478.68
8518.07
8551.08
8585.44
8618.41
8651.4
8683.59
8716.06
8747.35
8779.94
8809.71
8843.5
8869.8
8907.04
8925.06
8968.39
7821.01
7892.41
7908.82
7955.09
7981.23
8016.67
8050.58
8086.36
8123.22
8160.76
8198.79
8237.87
8276.28
8316.83
8354.29
8397.14
8430.62
8478.44
8501.29
8558.22
6964.25
7037.68
7061.31
7106.71
7138.3
7174.66
7215.32
7253.59
7298.65
7341.33
7387.94
7435.01
7482.64
7533.01
7580.29
7634.15
7677.32
7737.39
7768.15
7841.04
6388.93
6431.06
6455.98
6484.14
6505.25
6527.13
6558.36
6576.78
6614.19
6639.16
6676.51
6710.48
6748.59
6789.47
6828.46
6875.23
6911.77
6966.12
6993.54
7060.6
6002.44
6012.06
6039.54
6052.77
6059.86
6068.97
6092.89
6088.04
6118.13
6120.4
6145.79
6159.88
6182.69
6205.95
6228.54
6259.06
6279.89
6318.64
6333.6
6385.82
5851.51
5848.61
5869.83
5871.26
5875.07
5872.05
5901.64
5883.25
5911.65
5901.5
5919.09
5919.2
5929.32
5936.4
5942.72
5955.04
5958.2
5977.16
5975.64
6006.36
5679.66
5708.99
5720.82
5727.6
5765.09
5755.11
5809.81
5798.76
5839.43
5839.52
5863.83
5870.57
5883.7
5891.81
5897.42
5904.64
5903.71
5910.43
5903.38
5913.71
5205.2
5296.37
5338.76
5361.47
5462.92
5463.55
5561.67
5579.07
5651.17
5684.86
5736.74
5774.77
5814.14
5848.6
5878.56
5906.18
5926.03
5944.11
5950.63
5957.49
4078.55
4217.94
4348.9
4377.34
4568.07
4594.46
4761.33
4827.05
4956.76
5048.45
5155.95
5253.06
5348.58
5439.81
5524.63
5605.31
5675.67
5740.75
5786.26
5826.88
1987.16
2064.07
2264.19
2246.79
2494.82
2505.56
2720.46
2803.06
2982.04
3117.95
3284.17
3445.16
3611.83
3780.19
3944.07
4108.32
4260.32
4427.16
4566.59
4769.14
218.208
35.434
144.785
-67.1377
31.2056
-164.485
-123.516
-260.882
-272.496
-356.251
-386.82
-418.967
-403.284
-332.588
-207.009
-32.3153
155.142
374.238
537.215
860.358
2045.4
1682.84
1696.76
1346.86
1310.62
979.06
857.805
553.18
343.594
37.2416
-246.414
-564.494
-855.991
-1114.43
-1315.64
-1458.08
-1535.53
-1542.98
-1569.65
-1433.26
5295.34
4977.31
5072.63
4741.99
4844.24
4599.27
4625.43
4479.77
4450.35
4360.14
4309.81
4240.45
4177.53
4095.43
3995.22
3862.15
3682.06
3496.19
3293.18
2970.1
7075.35
6858.54
7061.56
6664.22
6829.14
6569.33
6603.89
6481.25
6467.76
6419.37
6409.91
6402.05
6410.39
6424.98
6447.48
6474.97
6496.78
6481.28
6466.53
6387.72
5812.78
5481.68
6097.7
5598.41
5859.02
5604.11
5598.7
5443.65
5349.91
5225.21
5120.54
5021.22
4939.67
4874
4820.93
4768.97
4719.97
4729.91
4813.5
5053.79
4556.09
2911.26
3667.81
2733.06
2669.99
2156.34
1862.8
1496.47
1203.66
932.459
715.172
548.305
444.404
408.476
447.956
570.422
764.347
1026.33
1354.01
1682.21
57341.9
50838.8
47384.1
43059.3
39453.5
35893
32621.3
29517.8
26606.3
23855.5
21255.3
18789.3
16442.5
14198.9
12061
9996.63
7930.7
6190.57
4529.88
1702.2
59464.1
52962.5
49508.5
45184.7
41579.6
38019.8
34748.7
31645.8
28734.5
25983.8
23383.7
20917.4
18570.2
16325.9
14187.1
12122.2
10056
8312.07
6644.92
3814.59
6706.86
5063.58
5821.16
4887.83
4826.37
4314.31
4022.55
3657.95
3366.94
3097.54
2882.13
2717.22
2615.37
2581.53
2623.4
2748.86
2946.11
3212.01
3546.55
3876.2
7969.89
7636.97
8252.56
7751.63
8011.18
7754.55
7747.56
7590.45
7494.55
7367.29
7259.86
7157.54
7073.14
7004.74
6950.43
6899.56
6852.6
6859.45
6936.96
7167.55
9188.11
8966.63
9166.21
8765.7
8926.21
8662.68
8692.33
8565.05
8546.04
8492.15
8476.82
8463.4
8466.61
8476.64
8495.26
8519.07
8536.74
8519.44
8504.7
8422.23
7326.33
7006.46
7101.35
6769.22
6868.16
6620.11
6641.93
6491.44
6456.91
6360.96
6306.05
6233.47
6171.11
6093.87
6001.23
5876.74
5706.87
5522.92
5318.04
5011.96
4208.86
3868.36
3892.54
3559.99
3534.79
3215.64
3104.12
2810.14
2608.64
2311.93
2036
1726.05
1438.54
1179.68
971.533
820.949
736.753
721.454
691.949
833.19
2823.45
2703.62
2800.06
2531.69
2624.22
2387.77
2415.59
2253.56
2228.09
2130.35
2083.68
2036.58
2036.58
2092.91
2207.89
2379.64
2568.51
2791.81
2953.08
3264.46
4835.85
4889.38
5120.95
4978.29
5130.91
5086.3
5191.83
5228.8
5346.92
5456.59
5604.81
5750.55
5907.01
6068.39
6224.52
6381.7
6522.55
6678.45
6798.71
6988.23
6359.1
6529.93
6623.22
6645.95
6712.22
6754.37
6820.59
6880.8
6954.14
7032.05
7119.89
7205.63
7291.92
7377
7455.53
7532.69
7596.55
7662.61
7701.16
7749.9
7228.17
7372.07
7427.28
7505.16
7559.91
7617.21
7668.49
7715.72
7753.3
7782.19
7804.02
7829.31
7859.37
7893.72
7927.36
7966.05
7997.25
8037.74
8058.82
8100.11
7910.38
8029.95
8084.77
8145.79
8179.07
8208.36
8230.68
8250.38
8265.3
8280.51
8299.38
8324.82
8354.7
8388.87
8421.65
8459.62
8489.03
8530.78
8550.06
8599.55
8417.23
8503.79
8547.88
8587.23
8608.71
8629.86
8649.46
8676.48
8708.28
8739.73
8776.78
8821.34
8864.84
8908.99
8949.52
8991.76
9024.86
9065.65
9086.13
9126.22
8779.59
8834.22
8862.61
8883.98
8896.22
8910.75
8929.92
8960.52
8981.97
8993.39
9031.57
9083.35
9127.85
9171.06
9208.85
9244.02
9271.24
9298.99
9313.72
9333.27
8995.47
9026.92
9043.26
9054.1
9060.99
9071.43
9085.58
9109.27
9140.42
9172.4
9208.77
9245.89
9279.06
9310.63
9337.53
9360.97
9379.69
9395.96
9406.01
9414.94
9151.96
9175.73
9189.66
9202.54
9213.9
9228.48
9246.31
9267.29
9289.72
9310.81
9332.28
9353.89
9374.44
9393.42
9409.88
9423.87
9435.87
9445.64
9452.7
9458.4
9391.02
9398.93
9405.69
9411.4
9416.77
9423.69
9431.95
9440.75
9449.62
9457.78
9466.19
9474.94
9483.42
9490.66
9496.96
9501.68
9505.96
9508.66
9510.88
9510.86
9298.63
9313.72
9324.63
9337.48
9349.28
9361.29
9372.7
9383.12
9392.88
9401.37
9409.28
9416.34
9422.64
9427.56
9431.84
9434.89
9437.74
9439.69
9441.41
9442.09
9816.02
9794.9
9790.86
9778.43
9767.8
9755.48
9742.87
9729.82
9715.97
9701.38
9686
9669.57
9652.48
9634.61
9617.03
9598.96
9582.42
9564.52
9551.74
9530.14
8979.18
9025.62
9058.84
9090.1
9118.54
9139
9154.7
9162.58
9166.28
9162.3
9153.21
9136.23
9115.33
9091.92
9068.52
9044.08
9022.7
8999.2
8985.11
8960.68
11477.8
11413.6
11341.4
11237
11121.2
10996.1
10861.9
10708.7
10536.9
10370.7
10206.2
10042.8
9889.7
9745.37
9614.01
9489.92
9385.07
9278.26
9209.63
9099.15
)
;

boundaryField
{
    outletWall
    {
        type            fixedValue;
        value           uniform 0;
    }
    fineWalls
    {
        type            zeroGradient;
    }
    fineFrontAndBack
    {
        type            zeroGradient;
    }
    fineplugLeft
    {
        type            cyclicAMI;
        value           nonuniform List<scalar> 
20
(
7429.88
7571.5
7631.42
7737.8
7831.23
7945.51
8063.62
8194.16
8332.17
8480.9
8638.11
8812.67
8995.28
9810.81
9672.57
9650.54
9750.69
9785.7
9768.1
9528.45
)
;
    }
    fineplugRight
    {
        type            cyclicAMI;
        value           nonuniform List<scalar> 
20
(
7347.27
7478.09
7529.93
7628.06
7711.26
7816.29
7922.9
8040.54
8160.05
8287.35
8420.3
8564.13
8727.9
9562.6
9333.28
9274.03
9335.04
9338.69
9341.59
9200.83
)
;
    }
    inletOutletLeft
    {
        type            cyclicAMI;
        value           nonuniform List<scalar> 
20
(
7429.88
7571.5
7631.42
7737.8
7831.23
7945.51
8063.62
8194.16
8332.17
8480.9
8638.11
8812.67
8995.28
9810.81
9672.57
9650.54
9750.69
9785.7
9768.1
9528.45
)
;
    }
    inletLeft
    {
        type            zeroGradient;
    }
    inletWallsLeft
    {
        type            zeroGradient;
    }
    inletFacesLeft
    {
        type            zeroGradient;
    }
    inletOutletRight
    {
        type            cyclicAMI;
        value           nonuniform List<scalar> 
20
(
7347.27
7478.09
7529.93
7628.06
7711.26
7816.29
7922.9
8040.54
8160.05
8287.35
8420.3
8564.13
8727.9
9562.6
9333.28
9274.03
9335.04
9338.69
9341.59
9200.83
)
;
    }
    inletRight
    {
        type            zeroGradient;
    }
    inletWallsRight
    {
        type            zeroGradient;
    }
    inletFacesRight
    {
        type            zeroGradient;
    }
}


// ************************************************************************* //
