/*--------------------------------*- C++ -*----------------------------------*\
| =========                 |                                                 |
| \\      /  F ield         | OpenFOAM: The Open Source CFD Toolbox           |
|  \\    /   O peration     | Version:  4.1                                   |
|   \\  /    A nd           | Web:      www.OpenFOAM.org                      |
|    \\/     M anipulation  |                                                 |
\*---------------------------------------------------------------------------*/
FoamFile
{
    version     2.0;
    format      ascii;
    class       surfaceScalarField;
    location    "6";
    object      phi;
}
// * * * * * * * * * * * * * * * * * * * * * * * * * * * * * * * * * * * * * //

dimensions      [0 3 -1 0 0 0 0];

internalField   nonuniform List<scalar> 
2360
(
15444.8
20748.5
-5303.66
20748.5
20748.5
27829.8
-7081.29
27829.8
27829.8
27829.8
37189.8
-9359.94
37189.8
37189.8
49436.5
-12246.7
49436.5
49436.5
64734.6
-15298.1
64734.6
64734.7
86092.7
-21358.1
86092.8
86092.8
95695.1
107541
118629
128902
138631
147931
140180
16871.3
149128
157910
166580
175188
183769
192348
200937
209535
218139
226726
235258
243623
251220
88299.9
162921
88299.9
88299.9
88299.9
-3046.66
91346.6
-3046.66
-3046.65
-3046.64
324.48
-3371.12
324.484
324.489
2519.15
-2194.66
2519.16
2519.16
2519.17
-84868.1
87387.3
-84868.1
-84868.1
-84868.1
-248796
163928
-240585
-231597
-222424
-213179
-203895
-194579
-185220
-175834
-166491
-157324
-148399
-139604
-130861
-131383
9229.94
-122589
-113535
-104236
-94670.5
-84773
-76027.3
-76027.3
-76027.2
-54068.8
-21958.4
-54068.8
-54068.8
-40259.7
-13809.1
-40259.7
-40259.7
-28723.1
-11536.6
-28723.1
-28723.1
-20371.7
-8351.41
-20371.7
-20371.7
-20371.7
-13596.6
-6775.04
-13596.6
-13596.6
-8337.92
-5258.71
-32146.1
-27571.6
-42180.2
-33135.7
-55859.1
-32039.9
-70873.3
-36635.5
-79424.7
-41773.4
-72753.2
-42021.8
-53163.2
-26933.8
-36909.5
3888.97
-30427.4
33345.7
-25653.1
49493.4
-20641.4
62068.5
-15765
72074.3
-9774.8
49586
-3233.01
23719
2270.23
13811.9
6340.71
32717.3
8142.83
41215.7
8169.2
43194.1
24754.7
-42697.6
-20563.7
-56172.1
-19661.2
-71462
-16749.9
-86106.8
-21990.8
-94845.4
-33034.8
-90800
-46067.2
-68784.1
-48949.6
-39214.5
-25680.6
-25614.5
19745.7
-24446.2
48325.1
-21211.7
58834
-16693.6
67556.1
-9018.17
41910.6
-483.285
15184.1
4828.12
8500.54
8075.2
29470.3
9068.95
40221.9
8414.85
43848.2
26394.5
-49223.6
-12736.4
-61760.4
-7124.32
-72470.6
-6039.7
-80142.4
-14319
-84419.7
-28757.5
-84806.8
-45680.1
-76490.6
-57265.9
-52658.1
-49513.1
-26797.8
-6114.63
-19752.4
41279.7
-21408.8
60490.5
-19090.2
65237.4
-8808.89
31629.3
3107.32
3267.93
9136.95
2470.91
11409
27198.2
11382.6
40248.3
9465.98
45764.8
27509.1
-54388.1
-5329.17
-63793.9
2281.53
-68620.5
-1213.13
-69317.8
-13621.7
-67632
-30443.3
-66170.8
-47141.4
-65499.7
-57936.9
-59295.1
-55717.7
-38084.7
-27325
-18842.6
22037.6
-17935
59582.9
-21444.8
68747.1
-9646.87
19831.4
4641.37
-11020.3
12237.7
-5125.45
15056.3
24379.6
13946.2
41358.5
11472.1
48238.9
27444.6
-55371.3
-94.4965
-60419.4
7329.63
-61423.2
-209.349
-59464.4
-15580.5
-56307.5
-33600.2
-54756.8
-48692.1
-56915.4
-55778.4
-60964.6
-51668.5
-57913.3
-30376.4
-44727.8
8852.13
-29055.2
43910.3
-23279.6
62971.6
-16703.7
13255.5
-6492.14
-21231.9
5519.2
-17136.8
16473.1
13425.7
17972.5
39859.1
13751.7
52459.7
27387.2
-55496.7
3469.86
-58282.2
10115.2
-57685.6
-805.962
-55032.9
-18233.2
-53125.8
-35507.2
-55039.7
-46778.3
-60873.7
-49944.3
-66809.7
-45732.5
-67307.1
-29879
-60594.7
2139.64
-47418.9
30734.5
-33875
49427.7
-31413.9
10794.4
-29617.4
-23028.4
-18148.7
-28605.4
4670.5
-9393.5
18972.8
25556.9
19318.8
52113.7
24747.6
-54204.7
5470.74
-55020.2
10930.6
-53557
-2269.11
-52398.4
-19391.8
-55148.1
-32757.6
-63490.5
-38435.8
-75083.5
-38351.3
-84465.3
-36350.7
-85919
-28425.2
-78179
-5600.35
-67652.6
20208.1
-56233.3
38008.4
-57309.7
11870.8
-62373.8
-17964.3
-57878.4
-33100.9
-35833.4
-31438.5
-574.188
-9702.31
32375.8
19163.7
66353.3
-52169.1
5751.18
-51543.1
10304.7
-51738.8
-2073.39
-55218.9
-15911.8
-63886.7
-24089.7
-77227.2
-25095.4
-92232.6
-23345.9
-105134
-23449.8
-111840
-21718.7
-108408
-9032.27
-99518.5
11318.5
-89965.3
28455.2
-91149.8
13055.2
-97967.4
-11146.6
-103696
-27371.9
-106527
-28608.1
-107361
-8868.24
-122364
34167.2
107917
-49791.8
5422.07
-49896.7
10409.5
-53604.6
1634.53
-61835.8
-7680.49
-73987.8
-11937.8
-87885.3
-11197.9
-101245
-9985.78
-113485
-11210.1
-124239
-10964.3
-129961
-3311.13
-128560
9917.84
-121721
21616.3
-118753
10086.9
-119793
-10105.8
-123053
-24112.4
-127943
-23718.5
-130968
-5842.34
-123813
27011.6
71491.8
-41981.5
5187.7
-45124.7
13552.8
-54005.3
10515.2
-66297.4
4611.58
-79606.5
1371.32
-91571.3
766.846
-101703
146.385
-111631
-1282.91
-122481
-113.89
-131642
5850.16
-135062
13337.7
-130894
17448.4
-125800
4992.67
-122846
-13060.1
-120808
-26150.7
-116450
-28076.5
-103473
-18819.1
-69992.4
-6468.95
-695.189
-35185.2
1138.15
-35151
13518.6
-45655.5
21019.6
-60851.8
19807.9
-76339.2
16858.7
-88932.7
13360.4
-98881.2
10094.9
-108448
8284.1
-119235
10672.8
-129620
16235
-135538
19255.8
-134175
16085.5
-129877
694.352
-126333
-16603.5
-124425
-28059.1
-121571
-30930.5
-108757
-31632.5
-72582.1
-42644.3
-76648.4
-39367.3
-5700.99
-31591.8
5743.04
-35385.6
24813.5
-48148.6
32570.9
-64773.7
33483.8
-80588.5
29175.2
-93863.4
23369.8
-105726
20146.3
-117661
22607.8
-127981
26555.1
-131211
22485.5
-124018
8893.47
-112854
-10470.4
-106666
-22790.8
-110261
-24464.2
-122196
-18995.5
-133298
-20530.4
-129786
-46156.6
-115088
-49158.6
-9808.22
-39013
-4402.5
-33481.9
19282.3
-38088.1
37177.1
-51036.7
46432.4
-67775.9
45914.4
-84140
39733.9
-98650.5
34656.8
-111254
35211.3
-118483
33784.6
-113253
17255.4
-96160.6
-8199.28
-77623.2
-29007.7
-64876.7
-35537.4
-60759.7
-28581.2
-67481.1
-12274.1
-84735.3
-3276.25
-116081
-14810.8
-68248.3
-57906.1
-9952.93
-51183.2
-11125.4
-41398.2
9497.37
-37013.4
32792.3
-41699.6
51118.6
-54420.9
58635.7
-70824
56137
-86602.3
50435.1
-98550.5
47159.5
-100288
35522
-85574.1
2541.64
-63280.8
-30492.6
-46542.9
-45745.6
-35411.5
-46668.8
-23393.7
-40599
-6950.54
-28717.3
11917
-22143.8
29349.9
-32243.7
-22027.2
-64404.5
-6527.97
-63290.5
-12239.4
-54704.7
911.567
-45211.9
23299.5
-41134.5
47041.2
-45853.1
63354.3
-57981.7
68265.6
-72721
65174.4
-83239
57677.4
-78296.7
30579.8
-56174.9
-19580.1
-33850.6
-52817
-23444.5
-56151.7
-18449.3
-51664
-10144.4
-48903.9
1398.71
-40260.4
11323.1
-32068.1
18267.1
-39187.7
-25118.1
-68506.1
77.2505
-73382.4
-7363.11
-69605.4
-2865.4
-59971.1
13665.2
-50021.5
37091.5
-45905.2
59238
-50411.7
72772.1
-61087.8
75850.5
-67681.4
64271
-53199.2
16097.6
-28371
-44408.4
-15843.4
-65344.5
-13727.5
-58267.6
-10813
-54578.5
-4928.01
-54788.9
3592.2
-48780.6
11448.2
-39924.1
15075.8
-42815.3
-25340.4
-67094.5
9345.64
-78056.5
3598.89
-81900.1
978.229
-78015.8
9780.92
-68405.1
27480.8
-59157.6
49990.5
-56031.7
69646.2
-59135
78953.9
-55626.7
60762.7
-33157.6
-6371.49
-16494.2
-61071.8
-15705.3
-66133.4
-13801.5
-60171.4
-8028.33
-60351.7
-2485.47
-60331.8
4754.94
-56021
11119.9
-46289.1
13023.6
-44719
-24563.6
-59750
19178.3
-74335.7
18184.6
-85223.9
11866.4
-90452
15009
-88934
25962.8
-83396.2
44452.7
-77455
63705
-68848.1
70347
-46244.1
38158.6
-21692.1
-30923.5
-16875
-65888.9
-17537.4
-65471
-12311.7
-65397.2
-6214.53
-66448.8
-722.785
-65823.5
5591.52
-62335.3
10184.1
-50881.7
10908.8
-45443.7
-23014.7
-50678.1
27937.4
-66192.9
33699.3
-81998
27671.5
-95904
28915
-104143
34201.3
-104164
44474.3
-93436.3
52977.1
-68234.3
45145
-33935.5
3859.8
-18547.6
-46311.3
-19149.5
-65287
-16259.3
-68361.1
-10551.6
-71104.9
-5052.14
-71948.3
8.1136
-70883.7
5050.29
-67377.5
8247.86
-54079.2
9129.22
-46325.1
-20966.8
-36623.9
-47917.2
-62069.6
-77652.1
-89469.8
-91042.8
-77278.8
-50669.2
-28155.8
-21594.6
-19335.7
-15324
-10036.7
-4596.63
83.4042
4386.81
7050.5
8137.2
1301.83
-10904.1
2453.53
-12997.8
3465.97
-12100.3
4505.84
-11313.1
5518.94
-10741.9
6448.34
-10229.2
7018.96
-9691.01
7326.71
-9255.67
7443.56
-8899.05
7394.09
-8620.75
7203.34
-8416.62
6887.38
-8265.42
6456.25
-8148.12
5914.86
-8047.18
5268.1
-7951.8
4515.13
-7850.3
3658.41
-7730.9
2677.82
-7550.77
1535.74
-7223.6
-6061.33
544.161
-11448.3
470.778
-12924.4
750.544
-12380
1297.3
-11859.8
1902.96
-11347.5
2457.78
-10784
2952.7
-10185.9
3302.66
-9605.62
3514.68
-9111.06
3613.11
-8719.17
3615.57
-8419.08
3535.03
-8184.87
3380.33
-7993.41
3155.56
-7822.4
2865.17
-7661.4
2503.88
-7489
2075.84
-7302.85
1551.47
-7026.39
916.911
-6589.03
-5144.42
193.881
-11642.1
713.75
-13444.2
1537.99
-13204.3
2362.73
-12684.5
3060.82
-12045.6
3585.86
-11309
3934.1
-10534.1
4154.98
-9826.48
4271.96
-9228.02
4297.2
-8744.39
4236.32
-8358.18
4095.99
-8044.52
3883.61
-7781.01
3604.11
-7542.88
3260.82
-7318.09
2848.29
-7076.46
2361.58
-6816.12
1774.04
-6438.85
1056.83
-5871.81
-4087.58
110.525
-11752.6
887.377
-14221.1
1772.21
-14089.1
2595.37
-13507.6
3256.49
-12706.7
3721.77
-11774.3
4041.98
-10854.3
4259.81
-10044.3
4394.08
-9362.27
4443.4
-8793.68
4404.66
-8319.43
4278.48
-7918.32
4070.54
-7573.06
3786.06
-7258.39
3429.06
-6961.08
2994.46
-6641.85
2475.95
-6297.6
1845.51
-5808.4
1080.12
-5106.42
-3007.46
187.493
-11940.1
1140.54
-15174.1
2088.51
-15037
2869.32
-14288.4
3422.27
-13259.6
3782.87
-12134.8
4066.17
-11137.6
4305.16
-10283.2
4497.63
-9554.71
4615.71
-8911.72
4643.5
-8347.2
4570.71
-7845.49
4397.65
-7399.98
4126.41
-6987.13
3760.62
-6595.28
3296.08
-6177.29
2727.21
-5728.73
2030.9
-5112.09
1176.69
-4252.2
-1830.77
378.058
-12318.1
1299.46
-16095.5
2074.35
-15811.9
2587.96
-14802
2889.66
-13561.3
3103.05
-12348.2
3367.7
-11402.2
3644.5
-10560
3912.96
-9823.17
4118.94
-9117.67
4245.85
-8474.12
4269.99
-7869.62
4185.62
-7315.61
3985.87
-6787.36
3672.41
-6281.83
3240.93
-5745.8
2690.61
-5178.42
2008.36
-4429.85
1132.07
-3375.93
-698.707
564.201
-12882.3
1299.63
-16830.9
1748.74
-16261
1885.83
-14939.1
1953.33
-13628.8
2075.57
-12470.4
2328.34
-11655
2589
-10820.6
2861.44
-10095.6
3083.43
-9339.63
3256.72
-8647.4
3346.42
-7959.29
3347.4
-7316.59
3242.55
-6682.49
3034.3
-6073.57
2715.94
-5427.42
2289.37
-4751.86
1739.28
-3879.76
929.931
-2566.6
231.223
637.005
-13519.3
1117.82
-17311.7
1223.72
-16366.9
1050.22
-14765.6
1019.38
-13598
1096.66
-12547.7
1273.17
-11831.5
1419.51
-10967
1579.3
-10255.4
1703.27
-9463.59
1810.92
-8755.06
1871.59
-8019.95
1890.2
-7335.22
1852.31
-6644.59
1766.17
-5987.45
1622.67
-5283.92
1413.4
-4542.61
1096.44
-3562.82
497.711
-1967.93
728.935
572.77
-14092.1
845.09
-17584
743.023
-16264.8
469.248
-14491.8
452.562
-13581.3
485.331
-12580.4
542.977
-11889.1
568.938
-10992.9
595.337
-10281.8
607.314
-9475.52
614.797
-8762.51
614.143
-8019.25
611.742
-7332.79
611.037
-6643.84
615.302
-5991.69
617.772
-5286.37
584.556
-4509.37
466.691
-3444.94
168.677
-1669.88
897.611
470.247
-14562.3
647.47
-17761.2
519.972
-16137.3
386.466
-14358.2
419.985
-13614.8
443.992
-12604.4
450.624
-11895.8
452.343
-10994.6
433.769
-10263.2
418.128
-9459.86
390.01
-8734.4
370.63
-7999.86
351.699
-7313.87
345.501
-6637.64
335.394
-5981.6
317.642
-5268.62
248.355
-4440.09
121.139
-3317.75
-18.4442
-1530.34
879.166
521.808
-15084.1
716.027
-17955.4
724.735
-16146
829.385
-14462.9
966.263
-13751.6
1082.31
-12720.4
1171.16
-11984.6
1260.98
-11084.4
1319.35
-10321.5
1376.02
-9516.52
1406.74
-8765.11
1426.43
-8019.54
1414.02
-7301.44
1364.55
-6588.16
1246.11
-5863.16
1046.78
-5069.29
743.752
-4137.07
366.027
-2940.03
54.5626
-1218.89
933.728
887.678
-15971.8
1061.53
-18129.3
1280.57
-16365.1
1599.82
-14782.2
1940.96
-14092.8
2258.18
-13037.7
2565.57
-12292
2867.14
-11386
3153.71
-10608.1
3429.11
-9791.95
3671.83
-9007.85
3860.68
-8208.42
3953.85
-7394.64
3907.91
-6542.24
3678.28
-5633.55
3238.81
-4629.85
2590.22
-3488.5
1747.56
-2097.4
821.356
-292.738
1755.08
1310.79
-17282.6
1312.17
-18130.6
1677.73
-16730.6
2163.88
-15268.3
2722.66
-14651.6
3263.86
-13578.8
3853.84
-12882
4462.3
-11994.4
5119.39
-11265.2
5791.74
-10464.3
6442.13
-9658.22
6973.19
-8739.47
7277.72
-7699.16
7264.01
-6528.52
6891.69
-5261.22
6143.53
-3881.7
5042.48
-2387.43
3531.3
-586.215
1846.83
1391.75
3601.91
1121.74
-18404.4
797.665
-17806.6
1053.34
-16986.3
1433.88
-15648.9
1911.77
-15129.5
2422.06
-14089.2
3043.25
-13503.2
3745.7
-12696.9
4575.58
-12095.1
5466.98
-11355.7
6321.17
-10512.4
6909.26
-9327.61
7031.73
-7821.67
6622.46
-6119.31
5747.23
-4386.03
4474.86
-2609.37
3041.61
-954.245
1711.54
743.792
448.442
2654.79
4050.35
46.4204
-18450.8
-653.888
-17106.4
-984.648
-16655.6
-1273.75
-15359.8
-1520.93
-14882.3
-1715.91
-13894.3
-1856.57
-13362.6
-1909.83
-12643.7
-1884.55
-12120.5
-1808.79
-11431.6
-1805.21
-10516.1
-2038.66
-9094.22
-2576.66
-7283.69
-3292.04
-5403.99
-4040.92
-3637.18
-4790.38
-1859.96
-5429.08
-315.558
-5431.94
746.64
-3913.55
1136.37
136.807
-624.828
-17826.1
-1388.89
-16342.4
-2074.63
-15969.9
-2843.55
-14591
-3631.9
-14094.1
-4451.64
-13074.6
-5341.24
-12473
-6266.59
-11718.5
-7272.66
-11114.4
-8319.39
-10384.9
-9388.32
-9447.17
-10361.4
-8121.2
-11077.3
-6567.83
-11367.1
-5114.26
-11132.8
-3871.46
-10281.1
-2711.74
-8797.15
-1799.53
-6604.36
-1446.19
-3432.77
-2035.28
-3295.96
-379.729
-17446.4
-925.988
-15796.2
-1325
-15570.9
-1779.35
-14136.7
-2234.91
-13638.5
-2697.13
-12612.4
-3219.89
-11950.3
-3787.27
-11151.1
-4428.42
-10473.3
-5068.31
-9745.04
-5546.69
-8968.78
-5599.02
-8068.89
-5050.76
-7116.08
-3933.7
-6231.34
-2379.3
-5425.85
-495.355
-4595.69
1405.22
-3700.07
2660.1
-2701.03
2353.2
-1728.36
-942.756
-946.896
-16499.5
-2069.27
-14673.8
-2838.62
-14801.6
-3352.7
-13622.6
-3771.44
-13219.8
-3957.53
-12426.4
-4051.67
-11856.2
-3998.97
-11203.8
-3853.07
-10619.2
-3568.44
-10029.7
-3075.03
-9462.21
-2254.81
-8889.13
-1069.71
-8301.18
382.115
-7683.18
1973.64
-7017.37
3573.06
-6195.12
4829.84
-4956.85
5020.63
-2891.82
3270.6
21.6649
2327.84
-1957.96
-14541.5
-4153.73
-12478
-6315.51
-12639.8
-8041.71
-11896.4
-9648.9
-11612.6
-10901.5
-11173.8
-11928.4
-10829.3
-12665.6
-10466.7
-13157.4
-10127.4
-13398.4
-9788.66
-13408.6
-9452.01
-13192.3
-9105.42
-12754.2
-8739.27
-12093.1
-8344.34
-11202.2
-7908.2
-10013.2
-7384.2
-8349.03
-6620.97
-5998.82
-5242.03
-3044.59
-2932.57
-716.741
-5441.53
-8819.57
-12359.4
-15155.9
-17668.4
-19742.2
-21471.5
-22838.2
-23865.6
-24554.2
-24906.2
-24911.7
-24550.9
-23795.3
-22603.5
-20887.7
-18408.7
-14550.7
-8383.26
-5438.57
14538.5
-8813.31
12474.7
-12349.8
12636.4
-15142.5
11892.7
-17651.2
11608.7
-19720.8
11169.5
-21445.5
10824.7
-22807.2
10461.7
-23829.3
10122
-24512.1
9782.81
-24857.9
9445.75
-24856.8
9098.91
-24489.4
8732.64
-23726.5
8337.03
-22525
7898.46
-20796.4
7371.39
-18309.8
6613.47
-14471.4
5261.51
-8359
2987.63
740.997
-1957.19
16495.7
-4153.36
14670.8
-6315.19
14798.2
-8042.81
13620.3
-9651.85
13217.7
-10907.7
12425.3
-11938.9
11855.9
-12682
11204.7
-13181
10621
-13430
10031.9
-13447.9
9463.62
-13237.8
8888.73
-12803.1
8297.94
-12141.5
7675.41
-11245.7
7002.69
-10048.5
6174.21
-8372.65
4937.57
-6007.33
2896.19
-3031.61
11.8887
-2290.61
-954.268
17449.9
-2085.96
15802.5
-2864.59
15576.8
-3390.5
14146.2
-3821.32
13648.5
-4021.25
12625.2
-4130.03
11964.6
-4093.33
11168
-3964.35
10492
-3698.99
9766.44
-3229.35
8993.96
-2437.88
8097.21
-1281.02
7141.04
150.23
6244.11
1726.72
5426.18
3324.24
4576.65
4613.54
3648.26
4881.54
2628.18
3227.54
1665.89
936.925
-392.741
17842.6
-944.392
16354.1
-1351.76
15984.2
-1808.37
14602.8
-2266.78
14106.9
-2727.57
13086
-3247.58
12484.6
-3807.72
11728.1
-4440.02
11124.3
-5073.22
10399.6
-5558.17
9478.91
-5637.57
8176.59
-5130.43
6633.9
-4055.77
5169.44
-2540.8
3911.22
-694.29
2730.14
1177.17
1776.81
2434.07
1371.29
2207.98
1891.99
3144.91
-585.529
18428.1
-1325.97
17094.5
-1979.36
16637.5
-2716.6
15339.9
-3471.17
14861.4
-4251.57
13866.3
-5098.24
13331.3
-5975.65
12605.4
-6928.37
12077
-7918.96
11390.2
-8938.73
10498.7
-9885.81
9123.63
-10609.3
7357.39
-10935.3
5495.39
-10760.6
3736.54
-9993.82
1963.33
-8601.83
384.81
-6520.64
-709.908
-3456.7
-1171.96
-311.791
147.32
18280.8
-579.572
17821.3
-871.043
16929
-1091.3
15560.2
-1275.02
15045.1
-1409.8
14001.1
-1491.31
13412.8
-1487.91
12602
-1409.78
11998.9
-1287.32
11267.7
-1231.57
10442.9
-1405.99
9298.06
-1891.33
7842.76
-2575.84
6179.92
-3312.9
4473.64
-4060.75
2711.22
-4726.73
1050.82
-4869.58
-567.018
-3606.16
-2435.35
-3917.96
1088.45
17192.3
1130.37
17779.4
1507.92
16551.4
1868.29
15199.8
2415.68
14497.7
2927.7
13489
3559.79
12780.7
4237.3
11924.5
5053.54
11182.7
5949.18
10372
6806.86
9585.25
7400.64
8704.28
7546.89
7696.51
7164.08
6562.73
6298.07
5339.65
4999.42
4009.87
3467.28
2582.97
2006.54
893.741
615.812
-1044.61
-3302.14
1059.22
16133.1
1940.64
16898
2586.33
15905.8
2956.4
14829.7
3481.79
13972.4
3888.89
13081.9
4365.04
12304.6
4793.61
11495.9
5268.73
10707.6
5787.78
9853.03
6357.08
9015.99
6852.72
8208.67
7150.15
7399.11
7154.01
6558.89
6816.12
5677.57
6113.47
4712.55
5060.53
3635.94
3620.89
2333.42
1915.68
660.652
-1386.46
816.862
15316.3
1784.91
15930
2498
15192.7
2972.95
14354.8
3404.79
13540.5
3724.49
12762.2
3985.19
12043.9
4120.81
11360.3
4152.77
10675.6
4113.04
9892.78
4105.87
9023.15
4129.66
8184.9
4119.44
7409.34
4016.86
6661.48
3773.63
5920.8
3350.81
5135.37
2725.75
4261
1885.85
3173.32
906.148
1640.35
-480.316
844.993
14471.3
1812.02
14962.9
2762.75
14242
3633.82
13483.7
4410.18
12764.2
5047.93
12124.5
5519.24
11572.6
5780.5
11099.1
5815.01
10641.1
5626.48
10081.3
5270.45
9379.2
4831.47
8623.9
4362.13
7878.69
3877.12
7146.51
3372.13
6425.79
2826.09
5681.43
2204.5
4882.59
1470.39
3907.44
591.318
2519.42
111.002
1020.24
13451.1
2138.01
13845.2
3315.87
13064.1
4458.35
12341.3
5494.52
11728
6380.84
11238.2
7086.15
10867.3
7596.23
10589
7878.71
10358.6
7866.53
10093.5
7553.31
9692.42
7007.36
9169.87
6318.24
8567.81
5551.93
7912.84
4751.14
7226.58
3930.96
6501.61
3083.35
5730.21
2173.43
4817.35
1116.82
3576.01
1227.83
1074.09
12377
2182.13
12737.1
3264.28
11982
4260.5
11345
5139.52
10849
5894.16
10483.6
6534.9
10226.6
7080.22
10043.7
7495.03
9943.83
7691.57
9897.02
7588.65
9795.35
7214.33
9544.2
6637.79
9144.36
5921.63
8629.03
5114.57
8033.64
4242.66
7373.54
3318.79
6654.07
2328.13
5808.02
1233.21
4670.94
2461.04
924.913
11452.1
1838.13
11823.9
2630.06
11190
3296.05
10679.1
3855.2
10289.9
4331.97
10006.8
4753.63
9804.92
5139.26
9658.1
5474.21
9608.89
5716.92
9654.32
5761.36
9750.92
5591.73
9713.84
5250.71
9485.39
4779.7
9100.05
4208
8605.34
3546.63
8034.92
2803.71
7396.99
1972.28
6639.45
1051.32
5591.91
3512.36
679.459
10772.6
1343.64
11159.8
1851.68
10682
2238.12
10292.6
2547.51
9980.47
2812.97
9741.34
3050.75
9567.14
3264.22
9444.64
3459.74
9413.37
3632.47
9481.6
3719.32
9664.08
3682.27
9750.9
3539.15
9628.52
3309.65
9329.55
2999.99
8915.02
2602.24
8432.69
2110.8
7888.45
1516.58
7233.68
824.007
6284.5
4336.37
413.399
10359.2
837.297
10735.9
1119.64
10399.7
1312.3
10100
1462.01
9830.78
1600.1
9603.26
1744.98
9422.27
1891.7
9297.93
2030.74
9274.35
2158.83
9353.52
2241.41
9581.5
2265.55
9726.78
2243.97
9650.11
2176.74
9396.8
2051.13
9040.64
1847.76
8636.07
1551.89
8184.33
1152.04
7633.54
644.687
6791.86
4981.06
203.06
10156.2
449.397
10489.5
594.466
10254.6
686.089
10008.3
760.231
9756.64
842.384
9521.11
947.125
9317.54
1063.38
9181.68
1171.59
9166.15
1268.2
9256.91
1334.17
9515.54
1387.66
9673.29
1437.26
9600.51
1465.21
9368.86
1447.16
9058.7
1360.61
8722.62
1188.18
8356.77
919.15
7902.57
534.94
7176.08
5516
76.2862
10079.9
167.81
10398
200.824
10221.6
218.903
9990.25
245.949
9729.59
301.098
9465.95
393.996
9224.64
503.25
9072.42
607.154
9062.25
702.33
9161.74
780.233
9437.64
871.473
9582.05
974.055
9497.93
1059.51
9283.4
1100.74
9017.47
1078.06
8745.3
976.846
8457.98
787.079
8092.34
476.721
7486.44
5992.72
86.1142
9993.77
132.933
10351.2
199.573
10154.9
260.119
9929.7
321.447
9668.26
394.295
9393.1
475.887
9143.05
571.25
8977.05
657.507
8975.99
735.864
9083.38
808.831
9364.67
908.636
9482.24
1018.82
9387.74
1104.71
9197.52
1141.1
8981.07
1113.19
8773.21
1011.51
8559.67
826.404
8277.44
512.45
7800.39
6505.17
269.507
9724.25
-8.91742
10629.6
-128.287
10274.3
-165.118
9966.52
-149.256
9652.39
-90.2375
9334.06
55.3552
8997.44
212.604
8819.78
375.408
8813.17
547.734
8911.03
745.741
9166.66
937.482
9290.48
1090.34
9234.87
1187.18
9100.67
1218.64
8949.6
1177.39
8814.45
1063.81
8673.25
857.763
8483.47
524.667
8133.48
7029.83
978.507
1710.57
2419.62
3087.1
3685.64
4225.29
4514.96
4591.66
4609.98
4595.84
4595.14
4542.59
4391.81
4133
3766.98
3297.32
2725.57
2036.36
1181.31
)
;

boundaryField
{
    outletWall
    {
        type            calculated;
        value           nonuniform List<scalar> 
60
(
-8337.92
-21844.2
-43220.5
-43017.8
-36787.8
-19315.2
-30260.8
-55576.1
-76950.7
-67080.3
-54267.6
-39827.9
-20142.6
7343.75
35350.3
50324.9
51649.7
45718.7
43169.8
32083.9
31114.9
41919
49917.4
57826.1
61900.9
60979.5
58050.8
53265.8
46206.4
39234.8
42215.8
50120.9
51888.6
52203.8
51932.3
50136.7
46980.8
41396.3
35689.7
27633.8
-15444.8
-18133.2
-47411.8
-56742.9
-71680.9
-75563.8
-77388.4
-76392.1
-72372.9
-67545.9
-52872.6
-18653.6
18535.4
39213.2
46047.3
46019
44497.6
41823.9
44992.6
33446.4
)
;
    }
    fineWalls
    {
        type            calculated;
        value           uniform 0;
    }
    fineFrontAndBack
    {
        type            calculated;
        value           nonuniform List<scalar> 
960
(
2.15123e-14
-9.33487e-14
-4.63371e-16
2.85201e-14
1.9803e-13
9.78494e-14
3.56915e-14
1.49662e-13
-1.31424e-12
-6.53668e-13
-1.00552e-12
-4.20721e-12
-5.71998e-14
2.18301e-13
1.7069e-12
1.82032e-12
2.96681e-12
1.95676e-11
4.14873e-12
4.09187e-12
-2.65974e-12
-5.57832e-12
-7.43e-12
-9.02454e-12
-1.03986e-11
-1.15278e-11
-1.98486e-10
-1.32784e-11
-1.36096e-11
-1.40222e-11
-1.44035e-11
-1.45953e-11
-1.46456e-11
-1.48213e-11
-1.49404e-11
-1.50085e-11
-1.52857e-11
-1.55206e-11
-1.57097e-11
-1.66803e-11
-3.84304e-10
-5.35118e-11
-5.45145e-11
-5.67001e-11
-2.47109e-10
-1.70986e-11
-6.9677e-12
-1.6279e-12
7.32946e-12
-1.47089e-13
-9.56428e-12
-1.14328e-10
-9.43347e-12
-9.49986e-13
1.01801e-11
1.88767e-10
4.47366e-11
4.61279e-11
4.44973e-11
3.4409e-10
1.6122e-11
1.50213e-11
1.46108e-11
1.40845e-11
1.3668e-11
1.32843e-11
1.28235e-11
1.21939e-11
1.16571e-11
1.10428e-11
1.03758e-11
9.52574e-12
8.5071e-12
5.33659e-11
6.52024e-12
5.51439e-12
4.53817e-12
3.81641e-12
3.31176e-12
1.84267e-12
3.38324e-12
2.48084e-12
7.67803e-12
2.17495e-13
-1.09526e-12
-6.05494e-12
2.44135e-13
-6.06545e-13
-7.3849e-12
-1.36036e-12
-2.79082e-12
-1.77702e-11
-1.15839e-12
-6.58793e-13
-6.4135e-13
-2.9924e-12
-4.69005e-13
-1.31591e-13
1.67213e-12
2.34924e-13
-4.04342e-11
-2.70762e-11
-2.53954e-11
-4.45238e-11
-7.06783e-11
-8.01964e-11
-5.93656e-11
-2.98399e-11
-2.00031e-11
-1.63777e-11
-1.183e-11
-7.4321e-12
-3.96476e-12
-1.70327e-12
-6.68584e-13
-3.75951e-13
-1.93699e-13
-1.10514e-13
9.11792e-13
-5.23614e-11
-3.34415e-11
-4.42275e-11
-7.30793e-11
-9.86955e-11
-1.05872e-10
-8.74547e-11
-4.64161e-11
-1.36468e-11
-1.27158e-11
-1.17035e-11
-7.11731e-12
-3.56702e-12
-1.57536e-12
-6.81838e-13
-3.83418e-13
-2.29353e-13
-1.87278e-13
9.81396e-13
-5.26928e-11
-3.58481e-11
-5.3472e-11
-7.59524e-11
-8.88392e-11
-9.08166e-11
-8.47152e-11
-6.60127e-11
-2.88987e-11
-6.58806e-12
-8.76825e-12
-7.15858e-12
-3.38909e-12
-1.33943e-12
-8.15803e-13
-4.92488e-13
-1.4227e-13
-1.93651e-13
2.49542e-12
-5.19783e-11
-3.8286e-11
-5.69668e-11
-6.77389e-11
-6.73412e-11
-6.32099e-11
-6.21191e-11
-6.00694e-11
-4.19449e-11
-1.20426e-11
-5.70293e-12
-5.76092e-12
-2.5701e-12
6.15948e-12
1.93724e-11
1.63253e-12
-9.25067e-13
-7.20069e-13
1.1242e-12
-4.66444e-11
-3.1887e-11
-4.73305e-11
-5.09485e-11
-4.88615e-11
-4.99741e-11
-5.5766e-11
-5.40323e-11
-3.29232e-11
-3.45911e-12
8.41027e-12
-5.79986e-12
3.81068e-12
7.12725e-11
1.1144e-10
4.00567e-11
2.83796e-12
4.50269e-13
8.30775e-13
-3.90344e-11
-2.28486e-11
-3.69245e-11
-3.97131e-11
-4.45225e-11
-5.69396e-11
-6.38358e-11
-4.08735e-11
2.75055e-12
2.64375e-11
3.02368e-11
8.16379e-12
5.70137e-11
2.02225e-10
2.5618e-10
1.86248e-10
2.85819e-11
-8.408e-12
-3.64084e-12
-3.17078e-11
-1.29823e-11
-2.80239e-11
-3.70892e-11
-5.66203e-11
-7.93663e-11
-6.85742e-11
7.42183e-12
1.02004e-10
1.14058e-10
7.69555e-11
1.10827e-10
2.13631e-10
3.6919e-10
4.1712e-10
3.50713e-10
1.77442e-10
2.73722e-11
-1.21376e-10
-2.9211e-11
-9.00473e-12
-2.86127e-11
-5.06357e-11
-8.62513e-11
-1.07485e-10
-6.09841e-11
8.15566e-11
2.67561e-10
3.79303e-10
3.61665e-10
3.49085e-10
4.27994e-10
4.94408e-10
4.9438e-10
4.5596e-10
4.00934e-10
3.55203e-10
4.05474e-10
-1.47499e-11
4.69209e-12
-3.12864e-11
-7.44978e-11
-1.19574e-10
-1.28295e-10
-5.5558e-11
1.02166e-10
3.0016e-10
4.75841e-10
5.57212e-10
5.47776e-10
5.04595e-10
4.19645e-10
3.61019e-10
3.732e-10
4.32704e-10
4.80073e-10
4.63465e-10
-3.05786e-11
-1.57634e-11
-4.18152e-11
-8.83316e-11
-1.33457e-10
-1.42854e-10
-8.62122e-11
2.96139e-11
1.43805e-10
2.49147e-10
2.89608e-10
2.20482e-10
5.30886e-11
-8.26346e-11
-8.71581e-11
1.02537e-11
8.86079e-11
1.92142e-10
1.78529e-10
1.14601e-11
-1.33932e-11
-2.68133e-11
-4.38326e-11
-5.78786e-11
-6.46448e-11
-7.23263e-11
-9.01149e-11
-9.66712e-11
-1.25945e-10
-1.90165e-10
-3.1005e-10
-4.4499e-10
-4.90943e-10
-4.64137e-10
-4.24564e-10
-4.00464e-10
-3.65865e-10
-2.99498e-10
8.49727e-12
2.15423e-12
-9.01768e-12
-1.84208e-11
-2.69835e-11
-3.82956e-11
-6.24924e-11
-1.17824e-10
-2.15091e-10
-3.44476e-10
-4.73428e-10
-5.58805e-10
-5.60906e-10
-5.30255e-10
-5.22921e-10
-5.5904e-10
-6.07319e-10
-6.28268e-10
-5.89907e-10
2.13651e-11
1.7801e-11
4.83949e-12
-5.03807e-12
-1.20623e-11
-1.71391e-11
-2.99707e-11
-8.56039e-11
-2.10102e-10
-3.674e-10
-4.739e-10
-4.58695e-10
-3.64002e-10
-2.89554e-10
-2.73659e-10
-3.33525e-10
-3.94679e-10
-4.31956e-10
-5.198e-10
2.94864e-11
3.28945e-11
1.81043e-11
3.28703e-12
-5.29917e-12
-5.90451e-12
-4.36735e-12
-3.68605e-11
-1.37102e-10
-2.61741e-10
-3.02197e-10
-2.23628e-10
-1.50863e-10
-1.1112e-10
-8.651e-11
-8.75086e-11
-7.15109e-11
-6.09308e-12
1.28011e-11
3.71833e-11
4.94784e-11
3.85909e-11
1.74027e-11
1.45766e-12
-2.17584e-12
5.31632e-12
-2.12476e-12
-6.05462e-11
-1.38051e-10
-1.3444e-10
-6.81024e-11
-2.46664e-11
-2.29983e-11
-1.50278e-11
-1.3972e-11
-1.19479e-11
-1.82366e-12
-6.15719e-12
4.01094e-11
6.23156e-11
6.38838e-11
4.66856e-11
2.29219e-11
8.01921e-12
9.00201e-12
1.35071e-11
-7.66698e-12
-3.84209e-11
-1.33792e-11
7.30176e-12
1.50465e-11
4.3702e-12
9.26366e-13
-1.58697e-12
-2.99499e-12
-9.69997e-13
-3.14403e-12
3.45743e-11
6.34152e-11
7.96949e-11
8.00895e-11
6.31083e-11
4.16872e-11
3.0252e-11
3.1206e-11
2.93116e-11
2.04554e-11
1.86683e-11
1.43856e-11
1.24006e-11
8.97134e-12
4.32447e-12
7.6699e-13
-8.90228e-13
-6.9836e-13
2.71341e-13
2.38758e-11
5.01065e-11
7.51193e-11
9.36227e-11
9.80357e-11
8.95455e-11
7.80219e-11
7.12959e-11
6.18678e-11
3.42155e-11
1.28476e-11
1.42771e-11
1.33385e-11
8.859e-12
5.02466e-12
1.08743e-12
-7.62635e-13
-5.71038e-13
-2.6226e-13
1.51784e-11
3.36961e-11
5.95804e-11
8.88841e-11
1.11989e-10
1.22215e-10
1.18582e-10
1.00938e-10
6.41938e-11
1.99244e-11
1.505e-11
1.74442e-11
1.36231e-11
9.23502e-12
5.18347e-12
1.02005e-12
-8.56088e-13
-4.71801e-13
-5.17842e-13
7.91614e-12
1.53183e-11
2.97842e-11
5.36628e-11
8.16936e-11
1.02071e-10
1.02396e-10
7.7267e-11
3.8086e-11
1.96788e-11
1.81654e-11
1.73622e-11
1.37099e-11
9.46403e-12
5.25469e-12
9.70181e-13
-8.9044e-13
-4.1048e-13
-3.70141e-13
-2.15123e-14
9.33487e-14
4.63371e-16
-2.85201e-14
-1.9803e-13
-9.78494e-14
-3.56915e-14
-1.49662e-13
1.31424e-12
6.53668e-13
1.00552e-12
4.20721e-12
5.71998e-14
-2.18301e-13
-1.7069e-12
-1.82032e-12
-2.96681e-12
-1.95676e-11
-4.14873e-12
-4.09187e-12
2.65974e-12
5.57832e-12
7.43e-12
9.02454e-12
1.03986e-11
1.15278e-11
1.98486e-10
1.32784e-11
1.36096e-11
1.40222e-11
1.44035e-11
1.45953e-11
1.46456e-11
1.48213e-11
1.49404e-11
1.50085e-11
1.52857e-11
1.55206e-11
1.57097e-11
1.66803e-11
3.84304e-10
5.35118e-11
5.45145e-11
5.67001e-11
2.47109e-10
1.70986e-11
6.9677e-12
1.6279e-12
-7.32946e-12
1.47089e-13
9.56428e-12
1.14328e-10
9.43347e-12
9.49986e-13
-1.01801e-11
-1.88767e-10
-4.47366e-11
-4.61279e-11
-4.44973e-11
-3.4409e-10
-1.6122e-11
-1.50213e-11
-1.46108e-11
-1.40845e-11
-1.3668e-11
-1.32843e-11
-1.28235e-11
-1.21939e-11
-1.16571e-11
-1.10428e-11
-1.03758e-11
-9.52574e-12
-8.5071e-12
-5.33659e-11
-6.52024e-12
-5.51439e-12
-4.53817e-12
-3.81641e-12
-3.31176e-12
-1.84267e-12
-3.38324e-12
-2.48084e-12
-7.67803e-12
-2.17495e-13
1.09526e-12
6.05494e-12
-2.44135e-13
6.06545e-13
7.3849e-12
1.36036e-12
2.79082e-12
1.77702e-11
1.15839e-12
6.58793e-13
6.4135e-13
2.9924e-12
4.69005e-13
1.31591e-13
-1.67213e-12
-2.34924e-13
4.04342e-11
2.70762e-11
2.53954e-11
4.45238e-11
7.06783e-11
8.01964e-11
5.93656e-11
2.98399e-11
2.00031e-11
1.63777e-11
1.183e-11
7.4321e-12
3.96476e-12
1.70327e-12
6.68584e-13
3.75951e-13
1.93699e-13
1.10514e-13
-9.11792e-13
5.23614e-11
3.34415e-11
4.42275e-11
7.30793e-11
9.86955e-11
1.05872e-10
8.74547e-11
4.64161e-11
1.36468e-11
1.27158e-11
1.17035e-11
7.11731e-12
3.56702e-12
1.57536e-12
6.81838e-13
3.83418e-13
2.29353e-13
1.87278e-13
-9.81396e-13
5.26928e-11
3.58481e-11
5.3472e-11
7.59524e-11
8.88392e-11
9.08166e-11
8.47152e-11
6.60127e-11
2.88987e-11
6.58806e-12
8.76825e-12
7.15858e-12
3.38909e-12
1.33943e-12
8.15803e-13
4.92488e-13
1.4227e-13
1.93651e-13
-2.49542e-12
5.19783e-11
3.8286e-11
5.69668e-11
6.77389e-11
6.73412e-11
6.32099e-11
6.21191e-11
6.00694e-11
4.19449e-11
1.20426e-11
5.70293e-12
5.76092e-12
2.5701e-12
-6.15948e-12
-1.93724e-11
-1.63253e-12
9.25067e-13
7.20069e-13
-1.1242e-12
4.66444e-11
3.1887e-11
4.73305e-11
5.09485e-11
4.88615e-11
4.99741e-11
5.5766e-11
5.40323e-11
3.29232e-11
3.45911e-12
-8.41027e-12
5.79986e-12
-3.81068e-12
-7.12725e-11
-1.1144e-10
-4.00567e-11
-2.83796e-12
-4.50269e-13
-8.30775e-13
3.90344e-11
2.28486e-11
3.69245e-11
3.97131e-11
4.45225e-11
5.69396e-11
6.38358e-11
4.08735e-11
-2.75055e-12
-2.64375e-11
-3.02368e-11
-8.16379e-12
-5.70137e-11
-2.02225e-10
-2.5618e-10
-1.86248e-10
-2.85819e-11
8.408e-12
3.64084e-12
3.17078e-11
1.29823e-11
2.80239e-11
3.70892e-11
5.66203e-11
7.93663e-11
6.85742e-11
-7.42183e-12
-1.02004e-10
-1.14058e-10