/*--------------------------------*- C++ -*----------------------------------*\
| =========                 |                                                 |
| \\      /  F ield         | OpenFOAM: The Open Source CFD Toolbox           |
|  \\    /   O peration     | Version:  4.1                                   |
|   \\  /    A nd           | Web:      www.OpenFOAM.org                      |
|    \\/     M anipulation  |                                                 |
\*---------------------------------------------------------------------------*/
FoamFile
{
    version     2.0;
    format      ascii;
    class       volVectorField;
    location    "6";
    object      U;
}
// * * * * * * * * * * * * * * * * * * * * * * * * * * * * * * * * * * * * * //

dimensions      [0 1 -1 0 0 0 0];

internalField   nonuniform List<vector> 
1280
(
(1.55464e-17 5.04793 0.138888)
(-1.58655e-17 6.43362 -1.92687)
(1.96445e-18 6.61372 -1.68005)
(2.06108e-17 6.92234 -1.5691)
(3.36571e-17 8.94235 -4.19834)
(7.28864e-17 8.38081 -3.44422)
(2.57933e-17 9.63921 -3.54425)
(1.08156e-16 9.45102 -3.38386)
(-2.78155e-16 12.2911 -6.51123)
(-4.72389e-16 11.8504 -5.03625)
(-7.2666e-16 12.8724 -4.59503)
(-6.73415e-16 16.1093 -8.96857)
(-6.53142e-17 15.4584 -7.08685)
(1.5776e-16 17.0046 -6.59944)
(1.71409e-16 21.004 -11.6882)
(1.3155e-15 19.8124 -8.96187)
(2.14404e-15 22.5918 -8.50011)
(3.3257e-15 21.8363 -14.9913)
(2.95668e-15 29.7284 -11.1361)
(2.95709e-15 20.5472 -14.7145)
(-1.09118e-14 27.4809 43.3371)
(-2.28854e-14 28.2922 57.7409)
(-3.04821e-14 30.3584 63.1327)
(-3.70238e-14 32.4564 66.2548)
(-4.2661e-14 33.2758 69.0475)
(-4.72936e-14 35.8771 72.4234)
(-4.18417e-14 35.8063 51.8438)
(-5.44756e-14 66.6388 104.462)
(-5.58342e-14 68.2917 109.749)
(-5.75271e-14 69.6356 115.025)
(-5.90913e-14 70.567 120.282)
(-5.9878e-14 71.2979 125.595)
(-6.00844e-14 71.8111 130.871)
(-6.08053e-14 72.0324 135.955)
(-6.12938e-14 72.1497 140.713)
(-6.15735e-14 71.8379 145.017)
(-6.27104e-14 71.7589 148.867)
(-6.36741e-14 70.8134 151.825)
(-6.44502e-14 71.0164 154.762)
(-6.84321e-14 69.2965 154.194)
(-6.68937e-14 85.42 157.463)
(-4.29814e-14 44.2908 103.202)
(-4.37867e-14 31.653 100)
(-4.58344e-14 21.0678 92.1076)
(-4.3245e-14 6.68863 58.927)
(-1.37338e-14 0.367232 11.1367)
(-5.59654e-15 -1.3705 -3.46004)
(-1.30755e-15 0.766608 -13.3894)
(-7.48076e-16 -0.244154 -32.6971)
(1.95823e-16 -1.35289 -21.5987)
(-7.51253e-15 1.55132 -21.2308)
(-1.99004e-14 0.398882 -30.8611)
(-7.57708e-15 -0.765384 -12.0926)
(-7.63041e-16 1.19153 -2.46131)
(8.17682e-15 -0.581742 11.5995)
(3.28576e-14 -6.78017 56.8011)
(3.56463e-14 -20.0241 89.3339)
(3.70506e-14 -30.576 99.03)
(3.57408e-14 -43.083 102.723)
(5.75207e-14 -83.9605 157.884)
(6.61415e-14 -68.2241 156.652)
(6.16256e-14 -69.724 157.321)
(5.99418e-14 -69.3596 154.492)
(5.77824e-14 -70.1656 151.764)
(5.60739e-14 -70.0527 148.253)
(5.44999e-14 -70.2421 144.45)
(5.26092e-14 -69.9565 140.346)
(5.00261e-14 -69.6098 135.789)
(4.7824e-14 -68.9263 130.49)
(4.53039e-14 -67.973 124.194)
(4.25672e-14 -66.7422 117.454)
(3.908e-14 -65.3351 110.613)
(3.49009e-14 -63.1419 103.266)
(1.12497e-14 -31.5577 46.7713)
(2.67497e-14 -30.9382 69.8096)
(2.26232e-14 -28.5376 65.6468)
(1.86181e-14 -28.1199 61.242)
(1.56571e-14 -26.6932 56.0436)
(1.35867e-14 -24.9958 49.2878)
(7.55969e-15 -24.564 37.7686)
(2.44498e-15 -17.469 -13.7274)
(1.7567e-15 -26.4084 -12.5783)
(1.30495e-15 -17.3193 -16.2098)
(1.57178e-16 -19.2247 -8.7267)
(-7.91516e-16 -16.1527 -9.61369)
(-9.74256e-16 -17.651 -11.7393)
(1.7643e-16 -13.9624 -6.9311)
(-4.38334e-16 -12.4466 -7.44997)
(-1.66793e-15 -13.141 -9.04978)
(-9.83096e-16 -9.98052 -4.51924)
(-1.94757e-15 -9.12174 -4.98434)
(-3.58855e-15 -9.54491 -6.31452)
(-9.31241e-16 -7.06139 -3.55648)
(-4.76093e-16 -7.10132 -3.86068)
(-4.63487e-16 -5.9342 -3.76866)
(-5.08586e-16 -6.62527 -4.52784)
(-3.38938e-16 -4.49474 -2.04212)
(-9.50971e-17 -4.24244 -2.18723)
(3.19094e-16 -4.18341 -2.33682)
(1.69774e-16 -2.66722 0.0241476)
(-4.49269e-15 10.6183 23.0864)
(-3.00847e-15 14.1867 30.3916)
(-2.82171e-15 14.941 39.957)
(-4.94709e-15 16.8309 53.0948)
(-7.85314e-15 16.534 65.031)
(-8.91072e-15 12.0156 67.4401)
(-6.59617e-15 2.88877 53.7925)
(-3.31555e-15 -6.48635 34.6262)
(-2.22257e-15 -12.7481 27.1145)
(-1.81974e-15 -17.6667 23.5465)
(-1.31444e-15 -21.9973 19.1975)
(-8.25789e-16 -25.454 15.2214)
(-4.40529e-16 -18.5563 10.938)
(-1.89252e-16 -10.2742 5.39379)
(-7.42871e-17 -6.63444 0.0267989)
(-4.17724e-17 -12.1784 -3.77509)
(-2.15222e-17 -14.1974 -6.78376)
(-1.22794e-17 -14.271 -6.783)
(1.0131e-16 -7.23016 -6.89699)
(-5.81793e-15 7.88161 29.9032)
(-3.71572e-15 8.13915 40.9795)
(-4.91417e-15 6.82369 52.7695)
(-8.11992e-15 8.16374 66.3122)
(-1.09662e-14 11.6928 77.2464)
(-1.17636e-14 15.6713 80.8105)
(-9.71719e-15 14.4113 70.4842)
(-5.15735e-15 3.40775 44.052)
(-1.51631e-15 -10.1432 21.5999)
(-1.41287e-15 -16.0386 21.0504)
(-1.30039e-15 -20.0533 19.5322)
(-7.90813e-16 -23.1211 15.9512)
(-3.96336e-16 -14.8847 11.4327)
(-1.7504e-16 -5.97916 3.81739)
(-7.57598e-17 -3.0387 -2.71173)
(-4.2602e-17 -10.0392 -5.48435)
(-2.54836e-17 -13.5568 -7.89109)
(-2.08087e-17 -14.7675 -7.22543)
(1.09044e-16 -9.38578 -6.97724)
(-5.85475e-15 5.79868 34.7458)
(-3.98312e-15 4.82976 46.8592)
(-5.94134e-15 4.10635 56.2889)
(-8.43916e-15 6.17213 64.4285)
(-9.87102e-15 10.1398 69.2052)
(-1.00907e-14 15.1994 71.5109)
(-9.4128e-15 18.5065 69.7832)
(-7.33474e-15 13.9833 57.6551)
(-3.21096e-15 -3.20914 30.1909)
(-7.32007e-16 -15.8606 14.7089)
(-9.7425e-16 -18.6638 17.8525)
(-7.95398e-16 -21.5096 18.0856)
(-3.76565e-16 -12.5918 13.0116)
(-1.48826e-16 -3.4702 2.03359)
(-9.06448e-17 -1.92548 -6.75991)
(-5.47209e-17 -9.3831 -8.6354)
(-1.58078e-17 -13.0772 -10.3345)
(-2.15167e-17 -14.1956 -8.59458)
(2.77269e-16 -7.74751 -7.51901)
(-5.77536e-15 2.72528 39.4458)
(-4.254e-15 0.0183086 50.6703)
(-6.32964e-15 0.151187 55.9407)
(-7.52655e-15 3.66927 58.3532)
(-7.48236e-15 9.21737 57.2365)
(-7.02333e-15 15.2379 55.4678)
(-6.90212e-15 19.592 54.75)
(-6.67437e-15 19.0642 54.4057)
(-4.66055e-15 7.75463 44.6162)
(-1.33807e-15 -11.1227 19.1419)
(-6.33659e-16 -22.5544 11.5825)
(-6.40103e-16 -22.3419 18.7843)
(-2.85567e-16 -8.55087 15.9015)
(6.84387e-16 1.30648 0.877989)
(2.15249e-15 0.156814 -8.27537)
(1.81392e-16 -8.76122 -12.0573)
(-1.02785e-16 -14.0316 -13.1312)
(-8.00077e-17 -16.9062 -10.0455)
(1.24911e-16 -11.6787 -9.73347)
(-5.18271e-15 0.819687 42.0865)
(-3.54299e-15 -1.57372 49.6796)
(-5.25895e-15 0.496869 51.2958)
(-5.66095e-15 5.18618 50.9843)
(-5.42905e-15 10.9014 48.1737)
(-5.55268e-15 16.1397 45.6553)
(-6.19622e-15 19.0659 45.549)
(-6.00359e-15 18.0636 49.3136)
(-3.65813e-15 10.2326 52.6139)
(-3.84345e-16 -4.88804 43.4644)
(9.34474e-16 -16.957 31.3119)
(-6.44429e-16 -22.8196 17.2562)
(4.23409e-16 -4.84674 20.088)
(7.91917e-15 6.3478 8.97705)
(1.23823e-14 3.87367 2.03268)
(4.45074e-15 -7.12989 -11.013)
(3.15329e-16 -12.9354 -16.7112)
(5.00299e-17 -14.0191 -13.0463)
(9.23083e-17 -4.40763 -10.6824)
(-4.33716e-15 -0.767575 43.5172)
(-2.53874e-15 -3.23112 48.5856)
(-4.10272e-15 -0.244881 48.7676)
(-4.41256e-15 5.33715 47.2936)
(-4.94695e-15 11.5875 44.4557)
(-6.32662e-15 16.337 44.0565)
(-7.09287e-15 18.1059 47.6162)
(-4.5415e-15 16.4554 53.8508)
(3.05617e-16 10.3168 57.8416)
(2.9375e-15 -0.278451 53.6013)
(3.35964e-15 -11.562 48.194)
(9.07088e-16 -19.6577 30.0956)
(6.33486e-15 -3.83793 26.0231)
(2.24695e-14 7.87604 26.9977)
(2.84644e-14 7.71643 22.5275)
(2.06942e-14 -1.80008 8.1593)
(3.17576e-15 -14.5712 -16.3052)
(-9.34223e-16 -23.4359 -15.2823)
(-4.04538e-16 -17.6812 -18.6593)
(-3.52308e-15 -1.56328 43.6535)
(-1.44248e-15 -3.54348 46.4393)
(-3.11376e-15 0.694906 45.4283)
(-4.12102e-15 6.72062 43.7467)
(-6.29115e-15 12.0054 43.5917)
(-8.81848e-15 14.8209 48.2973)
(-7.61935e-15 15.2006 57.4748)
(8.24648e-16 14.0334 67.669)
(1.13337e-14 9.65141 73.3295)
(1.26731e-14 -0.557137 69.5345)
(8.55061e-15 -9.10288 61.5716)
(1.23141e-14 -13.9269 49.8587)
(2.37368e-14 -3.65588 44.2678)
(4.10211e-14 7.00441 51.3876)
(4.63467e-14 11.1493 52.7002)
(3.89681e-14 8.73365 44.0776)
(1.97158e-14 0.45803 15.1215)
(3.04135e-15 -3.79203 -12.9982)
(-1.34862e-14 6.64538 -42.9277)
(-3.24567e-15 -2.11392 43.2942)
(-1.00053e-15 -3.7273 43.5494)
(-3.17919e-15 0.851834 42.4965)
(-5.62619e-15 6.21622 43.6217)
(-9.58348e-15 9.84116 48.4106)
(-1.19427e-14 10.7903 58.0514)
(-6.77601e-15 10.3157 70.6293)
(9.06185e-15 10.1 83.113)
(2.9729e-14 9.02863 92.2376)
(4.21448e-14 3.65904 93.99)
(4.0185e-14 -4.4911 87.5514)
(3.87872e-14 -10.7061 77.1204)
(4.75549e-14 -4.04567 73.0424)
(5.49343e-14 4.94582 78.947)
(5.49311e-14 10.6254 84.4499)
(5.06622e-14 11.2961 88.488)
(4.45482e-14 3.8616 89.2163)
(3.9467e-14 -14.1249 89.2882)
(4.50527e-14 -52.1081 113.473)
(-1.63888e-15 -1.70013 41.752)
(5.21343e-16 -3.17654 41.229)
(-3.47627e-15 0.506986 42.0592)
(-8.27753e-15 4.34602 47.1406)
(-1.3286e-14 6.19636 55.9167)
(-1.4255e-14 5.94344 67.3909)
(-6.17311e-15 5.27194 79.0698)
(1.13517e-14 5.55935 89.6906)
(3.33511e-14 5.49771 99.531)
(5.28712e-14 2.44432 107.492)
(6.19124e-14 -3.133 109.584)
(6.0864e-14 -8.35028 103.935)
(5.60662e-14 -4.51061 99.0789)
(4.66273e-14 2.78281 98.9018)
(4.01132e-14 7.86165 100.838)
(4.14666e-14 7.86395 104.353)
(4.80782e-14 1.5641 109.275)
(5.33415e-14 -10.5179 108.543)
(5.14962e-14 -25.4908 95.7538)
(-3.39762e-15 -1.9592 35.064)
(-1.75149e-15 -3.77536 35.0425)
(-4.64613e-15 -1.59774 40.2503)
(-9.81462e-15 0.780396 49.6133)
(-1.48285e-14 1.76133 60.8709)
(-1.58727e-14 1.51801 71.8109)
(-9.72256e-15 1.37568 80.8106)
(3.29044e-15 1.87666 88.703)
(1.59783e-14 1.74545 97.3954)
(2.7683e-14 -0.308203 106.767)
(3.21787e-14 -3.48862 112.922)
(2.42688e-14 -6.04188 111.688)
(5.89873e-15 -2.2912 106.556)
(-9.18162e-15 3.77483 103.171)
(-1.05335e-14 7.98734 101.587)
(1.1393e-15 7.8959 99.8615)
(9.84532e-15 2.50778 94.6869)
(2.13491e-14 -6.75863 76.4193)
(1.98366e-14 -16.6536 39.1138)
(1.27334e-15 -1.59335 32.4856)
(-1.48813e-15 -5.20317 26.446)
(-2.97926e-15 -5.47677 32.1603)
(-4.87029e-15 -3.90584 43.7897)
(-6.43095e-15 -2.71344 57.6141)
(-7.18276e-15 -2.03221 69.6294)
(-7.6794e-15 -1.46155 78.6044)
(-1.00128e-14 -1.00233 86.1923)
(-1.07412e-14 -1.64738 94.5854)
(-1.39938e-14 -3.58779 104.211)
(-2.11294e-14 -5.37601 111.986)
(-3.445e-14 -5.57276 113.575)
(-4.94433e-14 -1.03078 110.106)
(-5.45492e-14 5.03957 106.419)
(-5.15708e-14 9.71003 104.126)
(-4.71738e-14 10.9341 103.289)
(-4.4496e-14 9.95564 99.7846)
(-4.06517e-14 10.8906 80.2387)
(-3.32776e-14 17.021 39.4292)
(9.44141e-16 0.889057 38.4014)
(2.39359e-16 -3.81045 27.3549)
(-1.00196e-15 -8.52017 25.3841)
(-2.04676e-15 -9.27852 33.4252)
(-2.99817e-15 -8.49557 46.817)
(-4.25506e-15 -6.86956 61.1385)
(-6.9436e-15 -5.27397 73.1918)
(-1.30915e-14 -4.52261 83.2269)
(-2.3899e-14 -5.45532 93.0065)
(-3.82751e-14 -7.21606 103.207)
(-5.26031e-14 -7.41737 110.179)
(-6.20894e-14 -5.05583 108.247)
(-6.23229e-14 0.796714 98.5369)
(-5.89173e-14 6.09036 89.6184)
(-5.81024e-14 8.7886 88.0181)
(-6.21155e-14 9.56535 95.7383)
(-6.74799e-14 11.3813 108.464)
(-6.98076e-14 17.4294 113.435)
(-6.55453e-14 28.6946 100.567)
(2.37391e-15 2.97967 44.4305)
(1.97789e-15 -0.0152782 37.3917)
(5.37721e-16 -7.86712 27.8715)
(-5.59786e-16 -12.3838 27.7263)
(-1.34026e-15 -13.8248 35.7509)
(-1.90435e-15 -12.5996 49.2981)
(-3.33007e-15 -10.3348 63.6777)
(-9.51154e-15 -8.94314 76.5161)
(-2.33447e-14 -9.6391 87.9272)
(-4.08222e-14 -10.4734 97.6651)
(-5.26556e-14 -7.5424 99.8536)
(-5.09662e-14 -0.987769 88.6636)
(-4.04447e-14 6.0223 71.622)
(-3.21727e-14 9.05033 57.9022)
(-3.04065e-14 7.39032 50.0088)
(-3.70583e-14 2.71487 51.1551)
(-4.38532e-14 1.77256 61.5904)
(-4.79951e-14 14.3947 79.6024)
(-5.77555e-14 53.356 112.354)
(3.27627e-15 3.57592 48.5294)
(3.65494e-15 2.97179 47.7177)
(2.01159e-15 -5.01983 37.8549)
(3.65226e-16 -12.3823 30.9789)
(-5.88796e-16 -17.1147 30.7008)
(-6.56057e-16 -18.0021 38.7718)
(-4.85261e-16 -16.1389 51.9394)
(-4.09561e-15 -14.1298 66.039)
(-1.52335e-14 -13.7799 78.3432)
(-2.90823e-14 -11.9375 86.1371)
(-3.35774e-14 -3.80889 80.9976)
(-2.48476e-14 6.58365 61.4676)
(-1.67625e-14 13.056 43.8466)
(-1.23467e-14 14.4414 33.921)
(-9.61222e-15 11.7881 24.8771)
(-9.72318e-15 6.34883 13.9905)
(-7.94565e-15 2.44174 -2.81179)
(-6.77009e-16 -0.0782609 -15.3742)
(1.42234e-15 -5.77237 -35.0679)
(4.13148e-15 3.09792 51.0788)
(5.4976e-15 4.50658 55.8494)
(4.28788e-15 -1.2439 49.9089)
(1.93364e-15 -9.35192 41.1591)
(1.61962e-16 -16.8802 34.1854)
(-2.41761e-16 -21.0525 34.3354)
(5.90703e-16 -21.2918 42.0827)
(-2.36085e-16 -19.5117 54.4656)
(-6.72736e-15 -17.6445 66.838)
(-1.5339e-14 -11.7356 72.1517)
(-1.49378e-14 1.85675 58.2286)
(-7.56694e-15 13.7572 35.246)
(-2.74072e-15 17.7036 21.0817)
(-2.55537e-15 16.8317 18.1277)
(-1.66975e-15 15.3242 12.4874)
(-1.55244e-15 12.2098 4.3417)
(-1.32754e-15 10.3532 -6.60898)
(-2.02629e-16 15.5018 -11.8107)
(-6.84132e-16 14.538 -19.8441)
(4.4566e-15 1.25123 51.9576)
(6.92395e-15 3.50903 61.622)
(7.09819e-15 0.512202 61.0131)
(5.18729e-15 -6.29825 54.8965)
(2.54688e-15 -14.5349 45.0764)
(8.91023e-16 -21.1793 38.2572)
(1.00022e-15 -24.1658 38.2395)
(1.50079e-15 -23.862 45.6687)
(-8.51886e-16 -20.6975 56.3201)
(-4.26899e-15 -8.62773 56.6353)
(-1.48658e-15 11.3031 32.1182)
(8.11307e-16 21.1162 14.6821)
(1.67183e-15 19.6031 11.8735)
(4.85578e-16 17.5549 11.0442)
(1.0293e-16 17.3346 6.89947)
(-1.7633e-16 14.8921 1.26789)
(-3.32777e-16 11.6688 -7.21711)
(-1.07777e-16 12.3665 -11.4966)
(-3.49337e-16 5.40806 -14.0276)
(3.84159e-15 -1.25354 48.6018)
(7.04613e-15 1.45507 62.5389)
(8.85498e-15 1.53915 67.9206)
(8.89883e-15 -2.63373 68.4816)
(7.01203e-15 -10.0239 61.5941)
(4.63191e-15 -18.2538 52.3838)
(3.36133e-15 -24.4063 46.1885)
(3.46734e-15 -26.8032 47.0796)
(3.25684e-15 -22.1874 51.6981)
(2.27282e-15 -2.4587 40.9782)
(2.07425e-15 18.4859 14.5609)
(1.5984e-15 22.6741 12.3436)
(1.37785e-15 19.3749 14.0503)
(9.96815e-16 18.9365 8.94783)
(4.80497e-16 19.1949 4.36909)
(8.52211e-17 17.5816 -0.228707)
(-9.89142e-17 14.6478 -7.70601)
(-7.75955e-17 15.4447 -10.4931)
(3.0149e-17 9.94885 -11.6087)
(2.65287e-15 -5.05223 41.9442)
(5.56739e-15 -4.00996 57.0521)
(8.34658e-15 -2.4534 67.149)
(1.04025e-14 -4.204 74.7968)
(1.08929e-14 -8.53102 76.0041)
(9.9495e-15 -15.0521 72.2284)
(8.6691e-15 -21.7886 66.761)
(7.92176e-15 -25.6124 62.2289)
(6.8742e-15 -18.2735 52.611)
(3.80172e-15 6.8092 24.6753)
(1.42751e-15 21.9665 11.3869)
(1.58635e-15 21.4613 16.4306)
(1.48206e-15 20.703 12.9367)
(9.84333e-16 21.2172 7.54895)
(5.58296e-16 21.004 2.76894)
(1.20825e-16 19.7511 -1.5709)
(-8.47372e-17 16.3144 -7.75645)
(-6.34486e-17 14.7374 -8.93693)
(-2.914e-17 7.21392 -9.41612)
(1.68649e-15 -7.69697 35.1542)
(3.74402e-15 -7.92638 48.938)
(6.62004e-15 -5.19763 61.5682)
(9.87601e-15 -5.44978 75.05)
(1.24432e-14 -8.48411 84.8389)
(1.35795e-14 -14.62 88.7281)
(1.31758e-14 -21.1459 84.8331)
(1.12154e-14 -21.8583 70.8416)
(7.13265e-15 -7.7336 42.7599)
(2.21382e-15 14.3515 14.5555)
(1.67223e-15 21.8746 15.7729)
(1.93825e-15 22.0746 16.0829)
(1.51368e-15 22.6825 11.0802)
(1.02611e-15 22.855 6.48946)
(5.75941e-16 22.5746 1.88327)
(1.13339e-16 21.4754 -1.90695)
(-9.51209e-17 17.3686 -6.47824)
(-5.24224e-17 15.3155 -7.09844)
(-5.7538e-17 7.80762 -8.16523)
(8.79571e-16 -11.0654 26.0074)
(1.70203e-15 -14.7952 34.8981)
(3.30935e-15 -13.6579 45.042)
(5.96253e-15 -14.432 58.3669)
(9.07707e-15 -14.9385 71.0441)
(1.13412e-14 -15.2134 78.0732)
(1.13774e-14 -13.4935 73.7372)
(8.58522e-15 -7.01403 55.1028)
(4.23178e-15 5.8779 28.9417)
(2.18654e-15 16.9021 18.4988)
(2.01838e-15 22.1736 17.2804)
(1.92914e-15 23.8792 14.9361)
(1.52332e-15 25.2057 10.6384)
(1.05156e-15 25.5899 6.0836)
(5.83854e-16 25.0809 1.55277)
(1.07798e-16 23.8124 -1.67872)
(-9.89378e-17 18.8909 -5.64433)
(-4.56089e-17 15.7535 -6.04907)
(-4.11268e-17 6.13049 -7.55185)
(-3.4271e-16 99.8566 170.206)
(-4.58799e-14 125.62 210.757)
(-4.45357e-14 118.54 194.876)
(-4.26145e-14 111.16 178.492)
(-4.19864e-14 106.772 167.432)
(-5.95094e-14 103.719 158.551)
(-6.00002e-14 99.9571 149.181)
(-5.3159e-14 97.5082 143.85)
(-4.95647e-14 95.4533 139.428)
(-5.0945e-14 93.5246 135.979)
(-5.29598e-14 91.7937 133.468)
(-5.41938e-14 90.2561 131.659)
(-5.36082e-14 88.7176 130.315)
(-5.52775e-14 87.1151 129.228)
(-5.53861e-14 85.3601 128.22)
(-5.64998e-14 83.3131 127.205)
(-5.84454e-14 81.0947 125.88)
(-5.8196e-14 77.7989 123.978)
(-6.09625e-14 74.2209 119.885)
(-7.10281e-14 60.8782 104.836)
(-1.33795e-15 100.587 170.185)
(-4.43448e-14 111.871 192.734)
(-3.77755e-14 105.809 180.931)
(-3.59917e-14 101.917 172.974)
(-3.60687e-14 99.3323 166.255)
(-5.89905e-14 96.3625 159.047)
(-5.09103e-14 92.9981 151.499)
(-4.32735e-14 89.4335 143.689)
(-4.4917e-14 86.0668 137.022)
(-5.04252e-14 83.3876 131.799)
(-5.22983e-14 81.2195 127.93)
(-5.24712e-14 79.4672 125.003)
(-5.08369e-14 77.8527 122.668)
(-5.32449e-14 76.3131 120.601)
(-5.5358e-14 74.6171 118.65)
(-5.61608e-14 72.8277 116.543)
(-5.74602e-14 70.5924 114.233)
(-5.66352e-14 67.7545 110.673)
(-6.0532e-14 63.0639 104.847)
(-7.53928e-14 50.1605 84.7225)
(-1.19518e-17 104.636 179.902)
(-1.50284e-14 117.761 203.223)
(-1.1602e-14 117.075 198.28)
(-1.27231e-14 113.785 190.276)
(-1.08975e-14 110.393 181.309)
(-2.81854e-14 105.712 171.276)
(-2.27996e-14 100.401 160.509)
(-2.00295e-14 95.1574 150.54)
(-2.05624e-14 90.6041 142.067)
(-2.00817e-14 86.8277 135.297)
(-2.2091e-14 83.7173 129.992)
(-2.36397e-14 81.0851 125.766)
(-2.26436e-14 78.6718 122.255)
(-2.40528e-14 76.4015 119.097)
(-2.63867e-14 73.9762 116.121)
(-2.629e-14 71.5256 112.94)
(-2.64658e-14 68.4269 109.524)
(-2.76366e-14 64.8732 104.56)
(-3.03772e-14 58.5892 96.8789)
(-4.04028e-14 43.5447 72.2607)
(1.12512e-16 104.344 179.254)
(3.57383e-15 122.278 211.168)
(2.88721e-15 123.687 208.687)
(2.74208e-15 120.209 200.662)
(3.57476e-15 115.858 189.943)
(-1.86755e-14 109.508 177.29)
(-1.79158e-14 102.759 164.198)
(-1.96908e-14 96.4302 152.383)
(-2.03001e-14 91.0365 142.432)
(-2.05981e-14 86.532 134.313)
(-2.28479e-14 82.7273 127.725)
(-2.38838e-14 79.4411 122.293)
(-2.4944e-14 76.408 117.692)
(-2.40344e-14 73.5685 113.52)
(-2.65228e-14 70.534 109.581)
(-2.7113e-14 67.4989 105.334)
(-2.78299e-14 63.5418 100.753)
(-2.85798e-14 59.2296 94.1344)
(-3.12554e-14 51.113 84.4223)
(-5.21725e-14 34.1799 54.3741)
(-4.90329e-17 105.663 181.994)
(-7.73172e-16 131.441 226.133)
(-6.60673e-16 133.385 224.573)
(-6.08318e-16 129.031 214.723)
(-9.56721e-16 122.541 200.8)
(3.43766e-15 114.048 184.768)
(4.53358e-15 105.885 169.56)
(4.60128e-15 98.8306 156.455)
(4.81533e-15 92.8947 145.427)
(4.84951e-15 87.8106 136.056)
(5.28875e-15 83.3272 128.058)
(5.64181e-15 79.3183 121.153)
(5.47369e-15 75.5509 115.136)
(5.82617e-15 72.0018 109.629)
(6.27313e-15 68.2144 104.423)
(6.36111e-15 64.4214 98.847)
(6.55102e-15 59.4604 92.8322)
(6.86401e-15 54.1583 84.3858)
(7.6643e-15 44.2559 72.4764)
(1.09484e-14 25.368 37.7563)
(1.55855e-17 107.766 185.641)
(1.60238e-16 140.705 240.934)
(1.47016e-16 141.266 238.262)
(1.39002e-16 134.923 225.078)
(2.37555e-16 125.312 207.351)
(-6.31402e-16 115.199 188.779)
(-1.06931e-15 106.512 173.306)
(-1.08599e-15 99.6373 160.123)
(-1.08823e-15 93.487 148.734)
(-1.0983e-15 88.0497 138.319)
(-1.18466e-15 82.9156 128.948)
(-1.25478e-15 78.1948 120.414)
(-1.25649e-15 73.6283 112.723)
(-1.33696e-15 69.2902 105.527)
(-1.41296e-15 64.643 98.6788)
(-1.45384e-15 60.0065 91.3977)
(-1.4924e-15 53.9721 83.6195)
(-1.57924e-15 47.6948 73.1066)
(-1.80335e-15 35.9075 58.5935)
(-2.75204e-15 15.5878 18.9741)
(-4.41937e-18 111.846 193.32)
(-3.35057e-17 149.278 254.276)
(-3.27862e-17 146.296 248.23)
(-3.22927e-17 137.317 230.345)
(-5.57486e-17 124.641 209.901)
(1.2412e-16 114.921 191.15)
(2.44696e-16 106.519 177.521)
(2.5423e-16 100.5 164.797)
(2.43952e-16 93.9315 153.52)
(2.46376e-16 88.3224 142.235)
(2.63171e-16 82.4422 131.814)
(2.76173e-16 77.0765 121.755)
(2.83692e-16 71.6263 112.409)
(2.99725e-16 66.4629 103.36)
(3.15563e-16 60.8787 94.6638)
(3.25847e-16 55.4363 85.464)
(3.39974e-16 48.4251 75.7991)
(3.6235e-16 41.4229 63.3051)
(4.20879e-16 27.7022 45.4335)
(7.91937e-16 7.41241 3.11511)
(1.20409e-18 116.788 203.048)
(7.18817e-18 155.435 263.592)
(7.40776e-18 147.166 252.106)
(7.58087e-18 135.955 229.316)
(1.23024e-17 121.802 209.45)
(-2.63682e-17 114.562 192.56)
(-5.58536e-17 105.925 181.099)
(-5.90679e-17 100.746 168.158)
(-5.56992e-17 93.1649 157.128)
(-5.60008e-17 87.6024 145.159)
(-5.90016e-17 80.8376 134.286)
(-6.1454e-17 75.0659 123.179)
(-6.37556e-17 68.7738 112.758)
(-6.69761e-17 63.0321 102.305)
(-7.03953e-17 56.7196 92.2762)
(-7.297e-17 50.8854 81.6077)
(-7.78252e-17 43.2267 70.5028)
(-8.39947e-17 35.9237 56.198)
(-1.00555e-16 19.5237 33.7702)
(1.77812e-17 0.177693 -9.12332)
(-3.20984e-19 121.487 212.832)
(-1.58428e-18 159.237 269.01)
(-1.69238e-18 145.054 251.433)
(-1.76675e-18 133.209 224.946)
(-2.74561e-18 119.437 208.881)
(5.93092e-18 114.762 193.446)
(1.28208e-17 104.986 182.865)
(1.3736e-17 100.272 169.205)
(1.29571e-17 91.6783 158.338)
(1.28987e-17 86.2395 145.944)
(1.33805e-17 78.7806 135.014)
(1.38451e-17 72.9137 123.503)
(1.43644e-17 66.1901 112.856)
(1.4996e-17 60.4104 102.059)
(1.57281e-17 54.0135 91.8699)
(1.64205e-17 48.3502 80.8919)
(1.77967e-17 40.5522 69.1849)
(1.9356e-17 32.8904 53.3429)
(2.3951e-17 14.1427 26.7236)
(-1.36609e-16 -4.27695 -14.0116)
(8.33231e-20 125.2 220.687)
(3.54245e-19 161.603 271.97)
(3.89027e-19 142.069 248.961)
(4.06185e-19 131.488 220.884)
(6.31177e-19 118.768 208.92)
(-1.324e-18 115.144 193.553)
(-2.91254e-18 104.729 182.859)
(-3.18168e-18 99.9368 168.934)
(-3.03233e-18 91.2189 157.913)
(-2.97516e-18 85.5892 145.491)
(-3.04467e-18 78.1307 134.473)
(-3.13503e-18 72.1855 123.104)
(-3.24234e-18 65.6193 112.617)
(-3.36703e-18 59.9398 102.203)
(-3.53421e-18 53.8377 92.3123)
(-3.72956e-18 48.0811 81.5747)
(-4.08683e-18 40.2519 69.3484)
(-4.46601e-18 31.3395 52.4036)
(-5.67486e-18 12.6811 24.2108)
(-6.40462e-17 -6.38096 -14.5888)
(-2.16492e-20 128.623 227.302)
(-7.85544e-20 163.943 274.454)
(-8.89397e-20 140.572 247.482)
(-9.23034e-20 132.721 220.802)
(-1.45636e-19 120.191 209.887)
(2.71662e-19 116.552 194.155)
(6.36764e-19 106.518 183.043)
(7.24638e-19 101.3 169.229)
(7.03665e-19 93.1768 157.739)
(6.80037e-19 87.1431 145.434)
(6.8742e-19 80.1547 134.119)
(7.05648e-19 74.0034 122.874)
(7.28155e-19 67.6977 112.238)
(7.55249e-19 61.756 101.826)
(7.96448e-19 55.5066 91.5056)
(8.53313e-19 48.8831 80.2726)
(9.44375e-19 40.4292 66.946)
(1.03674e-18 29.9214 49.2419)
(1.75263e-18 12.6199 21.9031)
(3.51431e-18 -7.37478 -14.0801)
(4.95031e-21 133.628 236.769)
(1.72368e-20 167.956 277.954)
(1.97868e-20 141.335 249.215)
(2.0109e-20 136.625 224.091)
(3.28585e-20 123.595 213.106)
(-4.79735e-20 120.334 197.081)
(-1.29543e-19 110.762 185.534)
(-1.58396e-19 105.444 171.624)
(-1.58606e-19 97.9552 159.623)
(-1.52019e-19 91.8625 147.137)
(-1.5117e-19 85.3188 135.31)
(-1.54374e-19 79.0954 123.594)
(-1.59334e-19 72.7233 112.112)
(-1.65928e-19 66.1613 100.549)
(-1.76136e-19 58.9014 88.5219)
(-1.92316e-19 50.7068 75.2657)
(-2.17138e-19 40.5148 59.7955)
(-2.49543e-19 28.2454 40.4258)
(-6.9476e-19 10.5395 13.8677)
(1.19592e-17 -6.77792 -16.3732)
(-1.02297e-21 142.543 255.084)
(-3.60856e-21 172.008 280.213)
(-4.09606e-21 143.363 254.666)
(-3.98124e-21 142.751 231.088)
(-6.84865e-21 128.651 220.823)
(7.1904e-21 126.695 204.352)
(2.39595e-20 117.075 192.906)
(3.18442e-20 112.573 178.888)
(3.29034e-20 105.651 166.894)
(3.12654e-20 100.248 154.201)
(3.00848e-20 94.211 141.829)
(2.98425e-20 88.0559 128.871)
(3.02253e-20 81.0152 115.237)
(3.11173e-20 72.8819 100.495)
(3.26424e-20 63.1486 84.4865)
(3.52847e-20 51.9915 66.7651)
(4.10255e-20 38.3003 46.9719)
(3.245e-20 22.9564 23.1415)
(1.04052e-19 0.228747 -6.17298)
(2.70193e-18 -14.504 -38.8964)
(1.96535e-22 151.698 277.512)
(6.96772e-22 172.738 278.518)
(7.58764e-22 143.91 261.117)
(6.89966e-22 147.885 239.816)
(1.2477e-21 131.755 231.186)
(-1.12828e-21 131.914 214.773)
(-4.22749e-21 121.481 204.86)
(-5.77293e-21 118.821 191.684)
(-5.86198e-21 112.268 181.318)
(-5.28937e-21 108.286 169.458)
(-4.7125e-21 102.416 157.104)
(-4.33346e-21 95.4465 141.883)
(-4.17994e-21 85.5539 123.616)
(-4.27502e-21 73.1724 102.475)
(-4.44682e-21 58.5147 79.6939)
(-4.12828e-21 42.5225 55.3526)
(-4.46811e-21 24.2871 30.0657)
(-1.38614e-20 6.19257 0.503173)
(1.56567e-19 -19.9746 -29.5904)
(-1.07419e-18 -27.4379 -65.9396)
(-3.52674e-23 153.854 288.07)
(-1.22868e-22 165.95 268.724)
(-1.1999e-22 139.488 260.905)
(-1.04587e-22 144.509 241.03)
(-2.13477e-22 126.483 233.759)
(2.57697e-22 126.845 218.204)
(8.42534e-22 114.968 210.196)
(1.0717e-21 112.722 198.686)
(1.00947e-21 105.126 190.714)
(8.70974e-22 100.883 180.059)
(7.7442e-22 92.2592 166.782)
(6.32876e-22 80.6409 145.978)
(1.73096e-22 63.6039 118.473)
(-7.09156e-22 44.7815 87.9099)
(-3.41811e-22 25.9728 58.0949)
(5.40752e-21 7.43323 28.6426)
(7.49111e-21 -8.49996 3.8545)
(-4.6237e-20 -22.2924 -20.0549)
(-3.07709e-19 -41.6601 -49.3217)
(-9.08942e-19 -31.0805 -53.1779)
(5.62143e-24 146.87 278.859)
(1.79462e-23 158.314 256.75)
(1.82519e-23 131.829 250.646)
(2.26805e-23 135.653 230.521)
(2.32523e-23 117.41 222.978)
(-7.46884e-23 115.463 207.969)
(-1.45072e-22 103.548 199.435)
(-1.40266e-22 98.6216 188.603)
(-1.04975e-22 90.0361 180.215)
(-5.68217e-23 82.6755 169.327)
(-3.72211e-23 71.1123 153.989)
(-2.34192e-22 55.6785 130.439)
(-9.5238e-22 36.9972 101.496)
(-1.99204e-21 19.7512 73.4059)
(-1.04306e-21 4.96422 48.022)
(9.05614e-21 -9.14578 21.7833)
(3.71994e-20 -20.8294 -2.09785)
(6.73706e-20 -21.4569 -10.2428)
(4.71156e-20 -5.74572 7.47231)
(-1.45939e-20 13.6631 39.2387)
(-4.17979e-25 138.756 269.334)
(-3.61872e-24 155.745 245.708)
(-5.02911e-24 124.687 240.417)
(-2.54985e-24 131.702 218.109)
(5.10714e-25 112.092 210.39)
(7.44351e-24 110.65 194.045)
(1.0308e-23 98.766 184.088)
(1.61043e-23 93.3409 171.71)
(3.05742e-23 84.7946 161.521)
(5.64945e-23 77.4983 149.959)
(7.28631e-23 68.1008 136.426)
(1.49804e-23 57.5983 119.123)
(-1.2096e-22 47.0258 100.147)
(-1.65651e-22 39.0594 83.2689)
(-1.12681e-23 34.1201 69.9577)
(1.13298e-22 31.7352 59.514)
(-9.88288e-23 32.6657 53.2655)
(-4.82483e-22 32.8726 49.9461)
(-3.14998e-21 37.6372 51.0912)
(-1.62261e-20 32.8258 56.627)
(3.54609e-25 130.648 268.32)
(6.74765e-25 156.169 240.951)
(4.7127e-25 119.029 239.144)
(3.39797e-24 128.064 217.287)
(9.77142e-24 108.987 209.546)
(9.28274e-24 107.083 194.254)
(-9.71609e-25 96.8315 183.768)
(-1.33969e-23 91.6774 171.499)
(-2.23368e-23 84.7302 160.782)
(-2.86975e-23 79.3017 149.893)
(-3.46455e-23 73.8091 139.507)
(-3.89671e-23 69.1649 129.106)
(-3.49684e-23 65.1666 118.764)
(-2.42287e-23 61.9766 108.417)
(-3.14338e-23 58.7819 97.5212)
(-4.72681e-23 54.3003 84.2719)
(-2.90984e-23 46.5913 65.9135)
(1.10006e-22 33.3875 38.8606)
(2.01253e-22 12.1574 6.44364)
(-1.48199e-22 -3.36111 -22.9433)
(1.80453e-25 108.682 255.226)
(-9.29389e-25 149.206 225.656)
(-3.19356e-24 108.34 228.572)
(-4.57581e-24 114.936 213.016)
(-1.38572e-24 98.926 207.086)
(6.19851e-24 94.5235 197.13)
(1.28942e-23 85.8885 189.351)
(1.59428e-23 80.1107 180.986)
(1.65619e-23 74.0636 173.241)
(1.81644e-23 69.0694 165.598)
(2.49617e-23 64.4815 158.196)
(3.63568e-23 60.3898 150.712)
(4.02835e-23 56.4629 142.801)
(2.31773e-23 52.514 134.071)
(-4.2293e-24 48.29 124.098)
(2.24607e-24 42.9998 111.371)
(1.0835e-22 34.0106 91.213)
(4.30991e-22 17.0343 54.9612)
(1.23148e-21 -9.07259 -0.297707)
(2.15719e-21 -20.9366 -40.5181)
(2.52854e-25 35.9793 158.18)
(7.93931e-25 78.4142 130.88)
(6.05557e-25 52.7696 139.019)
(-6.10559e-25 52.6224 134.998)
(-2.42319e-24 44.1909 135.017)
(-3.85979e-24 39.8552 133.425)
(-4.41971e-24 34.9293 132.227)
(-4.58368e-24 31.1216 130.711)
(-4.79491e-24 27.7374 129.096)
(-4.78199e-24 24.964 127.229)
(-3.51791e-24 22.6656 125.072)
(6.5816e-26 20.882 122.608)
(5.27487e-24 19.6661 119.918)
(8.04007e-24 19.1303 117.13)
(2.70527e-24 19.5048 114.317)
(-1.2535e-23 20.783 111.612)
(-3.23623e-23 22.5778 108.996)
(-4.63936e-23 26.9972 103.412)
(-4.30454e-23 30.2144 90.1476)
(-1.64714e-23 6.89234 64.2705)
(-3.23728e-25 -35.9733 158.169)
(2.61194e-25 -78.4172 130.864)
(1.04864e-24 -52.773 138.999)
(1.84226e-24 -52.6317 134.973)
(2.61743e-24 -44.2039 134.987)
(3.30369e-24 -39.8732 133.389)
(3.87396e-24 -34.9521 132.184)
(4.31355e-24 -31.1498 130.661)
(4.60409e-24 -27.7719 129.039)
(4.63706e-24 -25.0068 127.167)
(4.14074e-24 -22.7188 125.008)
(2.6784e-24 -20.9465 122.541)
(2.83452e-25 -19.7418 119.847)
(-1.10326e-24 -19.2168 117.055)
(2.51321e-24 -19.6035 114.237)
(1.30177e-23 -20.8989 111.519)
(2.47471e-23 -22.7114 108.88)
(2.7033e-23 -27.1279 103.301)
(1.56779e-23 -30.3121 90.1245)
(9.94734e-25 -6.90518 64.3275)
(1.23887e-24 -108.646 255.155)
(3.02407e-25 -149.16 225.578)
(-2.12666e-24 -108.295 228.494)
(-5.13998e-24 -114.889 212.934)
(-8.7004e-24 -98.8739 207.003)
(-1.26472e-23 -94.4656 197.045)
(-1.66196e-23 -85.8219 189.264)
(-1.99367e-23 -80.0327 180.897)
(-2.17529e-23 -73.9697 173.147)
(-2.23886e-23 -68.9558 165.497)
(-2.49984e-23 -64.3472 158.088)
(-3.19189e-23 -60.2399 150.602)
(-3.72433e-23 -56.3041 142.692)
(-3.0963e-23 -52.3428 133.948)
(-2.05288e-23 -48.0853 123.907)
(-3.74191e-23 -42.765 111.101)
(-1.02995e-22 -33.9022 91.1359)
(-1.93778e-22 -17.4398 55.7354)
(-2.1376e-22 7.95735 1.5289)
(1.45082e-23 20.3812 -39.5227)
(-3.8149e-24 -130.644 268.283)
(-4.19149e-25 -156.116 240.946)
(6.72713e-24 -119.005 239.125)
(1.53374e-23 -127.989 217.301)
(2.50046e-23 -108.928 209.565)
(3.56701e-23 -106.991 194.305)
(4.65073e-23 -96.7395 183.842)
(5.69124e-23 -91.5659 171.606)
(6.62438e-23 -84.6064 160.918)
(7.33134e-23 -79.1478 150.042)
(7.7407e-23 -73.6014 139.633)
(7.14659e-23 -68.8666 129.17)
(3.82104e-23 -64.7505 118.727)
(-1.96849e-23 -61.4143 108.237)
(-4.06964e-23 -58.1481 97.25)
(3.46635e-23 -53.5989 83.9188)
(1.53263e-22 -45.8237 65.395)
(1.93768e-22 -32.5832 38.176)
(2.18286e-22 -11.4654 5.50078)
(-5.00269e-22 3.50001 -23.0007)
(1.22744e-23 -138.841 269.481)
(1.58613e-24 -155.788 245.907)
(-2.36827e-23 -124.794 240.616)
(-5.66424e-23 -131.768 218.385)
(-9.41733e-23 -112.217 210.673)
(-1.35644e-22 -110.763 194.384)
(-1.7525e-22 -98.9252 184.452)
(-2.09498e-22 -93.5183 172.118)