/*--------------------------------*- C++ -*----------------------------------*\
| =========                 |                                                 |
| \\      /  F ield         | OpenFOAM: The Open Source CFD Toolbox           |
|  \\    /   O peration     | Version:  4.1                                   |
|   \\  /    A nd           | Web:      www.OpenFOAM.org                      |
|    \\/     M anipulation  |                                                 |
\*---------------------------------------------------------------------------*/
FoamFile
{
    version     2.0;
    format      ascii;
    class       volScalarField;
    location    "26";
    object      p;
}
// * * * * * * * * * * * * * * * * * * * * * * * * * * * * * * * * * * * * * //

dimensions      [0 2 -2 0 0 0 0];

internalField   nonuniform List<scalar> 
1280
(
-68.5091
34.1918
-18.2073
-102.207
62.5739
-35.3042
-120.849
-97.1439
-2.9654
-65.0486
-235.282
-56.3604
-164.608
-435.315
-203.715
-430.705
-807.708
-848.45
-745.54
-2552.86
-957.674
699.445
1588.39
2133.68
2117.76
2725.66
-2183.48
173.283
196.661
24.2036
-95.6929
-232.481
-388.174
-577.544
-757.568
-937.666
-960.914
-936.804
-660.891
-943.811
-5161.93
-2545.06
-1328.61
-817.86
1630.25
1012.95
1268.83
1632.11
2081.56
2167.05
2264.35
2181.06
2334.86
2332.37
2263.21
2760.6
988.635
786.299
41.7418
-3186.34
2161.15
2378.07
1993.09
1671.97
1295.68
1102.53
956.413
898.188
851.093
823.178
789.223
666.012
598.322
-1220.62
2348.06
1592.27
1487.68
1007.99
749.484
-448.332
-2119.85
-395.813
-650.759
-363.151
-166.463
55.9857
108.202
212.005
261.494
276.956
285.901
284.868
263.226
241.818
252.212
225.676
117.546
75.3805
-6.24515
79.8842
162.081
-91.4524
-219.352
-457.685
-282.604
-117.919
-83.9841
-29.5994
-9.69454
20.6394
52.4749
135.443
200.369
198.553
66.4834
-1.44954
-48.6071
-61.0407
50.1615
314.915
-68.7028
-580.454
-745.9
-424.253
-153.228
-91.0185
23.2278
89.2704
168.764
237.223
411.929
544.375
515.764
219.928
7.75422
-161.906
-117.469
146.889
251.254
-129.348
-808.084
-714.701
-441.722
-160.378
-90.0733
45.7201
123.441
227.759
303.213
528.948
737.406
730.646
381.593
-26.7313
-371.043
-271.364
209.061
171.392
-102.969
-908.281
-667.254
-486.021
-170.129
-90.4164
64.0979
154.531
273.374
363.671
666.426
942.141
935.677
575.099
-97.7172
-660.361
-445.681
319.097
19.1276
-65.6523
-882.759
-654.529
-423.289
-169.7
-80.8291
89.278
189.848
344.946
432.182
770.284
1128.14
1096.18
755.848
-279.305
-1133.59
-840.373
378.026
-161.178
-20.7116
-813.945
-678.038
-290.189
-188.154
-49.8228
109.917
217.342
345.644
507.859
919.229
1277.54
1217.66
970.201
-363.59
-1308.12
-1010.42
592.753
-365.782
-94.8491
-836.949
-655.763
-204.598
-53.8283
-32.7065
131.329
228.465
318.801
564.771
1045.53
1381.3
1367.63
1254.07
-131.092
-1440.64
-1167.5
614.293
-576.222
-355.921
-1018.98
-723.879
-54.3458
107.123
-53.0802
148.212
240.351
340.141
579.181
1044.81
1404.33
1475.64
1431.98
396.218
-962.842
-596.654
1259.44
-760.913
-755.606
-1226.11
-799.65
132.765
114.468
29.5835
139.577
245.442
340.286
574.256
1022.38
1322.27
1394.21
1226.75
416.342
-356.106
588.296
5530.21
-839.765
-1095.35
-1328.9
-745.851
329.885
130.648
161.159
144.38
252.679
330.211
543.792
963.675
1184.82
1187.37
808.899
132.36
-219.105
511.09
4427.23
-809.697
-1287.31
-1350.55
-642.14
542.869
289.077
318.817
163.518
258.46
303.381
498.646
868.07
1010.82
880.438
380.72
-111.227
29.1637
850.719
4790.35
-729.878
-1426.1
-1349.33
-523.405
831.965
583.094
501.382
223.353
271.517
271.812
418.485
664.158
741.952
508.94
-143.982
-563.437
-207.687
577.886
4852
-631.762
-1521.94
-1319.13
-389.517
1124.77
847.471
634.59
332.469
329.83
279.938
349.69
460.894
369.824
55.6378
-628.947
-881.873
-310.615
838.993
1791.35
-534.042
-1548.69
-1273.47
-266.033
1320.57
1010.05
697.452
413.951
394.203
319.242
322.822
342.527
85.1595
-307.901
-764.691
-869.075
-216.701
450.92
495.921
-436.308
-1468.9
-1200.51
-157.257
1405.68
1053.17
708.637
443.088
418.976
338.762
301.958
221.246
-127.286
-510.155
-763.683
-880.008
-244.665
267.697
478.082
-363.601
-1296.28
-1101.42
-70.4511
1409.02
979.953
665.389
421.878
398.586
322.424
278.722
120.683
-256.873
-470.547
-721.778
-677.958
-144.906
143.595
406.077
-272.402
-992.441
-958.5
-6.9964
1345.11
850.923
580.524
359.887
337.329
266.355
216.897
56.099
-301.891
-296.765
-579.028
-461.216
-121.686
96.2377
338.516
-241.874
-693.238
-777.692
47.0302
1221.99
661.884
459.233
278.073
262.354
202.42
148.579
-5.11296
-320.627
-227.991
-394.901
-298.495
-90.6622
59.2164
240.67
-91.7817
-241.143
-660.595
65.6673
1043.72
423.085
300.276
157.483
147.095
111.11
84.3436
-10.3089
-222.023
-239.067
-281.146
-227.163
-77.8443
39.7672
164.943
-152.653
-160.116
-571.43
-80.3572
488.975
122.673
116.08
73.8265
72.2688
51.5132
19.6751
-38.7697
-109.521
-225.369
-215.866
-143.418
-27.0987
30.2885
98.2788
11035.5
11098.3
11002.5
10948.5
10772.9
10619.3
10422.4
10227
10015.8
9829.38
9657.55
9503.19
9369.54
9253.09
9157
9071.9
9006.2
8940.03
8902.98
8791.08
6093.25
6361.11
6432.73
6607.06
6700.31
6820.4
6915.57
7008.21
7094.3
7173.98
7249.72
7322.12
7392.31
7463.42
7535.01
7615.36
7694.89
7795.35
7864.11
7959.92
5486.12
5697.16
5758.99
5907.06
6003.4
6112.38
6211.68
6307.33
6398.99
6486.97
6572
6655.62
6737.14
6819.97
6900.16
6987.03
7066.54
7165.82
7231.88
7340.85
2626.39
2899.09
2989.3
3149.47
3294.21
3438.91
3592.43
3742.43
3898.11
4055.83
4218.18
4386.82
4560.66
4743.64
4928.78
5125.92
5311.83
5510.75
5650.3
5875.02
341.522
395.683
419.793
399.264
420.303
400.501
399.114
378.773
369.446
363.487
371.662
396.979
444.036
523.876
637.675
817.479
1038.91
1361.12
1590.89
1937.4
133.366
-227.451
-282.06
-511.965
-663.431
-881.386
-1069.75
-1267.57
-1431.65
-1578.97
-1699.39
-1799.82
-1879.56
-1941.56
-1990.18
-2023.42
-2032.38
-1988.95
-1945.57
-1670.05
4469.95
3919.51
3723.16
3341.65
3033.59
2642.28
2264.62
1867.84
1504.24
1164.21
875.146
638.667
474.931
392.525
401.941
476.597
566.904
676.476
646.423
467.873
9745.58
9542.83
9482.12
9371.79
9305.73
9202.97
9115.71
8996.42
8876.82
8719.97
8534.72
8293.91
7994.7
7639.9
7273.97
6949.29
6716.42
6655.24
6696.59
6329.09
9237.41
9292.27
9304.98
9312.24
9342.79
9352.7
9381.32
9355.98
9333.38
9272.03
9205
9121.78
9038.31
8959.91
8902.63
8867.3
8846.57
8787.35
8778.43
8669.6
8599.98
8745.44
8810.98
8875.38
8985.15
9045.46
9163.72
9227.09
9313.67
9358.35
9387.76
9377.15
9335.23
9272.18
9228.19
9238.22
9308.53
9398.41
9465.58
9497.73
6851.24
7016.24
7099.25
7147.03
7292.23
7324.5
7454.16
7513.85
7615.77
7696.85
7787.21
7874.89
7961.6
8047.8
8131.5
8222.49
8312.16
8423.32
8502.95
8616.95
5328.6
5481.25
5621.07
5651.48
5852.16
5879.77
6050.14
6119.79
6250.04
6346.65
6456.65
6560.33
6663.42
6767.19
6867.29
6973.49
7069.66
7184.56
7261.97
7380.95
3225.93
3293.99
3490.88
3468.6
3713.02
3715.08
3925.37
3998
4170.39
4296.48
4454.5
4606.63
4765.09
4927.85
5087.49
5255.69
5409.01
5593.86
5732.19
5970.94
1506.17
1324.49
1430.66
1223.2
1321.39
1128.22
1171.73
1035.68
1027.93
946.271
920.128
889.139
901.305
961.649
1071.18
1232.01
1405.07
1619.1
1769.18
2088.54
3290.76
2944.57
2963.72
2624.41
2598.11
2276
2166.45
1873.14
1678.04
1388
1123.99
823.457
545.002
293.146
90.9495
-58.2768
-148.734
-176.423
-226.731
-95.1693
6270.94
5973.96
6078.31
5762.01
5878.48
5645.86
5686.49
5552.82
5535.3
5455.07
5412.56
5349.08
5290.38
5214.18
5121.34
4998.64
4831.56
4645.04
4438.79
4140.86
7870.93
7648.31
7843.91
7441.39
7597.58
7331.66
7359.05
7231.38
7213.87
7163.98
7155.58
7151.82
7167.74
7192.75
7226.27
7261.9
7287.79
7269.97
7251.86
7182.19
6919.32
6571.53
7177.8
6665.37
6913.3
6644.61
6624.91
6454.61
6344.79
6202.88
6079.63
5959.9
5856.79
5769.28
5700.04
5643.99
5602
5614.27
5691.05
5902.32
5751.2
4102.84
4859.55
3923.18
3860.55
3346.76
3054.29
2689.32
2398.94
2131.16
1918.42
1756.68
1657.6
1625.68
1669.57
1797.79
1999.75
2273.03
2613.3
2940.43
58517.2
52015
48560.9
44236.2
40630.2
37068.8
33795.8
30690.5
27776.8
25023.8
22421.8
19954.3
17606.3
15361.4
13222.4
11159.1
9097.01
7359.42
5693.38
2844.5
57380.1
50876.5
47421.8
43096.2
39489.5
35927.3
32653.4
29547.4
26633
23879.5
21277.3
18809.9
16462.4
14218.4
12080.6
10018.3
7957.49
6224.98
4564.75
1717.06
4582.4
2931.96
3687.61
2749.51
2684.86
2169.18
1874.62
1507.84
1215.78
946.72
733.042
570.664
471.055
438.561
481.405
607.807
807.494
1078.91
1413.68
1739.08
5733.5
5387.24
5992.98
5481.89
5729.7
5462.21
5442.98
5273.99
5165.26
5024.95
4903.27
4785.21
4683.42
4596.9
4526.86
4469.06
4426.65
4447.65
4532.76
4751.86
6710.83
6502.28
6702.67
6309.3
6471.98
6213.35
6247.18
6126.07
6114.61
6070.57
6067.4
6068.15
6087.78
6116.21
6152.95
6192.13
6223.47
6206.75
6186.08
6134.07
5406.31
5125.12
5237.45
4931.38
5059.19
4835.07
4885.96
4760.13
4750.34
4676.51
4638.95
4578.88
4521.33
4444.73
4350.69
4227.09
4060.34
3882.53
3692.89
3394.35
2509.1
2164.92
2187.93
1852.82
1825.32
1504.1
1393.03
1099
903.648
613.907
352.57
56.8639
-211.857
-450.723
-636.628
-769.853
-846.782
-870.036
-916.385
-805.755
806.502
659.312
751.098
473.837
552.98
308.031
323.913
151.459
117.292
10.4254
-39.0527
-90.0018
-92.2013
-43.6463
55.0587
203.172
362.905
565.599
710.215
1023.34
2774.54
2828.18
3082.32
2945.53
3110.45
3067.09
3173.23
3198.35
3300.26
3387.58
3512.79
3638.04
3776.18
3924.12
4072.73
4233.2
4382.81
4565.24
4705.72
4936.63
4600.96
4818.56
4916.06
4936.18
4985.84
5005.29
5045.9
5080.96
5136.48
5211.28
5313.11
5417.88
5521
5624.63
5723.62
5825.17
5914.84
6014.09
6079.22
6168.06
5670.77
5841.76
5864
5910.38
5930.37
5962.92
6001.77
6050.77
6111.97
6187.05
6268.88
6355.64
6438.57
6515.95
6584.01
6651.38
6712.45
6785.18
6834
6906.19
6826.15
6943.67
6954.56
7006.02
7046.95
7102.16
7158.13
7224.66
7265.56
7330.96
7413.41
7465.69
7462.22
7417.16
7365.8
7348.81
7376.04
7430.04
7462.32
7489.47
7702.71
7677.75
7624.73
7604.44
7588.5
7579.31
7577.75
7564.47
7472.02
7404.91
7378.95
7317.36
7254.99
7192.75
7149.59
7135.08
7148.64
7159.01
7179.02
7127.68
6977.65
6775.81
6726.03
6669.73
6652.58
6634.31
6618.34
6570
6628.54
6778.26
6785.15
6714.93
6646.79
6521.23
6388.09
6262.95
6190.17
6199.85
6202.63
5933.25
4299.81
3986.15
3903.52
3732.76
3579.92
3376.36
3135.81
2838.13
2531.1
2166.96
1746.09
1347
983.51
716.077
571.527
535.095
593.599
668.621
674.518
756.508
1509.55
1440.19
1431.41
1351.24
1259.42
1123.48
963.718
787.513
622.163
482.751
402.189
456.922
588.706
799.195
1057.93
1351.81
1639.47
1973.32
2189.32
2578.9
4759.59
5023
5153.12
5314.31
5462.77
5618.14
5788.75
5975.82
6171.03
6371.11
6575.01
6786.04
6992.86
7200.5
7395.48
7598.57
7773.66
8005.77
8167.49
8510.42
7265.48
7533.46
7618.34
7777.67
7905.82
8045.92
8190.19
8337.88
8484.86
8629.66
8773.7
8918.37
9063.03
9211.5
9357.92
9513.54
9656.36
9816.06
9926.51
10047.7
9562.92
9711.19
9733.79
9821.27
9869.43
9931.9
9991.85
10054.2
10115.2
10178
10242.4
10308.5
10376.1
10445.9
10518.2
10597
10675
10757
10813.6
10866.5
9473.8
9630.04
9681.16
9789.61
9862
9949.41
10027.3
10102.8
10169.4
10221.2
10258.1
10278.2
10290.1
10296.8
10314.8
10343.1
10400.3
10459.5
10520.9
10543
12992.5
12943.7
12846.1
12725.9
12571.9
12407
12240.1
12056
11848.9
11669.1
11503.9
11359
11236.7
11131.8
11057.2
10990.5
10973.4
10921.5
10917.7
10781.6
)
;

boundaryField
{
    outletWall
    {
        type            fixedValue;
        value           uniform 0;
    }
    fineWalls
    {
        type            zeroGradient;
    }
    fineFrontAndBack
    {
        type            zeroGradient;
    }
    fineplugLeft
    {
        type            cyclicAMI;
        value           nonuniform List<scalar> 
20
(
6844.1
6990.21
6964.66
7012.78
7069.98
7174.09
7286.96
7418
7556.05
7706.9
7868.34
8052
8216.3
8989
9040.55
9041.85
9185.51
9119.71
9018.55
8636.87
)
;
    }
    fineplugRight
    {
        type            cyclicAMI;
        value           nonuniform List<scalar> 
20
(
9057.52
9209.78
9135.82
9113.09
9051.51
9066.26
9096.69
9168.96
9257.45
9367.72
9493.13
9612.33
9764.49
10709.5
10395.2
10376
10478.3
10478.5
10504.8
10304.4
)
;
    }
    inletOutletLeft
    {
        type            cyclicAMI;
        value           nonuniform List<scalar> 
20
(
6844.1
6990.21
6964.66
7012.78
7069.98
7174.09
7286.96
7418
7556.05
7706.9
7868.34
8052
8216.3
8989
9040.55
9041.85
9185.51
9119.71
9018.55
8636.87
)
;
    }
    inletLeft
    {
        type            zeroGradient;
    }
    inletWallsLeft
    {
        type            zeroGradient;
    }
    inletFacesLeft
    {
        type            zeroGradient;
    }
    inletOutletRight
    {
        type            cyclicAMI;
        value           nonuniform List<scalar> 
20
(
9057.52
9209.78
9135.82
9113.09
9051.51
9066.26
9096.69
9168.96
9257.45
9367.72
9493.13
9612.33
9764.49
10709.5
10395.2
10376
10478.3
10478.5
10504.8
10304.4
)
;
    }
    inletRight
    {
        type            zeroGradient;
    }
    inletWallsRight
    {
        type            zeroGradient;
    }
    inletFacesRight
    {
        type            zeroGradient;
    }
}


// ************************************************************************* //
