/*--------------------------------*- C++ -*----------------------------------*\
| =========                 |                                                 |
| \\      /  F ield         | OpenFOAM: The Open Source CFD Toolbox           |
|  \\    /   O peration     | Version:  4.1                                   |
|   \\  /    A nd           | Web:      www.OpenFOAM.org                      |
|    \\/     M anipulation  |                                                 |
\*---------------------------------------------------------------------------*/
FoamFile
{
    version     2.0;
    format      ascii;
    class       volScalarField;
    location    "23";
    object      p;
}
// * * * * * * * * * * * * * * * * * * * * * * * * * * * * * * * * * * * * * //

dimensions      [0 2 -2 0 0 0 0];

internalField   nonuniform List<scalar> 
1280
(
0.43907
2.15361
2.51714
2.47456
3.33843
4.50413
4.33183
4.15831
4.4751
5.31902
4.49649
4.8226
5.42521
3.60632
4.34619
4.22963
1.06227
1.70362
1.62806
-6.68516
-2.2298
15.7889
37.2584
43.0414
43.2064
46.6373
15.4252
36.5384
37.09
36.9819
36.6996
36.0954
35.2477
34.0839
32.85
31.5304
31.2762
31.6431
34.3236
32.8751
1.53547
25.3643
32.3122
35.4035
45.8895
45.0133
45.3791
45.5499
46.6608
45.0435
44.795
45.8306
38.7769
33.9331
31.0986
34.1976
9.52855
1.8792
-14.3536
-45.3392
-2.10336
0.447731
-1.70177
-1.04865
0.0695386
2.34879
4.4806
6.56815
8.35679
10.0509
11.3674
12.3073
13.3088
-4.38218
39.4277
36.6788
36.8661
30.6742
10.5219
-4.29785
-5.13308
2.95628
16.121
19.9794
20.8308
24.6202
26.0831
24.9992
23.488
24.8396
21.371
19.622
19.0368
13.8569
11.7827
11.3051
8.43964
0.320438
-4.02638
4.03825
-0.123762
0.0931912
0.00847031
-0.0905425
-0.669602
-2.00777
-4.77236
-4.23529
-0.711376
0.00211349
2.29301
1.33446
0.743767
0.776929
1.81334
3.24782
3.93218
3.93805
2.90357
-0.40408
-0.0784051
-0.0990782
-0.119733
-0.47688
-1.80242
-3.54914
-4.37574
-1.31102
-0.676952
1.94604
1.03457
2.8603
6.05287
9.88561
14.2204
14.4802
13.267
8.83622
-0.380777
0.129132
0.0532771
0.112051
-0.14561
-1.90223
-3.56543
-4.73709
-1.67123
-1.2372
1.92721
1.07419
3.94258
8.44324
13.5797
19.6825
20.5672
18.9559
13.4427
-0.394886
0.329704
0.256418
0.407029
0.214792
-2.29529
-4.61986
-5.6585
-2.30175
-2.01505
2.06344
1.25103
4.85389
10.4988
16.9877
25.0731
27.0445
25.4678
18.5403
-0.442933
0.5013
0.484636
0.755661
0.774628
-2.38422
-5.24562
-6.01501
-3.16493
-3.34352
1.66065
1.16595
5.74807
12.7914
20.8177
31.099
34.1313
32.5279
23.9874
-0.469947
0.720727
0.797131
1.24793
1.50526
-2.55405
-5.6735
-6.17413
-4.63674
-5.36117
0.699748
0.901742
6.42162
14.7429
24.2138
36.7949
40.6693
39.1148
19.2796
-0.484821
0.982843
1.19358
1.90814
2.14476
-3.23903
-6.32816
-6.61139
-6.60726
-7.01776
-0.566427
0.580897
6.85584
16.2702
26.9967
41.952
47.1465
47.0167
18.2429
-0.490107
1.28928
1.73201
2.83327
2.67467
-3.59296
-6.68334
-6.9902
-8.71747
-7.8216
-1.96088
0.217324
7.06693
17.3672
29.2655
46.6527
56.1461
52.7597
44.0078
-0.483563
1.64041
2.42958
3.78813
2.7504
-4.37126
-7.78406
-8.10579
-10.8779
-8.72506
-3.33284
-0.22619
7.02234
17.9096
30.5231
48.5128
60.0156
52.0248
74.815
-0.45991
2.02936
3.19401
4.87603
1.9381
-5.83423
-8.84873
-9.2234
-12.3445
-9.54412
-4.59562
-0.772535
6.69323
17.7405
30.6328
49.6099
55.5268
51.6107
70.8088
-0.407075
2.41216
4.019
7.8924
0.556931
-6.40336
-9.00995
-10.3153
-13.0488
-10.1235
-5.71701
-1.411
6.08155
16.8793
29.403
45.3294
46.4964
46.109
66.5675
-0.314372
2.78489
4.73423
9.95469
-0.0538291
-6.73956
-9.40457
-10.9397
-13.1837
-10.5766
-6.6927
-2.13863
5.1779
15.3301
26.6312
38.8079
39.2783
48.0704
74.044
-0.190563
3.11821
5.37887
9.83774
0.180617
-6.75908
-9.51141
-11.0669
-13.1123
-10.8976
-7.48181
-2.87054
4.10238
13.3156
22.6826
31.1783
25.4938
23.6829
35.7936
-0.0381734
3.38406
6.04576
9.15878
0.828024
-6.43044
-9.30701
-10.9001
-12.8084
-11.0017
-8.058
-3.61576
2.80149
10.8352
17.8523
21.1758
4.94969
0.871255
11.2611
0.10943
3.49306
6.40195
8.24632
1.67382
-5.85529
-9.002
-10.5841
-12.3225
-10.8357
-8.27804
-4.1069
1.69152
8.54161
13.5214
13.0321
0.872011
3.98871
13.5181
0.256605
3.4455
6.39779
7.4299
2.98901
-4.60512
-8.17566
-9.7665
-11.427
-10.3066
-8.23893
-4.66254
0.23332
5.87569
9.65177
6.99273
2.47907
0.583581
10.0044
0.311073
3.06053
5.73488
5.98947
3.12425
-3.60809
-7.40477
-8.90572
-10.3909
-9.4761
-7.68457
-4.47278
-0.0869187
4.7836
7.50883
1.90074
3.31214
-1.03284
7.79839
0.378006
2.61524
4.88523
4.89216
3.49187
-1.49201
-5.27659
-6.74973
-8.32145
-8.01832
-7.03027
-4.96723
-2.0558
1.3765
3.39853
-1.98214
0.947974
-0.120117
5.02718
0.190881
1.45942
2.7073
1.6678
1.15406
-1.35879
-4.18309
-5.21547
-6.27652
-6.0014
-5.03277
-2.85412
0.533822
4.3755
5.59591
2.31175
-0.827072
0.286654
2.95452
0.280932
1.10271
2.09596
2.72367
2.30803
1.16656
-0.0544292
-0.661887
-1.54444
-2.09502
-2.51654
-2.96381
-3.94465
-5.5566
-5.76217
-0.95752
-2.85693
-1.86689
1.44281
118.172
118.544
116.721
115.497
113.373
111.261
108.973
106.867
104.722
102.799
101.098
99.6166
98.3872
97.4081
96.6858
96.1745
95.8596
95.6797
95.6637
95.435
65.5819
68.7073
69.797
71.4257
72.7972
74.0771
75.3458
76.4227
77.4589
78.3827
79.2516
80.0736
80.8581
81.6336
82.3953
83.2129
84.0059
84.9773
85.6597
86.6936
54.0528
56.398
58.609
60.4351
62.0906
63.3728
64.7099
65.8672
66.9912
68.044
69.0471
70.0223
70.9691
71.9178
72.8404
73.8086
74.7073
75.7598
76.5103
77.6312
26.8484
29.5486
32.043
33.9902
36.1535
37.8802
39.8256
41.5776
43.3537
45.0731
46.7674
48.4603
50.1574
51.9009
53.6585
55.5029
57.2749
59.1778
60.6094
62.7153
2.00861
2.18664
2.98715
2.88472
3.7739
3.96996
4.67753
5.08536
5.67452
6.24158
6.89326
7.61414
8.43935
9.43776
10.6318
12.2282
14.2108
17.8517
20.6721
24.534
-4.96937
-9.91105
-10.9794
-13.8916
-15.4425
-17.9702
-19.7172
-21.7268
-23.0736
-24.0886
-24.5342
-24.5724
-24.1971
-23.5057
-22.592
-21.5299
-20.271
-18.862
-17.5808
-13.9493
42.3934
35.5936
32.9658
27.9857
24.4227
19.5515
15.1766
10.2015
5.637
1.14956
-2.77335
-6.20946
-8.91918
-10.8604
-11.8957
-12.2984
-12.2354
-10.832
-11.0406
-11.4356
102.834
99.9385
99.0375
96.8031
95.7159
93.755
92.4632
90.663
89.1057
87.2303
85.2611
82.9267
80.2315
77.1481
73.9605
70.9464
68.7728
68.6344
68.5708
64.0525
107.522
108.47
108.971
108.889
109.622
109.266
109.474
108.788
108.07
106.781
105.277
103.503
101.623
99.723
97.991
96.6276
95.7413
95.1298
95.2099
93.7848
89.988
92.2021
93.958
94.7748
97.0054
97.9559
99.8875
101.157
102.615
103.669
104.41
104.657
104.376
103.632
102.764
102.238
102.604
103.622
104.597
105.035
67.9191
69.8845
72.0016
72.3432
74.8331
75.4403
77.3538
78.5255
80.0384
81.4477
82.8826
84.3282
85.7552
87.16
88.5233
89.9072
91.2693
92.8423
94.0755
95.6634
39.9247
41.3485
44.0888
44.0849
47.1644
47.61
49.9721
51.2016
53.036
54.64
56.3372
58.0464
59.7794
61.5703
63.3889
65.3089
67.1838
69.2701
70.8978
73.3313
12.9096
12.3438
14.9311
13.7114
16.4108
15.7159
17.6523
17.9121
19.2435
20.1135
21.2837
22.4781
23.8358
25.3947
27.1245
29.1504
31.2561
33.8306
35.8987
39.2722
3.96809
0.91533
2.29306
-0.684656
0.336666
-2.21763
-2.07833
-3.87396
-4.43371
-5.66604
-6.42195
-7.14509
-7.48368
-7.48325
-7.12755
-6.33992
-5.39275
-3.94074
-2.86025
0.103983
26.0139
21.8946
22.9041
18.8029
19.1921
15.7476
14.9501
12.2082
10.4782
7.99034
5.78257
3.41068
1.25373
-0.754346
-2.47038
-3.98601
-5.20662
-5.96474
-7.14204
-6.05929
54.8345
51.1681
53.0093
48.8709
50.6086
47.9863
48.4511
47.2139
46.9913
46.3178
45.8747
45.3207
44.769
44.1121
43.3046
42.2447
40.8809
39.0045
36.1129
33.5524
75.5176
71.754
74.6304
68.6649
69.8183
66.1229
65.2909
63.1717
61.9331
60.6045
59.6478
58.8828
58.3847
58.1087
58.0041
57.9759
57.9648
57.6406
56.8091
55.9467
63.8562
57.5096
66.1294
59.6921
62.2794
59.5031
58.8789
57.0007
55.4608
53.6752
51.9558
50.2575
48.6792
47.2722
46.1429
45.3863
45.0948
45.6677
46.6652
48.1027
74.8984
52.412
60.4907
49.4324
46.6568
40.0279
35.0904
29.8617
25.3465
21.3349
18.0544
15.5537
13.9265
13.2578
13.6936
15.1957
17.6643
21.2692
24.9179
27.419
766.415
683.491
634.322
578.024
529.004
481.737
437.833
396.417
357.501
320.804
286.159
253.369
222.214
192.601
164.532
137.181
110.796
89.7722
65.9734
29.8756
774.647
691.722
642.552
586.252
537.231
489.963
446.059
404.642
365.724
329.026
294.38
261.589
230.434
200.82
172.75
145.399
119.015
97.9948
74.1992
38.0996
83.1126
60.6248
68.7028
57.6435
54.8669
48.2369
43.2983
38.0686
33.5523
29.5396
26.2581
23.7564
22.1282
21.4584
21.8928
23.3935
25.8611
29.4631
33.1067
35.6068
72.0597
65.7136
74.3333
67.8961
70.4832
67.707
67.0826
65.2043
63.6643
61.8786
60.1591
58.4607
56.8824
55.4752
54.3453
53.5883
53.2962
53.8706
54.8715
56.3161
83.746
79.9872
82.8661
76.9041
78.0606
74.3687
73.5402
71.4248
70.19
68.8656
67.9132
67.1525
66.6588
66.3873
66.2873
66.2632
66.2557
65.9356
65.1108
64.2574
63.1459
59.4842
61.3282
57.1931
58.9349
56.3159
56.7849
55.5514
55.3327
54.663
54.2237
53.6735
53.1254
52.4723
51.6681
50.6107
49.25
47.3768
44.4878
41.923
34.3369
30.2167
31.2263
27.1246
27.514
24.0698
23.2727
20.5316
18.8027
16.3162
14.1103
11.7405
9.5858
7.57973
5.86495
4.34934
3.12757
2.36678
1.18616
2.26175
12.2394
9.18275
10.5582
7.57887
8.59687
6.04101
6.17718
4.37906
3.8161
2.58022
1.82041
1.09282
0.749245
0.743998
1.09372
1.8751
2.81577
4.26225
5.33908
8.29894
21.114
20.5433
23.1289
21.9064
24.6027
23.9042
25.8372
26.0927
27.42
28.2852
29.4507
30.6403
31.9936
33.5488
35.2756
37.2996
39.4041
41.9783
44.0455
47.4189
48.1184
49.5388
52.2784
52.2724
55.3506
55.7941
58.155
59.3825
61.2157
62.8185
64.5148
66.2233
67.956
69.7468
71.5655
73.4857
75.3609
77.4478
79.0756
81.5115
76.0908
78.0568
80.1752
80.5171
83.0081
83.616
85.5306
86.7034
88.2175
89.628
91.064
92.5102
93.9376
95.3426
96.7064
98.0916
99.4556
101.031
102.267
103.858
98.2217
100.434
102.189
103.003
105.231
106.178
108.105
109.369
110.821
111.87
112.607
112.852
112.575
111.839
110.986
110.48
110.863
111.892
112.869
113.311
115.666
116.617
117.117
117.036
117.769
117.416
117.628
116.95
116.244
114.971
113.487
111.738
109.886
108.016
106.315
104.979
104.109
103.499
103.576
102.158
111.211
108.339
107.448
105.231
104.16
102.216
100.94
99.1556
97.6107
95.7442
93.778
91.44
88.7331
85.6303
82.4177
79.3774
77.1797
77.0237
76.9578
72.4431
50.9747
44.1765
41.5456
36.5664
33.0021
28.1299
23.7532
18.777
14.2117
9.72405
5.80109
2.36542
-0.344075
-2.28281
-3.31463
-3.71447
-3.64872
-2.26425
-2.48588
-2.90934
3.42329
-1.51587
-2.59175
-5.50887
-7.06774
-9.60396
-11.3631
-13.3857
-14.7478
-15.7794
-16.2441
-16.3029
-15.9499
-15.2807
-14.3883
-13.3464
-12.0993
-10.6978
-9.42031
-5.79272
11.0322
11.1743
11.9114
11.7563
12.5981
12.7479
13.4074
13.7666
14.3066
14.8258
15.4318
16.1106
16.8987
17.8662
19.0371
20.6198
22.6046
26.2381
29.0494
32.8963
35.1679
37.8956
40.3141
42.2162
44.3369
46.0251
47.9311
49.6457
51.3857
53.0723
54.738
56.4073
58.0861
59.8169
61.567
63.4084
65.1815
67.0861
68.5238
70.6286
64.6915
66.8741
68.8829
70.5317
72.0479
73.2074
74.4296
75.4793
76.4954
77.4436
78.3435
79.2188
80.0703
80.9294
81.7698
82.6621
83.4955
84.4838
85.1938
86.2502
72.3462
75.4956
76.4639
78.013
79.326
80.5654
81.8038
82.8466
83.8439
84.7188
85.5458
86.3324
87.0868
87.8386
88.5804
89.3795
90.1507
91.0903
91.7377
92.7028
130.612
131.049
129.321
128.303
126.376
124.442
122.353
120.09
117.461
115.102
112.934
110.937
109.169
107.633
106.345
105.253
104.366
103.531
102.959
101.843
)
;

boundaryField
{
    outletWall
    {
        type            fixedValue;
        value           uniform 0;
    }
    fineWalls
    {
        type            zeroGradient;
    }
    fineFrontAndBack
    {
        type            zeroGradient;
    }
    fineplugLeft
    {
        type            cyclicAMI;
        value           nonuniform List<scalar> 
20
(
82.9231
83.3957
82.8724
82.9429
83.2457
83.9187
84.7433
85.7593
86.9123
88.2186
89.6352
91.1954
92.8016
98.336
98.3365
99.34
101.006
100.828
97.9928
94.0915
)
;
    }
    fineplugRight
    {
        type            cyclicAMI;
        value           nonuniform List<scalar> 
20
(
81.0534
82.4571
82.4841
83.2834
84.2163
85.5459
87.0023
88.6485
90.4208
92.3573
94.3554
96.43
98.7336
107.943
107.439
108.436
110.015
109.592
106.944
103.63
)
;
    }
    inletOutletLeft
    {
        type            cyclicAMI;
        value           nonuniform List<scalar> 
20
(
82.9231
83.3957
82.8724
82.9429
83.2457
83.9187
84.7433
85.7593
86.9123
88.2186
89.6352
91.1954
92.8016
98.336
98.3365
99.34
101.006
100.828
97.9928
94.0915
)
;
    }
    inletLeft
    {
        type            zeroGradient;
    }
    inletWallsLeft
    {
        type            zeroGradient;
    }
    inletFacesLeft
    {
        type            zeroGradient;
    }
    inletOutletRight
    {
        type            cyclicAMI;
        value           nonuniform List<scalar> 
20
(
81.0534
82.4571
82.4841
83.2834
84.2163
85.5459
87.0023
88.6485
90.4208
92.3573
94.3554
96.43
98.7336
107.943
107.439
108.436
110.015
109.592
106.944
103.63
)
;
    }
    inletRight
    {
        type            zeroGradient;
    }
    inletWallsRight
    {
        type            zeroGradient;
    }
    inletFacesRight
    {
        type            zeroGradient;
    }
}


// ************************************************************************* //
