/*--------------------------------*- C++ -*----------------------------------*\
| =========                 |                                                 |
| \\      /  F ield         | OpenFOAM: The Open Source CFD Toolbox           |
|  \\    /   O peration     | Version:  4.1                                   |
|   \\  /    A nd           | Web:      www.OpenFOAM.org                      |
|    \\/     M anipulation  |                                                 |
\*---------------------------------------------------------------------------*/
FoamFile
{
    version     2.0;
    format      ascii;
    class       surfaceScalarField;
    location    "23";
    object      phi;
}
// * * * * * * * * * * * * * * * * * * * * * * * * * * * * * * * * * * * * * //

dimensions      [0 3 -1 0 0 0 0];

internalField   nonuniform List<scalar> 
2360
(
-2630.3
-720.153
-1910.15
-720.15
-720.153
1478.68
-2198.84
1478.68
1478.69
1478.68
3669.06
-2190.38
3669.06
3669.06
6061.6
-2392.54
6061.6
6061.6
8718.69
-2657.09
8718.69
8718.69
12274.1
-3555.37
12274.1
12274.1
12993.4
14684.1
16448.4
18028
19419.3
20670.5
15257.7
6591.33
16352
17375.2
18328.9
19214.1
20031.1
20779.2
21458
22073.5
22649.7
23234.6
23879.4
24585.9
25182.8
8869
16313.8
8869
8869
8869
365.567
8503.43
365.566
365.562
365.562
-787.219
1152.78
-787.22
-787.221
-6855.93
6068.71
-6855.93
-6855.93
-6855.93
-16096.4
9240.52
-16096.4
-16096.4
-16096.4
-28067.5
11971.1
-27440.2
-26726.2
-26074.3
-25478
-24885.2
-24252.2
-23558.6
-22801.1
-21980.1
-21095.7
-20146.5
-19131.2
-18047.6
-18955.8
2081.82
-17698.6
-16299.9
-14712.9
-12951.6
-11293.5
-10649.3
-10649.3
-10649.3
-3445.02
-7204.28
-3445.02
-3445.03
2611.73
-6056.76
2611.73
2611.73
7457.73
-4846
7457.73
7457.73
11313.1
-3855.33
11313.1
11313.1
11313.1
14971.5
-3658.49
14971.5
14971.5
19113.2
-4141.7
-1860.61
7379.74
-2013.28
10620.7
-2075.41
12726.1
-2096.25
14000.5
-1943.83
15425.7
-1486.08
15605.6
-206.468
13642.2
961.395
8888.67
974.604
3570.18
168.639
2185.84
-448.521
12865.9
-747.091
20026.9
-612.592
26614.1
-141.825
30227.1
537.62
29662.5
1449.46
26852.6
2337.94
20962.5
3343.43
8880.1
-3798.68
-1879.72
7570.44
-2036.83
10777.8
-2087.54
12776.8
-2084.49
13997.5
-1881.58
15222.8
-1375.03
15099.1
-213.413
12480.6
835.502
7839.76
1120.75
3284.94
259.746
3046.84
-457.406
13583.1
-818.644
20388.2
-722.879
26518.3
-266.236
29770.4
412.615
28983.6
1391.31
25873.9
2415.17
19938.7
3152.83
8142.44
-4304.34
-1925.36
7780.11
-2087.29
10939.7
-2125.64
12815.2
-2081.47
13953.3
-1778.42
14919.7
-1197.33
14518
-128.86
11412.1
1125.32
6585.58
1812.32
2597.94
620.459
4238.71
-488.169
14691.7
-945.275
20845.3
-908.449
26481.5
-477.336
29339.3
202.104
28304.2
1255.01
24821
2480.79
18712.9
3499.24
7123.99
-4660.43
-2007.59
8006.4
-2170.78
11102.9
-2200.22
12844.6
-2088.08
13841.1
-1569.21
14400.8
-765.896
13714.7
477.181
10169.1
2097.98
4964.78
2797.94
1897.98
942.354
6094.29
-572.985
16207
-1134.22
21406.5
-1161.88
26509.1
-772.129
28949.5
-107.332
27639.4
1018.64
23695
2444.85
17286.7
3976.3
5592.54
-5530.13
-2124.73
8250.27
-2297.67
11275.8
-2343.29
12890.3
-2172.88
13670.7
-1341.53
13569.5
62.1213
12311
1868.08
8363.11
3661.13
3171.73
3669.85
1889.26
980.094
8784.05
-781.964
17969.1
-1413.74
22038.3
-1499.56
26594.9
-1164.55
28614.5
-530.86
27005.7
671.904
22492.3
2222.62
15735.9
4423.9
3391.26
-7162.98
-2279.53
8512.54
-2483.24
11479.6
-2590.74
12997.8
-2383.19
13463.2
-1213.1
12399.4
886.658
10211.3
3130.23
6119.54
4551.64
1750.31
3588.81
2852.09
493.279
11879.6
-1154.63
19617
-1795.41
22679.1
-1925.25
26724.8
-1660.96
28350.2
-1074.63
26419.4
221.166
21196.5
2162.26
13794.9
5394.04
159.484
-8973.22
-2475.35
8798.93
-2746.87
11751.1
-2952.73
13203.6
-2582.51
13093
-748.33
10565.2
1839.38
7623.56
3990.77
3968.15
4648.34
1092.74
2592.76
4907.67
-419.679
14892
-1655.02
20852.3
-2269.95
23294
-2435.1
26889.9
-2256.62
28171.8
-1731.15
25893.9
-433.102
19898.4
2821.61
10540.1
5664.72
-2683.63
-1226.69
-2716.35
9123.29
-3109.87
12144.6
-3438.81
13532.6
-2710.8
12365
299.186
7555.22
3516.02
4406.73
5153.41
2330.76
4258.02
1988.13
971.422
8194.27
-1445.83
17309.3
-2224.23
21630.7
-2816.4
23886.2
-3024.61
27098.2
-2966.16
28113.3
-2601.97
25529.7
-1380.76
18677.2
1579.36
7580.02
-2339.05
1234.79
8405.32
-3002.37
9501.44
-3537.47
12679.7
-3852.35
13847.4
-2415.21
10927.8
1190.13
3949.87
4015.09
1581.78
4596.38
1749.46
2242.73
4341.78
-1064.27
11501.3
-2365.4
18610.4
-2834.01
22099.4
-3415.85
24468
-3691.36
27373.7
-3781.44
28203.4
-3493.33
25241.6
-2196.62
17380.5
-3079.14
8462.55
-8316.38
6472.03
9329.46
-3320.3
9938.57
-3954.67
13314.1
-3987.48
13880.2
-1165.46
8105.8
2352.15
432.265
3253.19
680.734
2191.78
2810.88
-741.218
7274.78
-2753.36
13513.4
-3170.29
19027.3
-3486.67
22415.7
-4061.06
25042.4
-4421.65
27734.3
-4627.83
28409.6
-4525.19
25139
-4979.65
17835
-8272.1
11755
-10151.7
8351.61
5246.48
-3640.77
10420.4
-4297.61
13970.9
-4077.28
13659.9
-1255.82
5284.34
1641.4
-2464.96
687.386
1634.75
-1370.43
4868.69
-3211.06
9115.41
-3923
14225.3
-3952.68
19057
-4198.15
22661.2
-4753.15
25597.4
-5184.03
28165.1
-5474.37
28699.9
-5858.02
25522.6
-7758.2
19735.1
-10237.7
14234.5
-8252.95
6366.89
-1853.69
-3933.32
10920.8
-4584.95
14622.5
-4414.78
13489.7
-2962.52
3832.09
-2511.79
-2915.69
-3019.62
2142.58
-4022.79
5871.86
-4730.26
9822.89
-4869.42
14364.5
-4784.93
18972.5
-4981.93
22858.2
-5493.72
26109.2
-5949.1
28620.5
-6311.84
29062.6
-7273.64
26484.4
-10097.3
22558.8
-12940.1
17077.3
-12768.7
6195.41
-6118.93
-4176.35
11416
-4850.06
15296.3
-5001.78
13641.5
-4597.57
3427.88
-4797.25
-2716.01
-5121.7
2467.03
-5635.43
6385.59
-5872
10059.5
-5822.29
14314.8
-5708.42
18858.7
-5856.09
23005.9
-6290.85
26543.9
-6710.42
29040.1
-7141.88
29494.1
-8515.43
27858
-11602.1
25645.5
-14537.6
20012.8
-15700.1
7357.88
-5505.22
-4358.03
11890.2
-5092.29
16030.5
-5735.88
14285.1
-6270.54
3962.53
-6654.53
-2332.01
-6681.66
2494.16
-6894.11
6598.04
-6951.87
10117.2
-6850.69
14213.6
-6738.13
18746.1
-6831.38
23099.1
-7149.11
26861.7
-7485.58
29376.5
-7995.33
30003.9
-9475.64
29338.3
-11497.9
27667.7
-10609.4
19124.3
-5601.19
2349.72
-4515.08
-4466.09
12334.3
-5273.24
16837.7
-6447.5
15459.3
-7881.82
5396.86
-8447.84
-1765.99
-8195.56
2241.87
-8118.38
6520.86
-8053.69
10052.5
-7941.95
14101.9
-7846.81
18651
-7880.01
23132.3
-8054.11
27035.8
-8315.81
29638.2
-8964.94
30653
-10319.6
30692.9
-10635.9
27984
-6026.53
14515
87.2479
-3764.06
-7983.2
-4495.66
12739.2
-5351.34
17693.4
-6997.46
17105.4
-9329.35
7728.75
-10274
-821.39
-9865.48
1833.4
-9478.94
6134.32
-9215.74
9789.32
-9025.81
13912
-8907.65
18532.8
-8871.39
23096.1
-8946.27
27110.7
-9268.99
29961
-10131.7
31515.7
-10991.9
31553.1
-9204.58
26196.7
-2642.38
7952.76
1698.89
-8105.32
-8941.4
-4436.84
13101.9
-5285.94
18542.5
-7221.4
19040.9
-10374
10881.4
-12039.8
844.348
-11767.6
1561.17
-11178.6
5545.34
-10659.6
9270.4
-10253.8
13506.2
-9995.83
18274.8
-9875.68
22975.9
-9967.3
27202.3
-10482.6
30476.2
-11342.1
32375.3
-11051.8
31262.8
-7068.83
22213.7
-893.201
1777.13
1674.63
-10673.2
-9659.31
-4300.09
13420.4
-5084.26
19326.6
-7047.94
21004.6
-10688.9
14522.4
-13212.7
3368.13
-13453.3
1801.82
-12972.5
5064.51
-12360.6
8658.5
-11741.4
12886.9
-11285.1
17818.5
-11088.9
22779.7
-11280
27393.4
-11907.6
31103.8
-12252.2
32719.9
-10225
29235.6
-4019.87
16008.6
1214.41
-3457.15
1934
-11392.7
-9915.69
-4110.77
13701.3
-4795.86
20011.7
-6620.39
22829.1
-10578.3
18480.2
-14063.2
6853.11
-15069.1
2807.72
-14970.2
4965.6
-14555.6
8243.88
-13924.3
12255.6
-13378
17272.2
-13160.6
22562.3
-13345
27577.7
-13566.1
31324.9
-12553
31706.8
-8571.23
25253.8
-2167.21
9604.55
1468.91
-7093.27
2060.7
-11984.5
-10053.8
-3684.98
-4278.7
-5622.86
-8771.41
-12344.5
-14406.3
-15428.1
-15968
-16033.7
-15829.5
-15522
-15011.9
-13785.9
-10927.7
-6013.98
-1163.83
1095
2047.61
-20.8372
-698.487
210.835
-1922.39
439.935
-1993.37
605.625
-1745.26
730.876
-1516.57
834.842
-1355.22
891.827
-1235.42
936.881
-1139.44
966.402
-1052.7
981.626
-968.88
983.219
-886.749
971.884
-805.733
948.792
-724.954
914.151
-644.168
865.251
-566.556
792.446
-503.48
681.156
-473.61
515.88
-479.483
293.069
-483.681
-303.811
-34.9945
-663.487
-48.4149
-1908.96
0.375773
-2042.16
49.0268
-1793.91
100.506
-1568.05
157.834
-1412.54
225.25
-1302.84
291.373
-1205.56
351.8
-1113.12
405.357
-1022.43
452.203
-933.591
493.285
-846.811
530.425
-762.091
564.726
-678.465
593.742
-595.569
603.273
-513.008
565.992
-436.328
447.606
-361.097
241.971
-278.044
-61.8401
75.9533
-739.436
110.248
-1943.25
172.59
-2104.5
238.405
-1859.72
307.826
-1637.47
380.497
-1485.2
451.819
-1374.15
518.993
-1272.73
578.033
-1172.16
625.121
-1069.52
657.071
-965.539
671.763
-861.499
668.482
-758.807
647.833
-657.813
611.015
-558.749
556.485
-458.474
476.787
-356.63
357.603
-241.911
183.133
-103.571
121.293
311.339
-1050.77
430.573
-2062.49
442.858
-2116.78
458.939
-1875.8
510.73
-1689.26
582.901
-1557.37
662.843
-1454.1
739.616
-1349.5
806.696
-1239.24
858.59
-1121.41
891.827
-998.774
903.694
-873.365
891.851
-746.963
853.989
-619.949
788.191
-492.95
692.533
-362.815
566.125
-230.221
408.104
-83.8876
211.501
93.0341
332.795
483.021
-1533.79
629.992
-2209.46
590.638
-2077.43
583.949
-1869.11
643.614
-1748.92
734.659
-1648.42
838.045
-1557.48
935.392
-1446.85
1017.1
-1320.94
1076.91
-1181.21
1113.9
-1035.77
1126.35
-885.806
1111.35
-731.966
1063.98
-572.576
977.189
-406.162
835.729
-221.354
524.53
80.9796
327.757
112.887
161.189
259.603
493.984
364.43
-1898.22
338.478
-2183.5
228.54
-1967.49
189.471
-1830.04
202.333
-1761.78
235.677
-1681.76
273.82
-1595.62
297.304
-1470.33
297.864
-1321.5
274.558
-1157.91
231.288
-992.496
167.818
-822.335
83.1449
-647.29
-22.3578
-467.072
-138.726
-289.789
-224.984
-135.078
-66.5007
-77.4849
-124.268
170.66
-159.853
295.192
334.131
5.89776
-1904.12
-155.826
-2021.78
-293.68
-1829.64
-405.452
-1718.27
-511.59
-1655.64
-616.298
-1577.05
-724.246
-1487.67
-840.119
-1354.46
-964.445
-1197.18
-1093.53
-1028.82
-1224.68
-861.343
-1355.61
-691.401
-1479.63
-523.27
-1582.33
-364.373
-1643.79
-228.327
-1637.68
-141.182
-1593.51
-121.652
-1259.74
-163.108
-689.19
-275.357
-355.059
-213.579
-1690.54
-317.568
-1917.79
-431.98
-1715.23
-594.229
-1556.02
-777.645
-1472.23
-979.819
-1374.88
-1188.33
-1279.16
-1391.68
-1151.11
-1581.55
-1007.31
-1757.43
-852.949
-1919.61
-699.169
-2060.94
-550.067
-2163.01
-421.196
-2192.48
-334.908
-2107.82
-312.991
-1881.34
-367.658
-1500.46
-502.529
-964.924
-698.646
-385.832
-854.448
-740.891
-111.231
-1579.31
-92.8372
-1936.19
-92.9196
-1715.14
-139.271
-1509.67
-202.898
-1408.6
-285.962
-1291.82
-371.329
-1193.79
-441.363
-1081.07
-479.87
-968.798
-481.357
-851.46
-445.335
-735.188
-372.293
-623.106
-267.415
-526.07
-140.452
-461.866
-1.73812
-451.701
137.059
-506.451
242.516
-607.984
261.583
-717.711
157.967
-750.83
-582.924
17.2277
-1596.54
74.2842
-1993.24
134.4
-1775.26
182.544
-1557.81
229.15
-1455.21
272.138
-1334.81
315.758
-1237.41
367.826
-1133.14
436.521
-1037.49
529.567
-944.508
649.34
-854.962
793.89
-767.658
950.127
-682.309
1089.3
-601.039
1167.3
-529.702
1139.56
-478.707
985.143
-453.57
710.154
-442.723
364.508
-405.185
-218.415
96.7593
-1693.3
143.601
-2040.09
191.121
-1822.78
248.523
-1615.22
315.834
-1522.52
382.248
-1401.22
451.579
-1306.74
520.525
-1202.09
588.692
-1105.66
654.12
-1009.94
715.556
-916.399
771.484
-823.586
819.98
-730.805
856.401
-637.459
870.61
-543.912
841.869
-449.968
746.103
-357.805
562.833
-259.454
300.51
-142.865
82.0943
155.823
-1849.12
169.57
-2053.84
207.376
-1860.59
262.22
-1670.06
331.013
-1591.31
394.136
-1464.34
463.196
-1375.81
531.85
-1270.74
604.382
-1178.2
675.177
-1080.73
739.913
-981.137
790.31
-873.985
818.631
-759.129
818.518
-637.349
786.107
-511.504
717.172
-381.035
605.9
-246.535
441.671
-95.2282
227.053
71.7481
309.148
164.009
-2013.13
136.592
-2026.42
169.797
-1893.79
219.419
-1719.69
282.106
-1654
341.357
-1523.6
410.903
-1445.35
483.139
-1342.98
564.34
-1259.4
646.854
-1163.25
724.332
-1058.62
783.229
-932.883
813.589
-789.49
809.248
-633.009
765.456
-467.714
677.613
-293.193
543.641
-112.565
358.556
89.8535
180.87
249.431
490.018
87.6212
-2100.76
27.3211
-1966.12
33.3249
-1899.8
47.2949
-1733.66
68.2586
-1674.97
91.5873
-1546.93
122.8
-1476.57
159.618
-1379.8
203.673
-1303.46
248.424
-1208
286.222
-1096.42
306.956
-953.62
308.989
-791.526
293.375
-617.399
253.449
-427.793
194.166
-233.917
152.638
-71.0451
98.7007
143.783
0.759684
347.367
490.777
-21.1142
-2079.64
-87.3523
-1899.88
-127.37
-1859.78
-168.619
-1692.41
-209.211
-1634.38
-246.623
-1509.52
-285.381
-1437.81
-320.612
-1344.57
-355.668
-1268.4
-387.482
-1176.19
-415.807
-1068.09
-435.095
-934.335
-439.916
-786.707
-431.597
-625.721
-424.957
-434.436
-440.103
-218.775
-479.218
-31.9341
-482.302
146.865
-379.375
244.437
111.403
-50.9374
-2028.71
-106.727
-1844.1
-156.611
-1809.9
-213.49
-1635.54
-272.258
-1575.61
-332.091
-1449.69
-399.532
-1370.37
-469.955
-1274.15
-546.053
-1192.3
-618.419
-1103.83
-676.529
-1009.99
-706.613
-904.252
-705.317
-788.005
-676.697
-654.342
-621.547
-489.588
-546.848
-293.477
-475.409
-103.374
-414.14
85.5944
-296.152
126.447
-184.749
-32.9125
-1995.8
-84.7655
-1792.25
-116.832
-1777.84
-143.65
-1608.72
-170.709
-1548.55
-188.776
-1431.62
-208.991
-1350.16
-226.155
-1256.99
-243.804
-1174.66
-256.025
-1091.61
-256.083
-1009.93
-236.723
-923.615
-196.342
-828.387
-133.226
-717.46
-38.8506
-583.967
90.7715
-423.102
222.399
-235.007
278.087
29.9026
225.74
178.79
40.9905
-139.67
-1856.13
-299.611
-1632.31
-420.895
-1656.55
-503.063
-1526.55
-574.43
-1477.19
-614.565
-1391.49
-640.59
-1324.14
-646.416
-1251.17
-638.072
-1183
-614.653
-1115.03
-576.774
-1047.81
-522.151
-978.239
-447.244
-903.295
-346.402
-818.302
-215.25
-715.121
-60.6749
-577.678
84.5432
-380.227
214.2
-99.7566
234.403
158.586
275.393
-200.777
-1655.35
-439.688
-1393.39
-693.149
-1403.09
-902.136
-1317.56
-1101.24
-1278.08
-1265.73
-1227
-1405.98
-1183.89
-1517.07
-1140.07
-1602.28
-1097.8
-1661.73
-1055.57
-1696.24
-1013.3
-1704.25
-970.233
-1682.1
-925.445
-1623.61
-876.787
-1519.24
-819.491
-1351.92
-745.005
-1095.55
-636.591
-728.795
-466.514
-330.972
-239.237
-55.5787
-680.351
-1098.75
-1526.84
-1869.4
-2172.48
-2424.49
-2633.37
-2798.45
-2921.24
-3001.81
-3040.12
-3035.35
-2985.79
-2887.58
-2732.07
-2502.08
-2163.67
-1655.18
-919.421
-680.369
1655.37
-1098.78
1393.41
-1526.89
1403.11
-1869.48
1317.59
-2172.58
1278.1
-2424.61
1227.03
-2633.52
1183.91
-2798.62
1140.1
-2921.45
1097.82
-3002.05
1055.6
-3040.38
1013.33
-3035.65
970.266
-2986.13
925.482
-2887.96
876.831
-2732.5
819.536
-2502.53
745.028
-2164.05
636.528
-1655.36
466.31
-919.373
239.011
55.6267
-200.791
1856.16
-439.712
1632.34
-693.182
1656.58
-902.174
1526.58
-1101.28
1477.21
-1265.77
1391.51
-1406.01
1324.16
-1517.09
1251.19
-1602.28
1183.01
-1661.72
1115.04
-1696.19
1047.81
-1704.17
978.238
-1681.99
903.306
-1623.5
818.348
-1519.19
715.219
-1351.95
577.794
-1095.67
380.245
-728.932
99.5729
-331.134
-158.787
-275.507
-139.625
1995.79
-299.504
1792.21
-420.735
1777.81
-502.83
1608.67
-574.124
1548.51
-614.172
1431.56
-640.101
1350.09
-645.817
1256.9
-637.354
1174.55
-613.809
1091.49
-575.808
1009.81
-521.067
923.499
-446.056
828.295
-345.144
717.436
-214.009
584.085
-59.6322
423.418
85.091
235.523
214.057
-29.3919
233.725
-178.454
-41.7823
-32.7988
2028.59
-84.5554
1843.97
-116.517
1809.78
-143.227
1635.38
-170.178
1575.46
-188.132
1449.51
-208.233
1370.19
-225.282
1273.95
-242.819
1192.09
-254.929
1103.6
-254.888
1009.77
-235.453
904.064
-195.022
787.865
-131.843
654.258
-37.3592
489.601
92.4186
293.641
224.273
103.67
279.648
-84.7659
226.533
-125.338
184.751
-50.9302
2079.52
-106.723
1899.76
-156.606
1859.66
-213.51
1692.29
-272.297
1634.25
-332.175
1509.39
-399.666
1437.68
-470.161
1344.45
-546.338
1268.27
-618.776
1176.04
-676.926
1067.92
-707.024
934.163
-705.729
786.57
-677.049
625.579
-621.698
434.251
-546.743
218.687
-474.961
31.8878
-412.924
-146.802
-294.643
-243.618
-109.892
-21.2953
2100.81
-87.5772
1966.05
-127.702
1899.79
-169.082
1733.67
-209.812
1674.98
-247.378
1546.96
-286.31
1476.61
-321.735
1379.87
-357.006
1303.54
-389.037
1208.07
-417.554
1096.44
-436.976
953.585
-441.876
791.47
-433.612
617.315
-427.032
427.671
-442.269
233.925
-481.446
71.0646
-484.214
-144.034
-380.474
-347.358
-490.366
87.4214
2013.39
27.0308
2026.44
32.9148
1893.9
46.7553
1719.83
67.5741
1654.16
90.7677
1523.76
121.833
1445.55
158.509
1343.2
202.411
1259.64
247.003
1163.48
284.632
1058.81
305.223
932.994
307.179
789.515
291.548
632.947
251.668
467.552
192.651
292.942
151.53
112.187
97.6967
-90.1995
0.00303948
-249.664
-490.363
164.023
1849.37
136.498
2053.96
169.656
1860.74
219.241
1670.24
281.889
1591.51
341.112
1464.54
410.64
1376.02
482.872
1270.96
564.076
1178.43
646.587
1080.97
724.045
981.348
782.894
874.144
813.197
759.212
808.802
637.342
764.955
511.399
677.074
380.823
543.05
246.21
358.059
94.7918
180.675
-72.279
-309.688
156.002
1693.37
169.651
2040.31
207.415
1822.98
262.251
1615.41
331.05
1522.71
394.177
1401.41
463.251
1306.95
531.923
1202.29
604.489
1105.87
675.327
1010.13
740.106
916.57
790.527
823.724
818.84
730.899
818.69
637.493
786.206
543.883
717.157
449.872
605.761
357.606
441.481
259.072
226.928
142.275
-82.7601
97.0248
1596.34
143.819
1993.52
191.283
1775.52
248.667
1558.02
315.992
1455.39
382.392
1335.01
451.708
1237.63
520.615
1133.38
588.731
1037.75
654.069
944.791
715.386
855.253
771.172
767.938
819.506
682.565
855.731
601.268
869.752
529.863
840.892
478.732
745.152
453.347
562.089
442.136
300.063
404.301
217.303
17.4286
1578.91
74.4483
1936.5
134.551
1715.41
182.796
1509.78
229.565
1408.62
272.775
1291.8
316.651
1193.76
368.957
1081.08
437.815
968.895
530.924
851.682
650.64
735.537
794.984
623.593
950.878
526.672
1089.62
462.523
1167.21
452.275
1139.24
506.707
984.889
607.693
710.032
716.992
364.568
749.766
581.87
-110.621
1689.53
-91.7955
1917.67
-91.3043
1714.92
-136.995
1555.47
-199.934
1471.56
-282.24
1374.11
-366.807
1278.32
-436.028
1150.3
-473.753
1006.62
-474.482
852.41
-437.755
698.809
-364.101
549.938
-258.705
421.274
-131.361
335.178
7.28207
313.63
145.142
368.845
248.847
503.987
265.568
700.271
159.639
855.694
741.51
-213.688
1903.22
-317.261
2021.25
-431.33
1828.99
-593.409
1717.55
-776.741
1654.89
-978.89
1576.26
-1187.36
1486.79
-1390.58
1353.53
-1580.23
1196.27
-1755.81
1027.99
-1917.61
860.609
-2058.46
690.785
-2159.9
522.719
-2188.7
363.971
-2103.57
228.505
-1876.88
142.153
-1495.94
123.05
-960.891
165.217
-383.779
278.582
357.731
5.31858
1897.9
-156.425
2182.99
-294.422
1966.99
-406.493
1829.62
-512.993
1761.39
-618.129
1681.39
-726.531
1595.19
-842.835
1469.83
-967.534
1320.97
-1096.94
1157.39
-1228.38
992.048
-1359.56
821.966
-1483.79
646.955
-1586.66
466.842
-1648.1
289.944
-1641.37
135.416
-1594.24
75.9182
-1259.6
-169.415
-688.61
-292.411
-330.879
365.183
1532.72
339.441
2208.73
229.423
2077.01
190.235
1868.81
202.971
1748.65
236.128
1648.23
273.998
1557.32
297.145
1446.68
297.352
1320.76
273.726
1181.02
230.195
1035.58
166.526
885.634
81.7073
731.773
-23.7801
572.328
-139.618
405.78
-224.731
220.522
-70.1028
-78.717
-127.417
-112.103
-162.077
-257.752
-492.957
486.735
1045.98
635.797
2059.67
596.187
2116.62
588.837
1876.16
648.295
1689.2
739.387
1557.14
842.873
1453.83
940.295
1349.26
1022.05
1239.01
1081.85
1121.21
1118.83
998.607
1131.22
873.238
1116.12
746.878
1068.51
619.935
981.244
493.047
838.647
363.119
528.873
231.057
331.213
85.5574
164.009
-90.548
-328.948
319.505
726.479
444.159
1935.01
456.773
2104
472.12
1860.81
523.691
1637.62
596.058
1484.77
676.267
1373.63
753.058
1272.47
819.872
1172.2
871.259
1069.82
903.78
966.086
914.742
862.276
901.896
759.724
863.033
658.797
796.252
559.828
699.577
459.794
572.378
358.255
413.872
244.063
217.22
106.103
-111.728
93.9457
632.533
131.617
1897.34
192.55
2043.07
255.605
1797.76
323.166
1570.06
394.528
1413.41
464.862
1303.29
531.809
1205.52
591.165
1112.84
638.859
1022.13
671.546
933.399
687.014
846.808
684.242
762.496
663.421
679.619
625.583
597.666
569.466
515.911
488.199
439.522
367.701
364.561
190.34
283.465
78.6121
6.64433
625.889
-0.554431
1904.54
46.994
1995.52
93.1153
1751.63
143.653
1519.53
201.611
1355.45
270.846
1234.06
337.049
1139.32
395.82
1054.07
446.341
971.604
489.095
890.646
524.927
810.976
555.174
732.25
580.871
653.923
600.491
578.047
601.826
514.575
560.089
481.259
441.374
483.276
238.896
485.943
317.508
-18.3047
228.137
462.391
626.984
747.858
846.029
906.546
962.216
1000.97
1023.42
1029.64
1019.64
994.334
954.726
899.769
821.555
706.501
537.849
309.837
)
;

boundaryField
{
    outletWall
    {
        type            calculated;
        value           nonuniform List<scalar> 
60
(
19113.2
3000.42
-9885.6
-21851
-27764.4
-30341.9
-30697.8
-26748.6
-19728.4
-12248.8
-1379.88
-3583.39
-10056.5
-14921.8
-16063.4
-15578.1
-13979.7
-12664
-10468
-7228.23
3412.57
3829.88
3981.63
4074.12
4090.77
4021.97
3883.83
3681.11
3432.94
3158.95
2883.17
2624.21
2391.99
2188.96
2017.26
1880.85
1781.3
1715.69
1689.02
1709.1
2630.3
-9916.36
-12937.1
-9352.11
4754.4
20340
28848.7
30098.9
27067.7
22254.7
17068
12321.3
8783.77
5987.4
4869.57
10426.1
21628.8
24173.3
20605.4
13973.7
)
;
    }
    fineWalls
    {
        type            calculated;
        value           uniform 0;
    }
    fineFrontAndBack
    {
        type            calculated;
        value           nonuniform List<scalar> 
960
(
-7.02433e-13
9.53688e-12
1.90331e-12
-1.61035e-12
-6.68984e-12
-8.62428e-13
-1.14089e-12
-2.67539e-13
-9.26816e-12
-2.33039e-12
-2.47144e-12
-8.11061e-12
-3.13745e-13
-1.82114e-13
-1.30584e-12
1.85483e-13
3.11851e-13
-3.84688e-12
-6.98129e-13
-1.11685e-12
-9.42278e-14
-4.03693e-13
-4.36167e-13
-4.91868e-13
-5.22293e-13
-6.6408e-13
-9.36874e-12
-7.83676e-13
-7.96444e-13
-7.67741e-13
-7.15042e-13
-6.12799e-13
-4.56003e-13
-3.13189e-13
-2.23156e-13
-2.65965e-13
-3.91922e-13
-4.97872e-13
-4.30661e-13
-5.1723e-13
3.16505e-12
1.46514e-12
1.00373e-12
2.21977e-13
1.32189e-11
4.27692e-12
4.5585e-12
2.78732e-12
5.17331e-11
6.34162e-12
5.75902e-12
2.29531e-11
4.44782e-12
4.09742e-12
3.6238e-12
1.82318e-11
2.03593e-12
8.53577e-13
3.10442e-14
8.73544e-12
1.15472e-12
1.13787e-12
1.2766e-12
1.23433e-12
1.14532e-12
1.08948e-12
1.11e-12
1.17829e-12
1.25732e-12
1.35192e-12
1.42052e-12
1.45601e-12
1.48274e-12
2.56116e-11
1.33793e-12
1.13623e-12
1.13287e-12
1.06315e-12
1.05104e-12
6.93051e-13
4.67179e-12
4.37757e-12
2.86079e-11
6.85165e-12
7.39652e-12
3.42587e-11
7.48265e-12
6.80627e-12
3.18479e-11
7.11609e-12
6.17195e-12
3.79979e-11
8.63074e-12
8.99832e-12
9.51733e-12
4.66831e-11
8.79592e-12
8.91549e-12
4.70788e-11
1.02821e-11
-3.5167e-11
-3.51392e-11
-3.05088e-11
-2.64692e-11
-1.84522e-11
-8.74559e-12
-1.577e-12
-1.0772e-12
1.8291e-12
-1.77128e-12
-1.48567e-12
4.82304e-12
7.64794e-12
6.8207e-12
4.77112e-12
3.95732e-12
8.17412e-12
1.35077e-11
-9.30486e-12
-3.52654e-11
-3.48244e-11
-3.02532e-11
-2.59865e-11
-1.78288e-11
-8.25241e-12
-1.45965e-12
-1.24319e-12
2.36782e-12
-5.49805e-13
-1.44554e-12
4.89164e-12
7.65372e-12
6.8057e-12
4.77241e-12
3.93759e-12
7.92392e-12
1.40772e-11
-9.49608e-12
-3.53476e-11
-3.44275e-11
-2.99109e-11
-2.53597e-11
-1.7071e-11
-7.69359e-12
-1.15217e-12
-1.15136e-12
3.00067e-12
9.20575e-13
-1.38535e-12
4.98793e-12
7.66123e-12
6.77681e-12
4.76721e-12
3.9167e-12
7.60764e-12
1.44115e-11
-1.46815e-12
-3.53857e-11
-3.39949e-11
-2.9505e-11
-2.46269e-11
-1.62776e-11
-7.49583e-12
-1.9378e-12
-1.47184e-12
3.12265e-12
2.01167e-12
-1.26789e-12
5.12312e-12
7.66832e-12
6.72847e-12
4.74662e-12
3.90095e-12
7.29792e-12
1.43106e-11
4.61267e-12
-3.53714e-11
-3.35251e-11
-2.90075e-11
-2.37187e-11
-1.53736e-11
-7.71734e-12
-4.90904e-12
-3.11402e-12
4.0461e-12
3.07478e-12
-1.09397e-12
5.31391e-12
7.67439e-12
6.65601e-12
4.70159e-12
3.90639e-12
7.0955e-12
1.33112e-11
1.24176e-11
-3.52987e-11
-3.29996e-11
-2.83723e-11
-2.25939e-11
-1.43376e-11
-7.75462e-12
-7.1125e-12
-2.0699e-12
7.92105e-12
3.7495e-12
-8.16475e-13
5.60622e-12
7.66722e-12
6.53491e-12
4.60091e-12
3.9349e-12
6.94766e-12
9.58128e-12
2.02922e-11
-3.51606e-11
-3.23994e-11
-2.75438e-11
-2.12284e-11
-1.36127e-11
-9.24939e-12
-4.38996e-12
5.943e-12
1.33063e-11
2.93464e-12
-3.64095e-13
5.87156e-12
7.65487e-12
6.42028e-12
4.55119e-12
3.99967e-12
7.57201e-12
-1.3005e-12
2.06694e-11
-3.49435e-11
-3.17202e-11
-2.66849e-11
-2.01352e-11
-1.2102e-11
-5.14783e-12
9.49356e-12
2.14998e-11
1.56998e-11
1.31717e-12
5.17104e-13
6.44426e-12
7.58406e-12
6.00791e-12
3.92241e-12
4.61607e-12
6.35102e-12
2.47549e-12
1.85501e-11
-3.46466e-11
-3.10376e-11
-2.59986e-11
-1.88777e-11
-6.76421e-12
1.07332e-11
2.80644e-11
2.8402e-11
1.16151e-11
1.03079e-12
1.55628e-12
6.24255e-12
7.45172e-12
6.46461e-12
6.82314e-12
3.9408e-12
1.32549e-11
4.41956e-11
4.42787e-11
-3.43022e-11
-3.04927e-11
-2.53032e-11
-1.42175e-11
1.07887e-11
1.15337e-11
8.82263e-11
2.18363e-11
7.66676e-12
2.14032e-12
2.96811e-12
7.09973e-12
7.50477e-12
4.03754e-12
-7.31604e-12
9.04641e-12
3.73327e-11
5.83332e-11
4.57079e-11
-3.39665e-11
-3.00298e-11
-2.3521e-11
-4.4959e-12
3.09858e-11
1.91616e-11
3.44945e-11
1.18302e-11
6.31131e-12
3.7068e-12
5.23732e-12
9.21425e-12
6.95752e-12
7.91396e-13
-1.04952e-11
2.03334e-11
6.03624e-11
8.08095e-11
8.69196e-11
-3.36446e-11
-2.94201e-11
-2.04586e-11
6.10554e-12
3.19763e-11
1.47406e-11
6.80153e-12
1.22339e-11
7.39023e-12
6.27805e-12
8.65355e-12
1.09895e-11
5.47758e-12
-1.71606e-12
-4.07055e-12
3.40515e-11
6.52004e-11
4.26208e-11
1.50291e-11
-3.33081e-11
-2.86065e-11
-1.71165e-11
1.36594e-11
3.36915e-11
2.38446e-11
1.72639e-11
1.6359e-11
1.18637e-11
1.09027e-11
1.24229e-11
1.1219e-11
3.14323e-12
-2.63541e-12
4.81334e-12
4.12244e-11
4.47902e-11
-3.12794e-13
-5.33459e-12
-3.29432e-11
-2.76932e-11
-1.43126e-11
1.74294e-11
3.33778e-11
2.67273e-11
2.39715e-11
2.10264e-11
1.75888e-11
1.56939e-11
1.43124e-11
9.28091e-12
7.01777e-13
-1.28519e-12
1.35934e-11
4.0064e-11
2.29556e-11
-1.9189e-11
-1.72825e-11
-3.25657e-11
-2.68609e-11
-1.25297e-11
1.86077e-11
3.29376e-11
2.61491e-11
2.386e-11
2.22292e-11
1.9791e-11
1.68827e-11
1.27234e-11
5.88433e-12
-5.87036e-13
2.49118e-12
2.03437e-11
3.30243e-11
3.05692e-12
-3.6486e-11
-3.26308e-11
-3.22e-11
-2.62384e-11
-1.18994e-11
1.79295e-11
3.29699e-11
2.65631e-11
2.26172e-11
2.01502e-11
1.73627e-11
1.37737e-11
8.67861e-12
2.68043e-12
2.40258e-14
7.54193e-12
2.3207e-11
2.23714e-11
-1.0871e-11
-3.38897e-11
-2.77241e-11
-3.18751e-11
-2.58754e-11
-1.23134e-11
1.54092e-11
3.26913e-11
2.87731e-11
2.39389e-11
1.93477e-11
1.47381e-11
1.02002e-11
5.3623e-12
1.56686e-12
2.79304e-12
1.22702e-11
2.17284e-11
1.03842e-11
-2.25819e-11
-3.49618e-11
-2.43032e-11
-3.15197e-11
-2.57297e-11
-1.33844e-11
1.0988e-11
2.95854e-11
2.99516e-11
2.69449e-11
2.20312e-11
1.60214e-11
1.04372e-11
5.95352e-12
4.16139e-12
7.64346e-12
1.55784e-11
1.71863e-11
-1.43978e-12
-3.6336e-11
-3.59799e-11
-2.15883e-11
-3.13426e-11
-2.57467e-11
-1.46115e-11
5.90796e-12
2.43764e-11
2.93473e-11
3.07588e-11
2.85317e-11
2.32179e-11
1.73937e-11
1.30365e-11
1.20379e-11
1.51668e-11
1.84905e-11
1.16931e-11
-1.31507e-11
-4.45266e-11
-3.46165e-11
-1.95351e-11
-3.03722e-11
-2.61245e-11
-1.58935e-11
-9.4757e-13
1.10185e-11
1.51352e-11
2.15573e-11
2.61666e-11
2.69512e-11
2.55069e-11
2.34197e-11
2.19629e-11
2.05968e-11
1.52716e-11
-2.46069e-13
-2.64963e-11
-4.29617e-11
-3.21292e-11
-1.80759e-11
7.02433e-13
-9.53688e-12
-1.90331e-12
1.61035e-12
6.68984e-12
8.62428e-13
1.14089e-12
2.67539e-13
9.26816e-12
2.33039e-12
2.47144e-12
8.11061e-12
3.13745e-13
1.82114e-13
1.30584e-12
-1.85483e-13
-3.11851e-13
3.84688e-12
6.98129e-13
1.11685e-12
9.42278e-14
4.03693e-13
4.36167e-13
4.91868e-13
5.22293e-13
6.6408e-13
9.36874e-12
7.83676e-13
7.96444e-13
7.67741e-13
7.15042e-13
6.12799e-13
4.56003e-13
3.13189e-13
2.23156e-13
2.65965e-13
3.91922e-13
4.97872e-13
4.30661e-13
5.1723e-13
-3.16505e-12
-1.46514e-12
-1.00373e-12
-2.21977e-13
-1.32189e-11
-4.27692e-12
-4.5585e-12
-2.78732e-12
-5.17331e-11
-6.34162e-12
-5.75902e-12
-2.29531e-11
-4.44782e-12
-4.09742e-12
-3.6238e-12
-1.82318e-11
-2.03593e-12
-8.53577e-13
-3.10442e-14
-8.73544e-12
-1.15472e-12
-1.13787e-12
-1.2766e-12
-1.23433e-12
-1.14532e-12
-1.08948e-12
-1.11e-12
-1.17829e-12
-1.25732e-12
-1.35192e-12
-1.42052e-12
-1.45601e-12
-1.48274e-12
-2.56116e-11
-1.33793e-12
-1.13623e-12
-1.13287e-12
-1.06315e-12
-1.05104e-12
-6.93051e-13
-4.67179e-12
-4.37757e-12
-2.86079e-11
-6.85165e-12
-7.39652e-12
-3.42587e-11
-7.48265e-12
-6.80627e-12
-3.18479e-11
-7.11609e-12
-6.17195e-12
-3.79979e-11
-8.63074e-12
-8.99832e-12
-9.51733e-12
-4.66831e-11
-8.79592e-12
-8.91549e-12
-4.70788e-11
-1.02821e-11
3.5167e-11
3.51392e-11
3.05088e-11
2.64692e-11
1.84522e-11
8.74559e-12
1.577e-12
1.0772e-12
-1.8291e-12
1.77128e-12
1.48567e-12
-4.82304e-12
-7.64794e-12
-6.8207e-12
-4.77112e-12
-3.95732e-12
-8.17412e-12
-1.35077e-11
9.30486e-12
3.52654e-11
3.48244e-11
3.02532e-11
2.59865e-11
1.78288e-11
8.25241e-12
1.45965e-12
1.24319e-12
-2.36782e-12
5.49805e-13
1.44554e-12
-4.89164e-12
-7.65372e-12
-6.8057e-12
-4.77241e-12
-3.93759e-12
-7.92392e-12
-1.40772e-11
9.49608e-12
3.53476e-11
3.44275e-11
2.99109e-11
2.53597e-11
1.7071e-11
7.69359e-12
1.15217e-12
1.15136e-12
-3.00067e-12
-9.20575e-13
1.38535e-12
-4.98793e-12
-7.66123e-12
-6.77681e-12
-4.76721e-12
-3.9167e-12
-7.60764e-12
-1.44115e-11
1.46815e-12
3.53857e-11
3.39949e-11
2.9505e-11
2.46269e-11
1.62776e-11
7.49583e-12
1.9378e-12
1.47184e-12
-3.12265e-12
-2.01167e-12
1.26789e-12
-5.12312e-12
-7.66832e-12
-6.72847e-12
-4.74662e-12
-3.90095e-12
-7.29792e-12
-1.43106e-11
-4.61267e-12
3.53714e-11
3.35251e-11
2.90075e-11
2.37187e-11
1.53736e-11
7.71734e-12
4.90904e-12
3.11402e-12
-4.0461e-12
-3.07478e-12
1.09397e-12
-5.31391e-12
-7.67439e-12
-6.65601e-12
-4.70159e-12
-3.90639e-12
-7.0955e-12
-1.33112e-11
-1.24176e-11
3.52987e-11
3.29996e-11
2.83723e-11
2.25939e-11
1.43376e-11
7.75462e-12
7.1125e-12
2.0699e-12
-7.92105e-12
-3.7495e-12
8.16475e-13
-5.60622e-12
-7.66722e-12
-6.53491e-12
-4.60091e-12
-3.9349e-12
-6.94766e-12
-9.58128e-12
-2.02922e-11
3.51606e-11
3.23994e-11
2.75438e-11
2.12284e-11
1.36127e-11
9.24939e-12