/*--------------------------------*- C++ -*----------------------------------*\
| =========                 |                                                 |
| \\      /  F ield         | OpenFOAM: The Open Source CFD Toolbox           |
|  \\    /   O peration     | Version:  4.1                                   |
|   \\  /    A nd           | Web:      www.OpenFOAM.org                      |
|    \\/     M anipulation  |                                                 |
\*---------------------------------------------------------------------------*/
FoamFile
{
    version     2.0;
    format      ascii;
    class       volVectorField;
    location    "23";
    object      U;
}
// * * * * * * * * * * * * * * * * * * * * * * * * * * * * * * * * * * * * * //

dimensions      [0 1 -1 0 0 0 0];

internalField   nonuniform List<vector> 
1280
(
(-5.0763e-16 -0.915605 -2.02264)
(1.62088e-15 0.39486 -1.27234)
(1.51369e-15 -0.581133 -0.715902)
(-1.16376e-15 -0.23095 -1.16129)
(-1.137e-15 0.677886 -1.69384)
(-6.23255e-16 0.229438 -1.10288)
(-8.24495e-16 0.521828 -1.05)
(-7.51236e-17 0.562451 -0.992511)
(-1.77018e-15 1.29744 -1.74027)
(-1.73285e-15 1.11124 -1.30965)
(-1.83478e-15 1.30441 -1.22394)
(-1.17096e-15 2.05254 -2.0536)
(-1.97095e-16 1.82632 -1.57168)
(-1.31609e-16 2.09516 -1.46871)
(-5.63398e-17 2.92675 -2.37528)
(1.34044e-16 2.58916 -1.83882)
(2.25366e-16 2.99583 -1.61459)
(-6.53814e-16 3.67191 -3.28572)
(-5.0452e-16 3.8418 -1.86001)
(-8.07118e-16 3.61196 -3.88743)
(-3.86576e-16 3.88503 -0.418903)
(-1.65618e-15 4.21499 6.26457)
(-1.7894e-15 3.89529 9.48201)
(-2.01792e-15 4.28569 10.4462)
(-2.14274e-15 4.51385 10.4754)
(-2.72443e-15 5.02765 10.3143)
(-1.97496e-15 3.94325 8.3554)
(-3.21508e-15 7.54518 12.8842)
(-3.26746e-15 7.62856 12.9009)
(-3.14971e-15 7.68465 12.8609)
(-2.93351e-15 7.7151 12.8636)
(-2.51405e-15 7.72337 12.9056)
(-1.87078e-15 7.71136 12.9201)
(-1.28488e-15 7.65986 12.8669)
(-9.15513e-16 7.60421 12.7914)
(-1.09114e-15 7.49892 12.8671)
(-1.60789e-15 7.43408 13.2967)
(-2.04255e-15 7.254 13.9893)
(-1.76682e-15 7.26232 14.9482)
(-2.12197e-15 7.00311 14.4965)
(5.50922e-16 8.66669 14.5528)
(1.17682e-15 4.18704 8.91395)
(8.06211e-16 2.98102 8.16628)
(3.37193e-16 2.26822 7.52239)
(3.88976e-15 1.12941 5.73342)
(3.43528e-15 0.633931 3.03001)
(3.66145e-15 0.103187 3.15276)
(2.23881e-15 -0.644844 3.67783)
(1.69412e-14 -0.0272367 -0.355695)
(4.78285e-15 -0.014588 2.24549)
(5.87545e-15 -0.518082 2.00883)
(3.99532e-15 -0.581596 3.72734)
(3.57254e-15 -1.62014 4.98395)
(3.2911e-15 -2.23805 4.8695)
(2.91068e-15 -2.72825 4.93108)
(3.1735e-15 -3.86764 7.73772)
(1.65723e-15 -4.53238 7.79933)
(6.85604e-16 -5.44374 8.65769)
(2.49351e-17 -6.73675 9.3051)
(1.10587e-15 -10.8351 14.1628)
(4.7373e-15 -8.02635 13.5907)
(4.66819e-15 -8.29761 13.7902)
(5.23733e-15 -8.24888 12.7575)
(5.06393e-15 -8.40961 12.0468)
(4.69875e-15 -8.4374 11.6612)
(4.46967e-15 -8.51357 11.6022)
(4.55386e-15 -8.53365 11.6109)
(4.834e-15 -8.54488 11.5119)
(5.15826e-15 -8.50808 11.3082)
(5.54634e-15 -8.44319 11.0956)
(5.82777e-15 -8.36103 10.9676)
(5.97338e-15 -8.26851 10.951)
(6.08305e-15 -8.11202 10.964)
(5.39903e-15 -3.80629 6.05166)
(5.48895e-15 -4.55307 10.0173)
(4.66147e-15 -3.97934 10.0927)
(4.64769e-15 -3.78643 9.8804)
(4.36165e-15 -3.44199 8.40914)
(4.31196e-15 -3.84771 4.35813)
(2.84329e-15 -3.47614 -3.21004)
(3.37618e-15 -3.38898 -6.36644)
(3.16356e-15 -2.9329 -4.53461)
(4.8622e-15 -1.43446 -6.68683)
(4.95151e-15 -1.65185 -3.90635)
(5.34527e-15 -0.6028 -4.30113)
(7.03606e-15 0.359553 -5.55657)
(5.40752e-15 0.446719 -3.95614)
(4.91871e-15 1.17492 -3.75935)
(5.41286e-15 2.14932 -4.46553)
(5.14261e-15 2.06513 -3.06843)
(4.36204e-15 2.59387 -2.83119)
(7.23468e-15 3.68828 -3.55772)
(6.30192e-15 3.23729 -2.55389)
(6.50285e-15 3.91439 -2.57356)
(6.87793e-15 4.03028 -2.48412)
(7.93425e-15 5.32844 -3.45881)
(6.35658e-15 4.64369 -2.63751)
(6.44204e-15 5.39617 -2.49336)
(8.03959e-15 5.51586 -3.29704)
(7.43063e-15 6.25135 -3.65912)
(-3.90744e-15 -2.40995 1.42772)
(-3.90436e-15 -3.49384 1.66833)
(-3.38986e-15 -4.22222 1.68879)
(-2.94103e-15 -4.65741 1.76859)
(-2.05024e-15 -5.17769 1.72441)
(-9.71733e-16 -5.31552 1.51292)
(-1.75222e-16 -4.86573 0.981549)
(-1.19689e-16 -3.22428 -0.632259)
(2.03233e-16 -1.1575 -1.03199)
(-1.96809e-16 -0.515654 -0.496441)
(-1.65075e-16 -4.1389 0.151257)
(5.35893e-16 -6.59823 0.611991)
(8.49771e-16 -8.91323 0.633202)
(7.57856e-16 -10.215 0.388324)
(5.30125e-16 -10.0927 -0.153157)
(4.39702e-16 -9.23162 -0.745206)
(9.08236e-16 -7.26637 -1.67061)
(1.50086e-15 -3.27528 -2.22921)
(-1.03387e-15 1.01073 -3.44959)
(-3.91838e-15 -2.49926 1.42243)
(-3.86938e-15 -3.57269 1.69249)
(-3.36147e-15 -4.25466 1.70603)
(-2.88739e-15 -4.67169 1.7718)
(-1.98098e-15 -5.11663 1.69824)
(-9.16935e-16 -5.13085 1.44167)
(-1.62183e-16 -4.36643 0.857174)
(-1.38132e-16 -2.84528 -0.457323)
(2.63091e-16 -1.23739 -1.04745)
(-6.10895e-17 -0.880821 -0.691782)
(-1.60615e-16 -4.37321 0.169066)
(5.43516e-16 -6.72667 0.636796)
(8.50414e-16 -8.84492 0.717232)
(7.56189e-16 -9.98323 0.484201)
(5.30267e-16 -9.74871 -0.0412087)
(4.3751e-16 -8.75399 -0.665875)
(8.80435e-16 -6.78443 -1.64233)
(1.56413e-15 -2.75253 -2.40524)
(-1.05512e-15 1.46967 -2.69991)
(-3.92751e-15 -2.5587 1.44607)
(-3.82528e-15 -3.62161 1.74134)
(-3.32343e-15 -4.26749 1.74449)
(-2.81775e-15 -4.66306 1.79627)
(-1.89677e-15 -5.03301 1.66493)
(-8.54843e-16 -4.93527 1.31031)
(-1.28019e-16 -3.95497 0.683291)
(-1.27929e-16 -2.39844 -0.405365)
(3.33407e-16 -1.00102 -1.60376)
(1.02286e-16 -1.18764 -1.28817)
(-1.53927e-16 -4.6901 0.166561)
(5.54215e-16 -6.86942 0.698156)
(8.51248e-16 -8.825 0.862905)
(7.52979e-16 -9.83896 0.646792)
(5.2969e-16 -9.53298 0.149889)
(4.35189e-16 -8.43629 -0.513996)
(8.45294e-16 -6.44367 -1.56712)
(1.60127e-15 -2.55808 -2.5924)
(-1.63128e-16 1.47834 -3.0116)
(-3.93174e-15 -2.62775 1.50331)
(-3.77721e-15 -3.67184 1.81684)
(-3.27833e-15 -4.27622 1.81063)
(-2.73633e-15 -4.63809 1.85393)
(-1.80863e-15 -4.90784 1.61306)
(-8.3287e-16 -4.73062 1.02003)
(-2.15311e-16 -3.62151 0.258625)
(-1.63537e-16 -1.93803 -0.983256)
(3.46961e-16 -0.73194 -2.66905)
(2.23519e-16 -1.65269 -1.86095)
(-1.40876e-16 -5.12026 0.199609)
(5.69236e-16 -7.03419 0.81386)
(8.52036e-16 -8.82862 1.0606)
(7.47608e-16 -9.71558 0.87075)
(5.27402e-16 -9.32995 0.419035)
(4.33439e-16 -8.1035 -0.275539)
(8.1088e-16 -6.02902 -1.41359)
(1.59006e-15 -2.19682 -2.69955)
(5.12519e-16 1.624 -3.70186)
(-3.93015e-15 -2.70801 1.58945)
(-3.72501e-15 -3.72814 1.92154)
(-3.22306e-15 -4.28553 1.91906)
(-2.63541e-15 -4.58645 1.98449)
(-1.70818e-15 -4.68839 1.61788)
(-8.57482e-16 -4.41746 0.642547)
(-5.45449e-16 -3.1652 -0.737626)
(-3.46002e-16 -1.38028 -2.32199)
(4.49567e-16 -0.559955 -3.91733)
(3.41642e-16 -2.41373 -2.07845)
(-1.21552e-16 -5.68749 0.351656)
(5.90435e-16 -7.23675 1.01455)
(8.5271e-16 -8.84727 1.32473)
(7.39556e-16 -9.59053 1.16842)
(5.22399e-16 -9.10619 0.777598)
(4.34043e-16 -7.70579 0.0619793)
(7.88389e-16 -5.51494 -1.17578)
(1.47902e-15 -1.56329 -2.59261)
(1.37974e-15 1.78742 -4.57681)
(-3.92208e-15 -2.79227 1.7058)
(-3.66662e-15 -3.78904 2.05953)
(-3.15248e-15 -4.30816 2.09176)
(-2.51043e-15 -4.52565 2.22444)
(-1.59307e-15 -4.35694 1.7204)
(-8.61625e-16 -3.80439 0.337976)
(-7.90278e-16 -2.42827 -1.80454)
(-2.29989e-16 -0.766815 -3.39343)
(8.80117e-16 -0.706354 -4.28554)
(4.16611e-16 -3.4173 -1.5909)
(-9.07195e-17 -6.29082 0.670812)
(6.22913e-16 -7.45452 1.3173)
(8.51913e-16 -8.88365 1.659)
(7.26102e-16 -9.48724 1.54314)
(5.11212e-16 -8.90035 1.23313)
(4.37211e-16 -7.29307 0.499616)
(7.71962e-16 -4.97105 -0.863421)
(1.06459e-15 -0.614782 -3.06578)
(2.25469e-15 3.34749 -5.39292)
(-3.90674e-15 -2.88265 1.85129)
(-3.59993e-15 -3.86384 2.23723)
(-3.06042e-15 -4.35645 2.35474)
(-2.35871e-15 -4.44691 2.56216)
(-1.51253e-15 -3.90285 1.70484)
(-1.02771e-15 -2.98305 -0.393578)
(-4.87774e-16 -1.63017 -2.67123)
(6.60333e-16 -0.38666 -4.00623)
(1.47847e-15 -1.18713 -3.76601)
(3.26071e-16 -4.49016 -0.489779)
(-4.0455e-17 -6.78651 1.10386)
(6.52395e-16 -7.6652 1.71114)
(8.50541e-16 -8.93332 2.05913)
(7.13364e-16 -9.41352 1.99225)
(5.05688e-16 -8.71227 1.78082)
(4.44407e-16 -6.83841 1.03417)
(8.41334e-16 -4.17659 -0.307831)
(-1.445e-16 0.326471 -4.95738)
(2.2966e-15 3.48375 -3.79841)
(-3.88261e-15 -2.98308 2.0227)
(-3.52447e-15 -3.9701 2.46519)
(-2.96499e-15 -4.44622 2.73246)
(-2.23724e-15 -4.28537 2.98736)
(-1.34467e-15 -3.13746 1.48952)
(-5.71981e-16 -2.11911 -1.89336)
(1.05484e-15 -1.06716 -3.99711)
(2.38886e-15 -0.387865 -4.65249)
(1.74442e-15 -2.07593 -2.38687)
(1.46352e-16 -5.45655 0.770358)
(5.7456e-17 -7.11338 1.58391)
(7.16029e-16 -7.86511 2.16592)
(8.42674e-16 -8.99407 2.51925)
(6.67546e-16 -9.36929 2.51471)
(4.35823e-16 -8.5562 2.44479)
(5.12897e-16 -6.45931 1.82753)
(7.05669e-16 -3.06181 0.366712)
(2.75054e-16 0.983654 -3.01929)
(2.06113e-15 -3.44486 6.2112)
(-3.84962e-15 -3.09883 2.21814)
(-3.44862e-15 -4.12643 2.7452)
(-2.88873e-15 -4.57868 3.16314)
(-2.09752e-15 -3.96022 3.23476)
(-7.51578e-16 -1.90092 0.748357)
(1.19258e-15 -0.860315 -2.59818)
(3.11826e-15 -0.486183 -4.16968)
(3.15578e-15 -0.90441 -3.57006)
(1.29057e-15 -3.35765 -0.0698667)
(1.14533e-16 -6.08077 1.81111)
(1.7292e-16 -7.3057 2.09916)
(6.93617e-16 -8.05978 2.65528)
(8.27969e-16 -9.0719 3.03277)
(7.1829e-16 -9.37463 3.11237)
(7.58126e-16 -8.46533 3.20458)
(4.37866e-16 -5.96245 2.56149)
(1.47277e-15 -2.05549 0.91734)
(4.91062e-15 -1.23624 4.82678)
(4.91986e-15 -2.93198 8.18029)
(-3.81136e-15 -3.23503 2.43538)
(-3.38807e-15 -4.32773 3.05704)
(-2.81147e-15 -4.65505 3.54501)
(-1.57973e-15 -3.28949 3.05122)
(1.19874e-15 -0.746321 -1.14236)
(1.28153e-15 -0.0485814 -2.53088)
(1.04618e-14 -0.627357 -3.10212)
(2.42626e-15 -1.98195 -0.620378)
(8.51862e-16 -4.31385 1.94565)
(2.37813e-16 -6.32366 2.60606)
(3.2979e-16 -7.42664 2.65932)
(8.01602e-16 -8.25255 3.17361)
(8.33863e-16 -9.17729 3.59222)
(4.48615e-16 -9.42749 3.77092)
(-1.20107e-15 -8.36419 3.95867)
(1.00516e-15 -5.68388 3.4929)
(4.14807e-15 -3.43235 4.80577)
(6.48147e-15 -3.1881 9.2111)
(5.07866e-15 -2.65209 7.20664)
(-3.77406e-15 -3.39032 2.66551)
(-3.33664e-15 -4.54848 3.3618)
(-2.61345e-15 -4.60016 3.82206)
(-4.99544e-16 -2.17621 2.82931)
(3.44287e-15 0.625619 -0.480761)
(2.12907e-15 -0.435278 -1.95687)
(3.25045e-15 -1.34364 0.0853535)
(1.31446e-15 -2.85533 2.1971)
(7.01256e-16 -4.69988 3.20653)
(4.11866e-16 -6.36302 3.29965)
(5.81924e-16 -7.51707 3.27887)
(1.02381e-15 -8.4427 3.73215)
(7.73058e-16 -9.31229 4.18842)
(8.79329e-17 -9.51212 4.44614)
(-1.16614e-15 -8.39703 4.68361)
(2.25926e-15 -6.16115 5.00138)
(6.70694e-15 -4.30294 7.98806)
(8.97884e-15 -2.16811 9.22105)
(9.65774e-15 -0.41391 3.84713)
(-3.73828e-15 -3.55675 2.89297)
(-3.2689e-15 -4.76612 3.62343)
(-2.27318e-15 -4.50501 4.04494)
(6.78393e-16 -1.38245 3.10305)
(3.55292e-15 0.944414 2.1408)
(1.63784e-15 -0.643788 2.02708)
(7.55726e-16 -1.83863 2.87018)
(1.35933e-15 -3.22078 3.8321)
(8.21137e-16 -4.7903 4.08629)
(6.97561e-16 -6.34185 4.00413)
(9.61505e-16 -7.58985 3.9664)
(1.22106e-15 -8.62163 4.34507)
(6.0862e-16 -9.46328 4.8101)
(-1.90674e-16 -9.61905 5.09945)
(-4.52283e-16 -8.61413 5.41842)
(3.7835e-15 -6.98205 6.65692)
(7.24449e-15 -5.28798 10.2534)
(4.73564e-15 -2.62363 11.3751)
(1.6699e-15 0.253392 9.35408)
(-3.70091e-15 -3.72388 3.09795)
(-3.1785e-15 -4.98309 3.82612)
(-1.90183e-15 -4.488 4.27498)
(1.51772e-15 -1.10832 3.8845)
(3.7435e-15 0.964785 4.01919)
(2.6494e-15 -0.773882 3.97613)
(1.91821e-15 -2.06033 4.47545)
(1.81767e-15 -3.33117 4.90965)
(1.31819e-15 -4.78565 4.90431)
(1.21142e-15 -6.30542 4.77889)
(1.38032e-15 -7.6485 4.73364)
(1.24656e-15 -8.78468 5.0305)
(3.49248e-16 -9.6173 5.45294)
(-2.92823e-16 -9.75566 5.72439)
(5.34816e-16 -9.03806 6.17448)
(4.58049e-15 -8.06601 7.97322)
(4.97669e-15 -6.0831 11.4281)
(-3.47549e-17 -1.06142 12.859)
(-5.92732e-16 4.96008 12.9656)
(-3.66035e-15 -3.88763 3.2641)
(-3.07702e-15 -5.21626 3.96734)
(-1.59028e-15 -4.61363 4.52343)
(1.9366e-15 -1.1612 4.92363)
(3.70864e-15 0.836741 5.68263)
(2.9697e-15 -0.864845 5.43467)
(2.6635e-15 -2.19329 5.63421)
(2.33626e-15 -3.37592 5.84686)
(1.95431e-15 -4.75768 5.761)
(1.74376e-15 -6.26603 5.64001)
(1.59027e-15 -7.68695 5.59035)
(1.03121e-15 -8.90878 5.79634)
(7.79752e-17 -9.73896 6.11708)
(-1.42798e-16 -9.90122 6.35074)
(1.51038e-15 -9.52105 6.96574)
(4.45155e-15 -8.99207 8.77817)
(2.55062e-15 -7.0267 10.4974)
(-2.13211e-15 -3.29761 7.25529)
(-1.92027e-15 -0.793131 1.89746)
(-3.61841e-15 -4.03939 3.37566)
(-2.98454e-15 -5.47116 4.041)
(-1.39218e-15 -4.911 4.74075)
(2.06752e-15 -1.46951 5.94921)
(3.65974e-15 0.724071 7.26415)
(2.90546e-15 -0.778666 6.86554)
(2.65111e-15 -2.19201 6.73885)
(2.46991e-15 -3.36173 6.78071)
(2.199e-15 -4.71453 6.65863)
(1.87585e-15 -6.22998 6.56433)
(1.41371e-15 -7.71306 6.51466)
(6.53814e-16 -9.00156 6.61796)
(-6.52263e-17 -9.84936 6.80337)
(2.76798e-16 -10.1051 7.04766)
(2.26041e-15 -10.0372 7.88294)
(3.66937e-15 -9.45003 9.29944)
(3.39658e-16 -5.82371 8.53262)
(-4.054e-15 0.849896 1.55606)
(-3.62564e-15 2.86764 -2.156)
(-3.57778e-15 -4.18548 3.42865)
(-2.91538e-15 -5.75671 4.04283)
(-1.32215e-15 -5.39881 4.86401)
(1.99217e-15 -2.14262 6.78088)
(3.66332e-15 0.395265 8.77891)
(2.95146e-15 -0.739347 8.41673)
(2.51303e-15 -2.16384 7.98468)
(2.23891e-15 -3.34633 7.79981)
(1.92919e-15 -4.68967 7.57267)
(1.53041e-15 -6.2042 7.4591)
(9.6429e-16 -7.70559 7.38813)
(2.97825e-16 -9.01512 7.3961)
(2.66953e-18 -9.89747 7.51237)
(8.37993e-16 -10.3152 7.92863)
(2.57856e-15 -10.4151 8.94445)
(2.48571e-15 -9.21459 9.39097)
(-1.20789e-15 -3.94454 5.96585)
(-3.76552e-15 2.05822 -1.39685)
(-3.08045e-15 2.70768 -1.78977)
(-3.54168e-15 -4.30575 3.41033)
(-2.87505e-15 -6.03517 3.96835)
(-1.36816e-15 -5.99808 4.8274)
(1.71214e-15 -2.99457 7.21184)
(3.63237e-15 0.175755 10.0575)
(3.19701e-15 -0.45114 10.0785)
(2.65988e-15 -1.89906 9.51065)
(2.14975e-15 -3.16111 9.10515)
(1.63757e-15 -4.57377 8.67091)
(1.13335e-15 -6.14761 8.40966)
(5.95811e-16 -7.69553 8.25121)
(1.74095e-16 -9.07012 8.20674)
(3.10338e-16 -10.097 8.40327)
(1.36335e-15 -10.7224 9.06071)
(2.41427e-15 -10.6459 9.82534)
(1.1538e-15 -8.244 8.64614)
(-2.5091e-15 -1.42068 3.03255)
(-3.88465e-15 3.34168 -1.32542)
(-2.70036e-15 3.20637 -1.74325)
(-3.50218e-15 -4.43371 3.32842)
(-2.85886e-15 -6.33474 3.82782)
(-1.48715e-15 -6.70903 4.633)
(1.22089e-15 -4.2979 7.12485)
(3.28727e-15 -0.815289 10.6626)
(3.32796e-15 -0.658395 11.4077)
(2.99387e-15 -1.8368 11.0098)
(2.44792e-15 -3.04495 10.596)
(1.78015e-15 -4.44147 10.0129)
(1.15969e-15 -6.03509 9.54895)
(6.61502e-16 -7.60989 9.26017)
(4.62376e-16 -9.03826 9.21998)
(8.49273e-16 -10.1755 9.57909)
(1.73093e-15 -10.8015 10.2622)
(1.90959e-15 -10.1364 10.1406)
(-1.59975e-16 -6.48775 6.96157)
(-4.03733e-15 0.375226 -0.386759)
(-3.99776e-15 3.68821 -1.49984)
(-2.39871e-15 3.26661 -1.83994)
(-3.48252e-15 -4.50404 3.19766)
(-2.86075e-15 -6.52985 3.64724)
(-1.6235e-15 -7.2597 4.33452)
(6.5644e-16 -5.30695 6.71784)
(2.70849e-15 -1.32621 10.89)
(3.26081e-15 -0.466918 12.5692)
(3.41765e-15 -1.47805 12.5527)
(3.17019e-15 -2.6811 12.3868)
(2.57977e-15 -4.11997 11.8776)
(1.93264e-15 -5.83117 11.3256)
(1.4485e-15 -7.58323 10.9723)
(1.33754e-15 -9.25932 10.9616)
(1.68521e-15 -10.6385 11.2779)
(2.0545e-15 -11.1394 11.3244)
(1.29923e-15 -9.50633 9.59006)
(-1.46119e-15 -4.4068 4.70925)
(-4.9474e-15 1.88209 -1.01543)
(-3.84628e-15 3.86716 -1.50207)
(-2.17057e-15 3.34649 -1.96691)
(-3.37469e-15 -4.64631 2.8456)
(-2.90272e-15 -6.84467 3.29499)
(-1.76594e-15 -8.01653 3.83236)
(-1.05286e-16 -7.14032 5.53834)
(1.22428e-15 -3.38755 9.07909)
(1.68169e-15 -1.54323 11.5022)
(2.39525e-15 -1.93893 12.5108)
(2.9074e-15 -2.89171 13.1983)
(2.99457e-15 -4.09331 13.4177)
(2.8341e-15 -5.69446 13.3039)
(2.60219e-15 -7.43928 13.0777)
(2.44032e-15 -9.06511 12.7904)
(2.28854e-15 -10.1147 12.2291)
(1.69685e-15 -9.76434 10.7531)
(-2.7341e-17 -7.0007 7.47555)
(-2.94403e-15 -1.72582 2.45346)
(-4.77353e-15 2.98701 -0.418452)
(-3.56991e-15 4.2472 -1.41646)
(-2.00844e-15 3.32447 -2.02021)
(-2.70775e-16 7.58346 13.0431)
(-3.94988e-15 17.6735 30.5792)
(-2.90725e-15 18.8338 31.2652)
(-3.15065e-15 16.9476 27.4987)
(-3.57472e-15 15.1465 23.8654)
(-4.976e-15 13.8551 21.2233)
(-5.34435e-15 12.7958 19.1119)
(-5.45739e-15 12.0021 17.593)
(-5.6995e-15 11.2982 16.2338)
(-6.10298e-15 10.5825 14.9172)
(-6.56816e-15 9.84095 13.6069)
(-6.99951e-15 9.07097 12.2931)
(-7.27198e-15 8.27062 10.9661)
(-7.81079e-15 7.45059 9.64922)
(-8.73777e-15 6.67906 8.44769)
(-1.02749e-14 6.11119 7.6694)
(-1.21118e-14 5.97057 7.72111)
(-1.34723e-14 6.25382 8.69124)
(-1.32398e-14 6.4306 9.62186)
(-1.5141e-14 4.63269 7.5096)
(-1.47969e-16 6.04991 9.6821)
(-2.52548e-15 16.5265 29.0081)
(-1.57935e-15 17.5525 30.4263)
(-2.09491e-15 15.4145 26.5564)
(-2.30131e-15 13.5115 23.1524)
(-3.54766e-15 12.3025 20.8126)
(-3.26091e-15 11.471 19.2037)
(-3.53152e-15 10.7992 17.7715)
(-3.66396e-15 10.1474 16.4385)
(-4.49028e-15 9.52292 15.156)
(-5.01502e-15 8.90942 13.9223)
(-5.69116e-15 8.3077 12.7298)
(-6.33588e-15 7.70776 11.5615)
(-7.10394e-15 7.1037 10.3871)
(-8.41326e-15 6.47482 9.19953)
(-9.56787e-15 5.87069 8.03881)
(-1.05159e-14 5.26445 7.07079)
(-1.14819e-14 4.75121 6.28479)
(-1.15165e-14 3.80669 5.50754)
(-1.51198e-14 1.86252 2.22671)
(4.45714e-17 6.20744 10.2348)
(-5.94475e-16 17.3016 29.5595)
(-4.10086e-16 18.8741 32.2515)
(-4.58224e-16 16.9081 28.4711)
(-5.37989e-16 14.9167 24.9218)
(-1.46393e-15 13.7018 22.482)
(-1.21231e-15 12.8095 20.7278)
(-1.15868e-15 12.0654 19.1798)
(-1.15089e-15 11.3263 17.6822)
(-1.27191e-15 10.5702 16.186)
(-1.32574e-15 9.78989 14.6963)
(-1.40952e-15 8.98979 13.2274)
(-1.76316e-15 8.17127 11.7959)
(-2.29563e-15 7.34688 10.4027)
(-2.82371e-15 6.492 9.0434)
(-3.35405e-15 5.62761 7.66607)
(-4.01277e-15 4.64968 6.27447)
(-4.95976e-15 3.67024 4.74163)
(-6.46885e-15 2.12643 2.93712)
(-8.84183e-15 0.417084 -0.536773)
(-1.24851e-17 7.798 12.6583)
(1.60319e-16 18.4176 30.2728)
(1.32331e-16 19.6036 32.5366)
(1.69501e-16 17.5773 28.7836)
(2.14287e-16 15.6409 25.4923)
(-7.89048e-16 14.5413 23.2417)
(-9.22837e-16 13.7024 21.5731)
(-1.05685e-15 12.9663 19.994)
(-1.0565e-15 12.1849 18.3909)
(-1.19262e-15 11.3451 16.7227)
(-1.23466e-15 10.4427 15.0064)
(-1.38313e-15 9.4883 13.2665)
(-1.78456e-15 8.48714 11.5291)
(-2.29109e-15 7.45178 9.80295)
(-2.73851e-15 6.35877 8.09811)
(-3.019e-15 5.2295 6.36768)
(-3.92717e-15 3.94552 4.59164)
(-5.31012e-15 2.60882 2.54153)
(-8.01457e-15 0.466894 -0.01964)
(-2.14282e-14 -0.838302 -3.48254)
(3.04021e-18 11.7654 19.7207)
(-4.06908e-17 20.6831 33.2112)
(-3.8261e-17 19.8859 32.6207)
(-4.29203e-17 17.9771 28.9655)
(-6.96817e-17 16.4272 26.5223)
(1.70027e-16 15.6739 24.7195)
(2.73097e-16 14.935 23.2141)
(3.08699e-16 14.2312 21.5804)
(3.22421e-16 13.3678 19.7985)
(3.53855e-16 12.3906 17.8522)
(3.82848e-16 11.3028 15.8097)
(4.15871e-16 10.1403 13.7099)
(4.89746e-16 8.90631 11.5826)
(6.19216e-16 7.6078 9.43192)
(7.74492e-16 6.21469 7.27021)
(9.56413e-16 4.7375 5.05472)
(1.22549e-15 2.99575 2.87159)
(1.36978e-15 1.30758 0.532498)
(1.95899e-15 -1.25359 -2.18912)
(-1.60513e-14 -2.29287 -6.08161)
(-6.95156e-19 15.7579 27.5331)
(1.07094e-17 21.4159 34.8357)
(1.21675e-17 18.3294 31.3774)
(1.12969e-17 17.1319 28.6308)
(2.05572e-17 16.0263 27.3813)
(-3.12649e-17 15.5823 26.0945)
(-6.81288e-17 14.7572 24.8019)
(-8.26149e-17 13.8934 23.0315)
(-8.93923e-17 12.6536 20.9383)
(-9.8405e-17 11.2908 18.5833)
(-1.07837e-16 9.78872 16.1485)
(-1.16934e-16 8.22353 13.6347)
(-1.3293e-16 6.5466 11.0363)
(-1.67552e-16 4.74502 8.30962)
(-2.36843e-16 2.76264 5.43253)
(-3.5436e-16 0.42145 2.29471)
(-3.42538e-16 -3.92952 -2.33567)
(9.64707e-16 -2.23177 -3.2216)
(1.74176e-15 -4.53935 -5.40302)
(-9.60786e-15 -3.90434 -8.82696)
(1.45497e-19 17.0057 30.7191)
(-3.29696e-18 19.051 32.2458)
(-3.67431e-18 15.9561 29.0611)
(-3.52699e-18 15.479 27.5743)
(-5.72475e-18 14.3616 26.728)
(9.72246e-18 13.749 25.5644)
(2.04072e-17 12.583 24.2232)
(2.39556e-17 11.2815 22.1571)
(2.65653e-17 9.53931 19.6889)
(3.03965e-17 7.78968 17.0247)
(3.50615e-17 5.9694 14.3773)
(4.14155e-17 4.14643 11.6517)
(4.6786e-17 2.24835 8.83776)
(2.98765e-17 0.345234 5.94439)
(-4.90666e-17 -1.4302 3.16841)
(-1.4927e-16 -2.81393 0.926109)
(-3.51494e-17 -3.89705 -1.02324)
(3.47342e-16 -4.84843 -3.31807)
(1.49507e-16 -4.57644 -4.10575)
(-1.56777e-15 -1.58745 -1.42743)
(2.08431e-20 15.2372 27.6544)
(9.97924e-19 17.0176 29.7608)
(1.07843e-18 14.6762 27.0102)
(1.17833e-18 13.6796 25.054)
(6.59137e-19 12.3959 23.9622)
(-4.07232e-18 11.4766 22.6923)
(-6.50542e-18 10.1012 21.2649)
(-7.04216e-18 8.57245 19.2063)
(-7.22828e-18 6.73982 16.805)
(-7.13099e-18 4.92716 14.2573)
(-6.82138e-18 3.10354 11.7219)
(-7.72088e-18 1.33586 9.1936)
(-1.40734e-17 -0.307138 6.81669)
(-2.77125e-17 -1.62436 4.81033)
(-3.12297e-17 -2.41346 3.39233)
(1.48221e-17 -2.38473 2.94107)
(1.30541e-16 -1.01493 4.28347)
(2.54374e-16 2.08401 7.83848)
(2.54493e-16 5.74948 11.9078)
(1.13834e-16 5.47703 11.2439)
(-1.76214e-20 13.7244 24.5424)
(-2.54881e-19 17.1027 29.4039)
(-2.71331e-19 14.5394 25.9229)
(-2.70564e-19 13.3432 22.9827)
(6.73495e-20 11.9204 21.4912)
(1.22926e-18 11.098 19.765)
(1.6034e-18 9.83867 18.2475)
(1.59769e-18 8.71379 16.3704)
(1.7377e-18 7.37122 14.3535)
(1.97538e-18 6.10396 12.1585)
(1.42974e-18 4.86326 9.96631)
(-1.59852e-18 3.80312 7.90635)
(-8.2161e-18 3.07321 6.30962)
(-1.68673e-17 2.93834 5.64106)
(-2.32069e-17 3.62872 6.35115)
(-2.46379e-17 5.12402 8.43646)
(-2.67171e-17 6.99067 11.1857)
(-3.89846e-17 8.45397 13.7274)
(-5.97692e-17 9.1777 14.5884)
(-5.10913e-17 6.59172 11.8364)
(3.79515e-21 13.5482 24.0865)
(5.54204e-20 18.0016 30.2049)
(5.7921e-20 15.308 26.8832)
(5.55062e-20 14.2546 23.5034)
(-1.45665e-20 12.8114 21.8818)
(-2.6143e-19 12.2141 20.0096)
(-3.43821e-19 11.1978 18.5051)
(-3.22656e-19 10.4825 16.9065)
(-3.08386e-19 9.71325 15.4628)
(-2.85975e-19 9.07258 14.045)
(-1.35988e-19 8.48434 12.6649)
(2.18356e-19 7.96293 11.2962)
(5.07812e-19 7.49903 9.94821)
(6.57455e-20 7.09475 8.70608)
(-1.47044e-18 6.80506 7.75829)
(-2.95532e-18 6.67087 7.4048)
(-1.74807e-18 6.71813 7.73869)
(3.92889e-18 6.67625 8.45878)
(1.30527e-17 6.07872 8.56408)
(1.86457e-17 3.97043 6.12407)
(-6.53371e-22 14.0797 25.054)
(-1.06309e-20 18.8742 31.1435)
(-1.1228e-20 15.827 27.7627)
(-1.00062e-20 14.9926 24.4583)
(3.9912e-21 13.5579 22.9294)
(4.90028e-20 13.0478 21.1043)
(6.42662e-20 12.1165 19.6213)
(5.79925e-20 11.4184 18.0212)
(4.9429e-20 10.6684 16.5319)
(2.98676e-20 9.97607 15.0956)
(-2.72064e-20 9.31176 13.7232)
(-1.12309e-19 8.66505 12.4034)
(-1.18048e-19 8.02846 11.1201)
(1.22028e-19 7.38744 9.85659)
(6.72444e-19 6.71951 8.60728)
(1.39678e-18 6.02817 7.38875)
(2.01785e-18 5.25122 6.27826)
(2.21649e-18 4.44741 5.2192)
(1.34677e-18 3.10834 3.96596)
(-1.18566e-18 1.22262 0.663388)
(9.07387e-23 15.0413 27.0684)
(1.83109e-21 19.5207 31.6436)
(1.96834e-21 15.9569 28.3372)
(1.60828e-21 15.6438 25.253)
(-1.05212e-21 14.0357 23.926)
(-8.40765e-21 13.6739 22.0158)
(-1.0859e-20 12.6439 20.5881)
(-9.45346e-21 12.0042 18.9647)
(-7.32107e-21 11.2269 17.4842)
(-2.70368e-21 10.5201 15.9731)
(8.51868e-21 9.78478 14.4668)
(2.21067e-20 9.01878 12.9312)
(1.66793e-20 8.19285 11.3619)
(-3.58098e-20 7.30184 9.75634)
(-1.40084e-19 6.32163 8.13053)
(-2.64683e-19 5.28106 6.45994)
(-3.67651e-19 4.05999 4.73194)
(-4.53837e-19 2.77649 2.75571)
(-6.04683e-19 0.696724 0.41203)
(-8.79574e-19 -0.612798 -3.14873)
(-1.18868e-23 16.2375 29.8797)
(-2.87542e-22 19.8194 31.6009)
(-2.94251e-22 15.945 28.967)
(-1.97108e-22 16.3384 26.1931)
(2.30375e-22 14.4276 25.0964)
(1.18899e-21 14.3256 23.1033)
(1.28158e-21 13.1406 21.8058)
(7.76113e-22 12.6588 20.1978)
(2.34641e-22 11.8732 18.8301)
(-5.71905e-22 11.2432 17.3422)
(-1.85626e-21 10.4842 15.7843)
(-1.94536e-21 9.61855 14.0239)
(3.08981e-21 8.57323 12.0618)
(1.59638e-20 7.3741 9.92413)
(3.16476e-20 6.0189 7.68396)
(3.39557e-20 4.5747 5.34857)
(5.85475e-21 2.89027 2.95188)
(-8.57087e-20 1.25259 0.292768)
(-3.01228e-19 -1.33682 -2.44801)
(-7.33665e-19 -2.23152 -6.13159)
(1.49825e-24 16.9802 32.0846)
(4.27378e-23 19.4442 30.7811)
(5.06987e-23 15.6906 29.3455)
(3.74008e-23 16.5567 26.7684)
(-8.99861e-23 14.307 25.8536)
(-3.96891e-22 14.4218 23.8447)
(-6.22208e-22 13.0326 22.7439)
(-6.72892e-22 12.7016 21.2132)
(-5.3107e-22 11.8184 20.0184)
(-2.20202e-22 11.2056 18.5586)
(1.67175e-22 10.2687 16.909)
(9.16561e-22 9.14978 14.8166)
(4.08635e-21 7.74989 12.389)
(1.30635e-20 6.20885 9.74504)
(2.65165e-20 4.52136 6.95597)
(3.95789e-20 2.74719 4.0337)
(6.33699e-20 0.745218 1.14238)
(5.63992e-20 -0.85595 -2.28732)
(-8.6985e-20 -3.4051 -4.63297)
(-8.20287e-19 -3.62259 -8.49587)
(-5.54066e-25 16.8203 32.4709)
(-3.59146e-24 18.6841 29.6297)
(6.3629e-24 15.2086 29.0207)
(3.79066e-24 16.0219 26.4786)
(-6.66375e-23 13.6952 25.5879)
(-2.32128e-22 13.6827 23.6539)
(-4.20372e-22 12.2317 22.591)
(-4.83405e-22 11.7818 21.1454)
(-4.37205e-22 10.7803 19.9962)
(-5.22403e-22 10.0095 18.5253)
(-6.64078e-22 8.83948 16.7497)
(1.47633e-21 7.5044 14.4565)
(1.30106e-20 5.97918 11.9038)
(3.96352e-20 4.42501 9.19637)
(6.69783e-20 2.69314 6.1557)
(7.93338e-20 0.891815 3.10026)
(9.77393e-20 -0.4873 0.838545)
(-1.91972e-20 -2.3859 -2.51847)
(-4.45971e-19 -4.9882 -6.27853)
(-7.88349e-19 -3.70596 -6.55506)
(-5.47676e-26 16.0285 31.4792)
(2.30836e-24 18.32 28.7816)
(7.82682e-24 14.5713 28.1523)
(-2.08907e-24 15.4407 25.5313)
(-7.14846e-23 13.0858 24.6217)
(-2.09984e-22 12.9259 22.6966)
(-3.40647e-22 11.5143 21.5335)
(-3.85802e-22 10.8656 20.0877)
(-4.12635e-22 9.85206 18.8699)
(-7.40657e-22 8.96906 17.4759)
(-1.57599e-21 7.8819 15.8936)
(-1.06397e-21 6.72751 14.0295)
(7.40941e-21 5.51384 11.986)
(3.13172e-20 4.21107 9.66483)
(6.10729e-20 2.58402 6.7059)
(4.86282e-20 0.548901 2.93758)
(-6.73028e-20 -1.41826 -0.809663)
(-2.67458e-19 -2.45581 -2.82038)
(-4.83344e-19 -2.05644 -1.975)
(-3.33117e-19 0.531676 2.13492)
(-3.32662e-27 15.2694 30.8843)
(1.40506e-24 18.2358 27.8932)
(4.29997e-24 13.9956 27.4846)
(-5.82637e-24 15.1703 24.7478)
(-5.47392e-23 12.8076 23.8267)
(-1.4171e-22 12.6551 21.8886)
(-2.18448e-22 11.3586 20.6245)
(-2.47131e-22 10.714 19.1206)
(-2.78666e-22 9.81261 17.8299)
(-5.07083e-22 9.07228 16.5094)
(-1.27127e-21 8.28253 15.2098)
(-2.741e-21 7.51098 13.8242)
(-3.71125e-21 6.68455 12.291)
(-2.17139e-23 5.75621 10.4918)
(1.37457e-20 4.68374 8.35291)
(3.55317e-20 3.57769 6.01031)
(5.83441e-20 2.714 3.79564)
(-5.74852e-20 0.64074 -0.0110758)
(-3.12333e-19 -0.612729 -2.04178)
(-7.46966e-20 2.12563 3.10046)
(5.89705e-26 14.1779 30.7021)
(1.02917e-24 18.1209 27.4059)
(1.79297e-24 13.3158 27.3287)
(-7.56672e-24 14.3828 24.8549)
(-4.01635e-23 12.2522 23.896)
(-8.75455e-23 11.8601 22.2202)
(-1.12232e-22 10.7544 20.9612)
(-9.28273e-23 10.0664 19.586)
(-7.23384e-23 9.2882 18.3345)
(-1.64134e-22 8.62863 17.0951)
(-5.16753e-22 7.97831 15.8824)
(-1.2466e-21 7.34473 14.6208)
(-2.20179e-21 6.67367 13.2434)
(-2.43746e-21 5.93354 11.6664)
(3.31653e-22 5.06964 9.77363)
(9.63712e-21 3.94779 7.33547)
(2.80194e-20 2.28104 4.01405)
(5.04141e-20 0.260485 -0.341537)
(-3.96199e-20 -1.1891 -3.00584)
(7.1355e-21 -1.18154 -3.6018)
(6.08804e-26 11.2485 28.6945)
(2.50522e-25 17.0811 25.0353)
(-2.10361e-25 12.0399 25.429)
(-4.76154e-24 12.7189 23.7026)
(-1.65347e-23 10.9877 22.9493)
(-2.72692e-23 10.3414 21.8489)
(-1.40865e-23 9.36454 20.921)
(3.9637e-23 8.60972 19.9577)
(1.2057e-22 7.8601 19.0325)
(1.77978e-22 7.19072 18.1106)
(1.17182e-22 6.56258 17.1912)
(-1.85755e-22 5.9775 16.2523)
(-7.13965e-22 5.41813 15.2665)
(-9.1266e-22 4.86193 14.1726)
(7.77728e-22 4.25185 12.8372)
(7.29436e-21 3.44513 10.9973)
(2.25093e-20 2.22754 8.19422)
(4.60828e-20 0.450803 3.94802)
(6.01282e-20 -1.66426 -1.19051)
(3.32759e-20 -2.27058 -4.14307)
(2.30721e-26 2.62221 17.1104)
(-4.08121e-26 8.04433 13.7057)
(-4.39114e-25 5.1661 14.5643)
(-1.06623e-24 4.97193 14.1772)
(-7.76659e-25 4.04849 14.1432)
(3.99441e-24 3.482 13.9759)
(2.0662e-23 2.90545 13.8238)
(5.83319e-23 2.43229 13.636)
(1.20512e-22 2.01975 13.4255)
(1.97549e-22 1.68057 13.1892)
(2.62516e-22 1.41275 12.9322)
(2.63225e-22 1.22039 12.6577)
(1.08647e-22 1.10415 12.3689)
(-3.1791e-22 1.07333 12.0633)
(-1.08391e-21 1.14372 11.732)
(-2.10203e-21 1.28254 11.3819)
(-3.0395e-21 1.52088 10.9469)
(-3.23855e-21 2.16273 10.072)
(-2.04488e-21 2.40987 8.65237)
(-2.21433e-22 -0.200217 6.4612)
(-2.8428e-26 -2.62229 17.1106)
(2.55245e-26 -8.04436 13.7058)
(4.62368e-25 -5.16611 14.5645)
(1.23358e-24 -4.97191 14.1774)
(1.23056e-24 -4.04843 14.1434)
(-3.13817e-24 -3.48191 13.9761)
(-1.95086e-23 -2.90532 13.8241)
(-5.76737e-23 -2.43211 13.6363)
(-1.22601e-22 -2.01954 13.4258)
(-2.06214e-22 -1.68033 13.1896)
(-2.79527e-22 -1.41247 12.9326)
(-2.77114e-22 -1.22009 12.6582)
(-7.84882e-23 -1.10379 12.3693)
(4.68622e-22 -1.07292 12.0638)
(1.44462e-21 -1.14327 11.7326)
(2.72347e-21 -1.28208 11.3827)
(3.8701e-21 -1.52055 10.9479)
(4.0628e-21 -2.16279 10.073)
(2.52358e-21 -2.41036 8.65316)
(2.5712e-22 0.19993 6.46189)
(-6.76978e-26 -11.2487 28.6949)
(-2.99269e-25 -17.0813 25.0358)
(4.50159e-26 -12.0402 25.4295)
(4.95058e-24 -12.7192 23.7031)
(1.9363e-23 -10.9879 22.9498)
(3.72911e-23 -10.3417 21.8494)
(3.55014e-23 -9.36481 20.9216)
(-8.34549e-24 -8.61 19.9583)
(-8.95691e-23 -7.8604 19.0331)
(-1.56036e-22 -7.19104 18.1112)
(-8.54934e-23 -6.56294 17.1917)
(2.89509e-22 -5.97795 16.2529)
(9.42398e-22 -5.4187 15.2671)
(1.14473e-21 -4.86262 14.1734)
(-1.08797e-21 -4.25248 12.838)
(-9.39716e-21 -3.4451 10.9972)
(-2.84337e-20 -2.22573 8.19118)
(-5.73428e-20 -0.446118 3.94039)
(-7.3408e-20 1.67006 -1.19916)
(-3.87098e-20 2.27151 -4.14453)
(-5.3992e-26 -14.1781 30.7025)
(-1.24511e-24 -18.1214 27.4062)
(-2.52074e-24 -13.3161 27.329)
(7.34897e-24 -14.3834 24.8551)
(4.56214e-23 -12.2528 23.8962)
(1.08181e-22 -11.8608 22.2202)
(1.56138e-22 -10.7553 20.9612)
(1.58375e-22 -10.0674 19.5859)
(1.45994e-22 -9.28934 18.3342)
(2.38139e-22 -8.62992 17.0946)
(6.25059e-22 -7.97974 15.8818)
(1.48108e-21 -7.34635 14.6201)
(2.62358e-21 -6.67566 13.2429)
(2.81429e-21 -5.93622 11.6668)
(-8.89528e-22 -5.07321 9.77549)
(-1.28816e-20 -3.95195 7.33844)
(-3.60355e-20 -2.2837 4.01633)
(-6.32227e-20 -0.26123 -0.341223)
(5.54305e-20 1.18957 -3.00419)