/*--------------------------------*- C++ -*----------------------------------*\
| =========                 |                                                 |
| \\      /  F ield         | OpenFOAM: The Open Source CFD Toolbox           |
|  \\    /   O peration     | Version:  4.1                                   |
|   \\  /    A nd           | Web:      www.OpenFOAM.org                      |
|    \\/     M anipulation  |                                                 |
\*---------------------------------------------------------------------------*/
FoamFile
{
    version     2.0;
    format      ascii;
    class       volScalarField;
    location    "1";
    object      p;
}
// * * * * * * * * * * * * * * * * * * * * * * * * * * * * * * * * * * * * * //

dimensions      [0 2 -2 0 0 0 0];

internalField   nonuniform List<scalar> 
1280
(
-2.21134
-0.988042
-1.58237
-3.70299
-1.56937
-3.01694
-4.92751
-5.40334
-3.84537
-5.04546
-8.31121
-6.36619
-7.90137
-12.0023
-10.1488
-12.2129
-17.251
-15.9304
-19.4482
-31.0693
-24.5987
-19.6402
-23.0005
-28.7413
-30.2912
-32.1275
-56.5964
-27.6248
-25.7575
-23.9316
-22.0112
-20.1682
-18.2123
-16.8171
-14.7131
-13.8272
-11.682
-10.5704
-10.1184
-4.32018
-14.6942
-14.3224
-14.365
-14.1144
-15.9247
-14.9504
-14.6555
-14.2595
-13.8422
-13.8246
-13.8021
-13.7034
-14.3051
-14.7465
-14.9876
-15.9507
-14.1032
-14.3541
-14.3035
-14.6322
-4.02078
-9.79871
-10.2504
-11.3227
-13.447
-14.3171
-16.403
-17.7868
-19.7345
-21.5749
-23.4942
-25.3318
-27.2167
-56.4503
-31.9974
-30.1602
-28.5843
-22.8131
-19.4898
-24.4669
-30.8766
-19.3309
-15.8045
-17.1385
-12.1263
-10.0671
-11.9193
-7.8352
-6.30189
-8.24976
-4.9971
-3.80219
-5.36141
-4.89165
-2.98687
-1.54382
-3.68122
-1.56699
-0.97275
-2.20189
0.00151461
0.0052585
0.00959267
0.0154767
0.0233583
0.0341452
0.0489469
0.0693217
0.0974198
0.136149
0.188828
0.256765
0.328228
0.346835
0.0539984
-1.63776
-3.40403
-3.93702
0.275136
0.00422905
0.0149731
0.0274297
0.0441999
0.0665268
0.0969503
0.13849
0.195393
0.273522
0.380989
0.528167
0.725552
0.963241
1.12539
0.447192
-4.54524
-8.27603
-8.40707
-0.651452
0.00672151
0.0245531
0.0453481
0.0732544
0.110359
0.160883
0.229823
0.324193
0.453663
0.63161
0.876207
1.21276
1.64584
1.98605
0.798064
-8.07741
-11.2856
-11.5247
-0.377431
0.0089868
0.0335426
0.0618494
0.0999137
0.150425
0.219155
0.312814
0.440813
0.616033
0.856278
1.18815
1.66105
2.31906
2.96822
1.79624
-8.59659
-13.4247
-15.1709
1.7601
0.0109958
0.0420065
0.0771046
0.124517
0.187325
0.272768
0.389073
0.547747
0.76429
1.05973
1.46792
2.06349
2.93617
3.97436
3.42778
-6.15379
-16.2159
-14.9363
4.04858
0.0127065
0.0497214
0.0905888
0.146178
0.219688
0.319696
0.455671
0.6408
0.892412
1.23311
1.70022
2.38368
3.38226
4.63417
4.53772
-2.13027
-16.8424
-12.0282
9.51351
0.0140678
0.0565138
0.102031
0.164491
0.24695
0.359164
0.511573
0.718597
0.998508
1.37368
1.88137
2.61719
3.63428
4.67761
3.05424
-2.11263
-9.54608
-4.79156
15.8464
0.0150153
0.0621025
0.111028
0.178849
0.268243
0.389948
0.555089
0.778866
1.0796
1.4772
1.99326
2.67299
3.56506
3.97149
0.64784
-2.04797
2.42705
10.869
-10.7565
0.0155899
0.0662839
0.117401
0.18898
0.283217
0.411588
0.58567
0.82113
1.13586
1.54633
2.06078
2.71452
3.65858
4.20606
1.63378
-0.152587
5.76876
17.0607
-5.98889
0.0156972
0.0683499
0.120345
0.193675
0.290139
0.421573
0.599742
0.840556
1.16208
1.58127
2.1055
2.76074
3.73044
4.4203
2.24044
0.382995
6.39358
15.3632
-2.17726
0.0156973
0.0683498
0.120345
0.193676
0.29014
0.421575
0.599748
0.840571
1.16211
1.58134
2.10565
2.761
3.73052
4.42243
2.25244
0.386597
6.3979
15.376
-2.16574
0.01559
0.0662836
0.117401
0.18898
0.283219
0.411595
0.585687
0.821168
1.13595
1.54652
2.06118
2.71522
3.65913
4.20834
1.64898
-0.135745
5.80451
17.1061
-6.02825
0.0150155
0.062102
0.111028
0.178849
0.268247
0.389959
0.555116
0.77893
1.07974
1.47752
1.994
2.67447
3.56746
3.97889
0.673165
-2.01899
2.42496
10.8758
-10.6224
0.0140679
0.056513
0.10203
0.164492
0.246954
0.359178
0.511607
0.718679
0.998691
1.37408
1.88227
2.61902
3.63752
4.68682
3.08589
-2.06492
-9.5136
-4.74896
15.8287
0.0127066
0.0497204
0.0905883
0.146179
0.219693
0.319711
0.455709
0.64089
0.892615
1.23356
1.70122
2.38577
3.38637
4.64411
4.56372
-2.08869
-16.7961
-12.0022
9.44218
0.0109958
0.0420055
0.0771039
0.124517
0.187329
0.272782
0.38911
0.547837
0.76449
1.06017
1.46888
2.06553
2.94023
3.98306
3.44655
-6.11948
-16.1693
-14.8608
4.08063
0.00898672
0.0335415
0.0618486
0.0999138
0.150428
0.219167
0.312847
0.440891
0.616209
0.856661
1.18898
1.6628
2.32264
2.97576
1.81196
-8.56425
-13.3896
-15.1421
1.75816
0.00672138
0.0245521
0.0453472
0.0732542
0.110361
0.160892
0.229848
0.324254
0.4538
0.631904
0.876836
1.21409
1.64859
1.99174
0.809267
-8.05241
-11.249
-11.4999
-0.362623
0.00422892
0.0149724
0.0274291
0.0441997
0.0665282
0.0969559
0.138506
0.195431
0.273608
0.381173
0.528558
0.726377
0.964961
1.12886
0.453431
-4.53377
-8.24961
-8.39045
-0.644781
0.00151453
0.00525819
0.00959233
0.0154764
0.0233584
0.0341467
0.0489517
0.069334
0.0974481
0.13621
0.188958
0.257041
0.328808
0.347993
0.0559917
-1.63419
-3.39549
-3.93181
0.277272
24.1872
21.4689
21.653
18.9829
18.8312
17.9499
17.5898
16.7634
16.6074
16.4342
16.4311
16.3974
16.8284
16.6016
17.7758
17.0615
19.0206
18.0494
19.9161
19.9544
17.4518
16.8432
17.6691
16.2592
17.0849
16.062
16.258
15.759
15.5625
15.2811
15.0754
14.7521
14.8187
14.1271
14.8181
13.5194
14.8795
13.2572
14.4867
13.5034
20.3532
19.4692
20.4854
19.0255
19.9598
18.9819
19.3563
18.8909
18.86
18.6543
18.5217
18.2674
18.3526
17.6996
18.3632
17.0346
18.347
16.6354
17.6872
16.8681
20.7409
19.7091
20.9623
19.3191
20.4629
19.4197
19.858
19.4187
19.4005
19.2264
19.1105
18.8859
18.9711
18.3752
19.0002
17.775
19.0168
17.4276
18.461
17.6943
22.2074
21.0776
22.5145
20.7532
21.9554
20.9076
21.3526
20.9341
20.9221
20.7663
20.6581
20.4561
20.5299
19.9875
20.5443
19.4383
20.5358
19.1109
19.9974
19.3308
22.9683
21.7351
23.3943
21.5128
22.7614
21.7255
22.1631
21.7717
21.7593
21.6229
21.5226
21.3454
21.4126
20.9276
21.4351
20.439
21.4427
20.1559
20.9507
20.4103
24.0234
22.636
24.5502
22.5153
23.7778
22.7719
23.158
22.8004
22.7619
22.6352
22.5266
22.3608
22.4023
21.9685
22.3929
21.5202
22.3721
21.2566
21.8999
21.4858
24.83
23.2714
25.5225
23.3187
24.5735
23.6421
23.9562
23.6545
23.5918
23.4838
23.375
23.2302
23.2509
22.8839
23.2233
22.4961
23.1902
22.2656
22.7563
22.4785
25.3576
23.5809
26.2815
23.8693
25.1065
24.2812
24.5061
24.2739
24.1878
24.1012
23.9963
23.8774
23.8772
23.5892
23.8357
23.2757
23.7992
23.087
23.4188
23.2868
25.2067
23.1018
26.4418
23.7882
25.0703
24.3866
24.5574
24.4232
24.3472
24.305
24.2296
24.16
24.1568
23.9731
24.138
23.7718
24.1364
23.6544
23.8476
23.8734
23.8024
21.0392
25.2077
22.2502
23.7929
23.2199
23.4509
23.4477
23.4456
23.4914
23.4907
23.5097
23.5401
23.4924
23.609
23.4596
23.7016
23.4589
23.5605
23.7495
21.9623
18.1068
22.8906
19.5014
21.6668
20.8984
21.3389
21.4197
21.5123
21.6524
21.735
21.8461
21.921
21.9976
22.0842
22.1156
22.2592
22.2031
22.2352
22.5166
21.5453
17.225
21.5278
17.777
20.8615
19.3851
20.1256
20.1386
20.249
20.4132
20.5173
20.6602
20.7468
20.8823
20.9422
21.0624
21.1381
21.1643
21.1306
21.3955
20.2934
17.491
20.9326
17.3225
21.1031
19.1246
20.1205
20.0901
20.1926
20.3696
20.4852
20.642
20.7529
20.926
21.0166
21.1907
21.3086
21.3866
21.3954
21.6814
13.6983
13.1874
16.0688
13.1599
16.6815
15.3163
16.3608
16.6464
16.9397
17.3347
17.6703
18.0221
18.3409
18.6863
18.965
19.2756
19.5487
19.7216
19.8401
20.1906
4.55416
4.63362
7.77011
4.6694
7.62019
6.78886
7.60977
8.14336
8.65744
9.34191
10.0727
10.8706
11.7313
12.6369
13.5578
14.4971
15.3743
16.1855
16.7028
17.5227
-1.24362
-2.23955
3.28829
-1.77595
1.73477
0.0125112
0.489531
0.410402
0.514799
0.806958
1.29066
1.98093
2.92913
4.08719
5.52327
7.1944
9.00818
11.1715
12.7832
15.4087
-51.8903
-56.0056
-45.9397
-50.6249
-46.0565
-46.9789
-45.7332
-45.5692
-45.151
-44.8146
-44.4007
-43.8914
-43.2261
-42.4115
-41.3621
-40.1161
-38.6682
-36.9229
-35.3094
-30.2568
-55.9957
-78.0151
-69.6798
-80.3629
-82.6813
-88.6744
-92.8207
-97.13
-100.598
-103.495
-105.616
-106.963
-107.482
-107.154
-105.922
-103.728
-100.722
-97.1441
-92.8404
-87.6581
642.124
559.326
509.906
453.622
404.661
357.577
313.968
272.907
234.442
198.251
164.184
132.027
101.576
72.6731
45.2231
18.4648
-7.78541
-30.2909
-54.8268
-88.7607
641.852
559.06
509.644
453.364
404.406
357.325
313.72
272.662
234.199
198.012
163.947
131.794
101.348
72.4499
45.0066
18.2545
-7.99019
-30.4817
-54.9945
-88.919
-56.1861
-78.1964
-69.859
-80.5384
-82.8529
-88.8427
-92.9871
-97.2939
-100.761
-103.655
-105.774
-107.12
-107.638
-107.308
-106.074
-103.878
-100.876
-97.3048
-92.9971
-87.7952
-52.1132
-56.232
-46.1649
-50.8546
-46.289
-47.2153
-45.9713
-45.8136
-45.3993
-45.0689
-44.6615
-44.1596
-43.5028
-42.6974
-41.6583
-40.4212
-38.9823
-37.2534
-35.637
-30.572
-1.62429
-2.61744
2.9109
-2.1514
1.36119
-0.362977
0.120081
0.0396789
0.146362
0.440031
0.925344
1.61776
2.56863
3.73103
5.17084
6.85051
8.67638
10.8413
12.4707
15.1265
4.27427
4.3726
7.53773
4.44646
7.41615
6.60273
7.44084
7.99295
8.52589
9.22983
9.98111
10.8005
11.6834
12.6138
13.5571
14.5255
15.4307
16.2629
16.8083
17.6758
13.6862
13.2059
16.1269
13.2193
16.7616
15.4232
16.4787
16.7869
17.0978
17.5112
17.8656
18.2361
18.5733
18.9388
19.2329
19.5662
19.8554
20.0418
20.1711
20.5587
20.5061
17.7327
21.2028
17.5883
21.3845
19.4317
20.4306
20.4175
20.5306
20.7193
20.8462
21.0139
21.1345
21.3184
21.4149
21.6016
21.724
21.8075
21.815
22.1223
21.9125
17.6104
21.9384
18.1799
21.2697
19.809
20.5505
20.5717
20.6868
20.8561
20.9644
21.1111
21.2004
21.3391
21.3983
21.5224
21.5963
21.6218
21.5813
21.8552
22.4154
18.57
23.3632
19.9673
22.1331
21.3673
21.8077
21.8881
21.98
22.119
22.1998
22.3088
22.3807
22.4544
22.5358
22.5644
22.7025
22.6414
22.6639
22.9441
24.2614
21.5001
25.6691
22.7029
24.2442
23.666
23.8949
23.8861
23.8796
23.9204
23.914
23.9273
23.9516
23.8978
24.0072
23.8516
24.0867
23.8379
23.9297
24.1115
25.6206
23.5126
26.8479
24.1847
25.4645
24.7728
24.94
24.7983
24.7167
24.6681
24.5863
24.5102
24.5006
24.3106
24.469
24.0967
24.4549
23.9686
24.1539
24.1699
25.7022
23.9203
26.6145
24.194
25.4291
24.5958
24.8175
24.5784
24.4876
24.3956
24.2855
24.1616
24.1565
23.8637
24.1055
23.5408
24.0589
23.3445
23.6701
23.5263
25.1107
23.5455
25.7911
23.581
24.8352
23.8961
24.2086
23.9009
23.8349
23.7225
23.6097
23.4607
23.4772
23.1059
23.441
22.7089
23.3973
22.4703
22.9546
22.6605
24.2505
22.8529
24.7623
22.7212
23.9849
22.9695
23.3553
22.9905
22.9487
22.8166
22.7031
22.532
22.5678
22.1278
22.5467
21.6656
22.5109
21.3902
22.0252
21.5887
23.1443
21.8946
23.5474
21.6569
22.9073
21.8572
22.2943
21.8921
21.8746
21.7299
21.6219
21.4366
21.4953
21.0008
21.501
20.4919
21.4884
20.1932
20.9791
20.4109
22.3118
21.1582
22.5858
20.8111
22.0141
20.9476
21.3899
20.9575
20.938
20.7713
20.6531
20.441
20.5045
19.9512
20.5001
19.3798
20.4711
19.0377
19.9182
19.2223
20.7391
19.6783
20.9212
19.2633
20.4057
19.3439
19.777
19.3248
19.2981
19.1137
18.9886
18.7552
18.8318
18.2275
18.8475
17.6115
18.8508
17.2571
18.2919
17.4999
20.2327
19.319
20.3264
18.8563
19.7884
18.7963
19.1666
18.6933
18.6569
18.4459
18.309
18.0516
18.134
17.4801
18.1448
16.814
18.1311
16.422
17.4855
16.6528
17.2402
16.6011
17.4192
16.0071
16.8345
15.8061
16.0037
15.5061
15.3122
15.0342
14.8334
14.5164
14.5894
13.9066
14.6073
13.3165
14.6902
13.0768
14.3292
13.3467
23.8398
21.1066
21.3096
18.6594
18.5288
17.6606
17.316
16.5082
16.3693
16.2175
16.2343
16.2205
16.6705
16.4645
17.6581
16.9613
18.9415
17.9839
19.8796
19.9337
)
;

boundaryField
{
    outletWall
    {
        type            fixedValue;
        value           uniform 0;
    }
    fineWalls
    {
        type            zeroGradient;
    }
    fineFrontAndBack
    {
        type            zeroGradient;
    }
    fineplugLeft
    {
        type            cyclicAMI;
        value           nonuniform List<scalar> 
20
(
15.0995
13.9092
12.3255
12.8801
10.8838
11.278
9.91786
9.82027
9.08429
8.74266
8.36102
8.13442
7.88575
9.15424
7.93445
9.00672
9.43806
12.7223
13.2471
14.43
)
;
    }
    fineplugRight
    {
        type            cyclicAMI;
        value           nonuniform List<scalar> 
20
(
15.1428
13.9439
12.3371
12.8886
10.8797
11.263
9.89101
9.77904
9.02948
8.67246
8.27512
8.02907
7.76321
8.92822
7.72898
8.79098
9.21063
12.485
12.9873
14.1784
)
;
    }
    inletOutletLeft
    {
        type            cyclicAMI;
        value           nonuniform List<scalar> 
20
(
15.0995
13.9092
12.3255
12.8801
10.8838
11.278
9.91786
9.82027
9.08429
8.74266
8.36102
8.13442
7.88575
9.15424
7.93445
9.00672
9.43806
12.7223
13.2471
14.43
)
;
    }
    inletLeft
    {
        type            zeroGradient;
    }
    inletWallsLeft
    {
        type            zeroGradient;
    }
    inletFacesLeft
    {
        type            zeroGradient;
    }
    inletOutletRight
    {
        type            cyclicAMI;
        value           nonuniform List<scalar> 
20
(
15.1428
13.9439
12.3371
12.8886
10.8797
11.263
9.89101
9.77904
9.02948
8.67246
8.27512
8.02907
7.76321
8.92822
7.72898
8.79098
9.21063
12.485
12.9873
14.1784
)
;
    }
    inletRight
    {
        type            zeroGradient;
    }
    inletWallsRight
    {
        type            zeroGradient;
    }
    inletFacesRight
    {
        type            zeroGradient;
    }
}


// ************************************************************************* //
