/*--------------------------------*- C++ -*----------------------------------*\
| =========                 |                                                 |
| \\      /  F ield         | OpenFOAM: The Open Source CFD Toolbox           |
|  \\    /   O peration     | Version:  4.1                                   |
|   \\  /    A nd           | Web:      www.OpenFOAM.org                      |
|    \\/     M anipulation  |                                                 |
\*---------------------------------------------------------------------------*/
FoamFile
{
    version     2.0;
    format      ascii;
    class       surfaceScalarField;
    location    "1";
    object      phi;
}
// * * * * * * * * * * * * * * * * * * * * * * * * * * * * * * * * * * * * * //

dimensions      [0 3 -1 0 0 0 0];

internalField   nonuniform List<scalar> 
2360
(
6517.47
7126.76
-609.292
7126.76
7126.76
7624.43
-497.668
7624.43
7624.43
7624.43
8229.99
-605.562
8229.99
8229.99
8851.45
-621.461
8851.45
8851.45
9605.38
-753.925
9605.38
9605.38
12321.9
-2716.5
12321.9
12321.9
13174.5
14062.3
14936.7
15841.3
16833.6
17847.6
260.34
18591
1256.32
2244.84
3227.54
4205.95
5182.73
6154.24
7133.79
8096.65
9087.12
10031.7
11041.5
11970.9
13230.9
-1342.2
14573.1
-1342.2
-1342.2
-1342.2
-2702.76
1360.56
-2702.76
-2702.76
-2702.76
144.05
-2846.81
144.046
144.045
2811.62
-2667.58
2811.62
2811.62
2811.62
1359.1
1452.52
1359.1
1359.1
1359.1
-13199.1
14558.2
-11938.8
-11007.2
-9998.02
-9053.8
-8063.63
-7101.08
-6121.86
-5150.63
-4174.08
-3195.78
-2213.18
-1225
-229.827
-17803.9
18577.1
-16790.6
-15799
-14895
-14020
-13129.7
-12276.2
-12276.2
-12276.2
-9571.72
-2704.48
-9571.72
-9571.72
-8830.5
-741.215
-8830.5
-8830.5
-8215.81
-614.69
-8215.81
-8215.81
-7615.32
-600.492
-7615.32
-7615.32
-7615.32
-7121.22
-494.104
-7121.22
-7121.22
-6513.72
-607.499
-121.362
-307.876
-133.611
-548.421
-153.957
-733.021
-181.733
-933.836
-217.681
-1157.37
-262.773
-1414.92
-318.521
-1716.4
-386.837
-2072.65
-470.031
-2496.06
-570.474
-3001.43
-689.052
-3607.9
-818.141
-4344.06
-916.065
-5252.51
-839.132
-6387.28
-298.094
-7542.63
881.919
-6447.37
1433.92
4234.38
1136.07
9826.43
10547.4
-192.586
-300.055
-212.406
-528.601
-245.054
-700.373
-289.043
-889.846
-345.469
-1100.95
-415.759
-1344.63
-502.175
-1629.99
-607.639
-1967.18
-735.849
-2367.85
-891.397
-2845.89
-1079.06
-3420.23
-1294.43
-4128.69
-1475.65
-5071.28
-1373.57
-6489.37
-520.027
-8396.16
1114.15
-8081.55
1699.84
3648.69
1050.07
10476.2
11103.4
-238.602
-288.804
-264.343
-502.86
-305.607
-659.11
-360.609
-834.844
-430.685
-1030.87
-517.575
-1257.74
-624.036
-1523.52
-753.684
-1837.53
-911.31
-2210.23
-1104.17
-2653.02
-1344.91
-3179.49
-1645.15
-3828.46
-1950.59
-4765.84
-1985.94
-6454.02
-1298.41
-9083.7
212.888
-9592.84
1470.09
2391.49
1052.7
10893.6
11555.6
-286.573
-272.662
-320.448
-468.985
-372.155
-607.403
-440.116
-766.883
-526.017
-944.969
-632.059
-1151.7
-761.62
-1393.96
-919.128
-1680.03
-1110.6
-2018.76
-1346.88
-2416.74
-1654.38
-2871.99
-2081.82
-3401.02
-2636.93
-4210.72
-3154.53
-5936.42
-3361.64
-8876.59
-2818.68
-10135.8
-93.5974
-333.591
778.782
10021.2
11719.7
-334.349
-250.486
-377.743
-425.591
-440.932
-544.213
-522.883
-684.932
-625.669
-842.183
-752.04
-1025.33
-906.019
-1239.98
-1092.78
-1493.26
-1319.2
-1792.34
-1599.37
-2136.58
-1978.8
-2492.56
-2574.89
-2804.94
-3556.04
-3229.57
-5055.73
-4436.73
-6997.68
-6934.64
-7741.51
-9391.98
-3371.25
-4703.85
23.116
6626.85
11001.6
-383.811
-220.949
-438.434
-370.967
-514.546
-468.101
-612.063
-587.416
-733.486
-720.76
-882.214
-876.604
-1062.94
-1059.26
-1281.5
-1274.7
-1545.22
-1528.62
-1870.53
-1811.27
-2325.86
-2037.23
-3128.67
-2002.12
-4681.69
-1676.54
-7427.79
-1690.64
-11321.2
-3041.24
-13915.6
-6797.62
-10193.5
-8425.86
-2499.62
-1067.08
5797.47
-437
-182.469
-504.941
-303.026
-595.773
-377.27
-710.97
-472.218
-853.473
-578.257
-1027.44
-702.636
-1238.24
-848.46
-1492.39
-1020.55
-1798.16
-1222.85
-2173.96
-1435.47
-2699.97
-1511.21
-3646.8
-1055.29
-5470.81
147.469
-8560.84
1399.39
-12636.5
1034.43
-15755.4
-3678.73
-16336.3
-7844.93
-15365.7
-2037.66
9008.88
-496.026
-133.315
-579.696
-219.356
-687.368
-269.598
-822.865
-336.721
-989.534
-411.588
-1192.43
-499.742
-1437.65
-603.241
-1732.78
-725.411
-2088.58
-867.053
-2521.59
-1002.46
-3046.72
-986.086
-3650.15
-451.858
-4336.19
833.507
-5182
2245.2
-5877.45
1729.87
-6755.79
-2800.39
-10378.4
-4222.28
-14634.9
2218.84
8932.12
-561.1
-72.2068
-662.547
-117.909
-788.848
-143.298
-946.915
-178.653
-1140.45
-218.051
-1375.58
-264.615
-1659.37
-319.453
-2000.57
-384.21
-2410.12
-457.497
-2893.83
-518.754
-3403.13
-476.785
-3736.75
-118.233
-3621.14
717.891
-3060.39
1684.46
-2424.62
1094.09
-3210.3
-2014.71
-6358.23
-1074.34
-7844.55
3705.16
2540.09
-621.687
0.0058455
-739.605
0.00953242
-882.912
0.00957773
-1061.57
0.00865901
-1279.63
0.00392479
-1544.24
-0.00775887
-1863.66
-0.0333156
-2247.78
-0.0874937
-2705.07
-0.203812
-3223.37
-0.454273
-3699.18
-0.971762
-3815.43
-1.98394
-3093.13
-4.41787
-1394.19
-14.4759
-260.401
-39.6963
-2278.66
3.54997
-3412.32
59.3132
202.149
90.689
74.6648
-621.681
72.2174
-739.598
117.926
-882.904
143.316
-1061.57
178.671
-1279.62
218.06
-1544.23
264.604
-1863.67
319.398
-2247.82
384.064
-2705.17
457.153
-3223.6
517.973
-3699.7
475.124
-3816.81
115.127
-3097.34
-723.89
-1410.66
-1701.15
-317.856
-1132.5
-2311.14
1996.84
-3367.48
1115.66
352.968
-3629.76
-2419.17
-561.092
133.324
-662.538
219.372
-788.837
269.615
-946.904
336.738
-1140.44
411.599
-1375.58
499.738
-1659.38
603.204
-2000.62
725.304
-2410.27
866.797
-2894.17
1001.88
-3403.89
984.844
-3738.44
449.68
-3625.52
-836.816
-3073.98
-2252.69
-2457.23
-1749.25
-3241.63
2781.23
-6365.55
4239.57
-7829.09
-2166.22
-8887.71
-496.011
182.476
-579.678
303.039
-687.347
377.284
-822.843
472.233
-989.512
578.269
-1192.41
702.639
-1437.65
848.441
-1732.83
1020.48
-2088.73
1222.69
-2521.96
1435.11
-3047.59
1510.48
-3652
1054.09
-4340.02
-148.798
-5191.82
-1400.88
-5901.53
-1039.53
-6788.56
3668.26
-10396.5
7847.48
-14642.9
2080.23
-8957.53
-436.977
220.952
-504.913
370.976
-595.74
468.111
-710.933
587.427
-853.434
720.769
-1027.4
876.609
-1238.21
1059.25
-1492.41
1274.68
-1798.28
1528.56
-2174.29
1811.12
-2700.73
2036.91
-3648.27
2001.63
-5473.44
1676.37
-8566.44
1692.12
-12649.4
3043.45
-15775.5
6794.31
-16353
8424.97
-15379
1106.23
-5745.5
-383.783
250.485
-438.4
425.593
-514.506
544.217
-612.016
684.937
-733.435
842.188
-882.162
1025.34
-1062.9
1239.99
-1281.49
1493.27
-1545.29
1792.36
-1870.79
2136.62
-2326.48
2492.6
-3129.83
2804.98
-4683.37
3229.91
-7429.8
4438.54
-11324.3
6937.94
-13922.2
9392.23
-10206.6
4709.35
-2503.05
-6597.29
-10965.1
-334.32
272.656
-377.707
468.98
-440.89
607.4
-522.834
766.881
-625.614
944.968
-751.982
1151.7
-905.966
1393.97
-1092.75
1680.05
-1319.22
2018.83
-1599.51
2416.91
-1979.21
2872.3
-2575.73
3401.5
-3557.31
4211.49
-5056.94
5938.17
-6998.69
8879.69
-7744.76
10138.3
-3380.54
345.139
22.3773
-10000.2
-11696.6
-286.546
288.793
-320.414
502.848
-372.115
659.1
-440.069
834.835
-525.964
1030.86
-632.003
1257.74
-761.565
1523.53
-919.084
1837.57
-1110.58
2210.33
-1346.91
2653.25
-1654.54
3179.93
-2082.24
3829.2
-2637.79
4767.05
-3155.72
6456.09
-3363.12
9087.09
-2823.14
9598.32
-99.5677
-2378.44
778.08
-10877.9
-11540
-238.579
300.041
-264.314
528.584
-305.572
700.358
-360.568
889.831
-430.639
1100.93
-517.525
1344.63
-623.986
1630
-753.64
1967.22
-911.278
2367.97
-1104.16
2846.13
-1344.92
3420.7
-1645.24
4129.52
-1950.95
5072.76
-1986.77
6491.92
-1300.03
8400.35
208.418
8089.87
1465.08
-3635.1
1052.21
-10465
-11093.3
-192.566
307.859
-212.382
548.4
-245.025
733
-289.009
933.815
-345.43
1157.35
-415.716
1414.92
-502.129
1716.41
-607.595
2072.69
-735.81
2496.18
-891.362
3001.68
-1079.03
3608.36
-1294.4
4344.89
-1475.7
5254.05
-1373.92
6390.14
-521.067
7547.5
1112.48
6456.32
1698.52
-4221.14
1050.18
-9816.65
-10540.8
-121.347
-133.594
-153.936
-181.708
-217.652
-262.74
-318.483
-386.797
-469.989
-570.428
-688.998
-818.074
-915.995
-839.155
-298.454
880.684
1432.33
1136.08
163.849
-1016.51
310.868
-1034.76
431.763
-995.27
457.544
-930.363
415.305
-950.051
341.216
-939.919
292.398
-954.96
251.257
-954.831
218.795
-956.048
192.059
-955.96
169.449
-955.8
150.558
-957.88
131.856
-952.808
116.136
-963.825
95.7504
-942.466
82.3064
-977.022
61.4209
-923.687
58.009
-1006.41
-4.55242
-866.858
-1264.53
39.1594
-1055.66
19.8631
-1015.46
23.5873
-998.99
32.4073
-939.178
55.3162
-972.955
65.2306
-949.829
70.5601
-960.286
69.2381
-953.505
68.5865
-955.393
67.7603
-955.129
66.6499
-954.686
65.5331
-956.76
64.3442
-951.617
64.0728
-963.551
63.5384
-941.929
65.2445
-978.726
65.9358
-924.377
70.0268
-1010.49
41.4018
-838.232
-1223.13
48.2202
-1103.88
49.8596
-1017.09
46.4324
-995.559
35.842
-928.583
30.4768
-967.586
24.331
-943.679
21.1756
-957.126
19.3368
-951.662
18.1038
-954.156
16.8417
-953.863
15.9181
-953.759
15.0232
-955.861
14.8215
-951.412
14.1799
-962.906
14.6935
-942.439
13.8655
-977.895
15.1714
-925.681
13.1351
-1008.46
31.7949
-856.89
-1191.33
45.1125
-1148.99
42.8927
-1014.87
47.1262
-999.791
48.4843
-929.94
50.2386
-969.338
51.9583
-945.397
52.8915
-958.057
53.111
-951.879
52.6625
-953.706
52.029
-953.228
51.137
-952.865
49.7135
-954.436
48.537
-950.234
45.8307
-960.198
44.9746
-941.582
39.9752
-972.895
40.2493
-925.954
31.6556
-999.861
36.057
-861.29
-1155.28
37.8593
-1186.85
51.4099
-1028.42
55.8565
-1004.23
55.4573
-929.536
54.7793
-968.657
54.81
-945.423
53.8786
-957.122
53.4364
-951.433
52.608
-952.874
51.6405
-952.257
50.514
-951.735
48.9875
-952.906
47.7518
-948.995
45.3056
-957.749
44.6409
-940.914
40.7233
-968.975
41.6211
-926.85
35.5905
-993.829
39.04
-864.738
-1116.24
36.5259
-1223.37
66.2295
-1058.12
73.3488
-1011.35
71.8158
-928.003
68.3922
-965.233
67.144
-944.175
64.5805
-954.559
62.6841
-949.537
60.344
-950.534
58.0791
-949.992
55.8323
-949.489
53.3342
-950.408
51.3707
-947.032
48.2472
-954.625
47.1752
-939.842
42.6
-964.399
43.1512
-927.401
36.0336
-986.711
41.8835
-870.588
-1074.35
38.1844
-1261.56
85.9985
-1105.93
99.3949
-1024.75
97.6546
-926.262
91.1117
-958.689
88.3287
-941.391
83.676
-949.905
80.173
-946.033
76.1843
-946.544
72.3902
-946.197
68.7214
-945.819
64.8827
-946.569
61.783
-943.931
57.4631
-950.305
55.7587
-938.137
50.0576
-958.698
50.734
-928.077
42.4859
-978.463
49.8287
-877.93
-1024.52
43.487
-1305.04
115.301
-1177.75
139.502
-1048.95
137.043
-923.804
125.626
-947.275
119.437
-935.205
111.545
-942.015
105.121
-939.611
98.3817
-939.807
91.9943
-939.812
85.9495
-939.776
79.8852
-940.506
74.8402
-938.888
68.6227
-944.089
65.5361
-935.052
58.2161
-951.379
58.1835
-928.045
48.5079
-968.788
57.1518
-886.575
-967.372
54.8886
-1359.93
154.798
-1277.66
193.942
-1088.09
190.795
-920.656
174.048
-930.525
163.186
-924.34
151.445
-930.273
141.265
-929.429
130.993
-929.533
121.146
-929.963
111.803
-930.432
102.546
-931.247
94.5281
-930.869
85.3954
-934.955
79.8834
-929.539
70.0205
-941.515
68.3964
-926.42
56.6893
-957.08
65.4634
-895.349
-901.908
78.1656
-1438.1
200.866
-1400.36
250.511
-1137.74
244.703
-914.849
225.704
-911.527
211.122
-909.76
196.829
-915.981
183.58
-916.181
170.246
-916.2
157.128
-916.846
144.406
-917.711
131.68
-918.522
120.147
-919.337
107.503
-922.312
98.5743
-920.611
85.4128
-928.355
80.7984
-921.807
66.4501
-942.733
72.253
-901.152
-829.655
118.009
-1556.11
228.76
-1511.11
266.68
-1175.66
257.047
-905.217
248.871
-903.351
238.359
-899.249
228.075
-905.697
216.81
-904.917
204.477
-903.867
191.345
-903.715
177.743
-904.11
163.494
-904.273
149.743
-905.587
134.553
-907.123
122.185
-908.243
105.693
-911.863
96.3687
-912.483
78.2245
-924.589
74.7809
-897.709
-754.875
155.235
-1711.35
179.844
-1535.72
182.897
-1178.72
186.349
-908.673
212.263
-929.269
221.084
-908.074
226.822
-911.44
227.132
-905.23
223.426
-900.165
216.392
-896.685
206.735
-894.456
194.86
-892.401
181.808
-892.538
166.405
-891.723
151.44
-893.281
132.157
-892.582
115.961
-896.289
91.881
-900.511
70.1961
-876.026
-684.679
125.998
-1837.34
25.7961
-1435.52
27.4586
-1180.38
83.5119
-964.728
151.6
-997.359
192.234
-948.709
222.422
-941.63
241.698
-924.507
252.124
-910.593
255.178
-899.74
252.199
-891.479
244.448
-884.652
232.866
-880.957
217.324
-876.184
198.524
-874.483
174.529
-868.588
147.265
-869.027
112.193
-865.44
64.2629
-828.098
-620.416
-7.35755
-1829.99
-91.5471
-1351.34
-26.4082
-1245.52
88.9889
-1080.13
176.593
-1084.97
246.039
-1018.16
296.229
-991.823
332.002
-960.284
354.215
-932.809
364.766
-910.294
365.456
-892.171
358.134
-877.333
343.586
-866.411
322.602
-855.202
294.093
-845.976
258.182
-832.679
212.295
-823.142
156.278
-809.425
78.3751
-750.197
-542.041
-103.341
-1726.65
-20.6994
-1433.98
108.172
-1374.4
245.175
-1217.14
340.263
-1180.06
426.118
-1104.02
488.662
-1054.37
534.155
-1005.78
562.838
-961.494
576.089
-923.547
575.465
-891.549
562.633
-864.504
538.093
-841.872
503.095
-820.207
456.01
-798.892
397.602
-774.273
323.87
-749.412
234.881
-720.437
126.471
-641.788
-415.569
-20.0241
-1706.63
142.116
-1596.12
298.688
-1530.97
434.799
-1353.25
550.824
-1296.08
649.561
-1202.75
727.872
-1132.68
786.175
-1064.08
825.672
-1000.99
846.232
-944.109
847.961
-893.279
831.171
-847.715
795.564
-806.266
742.079
-766.724
669.642
-726.456
579.211
-683.843
468.414
-638.615
336.193
-588.217
186.819
-492.415
-228.751
106.253
-1812.88
180.736
-1670.61
307.17
-1657.41
420.147
-1466.23
538.733
-1414.67
640.482
-1304.5
735.659
-1227.86
817.031
-1145.46
886.081
-1070.04
939.59
-997.619
974.968
-928.658
989.586
-862.334
980.844
-797.524
947.275
-733.157
887.144
-666.326
800.826
-597.526
687.258
-525.048
534.89
-435.85
309.67
-267.197
80.9195
8.14911
-1821.03
-85.8194
-1576.64
-117.081
-1626.15
-110.481
-1472.83
-94.8235
-1430.33
-61.3014
-1338.03
-16.3454
-1272.82
38.4405
-1200.24
101.256
-1132.86
168.822
-1065.19
238.231
-998.068
306.204
-930.308
369.66
-860.98
425.713
-789.211
473.498
-714.111
515.082
-639.11
549.468
-559.435
523.74
-410.122
289.629
-33.0873
370.549
-156.904
-1664.13
-344.285
-1389.26
-565.556
-1404.87
-725.504
-1312.88
-883.967
-1271.87
-1003.47
-1218.53
-1100.93
-1175.35
-1169.83
-1131.34
-1213.09
-1089.6
-1230.77
-1047.51
-1223.89
-1004.95
-1193.45
-960.747
-1140.41
-914.017
-1065.74
-863.881
-969.032
-810.824
-849.631
-758.512
-705.896
-703.17
-535.305
-580.714
-310.125
-258.267
60.4234
-689.13
-1103.39
-1533.26
-1871.14
-2168.01
-2411.54
-2611.89
-2768.23
-2882.83
-2955.34
-2985.29
-2971.04
-2910.05
-2798.94
-2634.76
-2418.27
-2146.44
-1752.16
-1035.42
-688.993
1663.99
-1103.22
1389.23
-1533.08
1404.85
-1870.99
1312.91
-2167.92
1271.93
-2411.54
1218.62
-2612.02
1175.48
-2768.54
1131.51
-2883.32
1089.78
-2956.02
1047.7
-2986.16
1005.14
-2972.11
960.944
-2911.31
914.205
-2800.36
864.047
-2636.31
810.952
-2419.89
758.577
-2147.95
703.06
-1753.08
580.131
-1035.42
257.338
-60.4221
-157.076
1821.07
-344.409
1576.56
-565.731
1626.17
-725.792
1472.97
-884.369
1430.5
-1003.97
1338.23
-1101.62
1273.13
-1170.72
1200.61
-1214.2
1133.26
-1232.11
1065.6
-1225.46
998.493
-1195.25
930.73
-1142.43
861.388
-1067.97
789.587
-971.464
714.444
-852.248
639.36
-708.62
559.432
-537.814
409.323
-311.52
31.0415
-371.942
7.59076
1813.47
-86.6487
1670.8
-118.416
1657.94
-112.329
1466.88
-97.1888
1415.36
-64.1146
1305.15
-19.6191
1228.63
34.8133
1146.18
97.3769
1070.7
164.756
998.222
234.019
929.229
301.892
862.855
365.307
797.97
421.401
733.491
469.312
666.531
511.141
597.529
545.771
524.801
520.043
435.049
286.691
264.392
-85.2511
106.045
1707.43
180.026
1596.82
305.925
1532.04
418.539
1354.26
536.859
1297.04
638.238
1203.77
733.059
1133.81
814.255
1064.98
883.344
1001.61
937
944.565
972.561
893.667
987.377
848.039
978.836
806.51
945.473
766.854
885.515
726.488
799.382
683.662
685.943
638.24
533.486
587.505
308.047
489.83
222.796
-19.8091
1727.23
142.258
1434.75
298.666
1375.63
434.992
1217.94
551.436
1180.59
650.274
1104.93
728.665
1055.41
787.057
1006.59
826.715
961.948
847.472
923.806
849.393
891.744
832.766
864.664
797.271
842.004
743.824
820.3
671.287
799.023
580.633
774.315
469.351
749.521
336.341
720.515
185.826
640.342
408.622
-102.98
1830.21
-19.6566
1351.42
109.391
1246.58
246.793
1080.53
342.45
1084.94
428.596
1018.78
491.482
992.527
537.194
960.875
566.012
933.129
579.357
910.461
578.807
892.293
566.03
877.441
541.504
866.53
506.462
855.341
459.233
846.251
400.57
832.977
326.309
823.781
236.437
810.387
126.738
750.041
535.36
-7.19629
1837.41
-90.2876
1434.51
-24.4361
1180.73
91.1685
964.926
178.915
997.19
248.569
949.129
299.038
942.056
334.982
924.93
357.243
910.868
367.781
899.922
368.445
891.629
361.092
884.793
346.504
881.117
325.468
876.377
296.893
874.825
260.884
868.986
214.789
869.876
158.393
866.782
79.9621
828.471
615.322
125.907
1711.5
26.5087
1533.91
29.1547
1178.08
85.3098
908.772
153.096
929.405
193.771
908.454
224.032
911.796
243.36
905.603
253.748
900.481
256.72
896.951
253.652
894.697
245.818
892.627
234.162
892.774
218.563
891.975
199.753
893.636
175.779
892.959
148.607
897.048
113.714
901.674
66.1354
876.049
681.458
155.157
1556.34
179.942
1509.13
183.525
1174.5
187.109
905.186
212.741
903.771
221.526
899.667
227.226
906.094
227.512
905.315
223.735
904.256
216.603
904.081
206.84
904.458
194.865
904.601
181.729
905.908
166.27
907.434
151.315
908.59
132.095
912.178
116.121
913.021
92.4919
925.303
71.4697
897.071
752.928
118.035
1438.31
228.56
1398.6
266.41
1136.65
256.859
914.737
248.661
911.97
238.183
910.145
227.894
916.384
216.626
916.583
204.262
916.621
191.08
917.264
177.417
918.12
163.107
918.912
149.308
919.708
134.091
922.651
121.748
920.933
105.325
928.602
96.2173
922.128
78.5003
943.02
75.4412
900.13
828.369
78.1596
1360.15
200.551
1276.21
249.893
1087.31
244.103
920.526
225.238
930.834
210.786
924.596
196.578
930.592
183.403
929.758
170.125
929.898
157.049
930.34
144.356
930.813
131.651
931.616
120.14
931.219
107.523
935.268
98.6393
929.816
85.5369
941.704
81.0602
926.605
66.9675
957.113
72.6727
894.425
901.041
54.7192
1305.43
154.449
1176.48
193.312
1048.45
190.179
923.662
173.588
947.428
162.892
935.294
151.293
942.193
141.255
939.798
131.117
940.038
121.396
940.063
112.168
940.042
103.012
940.774
95.0823
939.15
86.0247
944.327
80.5745
935.267
70.7494
951.53
69.1802
928.175
57.5426
968.751
65.8728
886.095
966.914
43.1628
1262.27
114.912
1104.73
138.863
1024.5
136.424
926.102
125.096
958.756
119.058
941.333
111.303
949.95
105.042
946.059
98.4685
946.612
92.2514
946.281
86.3728
945.922
80.4636
946.684
75.5584
944.056
69.4553
950.431
66.465
938.258
59.1772
958.819
59.1854
928.167
49.4782
978.459
57.6011
877.973
1024.52
37.8763
1224.4
85.446
1057.17
98.5561
1011.39
96.8453
927.815
90.2946
965.309
87.6147
944.015
83.0426
954.524
79.673
949.431
75.825
950.463
72.1913
949.917
68.6906
949.424
65.0221
950.354
62.0911
946.988
57.9201
954.603
56.3727
939.807
50.7451
964.448
51.5488
927.365
43.3208
986.688
50.2563
871.038
1074.77
36.4354
1187.96
65.4058
1028.2
72.2474
1004.55
70.7782
929.286
67.3161
968.773
66.1232
945.21
63.5866
957.062
61.7605
951.259
59.4955
952.729
57.3299
952.084
55.1972
951.558
52.8317
952.721
51.0173
948.804
48.0517
957.57
47.1785
940.682
42.7578
968.87
43.5523
926.571
36.6486
993.592
42.1976
865.49
1116.97
38.015
1149.95
50.4408
1015.77
54.778
1000.21
54.4963
929.57
53.8482
969.423
53.8962
945.164
52.9796
957.981
52.5456
951.695
51.7304
953.546
50.7914
953.025
49.7098
952.641
48.2591
954.174
47.1261
949.938
44.8246
959.873
44.341
941.166
40.62
972.592
41.7958
925.396
36.1466
999.242
39.1734
862.464
1156.14
45.3128
1104.64
42.1424
1018.95
46.4668
995.891
47.9919
928.046
49.8539
967.563
51.5729
943.446
52.5264
957.029
52.7182
951.505
52.2497
954.016
51.599
953.677
50.7001
953.542
49.298
955.577
48.1627
951.075
45.5505
962.487
44.8174
941.901
40.01
977.4
40.5232
924.884
32.3204
1007.45
36.0105
858.775
1192.15
48.2318
1056.41
49.3048
1017.87
46.0369
999.159
35.5701
938.514
30.364
972.77
24.2666
949.545
21.1827
960.113
19.3588
953.329
18.1292
955.246
16.8509
954.956
15.902
954.491
14.9775
956.503
14.7316
951.321
14.0802
963.139
14.608
941.374
13.8895
978.119
15.2743
923.499
13.5093
1009.21
31.6695
840.615
1223.82
38.9402
1017.47
19.321
1037.49
22.8172
995.664
31.6459
929.686
54.8857
949.531
65.0316
939.4
70.6345
954.511
69.501
954.464
69.074
955.674
68.4007
955.63
67.3601
955.532
66.2446
957.619
65.0193
952.547
64.6793
963.479
63.9431
942.11
65.4435
976.619
65.9049
923.038
69.84
1005.28
41.1951
869.26
1265.02
163.946
311.194
431.78
457.461
415.461
341.575
292.978
252.268
219.766
192.802
170.031
151.102
132.417
116.683
96.2382
82.687
61.5036
57.5698
-4.69154
)
;

boundaryField
{
    outletWall
    {
        type            calculated;
        value           nonuniform List<scalar> 
60
(
-6513.72
-10018.8
-9528.58
-4786.38
5267.36
7001.59
6310.34
5350.43
4473.15
3726.48
3101.88
2579.26
2140.96
1772.15
1460.02
1193.32
961.611
753.367
560.671
312.297
116.928
184.748
227.331
270.409
312.148
354.25
398.501
446.859
499.986
549.47
549.474
499.992
446.871
398.52
354.274
312.172
270.431
227.351
184.765
116.941
-6517.47
-10014
-9520.4
-4772.79
5277.18
7006.8
6313.29
5351.98
4473.97
3726.93
3102.12
2579.37
2141
1772.15
1460
1193.3
961.587
753.343
560.646
312.279
)
;
    }
    fineWalls
    {
        type            calculated;
        value           uniform 0;
    }
    fineFrontAndBack
    {
        type            calculated;
        value           nonuniform List<scalar> 
960
(
-4.50193e-15
2.4761e-14
-8.89285e-15
-1.94205e-14
-6.70717e-14
-9.13616e-14
-4.28298e-14
-8.87412e-14
-4.2044e-14
-1.25529e-13
1.99139e-13
7.33424e-12
2.14623e-12
5.71653e-13
-1.33351e-11
-4.8946e-12
-6.3874e-12
-4.90286e-11
-9.51473e-12
-1.02166e-11
-4.61983e-13
-1.45581e-12
-2.42064e-12
-2.52627e-12
-2.06738e-12
-3.01383e-12
-5.06939e-11
-5.01164e-12
-4.94406e-12
-4.91672e-12
-4.93568e-12
-4.555e-12
-4.24515e-12
-4.04072e-12
-3.92487e-12
-3.66623e-12
-3.41272e-12
-2.7848e-12
-2.92649e-12
-2.33977e-12
-2.39852e-11
1.12413e-11
1.0441e-11
6.85022e-12
2.41936e-11
4.34916e-12
8.74698e-13
-2.54542e-12
-7.08462e-11
-2.93642e-11
-3.36204e-11
-4.68608e-11
5.72934e-12
6.32904e-12
3.40953e-12
-8.214e-12
-1.02326e-12
4.44916e-12
6.41598e-12
3.52558e-11
2.34134e-12
3.15386e-12
3.0921e-12
3.08925e-12
3.15926e-12
3.45122e-12
3.73692e-12
4.40625e-12
4.42096e-12
4.57719e-12
4.23254e-12
4.48984e-12
5.34177e-12
5.20181e-11
3.03462e-12
2.11708e-12
2.40271e-12
1.92695e-12
7.57819e-13
-9.2445e-13
-3.30918e-12
-4.73975e-12
-2.37403e-11
-3.46089e-12
-3.24558e-12
-1.83673e-11
-3.34439e-12
-3.57782e-12
-1.71342e-11
-1.54985e-12
-4.81865e-13
3.78325e-13
1.66616e-13
3.58672e-13
4.73109e-13
2.34861e-12
2.43584e-13
7.96788e-14
-3.13772e-13
-1.01554e-13
8.34024e-17
2.48435e-16
3.44475e-16
-4.22256e-17
-1.04962e-15
-1.44855e-15
1.77623e-17
1.51567e-15
6.7803e-16
-1.27035e-15
-2.3858e-15
-1.99387e-15
-5.23874e-15
-1.2868e-14
-1.92295e-14
-1.99318e-14
9.39577e-15
5.03022e-15
-2.04388e-14
2.67406e-16
1.14237e-15
2.54222e-15
3.25291e-15
1.46258e-15
-9.69628e-16
1.39504e-15
7.95835e-15
1.18839e-14
1.20551e-14
1.14129e-14
1.3327e-14
4.76341e-15
-2.4967e-14
-7.02732e-14
-1.09683e-13
-1.37439e-14
4.34725e-14
-2.54229e-13
4.5209e-16
3.14054e-15
8.93281e-15
1.54758e-14
1.53171e-14
7.06057e-15
5.76224e-15
2.36494e-14
4.84264e-14
6.43866e-14
7.02804e-14
7.45311e-14
5.52219e-14
-3.20691e-14
-2.05407e-13
-3.71715e-13
-5.18226e-14
5.9527e-14
-4.00564e-13
-1.21392e-16
5.87943e-15
2.23751e-14
4.58e-14
5.39147e-14
3.0903e-14
1.20257e-14
5.10768e-14
1.309e-13
1.92994e-13
2.20707e-13
2.30844e-13
1.83164e-13
-6.24943e-14
-5.97709e-13
-1.13054e-12
-3.42462e-13
-4.99924e-13
3.00291e-13
-4.53247e-15
2.02899e-15
3.26598e-14
8.53363e-14
1.13578e-13
6.66705e-14
2.2271e-15
5.4141e-14
2.1746e-13
3.61131e-13
4.44331e-13
4.83354e-13
3.76422e-13
-2.13067e-13
-1.56106e-12
-3.26896e-12
-2.40339e-12
2.18935e-12
3.75453e-12
-2.15025e-14
-3.8939e-14
-2.18884e-14
4.51829e-14
1.09148e-13
5.77808e-14
-9.40769e-14
-1.37368e-13
2.33075e-14
2.28533e-13
4.38522e-13
6.19431e-13
4.81416e-13
-6.1622e-13
-3.31136e-12
-7.70206e-12
-1.0299e-11
-2.93078e-12
8.66048e-13
-7.07894e-14
-1.98424e-13
-3.13327e-13
-3.29273e-13
-2.1401e-13
-1.75385e-13
-4.72702e-13
-9.74689e-13
-1.23612e-12
-1.1821e-12
-7.32979e-13
-3.06976e-15
2.329e-13
-1.10901e-12
-5.02053e-12
-1.18947e-11
-2.06184e-11
-2.64723e-11
2.55192e-12
-1.8596e-13
-6.10639e-13
-1.10383e-12
-1.41557e-12
-1.28093e-12
-1.04238e-12
-1.5629e-12
-3.16537e-12
-4.80996e-12
-5.58245e-12
-4.97819e-12
-2.67131e-12
-5.18949e-13
-8.10627e-13
-3.24089e-12
-4.36117e-12
-7.49818e-13
8.0457e-12
2.34575e-11
-3.84172e-13
-1.29888e-12
-2.37461e-12
-3.19618e-12
-3.30591e-12
-3.19196e-12
-4.13853e-12
-6.88032e-12
-1.12096e-11
-1.43601e-11
-1.51455e-11
-1.05287e-11
-2.3413e-12
1.06686e-12
1.63387e-13
-1.00277e-12
3.17509e-12
9.86284e-12
8.56084e-12
-4.99947e-13
-1.58065e-12
-2.75332e-12
-3.77004e-12
-4.56248e-12
-6.00694e-12
-7.8039e-12
-9.51019e-12
-1.63199e-11
-2.33193e-11
-3.13114e-11
-3.23793e-11
-2.10601e-11
-2.05201e-11
-1.68084e-11
2.01331e-12
1.91502e-12
-2.67231e-12
-4.79237e-12
3.20639e-13
1.16444e-12
2.31332e-12
3.57817e-12
4.42501e-12
4.39803e-12
1.86694e-12
-2.82733e-12
-2.73905e-12
-3.41961e-12
-3.18141e-12
-1.89471e-12
-2.58699e-13
3.47427e-13
2.75487e-13
4.89545e-13
5.62091e-12
1.5033e-11
4.00422e-11
2.87823e-13
1.04889e-12
2.05527e-12
2.94438e-12
3.02471e-12
2.06274e-12
6.73028e-13
-1.0395e-13
6.19196e-13
8.90852e-13
1.22518e-12
1.13914e-12
6.66924e-13
5.29226e-13
3.47798e-13
-8.75056e-13
-2.52274e-12
-5.56919e-12
6.16097e-13
1.46443e-13
5.05601e-13
9.54552e-13
1.25919e-12
1.06679e-12
4.58261e-13
8.40184e-14
4.01174e-13
8.27195e-13
1.05789e-12
1.12143e-12
8.51581e-13
5.22247e-13
8.20755e-13
1.45581e-12
-3.86808e-14
-4.45977e-12
-1.21037e-11
-2.41108e-11
5.72567e-14
1.68516e-13
2.76137e-13
2.88624e-13
1.33169e-13
-4.59594e-14
1.15438e-14
2.76938e-13
4.39142e-13
5.47346e-13
5.24449e-13
3.36457e-13
2.27711e-13
1.09725e-12
4.09183e-12
9.40808e-12
1.62046e-11
2.08552e-11
-7.15221e-12
1.77075e-14
3.55782e-14
2.68069e-14
-3.17334e-14
-1.11651e-13
-1.11814e-13
5.66192e-15
1.19045e-13
1.53363e-13
1.8664e-13
1.58643e-13
6.20771e-14
6.45871e-14
9.30782e-13
3.85797e-12
8.902e-12
1.21772e-11
5.37597e-12
-9.22583e-12
3.86548e-15
1.99693e-16
-2.23658e-14
-6.60775e-14
-9.77571e-14
-6.835e-14
3.13449e-15
3.68921e-14
3.22095e-14
3.47045e-14
1.80876e-14
-2.13653e-14
-3.40333e-15
4.72306e-13
2.11244e-12
4.93375e-12
6.10907e-12
2.67039e-12
4.07021e-12
2.18695e-16
-3.99365e-15
-1.64365e-14
-3.5388e-14
-4.39401e-14
-2.56957e-14
1.92911e-15
7.24802e-15
-5.90828e-16
-4.99032e-15
-1.24719e-14
-2.54033e-14
-1.64517e-14
1.67447e-13
8.46493e-13
2.20145e-12
2.77111e-12
1.67587e-13
-1.45387e-12
-2.98448e-16
-2.256e-15
-6.68103e-15
-1.20061e-14
-1.22989e-14
-4.88687e-15
1.56117e-15
-1.81803e-16
-3.94023e-15
-7.16504e-15
-9.8299e-15
-1.31666e-14
-1.12375e-14
3.89662e-14
2.50827e-13
7.79569e-13
8.82938e-13
2.95266e-13
7.67381e-14
-1.85248e-16
-8.31903e-16
-1.93192e-15
-2.61832e-15
-1.34548e-15
1.06619e-15
1.12756e-15
-9.40968e-16
-2.01318e-15
-3.32378e-15
-4.00349e-15
-4.63042e-15
-5.12859e-15
1.33948e-15
4.44845e-14
1.92182e-13
1.60632e-13
2.14262e-14
1.4574e-13
-5.80897e-17
-1.82787e-16
-2.76424e-16
-3.55074e-17
7.07593e-16
1.17685e-15
4.68153e-16
-4.21687e-16
-5.10066e-16
-7.46257e-16
-7.71983e-16
-7.97608e-16
-1.28902e-15
-3.38707e-15
-4.55874e-15
1.27636e-14
1.95788e-14
4.08432e-14
-1.11276e-13
4.50193e-15
-2.4761e-14
8.89285e-15
1.94205e-14
6.70717e-14
9.13616e-14
4.28298e-14
8.87412e-14
4.2044e-14
1.25529e-13
-1.99139e-13
-7.33424e-12
-2.14623e-12
-5.71653e-13
1.33351e-11
4.8946e-12
6.3874e-12
4.90286e-11
9.51473e-12
1.02166e-11
4.61983e-13
1.45581e-12
2.42064e-12
2.52627e-12
2.06738e-12
3.01383e-12
5.06939e-11
5.01164e-12
4.94406e-12
4.91672e-12
4.93568e-12
4.555e-12
4.24515e-12
4.04072e-12
3.92487e-12
3.66623e-12
3.41272e-12
2.7848e-12
2.92649e-12
2.33977e-12
2.39852e-11
-1.12413e-11
-1.0441e-11
-6.85022e-12
-2.41936e-11
-4.34916e-12
-8.74698e-13
2.54542e-12
7.08462e-11
2.93642e-11
3.36204e-11
4.68608e-11
-5.72934e-12
-6.32904e-12
-3.40953e-12
8.214e-12
1.02326e-12
-4.44916e-12
-6.41598e-12
-3.52558e-11
-2.34134e-12
-3.15386e-12
-3.0921e-12
-3.08925e-12
-3.15926e-12
-3.45122e-12
-3.73692e-12
-4.40625e-12
-4.42096e-12
-4.57719e-12
-4.23254e-12
-4.48984e-12
-5.34177e-12
-5.20181e-11
-3.03462e-12
-2.11708e-12
-2.40271e-12
-1.92695e-12
-7.57819e-13
9.2445e-13
3.30918e-12
4.73975e-12
2.37403e-11
3.46089e-12
3.24558e-12
1.83673e-11
3.34439e-12
3.57782e-12
1.71342e-11
1.54985e-12
4.81865e-13
-3.78325e-13
-1.66616e-13
-3.58672e-13
-4.73109e-13
-2.34861e-12
-2.43584e-13
-7.96788e-14
3.13772e-13
1.01554e-13
-8.34024e-17
-2.48435e-16
-3.44475e-16
4.22256e-17
1.04962e-15
1.44855e-15
-1.77623e-17
-1.51567e-15
-6.7803e-16
1.27035e-15
2.3858e-15
1.99387e-15
5.23874e-15
1.2868e-14
1.92295e-14
1.99318e-14
-9.39577e-15
-5.03022e-15
2.04388e-14
-2.67406e-16
-1.14237e-15
-2.54222e-15
-3.25291e-15
-1.46258e-15
9.69628e-16
-1.39504e-15
-7.95835e-15
-1.18839e-14
-1.20551e-14
-1.14129e-14
-1.3327e-14
-4.76341e-15
2.4967e-14
7.02732e-14
1.09683e-13
1.37439e-14
-4.34725e-14
2.54229e-13
-4.5209e-16
-3.14054e-15
-8.93281e-15
-1.54758e-14
-1.53171e-14
-7.06057e-15
-5.76224e-15
-2.36494e-14
-4.84264e-14
-6.43866e-14
-7.02804e-14
-7.45311e-14
-5.52219e-14
3.20691e-14
2.05407e-13
3.71715e-13
5.18226e-14
-5.9527e-14
4.00564e-13
1.21392e-16
-5.87943e-15
-2.23751e-14
-4.58e-14
-5.39147e-14
-3.0903e-14
-1.20257e-14
-5.10768e-14
-1.309e-13
-1.92994e-13
-2.20707e-13
-2.30844e-13
-1.83164e-13
6.24943e-14
5.97709e-13
1.13054e-12
3.42462e-13
4.99924e-13
-3.00291e-13
4.53247e-15
-2.02899e-15
-3.26598e-14
-8.53363e-14
-1.13578e-13
-6.66705e-14
-2.2271e-15
-5.4141e-14
-2.1746e-13
-3.61131e-13
-4.44331e-13
-4.83354e-13
-3.76422e-13
2.13067e-13
1.56106e-12
3.26896e-12
2.40339e-12
-2.18935e-12
-3.75453e-12
2.15025e-14
3.8939e-14
2.18884e-14
-4.51829e-14
-1.09148e-13
-5.77808e-14
9.40769e-14
1.37368e-13
-2.33075e-14
-2.28533e-13
-4.38522e-13
-6.19431e-13
-4.81416e-13
6.1622e-13
3.31136e-12
7.70206e-12
1.0299e-11
2.93078e-12
-8.66048e-13
7.07894e-14
1.98424e-13