/*--------------------------------*- C++ -*----------------------------------*\
| =========                 |                                                 |
| \\      /  F ield         | OpenFOAM: The Open Source CFD Toolbox           |
|  \\    /   O peration     | Version:  4.1                                   |
|   \\  /    A nd           | Web:      www.OpenFOAM.org                      |
|    \\/     M anipulation  |                                                 |
\*---------------------------------------------------------------------------*/
FoamFile
{
    version     2.0;
    format      ascii;
    class       volVectorField;
    location    "1";
    object      U;
}
// * * * * * * * * * * * * * * * * * * * * * * * * * * * * * * * * * * * * * //

dimensions      [0 1 -1 0 0 0 0];

internalField   nonuniform List<vector> 
1280
(
(-3.25343e-18 2.1067 0.0270782)
(4.20837e-18 2.741 -0.134315)
(-4.81965e-18 2.29681 -0.0213688)
(-1.40347e-17 2.32752 -0.0416612)
(-1.13995e-17 3.05991 -0.0999873)
(-6.60246e-17 2.39606 0.103709)
(-3.0952e-17 2.66308 0.0881804)
(-8.83708e-17 2.44604 -0.0860141)
(8.33554e-17 3.21213 -0.319364)
(-6.24401e-17 2.65039 0.053146)
(1.43913e-16 2.69064 -0.00402654)
(8.64379e-16 3.48602 -0.383294)
(1.55102e-15 2.85711 0.078724)
(4.23727e-16 2.88215 0.0262702)
(-2.74036e-15 3.75919 -0.546699)
(-3.5372e-15 3.12452 0.11232)
(-4.61601e-15 3.12539 0.36165)
(-8.33288e-15 4.04338 -2.25524)
(-6.87605e-15 4.44919 1.23354)
(-7.38323e-15 3.20793 -0.77307)
(-1.89531e-15 4.16308 1.6128)
(-5.97256e-15 4.54846 1.23696)
(-9.93081e-15 4.12715 4.94144)
(-1.03642e-14 3.69521 11.9489)
(-8.48155e-15 2.54174 18.3379)
(-1.23645e-14 2.31152 19.7761)
(-1.06865e-14 0.78915 19.1469)
(-2.05606e-14 2.54137 16.4228)
(-2.02833e-14 2.88696 15.8092)
(-2.01712e-14 2.88666 15.4101)
(-2.0249e-14 2.87929 15.075)
(-1.86872e-14 2.8274 14.8386)
(-1.7416e-14 2.91866 14.6933)
(-1.65773e-14 2.77596 14.7247)
(-1.6102e-14 3.05089 14.6389)
(-1.50409e-14 2.67388 14.802)
(-1.40009e-14 3.19273 14.371)
(-1.14248e-14 2.64467 14.4947)
(-1.20061e-14 3.11666 14.0024)
(-9.59904e-15 2.84433 16.3444)
(-4.17497e-15 2.44992 10.6989)
(9.02917e-15 -0.899678 -1.53554)
(8.38636e-15 -0.287685 -1.02153)
(4.9296e-15 -0.294988 -2.64204)
(3.06387e-15 -0.531503 -3.56282)
(3.4933e-15 -1.06947 -0.818305)
(7.02569e-16 -0.87561 -1.2273)
(-2.04451e-15 -0.708976 -1.90504)
(-1.34213e-14 -0.171773 -3.44568)
(-2.35857e-14 0.478806 -1.90828)
(-3.34728e-14 -0.448687 -1.22859)
(-8.1568e-15 0.149524 -3.34555)
(4.60188e-15 0.752386 -1.87422)
(5.08357e-15 0.912925 -1.1295)
(2.73858e-15 1.10544 -0.74468)
(-1.42976e-15 0.534983 -3.43677)
(-1.32262e-15 0.306325 -2.5539)
(3.57362e-15 0.291282 -0.990481)
(5.1534e-15 0.901593 -1.49995)
(5.936e-15 -2.46589 10.683)
(9.60552e-15 -2.83082 16.3477)
(1.29389e-14 -3.10724 14.0216)
(1.26855e-14 -2.6307 14.5006)
(1.26739e-14 -3.18288 14.3717)
(1.29611e-14 -2.66236 14.792)
(1.41588e-14 -3.03994 14.6299)
(1.53309e-14 -2.76467 14.7222)
(1.80769e-14 -2.90774 14.6934)
(1.81373e-14 -2.81685 14.8451)
(1.87782e-14 -2.87029 15.0957)
(1.73643e-14 -2.87817 15.4412)
(1.84198e-14 -2.87682 15.8304)
(2.1915e-14 -2.50661 16.4087)
(1.09656e-14 -0.760924 19.1385)
(1.24497e-14 -2.29932 19.7649)
(8.68545e-15 -2.5287 18.3297)
(9.85729e-15 -3.68123 11.9512)
(7.90544e-15 -4.10938 4.96151)
(3.109e-15 -4.53335 1.26801)
(-3.79261e-15 -4.14512 1.62597)
(-2.39145e-15 -3.19577 -0.76777)
(-3.4253e-15 -4.43449 1.24755)
(-4.03489e-15 -4.03374 -2.24383)
(-2.5011e-15 -3.11344 0.366758)
(-2.3455e-15 -3.1143 0.12318)
(-3.28027e-15 -3.75056 -0.535828)
(-2.40627e-15 -2.87515 0.0287984)
(-2.58559e-15 -2.85027 0.0846077)
(-2.86958e-15 -3.48026 -0.377517)
(-1.12003e-15 -2.68591 -0.00283985)
(-3.19908e-16 -2.64559 0.056723)
(-1.17003e-16 -3.20803 -0.315103)
(9.61433e-17 -2.4431 -0.085789)
(2.59203e-16 -2.65979 0.0897599)
(3.41903e-16 -2.39338 0.10617)
(3.99169e-16 -3.05692 -0.0969212)
(1.76032e-16 -2.3259 -0.0412295)
(5.91897e-17 -2.2949 -0.0202668)
(-2.75769e-17 -2.73897 -0.13307)
(-7.33902e-17 -2.10558 0.026949)
(9.26694e-21 0.103674 0.0976054)
(2.76039e-20 0.186125 0.104422)
(3.8275e-20 0.250143 0.118298)
(-4.69173e-21 0.319304 0.138215)
(-1.16625e-19 0.396274 0.164634)
(-1.6095e-19 0.484881 0.198125)
(1.97359e-21 0.588604 0.239799)
(1.68408e-19 0.711186 0.291051)
(7.53367e-20 0.85689 0.353675)
(-1.4115e-19 1.03068 0.429701)
(-2.65089e-19 1.23855 0.521004)
(-2.21541e-19 1.48783 0.627072)
(-5.82082e-19 1.78302 0.735669)
(-1.42978e-18 2.11031 0.787651)
(-2.13661e-18 2.3527 0.595052)
(-2.21464e-18 1.80077 -0.0682537)
(1.04397e-18 -1.46361 -1.36306)
(5.58913e-19 -3.12125 -1.0314)
(-2.27098e-18 -3.36492 -0.925629)
(2.97118e-20 0.101419 0.154438)
(1.2693e-19 0.179241 0.165893)
(2.82469e-19 0.238318 0.188204)
(3.61434e-19 0.303107 0.220017)
(1.62509e-19 0.375307 0.261637)
(-1.07736e-19 0.458614 0.314044)
(1.55004e-19 0.556182 0.378827)
(8.84261e-19 0.671518 0.458114)
(1.32044e-18 0.808644 0.554659)
(1.33945e-18 0.972429 0.671829)
(1.2681e-18 1.1696 0.813859)
(1.48078e-18 1.41197 0.984217)
(5.29268e-19 1.72333 1.17159)
(-2.77411e-18 2.15111 1.27735)
(-7.80813e-18 2.6742 0.966444)
(-1.2187e-17 2.5339 0.0165894)
(-1.5271e-18 -1.14908 -1.73104)
(4.83027e-18 -3.43546 -1.23258)
(-2.82477e-17 -3.62296 -0.704467)
(5.02322e-20 0.0984202 0.190352)
(3.48949e-19 0.172409 0.206197)
(9.92535e-19 0.227324 0.234495)
(1.71953e-18 0.288438 0.274528)
(1.70189e-18 0.356598 0.326349)
(7.84508e-19 0.435396 0.391293)
(6.40249e-19 0.527715 0.471232)
(2.62771e-18 0.636833 0.568801)
(5.38071e-18 0.766472 0.687408)
(7.15406e-18 0.921002 0.831601)
(7.80893e-18 1.10643 1.00896)
(8.28123e-18 1.33653 1.23238)
(6.13576e-18 1.65498 1.50654)
(-3.56323e-18 2.17871 1.72456)
(-2.2823e-17 2.96093 1.51929)
(-4.13016e-17 3.06199 0.881311)
(-5.75807e-18 -1.3519 -1.19469)
(6.61411e-18 -3.63874 -1.48083)
(-4.45071e-17 -3.7765 -0.536464)
(-1.3488e-20 0.0939453 0.226665)
(6.53271e-19 0.162384 0.249329)
(2.48613e-18 0.211496 0.284987)
(5.08888e-18 0.267424 0.334831)
(5.99052e-18 0.329885 0.398525)
(3.43367e-18 0.402315 0.477949)
(1.33619e-18 0.487215 0.575352)
(5.6752e-18 0.58753 0.693984)
(1.45445e-17 0.706506 0.838002)
(2.14437e-17 0.847346 1.01332)
(2.4523e-17 1.01293 1.23231)
(2.56493e-17 1.21483 1.52548)
(2.03516e-17 1.51918 1.94048)
(-6.94382e-18 2.12001 2.42949)
(-6.64121e-17 3.1044 2.76764)
(-1.25616e-16 3.34385 3.05925)
(-3.80513e-17 -0.740144 1.54531)
(-5.55471e-17 -3.55037 -1.40707)
(3.33657e-17 -3.9845 -0.3381)
(-5.03608e-19 0.0876843 0.261903)
(2.25443e-19 0.149739 0.293121)
(3.62886e-18 0.192665 0.336881)
(9.48181e-18 0.242846 0.397437)
(1.26198e-17 0.298942 0.473838)
(7.40783e-18 0.364197 0.568668)
(2.47456e-19 0.440704 0.684568)
(6.01567e-18 0.531038 0.825419)
(2.41622e-17 0.637875 0.996004)
(4.01257e-17 0.762402 1.20317)
(4.93702e-17 0.900173 1.46397)
(5.3706e-17 1.04969 1.83535)
(4.18247e-17 1.28085 2.45286)
(-2.36741e-17 1.82373 3.44955)
(-1.73452e-16 2.79011 4.9302)
(-3.63217e-16 3.35628 6.86983)
(-2.67044e-16 0.872316 6.07212)
(2.43261e-16 -3.17297 -0.38413)
(4.1717e-16 -3.7823 -0.216932)
(-2.38916e-18 0.0791874 0.297467)
(-4.32656e-18 0.133521 0.339302)
(-2.43204e-18 0.169526 0.392144)
(5.02033e-18 0.213007 0.464719)
(1.21276e-17 0.261638 0.555172)
(6.42009e-18 0.318405 0.666974)
(-1.0453e-17 0.384965 0.803185)
(-1.52631e-17 0.463501 0.968311)
(2.58973e-18 0.556135 1.16763)
(2.53926e-17 0.66131 1.40837)
(4.87246e-17 0.761139 1.71129)
(6.88256e-17 0.819756 2.1667)
(5.34907e-17 0.870412 3.04495)
(-6.84689e-17 1.12591 4.73519)
(-3.67929e-16 1.7906 7.62576)
(-8.55784e-16 2.79561 11.2882)
(-1.14434e-15 2.35088 12.0214)
(-3.25643e-16 -1.20495 5.01322)
(9.62276e-17 -3.5772 -1.5428)
(-7.86549e-18 0.0680149 0.33485)
(-2.20471e-17 0.113321 0.389779)
(-3.48141e-17 0.141947 0.452893)
(-3.65859e-17 0.177858 0.539185)
(-2.37789e-17 0.218014 0.645542)
(-1.94872e-17 0.265054 0.776525)
(-5.25225e-17 0.320213 0.935634)
(-1.08299e-16 0.385313 1.12797)
(-1.37347e-16 0.462062 1.35939)
(-1.31345e-16 0.545552 1.63824)
(-8.14421e-17 0.595627 1.98758)
(-3.41085e-19 0.508577 2.51304)
(2.58778e-17 0.240151 3.55801)
(-1.23223e-16 0.00339283 5.5239)
(-5.57836e-16 0.296241 8.78546)
(-1.32163e-15 1.7811 12.309)
(-2.29093e-15 3.20691 13.9874)
(-2.94137e-15 1.93701 13.2729)
(2.83546e-16 -0.778732 11.6894)
(-2.06622e-17 0.0536206 0.375675)
(-6.78488e-17 0.0883123 0.446466)
(-1.22648e-16 0.10913 0.521252)
(-1.57285e-16 0.136404 0.623315)
(-1.42325e-16 0.16687 0.747903)
(-1.1582e-16 0.202696 0.900878)
(-1.73656e-16 0.24474 1.08621)
(-3.51707e-16 0.294432 1.30966)
(-5.3444e-16 0.352783 1.57822)
(-6.20272e-16 0.411637 1.90299)
(-5.53132e-16 0.414845 2.30134)
(-2.96812e-16 0.209239 2.7788)
(-5.7661e-17 -0.304502 3.2827)
(-9.00697e-17 -0.850262 3.8988)
(-3.60099e-16 -0.826483 4.86916)
(-4.84575e-16 0.683981 5.01539)
(-8.33131e-17 1.74047 6.0975)
(8.93967e-16 -0.882788 10.9187)
(2.60639e-15 -4.25588 13.8815)
(-4.26858e-17 0.0351921 0.42044)
(-1.4432e-16 0.0573791 0.509311)
(-2.63845e-16 0.070025 0.596973)
(-3.55131e-16 0.0873501 0.716557)
(-3.67323e-16 0.106676 0.861411)
(-3.54663e-16 0.129495 1.03885)
(-4.59837e-16 0.156344 1.25345)
(-7.6448e-16 0.18806 1.51188)
(-1.24551e-15 0.224353 1.82215)
(-1.59557e-15 0.256781 2.1946)
(-1.68283e-15 0.24532 2.63044)
(-1.16986e-15 0.0948812 3.04764)
(-2.60144e-16 -0.267012 3.15685)
(1.1854e-16 -0.701866 2.83056)
(1.81541e-17 -0.524843 2.40822)
(-1.11419e-16 1.01194 1.84314)
(3.52788e-16 1.14249 3.23397)
(1.09587e-15 -0.74402 6.77246)
(9.51204e-16 -2.17632 7.06935)
(-5.55496e-17 0.0131462 0.462128)
(-1.75628e-16 0.0210845 0.567848)
(-3.05925e-16 0.0254976 0.667297)
(-4.18893e-16 0.0317318 0.802851)
(-5.06943e-16 0.0386882 0.96621)
(-6.67438e-16 0.0469391 1.16596)
(-9.71897e-16 0.0566972 1.40739)
(-1.05669e-15 0.0682161 1.69838)
(-1.81332e-15 0.0807697 2.04766)
(-2.59103e-15 0.0886703 2.46061)
(-3.47904e-15 0.070521 2.91348)
(-3.98061e-15 -0.0196486 3.25944)
(-2.34002e-15 -0.216485 3.07744)
(-2.28001e-15 -0.447715 1.99586)
(-2.16418e-15 -0.335576 0.529325)
(2.23701e-16 0.312706 0.537826)
(2.1278e-16 -0.396955 2.39272)
(-2.96923e-16 -1.23629 2.1624)
(-5.32485e-16 0.0201641 -0.892977)
(3.56266e-17 -0.0131501 0.462124)
(1.29383e-16 -0.0210908 0.567843)
(2.57036e-16 -0.025504 0.667291)
(3.97574e-16 -0.0317377 0.802845)
(4.91668e-16 -0.0386909 0.966204)
(4.8867e-16 -0.0469343 1.16596)
(3.12236e-16 -0.0566758 1.40739)
(-3.14148e-16 -0.0681595 1.6984)
(-3.04339e-16 -0.0806366 2.04771)
(-3.79956e-16 -0.0883717 2.46073)
(-3.5349e-16 -0.0698805 2.91375)
(-2.10524e-16 0.0209625 3.26002)
(-2.87443e-17 0.219492 3.07926)
(3.8603e-17 0.4569 2.00157)
(3.06097e-17 0.357769 0.548551)
(5.43939e-17 -0.312031 0.611634)
(6.24546e-16 0.359057 2.37879)
(1.67034e-15 1.17326 2.09688)
(4.44914e-15 -0.0731429 -1.08184)
(3.19803e-17 -0.0351953 0.420434)
(1.16543e-16 -0.0573847 0.509304)
(2.28364e-16 -0.0700309 0.596965)
(3.27154e-16 -0.0873558 0.716547)
(3.36079e-16 -0.106679 0.861402)
(2.29194e-16 -0.129493 1.03884)
(7.47809e-17 -0.15633 1.25345)
(-1.15499e-17 -0.18802 1.5119)
(6.87995e-17 -0.224257 1.82222)
(9.89835e-17 -0.256558 2.19477)
(1.36131e-16 -0.244849 2.63083)
(1.26572e-16 -0.0940977 3.0485)
(7.41027e-17 0.268081 3.15892)
(5.88029e-17 0.704565 2.83615)
(3.86443e-17 0.532706 2.4241)
(-9.72284e-17 -1.00362 1.88266)
(-2.80304e-16 -1.14122 3.24454)
(-6.18799e-16 0.747373 6.76864)
(6.84552e-17 2.16478 7.06142)
(1.62714e-17 -0.0536232 0.375664)
(5.61779e-17 -0.0883174 0.446452)
(1.06061e-16 -0.109136 0.521236)
(1.3991e-16 -0.13641 0.623297)
(1.18532e-16 -0.166874 0.747884)
(5.09179e-17 -0.202696 0.900861)
(9.33538e-18 -0.244731 1.08621)
(4.45749e-17 -0.294404 1.30968)
(9.19105e-17 -0.352715 1.57828)
(1.17543e-16 -0.411481 1.90317)
(1.24603e-16 -0.414516 2.30177)
(9.46202e-17 -0.20865 2.77982)
(5.80274e-17 0.305397 3.28489)
(9.1195e-17 0.851956 3.90317)
(1.61757e-16 0.830321 4.88056)
(-4.29786e-18 -0.679785 5.04371)
(-4.9553e-16 -1.74833 6.12422)
(-1.34486e-15 0.852265 10.9226)
(-2.67897e-15 4.22896 13.89)
(6.36185e-18 -0.0680165 0.334833)
(1.8724e-17 -0.113325 0.389757)
(3.06819e-17 -0.141951 0.452868)
(3.20693e-17 -0.177863 0.539156)
(1.47966e-17 -0.218018 0.64551)
(-5.1066e-18 -0.265056 0.776493)
(1.28264e-18 -0.32021 0.935607)
(3.07709e-17 -0.385299 1.12796)
(4.87935e-17 -0.462027 1.35943)
(6.08162e-17 -0.545469 1.6384)
(5.82721e-17 -0.59546 1.98797)
(3.73841e-17 -0.508339 2.51389)
(2.53012e-17 -0.240076 3.5597)
(1.21916e-16 -0.00389012 5.52674)
(4.54648e-16 -0.296585 8.79162)
(1.04534e-15 -1.77898 12.3241)
(1.80052e-15 -3.203 14.0058)
(2.31725e-15 -1.9372 13.2814)
(-7.9469e-16 0.774766 11.7031)
(1.9675e-18 -0.0791876 0.297448)
(3.95313e-18 -0.133523 0.339276)
(2.97854e-18 -0.169529 0.392113)
(-3.52593e-18 -0.21301 0.464682)
(-1.24057e-17 -0.261641 0.555131)
(-1.24238e-17 -0.318407 0.666929)
(6.29102e-19 -0.384965 0.803143)
(1.32272e-17 -0.4635 0.968281)
(1.70403e-17 -0.556132 1.16764)
(2.07377e-17 -0.661297 1.40848)
(1.7627e-17 -0.761098 1.71161)
(6.89745e-18 -0.819689 2.16742)
(7.17635e-18 -0.87044 3.04622)
(1.0342e-16 -1.12644 4.73679)
(4.28664e-16 -1.79148 7.62735)
(9.89112e-16 -2.79519 11.2915)
(1.35302e-15 -2.35398 12.0288)
(5.9733e-16 1.18214 5.02681)
(-1.02509e-15 3.54836 -1.55043)
(4.29498e-19 -0.0876829 0.261883)
(2.21881e-20 -0.149738 0.293094)
(-2.48509e-18 -0.192665 0.336848)
(-7.34194e-18 -0.242846 0.397398)
(-1.08619e-17 -0.298943 0.473794)
(-7.59444e-18 -0.364198 0.56862)
(3.48276e-19 -0.440706 0.68452)
(4.09913e-18 -0.531045 0.825377)
(3.57883e-18 -0.637894 0.995987)
(3.85605e-18 -0.762444 1.20322)
(2.00973e-18 -0.900243 1.46417)
(-2.37392e-18 -1.04978 1.83584)
(-3.78148e-19 -1.28102 2.4538)
(5.24785e-17 -1.82433 3.45075)
(2.34715e-16 -2.79132 4.93099)
(5.48194e-16 -3.35684 6.87049)
(6.78786e-16 -0.872715 6.07695)
(2.9671e-16 3.17181 -0.373971)
(4.52245e-16 3.78012 -0.226064)
(2.42995e-20 -0.0939424 0.226647)
(-4.43739e-19 -0.162381 0.249303)
(-1.82627e-18 -0.211494 0.284957)
(-3.932e-18 -0.267422 0.334795)
(-4.88223e-18 -0.329884 0.398483)
(-2.85508e-18 -0.402315 0.477903)
(2.14346e-19 -0.487217 0.575304)
(8.05335e-19 -0.58754 0.693941)
(-6.56476e-20 -0.706536 0.837972)
(-5.54479e-19 -0.847415 1.01332)
(-1.38577e-18 -1.01307 1.23237)
(-2.82259e-18 -1.21505 1.52568)
(-1.82796e-18 -1.51952 1.941)
(1.86053e-17 -2.12062 2.43043)
(9.40548e-17 -3.10541 2.76872)
(2.44606e-16 -3.34524 3.06018)
(3.07901e-16 0.733914 1.55102)
(1.86207e-17 3.54194 -1.40141)
(-1.61541e-16 3.97515 -0.342964)
(-3.31609e-20 -0.098416 0.190335)
(-2.50667e-19 -0.172404 0.206175)
(-7.42337e-19 -0.22732 0.234469)
(-1.33401e-18 -0.288433 0.274497)
(-1.36655e-18 -0.356595 0.326313)
(-5.42985e-19 -0.435394 0.391252)
(1.73464e-19 -0.527718 0.471189)
(-2.02003e-20 -0.636846 0.56876)
(-4.37804e-19 -0.766506 0.687376)
(-7.96115e-19 -0.921079 0.83158)
(-1.09221e-18 -1.10659 1.00895)
(-1.46295e-18 -1.3368 1.23241)
(-1.24861e-18 -1.65544 1.50668)
(4.32958e-18 -2.17947 1.72502)
(2.78697e-17 -2.96211 1.52029)
(8.66188e-17 -3.06403 0.882741)
(9.81042e-17 1.34851 -1.18997)
(3.28074e-17 3.63505 -1.47731)
(8.52645e-18 3.77344 -0.539798)
(-2.05831e-20 -0.101414 0.154423)
(-9.24337e-20 -0.179235 0.165875)
(-2.14658e-19 -0.238312 0.188182)
(-2.90925e-19 -0.303101 0.21999)
(-1.49498e-19 -0.375302 0.261606)
(1.18466e-19 -0.458611 0.314009)
(1.25284e-19 -0.556185 0.378789)
(-1.04552e-19 -0.671533 0.458077)
(-2.23686e-19 -0.808681 0.554625)
(-3.69309e-19 -0.972509 0.6718)
(-4.44832e-19 -1.16975 0.813831)
(-5.14491e-19 -1.41225 0.984186)
(-5.69843e-19 -1.72383 1.17157)
(1.48831e-19 -2.15202 1.27744)
(4.94272e-18 -2.67572 0.966976)
(2.13536e-17 -2.53668 0.0178467)
(1.7848e-17 1.14573 -1.73034)
(2.38069e-18 3.43191 -1.23062)
(1.61933e-17 3.62001 -0.706864)
(-6.45441e-21 -0.103667 0.0975944)
(-2.03096e-20 -0.186117 0.104408)
(-3.07137e-20 -0.250135 0.118282)
(-3.94527e-21 -0.319296 0.138196)
(7.86215e-20 -0.396267 0.164611)
(1.30762e-19 -0.484877 0.198099)
(5.20171e-20 -0.588606 0.23977)
(-4.68541e-20 -0.711199 0.291018)
(-5.6674e-20 -0.856926 0.353641)
(-8.29175e-20 -1.03075 0.429665)
(-8.57759e-20 -1.2387 0.520964)
(-8.86231e-20 -1.4881 0.627023)
(-1.43225e-19 -1.78353 0.735607)
(-3.76341e-19 -2.11128 0.787595)
(-5.06527e-19 -2.35443 0.595164)
(1.41818e-18 -1.80402 -0.0677242)
(2.17543e-18 1.45867 -1.36171)
(4.53813e-18 3.11847 -1.03005)
(-1.2364e-17 3.3633 -0.927125)
(-5.58494e-16 8.0232 15.7241)
(-8.79498e-15 10.9055 16.5666)
(-1.09218e-14 9.05262 15.4067)
(-9.33685e-15 9.4829 14.2312)
(-8.11394e-15 8.97018 14.3598)
(-2.50853e-14 9.19785 14.4052)
(-2.41813e-14 9.01054 14.7369)
(-1.77059e-14 9.15746 14.8749)
(-1.69972e-14 9.03522 14.8987)
(-1.74364e-14 8.98714 14.899)
(-1.89421e-14 8.96152 14.9093)
(-1.8146e-14 8.8818 14.95)
(-1.80246e-14 8.97865 14.8858)
(-1.72702e-14 8.66469 15.0506)
(-1.72699e-14 9.16947 14.743)
(-1.70312e-14 8.21613 15.2544)
(-1.64921e-14 9.59041 14.4693)
(-1.31299e-14 7.69395 15.7032)
(-1.37123e-14 10.1019 14.2801)
(-8.76603e-15 9.56244 20.0519)
(5.8091e-17 7.86512 15.7534)
(2.48182e-15 10.0973 15.3841)
(2.68301e-15 7.88578 15.319)
(2.28053e-15 9.09012 14.4942)
(2.59621e-15 8.26604 14.9485)
(-6.25407e-15 8.76192 14.6007)
(-6.98936e-15 8.50741 14.716)
(-4.68567e-15 8.57006 14.5772)
(-5.21724e-15 8.52719 14.5883)
(-5.09502e-15 8.52858 14.583)
(-6.17338e-15 8.53915 14.5674)
(-5.83487e-15 8.47909 14.5936)
(-5.80105e-15 8.61346 14.5046)
(-5.14947e-15 8.30543 14.6797)
(-5.5347e-15 8.87707 14.3415)
(-5.79238e-15 7.91576 14.8912)
(-5.50503e-15 9.36742 14.0578)
(-4.34925e-15 7.48542 15.3586)
(-4.3869e-15 9.14596 12.5117)
(-3.56329e-15 8.95905 18.9678)
(1.34592e-16 8.10361 16.612)
(1.33523e-15 10.5368 15.7258)
(1.3036e-15 7.78305 15.2911)
(1.10505e-15 9.11567 14.2877)
(1.12875e-15 8.10002 14.8758)
(2.87959e-15 8.7126 14.5105)
(2.72501e-15 8.3576 14.7193)
(1.88258e-15 8.53709 14.6509)
(1.59975e-15 8.47421 14.6969)
(2.00064e-15 8.48962 14.692)
(1.98716e-15 8.50247 14.6915)
(1.86952e-15 8.45518 14.7282)
(1.56136e-15 8.59321 14.6565)
(1.73138e-15 8.2988 14.8447)
(1.55166e-15 8.88273 14.5171)
(1.5698e-15 7.90812 15.0966)
(1.54656e-15 9.41866 14.2567)
(1.02182e-15 7.45991 15.6067)
(1.23483e-15 9.41856 13.1238)
(8.89705e-16 8.78553 18.5793)
(-3.48248e-17 8.3377 17.3403)
(-6.29515e-16 10.5723 15.523)
(-5.82215e-16 7.66077 15.299)
(-5.3891e-16 9.17497 14.2488)
(-6.37007e-16 8.10131 14.8544)
(1.34228e-15 8.74779 14.4861)
(1.27961e-15 8.41343 14.6897)
(8.35998e-16 8.56407 14.5905)
(1.11164e-15 8.50627 14.6225)
(1.14437e-15 8.51924 14.6175)
(1.42965e-15 8.5291 14.6146)
(1.1928e-15 8.48622 14.6438)
(1.16709e-15 8.60365 14.5786)
(1.11127e-15 8.3389 14.7414)
(1.1093e-15 8.84711 14.4432)
(1.26916e-15 7.97208 14.949)
(1.05033e-15 9.30131 14.1892)
(8.30776e-16 7.54198 15.3797)
(9.1617e-16 9.29316 13.1813)
(7.17409e-16 8.67253 18.0647)
(7.86725e-19 8.5677 17.9703)
(-1.09143e-16 10.714 15.6241)
(-1.06224e-16 7.69546 15.3886)
(-7.43858e-17 9.22449 14.293)
(-9.53482e-17 8.14098 14.8976)
(-4.65958e-16 8.77325 14.53)
(-3.78754e-16 8.43686 14.7149)
(-2.25287e-16 8.58078 14.6251)
(-2.17146e-16 8.52407 14.6498)
(-2.92497e-16 8.53093 14.6393)
(-3.11516e-16 8.53582 14.6307)
(-2.98496e-16 8.49415 14.6509)
(-2.27011e-16 8.59493 14.5869)
(-2.47137e-16 8.35508 14.7284)
(-2.30503e-16 8.80909 14.4574)
(-2.65202e-16 8.02518 14.9112)
(-2.6885e-16 9.21777 14.2323)
(-1.5504e-16 7.65758 15.3126)
(-2.19916e-16 9.14513 13.2278)
(-2.01945e-16 8.52543 17.4446)
(9.12038e-19 8.78635 18.5202)
(1.29051e-16 10.9796 15.9555)
(1.22075e-16 7.75081 15.451)
(1.01804e-16 9.22509 14.2524)
(1.37332e-16 8.16066 14.848)
(-2.7665e-16 8.76506 14.5024)
(-2.78781e-16 8.44798 14.6753)
(-2.45694e-16 8.57412 14.5915)
(-2.814e-16 8.52056 14.6114)
(-2.64362e-16 8.52247 14.6021)
(-3.07838e-16 8.52342 14.5943)
(-2.73584e-16 8.48546 14.6111)
(-2.94091e-16 8.5707 14.5549)
(-2.69719e-16 8.3574 14.6803)
(-2.8585e-16 8.7585 14.4364)
(-2.79723e-16 8.05621 14.8425)
(-2.50549e-16 9.12236 14.2301)
(-2.10107e-16 7.72482 15.2067)
(-2.32521e-16 9.02884 13.3018)
(-1.5972e-16 8.38516 16.8727)
(-1.21437e-19 9.05175 19.0873)
(-4.27027e-17 11.3611 16.531)
(-4.04566e-17 7.90634 15.5998)
(-3.46719e-17 9.22682 14.2368)
(-5.00313e-17 8.22015 14.7841)
(1.98633e-16 8.76174 14.4832)
(1.89683e-16 8.48408 14.6275)
(1.58857e-16 8.58008 14.5584)
(1.7293e-16 8.53464 14.5693)
(1.72211e-16 8.52859 14.5613)
(1.92488e-16 8.52484 14.5534)
(1.76325e-16 8.49043 14.5658)
(1.78058e-16 8.55637 14.5186)
(1.69969e-16 8.37544 14.6244)
(1.74967e-16 8.7091 14.4168)
(1.74333e-16 8.11577 14.763)
(1.62661e-16 9.01202 14.2426)
(1.26369e-16 7.84635 15.0865)
(1.48421e-16 8.87963 13.4015)
(1.07944e-16 8.23117 16.1495)
(-1.3418e-20 9.38061 19.6998)
(8.47211e-18 11.9099 17.4335)
(8.095e-18 8.19194 15.8681)
(7.03742e-18 9.21607 14.203)
(1.1027e-17 8.28863 14.6511)
(-5.97127e-17 8.74162 14.421)
(-5.72766e-17 8.51993 14.5358)
(-4.78576e-17 8.57872 14.4874)
(-5.09476e-17 8.54265 14.4919)
(-5.13956e-17 8.5285 14.4884)
(-5.63584e-17 8.51949 14.4842)
(-5.24418e-17 8.48985 14.4952)
(-5.21268e-17 8.53482 14.4617)
(-5.05457e-17 8.39085 14.5492)
(-5.14604e-17 8.65059 14.3854)
(-5.15041e-17 8.17758 14.6686)
(-4.88703e-17 8.8901 14.2519)
(-3.68904e-17 7.97291 14.9537)
(-4.4278e-17 8.73246 13.529)
(-3.30493e-17 8.03903 15.3376)
(6.77958e-21 9.8003 20.4252)
(-1.16774e-18 12.6917 18.743)
(-1.12593e-18 8.64354 16.3445)
(-9.87466e-19 9.2122 14.1604)
(-1.71491e-18 8.34973 14.4327)
(1.11979e-17 8.70263 14.2927)
(1.10526e-17 8.54833 14.3845)
(9.29431e-18 8.56848 14.3608)
(9.74103e-18 8.54119 14.362)
(9.88649e-18 8.51974 14.365)
(1.07111e-17 8.50435 14.3676)
(1.0099e-17 8.48014 14.3793)
(9.99148e-18 8.50173 14.3637)
(9.78954e-18 8.39888 14.4334)
(9.90863e-18 8.57668 14.322)
(9.95454e-18 8.23728 14.5383)
(9.5456e-18 8.74869 14.2419)
(7.07075e-18 8.10325 14.7888)
(8.58198e-18 8.57632 13.6688)
(6.57333e-18 7.78788 14.3884)
(-1.20612e-21 10.3483 21.3908)
(1.19074e-19 13.7907 20.5124)
(1.15454e-19 9.22737 17.0741)
(1.01495e-19 9.21851 14.1071)
(1.98893e-19 8.35961 14.1365)
(-1.46229e-18 8.63475 14.0867)
(-1.50988e-18 8.54761 14.1743)
(-1.28552e-18 8.53905 14.1735)
(-1.33114e-18 8.51818 14.175)
(-1.35828e-18 8.49269 14.1844)
(-1.46077e-18 8.47079 14.1955)
(-1.39608e-18 8.45267 14.2088)
(-1.38281e-18 8.45038 14.2133)
(-1.36737e-18 8.39023 14.2664)
(-1.38104e-18 8.48425 14.2134)
(-1.39424e-18 8.28187 14.3632)
(-1.34825e-18 8.59207 14.1994)
(-9.83944e-19 8.2183 14.5904)
(-1.20286e-18 8.41739 13.797)
(-9.47009e-19 7.45489 13.3163)
(1.37249e-22 11.0682 22.8402)
(-9.37036e-21 15.1814 22.5313)
(-9.10683e-21 9.6593 17.8819)
(-7.95489e-21 9.19363 13.9946)
(-1.7592e-20 8.25169 13.8584)
(1.41007e-19 8.53417 13.8524)
(1.52961e-19 8.49276 13.9536)
(1.32582e-19 8.47789 13.9603)
(1.36103e-19 8.4629 13.9586)
(1.39678e-19 8.43887 13.9675)
(1.49649e-19 8.41311 13.9817)
(1.45163e-19 8.40197 13.9926)
(1.44581e-19 8.37907 14.0132)
(1.44372e-19 8.35838 14.0484)
(1.46063e-19 8.37626 14.0502)
(1.48465e-19 8.29762 14.1364)
(1.44885e-19 8.42693 14.1022)
(1.04519e-19 8.29209 14.3482)
(1.2881e-19 8.24451 13.8493)
(1.04034e-19 7.02391 12.1603)
(-1.09866e-23 11.9709 25.0298)
(5.98066e-22 16.4276 23.9293)
(5.8164e-22 9.32663 18.2477)
(4.9985e-22 9.18359 13.8304)
(1.21171e-21 8.0401 13.8969)
(-1.06083e-20 8.48772 13.7749)
(-1.19012e-20 8.41838 13.8727)
(-1.05049e-20 8.42073 13.8392)
(-1.07155e-20 8.40778 13.8086)
(-1.10474e-20 8.38497 13.7929)
(-1.1809e-20 8.35605 13.7893)
(-1.16296e-20 8.34825 13.7825)
(-1.16829e-20 8.30915 13.802)
(-1.17913e-20 8.31386 13.8111)
(-1.19991e-20 8.27188 13.8438)
(-1.23086e-20 8.27506 13.8675)
(-1.21692e-20 8.26501 13.9236)
(-8.72119e-21 8.28445 14.0421)
(-1.092e-20 8.0205 13.7025)
(-8.95178e-21 6.5004 11.0222)
(6.34365e-25 12.9141 27.6103)
(-3.30209e-23 16.4792 23.2689)
(-3.15954e-23 8.11817 17.9524)
(-2.62359e-23 9.60769 14.0969)
(-6.69627e-23 8.0033 14.6369)
(6.49771e-22 8.72019 14.112)
(7.31572e-22 8.49749 14.1236)
(6.52223e-22 8.50829 13.9624)
(6.59671e-22 8.47215 13.84)
(6.80414e-22 8.42781 13.7474)
(7.24613e-22 8.38019 13.6819)
(7.23424e-22 8.35645 13.6255)
(7.3399e-22 8.2961 13.6101)
(7.49242e-22 8.29302 13.5743)
(7.70357e-22 8.2041 13.5888)
(8.00125e-22 8.21334 13.5435)
(8.07628e-22 8.11032 13.6039)
(5.80568e-22 8.14481 13.6071)
(7.49655e-22 7.67957 13.1828)
(6.12708e-22 5.92149 9.99693)
(-2.69151e-26 13.513 28.9083)
(1.5531e-24 14.8249 20.8294)
(1.36074e-24 7.94967 18.2681)
(1.10654e-24 10.6095 15.5128)
(2.98831e-24 8.64799 15.9506)
(-3.17012e-23 9.3698 14.9925)
(-3.53175e-23 8.98854 14.7695)
(-3.14633e-23 8.92856 14.4027)
(-3.13355e-23 8.82156 14.1024)
(-3.21437e-23 8.70786 13.8616)
(-3.3997e-23 8.60314 13.6738)
(-3.43416e-23 8.52438 13.5216)
(-3.52178e-23 8.41941 13.4238)
(-3.64089e-23 8.3574 13.3122)
(-3.80299e-23 8.21403 13.2439)
(-4.0224e-23 8.13828 13.1078)
(-4.19382e-23 7.95858 13.0617)
(-3.08134e-23 7.85792 12.9379)
(-4.16863e-23 7.18848 12.1975)
(-3.39117e-23 5.31628 8.99561)
(7.57935e-29 13.3489 27.4074)
(-5.52835e-26 13.8797 20.7099)
(-4.74274e-26 9.92459 19.999)
(-3.65259e-26 11.6399 17.6685)
(-1.03424e-25 10.0928 17.373)
(1.1473e-24 10.3408 16.2817)
(1.28341e-24 9.94602 15.6928)
(1.13617e-24 9.71997 15.0877)
(1.1051e-24 9.49743 14.5447)
(1.12e-24 9.26988 14.0916)
(1.17244e-24 9.06301 13.7213)
(1.19609e-24 8.88283 13.4177)
(1.24136e-24 8.69365 13.1797)
(1.30373e-24 8.51755 12.9465)
(1.3923e-24 8.28378 12.7301)
(1.51258e-24 8.05054 12.4582)
(1.65106e-24 7.75237 12.2132)
(1.276e-24 7.42908 11.906)
(1.82414e-24 6.54049 10.8086)
(1.55029e-24 4.56479 7.61352)
(1.10072e-29 12.9435 25.7357)
(1.53134e-27 15.2269 23.4142)
(1.26148e-27 12.1355 22.2896)
(9.12114e-28 12.8428 19.7777)
(2.66679e-27 11.644 18.9332)
(-3.02515e-26 11.4974 17.6878)
(-3.42403e-26 11.0537 16.7431)
(-2.99692e-26 10.6643 15.8513)
(-2.81887e-26 10.3013 15.0298)
(-2.79131e-26 9.94271 14.3113)
(-2.86978e-26 9.60469 13.693)
(-2.93734e-26 9.28465 13.161)
(-3.0786e-26 8.96312 12.6988)
(-3.28986e-26 8.62116 12.261)
(-3.60975e-26 8.23641 11.8167)
(-4.06619e-26 7.79299 11.3276)
(-4.70936e-26 7.28648 10.8074)
(-3.96096e-26 6.72089 10.2113)
(-6.04934e-26 5.55386 8.87353)
(-5.93017e-26 3.3412 5.12234)
(-3.47242e-31 12.9011 26.5803)
(-3.40395e-29 17.2699 25.4901)
(-2.67718e-29 13.0515 24.6225)
(-1.84247e-29 14.1667 21.6729)
(-5.41957e-29 12.5442 20.7654)
(6.5409e-28 12.3724 19.1539)
(7.30659e-28 11.712 17.9479)
(6.22269e-28 11.219 16.7361)
(5.57748e-28 10.7266 15.6231)
(5.28326e-28 10.2566 14.5946)
(5.21753e-28 9.80094 13.6506)
(5.22309e-28 9.34822 12.7801)
(5.39867e-28 8.88844 11.9637)
(5.74385e-28 8.38281 11.1771)
(6.34222e-28 7.83483 10.3694)
(7.27623e-28 7.19172 9.52801)
(8.78422e-28 6.4673 8.62959)
(8.06412e-28 5.69774 7.61743)
(1.3378e-27 4.08366 5.8913)
(1.50576e-27 1.66938 1.00963)
(8.19744e-33 12.9653 29.493)
(6.66611e-31 18.4648 26.1715)
(4.97439e-31 12.8073 26.5971)
(3.66986e-31 14.7208 23.6363)
(9.03895e-31 12.3562 22.9239)
(-1.69391e-29 12.2899 21.1103)
(-1.78011e-29 11.2896 19.9224)
(-1.47054e-29 10.7432 18.5648)
(-1.27266e-29 10.1093 17.3339)
(-1.15309e-29 9.54612 16.1134)
(-1.08033e-29 8.99496 14.923)
(-1.0287e-29 8.45322 13.7464)
(-1.01021e-29 7.91021 12.5691)
(-1.01981e-29 7.33538 11.381)
(-1.06605e-29 6.7375 10.1454)
(-1.15268e-29 6.08664 8.89266)
(-1.30215e-29 5.41878 7.59764)
(-1.14961e-29 4.53996 5.9118)
(-2.06071e-29 1.93975 2.52919)
(2.7139e-28 0.150363 -2.90795)
(-3.02703e-34 10.9886 28.8609)
(-9.21816e-33 17.3184 24.6975)
(-6.38057e-33 12.0211 25.3389)
(-3.93686e-33 12.9359 23.4252)
(1.33435e-32 11.151 22.6497)
(2.3882e-31 10.6221 21.497)
(2.15896e-31 9.71081 20.5805)
(1.68222e-31 9.05358 19.6166)
(1.40193e-31 8.38709 18.7016)
(1.22761e-31 7.79965 17.7736)
(1.11574e-31 7.24504 16.8393)
(1.0434e-31 6.72652 15.8762)
(1.01241e-31 6.22627 14.869)
(1.01576e-31 5.73289 13.7996)
(1.06439e-31 5.25254 12.6775)
(1.19408e-31 4.83401 11.5725)
(1.57523e-31 4.39204 10.3626)
(2.67009e-31 2.98029 7.43555)
(1.53224e-30 -1.34994 -0.506287)
(2.16324e-29 -3.66315 -7.43056)
(9.17499e-36 2.60607 17.0623)
(6.72443e-35 8.00942 13.6975)
(3.50395e-35 5.12026 14.5161)
(-2.5194e-35 4.91201 14.0931)
(-3.30443e-34 3.97971 14.0358)
(-1.50593e-33 3.42303 13.846)
(-1.18664e-33 2.85064 13.6813)
(-8.71603e-34 2.39586 13.4882)
(-6.93297e-34 2.0022 13.2852)
(-5.82945e-34 1.6862 13.0591)
(-5.12352e-34 1.43681 12.8075)
(-4.68677e-34 1.25519 12.5213)
(-4.4733e-34 1.13748 12.1929)
(-4.42776e-34 1.09084 11.8169)
(-4.47954e-34 1.13908 11.4053)
(-4.02801e-34 1.2717 11.0131)
(8.86286e-36 1.48333 10.6335)
(1.27312e-33 1.92363 9.90268)
(7.99856e-34 1.88092 8.34906)
(9.55152e-32 -0.524915 5.43749)
(-9.20991e-36 -2.60569 17.0618)
(-6.75156e-35 -8.00961 13.6975)
(-3.52412e-35 -5.12081 14.5166)
(2.51352e-35 -4.91305 14.0945)
(3.30776e-34 -3.98096 14.0377)
(1.50533e-33 -3.42428 13.8482)
(1.18127e-33 -2.85169 13.6836)
(8.30098e-34 -2.39671 13.4906)
(5.17925e-34 -2.00283 13.2879)
(5.08931e-34 -1.68651 13.0619)
(4.9549e-34 -1.43671 12.8103)
(4.62148e-34 -1.2546 12.524)
(4.17777e-34 -1.13628 12.1952)
(3.29518e-34 -1.0889 11.8186)
(3.59222e-34 -1.13622 11.4059)
(2.63861e-34 -1.26781 11.0124)
(-1.01568e-34 -1.47871 10.6319)
(-1.8366e-33 -1.91929 9.90063)
(-9.47273e-33 -1.87802 8.34561)
(-1.6401e-31 0.526332 5.43511)
(3.04576e-34 -10.9873 28.8572)
(9.2762e-33 -17.3162 24.6967)
(6.43327e-33 -12.0202 25.3378)
(3.97097e-33 -12.9345 23.4249)
(-1.34609e-32 -11.1501 22.6499)
(-2.38239e-31 -10.6213 21.4982)
(-2.16019e-31 -9.71051 20.5827)
(-1.66432e-31 -9.05323 19.6198)
(-1.04102e-31 -8.38648 18.7049)
(-1.04246e-31 -7.79865 17.7772)
(-1.06913e-31 -7.24366 16.8431)
(-1.03712e-31 -6.72471 15.8802)
(-9.88821e-32 -6.22396 14.873)
(-7.5901e-32 -5.73001 13.8036)
(-8.77264e-32 -5.24919 12.6814)
(-8.54737e-32 -4.82982 11.5756)
(-1.47217e-31 -4.38384 10.3606)
(-3.64653e-31 -2.96213 7.41833)
(-2.40266e-30 1.3755 -0.534117)
(-2.82827e-29 3.66649 -7.4301)
(-8.24262e-33 -12.9675 29.497)
(-6.72368e-31 -18.4595 26.1685)
(-5.02784e-31 -12.8063 26.5976)
(-3.72026e-31 -14.7179 23.6391)
(-8.89428e-31 -12.3526 22.9271)
(1.68226e-29 -12.2864 21.113)
(1.7763e-29 -11.2845 19.9274)
(1.50388e-29 -10.7389 18.5707)
(9.54428e-30 -10.1039 17.3404)
(9.53625e-30 -9.54047 16.1199)
(1.02181e-29 -8.98871 14.9292)
(1.02011e-29 -8.4463 13.752)
(1.02726e-29 -7.90253 12.5738)
(7.6909e-30 -7.32682 11.3842)