/*--------------------------------*- C++ -*----------------------------------*\
| =========                 |                                                 |
| \\      /  F ield         | OpenFOAM: The Open Source CFD Toolbox           |
|  \\    /   O peration     | Version:  4.1                                   |
|   \\  /    A nd           | Web:      www.OpenFOAM.org                      |
|    \\/     M anipulation  |                                                 |
\*---------------------------------------------------------------------------*/
FoamFile
{
    version     2.0;
    format      ascii;
    class       volScalarField;
    location    "27";
    object      p;
}
// * * * * * * * * * * * * * * * * * * * * * * * * * * * * * * * * * * * * * //

dimensions      [0 2 -2 0 0 0 0];

internalField   nonuniform List<scalar> 
1280
(
0.848352
2.20059
3.60043
3.0208
5.10135
5.47529
4.81013
4.43341
3.85733
4.83041
2.63751
2.65313
2.44569
-1.69963
-0.274116
-1.79209
-6.66904
-9.62854
-0.969503
-25.3666
-1.86707
20.4244
29.8355
26.5216
23.7859
30.413
13.8716
15.7971
13.0361
12.9727
12.5404
11.6263
10.8425
9.34259
8.12243
5.80135
4.63932
2.73928
3.74067
11.1802
5.13637
4.66632
10.5536
16.453
29.2534
28.3956
28.62
28.7621
27.987
28.6594
28.526
28.764
28.727
28.7
28.4138
28.6273
15.7334
10.1361
2.88235
-2.30392
15.8753
7.58208
3.70321
5.13541
6.1163
8.72124
10.1809
12.047
13.1793
14.402
15.3159
15.9861
16.4057
3.18793
40.0802
33.6945
31.0801
32.8096
21.9367
2.2034
-12.7149
4.26815
7.38646
11.2241
12.0967
15.4424
15.6257
15.4617
15.4419
15.7684
14.4115
14.054
12.8649
10.7823
9.57384
8.76968
6.55159
2.61842
1.0122
2.05139
-0.936774
-1.85277
-0.981894
-0.0618216
3.57592
0.887099
1.28107
1.14312
0.787484
-0.455021
-2.57781
-7.0289
-11.9314
-11.9298
-2.91028
1.02739
2.85145
2.17157
2.21099
-1.09038
-6.60177
-5.3858
-2.51445
5.53604
1.7547
2.12435
-0.262676
-1.53121
-3.38466
-2.25097
-6.85886
-12.4668
-11.9164
2.57064
6.14902
8.10445
6.36578
5.45685
-3.03191
-11.6346
-8.42574
-3.65162
5.33398
1.76087
2.9406
-0.583389
-2.52005
-5.71061
-6.14209
-12.3435
-12.7327
-14.0207
6.00239
10.487
13.378
9.99828
8.79414
-4.43262
-14.3641
-10.6713
-4.80484
4.44604
1.26786
2.35617
-2.27602
-4.21256
-6.87577
-7.41494
-11.3847
-14.3276
-15.5137
8.28244
14.846
18.9985
14.0657
11.0309
-6.19761
-15.8323
-12.4091
-6.05705
2.57873
-0.170788
1.00975
-3.67518
-4.7646
-5.9905
-7.55218
-11.2398
-18.7329
-15.2508
9.99792
19.3037
24.6073
17.2276
12.8034
-7.39235
-15.2134
-12.9675
-6.97505
0.375906
-2.04987
-0.953702
-4.74884
-4.72682
-4.17755
-5.65249
-9.45087
-21.5314
-13.4418
11.0869
22.8817
29.6876
21.6157
12.2723
-7.9969
-13.2342
-12.5578
-7.57605
-1.61213
-3.60268
-2.78003
-4.88097
-4.15946
-2.54139
-3.47989
-6.54105
-20.1226
-10.9645
11.7891
25.7106
33.4164
21.5465
8.24143
-7.90179
-10.5568
-11.5705
-7.90387
-3.19675
-4.39975
-4.01863
-4.45484
-3.78397
-1.52832
-1.20462
-1.74743
-13.9501
-7.14081
12.1638
26.4813
36.7312
31.4644
14.7026
-7.50114
-8.16473
-10.5146
-8.03933
-4.32523
-4.35644
-4.68614
-3.94343
-3.55185
-0.611945
1.26486
3.6815
-7.82837
-3.13396
12.2561
30.0987
35.2283
37.7168
39.7171
-7.07121
-6.3924
-9.60467
-8.0475
-5.12465
-3.75954
-5.21163
-3.57603
-3.27352
0.599975
4.27162
9.92629
-3.4888
-0.958229
11.5338
24.1146
26.9119
42.5442
29.3817
-6.70279
-5.07326
-8.81725
-7.98304
-5.8812
-3.04487
-5.73487
-3.36222
-3.01212
1.85265
7.4665
17.169
2.62503
1.9353
7.56192
13.0206
15.3477
40.716
31.3804
-6.16828
-3.63589
-7.92068
-7.86689
-6.78552
-2.67289
-5.95957
-3.21774
-2.672
3.10033
10.7659
25.7527
11.6659
7.19635
5.58308
3.61786
0.975059
20.1598
33.5727
-5.3484
-1.89856
-6.67347
-7.60245
-7.65963
-3.47072
-5.73283
-3.11569
-2.17364
4.36089
14.1155
36.222
22.9166
13.3709
3.24037
-13.6819
-28.7775
-9.82322
12.4673
-4.22668
0.0792831
-5.18951
-7.36964
-8.00211
-5.47401
-4.97157
-2.86671
-1.59624
5.33875
16.5588
45.9095
33.0721
20.0697
1.52273
-26.8721
-41.3715
-23.6109
6.51414
-3.23441
1.56708
-3.8858
-7.25516
-6.82107
-7.17199
-3.94288
-2.40527
-0.991338
5.83503
17.5706
50.984
38.5602
24.4744
0.134766
-33.9996
-42.2499
-21.3336
5.28524
-2.24973
2.7086
-3.04709
-7.41537
-5.13069
-7.23186
-3.08412
-1.86163
-0.216519
5.94449
17.1729
48.9798
38.1701
24.303
-2.07028
-38.7588
-46.7077
-26.2038
2.33058
-1.98954
2.63678
-2.43051
-6.6186
-4.94071
-6.05161
-2.48252
-1.46989
0.391661
5.54041
15.263
40.7162
34.296
20.9027
-4.19237
-37.9485
-45.9587
-23.7687
1.88739
-1.17946
2.74618
-2.15476
-4.96633
-5.70394
-4.60576
-1.99075
-1.07468
0.805692
4.87103
12.3169
30.2375
26.5886
15.1605
-5.42001
-31.7809
-39.5842
-19.1341
0.787478
-1.89061
1.11489
-0.632912
-0.0565119
-6.10188
-3.85696
-2.13116
-1.32382
0.394668
3.66082
9.15788
20.4855
15.4459
9.57469
-3.00537
-18.5661
-23.6349
-11.7967
0.417593
-0.853976
1.22126
-1.44223
-0.728166
-5.41429
-3.89744
-2.93361
-2.78876
-1.98801
-0.204427
2.4709
6.94913
3.85072
1.16347
-2.25373
-5.65727
-6.62427
-3.30335
0.934178
153.026
150.785
149.276
149.055
146.187
143.742
140.395
138.328
135.447
132.919
130.621
128.346
126.676
124.774
123.832
122.14
122.103
120.19
121.04
119.437
94.5846
94.1465
95.5751
96.8612
97.0257
97.3029
96.9515
96.7461
96.9276
96.7631
97.0282
96.835
97.2562
97.0469
97.7514
97.4676
98.5774
98.196
99.8001
99.9703
116.371
114.9
116.431
116.478
116.433
115.76
115.549
114.74
114.481
113.747
113.567
112.988
112.993
112.475
112.732
112.135
112.791
112.034
113.323
112.938
101.463
100.75
102.732
102.762
103.517
102.769
103.091
102.345
102.445
101.908
101.993
101.67
101.946
101.706
102.277
101.993
102.94
102.582
104.073
104.292
107.36
106.639
108.515
108.049
109.391
108.192
108.696
107.885
107.813
107.298
107.128
106.762
106.802
106.449
106.843
106.426
107.202
106.744
108.118
108.124
100.377
100.373
102.018
101.502
103.77
102.149
102.846
102.5
102.311
102.229
101.943
101.856
101.868
101.679
102.147
101.867
102.809
102.586
104.197
104.418
97.7495
98.426
99.3746
98.9105
102.239
99.8882
100.596
100.979
100.481
100.919
100.431
100.552
100.458
100.314
100.718
100.472
101.454
101.357
103.166
103.372
89.4768
91.2416
91.2738
91.1835
95.8944
92.5276
93.1645
94.7241
93.8503
94.892
94.4094
94.7155
94.7111
94.6636
95.0905
94.9916
96.0288
96.1698
98.2281
98.5972
79.8774
82.7354
81.6032
81.8512
88.1877
83.9333
84.3135
87.2272
86.2948
87.7034
87.5957
88.0015
88.3182
88.4565
89.0144
89.1971
90.2422
90.7163
92.8292
93.5046
65.3493
68.8674
66.2469
66.649
75.1562
69.4776
69.1617
73.6898
72.9439
74.2454
74.7545
75.1582
75.9818
76.4008
77.2796
77.9096
79.0542
80.096
82.0647
83.7555
51.4792
54.008
50.5796
50.5214
58.3429
53.4577
52.4363
55.9033
55.9103
55.547
56.1123
55.5168
56.0685
55.7182
56.1351
56.0221
56.6237
57.3405
58.9967
61.1734
47.8744
47.5773
48.3515
45.7795
51.2784
50.2821
53.4727
49.9302
51.7965
49.1397
49.8854
47.9457
47.9699
46.5761
46.4223
45.6922
46.1114
46.7112
47.8268
48.1564
60.4142
60.108
60.4574
57.696
60.1037
56.1189
58.6261
55.9567
57.2075
55.1602
55.7556
54.5079
54.5616
53.844
53.5718
52.8792
52.3498
52.0552
51.8773
51.7298
67.7363
68.5679
69.7539
68.1836
71.0117
68.1548
71.1247
68.2726
69.7904
68.5338
68.9063
68.0672
67.7608
67.0603
66.1429
65.2933
64.1651
63.2278
62.6926
61.6999
56.4404
57.4322
59.7904
58.6386
61.7748
61.0778
63.5889
64.0698
65.8901
67.0707
68.6514
70.1392
71.6764
73.1295
74.0839
74.1545
73.8198
73.8489
74.1159
74.4413
42.2644
40.7901
42.9845
39.664
42.0981
40.0251
41.166
40.5911
41.0818
41.2469
41.7032
42.202
42.8283
43.5691
44.4568
45.5371
46.8068
48.467
49.8077
51.6335
66.7576
62.6861
64.3327
57.5111
57.3655
52.4795
50.2739
46.7499
44.019
41.1346
38.5742
36.1825
34.0889
32.3689
31.202
30.8363
30.8743
31.0709
31.1782
32.0559
77.827
71.1935
78.8922
71.648
73.3719
69.6837
68.1175
65.2463
62.664
59.7903
56.9329
54.0487
51.256
48.6613
46.5429
45.3835
44.9363
44.5385
43.8484
43.4707
92.9405
71.1345
79.4005
68.4721
65.975
59.5244
54.8345
49.8196
45.5469
41.7843
38.7855
36.6002
35.3356
35.0995
36.1597
38.6192
42.0083
46.0449
49.6046
50.8581
776.641
694.318
645.46
589.275
540.384
493.169
449.273
407.798
368.76
331.872
296.971
263.864
232.351
202.358
173.932
146.324
119.635
97.8756
73.47
36.5937
751.58
668.613
619.391
562.745
513.466
465.864
421.624
379.839
340.543
303.459
268.437
235.286
203.797
173.949
145.897
118.923
93.504
74.078
50.9152
13.0341
56.7313
34.1829
42.0598
30.5253
27.4435
20.3879
15.071
9.43865
4.53859
0.163761
-3.44054
-6.21868
-8.07458
-8.92172
-8.67751
-7.33363
-4.8579
-1.92086
0.0232365
1.96327
33.2084
26.7427
34.5328
27.384
29.1044
25.4441
23.8615
20.9628
18.3605
15.4399
12.5258
9.51994
6.50524
3.54632
0.837139
-1.05501
-1.75181
-0.772499
0.258282
2.31316
38.9359
36.218
38.8926
32.8703
34.0912
30.1596
29.1618
26.8835
25.3898
23.915
22.766
21.8978
21.3254
21.133
21.3669
22.3668
24.1394
27.0956
30.0597
33.571
38.3419
39.2235
42.9222
41.2237
45.789
45.6419
49.0627
50.9473
53.9358
56.7368
59.8283
62.9424
66.1127
69.0821
71.5577
73.2808
74.819
76.5613
78.1683
80.0945
77.6722
77.4174
79.1841
77.109
79.9635
78.1135
79.7964
78.2041
78.4827
77.5359
76.5806
75.0542
72.8486
69.827
67.6881
69.5097
69.7391
70.586
70.9279
70.2873
14.5712
10.6814
9.15157
3.72561
1.70291
-4.3953
-7.68965
-13.4988
-18.0513
-23.5876
-29.2696
-33.3602
-41.0116
-4.76442
65.8873
62.1784
60.5048
58.2628
55.2708
56.1071
-5.28743
-6.31673
-4.9713
-6.70221
-4.86612
-6.14514
-4.41684
-4.90108
-3.81606
-3.25586
-2.39017
-0.547054
1.27357
3.21507
4.74637
0.592947
2.70963
6.0375
-2.21685
2.17759
15.3976
17.4099
19.7316
19.3663
22.5201
22.0678
24.745
24.7554
26.6329
27.3176
28.8485
30.1255
32.0089
33.9343
36.6524
37.8503
41.3273
45.2873
45.3352
49.3399
48.8312
52.6736
54.6204
55.6475
58.4765
59.4564
61.9365
63.2015
65.3675
66.9624
69.0714
70.9052
72.8702
74.6583
76.2718
77.9392
79.6105
81.8016
83.5825
87.1491
75.7927
79.5998
80.5417
81.8698
83.7357
84.4269
86.1359
86.8475
88.1452
88.9127
89.9844
90.7087
91.4874
91.9482
92.3651
92.6109
93.3445
93.6587
95.2886
96.1753
88.6942
91.187
91.1732
92.2133
92.7101
92.7809
93.4035
93.2457
93.6806
93.4643
93.7038
93.3922
93.463
92.952
92.9144
92.2786
92.6908
92.2312
93.9564
93.7387
90.1111
91.2336
91.0658
91.9002
91.666
91.446
91.5445
90.9403
91.0439
90.3674
90.4389
89.8073
89.896
89.3059
89.5728
89.0634
89.8669
89.5332
91.5615
91.5571
91.0336
91.4115
91.8644
92.706
92.463
92.2814
92.3446
91.7784
91.9062
91.3325
91.5196
91.1197
91.4709
91.268
91.977
91.9697
93.2135
93.3473
95.4695
95.8184
93.3164
93.6856
94.8698
96.1444
96.0232
96.143
96.1708
95.8684
96.0523
95.7291
96.0634
95.8657
96.4059
96.3308
97.1947
97.2533
98.5146
98.6996
100.574
101.037
102.947
102.87
104.199
105.561
105.12
105.257
104.885
104.568
104.457
103.999
104.118
103.642
103.972
103.501
104.058
103.594
104.393
104.003
105.349
105.436
98.4685
98.1814
99.4383
100.888
100.14
100.332
99.6867
99.4132
99.126
98.6772
98.7319
98.2494
98.5927
98.0946
98.68
98.1287
98.9348
98.4276
99.6922
99.9029
111.119
109.957
110.818
111.916
110.748
110.689
109.641
109.14
108.44
107.769
107.424
106.73
106.703
105.983
106.236
105.403
105.96
105.036
106.108
105.846
90.959
90.7677
91.4497
93.5202
92.57
92.967
92.1765
92.1512
91.7578
91.5713
91.5704
91.3012
91.6474
91.2891
91.9654
91.5088
92.4813
92.0365
93.3564
93.6773
144.031
142.257
140.073
140.85
137.034
134.968
131.717
129.036
125.903
123.386
121.101
118.934
117.393
115.56
114.793
113.108
113.16
111.214
111.999
110.838
)
;

boundaryField
{
    outletWall
    {
        type            fixedValue;
        value           uniform 0;
    }
    fineWalls
    {
        type            zeroGradient;
    }
    fineFrontAndBack
    {
        type            zeroGradient;
    }
    fineplugLeft
    {
        type            cyclicAMI;
        value           nonuniform List<scalar> 
20
(
97.7856
97.5799
96.6995
98.6101
98.8721
100.69
101.687
103.509
105.002
107.005
108.929
110.965
113.822
126.008
121.076
121.707
124.549
125.388
124.713
122.047
)
;
    }
    fineplugRight
    {
        type            cyclicAMI;
        value           nonuniform List<scalar> 
20
(
91.8452
91.1157
89.7115
91.5554
91.7093
93.5789
94.4843
96.3234
97.7831
99.7616
101.772
103.92
106.51
117.103
115.991
116.366
118.896
118.62
118.193
115.666
)
;
    }
    inletOutletLeft
    {
        type            cyclicAMI;
        value           nonuniform List<scalar> 
20
(
97.7856
97.5799
96.6995
98.6101
98.8721
100.69
101.687
103.509
105.002
107.005
108.929
110.965
113.822
126.008
121.076
121.707
124.549
125.388
124.713
122.047
)
;
    }
    inletLeft
    {
        type            zeroGradient;
    }
    inletWallsLeft
    {
        type            zeroGradient;
    }
    inletFacesLeft
    {
        type            zeroGradient;
    }
    inletOutletRight
    {
        type            cyclicAMI;
        value           nonuniform List<scalar> 
20
(
91.8452
91.1157
89.7115
91.5554
91.7093
93.5789
94.4843
96.3234
97.7831
99.7616
101.772
103.92
106.51
117.103
115.991
116.366
118.896
118.62
118.193
115.666
)
;
    }
    inletRight
    {
        type            zeroGradient;
    }
    inletWallsRight
    {
        type            zeroGradient;
    }
    inletFacesRight
    {
        type            zeroGradient;
    }
}


// ************************************************************************* //
