/*--------------------------------*- C++ -*----------------------------------*\
| =========                 |                                                 |
| \\      /  F ield         | OpenFOAM: The Open Source CFD Toolbox           |
|  \\    /   O peration     | Version:  4.1                                   |
|   \\  /    A nd           | Web:      www.OpenFOAM.org                      |
|    \\/     M anipulation  |                                                 |
\*---------------------------------------------------------------------------*/
FoamFile
{
    version     2.0;
    format      ascii;
    class       surfaceScalarField;
    location    "27";
    object      phi;
}
// * * * * * * * * * * * * * * * * * * * * * * * * * * * * * * * * * * * * * //

dimensions      [0 3 -1 0 0 0 0];

internalField   nonuniform List<scalar> 
2360
(
-5785.72
-1978.4
-3807.33
-1978.4
-1978.4
1484.75
-3463.15
1484.75
1484.75
1484.75
4972.8
-3488.05
4972.8
4972.8
8283.61
-3310.81
8283.61
8283.61
11250.4
-2966.76
11250.4
11250.4
14285.8
-3035.41
14285.8
14285.8
15597.4
17349.3
18859.7
20156.2
21353.6
22607.6
18024.6
5787.76
19110.3
20110.4
21057.1
21954.8
22802.1
23587.5
24310.2
24954.4
25529.4
26038.3
26531.5
27153.4
27998
12944.5
15053.5
12944.5
12944.5
12944.5
493.501
12451
493.5
493.501
493.501
54.525
438.977
54.5253
54.5258
81.8674
-27.3412
81.8676
81.8684
81.8681
-12407.6
12489.5
-12407.6
-12407.6
-12407.6
-27316.9
14909.3
-26355.1
-25587.5
-25042.2
-24554.9
-24017.9
-23416.5
-22733.1
-21980.6
-21158.3
-20272.5
-19318.1
-18295.4
-17196.4
-19892.2
3866.24
-18655.8
-17356.2
-15997.7
-14558.2
-12834.9
-11683.1
-11683.1
-11683.1
-5351.3
-6331.83
-5351.3
-5351.3
-724.662
-4626.63
-724.662
-724.662
3016.68
-3741.34
3016.68
3016.68
5925.91
-2909.24
5925.91
5925.91
5925.91
8793.48
-2867.57
8793.48
8793.48
11808
-3014.49
-1230.55
-12615.2
-1168.95
-7395.51
-2089.1
6077.84
-2728.8
11722
-3031.63
8375.82
-3812.64
-3488.35
-5314.27
-9124.13
-6933.46
-10373.2
-7984.63
-13533.6
-8259.13
-18909.7
-6826.8
-23265.5
-2595.36
-17017.8
1153.8
8547.45
2552.57
26687.7
3394.12
25954.7
3765.26
19789.3
3844.35
10578.7
3818.38
2461.05
-4778.81
-1181.44
-12987.4
-1616.08
-6960.87
-2515.18
6976.94
-3166.55
12373.3
-3675.82
8885.1
-5352.27
-1811.9
-7404.05
-7072.34
-8916.4
-8860.85
-9675.31
-12774.7
-9810.83
-18774.1
-8401.33
-24675
-3818.7
-21600.4
638.998
4089.75
2263.42
25063.3
3197.21
25020.9
3680.17
19306.3
3953.54
10305.3
3792.56
2622.03
-3853.82
-1766.24
-12812.1
-2771.66
-5955.45
-3369.11
7574.38
-3778.94
12783.1
-4629.02
9735.18
-6654.08
213.158
-8371.17
-5355.25
-9185.65
-8046.37
-9350.5
-12609.8
-9146.79
-18977.9
-8175.74
-25646.1
-5137.07
-24639.1
-572.395
-474.921
1825.14
22665.7
2815.93
24030.1
3488.29
18634
4036.47
9757.13
4015.55
2642.94
-2747.51
-2649.87
-12207.9
-4023.71
-4581.61
-4392
7942.67
-4543.2
12934.3
-5503.03
10695
-7558.48
2268.62
-8789.85
-4123.88
-8868.42
-7967.8
-8382.8
-13095.5
-7826.98
-19533.7
-7320.17
-26152.9
-5778.53
-26180.7
-1649.38
-4604.06
1131.67
19884.7
2130.05
23031.7
3073.31
17690.7
3983.76
8846.69
4376.69
2250.01
-2112.16
-3719.84
-11183.2
-5337.78
-2963.67
-5487.14
8092.04
-5370.8
12818
-6213.27
11537.5
-7991.14
4046.48
-8575.79
-3539.23
-7971.84
-8571.75
-7001.86
-14065.4
-6327.13
-20208.4
-6283.69
-26196.3
-6022.31
-26442.1
-2868.62
-7757.75
-85.6621
17101.7
1041.44
21904.6
2369.15
16363
3756.11
7459.73
4833.09
1173.03
-1905.7
-4886.28
-9868.96
-6542.69
-1307.26
-6484.98
8034.33
-6157.1
12490.1
-6737.91
12118.3
-8011.63
5320.19
-8066.33
-3484.52
-7209.37
-9428.71
-6290.66
-14984.1
-5772.15
-20726.9
-5853.81
-26114.7
-6271.1
-26024.8
-4461.38
-9567.47
-1833.47
14473.8
-283.379
20354.5
1311.67
14767.9
3014
5757.39
5316.93
-1129.9
-2920.6
-5963.82
-8417.37
-7476.29
205.214
-7260.15
7818.18
-6838.63
12068.6
-7156.51
12436.2
-7918.8
6082.48
-7704.12
-3699.21
-6981.59
-10151.2
-6423.63
-15542.1
-5991.49
-21159.1
-5881.18
-26225
-6593.54
-25312.5
-6110.9
-10050.1
-3747.68
12110.6
-1824.85
18431.7
-74.2813
13017.4
2680.25
3002.86
4261.34
-2710.99
5206.97
-6750.54
-6996.2
-8010.42
1465.09
-7775.11
7582.88
-7411.11
11704.6
-7564.56
12589.6
-7901.33
6419.25
-7538.19
-4062.34
-6955.65
-10733.8
-6530.08
-15967.7
-6006.89
-21682.2
-5838.27
-26393.6
-6756.48
-24394.3
-7236
-9570.6
-5410.7
10285.3
-3226.5
16247.5
-541.654
10332.5
-1426.73
3887.94
-8090.43
3952.7
12025.8
-7206.83
-5723
-8216.77
2475.03
-8121.14
7487.24
-7959.23
11542.7
-8052.48
12682.9
-7956.65
6323.42
-7313.44
-4705.56
-6637.14
-11410.1
-6148
-16456.8
-5676.15
-22154.1
-5725.63
-26344.1
-6750.99
-23368.9
-7327.9
-8993.68
-5738.5
8695.87
-4133.44
14642.5
-5461.26
11660.3
-10724.8
9151.52
-14528.5
7756.31
9986.86
-7516.36
-4657.27
-8326.13
3284.8
-8489.47
7650.58
-8627.49
11680.7
-8663.83
12719.2
-7972
5631.6
-6852.99
-5824.57
-5977.23
-12285.8
-5508.15
-16925.9
-5321.81
-22340.4
-5728.65
-25937.3
-7022.18
-22075.4
-7743.78
-8272.09
-6549.76
7501.85
-7094.09
15186.8
-11069.7
15636
-13996
12077.8
-10565.7
4325.93
-606.145
-7952.38
-3759.41
-8646.18
3978.61
-9085.55
8089.95
-9479.88
12075
-9279.95
12519.3
-7765.68
4117.32
-6106.65
-7483.6
-5090.3
-13302.2
-4744.19
-17272
-4936.01
-22148.6
-5736.7
-25136.6
-7533.92
-20278.2
-9367.95
-6438.05
-9356.85
7490.75
-10812.7
16642.6
-13779.5
18602.8
-13786.5
12084.9
-9674.44
213.827
-9841.61
-8589.07
-2915.49
-9284.83
4674.37
-9922.48
8727.61
-10374.2
12526.8
-9633.96
11779
-7179.45
1662.82
-5090.78
-9572.27
-4071.88
-14321.1
-3895.74
-17448.2
-4428.29
-21616.1
-5536.8
-24028.1
-7779.46
-18035.5
-10861.4
-3356.13
-12255.7
8885.08
-13976
18362.9
-16469.2
21096.1
-17500.7
13116.3
-16108.9
-1178
-13499.5
-9198.2
-2025.11
-10009.2
5485.39
-10750.2
9468.59
-11019.1
12795.7
-9433.91
10193.8
-6159.22
-1611.88
-3974.98
-11756.5
-3160.1
-15136
-3119.92
-17488.3
-3825.19
-20910.8
-5052.52
-22800.8
-7521.17
-15566.8
-11283.8
406.472
-13411.5
11012.8
-14865.8
19817.2
-15567.8
21798.1
-13810.7
11359.2
-12420.4
-2568.3
-10866.4
-9503.24
-1078.74
-10466.9
6449.03
-11253.5
10255.2
-11137.6
12679.8
-8479.99
7536.19
-4819.42
-5272.45
-3059.67
-13516.3
-2612.31
-15583.3
-2594.79
-17505.9
-3244.56
-20261
-4319.14
-21726.2
-6473.65
-13412.3
-10290.3
4223.13
-12528.3
13250.8
-13231.2
20520
-11677.6
20244.6
-6465.53
6147.18
-1982.37
-7051.46
-7061
-9401.24
-102.668
-10510.1
7557.89
-11285.8
11031
-10632.5
12026.4
-7067.93
3971.65
-3684.14
-8656.24
-2637.89
-14562.5
-2426.94
-15794.3
-2309.94
-17622.9
-2725.76
-19845.2
-3451.79
-21000.2
-4629.88
-12234.2
-7908.77
7502.02
-10028
15370.1
-9988.82
20480.8
-7539.48
17795.2
-3268.72
1876.42
12.0311
-10332.2
-10084.4
-8993.58
859.015
-10179.1
8743.38
-10856.6
11708.5
-9597.65
10767.5
-5653.01
27.015
-3044.7
-11264.5
-2562.13
-15045.1
-2296.76
-16059.7
-2043.66
-17876
-2177.48
-19711.4
-2548.69
-20628.9
-2454.43
-12328.5
-4669.42
9717
-6657.32
17358
-6235.62
20059.1
-3728.51
15288.1
-171.445
-1680.64
2050.48
-12554.1
-11000.7
-8446.92
1885.9
-9763.82
10060.3
-10186.7
12131.3
-8179.58
8760.41
-4446.43
-3706.14
-2791.28
-12919.7
-2529.96
-15306.4
-2057.17
-16532.4
-1668.13
-18265
-1568.44
-19811.1
-1678.4
-20519
-690.224
-13316.7
-1377.34
10404.1
-2910.13
18890.8
-2542.34
19691.3
36.2142
12709.6
2818.13
-4462.56
3770.54
-13506.6
-10540.9
-7912.26
2951.2
-9303.43
11451.4
-9380.24
12208.2
-6788.26
6168.43
-3729.7
-6764.7
-2813.22
-13836.2
-2460.15
-15659.5
-1834.31
-17158.3
-1333.24
-18766.1
-1042.08
-20102.2
-899.178
-20661.9
267.838
-14483.7
1180.76
9491.19
1104.9
18966.6
1516.11
19280.1
3815.13
10410.5
5440.93
-6088.36
4701.95
-12767.6
-9327.04
-7382.89
4282.49
-9123.98
13192.5
-8755.5
11839.7
-5682.35
3095.27
-3457.21
-8989.84
-2923.5
-14369.9
-2373.32
-16209.6
-1707.67
-17823.9
-1123.27
-19350.5
-677.067
-20548.4
-318.889
-21020.1
723.42
-15526
2438.79
7775.82
4001.14
17404.3
5054.24
18227
6455.9
9008.89
6425.92
-6058.38
4940.49
-11282.1
-7849.69
-7130.82
-8610.65
-7775.41
-5107.55
-3585.77
-2961.21
-2323.6
-1645.7
-997.431
-460.521
-0.759097
773.771
2444.62
4459.78
5886.86
6633.45
6080.46
4986.98
238.526
-1550.17
445.573
-1958.97
574.91
-1639.65
669.17
-1390.84
783.519
-1311.76
920.726
-1391.13
946.541
-1230.6
936.922
-1076.13
928.456
-991.59
918.621
-936.877
892.001
-871.098
846.826
-802.09
778.298
-716.889
692.858
-637.216
580.551
-531.93
450.833
-445.25
309.546
-367.632
186.85
-370.495
94.6788
-529.726
-749.977
75.1334
-1625.31
49.649
-1933.49
51.64
-1641.64
56.9114
-1396.12
90.8486
-1345.7
131.316
-1431.59
113.001
-1212.29
97.2378
-1060.37
101.514
-995.867
111.804
-947.168
115.273
-874.568
113.936
-800.754
104.314
-707.268
95.1928
-628.097
80.0656
-516.804
60.3119
-425.498
42.166
-349.486
38.6731
-367.002
32.6565
-523.71
-717.321
-3.33725
-1621.97
-0.729491
-1936.1
46.4519
-1688.83
68.1165
-1417.78
93.192
-1370.78
105.957
-1444.36
106.765
-1213.1
125.632
-1079.24
138.266
-1008.5
142.447
-951.35
140.335
-872.457
138.373
-798.793
133.233
-702.13
130.34
-625.205
130.059
-516.524
125.366
-420.805
114.548
-338.668
99.496
-351.951
66.4622
-490.677
-650.858
-0.136294
-1621.84
-1.7329
-1934.5
37.4085
-1727.97
50.836
-1431.21
68.1269
-1388.07
79.6353
-1455.87
77.0013
-1210.47
81.074
-1083.31
82.6654
-1010.1
85.2799
-953.966
85.2605
-872.438
85.8705
-799.404
83.272
-699.532
79.2705
-621.204
78.5101
-515.764
80.6224
-422.918
79.6813
-337.728
76.7385
-349.009
54.0536
-467.993
-596.805
-3.76303
-1618.07
-8.74899
-1929.52
29.9311
-1766.65
42.2231
-1443.5
54.2681
-1400.11
64.163
-1465.77
66.6373
-1212.94
75.1189
-1091.79
80.4055
-1015.38
85.7317
-959.293
89.2436
-875.952
91.4998
-801.662
93.813
-701.847
91.9278
-619.32
94.7212
-518.559
105.055
-433.252
115.669
-348.342
111.003
-344.344
72.0869
-429.078
-524.718
6.2559
-1624.33
10.7568
-1934.02
50.4652
-1806.36
62.5855
-1455.63
77.0613
-1414.59
89.5295
-1478.23
93.4407
-1216.85
105.13
-1103.48
114.128
-1024.38
121.766
-966.932
127.932
-882.118
130.482
-804.212
133.744
-705.11
130.933
-616.51
128.269
-515.895
129.556
-434.54
132.167
-350.953
116.827
-329.005
69.9054
-382.157
-454.812
9.60791
-1633.94
21.3117
-1945.72
54.2129
-1839.26
64.4246
-1465.84
80.0127
-1430.18
92.9998
-1491.22
99.6355
-1223.49
117.791
-1121.64
134.063
-1040.65
146.537
-979.407
157.697
-893.28
163.669
-810.185
170.194
-711.635
170.637
-616.954
169.602
-514.86
166.286
-431.225
161.542
-346.21
134.934
-302.397
77.7726
-324.996
-377.04
22.1094
-1656.05
41.0744
-1964.69
66.6524
-1864.84
85.595
-1484.78
104.332
-1448.92
116.04
-1502.93
128.181
-1235.63
152.431
-1145.89
176.031
-1064.26
192.716
-996.092
209.263
-909.827
219.617
-820.539
229.349
-721.367
231.784
-619.389
230.916
-513.993
220.909
-421.218
202.538
-327.839
160.627
-260.486
92.9999
-257.368
-284.04
43.8768
-1699.93
57.5101
-1978.33
70.0459
-1877.38
102.7
-1517.44
124.151
-1470.37
128.679
-1507.46
152.613
-1259.57
183.025
-1176.3
214.17
-1095.4
234.855
-1016.78
257.576
-932.549
274.552
-837.516
291.109
-737.925
300.638
-628.919
305.951
-519.307
298.388
-413.655
275.206
-304.658
224.417
-209.697
138.019
-170.971
-146.021
69.8124
-1769.74
68.9885
-1977.5
64.4749
-1872.87
120.869
-1573.83
150.445
-1499.95
138.794
-1495.81
181.89
-1302.66
216.196
-1210.61
254.024
-1133.23
279.109
-1041.86
308.486
-961.926
333.761
-862.792
360.408
-764.573
383.061
-651.572
402.206
-538.452
407.655
-419.105
386.123
-283.125
331.089
-154.663
223.619
-63.5005
77.5974
82.2371
-1851.98
63.7011
-1958.97
31.8979
-1841.06
100.546
-1642.48
148.741
-1548.14
117.413
-1464.48
172.964
-1358.21
206.415
-1244.06
244.66
-1171.47
274.127
-1071.33
307.052
-994.851
337.768
-893.508
369.523
-796.327
399.223
-681.272
424.185
-563.414
433.742
-428.661
395.527
-244.91
272.519
-31.6553
107.595
101.425
185.193
66.5857
-1918.57
29.3219
-1921.7
6.42994
-1818.17
31.7954
-1667.85
70.2814
-1586.63
59.2605
-1453.46
84.1571
-1383.11
107.31
-1267.21
128.966
-1193.13
151.841
-1094.21
170.73
-1013.74
186.879
-909.657
194.126
-803.573
193.221
-680.367
180.507
-550.699
149.831
-397.983
72.6801
-167.758
-87.5523
128.579
-194.353
208.229
-9.16066
23.9997
-1942.57
-19.2072
-1878.5
-25.0457
-1812.33
-46.3839
-1646.51
-47.5267
-1585.49
-40.6752
-1460.32
-42.1386
-1381.65
-37.6805
-1271.67
-40.8144
-1190
-39.3239
-1095.7
-43.917
-1009.15
-51.7033
-901.871
-72.5756
-782.7
-103.03
-649.913
-143.015
-510.713
-187.217
-353.781
-207.621
-147.353
-190.857
111.816
-152.61
169.983
-161.771
8.8545
-1951.42
-4.6438
-1865
-9.49347
-1807.48
-27.2638
-1628.74
-41.9056
-1570.84
-62.4504
-1439.77
-79.5318
-1364.57
-97.6119
-1253.59
-121.623
-1165.98
-144.388
-1072.93
-168.429
-985.106
-182.908
-887.391
-183.759
-781.848
-174.364
-659.307
-174.137
-510.94
-175.688
-352.229
-133.673
-189.368
8.59263
-30.4482
102.145
76.4329
-59.6256
34.3073
-1985.73
44.3212
-1875.01
61.0688
-1824.23
73.8513
-1641.52
87.3727
-1584.36
91.7827
-1444.18
90.7065
-1363.49
93.3315
-1256.21
95.687
-1168.34
97.6572
-1074.9
98.641
-986.088
107.606
-896.354
128.826
-803.066
163.364
-693.845
202.098
-549.673
230.132
-380.262
253.906
-213.142
290.628
-67.1684
272.692
94.3703
213.067
47.5226
-2033.25
49.2156
-1876.7
71.0138
-1846.03
98.2733
-1668.78
124.961
-1611.05
163.541
-1482.76
202.632
-1402.58
248.885
-1302.47
297.894
-1217.35
352.415
-1129.42
410.773
-1044.44
470.034
-955.613
522.733
-855.763
555.861
-726.97
550.909
-544.72
473.031
-302.382
306.204
-46.3124
190.061
48.978
127.249
157.186
340.316
-17.5748
-2015.67
-66.6675
-1827.61
-94.6231
-1818.07
-107.828
-1655.57
-120.666
-1598.21
-117.086
-1486.34
-110.527
-1409.13
-92.894
-1320.1
-68.6649
-1241.57
-36.099
-1161.98
2.94442
-1083.49
45.7097
-998.377
83.8553
-893.907
97.3983
-740.512
58.4571
-505.776
-29.8869
-214.029
-39.1173
-37.0674
-22.6978
32.5684
-53.1408
187.633
287.175
-166.955
-1848.72
-354.214
-1640.35
-507.706
-1664.58
-623.322
-1539.96
-729.021
-1492.51
-804.538
-1410.82
-867.331
-1346.34
-910.774
-1276.65
-941.071
-1211.27
-957.224
-1145.83
-960.448
-1080.26
-948.983
-1009.84
-917.597
-925.292
-850.519
-807.589
-720.272
-636.022
-512.06
-422.241
-322.339
-226.786
-220.559
-69.2102
-124.302
91.3779
162.873
-207.984
-1640.73
-464.126
-1384.21
-731.979
-1396.72
-960.882
-1311.05
-1181.53
-1271.86
-1371.54
-1220.81
-1540.06
-1177.82
-1682.6
-1134.12
-1801.7
-1092.17
-1896.98
-1050.55
-1968.2
-1009.04
-2011.64
-966.406
-2015.85
-921.079
-1952.98
-870.455
-1779.59
-809.418
-1470.34
-731.483
-1065.83
-631.301
-641.577
-493.46
-251.311
-298.888
-88.4375
-665.731
-1074.94
-1496.66
-1832.71
-2129.57
-2375.38
-2578.2
-2737.31
-2854.49
-2930.03
-2964.07
-2955.48
-2901.56
-2797.01
-2631.43
-2387.91
-2044.21
-1562.67
-886.562
-677.666
1652.67
-1100.35
1397.69
-1535.52
1410.17
-1886.28
1325.77
-2198.77
1287.49
-2461.48
1237.7
-2682.38
1195.9
-2860.84
1153.47
-2998.48
1112.63
-3095.55
1072.07
-3152.57
1032.02
-3169.33
991.769
-3142.91
948.573
-3062.78
894.877
-2906.1
818.319
-2639.3
708.2
-2226.73
562.437
-1639.5
387.763
-881.102
216.607
93.8978
-219.968
1872.64
-481.936
1659.66
-757.463
1685.7
-990.53
1558.84
-1214.44
1511.41
-1405.17
1428.43
-1573.04
1363.78
-1712.9
1293.33
-1827.55
1227.29
-1916.41
1160.94
-1980.64
1096.25
-2019.65
1030.78
-2028.74
957.672
-1993.33
859.467
-1886.39
711.381
-1670.8
492.611
-1323.42
215.06
-880.252
-55.4069
-440.642
-223.001
-346.744
-136.706
2009.35
-302.842
1825.8
-429.755
1812.61
-513.587
1642.67
-585.339
1583.17
-624.499
1467.59
-646.582
1385.87
-645.792
1292.54
-625.799
1207.3
-586.29
1121.43
-528.127
1038.09
-452.159
954.813
-361.159
866.676
-261.711
760.022
-166.309
615.983
-90.052
416.361
-34.6648
159.69
20.2905
-110.345
-21.9174
-180.785
-368.661
39.9625
1969.39
27.0941
1838.67
45.1651
1794.54
81.5223
1606.32
120.152
1544.54
180.062
1407.68
248.345
1317.59
329.711
1211.17
419.983
1117.03
519.74
1021.67
626.937
930.894
740.553
841.198
855.489
751.743
955.278
660.233
1009.8
561.46
984.02
442.147
826.075
317.636
506.209
209.524
240.812
84.6177
-127.85
68.0137
1901.38
96.0584
1810.62
139.59
1751.01
177.282
1568.63
213.433
1508.39
241.437
1379.68
257.595
1301.43
280.017
1188.76
304.492
1092.56
330.047
996.123
357.103
903.843
386.196
812.11
430.34
707.603
511.945
578.633
644.205
429.204
717.608
368.748
691.391
343.855
544.826
356.092
304.919
324.53
177.069
-68.1621
1969.54
-128.492
1870.95
-195.027
1817.55
-281.35
1654.95
-368.171
1595.21
-469.17
1480.68
-582.626
1414.89
-696.711
1302.84
-813.475
1209.32
-917.458
1100.11
-1008.42
994.81
-1072.24
875.927
-1128.03
763.395
-1151.44
602.037
-1224.77
502.537
-1001.78
145.762
-767.877
109.954
-497.362
85.5795
-236.315
63.4878
-59.246
-22.3574
1991.9
-67.2369
1915.83
-95.0468
1845.36
-128.243
1688.15
-161.577
1628.54
-203.455
1522.56
-244.293
1455.72
-279.758
1338.3
-306.409
1235.97
-309.509
1103.2
-283.628
968.926
-232.281
824.578
-208.68
739.794
-286.194
679.551
-556.376
772.724
-703.754
293.148
-672.492
78.6988
-533.76
-53.1448
-367.447
-102.816
-426.693
85.0823
1906.81
24.4692
1976.44
22.532
1847.29
22.0965
1688.58
32.657
1617.98
58.7482
1496.46
100.089
1414.38
131.848
1306.54
147.945
1219.87
148.291
1102.85
139.114
978.099
131.039
832.646
169.413
701.418
202.893
646.069
291.345
684.273
108.571
475.921
-20.7341
208.006
-146.491
72.6142
-138.576
-110.727
-565.269
174.685
1732.13
138.848
2012.28
159.139
1827
194.543
1653.18
247.504
1565.02
317.252
1426.72
405.958
1325.68
495.162
1217.34
575.252
1139.78
631.004
1047.1
659.364
949.74
656.437
835.573
637.367
720.489
673.818
609.618
803.083
555.01
790.019
488.986
653.378
344.648
510.159
215.835
372.226
27.2082
-193.042
164.337
1567.79
161.751
2014.86
181.179
1807.57
215.369
1618.98
262.599
1517.79
315.406
1373.91
375.945
1265.14
440.238
1153.04
503.763
1076.25
555.855
995.003
592.07
913.524
608.756
818.885
613.321
715.924
645.557
577.381
705.537
495.029
727.489
467.035
672.94
399.197
566.15
322.625
344.005
249.354
150.963
82.1119
1485.67
94.1647
2002.81
108.334
1793.4
123.85
1603.47
145.38
1496.26
165.397
1353.89
184.438
1246.09
210.476
1127
237.334
1049.39
264.985
967.35
289.358
889.15
312.297
795.945
341.243
686.978
369.61
549.013
395.471
469.167
421.448
441.057
416.03
404.616
357.679
380.975
222.649
384.384
373.612
6.08027
1479.59
19.8988
1988.98
31.6501
1781.65
31.252
1603.86
31.1783
1496.33
19.6593
1365.4
2.76291
1262.99
-5.55499
1135.31
-4.46019
1048.29
7.43558
955.45
26.3697
870.213
55.2604
767.051
91.8475
650.388
110.105
530.753
137.597
441.673
179.905
398.748
204.584
379.935
185.707
399.851
119.724
450.365
493.337
-10.4299
1490.02
2.803
1975.75
18.7146
1765.73
16.6138
1605.96
14.98
1497.96
0.959177
1379.42
-19.5652
1283.51
-43.2503
1159
-52.7054
1057.75
-49.118
951.861
-33.2361
854.329
-12.1108
745.924
2.10435
636.171
-1.34936
534.205
11.8947
428.427
39.1515
371.49
60.5421
358.544
56.1111
404.282
29.0165
477.458
522.353
13.821
1476.19
25.9118
1963.66
50.297
1741.34
59.1759
1597.08
71.6761
1485.46
83.9562
1367.14
96.3779
1271.09
96.0053
1159.37
97.7099
1056.04
100.31
949.259
106.914
847.723
105.519
747.316
93.0689
648.62
76.284
550.988
67.0927
437.617
66.0459
372.535
66.8757
357.713
49.9043
421.252
12.687
514.674
535.04
28.0087
1448.18
41.2049
1950.46
77.6907
1704.86
95.4171
1579.35
113.317
1467.56
136.042
1344.41
167.314
1239.81
194.198
1132.48
213.305
1036.93
220.034
942.528
218.197
849.558
205.181
760.33
191.748
662.051
180.23
562.504
168.918
448.927
159.65
381.803
149.95
367.412
121.029
450.172
60.7456
574.956
595.786
8.3723
1439.81
14.7222
1944.1
55.8316
1663.75
69.0724
1566.11
78.3564
1458.27
87.2851
1335.48
104.762
1222.34
126.669
1110.57
146.473
1017.13
156.019
932.98
158.592
846.983
159.552
759.368
166.865
654.737
172.888
556.48
179.292
442.522
184.633
376.461
185.486
366.557
164.237
471.421
103.742
635.449
699.528
-1.06356
1440.87
5.54354
1937.5
51.1864
1618.1
61.7849
1555.51
63.8409
1456.22
59.4361
1339.89
57.765
1224.01
57.1556
1111.18
62.5606
1011.72
69.2422
926.297
78.3626
837.862
90.5194
747.211
101.575
643.681
106.973
551.08
110.084
439.411
113.385
373.159
120.538
359.404
121.579
470.379
89.7097
667.317
789.237
-10.3443
1451.21
-2.67227
1929.82
58.6624
1556.77
79.6003
1534.57
94.3837
1441.43
104.885
1329.39
113.473
1215.42
115.125
1109.53
119.623
1007.22
125.507
920.413
134.516
828.852
140.605
741.12
140.882
643.403
136.485
555.477
129.358
446.537
119.844
382.672
115.443
363.805
108.801
477.02
79.8743
696.243
869.112
69.6176
1381.59
51.9484
1947.49
52.2681
1556.45
83.2946
1503.54
103.106
1421.62
108.929
1323.56
116.484
1207.86
117.759
1108.25
116.682
1008.3
114.716
922.379
110.073
833.495
99.2858
751.907
81.6927
660.996
61.9857
575.183
37.9621
470.561
19.513
401.12
20.916
362.402
39.0463
458.89
32.4074
702.882
901.519
229.87
453.972
570.955
716.032
838.013
925.214
962.611
971.85
957.443
925.441
873.185
802.718
711.218
603.061
472.177
336.328
211.378
124.986
60.2829
)
;

boundaryField
{
    outletWall
    {
        type            calculated;
        value           nonuniform List<scalar> 
60
(
11808
5582.7
-2435.07
-10657.8
-20160.4
-26796.2
-28086.4
-12296.6
12786.3
21833.2
19184.2
14584.8
11992.4
10625.8
4269.36
-8073
-11082.3
-5157.69
7333.91
11883.7
5953.76
6051.61
6846.96
7420.04
8031.89
8425.16
8556.87
8307.83
7745.15
7054.51
6450.62
5933.64
5329.37
4512.22
3572.09
2695.14
2045.59
1590.97
1553.65
1962.08
5785.72
-6670.04
-10188.7
-5505.39
8262.29
16799.9
15389.1
6104.97
-16300.5
-21479.8
-21085.3
-19998.7
-18501.8
-16847.3
-14994.5
-10511.6
427.418
11004.4
14672.4
5459.55
)
;
    }
    fineWalls
    {
        type            calculated;
        value           uniform 0;
    }
    fineFrontAndBack
    {
        type            calculated;
        value           nonuniform List<scalar> 
960
(
-1.41663e-12
-4.83023e-12
-1.02183e-12
-9.77471e-13
-5.83506e-12
-1.69055e-12
-1.79506e-12
-9.57561e-13
-8.00693e-12
-2.18513e-12
-2.46122e-12
-8.51318e-12
-3.79724e-13
4.90786e-13
3.71779e-12
1.20895e-12
1.65739e-12
8.12054e-12
1.85043e-12
1.69544e-12
4.44994e-13
1.39199e-13
2.64208e-14
-7.74709e-14
-1.38253e-13
-2.76517e-13
-5.60777e-13
-4.25708e-13
-4.79155e-13
-5.26639e-13
-5.72732e-13
-6.24135e-13
-6.89379e-13
-7.56673e-13
-8.52312e-13
-9.87793e-13
-1.12237e-12
-1.40409e-12
-1.35415e-12
-1.04685e-12
-2.19088e-11
-2.90216e-12
-2.90868e-12
-3.09916e-12
-2.15276e-12
1.03188e-12
4.72458e-13
2.96125e-12
3.89205e-10
7.93689e-11
4.98136e-11
1.06474e-10
5.54373e-12
4.52251e-12
1.6321e-12
9.94037e-12
1.88614e-12
1.7358e-12
1.92807e-12
1.53604e-11
7.43298e-13
9.76177e-13
1.22483e-12
1.11246e-12
9.39493e-13
8.12593e-13
7.11726e-13
6.36553e-13
5.67539e-13
5.09941e-13
4.55299e-13
3.91271e-13
3.3363e-13
-4.34532e-12
1.26511e-13
-2.44151e-14
-7.47314e-14
-1.58431e-13
-2.6378e-13
-5.90713e-13
-2.61308e-12
-2.702e-12
-1.18055e-11
-6.28562e-13
-9.50802e-14
1.48352e-12
7.22606e-13
1.71827e-12
4.15394e-12
1.86934e-13
-1.9533e-12
-1.37792e-12
2.8387e-12
3.27897e-12
3.07028e-12
4.71217e-12
-4.4879e-13
-1.07725e-12
-1.07663e-11
-3.97747e-12
5.33798e-12
1.08065e-11
1.09259e-12
5.76087e-12
7.88067e-12
6.91915e-12
1.03702e-11
6.5934e-12
-1.92025e-12
-7.29765e-12
-8.85047e-12
-8.71268e-12
-5.71044e-12
-2.71384e-12
-5.12362e-12
-1.13959e-11
-1.83513e-11
-2.279e-11
-3.00288e-11
1.85682e-11
1.19121e-11
-3.9376e-12
5.71211e-12
7.79257e-12
6.11747e-12
2.10367e-12
-1.03943e-11
-1.88737e-11
-2.01025e-11
-1.81242e-11
-1.39657e-11
-5.14154e-12
-2.32508e-12
-4.81707e-12
-1.08912e-11
-1.76124e-11
-2.14692e-11
-3.27044e-11
2.85703e-11
6.23642e-12
-1.03082e-11
4.01084e-12
8.20103e-12
3.84615e-12
-1.08374e-11
-2.76483e-11
-3.44213e-11
-3.17014e-11
-2.55165e-11
-1.81849e-11
-5.58367e-12
-2.05334e-12
-4.51053e-12
-9.9659e-12
-1.6093e-11
-1.91377e-11
-3.03899e-11
2.84937e-11
-5.00245e-12
-1.35972e-11
1.87338e-12
8.80567e-12
-7.87441e-14
-2.54595e-11
-4.43914e-11
-4.8522e-11
-4.06489e-11
-3.06772e-11
-2.20743e-11
-8.119e-12
-1.77838e-12
-4.02911e-12
-9.10619e-12
-1.47335e-11
-1.702e-11
-2.60686e-11
1.93362e-11
-1.66799e-11
-1.42163e-11
9.66688e-13
9.0212e-12
-5.39433e-12
-4.15077e-11
-5.55808e-11
-5.04079e-11
-3.70503e-11
-2.9899e-11
-2.3512e-11
-1.10339e-11
1.13822e-13
-3.95212e-12
-8.83182e-12
-1.31729e-11
-1.51461e-11
-2.2611e-11
5.15997e-12
-2.65871e-11
-1.0879e-11
1.59401e-12
8.55085e-12
-1.10891e-11
-5.09814e-11
-5.29546e-11
-3.41518e-11
-2.30905e-11
-2.39085e-11
-2.31434e-11
-1.36498e-11
3.29789e-12
-4.51801e-12
-1.01182e-11
-1.51094e-11
-1.55274e-11
-2.67e-11
-8.36315e-12
-3.50659e-11
-5.57704e-12
6.56353e-12
7.66233e-12
-1.76994e-11
-5.01377e-11
-3.4339e-11
-1.03735e-11
-1.00281e-11
-1.70852e-11
-2.12814e-11
-1.6973e-11
-1.6993e-12
-7.15949e-12
-1.1034e-11
-1.5864e-11
-1.76195e-11
-2.80952e-11
-1.82441e-11
-4.52816e-11
-1.19104e-12
1.48071e-11
7.56409e-12
-2.38608e-11
-4.14548e-11
-1.01008e-11
3.64807e-12
-5.36546e-12
-1.26474e-11
-1.82217e-11
-1.80063e-11
-8.90864e-12
-7.62635e-12
-1.27421e-11
-1.78962e-11
-2.78222e-12
8.30837e-12
-2.15583e-11
-6.46491e-11
-1.1334e-11
1.41322e-11
1.48295e-12
-3.00491e-11
-2.34344e-11
1.15923e-11
7.42568e-12
-2.61354e-12
-8.35024e-12
-1.45256e-11
-1.6003e-11
-1.56287e-11
-8.94624e-12
-1.41561e-11
-6.06241e-12
7.40627e-12
1.29976e-11
-1.37549e-11
-8.2911e-11
-3.86022e-11
-6.62281e-12
-1.44223e-11
-2.63548e-11
1.46828e-11
3.18159e-11
1.05696e-11
-1.62152e-13
-4.84417e-12
-7.98893e-12
-1.07383e-11
-2.92751e-11
-2.4037e-11
-1.8205e-11
-4.56856e-12
2.06051e-11
6.36783e-11
5.1173e-12
-7.08016e-11
-5.69259e-11
-3.21628e-11
-2.4824e-11
-9.99909e-13
5.15191e-11
3.71404e-11
1.10606e-11
-1.21891e-13
-5.47759e-12
1.10263e-12
2.03124e-13
-2.20778e-11
-2.01963e-11
4.60545e-12
4.32305e-11
9.14278e-11
1.95533e-10
1.66535e-11
-4.7421e-11
-5.77362e-11
-4.47602e-11
-2.0123e-11
2.8959e-11
5.37102e-11
2.23032e-11
6.07572e-12
-2.95552e-12
-9.80131e-12
-3.94073e-12
1.02802e-11
5.16134e-12
2.41905e-12
1.21068e-11
-4.94744e-12
-4.92238e-11
-3.50032e-11
2.15142e-11
-2.92221e-11
-4.81704e-11
-4.20552e-11
-8.58061e-12
2.99472e-11
1.10829e-11
-3.11606e-12
-3.3385e-12
-6.46268e-12
-1.24478e-11
-7.64564e-12
9.75613e-12
1.39507e-11
8.36717e-12
-1.85685e-12
-2.17506e-11
-2.03584e-11
-2.35595e-11
2.79552e-11
-1.09656e-11
-3.19254e-11
-2.82056e-11
-2.34862e-12
-3.2134e-13
-2.50275e-11
-2.1275e-11
-1.34946e-11
-1.23181e-11
-1.5393e-11
-1.25704e-11
7.30092e-13
5.88755e-12
-1.27766e-12
-1.50975e-11
-2.30051e-11
-1.19577e-11
-4.74661e-12
3.14178e-11
6.04833e-12
-1.455e-11
-1.41635e-11
-4.51719e-12
-1.85134e-11
-2.56848e-11
-2.23237e-11
-1.92478e-11
-1.85383e-11
-1.7864e-11
-1.53961e-11
-1.55191e-11
-7.89871e-12
-1.18733e-11
-1.97953e-11
-2.1044e-11
-2.21007e-11
-1.71861e-11
2.69158e-11
1.46851e-11
-2.48033e-12
-6.6978e-12
-7.77435e-12
-1.58721e-11
-1.41662e-11
-1.65317e-11
-1.97432e-11
-2.16157e-11
-1.88516e-11
-1.4862e-11
-2.40561e-11
-2.11405e-11
-2.09923e-11
-2.1836e-11
-2.36028e-11
-2.15754e-11
-1.13229e-11
1.87789e-11
1.54908e-11
2.07679e-12
-4.52363e-12
-8.30831e-12
-9.42265e-12
-8.6269e-12
-1.25657e-11
-1.72168e-11
-2.03525e-11
-1.81486e-11
-1.36584e-11
-2.10487e-11
-2.92215e-11
-2.97132e-11
-2.63519e-11
-3.38539e-11
-2.07009e-11
-8.70804e-12
1.12422e-11
1.02385e-11
2.80568e-12
-4.14653e-12
-7.25197e-12
-6.88629e-12
-7.33563e-12
-9.95241e-12
-1.35613e-11
-1.81331e-11
-1.72161e-11
-1.29035e-11
-1.50926e-11
-2.77029e-11
-3.407e-11
-3.22902e-11
-2.861e-11
-1.57427e-11
-7.30591e-12
9.27609e-12
5.76268e-12
3.52822e-12
-2.7752e-12
-5.53122e-12
-6.27909e-12
-6.7222e-12
-8.57418e-12
-1.20416e-11
-1.70816e-11
-1.69101e-11
-1.21434e-11
-1.24342e-11
-2.00918e-11
-2.85666e-11
-3.01911e-11
-2.06765e-11
-1.1454e-11
-7.24808e-12
9.46013e-12
3.81329e-12
6.25271e-12
8.31586e-13
-3.99077e-12
-6.14607e-12
-6.16974e-12
-7.61075e-12
-1.11961e-11
-1.66474e-11
-1.64492e-11
-1.18368e-11
-1.08365e-11
-1.29597e-11
-1.73359e-11
-1.88453e-11
-1.32023e-11
-9.43071e-12
-7.00337e-12
1.41663e-12
4.83023e-12
1.02183e-12
9.77471e-13
5.83506e-12
1.69055e-12
1.79506e-12
9.57561e-13
8.00693e-12
2.18513e-12
2.46122e-12
8.51318e-12
3.79724e-13
-4.90786e-13
-3.71779e-12
-1.20895e-12
-1.65739e-12
-8.12054e-12
-1.85043e-12
-1.69544e-12
-4.44994e-13
-1.39199e-13
-2.64208e-14
7.74709e-14
1.38253e-13
2.76517e-13
5.60777e-13
4.25708e-13
4.79155e-13
5.26639e-13
5.72732e-13
6.24135e-13
6.89379e-13
7.56673e-13
8.52312e-13
9.87793e-13
1.12237e-12
1.40409e-12
1.35415e-12
1.04685e-12
2.19088e-11
2.90216e-12
2.90868e-12
3.09916e-12
2.15276e-12
-1.03188e-12
-4.72458e-13
-2.96125e-12
-3.89205e-10
-7.93689e-11
-4.98136e-11
-1.06474e-10
-5.54373e-12
-4.52251e-12
-1.6321e-12
-9.94037e-12
-1.88614e-12
-1.7358e-12
-1.92807e-12
-1.53604e-11
-7.43298e-13
-9.76177e-13
-1.22483e-12
-1.11246e-12
-9.39493e-13
-8.12593e-13
-7.11726e-13
-6.36553e-13
-5.67539e-13
-5.09941e-13
-4.55299e-13
-3.91271e-13
-3.3363e-13
4.34532e-12
-1.26511e-13
2.44151e-14
7.47314e-14
1.58431e-13
2.6378e-13
5.90713e-13
2.61308e-12
2.702e-12
1.18055e-11
6.28562e-13
9.50802e-14
-1.48352e-12
-7.22606e-13
-1.71827e-12
-4.15394e-12
-1.86934e-13
1.9533e-12
1.37792e-12
-2.8387e-12
-3.27897e-12
-3.07028e-12
-4.71217e-12
4.4879e-13
1.07725e-12
1.07663e-11
3.97747e-12
-5.33798e-12
-1.08065e-11
-1.09259e-12
-5.76087e-12
-7.88067e-12
-6.91915e-12
-1.03702e-11
-6.5934e-12
1.92025e-12
7.29765e-12
8.85047e-12
8.71268e-12
5.71044e-12
2.71384e-12
5.12362e-12
1.13959e-11
1.83513e-11
2.279e-11
3.00288e-11
-1.85682e-11
-1.19121e-11
3.9376e-12
-5.71211e-12
-7.79257e-12
-6.11747e-12
-2.10367e-12
1.03943e-11
1.88737e-11
2.01025e-11
1.81242e-11
1.39657e-11
5.14154e-12
2.32508e-12
4.81707e-12
1.08912e-11
1.76124e-11
2.14692e-11
3.27044e-11
-2.85703e-11
-6.23642e-12
1.03082e-11
-4.01084e-12
-8.20103e-12
-3.84615e-12
1.08374e-11
2.76483e-11
3.44213e-11
3.17014e-11
2.55165e-11
1.81849e-11
5.58367e-12
2.05334e-12
4.51053e-12
9.9659e-12
1.6093e-11
1.91377e-11
3.03899e-11
-2.84937e-11
5.00245e-12
1.35972e-11
-1.87338e-12
-8.80567e-12
7.87441e-14
2.54595e-11
4.43914e-11
4.8522e-11
4.06489e-11
3.06772e-11
2.20743e-11
8.119e-12
1.77838e-12
4.02911e-12
9.10619e-12
1.47335e-11
1.702e-11
2.60686e-11
-1.93362e-11
1.66799e-11
1.42163e-11
-9.66688e-13
-9.0212e-12
5.39433e-12
4.15077e-11
5.55808e-11
5.04079e-11
3.70503e-11
2.9899e-11
2.3512e-11
1.10339e-11
-1.13822e-13
3.95212e-12
8.83182e-12
1.31729e-11
1.51461e-11
2.2611e-11
-5.15997e-12
2.65871e-11
1.0879e-11
-1.59401e-12
-8.55085e-12
1.10891e-11
5.09814e-11
5.29546e-11
3.41518e-11
2.30905e-11
2.39085e-11
2.31434e-11
1.36498e-11