/*--------------------------------*- C++ -*----------------------------------*\
| =========                 |                                                 |
| \\      /  F ield         | OpenFOAM: The Open Source CFD Toolbox           |
|  \\    /   O peration     | Version:  4.1                                   |
|   \\  /    A nd           | Web:      www.OpenFOAM.org                      |
|    \\/     M anipulation  |                                                 |
\*---------------------------------------------------------------------------*/
FoamFile
{
    version     2.0;
    format      ascii;
    class       volVectorField;
    location    "27";
    object      U;
}
// * * * * * * * * * * * * * * * * * * * * * * * * * * * * * * * * * * * * * //

dimensions      [0 1 -1 0 0 0 0];

internalField   nonuniform List<vector> 
1280
(
(-1.02376e-15 -1.91771 -2.769)
(-8.20945e-16 -0.581507 -2.66987)
(-7.3845e-16 -1.02839 -1.80241)
(-7.06393e-16 -0.544738 -1.94857)
(-9.91725e-16 0.172969 -2.45071)
(-1.22171e-15 0.147647 -1.64)
(-1.29725e-15 0.589153 -1.8428)
(-6.46659e-16 0.665351 -1.90419)
(-1.46455e-15 1.59777 -2.56008)
(-1.60262e-15 1.51951 -1.84528)
(-1.7903e-15 1.79895 -1.67042)
(-1.34388e-15 2.68685 -2.50824)
(-2.66443e-16 2.5341 -1.87361)
(3.54678e-16 2.86136 -1.77624)
(6.3105e-16 3.88314 -2.67943)
(8.73674e-16 3.30984 -2.11116)
(1.19775e-15 4.00379 -1.90421)
(1.38016e-15 3.64704 -3.20029)
(1.32981e-15 5.11454 -1.17908)
(1.22525e-15 2.84638 -5.37996)
(1.82562e-15 4.78196 2.87272)
(5.71075e-16 4.86335 7.58953)
(1.08393e-16 4.83515 8.88785)
(-3.17829e-16 5.31285 9.30951)
(-5.67194e-16 5.30073 9.42625)
(-1.13443e-15 5.71535 10.5505)
(-1.18214e-16 4.65908 7.99725)
(-1.74649e-15 8.39264 12.8415)
(-1.96576e-15 8.59894 12.9016)
(-2.16057e-15 8.60185 12.9968)
(-2.34967e-15 8.65628 13.0641)
(-2.56055e-15 8.64346 13.1005)
(-2.82822e-15 8.66619 13.0483)
(-3.1043e-15 8.58161 12.9749)
(-3.49666e-15 8.59428 12.7979)
(-4.05248e-15 8.4241 12.6426)
(-4.6046e-15 8.45492 12.475)
(-5.76039e-15 8.18388 12.4116)
(-5.55549e-15 8.20817 12.7377)
(-4.29475e-15 8.04859 13.8884)
(-3.81354e-15 8.86536 14.2646)
(-2.33105e-15 5.64786 9.35602)
(-2.33629e-15 4.57093 9.18826)
(-2.45374e-15 3.52031 9.19868)
(-4.79895e-17 1.575 8.73057)
(8.2882e-16 0.81584 4.88241)
(3.79484e-16 -0.147259 2.63428)
(2.37852e-15 0.266127 0.635047)
(6.74378e-14 -0.0672178 -4.52651)
(6.37501e-14 -0.480882 -4.0255)
(4.00109e-14 0.492004 -3.52453)
(1.85333e-14 0.325202 -5.29145)
(4.45279e-15 -0.0789668 1.24304)
(3.63254e-15 0.450962 3.2813)
(1.31093e-15 -0.781577 5.40757)
(1.73026e-15 -1.17074 8.84016)
(1.55167e-15 -3.34471 9.5378)
(1.39422e-15 -4.34789 9.49258)
(1.54865e-15 -5.55247 9.64339)
(2.66481e-15 -8.93423 14.6662)
(3.04943e-15 -7.69899 14.574)
(4.00483e-15 -7.91415 13.5568)
(5.02495e-15 -7.80003 12.806)
(4.56395e-15 -8.13206 12.7662)
(3.85433e-15 -8.09427 12.9692)
(3.33372e-15 -8.30829 13.171)
(2.9199e-15 -8.30705 13.4288)
(2.6115e-15 -8.43185 13.5924)
(2.32836e-15 -8.42922 13.7441)
(2.09207e-15 -8.48837 13.8274)
(1.86789e-15 -8.45724 13.8971)
(1.60522e-15 -8.45827 13.8875)
(1.36874e-15 -8.33227 13.7801)
(-9.1601e-16 -4.08732 8.35429)
(5.19019e-16 -4.64453 10.9351)
(-1.00164e-16 -4.35933 10.111)
(-3.0659e-16 -4.33276 9.34145)
(-6.49974e-16 -3.88403 8.16932)
(-1.08217e-15 -4.12408 6.81848)
(-2.42344e-15 -3.90007 0.86469)
(-1.88841e-15 -2.42761 -6.37539)
(-1.95267e-15 -3.96583 -2.85774)
(-2.00646e-15 -1.70067 -4.94889)
(-4.54246e-16 -2.1054 -2.09509)
(-6.8712e-17 -1.38629 -2.74945)
(6.22706e-16 -0.935398 -3.55084)
(5.22209e-16 -0.409283 -1.69423)
(1.24175e-15 -0.0891975 -2.05417)
(1.31916e-15 0.538991 -2.87085)
(1.35092e-16 0.789269 -1.8005)
(-1.4116e-15 1.04848 -1.43343)
(5.16664e-16 1.78426 -1.99621)
(2.13964e-15 1.67305 -1.47486)
(2.36963e-15 2.07948 -1.51275)
(2.21881e-15 2.09053 -1.37884)
(8.00879e-16 3.01551 -2.0321)
(-3.24329e-16 2.7626 -1.45482)
(-7.70191e-16 3.11873 -1.27334)
(-1.84345e-15 3.42831 -1.90524)
(-2.87442e-15 3.87386 -1.99248)
(5.93109e-16 3.98653 1.64121)
(1.20073e-15 2.4199 0.414721)
(1.21399e-16 -1.7645 1.52418)
(6.40097e-16 -3.72539 1.96508)
(8.75631e-16 -2.7746 2.53402)
(7.68794e-16 1.39668 2.6302)
(1.15224e-15 3.50113 3.65186)
(7.326e-16 3.93628 5.21111)
(-2.13361e-16 4.81092 6.34095)
(-8.1085e-16 6.37736 6.96891)
(-9.83385e-16 7.32636 6.79243)
(-9.68076e-16 4.40971 4.58671)
(-6.34494e-16 -3.83785 -0.229435)
(-3.01538e-16 -9.24503 -1.70192)
(-5.69291e-16 -8.87441 -2.58018)
(-1.26621e-15 -6.70074 -3.07164)
(-2.03904e-15 -3.55859 -3.20921)
(-2.53222e-15 -0.816703 -3.17822)
(-3.33653e-15 1.82396 -3.21046)
(2.06314e-15 4.38158 1.2817)
(1.32357e-15 2.52535 0.734122)
(-4.37512e-16 -2.21087 1.94291)
(6.34679e-16 -4.05196 2.25552)
(8.65841e-16 -2.8041 2.88313)
(6.79719e-16 0.933244 3.44814)
(2.33741e-16 2.62373 5.37392)
(-1.15492e-15 3.06367 6.9973)
(-2.09707e-15 4.27992 7.85162)
(-2.23362e-15 6.25364 8.28775)
(-2.0138e-15 8.10452 8.03605)
(-1.55174e-15 6.74196 5.97796)
(-5.71282e-16 -2.09945 0.448256)
(-2.58342e-16 -8.69184 -1.52796)
(-5.35229e-16 -8.5088 -2.33217)
(-1.21013e-15 -6.52441 -2.96275)
(-1.95694e-15 -3.49165 -3.18821)
(-2.38546e-15 -0.8403 -3.36266)
(-3.63382e-15 1.39952 -2.91465)
(3.17448e-15 4.30509 1.31801)
(6.92935e-16 2.14712 1.69084)
(-1.14536e-15 -2.46054 2.88351)
(4.45649e-16 -4.22053 2.7347)
(9.11225e-16 -3.09163 3.43739)
(4.27351e-16 0.268734 4.47368)
(-1.20416e-15 2.06683 6.50938)
(-3.07203e-15 2.80516 7.49177)
(-3.82459e-15 4.21282 7.79935)
(-3.52237e-15 6.26762 7.80073)
(-2.83516e-15 8.3912 7.41831)
(-2.02055e-15 7.75174 6.24094)
(-6.20408e-16 -0.659874 2.30646)
(-2.28149e-16 -7.98942 -1.28113)
(-5.0117e-16 -8.16556 -1.90696)
(-1.10732e-15 -6.33851 -2.73029)
(-1.78812e-15 -3.37545 -3.11957)
(-2.12641e-15 -0.880203 -3.5348)
(-3.37665e-15 1.13026 -3.09635)
(3.16596e-15 4.2277 1.70439)
(-5.55828e-16 1.80884 2.77774)
(-1.5108e-15 -2.59614 3.87635)
(2.08153e-16 -4.30399 3.43937)
(9.78407e-16 -3.39756 4.02485)
(-8.74934e-18 -0.410641 5.30761)
(-2.82883e-15 1.51979 7.19198)
(-4.93237e-15 2.58663 7.52446)
(-5.39133e-15 4.21384 7.23254)
(-4.51654e-15 6.3885 6.74936)
(-3.40858e-15 8.69472 6.27817)
(-2.45269e-15 8.62764 5.93832)
(-9.02111e-16 0.934163 3.70014)
(-1.97598e-16 -7.10994 -0.860925)
(-4.47679e-16 -7.85325 -1.2148)
(-1.0118e-15 -6.08523 -2.26962)
(-1.63705e-15 -3.1391 -2.90729)
(-1.89111e-15 -0.923496 -3.63904)
(-2.89651e-15 0.72022 -3.57622)
(2.14847e-15 3.92213 2.26394)
(-1.85332e-15 1.2565 3.98332)
(-1.57958e-15 -2.69184 4.86297)
(1.0741e-16 -4.3129 4.26947)
(1.00236e-15 -3.71487 4.59717)
(-5.9937e-16 -1.07791 5.88702)
(-4.61196e-15 1.23078 7.33996)
(-6.17564e-15 2.72341 7.02887)
(-5.60088e-15 4.50828 6.23108)
(-4.1167e-15 6.62441 5.43908)
(-3.32212e-15 8.74551 5.09952)
(-2.61244e-15 8.84104 5.37518)
(-1.22599e-15 2.18467 4.72477)
(1.26469e-17 -6.14806 0.107103)
(-4.39124e-16 -7.50739 -0.15934)
(-9.81313e-16 -5.72497 -1.51787)
(-1.46365e-15 -2.77398 -2.51075)
(-1.6829e-15 -0.516699 -3.60557)
(-2.51234e-15 0.628078 -4.38757)
(5.7333e-16 3.53366 3.01699)
(-2.95413e-15 0.710801 5.1421)
(-1.20878e-15 -2.70672 5.72559)
(1.77112e-16 -4.23109 5.0622)
(9.50094e-16 -3.96339 5.13526)
(-1.23213e-15 -1.60284 6.19578)
(-5.6646e-15 1.14329 7.08173)
(-5.88384e-15 2.99774 6.42931)
(-3.79465e-15 4.86685 5.56332)
(-2.56561e-15 6.839 4.9132)
(-2.6565e-15 8.70882 4.70556)
(-2.57149e-15 8.78375 5.04148)
(-1.51665e-15 3.01783 5.52744)
(3.66432e-16 -5.26186 1.89684)
(-5.02002e-16 -7.09526 0.996664)
(-1.12424e-15 -5.18579 -0.48707)
(-1.67882e-15 -2.22333 -1.80538)
(-1.72527e-15 -0.44646 -3.08868)
(-2.96667e-15 0.615167 -5.70241)
(-9.29238e-16 3.0464 3.82405)
(-3.89621e-15 0.150928 6.08706)
(-6.19672e-16 -2.65496 6.35966)
(7.29281e-16 -4.09416 5.71577)
(8.5137e-16 -4.10942 5.6331)
(-1.9666e-15 -1.9403 6.36957)
(-5.57086e-15 1.18551 6.78179)
(-3.81545e-15 3.27953 6.09886)
(-1.15261e-15 5.11496 5.52395)
(-1.11424e-15 6.97475 5.16997)
(-1.89835e-15 8.70044 4.81698)
(-2.3646e-15 8.57099 4.96742)
(-1.88588e-15 3.36939 6.15952)
(-1.88811e-16 -4.37457 3.98878)
(-7.95499e-16 -6.47501 2.12814)
(-1.226e-15 -4.68283 0.920996)
(-1.76267e-15 -1.6058 -0.988942)
(-1.95772e-15 1.69508 -3.2524)
(-3.12169e-15 1.79464 -3.72561)
(-2.02713e-15 2.55844 4.52371)
(-5.03129e-15 -0.306541 6.64968)
(-1.32338e-16 -2.56386 6.72023)
(1.64524e-15 -3.95037 6.21168)
(8.40454e-16 -4.17825 6.10427)
(-2.6512e-15 -2.11913 6.55112)
(-4.60608e-15 1.2759 6.60164)
(-1.12231e-15 3.47978 5.97374)
(4.05341e-16 5.24729 5.61966)
(-5.96162e-16 7.13451 5.24945)
(-1.40527e-15 8.78301 4.76487)
(-2.02463e-15 8.29365 4.93766)
(-2.0007e-15 3.26849 6.45086)
(-9.89849e-16 -3.71304 5.58347)
(-8.47372e-16 -5.81373 3.33117)
(-1.41578e-15 -3.91759 2.04685)
(-1.98847e-15 -0.568469 -1.35621)
(-3.09136e-16 -0.357559 3.84734)
(9.23152e-16 -5.35664 9.76964)
(-2.39536e-15 2.10024 5.03957)
(-7.18324e-15 -0.674083 6.85662)
(-1.25933e-15 -2.4936 6.88449)
(1.57024e-15 -3.85138 6.62435)
(1.64772e-16 -4.21455 6.61665)
(-3.33879e-15 -2.1706 6.82364)
(-2.60382e-15 1.41928 6.44935)
(1.28803e-15 3.67089 5.72927)
(8.25076e-16 5.39911 5.34614)
(-2.90394e-16 7.32201 4.88379)
(-9.27804e-16 8.81467 4.58119)
(-1.61395e-15 7.96912 4.91847)
(-1.77811e-15 3.07965 6.45499)
(-1.73652e-15 -3.17197 5.7407)
(-9.94027e-16 -5.0251 3.76457)
(-1.57291e-15 -3.16956 3.03765)
(-6.73602e-16 -1.95861 6.12453)
(8.22919e-16 -2.19655 11.7689)
(1.44418e-15 -3.32454 12.3887)
(-1.52832e-15 1.71245 5.47714)
(-9.21233e-15 -0.967425 6.91463)
(-4.28913e-15 -2.49622 7.02248)
(-7.35868e-16 -3.84235 7.10189)
(-1.60248e-15 -4.24232 7.26346)
(-2.92832e-15 -2.05599 7.16705)
(1.71895e-15 1.71039 6.16082)
(3.53509e-15 3.93344 5.23161)
(1.1744e-15 5.57015 4.75442)
(-1.80169e-17 7.44311 4.4067)
(-5.38242e-16 8.74416 4.46969)
(-9.50978e-16 7.61139 5.01069)
(-1.19314e-15 2.96242 6.83189)
(-3.25279e-15 -2.58561 6.05858)
(-2.7849e-15 -4.76743 4.78784)
(-2.02278e-15 -4.51297 6.99433)
(-5.07617e-16 -4.06078 11.561)
(2.28945e-15 -3.05088 11.5398)
(7.07536e-15 -2.65742 6.3568)
(5.68589e-16 1.3955 5.98356)
(-7.86684e-15 -1.20813 7.12541)
(-6.3251e-15 -2.59954 7.34997)
(-3.57364e-15 -3.94289 7.7701)
(-2.75822e-15 -4.23731 8.02697)
(-1.11101e-16 -1.70746 7.40133)
(5.64113e-15 2.17258 5.61069)
(4.12671e-15 4.25618 4.52306)
(1.22896e-15 5.71296 3.99304)
(-1.35434e-17 7.448 3.89323)
(-6.08621e-16 8.54506 4.34387)
(1.22514e-16 7.10732 5.12197)
(2.25693e-17 2.57667 7.58551)
(-2.45308e-15 -2.38333 7.99859)
(-2.24404e-15 -5.29467 7.5506)
(5.11716e-16 -5.83317 10.4635)
(4.80339e-15 -3.98437 12.6102)
(1.01586e-14 -0.0790368 10.018)
(2.17259e-14 2.78672 6.41987)
(1.85039e-15 1.11278 6.55845)
(-5.269e-15 -1.43883 7.60775)
(-6.41513e-15 -2.7892 7.93435)
(-4.97335e-15 -4.10373 8.58309)
(-2.23588e-15 -4.10496 8.71553)
(3.21767e-15 -1.04963 7.2763)
(5.9678e-15 2.81441 4.77584)
(2.47813e-15 4.61119 3.66179)
(6.7508e-16 5.80064 3.16026)
(-3.28391e-16 7.31608 3.31287)
(-1.08903e-15 8.20996 4.08399)
(-4.37858e-16 6.41305 5.01527)
(1.14225e-15 1.71254 8.11)
(5.73483e-16 -2.6225 9.96124)
(2.68783e-16 -5.81585 10.4414)
(1.34519e-15 -6.64298 12.8531)
(-5.49716e-16 -4.18475 14.6767)
(-5.46931e-15 0.136359 14.375)
(-3.88924e-15 3.52026 12.4351)
(2.39046e-15 0.83172 7.02278)
(-3.2469e-15 -1.67666 8.16054)
(-5.35227e-15 -3.02944 8.58805)
(-4.6728e-15 -4.24692 9.3132)
(-9.53401e-16 -3.74027 9.06585)
(3.32746e-15 -0.0496124 6.58733)
(1.23143e-15 3.56646 3.75202)
(-3.46229e-16 4.93875 2.83935)
(-3.70944e-16 5.82933 2.45994)
(-7.18076e-16 7.09106 2.72391)
(-1.38309e-15 7.79916 3.67704)
(-8.49516e-16 5.57943 4.56825)
(1.08401e-15 0.4673 8.13464)
(1.55008e-15 -3.30454 10.6541)
(9.29685e-16 -6.41392 11.6729)
(-2.06317e-16 -7.32258 13.1322)
(-2.41673e-15 -4.24378 12.9374)
(-2.26205e-15 1.05841 9.96515)
(-2.61772e-15 5.88745 10.5862)
(3.10613e-15 0.511192 7.22058)
(-1.2184e-15 -1.98839 8.48049)
(-3.54726e-15 -3.28631 9.02689)
(-3.13395e-15 -4.282 9.72186)
(-2.60957e-16 -3.04544 8.84504)
(-3.57044e-17 1.17189 5.26765)
(-2.78083e-15 4.26815 2.77474)
(-2.36389e-15 5.15373 2.31636)
(-1.4994e-15 5.82882 2.06426)
(-1.36868e-15 6.848 2.24759)
(-1.71033e-15 7.3971 3.19702)
(-1.39671e-15 4.75103 3.77395)
(8.11213e-17 -0.836682 7.1914)
(6.54172e-16 -4.07293 9.95103)
(-1.41963e-16 -6.79679 10.9196)
(-1.6775e-15 -7.19046 11.2094)
(-2.55612e-15 -3.35643 8.36384)
(-1.32863e-15 0.736049 2.35707)
(-5.27401e-16 1.28994 0.660886)
(3.49087e-15 0.209819 7.09894)
(6.72037e-16 -2.30786 8.44802)
(-1.61667e-15 -3.55236 9.12243)
(-1.57372e-15 -4.17097 9.69485)
(-5.0191e-16 -1.99896 7.99661)
(-2.05704e-15 2.36064 3.83205)
(-2.85387e-15 4.73957 2.25606)
(-2.48041e-15 5.23403 2.15406)
(-2.13864e-15 5.84325 1.91244)
(-2.05981e-15 6.66031 1.92733)
(-1.98488e-15 7.08753 2.6612)
(-1.71068e-15 4.14741 2.8211)
(-1.72434e-15 -2.00319 5.09584)
(-8.77635e-16 -4.79781 8.05981)
(-1.31925e-15 -6.89122 8.66891)
(-2.19947e-15 -6.32893 8.11309)
(-2.33822e-15 -0.948832 4.56856)
(-2.45563e-15 3.46163 0.692712)
(-1.90957e-15 3.27626 -1.16762)
(2.99064e-15 -0.155222 6.75512)
(1.63168e-15 -2.73792 8.13256)
(-2.75592e-16 -3.79824 8.87908)
(-7.442e-16 -3.83362 9.23669)
(-8.63816e-16 -0.674929 6.69503)
(-1.76357e-15 3.38139 2.80385)
(-1.57402e-15 4.96957 2.2079)
(-1.83685e-15 5.29219 2.08366)
(-2.19369e-15 5.9021 1.76)
(-2.40174e-15 6.56916 1.64041)
(-2.09463e-15 6.91157 2.03343)
(-1.65133e-15 3.99533 1.93886)
(-2.6729e-15 -2.93687 2.35385)
(-2.34895e-15 -5.43979 5.39027)
(-2.33248e-15 -6.75263 5.73207)
(-2.42623e-15 -5.48809 4.84518)
(-2.62253e-15 -0.0383119 1.6238)
(-2.39727e-15 3.69483 -1.70493)
(-1.2581e-15 3.53711 -1.98891)
(2.08654e-15 -0.397987 6.23526)
(1.7212e-15 -3.0783 7.75842)
(2.30754e-16 -4.00936 8.55177)
(-5.02626e-16 -3.34797 8.44554)
(-9.23145e-16 0.68868 5.1452)
(-1.04696e-15 4.10793 2.30539)
(-9.58545e-16 5.06561 2.30614)
(-1.39619e-15 5.41678 1.92957)
(-1.91298e-15 6.01579 1.50834)
(-2.26139e-15 6.57461 1.27085)
(-2.01651e-15 6.84459 1.37672)
(-1.5176e-15 4.26547 1.20206)
(-2.33875e-15 -3.55119 0.0709081)
(-3.24683e-15 -6.12523 2.21866)
(-3.30147e-15 -6.60805 2.66261)
(-2.92799e-15 -4.68225 1.78871)
(-3.76155e-15 1.19588 -1.58361)
(-2.3001e-15 4.58287 -3.55582)
(-9.6756e-16 3.74539 -2.9034)
(1.24913e-15 -0.888703 5.74082)
(1.13761e-15 -3.64369 7.38341)
(3.11742e-16 -4.06375 8.1594)
(-4.60726e-16 -2.47305 7.46976)
(-8.05775e-16 1.81306 3.86435)
(-7.65144e-16 4.49376 2.33113)
(-8.1507e-16 5.13437 2.34327)
(-1.10582e-15 5.59735 1.77031)
(-1.50681e-15 6.15497 1.29141)
(-2.01479e-15 6.63183 0.931531)
(-1.91291e-15 6.84302 0.827166)
(-1.43372e-15 4.65594 0.521761)
(-1.67695e-15 -3.38373 -0.911892)
(-3.0781e-15 -6.43524 -1.03833)
(-3.78555e-15 -6.4819 -0.773568)
(-3.5878e-15 -3.75298 -1.5938)
(-3.17888e-15 1.82176 -4.63412)
(-1.74919e-15 4.43725 -4.71202)
(-8.11768e-16 3.30892 -3.22904)
(1.03068e-15 -1.03477 5.07922)
(6.40297e-16 -3.96399 7.17456)
(3.92024e-16 -4.11064 8.05601)
(-3.08355e-16 -1.7612 6.48276)
(-6.1458e-16 2.69784 3.09841)
(-6.97676e-16 4.72961 2.59168)
(-7.46911e-16 5.30638 2.28275)
(-9.52687e-16 5.83547 1.68109)
(-1.33796e-15 6.34378 1.16723)
(-1.89795e-15 6.75075 0.705276)
(-1.8789e-15 6.90577 0.434483)
(-1.34926e-15 4.9632 -0.00711366)
(-1.38158e-15 -2.86317 -1.11327)
(-2.23242e-15 -6.25051 -2.984)
(-3.17406e-15 -6.43796 -3.65426)
(-3.35457e-15 -3.30748 -4.68491)
(-2.29739e-15 2.05433 -6.00677)
(-1.27267e-15 4.06694 -4.8478)
(-8.05342e-16 2.9173 -3.44196)
(1.05113e-15 -1.83156 4.98711)
(4.23699e-16 -4.86864 6.85447)
(6.94745e-16 -3.71455 7.53155)
(9.23985e-17 -0.171604 5.35687)
(-4.43419e-16 3.38832 3.23641)
(-6.82897e-16 4.93252 2.70834)
(-6.85527e-16 5.5632 2.2271)
(-8.45639e-16 6.11629 1.64994)
(-1.24402e-15 6.62415 1.09348)
(-1.84971e-15 7.00332 0.568228)
(-1.82769e-15 7.15176 0.20116)
(-1.3152e-15 5.44333 -0.2286)
(-1.20405e-15 -2.16121 -1.02043)
(-1.43997e-15 -5.21579 -3.07109)
(-1.92622e-15 -5.65094 -4.3537)
(-2.09393e-15 -2.73533 -5.43893)
(-1.46692e-15 1.88791 -5.60436)
(-1.04786e-15 3.41707 -4.55809)
(-7.78152e-16 2.26259 -3.77583)
(-2.21042e-17 14.1988 24.0224)
(-3.93333e-15 18.7428 31.4908)
(-3.8824e-15 16.5886 26.5748)
(-4.36058e-15 14.0877 22.3795)
(-4.56834e-15 13.3027 20.4804)
(-5.33265e-15 14.014 21.329)
(-5.00281e-15 13.3568 19.6978)
(-4.92653e-15 11.9821 17.5509)
(-5.19745e-15 11.0773 15.8838)
(-5.46542e-15 10.3903 14.8301)
(-5.8145e-15 9.87362 13.8671)
(-6.33323e-15 9.14837 12.885)
(-7.05892e-15 8.46478 11.7059)
(-7.87856e-15 7.47275 10.5158)
(-9.25919e-15 6.63476 9.0467)
(-1.11143e-14 5.35079 7.7501)
(-1.34969e-14 4.76319 6.50507)
(-1.64106e-14 3.71123 6.20196)
(-1.22006e-14 5.70399 8.53938)
(-6.3284e-15 6.62323 12.4122)
(5.77043e-17 14.2464 24.349)
(-3.64852e-15 16.9483 29.207)
(-2.72218e-15 14.2164 24.2846)
(-3.67822e-15 12.0485 20.7652)
(-3.80835e-15 11.7906 20.13)
(-5.02627e-15 12.736 21.6594)
(-4.09303e-15 10.8863 18.3176)
(-4.39722e-15 9.24527 15.7367)
(-4.78182e-15 8.80863 14.8091)
(-5.0076e-15 8.34453 14.1867)
(-5.48854e-15 7.90724 13.1322)
(-6.02465e-15 7.05792 11.9961)
(-6.89216e-15 6.45678 10.557)
(-7.73245e-15 5.40533 9.29871)
(-9.50596e-15 4.74312 7.53268)
(-1.14167e-14 3.444 6.1689)
(-1.37245e-14 3.34114 5.0397)
(-1.46905e-14 2.80585 5.45293)
(-9.56688e-15 5.26874 8.08319)
(-5.60174e-15 5.93781 11.1467)
(1.53837e-17 14.3696 25.2726)
(-1.67478e-15 17.4462 30.0152)
(-8.49324e-16 15.0154 25.9534)
(-1.32693e-15 12.831 21.9666)
(-1.5763e-15 12.3546 21.1223)
(-3.18763e-15 13.0848 22.2738)
(-1.99073e-15 11.135 18.8731)
(-2.06513e-15 9.87993 16.7729)
(-2.1907e-15 9.41167 15.7087)
(-2.29226e-15 8.77376 14.8266)
(-2.5357e-15 8.26754 13.643)
(-2.76682e-15 7.3888 12.5052)
(-3.23497e-15 6.81009 11.0669)
(-3.61972e-15 5.80926 9.88956)
(-4.34599e-15 5.2191 8.23198)
(-5.39477e-15 3.93696 6.7866)
(-6.53715e-15 3.76687 5.57528)
(-7.33362e-15 3.12573 5.69618)
(-4.84939e-15 5.2032 7.85444)
(-2.61535e-15 5.68206 10.6439)
(1.32284e-17 14.0292 24.8281)
(3.87804e-16 17.3896 29.6954)
(2.42876e-16 15.0091 26.1516)
(3.12468e-16 12.7719 21.7786)
(3.50185e-16 12.2854 21.1401)
(-2.24919e-15 13.0131 22.2319)
(-1.69638e-15 10.8871 18.5149)
(-2.15143e-15 9.63301 16.5011)
(-2.17673e-15 9.15003 15.3944)
(-2.18083e-15 8.45097 14.5225)
(-2.5008e-15 7.97971 13.2813)
(-2.8299e-15 7.04362 12.1542)
(-3.09628e-15 6.48442 10.6186)
(-3.68953e-15 5.40943 9.42854)
(-4.42278e-15 4.86512 7.7413)
(-5.65913e-15 3.48819 6.24083)
(-6.86144e-15 3.34023 4.92506)
(-6.94466e-15 2.77153 5.2156)
(-4.15301e-15 4.87339 7.34682)
(-2.74239e-15 5.08936 9.55941)
(-3.01468e-18 13.9495 24.9599)
(-8.75126e-17 17.5596 29.7443)
(-6.15737e-17 15.3017 26.9297)
(-6.80804e-17 13.083 22.1779)
(-8.26335e-17 12.4486 21.5107)
(5.01613e-16 13.133 22.52)
(4.39233e-16 10.9917 18.6888)
(4.79822e-16 9.74855 16.7884)
(5.12823e-16 9.31519 15.6389)
(5.368e-16 8.57519 14.7811)
(5.83261e-16 8.13227 13.5124)
(6.40935e-16 7.18603 12.3923)
(7.48535e-16 6.63376 10.8555)
(8.36729e-16 5.56352 9.63684)
(1.01369e-15 5.07662 8.08104)
(1.21556e-15 3.82128 6.72593)
(1.45905e-15 3.66849 5.42118)
(1.75023e-15 3.0299 5.47664)
(1.13422e-15 4.6999 6.99409)
(6.14568e-16 4.62044 8.69736)
(6.35023e-19 13.8289 24.8872)
(2.07455e-17 17.6851 29.6698)
(1.47686e-17 15.5001 27.4752)
(1.52578e-17 13.2996 22.2868)
(2.01645e-17 12.5321 21.6073)
(-1.11077e-16 13.1776 22.6066)
(-1.05924e-16 11.092 18.656)
(-1.09688e-16 9.77312 16.8289)
(-1.17861e-16 9.40892 15.6288)
(-1.24324e-16 8.6196 14.7621)
(-1.33879e-16 8.17676 13.4674)
(-1.46036e-16 7.2318 12.3015)
(-1.69458e-16 6.63028 10.7666)
(-1.88707e-16 5.56966 9.44495)
(-2.25524e-16 5.00824 7.89936)
(-2.62545e-16 3.86313 6.62863)
(-3.1707e-16 3.6093 5.32008)
(-4.09402e-16 2.90467 5.14218)
(-2.99776e-16 4.22056 6.23879)
(-2.23173e-16 3.97716 7.50539)
(-1.51383e-19 13.848 25.0584)
(-5.03562e-18 17.9233 29.8136)
(-3.49202e-18 15.6733 28.0778)
(-3.54169e-18 13.565 22.4691)
(-4.87459e-18 12.6777 21.8921)
(2.45396e-17 13.2478 22.8589)
(2.48865e-17 11.2616 18.7713)
(2.48779e-17 9.8863 17.1112)
(2.67819e-17 9.62118 15.8767)
(2.81927e-17 8.78136 14.9742)
(3.02323e-17 8.32384 13.6584)
(3.2614e-17 7.40226 12.4267)
(3.7507e-17 6.73932 10.9127)
(4.21375e-17 5.73234 9.50887)
(4.9665e-17 5.0733 7.95943)
(5.75221e-17 4.05517 6.72777)
(7.11684e-17 3.70585 5.46462)
(9.86192e-17 2.90377 4.96657)
(8.18914e-17 3.78007 5.50031)
(6.11523e-17 3.40247 6.44977)
(3.59982e-20 13.9313 25.2313)
(1.19679e-18 18.2276 30.0647)
(8.32327e-19 15.7584 28.5262)
(8.37874e-19 13.8841 22.6477)
(1.18402e-18 12.8323 22.1246)
(-5.27381e-18 13.2884 23.0326)
(-5.70081e-18 11.4838 18.8814)
(-5.61698e-18 10.0607 17.4066)
(-6.0426e-18 9.87057 16.15)
(-6.35338e-18 9.00111 15.1682)
(-6.75726e-18 8.48417 13.835)
(-7.22452e-18 7.60559 12.5101)
(-8.23801e-18 6.85088 10.992)
(-9.41413e-18 5.88873 9.48253)
(-1.09934e-17 5.10346 7.89051)
(-1.29565e-17 4.12854 6.54865)
(-1.63862e-17 3.58993 5.19592)
(-2.38225e-17 2.6667 4.34667)
(-2.3649e-17 3.20425 4.51063)
(-1.65675e-17 2.73449 5.17427)
(-7.33933e-21 14.2387 25.7114)
(-2.78823e-19 18.5719 30.3753)
(-1.99866e-19 15.7242 28.8398)
(-1.99408e-19 14.3235 23.0204)
(-2.89077e-19 13.0241 22.4421)
(1.1167e-18 13.3072 23.1964)
(1.29356e-18 11.7468 19.1273)
(1.27526e-18 10.3636 17.8428)
(1.36412e-18 10.147 16.5864)
(1.43807e-18 9.31929 15.4692)
(1.51376e-18 8.69035 14.147)
(1.60498e-18 7.88567 12.7243)
(1.80664e-18 7.03707 11.191)
(2.08553e-18 6.10779 9.56295)
(2.41366e-18 5.21406 7.91262)
(2.89362e-18 4.25309 6.40025)
(3.67785e-18 3.49322 4.87991)
(5.27524e-18 2.48365 3.65584)
(6.99756e-18 2.58354 3.39068)
(6.2804e-18 1.97013 3.52876)
(1.18108e-21 14.827 26.6129)
(6.45117e-20 18.7822 30.5077)
(4.80695e-20 15.5657 28.9418)
(4.69016e-20 14.8946 23.6889)
(6.93804e-20 13.2582 22.8066)
(-2.28685e-19 13.3424 23.2028)
(-2.84345e-19 12.0123 19.6385)
(-2.89951e-19 10.8461 18.3542)
(-3.08156e-19 10.3944 17.122)
(-3.26356e-19 9.721 15.8179)
(-3.40742e-19 8.93054 14.5469)
(-3.59587e-19 8.23803 13.0435)
(-4.00458e-19 7.30916 11.5103)
(-4.62966e-19 6.41928 9.78199)
(-5.298e-19 5.44053 8.05789)
(-6.27459e-19 4.46079 6.3172)
(-8.1454e-19 3.425 4.48244)
(-1.08377e-18 2.29415 2.78113)
(-1.5211e-18 1.73604 1.84698)
(-2.56577e-18 0.878536 0.889264)
(-1.35567e-22 15.5591 27.8726)
(-1.49639e-20 18.7034 30.3674)
(-1.16402e-20 15.4087 28.7318)
(-1.09246e-20 15.4573 24.7841)
(-1.70737e-20 13.4574 23.3854)
(4.66659e-20 13.3954 22.8619)
(6.28893e-20 12.146 20.4807)
(6.66186e-20 11.4704 18.922)
(7.04432e-20 10.5154 17.7762)
(7.49789e-20 10.1224 16.2756)
(7.8052e-20 9.14298 15.0895)
(8.09209e-20 8.59196 13.5452)
(8.59882e-20 7.59792 12.0567)
(9.40631e-20 6.77602 10.3084)
(1.07136e-19 5.74571 8.55101)
(1.33929e-19 4.69984 6.62015)
(1.02595e-19 3.34135 4.27242)
(1.81408e-19 1.86764 2.02926)
(2.5174e-19 0.505522 0.184198)
(-2.33072e-18 -1.53473 -3.08046)
(8.53956e-24 16.0645 29.1275)
(3.50802e-21 18.2887 29.9414)
(2.76395e-21 15.4231 27.9199)
(2.38993e-21 15.4846 25.7504)
(3.3013e-21 13.5387 24.2141)
(-1.00829e-20 13.5105 22.1161)
(-1.35389e-20 11.8807 21.2848)
(-1.49514e-20 11.8304 19.3565)
(-1.56782e-20 10.4317 18.2571)
(-1.63578e-20 10.2001 16.6825)
(-1.72098e-20 9.08097 15.5134)
(-1.97561e-20 8.57308 13.9442)
(-2.55926e-20 7.46981 12.4447)
(-3.3521e-20 6.62206 10.6583)
(-3.65349e-20 5.42287 8.79473)
(-4.67214e-20 4.15491 6.58896)
(-1.8623e-19 2.17791 3.29635)
(-2.67686e-20 -0.583196 -1.01672)
(-5.55252e-19 -2.19189 -3.27925)
(-1.46345e-18 -1.93775 -2.5329)
(-9.02193e-25 16.0803 29.8287)
(-8.34994e-22 18.042 29.1069)
(-6.50484e-22 14.9915 27.9564)
(-6.09827e-22 15.5498 25.5365)
(-7.81717e-22 13.4816 24.5867)
(2.37098e-21 13.4508 22.6029)
(3.65903e-21 11.8305 21.2706)
(4.35274e-21 11.5742 19.6263)
(5.2829e-21 10.3419 18.4504)
(5.9644e-21 9.91186 16.978)
(5.12934e-21 8.84467 15.671)
(4.31448e-22 8.11058 14.0344)
(-9.49928e-21 6.90711 12.2679)
(-1.97674e-20 5.80223 10.2592)
(-1.91978e-20 4.42553 8.13031)
(-1.46739e-20 2.93505 5.63253)
(-4.43905e-20 0.612344 1.83331)
(-2.23819e-19 -2.11168 -2.97997)
(-7.77651e-19 -2.21161 -3.16744)
(-2.45826e-18 1.29914 2.71079)
(8.73045e-25 15.9206 29.9)
(1.9496e-22 17.9795 28.6409)
(1.40638e-22 14.716 27.7483)
(1.22283e-22 15.5247 25.0607)
(1.62409e-22 13.1329 24.1397)
(-4.6082e-22 13.3068 22.2995)
(-5.80554e-22 11.7219 21.2185)
(-9.87849e-23 11.3832 19.4761)
(9.26056e-22 10.0648 18.1269)
(1.58869e-21 9.50203 16.7009)
(-4.06503e-22 8.49145 15.3476)
(-8.97363e-21 7.58972 13.6864)
(-2.56599e-20 6.41556 11.7876)
(-4.38224e-20 5.27365 9.71259)
(-4.86021e-20 4.00739 7.56042)
(-3.19254e-20 2.68927 5.22207)
(-8.94997e-21 1.14986 2.65483)
(-1.0983e-19 -0.470906 -0.51165)
(-4.72671e-19 -0.940548 -2.15337)
(4.16376e-20 0.833051 2.17826)
(-5.28185e-26 15.8716 30.2057)
(-4.52503e-23 18.3665 28.8055)
(-4.00248e-23 14.7842 27.9249)
(-4.43275e-23 15.8233 25.1021)
(-3.65616e-23 13.3233 24.2308)
(2.09487e-22 13.4581 21.9875)
(5.08747e-22 11.8552 20.7494)
(9.50516e-22 11.3856 19.0636)
(1.7127e-21 10.3494 17.7128)
(2.91649e-21 9.63641 16.2549)
(4.16592e-21 8.79579 14.881)
(4.83537e-21 8.0246 13.51)
(4.43157e-21 7.25776 12.1266)
(-4.95239e-21 6.34566 10.4348)
(-3.20159e-20 5.02024 8.06651)
(-4.4082e-20 3.64815 5.54639)
(-4.73955e-20 2.25385 3.08559)
(-5.79991e-20 1.26715 1.22719)
(-7.30021e-20 0.203512 -0.78581)
(-1.83011e-19 -0.109603 -1.28906)
(1.63115e-25 15.9644 31.02)
(9.08779e-24 18.7482 29.0303)
(2.71024e-24 14.9264 28.358)
(-5.22924e-25 16.1048 25.5781)
(1.98978e-23 13.7273 24.6924)
(6.32783e-23 13.8091 22.6441)
(2.55419e-22 12.4932 21.4)
(7.22924e-22 11.9972 19.8042)
(1.53237e-21 11.1567 18.454)
(2.54674e-21 10.5153 17.058)
(3.43609e-21 9.83415 15.7202)
(3.72747e-21 9.17232 14.3575)
(2.5659e-21 8.4485 12.9038)
(-5.52505e-22 7.56348 11.2117)
(-6.81838e-21 6.36715 9.07526)
(-2.06999e-20 4.75867 6.38647)
(-3.25657e-20 2.97569 3.79352)
(-4.79739e-20 1.338 1.35864)
(-1.73519e-20 -0.732149 -1.26676)
(-2.09977e-19 -1.51106 -4.29064)
(7.23551e-26 15.6498 31.3669)
(-2.94502e-24 18.5586 28.5269)
(-5.74542e-24 14.4918 28.2751)
(-7.42761e-24 15.7089 25.6012)
(1.07503e-23 13.3794 24.7303)
(1.08027e-22 13.3239 22.8424)
(3.79312e-22 12.0751 21.6386)
(9.80416e-22 11.5364 20.172)
(1.95701e-21 10.7172 18.9233)
(2.92871e-21 10.0917 17.6364)
(2.83335e-21 9.40996 16.3829)
(2.09536e-22 8.72395 15.0362)
(-6.21176e-21 7.88078 13.4424)
(-1.805e-20 6.64602 11.2023)
(-3.90383e-20 4.63843 7.7913)
(-7.34948e-20 1.88909 3.23716)
(-9.23637e-20 -0.848097 -0.603005)
(-3.74243e-20 -0.629185 -1.02186)
(-8.53383e-20 -2.48195 -2.91727)
(-2.39341e-19 -2.49623 -5.74621)
(7.46265e-26 14.3741 30.7089)
(2.38902e-25 18.0472 27.7238)
(-1.78076e-24 13.4703 27.6421)
(-4.15172e-24 14.3648 25.2996)
(4.47844e-24 12.291 24.3687)
(6.81783e-23 11.8236 22.7872)
(2.9794e-22 10.7113 21.5869)
(8.38527e-22 9.97484 20.2855)
(1.69033e-21 9.16128 19.0911)
(2.41736e-21 8.44769 17.9005)
(1.98683e-21 7.73363 16.7139)
(-9.27979e-22 6.99713 15.4221)
(-7.58523e-21 6.08545 13.7826)
(-2.0297e-20 4.71726 11.2735)
(-4.48581e-20 2.64081 7.38322)
(-8.67765e-20 0.276667 2.64663)
(-1.37601e-19 -1.33599 -0.994049)
(-1.79803e-19 -2.12194 -2.84628)
(-2.11553e-19 -2.85219 -3.9936)
(-2.05409e-19 -2.21327 -3.81865)
(2.27106e-26 11.2759 28.4552)
(1.33791e-25 16.9122 24.9266)
(-1.21036e-25 11.9526 25.3445)
(-3.31272e-24 12.5828 23.6379)
(-1.01393e-23 10.829 22.9046)
(-6.26002e-24 10.1444 21.8221)
(6.14715e-23 9.12394 20.913)
(2.89143e-22 8.31896 19.9658)
(7.47049e-22 7.5128 19.0575)
(1.32975e-21 6.78332 18.1526)
(1.62155e-21 6.08913 17.2457)
(1.00773e-21 5.42549 16.2986)
(-8.40932e-22 4.77217 15.2681)
(-3.54103e-21 4.13038 14.0935)
(-6.63511e-21 3.5163 12.6534)
(-1.1425e-20 2.91864 10.771)
(-2.17444e-20 2.26035 8.34516)
(-4.18308e-20 1.40994 5.25463)
(-6.95021e-20 0.11347 1.39047)
(-6.53505e-20 -0.982013 -1.58377)
(2.76754e-26 2.63824 17.0214)
(2.47749e-25 8.06485 13.6461)
(4.85233e-25 5.17779 14.5153)
(-9.16148e-25 5.00802 14.1115)
(-8.6882e-24 4.08513 14.0699)
(-2.91133e-23 3.52669 13.8904)
(-6.01359e-23 2.95498 13.7274)
(-7.23561e-23 2.4895 13.5315)
(7.36067e-24 2.08729 13.3191)
(2.85831e-22 1.76235 13.0889)
(8.47578e-22 1.51273 12.8477)
(1.66245e-21 1.34313 12.5995)
(2.52295e-21 1.25297 12.3429)
(3.11835e-21 1.24544 12.0616)
(3.27099e-21 1.3281 11.7249)
(3.13285e-21 1.46631 11.3243)
(3.02624e-21 1.68592 10.8096)
(2.94632e-21 2.27957 9.88551)
(2.3009e-21 2.46969 8.49243)
(6.63934e-22 -0.241573 6.3924)
(-1.1123e-27 -2.67605 17.085)
(-1.95557e-26 -8.06952 13.7333)
(-1.14595e-25 -5.17466 14.6141)
(-4.21922e-25 -4.98215 14.2274)
(-8.59313e-25 -4.04004 14.2028)
(-1.19643e-24 -3.45928 14.0414)
(-1.76469e-24 -2.86391 13.8981)
(-4.45968e-24 -2.3727 13.7224)
(-1.14926e-23 -1.94181 13.5295)
(-1.7723e-23 -1.58391 13.3148)
(3.01718e-24 -1.29669 13.0846)
(1.02993e-22 -1.08936 12.8539)
(3.29742e-22 -0.974706 12.6491)
(6.54734e-22 -0.977582 12.4828)
(9.2903e-22 -1.11943 12.3192)
(9.70197e-22 -1.35372 12.0846)
(7.45959e-22 -1.70102 11.626)
(4.16901e-22 -2.46272 10.6017)
(1.55888e-22 -2.77429 9.05817)
(2.13694e-23 0.0740011 6.85765)
(1.01367e-26 -11.4287 28.7524)
(1.35149e-25 -17.059 25.2602)
(1.0576e-25 -12.1054 25.6675)
(2.19219e-25 -12.7164 23.9817)
(4.83877e-25 -10.9719 23.2571)
(-7.0385e-25 -10.2867 22.1921)
(-7.54632e-24 -9.27822 21.297)
(-2.26385e-23 -8.483 20.3651)
(-3.39096e-23 -7.69161 19.468)
(-8.64747e-24 -6.98043 18.5771)
(7.03016e-23 -6.31863 17.7004)
(1.02155e-22 -5.69897 16.8066)
(-2.23733e-22 -5.0571 15.788)
(-1.30751e-21 -4.27179 14.4008)
(-3.22325e-21 -3.18475 12.3011)
(-5.37801e-21 -1.71382 9.23784)
(-6.74662e-21 -0.0174613 5.29172)
(-6.32335e-21 1.60064 1.01937)
(-3.2874e-21 2.75608 -2.38851)
(2.6478e-23 2.09082 -3.51526)
(-1.95841e-26 -14.4939 31.0466)
(-5.45065e-25 -18.3137 27.8793)
(-3.83001e-25 -13.6383 27.8714)
(1.18774e-24 -14.6853 25.4456)
(5.69046e-24 -12.5816 24.5125)
(1.05503e-23 -12.2129 22.8786)
(3.27335e-24 -11.1305 21.6632)
(-2.32944e-23 -10.4799 20.3246)
(-5.45612e-23 -9.72776 19.1003)
(-3.99005e-23 -9.10323 17.8665)
(6.98014e-23 -8.49648 16.6723)
(1.74532e-22 -7.93871 15.4673)
(-1.59322e-22 -7.3358 14.1444)
(-1.61829e-21 -6.51801 12.4033)
(-4.5498e-21 -5.18749 9.81333)
(-8.35483e-21 -3.11075 5.93468)
(-1.1343e-20 0.0662976 0.719249)
(-9.2795e-21 2.14365 -4.64602)
(5.32535e-21 3.90268 -5.03854)
(6.46402e-21 2.99697 -7.59907)
(-4.13801e-26 -15.3953 30.8781)
(1.82613e-24 -18.7102 28.3588)
(1.74856e-24 -14.4221 27.9192)