/*--------------------------------*- C++ -*----------------------------------*\
| =========                 |                                                 |
| \\      /  F ield         | OpenFOAM: The Open Source CFD Toolbox           |
|  \\    /   O peration     | Version:  4.1                                   |
|   \\  /    A nd           | Web:      www.OpenFOAM.org                      |
|    \\/     M anipulation  |                                                 |
\*---------------------------------------------------------------------------*/
FoamFile
{
    version     2.0;
    format      ascii;
    class       volScalarField;
    location    "24";
    object      p;
}
// * * * * * * * * * * * * * * * * * * * * * * * * * * * * * * * * * * * * * //

dimensions      [0 2 -2 0 0 0 0];

internalField   nonuniform List<scalar> 
1680
(
1994.18
-596.644
858.835
60.6253
-123.071
28.0154
17.8384
-3.1799
24.1011
23.3529
32.7162
55.0321
62.5091
106.049
95.9618
103.46
120.152
121.066
152.842
130.979
140.148
122.425
148.155
144.438
142.744
142.069
141.022
139.612
138.827
136.952
137.733
104.775
128.457
125.961
124.661
123.473
122.952
120.106
122.594
115.314
60.9603
91.8077
91.0214
110.807
101.349
99.4983
102.878
114.075
107.73
106.539
109.809
107.694
107.189
107.46
106.543
106.726
106.747
106.753
106.449
106.655
-447.139
-397.619
-338.783
48.7324
45.6018
97.0857
44.8847
42.0643
48.0822
50.948
29.0105
-6.89075
-35.9008
-57.2226
-64.8165
-23.4209
22.7915
101.725
105.853
-650.181
-545.325
-472.91
40.3245
45.7659
99.6825
39.9852
37.2412
43.3892
46.9297
25.4747
-11.0602
-42.4646
-64.0412
-72.2565
-24.5154
25.7334
109.13
103.461
-894.939
-723.729
-633.447
27.0279
40.4545
98.9665
33.4089
32.01
38.0973
41.5658
21.4461
-15.2208
-49.2267
-71.119
-79.7991
-25.5357
28.7828
117.521
109.564
-1181.74
-930.241
-816.598
10.7437
29.0946
94.0989
24.6245
26.2284
32.4864
34.8539
16.6602
-19.7007
-56.449
-78.6396
-87.8131
-26.6548
31.9488
128.677
118.955
-1508.95
-1158.28
-1013.99
-5.17369
10.4439
83.472
12.9768
19.9288
26.6876
27.0223
10.9781
-24.6675
-64.243
-86.4042
-96.3277
-27.9438
34.7737
142.225
120.646
-1867.83
-1398.82
-1215.05
-16.657
-17.2496
65.802
-2.71106
13.2942
20.7084
18.4182
4.5826
-30.2759
-72.3256
-93.8496
-104.826
-29.3431
37.2987
156.725
108.949
-2250.77
-1644.09
-1410.68
-19.4591
-56.3326
40.3501
-21.7544
6.71384
14.3629
9.37048
-2.07733
-36.3904
-80.17
-100.443
-112.72
-30.5553
39.5626
170.146
104.285
-2647.97
-1889.53
-1596.93
-6.12095
-92.7389
10.5746
-41.0575
0.23458
7.54121
0.438537
-8.37198
-42.4498
-87.2132
-105.831
-119.571
-31.4039
41.5886
185.222
104.979
-3060.94
-2136.58
-1776.37
34.2564
-96.8791
-2.80304
-47.1162
-6.29081
0.0384744
-7.85759
-13.8856
-47.7639
-93.0692
-109.908
-124.624
-31.9884
42.8023
200.712
99.7428
-3471.53
-2385.31
-1955.14
106.328
-92.0988
-2.66592
-39.3137
-13.5188
-7.78478
-14.4087
-18.4248
-51.4104
-97.4361
-112.48
-127.143
-31.8906
42.7279
213.416
90.8079
-3915.01
-2639.9
-2143.76
212.329
-102.392
-7.70905
-38.63
-22.3856
-15.9622
-19.0851
-22.6101
-53.6129
-100.316
-113.94
-127.95
-29.3134
40.8272
229.304
79.7967
-4305.69
-2893.79
-2364.66
350.677
-111.739
-18.1471
-43.658
-28.485
-21.9952
-21.6768
-25.1879
-53.6281
-100.821
-113.891
-127.138
-23.0552
36.3445
250.053
61.1263
-4853.04
-3155.72
-2654.65
507.025
-111.319
-28.3324
-46.6242
-32.1726
-27.2427
-25.4604
-28.7403
-53.5244
-99.8021
-112.537
-123.045
-12.7998
30.8083
271.714
42.2426
-5064.84
-3377.45
-2924.39
669.109
-79.1988
-31.452
-47.6651
-31.6081
-27.5747
-24.7545
-27.4318
-48.825
-94.15
-107.136
-113.811
1.71203
29.811
296.12
16.4499
-6175.37
-3715.58
-3115.4
815.55
-69.2117
-32.0733
-50.9005
-34.1864
-35.7039
-33.4932
-35.0059
-50.5745
-91.2777
-102.465
-101.068
17.7269
35.2617
325.857
22.1463
-5275.95
-3703.75
-3920.05
873.511
-63.9898
-32.0593
-49.2181
-24.6409
-22.6105
-20.408
-21.0475
-34.9611
-77.4296
-89.5134
-85.1613
29.4719
35.3244
353.413
-35.5326
-9643.71
-4694.62
-5966.88
787.049
-52.2845
-34.995
-56.3605
-43.2562
-57.9112
-57.1746
-54.4831
-56.4906
-85.9365
-87.9929
-77.8279
35.7808
30.7773
406.759
49.8895
-2252.98
-3313.37
-3423.54
406.261
-32.713
-29.9453
-41.7423
6.79418
19.7734
18.3837
18.8485
5.2722
-49.1922
-62.86
-55.0889
31.3415
43.5866
611.243
-264.465
-23608.1
933.077
1119.41
4.21538
-39.2192
-39.6666
-74.5755
-106.739
-163.269
-162.56
-146.093
-114.134
-106.188
-69.5673
-66.4029
11.5808
35.6844
605.766
45.7303
37630.7
-17474.1
-4162.76
-98.7759
-45.6263
4.76333
13.07
177.702
270.29
258.153
242.466
176.048
50.3079
8.12995
-45.9269
-0.0800404
-7.03343
-678.662
-1999.78
224.474
223.917
223.798
223.144
222.435
221.596
220.701
219.727
218.709
217.664
216.566
215.53
214.488
213.324
212.229
211.132
210.171
209.09
208.498
207.041
206.18
206.624
206.841
207.059
207.205
207.287
207.33
207.313
207.267
207.169
207.048
206.894
206.704
206.5
206.303
206.09
205.915
205.716
205.588
205.341
214.364
214.123
214.004
213.835
213.7
213.532
213.377
213.2
213.028
212.839
212.655
212.455
212.269
212.064
211.88
211.673
211.503
211.291
211.159
210.873
211.625
211.648
211.664
211.657
211.665
211.646
211.637
211.61
211.588
211.553
211.522
211.481
211.445
211.397
211.361
211.306
211.275
211.211
211.185
211.093
213.561
213.468
213.442
213.373
213.334
213.272
213.227
213.169
213.121
213.065
213.017
212.961
212.913
212.856
212.812
212.75
212.714
212.643
212.618
212.522
213.613
213.572
213.571
213.536
213.526
213.495
213.479
213.45
213.43
213.402
213.38
213.352
213.329
213.298
213.279
213.243
213.229
213.183
213.18
213.12
214.454
214.396
214.388
214.343
214.325
214.288
214.265
214.232
214.207
214.176
214.15
214.12
214.095
214.063
214.041
214.005
213.989
213.945
213.942
213.883
214.961
214.912
214.908
214.871
214.858
214.827
214.809
214.782
214.762
214.736
214.715
214.69
214.669
214.642
214.624
214.594
214.582
214.543
214.542
214.491
215.579
215.529
215.523
215.485
215.471
215.44
215.421
215.394
215.373
215.347
215.325
215.3
215.279
215.253
215.235
215.205
215.192
215.155
215.154
215.105
216.122
216.075
216.07
216.034
216.021
215.991
215.973
215.947
215.927
215.904
215.882
215.859
215.839
215.815
215.796
215.769
215.756
215.721
215.72
215.673
216.666
216.62
216.614
216.579
216.565
216.536
216.518
216.492
216.472
216.449
216.427
216.405
216.384
216.361
216.342
216.316
216.303
216.269
216.267
216.222
217.179
217.135
217.128
217.094
217.08
217.052
217.034
217.009
216.989
216.966
216.945
216.924
216.902
216.881
216.861
216.837
216.822
216.791
216.787
216.744
217.675
217.632
217.624
217.591
217.576
217.548
217.531
217.506
217.486
217.463
217.442
217.421
217.399
217.379
217.358
217.336
217.32
217.29
217.285
217.243
218.148
218.106
218.098
218.065
218.05
218.023
218.005
217.98
217.96
217.938
217.917
217.896
217.874
217.854
217.833
217.812
217.794
217.767
217.76
217.72
218.601
218.561
218.551
218.52
218.505
218.478
218.46
218.436
218.416
218.394
218.373
218.353
218.33
218.311
218.288
218.269
218.249
218.224
218.215
218.177
219.023
218.985
218.975
218.946
218.931
218.905
218.888
218.865
218.846
218.825
218.805
218.786
218.764
218.746
218.724
218.707
218.685
218.664
218.652
218.617
219.42
219.385
219.373
219.343
219.329
219.302
219.284
219.262
219.242
219.222
219.202
219.183
219.163
219.146
219.124
219.11
219.087
219.071
219.059
219.027
219.822
219.796
219.786
219.755
219.743
219.719
219.701
219.679
219.659
219.637
219.615
219.593
219.569
219.547
219.52
219.502
219.469
219.456
219.432
219.396
220.099
220.091
220.107
220.087
220.087
220.081
220.077
220.072
220.067
220.061
220.054
220.046
220.034
220.021
220.001
219.981
219.943
219.923
219.852
219.797
220.068
220.01
220.049
220.059
220.077
220.095
220.114
220.135
220.158
220.183
220.211
220.243
220.278
220.317
220.361
220.41
220.463
220.532
220.574
220.737
106.631
106.619
106.588
106.599
106.602
106.592
106.544
106.514
106.49
106.521
105.086
104.925
105.249
97.9563
94.8873
95.6493
98.7664
75.0724
79.8981
84.5576
61.5438
65.8305
67.4425
70.1333
72.3065
75.5929
79.2867
74.2796
84.2626
86.5802
87.0705
86.5456
84.8383
81.9782
78.2806
72.9458
62.1141
48.3231
26.2942
39.9708
35.3512
41.9402
34.141
37.2784
34.9
36.4904
37.275
33.7013
34.0875
32.2817
32.3083
31.8167
28.5065
27.527
26.9781
26.094
26.2046
25.8036
26.7121
26.3867
59.3228
59.9039
60.3709
67.4484
67.447
66.0754
67.813
69.427
65.7772
61.7599
67.6708
71.5451
71.5503
66.056
43.1945
-7.75523
-22.773
4.98945
18.3194
59.2275
59.8512
60.1557
67.1701
67.2488
65.9384
67.7394
69.5024
65.6384
61.5442
67.7058
71.6256
71.7128
66.026
42.4987
-10.9017
-27.2932
2.50356
17.2268
58.9707
59.7405
59.8458
66.4286
66.5261
65.5276
67.3199
69.4481
65.1399
61.19
67.7215
71.628
71.5613
65.5783
40.9711
-14.5088
-34.264
-6.0174
16.9823
58.6579
59.6534
59.6022
65.3921
65.6976
65.169
66.7099
68.9555
64.292
60.7955
67.5084
71.2995
71.0451
64.5124
38.6281
-18.6558
-41.8863
-15.8025
18.881
58.3407
59.5457
59.4846
64.6236
65.5217
65.587
66.1597
68.0604
63.2879
60.5382
67.0965
70.6045
69.9968
62.7883
35.5701
-22.5786
-48.4151
-23.6343
21.4445
57.9674
59.2532
59.4299
64.5041
65.544
66.7409
66.0075
67.1957
62.4308
60.3775
66.3182
69.3885
68.1703
60.1405
32.0047
-25.3796
-53.4837
-28.7429
24.0033
57.5268
58.607
59.286
64.9114
65.1182
67.7615
66.2011
66.58
61.9431
60.1588
65.1078
67.388
65.3073
56.4142
28.2256
-28.0563
-54.4658
-28.7284
25.7865
56.8454
57.4474
58.9
65.6763
64.0968
68.456
66.386
66.2543
61.8814
60.0157
63.5583
64.543
61.2982
51.7065
24.1275
-29.4342
-54.4602
-21.2283
26.6182
55.446
55.6439
58.1038
66.4765
62.1895
68.9687
66.3648
66.2143
62.0991
60.0092
61.7117
60.9849
56.2472
46.0948
19.6124
-30.3156
-53.2996
-18.0045
26.861
52.925
52.8864
56.6888
66.8849
59.0467
69.4028
66.1072
66.3693
62.3561
60.0851
59.5886
56.9315
50.4208
39.6729
14.8598
-30.4449
-51.0551
-15.8801
28.837
48.919
48.7457
54.31
66.5637
54.5006
69.9874
65.5747
66.5804
62.446
60.1175
57.2563
52.5155
44.026
32.4598
9.70978
-29.7912
-46.8195
-11.6313
31.4582
42.7959
42.7029
50.3215
65.4239
48.7867
70.8725
64.7205
66.6717
62.4034
60.0234
54.7875
47.7132
37.1357
24.4207
4.08439
-28.6302
-41.2484
-6.10144
36.4346
33.6951
34.0139
43.8502
63.5515
42.6606
72.0387
63.5809
66.3902
62.2806
59.7894
52.224
42.4232
29.7387
15.5218
-2.25115
-26.9137
-34.0161
0.544312
39.0379
20.4882
21.5144
33.8251
61.1825
37.0773
73.4644
62.2141
65.4279
62.0258
59.4393
49.5745
36.5753
21.836
5.96875
-9.26367
-25.4272
-28.6489
6.14791
48.4069
1.5143
3.46593
18.6694
58.6299
33.0628
75.2111
60.6317
63.751
61.4842
58.9818
46.8155
30.1672
13.4421
-3.92389
-16.795
-23.3077
-20.2797
14.492
56.9743
-25.6664
-22.5967
-3.82669
55.9581
31.5984
77.3735
58.7634
61.3756
60.5456
58.4125
43.9484
23.3423
4.55514
-13.9554
-24.6514
-21.4318
-8.3054
35.3565
83.7303
-64.4816
-59.7762
-36.5313
53.837
32.8373
80.0562
56.6057
58.3032
59.1539
57.7186
41.0134
16.3497
-4.67249
-24.0254
-32.6665
-20.6033
1.92551
57.3461
101.658
-119.366
-112.089
-82.715
53.3914
35.7218
83.2691
54.2223
54.7368
57.2835
56.8576
38.0157
9.52961
-13.7049
-33.745
-40.8656
-20.6879
9.58034
75.5261
107.423
-196.422
-183.251
-146.236
53.1868
39.0776
87.0578
51.5935
50.8468
54.9275
55.6641
35.0477
3.29627
-21.9317
-42.5332
-49.1056
-21.2634
14.613
85.6886
108.927
-301.497
-278.215
-230.623
52.4265
42.4809
92.1334
48.5865
46.609
51.9278
53.7927
32.1505
-2.17728
-29.2108
-50.2326
-57.1327
-22.2456
18.9127
93.2305
109.965
782.834
700.521
651.535
595.497
546.622
499.433
455.516
413.994
374.872
337.865
302.807
269.518
237.829
207.742
179.393
152.036
125.721
104.333
79.9843
43.1037
101.352
78.7667
86.9073
75.8356
73.1968
66.621
61.8159
56.6907
52.3203
48.4708
45.3995
43.1639
41.8865
41.6918
42.8465
45.3888
48.6659
52.3228
55.4097
56.3363
78.3928
70.4521
77.9916
70.1956
71.3985
67.1495
64.9368
61.3979
58.0889
54.4424
50.7623
47.0023
43.3302
39.9542
37.2639
35.7425
35.2067
34.6848
33.4192
33.548
60.8598
55.5796
57.3074
50.1608
49.7931
44.5507
42.0294
38.0823
34.9691
31.6708
28.7036
25.9302
23.5103
21.6301
20.5655
20.684
21.3695
22.4182
23.0163
25.2426
43.0434
40.6324
43.8339
40.5685
43.7566
41.992
43.6961
43.6321
44.6346
45.4036
46.4414
47.5917
48.8843
50.361
52.0184
54.0448
56.2189
58.8507
61.2234
64.7929
69.8751
70.2552
74.1487
72.9574
77.0661
76.9531
79.7765
81.033
83.0659
84.8845
86.7888
88.731
90.6851
92.6639
94.626
96.615
98.5493
100.671
102.452
104.757
96.667
98.1485
101.189
100.734
104.25
104.42
107.028
108.133
109.978
111.384
112.743
113.768
114.397
114.544
114.312
113.985
114.19
115.122
116.217
117.077
116.632
117.107
118.612
117.643
119.636
118.828
120.078
119.637
119.883
119.293
118.658
117.625
116.448
115.142
113.858
112.691
111.753
111.039
110.898
109.423
109.723
106.608
106.822
103.967
104.07
101.716
101.301
99.5006
98.6173
97.16
96.005
94.5646
93.0127
91.086
88.8783
86.4718
84.3469
83.435
82.43
78.3337
61.9427
56.1578
54.8675
50.2724
48.2521
43.9155
41.0413
36.7798
33.2038
29.058
25.4336
21.9772
19.1533
16.8965
15.4445
14.6976
14.6368
14.9656
14.5314
15.0599
25.2918
21.2459
21.0358
18.1456
17.5089
14.9422
13.9089
11.8445
10.6648
9.34608
8.7281
8.53901
8.95119
9.81819
11.0634
12.6313
14.2339
16.1481
17.7631
21.2812
35.98
36.3364
37.9593
37.9293
39.6478
40.0489
41.5833
42.5099
43.909
45.1945
46.6477
48.159
49.7491
51.4296
53.1668
55.0982
57.0828
59.6415
61.9388
65.3427
62.822
65.0589
67.423
68.762
70.9797
72.355
74.2966
75.8771
77.596
79.2247
80.8316
82.4108
83.9549
85.5019
87.0274
88.6163
90.1314
91.8188
93.0946
94.961
82.691
85.2147
87.4077
89.0419
90.9913
92.3397
93.9815
95.3381
96.7229
98.0181
99.2631
100.474
101.657
102.846
104.04
105.31
106.555
107.971
109.032
110.515
103.863
106.151
107.472
108.801
110.142
111.113
112.292
113.258
114.281
115.264
116.267
117.297
118.365
119.464
120.59
121.74
122.862
124.033
124.849
125.909
123.086
124.762
125.42
126.588
127.558
128.543
129.681
130.681
131.664
132.403
132.813
132.724
132.029
130.688
129.013
127.48
126.824
126.825
127.306
127.006
135.585
135.876
134.992
135.127
135.036
134.715
134.122
133.135
131.826
130.044
127.831
125.164
122.078
118.706
115.446
112.802
111.09
110.173
110.369
108.929
133.06
130.14
127.162
124.792
122.289
119.874
117.7
115.592
113.503
111.322
109.078
106.72
104.263
101.793
99.4568
97.4327
96.0688
95.9037
95.8388
92.245
81.6064
77.5304
74.2853
70.9433
67.3538
63.6891
59.7821
55.5841
51.2805
47.0981
43.2379
39.7981
36.9564
34.8726
33.643
33.4232
34.1317
34.9506
35.1412
34.334
70.8787
69.4438
69.062
67.8403
65.1654
61.7805
58.0014
54.2178
50.831
47.9309
45.8077
44.1037
43.0702
43.0059
43.6847
44.9346
46.4439
47.9722
48.8121
50.0592
)
;

boundaryField
{
    outletWallLeft
    {
        type            fixedValue;
        value           uniform 0;
    }
    fineWallsLeft
    {
        type            zeroGradient;
    }
    fineFrontAndBackLeft
    {
        type            zeroGradient;
    }
    fineplugLeft
    {
        type            cyclicAMI;
        value           nonuniform List<scalar> 
20
(
207.609
212.128
208.669
207.403
206.497
205.691
204.765
203.704
202.732
201.522
200.799
202.665
197.282
195.852
194.716
193.6
192.727
191.293
191.317
188.695
)
;
    }
    symmetryWallLeft
    {
        type            cyclicAMI;
        value           nonuniform List<scalar> 
20
(
106.643
107.909
97.4775
20.8521
-22.8333
-60.9746
-53.7276
-32.5558
-4.53402
30.5805
52.3704
50.005
44.3366
46.7356
94.6095
44.0413
50.5795
-284.703
-337.917
-374.318
)
;
    }
    inletOutletLeft
    {
        type            cyclicAMI;
        value           nonuniform List<scalar> 
20
(
188.695
191.317
191.293
192.727
193.6
194.716
195.852
197.282
202.665
200.799
201.522
202.732
203.704
204.765
205.691
206.497
207.403
208.669
212.128
207.609
)
;
    }
    inletLeft
    {
        type            zeroGradient;
    }
    inletWallsLeft
    {
        type            zeroGradient;
    }
    inletFacesLeft
    {
        type            zeroGradient;
    }
    fineWallsRight
    {
        type            zeroGradient;
    }
    outletWallRight
    {
        type            zeroGradient;
    }
    fineplugRight
    {
        type            cyclicAMI;
        value           nonuniform List<scalar> 
20
(
52.3561
52.2158
51.8662
51.1818
50.409
50.0663
50.2621
49.3121
48.7684
53.9622
55.7589
57.9739
60.3419
62.7968
65.0806
66.7215
66.6951
64.9142
64.4316
64.6971
)
;
    }
    fineFrontAndBackRight
    {
        type            zeroGradient;
    }
    symmetryWallRight
    {
        type            cyclicAMI;
        value           nonuniform List<scalar> 
20
(
106.643
107.909
97.4775
20.8521
-22.8333
-60.9746
-53.7276
-32.5558
-4.53402
30.5805
52.3704
50.005
44.3366
46.7356
94.6095
44.0413
50.5795
-284.703
-337.917
-374.318
)
;
    }
    inletOutletRight
    {
        type            cyclicAMI;
        value           nonuniform List<scalar> 
20
(
52.3561
52.2158
51.8662
51.1818
50.409
50.0663
50.2621
49.3121
48.7684
53.9622
55.7589
57.9739
60.3419
62.7968
65.0806
66.7215
66.6951
64.9142
64.4316
64.6971
)
;
    }
    inletRight
    {
        type            zeroGradient;
    }
    inletWallsRight
    {
        type            zeroGradient;
    }
    inletFacesRight
    {
        type            zeroGradient;
    }
}


// ************************************************************************* //
