/*--------------------------------*- C++ -*----------------------------------*\
| =========                 |                                                 |
| \\      /  F ield         | OpenFOAM: The Open Source CFD Toolbox           |
|  \\    /   O peration     | Version:  4.1                                   |
|   \\  /    A nd           | Web:      www.OpenFOAM.org                      |
|    \\/     M anipulation  |                                                 |
\*---------------------------------------------------------------------------*/
FoamFile
{
    version     2.0;
    format      ascii;
    class       surfaceScalarField;
    location    "24";
    object      phi;
}
// * * * * * * * * * * * * * * * * * * * * * * * * * * * * * * * * * * * * * //

dimensions      [0 3 -1 0 0 0 0];

internalField   nonuniform List<scalar> 
3120
(
-9663.86
-76922.9
-9663.85
12757.7
-22421.6
12757.7
10821.6
1936.16
10179.8
641.739
10179.8
11974.2
-1794.37
14508.3
-2534.12
14508.3
17725
-3216.68
17725
20253.6
-2528.6
21881.2
-1627.64
21881.2
22132
-250.829
22132
20806.2
1325.84
17394.4
3411.78
17394.4
17967.9
16265
2700.69
17258.7
18219.1
19176.7
20137.9
21104.5
22077.2
23056.7
24043.4
25039
21081.8
4960.92
22100.4
23127.1
24160.5
25201.1
26246.1
27314.5
28428.8
29232.7
22231.1
7001.59
22231.1
22231.1
15118.9
7112.19
15118.9
15118.9
15118.9
8170.58
6948.33
8170.56
8170.56
2561.03
5609.51
2560.98
2560.92
2560.89
-108.746
2669.39
-109.402
-110.065
-110.427
-369.46
258.804
-11598.8
78844.2
-15938.3
27208
-12412.7
-39590.8
-3310.79
-73825.5
1915.38
-9876.57
3268.55
7146.25
2707.69
17001
2174.2
14000.8
1909.83
12680.1
27.6975
21195.3
-2377.07
23892.9
-4044.38
20211.3
-5425.94
9017.41
-6800.49
-972.753
-8044.97
-10719.4
-9201.3
-18561
-9459.7
-20786.3
-6543.12
-21587.4
-15043.4
-11981.6
91882.8
-17024.6
32251.1
-13254
-43361.4
-3426.86
-83652.6
2965.84
-16269.3
4461.92
5650.17
3963.35
17499.5
3202.53
14761.6
3140.9
12741.7
1835.03
22501.1
-1152.74
26880.6
-3489.84
22548.4
-5076.05
10603.6
-6386.78
337.954
-7134.59
-9971.56
-7717.85
-17977.8
-8488.15
-20016
-7302.49
-22773.1
-19676.6
-12100.1
105250
-17579.7
37730.7
-13557.5
-47383.6
-3414.32
-93795.8
3903.96
-23587.5
5630.62
3923.52
5146.93
17983.2
4233.83
15674.7
4100.48
12875
3354.42
23247.2
95.9357
30139.1
-2997.4
25641.8
-4794.45
12400.7
-6066.49
1610
-6459.74
-9578.32
-6200.19
-18237.3
-6695.73
-19520.5
-7112.95
-22355.9
-21180
-11902.9
118632
-17449.9
43277.7
-13151.2
-51682.3
-3194.61
-103752
4735.58
-31517.7
6703.84
1955.25
6108.94
18578.1
5161.87
16621.8
4845.39
13191.5
4320.04
23772.6
1003.46
33455.7
-2557.38
29202.6
-4465.18
14308.5
-5692.92
2837.72
-5977.04
-9294.2
-5103.45
-19110.9
-4829.87
-19794.1
-5854.04
-21331.7
-20085.7
-11404.2
131734
-16633.5
48507
-11970.2
-56345.6
-2664.59
-113058
5525.55
-39707.9
7754.56
-273.756
6964.63
19368
6014.56
17571.9
5458.4
13747.7
4689.19
24541.8
1357.02
36787.9
-2197.32
32756.9
-4012.12
16123.3
-5138.14
3963.75
-5437.68
-8994.66
-4336.97
-20211.6
-3476.37
-20654.7
-4224.97
-20583.1
-17198.5
-10684.4
144332
-15293.5
53116.2
-10109.1
-61530
-1808.87
-121358
6230.27
-47747
8604.29
-2647.79
7843.17
20129.2
6905.82
18509.2
5967.35
14686.1
4510.54
25998.6
1196.89
40101.5
-1888.67
35842.5
-3427.92
17662.5
-4385.31
4921.13
-4691.22
-8688.76
-3502.53
-21400.3
-2594.4
-21562.8
-2905.45
-20272.1
-13102.3
-9872.28
156328
-13706.1
56950
-7794.71
-67441.4
-705.279
-128448
6364.51
-54816.8
8612.37
-4895.64
8509.82
20231.7
7685.16
19333.9
6196.75
16174.6
3830.9
28364.4
729.711
43202.7
-1555.94
38128.1
-2745.55
18852.1
-3504.85
5680.44
-3757.62
-8435.99
-2374.72
-22783.2
-1630.46
-22307
-1797.31
-20105.2
-9938.69
-9092.68
167743
-12123.7
59981
-5263.41
-74301.7
497.241
-134208
4605.02
-58924.6
6161.71
-6452.34
8233
18160.4
7960.34
19606.5
5869.15
18265.7
2740.61
31493
215.932
45727.4
-1140.75
39484.8
-2002.89
19714.3
-2568.12
6245.66
-2688.51
-8315.62
-962.974
-24508.7
-157.629
-23112.4
-1040.89
-19222
-8278.88
-8455.22
178713
-10692.7
62218.5
-2626.85
-82367.5
1664.88
-138500
1551.71
-58811.4
1977.71
-6878.33
6923.84
13214.3
7472.15
19058.2
4847.31
20890.6
1437.46
34902.8
-124.857
47289.7
-634.481
39994.4
-1226.15
20305.9
-1620.7
6640.21
-1504.28
-8432.03
684.684
-26697.7
1840.14
-24267.9
560.616
-17942.5
-4306.45
-7990.55
189388
-9414.75
63642.7
164.35
-91946.6
2882.31
-141218
1892.85
-57821.9
1232.26
-6217.74
5525.37
8921.17
6338.46
18245.1
3246.72
23982.3
195.713
37953.8
-188.806
47674.2
-58.2439
39863.9
-462.499
20710.2
-686.664
6864.36
-199.942
-8918.76
2490.3
-29387.9
3916.15
-25693.7
3736.85
-17763.2
756.256
-7788.4
200035
-8298.21
64152.5
3244.06
-103489
4243.27
-142217
3997.23
-57575.9
2329.85
-4550.36
4077.87
7173.16
4623.89
17699.1
1376.2
27230
-711.365
40041.4
-3.8486
46966.7
581.783
39278.3
254.31
21037.7
200.52
6918.16
1301.23
-10019.5
4257.19
-32343.9
5636.12
-27072.7
5895.11
-18022.1
6400.58
-7704.38
210716
-7057.29
63505.4
6725.96
-117272
5658.66
-141150
4179.91
-56097.2
1996.17
-2366.62
2735.98
6433.34
2620.58
17814.5
-369.761
30220.4
-1148.73
40820.4
338.28
45479.7
1292.07
38324.5
1127.18
21202.6
1225.58
6819.74
2946.56
-11740.4
5528.36
-34925.7
6269.52
-27813.8
6455.63
-18208.3
11228.6
-8186.92
222078
-5902.26
61220.8
10669.7
-133844
7142.1
-137622
3681.83
-52636.9
1504.24
-189.019
1495.56
6442.02
690.181
18619.9
-1601.02
32511.6
-1202.49
40421.8
730.42
43546.8
2024.43
37030.4
2285.05
20941.9
2564.69
6540.12
4597.11
-13772.9
5551.77
-35880.4
4613.54
-26875.6
5915.04
-19509.7
14615
-8686
233899
-4398.26
56933
15053
-153295
8568.21
-131137
648.637
-44717.3
669.755
-210.147
256.733
6855.04
-923.136
19799.8
-2203.75
33792.2
-1051.86
39269.9
1107.18
41387.7
2727.91
35409.7
3490.51
20179.3
4008.58
6022.03
6034.03
-15798.3
4001.95
-33848.3
818.28
-23691.9
4843.41
-23534.9
16241.8
-11319.6
248801
-4121.08
49734.5
19798.1
-177215
9695.5
-121035
1239.29
-36261.1
-429.538
1458.69
-549.201
6974.7
-1867.79
21118.4
-2326.14
34250.5
-855.402
37799.2
1388.51
39143.8
3289.03
33509.2
4309.98
19158.4
5139.88
5192.15
7127.85
-17786.3
2269.34
-28989.8
-2354.31
-19068.3
3893.45
-29782.6
17601.1
-14417.6
266063
-1135.29
36452.2
24690
-203040
10083.6
-106429
555.739
-26733.2
-1070.98
3085.4
-1280.76
7184.48
-2343.74
22181.3
-2216.55
34123.3
-643.096
36225.7
1648.4
36852.3
3829.54
31328.1
4937.78
18050.1
6093.22
4036.71
8016.09
-19709.2
1943.48
-22917.2
-2684.65
-14440.2
4627.92
-37095.2
20434.7
-22005.7
292813
263.056
14183.4
29495.2
-232272
9363.92
-86297.3
-319.098
-17050.2
-144.34
2910.65
-959.612
7999.75
-2194.18
23415.9
-2016.71
33945.9
-619.066
34828.1
1579.27
34654
3908.58
28998.8
4556.98
17401.7
6225.94
2367.76
8544.58
-22027.8
1507.91
-15880.5
-1406.84
-11525.4
6137.46
-44639.5
27213.9
24687.5
269223
51534.8
-12663.9
33335.6
-214073
4768.49
-57730.2
-2978.63
-9303.07
-1789.72
1721.75
-2337.36
8547.39
-2581.86
23660.4
-1676.64
33040.7
-128.238
33279.7
2202.3
32323.5
4939.23
26261.8
6187.47
16153.5
7790.95
764.279
8241.6
-22478.4
-900.618
-6738.3
-2532.13
-9893.89
9973.26
-57144.9
39123.3
95002.4
186463
87625
-5286.46
27386.1
-153834
-4861.33
-25482.8
-6506.01
-7658.39
-2482.65
-2301.62
670.445
5394.3
-938.274
25269.1
-1685.6
33788
-1537.8
33131.9
-176.463
30962.1
1545.84
24539.5
6456.03
11243.3
10130.2
-2909.85
5944.83
-18293.1
-766.779
-26.6918
-5353.67
-5307
2665.69
-65164.2
19367.4
-192761
53851.3
1055.94
-9839.62
-7639.3
-11707.8
-9938.45
-5646.75
-793.685
3494.91
8584.09
13481.2
17012.3
12290.3
1675.57
1170.59
-502.828
-21883.2
-40.7339
-532.741
1.28629
-1039.9
47.8166
-1040.14
87.539
-1000.17
126.294
-996.313
162.43
-997.39
194.473
-998.674
221.216
-999.398
242.295
-1000.63
257.754
-1002.1
265.999
-1003.85
264.622
-1002.41
252.461
-1006.42
236.104
-1010.28
215.715
-1013.05
191.758
-1016.63
164.934
-1018.25
140.887
-1044.28
114.755
-1088.21
-689.084
54.1101
-586.855
67.9939
-1053.79
63.038
-1035.18
63.5789
-1000.71
66.6311
-999.368
69.1592
-999.92
71.2139
-1000.73
72.7754
-1000.96
73.9435
-1001.81
74.2367
-1002.4
73.7565
-1003.37
76.686
-1005.34
75.8748
-1005.61
72.34
-1006.75
66.9076
-1007.62
59.365
-1009.09
50.8085
-1009.7
40.1717
-1033.65
26.5097
-1074.55
-662.574
30.1444
-617.001
35.0953
-1058.74
28.6842
-1028.77
27.5129
-999.544
27.7473
-999.603
27.8757
-1000.05
27.979
-1000.84
27.9959
-1000.98
27.8027
-1001.61
27.3986
-1002
26.5888
-1002.56
24.1601
-1002.91
22.1505
-1003.61
19.8846
-1004.48
17.1399
-1004.88
13.8033
-1005.76
9.91472
-1005.81
5.74892
-1029.49
1.56304
-1070.37
-661.011
25.8312
-642.831
27.6125
-1060.52
22.6891
-1023.85
21.0835
-997.938
19.9196
-998.439
18.6298
-998.759
17.2472
-999.452
15.7982
-999.53
14.258
-1000.07
12.5803
-1000.32
10.7976
-1000.78
9.12178
-1001.24
7.0866
-1001.57
4.76624
-1002.16
2.27631
-1002.39
-0.494257
-1002.99
-3.41429
-1002.89
-7.62511
-1025.28
-10.2663
-1067.72
-671.278
23.0778
-665.91
22.9947
-1060.44
17.8485
-1018.71
15.7577
-995.848
13.9909
-996.673
12.1451
-996.914
10.2592
-997.567
8.37047
-997.642
6.44625
-998.149
4.49974
-998.371
2.51334
-998.794
0.403937
-999.129
-1.68117
-999.485
-3.83886
-1000
-6.01329
-1000.21
-8.27808
-1000.72
-10.6687
-1000.5
-14.9725
-1020.97
-16.8371
-1065.86
-688.115
21.8023
-687.712
20.7714
-1059.41
16.0002
-1013.93
13.9937
-993.841
12.1542
-994.833
10.2587
-995.018
8.31596
-995.624
6.37009
-995.696
4.39168
-996.17
2.39264
-996.372
0.372405
-996.774
-1.66945
-997.087
-3.73535
-997.419
-5.86642
-997.873
-7.99016
-998.088
-10.1573
-998.555
-12.4155
-998.244
-16.9825
-1016.41
-19.0674
-1063.78
-707.182
21.2943
-709.007
19.4428
-1057.56
14.8685
-1009.36
12.8829
-991.856
11.0072
-992.957
9.08995
-993.101
7.13757
-993.672
5.19336
-993.752
3.22613
-994.203
1.2535
-994.399
-0.731285
-994.789
-2.74177
-995.077
-4.74526
-995.416
-6.79163
-995.827
-8.8137
-996.066
-10.8604
-996.508
-12.9479
-996.157
-17.3607
-1011.99
-19.9181
-1061.22
-727.1
20.9675
-729.974
18.4427
-1055.03
14.1163
-1005.03
12.2343
-989.973
10.3992
-991.122
8.53378
-991.235
6.63306
-991.771
4.74199
-991.86
2.82813
-992.289
0.911491
-992.482
-1.01592
-992.861
-2.96035
-993.132
-4.9004
-993.475
-6.87911
-993.848
-8.83017
-994.115
-10.8047
-994.533
-12.7756
-994.186
-17.0062
-1007.76
-20.1347
-1058.09
-747.235
20.7676
-750.742
17.5847
-1051.85
13.5065
-1000.95
11.7153
-988.182
9.92859
-989.336
8.11913
-989.426
6.27654
-989.929
4.44527
-990.029
2.59171
-990.436
0.73844
-990.629
-1.12564
-990.997
-3.00376
-991.254
-4.87607
-991.603
-6.78274
-991.941
-8.66054
-992.237
-10.5644
-992.63
-12.4275
-992.323
-16.4232
-1003.77
-20.1439
-1054.37
-767.379
20.5911
-771.333
16.774
-1048.03
12.9533
-997.134
11.2576
-986.486
9.52906
-987.607
7.78517
-987.682
6.00873
-988.152
4.2441
-988.265
2.45664
-988.648
0.671097
-988.844
-1.12664
-989.2
-2.93565
-989.445
-4.74075
-989.798
-6.57766
-990.104
-8.38647
-990.428
-10.2261
-990.79
-11.9949
-990.554
-15.7465
-1000.02
-20.0647
-1050.05
-787.443
20.4358
-791.768
15.9892
-1043.58
12.4324
-993.577
10.8236
-984.877
9.15437
-985.938
7.47586
-986.003
5.76573
-986.442
4.0677
-986.566
2.34637
-986.927
0.628628
-987.126
-1.10302
-987.468
-2.84307
-987.705
-4.58154
-988.059
-6.34871
-988.337
-8.08947
-988.687
-9.86533
-989.014
-11.5476
-988.872
-15.0455
-996.518
-19.9601
-1045.14
-807.403
20.2877
-812.056
15.2179
-1038.51
11.9298
-990.289
10.4034
-983.351
8.79562
-984.33
7.18388
-984.392
5.54124
-984.799
3.91064
-984.936
2.25613
-985.272
0.60657
-985.476
-1.05899
-985.802
-2.73002
-986.034
-4.40288
-986.386
-6.10081
-986.639
-7.77525
-987.013
-9.48826
-987.301
-11.0917
-987.268
-14.3331
-993.277
-19.8424
-1039.63
-827.246
20.1486
-832.205
14.4566
-1032.82
11.4405
-987.273
9.98979
-981.9
8.44443
-982.784
6.89929
-982.846
5.32398
-983.224
3.76051
-983.372
2.17271
-983.684
0.590902
-983.894
-1.00886
-984.202
-2.61095
-984.432
-4.21899
-984.778
-5.84731
-985.01
-7.45638
-985.404
-9.10568
-985.652
-10.6361
-985.738
-13.6184
-990.294
-19.72
-1033.52
-846.966
20.0197
-852.224
13.7055
-1026.51
10.9644
-984.532
9.58543
-980.521
8.10495
-981.304
6.62802
-981.369
5.12109
-981.717
3.62569
-981.877
2.10565
-982.164
0.591731
-982.38
-0.941717
-982.669
-2.47476
-982.899
-4.0189
-983.234
-5.57721
-983.452
-7.12293
-983.858
-8.70829
-984.066
-10.1724
-984.273
-12.8976
-987.569
-19.5899
-1026.83
-866.556
19.9088
-872.133
12.9643
-1019.56
10.4995
-982.067
9.1879
-979.209
7.77352
-979.889
6.36568
-979.961
4.92662
-980.278
3.49885
-980.449
2.04665
-980.712
0.599452
-980.933
-0.867463
-981.202
-2.33176
-981.434
-3.81259
-981.753
-5.29914
-981.965
-6.78288
-982.374
-8.30135
-982.548
-9.70327
-982.872
-12.1724
-985.1
-19.4471
-1019.56
-886.003
19.8428
-891.976
12.2543
-1011.97
10.0733
-979.886
8.83238
-977.968
7.48913
-978.546
6.15531
-978.628
4.78515
-978.907
3.42388
-979.088
2.03788
-979.326
0.652329
-979.547
-0.75259
-979.797
-2.15529
-980.032
-3.57971
-980.329
-4.99963
-980.546
-6.43057
-980.943
-7.8825
-981.096
-9.23017
-981.524
-11.4484
-982.881
-19.2845
-1011.72
-905.287
19.8669
-911.842
11.6137
-1003.72
9.74448
-978.017
8.60161
-976.826
7.35048
-977.295
6.11266
-977.39
4.82909
-977.624
3.54632
-977.805
2.23632
-978.016
0.916268
-978.227
-0.426095
-978.455
-1.77438
-978.683
-3.15231
-978.951
-4.52256
-979.175
-5.92744
-979.538
-7.33165
-979.692
-8.66649
-980.189
-10.6723
-980.876
-19.038
-1003.36
-924.325
20.0759
-931.918
11.1029
-994.748
9.59125
-976.505
8.60716
-975.841
7.48635
-976.174
6.37538
-976.279
5.20733
-976.456
4.02263
-976.62
2.80524
-976.798
1.56423
-976.986
0.295849
-977.186
-0.990512
-977.397
-2.31188
-977.629
-3.63333
-977.854
-5.01492
-978.157
-6.37485
-978.332
-7.75563
-978.808
-9.59737
-979.034
-18.4216
-994.532
-942.747
20.797
-952.715
11.0674
-985.018
9.96218
-975.4
9.24901
-975.128
8.35455
-975.28
7.42919
-975.353
6.42088
-975.447
5.34942
-975.549
4.2103
-975.659
3.0062
-975.782
1.73903
-975.919
0.414594
-976.072
-0.969478
-976.245
-2.38685
-976.436
-3.8759
-976.668
-5.32947
-976.878
-6.87993
-977.258
-8.53273
-977.381
-17.5627
-985.502
-960.31
22.2847
12.2666
11.8669
11.7387
11.4592
11.1059
10.6585
10.11
9.45087
8.66869
7.74969
6.67733
5.43205
3.99566
2.32805
0.450042
-1.80762
-4.18862
-14.6904
-370.309
-165.781
-204.873
-166.482
-167.172
-167.519
100.264
-268.09
99.6841
99.0712
98.8818
-3977.72
4076.58
-3977.73
-3977.75
-11093
7115.27
-11093
-11093
-11093
-19090.2
7997.16
-19090.2
-19090.2
-25934.5
6844.37
-25962.5
-25809.8
-25550.4
-25189.6
-24715.3
-24118.2
-23394.9
-22545.6
-26459
4888.61
-25375.4
-24167.6
-22837.8
-21383.8
-19799.5
-18072.4
-16206.3
-14311.6
-12688.9
-9801.13
-1855.73
-9467.43
-9467.42
-8934.57
-532.855
-7936.77
-997.793
-7936.77
-6598.46
-1338.3
-6598.46
-4920.11
-1678.34
-3104.83
-1815.27
-3104.81
-1114.49
-1990.3
-1114.45
875.253
-1989.68
2668.6
-1793.32
2668.61
3635.99
-967.359
3336.8
299.199
3336.81
1770.13
1566.7
1770.16
1770.16
-792.905
792.894
-1250.61
457.695
-1121.09
-129.531
460.493
-1581.58
1471.24
-1010.75
1203.21
268.024
232.057
971.144
649.867
-417.822
1297.98
-648.122
991.293
306.686
713.039
278.251
869.126
-156.09
1783.47
-914.348
3723.99
-1940.51
6425.82
-2701.82
7373.05
-947.23
3908.31
3464.75
-1104.09
5012.42
666.093
-697.708
1490.59
-1252.57
1012.55
-996.83
-385.282
582.428
-3160.84
1808.42
-2236.75
1650.29
426.153
108.797
2512.63
269.515
-578.555
996.466
-1375.08
766.952
536.188
264.875
780.322
77.6807
31.1001
714.212
-1550.88
2767.16
-3993.46
5319.74
-5254.4
7515.73
-3143.2
6641.92
4338.57
996.186
10658.2
3229.01
-321.722
1812.31
-819.582
1510.4
-668.954
-535.923
841.24
-4671.04
1788.99
-3184.5
1037.93
1177.21
-465.547
4016.11
-38.2002
-1005.9
701.165
-2114.45
204.152
1033.2
-778.696
1763.17
-1254.95
507.355
-334.027
-2471.8
1646.67
-5974.15
4216.31
-7824.03
6416.21
-5343.1
6948.14
3806.65
3071.2
14535.1
6599.41
-88.2008
1900.5
-522.269
1944.46
-418.784
-639.424
1027.27
-6117.09
1183.16
-3340.4
-88.6937
2449.06
-1003.41
4930.83
-150.919
-1858.41
266.207
-2531.58
-354.344
1653.74
-1452.69
2861.51
-2036.47
1091.13
-1313.66
-3194.61
475.593
-7763.41
2978.68
-10327.1
4985.1
-7349.52
6215.01
2576.75
4180.72
16569.4
9812.79
-58.3594
1958.86
-518.358
2404.46
-316.939
-840.855
1111.37
-7545.41
316.286
-2545.32
-1047.36
3812.71
-1051.06
4934.52
-155.06
-2754.41
-233.7
-2452.94
-874.035
2294.08
-2055.2
4042.68
-2867.99
1903.92
-2370.37
-3692.23
-736.419
-9397.36
1575.23
-12638.8
3367.53
-9141.82
4919.42
1024.87
4359.64
17129.2
12379.1
-169.677
2128.52
-680.932
2915.71
-143.927
-1377.87
1186.18
-8875.52
-282.802
-1076.34
-1469.69
4999.59
-786.388
4251.22
-192.261
-3348.54
-764.266
-1880.94
-1473.39
3003.19
-2742.61
5311.9
-3720.43
2881.74
-3374.18
-4038.48
-1934.08
-10837.5
67.325
-14640.2
1477.27
-10551.8
2981.13
-478.93
3897.79
16212.5
14287.2
-653.532
2782.06
-1060.39
3322.57
80.664
-2518.92
1249.18
-10044
-548.668
721.51
-1442.47
5893.39
-547.207
3355.96
-419.613
-3476.13
-1404.02
-896.526
-2259.29
3858.46
-3555.67
6608.28
-4520.66
3846.72
-4271.41
-4287.72
-3099.54
-12009.3
-1473.48
-16266.2
173.181
-12198.4
291.226
-596.925
3226.2
13277.6
15523.1
-1306.27
4088.32
-1514.04
3530.33
172.407
-4205.38
1363.98
-11235.6
-508.503
2593.99
-1172.94
6557.83
-495.876
2678.89
-874.865
-3097.15
-2089.49
318.1
-3087.23
4856.19
-4366.77
7887.82
-5193.65
4673.61
-5037.75
-4443.63
-4237.75
-12809.3
-2932.87
-17571.1
-1267.45
-13863.9
73.4714
-1937.82
2433.2
10917.8
16141.1
-1770.65
5858.97
-1911.42
3671.11
137.539
-6254.34
1581.27
-12679.3
-223.28
4398.54
-828.382
7162.93
-635.973
2486.48
-1463.11
-2270.01
-2677.21
1532.2
-3763.91
5942.9
-5010.34
9134.24
-5689.13
5352.4
-5688.22
-4444.54
-5323.51
-13174
-4292.26
-18602.4
-2501.94
-15654.2
-496.391
-3943.37
1503.81
8917.65
15966.6
-2120.63
7979.6
-2298.73
3849.21
-14.7926
-8538.28
1824.4
-14518.5
211.577
6011.36
-500.077
7874.58
-922.481
2908.88
-2049.23
-1143.26
-3116.96
2599.93
-4236.5
7062.44
-5429.59
10327.3
-6033.3
5956.11
-6282.75
-4195.09
-6369.78
-13087
-5650.02
-19322.1
-3880.51
-17423.7
-1661.97
-6161.91
471.578
6784.11
15099.9
-2498.39
10478
-2760.33
4111.15
-315.717
-10982.9
1979.47
-16813.7
719.567
7271.26
-199.78
8793.93
-1265.92
3975.01
-2539.71
130.535
-3444.07
3504.28
-4541.34
8159.72
-5662.35
11448.3
-6303.35
6597.11
-6879.23
-3619.21
-7373.91
-12592.4
-6970.76
-19725.3
-5319.65
-19074.8
-3028.34
-8453.22
-553.642
4309.41
13548.4
-2935.28
13413.3
-3350.83
4526.7
-814.451
-13519.3
1969.46
-19597.6
1190.95
8049.76
128.328
9856.55
-1448.03
5551.37
-2858.72
1541.22
-3674.47
4320.02
-4717.41
9202.66
-5769.3
12500.2
-6556.36
7384.17
-7466.03
-2709.54
-8276.22
-11782.2
-8197.67
-19803.8
-6712.16
-20560.3
-4339.37
-10826
-1548.63
1518.68
11467
-3440.18
16853.4
-4119.61
5206.13
-1541.59
-16097.3
1762.71
-22901.9
1489.32
8323.15
482.178
10863.7
-1378.61
7412.17
-3018.95
3181.56
-3815.18
5116.26
-4782.98
10170.5
-5792.48
13509.7
-6794.39
8386.08
-7967.23
-1536.7
-8976.54
-10772.9
-9258.58
-19521.8
-8071.28
-21747.6
-5482.39
-13414.9
-2128.88
-1834.84
7482.33
-4050.61
20904.1
-5102.64
6258.15
-2508.81
-18691.1
1350.48
-26761.2
1561.12
8112.5
792.211
11632.6
-1090.49
9294.87
-2964.36
5055.42
-3844.15
5996.04
-4744.88
11071.2
-5749.06
14513.9
-6981.81
9618.82
-8302.99
-215.514
-9380.23
-9695.63
-10016.8
-18885.2
-9420.68
-22343.7
-6845.38
-15990.2
-3838.82
-4841.4
8532.14
-4807.37
25711.4
-6320.73
7771.52
-3714.18
-21297.7
750.685
-31226.1
1457.57
7405.62
1017.08
12073.1
-714.499
11026.5
-2718.19
7059.11
-3730.41
7008.27
-4607.42
11948.2
-5630.74
15537.2
-7056.94
11045
-8433.1
1160.65
-9482.79
-8645.94
-10325.2
-18042.8
-10619.1
-22049.8
-9547.97
-17061.3
-7401.39
-6987.99
7975.1
-5729.94
31441.4
-7770.43
9812.01
-5120.39
-23947.7
20.7439
-36367.2
1267.65
6158.71
1188.9
12151.8
-340.075
12555.4
-2323.13
9042.16
-3455.44
8140.58
-4375.8
12868.6
-5412.92
16574.3
-6975.39
12607.5
-8364.51
2549.76
-9398.26
-7612.19
-10236.1
-17205
-10824
-21461.8
-10949.2
-16936.2
-9778.69
-8158.47
6193.57
-6810.91
38252.3
-9410.65
12411.8
-6651.4
-26707
-772.952
-42245.7
1049.9
4335.86
1345.02
11856.7
35.6999
13864.7
-1741.76
10819.6
-2968.07
9366.89
-4049.18
13949.7
-5072.16
17597.3
-6683.69
14219
-8041.67
3907.74
-9160.61
-6493.26
-10042.8
-16322.8
-10253.9
-21250.7
-10201.7
-16988.5
-9482.46
-8877.75
3826.35
-8034.21
46286.5
-11160
15537.6
-8234.04
-29633
-1556.01
-48923.7
806.99
1972.85
1505.2
11158.5
430.143
14939.8
-918.325
12168.1
-2163.95
10612.5
-3583.27
15369
-4602.7
18616.7
-6143.45
15759.8
-7420.27
5184.55
-8709.16
-5204.38
-9911.78
-15120.2
-9923.18
-21239.3
-8675.25
-18236.4
-7002.13
-10550.9
900.725
-9308.11
55594.6
-12913.8
19143.3
-9790.21
-32756.6
-2256.42
-56457.5
499.297
-782.861
1762.31
9895.5
921.657
15780.5
109.21
12980.5
-987.206
11708.9
-2840.6
17222.4
-4023.51
19799.7
-5431.46
17167.7
-6641.59
6394.69
-8061.23
-3784.74
-9622.49
-13558.9
-10083.6
-20778.2
-8244.24
-20075.7
-4327.61
-14467.5
-3695
-10801.2
-14526.4
-11217.8
-2951.76
915.76
2311.83
1652.18
1165.4
458.654
-1632.11
-3320.55
-4696.85
-5938.01
-7375.46
-8970.51
-10031.4
-9062.45
-4859.15
-664.216
1639.22
-1074.66
1385.44
-1494.36
1394.7
-1829.95
1310.59
-2126.82
1271.86
-2373.62
1221.81
-2578.42
1179.79
-2740.78
1137.36
-2862.82
1097.04
-2945.35
1057.53
-2988.77
1018.42
-2991.08
977.304
-2946.35
930.275
-2843.69
872.341
-2667.4
798.702
-2400.57
708.171
-2029.64
604.077
-1530.66
476.013
-859.38
303.724
115.62
-213.58
1852.8
-480.503
1652.37
-761.576
1675.78
-1005
1554.01
-1240.74
1507.6
-1447.23
1428.3
-1633.38
1365.95
-1795.25
1299.23
-1935.61
1237.4
-2054.16
1176.09
-2149.25
1113.51
-2213.02
1041.07
-2227.32
944.567
-2157.1
802.128
-1954.71
596.314
-1601.79
355.247
-1159.55
161.834
-705.49
21.9546
-276.1
-125.666
-160.48
-175.428
2028.22
-373.168
1850.11
-535.111
1837.72
-657.315
1676.22
-770.156
1620.44
-851.683
1509.83
-920.204
1434.47
-968.268
1347.29
-1001.81
1270.94
-1019.65
1193.92
-1022.9
1116.76
-1010.17
1028.34
-977.913
912.315
-916.577
740.792
-811.879
491.616
-663.103
206.471
-518.915
17.6463
-392.291
-104.67
-246.942
-271.015
-407.422
4.17248
2024.05
-52.4463
1906.73
-72.4877
1857.76
-74.5314
1678.26
-73.7659
1619.67
-54.5833
1490.64
-28.7085
1408.6
11.1008
1307.48
61.6314
1220.41
124.396
1131.16
197.544
1043.62
275.691
950.197
344.95
843.055
376.986
708.757
332.211
536.39
203.552
335.13
68.9648
152.233
18.6525
-54.3576
-42.1911
-210.172
-449.613
103.858
1920.19
89.0184
1921.57
125.831
1820.95
170.339
1633.75
221.389
1568.62
277.377
1434.65
339.673
1346.3
407.646
1239.51
483.367
1144.69
565.926
1048.6
654.577
954.965
743.567
861.207
821.525
765.096
867.712
662.57
853.949
550.153
763.671
425.408
618.019
297.884
411.507
152.155
211.421
-10.0871
-238.192
107.953
1812.24
123.951
1905.57
171.799
1773.1
224.826
1580.73
282.648
1510.8
342.998
1374.3
407.397
1281.9
476.128
1170.78
548.029
1072.79
621.073
975.555
692.442
883.596
758.68
794.968
815.668
708.109
856.857
621.381
871.883
535.127
843.093
454.198
755.929
385.048
583.48
324.604
320.978
252.415
82.7867
56.5886
1755.65
97.8454
1864.31
144.292
1726.65
184.851
1540.17
226.174
1469.48
267.28
1333.2
305.084
1244.1
343.899
1131.96
383.673
1033.02
433.925
925.303
502.133
815.388
596.445
700.656
716.164
588.389
847.588
489.957
955.762
426.953
987.423
422.537
900.444
472.026
681.501
543.547
360.673
573.243
443.46
-54.3488
1810
-50.2616
1860.22
-66.1816
1742.57
-108.979
1582.97
-152.659
1513.16
-213.058
1393.6
-285.445
1316.48
-365.857
1212.37
-440.26
1107.42
-489.361
974.404
-498.945
824.971
-461.192
662.903
-379.012
506.209
-260.782
371.727
-118.945
285.115
32.77
270.822
165.146
339.651
227.748
480.944
163.34
637.652
606.799
-114.65
1924.65
-218.972
1964.55
-316.301
1839.9
-439.014
1705.68
-566.386
1640.53
-710.889
1538.1
-867.855
1473.45
-1033.82
1378.34
-1197.82
1271.42
-1348.48
1125.07
-1482.01
958.494
-1597.21
778.109
-1691.89
600.885
-1749.04
428.882
-1730.65
266.72
-1593.02
133.192
-1314.05
60.68
-887.054
53.9517
-374.648
125.246
232.151
64.0865
1860.56
-84.165
2112.8
-184.953
1940.69
-264.4
1785.12
-336.605
1712.74
-407.54
1609.03
-474.595
1540.51
-541.107
1444.85
-610.68
1340.99
-688.043
1202.44
-776.371
1046.82
-875.464
877.202
-980.816
706.236
-1083.99
532.057
-1171.26
353.988
-1220.96
182.889
-1196.62
36.342
-1012.59
-130.072
-599.395
-287.954
-367.243
316.842
1543.72
275.84
2153.8
210.512
2006.02
201.738
1793.9
229.13
1685.35
265.673
1572.49
317.588
1488.59
372.261
1390.18
423.457
1289.79
454.842
1171.05
460.333
1041.33
436.037
901.499
385.016
757.257
308.011
609.063
205.441
456.559
92.7511
295.578
9.66984
119.423
-36.7113
-83.691
-97.0403
-227.626
-464.284
371.765
1171.96
451.562
2074
429.652
2027.93
444.67
1778.88
505.216
1624.8
576.706
1501
660.794
1404.5
747.116
1303.85
833.025
1203.88
906.244
1097.83
960.17
987.404
988.53
873.139
988.666
757.121
957.355
640.374
890.002
523.911
780.723
404.857
617.783
282.363
391.993
142.099
190.813
-26.4452
-273.471
237.168
934.788
318.007
1993.16
338.102
2007.83
367.48
1749.5
422.951
1569.33
485.927
1438.03
553.71
1336.72
620.453
1237.11
684.543
1139.79
739.966
1042.41
781.584
945.786
804.272
850.451
804.52
756.873
780.259
664.634
730.645
573.525
653.732
481.77
545.008
391.088
395.134
291.972
197.74
170.949
-75.731
55.3234
879.465
89.7221
1958.77
143.261
1954.29
195.247
1697.52
254.964
1509.61
317.813
1375.18
380.77
1273.76
439.852
1178.03
493.597
1086.05
539.923
996.084
577.32
908.388
605.409
822.363
625.333
736.949
637.65
652.317
638.825
572.35
615.495
505.1
547.439
459.144
414.497
424.914
211.361
374.084
135.63
-86.9577
966.422
-57.2173
1929.02
39.9929
1857.08
118.28
1619.23
190.914
1436.98
264.362
1301.73
338.416
1199.71
412.294
1104.15
486.381
1011.96
562.624
919.841
643.203
827.809
729.747
735.819
820.808
645.888
904.056
569.069
953.346
523.059
933.815
524.631
819.794
573.165
605.095
639.613
322.133
657.046
457.763
-148.864
1115.29
-137.604
1917.76
-27.1999
1746.68
66.4423
1525.59
128.39
1375.03
174.774
1255.34
224.007
1150.47
285.598
1042.56
366.108
931.45
471.174
814.775
603.229
695.754
758.332
580.715
919.258
484.962
1050.35
437.976
1104.16
469.25
1043.09
585.699
859.758
756.5
581.154
918.217
273.591
964.61
731.353
-78.7041
1193.99
-125.902
1964.96
-187.585
1808.36
-230.651
1568.65
-277.794
1422.17
-344.135
1321.68
-411.461
1217.8
-467.985
1099.08
-508.334
971.799
-530.87
837.31
-535.297
700.18
-521.794
567.212
-490.221
453.388
-434.152
381.907
-341.358
376.456
-210.091
454.431
-72.8592
619.269
14.5851
830.772
20.554
958.641
751.907
166.531
1027.46
323.166
1808.33
207.464
1924.06
-30.6635
1806.78
-265.969
1657.48
-480.728
1536.44
-685.059
1422.13
-884.044
1298.07
-1080.82
1168.58
-1278.85
1035.33
-1477.2
898.537
-1666.72
756.732
-1826.28
612.947
-1914.45
470.071
-1873.82
335.827
-1656.86
237.479
-1264.33
226.734
-762.127
328.569
-281.332
477.845
470.576
422.3
605.159
835.465
1395.16
862.583
1896.95
626.087
2043.28
342.922
1940.64
104.435
1774.93
-93.282
1619.85
-269.452
1474.24
-434.579
1333.7
-593.36
1194.11
-746.868
1052.04
-897.066
906.931
-1041.31
757.192
-1171.38
600.138
-1273.07
437.518
-1313.83
278.235
-1236.09
149.001
-979.685
72.1606
-538.869
37.0291
-68.2933
271.451
634.579
908.829
1057.4
1131.95
1179.78
1215.32
1235.56
1239.5
1225.8
1194.27
1125.9
1033.88
910.65
751.145
555.054
343.257
155.949
40.3589
)
;

boundaryField
{
    outletWallLeft
    {
        type            calculated;
        value           nonuniform List<scalar> 
40
(
-849.585
-1057.04
-1266.64
-1479.97
-1697.55
-1913.26
-2123.59
-2322.9
-2514.36
-2684.38
-2858.78
-2976.94
-3174.74
-3135.55
-3582.02
-2844.04
-4744.9
-1096.77
-12243.1
14585.5
86586.8
-79438.7
-43783.9
-3633.59
478.287
-7678.43
1812.21
7712.21
19642.4
25872.9
28843.3
28934.9
20977.4
3624.98
1766.85
-9858.71
-14587.3
-101039
-251898
364638
)
;
    }
    fineWallsLeft
    {
        type            calculated;
        value           uniform 0;
    }
    fineFrontAndBackLeft
    {
        type            calculated;
        value           nonuniform List<scalar> 
880
(
-2.18383e-10
-3.95833e-11
-3.54189e-11
-1.02336e-12
-2.40813e-12
-5.65506e-13
1.2684e-12
6.21538e-12
3.70392e-12
-1.85978e-13
-7.29218e-12
-3.08343e-12
-1.10322e-11
-1.22388e-11
-2.73537e-12
-7.6089e-12
-1.48957e-12
-2.95074e-12
-2.7453e-13
5.72817e-13
1.83412e-13
4.91915e-12
-5.49545e-13
-5.5891e-13
-4.57884e-13
-6.19471e-13
-5.12677e-13
-5.47704e-13
-6.15579e-13
-7.56519e-13
-8.68983e-13
-6.35554e-12
-1.17483e-12
-1.1703e-12
-1.142e-12
-1.04089e-12
-1.05238e-12
-1.02634e-12
-9.3259e-13
-1.14348e-12
-1.06785e-11
-1.59699e-12
-1.49783e-12
-9.69098e-12
-1.64421e-12
-1.66464e-12
-1.6277e-12
-9.44817e-12
-1.37002e-12
-1.29821e-12
-5.90353e-12
-8.76895e-13
-3.53985e-13
-1.62548e-12
3.20091e-11
4.0826e-12
6.11477e-13
9.04356e-14
4.08046e-13
2.09167e-13
8.51915e-12
5.65974e-11
8.23906e-11
5.71087e-11
2.79173e-11
-4.16491e-12
-5.0804e-12
-2.65738e-12
-8.00794e-13
1.22058e-12
-4.21106e-12
-1.0956e-11
-4.54313e-12
-2.76531e-12
-4.50955e-12
-8.32602e-12
-1.62269e-11
-1.44654e-11
4.96116e-12
1.15034e-11
7.05931e-11
9.91539e-11
6.94304e-11
3.96747e-11
4.10063e-12
-5.42866e-12
-3.75872e-12
-1.46599e-12
1.42399e-12
-1.22863e-12
-9.85923e-12
-5.15749e-12
-4.63819e-12
-5.05121e-12
-5.46755e-12
-1.18804e-11
-1.78811e-11
2.64549e-13
1.45275e-11
8.53869e-11
1.1959e-10
8.25719e-11
4.19364e-11
1.48885e-11
-3.46073e-12
-5.28746e-12
-2.78771e-12
1.53809e-12
1.46941e-12
-8.67269e-12
-6.57112e-12
-6.77933e-12
-6.66331e-12
-4.47177e-12
-6.12056e-12
-1.32026e-11
-1.93561e-11
1.74809e-11
1.01089e-10
1.4434e-10
9.91538e-11
4.39795e-11
2.47286e-11
9.17314e-13
-6.05974e-12
-4.29803e-12
1.67218e-12
3.33596e-12
-7.47745e-12
-8.28317e-12
-8.9068e-12
-8.8909e-12
-5.64348e-12
-4.02636e-12
-6.64177e-12
-1.4822e-11
2.03039e-11
1.17542e-10
1.72921e-10
1.19514e-10
4.78862e-11
3.1486e-11
8.1641e-12
-1.9668e-12
-2.75084e-12
2.29464e-12
4.26605e-12
-6.65064e-12
-1.00405e-11
-1.0945e-11
-1.11362e-11
-7.48505e-12
-4.31331e-12
-1.74532e-12
-8.97305e-12
2.29947e-11
1.3438e-10
2.03863e-10
1.42417e-10
5.2281e-11
3.21189e-11
1.60163e-11
7.27417e-12
2.88857e-12
3.6225e-12
4.36254e-12
-6.30583e-12
-1.17138e-11
-1.27649e-11
-1.31061e-11
-9.28861e-12
-6.1729e-12
-4.62865e-13
-4.83145e-13
2.55903e-11
1.51225e-10
2.35493e-10
1.66325e-10
5.63878e-11
2.74763e-11
1.97373e-11
1.48511e-11
8.26919e-12
4.88391e-12
3.85327e-12
-6.28979e-12
-1.32287e-11
-1.43791e-11