/*--------------------------------*- C++ -*----------------------------------*\
| =========                 |                                                 |
| \\      /  F ield         | OpenFOAM: The Open Source CFD Toolbox           |
|  \\    /   O peration     | Version:  4.1                                   |
|   \\  /    A nd           | Web:      www.OpenFOAM.org                      |
|    \\/     M anipulation  |                                                 |
\*---------------------------------------------------------------------------*/
FoamFile
{
    version     2.0;
    format      ascii;
    class       volVectorField;
    location    "24";
    object      U;
}
// * * * * * * * * * * * * * * * * * * * * * * * * * * * * * * * * * * * * * //

dimensions      [0 1 -1 0 0 0 0];

internalField   nonuniform List<vector> 
1680
(
(-6.00984e-14 -360.573 -304.596)
(-2.86058e-14 89.269 -273.372)
(-9.7472e-15 -39.3475 -72.0419)
(-7.39554e-16 1.69897 14.8883)
(-1.65753e-15 12.5387 16.7065)
(-1.55626e-16 3.56467 8.1408)
(9.16637e-16 2.09893 2.92167)
(1.71046e-15 4.63699 1.14764)
(1.01931e-15 4.48307 -2.0939)
(-1.86787e-16 4.37383 -2.72736)
(-2.00679e-15 6.0132 -4.60945)
(-2.22385e-15 5.68752 -3.07619)
(-3.03604e-15 6.47385 -3.01442)
(-3.3681e-15 7.9141 -0.695293)
(-1.97678e-15 6.4976 0.640615)
(-2.09395e-15 8.93528 2.53658)
(-1.07647e-15 6.79364 2.65464)
(-8.12037e-16 7.29875 3.96366)
(-7.55501e-17 7.67561 5.51716)
(4.1396e-16 4.30779 1.98121)
(7.52461e-16 5.88457 4.99368)
(1.97259e-15 4.78818 3.58531)
(-2.25454e-15 6.14449 8.01626)
(-2.29297e-15 6.4519 8.11995)
(-1.8785e-15 6.61917 8.34723)
(-2.54142e-15 6.73417 8.72487)
(-2.10329e-15 6.87838 9.20984)
(-2.24699e-15 6.96846 9.7519)
(-2.52545e-15 7.10501 10.3468)
(-3.10367e-15 7.06608 10.8585)
(-3.56506e-15 7.34424 11.5964)
(-2.54859e-15 7.08714 10.6106)
(-4.8198e-15 8.04491 13.3289)
(-4.80124e-15 8.18414 13.6687)
(-4.68514e-15 8.27664 13.9785)
(-4.27032e-15 8.25661 14.2598)
(-4.31744e-15 8.38596 14.5252)
(-4.21064e-15 8.2236 14.6467)
(-3.82601e-15 8.60804 15.4572)
(-4.69119e-15 8.20643 14.252)
(-3.71749e-15 11.0701 15.7298)
(-2.56544e-15 7.66605 11.1017)
(-2.3404e-15 6.74741 10.4699)
(-3.37371e-15 7.52779 13.7178)
(-2.6413e-15 5.40216 9.816)
(-2.67412e-15 5.22393 9.62716)
(-2.61478e-15 4.37818 9.31261)
(-3.28918e-15 4.22651 11.3968)
(-2.20084e-15 2.87397 7.45586)
(-2.08548e-15 2.68994 7.03718)
(-2.05519e-15 1.78753 6.98177)
(-1.40867e-15 1.05942 3.47742)
(-5.68651e-16 0.914793 2.83903)
(-2.61121e-15 0.853442 2.85171)
(1.61441e-14 -0.134692 -0.268456)
(6.5584e-15 -0.386002 -3.52984)
(9.82292e-16 0.0927985 -3.7302)
(1.45278e-16 0.334544 -4.07824)
(1.42053e-16 -0.135696 -5.02363)
(3.36011e-16 -0.238789 -3.22967)
(1.89314e-15 -24.0613 10.3803)
(1.25772e-14 -8.26781 27.5438)
(1.8309e-14 12.609 25.9687)
(1.26908e-14 23.0199 14.6867)
(6.20383e-15 2.28874 -3.0142)
(-9.25535e-16 -2.62648 -4.27982)
(-1.12898e-15 -5.58307 -5.91095)
(-5.90529e-16 -4.5557 -3.22419)
(-1.77954e-16 -4.2108 -4.06663)
(2.7124e-16 -6.79086 -2.35953)
(-9.3579e-16 -7.50092 2.30239)
(-2.43466e-15 -6.41748 5.66934)
(-1.00958e-15 -2.76266 7.82501)
(-6.14514e-16 0.540542 10.326)
(-1.00212e-15 3.73946 12.3898)
(-1.85023e-15 6.35882 14.2689)
(-3.60598e-15 7.05847 16.4507)
(-3.21454e-15 6.82104 14.8132)
(1.10248e-15 4.07674 7.16429)
(2.55631e-15 -28.3881 8.67687)
(1.56874e-14 -9.82774 30.2562)
(2.20342e-14 13.8331 27.0289)
(1.5429e-14 26.2055 16.2937)
(8.8166e-15 4.29573 -4.35055)
(9.11251e-16 -2.15665 -6.34858)
(-1.20637e-15 -5.75603 -7.73819)
(-8.35272e-16 -4.77094 -5.59334)
(-3.25776e-16 -4.23488 -5.12153)
(3.16443e-16 -7.33931 -5.40302)
(-2.73028e-16 -8.42726 -0.684898)
(-2.19094e-15 -7.06068 4.56967)
(-1.14611e-15 -3.25256 7.08791)
(-1.03071e-15 0.0951292 9.90993)
(-1.12249e-15 3.40607 11.4461)
(-1.21501e-15 6.01876 12.1326)
(-2.64008e-15 6.81999 13.6545)
(-3.97358e-15 7.56942 14.3387)
(5.87886e-17 6.02072 10.2285)
(3.22832e-15 -32.8247 6.59505)
(1.89749e-14 -11.6001 32.4723)
(2.65756e-14 15.1432 26.8148)
(1.83493e-14 29.5778 17.3729)
(9.3192e-15 6.59013 -5.48524)
(3.30856e-15 -1.63644 -8.376)
(-7.69051e-16 -5.91193 -9.49753)
(-1.17499e-15 -5.06259 -7.79423)
(-6.19491e-16 -4.25139 -6.35248)
(3.41799e-16 -7.6598 -7.36311)
(3.26536e-16 -9.49474 -3.79654)
(-1.92726e-15 -7.97348 3.51207)
(-1.46025e-15 -3.81815 6.51639)
(-1.50652e-15 -0.322979 9.53715)
(-1.48074e-15 3.23913 10.7916)
(-9.93727e-16 5.96662 10.4913)
(-1.36012e-15 6.535 10.2563)
(-2.93391e-15 7.59985 11.7177)
(-4.30135e-15 6.99574 12.2348)
(3.88465e-15 -37.3006 4.16724)
(2.24642e-14 -13.4691 33.9804)
(3.20755e-14 16.53 25.0291)
(2.20342e-14 32.9697 17.6478)
(9.77323e-15 9.15622 -6.46149)
(5.49525e-15 -1.03554 -10.288)
(2.03848e-16 -6.07506 -11.0146)
(-1.34661e-15 -5.37701 -9.50186)
(-9.55118e-16 -4.32654 -7.7338)
(3.71596e-16 -7.83399 -8.45162)
(7.41325e-16 -10.5982 -5.93504)
(-1.66166e-15 -9.12084 2.61822)
(-1.8407e-15 -4.4471 5.95547)
(-1.97929e-15 -0.730588 8.97949)
(-1.97575e-15 3.15098 10.1632)
(-1.25411e-15 6.19185 9.46149)
(-8.94748e-16 6.48586 7.65742)
(-1.47595e-15 7.26734 8.02212)
(-3.29379e-15 6.9782 11.7708)
(4.51198e-15 -41.7363 1.41027)
(2.61204e-14 -15.2984 34.8016)
(3.84269e-14 18.0099 21.6453)
(2.65587e-14 36.2151 16.9324)
(1.06414e-14 11.8689 -7.45093)
(6.99688e-15 -0.316519 -12.1218)
(1.81424e-15 -6.30948 -12.4883)
(-4.37066e-16 -5.6926 -10.9004)
(-6.11298e-16 -4.46473 -9.17254)
(5.0992e-16 -8.00828 -9.03799)
(9.4801e-16 -11.703 -6.5891)
(-1.47792e-15 -10.3478 2.08701)
(-2.23123e-15 -5.08311 5.29882)
(-2.43222e-15 -1.12781 8.10628)
(-2.47471e-15 3.06235 9.25208)
(-1.66334e-15 6.54969 8.5156)
(-9.58513e-16 6.72479 6.08138)
(-3.8785e-16 6.90356 4.96464)
(-1.99401e-15 6.30295 9.50248)
(5.10993e-15 -46.046 -1.6254)
(2.98622e-14 -16.9717 35.159)
(4.53029e-14 19.6241 16.976)
(3.16482e-14 39.1714 15.2353)
(1.1618e-14 14.6127 -8.51515)
(7.13754e-15 0.501125 -13.4363)
(3.55918e-15 -6.57503 -13.9898)
(1.61648e-15 -6.00816 -12.3562)
(6.41905e-16 -4.70081 -10.6769)
(8.05001e-16 -8.34616 -9.20978)
(9.69454e-16 -12.8171 -5.83288)
(-1.40129e-15 -11.4881 1.85938)
(-2.60306e-15 -5.65268 4.50953)
(-2.83664e-15 -1.48285 6.92598)
(-2.91247e-15 2.95521 8.0018)
(-2.06414e-15 6.92734 7.20475)
(-1.37175e-15 7.0623 4.64524)
(-1.02859e-16 6.76085 3.29447)
(-1.07366e-16 5.38435 6.86888)
(5.68674e-15 -50.1371 -4.88277)
(3.36056e-14 -18.3898 35.4273)
(5.23318e-14 21.4389 11.5591)
(3.69612e-14 41.7541 12.7813)
(1.25306e-14 17.32 -9.61533)
(6.10585e-15 1.42668 -12.6692)
(4.38608e-15 -6.79125 -14.93)
(3.30025e-15 -6.32274 -13.6757)
(1.8376e-15 -5.09014 -11.9355)
(1.08531e-15 -8.97614 -8.69765)
(8.56283e-16 -13.9101 -4.09128)
(-1.39773e-15 -12.4011 1.67252)
(-2.93971e-15 -6.10768 3.59755)
(-3.19536e-15 -1.77017 5.53779)
(-3.29561e-15 2.85768 6.55142)
(-2.39843e-15 7.3389 5.45372)
(-1.77511e-15 7.33276 2.67255)
(-5.20052e-16 6.77057 1.9071)
(1.78262e-15 3.29184 4.9554)
(6.24933e-15 -54.0699 -8.32074)
(3.73121e-14 -19.5518 35.9917)
(5.93325e-14 23.5366 5.84642)
(4.22156e-14 43.9017 9.91024)
(1.34489e-14 19.366 -10.6196)
(3.89022e-15 2.40628 -5.82109)
(3.88705e-15 -6.53262 -13.6048)
(3.55667e-15 -6.56118 -14.1281)
(2.16148e-15 -5.69474 -12.3751)
(1.14746e-15 -9.92303 -7.15296)
(6.67233e-16 -14.8849 -2.01282)
(-1.42116e-15 -13.0095 1.30677)
(-3.22669e-15 -6.44717 2.58762)
(-3.49893e-15 -1.99444 4.04359)
(-3.59985e-15 2.79922 5.03696)
(-2.68266e-15 7.84497 3.29932)
(-2.09732e-15 7.55057 0.167161)
(-1.29612e-15 6.59877 -0.676404)
(1.89781e-15 2.97894 5.38965)
(6.80095e-15 -57.7173 -11.9529)
(4.10286e-14 -20.4004 37.2262)
(6.63867e-14 25.9983 -0.0388488)
(4.73172e-14 45.5757 6.86674)
(1.46124e-14 19.7821 -11.3429)
(6.554e-16 1.87256 4.85595)
(2.56961e-15 -5.54627 -10.0994)
(2.73908e-15 -6.51527 -13.3097)
(1.78099e-15 -6.47657 -11.5609)
(9.61317e-16 -11.0556 -4.55552)
(4.58242e-16 -15.5942 -0.275626)
(-1.44019e-15 -13.3018 0.707144)
(-3.45177e-15 -6.68287 1.5069)
(-3.7312e-15 -2.13855 2.50858)
(-3.79171e-15 2.78428 3.52846)
(-2.89986e-15 8.49456 0.75381)
(-2.34379e-15 7.86746 -2.74977)
(-1.96112e-15 6.16125 -4.61106)
(-6.56959e-17 2.45235 4.64831)
(7.33036e-15 -61.4756 -15.8067)
(4.48342e-14 -21.0576 39.2868)
(7.37056e-14 28.8975 -6.25252)
(5.23431e-14 46.7559 3.6167)
(1.61515e-14 19.3309 -11.9599)
(3.54777e-16 1.99204 4.23591)
(1.39588e-15 -3.64589 -6.97067)
(1.65815e-15 -6.1968 -11.7508)
(1.19795e-15 -7.44688 -9.36626)
(6.10472e-16 -12.201 -1.4173)
(2.66386e-16 -15.9325 0.721278)
(-1.43908e-15 -13.3565 -0.0772078)
(-3.61066e-15 -6.84562 0.380272)
(-3.87751e-15 -2.27714 1.06814)
(-3.87293e-15 2.82514 1.94486)
(-3.0388e-15 9.31683 -2.09659)
(-2.49629e-15 8.3155 -5.91144)
(-2.26447e-15 5.92458 -8.40207)
(-1.27149e-15 0.288978 -1.45419)
(7.83592e-15 -64.649 -19.9742)
(4.89119e-14 -21.3068 42.4979)
(8.15322e-14 32.3494 -13.0733)
(5.7397e-14 47.3742 0.0116049)
(1.73092e-14 19.298 -12.622)
(1.85192e-15 2.27796 -2.13214)
(2.95346e-16 -2.26822 -4.36009)
(6.57298e-16 -5.90639 -9.51658)
(6.77382e-16 -8.50842 -5.8997)
(1.98689e-16 -13.0904 1.34041)
(9.94119e-17 -15.8383 0.992272)
(-1.42432e-15 -13.2068 -0.969921)
(-3.66887e-15 -6.94028 -0.853883)
(-4.01751e-15 -2.2586 -0.0966847)
(-3.86755e-15 3.11105 0.0912166)
(-3.11252e-15 10.2742 -5.19161)
(-2.49416e-15 8.81342 -8.6757)
(-2.27401e-15 5.94178 -11.4452)
(-1.88346e-15 -1.18935 -5.47198)
(8.28305e-15 -69.0152 -24.413)
(5.33507e-14 -21.4731 46.447)
(9.0275e-14 36.5568 -21.0276)
(6.25865e-14 47.3893 -3.8738)
(1.74153e-14 19.1349 -13.1029)
(1.31687e-15 1.06668 -2.65512)
(-6.24227e-16 -2.25454 -2.46687)
(3.73512e-18 -5.89746 -6.96256)
(2.37815e-16 -9.64837 -1.76502)
(-1.84894e-16 -13.6225 3.0113)
(-5.64781e-17 -15.4844 0.786761)
(-1.40661e-15 -12.9871 -1.91178)
(-3.57829e-15 -7.08916 -2.2775)
(-4.17172e-15 -2.34369 -1.57747)
(-3.81753e-15 3.60115 -1.96705)
(-3.12924e-15 11.2759 -8.51765)
(-2.19237e-15 9.2506 -9.51678)
(-2.06927e-15 5.99078 -12.9198)
(-2.0968e-15 -2.67418 -6.26398)
(8.9179e-15 -70.7859 -28.9606)
(5.88128e-14 -20.5896 52.0868)
(9.99541e-14 41.8467 -30.1463)
(6.79875e-14 46.6628 -8.22635)
(1.7203e-14 18.3902 -13.2623)
(4.21414e-16 1.36904 -1.64502)
(-1.30909e-15 -2.02214 -1.25278)
(-2.60241e-16 -5.94123 -4.02702)
(-1.72397e-16 -10.4501 1.74684)
(-4.88712e-16 -13.5452 3.59411)
(-2.19278e-16 -14.7912 0.388536)
(-1.40369e-15 -12.5202 -2.82845)
(-3.34288e-15 -6.99504 -3.80296)
(-4.10949e-15 -2.08265 -3.8886)
(-3.71155e-15 4.25626 -4.23617)
(-3.08976e-15 11.9963 -11.6775)
(-1.4643e-15 9.3378 -6.32285)
(-1.54771e-15 6.13075 -10.9166)
(-1.89117e-15 -4.89354 -6.51349)
(9.27257e-15 -78.8983 -32.7889)
(6.44591e-14 -21.0579 57.5335)
(1.10716e-13 47.5272 -40.4486)
(7.34782e-14 45.0169 -12.844)
(1.68759e-14 16.3589 -12.9281)
(-4.62871e-16 -0.691967 4.18672)
(-1.32686e-15 -2.46492 -0.46143)
(-2.72628e-16 -6.57565 -0.724101)
(-5.65103e-16 -11.3294 3.83218)
(-7.1565e-16 -13.4998 3.51259)
(-3.96559e-16 -14.33 -0.0285935)
(-1.42916e-15 -12.2465 -3.67413)
(-3.04006e-15 -7.04951 -5.30212)
(-3.76858e-15 -2.40224 -6.37865)
(-3.58233e-15 4.89766 -6.65643)
(-2.99264e-15 11.8971 -14.003)
(-4.54309e-16 8.58261 1.34575)
(-9.97444e-16 6.85035 -6.33718)
(-1.5343e-15 -4.25574 -7.25417)
(1.10479e-14 -73.451 -36.5986)
(7.67875e-14 -14.2331 68.8878)
(1.22973e-13 53.4264 -52.1501)
(7.86419e-14 42.2123 -17.1289)
(1.64661e-14 13.5947 -11.7608)
(-1.10609e-15 -0.0256629 4.11957)
(-1.0202e-15 -1.72927 -0.219765)
(-2.15212e-16 -6.40133 1.70314)
(-9.02547e-16 -10.9461 4.57732)
(-8.93285e-16 -12.4388 3.16897)
(-5.82239e-16 -13.034 -0.336677)
(-1.48455e-15 -11.1574 -4.31252)
(-2.7658e-15 -6.21526 -6.53766)
(-3.3431e-15 -1.31166 -7.83084)
(-3.48638e-15 5.63689 -9.07642)
(-2.87856e-15 10.6379 -15.1944)
(1.77478e-16 7.06464 8.53572)
(-9.49129e-16 8.67312 -2.98643)
(-1.35904e-15 -8.1603 -7.62322)
(1.43364e-14 -100.826 -30.7047)
(1.05538e-13 -27.829 73.821)
(1.37218e-13 63.6957 -66.3618)
(8.25025e-14 38.2912 -20.1379)
(1.45611e-14 10.6819 -9.02017)
(-1.01988e-15 -1.41554 4.32799)
(-6.60408e-16 -3.46451 0.66399)
(-1.65495e-16 -8.2026 3.22805)
(-1.18107e-15 -12.4633 4.64166)
(-1.06668e-15 -13.3222 2.74572)
(-7.87048e-16 -13.5885 -0.621989)
(-1.57373e-15 -11.6422 -4.90105)
(-2.57301e-15 -6.98452 -7.73878)
(-2.96817e-15 -2.71896 -8.70125)
(-3.45857e-15 6.09463 -11.4601)
(-2.80011e-15 8.70377 -15.753)
(6.29857e-17 5.65239 10.5166)
(-1.2627e-15 11.5264 -4.04074)
(-1.36313e-15 -0.698977 -8.89638)
(2.81384e-14 -58.5584 -39.1706)
(1.00741e-13 32.5979 96.1771)
(1.52662e-13 79.7779 -83.4379)
(8.18455e-14 32.2084 -21.1435)
(9.86817e-15 7.19115 -3.87405)
(-8.30717e-16 0.805452 1.97988)
(-3.41729e-16 -0.0394112 -0.360127)
(-7.91159e-17 -5.36035 3.22797)
(-1.34644e-15 -8.92063 4.18048)
(-1.17074e-15 -9.48467 2.52295)
(-9.20009e-16 -9.70892 -0.474442)
(-1.62247e-15 -8.13607 -4.83258)
(-2.43779e-15 -4.11452 -8.07608)
(-2.5946e-15 1.28905 -7.09524)
(-3.53065e-15 7.3163 -13.5425)
(-2.63242e-15 6.53791 -15.4554)
(-5.00416e-17 4.41131 12.3999)
(-1.38214e-15 14.3355 -10.6336)
(-1.39472e-15 -19.5456 -7.92073)
(-1.55673e-14 -178.158 -9.84307)
(8.03471e-14 -47.8946 -71.9781)
(1.66791e-13 71.655 -99.8279)
(6.73053e-14 26.1458 -15.3009)
(1.91602e-15 3.64664 4.03145)
(2.01055e-16 -4.92002 3.9857)
(5.40337e-17 -7.59297 2.58534)
(-2.29413e-16 -12.9975 4.76085)
(-1.75082e-15 -16.8937 3.90202)
(-1.65996e-15 -16.9318 1.71689)
(-1.43995e-15 -16.4018 -1.32047)
(-2.00224e-15 -13.7553 -6.07492)
(-2.62597e-15 -9.39343 -10.2023)
(-2.82987e-15 -4.88919 -10.3775)
(-3.67017e-15 6.90602 -15.5918)
(-2.07227e-15 4.01962 -12.2995)
(4.51037e-16 2.27033 18.9842)
(2.40697e-16 12.6035 -15.9931)
(-1.32073e-15 11.1016 -13.7508)
(1.84912e-13 117.457 -163.95)
(2.75511e-13 -25.4067 -182.461)
(1.7328e-13 55.7241 -95.8023)
(3.11054e-14 14.148 5.98081)
(-1.96655e-15 3.07694 9.31083)
(3.50514e-16 7.37935 11.7872)
(4.9242e-16 8.02311 -3.13549)
(3.90816e-16 3.91 0.828801)
(-6.36049e-16 2.53515 2.45969)
(-2.41753e-16 2.33688 3.09056)
(9.06952e-18 2.23451 2.03178)
(-6.47044e-16 2.86956 -1.5284)
(-1.20148e-15 3.65165 -3.48335)
(-4.91371e-15 8.07493 -18.329)
(-3.52185e-15 8.77868 -15.088)
(-1.01691e-15 1.21084 -5.24906)
(8.8057e-16 4.17886 11.8602)
(4.57456e-15 20.1013 0.898394)
(-1.19477e-15 -59.3851 -6.33795)
(-1.34291e-12 -441.458 831.319)
(1.67053e-13 159.168 -151.267)
(9.9496e-14 86.9605 -48.3033)
(-4.44455e-15 4.95343 38.3792)
(5.05765e-16 3.66965 4.18117)
(-6.01156e-16 -9.74319 21.0499)
(-1.10929e-15 -18.7325 18.8364)
(-2.66306e-15 -31.8266 13.5107)
(-6.95298e-15 -39.1837 5.25495)
(-8.24563e-15 -38.4886 -2.43165)
(-8.17743e-15 -35.902 -9.29712)
(-8.22655e-15 -30.0308 -19.3365)
(-8.04331e-15 -18.101 -25.2791)
(-8.01875e-15 -10.2631 -31.6615)
(-2.01199e-15 4.0215 -8.99912)
(1.78726e-16 -0.151169 1.92555)
(5.06379e-16 3.38494 -11.6196)
(6.38092e-15 44.7332 20.6684)
(1.04018e-14 84.8425 56.4883)
(-3.40605e-16 4.97555 9.16292)
(-1.42028e-14 9.66368 16.5993)
(-1.10062e-14 9.7277 16.8001)
(-1.10023e-14 9.48569 16.1403)
(-1.01817e-14 9.46886 16.023)
(-1.33052e-14 9.55101 16.0061)
(-9.98402e-15 9.6012 15.9975)
(-9.54181e-15 9.65973 15.9836)
(-9.13308e-15 9.69414 15.9756)
(-9.00565e-15 9.74576 15.9857)
(-8.63052e-15 9.75613 15.9898)
(-8.34971e-15 9.70101 15.8317)
(-8.64999e-15 9.74737 15.9868)
(-8.81911e-15 9.76732 16.0691)
(-9.28523e-15 9.76995 16.1186)
(-8.14587e-15 9.74054 16.1849)
(-8.96309e-15 9.74468 16.2052)
(-8.93202e-15 9.83599 16.6227)
(-8.44391e-15 10.3973 17.3148)
(-1.24992e-14 6.55791 11.5421)
(3.66641e-16 4.83545 8.11083)
(-1.31326e-14 9.27486 15.8151)
(-9.32218e-15 9.17037 15.6516)
(-1.03097e-14 8.84406 15.0741)
(-9.15884e-15 8.81897 15.0503)
(-1.50029e-14 8.85449 15.0753)
(-9.80542e-15 8.86099 15.1018)
(-9.91659e-15 8.88377 15.1195)
(-9.97247e-15 8.89654 15.1478)
(-9.3007e-15 8.91357 15.1702)
(-8.2216e-15 8.93055 15.2015)
(-8.60226e-15 8.96811 15.2706)
(-9.9071e-15 8.98066 15.2714)
(-9.73669e-15 8.98136 15.2995)
(-9.97e-15 9.00149 15.3278)
(-7.95498e-15 8.99401 15.3665)
(-9.00093e-15 9.01634 15.3925)
(-9.41444e-15 9.18582 15.7723)
(-8.11386e-15 9.58961 16.4237)
(-1.42136e-14 5.78472 10.0464)
(-1.91779e-17 5.49082 9.54775)
(-4.80731e-15 9.59715 16.4128)
(-2.61054e-15 9.29023 16.0082)
(-3.48443e-15 9.04414 15.5278)
(-2.87031e-15 9.01234 15.5183)
(-8.82026e-15 9.0325 15.5191)
(-4.72157e-15 9.02214 15.5258)
(-4.53959e-15 9.03098 15.5228)
(-4.49499e-15 9.02601 15.5278)
(-3.88725e-15 9.03167 15.5303)
(-4.13648e-15 9.03081 15.5352)
(-4.77157e-15 9.02647 15.5325)
(-5.20474e-15 9.03056 15.5455)
(-4.67776e-15 9.02932 15.559)
(-4.59267e-15 9.03755 15.5642)
(-4.45454e-15 9.02301 15.5779)
(-4.60505e-15 9.04125 15.5773)
(-3.96147e-15 9.20721 15.9449)
(-4.05555e-15 9.61731 16.5616)
(-7.23497e-15 5.83544 10.2267)
(-7.02614e-18 5.57393 9.59813)
(1.10199e-15 9.47213 16.2528)
(8.28366e-16 9.12581 15.7335)
(8.95421e-16 8.90505 15.3117)
(8.59203e-16 8.88436 15.3184)
(-6.50453e-15 8.90401 15.3267)
(-4.98823e-15 8.89552 15.3399)
(-5.08609e-15 8.90454 15.3433)
(-4.79109e-15 8.90049 15.3542)
(-3.65399e-15 8.90555 15.3602)
(-4.79646e-15 8.9048 15.3699)
(-3.80008e-15 8.90814 15.381)
(-4.0431e-15 8.91051 15.3875)
(-4.81692e-15 8.90762 15.3993)
(-4.06148e-15 8.91531 15.4051)
(-4.60369e-15 8.90333 15.4175)
(-4.68658e-15 8.91919 15.4192)
(-4.69591e-15 9.09226 15.7782)
(-3.47529e-15 9.49096 16.4176)
(-7.40658e-15 5.82513 10.1766)
(3.01306e-18 5.847 10.1172)
(-2.3368e-16 9.52512 16.344)
(-1.69779e-16 9.11389 15.735)
(-1.99575e-16 8.92413 15.3602)
(-1.75625e-16 8.90291 15.3702)
(1.5112e-15 8.91833 15.3731)
(1.07158e-15 8.90692 15.3824)
(1.09063e-15 8.91279 15.3826)
(1.04457e-15 8.90605 15.3897)
(9.41746e-16 8.90853 15.3924)
(9.82099e-16 8.9051 15.3983)
(1.09454e-15 8.9045 15.4027)
(1.18068e-15 8.90443 15.4079)
(1.08048e-15 8.90094 15.4158)
(1.08635e-15 8.90559 15.4184)
(1.00772e-15 8.89334 15.4261)
(1.07418e-15 8.90604 15.4231)
(9.56143e-16 9.0648 15.7547)
(9.82015e-16 9.47955 16.4231)
(1.59157e-15 5.97588 10.4592)
(-7.63626e-19 6.02023 10.3974)
(4.41884e-17 9.49009 16.3002)
(3.14693e-17 9.04869 15.625)
(3.81135e-17 8.88204 15.2959)
(3.25519e-17 8.86562 15.3105)
(-3.02253e-16 8.87999 15.3142)
(-2.12238e-16 8.86991 15.3242)
(-2.09378e-16 8.87579 15.3257)
(-2.2062e-16 8.86987 15.3336)
(-1.97592e-16 8.87254 15.3372)
(-1.91699e-16 8.86944 15.3439)
(-2.23464e-16 8.86981 15.3493)
(-2.35916e-16 8.86944 15.3547)
(-2.22791e-16 8.86676 15.3624)
(-2.17037e-16 8.8706 15.3659)
(-2.05355e-16 8.86043 15.3737)
(-2.19194e-16 8.87021 15.3697)
(-1.86503e-16 9.01296 15.6675)
(-2.03072e-16 9.44683 16.3798)
(-3.0684e-16 6.13117 10.7226)
(1.37862e-19 6.2232 10.7522)
(-7.70753e-18 9.48279 16.2913)
(-5.36743e-18 9.01302 15.5673)
(-6.49168e-18 8.86935 15.2784)
(-5.47333e-18 8.85463 15.2946)
(5.3904e-17 8.86725 15.2968)
(4.03725e-17 8.85725 15.3057)
(3.71898e-17 8.86221 15.3067)
(4.27505e-17 8.85622 15.3136)
(3.88787e-17 8.85831 15.3165)
(3.60003e-17 8.85485 15.3225)
(4.09187e-17 8.85496 15.3269)
(4.28956e-17 8.85387 15.3319)
(4.14104e-17 8.85161 15.3384)
(4.00082e-17 8.8542 15.3418)
(3.99003e-17 8.84547 15.3487)
(4.08753e-17 8.85252 15.3433)
(3.42782e-17 8.97709 15.6046)
(3.74031e-17 9.42765 16.3501)
(5.47096e-17 6.31002 11.0336)
(-2.09138e-20 6.40954 11.067)
(1.22616e-18 9.45582 16.2518)
(8.14144e-19 8.96962 15.4929)
(9.96842e-19 8.84679 15.2431)
(8.21813e-19 8.83449 15.2607)
(-9.08328e-18 8.84588 15.2627)
(-7.38883e-18 8.83676 15.2713)
(-6.27574e-18 8.84134 15.2727)
(-7.40841e-18 8.83589 15.2795)
(-7.14977e-18 8.8379 15.2825)
(-6.48159e-18 8.83463 15.2885)
(-7.06441e-18 8.83504 15.2929)
(-7.48747e-18 8.83368 15.2981)
(-7.08498e-18 8.83218 15.3042)
(-6.87907e-18 8.83393 15.3081)
(-7.37539e-18 8.82703 15.3148)
(-7.14906e-18 8.83183 15.3093)
(-5.92927e-18 8.93914 15.5351)
(-6.38201e-18 9.4 16.3042)
(-9.22443e-18 6.48841 11.3398)
(4.32128e-21 6.59939 11.3917)
(-2.07173e-19 9.42887 16.2101)
(-1.36374e-19 8.9331 15.4306)
(-1.66547e-19 8.83002 15.2171)
(-1.40383e-19 8.81925 15.2349)
(1.46924e-18 8.82936 15.2364)
(1.28428e-18 8.82088 15.2444)
(1.04737e-18 8.82492 15.2458)
(1.15056e-18 8.81986 15.2522)
(1.26271e-18 8.8216 15.2551)
(1.13126e-18 8.81842 15.2608)
(1.17414e-18 8.81893 15.2649)
(1.25846e-18 8.81723 15.2702)
(1.1458e-18 8.81636 15.2756)
(1.12008e-18 8.81719 15.2799)
(1.27594e-18 8.81194 15.2861)
(1.16281e-18 8.81476 15.2809)
(9.87712e-19 8.90558 15.4728)
(1.04611e-18 9.36977 16.2524)
(1.46569e-18 6.66928 11.6513)
(-1.4653e-21 6.78553 11.7083)
(4.67442e-20 9.39397 16.1553)
(3.53594e-20 8.89719 15.3688)
(3.89901e-20 8.81232 15.1894)
(3.7814e-20 8.80292 15.207)
(-2.69412e-19 8.81191 15.2083)
(-2.43817e-19 8.8042 15.2157)
(-2.06385e-19 8.80777 15.2174)
(-1.92112e-19 8.80323 15.2235)
(-2.49081e-19 8.80476 15.2265)
(-2.24761e-19 8.8018 15.232)
(-2.24588e-19 8.80244 15.2359)
(-2.3767e-19 8.80054 15.2413)
(-2.09954e-19 8.80031 15.2462)
(-2.07507e-19 8.80031 15.251)
(-2.40021e-19 8.79671 15.2568)
(-2.06845e-19 8.79785 15.2525)
(-1.90892e-19 8.87356 15.4127)
(-1.99394e-19 9.3336 16.1902)
(-2.52985e-19 6.84906 11.9603)
(5.2616e-22 6.97109 12.0245)
(-1.31968e-20 9.35443 16.0921)
(-1.16665e-20 8.8644 15.3125)
(-1.13423e-20 8.79626 15.1643)
(-1.26283e-20 8.78786 15.1812)
(6.58183e-20 8.79577 15.1822)
(5.93692e-20 8.7888 15.1892)
(5.31327e-20 8.79187 15.191)
(4.5268e-20 8.78782 15.1967)
(6.12056e-20 8.78908 15.1998)
(5.6785e-20 8.78636 15.2051)
(5.76473e-20 8.78705 15.2088)
(5.8377e-20 8.78499 15.2142)
(5.20501e-20 8.78531 15.2187)
(5.20479e-20 8.78453 15.2239)
(5.77882e-20 8.78248 15.2292)
(4.98259e-20 8.78213 15.2262)
(4.97314e-20 8.84417 15.3571)
(5.15508e-20 9.29247 16.1193)
(5.73345e-20 7.0283 12.2684)
(-1.67687e-22 7.15499 12.3375)
(3.79238e-21 9.30895 16.0187)
(3.64015e-21 8.83375 15.2596)
(3.24558e-21 8.78069 15.1401)
(3.94301e-21 8.77307 15.1558)
(-1.89721e-20 8.78 15.1568)
(-1.69485e-20 8.77376 15.1633)
(-1.53965e-20 8.77635 15.1653)
(-1.36292e-20 8.77282 15.1706)
(-1.68984e-20 8.77381 15.1737)
(-1.61289e-20 8.77139 15.1789)
(-1.71167e-20 8.77207 15.1824)
(-1.65869e-20 8.76994 15.1879)
(-1.53195e-20 8.77075 15.1919)
(-1.53239e-20 8.76925 15.1975)
(-1.62556e-20 8.76868 15.2022)
(-1.47518e-20 8.76702 15.2008)
(-1.49664e-20 8.81699 15.3051)
(-1.54537e-20 9.24587 16.039)
(-1.58469e-20 7.20649 12.5746)
(4.79215e-23 7.33776 12.6486)
(-1.025e-21 9.25811 15.9359)
(-1.00844e-21 8.80565 15.2112)
(-8.54367e-22 8.76598 15.1172)
(-1.09969e-21 8.75895 15.1316)
(5.43179e-21 8.76497 15.1325)
(4.79552e-21 8.75944 15.1386)
(4.35132e-21 8.76155 15.1407)
(4.0853e-21 8.75855 15.1457)
(4.61374e-21 8.75922 15.1489)
(4.49753e-21 8.75715 15.1538)
(4.9352e-21 8.75775 15.1573)
(4.63648e-21 8.75564 15.1627)
(4.44352e-21 8.75682 15.1664)
(4.40611e-21 8.75471 15.1723)
(4.5369e-21 8.75548 15.1764)
(4.36411e-21 8.75264 15.1768)
(4.3673e-21 8.79221 15.2573)
(4.50665e-21 9.19398 15.9497)
(4.44749e-21 7.38375 12.879)
(-1.27477e-23 7.51931 12.9575)
(2.60754e-22 9.20168 15.8435)
(2.5357e-22 8.77994 15.1668)
(2.10343e-22 8.75192 15.0954)
(2.82133e-22 8.74533 15.1083)
(-1.46378e-21 8.75053 15.1092)
(-1.26491e-21 8.7457 15.1148)
(-1.15493e-21 8.74734 15.1172)
(-1.12493e-21 8.74488 15.1218)
(-1.19913e-21 8.74522 15.125)
(-1.18615e-21 8.74353 15.1296)
(-1.31736e-21 8.74398 15.1331)
(-1.21311e-21 8.742 15.1384)
(-1.19915e-21 8.74343 15.1418)
(-1.17486e-21 8.74084 15.148)
(-1.18656e-21 8.74282 15.1515)
(-1.19657e-21 8.7389 15.1537)
(-1.17902e-21 8.76981 15.2134)
(-1.22344e-21 9.13671 15.8512)
(-1.17997e-21 7.56004 13.1814)
(3.25929e-24 7.69985 13.2645)
(-6.36713e-23 9.13973 15.7415)
(-5.99987e-23 8.75667 15.1267)
(-5.00794e-23 8.73853 15.0747)
(-6.90578e-23 8.73226 15.0859)
(3.73425e-22 8.73671 15.0869)
(3.12694e-22 8.73257 15.092)
(2.90652e-22 8.73373 15.0946)
(2.87372e-22 8.73179 15.0988)
(2.99443e-22 8.7318 15.1022)
(2.98673e-22 8.73051 15.1065)
(3.29035e-22 8.73075 15.11)
(3.00236e-22 8.72902 15.1151)
(3.02856e-22 8.73051 15.1183)
(2.93137e-22 8.72766 15.1246)
(2.9298e-22 8.73063 15.1275)
(3.04412e-22 8.72576 15.1317)
(2.98006e-22 8.74975 15.1734)
(3.13581e-22 9.07403 15.7437)
(2.95828e-22 7.73538 13.4818)
(-8.18319e-25 7.87971 13.5703)
(1.52038e-23 9.07236 15.6299)
(1.38168e-23 8.73593 15.091)
(1.18414e-23 8.726 15.0551)
(1.65628e-23 8.71995 15.0648)
(-9.17586e-23 8.72369 15.0659)
(-7.41945e-23 8.72026 15.0705)
(-7.07211e-23 8.7209 15.0732)
(-7.01509e-23 8.71946 15.077)
(-7.30606e-23 8.71916 15.0804)
(-7.30204e-23 8.71821 15.0844)
(-7.86615e-23 8.71819 15.088)
(-7.20723e-23 8.71681 15.0927)
(-7.30135e-23 8.71811 15.096)
(-6.99201e-23 8.71526 15.1022)
(-6.99659e-23 8.71889 15.1046)
(-7.34484e-23 8.71321 15.1105)
(-7.23095e-23 8.73199 15.1373)
(-7.77415e-23 9.00597 15.6273)
(-7.12404e-23 7.90974 13.7797)
(2.03452e-25 8.05937 13.8753)
(-3.59207e-24 8.9994 15.5082)
(-3.17121e-24 8.71767 15.0598)
(-2.81018e-24 8.71444 15.0367)
(-3.93959e-24 8.70866 15.0448)
(2.20024e-23 8.71162 15.0462)
(1.72796e-23 8.70904 15.0502)
(1.69035e-23 8.70917 15.053)
(1.6787e-23 8.70817 15.0565)
(1.75706e-23 8.70768 15.0599)
(1.75228e-23 8.70699 15.0636)
(1.8347e-23 8.70673 15.0672)
(1.71337e-23 8.70574 15.0716)
(1.711e-23 8.70659 15.0749)
(1.62574e-23 8.70414 15.0809)
(1.64906e-23 8.70785 15.0831)
(1.72039e-23 8.70162 15.0904)
(1.72084e-23 8.71679 15.1053)
(1.8954e-23 8.93299 15.5026)
(1.66937e-23 8.08321 14.0751)
(-4.99647e-26 8.23965 14.1805)
(8.42502e-25 8.92056 15.3749)
(7.32103e-25 8.70159 15.0325)
(6.66691e-25 8.70356 15.019)
(9.29364e-25 8.69845 15.0254)
(-5.17712e-24 8.70028 15.027)
(-4.00325e-24 8.69866 15.0302)
(-3.99859e-24 8.69833 15.0331)
(-3.9881e-24 8.69764 15.0362)
(-4.16387e-24 8.69706 15.0394)
(-4.14242e-24 8.69651 15.0428)
(-4.22147e-24 8.6961 15.0464)
(-4.06865e-24 8.6955 15.0504)
(-3.94673e-24 8.69579 15.054)
(-3.73619e-24 8.69419 15.0594)
(-3.87085e-24 8.69718 15.0619)
(-3.97837e-24 8.69122 15.07)
(-4.06161e-24 8.70415 15.0762)
(-4.56563e-24 8.85551 15.3704)
(-3.83067e-24 8.25522 14.3661)
(1.21413e-26 8.42316 14.4927)
(-1.974e-25 8.83806 15.2311)
(-1.7094e-25 8.69065 15.012)
(-1.57991e-25 8.69517 15.0052)
(-2.18051e-25 8.69178 15.009)
(1.20776e-24 8.69208 15.0105)
(9.34845e-25 8.6911 15.0126)
(9.45385e-25 8.6903 15.0148)
(9.50548e-25 8.68946 15.0171)
(9.77404e-25 8.68857 15.0197)
(9.74066e-25 8.68769 15.0224)
(9.7082e-25 8.68683 15.0254)
(9.73454e-25 8.68599 15.0287)
(9.10635e-25 8.68537 15.0321)
(8.63267e-25 8.68427 15.0364)
(9.12593e-25 8.68526 15.0397)
(9.23722e-25 8.68097 15.0468)
(9.61048e-25 8.691 15.0483)
(1.09148e-24 8.77257 15.2323)
(8.67572e-25 8.42331 14.6449)
(-2.41173e-27 8.61057 14.824)
(3.79954e-26 8.7527 15.0801)
(3.31469e-26 8.6928 15.0032)
(3.07969e-26 8.69498 15.0014)
(4.20902e-26 8.69439 15.0021)
(-2.29875e-25 8.69405 15.0026)
(-1.82274e-25 8.69363 15.0032)
(-1.84011e-25 8.69301 15.0039)
(-1.86638e-25 8.69228 15.0047)
(-1.87557e-25 8.69139 15.0056)
(-1.88216e-25 8.69034 15.0067)
(-1.84898e-25 8.6891 15.008)
(-1.92221e-25 8.68767 15.0095)
(-1.75296e-25 8.68599 15.0113)
(-1.66819e-25 8.68412 15.0133)
(-1.78056e-25 8.68203 15.0156)
(-1.78618e-25 8.67887 15.0189)
(-1.87921e-25 8.67934 15.02)
(-2.13461e-25 8.69413 15.0843)
(-1.60794e-25 8.59341 14.8933)
(8.4675e-16 -0.0386084 -2.79873)
(2.10413e-15 0.0778622 -3.20771)
(1.72812e-15 -0.188919 -2.34209)
(1.93997e-15 -0.0709359 -2.47296)
(2.21555e-15 0.0539655 -2.65035)
(3.16173e-15 -0.0531682 -3.3009)
(1.87522e-15 0.00701439 -2.70868)
(1.36317e-15 0.074008 -1.46184)
(8.83461e-16 0.0222177 -0.285682)
(8.31859e-15 -0.487418 4.00099)
(-2.2411e-15 -1.2671 5.86178)
(-1.47406e-15 -1.46833 6.02655)
(-2.35195e-15 -2.57268 9.71712)
(-1.69041e-15 -3.14852 8.59867)
(-1.32668e-15 -3.83209 8.7111)
(-8.1114e-16 -4.02159 8.74949)
(2.28137e-16 -5.78975 12.3656)
(1.15311e-15 -6.04719 9.34495)
(1.83528e-15 -6.41228 9.5133)
(3.91797e-15 -8.3638 12.1445)
(3.16514e-15 -7.80253 8.76801)
(2.15771e-15 -8.13609 9.32979)
(1.66845e-15 -8.20175 9.36517)
(1.03615e-15 -8.3093 9.64883)
(5.95054e-16 -8.39994 10.0504)
(1.28064e-16 -8.41933 10.6125)
(-1.48758e-16 -8.3937 11.2599)
(-3.01307e-16 -8.67728 11.829)
(1.0558e-15 -6.89387 10.7924)
(-7.54814e-16 -7.54584 12.5361)
(-1.03406e-15 -7.39141 13.265)
(-1.38649e-15 -7.22423 13.8399)
(-1.70275e-15 -7.0422 14.3526)
(-1.85853e-15 -6.84152 14.7341)
(-1.73675e-15 -6.58965 14.8848)
(-1.5322e-15 -6.23816 14.3956)
(-1.66461e-15 -5.83964 12.3238)
(-1.49466e-15 -5.21124 8.17236)
(2.16951e-16 -0.629745 -5.18395)
(-2.18836e-16 -3.55259 -0.0730899)
(3.27288e-16 -1.97455 -2.64528)
(-1.35712e-16 -4.04896 -1.58265)
(1.93015e-16 -2.85945 -2.00014)
(1.70639e-16 -2.5152 -1.55566)
(3.48003e-16 -3.05348 -2.26023)
(2.08923e-16 -1.82363 -1.67659)
(2.26765e-16 -2.26736 -2.51796)
(-1.85429e-16 -1.44421 -2.13484)
(-6.52785e-16 -0.875455 -1.6013)
(-1.69795e-15 -1.36625 -2.16719)
(-3.13861e-15 0.129407 -1.19092)
(-1.67855e-15 -0.422673 -2.02235)
(-2.67714e-15 0.452748 -1.66852)
(-1.81649e-15 1.01552 -0.982817)
(-2.52517e-15 1.00425 -0.537091)
(-2.95548e-15 1.32475 0.482438)
(-1.98181e-15 1.05919 0.447625)
(-2.0056e-15 1.10986 0.934171)
(-1.30112e-15 0.450542 0.793065)
(1.15706e-15 0.686907 0.673)
(-3.82207e-17 -0.1271 0.666203)
(-2.45931e-16 -0.0638328 1.91896)
(-6.03556e-16 0.0118188 2.5972)
(-8.11251e-16 0.247475 0.446257)
(-8.4769e-16 0.105439 -1.84864)
(-5.91788e-16 -0.100501 -2.88394)
(-1.95583e-16 -0.127816 -1.2622)
(8.84408e-16 0.0619382 -0.0785202)
(1.04128e-15 0.0736808 -1.5637)
(9.26213e-16 -0.0606432 -2.40097)
(6.99939e-16 -0.0554882 -1.49526)
(5.67664e-16 0.0234952 -0.951604)
(4.94564e-16 0.174781 -1.91308)
(3.35355e-16 0.304632 -4.17921)
(2.35435e-16 0.477012 -8.24866)
(9.47221e-17 0.0944794 -12.6593)
(-1.14102e-16 -0.762095 -11.8846)
(-3.77247e-16 -0.704245 -1.67301)
(-1.18563e-16 0.268131 5.36179)
(-3.54204e-17 -0.389184 0.498229)
(-2.97511e-16 -0.233633 1.78048)
(-7.82538e-16 0.122616 2.72969)
(-9.67493e-16 0.788639 0.0637486)
(-1.12893e-15 0.536086 -1.94253)
(-9.92182e-16 -0.087972 -3.96772)
(-1.68358e-16 -0.545632 -1.62762)
(1.21526e-15 0.111021 0.652092)
(1.12349e-15 0.318291 -0.976469)
(1.1507e-15 -0.141293 -1.90223)
(1.06907e-15 -0.155733 -1.34599)
(1.01847e-15 0.016913 0.140876)
(9.37405e-16 0.357386 -0.13008)
(8.71286e-16 0.968328 -2.31868)
(9.90409e-16 1.32453 -6.92443)
(1.21807e-15 0.642163 -10.3563)
(9.15666e-16 -1.43744 -14.7219)
(-1.99986e-16 -2.64968 -7.75433)
(-2.60404e-15 -0.452315 4.40757)
(-5.24113e-17 -0.545962 0.235891)