/*--------------------------------*- C++ -*----------------------------------*\
| =========                 |                                                 |
| \\      /  F ield         | OpenFOAM: The Open Source CFD Toolbox           |
|  \\    /   O peration     | Version:  4.1                                   |
|   \\  /    A nd           | Web:      www.OpenFOAM.org                      |
|    \\/     M anipulation  |                                                 |
\*---------------------------------------------------------------------------*/
FoamFile
{
    version     2.0;
    format      ascii;
    class       volScalarField;
    location    "27";
    object      p;
}
// * * * * * * * * * * * * * * * * * * * * * * * * * * * * * * * * * * * * * //

dimensions      [0 2 -2 0 0 0 0];

internalField   nonuniform List<scalar> 
1280
(
0.0214937
0.0574113
0.969193
0.592682
0.442514
0.745789
0.105471
-0.327392
-0.296448
-0.34676
-1.95909
-1.73836
-1.90286
-4.51876
-3.88109
-4.66191
-8.83294
-8.34895
-7.2917
-19.6593
-12.7009
-2.81484
14.9415
32.3162
39.4656
43.9117
51.1206
39.4316
43.2713
41.6556
39.842
38.1107
35.4812
32.2813
28.7233
24.8052
20.6869
16.1642
11.9832
5.39876
12.8497
16.3376
18.1862
20.5953
26.6186
26.4278
26.4699
26.4753
26.5283
27.0864
26.8739
26.6327
26.5112
25.7876
25.392
28.0812
12.7924
6.49602
2.21341
0.643115
-6.69143
-0.0270772
3.68937
7.99641
11.8575
15.6622
19.1868
22.4665
25.2646
27.3874
29.6435
31.5002
29.0399
52.0376
50.7851
46.1791
39.0013
22.0928
6.57048
-1.59623
-7.78131
5.89653
13.0225
17.4256
19.1801
22.3507
22.8138
22.2419
21.0859
21.0382
18.4236
17.0445
15.688
11.4563
10.1767
9.97266
6.62993
0.0297825
-2.73373
3.17263
0.0331216
0.102468
-0.0557321
-0.516855
-1.21398
-2.16108
-5.90364
-4.42039
-3.1191
-2.79102
-2.60404
-2.54112
-1.49932
-0.163332
1.7547
3.41231
3.99815
2.60099
1.95463
-0.0294204
-0.27319
-0.974617
-1.88354
-3.23595
-5.93592
-10.667
-8.88165
-6.86641
-5.73371
-3.90568
-1.59079
1.83245
5.94115
10.2485
13.2566
12.7163
8.77027
5.81722
-0.0385674
-0.239038
-1.27062
-2.90766
-5.52684
-10.7717
-13.5694
-11.2395
-8.55441
-6.89759
-4.29034
-1.07984
3.32628
8.68853
14.3468
18.6159
18.6441
13.0553
8.94058
-0.042717
-0.321242
-1.74197
-3.98317
-7.69501
-15.2277
-16.5523
-14.1255
-10.6524
-8.37742
-5.11598
-1.1354
4.23926
10.8909
18.1374
24.0874
25.1908
17.9891
11.9145
0.0206946
-0.23596
-1.94593
-4.84622
-9.75418
-19.3979
-19.2162
-17.1476
-12.9038
-9.96462
-5.98118
-1.09358
5.34602
13.3941
22.3061
30.0518
32.287
22.6736
14.0603
0.182102
-0.0954138
-2.06447
-5.59988
-11.5816
-22.7804
-21.4224
-19.8183
-14.9151
-11.3559
-6.73322
-1.06269
6.26829
15.522
25.9153
35.4984
38.4767
27.1334
12.2866
0.488486
0.13761
-1.97339
-6.14064
-13.0653
-25.2156
-23.2396
-22.0194
-16.7414
-12.6497
-7.49354
-1.16279
6.89459
17.1473
28.8799
40.5706
44.9593
28.8306
5.50095
0.977929
0.393446
-1.70742
-6.47887
-14.1157
-26.5789
-24.5107
-23.5854
-18.2993
-13.8372
-8.26825
-1.37362
7.25468
18.2683
31.0995
43.7717
47.3045
36.8952
10.8022
1.70758
0.671722
-1.20279
-6.5627
-14.6548
-26.8876
-25.1142
-24.4134
-19.4601
-14.8447
-9.02067
-1.69213
7.3292
18.7482
32.1866
50.7944
47.1762
39.7193
42.3795
2.75216
0.99472
-0.424952
-6.36853
-14.646
-26.2459
-25.0311
-24.536
-20.1764
-15.6319
-9.7314
-2.13204
7.0608
18.4143
31.3366
46.9386
44.6348
42.6643
34.3954
4.19491
1.41543
0.646369
-5.85902
-14.0843
-24.8347
-24.3304
-24.0677
-20.4472
-16.1644
-10.361
-2.66602
6.48398
17.3251
28.9005
39.8224
39.2111
40.2415
32.9469
6.05119
1.76997
1.91183
-5.03229
-13.0003
-22.8439
-23.0784
-23.1048
-20.2765
-16.4097
-10.8719
-3.26832
5.65035
15.6515
25.3157
33.6493
35.6042
44.8466
41.6624
8.2183
1.67177
3.34282
-3.91417
-11.4428
-20.4792
-21.4322
-21.7872
-19.7048
-16.3265
-11.1652
-3.82438
4.68444
13.7397
21.8732
29.1519
27.4456
21.3894
12.6698
10.2981
1.17188
5.09364
-2.5633
-9.5126
-17.7873
-19.3553
-20.1075
-18.7148
-15.8892
-11.2392
-4.39236
3.50727
11.5032
17.4703
19.4962
4.93269
-8.90685
-4.84533
11.5879
0.628861
6.5593
-1.00446
-7.4656
-15.0201
-17.0942
-18.2419
-17.4007
-15.0545
-10.9222
-4.69666
2.47904
9.18892
12.9639
11.128
-1.86232
-5.47909
-2.27887
11.4167
0.192191
6.69308
1.08869
-4.90482
-11.6241
-14.182
-15.8195
-15.6107
-13.9469
-10.6087
-5.25554
1.06076
6.60614
9.15716
5.17656
-2.91689
-5.94046
-2.33374
9.31698
-0.200501
5.83117
2.18312
-3.41785
-8.83934
-11.4162
-13.3429
-13.5583
-12.3208
-9.42476
-4.61614
0.888763
5.28697
6.31924
0.6347
-1.63356
-6.29828
-1.93317
5.83245
-1.49846
4.36842
2.97853
-0.542708
-4.87844
-7.47395
-9.37236
-10.1937
-9.93165
-8.29988
-4.99553
-0.901962
2.57071
3.19026
-1.2968
-1.87701
-3.96759
-1.55303
2.37689
-1.26338
3.02082
1.51057
-1.03885
-3.599
-5.11272
-6.44043
-6.92636
-6.27973
-4.26519
-0.863323
2.69579
4.53585
3.17955
0.17716
-1.86177
-2.85891
-1.10357
-2.67495
-1.26189
0.598053
1.59161
1.27859
0.600175
-0.0492075
-0.442741
-0.904742
-1.62622
-2.53364
-3.50988
-4.1604
-3.76157
-2.32726
-0.715917
-1.86473
-1.95423
-0.789172
-35.5841
-33.0978
-30.2309
-28.2021
-27.881
-28.2128
-29.9783
-31.743
-33.227
-34.5651
-35.6474
-36.3071
-36.4916
-36.1598
-35.3666
-34.0649
-32.5067
-30.3422
-28.4657
-25.4713
-106.847
-106.682
-102.158
-96.6139
-92.7378
-89.9138
-87.9444
-86.7219
-86.1611
-86.1286
-86.4219
-86.8131
-87.0521
-86.9024
-86.2824
-85.034
-83.4347
-81.2593
-79.4327
-76.1213
-36.1198
-43.3658
-48.3797
-51.3107
-54.5075
-57.6714
-60.5969
-63.4032
-66.1027
-68.9011
-71.8374
-74.9069
-77.9653
-80.8246
-83.2856
-85.0345
-85.9996
-86.7823
-87.6757
-86.3874
11.6728
6.66383
2.4615
-1.35468
-5.27803
-9.57019
-13.7027
-17.6272
-21.0929
-24.201
-26.838
-29.0239
-30.6592
-31.7115
-32.2203
-32.2584
-31.8413
-31.3919
-32.4172
-35.9042
44.165
42.515
41.0125
40.1965
39.8353
39.2845
38.7706
37.9041
36.8295
35.2176
32.9711
29.7616
25.4467
20.2257
14.7818
10.0275
6.76679
5.61462
5.80602
2.63703
32.0209
33.0035
33.0383
33.3273
33.4991
33.5147
33.6946
33.6624
33.6869
33.6247
33.5863
33.524
33.3961
33.1483
32.6955
31.8974
30.9995
29.9866
29.8467
28.8391
18.9328
21.1933
22.4901
23.7666
25.1758
26.1026
27.2826
28.1014
28.8715
29.3731
29.6622
29.7366
29.7036
29.7293
30.1038
30.9213
32.1408
33.4016
34.3417
34.9462
-4.44215
-2.04511
-0.199249
1.07604
2.93798
4.07394
5.65869
6.92929
8.29168
9.58944
10.8598
12.105
13.3144
14.5107
15.7121
17.0082
18.3382
19.8824
21.0672
22.5556
-24.3107
-22.1744
-20.125
-19.1266
-16.9694
-15.848
-13.9939
-12.5677
-10.9489
-9.41397
-7.88343
-6.37023
-4.89041
-3.4202
-1.98931
-0.524879
0.857875
2.4134
3.57975
5.22349
-49.8952
-49.0809
-47.2238
-47.2057
-45.1386
-44.6823
-42.8823
-41.7724
-40.1112
-38.5336
-36.7483
-34.8505
-32.8351
-30.7035
-28.5386
-26.2839
-24.1177
-21.7156
-19.7698
-16.7044
-67.7073
-70.4902
-69.9772
-72.4402
-72.2494
-74.4792
-74.8786
-76.6262
-77.4792
-78.716
-79.4023
-79.7792
-79.5443
-78.6826
-77.2137
-75.1452
-72.8262
-70.1938
-68.2034
-64.491
-44.2642
-49.4721
-50.0831
-54.1893
-55.4307
-59.2753
-61.3539
-65.0358
-67.9449
-71.6206
-74.9507
-78.3727
-81.4371
-84.1586
-86.3053
-87.9471
-88.9389
-89.0656
-89.2955
-87.384
0.59245
-3.53259
-3.37901
-7.19608
-7.42261
-10.6972
-11.6539
-14.3083
-15.8359
-18.0074
-19.6485
-21.3718
-22.8377
-24.3134
-25.7535
-27.2926
-28.9416
-30.3542
-32.3309
-35.8064
22.4432
22.1167
24.0631
22.4853
24.932
23.7199
25.2836
24.6668
25.0631
24.4243
23.8063
22.6605
21.2627
19.5391
17.6107
15.5011
13.4628
12.1381
11.5567
9.3071
-2.79842
-1.84842
1.61793
0.756842
4.77326
4.71276
7.69044
8.88174
11.0838
12.8361
14.7102
16.3451
17.6873
18.5283
18.7576
18.3528
17.8025
17.7151
18.4587
19.4738
-25.2699
-26.4897
-22.8191
-25.5182
-21.5799
-22.586
-20.1952
-19.3641
-17.6258
-15.9976
-14.1624
-12.1927
-10.1004
-7.87986
-5.57637
-3.17378
-0.849552
1.57751
3.44558
6.11578
-26.3079
-30.2505
-27.7704
-34.131
-33.3534
-37.704
-39.1605
-41.9725
-43.9814
-46.0436
-47.7774
-49.2723
-50.4597
-51.2505
-51.5
-50.8754
-49.2615
-46.5611
-44.639
-41.5935
-20.7581
-28.3738
-20.5916
-28.1073
-26.6741
-30.6572
-32.5928
-35.8622
-38.867
-42.2142
-45.5758
-49.0409
-52.5045
-55.8505
-58.7965
-60.9319
-61.4605
-61.0556
-61.0927
-59.6972
3.0988
-19.8035
-11.8391
-23.1778
-26.093
-32.9323
-38.0174
-43.3971
-48.0213
-52.1015
-55.3915
-57.8347
-59.324
-59.7721
-59.1066
-57.1373
-53.7886
-50.5782
-48.316
-46.831
692.549
609.775
560.528
504.169
455.024
407.578
363.44
321.733
282.476
245.391
210.325
177.087
145.487
115.52
87.3408
60.2186
34.5374
14.4517
-9.24871
-46.5582
701.558
618.784
569.538
513.179
464.034
416.588
372.451
330.744
291.486
254.401
219.334
186.095
154.494
124.527
96.3467
69.2239
43.5417
23.4536
-0.248466
-37.5576
12.1226
-10.7794
-2.81471
-14.1532
-17.068
-23.9071
-28.992
-34.3714
-38.9954
-43.0753
-46.3651
-48.808
-50.297
-50.7446
-50.0785
-48.108
-44.7586
-41.5483
-39.2845
-37.8014
-11.74
-19.3571
-11.576
-19.0932
-17.6612
-21.6457
-23.5828
-26.8537
-29.8601
-33.209
-36.5723
-40.0392
-43.5046
-46.8521
-49.7992
-51.935
-52.4628
-52.06
-52.101
-50.7071
-17.3229
-21.2682
-18.7907
-25.1531
-24.3781
-28.7312
-30.1903
-33.0052
-35.0171
-37.0825
-38.8194
-40.3177
-41.5083
-42.3022
-42.554
-41.931
-40.3181
-37.6202
-35.702
-32.6572
-16.3159
-17.5385
-13.8687
-16.5696
-12.6326
-13.6404
-11.2511
-10.4214
-8.68432
-7.05696
-5.22228
-3.25276
-1.16044
1.06036
3.36359
5.76517
8.08792
10.5138
12.3819
15.0538
6.17074
7.12134
10.5911
9.73038
13.7497
13.6907
16.6699
17.8626
20.065
21.8169
23.6891
25.3213
26.6598
27.4961
27.7212
27.3159
26.7714
26.696
27.4469
28.4654
31.4225
31.1037
33.051
31.4762
33.9235
32.713
34.2764
33.6603
34.056
33.417
32.7983
31.6528
30.2568
28.5369
26.6153
24.5168
22.4902
21.1714
20.5937
18.3539
9.72611
5.60941
5.76604
1.95523
1.73544
-1.53181
-2.47979
-5.12514
-6.64301
-8.80485
-10.4375
-12.1546
-13.6182
-15.0964
-16.5431
-18.0905
-19.7476
-21.1643
-23.1425
-26.6325
-35.1737
-40.387
-41.0043
-45.1192
-46.3668
-50.2194
-52.3061
-55.997
-58.9158
-62.6022
-65.9423
-69.3747
-72.4472
-75.174
-77.3211
-78.9605
-79.9494
-80.0738
-80.3071
-78.4058
-58.7679
-61.5662
-61.0608
-63.5331
-63.3509
-65.5893
-65.9971
-67.7526
-68.6121
-69.8543
-70.5431
-70.9207
-70.6841
-69.8201
-68.3491
-66.2802
-63.963
-61.3344
-59.3463
-55.6318
-41.0418
-40.2322
-38.375
-38.3582
-36.2908
-35.8348
-34.0339
-32.9233
-31.2605
-29.6815
-27.8942
-25.9943
-23.977
-21.8439
-19.678
-17.4225
-15.2553
-12.8506
-10.9012
-7.83064
-15.3714
-13.238
-11.1888
-10.1913
-8.03363
-6.91212
-5.05726
-3.6302
-2.01027
-0.474176
1.05755
2.57181
4.05249
5.52332
6.95462
8.41941
9.80246
11.3584
12.5253
14.1699
4.3951
6.79758
8.64615
9.9256
11.7914
12.9314
14.5198
15.7935
17.1582
18.4573
19.7282
20.9737
22.1835
23.3816
24.5862
25.8865
27.2204
28.7675
29.9542
31.4473
27.8544
30.1034
31.3836
32.6374
34.0284
34.9347
36.0921
36.8911
37.645
38.14
38.4368
38.5402
38.5575
38.6508
39.0854
39.9343
41.1596
42.4157
43.3533
43.9793
41.0201
41.9823
41.9958
42.2935
42.4595
42.4805
42.6818
42.6875
42.7631
42.7648
42.7981
42.8006
42.7264
42.4941
41.9841
41.1055
40.1745
39.1545
39.0328
38.0652
53.375
51.7783
50.1418
49.2726
48.9167
48.4443
48.0084
47.2112
46.1958
44.6346
42.4349
39.26
34.9673
29.7461
24.2886
19.5366
16.2656
15.0578
15.2645
12.2285
22.4134
17.6782
13.5509
9.99622
6.331
2.21417
-1.84368
-5.72874
-9.15125
-12.2039
-14.7932
-16.9537
-18.5942
-19.6791
-20.2416
-20.342
-19.9746
-19.5198
-20.4762
-23.9272
-22.6932
-29.9812
-35.2489
-38.1405
-41.4282
-44.672
-47.6602
-50.5111
-53.2408
-56.0639
-59.0384
-62.1642
-65.292
-68.2143
-70.7265
-72.5221
-73.5268
-74.3823
-75.3308
-74.256
-99.7106
-99.2697
-94.6065
-88.4422
-84.0761
-80.843
-78.5833
-77.1317
-76.3919
-76.236
-76.4336
-76.7456
-76.9087
-76.6699
-75.9445
-74.5814
-72.8533
-70.5495
-68.5666
-65.2221
-16.7304
-14.3416
-11.3718
-9.11806
-8.51619
-8.50788
-9.9204
-11.7823
-13.7317
-15.4765
-16.97
-18.0482
-18.6314
-18.6749
-18.2276
-17.2456
-15.962
-14.0477
-12.3502
-9.534
)
;

boundaryField
{
    outletWall
    {
        type            fixedValue;
        value           uniform 0;
    }
    fineWalls
    {
        type            zeroGradient;
    }
    fineFrontAndBack
    {
        type            zeroGradient;
    }
    fineplugLeft
    {
        type            cyclicAMI;
        value           nonuniform List<scalar> 
20
(
-19.2973
-20.3759
-21.0409
-21.868
-22.2909
-22.5486
-22.4716
-22.0971
-21.4235
-20.5495
-19.3209
-17.9273
-17.5081
-20.7567
-13.7879
-14.4117
-16.0985
-21.1964
-27.0412
-31.0075
)
;
    }
    fineplugRight
    {
        type            cyclicAMI;
        value           nonuniform List<scalar> 
20
(
-8.96548
-9.88556
-10.5003
-11.1703
-11.425
-11.4496
-11.1026
-10.4118
-9.38561
-8.09848
-6.4525
-4.68531
-3.61786
-2.87528
3.35071
2.42286
0.505805
-4.6789
-10.1592
-13.7035
)
;
    }
    inletOutletLeft
    {
        type            cyclicAMI;
        value           nonuniform List<scalar> 
20
(
-19.2973
-20.3759
-21.0409
-21.868
-22.2909
-22.5486
-22.4716
-22.0971
-21.4235
-20.5495
-19.3209
-17.9273
-17.5081
-20.7567
-13.7879
-14.4117
-16.0985
-21.1964
-27.0412
-31.0075
)
;
    }
    inletLeft
    {
        type            zeroGradient;
    }
    inletWallsLeft
    {
        type            zeroGradient;
    }
    inletFacesLeft
    {
        type            zeroGradient;
    }
    inletOutletRight
    {
        type            cyclicAMI;
        value           nonuniform List<scalar> 
20
(
-8.96548
-9.88556
-10.5003
-11.1703
-11.425
-11.4496
-11.1026
-10.4118
-9.38561
-8.09848
-6.4525
-4.68531
-3.61786
-2.87528
3.35071
2.42286
0.505805
-4.6789
-10.1592
-13.7035
)
;
    }
    inletRight
    {
        type            zeroGradient;
    }
    inletWallsRight
    {
        type            zeroGradient;
    }
    inletFacesRight
    {
        type            zeroGradient;
    }
}


// ************************************************************************* //
