/*--------------------------------*- C++ -*----------------------------------*\
| =========                 |                                                 |
| \\      /  F ield         | OpenFOAM: The Open Source CFD Toolbox           |
|  \\    /   O peration     | Version:  4.1                                   |
|   \\  /    A nd           | Web:      www.OpenFOAM.org                      |
|    \\/     M anipulation  |                                                 |
\*---------------------------------------------------------------------------*/
FoamFile
{
    version     2.0;
    format      ascii;
    class       surfaceScalarField;
    location    "27";
    object      phi;
}
// * * * * * * * * * * * * * * * * * * * * * * * * * * * * * * * * * * * * * //

dimensions      [0 3 -1 0 0 0 0];

internalField   nonuniform List<scalar> 
2360
(
-173.744
1922.55
-2096.29
1922.55
1922.55
3591.13
-1668.58
3591.13
3591.13
3591.13
5377.44
-1786.31
5377.44
5377.44
7336.83
-1959.39
7336.83
7336.83
9915.29
-2578.46
9915.29
9915.29
13825.7
-3910.43
13825.7
13825.7
14338.6
15541.3
17329.3
19203.7
20949.5
22537.4
15149.2
8888.03
16514.6
17768
18910.7
19943.4
20866.5
21682
22392.2
23000.7
23509.4
23919.9
24225.3
24418.5
24437.6
8843.81
15593.8
8843.81
8843.81
8843.81
-166.328
9010.14
-166.326
-166.32
-166.321
992.674
-1158.99
992.675
992.676
-2444.34
3437.02
-2444.34
-2444.34
-2444.34
-15152.2
12707.8
-15152.2
-15152.2
-15152.2
-28413.7
13261.5
-28329.5
-28090.3
-27754.2
-27324.1
-26803.7
-26190.1
-25480.1
-24669.4
-23754.7
-22734
-21606.4
-20371.3
-19027.5
-21095.7
3548.32
-19518.8
-17787.1
-15931.4
-14170.8
-13004.4
-12462
-12462
-12462
-4791.46
-7670.52
-4791.46
-4791.46
1611.68
-6403.14
1611.68
1611.68
6489.79
-4878.11
6489.79
6489.79
10439.2
-3949.42
10439.2
10439.2
10439.2
14045.8
-3606.56
14045.8
14045.8
18012.5
-3966.77
-1476.81
-7067.05
-1900.94
-8380.16
-2308.97
-8527.23
-2353.36
-8945.86
-1939.66
-9378.79
-1021.22
-5825.37
-742.715
7711.04
-893.607
13197.2
-1068.44
16883.1
-1154.2
20207.2
-1045.06
23866
-688.158
27570.6
-192.676
29613.8
465.845
29983.8
1239.31
27331.3
2103.1
21954.9
2886.74
14730.9
3645.95
4932.87
-2588.7
-1857.09
-6888.38
-2195.55
-8041.71
-2317.18
-8405.59
-2101.28
-9161.76
-1548.95
-9931.12
-615.495
-6758.83
-607.984
7703.53
-916.772
13506
-1142.8
17109.1
-1233.93
20298.3
-1139.2
23771.3
-798.833
27230.2
-321.086
29136.1
329.642
29333.1
1128.75
26532.2
2085.98
20997.7
3147.02
13669.9
3636.89
4443
-2558.38
-2049.24
-6673.7
-2323.35
-7767.61
-2306.51
-8422.44
-2006.74
-9461.52
-1445.16
-10492.7
-757.399
-7446.58
-612.178
7558.31
-917.126
13811
-1260.38
17452.3
-1376.46
20414.4
-1298.15
23693
-981.308
26913.4
-529.081
28683.9
107.372
28696.6
932.145
25707.4
2006.23
19923.6
3446.68
12229.4
4206.84
3682.84
-2300.96
-2254.33
-6396.09
-2510.91
-7511.03
-2385.77
-8547.57
-2029.86
-9817.43
-1488.57
-11034
-1096.37
-7838.78
-847.729
7309.66
-1009.13
13972.4
-1399.44
17842.6
-1577.72
20592.7
-1514.72
23630
-1227.1
26625.7
-811.095
28267.9
-203.44
28088.9
625.288
24878.7
1814.31
18734.6
3670.53
10373.2
4984.58
2368.79
-2194.49
-2447.94
-6022.81
-2733.93
-7225.04
-2529.21
-8752.29
-2166.54
-10180.1
-1728.89
-11471.7
-1639.34
-7928.32
-1310.99
6981.31
-1279.94
13941.3
-1580.2
18142.9
-1828.87
20841.3
-1801.3
23602.4
-1544.69
26369.1
-1175.04
27898.2
-610.787
27524.7
191.189
24076.7
1513.27
17412.5
3803.03
8083.43
5895.79
276.031
-2701.84
-2668.47
-5557.53
-3014.23
-6879.28
-2764.06
-9002.47
-2441.44
-10502.7
-2190.34
-11722.8
-2411.37
-7707.3
-2030.23
6600.17
-1775.42
13686.5
-1865.09
18232.6
-2121.27
21097.5
-2154.38
23635.5
-1938.22
26153
-1619.27
27579.3
-1114.89
27020.3
-369.438
23331.3
1025.43
16017.7
4219.55
4889.31
7103.67
-2608.09
-3268.69
-2990.04
-5073.18
-3369.81
-6499.51
-3099.83
-9272.45
-2856.99
-10745.6
-2863.22
-11716.5
-3372.24
-7198.28
-2966.51
6194.44
-2498.09
13218.1
-2315.62
18050.1
-2473.65
21255.5
-2562.49
23724.4
-2408.71
25999.2
-2142.5
27313
-1724.63
26602.4
-1095.8
22702.4
351.024
14570.8
3929.3
1311.03
4732.21
-3410.99
5011.84
-3441.58
-4697.67
-3799.79
-6141.31
-3549.94
-9522.29
-3426.97
-10868.5
-3731.62
-11411.9
-4461.41
-6468.49
-4048.79
5781.82
-3408.73
12578.1
-2956.92
17598.3
-2926.18
21224.8
-3022.91
23821.1
-2950.51
25926.8
-2745.88
27108.4
-2447.33
26303.9
-1927.71
22182.8
655.973
11987.2
328.647
1638.36
-7012.19
3929.84
11261.2
-3936.09
-4520.04
-4276.19
-5801.2
-4112.62
-9685.87
-4152.98
-10828.2
-4758.54
-10806.3
-5620.67
-5606.36
-5206.26
5367.41
-4445.26
11817.1
-3774.13
16927.2
-3516.03
20966.7
-3551.88
23856.9
-3555.19
25930.1
-3426.92
26980.1
-3225.99
26103
-2937.86
21894.7
-3944
12993.3
-9200.78
6895.14
-13887
8616.08
10081.9
-4281.48
-4527.14
-4732.74
-5349.95
-4771.14
-9647.46
-5029.64
-10569.7
-5893.79
-9942.15
-6789.33
-4710.81
-6371.2
4949.28
-5544.5
10990.3
-4728.17
16110.8
-4260.46
20499
-4178.69
23775.2
-4217.85
25969.3
-4155.57
26917.9
-3999.99
25947.4
-4133.57
22028.3
-6801.85
15661.6
-11221.5
11314.8
-10475.6
7870.23
3043.35
-4352.59
-4644.74
-5120.72
-4581.81
-5505.98
-9262.2
-6035.83
-10039.8
-7077.68
-8900.3
-7913.38
-3875.11
-7491.09
4526.98
-6656.37
10155.6
-5774.4
15228.9
-5151.89
19876.5
-4928.23
23551.5
-4946.24
25987.3
-4917.24
26888.9
-4761.01
25791.2
-5118.15
22385.4
-7403.96
17947.4
-8902.13
12812.9
-5474.19
4442.3
-3589.84
-4238.99
-4862.06
-5474.73
-3346.07
-6316.45
-8420.48
-7135.19
-9221.09
-8257.62
-7777.87
-8961.95
-3170.77
-8537.72
4102.76
-7749.56
9367.47
-6878.04
14357.3
-6172.98
19171.4
-5821.06
23199.6
-5764.75
25931
-5699.79
26823.9
-5459.18
25550.5
-5708.14
22634.4
-7348.82
19588.1
-9436.5
14900.6
-10995.9
6001.67
-5575.58
-4091.92
-5294.89
-5864.06
-1573.93
-7201.81
-7082.73
-8277.77
-8145.13
-9398.99
-6656.66
-9933.97
-2635.79
-9508.49
3677.27
-8811.43
8670.41
-8022.76
13568.7
-7314.47
18463.1
-6866.57
22751.7
-6672.22
25736.6
-6478.92
26630.6
-6263.46
25335.1
-7000.71
23371.6
-9661.9
22249.2
-13545.6
18784.3
-16022.7
8478.81
-6004.47
-3874.25
-6103.18
-6189.02
740.838
-8100.84
-5170.9
-9409.06
-6836.91
-10499.8
-5565.92
-10882.3
-2253.25
-10437.9
3232.84
-9829.71
8062.21
-9162.08
12901.1
-8507.46
17808.5
-7982.88
22227.1
-7605.61
25359.3
-7340.06
26365
-7585.95
25581
-9159.09
24944.8
-11390.2
24480.4
-11522.7
18916.8
-7860.97
4817.04
-4977.41
-3508.67
-7428.15
-6128.35
3360.52
-8867.46
-2431.8
-10452.2
-5252.21
-11554.6
-4463.47
-11895.8
-1912.06
-11439.4
2776.39
-10851.8
7474.71
-10254.8
12304
-9641.34
17195
-9055.57
21641.4
-8593.09
24896.9
-8565.17
26337.1
-9527.5
26543.3
-11182.9
26600.2
-11178.6
24476
-6596.31
14334.5
324.986
-2104.26
-8562.86
-3117.79
-9273.61
-5572.85
5815.58
-9246.83
1242.18
-11284.5
-3214.56
-12519.2
-3228.72
-13001
-1430.26
-12629.7
2405.06
-12013.1
6858.07
-11387.6
11678.6
-10775.8
16583.2
-10227.7
21093.3
-9957.17
24626.3
-10375.5
26755.5
-11482
27649.8
-11807.7
26925.9
-8904.77
21573.1
-1914.65
7344.4
2423.84
-6442.74
-8717.48
-2796.1
-11518
-4302.8
7322.28
-8664.81
5604.19
-11656.3
-223.075
-13263.6
-1621.39
-14105.3
-588.602
-14067.5
2367.24
-13580.4
6371.03
-12984
11082.1
-12423.8
16023
-12032.7
20702.2
-12008.7
24602.3
-12403.4
27150.1
-12477.1
27723.5
-10545.8
24994.6
-5470.68
16498
280.165
1593.56
2100.77
-8263.34
-8576.1
-2676.06
-13926.5
-2869.18
7515.4
-7152.75
9887.76
-11214.6
3838.75
-13341.2
505.274
-14586.5
656.674
-15143.6
2924.32
-15128
6355.46
-14829.1
10783.2
-14500.2
15694.2
-14282.4
20484.4
-14160.7
24480.6
-13731.5
26720.9
-12042.6
26034.6
-8115.8
21067.7
-2156.17
10538.4
1945.11
-2507.72
2189.92
-8508.15
-8172.49
-2842.75
-16236
-1648.87
6321.51
-4985.76
13224.7
-10054.2
8907.18
-13256.8
3707.89
-14949.5
2349.41
-16064.2
4039
-16680.7
6971.91
-16850
10952.5
-16772.4
15616.5
-16453.2
20165.2
-15614
23641.4
-13712.5
24819.4
-10224.5
22546.7
-5280.54
16123.8
-490.909
5748.76
1835.92
-4834.55
2078.58
-8750.81
-7762.49
-3436.09
-1043.58
-2117.49
-6117.04
-9990.68
-12613.7
-14447
-15826.6
-16577.3
-16625.6
-15851.9
-14016.3
-10960.7
-6907.14
-2658.96
468.239
1750.71
2147.44
-351.557
-161.281
-323.314
-1230.96
-90.8375
-2020.55
191.418
-2156.59
447.719
-2002.12
672.465
-1812.61
824.691
-1652.15
970.795
-1511.42
1091.84
-1374.48
1185.86
-1236.71
1250.76
-1097.6
1284.95
-957.372
1286.4
-816.879
1252.1
-675.938
1178.69
-535.073
1061.11
-391.128
892.207
-241.595
657.588
-70.7966
360.81
103.564
341.68
263.712
-424.996
373.504
-1340.75
342.478
-1989.52
307.467
-2121.58
301.724
-1996.38
327.565
-1838.45
376.772
-1701.36
433.43
-1568.08
487.924
-1428.98
533.903
-1282.69
567.103
-1130.81
583.334
-973.605
578.252
-811.8
546.728
-644.417
485.568
-473.915
394.693
-300.256
276.152
-123.055
149.837
55.5146
27.3634
226.035
369.043
603.482
-1028.48
1083.51
-1820.77
1089.94
-1995.96
886.237
-1917.88
681.311
-1791.45
517.571
-1674.71
373.426
-1557.22
231.284
-1425.94
89.6196
-1287.32
-49.5626
-1143.51
-184.146
-996.225
-314.031
-843.723
-440.257
-685.577
-561.421
-523.256
-671.99
-363.35
-755.949
-216.299
-782.229
-96.778
-695.882
-30.8345
-444.404
-25.446
-75.3611
320.759
-1349.24
518.281
-2018.3
376.572
-1854.25
110.409
-1651.71
-138.507
-1542.54
-362.124
-1451.09
-576.704
-1342.64
-789.974
-1212.67
-1002.41
-1074.88
-1214.54
-931.386
-1425.23
-785.535
-1628.98
-639.973
-1813.15
-501.406
-1954.79
-381.617
-2015.41
-302.732
-1937.08
-294.635
-1657.73
-376.128
-1158.33
-530.23
-510.296
-673.483
-585.657
-51.3924
-1297.85
-138.307
-1931.38
-284.332
-1708.23
-426.323
-1509.73
-576.39
-1392.47
-742.927
-1284.56
-910.766
-1174.8
-1071.53
-1051.91
-1222.61
-923.805
-1363.78
-790.223
-1491.37
-657.94
-1595.52
-535.823
-1657.62
-439.31
-1647.15
-392.088
-1534.38
-415.503
-1299.67
-529.35
-953.647
-722.148
-552.481
-931.397
-204.709
-1021.26
-790.366
-156.587
-1141.26
-155.138
-1932.83
-76.5489
-1786.82
-31.4643
-1554.81
-27.2065
-1396.73
-39.0697
-1272.7
-42.8532
-1171.02
-28.1835
-1066.58
10.264
-962.253
75.7387
-855.699
167.945
-750.147
281.46
-649.339
405.435
-563.285
524.384
-511.038
616.292
-507.412
649.444
-562.502
589.151
-661.856
425.194
-767.44
198.452
-794.515
-591.914
-84.3334
-1056.93
-36.6481
-1980.52
60.6314
-1884.1
132.044
-1626.23
195.81
-1460.5
259.14
-1336.03
326.996
-1238.88
403.861
-1143.44
493.405
-1051.8
599.898
-962.194
724.321
-874.57
862.739
-787.759
1001.02
-701.57
1109.43
-619.448
1152.71
-550.693
1097.57
-507.354
930.549
-494.839
660.441
-497.331
338.135
-472.209
-253.779
53.1363
-1110.07
99.0962
-2026.48
157.045
-1942.04
212.96
-1682.14
277.961
-1525.5
344.962
-1403.03
410.956
-1304.87
472.956
-1205.44
530.624
-1109.47
583.502
-1015.07
631.978
-923.045
677.495
-833.275
721.176
-745.25
759.966
-658.238
781.713
-572.439
762.931
-488.571
678.658
-410.566
510.715
-329.387
267.357
-228.85
13.5781
186.021
-1296.09
250.186
-2090.65
276.523
-1968.38
313.347
-1718.97
371.42
-1583.57
431.793
-1463.4
494.548
-1367.63
555.024
-1265.92
613.456
-1167.9
665.122
-1066.74
705.617
-963.54
730.318
-857.979
736.492
-751.424
722.755
-644.502
688.205
-537.889
628.659
-429.026
535.577
-317.484
394.01
-187.819
199.244
-34.0827
212.822
298.537
-1594.63
350.586
-2142.69
349.435
-1967.23
383.101
-1752.63
450.296
-1650.77
519.478
-1532.59
597.709
-1445.86
677.476
-1345.69
759.891
-1250.31
834.103
-1140.95
892.975
-1022.41
928.308
-893.311
935.191
-758.306
910.092
-619.403
850.389
-478.185
752.526
-331.163
615.134
-180.091
426.998
0.317122
213.307
179.609
426.129
288.421
-1883.05
252.098
-2106.37
225.165
-1940.3
246.393
-1773.86
297.42
-1701.79
351.577
-1586.74
422.384
-1516.66
498.926
-1422.23
580.182
-1331.57
648.307
-1209.08
695.339
-1069.44
711.315
-909.288
693.423
-740.414
640.836
-566.816
551.13
-388.479
421.253
-201.286
277.821
-36.6595
160.734
117.404
33.6617
306.681
459.791
104.899
-1987.95
-28.2795
-1973.19
-96.1898
-1872.39
-143.022
-1727.03
-180.366
-1664.45
-215.286
-1551.82
-241.772
-1490.18
-264.041
-1399.96
-285.655
-1309.95
-313.885
-1180.84
-352.11
-1031.22
-403.724
-857.671
-468.077
-676.059
-539.514
-495.376
-608.498
-319.493
-663.653
-146.129
-692.105
-8.20582
-651.995
77.2954
-450.525
105.211
9.26598
-69.3897
-1918.56
-183.931
-1858.65
-273.26
-1783.06
-377.669
-1622.62
-482.686
-1559.43
-598.487
-1436.02
-722.889
-1365.77
-855.484
-1267.36
-991.44
-1174
-1120.51
-1051.77
-1238.09
-913.636
-1342.2
-753.564
-1435.54
-582.719
-1514.81
-416.105
-1558.34
-275.959
-1515.56
-188.918
-1341.63
-182.131
-998.659
-265.676
-483.398
-410.048
-474.132
-60.9107
-1857.64
-92.3955
-1827.16
-136
-1739.45
-203.833
-1554.78
-269.716
-1493.55
-352.987
-1352.75
-448.266
-1270.49
-556.004
-1159.62
-664.294
-1065.71
-755.155
-960.905
-813.596
-855.193
-826.664
-740.494
-790.572
-618.81
-710.484
-496.191
-596.022
-390.42
-448.266
-336.672
-264.339
-366.055
-72.9866
-457.027
40.3059
-523.338
-433.826
47.0905
-1904.73
76.9909
-1857.06
112.917
-1775.38
141.499
-1583.36
170.139
-1522.18
198.364
-1380.97
220.1
-1292.23
240.851
-1180.37
259.201
-1084.05
285.105
-986.806
325.308
-895.395
391.195
-806.379
490.472
-718.085
621.495
-627.212
763.274
-532.197
864.753
-438.149
854.167
-355.469
684.486
-287.345
374.826
-213.677
-59.0006
80.5011
-1985.23
94.8266
-1871.39
138.261
-1818.81
187.981
-1633.08
237.827
-1572.03
297.156
-1440.3
357.788
-1352.86
426.303
-1248.88
497.985
-1155.73
573.099
-1061.92
648.84
-971.135
723.27
-880.807
793.061
-787.876
851.575
-685.725
885.317
-565.939
867.843
-420.675
780.206
-267.833
614.592
-121.731
351.637
49.2778
292.636
30.7745
-2016.01
-0.337835
-1840.27
5.16297
-1824.31
28.852
-1656.77
55.5453
-1598.72
99.5298
-1484.28
150.855
-1404.18
214.561
-1312.59
288.93
-1230.1
374.189
-1147.18
469.644
-1066.59
572.11
-983.273
673.331
-889.095
755.437
-767.83
786.423
-596.924
714.292
-348.543
499.59
-53.1293
271.648
106.213
106.562
214.367
399.198
-151.469
-1864.54
-332.733
-1659.01
-473.694
-1683.35
-571.659
-1558.8
-658.718
-1511.66
-712.828
-1430.17
-750.769
-1366.24
-766.421
-1296.94
-764.218
-1232.31
-743.253
-1168.14
-704.375
-1105.47
-648.087
-1039.56
-576.439
-960.742
-493.298
-850.972
-404.341
-685.881
-313.348
-439.535
-231.483
-134.994
-178.782
53.5133
-141.055
176.64
258.143
-216.311
-1648.22
-480.902
-1394.42
-760.513
-1403.74
-999.375
-1319.94
-1229.58
-1281.46
-1428.04
-1231.71
-1604.39
-1189.89
-1753.76
-1147.57
-1879.05
-1107.01
-1980.23
-1066.96
-2058.26
-1027.44
-2110.7
-987.119
-2129
-942.441
-2093.74
-886.233
-1970.71
-808.906
-1707.03
-703.217
-1273.48
-568.539
-806.026
-413.945
-372.158
-257.227
-114.015
-673.224
-1092.64
-1521.38
-1866.32
-2172.78
-2429.48
-2644.38
-2816.94
-2948.96
-3040.91
-3093.36
-3105.48
-3072.92
-2984.15
-2818.06
-2546.27
-2139.81
-1578.76
-860.985
-673.206
1648.21
-1092.61
1394.4
-1521.33
1403.72
-1866.26
1319.93
-2172.7
1281.44
-2429.39
1231.69
-2644.27
1189.88
-2816.83
1147.56
-2948.83
1107
-3040.78
1066.95
-3093.22
1027.44
-3105.34
987.114
-3072.77
942.43
-2983.97
886.209
-2817.84
808.87
-2546.03
703.186
-2139.58
568.549
-1578.61
414.034
-860.946
257.334
114.054
-216.322
1864.53
-480.932
1659.01
-760.562
1683.35
-999.45
1558.82
-1229.68
1511.68
-1428.18
1430.19
-1604.56
1366.26
-1753.97
1296.96
-1879.31
1232.34
-1980.54
1168.19
-2058.62
1105.52
-2111.11
1039.61
-2129.45
960.763
-2094.17
850.931
-1971.04
685.737
-1707.11
439.262
-1273.36
134.799
-805.922
-53.4063
-371.995
-176.593
-257.941
-151.52
2016.05
-332.822
1840.32
-473.829
1824.36
-571.841
1656.83
-658.952
1598.79
-713.113
1484.35
-751.109
1404.26
-766.817
1312.67
-764.673
1230.2
-743.771
1147.28
-704.96
1066.71
-648.743
983.393
-577.17
889.19
-494.096
767.858
-405.174
596.815
-314.142
348.231
-232.222
52.8803
-179.393
-106.235
-141.399
-214.586
-399.341
30.7461
1985.3
-0.42561
1871.49
5.03436
1818.9
28.6814
1633.18
55.3385
1572.13
99.2847
1440.4
150.574
1352.97
214.243
1249
288.579
1155.86
373.813
1062.05
469.255
971.267
571.716
880.932
672.927
787.98
754.995
685.789
785.878
565.933
713.546
420.563
498.748
267.679
271.071
121.443
106.193
-49.7072
-293.147
80.6
1904.7
94.8649
1857.22
138.309
1775.45
188.04
1583.45
237.921
1522.25
297.264
1381.06
357.932
1292.3
426.472
1180.47
498.191
1084.14
573.337
986.905
649.103
895.5
723.532
806.504
793.282
718.231
851.712
627.359
885.297
532.348
867.571
438.29
779.754
355.496
614.113
287.084
351.312
213.095
58.1644
47.2781
1857.43
77.2294
1827.27
113.266
1739.42
141.997
1554.72
170.787
1493.46
199.197
1352.65
221.145
1270.36
242.145
1159.47
260.76
1065.53
286.923
960.742
327.366
855.057
393.454
740.416
492.851
618.833
623.868
496.343
765.417
390.799
866.341
337.366
855.042
366.795
684.842
457.284
375.065
522.871
433.23
-60.661
1918.09
-91.8375
1858.45
-135.17
1782.75
-202.712
1622.26
-268.312
1559.06
-351.273
1435.61
-446.242
1365.33
-553.647
1266.87
-661.596
1173.48
-752.103
1051.25
-810.172
913.126
-822.848
753.093
-786.37
582.355
-705.946
415.918
-591.188
276.041
-443.224
189.402
-259.535
183.106
-69.2968
267.046
42.1271
411.448
475.357
-69.7371
1987.82
-184.149
1972.86
-273.527
1872.13
-378.073
1726.81
-483.237
1664.22
-599.245
1551.62
-723.895
1489.97
-856.779
1399.75
-993.016
1309.72
-1122.33
1180.56
-1240.07
1030.87
-1344.23
857.254
-1437.51
675.639
-1516.59
494.995
-1559.64
319.09
-1516
145.765
-1341.1
8.21203
-997.505
-76.5533
-482.354
-103.703
-6.99688
104.294
1883.53
-29.0282
2106.18
-97.1119
1940.21
-144.201
1773.9
-181.843
1701.87
-217.073
1586.85
-243.902
1516.8
-266.532
1422.38
-288.52
1331.7
-317.101
1209.14
-355.651
1069.42
-407.546
909.149
-472.127
740.22
-543.744
566.611
-612.875
388.221
-668.14
201.031
-696.548
36.6197
-655.529
-117.571
-452.415
-306.818
-459.412
288.284
1595.25
251.696
2142.77
224.624
1967.28
245.732
1752.79
296.619
1650.98
350.657
1532.81
421.347
1446.11
497.773
1345.96
578.889
1250.59
646.846
1141.19
693.676
1022.59
709.426
893.4
691.332
758.314
638.612
619.331
548.815
478.018
418.97
330.876
275.925
179.665
159.366
-1.01322
32.725
-180.177
-426.687
298.879
1296.37
350.885
2090.77
349.659
1968.51
383.314
1719.13
450.528
1583.77
519.741
1463.6
598.028
1367.83
677.859
1266.13
760.341
1168.11
834.597
1066.93
893.49
963.693
928.814
858.075
935.68
751.448
910.566
644.445
850.835
537.749
752.91
428.801
615.399
317.176
426.993
187.393
213.292
33.5246
-213.395
186.512
1109.85
250.731
2026.55
276.949
1942.29
313.747
1682.34
371.843
1525.67
432.242
1403.2
495.034
1305.04
555.558
1205.6
614.051
1109.61
665.79
1015.19
706.356
923.127
731.109
833.321
737.283
745.274
723.475
658.253
688.777
572.447
629.041
488.536
535.785
410.432
394.077
329.101
199.205
228.397
-14.1902
53.7247
1056.13
99.8868
1980.38
157.515
1884.66
213.11
1626.74
277.966
1460.81
344.832
1336.33
410.682
1239.19
472.501
1143.78
529.947
1052.17
582.518
962.618
630.56
875.085
675.494
788.387
718.485
702.283
756.634
620.104
778.078
551.003
759.535
507.078
675.957
494.011
508.893
496.165
266.243
471.047
252.053
-83.2312
1139.36
-34.7806
1931.93
63.591
1786.29
135.076
1555.26
198.534
1397.35
261.73
1273.14
329.389
1171.53
405.765
1067.41
494.329
963.6
599.168
857.779
721.127
753.125
856.877
652.637
992.715
566.444
1100.31
512.505
1144.49
506.829
1090.95
560.612
926.409
658.555
658.747
763.827
338.033
791.76
590.086
-149.051
1288.41
-150.244
1933.13
-74.2368
1710.28
-25.9883
1507.01
-17.6557
1389.02
-26.2358
1281.71
-27.3316
1172.62
-10.2577
1050.33
30.3343
923.008
97.6987
790.414
191.467
659.356
306.157
537.946
430.907
441.693
549.608
393.804
639.181
417.256
667.196
532.597
599.953
725.797
429.582
934.198
199.269
1022.07
789.356
-29.0778
1317.49
-102.731
2006.78
-250.77
1858.32
-396.903
1653.14
-546.489
1538.61
-709.833
1445.06
-873.807
1336.6
-1030.38
1206.9
-1176.9
1069.53
-1313.09
926.605
-1435.53
781.796
-1535.45
637.863
-1595.27
501.517
-1585.77
384.296
-1476.54
308.034
-1247.16
303.217
-911.97
390.602
-528.713
550.942
-198.491
691.85
590.865
342.579
974.91
583.605
1765.75
463.435
1978.49
191.944
1924.63
-68.5508
1799.1
-300.901
1677.41
-521.726
1557.42
-740.425
1425.6
-957.934
1287.04
-1174.78
1143.45
-1389.89
996.905
-1598.07
846.043
-1786.82
690.268
-1932.91
530.389
-1996.93
372.054
-1920.77
227.053
-1643.1
112.934
-1143.63
51.47
-497.453
45.6749
93.4117
593.143
381.766
1109.62
1249.27
1133.3
1954.82
930.428
2127.5
717.906
2011.62
545.102
1850.21
393.131
1709.39
244.582
1574.15
97.2116
1434.41
-47.1317
1287.79
-186.146
1135.92
-319.475
979.372
-448.041
818.835
-570.808
653.156
-683.048
484.294
-768.654
312.659
-792.901
137.181
-696.795
-44.6361
-435.491
-215.629
-342.08
255.82
125.946
342.788
1162.31
303.19
1994.42
276.429
2154.26
282.101
2005.95
317.186
1815.13
374.464
1652.11
437.274
1511.34
497.187
1374.49
548.006
1236.97
585.48
1098.44
605.5
959.352
603.752
820.583
575.022
681.885
515.696
543.619
425.57
402.784
306.083
256.668
171.888
89.5594
37.8158
-81.5576
-304.264
-416.478
-420.538
-186.782
111.819
386.02
624.243
796.281
963.835
1103.17
1212.57
1290.28
1335
1344.86
1316.7
1246.73
1129.12
955.677
709.171
388.373
)
;

boundaryField
{
    outletWall
    {
        type            calculated;
        value           nonuniform List<scalar> 
60
(
18012.5
2267.89
-5692.08
-15514.5
-22818.7
-28104.8
-30642.3
-30109.3
-27927.5
-23975.1
-20121.4
-16708.2
-13046.4
-7989.55
4906.93
8965.09
8990.25
8935.25
8804.3
7197.9
5204.62
5152.32
5084.5
5040.52
4963.24
4833.65
4682.54
4524.74
4456.32
4470.19
4288.58
3758.46
3066.07
2505.7
2203.18
2074.67
1976.72
1834.56
1678.43
1345.95
173.743
-7711.35
-9147.55
-6117.02
2621.56
11875.6
18493.1
21763.8
21805.8
19391.5
15664.9
11703.2
8351.47
5872.33
4972.43
7581.53
12906.7
14298.6
3929
-18004.6
)
;
    }
    fineWalls
    {
        type            calculated;
        value           uniform 0;
    }
    fineFrontAndBack
    {
        type            calculated;
        value           nonuniform List<scalar> 
960
(
-8.46258e-13
-3.01351e-12
-3.95922e-13
-3.74755e-13
-2.44436e-12
-4.8748e-13
-4.89725e-13
-5.28544e-13
-2.59459e-12
-4.53367e-13
-4.29597e-13
-3.60932e-12
-1.02945e-12
-1.15013e-12
-8.30447e-12
-1.79079e-12
-1.6806e-12
-5.8567e-12
-7.07808e-13
-6.66822e-13
1.40698e-14
1.45378e-13
4.97843e-14
-5.53071e-15
-3.46541e-14
-1.35073e-13
-7.47525e-12
-2.89509e-13
-3.95688e-13
-5.07948e-13
-6.31034e-13
-7.44793e-13
-8.48575e-13
-9.40059e-13
-1.01931e-12
-1.08915e-12
-1.1195e-12
-1.12796e-12
-1.06171e-12
-1.05113e-12
-1.35387e-11
1.17717e-13
1.04841e-12
1.21377e-12
3.91676e-11
2.85803e-11
2.48508e-11
2.74305e-11
1.69895e-10
2.9397e-11
3.38479e-11
6.98704e-11
-3.61754e-12
-1.52959e-12
-2.16754e-12
-1.11189e-11
-1.26119e-12
-2.41266e-13
8.64616e-13
1.87277e-11
1.13104e-12
1.03019e-12
1.06186e-12
1.01036e-12
9.6061e-13
8.87892e-13
8.0259e-13
7.0881e-13
6.16064e-13
5.20076e-13
4.13341e-13
3.13997e-13
2.3719e-13
6.14981e-12
1.76734e-13
1.54241e-13
1.91679e-13
2.13805e-13
1.99875e-13
3.4346e-13
2.58365e-12
2.70372e-12
1.81292e-11
4.22567e-12
3.91543e-12
2.12338e-11
6.40728e-12
9.01218e-12
3.48063e-11
5.68028e-12
4.3767e-12
2.6891e-11
5.64484e-12
5.23693e-12
5.05717e-12
2.34192e-11
4.18904e-12
4.17718e-12
1.80585e-11
4.11358e-12
-1.05469e-11
-9.94183e-12
-7.2641e-12
-5.69767e-12
-4.48865e-12
-2.05845e-12
-1.86676e-12
-5.0411e-12
-7.89588e-12
-6.29301e-12
3.92313e-12
2.09484e-11
3.71127e-11
4.61598e-11
4.53708e-11
3.53745e-11
1.78876e-11
7.25106e-12
-9.45268e-12
-1.23853e-11
-1.1352e-11
-1.02721e-11
-9.19673e-12
-6.35792e-12
-2.08774e-12
-1.041e-12
-5.11562e-12
-7.96759e-12
-6.09279e-12
4.31387e-12
2.12685e-11
3.72386e-11
4.61603e-11
4.54405e-11
3.58588e-11
1.92316e-11
9.85684e-12
-6.27768e-12
-1.20303e-11
-1.04493e-11
-9.30796e-12
-7.71091e-12
-4.86957e-12
-1.18142e-12
1.38426e-14
-4.76228e-12
-8.05812e-12
-5.81335e-12
4.9003e-12
2.17572e-11
3.74601e-11
4.6182e-11
4.54987e-11
3.63907e-11
2.08896e-11
1.30301e-11
-3.09485e-12
-1.12781e-11
-7.85406e-12
-5.73054e-12
-3.80507e-12
-1.79745e-12
6.48229e-13
9.86261e-13
-3.78229e-12
-7.95409e-12
-5.49308e-12
5.67594e-12
2.24181e-11
3.77943e-11
4.6236e-11
4.55105e-11
3.68147e-11
2.25014e-11
1.69443e-11
-6.92702e-13
-9.58126e-12
-3.58796e-12
-5.93659e-13
9.48816e-13
1.67289e-12
3.18735e-12
2.20421e-12
-2.40101e-12
-7.39471e-12
-5.06702e-12
6.62407e-12
2.33036e-11
3.82728e-11
4.63351e-11
4.54619e-11
3.70354e-11
2.39567e-11
2.04226e-11
8.31999e-12
-7.51679e-12
5.81623e-13
3.15418e-12
3.5523e-12
3.81835e-12
6.24602e-12
3.99705e-12
-8.66868e-13
-6.21422e-12
-4.27872e-12
7.76859e-12
2.4508e-11
3.89156e-11
4.64622e-11
4.52763e-11
3.69821e-11
2.48979e-11
2.23558e-11
1.16621e-11
-5.67267e-12
2.73976e-12
3.50204e-12
2.80982e-12
4.25087e-12
9.99907e-12
6.677e-12
8.63023e-13
-4.39708e-12
-2.90026e-12
9.08055e-12
2.59445e-11
3.97756e-11
4.66977e-11
4.50604e-11
3.64161e-11
2.83472e-11
1.37897e-11
7.20503e-12
-4.6544e-12
2.25866e-12
1.22898e-12
2.34442e-13
3.69906e-12
1.46959e-11
1.1066e-11
3.28943e-12
-1.66937e-12
-5.78901e-13
1.09564e-11
2.79098e-11
4.08687e-11
4.66229e-11
4.37649e-11
3.60816e-11
2.7414e-11
1.19445e-12
2.03382e-11
-4.69086e-12
4.77547e-13
-7.89083e-13
-1.4e-12
2.81844e-12
1.9451e-11
1.90245e-11
6.74348e-12
2.53438e-12
3.1338e-12
1.34006e-11
2.93601e-11
4.21805e-11
4.75402e-11
4.66416e-11
2.93248e-11
-9.50701e-12
-2.25311e-11
-1.52118e-11
-5.52406e-12
-6.26514e-13
-5.96591e-13
-5.23189e-13
1.66881e-12
1.96671e-11
4.38099e-11
9.5002e-12
7.89563e-12
7.79534e-12
1.70017e-11
3.28409e-11
4.39428e-11
4.59213e-11
3.04566e-11
1.81631e-11
-2.60801e-11
-1.67257e-11
3.58488e-11
-6.67915e-12
-4.6455e-13
9.77981e-13
2.02521e-12
2.62581e-12
9.40349e-13
6.19153e-12
2.3453e-11
1.42255e-11
1.38417e-11
2.24936e-11
3.73505e-11
4.52895e-11
4.32237e-11
2.28908e-11
6.76217e-12
-2.95859e-11
5.30971e-12
9.59256e-11
-7.86444e-12
3.55114e-14
2.11405e-12
2.88216e-12
7.70944e-12
2.4931e-11
3.45861e-11
3.46352e-11
2.5204e-11
2.3587e-11
3.05155e-11
4.1796e-11
4.55543e-11
3.93629e-11
1.941e-11
1.74825e-12
-9.96714e-12
2.78199e-11
3.91305e-11
-8.93272e-12
1.69762e-13
3.25445e-12
3.39134e-12
5.15611e-12
2.13618e-11
4.28311e-11
4.48268e-11
3.95653e-11
3.67372e-11
3.97938e-11
4.50857e-11
4.38639e-11
3.37816e-11
1.65921e-11
9.74893e-12
1.03746e-11
5.03087e-12
-2.07645e-11
-9.83469e-12
-5.39998e-13
4.32241e-12
4.20364e-12
2.81915e-12
1.32885e-11
3.4952e-11
4.61017e-11
4.83883e-11
4.71285e-11
4.64421e-11
4.54427e-11
3.95008e-11
2.83251e-11
1.98036e-11
2.13901e-11
1.19613e-11
-1.30557e-11
-1.79604e-11
-1.04822e-11
-2.47666e-12
5.15803e-12
5.31745e-12
9.00329e-13
3.2958e-12
1.84002e-11
3.37707e-11
4.36792e-11
4.70778e-11
4.57328e-11
4.10315e-11
3.3233e-11
2.61753e-11
2.58782e-11
2.24097e-11
-3.02998e-13
-1.84457e-11
3.49262e-12
-1.08122e-11
-5.09405e-12
4.76798e-12
6.88233e-12
1.44241e-12
-2.5766e-12
2.68866e-12
1.45422e-11
2.67385e-11
3.43642e-11
3.56002e-11
3.20164e-11
2.76137e-11
2.71601e-11
2.74569e-11
1.42749e-11
-7.09539e-12
1.31348e-13
2.00093e-12
-1.09361e-11
-7.6999e-12
2.16282e-12
8.68942e-12
4.60951e-12
-1.87433e-12
-3.95465e-12
1.38478e-13
8.12411e-12
1.61199e-11
2.07924e-11
2.2482e-11
2.46563e-11
2.78448e-11
2.34098e-11
4.82823e-12
-1.1035e-11
4.063e-13
3.70015e-13
-1.09652e-11
-9.5705e-12
-2.24748e-12
9.164e-12
9.21118e-12
3.28985e-12
-1.6592e-12
-3.44955e-12
-1.35172e-12
3.88287e-12
1.02086e-11
1.66184e-11
2.2808e-11
2.50315e-11
1.65856e-11
6.56046e-13
-2.23444e-12
1.89441e-12
-7.5042e-13
-1.0968e-11
-1.04936e-11
-6.63341e-12
6.927e-12
1.37171e-11
1.00165e-11
4.68096e-12
5.557e-13
-9.35644e-13
1.34443e-12
6.9013e-12
1.39831e-11
1.95098e-11
1.89649e-11
1.00452e-11
-1.79853e-13
3.63897e-12
2.39742e-12
-1.51952e-12
-1.09641e-11
-1.06533e-11
-1.00143e-11
-2.10913e-12
9.98832e-12
1.39649e-11
1.19992e-11
8.86825e-12
5.87685e-12
4.76343e-12
6.17147e-12
9.09453e-12
1.10759e-11
9.50816e-12
4.38925e-12
2.85171e-13
3.1177e-12
1.90106e-12
-1.99331e-12
8.46258e-13
3.01351e-12
3.95922e-13
3.74755e-13
2.44436e-12
4.8748e-13
4.89725e-13
5.28544e-13
2.59459e-12
4.53367e-13
4.29597e-13
3.60932e-12
1.02945e-12
1.15013e-12
8.30447e-12
1.79079e-12
1.6806e-12
5.8567e-12
7.07808e-13
6.66822e-13
-1.40698e-14
-1.45378e-13
-4.97843e-14
5.53071e-15
3.46541e-14
1.35073e-13
7.47525e-12
2.89509e-13
3.95688e-13
5.07948e-13
6.31034e-13
7.44793e-13
8.48575e-13
9.40059e-13
1.01931e-12
1.08915e-12
1.1195e-12
1.12796e-12
1.06171e-12
1.05113e-12
1.35387e-11
-1.17717e-13
-1.04841e-12
-1.21377e-12
-3.91676e-11
-2.85803e-11
-2.48508e-11
-2.74305e-11
-1.69895e-10
-2.9397e-11
-3.38479e-11
-6.98704e-11
3.61754e-12
1.52959e-12
2.16754e-12
1.11189e-11
1.26119e-12
2.41266e-13
-8.64616e-13
-1.87277e-11
-1.13104e-12
-1.03019e-12
-1.06186e-12
-1.01036e-12
-9.6061e-13
-8.87892e-13
-8.0259e-13
-7.0881e-13
-6.16064e-13
-5.20076e-13
-4.13341e-13
-3.13997e-13
-2.3719e-13
-6.14981e-12
-1.76734e-13
-1.54241e-13
-1.91679e-13
-2.13805e-13
-1.99875e-13
-3.4346e-13
-2.58365e-12
-2.70372e-12
-1.81292e-11
-4.22567e-12
-3.91543e-12
-2.12338e-11
-6.40728e-12
-9.01218e-12
-3.48063e-11
-5.68028e-12
-4.3767e-12
-2.6891e-11
-5.64484e-12
-5.23693e-12
-5.05717e-12
-2.34192e-11
-4.18904e-12
-4.17718e-12
-1.80585e-11
-4.11358e-12
1.05469e-11
9.94183e-12
7.2641e-12
5.69767e-12
4.48865e-12
2.05845e-12
1.86676e-12
5.0411e-12
7.89588e-12
6.29301e-12
-3.92313e-12
-2.09484e-11
-3.71127e-11
-4.61598e-11
-4.53708e-11
-3.53745e-11
-1.78876e-11
-7.25106e-12
9.45268e-12
1.23853e-11
1.1352e-11
1.02721e-11
9.19673e-12
6.35792e-12
2.08774e-12
1.041e-12
5.11562e-12
7.96759e-12
6.09279e-12
-4.31387e-12
-2.12685e-11
-3.72386e-11
-4.61603e-11
-4.54405e-11
-3.58588e-11
-1.92316e-11
-9.85684e-12
6.27768e-12
1.20303e-11
1.04493e-11
9.30796e-12
7.71091e-12
4.86957e-12
1.18142e-12
-1.38426e-14
4.76228e-12
8.05812e-12
5.81335e-12
-4.9003e-12
-2.17572e-11
-3.74601e-11
-4.6182e-11
-4.54987e-11
-3.63907e-11
-2.08896e-11
-1.30301e-11
3.09485e-12
1.12781e-11
7.85406e-12
5.73054e-12
3.80507e-12
1.79745e-12
-6.48229e-13
-9.86261e-13
3.78229e-12
7.95409e-12
5.49308e-12
-5.67594e-12
-2.24181e-11
-3.77943e-11
-4.6236e-11
-4.55105e-11
-3.68147e-11
-2.25014e-11
-1.69443e-11
6.92702e-13
9.58126e-12
3.58796e-12
5.93659e-13
-9.48816e-13
-1.67289e-12
-3.18735e-12
-2.20421e-12
2.40101e-12
7.39471e-12
5.06702e-12
-6.62407e-12
-2.33036e-11
-3.82728e-11
-4.63351e-11
-4.54619e-11
-3.70354e-11
-2.39567e-11
-2.04226e-11
-8.31999e-12
7.51679e-12
-5.81623e-13
-3.15418e-12
-3.5523e-12
-3.81835e-12
-6.24602e-12
-3.99705e-12
8.66868e-13
6.21422e-12
4.27872e-12
-7.76859e-12
-2.4508e-11
-3.89156e-11
-4.64622e-11
-4.52763e-11