/*--------------------------------*- C++ -*----------------------------------*\
| =========                 |                                                 |
| \\      /  F ield         | OpenFOAM: The Open Source CFD Toolbox           |
|  \\    /   O peration     | Version:  4.1                                   |
|   \\  /    A nd           | Web:      www.OpenFOAM.org                      |
|    \\/     M anipulation  |                                                 |
\*---------------------------------------------------------------------------*/
FoamFile
{
    version     2.0;
    format      ascii;
    class       volVectorField;
    location    "27";
    object      U;
}
// * * * * * * * * * * * * * * * * * * * * * * * * * * * * * * * * * * * * * //

dimensions      [0 1 -1 0 0 0 0];

internalField   nonuniform List<vector> 
1280
(
(-6.11568e-16 -0.0548711 -1.80712)
(-5.23086e-16 0.799342 -1.66603)
(-2.86122e-16 0.511863 -0.882614)
(-2.70826e-16 0.59497 -0.783293)
(-4.15442e-16 1.31322 -1.13293)
(-3.52289e-16 1.00251 -0.824331)
(-3.52287e-16 1.25565 -0.868707)
(-3.85214e-16 1.26178 -0.876802)
(-4.324e-16 1.91661 -1.32661)
(-3.25493e-16 1.68716 -0.997954)
(-3.10458e-16 1.85844 -0.946129)
(-7.25641e-16 2.58839 -1.51205)
(-7.4396e-16 2.26841 -1.22786)
(-8.56107e-16 2.5027 -1.1851)
(-1.55806e-15 3.3614 -2.04667)
(-1.29416e-15 3.00163 -1.73482)
(-1.21453e-15 3.3817 -1.60322)
(-9.95403e-16 4.13157 -3.18396)
(-5.11515e-16 4.3347 -2.46473)
(-4.81895e-16 3.98812 -3.34966)
(5.77221e-17 4.71144 -1.24657)
(5.96423e-16 4.58107 2.1378)
(2.04243e-16 4.67931 6.9235)
(-2.26901e-17 4.67578 9.73157)
(-1.42171e-16 4.8805 10.8848)
(-5.54144e-16 5.28733 11.424)
(-1.57581e-15 3.40025 8.73902)
(-1.18773e-15 8.0516 14.5541)
(-1.62333e-15 7.92435 14.5355)
(-2.08389e-15 8.02651 14.2235)
(-2.58886e-15 8.05743 13.7707)
(-3.05556e-15 8.02457 13.2404)
(-3.48133e-15 7.99246 12.6841)
(-3.85665e-15 7.95151 12.1523)
(-4.1818e-15 7.898 11.6969)
(-4.46831e-15 7.82982 11.341)
(-4.59281e-15 7.74758 11.1155)
(-4.62753e-15 7.62176 10.9274)
(-4.35572e-15 7.5239 10.8717)
(-4.31232e-15 7.1912 10.4012)
(-2.3566e-15 7.25508 12.2437)
(9.45522e-17 4.03467 8.30248)
(8.42096e-16 3.1862 8.0581)
(1.05959e-15 2.22503 8.45989)
(7.63886e-15 0.617859 5.66356)
(2.29561e-14 -0.239332 -4.21252)
(1.99605e-14 -0.0473114 -2.83514)
(2.20325e-14 0.246762 -2.87796)
(3.41231e-14 0.423718 -3.27564)
(2.52274e-14 0.133069 -2.6732)
(2.70085e-14 0.431141 -3.11047)
(1.2162e-14 1.10808 -0.157692)
(-2.90565e-15 -0.239727 5.35735)
(-1.22859e-15 -0.732427 4.89011)
(-1.741e-15 -1.43829 5.41391)
(-1.9354e-15 -2.4963 9.37347)
(-9.88775e-16 -4.17979 9.41753)
(-1.93788e-16 -5.35991 9.30005)
(6.9447e-16 -6.27518 9.32335)
(3.26383e-15 -9.55461 12.6235)
(4.64015e-15 -8.53675 10.0085)
(4.22644e-15 -8.85523 10.2937)
(4.35633e-15 -8.92535 10.1645)
(4.14508e-15 -9.03648 10.1703)
(3.94096e-15 -9.08913 10.2362)
(3.64263e-15 -9.12986 10.4511)
(3.29268e-15 -9.14898 10.7862)
(2.90794e-15 -9.15593 11.2079)
(2.52744e-15 -9.14997 11.652)
(2.13364e-15 -9.13308 12.0508)
(1.69576e-15 -9.0539 12.3387)
(1.28819e-15 -8.91461 12.4508)
(9.73088e-16 -8.88649 12.2869)
(1.2964e-15 -3.6021 5.37614)
(7.25061e-16 -5.04574 10.2243)
(6.32782e-16 -4.62436 9.412)
(7.86376e-16 -4.42425 8.13647)
(8.7715e-16 -4.44789 5.09503)
(8.20001e-16 -4.29279 -0.0147112)
(1.40907e-15 -4.46166 -3.46852)
(1.86714e-15 -3.45941 -6.17432)
(1.95391e-15 -3.64612 -4.95551)
(3.08124e-15 -2.12045 -6.50691)
(3.05378e-15 -2.01383 -3.86271)
(2.82958e-15 -1.02113 -4.28781)
(4.74573e-15 -0.289303 -5.56138)
(5.07399e-15 0.113214 -3.96713)
(6.95649e-15 0.92306 -3.76545)
(6.92165e-15 1.62653 -4.26515)
(3.99321e-15 1.76236 -2.90859)
(3.05114e-15 2.30452 -2.73318)
(5.05755e-15 3.2207 -3.49694)
(4.14896e-15 2.97415 -2.50054)
(3.78459e-15 3.61369 -2.4882)
(3.65468e-15 3.73349 -2.34673)
(3.98032e-15 4.90889 -3.21859)
(3.02731e-15 4.36747 -2.38445)
(3.01781e-15 5.05629 -2.20973)
(3.08434e-15 5.14717 -2.98423)
(2.97278e-15 5.90805 -3.20615)
(-1.17188e-15 2.39517 1.1219)
(-1.10465e-15 2.91903 1.33696)
(-8.07122e-16 2.95971 1.83147)
(-6.33075e-16 2.99257 2.01831)
(-4.98739e-16 3.00061 1.90329)
(-2.28716e-16 1.64033 1.28175)
(-2.07418e-16 -2.50522 0.520721)
(-5.60122e-16 -4.29779 0.669459)
(-8.7732e-16 -5.54536 0.818012)
(-6.99223e-16 -6.68661 0.965546)
(4.35904e-16 -7.96715 0.958002)
(2.3276e-15 -9.27687 0.786042)
(4.12363e-15 -10.0051 0.359287)
(5.12887e-15 -10.1829 -0.0376616)
(5.0412e-15 -9.34223 -0.740429)
(3.9305e-15 -7.58717 -1.32718)
(1.98751e-15 -5.16447 -2.18209)
(8.05674e-16 -1.877 -2.61621)
(-1.0503e-15 0.756425 -3.55317)
(-1.37614e-15 2.32449 1.39716)
(-1.26134e-15 2.69909 1.69572)
(-1.14134e-15 2.76678 1.96777)
(-1.02186e-15 2.99178 1.8932)
(-7.06436e-16 3.23441 1.59789)
(-2.31971e-16 2.18673 0.958739)
(-1.15667e-16 -2.6841 0.243526)
(-5.68402e-16 -4.50127 0.637024)
(-8.85288e-16 -5.69238 0.889454)
(-6.76976e-16 -6.77654 1.02299)
(4.79319e-16 -7.95517 1.03099)
(2.36317e-15 -9.13954 0.869611)
(4.13762e-15 -9.78707 0.4593)
(5.12892e-15 -9.87106 0.0736604)
(5.04894e-15 -8.95193 -0.629388)
(3.98431e-15 -7.12529 -1.26415)
(2.13685e-15 -4.70871 -2.21636)
(1.0952e-15 -1.49425 -2.99181)
(-6.9752e-16 0.940409 -2.93834)
(-1.3367e-15 2.26677 1.52845)
(-1.16103e-15 2.64882 1.87992)
(-1.03422e-15 2.81984 1.99782)
(-8.56768e-16 3.11242 1.84504)
(-5.41063e-16 3.40378 1.48172)
(-1.31269e-16 2.39247 0.981282)
(1.53807e-18 -2.53855 0.361439)
(-5.29142e-16 -4.5605 0.551419)
(-8.95347e-16 -5.75254 0.974802)
(-6.45927e-16 -6.78301 1.13553)
(5.44478e-16 -7.90725 1.15491)
(2.41747e-15 -9.01435 1.01033)
(4.16223e-15 -9.62389 0.623253)
(5.13133e-15 -9.65605 0.255557)
(5.05541e-15 -8.69207 -0.44191)
(4.04341e-15 -6.81367 -1.12797)
(2.32107e-15 -4.34234 -2.23238)
(1.44778e-15 -1.37407 -3.45025)
(-3.43873e-16 0.796843 -3.34191)
(-1.25312e-15 2.18544 1.64626)
(-8.72673e-16 2.54039 2.10176)
(-6.36726e-16 2.81083 2.09075)
(-4.22785e-16 3.20711 1.88248)
(-1.99716e-16 3.60046 1.47845)
(7.20255e-17 2.60586 1.12089)
(1.09585e-16 -2.45455 0.708868)
(-4.20254e-16 -4.62898 0.62471)
(-8.83788e-16 -5.87556 1.04575)
(-6.10342e-16 -6.82191 1.29753)
(6.3066e-16 -7.88251 1.32838)
(2.4909e-15 -8.92037 1.19807)
(4.19937e-15 -9.49073 0.845478)
(5.13734e-15 -9.46647 0.503178)
(5.05672e-15 -8.43866 -0.172644)
(4.09052e-15 -6.46307 -0.890921)
(2.50015e-15 -3.80822 -2.1704)
(1.8827e-15 -1.11203 -3.86324)
(-7.69669e-17 0.711477 -4.19128)
(-1.06458e-15 2.08026 1.7265)
(-3.98663e-16 2.46584 2.34272)
(-6.59621e-17 2.88629 2.22232)
(1.05424e-16 3.3414 1.98978)
(1.85877e-16 3.7715 1.59976)
(3.5415e-16 2.67455 1.45338)
(2.44912e-16 -2.37431 1.20191)
(-2.66779e-16 -4.66124 0.944862)
(-8.21635e-16 -6.00994 1.16315)
(-5.63002e-16 -6.90086 1.48203)
(7.36007e-16 -7.86861 1.56266)
(2.58929e-15 -8.83105 1.44128)
(4.25254e-15 -9.35839 1.13218)
(5.14835e-15 -9.26676 0.822748)
(5.05132e-15 -8.15871 0.185829)
(4.11504e-15 -6.04178 -0.532621)
(2.66186e-15 -3.1376 -2.06525)
(2.26918e-15 -0.467288 -4.14441)
(9.24443e-16 0.654969 -5.451)
(-8.35199e-16 1.93721 1.82848)
(6.46247e-17 2.35418 2.61133)
(3.50464e-16 2.95474 2.42097)
(3.94701e-16 3.45335 2.18346)
(4.24261e-16 3.89256 1.86899)
(6.94003e-16 2.65014 1.98648)
(4.44117e-16 -2.24908 1.89514)
(-9.63187e-17 -4.61508 1.48818)
(-6.90469e-16 -6.08246 1.43249)
(-4.75413e-16 -6.993 1.68735)
(8.63176e-16 -7.8673 1.84489)
(2.72311e-15 -8.74936 1.74735)
(4.32395e-15 -9.24151 1.48271)
(5.16247e-15 -9.0846 1.21241)
(5.0307e-15 -7.89429 0.636529)
(4.10913e-15 -5.56452 -0.0605581)
(2.76644e-15 -2.21207 -1.77558)
(2.48397e-15 0.188663 -5.14125)
(1.29579e-15 1.13695 -6.46113)
(-6.30297e-16 1.76958 2.0698)
(3.04417e-16 2.23147 2.91649)
(3.89116e-16 3.04825 2.70573)
(3.12202e-16 3.55343 2.46154)
(4.72319e-16 3.93749 2.29086)
(1.11101e-15 2.51428 2.69779)
(7.41889e-16 -2.12153 2.75428)
(9.58915e-17 -4.49338 2.21227)
(-4.88565e-16 -6.06826 1.90501)
(-3.22252e-16 -7.07037 1.96441)
(1.00895e-15 -7.88941 2.15536)
(2.88273e-15 -8.68553 2.1168)
(4.41951e-15 -9.14434 1.89819)
(5.18864e-15 -8.92918 1.66927)
(5.00671e-15 -7.66229 1.19767)
(4.04623e-15 -5.14231 0.576881)
(3.14969e-15 -1.27541 -1.53428)
(1.53219e-15 1.94201 -4.7023)
(8.00558e-16 1.6295 -1.95086)
(-5.17155e-16 1.61472 2.51803)
(2.50962e-16 2.10249 3.24297)
(1.36553e-16 3.1364 3.08843)
(2.60491e-17 3.61569 2.83479)
(4.11006e-16 3.88548 2.87522)
(1.63287e-15 2.29422 3.55426)
(1.22955e-15 -1.99299 3.70772)
(3.65492e-16 -4.3088 3.07121)
(-1.85486e-16 -5.96105 2.56226)
(-6.43223e-17 -7.09789 2.37378)
(1.21737e-15 -7.9262 2.50036)
(3.10109e-15 -8.64716 2.53852)
(4.54096e-15 -9.06455 2.3802)
(5.18032e-15 -8.80747 2.19356)
(4.86276e-15 -7.47939 1.87501)
(4.00907e-15 -4.45546 1.2685)
(3.046e-15 0.290555 -3.07754)
(1.32716e-16 -0.18218 3.05311)
(2.25979e-15 -4.97487 9.00532)
(-5.21207e-16 1.51966 3.06786)
(5.30608e-17 1.99323 3.55311)
(-8.76759e-17 3.21356 3.55789)
(-1.55556e-16 3.63371 3.31194)
(3.13161e-16 3.73007 3.61428)
(2.16122e-15 2.01504 4.50779)
(2.11383e-15 -1.86069 4.69791)
(7.49276e-16 -4.07359 4.00931)
(2.81598e-16 -5.76901 3.35523)
(3.482e-16 -7.05073 2.94025)
(1.48895e-15 -7.95423 2.91703)
(3.26224e-15 -8.63756 3.00247)
(4.68672e-15 -9.0083 2.92432)
(5.28224e-15 -8.73032 2.78531)
(5.1824e-15 -7.32042 2.60553)
(3.25832e-15 -3.8364 2.10059)
(-1.05633e-15 -1.12571 4.61397)
(-2.50345e-15 -2.18933 10.8292)
(-1.69019e-15 -3.46808 12.1472)
(-6.13785e-16 1.49737 3.47277)
(-6.96126e-17 1.87601 3.77495)
(-6.62878e-17 3.24399 4.07476)
(-5.81321e-17 3.58767 3.90494)
(1.85424e-16 3.4774 4.48598)
(2.18523e-15 1.71053 5.5022)
(6.08761e-15 -1.7258 5.67247)
(1.05558e-15 -3.80627 4.97062)
(8.77293e-16 -5.51502 4.23253)
(8.66149e-16 -6.92633 3.65052)
(1.88908e-15 -7.94999 3.44747)
(3.67316e-15 -8.64906 3.51541)
(4.88253e-15 -8.97806 3.51539)
(5.10237e-15 -8.67095 3.40785)
(2.93897e-15 -7.27207 3.26223)
(2.01812e-15 -4.66759 3.50778)
(-2.89779e-15 -3.46522 7.94538)
(-1.85841e-15 -3.64504 10.7188)
(3.9832e-15 -2.62939 6.76105)
(-7.42128e-16 1.52371 3.57327)
(-5.16166e-17 1.68143 3.8637)
(1.08665e-16 3.18308 4.60188)
(2.25023e-16 3.45918 4.61832)
(2.91757e-16 3.14995 5.4504)
(1.04483e-16 1.41416 6.48282)
(1.85075e-16 -1.58473 6.59017)
(2.60589e-15 -3.52451 5.9121)
(1.58061e-15 -5.2256 5.15173)
(1.53796e-15 -6.73934 4.47293)
(2.49929e-15 -7.89986 4.11078)
(4.15006e-15 -8.66377 4.09989)
(5.03217e-15 -8.96655 4.14382)
(4.80263e-15 -8.62493 4.04755)
(2.54342e-15 -7.40542 3.87973)
(7.51353e-16 -5.70543 4.59557)
(-3.28732e-15 -4.00023 7.81785)
(5.89968e-16 -1.37174 6.9361)
(1.06584e-14 0.917473 2.24679)
(-8.73827e-16 1.57074 3.49227)
(3.94571e-18 1.34619 3.85807)
(2.34894e-16 2.98649 5.15002)
(3.2024e-16 3.23257 5.4395)
(8.56604e-16 2.77993 6.46015)
(2.77011e-15 1.15194 7.41323)
(3.8429e-15 -1.44737 7.43146)
(3.84836e-15 -3.25203 6.80861)
(2.80045e-15 -4.92821 6.08433)
(2.62078e-15 -6.51155 5.37825)
(3.39061e-15 -7.80035 4.90738)
(4.644e-15 -8.66028 4.79003)
(5.06158e-15 -8.9581 4.81633)
(4.37365e-15 -8.56518 4.67767)
(2.15667e-15 -7.50161 4.41564)
(1.9425e-16 -6.25341 5.07384)
(-1.10746e-15 -4.63232 7.24635)
(3.0911e-15 -2.27105 8.352)
(4.34783e-15 0.255831 9.94864)
(-9.92525e-16 1.65186 3.46576)
(1.88625e-17 0.867102 3.80138)
(3.61606e-16 2.62863 5.75812)
(3.76816e-16 2.9117 6.33113)
(5.72901e-16 2.39901 7.4689)
(2.37353e-15 0.949207 8.28519)
(4.75901e-15 -1.29657 8.20072)
(4.98075e-15 -2.99748 7.65181)
(4.39615e-15 -4.64445 7.01677)
(4.08191e-15 -6.26984 6.35278)
(4.42153e-15 -7.66636 5.83545)
(5.00952e-15 -8.62793 5.60344)
(4.87377e-15 -8.92525 5.51417)
(3.75351e-15 -8.46877 5.27841)
(1.84357e-15 -7.59722 5.16048)
(1.08321e-15 -6.87569 6.47402)
(1.15274e-15 -5.382 9.65216)
(5.58986e-16 -1.27654 12.9286)
(-2.30717e-15 4.42188 13.8368)
(-1.09274e-15 1.83976 3.5262)
(-5.99998e-17 0.191415 3.56597)
(4.80268e-16 2.08077 6.38784)
(4.67071e-16 2.51576 7.24014)
(3.13239e-16 2.0279 8.43754)
(1.4765e-15 0.792105 9.13421)
(3.88356e-15 -1.16955 8.9494)
(5.12241e-15 -2.79072 8.44911)
(5.37648e-15 -4.40441 7.92076)
(5.2365e-15 -6.03935 7.34725)
(5.16023e-15 -7.50008 6.82942)
(5.04919e-15 -8.52767 6.46952)
(4.38897e-15 -8.82537 6.20274)
(3.14723e-15 -8.41865 6.02299)
(2.2004e-15 -7.9748 6.61309)
(2.37668e-15 -7.89364 8.60742)
(1.32904e-15 -6.84148 10.4416)
(-1.45064e-15 -3.716 8.8796)
(-1.9956e-15 -0.166012 4.63107)
(-1.16469e-15 2.18713 3.62947)
(-2.75184e-16 -0.67565 2.90181)
(5.73114e-16 1.32012 6.87119)
(5.90828e-16 2.04787 8.09392)
(1.00037e-16 1.68312 9.31693)
(3.662e-16 0.713175 9.99876)
(2.04446e-15 -0.983816 9.78744)
(3.7523e-15 -2.58325 9.27876)
(4.85325e-15 -4.19682 8.79731)
(5.23087e-15 -5.83587 8.29153)
(5.08143e-15 -7.32256 7.77504)
(4.55905e-15 -8.38374 7.31184)
(3.69256e-15 -8.75628 7.00483)
(2.90837e-15 -8.63716 7.2621)
(2.87535e-15 -8.6485 8.60844)
(2.48996e-15 -8.41712 10.0109)
(-3.36664e-17 -5.85431 8.70486)
(-2.04953e-15 -0.243682 2.35387)
(3.88069e-16 2.95369 -3.16285)
(-1.20135e-15 2.73051 3.77635)
(-5.66005e-16 -1.56266 2.02554)
(5.29776e-16 0.286838 6.84509)
(7.64703e-16 1.41979 8.7582)
(1.60267e-16 1.25479 10.0507)
(-2.86288e-16 0.528839 10.8586)
(2.9874e-16 -0.890816 10.7814)
(1.6158e-15 -2.41258 10.2686)
(2.97094e-15 -4.01104 9.74462)
(3.81824e-15 -5.62632 9.23236)
(3.95557e-15 -7.09741 8.72551)
(3.55738e-15 -8.20198 8.31549)
(3.06819e-15 -8.78853 8.27386)
(3.01779e-15 -9.04618 9.01187)
(3.05076e-15 -9.0831 10.1137)
(1.5861e-15 -7.90803 9.57171)
(-7.88376e-16 -3.73802 5.32126)
(1.45943e-17 1.82982 -2.03374)
(2.22326e-16 2.8681 -2.20768)
(-1.21512e-15 3.44901 3.93007)
(-8.55545e-16 -2.35112 1.20232)
(2.40314e-16 -1.10644 5.6473)
(9.65491e-16 0.733731 8.9187)
(5.12167e-16 0.939749 10.5319)
(-2.08258e-16 0.450889 11.5996)
(-4.39406e-16 -0.695298 11.89)
(1.53864e-17 -2.14269 11.5583)
(9.02679e-16 -3.76465 11.069)
(1.7911e-15 -5.42861 10.5688)
(2.31027e-15 -6.97436 10.1358)
(2.498e-15 -8.23449 9.91327)
(2.73959e-15 -9.07093 10.0956)
(3.09387e-15 -9.40727 10.5702)
(2.60109e-15 -8.87755 10.2132)
(5.3647e-16 -6.45577 7.40126)
(-1.22611e-15 -1.26045 1.66025)
(4.51445e-17 2.55578 -1.95445)
(4.11128e-17 2.93556 -1.73377)
(-1.21835e-15 4.25168 4.06552)
(-1.06339e-15 -2.45451 0.750554)
(-2.4972e-16 -2.6142 3.77668)
(1.01822e-15 -0.656458 8.21223)
(1.02346e-15 0.0214192 10.4963)
(3.65539e-16 -0.148647 11.7654)
(-1.84356e-16 -0.941046 12.5351)
(-3.83283e-16 -2.14569 12.7041)
(-1.50191e-16 -3.64148 12.5058)
(4.3143e-16 -5.24848 12.2082)
(1.13429e-15 -6.80064 11.9578)
(1.84649e-15 -8.12295 11.8422)
(2.53423e-15 -8.9766 11.7547)
(2.78127e-15 -9.02867 11.1244)
(1.84285e-15 -7.75412 8.93634)
(7.2894e-17 -4.51607 4.63569)
(-2.48271e-16 0.284398 -1.11341)
(2.1049e-16 2.81756 -2.03136)
(-8.338e-17 2.78685 -1.68919)
(-1.21867e-15 5.02231 4.21586)
(-1.16595e-15 -2.57377 0.747705)
(-7.37046e-16 -3.99388 1.80576)
(7.69667e-16 -1.80965 6.55789)
(1.52412e-15 -0.227952 10.2079)
(1.11295e-15 -0.190637 11.8968)
(5.20106e-16 -0.947952 13.0122)
(6.17444e-17 -2.04325 13.7642)
(-1.0396e-16 -3.52076 14.0359)
(1.49381e-16 -5.22039 14.0466)
(7.66811e-16 -6.90063 13.9059)
(1.55368e-15 -8.28348 13.5117)
(2.16776e-15 -8.95485 12.506)
(2.10722e-15 -8.44976 10.3424)
(1.11614e-15 -6.38506 6.70109)
(-1.99837e-17 -2.63795 2.11853)
(4.0433e-16 1.36826 -1.27884)
(2.6638e-16 2.88338 -1.77931)
(-1.68835e-16 2.65641 -1.72148)
(-1.21824e-15 5.92787 4.35559)
(-1.1837e-15 -1.48623 1.38608)
(-1.1127e-15 -4.77764 0.307743)
(-2.34348e-16 -4.23907 3.22614)
(1.10981e-15 -2.42583 6.97626)
(1.55165e-15 -1.5554 9.67969)
(1.33325e-15 -1.88154 11.3444)
(9.85362e-16 -2.72092 12.732)
(6.52983e-16 -3.85974 13.645)
(5.2927e-16 -5.21277 13.9842)
(6.85719e-16 -6.49487 13.7253)
(1.0105e-15 -7.3481 12.6955)
(1.23066e-15 -7.38448 10.6672)
(1.05646e-15 -6.33014 7.60144)
(4.87694e-16 -4.12916 3.90775)
(3.16857e-17 -1.00176 0.461122)
(3.46411e-16 1.94439 -1.16908)
(2.11229e-16 3.00195 -1.75201)
(-2.21479e-16 2.54808 -1.83683)
(2.14811e-15 5.10664 9.48943)
(4.32095e-15 12.0674 22.3938)
(2.56431e-15 18.3492 32.5193)
(2.33942e-15 19.4172 33.4849)
(2.54058e-15 18.3806 30.7205)
(2.57169e-15 17.0654 27.5437)
(2.23611e-15 15.8192 24.8373)
(2.09742e-15 14.8 22.5014)
(1.83794e-15 13.8351 20.3721)
(1.72846e-15 12.875 18.3367)
(1.50872e-15 11.8844 16.3412)
(1.29184e-15 10.8523 14.3747)
(9.8331e-16 9.77438 12.4479)
(6.0092e-16 8.65828 10.5608)
(1.38785e-16 7.47666 8.7183)
(-4.24885e-16 6.24849 6.88361)
(-1.06756e-15 4.84766 5.04448)
(-1.93095e-15 3.4188 3.03674)
(-3.58236e-15 1.29034 0.85429)
(-7.2505e-15 -0.301196 -2.70588)
(-9.05515e-16 -0.912608 -1.42003)
(5.05848e-15 10.1813 16.2459)
(3.10695e-15 18.1987 30.1158)
(2.43877e-15 19.8188 33.2607)
(2.58562e-15 18.6193 31.2468)
(3.02326e-15 17.0941 28.5722)
(2.81932e-15 15.8889 26.3492)
(2.82787e-15 14.821 24.3064)
(2.69658e-15 13.7154 22.2039)
(3.03429e-15 12.5464 19.998)
(3.32826e-15 11.31 17.7201)
(3.67541e-15 10.0206 15.3882)
(4.02651e-15 8.66863 13.0191)
(4.3568e-15 7.254 10.6064)
(5.11386e-15 5.73803 8.16559)
(6.21582e-15 4.16743 5.653)
(6.68239e-15 2.35445 3.0601)
(8.33312e-15 0.639555 0.198131)
(8.02926e-15 -2.10156 -2.72948)
(-4.77873e-16 -2.3776 -6.45482)
(-1.69297e-16 6.76832 11.9226)
(7.5803e-16 16.0522 24.4039)
(8.08228e-16 20.1441 30.7225)
(6.12781e-16 20.3192 31.6898)
(6.14079e-16 18.7741 29.8659)
(1.37749e-15 17.1816 27.6913)
(1.10078e-15 15.715 25.7103)
(9.66156e-16 14.2579 23.6643)
(1.2287e-15 12.6939 21.4966)
(1.56135e-15 11.0808 19.2142)
(2.21862e-15 9.40174 16.842)
(2.61898e-15 7.69451 14.3753)
(3.58265e-15 5.95494 11.8145)
(5.22545e-15 4.16489 9.13523)
(7.51841e-15 2.3387 6.38718)
(8.5326e-15 0.558368 3.59567)
(5.20763e-15 -1.19545 0.705885)
(8.8829e-16 -2.89072 -2.11723)
(-5.27727e-16 -4.22207 -4.56436)
(-2.33721e-15 -2.85862 -4.72868)
(4.24787e-17 11.408 19.8072)
(-1.90129e-16 19.3962 31.625)
(-2.28067e-16 18.7254 30.6673)
(-1.9391e-16 16.3131 27.2803)
(-2.55499e-16 14.4962 25.2059)
(6.04583e-16 13.2757 23.7906)
(7.36211e-16 11.8647 22.1585)
(8.19895e-16 10.309 20.1548)
(1.14549e-15 8.63303 18.0301)
(1.60809e-15 6.94988 15.8387)
(2.24538e-15 5.22022 13.5993)
(2.83014e-15 3.46412 11.2856)
(4.20154e-15 1.68883 8.90808)
(6.32046e-15 -0.0350442 6.51378)
(9.10894e-15 -1.56783 4.26177)
(1.0799e-14 -2.63203 2.45147)
(8.33239e-15 -2.79809 1.56614)
(3.37836e-15 -1.56741 2.23486)
(8.81657e-16 0.90524 4.45544)
(1.0836e-15 2.29286 5.67889)
(-7.56807e-18 12.3957 21.6329)
(3.94131e-17 17.524 30.4309)
(4.67641e-17 14.7895 26.3232)
(4.40747e-17 12.9439 23.4557)
(-2.05209e-18 11.8095 22.1423)
(-2.5667e-16 10.7257 20.7194)
(-2.67661e-16 9.33874 18.9977)
(-2.90085e-16 7.87592 16.9881)
(-3.60379e-16 6.31394 14.8622)
(-4.24781e-16 4.74122 12.6333)
(-4.0973e-16 3.16135 10.3876)
(-2.85527e-16 1.67188 8.23464)
(-4.16979e-16 0.399998 6.37297)
(-1.22465e-15 -0.403346 5.11861)
(-2.60455e-15 -0.369825 4.98893)
(-3.60981e-15 0.909021 6.59737)
(-3.29642e-15 3.49955 10.0402)
(-1.80943e-15 6.71848 14.1666)
(-2.91803e-16 9.01327 16.3843)
(1.7113e-16 6.56851 12.5452)
(6.15294e-19 10.6229 18.588)
(-6.26998e-18 16.5097 29.1993)
(-6.79189e-18 15.0421 26.4558)
(-6.1128e-18 13.4413 23.2341)
(5.04152e-18 12.0416 20.9498)
(5.21212e-17 11.0439 19.0603)
(5.03234e-17 9.99519 17.4122)
(4.93981e-17 9.04159 15.6474)
(4.71704e-17 8.02968 13.8376)
(3.61497e-17 7.07783 11.9608)
(3.07331e-17 6.20287 10.1382)
(3.34596e-17 5.49791 8.5138)
(-2.64411e-18 5.03901 7.33163)
(-1.57836e-16 5.08451 7.0201)
(-3.74239e-16 5.68537 7.75621)
(-4.13779e-16 6.81509 9.57992)
(-7.14977e-17 8.28381 12.0458)
(4.32139e-16 9.29792 14.3856)
(6.02798e-16 9.49038 14.9877)
(1.96711e-16 6.64279 11.7)
(-1.3188e-21 9.44452 16.4713)
(6.92567e-19 17.3847 30.2446)
(6.00595e-19 16.3918 28.4906)
(4.79477e-19 14.515 24.5686)
(-1.06156e-18 12.9512 21.9849)
(-7.427e-18 12.1048 20.0584)
(-6.70571e-18 11.2987 18.582)
(-5.33217e-18 10.6519 17.1429)
(-3.30292e-18 10.0039 15.7606)
(1.3239e-18 9.41439 14.3915)
(6.19243e-18 8.85991 13.024)
(6.15003e-18 8.32353 11.629)
(2.80276e-18 7.80921 10.2269)
(9.68877e-18 7.33158 8.94336)
(4.60587e-17 7.00056 8.054)
(1.30846e-16 6.87869 7.8589)
(2.57145e-16 6.97617 8.39965)
(3.40505e-16 7.02631 9.27834)
(2.34357e-16 6.52169 9.51022)
(-1.54262e-17 4.26232 6.56397)
(-9.00845e-21 9.38324 16.1404)
(9.08495e-21 18.103 30.75)
(6.76522e-20 17.1518 29.5399)
(9.6237e-20 15.2755 25.5339)
(2.26533e-19 13.6993 23.0221)
(6.08878e-19 12.8873 21.1202)
(1.78851e-19 12.0698 19.608)
(-3.34247e-19 11.3626 18.11)
(-1.00733e-18 10.6416 16.671)
(-2.11955e-18 9.94815 15.2806)
(-3.2066e-18 9.28009 13.9496)
(-3.23092e-18 8.63471 12.6726)
(-2.22092e-18 8.00194 11.4241)
(-2.28653e-18 7.37378 10.1828)
(-6.34579e-18 6.7334 8.95871)
(-1.80508e-17 6.10875 7.82021)
(-4.41599e-17 5.4587 6.89782)
(-9.08766e-17 4.82958 6.1058)
(-1.37057e-16 3.69013 5.13102)
(-1.30365e-16 1.58878 1.43632)
(2.6978e-21 10.4529 17.9641)
(-3.7726e-20 19.0425 31.5757)
(-5.96231e-20 17.697 30.1879)
(-6.96303e-20 15.9338 26.1921)
(-6.34904e-20 14.3506 23.8821)
(7.05593e-20 13.6102 22.013)
(2.70798e-19 12.7484 20.5034)
(4.279e-19 12.0182 18.9403)
(6.08102e-19 11.2464 17.4251)
(8.63396e-19 10.4868 15.9106)
(1.09532e-18 9.71443 14.4106)
(1.14713e-18 8.92404 12.927)
(1.07154e-18 8.11114 11.4694)
(1.20086e-18 7.28033 10.0362)
(1.8486e-18 6.4058 8.62245)
(3.24829e-18 5.50384 7.18103)
(6.16868e-18 4.45831 5.7022)
(1.2643e-17 3.359 3.9946)
(2.79948e-17 1.53291 1.8644)
(1.48682e-17 -0.10385 -1.89693)
(-7.86294e-22 12.6178 21.9853)
(1.52984e-20 20.2246 32.7921)
(2.31637e-20 17.7973 30.4206)
(2.70964e-20 16.521 26.745)
(2.2039e-20 14.9774 24.8881)
(-4.67e-20 14.4404 23.0579)
(-1.23506e-19 13.5367 21.6162)
(-1.72746e-19 12.8997 20.0446)
(-2.13014e-19 12.1455 18.5372)
(-2.61585e-19 11.398 16.9308)
(-3.06718e-19 10.5566 15.2464)
(-3.32478e-19 9.63117 13.4713)
(-3.55e-19 8.61368 11.6386)
(-4.12362e-19 7.52213 9.76882)
(-5.07525e-19 6.33873 7.88745)
(-5.96814e-19 5.09531 5.96074)
(-6.97675e-19 3.66111 3.98182)
(-8.7631e-19 2.15284 1.64245)
(-1.40562e-18 -0.250233 -1.03472)
(2.39033e-17 -1.5465 -4.87387)
(2.37668e-22 15.1137 27.1701)
(-4.79959e-21 20.6868 33.2151)
(-7.39664e-21 17.1203 30.206)
(-8.75807e-21 16.7915 27.296)
(-7.48134e-21 15.1389 26.0312)
(1.39259e-20 14.914 24.2419)
(3.8435e-20 13.8792 23.028)
(5.37216e-20 13.4421 21.5343)
(6.26536e-20 12.6365 20.1229)
(7.04608e-20 11.8689 18.3831)
(7.76143e-20 10.8305 16.4408)
(8.42866e-20 9.66179 14.2665)
(9.28655e-20 8.32763 11.9708)
(1.03697e-19 6.89438 9.59622)
(1.07767e-19 5.34134 7.17247)
(8.57371e-20 3.68701 4.64461)
(-2.39392e-22 1.8514 2.13189)
(3.93606e-21 0.0832645 -0.80667)
(-2.54516e-18 -2.50427 -3.55477)
(1.33797e-17 -2.92375 -7.44928)
(-6.27928e-23 16.4948 30.6517)
(1.4435e-21 19.4869 31.506)
(2.18556e-21 15.8221 29.4053)
(2.56792e-21 16.2189 27.1874)
(2.03056e-21 14.23 26.2397)
(-4.76056e-21 14.135 24.4914)
(-1.17316e-20 12.8343 23.5585)
(-1.49876e-20 12.4392 22.1581)
(-1.5857e-20 11.3054 20.7986)
(-1.61913e-20 10.2762 18.7953)
(-1.47498e-20 8.75495 16.4776)
(-9.83667e-21 7.15558 13.7724)
(-2.97142e-21 5.35703 10.9336)
(5.54172e-21 3.55543 8.04082)
(1.67335e-20 1.69419 5.06149)
(-1.37188e-20 -0.278317 1.93292)
(-1.84094e-19 -1.78957 -0.529774)
(-2.30786e-19 -2.84602 -2.57694)
(1.15951e-18 -4.94345 -5.65172)
(5.27906e-18 -3.4317 -6.10264)
(1.22047e-23 16.0446 30.364)
(-4.32686e-22 17.7794 29.0548)
(-6.33402e-22 14.7726 28.0382)
(-7.88365e-22 15.0136 25.7736)
(-4.76662e-22 12.9445 24.7884)
(1.52663e-21 12.6248 23.0565)
(3.47512e-21 11.2236 22.0778)
(4.54575e-21 10.5287 20.6785)
(4.74616e-21 9.19729 19.2371)
(5.19203e-21 7.89151 17.2206)
(9.39609e-21 6.21113 14.8729)
(2.02222e-20 4.46077 12.1587)
(3.22801e-20 2.595 9.31549)
(2.64272e-20 0.822547 6.54483)
(-4.33628e-20 -0.799172 4.00017)
(-2.51433e-19 -2.19438 1.65031)
(-5.33352e-19 -3.14368 -0.316887)
(-4.76712e-19 -2.83293 -0.767866)
(2.17931e-19 -0.706447 1.46258)
(6.63956e-19 1.54247 4.49342)
(-4.79894e-25 14.9957 28.6319)
(1.21828e-22 17.5062 28.0833)
(1.79075e-22 14.0624 26.7635)
(1.96039e-22 14.5536 24.0786)
(-4.95156e-23 12.2312 23.1119)
(-7.33863e-22 12.0146 21.0375)
(-1.1515e-21 10.4341 19.8501)
(-1.15344e-21 9.70403 18.2195)
(-1.16203e-21 8.42468 16.7893)
(-8.94343e-22 7.32676 15.0485)
(2.59224e-21 6.01692 13.1507)
(1.38987e-20 4.69477 10.9438)
(2.77113e-20 3.31475 8.5309)
(6.27675e-21 2.08435 6.16858)
(-1.10923e-19 1.26405 4.38482)
(-3.09212e-19 1.32083 4.03156)
(-4.269e-19 2.63706 5.76174)
(-3.22879e-19 4.82421 8.76338)
(-9.12783e-20 6.69166 10.9347)
(3.78721e-20 5.15363 9.7987)
(1.85389e-25 14.8594 28.7022)
(-2.87922e-23 18.2428 28.3167)
(-3.98141e-23 14.2661 26.9324)
(-4.65028e-23 15.2536 23.9419)
(-1.49937e-23 12.8398 23.0195)
(7.96911e-23 12.8655 20.7587)
(6.75252e-23 11.3832 19.4068)
(-7.01111e-23 10.7879 17.6133)
(-2.0313e-22 9.78154 16.1376)
(-3.0687e-22 9.03766 14.6353)
(-6.31525e-22 8.27206 13.2597)
(-1.38076e-21 7.60986 11.9186)
(-1.98162e-21 6.98926 10.5749)
(-1.32612e-22 6.40608 9.16941)
(7.55266e-21 5.86126 7.73132)
(2.1106e-20 5.40192 6.49289)
(4.06126e-20 5.12918 5.73503)
(7.42347e-20 4.87782 5.58216)
(1.25851e-19 4.34759 5.46886)
(1.55992e-19 2.76358 3.79224)
(-3.7931e-26 15.2738 29.9692)
(6.93343e-24 18.8612 28.9031)
(9.91987e-24 14.6707 27.7771)
(5.48995e-24 15.8368 24.8695)
(-2.42966e-23 13.5477 23.9074)
(-8.8013e-23 13.5159 21.8284)
(-1.44348e-22 12.3103 20.4498)
(-1.77472e-22 11.7121 18.8038)
(-2.00119e-22 10.9191 17.319)
(-2.02958e-22 10.2284 15.8336)
(-1.71649e-22 9.55091 14.4008)
(-2.08739e-22 8.89494 13.0028)
(-5.4068e-22 8.24191 11.6195)
(-1.2618e-21 7.56057 10.2053)
(-2.02259e-21 6.77671 8.68643)
(-2.33806e-21 5.84915 6.99724)
(-1.17113e-21 4.66324 5.18804)
(1.12476e-21 3.37072 3.21369)
(-4.50202e-21 1.42614 0.999673)
(1.49462e-20 -0.0539475 -2.16081)
(1.06857e-26 15.3458 31.0579)
(-8.50077e-25 18.893 28.6159)
(-8.4133e-25 14.4531 28.1524)
(-6.45977e-24 15.8716 25.3573)
(-2.48919e-23 13.5189 24.4673)
(-5.3246e-23 13.507 22.5177)
(-7.57402e-23 12.3442 21.2337)
(-7.16434e-23 11.8068 19.71)
(-5.56009e-23 11.0713 18.3565)
(-9.13798e-23 10.4708 16.9836)
(-2.02104e-22 9.86967 15.6491)
(-2.23432e-22 9.29061 14.2933)
(2.51013e-22 8.65739 12.8424)
(1.71416e-21 7.87187 11.141)
(4.43059e-21 6.76119 9.00895)
(7.59457e-21 5.19363 6.28411)
(8.27464e-21 3.275 3.50875)
(5.84935e-21 1.5746 1.16284)
(1.25539e-21 -1.09975 -1.52541)
(-8.93749e-21 -1.98627 -5.7431)
(-7.10597e-27 14.3744 31.0003)
(6.0488e-25 18.3409 27.9962)
(9.80534e-25 13.6326 27.9243)
(-3.08392e-24 14.6127 25.5471)
(-1.66897e-23 12.5327 24.6155)
(-3.4944e-23 12.1203 23.0156)
(-4.14088e-23 11.0325 21.8109)
(-3.38817e-23 10.3521 20.4933)
(-4.96341e-23 9.58419 19.2923)
(-1.46808e-22 8.94555 18.1012)
(-2.87857e-22 8.32683 16.95)
(-1.43586e-22 7.72813 15.7425)
(1.03839e-21 7.01772 14.3024)
(4.31678e-21 6.00327 12.2853)
(1.05112e-20 4.36678 9.1768)
(1.75565e-20 1.66314 4.29267)
(1.40406e-20 -1.65834 -1.95135)
(-2.16124e-21 -2.81632 -4.44688)
(-1.8334e-21 -4.08465 -5.23544)
(1.34606e-21 -2.9029 -6.58025)
(-5.28108e-26 11.278 28.6089)
(3.94122e-26 17.034 25.1732)
(8.19647e-25 12.0547 25.5587)
(1.26384e-24 12.6454 23.888)
(-7.77945e-25 10.9007 23.1659)
(-4.54932e-24 10.2009 22.1079)
(-5.7421e-24 9.18153 21.2193)
(-7.44294e-24 8.37372 20.2977)
(-3.36453e-23 7.5715 19.4159)
(-1.15933e-22 6.84912 18.545)
(-2.20822e-22 6.16927 17.6829)
(-1.30565e-22 5.51335 16.7761)
(6.21627e-22 4.81394 15.7004)
(2.60461e-21 3.97548 14.2418)
(6.04802e-21 2.9037 12.1578)
(1.02375e-20 1.61308 9.29922)
(1.31998e-20 0.319109 5.76805)
(1.28082e-20 -0.771172 2.17222)
(1.02123e-20 -1.54545 -0.678519)
(5.99614e-21 -1.30497 -2.1322)
(-2.48854e-26 2.61306 17.0431)
(2.7944e-26 8.04254 13.6922)
(4.86846e-25 5.17467 14.5474)
(1.52002e-24 4.97575 14.1651)
(2.58974e-24 4.04784 14.1321)
(3.1319e-24 3.47407 13.9667)
(4.21106e-24 2.88866 13.8181)
(8.2896e-24 2.40648 13.6381)
(1.29365e-23 1.98492 13.4409)
(-1.72375e-24 1.63694 13.2247)
(-8.30475e-23 1.36239 12.9999)
(-2.95146e-22 1.17176 12.7832)
(-6.7337e-22 1.07556 12.593)
(-1.16158e-21 1.09145 12.4235)
(-1.59054e-21 1.233 12.2248)
(-1.74949e-21 1.4535 11.9338)
(-1.52744e-21 1.77965 11.4324)
(-1.02679e-21 2.5045 10.4109)
(-5.18289e-22 2.75641 8.90584)
(-1.46766e-22 -0.128289 6.74665)
(2.55809e-26 -2.613 17.043)
(-3.51285e-26 -8.04252 13.692)
(-5.27068e-25 -5.17467 14.5472)
(-1.63782e-24 -4.97577 14.165)
(-2.79362e-24 -4.04788 14.132)
(-3.35789e-24 -3.47413 13.9665)
(-4.38481e-24 -2.88874 13.8179)
(-8.45857e-24 -2.40658 13.6379)
(-1.32795e-23 -1.98503 13.4407)
(1.26208e-24 -1.63706 13.2245)
(8.36309e-23 -1.36254 12.9997)
(3.0016e-22 -1.17197 12.7831)
(6.88866e-22 -1.07584 12.593)
(1.19481e-21 -1.09181 12.4236)
(1.64614e-21 -1.2334 12.2248)
(1.8245e-21 -1.45388 11.9336)
(1.60837e-21 -1.77994 11.432)
(1.09335e-21 -2.50459 10.4105)
(5.55274e-22 -2.75626 8.90534)
(1.53508e-22 0.128465 6.74622)
(5.57499e-26 -11.2779 28.6085)
(-2.48108e-26 -17.0338 25.173)
(-8.68002e-25 -12.0545 25.5584)
(-1.38832e-24 -12.6452 23.8878)
(8.13194e-25 -10.9004 23.1658)
(5.13561e-24 -10.2006 22.1077)
(7.0322e-24 -9.18118 21.2192)
(9.17448e-24 -8.37332 20.2977)
(3.56297e-23 -7.57105 19.4159)
(1.18899e-22 -6.84862 18.5452)
(2.25971e-22 -6.16868 17.6831)
(1.35015e-22 -5.51261 16.7762)
(-6.35775e-22 -4.81294 15.7002)
(-2.68541e-21 -3.97417 14.2411)
(-6.28156e-21 -2.90228 12.1567)
(-1.07232e-20 -1.61224 9.29855)
(-1.39598e-20 -0.319692 5.76891)
(-1.36586e-20 0.768834 2.17579)
(-1.07992e-20 1.54234 -0.674042)
(-6.00639e-21 1.30337 -2.12872)
(8.78703e-27 -14.3745 31.0005)
(-6.94098e-25 -18.3408 27.9965)
(-1.13179e-24 -13.6327 27.9247)
(3.22658e-24 -14.6126 25.5476)
(1.80412e-23 -12.5326 24.616)
(3.83927e-23 -12.1201 23.0163)
(4.66868e-23 -11.0323 21.8116)
(3.95769e-23 -10.3519 20.4942)
(5.44787e-23 -9.58392 19.2933)
(1.51535e-22 -8.94525 18.1024)
(2.94816e-22 -8.3265 16.9513)
(1.49885e-22 -7.72764 15.7438)
(-1.0578e-21 -7.01676 14.3032)
(-4.43547e-21 -6.00138 12.2847)
(-1.08721e-20 -4.36316 9.17342)
(-1.82687e-20 -1.65718 4.28512)
(-1.47333e-20 1.66255 -1.95718)
(2.07438e-21 2.81773 -4.4449)
(2.16338e-21 4.08557 -5.23759)
(5.26927e-23 2.90392 -6.57829)
(-1.53575e-26 -15.3464 31.059)
(1.07115e-24 -18.8934 28.6167)
(1.04911e-24 -14.4534 28.1535)
(7.02109e-24 -15.8721 25.3585)
(2.68693e-23 -13.5191 24.4687)
(5.75972e-23 -13.5074 22.519)
(8.24388e-23 -12.3444 21.2352)
(7.88218e-23 -11.8071 19.7116)