/*--------------------------------*- C++ -*----------------------------------*\
| =========                 |                                                 |
| \\      /  F ield         | OpenFOAM: The Open Source CFD Toolbox           |
|  \\    /   O peration     | Version:  4.1                                   |
|   \\  /    A nd           | Web:      www.OpenFOAM.org                      |
|    \\/     M anipulation  |                                                 |
\*---------------------------------------------------------------------------*/
FoamFile
{
    version     2.0;
    format      ascii;
    class       volScalarField;
    location    "28";
    object      p;
}
// * * * * * * * * * * * * * * * * * * * * * * * * * * * * * * * * * * * * * //

dimensions      [0 2 -2 0 0 0 0];

internalField   nonuniform List<scalar> 
1280
(
0.434623
0.253367
0.990283
1.48565
2.01307
2.22436
2.29976
2.4597
2.66362
2.60924
2.38499
2.21793
1.29741
-0.203854
-1.03567
-3.9294
-8.27156
-9.14181
-13.7068
-21.0847
-22.4426
-11.5713
11.5388
28.3632
33.03
36.2787
15.9876
24.3247
27.4719
27.3643
26.9076
26.3446
25.1533
23.4919
21.5366
19.2295
16.8118
13.8879
11.4093
6.67835
-1.02881
12.9009
17.1386
20.9641
32.4698
32.3357
32.4614
32.2966
31.9252
32.3429
32.3094
31.9722
31.3661
29.639
29.0984
34.7588
14.4471
8.2278
2.35122
-6.12442
1.88465
7.1791
9.81682
13.126
15.8518
18.565
20.9456
23.0875
24.7951
25.9695
27.0143
27.5711
25.4405
26.5464
46.4434
43.2882
38.8195
22.0541
-1.54629
-13.0566
-12.437
-4.90546
0.333985
-0.703797
3.65504
5.45909
4.74308
6.76411
7.456
6.94676
7.60906
7.39857
7.12564
7.12449
7.2025
6.55844
4.85528
4.41288
3.01747
1.12872
-0.107131
-0.026103
0.0146989
0.333198
0.992349
2.0725
6.11367
2.08474
2.75206
1.66942
1.1027
0.460813
-1.05025
-5.98636
-16.5023
-13.7566
-1.46871
2.53682
3.20513
-0.17308
0.202234
0.684509
1.71078
3.58668
5.84915
15.3503
6.72616
6.63221
4.40876
3.86818
2.29729
-0.724648
-15.2468
-25.1388
-21.7586
-3.23366
3.60623
6.06706
-0.0688028
0.521419
1.16337
2.48433
4.83532
7.39779
19.9163
10.9281
10.7124
7.30365
5.90939
3.39192
-2.07067
-23.7035
-27.3354
-27.0805
-2.55851
6.24322
9.68725
-0.0118008
0.744323
1.50495
3.06208
5.79993
8.59576
22.9209
14.3984
13.6898
9.48614
7.69549
4.49831
-2.04532
-25.0165
-28.3537
-32.5313
-2.18819
9.22083
13.2182
0.0153733
0.92013
1.80376
3.5715
6.63581
9.59231
24.6341
16.8158
15.9469
10.9337
8.52755
4.6283
-2.09053
-22.4924
-29.6481
-34.6951
-1.70304
12.0451
16.3067
0.0427173
1.06976
2.03621
3.9286
7.14377
10.1118
24.604
17.9029
16.9938
11.2599
8.38389
3.9204
-1.88534
-17.7039
-32.1621
-34.3608
-1.00276
15.9899
19.7416
0.0614496
1.17741
2.18548
4.12435
7.3267
10.1598
22.8625
17.7232
17.1197
10.4092
7.30668
2.44164
-1.86698
-11.8808
-31.4441
-28.5173
0.319815
19.6991
20.774
0.070156
1.24417
2.26123
4.18791
7.25743
9.87561
20.3361
16.7106
16.5089
8.70138
6.12157
1.31554
-1.03785
-5.3736
-26.5873
-20.8793
0.716502
23.6348
23.2471
0.0721772
1.27559
2.27236
4.13966
6.99706
9.38174
17.8944
15.3185
15.3573
6.73453
5.43625
1.36267
1.1952
2.72519
-13.527
-13.0536
0.200327
22.4109
49.1808
0.0684738
1.27394
2.22545
3.99644
6.59531
8.72783
15.6043
13.7506
14.06
5.39491
5.23646
2.08044
3.94584
10.7487
4.76392
3.1187
6.51243
26.338
39.7689
0.0602734
1.24272
2.12943
3.77637
6.0926
7.95637
13.4425
12.1076
12.6931
4.48792
4.56861
2.28647
6.38688
17.2442
14.5366
11.2322
7.13818
26.1307
36.2524
0.0483535
1.1846
1.9918
3.49418
5.5191
7.1083
11.4206
10.4513
11.1383
3.22807
2.46354
1.443
8.54677
25.1915
27.2146
20.5729
8.66447
27.8555
46.2211
0.0351928
1.10489
1.82253
3.16561
4.90002
6.21516
9.54004
8.81798
9.37136
1.41465
-1.04409
-0.310851
9.5862
30.2334
38.2157
29.1831
4.7418
-3.52471
2.63576
0.0199377
1.00269
1.62414
2.79801
4.25239
5.30788
7.82003
7.26192
7.52377
-0.501676
-4.97568
-2.55328
9.28116
29.6088
43.4785
27.5673
-5.33218
-16.621
-8.96206
0.00794519
0.888588
1.41181
2.41028
3.59639
4.40305
6.25056
5.79785
5.70532
-2.15575
-8.30345
-4.82269
8.2985
27.6348
41.6346
25.6688
-1.72129
-12.9409
-6.00379
-0.0068318
0.749206
1.17205
1.99125
2.93182
3.53371
4.88102
4.48263
4.05218
-3.29776
-10.3443
-6.69565
6.76811
23.443
33.3444
22.7824
0.843783
-10.0074
-3.55188
-0.0103474
0.616141
0.945481
1.58619
2.28964
2.68294
3.60723
3.2183
2.5648
-3.82474
-10.6835
-7.5954
5.16335
18.3164
24.5793
19.4207
2.6731
-3.7516
-0.258274
-0.0232812
0.433204
0.660644
1.11596
1.613
1.90789
2.59914
2.22079
1.47006
-3.61505
-9.21652
-7.87856
3.74778
13.7949
18.8732
15.8631
2.4109
-1.02909
0.314739
-0.0108264
0.306295
0.463585
0.754268
1.04293
1.13124
1.40567
0.986712
0.416572
-2.8462
-6.15253
-8.73003
1.96209
9.95965
14.3597
11.1471
1.03974
-0.0204039
0.512574
-0.0202804
0.0459291
0.0676887
0.134922
0.220201
0.394078
0.777761
0.67255
0.277403
-1.18044
-2.22171
-5.88439
-0.208543
3.20567
5.39511
3.28801
0.181155
0.0451292
0.16664
25.3195
27.6981
31.3319
34.3277
35.4246
35.635
34.8193
33.91
33.0175
32.2772
31.6978
31.3748
31.353
31.668
32.3062
33.3135
34.559
36.1481
37.5074
39.2657
-39.2703
-38.1674
-35.9293
-33.7032
-31.9417
-30.5079
-29.1501
-28.1166
-27.3061
-26.7273
-26.293
-25.9229
-25.5307
-24.9876
-24.2219
-22.9576
-21.2646
-18.5117
-15.8881
-12.2213
-11.3879
-17.8414
-22.8716
-27.0198
-30.5531
-34.2543
-37.3471
-40.0386
-42.0651
-43.5932
-44.6217
-45.2507
-45.5496
-45.6146
-45.5426
-45.36
-45.2478
-44.9254
-44.5773
-41.6355
30.6389
23.5006
18.8768
13.2351
8.15447
2.57388
-2.77671
-8.21354
-13.2069
-17.8076
-21.7406
-24.9324
-27.1987
-28.4535
-28.6334
-27.9383
-26.6827
-25.6017
-25.9631
-27.1423
88.3689
85.3704
84.1478
82.4933
81.2477
79.606
78.1989
76.5011
74.7537
72.64
70.1235
66.9783
63.1783
58.8752
54.5532
50.7289
48.1542
47.8663
48.2144
43.8668
85.1354
86.2495
86.3141
86.4598
86.5969
86.2842
85.9902
85.1988
84.2475
82.9749
81.5568
80.0292
78.4922
77.0225
75.7781
74.8667
74.2879
73.6597
73.7154
72.3625
70.6173
73.0773
74.5576
75.8971
77.6446
78.823
80.411
81.5799
82.697
83.4294
83.7685
83.6195
83.0205
82.1763
81.5435
81.5192
82.3446
83.5512
84.5429
84.879
48.3389
50.5585
52.1631
53.0516
54.9144
55.7978
57.3713
58.5392
59.8954
61.2038
62.5262
63.8519
65.1561
66.4423
67.7153
69.0608
70.4293
72.0375
73.2552
74.8147
25.9507
27.879
29.748
30.3466
32.5647
33.3189
35.1594
36.3414
37.8653
39.2556
40.6918
42.1333
43.5776
45.0515
46.5209
48.0594
49.5331
51.2112
52.4587
54.293
1.78174
2.49342
4.53825
4.39471
6.72532
6.90479
8.81678
9.67186
11.2558
12.5799
14.1366
15.7409
17.4574
19.3049
21.2277
23.3005
25.3269
27.5804
29.3207
32.179
-18.1425
-20.0129
-18.666
-20.4731
-19.3135
-20.9054
-20.3567
-21.4203
-21.4204
-22.0722
-22.2939
-22.557
-22.4719
-21.972
-20.9758
-19.4244
-17.5794
-15.1457
-13.4323
-10.2318
-6.96767
-10.9422
-10.7309
-14.0058
-14.3258
-17.2964
-18.303
-20.9323
-22.5852
-25.0418
-27.1105
-29.3745
-31.3319
-33.056
-34.4382
-35.6858
-36.6292
-36.7337
-36.612
-34.4193
29.2673
25.5102
25.7078
22.0058
21.7937
18.465
17.4684
14.6273
12.9291
10.4232
8.40004
6.22257
4.42024
2.85619
1.62317
0.433444
-0.868272
-1.95087
-3.52343
-5.14725
55.0122
54.2114
56.096
54.3535
56.7906
55.4917
57.2419
56.7287
57.5608
57.3821
57.4897
57.1401
56.6384
55.7422
54.4185
52.5316
50.4346
48.9115
47.7343
45.1927
33.4459
33.9451
37.0763
36.0558
39.7788
39.4619
42.3221
43.2363
45.3776
47.0094
48.9579
50.7927
52.5703
54.0881
55.2128
55.7169
55.6798
55.3248
55.5905
56.5693
14.2103
12.6294
15.7946
12.9068
16.3094
14.87
16.9023
17.1662
18.5056
19.5926
20.9273
22.3259
23.8019
25.3338
26.915
28.6511
30.4955
32.5804
34.3802
36.9285
21.8025
17.6375
19.9102
13.4863
13.8312
9.32629
7.60446
4.49737
2.21225
-0.18512
-2.26745
-4.15353
-5.76616
-7.03387
-7.80282
-7.75837
-6.76006
-5.06348
-3.90258
-1.61763
29.0695
21.5658
29.4047
21.9805
23.5419
19.6927
17.9028
14.8144
11.9895
8.85073
5.70383
2.47581
-0.72953
-3.79157
-6.47169
-8.3493
-8.7146
-8.56271
-8.99308
-8.08662
50.4304
27.6222
35.7432
24.5241
21.7707
15.0763
10.1548
4.93263
0.476091
-3.43809
-6.55736
-8.83051
-10.1427
-10.4067
-9.54145
-7.31013
-3.75153
-0.244328
2.51697
4.01535
737.262
654.518
605.451
549.207
500.199
452.879
408.865
367.274
328.122
291.131
256.142
222.967
191.411
161.459
133.236
106.005
80.0519
59.4131
35.4455
-1.61114
744.378
661.635
612.569
556.326
507.318
459.998
415.985
374.394
335.242
298.251
263.262
230.086
198.53
168.577
140.354
113.124
87.1709
66.5304
42.5623
5.50601
57.5654
34.7572
42.8785
31.6595
28.9066
22.2124
17.2914
12.0695
7.61336
3.69953
0.580594
-1.69224
-3.0041
-3.26765
-2.40164
-0.168274
3.39057
6.89714
9.65915
11.1541
36.1875
28.6809
36.5179
29.0913
30.6501
26.7982
25.0053
21.9137
19.0854
15.943
12.7923
9.56018
6.35073
3.28502
0.60213
-1.27564
-1.64086
-1.49145
-1.92546
-1.01878
28.867
24.6997
26.9712
20.5454
20.8888
16.3811
14.6573
11.5476
9.25991
6.85989
4.77499
2.88642
1.27169
0.00268415
-0.765991
-0.718212
0.284498
1.98474
3.14668
5.43707
21.3012
19.7191
22.8882
19.9996
23.4049
21.9661
23.9995
24.2654
25.6057
26.6951
28.0322
29.4344
30.9153
32.4545
34.0449
35.7902
37.6413
39.7298
41.5323
44.086
40.58
41.085
44.2238
43.2056
46.9358
46.6229
49.4879
50.4065
52.5511
54.1869
56.139
57.9779
59.7574
61.2727
62.3896
62.8825
62.837
62.4868
62.7667
63.7596
62.2664
61.4778
63.3672
61.6315
64.0744
62.7808
64.5353
64.0261
64.86
64.6824
64.7886
64.4365
63.9307
63.0307
61.7065
59.8243
57.7349
56.2217
55.0614
52.5339
36.6851
32.9325
33.132
29.4342
29.2286
25.9067
24.9188
22.0876
20.4002
17.9064
15.8957
13.7307
11.938
10.378
9.14095
7.94058
6.62845
5.54306
3.95893
2.29631
0.304798
-3.68401
-3.482
-6.77039
-7.10457
-10.0893
-11.1122
-13.7589
-15.432
-17.9116
-20.006
-22.2976
-24.2833
-26.0349
-27.4427
-28.7113
-29.653
-29.7568
-29.6538
-27.4608
-11.0979
-12.9874
-11.6503
-13.4699
-12.324
-13.9283
-13.3932
-14.4698
-14.4821
-15.1454
-15.376
-15.6446
-15.56
-15.0555
-14.0511
-12.493
-10.6415
-8.20938
-6.49324
-3.28074
8.76654
9.47215
11.5176
11.372
13.7027
13.8817
15.7948
16.6508
18.2371
19.5638
21.1242
22.7326
24.4538
26.3061
28.2333
30.3098
32.3378
34.5943
36.3392
39.2036
33.0129
34.9388
36.8085
37.4068
39.6258
40.3806
42.2226
43.4058
44.9316
46.3237
47.7618
49.2049
50.6506
52.1251
53.5945
55.1324
56.6049
58.2816
59.5286
61.3643
55.3443
57.568
59.1766
60.0684
61.9348
62.8215
64.3982
65.569
66.9278
68.238
69.5612
70.8872
72.1905
73.4771
74.7514
76.1005
77.4742
79.0886
80.3131
81.8801
77.7858
80.2361
81.7095
83.0389
84.7764
85.9421
87.5159
88.6708
89.7742
90.4967
90.8337
90.6905
90.1139
89.3099
88.7299
88.7611
89.6186
90.842
91.8391
92.193
92.0412
93.1651
93.2344
93.3902
93.5397
93.2468
92.9804
92.2273
91.3236
90.1092
88.7591
87.3076
85.8533
84.4655
83.2985
82.4383
81.8783
81.244
81.2916
79.959
96.0775
93.1238
91.9311
90.3158
89.1049
87.5025
86.1326
84.4683
82.7467
80.6478
78.1298
74.9625
71.1199
66.7589
62.3745
58.4867
55.8654
55.5499
55.9047
51.5706
38.2207
31.1028
26.4992
20.8855
15.8353
10.2906
4.9772
-0.420703
-5.37658
-9.94281
-13.8457
-17.0127
-19.2623
-20.5107
-20.6933
-20.0039
-18.7562
-17.6994
-18.0848
-19.3048
-3.9586
-10.4393
-15.3786
-19.4668
-22.9647
-26.6356
-29.7161
-32.4168
-34.4781
-36.0645
-37.1732
-37.9004
-38.3114
-38.495
-38.5359
-38.4543
-38.424
-38.1481
-37.8288
-34.9066
-33.319
-32.1376
-29.8095
-27.53
-25.732
-24.2798
-22.9256
-21.9148
-21.1372
-20.6017
-20.207
-19.8685
-19.4953
-18.9518
-18.162
-16.8402
-15.0568
-12.209
-9.4866
-5.74502
33.7794
36.314
40.1705
43.4922
44.9368
45.5169
45.0836
44.2802
43.3103
42.511
41.8488
41.4153
41.2708
41.4562
41.9651
42.8401
43.9689
45.4269
46.6942
48.3241
)
;

boundaryField
{
    outletWall
    {
        type            fixedValue;
        value           uniform 0;
    }
    fineWalls
    {
        type            zeroGradient;
    }
    fineFrontAndBack
    {
        type            zeroGradient;
    }
    fineplugLeft
    {
        type            cyclicAMI;
        value           nonuniform List<scalar> 
20
(
32.7482
32.2878
31.696
31.0096
30.4967
30.1523
30.0328
30.113
30.3688
30.7397
31.2946
31.9084
31.993
32.678
35.7638
34.9457
33.1348
27.3733
19.8442
15.7671
)
;
    }
    fineplugRight
    {
        type            cyclicAMI;
        value           nonuniform List<scalar> 
20
(
39.0362
38.7912
38.3048
37.8003
37.4425
37.2851
37.354
37.6341
38.0912
38.6729
39.4116
40.1625
40.5123
42.9758
45.7022
44.6071
42.5577
36.5472
28.7419
24.4122
)
;
    }
    inletOutletLeft
    {
        type            cyclicAMI;
        value           nonuniform List<scalar> 
20
(
32.7482
32.2878
31.696
31.0096
30.4967
30.1523
30.0328
30.113
30.3688
30.7397
31.2946
31.9084
31.993
32.678
35.7638
34.9457
33.1348
27.3733
19.8442
15.7671
)
;
    }
    inletLeft
    {
        type            zeroGradient;
    }
    inletWallsLeft
    {
        type            zeroGradient;
    }
    inletFacesLeft
    {
        type            zeroGradient;
    }
    inletOutletRight
    {
        type            cyclicAMI;
        value           nonuniform List<scalar> 
20
(
39.0362
38.7912
38.3048
37.8003
37.4425
37.2851
37.354
37.6341
38.0912
38.6729
39.4116
40.1625
40.5123
42.9758
45.7022
44.6071
42.5577
36.5472
28.7419
24.4122
)
;
    }
    inletRight
    {
        type            zeroGradient;
    }
    inletWallsRight
    {
        type            zeroGradient;
    }
    inletFacesRight
    {
        type            zeroGradient;
    }
}


// ************************************************************************* //
