/*--------------------------------*- C++ -*----------------------------------*\
| =========                 |                                                 |
| \\      /  F ield         | OpenFOAM: The Open Source CFD Toolbox           |
|  \\    /   O peration     | Version:  4.1                                   |
|   \\  /    A nd           | Web:      www.OpenFOAM.org                      |
|    \\/     M anipulation  |                                                 |
\*---------------------------------------------------------------------------*/
FoamFile
{
    version     2.0;
    format      ascii;
    class       surfaceScalarField;
    location    "28";
    object      phi;
}
// * * * * * * * * * * * * * * * * * * * * * * * * * * * * * * * * * * * * * //

dimensions      [0 3 -1 0 0 0 0];

internalField   nonuniform List<scalar> 
2360
(
-4242.08
-2910.56
-1331.52
-2910.56
-2910.56
-1167.75
-1742.81
-1167.74
-1167.75
-1167.74
1300
-2467.74
1300
1300
4628.41
-3328.41
4628.41
4628.41
8812.43
-4184.02
8812.43
8812.42
13689.8
-4877.36
13689.8
13689.8
13946.9
15180.4
16998.4
18852.9
20536.5
22045
16275.8
7182.61
17574
18777.8
19888.6
20905.9
21829
22659
23398
24049.3
24615.6
25099.5
25499.8
25813.3
26007.1
11656.5
14350.7
11656.5
11656.5
11656.5
394.762
11261.7
394.764
394.768
394.769
724.15
-329.382
724.152
724.152
-4950.95
5675.1
-4950.95
-4950.95
-4950.95
-17589.2
12638.2
-17589.2
-17589.2
-17589.2
-28174.6
10585.4
-27962.4
-27642.1
-27240.3
-26758.5
-26196.8
-25552.2
-24821.6
-24001.3
-23088.9
-22082.9
-20983.3
-19790.6
-18503.5
-22424.7
5326.44
-20916.2
-19231.3
-17371.9
-15539.3
-14280.6
-14001.1
-14001.1
-14001.1
-9886.34
-4114.73
-9886.34
-9886.34
-6753.5
-3132.83
-6753.5
-6753.5
-3802.31
-2951.2
-3802.31
-3802.31
-803.078
-2999.23
-803.077
-803.078
-803.076
2348.13
-3151.2
2348.13
2348.13
5321.2
-2973.07
-1860.23
11910.3
-1863.16
14805.7
-1788.92
16859.6
-1658.62
18716
-1445.6
20339.2
-1214.7
20490.7
-431.003
16378
-693.332
-10249.4
-2071.77
-11247.1
-2605.22
-9952.39
-2498.36
-12148.4
-2180.58
-15062.7
-991.116
-16458
1492.56
-10309.6
3742.8
8550.1
4670.36
18230.2
4476
18637
3817.19
13732.9
6264.57
-1873.12
11969.4
-1888.99
14821.6
-1830.9
16801.5
-1725.39
18610.5
-1554.99
20168.8
-1390.3
20326.1
-408.527
15396.3
-1418.86
-9239.1
-3231.79
-9434.13
-4090.7
-9093.49
-4452.11
-11787
-4348.66
-15166.2
-3091.18
-17715.5
282.366
-13683.1
3265.88
5566.59
4170.34
17325.7
4117.86
18689.5
3585.96
14264.8
6699.33
-1894.04
12037.6
-1923.49
14851
-1883.48
16761.5
-1806.09
18533.1
-1694.09
20056.8
-1570.02
20202
-837.783
14664
-2318.42
-7758.47
-4219.99
-7532.55
-5381.11
-7932.36
-6094.38
-11073.7
-6178.53
-15082
-5007.4
-18886.6
-1780.43
-16910.1
1971.83
1814.33
3253.71
16043.9
3427.37
18515.8
3126.16
14566
6826.26
-1923.61
12113
-1963.67
14891.1
-1941.58
16739.4
-1894.77
18486.3
-1841.9
20003.9
-1780.99
20141.1
-1378.52
14261.6
-3335.09
-5801.9
-5453.1
-5414.54
-6930.77
-6454.68
-7964.98
-10039.5
-8322.42
-14724.6
-7447.19
-19761.8
-4702.91
-19654.4
-69.475
-2819.11
1837.99
14136.4
2345.36
18008.4
2493.89
14417.5
6368.96
-1960.23
12195.5
-2010.49
14941.3
-2006.09
16735
-1990.09
18470.3
-1988.65
20002.5
-1990.89
20143.3
-2002.65
14273.3
-4420.29
-3384.26
-6681.45
-3153.39
-8407.66
-4728.47
-9678
-8769.19
-10317.5
-14085.1
-9911.91
-20167.4
-7646.04
-21920.2
-2605.5
-7859.65
-1.69409
11532.6
952.797
17054
1815.15
13555.1
5051.28
-2002.28
12284.1
-2061.81
15000.9
-2073.54
16746.7
-2084.22
18481
-2118.58
20036.8
-2164.19
20188.9
-2571.49
14680.6
-5366.99
-588.754
-7723.11
-797.271
-9595.77
-2855.81
-10898.6
-7466.33
-11698.8
-13285
-11841.8
-20024.4
-10294
-23468
-5529.08
-12624.6
-2245.04
8248.55
-765.509
15574.4
1296.08
11493.5
2232.63
-2047.84
12377.6
-2115.07
15068.1
-2140.23
16771.9
-2170.6
18511.4
-2220.86
20087.1
-2261.18
20229.2
-2764.82
15184.3
-5598.72
2245.15
-8162.57
1766.58
-10143.8
-874.562
-11172.4
-6437.72
-11853.3
-12604.1
-12556.3
-19321.4
-12241.1
-23783.2
-8584.68
-16281
-4760.58
4424.45
-2556.87
13370.7
-192.317
9128.98
7366.75
-2095.03
12475
-2168.34
15141.4
-2203.82
16807.4
-2246.37
18553.9
-2294.8
20135.5
-2290.24
20224.7
-2601.48
15495.5
-5076.13
4719.8
-7794.58
4485.03
-9822.13
1152.99
-10335.3
-5924.51
-10607.1
-12332.4
-11683
-18245.5
-12898.4
-22567.8
-11215.2
-17964.2
-6900.52
109.753
-4163.72
10633.9
-5304.53
10269.8
12647.7
-2142.28
12575.4
-2220.02
15219.2
-2262.72
16850.1
-2310.84
18602
-2345.9
20170.6
-2291.96
20170.7
-2416.72
15620.3
-4433.02
6736.1
-6999.96
7051.96
-8953.53
3106.57
-9074.8
-5803.24
-8918.07
-12489.1
-9916.88
-17246.7
-12309
-20175.6
-13738.2
-16535
-11790.2
-1838.25
-10642.9
9486.61
-12521.7
12148.6
12764.2
-2188.23
12677.5
-2268.81
15299.7
-2315.78
16897
-2363.64
18649.9
-2377.86
20184.8
-2280.89
20073.8
-2297.58
15636.9
-3908.42
8346.94
-6229.8
9373.34
-8294.67
5171.44
-8540.14
-5557.77
-8181.98
-12847.3
-8636.92
-16791.8
-11143.6
-17669
-14583.9
-13094.6
-15503.5
-918.642
-14546.2
8529.31
-12060
9662.34
6379.29
-2231.89
12780.3
-2313.74
15381.6
-2362.15
16945.5
-2404.37
18692.1
-2392.02
20172.4
-2258.93
19940.7
-2231.72
15609.7
-3525.45
9640.67
-5620.38
11468.3
-8020.37
7571.43
-8755
-4823.14
-8361.49
-13240.8
-8206.78
-16946.5
-10107.2
-15768.6
-13331.4
-9870.42
-13986.7
-263.333
-12396.1
6938.75
-8364.17
5630.37
-2314.26
-2272.38
12882.8
-2354.1
15463.3
-2401.26
16992.6
-2432.92
18723.8
-2389.55
20129
-2225.71
19776.8
-2189.79
15573.8
-3238.36
10689.2
-5092.23
13322.1
-7721.26
10200.5
-8836.36
-3708.04
-8417.77
-13659.4
-7895.8
-17468.4
-9462.74
-14201.6
-13727.6
-5605.6
-15807.9
1817.01
-15556.3
6687.14
-14741.5
4815.53
-5794.03
-2309.13
12983.6
-2389.29
15543.5
-2432.58
17035.9
-2449.41
18740.6
-2371.88
20051.5
-2179.87
19584.8
-2145.7
15539.6
-2997.63
11541.2
-4570.63
14895.1
-7154.54
12784.4
-8420.8
-2441.77
-7960.48
-14119.7
-7149.29
-18279.6
-7376
-13974.9
-11105.1
-1876.49
-14713.3
5425.19
-15398.2
7372.02
-14874.1
4291.47
-6317.46
-2341.06
13081.9
-2418.45
15620.9
-2455.47
17072.9
-2454.56
18739.7
-2342.03
19939
-2121.11
19363.9
-2081.41
15499.9
-2773.18
12233
-4058.92
16180.9
-6412.11
15137.6
-7716
-1137.88
-7204.13
-14631.6
-6330.03
-19153.7
-4712.93
-15592
-4833.01
-1756.41
-7507.85
8100.03
-6731.84
6596.01
-3624.42
1184.05
-2759.28
-2367.88
13176
-2440.72
15693.7
-2469.09
17101.3
-2448.92
18719.5
-2302.88
19792.9
-2049.31
19110.3
-1986.66
15437.3
-2552.82
12799.1
-3587.07
17215.1
-5632.92
17183.4
-6871.42
100.625
-6298.11
-15204.9
-5581
-19870.9
-3894.64
-17278.4
-132.768
-5518.28
374.353
7592.91
637.947
6332.42
2778.37
-956.371
-4858.26
-2386.87
13264.7
-2453.7
15760.5
-2471.58
17119.2
-2433.11
18681
-2258.76
19618.6
-1968.33
18819.9
-1864.34
15333.3
-2344.01
13278.8
-3185.05
18056.2
-4887.46
18885.8
-5946.09
1159.25
-5368.9
-15782.1
-4736.32
-20503.4
-3356.31
-18658.4
1246.24
-10120.8
4843.71
3995.45
5673.78
5502.34
5425.05
-707.643
-3617.23
-2399.38
13345.6
-2457.17
15818.3
-2462.17
17124.2
-2406.01
18624.9
-2208.64
19421.2
-1884.6
18495.9
-1746.31
15195
-2188.41
13720.9
-2892.86
18760.6
-4231.96
20224.9
-5011.49
1938.78
-4522.36
-16271.2
-4009.32
-21016.5
-2841.48
-19826.2
380.029
-13342.3
4577.3
-201.826
6133.94
3945.7
5246.11
180.187
-1699.53
-2397.1
13414
-2439.99
15861.2
-2428.37
17112.6
-2356.55
18553.1
-2148.52
19213.2
-1811.09
18158.4
-1672.72
15056.7
-2122.08
14170.3
-2730.49
19369
-3699.67
21194.1
-4132.8
2371.91
-3811.1
-16592.9
-3450.56
-21377
-2496.72
-20780.1
-568.543
-15270.5
3034.81
-3805.17
4887.7
2092.8
4154.35
913.541
-12.9209
-2392.75
13472.6
-2424.58
15893
-2397.54
17085.5
-2310.71
18466.2
-2094.66
18997.2
-1768.91
17832.7
-1698.9
14986.6
-2198.22
14669.6
-2715.5
19886.3
-3289.99
21768.6
-3378.33
2460.24
-3279.65
-16691.6
-3012.45
-21644.2
-2268.98
-21523.5
-952.529
-16587
1950.5
-6708.2
3399.94
643.36
2813.72
1499.76
1057.99
-2337
-2310.93
-2236.1
-2117.69
-1935.48
-1789.72
-1989.87
-2533.95
-2902.69
-3085.79
-2988.07
-2925.87
-2696.36
-2138.15
-1241.6
721.736
1586.2
1381.68
-35.9899
-221.158
214.009
-1483.48
494.825
-2098.78
731.356
-2091.03
927.705
-1880
1102.75
-1683.56
1220.2
-1530.78
1326.47
-1404.54
1407.18
-1284.47
1459.76
-1163.39
1482.87
-1040.41
1476.04
-916.35
1438.56
-792.491
1368.87
-669.307
1264.76
-547.148
1122.07
-423.606
936.89
-298.762
700.444
-163.819
393.241
-6.38243
199.438
606.841
-828.001
938.062
-1814.71
956.943
-2117.66
889.828
-2023.92
870.968
-1861.14
911.898
-1724.5
987.128
-1606.02
1064.81
-1482.22
1130.48
-1350.15
1177.83
-1210.74
1204.04
-1066.62
1206.31
-918.619
1181.16
-767.343
1123.72
-611.866
1027.1
-450.537
882.502
-279.009
685.941
-102.202
453.116
69.0034
221.445
225.285
420.883
696.188
-1524.19
1040.81
-2159.33
966.009
-2042.87
817.308
-1875.22
737.85
-1781.69
701.303
-1687.95
669.056
-1573.77
622.284
-1435.45
559.378
-1287.24
481.015
-1132.38
387.743
-973.355
278.838
-809.717
154.121
-642.631
15.401
-473.151
-125.151
-309.995
-232.973
-171.202
-281.551
-53.639
-281.194
68.6348
-215.821
159.905
205.062
209.249
-1733.44
135.47
-2085.55
-70.6292
-1836.77
-250.923
-1694.92
-402.645
-1629.97
-549.664
-1540.93
-701.603
-1421.83
-859.657
-1277.39
-1022.36
-1124.54
-1189.61
-965.122
-1360.3
-802.664
-1530
-640.023
-1689.13
-483.502
-1820.86
-341.425
-1899.58
-231.27
-1885.83
-184.955
-1714.98
-224.49
-1311.32
-335.034
-679.085
-472.33
-474.024
-201.55
-1531.89
-345.745
-1941.36
-469.179
-1713.34
-625.192
-1538.91
-821.775
-1433.39
-1035.73
-1326.97
-1246.47
-1211.1
-1446.85
-1077.02
-1636.7
-934.703
-1817.15
-784.668
-1984.91
-634.909
-2127.61
-497.321
-2219.7
-391.412
-2221.8
-339.331
-2094.12
-358.948
-1821.55
-457.524
-1407.04
-639.001
-876.801
-865.278
-347.555
-1001.58
-821.579
-171.807
-1360.09
-138.89
-1974.27
-91.5936
-1760.63
-111.456
-1519.05
-166.098
-1378.75
-231.075
-1262
-282.812
-1159.36
-310.992
-1048.84
-309.3
-936.396
-274.313
-819.656
-205.931
-703.293
-108.65
-594.604
8.53759
-508.601
134.027
-464.822
254.7
-479.624
353.302
-556.128
393.446
-679.146
332.808
-804.64
169.875
-838.645
-651.704
-25.7386
-1334.35
30.7313
-2030.75
106.475
-1836.38
167.002
-1579.58
224.684
-1436.43
280.004
-1317.32
341.47
-1220.83
415.663
-1123.03
509.326
-1030.06
628.714
-939.047
775.308
-849.888
942.147
-761.445
1108.08
-674.536
1237.18
-593.925
1286.84
-529.28
1223.65
-492.946
1033.76
-489.248
730.033
-500.917
370.83
-479.441
-280.874
89.5684
-1423.92
142.912
-2084.09
188.23
-1881.7
240.72
-1632.07
309.495
-1505.2
379.623
-1387.45
450.025
-1291.23
517.233
-1190.24
582.25
-1095.08
644.73
-1001.53
705.102
-910.259
763.983
-820.324
820.639
-731.192
869.222
-642.507
894.991
-555.047
871.888
-469.842
773.568
-390.928
581.613
-308.962
309.909
-207.737
29.0353
176.895
-1600.82
215.916
-2123.11
232.934
-1898.72
271.852
-1670.99
332.72
-1566.07
391.075
-1445.81
452.08
-1352.24
510.18
-1248.34
568.226
-1153.13
621.771
-1055.07
667.585
-956.073
700.679
-853.421
717.261
-747.774
714.172
-639.42
688.558
-529.433
634.479
-415.763
542.982
-299.43
398.86
-164.839
201.877
-10.7524
230.912
231.334
-1832.15
228.335
-2120.11
236.929
-1907.31
280.812
-1714.87
346.193
-1631.45
406.607
-1506.22
474.434
-1420.06
542.028
-1315.93
615.214
-1226.31
686.348
-1126.21
751.383
-1021.11
800.351
-902.389
824.288
-771.71
815.544
-630.675
770.835
-484.724
687.287
-332.215
563.698
-175.84
392.772
6.08731
194.871
187.149
425.784
196.489
-2028.64
133.64
-2057.26
138.545
-1912.21
173.131
-1749.46
222.839
-1681.16
271.066
-1554.45
331.878
-1480.88
396.588
-1380.64
471.816
-1301.54
547.459
-1201.85
618.694
-1092.34
668.625
-952.319
682.976
-786.061
655.131
-602.831
590.308
-419.9
484.1
-226.007
329.15
-20.8895
213.318
121.92
91.5778
308.889
517.361
56.9978
-2085.64
-42.2281
-1958.04
-72.4629
-1881.98
-94.1783
-1727.74
-110.411
-1664.93
-124.273
-1540.59
-131.685
-1473.46
-134.025
-1378.3
-129.672
-1305.89
-121.242
-1210.28
-114.419
-1099.16
-123.005
-943.729
-156.852
-752.209
-208.812
-550.866
-259.082
-369.625
-291.276
-193.804
-285.168
-26.99
-299.848
136.604
-259.001
268.047
258.36
-62.0799
-2023.56
-143.733
-1876.38
-209.105
-1816.6
-284.525
-1652.32
-356.972
-1592.48
-434.802
-1462.76
-516.114
-1392.15
-601.594
-1292.82
-690.82
-1216.66
-777.779
-1123.32
-860.934
-1016.01
-938.32
-866.343
-1012.2
-678.329
-1084.4
-478.664
-1154.71
-299.316
-1195.25
-153.262
-1161.55
-60.6894
-971.727
-53.2183
-543.451
-160.227
-285.091
-54.9427
-1968.61
-98.8424
-1832.48
-145.578
-1769.87
-211.791
-1586.11
-273.551
-1530.72
-349.217
-1387.09
-431.352
-1310.01
-525.579
-1198.59
-629.718
-1112.52
-736.698
-1016.33
-832.366
-920.337
-892.621
-806.086
-899.771
-671.177
-857.457
-520.975
-784.262
-372.509
-684.026
-253.495
-527.921
-216.792
-303.975
-277.161
-85.2952
-378.904
-370.386
27.3607
-1995.97
41.2694
-1846.39
63.9688
-1792.56
79.2798
-1601.42
94.6056
-1546.04
109.657
-1402.13
118.995
-1319.35
127.094
-1206.69
127.849
-1113.28
126.164
-1014.64
127.281
-921.451
149.013
-827.813
209.625
-731.786
317.301
-628.647
462.23
-517.436
609.494
-400.756
693.848
-301.146
631.044
-214.355
374.931
-122.789
4.54538
46.5178
-2042.49
60.5918
-1860.46
94.4497
-1826.42
134.728
-1641.69
172.837
-1584.15
222.038
-1451.33
270.1
-1367.41
327.029
-1263.61
386.909
-1173.15
453.021
-1080.75
522.829
-991.257
595.842
-900.823
669.955
-805.899
739.793
-698.483
789.02
-566.662
786.919
-398.653
715.729
-229.956
565.76
-64.3851
325.454
117.517
329.999
-5.44852
-2037.04
-33.6248
-1832.28
-39.2122
-1820.83
-26.742
-1654.16
-13.6808
-1597.2
18.0278
-1483.04
54.9288
-1404.31
104.779
-1313.46
164.144
-1232.52
234.631
-1151.24
315.604
-1072.23
404.424
-989.641
493.276
-894.749
564.616
-769.822
584.457
-586.502
503.135
-317.33
309.227
-36.0446
144.168
100.678
47.0042
214.684
377.004
-167.459
-1869.58
-346.858
-1652.88
-491.103
-1676.58
-593.328
-1551.93
-685.892
-1504.64
-745.758
-1423.17
-790.873
-1359.19
-814.236
-1290.1
-821.142
-1225.61
-810.813
-1161.57
-784.439
-1098.6
-742.109
-1031.97
-684.476
-952.382
-612.223
-842.074
-524.177
-674.547
-416.011
-425.495
-308.877
-143.177
-221.646
13.4491
-147.499
140.538
229.505
-219.097
-1650.48
-481.505
-1390.47
-757.509
-1400.58
-993.181
-1316.26
-1220.16
-1277.66
-1415.73
-1227.61
-1589.29
-1185.62
-1736.29
-1143.1
-1859.56
-1102.34
-1959.17
-1061.96
-2035.86
-1021.92
-2086.97
-980.854
-2103.8
-935.551
-2066.03
-879.844
-1934.67
-805.914
-1652.03
-708.132
-1209.03
-586.174
-752.474
-443.108
-335.668
-276.267
-106.163
-675.478
-1090.95
-1516.53
-1857.79
-2160.45
-2413.06
-2623.68
-2791.78
-2919.12
-3006.07
-3052.99
-3058.85
-3019.4
-2924.24
-2755.16
-2488.29
-2099.46
-1567.57
-868.837
-675.458
1650.46
-1090.91
1390.46
-1516.48
1400.56
-1857.73
1316.25
-2160.37
1277.65
-2412.97
1227.6
-2623.59
1185.62
-2791.68
1143.09
-2919.02
1102.34
-3005.98
1061.96
-3052.9
1021.92
-3058.76
980.858
-3019.3
935.545
-2924.12
879.816
-2754.99
805.869
-2488.09
708.096
-2099.28
586.198
-1567.49
443.203
-868.81
276.323
106.19
-219.129
1869.59
-481.587
1652.91
-757.637
1676.61
-993.366
1551.98
-1220.41
1504.69
-1416.04
1423.23
-1589.68
1359.26
-1736.77
1290.18
-1860.13
1225.7
-1959.85
1161.67
-2036.64
1098.72
-2087.86
1032.07
-2104.74
952.425
-2066.91
841.99
-1935.31
674.266
-1652.27
425.055
-1209.09
143.023
-752.617
-13.2722
-335.653
-140.641
-229.463
-167.54
2037.13
-346.994
1832.37
-491.304
1820.92
-593.594
1654.27
-686.222
1597.32
-746.152
1483.16
-791.33
1404.44
-814.757
1313.6
-821.727
1232.67
-811.461
1151.41
-785.154
1072.41
-742.895
989.813
-685.337
894.866
-613.148
769.801
-525.113
586.23
-416.863
316.804
-309.672
35.8312
-222.279
-100.666
-147.969
-214.953
-377.433
-5.41049
2042.54
-33.6093
1860.56
-39.1809
1826.5
-26.6947
1641.78
-13.5945
1584.22
18.1464
1451.42
55.1007
1367.48
105.002
1263.7
164.434
1173.24
234.995
1080.85
316.055
991.349
404.961
900.906
493.873
805.954
565.188
698.486
584.823
566.594
503.084
398.542
309.032
229.883
144.223
64.1419
46.945
-117.675
-330.488
46.7207
1995.82
60.7766
1846.51
94.732
1792.54
135.11
1601.4
173.35
1545.98
222.665
1402.1
270.88
1319.27
327.955
1206.62
388.01
1113.18
454.298
1014.56
524.284
921.362
597.411
827.779
671.493
731.871
741.102
628.876
789.929
517.767
787.328
401.143
715.855
301.355
565.646
214.35
325.312
122.658
-5.17554
27.6725
1968.14
41.7974
1832.38
64.7608
1769.58
80.3784
1585.78
95.9967
1530.36
111.385
1386.72
121.068
1309.58
129.551
1198.14
130.723
1112.01
129.502
1015.78
131.135
919.729
153.391
805.523
214.452
670.81
322.468
520.859
467.585
372.65
614.538
254.19
697.585
218.307
632.74
279.195
375.283
380.115
370.108
-54.7502
2022.89
-98.3969
1876.03
-144.921
1816.1
-210.942
1651.8
-272.524
1591.94
-348.023
1462.21
-430.018
1391.58
-524.118
1292.24
-628.125
1216.02
-734.918
1122.57
-830.267
1015.08
-890.028
865.284
-896.589
677.37
-853.738
478.008
-780.06
298.972
-679.262
153.392
-522.696
61.7411
-299.17
55.6693
-82.4921
163.436
287.616
-62.6142
2085.51
-144.331
1957.75
-209.994
1881.76
-285.8
1727.61
-358.639
1664.78
-436.951
1540.53
-518.802
1473.43
-604.906
1378.34
-694.803
1305.91
-782.439
1210.21
-866.205
1098.84
-944.03
943.109
-1018.12
751.464
-1090.41
550.291
-1160.64
369.206
-1200.68
193.435
-1165.85
26.9086
-973.127
-137.055
-542.854
-266.837
-255.239
56.2674
2029.24
-43.142
2057.15
-73.7193
1912.34
-95.8303
1749.72
-112.478
1681.43
-126.74
1554.79
-134.577
1481.27
-137.332
1381.1
-133.414
1301.99
-125.418
1202.21
-119.056
1092.48
-128.073
952.124
-162.164
785.555
-214.064
602.189
-264.074
419.214
-296.058
225.418
-290.88
21.7294
-305.481
-122.456
-262.301
-310.017
-517.539
196.346
1832.89
133.229
2120.27
137.997
1907.57
172.469
1715.25
222.045
1631.85
270.193
1506.64
330.938
1420.52
395.614
1316.42
470.797
1226.81
546.349
1126.66
617.38
1021.45
666.949
902.555
680.834
771.67
652.581
630.441
587.484
484.311
481.289
331.612
327.993
175.025
212.699
-7.16143
90.78
-188.098
-426.759
231.692
1601.2
228.55
2123.42
237.088
1899.03
281
1671.34
346.423
1566.43
406.9
1446.16
474.816
1352.61
542.523
1248.72
615.831
1153.5
687.068
1055.42
752.165
956.353
801.127
853.593
824.989
747.808
816.134
639.295
771.299
529.147
687.594
415.317
563.819
298.801
392.641
164.016
194.825
9.71753
-231.934
177.354
1423.85
216.325
2084.45
233.231
1882.13
272.116
1632.45
332.972
1505.57
391.316
1387.82
452.318
1291.6
510.436
1190.6
568.516
1095.42
622.108
1001.83
667.948
910.513
701.011
820.531
717.461
731.358
714.116
642.64
688.19
555.073
633.848
469.66
542.216
390.433
398.174
308.058
201.491
206.4
-30.4427
90.0799
1333.77
143.417
2031.11
188.544
1837
240.865
1580.13
309.501
1436.93
379.468
1317.85
449.676
1221.4
516.633
1123.64
581.352
1030.7
643.414
939.769
703.227
850.7
761.461
762.297
817.462
675.358
865.619
594.484
891.094
529.598
867.982
492.771
770.163
488.253
579.158
499.063
308.476
477.082
278.033
-25.3099
1359.08
31.0154
1974.78
106.536
1761.48
167.111
1519.56
225.086
1378.96
280.817
1262.12
342.655
1159.56
417.085
1049.22
510.785
937.006
629.965
820.59
776.14
704.526
942.365
596.073
1107.49
510.233
1235.8
466.178
1285
480.396
1221.96
555.809
1032.46
677.753
729.492
802.034
370.911
835.662
648.945
-170.367
1529.45
-136.456
1940.87
-87.8671
1712.89
-106.141
1537.83
-159.035
1431.86
-222.195
1325.28
-272.143
1209.51
-298.604
1075.68
-295.271
933.673
-258.61
783.93
-188.583
634.499
-90.0477
497.539
27.632
392.554
152.683
341.129
272.272
360.809
369.147
458.935
405.735
641.166
339.954
867.815
172.552
1003.06
821.497
-202.502
1731.95
-346.258
2084.63
-468.972
1835.61
-624.64
1693.5
-821.078
1628.29
-1034.88
1539.09
-1245.31
1419.93
-1445.21
1275.58
-1634.38
1122.84
-1813.92
963.476
-1980.59
801.172
-2122.18
639.124
-2213.12
483.495
-2213.85
341.861
-2084.64
231.597
-1811.78
186.071
-1398.65
228.039
-871.677
340.843
-346.148
477.535
475.348
205.932
1526.02
131.005
2159.56
-75.3867
2042
-256.194
1874.31
-408.859
1780.96
-557.061
1687.29
-710.191
1573.06
-869.332
1434.72
-1033.01
1286.52
-1201.21
1131.67
-1372.74
972.706
-1542.94
809.328
-1702.05
642.598
-1833.36
473.178
-1911.69
309.92
-1897.11
171.496
-1723.27
54.2018
-1316.92
-65.5114
-680.723
-158.659
-205.375
690.208
835.809
1029.56
1820.2
951.976
2119.59
801.478
2024.81
720.052
1862.38
681.51
1725.83
647.672
1606.9
600.064
1482.33
536.942
1349.64
458.811
1209.8
366.158
1065.36
258.403
917.082
135.464
765.536
-1.03925
609.68
-138.77
447.65
-243.387
276.111
-290.364
101.178
-286.252
-69.624
-215.566
-229.345
-420.941
598.691
237.119
924.684
1494.21
943.201
2101.07
880.307
2087.7
866.773
1875.92
912.624
1679.98
991.999
1527.53
1072.38
1401.95
1140.07
1281.95
1189.24
1160.64
1217.21
1037.38
1221.13
913.163
1197.37
789.303
1140.74
666.307
1043.88
544.512
898.377
421.613
701.957
297.598
468.586
163.747
231.141
8.1002
-189.8
-42.4344
193.058
461.522
689.908
880.868
1052.38
1174.61
1289.49
1378.7
1439.81
1471.17
1471.9
1440.97
1376.63
1276.55
1136.43
952.231
714.238
401.956
)
;

boundaryField
{
    outletWall
    {
        type            calculated;
        value           nonuniform List<scalar> 
60
(
5321.2
-5420.45
-13074.1
-18442.6
-19157.8
-10800.3
7825.88
15268.6
14745
12041.6
10485.8
12625.5
10511.8
-17161.7
-20721.6
-20552.2
-18846.3
-16933.8
-14802.8
-11870
2321.57
2334.15
2328.77
2318.48
2298.12
2273.74
2242.81
2208.27
2169.94
2129.06
2086.09
2041.94
1997.59
1954.34
1913.71
1877.71
1848.22
1825.81
1814
1820
4242.08
1108.15
1704.28
-221.106
-8671.54
-17483.5
-22081.8
-21873.7
-16753.8
2362.53
21951.7
20255
15213.7
15186.8
17686.9
18814.9
18347.8
17010.7
15867
13488
)
;
    }
    fineWalls
    {
        type            calculated;
        value           uniform 0;
    }
    fineFrontAndBack
    {
        type            calculated;
        value           nonuniform List<scalar> 
960
(
-3.34199e-12
-1.91102e-11
-3.73095e-12
-4.53262e-12
-2.74927e-11
-4.54614e-12
-4.79768e-12
-4.91611e-12
-3.2398e-11
-6.08562e-12
-6.01578e-12
-2.89131e-11
-4.32511e-12
-3.64482e-12
-2.42588e-11
-4.34011e-12
-3.83091e-12
-2.28681e-11
-3.90049e-12
-3.7585e-12
-6.60047e-13
-5.49584e-13
-4.83577e-13
-4.5852e-13
-4.51708e-13
-4.62917e-13
-1.28325e-11
-4.46849e-13
-4.97304e-13
-5.60854e-13
-6.30552e-13
-7.01308e-13
-7.70244e-13
-8.34464e-13
-8.91019e-13
-9.3435e-13
-9.41178e-13
-9.45619e-13
-8.33573e-13
-9.12601e-13
-1.22644e-11
-1.171e-13
5.56902e-13
7.81945e-13
2.52659e-11
1.16828e-11
1.71374e-11
2.05865e-11
2.6198e-10
4.53149e-11
4.0526e-11
4.20642e-11
-2.30495e-12
-1.11881e-12
-1.29349e-12
-4.04688e-12
8.53373e-14
6.54599e-13
1.40921e-12
2.07469e-11
1.18007e-12
1.03285e-12
1.12343e-12
1.08495e-12
1.06033e-12
1.00759e-12
9.46566e-13
8.82159e-13
8.24532e-13
7.72747e-13
7.21649e-13
6.66645e-13
6.07894e-13
1.30328e-11
4.37576e-13
3.24963e-13
2.37796e-13
1.42727e-13
7.25649e-14
8.04552e-14
3.08369e-13
5.42714e-13
5.67752e-12
1.64696e-12
2.27193e-12
1.47152e-11
2.90066e-12
2.94589e-12
1.35395e-11
2.73451e-12
3.29543e-12
1.39029e-11
8.93237e-13
5.68454e-13
8.88126e-13
6.72136e-13
-1.80101e-12
-7.17554e-13
1.30502e-11
2.65633e-12
-3.42463e-11
-3.03612e-11
-2.56611e-11
-1.93964e-11
-1.14382e-11
-4.44802e-12
-9.28497e-13
-6.13353e-13
3.13011e-12
1.40622e-11
3.0868e-11
5.04434e-11
6.43076e-11
6.6093e-11
6.38014e-11
3.62394e-11
1.43295e-11
5.47922e-12
-7.844e-13
-3.41116e-11
-3.01098e-11
-2.53689e-11
-1.90427e-11
-1.11312e-11
-4.27952e-12
-8.98619e-13
6.99616e-13
1.03708e-11
3.05949e-11
5.24544e-11
6.92793e-11
7.19741e-11
6.45706e-11
6.83855e-11
4.12782e-11
1.68094e-11
6.01401e-12
1.06982e-12
-3.39362e-11
-2.97887e-11
-2.49906e-11
-1.85864e-11
-1.07339e-11
-4.07092e-12
-8.46393e-13
3.70148e-12
1.94509e-11
4.34999e-11
6.13816e-11
6.80483e-11
6.22312e-11
5.47543e-11
5.92972e-11
4.80999e-11
2.35326e-11
8.05275e-12
8.88932e-13
-3.37401e-11
-2.94374e-11
-2.45714e-11
-1.80837e-11
-1.02975e-11
-3.86675e-12
-6.92781e-13
9.08816e-12
2.98143e-11
5.21709e-11
6.14305e-11
5.86427e-11
5.03498e-11
4.75565e-11
5.46331e-11
5.7184e-11
3.24787e-11
1.16636e-11
3.15047e-13
-3.35267e-11
-2.90628e-11
-2.41195e-11
-1.75464e-11
-9.8385e-12
-3.6833e-12
-2.92716e-13
1.57701e-11
3.69898e-11
5.11367e-11
4.95602e-11
4.00714e-11
3.4222e-11
3.86704e-11
5.11702e-11
6.15192e-11
3.87637e-11
1.61175e-11
1.05369e-12
-3.32955e-11
-2.86643e-11
-2.36346e-11
-1.69773e-11
-9.36448e-12
-3.51121e-12
2.58722e-13
2.03338e-11
3.66302e-11
3.86927e-11
2.64594e-11
1.33629e-11
1.31253e-11
2.61435e-11
4.3422e-11
5.73911e-11
4.20487e-11
1.97483e-11
5.9029e-12
-3.30453e-11
-2.82397e-11
-2.31163e-11
-1.63821e-11
-8.87361e-12
-3.23177e-12
4.16358e-13
1.64823e-11
2.64304e-11
1.69304e-11
-5.18094e-12
-1.90721e-11
-1.23372e-11
9.23667e-12
3.20705e-11
5.08527e-11
4.33518e-11
2.21874e-11
1.84084e-11
-3.2775e-11
-2.77873e-11
-2.2563e-11
-1.57539e-11
-8.36473e-12
-3.06933e-12
-3.39274e-13
1.06735e-11
1.57697e-11
-5.44502e-12
-3.73522e-11
-4.88235e-11
-3.67979e-11
-1.02365e-11
1.6732e-11
3.76472e-11
4.12673e-11
2.80431e-11
3.06259e-11
-3.24833e-11
-2.73049e-11
-2.19763e-11
-1.51251e-11
-7.89788e-12
-2.4063e-12
1.73737e-12
6.57747e-12
9.53263e-12
-1.76796e-11
-5.6407e-11
-6.33164e-11
-5.10962e-11
-2.66479e-11
1.60118e-12
1.89841e-11
2.31145e-11
1.46929e-11
3.32851e-12
-3.2169e-11
-2.67922e-11
-2.13578e-11
-1.44401e-11
-7.24045e-12
-3.25066e-12
-9.75526e-12
4.86326e-12
6.89193e-12
-1.96329e-11
-5.76152e-11
-6.13245e-11
-5.19464e-11
-3.39989e-11
-7.41556e-12
5.67404e-12
8.23485e-13
1.71924e-12
1.45212e-11
-3.18312e-11
-2.62478e-11
-2.07022e-11
-1.37296e-11
-6.80383e-12
-3.29201e-12
-4.11745e-12
3.74709e-12
6.16528e-12
-1.69564e-11
-5.31448e-11
-5.50353e-11
-4.77056e-11
-3.4038e-11
-5.96842e-12
6.02223e-12
-1.65917e-12
1.33587e-11
1.16817e-10
-3.14686e-11
-2.56688e-11
-2.00091e-11
-1.30223e-11
-6.43235e-12
-3.10218e-12
-7.62047e-13
3.10291e-12
6.04654e-12
-1.30542e-11
-4.70458e-11
-4.86154e-11
-4.43295e-11
-3.57035e-11
-5.80474e-12
1.68676e-11
1.734e-11
2.12531e-11
2.69672e-11
-3.10801e-11
-2.50535e-11
-1.92842e-11
-1.23316e-11
-6.07439e-12
-2.75091e-12
-5.23254e-13
2.68498e-12
5.90237e-12
-9.39888e-12
-4.04568e-11
-4.18778e-11
-4.00148e-11
-3.85882e-11
-1.51451e-11
5.02934e-12
-3.09115e-13
-1.20707e-11
-2.44045e-11
-3.06649e-11
-2.44022e-11
-1.85353e-11
-1.16571e-11
-5.69373e-12
-2.32846e-12
-1.26673e-13
2.33181e-12
5.56405e-12
-6.27888e-12
-3.35899e-11
-3.52499e-11
-3.5042e-11
-3.9918e-11
-2.96091e-11
-3.47565e-13
-1.35115e-11
-3.26907e-11
-3.52291e-11
-3.02244e-11
-2.37187e-11
-1.77708e-11
-1.09931e-11
-5.28496e-12
-1.91995e-12
1.0433e-13
1.9622e-12
5.08567e-12
-3.64463e-12
-2.71012e-11
-2.9706e-11
-3.08267e-11
-3.82803e-11
-4.3986e-11
-1.2156e-11
-1.2121e-11
-1.84611e-11
-3.06743e-11
-2.97562e-11
-2.30096e-11
-1.70025e-11
-1.03409e-11
-4.86447e-12
-1.58346e-12
1.76964e-13
1.5858e-12
4.56688e-12
-1.43944e-12
-2.12645e-11
-2.51939e-11
-2.78594e-11
-3.59776e-11
-4.43927e-11
-3.5413e-11
-2.71307e-11
-3.16367e-11
-4.0108e-11
-2.92763e-11
-2.22933e-11
-1.62456e-11
-9.70318e-12
-4.44043e-12
-1.31889e-12
1.5228e-13
1.26843e-12
4.07705e-12
3.04454e-13
-1.62416e-11
-2.15844e-11
-2.58154e-11
-3.45363e-11
-4.38802e-11
-4.60637e-11
-4.17178e-11
-4.3837e-11
-4.17227e-11
-2.87474e-11
-2.15728e-11
-1.55368e-11
-9.13091e-12
-4.06541e-12
-1.12709e-12
8.97886e-14
1.05556e-12
3.66694e-12
1.56986e-12
-1.20875e-11
-1.87456e-11
-2.45226e-11
-3.33902e-11
-4.33457e-11
-4.65519e-11
-4.68766e-11
-4.67969e-11
-4.10948e-11
-2.83628e-11
-2.09866e-11
-1.4927e-11
-8.61045e-12
-3.6992e-12
-9.27063e-13
1.13215e-13
9.90992e-13
3.33298e-12
2.36467e-12
-8.8756e-12
-1.67048e-11
-2.37136e-11
-3.24361e-11
-4.2924e-11
-4.67035e-11
-4.73374e-11
-4.51894e-11
-4.1385e-11
-2.74906e-11
-2.01098e-11
-1.42933e-11
-8.18741e-12
-3.39372e-12
-7.21153e-13
1.48036e-13
1.0203e-12
3.10804e-12
2.98368e-12
-6.01954e-12
-1.56573e-11
-2.31844e-11
-3.17575e-11
-4.26127e-11
-4.67373e-11
-4.5644e-11
-4.17665e-11
-4.10444e-11
3.34199e-12
1.91102e-11
3.73095e-12
4.53262e-12
2.74927e-11
4.54614e-12
4.79768e-12
4.91611e-12
3.2398e-11
6.08562e-12
6.01578e-12
2.89131e-11
4.32511e-12
3.64482e-12
2.42588e-11
4.34011e-12
3.83091e-12
2.28681e-11
3.90049e-12
3.7585e-12
6.60047e-13
5.49584e-13
4.83577e-13
4.5852e-13
4.51708e-13
4.62917e-13
1.28325e-11
4.46849e-13
4.97304e-13
5.60854e-13
6.30552e-13
7.01308e-13
7.70244e-13
8.34464e-13
8.91019e-13
9.3435e-13
9.41178e-13
9.45619e-13
8.33573e-13
9.12601e-13
1.22644e-11
1.171e-13
-5.56902e-13
-7.81945e-13
-2.52659e-11
-1.16828e-11
-1.71374e-11
-2.05865e-11
-2.6198e-10
-4.53149e-11
-4.0526e-11
-4.20642e-11
2.30495e-12
1.11881e-12
1.29349e-12
4.04688e-12
-8.53373e-14
-6.54599e-13
-1.40921e-12
-2.07469e-11
-1.18007e-12
-1.03285e-12
-1.12343e-12
-1.08495e-12
-1.06033e-12
-1.00759e-12
-9.46566e-13
-8.82159e-13
-8.24532e-13
-7.72747e-13
-7.21649e-13
-6.66645e-13
-6.07894e-13
-1.30328e-11
-4.37576e-13
-3.24963e-13
-2.37796e-13
-1.42727e-13
-7.25649e-14
-8.04552e-14
-3.08369e-13
-5.42714e-13
-5.67752e-12
-1.64696e-12
-2.27193e-12
-1.47152e-11
-2.90066e-12
-2.94589e-12
-1.35395e-11
-2.73451e-12
-3.29543e-12
-1.39029e-11
-8.93237e-13
-5.68454e-13
-8.88126e-13
-6.72136e-13
1.80101e-12
7.17554e-13
-1.30502e-11
-2.65633e-12
3.42463e-11
3.03612e-11
2.56611e-11
1.93964e-11
1.14382e-11
4.44802e-12
9.28497e-13
6.13353e-13
-3.13011e-12
-1.40622e-11
-3.0868e-11
-5.04434e-11
-6.43076e-11
-6.6093e-11
-6.38014e-11
-3.62394e-11
-1.43295e-11
-5.47922e-12
7.844e-13
3.41116e-11
3.01098e-11
2.53689e-11
1.90427e-11
1.11312e-11
4.27952e-12
8.98619e-13
-6.99616e-13
-1.03708e-11
-3.05949e-11
-5.24544e-11
-6.92793e-11
-7.19741e-11
-6.45706e-11
-6.83855e-11
-4.12782e-11
-1.68094e-11
-6.01401e-12
-1.06982e-12
3.39362e-11
2.97887e-11
2.49906e-11
1.85864e-11
1.07339e-11
4.07092e-12
8.46393e-13
-3.70148e-12
-1.94509e-11
-4.34999e-11
-6.13816e-11
-6.80483e-11
-6.22312e-11
-5.47543e-11
-5.92972e-11
-4.80999e-11
-2.35326e-11
-8.05275e-12
-8.88932e-13
3.37401e-11
2.94374e-11
2.45714e-11
1.80837e-11
1.02975e-11
3.86675e-12
6.92781e-13
-9.08816e-12
-2.98143e-11
-5.21709e-11
-6.14305e-11
-5.86427e-11
-5.03498e-11
-4.75565e-11
-5.46331e-11
-5.7184e-11
-3.24787e-11
-1.16636e-11
-3.15047e-13
3.35267e-11
2.90628e-11
2.41195e-11
1.75464e-11
9.8385e-12
3.6833e-12
2.92716e-13
-1.57701e-11
-3.69898e-11
-5.11367e-11
-4.95602e-11
-4.00714e-11
-3.4222e-11
-3.86704e-11
-5.11702e-11
-6.15192e-11
-3.87637e-11
-1.61175e-11
-1.05369e-12
3.32955e-11
2.86643e-11
2.36346e-11
1.69773e-11
9.36448e-12
3.51121e-12
-2.58722e-13