/*--------------------------------*- C++ -*----------------------------------*\
| =========                 |                                                 |
| \\      /  F ield         | OpenFOAM: The Open Source CFD Toolbox           |
|  \\    /   O peration     | Version:  4.1                                   |
|   \\  /    A nd           | Web:      www.OpenFOAM.org                      |
|    \\/     M anipulation  |                                                 |
\*---------------------------------------------------------------------------*/
FoamFile
{
    version     2.0;
    format      ascii;
    class       volVectorField;
    location    "28";
    object      U;
}
// * * * * * * * * * * * * * * * * * * * * * * * * * * * * * * * * * * * * * //

dimensions      [0 1 -1 0 0 0 0];

internalField   nonuniform List<vector> 
1280
(
(-2.41517e-15 -1.37145 -1.31244)
(-3.24659e-15 -1.11928 -1.1981)
(-2.69626e-15 -1.13461 -1.00029)
(-3.27561e-15 -0.865643 -1.02198)
(-4.67265e-15 -0.900056 -1.35386)
(-3.28538e-15 -0.55494 -1.13773)
(-3.46716e-15 -0.412123 -1.17788)
(-3.4724e-15 -0.221836 -1.17971)
(-5.85323e-15 0.144846 -1.65291)
(-4.47171e-15 0.365872 -1.21312)
(-4.43959e-15 0.53239 -1.05209)
(-4.75139e-15 1.22446 -2.12232)
(-3.11548e-15 1.3813 -1.69193)
(-2.63592e-15 1.6455 -1.48684)
(-4.16499e-15 2.5133 -2.83735)
(-3.13648e-15 2.62176 -2.37729)
(-2.7685e-15 3.01099 -2.17022)
(-3.88665e-15 4.1989 -3.97528)
(-2.81878e-15 3.90325 -3.35893)
(-2.71617e-15 4.73823 -3.3632)
(-2.70788e-15 4.57455 -3.75216)
(-2.2547e-15 4.7001 1.22583)
(-1.98391e-15 4.51767 6.73463)
(-1.88111e-15 4.55991 9.75406)
(-1.85316e-15 4.74337 10.8463)
(-1.89915e-15 5.2185 11.3624)
(-2.70514e-15 3.6016 8.7959)
(-1.83323e-15 8.30401 14.4943)
(-2.04022e-15 8.28321 14.4818)
(-2.30094e-15 8.35255 14.2284)
(-2.58688e-15 8.36959 13.8225)
(-2.87716e-15 8.34068 13.3011)
(-3.15998e-15 8.30676 12.7124)
(-3.42344e-15 8.26639 12.1124)
(-3.65546e-15 8.22509 11.5583)
(-3.83323e-15 8.17237 11.0911)
(-3.86124e-15 8.12531 10.7496)
(-3.87946e-15 8.02858 10.4942)
(-3.41979e-15 7.98733 10.3693)
(-3.74401e-15 7.73687 10.0877)
(-2.13479e-15 8.7878 12.0868)
(-9.40561e-17 5.0233 8.76253)
(4.47311e-16 4.10551 8.78652)
(6.90993e-16 3.07422 9.34323)
(4.90129e-15 1.34272 7.702)
(9.38378e-15 0.477253 0.475584)
(1.3765e-14 -0.0654268 -1.92767)
(1.65353e-14 0.544436 -2.82608)
(5.3394e-14 0.384912 -3.67229)
(3.63975e-14 0.0491736 -3.09066)
(3.49817e-14 0.417054 -4.01007)
(7.32188e-15 0.624092 1.92817)
(-1.85136e-15 -0.95897 6.13482)
(-8.98641e-16 -1.58717 5.88936)
(-1.03895e-15 -2.30722 6.35165)
(-7.04418e-16 -3.63207 10.0523)
(1.10127e-16 -4.97982 9.12524)
(5.25783e-16 -6.15223 8.86665)
(1.1319e-15 -7.00565 8.69813)
(3.55967e-15 -10.418 11.4626)
(4.84133e-15 -8.50436 9.3646)
(4.23734e-15 -8.75538 9.6208)
(4.60894e-15 -8.76805 9.73402)
(4.45106e-15 -8.85586 9.96762)
(4.35008e-15 -8.88371 10.2883)
(4.13371e-15 -8.92251 10.7233)
(3.88335e-15 -8.94555 11.2359)
(3.61911e-15 -8.96811 11.7889)
(3.38269e-15 -8.9822 12.3349)
(3.17024e-15 -8.98915 12.83)
(2.96061e-15 -8.9573 13.2392)
(2.73495e-15 -8.88912 13.5322)
(2.49392e-15 -8.87355 13.6178)
(2.74736e-15 -4.13063 8.06859)
(1.79519e-15 -5.27094 11.7402)
(1.33318e-15 -4.78467 11.4213)
(9.75575e-16 -4.57922 10.5158)
(5.85549e-16 -4.53073 7.69354)
(2.97702e-16 -4.71806 2.27804)
(3.30073e-16 -4.62041 -2.81638)
(2.2285e-16 -4.80717 -2.8851)
(3.79191e-16 -4.0817 -2.87494)
(9.64949e-16 -4.39795 -3.65317)
(1.19022e-15 -3.38006 -1.97384)
(1.64186e-15 -2.95705 -2.23403)
(2.66551e-15 -3.09948 -2.79144)
(2.12269e-15 -2.3805 -1.62798)
(2.12892e-15 -2.03385 -1.87879)
(2.56565e-15 -2.07138 -2.479)
(1.97616e-15 -1.41265 -1.46689)
(2.38152e-15 -1.15072 -1.73093)
(3.09206e-15 -1.05942 -2.3825)
(9.87855e-16 -0.408983 -1.35846)
(4.10807e-16 -0.293779 -1.55631)
(6.41825e-16 0.0523869 -1.65648)
(1.14236e-16 0.110811 -2.52992)
(-1.30155e-15 0.681508 -1.88049)
(-4.08821e-16 1.11274 -1.52536)
(2.21801e-15 0.803388 -2.10738)
(1.91966e-15 1.75219 -2.39288)
(-3.80515e-15 -3.95501 1.51802)
(-3.37347e-15 -4.93184 1.58073)
(-2.85124e-15 -5.63975 1.5255)
(-2.15516e-15 -6.27756 1.45596)
(-1.27091e-15 -6.84806 1.30822)
(-4.94225e-16 -6.91119 1.1083)
(-1.03166e-16 -5.75273 0.878982)
(-6.81503e-17 3.51178 -0.0681896)
(3.47789e-16 4.16291 1.14717)
(1.56247e-15 3.47903 2.33047)
(3.42977e-15 4.02379 2.0046)
(5.60482e-15 4.93249 2.15514)
(7.14529e-15 5.13562 1.46285)
(7.34367e-15 2.66796 0.144621)
(7.08905e-15 -3.22076 -2.47452)
(4.0266e-15 -6.24618 -3.82236)
(1.59216e-15 -6.14173 -4.0132)
(6.08802e-16 -4.39828 -3.43483)
(-8.71555e-17 -1.87907 -2.92091)
(-3.79018e-15 -3.98333 1.51785)
(-3.34554e-15 -4.94011 1.59813)
(-2.81877e-15 -5.60928 1.55243)
(-2.11585e-15 -6.21543 1.49999)
(-1.2368e-15 -6.73664 1.37074)
(-4.75502e-16 -6.77918 1.26127)
(-9.98466e-17 -5.23655 0.874976)
(7.77351e-17 3.28184 0.0584914)
(1.15231e-15 3.37472 2.17697)
(3.39944e-15 3.17273 3.25096)
(5.82827e-15 4.04798 3.54134)
(7.6977e-15 5.08272 3.88044)
(7.99713e-15 5.7693 3.30915)
(7.17452e-15 4.16106 1.94482)
(7.59839e-15 -2.53258 -2.17793)
(4.58647e-15 -6.02392 -3.474)
(1.86771e-15 -6.26711 -3.61704)
(6.68223e-16 -4.69664 -3.20843)
(1.18869e-16 -2.21068 -2.7602)
(-3.77069e-15 -4.00099 1.5277)
(-3.30985e-15 -4.94431 1.62268)
(-2.77673e-15 -5.59091 1.58658)
(-2.06516e-15 -6.18557 1.55369)
(-1.19265e-15 -6.69539 1.44884)
(-4.52324e-16 -6.74402 1.43224)
(-9.40437e-17 -4.97359 0.95915)
(4.11276e-16 2.85929 0.724572)
(2.16121e-15 2.87394 2.98951)
(4.83332e-15 2.86589 4.10295)
(6.82018e-15 3.81772 4.83691)
(7.56092e-15 5.04029 5.31479)
(6.91458e-15 6.08576 4.91598)
(6.08381e-15 5.10664 3.64103)
(6.58857e-15 -1.37836 -0.646753)
(5.34443e-15 -5.58105 -2.72176)
(2.61473e-15 -6.23486 -2.93264)
(8.9475e-16 -4.83677 -2.7221)
(9.87703e-17 -2.28466 -2.52212)
(-3.7489e-15 -4.02376 1.54675)
(-3.27083e-15 -4.95569 1.65211)
(-2.73016e-15 -5.58228 1.62513)
(-2.0093e-15 -6.16841 1.61215)
(-1.14417e-15 -6.67489 1.53595)
(-4.29638e-16 -6.72225 1.60115)
(-7.69756e-17 -4.79516 1.12322)
(1.0098e-15 2.29119 1.46629)
(3.3127e-15 2.15325 3.94139)
(5.79677e-15 2.41997 5.21666)
(6.82561e-15 3.55198 6.30102)
(6.51585e-15 5.00076 6.96897)
(5.59442e-15 6.4888 6.84486)
(5.28406e-15 6.11871 5.75982)
(6.07034e-15 -0.0388337 1.92141)
(6.35378e-15 -5.04929 -1.58316)
(3.60874e-15 -6.11157 -1.85651)
(1.29596e-15 -4.88623 -1.98099)
(3.50052e-17 -2.28263 -2.25175)
(-3.72519e-15 -4.051 1.57206)
(-3.22921e-15 -4.97155 1.68684)
(-2.67995e-15 -5.57812 1.66908)
(-1.9496e-15 -6.15749 1.67584)
(-1.09317e-15 -6.66474 1.62928)
(-4.09255e-16 -6.71007 1.75569)
(-3.2524e-17 -4.71838 1.31953)
(1.75224e-15 1.54243 2.30628)
(4.10998e-15 1.43597 4.89985)
(5.68186e-15 1.87188 6.32025)
(5.50669e-15 3.14038 7.65659)
(4.45238e-15 4.81733 8.47212)
(3.80245e-15 6.68874 8.68194)
(4.29671e-15 6.9539 7.9671)
(5.68558e-15 1.79382 4.69908)
(6.83547e-15 -4.38032 -0.0404898)
(4.30708e-15 -5.90024 -0.432622)
(1.79083e-15 -4.70534 -1.08358)
(1.17077e-16 -1.93994 -2.0963)
(-3.6995e-15 -4.07958 1.60255)
(-3.18492e-15 -4.98977 1.72561)
(-2.62607e-15 -5.57908 1.71631)
(-1.88637e-15 -6.15641 1.74092)
(-1.0405e-15 -6.67049 1.72019)
(-3.90134e-16 -6.71958 1.87811)
(2.87469e-17 -4.79269 1.50792)
(2.25931e-15 0.686259 3.05548)
(4.07003e-15 0.669904 5.70582)
(4.29919e-15 1.27476 7.27201)
(2.93993e-15 2.70563 8.68106)
(1.48476e-15 4.5727 9.48986)
(1.45837e-15 6.75008 9.97616)
(2.90483e-15 7.63745 9.81804)
(4.82467e-15 3.50842 7.37489)
(6.37678e-15 -3.21872 2.11114)
(4.67208e-15 -5.46752 1.1682)
(2.19426e-15 -4.35805 0.124541)
(6.55878e-16 -1.54765 -2.62565)
(-3.6717e-15 -4.10987 1.63675)
(-3.13774e-15 -5.01088 1.76663)
(-2.56848e-15 -5.58541 1.76437)
(-1.82024e-15 -6.16392 1.80364)
(-9.85957e-16 -6.68621 1.80135)
(-3.59085e-16 -6.73822 1.95833)
(4.6262e-17 -4.97467 1.62719)
(1.83137e-15 -0.269495 3.20083)
(2.93671e-15 -0.128489 5.95587)
(1.88115e-15 0.632861 7.78667)
(-5.7566e-16 2.28585 9.06553)
(-2.11912e-15 4.29532 9.57149)
(-1.3708e-15 6.6052 10.159)
(1.0263e-15 7.99414 10.7676)
(3.56339e-15 4.91713 9.75075)
(5.6503e-15 -2.32496 4.73334)
(4.81686e-15 -4.94066 2.84195)
(2.46527e-15 -3.29998 1.32168)
(2.04537e-15 0.226051 -0.71871)
(-3.64166e-15 -4.1418 1.67304)
(-3.08748e-15 -5.03447 1.80839)
(-2.507e-15 -5.59578 1.81156)
(-1.75044e-15 -6.17667 1.86186)
(-9.29415e-16 -6.70383 1.87003)
(-3.41036e-16 -6.7462 2.00182)
(-3.76971e-17 -5.12885 1.67206)
(1.18595e-15 -1.18904 2.80914)
(1.75219e-15 -1.0334 5.51649)
(-6.05002e-16 -0.0299887 7.63649)
(-4.15024e-15 2.01526 8.65037)
(-5.42484e-15 4.11275 8.60481)
(-4.08866e-15 6.27548 9.05115)
(-1.13739e-15 7.86133 10.3779)
(1.85911e-15 5.99227 11.2813)
(4.18302e-15 -0.668385 7.46848)
(4.58525e-15 -3.97703 3.84206)
(3.1159e-15 -2.88498 2.92465)
(3.40288e-15 -4.7974 5.89799)
(-3.60925e-15 -4.17487 1.71012)
(-3.03388e-15 -5.05977 1.84959)
(-2.44181e-15 -5.60902 1.85656)
(-1.68057e-15 -6.19225 1.91439)
(-8.77543e-16 -6.71849 1.92614)
(-2.67367e-16 -6.73617 2.02132)
(1.93041e-16 -5.19787 1.68629)
(7.3083e-16 -1.94236 2.4452)
(1.05918e-15 -1.94047 4.83252)
(-1.9644e-15 -0.713714 7.00573)
(-6.26745e-15 1.92385 7.80368)
(-7.03515e-15 4.0947 7.36786)
(-5.67736e-15 5.87169 7.47834)
(-2.96088e-15 7.16227 8.98128)
(1.77909e-16 5.9681 11.6747)
(2.10934e-15 0.751232 11.2452)
(2.56828e-15 -2.99336 8.33482)
(1.63254e-15 -3.79411 9.39064)
(3.69835e-16 -4.43973 11.2564)
(-3.57434e-15 -4.20867 1.74691)
(-2.97691e-15 -5.08624 1.88911)
(-2.37309e-15 -5.62413 1.89835)
(-1.60445e-15 -6.20866 1.96042)
(-8.04495e-16 -6.72727 1.96948)
(-3.61185e-16 -6.71036 2.02337)
(-1.40986e-15 -5.21439 1.68969)
(5.40362e-16 -2.54127 2.21846)
(7.6577e-16 -2.75998 4.20046)
(-2.18144e-15 -1.36837 6.34716)
(-6.40169e-15 1.90032 7.34586)
(-6.9008e-15 4.2061 6.95247)
(-5.77182e-15 5.60996 6.6754)
(-3.77766e-15 6.26451 7.64602)
(-9.40267e-16 4.90491 11.011)
(6.30449e-16 0.198065 13.3082)
(9.14984e-17 -3.46822 12.5693)
(1.91027e-16 -4.4106 11.5649)
(1.61347e-15 -3.56833 8.41655)
(-3.5368e-15 -4.24296 1.78259)
(-2.91642e-15 -5.11347 1.92607)
(-2.30025e-15 -5.64029 1.93619)
(-1.52551e-15 -6.22414 1.99935)
(-7.55981e-16 -6.72808 1.99978)
(-3.65779e-16 -6.67151 2.01021)
(-3.348e-16 -5.20857 1.6855)
(4.16344e-16 -3.01898 2.09601)
(6.85031e-16 -3.49425 3.69621)
(-1.88405e-15 -2.10122 5.81458)
(-5.90498e-15 1.7429 7.42049)
(-6.11503e-15 4.34183 7.25029)
(-5.30062e-15 5.57896 6.67891)
(-3.782e-15 5.5438 6.90691)
(-6.63157e-16 3.94639 10.0136)
(6.69137e-16 0.545874 12.1922)
(-1.84352e-16 -2.1355 11.2603)
(1.4843e-15 -1.94111 9.21078)
(1.29797e-14 -0.296856 4.57399)
(-3.49651e-15 -4.27717 1.81641)
(-2.85209e-15 -5.14073 1.95982)
(-2.22324e-15 -5.65632 1.96956)
(-1.44692e-15 -6.23673 2.03077)
(-7.14705e-16 -6.7191 2.0172)
(-3.44687e-16 -6.62167 1.98343)
(-8.46719e-17 -5.19649 1.67249)
(3.44768e-16 -3.40501 2.02556)
(6.71837e-16 -4.15456 3.29663)
(-1.45047e-15 -2.95419 5.31009)
(-5.22731e-15 1.42206 7.44384)
(-5.40171e-15 4.47602 7.36536)
(-4.92549e-15 5.7014 6.66239)
(-3.96706e-15 4.90422 6.37885)
(-6.44971e-16 2.5719 9.4358)
(1.87417e-15 -0.38157 13.4532)
(1.92667e-15 -2.56525 13.101)
(2.36145e-15 -2.33907 12.6513)
(2.99635e-15 0.434124 11.6849)
(-3.45335e-15 -4.3113 1.84798)
(-2.78372e-15 -5.16803 1.98981)
(-2.14268e-15 -5.67179 1.99799)
(-1.37017e-15 -6.24531 2.05427)
(-6.74933e-16 -6.69927 2.02228)
(-3.05657e-16 -6.56215 1.94469)
(-5.81393e-17 -5.18428 1.64737)
(2.98331e-16 -3.71778 1.96518)
(6.55819e-16 -4.72683 2.96252)
(-1.04432e-15 -3.84182 4.75363)
(-4.4952e-15 1.03953 7.09955)
(-4.65308e-15 4.62739 6.99036)
(-4.44609e-15 5.93584 6.27573)
(-4.28758e-15 4.50758 5.51577)
(-1.68278e-15 1.06386 6.73146)
(5.58815e-16 -1.02061 11.8029)
(-3.43461e-17 -1.8877 12.9377)
(-1.34119e-15 -0.0923928 12.7174)
(-2.71161e-15 4.84135 11.926)
(-3.40721e-15 -4.34429 1.87626)
(-2.71136e-15 -5.19397 2.01525)
(-2.05948e-15 -5.68495 2.02079)
(-1.29523e-15 -6.24774 2.06948)
(-6.32637e-16 -6.66736 2.01662)
(-2.58718e-16 -6.49371 1.89729)
(-1.40747e-17 -5.17406 1.6068)
(2.5909e-16 -3.97381 1.88809)
(6.18228e-16 -5.20248 2.67248)
(-6.97654e-16 -4.67446 4.17251)
(-3.73221e-15 0.623422 6.51337)
(-3.91666e-15 4.79001 6.34538)
(-3.89355e-15 6.25715 5.64733)
(-4.43533e-15 4.87079 4.82506)
(-3.2899e-15 -0.0043309 2.61435)
(-3.86183e-17 -2.41349 5.76324)
(-1.50128e-15 -2.64315 7.12555)
(-3.6323e-15 -2.389 4.18934)
(-3.91435e-15 -0.64344 1.82037)
(-3.35827e-15 -4.37701 1.90139)
(-2.63541e-15 -5.21999 2.03557)
(-1.97454e-15 -5.69687 2.03714)
(-1.22146e-15 -6.24508 2.07583)
(-5.87218e-16 -6.6245 2.00169)
(-2.13328e-16 -6.41447 1.84444)
(1.15922e-17 -5.15662 1.54783)
(2.18022e-16 -4.17793 1.78026)
(5.65075e-16 -5.5823 2.42112)
(-4.04958e-16 -5.40954 3.62203)
(-3.01125e-15 0.181684 5.82066)
(-3.30067e-15 4.9722 5.58933)
(-3.42519e-15 6.51376 4.88017)
(-4.25337e-15 5.51489 4.36536)
(-4.88733e-15 1.08663 1.63344)
(-1.35067e-15 -3.02893 -1.02157)
(-1.34677e-15 -2.08274 0.871154)
(-2.05124e-15 0.906033 -1.5)
(-3.40825e-15 2.03014 -4.02238)
(-3.30625e-15 -4.40667 1.92095)
(-2.55662e-15 -5.24179 2.04868)
(-1.88917e-15 -5.70303 2.0451)
(-1.14899e-15 -6.23347 2.07219)
(-5.40497e-16 -6.56956 1.97974)
(-1.75939e-16 -6.32522 1.79093)
(1.96627e-17 -5.13477 1.47211)
(1.762e-16 -4.35422 1.64538)
(5.07431e-16 -5.89303 2.21716)
(-1.59938e-16 -6.04032 3.14267)
(-2.36272e-15 -0.213796 5.08135)
(-2.79932e-15 5.1765 4.77386)
(-3.09549e-15 6.74113 4.13105)
(-3.99751e-15 6.02036 3.7136)
(-4.93252e-15 2.83031 1.68874)
(-3.93478e-15 -1.98631 -3.66229)
(-3.01453e-15 -2.10897 -4.10056)
(-3.51519e-15 -0.0152614 -5.15671)
(-4.45645e-15 1.24976 -4.27657)
(-3.25292e-15 -4.43679 1.93697)
(-2.47703e-15 -5.26592 2.0548)
(-1.80506e-15 -5.71045 2.04406)
(-1.07813e-15 -6.22113 2.05778)
(-4.93381e-16 -6.50944 1.94962)
(-1.46543e-16 -6.21967 1.73614)
(1.69199e-17 -5.08246 1.39181)
(1.40937e-16 -4.49127 1.52448)
(4.53006e-16 -6.13905 2.08846)
(3.38283e-17 -6.54546 2.77264)
(-1.80463e-15 -0.532123 4.35747)
(-2.39827e-15 5.34568 3.94781)
(-2.86838e-15 6.93609 3.53317)
(-3.83736e-15 6.44644 3.11294)
(-4.87557e-15 4.04842 1.56694)
(-5.11819e-15 -0.657328 -2.38293)
(-4.63531e-15 -1.64402 -4.79185)
(-4.87078e-15 0.118004 -5.3533)
(-4.63585e-15 0.994874 -3.62099)
(-3.19415e-15 -4.45963 1.94443)
(-2.39698e-15 -5.27776 2.04517)
(-1.72631e-15 -5.7031 2.02419)
(-1.01455e-15 -6.19246 2.02178)
(-4.51713e-16 -6.43523 1.90406)
(-1.25232e-16 -6.11092 1.68018)
(9.97651e-18 -5.05341 1.32795)
(1.17285e-16 -4.66279 1.46354)
(4.07438e-16 -6.37024 2.04882)
(1.74428e-16 -6.93744 2.53181)
(-1.34305e-15 -0.735921 3.68233)
(-2.08284e-15 5.49129 3.1947)
(-2.72474e-15 7.07447 3.08745)
(-3.71003e-15 6.77886 2.64758)
(-4.81619e-15 4.81094 1.48709)
(-5.17244e-15 0.694613 -0.72672)
(-5.20851e-15 -0.994137 -3.88106)
(-5.19965e-15 -0.184727 -4.31826)
(-4.56609e-15 0.229895 -2.69907)
(-3.15143e-15 -4.48372 1.9477)
(-2.33184e-15 -5.29908 2.03647)
(-1.65855e-15 -5.70915 2.00624)
(-9.56717e-16 -6.18087 1.98871)
(-4.11022e-16 -6.37784 1.86109)
(-1.03007e-16 -5.99329 1.63212)
(1.25795e-17 -4.96944 1.30978)
(1.1011e-16 -4.7595 1.52498)
(3.70331e-16 -6.52726 2.12305)
(2.62742e-16 -7.18706 2.42286)
(-9.86178e-16 -0.824971 3.04079)
(-1.85609e-15 5.639 2.66511)
(-2.63484e-15 7.18043 2.70811)
(-3.60402e-15 7.03343 2.30958)
(-4.76934e-15 5.27581 1.44537)
(-5.18928e-15 1.74728 0.0827124)
(-5.25971e-15 -0.322369 -2.91233)
(-5.02104e-15 -0.401979 -2.9895)
(-4.59833e-15 -0.260578 -1.69942)
(-3.05451e-15 -4.49679 1.93541)
(-2.23442e-15 -5.29143 1.95841)
(-1.58815e-15 -5.67394 1.8937)
(-9.09712e-16 -6.12069 1.83293)
(-3.77081e-16 -6.27682 1.69692)
(-8.01281e-17 -5.8947 1.52972)
(1.64484e-17 -5.04555 1.44839)
(1.13367e-16 -5.05195 1.86917)
(3.45338e-16 -6.74418 2.34965)
(3.3152e-16 -7.32663 2.49819)
(-6.68838e-16 -0.774877 2.5956)
(-1.7397e-15 5.51981 2.44794)
(-2.57604e-15 7.28072 2.39197)
(-3.52861e-15 7.36307 2.10523)
(-4.73474e-15 5.84635 1.4484)
(-5.19303e-15 2.87891 0.627926)
(-5.07155e-15 -0.0188575 -1.55377)
(-4.64072e-15 -0.552735 -1.31851)
(-4.56049e-15 -0.373514 -0.99592)
(4.22272e-16 2.45794 4.17542)
(1.31436e-15 13.5068 23.1256)
(1.18066e-15 19.8927 33.111)
(9.50683e-16 20.3548 33.0763)
(8.06186e-16 18.6974 29.5021)
(8.92271e-16 17.0787 25.993)
(7.88947e-16 15.745 23.2286)
(6.23507e-16 14.7787 21.1547)
(4.19594e-16 13.9324 19.3511)
(2.22238e-16 13.0756 17.6356)
(-3.12448e-17 12.1748 15.9411)
(-3.25378e-16 11.2256 14.2622)
(-6.92104e-16 10.2317 12.615)
(-1.13982e-15 9.20364 11.0089)
(-1.69614e-15 8.12796 9.44894)
(-2.35561e-15 7.01187 7.91227)
(-3.12121e-15 5.78329 6.38204)
(-4.06431e-15 4.50196 4.76629)
(-4.90481e-15 2.7953 2.97005)
(-7.79164e-15 1.1203 0.249843)
(-2.29948e-16 3.58672 5.14976)
(1.01837e-15 15.0948 23.0699)
(1.05214e-15 20.3605 31.8213)
(9.31145e-16 20.0732 31.5769)
(8.99666e-16 18.2451 28.651)
(1.26155e-15 16.8261 26.1045)
(1.43979e-15 15.8232 24.1627)
(1.40977e-15 14.9365 22.3372)
(1.34082e-15 13.9792 20.4334)
(1.28683e-15 12.9321 18.4215)
(1.31652e-15 11.8025 16.3385)
(1.26596e-15 10.6078 14.2154)
(1.29651e-15 9.35108 12.0768)
(1.22794e-15 8.03843 9.92935)
(1.07505e-15 6.63984 7.78321)
(9.06358e-16 5.17599 5.59504)
(3.82391e-16 3.51207 3.4019)
(-6.58387e-16 1.91983 1.03941)
(-1.44931e-15 -0.593711 -1.66015)
(-6.63959e-15 -1.51547 -4.79957)
(-2.71923e-17 11.6602 19.6366)
(2.99829e-16 20.9265 32.56)
(3.17029e-16 21.2369 33.193)
(3.32949e-16 19.4624 30.5678)
(3.35805e-16 17.9347 28.4941)
(7.9343e-16 16.949 26.8482)
(8.73489e-16 15.8784 25.1589)
(9.21792e-16 14.6801 23.1862)
(9.90555e-16 13.3043 21.0328)
(1.14082e-15 11.8439 18.7578)
(1.42667e-15 10.2953 16.4078)
(1.8281e-15 8.67285 13.9795)
(2.42403e-15 6.9587 11.4731)
(3.25851e-15 5.14019 8.86685)
(4.90732e-15 3.16319 6.14134)
(6.68242e-15 1.07699 3.27804)
(5.18318e-15 -1.14531 0.320133)
(4.94027e-16 -2.56846 -2.50816)
(-3.12839e-15 -4.37322 -4.92141)
(-8.71711e-15 -3.50455 -7.91569)
(9.40006e-18 15.5096 27.2429)
(-7.47808e-17 20.3156 33.8776)
(-8.84882e-17 17.045 29.6669)
(-8.95558e-17 15.4419 27.1409)
(-1.2803e-16 14.4926 26.3389)
(2.996e-16 13.5958 25.1034)
(3.90981e-16 12.1734 23.2855)
(5.07771e-16 10.593 21.0101)
(6.37065e-16 8.8561 18.6093)
(9.45535e-16 7.10283 16.12)
(1.44975e-15 5.27754 13.5678)
(2.22842e-15 3.41699 10.9346)
(3.45487e-15 1.52199 8.24179)
(5.49913e-15 -0.354598 5.51152)
(9.00012e-15 -2.06778 2.93296)
(1.12584e-14 -3.32232 0.921125)
(8.24997e-15 -3.98117 -0.497565)
(2.1956e-15 -4.01202 -1.4767)
(-1.71653e-15 -2.73845 -0.95053)
(-2.38827e-15 -0.243602 1.11466)
(-1.17453e-18 14.4431 25.8297)
(1.53517e-17 16.9968 30.083)
(1.81169e-17 14.5086 26.5982)
(1.76511e-17 13.3252 24.7238)
(-3.60215e-17 12.1435 23.5144)
(-2.03443e-16 10.9211 21.9945)
(-2.0695e-16 9.35681 20.1264)
(-2.38737e-16 7.7059 17.9325)
(-2.81543e-16 5.9513 15.6061)
(-2.99024e-16 4.17919 13.1693)
(-2.03894e-16 2.39422 10.7093)
(-2.29965e-17 0.697677 8.3358)
(-1.13293e-16 -0.786638 6.22372)
(-9.15258e-16 -1.84643 4.60536)
(-2.34147e-15 -2.19115 3.82357)
(-3.49827e-15 -1.44319 4.43906)
(-3.46196e-15 0.776208 7.08742)
(-2.16034e-15 4.3513 11.4358)
(-4.5608e-16 7.71812 15.0143)
(4.40592e-16 6.37892 12.6949)
(-2.62546e-20 12.2201 21.5773)
(-2.01875e-18 16.9486 29.8633)
(-2.15186e-18 14.9822 26.3482)
(-1.06113e-18 13.1475 22.8684)
(1.49114e-17 11.736 20.8328)
(4.73885e-17 10.714 19.0821)
(4.01997e-17 9.53677 17.3901)
(3.48756e-17 8.39584 15.4665)
(2.0319e-17 7.16841 13.4226)
(9.17857e-18 5.97254 11.2504)
(4.04098e-17 4.84719 9.10614)
(8.6156e-17 3.96293 7.24413)
(-5.26835e-17 3.53601 6.08448)
(-5.46298e-16 3.79148 6.06555)
(-1.10551e-15 4.82144 7.37618)
(-1.2078e-15 6.33594 9.68658)
(-7.00646e-16 8.1239 12.5594)
(1.4032e-16 9.4936 15.2204)
(6.61005e-16 9.9898 15.9417)
(3.22586e-16 7.15143 12.783)
(4.18194e-20 11.6143 20.2423)
(4.91799e-20 17.9611 30.8682)
(-5.95717e-20 16.0377 27.8024)
(-2.65277e-19 14.2048 23.845)
(-2.36106e-18 12.7336 21.5576)
(-7.07571e-18 11.9598 19.7114)
(-5.31132e-18 11.1171 18.2411)
(-3.15552e-18 10.4465 16.7608)
(3.83116e-19 9.77497 15.3458)
(5.09272e-18 9.17849 13.9349)
(5.59246e-18 8.63294 12.522)
(-1.90779e-18 8.12624 11.0873)
(-7.80675e-18 7.6684 9.68074)
(8.54868e-18 7.28291 8.46162)
(6.62876e-17 7.06395 7.70277)
(1.84976e-16 7.06017 7.70327)
(3.64994e-16 7.27457 8.47597)
(5.14986e-16 7.3815 9.57974)
(4.30432e-16 6.86065 9.87552)
(5.51241e-17 4.62776 7.2618)
(-1.69461e-20 12.0327 20.8729)
(8.74841e-20 18.822 31.6606)
(1.4757e-19 16.6835 28.7538)
(1.96711e-19 14.983 24.8201)
(3.28302e-19 13.537 22.7111)
(5.01466e-19 12.8517 20.9002)
(-8.49556e-20 12.0191 19.4103)
(-7.50693e-19 11.3238 17.8892)
(-1.53953e-18 10.6098 16.4502)
(-2.38795e-18 9.93689 15.0637)
(-2.6775e-18 9.29044 13.7326)
(-1.95659e-18 8.66263 12.4427)
(-1.17852e-18 8.04395 11.1713)
(-2.2775e-18 7.42571 9.90738)
(-6.22452e-18 6.79645 8.67566)
(-1.45731e-17 6.18106 7.55166)
(-3.48281e-17 5.53347 6.66019)
(-8.0244e-17 4.89735 5.9153)
(-1.45246e-16 3.72072 4.98028)
(-1.80185e-16 1.69825 1.52187)
(5.21358e-21 13.1447 22.9231)
(-4.15229e-20 19.6455 32.4526)
(-6.48319e-20 16.8532 29.1315)
(-8.02914e-20 15.4881 25.3816)
(-6.04171e-20 14.0155 23.5858)
(8.75175e-20 13.4381 21.7715)
(2.96782e-19 12.514 20.2998)
(4.77285e-19 11.8077 18.7123)
(6.50638e-19 11.0286 17.2234)
(8.08511e-19 10.2912 15.7324)
(8.97036e-19 9.53897 14.2581)
(9.33042e-19 8.76962 12.7851)
(1.05878e-18 7.97202 11.3202)
(1.35279e-18 7.1494 9.86278)
(1.55105e-18 6.27186 8.41089)
(1.29185e-18 5.35685 6.91963)
(8.48854e-19 4.28233 5.38855)
(1.26833e-18 3.15658 3.62042)
(8.75301e-18 1.25697 1.45791)
(-2.62723e-17 -0.255021 -2.25813)
(-1.37114e-21 14.8849 26.3569)
(1.44587e-20 20.2556 32.8897)
(2.22113e-20 16.7102 29.3078)
(2.7089e-20 16.0729 26.0513)
(1.73107e-20 14.4926 24.6167)
(-4.78092e-20 14.1142 22.7292)
(-1.16728e-19 13.0727 21.3187)
(-1.64448e-19 12.4696 19.7058)
(-1.99272e-19 11.6841 18.2608)
(-2.29487e-19 10.9865 16.7291)
(-2.59549e-19 10.2012 15.1509)
(-3.03031e-19 9.34815 13.4573)
(-3.67949e-19 8.38586 11.6623)
(-4.14314e-19 7.32156 9.77452)
(-3.26623e-19 6.13107 7.82809)
(3.77621e-20 4.86436 5.80238)
(7.64817e-19 3.3981 3.72354)
(1.87914e-18 1.86651 1.28514)
(5.47398e-18 -0.539989 -1.37865)
(5.97953e-18 -1.70083 -5.11941)
(3.26537e-22 16.5516 30.0851)
(-4.60246e-21 20.1506 32.4082)
(-6.88097e-21 16.3013 29.4545)
(-8.28833e-21 16.5175 26.7991)
(-5.67302e-21 14.6606 25.6729)
(1.39419e-20 14.5537 23.7175)
(3.43447e-20 13.3279 22.4843)
(4.66916e-20 12.9272 20.9046)
(5.23932e-20 12.091 19.6016)
(5.65721e-20 11.4776 18.0657)
(6.51054e-20 10.6221 16.4239)
(8.12933e-20 9.65883 14.4829)
(9.64429e-20 8.44591 12.281)
(8.9239e-20 7.04948 9.86044)
(3.56906e-20 5.49652 7.35623)
(-7.46964e-20 3.86121 4.74851)
(-2.80548e-19 2.016 2.14086)
(-3.7334e-19 0.229105 -0.839434)
(1.92277e-18 -2.38746 -3.6695)
(1.07037e-17 -2.963 -7.38414)
(-6.64243e-23 17.2819 32.2807)
(1.43154e-21 19.1318 30.8484)
(1.99831e-21 15.7004 29.3388)
(2.31216e-21 16.2826 26.9824)
(1.53963e-21 14.1281 26.0129)
(-4.06718e-21 14.135 24.0705)
(-9.49055e-21 12.6816 23.0461)
(-1.29599e-20 12.3729 21.5473)
(-1.5639e-20 11.3441 20.4259)
(-1.58769e-20 10.7043 18.9074)
(-8.03268e-21 9.5839 17.2)
(4.27288e-21 8.30043 14.8644)
(1.91016e-21 6.53871 12.0003)
(-1.83211e-20 4.62221 8.85793)
(-3.51584e-20 2.74479 5.83403)
(-3.98719e-20 0.690887 2.65096)
(-2.53557e-19 -1.44676 -0.482859)
(-9.67825e-19 -1.67395 -2.21339)
(2.39822e-18 -4.6074 -5.4252)
(1.3605e-17 -3.95832 -8.10572)
(7.48521e-24 16.7522 31.7716)
(-4.31631e-22 18.0436 29.2733)
(-5.77026e-22 14.9968 28.4358)
(-6.85529e-22 15.4087 26.0406)
(-3.19164e-22 13.23 25.0749)
(1.46614e-21 13.0476 23.1839)
(2.91762e-21 11.5601 22.1365)
(2.66545e-21 11.0276 20.6951)
(1.40475e-21 9.91255 19.5727)
(5.16409e-21 9.06687 18.1229)
(1.98434e-20 7.7834 16.3726)
(2.95238e-20 6.22834 13.8643)
(-2.75801e-21 4.24098 10.7426)
(-9.07168e-20 2.27107 7.55778)
(-2.30575e-19 0.539765 4.82579)
(-3.09496e-19 -1.0683 2.29297)
(2.94762e-19 -2.82202 -0.627155)
(2.51206e-18 -4.20416 -3.39216)
(6.21574e-18 -3.90348 -3.68078)
(7.03217e-18 -1.13911 -0.55578)
(1.80383e-24 15.8909 30.3967)
(1.19493e-22 17.7695 28.3496)
(1.47344e-22 14.2707 27.3372)
(1.52048e-22 14.9625 24.6613)
(1.9878e-23 12.5129 23.774)
(-3.3141e-22 12.4407 21.6579)
(-5.09073e-22 10.7817 20.5206)
(-8.33756e-22 10.1793 18.8939)
(-1.28501e-21 8.97794 17.6642)
(1.30488e-21 8.08887 16.2348)
(1.03999e-20 6.89821 14.6769)
(1.43567e-20 5.55035 12.5711)
(-2.23117e-20 3.91504 9.89316)
(-1.39718e-19 2.25085 6.91413)
(-3.55196e-19 0.757522 4.10341)
(-5.9219e-19 -0.240611 2.10608)
(-5.87628e-19 -0.011898 2.11046)
(-2.47673e-19 1.88591 4.5487)
(-1.68945e-19 4.52381 7.96967)
(-6.86217e-19 4.25207 8.47964)
(-6.05719e-25 15.674 30.3558)
(-3.01474e-23 18.2414 28.2235)
(-3.92631e-23 14.2937 27.3045)
(-4.00773e-23 15.4912 24.3345)
(1.96408e-23 12.878 23.5151)
(1.96517e-22 13.0734 21.2132)
(4.02984e-22 11.4503 19.9761)
(6.56264e-22 10.9585 18.1679)
(8.83159e-22 9.86707 16.7399)
(5.19227e-22 9.11014 15.1952)
(-6.9798e-22 8.23262 13.781)
(-1.21884e-21 7.45033 12.3507)
(-1.9463e-21 6.65751 10.8558)
(-1.14328e-20 5.86797 9.19752)
(-3.66361e-20 5.11126 7.43865)
(-8.29346e-20 4.43455 5.79826)
(-1.31083e-19 4.11521 4.72899)
(-1.85064e-19 3.86064 4.27141)
(-2.89146e-19 3.57696 4.08173)
(-3.84172e-19 2.55623 3.20815)
(1.24053e-25 15.8077 31.1383)
(5.48924e-24 18.7348 28.6877)
(4.76514e-24 14.6303 27.9534)
(1.02901e-23 15.928 25.0551)
(3.80428e-23 13.4961 24.17)
(1.05115e-22 13.5825 22.0542)
(2.25695e-22 12.2652 20.7471)
(3.48733e-22 11.7279 19.097)
(4.04382e-22 10.8896 17.6602)
(3.64284e-22 10.2063 16.1849)
(5.27786e-23 9.50623 14.7526)
(-9.08053e-22 8.82908 13.3289)
(-1.62237e-21 8.15249 11.8971)
(1.62944e-21 7.43634 10.3981)
(1.28433e-20 6.59864 8.72498)
(2.67812e-20 5.53289 6.74097)
(4.70373e-20 4.25777 4.70942)
(6.5284e-20 2.82851 2.47131)
(2.80194e-21 0.715153 -0.145332)
(-2.18743e-19 -0.597792 -3.08317)
(-1.26725e-25 15.5999 31.6143)
(-2.51206e-24 18.7162 28.454)
(-3.26916e-24 14.4071 28.1673)
(8.30951e-24 15.7941 25.3885)
(5.71953e-23 13.4066 24.5296)
(1.61993e-22 13.423 22.579)
(2.91959e-22 12.2004 21.3317)
(3.54655e-22 11.6773 19.8164)
(2.09438e-22 10.9119 18.4981)
(-1.78514e-22 10.3106 17.1593)
(-4.28244e-22 9.69908 15.8647)
(3.1963e-22 9.10543 14.5317)
(2.45817e-21 8.43872 13.0682)
(4.236e-21 7.58393 11.2913)
(2.52408e-21 6.33268 8.9482)
(1.94028e-21 4.51209 5.83524)
(8.12677e-21 2.49288 2.85264)
(2.05698e-20 0.710783 0.29357)
(2.94005e-20 -1.8238 -2.43771)
(-1.93193e-19 -2.27106 -6.11532)
(-8.97273e-26 14.4287 31.0998)
(-6.20051e-25 18.2494 27.9211)
(-4.13657e-26 13.5539 27.8134)
(1.27706e-23 14.5062 25.4466)
(5.71144e-23 12.4346 24.5134)
(1.42626e-22 12.0004 22.9212)
(2.33262e-22 10.9121 21.7175)
(2.27353e-22 10.2146 20.4105)
(3.48922e-24 9.44002 19.2169)
(-3.91127e-22 8.78496 18.0367)
(-4.55698e-22 8.14649 16.888)
(7.42798e-22 7.51606 15.6731)
(3.29158e-21 6.76737 14.215)
(3.81813e-21 5.70011 12.1486)
(-1.23279e-21 3.93426 8.84893)
(8.71708e-21 1.09022 3.65682)
(7.48486e-20 -1.88247 -2.12588)
(1.01044e-19 -2.75794 -3.92922)
(-1.08251e-20 -3.66774 -4.74135)
(-1.72584e-19 -2.69051 -5.7811)
(-4.98805e-26 11.2933 28.6713)
(-2.94827e-25 16.9905 25.0779)
(2.35417e-25 12.0011 25.4799)
(6.27626e-24 12.608 23.797)
(2.72215e-23 10.8594 23.0732)
(6.85718e-23 10.1675 22.0093)
(1.11621e-22 9.15013 21.1191)
(9.86743e-23 8.3478 20.1952)
(-4.38793e-23 7.54833 19.312)
(-2.98303e-22 6.82757 18.4368)
(-4.06316e-22 6.14565 17.5669)
(6.74678e-23 5.4869 16.6506)
(1.06988e-21 4.79177 15.5774)
(9.12487e-22 3.98283 14.1652)
(-3.88383e-21 2.99896 12.2215)
(-1.55053e-20 1.89758 9.63656)
(-3.00767e-20 0.872709 6.5093)
(-4.32631e-20 -0.00653959 3.26976)
(-6.27311e-20 -0.920632 0.155388)
(-7.10083e-20 -1.21767 -1.97581)
(6.56812e-27 2.60553 17.0698)
(3.41996e-26 8.04229 13.6689)
(-2.60538e-26 5.16435 14.5284)
(-1.71055e-25 4.97591 14.1399)
(5.44569e-25 4.05137 14.1041)
(4.62804e-24 3.4842 13.9348)
(1.40175e-23 2.90486 13.7826)
(2.2353e-23 2.42923 13.5986)
(8.27301e-25 2.01418 13.397)
(-1.12074e-22 1.67265 13.1753)
(-3.86912e-22 1.40398 12.9427)
(-8.08586e-22 1.21754 12.7129)
(-1.13578e-21 1.12242 12.5013)
(-8.88067e-22 1.13503 12.3015)
(3.08853e-22 1.26826 12.0689)
(2.14666e-21 1.47579 11.7516)
(3.58004e-21 1.77911 11.2493)
(3.7983e-21 2.46225 10.2621)
(2.93936e-21 2.67984 8.7963)
(1.17871e-21 -0.165371 6.64824)
(-1.07959e-26 -2.60545 17.0696)
(-4.32633e-26 -8.04227 13.6687)
(6.02904e-26 -5.16434 14.5282)
(3.16024e-25 -4.97592 14.1397)
(-3.6808e-25 -4.0514 14.1039)
(-4.81314e-24 -3.48424 13.9346)
(-1.50683e-23 -2.9049 13.7824)
(-2.40432e-23 -2.42927 13.5984)
(-9.56784e-25 -2.01422 13.3967)
(1.17538e-22 -1.67269 13.175)
(3.98466e-22 -1.40407 12.9425)
(8.09199e-22 -1.21773 12.713)
(1.07311e-21 -1.12277 12.5016)
(6.74e-22 -1.13554 12.302)
(-7.53383e-22 -1.26885 12.0695)
(-2.80801e-21 -1.47634 11.7519)
(-4.3097e-21 -1.7795 11.2493)
(-4.40119e-21 -2.46235 10.2619)
(-3.31026e-21 -2.67975 8.79597)
(-1.29252e-21 0.165503 6.64794)
(5.88991e-26 -11.2933 28.671)
(3.83086e-25 -16.9901 25.0777)
(-2.45889e-25 -12.0009 25.4798)
(-7.76033e-24 -12.6077 23.797)
(-3.36331e-23 -10.859 23.0733)
(-8.44056e-23 -10.167 22.0094)
(-1.38689e-22 -9.14955 21.1193)
(-1.32643e-22 -8.3471 20.1955)
(1.21148e-23 -7.5475 19.3124)
(2.71921e-22 -6.82661 18.4373)
(3.71728e-22 -6.1445 17.5674)
(-1.15027e-22 -5.48542 16.651)
(-1.01283e-21 -4.78978 15.5772)
(-3.23063e-22 -3.98028 14.164)
(5.81215e-21 -2.99634 12.2198)
(1.95554e-20 -1.8961 9.63545)
(3.61254e-20 -0.873204 6.51041)
(5.0293e-20 0.00456403 3.27347)
(7.04695e-20 0.919055 0.158109)
(7.77958e-20 1.21686 -1.97293)
(1.14746e-25 -14.4292 31.1004)
(8.15715e-25 -18.2495 27.9221)
(3.25283e-26 -13.5543 27.8144)
(-1.64317e-23 -14.5063 25.4478)
(-7.24009e-23 -12.4348 24.5147)
(-1.79171e-22 -12.0005 22.9227)
(-2.94278e-22 -10.9122 21.7192)
(-3.03145e-22 -10.2147 20.4123)
(-7.36566e-23 -9.44014 19.219)
(3.38112e-22 -8.78512 18.0391)
(3.9592e-22 -8.14664 16.8906)
(-8.45278e-22 -7.51595 15.6755)
(-3.28253e-21 -6.76639 14.2162)
(-2.9175e-21 -5.69725 12.1468)
(4.28259e-21 -3.92801 8.84152)
(-4.92539e-21 -1.0812 3.6439)
(-7.71812e-20 1.88747 -2.13218)
(-1.07021e-19 2.75929 -3.92785)
(1.41852e-20 3.67173 -4.748)
(1.86866e-19 2.69446 -5.78489)
(1.51581e-25 -15.6008 31.6161)
(3.08684e-24 -18.7171 28.4552)