/*--------------------------------*- C++ -*----------------------------------*\
| =========                 |                                                 |
| \\      /  F ield         | OpenFOAM: The Open Source CFD Toolbox           |
|  \\    /   O peration     | Version:  4.1                                   |
|   \\  /    A nd           | Web:      www.OpenFOAM.org                      |
|    \\/     M anipulation  |                                                 |
\*---------------------------------------------------------------------------*/
FoamFile
{
    version     2.0;
    format      ascii;
    class       volScalarField;
    location    "29";
    object      p;
}
// * * * * * * * * * * * * * * * * * * * * * * * * * * * * * * * * * * * * * //

dimensions      [0 2 -2 0 0 0 0];

internalField   nonuniform List<scalar> 
1280
(
0.49076
1.30528
2.2077
2.52807
3.72182
3.96661
3.9364
3.92753
4.02491
4.44765
4.19026
4.25786
4.06758
3.05186
3.28898
1.75966
-0.606753
-1.21822
-5.21034
-12.655
-8.9767
7.17062
27.0321
32.6547
32.9793
36.4834
3.18495
22.2064
22.1186
21.1431
20.0283
18.6023
16.8814
14.7904
12.8765
11.1754
11.3474
12.0806
15.358
12.6405
-37.4429
-2.75098
7.88296
11.9038
27.215
25.8401
26.6849
27.93
30.083
29.1862
29.135
29.7377
24.5841
21.7437
20.4474
21.9446
0.430916
-3.74101
-16.9711
-61.2199
2.12572
5.75567
3.05085
3.3068
4.09039
6.81929
9.63417
12.5511
15.096
17.4331
19.333
21.2487
23.0651
-0.458525
44.2803
41.0312
41.1462
35.1239
15.0255
-0.531517
-2.61187
5.72942
10.6475
14.016
16.4183
19.6362
19.8452
19.5387
18.8259
18.4872
16.0291
15.2907
13.4547
9.2932
8.2951
8.54501
5.09396
-1.80085
-3.55908
3.08806
0.0294189
0.201459
-0.0860502
-0.27425
-0.259825
-0.104635
0.136772
0.412161
0.675548
0.895488
1.23547
1.99466
3.36225
4.91679
5.24565
3.925
1.59207
0.361696
0.421888
0.0557621
0.43567
-0.615153
-0.952861
-0.951845
-0.761579
-0.447982
0.102715
0.806542
1.7968
3.42237
6.29969
9.80569
13.7512
14.3722
10.6186
4.60249
1.67896
2.10124
-0.297657
0.119251
-0.954909
-1.26188
-1.22634
-0.999456
-0.625598
0.0683398
0.98991
2.35923
4.53079
8.25957
12.7245
18.1906
19.6458
15.207
6.98348
2.43786
3.29512
-0.910394
-0.734219
-1.44348
-1.72106
-1.60399
-1.29007
-0.810271
0.0602952
1.20899
2.9246
5.59783
10.1697
15.7374
23.1016
25.7655
20.6239
9.60349
2.71011
3.58517
-1.92669
-2.04856
-2.11156
-2.35865
-2.09905
-1.68093
-1.09752
-0.0423324
1.34346
3.42798
6.66009
12.1902
18.9925
28.6584
32.7868
26.0036
12.113
1.52159
2.27953
-3.2519
-3.73765
-2.91168
-3.06411
-2.61562
-2.07369
-1.39318
-0.173281
1.41276
3.80758
7.50186
13.8439
21.7298
33.831
39.7868
30.8771
13.024
-3.78167
-3.06361
-4.62139
-5.44135
-3.8263
-3.82472
-3.18618
-2.48963
-1.70794
-0.337503
1.4142
4.05498
8.10325
15.081
23.8862
38.7355
47.5768
35.8324
13.1001
-8.8148
-12.0711
-5.45999
-6.72104
-4.77317
-4.59831
-3.81715
-2.94698
-2.05966
-0.551054
1.33358
4.15729
8.44933
15.8467
25.1798
41.6542
51.5427
39.6876
14.475
-3.4949
-1.201
-5.91541
-7.56872
-5.65506
-5.31951
-4.47604
-3.43727
-2.44404
-0.811117
1.17004
4.10181
8.50476
16.013
25.5751
44.9984
50.0684
38.8205
17.3288
9.39863
45.7886
-6.09529
-8.03023
-6.36108
-5.9368
-5.11905
-3.94542
-2.85632
-1.11583
0.926082
3.88511
8.24461
15.4831
24.453
40.9399
40.2165
31.7252
17.7064
17.3571
48.9191
-6.03578
-8.13795
-6.83951
-6.41172
-5.69216
-4.44075
-3.28208
-1.45914
0.610567
3.52138
7.69384
14.3385
22.1804
34.5218
31.9243
24.5773
17.0662
18.5976
48.4501
-5.77123
-7.96016
-7.07039
-6.70291
-6.13415
-4.87673
-3.69343
-1.82841
0.235254
3.0338
6.90985
12.7717
19.3299
28.4448
22.344
13.0076
12.5921
21.061
54.5178
-5.35749
-7.62632
-7.07345
-6.78626
-6.38964
-5.19359
-4.04095
-2.19002
-0.171828
2.46312
5.96766
10.9324
15.9484
21.3514
7.04048
0.601727
8.93152
21.82
18.2162
-4.83864
-7.19564
-6.86054
-6.65263
-6.43198
-5.35395
-4.28946
-2.51904
-0.591336
1.83867
4.91825
8.9298
12.3102
14.784
-3.79943
1.11918
8.45239
18.3375
7.51928
-4.30465
-6.7598
-6.47802
-6.28945
-6.21235
-5.28193
-4.35325
-2.73547
-0.957054
1.22405
3.86038
7.00082
8.97822
9.59231
-12.2082
-2.69194
7.00129
16.6434
9.70605
-3.81808
-6.23233
-5.94334
-5.74513
-5.79874
-5.03544
-4.27295
-2.8633
-1.27604
0.6389
2.83371
5.14037
5.81584
5.39835
-16.119
-8.20264
5.2395
13.1685
9.2397
-3.48675
-5.4035
-5.19743
-4.88315
-4.99998
-4.39758
-3.81981
-2.68429
-1.37392
0.18975
1.91202
3.61573
3.72785
3.3907
-14.0183
-11.3356
3.78478
10.4006
7.83491
-3.03148
-4.10384
-4.44587
-4.02364
-4.22149
-3.78497
-3.38154
-2.52149
-1.4699
-0.185682
1.16458
2.23524
1.43135
0.531667
-8.61201
-11.4143
3.2152
7.70584
5.93774
-2.95661
-2.53114
-3.06449
-2.41006
-2.5083
-2.19851
-1.95564
-1.44642
-0.840391
-0.156921
0.473183
1.12297
1.41187
2.36687
-0.58153
-11.438
2.0393
5.20061
3.88856
-0.973551
-0.612968
-1.77256
-1.6117
-1.7842
-1.72448
-1.6354
-1.4023
-1.04858
-0.512838
0.151433
0.42037
-1.26518
-4.53498
-1.67635
-10.5806
-0.499449
1.47244
1.51398
112.519
112.453
110.452
109.293
106.944
104.707
102.212
99.8098
97.306
95.0207
92.9703
91.1607
89.6338
88.3619
87.3619
86.5219
85.9313
85.4104
85.2323
84.3923
69.2019
71.4618
71.0191
71.8629
72.3711
73.1205
73.8398
74.5036
75.1753
75.7882
76.3875
76.9626
77.5263
78.0878
78.6635
79.2972
79.9618
80.7876
81.4066
82.2221
57.5114
59.5685
60.3296
61.4295
62.2835
63.0362
63.8351
64.5061
65.1858
65.8163
66.4317
67.0438
67.659
68.3064
68.9763
69.7389
70.5019
71.4719
72.1923
73.314
25.2491
28.0259
31.2909
34.3075
36.9576
39.1925
41.391
43.3631
45.2628
47.0293
48.685
50.2361
51.6752
53.0274
54.2632
55.4522
56.4911
57.6157
58.401
59.5493
5.08144
6.61348
9.66092
12.0935
14.4124
16.2982
18.3318
20.2364
22.2163
24.2075
26.2521
28.3652
30.5389
32.784
35.0208
37.2774
39.3586
41.4969
43.1448
45.703
-3.64065
-5.61229
-6.52419
-8.11557
-9.13531
-10.6674
-11.8591
-13.3273
-14.5618
-15.7073
-16.5281
-16.9569
-16.8484
-16.0675
-14.565
-12.3005
-9.67885
-6.70846
-4.46331
-0.860808
17.7203
11.8865
9.33359
5.55258
2.68672
-0.970024
-4.13276
-7.70411
-10.9554
-14.2655
-17.4288
-20.5532
-23.5161
-26.1957
-28.3479
-29.908
-30.7551
-30.797
-30.7854
-28.5344
68.2243
62.4872
59.8468
55.5343
52.6382
48.5718
45.1742
41.247
37.855
34.544
31.8023
29.4735
27.7612
26.617
26.0553
25.8488
25.7017
25.4769
24.0498
20.6628
110.316
109.276
109.54
108.723
109.054
108.331
108.316
107.474
106.668
105.128
103.047
100.015
95.9757
90.9911
85.6829
80.8236
77.2134
75.673
75.426
71.8634
91.4558
93.0101
93.9804
94.3887
95.7823
96.169
97.4101
98.0657
98.9976
99.6886
100.395
100.977
101.408
101.507
101.111
100.111
98.8842
97.6616
97.5484
96.9483
78.7017
80.6678
82.4755
82.9191
85.0375
85.5888
87.1861
88.0306
89.0822
89.8416
90.4638
90.932
91.3397
91.8384
92.6121
93.7241
95.081
96.4994
97.5518
98.5223
53.3687
55.29
57.7218
57.9934
60.756
61.4015
63.5123
64.7986
66.4592
67.9855
69.5196
71.0387
72.5214
73.9885
75.4367
76.9482
78.4534
80.1476
81.487
83.1757
27.4038
28.3304
31.1833
30.7655
33.8982
34.0893
36.4492
37.5819
39.4289
41.0635
42.8452
44.6806
46.5773
48.5642
50.5951
52.7358
54.8257
57.1136
58.9087
61.6667
1.94144
0.569743
3.05294
1.02048
3.36478
1.85628
3.16293
2.59418
3.08553
3.0486
3.26489
3.50342
3.97992
4.84163
6.10585
7.90407
9.99768
12.9298
15.1423
18.6788
2.47702
-1.19481
0.295611
-3.11084
-2.04638
-4.81659
-4.87346
-6.84098
-7.76879
-9.36096
-10.6701
-12.0323
-13.1203
-13.9249
-14.4772
-14.7584
-14.7321
-14.2742
-13.8456
-11.6136
30.3987
25.6573
27.0398
22.1853
23.0319
19.619
19.1294
16.979
15.8375
14.2597
13.0119
11.7561
10.72
9.81884
9.01731
8.06603
6.83571
5.69142
3.74568
3.79116
67.9525
63.7683
66.4378
60.1418
61.0126
56.9933
55.7953
53.2604
51.5352
49.6563
48.0851
46.6821
45.5492
44.6455
43.8988
43.231
42.6206
41.5623
40.0254
38.2155
53.888
47.9204
56.7971
50.6385
53.5507
51.0773
50.7844
49.2135
47.9891
46.5068
45.1069
43.7652
42.6043
41.654
40.9586
40.5345
40.3303
40.6012
41.1675
41.998
60.4452
38.3662
46.5052
35.6944
33.0682
26.6198
21.8248
16.7139
12.272
8.28429
4.98095
2.42749
0.735571
-0.00403841
0.379233
1.82619
4.05189
7.55398
11.7694
14.611
749.613
666.967
617.797
561.636
512.716
465.589
421.83
380.572
341.811
305.254
270.717
237.989
206.854
177.22
149.074
121.616
95.0231
73.3493
49.0552
13.5123
773.844
691.197
642.026
585.864
536.942
489.814
446.055
404.796
366.034
329.477
294.94
262.212
231.079
201.446
173.302
145.846
119.255
97.5846
73.2945
37.7501
84.6688
62.5871
70.7239
59.9105
57.2817
50.8308
46.0334
40.9203
36.4764
32.487
29.1822
26.6276
24.9347
24.1942
24.5765
26.0228
28.2482
31.7472
35.9576
38.8001
78.1175
72.1479
81.0218
74.8611
77.771
75.2958
75.0011
73.4289
72.2033
70.7202
69.3199
67.9782
66.8175
65.8676
65.1729
64.7505
64.5481
64.8218
65.3931
66.2347
92.2225
88.0399
90.7086
84.4136
85.2857
81.2683
80.0726
77.5405
75.8184
73.9429
72.3752
70.9754
69.8452
68.943
68.197
67.5291
66.9179
65.8588
64.3236
62.5146
54.7002
49.9617
51.3444
46.491
47.3393
43.9285
43.4413
41.2939
40.1558
38.5819
37.3384
36.0872
35.0551
34.1569
33.3574
32.4082
31.1771
30.0186
28.0569
28.0806
26.7358
23.0617
24.5469
21.1356
22.1938
19.4191
19.3548
17.3797
16.4428
14.8402
13.5191
12.1434
11.0404
10.2196
9.65153
9.35422
9.36504
9.81339
10.2359
12.4631
26.0806
24.701
27.1777
25.1383
27.4746
25.9577
27.2559
26.6774
27.1596
27.1125
27.3193
27.5489
28.0181
28.8751
30.1373
31.9369
34.0342
36.9614
39.1676
42.6994
51.5048
52.4264
55.2772
54.8564
57.9871
58.1753
60.5337
61.6642
63.5101
65.1435
66.9247
68.7599
70.6569
72.6446
74.6768
76.8192
78.911
81.2008
82.9973
85.7585
77.4629
79.3836
81.8161
82.0879
84.8513
85.4973
87.6089
88.8957
90.5569
92.0836
93.618
95.1372
96.6201
98.0875
99.5365
101.049
102.555
104.25
105.59
107.28
102.812
104.777
106.584
107.027
109.144
109.693
111.289
112.132
113.183
113.943
114.567
115.042
115.459
115.97
116.755
117.874
119.232
120.649
121.7
122.674
115.576
117.138
118.115
118.531
119.933
120.329
121.581
122.25
123.196
123.903
124.623
125.215
125.649
125.742
125.329
124.306
123.065
121.84
121.731
121.137
134.588
133.566
133.837
133.03
133.367
132.649
132.635
131.79
130.977
129.427
127.331
124.28
120.221
115.219
109.9
105.035
101.422
99.8714
99.6227
96.0733
92.75
87.0284
84.3903
80.0871
77.1985
73.1404
69.7504
65.8311
62.4466
59.1429
56.407
54.082
52.3701
51.2217
50.6509
50.4332
50.2775
50.0492
48.6236
45.221
42.4796
36.6376
34.0574
30.2573
27.3711
23.6953
20.5118
16.9198
13.6465
10.3141
7.1282
3.98176
0.999077
-1.69617
-3.85726
-5.41903
-6.26601
-6.31146
-6.30523
-4.08417
21.0737
19.0833
18.0957
16.4517
15.3822
13.8046
12.5686
11.0593
9.78642
8.60753
7.75891
7.3085
7.40202
8.17379
9.6722
11.935
14.5553
17.5218
19.768
23.3622
30.1408
31.5919
34.5406
36.9059
39.1591
40.9892
42.969
44.8257
46.761
48.712
50.7204
52.801
54.9457
57.1644
59.3774
61.6108
63.6722
65.7889
67.4221
69.9516
49.1491
51.9117
55.1465
58.1455
60.7756
62.9885
65.1661
67.1195
69.001
70.7509
72.3908
73.9272
75.3518
76.6896
77.9102
79.0817
80.1016
81.1995
81.9628
83.0743
82.9924
84.9203
85.5138
86.4775
87.2146
87.8633
88.5598
89.1353
89.7163
90.2492
90.7649
91.2759
91.7885
92.3322
92.8975
93.5535
94.213
95.0739
95.7162
96.739
90.7891
93.1697
92.6575
93.4561
93.9198
94.6347
95.3247
95.9489
96.5853
97.1566
97.7181
98.2623
98.802
99.3496
99.9162
100.545
101.201
102.013
102.619
103.407
140.22
140.154
138.245
137.076
134.67
132.269
129.63
127.087
124.247
121.62
119.221
117.045
115.14
113.483
112.093
110.849
109.837
108.804
108.177
106.635
)
;

boundaryField
{
    outletWall
    {
        type            fixedValue;
        value           uniform 0;
    }
    fineWalls
    {
        type            zeroGradient;
    }
    fineFrontAndBack
    {
        type            zeroGradient;
    }
    fineplugLeft
    {
        type            cyclicAMI;
        value           nonuniform List<scalar> 
20
(
70.0419
71.2574
70.7444
71.0145
71.4526
72.4648
73.6476
75.0833
76.649
78.3819
80.2452
82.2685
84.2891
90.9516
91.062
92.1513
93.965
93.768
91.3962
88.2201
)
;
    }
    fineplugRight
    {
        type            cyclicAMI;
        value           nonuniform List<scalar> 
20
(
85.733
87.6929
87.6537
88.5308
89.4971
91.0381
92.7129
94.6225
96.655
98.863
101.162
103.648
106.282
114.838
114.671
115.942
117.89
117.621
115.129
112.069
)
;
    }
    inletOutletLeft
    {
        type            cyclicAMI;
        value           nonuniform List<scalar> 
20
(
70.0419
71.2574
70.7444
71.0145
71.4526
72.4648
73.6476
75.0833
76.649
78.3819
80.2452
82.2685
84.2891
90.9516
91.062
92.1513
93.965
93.768
91.3962
88.2201
)
;
    }
    inletLeft
    {
        type            zeroGradient;
    }
    inletWallsLeft
    {
        type            zeroGradient;
    }
    inletFacesLeft
    {
        type            zeroGradient;
    }
    inletOutletRight
    {
        type            cyclicAMI;
        value           nonuniform List<scalar> 
20
(
85.733
87.6929
87.6537
88.5308
89.4971
91.0381
92.7129
94.6225
96.655
98.863
101.162
103.648
106.282
114.838
114.671
115.942
117.89
117.621
115.129
112.069
)
;
    }
    inletRight
    {
        type            zeroGradient;
    }
    inletWallsRight
    {
        type            zeroGradient;
    }
    inletFacesRight
    {
        type            zeroGradient;
    }
}


// ************************************************************************* //
