/*--------------------------------*- C++ -*----------------------------------*\
| =========                 |                                                 |
| \\      /  F ield         | OpenFOAM: The Open Source CFD Toolbox           |
|  \\    /   O peration     | Version:  4.1                                   |
|   \\  /    A nd           | Web:      www.OpenFOAM.org                      |
|    \\/     M anipulation  |                                                 |
\*---------------------------------------------------------------------------*/
FoamFile
{
    version     2.0;
    format      ascii;
    class       surfaceScalarField;
    location    "29";
    object      phi;
}
// * * * * * * * * * * * * * * * * * * * * * * * * * * * * * * * * * * * * * //

dimensions      [0 3 -1 0 0 0 0];

internalField   nonuniform List<scalar> 
2360
(
-3710.54
-2042.92
-1667.62
-2042.91
-2042.92
37.1104
-2080.03
37.1046
37.1059
37.1007
2368.05
-2330.95
2368.05
2368.05
4863.35
-2495.3
4863.36
4863.35
7714.05
-2850.69
7714.04
7714.05
11763.8
-4049.74
11763.8
11763.8
12445.2
14065.4
15764.2
17306.9
18679.1
19918.9
15766.3
5317.73
16848.7
17860.5
18803.2
19675.3
20473.3
21193.1
21837.7
22427.3
23011.8
23658.1
24414.6
25250.6
25946.1
12642.8
13303.3
12642.8
12642.8
12642.8
2887.15
9755.7
2887.15
2887.14
2887.14
-920.856
3808
-920.86
-920.865
-6763.09
5842.22
-6763.09
-6763.09
-6763.09
-16521.8
9758.72
-16521.8
-16521.8
-16521.8
-28482.2
11960.3
-27769.5
-26937.8
-26188.7
-25543.7
-24948.5
-24338.1
-23668.5
-22925.7
-22110.1
-21225.9
-20276.2
-19262.2
-18181.5
-20095.2
3078.78
-18858.5
-17487.4
-15943.3
-14252.5
-12673.8
-12060.9
-12060.9
-12060.9
-5648.82
-6412.12
-5648.82
-5648.82
860.919
-6509.74
860.918
860.918
6209.84
-5348.92
6209.84
6209.84
10470
-4260.12
10470
10470
10470
14248.2
-3778.27
14248.2
14248.2
17928.8
-3680.58
-89.9254
-4438.09
-82.2446
5814.52
-270.927
8650.06
-422.433
10774.5
-561.381
12580.5
-704.734
14471.2
-866.739
16230.6
-1009.05
18130.9
-1112.24
19895.8
-1134.7
22000.7
-1032.42
24559.9
-749.359
26467.4
-336.138
25630.4
273.163
22625.3
1067.27
15834.6
1949.46
7096.51
2777.48
1326.62
3443.82
-1956.92
-4785.44
179.14
-4339.11
31.6451
5962.02
-245.909
8927.61
-423.878
10952.4
-577.68
12734.3
-728.996
14622.5
-899.712
16401.3
-1049.7
18280.8
-1164.45
20010.6
-1207.91
22044.2
-1133.16
24485.2
-867.517
26201.8
-455.835
25218.8
245.068
21924.4
1281.71
14798
2542.96
5835.26
3718.71
150.87
4123.1
-2361.31
-4440.61
463.188
-4206.57
213.758
6211.45
-206.567
9347.94
-436.566
11182.4
-607.5
12905.2
-770.395
14785.4
-952.449
16583.4
-1116.54
18444.9
-1251.31
20145.3
-1325.99
22118.9
-1287.24
24446.4
-1053.2
25967.8
-651.019
24816.6
149.898
21123.5
1494.34
13453.5
3282.89
4046.72
4735.92
-1302.17
5129.2
-2754.59
-3571.53
770.697
-4043.83
441.941
6540.2
-114.41
9904.29
-453.764
11521.8
-655.385
13106.9
-832.091
14962.1
-1025.98
16777.3
-1206.75
18625.7
-1366.26
20304.9
-1478.57
22231.2
-1485.44
24453.3
-1301.04
25783.3
-932.669
24448.2
-41.0894
20231.9
1672.11
11740.4
4054.8
1664.02
5983.88
-3231.25
6601.48
-3372.19
-2318.97
961.079
-3812.46
615.899
6885.38
17.6325
10502.6
-451.915
11991.3
-718.313
13373.3
-916.643
15160.4
-1123.37
16984
-1322.4
18824.7
-1511.6
20494.1
-1668.87
22388.4
-1732.77
24517.2
-1619.16
25669.7
-1315.48
24144.5
-341.378
19257.8
1896.95
9502.02
5008.8
-1447.83
7435.9
-5658.35
8083.45
-4019.74
-745.26
971.693
-3496.94
639.771
7217.3
103.299
11039
-423.935
12518.6
-777.969
13727.3
-1018.7
15401.1
-1244.82
17210.1
-1463.65
19043.6
-1686.05
20716.5
-1894.22
22596.6
-2025.51
24648.5
-2006.93
25651.2
-1804.27
23941.9
-766.075
18219.7
2410.26
6325.69
5817.9
-4855.47
7493.51
-7333.95
7355.07
-3881.3
197.691
721.58
-3074.17
442.974
7495.91
59.0944
11422.9
-401.175
12978.8
-818.575
14144.7
-1125.26
15707.8
-1387.76
17472.6
-1630.83
19286.6
-1887.69
20973.3
-2150.11
22859
-2357.75
24856.1
-2464.33
25757.7
-2428.46
23906
-1421.78
17213
1978.27
2925.63
3256.63
-6133.83
2135.26
-6212.59
1383.57
-3129.6
4660.04
89.5294
-2489.31
-40.6362
7626.07
-170.908
11553.2
-450.354
13258.3
-858.343
14552.7
-1229.14
16078.6
-1547.2
17790.7
-1824.49
19563.9
-2116.24
21265.1
-2432.36
23175.1
-2723.16
25146.9
-2985.75
26020.3
-3091.1
24011.3
-1806.81
15928.7
-1694.24
2813.07
-5428.91
-2399.16
-7412.42
-4229.08
-8451.86
-2090.16
8168.53
-933.743
-1954.93
-827.11
7519.44
-629.463
11355.5
-656.086
13284.9
-959.066
14855.7
-1347.14
16466.7
-1720.91
18164.5
-2043.79
19886.8
-2372.28
21593.6
-2737.12
23540
-3113.86
25523.6
-3533.5
26440
-3866.34
24344.2
-4461.16
16523.5
-8588.94
6940.84
-12973.8
1985.71
-13762.9
-3439.97
-13038.1
-2814.94
4889.11
-2142.61
-1577.07
-1832.49
7209.31
-1328.03
10851.1
-1084.67
13041.5
-1198.61
14969.6
-1522.86
16790.9
-1917.56
18559.2
-2287.18
20256.4
-2655.53
21961.9
-3061.22
23945.7
-3512.27
25974.7
-4044.16
26971.9
-4608.76
24908.8
-6256.49
18171.2
-10184.1
10868.4
-12225.4
4027.09
-11877.2
-3788.2
-10609.7
-4082.45
121.629
-3421.12
-1331.52
-2960.71
6748.91
-2238.54
10128.9
-1752.36
12555.4
-1631.19
14848.4
-1809.37
16969.1
-2160.58
18910.4
-2556.58
20652.4
-2964.22
22369.6
-3402.1
24383.6
-3902.32
26474.9
-4491.42
27561
-5241.22
25658.6
-7298.46
20228.5
-10989.8
14559.7
-13172.8
6210.14
-12784.7
-4176.37
-10070.7
-6796.45
-6141.03
-4683.77
-1198.85
-4132.03
6197.17
-3291.51
9288.39
-2617.87
11881.7
-2264.18
14494.7
-2244.21
16949.1
-2481.86
19148
-2861.26
21031.8
-3296.01
22804.3
-3757.31
24844.9
-4277.81
26995.4
-4887.62
28170.8
-5812.19
26583.2
-8212.79
22629.1
-12052.6
18399.5
-13600.5
7758.09
-12764.6
-5012.31
-12600.1
-6960.94
-8985.43
-5873.82
-1173.16
-5274.12
5597.47
-4399.51
8413.78
-3608.29
11090.5
-3063.74
13950.2
-2835.7
16721.1
-2909.53
19221.9
-3218.33
21340.6
-3652.34
23238.3
-4124.88
25317.4
-4637.35
27507.9
-5240.47
28773.9
-6310.22
27652.9
-8693.54
25012.4
-10842.7
20548.7
-7622.91
4538.32
-4456.51
-8178.71
-7937.02
-3480.44
-3619.14
-6976.72
-1273.5
-6332.44
4953.19
-5482.55
7563.89
-4644.64
10252.6
-3970.92
13276.5
-3562.06
16312.3
-3455.29
19115.1
-3646.45
21531.8
-4039.62
23631.5
-4502.07
25779.9
-4980.61
27986.4
-5557.36
29350.6
-6716.14
28811.7
-8807.47
27103.7
-9252.45
20993.7
-4468.86
-245.263
-1100.52
-11547.1
-305.426
-4275.53
1393.17
-8025.46
-1539.21
-7301.28
4229.01
-6505.68
6768.29
-5673.64
9420.55
-4928.55
12531.4
-4384.74
15768.4
-4110.53
18840.9
-4157.06
21578.3
-4468.41
23942.8
-4893.58
26205
-5321.32
28414.2
-5848.19
29877.5
-6960.43
29923.9
-8484.12
28627.4
-7453.59
19963.1
-2965.44
-4733.41
-1181.11
-13331.4
1182.81
-6639.44
-1473.75
-9097.63
-2032.72
-8197.4
3328.78
-7450.6
6021.49
-6660.81
8630.76
-5892.48
11763
-5264.34
15140.3
-4855.91
18432.5
-4756.2
21478.6
-4956.44
24143.1
-5313.57
26562.2
-5667.49
28768.1
-6093.32
30303.3
-6995.73
30826.3
-7850.6
29482.3
-5812.46
17925
-2050.03
-8495.84
-628.635
-14752.8
1026.82
-8294.89
-3297.62
-10316.9
-2753.21
-9138.36
2150.23
-8369.85
5252.98
-7619.84
7880.74
-6847.8
10991
-6170.66
14463.2
-5663.2
17925
-5433.92
21249.3
-5512.94
24222.1
-5777.91
26827.1
-6035.18
29025.3
-6314.85
30583
-6899.27
31410.8
-7039.63
29622.6
-4055.11
14940.5
-1084.4
-11466.6
-293.561
-15543.6
1141.26
-9729.71
-4651.66
-11681.1
-3574.51
-10203.6
672.723
-9302.75
4352.13
-8599.47
7177.47
-7857.99
10249.5
-7180.01
13785.2
-6625.93
17370.9
-6302.18
20925.6
-6253
24172.9
-6364.1
26938.2
-6434.82
29096.1
-6509.22
30657.4
-6805.2
31706.7
-6333.15
29150.6
-2574.11
11181.4
-57.5446
-13983.1
278.755
-15879.9
1340.55
-10791.5
-5642.06
-13232.9
-4025.19
-11688.9
-871.292
-10292.6
2955.79
-9426.36
6311.26
-8641.01
9464.17
-7948.85
13093
-7371.62
16793.7
-6968.95
20522.9
-6767.51
23971.5
-6684.47
26855.2
-6632.75
29044.4
-6772.42
30797.1
-7033.38
31967.7
-5825.79
27943
-1732.9
7088.55
349.052
-16065.1
754.105
-16285
1474.81
-11512.2
-6247.27
-14457.2
-13793.3
-12489.9
-11497.8
-10585.3
-9781.09
-9099
-8559.9
-8185.3
-7982.48
-7980.95
-8149.23
-7783.65
-5259.93
-1150.25
513.545
999.265
1497.8
9.39256
-690.844
239.641
-1850.39
451.657
-1910.82
608.086
-1699.14
728.721
-1492.81
825.267
-1336.38
874.705
-1214.54
909.513
-1117.2
927.548
-1029.84
930.1
-945.232
919.358
-861.344
898.47
-777.084
870.315
-691.695
833.646
-607.881
781.018
-536.926
699.445
-502.927
578.922
-525.819
417.466
-595.066
226.65
-645.165
-468.875
-49.3823
-641.453
-71.7315
-1828.04
-23.8527
-1958.69
29.3733
-1752.36
82.4109
-1545.84
134.621
-1388.58
193.664
-1273.58
252.341
-1175.87
309.655
-1087.15
366.408
-1001.98
424.123
-919.053
484.766
-837.718
550.279
-757.203
618.652
-676.248
678.085
-596.355
699.571
-524.409
647.423
-473.67
495.33
-442.971
264.787
-414.62
-204.088
-151.941
-489.504
-191.734
-1788.24
-97.4495
-2052.97
11.5894
-1861.39
107.909
-1642.15
195.743
-1476.41
277.988
-1355.81
354.804
-1252.68
423.367
-1155.71
480.966
-1059.57
525.814
-963.896
557.439
-869.337
577.058
-776.817
587.079
-686.263
588.085
-597.356
571.762
-508.082
519.855
-421.761
408.724
-331.838
222.883
-228.775
18.7956
-53.2924
-436.205
-94.7776
-1746.75
-41.2136
-2106.53
38.3398
-1940.94
116.888
-1720.69
195.35
-1554.86
274.323
-1434.78
350.331
-1328.68
419.13
-1224.5
476.718
-1117.15
519.873
-1007.05
546.329
-895.788
554.859
-785.344
545.185
-676.586
518.095
-570.263
473.395
-463.378
406.666
-355.029
305.696
-230.865
156.196
-79.2682
174.992
289.098
-725.296
391.891
-1849.54
414.048
-2128.68
440.016
-1966.9
492.34
-1773.01
564.674
-1627.19
646.868
-1516.97
727.529
-1409.33
798.887
-1295.86
854.829
-1173.09
892.098
-1044.31
908.074
-911.759
900.159
-777.426
865.481
-641.904
801.435
-506.213
705.56
-367.5
577.444
-226.911
410.806
-64.2232
205.795
125.748
380.786
550.571
-1275.87
782.276
-2081.25
745.322
-2091.73
688.041
-1909.62
695.02
-1779.99
744.253
-1676.42
812.994
-1585.72
877.953
-1474.29
928.182
-1346.09
957.041
-1201.95
964.208
-1051.48
947.824
-895.376
904.014
-733.615
826.593
-564.484
709.833
-389.453
549.599
-207.265
362.895
-40.2055
199.27
99.4033
51.6249
273.396
432.411
408.199
-1684.07
458.766
-2131.81
307.862
-1940.83
187.076
-1788.83
125.081
-1718
87.6013
-1638.95
55.9321
-1554.04
11.7764
-1430.14
-49.6119
-1284.7
-126.213
-1125.35
-211.553
-966.138
-303.835
-803.092
-402.688
-634.759
-505.071
-462.098
-601.372
-293.149
-672.598
-136.035
-697.015
-15.7856
-645.056
47.4484
-434.555
62.8983
-2.14329
25.1346
-1709.2
-124.698
-1981.99
-291.452
-1774.07
-435.536
-1644.75
-575.944
-1577.59
-724.246
-1490.65
-879.837
-1398.45
-1042.51
-1267.47
-1210.43
-1116.78
-1381.45
-954.33
-1554.28
-793.302
-1724.38
-632.994
-1879.47
-479.672
-1995.87
-345.69
-2034.45
-254.574
-1937.6
-232.885
-1660.56
-292.818
-1189.11
-424.002
-550.186
-576.023
-552.329
-186.032
-1523.17
-272.114
-1895.9
-344.586
-1701.6
-468.594
-1520.74
-618.489
-1427.69
-791.205
-1317.93
-969.047
-1220.61
-1137.89
-1098.62
-1285.41
-969.257
-1408.94
-830.802
-1506.52
-695.715
-1570.74
-568.78
-1588.2
-462.212
-1541.17
-392.72
-1411.93
-383.808
-1187.41
-457.401
-866.376
-613.852
-486.948
-803.428
-162.051
-900.918
-714.38
-66.1175
-1457.05
-16.8128
-1945.2
30.6075
-1749.02
40.0436
-1530.18
37.4523
-1425.1
22.7046
-1303.18
6.90849
-1204.82
3.72164
-1095.44
26.318
-991.855
82.1656
-886.651
171.775
-785.327
292.593
-689.6
435.82
-605.44
584.228
-541.129
708.707
-508.288
767.893
-516.588
716.782
-562.741
536.867
-623.514
266.368
-630.419
-448.013
40.2186
-1497.27
91.8719
-1996.86
146.163
-1803.31
198.52
-1582.53
253.908
-1480.49
311.186
-1360.46
370.548
-1264.18
435.584
-1160.47
508.587
-1064.86
594.104
-972.166
691.832
-883.054
798.691
-796.457
904.87
-711.62
993.035
-629.292
1036.9
-552.157
1005.92
-485.608
877.614
-434.434
643.907
-389.809
336.944
-323.46
-111.069
128.866
-1626.14
170.553
-2038.55
210.819
-1843.58
262.721
-1634.44
325.803
-1543.58
386.197
-1420.86
448.916
-1326.9
510.102
-1221.66
569.964
-1124.72
625.479
-1027.69
674.822
-932.401
715.772
-837.411
746.325
-742.177
762.881
-645.852
758.939
-548.219
721.026
-447.699
631.923
-345.333
473.231
-231.12
246.421
-96.6566
135.353
184.226
-1810.37
194.98
-2049.3
228.871
-1877.47
281.441
-1687.01
349.509
-1611.65
412.777
-1484.13
482.638
-1396.76
553.104
-1292.13
628.697
-1200.32
704.722
-1103.71
776.723
-1004.4
834.906
-895.595
868.279
-775.551
867.461
-645.035
827.772
-508.533
746.539
-366.468
622.177
-220.975
448.648
-57.5948
228.052
123.934
363.405
174.749
-1985.12
142.314
-2016.87
169.773
-1904.94
214.718
-1731.96
274.119
-1671.05
332.939
-1542.95
403.809
-1467.64
480.605
-1368.93
568.805
-1288.52
661.56
-1196.47
750.454
-1093.3
816.453
-961.597
841.741
-800.842
819.372
-622.67
752.413
-441.577
637.249
-251.308
437.926
-21.6567
273.97
106.355
130.964
266.934
494.369
69.2146
-2054.33
-6.09217
-1941.57
-22.1554
-1888.88
-30.6305
-1723.49
-33.7527
-1667.93
-31.8061
-1544.9
-23.6037
-1475.84
-7.61546
-1384.92
15.4964
-1311.64
40.6923
-1221.67
56.1052
-1108.72
44.9815
-950.478
2.70462
-758.571
-52.7178
-567.254
-99.3481
-394.958
-127.574
-223.107
-63.3117
-85.9474
-94.68
137.71
-144.732
316.979
349.637
-32.249
-2022.09
-108.651
-1865.17
-164.721
-1832.81
-222.044
-1666.17
-282.922
-1607.06
-339.63
-1488.2
-401.893
-1413.58
-462.444
-1324.37
-526.784
-1247.3
-591.893
-1156.56
-658.315
-1042.3
-718.86
-889.936
-759.962
-717.47
-768.883
-558.336
-750.44
-413.402
-722.212
-251.339
-734.702
-73.4573
-663.699
66.7062
-517.395
170.674
-167.759
-57.1114
-1964.98
-133.784
-1788.5
-195.942
-1770.65
-255.985
-1606.13
-317.684
-1545.36
-373.333
-1432.55
-433.58
-1353.33
-493.25
-1264.7
-555.613
-1184.94
-612.322
-1099.86
-649.279
-1005.34
-644.054
-895.163
-585.14
-776.385
-483.746
-659.732
-356.423
-540.727
-207.435
-400.329
-54.8612
-226.037
14.6407
-2.803
58.398
126.911
-109.361
-131.88
-1833.1
-298.789
-1621.59
-424.92
-1644.52
-517.325
-1513.72
-599.291
-1463.4
-654.816
-1377.02
-698.917
-1309.23
-727.245
-1236.38
-743.506
-1168.68
-742.169
-1101.19
-713.671
-1033.84
-645.799
-963.036
-535.882
-886.302
-393.865
-801.751
-227.889
-706.704
-37.4504
-590.77
165.491
-428.981
343.646
-180.961
359.641
110.915
250.28
-184.151
-1648.95
-414.351
-1391.39
-658.457
-1400.42
-858.128
-1314.05
-1047.73
-1273.79
-1202.86
-1221.9
-1333.87
-1178.22
-1436.03
-1134.22
-1512.4
-1092.31
-1562.5
-1051.1
-1586.07
-1010.27
-1580.75
-968.352
-1543.36
-923.696
-1470.62
-874.493
-1359.36
-817.962
-1201.23
-748.897
-977.402
-652.81
-664.408
-493.956
-297.954
-255.54
-47.6742
-673.95
-1090.34
-1515.76
-1854.81
-2153.6
-2400.5
-2603.72
-2762.94
-2880.25
-2956.35
-2991.62
-2984.97
-2933.67
-2833.16
-2676.12
-2450.02
-2127.83
-1646.79
-927.326
-673.964
1648.96
-1090.37
1391.41
-1515.81
1400.44
-1854.88
1314.08
-2153.7
1273.82
-2400.63
1221.93
-2603.88
1178.25
-2763.14
1134.25
-2880.48
1092.35
-2956.62
1051.13
-2991.92
1010.3
-2985.29
968.377
-2934.01
923.718
-2833.53
874.517
-2676.52
817.992
-2450.45
748.926
-2128.24
652.795
-1647.07
493.824
-927.377
255.311
47.6229
-184.161
1833.12
-414.361
1621.61
-658.47
1644.55
-858.133
1513.74
-1047.72
1463.41
-1202.83
1377.03
-1333.82
1309.24
-1435.94
1236.37
-1512.27
1168.67
-1562.32
1101.18
-1585.86
1033.83
-1580.53
963.047
-1543.14
886.337
-1470.45
801.819
-1359.26
706.808
-1201.23
590.893
-977.503
429.068
-664.65
180.97
-298.335
-111.004
-250.712
-131.815
1964.94
-298.656
1788.45
-424.713
1770.6
-517.024
1606.05
-598.891
1545.28
-654.302
1432.45
-698.28
1353.22
-726.47
1264.56
-742.584
1184.78
-741.092
1099.69
-712.452
1005.19
-644.487
895.082
-534.572
776.421
-392.644
659.89
-226.822
540.986
-36.6656
400.735
165.779
226.622
343.604
3.14478
359.084
-126.485
108.372
-57.0272
2021.97
-133.641
1865.06
-195.726
1832.69
-255.704
1666.03
-317.332
1606.91
-372.919
1488.03
-433.105
1413.4
-492.722
1324.18
-555.029
1247.09
-611.664
1156.33
-648.497
1042.03
-643.098
889.683
-584.021
717.344
-482.506
558.376
-355.04
413.52
-205.8
251.495
-52.8482
73.6688
16.4818
-66.1864
59.8647
-169.869
168.237
-32.3536
2054.32
-108.755
1941.46
-164.877
1888.81
-222.285
1723.43
-283.262
1667.88
-340.091
1544.86
-402.512
1475.82
-463.248
1384.92
-527.811
1311.65
-593.154
1221.67
-659.781
1108.65
-720.426
950.327
-761.496
758.413
-770.324
567.203
-751.867
395.063
-723.505
223.132
-734.398
84.5623
-663.204
-137.381
-516.621
-316.452
-348.384
68.982
1985.34
-6.41686
2016.86
-22.6196
1905.01
-31.2553
1732.07
-34.5532
1671.18
-32.7781
1543.09
-24.7621
1467.81
-8.95892
1369.11
13.9569
1288.74
38.9519
1196.67
54.1585
1093.45
42.8763
961.609
0.601398
800.688
-54.5604
622.365
-100.588
441.09
-128.143
250.686
-65.962
22.3793
-96.9405
-106.403
-146.086
-267.307
-494.47
174.699
1810.64
142.153
2049.4
169.551
1877.61
214.441
1687.18
273.785
1611.84
332.554
1484.32
403.387
1396.97
480.155
1292.35
568.338
1200.55
661.063
1103.95
749.888
1004.62
815.74
895.757
840.803
775.624
818.163
645.005
750.849
508.403
635.285
366.249
436.964
220.699
273.392
57.1688
130.537
-124.453
-363.933
184.366
1626.27
195.051
2038.72
228.915
1843.75
281.481
1634.61
349.561
1543.76
412.842
1421.03
482.73
1327.08
553.229
1221.85
628.87
1124.91
704.951
1027.87
777.006
932.566
835.217
837.547
868.575
742.266
867.7
645.88
827.927
548.177
746.603
447.573
622.197
345.105
448.617
230.748
228.016
96.1479
-135.917
129.076
1497.19
170.727
1997.07
210.946
1803.53
262.827
1582.73
325.912
1480.67
386.292
1360.65
449
1264.38
510.168
1160.68
570.019
1065.06
625.519
972.367
674.834
883.25
715.739
796.642
746.205
711.8
762.616
629.469
758.502
552.29
720.453
485.622
631.315
434.243
472.728
389.334
246.127
322.749
110.21
40.4796
1456.71
92.1242
1945.42
146.386
1749.27
198.798
1530.32
254.275
1425.19
311.667
1303.26
371.149
1204.89
436.278
1095.55
509.299
992.041
594.703
886.963
692.173
785.78
798.656
690.159
904.414
606.042
992.246
541.637
1036.01
508.528
1005.09
516.538
877.029
562.306
643.637
622.726
336.911
629.474
447.121
-65.6892
1522.4
-16.1472
1895.88
31.5676
1701.55
41.3999
1520.49
39.2433
1427.35
24.9907
1317.51
9.71098
1220.17
7.03917
1098.22
30.1181
968.962
86.4206
830.661
176.453
695.748
297.657
568.955
441.204
462.494
589.81
393.031
714.18
384.158
772.699
458.019
720.345
614.66
538.942
804.128
267.239
901.178
714.36
-185.777
1708.18
-271.395
1981.5
-343.303
1773.46
-466.804
1643.99
-616.222
1576.77
-788.466
1489.76
-965.796
1397.51
-1134.05
1266.48
-1280.87
1115.78
-1403.52
953.314
-1500.06
792.294
-1563.17
632.064
-1579.59
478.913
-1531.75
345.189
-1402.11
254.524
-1177.78
233.685
-857.954
294.834
-481.018
427.193
-159.481
579.641
554.879
25.1886
1682.99
-124.505
2131.2
-291.268
1940.22
-435.4
1788.12
-575.875
1717.24
-724.336
1638.22
-880.146
1553.32
-1043.06
1429.39
-1211.21
1283.93
-1382.46
1124.56
-1555.52
965.347
-1725.77
802.321
-1880.91
634.054
-1997.2
461.477
-2035.35
292.669
-1937.67
136.014
-1659.34
16.5047
-1186.69
-45.4582
-547.822
-59.2295
7.05687
409.657
1273.34
461.408
2079.44
310.484
2091.15
189.124
1909.48
126.612
1779.76
88.7009
1676.13
56.6094
1585.41
11.9838
1474.02
-49.9245
1345.84
-127.082
1201.72
-213.02
1051.29
-305.929
895.231
-405.412
733.539
-508.45
564.516
-605.41
389.63
-677.154
207.76
-701.647
40.9986
-648.441
-98.6628
-435.792
-271.877
-428.735
555.161
718.176
790.667
1843.94
754.368
2127.45
696.476
1967.37
702.864
1773.37
751.651
1627.34
819.994
1517.06
884.519
1409.49
934.242
1296.12
962.507
1173.46
968.995
1044.8
951.864
912.362
907.276
778.128
829.093
642.698
711.625
507.099
550.877
368.508
363.844
228.032
199.365
65.8173
50.8593
-123.37
-377.876
298.485
419.691
404.524
1737.9
425.646
2106.33
450.006
1943.01
501.358
1722.02
573.166
1555.54
654.932
1435.3
735.122
1329.3
805.949
1225.29
861.305
1118.1
897.972
1008.13
913.395
896.94
905.013
786.51
869.962
677.75
805.617
571.444
709.42
464.705
580.82
356.633
413.505
233.132
207.376
82.7595
-170.501
-41.2602
460.952
-81.0061
1777.65
-27.3632
2052.68
51.5005
1864.15
128.967
1644.55
206.47
1478.04
284.668
1357.1
359.886
1254.09
427.823
1157.35
484.464
1061.46
526.602
965.994
551.896
871.647
559.062
779.345
547.831
688.981
518.927
600.349
472.309
511.323
404.247
424.694
303.444
333.936
156.136
230.068
-14.3646
-135.018
595.971
-173.601
1816.23
-83.2221
1962.3
23.8188
1757.11
119.377
1548.99
206.014
1391.4
286.427
1276.69
361.411
1179.1
428.302
1090.46
484.421
1005.34
527.936
922.479
558.286
841.296
576.314
761.317
583.8
681.495
581.656
602.493
563.344
529.635
512.356
475.683
405.27
441.022
223.911
411.428
209.546
-6.40693
602.378
-17.1609
1826.98
26.2037
1918.94
72.143
1711.17
120.313
1500.83
169.561
1342.15
227.381
1218.87
284.439
1122.05
339.205
1035.7
392.16
952.388
444.49
870.149
497.745
788.041
553.652
705.411
611.431
623.716
662.408
551.516
680.933
511.11
632.339
524.277
487.031
586.33
262.248
636.211
471.794
-10.4388
237.753
465.892
633.003
762.714
868.188
921.993
963.322
985.043
987.723
973.644
946.105
908.725
862.838
803.942
719.871
599.084
436.338
240.863
)
;

boundaryField
{
    outletWall
    {
        type            calculated;
        value           nonuniform List<scalar> 
60
(
17928.8
4548.68
1290.59
-2154.64
-7978.71
-16628.7
-23234.6
-26043.7
-26750.5
-24662.2
-21978.3
-19792.6
-17988.6
-16068.6
-14327.8
-12441.6
-10623
-8461.37
-5822.2
4351.82
14245.1
13683.6
12502.4
11037.4
9591.14
8291.17
7077.06
5848.12
4551.1
3175.57
1764.76
399.36
-674.387
-1144.35
-1287.21
-1192.45
-933.442
-595.728
-278.121
176.197
3710.54
-6417.09
-12010.8
-16770.7
-17728.9
2978.87
25419.3
31602.1
30965.4
29042.8
26652.4
23596.9
19983.8
16111.6
12288.8
8551.69
5319.08
1652.45
-1535.27
-3813.06
)
;
    }
    fineWalls
    {
        type            calculated;
        value           uniform 0;
    }
    fineFrontAndBack
    {
        type            calculated;
        value           nonuniform List<scalar> 
960
(
-1.08505e-13
1.08304e-12
1.59414e-13
-1.554e-13
-9.72249e-16
1.60237e-14
-2.79913e-13
8.03064e-13
-2.39951e-12
-1.35375e-12
-1.60266e-12
-5.88983e-14
1.0526e-12
7.60502e-13
5.03377e-12
1.00207e-12
6.09433e-13
1.80671e-12
-2.42429e-14
-6.01805e-13
-4.38853e-14
-3.60605e-13
-4.39328e-13
-5.15925e-13
-5.41139e-13
-6.2725e-13
-7.03353e-12
-5.61126e-13
-4.86442e-13
-3.92038e-13
-2.58933e-13
-6.88077e-14
1.67636e-13
3.7701e-13
4.72456e-13
3.97477e-13
1.8265e-13
-4.65205e-14
-9.97759e-14
-2.7727e-13
-1.05365e-12
-5.44603e-13
-1.33266e-12
-2.43874e-12
-7.60684e-12
-7.26793e-14
6.43696e-13
-3.38282e-13
4.42719e-11
6.13386e-12
2.14919e-12
1.55989e-11
3.10006e-12
3.0417e-12
2.56857e-12
1.10347e-11
6.62857e-13
-5.79331e-13
-1.40205e-12
-4.87963e-12
3.4718e-13
1.89446e-13
1.88212e-13
6.50139e-14
-4.99428e-14
-7.67364e-14
-3.12907e-14
1.04357e-13
2.8642e-13
4.46658e-13
5.66914e-13
6.48116e-13
7.3687e-13
1.31595e-11
8.86457e-13
8.20428e-13
8.45284e-13
8.51766e-13
8.95572e-13
6.09947e-13
4.76644e-12
4.75788e-12
3.26597e-11
6.53907e-12
7.37859e-12
4.79501e-11
1.16345e-11
1.67046e-11
6.55149e-11
1.06321e-11
9.01043e-12
4.72967e-11
8.71071e-12
8.15851e-12
7.53163e-12
3.73222e-11
6.28801e-12
5.89437e-12
2.88217e-11
6.72989e-12
-1.59957e-13
8.65352e-13
-1.97705e-12
-3.33034e-12
-2.80209e-12
-1.49694e-12
-2.4614e-12
-5.77982e-12
-8.09133e-12
-5.04525e-12
6.21382e-12
2.27801e-11
3.78172e-11
4.61278e-11
4.58874e-11
3.92574e-11
2.90334e-11
2.81542e-11
1.66344e-11
-2.20552e-13
9.60809e-13
-2.03305e-12
-3.33363e-12
-2.76409e-12
-1.49435e-12
-2.53743e-12
-5.88268e-12
-8.09695e-12
-4.83326e-12
6.57849e-12
2.3094e-11
3.79686e-11
4.61374e-11
4.59621e-11
4.01291e-11
3.23198e-11
3.21174e-11
1.83008e-11
-8.03796e-14
1.35186e-12
-1.90371e-12
-3.38994e-12
-2.71215e-12
-1.49313e-12
-2.63976e-12
-6.01642e-12
-8.0969e-12
-4.53843e-12
7.08883e-12
2.35514e-11
3.82099e-11
4.61688e-11
4.60415e-11
4.12311e-11
3.60027e-11
3.68088e-11
1.84935e-11
7.92248e-13
1.63297e-12
-1.21723e-12
-3.41499e-12
-2.67998e-12
-1.48853e-12
-2.75841e-12
-6.1682e-12
-8.08526e-12
-4.17813e-12
7.71218e-12
2.41334e-11
3.85463e-11
4.62311e-11
4.60906e-11
4.24116e-11
3.87788e-11
4.03882e-11
2.02521e-11
2.14804e-12
1.5137e-12
-1.03001e-13
-3.07472e-12
-2.70612e-12
-1.50706e-12
-2.91435e-12
-6.33531e-12
-8.05594e-12
-3.74041e-12
8.46482e-12
2.4862e-11
3.90005e-11
4.63401e-11
4.61197e-11
4.38764e-11
4.06726e-11
4.12775e-11
3.16835e-11
3.9079e-12
1.61579e-12
8.85927e-13
-2.10182e-12
-2.67103e-12
-1.52202e-12
-3.06319e-12
-6.52781e-12
-7.99799e-12
-3.20497e-12
9.36672e-12
2.57511e-11
3.95854e-11
4.64303e-11
4.60364e-11
4.51886e-11
4.20321e-11
4.13417e-11
3.73076e-11
5.85029e-12
2.39583e-12
1.40754e-12
-6.93639e-13
-2.39395e-12
-1.64357e-12
-3.37716e-12
-6.73752e-12
-7.89907e-12
-2.54424e-12
1.04726e-11
2.68907e-11
4.03289e-11
4.67519e-11
4.61984e-11
4.48253e-11
4.16134e-11
3.32821e-11
2.78517e-11
7.78839e-12
3.75186e-12
1.82389e-12
7.67403e-13
-1.69223e-12
-1.60157e-12
-3.2365e-12
-7.00352e-12
-7.73619e-12
-1.72083e-12
1.16912e-11
2.79236e-11
4.11807e-11
4.61413e-11
4.4529e-11
4.41059e-11
3.75082e-11
1.78873e-11
9.12552e-13
9.62476e-12
5.62317e-12
2.84025e-12
2.23773e-12
-3.17946e-13
-1.59553e-12
-4.49356e-12
-7.23525e-12
-7.50497e-12
-7.1778e-13
1.3521e-11
3.08376e-11
4.21037e-11
4.95956e-11
5.23975e-11
4.50626e-11
4.48473e-11
3.57777e-11
2.29216e-11
1.18736e-11
7.93224e-12
4.31452e-12
3.30852e-12
9.0713e-13
-1.09845e-12
-1.40657e-12
-7.5203e-12
-7.13338e-12
6.6222e-13
1.46756e-11
2.73742e-11
4.38364e-11
3.90389e-11
1.18704e-11
4.8939e-11
5.07102e-11
4.17751e-11
2.87308e-11
1.46297e-11
1.14379e-11
6.45876e-12
4.05041e-12
1.56875e-12
-5.66136e-13
-2.59839e-12
-7.67948e-12
-6.57099e-12
2.28181e-12
1.58922e-11
2.7309e-11
4.37007e-11
2.82934e-11
1.60748e-11
6.52934e-11
4.30533e-11
3.93409e-11
6.44319e-11
1.74903e-11
1.65212e-11
1.07441e-11
6.73839e-12
3.35076e-12
5.42338e-13
-3.87799e-12
-7.69991e-12
-5.7405e-12
4.11542e-12
1.78765e-11
3.06243e-11
4.19544e-11
2.28603e-11
1.84866e-11
1.18143e-11
-4.10092e-11
-2.54546e-11
-1.78275e-11
1.96774e-11
2.06585e-11
1.5562e-11
1.12889e-11
6.55542e-12
1.62663e-12
-4.3158e-12
-7.45841e-12
-4.45747e-12
6.28665e-12
2.07027e-11
3.4321e-11
3.9283e-11
1.80532e-11
1.06547e-11
-2.40517e-12
-3.4036e-12
4.64134e-12
-1.87614e-12
2.15169e-11
2.28035e-11
1.72845e-11
1.32019e-11
7.80368e-12
1.19978e-12
-4.99355e-12
-6.58467e-12
-2.50224e-12
8.97914e-12
2.41909e-11
3.73729e-11
3.61078e-11
1.23247e-11
1.42937e-12
-4.05209e-12
5.35105e-12
5.6503e-12
7.58133e-12
2.34032e-11
2.65557e-11
1.83114e-11
1.24084e-11
6.51438e-12
1.1731e-13
-4.71908e-12
-4.67292e-12
2.93268e-13
1.2427e-11
2.82034e-11
3.96834e-11
3.28967e-11
7.01298e-12
-5.04056e-12
-2.40992e-12
3.02693e-12
1.82405e-12
4.70941e-12
2.34982e-11
3.28593e-11
2.39379e-11
1.52679e-11
7.86369e-12
1.77799e-12
-1.91849e-12
-1.31555e-12
4.24851e-12
1.69443e-11
3.26009e-11
4.13058e-11
3.00414e-11
3.45167e-12
-7.98127e-12
-2.76689e-13
2.17336e-12
2.9725e-12
9.03741e-13
1.97692e-11
3.60527e-11
3.23976e-11
2.4174e-11
1.56746e-11
8.7451e-12
4.53751e-12
4.50995e-12
1.02672e-11
2.29493e-11
3.7152e-11
4.20554e-11
2.75188e-11
1.95645e-12
-8.19353e-12
-3.24468e-13
1.57774e-12
2.5069e-12
1.7943e-12
1.36185e-11
3.11075e-11
3.63934e-11
3.34763e-11
2.70128e-11
1.99833e-11
1.4754e-11
1.36814e-11
1.88635e-11
3.00394e-11
4.08674e-11
4.12252e-11
2.49058e-11
2.15775e-12
-6.71775e-12
-1.73491e-12
1.4674e-12
2.5753e-12
1.79208e-12
8.84138e-12
2.03173e-11
3.18512e-11
3.69736e-11
3.66381e-11
3.28724e-11
2.83925e-11
2.6606e-11
3.00191e-11
3.77157e-11
4.34869e-11
3.91731e-11
2.25446e-11
3.77641e-12
-4.22289e-12
-2.2913e-12
1.54255e-12
2.61494e-12
8.96045e-13
6.77958e-12
9.79191e-12
1.78569e-11
2.60667e-11
3.20266e-11
3.52478e-11
3.62003e-11
3.67031e-11
3.83601e-11
4.05916e-11
3.9898e-11
3.25986e-11
1.94879e-11
6.27364e-12
-1.83402e-12
-2.25841e-12
1.64961e-12
2.60794e-12
6.59893e-13
1.08505e-13
-1.08304e-12
-1.59414e-13
1.554e-13
9.72249e-16
-1.60237e-14
2.79913e-13
-8.03064e-13
2.39951e-12
1.35375e-12
1.60266e-12
5.88983e-14
-1.0526e-12
-7.60502e-13
-5.03377e-12
-1.00207e-12
-6.09433e-13
-1.80671e-12
2.42429e-14
6.01805e-13
4.38853e-14
3.60605e-13
4.39328e-13
5.15925e-13
5.41139e-13
6.2725e-13
7.03353e-12
5.61126e-13
4.86442e-13
3.92038e-13
2.58933e-13
6.88077e-14
-1.67636e-13
-3.7701e-13
-4.72456e-13
-3.97477e-13
-1.8265e-13
4.65205e-14
9.97759e-14
2.7727e-13
1.05365e-12
5.44603e-13
1.33266e-12
2.43874e-12
7.60684e-12
7.26793e-14
-6.43696e-13
3.38282e-13
-4.42719e-11
-6.13386e-12
-2.14919e-12
-1.55989e-11
-3.10006e-12
-3.0417e-12
-2.56857e-12
-1.10347e-11
-6.62857e-13
5.79331e-13
1.40205e-12
4.87963e-12
-3.4718e-13
-1.89446e-13
-1.88212e-13
-6.50139e-14
4.99428e-14
7.67364e-14
3.12907e-14
-1.04357e-13
-2.8642e-13
-4.46658e-13
-5.66914e-13
-6.48116e-13
-7.3687e-13
-1.31595e-11
-8.86457e-13
-8.20428e-13
-8.45284e-13
-8.51766e-13
-8.95572e-13
-6.09947e-13
-4.76644e-12
-4.75788e-12
-3.26597e-11
-6.53907e-12
-7.37859e-12
-4.79501e-11
-1.16345e-11
-1.67046e-11
-6.55149e-11
-1.06321e-11
-9.01043e-12
-4.72967e-11
-8.71071e-12
-8.15851e-12
-7.53163e-12
-3.73222e-11
-6.28801e-12
-5.89437e-12
-2.88217e-11
-6.72989e-12
1.59957e-13
-8.65352e-13
1.97705e-12
3.33034e-12
2.80209e-12
1.49694e-12
2.4614e-12
5.77982e-12
8.09133e-12
5.04525e-12
-6.21382e-12
-2.27801e-11
-3.78172e-11
-4.61278e-11
-4.58874e-11
-3.92574e-11
-2.90334e-11
-2.81542e-11
-1.66344e-11
2.20552e-13
-9.60809e-13
2.03305e-12
3.33363e-12
2.76409e-12
1.49435e-12
2.53743e-12
5.88268e-12
8.09695e-12
4.83326e-12
-6.57849e-12
-2.3094e-11
-3.79686e-11
-4.61374e-11
-4.59621e-11
-4.01291e-11
-3.23198e-11
-3.21174e-11
-1.83008e-11
8.03796e-14
-1.35186e-12
1.90371e-12
3.38994e-12
2.71215e-12
1.49313e-12
2.63976e-12
6.01642e-12
8.0969e-12
4.53843e-12
-7.08883e-12
-2.35514e-11
-3.82099e-11
-4.61688e-11
-4.60415e-11
-4.12311e-11
-3.60027e-11
-3.68088e-11
-1.84935e-11
-7.92248e-13
-1.63297e-12
1.21723e-12
3.41499e-12
2.67998e-12
1.48853e-12
2.75841e-12
6.1682e-12
8.08526e-12
4.17813e-12
-7.71218e-12
-2.41334e-11
-3.85463e-11
-4.62311e-11
-4.60906e-11
-4.24116e-11
-3.87788e-11
-4.03882e-11
-2.02521e-11
-2.14804e-12
-1.5137e-12
1.03001e-13
3.07472e-12
2.70612e-12
1.50706e-12
2.91435e-12
6.33531e-12
8.05594e-12
3.74041e-12
-8.46482e-12
-2.4862e-11
-3.90005e-11
-4.63401e-11
-4.61197e-11
-4.38764e-11
-4.06726e-11
-4.12775e-11
-3.16835e-11
-3.9079e-12
-1.61579e-12
-8.85927e-13
2.10182e-12
2.67103e-12
1.52202e-12
3.06319e-12
6.52781e-12
7.99799e-12
3.20497e-12
-9.36672e-12
-2.57511e-11
-3.95854e-11
-4.64303e-11
-4.60364e-11
-4.51886e-11
-4.20321e-11
-4.13417e-11