/*--------------------------------*- C++ -*----------------------------------*\
| =========                 |                                                 |
| \\      /  F ield         | OpenFOAM: The Open Source CFD Toolbox           |
|  \\    /   O peration     | Version:  4.1                                   |
|   \\  /    A nd           | Web:      www.OpenFOAM.org                      |
|    \\/     M anipulation  |                                                 |
\*---------------------------------------------------------------------------*/
FoamFile
{
    version     2.0;
    format      ascii;
    class       volVectorField;
    location    "29";
    object      U;
}
// * * * * * * * * * * * * * * * * * * * * * * * * * * * * * * * * * * * * * //

dimensions      [0 1 -1 0 0 0 0];

internalField   nonuniform List<vector> 
1280
(
(-7.84139e-17 -1.2241 -1.67666)
(1.84072e-16 -0.588974 -1.3354)
(1.64267e-16 -0.941383 -1.12273)
(-1.12304e-16 -0.589009 -1.44305)
(-1.65243e-19 -0.144092 -1.99781)
(1.15799e-17 -0.289664 -1.45311)
(-2.02286e-16 0.0152934 -1.47171)
(1.28814e-15 0.158895 -1.37798)
(-6.91362e-16 0.65316 -2.21984)
(-1.0492e-15 0.672504 -1.69721)
(-1.22908e-15 0.950438 -1.48527)
(2.79947e-16 1.40849 -2.36775)
(7.9693e-16 1.42429 -1.79965)
(5.49595e-16 1.7548 -1.56817)
(9.48854e-16 2.32886 -2.61862)
(7.24171e-16 2.2502 -2.05082)
(4.40421e-16 2.71621 -1.72992)
(3.07068e-16 3.19687 -3.52555)
(-3.29726e-17 3.63058 -2.19415)
(-4.34909e-16 3.5376 -3.83219)
(-1.80042e-16 3.73538 -0.714828)
(-1.4794e-15 4.06625 5.6856)
(-1.80237e-15 3.7557 8.88263)
(-2.11662e-15 4.10779 10.0022)
(-2.22006e-15 4.34228 10.0097)
(-2.57334e-15 4.84996 9.95377)
(-1.48269e-15 3.82927 7.46276)
(-2.30206e-15 7.67437 12.6382)
(-1.99566e-15 7.81808 13.0345)
(-1.60836e-15 7.93158 13.4468)
(-1.06229e-15 7.98285 13.7851)
(-2.82288e-16 7.97417 13.9411)
(6.87738e-16 7.92464 13.8546)
(1.54671e-15 7.82774 13.6027)
(1.93828e-15 7.74523 13.3868)
(1.63067e-15 7.60769 13.4348)
(7.49332e-16 7.56312 13.8126)
(-1.90853e-16 7.37608 14.2901)
(-4.09337e-16 7.50305 14.8625)
(-1.13752e-15 7.27368 13.6384)
(-1.83404e-16 9.95759 13.4146)
(-4.37432e-16 5.41501 8.39213)
(-1.07041e-15 4.21755 7.83399)
(-1.93777e-15 3.52964 7.39018)
(-8.74897e-16 2.41507 6.93265)
(-5.83769e-17 1.38871 4.24407)
(5.17025e-16 0.915434 4.20192)
(-2.71713e-16 0.365911 4.4625)
(8.78044e-15 -0.345326 1.75479)
(4.9268e-15 -0.00719735 1.73377)
(1.72626e-15 -0.581324 2.06398)
(2.71521e-15 -0.729881 3.74075)
(2.49001e-15 -1.60061 4.85556)
(2.44313e-15 -2.23228 4.709)
(2.06311e-15 -2.64518 4.75527)
(1.92075e-15 -4.0965 7.38284)
(5.36479e-16 -4.78727 7.09478)
(-4.65326e-16 -5.53615 7.69345)
(-1.12614e-15 -6.67518 8.27399)
(-1.25907e-15 -11.4612 12.9912)
(1.42433e-15 -8.18144 12.9012)
(7.77212e-16 -8.40907 13.8796)
(7.7215e-16 -8.26401 13.2161)
(2.66724e-16 -8.43264 12.7271)
(-2.04894e-16 -8.45107 12.4591)
(-3.14816e-16 -8.56622 12.5858)
(-1.28372e-16 -8.62934 12.9368)
(4.28131e-16 -8.70573 13.2059)
(1.17505e-15 -8.72675 13.2111)
(1.83244e-15 -8.6991 12.9273)
(2.3258e-15 -8.61085 12.4212)
(2.65894e-15 -8.44804 11.8222)
(3.02306e-15 -8.2052 11.2672)
(2.77408e-15 -4.43156 5.24975)
(3.63675e-15 -5.23302 8.35233)
(3.36586e-15 -4.65111 8.33119)
(3.46783e-15 -4.40705 8.29104)
(3.49443e-15 -4.0335 7.02367)
(3.67414e-15 -4.32696 3.64521)
(2.50235e-15 -3.9516 -2.71275)
(3.44458e-15 -3.78458 -5.05383)
(3.4384e-15 -3.47984 -3.582)
(5.55083e-15 -2.87434 -5.38048)
(4.72562e-15 -2.19083 -3.7648)
(5.33232e-15 -1.35139 -3.87267)
(8.48348e-15 -0.68933 -5.06455)
(9.17337e-15 -0.152168 -3.61376)
(1.28374e-14 0.718951 -3.52653)
(1.15981e-14 1.42919 -4.14323)
(7.56772e-15 1.68199 -2.76927)
(6.54053e-15 2.20705 -2.62219)
(8.59154e-15 3.18934 -3.40651)
(6.36412e-15 2.98829 -2.41722)
(5.89594e-15 3.63177 -2.42945)
(5.44291e-15 3.73402 -2.34028)
(6.34326e-15 4.96419 -3.21397)
(4.54418e-15 4.43566 -2.34167)
(4.25334e-15 5.11014 -2.1673)
(4.93902e-15 5.25198 -2.83974)
(4.86352e-15 5.87642 -2.95196)
(-1.7773e-17 1.45015 0.151909)
(9.61502e-17 -1.95056 -0.0162891)
(-2.19672e-16 -2.82848 0.159735)
(-3.70038e-16 -3.54452 0.292093)
(-3.11343e-16 -4.15054 0.411569)
(-1.66327e-16 -4.78139 0.523864)
(-2.73488e-16 -5.36472 0.650494)
(-6.42202e-16 -6.00592 0.793945)
(-8.99037e-16 -6.60695 0.887737)
(-5.60583e-16 -7.33241 0.966437)
(6.90424e-16 -8.22286 0.925372)
(2.53112e-15 -8.91568 0.795594)
(4.20191e-15 -8.68345 0.452412)
(5.12531e-15 -7.75203 0.104244)
(5.0986e-15 -5.55514 -0.561887)
(4.36193e-15 -2.67701 -1.21712)
(3.22594e-15 -0.719168 -2.00625)
(3.12825e-15 0.474483 -2.61012)
(1.84827e-15 1.54789 -3.22676)
(-2.45058e-17 1.48706 -0.222896)
(1.06757e-16 -1.95587 -0.125727)
(-2.25895e-16 -2.92844 0.118277)
(-3.70404e-16 -3.62982 0.283811)
(-3.07121e-16 -4.22705 0.421383)
(-1.66038e-16 -4.85468 0.541206)
(-2.81937e-16 -5.44204 0.674499)
(-6.53631e-16 -6.06887 0.824481)
(-8.99661e-16 -6.64807 0.925821)
(-5.37028e-16 -7.334 1.01652)
(7.30944e-16 -8.162 0.999186)
(2.566e-15 -8.75743 0.885986)
(4.21873e-15 -8.44288 0.559193)
(5.12638e-15 -7.38334 0.180839)
(5.1069e-15 -5.0584 -0.602223)
(4.45879e-15 -2.09822 -1.5277)
(3.59109e-15 -0.182748 -2.58892)
(3.5686e-15 0.774868 -3.63702)
(2.03343e-15 1.60041 -3.21272)
(-8.93106e-18 1.40858 -0.474873)
(1.50207e-16 -2.02084 -0.360733)
(-2.11523e-16 -3.03592 0.0501829)
(-3.7666e-16 -3.68703 0.285868)
(-3.0135e-16 -4.27517 0.440681)
(-1.65903e-16 -4.90349 0.571885)
(-2.93306e-16 -5.49995 0.713167)
(-6.68491e-16 -6.12264 0.873651)
(-8.99656e-16 -6.69288 0.988523)
(-5.0427e-16 -7.35801 1.09851)
(7.87647e-16 -8.1496 1.1146)
(2.61682e-15 -8.68568 1.02638)
(4.24554e-15 -8.3287 0.730424)
(5.12987e-15 -7.17002 0.32787)
(5.11572e-15 -4.7219 -0.600502)
(4.58123e-15 -1.68939 -1.89519)
(4.0003e-15 0.156352 -3.41482)
(4.08987e-15 0.817764 -4.49326)
(2.05483e-15 1.34981 -3.98179)
(8.80276e-17 1.38482 -0.740947)
(1.81441e-16 -2.12397 -0.612848)
(-1.35248e-16 -3.20025 -0.0937296)
(-3.79443e-16 -3.77084 0.281522)
(-2.97776e-16 -4.33026 0.47332)
(-1.65392e-16 -4.9554 0.619339)
(-3.0649e-16 -5.55817 0.76885)
(-6.85355e-16 -6.17653 0.94042)
(-8.98362e-16 -6.73959 1.07248)
(-4.64237e-16 -7.38923 1.20623)
(8.56908e-16 -8.14807 1.26198)
(2.68149e-15 -8.62507 1.20883)
(4.28293e-15 -8.21481 0.96357)
(5.13679e-15 -6.91125 0.555589)
(5.12117e-15 -4.24659 -0.526681)
(4.7124e-15 -1.04066 -2.29455)
(4.30875e-15 0.697177 -4.26927)
(4.48758e-15 1.00095 -5.67955)
(2.25024e-15 1.0148 -5.22204)
(2.38671e-16 1.30963 -0.9286)
(1.68189e-16 -2.24148 -0.757901)
(-1.14446e-17 -3.40503 -0.2608)
(-3.41635e-16 -3.90991 0.237331)
(-3.0068e-16 -4.40737 0.513061)
(-1.67451e-16 -5.01854 0.685066)
(-3.23817e-16 -5.62601 0.844556)
(-7.03923e-16 -6.24031 1.02686)
(-8.95105e-16 -6.79727 1.17923)
(-4.15601e-16 -7.43283 1.34193)
(9.40535e-16 -8.15705 1.44431)
(2.76244e-15 -8.56967 1.43807)
(4.33339e-15 -8.09365 1.26825)
(5.1489e-15 -6.59309 0.878172)
(5.12441e-15 -3.60393 -0.383407)
(4.87515e-15 -0.0877143 -2.82908)
(4.51918e-15 1.4243 -5.2934)
(4.58639e-15 1.19753 -7.02008)
(3.52039e-15 0.464909 -6.3387)
(4.34211e-16 1.23688 -0.965177)
(1.79533e-16 -2.34252 -0.76525)
(9.84364e-17 -3.59992 -0.320896)
(-2.33536e-16 -4.08594 0.16461)
(-2.96781e-16 -4.51057 0.537676)
(-1.69114e-16 -5.08974 0.760546)
(-3.40354e-16 -5.69761 0.939769)
(-7.25312e-16 -6.31017 1.1339)
(-8.88666e-16 -6.86591 1.30798)
(-3.56108e-16 -7.49327 1.50404)
(1.04075e-15 -8.18826 1.6586)
(2.86124e-15 -8.54443 1.71129)
(4.39838e-15 -8.00396 1.64627)
(5.15892e-15 -6.2453 1.3042)
(5.11516e-15 -2.71516 -0.167943)
(5.02095e-15 1.09204 -3.82042)
(4.67024e-15 2.38841 -5.6843)
(4.59352e-15 1.61695 -6.63051)
(4.14529e-15 0.00556971 -5.60663)
(6.50032e-16 1.12204 -0.780503)
(2.66204e-16 -2.45165 -0.58325)
(1.56393e-16 -3.76076 -0.201602)
(-7.7071e-17 -4.26032 0.126793)
(-2.65994e-16 -4.64277 0.536734)
(-1.82619e-16 -5.17893 0.829375)
(-3.7524e-16 -5.7768 1.0492)
(-7.48613e-16 -6.38629 1.26255)
(-8.77675e-16 -6.94562 1.45831)
(-2.82693e-16 -7.57158 1.68985)
(1.16362e-15 -8.24442 1.89997)
(2.98786e-15 -8.55717 2.02371)
(4.48099e-15 -7.96106 2.1029)
(5.19465e-15 -5.92793 1.88013)
(5.13316e-15 -1.69068 0.182649)
(4.98059e-15 2.10358 -3.28311)
(4.62371e-15 2.57249 -1.94504)
(3.69801e-15 1.51216 -1.23291)
(3.09464e-15 1.25859 -1.09202)
(8.65377e-16 0.918031 -0.293932)
(4.16873e-16 -2.54468 -0.106171)
(2.02654e-16 -3.85531 0.109636)
(8.52669e-17 -4.39192 0.201057)
(-1.88025e-16 -4.78788 0.544677)
(-1.77952e-16 -5.29368 0.887217)
(-3.59612e-16 -5.8722 1.16516)
(-7.78169e-16 -6.47188 1.41216)
(-8.59576e-16 -7.0369 1.63174)
(-1.91203e-16 -7.66813 1.89734)
(1.29902e-15 -8.32679 2.16327)
(3.10263e-15 -8.61595 2.36926)
(4.57563e-15 -7.97626 2.63023)
(5.12681e-15 -5.50767 2.44827)
(4.94767e-15 -0.364694 0.109803)
(4.90066e-15 1.80177 2.98811)
(4.16758e-15 1.58078 6.40619)
(1.98747e-15 0.221215 6.08684)
(1.01395e-16 -4.94294 7.24914)
(1.06942e-15 0.715061 0.60422)
(6.24796e-16 -2.54308 0.696064)
(3.15583e-16 -3.84637 0.618411)
(2.48637e-16 -4.4465 0.453607)
(-3.53274e-17 -4.91424 0.636387)
(-1.77281e-16 -5.42593 0.962258)
(-4.99284e-16 -5.98876 1.28728)
(-8.03917e-16 -6.57109 1.57937)
(-8.33885e-16 -7.14 1.83023)
(-7.97533e-17 -7.78211 2.1255)
(1.50233e-15 -8.43806 2.44291)
(3.4264e-15 -8.73154 2.74153)
(4.67819e-15 -8.03798 3.18127)
(5.51062e-15 -5.23162 3.13318)
(5.82194e-15 -1.35251 4.2424)
(5.00696e-15 -0.124784 10.1312)
(4.98304e-15 1.13323 11.6962)
(3.9753e-15 0.835945 11.4678)
(2.54685e-15 -1.92184 9.49947)
(1.31929e-15 0.57132 1.68777)
(8.8136e-16 -2.47091 1.6842)
(4.79392e-16 -3.72397 1.31188)
(3.67613e-16 -4.4095 0.920136)
(1.00792e-16 -4.98924 0.886041)
(-1.2205e-16 -5.55196 1.11042)
(-8.38947e-17 -6.12113 1.43224)
(-8.35589e-16 -6.68701 1.76192)
(-7.92598e-16 -7.25574 2.05338)
(7.358e-17 -7.91107 2.37426)
(1.63062e-15 -8.5773 2.73355)
(2.85086e-15 -8.89371 3.11481)
(4.87071e-15 -8.1858 3.64938)
(4.33766e-15 -5.69705 3.91106)
(-2.02824e-16 -3.04096 6.56531)
(5.43766e-15 -1.0561 10.4091)
(5.63447e-15 1.1738 10.124)
(4.64168e-15 1.00096 9.81688)
(3.19232e-15 -0.673963 7.02113)
(1.62552e-15 0.472857 2.81733)
(1.27088e-15 -2.33597 2.73187)
(7.1764e-16 -3.50984 2.15306)
(4.50045e-16 -4.28376 1.59204)
(1.74306e-16 -4.98958 1.3288)
(-6.2904e-17 -5.6416 1.38724)
(-3.15015e-16 -6.25155 1.63296)
(-8.53276e-16 -6.81734 1.96595)
(-7.3011e-16 -7.38547 2.29825)
(2.53535e-16 -8.05239 2.64362)
(1.7658e-15 -8.73835 3.03118)
(3.03434e-15 -9.08498 3.46714)
(4.85564e-15 -8.41273 4.03176)
(3.14371e-15 -6.37909 4.61708)
(1.78609e-15 -4.25338 7.59936)
(7.25483e-15 -1.71154 10.734)
(4.7837e-15 1.29055 11.2886)
(4.37121e-15 1.88065 10.1556)
(7.1591e-15 0.889206 5.84001)
(1.94336e-15 0.411544 3.92604)
(1.83569e-15 -2.16463 3.76421)
(1.19379e-15 -3.24252 3.08147)
(7.48711e-16 -4.08526 2.41461)
(3.72306e-16 -4.90805 1.95037)
(6.02598e-17 -5.67025 1.81957)
(-4.30888e-16 -6.35477 1.92518)
(-8.55545e-16 -6.95063 2.20889)
(-6.37834e-16 -7.52726 2.56282)
(4.57269e-16 -8.20276 2.93177)
(1.98628e-15 -8.9106 3.33383)
(3.4027e-15 -9.28698 3.79063)
(4.6616e-15 -8.69125 4.36274)
(2.54003e-15 -7.12007 5.25122)
(2.05406e-15 -5.48533 8.49852)
(1.3127e-15 -2.35648 11.6437)
(-4.55658e-15 1.56051 11.0249)
(-2.82829e-15 2.59077 10.3468)
(-1.98084e-15 2.31275 10.0929)
(2.18638e-15 0.387025 4.97558)
(2.29539e-15 -1.96568 4.72909)
(1.72911e-15 -2.94887 4.02615)
(1.25432e-15 -3.83468 3.31353)
(7.2838e-16 -4.75392 2.70351)
(1.80737e-16 -5.62836 2.39832)
(-4.79533e-16 -6.40998 2.33199)
(-8.28713e-16 -7.07026 2.51461)
(-4.95275e-16 -7.67534 2.85175)
(6.98517e-16 -8.36001 3.23642)
(2.3003e-15 -9.08557 3.64061)
(3.81344e-15 -9.492 4.083)
(4.36478e-15 -9.02696 4.65281)
(2.00591e-15 -7.9482 5.78804)
(1.18385e-15 -6.66488 8.82357)
(-2.67241e-16 -2.62121 9.28724)
(-3.78178e-16 1.817 3.35724)
(5.15705e-16 1.97088 3.88191)
(-2.0846e-16 4.81494 9.0942)
(2.39076e-15 0.393205 5.97272)
(2.53372e-15 -1.76529 5.59812)
(1.9205e-15 -2.65976 4.92399)
(1.46687e-15 -3.55738 4.21878)
(8.67076e-16 -4.54429 3.52656)
(1.33309e-16 -5.51736 3.08688)
(-5.54839e-16 -6.40309 2.85376)
(-7.31631e-16 -7.15569 2.90234)
(-2.78026e-16 -7.81601 3.17701)
(9.97683e-16 -8.51744 3.55626)
(2.68788e-15 -9.25186 3.94832)
(4.15255e-15 -9.68818 4.34712)
(4.01198e-15 -9.40259 4.91488)
(1.36941e-15 -8.71942 6.20782)
(1.58819e-16 -7.05917 8.65028)
(-4.50232e-16 -0.735682 6.67181)
(5.94561e-16 3.54221 0.767387)
(6.27811e-16 0.57508 0.612962)
(8.4237e-16 -2.12106 0.487605)
(2.60035e-15 0.454412 6.96201)
(2.95063e-15 -1.53157 6.38219)
(2.0346e-15 -2.38179 5.75426)
(1.37871e-15 -3.2773 5.09255)
(7.2382e-16 -4.30664 4.3687)
(1.30344e-17 -5.3576 3.84078)
(-5.24343e-16 -6.34029 3.47073)
(-5.19213e-16 -7.19879 3.37751)
(3.25853e-17 -7.93816 3.55231)
(1.38078e-15 -8.66869 3.89528)
(3.13371e-15 -9.4051 4.26103)
(4.40927e-15 -9.87871 4.6021)
(3.65519e-15 -9.80607 5.14511)
(7.7922e-16 -9.35423 6.38538)
(-5.60062e-16 -6.92307 7.96342)
(-2.67769e-16 1.01603 4.33009)
(3.36325e-16 4.17103 0.572116)
(2.02672e-16 2.07266 1.14631)
(5.23267e-16 0.23794 -2.9864)
(2.61091e-15 0.569868 8.0293)
(3.65103e-15 -1.27695 7.12116)
(2.65976e-15 -2.12682 6.5077)
(1.69643e-15 -2.99876 5.91292)
(8.73744e-16 -4.043 5.19442)
(1.97555e-16 -5.15064 4.6217)
(-2.13165e-16 -6.21666 4.1555)
(-1.46173e-16 -7.18377 3.9353)
(4.72057e-16 -8.0216 3.9926)
(1.8827e-15 -8.80006 4.268)
(3.62232e-15 -9.53682 4.58758)
(4.58953e-15 -10.0374 4.85237)
(3.33793e-15 -10.136 5.30589)
(3.83519e-16 -9.72247 6.28935)
(-8.86808e-16 -6.38814 6.98927)
(-3.07432e-17 2.28916 2.66213)
(2.41485e-16 4.73363 0.601083)
(3.30278e-16 2.45446 0.348301)
(1.00416e-16 0.864019 -1.96637)
(2.19658e-15 0.793755 9.22893)
(4.00585e-15 -0.930858 7.95755)
(3.59973e-15 -1.89079 7.24432)
(2.686e-15 -2.76004 6.70566)
(1.74162e-15 -3.80437 6.00092)
(9.71678e-16 -4.94786 5.40781)
(5.04168e-16 -6.07568 4.87957)
(5.01106e-16 -7.13828 4.55711)
(1.1408e-15 -8.07556 4.49994)
(2.54992e-15 -8.90826 4.68803)
(4.128e-15 -9.64092 4.94147)
(4.67282e-15 -10.1661 5.11195)
(3.05765e-15 -10.4253 5.41716)
(2.17383e-16 -9.956 6.03009)
(-9.10393e-16 -5.60352 5.84625)
(-3.6052e-17 3.33877 0.962556)
(1.75305e-16 5.11178 0.629508)
(2.78544e-16 3.04965 -0.168087)
(1.99367e-16 1.37585 -1.64983)
(1.51317e-15 1.03784 10.4479)
(3.45638e-15 -0.503126 9.00193)
(4.04371e-15 -1.596 7.99418)
(3.71959e-15 -2.47791 7.50368)
(3.00142e-15 -3.50586 6.83654)
(2.22036e-15 -4.67913 6.25619)
(1.63933e-15 -5.86105 5.71296)
(1.52016e-15 -7.01702 5.32885)
(2.09594e-15 -8.0648 5.17508)
(3.33771e-15 -8.97308 5.24604)
(4.54083e-15 -9.71007 5.35985)
(4.58058e-15 -10.2216 5.35958)
(2.76731e-15 -10.4963 5.49502)
(2.3975e-16 -9.74545 5.82415)
(-7.46416e-16 -4.36534 4.77791)
(-1.92768e-16 4.21091 -0.348253)
(1.63044e-16 5.22595 0.198755)
(2.86144e-16 3.43954 -0.64011)
(1.9912e-16 1.74344 -1.53164)
(9.82376e-16 1.38586 11.4401)
(2.25748e-15 0.0502874 10.5702)
(3.53902e-15 -1.31798 8.92501)
(4.10818e-15 -2.33541 8.21648)
(4.0709e-15 -3.35649 7.50203)
(3.65249e-15 -4.53873 6.89685)
(3.15472e-15 -5.7438 6.35302)
(2.95622e-15 -6.95317 5.93215)
(3.33545e-15 -8.06477 5.68279)
(4.19063e-15 -8.9922 5.59595)
(4.83187e-15 -9.68431 5.54523)
(4.35257e-15 -10.215 5.50811)
(2.50496e-15 -10.6797 5.78231)
(4.19601e-16 -9.79886 5.92879)
(-4.6921e-16 -3.28753 3.71472)
(-2.54589e-16 5.1333 -0.563843)
(1.71394e-16 5.35427 -0.286898)
(2.90549e-16 3.72034 -0.930499)
(9.95606e-17 2.01192 -1.465)
(7.53287e-16 1.27264 11.8825)
(1.08799e-15 0.519441 12.1925)
(1.9841e-15 -0.59613 10.815)
(2.8963e-15 -1.81302 9.98868)
(3.55851e-15 -2.89219 9.17793)
(3.91642e-15 -4.13416 8.46289)
(4.02225e-15 -5.40361 7.83945)
(4.07813e-15 -6.68869 7.32535)
(4.26224e-15 -7.88628 6.94137)
(4.51018e-15 -8.89552 6.70064)
(4.43311e-15 -9.681 6.60192)
(3.62207e-15 -10.3205 6.69486)
(2.16533e-15 -10.5728 6.88821)
(6.97071e-16 -8.61779 6.11315)
(-2.0378e-16 -1.10969 2.47943)
(-2.50935e-16 5.73646 -0.35176)
(1.8329e-16 5.56265 -0.598728)
(2.89771e-16 3.99498 -1.04587)
(7.33215e-17 2.15204 -1.44309)
(-8.99871e-17 7.26975 12.4167)
(-3.71079e-15 17.0079 29.3756)
(-2.87791e-15 18.2788 30.1647)
(-3.11564e-15 16.5893 26.9076)
(-3.33923e-15 15.0163 23.6176)
(-4.81e-15 13.7671 21.0976)
(-4.92412e-15 12.699 18.9836)
(-4.76175e-15 11.8561 17.4195)
(-4.6725e-15 11.0836 15.9756)
(-4.8434e-15 10.2809 14.5512)
(-5.07142e-15 9.44016 13.114)
(-5.09972e-15 8.56151 11.6532)
(-4.82992e-15 7.6598 10.1732)
(-4.61402e-15 6.79007 8.78535)
(-4.80255e-15 6.13413 7.77548)
(-6.23625e-15 5.92094 7.65993)
(-8.47355e-15 6.3862 8.75462)
(-1.02533e-14 7.20597 10.7603)
(-9.78948e-15 7.76769 12.1374)
(-1.01409e-14 5.64212 9.66418)
(-2.29836e-16 6.29672 9.96125)
(-2.7753e-15 15.7532 27.9547)
(-1.64745e-15 16.7241 28.9524)
(-2.27358e-15 14.8317 25.6946)
(-2.21753e-15 13.2076 22.6363)
(-3.71916e-15 11.9769 20.3292)
(-3.22025e-15 11.1114 18.6641)
(-3.18171e-15 10.425 17.244)
(-3.48499e-15 9.80006 15.9781)
(-3.96139e-15 9.22389 14.7791)
(-4.98657e-15 8.66594 13.6177)
(-6.15683e-15 8.12059 12.4719)
(-6.8752e-15 7.57813 11.3149)
(-7.39427e-15 7.02318 10.1187)
(-7.80134e-15 6.47997 8.94386)
(-8.4521e-15 6.04725 8.01014)
(-8.90527e-15 5.78631 7.61155)
(-9.54347e-15 5.70385 7.72478)
(-9.12766e-15 5.2913 7.892)
(-1.06304e-14 3.36814 4.99747)
(-6.73427e-17 5.55559 9.32316)
(-8.61131e-16 15.7702 28.1435)
(-3.64578e-16 17.7155 31.1758)
(-5.80264e-16 16.1769 28.0756)
(-5.48033e-16 14.4296 24.7768)
(-1.66353e-15 13.194 22.2533)
(-9.7112e-16 12.2597 20.3931)
(-9.27786e-16 11.5251 18.8223)
(-9.77643e-16 10.8295 17.3757)
(-1.17798e-15 10.1451 15.9701)
(-1.37129e-15 9.4523 14.5954)
(-1.65986e-15 8.75282 13.2529)
(-2.09479e-15 8.04458 11.9453)
(-2.50235e-15 7.33436 10.6613)
(-2.99046e-15 6.60061 9.38701)
(-3.33868e-15 5.87476 8.11417)
(-3.86091e-15 5.11153 6.95703)
(-4.51379e-15 4.43549 5.90437)
(-5.01848e-15 3.3724 4.86881)
(-7.07205e-15 1.41319 1.26859)
(5.07375e-17 3.79795 6.10648)
(2.13369e-16 15.4509 26.9949)
(1.08675e-16 18.3612 32.0884)
(1.65726e-16 16.9713 29.2903)
(1.21297e-16 15.0684 25.8384)
(-8.90413e-16 13.7789 23.2509)
(-6.4787e-16 12.8347 21.3889)
(-9.15881e-16 12.0727 19.7744)
(-9.52073e-16 11.3205 18.2264)
(-1.07887e-15 10.5466 16.6638)
(-1.11386e-15 9.7359 15.0859)
(-1.26183e-15 8.8972 13.5114)
(-1.39567e-15 8.0361 11.9663)
(-1.57219e-15 7.16927 10.4596)
(-2.21336e-15 6.27361 8.9955)
(-2.67512e-15 5.37268 7.52044)
(-3.03577e-15 4.35194 6.02252)
(-4.02949e-15 3.31408 4.31329)
(-4.80646e-15 1.60124 2.18473)
(-1.66141e-14 -0.140236 -1.74378)
(-9.80488e-18 4.51172 7.25428)
(-5.72706e-17 16.3189 26.7383)
(-3.07041e-17 19.6614 32.7217)
(-4.18316e-17 18.4677 30.4259)
(-5.04324e-17 16.5457 27.1023)
(2.10991e-16 15.2795 24.5874)
(2.28383e-16 14.3547 22.7536)
(2.49596e-16 13.5831 21.1005)
(2.59322e-16 12.7766 19.4387)
(2.95519e-16 11.9007 17.6915)
(3.38233e-16 10.9462 15.8728)
(4.02623e-16 9.92926 14.0121)
(4.98967e-16 8.85864 12.1438)
(5.99874e-16 7.75023 10.2847)
(7.28621e-16 6.5831 8.45255)
(8.36369e-16 5.38109 6.6065)
(9.81595e-16 4.02164 4.72574)
(1.19998e-15 2.59642 2.52874)
(1.99338e-15 0.299603 -0.175996)
(-5.99505e-15 -1.21193 -4.19514)
(6.58818e-19 8.99143 15.0782)
(1.48349e-17 19.1301 30.1873)
(1.20419e-17 20.3964 32.8106)
(1.22083e-17 18.8883 30.1489)
(2.05515e-17 17.1692 27.5276)
(-3.93994e-17 16.218 25.5762)
(-6.93231e-17 15.3903 24.0387)
(-7.63939e-17 14.627 22.402)
(-7.85052e-17 13.684 20.597)
(-8.73319e-17 12.6208 18.5946)
(-1.02278e-16 11.4343 16.4826)
(-1.25351e-16 10.1746 14.2995)
(-1.50399e-16 8.83296 12.0719)
(-1.67818e-16 7.41598 9.80105)
(-1.80183e-16 5.89483 7.50297)
(-1.89357e-16 4.28817 5.14232)
(-2.08043e-16 2.51891 2.81583)
(-1.72443e-16 0.811415 0.221625)
(4.26388e-16 -1.80482 -2.62662)
(-5.95199e-16 -2.46251 -6.55383)
(3.53074e-20 13.7465 24.0626)
(-3.48095e-18 20.9463 33.7993)
(-3.71007e-18 18.7074 31.5058)
(-3.48505e-18 17.1222 28.5589)
(-6.15798e-18 15.8288 27.1875)
(8.87003e-18 15.2564 25.9497)
(1.87991e-17 14.2998 24.6969)
(2.12671e-17 13.2943 22.9091)
(2.15685e-17 11.8767 20.7791)
(2.34002e-17 10.3615 18.3658)
(2.74178e-17 8.70865 15.8841)
(3.4263e-17 7.03953 13.3136)
(4.12526e-17 5.26974 10.6283)
(4.36483e-17 3.42404 7.78779)
(3.25545e-17 1.52228 4.81704)
(-1.48097e-17 -0.466112 1.71503)
(-1.28282e-16 -2.09219 -0.935173)
(-1.49834e-16 -3.01847 -2.76563)
(3.75841e-16 -4.77752 -5.34885)
(1.04429e-15 -3.29356 -5.97077)
(-2.29585e-20 15.3291 27.6002)
(8.59719e-19 18.757 31.6887)
(9.59459e-19 15.4715 28.1044)
(1.05686e-18 14.764 26.3659)
(1.08504e-18 13.5965 25.5465)
(-3.28419e-18 12.8895 24.3426)
(-5.41973e-18 11.6061 22.9709)
(-5.78849e-18 10.2221 20.9253)
(-5.92336e-18 8.43802 18.5424)
(-6.14337e-18 6.66533 15.9879)
(-5.5524e-18 4.83848 13.4735)
(-3.16223e-18 3.02873 10.9195)
(7.52065e-19 1.1782 8.31589)
(6.4848e-19 -0.60829 5.71818)
(-1.49381e-17 -2.15731 3.3556)
(-4.6643e-17 -3.22651 1.46506)
(-5.97259e-17 -3.60185 0.202819)
(5.41938e-18 -2.7947 0.210623)
(1.71062e-16 -0.453477 2.3575)
(2.44501e-16 1.62293 4.62168)
(-2.56122e-21 13.7442 24.844)
(-1.90796e-19 16.7458 29.1645)
(-2.10144e-19 14.3708 26.3229)
(-2.14143e-19 13.3719 24.0607)
(2.12821e-20 11.9757 22.8014)
(9.55038e-19 11.0595 21.3178)
(1.19024e-18 9.6695 19.8429)
(1.00972e-18 8.26548 17.8477)
(7.0639e-19 6.57441 15.5857)
(5.79923e-19 4.91979 13.1371)
(1.00611e-18 3.26715 10.6994)
(1.68744e-18 1.73548 8.33202)
(5.90322e-19 0.421795 6.23967)
(-5.48521e-18 -0.427106 4.74649)
(-1.75633e-17 -0.488888 4.34323)
(-3.03276e-17 0.591758 5.60364)
(-3.38437e-17 2.95325 8.74058)
(-2.51441e-17 6.08596 12.786)
(-1.76997e-17 8.51753 15.2902)
(-2.27649e-17 6.35927 12.2421)
(1.27753e-21 12.4774 22.3402)
(3.38304e-20 17.324 29.4346)
(3.45975e-20 14.8799 26.3177)
(3.24548e-20 13.7618 23.0333)
(-1.91221e-20 12.2512 21.4304)
(-1.83324e-19 11.5667 19.5366)
(-1.93864e-19 10.3839 18.0131)
(-1.39271e-19 9.5035 16.251)
(-9.22208e-20 8.44386 14.5286)
(-2.36762e-20 7.52525 12.7125)
(2.32003e-19 6.67136 10.9843)
(7.34923e-19 5.98797 9.41117)
(1.07788e-18 5.51294 8.1508)
(6.37618e-19 5.34986 7.41456)
(-4.3416e-19 5.63498 7.46233)
(-4.83441e-19 6.34971 8.42635)
(2.29083e-18 7.41087 10.1018)
(6.96739e-18 8.14876 11.9306)
(9.33906e-18 8.23246 12.4888)
(5.78298e-18 5.69395 9.78886)
(-2.77154e-22 12.5376 22.4089)
(-4.66811e-21 18.2203 30.3652)
(-3.76499e-21 15.6062 27.4404)
(-2.78706e-21 14.5952 23.9917)
(4.60893e-21 13.1258 22.3641)
(2.45287e-20 12.5724 20.5141)
(2.16124e-20 11.6073 19.0224)
(8.51296e-21 10.9173 17.4366)
(-7.36234e-23 10.185 15.9968)
(-5.06004e-21 9.55633 14.615)
(-4.01027e-20 8.97546 13.2866)
(-1.38988e-19 8.43171 11.9829)
(-2.389e-19 7.909 10.6871)
(-1.61444e-19 7.39327 9.43733)
(2.64005e-19 6.90856 8.33487)
(1.0242e-18 6.49118 7.57576)
(1.78517e-18 6.16883 7.28993)
(1.85967e-18 5.83411 7.31312)
(5.45203e-19 5.01776 6.97533)
(-1.52523e-18 2.92142 4.0628)
(7.93327e-23 13.2733 23.7188)
(3.48991e-22 19.004 31.1183)
(-7.13126e-23 15.994 28.0903)
(-2.95191e-22 15.2314 24.7473)
(-8.6097e-22 13.7288 23.2346)
(-2.14463e-21 13.2376 21.3895)
(-5.85406e-22 12.2773 19.9163)
(1.81665e-21 11.5703 18.3076)
(3.05799e-21 10.79 16.8016)
(3.49515e-21 10.0599 15.327)
(7.80479e-21 9.3474 13.9094)
(1.97648e-20 8.65059 12.5465)
(2.6684e-20 7.96368 11.2325)
(-4.03361e-21 7.27724 9.95171)
(-9.88479e-20 6.55683 8.68403)
(-2.53001e-19 5.79825 7.39829)
(-4.5295e-19 4.90907 6.11568)
(-7.1231e-19 3.95447 4.73201)
(-9.69863e-19 2.41081 3.05718)
(-1.12854e-18 0.602671 -0.479748)
(-2.37113e-23 14.5013 26.3169)
(4.52043e-23 19.674 31.6062)
(1.78128e-22 16.0819 28.6353)
(2.20699e-22 15.909 25.5427)
(1.58527e-22 14.2236 24.2575)
(-6.95558e-23 13.9084 22.3251)
(-5.90517e-22 12.8519 20.9044)
(-1.00183e-21 12.2254 19.2722)
(-1.09694e-21 11.4473 17.7922)
(-1.07486e-21 10.7486 16.2771)
(-1.46985e-21 10.019 14.7588)
(-2.10049e-21 9.2533 13.1942)
(-5.34064e-22 8.41215 11.5724)
(6.82652e-21 7.47893 9.88226)
(2.03727e-20 6.4208 8.13573)
(3.51959e-20 5.27385 6.31357)
(4.91712e-20 3.93145 4.42276)
(6.98241e-20 2.51515 2.24794)
(1.40008e-19 0.283206 -0.281594)
(-3.70289e-19 -1.0166 -3.91793)
(5.94592e-24 15.8099 29.4583)
(-2.6231e-23 19.9255 31.5134)
(-5.56368e-23 15.9676 29.2054)
(-5.47288e-23 16.5401 26.4472)
(-1.52851e-23 14.5429 25.4167)
(6.13587e-23 14.507 23.4355)
(8.47119e-23 13.3146 22.1736)
(-4.18182e-24 12.8644 20.5962)
(-7.59581e-23 12.1079 19.2597)
(1.38959e-22 11.5166 17.8121)
(7.89325e-22 10.8002 16.2863)
(1.55086e-21 9.95076 14.5172)
(1.6693e-21 8.85904 12.4641)
(7.85361e-22 7.54114 10.1623)
(-1.66636e-22 6.0335 7.74028)
(7.44146e-22 4.44486 5.23699)
(5.63566e-21 2.6156 2.74332)
(1.58255e-20 0.861132 0.0107075)
(9.44254e-20 -1.83047 -2.90858)
(-1.11529e-20 -2.54139 -6.62237)
(-1.33632e-24 16.4672 31.594)
(7.50614e-24 19.3987 30.5211)
(1.70832e-23 15.5117 29.3892)
(2.38447e-23 16.5154 26.822)
(5.43059e-24 14.1655 25.9834)
(-8.70716e-23 14.2937 24.0242)
(-2.56179e-22 12.8924 22.9725)
(-3.89742e-22 12.5385 21.5171)
(-1.90109e-22 11.6674 20.3848)
(6.97003e-22 11.0449 19.0074)
(2.2586e-21 10.0804 17.3703)
(3.72284e-21 8.80114 15.1062)
(4.03029e-21 7.0673 12.2481)
(3.3432e-21 5.13667 9.1345)
(2.64086e-21 3.2162 6.12263)
(6.62781e-22 1.27132 3.08304)
(-1.19208e-21 -1.15645 -0.0656476)
(-4.52289e-22 -1.25402 -2.15466)
(5.34321e-20 -4.12458 -4.92573)
(1.02535e-19 -3.73548 -8.29096)
(8.27525e-26 16.094 31.5631)
(-1.4662e-24 18.5347 29.1656)
(1.98526e-24 14.883 28.6697)
(9.77791e-24 15.7389 26.1413)
(-2.80563e-24 13.4457 25.2614)
(-8.88826e-23 13.314 23.4247)
(-2.67795e-22 11.9552 22.3385)
(-3.78004e-22 11.3839 20.9813)
(-1.09769e-23 10.4231 19.843)
(1.18718e-21 9.56828 18.4326)
(2.79268e-21 8.31122 16.5696)
(3.25573e-21 6.67203 13.9251)
(1.53763e-21 4.74681 10.8084)
(-2.63508e-22 3.01949 7.90809)
(5.37719e-22 1.57121 5.37333)
(4.69719e-21 0.0328587 2.64338)
(2.16158e-20 -1.86188 -0.638487)
(6.11694e-20 -3.7685 -3.99783)
(1.06358e-19 -4.79398 -5.61807)
(8.84746e-20 -2.24831 -2.95763)
(-1.3806e-25 15.1233 30.4766)
(3.79271e-25 18.1111 28.0268)
(4.33113e-24 14.0254 27.5409)
(1.00132e-23 14.9876 24.939)
(-6.76206e-24 12.7265 24.0074)
(-9.01976e-23 12.4503 22.1896)
(-2.49692e-22 11.1866 20.986)
(-3.66165e-22 10.4842 19.6023)
(-1.65567e-22 9.55455 18.3738)
(5.36203e-22 8.67543 16.9945)
(1.36052e-21 7.59864 15.3404)
(1.30046e-21 6.37709 13.2869)
(-1.83881e-22 5.16236 11.0744)
(-1.48975e-21 4.16426 9.03921)
(1.79755e-21 3.2524 7.05094)
(1.62033e-20 2.15678 4.66056)
(4.695e-20 1.09722 2.05438)
(9.12769e-20 0.11293 -0.139419)
(1.18463e-19 -0.586051 -1.20444)
(7.13685e-20 3.15965 6.42829)
(-8.57923e-26 13.9586 30.222)
(1.40532e-25 17.9966 27.2145)
(3.11235e-24 13.2004 27.1044)
(7.56147e-24 14.2278 24.6349)
(-3.82827e-24 12.0909 23.6659)
(-6.41042e-23 11.6629 21.9936)
(-1.92548e-22 10.5344 20.7395)
(-3.49363e-22 9.81121 19.3794)
(-4.22145e-22 8.99286 18.1384)
(-3.08009e-22 8.27584 16.8879)
(-5.09686e-23 7.55994 15.6253)
(1.29335e-22 6.88144 14.2845)
(2.92926e-23 6.22847 12.8431)
(-3.02723e-22 5.59437 11.2957)
(-5.35896e-22 4.94797 9.6377)
(-6.09933e-23 4.21642 7.73887)
(2.28477e-21 3.12447 5.21729)
(5.00164e-21 1.55202 1.56284)
(5.33766e-20 -0.234749 -1.89689)
(7.70569e-20 -0.435143 -2.35634)
(-3.20139e-26 11.1427 28.5075)
(6.52779e-26 17.0884 24.9427)
(1.40724e-24 12.0272 25.3295)
(3.99215e-24 12.7301 23.5771)
(-2.52115e-26 10.9977 22.8058)
(-3.03474e-23 10.3623 21.6832)
(-1.10683e-22 9.39255 20.7388)
(-2.46248e-22 8.65163 19.7662)
(-3.95869e-22 7.92306 18.8477)
(-4.69413e-22 7.28937 17.9566)
(-3.84494e-22 6.71189 17.0911)
(-1.67638e-22 6.18301 16.2075)
(1.3312e-23 5.67084 15.2528)
(-1.36449e-23 5.15436 14.1744)
(-1.59285e-22 4.6064 12.8991)
(2.89331e-22 3.92317 11.2621)
(3.28425e-21 2.87759 8.86261)
(1.23124e-20 1.21336 4.96954)
(2.85823e-20 -1.08664 -0.439214)
(3.72928e-20 -2.10232 -4.09602)
(-3.05699e-27 2.61748 17.0623)
(9.9362e-26 8.04546 13.7033)
(4.25445e-25 5.18111 14.5504)
(7.64361e-25 4.98687 14.1628)
(-4.56894e-25 4.07069 14.1238)
(-6.96513e-24 3.51116 13.9536)
(-2.3751e-23 2.94553 13.8008)
(-5.38864e-23 2.48608 13.6164)
(-9.44118e-23 2.08809 13.4108)
(-1.33356e-22 1.75923 13.1745)
(-1.50445e-22 1.49302 12.9073)
(-1.26809e-22 1.29294 12.6119)
(-6.51917e-23 1.1632 12.2943)
(-6.32034e-24 1.11668 11.9545)
(-1.90757e-23 1.17017 11.5864)
(-1.65121e-22 1.2919 11.2019)
(-4.50694e-22 1.50298 10.7445)
(-7.38773e-22 2.07678 9.87024)
(-6.79816e-22 2.25964 8.44895)
(-1.30822e-22 -0.257643 6.25436)
(2.44462e-27 -2.61753 17.0623)
(-1.04511e-25 -8.04545 13.7033)
(-4.4224e-25 -5.18109 14.5505)
(-8.07667e-25 -4.98681 14.1629)
(4.25509e-25 -4.0706 14.124)
(7.19174e-24 -3.51103 13.9538)
(2.48655e-23 -2.94537 13.801)
(5.6864e-23 -2.48586 13.6167)
(1.00069e-22 -2.08781 13.4111)
(1.41427e-22 -1.75888 13.1748)
(1.5881e-22 -1.4926 12.9076)
(1.31696e-22 -1.29248 12.6122)
(6.23904e-23 -1.16273 12.2946)
(-8.06826e-24 -1.11622 11.955)
(-1.12183e-23 -1.16971 11.5869)
(1.15152e-22 -1.29145 11.2026)
(3.8554e-22 -1.50254 10.7453)
(6.80041e-22 -2.07651 9.87099)
(6.55136e-22 -2.25981 8.44955)
(1.35878e-22 0.257444 6.25511)
(3.29477e-26 -11.1429 28.5079)
(-4.58475e-26 -17.0888 24.9431)
(-1.42428e-24 -12.0275 25.3299)
(-4.17492e-24 -12.7304 23.5776)
(-2.43314e-25 -10.998 22.8064)
(3.09378e-23 -10.3626 21.6838)
(1.14525e-22 -9.393 20.7394)
(2.56714e-22 -8.65214 19.7668)
(4.14913e-22 -7.92365 18.8483)
(4.93862e-22 -7.29002 17.9572)
(4.04072e-22 -6.71256 17.0916)
(1.67781e-22 -6.18364 16.2078)
(-4.43672e-23 -5.6714 15.2529)
(-4.62853e-23 -5.15486 14.1746)
(1.07838e-22 -4.60683 12.8994)
(-2.36626e-22 -3.92336 11.2622)
(-2.99885e-21 -2.87687 8.86116)
(-1.17882e-20 -1.20999 4.96423)
(-2.82586e-20 1.09302 -0.448165)
(-3.81635e-20 2.10572 -4.10204)
(9.04394e-26 -13.9586 30.2223)
(-1.73595e-25 -17.9972 27.2144)
(-3.27523e-24 -13.2007 27.1045)
(-7.97668e-24 -14.2285 24.6347)
(3.59982e-24 -12.0915 23.6656)
(6.58682e-23 -11.6637 21.9931)
(1.99386e-22 -10.5353 20.7389)
(3.63243e-22 -9.8122 19.3785)
(4.39454e-22 -8.99402 18.1374)
(3.1817e-22 -8.2773 16.8868)
(4.3539e-23 -7.56187 15.6245)
(-1.50773e-22 -6.88401 14.2844)
(-3.43523e-23 -6.23167 12.8439)
(3.77742e-22 -5.59805 11.2975)
(7.93425e-22 -4.95201 9.6406)
(6.47398e-22 -4.22071 7.7426)
(-1.1803e-21 -3.12787 5.2211)
(-2.82079e-21 -1.55493 1.56791)
(-5.66477e-20 0.231854 -1.89042)
(-8.19245e-20 0.437674 -2.36336)
(1.3082e-25 -15.1224 30.4752)
(-2.43699e-25 -18.1107 28.0253)