/*--------------------------------*- C++ -*----------------------------------*\
| =========                 |                                                 |
| \\      /  F ield         | OpenFOAM: The Open Source CFD Toolbox           |
|  \\    /   O peration     | Version:  4.1                                   |
|   \\  /    A nd           | Web:      www.OpenFOAM.org                      |
|    \\/     M anipulation  |                                                 |
\*---------------------------------------------------------------------------*/
FoamFile
{
    version     2.0;
    format      ascii;
    class       volScalarField;
    location    "24";
    object      p;
}
// * * * * * * * * * * * * * * * * * * * * * * * * * * * * * * * * * * * * * //

dimensions      [0 2 -2 0 0 0 0];

internalField   nonuniform List<scalar> 
1280
(
-0.32937
-0.636349
0.100295
-0.950379
-0.923807
-0.967462
-2.27004
-2.89887
-2.53445
-2.92249
-5.49327
-4.8081
-5.23262
-8.90285
-8.0238
-8.88135
-14.0743
-13.1211
-15.6261
-25.3548
-22.5525
-15.0763
1.2344
21.1298
32.9495
41.2121
30.6772
35.8061
40.8991
41.0425
40.6132
40.1082
38.6657
36.5854
33.9609
30.9876
27.6945
24.4296
21.8638
17.3405
31.2004
37.1526
38.8026
42.1287
53.5596
52.697
53.0377
53.2496
53.3917
53.4285
53.4195
53.6696
51.9491
49.459
49.3014
56.4538
33.4921
26.314
23.5695
28.1384
14.5911
19.9635
22.5659
26.3174
29.9636
33.4347
36.6166
39.3349
41.4961
42.9334
44.2759
44.6892
41.621
60.5007
66.3836
57.8674
45.5677
25.3123
8.71126
1.1715
-1.40591
9.06701
16.0244
16.8825
20.6934
22.839
23.5025
24.604
24.366
24.2538
24.2728
24.1528
21.2195
19.5421
18.8184
16.7573
11.5936
8.40997
3.68187
2.80162
0.0866768
0.287397
0.621388
1.25036
1.96296
2.08353
2.13125
2.33118
1.99157
1.24097
-0.566107
-3.57815
-1.95472
-18.961
-9.71968
-5.63331
-0.869009
4.27405
5.87607
0.310897
0.958028
1.86197
3.28418
5.02526
5.41765
4.3655
3.16531
1.74491
-0.0870908
-2.3514
-2.40618
-4.01655
-26.6121
-9.48167
-0.936025
7.02105
13.8837
14.2878
0.517599
1.55786
2.95874
5.16851
7.80456
8.50226
7.09835
5.61958
3.43067
0.41589
-3.55866
-4.88159
-14.8752
-30.4662
-10.2883
1.34023
11.4817
20.8472
21.4159
0.699494
2.04917
3.84139
6.65197
9.95044
10.7342
8.80937
6.63085
3.87141
0.315825
-4.21791
-6.17523
-26.0458
-35.6701
-13.7854
2.65209
15.3216
27.2477
28.3831
0.847614
2.40946
4.50468
7.76338
11.2514
11.8564
10.0407
7.7655
4.79599
1.08117
-3.86108
-7.5719
-34.9511
-38.4815
-16.4662
4.45168
19.475
33.5694
34.3728
0.955903
2.5931
4.86492
8.29341
11.6289
12.1851
10.558
8.53172
5.55929
2.00596
-2.86837
-7.83301
-38.8413
-37.7017
-17.7893
6.1755
23.2787
39.8945
40.2641
0.996966
2.53205
4.8351
8.31034
11.5535
12.1601
10.6954
9.09004
6.35104
3.07032
-1.5323
-6.95216
-37.3438
-33.95
-18.4375
7.62864
26.3408
46.1759
42.617
0.955918
2.16963
4.4225
7.95464
11.1115
11.9653
10.6523
9.17448
7.02406
4.03417
-0.0118144
-4.71952
-31.2405
-27.7859
-17.4228
8.72361
27.5248
50.4676
42.7751
0.820241
1.47567
3.64109
7.22735
10.3268
11.5155
10.5248
8.99387
7.61202
4.88683
1.71628
-1.31008
-23.3001
-21.1993
-15.4174
8.52461
27.1083
46.6268
68.6016
0.578628
0.430424
2.48295
6.11585
9.17914
10.7152
10.16
8.85707
7.586
5.47031
3.63998
3.34099
-13.8543
-15.0114
-13.4443
7.57223
24.7126
44.7038
62.4803
0.233371
-0.985871
0.94095
4.63744
7.65405
9.59056
9.57681
8.8826
6.21504
5.70396
5.64608
8.73917
-3.25475
-7.44947
-9.21371
5.86123
18.2578
36.4618
55.3418
-0.182549
-2.72319
-0.899973
2.88591
5.84578
8.1726
8.72095
8.8604
3.85311
5.91844
7.66703
14.1389
5.81598
-0.202796
-4.03605
4.2262
14.4537
43.5467
67.224
-0.721657
-4.76232
-2.99485
0.981057
3.92083
6.51631
7.5508
8.75302
1.35519
6.43401
9.72515
20.1088
13.4664
5.64166
0.151986
3.33194
8.75801
17.5611
20.1149
-1.11562
-6.74698
-5.0531
-0.88337
2.06591
4.77491
6.1409
8.39703
-0.7027
6.81378
11.0484
25.1258
18.2166
10.3017
3.58896
-0.602427
-6.0866
-9.58731
-1.87818
-1.68448
-8.28521
-6.77005
-2.48818
0.455183
3.09764
4.57177
7.48921
-2.19884
6.55837
11.3702
28.4034
19.6234
13.0047
5.48228
-2.91613
-7.48506
-4.23887
1.97488
-2.89032
-9.06035
-7.71548
-3.65395
-0.792389
1.59207
2.95563
6.04248
-3.09715
5.51713
10.9309
29.0553
17.8191
12.9009
4.91979
-6.21895
-9.65403
-5.67376
-0.553047
-3.29966
-9.25887
-7.90503
-4.4107
-1.63241
0.289649
1.23577
4.4231
-3.11863
3.98243
9.73947
25.9751
14.3784
10.9375
3.16067
-8.68706
-9.83378
-7.16913
-0.763248
-2.98691
-8.71685
-7.25044
-4.4503
-2.0881
-0.763096
-0.30457
2.84726
-2.83019
1.87237
7.8225
19.8724
9.3228
7.84599
1.32748
-9.50424
-10.1753
-8.1463
-1.42858
-2.62587
-7.51482
-6.06672
-4.10857
-2.27971
-1.62814
-1.38315
1.45629
-1.51863
-0.893523
5.4097
13.6908
4.9621
5.13416
0.80357
-7.48903
-8.15389
-6.45256
-1.10077
-2.10247
-4.78441
-3.71643
-2.35027
-1.31408
-1.0663
-0.867909
0.161599
-1.31307
-2.53456
1.60195
5.17854
1.0359
0.231289
-0.576897
-2.87592
-2.73957
-1.73013
-0.336192
41.7583
40.0236
38.9628
37.0564
33.3919
29.0651
23.659
18.7186
14.2135
10.5335
7.66179
5.65643
4.54877
4.33798
4.88951
6.16761
7.7616
9.39084
10.3498
11.5808
41.0676
37.4793
34.6756
31.5823
28.0805
24.4524
20.6303
16.5255
12.2461
7.98299
3.983
0.367653
-2.68373
-5.01479
-6.49779
-6.92469
-6.39687
-5.72246
-5.65071
-6.35949
94.848
91.7139
88.6632
86.2665
83.6582
80.9835
78.4903
76.0996
73.7726
71.3912
69.0009
66.5738
64.1563
61.8089
59.6457
57.8194
56.6236
56.5035
56.2829
52.5753
99.0028
99.2203
98.2941
98.4047
98.3902
98.161
97.6303
96.665
95.3299
93.4584
91.0679
88.0876
84.5753
80.6872
76.8716
73.7451
71.6824
70.6115
70.7837
69.1956
86.0815
87.6776
88.2586
89.3643
90.2697
91.2103
92.3239
93.3225
94.3205
95.0957
95.5847
95.5729
94.9326
93.6287
91.8679
90.1221
89.2299
89.0066
89.3909
88.9916
67.7894
70.05
71.3222
72.6144
73.9143
74.8429
75.9733
76.8825
77.8434
78.7555
79.6844
80.6497
81.6649
82.7339
83.8615
85.0211
86.1544
87.3132
88.1174
89.1361
46.2248
48.7472
50.887
52.4963
54.4315
55.7675
57.404
58.7548
60.1354
61.4256
62.6633
63.8645
65.0351
66.2126
67.3988
68.6701
69.9264
71.3612
72.4424
73.939
26.4027
28.6485
30.979
32.317
34.5392
35.918
37.8687
39.4599
41.1888
42.8273
44.4393
46.0171
47.55
49.0733
50.5626
52.1038
53.5651
55.1986
56.4321
58.2305
-0.683956
-0.196564
1.47915
1.5312
3.34347
3.84184
5.48754
6.54779
8.09217
9.54699
11.1805
12.885
14.6692
16.5346
18.4318
20.4801
22.5312
25.0607
27.2791
30.6267
-13.3275
-17.195
-17.3584
-20.2031
-20.7727
-23.311
-24.2981
-26.3407
-27.5015
-28.8142
-29.424
-29.5849
-29.1019
-28.109
-26.6863
-24.8937
-23.0581
-20.9421
-19.2043
-15.5657
21.6546
15.8648
14.5898
10.015
8.00849
3.68792
0.828534
-3.4315
-7.02059
-11.2049
-14.9004
-18.4603
-21.4147
-23.8122
-25.3993
-26.2697
-26.4173
-26.0858
-26.4519
-25.602
70.0843
66.6922
66.7908
63.7198
63.6266
61.0542
60.4199
58.3988
57.3104
55.6679
54.379
52.8635
51.3158
49.475
47.4283
45.2192
43.2382
42.311
41.1133
36.9975
80.8099
81.1704
82.6847
81.661
83.6545
82.7889
84.0184
83.4872
83.6497
82.9151
82.1149
80.8655
79.4287
77.8229
76.2135
74.7024
73.4352
72.5522
72.3358
70.6609
59.8224
61.3237
64.3464
63.9099
67.4248
67.5963
70.2264
71.3425
73.2315
74.6777
76.0949
77.1703
77.8281
77.9556
77.6248
77.0785
77.0033
77.7076
78.7458
79.5628
33.9775
34.3781
38.2627
37.0697
41.1774
41.0603
43.8765
45.121
47.1365
48.9334
50.8117
52.7262
54.6541
56.608
58.5479
60.5088
62.4054
64.4758
66.2107
68.4555
6.64986
4.31641
7.56464
4.34378
7.59407
5.88348
7.64796
7.65205
8.71669
9.55796
10.6645
11.8855
13.2469
14.7876
16.4997
18.5604
20.7551
23.38
25.7427
29.3108
23.5756
18.3436
20.0901
12.9746
12.6361
7.41838
4.92856
1.01088
-2.06915
-5.32941
-8.25797
-10.9898
-13.3688
-15.2126
-16.2476
-16.0886
-15.323
-14.1918
-13.5466
-11.2586
40.8423
32.8973
40.4378
32.639
33.8369
29.5835
27.3648
23.8202
20.5061
16.8524
13.1644
9.39308
5.70423
2.30376
-0.424264
-1.97559
-2.49597
-2.9842
-4.22404
-4.02165
63.992
41.3824
49.5181
38.4317
35.7825
29.1948
24.3791
19.2444
14.8657
11.0098
7.93365
5.69458
4.41482
4.2145
5.35309
7.89102
11.1801
14.8152
17.8748
18.8013
745.735
663.403
614.411
558.361
509.477
462.278
418.352
376.822
337.693
300.68
265.62
232.329
200.641
170.557
142.216
114.872
88.5867
67.2502
42.9241
6.01816
758.77
676.438
627.447
571.398
522.514
475.316
431.39
389.861
350.732
313.72
278.66
245.37
213.681
183.598
155.256
127.911
101.625
80.2856
55.9584
19.0538
77.042
54.4331
62.5691
51.4832
48.8344
42.2471
37.4318
32.2974
27.919
24.0633
20.9872
18.7481
17.4683
17.268
18.4073
20.9453
24.2336
27.8698
30.9302
31.856
53.902
45.9567
53.4968
45.6977
46.8955
42.6419
40.4231
36.8783
33.5641
29.9105
26.2225
22.4513
18.7629
15.3633
12.6368
11.0866
10.565
10.0746
8.83266
9.03103
36.6188
31.3839
33.1292
26.0118
25.6714
20.452
17.9599
14.0403
10.9582
7.69546
4.76446
2.03006
-0.351508
-2.19755
-3.23441
-3.07778
-2.31654
-1.18967
-0.54717
1.73757
19.6507
17.3132
20.559
17.3357
20.5827
18.8692
20.6305
20.6309
21.6923
22.5297
23.6327
24.8498
26.2076
27.7448
29.454
31.5126
33.706
36.331
38.6937
42.2614
46.9639
47.3629
51.2474
50.0538
54.1611
54.0435
56.8596
58.1041
60.1199
61.9172
63.7961
65.7114
67.64
69.5944
71.5347
73.4962
75.3936
77.4652
79.2013
81.448
72.8496
74.3494
77.3723
76.9343
80.4491
80.6199
83.2488
84.364
86.2508
87.695
89.1097
90.1825
90.8386
90.9662
90.638
90.0985
90.0323
90.745
91.7851
92.6033
93.8074
94.1713
95.6846
94.6621
96.6551
95.7907
97.0206
96.4921
96.6571
95.9272
95.1327
93.8908
92.4631
90.8677
89.2702
87.7717
86.516
85.638
85.4232
83.7539
83.2272
79.8446
79.9461
76.8819
76.7949
74.2294
73.6022
71.588
70.5061
68.8694
67.5844
66.0707
64.5216
62.6768
60.6232
58.4047
56.4156
55.487
54.2934
50.1754
34.8122
29.0208
27.7441
23.1668
21.158
16.8351
13.9735
9.71151
6.12131
1.93677
-1.75775
-5.31566
-8.26679
-10.6604
-12.2442
-13.1124
-13.2583
-12.9283
-13.2991
-12.4623
-0.242317
-4.11848
-4.2842
-7.13181
-7.70472
-10.2455
-11.2352
-13.2801
-14.4427
-15.757
-16.3685
-16.5319
-16.053
-15.0665
-13.6519
-11.8693
-10.0439
-7.93579
-6.20281
-2.56863
12.3415
12.8222
14.4948
14.5423
16.3505
16.8437
18.4845
19.5386
21.0766
22.5241
24.15
25.8465
27.6228
29.4808
31.3715
33.4155
35.4639
37.9941
40.2143
43.5626
39.4227
41.6671
43.9963
45.3324
47.5532
48.9301
50.8792
52.4686
54.1959
55.8327
57.4433
59.0199
60.552
62.0749
63.5644
65.1059
66.5677
68.2013
69.4346
71.2338
59.2702
61.7893
63.9268
65.533
67.4653
68.7982
70.4315
71.7789
73.1561
74.4431
75.6778
76.8765
78.0449
79.2205
80.4044
81.6727
82.9253
84.356
85.4331
86.9265
80.7623
83.0224
84.2931
85.5835
86.8832
87.8117
88.9429
89.854
90.8178
91.7343
92.6688
93.6385
94.6569
95.7277
96.8529
98.0089
99.1383
100.296
101.098
102.115
99.2311
100.825
101.401
102.503
103.403
104.335
105.439
106.425
107.407
108.166
108.632
108.598
107.944
106.628
104.868
103.144
102.273
102.06
102.437
102.027
111.958
112.186
111.22
111.3
111.265
111.018
110.464
109.474
108.122
106.245
103.866
100.923
97.4735
93.6643
89.9321
86.8668
84.8248
83.7142
83.8183
82.2038
108.729
105.635
102.493
100.034
97.3773
94.6519
92.1119
89.6948
87.3546
84.9557
82.5285
80.0385
77.531
75.0685
72.7463
70.7247
69.3429
69.0026
68.667
65.0022
55.8826
52.3961
49.5121
46.4017
42.9196
39.3401
35.6075
31.5972
27.3535
23.0561
18.9911
15.2999
12.1801
9.80077
8.22541
7.72555
8.27761
8.98855
9.17324
8.29123
59.9175
58.4738
57.5449
55.9665
52.656
48.696
43.6589
38.4633
33.4393
29.3255
26.0637
23.7015
22.2833
21.819
22.147
23.2188
24.696
26.1723
26.8696
27.693
)
;

boundaryField
{
    outletWall
    {
        type            fixedValue;
        value           uniform 0;
    }
    fineWalls
    {
        type            zeroGradient;
    }
    fineFrontAndBack
    {
        type            zeroGradient;
    }
    fineplugLeft
    {
        type            cyclicAMI;
        value           nonuniform List<scalar> 
20
(
12.7327
12.6526
12.3986
11.7482
11.1316
10.7038
10.7875
11.3722
12.5468
14.2521
16.6353
19.5506
22.1361
24.4571
31.4945
33.3035
33.8711
31.4171
29.0036
28.8961
)
;
    }
    fineplugRight
    {
        type            cyclicAMI;
        value           nonuniform List<scalar> 
20
(
25.0726
25.4884
25.451
25.0203
24.5677
24.4045
24.7785
25.6936
27.2604
29.4377
32.3156
35.6892
39.0948
45.574
52.2335
53.6983
53.8867
51.0984
48.5213
48.1683
)
;
    }
    inletOutletLeft
    {
        type            cyclicAMI;
        value           nonuniform List<scalar> 
20
(
12.7327
12.6526
12.3986
11.7482
11.1316
10.7038
10.7875
11.3722
12.5468
14.2521
16.6353
19.5506
22.1361
24.4571
31.4945
33.3035
33.8711
31.4171
29.0036
28.8961
)
;
    }
    inletLeft
    {
        type            zeroGradient;
    }
    inletWallsLeft
    {
        type            zeroGradient;
    }
    inletFacesLeft
    {
        type            zeroGradient;
    }
    inletOutletRight
    {
        type            cyclicAMI;
        value           nonuniform List<scalar> 
20
(
25.0726
25.4884
25.451
25.0203
24.5677
24.4045
24.7785
25.6936
27.2604
29.4377
32.3156
35.6892
39.0948
45.574
52.2335
53.6983
53.8867
51.0984
48.5213
48.1683
)
;
    }
    inletRight
    {
        type            zeroGradient;
    }
    inletWallsRight
    {
        type            zeroGradient;
    }
    inletFacesRight
    {
        type            zeroGradient;
    }
}


// ************************************************************************* //
