/*--------------------------------*- C++ -*----------------------------------*\
| =========                 |                                                 |
| \\      /  F ield         | OpenFOAM: The Open Source CFD Toolbox           |
|  \\    /   O peration     | Version:  4.1                                   |
|   \\  /    A nd           | Web:      www.OpenFOAM.org                      |
|    \\/     M anipulation  |                                                 |
\*---------------------------------------------------------------------------*/
FoamFile
{
    version     2.0;
    format      ascii;
    class       surfaceScalarField;
    location    "24";
    object      phi;
}
// * * * * * * * * * * * * * * * * * * * * * * * * * * * * * * * * * * * * * //

dimensions      [0 3 -1 0 0 0 0];

internalField   nonuniform List<scalar> 
2360
(
2131.85
4057.73
-1925.88
4057.73
4057.73
5688.34
-1630.61
5688.34
5688.34
5688.34
7211.27
-1522.93
7211.27
7211.27
8864.78
-1653.51
8864.78
8864.78
10851.5
-1986.75
10851.5
10851.5
14381.7
-3530.17
14381.7
14381.7
14721.8
15696.3
17283
19150.8
20992.5
22695
16266.4
8033.89
17722.7
19058.5
20273.8
21368.8
22343
23195.4
23925.1
24532.4
25018.9
25393.4
25669
25844.6
25847.7
11462.6
14385
11462.6
11462.6
11462.6
1834.88
9627.74
1834.88
1834.88
1834.88
-111.782
1946.67
-111.762
-111.752
-7538.56
7426.8
-7538.56
-7538.56
-7538.56
-19654
12115.4
-19654
-19654
-19654
-29654.3
10000.4
-29572
-29358.1
-29057.9
-28668.5
-28173.4
-27563
-26835
-25988.3
-25022.9
-23939.1
-22736.9
-21415.4
-19975.1
-22702.3
4317.22
-21000.4
-19159.7
-17297
-15725
-14777.2
-14471.5
-14471.5
-14471.5
-8751.65
-5719.89
-8751.65
-8751.65
-4103.56
-4648.09
-4103.56
-4103.56
278.916
-4382.48
278.918
278.918
4402.6
-4123.68
4402.6
4402.6
4402.6
8567.58
-4164.98
8567.58
8567.58
12764.2
-4196.62
2417.6
-1934.46
2409.24
-2698.94
2280.66
-3775.01
1722.37
-5878.49
846.687
-8294.07
-200.005
-9200.29
-1992.44
-9570.12
-4200.81
-9705.01
-5929.93
-10951.5
-6984.37
-14039.3
-6919.45
-18179.5
-4580.56
-19168.3
-585.393
-3999.3
1025.13
19023.8
2074.83
25977
3168.41
27738.1
4092.35
25903.2
4589.68
18653.1
6384.61
2733.07
-1893.12
2560.09
-2525.96
2195.74
-3410.66
1405.53
-5088.27
25.1
-6913.65
-1841.26
-7333.93
-3982.34
-7429.05
-5917.49
-7769.85
-7220.85
-9648.1
-7861.94
-13398.2
-7679.96
-18361.5
-5659.96
-21188.3
-1146.6
-8512.65
840.313
17036.9
1695.73
25121.6
2828.43
26605.4
3828.23
24903.4
4401.32
18080
6620.96
2801.62
-1830.63
2538.77
-2263.11
2018.84
-2890.73
1118.1
-4187.54
-513.037
-5282.51
-2654.12
-5192.85
-4631.34
-5451.83
-6086.47
-6314.73
-6881.59
-8852.97
-7112.32
-13167.5
-6979.05
-18494.8
-5827.27
-22340.1
-1968.86
-12371.1
370.012
14698
1121.96
24369.7
2262.58
25464.7
3376.66
23789.4
4003.65
17453
6500.92
3011.24
-1765.32
2708.66
-1960.53
2072.23
-2254.3
943.392
-3058.7
-968.928
-3370.19
-3218.08
-2943.7
-4984.77
-3685.14
-6030.73
-5268.77
-6388.28
-8495.43
-6294.67
-13261.1
-6200.79
-18588.7
-5800.19
-22740.7
-3229.53
-14941.7
-663.883
12132.4
428.638
23277.2
1423.03
24470.3
2688.61
22523.8
3573.28
16568.4
5691.72
3363.47
-1698.59
3025.44
-1622.51
2280.06
-1508.92
925.787
-1704.42
-1127.65
-1316.75
-3359.29
-712.067
-4903.42
-2141
-5650.42
-4521.76
-5795.42
-8350.42
-5606.01
-13450.5
-5638.28
-18556.4
-5924.88
-22454.1
-4809.91
-16056.7
-2098.21
9420.65
-556.779
21735.7
285.759
23627.8
1765.23
21044.3
3093.57
15240
4137.2
3828.74
-1631.09
3463.56
-1257.33
2635.57
-680.923
1190.1
-258.96
-713.962
587.316
-2943.54
1517.51
-4545.65
-538.895
-5327.97
-3739.45
-5588.72
-8089.67
-5534.47
-13504.7
-5736.83
-18354.1
-6485.91
-21705
-6467.71
-16074.9
-3928.78
6881.72
-2010.76
19817.7
-1028.96
22646
483.941
19531.4
2791.68
12932.3
1209
4305.94
-1568.22
3925.34
-876.722
3098.15
146.26
1784.15
1055.04
24.3338
2347.13
-2213.28
3755.13
-4134.57
1382.39
-5231.76
-2642.26
-5759.59
-7561.84
-5887.56
-13376.7
-6248.06
-17993.6
-7348.49
-20604.5
-8157.26
-15266.1
-6107.9
4832.36
-3930.82
17640.6
-2663.54
21378.7
-1123.41
17991.3
1226.36
10582.5
6752.57
4730.68
-1520.6
4353
-499.044
3566.6
932.661
2322.72
2298.92
599.725
4070.13
-1461.36
5816.22
-3630.5
3551.53
-5249.37
-1023.39
-6068.26
-6742.95
-6327.09
-13117.9
-6812.74
-17507.9
-8255.51
-19161.8
-9745.11
-13776.5
-8308.48
3395.74
-6101.42
15433.6
-4393.77
19671.1
-2723.92
16321.4
-3910.22
11768.8
12842.7
5085.28
-1501.84
4717.99
-131.755
3954.49
1696.16
2744.33
3509.08
1059.48
5754.98
-831.475
7707.18
-3041.57
5761.63
-5179.16
1114.2
-6323.54
-5598.58
-6676.48
-12765
-7284.59
-16899.8
-9096.82
-17349.5
-11058.7
-11814.7
-9960.59
2297.65
-7810.89
13283.9
-6332.34
18192.5
-6935.49
16924.6
-10479.1
15312.4
14479
5343.33
-1528.98
4992.91
218.666
4241.06
2448
3091.22
4658.92
1542.31
7303.9
-198.665
9448.15
-2328.22
7891.18
-4863.92
3649.9
-6470.47
-3992.03
-6930.2
-12305.2
-7699.53
-16130.5
-9948.58
-15100.5
-12509.3
-9253.95
-12045.6
1833.92
-10438
11676.3
-10025.8
17780.3
-11590.7
18489.4
-12199.2
15921
9706.62
5444.99
-1620.49
5125.23
538.429
4396.14
3177.09
3342.7
5712.37
2046.41
8600.19
537.357
10957.2
-1480.87
9909.42
-4309.79
6478.82
-6514.78
-1787.05
-7085.08
-11734.9
-8029.5
-15186
-10697.1
-12432.9
-13870.2
-6080.89
-14547.6
2511.39
-13893.3
11022
-13492.9
17379.8
-12991.3
17987.9
-9457.25
12386.9
2196.04
5311.95
-1804.08
5047.59
802.792
4374.64
3850.04
3452.33
6634.67
2445.59
9606.93
1279.84
12122.9
-523.11
11712.4
-3515.43
9471.15
-6415.71
1113.23
-7091.8
-11058.8
-8130.79
-14147.1
-11063.2
-9500.53
-14281.5
-2862.58
-15407.8
3637.74
-15378.5
10992.6
-14696
16697.4
-13442.4
16734.3
-11781.4
10725.9
42.4083
4792.63
-2145.72
4663.38
932.032
4118.92
4394.5
3368.79
7384.81
2627.99
10347.7
1834.98
12916
343.235
13204.1
-2654.45
12468.8
-6097.73
4556.52
-6898.89
-10257.7
-7835.03
-13210.9
-10960.4
-6375.16
-14432.7
609.679
-15775.2
4980.23
-16188.3
11405.8
-16325.3
16834.3
-16570.7
16979.8
-16466.6
10621.7
-2039.11
3615.73
-2853.3
3846.79
700.967
3596.07
4645.23
3067.3
7913.58
2556.13
10858.9
2068.16
13403.9
872.262
14400
-1991.76
15332.9
-5664.09
8228.84
-6503.51
-9418.26
-6969.39
-12745
-9492.06
-3852.5
-13200.7
4318.29
-15169
6948.6
-15899
12135.7
-15503.9
16439.3
-13052.6
14528.5
-8025.02
5594.14
-2030.24
1817.11
-4268.96
2639.13
-121.048
2849.76
4434.6
2568.6
8194.74
2276.72
11150.8
2021.25
13659.4
1012.48
15408.8
-1641.94
17987.3
-5177.69
11764.6
-5965.05
-8630.9
-5859.8
-12850.3
-6906.96
-2805.33
-10319.6
7730.97
-12785.9
9414.9
-13489.5
12839.3
-12005.9
14955.6
-7242.99
9765.55
-911.155
-737.703
-6471.57
171.585
-6264.11
1454.4
-1403.86
1993.56
3895.44
1956.94
8231.36
1916.47
11191.2
1837.07
13738.8
826.99
16418.9
-1638.6
20452.9
-4688.42
14814.4
-5330.49
-7988.82
-4916.11
-13264.7
-4225.11
-3496.33
-6593.54
10099.4
-9110.26
11931.6
-9652.04
13381.1
-7589.49
12893.1
-2834.02
5010.08
667.146
-4238.87
-7791.17
-2167.9
-7766.78
-135.395
-3436.37
1015.76
2744.28
1392.12
7855
1644.46
10938.9
1594.99
13788.3
324.766
17689.1
-1966.76
22744.4
-4256.79
17104.4
-4661.22
-7584.39
-4220.22
-13705.7
-2250.26
-5466.3
-2951.54
10800.7
-5072.9
14053
-5780.12
14088.3
-4128.52
11241.5
-821.267
1702.82
1037.58
-6097.72
-8407.1
-4280.18
-9000.36
-1715.31
-6001.24
145.721
883.255
931.366
7069.36
1381.35
10488.9
1026.44
14143.2
-610.981
19326.5
-2556.79
24690.2
-3945.03
18492.7
-4061.82
-7467.6
-3632.91
-14134.6
-1227.36
-7871.85
-297.972
9871.3
-1261.03
15016
-2217.81
15045.1
-1583.9
10607.6
476.255
-357.332
1512.17
-7133.64
-8417.85
-5984.09
-9853.46
-3793.91
-8191.42
-1187.22
-1723.44
474.339
5407.8
846.063
10117.2
-34.4145
15023.7
-1774.12
21066.2
-3157.46
26073.5
-3663.86
18999.1
-3579.22
-7552.24
-3179.99
-14533.8
-1022.71
-10029.1
902.184
7946.41
1684.31
14233.9
1358.83
15370.6
1639.65
10326.8
2240.08
-957.767
1962.83
-6856.39
-8085.63
-6980.79
-5693
-3723.51
-2227.17
-2073.19
-2684.76
-3570.72
-4043.44
-3726.31
-3217.16
-2879.03
-1549.03
588.797
2407.86
3097.87
3433.89
3082.83
2239.83
239.028
-579.186
621.599
-1357.08
917.327
-1882.34
1101.31
-2051.79
1216.37
-1956.78
1302.59
-1788.77
1324.35
-1627.06
1347.88
-1479.83
1350.03
-1337.98
1332.5
-1197.7
1293.97
-1056.56
1231.2
-911.417
1140.02
-761.178
1015.54
-605.225
851.504
-443.28
647.884
-282.872
425.081
-151.729
218.952
-69.5098
73.8222
-30.4291
70.7122
421.472
-1000.66
841.168
-1776.78
881.965
-1923.14
657.347
-1827.17
379.856
-1679.29
143.958
-1552.88
-46.6713
-1436.44
-215.532
-1310.98
-372.955
-1180.56
-523.526
-1047.13
-669.194
-910.902
-810.692
-769.926
-946.462
-625.412
-1071.09
-480.609
-1172.53
-341.834
-1221.79
-233.62
-1164.56
-208.951
-937.876
-296.196
-526.876
-441.425
-456.164
196.264
-1196.93
385.623
-1966.14
281.565
-1819.09
36.1537
-1581.77
-209.345
-1433.8
-430.613
-1331.62
-640.172
-1226.89
-843.875
-1107.28
-1044.95
-979.494
-1246.91
-845.175
-1449.41
-708.406
-1644.45
-574.884
-1811.34
-458.532
-1910.34
-381.611
-1882.82
-369.349
-1676.77
-439.676
-1289.29
-596.435
-781.508
-803.975
-285.43
-937.505
-741.594
-64.4116
-1132.52
-109.211
-1921.34
-186.072
-1742.23
-248.949
-1518.89
-311.843
-1370.91
-389.92
-1253.54
-467.842
-1148.96
-535.008
-1040.12
-586.694
-927.809
-621.467
-810.404
-639.079
-690.795
-639.235
-574.729
-618.614
-479.154
-569.124
-431.103
-476.306
-462.169
-333.009
-582.974
-168.986
-760.461
-44.0543
-928.908
-2.47028
-979.091
-744.064
-143.648
-988.882
-134.265
-1930.73
-28.9739
-1847.53
62.7826
-1610.66
122.517
-1430.65
165.325
-1296.36
210.765
-1194.41
268.92
-1098.28
346.33
-1005.23
448.26
-912.342
576.848
-819.388
728.432
-726.319
886.778
-637.503
1018.18
-562.514
1075.66
-519.643
1020.04
-527.355
842.161
-582.585
568.512
-655.258
265.482
-676.06
-478.582
-87.2598
-901.621
-54.3383
-1963.65
45.1388
-1947
123.678
-1689.19
195.672
-1502.64
268.444
-1369.13
342.286
-1268.25
416.852
-1172.85
492.799
-1081.17
571.967
-991.511
656.615
-904.034
748.469
-818.174
843.741
-732.772
929.466
-648.238
979.047
-569.223
956.205
-504.511
836.368
-462.747
614.961
-433.848
326.794
-387.89
-151.788
52.3166
-953.939
87.9641
-1999.3
142.278
-2001.32
194.304
-1741.22
254.319
-1562.66
317.44
-1432.25
380.47
-1331.28
439.455
-1231.83
493.08
-1134.8
539.508
-1037.94
577.591
-942.116
607.183
-847.767
629.649
-755.237
645.48
-664.07
650.237
-573.978
629.177
-483.45
561.02
-394.589
425.224
-298.05
217.763
-180.426
65.9754
227.346
-1181.28
305.182
-2077.13
326.465
-2022.6
357.031
-1771.79
412.774
-1618.4
475.348
-1494.83
542.249
-1398.18
607.849
-1297.43
670.721
-1197.67
725.138
-1092.35
766.074
-983.051
788.537
-870.227
789.179
-755.879
766.058
-640.947
718.487
-526.407
644.467
-409.427
539.025
-289.149
391.565
-150.59
196.329
14.8097
262.304
362.402
-1543.69
439.851
-2154.58
421.108
-2003.86
439.031
-1789.71
500.993
-1680.36
572.837
-1566.67
656.556
-1481.9
742.216
-1383.09
827.559
-1283.01
900.625
-1165.42
954.73
-1037.16
983.364
-898.862
983.691
-756.205
952.577
-609.834
885.866
-459.695
778.479
-302.042
623.026
-133.694
407.197
65.2423
200.888
221.121
463.192
319.006
-1862.69
281.814
-2117.39
222.193
-1944.23
219.288
-1786.8
252.639
-1713.71
294.854
-1608.89
352.828
-1539.87
413.997
-1444.26
472.626
-1341.64
511.985
-1204.78
525.384
-1050.56
507.956
-881.434
462.379
-710.628
389.237
-536.691
287.794
-358.252
170.264
-184.511
71.751
-35.1812
3.46461
133.528
-72.3304
296.916
390.862
74.1547
-1936.85
-72.579
-1970.66
-169.783
-1847.03
-243.958
-1712.63
-310.011
-1647.66
-373.969
-1544.93
-433.034
-1480.81
-490.854
-1386.44
-551.393
-1281.1
-620.165
-1136.01
-700.767
-969.954
-793.279
-788.922
-893.115
-610.794
-992.147
-437.66
-1077.9
-272.5
-1131.78
-130.629
-1120.97
-45.9937
-962.243
-25.2033
-584.042
-81.2871
-193.18
-110.707
-1826.14
-219.056
-1862.3
-317.792
-1748.29
-439.918
-1590.5
-566.319
-1521.26
-708.665
-1402.58
-862.845
-1326.63
-1025.71
-1223.57
-1187.43
-1119.38
-1337.36
-986.076
-1472.18
-835.126
-1590.83
-670.274
-1691.45
-510.169
-1758.08
-371.034
-1753.13
-277.445
-1629.03
-254.73
-1359.21
-315.81
-931.931
-452.486
-402.941
-610.277
-596.121
-61.4676
-1764.67
-64.1613
-1859.61
-87.3802
-1725.07
-138.053
-1539.82
-189.464
-1469.84
-258.415
-1333.62
-339.602
-1245.44
-429.562
-1133.61
-513.905
-1035.03
-573.181
-926.798
-592.637
-815.669
-564.162
-698.748
-490.604
-583.726
-379.44
-482.197
-241.382
-415.501
-85.8484
-410.264
65.3283
-466.985
161.546
-548.703
136.429
-585.16
-459.693
53.1193
-1817.78
94.6769
-1901.16
140.334
-1770.72
179.035
-1578.52
218.31
-1509.12
256.657
-1371.97
290.946
-1279.72
325.53
-1168.19
360.683
-1070.18
406.644
-972.754
471.72
-880.743
564.957
-791.98
686.203
-704.97
822.532
-618.522
939.821
-532.789
982.402
-452.843
901.565
-386.148
683.154
-330.291
361.252
-263.256
-98.4411
104.204
-1921.98
121.521
-1918.48
169.544
-1818.75
222.469
-1631.44
279.736
-1566.38
340.04
-1432.27
404.108
-1343.79
472.826
-1236.91
544.572
-1141.93
617.596
-1045.78
689.035
-952.18
755.787
-858.73
814.055
-763.237
857.193
-661.659
874.908
-550.503
849.292
-427.226
764.413
-301.268
591.6
-157.477
326.823
1.52222
228.382
102.487
-2024.47
89.2099
-1905.2
126.747
-1856.28
171.747
-1676.44
223.132
-1617.77
279.38
-1488.51
341.805
-1406.22
409.787
-1304.88
485.342
-1217.48
567.538
-1127.97
655.59
-1040.23
743.819
-946.957
821.178
-840.597
867.67
-708.148
855.734
-538.567
768.186
-339.677
626.42
-159.503
422.477
46.4638
218.766
205.231
447.148
4.78516
-2029.25
-50.4059
-1850.01
-69.084
-1837.6
-69.6916
-1675.83
-67.4116
-1620.04
-46.6803
-1509.24
-19.148
-1433.75
22.2963
-1346.33
74.5055
-1269.69
138.999
-1192.46
214.031
-1115.26
294.331
-1027.26
366.283
-912.546
401.821
-743.686
360.358
-497.102
231.106
-210.423
88.3906
-16.7813
27.8254
107.036
-36.4362
269.496
410.712
-175.215
-1854.04
-372.36
-1652.86
-533.634
-1676.33
-654.962
-1554.5
-766.925
-1508.08
-847.43
-1428.74
-914.819
-1366.36
-961.58
-1299.56
-993.597
-1237.67
-1009.74
-1176.31
-1011.16
-1113.84
-996.638
-1041.78
-963.086
-946.098
-901.822
-804.95
-799.317
-599.606
-654.144
-355.596
-512.616
-158.309
-386.351
-19.2287
-245.613
128.759
165.099
-214.229
-1639.81
-481.356
-1385.73
-762.65
-1395.03
-1006.2
-1310.95
-1242.03
-1272.25
-1448.54
-1222.23
-1634.65
-1180.24
-1796.38
-1137.83
-1936.54
-1097.51
-2054.84
-1058.01
-2149.78
-1018.91
-2213.73
-977.83
-2229
-930.83
-2161.16
-872.785
-1962.01
-798.761
-1610.18
-707.422
-1166.27
-602.22
-711.828
-473.672
-281.088
-301.981
-115.989
-664.808
-1075.54
-1495.58
-1831.53
-2128.78
-2376.01
-2581.25
-2744.08
-2866.6
-2949.6
-2993.51
-2996.34
-2952.17
-2849.96
-2673.72
-2406.14
-2033.36
-1532.03
-859.011
-664.795
1639.79
-1075.51
1385.72
-1495.53
1395.01
-1831.46
1310.93
-2128.69
1272.23
-2375.9
1222.21
-2581.12
1180.22
-2743.93
1137.81
-2866.42
1097.49
-2949.4
1057.98
-2993.28
1018.88
-2996.08
977.799
-2951.88
930.8
-2849.64
872.765
-2673.41
798.768
-2405.89
707.475
-2033.22
602.328
-1532
473.786
-859.044
302.041
115.956
-214.213
1854
-481.335
1652.84
-762.62
1676.3
-1006.17
1554.48
-1241.99
1508.05
-1448.5
1428.71
-1634.62
1366.33
-1796.35
1299.54
-1936.52
1237.65
-2054.84
1176.3
-2149.79
1113.82
-2213.73
1041.74
-2228.94
946.016
-2160.98
804.806
-1961.66
599.446
-1609.79
355.602
-1165.99
158.523
-711.564
19.3629
-280.875
-128.649
-164.919
-175.261
2029.26
-372.43
1850
-533.74
1837.6
-655.115
1675.85
-767.124
1620.06
-847.684
1509.27
-915.134
1433.78
-961.966
1346.37
-994.062
1269.75
-1010.3
1192.53
-1011.81
1115.33
-997.38
1027.3
-963.893
912.527
-902.618
743.53
-799.986
496.812
-654.609
210.223
-512.918
16.8298
-386.609
-106.948
-245.678
-269.582
-410.598
4.70107
2024.56
-50.5397
1905.24
-69.2844
1856.35
-69.9625
1676.52
-67.757
1617.85
-47.1014
1488.61
-19.6487
1406.33
21.7181
1305.01
73.847
1217.62
138.257
1128.12
213.199
1040.39
293.395
947.106
365.216
840.705
400.584
708.161
358.96
538.434
229.758
339.423
87.462
159.121
27.3822
-46.873
-36.7091
-205.493
-447.307
102.49
1922.07
89.1548
1918.57
126.665
1818.84
171.644
1631.54
223.014
1566.48
279.252
1432.37
341.675
1343.9
409.658
1237.02
485.228
1142.05
567.447
1045.9
655.537
952.299
743.808
858.833
821.202
763.309
867.679
661.681
855.654
550.458
767.969
427.107
626.022
301.068
421.97
157.177
218.443
-1.96775
-228.864
104.318
1817.75
121.58
1901.31
169.602
1770.81
222.533
1578.61
279.823
1509.19
340.131
1372.06
404.216
1279.82
472.939
1168.3
544.697
1070.29
617.728
972.867
689.17
880.857
755.915
792.089
814.153
705.071
857.218
618.616
874.794
532.882
849.031
452.869
764.08
386.019
591.31
329.947
326.624
262.718
97.7593
53.2512
1764.5
94.7901
1859.77
140.483
1725.12
179.261
1539.83
218.62
1469.83
257.079
1333.6
291.511
1245.38
326.261
1133.54
361.588
1034.96
407.693
926.759
472.865
815.684
566.122
698.831
687.303
583.889
823.462
482.457
940.46
415.883
982.69
410.639
901.633
467.075
683.186
548.394
361.271
584.633
459.03
-61.1769
1825.67
-63.6197
1862.21
-86.568
1748.07
-136.942
1590.21
-188.057
1520.95
-256.681
1402.23
-337.53
1326.23
-427.132
1223.15
-511.118
1118.95
-570.046
985.687
-589.17
834.808
-560.394
670.056
-486.56
510.057
-375.145
371.044
-236.906
277.646
-81.4802
255.217
69.0076
316.588
164.003
453.4
137.456
611.181
596.486
-110.934
1936.6
-219.094
1970.37
-317.786
1846.76
-439.95
1712.37
-566.392
1647.39
-708.827
1544.66
-863.116
1480.52
-1026.1
1386.13
-1187.92
1280.76
-1337.88
1135.65
-1472.64
969.577
-1591.15
788.565
-1691.56
610.465
-1757.86
437.339
-1752.49
272.275
-1628.02
130.751
-1357.91
46.4766
-930.513
26.0051
-402
82.6708
194.486
73.5676
1863.04
-73.2247
2117.16
-170.513
1944.05
-244.871
1786.72
-311.156
1713.67
-375.375
1608.88
-434.742
1539.89
-492.886
1444.27
-553.746
1341.62
-622.812
1204.71
-703.662
1050.43
-796.373
881.277
-896.369
710.463
-995.525
536.495
-1081.32
358.074
-1135.05
184.48
-1123.73
35.1612
-964.072
-133.654
-584.641
-296.759
-390.155
318.719
1544.32
281.23
2154.65
221.455
2003.82
218.391
1789.79
251.538
1680.52
293.548
1566.87
351.298
1482.14
412.229
1383.34
470.594
1283.25
509.676
1165.63
522.802
1037.3
505.142
898.936
459.402
756.204
386.157
609.739
284.748
459.484
167.544
301.684
69.6616
133.045
1.98645
-65.9781
-73.2396
-221.532
-463.395
362.675
1181.65
440.068
2077.26
421.196
2022.69
439.054
1771.93
500.987
1618.59
572.823
1495.03
656.555
1398.41
742.237
1297.66
827.597
1197.9
900.669
1092.56
954.76
983.211
983.374
870.324
983.682
755.897
952.555
640.869
885.815
526.224
778.365
409.135
622.671
288.739
406.609
150.084
200.535
-15.4574
-262.86
227.829
953.818
305.79
1999.3
326.962
2001.52
357.468
1741.43
413.21
1562.85
475.796
1432.45
542.719
1331.49
608.348
1232.04
671.255
1134.99
725.704
1038.11
766.662
942.255
789.122
847.865
789.726
755.294
766.52
664.075
718.82
573.925
644.635
483.32
539.044
394.331
391.522
297.606
196.289
179.777
-66.5711
52.743
901.079
88.4655
1963.58
142.643
1947.35
194.53
1689.55
254.447
1502.94
317.492
1369.41
380.46
1268.52
439.396
1173.1
492.969
1081.42
539.332
991.754
577.305
904.283
606.754
818.419
629.039
733.01
644.622
648.494
649.099
569.449
627.875
504.545
559.799
462.407
424.331
433.074
217.296
386.811
150.725
-86.5495
987.631
-53.611
1930.65
45.7953
1847.94
124.258
1611.09
196.177
1431.02
268.889
1296.7
342.643
1194.77
417.024
1098.73
492.637
1005.81
571.356
913.039
655.506
820.134
746.725
727.203
841.49
638.246
927.057
562.929
976.656
519.85
954.193
527.009
835.036
581.564
614.322
653.787
326.566
674.566
477.291
-142.541
1130.17
-133.095
1921.2
-27.8853
1742.74
64.1634
1519.04
124.346
1370.84
167.583
1253.47
213.389
1148.96
271.848
1040.27
349.455
928.201
451.525
810.972
580.237
691.421
731.942
575.501
890.363
479.823
1021.59
431.703
1078.44
462.996
1022.09
583.365
843.823
759.824
570.185
927.421
267.109
977.638
744.4
-60.8839
1191.06
-103.688
1964.01
-179.989
1819.04
-242.322
1581.38
-303.318
1431.84
-378.501
1328.65
-453.486
1223.95
-517.804
1104.59
-566.617
977.016
-598.49
842.848
-613.255
706.188
-610.547
572.795
-587.47
456.749
-536.541
380.776
-443.76
370.217
-302.928
442.534
-144.397
601.298
-28.0073
811.034
4.42123
945.213
748.821
202.844
988.216
401.631
1765.22
303.618
1917.05
59.4324
1825.56
-187.12
1678.39
-409.084
1550.62
-618.293
1433.16
-820.496
1306.8
-1019.02
1175.54
-1217.83
1041.66
-1417.08
905.441
-1608.97
764.678
-1772.81
620.594
-1869.02
476.98
-1838.84
340.04
-1627.09
230.785
-1232.2
206.404
-731.811
310.65
-262.867
476.269
485.955
438.455
549.761
872.196
1331.48
922.95
1866.3
703.779
2044.73
428.735
1953.43
194.824
1784.53
6.25396
1621.73
-161.163
1474.21
-317.508
1331.88
-467.668
1191.82
-613.552
1051.32
-756.1
907.226
-893.935
758.428
-1021.65
604.696
-1127.04
445.427
-1180.51
284.255
-1127.14
153.039
-905.359
88.8658
-503.137
74.0465
-17.1821
244.122
627.76
922.063
1104.14
1216.87
1299.48
1331.17
1365.11
1375.48
1365.07
1332.61
1274.49
1186.2
1062.91
897.904
687.066
450.712
239.322
99.4831
)
;

boundaryField
{
    outletWall
    {
        type            calculated;
        value           nonuniform List<scalar> 
60
(
12764.2
-5991.55
-19150.5
-26827.2
-28831.6
-27026.7
-20634.3
4.13229
16829.4
18114.6
15093.7
12680.6
11913.4
11362.6
10247
9169.76
6436.78
3903.6
2707.31
1927.85
7501.41
6837.19
5513.76
3670.57
1823.56
-401.457
-2908.15
-4450.98
-5128.36
-5353.48
-5316.18
-5104.04
-4778.3
-4368.81
-3896.24
-3430.2
-3076.56
-2864.11
-2774.41
-2411
-2131.85
-7771.67
-6013.39
-606.708
9990.76
14680.6
12414.8
5808.57
-11359.1
-14871.9
-8061.39
18681.9
26546.3
21952.2
15635.2
9963.21
3911.45
-3692.93
-9479.2
-10374.1
)
;
    }
    fineWalls
    {
        type            calculated;
        value           uniform 0;
    }
    fineFrontAndBack
    {
        type            calculated;
        value           nonuniform List<scalar> 
960
(
-1.45853e-12
-1.00831e-11
-1.90374e-12
-1.70417e-12
-9.40864e-12
-1.56891e-12
-1.47404e-12
-1.71933e-12
-9.97135e-12
-1.98218e-12
-1.73903e-12
-1.36047e-11
-3.01957e-12
-3.0408e-12
-2.356e-11
-5.30085e-12
-4.99048e-12
-2.11157e-11
-2.58708e-12
-2.27697e-12
-2.95225e-13
5.0057e-14
2.18334e-13
2.18251e-13
2.07184e-13
2.06279e-13
5.65209e-13
1.63064e-13
1.10246e-13
2.31338e-14
-8.75795e-14
-2.02724e-13
-2.98625e-13
-3.84018e-13
-4.55488e-13
-5.30118e-13
-5.9539e-13
-7.02189e-13
-7.86772e-13
-1.00321e-12
-2.2284e-11
-1.99749e-12
-1.21432e-12
-2.54248e-13
1.27658e-11
4.40947e-12
7.09957e-12
4.28553e-12
2.5067e-10
6.67732e-11
6.4171e-11
4.96445e-11
-1.94734e-12
1.63335e-13
3.73787e-13
1.05559e-11
2.88369e-12
3.62295e-12
4.54768e-12
3.24417e-11
1.16332e-12
9.51791e-13
8.44817e-13
7.0554e-13
5.85511e-13
4.36864e-13
2.88828e-13
1.45667e-13
1.29659e-14
-1.04581e-13
-2.01573e-13
-2.65669e-13
-2.94165e-13
-7.15885e-12
-3.1176e-13
-2.55705e-13
-2.38973e-13
-2.47259e-13
-1.504e-13
2.01304e-14
-3.38345e-13
-5.46712e-13
-1.82935e-12
1.45979e-12
1.75384e-12
4.975e-12
-2.60039e-13
-1.28423e-12
-1.73667e-11
-5.18729e-12
-1.7387e-12
2.6733e-12
8.60283e-12
1.55967e-11
2.9344e-11
1.49898e-10
2.03793e-11
1.16412e-11
1.24422e-11
-4.54275e-12
1.33755e-11
1.33339e-11
1.32335e-11
1.28241e-11
1.25812e-11
1.17471e-11
8.59612e-12
1.50146e-11
3.61789e-11
4.87059e-11
4.68228e-11
3.77395e-11
3.51931e-11
4.64127e-11
4.386e-11
2.84977e-11
3.00959e-12
-1.71888e-11
-2.68234e-11
1.2958e-11
1.25475e-11
1.19065e-11
1.08467e-11
1.09216e-11
1.02099e-11
1.17579e-11
2.96524e-11
4.46085e-11
3.94056e-11
2.40752e-11
1.2081e-11
1.83401e-11
4.57823e-11
4.41292e-11
2.94103e-11
4.63599e-12
-1.49987e-11
-4.72462e-11
1.1256e-11
1.0481e-11
9.44017e-12
8.10662e-12
8.97543e-12
1.03558e-11
1.66263e-11
3.05067e-11
3.24349e-11
1.88813e-11
2.59485e-12
-5.02978e-12
6.9414e-12
4.23409e-11
4.42817e-11
3.04147e-11
6.35963e-12
-1.27567e-11
-4.40574e-11
7.99251e-12
7.09342e-12
5.98856e-12
4.70475e-12
6.85171e-12
1.17141e-11
1.82413e-11
2.47027e-11
1.82469e-11
2.39362e-12
-1.1379e-11
-1.50495e-11
-2.36166e-13
3.72829e-11
4.38497e-11
3.08024e-11
7.68223e-12
-1.10562e-11
-3.40343e-11
3.61715e-12
2.85402e-12
2.03483e-12
1.1645e-12
4.88601e-12
1.21255e-11
1.45682e-11
1.44341e-11
5.89501e-12
-6.46499e-12
-1.52781e-11
-1.6314e-11
-2.46159e-12
3.2995e-11
4.20361e-11
3.05646e-11
8.29915e-12
-9.98519e-12
-3.18273e-11
-1.19619e-12
-1.7271e-12
-2.10099e-12
-2.25987e-12
2.80174e-12
1.01213e-11
8.33189e-12
6.17481e-12
3.71874e-13
-7.12344e-12
-1.22082e-11
-1.25341e-11
-1.73561e-12
2.90553e-11
3.88951e-11
2.95727e-11
7.67398e-12
-9.39162e-12
-3.03675e-11
-6.06869e-12
-6.34341e-12
-6.2913e-12
-5.49835e-12
1.6927e-12
9.6768e-12
4.52842e-12
2.10201e-12
-4.57434e-13
-5.03838e-12
-8.8863e-12
-9.09132e-12
-5.81158e-13
2.36057e-11
3.40953e-11
2.61691e-11
5.33167e-12
-1.17655e-11
-3.42062e-11
-1.02577e-11
-1.03091e-11
-1.00509e-11
-8.41409e-12
1.28901e-12
1.01618e-11
1.56926e-12
-1.29668e-13
-3.78055e-13
-3.7169e-12
-7.68838e-12
-7.78308e-12
1.36755e-13
1.54168e-11
2.59293e-11
1.91165e-11
-2.64126e-13
-1.28065e-11
1.27811e-11
-1.2821e-11
-1.27519e-11
-1.26285e-11
-1.09479e-11
3.39206e-13
1.11828e-11
4.32488e-12
-2.6408e-12
-6.42284e-13
-2.91666e-12
-6.7662e-12
-7.13853e-12
9.23529e-13
5.0524e-12
1.09596e-11
8.77933e-12
-5.32741e-12
-5.81546e-12
1.38601e-11
-1.36577e-11
-1.35532e-11
-1.37496e-11
-1.28196e-11
-1.44213e-12
1.1715e-11
-7.55313e-12
-4.25501e-12
-1.25218e-12
-2.01535e-12
-4.09691e-12
-3.76495e-12
2.0306e-12
6.02369e-12
6.2051e-12
-5.48724e-12
-1.25241e-11
-1.55972e-11
4.81301e-12
-1.35166e-11
-1.3444e-11
-1.38451e-11
-1.38861e-11
-3.92758e-12
1.07509e-11
3.72288e-12
-5.93254e-12
-2.61651e-12
-1.80829e-12
-9.25374e-13
3.11207e-12
-2.52938e-13
-1.02343e-11
-1.52832e-11
-2.64005e-11
-2.71164e-11
1.98668e-11
1.96572e-10
-1.30119e-11
-1.30142e-11
-1.34762e-11
-1.42303e-11
-6.65986e-12
7.5803e-12
1.17109e-11
-5.61529e-12
-4.14314e-12
-2.04338e-12
-9.46686e-13
5.22431e-12
5.438e-12
-7.91355e-12
-1.79736e-11
-2.00624e-11
1.69301e-12
5.66419e-11
7.63212e-11
-1.23494e-11
-1.2441e-11
-1.29466e-11
-1.40758e-11
-9.13606e-12
2.74272e-12
1.10386e-11
-3.74863e-12
-5.77806e-12
-1.71753e-12
-5.83865e-13
7.44763e-12
1.45232e-11
9.42734e-12
3.76935e-12
5.78411e-12
1.48471e-11
4.41138e-12
-3.89072e-11
-1.16741e-11
-1.18067e-11
-1.24007e-11
-1.37078e-11
-1.10959e-11
-2.45629e-12
7.62129e-12
-2.52851e-12
-7.32712e-12
-1.39997e-12
-7.12834e-13
7.10344e-12
1.8755e-11
1.94187e-11
1.76537e-11
1.44154e-11
4.52421e-12
-1.36599e-11
-7.40404e-12
-1.12538e-11
-1.1108e-11
-1.17919e-11
-1.32536e-11
-1.24244e-11
-6.80083e-12
3.21097e-12
-3.1358e-12
-8.67007e-12
-1.18548e-12
-9.63836e-13
4.41304e-12
1.73162e-11
2.01493e-11
1.70746e-11
7.75149e-12
-7.43398e-12
-1.366e-11
1.53347e-12
-1.10322e-11
-8.42709e-12
-1.04706e-11
-1.26009e-11
-1.28486e-11
-9.43369e-12
-4.9562e-13
-5.37142e-12
-9.75836e-12
-1.42573e-12
-1.23818e-12
1.03248e-12
1.24726e-11
1.77766e-11
1.35396e-11
2.10492e-12
-7.41036e-12
1.43776e-12
-4.02931e-12
-1.09076e-11
-8.04908e-12
-9.65949e-12
-1.13763e-11
-1.18897e-11
-9.92641e-12
-2.98987e-12
-8.46364e-12
-1.05362e-11
-2.20599e-12
-1.50212e-12
-7.7393e-13
5.58874e-12
1.4047e-11
1.29343e-11
2.85702e-12
-4.72458e-12
-5.42579e-13
-8.1405e-12
-1.13813e-11
-8.82818e-12
-7.48667e-12
-9.3032e-12
-9.68536e-12
-8.8471e-12
-5.36329e-12
-1.1503e-11
-1.10697e-11
-3.36014e-12
-1.90482e-12
-9.26557e-13
-4.15168e-13
7.58346e-12
1.17452e-11
6.77512e-12
1.22098e-12
-1.32513e-12
-9.67076e-12
-1.16322e-11
-1.02631e-11
-7.70658e-12
-6.98045e-12
-7.44003e-12
-7.94166e-12
-8.46066e-12
-1.35688e-11
-1.13553e-11
-4.75258e-12
-2.37989e-12
-6.54981e-13
-3.11066e-12
3.00597e-13
5.94449e-12
7.10692e-12
6.80965e-12
-3.03019e-12
-1.0989e-11
-1.1624e-11
-1.12385e-11
-1.11789e-11
-8.48672e-12
-9.0562e-12
-1.03683e-11
-1.24267e-11
-1.47486e-11
-1.21557e-11
-5.97199e-12
-2.74386e-12
-4.70112e-13
-3.70301e-12
-4.73971e-12
-2.2379e-12
2.20712e-13
4.18418e-14
-5.76984e-12
-1.16397e-11
1.45853e-12
1.00831e-11
1.90374e-12
1.70417e-12
9.40864e-12
1.56891e-12
1.47404e-12
1.71933e-12
9.97135e-12
1.98218e-12
1.73903e-12
1.36047e-11
3.01957e-12
3.0408e-12
2.356e-11
5.30085e-12
4.99048e-12
2.11157e-11
2.58708e-12
2.27697e-12
2.95225e-13
-5.0057e-14
-2.18334e-13
-2.18251e-13
-2.07184e-13
-2.06279e-13
-5.65209e-13
-1.63064e-13
-1.10246e-13
-2.31338e-14
8.75795e-14
2.02724e-13
2.98625e-13
3.84018e-13
4.55488e-13
5.30118e-13
5.9539e-13
7.02189e-13
7.86772e-13
1.00321e-12
2.2284e-11
1.99749e-12
1.21432e-12
2.54248e-13
-1.27658e-11
-4.40947e-12
-7.09957e-12
-4.28553e-12
-2.5067e-10
-6.67732e-11
-6.4171e-11
-4.96445e-11
1.94734e-12
-1.63335e-13
-3.73787e-13
-1.05559e-11
-2.88369e-12
-3.62295e-12
-4.54768e-12
-3.24417e-11
-1.16332e-12
-9.51791e-13
-8.44817e-13
-7.0554e-13
-5.85511e-13
-4.36864e-13
-2.88828e-13
-1.45667e-13
-1.29659e-14
1.04581e-13
2.01573e-13
2.65669e-13
2.94165e-13
7.15885e-12
3.1176e-13
2.55705e-13
2.38973e-13
2.47259e-13
1.504e-13
-2.01304e-14
3.38345e-13
5.46712e-13
1.82935e-12
-1.45979e-12
-1.75384e-12
-4.975e-12
2.60039e-13
1.28423e-12
1.73667e-11
5.18729e-12
1.7387e-12
-2.6733e-12
-8.60283e-12
-1.55967e-11
-2.9344e-11
-1.49898e-10
-2.03793e-11
-1.16412e-11
-1.24422e-11
4.54275e-12
-1.33755e-11
-1.33339e-11
-1.32335e-11
-1.28241e-11
-1.25812e-11
-1.17471e-11
-8.59612e-12
-1.50146e-11
-3.61789e-11
-4.87059e-11
-4.68228e-11
-3.77395e-11
-3.51931e-11
-4.64127e-11
-4.386e-11
-2.84977e-11
-3.00959e-12
1.71888e-11
2.68234e-11
-1.2958e-11
-1.25475e-11
-1.19065e-11
-1.08467e-11
-1.09216e-11
-1.02099e-11
-1.17579e-11
-2.96524e-11
-4.46085e-11
-3.94056e-11
-2.40752e-11
-1.2081e-11
-1.83401e-11
-4.57823e-11
-4.41292e-11
-2.94103e-11
-4.63599e-12
1.49987e-11
4.72462e-11
-1.1256e-11
-1.0481e-11
-9.44017e-12
-8.10662e-12
-8.97543e-12
-1.03558e-11
-1.66263e-11
-3.05067e-11
-3.24349e-11
-1.88813e-11
-2.59485e-12
5.02978e-12
-6.9414e-12
-4.23409e-11
-4.42817e-11
-3.04147e-11
-6.35963e-12
1.27567e-11
4.40574e-11
-7.99251e-12
-7.09342e-12
-5.98856e-12
-4.70475e-12
-6.85171e-12
-1.17141e-11
-1.82413e-11
-2.47027e-11
-1.82469e-11
-2.39362e-12
1.1379e-11
1.50495e-11
2.36166e-13
-3.72829e-11
-4.38497e-11
-3.08024e-11
-7.68223e-12
1.10562e-11
3.40343e-11
-3.61715e-12
-2.85402e-12
-2.03483e-12
-1.1645e-12
-4.88601e-12
-1.21255e-11
-1.45682e-11
-1.44341e-11
-5.89501e-12
6.46499e-12
1.52781e-11
1.6314e-11
2.46159e-12
-3.2995e-11
-4.20361e-11
-3.05646e-11
-8.29915e-12
9.98519e-12
3.18273e-11
1.19619e-12
1.7271e-12
2.10099e-12
2.25987e-12
-2.80174e-12
-1.01213e-11
-8.33189e-12
-6.17481e-12
-3.71874e-13
7.12344e-12
1.22082e-11
1.25341e-11
1.73561e-12