/*--------------------------------*- C++ -*----------------------------------*\
| =========                 |                                                 |
| \\      /  F ield         | OpenFOAM: The Open Source CFD Toolbox           |
|  \\    /   O peration     | Version:  4.1                                   |
|   \\  /    A nd           | Web:      www.OpenFOAM.org                      |
|    \\/     M anipulation  |                                                 |
\*---------------------------------------------------------------------------*/
FoamFile
{
    version     2.0;
    format      ascii;
    class       volVectorField;
    location    "24";
    object      U;
}
// * * * * * * * * * * * * * * * * * * * * * * * * * * * * * * * * * * * * * //

dimensions      [0 1 -1 0 0 0 0];

internalField   nonuniform List<vector> 
1280
(
(-1.05404e-15 0.697219 -1.00909)
(-1.71371e-15 1.3899 -1.56485)
(-1.37556e-15 1.20209 -1.10724)
(-1.23156e-15 1.33365 -0.976414)
(-1.59909e-15 2.08149 -1.25901)
(-1.13381e-15 1.67144 -0.828518)
(-1.06525e-15 1.9839 -0.799736)
(-1.25471e-15 1.93396 -0.767513)
(-1.59254e-15 2.62927 -1.23224)
(-1.41651e-15 2.28507 -0.91594)
(-1.2312e-15 2.45972 -0.832784)
(-2.58164e-15 3.21294 -1.43869)
(-2.20289e-15 2.77018 -1.13939)
(-2.23895e-15 3.00371 -1.0523)
(-4.27434e-15 3.83369 -1.85332)
(-3.83078e-15 3.32567 -1.57726)
(-3.60649e-15 3.66205 -1.46014)
(-3.58882e-15 4.64342 -3.16477)
(-1.86962e-15 4.35778 -2.39666)
(-1.6455e-15 4.59586 -3.09336)
(-1.21118e-15 4.90637 -2.4027)
(2.05362e-16 4.88876 0.477453)
(8.95729e-16 4.75732 5.50056)
(8.95387e-16 4.72378 9.62341)
(8.49985e-16 4.70418 11.4187)
(8.46272e-16 5.32183 11.9333)
(1.19148e-16 2.5863 8.11602)
(6.68982e-16 8.38061 14.4995)
(4.5229e-16 8.31982 14.3835)
(9.4908e-17 8.42353 13.9778)
(-3.593e-16 8.47554 13.4769)
(-8.31688e-16 8.47228 12.9265)
(-1.22513e-15 8.45782 12.3336)
(-1.57546e-15 8.43251 11.7041)
(-1.86867e-15 8.38207 11.0638)
(-2.17484e-15 8.3308 10.4331)
(-2.44262e-15 8.24899 9.88287)
(-2.88077e-15 8.16462 9.4283)
(-3.22778e-15 8.08101 9.17714)
(-4.11572e-15 7.83974 8.60427)
(-3.87885e-15 7.94592 10.5486)
(-1.60441e-15 4.70075 7.45867)
(-9.75358e-16 4.10477 7.46456)
(-7.58722e-17 3.07417 7.69232)
(3.5054e-15 1.9797 7.63283)
(3.54175e-15 1.13024 4.29037)
(5.70247e-15 0.520415 3.56408)
(3.44219e-15 0.274343 2.29721)
(5.04766e-14 0.433757 -1.04585)
(5.36331e-14 0.0642298 -2.25043)
(5.1543e-14 -3.18481 -2.88679)
(8.64133e-15 -0.177595 3.61994)
(-1.56413e-15 -1.78 6.28759)
(1.31193e-16 -2.47453 6.07298)
(3.00231e-16 -3.10645 6.36909)
(1.8374e-15 -4.73031 9.71842)
(2.39079e-15 -5.67041 8.47757)
(2.91e-15 -6.92824 8.38614)
(3.65275e-15 -7.55339 8.22663)
(5.84313e-15 -10.5907 10.6917)
(4.77259e-15 -9.09291 8.36987)
(3.90478e-15 -9.35123 8.84289)
(3.46592e-15 -9.39682 9.0177)
(2.89452e-15 -9.48072 9.38118)
(2.4021e-15 -9.54172 9.84333)
(1.79226e-15 -9.57923 10.3749)
(1.18494e-15 -9.60892 10.9134)
(5.9761e-16 -9.6136 11.4404)
(5.31935e-17 -9.60414 11.9368)
(-4.2905e-16 -9.57652 12.408)
(-8.26965e-16 -9.50389 12.8581)
(-1.08992e-15 -9.4085 13.2446)
(-1.20683e-15 -9.38114 13.3827)
(-1.50911e-15 -3.40705 6.77648)
(-1.27902e-15 -5.23696 12.3383)
(-1.04905e-15 -4.66221 11.7437)
(-9.80402e-16 -4.69089 9.84325)
(-1.0144e-15 -4.76148 5.53681)
(-6.17024e-16 -4.92083 0.255836)
(8.25861e-17 -4.96892 -2.92511)
(-2.47662e-16 -4.66811 -3.88541)
(-3.95094e-16 -4.26572 -3.45507)
(-3.10915e-16 -4.00689 -4.97921)
(1.05495e-15 -3.07956 -2.71829)
(1.26745e-15 -2.48226 -3.2154)
(6.81176e-16 -2.34106 -4.2002)
(-1.73563e-17 -1.58284 -2.61278)
(-9.28081e-16 -1.08991 -2.99719)
(-1.6198e-15 -0.827416 -3.87555)
(-3.74872e-15 -0.0267852 -2.28836)
(-1.25651e-15 0.328169 -2.34198)
(3.54476e-15 0.298057 -3.57637)
(6.38875e-15 1.06697 -2.69731)
(1.12713e-14 1.55597 -2.70582)
(2.12062e-14 1.82762 -2.37027)
(2.54766e-14 2.52816 -3.27307)
(1.47276e-14 2.64698 -2.31481)
(8.41282e-15 3.23866 -2.07369)
(2.05673e-15 3.14584 -3.01301)
(-3.28293e-15 4.19585 -3.28388)
(1.48617e-15 0.644457 -2.00886)
(1.48154e-15 0.906284 -2.01811)
(1.47039e-15 1.29779 -1.99522)
(1.4249e-15 2.12314 -1.81142)
(1.39791e-15 3.02376 -1.06864)
(1.30523e-15 3.38756 -0.334256)
(9.55124e-16 3.73076 0.670109)
(1.66829e-15 3.88461 2.64402)
(4.01987e-15 4.15024 4.35989)
(5.41177e-15 4.977 5.52004)
(5.20253e-15 6.03558 6.12212)
(4.19327e-15 5.72606 5.44341)
(3.91034e-15 0.0298411 1.82028)
(5.15697e-15 -6.66333 -0.453815)
(4.87333e-15 -8.90743 -1.34386)
(3.16641e-15 -9.53169 -2.09951)
(3.34399e-16 -8.89359 -3.18186)
(-1.90987e-15 -6.37693 -3.64884)
(-2.98038e-15 -2.05586 -4.01817)
(1.43977e-15 0.641228 -2.31213)
(1.39417e-15 0.879083 -2.23839)
(1.32294e-15 1.20514 -2.02568)
(1.20519e-15 1.80161 -1.64096)
(1.21351e-15 2.52149 -0.726431)
(1.13444e-15 2.76661 0.688599)
(1.30643e-15 2.72344 2.39956)
(3.29471e-15 2.71136 4.23687)
(4.95649e-15 3.2667 5.62598)
(4.3784e-15 4.46436 6.4081)
(2.67502e-15 6.09421 6.70817)
(1.34234e-15 6.89802 6.07741)
(2.03778e-15 2.27831 3.12202)
(5.08692e-15 -6.19477 -0.729934)
(4.90324e-15 -8.54287 -0.977097)
(3.26781e-15 -9.06963 -1.80029)
(5.15109e-16 -8.46585 -2.91845)
(-1.66652e-15 -6.1045 -3.48886)
(-5.24957e-15 -2.1778 -3.78376)
(1.25067e-15 0.619806 -2.38751)
(1.16456e-15 0.799001 -2.2749)
(1.04891e-15 1.05859 -1.94985)
(9.00736e-16 1.57082 -1.42765)
(9.9727e-16 2.0663 -0.477546)
(1.15064e-15 2.09219 1.33752)
(1.84737e-15 2.18054 3.1216)
(3.38963e-15 2.39359 4.59056)
(3.60388e-15 3.10555 5.55636)
(2.09792e-15 4.43265 5.91222)
(2.88316e-16 6.14864 5.96132)
(-5.58865e-16 7.27631 5.62226)
(7.71267e-16 3.56079 4.04716)
(4.70455e-15 -5.25541 -0.424226)
(4.92019e-15 -8.23522 -0.520168)
(3.37941e-15 -8.65431 -1.29669)
(7.06625e-16 -8.11023 -2.47529)
(-1.41741e-15 -5.92424 -3.19429)
(-4.89527e-15 -2.21437 -3.39938)
(8.88057e-16 0.599668 -2.56559)
(7.88158e-16 0.705006 -2.44384)
(6.65395e-16 0.861555 -2.06066)
(5.2275e-16 1.21266 -1.41004)
(7.61301e-16 1.4265 -0.232779)
(1.30157e-15 1.33844 1.85479)
(2.02681e-15 1.46976 3.56928)
(2.74474e-15 1.85599 4.73464)
(2.02743e-15 2.82951 5.3181)
(2.65958e-16 4.36625 5.3278)
(-1.26433e-15 6.18443 5.18331)
(-1.67217e-15 7.59685 5.0623)
(-2.62407e-17 4.72912 4.7088)
(4.14254e-15 -4.44458 0.923881)
(4.87219e-15 -7.97669 -0.148983)
(3.42249e-15 -8.30678 -0.530753)
(8.53582e-16 -7.74107 -1.83264)
(-1.22847e-15 -5.70622 -2.70432)
(-3.78158e-15 -2.14093 -3.24539)
(4.01906e-16 0.576437 -2.86157)
(3.17113e-16 0.595902 -2.7322)
(2.26092e-16 0.628929 -2.29735)
(1.29389e-16 0.797106 -1.53096)
(5.42889e-16 0.759781 -0.134872)
(1.34728e-15 0.596269 2.05067)
(1.61869e-15 0.965904 3.63591)
(1.60379e-15 1.63841 4.53474)
(6.55001e-16 2.81649 4.88556)
(-7.18332e-16 4.46171 4.77113)
(-1.69757e-15 6.20227 4.58746)
(-1.81266e-15 7.57554 4.70058)
(-2.7351e-16 5.29079 5.38193)
(3.66611e-15 -3.55966 2.79665)
(4.67068e-15 -7.53474 0.394786)
(3.39607e-15 -8.01459 0.537653)
(9.22128e-16 -7.28485 -0.99615)
(-1.10947e-15 -5.3405 -2.02274)
(-3.53636e-15 -1.63106 -3.21673)
(-1.3291e-16 0.554613 -3.25168)
(-1.919e-16 0.478896 -3.11428)
(-2.33443e-16 0.364069 -2.64578)
(-2.51096e-16 0.322545 -1.78946)
(3.11304e-16 0.115964 -0.381057)
(1.12459e-15 -0.0981526 1.67283)
(9.25766e-16 0.460487 3.33254)
(6.8609e-16 1.37484 4.23793)
(4.13193e-17 2.75142 4.65153)
(-7.91493e-16 4.50453 4.65991)
(-1.35646e-15 6.16418 4.57255)
(-1.39268e-15 7.39774 4.87571)
(-1.92845e-16 5.45322 6.20395)
(3.22836e-15 -2.6771 4.64636)
(4.32168e-15 -6.95949 1.65512)
(3.28586e-15 -7.74066 1.66794)
(8.52664e-16 -6.75174 0.0717544)
(-1.04351e-15 -4.82286 -0.9944)
(-3.37417e-15 -1.26665 -3.97074)
(-6.74299e-16 0.531984 -3.64741)
(-7.04823e-16 0.353754 -3.50965)
(-6.99033e-16 0.086628 -3.02097)
(-6.10928e-16 -0.13391 -2.19074)
(1.88078e-16 -0.480732 -0.899118)
(1.0752e-15 -0.889659 0.9278)
(5.03158e-16 -0.0963157 2.82676)
(2.33556e-16 1.09381 4.04054)
(-5.0826e-17 2.63721 4.69894)
(-5.5982e-16 4.49564 4.89789)
(-9.87367e-16 6.06929 4.9177)
(-1.01015e-15 7.08168 5.3922)
(-6.45731e-17 5.28904 7.14088)
(2.62285e-15 -1.8935 6.43596)
(3.78836e-15 -6.2312 3.59536)
(2.90768e-15 -7.35936 2.88728)
(5.92407e-16 -6.28669 1.58907)
(-1.30728e-15 -3.85025 0.0655163)
(-3.80069e-15 0.510524 -1.46671)
(-1.13974e-15 0.512843 -3.99095)
(-1.14545e-15 0.227433 -3.866)
(-1.11677e-15 -0.180256 -3.38413)
(-9.34899e-16 -0.557821 -2.60582)
(1.43223e-16 -1.06606 -1.31781)
(1.12909e-15 -1.61685 0.33879)
(1.74362e-16 -0.819677 2.14293)
(-1.44075e-17 0.664688 3.88547)
(-4.20061e-17 2.40656 4.88115)
(-4.12989e-16 4.42289 5.23533)
(-8.54264e-16 5.92491 5.30967)
(-8.64786e-16 6.6595 5.95615)
(1.5195e-17 4.87518 8.06797)
(1.71297e-15 -1.38496 8.09293)
(2.88103e-15 -5.52459 5.7074)
(2.12406e-15 -6.90579 4.35755)
(-2.93474e-17 -5.70306 3.0212)
(-1.42294e-15 -3.32004 1.24994)
(1.42012e-15 -4.46247 5.46522)
(-1.42455e-15 0.500319 -4.26502)
(-1.41688e-15 0.103174 -4.16959)
(-1.40317e-15 -0.437142 -3.70208)
(-1.21643e-15 -0.969522 -2.93003)
(3.76896e-17 -1.64201 -1.67129)
(1.24253e-15 -2.26519 -0.0914195)
(4.80542e-16 -1.5598 1.50516)
(-2.93422e-16 0.0454847 3.57612)
(-7.13648e-17 2.06969 5.03829)
(-3.24073e-16 4.31875 5.51689)
(-7.518e-16 5.74352 5.6081)
(-7.9317e-16 6.12122 6.45424)
(1.02614e-16 4.31094 8.94098)
(5.61378e-16 -0.933081 9.37771)
(1.21773e-15 -4.77057 7.24859)
(9.75481e-16 -6.20421 5.65325)
(-5.91934e-16 -5.18274 4.92911)
(-6.46162e-16 -4.3389 6.64127)
(1.54001e-15 -4.93836 10.6462)
(-1.51753e-15 0.500682 -4.4447)
(-1.50591e-15 -0.0164397 -4.40212)
(-1.52774e-15 -0.69058 -3.94344)
(-1.4244e-15 -1.36589 -3.16408)
(-1.60237e-16 -2.19214 -2.00273)
(1.30167e-15 -2.87127 -0.571438)
(-1.18949e-15 -2.28174 0.920113)
(-4.72779e-16 -0.770744 2.98067)
(-1.39131e-16 1.60922 5.09164)
(-2.23927e-16 4.18647 5.72068)
(-4.55212e-16 5.51652 5.82631)
(-4.76481e-16 5.44184 6.93008)
(2.25623e-16 3.55967 9.84348)
(6.69298e-16 -0.579066 10.9075)
(9.41141e-16 -4.04708 9.23025)
(-6.09694e-16 -5.9252 8.04712)
(-1.39157e-15 -6.1167 8.69128)
(-1.73302e-15 -5.95951 10.6098)
(5.34779e-16 -4.36737 9.575)
(-1.50185e-15 0.519182 -4.47945)
(-1.49377e-15 -0.125096 -4.51504)
(-1.53834e-15 -0.935204 -4.06842)
(-1.5429e-15 -1.73471 -3.29763)
(-4.36398e-16 -2.67245 -2.27934)
(1.19454e-15 -3.42524 -1.13762)
(6.99981e-16 -2.98226 0.254491)
(-6.59171e-16 -1.67198 2.20506)
(-2.90724e-16 1.02492 5.00404)
(-2.00921e-16 4.02235 5.85135)
(-1.02819e-16 5.23009 5.95583)
(3.45786e-16 4.61297 7.34845)
(-2.81042e-17 2.55637 10.6254)
(-1.13714e-15 -0.680171 12.436)
(-1.69813e-15 -3.74013 11.8685)
(-2.93339e-15 -5.91475 11.1893)
(-3.01293e-15 -6.13885 11.3311)
(2.20742e-15 -4.39667 10.3089)
(2.18413e-14 -1.58768 5.21855)
(-1.44577e-15 0.559463 -4.29734)
(-1.44602e-15 -0.231055 -4.44596)
(-1.49735e-15 -1.17891 -4.03052)
(-1.58114e-15 -2.06834 -3.30132)
(-7.39984e-16 -3.05528 -2.45129)
(8.42256e-16 -3.87796 -1.6333)
(1.30121e-15 -3.6264 -0.488364)
(-6.23922e-16 -2.6503 1.3149)
(-4.60348e-16 0.207504 4.70119)
(-2.27043e-16 3.81443 5.89531)
(-1.05187e-16 4.88821 5.92881)
(5.80478e-16 3.68066 7.53244)
(6.04222e-16 1.47806 11.0233)
(-8.79283e-16 -1.01288 12.7595)
(-1.99707e-15 -3.62702 12.9599)
(-2.22916e-15 -5.66091 12.6155)
(1.88112e-16 -5.89411 11.9418)
(6.29355e-15 -4.45638 10.3672)
(8.48014e-15 -1.85206 8.89682)
(-1.37216e-15 0.649979 -3.73986)
(-1.38233e-15 -0.283598 -4.09456)
(-1.43851e-15 -1.3756 -3.77485)
(-1.56398e-15 -2.34787 -3.13518)
(-1.01512e-15 -3.34348 -2.47287)
(3.04746e-16 -4.20067 -1.91658)
(1.22651e-15 -4.17907 -1.1274)
(-4.16514e-16 -3.66961 0.480225)
(-6.42007e-16 -0.902006 4.1786)
(-1.90837e-16 3.55658 5.82837)
(-6.48739e-17 4.52594 5.69185)
(8.27514e-16 2.62809 7.23845)
(1.61369e-15 0.377999 11.1431)
(1.04748e-15 -1.40408 12.9262)
(4.18817e-16 -3.69698 13.3883)
(6.42678e-16 -5.50375 13.5559)
(1.64968e-15 -5.32732 13.6546)
(4.90153e-16 -2.30123 13.9248)
(-4.32302e-15 3.7856 13.6185)
(-1.29713e-15 0.770204 -2.47376)
(-1.31185e-15 -0.306549 -3.3102)
(-1.37785e-15 -1.53992 -3.26254)
(-1.52309e-15 -2.56762 -2.78313)
(-1.23288e-15 -3.54945 -2.31926)
(-2.72921e-16 -4.40667 -1.94997)
(8.4681e-16 -4.62058 -1.47844)
(-2.80946e-16 -4.65456 -0.0690022)
(-8.14124e-16 -2.11861 3.64339)
(-1.55552e-16 3.27281 5.61997)
(-7.92038e-17 4.27258 5.26861)
(7.89271e-16 1.5985 6.14054)
(2.08389e-15 -0.818811 9.85184)
(2.15763e-15 -1.93302 12.1617)
(1.96152e-15 -3.91384 13.1251)
(1.60172e-15 -5.6725 13.3524)
(5.0269e-16 -5.77512 12.4959)
(-1.51777e-15 -4.24996 9.32225)
(-8.22671e-16 -2.12908 4.34046)
(-1.25043e-15 1.10215 -0.415782)
(-1.23422e-15 -0.106299 -2.17114)
(-1.31021e-15 -1.53631 -2.5512)
(-1.47263e-15 -2.70093 -2.26127)
(-1.38048e-15 -3.68536 -2.00879)
(-7.55648e-16 -4.52652 -1.79332)
(3.56774e-16 -4.97569 -1.55376)
(-3.48422e-16 -5.57245 -0.232414)
(-9.63341e-16 -3.35736 3.20894)
(-1.3172e-16 2.99765 5.24678)
(-1.07093e-16 4.22731 4.77159)
(4.90338e-16 0.912705 4.65599)
(1.92402e-15 -2.07298 7.1664)
(2.23881e-15 -2.72426 10.0062)
(1.89718e-15 -4.1905 11.31)
(8.61276e-16 -5.31043 11.1902)
(-8.25998e-16 -4.05573 8.83928)
(-1.51777e-15 -0.284167 3.23754)
(1.70385e-16 2.42015 -2.18249)
(-1.22579e-15 1.81666 1.5043)
(-9.36343e-16 0.211877 -1.19525)
(-1.1634e-15 -1.41484 -1.76368)
(-1.40009e-15 -2.76108 -1.62958)
(-1.42762e-15 -3.74575 -1.62348)
(-1.04819e-15 -4.57817 -1.57572)
(-5.50689e-17 -5.29675 -1.4635)
(-5.96824e-16 -6.41656 -0.00614994)
(-1.08426e-15 -4.47601 2.94123)
(-1.58414e-16 2.75404 4.72354)
(-1.37576e-16 4.33898 4.24326)
(1.1472e-16 0.843321 3.48335)
(1.38585e-15 -3.06721 4.02675)
(1.97517e-15 -3.55258 6.88008)
(1.50441e-15 -4.35866 8.31681)
(2.3388e-16 -4.63812 7.82688)
(-8.23374e-16 -2.39924 4.83799)
(1.59751e-16 1.058 -0.150191)
(-4.47701e-16 2.26962 -1.17853)
(-1.21196e-15 2.34364 3.06208)
(-8.94342e-16 0.674977 0.794854)
(-1.07328e-15 -1.15442 -0.757038)
(-1.26404e-15 -2.71318 -1.01122)
(-1.32107e-15 -3.71386 -1.30941)
(-1.10293e-15 -4.57894 -1.43238)
(-3.32208e-16 -5.64375 -1.20069)
(-9.40404e-16 -7.21594 0.579559)
(-1.17069e-15 -5.40795 2.85542)
(-2.4511e-16 2.55927 4.13406)
(-1.66902e-16 4.50049 3.69117)
(-8.59923e-17 1.42931 2.88563)
(6.20972e-16 -3.67716 1.3684)
(1.56078e-15 -4.39978 3.42245)
(1.43714e-15 -4.54649 5.05404)
(3.17446e-16 -3.93872 4.68036)
(-5.24953e-16 -1.00281 2.17407)
(-6.02865e-17 1.79187 -0.802304)
(-9.045e-16 2.83304 -1.13311)
(-1.26458e-15 2.81433 4.59428)
(-9.80909e-16 1.57752 2.64975)
(-8.31853e-16 -0.681551 0.1529)
(-1.03369e-15 -2.53335 -0.461897)
(-1.07615e-15 -3.582 -1.09593)
(-9.83011e-16 -4.61427 -1.20392)
(-5.95921e-16 -6.14311 -0.480225)
(-1.27811e-15 -7.9433 1.43308)
(-1.22997e-15 -5.98844 2.93718)
(-3.73349e-16 2.48339 3.58916)
(-2.11647e-16 4.63981 3.18473)
(-1.02951e-16 2.27914 2.53418)
(-4.61297e-17 -3.44612 -0.0291049)
(8.42606e-16 -4.944 0.33931)
(1.30502e-15 -4.81664 1.79361)
(7.52792e-16 -3.50752 2.03256)
(1.35664e-16 0.283781 0.610514)
(-1.47236e-16 2.37153 -1.48098)
(-1.07453e-15 2.82371 -1.20689)
(-1.29247e-15 3.19009 5.69916)
(-1.14034e-15 2.43859 4.33496)
(-8.56286e-16 0.126516 1.93815)
(-7.75605e-16 -2.13195 0.0216439)
(-8.2667e-16 -3.38077 -0.823639)
(-8.82407e-16 -4.78459 -0.576874)
(-9.40074e-16 -6.72188 0.654693)
(-1.50765e-15 -8.51398 2.25725)
(-1.2617e-15 -6.37132 3.05557)
(-5.28064e-16 2.54835 3.09483)
(-2.64432e-16 4.77369 2.79732)
(-7.27757e-17 2.95229 2.29608)
(-3.45629e-16 -3.07403 -0.194487)
(3.33997e-17 -5.11584 -1.53215)
(6.60499e-16 -5.25251 -1.24599)
(7.89658e-16 -3.56248 -0.917267)
(7.56628e-16 0.103504 -1.81168)
(-3.36688e-16 2.41411 -1.97515)
(-1.221e-15 2.7833 -1.41259)
(-1.29156e-15 3.41782 6.25775)
(-1.24873e-15 3.07437 5.38909)
(-1.24209e-15 1.09153 4.08369)
(-9.42969e-16 -1.41122 2.11253)
(-1.00624e-15 -3.35395 1.59521)
(-1.15204e-15 -5.23239 1.86707)
(-1.38075e-15 -7.33009 2.6131)
(-1.63873e-15 -8.85453 3.32254)
(-1.35063e-15 -6.25423 3.42904)
(-6.63555e-16 2.5769 2.81616)
(-3.04873e-16 4.96141 2.50282)
(-5.22347e-17 3.82253 2.26119)
(-4.11445e-16 -2.11828 0.476516)
(-5.26634e-16 -4.2179 -1.57603)
(-2.48656e-16 -4.93965 -2.43551)
(2.45236e-17 -3.36386 -2.69509)
(4.64909e-18 0.181299 -3.02675)
(-6.41093e-16 2.03211 -2.13967)
(-1.2933e-15 2.59698 -1.61005)
(-9.06438e-17 3.56311 6.6902)
(1.8154e-15 11.5394 18.429)
(2.2093e-15 18.384 29.0176)
(1.76507e-15 21.3594 33.4093)
(1.47891e-15 21.0778 32.4606)
(1.69678e-15 19.688 29.6555)
(1.98647e-15 18.092 26.7666)
(2.21986e-15 16.7323 24.3264)
(2.41536e-15 15.4532 22.0529)
(2.76869e-15 14.166 19.8513)
(3.2363e-15 12.8499 17.6753)
(3.87602e-15 11.4925 15.4975)
(4.73155e-15 10.0729 13.3134)
(5.53611e-15 8.59455 11.1214)
(6.0979e-15 7.03131 8.93781)
(6.40863e-15 5.42856 6.77968)
(6.42793e-15 3.7752 4.76424)
(5.2151e-15 2.31366 2.93475)
(2.90116e-15 0.447076 0.998378)
(-1.49498e-15 -1.04623 -2.71872)
(-3.30505e-16 6.73923 11.7582)
(-7.4204e-16 15.0837 23.5713)
(-1.15673e-16 18.7152 29.0639)
(-1.51692e-16 18.8648 29.8727)
(-5.03677e-16 17.1476 27.9138)
(-5.84484e-16 15.2788 25.5762)
(-3.08723e-17 13.6693 23.5375)
(3.02638e-16 12.1272 21.4686)
(8.03496e-16 10.5902 19.383)
(1.89501e-15 9.08391 17.2796)
(3.46369e-15 7.54322 15.1273)
(5.83556e-15 5.9481 12.8555)
(8.79425e-15 4.27382 10.4374)
(1.09769e-14 2.52287 7.85548)
(1.18163e-14 0.683122 5.08399)
(1.33264e-14 -1.05462 2.33812)
(1.43216e-14 -2.20692 0.35663)
(9.40572e-15 -2.31741 -0.260001)
(2.0987e-15 -1.13419 0.692621)
(-3.94867e-16 0.454593 2.17305)
(1.44991e-16 10.6122 18.4403)
(-1.24968e-15 18.5416 30.8041)
(-1.12446e-15 18.0755 29.8498)
(-1.05041e-15 15.4321 26.0718)
(-1.22508e-15 13.3712 23.4508)
(-2.00912e-15 12.0352 21.8743)
(-8.988e-16 10.6787 20.2937)
(-5.47225e-16 9.21863 18.4636)
(-1.12203e-16 7.68027 16.5225)
(8.33556e-16 6.11941 14.5106)
(2.48904e-15 4.52103 12.4584)
(5.05964e-15 2.91156 10.3772)
(7.96073e-15 1.34737 8.33344)
(8.78787e-15 -0.0390738 6.44672)
(6.30675e-15 -1.02097 4.93572)
(2.91729e-15 -1.15883 4.33539)
(1.23106e-15 0.138688 5.53262)
(6.77483e-16 3.02891 8.7726)
(-1.83358e-16 6.16855 12.1176)
(-8.94985e-16 5.33921 10.5745)
(-1.14354e-17 10.8377 18.6283)
(1.65115e-16 17.0021 29.8151)
(1.1883e-16 14.897 26.2214)
(9.59459e-17 12.7017 22.7014)
(-2.15207e-16 11.4522 20.7775)
(-1.88087e-15 10.4283 19.2082)
(-1.44658e-15 9.28392 17.5614)
(-1.2479e-15 8.09128 15.7108)
(-1.22137e-15 6.81097 13.7245)
(-9.23711e-16 5.51705 11.613)
(-5.39955e-17 4.22975 9.46967)
(1.3752e-15 3.05942 7.45628)
(3.27541e-15 2.20477 5.93182)
(3.92203e-15 1.99708 5.46092)
(2.39644e-15 2.79043 6.60212)
(-7.87627e-17 4.63372 9.37235)
(-1.72118e-15 7.0704 13.0084)
(-1.44933e-15 9.17784 16.204)
(-1.08131e-15 10.0897 17.0575)
(-1.30851e-15 6.94584 12.6939)
(-4.19068e-18 9.38443 16.2751)
(2.89607e-18 16.5551 29.3461)
(1.61062e-17 15.6839 27.4249)
(1.32943e-17 14.0069 24.0722)
(4.36323e-17 12.5569 21.4384)
(2.26571e-16 11.5399 19.3894)
(1.29148e-16 10.6483 17.8076)
(6.08217e-17 9.9077 16.2939)
(1.15544e-17 9.15949 14.8069)
(-8.03286e-17 8.46364 13.2883)
(-2.30593e-16 7.79342 11.7378)
(-4.61219e-16 7.16672 10.1737)
(-9.02352e-16 6.67053 8.75942)
(-1.5488e-15 6.39907 7.76136)
(-2.14129e-15 6.52697 7.58928)
(-2.22968e-15 7.09184 8.54468)
(-1.51837e-15 7.968 10.3566)
(-3.73483e-16 8.55983 12.3116)
(4.06285e-16 8.44803 12.9866)
(3.98911e-16 5.93225 10.0737)
(1.37485e-18 8.21675 14.1928)
(-7.63081e-18 17.2197 30.0903)
(-1.02605e-17 16.9574 29.458)
(-8.95075e-18 15.016 25.5331)
(-6.17001e-18 13.3487 22.6375)
(-1.27318e-18 12.394 20.5656)
(1.86722e-17 11.5966 19.0243)
(3.45214e-17 10.9449 17.5957)
(4.64492e-17 10.3009 16.2343)
(6.27608e-17 9.68879 14.9053)
(7.65659e-17 9.09708 13.5985)
(9.35284e-17 8.51649 12.2917)
(1.34143e-16 7.93469 10.9565)
(1.96714e-16 7.35218 9.62755)
(2.47071e-16 6.83155 8.46462)
(2.59958e-16 6.4546 7.73565)
(2.69275e-16 6.24585 7.62022)
(3.19568e-16 6.09616 7.8943)
(3.05044e-16 5.45081 7.86078)
(1.04153e-16 3.28891 4.6816)
(-3.52721e-19 7.97265 13.5686)
(2.35095e-18 17.7988 30.3408)
(2.80101e-18 17.7004 30.4578)
(2.5158e-18 15.7285 26.4474)
(8.30028e-19 14.0101 23.6016)
(-6.85786e-18 13.0748 21.5629)
(-1.09377e-17 12.2389 19.9988)
(-1.30918e-17 11.5148 18.4908)
(-1.4188e-17 10.7785 17.0319)
(-1.53995e-17 10.0551 15.6043)
(-1.5215e-17 9.34312 14.2235)
(-1.47712e-17 8.64333 12.8947)
(-1.68833e-17 7.95095 11.6098)
(-1.96034e-17 7.2632 10.3458)
(-1.60404e-17 6.55195 9.08654)
(-7.96254e-19 5.83863 7.83348)
(2.27102e-17 5.05311 6.67388)
(3.18463e-17 4.27794 5.52367)
(-1.45465e-17 2.95363 4.16964)
(-7.51816e-17 0.897559 0.199117)
(6.28998e-20 9.29543 15.738)
(-4.58121e-19 18.8473 31.152)
(-5.50068e-19 18.3929 31.0968)
(-4.98147e-19 16.4981 27.0988)
(-1.23614e-19 14.7898 24.447)
(1.88262e-18 13.9379 22.4696)
(2.71884e-18 13.0881 20.924)
(2.8571e-18 12.3614 19.3686)
(2.674e-18 11.5951 17.8386)
(2.34549e-18 10.8189 16.2825)
(1.71979e-18 10.0095 14.7114)
(1.15239e-18 9.16447 13.1334)
(1.16365e-18 8.28253 11.5667)
(1.28533e-18 7.3738 10.0198)
(-6.96668e-20 6.41614 8.49923)
(-4.98046e-18 5.43042 6.95572)
(-1.57131e-17 4.29042 5.36418)
(-3.55104e-17 3.0972 3.51352)
(-5.87334e-17 1.10965 1.16789)
(-9.68466e-17 -0.405472 -2.54894)
(-8.06259e-21 12.0214 20.7177)
(6.48833e-20 20.336 32.8196)
(7.94866e-20 18.4967 31.1979)
(6.93096e-20 16.9971 27.4829)
(8.9716e-21 15.4216 25.4155)
(-3.21556e-19 14.818 23.5893)
(-4.48098e-19 13.9629 22.1568)
(-4.15473e-19 13.3352 20.6076)
(-3.05259e-19 12.5721 19.0627)
(-1.405e-19 11.7767 17.3733)
(8.06994e-20 10.8616 15.5769)
(2.61869e-19 9.85248 13.6802)
(2.87298e-19 8.74987 11.7272)
(2.31972e-19 7.5768 9.73878)
(4.20445e-19 6.31331 7.73902)
(1.32473e-18 4.98581 5.68884)
(3.67971e-18 3.44859 3.58717)
(8.15863e-18 1.87799 1.17594)
(1.95644e-17 -0.630187 -1.53573)
(-5.27317e-17 -1.83676 -5.3581)
(5.63501e-22 15.0378 26.8636)
(-6.42843e-21 20.8674 33.556)
(-6.35087e-21 17.4714 30.5597)
(-3.70303e-21 16.9049 27.7029)
(5.31985e-21 15.3593 26.42)
(4.4711e-20 15.0781 24.7634)
(4.75751e-20 14.1087 23.599)
(2.49488e-20 13.6233 22.1212)
(-8.80891e-21 12.7257 20.5982)
(-5.20767e-20 11.801 18.6829)
(-1.02511e-19 10.5813 16.5465)
(-1.4256e-19 9.24183 14.2036)
(-1.55005e-19 7.76381 11.7864)
(-1.55058e-19 6.20423 9.30064)
(-2.28571e-19 4.52028 6.73656)
(-5.73678e-19 2.73859 4.06016)
(-1.2079e-18 0.7233 1.33092)
(-1.22454e-18 -1.05139 -1.88066)
(1.85378e-17 -3.44764 -4.23092)
(-1.80898e-17 -3.34009 -8.1636)
(8.18017e-23 16.4104 30.2983)
(-1.49373e-22 19.236 31.4847)
(-1.03986e-21 15.7507 29.1527)
(-1.80273e-21 15.8866 27.1581)
(-3.7217e-21 14.1157 26.196)
(-5.26942e-21 13.8541 24.6318)
(1.14212e-21 12.6424 23.685)
(9.96807e-21 12.051 22.2359)
(2.11441e-20 10.7625 20.6222)
(3.8948e-20 9.47043 18.3521)
(5.97785e-20 7.74055 15.7717)
(6.58486e-20 5.98272 12.9394)
(5.10067e-20 4.13016 10.1229)
(4.7201e-20 2.28791 7.26427)
(-7.8977e-20 0.394017 4.31505)
(-8.93231e-19 -1.36546 1.5501)
(-1.34532e-18 -2.68336 -0.654537)
(3.3593e-18 -3.96003 -3.09014)
(1.28094e-17 -4.96433 -5.27157)
(8.02246e-18 -2.57672 -3.69825)
(-4.63266e-23 15.581 29.1339)
(4.84259e-22 17.4048 28.9897)
(9.04341e-22 14.619 27.4995)
(1.18345e-21 14.5017 25.3437)
(9.03087e-22 12.6502 24.2955)
(-1.60539e-21 12.1413 22.681)
(-5.2682e-21 10.7871 21.638)
(-8.30565e-21 9.89215 20.1595)
(-8.67561e-21 8.43488 18.5027)
(-2.48997e-21 6.9245 16.2693)
(6.16776e-21 5.09555 13.6953)
(-8.91633e-21 3.26014 10.9082)
(-8.4097e-20 1.45094 8.19794)
(-1.99661e-19 -0.175512 5.68967)
(-1.56445e-19 -1.52255 3.52436)
(4.68556e-19 -2.36756 1.893)
(2.00811e-18 -2.23935 1.45454)
(4.08323e-18 -0.415293 3.21476)
(4.91666e-18 2.80312 6.94368)
(2.02803e-18 3.80093 8.38566)
(7.68416e-24 14.4678 27.1278)
(-2.196e-22 17.3819 28.3727)
(-3.60899e-22 14.1475 26.3481)
(-4.43722e-22 14.2304 23.645)
(-1.12289e-22 12.1839 22.5587)
(1.08701e-21 11.8069 20.5189)
(2.14555e-21 10.3238 19.224)
(2.5959e-21 9.51634 17.5333)
(3.82813e-21 8.25272 15.9879)
(9.59605e-21 7.12284 14.1265)
(1.95417e-20 5.80084 12.063)
(1.25085e-20 4.52042 9.78364)
(-5.619e-20 3.34244 7.56779)
(-2.0084e-19 2.51835 5.78601)
(-3.30165e-19 2.36246 5.05111)
(-3.17679e-19 3.19492 5.95434)
(-2.34465e-19 4.84832 8.23662)
(-3.46128e-19 6.49942 10.7213)
(-7.50789e-19 7.62035 11.9658)
(-8.5403e-19 5.53892 10.1276)
(-1.73716e-24 14.4638 27.2501)
(7.0922e-23 18.2199 28.9269)
(1.10496e-22 14.557 26.8098)
(1.31433e-22 14.9877 23.8188)
(2.36299e-23 12.9386 22.7502)
(-3.68034e-22 12.7541 20.5968)
(-7.41666e-22 11.4337 19.1738)
(-9.39837e-22 10.7794 17.4161)
(-1.15222e-21 9.84797 15.9188)
(-1.85067e-21 9.12246 14.44)
(-2.76987e-21 8.42293 13.0754)
(-1.61311e-21 7.82034 11.7556)
(3.7456e-21 7.27846 10.4437)
(9.49272e-21 6.7869 9.13593)
(3.48769e-21 6.34592 7.88203)
(-2.3539e-20 5.95858 6.89521)
(-5.70977e-20 5.69202 6.39516)
(-6.13383e-20 5.38182 6.37792)
(6.66288e-21 4.68748 6.18372)
(1.96151e-19 2.8592 4.10135)
(4.33249e-25 15.0857 28.7047)
(-1.98009e-23 18.927 29.5956)
(-2.97981e-23 14.972 27.6986)
(-3.91124e-23 15.6697 24.7776)
(-2.58304e-23 13.6086 23.7109)
(4.97885e-23 13.4608 21.6463)
(1.1501e-22 12.2921 20.2327)
(1.32922e-22 11.6635 18.5616)
(1.37095e-22 10.8624 17.0472)
(1.44755e-22 10.1479 15.5327)
(-6.898e-23 9.44896 14.0694)
(-9.61124e-22 8.77128 12.6569)
(-2.3186e-21 8.10456 11.2835)
(-2.28274e-21 7.42366 9.9178)
(2.03371e-21 6.67617 8.51955)
(1.20761e-20 5.83568 7.03344)
(2.60826e-20 4.79851 5.46944)
(4.17658e-20 3.65133 3.74074)
(5.96606e-20 1.89915 1.81438)
(9.41277e-20 0.314096 -1.26024)
(-1.4576e-25 15.6516 30.5723)
(5.74516e-24 19.2416 29.5782)
(8.87421e-24 15.0272 28.4161)
(6.71092e-24 16.2133 25.5833)
(-1.01109e-23 13.91 24.6454)
(-4.50288e-23 13.9455 22.5895)
(-6.97502e-23 12.712 21.2766)
(-7.93724e-23 12.1826 19.6595)
(-1.10056e-22 11.3994 18.247)
(-1.84041e-22 10.7579 16.7993)
(-1.99901e-22 10.0979 15.3782)
(8.94124e-23 9.43423 13.9118)
(8.73847e-22 8.69853 12.3456)
(1.98584e-21 7.82604 10.5889)
(2.81873e-21 6.6983 8.5774)
(2.41374e-21 5.314 6.29069)
(6.78166e-22 3.6771 4.0116)
(-2.46944e-21 1.99005 1.37283)
(-6.47639e-21 -0.577782 -1.48267)
(5.1646e-20 -1.71714 -5.21517)
(1.14687e-26 15.6014 31.5641)
(-9.24986e-25 18.9211 28.8828)
(-9.84461e-25 14.6231 28.5651)
(-3.35649e-24 15.9727 25.8697)
(-6.31315e-24 13.603 25.0299)
(-2.03047e-24 13.6285 23.1288)
(1.69003e-24 12.3929 21.9391)
(-2.81996e-23 11.9066 20.4687)
(-1.28985e-22 11.1441 19.2226)
(-2.69428e-22 10.578 17.9469)
(-2.37004e-22 9.97474 16.6983)
(4.46186e-22 9.34457 15.3233)
(2.45107e-21 8.52842 13.6465)
(6.08609e-21 7.33443 11.3647)
(1.00404e-20 5.51132 8.22041)
(1.14871e-20 3.25678 4.53135)
(1.18697e-20 1.12197 1.71915)
(1.16243e-20 -0.464506 -1.18837)
(-1.14181e-20 -3.22391 -3.82294)
(2.49037e-20 -3.12228 -7.89135)
(-2.44572e-26 14.3607 30.8872)
(7.55956e-25 18.2093 28.0114)
(1.69438e-24 13.5929 27.9055)
(1.50994e-24 14.462 25.6038)
(1.04912e-24 12.4159 24.6871)
(3.25481e-24 11.9402 23.1461)
(-2.76763e-24 10.847 21.9781)
(-5.84485e-23 10.1262 20.7253)
(-1.98501e-22 9.34139 19.589)
(-3.33144e-22 8.66631 18.4671)
(-9.1418e-23 7.97874 17.3258)
(1.25709e-21 7.21702 15.9823)
(4.53969e-21 6.18162 14.1205)
(9.37456e-21 4.57162 11.1898)
(1.19037e-20 2.12244 6.69743)
(7.13748e-21 -0.659459 1.40527)
(-5.54888e-22 -2.41749 -2.26234)
(-3.34874e-21 -3.18559 -3.97218)
(-7.11965e-21 -4.18635 -5.50926)
(1.94838e-21 -2.90128 -5.28398)
(-3.3077e-26 11.1981 28.4289)
(8.30291e-26 16.924 24.9936)
(9.14248e-25 11.9554 25.3815)
(2.43005e-24 12.5364 23.7133)
(5.14841e-24 10.7841 22.995)
(9.31694e-24 10.0737 21.9404)
(6.21225e-24 9.03982 21.0595)
(-3.05261e-23 8.21701 20.1481)
(-1.28544e-22 7.39682 19.2834)
(-2.55701e-22 6.65198 18.4293)
(-2.43997e-22 5.9348 17.5652)
(2.112e-22 5.21998 16.6113)
(1.39412e-21 4.45777 15.4525)
(3.28189e-21 3.62793 13.9679)
(5.25982e-21 2.77982 12.0718)
(6.08227e-21 2.01877 9.77418)
(4.71529e-21 1.39807 7.25002)
(1.66741e-21 0.81228 4.52949)
(-1.65034e-21 -0.0482708 1.36204)
(-2.61864e-21 -0.598042 -0.810251)
(1.17813e-27 2.58244 16.9917)
(6.51665e-26 8.03543 13.6257)
(2.16872e-25 5.17321 14.4755)
(5.2513e-25 4.98956 14.083)
(1.44211e-24 4.07316 14.0405)
(4.29498e-24 3.51258 13.8648)
(9.33261e-24 2.93975 13.705)
(9.07724e-24 2.47064 13.5137)
(-2.079e-23 2.064 13.3088)
(-1.23165e-22 1.73569 13.0946)
(-3.41991e-22 1.48762 12.8862)
(-6.84484e-22 1.32813 12.6942)
(-1.08338e-21 1.2588 12.5152)
(-1.39525e-21 1.28294 12.3149)
(-1.46171e-21 1.40436 12.0329)
(-1.21683e-21 1.57975 11.6335)
(-7.62469e-22 1.82835 11.0634)
(-3.08009e-22 2.4384 10.0591)
(-1.10878e-23 2.61505 8.61487)
(6.05994e-23 -0.216284 6.52069)
(-1.73937e-27 -2.58238 16.9917)
(-7.22072e-26 -8.03542 13.6256)
(-2.33744e-25 -5.1732 14.4754)
(-5.533e-25 -4.98959 14.0828)
(-1.51312e-24 -4.07321 14.0403)
(-4.55708e-24 -3.51266 13.8646)
(-1.00003e-23 -2.93985 13.7047)
(-9.83824e-24 -2.47077 13.5135)
(2.21734e-23 -2.06418 13.3085)
(1.32514e-22 -1.73592 13.0943)
(3.6898e-22 -1.48791 12.8859)
(7.39626e-22 -1.32849 12.694)
(1.17159e-21 -1.25917 12.5148)
(1.50935e-21 -1.28327 12.3144)
(1.58164e-21 -1.40456 12.0321)
(1.31854e-21 -1.57979 11.6325)
(8.32161e-22 -1.82817 11.0624)
(3.48113e-22 -2.43802 10.0582)
(2.99597e-23 -2.6146 8.61422)
(-5.71225e-23 0.216469 6.52015)
(3.42245e-26 -11.1979 28.4285)
(-9.18461e-26 -16.9238 24.9932)
(-9.76022e-25 -11.9552 25.381)
(-2.55942e-24 -12.5362 23.7128)
(-5.39972e-24 -10.7839 22.9945)
(-9.84486e-24 -10.0735 21.9399)
(-6.63177e-24 -9.0396 21.0589)
(3.25919e-23 -8.21678 20.1476)
(1.37779e-22 -7.39656 19.2829)
(2.74503e-22 -6.65169 18.4288)
(2.61405e-22 -5.93445 17.5646)
(-2.30841e-22 -5.21958 16.6106)
(-1.5094e-21 -4.45745 15.4519)
(-3.54944e-21 -3.62805 13.9677)
(-5.68956e-21 -2.78093 12.0727)
(-6.59883e-21 -2.02114 9.77681)
(-5.19837e-21 -1.40128 7.25442)
(-2.07799e-21 -0.81551 4.53404)
(1.29143e-21 0.0456917 1.36522)
(2.40825e-21 0.596846 -0.808477)
(2.70041e-26 -14.3605 30.8867)
(-8.07224e-25 -18.2089 28.0112)
(-1.78963e-24 -13.5927 27.9051)
(-1.51936e-24 -14.4615 25.6036)
(-9.48893e-25 -12.4155 24.6869)
(-3.2912e-24 -11.9396 23.146)
(3.0481e-24 -10.8464 21.978)
(6.25968e-23 -10.1256 20.7253)
(2.13088e-22 -9.34066 19.5892)
(3.58104e-22 -8.66543 18.4673)
(9.6601e-23 -7.97761 17.3258)
(-1.36301e-21 -7.21541 15.9819)
(-4.91649e-21 -6.17909 14.1188)
(-1.01424e-20 -4.56767 11.1858)
(-1.28579e-20 -2.11782 6.69189)
(-7.72636e-21 0.661578 1.40335)
(3.75466e-22 2.41654 -2.25935)
(2.99167e-21 3.1856 -3.97157)
(6.70974e-21 4.18566 -5.50824)
(-2.43317e-21 2.90022 -5.28018)