/*--------------------------------*- C++ -*----------------------------------*\
| =========                 |                                                 |
| \\      /  F ield         | OpenFOAM: The Open Source CFD Toolbox           |
|  \\    /   O peration     | Version:  4.1                                   |
|   \\  /    A nd           | Web:      www.OpenFOAM.org                      |
|    \\/     M anipulation  |                                                 |
\*---------------------------------------------------------------------------*/
FoamFile
{
    version     2.0;
    format      ascii;
    class       volScalarField;
    location    "18";
    object      p;
}
// * * * * * * * * * * * * * * * * * * * * * * * * * * * * * * * * * * * * * //

dimensions      [0 2 -2 0 0 0 0];

internalField   nonuniform List<scalar> 
1280
(
2.07379
-0.481663
1.47694
4.90954
6.92754
7.41453
8.1688
9.89716
10.0228
10.7171
11.2302
10.4617
8.40346
7.28519
5.52679
-1.34242
-6.37885
-12.0073
-15.9746
-31.7654
-21.2786
-4.94807
12.8921
22.6133
26.7593
32.7914
-7.09358
14.3176
16.121
14.9321
13.8003
12.8145
11.3404
9.69025
8.39242
8.29566
10.5535
14.7432
21.4424
21.994
3.83021
23.1189
28.028
33.1327
50.3233
49.4699
50.1532
50.9986
52.9139
52.8011
52.8301
53.0682
50.8805
49.3932
49.8674
54.7642
35.4443
31.3641
28.6906
14.2438
37.0886
38.2256
32.184
28.8551
27.2737
28.1557
30.4323
33.2802
36.0961
38.5066
41.0061
43.6727
44.2143
38.9281
73.1602
68.2244
65.2303
56.7458
37.3171
17.235
1.57668
20.2468
14.5232
9.31283
18.7503
18.034
12.6685
19.7984
18.9361
15.4038
19.5228
17.917
15.9299
16.429
17.0671
11.3578
11.4179
11.6274
9.15392
2.43543
-0.501042
-0.0274013
-1.29659
-1.17758
-1.36595
-1.23111
-0.907933
-0.0695351
1.623
3.93939
13.1248
4.35963
4.63057
2.02135
-4.35564
-5.25334
-21.8607
-7.37628
5.16352
-0.477123
0.223726
-1.50588
-2.03482
-2.27785
-1.60998
-0.548108
1.55972
5.24604
9.70184
29.2252
14.0421
11.3741
3.35497
-6.20301
-13.0164
-32.6997
-7.33579
9.52705
-0.92735
-1.30279
-1.71862
-2.3185
-2.33883
-1.48645
-0.203733
2.28215
6.59969
11.108
34.844
21.3807
16.3917
5.73058
-6.6037
-23.7522
-38.462
-7.02716
13.9218
-1.07543
-3.05942
-2.70401
-3.15726
-2.76277
-1.74944
-0.242687
2.54107
7.30576
11.8622
35.9545
25.6718
18.7113
7.11965
-5.22994
-33.6919
-41.109
-8.07705
17.7001
-1.40114
-5.32441
-4.1431
-4.23557
-3.34192
-2.14023
-0.378704
2.64514
7.63075
12.1914
33.7263
25.5523
18.5868
8.1642
-2.7061
-39.5943
-38.9608
-8.66152
21.1648
-1.90295
-7.41508
-5.73461
-5.29507
-3.89831
-2.52671
-0.573409
2.52209
7.38108
11.7365
29.2479
22.6504
17.3285
9.41896
1.32678
-36.6345
-30.1673
-6.38121
26.4283
-2.70586
-8.96418
-7.29818
-6.27505
-4.48129
-2.9531
-0.865821
2.1807
6.70318
10.7557
24.0931
18.466
15.8165
11.4022
6.56026
-28.2012
-22.2103
-6.21114
30.0634
-3.62462
-9.66164
-8.49351
-7.06543
-5.06097
-3.39416
-1.2223
1.69881
5.79047
9.49724
19.5577
14.7889
14.5629
13.901
12.7487
-13.4904
-16.2873
-3.89995
29.7272
-4.35878
-9.4701
-9.09272
-7.58886
-5.57687
-3.80881
-1.60676
1.13088
4.74745
8.05425
15.7331
11.9504
13.4267
16.263
18.3433
6.63975
2.50954
9.77765
60.8749
-4.87546
-8.64051
-9.0906
-7.84142
-5.98639
-4.17353
-1.99822
0.516356
3.63526
6.4778
12.2094
9.35512
12.2037
18.1887
21.527
18.5467
17.2675
21.6408
60.0758
-5.20552
-7.58968
-8.78375
-7.86246
-6.25743
-4.46719
-2.37319
-0.102507
2.51135
4.82453
8.66174
6.72486
10.7162
19.293
24.3874
26.0951
19.4431
21.0463
59.3965
-5.28289
-6.68713
-8.37641
-7.68108
-6.36644
-4.66772
-2.70595
-0.692961
1.41591
3.14219
5.00593
4.20891
8.96366
19.2061
26.3323
33.1225
29.4676
27.5149
57.4048
-5.09462
-6.00357
-7.86546
-7.31841
-6.30278
-4.75375
-2.96607
-1.21386
0.42385
1.57467
1.40634
1.96981
7.07465
18.5849
26.1359
35.1119
31.5882
18.079
2.83845
-4.63152
-5.32959
-7.18337
-6.78753
-6.06195
-4.7077
-3.1294
-1.64748
-0.457287
0.158304
-2.10726
0.00317504
5.20451
17.3336
25.0707
33.3323
28.8172
8.80588
-16.7671
-4.02788
-4.63272
-6.35474
-6.1053
-5.62805
-4.49623
-3.15462
-1.93378
-1.09648
-0.805371
-5.14162
-1.69251
3.63571
15.5178
22.7396
29.7874
26.205
10.3194
-7.87955
-3.25427
-3.88836
-5.42276
-5.31717
-5.04407
-4.14102
-3.0481
-2.09669
-1.62365
-1.57327
-7.68421
-3.69067
2.33215
13.255
19.728
25.5571
22.6778
10.7535
1.39429
-2.603
-3.1592
-4.38566
-4.34165
-4.19968
-3.52751
-2.7067
-2.00539
-1.68084
-1.2299
-8.42931
-6.20408
1.23997
10.7111
16.1482
20.8656
18.5445
9.0078
2.83766
-1.73758
-2.4669
-3.37794
-3.3986
-3.36207
-2.89893
-2.30812
-1.83408
-1.86589
-1.59303
-8.45434
-8.33671
0.616942
8.39488
12.7548
16.2639
13.8882
6.55132
3.2649
-1.25645
-1.62928
-2.01587
-1.95258
-1.87772
-1.58512
-1.29683
-1.12954
-0.982965
0.834038
-2.95346
-9.46603
0.319192
6.19783
9.3814
11.8352
9.21725
4.01004
2.38544
-0.58117
-0.652294
-1.14803
-1.15731
-1.25489
-1.21027
-1.07095
-0.879846
-1.22347
-2.16903
-3.20123
-8.85001
-0.860292
2.02138
2.59397
4.13706
3.32626
1.24978
0.760815
127.178
124.213
121.781
119.045
115.908
112.709
108.957
105.003
100.79
96.8348
93.0177
89.3482
85.8838
82.7595
80.1573
78.1327
76.4287
74.8453
73.0593
71.0033
110.136
108.47
106.108
104.277
102.229
100.512
99.1848
98.0872
97.1379
96.1535
94.9715
93.3166
91.0104
87.9977
84.4684
81.1239
78.7228
77.6242
77.7364
75.7994
133.915
133.705
132.489
132.253
131.603
130.769
129.736
128.5
127.145
125.664
124.156
122.668
121.228
119.871
118.66
117.649
116.938
116.174
116.104
114.491
108.34
110.72
111.834
113.318
114.547
115.668
116.836
117.773
118.588
119.111
119.322
119.189
118.763
118.189
117.804
117.838
118.577
119.601
120.513
120.877
91.3725
93.6659
95.0986
96.4493
97.9075
99.0009
100.334
101.478
102.688
103.869
105.047
106.217
107.376
108.529
109.697
110.944
112.218
113.669
114.702
116.038
69.6633
72.2102
74.1087
75.4896
77.3285
78.5461
80.1389
81.4412
82.8184
84.1288
85.4202
86.7037
87.9748
89.2623
90.5433
91.8916
93.1883
94.6799
95.7604
97.3707
47.8197
50.0669
52.1384
53.2022
55.3936
56.6032
58.5319
60.0369
61.7503
63.3814
65.0332
66.6933
68.3579
70.0657
71.7811
73.5862
75.3131
77.2266
78.6465
80.8685
17.7067
17.6577
19.3117
19.0372
20.7087
20.8145
22.1564
22.7514
23.8334
24.7311
25.8062
26.9472
28.2149
29.6446
31.2347
33.1616
35.2812
38.285
40.7816
44.5059
10.47
6.03787
6.06748
3.16502
2.503
-0.0442735
-1.19214
-3.29794
-4.61406
-6.07316
-6.86899
-7.27703
-7.16504
-6.68543
-5.87037
-4.75124
-3.52253
-1.93526
-0.486138
3.04022
50.8491
45.0227
43.7699
39.1776
36.8701
32.5342
29.3908
25.0811
21.3187
17.1044
13.4187
9.9796
7.18328
4.94666
3.49698
2.66533
2.45738
2.9501
2.47159
2.67777
103.003
100.332
100.258
97.7366
97.6584
95.5477
95.049
93.3775
92.4623
91.0282
89.7813
88.2019
86.4204
84.2249
81.7376
79.0599
76.7535
75.959
75.1368
70.8929
106.782
107.414
108.727
108.081
109.864
109.308
110.483
110.201
110.488
110.004
109.439
108.488
107.401
106.2
105.02
103.956
103.121
102.482
102.396
101.036
87.6971
89.3376
91.958
91.8232
94.9938
95.3663
97.8134
98.972
100.778
102.178
103.5
104.461
105.012
105.101
104.862
104.607
104.947
106.007
107.12
107.977
62.0953
63.2027
66.6713
65.9873
69.6979
69.8092
72.4302
73.6445
75.5641
77.2615
79.0449
80.8601
82.6882
84.5421
86.3867
88.2706
90.1174
92.1804
93.8853
96.069
28.9174
28.2337
31.8801
30.1454
33.8014
33.0674
35.4536
36.0453
37.6164
38.8251
40.213
41.6063
43.055
44.622
46.3298
48.3484
50.4959
53.1786
55.5687
59.1426
19.9484
15.9409
17.8275
13.4643
14.9613
11.9139
11.9861
10.3292
9.71557
8.74788
8.10207
7.54185
7.25622
7.37736
8.03305
9.22318
10.3526
11.8547
12.9961
16.0655
62.0409
55.8445
57.1953
49.3575
48.3895
42.5589
39.372
34.7809
30.9351
26.8456
23.0284
19.3343
16.0124
13.2618
11.316
9.97726
8.97256
8.14331
6.70715
7.36874
81.2655
73.7166
81.748
74.4593
76.3701
72.7814
71.3981
68.6753
66.2641
63.5442
60.8351
58.1176
55.5707
53.417
51.838
50.6572
49.7691
49.0307
47.6159
45.8553
92.3471
70.1113
78.4275
67.5941
65.1225
58.7132
54.0272
48.9911
44.6636
40.8086
37.6864
35.3665
34.0137
33.8165
34.9559
37.2253
40.3445
44.5536
48.5297
49.9789
774.006
691.648
642.817
586.904
538.206
491.221
447.536
406.264
367.397
330.639
295.815
262.729
231.182
201.116
172.606
144.89
118.026
95.9888
71.2733
34.8514
798.152
715.794
666.963
611.05
562.352
515.367
471.682
430.41
391.543
354.786
319.962
286.876
255.329
225.263
196.753
169.037
142.172
120.134
95.417
58.9959
116.486
94.2505
102.567
91.7339
89.2626
82.8536
78.1679
73.1321
68.8048
64.9499
61.8279
59.5079
58.1552
57.9581
59.0972
61.3661
64.4847
68.6936
72.6707
74.1205
105.431
97.8823
105.915
98.6267
100.538
96.9508
95.5686
92.8468
90.4367
87.7179
85.0099
82.2935
79.7478
77.5956
76.0178
74.8368
73.9484
73.2107
71.7962
70.0328
86.2013
80.0035
81.3536
73.5147
72.5459
66.7144
63.5266
58.9347
55.0881
50.9978
47.1801
43.4855
40.1637
37.4135
35.4678
34.1277
33.1211
32.2899
30.8511
31.5097
44.078
40.0682
41.953
37.5886
39.0833
36.0344
36.1045
34.4456
33.8298
32.8598
32.2115
31.6486
31.3604
31.4791
32.1323
33.3189
34.4442
35.9442
37.0843
40.1519
53.0157
52.3288
55.9737
54.2371
57.8911
57.1548
59.5389
60.1279
61.6968
62.9029
64.2884
65.6794
67.126
68.6914
70.3984
72.4173
74.5655
77.2496
79.6405
83.2154
86.178
87.2856
90.7556
90.0722
93.784
93.896
96.518
97.7335
99.6543
101.353
103.138
104.955
106.784
108.64
110.486
112.372
114.221
116.287
117.995
120.182
111.841
113.481
116.102
115.967
119.137
119.509
121.955
123.113
124.917
126.315
127.634
128.594
129.145
129.237
129.005
128.762
129.116
130.184
131.3
132.159
130.868
131.506
132.819
132.175
133.96
133.408
134.585
134.309
134.601
134.126
133.572
132.635
131.563
130.38
129.218
128.172
127.348
126.713
126.63
125.279
127.295
124.639
124.57
122.061
121.994
119.894
119.407
117.747
116.841
115.416
114.174
112.596
110.812
108.61
106.111
103.418
101.099
100.301
99.4887
95.2492
75.2028
69.379
68.1267
63.536
61.229
56.8946
53.7521
49.4444
45.6844
41.474
37.7929
34.3588
31.5679
29.3347
27.8852
27.0525
26.8393
27.3394
26.8607
27.0481
34.7617
30.3221
30.35
27.4455
26.7804
24.2322
23.0817
20.9746
19.6563
18.1952
17.3962
16.9825
17.0859
17.554
18.3546
19.4578
20.6739
22.2423
23.678
27.1963
41.829
41.7687
43.4178
43.1342
44.7968
44.8918
46.2221
46.8033
47.8706
48.7518
49.8102
50.9342
52.1855
53.6001
55.1775
57.0947
59.2092
62.2244
64.7253
68.4519
71.8988
74.1445
76.2152
77.2763
79.4664
80.674
82.6013
84.1047
85.8172
87.4477
89.0995
90.7605
92.427
94.1375
95.8565
97.6657
99.3971
101.315
102.739
104.966
93.7807
96.3267
98.2268
99.6074
101.447
102.665
104.258
105.561
106.939
108.25
109.541
110.825
112.095
113.382
114.661
116.007
117.302
118.79
119.868
121.475
115.399
117.696
119.136
120.492
121.955
123.053
124.391
125.538
126.753
127.937
129.118
130.291
131.452
132.606
133.771
135.013
136.281
137.727
138.755
140.088
132.506
134.898
136.034
137.538
138.792
139.933
141.12
142.075
142.905
143.436
143.645
143.496
143.038
142.417
141.988
141.989
142.706
143.718
144.617
144.955
157.535
157.395
156.315
156.139
155.492
154.668
153.66
152.438
151.083
149.585
148.047
146.512
145.011
143.583
142.308
141.252
140.513
139.736
139.627
137.951
134.704
132.934
130.732
129
127.129
125.603
124.367
123.257
122.224
121.1
119.727
117.844
115.282
111.995
108.234
104.705
102.143
100.922
100.886
98.714
147.126
144.421
142.559
140.221
137.391
134.348
130.584
126.392
121.893
117.607
113.444
109.437
105.666
102.301
99.5431
97.4014
95.5643
93.8915
91.993
89.555
)
;

boundaryField
{
    outletWall
    {
        type            fixedValue;
        value           uniform 0;
    }
    fineWalls
    {
        type            zeroGradient;
    }
    fineFrontAndBack
    {
        type            zeroGradient;
    }
    fineplugLeft
    {
        type            cyclicAMI;
        value           nonuniform List<scalar> 
20
(
61.2014
62.7359
62.8249
63.2536
64.1653
65.8044
68.1457
70.9751
74.0415
77.1742
80.4542
83.8565
86.8663
95.7609
96.7258
98.0784
99.7589
100.003
98.3809
97.4866
)
;
    }
    fineplugRight
    {
        type            cyclicAMI;
        value           nonuniform List<scalar> 
20
(
79.0617
81.2395
81.55
82.2225
83.3759
85.2656
87.9276
91.1887
94.7689
98.4569
102.287
106.249
109.956
120.162
122.11
123.558
125.223
125.396
123
121.148
)
;
    }
    inletOutletLeft
    {
        type            cyclicAMI;
        value           nonuniform List<scalar> 
20
(
61.2014
62.7359
62.8249
63.2536
64.1653
65.8044
68.1457
70.9751
74.0415
77.1742
80.4542
83.8565
86.8663
95.7609
96.7258
98.0784
99.7589
100.003
98.3809
97.4866
)
;
    }
    inletLeft
    {
        type            zeroGradient;
    }
    inletWallsLeft
    {
        type            zeroGradient;
    }
    inletFacesLeft
    {
        type            zeroGradient;
    }
    inletOutletRight
    {
        type            cyclicAMI;
        value           nonuniform List<scalar> 
20
(
79.0617
81.2395
81.55
82.2225
83.3759
85.2656
87.9276
91.1887
94.7689
98.4569
102.287
106.249
109.956
120.162
122.11
123.558
125.223
125.396
123
121.148
)
;
    }
    inletRight
    {
        type            zeroGradient;
    }
    inletWallsRight
    {
        type            zeroGradient;
    }
    inletFacesRight
    {
        type            zeroGradient;
    }
}


// ************************************************************************* //
