/*--------------------------------*- C++ -*----------------------------------*\
| =========                 |                                                 |
| \\      /  F ield         | OpenFOAM: The Open Source CFD Toolbox           |
|  \\    /   O peration     | Version:  4.1                                   |
|   \\  /    A nd           | Web:      www.OpenFOAM.org                      |
|    \\/     M anipulation  |                                                 |
\*---------------------------------------------------------------------------*/
FoamFile
{
    version     2.0;
    format      ascii;
    class       surfaceScalarField;
    location    "18";
    object      phi;
}
// * * * * * * * * * * * * * * * * * * * * * * * * * * * * * * * * * * * * * //

dimensions      [0 3 -1 0 0 0 0];

internalField   nonuniform List<scalar> 
2360
(
-12366.4
-9139.28
-3227.07
-9139.28
-9139.28
-5754.72
-3384.56
-5754.72
-5754.72
-5754.72
-1683.79
-4070.92
-1683.79
-1683.79
3473.49
-5157.27
3473.49
3473.49
9658.3
-6184.81
9658.3
9658.3
15371.5
-5713.18
15371.5
15371.5
16165.5
17645.4
19313.6
20974.2
22566.6
24079.6
18577.8
6949.84
19905.6
21116.4
22206.2
23172.9
24012.6
24717
25279.1
25718.9
26090.8
26474
26946.9
27500.6
27921.5
15096.1
12825.4
15096.1
15096.1
15096.1
3812.02
11284.1
3812.03
3812.03
3812.03
-879.901
4691.94
-879.893
-879.888
-7847.51
6967.62
-7847.51
-7847.51
-7847.51
-19430.4
11582.9
-19430.4
-19430.4
-19430.4
-30239.4
10809
-29821.6
-29284.5
-28825.2
-28452.2
-28091.6
-27667.1
-27125.1
-26441.6
-25620.1
-24669.5
-23594.8
-22398.5
-21085
-26643.2
6991.44
-25137.4
-23544.7
-21869
-20155.9
-18600.5
-17730.8
-17730.8
-17730.8
-15828.6
-1902.24
-15828.6
-15828.6
-13289.9
-2538.72
-13289.9
-13289.9
-9763.75
-3526.1
-9763.75
-9763.75
-5419.59
-4344.17
-5419.59
-5419.59
-5419.59
-159.341
-5260.25
-159.342
-159.343
5583.82
-5743.16
-2499.69
-11892.6
-1951.08
-7059.45
-1892.41
7978.25
-1964.58
12877.2
-1982.57
16904.6
-1928.01
20169
-1811.06
22890.1
-1632.87
24747
-1404.31
25349.8
-1141.66
23570.4
-224.523
14941.9
-535.016
-14340
-2057.29
-20850.9
-2561.67
-23152.3
-804.309
-22232.7
3418.42
-2022.53
5583.15
18831.7
6382.88
23482.7
17458.4
-1618.61
-11945.8
-1525.58
-7152.49
-1758.16
8210.83
-1961.57
13080.6
-2007.6
16950.6
-1973.33
20134.8
-1882.38
22799.2
-1748.35
24613
-1606.35
25207.7
-1514.27
23478.4
-730.76
14158.4
-2780.44
-12290.3
-5168.32
-18463.1
-5336.86
-22983.8
-3164.07
-24405.5
1709.07
-6895.67
4625.74
15915
5728.97
22379.5
17927.1
-1035.59
-11770
-1282.87
-6905.21
-1605.87
8533.83
-1949.34
13424.1
-2047.24
17048.5
-2038.17
20125.7
-1979.16
22740.2
-1898.02
24531.8
-1869.95
25179.7
-1920.22
23528.7
-1929.4
14167.6
-4672.11
-9547.6
-6738.97
-16396.2
-6763.28
-22959.5
-5005.04
-26163.7
-361.427
-11539.3
2930.21
12623.4
4388.12
20921.6
17971.1
-419.808
-11390.1
-1077.92
-6247.09
-1497.73
8953.64
-1929.93
13856.3
-2107.8
17226.4
-2123.92
20141.8
-2097.7
22713.9
-2072.99
24507.1
-2155.71
25262.4
-2414.64
23787.6
-3206.11
14959
-6186.11
-6567.6
-7986.42
-14595.9
-8239.38
-22706.5
-7094.18
-27308.9
-2916.67
-15716.8
582
9124.72
2532.92
18970.7
16977.9
16.2001
-10814.8
-1037.74
-5193.16
-1472.46
9388.36
-1923.05
14306.9
-2187.08
17490.4
-2239.54
20194.3
-2239.8
22714.2
-2268.33
24535.6
-2441.49
25435.6
-2888.36
24234.5
-4185.85
16256.5
-6961
-3792.45
-8374.59
-13182.3
-9084.18
-21996.9
-9058.43
-27334.7
-5906.93
-18868.3
-2066.37
5284.16
432.154
16472.1
14871.3
178.533
-10043.3
-1198.08
-3816.55
-1576.42
9766.7
-1959.29
14689.8
-2278.11
17809.2
-2384.17
20300.3
-2402.49
22732.5
-2470.74
24603.9
-2703.38
25668.2
-3272.06
24803.1
-4710.47
17694.9
-6916.86
-1586.06
-7915.16
-12184
-9305.68
-20606.4
-10779.6
-25860.8
-9039.74
-20608.1
-4816.68
1061.1
-1447.81
13103.3
11521.3
16.9718
-9043.22
-1588.87
-2210.7
-1837.44
10015.3
-2071.96
14924.3
-2384.05
18121.3
-2550.26
20466.6
-2586.59
22768.9
-2674.68
24692
-2937.73
25931.2
-3565.76
25431.2
-4871.35
19000.5
-6414.59
-42.8198
-7070.27
-11528.3
-9168.33
-18508.3
-12127.3
-22901.8
-11891.4
-20844
-7052.72
-3777.59
-3779.97
9830.51
14732.7
-504.216
-7833.8
-2175.65
-539.262
-2247.37
10087
-2286.89
14963.8
-2519.98
18354.4
-2728.85
20675.4
-2792.81
22832.8
-2882.96
24782.1
-3152.7
26201
-3798.87
26077.3
-4938.59
20140.2
-5983.49
1002.08
-6380.34
-11131.5
-8863.83
-16024.8
-12912.6
-18853
-14838.9
-18917.8
-11881.8
-6734.65
-9691.53
7640.23
15850.2
-1368.08
-6502.69
-2893.91
986.571
-2783.1
9976.17
-2617.52
14798.2
-2707.76
18444.6
-2916.14
20883.8
-3016.56
22933.2
-3101.25
24866.8
-3356.91
26456.6
-3987.75
26708.2
-5010.53
21163
-5776.83
1768.39
-5874.5
-11033.8
-8136.73
-13762.6
-12488.5
-14501.2
-16066.6
-15339.7
-16667.7
-6133.55
-15180.1
6152.62
12253
-2480.91
-5158.71
-3662.74
2168.4
-3416.76
9730.19
-3062.09
14443.6
-2968.63
18351.2
-3118.2
21033.4
-3249.45
23064.5
-3332.96
24950.3
-3557.54
26681.2
-4147.7
27298.4
-5099.02
22114.3
-5647.87
2317.24
-5256.52
-11425.2
-6678.23
-12340.9
-10530
-10649.4
-13775.6
-12094.2
-14385.7
-5523.46
-12717.2
4484.09
6503.48
-3678.97
-3895.5
-4491.05
2980.47
-4117.27
9356.41
-3603.8
13930.1
-3315.69
18063.1
-3349.94
21067.6
-3485.57
23200.1
-3576.82
25041.6
-3761.4
26865.8
-4288.41
27825.4
-5157.46
22983.4
-5416.41
2576.2
-4578.76
-12262.8
-4938.09
-11981.6
-8053.61
-7533.91
-12167.2
-7980.58
-12360
-5330.65
-9306.5
1430.6
1888.91
-4837.25
-2792.15
-5335.84
3479.06
-4845.38
8865.95
-4214.51
13299.2
-3748.58
17597.1
-3628.6
20947.6
-3725.73
23297.2
-3826.98
25142.8
-3973.76
27012.6
-4411.49
28263.1
-5123.61
23695.5
-5012.01
2464.6
-4095.4
-13179.4
-3784.8
-12292.2
-5189.94
-6128.77
-10291.4
-2879.16
-15226.3
-395.757
-15197.4
1401.75
-2024.39
-5884.64
-1886.33
-6132.33
3726.75
-5565.22
8298.84
-4863.69
12597.7
-4255.55
16989
-3968.2
20660.3
-3980.65
23309.7
-4080.39
25242.6
-4199.91
27132.1
-4523.24
28586.4
-4981.97
24154.2
-4398.87
1881.5
-3645.78
-13932.5
-3354.64
-12583.3
-2663.6
-6819.81
-4435.46
-1107.3
-9500.51
4669.29
-12583.7
4484.9
-1782.68
-6784.39
-1190.4
-6838
3780.36
-6245.58
7706.42
-5520.76
11872.9
-4816.22
16284.5
-4373.36
20217.4
-4264.64
23201
-4336.71
25314.6
-4440.57
27236
-4637.87
28783.7
-4739.08
24255.4
-3512.8
655.225
-2926.82
-14518.5
-2814.69
-12695.5
-1614.96
-8019.54
304.565
-3026.82
-97.1425
5071
-1864.27
6252.03
3302.88
-7539.63
-684.699
-7459.66
3700.39
-6880.77
7127.53
-6165.52
11157.6
-5408.63
15527.6
-4839.51
19648.3
-4594.02
22955.5
-4609.57
25330.2
-4703.49
27329.9
-4768.17
28848.4
-4396.09
23883.4
-2500.3
-1240.56
-2017.38
-15001.4
-2082.76
-12630.1
-700.851
-9401.45
1728.35
-5456.02
4303.77
2495.58
5217.76
5338.04
2807.46
-8155.64
-366.776
-7990.69
3535.44
-7466.57
6603.41
-6787.1
10478.2
-6015.38
14755.8
-5356.16
18989.1
-4976.29
22575.6
-4908.04
25261.9
-4989.22
27411
-4929.2
28788.4
-4023.08
22977.2
-1818.71
-3444.94
-1304.69
-15515.4
-1361.24
-12573.5
9.25508
-10771.9
1886.56
-7333.32
4569.43
-187.296
6358.56
3548.91
2981.2
-8737.34
-197.958
-8505.43
3303.54
-8026.75
6124.73
-7389.23
9840.66
-6624.34
13991
-5907.64
18272.4
-5417.78
22085.8
-5266.77
25110.9
-5328.43
27472.7
-5105.72
28565.7
-3589.99
21461.5
-1509.99
-5524.93
-976.704
-16048.7
-744.905
-12805.3
533.091
-12049.9
2080.96
-8881.19
4182.81
-2289.15
5452.57
2279.16
3276.49
-9242.32
-225.989
-8956.09
3017.31
-8574.17
5742.81
-8010.8
9277.29
-7293.77
13273.9
-6562.45
17541.1
-5989.02
21512.3
-5733.28
24855.2
-5717.23
27456.7
-5288.64
28137.1
-3093.16
19266
-1153.24
-7464.85
-760.052
-16441.9
-252.391
-13313
909.73
-13212.1
2230.07
-10201.5
3891.08
-3950.16
4620.79
1549.45
3826.36
-9956.69
-437.471
-9421.54
2482.15
-8942.68
5263.95
-8417.24
8751.85
-7746.46
12603.1
-7015.63
16810.2
-6386.88
20883.6
-6090.3
24558.6
-6080.35
27446.7
-5413.01
27469.7
-2463.7
16316.7
-671.185
-9257.37
-451.497
-16661.6
127.6
-13892.1
1157.92
-14242.4
2268.7
-11312.3
3549.84
-5231.31
3947.83
1151.47
4389.62
-11035.8
-10591
-9958.28
-9390.24
-8744.06
-8089.78
-7544.04
-7257.37
-6990.21
-5643.92
-2479.24
-470.535
-153.504
366.693
1301.39
2190.77
2945.04
3373.94
326.69
-1120.73
753.278
-1906.43
1000.96
-1915.93
1081.41
-1741
1077.24
-1588.3
1034.6
-1470.34
931.337
-1344.73
814.185
-1210.68
672.836
-1069.51
509.124
-926.072
325.695
-783.353
125.73
-639.669
-86.8416
-491.858
-295.477
-353.481
-461.411
-273.879
-536.028
-297.339
-484.328
-434.849
-321.802
-635.519
-120.838
-754.583
-541.786
190.441
-1311.18
275.706
-1991.7
144.62
-1784.85
-67.7024
-1528.68
-290.295
-1365.71
-505.759
-1254.88
-703.103
-1147.39
-888.966
-1024.82
-1065.6
-892.885
-1235.02
-756.652
-1394.59
-623.794
-1532.21
-502.054
-1619.13
-404.94
-1614.76
-357.856
-1500.62
-388.021
-1275.9
-522.055
-966.297
-744.455
-624.864
-976.952
-304.029
-1075.42
-845.815
-128.321
-1182.86
-168.304
-1951.72
-174.077
-1779.08
-159.345
-1543.42
-151.775
-1373.29
-161.997
-1244.67
-171.598
-1137.8
-164.164
-1032.26
-132.849
-924.207
-77.5166
-811.993
-2.56245
-698.757
85.932
-590.56
182.631
-501.651
280.214
-455.454
367.201
-475.018
416.227
-571.088
388.708
-716.94
277.068
-865.315
118.942
-917.296
-726.873
-123.597
-1059.27
-76.5861
-1998.73
47.3154
-1902.98
139.271
-1635.38
207.479
-1441.5
268.714
-1305.9
335.79
-1204.88
415.059
-1111.54
512.426
-1021.58
632.272
-931.841
774.811
-841.299
933.104
-748.856
1088.01
-656.557
1206.15
-573.595
1245.85
-514.721
1171.27
-496.512
976.239
-521.91
679.086
-568.162
339.279
-577.489
-387.594
-7.98434
-1051.29
34.5953
-2041.32
104.217
-1972.61
162.071
-1693.24
228.467
-1507.9
300.038
-1377.48
372.065
-1276.91
440.828
-1180.31
506.599
-1087.35
571.185
-996.434
637.651
-907.769
709.583
-820.794
787.467
-734.443
861.847
-647.98
910.821
-563.696
900.895
-486.588
803.408
-424.423
604.556
-369.31
326.609
-299.542
-60.9846
130.846
-1182.13
186.321
-2096.79
218.034
-2004.32
253.897
-1729.1
308.426
-1562.43
368.842
-1437.9
430.55
-1338.62
488.372
-1238.13
540.747
-1139.73
584.892
-1040.58
618.578
-941.454
640.247
-842.465
649.91
-744.105
648.274
-646.344
633.916
-549.339
597.944
-450.615
524.529
-351.007
394.37
-239.15
200.436
-105.605
139.451
274.547
-1456.68
348.296
-2170.54
348.408
-2004.44
376.137
-1756.84
437.899
-1624.19
506.618
-1506.62
579.964
-1411.97
652.279
-1310.45
722.257
-1209.71
783.182
-1101.51
829.219
-987.493
854.521
-867.768
855.092
-744.677
828.07
-619.323
771.816
-493.086
684.415
-363.214
563.193
-229.786
402.969
-78.9254
200.914
96.4488
340.365
345.632
-1802.31
364.907
-2189.81
338.594
-1978.12
370.783
-1789.02
442.704
-1696.11
522.79
-1586.7
614.867
-1504.04
710.503
-1406.08
806.286
-1305.49
888.09
-1183.31
947.624
-1047.03
978.88
-899.023
980.33
-746.128
948.68
-587.672
878.15
-422.556
760.504
-245.569
558.14
-27.425
344.992
134.22
169.576
271.861
509.941
226.266
-2028.58
127.887
-2091.44
77.0736
-1927.31
79.0249
-1790.97
102.454
-1719.54
134.824
-1619.07
180.814
-1550.03
232.035
-1457.3
279.193
-1352.65
304.027
-1208.15
299.383
-1042.38
265.963
-865.604
209.921
-690.09
132.536
-510.292
37.7816
-327.809
-46.4232
-161.383
-39.91
-33.9571
-67.5373
161.835
-119.14
323.457
390.801
-29.0702
-1999.51
-166.871
-1953.63
-259.102
-1835.07
-343.984
-1706.09
-426.918
-1636.61
-507.585
-1538.4
-585.058
-1472.56
-660.56
-1381.79
-739.872
-1273.34
-829.126
-1118.89
-930.138
-941.372
-1037.69
-758.048
-1144.49
-583.296
-1240.83
-413.947
-1313.79
-254.847
-1345.86
-129.315
-1315.5
-64.3202
-1096.51
-57.1563
-638.789
-134.27
-247.988
-152.399
-1847.11
-234.735
-1871.3
-338.786
-1731.02
-470.39
-1574.48
-605.654
-1501.35
-758.811
-1385.25
-924.196
-1307.18
-1099.61
-1206.38
-1272.54
-1100.41
-1430.73
-960.693
-1569.36
-802.745
-1687.88
-639.523
-1782.87
-488.309
-1834.81
-362.01
-1805.66
-283.992
-1657.6
-277.382
-1367.74
-354.174
-919.222
-505.676
-386.319
-667.173
-634.307
-52.2334
-1794.87
-45.4479
-1878.08
-58.1692
-1718.3
-97.298
-1535.35
-138.213
-1460.43
-195.449
-1328.01
-264.924
-1237.69
-344.157
-1127.14
-416.907
-1027.66
-459.951
-917.643
-458.757
-803.933
-410.999
-687.274
-323.49
-575.811
-205.039
-480.451
-66.5135
-422.508
80.5396
-424.423
205.931
-479.558
256.275
-556.014
174.597
-585.49
-459.71
46.2481
-1841.12
91.0825
-1922.91
140.168
-1767.38
182.999
-1578.18
226.099
-1503.52
268.801
-1370.71
308.467
-1277.36
348.384
-1167.05
389.698
-1068.97
443.882
-971.825
519.534
-879.583
622.202
-789.94
747.951
-701.558
881.437
-613.936
986.783
-527.851
1010.76
-448.396
913.867
-382.665
686.496
-328.641
363.098
-262.088
-96.6119
96.7229
-1937.84
123.08
-1949.26
176.059
-1820.36
234.032
-1636.15
296.803
-1566.29
360.064
-1433.96
427.189
-1344.48
497.653
-1237.51
571.133
-1142.45
644.917
-1045.6
715.827
-950.489
779.983
-854.092
832.912
-754.484
868.018
-649.038
877.229
-537.059
845.837
-417
753.77
-290.596
576.924
-151.791
317.327
-2.48582
220.715
106.358
-2044.19
102.414
-1945.32
148.485
-1866.43
200.474
-1688.13
260.962
-1626.78
322.502
-1495.5
391.385
-1413.36
464.814
-1310.94
546.345
-1223.98
634.083
-1133.34
726.009
-1042.41
813.122
-941.203
880.222
-821.581
906.219
-675.033
874.255
-505.093
785.242
-327.985
649.637
-154.987
443.736
54.1138
228.868
212.387
449.583
46.1885
-2090.38
16.3316
-1915.46
29.1704
-1879.26
50.4459
-1709.41
75.9906
-1652.32
110.674
-1530.18
151.046
-1453.73
200.22
-1360.11
257.736
-1281.49
323.04
-1198.64
392.314
-1111.68
453.709
-1002.59
484.758
-852.627
457.146
-647.416
362.588
-410.532
254.123
-219.514
192.972
-93.8316
137.183
109.908
32.7975
316.776
482.381
-55.4827
-2034.9
-132.692
-1838.25
-187.418
-1824.53
-228.751
-1668.07
-269.745
-1611.32
-295.164
-1504.76
-317.905
-1430.99
-330.184
-1347.83
-336.74
-1274.93
-336.108
-1199.27
-331.467
-1116.32
-326.91
-1007.15
-328.45
-851.084
-336.07
-639.794
-339.964
-406.632
-333.985
-225.489
-328.435
-99.3728
-297.414
78.8943
-241.356
260.724
241.025
-187.576
-1847.32
-393.785
-1632.04
-563.085
-1655.23
-699.152
-1532
-825.552
-1484.92
-925.746
-1404.56
-1015.18
-1341.55
-1088.7
-1274.3
-1151.88
-1211.75
-1202.71
-1148.44
-1237.81
-1081.22
-1243.93
-1001.03
-1197.4
-897.61
-1070.63
-766.567
-860.896
-616.363
-629.788
-456.595
-449
-280.159
-286.95
-83.1544
-114.545
88.3216
126.48
-203.711
-1643.61
-454.116
-1381.63
-718.084
-1391.26
-944.599
-1305.49
-1163.74
-1265.78
-1353.88
-1214.42
-1524.14
-1171.29
-1670.54
-1127.9
-1795.44
-1086.85
-1897.22
-1046.67
-1971.37
-1007.07
-2005.73
-966.669
-1979.99
-923.348
-1873.44
-873.122
-1678.68
-811.122
-1400.85
-734.428
-1042.87
-638.135
-622.613
-503.41
-220.189
-314.102
-93.709
-668.605
-1075.23
-1491.5
-1821.99
-2112.76
-2352.18
-2548.48
-2701.37
-2813.22
-2884.89
-2916.96
-2908.62
-2856.97
-2755.09
-2591.22
-2350.64
-2013.78
-1542.19
-881.291
-668.611
1643.61
-1075.24
1381.63
-1491.5
1391.26
-1821.99
1305.48
-2112.76
1265.77
-2352.17
1214.41
-2548.45
1171.28
-2701.34
1127.89
-2813.17
1086.83
-2884.83
1046.65
-2916.88
1007.06
-2908.54
966.661
-2856.89
923.343
-2755
873.119
-2591.13
811.123
-2350.57
734.44
-2013.73
638.165
-1542.19
503.462
-881.342
314.148
93.6579
-203.674
1847.29
-454.041
1632
-717.97
1655.19
-944.448
1531.96
-1163.55
1484.88
-1353.65
1404.52
-1523.88
1341.51
-1670.24
1274.25
-1795.11
1211.71
-1896.85
1148.39
-1970.96
1081.17
-2005.26
1000.96
-1979.46
897.541
-1872.88
766.54
-1678.17
616.414
-1400.43
456.701
-1042.54
280.276
-622.342
83.2664
-219.964
-88.2295
-126.306
-187.578
2034.87
-393.805
1838.23
-563.119
1824.51
-699.21
1668.06
-825.635
1611.3
-925.862
1504.74
-1015.33
1430.98
-1088.9
1347.83
-1152.13
1274.93
-1203
1199.27
-1238.13
1116.29
-1244.23
1007.06
-1197.62
850.926
-1070.7
639.624
-860.9
406.615
-629.895
225.697
-449.058
99.4401
-286.697
-79.0939
-114.205
-260.72
-240.511
-55.5471
2090.41
-132.801
1915.48
-187.586
1879.29
-228.984
1709.45
-270.048
1652.37
-295.544
1530.24
-318.368
1453.8
-330.738
1360.2
-337.396
1281.59
-336.874
1198.75
-332.354
1111.77
-327.916
1002.62
-329.536
852.547
-337.134
647.223
-340.897
410.379
-334.78
219.582
-329.15
93.812
-298.078
-110.165
-241.874
-316.922
-482.385
46.1216
2044.29
16.2049
1945.4
28.9803
1866.52
50.1929
1688.24
75.6703
1626.89
110.29
1495.62
150.596
1413.5
199.707
1311.09
257.161
1224.14
322.397
1133.51
391.588
1042.58
452.871
941.343
483.771
821.647
456.013
674.982
361.47
504.924
253.308
327.745
192.446
154.677
136.708
-54.4248
32.461
-212.674
-449.924
106.404
1937.89
102.39
1949.41
148.441
1820.47
200.419
1636.26
260.907
1566.4
322.45
1434.08
391.344
1344.6
464.79
1237.64
546.346
1142.58
634.115
1045.74
726.078
950.62
813.222
854.2
880.318
754.552
906.254
649.046
874.185
536.993
785.068
416.862
649.354
290.392
443.429
151.5
228.704
2.05194
-221.219
96.8873
1841
123.185
1923.12
176.171
1767.48
234.163
1578.27
296.976
1503.59
360.253
1370.8
427.406
1277.45
497.881
1167.16
571.378
1069.09
645.168
971.952
716.071
879.718
780.189
790.082
833.058
701.683
868.056
614.047
877.082
527.968
845.493
448.452
753.33
382.556
576.519
328.311
317.038
261.534
95.8186
46.3834
1794.62
91.1939
1878.31
140.308
1718.37
183.223
1535.36
226.418
1460.4
269.246
1327.97
309.077
1237.62
349.198
1127.04
390.738
1027.55
445.112
917.577
520.857
803.973
623.493
687.446
749.101
576.075
882.318
480.83
987.247
423.039
1010.81
424.884
913.778
479.594
686.361
555.728
363.084
584.812
458.903
-51.8345
1846.45
-44.7367
1871.21
-57.0706
1730.7
-95.7783
1574.06
-136.279
1500.9
-193.06
1384.76
-262.065
1306.62
-340.777
1205.76
-412.967
1099.74
-455.438
960.049
-453.712
802.248
-405.49
639.225
-317.604
488.19
-198.877
362.104
-60.2185
284.382
86.5322
278.136
210.963
355.164
259.533
507.158
175.813
668.532
634.716
-152.488
1998.94
-234.581
1953.3
-338.548
1834.67
-470.151
1705.67
-605.427
1636.17
-758.658
1537.99
-924.148
1472.11
-1099.68
1381.29
-1272.65
1272.7
-1430.77
1118.17
-1569.2
940.678
-1687.44
757.458
-1782.06
582.813
-1833.52
413.561
-1803.7
254.568
-1654.95
129.38
-1364.95
65.1647
-916.702
58.9128
-384.821
136.652
249.895
-29.7764
2028.72
-167.532
2091.06
-259.921
1927.06
-345.099
1790.84
-428.372
1719.45
-509.429
1619.04
-587.348
1550.03
-663.346
1457.29
-743.169
1352.53
-832.883
1207.89
-934.247
1042.04
-1042.04
865.25
-1148.98
689.754
-1245.37
509.949
-1318.21
327.41
-1349.88
161.049
-1319.84
35.1269
-1099.07
-161.862
-639.32
-323.098
-389.425
225.593
1803.12
126.849
2189.8
75.7827
1978.13
77.4041
1789.22
100.444
1696.41
132.428
1587.06
178.004
1504.46
228.776
1406.51
275.415
1305.89
299.696
1183.61
294.53
1047.21
260.686
899.092
204.335
746.104
126.746
587.536
31.9092
422.245
-51.9613
244.913
-41.5203
24.6787
-69.1887
-134.198
-120.424
-271.865
-509.849
345.705
1457.42
364.756
2170.75
338.347
2004.53
370.515
1757.05
442.429
1624.49
522.542
1506.95
614.686
1412.31
710.407
1310.79
806.262
1210.03
888.096
1101.77
947.632
987.67
978.887
867.838
980.363
744.627
948.753
619.146
878.22
492.777
760.36
362.773
555.821
229.217
343.332
78.2899
168.681
-97.2152
-341.168
274.93
1182.49
348.671
2097.01
348.692
2004.51
376.428
1729.32
438.255
1562.66
507.061
1438.14
580.515
1338.86
652.948
1238.36
723.039
1139.94
784.059
1040.75
830.159
941.57
855.489
842.507
856.043
744.072
828.951
646.237
772.573
549.155
685.001
450.344
563.588
350.63
403.262
238.615
201.147
104.899
-140.021
131.04
1051.45
186.579
2041.47
218.291
1972.8
254.136
1693.47
308.614
1508.19
368.977
1377.77
430.635
1277.2
488.42
1180.57
540.766
1087.59
584.877
996.641
618.502
907.944
640.066
820.942
649.565
734.572
647.734
648.068
633.196
563.692
597.127
486.413
523.756
424
393.812
368.559
200.195
298.515
60.174
-8.00792
1059.45
34.0526
1999.41
103.372
1903.48
161.393
1635.45
228.004
1441.57
299.72
1306.06
371.867
1205.05
440.75
1111.69
506.627
1021.71
571.311
931.956
637.849
841.406
709.782
749.008
787.654
656.7
861.957
573.764
910.682
514.966
900.417
496.677
802.662
521.755
603.805
567.416
326.237
576.083
386.411
-124.916
1184.37
-77.1923
1951.68
46.1631
1780.12
136.816
1544.79
204.666
1373.72
266.227
1244.5
333.777
1137.5
413.676
1031.79
511.906
923.482
632.913
810.949
776.91
697.408
936.891
589.026
1093.41
500.179
1212.36
454.819
1251.97
475.349
1176.72
571.927
980.015
718.463
681.062
866.368
339.739
917.406
726.15
-140.451
1324.82
-182.272
1993.5
-180.551
1778.4
-160
1524.24
-154.013
1367.74
-168.385
1258.87
-181.142
1150.26
-176.047
1026.69
-146.745
894.18
-93.187
757.391
-19.4038
623.624
69.0121
500.61
166.942
402.248
267.109
354.651
355.843
386.614
406.25
521.52
381.212
743.5
273.102
974.479
118.173
1072.34
844.322
159.552
1165.27
215.991
1937.06
74.745
1919.65
-132.628
1731.61
-346.379
1581.49
-553.813
1466.3
-744.883
1341.32
-926.186
1208
-1098.84
1066.83
-1264.32
922.871
-1419.66
778.963
-1552.33
633.283
-1633.56
483.48
-1625.93
347.013
-1509.79
270.481
-1283.53
295.258
-972.011
431.98
-626.245
628.713
-299.485
745.575
544.838
295.633
677.231
883.833
939.757
928.538
889.05
797.074
691.64
562.086
410.245
238.62
50.4077
-149.627
-344.577
-498.619
-563.926
-504.936
-335.501
-127.028
)
;

boundaryField
{
    outletWall
    {
        type            calculated;
        value           nonuniform List<scalar> 
60
(
5583.82
-16818.7
-24282.4
-20996.4
-2200.2
20475.3
23656.7
22373.2
14650.5
-15859
-23833.1
-25578.3
-24925.2
-23007.1
-20223.6
-16886.6
-12805.1
-8036.92
6510.83
11545.2
11058
10168.2
9270.35
8568.52
7837.71
7033.92
6088.46
4978.83
3733.9
2415.77
1136.93
36.9699
-705.202
-1017.03
-950.061
-591.485
39.9255
859.809
1671.8
2847.09
12366.4
4536.49
722.561
-5985.58
-12201.7
-15177.1
-14412.3
-16978.6
-11266.1
13152
26123.5
27179.5
24271.9
20337.8
16156
11957
8183.8
4631.21
2037.35
-459.647
)
;
    }
    fineWalls
    {
        type            calculated;
        value           uniform 0;
    }
    fineFrontAndBack
    {
        type            calculated;
        value           nonuniform List<scalar> 
960
(
-5.37721e-12
-2.00656e-11
-4.1217e-12
-4.35883e-12
-2.46561e-11
-4.15342e-12
-4.23245e-12
-4.29206e-12
-2.04623e-11
-1.16124e-12
-4.82371e-13
-1.89423e-13
1.90518e-12
2.38321e-12
5.57857e-12
1.02755e-12
1.139e-12
1.74347e-12
5.32947e-14
1.08377e-13
-2.21061e-14
-1.32935e-13
-1.46476e-13
-9.80725e-14
-4.35748e-14
-4.65423e-15
3.05503e-13
8.80803e-14
1.37306e-13
1.89156e-13
2.41034e-13
2.6458e-13
2.35031e-13
1.46882e-13
1.93135e-14
-1.41058e-13
-3.45482e-13
-5.93181e-13
-7.94493e-13
-1.03398e-12
-3.22834e-11
-4.99686e-12
-4.76027e-12
-4.04699e-12
-6.84228e-12
1.09591e-12
2.15988e-12
1.94201e-12
4.263e-11
-6.8961e-12
-1.82653e-12
-7.40872e-12
-3.25903e-13
5.35963e-13
1.52836e-12
2.18648e-11
5.34634e-12
5.9457e-12
6.43908e-12
4.02896e-11
1.2783e-12
1.07456e-12
8.99435e-13
6.81833e-13
5.03958e-13
3.71879e-13
2.75188e-13
2.20645e-13
2.3187e-13
2.99155e-13
3.86291e-13
4.68113e-13
5.35462e-13
1.50435e-11
5.93516e-13
6.51368e-13
7.31139e-13
8.4574e-13
9.25216e-13
9.22673e-13
5.65946e-12
6.37883e-12
3.92367e-11
7.42136e-12
8.18196e-12
4.31167e-11
6.86637e-12
7.13709e-12
3.67044e-11
6.21012e-12
6.97868e-12
3.36112e-11
3.61926e-12
3.586e-12
3.65623e-12
2.09838e-11
3.6907e-12
3.69411e-12
1.52022e-11
3.09377e-12
-1.60168e-11
-1.98624e-11
-3.27257e-11
-3.189e-11
-2.69778e-11
-1.82536e-11
-7.62803e-12
1.04584e-12
5.33624e-12
6.02291e-12
5.56859e-12
7.4445e-12
1.48008e-11
1.47614e-11
7.26736e-12
5.73107e-12
1.52594e-11
2.24655e-11
2.98838e-11
1.53261e-12
-8.97503e-12
-3.29015e-11
-3.17288e-11
-2.65463e-11
-1.77409e-11
-7.21245e-12
1.26478e-12
5.39354e-12
5.9877e-12
5.61264e-12
1.14117e-11
1.64254e-11
8.43971e-12
2.20795e-12
5.59629e-12
1.36244e-11
2.13059e-11
2.88891e-11
9.06697e-12
-3.57818e-12
-3.16935e-11
-3.16134e-11
-2.59987e-11
-1.70696e-11
-6.67369e-12
1.54978e-12
5.46599e-12
5.92983e-12
5.83517e-12
1.23507e-11
1.14842e-11
3.49441e-12
2.05156e-12
7.86413e-12
1.05092e-11
1.92194e-11
2.67297e-11
1.47201e-11
1.03524e-12
-2.91071e-11
-3.13311e-11
-2.54365e-11
-1.6311e-11
-6.06851e-12
1.86753e-12
5.54245e-12
5.87736e-12
6.09696e-12
9.93363e-12
5.48482e-12
-1.255e-13
2.0628e-12
9.86829e-12
1.09038e-11
1.78776e-11
2.4364e-11
1.64077e-11
3.06509e-12
-2.59058e-11
-3.05509e-11
-2.48645e-11
-1.55017e-11
-5.41087e-12
2.21271e-12
5.61945e-12
5.85658e-12
6.06062e-12
4.68772e-12
-2.29528e-12
-3.97985e-12
2.60498e-12
1.24916e-11
1.6635e-11
1.80947e-11
2.21564e-11
1.55808e-11
2.9675e-12
-2.28477e-11
-2.91268e-11
-2.41446e-11
-1.46183e-11
-4.66366e-12
2.57678e-12
5.69697e-12
5.87467e-12
5.67796e-12
-2.43923e-12
-1.17992e-11
-7.99799e-12
3.73455e-12
1.51777e-11
1.91342e-11
1.57783e-11
2.01e-11
1.3489e-11
1.29754e-12
-2.05133e-11
-2.71874e-11
-2.31611e-11
-1.37407e-11
-3.9349e-12
2.96808e-12
5.77361e-12
5.94248e-12
5.22994e-12
-8.55999e-12
-1.95723e-11
-1.06053e-11
4.44652e-12
1.82334e-11
2.65199e-11
1.5579e-11
2.12885e-11
1.12565e-11
-1.05917e-12
-1.88621e-11
-2.49301e-11
-2.18113e-11
-1.26608e-11
-2.83299e-12
3.35848e-12
5.85727e-12
6.03438e-12
4.63719e-12
-1.10731e-11
-1.92081e-11
-1.00445e-11
3.20129e-12
1.88328e-11
3.6272e-11
4.7934e-11
5.39502e-11
9.62556e-12
-3.29372e-12
-1.71515e-11
-2.22179e-11
-1.98882e-11
-1.17424e-11
-2.73123e-12
3.83578e-12
5.92155e-12
6.0914e-12
4.29856e-12
-8.7818e-12
-9.97028e-12
-7.07364e-12
-1.52019e-12
1.63953e-11
2.41344e-11
4.85603e-11
4.90834e-11
8.9685e-12
-4.04557e-12
-1.50917e-11
-1.93526e-11
-1.76927e-11
-1.01591e-11
3.02255e-14
4.24025e-12
5.96363e-12
6.10182e-12
3.97211e-12
-7.52617e-12
-1.36879e-13
-3.03744e-12
-7.68211e-12
1.27104e-11
1.14105e-11
1.31836e-12
4.63243e-12
9.35493e-12
-2.3172e-12
-1.20967e-11
-1.63628e-11
-1.53354e-11
-8.45813e-12
6.18568e-13
4.65333e-12
6.01929e-12
5.99008e-12
3.90576e-12
-2.19898e-12
3.35662e-12
2.34139e-12
-4.56094e-12
-1.46848e-12
2.49596e-11
4.61841e-11
6.34809e-11
1.08876e-11
2.48595e-12
-6.28771e-12
-1.13962e-11
-1.17628e-11
-6.41434e-12
6.74283e-13
5.03319e-12
6.10291e-12
5.7706e-12
3.33615e-12
-4.71348e-13
3.45141e-12
2.88962e-12
-5.98226e-12
-2.12113e-11
-2.1147e-11
-9.776e-12
-8.90837e-12
1.29707e-11
8.53666e-12
1.93398e-12
-3.38228e-12
-5.85558e-12
-3.61681e-12
1.15414e-12
5.25423e-12
6.18162e-12
5.39023e-12
2.74948e-12
1.31595e-13
3.1541e-12
3.81162e-12
-1.68883e-13
-1.75924e-11
-4.72449e-11
-5.92839e-11
-6.28476e-11
1.46348e-11
1.24387e-11
8.5145e-12
4.51718e-12
7.3047e-13
-4.76529e-13
1.57636e-12
5.27635e-12
6.18993e-12
4.83704e-12
2.34551e-12
8.16748e-13
2.7939e-12
3.5468e-12
1.0724e-12
-6.72998e-12
-3.16152e-11
-5.36636e-11
-1.10259e-11
1.59796e-11
1.41853e-11
1.12134e-11
8.56344e-12
4.9701e-12
2.073e-12
2.22521e-12
5.27872e-12
6.03258e-12
4.16206e-12
2.08442e-12
1.5626e-12
3.0234e-12
3.52874e-12
2.09817e-12
-5.81464e-12
-1.2228e-11
-2.90789e-11
-2.02363e-11
1.72289e-11
1.60268e-11
1.22684e-11
9.52536e-12
6.51172e-12
3.84201e-12
3.38527e-12
5.4043e-12
5.59601e-12
3.49573e-12
2.05004e-12
2.46853e-12
3.40121e-12
3.42553e-12
2.72383e-12
-5.70572e-12
-1.1374e-11
-1.53934e-11
-2.37217e-11
1.73458e-11
1.81691e-11
1.40929e-11
1.05771e-11
7.51493e-12
5.38335e-12
4.77593e-12
5.45633e-12
4.86527e-12
3.04984e-12
2.38727e-12
3.21795e-12
3.42324e-12
3.31709e-12
2.93402e-12
-6.06814e-12
-1.40763e-11
-1.36123e-11
-2.69406e-11
1.51621e-11
1.86594e-11
1.60734e-11
1.26034e-11
9.15021e-12
6.77543e-12
5.58723e-12
4.9908e-12
3.95226e-12
2.97643e-12
3.01764e-12
3.05423e-12
3.27793e-12
3.24462e-12
2.9437e-12
-6.82473e-12
-1.60467e-11
-1.78315e-11
-2.59777e-11
1.10931e-11
1.65295e-11
1.67789e-11
1.4903e-11
1.16757e-11
8.57331e-12
6.23536e-12
4.62972e-12
3.70029e-12
3.69437e-12
3.7655e-12
2.33385e-12
3.24378e-12
3.23094e-12
2.84528e-12
-7.76024e-12
-1.81699e-11
-2.19979e-11
-2.59534e-11
5.55749e-12
9.53745e-12
1.16759e-11
1.26131e-11
1.16738e-11
9.72229e-12
7.48155e-12
5.69409e-12
4.81623e-12
4.55364e-12
3.69579e-12
2.14567e-12
3.25359e-12
3.235e-12
2.73039e-12
-8.62133e-12
-1.99601e-11
-2.48207e-11
-2.75242e-11
5.37721e-12
2.00656e-11
4.1217e-12
4.35883e-12
2.46561e-11
4.15342e-12
4.23245e-12
4.29206e-12
2.04623e-11
1.16124e-12
4.82371e-13
1.89423e-13
-1.90518e-12
-2.38321e-12
-5.57857e-12
-1.02755e-12
-1.139e-12
-1.74347e-12
-5.32947e-14
-1.08377e-13
2.21061e-14
1.32935e-13
1.46476e-13
9.80725e-14
4.35748e-14
4.65423e-15
-3.05503e-13
-8.80803e-14
-1.37306e-13
-1.89156e-13
-2.41034e-13
-2.6458e-13
-2.35031e-13
-1.46882e-13
-1.93135e-14
1.41058e-13
3.45482e-13
5.93181e-13
7.94493e-13
1.03398e-12
3.22834e-11
4.99686e-12
4.76027e-12
4.04699e-12
6.84228e-12
-1.09591e-12
-2.15988e-12
-1.94201e-12
-4.263e-11
6.8961e-12
1.82653e-12
7.40872e-12
3.25903e-13
-5.35963e-13
-1.52836e-12
-2.18648e-11
-5.34634e-12
-5.9457e-12
-6.43908e-12
-4.02896e-11
-1.2783e-12
-1.07456e-12
-8.99435e-13
-6.81833e-13
-5.03958e-13
-3.71879e-13
-2.75188e-13
-2.20645e-13
-2.3187e-13
-2.99155e-13
-3.86291e-13
-4.68113e-13
-5.35462e-13
-1.50435e-11
-5.93516e-13
-6.51368e-13
-7.31139e-13
-8.4574e-13
-9.25216e-13
-9.22673e-13
-5.65946e-12
-6.37883e-12
-3.92367e-11
-7.42136e-12
-8.18196e-12
-4.31167e-11
-6.86637e-12
-7.13709e-12
-3.67044e-11
-6.21012e-12
-6.97868e-12
-3.36112e-11
-3.61926e-12
-3.586e-12
-3.65623e-12
-2.09838e-11
-3.6907e-12
-3.69411e-12
-1.52022e-11
-3.09377e-12
1.60168e-11
1.98624e-11
3.27257e-11
3.189e-11
2.69778e-11
1.82536e-11
7.62803e-12
-1.04584e-12
-5.33624e-12
-6.02291e-12
-5.56859e-12
-7.4445e-12
-1.48008e-11
-1.47614e-11
-7.26736e-12
-5.73107e-12
-1.52594e-11
-2.24655e-11
-2.98838e-11
-1.53261e-12
8.97503e-12
3.29015e-11
3.17288e-11
2.65463e-11
1.77409e-11
7.21245e-12
-1.26478e-12
-5.39354e-12
-5.9877e-12
-5.61264e-12
-1.14117e-11
-1.64254e-11
-8.43971e-12
-2.20795e-12
-5.59629e-12
-1.36244e-11
-2.13059e-11
-2.88891e-11
-9.06697e-12
3.57818e-12
3.16935e-11
3.16134e-11
2.59987e-11
1.70696e-11
6.67369e-12
-1.54978e-12
-5.46599e-12
-5.92983e-12
-5.83517e-12
-1.23507e-11
-1.14842e-11
-3.49441e-12
-2.05156e-12
-7.86413e-12
-1.05092e-11
-1.92194e-11
-2.67297e-11
-1.47201e-11
-1.03524e-12
2.91071e-11
3.13311e-11
2.54365e-11
1.6311e-11
6.06851e-12
-1.86753e-12
-5.54245e-12
-5.87736e-12
-6.09696e-12
-9.93363e-12
-5.48482e-12
1.255e-13
-2.0628e-12
-9.86829e-12
-1.09038e-11
-1.78776e-11
-2.4364e-11
-1.64077e-11
-3.06509e-12
2.59058e-11
3.05509e-11
2.48645e-11
1.55017e-11
5.41087e-12
-2.21271e-12
-5.61945e-12
-5.85658e-12
-6.06062e-12
-4.68772e-12
2.29528e-12
3.97985e-12
-2.60498e-12
-1.24916e-11
-1.6635e-11
-1.80947e-11
-2.21564e-11
-1.55808e-11
-2.9675e-12
2.28477e-11
2.91268e-11
2.41446e-11
1.46183e-11
4.66366e-12
-2.57678e-12
-5.69697e-12
-5.87467e-12
-5.67796e-12
2.43923e-12
1.17992e-11
7.99799e-12
-3.73455e-12