/*--------------------------------*- C++ -*----------------------------------*\
| =========                 |                                                 |
| \\      /  F ield         | OpenFOAM: The Open Source CFD Toolbox           |
|  \\    /   O peration     | Version:  4.1                                   |
|   \\  /    A nd           | Web:      www.OpenFOAM.org                      |
|    \\/     M anipulation  |                                                 |
\*---------------------------------------------------------------------------*/
FoamFile
{
    version     2.0;
    format      ascii;
    class       volVectorField;
    location    "18";
    object      U;
}
// * * * * * * * * * * * * * * * * * * * * * * * * * * * * * * * * * * * * * //

dimensions      [0 1 -1 0 0 0 0];

internalField   nonuniform List<vector> 
1280
(
(-3.88597e-15 -4.04305 -2.48967)
(-3.41034e-15 -3.49747 -2.37142)
(-2.97364e-15 -3.3251 -1.76907)
(-3.15001e-15 -2.82621 -1.9372)
(-4.19054e-15 -3.0793 -2.68239)
(-3.00157e-15 -2.14749 -1.96675)
(-3.05868e-15 -2.00732 -2.14616)
(-3.0384e-15 -1.51437 -2.21308)
(-3.7312e-15 -1.48759 -3.27308)
(-1.04987e-15 -0.707224 -2.68235)
(-5.59273e-16 -0.153361 -2.95722)
(8.92505e-16 0.121961 -4.22139)
(1.48405e-15 0.883145 -3.20346)
(1.72228e-15 1.47304 -2.68014)
(1.1765e-15 2.16541 -4.89305)
(7.42587e-16 2.67944 -4.03807)
(8.23126e-16 3.53076 -3.65542)
(2.96319e-16 3.96565 -5.25662)
(3.85147e-17 4.65418 -4.13607)
(7.83213e-17 4.37239 -5.04932)
(-9.06916e-17 5.23547 -1.96755)
(-5.45373e-16 5.55587 1.1555)
(-6.00928e-16 5.58186 3.59221)
(-4.02349e-16 5.88179 6.04548)
(-1.78768e-16 5.82016 8.32892)
(-1.90943e-17 6.11012 10.6477)
(6.44012e-17 3.96208 7.98942)
(3.61355e-16 9.03777 14.58)
(5.63307e-16 9.09676 14.6197)
(7.76026e-16 9.15133 14.3251)
(9.88858e-16 9.14225 13.8494)
(1.08546e-15 9.08354 13.2639)
(9.64231e-16 9.01083 12.6173)
(6.02592e-16 8.915 11.9476)
(7.92348e-17 8.79998 11.3146)
(-5.78701e-16 8.67524 10.7847)
(-1.41736e-15 8.57032 10.4078)
(-2.43356e-15 8.4548 10.1374)
(-3.25946e-15 8.52243 10.1506)
(-4.24198e-15 8.38115 9.09769)
(-5.6194e-15 9.94401 10.352)
(-4.01354e-15 5.94685 7.54827)
(-3.82351e-15 5.25663 7.66819)
(-3.15435e-15 4.27012 7.79524)
(-4.21025e-16 3.19173 8.23188)
(8.80247e-16 1.74921 5.09991)
(1.73484e-15 1.23202 4.90056)
(1.55985e-15 0.567576 5.21501)
(6.77603e-15 -0.173438 3.04985)
(-9.71583e-15 -0.169778 0.270826)
(3.17065e-15 -0.422494 1.23793)
(-1.28959e-15 -0.949044 3.67042)
(-2.6177e-16 -1.96374 5.06301)
(4.30492e-16 -2.62671 5.01819)
(1.2276e-15 -3.04356 5.31498)
(3.80588e-15 -4.89616 8.53986)
(4.37006e-15 -5.69338 7.61605)
(4.77566e-15 -6.76628 7.60013)
(5.17195e-15 -7.36595 7.5191)
(7.10934e-15 -11.4579 10.1409)
(5.24432e-15 -9.15828 8.82098)
(4.40843e-15 -9.33465 9.81908)
(3.68999e-15 -9.25073 9.79994)
(2.79727e-15 -9.36746 10.0866)
(2.06752e-15 -9.46685 10.4853)
(1.52566e-15 -9.59213 11.0525)
(1.12898e-15 -9.70885 11.7285)
(9.0521e-16 -9.81091 12.4407)
(9.51261e-16 -9.89005 13.1155)
(1.2273e-15 -9.95086 13.7086)
(1.58478e-15 -9.96672 14.1793)
(1.92047e-15 -9.92386 14.4761)
(2.19677e-15 -9.84131 14.4777)
(3.17122e-15 -5.65408 8.46591)
(2.43494e-15 -6.74935 11.5541)
(2.67228e-15 -6.47397 9.84769)
(2.99954e-15 -6.4561 8.07344)
(3.4697e-15 -6.13795 6.14479)
(3.79576e-15 -6.11056 4.03383)
(3.78532e-15 -5.84577 0.954854)
(4.08499e-15 -5.01919 -2.64091)
(4.60982e-15 -5.70636 -1.62767)
(6.66866e-15 -6.13331 -2.28372)
(5.36323e-15 -5.36966 -1.64779)
(5.91289e-15 -4.84999 -1.86254)
(7.5105e-15 -5.71587 -2.55737)
(4.9554e-15 -4.55134 -1.87073)
(5.21178e-15 -4.09097 -2.09523)
(6.45421e-15 -4.66995 -2.92028)
(4.39692e-15 -3.4256 -2.00803)
(4.97052e-15 -3.0275 -2.24248)
(6.29483e-15 -3.32239 -3.21203)
(2.74289e-15 -1.99827 -2.1587)
(2.59151e-15 -1.8597 -2.45792)
(2.64227e-15 -1.3054 -2.63416)
(3.5664e-15 -1.88252 -3.77597)
(2.66717e-15 0.119905 -1.91935)
(3.38783e-15 0.547763 -2.16371)
(2.33394e-15 -1.0825 -4.40889)
(2.23579e-15 1.88088 -5.48696)
(-1.77964e-15 3.86783 2.38379)
(-2.20694e-15 2.17967 1.75135)
(-3.63619e-15 -2.64316 1.52666)
(-3.54333e-15 -4.25304 1.61759)
(-2.99753e-15 -5.61464 1.65902)
(-2.02818e-15 -6.72735 1.64472)
(-8.47559e-16 -7.65627 1.56935)
(1.16204e-16 -8.29917 1.44969)
(5.92916e-16 -8.52589 1.27083)
(6.69212e-16 -7.95803 1.08551)
(6.18733e-16 -5.38601 0.734446)
(8.27166e-16 4.90551 -0.204055)
(1.64453e-15 7.41625 0.993173)
(1.64016e-15 7.85362 2.43561)
(8.07484e-16 6.92225 1.88475)
(6.36785e-16 -0.63265 -1.0809)
(1.69549e-15 -6.78541 -4.07093)
(2.49617e-15 -8.01706 -5.32214)
(3.32042e-15 -5.65465 -5.33456)
(1.7029e-16 4.02763 1.40529)
(-9.97225e-16 2.46819 1.25423)
(-3.65573e-15 -2.72073 1.32079)
(-3.52542e-15 -4.33747 1.60302)
(-2.94959e-15 -5.65907 1.66774)
(-1.97121e-15 -6.72822 1.67509)
(-8.01383e-16 -7.61909 1.61664)
(1.40531e-16 -8.22087 1.52268)
(5.99283e-16 -8.40397 1.38493)
(6.653e-16 -7.79423 1.36696)
(6.23627e-16 -4.68986 0.815271)
(1.26797e-15 4.56698 0.781783)
(1.82505e-15 6.50811 3.71971)
(9.37745e-16 7.62718 4.91361)
(2.45328e-16 7.82711 4.00617)
(6.2181e-16 1.5879 1.03129)
(1.51382e-15 -5.92795 -3.41502)
(2.36733e-15 -7.73093 -4.60956)
(3.2099e-15 -5.93956 -4.96649)
(1.00744e-15 3.95238 0.727309)
(-3.97576e-16 2.34255 0.990102)
(-3.5215e-15 -2.77812 1.13441)
(-3.5126e-15 -4.40698 1.55503)
(-2.88874e-15 -5.66161 1.69264)
(-1.89663e-15 -6.70726 1.71703)
(-7.41521e-16 -7.58482 1.68334)
(1.72198e-16 -8.18219 1.61796)
(6.07333e-16 -8.38304 1.53468)
(6.58871e-16 -7.80835 1.67974)
(6.48352e-16 -4.61569 1.155)
(1.3723e-15 3.5968 2.40196)
(1.27602e-15 5.78565 5.28988)
(3.88267e-16 7.67172 5.9615)
(2.27952e-16 8.44666 5.30763)
(8.73792e-16 3.09435 3.02735)
(1.16769e-15 -4.6941 -2.04753)
(2.13549e-15 -7.21727 -3.27201)
(2.96997e-15 -6.02825 -4.06275)
(1.63556e-15 3.88346 0.0326109)
(1.15027e-16 2.24658 0.701353)
(-3.23413e-15 -2.90373 1.04143)
(-3.48123e-15 -4.53894 1.47647)
(-2.82628e-15 -5.70212 1.73587)
(-1.81233e-15 -6.70715 1.77687)
(-6.74279e-16 -7.57246 1.76641)
(2.07503e-16 -8.16904 1.73301)
(6.15828e-16 -8.40091 1.70854)
(6.53041e-16 -7.87367 1.98323)
(6.7744e-16 -4.78126 1.72234)
(1.10374e-15 2.71856 3.86181)
(6.09424e-16 5.1487 6.41115)
(-1.39445e-17 7.64006 6.91669)
(2.292e-16 8.98731 6.77049)
(1.09648e-15 4.64378 5.20003)
(1.21153e-15 -3.64262 -0.00795898)
(1.9864e-15 -6.71337 -1.45654)
(2.70711e-15 -5.95361 -2.84396)
(1.82308e-15 3.71249 -0.504345)
(3.40566e-16 1.93325 0.56563)
(-2.87842e-15 -3.05912 1.06046)
(-3.39454e-15 -4.69754 1.41949)
(-2.76272e-15 -5.78074 1.77974)
(-1.72241e-15 -6.71992 1.86744)
(-6.01208e-16 -7.57051 1.86809)
(2.45857e-16 -8.17027 1.86829)
(6.24383e-16 -8.44309 1.89817)
(6.50731e-16 -7.99047 2.2557)
(6.73402e-16 -5.16419 2.30602)
(5.20858e-16 1.65689 4.82309)
(-2.55031e-16 4.5931 6.7798)
(-4.42206e-16 7.49847 7.18954)
(2.89443e-16 9.21799 7.87391)
(1.38795e-15 5.89691 7.46257)
(1.84834e-15 -2.32622 2.59328)
(2.01053e-15 -5.89693 0.445039)
(2.46182e-15 -5.33234 -1.36351)
(1.7312e-15 3.49914 -0.805758)
(3.29722e-16 1.53287 0.642268)
(-2.53863e-15 -3.19808 1.20652)
(-3.23631e-15 -4.8436 1.4431)
(-2.68273e-15 -5.88151 1.81639)
(-1.62425e-15 -6.74442 1.98458)
(-5.18184e-16 -7.5734 1.99136)
(2.86309e-16 -8.18702 2.01593)
(6.32997e-16 -8.51213 2.08897)
(6.52741e-16 -8.16496 2.48154)
(6.30885e-16 -5.65371 2.78419)
(-2.71025e-16 0.877136 5.16283)
(-1.31102e-15 4.19957 6.37825)
(-8.88665e-16 7.16606 6.82185)
(4.1495e-16 8.99946 8.59696)
(1.68641e-15 6.65768 9.63628)
(2.12602e-15 -1.41366 5.48732)
(1.75314e-15 -5.16132 2.33136)
(2.23333e-15 -4.64058 -0.319117)
(1.49877e-15 3.2066 -0.849267)
(1.44172e-16 1.01256 0.975533)
(-2.27925e-15 -3.30872 1.49335)
(-3.02082e-15 -4.95159 1.58121)
(-2.57345e-15 -5.99188 1.86752)
(-1.52675e-15 -6.78964 2.11114)
(-4.37211e-16 -7.58172 2.14099)
(3.29787e-16 -8.21493 2.17275)
(6.41513e-16 -8.59746 2.27414)
(6.60276e-16 -8.36943 2.66754)
(5.81105e-16 -6.1303 3.14025)
(-9.5111e-16 0.245681 5.07127)
(-2.1747e-15 3.921 5.602)
(-1.17837e-15 6.56523 6.18592)
(4.94058e-16 8.23731 8.99999)
(2.02593e-15 7.09724 11.467)
(2.94666e-15 0.643934 8.28192)
(1.731e-15 -3.5045 3.50044)
(2.36539e-15 -3.07769 2.50417)
(1.25072e-15 2.83491 -0.561704)
(-1.17685e-16 0.447291 1.53374)
(-2.09579e-15 -3.36901 1.90779)
(-2.77001e-15 -4.99969 1.83906)
(-2.42347e-15 -6.0889 1.96984)
(-1.40675e-15 -6.85492 2.23525)
(-3.14776e-16 -7.59743 2.31397)
(3.73164e-16 -8.2459 2.34312)
(6.50807e-16 -8.6883 2.45325)
(6.70487e-16 -8.58494 2.83211)
(5.15243e-16 -6.5398 3.40169)
(-1.23035e-15 -0.198181 4.92867)
(-2.13423e-15 3.7557 5.00276)
(-1.11605e-15 5.76507 5.62873)
(3.55698e-16 7.01436 9.05662)
(2.09253e-15 6.79553 12.6529)
(4.03023e-15 2.11439 12.0655)
(5.326e-15 -2.88533 7.77584)
(5.99447e-15 -6.31579 8.00967)
(1.06951e-15 2.38711 0.0965395)
(-3.65969e-16 -0.130947 2.24212)
(-1.90572e-15 -3.36294 2.42434)
(-2.46866e-15 -4.97782 2.20806)
(-2.20981e-15 -6.14733 2.1532)
(-1.30471e-15 -6.92893 2.36375)
(-3.03469e-16 -7.62437 2.49717)
(4.26197e-16 -8.27504 2.53258)
(6.5795e-16 -8.77761 2.6298)
(6.76822e-16 -8.80017 2.98604)
(4.77618e-16 -6.89399 3.58954)
(-9.75755e-16 -0.479921 4.85586)
(-1.10781e-15 3.6595 4.73051)
(-7.85961e-16 4.91461 5.04565)
(-1.68909e-16 5.52908 8.46162)
(1.82171e-15 5.68295 12.4521)
(2.6816e-15 2.16499 14.3474)
(5.39559e-15 -2.37213 13.6124)
(5.45371e-15 -4.96742 11.1882)
(9.965e-16 1.93989 1.04615)
(-4.49508e-16 -0.578147 3.02725)
(-1.67686e-15 -3.29939 3.01442)
(-2.15029e-15 -4.88831 2.67151)
(-1.96585e-15 -6.14892 2.4308)
(-1.12879e-15 -6.99361 2.51936)
(3.1203e-17 -7.66417 2.6779)
(4.71139e-16 -8.30217 2.73975)
(6.62626e-16 -8.85865 2.81069)
(6.7798e-16 -9.0049 3.1324)
(4.41345e-16 -7.21777 3.73128)
(-1.14865e-15 -0.69596 4.85331)
(-1.52088e-17 3.69375 4.5242)
(-3.37493e-16 4.25511 4.19776)
(-1.13067e-15 4.15925 6.91644)
(1.41226e-15 4.55974 10.6835)
(1.26783e-15 1.7713 12.2925)
(1.46485e-16 -1.90957 11.8935)
(5.14714e-16 -2.8441 8.75961)
(1.03944e-15 1.4974 2.13913)
(-2.57467e-16 -0.873067 3.84897)
(-1.34408e-15 -3.18768 3.64448)
(-1.81809e-15 -4.73951 3.20568)
(-1.70393e-15 -6.08473 2.79962)
(-9.39792e-16 -7.02831 2.72743)
(1.38297e-17 -7.71169 2.85567)
(5.17036e-16 -8.33067 2.95517)
(6.6881e-16 -8.92738 3.00323)
(6.65564e-16 -9.19314 3.27365)
(4.33973e-16 -7.52309 3.84476)
(-2.44332e-16 -0.836246 4.82517)
(3.72958e-16 3.92424 4.17348)
(2.60155e-16 3.96425 3.40079)
(-5.06772e-16 2.92796 4.8306)
(-1.63164e-16 3.55077 8.57665)
(2.77328e-15 2.24514 11.8038)
(5.13156e-15 -0.682002 9.09988)
(7.05343e-15 -1.52807 5.52309)
(1.20973e-15 1.09739 3.25002)
(2.76217e-16 -1.08527 4.6452)
(-6.98635e-16 -3.04119 4.27917)
(-1.26624e-15 -4.54488 3.78054)
(-1.30697e-15 -5.95652 3.2435)
(-7.12705e-16 -7.01613 3.00374)
(7.49204e-17 -7.7544 3.04342)
(5.59244e-16 -8.36281 3.16723)
(6.78101e-16 -8.98128 3.20927)
(6.41178e-16 -9.35486 3.4161)
(3.70684e-16 -7.79237 3.92858)
(-5.2372e-17 -0.865075 4.66654)
(3.83489e-16 4.25541 3.66437)
(3.21069e-16 4.03443 3.1003)
(-6.64695e-16 2.04424 3.22577)
(-2.35681e-15 1.65275 5.34265)
(-2.34966e-15 1.02485 11.9213)
(-1.08622e-15 -0.751846 13.6989)
(-9.89819e-16 -0.731453 11.0668)
(1.44119e-15 0.761106 4.28386)
(9.48518e-16 -1.20616 5.36407)
(2.14887e-16 -2.86142 4.89037)
(-3.75809e-16 -4.31867 4.36724)
(-6.5062e-16 -5.77382 3.74003)
(-4.01868e-16 -6.94813 3.35115)
(1.28238e-16 -7.7764 3.26169)
(5.83803e-16 -8.39836 3.37335)
(6.86847e-16 -9.02587 3.42635)
(5.98914e-16 -9.48565 3.57057)
(3.05498e-16 -7.99745 3.98256)
(1.46217e-17 -0.756504 4.3535)
(3.50455e-16 4.53755 2.96383)
(4.23514e-16 4.16201 3.04023)
(-1.87648e-17 2.06723 2.59282)
(-1.95471e-15 0.15582 1.57095)
(-5.24943e-15 -0.785897 5.96388)
(-6.5871e-15 0.139328 10.0205)
(-6.98307e-15 3.85737 11.0792)
(1.62609e-15 0.48798 5.19288)
(1.38207e-15 -1.26897 5.97468)
(9.46055e-16 -2.66779 5.45319)
(5.01909e-16 -4.07741 4.93883)
(8.11634e-17 -5.55066 4.26452)
(-5.29477e-17 -6.82418 3.76044)
(1.75151e-16 -7.76241 3.52738)
(5.86261e-16 -8.42887 3.5805)
(6.8777e-16 -9.05988 3.64709)
(5.37448e-16 -9.56805 3.74526)
(2.60612e-16 -8.09369 4.02232)
(9.07498e-17 -0.465917 3.88292)
(3.10433e-16 4.76001 1.96299)
(3.94088e-16 4.23074 2.83566)
(1.19155e-16 2.46656 1.88836)
(-7.47776e-16 0.616703 0.409488)
(-3.5128e-15 -2.12642 -0.871338)
(-5.96262e-15 -2.5522 1.37882)
(-1.2251e-15 -2.04691 2.45827)
(1.77552e-15 0.303781 5.96063)
(1.57614e-15 -1.24827 6.48917)
(1.24594e-15 -2.46856 5.97067)
(9.51493e-16 -3.83638 5.48197)
(5.52233e-16 -5.30495 4.79645)
(2.30334e-16 -6.65349 4.21555)
(2.47246e-16 -7.7044 3.84905)
(5.86524e-16 -8.44729 3.80749)
(6.70286e-16 -9.09777 3.87559)
(4.62451e-16 -9.62259 3.94817)
(2.31602e-16 -8.06892 4.05932)
(1.73622e-16 0.0691836 3.26413)
(3.35933e-16 4.92294 0.871355)
(3.92083e-16 4.23954 2.41098)
(2.3313e-16 2.90162 1.0873)
(-6.46071e-16 1.49711 -0.12819)
(-1.35867e-15 -1.319 -2.7615)
(-3.23099e-15 -2.21211 -4.15191)
(-2.24848e-15 -1.41576 -4.33386)
(1.91433e-15 0.142577 6.60584)
(1.78075e-15 -1.21797 6.89946)
(1.36315e-15 -2.28082 6.43983)
(1.05837e-15 -3.59842 5.99179)
(7.23524e-16 -5.04379 5.3226)
(4.2689e-16 -6.44297 4.70061)
(3.76141e-16 -7.59746 4.22497)
(6.00478e-16 -8.43776 4.06831)
(6.21779e-16 -9.11828 4.11322)
(3.88414e-16 -9.60188 4.18029)
(2.27782e-16 -7.83628 4.11165)
(2.74281e-16 0.856626 2.6331)
(3.77912e-16 5.08332 0.290633)
(3.80614e-16 4.18862 1.81601)
(3.02647e-16 3.37636 0.474585)
(-6.33968e-16 2.17419 -0.615573)
(-1.26378e-15 -0.340669 -2.61631)
(-1.71038e-15 -1.41384 -4.69445)
(-2.63575e-15 -0.73791 -5.75087)
(1.92731e-15 0.111858 7.19552)
(2.01878e-15 -1.13852 7.30209)
(1.56587e-15 -2.12279 6.88949)
(1.17523e-15 -3.3891 6.47866)
(8.34992e-16 -4.796 5.83906)
(5.9815e-16 -6.21845 5.19939)
(5.30659e-16 -7.45426 4.64553)
(6.06259e-16 -8.40496 4.38375)
(5.40586e-16 -9.16104 4.39739)
(3.38871e-16 -9.60818 4.45375)
(2.65252e-16 -7.5016 4.13225)
(3.5755e-16 1.54736 1.97609)
(3.8036e-16 5.26747 0.349602)
(3.68566e-16 4.20876 1.23501)
(3.26003e-16 3.83056 0.0265523)
(-6.74238e-16 2.74284 -0.992704)
(-1.56403e-15 0.467633 -2.54682)
(-1.51248e-15 -0.927702 -4.1779)
(-2.9934e-15 -1.05306 -4.75419)
(1.68468e-15 0.00419021 7.75505)
(2.07326e-15 -1.05639 7.61592)
(1.78593e-15 -1.9499 7.31856)
(1.40038e-15 -3.16014 6.96496)
(1.01669e-15 -4.52041 6.38831)
(7.52826e-16 -5.95372 5.76629)
(6.20804e-16 -7.26269 5.17004)
(5.54533e-16 -8.33089 4.81059)
(4.3914e-16 -9.14339 4.74907)
(3.30714e-16 -9.40641 4.75151)
(3.35294e-16 -6.76826 4.12127)
(3.39359e-16 2.10564 1.19457)
(3.64215e-16 5.42433 0.510326)
(3.60513e-16 4.32792 0.743109)
(3.27078e-16 4.20352 -0.307213)
(-7.58304e-16 3.18657 -1.26112)
(-1.78296e-15 1.0805 -2.47592)
(-1.98128e-15 -0.578616 -3.82098)
(-2.88642e-15 -1.15947 -3.79984)
(1.23257e-15 0.160476 8.49302)
(1.83661e-15 -0.955025 8.08124)
(1.86432e-15 -1.89564 7.62357)
(1.65589e-15 -3.04338 7.2777)
(1.2973e-15 -4.34951 6.75213)
(9.5259e-16 -5.75942 6.15747)
(6.92817e-16 -7.09333 5.53474)
(5.14413e-16 -8.24872 5.11071)
(4.11144e-16 -9.18114 5.04666)
(4.10485e-16 -9.42406 5.06064)
(4.18389e-16 -6.23083 3.96056)
(2.59316e-16 2.83843 0.420152)
(3.6042e-16 5.51574 0.410459)
(3.58994e-16 4.50307 0.353288)
(3.16142e-16 4.53703 -0.554405)
(-8.62249e-16 3.53759 -1.41526)
(-2.01888e-15 1.50943 -2.35336)
(-2.44421e-15 -0.469787 -3.42016)
(-2.88371e-15 -1.37905 -3.14907)
(6.17499e-16 0.143306 9.2243)
(1.05972e-15 -0.689803 9.15664)
(1.29733e-15 -1.57152 8.50119)
(1.40146e-15 -2.75258 8.09164)
(1.29708e-15 -4.01171 7.56011)
(1.08025e-15 -5.40965 7.01304)
(8.31283e-16 -6.79916 6.46968)
(6.32677e-16 -8.10455 6.10148)
(5.35136e-16 -9.08346 5.99439)
(5.0596e-16 -8.77357 5.65789)
(4.10644e-16 -4.47039 3.71455)
(2.38408e-16 3.50261 0.534054)
(3.6151e-16 5.63649 0.150086)
(3.59444e-16 4.80406 0.114871)
(3.03376e-16 5.04707 -0.713718)
(-9.57925e-16 4.07716 -1.46938)
(-2.21779e-15 2.01251 -2.18008)
(-2.75786e-15 -0.271855 -2.66165)
(-3.05825e-15 -1.51972 -3.0275)
(1.38018e-16 8.70253 15.1692)
(-1.48781e-15 17.2682 27.855)
(-1.30094e-15 19.7516 30.9517)
(-1.15467e-15 19.6013 30.2148)
(-1.32791e-15 18.5495 28.3367)
(-1.62525e-15 17.293 26.2289)
(-1.01853e-15 15.7718 23.8685)
(-3.22425e-16 14.2456 21.67)
(8.32852e-16 12.6914 19.4054)
(2.81906e-15 11.0681 17.1414)
(5.40592e-15 9.39131 14.8655)
(7.71453e-15 7.6356 12.5159)
(8.83443e-15 5.72023 9.97434)
(8.76526e-15 3.75005 7.32519)
(8.1535e-15 2.1801 5.20042)
(6.83278e-15 1.30361 4.09632)
(4.3212e-15 1.45566 4.45106)
(1.61595e-15 2.77897 6.27145)
(-1.52235e-16 4.06967 7.82693)
(-9.12797e-16 2.77078 5.49555)
(7.64882e-17 11.8085 20.0185)
(-2.99389e-15 18.5708 31.1558)
(-2.5931e-15 16.9251 28.2998)
(-3.0259e-15 13.7948 23.6714)
(-3.55034e-15 11.7466 20.8613)
(-4.02071e-15 10.4152 19.3129)
(-2.4625e-15 9.0944 17.7666)
(-1.63791e-15 7.60289 15.839)
(5.3157e-16 6.00492 13.7215)
(4.2633e-15 4.39591 11.5385)
(7.99837e-15 2.81185 9.39355)
(9.63386e-15 1.28751 7.30561)
(8.31377e-15 -0.119636 5.31899)
(6.44371e-15 -1.13278 3.77167)
(4.62153e-15 -1.19637 3.48977)
(2.39078e-15 0.222143 5.33308)
(-2.32671e-16 3.02464 9.19593)
(-1.96523e-15 6.21792 13.5296)
(-2.43939e-15 8.27136 15.6335)
(-2.46315e-15 5.97879 11.5976)
(-7.31953e-17 11.501 19.9569)
(-1.89044e-15 16.8707 29.9148)
(-1.3698e-15 14.9647 26.3956)
(-1.69098e-15 13.0337 23.1096)
(-2.18539e-15 11.7909 20.8964)
(-3.13335e-15 10.7429 19.056)
(-1.78973e-15 9.69643 17.3172)
(-1.75103e-15 8.65812 15.4924)
(-1.21247e-15 7.58444 13.5662)
(-8.38006e-18 6.5358 11.5646)
(1.78826e-15 5.56355 9.61686)
(2.48236e-15 4.79055 7.93595)
(1.14844e-15 4.40488 6.88176)
(-1.37951e-15 4.64222 6.87831)
(-3.36792e-15 5.44978 8.0162)
(-4.44275e-15 6.82692 10.3144)
(-4.6245e-15 8.61382 13.3143)
(-3.46708e-15 9.9559 16.1607)
(-2.11548e-15 10.5127 17.0893)
(-2.33186e-15 7.69665 13.9045)
(2.34224e-17 9.67419 16.7064)
(3.4672e-16 17.1698 30.2933)
(2.51368e-16 16.4518 28.4998)
(3.15177e-16 14.4164 24.544)
(4.00052e-16 12.7602 21.526)
(-2.33356e-15 11.7152 19.4083)
(-1.92525e-15 10.9023 17.8556)
(-2.0627e-15 10.2451 16.4328)
(-2.52618e-15 9.6076 15.0411)
(-3.14238e-15 9.00177 13.6111)
(-3.48588e-15 8.40743 12.1195)
(-3.2889e-15 7.8146 10.5546)
(-3.11728e-15 7.25708 9.01095)
(-3.23004e-15 6.84091 7.77927)
(-3.40311e-15 6.71771 7.22722)
(-3.93865e-15 6.94011 7.67262)
(-4.50988e-15 7.46674 9.01133)
(-3.76791e-15 7.87407 10.6495)
(-2.56986e-15 7.60175 11.3063)
(-3.20895e-15 5.38929 8.66752)
(-3.49381e-18 9.24387 15.8299)
(-6.08003e-17 18.0731 31.1848)
(-4.63956e-17 17.4328 30.0366)
(-5.21868e-17 15.2334 25.7622)
(-2.99951e-17 13.5206 22.8193)
(3.81415e-16 12.5695 20.7706)
(3.71406e-16 11.7703 19.2214)
(3.78018e-16 11.0979 17.7781)
(3.87399e-16 10.4327 16.4071)
(4.10069e-16 9.79449 15.0798)
(3.44796e-16 9.17707 13.7878)
(1.98354e-16 8.574 12.5101)
(-1.8172e-17 7.97787 11.2159)
(-2.69291e-16 7.37662 9.89633)
(-5.4253e-16 6.78651 8.63651)
(-7.43157e-16 6.27187 7.62522)
(-6.88813e-16 5.83407 7.06346)
(-3.13476e-16 5.47767 6.84383)
(2.60866e-16 4.63226 6.47726)
(8.22348e-16 2.58591 3.24848)
(2.36517e-19 9.75581 16.5352)
(9.58419e-18 18.7684 31.6326)
(7.8502e-18 17.9812 30.666)
(7.37168e-18 15.8085 26.3437)
(-3.70305e-18 14.1051 23.5849)
(-7.21168e-17 13.2196 21.6205)
(-7.36182e-17 12.3841 20.0761)
(-6.62829e-17 11.6507 18.5481)
(-5.48589e-17 10.8943 17.0611)
(-4.07127e-17 10.1459 15.5941)
(-1.4219e-17 9.3976 14.1621)
(2.84206e-17 8.64886 12.7689)
(8.83122e-17 7.89331 11.4125)
(1.6476e-16 7.1344 10.0785)
(2.53082e-16 6.3426 8.75231)
(3.26004e-16 5.53735 7.39888)
(3.41009e-16 4.61569 6.05769)
(2.84138e-16 3.68802 4.59836)
(1.56916e-16 2.094 2.85279)
(3.95263e-17 0.258952 -1.09934)
(-1.70041e-21 11.6578 19.8054)
(-1.09548e-18 19.984 32.8595)
(-8.35337e-19 18.3314 30.9782)
(-5.79298e-19 16.4055 26.8269)
(1.45369e-18 14.8097 24.4535)
(1.10402e-17 14.0704 22.582)
(1.06954e-17 13.2291 21.0679)
(7.41329e-18 12.5205 19.4998)
(3.26076e-18 11.7552 17.9549)
(-1.20751e-18 10.9777 16.3664)
(-6.07079e-18 10.1506 14.743)
(-1.26865e-17 9.26859 13.0839)
(-2.3071e-17 8.3264 11.4058)
(-3.82288e-17 7.33633 9.72074)
(-5.48693e-17 6.27829 8.04701)
(-6.41738e-17 5.18003 6.34089)
(-5.70771e-17 3.90993 4.58351)
(-3.44931e-17 2.5978 2.53872)
(-9.46149e-18 0.42233 0.0450004)
(-1.44428e-17 -0.959038 -3.67181)
(7.65059e-21 14.4819 25.1308)
(4.00691e-20 20.9876 34.0009)
(-4.5306e-20 17.9903 30.7751)
(-1.06866e-19 16.7917 27.3146)
(-2.79567e-19 15.3602 25.6082)
(-1.0364e-18 14.8773 23.863)
(-5.51788e-19 14.0191 22.4629)
(3.05449e-19 13.4276 20.9072)
(1.19325e-18 12.6667 19.3526)
(1.94318e-18 11.8703 17.6144)
(2.43293e-18 10.9182 15.7349)
(2.95946e-18 9.84946 13.7189)
(4.12802e-18 8.66678 11.6225)
(6.16466e-18 7.4 9.46831)
(8.09507e-18 6.02451 7.28263)
(7.80158e-18 4.56935 5.02723)
(3.28276e-18 2.86639 2.74092)
(-8.5288e-18 1.20866 0.224567)
(-3.10411e-17 -1.41764 -2.54936)
(-2.5803e-17 -2.37475 -6.32594)
(-4.09726e-21 16.9091 30.36)
(2.13317e-20 20.5435 33.4294)
(4.77561e-20 16.9084 30.1597)
(5.80282e-20 16.6927 27.8104)
(4.18703e-20 15.2092 26.6679)
(-1.58787e-20 14.9297 25.056)
(-1.98822e-19 13.9518 23.9192)
(-3.47279e-19 13.462 22.4676)
(-4.41899e-19 12.5282 20.9324)
(-4.78546e-19 11.5261 18.9186)
(-4.48712e-19 10.1658 16.6135)
(-4.14325e-19 8.68154 14.0878)
(-5.21326e-19 7.06592 11.4998)
(-8.64849e-19 5.36656 8.81705)
(-9.85678e-19 3.51568 6.00828)
(2.75727e-19 1.53101 3.05619)
(2.22545e-18 -1.11527 -0.282752)
(8.25303e-19 -1.86294 -3.00454)
(-2.60055e-17 -4.2219 -5.11176)
(-5.58399e-17 -3.86589 -8.90664)
(1.14523e-21 17.3107 31.9256)
(-9.13424e-21 18.4932 30.8126)
(-1.51996e-20 15.666 29.0262)
(-1.70283e-20 15.5864 27.1745)
(-6.62579e-22 13.969 26.1243)
(5.24325e-20 13.5468 24.6502)
(1.06337e-19 12.4115 23.6737)
(1.53754e-19 11.7329 22.2853)
(1.92646e-19 10.4322 20.6177)
(1.83955e-19 8.98682 18.2037)
(1.27968e-19 7.11589 15.4233)
(1.21893e-19 5.26776 12.516)
(1.67358e-19 3.3904 9.69327)
(2.17913e-19 1.52181 6.80232)
(1.51848e-18 -0.341618 3.88292)
(5.54859e-18 -1.91202 1.39226)
(4.0118e-18 -3.14775 -0.723828)
(-2.00172e-17 -4.50184 -3.47651)
(-5.9567e-17 -5.13462 -5.31922)
(-5.68183e-17 -2.39744 -3.08263)
(-1.3019e-22 15.8835 29.4182)
(2.33967e-21 17.2352 29.114)
(3.25203e-21 14.5987 27.2389)
(1.8822e-21 14.1996 25.1058)
(-7.35956e-21 12.4992 24.0058)
(-2.17064e-20 11.8628 22.4417)
(-1.80871e-20 10.5635 21.376)
(8.38901e-21 9.61791 19.9512)
(4.0418e-20 8.14896 18.2563)
(3.881e-20 6.51684 15.8848)
(4.15399e-21 4.60352 13.1655)
(6.00702e-20 2.76596 10.3945)
(3.94925e-19 1.03617 7.80845)
(1.11326e-18 -0.481205 5.4625)
(2.00011e-18 -1.68959 3.46459)
(1.69973e-18 -2.34672 2.07216)
(-2.54678e-18 -1.87392 2.16479)
(-1.09309e-17 0.42733 4.66216)
(-1.50797e-17 3.89591 8.70716)
(-5.06073e-18 4.49181 9.55286)
(-2.73754e-24 14.9278 27.5501)
(-3.65296e-22 17.3509 28.5909)
(-3.58576e-22 14.2271 26.1452)
(1.57533e-23 14.0845 23.4627)
(1.36144e-21 12.208 22.3087)
(2.55756e-21 11.7477 20.2993)
(1.92321e-21 10.3399 18.9614)
(3.98784e-21 9.52274 17.2851)
(6.31747e-21 8.29167 15.7217)
(-1.34097e-20 7.14276 13.7991)
(-6.97487e-20 5.82383 11.6633)
(-5.3966e-20 4.60426 9.4151)
(3.67313e-19 3.54832 7.34462)
(1.4997e-18 2.87942 5.79042)
(2.94222e-18 2.90947 5.35933)
(3.54555e-18 3.87789 6.50215)
(2.91342e-18 5.47143 8.70197)
(2.22481e-18 6.82612 10.9404)
(2.4089e-18 7.73576 12.0116)
(2.11839e-18 5.69439 10.2146)
(5.41023e-24 14.9853 27.7161)
(2.54606e-23 18.1439 29.2384)
(3.59399e-24 14.7281 26.7672)
(-5.42081e-23 14.8452 23.8252)
(-1.87089e-22 13.0063 22.6732)
(-2.42856e-22 12.7164 20.6072)
(-4.00766e-22 11.4908 19.1641)
(-2.01351e-21 10.813 17.4342)
(-4.9997e-21 9.91406 15.9312)
(-5.73092e-21 9.19866 14.464)
(-2.05819e-21 8.52376 13.0994)
(-3.66926e-21 7.93436 11.7664)
(-3.07417e-20 7.39767 10.4319)
(-8.94915e-20 6.89802 9.1039)
(-1.43459e-19 6.43608 7.83616)
(-1.60972e-19 6.01896 6.84608)
(-2.35342e-19 5.71247 6.36198)
(-5.4136e-19 5.3802 6.34763)
(-1.13047e-18 4.62352 6.10531)
(-1.57541e-18 2.83348 3.99502)
(-3.63686e-24 15.5416 28.9452)
(1.79531e-23 18.8476 29.9406)
(5.7782e-23 15.1491 27.6266)
(7.97143e-23 15.5312 24.7494)
(1.21524e-23 13.6622 23.6066)
(-1.99148e-22 13.4272 21.5891)
(-4.68372e-22 12.3114 20.1637)
(-6.81245e-22 11.6767 18.5041)
(-1.18967e-21 10.8843 16.9942)
(-2.65378e-21 10.1721 15.4776)
(-4.39009e-21 9.46875 14.007)
(-3.47117e-21 8.78052 12.5805)
(1.34847e-21 8.09574 11.1886)
(4.01927e-21 7.39428 9.81021)
(-8.42013e-21 6.63344 8.4192)
(-4.6745e-20 5.79121 6.95425)
(-1.06948e-19 4.75364 5.40296)
(-1.63103e-19 3.62386 3.72962)
(-1.53673e-19 1.91077 1.87848)
(-1.87202e-19 0.369323 -1.17162)
(-7.75001e-26 16.1699 30.7766)
(-7.65438e-25 19.2778 30.1305)
(1.7919e-23 15.3184 28.4801)
(3.27742e-23 16.1936 25.6925)
(1.23493e-23 14.065 24.6816)
(-6.75077e-23 14.0288 22.629)
(-2.55747e-22 12.8226 21.2973)
(-5.52076e-22 12.2947 19.6655)
(-7.4793e-22 11.5158 18.248)
(-4.89675e-22 10.8806 16.7843)
(2.63886e-22 10.2091 15.3284)
(9.77908e-22 9.51015 13.7913)
(1.44919e-21 8.70637 12.124)
(3.17885e-21 7.74522 10.2678)
(9.31465e-21 6.5538 8.22854)
(2.27719e-20 5.18222 6.01896)
(4.36496e-20 3.54945 3.70461)
(7.23418e-20 1.92618 1.14111)
(8.7554e-20 -0.559679 -1.52041)
(5.20573e-20 -1.66864 -5.17454)
(-1.04097e-24 16.432 32.1908)
(9.05774e-24 19.2418 29.8079)
(3.74259e-23 15.2399 29.0457)
(6.83403e-23 16.439 26.358)
(5.9773e-23 14.1063 25.4891)
(-5.05184e-23 14.1934 23.5128)
(-3.46167e-22 12.9173 22.3235)
(-8.64283e-22 12.4732 20.8111)
(-1.38579e-21 11.6924 19.5573)
(-1.30287e-21 11.1217 18.2361)
(1.92411e-22 10.455 16.8972)
(3.65727e-21 9.69426 15.3245)
(9.17738e-21 8.63279 13.3209)
(1.64934e-20 7.13274 10.6907)
(2.41483e-20 5.17912 7.55176)
(2.72121e-20 3.15282 4.4143)
(2.21023e-20 1.14751 1.61642)
(1.78644e-20 -0.600406 -1.97646)
(8.72741e-20 -3.13464 -4.36219)
(1.09274e-19 -3.33096 -8.15055)
(-7.17408e-25 15.8142 31.892)
(4.33842e-24 18.6274 28.8735)
(2.97807e-23 14.5816 28.5387)
(6.58418e-23 15.636 25.999)
(6.73137e-23 13.4077 25.1262)
(-5.47948e-23 13.2531 23.353)
(-4.12001e-22 12.0425 22.2065)
(-9.63602e-22 11.4789 20.8526)
(-1.2664e-21 10.6715 19.7064)
(-5.1915e-22 10.028 18.4984)
(1.98182e-21 9.24361 17.1846)
(6.56519e-21 8.24924 15.4255)
(1.37986e-20 6.74866 12.8413)
(2.47176e-20 4.6228 9.18491)
(3.67338e-20 2.23408 5.05944)
(3.75453e-20 0.632558 2.32845)
(2.9833e-20 -0.00450422 1.19667)
(5.26489e-20 -1.54232 -1.64163)
(1.17372e-19 -4.26991 -5.51527)
(1.31525e-19 -3.45873 -6.60751)
(-6.61588e-25 14.3047 30.7669)
(2.73536e-24 17.9868 27.6933)
(2.28187e-23 13.359 27.5644)
(5.89829e-23 14.1992 25.2684)
(6.82887e-23 12.1291 24.356)
(-4.32276e-23 11.6222 22.8194)
(-3.74066e-22 10.4952 21.6637)
(-8.6355e-22 9.73375 20.4274)
(-1.13323e-21 8.89969 19.3007)
(-6.0939e-22 8.13805 18.1501)
(1.1196e-21 7.30736 16.8807)
(4.25299e-21 6.31237 15.2441)
(9.07384e-21 5.02488 12.9765)
(1.51434e-20 3.49621 10.0485)
(2.00269e-20 2.00304 6.84993)
(2.37322e-20 0.698969 3.76702)
(3.75275e-20 -0.621475 0.696073)
(7.62149e-20 -1.92606 -2.2379)
(1.2196e-19 -2.71494 -3.81164)
(1.16478e-19 -1.802 -2.36413)
(-3.54208e-25 11.1637 28.4426)
(-5.8754e-25 16.8979 24.8015)
(7.41813e-24 11.8951 25.2008)
(3.0899e-23 12.5263 23.4884)
(5.36513e-23 10.7748 22.7466)
(2.01984e-23 10.0876 21.6596)
(-1.5386e-22 9.06622 20.7509)
(-5.10075e-22 8.26154 19.8136)
(-9.56432e-22 7.45711 18.9256)
(-1.27063e-21 6.73036 18.0484)
(-1.25821e-21 6.04454 17.1782)
(-9.4103e-22 5.41283 16.2855)
(-5.2445e-22 4.83407 15.3224)
(-1.31341e-22 4.30313 14.1877)
(2.71812e-22 3.7859 12.7561)
(7.88378e-22 3.20846 10.9404)
(2.67079e-21 2.49918 8.63498)
(1.01634e-20 1.65117 5.62342)
(2.64555e-20 0.536383 1.92671)
(3.20786e-20 -0.563948 -1.11396)
(-8.24716e-26 2.57902 17.0446)
(-3.96826e-25 8.04173 13.6209)
(2.5843e-25 5.16602 14.471)
(5.14486e-24 4.99418 14.0685)
(1.49239e-23 4.08336 14.0193)
(1.81235e-23 3.5334 13.8352)
(-1.77952e-23 2.97306 13.668)
(-1.38297e-22 2.52063 13.4724)
(-3.66555e-22 2.13495 13.2678)
(-6.61113e-22 1.82949 13.055)
(-9.16424e-22 1.59857 12.8356)
(-1.0314e-21 1.43857 12.6008)
(-9.90692e-22 1.34083 12.3366)
(-8.62214e-22 1.3098 12.0251)
(-7.0443e-22 1.3658 11.6487)
(-5.28613e-22 1.48418 11.2188)
(-4.11516e-22 1.69151 10.6993)
(-5.12382e-22 2.27694 9.79233)
(-6.96281e-22 2.44594 8.43763)
(-3.62496e-22 -0.260557 6.3771)
(8.50142e-26 -2.57906 17.0448)
(4.06908e-25 -8.04177 13.621)
(-2.70509e-25 -5.16605 14.4711)
(-5.27473e-24 -4.99421 14.0685)
(-1.51525e-23 -4.0834 14.0194)
(-1.77709e-23 -3.53345 13.8353)
(2.04501e-23 -2.97312 13.6681)
(1.44812e-22 -2.52072 13.4725)
(3.74586e-22 -2.13508 13.2678)
(6.60095e-22 -1.82964 13.055)
(8.88017e-22 -1.59872 12.8356)
(9.59024e-22 -1.43868 12.6007)
(8.74687e-22 -1.34087 12.3364)
(7.27374e-22 -1.30979 12.0248)
(5.87062e-22 -1.36575 11.6483)
(4.4946e-22 -1.48413 11.2184)
(3.63292e-22 -1.69146 10.699)
(4.76156e-22 -2.27685 9.79209)
(6.63936e-22 -2.44576 8.43753)
(3.46542e-22 0.26058 6.37695)
(3.60254e-25 -11.1635 28.4426)
(6.3192e-25 -16.898 24.8012)
(-7.47764e-24 -11.8951 25.2006)
(-3.14528e-23 -12.5264 23.488)
(-5.4385e-23 -10.7749 22.7462)
(-1.85462e-23 -10.0877 21.6591)
(1.62362e-22 -9.06641 20.7504)
(5.2746e-22 -8.26177 19.813)
(9.77368e-22 -7.4574 18.925)
(1.2866e-21 -6.73072 18.0478)
(1.27835e-21 -6.04503 17.1777)
(1.01767e-21 -5.41353 16.2852)
(7.39428e-22 -4.83505 15.3224)
(5.11685e-22 -4.30434 14.1878)
(1.74374e-22 -3.78719 12.7564)
(-4.12758e-22 -3.20977 10.941)
(-2.35485e-21 -2.50055 8.6361)
(-9.68246e-21 -1.65271 5.6251)
(-2.54166e-20 -0.538105 1.92837)
(-3.05513e-20 0.563246 -1.11395)
(6.8007e-25 -14.3044 30.7663)
(-2.69327e-24 -17.9864 27.6927)
(-2.31688e-23 -13.3586 27.5638)
(-6.04534e-23 -14.1987 25.2678)
(-6.98224e-23 -12.1286 24.3554)
(4.67035e-23 -11.6216 22.8188)
(3.8862e-22 -10.4946 21.6631)
(8.86146e-22 -9.7331 20.4269)
(1.14935e-21 -8.89895 19.3002)
(6.25672e-22 -8.13717 18.1495)
(-1.02415e-21 -7.30621 16.8798)
(-3.97419e-21 -6.31088 15.2426)
(-8.70358e-21 -5.02337 12.9749)
(-1.50703e-20 -3.49565 10.048)
(-2.05219e-20 -2.00409 6.85164)
(-2.45206e-20 -0.700753 3.77021)
(-3.80471e-20 0.619962 0.6993)
(-7.56251e-20 1.92402 -2.23491)
(-1.18836e-19 2.71166 -3.80842)
(-1.11163e-19 1.79836 -2.35499)
(7.35783e-25 -15.8142 31.8917)
(-4.21003e-24 -18.627 28.8735)
(-3.02144e-23 -14.5815 28.5386)
(-6.80347e-23 -15.6354 25.9991)
(-7.04788e-23 -13.4073 25.1263)
(5.64225e-23 -13.2525 23.3532)