/*--------------------------------*- C++ -*----------------------------------*\
| =========                 |                                                 |
| \\      /  F ield         | OpenFOAM: The Open Source CFD Toolbox           |
|  \\    /   O peration     | Version:  4.1                                   |
|   \\  /    A nd           | Web:      www.OpenFOAM.org                      |
|    \\/     M anipulation  |                                                 |
\*---------------------------------------------------------------------------*/
FoamFile
{
    version     2.0;
    format      ascii;
    class       volScalarField;
    location    "10";
    object      p;
}
// * * * * * * * * * * * * * * * * * * * * * * * * * * * * * * * * * * * * * //

dimensions      [0 2 -2 0 0 0 0];

internalField   nonuniform List<scalar> 
1280
(
-0.0497064
-0.0739751
0.0213665
-0.27198
-0.0949531
-0.243853
-0.720597
-0.782688
-0.922378
-1.174
-2.24962
-1.83334
-2.66917
-4.6312
-3.93194
-5.8015
-8.86315
-8.8998
-10.8862
-20.4628
-14.1374
0.929727
17.1151
21.4669
22.9914
28.0172
-6.38938
6.70726
6.59925
6.16548
5.41489
4.41822
3.42295
1.94036
0.778826
-1.17614
-2.34365
-4.40545
-5.69906
-2.56133
-8.90837
-7.79966
-2.04237
3.99191
14.7282
16.0937
15.5533
15.9071
14.8061
15.3691
15.4189
14.7828
15.8208
15.525
16.089
14.7633
4.13915
-1.78771
-7.41181
-8.43408
-2.33268
-5.47179
-4.28629
-2.20212
-0.986418
0.981029
2.15469
3.62931
4.62395
5.58627
6.33073
6.83056
6.75776
-8.02956
28.4035
24.06
21.3288
16.2286
0.380796
-14.9076
-20.695
-11.4781
-9.63433
-9.78615
-6.49777
-4.82101
-5.60099
-3.35707
-2.61134
-3.10685
-1.75399
-1.52062
-1.44734
-1.29818
-0.614988
-0.413144
-0.663975
-0.155046
-0.248328
-0.180715
0.171796
-0.696778
-0.314288
-0.453687
0.800126
0.23852
0.182403
0.0946819
-0.135542
-0.440359
-0.521948
-0.17321
0.0481428
-0.177954
-0.259861
-0.139834
-0.0267744
-0.226172
-0.00703325
1.57944
-0.505698
-1.30158
-0.907583
1.67377
0.716925
0.478882
0.285825
-0.168145
-0.828805
-0.900022
0.294391
0.767788
-0.305538
-0.544869
-0.163037
0.172995
-0.197305
-0.0598676
2.28381
-1.49269
-3.40121
-1.27647
2.00729
1.24246
0.687953
0.244519
-0.645862
-1.87835
-1.94257
0.412742
1.31167
-0.656952
-1.07545
-0.391464
0.167276
-0.577777
-0.263154
3.01583
-1.77501
-4.68344
-1.6263
2.16685
1.52784
0.899932
0.141352
-1.18445
-3.024
-3.17366
0.720733
2.02983
-1.21914
-1.73584
-0.536771
0.359507
-0.508024
-0.0966797
3.13474
-2.24293
-5.91377
-1.94019
2.09357
1.52396
0.781781
-0.281187
-1.732
-4.12762
-4.22615
1.48824
3.07537
-2.14715
-3.41166
-0.790615
0.476089
-1.26723
-0.791275
2.76236
-2.34013
-6.6458
-1.94804
2.06274
1.43749
0.48332
-0.906542
-2.65822
-6.24976
-6.661
2.50933
4.35484
-3.41851
-5.00749
-1.23182
0.918342
-0.244547
-0.338446
1.83409
-2.35463
-6.9399
-2.01536
2.01562
1.49138
0.329759
-1.28612
-3.57357
-7.80934
-8.36672
2.21556
4.35417
-4.36839
-5.38066
-1.27592
0.647289
-2.57134
-1.99747
0.728164
-2.42944
-6.36015
-2.06436
1.52152
1.2641
0.465944
-0.994409
-3.74544
-8.87115
-9.68813
1.8734
4.00784
-4.93188
-6.83881
-2.07323
2.50895
3.35427
-0.000270557
-0.139713
-3.48722
-6.68968
-2.77738
1.03648
1.4188
1.13466
-0.138698
-2.76544
-7.73711
-10.2887
-1.55168
1.96033
-2.35722
-3.33928
-0.814139
2.60434
15.6658
17.5518
-0.441511
-5.23889
-7.50007
-3.43234
0.830029
1.74598
1.93935
0.851845
-1.68241
-6.71178
-11.9007
-5.43193
0.761249
0.63798
-0.144898
1.73574
8.07145
29.532
14.4063
-0.0296273
-6.3816
-7.61193
-3.30458
0.924098
2.06351
2.63299
1.71654
-0.763136
-5.84629
-14.6599
-10.9553
-2.62391
1.54344
1.86481
2.22588
7.81613
29.1587
13.9447
0.835453
-6.35228
-6.90823
-2.82341
0.902863
2.00056
2.6793
1.94516
-0.65926
-6.66579
-20.2365
-17.2035
-3.51425
5.17713
2.82882
1.63952
2.56497
14.9217
17.4179
1.7146
-5.92923
-5.78412
-2.07977
1.09648
1.85457
2.20962
1.48094
-1.00916
-7.36739
-23.5019
-19.8127
-4.88842
2.52384
2.1567
2.08487
2.28362
4.02386
0.704323
2.28952
-5.03977
-4.21666
-1.04144
1.65669
2.11586
2.04027
0.852798
-1.78802
-8.08174
-25.2823
-22.3275
-4.49144
3.88573
2.57498
1.62961
1.15255
-1.51652
-1.08653
2.44008
-3.963
-2.74261
-0.00584764
2.12248
2.51435
2.35967
0.896274
-2.16932
-7.82744
-25.3452
-23.9378
-5.56747
3.54807
2.9912
2.16415
1.61449
0.754061
0.390815
2.11455
-2.94935
-1.75317
0.36948
2.11443
2.55125
2.47724
1.16029
-1.83856
-6.31588
-22.4148
-22.6468
-5.99015
3.24553
2.85139
1.75466
1.11195
-0.378272
-0.0670325
1.63167
-2.14445
-1.09559
0.447793
1.80263
2.30539
2.26601
1.31112
-0.938637
-4.17463
-16.7032
-18.903
-5.74464
2.57371
2.45989
1.59178
1.15134
0.294707
0.537819
1.14169
-1.45498
-0.675167
0.348351
1.32718
1.72978
1.59553
0.980838
-0.3821
-2.45222
-9.79206
-12.8314
-4.08604
1.89857
1.81105
1.08016
0.694367
-0.025394
0.199248
0.715376
-0.74399
-0.238535
0.352364
0.947462
1.21553
0.997961
0.636476
0.0545079
-0.833673
-3.24138
-6.41924
-2.51482
1.16768
1.18859
0.750921
0.537031
0.230503
0.304349
0.130338
-0.534747
-0.347972
-0.07584
0.215331
0.310458
0.197064
0.0403112
-0.1246
-0.464249
-1.01807
-2.57918
-1.48
0.469657
0.511786
0.28884
0.150509
0.00772539
0.134712
119.72
118.259
116.875
117.696
114.503
112.764
109.8
107.429
104.495
102.179
99.9448
97.8907
96.289
94.5052
93.5821
91.8904
91.7912
89.9103
90.8593
89.3292
71.2186
71.858
72.7766
74.5736
73.8436
74.2713
73.6616
73.6913
73.2775
73.1607
73.0569
72.8602
73.0471
72.6921
73.1784
72.5904
73.4712
72.7286
74.13
74.1458
82.1225
82.5858
84.6803
86.8473
86.6725
87.3056
86.9286
86.8637
86.5869
86.3917
86.3597
86.1106
86.2869
85.8747
86.2334
85.5862
86.205
85.4762
86.5621
86.4871
53.5094
55.3144
58.421
61.0564
62.4501
63.7515
64.6696
65.412
66.0978
66.808
67.7058
68.4555
69.5684
70.2258
71.5029
71.9977
73.4654
73.9794
75.7641
77.2129
34.0404
34.6408
37.0305
37.9125
40.0593
40.3721
41.4376
42.2286
42.8908
43.7864
44.7335
45.8387
47.2858
48.6936
50.6394
52.2602
54.4913
56.246
58.5515
60.9299
12.4879
10.5859
11.2503
9.7869
11.4347
9.00737
8.96846
9.27499
9.09689
9.76477
10.1077
11.0534
12.1687
13.7304
15.8209
18.1469
20.9896
23.7865
26.7647
28.4723
30.4117
27.9893
27.1046
24.9501
26.3732
21.9613
20.9665
20.2059
18.7096
18.5323
17.3846
17.3418
17.0822
17.7147
18.7856
20.6379
23.2022
25.8213
29.4135
29.5947
47.3517
47.2158
46.3131
45.425
48.8402
44.7052
44.0697
44.3235
42.142
41.7595
39.7164
38.3767
36.0192
33.6748
30.7734
28.0438
26.0552
25.3032
28.9718
28.9032
49.3748
50.7624
48.6278
48.1692
53.2812
48.0431
47.1796
48.6513
46.2301
46.1252
44.2502
43.0748
41.1319
39.1198
36.6581
33.743
31.5861
29.1822
31.1484
30.7613
56.8686
59.0762
55.3857
55.103
62.3541
55.5541
54.3427
57.5246
55.3684
55.6156
54.2975
53.3642
52.2748
50.8463
49.7181
47.8969
47.0785
45.573
46.8079
46.1416
59.4192
61.9244
58.2615
58.0406
65.5594
60.6538
59.4521
62.7553
62.0254
61.7136
61.6712
60.976
61.0476
60.3382
60.248
59.4147
59.504
58.9414
60.3744
60.335
52.3808
53.5359
55.8048
53.5994
59.7772
56.8451
60.5331
58.6038
61.2715
60.1408
61.762
61.4408
62.3702
62.4994
63.1494
63.5747
64.5418
65.6076
67.0693
67.5407
38.7174
38.9659
40.1117
37.5515
41.0749
36.7991
40.5813
38.3885
40.2318
39.2585
40.3943
40.4726
41.3476
42.1061
43.0099
43.8498
44.5565
45.917
47.3974
49.8581
45.6209
46.0176
46.915
45.0335
47.504
43.9999
46.6387
43.1084
43.8988
41.9305
41.5267
39.9382
38.922
37.6283
36.3313
35.3877
34.4739
33.8287
33.5705
33.868
38.4901
39.5565
41.9165
40.8118
43.9746
43.2862
45.7397
46.152
47.796
48.7863
50.063
51.1986
52.2953
53.2852
53.7997
53.6315
52.8582
52.4185
52.016
51.6269
20.3942
19.4523
22.1013
19.2494
22.3286
20.8353
22.6973
22.8748
24.1592
25.2252
26.5958
28.0898
29.7289
31.4819
33.2858
35.0636
36.6803
38.2655
39.8381
41.7685
35.1094
31.2324
32.9052
26.1776
26.045
21.1646
18.9573
15.4031
12.672
9.80273
7.27805
4.96214
2.98916
1.47678
0.648002
0.832533
1.64761
2.71733
3.42336
5.3093
48.9936
42.1212
49.634
42.1664
43.6286
39.678
37.8014
34.6125
31.6863
28.446
25.1982
21.886
18.6495
15.651
13.2042
11.8234
11.4874
11.2452
10.344
10.5001
67.2273
45.2934
53.5368
42.5257
39.9829
33.4639
28.7205
23.648
19.3279
15.5263
12.501
10.3057
9.05934
8.86425
9.94141
12.4462
15.8572
19.6296
22.8949
24.0701
750.576
668.252
619.393
563.186
514.265
467
423.038
381.479
342.336
305.326
270.282
237.018
205.352
175.266
146.874
119.43
92.9918
71.4727
47.138
9.98977
721.443
638.973
590.032
533.712
484.694
437.324
393.265
351.611
312.384
275.298
240.193
206.882
175.195
145.145
116.886
89.6612
63.679
43.0576
19.2428
-18.3333
35.9012
13.6601
21.7731
10.5262
7.79859
1.06274
-3.8904
-9.17916
-13.7237
-17.7526
-21.0162
-23.4573
-24.953
-25.4014
-24.6416
-22.417
-19.0931
-15.8093
-13.3546
-12.4448
12.0153
4.72378
12.0513
4.26913
5.39032
1.04991
-1.22947
-4.90116
-8.31331
-12.1165
-15.9607
-19.9357
-23.8775
-27.578
-30.6901
-32.6847
-33.117
-33.0449
-33.6342
-32.6162
-2.26203
-6.08772
-4.3079
-11.1123
-11.0101
-15.9248
-18.012
-21.3891
-23.9647
-26.5395
-28.7455
-30.6352
-32.0778
-32.8887
-32.8215
-31.5103
-29.1376
-26.1063
-24.0122
-20.3456
-7.01235
-6.04129
-1.969
-3.40403
1.57887
1.97513
5.89842
8.42574
12.0371
15.691
19.7213
23.9373
28.0628
31.5834
33.9787
35.8808
38.2324
40.3952
41.9947
43.8875
41.4898
40.0935
41.2963
38.4235
40.4074
37.9186
38.6164
36.2616
35.4024
33.3194
30.9805
27.6038
24.1076
19.6663
17.6208
19.156
20.0406
21.7361
22.1398
22.7415
-57.2356
-62.0525
-64.0389
-70.4798
-73.6273
-81.018
-85.7924
-92.9555
-99.1771
-106.194
-114.258
-119.945
-130.81
-63.3942
34.4194
29.682
28.5835
28.7235
28.5336
30.6979
-35.8256
-33.8708
-29.7111
-28.9105
-23.8689
-22.0115
-17.1133
-13.9037
-9.17189
-4.21916
0.911807
7.36916
13.9479
19.7568
23.3432
20.9945
23.9928
29.2441
22.0754
27.3345
25.0017
29.1454
32.272
33.166
37.3566
38.215
41.6248
43.1694
45.8203
47.8245
50.0234
51.898
53.9595
55.5874
57.9828
60.0223
62.955
66.8171
65.3136
68.1194
49.9898
53.5222
54.6295
55.3265
57.31
57.8817
59.4578
60.2115
61.4276
62.3531
63.5435
64.6171
65.7455
66.7595
67.4949
68.5138
69.3465
71.0807
72.2823
74.8188
65.3111
68.5212
69.2356
70.4098
71.7118
72.2084
73.294
73.6821
74.3689
74.7498
75.2795
75.6336
76.0025
76.2312
76.5739
76.9107
77.6958
78.3264
79.9537
80.6946
73.4791
75.7496
76.0387
77.0778
77.4329
77.4706
77.7169
77.4783
77.4376
76.9783
76.558
75.7373
74.8384
73.4945
72.3027
70.4906
69.6477
68.1014
69.5168
68.7283
72.5871
73.2695
73.1418
73.6911
72.9591
72.0943
71.0753
69.9322
68.8955
67.5696
66.2134
64.5045
62.5863
60.2432
57.5505
54.2678
51.558
48.274
49.9049
49.2182
65.5481
64.0451
63.6535
63.3605
61.741
60.5859
59.0379
57.6454
56.2809
54.8987
53.5693
52.0708
50.4646
48.5813
46.583
44.5243
43.0831
42.1983
45.4664
45.3724
40.5641
37.9673
37.3376
36.8288
35.0339
34.2806
33.0779
32.1089
31.1401
30.3661
30.0043
29.9341
30.4655
31.3558
33.0074
34.9656
37.7395
40.2322
43.6626
44.1388
36.5069
35.4812
35.9142
37.0367
36.5303
37.0367
37.019
37.1923
37.4264
37.8334
38.6455
39.6215
41.1161
42.651
44.781
46.698
49.2252
51.227
53.8561
55.2255
48.3675
49.7013
51.7749
54.4275
54.9431
56.1342
56.6114
57.3502
58.0016
58.7188
59.6449
60.4829
61.7033
62.6208
64.1056
65.0062
66.6752
67.585
69.4724
70.9488
78.2421
78.8878
80.9784
83.2799
83.214
83.6533
83.1512
83.1685
82.9228
82.883
82.9308
82.8335
83.1037
82.8822
83.3406
82.9425
83.6283
83.1744
84.3036
84.5698
67.9118
68.8792
70.1212
72.3626
71.6203
72.2542
71.5378
71.7533
71.3267
71.4052
71.3534
71.2968
71.5429
71.2914
71.8128
71.3281
72.1867
71.5726
72.8752
73.1248
117.64
116.393
115.004
116.211
112.677
111.263
108.116
105.807
102.822
100.539
98.2755
96.2394
94.6268
92.8583
91.9163
90.2582
90.1109
88.3065
89.141
87.7809
)
;

boundaryField
{
    outletWall
    {
        type            fixedValue;
        value           uniform 0;
    }
    fineWalls
    {
        type            zeroGradient;
    }
    fineFrontAndBack
    {
        type            zeroGradient;
    }
    fineplugLeft
    {
        type            cyclicAMI;
        value           nonuniform List<scalar> 
20
(
70.9511
71.5476
71.0471
72.9643
73.2771
75.0214
75.9922
77.7158
79.1962
81.0388
82.9764
84.916
87.2847
96.5887
95.8147
96.201
98.4504
96.9226
94.7931
92.9484
)
;
    }
    fineplugRight
    {
        type            cyclicAMI;
        value           nonuniform List<scalar> 
20
(
69.7582
70.2184
69.788
71.6483
72.0093
73.7292
74.7176
76.4273
77.9163
79.7376
81.6971
83.6236
85.997
94.9092
94.6907
94.9532
97.2345
95.2492
93.1903
91.1304
)
;
    }
    inletOutletLeft
    {
        type            cyclicAMI;
        value           nonuniform List<scalar> 
20
(
70.9511
71.5476
71.0471
72.9643
73.2771
75.0214
75.9922
77.7158
79.1962
81.0388
82.9764
84.916
87.2847
96.5887
95.8147
96.201
98.4504
96.9226
94.7931
92.9484
)
;
    }
    inletLeft
    {
        type            zeroGradient;
    }
    inletWallsLeft
    {
        type            zeroGradient;
    }
    inletFacesLeft
    {
        type            zeroGradient;
    }
    inletOutletRight
    {
        type            cyclicAMI;
        value           nonuniform List<scalar> 
20
(
69.7582
70.2184
69.788
71.6483
72.0093
73.7292
74.7176
76.4273
77.9163
79.7376
81.6971
83.6236
85.997
94.9092
94.6907
94.9532
97.2345
95.2492
93.1903
91.1304
)
;
    }
    inletRight
    {
        type            zeroGradient;
    }
    inletWallsRight
    {
        type            zeroGradient;
    }
    inletFacesRight
    {
        type            zeroGradient;
    }
}


// ************************************************************************* //
