/*--------------------------------*- C++ -*----------------------------------*\
| =========                 |                                                 |
| \\      /  F ield         | OpenFOAM: The Open Source CFD Toolbox           |
|  \\    /   O peration     | Version:  4.1                                   |
|   \\  /    A nd           | Web:      www.OpenFOAM.org                      |
|    \\/     M anipulation  |                                                 |
\*---------------------------------------------------------------------------*/
FoamFile
{
    version     2.0;
    format      ascii;
    class       surfaceScalarField;
    location    "10";
    object      phi;
}
// * * * * * * * * * * * * * * * * * * * * * * * * * * * * * * * * * * * * * //

dimensions      [0 3 -1 0 0 0 0];

internalField   nonuniform List<scalar> 
2360
(
987.103
1988.76
-1001.66
1988.76
1988.76
3218
-1229.23
3218
3218
3218
4605.93
-1387.94
4605.93
4605.93
6329.96
-1724.02
6329.95
6329.96
8461.19
-2131.23
8461.19
8461.18
11863.7
-3402.56
11863.7
11863.7
12589
14127.6
15692.2
17164.6
18526.8
19788.6
16485.9
4494.92
17615.5
18679.9
19681.9
20620.2
21498.9
22316.4
23077.6
23778.2
24427.1
25018.1
25568.4
26133.8
26868.9
12354.6
14514.2
12354.6
12354.6
12354.6
157.859
12196.8
157.858
157.859
157.859
-85.2554
243.115
-85.2552
-85.2548
-164.647
79.3926
-164.647
-164.646
-164.647
-12290.4
12125.7
-12290.4
-12290.4
-12290.4
-26857.1
14566.7
-26132.4
-25569.6
-25026.2
-24442.2
-23798.4
-23101.2
-22342.4
-21526.6
-20649.3
-19712
-18710.7
-17646.1
-16513.5
-19916.1
4600.46
-18646.7
-17265.9
-15742.9
-14193.4
-12659.3
-11957.5
-11957.5
-11957.5
-8717.33
-3240.16
-8717.33
-8717.33
-6713.78
-2003.55
-6713.78
-6713.78
-5113.64
-1600.14
-5113.64
-5113.64
-3817.58
-1296.06
-3817.58
-3817.58
-3817.58
-2678.98
-1138.6
-2678.98
-2678.98
-1759.98
-918.995
-3845.54
549.678
-2995.51
-4281.54
-2436.4
-872.642
-2294.99
4649.53
-2370.12
1585.65
-2465.21
-1877.35
-2360.13
-526.439
-2134.91
1049.33
-1790.96
2250.27
-1372.48
3071.37
-945.876
3240.6
-502.121
2756.99
-38.4336
1539.49
383.157
981.097
611.757
2053.3
726.867
2508.2
884.863
2154.2
997.209
3622.11
4182.39
-4191.7
-57.0341
-3503.12
-4970.13
-2960.28
-1415.48
-2679.72
4368.97
-2787.99
1693.91
-2948.76
-1716.57
-2706.92
-768.283
-2311.75
654.163
-1843.03
1781.55
-1357.5
2585.84
-922.942
2806.04
-475.297
2309.34
82.3137
981.875
569.904
493.507
714.034
1909.17
713.612
2508.62
868.986
1998.82
993.722
3497.37
4037.51
-4589.4
-639.681
-4216.19
-5343.34
-3945.5
-1686.17
-3517.18
3940.65
-3588.74
1765.48
-3787.44
-1517.87
-3466.37
-1089.35
-2904.09
91.8852
-2270.48
1147.94
-1626.31
1941.67
-1050.71
2230.44
-477.126
1735.76
325.082
179.668
908.393
-89.8046
925.115
1892.45
807.095
2626.64
925.239
1880.68
1034.26
3388.35
3775.71
-5306.65
-1110.67
-5243.79
-5406.2
-5150.29
-1779.66
-4598.06
3388.42
-4479.19
1646.6
-4528.51
-1468.55
-4114.63
-1503.23
-3420.92
-601.822
-2576.8
303.821
-1695.36
1060.23
-952.075
1487.15
-240.546
1024.23
935.66
-996.539
1550.41
-704.558
1201.05
2241.81
818.38
3009.31
826.258
1872.8
1066.17
3148.45
3241.73
-6371.8
-1347.25
-6641.56
-5136.45
-6511.38
-1909.84
-5590.94
2467.98
-4984.56
1040.23
-4647.33
-1805.78
-4002.6
-2147.97
-3017.38
-1587.04
-1834.04
-879.517
-779.668
5.85847
-193.72
901.202
160.313
670.198
992.566
-1828.79
1469.42
-1181.41
1095.22
2616.01
762.944
3341.58
895.637
1740.11
1222.04
2822.04
2460.22
-7864.77
-1230.15
-8464.71
-4536.5
-8003.56
-2370.99
-6368.69
833.107
-5337.31
8.8541
-5023.86
-2119.23
-4464.01
-2707.81
-3396.25
-2654.8
-2056.38
-2219.39
-1176.56
-873.963
-1302.79
1027.43
-1661.65
1029.06
-1241.49
-2248.95
-435.796
-1987.1
-145.882
2326.1
-129.443
3325.14
148.874
1461.79
1348.75
1622.16
568.81
-9632.03
-653.135
-10747.5
-3421.04
-10334.4
-2784.09
-8303.91
-1197.37
-6886.95
-1408.1
-6480.55
-2525.63
-6049.25
-3139.1
-5381.83
-3322.22
-4719.41
-2881.8
-4698.61
-894.767
-5303.14
1631.96
-5428.26
1154.17
-5031.71
-2645.5
-3805.28
-3213.52
-1903.43
424.249
-472.936
1894.64
907.942
80.9129
2090.39
439.711
7259.66
-11230.7
339.487
-12925.6
-1726.18
-13184.2
-2525.45
-11621.8
-2759.85
-9732.52
-3297.35
-8594.45
-3663.7
-8159.51
-3574.05
-8196.23
-3285.5
-8430.68
-2647.36
-8670.99
-654.457
-8973.81
1934.78
-9480.74
1661.1
-10018.6
-2107.61
-9034.51
-4197.65
-6250.98
-2359.28
-4487.81
131.469
-5554.87
1147.98
-9117.81
4002.65
12708.5
-11824.1
1389.84
-13394
-156.272
-13528.5
-2390.96
-12166.4
-4122.03
-10434.1
-5029.65
-9363.66
-4734.1
-9275.42
-3662.29
-10115.7
-2445.24
-11512
-1251.08
-12934.2
767.766
-14068.1
3068.67
-14725.8
2318.82
-15111
-1722.39
-15421.6
-3887.07
-15498.2
-2282.67
-15307.5
-59.2224
-15418.8
1259.28
-15193.6
3777.43
9640.68
-10705.9
1958.04
-11333.7
471.526
-10697.5
-3027.18
-9315.08
-5504.45
-8323
-6021.73
-8281.55
-4775.54
-9067.41
-2876.43
-10604.9
-907.798
-12691.7
835.819
-14638.7
2714.75
-15692.3
4122.23
-15512.1
2138.67
-15244.2
-1990.33
-15651.3
-3479.94
-16035
-1899.02
-15566.2
-527.998
-14052
-254.937
-9925.01
-349.542
-204.944
-8347.96
1861.72
-8129
252.569
-7251.85
-3904.34
-6272.4
-6483.9
-6178.31
-6115.82
-7316.74
-3637.11
-9057.73
-1135.45
-10929.4
963.831
-13073
2979.43
-15113
4754.77
-16148.6
5157.88
-15700.5
1690.55
-15257.2
-2433.67
-15768.5
-2968.63
-16217
-1450.53
-15773.3
-971.689
-14341.5
-1686.7
-10199.3
-4491.73
-10161.2
-6251.33
1192.98
-5749.58
-249.177
-5308.95
-4344.98
-4968.95
-6823.89
-5415.5
-5669.28
-6843.79
-2208.82
-8707.13
727.895
-10400.9
2657.6
-12126
4704.52
-13641.8
6270.62
-13809.3
5325.32
-12175.5
56.8003
-11281.9
-3327.24
-12605.1
-1645.44
-14112.5
56.8301
-14596.7
-487.524
-15045
-1238.34
-15069.7
-4467.01
-13034.1
-4734.36
-15.4728
-4101.66
-881.872
-4234.82
-4211.82
-4624.65
-6434.06
-5488.34
-4805.59
-6510.54
-1186.62
-7725.77
1943.12
-9022.64
3954.47
-10253.1
5934.94
-11099.4
7117
-10624.4
4850.27
-8230.99
-2336.6
-5204.7
-6353.54
-2992.25
-3857.88
-2657.89
-277.527
-3341.56
196.143
-4854.41
274.509
-8611.44
-709.978
-7131.34
-3811.95
-1731.29
-2787.9
-1905.92
-3342.34
-3657.38
-4435.78
-5340.62
-5614.86
-3626.51
-6121.45
-680.024
-6404.89
2226.57
-6930.49
4480.06
-7613.42
6617.87
-8314.31
7817.89
-8433.76
4969.73
-6965.8
-3804.56
-4694.64
-8624.7
-2442.53
-6109.99
-315.851
-2404.21
1157.5
-1277.21
2004.6
-572.591
2600.21
-1305.58
-36.2204
-4028.96
-3339.88
-2572.06
-3362.83
-2907.33
-3322.11
-4282.67
-3965.28
-5451.41
-2457.77
-5693.07
-438.361
-5404.7
1938.19
-5056.82
4132.18
-4867.66
6428.71
-5248.55
8198.78
-5700.95
5422.13
-4524.09
-4981.43
-2885.47
-10263.3
-1672.29
-7323.17
-525.602
-3550.89
447.928
-2250.74
779.324
-903.987
1685.54
-2211.8
-1753.24
-4430.81
-4334.24
-3327.95
-4465.68
-3345.8
-3304.25
-4259.06
-3052.02
-4962.1
-1754.74
-5089.14
-311.319
-4769.79
1618.84
-4016.58
3378.97
-3037.04
5449.17
-2538.8
7700.54
-2784.89
5668.22
-2131.37
-5634.95
-1293.68
-11101
-604.065
-8012.79
277.621
-4432.58
845.493
-2818.62
1199.32
-1257.81
1456.02
-2468.5
-2428.45
-4523.86
-4878.71
-3950.29
-5039.26
-3907.93
-3346.61
-4207.17
-2752.79
-4318.92
-1642.98
-4278.09
-352.15
-4116.97
1457.73
-3491.26
2753.26
-2251.55
4209.46
-754.644
6203.63
-77.0031
4990.58
-25.8749
-5686.08
-110.843
-11016
179.084
-8302.72
720.429
-4973.92
1010.93
-3109.11
1159.49
-1406.38
1317.01
-2626.03
-2835.46
-4554.76
-5197.65
-4208.8
-5385.21
-4053.89
-3501.53
-3989.73
-2816.94
-3790.17
-1842.55
-3506.22
-636.104
-3288.73
1240.24
-2903.99
2368.53
-1935.26
3240.73
-176.58
4444.95
1277.16
3536.84
1191.4
-5600.32
619.839
-10444.5
729.529
-8412.41
996.015
-5240.41
1166.07
-3279.17
1247.32
-1487.62
1226.43
-2605.14
-2996.97
-4595.38
-5393.46
-4329.39
-5651.2
-4069.52
-3761.4
-3823.75
-3062.7
-3524.96
-2141.33
-3108.48
-1052.59
-2724.54
856.295
-2385
2028.99
-1782.41
2638.14
-456.833
3119.38
1031.21
2048.8
1276.57
-5845.68
952.451
-10120.4
1014.98
-8474.94
1096.31
-5321.74
1126.98
-3309.84
1143.09
-1503.74
1141.92
-2603.96
-3084.28
-4604.31
-4362.23
-4055.76
-3751.92
-3449.85
-3027.86
-2523.49
-2069.04
-1573.83
-735.673
375.448
998.5
1109.98
1130.77
1111.69
1103.76
1111.57
1113.74
63.2126
-788.431
291.461
-1766.88
501.285
-1774.43
645.657
-1616.8
759.657
-1476.2
849.209
-1351.25
892.158
-1235.21
911.441
-1148.93
909.967
-1062.86
892.582
-984.589
859.019
-904.749
811.352
-831.031
746.794
-752.975
668.34
-682.748
572.353
-604.592
464.794
-541.386
341.622
-467.739
213.827
-422.56
105.242
-456.812
-629.825
19.6012
-808.026
39.1683
-1786.44
98.1364
-1833.39
107.171
-1625.84
103.936
-1472.96
122.249
-1369.56
141.878
-1254.84
149.534
-1156.58
150.301
-1063.63
150.183
-984.468
150.683
-905.247
150.136
-830.481
145.046
-747.882
136.181
-673.88
122.553
-590.961
107.653
-526.484
91.9267
-452.01
77.5974
-408.228
63.5801
-442.79
-566.244
22.373
-830.394
70.0658
-1834.13
147.49
-1910.81
179.512
-1657.86
193.944
-1487.4
254.974
-1430.59
315.164
-1315.02
346.592
-1188.01
359.092
-1076.13
362.16
-987.534
361.824
-904.909
355.405
-824.06
342.574
-735.048
321.828
-653.132
298.732
-567.863
273.68
-501.43
253.712
-432.041
228.211
-382.725
167.306
-381.882
-398.938
192.352
-1022.75
302.808
-1944.59
348.907
-1956.91
342.659
-1651.61
370.729
-1515.47
445.275
-1505.14
532.536
-1402.29
593.886
-1249.36
628.005
-1110.24
641.354
-1000.88
638.003
-901.557
618.687
-804.744
585.471
-701.832
537.397
-605.058
480.642
-511.108
416.535
-437.322
356.102
-371.609
292.582
-319.205
197.951
-287.251
-200.987
313.937
-1336.68
447.007
-2077.65
452.561
-1962.46
406.999
-1606.04
488.989
-1597.45
588.687
-1604.83
666.065
-1479.66
738.968
-1322.26
791.104
-1162.38
814.128
-1023.91
805.422
-892.849
773.253
-772.573
724.581
-653.158
662.416
-542.892
590.875
-439.566
510.061
-356.507
428.241
-289.788
340.044
-231.007
213.335
-160.541
12.3483
254.161
-1590.84
305.135
-2128.63
277.062
-1934.39
226.619
-1555.6
311.351
-1682.19
373.544
-1667.03
358.953
-1465.07
375.028
-1338.33
369.905
-1157.26
331.362
-985.363
264.578
-826.065
188.714
-696.711
111.32
-575.764
37.8757
-469.448
-29.3804
-372.31
-90.2181
-295.669
-140.564
-239.441
-166.149
-205.422
-136.036
-190.654
-123.688
54.7961
-1645.64
13.7927
-2087.63
-22.0311
-1898.57
-72.1879
-1505.45
-87.0141
-1667.36
-113.843
-1640.2
-225.83
-1353.08
-302.082
-1262.08
-410.866
-1048.47
-541.277
-854.953
-677.862
-689.481
-810.155
-564.418
-934.967
-450.951
-1047.6
-356.815
-1138.29
-281.617
-1185.22
-248.746
-1133.27
-291.388
-896.332
-442.358
-452.588
-634.397
-576.276
-44.0872
-1601.55
-85.7414
-2045.98
-96.3185
-1887.99
-135.04
-1466.73
-215.508
-1586.9
-250.074
-1605.64
-367.661
-1235.5
-467.638
-1162.11
-567.693
-948.419
-650.779
-771.868
-729.976
-610.286
-819.15
-475.247
-920.045
-350.057
-1027.52
-249.339
-1120.75
-188.387
-1154.67
-214.83
-1058.09
-387.967
-766.763
-733.688
-338.859
-1062.3
-915.135
-4.68502
-1596.87
-24.5379
-2026.12
-28.1597
-1884.37
-21.1329
-1473.76
-69.9824
-1538.05
-71.3032
-1604.32
-114.623
-1192.18
-150.64
-1126.09
-136.886
-962.173
-83.0002
-825.756
-13.3794
-679.907
46.8514
-535.479
90.7802
-393.986
112.503
-271.062
114.95
-190.835
108.553
-208.434
95.1009
-374.514
72.268
-710.855
11.6727
-1001.71
-903.462
36.4349
-1633.31
6.35892
-1996.05
-26.8992
-1851.12
11.082
-1511.74
-12.4758
-1514.49
-53.4577
-1563.34
-45.3665
-1200.27
-51.9553
-1119.5
-5.01775
-1009.11
61.9899
-892.765
156.79
-774.708
263.777
-642.468
379.68
-509.889
490.056
-381.439
581.064
-281.843
635.462
-262.832
619.651
-358.703
495.201
-586.405
247.233
-753.738
-656.229
77.2342
-1710.54
42.7124
-1961.53
-9.68215
-1798.72
46.3686
-1567.8
56.147
-1524.27
-20.1216
-1487.07
19.7881
-1240.18
25.2845
-1125
60.3601
-1044.19
100.514
-932.92
157.888
-832.083
230.931
-715.512
323.238
-602.197
431.446
-489.648
549.611
-400.008
656.122
-369.343
698.373
-400.955
589.903
-477.934
322.59
-486.425
-333.638
104.542
-1815.09
63.7926
-1920.78
41.4718
-1776.4
92.6429
-1618.97
115.993
-1547.62
60.3084
-1431.38
114.311
-1294.19
165.621
-1176.31
227.306
-1105.87
302.559
-1008.17
384.305
-913.828
474.821
-806.028
571.985
-699.361
675.782
-593.445
777.084
-501.31
839.321
-431.58
808.543
-370.177
625.481
-294.872
336.869
-197.813
3.23047
88.4449
-1903.53
54.9071
-1887.25
78.9528
-1800.45
94.0753
-1634.09
108.999
-1562.54
113.74
-1436.13
169.399
-1349.85
235.256
-1242.17
292.89
-1163.51
357.282
-1072.57
428.19
-984.737
505.412
-883.251
581.704
-775.654
644.826
-656.567
675.372
-531.856
649.709
-405.918
544.039
-264.507
327.949
-78.783
75.153
54.9832
78.3835
31.9106
-1935.44
13.211
-1868.55
16.7463
-1803.99
6.76608
-1624.11
11.4958
-1567.27
13.2146
-1437.85
23.743
-1360.37
31.2489
-1249.67
28.113
-1160.37
22.4449
-1066.9
19.1982
-981.49
25.7767
-889.829
41.9328
-791.81
57.1047
-671.739
44.4805
-519.232
-10.9477
-350.49
-113.12
-162.334
-210.92
19.016
-228.637
72.7007
-150.254
35.3083
-1970.75
41.3239
-1874.56
55.271
-1817.93
65.5811
-1634.42
75.1696
-1576.86
73.0919
-1435.77
66.8067
-1354.09
63.1568
-1246.02
59.2093
-1156.42
54.3106
-1062
45.0336
-972.213
37.1493
-881.945
31.5291
-786.19
35.7734
-675.983
52.5195
-535.978
69.7733
-367.744
97.0747
-189.636
159.727
-43.6362
181.072
51.3546
30.8183
57.586
-2028.34
59.7021
-1876.68
85.3593
-1843.59
115.032
-1664.09
144.23
-1606.06
184.701
-1476.24
224.871
-1394.26
270.969
-1292.12
318.769
-1204.22
370.83
-1114.06
425.06
-1026.44
477.723
-934.608
523.129
-831.596
551.448
-704.302
552.894
-537.424
515.788
-330.638
468.647
-142.496
382.015
42.9956
288.723
144.646
319.542
-4.00495
-2024.33
-45.1512
-1835.53
-61.9224
-1826.82
-62.1339
-1663.88
-61.0709
-1607.12
-42.2802
-1495.03
-18.3266
-1418.21
18.792
-1329.24
65.1967
-1250.63
122.455
-1171.32
188.974
-1092.96
260.899
-1006.53
327.812
-898.51
366.852
-743.342
340.442
-511.013
230.155
-220.352
103.675
-16.016
52.7909
93.8783
1.85397
195.582
321.396
-170.256
-1854.08
-358.8
-1646.99
-514.187
-1671.43
-630.15
-1547.92
-736.188
-1501.08
-810.775
-1420.44
-871.947
-1357.04
-912.465
-1288.72
-938.028
-1225.07
-947.584
-1161.76
-942.429
-1098.12
-921.775
-1027.19
-883.148
-937.137
-818.538
-807.953
-712.283
-617.268
-555.922
-376.713
-398.082
-173.856
-255.421
-48.783
-155.327
95.488
166.068
-213.786
-1640.29
-476.222
-1384.55
-750.521
-1397.13
-986.456
-1311.99
-1214.36
-1273.19
-1412.11
-1222.69
-1588.82
-1180.33
-1740.16
-1137.39
-1868.88
-1096.34
-1974.78
-1055.86
-2057.16
-1015.73
-2110.32
-974.027
-2120.08
-927.381
-2056.81
-871.224
-1873.07
-801.011
-1535.27
-714.51
-1096.55
-612.575
-661.428
-483.904
-263.877
-302.063
-97.8087
-665.292
-1074.84
-1496.98
-1833.96
-2132.15
-2379.83
-2585.17
-2747.55
-2868.9
-2949.76
-2990.49
-2989.52
-2941.9
-2838.13
-2664.14
-2403.65
-2041.22
-1550.13
-877.191
-667.627
1642.63
-1080.69
1388.07
-1506.27
1400.58
-1847.36
1316.09
-2150.14
1277.78
-2403.06
1227.92
-2614.26
1186.2
-2783.26
1144.01
-2912.09
1103.83
-3001.56
1064.47
-3052.25
1025.69
-3062.57
985.324
-3026.8
939.229
-2933.2
881.405
-2763.76
805.562
-2496.23
707.464
-2108.05
586.829
-1574.62
441.569
-867.943
268.323
107.057
-221.791
1864.43
-490.196
1656.47
-771.634
1682.02
-1014.59
1559.05
-1249.55
1512.74
-1454.22
1432.6
-1638.11
1370.09
-1796.78
1302.69
-1933.38
1240.43
-2047.63
1178.72
-2138.85
1116.91
-2200.85
1047.32
-2219.45
957.839
-2167.83
829.781
-2002.47
640.205
-1678.88
383.873
-1227.52
135.471
-770.943
-15.0022
-331.191
-171.425
-224.134
-166.826
2031.26
-360.099
1849.75
-514.921
1836.85
-629.041
1673.17
-731.42
1615.13
-802.052
1503.23
-856.508
1424.55
-888.855
1335.04
-903.146
1254.73
-898.743
1174.33
-876.26
1094.43
-835.316
1006.38
-775.385
897.911
-694.853
749.252
-591.138
536.496
-463.848
256.589
-339.501
11.1327
-225.934
-128.56
-137.852
-259.499
-361.986
30.9372
2000.32
-1.26121
1881.95
4.26682
1831.32
29.3087
1648.13
58.8673
1585.57
108.932
1453.17
168.564
1364.92
243.379
1260.22
332.07
1166.04
436.048
1070.35
553.268
977.215
674.328
885.322
778.686
793.556
836.637
691.303
814.237
558.898
677.556
393.272
452.054
236.638
251.787
71.7114
80.9241
-88.6315
-281.061
77.2526
1923.07
92.0227
1867.18
131.352
1792
163.081
1616.4
194.016
1554.64
218.251
1428.94
234.975
1348.2
250.938
1244.27
260.296
1156.69
261.763
1068.89
263.032
975.953
290.158
858.2
389.537
694.183
570.227
510.618
725.314
403.817
724.395
394.195
644.198
316.84
499.816
216.099
288.84
122.353
7.77891
-69.0464
1992.12
-160.013
1958.15
-242.996
1874.98
-343.639
1717.04
-437.813
1648.81
-530.441
1521.56
-627.82
1445.58
-732.642
1349.09
-854.304
1278.35
-980.006
1194.59
-1111.16
1107.1
-1209.18
956.228
-1218.45
703.455
-1187.77
479.936
-1253.06
469.105
-1164.95
306.086
-962.792
114.688
-626.702
-119.988
-317.018
-187.326
-309.239
73.2931
1918.82
64.639
1966.8
97.1982
1842.42
135.685
1678.56
179.225
1605.27
213.184
1487.6
250.631
1408.13
311.339
1288.37
399.161
1190.52
512.129
1081.61
635.18
984.049
722.263
869.143
753.127
672.592
671.968
561.094
419.126
721.95
225.902
499.318
100.579
240.031
19.3926
-38.7785
-108.216
-59.7032
-417.455
175.331
1743.49
157.887
1984.24
192.884
1807.42
238.162
1633.27
295.561
1547.87
354.812
1428.35
422.238
1340.7
484.654
1225.95
547.439
1127.73
608.87
1020.17
673.845
919.072
722.162
820.817
759.63
635.126
835.911
484.81
986.862
571.002
937.987
548.194
765.564
412.456
408.51
318.28
128.174
220.644
-289.281
216.872
1526.62
205.811
1995.3
215.536
1797.7
250.448
1598.36
302.679
1495.64
359.47
1371.55
428.298
1271.88
494.259
1159.99
557.589
1064.41
611.69
966.072
660.407
870.359
698.88
782.344
668.901
665.108
606.698
547.014
682.866
494.838
757.053
474.01
722.999
446.515
580.671
460.614
397.026
404.297
107.746
201.363
1325.25
213.309
1983.35
207.942
1803.06
222.015
1584.28
251.986
1465.67
286.987
1336.55
330.524
1228.34
374.413
1116.09
415.583
1023.24
444.144
937.507
457.176
857.327
459.509
780.008
429.508
695.109
394.844
581.676
425.899
463.783
501.169
398.74
548.211
399.474
505.903
502.924
317.968
592.235
425.714
107.169
1218.08
115.941
1974.57
112.698
1806.3
115.483
1581.49
136.055
1445.1
165.59
1307.01
198.101
1195.83
227.402
1086.79
249.231
1001.41
263.106
923.63
272.984
847.449
292.214
760.777
326.909
660.415
377.682
530.903
442.065
399.401
513.439
327.366
557.502
355.412
508.82
551.606
308.004
793.053
733.718
-19.6265
1237.7
-23.9019
1978.84
-10.6919
1793.09
-7.49539
1578.29
0.0219095
1437.57
9.74047
1297.29
31.155
1174.41
53.2039
1064.74
79.9433
974.661
122.862
880.706
191.181
779.126
289.841
662.113
414.788
535.464
541.038
404.649
640.215
300.221
692.246
275.332
657.377
390.279
505.045
703.937
249.015
1049.08
982.733
-125.853
1363.55
-138.838
1991.83
-118.729
1772.97
-139.929
1599.49
-197.88
1495.52
-271.891
1371.3
-322.884
1225.4
-349.819
1091.67
-345.818
970.659
-309.644
844.531
-246.233
715.713
-170.106
585.985
-98.3068
463.663
-50.8266
357.168
-34.149
283.542
-35.03
276.212
-37.5999
392.848
-25.5857
691.922
-23.1048
1046.6
959.628
-134.514
1498.06
-177.172
2034.48
-183.875
1779.67
-239.135
1654.75
-342.836
1599.22
-467.654
1496.11
-587.957
1345.7
-687.601
1191.31
-760.526
1043.58
-815.152
899.154
-862.468
763.026
-914.826
638.34
-978.221
527.055
-1053.08
432.028
-1124.8
355.257
-1158.01
309.425
-1081.97
316.803
-811.638
421.587
-369.416
604.374
590.213
52.1701
1445.89
28.4973
2058.15
-11.3962
1819.56
-51.9231
1695.27
-95.0724
1642.37
-137.977
1539.02
-194.198
1401.92
-262.339
1259.45
-336.987
1118.23
-418.165
980.33
-504.054
848.913
-592.96
727.244
-680.082
614.175
-762.565
514.509
-833.247
425.936
-881.659
357.836
-870.258
305.4
-721.145
272.474
-378.163
261.389
212.049
259.833
1186.05
330.769
1987.21
286.598
1863.73
263.27
1718.6
291.001
1614.64
349.356
1480.66
400.447
1350.83
424.709
1235.19
419.727
1123.2
388.766
1011.29
340.325
897.351
281.36
786.206
218.621
676.911
153.872
579.255
91.4072
488.398
32.4495
416.791
-16.7448
354.593
-48.4182
304.145
-51.4832
264.45
160.566
267.413
918.634
385.222
1869.4
387.273
1861.68
373.651
1732.22
418.438
1569.85
490.549
1408.55
559.301
1282.08
610.245
1184.24
640.1
1093.35
646.954
1004.43
634.363
909.942
604.48
816.089
561.572
719.818
506.865
633.961
446.615
548.648
382.743
480.663
323.143
414.193
260.779
366.509
167.874
357.355
328.44
110.579
808.054
185.341
1794.64
239.295
1807.73
253.464
1718.05
308.511
1514.8
359.515
1357.54
399.003
1242.59
428.52
1154.72
452.583
1069.28
465.963
991.053
468.699
907.206
457.739
827.048
436.024
741.533
404.305
665.679
370.022
582.931
333.574
517.11
303.102
444.666
266.61
403.001
190.48
433.484
518.92
50.1369
757.917
81.3715
1763.4
132.28
1756.82
153.26
1697.07
168.969
1499.09
172.25
1354.26
178.473
1236.36
183.687
1149.51
190.331
1062.64
196.716
984.668
200.056
903.866
197.948
829.156
189.058
750.422
175.248
679.489
157.455
600.724
138.847
535.719
122.08
461.433
107.48
417.602
87.2874
453.678
606.208
56.1493
285.369
492.749
666.851
785.054
869.936
908.427
925.376
923.436
906.73
873.382
825.217
759.861
680.508
583.989
475.915
353.404
227.605
118.508
)
;

boundaryField
{
    outletWall
    {
        type            calculated;
        value           nonuniform List<scalar> 
60
(
-1759.98
-4104.17
-3734.46
-2312.19
-2623.31
-2281.9
-1402.69
-2003.17
-3200.74
-3667.21
-3489.85
-2594.23
-1274.55
421.357
1972.45
-1510.52
-4790.95
313.535
3431.52
-1131.97
4728.15
4791.19
4873.7
5068.33
5425.17
5637.55
5527.77
5942.81
6920.07
8444.28
10137.7
10773.8
10238.1
9055.02
7747.67
6608.38
5777.64
5172.04
4798.41
4427.83
-987.104
-2972.21
-2606.13
-1511.55
-3301.9
-5302.66
-8495.73
-10231.8
-6468.74
937.68
2281.21
2142.93
1574.54
351.925
-1474.58
-2443.41
-3366.54
-4067.86
-5893.28
-5517.3
)
;
    }
    fineWalls
    {
        type            calculated;
        value           uniform 0;
    }
    fineFrontAndBack
    {
        type            calculated;
        value           nonuniform List<scalar> 
960
(
-4.85737e-13
-1.57421e-12
-1.9119e-13
-1.68015e-13
-5.66957e-15
6.26814e-14
1.01753e-13
-3.05128e-14
1.75385e-13
9.61252e-14
2.25821e-13
1.09285e-13
-3.39921e-13
-4.90235e-13
-5.2158e-12
-1.47574e-12
-1.59046e-12
-5.79175e-12
-9.03804e-13
-1.10565e-12
-1.12031e-13
-3.63453e-13
-3.85605e-13
-4.38683e-13
-4.44487e-13
-5.2763e-13
-7.68211e-12
-5.99887e-13
-6.10939e-13
-6.25911e-13
-6.53268e-13
-6.87111e-13
-7.22258e-13
-7.63261e-13
-8.07064e-13
-8.60107e-13
-8.95078e-13
-1.0046e-12
-1.05578e-12
-8.57284e-13
-1.79174e-11
-2.32717e-12
-2.32793e-12
-2.27661e-12
-9.43847e-12
-8.37801e-12
-8.28661e-12
5.06283e-12
1.59037e-10
3.76489e-12
9.17719e-12
3.24586e-11
1.29523e-11
2.06206e-11
1.59667e-11
1.99757e-11
2.08598e-12
2.3119e-12
2.28791e-12
1.74271e-11
8.37427e-13
1.02524e-12
9.54094e-13
8.24307e-13
7.63799e-13
6.94427e-13
6.35205e-13
5.81548e-13
5.26236e-13
4.72609e-13
4.23324e-13
3.863e-13
3.51817e-13
-9.45355e-13
1.89836e-13
6.99375e-14
3.78443e-14
-4.32953e-14
-1.07667e-13
-3.94151e-13
-1.91763e-12
-2.07159e-12
-1.07403e-11
-1.78554e-12
-1.93936e-12
-1.01269e-11
-1.4827e-12
-1.64676e-12
-9.22418e-12
-1.27537e-12
-1.36477e-12
-5.91428e-12
-5.86639e-13
-8.31342e-13
-9.37236e-13
-5.19758e-12
-6.04776e-13
-5.59784e-13
-2.5947e-12
-1.03009e-13
8.25667e-10
2.6371e-10
2.2271e-11
-7.19114e-11
-1.01355e-10
-1.03593e-10
-8.7999e-11
-8.30452e-11
-7.28293e-11
-6.08817e-11
-4.98665e-11
-4.74747e-11
-4.99457e-11
-4.87165e-11
-4.57595e-11
-3.99369e-11
-3.28847e-11
-2.22217e-11
-1.34578e-11
8.1754e-10
2.88764e-10
3.10182e-11
-6.88525e-11
-1.0429e-10
-9.02988e-11
-6.76429e-11
-6.47163e-11
-5.69419e-11
-5.06007e-11
-4.57387e-11
-4.52888e-11
-4.66211e-11
-4.34423e-11
-4.51858e-11
-4.11703e-11
-3.47284e-11
-2.36252e-11
-1.41107e-11
7.59263e-10
2.35099e-10
2.98599e-11
-4.79176e-11
-9.67661e-11
-6.59639e-11
-3.85765e-11
-3.55598e-11
-3.65926e-11
-4.0239e-11
-3.77012e-11
-3.32286e-11
-3.69485e-11
-3.53845e-11
-4.37759e-11
-4.07265e-11
-3.33102e-11
-2.3994e-11
-1.52232e-11
6.58824e-10
1.73161e-10
4.34125e-11
-1.74751e-11
-7.87426e-11
-4.9062e-11
-3.23948e-11
-4.43555e-11
-6.17859e-11
-7.1372e-11
-5.30291e-11
-3.58027e-11
-2.36307e-11
-1.2591e-11
-2.3208e-11
-3.36851e-11
-3.16143e-11
-2.32074e-11
-1.57248e-11
5.13452e-10
9.65568e-11
5.6487e-11
1.30703e-11
-5.55102e-11
-3.93582e-11
-3.57439e-11
-6.0936e-11
-8.69215e-11
-8.26478e-11
-5.90414e-11
-2.49109e-11
-7.98841e-12
7.86722e-12
1.44152e-12
-2.08118e-11
-2.47441e-11
-2.03828e-11
-1.30099e-11
3.37125e-10
2.64523e-11
6.5916e-11
4.5792e-11
-5.76131e-12
2.33523e-12
-1.35667e-12
-2.36386e-11
-3.60656e-11
-2.66637e-11
-1.64216e-11
1.3604e-12
6.93274e-12
5.50213e-12
1.17428e-12
-2.37885e-11
-3.1841e-11
-2.24219e-11
-1.86667e-11
1.79445e-10
-1.64893e-11
5.54661e-11
6.71228e-11
4.74619e-11
3.05175e-11
1.4029e-11
-2.83987e-12
-9.08448e-12
-8.38215e-12
-7.71518e-12
-2.70597e-12
7.13225e-13
7.88649e-13
-5.51724e-12
-1.23176e-11
-1.97011e-11
-2.31701e-11
-2.69465e-11
7.73315e-11
-4.61657e-11
4.1635e-12
6.73936e-12
5.24662e-12
-1.49606e-12
-7.08291e-12
-9.89645e-12
-1.07664e-11
-1.16402e-11
-8.04092e-12
-7.33232e-14
8.89372e-12
1.26426e-11
7.18238e-12
-7.04511e-13
-2.8249e-12
1.03338e-13
9.28496e-12
1.83675e-11
-7.75549e-11
-5.87738e-11
-6.90406e-11
-6.16246e-11
-4.08742e-11
-1.4394e-11
4.14719e-12
6.29166e-12
8.59108e-13
-1.35785e-12
4.47997e-12
9.45646e-12
1.25521e-11
1.34989e-11
1.23345e-11
1.31055e-11
1.64097e-11
2.16331e-11
-5.42114e-12
-9.11983e-11
-8.14573e-11
-8.66678e-11
-7.49836e-11
-4.36595e-11
-7.61681e-13
2.83733e-11
2.53628e-11
1.80049e-11
1.23222e-11
3.75846e-12
-3.52231e-12
2.56241e-12
1.28992e-11
2.10037e-11
2.24313e-11
2.57081e-11
3.26188e-11
1.04607e-12
-5.85146e-11
-6.60224e-11
-7.75294e-11
-5.81575e-11
-1.55607e-11
2.48008e-11
3.74995e-11
2.869e-11
1.25994e-11
-7.75856e-13
-1.40352e-11
-2.16382e-11
-2.19605e-11
-1.99506e-11
-1.75925e-11
-1.21738e-11
3.8957e-12
6.07608e-11
-1.15554e-11
-4.5405e-11
-8.72624e-11
-1.06984e-10
-5.64584e-11
5.81694e-13
2.88263e-11
3.7152e-11
2.66891e-11
6.61392e-12
-7.60488e-12
-1.3667e-11
-1.62164e-11
-2.09704e-11
-2.37351e-11
-2.51125e-11
-2.51352e-11
-2.60537e-11
-2.39242e-11
-3.5323e-11
-1.18659e-10
-1.53527e-10
-1.36631e-10
-4.72506e-11
3.59021e-12
1.62512e-11
2.17058e-11
2.13318e-11
9.75764e-12
-8.38912e-12
-1.73428e-11
-1.81256e-11
-1.4796e-11
-2.21695e-11
-2.08605e-11
-1.76267e-11
-1.78012e-11
-2.13418e-11
7.8945e-11
-1.56376e-10
-1.88727e-10
-1.16924e-10
-2.41684e-11
-1.71068e-12
3.86843e-12
5.63259e-12
3.01993e-12
3.47111e-12
-9.91593e-12
-3.09618e-11
-2.64524e-11
-5.89389e-12
-1.98476e-12
-6.28861e-12
-8.5365e-12
-7.31898e-12
2.98994e-12
2.78333e-10
3.75038e-11
-1.13621e-10
-6.8559e-11
-1.28574e-11
-1.22333e-11
-4.35437e-12
1.29585e-12
-4.37873e-12
-9.51322e-12
-1.73999e-11
-3.66506e-11
-3.08791e-11
-8.84958e-12
5.95778e-12
1.41647e-11
1.38698e-11
5.88924e-12
1.1812e-11
3.53248e-10
1.73141e-10
1.83959e-11
-1.47059e-11
-8.29891e-12
-2.0213e-11
-1.66759e-11
-5.12101e-12
-2.43969e-12
-1.30504e-11
-2.66746e-11
-3.64299e-11
-2.50528e-11
-7.99464e-12
-1.72866e-13
6.94108e-12
4.90137e-12
3.28712e-12
4.53177e-12
3.72957e-10
1.9829e-10
5.7414e-11
4.08793e-12
-2.93978e-12
-1.0856e-11
-2.21724e-11
-2.15146e-11
-1.32345e-11
-1.38107e-11
-2.83358e-11
-3.56836e-11
-1.86113e-11
-5.0289e-12
9.19209e-13
3.05292e-12
4.39895e-12
3.50745e-12
2.69276e-12
3.79153e-10
2.07401e-10
7.14096e-11
6.90674e-12
2.14147e-12
2.00142e-12
-8.61075e-12
-1.66038e-11
-1.53652e-11
-1.28816e-11
-1.9895e-11
-2.6404e-11
-1.18267e-11
-3.51883e-12
9.50621e-13
3.66383e-12
4.28911e-12
3.18018e-12
2.54364e-12
3.85289e-10
2.24011e-10
8.79744e-11
1.70615e-11
6.46013e-12
5.60077e-12
1.36684e-13
-5.5884e-12
-7.42544e-12
-7.41251e-12
-1.04921e-11
-1.24333e-11
-5.70289e-12
-2.53402e-12
1.04092e-12
3.43344e-12
4.02607e-12
3.00404e-12
2.62564e-12
3.9396e-10
2.37989e-10
9.96672e-11
2.48452e-11
8.63918e-12
7.74061e-12
7.32188e-12
4.49564e-12
1.36047e-12
-1.89056e-12
-3.28796e-12
-2.4235e-12
-3.58037e-12
-2.57568e-12
1.14667e-12
3.5552e-12
4.00473e-12
2.89007e-12
2.67398e-12
4.85737e-13
1.57421e-12
1.9119e-13
1.68015e-13
5.66957e-15
-6.26814e-14
-1.01753e-13
3.05128e-14
-1.75385e-13
-9.61252e-14
-2.25821e-13
-1.09285e-13
3.39921e-13
4.90235e-13
5.2158e-12
1.47574e-12
1.59046e-12
5.79175e-12
9.03804e-13
1.10565e-12
1.12031e-13
3.63453e-13
3.85605e-13
4.38683e-13
4.44487e-13
5.2763e-13
7.68211e-12
5.99887e-13
6.10939e-13
6.25911e-13
6.53268e-13
6.87111e-13
7.22258e-13
7.63261e-13
8.07064e-13
8.60107e-13
8.95078e-13
1.0046e-12
1.05578e-12
8.57284e-13
1.79174e-11
2.32717e-12
2.32793e-12
2.27661e-12
9.43847e-12
8.37801e-12
8.28661e-12
-5.06283e-12
-1.59037e-10
-3.76489e-12
-9.17719e-12
-3.24586e-11
-1.29523e-11
-2.06206e-11
-1.59667e-11
-1.99757e-11
-2.08598e-12
-2.3119e-12
-2.28791e-12
-1.74271e-11
-8.37427e-13
-1.02524e-12
-9.54094e-13
-8.24307e-13
-7.63799e-13
-6.94427e-13
-6.35205e-13
-5.81548e-13
-5.26236e-13
-4.72609e-13
-4.23324e-13
-3.863e-13
-3.51817e-13
9.45355e-13
-1.89836e-13
-6.99375e-14
-3.78443e-14
4.32953e-14
1.07667e-13
3.94151e-13
1.91763e-12
2.07159e-12
1.07403e-11
1.78554e-12
1.93936e-12
1.01269e-11
1.4827e-12
1.64676e-12
9.22418e-12
1.27537e-12
1.36477e-12
5.91428e-12
5.86639e-13
8.31342e-13
9.37236e-13
5.19758e-12
6.04776e-13
5.59784e-13
2.5947e-12
1.03009e-13
-8.25667e-10
-2.6371e-10
-2.2271e-11
7.19114e-11
1.01355e-10
1.03593e-10
8.7999e-11
8.30452e-11
7.28293e-11
6.08817e-11
4.98665e-11
4.74747e-11
4.99457e-11
4.87165e-11
4.57595e-11
3.99369e-11
3.28847e-11
2.22217e-11
1.34578e-11
-8.1754e-10
-2.88764e-10
-3.10182e-11
6.88525e-11
1.0429e-10
9.02988e-11
6.76429e-11
6.47163e-11
5.69419e-11
5.06007e-11
4.57387e-11
4.52888e-11
4.66211e-11
4.34423e-11
4.51858e-11
4.11703e-11
3.47284e-11
2.36252e-11
1.41107e-11
-7.59263e-10
-2.35099e-10
-2.98599e-11
4.79176e-11
9.67661e-11
6.59639e-11
3.85765e-11
3.55598e-11
3.65926e-11
4.0239e-11
3.77012e-11
3.32286e-11
3.69485e-11
3.53845e-11
4.37759e-11
4.07265e-11
3.33102e-11
2.3994e-11
1.52232e-11
-6.58824e-10
-1.73161e-10
-4.34125e-11
1.74751e-11
7.87426e-11
4.9062e-11
3.23948e-11
4.43555e-11
6.17859e-11
7.1372e-11
5.30291e-11
3.58027e-11
2.36307e-11
1.2591e-11
2.3208e-11
3.36851e-11
3.16143e-11
2.32074e-11
1.57248e-11
-5.13452e-10
-9.65568e-11
-5.6487e-11
-1.30703e-11
5.55102e-11
3.93582e-11
3.57439e-11
6.0936e-11
8.69215e-11
8.26478e-11
5.90414e-11
2.49109e-11
7.98841e-12
-7.86722e-12
-1.44152e-12
2.08118e-11
2.47441e-11
2.03828e-11
1.30099e-11
-3.37125e-10
-2.64523e-11
-6.5916e-11
-4.5792e-11
5.76131e-12
-2.33523e-12
1.35667e-12