/*--------------------------------*- C++ -*----------------------------------*\
| =========                 |                                                 |
| \\      /  F ield         | OpenFOAM: The Open Source CFD Toolbox           |
|  \\    /   O peration     | Version:  4.1                                   |
|   \\  /    A nd           | Web:      www.OpenFOAM.org                      |
|    \\/     M anipulation  |                                                 |
\*---------------------------------------------------------------------------*/
FoamFile
{
    version     2.0;
    format      ascii;
    class       volVectorField;
    location    "10";
    object      U;
}
// * * * * * * * * * * * * * * * * * * * * * * * * * * * * * * * * * * * * * //

dimensions      [0 1 -1 0 0 0 0];

internalField   nonuniform List<vector> 
1280
(
(-3.51029e-16 0.324863 -0.282903)
(-2.67552e-16 0.5659 -0.727707)
(-1.38168e-16 0.578001 -0.649048)
(-1.2142e-16 0.681022 -0.626031)
(-9.63598e-19 0.974793 -1.04695)
(4.52982e-17 0.909066 -0.792823)
(7.35342e-17 1.12163 -0.78449)
(-2.9788e-17 1.13738 -0.718161)
(5.68149e-17 1.52191 -1.18676)
(7.5558e-17 1.44985 -0.934336)
(1.75268e-16 1.62815 -0.836121)
(-6.52258e-17 2.04642 -1.48831)
(-2.55232e-16 1.95321 -1.20433)
(-3.73346e-16 2.20469 -1.08793)
(-1.0352e-15 2.71449 -1.87979)
(-1.06648e-15 2.55002 -1.56518)
(-1.14938e-15 2.94159 -1.36499)
(-9.84363e-16 3.29426 -2.84917)
(-6.53155e-16 3.7737 -1.82696)
(-7.99023e-16 3.41949 -3.53196)
(-4.59616e-16 3.84675 -0.241516)
(-1.49109e-15 4.06427 5.54257)
(-1.58197e-15 3.86122 8.23562)
(-1.79973e-15 4.12057 9.71126)
(-1.82353e-15 4.24757 10.4284)
(-2.16463e-15 4.58749 11.0691)
(-1.61942e-15 3.97627 8.59181)
(-2.46107e-15 8.16305 14.0852)
(-2.50641e-15 8.28842 14.2622)
(-2.56784e-15 8.3137 14.3157)
(-2.68008e-15 8.3422 14.2801)
(-2.81892e-15 8.30949 14.2118)
(-2.96311e-15 8.30291 14.0911)
(-3.13133e-15 8.21765 13.959)
(-3.31103e-15 8.20588 13.7643)
(-3.52864e-15 8.05992 13.5827)
(-3.67212e-15 8.07115 13.3438)
(-4.12144e-15 7.8602 13.1632)
(-4.3314e-15 7.85595 13.0095)
(-3.51706e-15 7.70272 13.6547)
(-3.11877e-15 8.68144 14.3478)
(-1.86922e-15 5.53696 9.73843)
(-1.86982e-15 4.34759 9.63538)
(-1.81944e-15 3.33488 9.98244)
(-1.47379e-15 0.879837 8.22462)
(-6.72933e-15 -0.624936 -5.09031)
(-6.65591e-15 0.245468 -4.87778)
(4.06653e-15 0.607722 -5.30552)
(2.83387e-14 2.25465 -5.16689)
(3.02401e-15 -0.777076 -0.392215)
(7.21862e-15 0.724768 -0.38918)
(5.64989e-15 -2.34935 -5.27402)
(1.04035e-14 -0.614263 -5.44111)
(1.65627e-14 -0.255552 -4.9572)
(1.28246e-14 0.634187 -5.11898)
(3.47705e-15 -0.899975 8.13465)
(1.68474e-15 -3.3165 9.90779)
(1.85695e-15 -4.32714 9.55083)
(1.83768e-15 -5.50063 9.66163)
(2.9251e-15 -8.64603 14.2879)
(3.4356e-15 -7.70512 13.5904)
(4.20611e-15 -7.86054 12.9463)
(3.91423e-15 -7.86446 13.0876)
(3.38177e-15 -8.07562 13.2774)
(3.13353e-15 -8.06647 13.5293)
(2.84893e-15 -8.21191 13.7229)
(2.60597e-15 -8.22482 13.928)
(2.38584e-15 -8.31035 14.071)
(2.15892e-15 -8.31798 14.2041)
(1.93891e-15 -8.35331 14.2857)
(1.73672e-15 -8.32669 14.3374)
(1.58482e-15 -8.30177 14.3036)
(1.44335e-15 -8.18871 14.1504)
(-1.99284e-16 -4.04389 8.67093)
(7.78816e-16 -4.62252 11.0936)
(2.86923e-16 -4.25077 10.4978)
(1.55259e-16 -4.16807 9.88003)
(-1.77622e-16 -3.84643 8.07714)
(-4.4171e-16 -4.11707 5.53089)
(-1.61703e-15 -3.86472 -0.337993)
(-1.38582e-15 -3.50418 -3.438)
(-1.51993e-15 -3.78584 -1.79129)
(-1.82541e-15 -3.40914 -2.78)
(-1.29036e-15 -3.01978 -1.3427)
(-1.40153e-15 -2.63523 -1.52427)
(-1.8677e-15 -2.85602 -1.81284)
(-1.09009e-15 -2.32639 -1.05298)
(-1.19007e-15 -2.07758 -1.15907)
(-1.60849e-15 -2.23766 -1.42838)
(-9.21676e-16 -1.79205 -0.81595)
(-9.86287e-16 -1.61215 -0.902711)
(-1.12049e-15 -1.75159 -1.13909)
(-4.31165e-16 -1.32601 -0.692721)
(-6.00789e-16 -1.33134 -0.748867)
(-6.77316e-16 -1.10001 -0.752399)
(-8.83379e-16 -1.25426 -0.989063)
(-4.37056e-16 -0.904384 -0.599556)
(-4.05677e-16 -0.804716 -0.599683)
(-4.30715e-16 -0.874269 -0.658275)
(-7.44416e-17 -0.575787 -0.287096)
(9.17408e-14 -0.351898 3.67953)
(2.93011e-14 1.17668 2.7507)
(2.47456e-15 0.0863079 2.2223)
(-7.99015e-15 -1.59205 1.85616)
(-1.12617e-14 -0.529095 1.93311)
(-1.15103e-14 0.659255 2.05553)
(-9.77767e-15 0.135813 2.03983)
(-9.22724e-15 -0.423444 1.89228)
(-8.09215e-15 -0.855002 1.66819)
(-6.76463e-15 -1.14982 1.32001)
(-5.54073e-15 -1.20891 0.968254)
(-5.27497e-15 -1.05085 0.603326)
(-5.54952e-15 -0.648196 0.229701)
(-5.41294e-15 -0.453381 -0.156422)
(-5.08439e-15 -0.749924 -0.482539)
(-4.43743e-15 -0.864913 -0.541204)
(-3.65386e-15 -0.760639 -0.675399)
(-2.46908e-15 -1.23043 -0.788744)
(-1.49531e-15 -1.36947 -0.883856)
(9.08377e-14 -0.0470269 3.96409)
(3.20849e-14 1.63065 3.06551)
(3.44646e-15 0.48051 2.77296)
(-7.65028e-15 -1.52097 2.16861)
(-1.15877e-14 -0.523597 2.22804)
(-1.00332e-14 0.595813 2.48871)
(-7.51588e-15 0.217059 2.41236)
(-7.1907e-15 -0.287776 2.0929)
(-6.32688e-15 -0.669807 1.76363)
(-5.62229e-15 -0.925989 1.3173)
(-5.08208e-15 -0.977991 0.94661)
(-5.03209e-15 -0.81167 0.576831)
(-5.18012e-15 -0.400876 0.206543)
(-4.82692e-15 -0.219142 -0.308902)
(-5.02065e-15 -0.644944 -0.649226)
(-4.57448e-15 -0.829836 -0.555948)
(-3.85871e-15 -0.697597 -0.646054)
(-2.62502e-15 -1.21511 -0.778755)
(-1.56785e-15 -1.42255 -0.893383)
(8.43626e-14 0.0988089 4.25509)
(2.61222e-14 1.71228 3.46202)
(3.31777e-15 0.502356 3.58049)
(-5.32418e-15 -1.39645 2.97116)
(-1.07518e-14 -0.592518 2.83282)
(-7.32933e-15 0.53702 3.21012)
(-4.28627e-15 0.301836 3.09988)
(-3.95108e-15 -0.136806 2.66611)
(-4.06585e-15 -0.500099 2.18032)
(-4.471e-15 -0.782534 1.61846)
(-4.18902e-15 -0.885895 1.09503)
(-3.69207e-15 -0.72159 0.629945)
(-4.10539e-15 -0.243439 0.149012)
(-3.93162e-15 -0.106011 -0.621989)
(-4.86399e-15 -0.622321 -0.909963)
(-4.52517e-15 -0.831287 -0.662335)
(-3.70114e-15 -0.615568 -0.704424)
(-2.666e-15 -1.08253 -0.793677)
(-1.69147e-15 -1.2505 -0.971324)
(7.32027e-14 0.318152 4.74513)
(1.92401e-14 1.84099 4.18289)
(4.82362e-15 0.605766 4.58111)
(-1.94167e-15 -1.23331 3.96403)
(-8.74918e-15 -0.588311 3.64664)
(-5.45133e-15 0.473015 3.87712)
(-3.59942e-15 0.409596 3.66699)
(-4.92839e-15 0.0650028 3.18332)
(-6.8651e-15 -0.260234 2.52437)
(-7.93023e-15 -0.50675 1.78987)
(-5.89212e-15 -0.596433 1.04341)
(-3.97808e-15 -0.434069 0.500037)
(-2.62564e-15 0.131278 -0.123509)
(-1.399e-15 0.162024 -1.31974)
(-2.57866e-15 -0.692897 -1.30016)
(-3.74279e-15 -0.932317 -0.750583)
(-3.5127e-15 -0.6524 -0.638432)
(-2.5786e-15 -1.22545 -0.682856)
(-1.7472e-15 -1.31146 -1.16069)
(5.70502e-14 0.425789 5.43298)
(1.07285e-14 1.77158 5.27486)
(6.27634e-15 0.586548 5.82593)
(1.45226e-15 -1.02188 4.97453)
(-6.1678e-15 -0.503455 4.29721)
(-4.37314e-15 0.513567 4.06602)
(-3.97155e-15 0.599941 3.6766)
(-6.77067e-15 0.345009 2.9948)
(-9.65795e-15 0.047375 2.03076)
(-9.18309e-15 -0.219202 1.05567)
(-6.56015e-15 -0.421901 0.254613)
(-2.76788e-15 -0.25551 0.00155334)
(-8.87601e-16 0.538346 -0.302979)
(8.74136e-16 0.321493 -1.17258)
(1.60169e-16 -0.742232 -1.30267)
(-2.31242e-15 -1.08527 -0.644245)
(-2.74935e-15 -0.578074 -0.652574)
(-2.26476e-15 -0.77199 -0.747399)
(-1.44555e-15 -0.770503 -1.40483)
(3.74583e-14 0.471875 6.38851)
(2.93915e-15 1.64936 6.79749)
(7.324e-15 0.684912 7.35216)
(5.088e-15 -0.631262 5.92268)
(-6.40145e-16 -0.192817 4.64992)
(2.5947e-16 0.696448 4.30072)
(-1.50742e-16 0.844642 4.0718)
(-2.62651e-15 0.731566 3.37139)
(-4.00729e-15 0.556093 2.27722)
(-2.96264e-15 0.246922 1.19469)
(-1.82463e-15 -0.1544 0.788212)
(1.51155e-16 -0.229401 1.26893)
(7.70304e-16 0.641638 1.46365)
(6.11347e-16 0.517122 0.881212)
(1.30476e-16 -0.905344 -0.183261)
(-2.64317e-15 -1.12342 0.224661)
(-3.53789e-15 -0.633977 -0.0322393)
(-2.49133e-15 -1.32108 -0.130247)
(-2.07408e-15 -1.02814 -2.35098)
(1.99384e-14 0.355601 7.49633)
(-1.83214e-15 1.37176 8.60994)
(6.1629e-15 0.903849 9.3524)
(7.45808e-15 0.0763879 7.80454)
(5.27354e-15 0.175246 6.00367)
(3.39084e-15 0.703814 5.51705)
(1.55878e-15 0.96521 5.28758)
(-3.15541e-16 1.04821 4.79452)
(-1.00939e-15 0.941599 4.16842)
(-9.3135e-16 0.333645 3.74039)
(-8.57242e-16 -0.537823 4.11919)
(-3.00664e-16 -0.437083 4.59005)
(7.92472e-17 0.88581 4.43362)
(8.76277e-17 0.793855 4.15438)
(-6.13026e-16 -0.795563 2.16639)
(-1.36863e-15 -1.14221 0.867975)
(-2.18901e-15 -0.195435 -0.1359)
(-2.57446e-15 0.787695 -1.1962)
(-2.99405e-15 0.893626 -2.47719)
(8.59239e-15 0.0881072 8.50571)
(-5.12952e-15 0.89282 10.2377)
(4.62611e-16 0.928576 11.3498)
(7.48817e-16 0.712604 10.5694)
(5.82957e-16 0.776413 8.78324)
(-1.66229e-16 0.994959 7.46231)
(-7.8699e-16 1.12995 6.86177)
(-1.09961e-15 1.16248 6.73461)
(-1.19626e-15 0.986975 6.92215)
(-1.29336e-15 0.293247 7.17489)
(-8.93435e-16 -0.545647 7.31344)
(-8.14702e-18 -0.38381 7.49654)
(9.88191e-16 0.850752 8.30274)
(1.40473e-15 1.40018 8.53046)
(7.98043e-16 0.67399 6.52594)
(-7.8279e-17 -0.0426075 3.82215)
(-3.13878e-16 -0.0297011 3.6202)
(1.14821e-17 -1.314 5.65085)
(1.03166e-15 -5.66289 9.55508)
(2.04083e-15 -0.308535 8.96383)
(-8.61721e-15 0.259718 10.7611)
(-6.53042e-15 0.762103 11.5983)
(-7.67118e-15 1.13892 10.9033)
(-6.84718e-15 1.42421 9.35873)
(-4.54158e-15 1.44219 8.04909)
(-1.59933e-15 1.24379 7.55516)
(4.60799e-16 1.01862 7.90264)
(6.99074e-16 0.757946 8.95362)
(9.54565e-17 0.10377 10.2638)
(-1.50872e-16 -0.761119 11.3326)
(4.97774e-16 -0.671876 12.0181)
(1.05072e-15 0.592181 12.5191)
(1.39467e-15 1.34035 12.7285)
(1.49988e-15 0.785004 12.9721)
(1.3705e-15 -0.0754758 12.8415)
(1.45616e-15 -0.590404 12.7306)
(1.82329e-15 -1.49799 12.8445)
(2.40367e-15 -3.23928 12.5203)
(-6.02349e-16 -0.615907 8.42767)
(-1.01331e-14 -0.13448 9.45626)
(-9.05081e-15 0.848555 9.452)
(-9.62975e-15 1.61811 8.33189)
(-8.33151e-15 1.92723 7.17632)
(-4.85106e-15 1.70955 6.71305)
(-1.27987e-16 1.19221 7.08565)
(3.15259e-15 0.606268 8.02676)
(2.81808e-15 0.0710215 9.64449)
(2.00054e-15 -0.613981 11.5256)
(1.36914e-15 -1.27876 12.9271)
(4.64784e-16 -0.886996 13.1609)
(-3.91367e-16 0.510934 12.6661)
(2.84713e-16 1.21777 12.7742)
(1.4348e-15 0.725168 13.3267)
(2.33375e-15 0.0645952 13.4093)
(2.49236e-15 -0.430443 12.6114)
(2.85646e-15 -1.30488 10.4376)
(3.62431e-15 -2.89714 6.52271)
(1.1623e-16 -0.694417 6.99569)
(-6.50163e-15 -0.169234 7.00259)
(-7.33582e-15 1.17019 6.53975)
(-8.61438e-15 2.04491 5.4994)
(-6.46194e-15 2.08047 4.93941)
(-1.72897e-15 1.46684 5.37675)
(2.86553e-15 0.713177 6.81028)
(4.16661e-15 -0.0120667 8.28781)
(3.18777e-15 -0.639876 9.92549)
(1.39994e-15 -1.21384 11.8623)
(-8.62062e-17 -1.4825 13.4023)
(-1.55946e-15 -0.522465 13.4701)
(-2.40425e-15 0.87287 12.6551)
(-2.44005e-15 1.15621 12.7791)
(-2.21674e-15 0.541212 13.5191)
(-1.95472e-15 0.304502 13.5397)
(-1.35265e-15 0.61464 12.8227)
(4.32855e-16 1.55571 10.7185)
(6.7512e-15 3.05931 6.68727)
(-1.28393e-15 -0.556461 5.69633)
(-5.045e-15 -0.0141027 4.8597)
(-9.69582e-15 1.42366 4.68842)
(-1.18871e-14 2.27787 4.11583)
(-6.27316e-15 2.00338 4.15393)
(6.46326e-17 0.963238 4.88998)
(3.20292e-15 0.0444562 6.50683)
(4.128e-15 -0.630216 8.00689)
(2.96545e-15 -1.33858 9.32397)
(7.3488e-16 -1.92868 10.8723)
(-8.44986e-16 -1.89242 11.9764)
(-1.51855e-15 -0.543793 11.016)
(-1.80182e-15 0.703078 9.18372)
(-2.33005e-15 0.705494 9.59587)
(-2.63723e-15 0.41863 11.4792)
(-2.79028e-15 0.378711 12.0459)
(-2.7928e-15 0.672952 12.3432)
(-2.89485e-15 1.73088 12.605)
(-2.65825e-15 3.40854 12.5429)
(-3.92478e-15 -0.248079 4.8474)
(-1.31843e-14 0.185712 3.23515)
(-1.70586e-14 1.47256 3.53741)
(-1.51812e-14 2.27364 3.48463)
(-5.25007e-15 1.78006 4.21233)
(3.98913e-16 0.520875 4.95225)
(1.80569e-15 -0.510898 5.89199)
(2.41176e-15 -1.13145 6.98549)
(2.3702e-15 -1.79627 8.0459)
(1.08418e-15 -2.25172 9.02466)
(-9.32124e-16 -1.66876 9.60157)
(-1.92697e-15 0.455254 8.08588)
(-2.01395e-15 1.55787 5.49709)
(-1.644e-15 0.567447 3.17379)
(-2.46328e-15 -0.400948 1.88821)
(-2.31784e-15 -0.103865 2.53749)
(-1.95853e-15 0.0380757 3.05109)
(-1.97791e-15 1.33639 4.97175)
(-2.37132e-15 5.69371 9.39371)
(8.77167e-15 0.253082 4.49352)
(-1.73751e-14 0.395038 2.05639)
(-2.09696e-14 1.32285 2.51944)
(-1.29916e-14 2.01178 3.02724)
(-2.68538e-15 1.41497 4.35405)
(-1.90076e-16 0.263474 5.01886)
(4.29826e-16 -0.776981 5.1794)
(6.25844e-16 -1.48949 5.49815)
(3.35548e-16 -2.14875 6.04678)
(3.85679e-16 -2.48232 6.62351)
(-1.10177e-15 -1.56295 7.35479)
(-3.4402e-15 1.11503 6.70537)
(-2.93916e-15 2.61295 4.73577)
(-6.54877e-16 1.86759 3.07341)
(-2.20529e-16 0.553038 1.10214)
(-6.98734e-16 0.0500065 -0.577094)
(-9.48501e-16 -0.12057 -1.39319)
(-8.1322e-16 -0.694892 -1.86026)
(3.32216e-16 -1.01625 -2.62062)
(3.09259e-14 0.899583 4.61166)
(4.16708e-15 0.868186 2.24848)
(-1.26246e-14 1.11053 1.98594)
(-7.61767e-15 1.53951 2.84363)
(-1.4286e-15 0.995089 4.28575)
(-1.35926e-15 0.175039 4.81012)
(-4.83818e-16 -0.724761 4.67227)
(1.43983e-16 -1.50567 4.33816)
(-4.86525e-16 -2.25905 4.09193)
(-1.05702e-15 -2.72783 3.99446)
(-1.93333e-15 -1.73638 4.87361)
(-4.07228e-15 1.45216 4.64951)
(-3.43101e-15 3.17686 2.70759)
(-9.83286e-16 2.24956 2.07727)
(6.61975e-16 1.02622 0.814761)
(1.57385e-15 0.724158 0.0685268)
(1.54109e-15 0.400045 -0.823957)
(6.5436e-16 1.13384 -0.460441)
(1.31245e-15 0.817261 -2.56832)
(3.92498e-14 1.3324 4.46163)
(1.92379e-14 1.37107 3.01932)
(2.04399e-15 1.11104 2.4934)
(-1.63398e-15 1.11378 3.07407)
(-9.22101e-16 0.648344 4.01663)
(-2.24589e-15 0.120202 4.26019)
(-1.85288e-15 -0.571057 4.21554)
(-5.69001e-16 -1.25779 3.73361)
(-2.71077e-16 -2.02965 2.97058)
(-1.45005e-15 -2.74622 2.05437)
(-2.96384e-15 -1.87785 2.29803)
(-4.04777e-15 1.86482 2.37701)
(-2.78364e-15 3.66593 0.997246)
(-8.88293e-16 2.61986 1.11493)
(-1.92074e-17 1.35097 -0.00450003)
(7.71231e-16 0.826967 -0.438077)
(5.44596e-16 0.264463 -0.993556)
(3.65236e-16 0.528108 -0.963067)
(5.0353e-16 0.498543 -1.5657)
(4.14397e-14 1.55856 4.18328)
(2.20323e-14 1.60671 3.42099)
(6.37933e-15 1.09518 3.13963)
(4.54215e-16 0.925208 3.36924)
(-3.26642e-16 0.525519 3.63676)
(-1.20622e-15 0.0857582 3.56307)
(-2.4636e-15 -0.512355 3.56595)
(-2.39051e-15 -1.00618 3.29331)
(-1.4705e-15 -1.62176 2.53449)
(-1.53452e-15 -2.4038 1.17901)
(-3.14842e-15 -1.9189 0.182104)
(-3.96485e-15 1.8969 -0.00136704)
(-2.06792e-15 3.75208 -0.11578)
(-5.58767e-16 2.73401 0.249213)
(1.02134e-16 1.60477 -0.456512)
(3.39213e-16 1.02723 -0.723954)
(4.88772e-16 0.52891 -0.97577)
(3.89716e-16 1.0164 -0.931549)
(2.99196e-16 1.04042 -1.32212)
(4.21281e-14 1.69437 4.03511)
(2.30446e-14 1.75401 3.59835)
(7.9344e-15 1.14109 3.40062)
(7.67415e-16 0.917337 3.35404)
(2.37941e-16 0.578322 3.29059)
(2.2238e-16 0.163976 3.02487)
(-9.5675e-16 -0.4385 2.82437)
(-1.84487e-15 -0.817863 2.65233)
(-1.70724e-15 -1.18299 2.19242)
(-1.43129e-15 -1.73222 1.00561)
(-2.21056e-15 -1.43313 -0.651521)
(-2.93378e-15 1.85756 -1.42687)
(-1.31408e-15 3.56721 -0.663409)
(-3.90981e-16 2.80062 -0.407751)
(1.05625e-16 1.72362 -0.750707)
(4.07092e-16 1.06883 -0.893556)
(4.76568e-16 0.446795 -1.06203)
(3.53354e-16 0.792483 -0.994938)
(2.82627e-16 0.90119 -1.08578)
(4.28099e-14 1.76742 3.9774)
(2.48901e-14 1.82976 3.70611)
(9.77493e-15 1.186 3.50004)
(1.89572e-15 0.951734 3.28191)
(7.17793e-16 0.639307 3.08787)
(6.22307e-16 0.245989 2.78376)
(1.51871e-17 -0.396828 2.40712)
(-6.20934e-16 -0.771157 2.12859)
(-8.25049e-16 -0.994857 1.84788)
(-8.23613e-16 -1.25809 1.11371)
(-1.16579e-15 -0.994972 -0.345065)
(-1.38148e-15 1.83174 -1.32212)
(-6.33655e-16 3.39457 -0.858128)
(-2.81558e-16 2.81069 -0.760929)
(1.15657e-16 1.76736 -0.899548)
(3.81493e-16 1.10455 -0.917143)
(4.47341e-16 0.519154 -0.966522)
(3.33783e-16 0.902 -0.929974)
(2.91738e-16 1.06882 -0.987854)
(4.37733e-14 1.83465 3.93521)
(2.64432e-14 1.95386 3.74776)
(1.10741e-14 1.34364 3.51874)
(2.76058e-15 1.11156 3.2404)
(9.59909e-16 0.807229 3.01079)
(8.60067e-16 0.48121 2.73849)
(8.13542e-16 -0.147338 2.31213)
(4.99516e-16 -0.549381 1.89137)
(1.51163e-16 -0.732464 1.55523)
(-2.10062e-16 -0.779633 1.06786)
(-3.65329e-16 -0.306238 0.148046)
(-2.69278e-16 2.13376 -0.743264)
(-3.97819e-16 3.38879 -0.935159)
(-2.86186e-16 2.83603 -0.929909)
(1.27408e-16 1.7756 -0.945333)
(3.95022e-16 1.10452 -0.903974)
(4.4497e-16 0.499677 -0.936759)
(3.21118e-16 0.861174 -0.911765)
(2.97109e-16 0.994315 -0.953349)
(-5.26621e-17 7.92429 13.358)
(-3.41655e-15 16.0892 27.906)
(-2.72488e-15 17.2382 27.8193)
(-2.96161e-15 15.8315 25.7072)
(-2.93405e-15 15.0584 23.4366)
(-3.87332e-15 13.9196 21.3787)
(-3.56949e-15 13.0389 19.4232)
(-3.36433e-15 12.2311 18.1007)
(-3.39064e-15 11.5738 16.8007)
(-3.53784e-15 10.7916 15.5865)
(-3.86522e-15 10.0903 14.3675)
(-4.26866e-15 9.2959 13.2363)
(-4.69357e-15 8.59575 12.0879)
(-5.2632e-15 7.73961 11.037)
(-5.9553e-15 7.07153 9.91608)
(-6.75716e-15 6.08841 8.9678)
(-7.635e-15 5.58536 7.89975)
(-9.46145e-15 4.37706 7.15507)
(-8.97893e-15 5.0557 7.42897)
(-5.10789e-15 5.49803 10.3957)
(1.4244e-17 7.23186 11.8138)
(-2.9761e-15 15.2264 26.8403)
(-2.22871e-15 16.0946 27.0958)
(-2.61083e-15 14.08 24.3016)
(-2.68877e-15 13.1456 22.174)
(-4.17349e-15 11.8781 20.3464)
(-2.87893e-15 11.1656 18.7094)
(-2.96308e-15 10.2818 17.3911)
(-3.18072e-15 9.63431 16.0468)
(-3.38432e-15 8.83457 14.8586)
(-3.79339e-15 8.23324 13.6269)
(-4.10386e-15 7.45899 12.494)
(-4.58694e-15 6.87948 11.243)
(-5.31649e-15 6.02989 10.1349)
(-6.08086e-15 5.52889 8.85301)
(-6.84354e-15 4.56799 7.85996)
(-7.8616e-15 4.32889 6.67159)
(-9.77202e-15 3.30041 6.04608)
(-8.33352e-15 4.58862 6.89764)
(-5.09851e-15 5.05431 9.4255)
(3.95263e-17 7.38943 12.4983)
(-9.38556e-16 16.0396 27.8885)
(-7.98139e-16 17.2278 29.1015)
(-9.43883e-16 15.0019 25.5442)
(-1.01723e-15 13.7295 23.0176)
(-2.50229e-15 12.9145 21.6895)
(-1.33004e-15 12.0747 19.8032)
(-1.32995e-15 11.1 18.0949)
(-1.49981e-15 10.3227 16.5721)
(-1.62512e-15 9.54785 15.3188)
(-1.71246e-15 8.91892 14.1085)
(-1.90496e-15 8.15342 12.9389)
(-2.18875e-15 7.50038 11.6478)
(-2.51079e-15 6.63715 10.4798)
(-2.84603e-15 6.06821 9.21194)
(-3.308e-15 5.16204 8.22248)
(-3.71476e-15 4.85412 7.11887)
(-4.89498e-15 3.90345 6.39053)
(-4.53729e-15 4.57521 6.56593)
(-3.26114e-15 4.3117 7.71438)
(1.31428e-17 8.05517 13.3277)
(2.52529e-16 17.0521 28.6634)
(1.88785e-16 17.9959 29.795)
(1.96541e-16 15.4096 25.5522)
(2.65796e-16 13.8962 22.81)
(-1.24703e-15 13.7112 22.3758)
(-1.23022e-15 12.9708 20.702)
(-1.32921e-15 11.8231 18.5036)
(-1.51433e-15 10.8386 16.5863)
(-1.658e-15 10 15.115)
(-1.74842e-15 9.2803 13.7833)
(-1.89283e-15 8.44151 12.4646)
(-2.31723e-15 7.62604 11.016)
(-2.57328e-15 6.65677 9.66193)
(-3.03578e-15 5.90947 8.30478)
(-3.54063e-15 4.97936 7.2484)
(-3.88777e-15 4.51152 6.21615)
(-4.77294e-15 3.6076 5.4279)
(-4.9377e-15 3.76976 5.23708)
(-4.00901e-15 2.84058 4.64857)
(6.07016e-21 10.6778 18.0888)
(-5.28039e-17 19.0006 31.1465)
(-4.74358e-17 18.4272 30.3969)
(-4.676e-17 15.4738 25.2509)
(-7.04209e-17 14.5694 23.8071)
(2.48076e-16 14.9233 23.926)
(2.90426e-16 14.2408 22.4372)
(3.05097e-16 12.907 19.9305)
(3.34225e-16 11.7151 17.5678)
(3.66599e-16 10.664 15.6747)
(3.84461e-16 9.71271 13.9512)
(4.21128e-16 8.67372 12.2917)
(4.82135e-16 7.64237 10.5745)
(5.5693e-16 6.53359 8.95095)
(6.44672e-16 5.594 7.41738)
(7.39356e-16 4.62988 6.20283)
(8.15101e-16 4.03186 5.21292)
(1.17942e-15 3.21617 4.38713)
(1.22161e-15 2.76954 3.59136)
(1.10877e-15 1.23 1.48308)
(-3.83713e-19 13.1647 23.1709)
(1.10668e-17 20.0883 32.8681)
(1.15014e-17 17.6159 30.0825)
(1.11046e-17 14.7495 24.2845)
(1.70772e-17 15.0704 25.4423)
(-4.7085e-17 15.4805 25.5276)
(-6.64558e-17 14.1785 23.1573)
(-6.83519e-17 12.6764 20.82)
(-7.22895e-17 11.3867 18.2697)
(-7.7794e-17 9.8545 15.91)
(-8.33532e-17 8.50094 13.6085)
(-9.23574e-17 7.10372 11.5723)
(-1.04239e-16 5.87604 9.6186)
(-1.20036e-16 4.64776 7.85107)
(-1.38463e-16 3.61798 6.20615)
(-1.59423e-16 2.64242 4.865)
(-1.81845e-16 2.00474 3.80232)
(-2.50854e-16 1.24715 2.82599)
(-2.90666e-16 0.618114 1.49374)
(-3.28045e-16 -1.04789 -1.42754)
(1.16538e-19 14.0968 25.6251)
(-2.56543e-18 19.6166 32.5289)
(-2.71355e-18 16.2657 29.3315)
(-2.62319e-18 13.9784 23.4586)
(-3.92565e-18 14.7613 26.2243)
(1.08627e-17 14.6521 25.7017)
(1.5594e-17 12.4553 21.8702)
(1.55808e-17 11.0341 20.3112)
(1.64366e-17 9.45331 17.2869)
(1.79275e-17 7.22545 14.3524)
(2.00031e-17 5.65147 11.7481)
(2.24222e-17 4.11145 9.79919)
(2.54275e-17 2.92325 8.02802)
(2.92216e-17 1.74752 6.52025)
(3.3712e-17 0.806686 5.17252)
(3.97554e-17 0.0238343 4.15149)
(4.75507e-17 -0.349588 3.4803)
(5.1813e-17 -0.227721 3.40315)
(3.2477e-17 1.16098 4.24181)
(-1.06702e-17 2.21153 4.86723)
(-1.88307e-20 13.644 24.9725)
(6.15543e-19 18.949 31.6709)
(6.24883e-19 15.7854 29.0354)
(6.71127e-19 13.6217 22.7854)
(6.783e-19 13.8907 25.0117)
(-2.63526e-18 13.6769 24.7089)
(-3.6921e-18 11.0682 19.7146)
(-3.65943e-18 9.59245 18.4761)
(-3.92285e-18 7.77923 14.9236)
(-4.38602e-18 5.51703 11.8962)
(-5.00328e-18 4.14995 9.40425)
(-5.80423e-18 2.74413 7.50583)
(-7.01245e-18 1.64545 5.79102)
(-8.73978e-18 0.583605 4.41238)
(-1.06518e-17 -0.159994 3.46032)
(-1.12168e-17 -0.322487 3.48616)
(-8.6128e-18 0.87721 5.48573)
(-3.78178e-18 3.906 10.222)
(1.99409e-19 7.94524 15.2995)
(2.52415e-18 6.91736 12.9076)
(2.96317e-21 13.4009 24.3846)
(-1.4485e-19 18.9474 31.3416)
(-1.41681e-19 15.7547 29.1261)
(-1.57336e-19 13.7542 22.4431)
(-1.34452e-19 13.586 23.8985)
(6.20902e-19 13.7453 24.754)
(8.68379e-19 10.9572 18.3495)
(8.6232e-19 9.3369 17.3229)
(9.17051e-19 8.21899 14.3029)
(1.03771e-18 6.47964 11.9051)
(1.24837e-18 5.45752 9.42923)
(1.55268e-18 4.13345 7.17183)
(1.90696e-18 3.08866 5.02968)
(2.07636e-18 2.10449 3.2998)
(1.38679e-18 1.62266 2.36434)
(-9.2128e-19 1.98499 3.14287)
(-3.98905e-18 4.02861 6.46127)
(-4.89694e-18 7.1159 12.3619)
(-1.82568e-18 10.5412 17.4074)
(-1.37535e-19 8.31037 15.292)
(-5.16701e-22 13.7689 24.7094)
(3.36261e-20 18.831 30.9699)
(3.23161e-20 15.4604 28.8255)
(3.61017e-20 14.1102 22.8671)
(3.22406e-20 13.4864 23.3875)
(-1.40352e-19 13.5834 24.594)
(-2.00322e-19 11.0569 18.3187)
(-2.03791e-19 9.53066 17.3104)
(-2.13264e-19 8.95684 15.287)
(-2.41075e-19 7.75188 13.4819)
(-2.76199e-19 6.86761 11.4684)
(-2.78358e-19 5.77272 9.28101)
(-2.11477e-19 4.74339 7.06901)
(-2.11361e-19 3.75048 5.01742)
(-6.10788e-19 3.15343 3.4823)
(-1.56842e-18 3.02928 3.24344)
(-2.61719e-18 4.33667 5.03242)
(-2.18556e-18 6.46888 9.47475)
(5.75966e-19 8.81362 13.3703)
(5.0671e-19 7.01539 12.4305)
(1.08277e-22 14.4268 25.5345)
(-7.6682e-21 18.5206 30.4347)
(-7.54487e-21 15.1923 28.1327)
(-7.66857e-21 14.4952 23.6413)
(-6.31317e-21 13.4667 23.2096)
(3.58206e-20 13.2829 23.4957)
(4.52474e-20 10.9896 18.6119)
(4.86651e-20 9.92469 17.1292)
(5.08599e-20 9.10895 15.7582)
(5.47223e-20 8.33159 13.986)
(5.15903e-20 7.32623 12.3645)
(4.67739e-20 6.48736 10.484)
(1.0117e-19 5.51661 8.61575)
(3.10372e-19 4.61683 6.71643)
(5.35617e-19 4.02332 5.18887)
(3.92309e-19 3.95456 4.84451)
(-8.84689e-20 4.97366 6.0063)
(-1.11624e-19 6.21226 8.56977)
(4.3685e-19 6.84994 9.81843)
(-3.70745e-20 4.58052 7.74299)
(-2.94488e-23 15.1676 27.1068)
(1.73668e-21 18.2146 29.9345)
(1.78227e-21 15.2476 27.184)
(2.12679e-21 14.6988 24.6532)
(2.57809e-21 13.6451 23.7106)
(-5.8477e-21 13.3625 22.2411)
(-1.09802e-20 11.0881 19.5376)
(-1.24337e-20 10.6733 17.4924)
(-1.26073e-20 9.63444 16.3611)
(-1.28073e-20 9.17013 14.7144)
(-1.50545e-20 8.23893 13.2271)
(-2.70638e-20 7.56438 11.5212)
(-5.45117e-20 6.74063 9.90036)
(-6.09174e-20 6.06793 8.33427)
(3.66856e-20 5.56591 7.10008)
(2.26888e-19 5.38558 6.49423)
(4.42463e-19 5.37227 6.2971)
(6.59298e-19 5.01473 6.09128)
(6.23161e-19 3.99376 5.09144)
(-1.1048e-20 1.68915 2.38698)
(8.4304e-24 15.6443 28.8254)
(-3.94692e-22 18.2469 29.2462)
(-4.16468e-22 14.9772 27.5908)
(-4.96589e-22 15.534 25.2088)
(-6.56205e-22 13.535 23.9305)
(1.08754e-21 13.1602 21.8224)
(2.65648e-21 11.754 20.3163)
(3.1792e-21 11.4227 18.7322)
(3.23298e-21 10.6325 17.7038)
(3.30245e-21 10.1688 16.3442)
(4.01533e-21 9.36644 14.9329)
(6.34972e-21 8.65432 13.3227)
(8.02822e-21 7.8159 11.6639)
(3.10566e-21 7.00883 9.97277)
(-1.14861e-20 6.17517 8.37834)
(-4.18114e-20 5.32412 6.85188)
(-9.23462e-20 4.18692 5.17682)
(-1.98151e-19 2.76083 3.06642)
(-3.19642e-19 0.903086 1.09536)
(-1.0251e-18 -0.984882 -2.27209)
(-1.91225e-24 15.7741 29.6308)
(9.30603e-23 18.0765 28.7072)
(9.98538e-23 14.6937 27.6853)
(1.16335e-22 15.5502 24.9575)
(1.47627e-22 13.1553 24.0796)
(-2.44421e-22 13.4625 22.3311)
(-6.3622e-22 11.8788 21.1925)
(-7.43865e-22 11.6128 19.4641)
(-6.8388e-22 10.3101 18.0679)
(-1.00389e-21 9.78033 16.6356)
(-1.90913e-21 8.84247 15.3487)
(-1.96162e-21 8.07781 13.843)
(1.94215e-21 7.08842 12.1983)
(1.12257e-20 6.03863 10.2342)
(1.75672e-20 4.71887 7.99811)
(1.36908e-20 3.3534 5.66015)
(-1.33864e-20 1.59986 3.00507)
(-2.50494e-19 -0.644423 -0.535393)
(-8.77695e-19 -2.02389 -2.49185)
(-5.01891e-19 0.130132 0.626878)
(4.52801e-25 15.7499 29.9392)
(-2.17651e-23 18.3379 28.7957)
(-2.41876e-23 14.7305 27.8211)
(-3.06515e-23 15.7349 24.999)
(-4.411e-23 13.2547 24.1188)
(5.08316e-23 13.3325 21.8505)
(1.75255e-22 11.7425 20.6065)
(2.51283e-22 11.2311 18.9104)
(2.38247e-22 10.1886 17.5385)
(1.63858e-22 9.44559 16.0725)
(1.66949e-22 8.60029 14.7061)
(3.21094e-22 7.8181 13.3636)
(6.67918e-22 6.98705 11.9483)
(3.35885e-21 5.9978 10.2217)
(1.30196e-20 4.58859 7.82447)
(1.84763e-20 3.027 4.98637)
(-5.6728e-21 1.16544 1.80932)
(-1.36745e-19 0.0125644 -0.478059)
(-4.99354e-19 -0.247488 -1.08675)
(-4.13757e-19 1.43161 2.00177)
(-7.53862e-26 15.9049 30.8372)
(5.15476e-24 18.7702 29.0349)
(5.13832e-24 14.9015 28.2742)
(3.65055e-24 16.0762 25.4664)
(5.82387e-24 13.7019 24.5718)
(1.68319e-24 13.7701 22.517)
(1.31459e-23 12.4618 21.2393)
(1.60961e-23 11.928 19.6215)
(-7.19838e-23 11.0854 18.2291)
(-2.93577e-22 10.4057 16.8002)
(-5.10251e-22 9.6988 15.4123)
(-3.49577e-22 8.98934 13.9901)
(6.66092e-22 8.21599 12.4765)
(2.66579e-21 7.31088 10.7672)
(4.96894e-21 6.18062 8.75388)
(8.34809e-21 4.78251 6.36775)
(8.75492e-21 3.2933 4.04126)
(1.86368e-20 2.02907 1.89616)
(-3.86669e-21 0.551983 -0.0285036)
(-1.26568e-19 -0.351174 -2.44269)
(5.98494e-26 15.7022 31.4579)
(-1.2146e-24 18.6558 28.5884)
(-2.33931e-24 14.5576 28.3565)
(-4.01854e-24 15.8433 25.6506)
(1.19874e-24 13.4942 24.7884)
(3.14688e-23 13.486 22.8728)
(6.89187e-23 12.2473 21.6606)
(2.9264e-23 11.7343 20.1713)
(-2.00295e-22 10.9485 18.8948)
(-5.76718e-22 10.3507 17.5878)
(-6.25628e-22 9.71977 16.3173)
(6.2874e-22 9.07775 14.9522)
(4.21845e-21 8.2847 13.3369)
(1.04359e-20 7.15638 11.1796)
(1.82667e-20 5.41966 8.14102)
(2.52097e-20 3.13379 4.35067)
(2.78209e-20 1.05997 1.4425)
(2.65751e-20 -0.539791 -1.32646)
(7.15385e-20 -2.34195 -2.82825)
(-6.80906e-20 -2.18984 -6.08079)
(2.24753e-26 14.4476 30.8407)
(2.04246e-25 18.1056 27.8605)
(-6.2533e-25 13.549 27.784)
(-4.61382e-25 14.4334 25.457)
(9.31043e-24 12.3737 24.5332)
(3.50889e-23 11.9099 22.9674)
(4.71534e-23 10.8101 21.7811)
(-5.20797e-23 10.0888 20.499)
(-3.52707e-22 9.29621 19.3302)
(-6.88205e-22 8.61461 18.1732)
(-3.59326e-22 7.93077 17.0152)
(1.78451e-21 7.20296 15.7074)
(6.66584e-21 6.26131 13.9869)
(1.41174e-20 4.83133 11.3511)
(2.25784e-20 2.57557 7.1921)
(2.89948e-20 -0.209792 1.87749)
(2.92278e-20 -2.05865 -2.02601)
(2.33667e-20 -2.51888 -3.27334)
(1.18621e-20 -3.30477 -4.42424)
(-4.00064e-20 -2.3444 -4.53201)
(3.96644e-27 11.2996 28.4697)
(-1.3098e-25 16.9004 24.9662)
(-4.91079e-25 11.9565 25.3842)
(-4.94902e-26 12.5666 23.6931)
(6.19611e-24 10.8114 22.97)
(2.2108e-23 10.1173 21.902)
(2.98425e-23 9.09162 21.0098)
(-2.87181e-23 8.28088 20.0827)
(-2.19525e-22 7.47063 19.1987)
(-4.95827e-22 6.73727 18.3224)
(-5.64997e-22 6.03572 17.4414)
(6.22686e-23 5.34655 16.4891)
(1.73836e-21 4.62253 15.3641)
(4.29308e-21 3.83973 13.9549)
(6.98253e-21 3.03795 12.182)
(8.7777e-21 2.32116 10.0257)
(8.63996e-21 1.73565 7.58337)
(5.80617e-21 1.11958 4.83576)
(-1.18391e-22 0.054286 1.39751)
(-7.58062e-21 -0.877529 -1.36638)
(1.14046e-26 2.63579 17.0136)
(3.69735e-26 8.06308 13.6409)
(-8.16213e-26 5.17612 14.5118)
(-3.89397e-25 5.00615 14.1095)
(3.10437e-25 4.08185 14.0698)
(5.55243e-24 3.52192 13.8929)
(1.73783e-23 2.94769 13.7333)
(2.22672e-23 2.47863 13.5411)
(-2.87775e-23 2.07152 13.3329)
(-2.22516e-22 1.74175 13.1106)
(-6.37019e-22 1.49034 12.887)
(-1.25044e-21 1.32592 12.6738)
(-1.88133e-21 1.25145 12.472)
(-2.26108e-21 1.27164 12.2548)
(-2.22243e-21 1.3898 11.9671)
(-1.81937e-21 1.56053 11.5752)
(-1.23741e-21 1.80018 11.0238)
(-6.33303e-22 2.39521 10.041)
(-1.33243e-22 2.5665 8.59896)
(8.62761e-23 -0.22106 6.47058)
(-8.83193e-27 -2.6433 17.0232)
(-1.94317e-26 -8.06201 13.6562)
(8.90342e-26 -5.17419 14.5323)
(1.92147e-25 -4.99886 14.1354)
(-1.10858e-24 -4.06909 14.1011)
(-6.64492e-24 -3.50277 13.9302)
(-1.4793e-23 -2.92116 13.7771)
(-4.63956e-24 -2.44377 13.5919)
(7.50623e-23 -2.02731 13.3919)
(2.77017e-22 -1.68781 13.1803)
(5.57254e-22 -1.42742 12.9732)
(6.63697e-22 -1.25634 12.7854)
(1.95562e-22 -1.17902 12.6204)
(-1.01568e-21 -1.20252 12.4491)
(-2.44348e-21 -1.33247 12.2112)
(-3.00178e-21 -1.52463 11.8628)
(-2.09151e-21 -1.80619 11.3281)
(-5.31027e-22 -2.47242 10.3128)
(2.43939e-22 -2.69809 8.80918)
(7.36532e-23 0.155498 6.64513)
(-9.31552e-28 -11.3477 28.5514)
(1.69857e-25 -16.9315 25.0834)
(4.86021e-25 -11.9942 25.4937)
(-6.69416e-25 -12.5846 23.8178)
(-8.23093e-24 -10.8275 23.1035)
(-2.20292e-23 -10.1235 22.0489)
(-1.595e-23 -9.09312 21.1688)
(6.34674e-23 -8.27566 20.2576)
(2.25969e-22 -7.46177 19.3918)
(3.2156e-22 -6.72531 18.539)
(1.12996e-22 -6.02119 17.6828)
(-1.97513e-22 -5.32281 16.7463)
(6.716e-22 -4.57051 15.6013)
(4.54659e-21 -3.71386 14.094)
(1.11608e-20 -2.74871 12.0959)
(1.52446e-20 -1.75508 9.53403)
(8.83386e-21 -0.829382 6.48592)
(-6.56767e-21 0.070598 3.21577)
(-1.40677e-20 1.07824 -0.0767964)
(-7.92146e-22 1.20766 -1.8352)
(-1.88656e-26 -14.542 31.0362)
(-1.04616e-25 -18.1877 27.9852)
(6.97224e-25 -13.6353 27.9522)
(-3.14374e-25 -14.5352 25.6255)
(-1.1889e-23 -12.4711 24.709)
(-3.55301e-23 -12.0311 23.1444)
(-3.03454e-23 -10.9349 21.9722)
(9.19027e-23 -10.2461 20.6998)
(3.38507e-22 -9.47679 19.5532)
(3.97899e-22 -8.83746 18.4169)
(-3.24429e-22 -8.19641 17.2848)
(-1.75625e-21 -7.51723 15.9941)
(-1.3301e-21 -6.63093 14.2992)
(5.88487e-21 -5.31013 11.7774)
(1.70317e-20 -3.20104 7.84392)