/*--------------------------------*- C++ -*----------------------------------*\
| =========                 |                                                 |
| \\      /  F ield         | OpenFOAM: The Open Source CFD Toolbox           |
|  \\    /   O peration     | Version:  4.1                                   |
|   \\  /    A nd           | Web:      www.OpenFOAM.org                      |
|    \\/     M anipulation  |                                                 |
\*---------------------------------------------------------------------------*/
FoamFile
{
    version     2.0;
    format      ascii;
    class       volScalarField;
    location    "29";
    object      p;
}
// * * * * * * * * * * * * * * * * * * * * * * * * * * * * * * * * * * * * * //

dimensions      [0 2 -2 0 0 0 0];

internalField   nonuniform List<scalar> 
1280
(
0.229371
0.222351
0.438976
0.480675
2.14574
2.25912
2.24663
2.2603
2.10447
2.67791
1.05939
0.293214
-0.568422
-4.38894
-4.62593
-6.32614
-12.7463
-12.0736
-10.9901
-24.6331
-14.8385
0.214314
18.9822
31.463
37.6253
44.0554
26.6339
29.5234
32.6381
30.5702
28.3815
26.3344
23.4175
20.0509
16.4896
12.8837
9.73227
7.95681
8.91743
6.70936
11.0467
21.772
24.5663
28.5889
41.5367
40.676
41.0751
41.446
42.2223
42.2061
42.1736
42.4265
39.3741
36.8882
36.3643
41.1027
20.6933
14.6959
9.62683
-1.31906
1.6583
4.41923
2.46715
4.51086
7.65093
11.3462
15.0119
18.531
21.6364
23.961
26.461
28.6882
26.2584
34.4404
49.0789
42.2428
35.8232
23.0942
3.87659
-11.4455
-21.0141
-6.6248
0.326434
2.50796
6.76676
11.2902
11.9885
13.1342
14.702
14.7378
14.775
14.7024
13.8712
12.702
11.9745
10.7423
8.03334
5.37563
2.27048
2.22383
-0.0436926
0.235477
0.66551
1.77962
3.11925
10.6685
3.11289
3.84278
2.4583
1.14581
-1.06772
-5.84952
-3.34334
-15.4781
-8.77458
-3.55181
1.4326
3.42289
3.14733
-0.0595343
0.637256
1.73142
4.09472
6.65353
21.4498
8.86812
6.06004
2.71755
1.38046
-1.16895
-5.50402
-4.11358
-22.318
-8.05301
0.381822
6.17116
9.57218
8.3971
0.0487692
0.957419
2.22607
5.07799
7.45145
23.677
13.4939
9.74511
4.90695
1.78571
-2.296
-6.23745
-8.66236
-27.4755
-8.5725
2.77289
10.1398
14.9825
13.0258
0.114621
1.19668
2.6002
5.80094
8.23683
23.9298
16.1054
10.8399
4.95756
1.23853
-3.26956
-6.50685
-19.761
-32.0651
-11.5792
4.5016
13.9379
20.4067
17.0745
0.147755
1.37469
2.88381
6.26476
8.80463
22.9355
16.8144
11.1994
4.89822
0.691795
-4.28817
-8.09658
-29.2821
-31.6478
-14.2575
6.69265
17.6551
26.0077
20.8217
0.171109
1.48818
3.01164
6.33273
8.72684
20.4708
15.6983
10.5949
4.44432
0.572444
-4.27725
-8.50205
-31.2374
-27.6967
-15.2209
8.59858
21.016
32.4413
22.1886
0.179486
1.53641
3.00643
6.09844
8.18651
17.3184
13.4247
9.79415
4.14097
0.914258
-3.44468
-7.53536
-27.4
-23.4809
-15.6423
9.8603
23.1778
37.3032
21.2842
0.17348
1.52966
2.90255
5.66982
7.40064
14.3257
10.8383
8.72404
3.68688
1.18371
-2.35059
-5.4607
-20.5766
-19.3022
-14.2766
10.7114
24.3226
38.2066
25.8078
0.15739
1.4787
2.72238
5.11817
6.46888
11.7159
8.50883
7.23853
2.79174
0.939452
-1.46202
-2.75195
-13.0279
-16.0692
-12.2706
10.3825
24.2776
35.3063
58.0353
0.13392
1.39299
2.48666
4.4991
5.46181
9.32537
6.26886
5.10438
1.39603
0.131326
-0.757018
0.604207
-4.05118
-10.9138
-8.82921
9.54037
20.2902
31.568
54.1865
0.105631
1.28219
2.21607
3.85646
4.45557
7.09865
4.05219
2.54606
-0.169067
-1.04807
-0.14098
4.31697
5.85426
-1.19361
-2.02598
6.94114
11.3013
22.9385
50.2924
0.0751067
1.15483
1.92838
3.22426
3.51706
5.11308
2.09136
0.0405768
-1.67684
-2.3901
0.387819
8.00754
15.4787
9.45152
5.51721
6.13012
7.64123
25.6332
54.0515
0.0447234
1.01868
1.63972
2.63088
2.68937
3.43512
0.561305
-2.04321
-3.35159
-3.84535
0.699083
11.296
25.3289
19.9934
12.5546
4.80807
-5.45769
-5.55638
6.06372
0.0165229
0.878623
1.35982
2.09138
1.98392
2.09385
-0.561119
-3.56972
-5.51744
-5.38798
0.65373
13.3148
32.8108
27.4032
17.7771
2.01023
-20.4522
-25.2009
-11.3132
-0.0081647
0.739822
1.10024
1.6227
1.4117
1.10498
-1.35277
-4.50605
-7.99527
-6.8584
0.252258
13.4825
34.3352
30.4839
19.2919
-0.000822002
-22.5199
-23.5415
-8.62996
-0.0264382
0.602525
0.857192
1.21122
0.944339
0.433866
-1.83276
-4.80069
-10.0268
-7.88753
-0.315776
12.1672
30.1079
31.9245
18.7108
-3.02494
-25.3287
-25.1157
-10.2356
-0.0414194
0.468932
0.647345
0.889374
0.631668
0.0827822
-1.98725
-4.48724
-10.8224
-8.00907
-0.735184
10.2114
24.9618
31.4308
16.0525
-3.73627
-22.6995
-23.2537
-6.81655
-0.0398777
0.338117
0.436373
0.567222
0.323294
-0.128155
-1.78993
-3.55888
-9.78356
-7.60316
-1.11068
8.20518
20.6366
27.7126
9.88981
-2.01209
-14.8578
-14.4908
-4.12959
-0.0525216
0.195849
0.282142
0.409623
0.320509
0.0307861
-1.22092
-2.39232
-7.12924
-7.26902
-1.6465
6.37624
16.4405
20.6445
4.22193
1.04754
-5.43063
-5.81998
-2.00265
0.0046694
0.087605
0.0538677
-0.00360284
-0.170273
-0.26581
-0.5465
-0.673597
-2.42488
-3.43979
-0.654689
3.10372
7.54924
8.09614
0.241869
-0.0892472
-0.900072
-0.963079
-0.664474
66.8032
64.1401
62.2353
59.8916
56.9315
54.0075
50.612
47.6034
44.923
42.7362
40.9195
39.426
38.1834
37.1418
36.2536
35.4521
34.6491
33.8621
32.4097
31.6879
71.7322
68.1487
64.6035
61.1893
57.197
52.987
49.0269
45.4048
42.2263
39.4689
37.2152
35.4404
34.1647
33.3741
33.0163
32.9608
33.0531
33.4615
33.9057
32.4727
111.879
111.25
110.294
110.266
110.152
109.72
108.935
107.601
105.737
103.15
99.794
95.5991
90.6279
85.2121
80.0558
75.9052
73.1765
71.8337
72.1179
70.0234
81.9884
84.0834
85.0099
86.3285
87.5024
88.6996
90.0766
91.3574
92.6419
93.7051
94.423
94.6075
94.1157
92.841
91.0033
89.0042
87.7575
87.2906
87.7648
87.5314
69.0858
71.3025
72.5628
73.7621
75.066
75.95
77.0727
77.9466
78.8709
79.7425
80.6407
81.5949
82.6498
83.8215
85.1184
86.4996
87.8659
89.2074
90.1461
91.2628
45.808
48.2343
50.0107
51.3171
53.1386
54.3018
55.8869
57.1525
58.5043
59.7719
61.0081
62.2211
63.4169
64.6376
65.8915
67.2662
68.6523
70.2567
71.4724
73.1875
26.6428
28.7459
30.6028
31.5945
33.6905
34.8005
36.6649
38.0905
39.7442
41.3039
42.8727
44.4201
45.927
47.417
48.852
50.3169
51.6781
53.2139
54.3391
56.0861
-1.42911
-0.68243
1.10432
1.22138
3.29357
3.82056
5.67279
6.84542
8.58972
10.2336
12.1009
14.0747
16.1687
18.3702
20.5925
22.907
25.1353
27.6381
29.6844
32.9018
-19.8198
-22.8221
-22.4012
-24.8054
-24.8204
-26.995
-27.5791
-29.3434
-30.3094
-31.6463
-32.4268
-32.8318
-32.5314
-31.5836
-29.9992
-27.8125
-25.4217
-22.7533
-20.7347
-16.7751
6.02548
0.722937
-0.17789
-4.31551
-6.093
-9.97817
-12.5527
-16.4163
-19.7469
-23.7674
-27.4806
-31.196
-34.4842
-37.3748
-39.5467
-41.1576
-42.0779
-41.9976
-42.1885
-40.1701
56.703
52.6397
52.06
48.4762
47.4307
44.2088
42.5969
39.7436
37.7027
35.1674
33.0941
31.0156
29.2217
27.4904
25.9655
24.5266
23.055
21.9926
20.154
16.3705
83.286
83.1231
84.3784
83.4167
85.1835
84.3972
85.599
85.0895
85.3222
84.5816
83.7461
82.2422
80.3028
77.8476
75.0677
72.1482
69.5509
68.0727
67.5204
64.8622
60.0538
61.6669
64.0783
63.9548
66.9689
67.2444
69.6872
70.8038
72.7826
74.3921
76.1074
77.5361
78.6274
79.1689
79.0463
78.2323
77.2982
76.8155
77.3315
77.9684
38.7089
39.8624
43.2441
42.558
46.2235
46.2977
48.8959
50.019
51.872
53.4336
55.0641
56.6843
58.3093
59.9952
61.7544
63.6173
65.4783
67.4914
69.1156
71.1403
4.6885
4.16214
7.83615
6.16377
9.86282
9.19531
11.636
12.2988
13.9348
15.2168
16.6726
18.1287
19.6242
21.2123
22.9141
24.8984
27.0295
29.6573
32.0638
35.593
-4.81208
-8.65181
-6.70803
-10.9931
-9.4032
-12.3744
-12.2121
-13.7851
-14.3123
-15.1945
-15.7565
-16.2421
-16.4765
-16.34
-15.6997
-14.4926
-13.2807
-11.761
-10.6117
-7.59403
35.3413
29.3329
30.7885
23.0931
22.2725
16.5928
13.567
9.14402
5.47329
1.56689
-2.06605
-5.58652
-8.77074
-11.4392
-13.3471
-14.6102
-15.5144
-16.2581
-17.5572
-16.895
52.3854
44.8836
52.9226
45.6555
47.5704
43.997
42.6204
39.9136
37.5189
34.8232
32.1404
29.4441
26.8967
24.7038
23.0765
21.9156
21.0741
20.3757
19.0857
17.5986
64.4648
42.1799
50.4763
39.6092
37.1119
30.6799
25.9761
20.9294
16.5982
12.7478
9.63654
7.32853
5.97927
5.7727
6.90281
9.18675
12.3518
16.5699
20.4751
21.9535
746.606
664.213
615.359
559.416
510.691
463.678
419.969
378.676
339.796
303.036
268.222
235.158
203.64
173.606
145.127
117.441
90.6318
68.7356
44.1522
7.64911
748.862
666.468
617.614
561.671
512.946
465.933
422.224
380.932
342.052
305.292
270.478
237.414
205.896
175.861
147.382
119.695
92.8856
70.9879
46.403
9.90026
66.7148
44.4308
52.7273
41.8609
39.3638
32.9322
28.2287
23.1822
18.851
15.0006
11.8891
9.58088
8.23152
8.02492
9.15469
11.4378
14.602
18.82
22.7268
24.2064
54.6659
47.1646
55.2043
47.9379
49.8538
46.2812
44.9056
42.1996
39.8059
37.1109
34.4288
31.7334
29.1872
26.9959
25.37
24.2085
23.3665
22.6687
21.379
19.8881
37.6066
31.5959
33.0503
25.3531
24.5308
18.8493
15.8217
11.3971
7.7246
3.81652
0.182032
-3.33963
-6.52435
-9.19255
-11.1004
-12.3649
-13.2713
-14.0177
-15.3207
-14.6616
-2.58559
-6.42903
-4.48792
-8.77489
-7.18819
-10.1616
-10.0021
-11.5779
-12.1078
-12.9931
-13.5581
-14.0468
-14.2841
-14.1502
-13.5126
-12.3095
-11.103
-9.58665
-8.43996
-5.42442
6.86774
6.33729
10.0096
8.33478
12.0314
11.3609
13.7987
14.4579
16.0904
17.3685
18.8202
20.2722
21.7639
23.3489
25.0487
27.0326
29.164
31.7932
34.1994
37.7299
40.8836
42.0354
45.418
44.7307
48.3963
48.47
51.0675
52.1912
54.0443
55.6076
57.2408
58.8656
60.4968
62.1888
63.953
65.8187
67.6792
69.692
71.3166
73.3452
62.2832
63.901
66.3187
66.1984
69.2184
69.4989
71.9461
73.0672
75.0486
76.6602
78.375
79.8002
80.8829
81.4129
81.2784
80.4551
79.5241
79.0611
79.5911
80.2353
85.556
85.4074
86.6656
85.7099
87.4782
86.6951
87.8959
87.3863
87.6149
86.8696
86.0271
84.5176
82.5759
80.1264
77.3588
74.4551
71.8742
70.4035
69.8585
67.2172
59.2526
55.2038
54.6277
51.0544
50.0182
46.8081
45.2086
42.3695
40.3432
37.8236
35.7633
33.6939
31.9024
30.1681
28.6341
27.1805
25.6961
24.6369
22.8044
18.9986
8.4955
3.18069
2.27051
-1.87963
-3.66971
-7.56659
-10.1555
-14.0325
-17.3769
-21.4105
-25.1367
-28.8611
-32.152
-35.0394
-37.2057
-38.812
-39.7216
-39.6351
-39.8322
-37.8305
-17.5987
-20.6256
-20.2144
-22.6306
-22.6588
-24.8436
-25.4398
-27.2134
-28.1872
-29.5281
-30.3088
-30.7096
-30.403
-29.4514
-27.8675
-25.6885
-23.3109
-20.6555
-18.642
-14.6823
0.673534
1.40846
3.19433
3.30742
5.37715
5.90123
7.75129
8.92129
10.6634
12.3045
14.169
16.1396
18.2297
20.4264
22.6438
24.955
27.1816
29.6874
31.7378
34.9594
28.7967
30.9004
32.7606
33.7538
35.8523
36.9643
38.831
40.2586
41.9143
43.4756
45.0458
46.5943
48.102
49.5926
51.0283
52.4943
53.8567
55.3937
56.5198
58.27
47.9981
50.4245
52.2018
53.508
55.3292
56.492
58.0761
59.3405
60.6908
61.9565
63.1909
64.4021
65.5963
66.8153
68.0671
69.4389
70.8213
72.4215
73.6334
75.3467
71.2535
73.466
74.7254
75.9214
77.2237
78.106
79.2281
80.1028
81.0301
81.9072
82.8119
83.7736
84.836
86.0114
87.3096
88.6911
90.0557
91.3971
92.3347
93.4552
84.2145
86.3334
87.2745
88.6088
89.7974
91.0053
92.3902
93.6762
94.9615
96.0155
96.7198
96.891
96.3781
95.0899
93.2573
91.2663
90.03
89.5729
90.0435
89.8077
114.486
113.858
112.894
112.849
112.7
112.225
111.392
110.006
108.089
105.454
102.07
97.8713
92.921
87.5541
82.4576
78.36
75.6589
74.2859
74.5302
72.4382
74.1938
70.6952
67.1447
63.7163
59.7338
55.5478
51.6008
47.9685
44.7528
41.942
39.6256
37.776
36.412
35.518
35.0449
34.8687
34.8346
35.1375
35.5401
34.141
72.9229
70.2614
68.174
65.69
62.6552
59.6966
56.3383
53.0756
50.0418
47.579
45.5232
43.8252
42.4218
41.2644
40.3077
39.4585
38.5842
37.7171
36.2982
35.3772
)
;

boundaryField
{
    outletWall
    {
        type            fixedValue;
        value           uniform 0;
    }
    fineWalls
    {
        type            zeroGradient;
    }
    fineFrontAndBack
    {
        type            zeroGradient;
    }
    fineplugLeft
    {
        type            cyclicAMI;
        value           nonuniform List<scalar> 
20
(
26.6922
27.7113
28.681
29.6657
30.9384
32.3008
33.7236
35.2302
36.8077
38.4119
40.303
42.466
43.9874
47.8855
52.0171
53.0703
54.2059
53.5846
51.3549
50.4749
)
;
    }
    fineplugRight
    {
        type            cyclicAMI;
        value           nonuniform List<scalar> 
20
(
28.6334
29.9224
30.6671
31.7695
33.097
34.5154
36.0139
37.6437
39.3874
41.2107
43.3554
45.7711
47.7122
53.8484
57.5731
58.5727
59.7166
59.158
56.9844
56.0492
)
;
    }
    inletOutletLeft
    {
        type            cyclicAMI;
        value           nonuniform List<scalar> 
20
(
26.6922
27.7113
28.681
29.6657
30.9384
32.3008
33.7236
35.2302
36.8077
38.4119
40.303
42.466
43.9874
47.8855
52.0171
53.0703
54.2059
53.5846
51.3549
50.4749
)
;
    }
    inletLeft
    {
        type            zeroGradient;
    }
    inletWallsLeft
    {
        type            zeroGradient;
    }
    inletFacesLeft
    {
        type            zeroGradient;
    }
    inletOutletRight
    {
        type            cyclicAMI;
        value           nonuniform List<scalar> 
20
(
28.6334
29.9224
30.6671
31.7695
33.097
34.5154
36.0139
37.6437
39.3874
41.2107
43.3554
45.7711
47.7122
53.8484
57.5731
58.5727
59.7166
59.158
56.9844
56.0492
)
;
    }
    inletRight
    {
        type            zeroGradient;
    }
    inletWallsRight
    {
        type            zeroGradient;
    }
    inletFacesRight
    {
        type            zeroGradient;
    }
}


// ************************************************************************* //
