/*--------------------------------*- C++ -*----------------------------------*\
| =========                 |                                                 |
| \\      /  F ield         | OpenFOAM: The Open Source CFD Toolbox           |
|  \\    /   O peration     | Version:  4.1                                   |
|   \\  /    A nd           | Web:      www.OpenFOAM.org                      |
|    \\/     M anipulation  |                                                 |
\*---------------------------------------------------------------------------*/
FoamFile
{
    version     2.0;
    format      ascii;
    class       surfaceScalarField;
    location    "29";
    object      phi;
}
// * * * * * * * * * * * * * * * * * * * * * * * * * * * * * * * * * * * * * //

dimensions      [0 3 -1 0 0 0 0];

internalField   nonuniform List<scalar> 
2360
(
-5344.48
-2904.88
-2439.6
-2904.88
-2904.88
182.458
-3087.32
182.499
182.538
182.555
4391.26
-4208.7
4391.26
4391.25
8553.67
-4162.41
8553.67
8553.67
12076.5
-3522.81
12076.5
12076.5
15513.4
-3436.97
15513.4
15513.4
16206.8
17602.7
19281.8
21013.4
22690
24274.8
17831.6
7960.3
19222.6
20497.9
21656
22696.1
23616.3
24413.4
25083
25620.4
26027.9
26336.5
26611.4
26899.5
27053.1
13126.7
13926.4
13126.7
13126.7
13126.7
2398.15
10728.5
2398.15
2398.15
2398.15
-257.547
2655.7
-257.542
-257.539
-7314.41
7056.87
-7314.41
-7314.41
-7314.41
-18312.4
10998
-18312.4
-18312.4
-18312.4
-28816.9
10504.6
-28637.6
-28316.5
-28022.7
-27703.2
-27291
-26754.6
-26089.3
-25298.3
-24385.7
-23354
-22205.2
-20940.2
-19561.2
-24191.3
6135.47
-22610.2
-20937.7
-19208.3
-17528.8
-16134.2
-15452.4
-15452.4
-15452.4
-9465.85
-5986.56
-9465.85
-9465.85
-4359
-5106.85
-4359
-4359
-108.51
-4250.49
-108.51
-108.51
3686.49
-3795
3686.49
3686.49
3686.49
7285.99
-3599.5
7285.99
7285.99
11018.7
-3732.7
-1870.1
12503.4
-1880.31
15103.5
-1836.65
16628.3
-1786.31
17670.8
-1668.62
17716.6
-999.575
9741.18
-2248.37
-13468
-4979.64
-14313.7
-6746.3
-13262.5
-7308.32
-15948
-6606.26
-18796.9
-3319.77
-16124.8
680.652
1918.75
1991.62
18823.8
3079.05
24139.8
3932.99
24214.5
4220.21
19486.9
4308.65
11480.8
887.49
-1907.25
12565.2
-1943.08
15139.3
-1947.12
16632.3
-1995.37
17719.1
-2006.99
17728.2
-1486.58
9220.77
-3968.18
-10986.4
-7042.15
-11239.8
-8736.26
-11568.4
-9455.7
-15228.5
-8872.21
-19380.3
-5516.64
-19480.3
50.1878
-3648.08
1805.14
17068.8
2726.14
23218.8
3639.07
23301.6
4052.36
19073.6
4161.44
11371.7
1449.43
-1959.04
12641.6
-2024.02
15204.3
-2082.5
16690.8
-2245.58
17882.1
-2349.2
17831.8
-2450.77
9322.34
-5246.59
-8190.62
-7885.52
-8600.82
-9366.06
-10087.9
-10128
-14466.6
-9909.14
-19599.2
-7440.43
-21949
-1436.94
-9651.57
1450.95
14180.9
2137.57
22532.2
3108.67
22330.5
3708.08
18474.2
3954.54
11125.2
1608.97
-2022.81
12731
-2114.46
15296
-2226.9
16803.3
-2485.57
18140.8
-2759.98
18106.2
-3474.43
10036.8
-6339.93
-5325.11
-8534.62
-6406.13
-9687.28
-8935.22
-10320
-13833.8
-10358.3
-19560.9
-8684.07
-23623.3
-3069.88
-15265.8
521.052
10590
1317.59
21735.7
2317.49
21330.6
3114.7
17677
3822.43
10417.5
1180.91
-2095.97
12833
-2213.01
15413
-2374.77
16965
-2707.38
18473.4
-3171.78
18570.6
-4395.28
11260.3
-7042.89
-2677.5
-8534.52
-4914.51
-9173.77
-8295.98
-9556.38
-13451.2
-9813.15
-19304.1
-9186.93
-24249.5
-5238.03
-19214.7
-1057.64
6409.62
361.408
20316.6
1190.08
20501.9
2229.18
16637.9
3814.68
8831.98
-111.261
-2171.86
12945.3
-2310.15
15551.3
-2508.91
17163.8
-2884.11
18848.6
-3482.82
19169.3
-4979.06
12756.5
-7238.79
-417.777
-8075.15
-4078.14
-8299.55
-8071.58
-8477.33
-13273.5
-8841.97
-18939.5
-9096.54
-23994.9
-7221.74
-21089.5
-2977.24
2165.12
-940.011
18279.4
-227.577
19789.5
951.552
15458.8
3565.79
6217.74
-2532.03
-2244.1
13065.2
-2397.04
15704.2
-2615.44
17382.2
-2997.84
19231
-3649.53
19821
-5173.85
14280.9
-7112.17
1520.54
-7626.48
-3563.83
-7774.63
-7923.43
-7941.1
-13107
-8312.33
-18568.3
-9011.46
-23295.8
-8767.56
-21333.4
-5280.3
-1322.14
-2925.4
15924.5
-1957.8
18821.9
-336.811
13837.8
650.838
5230.09
4254.28
-2308.98
13189.9
-2469.33
15864.6
-2690.27
17603.1
-3048.97
19589.7
-3687.16
20459.2
-5146.41
15740.1
-7002.26
3376.38
-7621.16
-2944.93
-7966.89
-7577.7
-8220.24
-12853.6
-8540.47
-18248
-9349.83
-22486.4
-10037.8
-20645.4
-7725.36
-3634.61
-5173.31
13372.4
-3482.45
17131
-1863.41
12218.8
-4426.27
7792.95
10332.6
-2365.16
13316.7
-2526.28
16025.7
-2736.37
17813.2
-3048.21
19901.6
-3611.35
21022.3
-4980.41
17109.2
-6987.94
5383.91
-7981.34
-1951.52
-8518.39
-7040.65
-8792.25
-12579.8
-9052.88
-17987.4
-9914.06
-21625.3
-11111.4
-19448
-9594.76
-5151.24
-6796.6
10574.3
-5328.08
15662.5
-6616.74
13507.4
-10435.9
11612.1
10894.7
-2412.55
13443.4
-2569.11
16182.3
-2759.7
18003.8
-3010.81
20152.7
-3441.81
21453.3
-4642.01
18309.4
-6856.1
7598
-8307.95
-499.677
-8926.08
-6422.52
-9129.17
-12376.7
-9342.1
-17774.5
-10310.5
-20656.9
-12108.7
-17649.8
-11867.9
-5392.1
-9859.6
8566.01
-9544.36
15347.3
-11489.1
15452.2
-11740.3
11863.2
6211.29
-2451.64
13567.9
-2599.82
16330.4
-2766.37
18170.4
-2952.87
20339.2
-3221.21
21721.7
-4141.7
19229.9
-6395.92
9852.22
-8280.7
1385.1
-8967.3
-5735.92
-9094.81
-12249.2
-9269.92
-17599.4
-10289.1
-19637.7
-12607.4
-15331.5
-13918.5
-4080.99
-13195.4
7842.94
-12669.9
14821.7
-12107.7
14890
-8835.32
8590.8
31.6626
-2483.1
13689
-2620.53
16467.9
-2761.34
18311.2
-2887.12
20465
-2998.04
21832.6
-3573.83
19805.7
-5634.37
11912.8
-7847.44
3598.17
-8671.91
-4911.45
-8773.04
-12148
-8909.75
-17462.7
-9817.57
-18729.9
-12315.5
-12833.6
-14564.4
-1832.15
-14842.2
8120.77
-14739.7
14719.1
-14739.3
14889.7
-14056
7907.52
-3295.83
-2507.74
13805.4
-2633.27
16593.4
-2748.2
18426.1
-2820.58
20537.3
-2802.42
21814.4
-3042.66
20045.9
-4728.37
13598.5
-7103.84
5973.64
-8121.49
-3893.8
-8225.14
-12044.4
-8331.12
-17356.7
-8954.6
-18106.4
-11308.9
-10479.2
-14219.6
1078.53
-15230.9
9132.02
-15619.9
15108.2
-15928.5
15198.3
-15416.5
7395.55
-4785.95
-2526.21
13916.4
-2639.57
16706.8
-2729.37
18515.9
-2755.68
20563.6
-2642.16
21700.9
-2610.43
20014.2
-3816
14804
-6148.48
8306.12
-7378.01
-2664.27
-7472.11
-11950.3
-7572.66
-17256.1
-7789.42
-17889.6
-9196.51
-9072.14
-12050.4
3932.42
-13254.9
10336.5
-12808.9
14662.2
-10674.5
13063.9
-6848.86
3569.9
-3674.51
-2539.4
14021.6
-2641.04
16808.4
-2706.88
18581.7
-2692.87
20549.6
-2511.62
21519.7
-2291.68
19794.2
-3006.23
15518.6
-5089.81
10389.7
-6514.36
-1239.72
-6575.66
-11889
-6696.82
-17135
-6620.82
-17965.6
-6280.21
-9412.75
-8046.81
5699.02
-9442.58
11732.3
-8428.29
13647.9
-5159
9794.63
-456.65
-1132.46
-7568.13
-2547.24
14120.2
-2637.61
16898.8
-2680.93
18625.1
-2631.66
20500.4
-2403.71
21291.7
-2073.36
19463.9
-2361.54
15806.8
-4039.1
12067.3
-5574.2
295.385
-5631.07
-11832.1
-5780.72
-16985.3
-5683.51
-18062.8
-3739.72
-11356.5
-3161.72
5121.01
-4654.98
13225.5
-4036.66
13029.6
-699.123
6457.09
2492.4
-4323.98
-8598.54
-2551.14
14212.5
-2632
16979.6
-2655.08
18648.1
-2574.73
20420
-2311.77
21028.7
-1924.1
19076.2
-1893.08
15775.7
-3113.64
13287.8
-4593.1
1774.85
-4722.36
-11702.9
-4910.77
-16796.9
-4899.78
-18073.8
-2870.42
-13385.9
618.375
1632.21
758.355
13085.6
1234.1
12553.8
3480.61
4210.58
5014.82
-5858.2
-7746.13
-2547.42
14295.9
-2617.29
17049.5
-2621.21
18652.1
-2515.67
20314.5
-2233.07
20746.1
-1832.31
18675.5
-1605.75
15549.2
-2390.79
14072.9
-3638.56
3022.61
-3934.37
-11407
-4189.57
-16541.7
-4194.74
-18068.7
-2881.02
-14699.6
1570.31
-2819.12
4008.54
10647.3
5560.53
11001.8
6610.94
3160.17
5905.98
-5153.25
-6048.84
-2544.75
14374.6
-2611.37
17116.1
-2603.65
18644.3
-2479.53
20190.3
-2175.03
20441.6
-1759.86
18260.3
-1425.77
15215.1
-1860.34
14507.4
-2819.34
3981.6
-3349.22
-10877.2
-3632.31
-16258.6
-3615.82
-18085.2
-2734.76
-15580.7
967.056
-6520.94
4050.04
7564.35
6281.73
8770.15
6519.58
2922.33
4815.45
-3449.12
-4320.72
-2512.78
-2558.66
-2529.62
-2389.63
-2088.48
-1717.9
-1471.29
-1730.55
-2421.11
-2974.33
-3228.55
-3215.49
-2714.76
-471.457
2205.98
4189.41
4204.03
3192.83
409.974
-1103.32
902.338
-1888.29
1190.24
-1966.96
1298.66
-1840.07
1325.61
-1703.49
1321.7
-1580.9
1255.24
-1450.7
1176.61
-1312.29
1069.91
-1168.68
935.933
-1024.09
776.953
-881.18
596.292
-739.463
395.735
-596.58
177.152
-451.03
-45.5141
-314.768
-230.835
-222.132
-315.056
-224.38
-260.953
-329.017
-112.459
-436.611
-266.053
304.855
-1408.17
447.336
-2030.77
300.254
-1819.88
48.2746
-1588.09
-204.807
-1450.41
-439.178
-1346.53
-654.487
-1235.4
-861.538
-1105.24
-1066.33
-963.891
-1273.62
-816.804
-1482.68
-672.116
-1684.83
-537.313
-1861.36
-420.055
-1979.09
-333.302
-1987.26
-306.597
-1829
-380.39
-1485.48
-567.895
-1004.42
-810.079
-486.113
-954.918
-752.166
-119.259
-1288.92
-202.169
-1947.86
-291.443
-1730.61
-371.819
-1507.72
-461.793
-1360.44
-566.828
-1241.5
-670.022
-1132.21
-758.585
-1016.68
-826.004
-896.472
-871.13
-771.68
-895.667
-647.58
-899.858
-533.124
-876.929
-442.985
-807.435
-402.798
-672.841
-441.192
-482.278
-570.955
-284.037
-766.136
-134.955
-959.162
-59.5244
-1030.35
-811.691
-139.392
-1149.52
-96.5516
-1990.7
20.8756
-1848.04
98.7813
-1585.62
142.65
-1404.31
175.309
-1274.16
216.582
-1173.48
275.83
-1075.92
359.648
-980.291
471.859
-883.891
611.071
-786.792
768.193
-690.247
925.164
-599.957
1053.37
-531.009
1113.78
-501.596
1066.99
-524.169
894.181
-593.325
613.801
-678.781
288.468
-705.017
-523.223
-30.9189
-1118.61
19.0022
-2040.62
98.9356
-1927.97
164.068
-1650.76
235.77
-1476.01
311.301
-1349.69
389.049
-1251.23
468.7
-1155.58
552.469
-1064.06
643.357
-974.782
744.151
-887.587
855.046
-801.143
969.659
-714.57
1067.81
-629.159
1116.97
-550.754
1081.58
-488.779
939.431
-451.18
687.964
-427.313
367.045
-384.097
-156.178
100.409
-1219.02
148.604
-2088.82
184.004
-1963.37
222.431
-1689.19
278.253
-1531.83
338.57
-1410.01
398.87
-1311.53
454.264
-1210.97
504.589
-1114.39
548.997
-1019.19
587.572
-926.162
621.18
-834.752
650.885
-744.274
675.444
-653.718
687.709
-563.018
670.056
-471.126
599.687
-380.811
454.826
-282.452
235.033
-164.302
78.8554
221.685
-1440.7
282.535
-2149.67
288.696
-1969.53
316.728
-1717.22
371.848
-1586.95
429.871
-1468.03
490.003
-1371.66
547.877
-1268.85
604.37
-1170.88
655.24
-1070.06
696.146
-967.067
721.629
-860.236
727.587
-750.232
711.358
-637.49
671.679
-523.338
606.062
-405.509
509.43
-284.179
369.566
-142.588
184.19
21.0746
263.045
305.517
-1746.22
331.531
-2175.68
319.897
-1957.9
357.187
-1754.51
426.991
-1656.76
498.622
-1539.66
577.936
-1450.98
659.44
-1350.35
744.786
-1256.23
823.377
-1148.65
886.254
-1029.95
923.717
-897.699
931.412
-757.927
906.355
-612.433
845.47
-462.453
744.923
-304.962
604.074
-143.331
411.824
49.6605
206.695
226.202
469.741
255.875
-2002.09
193.673
-2113.48
172.337
-1936.57
203.338
-1785.51
256.95
-1710.37
315.92
-1598.63
390.073
-1525.13
473.273
-1433.55
563.667
-1346.62
640.738
-1225.72
688.916
-1078.12
697.909
-906.693
671.581
-731.599
611.478
-552.332
513.756
-364.731
380.522
-171.73
251.155
-13.9647
152.939
147.876
33.3608
345.778
503.101
45.6278
-2047.72
-79.2364
-1988.62
-141.926
-1873.88
-186.479
-1740.96
-225.348
-1671.5
-258.255
-1565.73
-282.422
-1500.96
-298.476
-1417.5
-312.772
-1332.32
-339.098
-1199.39
-387.699
-1029.52
-456.111
-838.28
-533.38
-654.33
-610.826
-474.886
-678.2
-297.357
-723.341
-126.589
-740.271
2.96401
-684.937
92.5419
-468.596
129.436
34.5058
-119.018
-1928.7
-216.391
-1891.25
-314.256
-1776.01
-427.597
-1627.62
-541.81
-1557.29
-664.573
-1442.96
-794.541
-1370.99
-932.309
-1279.73
-1075.88
-1188.75
-1219.12
-1056.16
-1358.18
-890.46
-1488.12
-708.345
-1606.26
-536.19
-1702
-379.148
-1746.16
-253.192
-1686.86
-185.893
-1488.02
-195.878
-1104.44
-291.038
-531.336
-443.665
-496.83
-90.7561
-1837.95
-122.005
-1859.99
-176.596
-1721.42
-257.94
-1546.27
-339.141
-1476.09
-438.548
-1343.56
-550.175
-1259.37
-678.349
-1151.55
-810.033
-1057.07
-921.369
-944.819
-989.643
-822.185
-1007.37
-690.62
-980.497
-563.058
-913.45
-446.193
-808.286
-358.356
-656.566
-337.612
-444.379
-408.064
-198.934
-536.483
-21.153
-621.445
-517.983
27.2569
-1865.2
67.8399
-1900.58
106.658
-1760.24
133.696
-1573.31
159.956
-1502.35
182.159
-1365.76
197.427
-1274.63
207.607
-1161.73
214.074
-1063.53
232.748
-963.493
278.993
-868.429
363.291
-774.918
483.357
-683.123
629.925
-592.761
778.515
-506.946
875.126
-434.222
849.403
-382.341
663.675
-350.754
350.292
-308.062
-167.691
77.9285
-1943.13
110.146
-1932.79
161.972
-1812.06
216.828
-1628.16
273.753
-1559.27
333.915
-1425.92
396.024
-1336.74
463.55
-1229.26
534.152
-1134.14
608.003
-1037.34
682.718
-943.144
756.563
-848.762
825.411
-751.971
882.131
-649.48
914.902
-539.715
902.181
-421.5
817.666
-297.826
633.129
-166.216
353.665
-28.5967
185.973
97.2642
-2040.39
100.24
-1935.77
147.281
-1859.1
199.181
-1680.06
258.423
-1618.51
319.127
-1486.62
386.463
-1404.08
458.303
-1301.1
537.758
-1213.59
623.14
-1122.72
712.518
-1032.52
797.644
-933.887
865.033
-819.359
895.283
-679.729
871.078
-515.51
790.059
-340.48
662.061
-169.828
458.883
36.9635
237.724
192.563
423.697
45.0515
-2085.44
19.0854
-1909.8
33.6496
-1873.66
56.125
-1702.54
82.9215
-1645.31
118.444
-1522.14
159.416
-1445.05
208.613
-1350.29
265.701
-1270.68
330.371
-1187.39
399.82
-1101.97
463.948
-998.014
502.136
-857.547
485.498
-663.09
398.188
-428.201
282.103
-224.394
209.649
-97.3743
153.338
93.2747
45.9565
299.944
469.654
-51.7919
-2033.65
-125.501
-1836.09
-176.667
-1822.5
-214.287
-1664.91
-251.604
-1607.99
-273.261
-1500.48
-292.307
-1426
-300.918
-1341.68
-303.862
-1267.73
-299.541
-1191.71
-290.872
-1110.64
-281.607
-1007.28
-278.159
-860.995
-282.436
-658.812
-285.977
-424.658
-280.049
-230.322
-274.789
-102.631
-247.646
66.1339
-204.945
257.245
264.709
-184.4
-1849.25
-386.942
-1633.55
-552.65
-1656.79
-684.378
-1533.19
-806.4
-1485.97
-901.601
-1405.28
-985.699
-1341.9
-1053.32
-1274.06
-1110.19
-1210.86
-1154.73
-1147.17
-1184.81
-1080.56
-1189.35
-1002.74
-1147.04
-903.306
-1030.14
-775.709
-829.078
-625.721
-596.574
-462.825
-418.405
-280.8
-276.881
-75.39
-120.382
100.746
144.327
-204.857
-1644.39
-455.811
-1382.6
-720.331
-1392.27
-946.908
-1306.61
-1165.89
-1266.99
-1355.46
-1215.72
-1524.74
-1172.62
-1669.65
-1129.16
-1792.62
-1087.89
-1892.4
-1047.39
-1965.54
-1007.42
-2001.52
-966.761
-1981.31
-923.511
-1883.24
-873.778
-1696.79
-812.171
-1424.91
-734.708
-1070.03
-635.675
-648.793
-496.632
-241.965
-306.082
-97.6384
-669.394
-1076.99
-1494.26
-1825.87
-2117.86
-2358.57
-2556.19
-2710.35
-2823.24
-2895.63
-2928.04
-2919.8
-2868.32
-2767.09
-2604.27
-2363.97
-2024.65
-1546.28
-877.362
-669.394
1644.39
-1076.99
1382.59
-1494.25
1392.26
-1825.85
1306.6
-2117.82
1266.97
-2358.52
1215.7
-2556.12
1172.6
-2710.26
1129.14
-2823.13
1087.88
-2895.5
1047.37
-2927.91
1007.41
-2919.67
966.757
-2868.18
923.513
-2766.96
873.781
-2604.14
812.174
-2363.85
734.716
-2024.55
635.698
-1546.24
496.684
-877.384
306.148
97.6161
-204.815
1849.21
-455.729
1633.5
-720.21
1656.74
-946.751
1533.14
-1165.7
1485.92
-1355.23
1405.23
-1524.49
1341.85
-1669.37
1274.02
-1792.31
1210.82
-1892.07
1147.13
-1965.17
1080.51
-2001.07
1002.66
-1980.77
903.217
-1882.66
775.662
-1696.26
625.781
-1424.51
462.961
-1069.73
280.916
-648.526
75.4835
-241.734
-100.644
-144.118
-184.419
2033.63
-386.999
1836.08
-552.739
1822.48
-684.515
1664.91
-806.584
1607.99
-901.845
1500.49
-986.008
1426.02
-1053.7
1341.71
-1110.65
1267.77
-1155.27
1191.74
-1185.4
1110.63
-1189.92
1007.18
-1147.48
860.774
-1030.36
658.542
-829.144
424.563
-596.746
230.563
-418.609
102.779
-276.756
-66.37
-120.083
-257.318
-264.2
-51.8797
2085.51
-125.656
1909.86
-176.902
1873.73
-214.611
1702.62
-252.024
1645.4
-273.784
1522.25
-292.94
1445.17
-301.668
1350.44
-304.74
1270.84
-300.559
1187.56
-292.042
1102.12
-282.931
998.071
-279.593
857.436
-283.849
662.798
-287.197
427.91
-281.044
224.409
-275.674
97.409
-248.445
-93.5996
-205.549
-300.215
-469.749
44.9929
2040.51
18.9272
1935.93
33.4087
1859.25
55.8049
1680.23
82.5176
1618.69
117.961
1486.81
158.853
1404.28
207.975
1301.31
264.988
1213.83
329.579
1122.97
398.929
1032.77
462.913
934.086
500.898
819.451
484.039
679.657
396.68
515.269
280.946
340.142
208.932
169.422
152.754
-37.4227
45.517
-192.978
-424.232
97.3878
1943.13
100.239
1933.07
147.256
1812.23
199.146
1628.34
258.406
1559.43
319.116
1426.1
386.48
1336.92
458.348
1229.45
537.844
1134.33
623.276
1037.54
712.715
943.327
797.893
848.908
865.286
752.057
895.447
649.496
871.048
539.668
789.805
421.385
661.618
297.608
458.375
165.82
237.435
27.9616
-186.798
78.2237
1864.9
110.37
1900.93
162.245
1760.36
217.185
1573.4
274.239
1502.37
334.498
1365.84
396.744
1274.67
464.387
1161.8
535.12
1063.6
609.054
963.607
683.774
868.607
757.498
775.184
826.106
683.449
882.418
593.184
914.772
507.314
901.804
434.353
817.157
382.255
632.639
350.338
353.35
307.25
166.553
27.6103
1837.29
68.3472
1860.19
107.411
1721.29
134.761
1546.05
161.336
1475.8
183.903
1343.27
199.573
1259
210.229
1151.15
217.246
1056.58
236.499
944.354
283.242
821.864
367.88
690.546
488.152
563.177
634.829
446.508
783.275
358.867
879.123
338.506
852.051
409.327
665.024
537.365
350.907
621.365
517.46
-90.307
1927.6
-121.089
1890.97
-175.187
1775.39
-256.053
1626.91
-336.803
1556.55
-435.742
1442.21
-546.92
1370.18
-674.587
1278.81
-805.634
1187.63
-916.154
1054.87
-983.52
889.23
-1000.37
707.396
-972.736
535.543
-905.049
378.82
-799.493
253.311
-647.626
186.638
-435.892
197.593
-192.443
293.917
-18.061
446.983
499.399
-119.627
2047.22
-216.835
1988.18
-314.87
1873.42
-428.54
1740.58
-543.108
1671.12
-666.342
1565.45
-796.863
1500.7
-935.265
1417.22
-1079.43
1331.79
-1223.06
1198.51
-1362.23
1028.4
-1492.06
837.219
-1609.99
653.473
-1705.42
474.254
-1749.01
296.895
-1688.79
126.421
-1488.69
-2.50023
-1103.43
-91.346
-529.822
-126.627
-30.4232
44.4746
2002.75
-80.5392
2113.19
-143.606
1936.49
-188.69
1785.67
-228.139
1710.57
-261.647
1598.95
-286.473
1525.52
-303.254
1434
-318.388
1346.92
-345.583
1225.71
-394.924
1077.74
-463.833
906.128
-541.391
731.031
-618.93
551.793
-686.269
364.235
-731.53
171.683
-748.449
14.4191
-691.323
-148.472
-471.847
-346.103
-502.27
255.428
1747.32
192.771
2175.85
171.168
1958.09
201.894
1754.94
255.187
1657.27
313.893
1540.25
387.782
1451.64
470.71
1351.07
560.701
1256.93
637.189
1149.22
684.645
1030.29
692.977
897.797
666.189
757.819
605.856
612.127
508.176
461.916
375.693
304.167
247.962
142.151
150.503
-51.012
31.6335
-227.233
-470.636
305.968
1441.35
331.805
2150.02
320.012
1969.89
357.282
1717.67
427.119
1587.44
498.834
1468.53
578.287
1372.18
659.966
1269.39
745.475
1171.42
824.143
1070.55
886.982
967.447
924.323
860.456
931.881
750.262
906.688
637.32
845.633
522.97
744.87
404.931
603.679
283.342
411.164
141.503
206.364
-22.4315
-264.273
222.372
1218.98
283.307
2089.08
289.333
1963.86
317.348
1689.66
372.517
1532.27
430.605
1410.44
490.821
1311.97
548.804
1211.41
605.418
1114.81
656.4
1019.57
697.378
926.468
722.878
834.957
728.765
744.375
712.355
653.731
672.412
562.913
606.501
470.843
509.571
380.272
369.525
281.549
184.126
162.969
-80.1469
100.927
1118.06
149.178
2040.83
184.416
1928.62
222.688
1651.39
278.359
1476.6
338.539
1350.26
398.724
1251.78
454.019
1156.12
504.264
1064.57
548.572
975.263
586.97
888.071
620.253
801.675
649.455
715.173
673.528
629.658
685.486
550.956
667.79
488.539
597.64
450.422
453.249
425.939
234.093
382.125
153.946
-30.0219
1148.08
19.7053
1991.1
99.283
1849.05
164.371
1586.3
236.183
1404.79
311.853
1274.6
389.699
1173.94
469.341
1076.47
552.969
980.937
643.539
884.693
743.719
787.89
853.945
691.449
968.108
601.01
1065.9
531.861
1115.03
501.832
1079.85
523.714
938.12
592.154
687.174
676.886
366.64
702.658
520.586
-139.116
1287.2
-95.5338
1947.52
22.3526
1731.16
100.52
1508.13
145.075
1360.23
178.613
1241.06
220.624
1131.93
280.373
1016.72
364.446
896.865
476.747
772.393
615.983
648.655
773.071
534.362
929.774
444.307
1057.42
404.218
1117.35
441.899
1070.39
570.674
897.679
764.867
617.415
957.151
291.832
1028.24
812.418
-120.621
1407.82
-202.607
2029.51
-288.841
1817.39
-366.509
1585.8
-454.913
1448.64
-558.73
1344.87
-660.254
1233.45
-746.514
1102.99
-811.209
961.56
-853.271
814.456
-874.362
669.745
-875.086
535.085
-848.928
418.15
-775.893
331.183
-637.766
303.773
-445.537
378.445
-250.416
569.746
-110.332
817.066
-47.8325
965.742
764.586
307.09
1100.73
447.109
1889.49
299.719
1964.78
51.2157
1834.3
-196.58
1696.43
-425.022
1573.32
-634.611
1443.04
-836.808
1305.18
-1037.51
1162.27
-1241.27
1018.21
-1447.27
875.745
-1646.77
734.583
-1820.96
592.342
-1936.91
447.135
-1944.63
311.492
-1787.45
221.263
-1448.12
230.418
-977.77
346.715
-479.064
467.036
285.522
418.976
913.791
1199.08
1304.04
1327.99
1320.19
1257.88
1184.02
1081.28
950.72
794.731
616.677
418.101
199.947
-25.0366
-215.981
-305.048
-252.111
-106.21
)
;

boundaryField
{
    outletWall
    {
        type            calculated;
        value           nonuniform List<scalar> 
60
(
11018.7
-311.544
-11569.2
-19774.1
-25068.5
-25227.2
-20134.8
-5919.17
12838.3
18094.8
16510
15029.2
17045
14716.8
-10410.2
-17834.3
-17721.1
-16672
-15093.3
-12464.3
2454.31
2466.09
2464.03
2458.85
2448.61
2434.21
2415.18
2391.33
2362.07
2327.06
2285.89
2238.32
2184.3
2124.21
2059.53
1994
1933.44
1882.66
1845.38
1831.01
5344.48
-3567.49
-2437.92
2907.71
6786.72
4886.91
-8764.24
-16081.4
-18098.2
-16004.4
-10323.9
4672.17
14766.7
14968.5
17889.7
20140.5
20050.4
18615.3
17162
14433
)
;
    }
    fineWalls
    {
        type            calculated;
        value           uniform 0;
    }
    fineFrontAndBack
    {
        type            calculated;
        value           nonuniform List<scalar> 
960
(
-6.56959e-12
-2.85552e-11
-5.064e-12
-5.54034e-12
-3.096e-11
-4.0851e-12
-3.3211e-12
-2.23553e-12
-3.29658e-11
-6.77238e-12
-6.83468e-12
-3.64777e-11
-5.69174e-12
-4.75016e-12
-2.82016e-11
-5.01101e-12
-4.51861e-12
-2.56775e-11
-4.41351e-12
-4.09575e-12
-7.46889e-13
-7.27457e-13
-6.38866e-13
-5.21153e-13
-4.254e-13
-3.42111e-13
-8.47652e-12
-1.71651e-13
-1.23336e-13
-8.95838e-14
-7.31283e-14
-7.48406e-14
-1.085e-13
-1.79192e-13
-2.78254e-13
-3.9767e-13
-5.28396e-13
-6.99178e-13
-8.40795e-13
-1.11167e-12
-2.85922e-11
-3.74922e-12
-3.33141e-12
-2.92532e-12
1.64681e-12
2.01828e-12
3.80864e-12
9.36358e-14
1.47607e-10
7.50852e-11
4.12115e-11
4.51115e-11
-4.57777e-13
1.6033e-12
1.69053e-12
1.83551e-11
4.05632e-12
4.49092e-12
4.92724e-12
3.41457e-11
1.2112e-12
9.85753e-13
8.55767e-13
6.90284e-13
5.59979e-13
4.37369e-13
3.23542e-13
2.27103e-13
1.55113e-13
1.00005e-13
5.51678e-14
2.68292e-14
2.11655e-14
7.40361e-14
-1.92431e-15
2.25839e-14
9.99105e-14
2.01522e-13
2.82014e-13
3.03557e-13
1.84917e-12
2.00047e-12
1.30797e-11
3.0827e-12
3.18797e-12
1.66565e-11
3.33721e-12
3.03566e-12
1.54792e-11
4.25003e-12
5.29291e-12
2.70288e-11
9.48673e-12
1.20092e-11
1.58332e-11
6.86751e-11
8.46544e-12
5.2439e-12
1.0825e-11
-2.27406e-13
-3.37696e-11
-2.94871e-11
-2.46394e-11
-1.81556e-11
-1.04072e-11
-3.66699e-12
1.29347e-11
3.36107e-11
4.95901e-11
5.40468e-11
5.08023e-11
4.74761e-11
5.30694e-11
6.28837e-11
6.52287e-11
4.43128e-11
2.13709e-11
8.91892e-12
4.99723e-12
-3.36208e-11
-2.92244e-11
-2.43165e-11
-1.77694e-11
-1.02212e-11
-2.48281e-12
2.47069e-11
4.34955e-11
4.69139e-11
3.89072e-11
2.99281e-11
2.949e-11
4.50874e-11
6.22983e-11
6.54861e-11
4.5989e-11
2.33155e-11
1.06426e-11
-8.50696e-12
-3.3426e-11
-2.88842e-11
-2.38918e-11
-1.72755e-11
-9.90606e-12
-3.60197e-13
2.89079e-11
3.61273e-11
2.84838e-11
1.61534e-11
8.79637e-12
1.39246e-11
3.60384e-11
6.09793e-11
6.58802e-11
4.80507e-11
2.55307e-11
1.25514e-11
-8.65372e-12
-3.32063e-11
-2.85051e-11
-2.34124e-11
-1.67344e-11
-9.41126e-12
2.10562e-12
2.62208e-11
2.0584e-11
4.42942e-12
-1.00488e-11
-1.50913e-11
-4.86733e-12
2.51122e-11
6.24557e-11
6.63632e-11
4.98847e-11
2.73857e-11
1.39393e-11
-2.1695e-12
-3.29657e-11
-2.80948e-11
-2.28918e-11
-1.61475e-11
-8.69315e-12
3.43719e-12
1.43197e-11
-3.37776e-12
-2.36381e-11
-3.68087e-11
-3.81037e-11
-2.36463e-11
1.2132e-11
6.38759e-11
6.60275e-11
5.06403e-11
2.85178e-11
1.5198e-11
4.76252e-13
-3.2706e-11
-2.76582e-11
-2.23414e-11
-1.55113e-11
-7.83017e-12
2.65876e-12
-3.90162e-12
-2.95889e-11
-4.77382e-11
-5.60775e-11
-5.31312e-11
-3.67936e-11
-1.12638e-13
5.82248e-11
6.53207e-11
5.03098e-11
2.90835e-11
1.74073e-11
2.07571e-12
-3.24282e-11
-2.71991e-11
-2.17744e-11
-1.48536e-11
-6.9386e-12
1.19466e-12
-1.88811e-11
-5.01353e-11
-6.08327e-11
-6.26479e-11
-5.65073e-11
-4.09153e-11
-7.49406e-12
4.86283e-11
6.52317e-11
4.91879e-11
2.89405e-11
1.5238e-11
6.51048e-13
-3.21329e-11
-2.67202e-11
-2.11926e-11
-1.41796e-11
-6.17149e-12
-7.73215e-14
-2.52958e-11
-5.85452e-11
-6.2003e-11
-5.91067e-11
-5.19922e-11
-3.83944e-11
-9.60305e-12
3.96753e-11
6.35073e-11
4.69623e-11
2.74003e-11
2.23093e-11
4.45351e-11
-3.18191e-11
-2.622e-11
-2.06019e-11
-1.35625e-11
-5.58613e-12
2.74014e-13
-2.30593e-11
-5.65496e-11
-5.6837e-11
-5.23359e-11
-4.59685e-11
-3.44675e-11
-9.58867e-12
3.12258e-11
5.67276e-11
4.54287e-11
3.16361e-11
3.60786e-11
4.27355e-11
-3.14857e-11
-2.56992e-11
-1.99978e-11
-1.29254e-11
-5.09056e-12
-5.48741e-13
-2.46515e-11
-4.87093e-11
-5.07573e-11
-4.58875e-11
-4.08915e-11
-3.18326e-11
-1.0257e-11
2.23348e-11
4.82094e-11
3.46149e-11
1.58717e-11
5.24417e-12
2.24278e-11
-3.11324e-11
-2.51569e-11
-1.93614e-11
-1.22424e-11
-4.93738e-12
-1.13735e-12
-1.5981e-11
-4.08122e-11
-4.45713e-11
-3.96826e-11
-3.62065e-11
-3.00303e-11
-1.18199e-11
5.11084e-12
1.15839e-11
1.43252e-11
2.70137e-11
8.15903e-11
1.74467e-10
-3.07584e-11
-2.45888e-11
-1.86901e-11
-1.15611e-11
-4.97825e-12
-2.09388e-12
-1.0264e-11
-3.18046e-11
-3.80272e-11
-3.33698e-11
-3.14794e-11
-2.93294e-11
-1.21944e-11
8.33988e-12
6.11188e-12
1.54978e-11
3.58917e-11
3.74765e-11
-4.45976e-12
-3.03618e-11
-2.39907e-11
-1.80012e-11
-1.09522e-11
-5.0509e-12
-2.48783e-12
-5.99974e-12
-2.31838e-11
-3.16596e-11
-2.75321e-11
-2.6588e-11
-2.83499e-11
-1.56307e-11
1.2365e-11
1.29045e-11
1.13386e-11
3.5949e-12
-3.06608e-11
-5.20429e-11
-2.99407e-11
-2.33626e-11
-1.73111e-11
-1.0418e-11
-5.00499e-12
-2.15583e-12
-2.06761e-12
-1.54978e-11
-2.59703e-11
-2.26971e-11
-2.22369e-11
-2.67538e-11
-2.14592e-11
7.12846e-12
7.53855e-12
-3.92126e-12
-2.14184e-11
-3.75183e-11
-2.09437e-11
-2.9494e-11
-2.27064e-11
-1.66225e-11
-9.91447e-12
-4.81472e-12
-1.60968e-12
5.91225e-13
-9.05757e-12
-2.07604e-11
-1.86138e-11
-1.86293e-11
-2.45393e-11
-2.68854e-11
-1.51509e-12
9.24406e-13
-1.59075e-11
-3.05467e-11
-3.35638e-11
-3.05018e-11
-2.90192e-11
-2.20238e-11
-1.59326e-11
-9.41005e-12
-4.5368e-12
-1.22848e-12
1.83455e-12
-4.09078e-12
-1.57725e-11
-1.50055e-11
-1.58434e-11
-2.21525e-11
-2.97815e-11
-1.64039e-11
-1.1166e-12
-1.61972e-11
-3.03184e-11
-2.16777e-11
-3.11852e-11
-2.85225e-11
-2.13219e-11
-1.52431e-11
-8.90008e-12
-4.221e-12
-1.03203e-12
2.14489e-12
-6.55245e-13
-1.10162e-11
-1.17953e-11
-1.38144e-11
-2.03163e-11
-2.90647e-11
-3.26285e-11
-1.16698e-11
-1.31334e-11
-2.02194e-11
-2.69661e-11
-3.67603e-11
-2.79779e-11
-2.05789e-11
-1.45372e-11
-8.37409e-12
-3.87394e-12
-8.91566e-13
2.03657e-12
1.40088e-12
-6.84597e-12
-9.09249e-12
-1.24088e-11
-1.91099e-11
-2.72394e-11
-3.56519e-11
-2.87945e-11
-2.37288e-11
-2.37744e-11
-3.52186e-11
-4.3085e-11
-2.75071e-11
-1.9932e-11
-1.39243e-11
-7.91369e-12
-3.55899e-12
-7.67886e-13
1.80711e-12
2.42962e-12
-3.56603e-12
-7.11245e-12
-1.15068e-11
-1.81882e-11
-2.59774e-11
-3.4963e-11
-3.90605e-11
-3.6803e-11
-3.68813e-11
-4.34943e-11
-4.74266e-11
-2.65952e-11
-1.87676e-11
-1.28712e-11
-7.11766e-12
-3.02236e-12
-5.71099e-13
1.38855e-12
2.69018e-12
-6.20117e-13
-6.12365e-12
-1.09456e-11
-1.75378e-11
-2.51627e-11
-3.4413e-11
-4.30672e-11
-4.42197e-11
-4.54033e-11
-4.74372e-11
-4.79802e-11
6.56959e-12
2.85552e-11
5.064e-12
5.54034e-12
3.096e-11
4.0851e-12
3.3211e-12
2.23553e-12
3.29658e-11
6.77238e-12
6.83468e-12
3.64777e-11
5.69174e-12
4.75016e-12
2.82016e-11
5.01101e-12
4.51861e-12
2.56775e-11
4.41351e-12
4.09575e-12
7.46889e-13
7.27457e-13
6.38866e-13
5.21153e-13
4.254e-13
3.42111e-13
8.47652e-12
1.71651e-13
1.23336e-13
8.95838e-14
7.31283e-14
7.48406e-14
1.085e-13
1.79192e-13
2.78254e-13
3.9767e-13
5.28396e-13
6.99178e-13
8.40795e-13
1.11167e-12
2.85922e-11
3.74922e-12
3.33141e-12
2.92532e-12
-1.64681e-12
-2.01828e-12
-3.80864e-12
-9.36358e-14
-1.47607e-10
-7.50852e-11
-4.12115e-11
-4.51115e-11
4.57777e-13
-1.6033e-12
-1.69053e-12
-1.83551e-11
-4.05632e-12
-4.49092e-12
-4.92724e-12
-3.41457e-11
-1.2112e-12
-9.85753e-13
-8.55767e-13
-6.90284e-13
-5.59979e-13
-4.37369e-13
-3.23542e-13
-2.27103e-13
-1.55113e-13
-1.00005e-13
-5.51678e-14
-2.68292e-14
-2.11655e-14
-7.40361e-14
1.92431e-15
-2.25839e-14
-9.99105e-14
-2.01522e-13
-2.82014e-13
-3.03557e-13
-1.84917e-12
-2.00047e-12
-1.30797e-11
-3.0827e-12
-3.18797e-12
-1.66565e-11
-3.33721e-12
-3.03566e-12
-1.54792e-11
-4.25003e-12
-5.29291e-12
-2.70288e-11
-9.48673e-12
-1.20092e-11
-1.58332e-11
-6.86751e-11
-8.46544e-12
-5.2439e-12
-1.0825e-11
2.27406e-13
3.37696e-11
2.94871e-11
2.46394e-11
1.81556e-11
1.04072e-11
3.66699e-12
-1.29347e-11
-3.36107e-11
-4.95901e-11
-5.40468e-11
-5.08023e-11
-4.74761e-11
-5.30694e-11
-6.28837e-11
-6.52287e-11
-4.43128e-11
-2.13709e-11
-8.91892e-12
-4.99723e-12
3.36208e-11
2.92244e-11
2.43165e-11
1.77694e-11
1.02212e-11
2.48281e-12
-2.47069e-11
-4.34955e-11
-4.69139e-11
-3.89072e-11
-2.99281e-11
-2.949e-11
-4.50874e-11
-6.22983e-11
-6.54861e-11
-4.5989e-11
-2.33155e-11
-1.06426e-11
8.50696e-12
3.3426e-11
2.88842e-11
2.38918e-11
1.72755e-11
9.90606e-12
3.60197e-13
-2.89079e-11
-3.61273e-11
-2.84838e-11
-1.61534e-11
-8.79637e-12
-1.39246e-11
-3.60384e-11
-6.09793e-11
-6.58802e-11
-4.80507e-11
-2.55307e-11
-1.25514e-11
8.65372e-12
3.32063e-11
2.85051e-11
2.34124e-11
1.67344e-11
9.41126e-12
-2.10562e-12
-2.62208e-11
-2.0584e-11
-4.42942e-12
1.00488e-11
1.50913e-11
4.86733e-12
-2.51122e-11
-6.24557e-11
-6.63632e-11
-4.98847e-11
-2.73857e-11
-1.39393e-11
2.1695e-12
3.29657e-11
2.80948e-11
2.28918e-11
1.61475e-11
8.69315e-12
-3.43719e-12
-1.43197e-11
3.37776e-12
2.36381e-11
3.68087e-11
3.81037e-11
2.36463e-11
-1.2132e-11
-6.38759e-11
-6.60275e-11
-5.06403e-11
-2.85178e-11
-1.5198e-11
-4.76252e-13
3.2706e-11
2.76582e-11
2.23414e-11
1.55113e-11
7.83017e-12