/*--------------------------------*- C++ -*----------------------------------*\
| =========                 |                                                 |
| \\      /  F ield         | OpenFOAM: The Open Source CFD Toolbox           |
|  \\    /   O peration     | Version:  4.1                                   |
|   \\  /    A nd           | Web:      www.OpenFOAM.org                      |
|    \\/     M anipulation  |                                                 |
\*---------------------------------------------------------------------------*/
FoamFile
{
    version     2.0;
    format      ascii;
    class       volVectorField;
    location    "29";
    object      U;
}
// * * * * * * * * * * * * * * * * * * * * * * * * * * * * * * * * * * * * * //

dimensions      [0 1 -1 0 0 0 0];

internalField   nonuniform List<vector> 
1280
(
(-4.74767e-15 -1.77059 -1.53571)
(-4.85323e-15 -0.99518 -1.82499)
(-3.65962e-15 -1.26371 -1.47477)
(-4.00386e-15 -0.851928 -1.65908)
(-5.26195e-15 -0.238748 -2.22288)
(-2.95219e-15 -0.623421 -1.64518)
(-2.40007e-15 0.0716634 -2.05289)
(9.76514e-16 1.00425 -1.99088)
(-5.68777e-15 1.29318 -3.00046)
(-4.9156e-15 1.32159 -2.1771)
(-4.93658e-15 1.61182 -1.82865)
(-6.17554e-15 2.71286 -2.78299)
(-4.11327e-15 2.62081 -2.00886)
(-3.45433e-15 2.95777 -1.78063)
(-4.89904e-15 4.00883 -2.65199)
(-3.62132e-15 3.68445 -2.02172)
(-3.26548e-15 4.09642 -1.86847)
(-4.36414e-15 5.0358 -2.98827)
(-3.21881e-15 4.78975 -2.61314)
(-2.95989e-15 4.58231 -2.89575)
(-3.06416e-15 5.20535 -1.23514)
(-2.98444e-15 5.49981 1.39284)
(-2.62099e-15 5.50215 4.29572)
(-2.13806e-15 5.70748 7.19643)
(-1.74523e-15 5.67724 9.43193)
(-1.40353e-15 6.0131 11.1624)
(-1.78688e-15 3.58679 8.21958)
(-7.04207e-16 8.94645 14.9323)
(-5.05995e-16 8.92836 15.0696)
(-3.67523e-16 9.0283 14.8659)
(-3.00014e-16 9.05064 14.4675)
(-3.07038e-16 9.00633 13.9479)
(-4.4513e-16 8.95259 13.3642)
(-7.35147e-16 8.88417 12.7566)
(-1.14156e-15 8.79192 12.1482)
(-1.63147e-15 8.68116 11.5475)
(-2.16778e-15 8.5483 10.9888)
(-2.86842e-15 8.41475 10.4748)
(-3.44942e-15 8.36283 10.2748)
(-4.5607e-15 8.15832 9.04019)
(-4.97688e-15 8.9563 11.0296)
(-3.01142e-15 5.32282 7.8803)
(-2.67583e-15 4.62861 7.75666)
(-2.224e-15 3.62668 7.81115)
(1.18024e-15 2.46294 7.63971)
(1.62111e-15 1.2583 4.41732)
(3.05915e-15 0.759109 4.21817)
(7.52095e-17 0.207067 4.40128)
(2.80321e-14 -0.267313 0.840807)
(6.03094e-14 0.0588344 -1.91588)
(4.12513e-14 -0.41443 -0.127653)
(7.8523e-15 -0.387391 3.88329)
(-3.67692e-16 -1.72619 5.77602)
(1.28779e-15 -2.41385 5.43313)
(1.35786e-15 -2.92851 5.55478)
(3.19498e-15 -4.52568 8.46188)
(3.29791e-15 -5.30405 7.59426)
(3.60717e-15 -6.38212 7.67486)
(3.95762e-15 -7.04981 7.74585)
(5.93881e-15 -10.6016 10.4381)
(4.96904e-15 -8.75431 8.43097)
(4.04411e-15 -9.00828 9.67284)
(3.51084e-15 -8.98306 9.8234)
(2.83194e-15 -9.12406 10.3193)
(2.29735e-15 -9.23259 10.8724)
(1.79433e-15 -9.33052 11.4828)
(1.32735e-15 -9.40977 12.1139)
(9.31705e-16 -9.46901 12.7507)
(6.36359e-16 -9.51522 13.3633)
(4.10277e-16 -9.55073 13.9069)
(2.26329e-16 -9.5228 14.3218)
(1.10069e-16 -9.43034 14.5341)
(8.6833e-17 -9.41664 14.408)
(1.56071e-17 -3.77765 7.63931)
(-7.89462e-18 -5.92521 11.5049)
(9.26517e-17 -5.61923 9.63074)
(4.09889e-16 -5.67139 7.25422)
(8.26756e-16 -5.49611 4.12486)
(1.15698e-15 -5.52614 0.870611)
(1.24536e-15 -5.24625 -2.16955)
(1.33635e-15 -4.58391 -4.22952)
(1.44569e-15 -4.63356 -4.08176)
(2.22303e-15 -4.0235 -5.02909)
(2.22779e-15 -3.36659 -2.76142)
(2.30386e-15 -2.71611 -3.33804)
(2.79281e-15 -2.35095 -4.30238)
(2.3916e-15 -1.7046 -2.44419)
(2.19379e-15 -1.19237 -2.89565)
(3.27543e-15 -0.658999 -3.69483)
(3.07139e-15 -0.295014 -2.10211)
(3.82505e-15 0.122356 -2.41554)
(6.31598e-15 0.505038 -3.25266)
(7.06316e-15 0.857547 -2.37387)
(8.67872e-15 1.29871 -2.33728)
(1.14422e-14 1.51222 -2.0262)
(1.1672e-14 2.25919 -2.80334)
(6.11775e-15 2.2481 -2.00374)
(3.81536e-15 2.7172 -1.7909)
(1.80605e-15 2.87388 -2.59793)
(-1.64341e-16 3.60928 -2.66431)
(-3.75218e-15 -4.154 1.52747)
(-3.27634e-15 -5.0319 1.58822)
(-2.73771e-15 -5.55978 1.54737)
(-2.01729e-15 -5.91797 1.51179)
(-1.15636e-15 -5.9674 1.48429)
(-4.07443e-16 -3.60203 1.20296)
(1.43718e-15 4.8925 0.605375)
(3.73452e-15 5.59249 3.06114)
(5.51001e-15 4.93906 5.25315)
(6.0052e-15 5.4771 5.98523)
(5.6447e-15 6.06174 6.18895)
(5.27512e-15 4.48247 4.88328)
(5.8966e-15 -1.70583 0.39748)
(6.98708e-15 -6.52814 -1.27544)
(7.24764e-15 -8.30729 -2.10641)
(4.92364e-15 -8.29497 -3.02141)
(2.37454e-15 -6.57949 -3.54111)
(9.90991e-16 -3.8644 -3.49378)
(5.55248e-16 -0.160574 -3.69169)
(-3.73564e-15 -4.17983 1.54458)
(-3.24715e-15 -5.03801 1.62995)
(-2.70183e-15 -5.53272 1.61424)
(-1.97438e-15 -5.87382 1.6222)
(-1.13568e-15 -5.86411 1.77599)
(-2.75868e-16 -2.96671 1.23361)
(2.74521e-15 4.07734 1.59079)
(4.83283e-15 4.06865 4.93871)
(5.21266e-15 4.00479 6.8126)
(4.32302e-15 5.18579 7.72987)
(3.32534e-15 6.4343 8.02856)
(3.27667e-15 6.08709 6.80435)
(5.00971e-15 0.0320075 1.95427)
(6.92204e-15 -6.19151 -1.45929)
(7.27624e-15 -7.91307 -1.79698)
(5.10989e-15 -7.93057 -2.72373)
(2.59061e-15 -6.43823 -3.34267)
(1.18251e-15 -3.80078 -3.43286)
(-9.45218e-16 -0.41247 -3.37538)
(-3.714e-15 -4.20043 1.57556)
(-3.20936e-15 -5.05473 1.68508)
(-2.65464e-15 -5.54761 1.69656)
(-1.91949e-15 -5.92261 1.75894)
(-1.10067e-15 -5.91148 2.06893)
(-4.00219e-17 -3.00285 1.52501)
(3.21199e-15 3.22339 2.8592)
(4.01415e-15 3.35249 5.82097)
(3.16487e-15 3.64642 7.33923)
(1.79482e-15 4.95461 8.25561)
(9.77374e-16 6.50192 8.63174)
(1.54718e-15 6.90552 7.89617)
(4.00426e-15 2.25297 4.30768)
(6.77548e-15 -5.19854 -1.44328)
(7.32003e-15 -7.59106 -1.31972)
(5.33897e-15 -7.59536 -2.21128)
(2.83674e-15 -6.27181 -2.96646)
(1.3946e-15 -3.76822 -3.25222)
(-9.61524e-16 -0.55474 -3.19482)
(-3.68959e-15 -4.22713 1.61815)
(-3.16723e-15 -5.08121 1.74816)
(-2.60138e-15 -5.57892 1.78596)
(-1.85937e-15 -5.9991 1.90704)
(-1.0457e-15 -5.98031 2.31633)
(2.33958e-16 -3.1827 2.01537)
(2.91342e-15 2.23556 3.99322)
(2.28711e-15 2.41871 6.54809)
(4.92158e-16 3.11181 7.69261)
(-1.11653e-15 4.70257 8.43534)
(-1.67682e-15 6.56146 8.77594)
(-5.40814e-16 7.70094 8.44792)
(2.79024e-15 4.34353 6.03633)
(6.93952e-15 -4.10396 -0.551255)
(7.37369e-15 -7.40425 -0.708166)
(5.54274e-15 -7.27895 -1.4775)
(3.04286e-15 -6.0454 -2.37121)
(1.54881e-15 -3.64804 -2.88312)
(-2.41056e-16 -0.497158 -3.37566)
(-3.66286e-15 -4.25974 1.66918)
(-3.12165e-15 -5.11624 1.81816)
(-2.54354e-15 -5.62423 1.8809)
(-1.79417e-15 -6.0968 2.05788)
(-9.65905e-16 -6.0973 2.52327)
(3.8191e-16 -3.50585 2.55413)
(1.59108e-15 1.30243 4.91633)
(-3.75306e-16 1.84592 6.82103)
(-2.62645e-15 2.83864 7.41923)
(-4.08985e-15 4.52472 7.85264)
(-4.23374e-15 6.48858 8.08532)
(-2.62737e-15 8.06736 8.20152)
(1.348e-15 5.94435 7.25096)
(7.09732e-15 -2.89457 1.69339)
(7.33639e-15 -7.06982 -0.24468)
(5.6267e-15 -6.95336 -0.407327)
(3.16864e-15 -5.74621 -1.54053)
(1.68867e-15 -3.28453 -2.28355)
(5.29169e-17 -0.417271 -4.0518)
(-3.63399e-15 -4.29566 1.72405)
(-3.07313e-15 -5.15911 1.88896)
(-2.48237e-15 -5.68537 1.97193)
(-1.72348e-15 -6.21715 2.19079)
(-8.70018e-16 -6.27992 2.67112)
(2.95418e-16 -3.98408 2.98021)
(-4.33514e-16 0.489335 5.40388)
(-3.28766e-15 1.44752 6.67311)
(-5.30424e-15 2.69831 6.80552)
(-6.23084e-15 4.44045 7.00568)
(-5.90347e-15 6.37573 7.13239)
(-4.08817e-15 8.10148 7.53218)
(-1.25153e-17 6.87934 7.81595)
(6.46942e-15 -1.48442 4.27204)
(7.25785e-15 -6.49213 0.518143)
(5.58998e-15 -6.72499 0.941357)
(3.2315e-15 -5.36374 -0.504451)
(1.93415e-15 -2.6772 -1.33514)
(2.30634e-16 0.531244 -4.59569)
(-3.60313e-15 -4.33451 1.77805)
(-3.02213e-15 -5.20822 1.95463)
(-2.41937e-15 -5.75665 2.05042)
(-1.6504e-15 -6.34674 2.29093)
(-7.70956e-16 -6.49582 2.74767)
(1.3274e-16 -4.50895 3.22488)
(-2.0979e-15 -0.178884 5.46387)
(-5.57059e-15 1.26586 6.38004)
(-6.75919e-15 2.67286 6.36303)
(-6.96087e-15 4.39786 6.57037)
(-6.27859e-15 6.24177 6.67305)
(-4.54614e-15 7.89395 7.11942)
(-8.32673e-16 7.16117 8.07288)
(5.40315e-15 -0.0609167 6.46827)
(7.24797e-15 -5.6775 2.33544)
(5.46532e-15 -6.47065 2.38841)
(3.21561e-15 -4.93987 0.949992)
(1.69311e-15 -1.59483 -0.947763)
(7.23387e-17 1.52749 0.998123)
(-3.57032e-15 -4.37552 1.82812)
(-2.96892e-15 -5.26106 2.01206)
(-2.35473e-15 -5.83124 2.11252)
(-1.57551e-15 -6.47271 2.35517)
(-6.85722e-16 -6.71629 2.75881)
(-8.59128e-18 -5.01356 3.305)
(-2.81064e-15 -0.815694 5.33792)
(-6.50502e-15 1.09795 6.29082)
(-6.88922e-15 2.6005 6.45815)
(-6.56741e-15 4.33158 6.79507)
(-5.77691e-15 6.1297 6.91331)
(-4.26604e-15 7.63177 7.27297)
(-1.06701e-15 7.03318 8.44067)
(4.40837e-15 0.862352 8.21535)
(7.05637e-15 -4.94601 4.7363)
(5.21804e-15 -6.091 3.71543)
(3.04447e-15 -4.29491 2.15518)
(2.47881e-15 -1.83072 0.63571)
(4.94835e-15 -4.08782 6.92058)
(-3.53545e-15 -4.41766 1.87304)
(-2.91333e-15 -5.31515 2.06029)
(-2.2891e-15 -5.904 2.15817)
(-1.50695e-15 -6.58615 2.38812)
(-6.20682e-16 -6.92189 2.71794)
(3.0446e-17 -5.48721 3.23807)
(-2.56215e-15 -1.44287 5.12258)
(-6.28329e-15 0.84501 6.46645)
(-6.31522e-15 2.4476 6.89302)
(-5.8151e-15 4.23501 7.28123)
(-5.10761e-15 6.03371 7.38022)
(-3.82973e-15 7.35779 7.66891)
(-1.06541e-15 6.72812 8.93611)
(3.46953e-15 1.58628 9.55902)
(6.30307e-15 -3.94979 6.51022)
(5.04763e-15 -5.32378 4.65373)
(3.51512e-15 -3.89114 4.26039)
(4.00873e-15 -3.26823 6.86513)
(4.74839e-15 -3.88907 10.2136)
(-3.49841e-15 -4.46008 1.91247)
(-2.85546e-15 -5.36847 2.0995)
(-2.22197e-15 -5.97129 2.18934)
(-1.43616e-15 -6.68075 2.39753)
(-5.65617e-16 -7.09166 2.6413)
(-6.09712e-17 -5.92282 3.0454)
(-2.82374e-15 -2.14724 4.74177)
(-5.41214e-15 0.454544 6.63041)
(-5.63971e-15 2.2523 7.27115)
(-5.09861e-15 4.152 7.58743)
(-4.5435e-15 5.95575 7.63465)
(-3.54362e-15 7.05314 7.9028)
(-1.13966e-15 6.22429 9.31142)
(2.48164e-15 1.89812 10.9024)
(5.50431e-15 -3.05383 8.93337)
(3.8461e-15 -5.13366 7.35505)
(1.76352e-15 -5.11093 8.59689)
(5.82685e-16 -4.52156 10.6099)
(2.49198e-15 -2.87313 8.65298)
(-3.45916e-15 -4.5021 1.94651)
(-2.79521e-15 -5.41954 2.13043)
(-2.15127e-15 -6.03108 2.20869)
(-1.36027e-15 -6.75365 2.3909)
(-5.48598e-16 -7.20933 2.5472)
(-1.26372e-16 -6.28423 2.78208)
(-1.67574e-15 -2.91087 4.16171)
(-4.53469e-15 -0.100077 6.46787)
(-4.95236e-15 2.0345 7.36255)
(-4.40918e-15 4.09899 7.57559)
(-4.02295e-15 5.88963 7.58622)
(-3.3367e-15 6.70991 7.83699)
(-1.31333e-15 5.51842 9.29795)
(5.67871e-16 1.65643 11.7706)
(1.2871e-15 -2.67607 11.4584)
(1.59169e-15 -5.04876 10.4453)
(3.00152e-15 -5.06933 10.7265)
(9.06559e-15 -3.15552 9.51602)
(1.93852e-14 -1.01104 4.60513)
(-3.4176e-15 -4.54314 1.97535)
(-2.73208e-15 -5.46727 2.154)
(-2.07668e-15 -6.08233 2.21885)
(-1.28457e-15 -6.80513 2.37388)
(-5.53139e-16 -7.27094 2.45088)
(-2.32654e-16 -6.5359 2.51502)
(-1.14045e-15 -3.65156 3.47297)
(-3.53384e-15 -0.804649 5.91619)
(-4.22525e-15 1.77648 7.15567)
(-3.70776e-15 4.06312 7.30848)
(-3.49771e-15 5.83668 7.31207)
(-3.25882e-15 6.37343 7.51627)
(-1.35493e-15 4.69972 8.79213)
(9.26653e-16 1.05237 11.7998)
(6.79097e-16 -2.56279 12.5006)
(1.72198e-15 -4.85049 12.2028)
(3.98796e-15 -5.00706 12.4293)
(4.16405e-15 -3.19006 12.1242)
(-4.95529e-16 -0.358569 10.8796)
(-3.37354e-15 -4.58279 1.99933)
(-2.66563e-15 -5.5112 2.17123)
(-2.00014e-15 -6.12502 2.22216)
(-1.21691e-15 -6.83768 2.35016)
(-5.61211e-16 -7.28383 2.36028)
(-2.76426e-16 -6.66815 2.28724)
(-6.66638e-16 -4.29028 2.8057)
(-2.57597e-15 -1.58907 5.09094)
(-3.51773e-15 1.46323 6.71507)
(-3.05912e-15 4.02911 6.85043)
(-2.95422e-15 5.79785 6.85217)
(-3.14999e-15 6.09871 7.02186)
(-1.73675e-15 3.81417 7.78979)
(1.37389e-15 0.105753 11.1376)
(1.43384e-15 -2.86075 12.5985)
(1.25984e-15 -4.9667 12.7658)
(3.99433e-16 -4.84131 13.3181)
(-3.40675e-15 -1.48147 13.2489)
(-5.78255e-15 4.15182 12.3421)
(-3.32675e-15 -4.62076 2.01875)
(-2.59584e-15 -5.55095 2.18293)
(-1.92346e-15 -6.15891 2.22037)
(-1.15756e-15 -6.85337 2.32195)
(-5.5611e-16 -7.25898 2.27741)
(-2.39537e-16 -6.69587 2.10945)
(-2.29734e-16 -4.7778 2.25432)
(-1.72198e-15 -2.39447 4.12436)
(-2.88559e-15 1.09835 6.09148)
(-2.5219e-15 3.99643 6.23614)
(-2.47076e-15 5.7682 6.20695)
(-2.97264e-15 5.96033 6.41667)
(-2.38436e-15 3.09274 6.37749)
(7.92051e-16 -0.876153 9.06811)
(8.37617e-16 -3.25452 11.0465)
(-4.35695e-16 -5.07381 11.0408)
(-2.37982e-15 -5.11143 10.4201)
(-4.16871e-15 -3.12237 7.44628)
(-2.32708e-15 -0.895254 4.12052)
(-3.27711e-15 -4.65677 2.03409)
(-2.52293e-15 -5.58685 2.19009)
(-1.84694e-15 -6.18508 2.21511)
(-1.10161e-15 -6.85564 2.29096)
(-5.34969e-16 -7.20871 2.20145)
(-1.78853e-16 -6.64746 1.97249)
(6.56916e-17 -5.0935 1.85407)
(-1.0064e-15 -3.14319 3.166)
(-2.30671e-15 0.684767 5.33337)
(-2.0682e-15 3.97584 5.5182)
(-2.06992e-15 5.73513 5.4247)
(-2.72659e-15 5.96687 5.747)
(-2.98727e-15 2.92112 5.06351)
(-1.68344e-16 -1.65327 5.53245)
(1.02712e-16 -3.62078 7.91751)
(-1.7675e-15 -4.72146 7.84815)
(-3.39408e-15 -3.76045 6.36058)
(-3.72932e-15 0.0805938 2.46879)
(-3.38909e-15 2.64158 -2.39343)
(-3.22435e-15 -4.69099 2.04545)
(-2.44708e-15 -5.61868 2.19256)
(-1.77029e-15 -6.2025 2.20644)
(-1.04556e-15 -6.84345 2.25747)
(-5.04089e-16 -7.13715 2.1314)
(-1.36498e-16 -6.5486 1.86546)
(2.03839e-16 -5.25295 1.59459)
(-4.54531e-16 -3.78214 2.33728)
(-1.7525e-15 0.188096 4.48195)
(-1.66728e-15 3.96421 4.74827)
(-1.76037e-15 5.69184 4.6133)
(-2.46139e-15 6.02202 5.02877)
(-3.30906e-15 3.44499 4.28699)
(-1.82266e-15 -2.12795 1.8751)
(-1.24067e-16 -4.19958 3.56878)
(-1.79969e-15 -4.31508 4.2488)
(-3.36871e-15 -2.59477 2.74574)
(-2.40864e-15 1.12189 -1.43833)
(-3.46503e-15 2.71987 -3.23072)
(-3.16916e-15 -4.72222 2.05331)
(-2.3691e-15 -5.64712 2.19217)
(-1.69368e-15 -6.21466 2.19697)
(-9.88898e-16 -6.82442 2.22482)
(-4.69e-16 -7.0593 2.06812)
(-1.1467e-16 -6.42977 1.77694)
(2.38321e-16 -5.2847 1.43465)
(-7.28049e-17 -4.2606 1.70393)
(-1.22402e-15 -0.340488 3.61287)
(-1.31059e-15 3.92386 3.95513)
(-1.53494e-15 5.63287 3.889)
(-2.25736e-15 6.0335 4.30261)
(-3.22942e-15 4.18737 3.78539)
(-3.62539e-15 -1.47537 0.441066)
(-1.29664e-15 -4.68921 -0.876774)
(-1.45927e-15 -4.35934 -0.326325)
(-2.2466e-15 -1.66418 -1.47309)
(-2.99624e-15 1.78009 -4.38075)
(-4.08448e-15 2.8686 -4.28328)
(-3.10866e-15 -4.75334 2.05663)
(-2.28654e-15 -5.67282 2.18399)
(-1.61524e-15 -6.21657 2.18012)
(-9.30454e-16 -6.78653 2.18616)
(-4.30437e-16 -6.95595 2.00797)
(-9.90629e-17 -6.28414 1.70722)
(2.26285e-16 -5.23152 1.352)
(1.55653e-16 -4.60447 1.3008)
(-7.60664e-16 -0.83333 2.80372)
(-1.01028e-15 3.8728 3.19197)
(-1.37876e-15 5.56666 3.33317)
(-2.12333e-15 6.02228 3.65792)
(-3.0266e-15 4.71829 3.27921)
(-3.96132e-15 0.266261 0.94029)
(-3.19939e-15 -3.97398 -2.88675)
(-2.63653e-15 -4.03642 -3.83174)
(-2.6416e-15 -1.25554 -5.26732)
(-3.91318e-15 1.92116 -5.80727)
(-4.78722e-15 2.30147 -4.18803)
(-3.05634e-15 -4.77572 2.0576)
(-2.21467e-15 -5.69273 2.18008)
(-1.54715e-15 -6.21993 2.17345)
(-8.79299e-16 -6.76187 2.16442)
(-3.95443e-16 -6.88532 1.9685)
(-8.53206e-17 -6.17802 1.65141)
(2.0079e-16 -5.13892 1.28723)
(2.69958e-16 -4.77358 1.06883)
(-3.96225e-16 -1.14272 2.09622)
(-7.90272e-16 3.81518 2.60356)
(-1.27854e-15 5.4907 2.93011)
(-2.02091e-15 6.00219 3.12745)
(-2.88638e-15 5.0016 2.84776)
(-3.88478e-15 1.54656 1.42508)
(-4.34005e-15 -3.05763 -2.53596)
(-4.08922e-15 -3.43128 -4.3996)
(-4.09793e-15 -1.0779 -5.9543)
(-4.8327e-15 1.37906 -4.93906)
(-5.26963e-15 1.71582 -3.13734)
(-2.95502e-15 -4.80979 2.04578)
(-2.08529e-15 -5.71958 2.14093)
(-1.43013e-15 -6.2068 2.12411)
(-7.90851e-16 -6.68905 2.09145)
(-3.35818e-16 -6.72477 1.89235)
(-6.34554e-17 -5.97548 1.58674)
(1.54283e-16 -4.99701 1.27853)
(2.98909e-16 -4.91795 1.16301)
(-6.89019e-17 -1.54567 1.73391)
(-6.80405e-16 3.40562 2.31358)
(-1.21617e-15 5.33855 2.62488)
(-1.94865e-15 6.05831 2.75576)
(-2.79586e-15 5.41777 2.58762)
(-3.82367e-15 2.991 1.89972)
(-4.78525e-15 -1.82595 -0.89143)
(-4.9133e-15 -2.29388 -2.95309)
(-5.04482e-15 -0.859086 -4.00251)
(-5.2708e-15 0.915477 -3.01391)
(-5.33113e-15 1.18713 -2.30469)
(1.58582e-16 7.69403 13.3342)
(-4.75903e-16 16.6406 26.3304)
(-3.0438e-16 20.1797 31.1047)
(-1.22482e-16 20.7005 31.407)
(-1.99228e-16 19.8423 29.7916)
(-4.20646e-16 18.6311 27.5968)
(-9.45542e-17 17.1478 25.2056)
(3.53231e-16 15.6788 22.93)
(1.00018e-15 14.1946 20.6775)
(1.984e-15 12.6756 18.4774)
(3.33713e-15 11.1165 16.3032)
(4.80297e-15 9.50382 14.1162)
(5.7776e-15 7.8157 11.8827)
(6.08472e-15 6.03125 9.55344)
(6.01648e-15 4.12084 7.10094)
(5.73015e-15 2.20165 4.63465)
(4.49983e-15 0.875772 2.83985)
(2.38784e-15 0.718661 2.33452)
(4.13593e-16 0.703151 2.67272)
(-1.93635e-15 -0.154135 0.169078)
(6.3056e-17 12.2882 20.9842)
(-1.74981e-15 19.4118 31.9573)
(-1.47022e-15 17.9642 29.5796)
(-1.5708e-15 15.058 25.3983)
(-2.22874e-15 13.0425 22.8535)
(-2.74014e-15 11.6843 21.2973)
(-1.55473e-15 10.2988 19.6878)
(-9.30487e-16 8.74724 17.7061)
(5.50408e-16 7.06745 15.527)
(3.104e-15 5.35584 13.2682)
(6.24467e-15 3.63743 11.0307)
(8.43119e-15 1.94786 8.83645)
(8.29025e-15 0.284422 6.64841)
(6.83436e-15 -1.29525 4.47161)
(5.6863e-15 -2.47932 2.70396)
(4.54906e-15 -2.59485 2.3023)
(2.25552e-15 -1.01692 4.17764)
(8.99023e-17 2.02858 7.90189)
(-5.12676e-16 4.87455 10.8907)
(-6.23016e-16 4.09611 8.49384)
(-1.88756e-17 12.5669 21.8975)
(-1.56501e-15 17.1223 30.2369)
(-9.13931e-16 14.6097 26.093)
(-1.13698e-15 12.7058 23.0809)
(-1.81344e-15 11.4995 21.3315)
(-2.42228e-15 10.367 19.6757)
(-1.48734e-15 9.08308 17.8728)
(-1.32713e-15 7.73833 15.8554)
(-5.47399e-16 6.32275 13.6947)
(1.03692e-15 4.91756 11.4425)
(3.13988e-15 3.58464 9.25011)
(4.36382e-15 2.45164 7.32388)
(3.13152e-15 1.66208 5.93263)
(-5.17148e-17 1.47236 5.46572)
(-3.03345e-15 2.23444 6.43164)
(-4.21395e-15 4.13419 9.11667)
(-3.76504e-15 6.81385 13.0153)
(-2.52747e-15 9.28786 16.7467)
(-1.31812e-15 10.6136 18.1898)
(-1.13535e-15 7.61021 14.1648)
(1.13595e-17 10.4925 18.1956)
(2.39082e-16 16.978 29.984)
(1.8139e-16 15.8116 27.4564)
(2.02244e-16 13.8527 23.6308)
(1.67949e-16 12.2844 20.8527)
(-1.71405e-15 11.2614 18.845)
(-1.41434e-15 10.37 17.2743)
(-1.58113e-15 9.59803 15.72)
(-1.91781e-15 8.81893 14.1593)
(-2.05161e-15 8.08122 12.5438)
(-2.29637e-15 7.36599 10.8881)
(-2.11243e-15 6.7236 9.26497)
(-2.12446e-15 6.2295 7.85762)
(-2.29712e-15 6.06285 7.06844)
(-3.12797e-15 6.40999 7.27616)
(-3.80301e-15 7.18563 8.58925)
(-3.45146e-15 8.2643 10.6921)
(-2.34983e-15 8.98239 12.877)
(-1.03299e-15 8.90554 13.6186)
(-1.52412e-15 6.44032 10.9206)
(-2.19568e-18 9.8753 17.0481)
(-3.95859e-17 18.0481 31.2065)
(-3.12697e-17 17.0017 29.3452)
(-2.87268e-17 14.8586 25.0977)
(2.61678e-17 13.2244 22.3031)
(3.40397e-16 12.3356 20.3184)
(3.04681e-16 11.559 18.8086)
(2.99677e-16 10.9191 17.3822)
(2.79552e-16 10.2887 16.0223)
(2.26992e-16 9.69443 14.6898)
(1.31652e-16 9.12291 13.3672)
(-3.53848e-17 8.55341 12.0179)
(-2.46623e-16 7.98544 10.6352)
(-5.15282e-16 7.42602 9.28503)
(-8.05432e-16 6.93715 8.15614)
(-1.01195e-15 6.60177 7.52812)
(-9.14994e-16 6.43855 7.55238)
(-3.82282e-16 6.32248 7.98677)
(2.73354e-16 5.66877 8.04133)
(5.83697e-16 3.56036 5.07918)
(1.92305e-19 10.2112 17.4408)
(5.38442e-18 18.7 31.6207)
(4.18583e-18 17.5173 30.0158)
(3.058e-18 15.4084 25.7351)
(-1.03058e-17 13.7828 23.1536)
(-6.29386e-17 12.952 21.2495)
(-5.71258e-17 12.116 19.728)
(-4.82973e-17 11.3889 18.2097)
(-3.44181e-17 10.6421 16.7537)
(-1.66552e-17 9.92264 15.3409)
(6.65383e-18 9.22205 13.9847)
(4.19028e-17 8.54046 12.68)
(9.63172e-17 7.86611 11.4061)
(1.72523e-16 7.192 10.1357)
(2.54599e-16 6.48905 8.86014)
(3.03168e-16 5.77955 7.59054)
(2.80373e-16 4.98866 6.4224)
(2.02483e-16 4.20962 5.27229)
(1.00987e-16 2.84757 3.93039)
(-2.07443e-17 0.883305 0.049708)
(-1.82365e-20 11.7014 20.0111)
(-3.76772e-19 19.7207 32.6176)
(-1.29032e-19 17.8446 30.3622)
(8.36036e-20 15.9529 26.201)
(1.71916e-18 14.3828 23.9382)
(7.93216e-18 13.662 22.091)
(6.2154e-18 12.7829 20.5802)
(3.31661e-18 12.0467 19.0015)
(-1.05233e-19 11.2626 17.483)
(-3.46422e-18 10.4996 15.9635)
(-6.44061e-18 9.72065 14.4541)
(-1.10752e-17 8.91641 12.9426)
(-2.01712e-17 8.07194 11.4288)
(-3.34938e-17 7.18973 9.90842)
(-4.41009e-17 6.2437 8.38766)
(-4.12077e-17 5.26176 6.82258)
(-1.94796e-17 4.11437 5.20121)
(1.16243e-17 2.92064 3.30543)
(2.3448e-17 0.901777 0.956612)
(1.46072e-17 -0.522772 -2.68947)
(7.28256e-21 14.0664 24.4042)
(-5.02146e-20 20.656 33.5803)
(-1.21766e-19 17.6715 30.2965)
(-1.58207e-19 16.4389 26.6979)
(-1.77162e-19 14.9634 24.9512)
(-3.12251e-19 14.448 23.1368)
(2.692e-19 13.5279 21.6773)
(8.65026e-19 12.8906 20.0866)
(1.38958e-18 12.1363 18.5836)
(1.71884e-18 11.4092 16.9922)
(1.78874e-18 10.5839 15.3231)
(2.0537e-18 9.65922 13.5369)
(3.0993e-18 8.61455 11.6545)
(4.69783e-18 7.47133 9.69361)
(5.18926e-18 6.21482 7.68852)
(2.24345e-18 4.88303 5.61112)
(-5.6437e-18 3.3466 3.47446)
(-2.00529e-17 1.7483 0.955871)
(-4.30758e-17 -0.750737 -1.79305)
(-2.50551e-17 -1.9239 -5.56575)
(-2.23246e-21 16.4496 29.4145)
(2.50765e-20 20.6516 33.449)
(4.22143e-20 16.9734 30.0533)
(4.74658e-20 16.7166 27.4107)
(3.14613e-21 15.1705 26.1629)
(-1.38406e-19 14.9016 24.3908)
(-2.92623e-19 13.8857 23.1352)
(-3.74341e-19 13.4457 21.6465)
(-4.00045e-19 12.6785 20.2685)
(-3.65029e-19 11.9566 18.5684)
(-2.79044e-19 10.9168 16.6056)
(-2.33917e-19 9.69511 14.3463)
(-3.22817e-19 8.28395 11.9536)
(-5.0713e-19 6.76813 9.46863)
(-5.30833e-19 5.12108 6.90474)
(1.36473e-19 3.35765 4.22177)
(2.21873e-18 1.43878 1.58962)
(3.21682e-18 -0.378541 -1.57549)
(-1.87077e-17 -2.92087 -4.23212)
(-6.4278e-17 -3.30517 -8.14875)
(3.75125e-22 17.4184 32.0791)
(-6.25375e-21 19.147 31.4926)
(-9.16618e-21 15.953 29.4429)
(-9.38362e-21 16.1018 27.431)
(8.5265e-21 14.346 26.3726)
(6.04674e-20 14.0839 24.7104)
(8.92593e-20 12.8957 23.7154)
(9.46234e-20 12.4733 22.4)
(8.82395e-20 11.4478 21.1245)
(5.28503e-20 10.4214 19.1351)
(-2.40259e-20 8.77245 16.5975)
(-7.58692e-20 6.99485 13.6341)
(-1.40167e-20 5.10606 10.7)
(3.0605e-20 3.24761 7.73935)
(-1.22633e-19 1.30737 4.6103)
(1.36031e-18 -0.686843 1.44994)
(7.76861e-18 -1.99814 -0.724528)
(5.35883e-18 -3.02207 -2.79402)
(-3.43533e-17 -5.30983 -6.16014)
(-7.94649e-17 -3.79234 -6.73379)
(2.29243e-23 16.531 30.7621)
(1.02631e-21 17.6298 29.5255)
(1.20045e-21 14.9931 28.0335)
(5.20826e-22 14.7929 25.9451)
(-5.2539e-21 13.0314 24.8592)
(-1.5715e-20 12.5072 23.253)
(-1.58554e-20 11.2375 22.2411)
(-5.56177e-21 10.5107 20.966)
(6.71639e-21 9.25674 19.5904)
(-9.40513e-21 7.83089 17.4432)
(-7.07262e-20 5.89176 14.6912)
(-8.96159e-20 3.92292 11.6911)
(9.02036e-20 2.02099 8.87803)
(5.3429e-19 0.269685 6.22179)
(1.18849e-18 -1.30982 3.7785)
(1.42886e-18 -2.62228 1.53528)
(-1.42077e-18 -3.53865 -0.450724)
(-1.13115e-17 -3.20425 -0.989776)
(-2.63839e-17 -0.991207 1.24359)
(-2.39519e-17 1.43577 4.37089)
(-2.95921e-23 15.3696 28.5408)
(-2.62181e-23 17.3074 28.6148)
(1.03769e-22 14.2498 26.5455)
(4.33001e-22 14.1633 24.0543)
(1.38286e-21 12.2148 22.9654)
(1.88871e-21 11.7488 21.0435)
(7.04691e-22 10.2982 19.8336)
(1.24464e-21 9.49722 18.297)
(-1.6925e-22 8.21515 16.8728)
(-2.84629e-20 6.94234 14.9422)
(-1.04043e-19 5.34652 12.5981)
(-1.37482e-19 3.78688 9.99729)
(1.77008e-19 2.35554 7.5159)
(1.26441e-18 1.20486 5.34071)
(3.11542e-18 0.553837 3.90587)
(4.6025e-18 0.898895 4.07665)
(4.26808e-18 2.56939 6.36836)
(2.51223e-18 5.12088 9.83186)
(1.68646e-18 7.23521 12.2603)
(2.38872e-18 5.61638 10.6965)
(1.08758e-23 15.1711 28.1972)
(-5.43791e-23 17.9353 28.8041)
(-1.18182e-22 14.5121 26.6132)
(-1.7999e-22 14.8117 23.7257)
(-1.93171e-22 12.8002 22.6556)
(1.19559e-22 12.6008 20.5004)
(8.12641e-22 11.2167 19.1161)
(1.32219e-21 10.5629 17.326)
(2.09403e-21 9.52962 15.8299)
(4.38943e-21 8.74636 14.2902)
(3.19697e-21 7.92809 12.8408)
(-1.00948e-20 7.22051 11.3725)
(-2.0064e-20 6.57071 9.90926)
(2.54173e-20 6.00709 8.48023)
(1.75347e-19 5.5878 7.22306)
(3.7047e-19 5.39203 6.4477)
(3.5278e-19 5.50514 6.36578)
(-1.02758e-19 5.58226 6.89418)
(-8.79414e-19 5.2754 7.1173)
(-1.50815e-18 3.57593 5.49418)
(-3.34571e-24 15.5831 29.1512)
(2.63836e-23 18.6778 29.6414)
(4.98632e-23 15.0211 27.5114)
(7.97642e-23 15.4761 24.6489)
(9.09245e-23 13.5509 23.5376)
(1.17626e-23 13.3456 21.4927)
(-1.12746e-22 12.1886 20.0786)
(-2.61152e-22 11.5622 18.4031)
(-7.23921e-22 10.7498 16.8914)
(-1.53977e-21 10.0388 15.3721)
(-3.56592e-22 9.34783 13.9177)
(6.4915e-21 8.69244 12.5249)
(1.43321e-20 8.05498 11.1663)
(3.56365e-21 7.39767 9.80053)
(-4.60727e-20 6.67518 8.39058)
(-1.36696e-19 5.85573 6.90186)
(-2.51475e-19 4.86089 5.37304)
(-3.5568e-19 3.79788 3.84853)
(-4.03517e-19 2.23882 2.26514)
(-4.85774e-19 0.666281 -0.536984)
(7.49658e-25 16.1373 30.7552)
(-1.11718e-23 19.1655 29.9445)
(-1.63747e-23 15.2458 28.3613)
(-4.90193e-24 16.1242 25.569)
(4.70349e-23 13.9889 24.5561)
(1.43638e-22 13.9497 22.4993)
(1.99722e-22 12.7395 21.1648)
(1.48453e-22 12.2068 19.532)
(8.53779e-23 11.4241 18.1126)
(1.69184e-22 10.7846 16.651)
(9.09013e-23 10.1137 15.2042)
(-9.31728e-22 9.4241 13.6927)
(-2.39344e-21 8.64693 12.0759)
(-7.18694e-22 7.73288 10.2946)
(9.15674e-21 6.60343 8.33823)
(2.96837e-20 5.29124 6.20527)
(5.686e-20 3.71655 3.95064)
(8.7035e-20 2.12652 1.45986)
(1.03917e-19 -0.259405 -1.11381)
(-1.4958e-19 -1.42594 -4.7298)
(-3.08556e-25 16.3692 32.0897)
(2.17608e-24 19.1846 29.6951)
(6.63934e-24 15.1765 28.9345)
(2.68814e-23 16.3814 26.2285)
(6.1115e-23 14.0386 25.3562)
(6.442e-23 14.1267 23.3657)
(-2.79311e-23 12.843 22.1671)
(-2.2191e-22 12.3929 20.6395)
(-3.70562e-22 11.6027 19.3717)
(-2.54898e-22 11.0269 18.0425)
(2.90192e-23 10.3672 16.7177)
(-1.7045e-22 9.64027 15.1992)
(-1.16414e-21 8.64901 13.3014)
(-1.55682e-21 7.24747 10.8068)
(-3.95398e-22 5.36723 7.75535)
(2.24604e-22 3.33606 4.59568)
(2.62376e-21 1.31963 1.78825)
(-1.08191e-21 -0.484434 -1.77365)
(1.12074e-19 -2.94005 -4.15216)
(1.17411e-20 -3.12213 -7.76955)
(-7.31094e-26 15.7822 31.8453)
(-2.16147e-24 18.6207 28.8156)
(1.49335e-25 14.5493 28.481)
(1.73994e-23 15.6288 25.9194)
(4.31336e-23 13.3842 25.0454)
(2.28626e-23 13.2415 23.2537)
(-1.15337e-22 12.0229 22.0959)
(-3.06464e-22 11.4593 20.7212)
(-2.76688e-22 10.6466 19.5573)
(4.87412e-23 10.0078 18.3427)
(-2.00535e-22 9.24916 17.061)
(-2.27667e-21 8.32345 15.4051)
(-4.72849e-21 6.94052 13.0073)
(-2.79261e-21 4.93687 9.54778)
(2.17739e-21 2.53651 5.40273)
(4.78435e-21 0.742339 2.32255)
(2.92504e-20 0.108167 1.2019)
(7.82626e-20 -1.21752 -1.27134)
(1.18517e-19 -4.0299 -5.19698)
(8.05777e-20 -3.35813 -6.619)
(-6.13978e-26 14.3071 30.7853)
(-5.82415e-25 18.0081 27.6955)
(1.22113e-24 13.3694 27.5698)
(1.23188e-23 14.2253 25.2619)
(2.08656e-23 12.153 24.3458)
(-2.2025e-23 11.6543 22.7992)
(-1.56306e-22 10.5296 21.6334)
(-2.95031e-22 9.77197 20.3827)
(-2.33887e-22 8.94166 19.2418)
(-7.76481e-23 8.19088 18.0873)
(-7.0106e-22 7.38756 16.8441)
(-2.83504e-21 6.44516 15.2848)
(-5.11503e-21 5.22384 13.1347)
(-6.18123e-21 3.72972 10.2958)
(-1.07051e-20 2.20832 7.09162)
(-2.21613e-20 0.857715 3.9383)
(-2.16916e-20 -0.503596 0.778706)
(1.91516e-20 -1.91336 -2.28652)
(6.55631e-20 -2.82732 -3.95945)
(5.85315e-20 -1.99731 -2.88661)
(-9.29707e-27 11.176 28.4686)
(-6.11848e-25 16.9113 24.8307)
(-8.35932e-25 11.9075 25.2297)
(2.54971e-24 12.5388 23.5187)
(5.5277e-24 10.7879 22.7778)
(-1.7644e-23 10.1017 21.6915)
(-1.01992e-22 9.08163 20.7823)
(-2.34431e-22 8.27781 19.8422)
(-3.07514e-22 7.47386 18.9489)
(-2.19049e-22 6.74724 18.0646)
(-1.93857e-22 6.06077 17.1868)
(-1.06031e-21 5.42631 16.2887)
(-3.81404e-21 4.84196 15.328)
(-8.44614e-21 4.30258 14.2055)
(-1.38858e-20 3.76987 12.7796)
(-1.98966e-20 3.15883 10.9308)
(-2.63049e-20 2.38864 8.53138)
(-2.75009e-20 1.45267 5.37922)
(-1.42572e-20 0.271966 1.60394)
(5.38598e-21 -0.689487 -1.25829)
(-3.80903e-27 2.58208 17.047)
(-1.31637e-25 8.04126 13.626)
(-2.1336e-25 5.16571 14.4771)
(6.28883e-25 4.99198 14.0762)
(2.14469e-24 4.07986 14.0284)
(-2.62093e-24 3.5281 13.8458)
(-3.04458e-23 2.96576 13.6797)
(-9.391e-23 2.51072 13.4842)
(-1.62818e-22 2.12174 13.278)
(-1.26112e-22 1.81255 13.0618)
(1.88534e-22 1.57835 12.8386)
(9.00314e-22 1.41655 12.6012)
(1.92811e-21 1.3189 12.3372)
(2.97762e-21 1.28917 12.0291)
(3.75508e-21 1.34692 11.6593)
(4.15524e-21 1.46788 11.2382)
(4.05041e-21 1.68049 10.7264)
(3.0771e-21 2.27794 9.81955)
(1.31412e-21 2.46389 8.45625)
(-2.10316e-23 -0.25277 6.40119)
(-8.08103e-28 -2.58209 17.047)
(1.4378e-25 -8.04128 13.626)
(3.16576e-25 -5.16572 14.4771)
(-2.98136e-25 -4.99201 14.0762)
(-1.27848e-24 -4.0799 14.0284)
(4.78208e-24 -3.52817 13.8458)
(3.4687e-23 -2.96586 13.6797)
(9.80675e-23 -2.51086 13.4842)
(1.55281e-22 -2.12194 13.278)
(7.91345e-23 -1.8128 13.0619)
(-3.17325e-22 -1.57862 12.8386)
(-1.15063e-21 -1.41679 12.6012)
(-2.30811e-21 -1.31903 12.3369)
(-3.44577e-21 -1.28919 12.0287)
(-4.23857e-21 -1.34688 11.6588)
(-4.59509e-21 -1.46784 11.2377)
(-4.41481e-21 -1.68047 10.726)
(-3.32548e-21 -2.27788 9.81921)
(-1.40667e-21 -2.46373 8.45605)
(3.2797e-23 0.25282 6.40104)
(-3.04886e-27 -11.1758 28.4683)
(6.99121e-25 -16.9113 24.8302)
(1.271e-24 -11.9074 25.2293)
(-1.59128e-24 -12.5388 23.5182)
(-3.70968e-24 -10.7879 22.7772)
(2.12345e-23 -10.1018 21.6908)
(1.06452e-22 -9.08169 20.7815)
(2.30833e-22 -8.27791 19.8415)
(2.76245e-22 -7.47402 18.9482)
(1.4678e-22 -6.74747 18.0639)
(1.21762e-22 -6.06116 17.1863)
(1.13932e-21 -5.42698 16.2885)
(4.28239e-21 -4.84303 15.3281)
(9.46599e-21 -4.30396 14.2059)
(1.54e-20 -3.7713 12.78)
(2.17764e-20 -3.16008 10.9313)
(2.85205e-20 -2.38982 8.53234)
(2.96717e-20 -1.45421 5.38098)
(1.51395e-20 -0.274069 1.60629)
(-6.40743e-21 0.68839 -1.25758)
(5.69758e-26 -14.3068 30.7846)
(7.14904e-25 -18.0076 27.6949)
(-9.60754e-25 -13.369 27.5691)
(-1.2771e-23 -14.2247 25.2613)
(-2.23917e-23 -12.1524 24.3452)
(2.06749e-23 -11.6535 22.7986)
(1.52842e-22 -10.5288 21.633)
(2.72809e-22 -9.77107 20.3823)
(1.73167e-22 -8.94065 19.2415)
(3.42548e-23 -8.18966 18.0869)
(9.24576e-22 -7.38593 16.8433)
(3.7142e-21 -6.44292 15.283)
(6.79103e-21 -5.22132 13.1322)
(8.35092e-21 -3.7283 10.2944)
(1.33485e-20 -2.20931 7.09358)
(2.59805e-20 -0.860018 3.94257)
(2.61633e-20 0.502178 0.782181)
(-1.76381e-20 1.91195 -2.28397)
(-6.93801e-20 2.82433 -3.95652)
(-6.46925e-20 1.99386 -2.8773)
(8.15272e-26 -15.7824 31.8452)
(2.56316e-24 -18.6203 28.8158)
(9.62637e-26 -14.5494 28.4811)