/*--------------------------------*- C++ -*----------------------------------*\
| =========                 |                                                 |
| \\      /  F ield         | OpenFOAM: The Open Source CFD Toolbox           |
|  \\    /   O peration     | Version:  4.1                                   |
|   \\  /    A nd           | Web:      www.OpenFOAM.org                      |
|    \\/     M anipulation  |                                                 |
\*---------------------------------------------------------------------------*/
FoamFile
{
    version     2.0;
    format      ascii;
    class       volScalarField;
    location    "11";
    object      p;
}
// * * * * * * * * * * * * * * * * * * * * * * * * * * * * * * * * * * * * * //

dimensions      [0 2 -2 0 0 0 0];

internalField   nonuniform List<scalar> 
1280
(
-30.2165
-12.2059
-32.4951
-69.0144
-33.4163
-72.2215
-113.33
-122.167
-110.477
-149.804
-238.191
-200.313
-278.762
-438.689
-377.426
-577.154
-838.681
-1013.77
-899.944
-2557.43
-1016.81
524.215
1243.47
1634.09
1513.15
2045.04
-1720.55
-299.16
-101.273
-193.593
-218.635
-256.016
-317.604
-399.207
-492.867
-619.462
-745.583
-945.942
-1113.04
-1521.53
-2674.28
-1660.83
-1128.53
-818.474
815.496
216.926
317.453
376.651
237.339
497.352
482.798
170.396
532.341
490.965
357.493
824.142
-365.971
-617.132
-1190.54
-2801.48
-586.651
-50.3779
115.719
309.906
393.119
450.384
456.194
436.991
395.944
346.846
309.887
316.67
160.382
-1064.44
2092.9
1375.51
1415.81
1122.45
752.115
-264.687
-1413.31
-339.359
-455.583
-369.915
-265.397
-164.243
-168.958
-97.5945
-61.3318
-68.84
-34.8526
-17.0603
-10.4496
-6.46109
5.99066
7.64016
7.75153
12.2287
2.03306
2.32338
82.8393
-19.5871
28.0062
30.4729
14.4404
-79.8238
-46.1007
-407.372
-339.941
-173.364
-105.834
52.1845
157.695
112.112
29.3588
-0.538181
-0.467056
6.97027
10.5783
175.164
55.5243
74.974
44.4593
20.1761
-84.5604
-109.386
-532.713
-416.945
-139.68
-11.3328
254.623
420.702
301.965
90.7515
-6.45041
-2.29826
12.6395
39.9629
144.263
71.9011
97.077
80.5383
54.9633
-106.914
-349.23
-479.141
-518.302
-116.465
6.78704
338.602
578.685
444.406
149.38
-22.2912
-9.28645
-5.35914
39.7032
117.861
109.809
108.394
88.331
61.8281
-84.6528
-418.79
-444.981
-747.188
-167.243
15.2938
459.305
761.015
605.988
205.798
-68.002
-38.166
-17.9672
80.5052
58.7135
124.766
90.6433
74.2909
46.9296
-72.9739
-354.692
-538.05
-885.15
-127.961
43.267
524.141
949.508
727.223
239.906
-163.469
-113.915
-90.2182
50.0632
-4.38003
136.55
51.6262
26.5429
1.38416
-76.5973
-258.329
-721.141
-889.644
-311.364
-59.1717
731.39
1109.06
791.318
257.124
-233.925
-161.81
-55.9891
183.395
-70.2051
102.964
-7.79937
-29.4655
-21.4261
-42.0929
-114.391
-700.894
-761.152
-546.659
-83.3727
969.446
1204.1
871.185
318.115
-228.492
-190.716
-234.167
35.0094
-107.418
21.9672
-47.5241
-33.8379
52.7236
95.1482
91.7876
-520.333
-608.37
-500.938
-3.94671
968.126
1171.19
938.918
436.481
-12.5468
1.50222
339.522
483.141
-75.4963
-65.1355
-21.9476
28.5546
173.366
247.153
283.681
-300.848
-579.398
-504.474
-33.3196
927.989
1061.51
858.538
416.395
143.779
230.555
1065.5
4038.35
60.7088
-104.046
42.4444
86.5939
280.545
366.972
422.164
-65.3669
-440.439
-417.334
-67.2051
785.079
866.488
660.538
304.376
187.73
417.162
1207.94
2584.17
248.708
-148.514
108.681
139.714
390.154
467.798
508.732
119.114
-214.508
-238.704
-59.69
526.89
581.009
428.958
207.408
206.56
473.62
1285.61
2941.51
354.506
-178.215
165.169
186.299
495.174
538.694
530.486
212.456
-22.8583
-59.9471
-1.9371
305.066
261.526
177.04
136.752
225.776
279.735
760.446
3450.64
332.489
-135.435
180.583
218.316
557.061
565.434
499.601
237.239
74.2204
20.8054
11.397
160.336
83.7443
5.90368
56.3424
111.082
138.579
341.416
676.059
253.102
-100.565
183.924
229.722
564.33
566.175
451.072
227.457
101.169
30.1718
-31.1412
44.3041
66.7817
17.6299
41.0794
59.6733
74.7355
18.5088
87.8787
203.854
-69.7848
173.757
221.128
515.369
552.31
400.321
212.177
94.2346
14.7142
-39.15
-26.0599
40.5753
7.91544
18.5672
38.1352
56.0781
42.4839
108.258
145.084
-45.0298
153.565
198.677
432.193
558.75
340.17
187.681
66.4826
-22.2629
-43.5934
-17.4423
52.2251
56.1916
19.1384
26.8049
36.0481
6.16447
82.3274
98.8652
-28.6473
124.922
165.748
354.619
577.204
274.636
170.259
42.0061
-60.7495
-63.8335
-24.9639
52.0486
62.1805
24.3846
20.4189
31.2494
19.7438
73.8563
58.7961
-18.8537
92.3399
130.975
291.089
539.112
147.005
125.749
12.6938
-77.8722
-43.1549
-42.3635
37.3914
44.4179
15.283
16.6263
25.7121
5.36982
35.8849
17.2082
-17.7059
58.0864
99.8804
241.719
431.774
71.2296
109.855
3.30631
-79.2466
-34.0686
-51.0442
26.3268
30.6923
10.3911
15.8919
20.9361
8.5101
19.8101
-6.21357
-24.5749
-8.91489
8.02782
86.295
139.852
-23.7766
2.75279
-5.69289
-39.3752
-20.7962
-46.8878
-1.14305
12.4664
11.5201
9.82551
3.50743
-4.7156
15.5504
6526.4
6640.36
6560.64
6509.7
6338.59
6186.46
5972.38
5750.88
5525.62
5318.38
5121.93
4942.02
4779.02
4633.03
4505.07
4393.39
4301.81
4219.72
4168.17
4094.48
2450.15
2661.14
2703.93
2838.37
2900.82
2991.47
3055.74
3120.14
3172.6
3218.2
3256.5
3289.36
3317.29
3342.56
3364.37
3386.82
3404.92
3428.32
3442.13
3465.01
1740.93
1977.66
2053.63
2222.71
2335.44
2464.11
2581.42
2694.64
2803.15
2906
3003.51
3095.71
3181.7
3262.85
3336.69
3406.91
3467.26
3530.44
3573.06
3628.55
-1591.55
-1312.91
-1198.64
-1026.58
-860.139
-696.618
-517.166
-339.217
-150.03
45.4697
249.858
462.901
682.105
907.183
1128.7
1348.8
1551.13
1756.69
1914.09
2173.58
-3903.66
-3946.91
-3956.36
-4051.38
-4093.43
-4193.69
-4271.27
-4365.65
-4437.4
-4491.45
-4511.47
-4488.89
-4412.64
-4270.35
-4061.77
-3778.45
-3468.74
-3133.42
-2904.45
-2506.66
-2676.18
-3111.9
-3207.91
-3505.97
-3724
-4024.78
-4305.66
-4608.92
-4897.58
-5188.84
-5472.14
-5747.91
-6007.16
-6238.4
-6415.15
-6532.73
-6593.44
-6536.26
-6494.65
-6262.16
2222.61
1662.49
1461.02
1076.6
769.04
383.767
21.3689
-347.438
-675.248
-971.837
-1211.34
-1390.67
-1494.35
-1522.94
-1472.26
-1373.6
-1306.3
-1270.54
-1346.32
-1676.11
7526.36
7352.86
7301.55
7210.45
7154.02
7060.17
6972.13
6842.95
6698.99
6501.93
6253.98
5924.81
5509.77
5019.33
4517.72
4094.29
3811.44
3717.34
3757.43
3398.59
6250.65
6324.59
6351.01
6373.87
6419.86
6450.2
6499.69
6502.28
6510.59
6488.27
6464.49
6431.26
6401.82
6375.56
6349.63
6301.52
6230.69
6119.98
6095.19
5984.24
5848.39
5989.27
6050.58
6108.16
6210.78
6262.58
6369.96
6421.17
6493.02
6523.55
6538.67
6519.09
6478.88
6438.07
6436.93
6491.43
6587.55
6686.57
6757.57
6799.03
3938.52
4106.27
4190.24
4240.11
4386.12
4420.34
4551.01
4612.77
4716.12
4799.02
4890.75
4979.48
5067
5154.45
5240.89
5336.91
5433.12
5551.13
5636.06
5757.58
2545.51
2692.64
2826.84
2854.78
3050.14
3074.78
3240.99
3307.33
3434.19
3527.63
3634.65
3735.34
3835.45
3936.07
4032.75
4135.19
4227.37
4338.17
4412.1
4527.42
457.979
529.528
723.431
702.481
945.993
948.904
1158.81
1232.61
1405.39
1533.18
1692.91
1847.7
2009.23
2175.46
2338.55
2509.04
2663.54
2845.97
2980.43
3213.18
-1285.81
-1457.58
-1349.11
-1553.08
-1449.78
-1640.33
-1592.95
-1726.22
-1731.84
-1811.51
-1837.27
-1868.18
-1857.37
-1798.14
-1687.87
-1522.83
-1342.9
-1121.26
-966.517
-648.178
354.652
16.0487
39.0039
-294.518
-315.087
-631.656
-735.677
-1023.74
-1214.53
-1500.71
-1762.65
-2061.5
-2341.02
-2596.68
-2805.88
-2962.94
-3060.93
-3091.47
-3140.84
-3000.77
3306.75
3001.02
3101.54
2779.5
2889.05
2651.23
2685.02
2546.09
2523.05
2438.28
2392.3
2327.01
2269.22
2196.52
2109.15
1992.97
1831.73
1645.13
1434.26
1147.27
5098.63
4867.76
5060.22
4652.22
4803.92
4533.01
4555.37
4422.34
4399.2
4343.38
4328.92
4319.18
4329.39
4349.03
4377.78
4409.04
4429.64
4410.49
4394.64
4317.68
4153.65
3806.63
4414.47
3902.57
4151.95
3883.88
3865.29
3695.51
3586.33
3444.69
3321.68
3202.15
3099.57
3013.09
2945.87
2892.17
2851.34
2857.89
2928.16
3135.1
2955.86
1309.92
2067.73
1133.21
1072.3
560.274
269.549
-93.8662
-382.893
-649.654
-861.668
-1022.9
-1121.44
-1152.56
-1107.47
-977.604
-774.086
-499.534
-155.283
173.17
55703.5
49202.3
45748.5
41424.6
37819.1
34258.5
30986.1
27881.5
24968.5
22216
19614.3
17146.7
14798.4
12553
10413.2
8348.81
6285.26
4543.25
2872.57
24.5132
54001
47499.8
44046.1
39722.3
36116.9
32556.3
29284.1
26179.6
23266.7
20514.3
17912.6
15445.2
13096.9
10851.5
8711.71
6647.25
4583.45
2840.85
1169.5
-1677.64
1254.66
-390.907
367.004
-567.221
-628.035
-1139.85
-1430.48
-1793.75
-2082.68
-2349.32
-2561.22
-2722.33
-2820.69
-2851.59
-2806.26
-2676.16
-2472.52
-2197.69
-1853.23
-1524.28
2459.26
2113.83
2722.41
2211.68
2461.99
2195.06
2177.49
2008.86
1900.8
1760.35
1638.55
1520.3
1418.99
1333.68
1267.15
1213.43
1172.08
1179.41
1250.91
1458.95
3429.84
3201.5
3394.63
2988.43
3140.94
2871.15
2893.96
2761.33
2738
2681.67
2666.15
2654.98
2663.46
2681.27
2708.33
2738.51
2759.28
2740.92
2724.86
2648.48
1660.99
1357.57
1459.3
1138.41
1248.21
1010.27
1043.28
903.237
878.486
791.765
743.631
676.366
617.138
543.738
456.035
340.078
181.476
-2.73169
-210.194
-493.883
-1207.83
-1535.54
-1507.42
-1831.47
-1849.32
-2161.87
-2264.49
-2551.56
-2742.33
-3029.11
-3292.23
-3592.55
-3873.77
-4130.73
-4341.68
-4499.56
-4597.44
-4630
-4677.72
-4542.7
-2595.45
-2715.71
-2620.11
-2890.13
-2799.75
-3039.79
-3015.05
-3181.31
-3209.57
-3310.44
-3356.96
-3405.66
-3409.09
-3360.09
-3255.58
-3092.5
-2911.49
-2687.57
-2529.96
-2214.06
-527.701
-460.038
-217.32
-354.187
-192.261
-236.687
-131.184
-103.565
1.443
95.0566
226.905
361.43
509.595
668.149
826.947
994.15
1147.14
1324.58
1456.02
1674.69
1237.98
1448.38
1538.69
1555.88
1601
1617.33
1654.49
1686.38
1738.39
1809.34
1906.07
2004.86
2101.31
2197.66
2288.72
2381.36
2462.08
2552.26
2610.2
2690.37
2186.05
2355.53
2377.98
2424.41
2444.66
2477.74
2516.88
2564.94
2623.38
2694.91
2774.35
2859.65
2941.26
3016.9
3083.32
3149.71
3211.02
3284.48
3334.53
3408.57
3514.4
3624.25
3632.34
3679.78
3716.95
3767.2
3816.69
3874.09
3903.2
3959.93
4035.1
4076.73
4058.02
3997.64
3937.35
3918.2
3945.58
3994.6
4023.92
4042.52
4088.7
4060.99
4005.48
3980.02
3958.98
3944.15
3937.87
3918.8
3817.62
3745.13
3712.7
3647.39
3580.23
3515.87
3474.28
3464.15
3480.32
3484.65
3499.35
3449.56
3725.84
3533.91
3482.97
3433.12
3425.76
3422.91
3427.44
3390.67
3437.55
3553.45
3509.82
3372.87
3239.05
3060.71
2892.11
2750.59
2664.51
2671.76
2693.89
2413.41
680.437
308.655
188.312
-26.8434
-223.827
-476.924
-769.962
-1133.79
-1523.22
-1968.55
-2421.76
-2770.5
-3029.74
-3187.48
-3239.34
-3210.76
-3127.49
-3030.08
-3020.84
-3035.9
-3028.72
-3194.97
-3226.79
-3351.34
-3475.51
-3645.68
-3835.29
-4037.12
-4208.32
-4324.59
-4346.75
-4245.81
-4126.93
-3985.68
-3833.73
-3667.89
-3511.41
-3323.78
-3184.08
-2822.72
-698.979
-488.298
-374.566
-252.964
-141.179
-29.6662
92.7341
224.665
357.23
486.509
611.382
735.229
845.071
955.355
1064.82
1199.68
1342.57
1568.19
1817.03
2181.2
1896.99
2156.67
2246.29
2404.08
2534.9
2681.43
2835.22
2995.51
3155.85
3314.81
3475.37
3640.03
3805.88
3972.87
4132.77
4289.83
4430.27
4565.41
4662.09
4773.29
4182.83
4313.21
4343.4
4432
4491.47
4564.39
4633.45
4703.58
4770.64
4835.06
4897.07
4958.05
5015
5067.67
5111.55
5149.75
5177.55
5199.1
5210.25
5210.04
4159.95
4296.13
4337
4425.41
4481.28
4538.98
4581.02
4614.98
4639.35
4657.09
4668.48
4674.12
4672.58
4668.93
4661.58
4659.61
4655.12
4662.65
4663.15
4683.59
7418.22
7506.8
7473.3
7443.76
7354.07
7268.76
7132.12
6977.34
6814.39
6660.55
6509.65
6364.35
6225.36
6098.75
5983.63
5886.54
5801.97
5735.8
5687.07
5640.82
)
;

boundaryField
{
    outletWall
    {
        type            fixedValue;
        value           uniform 0;
    }
    fineWalls
    {
        type            zeroGradient;
    }
    fineFrontAndBack
    {
        type            zeroGradient;
    }
    fineplugLeft
    {
        type            cyclicAMI;
        value           nonuniform List<scalar> 
20
(
2971.28
3111.93
3186.58
3292.33
3390.82
3505.48
3626.58
3759.7
3902.41
4053.81
4215.98
4400.24
4540.87
5097.63
5358.18
5373.5
5534.58
5497.21
5417.13
5017.76
)
;
    }
    fineplugRight
    {
        type            cyclicAMI;
        value           nonuniform List<scalar> 
20
(
4395.32
4539.58
4611.78
4703.55
4787.85
4876.98
4970.24
5067.68
5170.67
5277.09
5390.42
5514.84
5613.95
6200.11
6233.59
6158.36
6238.17
6203.13
6155.86
5881.64
)
;
    }
    inletOutletLeft
    {
        type            cyclicAMI;
        value           nonuniform List<scalar> 
20
(
2971.28
3111.93
3186.58
3292.33
3390.82
3505.48
3626.58
3759.7
3902.41
4053.81
4215.98
4400.24
4540.87
5097.63
5358.18
5373.5
5534.58
5497.21
5417.13
5017.76
)
;
    }
    inletLeft
    {
        type            zeroGradient;
    }
    inletWallsLeft
    {
        type            zeroGradient;
    }
    inletFacesLeft
    {
        type            zeroGradient;
    }
    inletOutletRight
    {
        type            cyclicAMI;
        value           nonuniform List<scalar> 
20
(
4395.32
4539.58
4611.78
4703.55
4787.85
4876.98
4970.24
5067.68
5170.67
5277.09
5390.42
5514.84
5613.95
6200.11
6233.59
6158.36
6238.17
6203.13
6155.86
5881.64
)
;
    }
    inletRight
    {
        type            zeroGradient;
    }
    inletWallsRight
    {
        type            zeroGradient;
    }
    inletFacesRight
    {
        type            zeroGradient;
    }
}


// ************************************************************************* //
