/*--------------------------------*- C++ -*----------------------------------*\
| =========                 |                                                 |
| \\      /  F ield         | OpenFOAM: The Open Source CFD Toolbox           |
|  \\    /   O peration     | Version:  4.1                                   |
|   \\  /    A nd           | Web:      www.OpenFOAM.org                      |
|    \\/     M anipulation  |                                                 |
\*---------------------------------------------------------------------------*/
FoamFile
{
    version     2.0;
    format      ascii;
    class       surfaceScalarField;
    location    "11";
    object      phi;
}
// * * * * * * * * * * * * * * * * * * * * * * * * * * * * * * * * * * * * * //

dimensions      [0 3 -1 0 0 0 0];

internalField   nonuniform List<scalar> 
2360
(
22471.4
26859.4
-4387.99
26859.4
26859.4
33219.5
-6360.08
33219.5
33219.5
33219.5
42700.6
-9481.12
42700.6
42700.6
56211.7
-13511.1
56211.7
56211.7
76741.7
-20530
76741.7
76741.7
106761
-30019.7
106761
106761
116772
131087
145698
159586
172478
184395
149569
46120.1
160176
170179
179618
188512
196867
204689
211979
218734
224938
230541
235468
239443
242641
135777
106864
135777
135777
135777
38177
97600.4
38177
38177
38177
11964.2
26212.8
11964.2
11964.2
-3021.1
14985.3
-3021.08
-3021.1
-3021.08
-101534
98513
-101534
-101534
-101534
-235985
134451
-232164
-226893
-220407
-213119
-205186
-196743
-187899
-178745
-169353
-159757
-149940
-139866
-129542
-142250
23231.8
-131670
-120770
-109504
-97853.2
-86090.3
-77216.6
-77216.6
-77216.5
-51754.1
-25462.4
-51754.1
-51754.1
-37008.6
-14745.5
-37008.6
-37008.6
-24628
-12380.7
-24628
-24628
-14512.6
-10115.3
-14512.6
-14512.6
-14512.6
-5202.48
-9310.16
-5202.48
-5202.47
3822.68
-9025.15
-42107.1
-410.913
-38190
-56406.4
-41313.7
-70475
-46002.7
-76880.1
-48394.5
-83870.6
-41051.4
-74877.3
-24384.5
-13767.6
-15048
64140.4
-9945.31
101470
-4983.17
111893
-1040.97
116681
2104.67
120074
6102.99
77818.4
10318.3
39313.2
12569.4
6272.08
12593.9
2735.63
10272.5
-4745
8580.19
5167.11
11038.2
-45338.4
-4895.3
-46515.5
-55229.4
-53777
-63213.4
-60825.8
-69831.3
-64284.1
-80412.2
-56015.6
-83145.8
-29897.8
-39885.4
-13710
47952.6
-10769.3
98529.3
-6400.07
107524
-2452.18
112733
1035.82
116586
6903.55
71950.7
14718.2
31498.5
19148.4
1841.89
19292.3
2591.73
14553.9
-6.60434
9339.5
10381.5
11067.5
-51953
-6072.12
-56684.1
-50498.3
-65406.2
-54491.3
-73169.4
-62068.1
-77344.9
-76236.8
-71360.6
-89130
-43334.3
-67911.7
-15962.1
20580.4
-10937.5
93504.7
-8894.02
105480
-5112.19
108951
-1118.19
112592
6837.11
63995.4
18925.5
19410.1
26393.3
-5625.86
26349.4
2635.62
19602
6740.76
11293.7
18689.9
12245.9
-60857.5
-4041.82
-69051.8
-42304
-79711.8
-43831.4
-88634
-53145.8
-93212.1
-71658.7
-88963.9
-93378.3
-64931.9
-91943.7
-27041.9
-17309.7
-11107.7
77570.5
-8563.38
102936
-7247.62
107636
-4529.2
109873
6158.31
53307.9
21638.8
3929.54
30748.7
-14735.8
30450.7
2933.69
21855.6
15335.9
12138.6
28406.9
12003.8
-71284.9
1923.3
-83145.4
-30443.6
-94492.7
-32484.1
-102575
-45063
-105618
-68615.8
-102132
-96864.4
-84929.6
-109146
-46686.4
-55552.9
-19189.9
50074
-13953.1
97699.2
-13564.7
107247
-9451.96
105760
4002.84
39853.1
19089.7
-11157.4
25358.2
-21004.3
26875.3
1416.64
21419.8
20791.4
12467.9
37358.8
9726.21
-81674.5
11433.2
-95457.6
-16660.4
-103876
-24065.3
-107074
-41865.4
-105965
-69724.4
-103182
-99647.6
-94639.1
-117689
-67773.2
-82418.8
-38605.9
20906.6
-28743
87836.4
-25216.2
103720
-16733.9
97278.1
-4566.56
27685.7
3237.75
-18961.7
5146.9
-22913.4
11234.3
-4670.77
14326.1
17699.6
15672.6
36012.4
-63.602
-88144.8
22589.9
-99416
-5389.24
-98633.7
-24847.6
-91971.9
-48527.3
-86214.9
-75481.4
-88005.4
-97857.1
-93101.9
-112593
-84772.8
-90747.9
-61175.8
-2690.4
-45943.7
72604.2
-37185.8
94962.5
-24776.9
84869.1
-18982.3
21891.1
-22245.6
-15698.3
-25319.6
-19839.4
-17713.7
-12276.7
-2729.53
2715.42
19531.2
13751.7
42699.4
-85279.4
30664.7
-87290.1
-3378.6
-74452
-37685.7
-60705
-62274.3
-56429.6
-79756.7
-67470.5
-86816.3
-86968.7
-93094.5
-95721.9
-81994.7
-80277.5
-18134.8
-61770
54096.7
-49034.9
82227.5
-36644.8
72478.9
-39373.1
24619.4
-53278.7
-1792.66
-65132.7
-7985.41
-72268.5
-5140.85
-78586.8
9033.65
-97953
33117.9
79197.1
-74358.8
31072.7
-65446.1
-12291.3
-48624.4
-54507.4
-39229.1
-71669.6
-42639.5
-76346.4
-61167.6
-68288.1
-88032
-66230.1
-106550
-63477.2
-98836.6
-25847.8
-78440.1
33700.2
-63765.3
67552.6
-58895.9
67609.6
-72299.2
38022.7
-91716.3
17624.5
-106192
6490.28
-117271
5937.87
-124656
16418.4
-123774
32236.2
53936.3
-65416.6
21721.6
-49800.7
-27907.2
-38539.1
-65769
-37976.5
-72232.2
-47739.3
-66583.6
-68992.3
-47035.1
-96276.4
-38946
-118934
-40819.4
-122176
-22606.2
-108517
20041.5
-96391.2
55426.8
-96480.9
67699.3
-108214
49755.4
-118709
28119.5
-123714
11495.7
-123807
6031.14
-113669
6279.73
-82601.4
1169.03
-13679.8
-60366.6
83.0345
-41090.8
-47183
-38979.7
-67880.1
-42711.2
-68500.7
-54694.1
-54600.7
-76826.6
-24902.6
-102108
-13665
-125107
-17820.2
-138131
-9582.27
-136865
18776.2
-129719
48280.2
-125801
63781
-126543
50497.5
-126848
28425.1
-125922
10569.4
-122306
2415.38
-110366
-5660.67
-82032.5
-27164.4
-69499.5
-52974.7
-23484.3
-39107.4
-61050.3
-42148.3
-64839.2
-44551.3
-66097.7
-55749.7
-43402.2
-77001.2
-3651.13
-98959.3
8293.08
-118797
2017.04
-133753
5374.59
-139268
24290.5
-136091
45103.9
-127944
55634
-120489
43042.6
-115772
23707.8
-114547
9344.45
-115779
3646.88
-116624
-4815.55
-114832
-28956.5
-86730.7
-46851.2
-35605.2
-42517.4
-65384.1
-43508.2
-63848.4
-43511
-66095
-50432.7
-36480.5
-66248.7
12164.9
-83643.5
25687.9
-99872.9
18246.5
-112916
18417.4
-119166
30541.2
-116621
42559
-105529
44541.4
-90917.3
28431
-77579.9
10370.4
-67439.9
-795.556
-58545.8
-5247.23
-54212.7
-9148.68
-68773.2
-14396
-48640.2
-46162.7
-41796.9
-44369.9
-67177
-43487
-64731.3
-42084.7
-67497.3
-42677.8
-35887.5
-50955.5
20442.6
-64175.3
38907.7
-77004.3
31075.5
-86798.5
28211.6
-90882.7
34625.3
-86710.5
38386.9
-74207.9
32038.8
-57772.9
11996
-42640.4
-4762.08
-29389.4
-14046.6
-15141.1
-19495.5
-2886.36
-21403.5
7187.97
-24470.3
4667.89
-45611.6
-45688.1
-44669.7
-68118.8
-43481.6
-65919.4
-41156.6
-69822.3
-35919.3
-41124.8
-36348.8
20872.1
-46053.1
48612
-56700.5
41722.9
-64246.6
35757.7
-66688.4
37067.2
-61227.1
32925.6
-47178.1
17989.7
-30716.5
-4465.61
-19025.4
-16453.2
-10886.3
-22185.7
-3463.46
-26918.3
1349.96
-26216.9
14282.4
-37402.7
-11069.4
-45395.7
-47947
-44757.6
-68756.8
-43306.9
-67370.1
-40791.8
-72337.4
-31992.6
-49924
-24504.6
13384.1
-30636
54743.4
-40124.5
51211.4
-46813.4
42446.6
-48200.4
38454.2
-40212.1
24937.3
-22688.7
466.315
-9369.71
-17784.6
-5238.42
-20584.5
-2754.73
-24669.4
374.398
-30047.4
3104.41
-28946.9
10552.8
-44851
-21046.7
-45154.4
-49280.6
-44540.3
-69370.9
-42986.3
-68924.1
-40791.6
-74532.1
-31580.5
-59135.1
-17220.4
-976
-18441.3
55964.3
-26534.5
59304.6
-32762.1
48674.2
-32573.6
38265.6
-20567.4
12931.1
-5887.8
-14213.3
1435.16
-25107.6
2803.89
-21953.2
1603.94
-23469.4
2397.96
-30841.4
4754.51
-31303.4
8173.95
-48270.5
-26383.8
-44885
-49976.3
-44309.8
-69946
-42669.3
-70564.6
-40705.6
-76495.8
-33041.1
-66799.6
-14905.7
-19111.4
-10005.5
51064.1
-15803.3
65102.4
-21696.4
54567.3
-21058.8
37628
-9817.86
1690.17
-762.408
-23268.8
3815.35
-29685.3
6008.83
-24146.7
4019.24
-21479.9
3677.61
-30499.8
5580.54
-33206.4
7308.5
-49998.4
-28556.4
-44683.3
-50168.6
-44116.6
-70512.8
-42346.6
-72334.6
-40401.9
-78440.5
-34788.4
-72413.2
-16613
-37286.8
-5274.89
39726
-6810.04
66637.6
-12644.2
60401.4
-12661.2
37645.1
-3509.18
-7461.83
2456.29
-29234.2
5381.82
-32610.9
6476.02
-25240.9
4576.71
-19580.5
4184.59
-30107.7
5609.41
-34631.2
6717.08
-51106.1
-28199.4
-44601.4
-43907.6
-42032.5
-39841.6
-36211.6
-23281
-8073.21
-2465.65
-4408.35
-4301.48
506.66
4082.99
6108.05
6286.17
4501.08
4393.94
5667.16
6541.2
1136.69
-11147.3
3073.32
-16251.8
4829.56
-16367.2
6270.31
-15328.9
7398.2
-14019.8
8299.27
-12817.4
8765.31
-11760.4
9072.42
-10914.2
9235.16
-10165.9
9261.41
-9465.28
9148.72
-8781.41
8897.05
-8103.4
8504.04
-7428.16
7962.87
-6749.49
7264.22
-6056.34
6387.3
-5326.8
5304.2
-4519.48
3952.45
-3575.77
2225.4
-2247.38
-973.112
192.085
-11339.4
760.103
-16819.8
1199.21
-16806.2
1492.82
-15622.5
1762.99
-14289.9
2070.55
-13124.9
2435.88
-12125.7
2764.62
-11242.9
3027.72
-10429
3204.83
-9642.37
3285.62
-8862.18
3263.82
-8081.57
3136.71
-7301.03
2903.19
-6515.95
2567.02
-5720.16
2130.07
-4889.83
1608.99
-3998.38
1013.78
-2980.54
463.621
-1697.18
-509.49
531.578
-11870.9
1593.96
-17882.2
2403.07
-17615.3
3018.6
-16238
3640.9
-14912.2
4275.37
-13759.4
4887.08
-12737.4
5418.47
-11774.3
5825.07
-10835.6
6080.47
-9897.76
6175.92
-8957.61
6110.88
-8016.51
5889.75
-7079.89
5519.24
-6145.41
5008.57
-5209.47
4363.85
-4245.09
3599.61
-3234.13
2670.24
-2051.15
1541.57
-568.48
1032.08
1888.59
-13759.5
3086.35
-19079.9
3815.44
-18344.4
4498.82
-16921.4
5321.54
-15734.9
6242.15
-14680
7183.99
-13679.2
8026.29
-12616.6
8693.98
-11503.3
9147.38
-10351.1
9373.5
-9183.74
9366.23
-8009.23
9121.81
-6835.46
8635.44
-5659.04
7906.44
-4480.46
6920.19
-3258.83
5701.76
-2015.7
4160.42
-509.789
2293.46
1298.5
3325.55
2751.51
-16511
3459.36
-19787.8
3856.33
-18741.4
4502.59
-17567.7
5425.95
-16658.2
6505.8
-15759.8
7593.86
-14767.3
8540.4
-13563.1
9291.75
-12254.6
9823.76
-10883.1
10118.8
-9478.73
10139.4
-8029.83
9837.13
-6533.21
9152.3
-4974.19
8031.43
-3359.58
6366.4
-1593.79
4310.68
40.0531
2645.85
1155.07
1090.22
2854.16
4415.77
1383.83
-17894.9
633.697
-19037.6
97.2354
-18204.9
-116.499
-17353.9
-155.505
-16619.2
-120.953
-15794.4
-150.968
-14737.3
-317.86
-13396.2
-603.303
-11969.1
-983.921
-10502.5
-1453.19
-9009.44
-2026.15
-7456.87
-2717.26
-5842.09
-3506.3
-4185.14
-4306.26
-2559.6
-4920.65
-979.382
-5201.04
320.468
-4998.05
952.09
-3487.89
1344.02
927.874
-1123.34
-16771.5
-2660.39
-17500.6
-4051.26
-16814
-5431.75
-15973.4
-6872.48
-15178.5
-8343.76
-14323.1
-9850.24
-13230.8
-11374.3
-11872.1
-12907
-10436.5
-14459.4
-8950.11
-16039.8
-7428.97
-17611.5
-5885.23
-19061.3
-4392.25
-20170.5
-3075.95
-20560.7
-2169.36
-19593.3
-1946.83
-16768
-2504.82
-12127.2
-3688.71
-5763.1
-5020.03
-4835.23
-2048.16
-14723.4
-3213.75
-16335
-4668.59
-15359.2
-6485.06
-14157
-8506.6
-13157
-10620.2
-12209.5
-12636.3
-11214.6
-14502.3
-10006.1
-16205.1
-8733.75
-17772.1
-7383.15
-19171
-6030.05
-20285.1
-4771.17
-20852.3
-3825.04
-20504.7
-3423.5
-18967.8
-3706.34
-16140.1
-4774.47
-12071.3
-6573.68
-7187.99
-8571.98
-2733.29
-9474.74
-7568.51
-651.203
-14072.1
-514.236
-16472
-626.316
-15247.1
-1137.48
-13645.8
-1710.33
-12584.1
-2338.68
-11581.1
-2823.94
-10729.4
-3070.31
-9759.74
-2987.84
-8816.21
-2545.3
-7825.69
-1723.85
-6851.49
-553.47
-5941.54
867.955
-5246.44
2377.94
-4933.47
3761
-5089.38
4694.94
-5708.4
4749.36
-6628.1
3687.64
-7510.25
1789.71
-7576.8
-5778.81
103.671
-14175.8
802.223
-17170.5
1279.27
-15724.2
1565.71
-13932.3
1963.62
-12982
2374.51
-11992
2853.74
-11208.6
3452.05
-10358.1
4234.32
-9598.48
5255.93
-8847.31
6532.35
-8127.91
8005.29
-7414.48
9465.94
-6707.1
10570.8
-6038.33
10964.5
-5483.07
10387.9
-5131.84
8767.45
-5007.63
6210.61
-4953.41
3203.56
-4569.76
-2575.25
598.631
-14774.5
1253.95
-17825.9
1611.95
-16082.2
2010.04
-14330.3
2541.55
-13513.5
3061.35
-12511.8
3588.36
-11735.6
4084.91
-10854.6
4554.54
-10068.1
4987.17
-9279.93
5392.3
-8533.05
5784.62
-7806.81
6179.54
-7102.03
6544.89
-6403.69
6768.01
-5706.2
6632.41
-4996.24
5919.93
-4295.16
4477.48
-3510.97
2375
-2467.3
-200.255
1033.11
-15807.6
1324.61
-18117.4
1570.59
-16328.2
1952.6
-14712.4
2442.65
-14003.6
2885.75
-12955
3354.15
-12204
3803.59
-11304.1
4260.14
-10524.7
4690.09
-9709.9
5078.95
-8921.92
5388.48
-8116.36
5583.19
-7296.76
5623.59
-6444.1
5474.3
-5556.93
5081.91
-4603.87
4372.37
-3585.63
3237.02
-2375.64
1641.76
-872.066
1441.5
1391.53
-17199.1
1354.91
-18080.8
1685.96
-16659.2
2160.98
-15187.4
2731.36
-14574
3269.57
-13493.2
3867.49
-12802
4479.15
-11915.7
5149.86
-11195.4
5840.85
-10400.9
6526.68
-9607.75
7115.11
-8704.79
7499.54
-7681.2
7574.28
-6518.85
7280.77
-5263.42
6587.16
-3910.27
5492.26
-2490.74
3927.35
-810.738
2003.72
1051.54
3445.22
1134.21
-18333.3
782.935
-17729.5
1026.86
-16903.2
1387.33
-15547.9
1841.51
-15028.2
2319.52
-13971.2
2902.49
-13385
3553.83
-12567.1
4318.89
-11960.5
5142.13
-11224.2
5957.27
-10422.9
6577.34
-9324.88
6817.63
-7921.5
6578.62
-6279.86
5883.66
-4568.48
4757.9
-2784.52
3381.54
-1114.41
2048.39
522.385
644.649
2455.26
4089.87
88.7461
-18422.1
-570.29
-17070.5
-855.859
-16617.6
-1106.48
-15297.3
-1318.53
-14816.1
-1483.16
-13806.6
-1601.77
-13266.4
-1644.78
-12524.1
-1621.47
-11983.8
-1541.94
-11303.7
-1490.36
-10474.5
-1591.09
-9224.17
-1920.74
-7591.87
-2406.66
-5793.96
-2947.46
-4027.71
-3539.73
-2192.28
-4149.79
-504.37
-4368.14
740.716
-3354.65
1441.74
735.224
-556.742
-17865.4
-1253.59
-16373.6
-1867.53
-16003.7
-2553.28
-14611.6
-3255.32
-14114.1
-3979.48
-13082.4
-4770.08
-12475.8
-5589.25
-11705
-6482.12
-11090.9
-7404.69
-10381.2
-8338.76
-9540.44
-9174.61
-8388.32
-9775.99
-6990.5
-10011.2
-5558.8
-9834.76
-4204.12
-9196.74
-2830.31
-8092.4
-1608.71
-6372.46
-979.236
-3507.15
-1423.58
-2771.93
-368.968
-17496.4
-892.967
-15849.7
-1269.86
-15626.8
-1684.08
-14197.3
-2096.04
-13702.2
-2498.5
-12680
-2952.47
-12021.8
-3434.17
-11223.3
-3978.55
-10546.6
-4528.87
-9830.84
-4972.02
-9097.3
-5092.37
-8267.97
-4717.13
-7365.75
-3830.12
-6445.81
-2506.78
-5527.48
-810.343
-4526.76
973.346
-3392.42
2189.16
-2195.07
2047.66
-1282.1
-724.265
-989.148
-16507.3
-2149.2
-14689.6
-2957.99
-14818
-3507.89
-13647.4
-3962.15
-13247.9
-4180
-12462.1
-4304.29
-11897.5
-4277.08
-11250.5
-4155.53
-10668.1
-3907.24
-10079.1
-3493.1
-9511.44
-2823.26
-8937.82
-1845.13
-8343.89
-587.629
-7703.32
871.695
-6986.81
2440.09
-6095.16
3834.1
-4786.44
4363.24
-2724.22
3005.04
76.0901
2280.78
-1972.32
-14535
-4189.32
-12472.6
-6373.02
-12634.3
-8128.23
-11892.2
-9766.9
-11609.3
-11057.3
-11171.7
-12127.3
-10827.6
-12913.9
-10463.9
-13460.8
-10121.2
-13762.6
-9777.35
-13838.7
-9435.33
-13691.2
-9085.31
-13315.9
-8719.21
-12693.6
-8325.56
-11797.3
-7883.13
-10553.1
-7339.44
-8773.7
-6565.8
-6254.76
-5243.16
-3114.94
-3063.74
-834.168
-5434.96
-8807.57
-12341.9
-15134.1
-17643.4
-19715.1
-21442.7
-22806.6
-23827.8
-24505.2
-24840.5
-24825.8
-24445
-23670.6
-22453.7
-20693.1
-18158.9
-14302.1
-8265.83
-5435.03
14535
-8807.63
12472.6
-12341.9
12634.3
-15134.1
11892.1
-17643.1
11609.1
-19714.6
11171.4
-21441.8
10827.2
-22805.2
10463.4
-23826
10120.7
-24502.9
9776.88
-24837.8
9434.94
-24822.8
9084.98
-24441.6
8718.78
-23666.5
8324.93
-22449.2
7882.7
-20689.5
7340.25
-18158
6568.51
-14304.4
5246.34
-8268.62
3064.26
831.378
-1971.58
16506.6
-4187.14
14688.1
-6369.53
14816.6
-8122.72
13645.3
-9759.32
13245.7
-11047.2
12459.3
-12114.3
11894.3
-12897.5
11246.6
-13440.5
10663.7
-13737.9
10074.2
-13809.2
9506.25
-13656.8
8932.6
-13277.2
8339.12
-12652.2
7699.96
-11756.4
6986.85
-10516.2
6100.08
-8745.89
4798.18
-6238.98
2739.42
-3110.29
-64.4387
-2278.92
-985.26
17491.8
-2140.98
15843.8
-2945.32
15621
-3490.9
14190.9
-3940.82
13695.6
-4154.06
12672.5
-4273.58
12013.8
-4241.32
11214.4
-4114.52
10536.9
-3860.67
9820.37
-3440.07
9085.64
-2761.71
8254.22
-1773.16
7350.56
-507.342
6434.12
952.767
5526.72
2509.02
4543.8
3873.93
3433.26
4366.58
2246.75
2999.18
1302.94
720.263
-366.119
17857.9
-887.762
16365.5
-1262.82
15996
-1672.04
14600.1
-2079.3
14102.8
-2475.9
13069.1
-2923.7
12461.6
-3398.23
11688.9
-3935.46
11074.1
-4479.15
10364
-4915.68
9522.16
-5026.83
8365.36
-4637.66
6961.37
-3735.05
5531.49
-2403.13
4194.8
-711.626
2852.28
1061.22
1660.39
2266.58
1041.36
2084.89
1484.61
2805.15
-540.07
18398
-1219.13
17044.5
-1813.23
16590.1
-2486.12
15272.9
-3174.84
14791.5
-3885.93
13780.2
-4664.62
13240.2
-5473.61
12497.8
-6358.17
11958.7
-7274.22
11280.1
-8205.64
10453.6
-9044.66
9204.38
-9654.2
7570.9
-9898.34
5775.63
-9725.5
4021.94
-9079.76
2206.52
-7954.4
535.015
-6239.47
-673.577
-3421.35
-1333.53
-616.194
142.001
18256
-564.941
17751.4
-847.008
16872.2
-1069.09
15495
-1256.83
14979.3
-1400.58
13923.9
-1496.06
13335.7
-1514.45
12516.2
-1466.51
11910.7
-1368.38
11181.9
-1303.67
10388.8
-1400.44
9301.15
-1739.31
7909.76
-2246.67
6282.98
-2813.82
4589.09
-3431.73
2824.42
-4064.1
1167.39
-4295.92
-441.766
-3290.19
-2339.25
-3906.39
1097.6
17158.4
1113.47
17735.5
1481.81
16503.8
1837.34
15139.5
2387.26
14429.3
2888.45
13422.7
3498.15
12726
4126.33
11888
4872.53
11164.5
5689.17
10365.3
6497.05
9580.97
7095.47
8702.72
7306.63
7698.59
7029.28
6560.32
6286.84
5331.53
5105.69
4005.57
3660.54
2612.53
2235.71
983.069
743.214
-846.765
-3163.17
1168.55
15989.8
2177.19
16726.9
3002.53
15678.5
3568.82
14573.2
4290.26
13707.9
4878.7
12834.3
5517.63
12087.1
6071.15
11334.5
6614.87
10620.8
7127.84
9852.33
7636.45
9072.36
8057.24
8281.94
8285.41
7470.43
8219.11
6626.63
7800.93
5749.71
6996.54
4809.96
5807.34
3801.73
4172.11
2618.3
2158.92
1166.43
-1004.25
885.835
15104
2066.68
15546
2917.73
14827.4
3450.04
14040.9
3913.66
13244.3
4316.31
12431.6
4757.89
11645.5
5170.51
10921.9
5507.5
10283.8
5709.15
9650.67
5843.26
8938.24
5917.38
8207.82
5898.36
7489.44
5750.76
6774.22
5439.2
6061.27
4914.47
5334.68
4122.65
4593.55
2993.39
3747.56
1528.21
2631.6
523.959
544.538
14559.5
1210.68
14879.9
1495.82
14542.3
1488.52
14048.2
1379.09
13353.7
1342.05
12468.7
1562.45
11425.1
2155.74
10328.6
3054.78
9384.78
3898.34
8807.13
4468.26
8368.33
4878.01
7798.08
5190.15
7177.31
5396.85
6567.54
5428.33
6029.79
5155.76
5607.26
4465.51
5283.8
3296.99
4916.08
1717.13
4211.46
2241.09
-16.9452
14576.4
-232.058
15095
-805.721
15115.9
-1592.38
14834.9
-2448.39
14209.7
-3185.58
13205.9
-3482.63
11722.1
-2897.61
9743.61
-1438.51
7925.67
415.462
6953.16
2268.33
6515.46
4138.82
5927.59
5896.07
5420.05
7227.92
5235.69
7799.62
5458.09
7438.53
5968.35
6222.61
6499.72
4358.79
6779.89
2220.11
6350.13
4461.2
-772.56
15349
-1760.12
16082.6
-2905.57
16261.4
-4126.3
16055.6
-5423.73
15507.2
-6763.71
14545.8
-7973.02
12931.5
-8883.44
10654
-9469.71
8511.96
-9203.64
6687.1
-8071.42
5383.26
-6717.59
4573.78
-5087.19
3789.67
-3226.96
3375.48
-1293.82
3524.98
402.49
4272.08
1461.61
5440.62
1618.14
6623.37
937.125
7031.17
5398.33
-1237.59
16586.6
-2418.82
17263.8
-3422.15
17264.7
-4321.85
16955.3
-5291.23
16476.5
-6511.28
15765.9
-8179.57
14599.8
-10462.2
12936.7
-13221.1
11270.8
-15743.1
9209.17
-17497.6
7137.72
-18938
6014.23
-19878.8
4730.44
-19927.2
3423.88
-18689.3
2287.09
-15993.1
1575.83
-12038.6
1486.13
-7346.58
1931.4
-2844.46
2529.05
2553.86
-135.683
16722.3
-622.773
17750.9
-586.297
17228.3
-232.55
16601.6
203.371
16040.6
474.353
15494.9
244.22
14829.9
-654.327
13835.2
-2051.65
12668.2
-4041.04
11198.6
-6336.18
9432.89
-8469.71
8147.78
-10539.6
6800.39
-12439.6
5323.88
-13867.8
3715.26
-14314.2
2022.22
-13270.1
442.032
-10398.6
-940.056
-5562.02
-2307.52
-3008.15
1705.74
15016.5
2523.86
16932.8
3747.23
16004.9
5255.36
15093.4
6901.34
14394.7
8546.43
13849.8
10002.1
13374.2
11037.9
12799.5
11617.2
12088.8
11520.4
11295.4
10596.1
10357.2
9349.12
9394.75
7801.95
8347.58
5980.33
7145.5
3940.3
5755.31
1817.34
4145.2
-29.0443
2288.46
-666.92
-302.131
-1097.29
-1877.12
-4105.45
1985.41
13031.1
3393.37
15524.9
4768.48
14629.8
6136.37
13725.6
7492.9
13038.1
8827.25
12515.5
10117.2
12084.3
11277.4
11639.3
12265.8
11100.5
13003.6
10557.6
13291.8
10069
13155.8
9530.74
12669.4
8834.06
11892.7
7922.14
10835
6813.03
9445.39
5534.82
7612.37
4121.49
4780.02
2530.22
2329.35
573.554
-1776.09
1303.46
11727.7
2491.86
14336.5
3421.78
13699.9
4158.17
12989.2
4787.33
12409
5358.79
11944
5907.33
11535.8
6420.74
11125.9
6871.4
10649.8
7218.47
10210.6
7378.53
9908.93
7314.44
9594.84
7061.62
9086.88
6657.83
8325.94
6105.16
7365.7
5375.55
6264.44
4446.95
5050.1
3287.66
3689.52
2015.61
1845.61
239.518
755.904
10971.8
1511.19
13581.2
2065.42
13145.7
2443.36
12611.2
2704.68
12147.7
2891.76
11757
3035.29
11392.3
3161.8
10999.4
3263.16
10548.5
3324.06
10149.7
3337.8
9895.2
3291.31
9641.33
3172.55
9205.65
2969.65
8528.85
2670.81
7664.55
2276.55
6658.7
1787.52
5539.13
1219.98
4257.07
704.49
2361.11
944.007
841.667
10130.1
1196.25
13226.6
1431.03
12910.9
1645.81
12396.5
1859.18
11934.3
2076.38
11539.8
2319.08
11149.6
2524.3
10794.2
2668.69
10404.1
2778.97
10039.4
2908.76
9765.41
3042.68
9507.42
3098.56
9149.76
2994.09
8633.33
2690.38
7968.26
2195.74
7153.35
1549.77
6185.09
797.33
5009.49
13.6969
3144.71
957.702
1256.39
2720.06
3979.63
5110.3
6144.74
7105.1
7730.57
8200.11
8530.38
8753
8922.51
9038.15
9033.22
8823.33
8348.37
7568.86
6465.63
4989.11
2862.89
)
;

boundaryField
{
    outletWall
    {
        type            calculated;
        value           nonuniform List<scalar> 
60
(
3822.68
-11483.1
-3474.84
7066.45
-2760.15
-8523.19
-43528.5
-81816.7
-123219
-120623
-116855
-106573
-73476.9
-2899.42
67534.3
86262.3
81569.1
73598.7
52489.3
-5644.74
44584.4
44875.7
45580.7
46488
47654.5
49502.8
52354.5
58972.1
76542
82005.2
74767.7
73950.8
77204.6
76988.1
72164.6
65319.8
58827.2
53129.9
49822.8
48162.8
-22471.4
-26046.2
-51980.1
-35904.4
-30000.5
-17795.5
-25419
-34635.9
-32810.6
-12270
37538.2
62344.1
61030
24518.2
-50217.3
-76043.2
-80631.3
-74209.7
-71206.6
-50151.7
)
;
    }
    fineWalls
    {
        type            calculated;
        value           uniform 0;
    }
    fineFrontAndBack
    {
        type            calculated;
        value           nonuniform List<scalar> 
960
(
5.4377e-15
-3.39599e-13
-4.14967e-14
1.3357e-14
1.15284e-13
-7.38019e-14
1.26172e-13
-9.17978e-13
1.63937e-12
1.99841e-12
2.72403e-12
-1.18381e-11
-5.7963e-12
-4.91192e-12
-5.59455e-11
-1.2967e-11
-1.24669e-11
-5.54306e-11
-9.39449e-12
-9.19186e-12
-2.32387e-12
-3.1848e-12
-3.63598e-12
-4.13185e-12
-4.63808e-12
-5.08494e-12
-9.5194e-11
-5.95854e-12
-6.14789e-12
-6.3234e-12
-6.61647e-12
-6.93185e-12
-7.3092e-12
-7.6741e-12
-8.12831e-12
-8.62441e-12
-9.4887e-12
-9.77666e-12
-1.12891e-11
-1.80459e-11
-3.57974e-10
-4.14889e-11
-3.82365e-11
-3.68717e-11
-1.56708e-10
-1.69433e-11
-1.20159e-11
-3.13854e-12
9.63153e-11
2.67998e-11
2.21877e-11
4.74609e-11
3.07302e-12
2.31537e-12
3.82607e-12
4.65666e-11
1.15782e-11
1.33972e-11
1.68285e-11
2.18178e-10
1.4321e-11
1.06979e-11
1.03158e-11
9.78608e-12
9.43893e-12
8.93212e-12
8.56638e-12
8.34281e-12
8.13422e-12
7.90064e-12
7.68112e-12
7.46489e-12
7.16454e-12
9.30233e-11
6.1127e-12
5.67649e-12
5.13658e-12
4.49446e-12
3.55225e-12
1.88815e-12
-1.28825e-12
-2.22168e-12
-1.04861e-11
-3.07046e-12
-3.69434e-12
-1.71829e-11
-1.61538e-12
-1.22918e-12
-3.88292e-12
-3.72089e-13
-1.02337e-12
-5.52318e-12
-4.0671e-13
-2.17819e-13
-1.44121e-13
-7.38378e-13
-3.21388e-13
-3.38849e-13
-1.66479e-12
-4.29963e-13
-3.63174e-11
2.04401e-11
6.80108e-11
1.29531e-10
1.9742e-10
2.6259e-10
3.12973e-10
3.22117e-10
3.19751e-10
3.13082e-10
2.94986e-10
2.52769e-10
1.62097e-10
6.78997e-11
2.12654e-11
1.40841e-12
-7.91864e-12
-4.66185e-12
1.09629e-12
-1.33795e-11
7.091e-11
1.3369e-10
1.97222e-10
2.44556e-10
2.73843e-10
3.03234e-10
3.2851e-10
3.20005e-10
3.12445e-10
2.94681e-10
2.52731e-10
1.64198e-10
7.58498e-11
3.5019e-11
1.2301e-11
-1.1289e-12
-4.82509e-12
-4.81784e-14
1.34459e-11
1.09308e-10
1.6115e-10
1.95078e-10
2.00888e-10
1.96778e-10
2.28666e-10
3.18061e-10
3.25361e-10
3.11181e-10
2.91859e-10
2.51356e-10
1.65391e-10
8.58538e-11
5.20821e-11
2.70122e-11
7.57861e-12
-3.52257e-12
-7.60583e-13
4.1559e-11
1.34692e-10
1.54034e-10
1.38047e-10
9.28521e-11
5.847e-11
9.60525e-11
2.43226e-10
3.33113e-10
3.17017e-10
2.96442e-10
2.484e-10
1.63627e-10
9.50204e-11
5.84723e-11
3.36631e-11
1.07151e-11
-3.18779e-12
-1.64212e-12
5.85499e-11
1.20461e-10
8.23936e-11
3.55983e-12
-8.60011e-11
-1.29959e-10
-7.10241e-11
1.19995e-10
3.17569e-10
3.16749e-10
2.7964e-10
2.44734e-10
1.56677e-10
8.79784e-11
5.86821e-11
3.93697e-11
1.3315e-11
-3.00274e-12
6.10283e-13
4.89615e-11
4.58029e-11
-5.76054e-11
-1.79492e-10
-2.72428e-10
-2.92685e-10
-2.10857e-10
-1.10772e-12
2.56694e-10
2.87426e-10
2.59274e-10
2.35032e-10
1.32904e-10
7.52663e-11
7.72526e-11
6.45979e-11
2.22862e-11
-2.1367e-12
-2.43378e-12
8.7904e-12
-8.16728e-11
-2.13955e-10
-3.0395e-10
-3.32421e-10
-3.22339e-10
-2.63863e-10
-8.14927e-11
1.90744e-10
2.68305e-10
2.44073e-10
2.04649e-10
1.06264e-10
9.19687e-11
1.05443e-10
9.31087e-11
4.82762e-11
-1.25042e-12
-1.65587e-11
-3.82833e-11
-1.84599e-10
-2.56529e-10
-2.28531e-10
-1.78975e-10
-2.0255e-10
-2.41787e-10
-1.16392e-10
1.30509e-10
2.35225e-10
2.02198e-10
1.54319e-10
9.93895e-11
1.19418e-10
1.33083e-10
1.35059e-10
1.42528e-10
1.77149e-10
2.57355e-10
-6.13241e-11
-1.62342e-10
-1.2763e-10
-3.45581e-11
9.22705e-12
-9.52235e-11
-2.33642e-10
-1.30474e-10
9.79568e-11
2.05905e-10
1.65005e-10
1.31584e-10
1.30049e-10
1.45093e-10
1.43231e-10
1.49287e-10
1.69775e-10
1.89511e-10
1.77271e-10
-3.95328e-11
-8.14311e-11
-2.77572e-13
5.43028e-11
3.73468e-11
-9.95267e-11
-2.59284e-10
-1.66954e-10
5.52405e-11
2.00998e-10
1.58632e-10
9.32982e-11
1.0284e-10
5.60582e-11
3.98939e-11
5.75041e-11
5.30972e-11
6.01698e-11
6.36257e-11
2.58704e-11
-1.31365e-11
4.67147e-11
4.63435e-11
-1.54192e-11
-1.23937e-10
-2.11292e-10
-2.4429e-10
-8.23048e-11
5.47732e-11
8.12845e-11
2.7331e-11
-3.98998e-11
-1.04053e-10
-1.39498e-10
-1.56142e-10
-1.79847e-10
-1.8573e-10
-1.11904e-10
3.73176e-11
4.36719e-11
5.17314e-11
3.57584e-11
-5.10897e-11
-2.30538e-10
-3.11357e-10
-2.83215e-10
-2.19945e-10
-1.48681e-10
-1.13053e-10
-1.39375e-10
-2.0545e-10
-2.62113e-10
-2.94139e-10
-3.19774e-10
-3.67647e-10
-4.12012e-10
-4.01973e-10
1.85022e-11
6.4569e-11
4.54734e-11
3.92804e-11
-3.29476e-11
-2.2191e-10
-3.16964e-10
-3.13725e-10
-2.91363e-10
-2.66003e-10
-2.46859e-10
-2.43867e-10
-2.49857e-10
-2.46204e-10
-2.37176e-10
-2.41691e-10
-2.63148e-10
-3.24659e-10
-4.56195e-10
3.24849e-11
5.71222e-11
4.56227e-11
4.34081e-11
-1.17798e-11
-1.84333e-10
-2.86123e-10
-3.07654e-10
-3.00771e-10
-2.89139e-10
-2.71677e-10
-2.44793e-10
-2.08229e-10
-1.66804e-10
-1.30347e-10
-9.82503e-11
-5.54291e-11
-1.0056e-11
-2.39365e-11
4.04536e-11
5.46904e-11
4.81394e-11
4.56446e-11
1.2259e-11
-1.23084e-10
-2.31878e-10
-2.76376e-10
-2.81081e-10
-2.71789e-10
-2.49079e-10
-2.05506e-10
-1.45806e-10
-1.00446e-10
-6.43176e-11
-3.70598e-11
-2.01721e-11
-6.61172e-12
1.58172e-11
4.42919e-11
5.36909e-11
4.90136e-11
4.63636e-11
2.93107e-11
-5.93768e-11
-1.6479e-10
-2.28219e-10
-2.49497e-10
-2.4436e-10
-2.13417e-10
-1.48691e-10
-7.1071e-11
-5.71373e-11
-3.31875e-11
-1.57803e-11
-9.27129e-12
-2.7827e-12
1.23013e-11
4.44455e-11
5.23473e-11
4.99828e-11
4.71326e-11
3.8051e-11
-8.13249e-12
-9.81753e-11
-1.69629e-10
-2.10279e-10
-2.14065e-10
-1.67552e-10
-7.34561e-11
-3.12179e-11
-2.06082e-11
-1.21667e-11
-4.40178e-12
-2.11442e-12
-4.74232e-13
-7.80149e-14
4.24902e-11
5.09974e-11
5.07918e-11
4.80755e-11
4.16399e-11
1.94735e-11
-4.41245e-11
-1.08972e-10
-1.62791e-10
-1.81936e-10
-1.39457e-10
-6.83743e-11
-3.0675e-11
-2.43311e-12
4.44422e-12
2.78375e-12
7.03845e-13
-6.79197e-13
-1.48772e-12
3.97096e-11
4.96526e-11
5.12212e-11
4.908e-11
4.34796e-11
3.03843e-11
-8.46815e-12
-5.75287e-11
-1.14005e-10
-1.52318e-10
-1.25412e-10
-6.89104e-11
-2.4321e-11
7.58321e-13
9.32082e-12
4.00646e-12
1.06311e-13
-7.42213e-13
-7.05874e-13
3.72523e-11
4.84326e-11
5.12934e-11
4.98381e-11
4.47239e-11
3.52684e-11
1.32426e-11
-1.29541e-11
-4.87812e-11
-9.06873e-11
-1.02879e-10
-6.46394e-11
-2.19607e-11
1.94379e-12
8.27409e-12
3.03059e-12
1.93029e-14
-7.04576e-13
-8.60769e-13
-5.4377e-15
3.39599e-13
4.14967e-14
-1.3357e-14
-1.15284e-13
7.38019e-14
-1.26172e-13
9.17978e-13
-1.63937e-12
-1.99841e-12
-2.72403e-12
1.18381e-11
5.7963e-12
4.91192e-12
5.59455e-11
1.2967e-11
1.24669e-11
5.54306e-11
9.39449e-12
9.19186e-12
2.32387e-12
3.1848e-12
3.63598e-12
4.13185e-12
4.63808e-12
5.08494e-12
9.5194e-11
5.95854e-12
6.14789e-12
6.3234e-12
6.61647e-12
6.93185e-12
7.3092e-12
7.6741e-12
8.12831e-12
8.62441e-12
9.4887e-12
9.77666e-12
1.12891e-11
1.80459e-11
3.57974e-10
4.14889e-11
3.82365e-11
3.68717e-11
1.56708e-10
1.69433e-11
1.20159e-11
3.13854e-12
-9.63153e-11
-2.67998e-11
-2.21877e-11
-4.74609e-11
-3.07302e-12
-2.31537e-12
-3.82607e-12
-4.65666e-11
-1.15782e-11
-1.33972e-11
-1.68285e-11
-2.18178e-10
-1.4321e-11
-1.06979e-11
-1.03158e-11
-9.78608e-12
-9.43893e-12
-8.93212e-12
-8.56638e-12
-8.34281e-12
-8.13422e-12
-7.90064e-12
-7.68112e-12
-7.46489e-12
-7.16454e-12
-9.30233e-11
-6.1127e-12
-5.67649e-12
-5.13658e-12
-4.49446e-12
-3.55225e-12
-1.88815e-12
1.28825e-12
2.22168e-12
1.04861e-11
3.07046e-12
3.69434e-12
1.71829e-11
1.61538e-12
1.22918e-12
3.88292e-12
3.72089e-13
1.02337e-12
5.52318e-12
4.0671e-13
2.17819e-13
1.44121e-13
7.38378e-13
3.21388e-13
3.38849e-13
1.66479e-12
4.29963e-13
3.63174e-11
-2.04401e-11
-6.80108e-11
-1.29531e-10
-1.9742e-10
-2.6259e-10
-3.12973e-10
-3.22117e-10
-3.19751e-10
-3.13082e-10
-2.94986e-10
-2.52769e-10
-1.62097e-10
-6.78997e-11
-2.12654e-11
-1.40841e-12
7.91864e-12
4.66185e-12
-1.09629e-12
1.33795e-11
-7.091e-11
-1.3369e-10
-1.97222e-10
-2.44556e-10
-2.73843e-10
-3.03234e-10
-3.2851e-10
-3.20005e-10
-3.12445e-10
-2.94681e-10
-2.52731e-10
-1.64198e-10
-7.58498e-11
-3.5019e-11
-1.2301e-11
1.1289e-12
4.82509e-12
4.81784e-14
-1.34459e-11
-1.09308e-10
-1.6115e-10
-1.95078e-10
-2.00888e-10
-1.96778e-10
-2.28666e-10
-3.18061e-10
-3.25361e-10
-3.11181e-10
-2.91859e-10
-2.51356e-10
-1.65391e-10
-8.58538e-11
-5.20821e-11
-2.70122e-11
-7.57861e-12
3.52257e-12
7.60583e-13
-4.1559e-11
-1.34692e-10
-1.54034e-10
-1.38047e-10
-9.28521e-11
-5.847e-11
-9.60525e-11
-2.43226e-10
-3.33113e-10
-3.17017e-10
-2.96442e-10
-2.484e-10
-1.63627e-10
-9.50204e-11
-5.84723e-11
-3.36631e-11
-1.07151e-11
3.18779e-12
1.64212e-12
-5.85499e-11
-1.20461e-10
-8.23936e-11
-3.55983e-12
8.60011e-11
1.29959e-10
7.10241e-11
-1.19995e-10
-3.17569e-10
-3.16749e-10
-2.7964e-10
-2.44734e-10
-1.56677e-10
-8.79784e-11
-5.86821e-11
-3.93697e-11
-1.3315e-11
3.00274e-12
-6.10283e-13
-4.89615e-11
-4.58029e-11
5.76054e-11
1.79492e-10
2.72428e-10
2.92685e-10
2.10857e-10
1.10772e-12
-2.56694e-10
-2.87426e-10
-2.59274e-10
-2.35032e-10
-1.32904e-10
-7.52663e-11
-7.72526e-11
-6.45979e-11
-2.22862e-11