/*--------------------------------*- C++ -*----------------------------------*\
| =========                 |                                                 |
| \\      /  F ield         | OpenFOAM: The Open Source CFD Toolbox           |
|  \\    /   O peration     | Version:  4.1                                   |
|   \\  /    A nd           | Web:      www.OpenFOAM.org                      |
|    \\/     M anipulation  |                                                 |
\*---------------------------------------------------------------------------*/
FoamFile
{
    version     2.0;
    format      ascii;
    class       volScalarField;
    location    "13";
    object      p;
}
// * * * * * * * * * * * * * * * * * * * * * * * * * * * * * * * * * * * * * //

dimensions      [0 2 -2 0 0 0 0];

internalField   nonuniform List<scalar> 
1280
(
-0.00237592
0.0218498
-0.0149807
-0.139265
-0.0616198
-0.3669
-0.707259
-0.783283
-1.00187
-1.68085
-2.70493
-2.33988
-3.69421
-5.8012
-5.23021
-7.75612
-11.4862
-10.8543
-13.4673
-23.4563
-16.9046
-1.01045
18.3604
24.5615
24.0797
28.3579
5.32065
11.6739
12.6999
12.4136
11.4686
10.2164
8.88587
7.10178
5.53334
3.15253
1.70082
-1.08214
-1.6553
-3.16704
-23.5089
-8.60564
-1.84788
3.43737
15.0705
15.295
15.3233
15.5453
14.9461
15.2651
15.4659
14.8824
15.5757
15.5829
15.7349
15.6655
3.9254
-1.49047
-7.34112
-14.1659
-0.26623
-3.33861
-5.04347
-3.18315
-2.0493
0.373371
2.18151
4.40077
6.21513
7.96022
9.44997
10.6194
10.9421
8.62323
30.3391
22.2715
20.5129
20.0567
5.37147
-13.324
-25.5305
-11.2732
-11.5155
-11.1532
-7.48666
-5.45977
-6.70382
-4.04433
-3.04103
-3.91154
-2.31489
-1.84924
-2.03436
-1.91091
-1.14752
-0.480198
-1.21767
-0.523118
-0.232268
-0.514655
0.0335771
-0.309315
-0.138496
1.04077
0.569543
0.373912
0.112561
0.0538347
0.0155598
-0.17517
-0.429766
-0.475298
-0.37579
-0.253202
0.0414077
0.106673
0.0485228
-0.186562
0.104059
0.146902
-1.35656
-0.645234
2.41311
1.92854
1.3022
0.593269
0.30354
-0.0108749
-0.497315
-0.860795
-0.708324
-0.535711
-0.248936
0.317943
0.42557
0.240631
-0.18759
-0.203739
0.0548829
-2.63451
-1.13745
3.07125
3.28822
2.17359
0.960842
0.267293
-0.433282
-1.3112
-1.97865
-1.47661
-0.966784
-0.384523
0.44723
0.562688
0.197142
-0.647786
-0.531938
0.017333
-3.72616
-1.91029
3.50254
4.19572
2.88905
1.16306
-0.0153884
-0.964406
-1.89527
-2.70438
-2.12525
-1.57806
-0.633057
0.520309
0.797081
0.414234
-0.627368
-0.370881
-0.238975
-4.81843
-2.95839
3.47793
4.58382
3.37645
1.05177
-0.688741
-1.84983
-3.11559
-4.15784
-2.96056
-2.03168
-0.802505
0.549074
0.883571
0.00879443
-1.6452
-1.21595
-0.902112
-5.42232
-4.00174
2.9496
4.39819
3.54487
0.771674
-1.15742
-1.86498
-2.99665
-4.63971
-3.95882
-3.34407
-1.60742
0.225625
1.24416
0.645162
-0.765094
-0.693564
-2.02229
-5.78413
-5.12229
1.79255
3.53926
3.20907
0.386034
-1.22337
-1.15931
-1.87028
-3.98284
-4.24466
-3.92423
-2.35224
-0.471801
0.587133
-0.749491
-3.39541
-2.69126
-3.13645
-6.00526
-6.27979
0.127227
2.29009
2.4577
-0.338908
-1.72018
-0.865463
-0.652992
-2.27768
-4.43978
-5.71105
-4.06063
-1.40148
1.21163
1.30287
0.716352
-1.2085
-3.90123
-5.83282
-7.17402
-1.77542
0.60147
0.870576
-1.72819
-2.82569
-1.1102
0.778357
1.69121
-0.240614
-3.37963
-2.85759
0.295446
1.33652
1.82995
14.5163
20.7468
-4.21515
-4.89313
-7.38796
-3.61988
-1.6036
-1.80428
-3.79916
-4.03119
-0.976839
2.58783
6.26611
5.56046
2.2365
0.932206
0.247296
-0.686964
4.5327
28.1234
15.6944
-4.07
-3.19631
-6.63215
-4.85806
-3.96697
-4.57169
-5.42056
-4.5745
-0.347593
4.23991
9.80922
9.72186
5.99752
4.012
1.04088
-1.84047
4.51891
28.8441
15.8334
-3.53929
-1.31682
-5.14757
-5.27602
-6.04076
-6.55915
-6.56593
-4.41904
0.0267825
5.72561
14.7648
13.9896
8.96824
6.19328
-0.268691
-6.3358
-4.01704
12.7848
20.2344
-2.72523
0.300662
-3.42311
-5.36053
-7.69991
-7.72415
-7.75455
-4.35239
-0.00630472
5.19668
11.8873
13.6314
9.82574
6.67535
-3.24088
-10.1814
-6.21477
1.64858
-1.53936
-1.74374
1.45172
-2.01106
-5.69574
-9.10883
-8.5876
-7.89613
-3.87907
-0.222937
4.53861
11.8371
13.4963
9.97004
5.87241
-4.09065
-9.38611
-6.92704
-4.30292
-3.204
-0.76734
2.04034
-1.26019
-6.47364
-9.78009
-8.92204
-6.4917
-3.07506
-0.559514
2.9671
8.92932
11.1934
9.94853
5.64275
-2.63221
-7.46721
-5.00598
-1.99435
-0.944108
-0.00925978
2.07655
-1.19566
-7.32685
-9.07744
-8.78028
-5.16591
-2.52726
-0.684505
2.11682
7.32708
9.70781
9.13534
5.10317
-1.12705
-5.28093
-3.94001
-2.75244
-1.45734
0.355496
1.72398
-1.32778
-7.18067
-7.93209
-7.63088
-4.01774
-1.89363
-0.257363
1.71803
5.40899
7.54571
7.49997
3.97407
-0.274009
-3.39583
-2.49981
-1.52276
-0.429639
0.47068
1.19729
-1.48433
-5.90738
-7.05017
-5.7911
-2.97925
-1.37089
0.0764225
1.52401
4.01908
5.5751
5.41641
2.66918
0.0827257
-1.99438
-1.6304
-1.24606
-0.432628
0.0917111
0.590259
-0.787214
-2.60999
-5.96955
-4.43177
-2.29724
-1.05459
0.14862
1.2239
2.78642
3.75474
3.43956
1.50384
0.190258
-0.829784
-0.645834
-0.445263
-0.017872
-0.125089
0.0596754
-0.715745
-1.03541
-3.59439
-2.80601
-1.50799
-0.915271
-0.420645
-0.00614369
0.541319
0.996813
1.04341
0.420846
0.0189491
-0.230868
-0.197455
-0.238623
-0.049769
87.8296
87.5825
87.9058
89.1531
87.6087
85.7284
83.2711
80.8473
78.5333
76.7366
75.4342
74.4059
73.9009
73.4288
73.6363
73.4901
74.3677
74.0898
75.5907
75.1676
26.8146
26.4258
27.0859
27.9437
28.456
28.4465
28.9887
29.0131
29.4365
29.8454
30.6362
31.3677
32.4373
33.3762
34.8823
36.1614
38.3356
39.7214
42.2632
42.9885
49.3135
46.3808
46.713
46.2039
45.7959
44.6973
44.2632
43.4783
43.0443
42.6597
42.6784
42.8247
43.3115
43.9426
45.0135
46.1727
48.0017
49.1379
51.686
51.7357
43.4718
41.8408
43.3276
43.3327
43.3703
42.8573
42.2228
41.5861
40.8547
40.171
39.2611
38.2789
36.9366
35.4021
33.6987
32.1218
31.5585
31.2369
33.8826
34.7046
48.4378
47.2299
48.7752
48.2074
48.8377
48.0204
47.4229
46.9307
45.8904
45.3009
44.0478
43.1527
41.5319
39.7906
37.6402
35.0407
33.4648
31.5025
32.967
32.8009
49.1996
48.4866
49.7184
48.72
50.5362
48.5947
48.6837
48.3869
47.4798
47.5452
46.1673
46.0409
44.9158
44.3083
43.7563
42.7718
42.9394
41.8119
43.2122
42.3514
54.103
54.1752
54.6989
53.8402
56.877
53.8987
54.381
54.2092
53.2846
53.5587
52.2258
52.4393
51.5108
51.5699
51.6817
51.9761
53.3084
53.5113
55.4419
54.8568
52.7125
53.9419
53.4365
53.0506
57.3476
53.278
53.7961
54.5312
53.1555
53.7646
52.4892
52.5148
51.6876
51.3806
51.1627
50.9553
51.7245
51.789
53.7726
53.7121
51.875
54.3871
52.7888
52.8868
58.7194
54.0493
54.2529
56.5778
55.077
56.1781
55.3538
55.4013
55.0214
54.6081
54.4809
53.9621
54.3014
54.0817
55.7941
55.7789
43.3451
47.1247
44.6066
45.0958
53.5179
48.0723
47.6755
52.1886
51.048
52.4479
52.5359
52.8507
53.1686
53.1711
53.4147
53.2681
53.6536
53.7263
55.2344
55.9259
23.5512
26.8827
24.6771
25.3
34.3075
30.7459
30.6928
35.677
36.7106
37.9488
39.6382
40.7383
42.4201
43.633
45.1012
46.1756
47.6383
49.0656
51.202
53.813
1.91846
1.1208
2.37056
-0.974749
6.32105
8.39705
11.1066
7.88067
9.58941
7.32915
7.89446
6.54316
6.49093
5.85151
5.80974
5.97267
7.04407
9.08476
11.2887
13.5744
26.0618
24.7919
24.5593
21.2493
22.4671
18
19.803
16.9247
17.5075
15.0317
15.0788
13.5319
13.1808
12.3437
11.766
10.808
9.8945
9.81472
9.78319
10.1785
43.3428
44.4977
45.7367
44.3538
47.1441
44.8069
46.8899
43.7846
44.9594
43.6678
43.5222
42.2476
41.3227
40.043
38.4112
36.5692
33.7118
32.0075
32.1795
30.9478
24.1795
26.1869
29.2218
28.6137
32.5216
32.5328
35.6457
37.0616
39.5004
41.493
43.6954
45.8059
47.8009
49.6102
50.6743
50.3392
48.62
47.4432
47.9917
48.7169
-2.60724
-3.04104
0.229975
-2.30367
1.47231
0.473242
2.89336
3.76346
5.6373
7.43876
9.5129
11.7701
14.2107
16.8232
19.5257
22.1911
24.5826
26.9633
29.3818
32.625
2.69986
-1.07628
0.621204
-6.05155
-6.0526
-11.0064
-13.1414
-16.7033
-19.4448
-22.3102
-24.8478
-27.1675
-29.1497
-30.6543
-31.4441
-31.0324
-29.564
-27.4245
-26.0069
-22.86
18.3281
11.1031
18.4429
10.7036
11.8679
7.6062
5.38919
1.8221
-1.50094
-5.18787
-8.9145
-12.7561
-16.5737
-20.198
-23.3095
-25.3207
-25.8558
-26.0208
-26.9024
-26.1616
40.8843
18.7195
26.871
15.692
13.029
6.37005
1.50371
-3.68889
-8.12133
-12.026
-15.1472
-17.4301
-18.7558
-19.0307
-18.0874
-15.7026
-12.3012
-8.81941
-6.0133
-5.05707
725.924
643.489
594.567
538.274
489.279
441.938
397.906
356.282
317.085
280.029
244.955
211.674
180.01
149.965
121.693
94.4632
68.4417
47.6411
23.6656
-14.081
711.074
628.152
578.954
522.333
473.071
425.482
381.247
339.461
300.156
263.055
228.007
194.82
163.295
133.432
105.407
78.4944
53.1164
33.6382
10.4096
-27.4466
17.2301
-5.3268
2.5768
-8.94581
-11.9792
-18.9984
-24.2609
-29.8383
-34.6768
-38.9858
-42.5193
-45.2203
-46.9929
-47.7463
-47.378
-45.7925
-42.9419
-40.0904
-38.4383
-36.8438
-7.61286
-14.4696
-6.86495
-14.3168
-12.8658
-16.8717
-18.7923
-22.0986
-25.1227
-28.519
-31.936
-35.4879
-39.0799
-42.6057
-45.7592
-48.0564
-48.919
-48.1186
-47.4602
-45.687
-8.55752
-11.8229
-9.32462
-15.7445
-14.8855
-19.2047
-20.6266
-23.2915
-25.1932
-27.0381
-28.5328
-29.7039
-30.5096
-30.8282
-30.5375
-29.2665
-26.9574
-23.1212
-19.9397
-15.8831
-8.42445
-6.91952
-2.44669
-3.59418
1.76242
2.48229
6.73944
9.65358
13.6168
17.5202
21.7071
25.913
29.8792
33.0752
35.095
36.6684
39.1286
41.9301
44.0469
46.3587
48.629
47.5196
48.967
46.2789
48.5569
46.2105
46.8898
44.3424
43.3245
40.929
38.1345
34.5718
30.3741
24.779
20.9267
24.7048
26.3766
28.4493
29.6487
29.8784
-58.135
-63.5374
-66.3479
-73.3073
-77.3624
-85.4782
-91.1637
-99.2459
-106.463
-114.406
-122.987
-129.411
-139.162
-69.6732
40.9999
38.6308
37.5148
36.0316
34.4415
35.8612
-54.7565
-53.8228
-50.3751
-50.2422
-45.9088
-44.7021
-40.2586
-37.6433
-33.3869
-28.9657
-24.2509
-18.2019
-12.0517
-6.40918
-2.37326
-6.12138
-2.33433
1.79663
-6.76091
-2.6401
-0.596423
3.13149
6.19725
6.89184
10.9879
11.6635
15.1037
16.2928
18.8662
20.4972
22.5426
24.1497
26.2113
27.9695
30.8663
32.2558
35.1178
38.3737
37.1408
39.7612
26.5602
30.0263
31.1225
31.7868
33.8721
34.3898
36.1442
36.8635
38.2861
39.2394
40.6072
41.7506
43.0144
44.134
45.0402
46.0177
46.8114
48.1271
49.3944
51.8457
43.7657
46.8939
47.3704
48.428
49.8172
50.2351
51.4966
51.8851
52.7579
53.1867
53.849
54.2759
54.7143
55.0118
55.2669
55.4123
55.8877
56.2319
57.7574
58.7525
54.2686
56.5688
56.6701
57.6101
58.141
58.1618
58.7143
58.5733
58.8747
58.7136
58.8247
58.652
58.6639
58.4035
58.4692
58.0854
58.5579
58.4565
60.2152
60.4373
58.0401
59.3441
59.54
60.4495
60.4622
60.3741
60.4973
60.1463
60.1843
59.8015
59.7819
59.4374
59.4503
59.0658
59.2867
58.8221
59.5964
59.39
61.3535
61.6214
60.764
61.3488
62.0215
63.0166
62.7731
62.7846
62.6144
62.2684
62.1523
61.7537
61.701
61.3846
61.4674
61.2421
61.6679
61.6656
62.8683
63.1606
65.3087
65.6593
62.5442
62.9447
64.1743
65.5824
65.2398
65.4748
65.0981
64.9452
64.774
64.561
64.5821
64.4707
64.7293
64.8576
65.6112
66.1773
67.8063
68.5004
70.5752
70.6605
70.804
70.3678
71.5567
72.8287
72.0741
72.2671
71.5248
71.2993
70.7386
70.3245
69.8739
69.3772
69.0506
68.5035
68.4073
67.7568
68.1522
67.2697
68.4054
67.4057
59.3024
58.3529
59.2758
60.3359
59.0516
59.0973
57.8149
57.335
56.2909
55.5749
54.6017
53.6195
52.4051
50.847
49.254
46.9245
45.6843
43.6199
44.8374
44.4336
67.9427
66.1661
66.5645
67.5241
65.7707
65.5135
63.7122
62.9894
61.5723
60.6988
59.4844
58.3704
56.9753
55.4073
53.6351
51.6673
50.5246
49.3038
51.3296
51.7829
45.916
45.6444
45.8132
47.7293
46.5677
46.8714
45.7627
45.8492
45.4297
45.6624
45.7923
46.2452
46.7571
47.3937
48.2262
49.0878
50.5982
51.7408
54.429
55.4804
99.8844
99.0601
97.7907
99.0718
96.1073
94.2594
91.2989
89.2235
86.8836
85.3638
84.1351
83.1952
82.654
82.0578
82.0607
81.5029
81.9731
80.9313
81.4561
80.5068
)
;

boundaryField
{
    outletWall
    {
        type            fixedValue;
        value           uniform 0;
    }
    fineWalls
    {
        type            zeroGradient;
    }
    fineFrontAndBack
    {
        type            zeroGradient;
    }
    fineplugLeft
    {
        type            cyclicAMI;
        value           nonuniform List<scalar> 
20
(
59.5007
60.1415
59.0554
59.8343
59.4225
60.0157
60.1634
60.8979
61.568
62.6411
63.872
65.3666
67.0127
74.4075
74.2543
74.9029
76.2348
73.9967
69.8639
66.8828
)
;
    }
    fineplugRight
    {
        type            cyclicAMI;
        value           nonuniform List<scalar> 
20
(
64.3522
64.4972
63.7364
64.9418
64.7925
65.7233
66.0826
67.0033
67.7992
68.9001
70.181
71.6308
73.5672
81.898
81.4753
81.3401
83.36
82.2439
80.3224
77.2427
)
;
    }
    inletOutletLeft
    {
        type            cyclicAMI;
        value           nonuniform List<scalar> 
20
(
59.5007
60.1415
59.0554
59.8343
59.4225
60.0157
60.1634
60.8979
61.568
62.6411
63.872
65.3666
67.0127
74.4075
74.2543
74.9029
76.2348
73.9967
69.8639
66.8828
)
;
    }
    inletLeft
    {
        type            zeroGradient;
    }
    inletWallsLeft
    {
        type            zeroGradient;
    }
    inletFacesLeft
    {
        type            zeroGradient;
    }
    inletOutletRight
    {
        type            cyclicAMI;
        value           nonuniform List<scalar> 
20
(
64.3522
64.4972
63.7364
64.9418
64.7925
65.7233
66.0826
67.0033
67.7992
68.9001
70.181
71.6308
73.5672
81.898
81.4753
81.3401
83.36
82.2439
80.3224
77.2427
)
;
    }
    inletRight
    {
        type            zeroGradient;
    }
    inletWallsRight
    {
        type            zeroGradient;
    }
    inletFacesRight
    {
        type            zeroGradient;
    }
}


// ************************************************************************* //
