/*--------------------------------*- C++ -*----------------------------------*\
| =========                 |                                                 |
| \\      /  F ield         | OpenFOAM: The Open Source CFD Toolbox           |
|  \\    /   O peration     | Version:  4.1                                   |
|   \\  /    A nd           | Web:      www.OpenFOAM.org                      |
|    \\/     M anipulation  |                                                 |
\*---------------------------------------------------------------------------*/
FoamFile
{
    version     2.0;
    format      ascii;
    class       surfaceScalarField;
    location    "13";
    object      phi;
}
// * * * * * * * * * * * * * * * * * * * * * * * * * * * * * * * * * * * * * //

dimensions      [0 3 -1 0 0 0 0];

internalField   nonuniform List<scalar> 
2360
(
-131.122
1244.93
-1376.05
1244.93
1244.93
2740.29
-1495.36
2740.29
2740.29
2740.29
4497.93
-1757.64
4497.93
4497.93
6614.21
-2116.28
6614.21
6614.21
9125.05
-2510.84
9125.06
9125.05
12645.9
-3520.85
12645.9
12645.9
13362.5
14927.7
16604.9
18135.6
19530.3
20839.3
16866.4
5246.63
18079.1
19214.6
20263.2
21224.4
22106
22914.1
23654.6
24326.4
24934.9
25481.3
25974.4
26447.6
26899.3
12059.2
14840.1
12059.2
12059.2
12059.2
-81.6887
12140.9
-81.6891
-81.6878
-81.6881
-232.596
150.909
-232.596
-232.595
-166.394
-66.2013
-166.392
-166.392
-166.391
-12578
12411.6
-12578
-12578
-12578
-27379.5
14801.5
-26711.7
-26104.5
-25592.4
-25078.8
-24515.9
-23895.2
-23205.2
-22445.5
-21610.9
-20700.1
-19707.6
-18628.8
-17453.4
-21293.3
5120.91
-19940.1
-18547.4
-17128.1
-15603.1
-13950.3
-13000.4
-13000.4
-13000.4
-9586.71
-3413.71
-9586.71
-9586.71
-7484.88
-2101.82
-7484.88
-7484.88
-5826.6
-1658.28
-5826.6
-5826.6
-4583.5
-1243.1
-4583.5
-4583.5
-4583.5
-3697.25
-886.255
-3697.25
-3697.25
-3043.54
-653.708
-2505.44
-1973.85
-2279.06
1505.76
-2337.3
3919.52
-2362.18
2157.93
-2513.1
-3671.68
-2522.37
-4484.94
-2258.41
-3410.9
-1775.32
-1814.44
-1262.02
20.2154
-822.303
1465.79
-444.068
2736.57
-95.701
3754.36
211.228
3885.04
467.334
3681.93
645.839
3280.05
803.211
2929.9
896.863
2021.7
988.182
3852.99
4176.69
-3181.26
-2545.89
-2649.22
973.719
-2674.05
3944.35
-2841.46
2325.34
-3275.61
-3237.53
-3407.35
-4353.2
-3094.65
-3723.6
-2404.32
-2504.76
-1539.28
-844.831
-849.576
776.092
-431.114
2318.11
-106.663
3429.91
184.302
3594.08
423.209
3443.03
602.723
3100.53
796.824
2735.8
936.396
1882.13
1037.55
3751.84
4327.98
-3963.66
-3345.76
-3173.27
183.331
-3188.01
3959.09
-3569.73
2707.05
-4125.06
-2682.2
-4202.21
-4276.05
-3796.64
-4129.17
-3027.89
-3273.51
-2021.97
-1850.75
-1085.98
-159.897
-502.973
1735.1
-216.599
3143.53
74.0875
3303.39
339.431
3177.68
510.892
2929.07
785.297
2461.39
1023.78
1643.64
1149.59
3626.02
4234.47
-4995.09
-4383.45
-3893.77
-917.984
-3883.59
3948.91
-4439.65
3263.12
-5057.75
-2064.1
-5049.15
-4284.65
-4578.11
-4600.21
-3680.32
-4171.3
-2405.6
-3125.47
-1125.12
-1440.38
-358.953
968.935
-187.054
2971.63
-36.694
3153.03
128.626
3012.36
226.563
2831.13
578.17
2109.78
937.883
1283.93
1244.53
3319.38
3820.72
-6040.57
-5481.52
-4840.31
-2118.25
-4800.83
3909.43
-5417.8
3880.09
-6141.9
-1340.01
-6352.01
-4074.54
-6209.25
-4742.96
-5442.56
-4937.99
-3911.52
-4656.51
-2140.4
-3211.5
-889.715
-281.746
-402.025
2483.94
-203.978
2954.98
-188.733
2997.12
-215.145
2857.55
305.742
1588.9
890.588
699.086
1344.62
2865.35
3063.52
-6473.48
-6248.43
-5671.87
-2919.86
-5742.67
3980.23
-6446.22
4583.64
-7562.35
-223.884
-8470.39
-3166.49
-9088.26
-4125.1
-8931.27
-5094.98
-7691.16
-5896.62
-5587.09
-5315.57
-3219.93
-2648.91
-1456.99
721.004
-846.62
2344.62
-1063.19
3213.69
-1355.47
3149.82
-913.591
1147.02
-146.372
-68.1336
1465.09
1253.88
1114.91
-6303.76
-6261.74
-6271.91
-2951.7
-6397.32
4105.64
-7252.66
5438.98
-9118.49
1641.94
-11011.9
-1273.13
-12386.9
-2750.01
-12782.9
-4698.99
-11915.9
-6763.63
-9729.21
-7502.28
-6501.72
-5876.41
-3468.45
-2312.27
-2231.9
1108.07
-2374.44
3356.22
-2214.66
2990.05
-830.097
-237.542
981.307
-1879.54
1621.08
614.109
7856.89
-6472.15
-5605.14
-6886.14
-2537.71
-6710.17
3929.66
-7507.99
6236.8
-10070.1
4204.01
-12886.6
1543.41
-14620.6
-1015.98
-15145.6
-4174.04
-14807.4
-7101.78
-13672.8
-8636.95
-11531.1
-8018.07
-8477.58
-5365.79
-5237.59
-2131.92
-2874.47
993.107
-1838.55
1954.12
-3038.92
962.827
-5924.49
1006.04
-9683.04
4372.66
12975.4
-7346.78
-4651.84
-7840.99
-2043.5
-7370.43
3459.1
-7905.23
6771.6
-10474.8
6773.61
-13470.1
4538.65
-14987.2
501.18
-15217.7
-3943.58
-15248.5
-7070.95
-15304.5
-8580.94
-14968.1
-8354.47
-14056.8
-6277.16
-12563.4
-3625.23
-11202.4
-367.92
-11664.2
2415.92
-13762.3
3060.91
-15340.9
2584.63
-15339.8
4371.58
10047.1
-8557.45
-3518.85
-9322.49
-1278.46
-9068.57
3205.18
-9447.63
7150.66
-11304.4
8630.33
-13238.7
6472.96
-13555.6
818.106
-13077.3
-4421.88
-13219.4
-6928.88
-14035.4
-7764.86
-14904.1
-7485.78
-15558.4
-5622.86
-16030.2
-3153.42
-16244.5
-153.669
-16376.1
2547.59
-16177.5
2862.26
-14736.2
1143.31
-10296.5
-68.0456
-315.603
-9759.46
-2220.69
-10953.9
-83.9944
-11242.9
3494.1
-11630.8
7538.56
-12431.5
9431.09
-12576.8
6618.2
-11405.6
-353.013
-10368.2
-5459.33
-10403.4
-6893.7
-11489.1
-6679.14
-13331.4
-5643.49
-14910.6
-4043.63
-15581.4
-2482.63
-15842
106.979
-16013.4
2718.94
-15678.8
2527.66
-14374.2
-161.339
-10231.6
-4210.65
-10396.3
-10573.2
-876.451
-12032.2
1375.09
-12774.7
4236.61
-13166.8
7930.6
-12926.1
9190.41
-11458.9
5151.01
-9553.77
-2258.15
-8484.24
-6528.85
-7896.66
-7481.29
-7647.11
-6928.69
-8969.4
-4321.2
-11954.2
-1058.82
-14392
-44.7858
-15548
1262.92
-16103.1
3274.06
-16204.9
2629.42
-15872.6
-493.61
-15178.3
-4904.94
-13433.7
-10715.3
381.041
-12239.2
2899.02
-13192.9
5190.31
-13456.9
8194.64
-12407.6
8141.1
-9980.99
2724.38
-7852.96
-4386.17
-6897.17
-7484.65
-6281.4
-8097.05
-4963.02
-8247.07
-2793.49
-6490.73
-2472.06
-1380.25
-5006.4
2489.56
-7266.47
3522.98
-7728.49
3736.08
-6399.31
1300.25
-5987.86
-905.063
-9112.07
-1780.73
-7705.65
-10136.7
1484.64
-11625.1
4387.48
-12616.7
6181.86
-12628
8205.92
-10785.2
6298.28
-7524.65
-536.133
-5140.34
-6770.48
-4234.22
-8390.77
-3953.4
-8377.87
-3531.25
-8669.22
-2371.76
-7650.23
-247.985
-3504.02
37.3615
2204.21
-1190.71
4751.05
-1185.33
3730.71
59.0549
55.8593
1521.94
-2367.94
1973.27
-2232.06
-485.76
-9008.11
2375.48
-10387.2
5766.59
-11332.8
7127.42
-10942.4
7815.55
-8191.14
3547.02
-4660.08
-4067.2
-2795.92
-8634.63
-2210.63
-8976.07
-1914.66
-8673.83
-1802.76
-8781.12
-1516.99
-7936
-27.5029
-4993.51
1550.15
626.556
1905.84
4395.36
2078.2
3558.34
2049.71
84.3499
1579.1
-1897.33
2091.89
-2744.85
-1914.72
-7696.81
2974.13
-8825.19
6894.96
-9628.01
7930.25
-8758.53
6946.06
-5559.52
348.013
-2753.62
-6873.11
-1867.04
-9521.21
-1616.26
-9226.84
-1297.54
-8992.55
-1196.93
-8881.73
-992.58
-8140.35
118.169
-6104.26
1824.61
-1079.88
2850.1
3369.87
3107.3
3301.14
2761.62
430.034
2341.74
-1477.45
2229.39
-2632.5
-2196.18
-6546.77
3290.32
-7324.98
7673.16
-7841.41
8446.68
-6519.46
5624.11
-3586.23
-2585.22
-1886.65
-8572.68
-1621.07
-9786.79
-1477.2
-9370.71
-1238.8
-9230.96
-1037.87
-9082.65
-597.287
-8580.94
325.483
-7027.03
1763.6
-2518
2888.11
2245.36
3240.21
2949.04
2933.07
737.173
2500.02
-1044.41
2224.62
-2357.1
-2087.83
-5645.01
3418.5
-6091.23
8119.38
-6246.93
8602.38
-4663.17
4040.35
-2399.89
-4848.5
-1549.51
-9423.06
-1461.42
-9874.89
-1255.8
-9576.33
-1016.61
-9470.15
-738.942
-9360.33
-227.938
-9091.94
499.071
-7754.04
1580.42
-3599.35
2570.12
1255.66
3036.78
2482.37
2967.71
806.245
2639.66
-716.355
2174.54
-1891.98
-1670.93
-4953.04
3528.99
-5258.58
8424.92
-5085.23
8429.03
-3367.88
2323
-1834.2
-6382.18
-1451.53
-9805.74
-1297.17
-10029.3
-1033.82
-9839.68
-736.694
-9767.27
-408.754
-9688.27
24.4488
-9525.14
549.383
-8278.97
1301.2
-4351.17
2075.06
481.806
2570.82
1986.61
2578.41
798.657
2269.35
-407.294
1887.36
-1509.98
-1278.93
-4284.1
-4410.11
-3991.67
-2663.15
-1726.35
-1396.91
-1169.9
-909.789
-600.768
-262.133
114.865
519.239
988.455
1498.58
1874.23
1971.76
1890.09
1746.27
321.684
-1038.24
675.481
-1919.04
865.238
-1866.99
935.747
-1601.23
1049.5
-1508.41
1188.7
-1448.24
1291.36
-1376.38
1356.81
-1278.08
1376.4
-1155.14
1352.34
-1024.52
1293.77
-902.627
1209.3
-797.172
1102.9
-701.666
977.169
-614.769
833.04
-527.66
676.095
-451.559
510.01
-380.323
345.255
-328.394
188.437
-316.349
-263.243
413.399
-1451.64
524.566
-2030.21
435.903
-1778.33
294.635
-1459.96
308.886
-1522.66
379.474
-1518.83
418.21
-1415.12
415.102
-1274.98
363.086
-1103.13
278.613
-940.046
183.75
-807.764
88.0741
-701.498
-6.67864
-606.914
-100.236
-521.213
-187.508
-440.388
-259.922
-379.146
-299.065
-341.179
-269.357
-358.102
-147.15
-438.555
-410.394
195.47
-1647.11
161.331
-1996.07
113.512
-1730.51
58.903
-1405.35
82.7188
-1546.48
116.309
-1552.42
34.5094
-1333.32
-73.0811
-1167.39
-218.329
-957.878
-370.919
-787.457
-514.273
-664.411
-646.358
-569.414
-766.681
-486.591
-870.318
-417.577
-941.117
-369.59
-954.056
-366.208
-861.577
-433.659
-617.677
-602.002
-257.957
-798.275
-668.351
31.4863
-1678.6
-9.53087
-1955.06
15.1745
-1755.22
-2.37793
-1387.8
-52.9872
-1495.87
-66.1368
-1539.27
-201.715
-1197.74
-301.57
-1067.53
-401.59
-857.859
-486.099
-702.95
-572.106
-578.406
-666.323
-475.198
-770.275
-382.64
-867.23
-320.624
-931.818
-305.003
-923.77
-374.257
-797.425
-560.005
-538.621
-860.806
-233.325
-1103.57
-901.677
-25.6651
-1652.94
-18.0176
-1962.71
23.3856
-1796.62
24.8463
-1389.27
-15.8926
-1455.13
-4.62013
-1550.54
-74.2688
-1128.09
-74.5776
-1067.23
-35.6359
-896.802
43.3894
-781.977
124.993
-660.011
194.13
-544.337
228.161
-416.674
223.025
-315.489
180.438
-262.416
118.63
-312.45
54.8798
-496.256
0.11621
-806.043
-58.9235
-1044.53
-960.6
-33.9756
-1618.97
-25.0521
-1971.63
1.86494
-1823.54
2.05679
-1389.46
-12.7397
-1440.34
-11.2793
-1552
-30.2783
-1109.1
-5.24407
-1092.26
71.6416
-973.689
195.895
-906.231
342.778
-806.895
505.839
-707.399
662.052
-572.887
785.3
-438.738
836.903
-314.02
787.151
-262.698
621.727
-330.832
369.078
-553.395
115.466
-790.922
-845.134
-34.3692
-1584.6
-30.9046
-1975.1
-10.6853
-1843.76
-9.50341
-1390.64
-27.8581
-1421.98
-42.9123
-1536.95
-38.5481
-1113.46
-41.5561
-1089.25
-12.1963
-1003.05
34.781
-953.21
93.4841
-865.599
169.753
-783.669
268.795
-671.929
383.844
-553.788
484.264
-414.441
526.634
-305.069
464.976
-269.174
308.651
-397.071
146.822
-629.093
-698.312
-10.0678
-1574.53
-4.23164
-1980.94
9.58768
-1857.59
26.5486
-1407.61
17.4143
-1412.85
4.49537
-1524.03
35.0583
-1144.03
28.8029
-1083
33.0058
-1007.25
32.6007
-952.805
34.0076
-867.007
34.6274
-784.29
47.3704
-684.673
75.5118
-581.93
121.373
-460.302
169.602
-353.298
188.259
-287.832
164.38
-373.192
106.325
-571.039
-591.987
31.5093
-1606.05
28.0591
-1977.49
26.3175
-1855.85
56.9761
-1438.27
60.1677
-1416.04
37.315
-1501.18
76.8872
-1183.6
87.1746
-1093.29
97.5698
-1017.65
99.5496
-954.788
107.166
-874.626
112.229
-789.354
123.275
-695.721
137.466
-596.124
163.186
-486.023
196.325
-386.439
229.141
-320.649
229.39
-373.441
148.777
-490.427
-443.21
87.1791
-1693.23
70.943
-1961.25
57.0745
-1841.98
116.617
-1497.81
140.51
-1439.94
112.083
-1472.76
163.334
-1234.85
197.205
-1127.16
229.914
-1050.36
248.397
-973.271
269.212
-895.442
287.359
-807.502
309.447
-717.809
333.879
-620.556
364.762
-516.907
396.379
-418.056
419.198
-343.468
383.254
-337.497
230.076
-337.249
-213.133
119.357
-1812.58
90.4052
-1932.3
57.7887
-1809.37
143.044
-1583.07
207.127
-1504.02
180.261
-1445.89
253.999
-1308.59
316.012
-1189.18
379.938
-1114.29
428.682
-1022.02
473.323
-940.083
510.482
-844.662
544.389
-751.716
575.868
-652.034
608.047
-549.086
632.095
-442.104
624.84
-336.213
530.342
-242.998
307.208
-114.113
94.0746
92.5756
-1905.16
61.855
-1901.58
53.3418
-1800.85
114.883
-1644.61
183.254
-1572.39
196.303
-1458.94
266.659
-1378.94
345.832
-1268.35
424.377
-1192.83
498.623
-1096.26
565.215
-1006.67
619.737
-899.183
661.734
-793.712
692.743
-683.043
707.278
-563.619
671.329
-406.154
559.375
-224.257
371.567
-55.1893
134.706
122.751
228.78
-11.827
-1893.33
-51.5168
-1861.89
-69.7767
-1782.59
-90.0047
-1624.39
-98.419
-1563.98
-99.4775
-1457.88
-92.5124
-1385.91
-82.8025
-1278.06
-87.9013
-1187.73
-92.0323
-1092.13
-104.505
-994.202
-125.651
-878.037
-158.513
-760.849
-202.741
-638.815
-276.262
-490.098
-409.723
-272.692
-561.7
-72.2796
-551.161
-65.7269
-299.745
-128.665
-70.9642
-23.2583
-1870.07
-28.0349
-1857.12
-44.4592
-1766.16
-81.9429
-1586.9
-121.997
-1523.92
-176.97
-1402.91
-235.813
-1327.07
-298.25
-1215.62
-369.012
-1116.97
-439.892
-1021.25
-508.138
-925.954
-559.625
-826.549
-594.43
-726.043
-623.373
-609.87
-664.634
-448.837
-698.763
-238.562
-685.411
-85.6319
-529.782
-221.354
-259.204
-399.241
-330.168
54.2479
-1924.32
75.9391
-1878.8
107.133
-1797.36
132.544
-1612.31
157.367
-1548.74
162.729
-1408.27
154.808
-1319.14
151.027
-1211.83
152.5
-1118.44
152.693
-1021.44
155.466
-928.723
167.872
-838.951
188.978
-747.146
221.54
-642.429
283.213
-510.508
402.799
-358.148
547.001
-229.833
533.038
-207.39
294.93
-161.131
-35.2378
86.5218
-2010.84
91.3568
-1883.64
131.776
-1837.77
175.627
-1656.15
222.592
-1595.7
279.86
-1465.53
341.359
-1380.64
407.272
-1277.74
475.798
-1186.96
549.41
-1095.05
625.911
-1005.22
699.259
-912.296
763.29
-811.174
813.995
-693.131
851.478
-547.989
865.867
-372.534
847.136
-211.101
681.699
-41.9508
397.631
122.94
362.393
18.9089
-2029.74
-20.0039
-1844.72
-23.6867
-1834.09
-9.82782
-1670.01
7.84316
-1613.37
43.041
-1500.73
85.5049
-1423.1
141.638
-1333.87
209.361
-1254.68
289.283
-1174.97
380.409
-1096.35
479.178
-1011.06
575.781
-907.776
647.01
-764.358
649.301
-550.278
539.079
-262.31
346.636
-18.6552
185.265
119.424
52.1124
256.097
414.505
-167.398
-1862.34
-357.429
-1654.69
-511.656
-1679.86
-624.967
-1556.7
-728.159
-1510.18
-798.932
-1429.95
-854.91
-1367.12
-889.348
-1299.43
-907.322
-1236.7
-907.666
-1174.62
-891.115
-1112.9
-857.304
-1044.87
-806.393
-958.686
-737.33
-833.421
-645.698
-641.908
-527.557
-380.449
-411.423
-134.787
-300.718
8.72145
-201.933
157.315
212.573
-220.321
-1642.02
-487.872
-1387.14
-768.059
-1399.67
-1009.74
-1315.01
-1243.39
-1276.54
-1446.9
-1226.44
-1629.51
-1184.51
-1786.79
-1142.15
-1921.64
-1101.86
-2033.93
-1062.32
-2123.54
-1023.29
-2185.64
-982.769
-2207.59
-936.732
-2162.21
-878.803
-2002.13
-801.985
-1679.68
-702.899
-1229.25
-585.219
-771.457
-449.073
-330.298
-283.843
-117.725
-667.022
-1079.16
-1503.83
-1843.84
-2145.38
-2396.82
-2606.33
-2773.48
-2900.34
-2987.66
-3035.96
-3043.72
-3005.46
-2909.26
-2736.24
-2464.14
-2074.36
-1548.43
-857.275
-676.426
1651.43
-1098.24
1396.81
-1532.5
1409.27
-1882.47
1324.97
-2194.24
1286.77
-2456.33
1237.09
-2676.76
1195.44
-2854.97
1153.21
-2992.63
1112.66
-3090.16
1072.53
-3148.19
1033.04
-3166.33
993.139
-3140.67
949.344
-3059.33
893.662
-2899.31
814.983
-2629.4
705.092
-2216.55
562.146
-1633.05
391.502
-880.651
222.605
94.3488
-222.246
1873.68
-487.032
1661.6
-765.625
1687.86
-1002.84
1562.19
-1231.26
1515.2
-1427.22
1433.05
-1601
1369.22
-1747.52
1299.73
-1869.81
1234.95
-1967.42
1170.15
-2041.52
1107.14
-2090.65
1042.26
-2107.76
966.456
-2074.61
860.515
-1960.13
700.511
-1722.23
467.193
-1330.26
170.175
-871.974
-66.7834
-436.104
-213.262
-341.755
-144.801
2018.48
-321.798
1838.6
-457.252
1823.32
-550.646
1655.58
-631.02
1595.57
-679.385
1481.42
-710.175
1400.02
-718.063
1307.62
-706.104
1222.99
-673.578
1137.63
-620.962
1054.52
-549.216
970.52
-461.627
878.87
-364.884
763.776
-269.721
605.353
-186.228
383.709
-115.164
99.1253
-63.0251
-118.907
-62.5712
-213.707
-404.326
50.2936
1968.19
33.4841
1855.41
55.4554
1801.35
96.749
1614.29
143.192
1549.13
210.982
1413.63
289.771
1321.23
382.895
1214.5
487.453
1118.43
603.397
1021.69
728.469
929.455
857.769
841.221
978.513
758.128
1069.13
673.162
1100.12
574.364
1032.08
451.75
810.361
320.848
491.376
200.082
226.838
50.8365
-177.488
85.6972
1882.5
117.918
1823.2
169.912
1749.36
212.103
1572.1
251.761
1509.48
278.834
1386.56
293.528
1306.54
311.577
1196.46
329.674
1100.34
346.917
1004.45
371.279
905.099
426.483
786.021
553.508
631.107
751.026
475.648
922.577
402.817
936.979
437.352
827.685
430.144
613.362
414.41
331.696
332.508
154.208
-103.957
1986.45
-200.236
1919.47
-301.996
1851.12
-425.109
1695.21
-547.997
1632.36
-679.985
1518.55
-825.167
1451.72
-975.339
1346.62
-1133.57
1258.58
-1281.37
1152.24
-1415.76
1039.49
-1496.2
866.454
-1539.34
674.249
-1541.86
478.169
-1621.53
482.491
-1269.07
84.9002
-921.841
82.9142
-601.613
94.186
-294.47
25.3731
-140.261
13.4531
1973
-10.4114
1943.33
-7.5222
1848.23
-1.09813
1688.78
5.11402
1626.15
2.11756
1521.54
4.39925
1449.43
25.7735
1325.24
69.4189
1214.92
144.388
1077.26
244.778
939.094
332.361
778.867
333.267
673.343
207.647
603.789
-101.714
791.865
-275.765
258.972
-297.219
104.386
-222.715
19.7044
-212.193
14.8712
-352.454
127.046
1845.94
92.1778
1978.19
114.389
1826.01
139.364
1663.8
175.82
1589.69
223.929
1473.42
286.099
1387.26
336.522
1274.81
371.571
1179.87
386.921
1061.9
388.917
937.096
369.261
798.512
407.299
635.307
486.284
524.801
654.15
624.001
428.848
484.275
223.099
310.139
33.9084
208.901
-52.9749
101.766
-405.429
178.949
1666.99
152.004
2005.14
169.577
1808.44
203.9
1629.48
253.985
1539.61
315.441
1411.97
389.995
1312.7
462.47
1202.33
526.252
1116.09
568.255
1019.89
586.162
919.19
566.106
818.567
507.947
693.467
480.046
552.702
637.594
466.456
709.468
412.402
664.117
355.493
540.184
332.837
404.614
237.34
-0.814594
177.376
1489.62
174.23
2008.28
180.173
1802.49
202.349
1607.3
236.364
1505.59
272.835
1375.49
314.228
1271.31
355.878
1160.68
396.501
1075.46
426.383
990.008
441.021
904.552
440.098
819.488
415.764
717.8
400.811
567.654
450.799
416.468
507.571
355.63
508.04
355.025
437.993
402.884
273.26
402.076
272.446
130.633
1358.98
137.559
2001.35
133.234
1806.81
138.674
1601.85
154.639
1489.62
170.632
1359.5
186.746
1255.19
203.518
1143.91
223.082
1055.9
242.957
970.131
262.661
884.847
284.988
797.159
305.434
697.354
315.104
557.983
313.301
418.27
310.203
358.728
311.309
353.919
286.252
427.942
175.814
512.513
448.26
77.8482
1281.13
87.8527
1991.34
84.5565
1810.11
81.4666
1604.94
88.5541
1482.53
93.1757
1354.87
95.2462
1253.12
96.7221
1142.43
104.401
1048.22
119.402
955.127
142.986
861.26
173.251
766.891
202.121
668.482
203.352
556.75
176.948
444.672
157.565
378.11
168.437
343.045
174.451
421.927
113.297
573.666
561.557
43.2017
1237.92
55.9603
1978.58
60.3476
1805.72
56.4505
1608.84
65.378
1473.6
73.1926
1347.06
77.4827
1248.83
76.7144
1143.19
81.1327
1043.8
92.585
943.673
108.945
844.898
122.755
753.079
123.208
668.028
95.2061
584.75
54.7339
485.143
37.7055
395.137
50.571
330.179
69.9729
402.525
55.601
588.036
617.158
22.6549
1215.27
37.5061
1963.73
56.8168
1786.4
61.0856
1604.56
79.9326
1454.76
102.724
1324.26
126.874
1224.68
141.053
1129.01
149.883
1034.96
153.539
940.015
148.934
849.501
134.604
767.406
113.653
688.977
93.5414
604.86
84.6583
494.025
92.379
387.415
93.9023
328.655
74.3865
422.039
45.3902
617.031
662.548
-5.02345
1220.29
7.3497
1951.35
40.9612
1752.79
52.7253
1592.8
72.1682
1435.31
94.2959
1302.13
130.299
1188.67
161.856
1097.45
184.593
1012.22
198.188
926.417
207.487
840.2
223.648
751.244
259.762
652.861
319.453
545.167
383.96
429.517
420.337
351.036
387.936
361.055
272.447
537.528
126.928
762.548
789.476
-50.9222
1271.21
-51.3489
1951.78
-19.7535
1721.19
-9.60768
1582.65
-10.6615
1436.36
-17.2994
1308.77
4.18591
1167.19
47.132
1054.51
106.149
953.205
178.08
854.484
267.54
750.738
378.178
640.605
506.094
524.944
633.013
418.246
723.438
339.091
736.292
338.181
636.386
460.96
427.802
746.111
174.013
1016.34
963.49
-55.4775
1326.68
-46.3908
1942.69
5.7481
1669.05
20.6399
1567.76
-10.1574
1467.16
-60.8131
1359.43
-88.5318
1194.9
-78.0114
1043.99
-27.0422
902.235
54.0929
773.348
154.861
649.969
259.382
536.084
351.3
433.024
415.843
353.703
438.38
316.552
408.793
367.768
317.401
552.352
179.516
883.995
23.8639
1171.99
987.354
-23.2976
1349.98
-21.7186
1941.11
27.4832
1619.85
55.9076
1539.33
23.8004
1499.27
-35.4111
1418.64
-102.325
1261.82
-160.599
1102.26
-200.343
941.979
-225.866
798.871
-246.184
670.286
-273.861
563.761
-313.98
473.142
-364.092
403.814
-410.421
362.881
-426.29
383.636
-382.631
508.693
-271.83
773.193
-142.45
1042.61
844.903
152.694
1197.28
171.182
1922.62
132.96
1658.07
126.301
1545.99
103.082
1522.49
62.2285
1459.49
4.42065
1319.62
-71.0449
1177.72
-165.682
1036.62
-277.06
910.248
-401.115
794.341
-531.652
694.297
-661.133
602.624
-780.712
523.393
-871.063
453.231
-898.777
411.35
-804.257
414.173
-546.501
515.437
-200.619
696.724
644.285
247.431
517.219
650.249
776.969
906.768
1013.04
1051.69
1054
1011.8
929.525
813.135
672.802
515.687
349.082
181.636
30.0822
-69.3598
-66.016
23.4857
)
;

boundaryField
{
    outletWall
    {
        type            calculated;
        value           nonuniform List<scalar> 
60
(
-3043.54
-3842.21
-3944.31
-2115.35
-3087.27
-3458.55
-3938.04
-4191.97
-4102.73
-3114.81
-1905.51
-533.515
1331.35
3146.93
4494.22
3822.6
-2133.05
-3861.28
-1732.14
1682.76
4205.14
4842.55
5516.84
6230.58
7098.16
8117.27
9033.09
9457.77
9228.92
8461.29
7424.46
6393.49
5815.55
6317.07
7240.38
7138.64
6032.78
4763.52
3753.31
2796.52
131.121
-908.719
-1366.16
-325.624
701.13
1610.95
-28.315
-4820.38
-8683.35
-9902.14
-10026.9
-10076.3
-10099.8
-10256.3
-10135.2
-7318.98
994.48
8010.6
8550.93
3607.95
)
;
    }
    fineWalls
    {
        type            calculated;
        value           uniform 0;
    }
    fineFrontAndBack
    {
        type            calculated;
        value           nonuniform List<scalar> 
960
(
-5.73763e-13
4.57794e-13
2.5017e-13
7.39614e-14
9.90277e-13
1.73709e-13
1.7741e-13
1.42443e-14
9.01265e-13
1.76263e-13
2.72539e-13
5.32293e-14
-1.91639e-13
-1.8595e-13
-4.18803e-12
-1.20732e-12
-1.2511e-12
-2.45434e-12
-3.17893e-13
-5.16816e-13
-3.0917e-14
-1.42155e-13
-2.09017e-13
-2.66377e-13
-2.91411e-13
-3.82586e-13
-5.27637e-12
-5.72698e-13
-6.03818e-13
-6.39141e-13
-6.73688e-13
-7.17165e-13
-7.60958e-13
-8.10665e-13
-8.60743e-13
-9.35216e-13
-1.00203e-12
-1.11658e-12
-1.20683e-12
-1.17155e-12
-2.23451e-11
-2.48178e-12
-2.25017e-12
-2.17992e-12
-6.52609e-12
-5.89182e-12
-7.30454e-12
4.36404e-12
2.42053e-10
-1.73976e-12
3.04421e-12
4.51329e-11
1.43548e-11
1.78857e-11
1.00665e-11
1.3478e-11
1.47445e-12
1.71922e-12
1.97092e-12
1.6528e-11
6.95621e-13
9.70555e-13
9.30604e-13
8.16523e-13
7.45527e-13
6.6413e-13
5.98632e-13
5.3751e-13
4.81366e-13
4.32624e-13
3.82714e-13
3.39152e-13
2.89908e-13
-3.43857e-12
3.36622e-14
-7.96643e-14
-1.24784e-13
-2.02143e-13
-2.84537e-13
-4.63864e-13
-2.53703e-12
-2.75206e-12
-1.5398e-11
-2.54567e-12
-2.82644e-12
-1.49723e-11
-1.94548e-12
-2.18656e-12
-1.14489e-11
-1.357e-12
-1.5674e-12
-7.99824e-12
-5.42223e-13
-6.09531e-13
-6.02596e-13
-3.60108e-12
-1.82054e-13
-2.63397e-13
-1.6436e-12
1.74616e-13
-1.09744e-11
-9.19296e-11
-5.98045e-11
-7.3577e-11
-6.19115e-11
-3.82509e-11
-1.80214e-11
-1.29941e-11
-2.15553e-11
-2.9664e-11
-3.26374e-11
-4.25091e-11
-5.21884e-11
-5.29293e-11
-5.0116e-11
-4.5531e-11
-4.15196e-11
-3.29621e-11
-2.35104e-11
1.31806e-11
-8.69636e-11
-5.80228e-11
-7.45867e-11
-5.04218e-11
-1.83398e-11
-4.89256e-12
4.31924e-13
1.92683e-12
-1.35427e-11
-2.67537e-11
-4.13762e-11
-5.07268e-11
-5.03554e-11
-4.97289e-11
-4.61442e-11
-4.26794e-11
-3.41114e-11
-2.45191e-11
-8.89736e-12
-5.46688e-11
-5.13403e-11
-7.37905e-11
-3.76263e-11
-1.70539e-11
-3.10073e-11
-3.63385e-11
-2.57725e-11
-1.6811e-11
-1.67253e-11
-2.58852e-11
-4.55117e-11
-4.72694e-11
-4.96063e-11
-4.4818e-11
-4.05413e-11
-3.42983e-11
-2.59206e-11
-3.73215e-12
-2.72467e-11
-4.13963e-11
-6.51713e-11
-3.58982e-11
-4.44058e-11
-7.42999e-11
-8.55999e-11
-8.80154e-11
-7.56954e-11
-3.92558e-11
-1.89129e-11
-3.17851e-11
-4.0718e-11
-4.79907e-11
-4.33289e-11
-3.83826e-11
-3.31891e-11
-2.66634e-11
-1.10924e-11
-2.87674e-11
-3.53326e-11
-4.86814e-11
-5.18872e-11
-7.75779e-11
-8.94012e-11
-8.69252e-11
-8.85483e-11
-7.65747e-11
-4.69525e-11
-1.22783e-11
-1.53293e-11
-2.32796e-11
-4.18569e-11
-4.06733e-11
-3.27024e-11
-3.04743e-11
-2.48182e-11
-3.10711e-11
-3.85886e-11
-3.1303e-11
-3.52176e-11
-6.66095e-11
-8.36764e-11
-6.79282e-11
-5.42667e-11
-4.75743e-11
-3.88337e-11
-2.60585e-11
-4.59337e-12
-1.86599e-12
-8.09491e-12
-3.65375e-11
-4.53592e-11
-3.96307e-11
-2.87185e-11
-2.64297e-11
-2.77647e-11
-3.44735e-11
-4.14201e-11
-3.77066e-11
-7.00902e-11
-6.99891e-11
-4.15061e-11
-2.83522e-11
-2.50822e-11
-2.47e-11
-2.71809e-11
-3.22777e-11
-3.658e-11
-3.72266e-11
-4.50473e-11
-4.07368e-11
-3.12096e-11
-3.92734e-11
-3.36532e-11
-4.13507e-12
-2.91323e-11
-6.96848e-11
-6.4881e-11
-7.53441e-11
-5.92005e-11
-2.98265e-11
-1.88895e-11
-1.54875e-11
-1.33352e-11
-1.34124e-11
-1.77369e-11
-2.88564e-11
-3.86939e-11
-3.73649e-11
-2.56174e-11
-1.2579e-11
-8.68913e-12
4.35702e-12
2.3387e-11
-2.16882e-11
-9.34927e-11
-9.76441e-11
-8.59589e-11
-5.60136e-11
-2.60515e-11
-1.35155e-11
-7.82915e-12
-5.71035e-12
-5.21646e-12
-3.71062e-12
-5.47086e-12
-1.05316e-11
-1.08904e-11
-3.52436e-12
3.71932e-12
8.51325e-12
1.41395e-11
5.71038e-11
7.54091e-12
-7.39093e-11
-9.12485e-11
-7.43333e-11
-4.00431e-11
-9.55691e-12
2.7903e-12
3.70406e-12
7.10758e-13
-1.99758e-12
-2.73856e-13
7.78446e-12
4.31889e-12
4.73429e-12
1.06634e-11
1.4889e-11
2.07763e-11
3.37101e-11
9.16967e-11
5.57412e-11
-1.04811e-11
-3.8542e-11
-3.28464e-11
-7.55192e-12
1.78573e-11
2.29051e-11
1.3377e-11
8.61443e-12
4.91268e-12
3.01055e-12
8.43155e-12
1.61827e-11
1.55162e-11
9.92552e-12
7.06074e-12
2.12382e-11
1.00093e-10
1.02969e-10
8.20984e-11
3.83416e-11
1.37357e-11
1.11202e-11
2.52311e-11
3.75621e-11
2.47366e-11
7.62507e-12
2.05312e-12
2.66672e-12
-6.02507e-12
-1.73176e-11
-1.80227e-11
-1.64248e-11
-2.20441e-11
-2.70778e-11
-2.81241e-11
-2.6296e-11
9.35967e-11
8.09405e-11
5.28824e-11
3.49587e-11
3.13026e-11
3.40114e-11
2.90238e-11
1.5112e-11
1.05706e-13
-9.37825e-12
-4.1971e-12
2.34753e-11
1.37433e-11
-2.22797e-11
-2.21316e-11
-1.53086e-11
-9.93237e-12
-1.12266e-11
-2.03151e-11
8.15623e-11
7.25666e-11
5.32263e-11
3.52824e-11
2.85572e-11
1.52802e-11
-6.45951e-12
-1.14543e-11
-9.90171e-12
-1.52802e-11
-1.97362e-11
-3.63354e-12
2.68155e-11
5.56522e-12
-1.81042e-11
-1.46552e-11
-3.89778e-12
5.42029e-12
1.44827e-11
6.81098e-11
5.82227e-11
5.20208e-11
2.96817e-11
1.25959e-11
-1.86119e-11
-4.21038e-11
-4.24961e-11
-2.99638e-11
-2.32453e-11
-1.94614e-11
-8.01413e-12
-1.20522e-11
8.92874e-12
5.35208e-13
2.05756e-12
1.88182e-11
1.6985e-11
2.13813e-11
5.42902e-11
3.5423e-11
4.6346e-11
2.44897e-11
-2.56669e-12
-3.11768e-11
-3.92676e-11
-3.88661e-11
-3.43243e-11
-2.81188e-11
-1.59973e-11
-5.6075e-12
-9.77848e-12
-4.50181e-12
-9.78969e-13
7.18309e-12
1.05667e-11
6.04356e-12
4.83936e-12
4.44262e-11
1.02745e-11
3.1649e-11
1.97735e-11
-7.23374e-12
-2.43368e-11
-2.48428e-11
-2.09803e-11
-2.03651e-11
-1.95223e-11
-1.02782e-11
-4.04858e-12
-5.38803e-12
-7.34609e-12
-5.0093e-12
-4.04947e-13
1.13278e-13
-5.57371e-13
1.72863e-12
4.3545e-11
-1.3337e-11
1.27991e-11
1.30594e-11
-8.37458e-12
-2.19281e-11
-1.89248e-11
-1.22066e-11
-1.0084e-11
-1.22753e-11
-7.60012e-12
-2.70186e-12
-3.95871e-12
-4.448e-12
-4.68825e-12
-3.6292e-12
-3.07885e-12
-1.30134e-12
1.84213e-12
5.5599e-11
-2.60329e-11
-4.94816e-12
2.58135e-12
-1.32649e-11
-2.23213e-11
-1.71743e-11
-1.05425e-11
-8.50434e-12
-1.11089e-11
-7.48783e-12
-1.21189e-12
-2.54818e-12
-2.87886e-12
-3.50794e-12
-3.58898e-12
-2.85464e-12
-8.41136e-13
2.13766e-12
4.91308e-11
-3.04373e-11
-1.30615e-11
-8.14264e-12
-1.6711e-11
-2.1962e-11
-1.66594e-11
-9.55665e-12
-7.33929e-12
-1.06424e-11
-6.57425e-12
-5.70305e-13
-1.41493e-12
-2.43761e-12
-3.0403e-12
-3.09441e-12
-2.59022e-12
-6.64635e-13
2.18107e-12
5.73763e-13
-4.57794e-13
-2.5017e-13
-7.39614e-14
-9.90277e-13
-1.73709e-13
-1.7741e-13
-1.42443e-14
-9.01265e-13
-1.76263e-13
-2.72539e-13
-5.32293e-14
1.91639e-13
1.8595e-13
4.18803e-12
1.20732e-12
1.2511e-12
2.45434e-12
3.17893e-13
5.16816e-13
3.0917e-14
1.42155e-13
2.09017e-13
2.66377e-13
2.91411e-13
3.82586e-13
5.27637e-12
5.72698e-13
6.03818e-13
6.39141e-13
6.73688e-13
7.17165e-13
7.60958e-13
8.10665e-13
8.60743e-13
9.35216e-13
1.00203e-12
1.11658e-12
1.20683e-12
1.17155e-12
2.23451e-11
2.48178e-12
2.25017e-12
2.17992e-12
6.52609e-12
5.89182e-12
7.30454e-12
-4.36404e-12
-2.42053e-10
1.73976e-12
-3.04421e-12
-4.51329e-11
-1.43548e-11
-1.78857e-11
-1.00665e-11
-1.3478e-11
-1.47445e-12
-1.71922e-12
-1.97092e-12
-1.6528e-11
-6.95621e-13
-9.70555e-13
-9.30604e-13
-8.16523e-13
-7.45527e-13
-6.6413e-13
-5.98632e-13
-5.3751e-13
-4.81366e-13
-4.32624e-13
-3.82714e-13
-3.39152e-13
-2.89908e-13
3.43857e-12
-3.36622e-14
7.96643e-14
1.24784e-13
2.02143e-13
2.84537e-13
4.63864e-13
2.53703e-12
2.75206e-12
1.5398e-11
2.54567e-12
2.82644e-12
1.49723e-11
1.94548e-12
2.18656e-12
1.14489e-11
1.357e-12
1.5674e-12
7.99824e-12
5.42223e-13
6.09531e-13
6.02596e-13
3.60108e-12
1.82054e-13
2.63397e-13
1.6436e-12
-1.74616e-13
1.09744e-11
9.19296e-11
5.98045e-11
7.3577e-11
6.19115e-11
3.82509e-11
1.80214e-11
1.29941e-11
2.15553e-11
2.9664e-11
3.26374e-11
4.25091e-11
5.21884e-11
5.29293e-11
5.0116e-11
4.5531e-11
4.15196e-11
3.29621e-11
2.35104e-11
-1.31806e-11
8.69636e-11
5.80228e-11
7.45867e-11
5.04218e-11
1.83398e-11
4.89256e-12
-4.31924e-13
-1.92683e-12
1.35427e-11
2.67537e-11
4.13762e-11
5.07268e-11
5.03554e-11
4.97289e-11
4.61442e-11
4.26794e-11
3.41114e-11
2.45191e-11
8.89736e-12
5.46688e-11
5.13403e-11
7.37905e-11
3.76263e-11
1.70539e-11
3.10073e-11
3.63385e-11
2.57725e-11
1.6811e-11
1.67253e-11
2.58852e-11
4.55117e-11
4.72694e-11
4.96063e-11
4.4818e-11
4.05413e-11
3.42983e-11
2.59206e-11
3.73215e-12
2.72467e-11
4.13963e-11
6.51713e-11
3.58982e-11
4.44058e-11
7.42999e-11
8.55999e-11
8.80154e-11
7.56954e-11
3.92558e-11
1.89129e-11
3.17851e-11
4.0718e-11
4.79907e-11
4.33289e-11
3.83826e-11
3.31891e-11
2.66634e-11
1.10924e-11
2.87674e-11
3.53326e-11
4.86814e-11
5.18872e-11
7.75779e-11
8.94012e-11
8.69252e-11
8.85483e-11
7.65747e-11
4.69525e-11
1.22783e-11
1.53293e-11
2.32796e-11
4.18569e-11
4.06733e-11
3.27024e-11
3.04743e-11
2.48182e-11
3.10711e-11
3.85886e-11
3.1303e-11
3.52176e-11