/*--------------------------------*- C++ -*----------------------------------*\
| =========                 |                                                 |
| \\      /  F ield         | OpenFOAM: The Open Source CFD Toolbox           |
|  \\    /   O peration     | Version:  4.1                                   |
|   \\  /    A nd           | Web:      www.OpenFOAM.org                      |
|    \\/     M anipulation  |                                                 |
\*---------------------------------------------------------------------------*/
FoamFile
{
    version     2.0;
    format      ascii;
    class       volVectorField;
    location    "13";
    object      U;
}
// * * * * * * * * * * * * * * * * * * * * * * * * * * * * * * * * * * * * * //

dimensions      [0 1 -1 0 0 0 0];

internalField   nonuniform List<vector> 
1280
(
(-4.14643e-16 -0.047486 -0.0775931)
(7.78065e-17 0.133294 -0.919793)
(1.80791e-16 0.353692 -0.688942)
(5.345e-17 0.426565 -0.536372)
(1.68307e-16 0.705464 -1.05856)
(1.28208e-16 0.770349 -0.798011)
(1.2821e-16 0.952054 -0.779556)
(1.86492e-18 0.983044 -0.696533)
(1.80655e-16 1.3726 -1.26997)
(1.2738e-16 1.42718 -0.986124)
(2.09217e-16 1.59109 -0.868678)
(-1.22932e-16 2.07081 -1.62183)
(-1.38492e-16 2.04414 -1.29665)
(-1.52913e-16 2.30885 -1.15488)
(-9.14527e-16 2.84402 -2.04247)
(-8.72501e-16 2.77553 -1.66932)
(-9.04138e-16 3.1395 -1.46491)
(-4.17139e-16 3.69847 -2.87906)
(-2.29733e-16 3.94084 -2.06754)
(-3.73489e-16 3.77965 -3.16938)
(-1.26839e-16 4.10768 -0.579806)
(-5.83198e-16 4.3754 4.73152)
(-8.57507e-16 4.20113 8.00242)
(-1.09283e-15 4.44432 9.60134)
(-1.19553e-15 4.55765 10.3451)
(-1.56958e-15 4.95254 11.1053)
(-1.11228e-15 3.64238 8.49261)
(-2.34953e-15 8.40613 14.4471)
(-2.4772e-15 8.50218 14.6304)
(-2.62212e-15 8.53673 14.5748)
(-2.76385e-15 8.55129 14.3942)
(-2.94221e-15 8.51511 14.1887)
(-3.12188e-15 8.4931 13.9807)
(-3.3258e-15 8.41415 13.7983)
(-3.53125e-15 8.38476 13.605)
(-3.83679e-15 8.24405 13.4331)
(-4.1109e-15 8.2342 13.273)
(-4.58086e-15 7.99912 13.104)
(-4.95111e-15 8.0391 13.1007)
(-4.80637e-15 7.73119 13.0075)
(-3.88949e-15 9.43918 14.6551)
(-1.9934e-15 5.49049 10.3193)
(-1.80737e-15 4.2187 10.0524)
(-1.74165e-15 3.2225 10.0805)
(-9.64761e-16 0.863247 8.24156)
(-4.73239e-15 -0.397518 -2.72359)
(-5.8671e-15 0.0387792 -4.14569)
(3.50525e-15 0.521968 -4.59825)
(4.27911e-14 1.7988 -5.23393)
(-1.51684e-15 -0.750263 -0.482237)
(2.32562e-15 0.61161 -1.67256)
(7.85603e-15 -1.58012 -5.51445)
(1.15299e-14 -0.681624 -4.5224)
(1.4366e-14 -0.0148046 -3.8173)
(8.08558e-15 0.135379 -1.42206)
(2.34604e-15 -1.08672 8.52744)
(1.19343e-15 -3.38389 9.99398)
(1.3809e-15 -4.42525 9.82234)
(1.58307e-15 -5.61191 9.90398)
(2.75854e-15 -9.15172 14.3375)
(2.85383e-15 -7.85302 13.3922)
(3.98176e-15 -8.07274 13.2621)
(3.81786e-15 -8.01858 13.1212)
(3.34984e-15 -8.27552 13.2412)
(3.05857e-15 -8.29497 13.4133)
(2.72464e-15 -8.459 13.5813)
(2.45593e-15 -8.50109 13.7667)
(2.20517e-15 -8.59738 13.9082)
(1.97483e-15 -8.62301 14.0249)
(1.77487e-15 -8.65823 14.0805)
(1.57011e-15 -8.63248 14.0936)
(1.39139e-15 -8.59207 14.036)
(1.18936e-15 -8.4839 13.8701)
(-7.24864e-16 -3.95717 8.09505)
(1.38101e-16 -5.09483 10.9497)
(-3.26828e-16 -4.80525 9.9108)
(-5.11933e-16 -4.69938 8.96364)
(-8.29306e-16 -4.35019 7.89855)
(-1.16733e-15 -4.51688 6.04906)
(-1.90303e-15 -4.24857 0.739865)
(-1.83345e-15 -3.37011 -3.90265)
(-2.01028e-15 -4.29463 -1.75004)
(-2.61704e-15 -3.53589 -2.82499)
(-1.83969e-15 -3.33837 -1.38243)
(-2.0426e-15 -2.89916 -1.57173)
(-2.66544e-15 -3.18208 -1.87323)
(-1.40595e-15 -2.58143 -1.07006)
(-1.58017e-15 -2.32739 -1.16418)
(-1.92713e-15 -2.5122 -1.3977)
(-9.8067e-16 -2.01781 -0.737876)
(-1.12205e-15 -1.85025 -0.799585)
(-1.45246e-15 -2.01744 -0.968306)
(-4.04717e-16 -1.54221 -0.500478)
(-4.40492e-16 -1.59705 -0.523896)
(-4.3548e-16 -1.38215 -0.486937)
(-6.12038e-16 -1.5943 -0.559647)
(-1.31565e-16 -1.21993 -0.207122)
(-1.9035e-16 -1.18693 -0.214456)
(-2.70984e-16 -1.28057 -0.217845)
(1.2619e-16 -0.986257 0.0366046)
(-1.21938e-15 0.561857 2.32566)
(-1.02144e-14 -0.586966 1.86094)
(-6.64494e-15 -1.29381 1.93901)
(-8.17522e-15 -0.733775 1.92903)
(-6.87905e-15 1.28155 2.03219)
(-4.2501e-15 1.50513 2.15177)
(-2.00237e-15 1.06181 2.05711)
(-1.44378e-15 0.453462 1.70331)
(-2.39503e-15 -0.181932 1.2503)
(-3.296e-15 -0.63374 0.856899)
(-3.62638e-15 -1.02796 0.516516)
(-4.72323e-15 -1.35368 0.222736)
(-5.79871e-15 -1.38428 -0.0641429)
(-5.88103e-15 -1.29952 -0.286571)
(-5.56845e-15 -1.14747 -0.497143)
(-5.059e-15 -1.0257 -0.577796)
(-4.61329e-15 -0.70049 -0.76204)
(-3.66245e-15 -1.30375 -0.723472)
(-2.61227e-15 -1.29586 -0.937431)
(1.46451e-15 0.750348 3.11571)
(-9.66262e-15 -0.407706 2.21648)
(-6.44698e-15 -1.31756 2.19702)
(-8.28741e-15 -0.710139 2.19917)
(-5.60242e-15 1.15107 2.57715)
(-2.03776e-15 1.47685 2.88717)
(-5.43617e-16 1.19652 2.79844)
(4.79915e-17 0.73432 2.3524)
(2.14092e-16 0.152397 1.65161)
(-1.50475e-15 -0.359627 0.919118)
(-2.97263e-15 -0.820073 0.498898)
(-4.59736e-15 -1.17189 0.216057)
(-5.63631e-15 -1.22461 -0.0373005)
(-5.59504e-15 -1.17511 -0.268432)
(-5.52543e-15 -1.05354 -0.448643)
(-5.12714e-15 -0.940687 -0.552354)
(-4.74215e-15 -0.663668 -0.774113)
(-3.79016e-15 -1.29298 -0.775095)
(-2.72435e-15 -1.47376 -0.964952)
(-9.88596e-16 0.952758 3.95343)
(-6.07431e-15 -0.234922 2.69868)
(-5.70448e-15 -1.32069 2.57623)
(-8.19894e-15 -0.827822 2.6762)
(-4.1807e-15 0.986794 3.29708)
(-1.89488e-15 1.42276 3.60141)
(-3.44526e-15 1.28527 3.40956)
(-4.03761e-15 0.939751 2.91101)
(-2.86361e-15 0.426859 2.13245)
(-1.86789e-15 -0.137212 1.24249)
(-1.85837e-15 -0.706015 0.572799)
(-2.87613e-15 -1.10403 0.258075)
(-5.05686e-15 -1.16951 0.103668)
(-5.25215e-15 -1.12138 -0.226237)
(-5.51181e-15 -1.01108 -0.357229)
(-4.97978e-15 -0.86979 -0.487847)
(-4.50459e-15 -0.56367 -0.819418)
(-3.81092e-15 -1.17175 -0.862659)
(-2.88007e-15 -1.39343 -1.08962)
(-4.14683e-16 1.27502 5.00771)
(-3.02742e-15 0.108815 3.3726)
(-4.59959e-15 -1.3214 3.10107)
(-7.24126e-15 -0.987198 3.30364)
(-3.98869e-15 0.793996 4.11375)
(-4.93397e-15 1.42552 4.34585)
(-8.25554e-15 1.46448 4.0802)
(-9.5111e-15 1.24081 3.54612)
(-9.77949e-15 0.801787 2.58458)
(-8.4106e-15 0.226227 1.42548)
(-4.36175e-15 -0.469247 0.45682)
(-2.10143e-15 -0.995983 0.133401)
(-3.53168e-15 -1.02479 0.182359)
(-4.52422e-15 -0.991269 -0.12482)
(-5.3323e-15 -0.944028 -0.113344)
(-4.81432e-15 -0.785868 -0.255644)
(-4.26473e-15 -0.579984 -0.704953)
(-3.68768e-15 -1.3011 -0.824499)
(-2.9626e-15 -1.48068 -1.31314)
(-1.23249e-15 1.64614 5.92918)
(-3.19638e-15 0.50966 4.19629)
(-3.92584e-15 -1.30913 3.85691)
(-5.40904e-15 -1.19429 4.07018)
(-5.76524e-15 0.574578 4.9757)
(-8.61976e-15 1.42851 5.2884)
(-9.93346e-15 1.608 5.31565)
(-9.65836e-15 1.55725 5.03225)
(-9.8387e-15 1.30942 4.03175)
(-8.5083e-15 0.765647 2.48944)
(-5.21695e-15 -0.152163 1.08867)
(-1.36425e-15 -0.984729 0.381081)
(-1.70326e-15 -1.10258 0.293728)
(-2.58662e-15 -1.05624 0.0405169)
(-4.65077e-15 -0.964433 0.246886)
(-4.51926e-15 -0.594212 0.111889)
(-3.6336e-15 -0.177828 -0.605917)
(-3.38604e-15 -0.799653 -0.828812)
(-2.75758e-15 -0.980265 -1.52172)
(-3.45235e-15 2.00835 6.02185)
(-4.28762e-15 0.898425 4.81471)
(-3.47811e-15 -1.29956 4.63342)
(-3.91307e-15 -1.39929 4.85689)
(-7.40106e-15 0.316177 5.90573)
(-9.29738e-15 1.28437 6.71667)
(-7.54758e-15 1.55668 7.42568)
(-6.02963e-15 1.73617 7.72204)
(-5.28604e-15 1.78631 7.15172)
(-4.31485e-15 1.36647 5.66661)
(-2.89538e-15 0.339342 3.65882)
(-5.10374e-16 -0.655982 1.69803)
(-2.07333e-16 -0.824363 0.742904)
(-8.99435e-16 -0.908805 0.650361)
(-4.05972e-15 -0.94101 1.10514)
(-5.03991e-15 -0.536078 1.14091)
(-4.40341e-15 -0.467461 0.400242)
(-3.19095e-15 -1.33491 -0.110563)
(-2.93664e-15 -1.23206 -2.58531)
(-3.08497e-15 2.16403 5.26968)
(-3.83039e-15 1.04615 5.25979)
(-4.60224e-15 -1.35198 5.20265)
(-4.18962e-15 -1.65549 5.37456)
(-7.7878e-15 -0.153503 6.73641)
(-7.77656e-15 0.828818 8.46671)
(-4.61179e-15 1.19034 9.91694)
(-3.15024e-15 1.64773 10.7277)
(-2.78691e-15 2.12925 10.5635)
(-2.74445e-15 2.16573 9.29371)
(-3.0201e-15 1.42481 6.93594)
(-3.58641e-15 0.166056 3.89827)
(-4.06444e-15 -0.795199 1.89294)
(-4.13629e-15 -1.27383 1.81035)
(-5.00525e-15 -1.14671 2.13115)
(-4.52631e-15 -0.113155 1.52937)
(-3.46773e-15 0.802026 -0.120539)
(-4.36372e-15 1.00535 -1.41914)
(-3.73925e-15 0.724432 -1.1841)
(-4.59453e-16 2.01602 4.87278)
(-3.23692e-15 0.925608 5.90568)
(-7.74276e-15 -1.37669 5.59775)
(-7.209e-15 -1.9643 5.50184)
(-8.37157e-15 -0.937943 7.03163)
(-6.57784e-15 0.0143331 9.74988)
(-3.31406e-15 0.640607 11.7607)
(-2.09884e-15 1.48396 12.6077)
(-1.72083e-15 2.37828 12.6197)
(-1.48169e-15 2.83652 12.0546)
(-1.49027e-15 2.50552 10.7384)
(-1.97076e-15 1.43703 8.49051)
(-3.20627e-15 0.187206 5.65877)
(-4.29932e-15 -0.833984 3.05153)
(-4.15165e-15 -0.755099 1.72549)
(-2.84638e-15 0.191941 1.30356)
(-1.39767e-15 0.235248 3.79637)
(-9.65459e-16 -1.53076 6.0743)
(4.84114e-16 -5.82382 10.0135)
(2.59855e-15 1.72268 5.37218)
(-2.4098e-15 0.774676 6.8325)
(-1.03881e-14 -1.23143 6.27891)
(-1.08493e-14 -2.18661 5.92908)
(-9.55099e-15 -1.86297 7.25784)
(-6.22373e-15 -1.04141 10.2005)
(-2.89461e-15 0.0374324 12.2772)
(-1.50172e-15 1.30493 12.7048)
(-8.69906e-16 2.36445 12.6425)
(-6.34483e-16 2.92125 12.7669)
(-5.79607e-16 2.82072 12.7331)
(-4.12292e-16 2.0978 12.2228)
(-6.07874e-16 1.19054 11.2312)
(-1.17018e-15 0.125806 9.70161)
(-1.21004e-15 -0.666411 8.93588)
(-3.91595e-16 -0.849361 10.5183)
(4.13257e-16 -0.824205 12.5012)
(9.45917e-16 -1.62469 12.9521)
(1.57106e-15 -3.37845 12.5981)
(6.34487e-15 1.37881 6.2444)
(8.37879e-16 0.590941 7.94873)
(-8.21214e-15 -1.06503 7.64416)
(-1.01387e-14 -2.31652 7.40992)
(-8.25926e-15 -2.64549 8.33826)
(-4.44923e-15 -1.96689 10.509)
(-9.87189e-16 -0.356318 11.5748)
(3.10034e-16 1.33133 11.0226)
(4.11562e-16 2.3489 10.7552)
(7.89731e-17 2.79154 11.2749)
(-2.21953e-16 2.72991 12.0987)
(-7.20256e-17 2.0466 12.7507)
(8.6494e-16 1.15549 13.2019)
(4.79877e-16 0.0718148 13.5084)
(5.22003e-16 -0.894413 13.5615)
(1.18483e-15 -1.14135 13.7675)
(1.65433e-15 -0.976226 13.2732)
(2.30848e-15 -1.51688 10.9181)
(3.74557e-15 -2.90632 6.60471)
(1.01885e-14 0.96553 7.11733)
(6.19346e-15 0.252933 9.05327)
(-1.16457e-15 -1.07255 9.26655)
(-4.28245e-15 -2.44323 9.42957)
(-3.6496e-15 -3.10028 9.95458)
(-8.39102e-16 -2.33795 10.7732)
(1.90259e-15 -0.189324 10.2001)
(2.54501e-15 1.61261 8.81297)
(1.48633e-15 2.2588 8.4485)
(9.57159e-16 2.38294 8.89293)
(5.45854e-16 2.28833 10.2239)
(3.34506e-16 1.71933 12.0068)
(9.36838e-16 0.958346 12.8711)
(1.79808e-15 0.0259266 13.0839)
(1.72402e-15 -0.841419 13.328)
(1.10284e-15 -0.824862 13.4128)
(7.84527e-16 0.11156 12.7847)
(2.3598e-15 1.48867 10.7803)
(1.11214e-14 3.09711 6.65271)
(1.1441e-14 0.5127 7.76073)
(9.12205e-15 -0.205329 9.75171)
(4.26018e-15 -1.26276 10.3651)
(1.52619e-15 -2.58384 10.8996)
(1.23558e-15 -3.1832 11.0498)
(2.80345e-15 -2.07594 10.4952)
(4.17357e-15 0.418791 8.61899)
(2.74851e-15 2.01221 7.29332)
(8.4723e-16 2.33499 6.84197)
(2.28125e-16 2.04035 6.32908)
(2.96303e-16 1.3385 6.34046)
(-6.69453e-16 0.904655 8.64351)
(-1.92418e-15 0.671629 11.3175)
(-2.00252e-15 -0.104997 12.64)
(-1.82497e-15 -0.956413 13.2992)
(-2.44935e-15 -0.798956 13.5808)
(-3.00864e-15 0.244636 13.472)
(-3.1249e-15 1.68882 12.837)
(-2.92177e-15 3.45118 12.454)
(1.03996e-14 0.0692023 7.94765)
(8.99339e-15 -0.715364 9.80474)
(5.87582e-15 -1.56853 10.6462)
(3.8843e-15 -2.706 11.3304)
(3.47806e-15 -2.94331 11.1101)
(3.77904e-15 -1.36746 9.55585)
(3.22487e-15 1.10549 7.10905)
(1.67911e-15 2.34849 5.95093)
(1.17451e-17 2.65573 5.54492)
(-1.04203e-15 2.60752 4.92544)
(-4.66344e-16 1.70034 3.31228)
(2.60837e-15 -0.134173 1.3103)
(1.52703e-15 -0.641168 2.88023)
(-2.47552e-15 -0.740569 5.40475)
(-2.45906e-15 -1.16266 6.79505)
(-1.70095e-15 -0.861762 6.15271)
(-1.1036e-15 0.0187225 4.45563)
(-1.2474e-15 1.62281 5.3772)
(-2.25724e-15 6.04023 9.80657)
(9.06248e-15 -0.326806 7.57897)
(8.06296e-15 -1.2187 9.22848)
(5.91404e-15 -1.89503 10.184)
(3.92027e-15 -2.75571 10.8474)
(3.17302e-15 -2.47514 10.2167)
(1.6978e-15 -0.442364 7.73588)
(-7.17724e-16 1.81856 4.82923)
(-1.2727e-15 2.64041 3.70569)
(-1.10019e-15 2.74372 3.36143)
(-1.6978e-15 2.8824 3.23092)
(-2.19291e-15 2.55279 2.61924)
(-4.03726e-16 1.00197 1.31041)
(2.9795e-15 -0.989397 -0.857753)
(6.18358e-16 -1.55787 0.72356)
(-2.01157e-15 -1.29737 1.42942)
(-1.62835e-15 -0.060986 0.608004)
(-4.33087e-16 0.643977 -0.846159)
(6.02255e-16 -0.242349 -1.71818)
(1.60919e-15 -1.0195 -1.41675)
(7.56775e-15 -0.666759 6.7961)
(6.46919e-15 -1.70552 8.15674)
(5.78009e-15 -2.22517 9.17833)
(3.29796e-15 -2.70821 9.72915)
(1.39954e-15 -1.71346 8.52096)
(-2.06798e-15 0.806573 5.12067)
(-4.6782e-15 2.65698 2.63075)
(-4.72179e-15 2.94616 2.01522)
(-3.32931e-15 2.84855 1.68283)
(-2.58281e-15 2.91655 1.5113)
(-2.16238e-15 2.59463 1.46801)
(-8.90459e-16 1.40563 1.04941)
(-1.33913e-15 -0.527868 -1.06242)
(9.92083e-16 -1.64612 -1.48885)
(5.94676e-17 -1.2624 -1.55992)
(2.28618e-16 -0.00716798 -1.83917)
(2.09091e-15 0.81207 -1.7005)
(1.88722e-15 1.33194 -0.964786)
(2.3757e-15 1.0697 -2.72942)
(6.03224e-15 -0.920087 5.9303)
(3.93589e-15 -2.13625 6.8599)
(5.14955e-15 -2.52007 7.86212)
(2.72108e-15 -2.48956 8.21924)
(-2.85187e-16 -0.668023 6.36795)
(-3.46409e-15 1.91595 2.91368)
(-4.36307e-15 3.10112 1.62982)
(-4.31845e-15 3.04619 1.48493)
(-3.81382e-15 2.9399 1.22152)
(-3.12431e-15 2.93591 0.945058)
(-1.77748e-15 2.67922 1.02701)
(-6.23055e-16 1.89595 0.619732)
(-1.0865e-15 0.113054 -0.886699)
(-5.00201e-16 -1.29857 -2.09288)
(-1.08774e-16 -1.14609 -2.57765)
(7.98121e-16 -0.0813802 -2.54239)
(1.17408e-15 0.491083 -2.16499)
(6.71506e-16 0.657556 -1.73602)
(5.37706e-16 0.40593 -2.06414)
(4.93625e-15 -1.06102 5.19751)
(1.14161e-15 -2.45785 5.69109)
(3.51655e-15 -2.76506 6.52567)
(2.19706e-15 -2.14146 6.58142)
(-8.03749e-16 0.429102 4.26831)
(-2.70409e-15 2.64805 1.71833)
(-2.76031e-15 3.2503 1.38537)
(-2.33115e-15 3.10229 1.32474)
(-2.26279e-15 3.0458 1.14349)
(-2.16914e-15 2.98397 0.927145)
(-1.14203e-15 2.75822 0.787153)
(-4.49842e-16 2.18968 0.202107)
(-5.9867e-16 0.638525 -0.793868)
(-8.16232e-16 -0.933125 -2.08957)
(-5.56589e-16 -1.06055 -2.6853)
(-4.49941e-17 -0.220351 -2.66471)
(1.25865e-17 0.459731 -2.29911)
(-6.19301e-17 1.0065 -1.8684)
(1.9207e-16 0.959424 -1.88705)
(4.83834e-15 -1.13681 4.59707)
(-1.48189e-15 -2.65662 4.7985)
(1.42213e-15 -2.85712 5.36192)
(1.45104e-15 -1.60007 5.07306)
(-9.30508e-16 1.30864 2.71103)
(-2.43646e-15 3.0412 1.265)
(-2.10276e-15 3.2716 1.29762)
(-1.35629e-15 3.14458 1.14583)
(-1.12045e-15 3.10674 0.948566)
(-1.36393e-15 3.0686 0.751539)
(-8.44457e-16 2.95927 0.469773)
(-3.00207e-16 2.49536 -0.0951744)
(-4.39856e-16 1.06679 -0.762278)
(-4.94223e-16 -0.546458 -1.8257)
(-5.20917e-16 -0.904641 -2.45067)
(-4.03244e-16 -0.266517 -2.57661)
(-3.42095e-16 0.263092 -2.41701)
(-1.44593e-16 0.615788 -1.97734)
(2.04682e-16 0.487767 -1.67566)
(6.17766e-15 -1.13365 4.03775)
(-2.89255e-15 -2.75538 4.20759)
(-5.49796e-16 -2.8972 4.56397)
(2.86816e-16 -1.16364 3.89602)
(-1.47388e-15 1.94603 1.78642)
(-2.48015e-15 3.25778 1.21824)
(-1.90825e-15 3.32275 1.19156)
(-1.17139e-15 3.24141 0.976398)
(-9.44926e-16 3.20061 0.746114)
(-1.23433e-15 3.16018 0.485703)
(-8.31981e-16 3.08821 0.189683)
(-1.34654e-16 2.65829 -0.234608)
(-2.83131e-16 1.32019 -0.692237)
(-3.19873e-16 -0.29233 -1.43554)
(-3.89771e-16 -0.759393 -2.03564)
(-3.98776e-16 -0.293549 -2.23126)
(-3.17182e-16 0.181762 -2.09134)
(-9.34595e-17 0.602474 -1.68771)
(2.37518e-16 0.58784 -1.47082)
(5.45898e-15 -1.21252 3.50801)
(-3.38193e-15 -2.85661 3.62315)
(-1.45127e-15 -2.69427 3.73669)
(-9.04738e-16 -0.336932 2.88138)
(-1.85678e-15 2.35509 1.61195)
(-2.44022e-15 3.32814 1.24323)
(-1.85104e-15 3.39095 1.07903)
(-1.06185e-15 3.34578 0.873865)
(-8.15477e-16 3.34209 0.642519)
(-1.18249e-15 3.32857 0.359823)
(-7.30472e-16 3.28865 0.0760792)
(-6.33672e-17 2.88536 -0.268997)
(-1.57214e-16 1.60036 -0.600023)
(-2.70845e-16 -0.0186898 -1.03131)
(-3.37811e-16 -0.547784 -1.47185)
(-3.43823e-16 -0.225067 -1.64808)
(-2.87803e-16 0.112261 -1.64903)
(-7.38483e-17 0.442503 -1.49462)
(2.42342e-16 0.29482 -1.42277)
(1.59098e-16 8.093 13.4033)
(-1.41826e-15 17.4877 28.6776)
(-1.70237e-15 19.17 30.0801)
(-1.92056e-15 17.2802 26.8816)
(-2.07236e-15 15.8844 24.0948)
(-2.68951e-15 15.1213 22.2829)
(-3.04208e-15 14.5784 20.8862)
(-3.0186e-15 13.9949 19.6128)
(-3.04253e-15 13.2189 18.0867)
(-3.22468e-15 12.237 16.4284)
(-3.49417e-15 11.2207 14.7912)
(-3.95598e-15 10.1953 13.3109)
(-4.49974e-15 9.24867 11.9457)
(-5.1776e-15 8.23912 10.6905)
(-5.98838e-15 7.30876 9.41363)
(-7.12881e-15 6.20431 8.23632)
(-8.35305e-15 5.39135 7.07082)
(-1.02109e-14 4.18531 6.07345)
(-1.08085e-14 4.06864 5.63143)
(-8.97747e-15 2.72097 4.9696)
(1.28039e-16 11.7263 19.3295)
(-1.25574e-15 18.8208 30.7405)
(-1.14991e-15 17.0647 27.6911)
(-1.39001e-15 13.7977 22.6778)
(-1.48788e-15 13.5107 22.5344)
(-1.93493e-15 13.708 22.4485)
(-1.76321e-15 13.2857 21.6112)
(-1.67114e-15 12.3494 19.8689)
(-1.92193e-15 10.9798 17.617)
(-2.2286e-15 9.46962 15.2659)
(-2.55342e-15 8.07973 13.1635)
(-3.06745e-15 6.84646 11.4093)
(-3.78193e-15 5.79501 9.84512)
(-4.6705e-15 4.72445 8.43431)
(-5.72692e-15 3.8296 7.03591)
(-7.02874e-15 2.85781 5.87595)
(-8.53862e-15 2.34338 4.859)
(-9.92888e-15 1.69822 4.28206)
(-8.60269e-15 2.35454 4.44557)
(-5.24686e-15 1.86005 3.88514)
(2.40814e-17 14.4287 24.9343)
(-5.63411e-16 18.7986 31.5024)
(-4.60853e-16 15.6449 26.807)
(-5.81082e-16 13.0251 22.0478)
(-5.7181e-16 13.9404 24.1793)
(-1.04047e-15 14.3221 24.1777)
(-6.06358e-16 12.748 21.8326)
(-6.66103e-16 11.1319 19.2601)
(-8.09332e-16 9.08455 16.2173)
(-9.26835e-16 7.23657 13.5428)
(-1.17203e-15 5.79623 11.5671)
(-1.45098e-15 4.63245 10.0442)
(-1.91024e-15 3.61228 8.69136)
(-2.41706e-15 2.64906 7.46007)
(-3.07466e-15 1.86699 6.37049)
(-3.75214e-15 1.30207 5.64602)
(-4.24205e-15 1.34196 5.49292)
(-4.2808e-15 2.1518 6.58149)
(-2.53594e-15 4.38582 8.84395)
(-2.24835e-17 4.43431 8.29639)
(8.72141e-18 14.6479 25.8816)
(1.69056e-16 17.65 30.0015)
(1.03255e-16 15.1082 26.5235)
(1.23953e-16 12.5369 21.2633)
(9.08706e-17 13.3109 23.4509)
(-8.51769e-16 13.6804 23.6219)
(-7.77314e-16 10.8187 19.2237)
(-9.37983e-16 9.13722 16.6925)
(-1.15513e-15 6.98607 13.292)
(-1.31071e-15 5.29548 10.7253)
(-1.52006e-15 4.11131 8.91717)
(-1.80055e-15 3.10664 7.52009)
(-2.29856e-15 2.2288 6.32855)
(-2.81391e-15 1.49127 5.44154)
(-3.34761e-15 1.10256 5.06112)
(-3.57527e-15 1.36538 5.68841)
(-3.38484e-15 2.81678 7.92408)
(-2.79371e-15 5.47485 12.0242)
(-1.6527e-15 8.55602 15.8263)
(-8.59823e-16 6.87777 12.4893)
(-2.04609e-18 14.3239 25.7202)
(-3.99144e-17 17.7341 30.1208)
(-2.45336e-17 15.6018 27.449)
(-2.94011e-17 12.634 21.4078)
(-1.94608e-17 12.9445 22.5554)
(1.77524e-16 13.7051 23.7243)
(1.66251e-16 10.1734 17.6155)
(1.96186e-16 9.05073 16.1394)
(2.40245e-16 7.52685 13.0868)
(2.80116e-16 6.20876 10.8853)
(3.49095e-16 5.35511 8.85913)
(4.56939e-16 4.38039 7.07874)
(6.09625e-16 3.60476 5.41979)
(7.64597e-16 2.98566 4.39762)
(9.00699e-16 2.9297 4.2965)
(9.48771e-16 3.59442 5.80281)
(8.95204e-16 5.62685 9.28537)
(7.80572e-16 8.23117 14.4439)
(4.84335e-16 10.6796 18.1124)
(1.44568e-16 8.2984 15.2275)
(4.44231e-19 13.911 25.1651)
(9.37973e-18 17.9288 30.2904)
(6.19169e-18 15.6983 27.8532)
(7.08269e-18 12.5837 21.3674)
(5.56853e-18 12.843 22.2368)
(-3.5615e-17 13.6823 23.9996)
(-4.04247e-17 10.0791 17.1082)
(-4.59853e-17 9.3499 16.711)
(-5.60921e-17 8.65429 14.5204)
(-6.46212e-17 7.69335 13.1881)
(-7.78049e-17 7.28578 11.4622)
(-9.76274e-17 6.35306 9.68074)
(-1.26359e-16 5.51947 7.40857)
(-1.59889e-16 4.49363 5.31304)
(-1.97649e-16 3.91232 3.77496)
(-2.32647e-16 3.792 3.80261)
(-2.48661e-16 5.05037 5.97029)
(-2.25087e-16 6.80059 10.3385)
(-1.52186e-16 8.83795 14.0007)
(-8.64397e-17 7.88316 14.2831)
(-9.28381e-20 13.5553 24.6169)
(-2.24316e-18 18.0725 30.3508)
(-1.60026e-18 15.7176 28.2279)
(-1.76881e-18 12.6869 21.3484)
(-1.53733e-18 12.7382 22.0511)
(7.89562e-18 13.33 23.7337)
(1.10236e-17 10.1345 17.0003)
(1.24731e-17 9.29605 16.8821)
(1.48267e-17 9.1769 15.4231)
(1.65748e-17 8.2278 14.6795)
(1.90163e-17 8.04607 13.348)
(2.24e-17 7.07972 12.068)
(2.67111e-17 6.42526 10.2033)
(3.13788e-17 5.29398 8.17182)
(3.7563e-17 4.35917 5.87444)
(4.68591e-17 3.42593 4.26661)
(5.75365e-17 3.61541 4.19353)
(5.94526e-17 4.47048 6.66754)
(4.27549e-17 6.6762 10.3031)
(2.64832e-17 6.52051 11.6556)
(1.61718e-20 13.3361 24.1637)
(5.40079e-19 18.2771 30.4386)
(4.07798e-19 15.7363 28.5239)
(4.38464e-19 12.9909 21.4696)
(4.58103e-19 12.6201 21.7258)
(-1.88906e-18 13.1907 23.5732)
(-3.04786e-18 10.5497 17.274)
(-3.4375e-18 9.23707 16.6453)
(-3.91294e-18 9.35841 15.4538)
(-4.28997e-18 8.26172 14.6662)
(-4.77722e-18 7.96322 13.3045)
(-5.45113e-18 6.88994 12.0655)
(-6.17669e-18 6.25281 10.493)
(-6.80827e-18 5.15111 8.89079)
(-7.68687e-18 4.28113 6.9022)
(-9.51984e-18 3.14466 5.14727)
(-1.27235e-17 2.92904 4.11955)
(-1.59096e-17 3.36911 5.58579)
(-1.28174e-17 5.8856 9.1008)
(-6.71204e-18 5.46669 9.91525)
(-1.64151e-21 13.5206 24.2544)
(-1.29689e-19 18.4642 30.4907)
(-1.03243e-19 15.6333 28.6072)
(-1.08684e-19 13.4117 21.8064)
(-1.29863e-19 12.6638 21.7187)
(4.61126e-19 13.0217 23.2968)
(7.84889e-19 11.0409 17.9101)
(8.88233e-19 9.38055 16.6638)
(9.77341e-19 9.44074 15.5231)
(1.06416e-18 8.48349 14.6327)
(1.15697e-18 8.02191 13.3527)
(1.28074e-18 7.12326 12.0458)
(1.38377e-18 6.37881 10.5527)
(1.55168e-18 5.40542 8.99424)
(1.94353e-18 4.54707 7.24021)
(2.37966e-18 3.55707 5.70393)
(2.22377e-18 3.28791 4.71808)
(2.06768e-18 3.69173 5.8795)
(2.8555e-18 5.61252 8.44988)
(2.31637e-18 4.59135 8.26925)
(-2.23308e-22 14.2092 25.1501)
(3.06649e-20 18.5482 30.3394)
(2.61153e-20 15.4411 28.4821)
(2.72435e-20 13.9892 22.4323)
(3.67079e-20 12.8742 21.8307)
(-1.15282e-19 12.9454 22.8915)
(-1.97512e-19 11.4598 18.5061)
(-2.18561e-19 9.88221 16.9677)
(-2.3259e-19 9.68663 15.7818)
(-2.52457e-19 8.95852 14.7362)
(-2.68159e-19 8.34884 13.5501)
(-2.87544e-19 7.63877 12.2341)
(-3.19281e-19 6.86156 10.8475)
(-3.83909e-19 6.0344 9.34253)
(-3.92184e-19 5.17392 7.71046)
(-2.85597e-19 4.29716 6.18319)
(-2.95002e-19 3.85583 5.14593)
(-3.77623e-19 4.00177 5.60961)
(-3.4284e-19 4.66719 6.63988)
(-2.96131e-19 3.2192 5.36902)
(1.98214e-22 15.2652 26.9836)
(-7.13804e-21 18.4513 30.0296)
(-6.66773e-21 15.3128 28.2265)
(-6.1595e-21 14.6809 23.6779)
(-1.03429e-20 13.2741 22.4956)
(2.6276e-20 13.0704 22.4384)
(4.65831e-20 11.891 19.503)
(5.1309e-20 10.8083 17.7166)
(5.2785e-20 10.1863 16.5357)
(5.63076e-20 9.67823 15.2066)
(5.92535e-20 8.93382 13.9898)
(6.47879e-20 8.30488 12.5924)
(7.22938e-20 7.51872 11.2115)
(6.67554e-20 6.74618 9.71838)
(5.64719e-20 5.90372 8.15754)
(1.07707e-19 5.07253 6.64088)
(1.94038e-19 4.41256 5.3792)
(2.45107e-19 3.91631 4.72295)
(3.00693e-19 3.04856 3.65377)
(4.36219e-19 1.04873 0.925622)
(-7.33951e-23 16.0269 28.9431)
(1.65044e-21 18.0678 29.5948)
(1.67843e-21 15.455 27.6052)
(2.01374e-21 15.0355 25.1069)
(2.46021e-21 13.7017 23.7839)
(-6.42788e-21 13.5004 22.0193)
(-1.07043e-20 12.0909 20.8054)
(-1.1403e-20 11.843 18.9374)
(-1.1455e-20 10.8568 17.8077)
(-1.18982e-20 10.4958 16.3144)
(-1.25079e-20 9.6543 15.0185)
(-1.30111e-20 9.04809 13.4936)
(-1.18674e-20 8.19933 12.0237)
(-9.78699e-21 7.42422 10.4583)
(-1.26514e-20 6.51528 8.85991)
(-2.63453e-20 5.52168 7.0993)
(-3.42159e-20 4.22401 5.12915)
(-5.36577e-20 2.69921 2.94596)
(-4.66167e-20 0.557909 0.114609)
(3.19505e-19 -1.55994 -3.1671)
(2.00858e-23 15.8666 29.49)
(-3.97438e-22 17.6556 28.729)
(-4.07559e-22 14.8497 27.6308)
(-4.81498e-22 15.2958 25.4438)
(-6.13314e-22 13.4583 24.5628)
(1.20427e-21 13.4212 22.8662)
(2.16204e-21 11.9617 21.6032)
(2.19385e-21 11.6922 20.0637)
(2.32432e-21 10.5338 18.8752)
(3.56211e-21 10.0193 17.394)
(5.76811e-21 8.91092 15.9313)
(7.96697e-21 8.01807 14.1456)
(9.21438e-21 6.81725 12.3668)
(9.11703e-21 5.76114 10.5236)
(5.94261e-21 4.3949 8.44535)
(-1.47879e-20 2.45893 5.36399)
(-3.48281e-20 -0.055003 1.73417)
(-6.94507e-20 -1.93063 -1.30662)
(-1.86515e-19 -3.35781 -3.97039)
(-2.82745e-19 -2.45604 -4.0427)
(-4.18186e-24 15.3432 28.6789)
(9.71177e-23 17.647 28.456)
(1.06842e-22 14.4628 27.0963)
(1.18921e-22 14.9091 24.4128)
(6.05357e-23 12.7355 23.452)
(-5.11597e-22 12.817 21.9308)
(-1.00246e-21 11.3895 20.9973)
(-1.33591e-21 10.8198 19.2107)
(-1.03377e-21 9.35746 17.5978)
(6.00831e-22 8.61129 16.1413)
(3.73259e-21 7.43181 14.5946)
(6.4278e-21 6.35598 12.8092)
(4.40837e-21 5.16786 10.9827)
(-8.95133e-21 4.04764 9.07104)
(-5.2308e-20 2.49857 6.57097)
(-1.70496e-19 0.355041 2.93901)
(-3.27658e-19 -1.28122 0.373566)
(-3.11267e-19 0.565714 3.20567)
(-1.12062e-19 3.82453 7.75595)
(-9.30012e-21 2.65669 5.87868)
(1.15055e-24 15.3637 28.9693)
(-2.13007e-23 18.2837 28.7929)
(-2.27676e-23 14.6529 27.3526)
(-3.37752e-23 15.4568 24.5067)
(-6.3906e-23 13.1761 23.5088)
(-2.59865e-23 13.0462 21.2361)
(-4.66314e-23 11.5649 19.8261)
(-1.13246e-22 10.9159 18.1654)
(-2.54236e-22 9.95046 16.7406)
(-4.54522e-22 9.13078 15.2287)
(-7.39582e-22 8.30701 13.814)
(-1.01701e-21 7.56083 12.5117)
(-1.2894e-21 6.85523 11.2094)
(-4.66226e-21 5.95943 9.55334)
(-4.40148e-20 4.60603 7.14909)
(-1.83158e-19 3.16813 4.34012)
(-4.18798e-19 2.1865 2.19238)
(-3.714e-19 3.22691 3.47495)
(-1.82676e-19 3.49292 4.29042)
(-3.64703e-20 2.54902 3.73158)
(-2.63013e-25 15.744 30.3678)
(6.06252e-24 18.8627 29.156)
(7.48344e-24 14.9155 28.0972)
(-8.05075e-25 16.0153 25.2638)
(-3.35802e-23 13.7479 24.3006)
(-1.13792e-22 13.7383 22.2642)
(-1.96935e-22 12.5424 20.927)
(-2.43191e-22 11.9672 19.2979)
(-2.04028e-22 11.1739 17.8428)
(-7.49367e-23 10.4965 16.3809)
(6.16151e-23 9.81843 14.9539)
(6.97902e-24 9.13873 13.5068)
(-5.73253e-22 8.40531 11.9979)
(-1.71356e-21 7.59319 10.3817)
(-9.55245e-22 6.66344 8.62552)
(7.45448e-21 5.62463 6.70044)
(2.32474e-20 4.52898 4.87531)
(4.16259e-20 3.36428 2.89049)
(3.61162e-20 1.38074 0.687139)
(3.56807e-21 -0.239288 -2.5804)
(9.44454e-26 15.7 31.4271)
(-4.87572e-25 18.816 28.7241)
(-5.18553e-25 14.6011 28.4016)
(-9.11691e-24 15.9711 25.6606)
(-3.73574e-23 13.6063 24.7966)
(-8.08419e-23 13.6241 22.8593)
(-1.20194e-22 12.4264 21.6193)
(-9.75006e-23 11.9178 20.1202)
(7.89437e-23 11.1791 18.8188)
(4.67049e-22 10.6019 17.491)
(8.73657e-22 10.0063 16.1902)
(4.70984e-22 9.40779 14.8137)
(-2.44263e-21 8.70021 13.2483)
(-9.7404e-21 7.74502 11.2766)
(-2.05826e-20 6.30096 8.63316)
(-2.76334e-20 4.31426 5.28377)
(-2.94385e-20 2.26241 2.41644)
(-2.66906e-20 0.420732 -0.418657)
(3.70911e-21 -2.24038 -3.04285)
(-8.90706e-21 -2.63492 -7.13684)
(-4.51556e-26 14.5235 31.0079)
(7.96833e-25 18.1845 27.9762)
(1.63022e-24 13.6288 27.9281)
(-2.60975e-24 14.5235 25.5986)
(-1.99469e-23 12.4651 24.6779)
(-5.0113e-23 12.016 23.1158)
(-6.46929e-23 10.9233 21.937)
(7.63336e-24 10.2219 20.6605)
(2.74665e-22 9.44469 19.5024)
(7.30442e-22 8.78945 18.3583)
(8.34909e-22 8.14019 17.2278)
(-1.09667e-21 7.4687 15.9735)
(-8.00417e-21 6.61372 14.3583)
(-2.15599e-20 5.31618 11.914)
(-3.35177e-20 3.16633 7.956)
(-1.9877e-20 0.157815 2.38589)
(1.97926e-20 -2.26532 -2.42165)
(2.5285e-20 -3.02762 -4.04749)
(9.6039e-21 -4.21598 -5.65617)
(-1.039e-20 -3.12568 -6.10855)
(-8.3089e-26 11.3344 28.5288)
(5.34154e-27 16.9198 25.0518)
(1.60732e-24 11.9806 25.4645)
(4.0996e-24 12.5754 23.7854)
(3.19132e-24 10.8172 23.0684)
(-5.09873e-24 10.1142 22.0089)
(-1.10039e-23 9.08302 21.125)
(3.02933e-23 8.26657 20.2099)
(1.99078e-22 7.45372 19.3413)
(5.12497e-22 6.71983 18.486)
(6.60469e-22 6.02092 17.6321)
(-2.53703e-22 5.33289 16.7091)
(-3.36807e-21 4.59147 15.5881)
(-8.54878e-21 3.73114 14.0933)
(-1.25497e-20 2.7382 12.07)
(-9.71101e-21 1.72123 9.4801)
(2.08094e-21 0.846518 6.53186)
(1.35095e-20 0.118743 3.55067)
(1.12716e-20 -0.712052 0.500851)
(-1.2788e-21 -0.998528 -1.39104)
(-3.46235e-26 2.64245 17.0228)
(6.95418e-26 8.06342 13.6539)
(8.51477e-25 5.17561 14.5284)
(2.86951e-24 5.00138 14.1297)
(5.31094e-24 4.07274 14.0933)
(4.93999e-24 3.50778 13.9201)
(-2.78212e-24 2.92822 13.7649)
(-1.5432e-23 2.45382 13.5788)
(-2.53151e-24 2.04101 13.3785)
(1.25861e-22 1.70411 13.1643)
(5.31407e-22 1.44296 12.948)
(1.37615e-21 1.26674 12.7425)
(2.61814e-21 1.18235 12.5563)
(3.77719e-21 1.20215 12.3707)
(4.01394e-21 1.33574 12.1293)
(2.80317e-21 1.53695 11.7797)
(7.45005e-22 1.82392 11.2389)
(-6.6647e-22 2.48642 10.2271)
(-6.32013e-22 2.71017 8.75398)
(-2.90133e-23 -0.168331 6.65011)
(-3.45068e-26 -2.67352 17.0795)
(-1.72422e-25 -8.06951 13.7254)
(2.94341e-26 -5.17542 14.6064)
(8.69405e-25 -4.98461 14.219)
(7.66336e-25 -4.04341 14.1937)
(-4.05658e-24 -3.46385 14.032)
(-1.60838e-23 -2.86959 13.8887)
(-3.22251e-23 -2.37933 13.7133)
(-4.08015e-23 -1.94895 13.5208)
(-1.5855e-23 -1.59154 13.3075)
(8.67135e-23 -1.30631 13.0833)
(2.99684e-22 -1.10462 12.867)
(5.67e-22 -0.999761 12.6841)
(7.10866e-22 -1.01313 12.5362)
(5.87366e-22 -1.15963 12.3711)
(3.25095e-22 -1.38922 12.1132)
(2.27245e-22 -1.72715 11.6306)
(3.1756e-22 -2.48053 10.6004)
(3.10439e-22 -2.78141 9.0579)
(1.33852e-22 0.0759935 6.84656)
(5.30201e-26 -11.4228 28.7319)
(1.58718e-25 -17.0422 25.2549)
(-1.08554e-24 -12.0922 25.661)
(-8.1489e-24 -12.6942 23.9803)
(-2.61717e-23 -10.9452 23.2596)
(-5.20869e-23 -10.2524 22.1995)
(-7.0769e-23 -9.23643 21.31)
(-6.61081e-23 -8.43279 20.3857)
(-2.48522e-23 -7.63318 19.4985)
(6.22825e-23 -6.91341 18.6213)
(1.53323e-22 -6.24055 17.7576)
(8.65047e-23 -5.59925 16.8623)
(-2.90318e-22 -4.9152 15.8049)
(-7.75746e-22 -4.07179 14.3393)
(-9.59781e-22 -2.95025 12.1776)
(-1.28054e-21 -1.53147 9.15081)
(-3.12062e-21 0.00967151 5.32918)
(-6.06664e-21 1.47459 1.20256)
(-7.43071e-21 2.59169 -2.10854)
(-7.65528e-21 2.03421 -3.32441)
(1.50076e-25 -14.536 31.1057)
(7.66696e-25 -18.2991 27.9458)
(-7.71595e-25 -13.656 27.9441)
(-1.70996e-23 -14.6659 25.5461)
(-6.19516e-23 -12.5664 24.6199)
(-1.23354e-22 -12.1837 23.0038)
(-1.49863e-22 -11.0934 21.8048)
(-9.02828e-23 -10.4376 20.4847)
(5.32437e-23 -9.68088 19.285)
(2.00658e-22 -9.05949 18.0808)
(1.62279e-22 -8.45862 16.9196)
(-3.97012e-22 -7.89993 15.7291)
(-1.78521e-21 -7.25946 14.3563)
(-3.77361e-21 -6.33888 12.4516)
(-5.3943e-21 -4.84511 9.55444)