/*--------------------------------*- C++ -*----------------------------------*\
| =========                 |                                                 |
| \\      /  F ield         | OpenFOAM: The Open Source CFD Toolbox           |
|  \\    /   O peration     | Version:  4.1                                   |
|   \\  /    A nd           | Web:      www.OpenFOAM.org                      |
|    \\/     M anipulation  |                                                 |
\*---------------------------------------------------------------------------*/
FoamFile
{
    version     2.0;
    format      ascii;
    class       volScalarField;
    location    "21";
    object      p;
}
// * * * * * * * * * * * * * * * * * * * * * * * * * * * * * * * * * * * * * //

dimensions      [0 2 -2 0 0 0 0];

internalField   nonuniform List<scalar> 
1280
(
-72.7194
11.7536
-32.762
-111.984
30.8411
-56.2048
-133.833
-113.29
-34.7923
-92.7695
-240.886
-86.3038
-197.336
-434.813
-220.779
-496.853
-844.54
-892.444
-872.374
-2679.63
-1070.99
591.834
1481.55
2031.63
2019.35
2637.15
-2413.93
-7.51692
16.4075
-146.334
-262.842
-396.733
-548.448
-733.709
-906.874
-1076.49
-1080.78
-1034.07
-732.59
-1000.93
-5228.63
-2587.34
-1337.29
-787.785
1725.75
1107.98
1377.45
1747.15
2154.77
2263.29
2371.89
2237.86
2456.61
2466.3
2398.72
2883.29
1209.53
1043
334.126
-2982.56
2561.07
2813.85
2436.27
2127.96
1753.09
1566.36
1427.55
1381.94
1350.31
1339.38
1325.7
1238.35
1185.08
-528.183
2942.66
2108.25
1914.75
1350.72
1012.68
-274.325
-2054.28
-300.978
-472.165
-246.264
-90.8094
98.1168
81.0155
178.706
233.776
235.181
264.8
280.872
285.842
283.366
285.862
273.283
207.506
178.727
85.5756
70.9702
-44.1587
-285.077
-321.511
-234.385
-194.055
-75.3072
69.0534
216.305
389.639
66.0044
50.0839
-57.2143
-270.132
-470.643
-400.162
-78.3001
41.6907
53.0323
89.9856
-66.588
-255.602
-349.099
-220.479
-158.737
49.9595
294.888
547.543
909.713
369.44
255.054
-59.9398
-694.195
-1068.67
-839.853
-225.459
50.9235
137.964
220.812
-156.473
-165.587
-437.446
-245.997
-172.998
76.4967
369.844
673.517
1146.35
577.135
365.983
-87.7025
-1033.45
-1273.93
-1100.21
-259.057
117.314
196.936
316.75
-194.638
-169.643
-638.298
-328.867
-219.93
83.7791
442.876
818.202
1299.37
769.404
454.464
-55.5063
-1125.13
-1329.95
-1252.39
-290.408
212.82
284.697
433.918
-227.561
-305.279
-857.169
-429.044
-262.285
91.2478
509.639
959.542
1368.04
940.285
646.609
-10.1455
-1074.29
-1385.93
-1350.21
-322.873
270.535
317.988
490.565
-257.451
-546.443
-1053.18
-556.377
-310.865
83.2008
552.874
1081.66
1390.68
972.497
1047.59
271.499
-888.847
-1428.15
-1344.21
-270.432
442.532
506.312
634.226
-295.239
-799.92
-1184.59
-693.422
-363.991
61.3058
573.341
1161.54
1378.39
927.516
917.886
515.756
-753.685
-1394.46
-1317.9
-312.124
433.497
482.26
599.817
-337.997
-979.823
-1226.26
-811.989
-415.404
29.3649
582.386
1250.27
1377.41
1077.68
679.913
280.416
-642.657
-1257.33
-1164.96
-106.455
712.011
921.109
1348.59
-377.614
-1033.99
-1178.47
-890.208
-461.192
-12.7994
552.412
1154.05
1189.03
1001.65
685.21
263.492
-517.285
-1019.11
-981.3
-154.858
672.415
1593.52
5811.93
-405.329
-960.357
-1065.95
-915.45
-496.707
-59.1099
498.16
1019.66
1000.74
807.238
503.313
156.472
-430.575
-787.107
-725.094
-128.548
532.849
1187.52
4446.4
-414.882
-792.375
-922.469
-887.649
-517.591
-100.524
433.594
865.221
762.402
604.609
368.815
75.9927
-385.36
-642.94
-606.381
-149.637
556.26
1282.98
4822.48
-402.336
-569.29
-770.426
-815.194
-521.193
-129.427
374.536
709.844
501.819
387.671
238.018
26.5082
-385.998
-554.953
-459.358
-190.398
179.939
625.521
4806.61
-365.395
-321.685
-601.478
-703.302
-502.255
-131.791
346.516
577.638
309.266
258.114
207.275
32.819
-389.642
-546.661
-450.484
-323.381
21.2545
686.892
1638.14
-307.207
-86.9913
-405.532
-540.414
-421.929
-71.2776
378.671
492.41
264.829
210.764
238.827
14.3241
-343.927
-497.081
-461.314
-347.661
20.9683
331.762
231.54
-230.582
84.0282
-230.786
-355.578
-280.509
60.6727
447.727
423.228
267.325
211.55
205.791
-19.8317
-336.309
-465.362
-427.851
-323.569
-23.1582
172.362
258.816
-164.3
178.257
-91.3573
-194.091
-137.947
174.183
443.768
394.229
242.146
210.14
155.321
-39.9236
-302.542
-391.713
-340.043
-247.781
2.84966
65.2818
225.816
-92.1553
222.218
-4.61545
-130.991
-83.3116
169.201
389.137
356.434
222.189
177.771
128.03
-29.8981
-238.921
-290.063
-219.276
-162
-9.77486
46.7235
188.402
-42.5842
207.13
37.5436
-127.181
-62.738
158.766
326.922
277.919
184.525
135.095
87.5408
-11.0639
-142.514
-178.155
-127.882
-94.1787
-7.82548
29.2067
139.679
-3.16711
153.357
3.24903
-164.088
12.0609
84.9817
249.93
219.165
148.709
99.7494
68.1546
2.4174
-48.9761
-82.8075
-75.39
-63.2167
-7.7529
25.0433
99.4573
4.48082
60.6414
31.1703
-74.0765
2.4801
-40.3413
77.2588
69.6562
46.1102
33.9267
28.1382
-5.77144
-11.4439
-26.8647
-34.9067
-31.5518
3.71056
16.703
55.3597
11227.8
11286.9
11188.9
11131.9
10953.8
10797.3
10598.5
10399.9
10182.9
9991.33
9814.41
9654.94
9516.56
9395.62
9295.57
9206.49
9137.67
9068.19
9029.54
8913.37
6232.17
6500.81
6572.67
6747.56
6841.03
6961.52
7056.87
7149.69
7235.99
7315.79
7391.7
7464.22
7534.52
7605.69
7677.5
7758.12
7838.26
7939.27
8008.49
8103.88
5654.33
5863.51
5923.53
6069.87
6164.2
6271.42
6368.78
6462.63
6552.49
6638.81
6722.31
6804.56
6884.92
6966.8
7046.29
7132.74
7212.14
7311.68
7378.08
7487.6
2814.29
3089.59
3180.21
3341.66
3486.35
3631.12
3783.84
3932.65
4086.47
4241.7
4400.93
4565.84
4735.43
4913.72
5093.93
5286.07
5467.59
5663.59
5801.33
6020.4
511.09
578.785
610.555
600.968
632.216
624.155
634.67
626.538
628.892
633.72
651.223
684.013
736.038
817.523
928.096
1099.11
1311.9
1632.43
1866.12
2212.6
121.082
-231.307
-281.329
-504.813
-649.66
-860.01
-1039.47
-1227.06
-1378.68
-1511.3
-1614.4
-1694.97
-1752.45
-1790.19
-1815.12
-1824.42
-1813.5
-1758.32
-1708.73
-1427.5
4419.69
3867.3
3670.99
3287.89
2978.72
2585.28
2204.98
1804.49
1436.52
1091.2
796.144
552.685
381.043
289.873
289.436
354.683
446.051
569.726
549.235
388.088
9713.6
9501.55
9436.84
9319.55
9248.09
9139.26
9046.88
8923.7
8802.1
8645.7
8463.93
8230.35
7942.36
7602.47
7253.65
6945.52
6724.66
6672.8
6717.18
6347.83
9360.72
9411.62
9421.67
9425.55
9452.85
9457.88
9480.77
9447.76
9416.24
9344.12
9264.93
9167.98
9069.65
8975.67
8903.44
8859.59
8840.09
8789.11
8785.08
8674.31
8682.05
8828.48
8895.02
8961.04
9072.2
9134.55
9254.95
9320.71
9409.63
9456.19
9486.76
9475.59
9430.68
9361.02
9307.2
9306.79
9371.18
9458.46
9525.04
9553.52
6963.29
7127.24
7209.61
7256.86
7401.2
7432.88
7561.72
7620.66
7721.81
7802.12
7891.78
7978.82
8064.93
8150.44
8233.31
8323.2
8411.79
8521.88
8600.72
8713.54
5428.64
5581.51
5720.82
5751.45
5951.75
5979.5
6149.57
6219.26
6349.22
6445.69
6555.35
6658.65
6761.25
6864.38
6963.73
7068.98
7164.22
7278.2
7354.86
7472.98
3344.5
3413.78
3609.78
3587.87
3832.15
3834.51
4044.81
4117.99
4290.65
4417.54
4576.34
4729.61
4889.34
5053.48
5214.43
5383.43
5537.05
5721.05
5857.83
6094.74
1607.23
1429.72
1536.94
1331
1431.32
1239.29
1284.54
1149.71
1143.09
1062.5
1036.84
1006.22
1018.2
1078.43
1188.78
1351.84
1528.1
1745.37
1897.27
2216.8
3340
2996.71
3017.02
2679.86
2655.47
2335.26
2227.6
1936.02
1742.39
1453.56
1190.03
889.739
610.35
356.366
151.287
-0.723975
-93.6453
-122.253
-172.084
-36.9436
6310.44
6010.58
6113.61
5795.42
5909.53
5675.15
5713.47
5578.02
5558.65
5476.9
5433.24
5369.17
5310.84
5235.79
5144.44
5023.65
4858.67
4672.01
4463.98
4169.52
7974.64
7749.36
7943.98
7539.71
7694.47
7426.97
7452.77
7323.43
7304.16
7252.43
7242.15
7236.54
7250.7
7274.06
7306.1
7340.41
7364.84
7346.77
7329.35
7256.95
7023.9
6676.33
7283.06
6770.78
7019.15
6750.65
6731.3
6561.17
6451.57
6309.78
6186.63
6066.96
5963.99
5876.7
5807.94
5752.42
5710.57
5721.01
5795.79
6005.59
5847.67
4199.97
4956.97
4021.1
3958.95
3445.64
3153.64
2789.08
2499.04
2231.5
2018.91
1857.24
1758.24
1726.46
1770.61
1899.26
2101.67
2375.34
2716.8
3044.43
58607.2
52105.3
48651.3
44326.8
40720.9
37159.7
33886.8
30781.7
27868.1
25115.3
22513.3
20045.7
17697.6
15452.4
13313.1
11249.4
9186.92
7447.99
5780.49
2931.68
57616.7
51114
47659.6
43334.7
39728.4
36166.8
32893.6
29788.1
26874.4
24121.4
21519.4
19052.1
16704.5
14460
12321.6
10258.6
8196.81
6460.99
4797.1
1949.43
4836.37
3187.39
3943.69
3006.77
2943.33
2428.86
2135.57
1769.95
1478.96
1210.77
997.778
835.931
736.824
704.896
748.541
876.096
1077
1349.44
1687.25
2013.91
6003.2
5657.01
6263.43
5752.22
6000.6
5733.05
5714.11
5545.01
5436.3
5295.78
5173.94
5055.72
4954.02
4867.78
4798.73
4741.88
4699.23
4715.89
4797.47
5013.41
6985.03
6769.84
6967.77
6570.13
6729.54
6467.36
6497.79
6373.21
6358.29
6310.75
6304.2
6301.81
6318.61
6344.35
6378.55
6415.29
6444.04
6427.36
6408.08
6346.03
5529.04
5239.81
5348.11
5036.66
5158.05
4928.97
4973.54
4842.71
4827.66
4749.29
4707.82
4644.67
4585.31
4507.72
4412.95
4288.45
4121.31
3939.02
3741.29
3443.26
2622.19
2282.33
2305.57
1972.85
1946.8
1626.61
1516.26
1222.2
1025.89
734.247
469.093
168.008
-108.908
-357.41
-554.333
-697.538
-782.333
-809.18
-857.072
-737.489
1014.27
875.505
968.113
692.721
775.205
531.197
549.687
378.856
346.593
241.78
193.709
144.126
142.503
192.748
295.364
450.332
618.643
829.124
978.65
1294.39
3025.82
3083.33
3333.7
3196.9
3360.96
3317.48
3423.83
3450.36
3554.08
3644.43
3772.8
3902.09
4044.43
4196.55
4348.84
4511.46
4661.75
4842.14
4979.12
5205.79
4810.52
5026.9
5122.52
5142.19
5190.84
5209.76
5249.75
5284.33
5339.4
5413.94
5515.38
5619.28
5720.95
5822.74
5919.65
6018.72
6105.88
6202.6
6265.74
6352.09
5898.35
6065.52
6086.11
6130.89
6149.63
6181.36
6219.75
6268.51
6329.05
6402.27
6480.51
6563.6
6644.28
6720.42
6787.31
6853.13
6912.72
6984.15
7032.22
7103.62
6987.44
7102.97
7113.51
7164.79
7206.39
7262.63
7319.87
7387.78
7429.51
7495.07
7580.07
7638.34
7641.61
7597.81
7541.21
7515.71
7537.27
7589.6
7623.14
7649.19
7934.23
7905.55
7852.72
7832.97
7818.79
7811.24
7811.13
7798.35
7704.96
7633.85
7601.85
7528.82
7451.86
7372.74
7313.77
7287.03
7292.1
7299.5
7322
7267.69
7031.81
6818.81
6764.9
6700.36
6674.14
6644.05
6614.18
6552.78
6603.86
6752.96
6761.71
6702.71
6655.96
6555.36
6444.62
6335.12
6274.1
6292.86
6295.95
6029.1
4350.02
4047.62
3975.23
3814.32
3671.73
3479.92
3252.72
2972.33
2688.19
2353.08
1957.49
1569.8
1196.28
904.292
734.293
680.765
730.459
800.881
805.898
903.159
1848.72
1799.04
1797.75
1728.15
1645.41
1519.48
1369.74
1202.89
1042.42
900.729
805.853
834.236
942.635
1140.38
1399.74
1703.54
2003.6
2353.4
2579.6
2988.07
5154.64
5421.03
5551.37
5714.89
5865.29
6023.83
6198.37
6390.25
6591.22
6798.18
7010.51
7231.72
7451.98
7675.89
7888.4
8106.72
8294.17
8532.93
8694.09
9027.39
7639.29
7904.75
7989.74
8148.69
8276.56
8416.44
8560.16
8707.04
8852.91
8996.23
9138.43
9280.94
9423.06
9568.25
9710.59
9860.8
9997.84
10151.6
10256.1
10372.5
9914.31
10061.6
10084.1
10170.3
10216.7
10276.8
10333.4
10391.5
10447.9
10506.9
10569
10634.2
10701.9
10771.9
10844.7
10923.9
11003.4
11086.1
11143.8
11195.2
9847.78
10002.9
10051.9
10157.4
10225.7
10308.5
10382.3
10456.2
10523.9
10578.4
10616.5
10634.8
10641.4
10639.7
10648.5
10667.7
10718.8
10770.7
10830.1
10844.7
13326.4
13266.3
13160.6
13027.3
12861.2
12683.5
12503
12306
12087.9
11896.8
11719.5
11562.7
11429.2
11314.8
11233
11160.8
11141.6
11087.2
11085.6
10950
)
;

boundaryField
{
    outletWall
    {
        type            fixedValue;
        value           uniform 0;
    }
    fineWalls
    {
        type            zeroGradient;
    }
    fineFrontAndBack
    {
        type            zeroGradient;
    }
    fineplugLeft
    {
        type            cyclicAMI;
        value           nonuniform List<scalar> 
20
(
6930.51
7077.12
7047.74
7093.98
7149.9
7255.08
7369.75
7503.56
7644.61
7798.96
7963.8
8149.57
8318.39
9118.87
9165.29
9166.89
9311.85
9247.43
9147.88
8768.03
)
;
    }
    fineplugRight
    {
        type            cyclicAMI;
        value           nonuniform List<scalar> 
20
(
9272.2
9431.25
9356.99
9338.86
9279.24
9299.69
9337.39
9419.72
9520.19
9643.44
9782.58
9917.98
10081.8
11021.2
10735.3
10710.6
10804.8
10798.6
10815.6
10606.3
)
;
    }
    inletOutletLeft
    {
        type            cyclicAMI;
        value           nonuniform List<scalar> 
20
(
6930.51
7077.12
7047.74
7093.98
7149.9
7255.08
7369.75
7503.56
7644.61
7798.96
7963.8
8149.57
8318.39
9118.87
9165.29
9166.89
9311.85
9247.43
9147.88
8768.03
)
;
    }
    inletLeft
    {
        type            zeroGradient;
    }
    inletWallsLeft
    {
        type            zeroGradient;
    }
    inletFacesLeft
    {
        type            zeroGradient;
    }
    inletOutletRight
    {
        type            cyclicAMI;
        value           nonuniform List<scalar> 
20
(
9272.2
9431.25
9356.99
9338.86
9279.24
9299.69
9337.39
9419.72
9520.19
9643.44
9782.58
9917.98
10081.8
11021.2
10735.3
10710.6
10804.8
10798.6
10815.6
10606.3
)
;
    }
    inletRight
    {
        type            zeroGradient;
    }
    inletWallsRight
    {
        type            zeroGradient;
    }
    inletFacesRight
    {
        type            zeroGradient;
    }
}


// ************************************************************************* //
