/*--------------------------------*- C++ -*----------------------------------*\
| =========                 |                                                 |
| \\      /  F ield         | OpenFOAM: The Open Source CFD Toolbox           |
|  \\    /   O peration     | Version:  4.1                                   |
|   \\  /    A nd           | Web:      www.OpenFOAM.org                      |
|    \\/     M anipulation  |                                                 |
\*---------------------------------------------------------------------------*/
FoamFile
{
    version     2.0;
    format      ascii;
    class       volVectorField;
    location    "21";
    object      U;
}
// * * * * * * * * * * * * * * * * * * * * * * * * * * * * * * * * * * * * * //

dimensions      [0 1 -1 0 0 0 0];

internalField   nonuniform List<vector> 
1280
(
(-1.22993e-17 14.6504 0.25293)
(1.32151e-17 17.5616 -1.8164)
(2.61551e-17 16.1637 -1.69219)
(2.06844e-17 16.7056 -1.55954)
(3.23979e-17 20.0915 -4.46606)
(-7.12297e-18 17.6213 -3.87966)
(1.4268e-16 19.769 -3.98203)
(-3.13574e-16 19.0162 -3.62295)
(2.88691e-17 23.2768 -7.40769)
(9.65976e-17 21.2633 -6.11065)
(6.9447e-16 22.8345 -5.47924)
(-3.74322e-16 26.8082 -10.6589)
(-6.81431e-16 24.946 -9.00374)
(-1.11673e-15 27.0671 -8.25151)
(-6.59698e-15 32.6693 -15.9774)
(-7.93793e-15 30.4237 -13.067)
(-9.07251e-15 34.4265 -12.3113)
(-1.08889e-14 35.3094 -23.7009)
(-9.06378e-15 42.5083 -18.2654)
(-9.31732e-15 36.1411 -30.7997)
(-1.27073e-14 42.1033 38.7284)
(-1.67667e-14 41.8654 66.2284)
(-1.39164e-14 43.6058 80.9131)
(-1.18845e-14 45.6468 88.9563)
(-1.12825e-14 46.7789 93.8087)
(-1.32202e-14 49.5178 97.7687)
(4.92927e-16 48.689 76.6377)
(-1.51186e-14 80.9048 120.926)
(-1.28659e-14 81.3004 120.862)
(-9.87147e-15 81.8249 120.204)
(-6.68726e-15 81.9277 119.211)
(-2.71451e-15 81.7526 117.419)
(2.76683e-15 81.4907 114.603)
(9.64791e-15 80.9569 111.431)
(1.46388e-14 80.6493 109.307)
(1.21115e-14 79.9052 110.465)
(2.26833e-15 79.819 115.939)
(-7.68203e-15 78.5051 124.092)
(-1.01763e-14 79.3271 132.773)
(-1.84773e-14 77.3994 127.702)
(-5.37795e-15 104.416 128.92)
(-4.46098e-15 64.6161 82.4069)
(-1.10043e-14 55.004 77.1398)
(-1.81718e-14 45.7355 71.1568)
(-1.725e-14 39.0532 75.892)
(-6.59885e-15 26.4709 51.4602)
(-1.23521e-15 21.4715 49.5946)
(4.82374e-15 15.4362 42.5745)
(2.59049e-14 9.04958 32.3101)
(4.39938e-15 3.36032 14.7327)
(2.73665e-15 1.9754 10.1327)
(1.84316e-14 -3.54138 9.67325)
(9.16495e-15 -7.09266 18.8494)
(7.28542e-15 -9.43738 28.7917)
(8.77073e-15 -13.816 39.3933)
(2.22236e-14 -25.6292 76.1426)
(2.17318e-14 -36.5433 79.1755)
(1.80663e-14 -46.0945 79.8325)
(1.23664e-14 -54.511 78.5841)
(1.46713e-14 -99.2216 117.736)
(2.97007e-14 -71.9286 120.964)
(1.7515e-14 -72.8818 129.898)
(1.5383e-14 -70.4433 127.7)
(9.80787e-15 -70.8683 123.2)
(3.16414e-15 -69.8255 118.739)
(-1.62228e-15 -70.1323 115.269)
(-3.59413e-15 -70.0106 113.8)
(-3.44705e-15 -70.419 114.08)
(-2.87805e-15 -70.7304 115.566)
(-2.90173e-16 -71.1044 117.32)
(3.16023e-15 -71.2158 118.473)
(6.98637e-15 -71.2253 118.31)
(1.0399e-14 -70.1262 116.367)
(1.72984e-15 -39.9661 72.7016)
(1.11983e-14 -40.714 91.9519)
(1.1709e-14 -38.3672 88.0653)
(1.28442e-14 -37.9196 83.5252)
(1.56607e-14 -36.7106 75.6484)
(2.19042e-14 -35.2405 61.9455)
(1.90004e-14 -35.8457 40.4185)
(1.72634e-14 -27.1624 -33.9585)
(1.71856e-14 -36.0683 -24.8902)
(2.46187e-14 -23.2231 -31.6109)
(1.88557e-14 -25.222 -16.7871)
(2.09415e-14 -19.9889 -18.3406)
(3.00856e-14 -20.8634 -22.2044)
(2.42945e-14 -15.6564 -12.7866)
(2.66709e-14 -13.15 -13.9934)
(3.88666e-14 -12.2183 -17.9405)
(3.45148e-14 -8.69154 -10.665)
(3.89164e-14 -6.69669 -12.1576)
(5.31817e-14 -4.92166 -17.1801)
(3.90137e-14 -2.21325 -11.7711)
(2.67845e-14 -0.658153 -12.3423)
(2.20691e-14 1.48971 -12.6159)
(2.68353e-14 3.84289 -18.3682)
(1.89508e-14 5.96421 -13.3854)
(1.93723e-14 9.08406 -11.9917)
(2.26875e-14 8.09059 -17.1446)
(2.39567e-14 14.4218 -18.6982)
(-8.64548e-15 10.6448 45.6495)
(1.35883e-15 -15.4007 29.9215)
(7.45955e-15 -33.0071 25.0773)
(1.03008e-14 -39.9275 21.49)
(1.27671e-14 -45.8504 17.9902)
(1.48258e-14 -47.7218 14.9113)
(1.6409e-14 -45.6596 12.0947)
(1.75472e-14 -37.9174 9.47825)
(1.81663e-14 -18.494 5.45715)
(1.82431e-14 24.1014 -5.9487)
(1.78398e-14 30.5165 -7.99596)
(1.69157e-14 32.315 -11.0334)
(1.54904e-14 18.6023 -16.8663)
(1.73304e-14 -13.8417 -25.5624)
(1.78445e-14 -29.2582 -29.9919)
(1.77198e-14 -30.1215 -27.6861)
(1.9058e-14 -23.2775 -24.5937)
(2.15005e-14 -16.1603 -22.1776)
(2.27426e-14 -4.46566 -22.2735)
(-2.00405e-14 16.699 50.0799)
(1.84785e-16 -10.6675 27.1054)
(8.99254e-15 -31.5577 22.6225)
(1.06159e-14 -38.3476 21.7247)
(1.29087e-14 -44.2827 18.5246)
(1.49432e-14 -46.11 15.7932)
(1.64837e-14 -43.9079 13.2578)
(1.75903e-14 -35.5021 10.9669)
(1.81762e-14 -11.6348 4.58549)
(1.80547e-14 27.0884 -7.45842)
(1.66581e-14 31.8186 1.11706)
(1.36432e-14 35.1755 -3.80379)
(9.21934e-15 23.7982 -6.26845)
(1.25705e-14 -9.18113 -19.8905)
(1.68395e-14 -29.2745 -27.5533)
(1.78337e-14 -32.0163 -25.9633)
(1.88883e-14 -25.0412 -23.065)
(2.10718e-14 -17.1121 -20.862)
(2.20494e-14 -6.16749 -19.3749)
(-2.50151e-14 20.6571 48.3781)
(-5.80554e-15 -4.53639 27.502)
(1.00371e-14 -30.2572 19.1695)
(1.14924e-14 -37.7294 21.2241)
(1.31251e-14 -43.1302 19.4048)
(1.50723e-14 -45.1297 17.1215)
(1.65913e-14 -43.1642 14.9691)
(1.76551e-14 -34.4252 13.1528)
(1.81921e-14 -8.03688 4.9315)
(1.76427e-14 25.4747 -1.71359)
(1.49011e-14 29.9078 10.8948)
(9.12336e-15 35.9433 5.99543)
(3.70267e-15 25.7492 8.27365)
(5.80368e-15 -7.56496 -6.12373)
(1.46256e-14 -26.7124 -20.9465)
(1.78682e-14 -32.069 -22.6581)
(1.88806e-14 -25.5759 -20.9979)
(2.09472e-14 -17.5172 -19.0523)
(1.74245e-14 -5.2609 -16.7845)
(-2.59201e-14 24.2622 47.1808)
(-1.01076e-14 1.92566 30.6496)
(8.32711e-15 -29.1801 17.6368)
(1.23312e-14 -38.1211 20.1121)
(1.36718e-14 -42.7192 20.1673)
(1.51981e-14 -44.3997 19.0234)
(1.67117e-14 -42.501 17.3294)
(1.77452e-14 -32.9666 15.8566)
(1.81935e-14 -4.3711 6.72817)
(1.69897e-14 23.0926 7.33523)
(1.28233e-14 29.0159 18.0691)
(4.57894e-15 36.4983 18.2478)
(1.15832e-15 27.7943 23.2023)
(6.34882e-15 -0.230138 11.6583)
(1.2849e-14 -22.3258 -9.49061)
(1.72399e-14 -31.3848 -15.407)
(1.87697e-14 -26.4887 -17.5861)
(2.09241e-14 -19.4768 -17.162)
(1.64944e-14 -7.33781 -16.8428)
(-2.35733e-14 26.6455 47.6454)
(-9.32178e-15 8.48898 36.3869)
(6.00206e-15 -26.9361 19.501)
(1.19379e-14 -38.4216 19.7955)
(1.44628e-14 -42.9033 20.5687)
(1.54604e-14 -44.0157 21.1903)
(1.6824e-14 -41.8828 20.3952)
(1.78658e-14 -31.2351 18.9315)
(1.80789e-14 -2.21703 10.7998)
(1.58795e-14 19.3706 15.8265)
(1.10435e-14 25.3351 23.6882)
(8.753e-16 34.8645 31.5691)
(-2.19765e-16 28.2271 39.7924)
(6.68131e-15 7.12615 31.8819)
(1.27753e-14 -16.1404 9.36693)
(1.64984e-14 -28.0894 -3.99516)
(1.85062e-14 -24.1559 -12.0994)
(2.08307e-14 -17.5156 -15.5444)
(1.74384e-14 -2.87008 -18.6009)
(-2.0728e-14 28.1631 49.871)
(-6.05964e-15 14.2792 43.6944)
(6.25204e-15 -23.4704 25.2775)
(1.07494e-14 -37.966 21.7371)
(1.48712e-14 -43.4112 21.4353)
(1.59904e-14 -44.2754 23.1783)
(1.69906e-14 -41.5903 23.9643)
(1.79594e-14 -29.9103 22.6426)
(1.73447e-14 -1.63663 16.4201)
(1.31957e-14 17.52 23.2584)
(8.86976e-15 22.1663 27.8711)
(-1.91713e-15 29.6752 46.3051)
(-1.30637e-15 27.0242 57.3426)
(6.25719e-15 12.4979 55.6288)
(1.42061e-14 -9.21767 35.6954)
(1.68911e-14 -22.7991 13.428)
(1.81518e-14 -22.7361 -3.85526)
(2.06793e-14 -19.6018 -10.0958)
(1.82495e-14 -5.58036 -31.3061)
(-1.82796e-14 28.8171 52.9738)
(-2.30545e-15 18.9562 51.6328)
(9.36594e-15 -19.0609 34.3529)
(1.06004e-14 -36.2913 26.7803)
(1.45599e-14 -43.6091 24.1036)
(1.64707e-14 -45.0008 25.2839)
(1.7247e-14 -41.7397 27.5746)
(1.80893e-14 -28.541 26.7485)
(1.52463e-14 -0.930893 22.6046)
(6.57473e-15 14.1741 35.6118)
(4.01655e-15 17.3238 40.637)
(-4.12072e-15 23.0739 66.3111)
(-1.81012e-15 24.6033 75.4403)
(5.16206e-15 15.8686 80.6146)
(1.52464e-14 0.482975 68.6301)
(1.98825e-14 -10.9943 42.6348)
(2.02375e-14 -11.9209 12.9419)
(1.98893e-14 -3.80767 -8.63792)
(9.04713e-15 13.5521 -20.3823)
(-1.61644e-14 28.6241 56.5112)
(1.29911e-15 22.0582 59.6555)
(1.40615e-14 -14.3133 45.4)
(1.28602e-14 -33.37 35.0264)
(1.47782e-14 -42.9061 29.4707)
(1.71137e-14 -45.6577 28.5487)
(1.78914e-14 -42.3705 31.0571)
(1.75232e-14 -28.5597 32.4738)
(8.73942e-15 -5.05617 40.8972)
(-3.13272e-15 7.51388 65.1137)
(-3.27719e-15 10.2948 74.2945)
(-1.70272e-15 17.8467 81.0586)
(-1.11962e-15 20.9641 93.2406)
(3.75345e-15 15.2867 103.805)
(1.49077e-14 5.26982 106.361)
(2.58035e-14 -1.77165 99.5243)
(3.33066e-14 -4.32755 90.0081)
(3.34937e-14 -12.6232 81.2612)
(2.46026e-14 -44.163 84.9065)
(-1.41005e-14 27.6058 60.3374)
(4.49636e-15 23.4721 67.5362)
(1.83633e-14 -9.80914 57.1531)
(1.56169e-14 -29.5777 45.7409)
(1.49012e-14 -41.0441 37.6425)
(1.69491e-14 -45.6277 33.8844)
(1.84108e-14 -43.4314 34.7678)
(1.70818e-14 -31.6619 38.2857)
(7.03486e-15 -12.7929 52.1733)
(-2.85848e-15 2.07522 74.713)
(-1.06636e-15 9.39395 83.3888)
(2.13605e-15 14.3721 92.2799)
(1.98618e-15 15.2521 105.854)
(2.34472e-15 10.5069 118.774)
(7.51333e-15 2.10991 127.17)
(1.35304e-14 -3.23037 129.269)
(1.94604e-14 -2.69768 129.483)
(2.35981e-14 -2.48785 123.562)
(2.54608e-14 -10.9142 100.693)
(-1.21478e-14 25.7774 64.2852)
(7.1409e-15 23.2654 75.1354)
(2.35008e-14 -5.95795 68.6483)
(2.11719e-14 -25.4104 57.6403)
(1.74466e-14 -38.1318 48.0178)
(1.72822e-14 -44.5336 41.712)
(1.58992e-14 -44.2683 39.9543)
(1.61955e-14 -35.5096 44.0358)
(3.55137e-15 -20.3302 59.3928)
(-5.85116e-15 -4.9583 79.069)
(4.49316e-16 4.39856 86.591)
(4.27674e-15 9.68073 95.5882)
(5.13048e-15 10.3154 108.697)
(4.13906e-15 6.77303 119.092)
(5.34153e-15 0.565598 124.015)
(1.98547e-15 -3.0066 123.306)
(6.9859e-15 -1.60915 117.44)
(1.36673e-14 -0.355648 102.089)
(2.11622e-14 -3.12971 61.5412)
(-1.04463e-14 23.1778 68.1053)
(8.28245e-15 21.6604 82.3526)
(2.44293e-14 -2.9281 79.4538)
(2.48034e-14 -21.3177 69.5459)
(2.11479e-14 -34.6016 59.4585)
(1.94655e-14 -42.4509 51.666)
(2.0411e-14 -44.4402 47.5973)
(1.40405e-14 -39.2415 51.0064)
(2.86089e-15 -26.7533 64.6061)
(9.03232e-16 -9.04658 76.5448)
(7.93814e-15 2.1712 79.1879)
(4.24152e-15 5.53927 89.4522)
(-5.7619e-16 5.76699 103.365)
(-4.04298e-15 4.51544 114.538)
(-5.96111e-15 0.779909 119.282)
(-6.86846e-15 -0.368588 118.543)
(-6.33166e-15 5.43314 114.491)
(-1.91109e-15 15.0545 103.778)
(1.02728e-14 20.8387 70.6463)
(-9.45375e-15 19.804 71.4466)
(8.80696e-15 18.758 89.0343)
(2.37643e-14 -0.770811 90.0421)
(2.43862e-14 -17.4761 81.88)
(2.173e-14 -30.8915 71.9034)
(1.9478e-14 -39.8357 63.8487)
(1.78307e-14 -44.0361 58.9925)
(1.15647e-14 -42.1245 61.1001)
(2.96345e-15 -30.6064 67.9711)
(3.42575e-15 -10.5407 65.3337)
(6.70698e-15 -0.441146 61.4853)
(3.56416e-15 0.204699 73.828)
(-1.06909e-15 0.273988 86.111)
(-7.56323e-15 0.349781 96.7467)
(-1.28787e-14 -1.57352 101.921)
(-1.57951e-14 -1.19633 99.142)
(-1.77447e-14 5.98775 92.6068)
(-1.83003e-14 17.9351 89.9786)
(-1.87003e-14 29.6606 86.027)
(-9.398e-15 15.6479 73.8414)
(7.38761e-15 14.3945 94.5013)
(2.20283e-14 -0.053597 100.313)
(2.35577e-14 -14.1255 96.2479)
(2.12936e-14 -27.2787 88.0098)
(1.87206e-14 -37.3164 81.1427)
(1.52202e-14 -43.3517 76.4363)
(8.68182e-15 -42.647 73.9753)
(1.28182e-15 -28.6148 65.0557)
(7.99216e-16 -6.56264 41.0046)
(3.83056e-15 -1.54344 36.1959)
(4.09736e-15 -4.4003 51.1835)
(2.79642e-16 -3.50919 59.3469)
(-5.53738e-15 -1.6049 62.447)
(-1.06795e-14 0.226216 59.1996)
(-1.22777e-14 3.77735 47.2202)
(-9.90932e-15 9.21913 27.7791)
(-6.13692e-15 11.615 21.4321)
(-3.7989e-15 38.7629 54.7139)
(-1.01325e-14 10.8429 74.6435)
(3.55658e-15 8.51654 97.2072)
(1.6819e-14 -1.65446 107.396)
(2.02841e-14 -12.6788 109.808)
(1.99381e-14 -24.8654 106.829)
(1.72308e-14 -35.2827 102.558)
(1.20332e-14 -41.1972 95.3689)
(3.95132e-15 -37.4526 79.9525)
(-4.81317e-15 -17.8529 46.471)
(-8.364e-15 0.948512 7.84208)
(-1.37385e-15 -4.97439 18.9024)
(2.1276e-15 -8.62893 28.127)
(1.35117e-15 -4.75505 34.7083)
(-2.45369e-15 0.0551707 34.0424)
(-5.44354e-15 4.59823 26.8785)
(-5.74057e-15 10.9635 14.499)
(-3.40488e-15 15.7269 0.866718)
(-1.28216e-15 8.77413 -0.765316)
(9.70691e-15 -14.7876 -16.5843)
(-1.17228e-14 5.68819 73.0118)
(-2.81248e-15 1.90105 95.1303)
(7.64257e-15 -5.2097 107.251)
(1.25289e-14 -13.9508 116.123)
(1.43316e-14 -24.4503 119.431)
(1.20453e-14 -32.8688 115.948)
(5.59667e-15 -34.3307 99.0748)
(-4.09347e-15 -22.8877 62.3852)
(-1.3636e-14 0.0436111 11.9267)
(-1.4396e-14 3.64322 -0.581996)
(-5.45793e-15 -8.29434 9.51895)
(-8.85054e-16 -10.7297 13.4143)
(8.89099e-16 -5.63935 16.3854)
(-1.67526e-15 1.79486 12.7228)
(-3.75813e-15 8.05655 5.35715)
(-4.37738e-15 14.084 -0.796805)
(-3.7849e-15 15.9451 -5.66342)
(-2.46477e-15 15.0013 -2.38992)
(3.98705e-15 -2.33104 -25.1207)
(-1.38629e-14 1.09671 68.0401)
(-1.06986e-14 -4.40223 87.2246)
(-2.57525e-15 -10.3152 99.8835)
(2.43375e-15 -17.5829 112.573)
(4.82292e-15 -24.8688 117.605)
(2.52397e-15 -27.2088 107.623)
(-4.66602e-15 -19.5383 73.5176)
(-1.37142e-14 -2.68888 23.533)
(-1.74717e-14 7.61716 -1.64211)
(-1.47042e-14 1.48488 4.07665)
(-8.55528e-15 -10.0492 1.6117)
(-3.39842e-15 -11.4016 3.84039)
(2.44758e-16 -4.68482 2.52295)
(-2.80713e-15 4.24803 -1.90074)
(-4.77409e-15 10.0159 -6.72532)
(-5.1913e-15 15.1414 -8.12569)
(-4.52199e-15 16.0004 -9.10791)
(-2.63726e-15 16.5155 -3.03965)
(4.01565e-16 0.934128 -15.5296)
(-1.48638e-14 -3.11946 59.7137)
(-1.75354e-14 -10.1698 74.9091)
(-1.14397e-14 -15.5616 87.7497)
(-7.42286e-15 -20.8883 100.704)
(-5.85631e-15 -22.3826 100.62)
(-8.97369e-15 -15.0017 76.544)
(-1.54952e-14 -0.529619 31.635)
(-1.86765e-14 7.21618 5.62071)
(-1.68313e-14 6.94443 7.65715)
(-1.54037e-14 3.25024 3.26907)
(-1.19063e-14 -8.51906 -3.80039)
(-7.64426e-15 -11.1597 -5.16172)
(-4.08165e-15 -3.89669 -9.46325)
(-5.90362e-15 5.46312 -13.0077)
(-7.0973e-15 10.5841 -14.0083)
(-6.58739e-15 14.939 -12.0966)
(-5.25627e-15 14.4466 -10.1548)
(-2.20808e-15 16.3385 -3.18463)
(-5.78012e-16 4.02086 -8.73831)
(-1.25876e-14 -5.72739 49.9506)
(-2.13872e-14 -14.9715 61.5058)
(-1.78894e-14 -20.8868 73.3258)
(-1.538e-14 -22.7684 83.7415)
(-1.49623e-14 -15.157 74.9236)
(-1.79502e-14 0.0206597 41.2992)
(-1.99743e-14 8.88217 15.9129)
(-1.86007e-14 7.7071 13.2214)
(-1.71481e-14 8.53822 8.02647)
(-1.5683e-14 6.04469 4.64363)
(-1.40377e-14 -5.68501 -4.43508)
(-1.16604e-14 -9.01444 -9.8109)
(-9.7628e-15 -2.31522 -15.3175)
(-1.07607e-14 6.01696 -17.3967)
(-9.99689e-15 9.90032 -16.1628)
(-7.6342e-15 13.469 -11.858)
(-5.10089e-15 12.4321 -8.49468)
(-1.67424e-15 15.4465 -3.80444)
(-1.56493e-17 5.52609 -7.27485)
(-7.74568e-15 -8.45573 40.8801)
(-2.22433e-14 -19.1141 48.4818)
(-2.22017e-14 -24.2674 59.7785)
(-2.10497e-14 -21.3861 67.9)
(-2.06875e-14 -5.90781 52.5777)
(-2.14172e-14 8.71147 25.9404)
(-2.05487e-14 10.703 19.538)
(-1.90177e-14 9.41965 14.2976)
(-1.74226e-14 9.76147 9.36407)
(-1.58566e-14 7.80609 6.19416)
(-1.44339e-14 -3.85377 -1.7234)
(-1.34683e-14 -6.785 -9.3722)
(-1.26153e-14 -1.37405 -14.4168)
(-1.21809e-14 5.7275 -13.7353)
(-1.03329e-14 8.64846 -11.3983)
(-7.0122e-15 11.9713 -8.28868)
(-4.34632e-15 11.478 -7.72321)
(-1.38929e-15 15.1827 -4.97138)
(2.40564e-17 6.04902 -7.0311)
(1.60412e-15 -9.02115 31.5178)
(-1.67074e-14 -22.2434 32.8883)
(-2.19051e-14 -29.1619 39.9016)
(-2.36952e-14 -20.4557 46.6828)
(-2.31064e-14 2.55319 36.487)
(-2.22203e-14 13.5958 25.5935)
(-2.09672e-14 14.5099 20.2964)
(-1.93344e-14 12.6705 15.2646)
(-1.76572e-14 12.4557 10.9202)
(-1.60257e-14 10.7663 7.46251)
(-1.43242e-14 1.53764 2.95572)
(-1.34991e-14 -3.34723 -5.28511)
(-1.28868e-14 0.321806 -8.6312)
(-1.1586e-14 5.19562 -8.5064)
(-9.07254e-15 7.88512 -8.03265)
(-6.13889e-15 11.8773 -7.64158)
(-4.03649e-15 11.0205 -8.52132)
(-1.2363e-15 14.9391 -5.81445)
(9.22381e-17 5.34598 -7.78173)
(-3.38588e-15 91.5171 155.457)
(-4.46379e-14 138.041 237.23)
(-3.63574e-14 150.727 247.735)
(-3.62547e-14 145.608 235.693)
(-3.82969e-14 137.796 215.925)
(-5.2142e-14 127.861 195.63)
(-5.79239e-14 117.846 175.4)
(-5.57117e-14 109.752 160.765)
(-5.44823e-14 102.829 147.785)
(-5.38431e-14 96.0719 135.953)
(-5.40743e-14 89.478 124.617)
(-5.5307e-14 82.7958 113.429)
(-5.52043e-14 76.0262 102.185)
(-5.22267e-14 69.3801 91.5086)
(-5.15336e-14 64.1462 83.3206)
(-6.19205e-14 62.213 81.949)
(-8.15334e-14 65.7889 90.5255)
(-9.47386e-14 72.4136 107.223)
(-9.39705e-14 75.8233 117.409)
(-1.13315e-13 56.8348 96.592)
(-9.48216e-16 82.8846 137.124)
(-3.22506e-14 134.079 233.584)
(-1.94715e-14 145.731 245.427)
(-2.33224e-14 137.338 231.99)
(-2.37868e-14 127.187 211.279)
(-3.64887e-14 116.288 191.716)
(-4.06431e-14 107.635 174.753)
(-4.13467e-14 100.144 159.9)
(-4.54091e-14 93.9014 147.329)
(-5.02027e-14 88.6087 136.463)
(-5.55383e-14 83.8108 126.613)
(-6.2743e-14 79.1974 117.165)
(-7.33457e-14 74.488 107.615)
(-7.91569e-14 69.6099 97.6717)
(-8.28998e-14 64.6259 87.7625)
(-8.74626e-14 60.4245 79.3473)
(-9.15074e-14 57.0488 74.6919)
(-9.30618e-14 54.7841 73.2055)
(-9.10854e-14 47.6784 69.911)
(-1.21431e-13 28.2476 40.9976)
(3.47054e-16 90.1128 150.561)
(-8.16192e-15 149.449 255.184)
(-4.90686e-15 158.651 264.338)
(-6.73296e-15 148.807 246.62)
(-4.96258e-15 137.592 224.81)
(-1.48643e-14 127.199 205.044)
(-1.17557e-14 118.466 187.846)
(-1.13961e-14 111.03 172.816)
(-1.28789e-14 104.334 159.201)
(-1.51798e-14 97.9425 146.435)
(-1.69796e-14 91.5846 134.265)
(-1.96976e-14 85.21 122.602)
(-2.3026e-14 78.7626 111.47)
(-2.7003e-14 72.3465 100.723)
(-3.07484e-14 65.657 90.1932)
(-3.50368e-14 58.9159 79.4225)
(-4.0734e-14 51.1589 68.7027)
(-4.64472e-14 43.3516 57.1351)
(-5.38764e-14 29.7429 41.886)
(-7.85409e-14 11.1554 9.35502)
(-1.14516e-16 102.316 169.088)
(2.04841e-15 162.951 272.708)
(1.52417e-15 165.838 273.272)
(1.76788e-15 154.227 251.749)
(2.1463e-15 142.729 230.191)
(-7.77625e-15 133.475 211.533)
(-8.50397e-15 125.701 195.452)
(-8.81409e-15 118.741 180.379)
(-1.08479e-14 111.723 165.624)
(-1.28488e-14 104.406 150.799)
(-1.35016e-14 96.6639 135.953)
(-1.49453e-14 88.5787 121.217)
(-1.82015e-14 80.1486 106.808)
(-2.11203e-14 71.5359 92.767)
(-2.27538e-14 62.4412 79.1532)
(-2.65341e-14 53.1252 65.3712)
(-3.62374e-14 42.2255 51.0846)
(-4.61244e-14 30.7422 34.0311)
(-6.93556e-14 10.4159 9.7504)
(-1.67758e-13 -4.6391 -26.3389)
(1.38908e-17 127.692 214.422)
(-5.22345e-16 179.335 295.924)
(-5.1449e-16 171.742 284.005)
(-5.06838e-16 160.815 261.723)
(-7.8918e-16 150.753 243.538)
(1.65767e-15 144.013 227.785)
(2.57109e-15 137.504 213.281)
(2.96362e-15 130.792 197.584)
(3.3751e-15 122.834 180.663)
(3.79877e-15 114.037 162.745)
(4.17645e-15 104.5 144.409)
(4.82447e-15 94.4727 125.907)
(5.65968e-15 83.8975 107.471)
(6.59991e-15 72.8665 89.0899)
(7.48323e-15 60.9261 70.8837)
(8.52978e-15 48.357 52.3196)
(1.02525e-14 33.3289 33.69)
(1.2238e-14 18.529 13.108)
(1.50677e-14 -5.74117 -12.3066)
(-8.952e-14 -18.2668 -50.0687)
(4.26144e-18 151.735 262.815)
(1.49431e-16 181.522 303.114)
(1.64938e-16 165.489 284.806)
(1.5011e-16 157.736 267.61)
(2.48602e-16 148.677 254.636)
(-3.05821e-16 143.212 242.541)
(-7.04542e-16 135.632 229.325)
(-8.98772e-16 126.418 211.83)
(-9.62859e-16 114.75 191.874)
(-1.00701e-15 102.384 170.632)
(-1.10885e-15 89.2617 149.026)
(-1.27862e-15 75.6354 126.814)
(-1.47791e-15 61.0547 103.844)
(-1.7284e-15 45.4186 79.6688)
(-2.11896e-15 28.014 53.9319)
(-2.63867e-15 8.78523 25.3809)
(-1.86531e-15 -13.537 -6.8268)
(6.76858e-15 -19.685 -27.6496)
(1.07911e-14 -41.3994 -49.4118)
(-2.81522e-14 -34.4484 -73.9934)
(-3.964e-18 154.637 275.684)
(-4.38451e-17 162.658 281.486)
(-4.58257e-17 149.519 270.643)
(-4.7745e-17 142.605 258.36)
(-5.80332e-17 132.355 247.263)
(1.13495e-16 124.677 236.211)
(2.36428e-16 113.357 221.671)
(2.63349e-16 99.6887 201.442)
(2.6127e-16 84.0249 179.181)
(2.87996e-16 68.5149 156.438)
(3.47653e-16 52.5529 133.553)
(4.0268e-16 36.2152 109.751)
(3.74879e-16 19.1595 84.9633)
(1.0247e-16 1.97547 59.5079)
(-4.98629e-16 -14.2124 34.887)
(-8.16913e-16 -27.7894 12.8636)
(8.10369e-16 -37.5784 -6.50111)
(5.22865e-15 -39.9723 -20.5035)
(8.9448e-15 -29.011 -17.1293)
(4.01622e-15 -5.49195 4.03414)
(2.02023e-18 136.367 243.867)
(1.04446e-17 145.526 258.25)
(1.03339e-17 134.338 246.306)
(1.0639e-17 124.001 231.68)
(1.98301e-18 111.933 218.678)
(-4.14872e-17 101.686 206.584)
(-6.02991e-17 88.543 191.818)
(-5.80199e-17 73.7135 172.316)
(-5.4169e-17 57.5493 151.068)
(-4.3968e-17 41.5821 129.02)
(-1.28191e-17 25.3682 106.644)
(2.78423e-17 9.48277 84.1414)
(7.80889e-18 -5.25209 62.9003)
(-1.5518e-16 -16.7082 45.2564)
(-4.02394e-16 -21.529 35.4353)
(-4.73525e-16 -15.2723 39.8598)
(-1.69316e-16 5.02911 63.612)
(2.63292e-16 36.6782 101.284)
(2.31676e-16 66.0107 130.37)
(-2.11177e-16 55.2668 109.195)
(-5.17599e-19 124.923 219.677)
(-1.85814e-18 143.05 248.577)
(-1.67384e-18 131.055 230.704)
(-1.51721e-18 119.353 209.092)
(1.15184e-18 106.866 192.715)
(9.36742e-18 98.2778 177.729)
(1.05891e-17 87.4545 163.981)
(7.46789e-18 77.3434 147.117)
(4.34708e-18 65.7859 129.381)
(4.07491e-18 55.0149 110.169)
(8.66621e-18 44.3656 90.9391)
(1.259e-17 35.625 73.1926)
(3.10751e-18 30.7555 61.2429)
(-2.11036e-17 32.8854 60.3811)
(-3.55511e-17 43.2405 73.0476)
(-2.06792e-17 58.6498 94.8957)
(-4.57492e-18 75.0065 119.105)
(-3.58677e-17 85.9051 139.451)
(-1.13382e-16 88.1782 141.942)
(-9.85273e-17 62.9752 111.927)
(8.57741e-20 124.132 217.579)
(2.56505e-19 151.574 257.75)
(2.06717e-19 137.602 237.763)
(1.83564e-19 126.421 211.033)
(-2.10945e-19 114.756 195.717)
(-1.57815e-18 109.261 180.169)
(-1.70811e-18 100.897 167.99)
(-1.03926e-18 95.4577 154.834)
(-3.63777e-19 89.2012 143.283)
(-9.64586e-20 84.447 131.636)
(-3.46231e-19 79.9078 120.346)
(-1.38102e-19 76.0136 108.885)
(2.24168e-18 72.5359 97.4949)
(7.17619e-18 69.6375 87.4041)
(1.28347e-17 67.9849 80.8747)
(1.77633e-17 67.746 80.2532)
(2.30418e-17 68.6676 85.2046)
(2.98458e-17 68.1747 91.8113)
(3.77389e-17 61.8039 90.7498)
(3.80857e-17 40.7398 64.5119)
(-9.02387e-21 126.915 222.897)
(-2.42372e-20 160.919 269.851)
(-1.50232e-20 141.55 245.163)
(-1.13644e-20 131.887 217.56)
(3.54787e-20 120.573 204.212)
(2.09725e-19 116.171 189.088)
(1.99861e-19 108.169 176.979)
(7.08421e-20 102.639 163.618)
(-2.49597e-20 96.1917 151.642)
(-3.57528e-21 90.624 139.971)
(3.76691e-20 85.144 129.043)
(-2.57745e-19 79.992 118.599)
(-1.19409e-18 74.9959 108.509)
(-2.54047e-18 70.0981 98.5353)
(-3.50239e-18 65.0066 88.6805)
(-3.44505e-18 59.8923 79.2389)
(-2.98186e-18 54.0143 70.9948)
(-4.37261e-18 47.811 62.8993)
(-9.08328e-18 36.3507 51.7601)
(-1.55124e-17 16.1896 18.309)
(4.99026e-23 132.499 234.181)
(1.31074e-22 167.697 277.301)
(-1.6825e-21 141.807 248.557)
(-2.21781e-21 136.124 222.732)
(-5.70761e-21 123.641 211.086)
(-2.11047e-20 120.189 195.294)
(-1.10445e-20 111.308 183.476)
(1.4155e-20 105.961 169.678)
(2.6104e-20 98.972 157.436)
(5.69059e-21 93.0099 144.871)
(-1.36705e-20 86.7691 132.852)
(6.73943e-20 80.729 121.012)
(3.09949e-19 74.5686 109.499)
(6.02392e-19 68.3345 98.1137)
(6.81071e-19 61.515 86.6886)
(3.29809e-19 54.2471 74.5454)
(-4.06597e-19 45.1163 61.4632)
(-1.11214e-18 35.1537 45.5915)
(-6.17936e-19 18.0487 24.5443)
(-2.06369e-18 0.86345 -10.6402)
(2.47565e-22 142.224 254.507)
(7.15745e-22 171.902 279.694)
(1.07107e-21 142.835 253.882)
(1.06118e-21 142.351 230.262)
(6.23034e-22 128.125 220.047)
(4.17698e-22 126.294 203.488)
(-2.78248e-21 116.615 192.121)
(-7.033e-21 112.266 178.165)
(-7.45482e-21 105.415 166.344)
(-9.08102e-22 100.16 153.747)
(4.44912e-21 94.1984 141.425)
(-1.2078e-20 88.1284 128.38)
(-6.06019e-20 81.1219 114.572)
(-1.13132e-19 73.0865 99.6093)
(-1.08373e-19 63.4679 83.607)
(1.41256e-20 52.7823 66.2534)
(2.87902e-19 39.6099 47.7223)
(7.30106e-19 25.7802 25.7461)
(1.62497e-18 3.34068 -0.514046)
(1.37824e-18 -11.8194 -37.104)
(-7.91915e-23 151.268 276.879)
(-2.36605e-22 171.871 276.951)
(-2.90411e-22 142.877 259.751)
(-2.60731e-22 147.055 238.348)
(7.61868e-24 130.572 229.79)
(5.84155e-22 130.87 213.201)
(1.63091e-21 120.153 203.412)
(2.65719e-21 117.586 190.209)
(2.592e-21 110.823 179.978)
(7.3402e-22 106.855 168.234)
(-1.43266e-21 100.99 156.24)
(-6.47747e-22 94.3136 141.527)
(3.54655e-21 84.835 123.813)
(5.30762e-21 72.9466 102.974)
(-3.88036e-21 58.6807 80.3577)
(-3.06683e-20 43.2376 56.1979)
(-1.01377e-19 25.4563 31.5466)
(-1.96679e-19 8.38937 2.9523)
(1.12864e-19 -18.3111 -26.6704)
(2.03513e-18 -25.9035 -64.4626)
(1.92629e-23 153.231 287.056)
(6.03571e-23 165.319 267.335)
(6.4113e-23 138.727 259.593)
(2.25553e-23 143.882 239.349)
(-7.99139e-23 125.557 231.99)
(-1.24153e-22 126.009 216.122)
(5.82937e-23 113.89 207.997)
(4.30785e-22 111.583 196.169)
(6.88369e-22 103.709 187.959)
(2.9923e-22 99.4831 177.329)
(-1.802e-21 91.3326 164.987)
(-8.22016e-21 81.0116 146.18)
(-2.33602e-20 65.6133 121.028)
(-4.66598e-20 48.0637 91.8768)
(-6.00629e-20 29.8778 62.5226)
(-6.13977e-20 11.6668 32.9476)
(-1.83936e-19 -4.13454 8.18141)
(-2.85589e-19 -17.4835 -15.0068)
(5.29751e-19 -39.1383 -46.1559)
(1.93859e-18 -30.8906 -55.0058)
(-3.70984e-24 146.661 278.696)
(-1.04609e-23 158.566 256.474)
(-1.65833e-23 131.727 250.331)
(-2.70758e-23 135.936 229.801)
(1.86941e-23 117.41 222.194)
(2.2331e-22 115.725 206.805)
(6.04851e-22 103.653 198.059)
(9.54648e-22 98.7755 186.77)
(8.3196e-22 90.1283 178.071)
(-1.24815e-22 83.1651 167.465)
(-2.5156e-21 72.8298 153.889)
(-9.24205e-21 59.5622 133.635)
(-2.57016e-20 43.005 107.878)
(-5.05606e-20 26.6638 80.9109)
(-7.05255e-20 11.5209 54.738)
(-7.77948e-20 -3.94861 26.3327)
(-4.78209e-20 -18.4355 -1.72659)
(1.14918e-19 -23.0383 -15.0098)
(4.48874e-19 -10.9686 -1.79141)
(4.92892e-19 8.25623 29.1309)
(8.74169e-25 139.102 270.236)
(1.16516e-24 156.44 246.479)
(-5.8285e-24 125.204 241.291)
(-2.16211e-23 132.531 218.858)
(-1.6657e-23 112.822 211.181)
(8.54129e-23 111.647 194.71)
(3.41308e-22 99.7659 184.71)
(6.77786e-22 94.5161 172.125)
(8.67216e-22 86.0731 161.814)
(6.68506e-22 79.2185 150.526)
(-1.53798e-22 70.7685 138.319)
(-2.3967e-21 61.6935 123.419)
(-8.05033e-21 52.1828 106.663)
(-1.90812e-20 43.9395 89.9999)
(-3.39132e-20 37.2807 74.5106)
(-4.57242e-20 32.2126 60.1837)
(-4.97417e-20 29.9579 48.9067)
(-5.69058e-20 27.4636 41.5893)
(-8.22574e-20 33.1348 43.7473)
(-2.37657e-19 30.1938 52.9696)
(6.93019e-26 130.933 268.835)
(-5.94624e-25 156.349 241.605)
(-4.87224e-24 119.329 239.816)
(-1.16389e-23 128.247 218.125)
(-8.83767e-25 109.254 210.442)
(6.72615e-23 107.328 195.296)
(2.26258e-22 97.133 184.913)
(4.6369e-22 91.999 172.743)
(6.99582e-22 85.0851 162.083)
(8.39216e-22 79.69 151.26)
(9.06569e-22 74.2151 140.99)
(1.1793e-21 69.46 130.72)
(2.08828e-21 65.0421 120.288)
(3.85886e-21 60.9586 109.266)
(5.91408e-21 56.7453 97.2209)
(5.57492e-21 51.191 82.4631)
(-1.21711e-21 42.1951 61.9185)
(-1.44606e-20 28.0587 32.7726)
(-3.49422e-20 7.26468 -0.411408)
(-1.00826e-19 -6.40009 -27.5443)
(9.24828e-26 108.684 255.127)
(-3.98003e-25 149.068 225.642)
(-2.99824e-24 108.273 228.564)
(-7.42803e-24 114.776 213.083)
(-3.67754e-24 98.7683 207.199)
(3.09946e-23 94.3059 197.312)
(1.2123e-22 85.6237 189.581)
(2.71595e-22 79.7543 181.237)
(4.50433e-22 73.5816 173.454)
(6.12819e-22 68.4132 165.711)
(7.76352e-22 63.6149 158.162)
(1.09324e-21 59.2991 150.533)
(1.74432e-21 55.174 142.537)
(2.56469e-21 51.051 133.738)
(2.6749e-21 46.5833 123.45)
(4.64416e-22 40.9054 109.978)
(-6.58393e-21 31.7929 89.3235)
(-2.17569e-20 16.0072 54.5758)
(-4.18825e-20 -7.38498 3.1221)
(-3.9927e-20 -19.2801 -36.8775)
(6.92286e-26 35.9625 158.158)
(1.96856e-25 78.4126 130.837)
(-1.1456e-25 52.7637 138.971)
(-1.52805e-24 52.6225 134.944)
(-3.77447e-24 44.1902 134.961)
(-3.99632e-24 39.8515 133.363)
(4.07852e-24 34.9127 132.15)
(2.9205e-23 31.0805 130.6)
(7.97544e-23 27.6648 128.932)
(1.55821e-22 24.8694 127.012)
(2.37135e-22 22.5803 124.836)
(2.85607e-22 20.8486 122.408)
(2.8726e-22 19.719 119.804)
(3.15981e-22 19.282 117.135)
(5.36231e-22 19.7554 114.441)
(1.08045e-21 21.1365 111.808)
(1.86746e-21 23.0348 109.164)
(2.47465e-21 27.5513 103.517)
(2.15067e-21 30.8215 90.4121)
(6.18221e-22 7.08343 64.8891)
(-1.14103e-25 -35.9652 158.163)
(-5.69897e-26 -78.4089 130.845)
(1.17168e-25 -52.7595 138.981)
(6.39142e-25 -52.6134 134.957)
(1.39223e-24 -44.1779 134.978)
(1.22438e-24 -39.8345 133.385)
(-2.54256e-24 -34.8905 132.177)
(-1.41139e-23 -31.0514 130.631)
(-3.77491e-23 -27.6268 128.964)
(-7.39057e-23 -24.821 127.044)
(-1.16379e-22 -22.522 124.869)
(-1.56546e-22 -20.7835 122.443)
(-1.8828e-22 -19.6508 119.846)
(-1.92656e-22 -19.2137 117.186)
(-1.07859e-22 -19.6884 114.507)
(1.4987e-22 -21.0703 111.897)
(5.5671e-22 -22.9724 109.282)
(8.3604e-22 -27.5057 103.636)
(6.15808e-22 -30.7933 90.4702)
(7.05368e-23 -7.08563 64.8729)
(3.56054e-25 -108.714 255.173)
(3.94144e-26 -149.087 225.704)
(3.84276e-25 -108.303 228.627)
(2.36677e-24 -114.801 213.16)
(2.78944e-24 -98.8012 207.281)
(-7.44544e-24 -94.3409 197.406)
(-3.944e-23 -85.6676 189.683)
(-9.75672e-23 -79.806 181.347)
(-1.7543e-22 -73.6438 173.57)
(-2.66914e-22 -68.4834 165.827)
(-3.81623e-22 -63.6874 158.265)
(-5.3002e-22 -59.3638 150.61)
(-6.60764e-22 -55.2244 142.587)
(-6.30295e-22 -51.0904 133.78)
(-3.87454e-22 -46.6202 123.517)
(-4.51419e-22 -40.9223 110.053)
(-2.10373e-21 -31.6856 89.2111)
(-5.87695e-21 -15.5777 53.9171)
(-9.08785e-21 8.17144 1.95032)
(-6.59049e-21 19.7514 -37.5017)
(-1.52448e-24 -130.952 268.934)
(-9.13573e-25 -156.455 241.654)
(1.86465e-24 -119.387 239.891)
(7.3846e-24 -128.384 218.152)
(9.8791e-24 -109.373 210.475)
(-5.68748e-24 -107.505 195.294)
(-5.52078e-23 -97.3246 184.896)
(-1.39516e-22 -92.2378 172.692)
(-2.36596e-22 -85.3618 162.007)
(-3.31991e-22 -80.0279 151.166)
(-4.6536e-22 -74.6326 140.917)
(-6.22775e-22 -69.9833 130.719)
(-3.88496e-22 -65.6757 120.41)
(7.91767e-22 -61.6877 109.534)
(1.94383e-21 -57.4662 97.5694)
(-3.94454e-22 -51.8233 82.7859)
(-9.06424e-21 -42.6761 62.286)
(-2.65102e-20 -28.3798 33.0682)
(-3.73058e-20 -7.201 -0.198476)
(1.8543e-20 6.81748 -28.3455)
(5.06739e-24 -138.944 269.957)
(2.29621e-24 -156.367 246.083)
(-1.09726e-24 -125.033 240.92)
(-2.01746e-24 -132.522 218.362)
(-1.0655e-23 -112.723 210.678)
(-5.10938e-23 -111.65 194.078)
(-1.43614e-22 -99.7262 184.016)
(-2.76137e-22 -94.5202 171.306)
(-3.80105e-22 -86.0654 160.899)